/*--------------------------------*- C++ -*----------------------------------*\
| =========                 |                                                 |
| \\      /  F ield         | OpenFOAM: The Open Source CFD Toolbox           |
|  \\    /   O peration     | Version:  2312                                  |
|   \\  /    A nd           | Website:  www.openfoam.com                      |
|    \\/     M anipulation  |                                                 |
\*---------------------------------------------------------------------------*/
FoamFile
{
    version     2.0;
    format      ascii;
    arch        "LSB;label=32;scalar=64";
    class       volScalarField;
    location    "3.3";
    object      alpha.air;
}
// * * * * * * * * * * * * * * * * * * * * * * * * * * * * * * * * * * * * * //

dimensions      [0 0 0 0 0 0 0];

internalField   nonuniform List<scalar> 
2268
(
7.06725e-10
6.29371e-10
4.88954e-10
2.77092e-10
1.30011e-10
7.63799e-11
3.82607e-11
2.00452e-11
1.54291e-11
1.53336e-11
1.9508e-11
2.84878e-11
4.28099e-11
6.75104e-11
1.14466e-10
1.83638e-10
2.17359e-10
1.54743e-10
1.35814e-10
1.35815e-10
4.55759e-09
3.87511e-08
1.73912e-07
8.97943e-10
1.40154e-09
1.94145e-09
1.36895e-09
6.6223e-10
3.08107e-10
1.40835e-10
7.31602e-11
5.79749e-11
7.33002e-11
1.29593e-10
2.00597e-10
2.9031e-10
3.31299e-10
6.08411e-10
1.42849e-09
3.37545e-09
2.92199e-09
1.76843e-09
1.35816e-10
2.49639e-08
1.05737e-06
2.19591e-06
1.1657e-09
4.3915e-09
5.36291e-09
6.43943e-09
3.83952e-09
1.02625e-10
9.36919e-11
9.34717e-11
1.28642e-10
2.30707e-10
5.15795e-10
9.75266e-10
9.78537e-10
4.87015e-10
9.66134e-10
3.19531e-09
1.5409e-08
3.22427e-08
3.33271e-08
1.43836e-08
1.62099e-08
1.48319e-06
1.57085e-06
1.16627e-09
3.28677e-09
1.65141e-09
2.09957e-08
4.13231e-08
1.4367e-07
3.73892e-08
4.11308e-09
4.86687e-10
1.93201e-10
2.02314e-10
2.66572e-10
4.8174e-10
1.74399e-10
1.37929e-10
1.37868e-10
1.37929e-10
1.38991e-10
8.12995e-08
4.725e-10
-2.06885e-12
-1.05202e-10
2.06677e-22
1.30058e-09
1.47684e-09
2.33514e-09
2.24447e-09
8.50164e-07
1.94491e-06
9.65518e-07
2.92461e-08
2.19753e-10
1.3182e-10
1.32032e-10
1.31992e-10
9.08104e-08
9.38805e-06
5.72607e-06
2.84846e-05
1.63826e-05
1.51469e-05
8.97772e-08
1.4537e-10
0.000104085
0.00163462
0.00718996
4.36811e-05
8.83159e-05
0.000291579
0.000115301
1.35412e-05
1.96119e-06
2.17931e-07
1.19798e-05
5.30551e-05
0.000159761
0.000191051
9.38678e-05
5.64104e-07
5.02667e-07
0.000298695
0.000838524
0.000527135
1.3892e-07
1.41035e-07
0.000776159
0.00598756
0.0164747
0.0170116
0.000783099
0.00111756
0.00132556
0.00110087
0.000236722
2.17936e-07
2.17927e-07
1.31483e-05
0.000202518
0.000253139
0.000253123
7.32855e-05
3.68654e-06
6.74587e-05
0.000556171
0.000578307
0.00110034
0.0100169
0.0180551
0.0180488
0.0171868
0.0131872
0.0155291
0.000936532
0.00132564
0.00132592
0.0011466
0.000391285
4.64083e-07
2.17927e-07
2.17927e-07
2.4349e-05
0.000115879
0.000116688
1.71452e-05
0.000684254
0.00254076
0.0025146
0.0034128
0.00537482
0.0180962
0.0179971
0.0130873
0.00181507
0.00132829
0.00734212
0.000742103
0.00368044
0.00794168
0.0109199
0.0109225
0.00671419
0.0044508
0.00396934
0.00396929
0.00396931
0.00403693
0.00396978
0.0033825
0.00338176
0.00513922
0.00847813
0.00755077
0.00662104
0.00658863
0.00021359
0.00047386
0.00265494
0.00473364
0.004765
0.00618968
0.00491054
0.00399781
0.00396914
0.0039691
0.00398129
0.00467777
0.00427504
0.00338156
0.00338154
0.0111078
0.017554
0.0166803
0.0101104
0.0001861
0.000186191
0.000250083
0.000730639
0.00440644
0.0118514
0.0189873
0.0162169
0.010119
0.0123096
0.0118631
0.012819
0.00975609
0.00481826
0.00338166
0.0145734
0.0175816
0.0141481
0.011379
0.000291438
0.000500665
0.00105775
0.00382194
0.013856
0.0268329
0.0268374
0.0242672
0.036764
0.0405261
0.0355381
0.0335411
0.0366383
0.0366997
0.0178535
0.0104567
0.0104596
0.010458
0.0104564
0.00277025
0.00312884
0.00701376
0.00982435
0.010006
0.012031
0.01407
0.0121295
0.0341711
0.0429789
0.0429995
0.0296585
0.0326007
0.0328275
0.046617
0.0410492
0.0183352
0.0162694
0.0110869
0.00665588
0.00308088
0.0051312
0.00528422
0.0081165
0.0120138
0.0108212
0.0114767
0.0243862
0.0429208
0.0364759
0.0271365
0.0277498
0.0353962
0.0492333
0.0524474
0.0516572
0.0471777
0.0385432
0.014117
0.00274149
0.00320708
0.00781781
0.00789091
0.00609364
0.00598578
0.0108837
0.0129886
0.0195528
0.0227633
0.0270328
0.042229
0.0837261
0.0909224
0.0531934
0.0521812
0.0398076
0.0394592
0.0189085
0.00277307
0.00488464
0.00556884
0.00552025
0.0057525
0.00757297
0.0202703
0.0667555
0.0426289
0.0275237
0.0402635
0.0582543
0.0960788
0.0960788
0.0927457
0.0508835
0.0412997
0.0314795
0.000664194
0.000827295
0.00105699
0.000298837
0.000228628
0.000151545
0.000158108
0.000287542
0.000322625
0.000276985
0.00013752
1.36054e-05
0.000128212
0.00321967
0.00503651
0.00636785
0.00780317
0.0134838
0.00862045
0.00128694
0.00129867
0.00128945
0.0196829
0.000664194
0.000664205
0.000669754
0.00118964
0.00253507
0.000992952
0.000437583
0.000436595
0.000436324
0.000425058
0.000303154
2.13047e-06
2.1305e-06
0.000105178
0.0017694
0.00679339
0.00768502
0.00539107
0.0053913
0.00558737
0.00556891
0.00386679
0.00451596
0.00234671
0.000867412
0.00191561
0.00456848
0.00253954
0.00302178
0.00731226
0.00877438
0.00287425
0.00806017
0.0200795
0.0283792
0.00919531
0.00264819
0.00172806
0.00954139
0.0237875
0.0178279
0.010508
0.0306694
0.0384997
0.019701
0.00717039
0.066823
0.0352878
0.048346
0.0512057
0.0292697
0.0149872
0.0483905
0.0480009
0.0351121
0.044875
0.064413
0.0644112
0.0528991
0.0237268
0.0234465
0.0609112
0.0798036
0.0755905
0.0303634
0.0200875
0.0451108
0.0505673
0.0487079
0.0785024
0.0767327
0.043165
0.0171712
0.0173012
0.0397544
0.0483761
0.0389408
0.0535933
0.0644115
0.0644114
0.0644115
0.0620996
0.0755832
0.0798062
0.0798035
0.0798355
0.0798243
0.0758991
0.00324762
0.00197518
0.00187274
0.00886158
0.0925815
0.102775
0.0613315
0.0233769
0.00595552
0.00230827
0.00412234
0.0064358
0.0242356
0.0310921
0.0169597
0.0088839
0.00873384
0.0429506
0.0798021
0.0798355
0.0798246
0.0798721
0.0798624
0.0568529
0.0137833
0.000673815
0.000421792
0.504765
0.563375
0.490287
0.184858
0.00272284
0.000484412
0.000480605
0.000476993
0.000474992
0.000468344
0.000456324
0.000473649
0.000475078
0.000960677
0.012387
0.028977
0.0332277
0.0269216
0.014478
0.0103819
0.0148247
0.0129551
0.0022748
0.988385
0.993899
0.978803
0.921522
0.603286
0.191265
0.035018
0.0041265
0.000335563
0.00033458
0.000333374
0.000301422
0.000239527
0.000235791
0.000265484
0.000347651
0.000563947
0.000307987
5.28843e-05
4.44922e-05
-2.44758e-08
-4.88386e-06
-3.48339e-11
0.995719
0.995806
0.996769
0.997405
0.997897
0.981257
0.89458
0.779607
0.642878
0.493485
0.361763
0.267011
0.203229
0.162341
0.138538
0.127931
0.127714
0.146186
0.181064
0.223913
0.262586
0.30089
0.330816
0.996247
0.997443
0.999985
0.999998
0.999998
0.999956
0.999856
0.999604
0.998738
0.998646
0.999281
0.999791
0.988166
0.9695
0.959306
0.955428
0.955535
0.963035
0.975011
0.981204
0.951353
0.899091
0.887813
0.999614
0.999926
1
0.999998
0.999997
0.999998
0.999999
0.999998
0.999996
0.999864
0.999782
0.99979
0.99987
0.999997
0.999997
0.999996
0.999997
0.999997
0.999989
0.998147
0.982243
0.978428
0.990832
1
1
1
1
0.999999
0.999999
1
1
0.999999
0.999999
0.999999
0.99998
0.99998
0.99998
0.999971
0.999968
0.999981
0.999999
0.999999
0.999945
0.999207
0.998519
0.998616
1
1
1
1
1
1
0.999992
0.999992
0.999998
0.999998
0.999996
0.999996
0.999998
0.999999
0.999984
0.99997
0.999972
0.999998
1
0.999999
0.999999
0.999999
0.999999
1
1
1
0.999999
0.999989
0.999976
0.999974
0.999975
0.999996
0.999999
0.999999
1
1
1
0.999998
0.999995
0.999996
0.999999
0.99999
0.999949
0.999925
0.999925
0.99995
1
1
1
0.999984
0.999973
0.999972
0.999974
0.999982
0.999984
0.999979
0.999984
0.999981
0.999946
0.999927
0.999927
0.999954
0.999963
0.999951
0.999929
0.999925
0.999925
0.999956
0.999972
1
1
1
0.999994
0.999984
0.999991
0.999991
0.999929
0.999896
0.999896
0.999905
0.999919
0.999919
0.999925
0.999953
0.999972
0.99997
0.999976
0.999981
0.999989
0.999994
0.999998
0.999995
1
1
1
1
1
1
0.999989
0.999944
0.999928
0.999942
0.999976
0.999985
0.999977
0.999985
0.999993
0.999994
0.999998
1
1
1
1
1
1
1
1
1
1
1
1
0.999996
0.999998
0.999999
1
1
1
1
1
1
1
1
1
1
1
1
0.999999
0.999999
1
1
1
1
1
1
1
1
1
1
1
1
1
1
1
1
1
1
1
1
1
1
1
1
1
1
1
1
1
1
1
1
1
1
1
1
1
1
1
1
1
1
1
1
1
1
1
1
1
1
1
1
1
1
1
1
1
1
1
1
1
1
1
1
1
1
1
1
1
1
1
1
1
1
1
1
1
1
1
1
1
1
1
1
1
1
1
1
1
1
1
1
1
1
1
1
1
1
1
1
1
1
1
1
1
1
1
1
1
1
1
1
1
1
1
1
1
1
1
1
1
1
1
1
1
1
1
1
1
1
1
1
1
1
1
1
1
1
1
1
1
1
1
1
1
1
1
1
1
1
1
1
1
1
1
1
1
1
1
1
1
1
1
1
1
1
1
1
1
1
1
1
1
1
1
1
1
1
1
1
1
1
1
1
1
1
1
1
1
1
1
1
1
1
1
1
1
1
1
1
1
1
1
1
1
1
1
1
1
1
1
1
1
1
1
1
1
1
1
1
1
1
1
1
1
1
1
1
1
1
1
1
1
1
1
1
1
1
1
1
1
1
1
1
1
1
1
1
1
1
1
1
1
1
1
1
1
1
1
1
1
1
1
1
1
1
1
1
1
1
1
1
1
1
1
1
1
1
1
1
0.999999
0.999999
1
1
1
1
1
1
1
1
1
1
1
1
1
1
1
1
1
1
1
1
0.999999
0.999999
0.999999
0.999999
1
1
1
1
1
1
1
1
1
1
1
1
1
1
1
1
1
1
1
0.999999
0.999999
0.999999
0.999999
1
1
1
1
1
1
1
1
1
1
1
1
1
1
1
1
1
1
1
0.999999
0.999999
0.999999
0.999999
0.999999
1
1
1
1
1
1
1
1
1
1
1
1
1
1
1
1
1
1
1
1
0.999999
0.999999
0.999999
1
1
1
1
1
1
1
1
1
1
1
1
1
1
1
1
1
1
1
1
1
0.999999
0.999999
1
1
1
1
1
1
1
1
1
1
1
1
1
1
1
1
1
1
1
1
1
0.999999
1
1
1
1
1
1
1
1
1
1
1
1
1
1
1
1
1
1
1
1
1
1
1
1
1
1
1
1
1
1
1
1
1
1
1
1
1
1
1
1
1
1
1
1
1
1
1
1
1
1
1
1
1
1
1
1
1
1
1
1
1
1
1
1
1
1
1
1
1
1
1
1
1
1
1
1
1
1
1
1
1
1
1
1
1
1
1
1
1
1
1
1
1
1
1
1
1
1
1
1
1
1
1
1
1
1
1
1
0.999999
1
1
1
1
1
1
1
1
1
1
1
1
1
1
1
1
1
1
1
1
1
1
0.04488
0.0449818
0.044909
0.0448422
0.0269958
0.0448641
0.0449266
0.044849
0.00292355
0.00296953
0.00580138
0.00837188
0.0106209
0.0219484
0.0590438
0.0630058
0.0544491
0.0545643
0.0368284
0.0155845
-6.6465e-10
8.06452e-11
2.43578e-05
5.90379e-16
-1.18704e-08
7.7032e-06
4.51395e-06
-5.90377e-16
7.43408e-07
4.16767e-05
0.00768645
0.0207905
0.332488
0.351901
0.49309
0.573516
0.933306
0.946957
0.957206
0.965193
0.998518
0.996196
0.996884
0.997455
0.999253
0.999983
0.99984
0.999684
1
0.999999
0.999997
0.999998
0.999995
0.99999
0.999936
0.999929
0.999935
0.999935
0.999936
0.999918
0.999993
0.999995
0.999999
0.999968
1
0.999999
0.999999
0.999994
0.999999
0.999999
0.999999
0.999999
1
1
1
0.999999
1
1
1
1
1
1
1
1
1
1
1
1
1
1
1
1
1
1
1
1
1
1
1
1
1
1
1
1
1
1
1
1
1
1
1
1
1
1
1
1
1
1
1
1
1
1
1
1
1
1
1
1
1
1
1
1
1
1
1
1
1
1
1
1
1
1
1
1
1
1
1
1
1
1
1
1
1
1
1
1
1
1
1
1
1
1
1
1
1
1
1
1
0.0397932
0.0242786
0.00649053
0.00639313
0.0164695
0.0222708
0.024122
0.0317048
0.104087
0.100985
0.0794973
0.0236486
0.0909834
0.0960788
0.0960788
0.0960788
0.071563
0.00615902
0.00245434
0.0413305
0.0298361
0.00818998
0.0169591
0.0508939
0.0716979
0.0762813
0.100548
0.120784
0.0558338
0.0153096
0.00938719
0.039993
0.0808627
0.0580898
0.0209988
0.0111541
0.00253396
0.00245467
0.0115103
0.0198289
0.0402938
0.0689793
0.0687898
0.065382
0.0737066
0.143765
0.173044
0.047918
0.00938719
0.00936138
0.00938785
0.0178027
0.0033747
0.000543076
0.00171716
0.003518
0.00251507
0.0632836
0.0695283
0.0694182
0.0505691
0.0104163
0.000666007
0.0319437
0.174651
0.184118
0.184149
0.178373
0.140336
0.0576365
0.00081365
0.000543073
0.000543221
0.000543243
0.00224272
0.00345416
0.0224518
0.0312863
0.0172856
0.000642135
0.000647061
0.000655683
0.000664401
0.0462835
0.179147
0.190121
0.190036
0.111916
0.0517565
0.00158697
0.000545793
0.0220139
0.00514851
0.00151533
0.00531667
-3.89201e-21
0.00069531
0.000965566
0.000904306
0.000827497
0.000765261
0.000722138
0.000735666
0.00129412
0.042659
0.0392888
0.00755574
0.0026782
0.00213585
0.00155335
0.193789
0.331465
0.0301317
0.00756738
1.36543e-20
-2.20446e-21
0.000429579
0.000623666
0.000801029
0.00074781
0.000929833
0.00566329
0.0146251
0.0237097
0.0317053
0.0480775
0.078634
0.123935
0.108461
0.283385
0.664048
0.149629
0.00901421
0.0231413
0.0149771
0.0356095
0.0800668
0.168315
0.293979
0.433752
0.533478
0.605143
0.647107
0.689829
0.74805
0.817652
0.891485
0.912342
0.860085
0.972801
0.639678
0.0719835
0.587445
0.606197
0.705074
0.805837
0.904223
0.974674
0.995526
0.996774
0.997179
0.997531
0.998165
0.99902
0.99961
0.999904
0.999702
0.999654
0.99674
0.990023
0.653585
0.982171
0.989748
0.996419
0.997361
0.999687
1
1
1
1
1
0.999998
0.999985
0.999963
0.999994
0.999998
1
1
1
0.999332
0.996277
0.999076
1
0.999999
0.999999
0.999998
0.999995
0.999996
0.999999
0.999998
0.999948
0.999813
0.999744
0.999778
0.999974
1
1
1
0.999994
0.999977
0.999999
0.999999
0.999999
0.999999
0.999982
0.999953
0.999952
0.999973
0.999982
0.999971
0.99993
0.999743
0.999676
0.999677
0.999859
1
1
1
0.999998
0.999999
0.999999
0.999999
0.999995
0.999983
0.999954
0.999951
0.999951
0.999953
0.999988
0.999995
0.99999
0.999789
0.999673
0.99974
0.999914
0.999997
1
0.999915
0.999968
0.999998
1
1
0.99998
0.999978
0.999993
0.999997
0.999998
0.999996
0.999995
0.999996
0.999959
0.999737
0.999811
0.999963
0.999996
1
0.999892
0.999904
0.999982
1
1
0.999993
0.999962
0.999964
0.999992
0.999998
0.999993
0.999988
0.999995
0.999987
0.999738
0.999941
0.999995
0.999985
1
0.999893
0.999931
0.999991
1
0.999999
0.999992
0.999954
0.999955
0.999984
0.999998
0.999949
0.999816
0.999872
0.999861
0.999757
0.99999
0.999995
0.999993
0.999979
0.999963
0.999981
0.999994
0.999985
0.999968
0.999955
0.999954
0.999968
0.999997
0.999998
0.999942
0.999685
0.999685
0.999685
0.999809
0.999985
0.99999
0.999846
0.999736
0.999993
0.999979
0.999947
0.999947
0.999947
0.999953
0.999981
0.999997
0.999998
0.999998
0.999994
0.999757
0.999685
0.999685
0.999825
0.999985
0.999938
0.999724
0.999724
0.999991
0.999979
0.999976
0.999979
0.999989
0.999997
0.999998
0.999997
0.999995
0.999995
0.999999
0.999997
0.99979
0.999752
0.999953
0.999985
0.999974
0.999724
0.999725
1
1
1
1
1
0.999999
0.999998
0.999998
0.999999
1
1
1
1
0.999994
0.999998
0.999981
0.999887
0.999727
0.999748
1
1
1
1
1
1
1
1
1
1
1
1
1
1
0.999999
0.999977
0.999823
0.99987
0.999908
1
1
1
1
1
1
1
1
1
1
1
1
1
1
1
0.999996
0.999922
0.999983
0.999979
1
1
1
1
1
1
1
1
1
1
1
1
1
1
1
0.999996
0.999997
0.999978
0.999839
1
1
1
1
1
1
1
1
1
1
1
1
1
1
1
0.999996
0.999997
0.999951
0.999807
1
1
1
1
1
1
1
1
1
1
1
1
1
1
1
0.999998
1
0.999983
0.999807
1
1
1
1
1
1
1
1
1
1
1
1
1
1
1
1
1
1
0.999886
1
1
1
1
1
1
1
1
1
1
1
1
1
1
0.999999
0.999999
1
1
0.999998
1
1
1
1
1
1
1
1
1
1
1
1
1
0.999999
0.999999
0.999999
0.999999
1
0.999994
1
1
1
1
1
1
1
1
1
1
1
1
1
1
1
0.999999
0.999999
1
0.999992
1
1
1
1
1
1
1
1
1
1
1
1
1
1
0.999999
0.999999
1
1
0.999999
1
1
1
1
1
1
1
1
1
1
1
1
1
1
0.999997
0.999993
0.999997
1
1
1
1
1
1
1
1
1
1
1
1
1
1
1
1
0.999997
0.999993
0.999993
0.999997
0.999997
1
1
1
1
1
1
1
1
1
1
1
1
1
1
0.999999
0.999993
0.999993
0.999993
0.999996
1
1
1
1
1
1
1
1
1
1
1
1
1
1
1
0.999999
0.999993
0.999994
0.999999
1
1
1
1
1
1
1
1
1
1
1
1
1
1
1
1
0.999999
0.999999
1
1
1
1
1
1
1
1
1
1
1
1
1
1
1
1
1
1
1
1
1
1
1
1
1
1
1
1
1
1
1
1
1
1
1
1
1
1
1
1
1
1
1
1
1
1
1
1
1
1
1
1
1
1
1
1
1
1
1
1
1
1
1
1
1
1
1
1
1
1
1
1
1
1
1
1
1
1
1
1
1
1
1
1
1
1
1
1
1
1
1
1
1
1
1
1
1
1
1
1
1
1
1
1
1
1
1
1
1
1
1
1
1
1
1
1
1
1
1
1
1
1
1
1
1
1
1
1
1
1
1
1
1
1
)
;

boundaryField
{
    leftWall
    {
        type            alphaContactAngle;
        thetaProperties 
6
(
(galistan air) 90 0 0 0
(oil galistan) 90 0 0 0
(water oil) 90 0 0 0
(water air) 90 0 0 0
(oil air) 90 0 0 0
(water galistan) 90 0 0 0
);
        value           nonuniform List<scalar> 
50
(
7.06725e-10
8.97943e-10
1.1657e-09
1.16627e-09
1.30058e-09
4.36811e-05
0.000783099
0.000936532
0.000664194
0.000664194
0.00234671
0.066823
0.0785024
0.0925815
0.504765
0.988385
0.995719
0.996247
0.999614
1
1
1
1
1
1
1
1
1
1
1
1
1
1
1
1
1
1
1
1
1
1
1
1
1
1
1
1
1
1
0.999999
)
;
    }
    rightWall
    {
        type            alphaContactAngle;
        thetaProperties 
6
(
(galistan air) 90 0 0 0
(oil galistan) 90 0 0 0
(water oil) 90 0 0 0
(water air) 90 0 0 0
(oil air) 90 0 0 0
(water galistan) 90 0 0 0
);
        value           nonuniform List<scalar> 
50
(
0.00658863
0.0101104
0.011379
0.0104564
0.0110869
0.0385432
0.0394592
0.0314795
0.00245434
0.00245467
0.00251507
0.00345416
0.00531667
0.00756738
0.00901421
0.0719835
0.653585
0.999332
0.999994
1
1
1
1
0.999979
0.999736
0.999724
0.999725
0.999748
0.999908
0.999979
0.999839
0.999807
0.999807
0.999886
0.999998
0.999994
0.999992
0.999999
1
0.999997
0.999996
0.999999
1
1
1
1
1
1
1
1
)
;
    }
    lowerWall
    {
        type            alphaContactAngle;
        thetaProperties 
6
(
(galistan air) 90 0 0 0
(oil galistan) 90 0 0 0
(water oil) 90 0 0 0
(water air) 90 0 0 0
(oil air) 90 0 0 0
(water galistan) 90 0 0 0
);
        value           nonuniform List<scalar> 
62
(
7.06725e-10
6.29371e-10
4.88954e-10
2.77092e-10
1.30011e-10
7.63799e-11
3.82607e-11
2.00452e-11
1.54291e-11
1.53336e-11
1.9508e-11
2.84878e-11
4.28099e-11
6.75104e-11
1.14466e-10
1.83638e-10
2.17359e-10
1.54743e-10
1.35814e-10
1.35815e-10
4.55759e-09
3.87511e-08
1.73912e-07
1.73912e-07
2.19591e-06
1.57085e-06
2.06677e-22
0.00718996
0.0170116
0.0155291
0.00734212
0.04488
0.0449818
0.044909
0.0448422
0.000742103
0.00021359
0.0001861
0.000291438
0.00277025
0.00665588
0.014117
0.0189085
0.000742103
0.00368044
0.00794168
0.0109199
0.0109225
0.00671419
0.0044508
0.00396934
0.00396929
0.00396931
0.00403693
0.00396978
0.0033825
0.00338176
0.00513922
0.00847813
0.00755077
0.00662104
0.00658863
)
;
    }
    atmosphere
    {
        type            inletOutlet;
        inletValue      uniform 1;
        value           nonuniform List<scalar> 
46
(
0.999999
1
1
1
1
1
1
1
1
1
1
1
1
1
1
1
1
1
1
1
1
1
1
1
1
1
1
1
1
1
1
1
1
1
1
1
1
1
1
1
1
1
1
1
1
1
)
;
    }
    defaultFaces
    {
        type            empty;
    }
}


// ************************************************************************* //
