/*--------------------------------*- C++ -*----------------------------------*\
| =========                 |                                                 |
| \\      /  F ield         | OpenFOAM: The Open Source CFD Toolbox           |
|  \\    /   O peration     | Version:  2312                                  |
|   \\  /    A nd           | Website:  www.openfoam.com                      |
|    \\/     M anipulation  |                                                 |
\*---------------------------------------------------------------------------*/
FoamFile
{
    version     2.0;
    format      ascii;
    arch        "LSB;label=32;scalar=64";
    class       volScalarField;
    location    "3.3";
    object      alpha.oil;
}
// * * * * * * * * * * * * * * * * * * * * * * * * * * * * * * * * * * * * * //

dimensions      [0 0 0 0 0 0 0];

internalField   nonuniform List<scalar> 
2268
(
7.44068e-10
6.90957e-10
5.27349e-10
4.63918e-10
4.18119e-10
4.20532e-10
4.85702e-10
5.14185e-10
3.52457e-10
1.96155e-10
1.41657e-10
1.38311e-10
1.59526e-10
2.14424e-10
3.04058e-10
4.71014e-10
8.31902e-10
1.27323e-09
1.57096e-09
1.592e-09
2.89789e-05
5.29185e-05
5.27844e-05
6.32957e-10
5.89333e-10
1.15558e-09
1.40494e-08
2.68497e-08
1.57926e-08
6.79861e-09
5.69216e-09
3.15799e-09
9.89137e-10
6.4609e-10
8.20717e-10
1.30584e-09
6.51098e-10
7.44224e-10
7.36244e-10
1.25648e-09
2.18395e-09
3.76686e-09
1.5909e-09
2.85986e-06
2.10144e-05
2.53029e-05
5.60293e-10
1.51098e-09
6.97595e-08
5.37396e-08
6.88675e-07
6.17053e-07
1.56285e-07
1.90694e-09
1.32432e-09
1.57119e-09
2.78204e-09
4.7221e-09
1.42929e-08
3.68085e-08
1.2603e-08
1.4389e-09
1.19002e-09
2.44963e-09
3.251e-09
2.36439e-09
9.57285e-13
9.55592e-13
9.56089e-13
5.62616e-10
5.30338e-09
6.18347e-07
5.44545e-08
1.90329e-06
1.73076e-06
1.16427e-07
2.63859e-09
4.83105e-10
4.08941e-10
5.83594e-10
5.80739e-10
2.10982e-09
5.34139e-08
3.90599e-08
3.25967e-09
9.499e-13
9.49656e-13
9.43646e-13
9.49656e-13
9.49318e-13
9.54604e-13
1.41852e-06
8.21408e-09
1.09846e-08
1.00751e-08
3.90048e-06
2.51737e-06
1.9479e-23
2.17658e-23
-9.12197e-29
1.88148e-13
2.12078e-13
2.51599e-13
8.10452e-05
2.98983e-09
2.69952e-09
1.24065e-12
1.15218e-12
0.00552609
0.0106417
0.0127619
0.0135133
0.0100768
0.0034561
0.00172091
0.00232187
0.00201156
0.000547934
0.000112723
0.000109501
0.000233107
0.000236145
0.000113861
0.000176468
0.00112086
0.00261741
0.00262963
0.000614628
2.49018e-09
0.00303352
0.0212877
0.0334019
0.03323
0.0341085
0.0343853
0.0251941
0.0113999
0.00307403
0.00729525
0.0072953
0.00535246
0.000972893
0.000188658
0.000534299
0.000609767
0.000436179
0.000611488
0.00264225
0.00289064
0.00258586
0.0134858
0.0360947
0.0191951
0.0115181
0.0137683
0.0297588
0.0604028
0.0755255
0.0720422
0.0254954
0.0190196
0.00727485
0.0072946
0.0059249
0.00120191
4.28244e-05
0.000172233
0.000609578
0.00048949
0.000723857
0.00102794
0.000924225
0.00597129
0.0482273
0.0562227
0.0205094
0.0116036
0.0205225
0.123486
0.14992
0.150053
0.0391791
0.00046221
0.000462552
0.0274189
0.0274184
0.0274184
0.0274182
0.0274182
0.0274176
0.0274181
0.0274182
0.027978
0.0290811
0.0297657
0.0298452
0.0314306
0.0343583
0.0355987
0.0351293
0.0344849
0.0344753
0.0344753
0.0274185
0.0274184
0.0274178
0.0274182
0.0274176
0.0274176
0.0441103
0.0548536
0.0839061
0.115317
0.109635
0.109213
0.122309
0.121302
0.129514
0.157596
0.1886
0.187624
0.18186
0.0274188
0.0669047
0.0503688
0.0980812
0.1919
0.246225
0.269048
0.415614
0.510475
0.509913
0.484974
0.479807
0.477331
0.47204
0.480885
0.514595
0.527617
0.527626
0.527645
0.142667
0.433712
0.453575
0.453159
0.340105
0.204697
0.255141
0.484302
0.545199
0.509821
0.298706
0.235287
0.270664
0.313812
0.324234
0.339955
0.441693
0.439925
0.295098
0.472209
0.486972
0.47937
0.229219
0.139748
0.140391
0.219293
0.40729
0.545178
0.252794
0.0556054
0.0538345
0.0539428
0.0608083
0.0570848
0.0610423
0.0986665
0.10152
0.0939777
0.468849
0.349211
0.192539
0.201801
0.531934
0.53098
0.528987
0.523562
0.545199
0.203627
0.0634771
0.0536447
0.0527462
0.0520949
0.0521214
0.0521247
0.0524467
0.0526121
0.0613571
0.460437
0.137974
0.0623505
0.181129
0.16317
0.105459
0.0507483
0.0979839
0.505956
0.412948
0.155458
0.0753381
0.0603855
0.0521019
0.0521037
0.0521286
0.0522463
0.0583764
0.116046
0.461605
0.11085
0.0240822
0.016238
0.015863
0.0162291
0.0164827
0.0158298
0.0914616
0.41325
0.355709
0.101449
0.0520863
0.0520763
0.0521027
0.0521024
0.150284
0.508151
0.835001
0.00115797
0.00135595
0.000638558
0.000120512
4.30034e-05
6.58699e-05
0.000135839
9.90119e-05
9.48002e-05
0.000109277
0.000251504
0.00302002
0.0458138
0.0561777
0.0336531
0.00936713
0.037688
0.146112
0.150056
0.055143
0.000538372
0.000464935
0.000462662
0.000172778
0.000172408
0.000166754
7.20631e-06
3.82875e-24
-2.46758e-24
1.68235e-23
-1.03919e-23
4.1292e-11
5.92833e-06
7.66557e-05
0.000452219
0.00682869
0.0381892
0.0358641
0.00904963
0.0119707
0.0193403
0.00473997
0.00163083
0.00164854
0.00364115
0.00358935
0.0702011
0.0449713
0.00870002
1.63908e-24
-1.16428e-11
-1.59374e-10
-2.86634e-14
-1.01164e-25
4.98361e-08
0.0073353
6.13188e-13
2.90053e-06
0.000983422
0.00794105
0.0134047
0.00641573
0.00368345
0.00422877
0.00906219
0.0689628
0.0888374
0.0440366
0.0276511
0.641819
0.624304
0.436534
0.270868
0.222697
0.170571
0.129937
0.157043
0.15073
0.0250201
8.14253e-14
1.56164e-13
1.74839e-13
1.58551e-07
2.67714e-06
-6.47434e-06
1.67742e-06
0.0788621
0.588489
0.812549
0.799652
0.672211
0.628085
0.912846
0.913432
0.913759
0.890092
0.82922
0.764215
0.749789
0.751712
0.615473
0.51836
0.498288
0.494528
0.448703
0.277401
0.130826
0.10303
0.317438
0.727692
0.919557
0.995634
0.997511
0.997569
0.988786
0.907205
0.896927
0.935053
0.948423
0.959358
0.992937
0.995866
0.993531
0.975651
0.968303
0.98211
0.989886
0.986864
0.921488
0.825627
0.808749
0.876309
0.919519
0.920029
0.942909
0.985408
0.998579
0.998742
0.495021
0.434967
0.479885
0.773536
0.962682
0.999454
0.999508
0.999509
0.99951
0.999512
0.999513
0.999514
0.999514
0.999036
0.987573
0.97095
0.966761
0.973074
0.985348
0.988992
0.984461
0.986362
0.994577
0.00911374
0.00469169
0.00355173
0.0430755
0.374628
0.808704
0.964901
0.99464
0.998212
0.999392
0.999514
0.999514
0.999515
0.999514
0.999514
0.999499
0.999305
0.999349
0.999208
0.998138
0.997979
0.997423
0.983755
0.000415747
0.00031902
8.29021e-09
1.70854e-08
0.000152461
0.0173716
0.102771
0.217764
0.354982
0.506366
0.638088
0.732841
0.794353
0.830286
0.854014
0.864621
0.864925
0.850449
0.8188
0.775747
0.735255
0.683139
0.647529
1.21681e-08
1.21045e-05
1.4539e-06
5.05252e-09
1.82328e-10
1.79211e-20
-7.79565e-26
2.70088e-27
2.701e-27
8.46659e-19
2.24347e-18
7.64385e-05
0.0112072
0.0264998
0.0351467
0.0400885
0.0420048
0.0366233
0.0248534
0.0156271
0.0274987
0.0796082
0.0876723
1.22165e-08
1.21096e-08
1.08376e-07
1.31833e-07
2.20599e-07
4.12722e-07
2.81803e-07
2.90757e-08
1.91995e-10
1.0231e-13
7.43254e-15
2.49383e-06
1.13518e-13
4.26612e-09
4.49688e-08
1.00574e-20
-4.48295e-26
3.49101e-25
-3.86345e-21
-8.04253e-21
-6.72667e-21
-3.56854e-10
-1.18646e-09
2.39077e-08
1.26519e-08
7.67434e-09
5.07585e-08
1.15624e-07
1.7269e-07
2.86592e-08
2.89867e-08
4.85794e-08
1.47441e-07
1.41455e-07
8.55455e-09
2.46569e-13
1.52032e-23
2.08063e-05
2.96741e-05
1.71515e-05
1.12335e-06
2.00633e-08
-3.42128e-23
4.31743e-13
3.90662e-12
1.36081e-10
2.50874e-08
1.37438e-08
8.13371e-09
1.32472e-08
1.88469e-08
1.59512e-08
6.93466e-06
7.71285e-06
2.21598e-06
6.60075e-07
5.98649e-08
4.37307e-08
2.74456e-09
3.09678e-27
1.5868e-05
2.97315e-05
2.75703e-05
2.1335e-06
2.06823e-07
-1.24685e-28
-2.192e-30
2.55842e-20
5.30038e-08
2.25915e-08
9.26337e-09
7.23044e-09
1.27876e-06
1.0425e-05
2.27476e-05
2.44209e-05
2.41254e-05
4.04886e-06
1.99249e-07
5.21956e-13
5.49837e-18
-2.17672e-12
-1.44167e-12
1.94044e-06
4.8876e-06
3.91832e-06
1.32044e-06
1.03756e-05
4.7746e-05
6.12543e-05
6.0574e-05
3.59597e-05
2.05833e-08
7.89659e-09
6.89855e-09
1.61554e-05
2.6366e-05
2.62987e-05
2.49148e-05
1.66685e-05
1.53836e-05
1.79471e-05
1.2827e-05
1.41486e-05
3.26198e-05
3.56912e-05
3.23648e-05
5.57194e-06
3.60919e-06
3.85943e-05
6.66193e-05
6.65757e-05
6.52762e-05
3.8606e-05
8.91252e-06
2.04783e-08
7.02464e-09
6.8849e-09
5.45225e-06
1.58424e-05
8.0264e-06
7.77047e-06
5.95875e-05
7.6395e-05
7.63608e-05
7.64302e-05
5.60206e-05
4.13543e-05
3.57768e-05
9.19844e-06
1.10569e-05
1.95644e-05
1.96402e-05
1.46013e-05
9.76203e-06
4.0125e-06
2.39539e-07
2.20733e-08
2.06121e-08
6.66958e-09
2.74649e-08
8.71333e-09
1.0943e-07
3.82584e-08
9.9387e-06
4.31476e-05
5.22074e-05
4.11005e-05
1.91828e-05
9.2599e-06
1.005e-05
4.19918e-06
3.25906e-06
4.56681e-06
1.76635e-06
4.57028e-08
1.32239e-08
1.325e-08
1.3287e-08
6.7662e-08
2.3063e-08
2.02203e-08
4.13979e-09
9.24542e-09
8.70941e-09
8.80338e-09
3.56538e-08
2.81813e-06
1.32031e-06
8.40771e-07
6.9697e-08
8.9023e-09
8.7643e-09
8.90232e-09
8.76461e-09
7.71962e-08
5.17564e-08
1.39494e-08
1.32495e-08
1.32017e-08
1.47223e-08
1.33441e-08
7.00894e-07
8.15833e-07
2.13398e-08
3.30543e-09
7.64991e-09
1.90147e-08
3.80771e-08
6.4288e-08
3.56484e-08
2.62883e-08
2.42314e-08
1.11005e-08
1.31504e-08
1.63113e-08
1.95901e-08
1.00537e-08
1.45379e-08
1.7565e-08
1.50243e-08
1.30951e-08
1.31891e-08
1.80301e-08
1.68319e-08
6.15286e-09
2.02767e-07
2.21059e-08
2.78345e-09
6.84221e-09
1.94728e-08
4.64568e-08
7.73707e-08
8.35831e-08
7.68829e-08
5.00937e-08
1.9036e-08
9.02864e-09
9.55106e-09
9.7575e-09
6.06408e-09
6.1491e-09
6.72701e-09
7.59015e-09
8.38677e-09
8.41598e-09
7.74346e-09
6.94037e-09
6.1432e-09
6.15176e-09
2.26164e-08
2.36649e-09
4.33516e-09
1.10913e-08
2.64346e-08
5.12519e-08
6.80481e-08
6.50019e-08
4.11166e-08
1.46321e-08
6.13562e-09
5.43906e-09
4.98801e-09
4.08647e-09
3.55751e-09
3.18999e-09
3.40129e-09
4.06575e-09
4.80866e-09
5.3657e-09
5.54738e-09
6.19104e-09
6.78371e-09
2.26172e-08
2.07337e-09
2.55363e-09
4.70779e-09
8.49197e-09
1.585e-08
2.19926e-08
2.1037e-08
1.29361e-08
5.28759e-09
3.50816e-09
3.49231e-09
3.1097e-09
2.58888e-09
2.22306e-09
2.03108e-09
2.01114e-09
2.15072e-09
2.513e-09
3.1353e-09
3.69331e-09
4.28286e-09
5.30604e-09
1.23872e-08
1.87494e-09
1.81572e-09
2.20108e-09
2.58777e-09
3.09572e-09
2.91446e-09
2.80379e-09
2.59783e-09
1.68756e-09
1.59444e-09
1.58195e-09
1.3979e-09
1.19625e-09
1.06296e-09
1.04253e-09
1.10782e-09
1.25172e-09
1.50538e-09
1.93442e-09
2.32871e-09
2.81539e-09
3.36771e-09
2.80913e-09
2.24985e-09
1.77814e-09
1.7049e-09
1.48392e-09
1.28893e-09
1.09392e-09
9.37201e-10
7.9087e-10
6.57736e-10
6.00633e-10
5.48859e-10
4.95918e-10
4.61825e-10
4.60368e-10
4.98172e-10
5.65913e-10
6.67387e-10
8.37468e-10
1.11356e-09
1.37153e-09
1.70166e-09
2.0677e-09
2.79392e-09
2.84209e-09
2.231e-09
1.95528e-09
1.53133e-09
1.1981e-09
9.26088e-10
7.05597e-10
5.26623e-10
3.91594e-10
2.92557e-10
2.25221e-10
1.87546e-10
1.74764e-10
1.89099e-10
2.19444e-10
2.64591e-10
3.28958e-10
4.21513e-10
5.88029e-10
7.63701e-10
9.65666e-10
1.23459e-09
3.39523e-09
3.2203e-09
2.73466e-09
2.34449e-09
1.8316e-09
1.4413e-09
1.11935e-09
8.48515e-10
6.23572e-10
4.45106e-10
2.99312e-10
1.87245e-10
1.16818e-10
8.37094e-11
7.70368e-11
8.74544e-11
1.09362e-10
1.42478e-10
1.92645e-10
2.87129e-10
3.67306e-10
5.31888e-10
6.66946e-10
3.9521e-09
3.64574e-09
3.14877e-09
2.7096e-09
2.0752e-09
1.67625e-09
1.35368e-09
1.04209e-09
8.07564e-10
6.23084e-10
4.46471e-10
2.77425e-10
1.51092e-10
7.53427e-11
4.21492e-11
3.43862e-11
3.99326e-11
5.34831e-11
7.60563e-11
1.2166e-10
1.73474e-10
2.43864e-10
3.54091e-10
4.67983e-09
3.98761e-09
3.31294e-09
2.14308e-09
1.62259e-09
1.47145e-09
1.47196e-09
1.06251e-09
8.97089e-10
7.82866e-10
6.29681e-10
4.24105e-10
2.40283e-10
1.14158e-10
4.67774e-11
2.05991e-11
1.49584e-11
1.8492e-11
2.80048e-11
4.819e-11
7.16926e-11
1.2236e-10
1.77742e-10
5.19652e-09
4.50823e-09
4.20043e-09
2.42956e-09
1.6292e-09
1.13528e-08
7.00913e-10
7.0216e-10
7.77348e-10
8.27468e-10
7.7612e-10
5.78775e-10
3.58434e-10
1.81833e-10
7.3519e-11
2.51609e-11
9.36299e-12
6.67648e-12
9.63069e-12
1.797e-11
3.23603e-11
5.4941e-11
9.31192e-11
5.70584e-09
6.28347e-09
1.14447e-08
4.79488e-08
3.19551e-07
1.79285e-07
7.63024e-09
5.32148e-10
5.68083e-10
7.77661e-10
8.59661e-10
7.01095e-10
4.71099e-10
2.59828e-10
1.12549e-10
3.92855e-11
1.17492e-11
4.17208e-12
3.77139e-12
7.08685e-12
1.32569e-11
2.99238e-11
5.12896e-11
6.01641e-09
1.05416e-08
2.60262e-08
1.57314e-07
8.59795e-07
8.5968e-07
3.29338e-07
5.32172e-10
5.42997e-10
6.90788e-10
9.02505e-10
7.7738e-10
5.5019e-10
3.28006e-10
1.56693e-10
5.86113e-11
1.76314e-11
4.76732e-12
2.0632e-12
3.20265e-12
7.22046e-12
1.56185e-11
3.06596e-11
6.31843e-09
1.62744e-08
9.42903e-08
8.32737e-07
8.59795e-07
8.59795e-07
6.23562e-07
5.32214e-10
6.07138e-10
6.8714e-10
9.38375e-10
8.15165e-10
5.81788e-10
3.67953e-10
1.92035e-10
7.79621e-11
2.49724e-11
6.44412e-12
1.79682e-12
1.47687e-12
3.07446e-12
9.26965e-12
1.84565e-11
6.59944e-09
1.4452e-08
1.66137e-07
8.59795e-07
8.59795e-07
8.33093e-07
1.215e-07
5.32297e-10
1.00169e-09
6.9816e-10
9.58636e-10
8.30122e-10
5.73916e-10
3.66499e-10
1.99603e-10
8.84537e-11
3.16694e-11
8.56179e-12
2.06445e-12
9.26517e-13
1.77307e-12
4.6772e-12
1.14655e-11
6.58945e-09
1.24136e-08
1.25664e-07
7.11208e-07
8.59795e-07
6.01104e-07
1.08125e-08
2.78276e-09
1.44609e-09
6.49698e-10
9.24588e-10
8.14998e-10
5.42479e-10
3.34945e-10
1.83839e-10
8.52435e-11
3.32877e-11
1.00317e-11
2.41262e-12
6.2162e-13
6.78669e-13
2.50875e-12
5.98884e-12
6.58875e-09
1.21465e-08
5.67289e-08
1.1265e-07
2.63079e-07
1.37631e-07
5.76199e-08
1.85253e-08
2.03676e-09
6.56401e-10
8.08337e-10
7.42184e-10
4.79762e-10
2.77072e-10
1.47465e-10
7.05511e-11
2.91411e-11
9.80054e-12
2.49327e-12
5.66728e-13
3.66252e-13
9.68707e-13
3.12656e-12
2.48855e-08
1.14154e-08
1.95207e-08
2.91077e-08
3.74439e-08
3.60141e-08
7.92579e-08
3.03808e-08
2.89189e-09
7.5808e-10
6.56499e-10
6.08912e-10
3.88233e-10
2.13988e-10
1.05293e-10
4.88809e-11
2.07787e-11
7.61908e-12
2.19519e-12
4.83956e-13
1.7732e-13
4.12454e-13
1.27092e-12
3.1777e-08
1.10488e-08
1.10429e-08
1.9425e-08
8.83533e-08
2.17957e-07
1.60464e-07
2.48622e-08
2.85869e-09
8.14174e-10
4.80523e-10
4.41885e-10
2.82046e-10
1.46333e-10
6.51125e-11
2.75713e-11
1.17329e-11
4.5452e-12
1.48544e-12
3.62999e-13
9.09702e-14
1.11131e-13
5.55008e-13
3.14866e-08
1.10429e-08
1.49806e-08
9.42499e-08
2.00354e-07
2.18116e-07
1.21568e-07
1.4701e-08
3.00632e-09
8.21537e-10
3.16653e-10
2.76587e-10
1.77576e-10
8.72006e-11
3.45694e-11
1.29339e-11
4.99198e-12
1.97264e-12
7.15847e-13
2.10129e-13
4.94837e-14
4.15018e-14
1.6528e-13
2.35081e-08
1.39115e-08
7.51424e-08
1.68368e-07
1.8747e-07
1.05265e-07
1.44312e-08
3.2886e-09
1.39659e-09
3.87545e-10
1.53386e-10
1.38284e-10
9.12634e-11
4.30864e-11
1.54223e-11
4.86125e-12
1.58691e-12
5.62952e-13
2.27989e-13
8.68613e-14
2.40312e-14
1.19707e-14
4.89259e-14
2.31653e-08
4.43731e-08
1.38882e-07
1.53825e-07
7.5482e-08
8.60466e-09
9.73176e-10
1.86311e-10
2.11484e-10
1.01097e-10
5.06754e-11
5.28305e-11
3.72974e-11
1.74922e-11
5.8279e-12
1.49637e-12
3.67594e-13
1.04292e-13
4.24746e-14
2.45783e-14
7.77924e-15
3.59196e-15
1.31969e-14
1.611e-07
1.89955e-07
1.62149e-07
6.78118e-08
9.69285e-09
1.58466e-09
2.78671e-10
2.5859e-11
6.04441e-11
2.27317e-11
1.08659e-11
1.3011e-11
1.02743e-11
4.96807e-12
1.54623e-12
3.35013e-13
5.7976e-14
1.08705e-14
4.61725e-15
4.33764e-15
1.95026e-15
1.02545e-15
3.17867e-15
2.60945e-07
2.27402e-07
6.76223e-08
7.07204e-09
2.04289e-09
3.94673e-10
3.84883e-11
1.78014e-12
1.26364e-11
2.19523e-12
8.23179e-13
1.59172e-12
1.44415e-12
7.16895e-13
2.11222e-13
3.75015e-14
4.46336e-15
5.52595e-16
2.86056e-16
4.85359e-16
4.52652e-16
2.58219e-16
7.11721e-16
0.0280742
0.118613
0.366431
0.453637
0.00424124
0.0044269
0.0576987
0.206794
0.0270639
0.0214936
0.0180299
0.017402
0.647769
0.576894
0.48128
0.469748
0.940457
0.940342
0.958627
0.982927
0.99874
0.998898
0.998966
0.998945
0.99187
0.996908
0.998965
0.9974
0.978908
0.978951
0.982206
0.967045
0.645678
0.62603
0.481206
0.399983
0.0402473
0.0282295
0.0266674
0.0208601
-1.49417e-09
-6.51694e-10
-6.95803e-13
-2.05081e-14
4.32858e-11
8.0294e-14
2.76678e-12
7.97631e-08
9.51874e-09
2.43672e-10
2.64679e-09
5.41946e-09
1.22528e-06
4.23796e-09
4.40123e-11
6.55467e-06
2.49855e-09
1.64611e-07
1.15235e-11
1.72886e-05
1.39954e-08
1.56462e-08
4.40151e-11
2.88378e-05
3.36049e-07
7.33623e-07
3.02281e-07
2.82538e-07
8.02859e-07
6.08047e-07
2.32339e-07
3.34512e-07
2.28003e-07
1.67177e-07
2.01531e-07
5.02412e-07
6.13884e-09
9.57502e-09
2.45235e-07
3.50039e-07
9.26504e-09
2.96904e-08
6.87421e-08
3.42681e-08
7.12854e-09
8.04094e-09
1.00928e-08
1.53822e-08
4.01644e-09
4.51815e-09
6.04875e-09
6.08673e-09
2.43936e-09
2.62263e-09
2.87365e-09
3.44106e-09
1.42526e-09
1.5648e-09
1.83269e-09
1.88111e-09
8.33556e-10
9.56905e-10
1.01717e-09
1.15517e-09
4.68425e-10
5.17084e-10
6.29936e-10
6.57338e-10
2.48776e-10
3.07701e-10
3.48319e-10
4.08271e-10
1.40957e-10
1.73525e-10
2.22031e-10
2.50057e-10
8.5426e-11
1.14784e-10
1.40449e-10
1.73059e-10
5.52981e-11
7.28316e-11
1.00987e-10
1.20601e-10
3.5057e-11
5.2764e-11
6.76301e-11
8.85196e-11
2.21196e-11
3.24436e-11
4.64772e-11
5.85097e-11
1.37412e-11
2.01325e-11
2.85557e-11
3.94226e-11
6.69442e-12
1.02338e-11
1.59407e-11
2.12773e-11
3.56519e-12
5.25264e-12
8.20695e-12
1.24351e-11
1.38781e-12
2.31496e-12
3.98805e-12
5.63248e-12
5.89698e-13
9.19569e-13
1.52896e-12
2.51305e-12
1.60941e-13
2.98193e-13
5.43195e-13
8.17568e-13
4.82039e-14
8.59319e-14
1.50346e-13
2.83713e-13
1.21528e-14
2.32458e-14
4.49733e-14
8.26611e-14
2.89773e-15
5.79659e-15
1.21597e-14
2.09473e-14
0.45795
0.299535
0.0367689
0.0250707
0.0158842
0.0158407
0.0157378
0.0158389
0.115599
0.392377
0.287854
0.187599
0.307178
0.388815
0.497207
0.704711
0.838752
0.972218
0.98756
0.313591
0.328298
0.2063
0.0399448
0.0924103
0.18469
0.205937
0.174215
0.498209
0.811103
0.757151
0.738662
0.883846
0.895217
0.936577
0.973692
0.980964
0.990675
0.990673
0.0395238
0.0957761
0.167737
0.475752
0.777033
0.870235
0.830929
0.545918
0.475903
0.891864
0.929015
0.929735
0.939946
0.977369
0.991623
0.991521
0.991512
0.990667
0.99066
0.472976
0.582169
0.851701
0.939089
0.977951
0.987836
0.960617
0.615768
0.354206
0.354091
0.363669
0.670935
0.924367
0.997032
0.992549
0.978171
0.981061
0.988191
0.98968
0.976942
0.968387
0.982411
0.998035
0.996606
0.996677
0.997616
0.951264
0.739157
0.557643
0.62977
0.835519
0.940939
0.997043
0.995996
0.957307
0.972603
0.987382
0.989864
0.998962
0.998969
0.998969
0.998969
0.998968
0.998967
0.998966
0.998966
0.997752
0.956705
0.960211
0.991711
0.996068
0.997032
0.997043
0.79216
0.647874
0.96124
0.989865
0.996401
0.998552
0.998969
0.998968
0.998969
0.998657
0.997801
0.99281
0.98337
0.97417
0.966437
0.94976
0.918699
0.874273
0.890776
0.709797
0.314319
0.840038
0.989864
0.965555
0.979471
0.960787
0.915872
0.827429
0.700535
0.559629
0.459785
0.388607
0.346773
0.304466
0.2467
0.177368
0.104437
0.0867963
0.136874
0.00882976
0.344668
0.926795
0.395197
0.383539
0.284097
0.186104
0.0881817
0.0198216
-4.32744e-12
3.38231e-27
1.33622e-25
8.08367e-25
-5.28731e-26
3.00412e-12
1.11952e-11
4.78075e-16
-1.62866e-20
-5.59061e-13
-3.17297e-13
0.00321492
0.345161
0.00389185
4.29403e-15
5.44845e-15
9.03848e-15
1.18696e-14
1.1148e-13
3.78728e-11
1.19882e-09
2.00284e-08
2.26445e-07
1.4998e-06
7.90323e-06
1.33658e-05
2.3984e-07
8.38165e-12
2.72432e-09
2.28959e-08
1.29122e-08
5.13768e-13
1.31028e-24
1.51705e-07
4.39818e-07
6.78027e-07
4.14913e-07
8.88494e-14
-9.83614e-15
1.69079e-09
1.514e-09
4.54067e-10
4.05942e-10
3.97211e-05
0.00011301
9.17352e-05
4.99713e-06
2.96889e-09
3.31477e-08
5.74507e-09
4.6235e-13
4.33349e-07
5.93214e-07
9.16019e-07
1.40001e-06
1.04823e-06
1.64015e-09
1.74759e-07
1.65947e-08
3.28801e-09
4.76259e-10
4.48535e-10
5.13099e-06
0.000129474
0.000197858
0.000179766
7.62991e-06
3.7681e-09
7.97779e-09
3.07787e-09
1.95336e-06
7.40697e-07
5.91708e-07
1.28855e-06
4.95426e-06
8.48498e-06
4.24735e-06
4.41182e-07
1.41658e-07
5.22785e-10
4.06369e-10
2.04328e-06
9.10687e-06
0.000206008
0.000255213
0.000130186
3.80466e-09
8.21601e-09
4.06641e-08
2.64301e-05
1.8482e-05
1.64341e-06
1.92693e-07
9.16261e-08
2.03643e-05
2.1593e-05
6.441e-06
1.47263e-06
4.71542e-07
4.94638e-10
1.09993e-07
3.20491e-06
3.97137e-05
0.000257059
0.000187602
3.47845e-09
1.74887e-08
4.3442e-08
4.52375e-05
5.045e-05
1.73879e-05
9.96337e-08
9.14884e-08
5.97092e-06
3.43744e-05
3.4393e-05
7.98263e-06
1.53524e-06
1.95737e-06
5.98439e-07
4.70599e-07
8.7414e-06
0.000257029
5.79564e-05
3.66259e-09
5.15568e-08
4.29207e-08
5.045e-05
5.04709e-05
9.09354e-06
9.14883e-08
9.16259e-08
2.42649e-06
3.3621e-05
3.43699e-05
1.5007e-05
1.35885e-06
3.13242e-05
0.000156302
0.000105152
0.000114764
0.000230608
9.16285e-06
3.30601e-06
4.08336e-06
1.87811e-05
3.22088e-05
1.73509e-05
4.43842e-06
4.4138e-07
1.72808e-06
1.49387e-05
3.00959e-05
2.57682e-05
2.58775e-06
1.34086e-06
4.21433e-05
0.000286774
0.000287238
0.000287619
0.000168536
1.25655e-05
3.75491e-06
0.000126578
0.000234138
6.05726e-06
9.60652e-06
1.95564e-05
2.02355e-05
2.29381e-05
2.3756e-05
1.58967e-05
1.96304e-06
1.3602e-06
1.36764e-06
5.27216e-06
0.000221381
0.000286982
0.000287639
0.000162039
1.1578e-05
4.45276e-05
0.000234104
0.000234138
8.89724e-06
1.00076e-05
6.94942e-06
7.89056e-06
6.7433e-06
2.13822e-06
1.16848e-06
1.85194e-06
3.94922e-06
3.94446e-06
3.07209e-07
2.1095e-08
0.000185158
0.000234248
4.55807e-05
4.77003e-06
9.77939e-06
0.000234115
0.000234157
1.96103e-08
1.97164e-08
1.88525e-08
3.87237e-08
4.68026e-08
3.29115e-07
1.15904e-06
1.24455e-06
8.96403e-07
1.35525e-07
4.50154e-08
2.10339e-08
2.1083e-08
5.43423e-06
2.44942e-07
4.47698e-06
7.84375e-05
0.000234188
0.000234167
2.37626e-08
1.96177e-08
1.87407e-08
1.91505e-08
4.84838e-08
2.85001e-07
4.09746e-07
3.05621e-07
2.12064e-07
1.45639e-07
8.52346e-08
3.52741e-08
2.4879e-08
2.50278e-08
2.41385e-07
2.95572e-06
0.000141218
0.000125256
8.78667e-05
1.17561e-08
1.09903e-08
1.15883e-08
2.03775e-08
6.63599e-08
1.38828e-07
2.76263e-07
2.71276e-07
2.12004e-07
1.13479e-07
4.84159e-08
3.36763e-08
3.08938e-08
8.11693e-08
8.2602e-08
1.13181e-06
5.11753e-05
1.23036e-05
1.66315e-05
6.59587e-09
7.39378e-09
7.83796e-09
1.34012e-08
3.62981e-08
8.32878e-08
1.57288e-07
1.58586e-07
9.49236e-08
4.13432e-08
2.16696e-08
1.66612e-08
2.06489e-08
6.52047e-08
8.61153e-08
2.73573e-06
8.18691e-07
1.5578e-05
0.000138465
3.45404e-09
4.04971e-09
4.41597e-09
5.19648e-09
6.15739e-09
1.2392e-08
2.04303e-08
1.91536e-08
1.48378e-08
1.13477e-08
8.31689e-09
1.25848e-08
1.09129e-08
9.73828e-09
9.35978e-08
2.34294e-06
7.97714e-07
4.07457e-05
0.000169085
2.05942e-09
2.27995e-09
2.51762e-09
2.64738e-09
2.323e-09
2.15647e-09
2.38844e-09
3.83408e-09
5.01948e-09
5.72399e-09
6.59719e-09
1.05927e-08
8.16777e-09
3.00534e-09
1.73899e-07
1.13581e-06
5.04958e-08
1.39567e-05
0.00016907
1.17794e-09
1.37464e-09
1.55226e-09
1.68355e-09
1.83634e-09
2.15683e-09
2.78242e-09
3.49576e-09
4.3075e-09
5.09566e-09
5.75435e-09
7.02304e-09
1.12951e-08
2.98094e-09
4.41863e-08
4.53261e-08
4.89827e-08
7.65426e-08
0.000101382
7.28476e-10
8.7035e-10
1.0206e-09
1.18673e-09
1.39761e-09
1.70658e-09
2.21759e-09
2.89752e-09
3.72469e-09
4.53907e-09
5.4212e-09
6.81208e-09
6.81581e-09
2.03148e-07
9.67809e-07
1.20631e-06
4.06214e-07
1.18552e-07
1.29965e-06
4.42262e-10
5.73773e-10
7.05092e-10
8.71704e-10
1.09126e-09
1.37757e-09
1.81007e-09
2.41066e-09
3.15582e-09
3.98761e-09
4.99035e-09
7.15293e-09
6.81953e-09
5.22025e-07
1.22582e-06
1.22578e-06
8.88291e-07
1.0892e-07
5.14659e-06
2.90703e-10
3.95242e-10
5.2586e-10
6.84432e-10
8.85009e-10
1.14809e-09
1.52037e-09
2.05343e-09
2.71155e-09
3.50964e-09
4.40268e-09
6.58301e-09
2.32497e-08
7.84741e-08
4.43607e-07
4.12819e-07
3.02186e-07
7.74009e-08
6.66239e-06
2.03567e-10
2.95274e-10
4.13018e-10
5.63835e-10
7.54858e-10
1.00479e-09
1.34482e-09
1.8411e-09
2.54363e-09
3.36412e-09
4.23431e-09
5.7422e-09
1.56183e-08
6.57706e-08
9.1043e-07
1.24745e-06
3.13791e-08
3.14586e-08
6.67825e-07
1.48147e-10
2.26916e-10
3.33442e-10
4.68963e-10
6.4783e-10
8.82075e-10
1.22261e-09
1.73349e-09
2.53713e-09
3.68364e-09
4.93599e-09
5.98487e-09
1.25916e-08
8.69987e-08
3.25081e-06
7.24169e-06
3.2294e-06
3.12242e-08
7.67495e-08
1.10778e-10
1.74136e-10
2.62387e-10
3.76983e-10
5.31976e-10
7.44141e-10
1.0605e-09
1.57965e-09
2.50063e-09
4.10095e-09
6.34662e-09
8.24184e-09
9.55961e-09
9.51786e-08
3.25005e-06
7.26555e-06
7.23719e-06
2.68193e-06
2.84576e-06
7.86036e-11
1.26594e-10
1.92762e-10
2.84331e-10
4.07682e-10
5.84431e-10
8.50659e-10
1.32451e-09
2.24482e-09
4.19972e-09
8.082e-09
1.35591e-08
1.49849e-08
3.24641e-08
8.02292e-07
6.56191e-06
7.26573e-06
7.23044e-06
4.2429e-06
5.14517e-11
8.60924e-11
1.32977e-10
1.99294e-10
2.9122e-10
4.21397e-10
6.30079e-10
1.01908e-09
1.80738e-09
3.5888e-09
8.45967e-09
2.14806e-08
4.2505e-08
4.26512e-08
8.97592e-08
1.44479e-06
6.69188e-06
6.10174e-06
6.91156e-07
3.18623e-11
5.29575e-11
8.43076e-11
1.28224e-10
1.90266e-10
2.81519e-10
4.33382e-10
7.11534e-10
1.25771e-09
2.48012e-09
5.86143e-09
2.20937e-08
8.26425e-08
1.30383e-07
7.01916e-08
9.34701e-08
7.15601e-07
6.69534e-07
5.13188e-08
1.68461e-11
2.96989e-11
4.83999e-11
7.49199e-11
1.13197e-10
1.72597e-10
2.72013e-10
4.57696e-10
8.21036e-10
1.53573e-09
3.18334e-09
9.79068e-09
6.668e-08
1.79868e-07
1.78592e-07
3.13027e-08
4.16409e-08
4.47798e-08
2.19131e-08
8.20433e-12
1.4853e-11
2.49085e-11
3.94474e-11
6.14744e-11
9.67273e-11
1.57355e-10
2.73611e-10
5.08749e-10
9.94301e-10
1.9153e-09
4.10903e-09
1.85821e-08
1.26299e-07
2.236e-07
1.63888e-07
2.28219e-08
3.18805e-08
1.67072e-07
3.48804e-12
6.63498e-12
1.14468e-11
1.87675e-11
3.05261e-11
4.97712e-11
8.38569e-11
1.50611e-10
2.89633e-10
5.79293e-10
1.17074e-09
2.22138e-09
4.67791e-09
4.10133e-08
1.83276e-07
2.37279e-07
1.32894e-07
6.87752e-08
2.29779e-07
1.36735e-12
2.59902e-12
4.63926e-12
8.00454e-12
1.35382e-11
2.31015e-11
4.05266e-11
7.62244e-11
1.52185e-10
3.2389e-10
6.91506e-10
1.3652e-09
2.35947e-09
7.28301e-09
7.5225e-08
2.38283e-07
2.45977e-07
2.17083e-07
2.2947e-07
4.4119e-13
8.74219e-13
1.63074e-12
2.97382e-12
5.39818e-12
9.85111e-12
1.83782e-11
3.51432e-11
7.37379e-11
1.63207e-10
3.67731e-10
8.17889e-10
1.71659e-09
3.43708e-09
1.64995e-08
1.24325e-07
2.48053e-07
2.47181e-07
7.50761e-08
1.22024e-13
2.55455e-13
4.97708e-13
9.637e-13
1.89586e-12
3.74183e-12
7.25453e-12
1.49626e-11
3.20964e-11
7.37064e-11
1.76748e-10
4.11119e-10
9.21379e-10
1.97497e-09
4.58921e-09
3.54654e-08
1.56675e-07
2.0792e-07
1.3212e-08
3.16222e-14
6.6421e-14
1.35093e-13
2.75855e-13
5.68097e-13
1.15654e-12
2.42094e-12
5.00904e-12
1.07419e-11
2.4323e-11
5.79969e-11
1.42883e-10
3.39841e-10
7.36142e-10
1.46485e-09
4.53931e-09
1.72463e-08
2.70306e-08
4.30521e-09
)
;

boundaryField
{
    leftWall
    {
        type            zeroGradient;
    }
    rightWall
    {
        type            zeroGradient;
    }
    lowerWall
    {
        type            zeroGradient;
    }
    atmosphere
    {
        type            inletOutlet;
        inletValue      uniform 0;
        value           nonuniform List<scalar> 
46
(
2.60945e-07
2.27402e-07
6.76223e-08
7.07204e-09
2.04289e-09
3.94673e-10
3.84883e-11
1.78014e-12
0
0
0
0
0
0
0
0
0
0
0
0
4.52652e-16
2.58219e-16
7.11721e-16
2.89773e-15
5.79659e-15
0
0
0
0
0
0
0
0
0
0
0
0
0
0
0
0
0
0
1.72463e-08
2.70306e-08
4.30521e-09
)
;
    }
    defaultFaces
    {
        type            empty;
    }
}


// ************************************************************************* //
