/*--------------------------------*- C++ -*----------------------------------*\
| =========                 |                                                 |
| \\      /  F ield         | OpenFOAM: The Open Source CFD Toolbox           |
|  \\    /   O peration     | Version:  2312                                  |
|   \\  /    A nd           | Website:  www.openfoam.com                      |
|    \\/     M anipulation  |                                                 |
\*---------------------------------------------------------------------------*/
FoamFile
{
    version     2.0;
    format      ascii;
    arch        "LSB;label=32;scalar=64";
    class       volScalarField;
    location    "3.3";
    object      alpha.water_0;
}
// * * * * * * * * * * * * * * * * * * * * * * * * * * * * * * * * * * * * * //

dimensions      [0 0 0 0 0 0 0];

internalField   nonuniform List<scalar> 
2268
(
3.13282e-07
1.01719e-07
5.86801e-09
7.37777e-10
2.90105e-10
1.65565e-10
8.29875e-11
5.2517e-11
4.03809e-11
3.75618e-11
3.79402e-11
4.15123e-11
4.89079e-11
6.01902e-11
7.60984e-11
9.82733e-11
1.4498e-10
2.17021e-10
3.2094e-10
5.28456e-10
8.91165e-10
1.2282e-09
1.3883e-09
4.32931e-07
1.93991e-07
2.69712e-08
5.19629e-09
4.52334e-10
1.95691e-10
1.20643e-10
9.16024e-11
7.02642e-11
5.68398e-11
5.41152e-11
5.88959e-11
8.47486e-11
9.80005e-11
1.2133e-10
1.69014e-10
2.34957e-10
3.87817e-10
6.21683e-10
9.82902e-10
1.7206e-09
2.21549e-09
1.69566e-09
3.44701e-07
8.12104e-08
4.30925e-09
9.85203e-11
2.00408e-10
2.56538e-10
2.58686e-10
2.07968e-10
1.63785e-10
1.27156e-10
1.05957e-10
1.29393e-10
1.80571e-10
1.27447e-10
1.54995e-10
4.88786e-10
2.62212e-10
2.7627e-10
4.36978e-10
8.5344e-10
1.94739e-09
2.96265e-09
1.50751e-09
3.25558e-08
2.25113e-08
2.81878e-09
9.75955e-11
1.41732e-10
1.62184e-10
1.83013e-10
2.78233e-10
4.00185e-10
4.02866e-10
2.99305e-10
1.49662e-10
1.04993e-10
6.40579e-11
4.82681e-11
3.22755e-11
1.3889e-11
1.24943e-11
1.31496e-11
1.17269e-11
1.2489e-11
2.55242e-11
2.37548e-11
3.79597e-09
-1.24904e-16
1.47325e-11
2.04349e-11
2.40623e-11
3.73117e-11
2.49588e-11
2.2834e-11
2.08268e-11
3.4919e-12
2.95711e-12
6.39198e-29
6.56624e-29
6.67331e-29
9.04203e-24
1.56764e-23
0.00543547
0.0154642
0.0251153
0.0287666
0.0152413
1.5088e-11
0.000852438
-2.6793e-20
-6.47836e-20
-4.05746e-20
6.62076e-20
4.82209e-20
-3.15708e-20
4.43266e-21
1.83257e-25
5.39056e-18
0.0107269
0.043297
0.0938499
0.17318
0.280615
0.398017
0.505664
0.577189
0.618966
0.650524
0.671998
0.680087
0.667402
0.58507
0.204861
0.210171
0.212978
0.219382
0.226409
0.252779
0.294087
0.369846
0.474607
0.581598
0.689926
0.805395
0.88105
0.918477
0.963892
0.983692
0.983804
0.960572
0.908207
0.877024
0.870304
0.908219
0.907119
0.890854
0.893162
0.89354
0.901904
0.906523
0.906702
0.943135
0.987489
0.995571
0.998744
0.998902
0.995107
0.952185
0.937937
0.973755
0.984097
0.977296
0.860486
0.815144
0.815144
0.914396
0.966751
0.936221
0.0167234
0.0174394
0.0130504
0.00683846
0.0105668
0.019219
0.0192201
0.0176735
0.0155655
0.0144657
0.0137149
0.0137097
0.0126635
0.00971916
0.00665741
0.00385916
0.00545341
0.00765858
0.00785856
0.0100209
0.00978849
0.00816399
0.00684176
0.00684255
0.00685714
0.00728382
0.00729372
0.00835044
0.00455111
0.00371471
0.00371776
0.00371621
0.00383403
0.00384707
0.00384842
0.00384958
0.00385239
0.00385451
0.0849401
0.0136291
0.0068458
0.00683845
0.00684176
0.0105153
0.104367
0.0936067
0.0725149
0.0753971
0.105025
0.0866963
0.035488
0.0157758
0.0230276
0.0357641
0.0855102
0.152265
0.21235
0.501374
0.0741572
0.00684339
0.0206368
0.26107
0.597963
0.671332
0.476948
0.405414
0.4422
0.651847
0.707161
0.647249
0.571609
0.574207
0.582565
0.512664
0.547433
0.692501
0.527558
0.390491
0.383583
0.717198
0.847053
0.847677
0.76117
0.581522
0.419466
0.717777
0.891237
0.891237
0.891242
0.891256
0.887344
0.891242
0.878007
0.878556
0.888893
0.526473
0.63604
0.800551
0.795934
0.455767
0.43523
0.429029
0.429253
0.41983
0.757382
0.891237
0.89124
0.891243
0.891217
0.891235
0.891238
0.891236
0.891236
0.891236
0.512397
0.844657
0.93709
0.78167
0.789041
0.85237
0.905198
0.841023
0.444189
0.560918
0.816386
0.891237
0.885951
0.858382
0.851621
0.888481
0.891236
0.891236
0.831988
0.506415
0.863272
0.963312
0.963259
0.963296
0.964408
0.964431
0.947793
0.806974
0.519016
0.60492
0.853424
0.882076
0.844043
0.845388
0.847208
0.789978
0.443717
0.125233
0.99791
0.99758
0.998159
0.999558
0.999558
0.999559
0.999559
0.999559
0.999559
0.999559
0.999559
0.997959
0.957017
0.938986
0.958607
0.984076
0.964563
0.818639
0.819359
0.913267
0.99128
0.991198
0.958799
0.999154
0.999152
0.999154
0.998841
0.997453
0.998887
0.999559
0.999559
0.999559
0.999559
0.999559
0.999487
0.994842
0.961403
0.958138
0.983802
0.979786
0.97126
0.986121
0.991268
0.991276
0.991279
0.991273
0.928279
0.952786
0.987851
0.995265
0.997416
0.996977
0.992141
0.988958
0.996206
0.983798
0.97978
0.969415
0.98752
0.985588
0.982296
0.983851
0.969908
0.973163
0.97582
0.905047
0.875008
0.935768
0.971034
0.28658
0.330582
0.497271
0.663177
0.734458
0.802602
0.811817
0.782679
0.79608
0.924471
0.935571
0.935365
0.942437
0.969064
0.970381
0.939025
0.9197
0.848735
0.399888
0.167508
0.149974
0.283099
0.353462
0.00748949
0.00892092
0.0337045
0.0849141
0.137427
0.183206
0.191001
0.196105
0.309738
0.4025
0.419713
0.415381
0.445252
0.588687
0.750981
0.791404
0.596633
0.196705
0.00358918
7.92543e-06
8.91654e-06
-7.66374e-08
-1.65677e-12
0.000156137
0.000157178
0.000379209
0.0214315
0.0346093
0.00637256
5.30932e-20
-7.07796e-18
4.809e-08
0.000222234
0.000396912
0.000362153
0.00142203
0.0204432
0.071229
0.0902516
0.0388814
1.45287e-08
1.187e-06
0.000202046
0.000790555
0.00066082
0.000395884
0.000156925
0.00025277
0.0216786
0.0389403
0.0379571
0.00312789
7.68862e-19
1.22851e-11
2.09407e-10
4.99768e-06
3.01618e-05
1.00952e-05
2.488e-06
-5.58891e-07
-3.05867e-07
-4.48662e-08
3.84891e-18
5.36678e-18
0.000161979
0.00061422
0.000716726
0.000681572
0.00260656
0.00326761
0.00150735
0.0111711
0.0312479
0.0270139
0.00122892
1.13064e-07
0.00109001
0.00161856
0.000360291
9.55575e-05
5.79871e-05
0.000162146
0.000236278
0.000233039
0.000182407
0.000163493
0.000340132
0.000701876
0.00174266
0.00194863
0.00221221
0.0149255
0.00382136
0.00379414
0.00266674
0.00157862
0.00171116
0.00104574
0.00263566
0.00261341
0.00241774
0.000140203
2.05324e-05
2.08936e-05
0.00172615
0.00701992
0.00745367
0.00745324
0.00742315
0.00377298
0.000198725
0.000235776
0.0015501
0.01471
0.0209295
0.0031744
0.00196452
0.000104403
7.28334e-06
8.8652e-06
3.29896e-06
0.000138763
0.000337593
0.00120454
0.00140926
0.00073028
2.11812e-05
0.000341598
0.0036552
0.00558526
0.00485817
0.00274437
0.000433383
3.07389e-05
0.00200548
0.0186255
0.0209217
0.0209232
0.000127499
3.22744e-06
6.17043e-07
1.92916e-06
3.39008e-06
2.23785e-06
1.10729e-06
1.47409e-06
1.93376e-06
0.000122946
0.000208411
0.000198174
0.000133012
1.40367e-06
1.03172e-09
1.02955e-09
1.03172e-09
1.03031e-09
2.37745e-09
0.000754923
0.015145
0.0209175
0.0120097
7.46249e-09
9.45428e-09
4.03137e-09
9.06606e-08
3.34555e-07
4.00549e-07
2.09469e-07
3.27108e-07
4.9912e-07
1.57171e-06
2.28626e-06
2.06942e-05
1.94063e-05
1.92516e-05
7.12932e-06
3.15079e-06
1.34883e-06
2.04198e-08
5.42271e-07
1.16518e-05
0.000558153
0.0015108
0.00160633
7.38789e-09
7.36231e-09
4.09215e-09
2.33996e-09
3.48711e-09
3.46648e-07
1.15398e-06
3.42985e-07
2.77315e-07
2.08146e-06
3.68372e-06
3.80601e-06
1.46336e-06
5.1066e-07
6.39532e-07
7.43987e-07
4.27291e-07
1.20523e-08
4.72544e-08
4.13458e-07
7.13333e-07
8.01882e-07
4.79659e-07
1.08143e-08
6.50361e-09
2.36271e-09
2.34811e-09
6.5998e-07
1.39729e-06
1.39914e-06
1.15183e-06
2.82865e-07
3.76673e-07
5.94114e-07
3.07321e-11
1.87536e-14
3.07321e-11
1.87536e-14
5.35082e-09
1.25616e-10
2.17105e-10
1.25375e-10
6.70692e-06
1.39496e-05
1.50889e-05
1.39406e-05
1.11635e-08
5.03846e-09
2.29363e-09
1.08804e-07
8.51026e-07
1.1818e-06
1.06185e-06
4.03914e-07
2.78212e-07
2.35605e-06
2.65182e-06
6.81376e-06
2.46272e-05
3.62502e-05
4.05701e-05
4.09226e-05
3.35074e-05
7.43308e-06
3.04014e-06
5.50457e-06
8.0323e-06
2.52286e-06
2.64354e-05
1.09154e-08
5.11432e-09
2.29229e-09
4.75637e-08
2.45031e-07
1.84184e-07
1.74059e-07
1.2346e-05
2.75766e-05
2.76507e-05
1.79031e-05
2.61218e-05
3.93366e-05
3.93245e-05
3.53059e-05
1.20834e-05
4.88127e-06
2.14836e-07
1.03711e-07
2.55469e-07
6.43213e-07
4.04655e-07
4.67598e-06
1.08411e-08
5.2903e-09
2.31747e-09
1.36807e-09
1.09588e-09
1.10004e-09
1.22048e-06
1.30252e-05
1.8774e-05
1.64028e-05
4.15085e-06
5.53788e-06
1.28013e-05
9.16477e-06
1.53495e-06
6.65813e-10
6.70384e-10
6.29472e-10
2.92782e-10
2.60875e-10
8.9057e-09
8.27532e-08
1.49727e-07
1.08984e-08
5.63632e-09
3.34177e-09
2.11704e-09
2.95491e-09
1.31116e-08
6.94776e-07
8.89347e-07
2.75471e-07
1.07629e-07
7.26292e-09
1.74722e-08
9.6843e-10
9.69319e-10
9.73144e-10
1.64021e-09
2.03257e-09
1.80511e-09
1.16323e-09
3.17619e-10
1.7711e-10
1.6943e-10
2.74191e-07
1.1747e-08
5.43483e-09
3.81975e-09
3.50001e-09
5.04822e-09
1.28977e-08
3.74868e-08
2.14118e-08
1.03701e-08
7.18903e-09
3.47285e-09
5.09129e-09
2.84046e-09
2.70314e-09
3.52734e-09
4.33725e-09
3.98504e-09
3.03358e-09
1.63318e-09
1.16935e-09
8.51977e-10
7.4985e-10
7.7514e-10
1.23659e-08
4.6969e-09
2.96988e-09
2.19595e-09
2.72285e-09
4.1056e-09
6.9728e-09
4.05676e-09
2.1513e-09
1.60256e-09
1.61383e-09
1.8298e-09
1.60123e-09
1.43582e-09
1.52577e-09
1.733e-09
1.97022e-09
1.91516e-09
1.61644e-09
1.16572e-09
8.55047e-10
8.30584e-10
7.51981e-10
1.48054e-08
3.53742e-09
2.09706e-09
9.31644e-10
8.45732e-10
1.19088e-09
9.30308e-10
8.93767e-10
8.1985e-10
7.23663e-10
7.40261e-10
7.35085e-10
6.69833e-10
6.39723e-10
7.12747e-10
8.65181e-10
9.57364e-10
1.01934e-09
9.74138e-10
7.3084e-10
5.10795e-10
5.31179e-10
7.00875e-10
1.62562e-08
2.58187e-09
1.39011e-09
5.27347e-10
2.86616e-10
3.03994e-10
2.88828e-10
2.78437e-10
2.79943e-10
2.8457e-10
2.9636e-10
2.9232e-10
2.89951e-10
3.03696e-10
3.50598e-10
4.16213e-10
4.55769e-10
4.63492e-10
4.57847e-10
3.7858e-10
2.77405e-10
2.63404e-10
3.46433e-10
3.53822e-08
1.46673e-09
9.97627e-10
4.54132e-10
1.96816e-10
1.3157e-10
1.13205e-10
1.0471e-10
1.09014e-10
1.14943e-10
1.17546e-10
1.16704e-10
1.21864e-10
1.3112e-10
1.47051e-10
1.68878e-10
1.85594e-10
1.95295e-10
1.9763e-10
1.70753e-10
1.35138e-10
1.38263e-10
1.69779e-10
5.31215e-08
1.19149e-09
7.67606e-10
3.95689e-10
1.88719e-10
1.17894e-10
9.06804e-11
7.26998e-11
6.03374e-11
5.37619e-11
4.90049e-11
4.65775e-11
4.7358e-11
4.98483e-11
5.40586e-11
5.97178e-11
6.467e-11
6.81836e-11
7.01575e-11
6.55963e-11
6.20338e-11
6.57908e-11
8.27932e-11
6.40815e-08
5.96387e-10
4.24246e-10
2.91888e-10
1.97738e-10
1.46026e-10
1.14832e-10
8.7443e-11
6.25633e-11
4.30421e-11
3.07631e-11
2.28415e-11
1.87867e-11
1.69854e-11
1.75332e-11
1.87863e-11
2.02376e-11
2.16037e-11
2.24665e-11
2.35918e-11
2.55302e-11
2.96286e-11
3.95827e-11
7.03848e-08
1.46185e-09
2.30956e-10
2.66192e-10
2.36895e-10
2.05125e-10
1.72608e-10
1.3403e-10
9.25859e-11
6.12654e-11
3.98641e-11
2.42253e-11
1.38704e-11
8.43144e-12
6.22644e-12
5.58304e-12
5.65612e-12
6.03477e-12
6.5756e-12
7.75698e-12
9.14154e-12
1.26477e-11
1.70178e-11
7.53508e-08
3.91843e-09
2.1876e-10
2.99708e-10
3.05898e-10
2.90339e-10
2.58547e-10
2.0558e-10
1.40444e-10
9.87909e-11
6.73967e-11
4.06346e-11
2.13935e-11
1.00194e-11
4.50094e-12
2.3134e-12
1.61176e-12
1.54923e-12
1.75454e-12
2.33411e-12
3.13663e-12
4.40134e-12
7.01049e-12
1.25877e-07
1.08811e-08
2.04566e-10
3.52535e-10
4.02518e-10
3.97847e-10
3.7119e-10
3.07809e-10
1.94377e-10
1.49918e-10
1.08651e-10
6.85905e-11
3.72402e-11
1.73721e-11
6.95365e-12
2.51025e-12
9.29386e-13
4.868e-13
4.5914e-13
6.43613e-13
9.28953e-13
1.6319e-12
2.57765e-12
1.37523e-07
2.0732e-08
2.04193e-10
3.68919e-10
4.54995e-10
4.62504e-10
4.72662e-10
4.33814e-10
2.46753e-10
2.04112e-10
1.57271e-10
1.04603e-10
6.01421e-11
2.94326e-11
1.20831e-11
4.24339e-12
1.3062e-12
3.8563e-13
1.58365e-13
1.66613e-13
2.78717e-13
4.82893e-13
9.04408e-13
1.58794e-07
2.76963e-08
2.02592e-10
2.8372e-10
2.67634e-10
2.68807e-10
3.89115e-10
4.35791e-10
2.85259e-10
2.51263e-10
2.06723e-10
1.44022e-10
8.68901e-11
4.45913e-11
1.93326e-11
7.19837e-12
2.26964e-12
6.03064e-13
1.39551e-13
5.34923e-14
6.83502e-14
1.55881e-13
2.87725e-13
1.60581e-07
3.54975e-08
2.02571e-10
2.90566e-10
2.65713e-10
2.65811e-10
8.08842e-09
5.61396e-10
3.03625e-10
3.021e-10
2.53248e-10
1.82641e-10
1.14448e-10
6.08542e-11
2.8313e-11
1.11863e-11
3.7103e-12
1.0305e-12
2.42304e-13
4.17837e-14
2.16299e-14
3.89242e-14
8.56894e-14
1.69926e-07
7.81377e-08
2.02592e-10
1.81045e-09
6.0065e-08
1.16845e-07
4.1809e-08
6.1512e-09
4.48207e-10
3.37711e-10
2.83928e-10
2.11489e-10
1.37544e-10
7.57024e-11
3.72049e-11
1.56704e-11
5.53209e-12
1.58933e-12
3.80749e-13
7.05639e-14
1.09696e-14
1.01149e-14
2.31743e-14
1.71669e-07
1.28586e-07
1.02937e-08
1.05126e-09
1.15635e-07
2.18533e-07
4.59444e-07
6.48157e-08
3.29959e-09
4.84786e-10
2.97662e-10
2.22322e-10
1.47318e-10
8.18629e-11
4.13744e-11
1.88501e-11
7.4145e-12
2.28337e-12
5.83554e-13
1.1676e-13
1.31804e-14
2.86859e-15
6.03256e-15
1.71757e-07
1.63973e-07
4.03722e-08
9.17037e-10
5.85449e-08
4.74843e-07
1.43397e-06
7.99695e-07
2.91309e-08
1.43356e-09
3.28896e-10
2.17499e-10
1.44254e-10
8.08296e-11
4.11957e-11
1.93085e-11
8.22059e-12
2.85311e-12
7.83121e-13
1.67076e-13
2.6954e-14
1.57047e-15
1.34541e-15
1.32636e-07
1.69748e-07
6.81661e-08
9.22097e-10
7.07144e-10
4.72633e-07
1.41216e-06
1.33128e-06
8.56849e-08
4.36997e-09
3.90985e-10
1.99125e-10
1.29183e-10
7.07932e-11
3.57025e-11
1.72319e-11
7.72086e-12
2.9734e-12
8.8627e-13
2.03361e-13
3.63336e-14
1.85874e-15
3.47095e-16
6.08506e-08
1.5198e-07
5.74054e-08
3.14233e-09
7.09136e-10
3.29243e-07
1.36635e-06
6.54508e-07
5.42557e-08
5.15818e-09
5.06486e-10
1.68304e-10
1.03676e-10
5.62346e-11
2.71717e-11
1.28995e-11
5.95771e-12
2.50145e-12
8.46543e-13
2.10532e-13
3.95103e-14
3.10563e-15
1.43931e-16
2.55293e-08
8.12509e-08
3.29586e-08
3.8177e-09
7.05691e-10
1.24832e-07
8.64941e-07
2.50031e-07
1.51833e-08
2.80995e-09
3.88689e-10
1.21666e-10
7.40599e-11
3.88855e-11
1.76918e-11
7.8633e-12
3.66519e-12
1.62731e-12
6.19036e-13
1.73485e-13
3.51358e-14
3.62556e-15
1.24998e-16
1.04143e-08
3.5769e-08
1.53736e-08
1.98706e-09
7.09282e-10
2.52449e-08
3.08926e-09
6.2242e-09
8.09113e-09
1.83227e-09
2.34132e-10
7.47116e-11
4.5686e-11
2.3172e-11
9.73429e-12
3.94824e-12
1.70461e-12
7.73293e-13
3.2219e-13
1.06644e-13
2.35295e-14
3.32932e-15
1.40229e-16
4.44715e-09
8.33338e-09
1.94985e-09
1.50874e-09
1.50506e-09
9.30641e-10
4.75497e-10
1.07861e-10
1.07949e-10
1.22514e-10
5.25856e-11
3.53237e-11
2.3192e-11
1.14096e-11
4.42984e-12
1.56159e-12
5.84956e-13
2.41396e-13
1.10809e-13
4.60395e-14
1.28968e-14
1.7904e-15
1.28412e-16
3.68259e-09
3.63337e-09
6.64641e-09
4.73613e-09
5.17363e-09
3.59333e-09
1.44896e-09
4.28319e-10
1.63991e-10
6.50903e-11
2.07624e-11
1.43767e-11
9.56111e-12
4.63721e-12
1.68452e-12
4.9351e-13
1.43439e-13
4.84222e-14
2.19774e-14
1.33998e-14
4.37894e-15
8.37677e-16
9.6038e-17
2.98669e-07
1.43402e-07
3.97381e-08
9.77141e-09
5.10702e-09
2.56237e-09
8.52643e-10
1.72545e-10
4.51448e-11
1.29437e-11
4.8511e-12
3.90878e-12
2.73997e-12
1.34314e-12
4.5289e-13
1.12174e-13
2.32766e-14
5.30208e-15
2.48957e-15
2.40558e-15
1.10781e-15
3.37904e-16
5.86787e-17
3.73836e-07
2.36285e-07
3.83427e-08
6.88165e-09
2.23264e-09
7.22336e-10
1.23365e-10
1.11704e-11
9.71623e-13
1.54794e-13
5.27693e-13
5.57299e-13
4.22457e-13
2.08084e-13
6.65359e-14
1.37506e-14
2.00424e-15
2.94128e-16
1.56148e-16
2.71175e-16
2.57469e-16
1.07397e-16
2.83446e-17
0.896218
0.834821
0.636485
0.50047
0.974454
0.950469
0.914914
0.779319
0.975674
0.978764
0.979857
0.97847
0.372666
0.413251
0.478538
0.492812
2.40041e-08
4.02377e-09
-4.24884e-08
-8.87681e-08
0.000911324
0.000370077
3.05964e-22
1.45822e-07
0.00742916
0.00323361
0.000166428
-1.02213e-09
0.0209372
0.0209366
0.00820131
0.00596355
0.0209314
0.020934
0.0209282
0.0208966
0.0208723
0.0205883
0.0137473
0.00951949
7.52585e-05
5.49808e-05
0.000205641
0.00305303
0.00101308
3.70315e-05
0.000168201
0.000499967
4.88784e-07
1.05868e-06
1.99958e-06
1.20478e-06
2.95868e-06
3.28207e-05
6.28175e-05
6.28227e-05
6.26076e-05
6.26005e-05
6.25398e-05
6.28149e-05
6.32902e-06
3.47315e-06
1.19875e-06
1.38904e-05
1.52401e-07
1.76571e-07
6.0156e-07
4.92126e-06
4.73212e-07
6.19837e-07
4.87724e-07
7.30816e-08
1.32422e-08
1.71768e-08
1.56538e-08
1.59039e-08
7.56957e-10
7.76921e-10
1.55257e-08
2.51544e-08
1.12756e-09
2.56403e-09
4.62486e-09
9.64898e-09
5.6878e-10
7.70191e-10
1.51073e-09
2.84427e-09
2.36736e-10
3.10551e-10
4.79938e-10
6.85787e-10
1.11689e-10
1.33631e-10
1.69469e-10
2.28755e-10
5.18772e-11
6.39783e-11
8.45354e-11
9.69351e-11
2.41143e-11
3.09263e-11
3.7156e-11
4.77072e-11
1.04531e-11
1.25131e-11
1.76004e-11
2.00041e-11
3.97111e-12
5.30325e-12
6.52865e-12
8.65757e-12
1.45663e-12
1.8396e-12
2.64062e-12
3.12475e-12
5.09021e-13
6.89944e-13
8.81073e-13
1.1816e-12
1.62484e-13
2.11126e-13
3.14624e-13
3.80825e-13
4.73661e-14
7.16404e-14
9.32768e-14
1.27998e-13
1.27324e-14
1.87665e-14
2.84275e-14
3.59115e-14
3.551e-15
5.21378e-15
7.54869e-15
1.07492e-14
6.84306e-16
1.09995e-15
1.87792e-15
2.50057e-15
1.62458e-16
2.63295e-16
4.27512e-16
6.92879e-16
3.13979e-17
5.22306e-17
1.05702e-16
1.5384e-16
7.48032e-18
1.05846e-17
1.91951e-17
3.47722e-17
1.85356e-18
1.82312e-18
3.55586e-18
5.62116e-18
1.2076e-18
3.7275e-19
4.98188e-19
1.05329e-18
1.2052e-18
1.34851e-19
9.11674e-20
1.78236e-19
1.14812e-18
8.3096e-20
2.07314e-20
2.64752e-20
0.499792
0.658236
0.947078
0.963386
0.96336
0.960801
0.958988
0.950833
0.766444
0.481044
0.613885
0.773622
0.574539
0.489465
0.392389
0.190705
0.078786
0.00937053
1.10549e-07
0.659747
0.635195
0.77867
0.943496
0.87501
0.761573
0.731466
0.734131
0.389449
0.114209
0.204353
0.230301
0.0601019
0.0101577
0.000281928
0.000290013
5.94058e-05
6.43708e-05
2.83595e-06
0.952166
0.890631
0.811589
0.495849
0.17513
0.0674393
0.09173
0.312663
0.354964
0.0598454
0.0593155
0.0584826
0.0484728
0.00158218
0.00165884
0.00374641
0.00369987
0.00273221
0.00255071
0.492381
0.391066
0.0974605
9.18634e-09
4.01974e-09
9.18606e-09
3.61635e-08
0.205091
0.46153
0.46159
0.458715
0.198227
0.0167978
0.000763209
0.0015719
0.00495331
0.00621357
0.00622154
0.00483016
-1.73458e-07
4.75099e-24
3.98463e-11
4.15266e-06
7.9422e-05
0.000132188
6.19628e-05
6.30826e-05
0.0827028
0.255133
0.182747
0.0497629
0.00551706
0.000420237
0.000426337
0.0026358
0.00393956
0.00564201
0.00270668
1.23524e-09
3.61814e-06
2.315e-05
0.000100014
0.000192795
0.000254866
0.000278943
6.72752e-05
1.77907e-06
1.77922e-06
1.77892e-06
1.77906e-06
2.25884e-05
1.38544e-05
0.000738117
0.0028248
0.00235657
0.00208352
0.00102034
-1.03469e-10
8.48498e-06
0.000253524
0.000393388
0.000195982
0.000341854
0.000731283
0.000688879
0.000555547
0.00052449
0.000424032
0.000377023
0.000341663
0.000115381
2.66236e-05
0.00251468
0.00344198
0.000485708
8.11273e-06
0.00545125
9.1557e-06
0.00178864
0.00332885
0.00335047
0.00369251
0.00354924
0.0028467
0.00229346
0.00217453
0.00174704
0.00130337
0.00103504
0.000411744
2.63767e-05
0.00126634
0.00294745
0.000920884
7.80841e-06
0.0121302
0.00397547
0.00714221
0.00717618
0.00692743
0.00403363
0.00272478
0.00145977
0.000818947
0.000636682
0.000412065
0.000178097
6.0565e-05
9.36655e-05
6.61008e-05
3.09621e-05
0.000262773
0.000434154
4.30736e-05
0.0100158
0.00955908
0.0042273
0.00301996
0.000558818
2.33881e-07
2.27505e-07
3.29584e-07
2.38446e-07
1.94225e-07
2.01564e-07
4.33138e-06
1.88136e-05
3.68406e-06
1.56248e-06
1.52037e-08
1.54168e-08
1.50767e-08
2.58433e-05
0.00450875
0.00202992
3.71876e-19
4.89643e-16
1.65535e-08
1.12244e-06
3.13907e-06
3.13608e-06
1.0151e-06
1.91728e-07
2.04259e-05
0.000124673
0.000124352
0.000121369
2.10784e-05
6.48098e-07
1.57587e-08
1.12531e-07
3.26191e-07
0.000264644
2.58233e-10
4.15697e-10
1.30744e-10
-1.69086e-12
1.35383e-05
4.46625e-05
4.7406e-05
2.63286e-05
1.1981e-05
1.20274e-05
3.94821e-05
0.000113718
0.000117578
0.000130191
0.000129204
1.15401e-06
1.16281e-07
7.15234e-08
1.0632e-07
1.10729e-07
7.1994e-09
1.58277e-09
-4.95195e-17
8.09118e-06
4.30638e-05
4.70336e-05
4.66462e-05
4.65952e-05
1.57395e-05
2.91151e-06
3.51018e-07
2.03379e-06
7.3086e-05
0.000130128
8.24876e-05
7.13813e-08
7.14009e-08
5.25034e-05
6.96889e-06
5.92684e-09
1.33332e-08
1.33967e-08
9.58063e-09
9.75046e-09
1.47963e-06
1.74376e-07
5.40127e-07
3.682e-06
4.60845e-06
5.75957e-07
7.17182e-07
4.6163e-06
1.32253e-06
3.51894e-05
7.13785e-08
7.13759e-08
6.22875e-05
3.59407e-05
5.41903e-08
1.99655e-08
5.96457e-08
7.88334e-07
3.31014e-06
1.47266e-06
1.76943e-07
3.43227e-07
3.73407e-06
9.98803e-06
3.30524e-06
1.21888e-06
1.21088e-06
5.49969e-07
4.72438e-06
1.51738e-05
8.90409e-08
5.75324e-05
1.05004e-05
6.1858e-09
1.67646e-07
5.97912e-07
6.57511e-06
1.16505e-05
9.09489e-06
3.99936e-07
1.39575e-07
1.95183e-05
2.70102e-05
2.12594e-05
2.07272e-05
8.6467e-06
4.01019e-07
1.03987e-06
1.94117e-06
8.92308e-08
3.07083e-06
4.67825e-07
9.15795e-09
1.78995e-05
2.97709e-05
2.97283e-05
1.36519e-05
5.45613e-06
1.4036e-07
1.39614e-07
1.68315e-05
2.69869e-05
2.69091e-05
2.69045e-05
1.8946e-05
7.89368e-07
5.40116e-06
1.47859e-05
1.01574e-05
7.44867e-08
1.29366e-05
3.17475e-05
3.22495e-05
2.94363e-05
2.17702e-05
1.69508e-06
3.80539e-07
3.7921e-07
3.75615e-07
3.73054e-07
2.21622e-05
2.68507e-05
2.68604e-05
1.19591e-05
1.03529e-06
1.24447e-05
2.20617e-05
2.2057e-05
7.21031e-07
1.12504e-05
1.68482e-05
1.2626e-05
3.65945e-06
4.90561e-07
1.10675e-06
1.34028e-06
1.05239e-06
5.3418e-07
3.71226e-07
3.25875e-06
2.49114e-05
1.29832e-05
3.29632e-07
2.96622e-06
1.16476e-05
2.20299e-05
2.20089e-05
1.07771e-08
1.06273e-08
1.07274e-08
1.08309e-08
4.23882e-08
4.85279e-07
5.51823e-07
2.63725e-07
1.76467e-08
1.19597e-07
3.70309e-07
1.38332e-08
9.13891e-09
4.6907e-08
4.0036e-09
1.68949e-06
1.95755e-05
2.11685e-05
6.14803e-06
1.20113e-08
1.0527e-08
1.97429e-08
4.29532e-08
5.24552e-08
1.18343e-08
4.20582e-09
4.21994e-09
5.55888e-09
5.57454e-09
1.02338e-08
9.29197e-09
9.13953e-09
9.21362e-09
3.99203e-09
3.47626e-06
2.04791e-05
3.1401e-06
3.14123e-06
3.73257e-09
2.27715e-09
3.69066e-09
3.77313e-09
2.05793e-09
2.37702e-09
4.19174e-09
4.86029e-09
6.07578e-09
1.15457e-08
2.40249e-08
2.40338e-08
1.5387e-08
6.79515e-09
4.00637e-09
5.62029e-07
1.96153e-05
3.44027e-06
3.14417e-06
8.29998e-10
6.53702e-10
7.28067e-10
8.47906e-10
1.2593e-09
2.20613e-09
3.26775e-09
4.43466e-09
5.57875e-09
8.90944e-09
1.65156e-08
2.23507e-08
1.43933e-08
4.0091e-09
3.99468e-09
7.42864e-07
2.85192e-06
4.81298e-06
1.42872e-05
2.50771e-10
3.04568e-10
3.78738e-10
4.82971e-10
7.13595e-10
1.09238e-09
1.58722e-09
2.12291e-09
3.0324e-09
5.79338e-09
1.0805e-08
1.36261e-08
2.14901e-08
1.46414e-08
4.19254e-09
1.31166e-06
2.31007e-06
6.0418e-06
1.59369e-05
1.16861e-10
1.59441e-10
2.19746e-10
2.96728e-10
4.08139e-10
5.71836e-10
8.78586e-10
1.4609e-09
2.59265e-09
4.29319e-09
7.57718e-09
1.03448e-08
2.25223e-08
2.86391e-08
6.25529e-08
1.03634e-06
2.67345e-07
2.61567e-06
1.59369e-05
5.42588e-11
8.12083e-11
1.20026e-10
1.71225e-10
2.45916e-10
3.66699e-10
5.88095e-10
9.78178e-10
1.70051e-09
2.91924e-09
5.37236e-09
1.27767e-08
2.42702e-08
6.59134e-08
1.33953e-07
1.55503e-07
1.28625e-07
6.27073e-08
1.04886e-05
2.50725e-11
3.81428e-11
5.81625e-11
8.77072e-11
1.31197e-10
2.00068e-10
3.31594e-10
5.72833e-10
1.01264e-09
1.74899e-09
3.0693e-09
5.9161e-09
8.88525e-09
2.11201e-08
2.35356e-08
2.08208e-08
5.88617e-08
2.00509e-08
4.79864e-07
1.00602e-11
1.63109e-11
2.47005e-11
3.82022e-11
5.99129e-11
9.43835e-11
1.60358e-10
2.87416e-10
5.20506e-10
9.14596e-10
1.51684e-09
2.29951e-09
3.43932e-09
4.6508e-09
1.51704e-08
8.91552e-09
5.15423e-09
5.55029e-09
7.46624e-07
3.96628e-12
6.22441e-12
9.79727e-12
1.51709e-11
2.35422e-11
3.78808e-11
6.64941e-11
1.25774e-10
2.33162e-10
4.37087e-10
7.3654e-10
1.12473e-09
1.8439e-09
1.88291e-09
8.34697e-09
8.16869e-09
4.97258e-09
5.60544e-09
9.02973e-07
1.44012e-12
2.30329e-12
3.58769e-12
5.62425e-12
8.75321e-12
1.43451e-11
2.47146e-11
4.79129e-11
9.77002e-11
2.08919e-10
3.82818e-10
5.34466e-10
6.36288e-10
4.25624e-10
7.08171e-10
3.56462e-09
4.95803e-09
1.8556e-08
9.08877e-08
4.85176e-13
7.8323e-13
1.24274e-12
1.91333e-12
2.99715e-12
4.86452e-12
8.5733e-12
1.62713e-11
3.18854e-11
4.76835e-11
8.69779e-11
1.96809e-10
2.29112e-10
1.01149e-10
1.01381e-10
8.40945e-10
4.48625e-09
2.79937e-08
1.48475e-08
1.61122e-13
2.59153e-13
3.98656e-13
5.93509e-13
8.95671e-13
1.39451e-12
2.29926e-12
3.85073e-12
5.75562e-12
4.97689e-12
9.07586e-12
2.98173e-11
8.06483e-11
5.25565e-11
8.00772e-11
4.27056e-10
2.36559e-09
1.6248e-08
1.76757e-09
4.92157e-14
7.89222e-14
1.18008e-13
1.713e-13
2.47184e-13
3.67783e-13
5.57458e-13
8.52631e-13
1.16133e-12
1.06806e-12
7.90485e-13
3.44235e-12
1.52029e-11
3.00312e-11
3.13737e-11
1.97113e-10
7.68415e-10
2.62374e-09
1.29914e-09
1.38347e-14
2.28067e-14
3.33002e-14
4.69558e-14
6.52623e-14
9.10537e-14
1.30098e-13
1.86939e-13
2.42669e-13
2.45644e-13
2.05863e-13
5.21781e-13
2.99408e-12
1.21163e-11
1.61048e-11
3.72138e-11
2.11044e-10
3.33312e-10
7.35307e-10
3.84394e-15
6.13511e-15
9.02757e-15
1.24465e-14
1.66756e-14
2.23286e-14
3.08901e-14
4.28035e-14
5.51092e-14
6.04947e-14
5.99285e-14
1.40479e-13
6.79285e-13
3.41498e-12
7.2313e-12
8.25518e-12
2.87722e-11
1.10417e-10
2.84533e-10
9.35123e-16
1.57699e-15
2.32538e-15
3.17013e-15
4.17609e-15
5.57513e-15
7.67345e-15
1.08674e-14
1.4863e-14
1.87056e-14
2.31431e-14
4.10049e-14
1.48357e-13
5.2005e-13
2.14077e-12
4.1116e-12
5.34499e-12
3.00968e-11
8.46028e-11
2.21398e-16
3.74832e-16
5.60009e-16
7.6965e-16
1.03195e-15
1.41814e-15
2.06585e-15
3.22107e-15
5.20626e-15
8.45404e-15
1.38797e-14
2.53107e-14
6.23242e-14
2.14935e-13
6.17747e-13
1.39516e-12
2.03292e-12
6.98278e-12
1.25258e-11
4.6677e-17
8.27352e-17
1.26052e-16
1.78038e-16
2.49936e-16
3.65759e-16
5.9753e-16
1.10967e-15
2.22857e-15
4.57756e-15
9.38903e-15
1.88624e-14
3.92176e-14
1.13978e-13
3.21732e-13
6.95192e-13
9.2303e-13
1.29936e-12
2.01076e-12
9.45582e-18
1.61555e-17
2.52527e-17
3.81011e-17
5.63927e-17
9.09209e-17
1.74079e-16
4.04351e-16
1.01654e-15
2.56334e-15
6.13254e-15
1.34806e-14
2.74254e-14
6.637e-14
1.81384e-13
4.1164e-13
5.54059e-13
5.5451e-13
5.01811e-13
1.67043e-18
2.92194e-18
4.75269e-18
7.4738e-18
1.20533e-17
2.20752e-17
5.11905e-17
1.42498e-16
4.35709e-16
1.27142e-15
3.42029e-15
8.48383e-15
1.91203e-14
4.12393e-14
1.01651e-13
2.37538e-13
3.96267e-13
4.33558e-13
2.98065e-13
2.47518e-19
4.56871e-19
7.64712e-19
1.2768e-18
2.30597e-18
4.8807e-18
1.32581e-17
4.62452e-17
1.6391e-16
5.45714e-16
1.66201e-15
4.48854e-15
1.09528e-14
2.43335e-14
5.41023e-14
1.35645e-13
2.63746e-13
3.30517e-13
1.97971e-13
3.62739e-20
6.47257e-20
1.11842e-19
2.01329e-19
3.94719e-19
9.08691e-19
2.89785e-18
1.10953e-17
4.38384e-17
1.59647e-16
5.20333e-16
1.56329e-15
4.29449e-15
1.0545e-14
2.33907e-14
5.87478e-14
1.26279e-13
1.65121e-13
9.02399e-14
)
;

boundaryField
{
    leftWall
    {
        type            zeroGradient;
    }
    rightWall
    {
        type            zeroGradient;
    }
    lowerWall
    {
        type            zeroGradient;
    }
    atmosphere
    {
        type            inletOutlet;
        inletValue      uniform 0;
        value           nonuniform List<scalar> 
46
(
3.73836e-07
2.36285e-07
3.83427e-08
6.88165e-09
2.23264e-09
7.22336e-10
1.23365e-10
1.11704e-11
0
0
0
0
0
0
0
0
0
0
0
0
2.57469e-16
1.07397e-16
2.83446e-17
1.14812e-18
8.3096e-20
0
0
0
0
0
0
0
0
0
0
0
0
0
0
0
0
0
0
1.26279e-13
1.65121e-13
9.02399e-14
)
;
    }
    defaultFaces
    {
        type            empty;
    }
}


// ************************************************************************* //
