/*--------------------------------*- C++ -*----------------------------------*\
| =========                 |                                                 |
| \\      /  F ield         | OpenFOAM: The Open Source CFD Toolbox           |
|  \\    /   O peration     | Version:  2312                                  |
|   \\  /    A nd           | Website:  www.openfoam.com                      |
|    \\/     M anipulation  |                                                 |
\*---------------------------------------------------------------------------*/
FoamFile
{
    version     2.0;
    format      ascii;
    arch        "LSB;label=32;scalar=64";
    class       volScalarField;
    location    "3.3";
    object      alphas;
}
// * * * * * * * * * * * * * * * * * * * * * * * * * * * * * * * * * * * * * //

dimensions      [0 0 0 0 0 0 0];

internalField   nonuniform List<scalar> 
2268
(
2
2
2
2
2
2
2
2
2
2
2
2
2
2
2
2
2
2
2
2
1.99997
1.99995
1.99995
2
2
2
2
2
2
2
2
2
2
2
2
2
2
2
2
2
2
2
2
2
1.99998
1.99998
2
2
2
2
2
2
2
2
2
2
2
2
2
2
2
2
2
2
2
2
2
2
2
2
2
2
2
2
2
2
2
2
2
2
2
2
2
2
2
2
2
2
2
2
2
2
2
2
2
2
2
2
2
2
2
2
2
1.99992
2
2.00001
2.00001
2.00003
1.99082
1.96399
1.94038
1.93158
1.96198
1.99818
2.003
1.99772
1.99808
1.99974
2
1.9999
1.99977
1.99976
1.9999
1.99988
1.9839
1.92376
1.83119
1.68302
1.4751
1.24137
1.01119
0.842432
0.747619
0.673606
0.627336
0.624709
0.675121
0.841471
1.50867
1.50645
1.51669
1.52136
1.5216
1.48159
1.40884
1.27142
1.07404
0.863379
0.652061
0.420369
0.247958
0.136755
0.0578249
0.0231777
0.0210048
0.0668827
0.149523
0.193473
0.204692
0.165489
0.183113
0.158754
0.161038
0.170681
0.168698
0.170509
0.178134
0.113018
0.0258055
0.00964308
0.00208202
0.00127418
0.00602273
0.0502801
0.0704984
0.0285779
0.023789
0.0385123
0.195472
0.237192
0.232145
0.104263
0.0654577
0.138098
1.94023
1.94148
1.9542
1.96982
1.96231
1.94087
1.9386
1.94135
1.94497
1.94608
1.94696
1.94684
1.94666
1.94959
1.9561
1.96565
1.96222
1.95692
1.95646
1.95289
1.95359
1.95887
1.96363
1.96366
1.96505
1.94635
1.93467
1.90371
1.87991
1.88696
1.88807
1.87457
1.87446
1.86617
1.84584
1.82128
1.82138
1.82057
1.78109
1.90475
1.93619
1.88897
1.79882
1.75195
1.54389
1.41019
1.3507
1.34654
1.30977
1.34867
1.45468
1.50054
1.47914
1.43281
1.32659
1.19274
1.07094
0.834247
1.40852
1.5338
1.51983
1.19714
0.653075
0.426804
0.575018
0.677333
0.645723
0.420407
0.359594
0.450317
0.574785
0.553622
0.518794
0.558332
0.490494
0.337575
0.480744
0.707403
0.760712
0.36266
0.182713
0.182353
0.267518
0.44773
0.650076
0.384096
0.204839
0.193223
0.195974
0.189293
0.215246
0.197438
0.166385
0.161437
0.138347
0.48904
0.358678
0.208156
0.221741
0.581177
0.600102
0.610843
0.61219
0.639144
0.334757
0.190441
0.190874
0.19234
0.200866
0.214608
0.217792
0.216701
0.21207
0.194703
0.517305
0.146443
0.084916
0.25394
0.241534
0.178216
0.118303
0.187458
0.601743
0.47961
0.23463
0.169137
0.208879
0.315227
0.333196
0.220034
0.21744
0.198948
0.257851
0.533016
0.119456
0.0545894
0.0632335
0.0631423
0.0602455
0.0618456
0.105607
0.348439
0.588796
0.471472
0.236731
0.241358
0.355539
0.352839
0.340575
0.319736
0.657843
0.955238
0.00315773
0.00384502
0.00381671
0.00106119
0.00106844
0.000968451
0.000905029
0.00107124
0.00111055
0.00105042
0.000768807
0.00310073
0.0477761
0.0696009
0.0492884
0.0290334
0.0699882
0.227362
0.216828
0.0899227
0.0181986
0.018512
0.103155
0.00218448
0.00218715
0.00219537
0.00358332
0.00761239
0.00298602
0.00132036
0.00131936
0.00131904
0.00130182
0.00110911
0.000583614
0.00745243
0.0438282
0.046721
0.0299843
0.0383688
0.0428677
0.0255678
0.0214488
0.0213651
0.0176639
0.0183728
0.0777622
0.0481006
0.014878
0.0138885
0.00768999
0.00907248
0.0224553
0.0288842
0.00972666
0.0315362
0.0602747
0.0851774
0.0297016
0.0226328
0.0248368
0.0357863
0.075869
0.063555
0.0528343
0.163961
0.204998
0.103798
0.0504405
0.843088
0.730967
0.582342
0.424704
0.310578
0.217188
0.27983
0.305756
0.258109
0.159669
0.193272
0.193741
0.161045
0.0779193
0.0754253
0.182774
0.240939
0.31839
0.693306
0.886484
0.941728
0.824681
0.779713
1.14891
1.14383
1.04378
0.944432
0.88791
0.890208
0.899342
0.869104
0.776513
0.711848
0.692097
0.688535
0.637893
0.508258
0.371495
0.342489
0.561369
0.977657
1.15634
1.00759
1.00446
1.0043
1.02008
1.18506
1.20553
1.12377
1.02573
0.984136
1.00164
1.00826
1.0129
1.04858
1.06183
1.03313
1.01669
1.01335
1.05045
1.06511
1.04918
1.11789
1.16035
1.15983
1.11348
1.02682
1.00085
1.00079
2.00943
2.12669
1.95792
1.33526
0.97202
1.00093
1.00097
1.00097
1.00096
1.00094
1.00089
1.00094
1.00095
1.00193
1.02481
1.05803
1.06647
1.05385
1.02879
1.02015
1.02894
1.02524
1.00141
2.97445
2.98716
2.94282
2.80919
2.18453
1.38252
1.06998
1.00703
0.99923
1.00041
1.00065
1.00067
1.00038
1.00027
1.00032
1.00054
1.001
1.00029
0.99944
0.998409
0.998117
0.997716
0.984328
2.98781
2.98801
2.99031
2.99221
2.99385
2.96117
2.78654
2.55662
2.28377
1.98708
1.72363
1.53413
1.40429
1.31741
1.26963
1.24841
1.24807
1.28901
1.362
1.4477
1.52375
1.587
1.64139
2.98884
2.99241
2.99996
3
3
2.99987
2.99958
2.99884
2.99624
2.99599
2.99797
2.99967
2.97585
2.935
2.91307
2.90637
2.90861
2.92573
2.94992
2.95959
2.882
2.77761
2.75827
2.99884
2.99978
3
3
2.99999
2.99999
3
3
2.99999
2.9996
2.99935
2.99938
2.99962
2.99999
3
3
3
3
2.99999
2.99452
2.94681
2.93657
2.9746
3
3
3
3
3
3
3
3
3
3
3
2.99994
2.99994
2.99994
2.99993
2.99993
2.99996
3
3
2.99984
2.99762
2.99556
2.99585
3
3
3
3
3
3
2.99998
2.99998
2.99999
2.99999
2.99999
2.99999
2.99999
3
2.99997
2.99994
2.99994
3
3
3
3
3
3
3
3
3
3
2.99998
2.99995
2.99995
2.99995
2.99999
3
3
3
3
3
3
2.99999
2.99999
3
2.99998
2.99989
2.99984
2.99984
2.99989
3
3
3
2.99997
2.99994
2.99994
2.99995
2.99996
2.99997
2.99996
2.99997
2.99996
2.99987
2.99982
2.99981
2.99987
2.99989
2.99989
2.99986
2.99985
2.99984
2.99991
2.99993
3
3
3
2.99999
2.99997
2.99998
2.99998
2.99985
2.99976
2.99976
2.99979
2.99981
2.9998
2.99981
2.99987
2.99994
2.99994
2.99996
2.99997
2.99998
2.99999
3
2.99999
3
3
3
3
3
3
2.99998
2.99988
2.99984
2.99987
2.99995
2.99996
2.99994
2.99996
2.99999
2.99999
3
3
3
3
3
3
3
3
3
3
3
3
3
2.99999
2.99999
3
3
3
3
3
3
3
3
3
3
3
3
3
3
3
3
3
3
3
3
3
3
3
3
3
3
3
3
3
3
3
3
3
3
3
3
3
3
3
3
3
3
3
3
3
3
3
3
3
3
3
3
3
3
3
3
3
3
3
3
3
3
3
3
3
3
3
3
3
3
3
3
3
3
3
3
3
3
3
3
3
3
3
3
3
3
3
3
3
3
3
3
3
3
3
3
3
3
3
3
3
3
3
3
3
3
3
3
3
3
3
3
3
3
3
3
3
3
3
3
3
3
3
3
3
3
3
3
3
3
3
3
3
3
3
3
3
3
3
3
3
3
3
3
3
3
3
3
3
3
3
3
3
3
3
3
3
3
3
3
3
3
3
3
3
3
3
3
3
3
3
3
3
3
3
3
3
3
3
3
3
3
3
3
3
3
3
3
3
3
3
3
3
3
3
3
3
3
3
3
3
3
3
3
3
3
3
3
3
3
3
3
3
3
3
3
3
3
3
3
3
3
3
3
3
3
3
3
3
3
3
3
3
3
3
3
3
3
3
3
3
3
3
3
3
3
3
3
3
3
3
3
3
3
3
3
3
3
3
3
3
3
3
3
3
3
3
3
3
3
3
3
3
3
3
3
3
3
3
3
3
3
3
3
3
3
3
3
3
3
3
3
3
3
3
3
3
3
3
3
3
3
3
3
3
3
3
3
3
3
3
3
3
3
3
3
3
3
3
3
3
3
3
3
3
3
3
3
3
3
3
3
3
3
3
3
3
3
3
3
3
3
3
3
3
3
3
3
3
3
3
3
3
3
3
3
3
3
3
3
3
3
3
3
3
3
3
3
3
3
3
3
3
3
3
3
3
3
3
3
3
3
3
3
3
3
3
3
3
3
3
3
3
3
3
3
3
3
3
3
3
3
3
3
3
3
3
3
3
3
3
3
3
3
3
3
3
3
3
3
3
3
3
3
3
3
3
3
3
3
3
3
3
3
3
3
3
3
3
3
3
3
3
3
3
3
3
3
3
3
3
3
3
3
3
3
3
3
3
3
3
3
3
3
3
3
3
3
3
3
3
3
3
3
3
3
3
3
3
3
3
3
3
3
3
3
3
3
3
3
3
3
3
3
3
3
3
3
3
3
3
3
3
3
3
3
3
3
3
3
3
3
3
3
3
3
3
3
3
3
3
3
3
3
3
3
3
3
3
3
3
3
3
3
3
3
3
3
3
3
3
3
3
3
3
3
3
3
3
3
3
3
3
3
3
3
3
3
3
3
3
3
3
3
3
3
3
0.216795
0.283938
0.501989
0.590778
0.0877405
0.140256
0.193285
0.341823
0.0386148
0.0327587
0.0367212
0.0429923
0.689817
0.652927
0.667808
0.660698
1.11399
1.11422
1.0782
1.03266
0.999293
1.00037
1.00106
1.00105
0.991879
0.996947
1.00092
1.0026
0.979181
0.97918
1.00968
1.04053
1.64491
1.68397
1.96999
2.13165
2.85128
2.88021
2.90939
2.92735
2.99848
2.99616
2.99578
2.99237
2.99776
2.99995
2.99952
2.99905
3
3
2.99999
2.99999
2.99999
2.99997
2.99981
2.9998
2.99981
2.99981
2.99981
2.99977
2.99998
2.99999
3
2.99993
3
3
3
2.99999
3
3
3
3
3
3
3
3
3
3
3
3
3
3
3
3
3
3
3
3
3
3
3
3
3
3
3
3
3
3
3
3
3
3
3
3
3
3
3
3
3
3
3
3
3
3
3
3
3
3
3
3
3
3
3
3
3
3
3
3
3
3
3
3
3
3
3
3
3
3
3
3
3
3
3
3
3
3
3
3
3
3
3
3
3
3
3
3
3
3
3
3
3
3
3
3
3
3
3
3
0.582705
0.372694
0.0609044
0.0545546
0.0738604
0.0864149
0.0918337
0.114651
0.46794
0.748642
0.564974
0.273492
0.603267
0.703511
0.811892
1.01941
1.07989
1.01634
1.01489
0.438198
0.418285
0.233598
0.0947381
0.251939
0.409373
0.443774
0.479528
0.864869
1.01385
0.832745
0.785737
1.02929
1.1633
1.12092
1.04671
1.03004
1.0117
1.01177
0.0745329
0.155968
0.296585
0.703312
1.00667
1.08965
1.07531
0.979681
0.996439
1.04072
0.966161
0.967141
0.978051
1.03856
1.00854
1.00163
1.00277
1.00732
1.00644
0.663874
0.79503
1.07532
1.11148
1.03247
1.01283
1.07133
1.14159
0.907961
0.907969
0.901674
1.0963
1.10072
1.00235
1.005
1.01253
1.00706
1.00162
1.00401
1.04551
1.0629
1.03487
1.0026
1.00388
1.00371
1.00293
1.0949
1.2782
1.12928
1.2012
1.17388
1.09902
1.00374
1.00373
1.05986
1.02456
1.00289
1.00983
1.00104
1.00172
1.00193
1.00169
1.00146
1.00127
1.00115
1.00163
1.00354
1.08595
1.07907
1.01584
1.00654
1.00506
1.00319
1.39647
1.67878
1.0646
1.01563
1.0036
1.00142
1.0009
1.00085
1.00139
1.00112
1.00146
1.01131
1.03004
1.0484
1.06435
1.09751
1.1592
1.24939
1.21763
1.56897
2.34298
1.30853
1.01913
1.04609
1.03544
1.07019
1.15661
1.33327
1.58581
1.86677
2.06787
2.2119
2.29596
2.38182
2.49871
2.63819
2.78619
2.82549
2.72077
2.95779
2.29309
1.14517
2.16865
2.21325
2.40669
2.60538
2.80281
2.94758
2.99067
2.99421
2.99578
2.99647
2.99748
2.99873
2.99952
2.99974
2.99957
2.99955
2.99608
2.98588
2.30834
2.95834
2.97181
2.98999
2.99307
2.99931
3
3
3
3
3
3
2.99996
2.9999
2.99998
2.99999
3
3
3
2.99928
2.98883
2.99723
3
3
3
2.99999
2.99999
2.99999
3
3
2.99988
2.99953
2.99938
2.99945
2.99993
3
3
3
2.99999
2.99993
3
3
3
3
2.99994
2.99986
2.99986
2.99992
2.99996
2.99995
2.99984
2.9994
2.99926
2.99924
2.9996
3
3
3
3
3
3
3
2.99999
2.99996
2.99987
2.99986
2.99986
2.99986
2.99996
2.99999
2.99998
2.99958
2.99928
2.99936
2.99976
3
3
2.99977
2.99992
3
3
3
2.99996
2.99996
2.99999
3
3
2.99999
2.99999
2.99999
2.99992
2.99947
2.99962
2.9999
3
3
2.99972
2.99976
2.99996
3
3
2.99999
2.99992
2.99993
2.99998
3
2.99998
2.99996
2.99999
2.99997
2.99948
2.99988
2.99999
2.99996
3
2.99973
2.99985
2.99998
3
3
2.99998
2.9999
2.9999
2.99997
3
2.99988
2.99961
2.99972
2.9997
2.99951
2.99998
2.99999
2.99999
2.99996
2.99992
2.99996
2.99999
2.99996
2.99991
2.99988
2.99989
2.99993
2.99999
3
2.99987
2.99934
2.99934
2.99934
2.9996
2.99997
2.99998
2.99969
2.99948
2.99999
2.99995
2.99986
2.99986
2.99987
2.99988
2.99996
2.99999
3
3
2.99999
2.99949
2.99934
2.99934
2.99964
2.99997
2.99987
2.99945
2.99945
2.99998
2.99995
2.99994
2.99995
2.99997
2.99999
2.99999
2.99999
2.99999
2.99999
3
2.99999
2.99956
2.99949
2.99991
2.99997
2.99994
2.99945
2.99945
3
3
3
3
3
3
3
3
3
3
3
3
3
2.99999
3
2.99997
2.99977
2.99945
2.9995
3
3
3
3
3
3
3
3
3
3
3
3
3
3
3
2.99997
2.99964
2.99974
2.99981
3
3
3
3
3
3
3
3
3
3
3
3
3
3
3
2.99999
2.99983
2.99996
2.99996
3
3
3
3
3
3
3
3
3
3
3
3
3
3
3
2.99999
2.99999
2.99995
2.99967
3
3
3
3
3
3
3
3
3
3
3
3
3
3
3
2.99999
2.99999
2.9999
2.99961
3
3
3
3
3
3
3
3
3
3
3
3
3
3
3
2.99999
3
2.99996
2.99961
3
3
3
3
3
3
3
3
3
3
3
3
3
3
3
3
3
3
2.99977
3
3
3
3
3
3
3
3
3
3
3
3
3
3
3
3
3
3
3
3
3
3
3
3
3
3
3
3
3
3
3
3
3
3
3
3
3
2.99999
3
3
3
3
3
3
3
3
3
3
3
3
3
3
3
3
3
3
2.99998
3
3
3
3
3
3
3
3
3
3
3
3
3
3
3
3
3
3
3
3
3
3
3
3
3
3
3
3
3
3
3
3
3
2.99999
2.99999
2.99999
3
3
3
3
3
3
3
3
3
3
3
3
3
3
3
3
2.99999
2.99999
2.99999
2.99999
2.99999
3
3
3
3
3
3
3
3
3
3
3
3
3
3
3
2.99999
2.99999
2.99999
2.99999
3
3
3
3
3
3
3
3
3
3
3
3
3
3
3
3
2.99999
2.99999
3
3
3
3
3
3
3
3
3
3
3
3
3
3
3
3
3
3
3
3
3
3
3
3
3
3
3
3
3
3
3
3
3
3
3
3
3
3
3
3
3
3
3
3
3
3
3
3
3
3
3
3
3
3
3
3
3
3
3
3
3
3
3
3
3
3
3
3
3
3
3
3
3
3
3
3
3
3
3
3
3
3
3
3
3
3
3
3
3
3
3
3
3
3
3
3
3
3
3
3
3
3
3
3
3
3
3
3
3
3
3
3
3
3
3
3
3
3
3
3
3
3
3
3
3
3
3
3
3
3
3
3
3
3
3
3
3
3
3
3
3
3
3
3
3
3
3
3
3
3
3
3
3
)
;

boundaryField
{
    leftWall
    {
        type            calculated;
        value           nonuniform List<scalar> 
50
(
2
2
2
2
2
1.99772
1.50867
0.158754
0.00315773
0.00218448
0.0777622
0.843088
1.14891
1.18506
2.00943
2.97445
2.98781
2.98884
2.99884
3
3
3
3
3
3
3
3
3
3
3
3
3
3
3
3
3
3
3
3
3
3
3
3
3
3
3
3
3
3
3
)
;
    }
    rightWall
    {
        type            calculated;
        value           nonuniform List<scalar> 
50
(
1.95646
1.82057
1.07094
0.337575
0.138347
0.194703
0.257851
0.955238
1.01489
1.01177
1.00644
1.00401
1.00983
1.01563
1.01913
1.14517
2.30834
2.99928
2.99999
3
3
3
3
2.99996
2.99948
2.99945
2.99945
2.9995
2.99981
2.99996
2.99967
2.99961
2.99961
2.99977
3
2.99999
2.99998
3
3
2.99999
2.99999
3
3
3
3
3
3
3
3
3
)
;
    }
    lowerWall
    {
        type            calculated;
        value           nonuniform List<scalar> 
62
(
2
2
2
2
2
2
2
2
2
2
2
2
2
2
2
2
2
2
2
2
1.99997
1.99995
1.99995
1.99995
1.99998
2
2
2.003
0.841471
0.183113
0.138098
0.216795
0.283938
0.501989
0.590778
1.94023
1.95289
1.78109
0.834247
0.480744
0.48904
0.517305
0.533016
1.94023
1.94148
1.9542
1.96982
1.96231
1.94087
1.9386
1.94135
1.94497
1.94608
1.94696
1.94684
1.94666
1.94959
1.9561
1.96565
1.96222
1.95692
1.95646
)
;
    }
    atmosphere
    {
        type            calculated;
        value           nonuniform List<scalar> 
46
(
3
3
3
3
3
3
3
3
3
3
3
3
3
3
3
3
3
3
3
3
3
3
3
3
3
3
3
3
3
3
3
3
3
3
3
3
3
3
3
3
3
3
3
3
3
3
)
;
    }
    defaultFaces
    {
        type            empty;
    }
}


// ************************************************************************* //
