/*--------------------------------*- C++ -*----------------------------------*\
| =========                 |                                                 |
| \\      /  F ield         | OpenFOAM: The Open Source CFD Toolbox           |
|  \\    /   O peration     | Version:  2312                                  |
|   \\  /    A nd           | Website:  www.openfoam.com                      |
|    \\/     M anipulation  |                                                 |
\*---------------------------------------------------------------------------*/
FoamFile
{
    version     2.0;
    format      ascii;
    arch        "LSB;label=32;scalar=64";
    class       volScalarField;
    location    "3.3";
    object      p;
}
// * * * * * * * * * * * * * * * * * * * * * * * * * * * * * * * * * * * * * //

dimensions      [1 -1 -2 0 0 0 0];

internalField   nonuniform List<scalar> 
2268
(
5859.08
5851.54
5836.2
5815.47
5788.93
5755.16
5712.35
5659.46
5596.89
5525.45
5446.18
5361
5272.56
5184.14
5099.49
5022.64
4957.81
4907.63
4872.67
4852.22
4845.35
4847.54
4853.28
5056.87
5050.73
5038.01
5018.91
4993.67
4960.82
4918.38
4865.35
4802.54
4730.76
4650.97
4565.06
4475.77
4386.41
4300.85
4223.11
4157.82
4107.67
4072.84
4052.76
4047.08
4050.66
4057.92
4253.91
4249.31
4239.25
4222.61
4199.65
4168.59
4126.96
4073.55
4010.2
3937.76
3856.88
3769.42
3678.34
3587.03
3499.57
3420.01
3353.9
3303.93
3269.38
3250.02
3246.58
3252.75
3263.38
3449.53
3446.49
3439.47
3426.35
3406.95
3378.68
3338.26
3284.05
3219.81
3146.29
3063.7
2973.88
2880.21
2786.02
2695.84
2613.43
2546.04
2496.46
2462.16
2444.01
2444.52
2454.85
2471.14
2642.73
2641.29
2638.01
2629.63
2615.29
2591.39
2552.79
2495.22
2431.34
2356.98
2272.33
2179.15
2081.79
1983.34
1889.2
1801.93
1735.19
1692.66
1663.09
1647.04
1647.73
1659.26
1684.27
1834.87
1834.26
1835.07
1832.69
1824.93
1806.83
1771.65
1715.79
1647.37
1573.55
1496.92
1415.28
1339.33
1272.97
1218.89
1173.87
1144.6
1130.05
1121.45
1117.39
1117.1
1120.15
1122.65
1122.84
1121.93
1124.33
1125.83
1125.76
1122.55
1102.4
1061.16
1029.05
996.46
967.939
941.658
924.803
921.481
924.199
928.43
932.071
934.631
935.321
934.847
934.503
929.877
896.978
758.005
756.933
757.205
757.795
757.683
763.552
773.338
773.483
774.668
781.802
792.332
806.819
822.658
840.565
853.879
862.3
867.232
870.212
865.352
857.083
846.992
835.158
784.03
3167.59
3214.06
3228.46
3169.75
3028.59
2842.03
2651.74
2501.35
2401.87
2353.49
2346.14
2366.17
2387.37
2396.11
2365.97
2298.27
2217.53
2161.88
2133.42
2387.63
2454.16
2476.05
2418.46
2273.57
2082.39
1890.48
1739.25
1648.41
1612.62
1608.31
1630.11
1659.46
1672.75
1645.45
1587.37
1515.13
1457.51
1422.51
1619.19
1710.56
1739.35
1700.03
1580.24
1403.69
1249.96
1148.25
1098.92
1080.21
1080.22
1098.8
1117.84
1125.7
1111.1
1076.11
1034.15
996.004
977.216
1084.19
1155.33
1172.27
1152.69
1096.33
1012.09
957.263
924.385
900.142
885.824
885.081
890.888
883.378
869.17
854.439
844.132
836.468
831.947
832.23
900.496
903.322
909.069
903.959
901.988
895.869
889.506
873.595
850.878
834.954
825.638
823.269
810.973
785.586
768.075
763.723
767.244
773.918
773.552
851.614
826.149
823.194
836.989
847.644
844.458
832.828
816.743
799.497
776.29
758.784
749.871
739.534
718.219
706.814
704.68
707.841
712.704
710.856
799.677
776.897
771.751
778.606
781.349
771.786
757.799
744.585
738.179
714.365
697.784
685.512
673.491
656.76
649.125
646.932
649.132
649.402
646.553
742.423
721.293
712.738
711.466
708.822
697.455
684.11
670.57
663.582
650.029
639.799
629.339
615.508
600.952
592.906
589.718
590.639
591.048
591.625
635.915
634.774
635.938
639.365
642.16
646.031
655.963
670.427
682.374
692.954
704.193
717.322
731.893
746.056
756.516
761.922
763.391
760.922
753.096
741.306
729.312
710.698
672.304
510.015
509.677
511.533
516.386
523.211
532.163
542.136
552.077
561.938
572.185
582.887
594.688
607.758
620.227
628.965
631.929
629.763
622.52
611.266
598.053
586.453
571.345
550.583
380.843
381.031
386.674
393.662
402.042
411.615
421.254
430.791
440.506
450.279
459.924
470.793
482.684
494.119
502.079
504.638
501.085
490.859
473.735
458.613
447.163
438.776
432.357
268.354
268.612
272.108
278.584
286.75
295.661
305.069
314.537
324.25
332.522
340.456
349.75
360.129
370.395
378.652
382.172
377.368
364.661
350.862
342.446
335.979
331.691
330.103
197.303
190.029
188.194
191.152
196.881
203.946
213.221
222.819
230.385
235.503
241.31
248.84
256.761
263.711
270.334
274.504
272.01
265.687
262.113
259.538
258.141
256.617
255.941
120.397
108.914
109.587
116.606
125.628
135.811
146.631
156.335
162.913
167.826
173.058
179.125
184.668
188.778
192.445
195.385
197.074
197.929
197.47
195.646
194.633
194.368
194.351
28.9766
24.0023
30.8323
41.341
57.2254
73.6247
86.3514
96.2976
104.294
111.101
117.386
123.41
128.848
133.369
136.752
139.096
140.72
140.944
139.631
137.702
136.518
136.476
136.741
4.7544
3.40636
2.40335
4.01227
11.9836
24.2206
32.9105
40.4722
47.8614
54.8208
61.0471
66.873
72.2041
76.6624
80.0082
82.2014
83.0548
82.2511
80.2885
78.7798
78.9395
80.1656
81.0561
0.546361
-0.173511
-0.745013
-1.03486
-1.39237
-1.04746
1.42631
5.31857
9.74605
14.4716
18.6361
21.6394
24.2
26.682
28.2032
28.8813
28.8473
27.6983
26.0792
25.3573
27.8247
31.9013
35.0264
-0.863345
-1.18835
-1.35751
-1.53746
-1.70774
-1.84389
-1.87839
-1.76819
-1.70215
-1.63702
-1.62808
-1.63394
-1.42394
-0.738792
-0.253782
-0.0915085
-0.123759
-0.370118
-0.356151
0.69313
2.19525
4.31601
6.10506
-1.4431
-1.51603
-1.56315
-1.68495
-1.81004
-1.91834
-1.97887
-1.95968
-1.92667
-1.914
-1.91874
-1.93076
-1.92015
-1.86744
-1.79606
-1.73008
-1.66871
-1.6197
-1.56619
-1.53968
-1.33768
-0.673377
-0.968628
-1.62707
-1.66166
-1.70783
-1.79069
-1.88455
-1.95788
-2.01047
-2.01778
-2.01082
-2.00929
-2.00717
-2.00771
-2.006
-1.97924
-1.93368
-1.88667
-1.8429
-1.80317
-1.82628
-2.02643
-2.33954
-2.49858
-2.44148
-1.80159
-1.82594
-1.86241
-1.91525
-1.9754
-2.03035
-2.07136
-2.09132
-2.09975
-2.10476
-2.10782
-2.10985
-2.10633
-2.08655
-2.05748
-2.02743
-2.00524
-2.00096
-2.04455
-2.18223
-2.39932
-2.54058
-2.54711
-1.97546
-1.99088
-2.01638
-2.05142
-2.09158
-2.13047
-2.1626
-2.18416
-2.19744
-2.20613
-2.21165
-2.21327
-2.20902
-2.19818
-2.18433
-2.17189
-2.16642
-2.17576
-2.21315
-2.29265
-2.41278
-2.49887
-2.51544
-2.13838
-2.14893
-2.16745
-2.19199
-2.2201
-2.24787
-2.27156
-2.28921
-2.30245
-2.31302
-2.32054
-2.32358
-2.32195
-2.31736
-2.31222
-2.30915
-2.31203
-2.32458
-2.35241
-2.40117
-2.46515
-2.51776
-2.53966
-2.29341
-2.30108
-2.31451
-2.33237
-2.35273
-2.3729
-2.3905
-2.40485
-2.41757
-2.42925
-2.43826
-2.44267
-2.44355
-2.44294
-2.44272
-2.44481
-2.45079
-2.46261
-2.48366
-2.51448
-2.55099
-2.58281
-2.60008
-2.44201
-2.44757
-2.45729
-2.47042
-2.48553
-2.5009
-2.51522
-2.52861
-2.54118
-2.55223
-2.5606
-2.56543
-2.56816
-2.56993
-2.57242
-2.57678
-2.58344
-2.59358
-2.60842
-2.62779
-2.65045
-2.67145
-2.68375
-2.58523
-2.58929
-2.59638
-2.60617
-2.61757
-2.62967
-2.6417
-2.6536
-2.66448
-2.6738
-2.68103
-2.68635
-2.69051
-2.6941
-2.69804
-2.70279
-2.709
-2.71768
-2.72916
-2.74301
-2.75803
-2.77174
-2.78008
-2.72439
-2.72744
-2.73266
-2.74008
-2.74883
-2.75838
-2.76821
-2.77798
-2.78711
-2.79522
-2.80199
-2.80755
-2.81231
-2.81674
-2.82127
-2.82632
-2.8323
-2.83971
-2.84865
-2.8587
-2.86898
-2.87811
-2.88399
-2.86051
-2.86304
-2.86682
-2.87252
-2.87931
-2.88687
-2.89484
-2.90293
-2.91069
-2.91781
-2.92405
-2.9295
-2.93438
-2.93902
-2.94366
-2.9486
-2.95414
-2.96047
-2.96754
-2.97501
-2.98225
-2.9884
-2.99242
-2.9945
-2.99667
-2.99917
-3.00378
-3.0091
-3.01511
-3.02158
-3.02827
-3.03486
-3.04109
-3.04679
-3.05195
-3.05672
-3.06127
-3.06579
-3.07049
-3.07549
-3.08085
-3.08648
-3.09213
-3.09735
-3.10157
-3.1042
-3.1268
-3.12834
-3.13042
-3.13423
-3.13833
-3.14312
-3.14838
-3.15392
-3.1595
-3.16493
-3.17006
-3.17486
-3.17937
-3.18371
-3.188
-3.19234
-3.19678
-3.20131
-3.20585
-3.21019
-3.21401
-3.21694
-3.2186
-3.2578
-3.25901
-3.26078
-3.26365
-3.26701
-3.27091
-3.27522
-3.27982
-3.28456
-3.28927
-3.29384
-3.29822
-3.30241
-3.30646
-3.31044
-3.31437
-3.31827
-3.3221
-3.32578
-3.32915
-3.33199
-3.33403
-3.33503
-3.38781
-3.3888
-3.39027
-3.39253
-3.39526
-3.39848
-3.40207
-3.40592
-3.40994
-3.41402
-3.41806
-3.42201
-3.42583
-3.42954
-3.43315
-3.43667
-3.44006
-3.44329
-3.44628
-3.44893
-3.45105
-3.45247
-3.45303
-3.51706
-3.5179
-3.51912
-3.52097
-3.52322
-3.52587
-3.52888
-3.53215
-3.53556
-3.53908
-3.54262
-3.54613
-3.54957
-3.55292
-3.55615
-3.55925
-3.56217
-3.56489
-3.56734
-3.56942
-3.57102
-3.572
-3.57225
-3.64575
-3.64649
-3.64753
-3.64908
-3.65095
-3.65315
-3.65566
-3.65842
-3.66134
-3.66436
-3.66744
-3.67052
-3.67358
-3.67656
-3.67941
-3.68211
-3.68462
-3.68689
-3.68889
-3.69053
-3.69174
-3.6924
-3.69245
-3.77403
-3.77471
-3.77561
-3.77694
-3.77852
-3.78036
-3.78244
-3.78474
-3.78722
-3.7898
-3.79245
-3.79515
-3.79783
-3.80043
-3.80291
-3.80523
-3.80736
-3.80926
-3.81089
-3.81218
-3.81308
-3.81352
-3.81344
-3.90203
-3.90266
-3.90347
-3.90464
-3.90598
-3.90751
-3.90922
-3.91112
-3.91317
-3.91536
-3.91763
-3.91993
-3.92223
-3.92448
-3.92661
-3.92859
-3.93038
-3.93196
-3.93327
-3.93429
-3.93496
-3.93523
-3.93506
-4.02983
-4.03044
-4.03118
-4.03222
-4.03336
-4.03463
-4.03601
-4.03753
-4.0392
-4.04101
-4.0429
-4.04483
-4.04677
-4.04867
-4.05048
-4.05215
-4.05364
-4.05494
-4.056
-4.05679
-4.05728
-4.05743
-4.05721
-4.15749
-4.15808
-4.15877
-4.15971
-4.16068
-4.1617
-4.16278
-4.16395
-4.16526
-4.16669
-4.16822
-4.1698
-4.17141
-4.17299
-4.1745
-4.17589
-4.17712
-4.17818
-4.17903
-4.17964
-4.17999
-4.18004
-4.17979
-4.28499
-4.28556
-4.28623
-4.28709
-4.28792
-4.2887
-4.28949
-4.29032
-4.29128
-4.29236
-4.29354
-4.29481
-4.29611
-4.29741
-4.29865
-4.29979
-4.30079
-4.30164
-4.30231
-4.30277
-4.30301
-4.30301
-4.30274
-4.41227
-4.41283
-4.41349
-4.41432
-4.41502
-4.4156
-4.41608
-4.41659
-4.41721
-4.41796
-4.41884
-4.41981
-4.42085
-4.42189
-4.42289
-4.42381
-4.42462
-4.42529
-4.42581
-4.42615
-4.42631
-4.42626
-4.426
-4.53924
-4.53979
-4.54046
-4.54128
-4.5419
-4.54229
-4.54247
-4.54269
-4.543
-4.54346
-4.54407
-4.5448
-4.5456
-4.54642
-4.54722
-4.54795
-4.54859
-4.54911
-4.5495
-4.54975
-4.54984
-4.54976
-4.5495
-4.6658
-4.66633
-4.667
-4.66784
-4.66841
-4.66868
-4.66864
-4.66858
-4.66863
-4.66883
-4.6692
-4.66972
-4.67033
-4.67097
-4.67159
-4.67217
-4.67267
-4.67307
-4.67335
-4.67352
-4.67356
-4.67346
-4.67323
-4.79189
-4.79236
-4.79302
-4.79385
-4.7944
-4.79463
-4.79452
-4.7942
-4.79399
-4.794
-4.7942
-4.79456
-4.79501
-4.79551
-4.796
-4.79645
-4.79683
-4.79713
-4.79734
-4.79744
-4.79744
-4.79734
-4.79712
-4.91754
-4.91792
-4.9185
-4.91925
-4.91976
-4.91994
-4.91977
-4.91935
-4.91903
-4.91893
-4.91904
-4.91929
-4.91964
-4.92003
-4.92041
-4.92076
-4.92106
-4.92128
-4.92142
-4.92148
-4.92145
-4.92135
-4.92116
-5.04282
-5.0431
-5.04354
-5.04413
-5.04451
-5.0446
-5.04436
-5.04403
-5.04375
-5.04365
-5.04372
-5.04393
-5.04421
-5.04452
-5.04482
-5.0451
-5.04533
-5.04549
-5.04559
-5.04561
-5.04557
-5.04547
-5.0453
-5.16787
-5.16803
-5.16827
-5.16865
-5.16888
-5.16891
-5.16873
-5.16846
-5.16827
-5.16822
-5.16831
-5.1685
-5.16874
-5.16899
-5.16923
-5.16944
-5.16962
-5.16974
-5.1698
-5.16981
-5.16975
-5.16967
-5.16953
-5.29285
-5.29286
-5.29287
-5.29302
-5.2931
-5.29308
-5.29296
-5.29281
-5.29272
-5.29275
-5.29287
-5.29305
-5.29325
-5.29345
-5.29364
-5.2938
-5.29393
-5.29401
-5.29406
-5.29405
-5.29401
-5.29393
-5.29382
-5.41794
-5.41776
-5.4175
-5.41742
-5.41737
-5.41731
-5.41725
-5.41721
-5.41722
-5.41731
-5.41745
-5.41761
-5.41777
-5.41792
-5.41806
-5.41817
-5.41825
-5.41831
-5.41833
-5.41832
-5.41828
-5.41823
-5.41815
-5.5433
-5.54289
-5.54231
-5.54198
-5.54182
-5.54175
-5.54174
-5.54177
-5.54185
-5.54195
-5.54207
-5.5422
-5.54232
-5.54241
-5.54249
-5.54255
-5.54259
-5.54262
-5.54262
-5.54261
-5.54258
-5.54255
-5.54251
-5.66912
-5.66846
-5.66742
-5.66683
-5.66654
-5.66643
-5.66641
-5.66645
-5.66653
-5.66663
-5.66673
-5.66681
-5.66688
-5.66692
-5.66694
-5.66695
-5.66694
-5.66693
-5.66691
-5.66689
-5.66688
-5.66687
-5.66685
657.722
647.124
638.164
634.853
544.469
543.348
545.038
548.799
433.089
434.691
437.416
442.023
331.293
331.736
332.528
333.888
256.303
256.366
256.525
257.373
194.424
194.405
194.603
195.099
136.41
135.824
135.185
134.497
80.4453
79.2839
77.3461
74.712
34.6943
33.1788
30.6065
27.7048
5.96288
5.34597
4.56082
4.18412
-1.16147
0.370523
-0.58793
-1.48791
-2.39956
-2.39429
-2.35251
-2.25856
-2.49784
-2.48308
-2.43906
-2.36793
-2.49794
-2.48215
-2.45858
-2.42357
-2.53443
-2.52474
-2.50902
-2.48883
-2.59785
-2.59293
-2.58435
-2.57298
-2.68391
-2.68206
-2.67761
-2.67126
-2.78118
-2.78061
-2.77838
-2.77492
-2.88526
-2.88514
-2.88394
-2.88184
-2.99328
-2.99314
-2.9923
-2.99076
-3.10452
-3.10424
-3.10348
-3.10217
-3.21855
-3.21815
-3.2174
-3.21621
-3.33476
-3.3343
-3.33355
-3.33246
-3.45263
-3.45214
-3.45143
-3.45044
-3.57179
-3.57131
-3.57063
-3.56974
-3.69197
-3.6915
-3.69087
-3.69008
-3.81295
-3.8125
-3.81194
-3.81123
-3.93458
-3.93417
-3.93366
-3.93303
-4.05675
-4.05637
-4.05592
-4.05537
-4.17937
-4.17903
-4.17862
-4.17814
-4.30235
-4.30205
-4.30169
-4.30127
-4.42564
-4.42537
-4.42506
-4.4247
-4.54919
-4.54895
-4.54868
-4.54837
-4.67295
-4.67274
-4.67251
-4.67224
-4.79688
-4.7967
-4.7965
-4.79628
-4.92095
-4.9208
-4.92064
-4.92046
-5.04513
-5.04501
-5.04488
-5.04473
-5.16939
-5.1693
-5.16919
-5.16908
-5.29371
-5.29365
-5.29357
-5.29349
-5.41808
-5.41803
-5.41798
-5.41793
-5.54248
-5.54246
-5.54243
-5.5424
-5.66685
-5.66686
-5.66687
-5.66687
647.459
635.868
623.96
616.952
608.679
597.223
583.871
571.925
550.931
546.505
546.486
539.205
526.955
516.512
511.258
514.34
517.248
519.242
523.515
551.841
535.97
517.329
501.327
486.601
475.008
464.131
451.828
437.085
433.529
432.127
428.659
423.177
417.494
418.822
430.19
436.259
435.126
440.305
444.901
430.288
410.788
394.888
385.178
377.483
368.198
359.739
356.488
352.688
349.229
343.888
339.304
336.139
342.122
354.768
364.432
363.94
366.65
334.483
326.736
315.834
307.498
302.186
296.699
290.388
285.404
280.894
280.181
274.81
269.765
265.361
258.607
259.26
274.657
290.501
293.412
297.58
257.42
252.309
244.875
236.486
228.975
223.094
219.155
215.332
209.63
205.983
203.033
201.276
197.736
188.016
181.727
191.321
208.877
219.29
225.734
194.845
189.429
180.914
171.358
162.772
156.214
151.498
147.521
143.942
138.707
136.798
135.32
130.482
120.726
114.784
119.345
132.895
149.334
158.687
132.493
126.363
116.365
105.933
96.3993
88.5636
82.1097
77.0828
72.802
69.1963
65.6714
61.0567
54.8379
47.2353
43.0863
49.7713
66.4067
83.292
97.6527
69.9262
62.8137
52.8758
42.7688
34.5004
28.2138
23.6585
20.9013
18.8922
17.0732
14.8845
11.8932
8.6639
5.46586
3.40132
6.52213
19.2495
30.2024
45.1775
22.7871
17.3374
11.5366
6.39344
2.85614
1.05354
0.49347
0.353401
0.454025
0.307014
-0.0442451
-0.542366
-0.937739
-1.16022
-1.03193
-0.783739
1.22848
4.08429
10.7686
2.51126
-0.0857276
-1.13573
-1.18866
-1.45985
-1.52612
-1.53762
-1.52163
-1.50122
-1.46878
-1.43078
-1.39867
-1.38772
-1.39033
-1.39896
-1.38043
-1.38452
-1.4266
-1.18692
-1.732
-1.81445
-1.80148
-1.79459
-1.74202
-1.69493
-1.67559
-1.65912
-1.64473
-1.62652
-1.59966
-1.56664
-1.53697
-1.50555
-1.46629
-1.45738
-1.51532
-1.56877
-1.6277
-2.16951
-2.04139
-1.9531
-1.91557
-1.87001
-1.83106
-1.80891
-1.79482
-1.78409
-1.77439
-1.76455
-1.74504
-1.71694
-1.67547
-1.62538
-1.60394
-1.65381
-1.69861
-1.73437
-2.25931
-2.15282
-2.08233
-2.04352
-2.00213
-1.96739
-1.94765
-1.93571
-1.92643
-1.91915
-1.90974
-1.89297
-1.87088
-1.83919
-1.80087
-1.78822
-1.80987
-1.8291
-1.84546
-2.35731
-2.28016
-2.21752
-2.1718
-2.13461
-2.10687
-2.08926
-2.07603
-2.06442
-2.05429
-2.03882
-2.0194
-1.999
-1.97721
-1.94865
-1.94435
-1.95453
-1.95536
-1.95655
-2.45032
-2.39564
-2.345
-2.30442
-2.27275
-2.24753
-2.22656
-2.20979
-2.19623
-2.18313
-2.16641
-2.14558
-2.12556
-2.10725
-2.0858
-2.08196
-2.08394
-2.07532
-2.06645
-2.55062
-2.51236
-2.47168
-2.43585
-2.40593
-2.38118
-2.36121
-2.34446
-2.32958
-2.31484
-2.29836
-2.27739
-2.25792
-2.24092
-2.22475
-2.21848
-2.21695
-2.19937
-2.18523
-2.65785
-2.62891
-2.59594
-2.56533
-2.53835
-2.51545
-2.49675
-2.4803
-2.46518
-2.45138
-2.43785
-2.42004
-2.40182
-2.38592
-2.37339
-2.36388
-2.36409
-2.34655
-2.33411
-2.76644
-2.74578
-2.72053
-2.695
-2.67139
-2.65029
-2.6319
-2.61585
-2.60175
-2.58973
-2.57934
-2.56906
-2.55353
-2.53935
-2.52975
-2.51615
-2.52311
-2.51298
-2.50429
-2.87632
-2.8622
-2.84362
-2.82259
-2.80186
-2.78269
-2.76536
-2.75044
-2.73776
-2.72705
-2.71827
-2.7124
-2.70368
-2.69193
-2.6823
-2.67094
-2.67044
-2.68153
-2.67237
-2.98684
-2.97674
-2.96241
-2.94555
-2.92808
-2.91147
-2.89638
-2.88322
-2.87204
-2.86269
-2.85498
-2.84908
-2.84416
-2.83718
-2.83093
-2.82803
-2.8186
-2.84082
-2.83652
-3.09899
-3.09109
-3.07985
-3.0665
-3.05237
-3.03855
-3.02576
-3.01441
-3.00469
-2.99653
-2.98975
-2.98425
-2.97963
-2.97492
-2.97563
-2.98645
-2.97863
-2.98853
-2.98172
-3.21347
-3.20705
-3.19829
-3.18743
-3.17606
-3.16472
-3.15402
-3.14436
-3.13599
-3.12892
-3.1231
-3.11821
-3.11436
-3.11181
-3.11458
-3.12722
-3.12287
-3.11789
-3.11069
-3.33006
-3.32472
-3.31758
-3.30904
-3.29976
-3.29041
-3.28148
-3.27332
-3.26612
-3.25999
-3.25489
-3.25069
-3.24748
-3.24578
-3.24715
-3.2539
-3.25424
-3.2504
-3.24615
-3.44832
-3.44386
-3.438
-3.4311
-3.42357
-3.41582
-3.40837
-3.40146
-3.3953
-3.38998
-3.38553
-3.38189
-3.37914
-3.37766
-3.37809
-3.38204
-3.38395
-3.38966
-3.3881
-3.56788
-3.56413
-3.55929
-3.55363
-3.54744
-3.54106
-3.53483
-3.52897
-3.52371
-3.51912
-3.51525
-3.51209
-3.50972
-3.50842
-3.5086
-3.51138
-3.51393
-3.52179
-3.52393
-3.68846
-3.68527
-3.68124
-3.67657
-3.67145
-3.66617
-3.66095
-3.65601
-3.65151
-3.64755
-3.6442
-3.64147
-3.63942
-3.63827
-3.63827
-3.63997
-3.64192
-3.64606
-3.65065
-3.80982
-3.80711
-3.80374
-3.79985
-3.7956
-3.79119
-3.78682
-3.78265
-3.77881
-3.7754
-3.77251
-3.77014
-3.76833
-3.76725
-3.767
-3.76768
-3.76851
-3.76967
-3.77078
-3.93181
-3.9295
-3.92667
-3.92341
-3.91987
-3.91618
-3.91251
-3.90898
-3.9057
-3.90278
-3.90027
-3.89824
-3.89654
-3.89553
-3.89504
-3.89498
-3.89485
-3.8942
-3.89224
-4.05431
-4.05234
-4.04995
-4.04722
-4.04425
-4.04116
-4.03806
-4.03507
-4.03228
-4.02976
-4.02757
-4.02576
-4.02429
-4.02327
-4.02258
-4.02212
-4.02158
-4.02037
-4.01855
-4.17722
-4.17554
-4.17352
-4.17122
-4.16873
-4.16613
-4.16352
-4.16098
-4.1586
-4.15643
-4.15452
-4.15291
-4.15159
-4.15058
-4.14979
-4.14915
-4.14862
-4.14741
-4.14581
-4.30048
-4.29904
-4.29733
-4.2954
-4.2933
-4.29111
-4.2889
-4.28675
-4.28472
-4.28285
-4.28119
-4.27975
-4.27855
-4.27759
-4.27681
-4.27613
-4.27568
-4.27473
-4.27358
-4.42402
-4.42279
-4.42135
-4.41972
-4.41795
-4.41611
-4.41424
-4.41242
-4.41069
-4.40908
-4.40764
-4.40637
-4.40528
-4.40439
-4.40369
-4.40309
-4.40263
-4.40186
-4.40122
-4.54779
-4.54675
-4.54553
-4.54416
-4.54267
-4.54112
-4.53955
-4.538
-4.53653
-4.53516
-4.53391
-4.53279
-4.53182
-4.53101
-4.53038
-4.52988
-4.52941
-4.52879
-4.52849
-4.67175
-4.67088
-4.66985
-4.6687
-4.66746
-4.66615
-4.66483
-4.66352
-4.66227
-4.6611
-4.66003
-4.65906
-4.6582
-4.65746
-4.65688
-4.65646
-4.65606
-4.65558
-4.65532
-4.79587
-4.79514
-4.79429
-4.79333
-4.7923
-4.79121
-4.7901
-4.789
-4.78794
-4.78695
-4.78604
-4.78521
-4.78446
-4.7838
-4.78325
-4.78283
-4.78252
-4.78213
-4.78187
-4.92012
-4.91951
-4.91882
-4.91803
-4.91718
-4.91627
-4.91535
-4.91444
-4.91355
-4.91272
-4.91195
-4.91125
-4.91061
-4.91003
-4.90953
-4.90912
-4.90882
-4.90852
-4.90832
-5.04446
-5.04398
-5.04341
-5.04278
-5.04209
-5.04136
-5.0406
-5.03985
-5.03912
-5.03843
-5.03779
-5.0372
-5.03666
-5.03617
-5.03573
-5.03536
-5.03509
-5.03487
-5.03471
-5.16887
-5.1685
-5.16806
-5.16757
-5.16703
-5.16645
-5.16585
-5.16525
-5.16466
-5.1641
-5.16358
-5.16309
-5.16264
-5.16223
-5.16186
-5.16155
-5.16132
-5.16116
-5.16105
-5.29334
-5.29307
-5.29275
-5.29239
-5.29198
-5.29155
-5.2911
-5.29064
-5.29018
-5.28974
-5.28933
-5.28894
-5.28858
-5.28824
-5.28794
-5.28769
-5.28751
-5.2874
-5.28733
-5.41784
-5.41766
-5.41746
-5.41723
-5.41696
-5.41667
-5.41636
-5.41603
-5.41571
-5.41538
-5.41507
-5.41476
-5.41448
-5.41421
-5.41398
-5.41379
-5.41367
-5.41361
-5.41357
-5.54236
-5.54228
-5.54219
-5.54208
-5.54195
-5.5418
-5.54162
-5.54143
-5.54123
-5.54102
-5.54081
-5.54058
-5.54036
-5.54016
-5.53998
-5.53985
-5.53979
-5.53977
-5.53974
-5.66688
-5.6669
-5.66692
-5.66694
-5.66694
-5.66693
-5.6669
-5.66685
-5.66678
-5.66669
-5.66658
-5.66645
-5.6663
-5.66615
-5.66602
-5.66595
-5.66599
-5.66605
-5.66602
)
;

boundaryField
{
    leftWall
    {
        type            calculated;
        value           nonuniform List<scalar> 
50
(
5859.08
5056.87
4253.91
3449.53
2642.73
1834.87
1122.84
758.005
635.915
510.015
380.843
268.354
197.303
120.397
28.9766
4.7544
0.546361
-0.863345
-1.4431
-1.62707
-1.80159
-1.97546
-2.13838
-2.29341
-2.44201
-2.58523
-2.72439
-2.86051
-2.9945
-3.1268
-3.2578
-3.38781
-3.51706
-3.64575
-3.77403
-3.90203
-4.02983
-4.15749
-4.28499
-4.41227
-4.53924
-4.6658
-4.79189
-4.91754
-5.04282
-5.16787
-5.29285
-5.41794
-5.5433
-5.66912
)
;
    }
    rightWall
    {
        type            calculated;
        value           nonuniform List<scalar> 
50
(
2133.42
1422.51
977.216
832.23
773.552
710.856
646.553
591.625
523.515
440.305
366.65
297.58
225.734
158.687
97.6527
45.1775
10.7686
-1.18692
-1.6277
-1.73437
-1.84546
-1.95655
-2.06645
-2.18523
-2.33411
-2.50429
-2.67237
-2.83652
-2.98172
-3.11069
-3.24615
-3.3881
-3.52393
-3.65065
-3.77078
-3.89224
-4.01855
-4.14581
-4.27358
-4.40122
-4.52849
-4.65532
-4.78187
-4.90832
-5.03471
-5.16105
-5.28733
-5.41357
-5.53974
-5.66602
)
;
    }
    lowerWall
    {
        type            calculated;
        value           nonuniform List<scalar> 
62
(
6257.23
6249.69
6234.35
6213.62
6187.08
6153.31
6110.5
6057.61
5995.04
5923.6
5844.33
5759.15
5670.71
5582.29
5497.64
5420.79
5355.96
5305.78
5270.82
5250.37
5243.49
5245.67
5251.41
4853.28
4057.92
3263.38
2471.14
1684.27
1122.65
896.978
784.03
737.842
715.109
686.81
681.473
3167.59
2387.63
1619.19
1084.19
900.496
851.614
799.677
742.423
3548.83
3593.82
3608.08
3550.52
3407.98
3219.91
3030.52
2880.92
2781.99
2733.59
2726.24
2746.26
2767.46
2776.15
2745.95
2678.15
2597.46
2541.36
2512.84
)
;
    }
    atmosphere
    {
        type            calculated;
        value           nonuniform List<scalar> 
46
(
-5.7323
-5.73129
-5.72955
-5.72914
-5.72907
-5.72905
-5.72904
-5.72904
-5.72904
-5.72907
-5.72913
-5.72917
-5.72919
-5.7292
-5.72919
-5.72917
-5.72914
-5.72911
-5.72907
-5.72905
-5.72904
-5.72904
-5.72904
-5.72904
-5.72904
-5.72904
-5.72905
-5.72908
-5.72915
-5.72924
-5.72933
-5.72942
-5.72949
-5.72954
-5.72957
-5.72958
-5.72958
-5.72954
-5.72948
-5.72939
-5.72927
-5.72915
-5.72906
-5.7291
-5.72914
-5.72906
)
;
    }
    defaultFaces
    {
        type            empty;
    }
}


// ************************************************************************* //
