/*--------------------------------*- C++ -*----------------------------------*\
| =========                 |                                                 |
| \\      /  F ield         | OpenFOAM: The Open Source CFD Toolbox           |
|  \\    /   O peration     | Version:  2312                                  |
|   \\  /    A nd           | Website:  www.openfoam.com                      |
|    \\/     M anipulation  |                                                 |
\*---------------------------------------------------------------------------*/
FoamFile
{
    version     2.0;
    format      ascii;
    arch        "LSB;label=32;scalar=64";
    class       surfaceScalarField;
    location    "3.3";
    object      phi;
}
// * * * * * * * * * * * * * * * * * * * * * * * * * * * * * * * * * * * * * //

dimensions      [0 3 -1 0 0 0 0];

oriented        oriented;

internalField   nonuniform List<scalar> 
4432
(
3.29792e-06
-3.29791e-06
5.40022e-06
-2.1023e-06
7.03594e-06
-1.63571e-06
8.23143e-06
-1.19549e-06
9.02478e-06
-7.93349e-07
9.45569e-06
-4.30911e-07
9.58994e-06
-1.34245e-07
9.49123e-06
9.87098e-08
9.20353e-06
2.87697e-07
8.70696e-06
4.96565e-07
8.0079e-06
6.99065e-07
7.12197e-06
8.85925e-07
6.10778e-06
1.01419e-06
5.02561e-06
1.08216e-06
3.94897e-06
1.07664e-06
2.93101e-06
1.01796e-06
2.02945e-06
9.01565e-07
1.28738e-06
7.42064e-07
7.38428e-07
5.48955e-07
2.99563e-07
4.38865e-07
-3.5785e-08
3.35347e-07
-3.1526e-07
2.79474e-07
-3.1526e-07
2.38444e-06
-5.68233e-06
4.48457e-06
-4.2024e-06
6.20534e-06
-3.35647e-06
7.52728e-06
-2.51742e-06
8.45011e-06
-1.71617e-06
8.97722e-06
-9.58015e-07
9.18351e-06
-3.40524e-07
9.14664e-06
1.3558e-07
8.90703e-06
5.27309e-07
8.45317e-06
9.50427e-07
7.78204e-06
1.37018e-06
6.9114e-06
1.75657e-06
5.90095e-06
2.02464e-06
4.83209e-06
2.15102e-06
3.76215e-06
2.14658e-06
2.74982e-06
2.03029e-06
1.85675e-06
1.79464e-06
1.14086e-06
1.45795e-06
6.32607e-07
1.05721e-06
2.34882e-07
8.3659e-07
-7.05822e-08
6.40811e-07
-2.95005e-07
5.03896e-07
-6.10265e-07
1.96352e-06
-7.64584e-06
3.98721e-06
-6.2261e-06
5.71237e-06
-5.08163e-06
7.06972e-06
-3.87476e-06
8.03591e-06
-2.68236e-06
8.60185e-06
-1.52396e-06
8.84629e-06
-5.84971e-07
8.84955e-06
1.32318e-07
8.65824e-06
7.18618e-07
8.24569e-06
1.36298e-06
7.60322e-06
2.01265e-06
6.731e-06
2.6288e-06
5.72448e-06
3.03116e-06
4.66241e-06
3.21309e-06
3.60597e-06
3.20301e-06
2.60469e-06
3.03158e-06
1.72883e-06
2.67049e-06
1.07454e-06
2.11224e-06
6.65277e-07
1.46647e-06
3.50584e-07
1.15128e-06
9.46237e-08
8.96771e-07
-3.30352e-08
6.31555e-07
-6.43301e-07
1.83497e-06
-9.48081e-06
3.82047e-06
-8.21159e-06
5.51817e-06
-6.77932e-06
6.86678e-06
-5.22337e-06
7.81579e-06
-3.63137e-06
8.33898e-06
-2.04715e-06
8.58011e-06
-8.26098e-07
8.6224e-06
9.0026e-08
8.4905e-06
8.50517e-07
8.0977e-06
1.75579e-06
7.44831e-06
2.66204e-06
6.5266e-06
3.55051e-06
5.47252e-06
4.08524e-06
4.40549e-06
4.28012e-06
3.38243e-06
4.22606e-06
2.39263e-06
4.02139e-06
1.53583e-06
3.52729e-06
9.88673e-07
2.6594e-06
7.19956e-07
1.73519e-06
4.85829e-07
1.38541e-06
1.96213e-07
1.18639e-06
2.09162e-08
8.06852e-07
-6.22385e-07
2.00471e-06
-1.14855e-05
4.03623e-06
-1.02431e-05
5.69916e-06
-8.44225e-06
6.98547e-06
-6.50968e-06
7.85748e-06
-4.50338e-06
8.33061e-06
-2.52028e-06
8.52893e-06
-1.02442e-06
8.54172e-06
7.72342e-08
8.4442e-06
9.48038e-07
8.06768e-06
2.13231e-06
7.40363e-06
3.32609e-06
6.3141e-06
4.64003e-06
5.06615e-06
5.33319e-06
3.83019e-06
5.51608e-06
2.69579e-06
5.36047e-06
1.53553e-06
5.18165e-06
6.68337e-07
4.39448e-06
3.23663e-07
3.00407e-06
3.36905e-07
1.72194e-06
3.85052e-07
1.33726e-06
1.97247e-07
1.37419e-06
-1.01155e-08
1.01421e-06
-6.325e-07
2.33234e-06
-1.38179e-05
4.45462e-06
-1.23654e-05
6.08933e-06
-1.0077e-05
7.30908e-06
-7.72943e-06
8.14459e-06
-5.33889e-06
8.57873e-06
-2.95441e-06
8.7174e-06
-1.16309e-06
8.22237e-06
5.72258e-07
7.4468e-06
1.72361e-06
6.78166e-06
2.79745e-06
5.92319e-06
4.18456e-06
4.78431e-06
5.77891e-06
3.65009e-06
6.46741e-06
2.56061e-06
6.60554e-06
1.48239e-06
6.43868e-06
-3.04964e-08
6.69452e-06
-1.70351e-06
6.06748e-06
-3.06029e-06
4.36084e-06
-3.7897e-06
2.45135e-06
-3.65112e-06
1.19867e-06
-2.30028e-06
2.33521e-08
1.61327e-07
-1.44739e-06
-4.71175e-07
2.51233e-06
-1.63302e-05
4.63129e-06
-1.44843e-05
6.1421e-06
-1.15878e-05
7.03714e-06
-8.62446e-06
7.2484e-06
-5.55014e-06
7.78446e-06
-3.49047e-06
8.24827e-06
-1.62689e-06
8.20972e-06
6.10813e-07
7.49352e-06
2.4398e-06
5.84586e-06
4.44509e-06
2.97387e-06
7.05654e-06
-3.96616e-07
9.14938e-06
-4.41415e-06
1.04849e-05
-9.58735e-06
1.17787e-05
-1.54565e-05
1.23078e-05
-2.02205e-05
1.14584e-05
-2.33198e-05
9.16684e-06
-2.36149e-05
4.65591e-06
-2.10431e-05
-1.20514e-07
-1.71048e-05
-2.73956e-06
-1.22149e-05
-4.86656e-06
-6.69094e-06
-6.97139e-06
-7.16212e-06
2.17154e-06
-1.85017e-05
3.83993e-06
-1.61527e-05
5.01465e-06
-1.27625e-05
6.0936e-06
-9.7034e-06
6.31537e-06
-5.77191e-06
3.95752e-06
-1.13262e-06
-2.22375e-06
4.55437e-06
-8.25268e-06
6.63973e-06
-1.12326e-05
5.41973e-06
-1.28839e-05
6.09633e-06
-1.43762e-05
8.5489e-06
-1.60322e-05
1.08053e-05
-1.8144e-05
1.25967e-05
-2.01887e-05
1.38234e-05
-2.28044e-05
1.49236e-05
-2.51744e-05
1.38284e-05
-2.62635e-05
1.02559e-05
-2.44887e-05
2.88111e-06
-2.15718e-05
-3.0374e-06
-1.86318e-05
-5.67961e-06
-1.63969e-05
-7.10138e-06
-1.35841e-05
-9.78428e-06
-2.07462e-05
2.45897e-06
-2.45897e-06
3.73164e-06
-1.27266e-06
3.22283e-06
5.0881e-07
1.62902e-06
1.59381e-06
-7.49794e-07
2.37881e-06
-2.53924e-06
1.78945e-06
-2.9388e-06
3.99559e-07
-2.32976e-06
-6.09043e-07
-1.52349e-06
-8.06273e-07
-6.3662e-07
-8.86865e-07
4.90129e-07
-1.12675e-06
1.99132e-06
-1.50119e-06
3.09489e-06
-1.10357e-06
4.03642e-06
-9.41534e-07
4.71822e-06
-6.81792e-07
4.47567e-06
2.42551e-07
3.12785e-06
1.34781e-06
1.5916e-06
1.53625e-06
1.5916e-06
4.0574e-06
-6.51637e-06
6.05433e-06
-3.26959e-06
5.95528e-06
6.07859e-07
4.23049e-06
3.31861e-06
1.70956e-06
4.89974e-06
1.43727e-07
3.35528e-06
-1.22414e-07
6.65701e-07
2.18205e-07
-9.49662e-07
1.01232e-06
-1.60039e-06
2.07263e-06
-1.94717e-06
2.89984e-06
-1.95395e-06
3.73749e-06
-2.33885e-06
4.45067e-06
-1.81674e-06
4.52827e-06
-1.01913e-06
3.92669e-06
-8.02172e-08
3.15608e-06
1.01317e-06
2.1863e-06
2.31759e-06
1.19809e-06
2.52447e-06
2.7897e-06
3.18831e-06
-9.70467e-06
5.54069e-06
-5.62197e-06
5.93021e-06
2.18341e-07
4.67229e-06
4.57653e-06
2.41947e-06
7.15257e-06
1.64065e-07
5.61068e-06
-5.04013e-07
1.33378e-06
-3.38634e-08
-1.41981e-06
5.78644e-07
-2.2129e-06
1.14717e-06
-2.51571e-06
2.3348e-06
-3.14158e-06
4.20329e-06
-4.20734e-06
4.87971e-06
-2.49316e-06
4.40384e-06
-5.4326e-07
3.10382e-06
1.21981e-06
2.09327e-06
2.02371e-06
1.61097e-06
2.79989e-06
6.49143e-07
3.4863e-06
3.43884e-06
1.29481e-06
-1.09995e-05
3.86452e-06
-8.19167e-06
4.22343e-06
-1.40564e-07
4.56253e-06
4.23744e-06
5.7031e-06
6.012e-06
7.14447e-06
4.16933e-06
8.35152e-06
1.26736e-07
8.11358e-06
-1.18187e-06
4.39473e-06
1.50597e-06
-9.28146e-07
2.80718e-06
-1.76074e-06
-2.30897e-06
4.21693e-06
-1.0185e-05
8.50226e-06
-6.77848e-06
9.27209e-06
-1.31307e-06
8.46612e-06
2.02579e-06
6.99239e-06
3.49747e-06
3.11807e-06
6.67423e-06
-6.62429e-07
7.26683e-06
2.77644e-06
-2.44055e-06
-8.5589e-06
-3.60183e-06
-7.03038e-06
-5.01304e-06
1.27065e-06
-5.0249e-06
4.24929e-06
-1.82997e-06
2.81706e-06
2.51122e-06
-1.71858e-07
9.36939e-06
-6.73144e-06
1.59578e-05
-7.77023e-06
1.1839e-05
5.62475e-06
8.95722e-07
1.37504e-05
-1.7436e-06
3.30349e-07
2.02568e-06
-1.39543e-05
6.29282e-06
-1.10456e-05
8.2507e-06
-3.27095e-06
7.01393e-06
3.26256e-06
4.5086e-06
6.00279e-06
2.0826e-06
9.10023e-06
1.11405e-06
8.23538e-06
3.89047e-06
-1.0435e-05
1.87612e-06
-2.06761e-05
3.21076e-06
-2.15676e-05
2.16216e-06
-1.62952e-05
-1.02315e-06
-8.7277e-06
-4.75039e-06
-1.81398e-06
-7.08557e-06
3.32876e-06
-1.18742e-05
1.0017e-05
-1.44584e-05
1.53095e-05
3.32196e-07
9.06354e-06
1.99964e-05
4.4748e-06
4.9191e-06
2.41261e-06
-1.18921e-05
1.20617e-06
-9.83917e-06
2.01058e-07
-2.26583e-06
-1.03533e-06
4.49897e-06
-1.62291e-06
6.59039e-06
-8.97128e-07
8.37447e-06
2.62825e-07
7.07544e-06
4.15333e-06
-1.39823e-05
1.58584e-05
-2.21755e-05
1.1404e-05
-2.25869e-05
2.57361e-06
-1.66326e-05
-6.9775e-06
-9.02514e-06
-1.23578e-05
-3.5454e-06
-1.25653e-05
-5.87653e-07
-1.48319e-05
3.041e-06
-1.80871e-05
1.18108e-05
-8.43755e-06
1.35616e-05
1.82456e-05
1.08138e-05
7.66693e-06
3.6865e-06
-4.76482e-06
-3.57519e-06
-2.57745e-06
-8.05615e-06
2.21515e-06
-8.62869e-06
5.07153e-06
-7.79283e-06
5.75456e-06
-5.76376e-06
6.34542e-06
-3.62866e-06
4.94037e-06
5.24677e-07
-1.35814e-05
2.94398e-05
-1.93129e-05
1.71356e-05
-1.81986e-05
1.45933e-06
-1.22682e-05
-1.29079e-05
-5.98928e-06
-1.86368e-05
-2.24159e-06
-1.6313e-05
-3.60348e-07
-1.67131e-05
2.91604e-07
-1.8739e-05
7.37065e-06
-1.55166e-05
1.4061e-05
1.15553e-05
1.31046e-05
8.62331e-06
3.44216e-06
4.89766e-06
-7.71476e-06
8.57947e-06
-1.21705e-05
6.67089e-06
-1.25682e-05
5.46928e-06
-1.15805e-05
4.76686e-06
-9.69743e-06
4.46233e-06
-7.09742e-06
2.34037e-06
-6.57272e-06
-1.15125e-06
-1.73505e-05
-4.20521e-06
-1.30988e-05
-1.12876e-05
-5.68011e-06
-1.99331e-05
-1.05793e-06
-2.65046e-05
7.99676e-07
-3.07995e-05
3.1622e-06
-3.29237e-05
6.6786e-06
-3.32746e-05
6.99064e-06
-3.42647e-05
6.40985e-06
-3.56685e-05
7.50009e-06
-3.66727e-05
9.55315e-06
-3.79856e-05
1.21182e-05
-3.99338e-05
1.45449e-05
-4.20803e-05
1.59699e-05
-4.44791e-05
1.73224e-05
-4.7726e-05
1.70754e-05
-4.88902e-05
1.14201e-05
-4.83379e-05
2.32884e-06
-4.76356e-05
-3.73973e-06
-4.61031e-05
-7.21218e-06
-4.33974e-05
-9.80702e-06
-3.84464e-05
-1.47353e-05
-1.93332e-05
-3.98594e-05
-9.80232e-06
-7.54815e-06
-1.79198e-05
-4.98129e-06
-2.37355e-05
1.35589e-07
-2.74575e-05
2.66407e-06
-2.87349e-05
2.07706e-06
-2.90662e-05
3.4935e-06
-2.85014e-05
6.11383e-06
-2.84563e-05
6.94544e-06
-2.92257e-05
7.17926e-06
-2.94248e-05
7.69917e-06
-2.95309e-05
9.65927e-06
-3.10491e-05
1.36364e-05
-3.34757e-05
1.69715e-05
-3.60652e-05
1.85594e-05
-3.95388e-05
2.0796e-05
-4.49414e-05
2.2478e-05
-5.10044e-05
1.7483e-05
-5.78352e-05
9.15966e-06
-6.35168e-05
1.94194e-06
-6.79104e-05
-2.81865e-06
-6.93037e-05
-8.41373e-06
-6.83534e-05
-1.56856e-05
-1.93902e-05
-6.82964e-05
-8.00349e-06
4.55338e-07
-1.49452e-05
1.96045e-06
-1.75743e-05
2.76462e-06
-1.83938e-05
3.48359e-06
-2.07177e-05
4.40098e-06
-2.35136e-05
6.28935e-06
-2.55028e-05
8.10308e-06
-2.74048e-05
8.84746e-06
-2.85302e-05
8.30464e-06
-2.75187e-05
6.68765e-06
-2.74812e-05
9.62176e-06
-2.93072e-05
1.54624e-05
-3.26389e-05
2.03032e-05
-3.6684e-05
2.26045e-05
-4.14686e-05
2.55807e-05
-4.74863e-05
2.84956e-05
-5.54216e-05
2.54183e-05
-6.42038e-05
1.79418e-05
-7.30422e-05
1.07804e-05
-7.87891e-05
2.92823e-06
-8.08455e-05
-6.3573e-06
-8.03461e-05
-1.6185e-05
-2.25682e-05
-7.71682e-05
-9.7231e-06
1.01785e-05
-1.97821e-05
1.20195e-05
-2.73152e-05
1.02978e-05
-3.1655e-05
7.82337e-06
-3.42674e-05
7.0134e-06
-3.60629e-05
8.08477e-06
-3.74581e-05
9.49827e-06
-3.88279e-05
1.02173e-05
-3.88024e-05
8.27917e-06
-3.81548e-05
6.04006e-06
-3.86523e-05
1.01193e-05
-3.99521e-05
1.67622e-05
-4.2007e-05
2.2358e-05
-4.45581e-05
2.51556e-05
-4.66769e-05
2.76995e-05
-4.83676e-05
3.01864e-05
-5.18605e-05
2.89112e-05
-5.84881e-05
2.45694e-05
-6.69085e-05
1.92008e-05
-7.25233e-05
8.54303e-06
-7.4204e-05
-4.67662e-06
-7.37525e-05
-1.66365e-05
-2.52852e-05
-7.10355e-05
-2.66836e-05
3.68621e-05
-4.646e-05
3.17958e-05
-5.74308e-05
2.12687e-05
-6.16889e-05
1.20814e-05
-6.23806e-05
7.70502e-06
-6.251e-05
8.21423e-06
-6.29497e-05
9.93797e-06
-6.23991e-05
9.66659e-06
-6.1146e-05
7.02608e-06
-6.10613e-05
5.95543e-06
-6.00971e-05
9.155e-06
-5.81992e-05
1.48643e-05
-5.60045e-05
2.01633e-05
-5.43639e-05
2.3515e-05
-5.25612e-05
2.58968e-05
-5.0013e-05
2.76382e-05
-4.89638e-05
2.7862e-05
-5.10471e-05
2.66527e-05
-5.27822e-05
2.0936e-05
-5.35589e-05
9.31978e-06
-5.44416e-05
-3.79395e-06
-5.52913e-05
-1.57868e-05
-2.46157e-05
-5.59608e-05
-4.02026e-05
7.70648e-05
-6.47757e-05
5.63689e-05
-7.5262e-05
3.1755e-05
-7.96519e-05
1.64714e-05
-8.16485e-05
9.70169e-06
-8.24112e-05
8.97696e-06
-8.19334e-05
9.46012e-06
-8.07367e-05
8.4699e-06
-8.04932e-05
6.78261e-06
-8.06786e-05
6.14084e-06
-7.91155e-05
7.59189e-06
-7.50543e-05
1.08031e-05
-6.94392e-05
1.45483e-05
-6.36631e-05
1.77389e-05
-5.81223e-05
2.03559e-05
-5.27017e-05
2.22176e-05
-4.77784e-05
2.29386e-05
-4.26475e-05
2.15218e-05
-3.77278e-05
1.60163e-05
-3.49872e-05
6.57917e-06
-3.53029e-05
-3.47825e-06
-3.79112e-05
-1.31785e-05
-2.18587e-05
-4.06681e-05
-4.96995e-05
0.000126765
-8.38969e-05
9.05665e-05
-9.51583e-05
4.30163e-05
-9.60387e-05
1.73519e-05
-9.44129e-05
8.07585e-06
-9.22151e-05
6.77915e-06
-8.97983e-05
7.04333e-06
-8.8078e-05
6.74963e-06
-8.71429e-05
5.84749e-06
-8.60585e-05
5.05649e-06
-8.36855e-05
5.21888e-06
-7.94807e-05
6.59829e-06
-7.36136e-05
8.68117e-06
-6.66838e-05
1.08091e-05
-5.90327e-05
1.27048e-05
-5.09207e-05
1.41056e-05
-4.24317e-05
1.44496e-05
-3.39217e-05
1.30119e-05
-2.67672e-05
8.86181e-06
-2.27517e-05
2.56371e-06
-2.23196e-05
-3.91043e-06
-2.50203e-05
-1.04778e-05
-1.78064e-05
-2.90725e-05
-2.71053e-05
0.00015387
-6.04367e-05
0.000123898
-9.54332e-05
7.80129e-05
-0.000113859
3.57757e-05
-0.000115309
9.52576e-06
-0.000102287
-6.24277e-06
-9.49877e-05
-2.56263e-07
-9.1222e-05
2.98385e-06
-8.86804e-05
3.30598e-06
-8.58577e-05
2.23375e-06
-8.19617e-05
1.32292e-06
-7.67798e-05
1.41639e-06
-7.0343e-05
2.24434e-06
-6.2792e-05
3.2581e-06
-5.43904e-05
4.30328e-06
-4.53091e-05
5.02433e-06
-3.5821e-05
4.96145e-06
-2.6617e-05
3.80783e-06
-1.93404e-05
1.58522e-06
-1.55205e-05
-1.25619e-06
-1.5114e-05
-4.31695e-06
-1.74677e-05
-8.12413e-06
-1.33531e-05
-2.1921e-05
1.09445e-05
0.000142925
2.10683e-05
0.000113775
-1.24534e-05
0.000111536
-6.21831e-05
8.55053e-05
-0.000106019
5.33601e-05
-0.000138737
2.64744e-05
-0.000124962
-1.40314e-05
-0.0001111
-1.08795e-05
-0.000102421
-5.37289e-06
-9.44179e-05
-5.77019e-06
-8.5702e-05
-7.39322e-06
-7.68405e-05
-7.44521e-06
-6.82379e-05
-6.35829e-06
-5.90762e-05
-5.90359e-06
-4.98255e-05
-4.94738e-06
-4.07334e-05
-4.06776e-06
-3.17771e-05
-3.99478e-06
-2.34426e-05
-4.52667e-06
-1.72957e-05
-4.56166e-06
-1.52078e-05
-3.34402e-06
-1.72481e-05
-2.27671e-06
-2.22032e-05
-3.16903e-06
-7.23161e-06
-2.83247e-05
2.51803e-05
0.000117747
4.16903e-05
9.72661e-05
4.74398e-05
0.000105787
3.86109e-05
9.43364e-05
2.27e-05
6.92724e-05
2.91199e-06
4.62626e-05
-2.85253e-05
1.74058e-05
-4.46762e-05
5.27154e-06
-5.5729e-05
5.67993e-06
-6.73532e-05
5.85393e-06
-8.20027e-05
7.25626e-06
-9.64923e-05
7.04439e-06
-9.19152e-05
-1.09353e-05
-7.65591e-05
-2.12597e-05
-6.03874e-05
-2.1119e-05
-4.5901e-05
-1.8554e-05
-3.27972e-05
-1.70984e-05
-2.7607e-05
-9.71664e-06
-5.40409e-05
2.18722e-05
-9.39205e-05
3.65354e-05
-0.000100629
4.43199e-06
-9.4544e-05
-9.25439e-06
-1.93907e-05
-8.23848e-05
2.50271e-05
9.27197e-05
3.94712e-05
8.28219e-05
5.842e-05
8.68381e-05
6.88304e-05
8.39271e-05
7.17331e-05
6.63718e-05
6.77058e-05
5.02905e-05
5.4529e-05
3.05833e-05
4.09362e-05
1.88654e-05
3.02037e-05
1.64134e-05
2.30163e-05
1.3042e-05
1.94924e-05
1.07805e-05
1.79872e-05
8.54972e-06
1.04267e-05
-3.37478e-06
5.74001e-07
-1.1407e-05
-7.81458e-06
-1.27304e-05
-1.82929e-05
-8.07556e-06
-3.41163e-05
-1.27468e-06
-5.83737e-05
1.45412e-05
-8.18832e-05
4.53819e-05
-9.91063e-05
5.37583e-05
-0.000104732
1.00577e-05
-0.00010272
-1.12658e-05
-2.35271e-05
-9.85847e-05
2.32808e-05
6.94382e-05
3.98848e-05
6.62173e-05
5.89194e-05
6.78032e-05
7.52784e-05
6.7568e-05
8.23131e-05
5.9337e-05
8.53381e-05
4.72658e-05
8.21372e-05
3.37846e-05
7.65875e-05
2.44152e-05
7.34723e-05
1.95287e-05
7.07909e-05
1.57236e-05
6.90294e-05
1.25421e-05
6.9106e-05
8.47328e-06
6.45539e-05
1.17731e-06
5.67853e-05
-3.63832e-06
4.85006e-05
-4.44556e-06
4.09427e-05
-5.17678e-07
3.19278e-05
7.74027e-06
2.41366e-05
2.23326e-05
2.65168e-05
4.30022e-05
2.08113e-05
5.94639e-05
-7.60918e-06
3.8478e-05
-2.55678e-05
6.69287e-06
-1.35549e-05
-3.554e-05
1.93751e-05
5.00626e-05
3.46884e-05
5.09035e-05
4.99331e-05
5.25581e-05
6.51298e-05
5.23709e-05
7.63865e-05
4.80801e-05
8.29877e-05
4.06644e-05
8.49426e-05
3.18295e-05
8.48404e-05
2.45173e-05
8.47467e-05
1.96224e-05
8.45442e-05
1.59262e-05
8.43832e-05
1.27031e-05
8.36096e-05
9.247e-06
7.97022e-05
5.08472e-06
7.3956e-05
2.10799e-06
6.81655e-05
1.3451e-06
6.37853e-05
3.86273e-06
6.1533e-05
9.99269e-06
6.44734e-05
1.93924e-05
7.70677e-05
3.0408e-05
9.70395e-05
3.94923e-05
0.000104967
3.05507e-05
0.000101322
1.03379e-05
-5.4152e-06
9.31826e-05
1.38907e-05
3.61715e-05
2.58449e-05
3.89489e-05
3.7383e-05
4.10196e-05
4.94164e-05
4.03372e-05
5.98491e-05
3.76472e-05
6.72187e-05
3.32946e-05
7.14609e-05
2.75872e-05
7.38685e-05
2.21096e-05
7.57918e-05
1.7699e-05
7.72001e-05
1.45179e-05
7.75594e-05
1.23438e-05
7.66204e-05
1.01861e-05
7.42375e-05
7.4677e-06
7.12069e-05
5.13876e-06
6.86027e-05
3.94939e-06
6.76476e-05
4.81797e-06
6.96913e-05
7.94912e-06
7.68422e-05
1.22416e-05
9.04061e-05
1.68443e-05
0.000109115
2.07834e-05
0.000122125
1.75416e-05
0.000124416
8.04687e-06
-1.74788e-06
0.000120749
9.12345e-06
2.70479e-05
1.75188e-05
3.05534e-05
2.54921e-05
3.30463e-05
3.32159e-05
3.26132e-05
4.00267e-05
3.08362e-05
4.4918e-05
2.84033e-05
4.80688e-05
2.44364e-05
5.11814e-05
1.8997e-05
5.42455e-05
1.46349e-05
5.6769e-05
1.19945e-05
5.75641e-05
1.15488e-05
5.69483e-05
1.0802e-05
5.53814e-05
9.0347e-06
5.35056e-05
7.01467e-06
5.24461e-05
5.00905e-06
5.32851e-05
3.97913e-06
5.72762e-05
3.95811e-06
6.57385e-05
3.7794e-06
7.87032e-05
3.87966e-06
9.43309e-05
5.15585e-06
0.000107106
4.76701e-06
0.000113475
1.67778e-06
-2.89125e-06
0.000114618
5.39343e-06
2.16545e-05
1.05891e-05
2.53577e-05
1.54995e-05
2.81358e-05
1.95796e-05
2.85333e-05
2.27661e-05
2.76497e-05
2.48935e-05
2.62761e-05
2.61404e-05
2.31895e-05
2.83501e-05
1.67873e-05
3.12733e-05
1.17118e-05
3.40477e-05
9.2202e-06
3.5025e-05
1.05716e-05
3.47892e-05
1.10379e-05
3.34429e-05
1.03811e-05
3.21395e-05
8.31816e-06
3.18008e-05
5.34781e-06
3.28413e-05
2.93883e-06
3.56723e-05
1.12718e-06
4.14701e-05
-2.01829e-06
5.11336e-05
-5.78382e-06
6.44457e-05
-8.15614e-06
7.77854e-05
-8.57268e-06
8.7321e-05
-7.85787e-06
-7.36486e-06
9.17947e-05
2.84854e-06
1.88061e-05
5.78517e-06
2.24212e-05
8.66856e-06
2.52526e-05
1.1015e-05
2.61869e-05
1.28123e-05
2.58525e-05
1.43039e-05
2.47845e-05
1.56296e-05
2.18639e-05
1.62028e-05
1.62142e-05
1.66668e-05
1.12479e-05
1.7232e-05
8.65517e-06
1.80826e-05
9.72119e-06
1.86837e-05
1.04369e-05
1.89325e-05
1.01325e-05
1.96544e-05
7.59638e-06
2.08053e-05
4.19706e-06
2.24498e-05
1.29438e-06
2.48326e-05
-1.25545e-06
2.78736e-05
-5.05923e-06
3.16639e-05
-9.57412e-06
3.76019e-05
-1.4094e-05
4.62604e-05
-1.72312e-05
5.55434e-05
-1.71409e-05
-1.44145e-05
6.25931e-05
1.41299e-06
1.73933e-05
3.13172e-06
2.07027e-05
5.087e-06
2.32974e-05
6.91166e-06
2.43623e-05
8.59857e-06
2.41657e-05
1.03456e-05
2.30376e-05
1.18075e-05
2.04022e-05
1.19602e-05
1.60616e-05
1.11557e-05
1.20526e-05
1.03191e-05
9.49186e-06
1.08077e-05
9.2327e-06
1.21362e-05
9.10852e-06
1.39041e-05
8.36476e-06
1.55834e-05
5.91718e-06
1.68715e-05
2.90903e-06
1.82996e-05
-1.33542e-07
2.01957e-05
-3.15147e-06
2.19352e-05
-6.79873e-06
2.33358e-05
-1.09747e-05
2.45972e-05
-1.53553e-05
2.67671e-05
-1.94011e-05
3.11352e-05
-2.1509e-05
-1.99524e-05
3.6673e-05
6.61758e-07
1.67317e-05
1.78245e-06
1.95821e-05
3.34087e-06
2.17392e-05
5.10086e-06
2.26025e-05
6.93402e-06
2.23327e-05
8.84515e-06
2.11266e-05
1.04211e-05
1.88264e-05
1.09921e-05
1.54908e-05
1.07318e-05
1.2313e-05
1.02709e-05
9.95284e-06
1.0733e-05
8.7707e-06
1.20679e-05
7.77378e-06
1.40142e-05
6.41854e-06
1.58092e-05
4.1223e-06
1.72464e-05
1.4719e-06
1.83399e-05
-1.22692e-06
1.92982e-05
-4.10967e-06
1.98072e-05
-7.30766e-06
1.96968e-05
-1.08642e-05
1.89665e-05
-1.4625e-05
1.7822e-05
-1.82567e-05
1.74543e-05
-2.11413e-05
-2.17682e-05
1.92701e-05
1.92815e-07
1.65391e-05
9.50817e-07
1.88243e-05
2.24301e-06
2.04471e-05
3.92949e-06
2.09161e-05
5.83413e-06
2.04282e-05
7.80837e-06
1.91525e-05
9.54913e-06
1.70857e-05
1.06162e-05
1.44238e-05
1.11251e-05
1.18042e-05
1.14504e-05
9.62764e-06
1.22082e-05
8.01303e-06
1.34553e-05
6.52678e-06
1.50335e-05
4.84045e-06
1.64264e-05
2.7295e-06
1.74738e-05
4.24663e-07
1.82201e-05
-1.97319e-06
1.86066e-05
-4.49604e-06
1.85204e-05
-7.22142e-06
1.77975e-05
-1.01412e-05
1.63579e-05
-1.31854e-05
1.42698e-05
-1.61685e-05
1.18879e-05
-1.87594e-05
-2.03892e-05
1.05088e-05
-1.28673e-07
1.66678e-05
2.47666e-07
1.8448e-05
1.21528e-06
1.94796e-05
2.69294e-06
1.94386e-05
4.47253e-06
1.86487e-05
6.37415e-06
1.7251e-05
8.14033e-06
1.53196e-05
9.52639e-06
1.30378e-05
1.05509e-05
1.07798e-05
1.14214e-05
8.75722e-06
1.24205e-05
7.01409e-06
1.35824e-05
5.36499e-06
1.47955e-05
3.62744e-06
1.58186e-05
1.70647e-06
1.65458e-05
-3.02435e-07
1.69904e-05
-2.41767e-06
1.71103e-05
-4.61588e-06
1.67942e-05
-6.90526e-06
1.59482e-05
-9.29512e-06
1.44731e-05
-1.17103e-05
1.23577e-05
-1.40531e-05
9.74781e-06
-1.61494e-05
-1.77035e-05
7.06207e-06
-4.74785e-07
1.71428e-05
-4.99625e-07
1.8473e-05
1.20434e-07
1.88597e-05
1.27974e-06
1.82794e-05
2.78552e-06
1.7143e-05
4.48388e-06
1.55527e-05
6.15868e-06
1.36449e-05
7.63494e-06
1.15617e-05
8.90472e-06
9.51011e-06
1.00459e-05
7.61613e-06
1.11656e-05
5.89449e-06
1.22721e-05
4.25864e-06
1.32903e-05
2.60925e-06
1.41062e-05
8.9066e-07
1.46848e-05
-8.8092e-07
1.49937e-05
-2.72652e-06
1.49879e-05
-4.60997e-06
1.46253e-05
-6.54258e-06
1.38243e-05
-8.4941e-06
1.25254e-05
-1.04113e-05
1.07094e-05
-1.22371e-05
8.42019e-06
-1.38602e-05
-1.50961e-05
5.81287e-06
-8.12562e-07
1.79554e-05
-1.17924e-06
1.88398e-05
-9.15786e-07
1.85963e-05
-1.44494e-07
1.75082e-05
1.02414e-06
1.59745e-05
2.44536e-06
1.41316e-05
3.94706e-06
1.21433e-05
5.40306e-06
1.01058e-05
6.7584e-06
8.15486e-06
8.01904e-06
6.35559e-06
9.20179e-06
4.71184e-06
1.02873e-05
3.1732e-06
1.12284e-05
1.66829e-06
1.19636e-05
1.55503e-07
1.24747e-05
-1.39196e-06
1.272e-05
-2.97171e-06
1.26876e-05
-4.57748e-06
1.23396e-05
-6.19454e-06
1.16305e-05
-7.78494e-06
1.05374e-05
-9.31806e-06
9.05423e-06
-1.0754e-05
7.19733e-06
-1.20032e-05
-1.29586e-05
5.05983e-06
-1.13066e-06
1.90862e-05
-1.83346e-06
1.95427e-05
-1.92671e-06
1.86896e-05
-1.49536e-06
1.70769e-05
-6.35396e-07
1.51146e-05
5.15522e-07
1.29808e-05
1.85278e-06
1.08061e-05
3.2501e-06
8.70854e-06
4.63547e-06
6.76957e-06
5.95829e-06
5.03286e-06
7.18178e-06
3.48844e-06
8.2738e-06
2.08127e-06
9.18443e-06
7.57747e-07
9.88645e-06
-5.46433e-07
1.03536e-05
-1.85904e-06
1.05765e-05
-3.19457e-06
1.05288e-05
-4.52965e-06
1.01994e-05
-5.86508e-06
9.58074e-06
-7.16625e-06
8.6668e-06
-8.40407e-06
7.4502e-06
-9.53732e-06
5.96928e-06
-1.05224e-05
-1.12713e-05
4.28203e-06
-1.42424e-06
2.05105e-05
-2.43242e-06
2.05509e-05
-2.84573e-06
1.9103e-05
-2.72038e-06
1.69516e-05
-2.13328e-06
1.45275e-05
-1.18469e-06
1.20323e-05
1.42674e-08
9.60726e-06
1.36284e-06
7.36005e-06
2.77073e-06
5.36177e-06
4.14769e-06
3.65598e-06
5.42106e-06
2.21515e-06
6.5275e-06
9.74913e-07
7.43325e-06
-1.47924e-07
8.10321e-06
-1.21631e-06
8.53456e-06
-2.29032e-06
8.71381e-06
-3.37376e-06
8.65577e-06
-4.47154e-06
8.34799e-06
-5.55725e-06
7.79617e-06
-6.61439e-06
7.00676e-06
-7.61462e-06
6.00016e-06
-8.53073e-06
4.79302e-06
-9.31515e-06
-9.91681e-06
3.43846e-06
-1.68279e-06
2.21933e-05
-2.96183e-06
2.183e-05
-3.65514e-06
1.97964e-05
-3.79429e-06
1.70909e-05
-3.43342e-06
1.41667e-05
-2.651e-06
1.12499e-05
-1.54177e-06
8.49811e-06
-2.12333e-07
6.03069e-06
1.21947e-06
3.93005e-06
2.65639e-06
2.21915e-06
3.98209e-06
8.89517e-07
5.11737e-06
-1.60289e-07
6.01743e-06
-1.04791e-06
6.66897e-06
-1.86778e-06
7.06374e-06
-2.68502e-06
7.21613e-06
-3.52609e-06
7.13063e-06
-4.38598e-06
6.82904e-06
-5.25561e-06
6.32213e-06
-6.10743e-06
5.62655e-06
-6.91902e-06
4.75497e-06
-7.6591e-06
3.7391e-06
-8.29937e-06
-8.79769e-06
2.62002e-06
-1.88994e-06
2.40833e-05
-3.39336e-06
2.33335e-05
-4.32183e-06
2.07249e-05
-4.679e-06
1.74481e-05
-4.49434e-06
1.39822e-05
-3.83008e-06
1.05857e-05
-2.77598e-06
7.44408e-06
-1.44467e-06
4.69946e-06
3.14277e-08
2.45402e-06
1.5106e-06
7.40046e-07
2.88096e-06
-4.8077e-07
4.04129e-06
-1.32056e-06
4.93973e-06
-1.94628e-06
5.56786e-06
-2.49584e-06
5.9295e-06
-3.04661e-06
6.0393e-06
-3.63583e-06
5.93572e-06
-4.28236e-06
5.63023e-06
-4.95007e-06
5.14709e-06
-5.62425e-06
4.50717e-06
-6.27908e-06
3.73055e-06
-6.88249e-06
2.84394e-06
-7.41265e-06
-7.83235e-06
1.87855e-06
-2.02024e-06
2.61036e-05
-3.68557e-06
2.49989e-05
-4.79391e-06
2.18333e-05
-5.31439e-06
1.79686e-05
-5.24935e-06
1.39172e-05
-4.65126e-06
9.9877e-06
-3.61494e-06
6.40783e-06
-2.26159e-06
3.34618e-06
-7.43124e-07
9.35619e-07
7.63983e-07
-7.66996e-07
2.13356e-06
-1.85028e-06
3.28747e-06
-2.4744e-06
4.17171e-06
-2.83047e-06
4.7674e-06
-3.09148e-06
5.08889e-06
-3.36805e-06
5.16439e-06
-3.71128e-06
5.02232e-06
-4.14025e-06
4.70172e-06
-4.62943e-06
4.23079e-06
-5.1533e-06
3.62541e-06
-5.67369e-06
2.90988e-06
-6.16691e-06
2.10332e-06
-6.60622e-06
-6.96463e-06
1.23562e-06
-2.046e-06
2.81496e-05
-3.79226e-06
2.67452e-05
-5.01193e-06
2.3053e-05
-5.63598e-06
1.85927e-05
-5.62864e-06
1.39099e-05
-5.04374e-06
9.40286e-06
-3.98831e-06
5.35246e-06
-2.59698e-06
1.9549e-06
-1.0713e-06
-5.90003e-07
4.07121e-07
-2.24536e-06
1.73334e-06
-3.17645e-06
2.83233e-06
-3.57334e-06
3.66651e-06
-3.6646e-06
4.21677e-06
-3.64169e-06
4.48912e-06
-3.64035e-06
4.52291e-06
-3.74504e-06
4.34817e-06
-3.96548e-06
4.00521e-06
-4.28644e-06
3.52563e-06
-4.6737e-06
2.93557e-06
-5.08363e-06
2.2553e-06
-5.48668e-06
1.50277e-06
-5.85358e-06
-6.16053e-06
6.98596e-07
-1.94483e-06
3.00945e-05
-3.66893e-06
2.84693e-05
-4.92129e-06
2.43054e-05
-5.58649e-06
1.9258e-05
-5.59994e-06
1.39234e-05
-4.99405e-06
8.79701e-06
-3.88082e-06
4.23928e-06
-2.45798e-06
5.32115e-07
-9.70739e-07
-2.07719e-06
4.29075e-07
-3.64513e-06
1.64285e-06
-4.39018e-06
2.63443e-06
-4.56488e-06
3.38354e-06
-4.41367e-06
3.86901e-06
-4.12712e-06
4.09151e-06
-3.86282e-06
4.07134e-06
-3.72485e-06
3.85524e-06
-3.74935e-06
3.4805e-06
-3.91169e-06
2.98381e-06
-4.17699e-06
2.39639e-06
-4.4962e-06
1.7361e-06
-4.82635e-06
1.01656e-06
-5.13415e-06
-5.39553e-06
2.51607e-07
-1.70118e-06
3.17957e-05
-3.28424e-06
3.00524e-05
-4.4801e-06
2.55013e-05
-5.12668e-06
1.99046e-05
-5.14494e-06
1.39417e-05
-4.51576e-06
8.16787e-06
-3.33924e-06
3.0628e-06
-1.92958e-06
-8.77504e-07
-5.24206e-07
-3.48253e-06
7.38697e-07
-4.90799e-06
1.78473e-06
-5.43618e-06
2.62324e-06
-5.40336e-06
3.24793e-06
-5.03833e-06
3.6498e-06
-4.52896e-06
3.81397e-06
-4.02696e-06
3.75349e-06
-3.66436e-06
3.49559e-06
-3.49143e-06
3.09116e-06
-3.50725e-06
2.57288e-06
-3.6587e-06
1.97838e-06
-3.9017e-06
1.32411e-06
-4.17211e-06
6.23804e-07
-4.43373e-06
-4.65937e-06
-1.12389e-07
-1.31524e-06
3.3111e-05
-2.62976e-06
3.13669e-05
-3.66571e-06
2.65373e-05
-4.24996e-06
2.04888e-05
-4.25519e-06
1.3947e-05
-3.63518e-06
7.54789e-06
-2.44406e-06
1.87171e-06
-1.09248e-06
-2.22906e-06
1.64202e-07
-4.73918e-06
1.2274e-06
-5.97117e-06
2.06653e-06
-6.27528e-06
2.71029e-06
-6.0471e-06
3.19124e-06
-5.51926e-06
3.49414e-06
-4.83184e-06
3.60526e-06
-4.13807e-06
3.50868e-06
-3.56778e-06
3.22362e-06
-3.20636e-06
2.79147e-06
-3.0751e-06
2.25769e-06
-3.12492e-06
1.64993e-06
-3.29393e-06
9.97386e-07
-3.51954e-06
3.10343e-07
-3.74682e-06
-3.94354e-06
-4.05454e-07
-8.09872e-07
3.39208e-05
-1.72667e-06
3.22837e-05
-2.48747e-06
2.72981e-05
-2.94408e-06
2.09455e-05
-2.92366e-06
1.39266e-05
-2.35078e-06
6.97502e-06
-1.22668e-06
7.47633e-07
-4.32104e-08
-3.41251e-06
9.4792e-07
-5.7303e-06
1.75486e-06
-6.7781e-06
2.35942e-06
-6.87984e-06
2.79929e-06
-6.48697e-06
3.10856e-06
-5.82853e-06
3.30601e-06
-5.02929e-06
3.37003e-06
-4.20209e-06
3.26387e-06
-3.46162e-06
2.98239e-06
-2.92489e-06
2.54498e-06
-2.6377e-06
2.00101e-06
-2.58097e-06
1.38821e-06
-2.68114e-06
7.3801e-07
-2.86941e-06
6.32572e-08
-3.07199e-06
-3.24976e-06
-6.3061e-07
-2.47349e-07
3.41682e-05
-6.40985e-07
3.26774e-05
-1.01434e-06
2.76715e-05
-1.1905e-06
2.11216e-05
-1.04481e-06
1.37809e-05
-5.13639e-07
6.44385e-06
2.87169e-07
-5.31716e-08
1.07283e-06
-4.19817e-06
1.70173e-06
-6.3592e-06
2.21573e-06
-7.2921e-06
2.57341e-06
-7.23752e-06
2.79851e-06
-6.71208e-06
2.94034e-06
-5.97036e-06
3.0264e-06
-5.11536e-06
3.04334e-06
-4.21905e-06
2.95327e-06
-3.37158e-06
2.70748e-06
-2.67912e-06
2.3044e-06
-2.23464e-06
1.7755e-06
-2.0521e-06
1.17314e-06
-2.07882e-06
5.29927e-07
-2.22619e-06
-1.28353e-07
-2.41386e-06
-2.58056e-06
-7.97551e-07
3.21717e-07
3.38465e-05
5.03607e-07
3.24955e-05
6.43428e-07
2.75317e-05
9.24914e-07
2.08401e-05
1.35299e-06
1.33528e-05
1.78032e-06
6.01651e-06
2.02377e-06
-2.96635e-07
2.22658e-06
-4.40099e-06
2.4297e-06
-6.56234e-06
2.58526e-06
-7.44767e-06
2.65664e-06
-7.30892e-06
2.65553e-06
-6.71099e-06
2.62708e-06
-5.94195e-06
2.60414e-06
-5.09244e-06
2.58567e-06
-4.20061e-06
2.52507e-06
-3.31102e-06
2.35397e-06
-2.50805e-06
2.02652e-06
-1.90723e-06
1.55528e-06
-1.5809e-06
9.84086e-07
-1.50766e-06
3.63603e-07
-1.60578e-06
-2.72112e-07
-1.77808e-06
-1.94106e-06
-9.11693e-07
8.14112e-07
3.30324e-05
1.56253e-06
3.1747e-05
2.27736e-06
2.68168e-05
3.06253e-06
2.0055e-05
3.78169e-06
1.26336e-05
4.11915e-06
5.67903e-06
3.89926e-06
-7.67655e-08
3.50781e-06
-4.00956e-06
3.18041e-06
-6.23497e-06
2.87759e-06
-7.14488e-06
2.60298e-06
-7.03433e-06
2.35443e-06
-6.46247e-06
2.15556e-06
-5.74311e-06
2.02795e-06
-4.96488e-06
1.97495e-06
-4.14765e-06
1.95312e-06
-3.28923e-06
1.88193e-06
-2.43691e-06
1.6759e-06
-1.70123e-06
1.30245e-06
-1.2075e-06
7.98963e-07
-1.00422e-06
2.20194e-07
-1.02704e-06
-3.83839e-07
-1.17423e-06
-1.34174e-06
-9.832e-07
1.19009e-06
3.18422e-05
2.4203e-06
3.05168e-05
3.63505e-06
2.56021e-05
4.83301e-06
1.8857e-05
5.73026e-06
1.17364e-05
5.98878e-06
5.42049e-06
5.49896e-06
4.13024e-07
4.67206e-06
-3.18268e-06
3.82717e-06
-5.39011e-06
3.05081e-06
-6.36856e-06
2.40941e-06
-6.39296e-06
1.9117e-06
-5.9648e-06
1.55478e-06
-5.38623e-06
1.33572e-06
-4.74587e-06
1.24544e-06
-4.05741e-06
1.25208e-06
-3.29591e-06
1.2825e-06
-2.46737e-06
1.22662e-06
-1.6454e-06
1.00003e-06
-9.80957e-07
6.01431e-07
-6.05678e-07
9.05772e-08
-5.16291e-07
-4.65264e-07
-6.18349e-07
-7.87484e-07
-1.01965e-06
1.43969e-06
3.04025e-05
3.02622e-06
2.89303e-05
4.6174e-06
2.40109e-05
6.04936e-06
1.7425e-05
6.9678e-06