/*--------------------------------*- C++ -*----------------------------------*\
| =========                 |                                                 |
| \\      /  F ield         | OpenFOAM: The Open Source CFD Toolbox           |
|  \\    /   O peration     | Version:  2312                                  |
|   \\  /    A nd           | Website:  www.openfoam.com                      |
|    \\/     M anipulation  |                                                 |
\*---------------------------------------------------------------------------*/
FoamFile
{
    version     2.0;
    format      ascii;
    arch        "LSB;label=32;scalar=64";
    class       volScalarField;
    location    "1";
    object      alphas;
}
// * * * * * * * * * * * * * * * * * * * * * * * * * * * * * * * * * * * * * //

dimensions      [0 0 0 0 0 0 0];

internalField   nonuniform List<scalar> 
2268
(
2
2
2
2
2
2
2
2
2
2
2
2
2
2
2
2
2
2
2
2
2
1.99997
1.99993
2
2
2
2
2
2
2
2
2
2
2
2
2
2
2
2
2
2
2
2
2
1.99998
1.99993
2
2
2
2
2
2
2
2
2
2
2
2
2
2
2
2
2
2
2
2
2
2
2
2
2
2
2
2
2
2
2
2
2
2
2
2
2
2
2
2
2
2
2
2
2
1.99999
2
2
2
2
2
2
2
2
2
2
2
2
2
1.99998
1.99944
1.99748
1.99522
1.9949
1.99706
1.99957
2.00003
1.99999
1.99997
2
2
2
2
1.99093
1.70445
1.47145
1.34542
1.27944
1.24389
1.22415
1.21559
1.20924
1.18428
1.12704
1.05587
1.00759
1.00278
1.0487
1.13986
1.23193
1.28594
1.32377
2
2
2
1.53749
0.543997
0.175532
0.0568926
0.0103224
3.96541e-06
6.47355e-06
1.69878e-05
4.96292e-05
7.14061e-05
8.9933e-05
0.000116655
0.000277047
0.000466767
0.000782755
0.000815643
0.00115376
0.00282027
0.0358168
0.140454
2
2
1.36413
0.144883
2.85836e-07
7.18481e-07
1.46295e-06
2.27622e-06
3.17104e-06
4.8115e-06
8.6409e-06
1.18894e-05
6.03618e-06
4.0336e-06
4.022e-06
7.17681e-05
0.000115211
0.00010636
0.000112245
0.000111652
0.000116535
0.0071845
0.22388
1.41482
1.37976
1.23124
1.17481
1.17462
1.17529
1.16443
1.14197
1.38072
1.82829
1.89808
1.90111
1.89368
1.88267
1.8721
1.94415
1.97032
1.78741
0.996367
1.29249
1.27685
1.20288
1.15817
1.07056
0.830663
0.77286
0.723775
0.723561
0.882421
1.23753
1.54796
1.8566
1.88125
1.88159
1.91302
1.97342
1.60672
0.557123
1.0194
1.1979
1.27672
1.06398
0.722269
0.367566
0.30387
0.346928
0.362448
0.43493
0.45567
0.897046
1.45575
1.68335
1.76223
1.91985
1.91439
1.26156
0.770906
1.0567
1.34341
0.907696
0.541961
0.485778
0.689451
0.932825
0.843348
0.498712
0.169132
0.195922
0.59871
1.80764
1.9656
1.96067
1.88067
1.55024
0.970149
1.23053
1.07034
0.912221
0.572543
0.630229
1.15301
1.55683
1.42373
1.13904
0.415104
0.18764
0.315557
1.28207
1.61964
1.71624
1.69807
1.55289
1.08728
0.72777
1.17279
0.983004
0.715909
0.480653
0.67958
0.879448
1.20923
1.91103
1.23937
0.274654
0.187521
0.800519
1.64641
1.64788
1.46392
1.31868
0.993744
0.646858
0.567936
0.984702
0.971093
0.387338
0.305097
0.337824
0.188335
1.06446
2.0277
1.30634
0.453302
0.283265
1.37279
1.7162
1.67821
1.27377
0.820571
0.707857
0.479244
0.459815
0.763588
0.971003
0.239881
0.0943046
0.0384263
0.130939
1.47654
2.10213
1.44872
0.633978
0.758669
1.57989
1.86972
1.63762
1.18599
0.659134
0.356645
0.353463
0.255474
0.822994
2
1.35378
0.114241
1.08565e-08
1.85256e-08
2.57092e-08
3.5747e-08
1.45107e-07
2.03022e-07
1.22512e-07
6.61871e-08
1.0451e-07
5.75048e-08
6.05277e-08
1.18498e-07
2.88104e-05
0.000107198
7.54234e-05
0.0086313
0.0492383
0.140261
0.575304
1.59169
1.80602
0.148016
3.18222e-09
4.33316e-09
2.88238e-09
2.99539e-09
2.83596e-09
1.95933e-07
1.33423e-06
9.69316e-08
8.40492e-08
1.53308e-06
0.000938672
0.00835917
0.00832415
0.00307186
0.00404813
0.0549785
0.460338
0.786042
1.13537
1.71876
1.67723
0.418793
0.00677334
3.28784e-09
3.31529e-09
4.67051e-09
2.40279e-07
5.2921e-05
8.3753e-06
6.09672e-06
6.61769e-06
0.0040281
0.045346
0.0931436
0.148554
0.0993996
0.0300496
0.447979
1.36075
1.58399
1.64652
1.25996
1.13539
0.592042
4.53213e-08
2.37377e-08
1.27525e-08
2.32214e-09
1.0598e-07
6.48904e-05
0.000356978
2.08334e-05
1.43374e-05
0.117919
0.206679
0.429127
0.429809
0.688927
1.12979
1.5124
1.69756
1.86109
1.49407
1.35138
1.05004
0.873851
0.334314
6.04041e-09
4.44618e-08
8.04401e-08
1.33062e-07
1.10829e-07
7.07989e-05
0.0274749
0.0555337
0.222784
0.610898
0.960213
1.07694
1.59386
2.47934
2.80313
2.87747
2.3358
1.44401
1.38363
1.35314
1.11113
1.07598
1.50534
4.28518e-08
4.05222e-07
8.30592e-08
6.52154e-05
0.0342086
0.0162934
0.322264
0.679399
1.09985
1.11164
1.52152
2.69671
2.94323
2.96884
2.96885
2.96881
2.91629
2.10254
1.49947
1.37725
1.3731
1.44196
1.80346
0.329644
0.147537
0.0041653
0.00585839
0.175691
1.02253
1.11938
1.04789
1.00281
1.41862
2.80222
2.96883
2.96887
2.96887
2.96887
2.52235
1.54114
1.28933
1.28666
1.53953
1.53984
1.46516
1.06122
2.1819
1.79274
0.674701
0.806325
1.45042
1.69651
1.234
0.99369
1.00011
1.52249
2.9401
2.96886
2.96887
2.9671
1.97265
1.08568
1.00012
1.00012
1.00011
1.0551
1.13075
1.11287
1.06037
2.56278
2.46805
1.80527
1.81873
2.04937
1.43675
1.00001
0.999999
1.00001
1.05219
1.90915
2.64042
2.61679
1.58223
1.10436
1.09457
1.10444
1.52629
1.76336
1.83972
1.9105
2.26893
2.54345
1.99052
2.02933
2.09552
2.11546
1.53111
1.00049
1
1
1.00001
1.00001
1.00002
1.11119
1.49849
1.7169
1.77692
2.20375
2.66105
2.87947
2.95221
2.97234
2.98337
2.99729
2.99997
1.28976
1.39665
1.98278
1.61118
1.00022
1.00001
1
1
1.00001
1.06992
1.58502
2.00748
2.40969
2.7646
2.95538
2.99872
3
3
3
3
3
3
3
1.28694
1.01315
1.13199
1.07056
1.00001
1.00001
1.00001
1.00001
1.33175
2.44508
2.91422
2.98712
3
3
3
3
3
3
3
3
3
3
3
1.26974
1.00004
0.999972
0.99999
1
1
1.00001
1.51635
2.62587
3
3
3
3
2.99999
2.99999
2.99999
2.99999
3
3
3
3
3
3
1.34698
1.00001
0.999954
0.999812
0.999714
1.10419
1.9461
2.80445
3
3
3
3
2.99999
2.99999
2.99999
2.99999
2.99999
3
3
3
3
3
3
1.44832
1.00002
0.999926
0.999625
1.6202
2.53036
2.97174
3
3
3
3
3
3
2.99999
2.99999
2.99999
3
3
3
3
3
3
3
1.44928
1.00005
1.02355
1.9013
2.86594
2.99961
2.99996
3
3
3
3
3
3
3
3
3
3
3
3
3
3
3
3
1.30038
1.00006
1.61795
2.9088
2.99988
3
3
3
3
3
3
3
3
3
3
3
3
3
3
3
3
3
3
1.15818
1.09401
2.76368
3
3
3
3
3
3
3
3
3
3
3
3
3
3
3
3
3
3
3
3
1.17325
2.24987
2.99999
3
3
3
3
3
3
3
3
3
3
3
3
3
3
3
3
3
3
3
3
1.17661
2.9362
3
3
3
3
3
3
3
3
3
3
3
3
3
3
3
3
3
3
3
3
3
1.17706
2.91164
3
3
3
3
3
3
3
3
3
3
3
3
3
3
3
3
3
3
3
3
3
1.17748
2.84961
3
3
3
3
3
3
3
3
3
3
3
3
3
3
3
3
3
3
3
3
3
2.01713
2.88662
2.99999
2.99999
3
3
3
3
3
3
3
3
3
3
3
3
3
3
3
3
3
3
3
2.99237
2.98469
2.99942
2.99999
3
3
3
3
3
3
3
3
3
3
3
3
3
3
3
3
3
3
3
2.99999
2.99999
2.99979
2.99998
3
3
3
3
3
3
3
3
3
3
3
3
3
3
3
3
3
3
3
3
3
3
3
3
3
3
3
3
3
3
3
3
3
3
3
3
3
3
3
3
3
3
2.99995
3
2.99999
2.99998
2.99999
3
3
3
3
3
3
3
3
3
3
3
3
3
3
3
3
3
3
2.99993
2.99995
2.99993
2.99994
3
3
3
3
3
3
3
3
3
3
3
3
3
3
3
3
3
3
3
2.99997
2.99993
2.99993
2.99997
3
3
3
3
3
3
3
3
3
3
3
3
3
3
3
3
3
3
3
3
2.99996
2.99999
3
3
3
3
3
3
3
3
3
3
3
3
3
3
3
3
3
3
3
3
3
3
3
3
3
3
3
3
3
3
3
3
3
3
3
3
3
3
3
3
3
3
3
3
3
3
3
3
3
3
3
3
3
3
3
3
3
3
3
3
3
3
3
3
3
3
3
3
3
3
3
3
3
3
3
3
3
3
3
3
3
3
3
3
3
3
3
3
3
3
3
3
3
3
3
3
3
3
3
3
3
3
3
3
3
3
3
3
3
3
3
3
3
3
3
3
3
3
3
3
3
3
3
3
3
3
3
3
3
3
3
3
3
3
3
3
3
3
3
3
3
3
3
3
3
3
3
3
3
3
3
3
3
3
3
3
3
3
3
3
3
3
3
3
3
3
3
3
3
3
3
3
3
3
3
3
3
3
3
3
3
3
3
3
3
3
3
3
3
3
3
3
3
3
3
3
3
3
3
3
3
3
3
3
3
3
3
3
3
3
3
3
3
3
3
3
3
3
3
3
3
3
3
3
3
3
3
3
3
3
3
3
3
3
3
3
3
3
3
3
3
3
3
3
3
3
3
3
3
3
3
3
3
3
3
3
3
3
3
3
3
3
3
3
3
3
3
3
3
3
3
3
3
3
3
3
3
3
3
3
3
3
3
3
3
3
3
3
3
3
3
3
3
3
3
3
1.78787
1.60115
0.95487
0.565049
1.22028
0.142301
0.0927196
0.124606
0.140853
0.0662396
0.0471217
0.0469057
0.134415
0.517255
0.764928
0.912047
1.6258
1.70193
1.79903
1.80767
1.80377
1.80327
1.36776
1.00104
1.06216
1.04065
1.00654
1.00074
1.07624
1.12258
1.14678
1.17123
2.51159
2.46358
2.57972
2.67421
2.99998
2.99999
2.99999
2.99999
3
3
3
3
3
3
3
2.99999
3
3
3
3
3
3
3
3
3
3
3
3
3
3
3
3
3
3
3
3
3
3
3
3
3
3
3
3
3
3
3
3
3
3
3
3
3
3
3
3
3
3
3
3
3
3
3
3
3
3
3
3
3
3
3
3
3
3
3
3
3
3
3
3
3
3
3
3
3
3
3
3
3
3
3
3
3
3
3
3
3
3
3
3
3
3
3
3
3
3
3
3
3
3
3
3
3
3
3
3
3
3
3
3
3
3
3
3
3
3
3
3
3
3
3
3
3
3
3
3
0.58426
0.0421575
0.0338209
0.0294753
0.374238
1.70898
2.05624
2.02467
1.60936
1.15219
1.33824
1.51859
1.47867
0.867452
0.455821
0.173203
0.190944
0.243632
0.945109
0.0667533
0.0303162
0.0297801
0.129158
0.902747
2.01534
2.00892
1.39324
1.28261
1.21766
1.43759
1.26135
0.947449
0.306003
0.220519
0.165757
0.161471
0.823343
1.00654
0.0470698
0.203069
0.443456
0.567858
0.978671
1.98933
2.02884
1.71357
1.2765
1.24783
1.2428
1.23323
1.17162
0.649301
0.251143
0.189925
0.543852
1.00045
1.03504
1.03588
1.13539
1.03285
1.01823
1.44937
1.59639
1.63661
1.81822
1.87857
1.77233
1.69897
1.77
1.7404
1.49585
0.749903
0.693394
1.16325
1.2711
1.39106
1.38898
1.00009
1.0004
1.07475
1.20431
1.12757
1.00874
1.13575
1.63028
1.76609
1.72587
1.50233
1.45707
1.32478
1.41408
1.6743
1.84031
2.1965
2.62106
1.00378
1.0004
1.00037
1.00037
1.00037
1.00037
1.00059
1.00117
1.00747
1.06029
1.12706
1.27152
1.40947
1.71701
2.0853
2.44981
2.79927
2.94986
2.98061
1.00074
1.00062
1.00037
1.00038
1.00038
1.00644
1.16206
1.60987
2.11303
2.42084
2.57473
2.65374
2.80697
2.94141
2.99566
2.9985
2.99994
2.99946
2.98799
1.22018
1.29711
1.35443
1.40194
1.51416
2.0285
2.72171
2.9813
2.98192
2.98849
2.99405
2.9965
2.99899
2.99949
2.99996
2.99991
2.99989
2.99984
2.99974
2.72354
2.78606
2.83575
2.90543
2.98886
2.9969
2.99817
2.99955
2.99996
2.99969
2.99819
2.99716
2.99763
2.99955
3
2.99966
2.99891
2.99923
2.99948
2.99998
2.99994
2.99987
2.9998
2.99989
3
3
3
3
2.999
2.99572
2.99573
2.99702
3
3
2.99959
2.99865
2.99866
2.99872
3
3
3
3
3
2.99999
3
3
3
2.99986
2.9991
2.99883
3
3
3
3
2.99985
2.9997
2.99998
2.99999
2.99999
3
3
3
2.99998
2.99988
2.99982
2.99995
3
3
3
3
3
3
3
2.99997
2.99983
2.99998
3
2.99998
2.99997
2.99998
2.99999
2.99999
2.99982
2.9994
2.99942
2.99984
2.99999
3
3
3
3
3
2.99967
2.99718
2.99985
3
3
2.99997
2.99996
2.99997
2.99999
3
2.99948
2.99936
2.99936
2.99985
3
3
3
3
3
2.99971
2.99662
2.99748
3
3
3
2.99997
2.99996
2.99998
3
3
2.99948
2.99936
2.99975
3
3
3
3
3
3
2.99662
2.99662
3
3
3
2.99999
2.99996
2.99997
3
3
2.99998
2.99986
2.99994
3
3
3
3
3
3
2.99873
2.99975
3
3
3
3
2.99998
2.99997
2.99998
3
3
3
3
3
3
3
3
3
2.99963
3
3
3
3
3
3
3
2.99999
2.99999
3
3
3
3
3
3
3
3
3
2.99942
2.99993
3
3
3
3
3
3
3
3
3
3
3
3
3
3
3
3
3
2.99945
2.99991
3
3
3
3
3
3
3
3
3
3
3
3
3
3
3
3
3
3
2.99997
3
3
3
3
3
3
3
3
3
3
3
3
3
3
3
3
3
3
3
3
3
3
3
3
3
3
3
3
3
3
3
3
3
3
3
3
3
3
3
3
3
3
3
3
3
3
3
3
3
3
3
3
3
3
3
2.99997
2.99998
3
3
3
3
3
3
3
3
3
3
3
3
3
3
3
3
2.99998
2.99997
2.99997
3
3
3
3
3
3
3
3
3
3
3
3
3
3
3
3
2.99999
2.99997
3
3
3
3
3
3
3
3
3
3
3
3
3
3
3
3
3
3
3
3
3
3
3
3
3
3
3
3
3
3
3
3
3
3
3
3
3
3
3
3
3
3
3
3
3
3
3
3
3
3
3
3
3
3
3
3
3
3
3
3
3
3
3
3
3
3
3
3
3
3
3
3
3
3
3
3
3
3
3
3
3
3
3
3
3
3
3
3
3
3
3
3
3
3
3
3
3
3
3
3
3
3
3
3
3
3
3
3
3
3
3
3
3
3
3
3
3
3
3
3
3
3
3
3
3
3
3
3
3
3
3
3
3
3
3
3
3
3
3
3
3
3
3
3
3
3
3
3
3
3
3
3
3
3
3
3
3
3
3
3
3
3
3
3
3
3
3
3
3
3
3
3
3
3
3
3
3
3
3
3
3
3
3
3
3
3
3
3
3
3
3
3
3
3
3
3
3
3
3
3
3
3
3
3
3
3
3
3
3
3
3
3
3
3
3
3
3
3
3
3
3
3
3
3
3
3
3
3
3
3
3
3
3
3
3
3
3
3
3
3
3
3
3
3
3
3
3
3
3
3
3
3
3
3
3
3
3
3
3
3
3
3
3
3
3
3
3
3
3
3
3
3
3
3
3
3
3
3
3
3
3
3
3
3
3
3
3
3
3
3
3
3
3
3
3
3
3
3
3
3
3
3
3
3
3
3
3
3
3
3
3
3
3
3
3
3
3
3
3
3
3
3
3
3
3
)
;

boundaryField
{
    leftWall
    {
        type            calculated;
        value           nonuniform List<scalar> 
50
(
2
2
2
2
2
2
2
2
2
1.80602
0.418793
4.53213e-08
6.04041e-09
4.28518e-08
0.329644
2.1819
2.56278
1.99052
1.28976
1.28694
1.26974
1.34698
1.44832
1.44928
1.30038
1.15818
1.17325
1.17661
1.17706
1.17748
2.01713
2.99237
2.99999
3
2.99995
2.99993
2.99997
3
3
3
3
3
3
3
3
3
3
3
3
3
)
;
    }
    rightWall
    {
        type            calculated;
        value           nonuniform List<scalar> 
50
(
0.996367
0.557123
0.770906
1.23053
1.17279
0.984702
0.763588
0.822994
0.945109
1.00654
1.03504
1.39106
2.62106
2.98061
2.98799
2.99974
2.99948
2.99872
2.99998
2.99998
2.99985
2.99748
2.99662
2.99975
3
3
3
3
3
3
3
3
3
3
3
3
3
3
3
3
3
3
3
3
3
3
3
3
3
3
)
;
    }
    lowerWall
    {
        type            calculated;
        value           nonuniform List<scalar> 
62
(
2
2
2
2
2
2
2
2
2
2
2
2
2
2
2
2
2
2
2
2
2
1.99997
1.99993
1.99993
1.99993
2
1.99999
1.99997
1.32377
0.140454
0.22388
1.78787
1.60115
0.95487
0.565049
1.41482
1.29249
1.0194
1.0567
1.07034
0.983004
0.971093
0.971003
1.41482
1.37976
1.23124
1.17481
1.17462
1.17529
1.16443
1.14197
1.38072
1.82829
1.89808
1.90111
1.89368
1.88267
1.8721
1.94415
1.97032
1.78741
0.996367
)
;
    }
    atmosphere
    {
        type            calculated;
        value           nonuniform List<scalar> 
46
(
3
3
3
3
3
3
3
3
3
3
3
3
3
3
3
3
3
3
3
3
3
3
3
3
3
3
3
3
3
3
3
3
3
3
3
3
3
3
3
3
3
3
3
3
3
3
)
;
    }
    defaultFaces
    {
        type            empty;
    }
}


// ************************************************************************* //
