/*--------------------------------*- C++ -*----------------------------------*\
| =========                 |                                                 |
| \\      /  F ield         | OpenFOAM: The Open Source CFD Toolbox           |
|  \\    /   O peration     | Version:  2312                                  |
|   \\  /    A nd           | Website:  www.openfoam.com                      |
|    \\/     M anipulation  |                                                 |
\*---------------------------------------------------------------------------*/
FoamFile
{
    version     2.0;
    format      ascii;
    arch        "LSB;label=32;scalar=64";
    class       volScalarField;
    location    "1";
    object      alpha.water;
}
// * * * * * * * * * * * * * * * * * * * * * * * * * * * * * * * * * * * * * //

dimensions      [0 0 0 0 0 0 0];

internalField   nonuniform List<scalar> 
2268
(
3.50679e-11
2.68977e-11
2.3715e-11
2.26196e-11
2.21352e-11
2.18052e-11
2.13148e-11
2.04401e-11
1.91112e-11
1.77641e-11
1.74782e-11
1.79315e-11
1.92708e-11
2.20207e-11
2.70949e-11
3.59981e-11
5.28513e-11
8.28959e-11
1.27938e-10
1.94422e-10
2.61171e-10
3.51516e-10
4.05098e-10
2.69616e-11
2.4516e-11
2.6538e-11
3.07628e-11
3.60558e-11
4.07055e-11
4.4357e-11
4.6416e-11
4.69098e-11
4.58463e-11
4.55594e-11
4.65121e-11
4.94305e-11
5.55458e-11
6.75116e-11
9.20956e-11
1.5225e-10
2.84624e-10
5.39264e-10
9.1545e-10
1.36908e-09
1.59811e-09
1.17041e-09
2.35807e-11
2.34352e-11
2.62383e-11
3.04937e-11
3.69805e-11
4.40613e-11
5.0184e-11
5.51962e-11
6.01546e-11
6.39003e-11
6.65893e-11
6.85035e-11
7.26747e-11
7.94052e-11
9.17446e-11
1.27506e-10
2.13267e-10
4.07972e-10
9.56741e-10
1.96017e-09
2.87568e-09
3.01674e-09
2.88641e-09
1.69872e-11
1.84013e-11
2.52771e-11
4.20507e-11
6.54495e-11
8.64083e-11
9.43648e-11
9.39034e-11
9.74519e-11
9.94673e-11
1.0746e-10
9.76618e-11
1.02619e-10
1.07754e-10
9.17883e-11
9.18142e-11
9.18664e-11
9.15838e-11
9.18062e-11
7.38504e-09
1.81934e-09
8.54117e-09
2.06634e-09
1.46924e-11
2.94759e-11
6.29091e-11
1.3472e-11
1.32714e-11
1.33492e-11
1.33357e-11
1.3529e-11
1.35632e-11
1.37211e-11
1.35865e-11
1.38435e-11
1.36793e-11
6.93416e-06
0.00028119
0.00125925
0.00238797
0.00254478
0.00145843
0.0002165
1.81611e-09
3.51956e-06
2.06633e-09
2.84343e-11
9.15801e-11
2.66196e-10
3.43384e-09
0.00453495
0.147776
0.264274
0.327292
0.360281
0.378055
0.387921
0.392188
0.395353
0.407826
0.436447
0.47201
0.496077
0.498349
0.475346
0.429851
0.384208
0.357957
0.339083
3.77365e-11
2.90564e-10
3.07488e-09
0.231257
0.728002
0.912234
0.971553
0.994838
0.999996
0.999994
0.999983
0.99995
0.999929
0.99991
0.999884
0.999723
0.999534
0.999217
0.999184
0.999004
0.998502
0.984104
0.921639
1.34892e-10
1.40329e-10
0.317934
0.927558
1
0.999999
0.999999
0.999998
0.999997
0.999995
0.999991
0.999988
0.999994
0.999996
0.999996
0.999928
0.999885
0.999894
0.99989
0.999888
0.999884
0.997095
0.83751
0.00487293
0.0178365
0.00244999
0.00244911
0.00281605
0.00515985
0.0142049
0.0365261
0.0626525
0.0480664
0.0299372
0.0291642
0.0186141
0.0197506
0.0209609
0.0137586
0.0120416
0.0119908
0.256145
0.032133
0.0895021
0.0385584
0.0454534
0.183716
0.399994
0.47214
0.514263
0.495529
0.392321
0.214954
0.155225
0.0679392
0.0549229
0.059871
0.0468031
0.017156
0.0888341
0.603912
0.0848911
0.0824258
0.154972
0.469018
0.666592
0.792174
0.791578
0.755322
0.765188
0.705617
0.699164
0.533887
0.267592
0.154843
0.132395
0.0449931
0.0268272
0.174002
0.496182
0.0825751
0.105533
0.580947
0.717035
0.62869
0.4399
0.248009
0.242766
0.532074
0.888595
0.888571
0.684882
0.0592636
0.0016817
0.00169691
0.0234575
0.0848812
0.250898
0.0762107
0.121631
0.478853
0.620239
0.495597
0.250787
0.118286
0.1169
0.134976
0.596121
0.888739
0.828294
0.232383
0.00167995
0.00168168
0.00168167
0.0333121
0.230516
0.394608
0.0568398
0.238911
0.609439
0.611761
0.487801
0.529177
0.510253
0.205111
0.212523
0.736509
0.888218
0.505397
0.00167915
0.00167887
0.0106273
0.0621911
0.236802
0.514538
0.626912
0.130658
0.24996
0.734221
0.771977
0.750974
0.876858
0.562756
0.107036
0.190813
0.557849
0.780336
0.170514
0.00168216
0.00732674
0.0876278
0.314355
0.428405
0.721943
0.730853
0.275918
0.245086
0.781823
0.941986
0.969929
0.893587
0.221801
0.000611896
0.117315
0.378215
0.338274
0.0221959
0.00168213
0.0578441
0.173515
0.419391
0.742531
0.791365
0.802078
0.194757
1.01194e-09
0.323108
0.942879
1
1
1
1
1
1
1
1
1
1
1
1
0.999971
0.999926
0.999927
0.991369
0.950762
0.859739
0.516816
0.0632646
0.0969905
0.925992
1
1
1
1
1
1
1
1
1
0.999999
0.999061
0.991656
0.99168
0.996929
0.998612
0.945024
0.57573
0.303985
0.188145
0.158294
0.239885
0.790604
0.996613
1
1
1
1
0.999982
0.999997
0.999998
0.999998
0.995972
0.982581
0.959587
0.878863
0.900677
0.96995
0.552024
0.196041
0.132422
0.0649165
0.0640535
0.222291
0.78083
1
1
1
1
1
0.999978
0.999881
0.999984
0.999992
0.960694
0.846266
0.735065
0.694127
0.338171
0.192655
0.248927
0.147774
4.59446e-10
-2.41005e-09
0.00994559
0.110023
0.183528
0.72299
1
1
1
1
1
0.999976
0.972596
0.971999
0.854509
0.713178
0.276974
0.189702
0.0613231
0.0243926
-2.85065e-19
1.06092e-19
-3.06876e-19
-9.40878e-20
1.95061e-09
0.00990635
0.0907969
0.103425
0.148408
1
1
1
0.999978
0.965791
0.990033
0.794677
0.727619
0.202439
0.04097
0.00259365
-1.15568e-19
4.73375e-20
-3.05954e-12
4.04614e-11
1.97226e-08
4.35885e-08
1.10717e-21
0.000100302
0.0023542
0.00390329
0.000956202
5.09329e-07
0.890119
0.950821
0.995853
0.997715
0.837819
0.592233
0.497313
0.243606
3.07454e-11
0.000692941
6.27883e-14
1.0176e-13
1.30133e-10
4.746e-10
5.05621e-10
3.03322e-09
2.77622e-09
1.48481e-06
4.45903e-05
6.73799e-05
0.000198325
1.57863e-07
2.53103e-11
0.260339
0.402421
0.731415
0.709849
0.445693
0.201503
0.115539
0.00631845
1.51435e-16
3.07679e-11
4.75583e-08
4.31777e-08
6.83269e-11
2.53917e-10
2.2632e-10
2.24453e-10
6.39635e-08
1.38821e-06
2.54669e-06
7.465e-09
8.30495e-09
1.16093e-08
1.77033e-08
4.81411e-06
0.0934959
0.334171
0.306671
0.0727543
2.37623e-13
2.19229e-05
4.25723e-06
4.10234e-07
5.89008e-14
1.54672e-07
2.06418e-07
4.36702e-08
2.2632e-10
2.24453e-10
1.54836e-09
4.64185e-08
9.94807e-08
1.68005e-09
1.61598e-09
7.49907e-09
1.36436e-08
1.07659e-08
1.99821e-05
0.0157911
0.0409814
0.018183
1.07411e-19
1.84291e-07
2.62237e-06
3.58933e-06
4.08032e-07
4.22987e-10
1.19931e-07
2.08319e-07
6.89462e-08
2.24453e-10
1.7271e-09
2.55731e-09
4.54158e-09
4.25195e-09
1.09317e-08
3.58032e-08
5.85301e-08
6.1546e-08
3.6779e-08
1.14867e-10
7.40311e-22
-2.92856e-21
-2.62837e-21
-1.55167e-23
4.70651e-08
3.13392e-06
3.29388e-06
6.71038e-10
1.1172e-09
2.70262e-08
5.72013e-08
2.27941e-08
4.30681e-10
7.0728e-11
9.43621e-11
8.62936e-09
2.94918e-07
3.00233e-07
1.02402e-07
2.70178e-07
5.4622e-07
4.93454e-07
6.99976e-08
4.98522e-08
-1.93787e-23
-2.25733e-22
6.38453e-25
1.97215e-06
2.14715e-06
6.0731e-07
5.35751e-10
8.02971e-10
3.30609e-10
4.65535e-14
4.4461e-14
4.65535e-14
2.95127e-07
1.27723e-06
1.24022e-06
8.66887e-08
1.65791e-08
1.71174e-08
1.98445e-08
4.16488e-07
9.08395e-07
7.40309e-11
7.33246e-06
2.81568e-05
9.74364e-06
4.12575e-06
3.92699e-06
-1.408e-08
-5.17911e-15
5.96679e-10
1.47007e-09
9.96471e-10
1.68551e-09
9.53024e-08
2.0981e-06
4.27358e-06
4.25908e-06
4.08259e-06
4.41401e-07
1.63578e-08
3.87946e-08
5.57218e-09
2.78154e-09
2.78557e-09
4.6109e-11
1.85832e-05
4.64329e-05
0.000188117
0.000286419
0.000217775
3.99869e-05
-8.21682e-25
6.01638e-10
1.47937e-09
8.8424e-10
8.96718e-10
1.94791e-06
4.4239e-06
4.42053e-06
4.4239e-06
3.71681e-06
3.22035e-07
3.91205e-08
1.1142e-08
7.88647e-09
4.74489e-09
3.12354e-09
7.40308e-11
1.53678e-05
7.37769e-05
0.000374773
0.000375109
0.000374776
4.95915e-05
-3.46712e-16
-9.20582e-15
-1.14852e-12
-1.72329e-25
9.79551e-08
1.09657e-06
4.10177e-06
4.4239e-06
2.73848e-06
6.96922e-07
5.2798e-08
2.46499e-08
1.04632e-08
6.97959e-09
5.06106e-09
3.03821e-09
4.38059e-08
5.39513e-06
3.42231e-05
0.000279781
0.000354578
0.00012848
1.24319e-05
-1.23652e-10
1.02298e-07
2.20392e-08
2.10918e-08
6.33186e-08
2.18415e-07
4.02103e-07
4.87949e-07
1.23748e-07
3.46034e-08
1.86404e-08
1.2017e-08
5.48572e-09
3.46088e-09
1.63664e-09
1.02715e-09
1.35963e-07
8.13703e-07
2.21534e-06
1.57178e-05
4.12491e-05
6.64437e-09
6.49391e-09
2.70539e-07
3.29704e-07
3.24104e-07
2.15281e-07
2.1588e-07
1.26097e-07
5.19696e-08
3.36705e-08
2.0194e-08
1.33051e-08
8.49151e-09
5.36999e-09
2.10637e-09
1.14372e-09
5.82983e-10
3.03277e-10
1.28372e-07
3.82106e-07
2.36964e-07
4.32682e-09
4.04372e-09
4.04332e-09
1.44781e-08
1.29922e-07
1.7918e-07
1.43819e-07
1.6737e-07
1.17849e-07
5.97515e-08
2.23379e-08
1.26199e-08
7.81106e-09
4.09757e-09
1.98131e-09
1.08373e-09
4.91194e-10
2.81148e-10
1.25442e-10
6.24957e-11
6.92178e-08
3.65711e-07
1.1766e-07
4.04372e-09
4.04434e-09
8.34451e-09
2.56376e-08
4.24158e-08
5.6908e-08
4.84533e-08
4.69809e-08
2.6691e-08
1.21028e-08
6.34695e-09
3.47321e-09
1.60365e-09
7.13247e-10
3.473e-10
1.72148e-10
8.93636e-11
5.29901e-11
2.44629e-11
9.86943e-12
6.29915e-08
1.27712e-07
1.41674e-07
4.04373e-09
4.03762e-09
1.69471e-08
2.40172e-08
2.23695e-08
1.68212e-08
1.03116e-08
6.89019e-09
3.563e-09
2.23559e-09
1.1756e-09
4.82847e-10
2.23731e-10
1.16819e-10
6.4832e-11
4.09379e-11
2.42222e-11
1.251e-11
4.44833e-12
2.50319e-12
6.29116e-08
6.29914e-08
1.12087e-07
4.03852e-09
3.80883e-08
3.00663e-08
2.13359e-08
1.17064e-08
2.35924e-09
8.55925e-10
2.67929e-10
5.2879e-10
3.80926e-10
2.01909e-10
1.00597e-10
5.52294e-11
3.17825e-11
1.90084e-11
1.22699e-11
6.62443e-12
1.97689e-12
9.37733e-13
8.48083e-13
4.42677e-05
5.86965e-06
1.0867e-07
1.23377e-07
5.20149e-07
7.47189e-08
2.2631e-08
2.56721e-09
2.14139e-09
9.74408e-10
2.71328e-10
1.62366e-10
1.05082e-10
6.35947e-11
3.72407e-11
2.12281e-11
1.18266e-11
6.82414e-12
4.05462e-12
1.29816e-12
3.04872e-13
1.73698e-13
1.8711e-13
5.82953e-05
3.09608e-05
3.37677e-06
4.04972e-06
5.66986e-07
9.07083e-08
2.25419e-08
3.35147e-09
1.01102e-09
4.49855e-10
1.85434e-10
1.00458e-10
6.063e-11
3.62635e-11
2.06607e-11
1.10128e-11
5.56973e-12
2.84898e-12
1.2899e-12
2.13271e-13
4.81334e-14
3.9389e-14
4.06496e-14
5.55275e-05
2.54675e-05
9.33031e-06
4.1578e-06
1.5667e-07
6.98114e-08
1.29658e-08
7.07317e-10
3.86465e-10
2.4979e-10
1.49316e-10
9.08039e-11
5.36309e-11
2.93628e-11
1.46646e-11
6.71458e-12
2.89725e-12
1.25351e-12
3.98789e-13
3.36143e-14
8.18286e-15
6.67401e-15
6.84086e-15
4.51059e-06
1.92189e-06
3.89695e-06
1.54104e-06
1.25553e-07
2.84947e-08
5.35566e-09
1.04949e-09
4.37432e-10
2.5569e-10
1.52629e-10
8.76568e-11
4.65044e-11
2.23039e-11
9.67185e-12
3.83073e-12
1.4253e-12
5.2627e-13
1.1821e-13
4.79134e-15
1.32974e-15
1.14087e-15
1.04349e-15
2.16134e-07
2.13444e-07
2.01823e-08
1.75932e-07
4.10201e-08
4.46992e-09
2.13204e-09
7.93476e-10
4.06273e-10
2.3279e-10
1.32694e-10
7.03078e-11
3.34476e-11
1.41901e-11
5.4095e-12
1.88705e-12
6.17279e-13
2.00485e-13
2.74989e-14
5.39248e-16
2.07245e-16
1.75098e-16
1.49857e-16
5.95837e-09
9.59795e-09
4.37799e-09
4.4829e-09
1.56706e-08
2.2857e-09
9.01301e-10
5.11899e-10
3.14333e-10
1.83789e-10
9.91257e-11
4.76711e-11
2.02448e-11
7.63412e-12
2.57931e-12
7.9878e-13
2.32455e-13
6.65738e-14
3.81075e-15
5.91927e-17
3.02317e-17
2.45948e-17
1.94897e-17
5.30141e-08
1.02446e-07
1.78441e-07
1.91326e-07
2.09702e-08
1.04449e-09
5.30418e-10
3.76601e-10
2.37993e-10
1.30701e-10
6.35998e-11
2.73128e-11
1.03489e-11
3.48931e-12
1.05721e-12
2.91743e-13
7.63193e-14
1.82659e-14
6.55389e-16
6.99616e-18
3.95845e-18
3.09907e-18
2.17711e-18
4.49141e-07
4.25782e-07
4.46011e-07
2.00401e-07
2.44702e-09
6.37124e-10
4.48884e-10
2.90163e-10
1.6545e-10
8.07584e-11
3.47473e-11
1.32657e-11
4.49768e-12
1.36242e-12
3.721e-13
9.27026e-14
2.19199e-14
4.15341e-15
8.11642e-17
6.97085e-19
4.90491e-19
3.59177e-19
2.13348e-19
5.21988e-07
4.69364e-07
2.87633e-07
4.02535e-08
2.82811e-09
6.47629e-10
3.50933e-10
1.9453e-10
9.77917e-11
4.25354e-11
1.62038e-11
5.52646e-12
1.67405e-12
4.59974e-13
1.14409e-13
2.5999e-14
5.50628e-15
7.62699e-16
6.883e-18
7.47589e-20
5.96753e-20
3.63798e-20
1.89422e-20
3.71838e-07
1.11787e-07
3.01831e-08
9.37257e-09
1.36292e-09
4.50441e-10
2.07517e-10
1.08676e-10
5.03485e-11
1.78425e-11
5.64167e-12
1.8541e-12
5.37982e-13
1.35931e-13
3.10755e-14
6.50433e-15
1.26313e-15
9.69624e-17
2.49983e-19
1.12133e-20
7.11608e-21
3.64926e-21
1.64902e-21
9.41444e-08
3.6383e-08
9.80839e-09
2.44601e-09
6.2174e-10
2.20243e-10
1.06476e-10
4.40517e-11
1.83687e-11
6.63689e-12
2.14254e-12
6.00985e-13
1.48248e-13
3.36014e-14
7.0061e-15
1.37023e-15
2.4638e-16
4.83087e-18
6.96792e-21
1.45235e-21
7.3914e-22
3.14316e-22
1.2652e-22
1.41814e-08
9.70198e-09
2.58623e-09
6.99971e-10
2.34424e-10
1.01076e-10
4.14502e-11
1.7707e-11
6.85907e-12
2.1488e-12
6.02778e-13
1.5421e-13
3.61528e-14
7.9027e-15
1.55477e-15
2.80595e-16
3.87359e-17
3.93405e-19
2.00313e-20
9.37082e-22
9.92315e-23
2.72175e-23
9.1556e-24
5.10625e-09
2.32996e-09
6.5629e-10
2.29605e-10
9.03828e-11
3.41174e-11
1.68049e-11
6.21923e-12
1.92303e-12
5.85225e-13
1.58864e-13
3.80998e-14
8.27746e-15
1.59045e-15
2.8395e-16
4.73144e-17
4.48655e-18
1.75209e-20
5.38316e-22
3.09029e-23
6.86594e-24
1.95967e-24
6.38839e-25
5.97678e-10
3.64515e-10
1.54644e-10
6.93719e-11
3.01449e-11
1.37588e-11
5.48987e-12
1.85176e-12
5.44143e-13
1.38515e-13
3.31816e-14
7.50926e-15
1.59275e-15
2.97054e-16
5.02522e-17
7.68415e-18
2.9831e-19
9.13323e-21
2.9251e-22
8.89861e-24
6.41555e-25
1.52495e-25
4.36148e-26
1.81251e-10
1.07986e-10
4.68424e-11
2.10179e-11
9.58434e-12
3.9668e-12
1.39149e-12
4.30731e-13
1.18714e-13
2.99274e-14
6.97303e-15
1.35934e-15
2.53409e-16
4.66591e-17
7.35933e-18
9.40765e-19
1.0053e-20
4.79198e-22
1.74557e-23
6.72656e-25
6.11252e-26
1.09734e-26
2.92265e-27
3.65646e-11
3.30949e-11
1.67593e-11
6.91413e-12
2.67965e-12
9.91419e-13
3.21615e-13
9.30798e-14
2.41306e-14
5.65708e-15
1.19889e-15
2.3306e-16
4.14109e-17
6.26311e-18
9.30259e-19
8.75637e-20
4.17951e-22
1.56619e-23
5.35463e-25
3.04757e-26
4.1201e-27
7.36877e-28
2.00218e-28
1.04663e-11
9.08147e-12
4.04033e-12
1.55204e-12
6.58901e-13
2.29625e-13
7.02518e-14
1.91189e-14
4.67e-15
1.01175e-15
1.95443e-16
3.50849e-17
5.75867e-18
8.62654e-19
1.18825e-19
3.25819e-21
1.02374e-22
3.56834e-24
1.12499e-25
4.42282e-27
3.48868e-28
4.71595e-29
1.35613e-29
1.348e-12
2.08947e-12
9.67017e-13
3.84861e-13
1.47389e-13
4.81992e-14
1.38873e-14
3.55005e-15
8.16494e-16
1.66521e-16
3.01898e-17
5.00131e-18
7.62548e-19
1.08457e-19
1.24393e-20
1.30197e-22
6.04758e-24
2.09819e-25
6.46611e-27
2.8197e-28
2.36925e-29
2.89942e-30
9.9422e-31
3.19359e-13
3.88696e-13
1.87063e-13
8.40102e-14
2.94043e-14
9.01975e-15
2.44756e-15
5.87752e-16
1.27388e-16
2.4641e-17
4.24399e-18
6.61623e-19
9.4648e-20
1.24577e-20
9.92646e-22
5.38128e-24
2.39728e-25
8.21201e-27
2.83184e-28
1.68874e-29
1.59645e-30
1.74534e-31
7.90223e-32
5.16659e-14
6.8554e-14
4.02146e-14
1.60209e-14
5.24084e-15
1.51602e-15
3.8836e-16
8.78639e-17
1.79965e-17
3.30461e-18
5.41429e-19
7.99475e-20
1.07664e-20
1.288e-21
4.28508e-23
5.52949e-25
9.62114e-27
3.01325e-28
1.35419e-29
1.05022e-30
1.02323e-31
1.00865e-32
6.90933e-33
1.13059e-14
1.45985e-14
7.55751e-15
2.71986e-15
8.40001e-16
2.29331e-16
5.54106e-17
1.17942e-17
2.29851e-18
4.08923e-19
6.37261e-20
8.93048e-21
1.10907e-21
1.10989e-22
1.80221e-24
3.0965e-26
5.54688e-28
1.54245e-29
7.72276e-31
6.37504e-32
6.54729e-33
6.76008e-34
6.8062e-34
0.0644595
0.237986
0.403051
0.453095
0.563433
0.912244
0.913847
0.887974
0.932692
0.953766
0.953675
0.9537
0.913849
0.514454
0.28682
0.237846
0.177671
0.101836
0.0162373
0.00747633
4.81009e-10
-1.16977e-19
1.12167e-20
2.84314e-05
2.92985e-20
1.26601e-25
2.29573e-07
4.02995e-06
9.28978e-10
2.38113e-16
7.8143e-07
7.76831e-06
3.93134e-09
1.1615e-08
2.27463e-08
2.00839e-08
4.27865e-09
1.10298e-07
1.143e-06
1.31287e-06
1.51521e-07
6.24113e-08
6.62454e-08
2.34581e-07
9.02046e-07
2.88762e-07
2.46247e-09
1.29404e-07
3.1351e-09
1.97288e-09
1.95025e-09
1.67904e-09
2.49139e-09
2.09791e-09
2.10344e-09
1.67091e-09
2.56507e-09
2.13779e-09
1.76583e-09
1.52539e-09
8.43867e-10
6.47417e-10
5.22833e-10
4.62877e-10
1.54873e-10
1.25939e-10
1.30216e-10
1.42053e-10
3.72788e-11
2.89758e-11
2.93721e-11
3.81951e-11
7.98809e-12
8.29406e-12
8.53893e-12
9.7775e-12
2.33907e-12
2.27297e-12
2.24019e-12
2.18771e-12
8.04071e-13
7.66704e-13
7.02635e-13
6.68348e-13
1.94615e-13
1.87831e-13
1.7809e-13
1.5861e-13
4.03843e-14
3.70861e-14
3.21648e-14
2.82126e-14
6.61321e-15
5.84609e-15
5.14685e-15
4.53843e-15
9.82693e-16
8.4509e-16
7.26717e-16
6.47839e-16
1.29393e-16
1.05894e-16
8.72917e-17
7.54191e-17
1.53177e-17
1.1803e-17
9.2069e-18
8.5596e-18
1.65579e-18
1.1277e-18
9.13901e-19
8.62859e-19
1.60402e-19
1.03869e-19
8.73417e-20
8.64343e-20
1.29473e-20
8.87177e-21
8.15142e-21
8.85037e-21
1.08679e-21
7.53473e-22
7.43293e-22
9.2546e-22
7.95075e-23
5.98597e-23
7.34342e-23
1.04021e-22
5.60134e-24
4.94239e-24
6.78007e-24
1.1947e-23
4.02517e-25
4.3304e-25
7.02417e-25
1.28078e-24
2.96453e-26
3.81299e-26
7.23669e-26
1.08674e-25
2.36996e-27
3.95166e-27
6.75391e-27
7.28335e-27
2.05241e-28
3.78462e-28
4.68594e-28
4.18815e-28
1.81478e-29
3.04474e-29
2.93195e-29
2.06554e-29
1.60475e-30
2.05724e-30
1.57544e-30
1.0115e-30
1.41652e-31
1.37693e-31
7.56302e-32
1.44228e-31
1.21684e-32
8.05472e-33
1.27086e-32
1.60816e-31
1.03475e-33
1.17102e-33
2.10189e-32
3.69986e-31
0.448169
0.966769
0.971493
0.970632
0.683816
0.0894294
0.000561917
0.0130447
0.0563029
0.0326937
0.0285992
0.12315
0.292723
0.481742
0.612824
0.859598
0.859595
0.757588
0.0618997
0.940834
0.971493
0.971446
0.870993
0.37614
0.000194486
0.000191575
0.000520535
0.00125694
0.00130079
0.0521068
0.41536
0.601596
0.839246
0.859717
0.859597
0.839749
0.177866
0.0117644
0.953471
0.803203
0.568482
0.432361
0.289096
0.000178594
0.00174349
0.000343169
0.00034445
0.00733942
0.0154468
0.190714
0.5166
0.731626
0.859486
0.823722
0.458843
0.0209987
2.98708e-08
0.204627
0.058331
0.0210377
0.048465
0.166601
0.188708
0.174939
0.0773881
0.000342338
0.00347692
0.0126412
0.0380367
0.0839072
0.325286
0.539167
0.380967
0.0937399
0.00166804
7.81385e-07
0.00200576
0.000271345
3.85315e-13
-2.93759e-10
0.0041074
0.0585356
0.113002
0.113068
0.105983
0.0888131
0.115562
0.188229
0.18737
0.157352
0.0885888
0.00268628
1.15237e-10
1.16859e-10
4.7587e-09
9.6006e-07
9.67458e-07
7.76117e-07
2.11554e-07
-1.82582e-11
2.15972e-36
1.37284e-18
-2.73587e-22
-5.49727e-08
1.12136e-20
0.0380105
0.110547
0.0876209
0.0303284
5.09545e-09
3.75182e-09
4.29343e-08
3.56646e-09
4.84016e-09
8.67522e-06
9.21853e-06
6.42028e-06
-1.22703e-10
7.62641e-11
-5.86633e-24
8.07851e-09
0.000164789
0.000777563
0.000833396
-3.46467e-21
3.3093e-21
1.84413e-21
6.18184e-15
3.02387e-06
1.06432e-06
2.30887e-07
3.5707e-09
6.35529e-09
9.23329e-06
9.23463e-06
9.146e-06
3.09964e-06
2.38537e-06
1.66505e-05
6.96534e-05
0.00031335
0.000505349
0.000869716
0.000888222
0.000742867
0.000337003
0.000170665
1.3754e-05
9.5898e-07
1.34755e-10
1.84031e-09
7.51747e-09
2.89559e-06
7.99502e-06
7.00542e-06
5.58967e-06
4.26811e-05
8.28897e-05
8.67095e-05
3.32808e-05
3.0462e-13
1.79658e-13
3.08047e-13
1.83288e-13
3.12732e-12
1.05396e-05
7.39775e-16
5.86724e-14
7.24212e-11
1.69915e-09
4.44515e-09
1.36549e-06
1.68249e-06
2.83316e-06
1.16563e-05
1.05653e-05
8.00186e-07
4.81245e-08
4.20337e-12
5.24717e-12
3.04918e-11
6.08408e-11
6.63536e-11
4.53471e-11
1.03054e-11
1.0574e-11
1.4107e-11
1.14191e-11
2.6922e-12
2.69233e-12
3.12243e-07
3.42254e-07
2.88354e-07
1.80952e-10
4.34921e-12
4.61019e-12
4.20337e-12
4.30613e-12
4.20193e-12
1.8421e-10
3.03516e-10
3.21345e-10
1.71258e-10
7.55282e-11
3.25099e-11
1.38051e-11
7.85648e-12
4.41201e-12
2.6922e-12
2.68378e-07
2.1826e-07
5.10242e-08
1.16419e-08
1.45677e-08
5.18835e-08
8.32059e-08
6.54244e-08
1.2037e-08
4.40261e-10
4.50064e-10
5.10775e-10
4.30528e-10
2.52138e-10
8.33974e-11
2.84907e-11
1.27922e-11
5.97953e-12
2.68966e-12
1.72781e-07
1.98608e-07
9.70017e-08
3.69892e-08
5.12935e-08
1.19324e-07
1.82603e-07
1.82152e-07
9.0059e-08
1.19672e-08
6.75773e-10
8.51313e-10
6.87131e-10
4.27369e-10
1.89565e-10
5.55579e-11
1.70795e-11
6.41766e-12
2.50933e-12
9.5134e-10
9.40987e-10
1.0064e-09
1.45731e-09
1.44868e-09
2.25893e-08
1.18342e-07
1.53046e-07
1.00016e-07
3.56116e-08
2.84645e-09
1.03569e-09
8.56738e-10
5.74777e-10
3.15544e-10
9.9276e-11
2.36541e-11
6.54807e-12
2.33532e-12
1.14203e-09
9.30291e-10
1.23265e-09
2.45689e-09
3.06067e-09
7.58746e-10
5.80026e-10
5.85086e-10
1.54431e-08
1.78203e-08
6.01492e-09
1.29995e-09
8.80715e-10
5.93263e-10
3.70431e-10
1.28807e-10
3.02161e-11
6.3298e-12
2.2545e-12
4.27659e-10
5.71059e-10
8.83053e-10
2.21316e-09
3.21437e-09
3.21074e-09
1.72341e-09
7.03386e-10
4.58737e-10
4.61002e-10
1.07686e-09
1.23082e-09
7.29002e-10
4.69407e-10
3.16507e-10
1.41007e-10
3.09192e-11
5.84104e-12
2.19776e-12
1.47056e-10
1.99824e-10
3.61044e-10
5.66581e-10
1.66609e-09
2.60517e-09
2.74376e-09
2.09994e-09
1.04882e-09
5.93477e-10
3.71824e-10
3.53607e-10
2.85243e-10
2.5528e-10
1.8162e-10
8.49182e-11
1.75449e-11
4.94137e-12
2.17449e-12
4.80908e-11
6.55619e-11
1.16885e-10
2.17327e-10
3.71749e-10
7.09195e-10
9.14874e-10
9.17597e-10
8.30672e-10
5.31161e-10
3.03237e-10
2.34218e-10
1.69381e-10
1.30143e-10
9.98264e-11
3.70402e-11
8.46598e-12
4.39448e-12
2.05224e-12
1.20384e-11
2.1208e-11
2.79908e-11
5.65553e-11
1.23659e-10
1.5749e-10
1.57713e-10
1.05346e-10
9.0513e-11
1.04891e-10
1.12136e-10
1.02535e-10
9.22855e-11
7.51936e-11
4.9178e-11
1.32957e-11
5.22976e-12
3.94281e-12
2.00686e-12
2.29717e-12
3.30216e-12
6.12632e-12
1.38018e-11
3.44401e-11
4.79141e-11
4.31872e-11
4.09949e-11
4.49917e-11
5.42276e-11
6.31328e-11
5.6823e-11
4.77049e-11
3.20171e-11
1.45653e-11
3.10227e-12
3.20331e-12
3.58561e-12
1.93472e-12
5.17298e-13
9.15981e-13
2.47559e-12
4.80766e-12
8.10136e-12
9.14518e-12
1.13607e-11
1.48103e-11
2.2856e-11
2.85085e-11
2.61395e-11
2.26985e-11
1.42858e-11
5.72396e-12
1.0873e-12
1.1695e-12
2.73396e-12
3.2826e-12
1.82427e-12
1.45223e-13
2.60668e-13
8.04562e-13
1.4821e-12
2.06113e-12
3.13937e-12
5.01246e-12
8.72898e-12
1.21924e-11
1.19838e-11
1.06665e-11
8.27256e-12
2.71153e-12
3.08123e-13
2.15901e-13
7.19542e-13
2.52975e-12
3.03112e-12
1.70883e-12
2.74271e-14
7.42106e-14
2.10974e-13
3.38338e-13
5.27347e-13
1.018e-12
2.26149e-12
3.78133e-12
4.12191e-12
3.75261e-12
2.8087e-12
8.38968e-13
1.20174e-13
1.00601e-14
1.16024e-13
6.82537e-13
2.21529e-12
2.58818e-12
1.55639e-12
5.50569e-15
2.13515e-14
4.68948e-14
8.78692e-14
1.80863e-13
4.477e-13
8.95906e-13
1.12823e-12
1.0448e-12
8.33414e-13
2.66091e-13
3.52258e-14
1.46469e-15
1.37734e-15
1.10147e-13
6.59981e-13
1.82753e-12
2.18148e-12
1.27052e-12
8.76119e-16
4.40783e-15
1.33432e-14
3.4287e-14
7.47999e-14
1.71327e-13
2.10227e-13
2.139e-13
1.87001e-13
6.27461e-14
8.70103e-15
4.23963e-16
1.828e-16
9.21774e-16
8.16313e-14
4.50345e-13
1.44836e-12
1.83309e-12
1.07926e-12
1.17802e-16
9.3227e-16
4.01433e-15
1.61112e-14
2.68745e-14
3.44514e-14
3.59129e-14
3.22522e-14
1.22589e-14
2.05863e-15
1.15627e-16
4.74022e-17
1.84473e-16
1.1774e-15
5.55124e-14
3.31154e-13
1.08948e-12
1.5511e-12
8.91492e-13
1.46133e-17
1.82663e-16
1.4447e-15
3.1472e-15
4.30858e-15
4.79792e-15
4.49027e-15
3.39445e-15
9.40841e-16
8.92806e-17
4.69044e-18
4.67243e-17
4.71334e-16
2.07256e-15
3.37761e-14
2.74572e-13
9.26676e-13
1.27928e-12
6.71607e-13
2.74923e-18
5.43804e-17
2.41002e-16
3.88131e-16
4.68136e-16
4.70527e-16
4.06325e-16
1.84376e-16
3.60504e-17
1.61571e-18
2.86882e-18
6.28138e-17
6.44434e-16
4.18055e-15
3.46343e-14
2.55459e-13
8.13936e-13
9.59918e-13
4.3126e-13
5.84903e-19
9.90937e-18
2.36953e-17
3.57301e-17
4.16365e-17
3.95272e-17
2.80158e-17
6.41925e-18
4.9736e-19
8.73478e-20
2.86196e-18
7.33775e-17
8.06205e-16
6.34398e-15
5.99758e-14
2.80418e-13
6.90621e-13
6.66123e-13
2.45188e-13
1.20455e-19
1.03965e-18
1.9836e-18
2.79743e-18
2.90369e-18
2.39396e-18
1.19652e-18
1.42653e-19
6.94172e-21
5.86889e-20
2.44761e-18
7.67381e-17
8.62223e-16
7.43858e-15
7.14386e-14
3.14833e-13
5.79045e-13
5.18802e-13
1.4123e-13
1.71644e-20
6.87054e-20
1.27767e-19
1.54839e-19
1.4308e-19
9.07822e-20
2.79669e-20
1.99233e-21
2.82245e-21
4.6864e-20
1.0411e-18
4.92923e-17
6.04987e-16
7.00719e-15
6.29996e-14
2.7208e-13
4.067e-13
3.08569e-13
7.37627e-14
1.54928e-21
4.62021e-21
7.0273e-21
7.507e-21
5.89715e-21
2.39068e-21
2.83206e-22
1.63658e-22
2.13582e-21
3.31784e-20
5.33437e-19
1.19383e-17
2.09098e-16
4.57669e-15
3.79687e-14
1.32643e-13
2.07e-13
1.55115e-13
3.0876e-14
1.00958e-22
2.38085e-22
3.20959e-22
2.94662e-22
1.65504e-22
3.3374e-23
1.08814e-23
8.15076e-23
1.16362e-21
1.57381e-20
1.99603e-19
3.62363e-18
1.09186e-16
2.16056e-15
1.48665e-14
4.43826e-14
6.3785e-14
4.54612e-14
1.12231e-14
6.05593e-24
1.15934e-23
1.26788e-23
9.39087e-24
2.89537e-24
1.31302e-24
5.93105e-24
4.54666e-23
4.66431e-22
4.90847e-21
4.23318e-20
1.07213e-18
4.71747e-17
6.86575e-16
5.04332e-15
1.04342e-14
1.32997e-14
1.16849e-14
3.03372e-15
2.78385e-25
4.10479e-25
3.799e-25
1.72307e-25
1.57849e-25
7.82715e-25
4.90887e-24
2.94934e-23
1.73102e-22
1.19125e-21
8.40754e-21
1.84922e-19
1.40201e-17
1.43068e-16
1.28029e-15
2.31265e-15
2.53606e-15
1.84333e-15
8.41622e-16
1.28208e-26
1.47473e-26
9.7794e-27
1.36709e-26
9.47193e-26
6.69761e-25
4.17886e-24
2.20839e-23
9.7509e-23
3.93485e-22
1.76183e-21
1.45978e-20
2.07732e-18
1.80148e-17
1.36686e-16
3.75212e-16
5.48042e-16
4.04756e-16
1.61299e-16
5.04572e-28
4.64795e-28
1.00602e-27
8.3995e-27
7.72131e-26
5.38808e-25
3.24896e-24
1.57846e-23
6.11605e-23
1.95917e-22
5.58134e-22
1.9529e-21
5.07622e-20
1.55775e-18
1.50179e-17
4.73576e-17
4.42119e-17
3.12409e-17
3.77351e-17
2.17699e-29
5.91785e-29
6.18419e-28
6.75129e-27
6.14761e-26
4.13467e-25
2.24816e-24
9.74331e-24
3.34376e-23
9.20862e-23
2.19434e-22
4.59815e-22
2.21375e-21
4.41212e-20
1.52735e-18
2.32247e-18
2.70213e-18
3.62555e-18
8.81845e-18
3.00957e-30
3.54145e-29
5.28637e-28
5.94878e-27
4.86682e-26
2.84302e-25
1.28247e-24
4.77766e-24
1.39533e-23
3.31488e-23
7.0034e-23
1.1266e-22
1.79177e-22
4.34211e-22
4.09731e-20
9.70611e-20
1.13588e-19
5.96921e-19
3.55951e-18
1.81086e-30
3.55539e-29
5.55806e-28
5.43777e-27
3.59178e-26
1.73178e-25
6.48407e-25
1.94473e-24
4.79198e-24
1.0108e-23
1.80844e-23
2.62051e-23
4.03658e-23
3.12215e-23
4.40214e-23
1.43207e-21
2.07115e-20
2.34388e-19
1.29405e-18
2.69572e-30
4.64538e-29
5.26232e-28
3.64729e-27
1.74865e-26
6.52479e-26
1.94082e-25
4.75024e-25
1.00509e-24
2.03368e-24
3.38792e-24
4.89987e-24
6.77461e-24
4.91441e-24
1.20225e-23
3.56932e-22
5.11667e-21
5.16893e-20
1.97674e-19
4.04683e-30
3.99138e-29
2.45905e-28
1.05875e-27
3.51517e-27
9.77976e-27
2.47142e-26
5.3011e-26
9.84629e-26
1.66278e-25
2.35385e-25
3.09163e-25
3.85885e-25
1.63693e-25
3.22666e-25
1.38222e-23
2.6531e-22
1.65838e-21
5.05936e-22
)
;

boundaryField
{
    leftWall
    {
        type            zeroGradient;
    }
    rightWall
    {
        type            zeroGradient;
    }
    lowerWall
    {
        type            zeroGradient;
    }
    atmosphere
    {
        type            inletOutlet;
        inletValue      uniform 0;
        value           nonuniform List<scalar> 
46
(
1.13059e-14
1.45985e-14
7.55751e-15
2.71986e-15
8.40001e-16
2.29331e-16
5.54106e-17
1.17942e-17
2.29851e-18
4.08923e-19
6.37261e-20
8.93048e-21
1.10907e-21
1.10989e-22
1.80221e-24
3.0965e-26
5.54688e-28
1.54245e-29
7.72276e-31
6.37504e-32
6.54729e-33
6.76008e-34
0
0
0
0
0
0
0
0
0
0
0
0
0
0
0
0
0
0
0
0
0
0
0
0
)
;
    }
    defaultFaces
    {
        type            empty;
    }
}


// ************************************************************************* //
