/*--------------------------------*- C++ -*----------------------------------*\
| =========                 |                                                 |
| \\      /  F ield         | OpenFOAM: The Open Source CFD Toolbox           |
|  \\    /   O peration     | Version:  2312                                  |
|   \\  /    A nd           | Website:  www.openfoam.com                      |
|    \\/     M anipulation  |                                                 |
\*---------------------------------------------------------------------------*/
FoamFile
{
    version     2.0;
    format      ascii;
    arch        "LSB;label=32;scalar=64";
    class       volScalarField;
    location    "1";
    object      alpha.oil;
}
// * * * * * * * * * * * * * * * * * * * * * * * * * * * * * * * * * * * * * //

dimensions      [0 0 0 0 0 0 0];

internalField   nonuniform List<scalar> 
2268
(
9.55539e-23
1.12023e-21
1.68322e-18
1.69361e-16
2.6631e-15
1.31855e-14
4.10866e-14
1.61371e-13
7.81837e-13
2.02241e-12
3.46004e-12
6.13131e-12
1.1382e-11
2.03287e-11
3.56512e-11
6.13159e-11
1.03892e-10
1.54642e-10
1.85991e-10
2.30339e-10
8.91896e-10
3.3131e-05
7.28137e-05
2.48993e-17
2.63219e-15
2.05348e-14
8.97336e-14
2.88038e-13
6.76295e-13
1.28272e-12
2.19947e-12
3.78278e-12
7.2413e-12
1.19798e-11
1.97109e-11
3.42035e-11
6.16422e-11
1.11596e-10
2.12055e-10
4.322e-10
7.25058e-10
9.25049e-10
2.56422e-09
8.8946e-10
2.11329e-05
6.83547e-05
2.45147e-15
3.84472e-14
2.69425e-13
1.00236e-12
2.91899e-12
5.85273e-12
9.58266e-12
1.35599e-11
1.82198e-11
2.43319e-11
3.26205e-11
4.34803e-11
7.73936e-11
1.34922e-10
2.09962e-10
4.20139e-10
8.15998e-10
1.20997e-09
9.39566e-10
4.07304e-08
3.63401e-07
3.71188e-07
8.82639e-07
2.9616e-14
3.98232e-13
1.94088e-12
6.20478e-12
1.36922e-11
2.17859e-11
2.87322e-11
3.48234e-11
3.97546e-11
4.9533e-11
8.11397e-11
4.26599e-11
4.24402e-11
4.26609e-11
4.2447e-11
4.0836e-10
4.09609e-10
4.10425e-10
4.11773e-10
7.32288e-10
6.23479e-07
4.1633e-06
1.22149e-05
2.98699e-13
2.53043e-12
8.35373e-12
1.80471e-11
2.05774e-11
1.30537e-11
-1.19355e-14
-8.28696e-15
-7.82685e-15
-2.90419e-14
2.40943e-08
6.98795e-07
1.78168e-06
2.01523e-06
1.35761e-06
4.0961e-10
2.35927e-06
1.29817e-05
2.09543e-05
6.82072e-06
6.25358e-07
6.30623e-07
3.06082e-05
2.05664e-12
7.87346e-12
1.38461e-11
1.10847e-11
7.60687e-12
7.54332e-12
1.72561e-08
1.11205e-07
2.71172e-07
4.96623e-07
7.56416e-06
3.24991e-05
5.3519e-05
6.39259e-05
6.9594e-05
0.000110479
0.000257727
0.000518118
0.000608415
0.000514986
0.000243551
0.000580188
3.52687e-05
4.82198e-12
1.45263e-11
1.73576e-11
1.11361e-11
4.46954e-09
1.27438e-07
7.37819e-07
2.29276e-06
3.94192e-06
6.47114e-06
1.69804e-05
4.96152e-05
7.12844e-05
8.9372e-05
0.000115974
0.000276365
0.000466299
0.000782501
0.000815627
0.00091729
0.00083723
0.0026392
0.0383489
6.95171e-12
1.40375e-11
1.40739e-11
3.73084e-08
2.63045e-07
6.78913e-07
1.39682e-06
2.17282e-06
3.01984e-06
4.77048e-06
8.63234e-06
1.18752e-05
6.0189e-06
3.92258e-06
3.48026e-06
7.13702e-05
0.000114988
0.000106148
0.00010815
0.000111533
0.000116417
0.000765905
0.131795
0.591267
0.589407
0.766316
0.82274
0.822679
0.818823
0.810687
0.788429
0.497279
0.0762932
0.042068
0.0417086
0.0806832
0.0916962
0.091805
0.0345071
0.0237949
0.245345
0.546495
0.65906
0.612364
0.724535
0.759548
0.603359
0.389907
0.287624
0.248411
0.285387
0.332947
0.332563
0.141738
0.00904891
0.0104751
0.000368334
0.000367464
0.0146012
0.275146
0.238665
0.85204
0.775265
0.568478
0.189626
0.0717533
0.0727924
0.114792
0.142433
0.10718
0.153838
0.146003
0.0351791
0.00906407
0.0161008
0.00205138
0.000368345
0.0892148
0.450626
0.236847
0.846002
0.6679
0.169916
0.147249
0.306007
0.489615
0.655738
0.709152
0.437139
0.0542037
0.0271468
0.0316913
0.0871353
0.075826
0.0781186
0.0922172
0.338305
0.583323
0.617167
0.77947
0.323523
0.275615
0.416799
0.503131
0.499563
0.578167
0.709651
0.392655
0.0352495
0.0281726
0.27749
0.436164
0.354977
0.315283
0.385956
0.478943
0.488943
0.714411
0.64719
0.222012
0.310834
0.381217
0.219168
0.0826545
0.189817
0.535898
0.252328
0.0370565
0.224325
0.526156
0.532962
0.557746
0.558052
0.533769
0.329258
0.193502
0.760721
0.636469
0.198444
0.150972
0.160459
0.0581978
0.0845392
0.278543
0.53161
0.431153
0.169506
0.465511
0.521088
0.527179
0.557819
0.557728
0.456491
0.101746
0.0958631
0.69188
0.64043
0.196496
0.0217466
0.0217396
0.0937267
0.416324
0.417346
0.572072
0.610306
0.605134
0.606064
0.363993
0.393056
0.499887
0.524708
0.18405
0.0856684
0.14041
0.787528
6.39372e-12
1.60208e-11
7.93377e-10
9.01862e-09
1.61801e-08
2.27548e-08
2.21822e-08
-2.65096e-16
-3.74883e-16
4.33463e-25
9.56738e-09
9.74332e-09
3.75502e-08
4.15512e-08
4.13809e-08
2.86998e-05
5.67504e-05
7.13936e-05
0.00863118
0.0492382
0.140261
0.43357
0.592451
4.43017e-12
6.11395e-12
9.66313e-11
4.42793e-11
9.41631e-11
6.50218e-10
1.14778e-10
3.29977e-11
-4.07401e-27
2.47927e-09
7.11911e-09
1.05337e-07
0.000938653
0.00833654
0.00831727
0.00307106
5.71938e-05
0.0549749
0.406235
0.650995
0.649161
0.391668
0.288407
1.50161e-12
6.61256e-13
2.48941e-11
2.52014e-11
3.49966e-09
1.87694e-08
8.77995e-09
1.85167e-13
1.27982e-24
9.28404e-19
0.00402802
0.00345498
0.0140472
0.107428
0.0992852
0.0300496
0.447973
0.525559
0.509322
0.579267
0.770757
0.592645
0.0319155
1.0777e-13
1.01833e-13
7.38214e-09
1.03673e-09
1.05717e-07
1.18699e-07
8.79747e-09
1.32428e-05
4.50025e-06
1.81667e-09
0.127261
0.182839
0.243904
0.648273
0.646101
0.370388
0.429552
0.569434
0.752787
0.807758
0.807741
0.787282
0.248347
8.87528e-13
4.34239e-08
7.98419e-08
1.32834e-07
1.10606e-07
1.16715e-07
0.0273682
0.0142344
0.106845
0.124784
0.604432
0.676957
0.611061
0.223718
0.0984266
0.0612598
0.332098
0.777986
0.807758
0.807796
0.807758
0.806837
0.524684
6.17718e-10
4.04661e-07
8.24646e-08
2.22535e-07
0.0342086
0.00680422
0.146853
0.068872
0.646417
0.882715
0.735316
0.151618
0.0283802
0.0155798
0.0155732
0.0155937
0.0418528
0.448706
0.750069
0.807827
0.807572
0.777511
0.598164
6.20125e-10
6.22515e-10
0.00413722
0.000498224
0.155426
0.100385
0.19434
0.610648
0.998587
0.789619
0.098856
0.0155818
0.0155667
0.0155665
0.015567
0.238826
0.729429
0.855328
0.856601
0.730118
0.72976
0.767401
0.969378
0.0185436
3.06765e-07
0.0655274
0.0320643
0.10625
0.349489
0.70969
0.993675
0.999937
0.738717
0.0299131
0.0155655
0.0155664
0.0164476
0.513673
0.957159
0.99994
0.999934
0.999936
0.972448
0.934625
0.943557
0.96975
0.218602
0.12573
0.096108
0.130628
0.366184
0.781626
0.999962
0.999993
0.999993
0.973884
0.54539
0.17976
0.1916
0.708886
0.947819
0.952715
0.94778
0.736855
0.618322
0.580142
0.54475
0.365528
0.228124
0.504712
0.461647
0.390767
0.414996
0.734443
0.999753
0.999994
0.999994
0.999994
0.999993
0.999981
0.944391
0.750743
0.64155
0.611541
0.398127
0.169475
0.060267
0.0238948
0.0138276
0.00829699
0.00133853
1.29146e-20
0.855118
0.801674
0.508611
0.694411
0.99989
0.999994
0.999994
0.999994
0.999994
0.96504
0.707488
0.49626
0.295154
0.117698
0.0223077
0.000638943
3.42086e-07
1.07342e-08
1.0461e-08
1.07386e-08
1.04564e-08
1.57831e-08
5.61631e-07
0.856531
0.993423
0.934004
0.964721
0.999994
0.999994
0.999994
0.999994
0.834123
0.27746
0.0428896
0.00644103
6.86939e-07
8.09343e-07
3.92536e-07
1.86839e-08
1.99213e-08
1.76823e-08
2.97012e-08
4.54903e-08
4.83983e-08
1.34118e-07
5.41241e-07
0.865131
0.999971
0.999972
0.99999
0.999994
0.999994
0.999994
0.741826
0.187064
1.93053e-07
3.77456e-07
7.05375e-09
1.41666e-08
1.08365e-07
1.83171e-08
1.85692e-08
2.09113e-08
7.93174e-08
8.68071e-08
8.3967e-08
6.70021e-08
3.44988e-08
1.82187e-09
0.826509
0.999969
0.999954
0.999812
0.999714
0.947577
0.526891
0.0977731
2.47738e-07
1.5037e-08
6.9802e-09
6.97643e-09
1.21631e-08
2.57219e-08
2.02843e-08
2.0323e-08
2.29993e-08
2.22372e-08
6.30285e-09
5.37585e-09
1.74544e-09
1.64429e-09
1.65826e-09
0.77584
0.999968
0.999926
0.999625
0.689335
0.234257
0.0140542
1.12758e-06
6.64176e-08
1.51354e-08
7.1133e-09
6.97778e-09
7.18101e-09
1.13175e-08
1.96241e-08
2.00635e-08
1.70492e-08
8.27301e-09
4.31524e-09
1.8942e-09
1.81287e-09
1.67731e-09
1.71428e-09
0.77536
0.999967
0.988176
0.548932
0.0664963
9.62167e-10
9.57955e-10
6.77735e-09
9.5089e-08
6.32664e-08
1.89117e-08
6.96899e-09
6.96918e-09
6.97003e-09
8.77744e-09
9.07231e-09
7.23062e-09
5.31943e-09
4.38432e-09
3.03454e-09
2.32726e-09
1.82703e-09
1.72333e-09
0.849808
0.999967
0.691023
0.0455743
9.62982e-10
9.57547e-10
9.66472e-10
2.21562e-09
6.27631e-08
5.53105e-08
2.61475e-08
8.08437e-09
8.15938e-09
9.22381e-09
9.1521e-09
7.95926e-09
6.26448e-09
4.75045e-09
3.59129e-09
2.11169e-09
1.61391e-09
1.39833e-09
1.46563e-09
0.920911
0.952993
0.118161
1.11853e-06
9.79117e-10
3.60477e-09
1.01621e-09
1.92019e-09
6.05837e-09
6.95412e-09
1.48221e-08
1.19725e-08
1.18159e-08
1.08656e-08
8.99314e-09
6.80435e-09
4.58231e-09
2.89836e-09
1.99863e-09
1.2365e-09
1.02824e-09
1.00553e-09
1.35687e-09
0.913375
0.375064
3.64561e-06
3.22231e-09
3.08187e-09
4.77612e-09
8.31511e-10
8.19405e-10
6.09122e-10
6.18975e-10
6.87696e-09
1.12245e-08
9.63595e-09
7.51954e-09
5.69777e-09
3.91519e-09
2.52104e-09
1.59965e-09
1.00098e-09
6.99315e-10
6.81703e-10
8.04239e-10
1.40447e-09
0.911695
0.0318979
1.44612e-07
3.31354e-09
4.67337e-09
3.87495e-09
6.03313e-10
6.07719e-10
8.88918e-08
5.38975e-08
3.52055e-08
1.09874e-08
6.65264e-09
4.62568e-09
3.16261e-09
2.12681e-09
1.37591e-09
8.34731e-10
5.45385e-10
4.6402e-10
5.5056e-10
6.94473e-10
1.50724e-09
0.911472
0.0441792
3.31591e-09
1.34259e-08
1.61299e-08
2.56492e-09
6.0772e-10
1.56994e-07
8.62264e-07
7.33116e-07
1.22788e-07
1.81415e-08
6.7237e-09
3.88891e-09
2.31903e-09
1.38303e-09
8.00275e-10
4.64812e-10
3.25171e-10
3.40314e-10
4.463e-10
6.68506e-10
1.40066e-09
0.911193
0.0751856
3.28485e-09
1.33013e-08
1.77952e-08
2.47645e-09
1.28731e-07
9.51697e-07
9.74464e-07
8.85324e-07
1.11679e-07
1.56592e-08
5.08701e-09
2.70037e-09
1.5402e-09
8.50912e-10
4.46605e-10
2.54417e-10
2.0486e-10
2.64172e-10
3.70929e-10
5.50581e-10
9.72489e-10
0.491346
0.0566428
3.31577e-09
3.29581e-09
1.05182e-08
2.47178e-09
4.12554e-07
9.60137e-07
9.49914e-07
2.41495e-07
3.86247e-08
8.45574e-09
3.08029e-09
1.60272e-09
8.98273e-10
4.70264e-10
2.34215e-10
1.38666e-10
1.33912e-10
1.85772e-10
2.73613e-10
3.89663e-10
5.01966e-10
0.00372909
0.00761533
0.000278238
2.15445e-07
2.5061e-09
2.47675e-09
1.98669e-07
3.87099e-07
1.75126e-07
4.3978e-08
1.04408e-08
3.39796e-09
1.65295e-09
9.28697e-10
4.89162e-10
2.33598e-10
1.11475e-10
7.42437e-11
8.44953e-11
1.26174e-10
1.71042e-10
2.09078e-10
2.44844e-10
1.50173e-08
1.6012e-08
0.000100597
6.30992e-06
5.20247e-08
7.66039e-08
7.25082e-08
5.1669e-08
2.21162e-08
8.35611e-09
3.29777e-09
1.6969e-09
9.78613e-10
5.22496e-10
2.48226e-10
1.08238e-10
5.10562e-11
3.95159e-11
5.0294e-11
7.32753e-11
9.49515e-11
1.07997e-10
1.11384e-10
5.08478e-07
3.48821e-08
4.54943e-07
4.19402e-07
5.18888e-07
2.69575e-07
3.94895e-08
9.92164e-09
5.63258e-09
3.05824e-09
1.76789e-09
1.05182e-09
5.71336e-10
2.73183e-10
1.16189e-10
4.68245e-11
2.25824e-11
2.03884e-11
2.78058e-11
3.89058e-11
4.68732e-11
4.97755e-11
4.75577e-11
2.31194e-05
7.8798e-08
4.83836e-06
8.53617e-06
3.05093e-06
6.74161e-08
1.18046e-08
4.89496e-09
3.11818e-09
1.91752e-09
1.15385e-09
6.33141e-10
3.06705e-10
1.31263e-10
5.03935e-11
1.89553e-11
9.7439e-12
1.00152e-11
1.37651e-11
1.81687e-11
2.09593e-11
2.07701e-11
1.87659e-11
3.30275e-05
2.67644e-05
3.34993e-05
2.99265e-05
2.21004e-06
5.21091e-08
6.61531e-09
3.4095e-09
2.15658e-09
1.27414e-09
6.96131e-10
3.40502e-10
1.47576e-10
5.70062e-11
2.00002e-11
7.13512e-12
4.04488e-12
4.54222e-12
6.15159e-12
7.65505e-12
8.41716e-12
7.82254e-12
6.63007e-12
1.5894e-05
3.46115e-05
3.48992e-05
1.33549e-05
1.23732e-07
1.15976e-08
3.95888e-09
2.40253e-09
1.41975e-09
7.60664e-10
3.70409e-10
1.61987e-10
6.32657e-11
2.21428e-11
7.13645e-12
2.51482e-12
1.63589e-12
1.96905e-12
2.54915e-12
2.9612e-12
2.99561e-12
2.68508e-12
2.08622e-12
9.58284e-08
1.6967e-05
6.5006e-06
9.59232e-08
1.57982e-08
5.00016e-09
2.63983e-09
1.50474e-09
8.22098e-10
4.00512e-10
1.74321e-10
6.85941e-11
2.40828e-11
7.69587e-12
2.30876e-12
8.40839e-13
6.34426e-13
7.9318e-13
9.71138e-13
1.04782e-12
1.00142e-12
8.16227e-13
5.91593e-13
1.59068e-08
2.51605e-08
5.03206e-08
1.31838e-08
5.27973e-09
2.7894e-09
1.478e-09
8.43797e-10
4.32405e-10
1.74763e-10
6.41064e-11
2.41309e-11
8.12927e-12
2.39698e-12
6.83667e-13
2.76228e-13
2.46587e-13
2.97952e-13
3.41104e-13
3.43538e-13
3.03906e-13
2.36652e-13
1.59556e-13
1.57909e-08
1.61578e-08
1.36403e-08
5.58087e-09
3.04958e-09
1.46981e-09
7.96402e-10
3.60818e-10
1.66588e-10
6.82986e-11
2.53364e-11
8.26316e-12
2.38154e-12
6.33261e-13
1.76803e-13
8.70863e-14
9.06178e-14
1.05805e-13
1.11542e-13
1.03706e-13
8.62575e-14
6.02639e-14
3.76983e-14
1.54172e-08
9.55245e-09
5.70631e-09
3.01896e-09
1.53087e-09
7.58315e-10
3.32563e-10
1.53515e-10
6.61452e-11
2.35724e-11
7.64576e-12
2.27686e-12
6.211e-13
1.61047e-13
4.70365e-14
2.85767e-14
3.16258e-14
3.56443e-14
3.42629e-14
2.9061e-14
2.17146e-14
1.39725e-14
7.99057e-15
1.06736e-08
5.53376e-09
2.9533e-09
1.54902e-09
6.97572e-10
2.75322e-10
1.41503e-10
5.70624e-11
1.98701e-11
6.92324e-12
2.17742e-12
6.05156e-13
1.52274e-13
3.55062e-14
1.14478e-14
9.00564e-15
1.03763e-14
1.0924e-14
9.61299e-15
7.43179e-15
5.0861e-15
2.96502e-15
1.51173e-15
4.08606e-09
2.31581e-09
1.22328e-09
5.75184e-10
2.45667e-10
1.14166e-10
4.84301e-11
1.80487e-11
6.03e-12
1.77542e-12
4.93381e-13
1.2923e-13
3.17886e-14
7.54012e-15
2.99241e-15
2.82333e-15
3.19198e-15
3.15554e-15
2.58238e-15
1.80674e-15
1.08837e-15
5.6693e-16
2.6613e-16
1.63219e-09
8.77035e-10
3.95695e-10
1.71037e-10
7.80691e-11
3.37762e-11
1.28971e-11
4.48517e-12
1.41843e-12
4.1544e-13
1.12366e-13
2.53498e-14
5.49765e-15
1.43323e-15
7.60938e-16
8.16985e-16
9.22732e-16
8.51721e-16
6.53574e-16
4.01362e-16
2.17317e-16
1.01812e-16
4.43567e-17
3.16706e-10
2.65508e-10
1.32989e-10
5.44988e-11
2.18749e-11
8.73464e-12
3.16562e-12
1.0464e-12
3.13963e-13
8.52192e-14
2.08268e-14
4.66747e-15
9.83239e-16
2.62596e-16
1.99373e-16
2.34474e-16
2.39657e-16
2.076e-16
1.44424e-16
8.38087e-17
4.08275e-17
1.76342e-17
7.12838e-18
7.32616e-11
6.61338e-11
2.97105e-11
1.18411e-11
5.43839e-12
2.11074e-12
7.36306e-13
2.31507e-13
6.57644e-14
1.65077e-14
3.66748e-15
7.53716e-16
1.54601e-16
5.70658e-17
5.54179e-17
6.24038e-17
6.19297e-17
5.01378e-17
3.24037e-17
1.74324e-17
7.34548e-18
2.80996e-18
1.0387e-18
7.16918e-12
1.38069e-11
6.67919e-12
2.91013e-12
1.24785e-12
4.65767e-13
1.55227e-13
4.61803e-14
1.23763e-14
2.92411e-15
6.07882e-16
1.15629e-16
2.48429e-17
1.32262e-17
1.48389e-17
1.64701e-17
1.50069e-17
1.11781e-17
6.75831e-18
3.32668e-18
1.27103e-18
4.26427e-19
1.41566e-19
1.56811e-12
2.34522e-12
1.25246e-12
6.42805e-13
2.59034e-13
9.24002e-14
2.92995e-14
8.22777e-15
2.07799e-15
4.64087e-16
9.11898e-17
1.66032e-17
4.18729e-18
3.18165e-18
3.76573e-18
3.96962e-18
3.37798e-18
2.34085e-18
1.3142e-18
5.98769e-19
2.1077e-19
6.06204e-20
1.7959e-20
2.44433e-13
3.89416e-13
2.69888e-13
1.26279e-13
4.86444e-14
1.65898e-14
5.00168e-15
1.32787e-15
3.16414e-16
6.66884e-17
1.24001e-17
2.23831e-18
7.60585e-19
7.64499e-19
9.0094e-19
8.95619e-19
7.14568e-19
4.61577e-19
2.40057e-19
1.01014e-19
3.2147e-20
7.77319e-21
2.06977e-21
5.42642e-14
8.25696e-14
5.1911e-14
2.24784e-14
8.32284e-15
2.70633e-15
7.73866e-16
1.93888e-16
4.37578e-17
8.83365e-18
1.55834e-18
2.9631e-19
1.50596e-19
1.78649e-19
2.03267e-19
1.89668e-19
1.42504e-19
8.5424e-20
4.10708e-20
1.59845e-20
4.60898e-21
1.00925e-21
2.42031e-22
0.49257
0.333783
0.417185
0.532433
0.0436928
0.0596601
0.0820215
0.102878
0.0305335
0.0360577
0.0457343
0.0459043
0.0620166
0.469684
0.687295
0.6872
0.420488
0.496176
0.576123
0.584949
0.598018
0.598353
0.816111
0.999427
0.968906
0.979631
0.996538
0.99943
0.961687
0.938515
0.926417
0.914181
0.24401
0.268015
0.209948
0.162701
2.26901e-20
-1.47328e-09
1.98737e-25
-6.15236e-25
8.2351e-07
8.25187e-07
8.27999e-07
7.11645e-07
5.04487e-07
8.04698e-07
1.76491e-06
2.42701e-06
5.82179e-09
1.5491e-09
1.56441e-09
1.58429e-09
1.59081e-09
1.57631e-09
1.71458e-09
1.59636e-09
1.72562e-09
1.7649e-09
1.92867e-09
1.96791e-09
1.73901e-09
1.81215e-09
1.98e-09
2.02297e-09
1.66301e-09
1.8491e-09
2.01264e-09
1.69803e-09
1.60612e-09
2.03583e-09
2.29652e-09
1.47133e-09
1.79751e-09
2.44435e-09
3.25925e-09
1.49743e-09
1.77149e-09
2.58291e-09
5.02655e-09
5.56255e-09
1.64274e-09
2.39285e-09
4.47301e-09
6.63329e-09
1.17278e-09
1.32531e-09
1.45566e-09
1.67804e-09
5.43508e-10
5.66995e-10
5.67476e-10
5.54e-10
2.52709e-10
2.47636e-10
2.38396e-10
2.2239e-10
1.09809e-10
1.02306e-10
9.31248e-11
8.40121e-11
4.43389e-11
3.97672e-11
3.43735e-11
2.86555e-11
1.65899e-11
1.43317e-11
1.17716e-11
9.89622e-12
5.7177e-12
4.58023e-12
3.6688e-12
2.94476e-12
1.80415e-12
1.36593e-12
1.07881e-12
8.18719e-13
4.82471e-13
3.72896e-13
2.80554e-13
2.08693e-13
1.25889e-13
9.16279e-14
6.40657e-14
4.79904e-14
2.82221e-14
1.88439e-14
1.39823e-14
9.32109e-15
5.50549e-15
3.53429e-15
2.42416e-15
1.70248e-15
9.85514e-16
6.55336e-16
4.47441e-16
2.92298e-16
1.67636e-16
1.05329e-16
7.11845e-17
4.90881e-17
2.70584e-17
1.7067e-17
1.12603e-17
9.08734e-18
4.18874e-18
2.5042e-18
1.74441e-18
2.12985e-18
5.65541e-19
3.45475e-19
2.97953e-19
6.85731e-19
7.31474e-20
4.73436e-20
6.94123e-20
2.74779e-19
8.87771e-21
7.70329e-21
2.24582e-20
1.32631e-19
1.14441e-21
1.79595e-21
1.10985e-20
1.17925e-19
1.82661e-22
9.09328e-22
1.4567e-20
2.20428e-19
0.529116
0.0243255
0.0233312
0.0292841
0.286729
0.507007
0.463315
0.461005
0.600925
0.834751
0.674057
0.353475
0.122284
0.301495
0.336735
0.107638
0.0899074
0.241229
0.931129
0.0520849
0.0267206
0.0274605
0.128879
0.481071
0.485568
0.489101
0.796444
0.847355
0.853953
0.606864
0.124083
0.0649402
0.0649519
0.0762113
0.115086
0.159069
0.820963
0.974253
0.0461929
0.193562
0.425549
0.567446
0.56731
0.488426
0.467176
0.636074
0.853971
0.854239
0.84351
0.593112
0.135072
0.0649427
0.0669435
0.162669
0.538499
0.965067
0.974245
0.675113
0.844806
0.95202
0.918187
0.518849
0.403453
0.402563
0.45807
0.546763
0.604353
0.627249
0.553736
0.499299
0.258284
0.313645
0.579196
0.774036
0.853288
0.794809
0.802501
0.999547
0.999801
0.962624
0.891681
0.848275
0.819262
0.746757
0.509936
0.467773
0.448024
0.456312
0.482958
0.596638
0.657358
0.656164
0.57388
0.392089
0.179807
0.998089
0.999781
0.999804
0.999808
0.999807
0.999802
0.999689
0.999099
0.994311
0.964915
0.871656
0.689277
0.657304
0.590698
0.452237
0.270639
0.0974128
0.0194594
3.49229e-05
0.999426
0.999544
0.999804
0.999808
0.999808
0.996756
0.91574
0.685226
0.431548
0.277555
0.204281
0.167033
0.0907417
0.025313
1.88952e-10
2.90652e-10
7.65391e-07
6.53314e-07
2.48446e-05
0.889705
0.851285
0.822768
0.799023
0.742912
0.483985
0.130669
1.11487e-09
3.53056e-09
1.99417e-09
1.95093e-08
2.78649e-22
-2.20688e-17
-2.1989e-07
8.07038e-07
4.2015e-05
5.57651e-05
3.80124e-05
3.39954e-05
0.138097
0.106929
0.0821104
0.0472736
0.00475675
2.32052e-11
2.5091e-11
5.51625e-07
2.13265e-05
0.000153615
0.000906494
0.00141772
0.00118307
0.000208202
1.28767e-08
0.000169008
0.00054725
0.000375767
0.000221516
5.12328e-22
-9.68185e-26
4.1079e-19
4.62273e-25
4.10785e-19
6.94682e-07
1.19381e-06
1.78082e-06
1.49899e-06
0.000497618
0.00214021
0.00213272
0.00148867
1.28362e-08
1.36889e-08
0.000203893
0.000673401
0.000670837
0.000639041
5.93659e-07
3.69783e-07
3.56478e-07
8.47339e-07
2.06575e-06
3.37477e-06
1.12727e-06
5.46877e-07
5.29114e-07
7.00357e-05
0.00045208
0.000583027
1.34575e-08
1.53248e-08
2.21063e-08
1.98064e-06
7.25664e-05
0.000149294
9.17395e-06
2.50052e-06
2.52671e-06
1.48386e-06
8.4337e-07
1.53167e-06
1.05021e-05
6.00277e-05
8.78995e-05
2.59577e-05
1.35602e-08
1.37376e-08
1.35094e-08
1.36914e-08
1.2168e-07
4.91629e-07
2.17901e-09
1.74839e-05
8.40704e-05
9.81847e-06
7.6801e-07
7.47151e-06
1.40293e-05
1.22586e-05
3.13167e-06
2.81621e-06
8.88351e-05
0.000300132
0.000290657
8.10903e-05
3.85886e-06
1.56212e-08
1.39668e-08
2.56592e-08
2.69706e-08
2.21063e-09
0.000166437
0.00140778
7.62095e-05
1.52334e-09
1.52464e-09
1.25615e-05
1.78536e-05
1.48214e-05
2.83603e-06
1.05907e-06
0.000259837
0.000321291
0.000321674
7.70106e-05
1.51553e-08
1.51197e-08
1.93657e-08
5.03007e-09
2.22441e-09
0.000145774
0.00169078
0.00125756
1.74582e-09
1.52501e-09
1.55643e-09
1.5715e-05
1.86059e-05
8.19887e-06
1.02539e-06
1.23693e-07
0.000259936
0.000321376
0.000124867
1.51897e-08
1.65841e-08
9.28375e-09
3.02612e-09
2.17688e-09
2.22983e-09
0.00168985
0.00169084
4.49699e-09
1.93433e-09
2.22824e-09
4.46857e-06
1.86021e-05
1.49072e-05
1.60563e-06
1.09678e-07
9.93383e-06
7.24753e-05
3.03909e-05
9.95982e-08
2.61423e-08
9.923e-09
4.00614e-09
2.20083e-09
1.25351e-06
0.000633927
0.000124215
1.13406e-08
4.16268e-08
1.74191e-08
1.23426e-08
1.08787e-05
1.47016e-05
7.9835e-06
2.1406e-07
1.5769e-09
1.5594e-09
1.5769e-09
7.74029e-08
4.87516e-08
1.12415e-08
4.39952e-09
2.17719e-09
0.000183777
2.12354e-07
2.17372e-07
2.74885e-08
1.54857e-07
1.20465e-07
5.37999e-08
7.11288e-09
5.86613e-06
7.34547e-06
2.13884e-06
1.5594e-09
1.5526e-09
1.77831e-09
6.96252e-09
8.02655e-09
6.54311e-09
3.83479e-09
2.25606e-09
0.000287811
3.52231e-05
2.12429e-07
3.8486e-08
1.72217e-07
1.71605e-07
7.20764e-08
7.33825e-09
1.63405e-09
4.84637e-07
4.41072e-07
5.64779e-08
1.54555e-09
2.06811e-09
1.44404e-09
1.69237e-09
2.45704e-09
2.07227e-09
1.84104e-09
0.000273045
4.74303e-05
2.26116e-07
4.61169e-09
6.44671e-08
6.82287e-08
1.76007e-08
4.73498e-09
1.6915e-09
1.20861e-09
1.2002e-09
1.47322e-09
1.53812e-09
1.15146e-09
8.96547e-10
9.31988e-10
1.43266e-09
1.81502e-09
1.82802e-09
1.63287e-06
1.27031e-05
3.09161e-07
4.57947e-09
1.51791e-09
1.06032e-09
1.56179e-09
2.55573e-09
2.03642e-09
1.57264e-09
1.18366e-09
1.12954e-09
1.03158e-09
8.32011e-10
8.11277e-10
1.07836e-09
1.62388e-09
2.1902e-09
2.46635e-09
2.53045e-09
2.60743e-09
1.33003e-07
1.52586e-09
1.048e-09
9.60396e-10
1.14611e-09
1.2854e-09
1.27248e-09
1.08997e-09
8.69316e-10
6.32055e-10
5.16109e-10
5.48178e-10
7.28921e-10
1.14584e-09
1.6483e-09
1.82593e-09
6.65076e-09
1.25167e-06
1.06136e-06
1.59427e-07
5.04063e-10
4.72523e-10
4.59551e-10
4.42237e-10
4.32825e-10
3.95941e-10
3.48729e-10
2.76584e-10
2.49735e-10
2.98032e-10
4.6186e-10
7.46435e-10
1.29032e-09
1.57611e-09
1.58834e-09
1.8109e-06
1.55791e-05
1.12567e-05
2.60973e-07
1.83565e-10
1.61249e-10
1.53773e-10
1.49229e-10
1.35534e-10
1.21308e-10
1.0731e-10
1.07713e-10
1.42747e-10
2.60214e-10
4.96857e-10
8.60462e-10
1.39918e-09
1.68182e-09
1.60078e-09
8.07125e-06
1.69388e-05
1.30844e-05
2.19998e-07
6.45488e-11
5.19526e-11
4.52832e-11
4.1009e-11
3.66938e-11
3.43357e-11
3.89695e-11
6.22936e-11
1.25532e-10
2.85839e-10
5.91568e-10
9.53684e-10
1.42179e-09
1.95951e-09
1.61342e-09
4.30041e-06
1.64782e-05
2.27886e-06
5.99083e-08
2.07457e-11
1.49974e-11
1.16958e-11
1.01362e-11
1.02706e-11
1.33682e-11
2.38094e-11
5.45762e-11
1.32347e-10
3.2731e-10
6.78744e-10
1.05142e-09
1.39395e-09
2.52736e-09
3.39134e-09
3.44413e-09
3.44085e-09
2.87947e-08
2.9841e-08
6.31855e-12
4.0568e-12
2.92161e-12
2.81198e-12
4.02417e-12
8.13236e-12
1.9975e-11
5.31472e-11
1.45658e-10
3.81206e-10
7.90684e-10
1.1464e-09
1.30472e-09
3.58949e-09
9.78678e-09
1.20699e-08
1.71439e-08
2.0434e-08
3.13043e-08
1.79129e-12
1.09638e-12
8.34068e-13
1.09799e-12
2.36192e-12
6.2288e-12
1.82199e-11
5.37766e-11
1.62367e-10
4.46107e-10
9.1868e-10
1.25939e-09
1.25417e-09
5.0412e-09
9.08259e-08
1.94358e-07
1.5974e-07
1.74168e-07
5.59363e-08
4.6724e-13
2.81283e-13
2.87113e-13
5.79454e-13
1.6479e-12
5.10033e-12
1.70454e-11
5.60322e-11
1.80536e-10
5.12705e-10
1.04412e-09
1.40172e-09
1.26639e-09
5.75925e-09
2.78347e-07
3.01153e-07
3.01153e-07
3.01094e-07
1.48955e-07
1.14971e-13
7.9859e-14
1.2118e-13
3.49274e-13
1.18376e-12
4.39723e-12
1.65178e-11
5.89223e-11
1.95474e-10
5.51901e-10
1.13869e-09
1.59784e-09
1.34607e-09
8.44574e-09
2.31462e-07
3.01153e-07
3.01153e-07
3.01153e-07
1.60765e-07
2.61523e-14
2.37742e-14
5.8422e-14
2.21006e-13
9.02796e-13
3.96226e-12
1.59768e-11
5.86065e-11
1.98043e-10
5.52276e-10
1.16165e-09
1.81063e-09
1.84851e-09
3.89085e-09
1.45159e-08
2.71493e-07
3.01153e-07
2.93639e-07
5.47938e-08
5.53893e-15
8.51168e-15
3.18625e-14
1.55321e-13
7.35487e-13
3.46804e-12
1.43202e-11
5.3188e-11
1.806e-10
5.07646e-10
1.10039e-09
1.88873e-09
2.4708e-09
1.93839e-09
9.44885e-10
5.11979e-08
2.53691e-07
1.32553e-07
1.80315e-08
1.28926e-15
3.69922e-15
2.06425e-14
1.10698e-13
5.57179e-13
2.74154e-12
1.11714e-11
4.28433e-11
1.47184e-10
4.19022e-10
9.58419e-10
1.79753e-09
2.55098e-09
2.01593e-09
9.38502e-10
7.46544e-10
2.55862e-08
9.16726e-10
1.00836e-08
3.84037e-16
1.98962e-15
1.25119e-14
7.13869e-14
3.70143e-13
1.77754e-12
7.60544e-12
3.01041e-11
1.07396e-10
3.12299e-10
7.54173e-10
1.50773e-09
2.26387e-09
1.84682e-09
9.2211e-10
3.17112e-10
3.15801e-10
9.29368e-10
6.86232e-09
1.47664e-16
9.72602e-16
6.54646e-15
3.63914e-14
2.01857e-13
9.90998e-13
4.56703e-12
1.98045e-11
7.16416e-11
2.1288e-10
5.26941e-10
1.0677e-09
1.68659e-09
1.40367e-09
8.20279e-10
3.06146e-10
3.15341e-10
1.74654e-09
6.46363e-09
6.28394e-17
4.28075e-16
2.7678e-15
1.63166e-14
1.01371e-13
5.54845e-13
2.81426e-12
1.25512e-11
4.61286e-11
1.35624e-10
3.20474e-10
6.21797e-10
1.00481e-09
8.59911e-10
5.79009e-10
2.33638e-10
3.09339e-10
1.37622e-09
3.34451e-09
2.36423e-17
1.61836e-16
1.13141e-15
7.82704e-15
5.56518e-14
3.30766e-13
1.77798e-12
7.82014e-12
2.74707e-11
7.76054e-11
1.7198e-10
3.04364e-10
4.66149e-10
4.05205e-10
2.91862e-10
1.19251e-10
1.88721e-10
5.25668e-10
1.96346e-09
8.47203e-18
6.30213e-17
5.27489e-16
4.54062e-15
3.6002e-14
2.20917e-13
1.11445e-12
4.50553e-12
1.43801e-11
3.64438e-11
7.79606e-11
1.26634e-10
1.80849e-10
1.42185e-10
9.4875e-11
3.13249e-11
6.38115e-11
2.83693e-10
7.93813e-10
3.11565e-18
2.96461e-17
3.41131e-16
3.37677e-15
2.56063e-14
1.40972e-13
6.03708e-13
2.14108e-12
5.91603e-12
1.31549e-11
2.54927e-11
3.66556e-11
5.23639e-11
3.48216e-11
1.40464e-11
5.32533e-12
1.63931e-11
1.19231e-10
3.72e-10
1.52246e-18
2.24944e-17
3.09735e-16
2.84545e-15
1.79629e-14
8.3331e-14
3.00326e-13
8.65955e-13
2.0447e-12
4.1031e-12
6.87106e-12
9.08798e-12
1.14057e-11
5.10077e-12
9.87163e-13
3.29469e-13
4.22564e-12
4.23429e-11
1.38948e-10
1.61149e-18
2.57739e-17
2.78685e-16
1.8552e-15
8.60038e-15
3.11918e-14
9.02024e-14
2.1451e-13
4.39539e-13
8.53851e-13
1.3536e-12
1.83658e-12
1.98369e-12
7.32512e-13
1.33689e-13
8.71445e-14
1.04391e-12
9.15785e-12
1.70521e-11
2.24754e-18
2.13417e-17
1.28379e-16
5.43301e-16
1.77875e-15
4.88398e-15
1.21516e-14
2.56316e-14
4.66708e-14
7.67601e-14
1.05056e-13
1.33439e-13
1.11997e-13
2.34479e-14
1.81879e-15
7.38984e-16
1.55608e-14
1.1835e-13
0
)
;

boundaryField
{
    leftWall
    {
        type            zeroGradient;
    }
    rightWall
    {
        type            zeroGradient;
    }
    lowerWall
    {
        type            zeroGradient;
    }
    atmosphere
    {
        type            inletOutlet;
        inletValue      uniform 0;
        value           nonuniform List<scalar> 
46
(
5.42642e-14
8.25696e-14
5.1911e-14
2.24784e-14
8.32284e-15
2.70633e-15
7.73866e-16
1.93888e-16
4.37578e-17
8.83365e-18
1.55834e-18
2.9631e-19
1.50596e-19
1.78649e-19
2.03267e-19
1.89668e-19
1.42504e-19
8.5424e-20
4.10708e-20
1.59845e-20
4.60898e-21
1.00925e-21
0
0
0
0
0
0
0
0
0
0
0
0
0
0
0
0
0
0
0
0
0
0
0
0
)
;
    }
    defaultFaces
    {
        type            empty;
    }
}


// ************************************************************************* //
