/*--------------------------------*- C++ -*----------------------------------*\
| =========                 |                                                 |
| \\      /  F ield         | OpenFOAM: The Open Source CFD Toolbox           |
|  \\    /   O peration     | Version:  2312                                  |
|   \\  /    A nd           | Website:  www.openfoam.com                      |
|    \\/     M anipulation  |                                                 |
\*---------------------------------------------------------------------------*/
FoamFile
{
    version     2.0;
    format      ascii;
    arch        "LSB;label=32;scalar=64";
    class       volScalarField;
    location    "1";
    object      alpha.galistan;
}
// * * * * * * * * * * * * * * * * * * * * * * * * * * * * * * * * * * * * * //

dimensions      [0 0 0 0 0 0 0];

internalField   nonuniform List<scalar> 
2268
(
1
1
1
1
1
1
1
1
1
1
1
1
1
1
1
1
1
1
1
1
1
0.999967
0.999927
1
1
1
1
1
1
1
1
1
1
1
1
1
1
1
1
1
1
1
1
1
0.999979
0.999932
1
1
1
1
1
1
1
1
1
1
1
1
1
1
1
1
1
1
1
1
1
1
0.999999
1
1
1
1
1
1
1
1
1
1
1
1
1
1
1
1
1
1
1
1
0.999999
0.999996
0.999988
1
1
1
1
1
1
1
1
1
1
1
0.999999
0.999998
0.999991
0.999717
0.998741
0.99761
0.997442
0.99852
0.999771
0.999973
0.999996
0.999969
1
1
1
1
0.995465
0.852224
0.735726
0.672708
0.639718
0.621944
0.612072
0.60778
0.604593
0.59211
0.563483
0.527879
0.503665
0.501133
0.524045
0.56956
0.614959
0.639035
0.658914
1
1
1
0.768743
0.271998
0.087766
0.0284459
0.00516003
3.12221e-31
2.32637e-31
8.88804e-32
-1.46048e-11
-2.63377e-13
7.02884e-31
5.43646e-28
7.31135e-28
1.30471e-30
2.58968e-30
-1.25845e-20
0
-6.79206e-17
0.00659337
0.0179319
1
1
0.682066
0.0724416
1.39358e-19
1.09383e-20
4.33823e-23
1.45575e-20
2.38122e-12
1.32751e-12
3.28853e-13
7.38738e-13
2.79116e-14
5.14595e-13
4.13618e-12
1.27075e-11
2.43494e-11
3.27462e-12
2.01027e-13
8.54343e-16
-4.2187e-15
7.75165e-22
1.01862e-06
0.388026
0.38792
0.228779
0.172359
0.171579
0.171581
0.171585
0.17159
0.436763
0.874927
0.927976
0.927976
0.889114
0.874683
0.881407
0.945561
0.945961
0.685927
0.142209
0.292995
0.229918
0.232377
0.186376
0.171575
0.189541
0.235471
0.236612
0.219077
0.27472
0.452482
0.702889
0.921481
0.933028
0.938056
0.945837
0.945909
0.576488
0.153812
0.0218497
0.00429374
0.121402
0.149711
0.134447
0.110327
0.0918111
0.102242
0.127628
0.140542
0.154833
0.430933
0.723344
0.819914
0.836486
0.944433
0.826703
0.315186
0.266854
0.00357446
0.00419465
0.0096315
0.0124356
0.0161385
0.0116168
0.0116716
0.0100499
0.0307892
0.0566741
0.0840707
0.283262
0.840295
0.8777
0.877998
0.864525
0.518501
0.11051
0.306505
0.00582796
0.00417459
0.0155104
0.0493814
0.0883682
0.089187
0.0692383
0.0367261
0.0112241
0.0756434
0.143217
0.465801
0.502997
0.568764
0.666318
0.575265
0.263285
0.110521
0.227868
0.00588181
0.0117486
0.0623934
0.0945826
0.0946842
0.0947022
0.0940029
0.0512677
0.0111627
0.073712
0.234641
0.296238
0.281161
0.38871
0.378642
0.228313
0.151013
0.164326
0.101883
0.00608752
0.0131126
0.0770266
0.0883355
0.0646938
0.0781893
0.0941053
0.0580009
0.010845
0.0367148
0.18465
0.236581
0.245456
0.347709
0.120907
0.0939463
0.151436
0.155898
0.0248986
0.01288
0.0216593
0.0362443
0.00830775
0.000846831
0.0254134
0.0613382
0.0551903
0.0107637
0.0162405
0.141396
0.397243
0.402737
0.293694
0.033277
0.0476603
0.101105
0.057474
0.0176766
1
0.676892
0.0571207
1.63751e-11
1.73493e-11
7.70595e-11
1.20678e-10
7.58321e-11
3.27985e-11
1.40451e-11
1.2581e-11
1.13757e-11
9.21426e-12
2.74092e-11
2.64071e-10
4.81156e-10
2.56778e-10
1.59903e-11
2.29674e-29
-1.22666e-16
-3.98011e-21
0.00710781
0.0336178
0.90301
0.074008
1.32241e-09
1.85517e-09
1.10833e-09
6.1882e-10
3.84327e-10
2.28107e-10
1.07198e-10
4.86536e-11
2.98505e-11
5.29833e-11
4.63141e-11
5.78991e-11
6.85776e-10
1.09637e-09
3.25131e-12
3.25097e-12
1.79263e-06
1.2742e-05
0.00187331
0.0230229
0.0262971
0.209396
0.00338667
1.30593e-09
1.28947e-09
4.75552e-10
1.35734e-10
8.96336e-11
5.93795e-11
5.80879e-11
1.06205e-10
6.61874e-11
1.06049e-10
1.08927e-11
1.0892e-11
2.29381e-11
2.1273e-11
3.21204e-06
1.34667e-05
9.77771e-05
0.000198985
0.00636617
0.012449
0.00163856
2.2409e-08
1.15324e-08
2.32973e-09
3.49794e-10
2.27023e-11
1.45292e-11
1.07593e-11
1.07413e-11
7.69925e-11
3.508e-10
6.05179e-11
6.06239e-11
1.25371e-07
1.59793e-05
4.33227e-05
4.27471e-05
1.34328e-05
3.97315e-05
0.000351202
0.00326463
0.00440808
0.00100149
2.17959e-05
2.60968e-09
2.39913e-10
2.07334e-11
4.50594e-12
1.54917e-12
1.41343e-12
6.26445e-12
3.45911e-11
6.54743e-10
3.57158e-10
1.07254e-06
3.75618e-05
4.73326e-05
4.24383e-05
1.70609e-05
1.40415e-05
4.16893e-06
1.48338e-05
0.000849907
0.00155171
0.000958494
7.06441e-05
7.05486e-05
2.42694e-12
1.2585e-12
1.33204e-13
8.808e-14
5.42223e-14
1.98692e-12
5.58094e-10
9.98832e-10
4.96954e-09
2.1201e-05
6.48168e-05
5.75318e-05
1.20986e-05
1.45844e-06
8.21778e-08
8.36463e-08
1.40694e-06
4.92232e-05
9.59137e-05
3.3866e-05
4.82564e-05
0.00014944
0.000210865
2.58324e-15
2.54191e-15
1.09199e-15
1.08402e-15
8.6505e-13
8.89109e-10
1.0366e-09
2.1369e-07
1.44549e-05
6.20516e-05
6.74297e-05
6.8923e-06
1.93913e-07
2.22021e-07
2.68945e-07
1.22273e-06
2.48656e-06
6.0988e-06
6.42074e-06
3.48146e-05
4.10038e-05
4.11053e-05
2.46428e-05
3.2145e-13
4.64761e-13
1.08434e-15
1.07264e-10
4.08037e-09
3.64459e-09
8.1347e-08
4.33558e-06
1.48124e-05
7.03032e-05
6.90977e-05
1.01821e-05
1.8768e-07
5.34077e-07
7.94756e-07
5.98497e-07
1.03817e-06
4.27008e-06
6.0927e-06
5.84613e-06
2.15213e-06
1.66753e-05
0.000129059
9.94885e-12
5.27209e-10
6.62292e-09
2.39395e-08
1.32252e-08
2.25421e-09
1.02207e-06
2.19094e-06
5.6125e-06
3.84652e-05
7.03202e-05
6.12546e-05
9.8753e-06
3.54813e-09
1.17471e-07
3.14511e-08
5.72393e-07
9.60909e-07
7.45171e-07
3.62016e-07
3.43762e-07
1.32428e-05
0.000304246
3.42006e-10
9.1621e-09
4.81251e-08
5.66518e-08
1.28253e-08
1.65282e-09
7.70133e-07
2.37269e-06
5.55408e-06
6.47814e-06
1.8512e-05
3.2257e-05
1.94035e-05
3.93102e-09
2.65222e-09
5.04249e-09
1.96636e-08
5.12906e-10
5.129e-10
4.75821e-06
3.23725e-05
3.40267e-05
3.41724e-05
3.41362e-09
3.746e-08
5.98756e-08
5.77036e-08
6.1218e-09
1.68583e-09
5.43e-07
1.7911e-06
1.21852e-06
9.21727e-10
9.29635e-10
1.33802e-07
2.01976e-06
1.01087e-06
5.3153e-10
5.24778e-10
5.34621e-10
6.28024e-10
1.9634e-07
7.97636e-07
1.64772e-06
8.75753e-07
-2.32591e-11
3.68308e-09
4.0152e-08
5.98874e-08
4.13441e-08
1.97955e-09
2.94601e-08
1.14593e-07
5.22687e-08
5.00897e-10
4.9024e-10
4.94298e-10
4.9024e-10
4.96508e-10
9.02276e-08
5.48326e-08
5.64676e-08
5.50527e-08
5.58606e-08
6.03496e-08
3.9406e-08
1.12477e-08
5.34272e-11
8.88043e-09
1.66331e-09
3.73483e-08
5.92164e-08
1.20004e-08
1.95927e-09
6.9778e-09
5.15818e-10
5.12768e-10
4.97945e-10
5.10808e-10
5.08749e-10
4.94621e-10
4.98659e-10
2.93292e-08
7.25532e-08
7.24631e-08
7.26645e-08
4.2531e-08
5.68161e-09
2.08034e-09
5.2718e-11
5.52612e-11
4.4328e-11
9.37153e-10
1.14291e-08
1.83328e-08
1.99174e-09
1.35389e-09
1.37741e-09
5.70936e-10
5.12868e-10
5.12768e-10
5.11587e-10
5.09179e-10
4.96277e-10
1.96365e-09
2.21195e-08
5.44981e-08
5.93358e-08
4.67761e-08
8.70324e-09
3.16363e-09
1.47533e-09
5.41847e-10
2.21976e-10
9.02564e-11
4.71585e-10
4.09048e-09
3.33193e-09
2.50566e-09
1.62741e-09
1.70014e-09
1.2282e-09
8.41407e-10
6.77773e-10
5.83341e-10
6.22984e-10
9.18133e-10
1.70165e-09
9.85699e-09
1.94541e-08
2.00525e-08
7.19742e-09
3.20682e-09
1.56661e-09
5.55747e-10
2.81851e-10
1.56252e-10
6.98343e-11
2.87791e-10
3.22734e-10
3.08734e-10
2.02194e-09
2.45792e-09
2.70926e-09
3.04188e-09
3.22765e-09
2.9769e-09
2.5412e-09
2.50954e-09
2.92974e-09
3.56921e-09
5.08169e-09
5.18308e-09
4.669e-09
3.12819e-09
1.49008e-09
7.68109e-10
2.89887e-10
1.41355e-10
5.31163e-11
2.34671e-11
3.87375e-08
3.17253e-10
1.52178e-08
4.89359e-10
2.51217e-09
3.0924e-09
3.30068e-09
3.97308e-09
4.2426e-09
4.17995e-09
4.12419e-09
4.20026e-09
4.22872e-09
4.07933e-09
3.06719e-09
1.87764e-09
9.38039e-10
4.6213e-10
2.27916e-10
7.31216e-11
3.25797e-11
1.2924e-11
5.17042e-12
8.61793e-08
4.55943e-07
4.91458e-08
1.06277e-10
2.22902e-09
2.74945e-09
2.64984e-09
2.88256e-09
3.12737e-09
3.14475e-09
3.22846e-09
2.84126e-09
2.34038e-09
1.66623e-09
9.67903e-10
4.38116e-10
1.7355e-10
6.45671e-11
2.73359e-11
8.68034e-12
3.98208e-12
1.27685e-12
3.06066e-13
8.72821e-08
4.8791e-07
1.38919e-08
1.02375e-10
1.60686e-09
2.04993e-09
1.45781e-09
1.51211e-09
1.45059e-09
1.3479e-09
1.21113e-09
8.72609e-10
5.58204e-10
3.3723e-10
1.60717e-10
5.96174e-11
1.98881e-11
6.66859e-12
2.25111e-12
6.8598e-13
3.07002e-13
7.1877e-14
1.59605e-14
2.45991e-07
4.76293e-07
9.6257e-10
1.56236e-10
8.28976e-10
8.00033e-10
7.95194e-10
7.63217e-10
5.79716e-10
3.95096e-10
2.54555e-10
1.41334e-10
9.02648e-11
4.38678e-11
1.35656e-11
4.26421e-12
1.43446e-12
5.21922e-13
2.33942e-13
9.28627e-14
3.04663e-14
4.71411e-15
3.23165e-15
5.64154e-07
5.58636e-07
5.85224e-09
1.35369e-10
3.95116e-10
1.83757e-10
4.37173e-10
3.0382e-10
8.88983e-11
2.92082e-11
9.27874e-12
1.46757e-11
9.17365e-12
3.49752e-12
1.02474e-12
3.46421e-13
1.45986e-13
7.30773e-14
4.08386e-14
1.69523e-14
2.32709e-15
8.07164e-16
9.8309e-16
5.64154e-07
5.64155e-07
2.92347e-08
1.39754e-10
2.56159e-10
1.4571e-10
1.67137e-10
5.03783e-11
3.0832e-11
6.38865e-12
7.62323e-13
1.23071e-12
7.22135e-13
2.71941e-13
1.07367e-13
5.12995e-14
2.73007e-14
1.54016e-14
8.57161e-15
1.97434e-15
2.09821e-16
1.42334e-16
2.44747e-16
5.64155e-07
3.18408e-07
2.24043e-08
1.30884e-09
3.48013e-10
1.81771e-10
7.73392e-11
2.31296e-11
6.24741e-12
1.05297e-12
2.62307e-13
1.44532e-13
7.19037e-14
3.31626e-14
1.79924e-14
1.02994e-14
5.77016e-15
3.20509e-15
1.47865e-15
2.06745e-16
2.85105e-17
3.0616e-17
5.66758e-17
3.55805e-07
1.92868e-08
1.23375e-08
3.64242e-09
6.90124e-10
2.60875e-10
5.15515e-11
5.77471e-12
9.13709e-13
2.70259e-13
7.361e-14
2.5145e-14
1.133e-14
6.29704e-15
3.78146e-15
2.17807e-15
1.18387e-15
6.22497e-16
2.30152e-16
2.19665e-17
4.11138e-18
4.31818e-18
8.69027e-18
3.3446e-09
3.93485e-11
2.27128e-09
2.40955e-09
7.57552e-10
1.95422e-10
3.40173e-11
4.29942e-12
6.25331e-13
1.2686e-13
2.73073e-14
6.66905e-15
2.62607e-15
1.46947e-15
8.50452e-16
4.61487e-16
2.34891e-16
1.14454e-16
3.30851e-17
2.02684e-18
5.1802e-19
5.51735e-19
1.06735e-18
2.88202e-11
3.93782e-11
4.72411e-10
9.61461e-10
3.88182e-10
5.7196e-11
1.06371e-11
1.53502e-12
2.72025e-13
5.15165e-14
9.11618e-15
1.8429e-15
6.43515e-16
3.38626e-16
1.82069e-16
9.24052e-17
4.39454e-17
1.98154e-17
3.88828e-18
1.5866e-19
6.58981e-20
7.51965e-20
1.94484e-19
1.34179e-11
5.46149e-11
1.86158e-10
1.69332e-10
5.38139e-11
8.51024e-12
1.8497e-12
3.24302e-13
7.20786e-14
1.37018e-14
2.26348e-15
4.34667e-16
1.49494e-16
7.6119e-17
3.84879e-17
1.7999e-17
7.92325e-18
3.20324e-18
3.35163e-19
1.26209e-20
8.65008e-21
1.10214e-20
3.71622e-20
3.99607e-12
5.05577e-11
5.38639e-11
1.11238e-11
1.32114e-12
7.09715e-13
2.40869e-13
6.39873e-14
1.54983e-14
2.81301e-15
4.4405e-16
8.7955e-17
3.23535e-17
1.63277e-17
7.87489e-18
3.36969e-18
1.36615e-18
4.61251e-19
3.07762e-20
1.19714e-21
1.13258e-21
1.82614e-21
7.90963e-21
6.47544e-13
2.46769e-11
9.65752e-12
3.46551e-13
1.41131e-14
6.41735e-14
3.71093e-14
1.11142e-14
2.60567e-15
4.50933e-16
7.12943e-17
1.60507e-17
6.62635e-18
3.29772e-18
1.50685e-18
6.0678e-19
2.24558e-19
5.93171e-20
2.24983e-21
1.30661e-22
1.52956e-22
3.43413e-22
1.60866e-21
1.90079e-14
6.37887e-12
6.2659e-13
8.64126e-15
2.67783e-15
6.26415e-15
5.78677e-15
1.57335e-15
3.50788e-16
6.07326e-17
1.0357e-17
2.86685e-18
1.30159e-18
6.34776e-19
2.73798e-19
1.03433e-19
3.40572e-20
6.49487e-21
1.2615e-22
1.44681e-23
2.34167e-23
6.85707e-23
3.04819e-22
3.88023e-17
3.02817e-13
4.17574e-14
3.36287e-15
5.3049e-16
8.15332e-16
6.89153e-16
1.7755e-16
4.18157e-17
5.04327e-18
1.03162e-18
4.47698e-19
2.4664e-19
1.16829e-19
4.76598e-20
1.70572e-20
5.18473e-21
5.73817e-22
5.34784e-24
1.80067e-24
4.47947e-24
1.48644e-23
5.30501e-23
7.45755e-19
3.93137e-14
7.88308e-15
7.78214e-16
1.2506e-16
9.58963e-17
6.77444e-17
8.28794e-18
2.3857e-18
5.86717e-19
1.95733e-19
8.67719e-20
4.10909e-20
1.84592e-20
7.24061e-21
2.51295e-21
7.1084e-22
3.10773e-23
2.94834e-25
2.3867e-25
8.81471e-25
2.68865e-24
8.17394e-24
1.0952e-20
5.43508e-15
1.20616e-15
1.30553e-16
1.91989e-17
1.15253e-17
4.03338e-18
1.13945e-18
3.4068e-19
8.23824e-20
2.72734e-20
1.34665e-20
6.80175e-21
3.10947e-21
1.1637e-21
3.76657e-22
7.96367e-23
1.92567e-24
1.94503e-25
5.47248e-26
1.8986e-25
4.70184e-25
9.97397e-25
1.9614e-21
7.54385e-16
1.56028e-16
1.75448e-17
2.09776e-18
6.18131e-19
5.6352e-19
1.45592e-19
3.38581e-20
9.91695e-21
4.26777e-21
2.2958e-21
1.12294e-21
4.39673e-22
1.53665e-22
4.70413e-23
7.20956e-24
9.40044e-26
1.05164e-26
6.95182e-27
3.86406e-26
6.99333e-26
1.08988e-25
1.32019e-22
4.55966e-17
8.77588e-18
8.96822e-19
7.72684e-20
1.00504e-19
5.76713e-20
1.64755e-20
4.05723e-21
1.12423e-21
5.38922e-22
3.34977e-22
1.67225e-22
6.3843e-23
2.14056e-23
6.03113e-24
4.81058e-25
2.89068e-26
1.7963e-27
1.18874e-27
6.26698e-27
7.7736e-27
1.01624e-26
2.42911e-23
4.46265e-18
5.4413e-19
4.91628e-20
7.45628e-21
1.02443e-20
5.24017e-21
1.66477e-21
4.48365e-22
1.50816e-22
8.46059e-23
4.31412e-23
1.90512e-23
7.83886e-24
2.51361e-24
5.99684e-25
2.53609e-26
2.42948e-27
2.49686e-28
2.21693e-28
8.98036e-28
8.60054e-28
1.00524e-27
1.95994e-24
4.29173e-19
5.87569e-20
4.58623e-21
5.15597e-22
8.54173e-22
4.54711e-22
1.54965e-22
4.47409e-23
1.85212e-23
1.11811e-23
6.05933e-24
2.53882e-24
8.24311e-25
2.63476e-25
5.09847e-26
1.39763e-27
1.58084e-28
2.21188e-29
3.74179e-29
1.19644e-28
9.2185e-29
9.86077e-29
3.57043e-25
2.32971e-20
3.27373e-21
1.98505e-22
3.44787e-23
7.0896e-23
4.05639e-23
1.44067e-23
4.52913e-24
2.25064e-24
1.39044e-24
7.2962e-25
2.91796e-25
9.87739e-26
2.97087e-26
2.77981e-27
2.28616e-28
1.96108e-29
2.57834e-30
6.68339e-30
1.50992e-29
9.15553e-30
9.17877e-30
2.65743e-26
9.48921e-22
1.22649e-22
7.08456e-24
2.44819e-24
6.54966e-24
3.87178e-24
1.39309e-24
4.78389e-25
2.78748e-25
1.73093e-25
8.3921e-26
3.22068e-26
1.09089e-26
2.89147e-27
1.96606e-28
2.0608e-29
1.70024e-30
2.888e-31
1.10142e-30
1.88921e-30
8.83593e-31
8.50449e-31
5.32884e-27
3.0744e-23
3.3354e-24
3.60915e-25
2.0542e-25
6.50848e-25
3.76891e-25
1.34272e-25
5.00497e-26
3.33436e-26
2.05128e-26
9.36348e-27
3.45773e-27
1.12761e-27
2.42833e-28
1.36727e-29
1.50159e-30
1.21496e-31
3.46083e-32
1.7125e-31
2.35642e-31
8.28024e-32
8.04456e-32
7.38243e-28
7.18218e-25
9.21145e-26
2.39553e-26
2.03578e-26
6.37048e-26
3.51362e-26
1.23078e-26
5.00985e-27
3.72696e-27
2.23762e-27
9.80849e-28
3.50157e-28
1.09319e-28
1.70279e-29
1.05162e-30
1.00107e-31
7.86752e-33
4.54424e-33
2.48745e-32
2.72542e-32
6.98292e-33
8.39359e-33
1.47676e-28
1.25146e-26
4.26989e-27
1.78501e-27
2.10613e-27
5.88078e-27
3.07228e-27
1.05552e-27
4.76599e-28
3.88838e-28
2.2565e-28
9.617e-29
3.33341e-29
9.6141e-30
1.19659e-30
8.21034e-32
6.59724e-33
4.89123e-34
6.23253e-34
3.3644e-33
3.08622e-33
6.4082e-34
1.19865e-33
0.0336082
0.0173312
0.00160722
0.0107988
0.00204026
0.00164639
0.00169701
0.00571554
4.25246e-06
0.00034814
0.000385666
0.000185398
4.33658e-06
1.34279e-05
2.1133e-05
1.47293e-05
0.000214683
0.00020504
7.63452e-06
1.15172e-06
0.000199748
2.12081e-05
2.1333e-05
2.29099e-05
2.41981e-05
8.6177e-05
0.000386204
0.000385989
0.000388026
0.000386287
0.000386254
0.000386279
0.000386269
0.000386246
0.000386278
0.00038607
2.1948e-05
1.42438e-05
9.78519e-06
1.06567e-05
-6.17695e-27
5.12004e-12
8.26535e-11
3.46173e-10
3.34102e-09
3.20301e-12
1.54488e-09
6.85149e-09
1.85746e-10
2.25967e-10
3.46303e-11
6.90187e-10
5.43359e-11
3.97854e-11
3.39467e-11
1.61202e-11
4.73674e-11
3.04787e-11
2.08041e-11
1.6839e-11
1.5383e-11
8.85819e-12
4.36934e-12
2.97089e-12
1.28723e-12
5.63659e-13
5.77752e-13
6.80923e-13
7.31212e-14
7.30289e-14
8.77906e-14
1.40684e-13
1.51568e-14
1.69128e-14
2.02948e-14
2.905e-14
3.52339e-15
3.83372e-15
4.69337e-15
5.57792e-15
1.10268e-15
1.28096e-15
1.45148e-15
1.81069e-15
3.16394e-16
3.82406e-16
4.91725e-16
5.82809e-16
7.22864e-17
8.49141e-17
1.10795e-16
1.52604e-16
1.10911e-17
1.52278e-17
2.55468e-17
4.03543e-17
2.08758e-18
3.34022e-18
6.11815e-18
1.03828e-17
4.15892e-19
7.13094e-19
1.36631e-18
2.35369e-18
8.68714e-20
1.50445e-19
3.02638e-19
5.60844e-19
1.88854e-20
3.32013e-20
6.64127e-20
1.18019e-19
3.96092e-21
6.72855e-21
1.36426e-20
2.36121e-20
7.05551e-22
1.25362e-21
2.4792e-21
4.15273e-21
1.14095e-22
1.88266e-22
3.6311e-22
6.18472e-22
1.59443e-23
2.60594e-23
5.2849e-23
8.54818e-23
1.79383e-24
2.9837e-24
5.90421e-24
1.09808e-23
1.82615e-25
3.39589e-25
6.74346e-25
1.19876e-24
1.71271e-26
3.48838e-26
7.36841e-26
1.03825e-25
1.76984e-27
4.00111e-27
6.88237e-27
7.13596e-27
1.86222e-28
3.95922e-28
4.76573e-28
4.69909e-28
1.85208e-29
3.17372e-29
3.37653e-29
6.20018e-29
1.65314e-30
2.57031e-30
5.08383e-30
2.95408e-29
1.72262e-31
3.82884e-31
2.30856e-30
2.2282e-29
2.52674e-32
1.53289e-31
2.001e-30
3.15738e-29
1.00225e-32
1.73494e-31
4.09996e-30
7.16227e-29
0.0130015
0.00888428
0.00503823
6.12039e-05
0.000854881
0.00871868
0.0154451
0.0141904
0.0198783
0.0802247
0.227852
0.40501
0.398595
0.0843322
0.0322347
0.032726
0.0504572
0.00114514
0.0069333
0.00657468
0.001764
0.000961669
0.000104234
0.00669241
0.0129449
0.0122992
0.0123091
0.018911
0.0705317
0.192365
0.244408
0.117881
0.0463563
0.0479068
0.0252792
0.00114475
0.0011335
0.00966279
0.000130872
0.000195755
2.97307e-07
0.000169435
0.0194208
0.0332817
0.0315733
0.0132529
0.0145212
0.0216754
0.0238441
0.00840419
0.00843247
0.0259356
0.0365106
0.0135719
0.00261998
0.00642373
0.016465
1.45445e-05
8.68339e-06
2.96448e-07
2.97422e-07
0.0131339
0.0305843
0.0334441
0.0334702
0.0268754
0.00852864
0.00861226
0.00842323
0.00927919
0.0117287
0.0053056
0.0053123
0.00745804
0.0173227
0.019321
1.15614e-06
1.20688e-06
1.38218e-06
5.09704e-07
6.97783e-07
0.000270119
0.0137329
0.0315262
0.0318976
0.031922
0.0313989
0.0203575
0.0149008
0.00988543
0.00544076
0.00531599
0.01193
0.0193219
0.0193222
3.50399e-05
3.88438e-05
1.64822e-05
1.29066e-05
1.61686e-05
2.09159e-05
3.19402e-05
0.000627499
0.00390488
0.00988222
0.0155948
0.0182885
0.013055
0.0106069
0.01023
0.00890903
0.00590444
0.0112176
0.019322
0.000385806
0.000267583
6.43963e-06
6.42831e-06
6.44254e-06
4.8944e-05
0.00645859
0.0191876
0.0215376
0.0215526
0.0167102
0.0121929
0.0115472
0.00795936
0.00433206
0.00149886
5.31399e-05
0.000541672
0.0119585
0.000386069
0.000286504
6.46338e-06
6.43963e-06
6.46944e-06
0.00348054
0.0167376
0.0177609
0.0165592
0.00889601
0.00328915
0.00126985
7.62556e-10
1.9823e-17
3.84262e-13
7.92399e-18
3.84259e-13
8.60146e-05
0.000187897
0.000262118
5.4724e-05
1.3047e-05
9.24756e-06
0.00149644
0.00285317
0.00156794
0.000352677
-5.42973e-15
4.83048e-22
4.21668e-22
6.4023e-26
2.12042e-14
3.32582e-09
1.06439e-09
1.52113e-09
2.10091e-13
1.93056e-05
7.81509e-05
1.70501e-05
5.21314e-05
0.000123008
0.000163511
8.04926e-05
9.66446e-12
5.34809e-17
1.14354e-17
8.58727e-12
4.57768e-09
3.23085e-08
5.09523e-08
5.1336e-08
2.45062e-08
5.09299e-09
1.0742e-08
1.43581e-08
4.84331e-09
4.90692e-09
5.14164e-10
4.8657e-10
3.90533e-10
3.97079e-10
1.26794e-10
1.45296e-10
3.11518e-11
4.61834e-11
8.33253e-12
1.25682e-08
6.7733e-08
7.14422e-08
7.08193e-08
2.84265e-08
5.88633e-09
8.43661e-09
1.25263e-08
9.30058e-09
4.92084e-09
1.19394e-08
8.31973e-09
3.0421e-09
3.11137e-09
4.08829e-09
7.00314e-09
3.26577e-09
1.54763e-09
4.72525e-10
6.53277e-09
1.32516e-08
2.31333e-08
9.89914e-09
1.66395e-09
3.73419e-09
7.61363e-09
2.5278e-08
3.27952e-08
7.99996e-09
1.41056e-08
1.58266e-08
1.25119e-08
1.12516e-08
1.59792e-08
1.86352e-08
1.89843e-08
7.5305e-09
1.6336e-09
2.53409e-10
1.39583e-11
1.2718e-11
1.25601e-11
1.2718e-11
1.99552e-11
1.39664e-09
2.32326e-08
3.27874e-08
9.38267e-09
1.56156e-11
2.22614e-11
2.26406e-11
1.32207e-09
7.46117e-09
2.17361e-08
2.20366e-08
1.50309e-08
3.93517e-09
7.2625e-10
6.83988e-11
2.36353e-11
2.67639e-11
2.88954e-11
2.69776e-11
1.39282e-10
1.28257e-08
3.17383e-08
6.99545e-09
1.5444e-11
1.83123e-11
2.69483e-11
3.14646e-11
3.13386e-11
1.96937e-09
1.0378e-08
8.81226e-09
3.73373e-09
7.14185e-10
1.21621e-10
4.77824e-11
5.11089e-11
5.31096e-11
4.09673e-11
3.92335e-11
1.08603e-08
8.80777e-09
5.65267e-09
3.21715e-12
8.21868e-12
2.24467e-11
4.77786e-11
5.3506e-11
8.05475e-12
8.08585e-12
8.04941e-12
2.90803e-10
2.66555e-10
1.16768e-10
5.03991e-11
5.36794e-11
5.34264e-11
3.88113e-11
3.90274e-11
1.09004e-08
5.65172e-09
5.65166e-09
1.00113e-12
3.42119e-12
1.64656e-11
4.50544e-11
5.40035e-11
3.91199e-11
2.04115e-11
8.55782e-12
7.90806e-12
1.22732e-11
2.23492e-11
3.06216e-11
2.93279e-11
3.25971e-11
1.75599e-11
5.51105e-11
8.85551e-09
5.65067e-09
5.70612e-09
3.77292e-13
1.60986e-12
5.87841e-12
1.84173e-11
3.27285e-11
3.46655e-11
2.98237e-11
1.6707e-11
8.14661e-12
6.92874e-12
9.0503e-12
1.43264e-11
1.55246e-11
1.45488e-11
4.28898e-12
2.384e-10
5.92673e-09
8.71019e-09
7.02971e-09
1.25934e-13
8.028e-13
1.72587e-12
3.89038e-12
6.65463e-12
6.99687e-12
6.08192e-12
3.69943e-12
3.58777e-12
4.73961e-12
7.20085e-12
8.43081e-12
8.83318e-12
8.36086e-12
4.63716e-13
3.56944e-10
3.53934e-09
1.56387e-08
9.36822e-09
1.33272e-14
1.00639e-13
3.2511e-13
6.77313e-13
1.11117e-12
1.17972e-12
1.06427e-12
1.23223e-12
1.76877e-12
2.94349e-12
4.93813e-12
5.06353e-12
4.96402e-12
3.82514e-12
4.71799e-13
4.57959e-10
3.19215e-09
1.56732e-08
9.55339e-09
4.15381e-15
3.76584e-14
1.03443e-13
1.4882e-13
1.98397e-13
2.43702e-13
3.90219e-13
6.98595e-13
1.31929e-12
2.14514e-12
2.40804e-12
2.28282e-12
1.72944e-12
7.66869e-13
5.01548e-13
4.48737e-10
3.88379e-09
1.56289e-08
8.35728e-09
1.73572e-15
1.03988e-14
3.04873e-14
4.9672e-14
7.17634e-14
1.32767e-13
2.68054e-13
5.39434e-13
9.1561e-13
1.10217e-12
1.06227e-12
9.29199e-13
3.87222e-13
6.93539e-14
1.26188e-12
7.22002e-11
4.75569e-09
1.59032e-08
7.64928e-09
5.68245e-16
4.19159e-15
1.20711e-14
2.12139e-14
3.81181e-14
7.97795e-14
1.71127e-13
3.06303e-13
3.95862e-13
3.80899e-13
3.19842e-13
1.19724e-13
3.58175e-14
1.52924e-14
7.89685e-12
7.50833e-12
5.7346e-09
1.59321e-08
6.93815e-09
2.2909e-16
2.0304e-15
4.99759e-15
1.00645e-14
2.03052e-14
4.44652e-14
8.29176e-14
1.14103e-13
1.10149e-13
9.61495e-14
3.54495e-14
1.38494e-14
1.9618e-14
1.65502e-14
1.53316e-11
3.01011e-11
5.78669e-09
1.55051e-08
3.98133e-09
6.51886e-17
6.34904e-16
2.03954e-15
4.96807e-15
9.55083e-15
1.95576e-14
2.3779e-14
2.45902e-14
2.25414e-14
8.49307e-15
1.58143e-15
1.1381e-14
4.58411e-14
4.77302e-14
1.30532e-11
3.80924e-10
6.34924e-09
6.46561e-09
2.46633e-09
1.45602e-17
1.70262e-16
6.92812e-16
2.34541e-15
3.63525e-15
4.51976e-15
4.6949e-15
4.31165e-15
1.80603e-15
2.99765e-16
5.62957e-16
1.94241e-14
2.11012e-13
1.72175e-13
1.65302e-12
8.03029e-10
6.33862e-09
4.3178e-09
1.45239e-09
2.78347e-18
3.84187e-17
2.52385e-16
5.00929e-16
6.5533e-16
7.17673e-16
6.7525e-16
5.39216e-16
1.67316e-16
4.49379e-17
6.78369e-16
2.89253e-14
4.19717e-13
3.84169e-13
3.81659e-13
8.42118e-10
5.2127e-09
3.39872e-09
7.88088e-10
7.67599e-19
1.24025e-17
4.73426e-17
7.05313e-17
8.17388e-17
8.1294e-17
7.10327e-17
3.52153e-17
8.86961e-18
3.2375e-17
9.4285e-16
3.73914e-14
5.42907e-13
5.26852e-13
1.4644e-11
9.07165e-10
2.3497e-09
1.45155e-09
2.92712e-10
1.97596e-19
2.52032e-18
5.35225e-18
7.53029e-18
8.47862e-18
7.98792e-18
5.81377e-18
1.28871e-18
2.57132e-18
3.80482e-17
1.12311e-15
4.22492e-14
5.98251e-13
6.21632e-13
8.96986e-11
8.06166e-10
8.631e-10
4.71165e-10
1.35082e-10
4.54066e-20
3.02357e-19
5.16888e-19
6.83063e-19
6.92732e-19
5.67081e-19
2.57932e-19
1.4961e-19
2.43523e-18
4.12134e-17
1.0488e-15
4.01092e-14
5.70065e-13
1.23775e-12
1.21461e-10
6.62651e-10
8.12388e-10
4.84075e-10
1.10263e-10
7.15715e-21
2.30778e-20
3.85462e-20
4.44955e-20
4.02217e-20
2.41232e-20
1.06431e-20
1.10466e-19
2.38496e-18
3.39989e-17
5.107e-16
1.67611e-14
3.04533e-13
2.14254e-12
9.71636e-11
4.25423e-10
5.3803e-10
3.53846e-10
7.51041e-11
7.09488e-22
1.74547e-21
2.43597e-21
2.50236e-21
1.87872e-21
8.85731e-22
4.24647e-21
9.38548e-20
1.82295e-18
2.50269e-17
2.82923e-16
4.33856e-15
8.72191e-14
2.22049e-12
4.0241e-11
1.32092e-10
1.98375e-10
1.42545e-10
2.3642e-11
5.20069e-23
1.01958e-22
1.26776e-22
1.10261e-22
8.14915e-23
2.81704e-22
3.13365e-21
5.92578e-20
1.01461e-18
1.28164e-17
1.18589e-16
1.454e-15
3.80252e-14
1.48385e-12
9.91639e-12
2.86212e-11
4.26404e-11
2.87457e-11
6.48892e-12
3.33951e-24
5.53781e-24
5.66666e-24
7.04412e-24
3.07616e-23
2.24631e-22
2.01735e-21
2.51474e-20
3.7761e-19
4.36515e-18
3.21336e-17
4.74805e-16
1.54715e-14
5.23409e-13
2.89272e-12
5.27799e-12
6.77312e-12
6.14905e-12
1.68232e-12
1.767e-25
2.47973e-25
5.26389e-25
3.12726e-24
2.61312e-23
1.86199e-22
1.25327e-21
9.59857e-21
8.91631e-20
9.29018e-19
7.51476e-18
1.00772e-16
4.9577e-15
7.28906e-14
6.84797e-13
1.18371e-12
1.30833e-12
9.97019e-13
4.94326e-13
1.12553e-26
3.43876e-26
2.67006e-25
2.40617e-24
2.14747e-23
1.51305e-22
9.44543e-22
5.22739e-21
2.73739e-20
1.66398e-19
1.28008e-18
1.06559e-17
8.57921e-16
7.65112e-15
6.97573e-14
2.00604e-13
3.01339e-13
2.34605e-13
9.78617e-14
1.95646e-27
1.71212e-26
1.85078e-25
1.83863e-24
1.67165e-23
1.15399e-22
6.94476e-22
3.39803e-21
1.3549e-20
4.85188e-20
2.05275e-19
1.2992e-18
2.87019e-17
7.32465e-16
8.47232e-15
2.75288e-14
2.69821e-14
1.99023e-14
2.09859e-14
9.32993e-28
1.0727e-26
1.30972e-25
1.40719e-24
1.26799e-23
8.48507e-23
4.61698e-22
2.01254e-21
6.96013e-21
1.93918e-20
4.87977e-20
1.55462e-19
1.36612e-18
2.60948e-17
9.84657e-16
1.54356e-15
1.85837e-15
2.19615e-15
3.08871e-15
5.1901e-28
7.30213e-27
1.07058e-25
1.18828e-24
9.67233e-24
5.63649e-23
2.54556e-22
9.54183e-22
2.80351e-21
6.69301e-21
1.41633e-20
2.29114e-20
4.11176e-20
2.59052e-19
2.65564e-17
6.67106e-17
6.36392e-17
1.76353e-16
7.55865e-16
3.65757e-28
7.04039e-27
1.08517e-25
1.0594e-24
6.98767e-24
3.36898e-23
1.26286e-22
3.79541e-22
9.38186e-22
1.98397e-21
3.56786e-21
5.16887e-21
7.72717e-21
6.30359e-21
1.16198e-20
5.41159e-19
5.51706e-18
4.91126e-17
2.32763e-16
5.23073e-28
8.97223e-27
1.01444e-25
7.01407e-25
3.35779e-24
1.25272e-23
3.72788e-23
9.13134e-23
1.93434e-22
3.92796e-22
6.56384e-22
9.5296e-22
1.32535e-21
9.60009e-22
3.02675e-21
7.77741e-20
1.07512e-18
1.0619e-17
3.15118e-17
7.77954e-28
7.63445e-27
4.68493e-26
2.01069e-25
6.65851e-25
1.84928e-24
4.67048e-24
1.00128e-23
1.85984e-23
3.14385e-23
4.4554e-23
5.86627e-23
7.32672e-23
3.07646e-23
6.29971e-23
2.41327e-21
4.99354e-20
3.56981e-19
6.60862e-20
)
;

boundaryField
{
    leftWall
    {
        type            zeroGradient;
    }
    rightWall
    {
        type            zeroGradient;
    }
    lowerWall
    {
        type            zeroGradient;
    }
    atmosphere
    {
        type            inletOutlet;
        inletValue      uniform 0;
        value           nonuniform List<scalar> 
46
(
1.47676e-28
1.25146e-26
4.26989e-27
1.78501e-27
2.10613e-27
5.88078e-27
3.07228e-27
1.05552e-27
4.76599e-28
3.88838e-28
2.2565e-28
9.617e-29
3.33341e-29
9.6141e-30
1.19659e-30
8.21034e-32
6.59724e-33
4.89123e-34
6.23253e-34
3.3644e-33
3.08622e-33
6.4082e-34
0
0
0
0
0
0
0
0
0
0
0
0
0
0
0
0
0
0
0
0
0
0
0
0
)
;
    }
    defaultFaces
    {
        type            empty;
    }
}


// ************************************************************************* //
