/*--------------------------------*- C++ -*----------------------------------*\
| =========                 |                                                 |
| \\      /  F ield         | OpenFOAM: The Open Source CFD Toolbox           |
|  \\    /   O peration     | Version:  2312                                  |
|   \\  /    A nd           | Website:  www.openfoam.com                      |
|    \\/     M anipulation  |                                                 |
\*---------------------------------------------------------------------------*/
FoamFile
{
    version     2.0;
    format      ascii;
    arch        "LSB;label=32;scalar=64";
    class       volScalarField;
    location    "1";
    object      alpha.air;
}
// * * * * * * * * * * * * * * * * * * * * * * * * * * * * * * * * * * * * * //

dimensions      [0 0 0 0 0 0 0];

internalField   nonuniform List<scalar> 
2268
(
6.69121e-14
3.97615e-14
2.46513e-14
1.7222e-14
1.32213e-14
1.07414e-14
9.2447e-15
8.07522e-15
8.05998e-15
9.85871e-15
1.49094e-14
2.5319e-14
4.4305e-14
6.7024e-14
8.33748e-14
7.43793e-14
2.51259e-14
9.85599e-15
1.15167e-14
1.71125e-14
1.60516e-15
9.38992e-16
9.61907e-16
1.70912e-13
1.20817e-13
9.52681e-14
8.84799e-14
1.01826e-13
1.22949e-13
1.25836e-13
1.17756e-13
1.29335e-13
1.80763e-13
2.93887e-13
5.07101e-13
8.37644e-13
1.22905e-12
1.47729e-12
1.3503e-12
5.67257e-13
5.22855e-13
4.66456e-13
5.57444e-13
8.35635e-13
5.60079e-13
1.089e-13
1.09615e-12
1.0872e-12
1.05405e-12
9.18998e-13
9.3331e-13
9.45536e-13
8.31147e-13
8.06716e-13
9.12123e-13
1.24033e-12
1.88661e-12
3.04184e-12
4.80378e-12
6.74637e-12
7.66786e-12
7.54827e-12
4.164e-12
1.36842e-11
1.59795e-11
6.40198e-13
9.85441e-12
2.61278e-11
1.49754e-11
5.46226e-12
5.01466e-12
4.37827e-12
3.80639e-12
3.3844e-12
2.73706e-12
2.49983e-12
2.67022e-12
3.31645e-12
4.44298e-12
5.86438e-12
8.32522e-12
8.64735e-12
4.00178e-12
4.05831e-12
4.0015e-12
4.21505e-12
5.23152e-10
8.85165e-09
2.26889e-10
9.84337e-12
9.47748e-11
7.09848e-11
9.98087e-12
9.29698e-12
8.2077e-12
5.70305e-12
2.50201e-12
2.50163e-12
2.50134e-12
4.6867e-12
1.31127e-11
2.68573e-11
3.28251e-11
8.11863e-11
4.50117e-10
1.51461e-09
1.00511e-08
1.84912e-08
2.11592e-08
5.54722e-09
1.44991e-07
5.77758e-06
2.66629e-05
2.3917e-08
7.11191e-11
1.54475e-11
1.72843e-11
3.14136e-11
9.51045e-11
5.04182e-10
8.69517e-10
9.14517e-10
3.86664e-10
3.22924e-10
3.76741e-10
9.37219e-10
2.22244e-09
2.60533e-08
1.07809e-07
1.74971e-07
1.98126e-07
1.61649e-07
5.61958e-08
5.52154e-09
7.38687e-05
0.000589298
0.00242873
0.00196788
1.88306e-11
2.30666e-11
5.12782e-11
1.1426e-09
5.93937e-09
1.19687e-08
1.49083e-08
1.4375e-08
7.82941e-09
8.03528e-10
2.4579e-09
4.66185e-09
4.05805e-08
1.8702e-07
2.27193e-07
2.27247e-07
1.56082e-07
8.46687e-08
5.54066e-09
7.88226e-05
0.000661012
0.00666363
0.0220805
2.25908e-11
3.10782e-11
4.49829e-10
2.94027e-09
7.59682e-09
1.31895e-08
2.20453e-08
3.44683e-08
5.03975e-08
1.36722e-08
2.85518e-09
4.73262e-09
5.76127e-09
3.70059e-08
1.80578e-07
1.32622e-07
7.4486e-08
7.07104e-08
1.36516e-06
3.93864e-08
3.93343e-08
0.00213953
0.0306944
0.0158341
0.00483656
0.00245495
0.00245166
0.00292669
0.00443604
0.00352359
0.00345491
0.00330525
0.000713072
1.85601e-05
0.001151
0.0115888
0.0138698
0.00582679
0.00617325
0.0182022
0.0567371
0.0551517
0.0158117
0.068216
0.00452965
0.00862196
0.0413496
0.0205585
0.00476473
0.000713235
6.5918e-06
1.15064e-05
4.24791e-07
0.000147475
0.00153119
0.00157368
0.00170502
0.00699259
0.0223334
0.0595317
0.00361094
0.0412188
0.138015
0.155148
0.191645
0.127207
0.0247064
0.00181866
4.09839e-06
4.1271e-06
2.76566e-06
7.94853e-08
9.6583e-08
1.21528e-07
0.00914185
0.029068
0.0102056
0.0572547
0.0601868
0.000117051
0.0678489
0.222372
0.239506
0.12328
0.0491645
0.0588675
0.0845815
0.0380319
-1.90685e-06
0.000526753
0.000211315
0.000165091
0.0133059
0.0447919
0.042187
0.0198005
0.0583127
0.0552689
0.000116432
0.0930709
0.19345
0.0886356
0.0382227
0.157714
0.292964
0.235695
0.118647
2.74415e-07
0.00036775
0.00031678
0.024326
0.0591595
0.0745774
0.0167173
0.00546687
0.0272563
0.00592817
0.00088177
0.108017
0.1568
0.0150107
0.0363991
0.15697
0.31239
0.511069
0.200312
1.93889e-07
0.00101363
0.0356375
0.175927
0.184198
0.0429173
0.00111521
0.00111611
0.00519138
0.0152611
0.00673872
0.107483
0.054223
2.37737e-05
0.00023121
0.000249954
0.274515
0.520316
0.219577
0.000152899
0.0134432
0.179325
0.240648
0.220038
0.00684374
0.00701005
0.0211577
0.0248757
0.0173853
0.00730352
0.101605
2.19871e-05
2.30834e-05
2.37406e-05
0.0118396
0.336462
0.520704
0.255422
0.000715007
0.0403514
0.230344
0.237082
0.146364
0.0329036
0.0226241
0.0257579
0.0218619
3.86451e-05
3.75824e-05
2.69995e-11
4.61915e-11
2.01789e-10
6.01695e-10
7.70261e-10
9.33427e-10
4.44115e-09
4.83184e-08
6.76522e-08
4.08279e-08
1.88648e-08
3.15815e-08
6.64538e-09
6.30722e-09
2.55298e-08
3.65465e-08
1.68158e-05
1.34326e-06
3.93694e-08
3.93574e-08
3.93457e-08
0.0425059
0.310666
3.78177e-11
8.12385e-11
1.4692e-10
1.9285e-10
1.90522e-10
3.69177e-10
6.50843e-10
6.51478e-08
4.44672e-07
3.14517e-08
2.56234e-08
4.75877e-07
6.30302e-09
7.54382e-06
2.29354e-06
2.68072e-07
0.00133031
1.19496e-06
0.0180332
0.0450072
0.160821
0.427016
0.445411
7.19603e-11
1.50409e-10
2.17025e-10
2.3705e-10
7.32462e-11
7.37461e-08
1.76373e-05
2.79173e-06
2.0322e-06
2.20583e-06
2.56883e-08
0.0139637
0.0263655
0.0137087
3.81171e-05
6.88669e-19
9.18145e-19
0.278387
0.358158
0.355618
0.158823
0.172615
0.185616
1.67719e-10
2.24264e-10
2.36978e-10
1.95273e-10
7.26611e-11
2.15906e-05
0.00011899
2.5302e-06
3.279e-06
0.0393062
0.0264726
0.0820962
0.061968
0.0135406
0.161201
0.380642
0.422661
0.430526
0.246862
0.179031
0.0778278
0.0281888
0.0286411
2.7339e-10
1.86046e-10
1.8559e-10
7.29116e-11
7.32462e-11
2.35607e-05
3.5569e-05
0.0137664
0.0386464
0.162038
0.118593
0.133304
0.327568
0.751847
0.901556
0.938726
0.667898
0.221999
0.191392
0.180745
0.100486
0.0896672
0.326837
1.40764e-08
1.86181e-10
1.981e-10
2.16643e-05
7.29116e-11
0.00316306
0.0584704
0.203509
0.151144
0.0762941
0.262026
0.848324
0.971608
0.984419
0.984427
0.984406
0.958146
0.551245
0.249735
0.189785
0.188476
0.221384
0.401625
0.109881
0.0491791
9.35968e-06
0.00178672
0.00675505
0.307383
0.308347
0.145746
0.00139878
0.209626
0.901077
0.984411
0.984433
0.984433
0.984433
0.761173
0.270569
0.144664
0.143348
0.26978
0.27
0.232557
0.0305975
0.721117
0.597579
0.203058
0.258087
0.448057
0.449008
0.174771
1.86e-06
4.81259e-05
0.261212
0.970018
0.984424
0.984433
0.983552
0.486326
0.0428405
5.93458e-05
6.02842e-05
5.51395e-05
0.0275464
0.0653727
0.0564268
0.0301214
0.781393
0.780775
0.569721
0.562701
0.561062
0.218374
1.50971e-05
4.4202e-07
4.79678e-07
0.0260771
0.454539
0.820179
0.80839
0.291114
0.0521806
0.0472852
0.0522198
0.263144
0.381678
0.419857
0.455249
0.634459
0.771572
0.495268
0.522562
0.568251
0.566821
0.265557
0.0002469
3.03234e-06
4.38602e-07
4.42094e-07
4.44445e-07
7.31516e-07
0.0555765
0.249237
0.35845
0.388459
0.601873
0.830525
0.939733
0.976105
0.986168
0.991671
0.998627
0.999966
0.144882
0.198326
0.491388
0.305589
0.000110202
6.37696e-06
2.72874e-06
1.30281e-06
5.19519e-06
0.0349599
0.292512
0.50374
0.704844
0.882301
0.977692
0.999361
1
1
0.999999
0.999999
0.999998
0.999999
0.999999
0.143469
0.00657714
0.0659962
0.035279
6.38966e-06
4.39666e-06
4.1406e-06
5.7429e-06
0.165877
0.72254
0.95711
0.993559
0.999999
0.999999
0.999999
0.999999
0.999999
1
1
1
1
0.999999
0.999999
0.134869
2.20529e-05
-1.04937e-19
-9.92211e-20
2.2514e-06
2.44374e-06
6.42846e-06
0.258174
0.812936
1
1
1
1
0.999998
0.999996
0.999996
0.999996
0.999999
1
1
1
1
1
0.173491
1.19968e-05
-3.5304e-15
-2.65885e-14
-3.80507e-20
0.0522048
0.473069
0.902227
1
1
1
1
0.999998
0.999996
0.999996
0.999995
0.999996
1
1
1
1
1
1
0.22416
1.62424e-05
-1.72561e-20
1.70804e-18
0.31029
0.765368
0.985896
0.999999
1
1
1
1
0.999999
0.999996
0.999996
0.999997
0.999999
1
1
1
1
1
1
0.22464
2.72394e-05
0.0117902
0.450788
0.933149
0.999872
0.999988
1
1
1
1
1
1
1
0.999999
1
1
1
1
1
1
1
1
0.150192
3.26605e-05
0.308974
0.95441
0.999959
1
1
1
1
1
1
1
1
1
1
1
1
1
1
1
1
1
1
0.0790888
0.0470065
0.881838
0.999999
1
1
1
1
1
1
1
1
1
1
1
1
1
1
1
1
1
1
1
0.0866251
0.624935
0.999996
1
1
1
1
1
1
1
1
1
1
1
1
1
1
1
1
1
1
1
1
0.0883045
0.968102
1
1
1
1
1
1
1
1
1
1
1
1
1
1
1
1
1
1
1
1
1
0.0885278
0.95582
1
1
1
1
1
1
0.999999
0.999999
1
1
1
1
1
1
1
1
1
1
1
1
1
0.0887625
0.924808
1
1
0.999999
1
1
0.999999
0.999999
0.999999
1
1
1
1
1
1
1
1
1
1
1
1
1
0.508595
0.943326
0.999997
0.999996
0.999999
1
1
0.999999
0.999999
1
1
1
1
1
1
1
1
1
1
1
1
1
1
0.996215
0.992359
0.999712
0.999996
1
1
1
1
1
1
1
1
1
1
1
1
1
1
1
1
1
1
1
0.999995
0.999998
0.999896
0.999992
1
1
1
1
1
1
1
1
1
1
1
1
1
1
1
1
1
1
1
0.999999
1
1
0.999999
0.999999
1
1
1
1
1
1
1
1
1
1
1
1
1
1
1
1
1
1
0.999977
1
0.999995
0.999991
0.999997
1
1
1
1
1
1
1
1
1
1
1
1
1
1
1
1
1
1
0.999967
0.999973
0.999966
0.99997
0.999998
1
1
1
1
1
1
1
1
1
1
1
1
1
1
1
1
1
1
0.999984
0.999965
0.999965
0.999986
1
1
1
1
1
1
1
1
1
1
1
1
1
1
1
1
1
1
1
0.999999
0.999983
0.999993
1
1
1
1
1
1
1
1
1
1
1
1
1
1
1
1
1
1
1
1
1
1
1
1
1
1
1
1
1
1
1
1
1
1
1
1
1
1
1
1
1
1
1
1
1
1
1
1
1
1
1
1
1
1
1
1
1
1
1
1
1
1
1
1
1
1
1
1
1
1
1
1
1
1
1
1
1
1
1
1
1
1
1
1
1
1
1
1
1
1
1
1
1
1
1
1
1
1
1
1
1
1
1
1
1
1
1
1
1
1
1
1
1
1
1
1
1
1
1
1
1
1
1
1
1
1
1
1
1
1
1
1
1
1
1
1
1
1
1
1
1
1
1
1
1
1
1
1
1
1
1
1
1
1
1
1
1
1
1
1
1
1
1
1
1
1
1
1
1
1
1
1
1
1
1
1
1
1
1
1
1
1
1
1
1
1
1
1
1
1
1
1
1
1
1
1
1
1
1
1
1
1
1
1
1
1
1
1
1
1
1
1
1
1
1
1
1
1
1
1
1
1
1
1
1
1
1
1
1
1
1
1
1
1
1
1
1
1
1
1
1
1
1
1
1
1
1
1
1
1
1
1
1
1
1
1
1
1
1
1
1
1
1
1
1
1
1
1
1
1
1
1
1
1
1
1
1
1
1
1
1
1
1
1
1
1
1
1
1
1
1
1
1
1
1
1
0.409362
0.4109
0.178157
0.00367269
0.390834
0.0264494
0.0024347
0.00343254
0.0367702
0.00982854
0.000205355
0.000210192
0.0241301
0.015848
0.0258636
0.0749391
0.401626
0.401783
0.407632
0.407574
0.401783
0.401626
0.183867
0.000521337
0.0310699
0.020283
0.00307594
0.000179553
0.0379247
0.0610991
0.0731963
0.0854246
0.755604
0.731599
0.789666
0.836913
0.999978
0.999986
0.999989
0.999988
0.999999
0.999999
0.999999
0.999999
0.999999
0.999999
0.999998
0.999997
1
1
1
1
1
1
1
1
1
1
1
1
1
1
1
1
1
1
1
1
1
1
1
1
1
1
1
1
1
1
1
1
1
1
1
1
1
1
1
1
1
1
1
1
1
1
1
1
1
1
1
1
1
1
1
1
1
1
1
1
1
1
1
1
1
1
1
1
1
1
1
1
1
1
1
1
1
1
1
1
1
1
1
1
1
1
1
1
1
1
1
1
1
1
1
1
1
1
1
1
1
1
1
1
1
1
1
1
1
1
1
1
1
1
1
1
1
1
1
1
0.00971355
2.11644e-05
0.000137775
2.29236e-05
0.0285999
0.394845
0.520678
0.51176
0.322894
0.0523305
0.0694917
0.118364
0.186397
0.132431
0.0182055
3.79042e-05
4.06199e-05
3.75824e-05
3.75825e-05
0.000506338
2.25277e-05
0.000132101
2.35407e-05
0.136097
0.501293
0.498408
0.190727
0.132477
0.0742149
0.148664
0.216149
0.215582
0.049446
0.0161647
3.75825e-05
3.75824e-05
3.75825e-05
0.00431944
0.000205047
0.00303856
0.00596882
2.43067e-05
0.124173
0.478114
0.499508
0.35033
0.131164
0.116746
0.117199
0.20777
0.339896
0.177496
0.0370594
3.75824e-05
3.75825e-05
0.007511
0.00929001
0.120245
0.0968541
0.0269418
0.033348
0.301416
0.377255
0.389054
0.431071
0.426019
0.383641
0.351498
0.399804
0.407515
0.404702
0.141882
0.0345244
0.124766
0.127721
0.185869
0.195492
0.000180573
0.000197659
0.0373754
0.10421
0.0929194
0.0540032
0.108648
0.352183
0.411492
0.405015
0.335102
0.314771
0.236125
0.248612
0.335834
0.41419
0.588589
0.800871
0.00187497
0.000179085
0.000179012
0.000178944
0.00017655
0.000176832
0.000278623
0.000273742
0.00178404
0.0252026
0.0747383
0.181888
0.24202
0.368366
0.537533
0.720452
0.896683
0.969323
0.980643
0.000179237
0.000179206
0.000182941
0.000186003
0.000185834
0.00319539
0.0778013
0.295421
0.546137
0.700059
0.779009
0.820774
0.897711
0.966728
0.995665
0.9985
0.999946
0.999458
0.988017
0.109899
0.148419
0.177216
0.200967
0.25708
0.512518
0.852523
0.981926
0.982935
0.990234
0.995823
0.997987
0.999663
0.99983
0.999985
0.999957
0.999944
0.999876
0.999778
0.861638
0.893008
0.91787
0.952712
0.993704
0.997064
0.998345
0.999613
0.999979
0.999846
0.999094
0.998582
0.998817
0.999781
1
0.999831
0.999453
0.999605
0.9997
0.999982
0.999946
0.999874
0.999825
0.999909
0.999999
0.999999
0.999998
0.999999
0.999502
0.99786
0.997867
0.998511
1
1
0.999796
0.999327
0.999329
0.999361
0.999999
0.999999
0.999999
0.999999
0.999998
0.999997
0.999999
0.999999
0.999999
0.99993
0.999548
0.999417
1
1
1
0.999998
0.999927
0.999851
0.999991
0.999997
0.999997
0.999998
0.999999
0.999998
0.999989
0.99994
0.999912
0.999974
1
1
1
1
1
1
1
0.999982
0.999916
0.99999
0.999999
0.999992
0.999986
0.999988
0.999997
0.999997
0.999911
0.9997
0.999709
0.999919
0.999996
1
1
1
1
1
0.999834
0.998592
0.999924
1
1
0.999987
0.999982
0.999985
0.999997
0.999999
0.99974
0.999679
0.999678
0.999923
1
1
1
1
1
0.999854
0.998309
0.998742
1
1
1
0.999984
0.999981
0.999992
0.999999
1
0.99974
0.999679
0.999875
1
1
1
1
1
1
0.99831
0.998309
1
1
1
0.999996
0.999981
0.999985
0.999998
1
0.99999
0.999928
0.99997
1
1
1
1
1
0.999999
0.999366
0.999876
1
1
1
1
0.999989
0.999985
0.999992
1
1
1
1
1
1
1
1
1
0.999816
1
1
1
1
1
1
1
0.999994
0.999993
0.999998
1
1
1
1
1
1
1
1
0.999712
0.999965
1
1
1
1
1
1
1
1
1
1
1
1
1
1
1
1
1
0.999727
0.999953
1
1
1
1
1
1
1
1
1
1
1
1
1
1
1
1
1
0.999998
0.999987
1
1
1
1
1
1
1
1
1
1
1
1
1
1
1
1
1
1
1
1
1
1
1
1
1
1
1
1
1
1
1
1
1
1
1
1
0.999999
0.999999
1
1
1
1
1
1
1
1
1
1
1
1
1
1
1
1
0.999998
0.999984
0.999989
1
1
1
1
1
1
1
1
1
1
1
1
1
1
1
1
0.999992
0.999983
0.999987
1
1
1
1
1
1
1
1
1
1
1
1
1
1
1
1
0.999996
0.999984
0.999998
1
1
1
1
1
1
1
1
1
1
1
1
1
1
1
1
1
1
1
1
1
1
1
1
1
1
1
1
1
1
1
1
1
1
1
1
1
1
1
1
1
1
1
1
1
1
1
1
1
1
1
1
1
1
1
1
1
1
1
1
1
1
1
1
1
1
1
1
1
1
1
1
1
1
1
1
1
1
1
1
1
1
1
1
1
1
1
1
1
1
1
1
1
1
1
1
1
1
1
1
1
1
1
1
1
1
1
1
1
1
1
1
1
1
1
1
1
1
1
1
1
1
1
1
1
1
1
1
1
1
1
1
1
1
1
1
1
1
1
1
1
1
1
1
1
1
1
1
1
1
1
1
1
1
1
1
1
1
1
1
1
1
1
1
1
1
1
1
1
1
1
1
1
1
1
1
1
1
1
1
1
1
1
1
1
1
1
1
1
1
1
1
1
1
1
1
1
1
1
1
1
1
1
1
1
1
1
1
1
1
1
1
1
1
1
1
1
1
1
1
1
1
1
1
1
1
1
1
1
1
1
1
1
1
1
1
1
1
1
1
1
1
1
1
1
1
1
1
1
1
1
1
1
1
1
1
1
1
1
1
1
1
1
1
1
1
1
1
1
1
1
1
1
1
1
1
1
1
1
1
1
1
1
1
1
1
1
1
1
1
1
1
1
1
1
1
1
1
1
1
1
1
1
1
1
1
1
1
1
1
1
1
1
1
1
1
1
1
1
1
1
1
1
1
)
;

boundaryField
{
    leftWall
    {
        type            alphaContactAngle;
        thetaProperties 
6
(
(galistan air) 90 0 0 0
(oil galistan) 90 0 0 0
(water oil) 90 0 0 0
(water air) 90 0 0 0
(oil air) 90 0 0 0
(water galistan) 90 0 0 0
);
        value           nonuniform List<scalar> 
50
(
6.69121e-14
1.70912e-13
1.09615e-12
5.46226e-12
9.98087e-12
1.54475e-11
1.88306e-11
2.25908e-11
2.69995e-11
3.78177e-11
7.19603e-11
1.67719e-10
2.7339e-10
1.40764e-08
0.109881
0.721117
0.781393
0.495268
0.144882
0.143469
0.134869
0.173491
0.22416
0.22464
0.150192
0.0790888
0.0866251
0.0883045
0.0885278
0.0887625
0.508595
0.996215
0.999995
0.999999
0.999977
0.999967
0.999984
0.999999
1
1
1
1
1
1
1
1
1
1
1
1
)
;
    }
    rightWall
    {
        type            alphaContactAngle;
        thetaProperties 
6
(
(galistan air) 90 0 0 0
(oil galistan) 90 0 0 0
(water oil) 90 0 0 0
(water air) 90 0 0 0
(oil air) 90 0 0 0
(water galistan) 90 0 0 0
);
        value           nonuniform List<scalar> 
50
(
0.0551517
0.00361094
0.000117051
0.000116432
0.00088177
0.00673872
0.00730352
3.75824e-05
3.75825e-05
0.00431944
0.00929001
0.185869
0.800871
0.980643
0.988017
0.999778
0.9997
0.999361
0.999991
0.99999
0.999924
0.998742
0.998309
0.999876
1
1
1
1
1
1
1
1
1
1
1
1
1
1
1
1
1
1
1
1
1
1
1
1
1
1
)
;
    }
    lowerWall
    {
        type            alphaContactAngle;
        thetaProperties 
6
(
(galistan air) 90 0 0 0
(oil galistan) 90 0 0 0
(water oil) 90 0 0 0
(water air) 90 0 0 0
(oil air) 90 0 0 0
(water galistan) 90 0 0 0
);
        value           nonuniform List<scalar> 
62
(
6.69121e-14
3.97615e-14
2.46513e-14
1.7222e-14
1.32213e-14
1.07414e-14
9.2447e-15
8.07522e-15
8.05998e-15
9.85871e-15
1.49094e-14
2.5319e-14
4.4305e-14
6.7024e-14
8.33748e-14
7.43793e-14
2.51259e-14
9.85599e-15
1.15167e-14
1.71125e-14
1.60516e-15
9.38992e-16
9.61907e-16
9.61907e-16
1.089e-13
1.49754e-11
7.09848e-11
7.11191e-11
0.00196788
0.0220805
0.0306944
0.409362
0.4109
0.178157
0.00367269
0.0158341
0.0158117
0.0412188
0.0678489
0.0930709
0.108017
0.107483
0.101605
0.0158341
0.00483656
0.00245495
0.00245166
0.00292669
0.00443604
0.00352359
0.00345491
0.00330525
0.000713072
1.85601e-05
0.001151
0.0115888
0.0138698
0.00582679
0.00617325
0.0182022
0.0567371
0.0551517
)
;
    }
    atmosphere
    {
        type            inletOutlet;
        inletValue      uniform 1;
        value           nonuniform List<scalar> 
46
(
1
1
1
1
1
1
1
1
1
1
1
1
1
1
1
1
1
1
1
1
1
1
1
1
1
1
1
1
1
1
1
1
1
1
1
1
1
1
1
1
1
1
1
1
1
1
)
;
    }
    defaultFaces
    {
        type            empty;
    }
}


// ************************************************************************* //
