/*--------------------------------*- C++ -*----------------------------------*\
| =========                 |                                                 |
| \\      /  F ield         | OpenFOAM: The Open Source CFD Toolbox           |
|  \\    /   O peration     | Version:  2312                                  |
|   \\  /    A nd           | Website:  www.openfoam.com                      |
|    \\/     M anipulation  |                                                 |
\*---------------------------------------------------------------------------*/
FoamFile
{
    version     2.0;
    format      ascii;
    arch        "LSB;label=32;scalar=64";
    class       volScalarField;
    location    "1";
    object      alpha.water_0;
}
// * * * * * * * * * * * * * * * * * * * * * * * * * * * * * * * * * * * * * //

dimensions      [0 0 0 0 0 0 0];

internalField   nonuniform List<scalar> 
2268
(
3.5116e-11
2.69271e-11
2.37456e-11
2.26308e-11
2.21439e-11
2.18191e-11
2.13396e-11
2.04722e-11
1.91544e-11
1.77522e-11
1.74174e-11
1.78325e-11
1.91268e-11
2.18191e-11
2.68165e-11
3.55837e-11
5.22176e-11
8.19703e-11
1.26555e-10
1.92597e-10
2.60265e-10
3.50502e-10
4.04437e-10
2.69045e-11
2.44721e-11
2.64757e-11
3.06775e-11
3.59817e-11
4.06478e-11
4.43304e-11
4.64169e-11
4.69268e-11
4.58262e-11
4.54601e-11
4.63361e-11
4.91622e-11
5.51576e-11
6.6918e-11
9.16148e-11
1.50766e-10
2.82025e-10
5.33399e-10
9.13704e-10
1.36125e-09
1.59673e-09
1.16673e-09
2.35516e-11
2.3369e-11
2.61487e-11
3.04197e-11
3.67024e-11
4.3888e-11
5.00379e-11
5.5041e-11
5.99967e-11
6.36994e-11
6.63065e-11
6.81801e-11
7.22558e-11
7.89605e-11
9.19214e-11
1.27486e-10
2.13046e-10
4.09992e-10
9.57963e-10
1.96383e-09
2.87846e-09
3.03614e-09
2.88964e-09
1.68733e-11
1.82082e-11
2.48926e-11
4.15756e-11
6.511e-11
8.64888e-11
9.46172e-11
9.38424e-11
9.75209e-11
9.94364e-11
1.08956e-10
9.89051e-11
1.0406e-10
1.10701e-10
9.19674e-11
9.19493e-11
1.26897e-10
1.26748e-10
1.26812e-10
6.23114e-09
1.81478e-09
3.58269e-09
2.06634e-09
1.4453e-11
2.944e-11
6.58257e-11
4.65299e-11
1.38808e-11
1.39546e-11
1.38775e-11
1.39368e-11
1.38745e-11
1.3043e-10
1.38589e-11
1.53931e-11
1.38564e-11
6.32162e-10
5.82361e-05
0.00068375
0.00162381
0.00185848
0.00104749
9.42169e-05
1.8147e-09
2.7647e-06
2.06633e-09
2.7875e-11
9.03024e-11
1.88753e-10
4.71104e-11
0.00735821
0.150518
0.266041
0.32575
0.354442
0.368156
0.374886
0.376937
0.378629
0.389958
0.418154
0.454558
0.480756
0.485368
0.464688
0.420083
0.373388
0.348772
0.330103
3.36012e-11
2.31212e-10
1.92604e-10
0.233241
0.733836
0.915866
0.972746
0.994579
0.999996
0.999994
0.999983
0.99995
0.999928
0.999909
0.999882
0.99972
0.999528
0.999206
0.99917
0.998986
0.998481
0.980929
0.917908
1.65023e-10
1.70106e-10
0.32391
0.930921
1
0.999999
0.999999
0.999998
0.999997
0.999995
0.999991
0.999987
0.999993
0.999995
0.999995
0.999919
0.99988
0.999886
0.999882
0.99988
0.999873
0.99725
0.840206
0.00462566
0.0176898
0.00244693
0.00244624
0.00281606
0.00468582
0.0137992
0.0377171
0.0628558
0.0480567
0.0299778
0.0292445
0.0182351
0.0200371
0.0203844
0.0133459
0.0119692
0.0121402
0.261126
0.0313529
0.0900354
0.0390429
0.0455859
0.180834
0.395072
0.469804
0.51509
0.493677
0.394453
0.224198
0.157827
0.0660187
0.0531169
0.0591695
0.0461367
0.0164769
0.0937445
0.611006
0.0849433
0.0816593
0.157009
0.464811
0.668572
0.794502
0.793911
0.754249
0.769491
0.710119
0.710241
0.540645
0.274249
0.161144
0.132528
0.0446566
0.0279721
0.182506
0.50132
0.0821806
0.0996691
0.56976
0.724411
0.644693
0.458205
0.258537
0.242145
0.504298
0.888595
0.88717
0.722031
0.0810182
0.00168335
0.00448758
0.0243643
0.0855057
0.262724
0.0786562
0.11781
0.478704
0.629658
0.501801
0.25205
0.114118
0.112997
0.125735
0.564717
0.888739
0.84439
0.281052
0.00168084
0.00168188
0.00168278
0.0290557
0.226872
0.406889
0.0542089
0.233092
0.604444
0.620819
0.474887
0.508894
0.520717
0.219445
0.191377
0.688212
0.888314
0.565697
0.00174173
0.00168003
0.00807844
0.0523637
0.225486
0.504634
0.62067
0.122795
0.233879
0.72294
0.771117
0.735625
0.876284
0.600096
0.121132
0.158858
0.512178
0.783459
0.212204
0.00176647
0.00464212
0.0787318
0.298254
0.408985
0.712678
0.725409
0.264956
0.229797
0.766484
0.940526
0.966811
0.918457
0.273627
0.000508508
0.0837359
0.357699
0.330842
0.0311572
0.00180629
0.0413516
0.154298
0.400082
0.724413
0.787848
0.805891
0.18617
1.70153e-10
0.333821
0.944931
1
1
1
1
1
1
1
1
1
1
1
1
0.999966
0.999928
0.999928
0.989776
0.944974
0.852647
0.542743
0.0643427
0.122221
0.934191
1
1
1
1
1
1
1
1
1
0.999999
0.998816
0.99116
0.991322
0.997199
0.998523
0.935851
0.564803
0.291302
0.18232
0.135198
0.222448
0.825611
0.997426
1
1
1
1
0.999985
0.999998
0.999998
0.999997
0.994872
0.980181
0.957395
0.873565
0.894698
0.967286
0.541061
0.174574
0.115614
0.0621616
0.0611422
0.162665
0.745349
1
1
1
1
1
0.999976
0.999869
0.999932
0.999991
0.961417
0.839625
0.73406
0.686537
0.330347
0.174094
0.213018
0.133634
0.000762972
1.01166e-07
0.00697422
0.0911188
0.165215
0.602801
1
1
1
1
1
0.999932
0.971826
0.975581
0.855515
0.715797
0.278946
0.184536
0.0578159
0.0179483
2.49184e-19
-3.5476e-20
1.67969e-19
2.18635e-08
9.47642e-08
0.00379224
0.0739102
0.0987489
0.123324
1
1
1
0.999983
0.968707
0.991449
0.794785
0.736039
0.23207
0.0364165
0.00276823
-2.57743e-19
-5.48691e-20
-5.40913e-12
2.10262e-12
3.3209e-09
7.75534e-08
1.20265e-08
1.2324e-05
0.00149823
0.00285435
0.00069469
1.26857e-17
0.906477
0.962211
0.996489
0.997992
0.835332
0.579329
0.49855
0.277233
2.40598e-09
0.000236837
3.65311e-16
2.09471e-16
5.3856e-13
7.03163e-10
2.80747e-10
2.33638e-09
1.00883e-08
7.44701e-08
3.44704e-05
6.41597e-05
7.65983e-05
3.25658e-08
8.77426e-13
0.287244
0.429655
0.748982
0.71563
0.444565
0.199807
0.122897
0.0115945
5.47708e-17
3.07864e-08
5.06486e-08
8.73261e-08
2.16461e-09
2.24454e-10
2.26329e-10
2.24453e-10
2.82323e-08
8.98459e-07
2.07218e-06
7.60246e-09
6.15178e-09
1.02781e-08
2.25015e-08
0.00509376
0.103794
0.338216
0.305735
0.0780024
4.00671e-09
4.08237e-09
6.04306e-05
6.48696e-07
1.69558e-10
1.4286e-07
2.07813e-07
1.00456e-07
2.26553e-10
2.24453e-10
1.06422e-09
2.80244e-08
6.68251e-08
1.60682e-09
1.53715e-09
6.36359e-09
1.38769e-08
1.31164e-08
3.10849e-05
0.0157638
0.0383855
0.0157691
5.93292e-20
1.30006e-07
2.55798e-06
3.72017e-06
7.54327e-07
3.12341e-10
9.39308e-08
2.11181e-07
1.03382e-07
2.24453e-10
2.04438e-09
2.27595e-09
3.25502e-09
2.91441e-09
1.20457e-08
3.30841e-08
5.67307e-08
6.1708e-08
4.6469e-08
2.99882e-10
-1.41758e-22
3.32272e-22
-1.9652e-21
-1.23252e-20
-3.76743e-24
2.48477e-06
3.55709e-06
5.63625e-10
6.63808e-10
1.1711e-08
3.59868e-08
2.21448e-08
2.78133e-09
9.91223e-12
1.13262e-11
9.16751e-10
3.16784e-07
3.23117e-07
1.1769e-07
1.9985e-07
5.57488e-07
5.24806e-07
6.59058e-08
2.11535e-07
2.20341e-26
-9.25959e-23
1.46482e-23
2.19946e-06
2.28438e-06
6.73371e-07
3.20374e-10
9.21532e-10
8.30844e-10
4.26783e-15
3.78219e-15
4.26783e-15
2.78279e-07
1.38909e-06
1.63787e-06
1.77483e-07
1.70962e-08
1.69962e-08
2.01123e-08
3.77801e-07
9.34835e-07
7.40308e-11
5.89787e-06
3.25466e-05
2.35139e-05
4.54189e-06
4.98824e-06
-3.75861e-08
-3.70564e-15
4.21191e-10
1.65049e-09
1.20062e-09
7.67505e-10
1.12625e-07
2.10474e-06
4.26514e-06
4.37356e-06
4.17293e-06
8.4707e-07
1.47806e-08
4.31263e-08
5.69992e-09
2.73079e-09
2.7707e-09
4.6109e-11
1.65204e-05
4.89503e-05
0.000203738
0.000322166
0.000290299
7.2196e-05
3.4177e-12
5.1625e-10
1.55616e-09
9.67698e-10
3.75089e-10
1.71563e-06
4.4239e-06
4.41815e-06
4.40375e-06
3.765e-06
4.36647e-07
3.96253e-08
1.08976e-08
7.86369e-09
4.88798e-09
3.03194e-09
7.40337e-11
1.14479e-05
5.58116e-05
0.000374775
0.000375109
0.000374776
6.97429e-05
3.43416e-12
3.4177e-12
3.67573e-12
4.04274e-12
3.36833e-08
8.99388e-07
3.75426e-06
4.26299e-06
2.67397e-06
6.8853e-07
4.44567e-08
2.37253e-08
1.12018e-08
7.09228e-09
5.1932e-09
3.04478e-09
9.68174e-08
3.91492e-06
2.05055e-05
0.0002161
0.000315605
0.000111233
8.30575e-06
2.13977e-07
1.42842e-07
2.79265e-08
2.17594e-08
5.79803e-08
2.10379e-07
2.99095e-07
3.53551e-07
9.27672e-08
3.17135e-08
1.81835e-08
1.1534e-08
5.67086e-09
3.46451e-09
1.57045e-09
1.03347e-09
1.39045e-07
5.76377e-07
1.06144e-06
3.80431e-06
1.94435e-05
4.42683e-09
4.24936e-09
2.91959e-07
3.47279e-07
3.4519e-07
2.41743e-07
2.29889e-07
1.17489e-07
3.00701e-08
1.85216e-08
1.90236e-08
1.30815e-08
8.36981e-09
5.12374e-09
2.12934e-09
1.11413e-09
5.66607e-10
2.89163e-10
1.18956e-07
4.44859e-07
3.08172e-07
4.04328e-09
4.04501e-09
4.04409e-09
1.80999e-08
1.00301e-07
1.60178e-07
1.38751e-07
1.65297e-07
1.15178e-07
5.32292e-08
1.9701e-08
1.1762e-08
7.51296e-09
3.84518e-09
1.84774e-09
1.01132e-09
4.97582e-10
2.75353e-10
1.16734e-10
6.03437e-11
6.29117e-08
3.33624e-07
1.44989e-07
4.04448e-09
4.0433e-09
8.58554e-09
2.56018e-08
3.14284e-08
4.13512e-08
3.69525e-08
3.35039e-08
1.9282e-08
9.06874e-09
5.59855e-09
3.19602e-09
1.45188e-09
6.45411e-10
3.24014e-10
1.5662e-10
9.08091e-11
5.11573e-11
2.30159e-11
1.01445e-11
6.32311e-08
1.38065e-07
1.50032e-07
4.04308e-09
4.04448e-09
1.85462e-08
2.36575e-08
2.05072e-08
1.24501e-08
6.96364e-09
5.21952e-09
2.33083e-09
1.89782e-09
1.02034e-09
4.25344e-10
2.03275e-10
1.09247e-10
6.16064e-11
3.91109e-11
2.41903e-11
1.19369e-11
4.44944e-12
2.6268e-12
6.29117e-08
1.06021e-07
1.07798e-07
4.04415e-09
7.8964e-08
3.20848e-08
2.09399e-08
9.50655e-09
2.40583e-09
9.10145e-10
2.53553e-10
4.6598e-10
3.31731e-10
1.80746e-10
9.22873e-11
5.17282e-11
3.01473e-11
1.82527e-11
1.1977e-11
6.18064e-12
1.83781e-12
9.49962e-13
8.76701e-13
5.49142e-05
9.2441e-06
1.41167e-07
5.86246e-07
5.80613e-07
7.4267e-08
2.07222e-08
2.55921e-09
2.04384e-09
9.12123e-10
2.58285e-10
1.43872e-10
9.69743e-11
5.97383e-11
3.5057e-11
1.99705e-11
1.1149e-11
6.51689e-12
3.82494e-12
1.16582e-12
2.90346e-13
1.83784e-13
1.94133e-13
6.009e-05
3.11082e-05
5.00706e-06
4.57625e-06
4.85856e-07
7.63278e-08
2.01577e-08
2.36081e-09
9.33181e-10
4.20328e-10
1.62643e-10
9.31546e-11
5.70085e-11
3.42036e-11
1.93802e-11
1.02625e-11
5.17846e-12
2.67582e-12
1.15017e-12
1.80515e-13
4.77547e-14
4.038e-14
4.20478e-14
4.79487e-05
2.1191e-05
8.89158e-06
3.73335e-06
1.17739e-07
6.46733e-08
8.34854e-09
6.57718e-10
3.83387e-10
2.30581e-10
1.41186e-10
8.60683e-11
5.05602e-11
2.73789e-11
1.35069e-11
6.1236e-12
2.63323e-12
1.14481e-12
3.34233e-13
2.66467e-14
8.23187e-15
7.03001e-15
7.04676e-15
1.8655e-06
7.7972e-07
2.58383e-06
1.14765e-06
9.3757e-08
1.60097e-08
3.72512e-09
9.25077e-10
3.97319e-10
2.43573e-10
1.44778e-10
8.24827e-11
4.31966e-11
2.04164e-11
8.73027e-12
3.42126e-12
1.26792e-12
4.68952e-13
9.15244e-14
3.47278e-15
1.34529e-15
1.16084e-15
1.06976e-15
1.60326e-07
2.97736e-09
3.05059e-09
4.9525e-08
2.60704e-08
4.16049e-09
1.77208e-09
6.9518e-10
3.79996e-10
2.19229e-10
1.24598e-10
6.52578e-11
3.0556e-11
1.276e-11
4.79359e-12
1.655e-12
5.3911e-13
1.75677e-13
1.73792e-14
3.94579e-16
2.0978e-16
1.82671e-16
1.52072e-16
3.50515e-09
2.98295e-09
2.99515e-09
2.17601e-08
1.68979e-08
1.50213e-09
7.42909e-10
4.75024e-10
2.96679e-10
1.72566e-10
9.20428e-11
4.35371e-11
1.81665e-11
6.74317e-12
2.24919e-12
6.88804e-13
1.99788e-13
5.51438e-14
2.79003e-15
4.96908e-17
3.05913e-17
2.48968e-17
1.9679e-17
5.8112e-08
1.39611e-07
2.12334e-07
2.08237e-07
1.64837e-08
4.90473e-10
4.88804e-10
3.60203e-10
2.24893e-10
1.21251e-10
5.80009e-11
2.44718e-11
9.11435e-12
3.02813e-12
9.06924e-13
2.47891e-13
6.47159e-14
1.46437e-14
4.42884e-16
6.09962e-18
4.01738e-18
3.16967e-18
2.17849e-18
5.03383e-07
4.63776e-07
4.89553e-07
1.75691e-07
8.90366e-10
5.6804e-10
4.35855e-10
2.74771e-10
1.53902e-10
7.34039e-11
3.101e-11
1.1644e-11
3.88674e-12
1.16168e-12
3.14068e-13
7.77939e-14
1.83714e-14
3.15884e-15
4.76164e-17
6.4851e-19
4.96778e-19
3.58344e-19
2.11179e-19
5.27754e-07
4.37646e-07
2.31507e-07
2.81668e-08
1.58284e-09
5.74153e-10
3.28612e-10
1.79884e-10
8.89289e-11
3.73277e-11
1.39738e-11
4.7038e-12
1.41966e-12
3.85957e-13
9.51792e-14
2.15293e-14
4.56297e-15
5.26761e-16
3.14781e-18
7.39499e-20
5.97049e-20
3.64551e-20
1.8571e-20
3.29671e-07
8.98841e-08
2.19541e-08
6.08459e-09
1.0201e-09
4.0041e-10
1.8603e-10
9.71233e-11
4.3136e-11
1.62167e-11
5.3617e-12
1.61595e-12
4.4534e-13
1.11469e-13
2.53581e-14
5.30364e-15
1.03722e-15
4.64066e-17
8.00121e-20
1.12742e-20
7.01563e-21
3.56013e-21
1.60333e-21
6.70023e-08
2.7538e-08
7.44718e-09
1.72838e-09
5.14099e-10
1.88068e-10
9.13601e-11
4.1867e-11
1.65294e-11
5.92179e-12
1.80906e-12
4.99003e-13
1.26341e-13
2.82083e-14
5.82924e-15
1.13547e-15
1.91189e-16
3.20625e-18
4.27223e-21
1.31193e-21
7.21814e-22
3.06672e-22
1.22152e-22
1.78329e-08
7.06382e-09
1.83513e-09
5.2992e-10
1.93396e-10
8.46402e-11
3.95874e-11
1.52301e-11
5.90518e-12
1.78044e-12
4.92371e-13
1.24969e-13
2.9169e-14
6.4016e-15
1.2512e-15
2.25653e-16
2.91206e-17
2.32276e-19
1.01024e-20
4.9973e-22
8.17144e-23
2.55422e-23
8.75476e-24
3.44697e-09
1.5546e-09
4.58597e-10
1.80828e-10
7.33075e-11
3.23895e-11
1.47019e-11
5.2824e-12
1.5567e-12
4.82218e-13
1.29997e-13
3.08001e-14
6.64048e-15
1.2528e-15
2.24073e-16
3.75176e-17
2.83602e-18
6.82719e-21
2.14354e-22
2.20478e-23
6.36195e-24
1.86006e-24
6.11699e-25
5.95161e-10
3.44616e-10
1.3975e-10
6.33469e-11
2.88857e-11
1.19659e-11
4.64161e-12
1.53683e-12
4.48228e-13
1.09651e-13
2.60285e-14
5.91783e-15
1.26553e-15
2.34856e-16
3.96872e-17
6.00577e-18
1.05135e-19
4.48428e-21
1.29009e-22
4.03601e-24
5.1283e-25
1.43359e-25
4.15664e-26
1.36285e-10
9.65878e-11
4.44823e-11
1.97019e-11
7.95225e-12
3.28951e-12
1.12237e-12
3.42561e-13
9.35169e-14
2.38159e-14
5.56125e-15
1.04393e-15
1.94008e-16
3.66294e-17
5.69516e-18
6.82386e-19
5.9381e-21
2.58583e-22
8.76703e-24
4.03453e-25
5.12709e-26
1.00868e-26
2.79112e-27
3.47177e-11
2.74668e-11
1.44378e-11
5.83112e-12
2.21901e-12
8.04557e-13
2.57697e-13
7.3818e-14
1.89758e-14
4.39708e-15
9.1893e-16
1.81493e-16
3.22288e-17
4.67783e-18
7.13146e-19
5.74935e-20
1.98607e-22
7.13202e-24
2.77516e-25
2.30227e-26
3.69795e-27
6.81419e-28
1.92734e-28
8.19388e-12
7.57295e-12
3.20667e-12
1.21324e-12
5.39646e-13
1.85419e-13
5.61601e-14
1.51323e-14
3.66675e-15
7.84264e-16
1.4948e-16
2.66801e-17
4.36352e-18
6.6521e-19
9.01441e-20
1.43137e-21
6.25657e-23
2.06767e-24
6.43109e-26
3.01696e-27
2.96526e-28
4.31251e-29
1.31847e-29
1.23002e-12
1.67851e-12
7.91904e-13
3.19615e-13
1.18746e-13
3.83487e-14
1.09328e-14
2.76664e-15
6.31645e-16
1.27946e-16
2.30582e-17
3.79684e-18
5.78549e-19
8.28284e-20
8.96256e-21
8.08798e-23
3.52901e-24
1.17183e-25
3.76649e-27
2.07192e-28
2.07727e-29
2.66925e-30
9.78238e-31
2.57576e-13
2.95884e-13
1.44374e-13
6.778e-14
2.32107e-14
7.0335e-15
1.8895e-15
4.49349e-16
9.67893e-17
1.86565e-17
3.20733e-18
4.9959e-19
7.16016e-20
9.4328e-21
6.42781e-22
2.97707e-24
1.31703e-25
4.60744e-27
1.82481e-28
1.36753e-29
1.43106e-30
1.6241e-31
7.8521e-32
3.75341e-14
5.2552e-14
3.29645e-14
1.25574e-14
4.05061e-15
1.15953e-15
2.94372e-16
6.60492e-17
1.34678e-17
2.46806e-18
4.04406e-19
5.98211e-20
8.08443e-21
9.51154e-22
2.59248e-23
1.4672e-25
4.39857e-27
1.82361e-28
9.97368e-30
8.93779e-31
9.27756e-32
9.54315e-33
6.90694e-33
9.45147e-15
1.20236e-14
5.91649e-15
2.08332e-15
6.37416e-16
1.72584e-16
4.14076e-17
8.76799e-18
1.71959e-18
3.02551e-19
4.71996e-20
6.64082e-21
8.21855e-22
7.86867e-23
1.07183e-24
1.62e-26
3.25891e-28
1.03984e-29
6.10859e-31
5.52223e-32
6.03557e-33
6.52937e-34
6.81514e-34
0.0643221
0.195471
0.375091
0.45562
0.51492
0.869566
0.929956
0.903857
0.916502
0.953809
0.953631
0.953734
0.91171
0.654246
0.290569
0.245452
0.15615
0.125384
0.029138
0.0105042
2.31081e-13
1.91423e-20
-3.05112e-21
-2.93181e-11
3.38312e-12
3.21193e-12
2.9801e-24
2.35758e-06
1.88949e-09
3.82159e-12
8.58864e-08
4.82085e-06
4.32154e-09
6.32263e-09
1.22813e-08
1.06771e-08
4.97123e-09
5.68435e-09
7.60713e-07
1.30383e-06
1.60505e-07
5.724e-08
4.95163e-08
2.1583e-07
9.29984e-07
3.681e-07
2.06442e-09
1.34919e-07
3.03295e-09
2.06442e-09
2.04106e-09
1.64668e-09
2.61627e-09
2.17133e-09
2.11692e-09
1.65305e-09
2.56704e-09
2.2175e-09
1.79245e-09
1.56384e-09
8.47332e-10
6.48659e-10
5.34714e-10
4.78387e-10
1.52176e-10
1.33055e-10
1.38841e-10
1.50224e-10
3.75702e-11
3.07512e-11
3.16208e-11
4.1531e-11
8.66408e-12
8.90118e-12
9.16412e-12
1.083e-11
2.42184e-12
2.42156e-12
2.38893e-12
2.33795e-12
8.29423e-13
7.88391e-13
7.22755e-13
6.8876e-13
2.02339e-13
1.92891e-13
1.83173e-13
1.62709e-13
4.16516e-14
3.76966e-14
3.29558e-14
2.87383e-14
6.77003e-15
5.9561e-15
5.23545e-15
4.62262e-15
9.9981e-16
8.58487e-16
7.36344e-16
6.60239e-16
1.29699e-16
1.07353e-16
8.79044e-17
7.64897e-17
1.52689e-17
1.16085e-17
9.35819e-18
8.73163e-18
1.62567e-18
1.15423e-18
9.16239e-19
8.80537e-19
1.57429e-19
1.03282e-19
8.79921e-20
8.83725e-20
1.25709e-20
8.89572e-21
8.26431e-21
9.14498e-21
1.0535e-21
7.5638e-22
7.56313e-22
9.68316e-22
7.69849e-23
6.03598e-23
7.61556e-23
1.08869e-22
5.44994e-24
5.00448e-24
7.06607e-24
1.26031e-23
3.9534e-25
4.41818e-25
7.33017e-25
1.31848e-24
2.93426e-26
3.96204e-26
7.51714e-26
1.10934e-25
2.37132e-27
4.09272e-27
6.90996e-27
7.37832e-27
2.07168e-28
3.89245e-28
4.74202e-28
4.22149e-28
1.84642e-29
3.09371e-29
2.95252e-29
2.06896e-29
1.63025e-30
2.07542e-30
1.57401e-30
1.01477e-30
1.43712e-31
1.38339e-31
7.53425e-32
1.44914e-31
1.22566e-32
8.05559e-33
1.2687e-32
1.59992e-31
1.03892e-33
1.17659e-33
2.11869e-32
3.73527e-31
0.448862
0.957895
0.971416
0.971361
0.734804
0.118662
0.000190165
0.00850851
0.044179
0.0324637
0.0249887
0.0958385
0.267908
0.439998
0.580461
0.859584
0.859564
0.773884
0.0614675
0.94562
0.970644
0.971403
0.90127
0.448824
0.000520101
0.000182327
0.000373534
0.000615888
0.000906409
0.0379978
0.386952
0.571759
0.819388
0.859601
0.859591
0.84761
0.204412
0.0118675
0.953523
0.815252
0.590982
0.447223
0.323301
0.0158236
0.00192536
0.000423129
0.000343004
0.00694753
0.0161602
0.184158
0.526236
0.735696
0.859579
0.838197
0.493537
0.0259498
1.34213e-08
0.199949
0.0651594
0.0213449
0.0393507
0.158009
0.191493
0.178714
0.0904464
0.000341356
0.00311103
0.0104603
0.0346297
0.07952
0.332262
0.574961
0.421209
0.115421
0.00202635
8.06451e-07
0.00306604
4.56221e-08
2.72212e-13
-3.84145e-10
0.00226158
0.0510558
0.114414
0.114419
0.110402
0.0906517
0.115632
0.185571
0.194572
0.178375
0.112829
0.0163392
1.15098e-10
1.16679e-10
4.79739e-09
-1.02316e-09
9.21421e-07
8.54819e-07
2.46673e-07
-2.22888e-11
1.13407e-26
5.21623e-15
5.61257e-06
-9.4826e-08
-9.2085e-20
0.0392999
0.121532
0.099656
0.0372829
1.15642e-09
2.35698e-10
3.36443e-08
2.45798e-09
4.8945e-09
7.99599e-06
9.19067e-06
7.60514e-06
8.83697e-08
2.79407e-11
2.738e-15
5.35541e-09
0.000113092
0.000731093
0.000866804
-2.36589e-22
-3.14686e-21
-1.38395e-21
7.94361e-16
1.47573e-06
1.0558e-06
1.96189e-07
4.49586e-09
6.46711e-09
9.23328e-06
9.23465e-06
9.23318e-06
4.10321e-06
1.07634e-06
1.36943e-05
4.49116e-05
0.000303779
0.000547449
0.000968895
0.000987968
0.000889741
0.000401029
0.00019746
1.58348e-05
1.39577e-06
3.01274e-10
1.76447e-09
7.56984e-09
1.87126e-06
7.70248e-06
8.20028e-06
5.44761e-06
3.02734e-05
8.50936e-05
9.95188e-05
5.48896e-05
3.11716e-13
1.87226e-13
3.12026e-13
1.87587e-13
1.27662e-11
2.02745e-05
7.39669e-16
5.8672e-14
3.49498e-11
1.62278e-09
4.57742e-09
1.36495e-06
1.80997e-06
2.54702e-06
1.14804e-05
1.38337e-05
3.05448e-06
5.8018e-08
4.20479e-12
4.3542e-12
2.21797e-11
4.58866e-11
5.22696e-11
3.55983e-11
9.05523e-12
9.39859e-12
1.50892e-11
1.30245e-11
3.95989e-12
2.69267e-12
3.03926e-07
3.35543e-07
3.18505e-07
8.23908e-11
3.48208e-11
3.12836e-11
2.83592e-11
2.69388e-11
4.51819e-12
1.66257e-10
2.79249e-10
2.96067e-10
1.69826e-10
7.24225e-11
3.17311e-11
1.39817e-11
7.92754e-12
4.38403e-12
2.6922e-12
2.72362e-07
2.2323e-07
5.84372e-08
1.08747e-08
1.25779e-08
4.62284e-08
7.19448e-08
5.21324e-08
8.94362e-09
4.00527e-10
4.46619e-10
4.89177e-10
3.98261e-10
2.44938e-10
8.08169e-11
2.80382e-11
1.28619e-11
6.07822e-12
2.70186e-12
1.89304e-07
2.12185e-07
9.69675e-08
3.6739e-08
5.60664e-08
1.21838e-07
1.84243e-07
1.839e-07
8.48538e-08
9.38413e-09
6.27298e-10
8.29243e-10
6.74586e-10
4.16026e-10
1.79164e-10
5.33696e-11
1.69279e-11
6.5302e-12
2.54409e-12
9.96007e-10
9.85187e-10
9.96652e-10
1.43618e-09
1.4245e-09
3.11105e-08
1.32228e-07
1.60212e-07
9.85891e-08
3.56016e-08
1.87448e-09
1.03036e-09
8.54636e-10
5.67698e-10
3.06398e-10
9.54951e-11
2.2876e-11
6.63759e-12
2.35387e-12
1.18708e-09
9.7405e-10
1.26791e-09
2.57339e-09
3.11352e-09
9.33843e-10
5.80006e-10
5.87483e-10
2.16147e-08
1.98667e-08
5.62636e-09
1.28244e-09
8.85411e-10
5.94504e-10
3.64021e-10
1.25531e-10
2.89264e-11
6.34777e-12
2.26632e-12
4.5172e-10
6.07581e-10
9.16135e-10
2.44662e-09
3.28311e-09
3.2466e-09
1.52709e-09
6.3408e-10
4.58392e-10
4.60536e-10
1.23818e-09
1.29461e-09
7.39393e-10
4.74972e-10
3.19247e-10
1.40962e-10
2.92856e-11
5.87189e-12
2.20396e-12
1.57062e-10
2.17929e-10
3.83092e-10
5.90591e-10
1.85155e-09
2.75381e-09
2.84415e-09
2.04449e-09
1.03227e-09
5.7783e-10
3.72711e-10
3.61343e-10
2.98646e-10
2.62934e-10
1.87666e-10
8.55936e-11
1.68089e-11
4.99209e-12
2.16035e-12
5.22999e-11
7.07573e-11
1.30152e-10
2.38512e-10
3.88739e-10
7.63613e-10
9.57261e-10
9.85347e-10
8.68188e-10
5.4165e-10
3.08695e-10
2.37842e-10
1.69845e-10
1.33244e-10
1.01368e-10
3.72762e-11
8.44234e-12
4.43624e-12
2.05417e-12
1.31839e-11
2.33851e-11
2.94384e-11
6.34627e-11
1.30571e-10
1.712e-10
1.65352e-10
1.09173e-10
9.46751e-11
1.07541e-10
1.1513e-10
1.07119e-10
9.6643e-11
7.75553e-11
4.99112e-11
1.36212e-11
5.09594e-12
3.98178e-12
2.00091e-12
2.4742e-12
3.63185e-12
6.69271e-12
1.47999e-11
3.68475e-11
4.9774e-11
4.56951e-11
4.30854e-11
4.68598e-11
5.73327e-11
6.54515e-11
5.84368e-11
4.87634e-11
3.30079e-11
1.47998e-11
3.10633e-12
3.26957e-12
3.62643e-12
1.93387e-12
5.44252e-13
9.82908e-13
2.61228e-12
5.0694e-12
8.56651e-12
9.69442e-12
1.19536e-11
1.55653e-11
2.41867e-11
2.94952e-11
2.69213e-11
2.33217e-11
1.50475e-11
5.76479e-12
1.14022e-12
1.22135e-12
2.79864e-12
3.32746e-12
1.82325e-12
1.49992e-13
2.78824e-13
8.50815e-13
1.56253e-12
2.16985e-12
3.29209e-12
5.23633e-12
9.1367e-12
1.26726e-11
1.24139e-11
1.10396e-11
8.55119e-12
2.79765e-12
3.15625e-13
2.21078e-13
7.4805e-13
2.58386e-12
3.05866e-12
1.71049e-12
2.83205e-14
7.99861e-14
2.24791e-13
3.54532e-13
5.52061e-13
1.0695e-12
2.38223e-12
3.95071e-12
4.28285e-12
3.88814e-12
2.89378e-12
8.65837e-13
1.24765e-13
1.04562e-14
1.22266e-13
7.06493e-13
2.27036e-12
2.62452e-12
1.5719e-12
5.78833e-15
2.30205e-14
4.94504e-14
9.20585e-14
1.90123e-13
4.72539e-13
9.38108e-13
1.18021e-12
1.08399e-12
8.62179e-13
2.75506e-13
3.62279e-14
1.48344e-15
1.42911e-15
1.17149e-13
6.7918e-13
1.87614e-12
2.21535e-12
1.29233e-12
9.26031e-16
4.76216e-15
1.41633e-14
3.59918e-14
7.86556e-14
1.79621e-13
2.19544e-13
2.22845e-13
1.93886e-13
6.49017e-14
8.97165e-15
4.36167e-16
1.76129e-16
9.46778e-16
8.67509e-14
4.71263e-13
1.49096e-12
1.86452e-12
1.07886e-12
1.25245e-16
1.01065e-15
4.27719e-15
1.69473e-14
2.81565e-14
3.59756e-14
3.73923e-14
3.34459e-14
1.2696e-14
2.12676e-15
1.1795e-16
4.74186e-17
1.77793e-16
1.21166e-15
5.89788e-14
3.43719e-13
1.11957e-12
1.56056e-12
9.01179e-13
1.55167e-17
1.97657e-16
1.5482e-15
3.2831e-15
4.49883e-15
4.99607e-15
4.65835e-15
3.49594e-15
9.69416e-16
9.11194e-17
4.709e-18
4.67475e-17
4.64338e-16
2.05306e-15
3.49878e-14
2.83166e-13
9.37369e-13
1.3006e-12
6.83425e-13
2.96638e-18
5.87211e-17
2.53033e-16
4.05442e-16
4.8703e-16
4.88425e-16
4.20061e-16
1.94498e-16
3.74955e-17
1.63022e-18
2.89354e-18
6.33904e-17
6.46194e-16
4.06766e-15
3.4798e-14
2.60645e-13
8.29002e-13
9.77129e-13
4.41067e-13
6.34843e-19
1.04457e-17
2.48092e-17
3.72211e-17
4.32483e-17
4.0923e-17
2.8773e-17
6.58708e-18
5.11386e-19
8.92493e-20
2.91494e-18
7.43426e-17
8.14345e-16
6.36596e-15
6.03569e-14
2.82589e-13
6.9799e-13
6.76781e-13
2.49489e-13
1.30411e-19
1.08972e-18
2.06684e-18
2.90716e-18
3.00628e-18
2.46457e-18
1.21685e-18
1.43619e-19
7.02743e-21
6.04529e-20
2.55198e-18
7.83157e-17
8.7684e-16
7.53075e-15
7.26603e-14
3.17023e-13
5.87933e-13
5.2259e-13
1.43325e-13
1.8408e-20
7.13504e-20
1.32796e-19
1.60206e-19
1.47412e-19
9.27272e-20
2.81466e-20
1.94457e-21
2.89279e-21
4.81846e-20
1.09888e-18
5.22486e-17
6.35118e-16
7.17904e-15
6.50989e-14
2.78289e-13
4.11173e-13
3.17169e-13
7.49137e-14
1.61752e-21
4.80392e-21
7.2687e-21
7.73861e-21
6.03853e-21
2.41307e-21
2.79761e-22
1.66892e-22
2.20315e-21
3.43292e-20
5.5446e-19
1.28292e-17
2.20917e-16
4.71765e-15
3.91708e-14
1.39183e-13
2.15692e-13
1.5756e-13
3.17572e-14
1.04845e-22
2.46378e-22
3.30777e-22
3.02164e-22
1.67942e-22
3.32288e-23
1.10203e-23
8.37814e-23
1.20439e-21
1.63524e-20
2.08364e-19
3.76837e-18
1.12718e-16
2.24301e-15
1.53486e-14
4.59178e-14
6.58091e-14
4.75033e-14
1.12929e-14
6.27812e-24
1.1932e-23
1.30063e-23
9.5646e-24
2.90196e-24
1.32657e-24
6.01874e-24
4.64642e-23
4.81946e-22
5.10016e-21
4.40821e-20
1.11863e-18
4.89838e-17
7.14647e-16
5.22812e-15
1.07973e-14
1.37329e-14
1.1971e-14
3.13132e-15
2.86472e-25
4.20531e-25
3.87859e-25
1.73948e-25
1.59658e-25
7.92698e-25
4.97076e-24
2.99549e-23
1.77009e-22
1.23011e-21
8.73154e-21
1.93386e-19
1.46306e-17
1.49277e-16
1.33527e-15
2.4002e-15
2.61655e-15
1.933e-15
8.55516e-16
1.31135e-26
1.5047e-26
9.91439e-27
1.38442e-26
9.59665e-26
6.78431e-25
4.23394e-24
2.2413e-23
9.92657e-23
4.02741e-22
1.81838e-21
1.52062e-20
2.17765e-18
1.88128e-17
1.42358e-16
3.90047e-16
5.68667e-16
4.1698e-16
1.67165e-16
5.13028e-28
4.71729e-28
1.01939e-27
8.50094e-27
7.81289e-26
5.45314e-25
3.29514e-24
1.60508e-23
6.23765e-23
2.00544e-22
5.73575e-22
2.02295e-21
5.31254e-20
1.62974e-18
1.56059e-17
4.93937e-17
4.59354e-17
3.322e-17
3.83598e-17
2.20444e-29
5.98986e-29
6.24265e-28
6.80714e-27
6.20875e-26
4.18722e-25
2.28595e-24
9.94241e-24
3.42486e-23
9.46361e-23
2.26099e-22
4.75661e-22
2.31014e-21
4.59667e-20
1.59336e-18
2.41982e-18
2.8055e-18
3.71966e-18
9.07833e-18
3.03935e-30
3.56072e-29
5.30512e-28
5.98144e-27
4.91353e-26
2.88213e-25
1.30573e-24
4.88766e-24
1.43277e-23
3.41307e-23
7.23113e-23
1.16496e-22
1.85416e-22
4.46661e-22
4.26879e-20
1.01135e-19
1.15858e-19
6.15901e-19
3.62654e-18
1.80837e-30
3.55087e-29
5.57751e-28
5.4886e-27
3.64613e-26
1.76673e-25
6.64476e-25
2.00059e-24
4.94394e-24
1.04454e-23
1.87125e-23
2.71258e-23
4.18285e-23
3.23501e-23
4.52492e-23
1.42858e-21
2.0721e-20
2.38485e-19
1.3297e-18
2.68647e-30
4.66172e-29
5.32134e-28
3.71071e-27
1.78812e-26
6.70096e-26
1.99971e-25
4.90741e-25
1.04064e-24
2.10998e-24
3.51958e-24
5.09451e-24
7.0471e-24
5.11555e-24
1.21407e-23
3.62462e-22
5.20964e-21
5.33026e-20
2.04499e-19
4.09356e-30
4.05391e-29
2.50818e-28
1.08424e-27
3.61281e-27
1.00833e-26
2.55516e-26
5.49322e-26
1.02223e-25
1.72894e-25
2.45011e-25
3.22087e-25
4.02115e-25
1.70547e-25
3.29212e-25
1.41448e-23
2.74254e-22
1.72368e-21
5.61569e-22
)
;

boundaryField
{
    leftWall
    {
        type            zeroGradient;
    }
    rightWall
    {
        type            zeroGradient;
    }
    lowerWall
    {
        type            zeroGradient;
    }
    atmosphere
    {
        type            inletOutlet;
        inletValue      uniform 0;
        value           nonuniform List<scalar> 
46
(
9.45147e-15
1.20236e-14
5.91649e-15
2.08332e-15
6.37416e-16
1.72584e-16
4.14076e-17
8.76799e-18
1.71959e-18
3.02551e-19
4.71996e-20
6.64082e-21
8.21855e-22
7.86867e-23
1.07183e-24
1.62e-26
3.25891e-28
1.03984e-29
6.10859e-31
5.52223e-32
6.03557e-33
6.52937e-34
0
0
0
0
0
0
0
0
0
0
0
0
0
0
0
0
0
0
0
0
0
0
0
0
)
;
    }
    defaultFaces
    {
        type            empty;
    }
}


// ************************************************************************* //
