/*--------------------------------*- C++ -*----------------------------------*\
| =========                 |                                                 |
| \\      /  F ield         | OpenFOAM: The Open Source CFD Toolbox           |
|  \\    /   O peration     | Version:  2312                                  |
|   \\  /    A nd           | Website:  www.openfoam.com                      |
|    \\/     M anipulation  |                                                 |
\*---------------------------------------------------------------------------*/
FoamFile
{
    version     2.0;
    format      ascii;
    arch        "LSB;label=32;scalar=64";
    class       volScalarField;
    location    "1";
    object      p;
}
// * * * * * * * * * * * * * * * * * * * * * * * * * * * * * * * * * * * * * //

dimensions      [1 -1 -2 0 0 0 0];

internalField   nonuniform List<scalar> 
2268
(
7226.76
7004.62
6730.05
6396.34
6073.39
5793.03
5570.08
5403.5
5282.87
5194.88
5128.89
5077.71
5036.36
5001.58
4972.15
4948.93
4933.9
4928.42
4932.13
4942.38
4955.02
4963.31
4967.72
6465.18
6230.7
5943.57
5597.91
5267.16
4983.57
4761.03
4596.83
4479.04
4393.16
4328.41
4277.96
4237
4202.27
4172.55
4148.98
4133.88
4128.81
4133.43
4144.92
4158.44
4167.54
4172.15
5731.9
5474.09
5163.39
4794.82
4449.07
4159.75
3938.78
3779.71
3667.64
3586.14
3523.94
3475.06
3435.02
3400.47
3370.21
3345.93
3330.7
3326.45
3332.91
3346.85
3362.2
3372.46
3376.83
5033.84
4737.94
4389.35
3984.91
3615.8
3317.92
3099.95
2949.29
2848.38
2773.65
2714.98
2668.4
2629.87
2595.72
2564.62
2539.15
2523.73
2520.86
2530.33
2548.26
2566.47
2578.07
2582.04
4376.5
4023.29
3620.46
3166.75
2767.77
2460.59
2248.52
2111.71
2026.41
1954.88
1900.5
1857.29
1821.26
1787.85
1755.41
1728.16
1712.67
1711.83
1725.25
1748.79
1771.11
1784.16
1787.4
3759.89
3328.97
2852.32
2326.91
1882.35
1614.56
1462.78
1372.09
1314.9
1269.25
1228.61
1192.53
1160.91
1132.78
1108.82
1091.86
1083.72
1083.61
1090.75
1104.38
1117.08
1123.6
1118.92
3174.48
2649.72
2073.67
1542
1278.39
1171.68
1104.39
1057.11
1016.8
978.264
941.706
907.945
878.147
854.785
840.766
835.976
836.359
837.583
837.784
836.479
832.858
828.016
811.717
2606.8
1986.48
1407.41
1155.8
1106
1072.88
1035.24
994.482
955.392
916.973
880.219
846.391
816.555
793.099
779.314
774.9
775.607
777.006
777.581
777.729
774.649
765.988
745.946
1689.7
1629.66
1650.98
1629.83
1581.84
1568.25
1579.28
1612.35
1789.92
2261.58
2837.49
3506.77
4057.78
4168.15
3958.02
3575.69
3135.09
2665.61
2518.45
1399.43
1358.73
1446.4
1456.91
1416.32
1378.53
1358.92
1392.6
1503.87
1799.79
2244.15
2839.04
3400.79
3470.61
3206.79
2805.02
2390.32
2126.19
2302.29
1246.7
1239.67
1285.05
1307.63
1269.87
1209.86
1163.33
1163.85
1287.43
1584.87
1968.24
2428.3
2826.4
2806.76
2466.27
2070.81
1753.75
1610.86
1981.61
1205.07
1207.64
1219.09
1206.29
1162
1105.18
1066.68
1062.69
1151.03
1427.99
1794.94
2094.67
2267.08
2155.13
1792.15
1451.74
1314.69
1337.08
1548.52
1175.08
1166.33
1155.59
1130
1080.76
1028.94
996.681
1005.92
1070.64
1277.11
1608.69
1781.87
1760.94
1610.3
1281.97
1096
1115.48
1199.51
1150.19
1127.75
1102.45
1072.7
1023.99
963.216
913.105
895.646
925.602
986.231
1123.73
1385.16
1509.14
1449.49
1262.5
972.811
913.22
995.27
1093.75
910.8
1059.97
1015.28
951.905
898.037
845.183
795.498
789.267
833.569
889.81
983.035
1195.73
1320.95
1244.88
1002.45
799.637
806.063
861.559
895.75
782.905
966.22
917.845
850.959
802.717
757.825
710.88
701.584
740.357
801.233
881.537
1036.78
1117.05
1029.25
783.956
719.607
726.764
735.254
701.062
685.112
1803.69
1264.02
1060.23
1018.98
995.168
963.425
930.628
894.274
856.315
818.184
781.052
747.145
717.304
692.571
678.572
676.096
678.773
681.097
682.599
687.945
697.685
694.909
679.102
1136.07
810.058
886.952
866.537
855.404
834.555
804.319
766.804
725.49
682.868
640.935
603.75
574.789
551.532
537.965
537.219
541.966
553.639
573.679
585.118
592.377
596.255
596.134
782.588
713.082
762.718
759.219
744.331
720.21
686.555
644.016
595.191
542.165
492.005
445.704
400.011
376.627
377.173
394.997
424.96
442.539
468.619
494.158
503.306
495.247
487.147
658.028
651.304
665.774
658.979
639.643
611.457
572.952
523.556
468.019
395.196
335.726
313.017
284.038
239.582
232.482
254.968
322.171
368.807
389.263
405.512
407.276
394.855
378.411
600.095
591.551
582.497
565.926
542.741
512.65
471.296
403.701
354.908
311.485
241.278
203.131
188.163
181.083
189.153
208.409
239.723
283.654
310.463
319.993
317.531
305.162
288.654
517.537
509.945
497.554
476.02
452.118
417.363
403.319
348.11
271.388
220.041
180.704
166.943
171.837
175.531
181.539
194.217
211.167
233.704
244.027
244.896
239.692
232.875
228.413
424.659
422.299
416.693
393.741
386.187
369.633
331.075
292.325
235.733
172.076
160.412
161.74
165.803
170.442
175.476
182.206
187.888
190.619
183.798
177.9
171.789
164.974
160.404
363.28
359.998
357.375
345.036
332.421
324.488
301.96
263.095
206.64
155.717
154.742
158.393
160.319
160.972
155.393
139.578
125.343
113.584
104.265
98.8029
90.26
76.9977
63.8718
339.321
330.561
323.376
308.521
303.285
293.422
268.724
235.138
188.465
141.715
129.771
147.935
147.112
124.599
92.3803
65.5443
44.8184
29.0585
20.5491
17.7273
16.3119
10.1923
5.8379
335.323
310.714
299.029
288.542
277.202
255.628
228.038
197.455
160.811
119.995
90.5578
82.9353
65.3767
34.7
18.7327
10.242
3.08682
-0.158691
-1.19737
-1.53003
-1.66071
-1.72322
-1.72873
347.341
309.845
288.645
268.304
242.49
211.614
180.812
149.408
114.119
71.21
33.7904
15.1976
7.15224
1.33945
-1.73774
-2.26435
-2.33334
-2.29286
-2.24346
-2.18656
-2.11665
-2.02137
-1.95001
350.38
307.323
272.258
237.689
199.512
162.39
126.756
89.8286
48.2693
10.7652
0.47592
-1.97576
-2.53325
-2.50049
-2.52643
-2.51278
-2.51058
-2.48552
-2.43707
-2.36226
-2.26818
-2.18388
-2.12495
331.73
286.209
243.521
196.793
150.517
107.796
66.9755
29.1458
3.68506
-1.35863
-2.02006
-2.34891
-2.54627
-2.62549
-2.67352
-2.6907
-2.69344
-2.66691
-2.59544
-2.4987
-2.40694
-2.32863
-2.2652
287.887
245.242
199.872
146.171
92.7208
47.4503
15.493
0.472212
-1.96883
-2.24512
-2.34578
-2.51416
-2.66013
-2.75833
-2.81234
-2.83762
-2.8393
-2.80544
-2.72994
-2.6249
-2.54
-2.46569
-2.4039
226.987
190.299
145.379
83.6761
30.1342
5.35665
-1.66924
-2.30892
-2.31203
-2.41298
-2.53315
-2.67638
-2.79557
-2.87295
-2.92365
-2.94775
-2.9464
-2.90297
-2.82715
-2.74011
-2.66151
-2.59312
-2.53541
158.774
128.918
83.6449
23.7888
-0.135879
-1.91549
-2.23458
-2.3675
-2.4585
-2.56123
-2.69027
-2.80743
-2.89825
-2.96818
-3.01265
-3.02997
-3.01718
-2.97483
-2.90974
-2.83811
-2.77064
-2.71082
-2.6593
96.6054
72.0445
30.6579
-1.11021
-2.20954
-2.24162
-2.40068
-2.54221
-2.63352
-2.72081
-2.82417
-2.91796
-2.99077
-3.04642
-3.0822
-3.09021
-3.07443
-3.0357
-2.98365
-2.92692
-2.8717
-2.82119
-2.77651
50.6368
25.5065
-0.980742
-2.3993
-2.40939
-2.5226
-2.64466
-2.74964
-2.81677
-2.88287
-2.95619
-3.02462
-3.07966
-3.11998
-3.14296
-3.14478
-3.12816
-3.09731
-3.05732
-3.01314
-2.96883
-2.92696
-2.88883
20.8184
-2.73477
-2.98443
-2.72542
-2.72514
-2.83896
-2.8817
-2.94732
-2.99525
-3.03649
-3.08308
-3.12934
-3.16698
-3.19327
-3.20583
-3.20448
-3.19036
-3.16634
-3.13545
-3.10084
-3.06527
-3.03069
-2.99832
3.19479
-3.67054
-3.01997
-3.07013
-3.11331
-3.06524
-3.09698
-3.13312
-3.15867
-3.18221
-3.20807
-3.23493
-3.25728
-3.27222
-3.2781
-3.27468
-3.26273
-3.24362
-3.21924
-3.19168
-3.16283
-3.13411
-3.10659
3.79726
-2.95019
-3.30422
-3.37751
-3.25181
-3.26757
-3.28248
-3.29837
-3.30866
-3.31794
-3.32894
-3.34137
-3.35213
-3.35875
-3.35989
-3.35501
-3.34427
-3.32838
-3.30853
-3.28607
-3.2623
-3.23823
-3.21472
12.5851
-3.30428
-3.46949
-3.45266
-3.40438
-3.43712
-3.44169
-3.44464
-3.44427
-3.44369
-3.44493
-3.44785
-3.45067
-3.4515
-3.44913
-3.44299
-3.43288
-3.41916
-3.40252
-3.38382
-3.36392
-3.34354
-3.32334
10.1799
-3.18269
-3.44741
-3.53606
-3.54826
-3.5735
-3.57539
-3.57256
-3.56663
-3.56064
-3.55623
-3.55346
-3.55126
-3.5483
-3.54357
-3.53651
-3.52684
-3.51467
-3.5004
-3.48454
-3.46765
-3.45023
-3.43276
-3.59034
-3.80003
-3.59777
-3.66967
-3.67316
-3.6889
-3.69106
-3.6863
-3.67849
-3.67041
-3.66342
-3.65772
-3.65274
-3.6476
-3.64152
-3.634
-3.62479
-3.61388
-3.60145
-3.58781
-3.57332
-3.55831
-3.54314
-3.46814
-3.72598
-3.81167
-3.80588
-3.78721
-3.79441
-3.79555
-3.79068
-3.78325
-3.77518
-3.7676
-3.76084
-3.75467
-3.74857
-3.74198
-3.73445
-3.72582
-3.71601
-3.70511
-3.69328
-3.68075
-3.66774
-3.6545
-3.90785
-3.98624
-3.95487
-3.92223
-3.89545
-3.89675
-3.89541
-3.89087
-3.8845
-3.87732
-3.87018
-3.86345
-3.85711
-3.85088
-3.84439
-3.83723
-3.82929
-3.82051
-3.81093
-3.80062
-3.78973
-3.77841
-3.76684
-4.16481
-4.14956
-4.08339
-4.03369
-4.00653
-3.99962
-3.99521
-3.99051
-3.98492
-3.97873
-3.97242
-3.96629
-3.96035
-3.95447
-3.94844
-3.94194
-3.93478
-3.927
-3.91859
-3.9096
-3.90012
-3.89026
-3.88013
-4.18607
-4.18852
-4.15984
-4.13174
-4.1114
-4.10172
-4.09581
-4.09093
-4.08592
-4.08064
-4.07527
-4.06996
-4.06471
-4.05944
-4.05404
-4.04832
-4.04203
-4.0352
-4.02785
-4.02003
-4.01178
-4.00319
-3.99434
-4.2583
-4.2536
-4.24036
-4.22443
-4.21125
-4.2029
-4.1972
-4.19259
-4.18821
-4.1838
-4.17936
-4.17491
-4.17045
-4.1659
-4.16119
-4.15624
-4.15084
-4.14491
-4.13854
-4.13176
-4.12461
-4.11714
-4.10943
-4.36076
-4.34488
-4.3339
-4.32105
-4.31149
-4.30479
-4.29987
-4.29586
-4.2922
-4.28862
-4.28504
-4.28142
-4.27773
-4.2739
-4.26989
-4.26563
-4.26106
-4.25602
-4.25054
-4.2447
-4.23852
-4.23206
-4.22537
-4.45129
-4.43925
-4.43006
-4.42042
-4.41339
-4.40822
-4.40428
-4.40104
-4.39813
-4.39531
-4.3925
-4.38961
-4.38661
-4.38345
-4.38008
-4.37649
-4.37262
-4.36838
-4.36373
-4.35874
-4.35344
-4.34788
-4.34211
-4.54269
-4.53418
-4.52827
-4.5221
-4.51732
-4.51365
-4.51075
-4.50831
-4.5061
-4.50394
-4.50176
-4.49949
-4.49708
-4.4945
-4.49172
-4.48872
-4.48547
-4.48196
-4.47805
-4.47381
-4.4693
-4.46455
-4.45961
-4.63938
-4.63363
-4.6303
-4.62674
-4.62379
-4.62142
-4.61945
-4.61771
-4.61608
-4.61446
-4.61279
-4.61101
-4.60909
-4.607
-4.60473
-4.60225
-4.59955
-4.59662
-4.59338
-4.58985
-4.58605
-4.58204
-4.57785
-4.74179
-4.7381
-4.73654
-4.73471
-4.73306
-4.73164
-4.73036
-4.72915
-4.72796
-4.72674
-4.72545
-4.72406
-4.72254
-4.72086
-4.71901
-4.71698
-4.71477
-4.71235
-4.70975
-4.70682
-4.70365
-4.70029
-4.69679
-4.84957
-4.84731
-4.84672
-4.84585
-4.84498
-4.84414
-4.8433
-4.84244
-4.84156
-4.84063
-4.83962
-4.83853
-4.83731
-4.83597
-4.83448
-4.83284
-4.83104
-4.82907
-4.82694
-4.82459
-4.82201
-4.81926
-4.81639
-4.96171
-4.96033
-4.9601
-4.95965
-4.95916
-4.95862
-4.95801
-4.95737
-4.95668
-4.95594
-4.95514
-4.95427
-4.9533
-4.95223
-4.95104
-4.94973
-4.94829
-4.94671
-4.945
-4.94315
-4.9411
-4.9389
-4.93659
-5.07686
-5.07598
-5.0758
-5.07548
-5.07512
-5.0747
-5.07421
-5.07368
-5.07311
-5.0725
-5.07185
-5.07114
-5.07037
-5.06952
-5.06858
-5.06755
-5.06642
-5.06519
-5.06385
-5.06242
-5.06085
-5.05914
-5.05736
-5.19391
-5.1933
-5.19309
-5.19279
-5.19245
-5.19205
-5.19161
-5.19114
-5.19064
-5.19013
-5.18959
-5.18901
-5.1884
-5.18774
-5.18702
-5.18623
-5.18537
-5.18443
-5.18343
-5.18235
-5.1812
-5.17995
-5.17865
-5.31213
-5.31169
-5.31144
-5.31113
-5.31078
-5.31039
-5.30997
-5.30954
-5.30911
-5.30867
-5.30822
-5.30777
-5.30729
-5.30679
-5.30625
-5.30567
-5.30504
-5.30437
-5.30365
-5.3029
-5.30212
-5.30127
-5.30039
-5.43111
-5.43077
-5.43051
-5.4302
-5.42985
-5.42948
-5.4291
-5.42872
-5.42835
-5.42798
-5.42763
-5.42728
-5.42693
-5.42657
-5.42619
-5.4258
-5.42538
-5.42494
-5.42448
-5.424
-5.42352
-5.42303
-5.42251
-5.55057
-5.55032
-5.55009
-5.5498
-5.54949
-5.54916
-5.54884
-5.54852
-5.54823
-5.54795
-5.5477
-5.54746
-5.54723
-5.547
-5.54678
-5.54656
-5.54632
-5.54609
-5.54585
-5.54562
-5.54543
-5.54526
-5.54501
-5.67043
-5.67026
-5.67007
-5.66983
-5.66958
-5.66933
-5.66909
-5.66886
-5.66866
-5.66848
-5.66833
-5.6682
-5.66809
-5.66799
-5.6679
-5.66783
-5.66775
-5.66768
-5.66761
-5.66753
-5.66746
-5.66742
-5.6676
631.109
585.514
523.17
505.23
595.958
590.268
584.218
594.075
475.017
463.92
460.872
470.212
366.153
357.339
356.049
361.404
286.184
286.752
290.256
294.276
225.485
223.805
224.423
227.318
155.601
152.14
147.903
146.119
60.738
58.3906
54.2931
50.9097
5.91537
6.61027
4.76709
3.5724
-1.7461
-1.76712
-1.79024
-1.78101
-1.92704
-1.92674
-1.91522
-1.90232
-2.0996
-2.08473
-2.06985
-2.0552
-2.23135
-2.21342
-2.19755
-2.18389
-2.36993
-2.35116
-2.3339
-2.3188
-2.50241
-2.48364
-2.46622
-2.45075
-2.62826
-2.61019
-2.59355
-2.57854
-2.74808
-2.73119
-2.71579
-2.70175
-2.86331
-2.8479
-2.83394
-2.82109
-2.97571
-2.96187
-2.94936
-2.93774
-3.08669
-3.07438
-3.06324
-3.0528
-3.19727
-3.18638
-3.17649
-3.16714
-3.30806
-3.29846
-3.28968
-3.28133
-3.41938
-3.41092
-3.40315
-3.3957
-3.5314
-3.52394
-3.51705
-3.51041
-3.64419
-3.63762
-3.63152
-3.62561
-3.75779
-3.752
-3.74659
-3.74134
-3.87218
-3.86708
-3.8623
-3.85764
-3.98736
-3.98287
-3.97865
-3.97453
-4.10332
-4.09939
-4.09568
-4.09204
-4.22005
-4.21662
-4.21337
-4.21018
-4.3375
-4.33453
-4.3317
-4.32892
-4.45565
-4.45308
-4.45065
-4.44825
-4.57448
-4.57229
-4.57022
-4.56818
-4.69396
-4.69212
-4.69037
-4.68866
-4.81405
-4.81253
-4.8111
-4.80969
-4.93471
-4.93349
-4.93234
-4.93122
-5.0559
-5.05496
-5.05408
-5.05323
-5.17758
-5.17689
-5.17626
-5.17567
-5.29967
-5.29922
-5.29883
-5.29847
-5.42212
-5.42189
-5.42171
-5.42158
-5.54489
-5.54486
-5.54489
-5.54497
-5.66778
-5.66795
-5.66817
-5.66845
721.215
765.915
736.936
703.396
669.87
646.618
641.793
654.375
686.116
726.391
757.726
763.749
687.447
605.964
623.883
616.949
592.63
550.673
571.026
628.103
618.74
596.897
575.181
566.201
569.394
570.022
565.384
550.001
506.326
428.271
419.484
365.188
407.418
456.711
449.25
430.521
430.582
452.747
487.47
477.437
465.048
456.02
459.517
479.509
486.914
475.08
429.353
339.902
258.269
220.539
225.466
254.642
282.072
290.455
297.293
320.949
330.13
373.697
373.532
367.783
360.506
357.386
368.299
382.673
383.8
338.69
277.586
224.371
186.39
168.988
161.16
160.057
162.395
177.615
200.596
201.201
299.132
297.381
289.956
281.324
272.916
268.45
271.109
270.562
252.642
218.468
173.272
138.048
113.094
94.4847
79.8981
73.6379
76.1245
87.0498
96.0005
224.216
215.847
208
201.201
194.392
186.188
177.141
166.276
150.6
124.49
92.2579
68.577
51.5826
36.8259
26.623
18.6278
10.529
13.6976
39.8039
141.047
130.571
122.099
114.982
107.69
98.31
89.7192
78.0045
63.7251
43.7619
25.9077
15.8652
11.3372
6.47704
2.60583
0.364457
0.0447815
0.127472
9.62349
46.2811
39.8712
35.1336
30.6704
27.9326
24.8947
20.5176
14.6779
12.7724
6.36424
1.82067
0.00210834
-0.824086
-0.964221
-0.994283
-0.945577
-0.803359
-0.683782
-0.409284
2.93109
1.9404
1.40457
0.367184
0.123716
0.876612
-0.131776
-1.17196
-1.33869
-1.28091
-1.18677
-1.14662
-1.08702
-1.0991
-1.08869
-1.02083
-0.839367
-0.703601
-0.689265
-1.7333
-1.6616
-1.57728
-1.54414
-1.61316
-1.63804
-1.59706
-1.56146
-1.51712
-1.47355
-1.40663
-1.347
-1.29729
-1.25639
-1.21526
-1.15222
-1.03105
-0.893516
-0.870972
-1.88326
-1.86351
-1.85187
-1.83499
-1.80953
-1.77617
-1.74628
-1.70493
-1.66341
-1.63814
-1.60944
-1.56023
-1.49271
-1.41985
-1.37334
-1.32483
-1.24259
-1.1202
-1.09761
-2.03251
-2.00943
-1.99134
-1.9719
-1.94717
-1.91775
-1.88363
-1.83844
-1.79799
-1.77343
-1.74918
-1.70577
-1.64223
-1.58527
-1.54346
-1.5066
-1.44686
-1.327
-1.29732
-2.16324
-2.13864
-2.1189
-2.09911
-2.07578
-2.04895
-2.0193
-1.97953
-1.93962
-1.90592
-1.87806
-1.84275
-1.79604
-1.75133
-1.71716
-1.69327
-1.66576
-1.55694
-1.50153
-2.29565
-2.26772
-2.2451
-2.22311
-2.19962
-2.17454
-2.14891
-2.12013
-2.08203
-2.04353
-2.01324
-1.98256
-1.94664
-1.91176
-1.88497
-1.87019
-1.87479
-1.8104
-1.7308
-2.42671
-2.39694
-2.3721
-2.34851
-2.32415
-2.2992
-2.27428
-2.25046
-2.22048
-2.18542
-2.15243
-2.12254
-2.09302
-2.06546
-2.04433
-2.03619
-2.04219
-2.03255
-1.98298
-2.5549
-2.52498
-2.49881
-2.47424
-2.44939
-2.42413
-2.3991
-2.37486
-2.35108
-2.32255
-2.29098
-2.26182
-2.23591
-2.21294
-2.19519
-2.18773
-2.18629
-2.21279
-2.18998
-2.6794
-2.65047
-2.62407
-2.59911
-2.57445
-2.54939
-2.52445
-2.50023
-2.47646
-2.45168
-2.42484
-2.39912
-2.37617
-2.35615
-2.34014
-2.331
-2.32355
-2.34128
-2.32346
-2.80047
-2.77323
-2.74749
-2.72286
-2.69877
-2.6746
-2.65041
-2.62676
-2.60373
-2.58075
-2.55744
-2.53498
-2.51455
-2.49658
-2.48165
-2.47075
-2.4595
-2.45904
-2.45161
-2.91899
-2.89375
-2.86926
-2.84558
-2.82237
-2.79936
-2.77648
-2.75399
-2.73216
-2.71086
-2.68995
-2.66995
-2.65155
-2.63512
-2.621
-2.60934
-2.60067
-2.59012
-2.58411
-3.03588
-3.01273
-2.98982
-2.96747
-2.94555
-2.92386
-2.90242
-2.88141
-2.86103
-2.84133
-2.82231
-2.80424
-2.78748
-2.77222
-2.75863
-2.74651
-2.7382
-2.7259
-2.71888
-3.15191
-3.13081
-3.10962
-3.08883
-3.06841
-3.04822
-3.02831
-3.00883
-2.98997
-2.97181
-2.95442
-2.93795
-2.92255
-2.90826
-2.89503
-2.88241
-2.87098
-2.86118
-2.85402
-3.26765
-3.2485
-3.22907
-3.2099
-3.19105
-3.17242
-3.15407
-3.13614
-3.11878
-3.1021
-3.08619
-3.07113
-3.05697
-3.04362
-3.0309
-3.01836
-3.00616
-2.99685
-2.98952
-3.38343
-3.3661
-3.3484
-3.33086
-3.31357
-3.29649
-3.27967
-3.26325
-3.24735
-3.2321
-3.21758
-3.20385
-3.19088
-3.17855
-3.16655
-3.15448
-3.14252
-3.13332
-3.12566
-3.49945
-3.48382
-3.46777
-3.45181
-3.43605
-3.42047
-3.40513
-3.39016
-3.37568
-3.3618
-3.34861
-3.33615
-3.3244
-3.31316
-3.30209
-3.29085
-3.27951
-3.27051
-3.26254
-3.61581
-3.60177
-3.58728
-3.57283
-3.55853
-3.54439
-3.53047
-3.51689
-3.50376
-3.4912
-3.47929
-3.46809
-3.45755
-3.4475
-3.43749
-3.42723
-3.41664
-3.40787
-3.39995
-3.7326
-3.72003
-3.70701
-3.69398
-3.68108
-3.66831
-3.65574
-3.64349
-3.63165
-3.62035
-3.60966
-3.59968
-3.59036
-3.58152
-3.57263
-3.5633
-3.55349
-3.54512
-3.53772
-3.84987
-3.83865
-3.82701
-3.81533
-3.80375
-3.79228
-3.78099
-3.77
-3.75939
-3.74928
-3.73976
-3.73095
-3.72281
-3.7152
-3.70746
-3.69905
-3.68997
-3.68243
-3.67574
-3.96765
-3.95769
-3.94733
-3.93692
-3.92659
-3.91635
-3.90628
-3.89647
-3.88702
-3.87804
-3.86963
-3.86191
-3.85489
-3.84845
-3.84185
-3.83448
-3.82634
-3.81971
-3.81379
-4.08597
-4.07718
-4.06802
-4.05881
-4.04964
-4.04057
-4.03165
-4.02296
-4.01461
-4.00669
-3.99931
-3.9926
-3.98659
-3.98119
-3.97563
-3.96934
-3.96227
-3.95667
-3.95154
-4.20485
-4.19714
-4.1891
-4.181
-4.17295
-4.16497
-4.15714
-4.14952
-4.1422
-4.13528
-4.12885
-4.12304
-4.1179
-4.1134
-4.10873
-4.10348
-4.09755
-4.09301
-4.08864
-4.32428
-4.31758
-4.31059
-4.30354
-4.29654
-4.2896
-4.28279
-4.27618
-4.26984
-4.26386
-4.2583
-4.25331
-4.24891
-4.24513
-4.2412
-4.23692
-4.2321
-4.22858
-4.22492
-4.44426
-4.43851
-4.4325
-4.42644
-4.42042
-4.41447
-4.40864
-4.40298
-4.39756
-4.39246
-4.38772
-4.38348
-4.37971
-4.37652
-4.37318
-4.3698
-4.366
-4.36338
-4.36039
-4.56478
-4.55991
-4.55482
-4.5497
-4.54461
-4.5396
-4.53469
-4.52994
-4.5254
-4.52113
-4.51715
-4.51358
-4.51036
-4.50769
-4.50484
-4.50227
-4.49933
-4.49748
-4.4951
-4.68583
-4.68178
-4.67756
-4.67332
-4.66912
-4.66499
-4.66096
-4.65708
-4.65336
-4.64986
-4.64658
-4.64363
-4.64091
-4.63872
-4.63623
-4.63441
-4.63214
-4.63095
-4.62912
-4.80738
-4.8041
-4.80069
-4.79729
-4.79394
-4.79066
-4.78747
-4.78439
-4.78144
-4.77866
-4.77603
-4.77363
-4.77135
-4.76965
-4.76732
-4.76627
-4.76438
-4.76381
-4.76245
-4.9294
-4.92685
-4.92421
-4.9216
-4.91906
-4.91659
-4.91419
-4.91188
-4.90964
-4.90752
-4.90546
-4.90356
-4.90169
-4.90041
-4.89833
-4.89762
-4.89607
-4.89614
-4.895
-5.05186
-5.04999
-5.04809
-5.04624
-5.04448
-5.04277
-5.04112
-5.03952
-5.03794
-5.03641
-5.03487
-5.03341
-5.0319
-5.03081
-5.02934
-5.02877
-5.02748
-5.02763
-5.02669
-5.17473
-5.17349
-5.17229
-5.17118
-5.17015
-5.16918
-5.16823
-5.16729
-5.16632
-5.16532
-5.16427
-5.16323
-5.16208
-5.16122
-5.1601
-5.15958
-5.15852
-5.15868
-5.15758
-5.29793
-5.29731
-5.29678
-5.29638
-5.29606
-5.29577
-5.29548
-5.29514
-5.29473
-5.29425
-5.29367
-5.29304
-5.29226
-5.29161
-5.29074
-5.29022
-5.28929
-5.2892
-5.28819
-5.42144
-5.42141
-5.42154
-5.4218
-5.42214
-5.42248
-5.42279
-5.42303
-5.42318
-5.42322
-5.42311
-5.42288
-5.42246
-5.42202
-5.42133
-5.42078
-5.41991
-5.41954
-5.4187
-5.54519
-5.54573
-5.54647
-5.54735
-5.5483
-5.54925
-5.55017
-5.55101
-5.55173
-5.5523
-5.55268
-5.55286
-5.55278
-5.55253
-5.55198
-5.5514
-5.55054
-5.54995
-5.54919
-5.66902
-5.67007
-5.67139
-5.6729
-5.67451
-5.67615
-5.67776
-5.67927
-5.68063
-5.6818
-5.68269
-5.68331
-5.68356
-5.68353
-5.68306
-5.68246
-5.68144
-5.68067
-5.67955
)
;

boundaryField
{
    leftWall
    {
        type            calculated;
        value           nonuniform List<scalar> 
50
(
7226.76
6465.18
5731.9
5033.84
4376.5
3759.89
3174.48
2606.8
1803.69
1136.07
782.588
658.028
600.095
517.537
424.659
363.28
339.321
335.323
347.341
350.38
331.73
287.887
226.987
158.774
96.6054
50.6368
20.8184
3.19479
3.79726
12.5851
10.1799
-3.59034
-3.46814
-3.90785
-4.16481
-4.18607
-4.2583
-4.36076
-4.45129
-4.54269
-4.63938
-4.74179
-4.84957
-4.96171
-5.07686
-5.19391
-5.31213
-5.43111
-5.55057
-5.67043
)
;
    }
    rightWall
    {
        type            calculated;
        value           nonuniform List<scalar> 
50
(
2518.45
2302.29
1981.61
1548.52
1150.19
910.8
782.905
685.112
571.026
452.747
330.13
201.201
96.0005
39.8039
9.62349
-0.409284
-0.689265
-0.870972
-1.09761
-1.29732
-1.50153
-1.7308
-1.98298
-2.18998
-2.32346
-2.45161
-2.58411
-2.71888
-2.85402
-2.98952
-3.12566
-3.26254
-3.39995
-3.53772
-3.67574
-3.81379
-3.95154
-4.08864
-4.22492
-4.36039
-4.4951
-4.62912
-4.76245
-4.895
-5.02669
-5.15758
-5.28819
-5.4187
-5.54919
-5.67955
)
;
    }
    lowerWall
    {
        type            calculated;
        value           nonuniform List<scalar> 
62
(
7624.91
7402.77
7128.2
6794.49
6471.54
6191.18
5968.23
5801.65
5681.02
5593.03
5527.04
5475.86
5434.51
5399.73
5370.3
5347.08
5332.05
5326.57
5330.28
5340.53
5353.17
5361.44
5365.84
4967.72
4172.15
3376.83
2582.04
1787.4
1118.92
811.717
745.946
679.049
625.562
562.829
559.402
1689.7
1399.43
1246.7
1205.07
1175.08
1127.75
1059.97
966.22
1853.04
1793.3
1753.41
1710.63
1662.35
1648.77
1659.95
1693.35
1972.98
2612.47
3208.46
3877.72
4413.52
4518.34
4310.92
3953.08
3512.42
2942.68
2590.65
)
;
    }
    atmosphere
    {
        type            calculated;
        value           nonuniform List<scalar> 
46
(
-5.72904
-5.72904
-5.72904
-5.72904
-5.72904
-5.72904
-5.72904
-5.72904
-5.72904
-5.72904
-5.72904
-5.72904
-5.72904
-5.72904
-5.72904
-5.72904
-5.72904
-5.72904
-5.72904
-5.72904
-5.72904
-5.72904
-5.72908
-5.72921
-5.72936
-5.7296
-5.72996
-5.73067
-5.73199
-5.7337
-5.73563
-5.7377
-5.7398
-5.74184
-5.74378
-5.74553
-5.74706
-5.74826
-5.74914
-5.74958
-5.74967
-5.74918
-5.74859
-5.74724
-5.74634
-5.74413
)
;
    }
    defaultFaces
    {
        type            empty;
    }
}


// ************************************************************************* //
