/*--------------------------------*- C++ -*----------------------------------*\
| =========                 |                                                 |
| \\      /  F ield         | OpenFOAM: The Open Source CFD Toolbox           |
|  \\    /   O peration     | Version:  2312                                  |
|   \\  /    A nd           | Website:  www.openfoam.com                      |
|    \\/     M anipulation  |                                                 |
\*---------------------------------------------------------------------------*/
FoamFile
{
    version     2.0;
    format      ascii;
    arch        "LSB;label=32;scalar=64";
    class       volScalarField;
    location    "1";
    object      p_rgh;
}
// * * * * * * * * * * * * * * * * * * * * * * * * * * * * * * * * * * * * * //

dimensions      [1 -1 -2 0 0 0 0];

internalField   nonuniform List<scalar> 
2268
(
7624.91
7402.77
7128.2
6794.49
6471.54
6191.18
5968.23
5801.65
5681.02
5593.03
5527.04
5475.86
5434.51
5399.73
5370.3
5347.08
5332.05
5326.57
5330.28
5340.53
5353.17
5361.44
5365.84
7659.63
7425.14
7138.01
6792.36
6461.61
6178.02
5955.48
5791.28
5673.49
5587.61
5522.86
5472.41
5431.45
5396.72
5367
5343.43
5328.33
5323.26
5327.88
5339.37
5352.89
5361.97
5366.52
7722.65
7464.84
7154.14
6785.57
6439.82
6150.49
5929.53
5770.46
5658.39
5576.89
5514.69
5465.81
5425.77
5391.22
5360.96
5336.68
5321.44
5317.2
5323.66
5337.6
5352.95
5363.21
5367.58
7820.89
7524.99
7176.4
6771.96
6402.85
6104.96
5887
5736.34
5635.43
5560.7
5502.03
5455.45
5416.92
5382.77
5351.67
5326.2
5310.78
5307.91
5317.38
5335.31
5353.52
5365.11
5369.06
7959.85
7606.64
7203.81
6750.1
6351.12
6043.94
5831.86
5695.06
5609.76
5538.23
5483.85
5440.64
5404.6
5371.17
5337.82
5307.33
5288.09
5286.69
5303.69
5331.38
5354.36
5367.49
5370.64
8139.54
7708.62
7231.97
6706.56
6243.6
5394.84
4770.56
4424.27
4233.28
4115.53
4034.85
3981.36
3936.81
3858.04
3717.98
3556.6
3450.23
3439.81
3539.86
3738.09
3934.8
4038.32
4114.5
8350.43
7825.66
7249.62
5609.45
2964.76
1974.95
1623.32
1464.42
1399.38
1360.84
1324.28
1290.52
1260.72
1237.35
1223.33
1218.5
1218.85
1220.01
1220.21
1218.86
1215.03
1239.15
1264.48
8579.05
7958.73
5621.23
1997.9
1547.44
1514.32
1476.69
1435.92
1396.83
1358.41
1321.66
1287.83
1257.99
1234.54
1220.75
1216.32
1217.02
1218.42
1219
1219.14
1216.06
1206.32
1144.77
1853.04
1793.3
1753.41
1710.63
1662.35
1648.77
1659.95
1693.35
1972.98
2612.47
3208.46
3877.72
4413.52
4518.34
4310.92
3953.08
3512.42
2942.68
2590.65
1781.33
1668.29
1759.35
1717.07
1664.12
1657.46
1694.56
1731.59
1821.89
2177.27
2818.27
3698.56
4507.85
4590.38
4332.55
3938.92
3522.32
2834.77
2549.87
1365.38
1317.4
1591.38
1688.66
1640.9
1551.42
1471.02
1489.01
1661.99
1979.81
2390.09
3367.33
4306.44
4462.98
4151.14
3957.59
3410.03
2297.08
2603.29
1319.19
1309.91
1383.17
1403.85
1368.02
1278.62
1217.86
1213.76
1391.48
1774.58
2215.1
3028.49
4630.21
4609.49
4247.57
3875.54
2812.12
1756.86
2482.03
1331.43
1351.02
1411.97
1493.42
1530.51
1446.09
1352.38
1267.29
1320.75
1788.23
2345
3549.3
3621.57
3695.85
3711.82
3217.31
2183.41
1764.81
2076.38
1335.64
1387.18
1594.32
1657.86
1584.73
1506.53
1404.63
1305.74
1314.39
1740.1
2612.74
2892.32
2767.74
3058.65
2741.59
2076.21
1876.52
2047.71
1522.44
1308.9
1402.03
1674.81
1673.26
1526.64
1431.78
1370.78
1308.56
1241.84
1504.04
2305.82
2645.89
2619.08
2942.41
1652.4
1543.55
1941.06
2000.63
1149.69
1292.73
1435.7
1488.05
1285.3
1178.04
1052.61
1160.53
1248.13
1167.18
1261.44
2024.9
3570.67
3546.85
2724.92
1219.31
1379.82
1707.34
1429.37
1050.48
9020.97
6321.7
1975.48
1552.45
1528.63
1496.89
1464.09
1427.74
1389.78
1351.65
1314.52
1280.61
1250.77
1226.04
1212.04
1209.56
1212.22
1214.54
1213.76
1208.28
1193.74
1137.58
1113.67
9246.7
2079.46
1545.61
1525.2
1514.07
1493.22
1462.98
1425.47
1384.15
1341.53
1299.6
1262.41
1233.14
1207.44
1193.89
1194.87
1199.73
1194.19
1086.7
999.877
946.889
1034.94
1083.75
3622.91
1530.2
1546.57
1543.08
1528.19
1504.07
1470.4
1427.87
1379.05
1326.02
1274.28
1217.27
1157.72
1107.64
1122.09
1167.08
1033.27
802.549
773.354
774.463
923.232
1033.92
1129.24
1567.08
1560.35
1574.82
1568.03
1548.69
1520.49
1481.89
1432.6
1377.06
1268.55
1162.89
1064.41
1025.95
841.862
701.963
650.478
652.296
628.509
735.967
822.013
928.715
931.873
1148.82
1634.34
1625.8
1616.74
1600.17
1576.99
1546.87
1491.35
1416.36
1293.97
1113.78
840.44
750.062
568.581
323.372
241.222
241.255
412.207
686.406
740.263
769.868
842.662
830.444
714.796
1676.98
1669.38
1656.99
1635.43
1591.73
1569.19
1409.9
1231.9
881.02
779.691
611.308
256.725
189.605
185.727
191.71
204.4
236.562
495.239
680.767
716.69
713.358
687.322
578.954
1568.28
1643.82
1698.66
1675.76
1562.32
1195.31
1095.16
997.691
877.396
681.5
226.238
173.133
177.07
181.709
186.744
336.607
656.803
740.304
734.361
647.905
641.841
658.902
783.519
744.402
928.185
1435.02
1368.77
1036.3
855.565
965.369
972.542
911.793
678.159
178.514
170.947
172.683
173.963
518.189
814.364
830.234
818.536
809.255
784.446
749.224
742.522
749.966
508.307
571.776
910.975
880.391
696.876
893.664
1036.26
1002.7
956.089
890.022
550.523
288.434
295.613
669.124
819.925
796.837
772.342
595.027
495.72
463.645
435.12
291.988
188.428
755.144
721.016
692.391
664.163
887.31
1085.53
1058.16
1027.62
991.04
950.243
921.067
867.7
689.425
567.851
527.023
341.73
145.149
51.4297
20.2585
11.6926
7.6003
1.81022
0.699041
1110.97
1025.86
743.564
888.756
1135.1
1104.31
1073.53
1042.16
1006.85
932.77
665.891
459.114
271.946
108.009
19.9221
0.0903236
-0.54759
-0.5069
-0.452758
-0.381688
-0.290947
-0.213814
-0.163218
1168.9
1256.36
1164.64
1159.36
1154.81
1117.69
1082.06
1045.13
845.427
277.204
43.2772
6.07569
-0.621978
-0.586778
-0.613464
-0.598255
-0.596164
-0.573289
-0.524845
-0.45056
-0.357195
-0.272351
-0.211861
1212.62
1304.1
1261.45
1214.7
1168.42
1125.7
1084.87
784.777
195.753
0.677381
0.0161371
-0.313085
-0.510245
-0.584508
-0.627007
-0.644224
-0.647309
-0.628958
-0.559364
-0.462681
-0.371055
-0.292782
-0.229392
1181.3
1325.75
1280.42
1226.87
1173.53
1071.89
585.906
108.066
0.192447
-0.0840865
-0.184756
-0.353141
-0.494857
-0.587113
-0.640189
-0.665315
-0.668892
-0.643472
-0.568757
-0.463835
-0.378967
-0.304677
-0.242896
1114.36
1333.39
1288.56
1227.2
819.677
275.741
16.7635
-0.0214139
-0.0257461
-0.126758
-0.246933
-0.389929
-0.506818
-0.57707
-0.626735
-0.654665
-0.658373
-0.616553
-0.540853
-0.453875
-0.375296
-0.306907
-0.249208
1094.16
1334.58
1275.19
687.393
83.1435
0.805485
0.206853
0.0439948
-0.0466546
-0.149637
-0.278725
-0.395793
-0.48621
-0.555655
-0.599913
-0.61812
-0.6056
-0.563345
-0.498295
-0.4267
-0.359238
-0.299427
-0.247907
1174.79
1340.29
907.866
59.1521
0.431654
0.295082
0.136031
-0.00480433
-0.0958767
-0.183195
-0.28687
-0.380675
-0.453714
-0.509561
-0.545416
-0.553501
-0.537776
-0.499079
-0.447044
-0.390327
-0.335115
-0.284604
-0.239926
1276.48
1293.97
158.628
0.263976
0.252478
0.139292
0.017252
-0.0874178
-0.154397
-0.220593
-0.293835
-0.362416
-0.417631
-0.458068
-0.481103
-0.482963
-0.466368
-0.435528
-0.395542
-0.35136
-0.30705
-0.26518
-0.227054
1293.84
521.672
-0.191538
0.0615652
0.0619082
-0.0518798
-0.0946053
-0.160177
-0.208067
-0.249332
-0.295928
-0.342246
-0.379943
-0.406257
-0.418841
-0.417499
-0.403387
-0.379367
-0.348482
-0.313869
-0.278301
-0.243721
-0.211353
1330.96
45.6138
-0.107145
-0.157944
-0.201094
-0.152987
-0.18472
-0.220857
-0.246303
-0.269927
-0.295825
-0.322734
-0.345098
-0.360044
-0.365928
-0.36251
-0.350566
-0.331452
-0.307077
-0.279514
-0.250663
-0.221951
-0.194427
1388.32
67.0701
-0.26628
-0.340119
-0.214292
-0.230107
-0.245038
-0.260722
-0.269987
-0.279463
-0.291394
-0.303978
-0.314757
-0.321383
-0.322533
-0.31765
-0.306906
-0.291017
-0.271167
-0.248712
-0.224938
-0.200873
-0.177362
1453.88
118.552
-0.305343
-0.289694
-0.240141
-0.274325
-0.278857
-0.280573
-0.280169
-0.27974
-0.282197
-0.285269
-0.288107
-0.28894
-0.286578
-0.280434
-0.270329
-0.256604
-0.239963
-0.221264
-0.201365
-0.180988
-0.160784
819.779
93.1482
-0.147571
-0.234945
-0.258618
-0.285445
-0.28689
-0.283225
-0.27732
-0.272492
-0.268417
-0.265697
-0.263509
-0.260555
-0.25582
-0.248758
-0.23909
-0.226924
-0.21265
-0.196789
-0.1799
-0.16248
-0.145016
6.37921
12.67
0.32141
-0.242014
-0.259645
-0.275708
-0.27773
-0.272694
-0.265251
-0.257392
-0.250456
-0.244773
-0.239795
-0.234658
-0.22858
-0.22106
-0.211851
-0.200938
-0.18851
-0.174872
-0.160382
-0.14537
-0.130194
0.0861297
-0.181023
-0.0820403
-0.251044
-0.248502
-0.256029
-0.257263
-0.252452
-0.245071
-0.237033
-0.229457
-0.222702
-0.216532
-0.210436
-0.203845
-0.196317
-0.187683
-0.177875
-0.166971
-0.155143
-0.142611
-0.129599
-0.116364
-0.242801
-0.322065
-0.29061
-0.257446
-0.231
-0.232905
-0.231995
-0.227523
-0.221159
-0.213984
-0.206843
-0.200122
-0.19378
-0.187553
-0.181057
-0.173896
-0.165957
-0.157183
-0.147597
-0.137291
-0.126404
-0.115082
-0.103513
-0.33256
-0.360851
-0.285694
-0.228997
-0.21218
-0.210963
-0.206661
-0.20197
-0.196392
-0.1902
-0.183893
-0.177759
-0.171822
-0.165941
-0.159917
-0.153416
-0.146258
-0.138473
-0.130063
-0.121076
-0.111599
-0.101731
-0.0916099
-0.207642
-0.222129
-0.179999
-0.158826
-0.193286
-0.187896
-0.182078
-0.177203
-0.1722
-0.166921
-0.161551
-0.156236
-0.150988
-0.145725
-0.140321
-0.134596
-0.128311
-0.121476
-0.114132
-0.106309
-0.0980653
-0.0894682
-0.0806217
-0.185545
-0.143211
-0.129312
-0.157792
-0.172077
-0.163965
-0.158278
-0.15367
-0.149291
-0.144883
-0.140442
-0.135998
-0.131535
-0.12699
-0.12228
-0.117323
-0.111926
-0.105997
-0.0996297
-0.092849
-0.0856978
-0.078227
-0.0705184
-0.194278
-0.14356
-0.155089
-0.156572
-0.147333
-0.14067
-0.135755
-0.131748
-0.128085
-0.124508
-0.12093
-0.117314
-0.113618
-0.109793
-0.10578
-0.101524
-0.0969519
-0.0919094
-0.086431
-0.0805868
-0.0744126
-0.0679481
-0.06126
-0.160362
-0.149414
-0.14052
-0.131047
-0.124073
-0.118908
-0.114973
-0.111739
-0.108823
-0.10601
-0.103192
-0.100306
-0.0973038
-0.0941424
-0.0907813
-0.0871838
-0.0833194
-0.079079
-0.0744277
-0.0694342
-0.0641361
-0.0585741
-0.0528045
-0.12774
-0.119485
-0.113697
-0.107578
-0.10281
-0.0991435
-0.0962521
-0.0938158
-0.0915978
-0.0894461
-0.0872647
-0.0849916
-0.0825827
-0.0800035
-0.0772245
-0.074221
-0.0709731
-0.0674621
-0.0635539
-0.0593148
-0.0548058
-0.0500564
-0.0451153
-0.0995919
-0.0938689
-0.0905798
-0.0870371
-0.0840968
-0.081729
-0.0797572
-0.0780178
-0.076386
-0.0747674
-0.0730931
-0.0713143
-0.0693957
-0.0673099
-0.0650352
-0.0625546
-0.0598546
-0.0569251
-0.0536832
-0.0501565
-0.0463628
-0.0423485
-0.0381617
-0.0768529
-0.0731888
-0.0716446
-0.0698156
-0.0681755
-0.0667547
-0.06547
-0.0642597
-0.0630711
-0.0618544
-0.0605667
-0.0591741
-0.0576498
-0.0559727
-0.0541264
-0.0520982
-0.0498796
-0.0474665
-0.0448623
-0.0419289
-0.0387595
-0.0354071
-0.0319056
-0.0594738
-0.0572202
-0.0566357
-0.0557632
-0.0548991
-0.0540614
-0.0532182
-0.0523615
-0.0514782
-0.0505467
-0.0495432
-0.0484451
-0.0472328
-0.0458896
-0.0444024
-0.0427612
-0.0409592
-0.0389933
-0.0368635
-0.0345104
-0.0319275
-0.02918
-0.0263043
-0.0464316
-0.045051
-0.0448189
-0.0443699
-0.0438808
-0.0433398
-0.0427392
-0.0420922
-0.0414031
-0.0406652
-0.0398657
-0.03899
-0.038023
-0.0369515
-0.0357642
-0.0344525
-0.0330104
-0.031435
-0.0297262
-0.0278719
-0.0258243
-0.0236199
-0.0213144
-0.036391
-0.035507
-0.0353295
-0.0350118
-0.0346537
-0.0342293
-0.0337413
-0.033207
-0.0326359
-0.0320277
-0.0313757
-0.0306695
-0.0298975
-0.0290485
-0.0281125
-0.0270818
-0.025951
-0.0247175
-0.0233821
-0.0219482
-0.0203781
-0.0186715
-0.016891
-0.0282476
-0.0276349
-0.0274232
-0.0271207
-0.0267829
-0.0263888
-0.0259467
-0.0254728
-0.0249769
-0.024461
-0.0239212
-0.0233497
-0.0227372
-0.0220739
-0.0213511
-0.0205617
-0.019701
-0.0187669
-0.0177612
-0.0166904
-0.0155372
-0.0142878
-0.0129817
-0.0212725
-0.0208261
-0.0205821
-0.0202663
-0.0199186
-0.019531
-0.0191144
-0.0186835
-0.018247
-0.0178075
-0.0173625
-0.016906
-0.0164302
-0.0159271
-0.0153888
-0.0148092
-0.014184
-0.0135118
-0.012795
-0.0120404
-0.0112582
-0.0104132
-0.00952625
-0.0150521
-0.0147138
-0.0144597
-0.0141448
-0.0138004
-0.0134304
-0.0130477
-0.0126656
-0.0122917
-0.0119286
-0.0115747
-0.0112254
-0.0108745
-0.0105152
-0.0101411
-0.00974689
-0.00932915
-0.008887
-0.00842326
-0.00794482
-0.00746235
-0.00697377
-0.00645489
-0.00932422
-0.00907447
-0.00883892
-0.00855029
-0.00823718
-0.00791184
-0.00758691
-0.00727371
-0.00697861
-0.00670358
-0.00644758
-0.00620749
-0.00597857
-0.00575552
-0.00553329
-0.00530772
-0.0050761
-0.0048383
-0.00459891
-0.00437107
-0.00417834
-0.00401026
-0.00376004
-0.00398346
-0.00381606
-0.00362559
-0.00339224
-0.00314108
-0.00288821
-0.00264425
-0.00241867
-0.00221647
-0.00203941
-0.00188684
-0.00175604
-0.00164381
-0.00154662
-0.0014609
-0.00138319
-0.00131019
-0.00123874
-0.00116602
-0.00108971
-0.00101402
-0.000975288
-0.0011594
1039.66
926.807
861.156
966.899
999.897
1225.46
1228.27
1263.76
1218.15
1229.37
1230.43
1237.73
1225.15
1038.67
929.459
890.217
690.802
651.944
605.504
604.936
575.766
571.481
698.086
807.099
778.406
782.897
794.712
794.784
746.1
727.417
714.809
702.828
202.377
221.459
175.139
137.75
0.407066
0.213183
0.0916399
0.120733
-0.140624
-0.140478
-0.128945
-0.11585
-0.186709
-0.17281
-0.157512
-0.141854
-0.195527
-0.177602
-0.161745
-0.148062
-0.20893
-0.190154
-0.172894
-0.157799
-0.216209
-0.197444
-0.180026
-0.164553
-0.216869
-0.198805
-0.182159
-0.167153
-0.211501
-0.194608
-0.179206
-0.165165
-0.201538
-0.186118
-0.172159
-0.159311
-0.188738
-0.174894
-0.16239
-0.150772
-0.174528
-0.162211
-0.151066
-0.14063
-0.159909
-0.149017
-0.139125
-0.129776
-0.145509
-0.135901
-0.127125
-0.118775
-0.131634
-0.123175
-0.115403
-0.10795
-0.11846
-0.111001
-0.104107
-0.0974715
-0.106058
-0.0994878
-0.0933833
-0.0874746
-0.0944644
-0.0886711
-0.0832582
-0.0780061
-0.0836572
-0.0785585
-0.0737773
-0.0691135
-0.0736436
-0.0691529
-0.0649277
-0.0608058
-0.0644098
-0.0604752
-0.0567652
-0.0531286
-0.055945
-0.0525092
-0.0492571
-0.046068
-0.0481996
-0.045223
-0.0424014
-0.0396206
-0.0411551
-0.0385866
-0.0361497
-0.0337556
-0.0347867
-0.0325987
-0.0305258
-0.0284844
-0.029074
-0.0272325
-0.0254872
-0.0237765
-0.0239664
-0.0224492
-0.021017
-0.0196114
-0.019434
-0.0182106
-0.0170614
-0.0159465
-0.0154319
-0.014487
-0.0136098
-0.0127615
-0.0119163
-0.0112281
-0.0105977
-0.0100014
-0.00881502
-0.00836571
-0.00797202
-0.00761011
-0.00606447
-0.00583511
-0.0056596
-0.00552676
-0.00364564
-0.00361584
-0.00364275
-0.00372044
-0.00133814
-0.00150238
-0.00172489
-0.00200632
1195.27
1352.26
1297.78
1229.45
1117.33
892.697
877.423
886.988
1020.08
1545.52
2597.28
3846.86
3753.09
1552.1
1273.28
1340.42
1439.34
1027.43
902.45
1323.54
1283.14
1254.36
1192.24
1032.11
845.117
841.151
937.832
998.493
1416.97
2376.72
2912
1833.41
1394.7
1474.98
1278.6
1046.22
828.205
867.456
1254.35
1184.97
1077.45
1019.12
1114.52
1024.4
1006.6
865.463
918.415
910.41
853.927
691.776
773.035
1128.77
1369.24
1143.82
895.797
783.774
886.578
866.857
810.738
819.652
821.936
906.466
1099.71
1136.34
1074.38
918.434
660.679
627.2
576.611
586.699
718.872
858.126
837.338
706.485
803.113
800.253
716.417
814.567
806.995
779.164
738.39
771.528
1003.85
1214.9
1072.64
999.307
964.237
853.887
765.452
704.324
587.841
490.464
540.247
560.775
460.173
803.381
796.051
787.866
781.013
774.254
766.121
757.182
755.316
788.276
838.913
886.353
883.423
739.287
581.237
449.885
316.105
160.658
202.063
344.047
789.712
777.257
764.41
757.288
749.995
739.398
790.264
852.206
716.935
598.59
448.541
336.118
271.463
162.31
79.1792
27.6984
2.2537
10.826
218.745
680.979
645.642
615.501
594.324
552.111
433.195
433.175
355.268
330.714
178.665
67.2127
26.6771
1.0604
0.685822
0.435485
0.495161
0.645701
2.39328
4.60807
115.692
86.5292
66.1159
38.3133
36.4426
61.7871
34.0957
7.73813
0.212667
0.371783
1.04261
1.47435
1.35421
0.611632
0.446366
0.643681
1.11484
1.52015
2.63831
0.312118
1.17225
2.85032
3.80777
1.8724
0.0240764
0.0642258
0.100231
0.144335
0.599021
2.02737
2.08122
1.59737
0.404389
0.445082
0.677151
1.18737
1.32256
1.31877
-0.0967483
-0.0771458
-0.0656144
-0.048817
-0.0222752
0.0122526
0.0401372
0.0809658
0.122475
0.209974
0.580378
0.746337
0.294421
0.366263
0.41223
0.462553
0.607771
0.798449
0.696093
-0.118702
-0.0957782
-0.0791446
-0.0603827
-0.0349653
0.00314917
0.0844494
0.156133
0.1374
0.137362
0.161779
0.205448
0.268649
0.325493
0.367709
0.404209
0.481068
0.664607
0.622853
-0.125921
-0.0944137
-0.0683005
-0.0504657
-0.0362487
-0.00952935
0.107636
0.361741
0.391682
0.212285
0.161659
0.193068
0.239778
0.284497
0.318669
0.342573
0.539754
1.90989
0.611951
-0.134652
-0.106716
-0.0705593
-0.042825
-0.0224216
-0.00980437
0.0141291
0.321825
0.425757
0.464439
0.230804
0.178455
0.214374
0.249257
0.276032
0.290814
0.44377
2.17476
1.78647
-0.140513
-0.110748
-0.0859026
-0.0443819
-0.0167286
-0.00359227
0.0133999
0.0361441
0.362402
0.467463
0.276232
0.16367
0.193196
0.22074
0.241863
0.250006
0.244341
2.1817
2.23231
-0.143509
-0.113588
-0.0874208
-0.0574701
-0.0156078
0.00520508
0.0142222
0.0366544
0.0722698
0.176057
0.156982
0.149694
0.175506
0.198456
0.216203
0.223659
0.226959
0.961569
0.371058
-0.142802
-0.113834
-0.0874688
-0.0625071
-0.0240983
0.0058035
0.0222374
0.0366232
0.0601197
0.084902
0.111744
0.137556
0.160469
0.180445
0.196446
0.205585
0.445953
0.195764
0.213593
-0.138663
-0.111246
-0.0855556
-0.0610126
-0.0369796
-0.00503428
0.021122
0.0378538
0.0580477
0.0810229
0.104339
0.126802
0.14724
0.165207
0.180129
0.191033
0.584761
0.249828
0.2107
-0.13197
-0.106542
-0.0820535
-0.0585075
-0.0353947
-0.0123909
0.0111625
0.0335916
0.0548834
0.076109
0.0970237
0.117017
0.13542
0.151855
0.16597
0.177649
0.566154
0.263401
0.203524
-0.123707
-0.10047
-0.0775533
-0.0552841
-0.0333847
-0.011699
0.00974504
0.0307559
0.0511334
0.0708363
0.0898526
0.107921
0.124688
0.13995
0.15354
0.165677
0.176463
0.20534
0.194113
-0.114548
-0.0934503
-0.0722638
-0.0514706
-0.0310438
-0.0108555
0.00905502
0.0285258
0.0473888
0.065548
0.0829357
0.0994104
0.114811
0.129103
0.142332
0.154972
0.166544
0.17682
0.183886
-0.105099
-0.0859429
-0.0665127
-0.0473472
-0.0284915
-0.0098624
0.00848842
0.0264177
0.0437758
0.0604522
0.0763631
0.0914245
0.105588
0.118936
0.131657
0.144208
0.158575
0.168057
0.173616
-0.0956845
-0.0783571
-0.0606508
-0.0431101
-0.025823
-0.00874219
0.00807458
0.024498
0.0403922
0.0556438
0.070166
0.0839021
0.0968648
0.109203
0.121203
0.136233
0.171045
0.173608
0.162824
-0.0865056
-0.0708828
-0.0548297
-0.0388664
-0.0231046
-0.007525
0.00780997
0.0227812
0.0372632
0.051144
0.064336
0.0767906
0.088547
0.0997803
0.110854
0.135843
0.162548
0.165429
0.150964
-0.0776753
-0.0636359
-0.0491464
-0.0346919
-0.0203938
-0.00625314
0.00766319
0.0212438
0.0343714
0.0469362
0.0588475
0.0700509
0.0805888
0.0906416
0.10065
0.118513
0.15089
0.134601
0.138407
-0.0692734
-0.0566979
-0.0436765
-0.0306521
-0.0177473
-0.00497754
0.00758767
0.0198433
0.0316788
0.0429857
0.0536678
0.0636545
0.0729767
0.0818122
0.0907016
0.100081
0.110162
0.118481
0.125733
-0.0613435
-0.0501275
-0.0384809
-0.0268061
-0.0152214
-0.00375213
0.00753101
0.018529
0.0291378
0.0392496
0.0487613
0.0575806
0.0657161
0.0733347
0.0810837
0.0895377
0.0988504
0.106307
0.112884
-0.0539307
-0.0439737
-0.0336115
-0.0232054
-0.0128672
-0.00262858
0.00744094
0.0172486
0.0266971
0.0356798
0.0440893
0.051811
0.0588283
0.0652832
0.0720523
0.0796639
0.0878167
0.0944214
0.100051
-0.0470577
-0.038269
-0.029106
-0.0198914
-0.0107288
-0.00165318
0.00726858
0.0159506
0.0243039
0.0322247
0.0396074
0.0463211
0.0523307
0.0577365
0.0638478
0.0702237
0.077297
0.0828764
0.0876853
-0.0407426
-0.0330352
-0.0249922
-0.0168962
-0.0088418
-0.000865414
0.00697057
0.0145879
0.0219075
0.0288311
0.035264
0.0410688
0.0462066
0.0507285
0.0558627
0.0612914
0.0672316
0.0717542
0.0758088
-0.0349774
-0.0282804
-0.0212863
-0.014242
-0.0072335
-0.000297085
0.00651071
0.0131197
0.0194628
0.0254488
0.0310034
0.0359923
0.0403928
0.0441783
0.0481435
0.0529889
0.0578746
0.0613764
0.0644996
-0.029763
-0.0240093
-0.0179979
-0.0119432
-0.00592311
2.81056e-05
0.00586108
0.0115141
0.0169334
0.0220365
0.0267753
0.0310253
0.0347969
0.0379799
0.0413229
0.0448173
0.0490666
0.051422
0.0541529
-0.0250874
-0.020217
-0.0151274
-0.010006
-0.00492191
9.44443e-05
0.00500214
0.00974835
0.0142941
0.0185664
0.0225461
0.0261197
0.0293397
0.0320053
0.0348551
0.0374264
0.0404224
0.0422147
0.044618
-0.0209409
-0.0168937
-0.0126694
-0.00842997
-0.00423427
-0.000106658
0.0039219
0.00780861
0.0115308
0.0150265
0.0183033
0.0212585
0.023985
0.0261668
0.0286631
0.0304736
0.0327511
0.0339398
0.0357825
-0.0172942
-0.0140198
-0.0106108
-0.00720817
-0.00385858
-0.000577759
0.00261512
0.00568957
0.00864031
0.0114193
0.0140545
0.016451
0.0187321
0.0204387
0.0227655
0.0238093
0.0257006
0.026273
0.0276452
-0.0141243
-0.0115726
-0.00893429
-0.00632915
-0.00378805
-0.00131504
0.00108477
0.00339632
0.00563164
0.00775872
0.00981683
0.0117164
0.0135926
0.0148688
0.0169496
0.0176516
0.0192101
0.0191384
0.0202849
-0.0113933
-0.00952173
-0.00761656
-0.00577483
-0.00400766
-0.00230438
-0.000653843
0.000947151
0.00252534
0.00406298
0.00560123
0.00705843
0.00857518
0.00965943
0.0111276
0.0117039
0.0129861
0.0128377
0.0137844
-0.00906215
-0.00782914
-0.00662484
-0.00551582
-0.00448978
-0.00351765
-0.00256976
-0.00162547
-0.000650772
0.000344604
0.00139753
0.00243778
0.00358411
0.00444895
0.00556179
0.00608125
0.00714406
0.00698168
0.00808206
-0.00707096
-0.00644811
-0.00592237
-0.00551949
-0.00520027
-0.00491403
-0.00461645
-0.00427928
-0.00387042
-0.00339343
-0.00281431
-0.0021821
-0.00140505
-0.00075415
0.000118046
0.000641312
0.00157084
0.00165682
0.00267053
-0.0053835
-0.00535215
-0.0054854
-0.00575065
-0.00608611
-0.00642978
-0.00673682
-0.00697905
-0.00712444
-0.00716322
-0.00705819
-0.00682911
-0.00640836
-0.0059624
-0.00527134
-0.0047235
-0.00385801
-0.00348497
-0.00264974
-0.00394402
-0.00447843
-0.0052249
-0.00610131
-0.00704694
-0.00800177
-0.00891882
-0.00975978
-0.0104813
-0.0110544
-0.0114325
-0.0116083
-0.0115282
-0.0112815
-0.0107308
-0.0101546
-0.0092872
-0.00870663
-0.00793866
-0.0025732
-0.00362379
-0.00495062
-0.00645267
-0.00806685
-0.00971049
-0.0113162
-0.0128301
-0.0141908
-0.0153539
-0.01625
-0.0168636
-0.0171191
-0.0170836
-0.0166199
-0.0160196
-0.0149965
-0.0142243
-0.0131054
)
;

boundaryField
{
    leftWall
    {
        type            fixedFluxPressure;
        gradient        uniform 0;
        value           nonuniform List<scalar> 
50
(
7624.91
7659.63
7722.65
7820.89
7959.85
8139.54
8350.43
8579.05
9020.97
9246.7
3622.91
1567.08
1634.34
1676.98
1568.28
744.402
508.307
755.144
1110.97
1168.9
1212.62
1181.3
1114.36
1094.16
1174.79
1276.48
1293.84
1330.96
1388.32
1453.88
819.779
6.37921
0.0861297
-0.242801
-0.33256
-0.207642
-0.185545
-0.194278
-0.160362
-0.12774
-0.0995919
-0.0768529
-0.0594738
-0.0464316
-0.036391
-0.0282476
-0.0212725
-0.0150521
-0.00932422
-0.00398346
)
;
    }
    rightWall
    {
        type            fixedFluxPressure;
        gradient        uniform 0;
        value           nonuniform List<scalar> 
50
(
2590.65
2549.87
2603.29
2482.03
2076.38
1522.44
1149.69
1050.48
902.45
867.456
886.578
800.253
460.173
344.047
218.745
4.60807
2.63831
1.31877
0.696093
0.622853
0.611951
1.78647
2.23231
0.371058
0.213593
0.2107
0.203524
0.194113
0.183886
0.173616
0.162824
0.150964
0.138407
0.125733
0.112884
0.100051
0.0876853
0.0758088
0.0644996
0.0541529
0.044618
0.0357825
0.0276452
0.0202849
0.0137844
0.00808206
0.00267053
-0.00264974
-0.00793866
-0.0131054
)
;
    }
    lowerWall
    {
        type            fixedFluxPressure;
        gradient        uniform 0;
        value           nonuniform List<scalar> 
62
(
7624.91
7402.77
7128.2
6794.49
6471.54
6191.18
5968.23
5801.65
5681.02
5593.03
5527.04
5475.86
5434.51
5399.73
5370.3
5347.08
5332.05
5326.57
5330.28
5340.53
5353.17
5361.44
5365.84
5365.84
5366.52
5367.58
5369.06
5370.64
4114.5
1264.48
1144.77
1039.66
926.807
861.156
966.899
1853.04
1781.33
1365.38
1319.19
1331.43
1335.64
1308.9
1292.73
1853.04
1793.3
1753.41
1710.63
1662.35
1648.77
1659.95
1693.35
1972.98
2612.47
3208.46
3877.72
4413.52
4518.34
4310.92
3953.08
3512.42
2942.68
2590.65
)
;
    }
    atmosphere
    {
        type            totalPressure;
        rho             rho;
        psi             none;
        gamma           1;
        p0              uniform 0;
        value           nonuniform List<scalar> 
46
(
0
0
0
0
0
0
0
0
0
0
0
0
0
0
0
0
0
0
0
0
0
0
-4.4209e-05
-0.000165472
-0.000321815
-0.00055858
-0.000916728
-0.00162612
-0.00294953
-0.00465512
-0.00658987
-0.0086587
-0.0107565
-0.0128013
-0.0147366
-0.0164889
-0.0180151
-0.0192163
-0.0200994
-0.0205353
-0.0206331
-0.0201404
-0.0195462
-0.0182025
-0.0172978
-0.0150933
)
;
    }
    defaultFaces
    {
        type            empty;
    }
}


// ************************************************************************* //
