/*--------------------------------*- C++ -*----------------------------------*\
| =========                 |                                                 |
| \\      /  F ield         | OpenFOAM: The Open Source CFD Toolbox           |
|  \\    /   O peration     | Version:  2312                                  |
|   \\  /    A nd           | Website:  www.openfoam.com                      |
|    \\/     M anipulation  |                                                 |
\*---------------------------------------------------------------------------*/
FoamFile
{
    version     2.0;
    format      ascii;
    arch        "LSB;label=32;scalar=64";
    class       surfaceScalarField;
    location    "1";
    object      phi;
}
// * * * * * * * * * * * * * * * * * * * * * * * * * * * * * * * * * * * * * //

dimensions      [0 3 -1 0 0 0 0];

oriented        oriented;

internalField   nonuniform List<scalar> 
4432
(
-2.36284e-06
2.36284e-06
-5.11636e-06
2.75351e-06
-7.48159e-06
2.36524e-06
-9.49717e-06
2.01557e-06
-1.11605e-05
1.66332e-06
-1.2413e-05
1.25251e-06
-1.32057e-05
7.92663e-07
-1.35396e-05
3.33906e-07
-1.34628e-05
-7.6775e-08
-1.30265e-05
-4.36258e-07
-1.22917e-05
-7.34828e-07
-1.13224e-05
-9.69342e-07
-1.01809e-05
-1.14148e-06
-8.92577e-06
-1.25511e-06
-7.61695e-06
-1.30882e-06
-6.32145e-06
-1.2955e-06
-5.10656e-06
-1.2149e-06
-4.01826e-06
-1.08829e-06
-3.05405e-06
-9.64215e-07
-2.16109e-06
-8.92956e-07
-1.30025e-06
-8.60842e-07
-3.802e-07
-9.20053e-07
-3.802e-07
-2.35499e-06
4.71782e-06
-5.17085e-06
5.56937e-06
-7.6028e-06
4.79719e-06
-9.65486e-06
4.06763e-06
-1.13546e-05
3.36309e-06
-1.26371e-05
2.53498e-06
-1.34406e-05
1.59614e-06
-1.37647e-05
6.57973e-07
-1.36712e-05
-1.70253e-07
-1.32152e-05
-8.92261e-07
-1.24618e-05
-1.48824e-06
-1.14768e-05
-1.9543e-06
-1.03235e-05
-2.29481e-06
-9.05986e-06
-2.51873e-06
-7.74512e-06
-2.62356e-06
-6.44711e-06
-2.59351e-06
-5.23622e-06
-2.42579e-06
-4.16392e-06
-2.16059e-06
-3.23306e-06
-1.89508e-06
-2.39096e-06
-1.73505e-06
-1.58212e-06
-1.66968e-06
-7.74059e-07
-1.72812e-06
-1.15426e-06
-2.42611e-06
7.14393e-06
-5.39742e-06
8.54068e-06
-7.9499e-06
7.34967e-06
-1.01035e-05
6.22124e-06
-1.19232e-05
5.18279e-06
-1.3292e-05
3.90378e-06
-1.41152e-05
2.41934e-06
-1.44075e-05
9.50312e-07
-1.42724e-05
-3.05441e-07
-1.37655e-05
-1.39908e-06
-1.29639e-05
-2.28987e-06
-1.19364e-05
-2.98178e-06
-1.07475e-05
-3.48373e-06
-9.45375e-06
-3.81249e-06
-8.11231e-06
-3.96499e-06
-6.79155e-06
-3.91426e-06
-5.5654e-06
-3.65194e-06
-4.49041e-06
-3.23558e-06
-3.56868e-06
-2.81682e-06
-2.72604e-06
-2.57769e-06
-1.88041e-06
-2.51531e-06
-9.68209e-07
-2.64031e-06
-2.12247e-06
-3.17575e-06
1.03197e-05
-6.43155e-06
1.17965e-05
-9.07932e-06
9.99743e-06
-1.1326e-05
8.46787e-06
-1.3279e-05
7.1358e-06
-1.47237e-05
5.34853e-06
-1.55339e-05
3.22951e-06
-1.57472e-05
1.16358e-06
-1.54431e-05
-6.09523e-07
-1.47895e-05
-2.05268e-06
-1.38539e-05
-3.2254e-06
-1.27089e-05
-4.12682e-06
-1.14219e-05
-4.7707e-06
-1.00471e-05
-5.18736e-06
-8.63791e-06
-5.37415e-06
-7.26566e-06
-5.28651e-06
-6.01101e-06
-4.90659e-06
-4.93603e-06
-4.31055e-06
-4.03491e-06
-3.71794e-06
-3.18415e-06
-3.42845e-06
-2.24372e-06
-3.45573e-06
-1.11169e-06
-3.77235e-06
-3.23417e-06
-4.85851e-06
1.51782e-05
-8.63418e-06
1.55721e-05
-1.14392e-05
1.28025e-05
-1.36777e-05
1.07064e-05
-1.56081e-05
9.06618e-06
-1.68986e-05
6.63905e-06
-1.74989e-05
3.82982e-06
-1.73255e-05
9.90098e-07
-1.67815e-05
-1.15346e-06
-1.58361e-05
-2.9981e-06
-1.46059e-05
-4.45556e-06
-1.32246e-05
-5.5082e-06
-1.17677e-05
-6.22751e-06
-1.02734e-05
-6.68171e-06
-8.77756e-06
-6.86998e-06
-7.35153e-06
-6.71254e-06
-6.08647e-06
-6.17164e-06
-5.05336e-06
-5.34367e-06
-4.24805e-06
-4.52324e-06
-3.48334e-06
-4.19316e-06
-2.51791e-06
-4.42116e-06
-1.32286e-06
-4.96741e-06
-4.55702e-06
-7.01112e-06
2.21893e-05
-1.1224e-05
1.97851e-05
-1.38981e-05
1.54766e-05
-1.5763e-05
1.25713e-05
-1.77565e-05
1.10596e-05
-1.88252e-05
7.70783e-06
-1.8827e-05
3.83162e-06
-1.80664e-05
2.29483e-07
-1.67867e-05
-2.43319e-06
-1.52041e-05
-4.5807e-06
-1.35004e-05
-6.15922e-06
-1.18376e-05
-7.17104e-06
-1.03116e-05
-7.75356e-06
-8.91237e-06
-8.0809e-06
-7.5567e-06
-8.22566e-06
-6.22383e-06
-8.04541e-06
-5.01451e-06
-7.38096e-06
-4.04889e-06
-6.30929e-06
-3.40531e-06
-5.16682e-06
-2.94649e-06
-4.65198e-06
-2.29093e-06
-5.07672e-06
-1.48642e-06
-5.77193e-06
-6.04346e-06
-8.83647e-06
3.10258e-05
-1.3196e-05
2.41446e-05
-1.545e-05
1.77306e-05
-1.55108e-05
1.2632e-05
-1.47618e-05
1.03106e-05
-1.2205e-05
5.15108e-06
-8.62493e-06
2.51522e-07
-5.08158e-06
-3.31387e-06
-1.97713e-06
-5.53765e-06
8.88623e-07
-7.44647e-06
3.23733e-06
-8.50794e-06
4.664e-06
-8.59773e-06
5.11397e-06
-8.20354e-06
5.03221e-06
-7.99916e-06
5.00939e-06
-8.20285e-06
5.38366e-06
-8.4197e-06
5.77562e-06
-7.77293e-06
5.64765e-06
-6.18133e-06
4.49939e-06
-4.01856e-06
2.38234e-06
-2.53494e-06
8.33121e-07
-3.52751e-06
-4.51924e-08
-4.89365e-06
-6.08864e-06
-9.59983e-06
4.06256e-05
-1.27833e-05
2.7328e-05
-1.15916e-05
1.65389e-05
-1.34797e-05
1.45201e-05
-1.13445e-05
8.17549e-06
-6.0005e-06
-1.92963e-07
-7.72533e-07
-4.97644e-06
3.92549e-06
-8.0119e-06
9.13036e-06
-1.07425e-05
1.40733e-05
-1.23894e-05
1.8305e-05
-1.27397e-05
2.12998e-05
-1.15925e-05
2.22779e-05
-9.18172e-06
2.1168e-05
-6.88922e-06
1.91891e-05
-6.22401e-06
1.75769e-05
-6.8075e-06
1.63128e-05
-6.50878e-06
1.50917e-05
-4.96029e-06
1.37001e-05
-2.62695e-06
1.188e-05
-7.14853e-07
9.52799e-06
-1.17553e-06
5.29932e-06
-6.64969e-07
-7.89339e-07
4.42831e-06
-4.42832e-06
6.2102e-06
-1.78189e-06
-2.50583e-07
6.46077e-06
-3.49584e-06
3.24525e-06
2.69456e-07
-3.7653e-06
6.76611e-06
-6.49666e-06
9.69463e-06
-2.92852e-06
7.77529e-06
1.91934e-06
7.65261e-06
1.22678e-07
6.96905e-06
6.8356e-07
1.5406e-06
5.42845e-06
-1.46128e-06
3.00188e-06
2.76954e-06
-4.23082e-06
1.1814e-05
-9.04442e-06
2.04832e-05
-8.66926e-06
2.59779e-05
-5.49465e-06
2.92951e-05
-3.31725e-06
1.17156e-05
1.75795e-05
1.17156e-05
2.57808e-06
-7.00645e-06
3.16944e-06
-2.37333e-06
2.98488e-06
6.64531e-06
9.04905e-06
-2.81894e-06
1.55816e-05
-1.02979e-05
1.9921e-05
-1.0836e-05
2.36381e-05
-6.64569e-06
2.50932e-05
4.64245e-07
1.87643e-05
6.45158e-06
8.70015e-06
1.07477e-05
2.12043e-06
1.20082e-05
2.20063e-06
2.92167e-06
5.94218e-06
-7.97238e-06
1.14521e-05
-1.45543e-05
1.77204e-05
-1.49376e-05
2.09618e-05
-8.73603e-06
1.58904e-05
1.75421e-06
-8.20683e-06
4.16767e-05
3.50874e-06
2.32324e-06
-9.32974e-06
-4.0571e-06
4.00696e-06
3.05186e-06
-4.63666e-07
9.34721e-06
-9.1143e-06
1.28461e-05
-1.37968e-05
1.57399e-05
-1.37298e-05
1.88316e-05
-9.73741e-06
1.92748e-05
2.10843e-08
1.15731e-05
1.41532e-05
-1.83639e-06
2.41572e-05
-1.21053e-05
2.22771e-05
-1.14428e-05
2.2592e-06
-5.74057e-06
-1.36746e-05
5.37748e-07
-2.08326e-05
8.57428e-06
-2.29742e-05
9.0733e-06
-9.23506e-06
-7.58484e-07
1.1586e-05
-1.08468e-05
5.1765e-05
-7.33802e-06
-9.75977e-06
4.29896e-07
-1.71812e-05
1.14283e-05
-1.73271e-05
-3.17826e-07
-1.63785e-05
-1.00629e-05
-1.26972e-05
-1.74782e-05
-9.02599e-06
-1.7401e-05
-7.23553e-06
-1.15279e-05
-1.13082e-05
4.09373e-06
-2.53813e-05
2.82263e-05
-3.60773e-05
3.48532e-05
-3.64151e-05
2.26149e-05
-2.79568e-05
-6.19917e-06
-1.72473e-05
-2.43841e-05
-8.81394e-06
-2.9266e-05
-4.37283e-06
-2.74153e-05
-6.68607e-06
-6.92182e-06
-1.23808e-05
1.72807e-05
-6.80642e-06
4.61906e-05
-1.41444e-05
-2.39769e-05
2.44069e-05
-3.40477e-05
2.14991e-05
-3.42692e-05
-9.63526e-08
-2.95312e-05
-1.48009e-05
-2.50297e-05
-2.19797e-05
-2.15412e-05
-2.08895e-05
-2.25668e-05
-1.05023e-05
-3.08421e-05
1.2369e-05
-4.41139e-05
4.14982e-05
-4.59763e-05
3.67155e-05
-3.72546e-05
1.38933e-05
-2.66054e-05
-1.68484e-05
-1.95276e-05
-3.1462e-05
-1.59782e-05
-3.28154e-05
-1.84446e-05
-2.49488e-05
-2.30134e-05
-2.35309e-06
-2.38899e-05
1.81573e-05
-6.64148e-07
2.29648e-05
-1.48086e-05
-2.6697e-05
5.11038e-05
-3.60989e-05
3.0901e-05
-3.56136e-05
-5.81719e-07
-3.19178e-05
-1.84967e-05
-2.89273e-05
-2.49702e-05
-2.81348e-05
-2.1682e-05
-3.17688e-05
-6.86837e-06
-3.9813e-05
2.04132e-05
-4.76801e-05
4.93652e-05
-4.79285e-05
3.69639e-05
-3.8113e-05
4.07787e-06
-2.80303e-05
-2.69312e-05
-2.31644e-05
-3.63279e-05
-2.30829e-05
-3.28969e-05
-2.9212e-05
-1.88197e-05
-3.27109e-05
1.14579e-06
-2.56452e-05
1.10916e-05
5.66774e-06
-8.34813e-06
-9.14085e-06
-2.70813e-05
7.81851e-05
-3.37678e-05
3.75874e-05
-3.41086e-05
-2.40875e-07
-3.23046e-05
-2.03007e-05
-3.11576e-05
-2.61173e-05
-3.3044e-05
-1.97956e-05
-3.78768e-05
-2.03561e-06
-4.49087e-05
2.74451e-05
-5.01248e-05
5.45812e-05
-4.95505e-05
3.63896e-05
-4.00283e-05
-5.4444e-06
-3.1267e-05
-3.56924e-05
-2.74983e-05
-4.00966e-05
-2.81667e-05
-3.22285e-05
-3.4339e-05
-1.26474e-05
-3.24938e-05
-6.99443e-07
-1.48679e-05
-6.53422e-06
9.80647e-06
-3.30225e-05
6.65627e-07
-2.86883e-05
0.000106873
-3.18929e-05
4.0792e-05
-3.2321e-05
1.87181e-07
-3.19328e-05
-2.06889e-05
-3.21575e-05
-2.58927e-05
-3.66245e-05
-1.53287e-05
-4.29603e-05
4.30025e-06
-4.88946e-05
3.33793e-05
-5.28448e-05
5.85314e-05
-5.0135e-05
3.36798e-05
-4.23003e-05
-1.32791e-05
-3.7894e-05
-4.00987e-05
-3.48521e-05
-4.31385e-05
-3.37481e-05
-3.33325e-05
-3.39983e-05
-1.23972e-05
-2.61608e-05
-8.53699e-06
-8.87763e-06
-2.38174e-05
6.42312e-06
-4.83233e-05
7.08875e-06
-1.46789e-05
5.53045e-05
-1.10787e-05
2.37279e-05
-1.57209e-05
2.11811e-05
-1.18469e-05
1.0646e-05
-7.29629e-07
-2.94175e-06
9.67863e-06
-1.06012e-05
1.9191e-05
-1.44888e-05
2.87328e-05
-1.75537e-05
3.81381e-05
-2.01479e-05
4.61222e-05
-2.03734e-05
5.20884e-05
-1.87059e-05
5.58715e-05
-1.53755e-05
5.60834e-05
-9.39365e-06
5.19416e-05
-2.74747e-06
4.61969e-05
-4.79274e-07
4.1491e-05
-2.10166e-06
3.70723e-05
-2.09006e-06
3.18746e-05
2.3737e-07
2.29812e-05
6.26643e-06
5.69965e-06
1.65667e-05
-1.83797e-05
2.29039e-05
-4.4527e-05
2.54823e-05
2.42623e-05
-6.95786e-05
1.12272e-06
5.41818e-05
3.40024e-06
2.14504e-05
1.38295e-05
1.07519e-05
3.11013e-05
-6.62583e-06
4.32727e-05
-1.51131e-05
5.15976e-05
-1.89261e-05
5.84213e-05
-2.13125e-05
6.41906e-05
-2.3323e-05
6.9432e-05
-2.53893e-05
7.34508e-05
-2.43923e-05
7.55083e-05
-2.07634e-05
7.49453e-05
-1.48126e-05
7.31056e-05
-7.55392e-06
6.8856e-05
1.5021e-06
6.081e-05
7.56668e-06
5.35578e-05
5.15058e-06
4.13577e-05
1.011e-05
1.72598e-05
2.43352e-05
-1.80624e-05
4.15887e-05
-5.59424e-05
5.44467e-05
-8.47791e-05
5.17405e-05
-0.000104376
4.50795e-05
3.96893e-05
-0.000119803
5.90566e-06
4.82762e-05
2.0404e-05
6.95198e-06
3.89178e-05
-7.76191e-06
5.08504e-05
-1.85584e-05
5.88891e-05
-2.31519e-05
6.54618e-05
-2.54988e-05
7.13905e-05
-2.72412e-05
7.66686e-05
-2.86011e-05
8.13846e-05
-3.01054e-05
8.27668e-05
-2.57745e-05
8.28049e-05
-2.08015e-05
8.25741e-05
-1.45818e-05
7.65324e-05
-1.51223e-06
6.47701e-05
1.32644e-05
4.76243e-05
2.47124e-05
2.03051e-05
3.24699e-05
-2.06236e-05
5.10387e-05
-6.54187e-05
6.91303e-05
-9.61265e-05
7.22964e-05
-0.00011566
7.39801e-05
-0.000126973
6.30535e-05
-0.000132578
5.06849e-05
3.9579e-05
-0.000132468
2.34994e-05
2.47767e-05
3.859e-05
-8.13863e-06
5.1271e-05
-2.04429e-05
5.8147e-05
-2.54343e-05
6.2863e-05
-2.78679e-05
6.70574e-05
-2.96931e-05
7.01819e-05
-3.03657e-05
7.11352e-05
-2.95544e-05
7.48452e-05
-3.38154e-05
6.99166e-05
-2.08458e-05
5.37504e-05
-4.63522e-06
2.84531e-05
1.07155e-05
4.423e-06
2.25179e-05
-1.14355e-05
2.91229e-05
-2.68454e-05
4.01223e-05
-6.4965e-05
7.05894e-05
-0.000119703
0.000105776
-0.000150333
9.97605e-05
-0.000160862
8.2826e-05
-0.000156911
7.00287e-05
-0.000150061
5.62035e-05
-0.00014391
4.45343e-05
3.3907e-05
-0.000138238
3.05603e-05
-5.78361e-06
4.24277e-05
-2.0006e-05
5.01887e-05
-2.8204e-05
5.4916e-05
-3.01615e-05
5.69565e-05
-2.99085e-05
5.75699e-05
-3.03065e-05
5.93463e-05
-3.21421e-05
4.86719e-05
-1.88801e-05
2.20579e-05
-7.20128e-06
-8.23679e-06
9.44884e-06
-3.01574e-05
1.72853e-05
-4.25234e-05
2.30815e-05
-4.36056e-05
2.36001e-05
-7.37759e-05
5.92928e-05
-0.000131856
9.82021e-05
-0.000194435
0.000133169
-0.000219248
0.000130589
-0.000205788
8.62998e-05
-0.000191207
6.82455e-05
-0.000179326
5.81478e-05
-0.000170615
4.74926e-05
-0.000164311
3.82299e-05
3.22822e-05
-0.000162686
2.13428e-05
-2.71265e-05
3.32616e-05
-3.19247e-05
4.20436e-05
-3.6986e-05
4.52365e-05
-3.33545e-05
4.52969e-05
-2.99688e-05
2.63322e-05
-1.13418e-05
-8.54506e-06
2.73516e-06
-4.34827e-05
1.60576e-05
-6.6746e-05
1.6062e-05
-7.67311e-05
1.94338e-05
-8.25579e-05
2.31122e-05
-0.000111683
5.22064e-05
-0.000203554
0.00011547
-0.000294739
0.00015048
-0.00032806
0.000131523
-0.000298772
0.000103881
-0.000241853
7.36696e-05
-0.000218096
6.25419e-05
-0.000204444
5.45943e-05
-0.000195788
4.94913e-05
-0.000191342
4.30467e-05
-0.000188391
3.52789e-05
2.79594e-05
-0.000184068
1.40204e-05
-4.11469e-05
2.36226e-05
-4.15269e-05
2.95182e-05
-4.28816e-05
2.1181e-05
-2.50172e-05
-1.08752e-05
2.08737e-06
-5.40697e-05
3.18527e-05
-8.65513e-05
3.52168e-05
-0.000105579
3.50855e-05
-0.000123264
3.37465e-05
-0.00013913
3.52998e-05
-0.00016489
4.88721e-05
-0.000232234
0.000119548
-0.000288081
0.000171318
-0.000288356
0.000150755
-0.000255056
9.82224e-05
-0.000226565
7.53906e-05
-0.000217633
6.47379e-05
-0.000211475
5.63844e-05
-0.000206865
4.99843e-05
-0.000202115
4.47406e-05
-0.000197316
3.82478e-05
-0.00019266
3.0623e-05
2.16598e-05
-0.00018636
1.65747e-05
-5.77217e-05
1.89909e-05
-4.39431e-05
2.363e-06
-2.62537e-05
-3.15525e-05
8.89831e-06
-7.22768e-05
4.28116e-05
-0.000100548
6.0124e-05
-0.000126182
6.08503e-05
-0.000149747
5.86504e-05
-0.000173803
5.78028e-05
-0.000202748
6.42449e-05
-0.000239174
8.52979e-05
-0.000254523
0.000134897
-0.000237681
0.000154476
-0.000215493
0.000128567
-0.000214851
9.75802e-05
-0.000216924
7.74634e-05
-0.000217023
6.48365e-05
-0.000216888
5.62503e-05
-0.000215737
4.88325e-05
-0.000211709
4.07126e-05
-0.000205212
3.1751e-05
-0.000198391
2.38017e-05
1.68118e-05
-0.000193543
1.86929e-05
-7.64147e-05
-9.36271e-07
-2.4314e-05
-4.01343e-05
1.29443e-05
-7.68474e-05
4.56114e-05
-0.000105427
7.13918e-05
-0.00012741
8.21067e-05
-0.000149146
8.2586e-05
-0.000172595
8.20992e-05
-0.000198407
8.36147e-05
-0.000224712
9.05504e-05
-0.000245512
0.000106099
-0.000239592
0.000128977
-0.000222764
0.000137649
-0.000215973
0.000121775
-0.000217135
9.87424e-05
-0.000218658
7.89861e-05
-0.000219787
6.59655e-05
-0.000220564
5.70277e-05
-0.000220138
4.8406e-05
-0.000216639
3.72137e-05
-0.000210491
2.56044e-05
-0.000204222
1.75315e-05
1.3541e-05
-0.000200952
-2.03502e-05
-5.60645e-05
-4.7656e-05
2.99177e-06
-7.53207e-05
4.0609e-05
-0.000102559
7.28501e-05
-0.000122025
9.08577e-05
-0.000138309
9.83902e-05
-0.000156905
0.000101182
-0.000177944
0.000103139
-0.000200335
0.000106005
-0.000221107
0.000111323
-0.00023531
0.000120302
-0.000235194
0.00012886
-0.000226614
0.000129069
-0.000221958
0.000117118
-0.000220544
9.73288e-05
-0.000217366
7.58081e-05
-0.00021636
6.49592e-05
-0.000216444
5.71113e-05
-0.000217121
4.90827e-05
-0.000215288
3.538e-05
-0.000209411
1.97279e-05
-0.000198584
6.70482e-06
-1.95753e-06
-0.000183086
-4.77152e-05
-8.34928e-06
-7.22159e-05
2.74925e-05
-9.47532e-05
6.31464e-05
-0.000112484
9.05805e-05
-0.000125706
0.00010408
-0.000138938
0.000111623
-0.000153785
0.000116029
-0.000170671
0.000120025
-0.000189284
0.000124618
-0.000209298
0.000131337
-0.00022841
0.000139414
-0.000234343
0.000134793
-0.000226825
0.000121552
-0.000215392
0.000105685
-0.000205536
8.74728e-05
-0.000211174
8.14461e-05
-0.000211419
6.52042e-05
-0.000206354
5.20459e-05
-0.000192856
3.55854e-05
-0.000171906
1.44297e-05
-0.000148226
-3.95298e-06
-0.00012671
-1.48107e-05
-2.05684e-05
-0.000108098
-4.66431e-05
3.82938e-05
-7.7703e-05
5.85524e-05
-9.895e-05
8.43934e-05
-0.000112727
0.000104357
-0.000123916
0.000115269
-0.000133913
0.00012162
-0.000143877
0.000125993
-0.000154594
0.000130741
-0.000166626
0.00013665
-0.000187905
0.000152616
-0.000206531
0.000158039
-0.000198503
0.000126765
-0.000188334
0.000111382
-0.000182619
9.99699e-05
-0.000179489
8.43418e-05
-0.000171297
7.32545e-05
-0.000164077
5.79835e-05
-0.000149183
3.7153e-05
-0.000123508
9.91058e-06
-9.27289e-05
-1.63493e-05
-6.70458e-05
-2.96358e-05
-4.82956e-05
-3.35607e-05
-3.54827e-05
-3.33817e-05
-4.47411e-05
8.30349e-05
-7.48938e-05
8.87051e-05
-9.57472e-05
0.000105247
-0.000109848
0.000118458
-0.000120186
0.000125607
-0.000127804
0.000129238
-0.000133352
0.00013154
-0.000136967
0.000134356
-0.000130575
0.000130258
-0.00014928
0.00017132
-0.000143961
0.000152719
-0.000136951
0.000119755
-0.000136274
0.000110705
-0.000135018
9.87145e-05
-0.000131838
8.11618e-05
-0.000122262
6.3679e-05
-0.000107154
4.28746e-05
-8.48075e-05
1.48066e-05
-5.449e-05
-2.04069e-05
-3.01008e-05
-4.07383e-05
-1.3338e-05
-4.63983e-05
1.05078e-06
-4.79492e-05
-4.71798e-05
1.27473e-05
-4.06555e-05
0.00012369
-6.88225e-05
0.000116872
-8.96627e-05
0.000126087
-0.000104844
0.00013364
-0.000115491
0.000136253
-0.000120931
0.000134679
-0.000118417
0.000129026
-0.000100908
0.000116848
-0.0001211
0.000150449
-0.000109035
0.000159257
-0.000106093
0.000149776
-0.000103788
0.00011745
-9.83424e-05
0.000105261
-9.13773e-05
9.17489e-05
-8.21912e-05
7.19756e-05
-6.85889e-05
5.00763e-05
-4.82762e-05
2.25616e-05
-2.02786e-05
-1.31913e-05
1.98545e-06
-4.26711e-05
1.23547e-05
-5.11074e-05
2.18509e-05
-5.58944e-05
3.06418e-05
-5.674e-05
-5.51966e-05
3.86581e-05
-3.33407e-05
0.000157031
-5.7161e-05
0.000140692
-7.69538e-05
0.00014588
-9.29318e-05
0.000149618
-0.000103679
0.000147
-9.23286e-05
0.000123329
-9.95828e-05
0.00013628
-0.000102238
0.000119502
-8.79615e-05
0.000136173
-8.14212e-05
0.000152717
-7.11037e-05
0.00013946
-6.83212e-05
0.000114668
-6.11981e-05
9.81372e-05
-4.91698e-05
7.97202e-05
-3.32693e-05
5.60747e-05
-1.30853e-05
2.9892e-05
1.13788e-05
-1.90276e-06
3.05035e-05
-3.23163e-05
3.6585e-05
-4.87526e-05
4.26308e-05
-5.71531e-05
4.74941e-05
-6.07576e-05
5.19273e-05
-6.1173e-05
-5.94662e-05
5.61965e-05
-2.27284e-05
0.000179759
-3.84629e-05
0.000156427
-5.38025e-05
0.000161219
-5.94116e-05
0.000155227
-6.3494e-05
0.000151084
-7.41993e-05
0.000134032
-6.63379e-05
0.000128418
-7.44353e-05
0.000127599
-7.09113e-05
0.00013265
-5.61802e-05
0.000137986
-4.39191e-05
0.000127198
-3.45275e-05
0.000105276
-2.11674e-05
8.47767e-05
-3.75129e-06
6.23037e-05
1.62092e-05
3.61138e-05
3.71028e-05
8.99796e-06
5.35501e-05
-1.83503e-05
5.98299e-05
-3.85963e-05
6.25216e-05
-5.14445e-05
6.38159e-05
-5.84473e-05
6.4461e-05
-6.14026e-05
6.49989e-05
-6.17107e-05
-6.02674e-05
6.57995e-05
-1.25412e-05
0.000192301
-1.79174e-05
0.000161803
-5.6583e-06
0.000148961
-1.56453e-05
0.000165215
-3.59882e-05
0.000171423
-4.28605e-05
0.000140905
-5.24364e-05
0.000137996
-5.53516e-05
0.000130515
-4.99291e-05
0.000127227
-3.45918e-05
0.000122649
-1.75553e-05
0.000110162
-8.97583e-07
8.86179e-05
1.75157e-05
6.63631e-05
3.66036e-05
4.32154e-05
5.43276e-05
1.83894e-05
6.87928e-05
-5.46747e-06
7.65048e-05
-2.60626e-05
7.86497e-05
-4.07414e-05
7.77257e-05
-5.05207e-05
7.54979e-05
-5.62194e-05
7.29719e-05
-5.88765e-05
7.06949e-05
-5.94336e-05
-5.85635e-05
6.89905e-05
-5.47378e-06
0.000197774
5.51275e-06
0.000150817
2.57437e-05
0.000128729
-1.13751e-06
0.000192092
-1.82253e-05
0.000188512
-3.08675e-05
0.000153553
-3.70638e-05
0.000144192
-3.73223e-05
0.000130774
-2.78154e-05
0.00011772
-1.02779e-05
0.000105111
1.01957e-05
8.96876e-05
2.97312e-05
6.90821e-05
4.82551e-05
4.78389e-05
6.50595e-05
2.64107e-05
7.81367e-05
5.31195e-06
8.61314e-05
-1.34624e-05
8.83364e-05
-2.82679e-05
8.69575e-05
-3.93626e-05
8.35257e-05
-4.70889e-05
7.92743e-05
-5.19679e-05
7.50092e-05
-5.46113e-05
7.11732e-05
-5.55974e-05
-5.53887e-05
6.79979e-05
-1.78029e-06
0.000199555
3.37236e-07
0.000148699
-2.79978e-05
0.000157051
-2.42561e-05
0.00018835
-2.12592e-05
0.000185525
-2.73083e-05
0.000159602
-2.5078e-05
0.000141962
-1.64588e-05
0.000122154
-2.42227e-06
0.000103683
1.56444e-05
8.70438e-05
3.52812e-05
7.00505e-05
5.32224e-05
5.11407e-05
6.8756e-05
3.2305e-05
8.09331e-05
1.42334e-05
8.8587e-05
-2.3423e-06
9.14665e-05
-1.63421e-05
9.07434e-05
-2.7545e-05
8.76121e-05
-3.62315e-05
8.31438e-05
-4.26207e-05
7.81809e-05
-4.7005e-05
7.32935e-05
-4.97239e-05
6.88138e-05
-5.11176e-05
-5.14947e-05
6.49194e-05
3.56126e-06
0.000195993
-1.53809e-05
0.000167628
-3.54736e-05
0.000177142
-3.87581e-05
0.000191648
-2.43774e-05
0.000171145
-1.90102e-05
0.000154234
-7.90545e-06
0.000130857
5.72561e-06
0.000108523
2.09306e-05
8.84778e-05
3.73832e-05
7.05909e-05
5.373e-05
5.37035e-05
6.78674e-05
3.70031e-05
7.89711e-05
2.12009e-05
8.64433e-05
6.76092e-06
9.00654e-05
-5.96464e-06
9.03261e-05
-1.66031e-05
8.81929e-05
-2.5412e-05
8.44577e-05
-3.24964e-05
7.98215e-05
-3.79846e-05
7.48416e-05
-4.2025e-05
6.99126e-05
-4.47948e-05
6.52844e-05
-4.64892e-05
-4.7318e-05
6.11071e-05
3.82215e-06
0.000192171
-4.70977e-06
0.000176157
-2.6367e-05
0.000198803
-1.95316e-05
0.000184814
-1.34172e-05
0.000165031
-1.22309e-06
0.00014204
1.21569e-05
0.000117476
2.58548e-05
9.48244e-05
3.94935e-05
7.48389e-05
5.2807e-05
5.72771e-05
6.50017e-05
4.15086e-05
7.4922e-05
2.70826e-05
8.20163e-05
1.41064e-05
8.61023e-05
2.67468e-06
8.73496e-05
-7.21222e-06
8.63668e-05
-1.56204e-05
8.37123e-05
-2.27577e-05
7.99256e-05
-2.87099e-05
7.54768e-05
-3.35359e-05
7.07456e-05
-3.72938e-05
6.60142e-05
-4.00633e-05
6.14818e-05
-4.19568e-05
-4.31227e-05
5.72861e-05
7.47499e-06
0.000184696
1.23752e-05
0.000171258
2.18635e-06
0.000208993
3.50029e-06
0.0001835
8.76621e-06
0.000159765
1.91879e-05
0.000131618
3.06148e-05
0.000106049
4.19312e-05
8.35078e-05
5.26773e-05
6.40926e-05
6.25159e-05
4.74384e-05
7.09417e-05
3.30826e-05
7.73711e-05
2.0653e-05
8.15304e-05
9.94686e-06
8.34359e-05
7.69036e-07
8.33446e-05
-7.12118e-06
8.16795e-05
-1.39555e-05
7.88224e-05
-1.99007e-05
7.5144e-05
-2.50316e-05
7.09664e-05
-2.93584e-05
6.65556e-05
-3.28829e-05
6.21211e-05
-3.56286e-05
5.78228e-05
-3.76584e-05
-3.90817e-05
5.37813e-05
1.32632e-05
0.000171435
2.61826e-05
0.000158337
2.56536e-05
0.000209522
2.39423e-05
0.000185213
2.85026e-05
0.000155204
3.64102e-05
0.00012371
4.5088e-05
9.73711e-05
5.35748e-05
7.50209e-05
6.14021e-05
5.62652e-05
6.8234e-05
4.06063e-05
7.37198e-05
2.75967e-05
7.75552e-05
1.68175e-05
7.96365e-05
7.86544e-06
8.00592e-05
3.46052e-07
7.90705e-05
-6.13263e-06
7.6964e-05
-1.18492e-05
7.40206e-05
-1.69575e-05
7.04931e-05
-2.15043e-05
6.6601e-05
-2.54664e-05
6.2531e-05
-2.88127e-05
5.84375e-05
-3.15351e-05
5.44493e-05
-3.36703e-05
-3.53037e-05
5.0671e-05
1.70226e-05
0.000154398
2.61354e-05
0.000149222
3.25265e-05
0.000203135
3.52235e-05
0.000182518
4.15311e-05
0.000148897
4.81327e-05
0.000117108
5.48866e-05
9.0617e-05
6.12013e-05
6.87061e-05
6.67731e-05
5.06933e-05
7.1332e-05
3.60474e-05
7.4634e-05
2.42945e-05
7.65444e-05
1.4907e-05
7.709e-05
7.31972e-06
7.64308e-05
1.00506e-06
7.47909e-05
-4.49288e-06
7.23947e-05
-9.4531e-06
6.94365e-05
-1.39995e-05
6.60814e-05
-1.81493e-05
6.24742e-05
-2.18593e-05
5.8743e-05
-2.50815e-05
5.50046e-05
-2.77966e-05
5.13601e-05
-3.00257e-05
-3.18374e-05
4.78934e-05
4.34217e-05
0.000110974
2.62688e-05
0.000166373
2.94063e-05
0.000199997
3.94422e-05
0.000172483
4.77338e-05
0.000140606
5.45373e-05
0.000110304
6.04706e-05
8.46837e-05
6.55357e-05
6.3641e-05
6.96115e-05
4.66174e-05
7.25287e-05
3.31302e-05
7.4194e-05
2.26291e-05
7.46491e-05
1.44517e-05
7.4052e-05
7.91674e-06
7.26177e-05
2.43924e-06
7.05386e-05
-2.41393e-06
6.79841e-05
-6.8988e-06
6.50766e-05
-1.10921e-05
6.19133e-05
-1.49861e-05
5.85857e-05
-1.85317e-05
5.5182e-05
-2.16777e-05
5.17867e-05
-2.44012e-05
4.84803e-05
-2.67194e-05
-2.86881e-05
4.53307e-05
2.27686e-05
8.8214e-05
1.45158e-05
0.000174625
2.50296e-05
0.000189483
3.84274e-05
0.000159086
4.88258e-05
0.000130207
5.67474e-05
0.000102383
6.2816e-05
7.86151e-05
6.7363e-05
5.9094e-05
7.04605e-05
4.35199e-05
7.21493e-05
3.14413e-05
7.25676e-05
2.22107e-05
7.1948e-05
1.50713e-05
7.05544e-05
9.31026e-06
6.86204e-05
4.37314e-06
6.63039e-05
-9.7479e-08
6.37121e-05
-4.30712e-06
6.09122e-05
-8.29226e-06
5.79558e-05
-1.20298e-05
5.48981e-05
-1.54741e-05
5.17993e-05
-1.85788e-05
4.87232e-05
-2.13251e-05
4.57314e-05
-2.37275e-05
-2.58322e-05
4.28752e-05
-1.40169e-05
0.000102231
-4.48067e-06
0.000165089
1.80283e-05
0.000166974
3.50622e-05
0.000142052
4.78092e-05
0.00011746
5.68977e-05
9.32943e-05
6.32603e-05
7.22526e-05
6.74236e-05
5.49307e-05
6.96943e-05
4.12491e-05
7.03871e-05
3.07485e-05
6.98744e-05
2.27234e-05
6.85297e-05
1.64159e-05
6.66604e-05
1.11795e-05
6.44758e-05
6.55759e-06
6.20953e-05
2.28295e-06
5.95613e-05
-1.77317e-06
5.69098e-05
-5.6409e-06
5.41675e-05
-9.28751e-06
5.1365e-05
-1.26716e-05
4.85454e-05
-1.57592e-05
4.57557e-05
-1.85353e-05
4.30421e-05
-2.1014e-05
-2.32356e-05
4.04452e-05
-1.1555e-05
0.000113784
-6.84347e-07
0.000154218
1.94431e-05
0.000146846
3.51694e-05
0.000126325
4.76555e-05
0.000104974
5.6663e-05
8.42868e-05
6.26648e-05
6.62508e-05
6.61328e-05
5.14627e-05
6.75447e-05
3.98372e-05
6.74257e-05
3.08676e-05
6.62858e-05
2.38633e-05
6.45406e-05
1.81611e-05
6.24723e-05
1.32478e-05
6.02391e-05
8.79071e-06
5.79121e-05
4.60989e-06
5.55066e-05
6.32237e-07
5.30334e-05
-3.16771e-06
5.05053e-05
-6.75952e-06
4.79413e-05
-1.01077e-05
4.53735e-05
-1.31913e-05
4.28385e-05
-1.60002e-05
4.03707e-05
-1.85461e-05
-2.08632e-05
3.79981e-05
-6.10535e-06
0.000119889
6.54987e-06
0.000141562
2.32266e-05
0.000130169
3.70325e-05
0.000112519
4.81378e-05
9.38686e-05
5.60892e-05
7.63355e-05
6.10896e-05
6.12504e-05
6.35923e-05
4.89601e-05
6.41898e-05
3.92397e-05
6.34957e-05
3.15617e-05
6.20302e-05
2.53287e-05
6.0161e-05
2.00303e-05
5.81043e-05
1.53046e-05
5.59629e-05
1.0932e-05
5.37732e-05
6.79956e-06
5.15424e-05
2.86305e-06
4.92588e-05
-8.84168e-07
4.69355e-05
-4.43625e-06
4.4594e-05
-7.76627e-06
4.22533e-05
-1.08505e-05
3.99423e-05
-1.36891e-05
3.76872e-05
-1.62909e-05
-1.86865e-05
3.55103e-05
-5.98173e-07
0.000120487
1.23064e-05
0.000128657
2.65202e-05
0.000115955
3.86764e-05
0.000100363
4.81285e-05
8.44164e-05
5.45971e-05
6.9867e-05
5.83359e-05
5.75117e-05
5.98813e-05
4.74148e-05
5.98697e-05
3.92514e-05
5.88824e-05
3.25489e-05
5.73564e-05
2.68547e-05
5.5567e-05
2.18197e-05
5.36591e-05
1.72125e-05
5.16936e-05
1.28975e-05
4.96881e-05
8.80503e-06
4.76439e-05
4.90719e-06
4.55586e-05
1.20109e-06
4.34391e-05
-2.31676e-06
4.12993e-05
-5.62641e-06
3.91628e-05
-8.71397e-06
3.70515e-05
-1.15778e-05
3.49857e-05
-1.4225e-05
-1.66815e-05
3.29804e-05
3.91595e-06
0.000116571
1.66935e-05
0.000115879
2.90039e-05
0.000103644
3.92996e-05
9.0067e-05
4.69211e-05
7.67949e-05
5.18218e-05
6.49664e-05
5.4398e-05
5.49354e-05
5.5232e-05
4.6581e-05
5.49048e-05
3.95786e-05
5.38849e-05
3.35689e-05
5.24897e-05
2.825e-05
5.09033e-05
2.34061e-05
4.92169e-05
1.88989e-05
4.74676e-05
1.46468e-05
4.5667e-05
1.06056e-05
4.38189e-05
6.75524e-06
4.19289e-05
3.09109e-06
3.99966e-05
-3.84471e-07
3.80481e-05
-3.67795e-06
3.6095e-05
-6.76073e-06
3.41602e-05
-9.64302e-06
3.22604e-05
-1.23252e-05
-1.48282e-05
3.0407e-05
7.66962e-06
0.000108901
1.9507e-05
0.000104042
3.0006e-05
9.31452e-05
3.83573e-05
8.17156e-05
4.42205e-05
7.09318e-05
4.77907e-05
6.13963e-05
4.95415e-05
5.31846e-05
5.00028e-05
4.61198e-05
4.9632e-05
3.99494e-05
4.8762e-05
3.4439e-05
4.76034e-05
2.94087e-05
4.62745e-05
2.47351e-05
4.48348e-05
2.03386e-05
4.33121e-05
1.61696e-05
4.17191e-05
1.21986e-05
4.00642e-05
8.41014e-06
3.83566e-05
4.79867e-06
3.66064e-05
1.36577e-06
3.48296e-05
-1.90116e-06
3.30445e-05
-4.97563e-06
3.12702e-05
-7.86863e-06
2.95199e-05
-1.05747e-05
-1.31097e-05
2.78012e-05
9.78024e-06
9.91203e-05
2.03389e-05
9.34828e-05
2.91016e-05
8.43825e-05
3.57197e-05
7.50975e-05
4.01966e-05
6.64549e-05
4.287e-05
5.87229e-05
4.41885e-05
5.18662e-05
4.45683e-05
4.574e-05
4.43326e-05
4.01852e-05
4.37022e-05
3.50695e-05
4.28144e-05
3.02966e-05
4.1749e-05
2.58005e-05
4.05513e-05
2.15363e-05
3.92473e-05
1.74737e-05
3.78534e-05
1.35925e-05
3.63828e-05
9.88072e-06
3.48491e-05
6.33242e-06
3.32683e-05
2.94658e-06
3.16458e-05
-2.78706e-07
3.00138e-05
-3.34348e-06
2.83816e-05
-6.23639e-06
2.67647e-05
-8.9579e-06
-1.15136e-05
2.51685e-05
1.01563e-05
8.89639e-05
1.92802e-05
8.43589e-05
2.65122e-05
7.71503e-05
3.18097e-05
6.98001e-05
3.53772e-05
6.28874e-05
3.75723e-05
5.65279e-05
3.8756e-05
5.06826e-05
3.92257e-05
4.52703e-05
3.9199e-05
4.0212e-05
3.88228e-05
3.54458e-05
3.81922e-05
3.09273e-05
3.73682e-05
2.66245e-05
3.63907e-05
2.25139e-05
3.52869e-05
1.85775e-05
3.40768e-05
1.48027e-05
3.27771e-05
1.11804e-05
3.14038e-05
7.70571e-06
2.99737e-05
4.37665e-06
2.85004e-05
1.19466e-06
2.70031e-05
-1.84608e-06
2.55017e-05
-4.73502e-06
2.40068e-05
-7.46286e-06
-1.00277e-05
2.25208e-05
9.2125e-06
7.97514e-05
1.69222e-05
7.66491e-05
2.29271e-05
7.11454e-05
2.73209e-05
6.54063e-05
3.03613e-05
5.9847e-05
3.23485e-05
5.45408e-05
3.35465e-05
4.94848e-05
3.41602e-05
4.46567e-05
3.43384e-05
4.00339e-05
3.41849e-05
3.55992e-05
3.37729e-05
3.13394e-05
3.31542e-05
2.72433e-05
3.23668e-05
2.33014e-05
3.14391e-05
1.95053e-05
3.03935e-05
1.58483e-05
2.92487e-05
1.23252e-05
2.80222e-05
8.9323e-06
2.67309e-05
5.66793e-06
2.53927e-05
2.53289e-06
2.40196e-05
-4.72972e-07
2.26349e-05
-3.35019e-06
2.12463e-05
-6.07432e-06
-8.64255e-06
1.98611e-05
7.64947e-06
7.21019e-05
1.40611e-05
7.02375e-05
1.91035e-05
6.61031e-05
2.28752e-05
6.16346e-05
2.5595e-05
5.71272e-05
2.74833e-05
5.26526e-05
2.87239e-05
4.82442e-05
2.94593e-05
4.39214e-05
2.97957e-05
3.96976e-05
2.98127e-05
3.55823e-05
2.95706e-05
3.15816e-05
2.91159e-05
2.76981e-05
2.8485e-05
2.39324e-05
2.77066e-05
2.02838e-05
2.6804e-05
1.67509e-05
2.57969e-05
1.33323e-05
2.47027e-05
1.00266e-05
2.35379e-05
6.83274e-06
2.23196e-05
3.75124e-06
2.10608e-05
7.8586e-07
1.97798e-05
-2.06909e-06
1.84944e-05
-4.78893e-06
-7.34584e-06
1.71976e-05
6.05405e-06
6.60478e-05
1.13162e-05
6.49753e-05
1.55633e-05
6.1856e-05
1.88436e-05
5.83542e-05
2.13061e-05
5.46648e-05
2.3098e-05
5.08607e-05
2.43441e-05
4.69982e-05
2.51442e-05
4.31213e-05
2.55775e-05
3.92643e-05
2.57075e-05
3.54524e-05
2.55854e-05
3.17038e-05
2.52529e-05
2.80306e-05
2.47443e-05
2.44411e-05
2.40874e-05
2.09407e-05
2.33053e-05
1.7533e-05
2.24176e-05
1.42201e-05
2.14409e-05
1.10033e-05
2.03905e-05
7.88317e-06
1.92814e-05
4.86037e-06
1.81294e-05
1.93788e-06
1.69444e-05
-8.84067e-07
1.57438e-05
-3.58835e-06
-6.13406e-06
1.4532e-05
4.71289e-06
6.13349e-05