/*--------------------------------*- C++ -*----------------------------------*\
| =========                 |                                                 |
| \\      /  F ield         | OpenFOAM: The Open Source CFD Toolbox           |
|  \\    /   O peration     | Version:  2312                                  |
|   \\  /    A nd           | Website:  www.openfoam.com                      |
|    \\/     M anipulation  |                                                 |
\*---------------------------------------------------------------------------*/
FoamFile
{
    version     2.0;
    format      ascii;
    arch        "LSB;label=32;scalar=64";
    class       volVectorField;
    location    "1";
    object      U;
}
// * * * * * * * * * * * * * * * * * * * * * * * * * * * * * * * * * * * * * //

dimensions      [0 1 -1 0 0 0 0];

internalField   nonuniform List<vector> 
2268
(
(-0.0218333 0.00877851 0)
(-0.0416093 0.00912378 0)
(-0.077491 0.00742659 0)
(-0.100136 0.00623895 0)
(-0.119991 0.00515612 0)
(-0.135817 0.00388579 0)
(-0.146974 0.00247369 0)
(-0.153126 0.00107993 0)
(-0.15447 -0.000161444 0)
(-0.151485 -0.00124464 0)
(-0.144762 -0.00214482 0)
(-0.135003 -0.0028555 0)
(-0.122927 -0.00338223 0)
(-0.109215 -0.00373736 0)
(-0.0945417 -0.00391919 0)
(-0.0796307 -0.00391003 0)
(-0.0652504 -0.00371048 0)
(-0.052073 -0.00337958 0)
(-0.0403954 -0.00304859 0)
(-0.0296785 -0.00284446 0)
(-0.0183661 -0.0027013 0)
(-0.0114518 -0.00274704 0)
(0.0031324 0.000419802 0)
(-0.0220246 0.0189583 0)
(-0.0413621 0.0224176 0)
(-0.0786105 0.0192377 0)
(-0.101692 0.0161689 0)
(-0.121983 0.0131973 0)
(-0.138231 0.00987694 0)
(-0.149594 0.00619692 0)
(-0.155721 0.00253971 0)
(-0.156915 -0.000698914 0)
(-0.153734 -0.00355257 0)
(-0.146799 -0.00591252 0)
(-0.136846 -0.00776565 0)
(-0.124612 -0.00912879 0)
(-0.110785 -0.0100312 0)
(-0.0960283 -0.0104568 0)
(-0.0810621 -0.0103439 0)
(-0.0666744 -0.00968693 0)
(-0.0535881 -0.00865319 0)
(-0.0421634 -0.00763619 0)
(-0.0319016 -0.00706133 0)
(-0.0214978 -0.00687319 0)
(-0.0145443 -0.00733749 0)
(-0.00268836 -0.00439867 0)
(-0.0232442 0.0317003 0)
(-0.0423189 0.0383877 0)
(-0.0820522 0.0333277 0)
(-0.106194 0.0284038 0)
(-0.127828 0.0236919 0)
(-0.145319 0.0180093 0)
(-0.157201 0.0115179 0)
(-0.1632 0.00491195 0)
(-0.163982 -0.00119797 0)
(-0.160291 -0.00611886 0)
(-0.152798 -0.0101267 0)
(-0.142327 -0.013261 0)
(-0.129647 -0.0155527 0)
(-0.115449 -0.0170535 0)
(-0.100373 -0.017742 0)
(-0.0851213 -0.0175078 0)
(-0.0705045 -0.016328 0)
(-0.0573018 -0.0144723 0)
(-0.0459038 -0.012614 0)
(-0.0357185 -0.0115132 0)
(-0.0254127 -0.0110806 0)
(-0.0169961 -0.0113572 0)
(-0.00481563 -0.00836172 0)
(-0.032816 0.0465055 0)
(-0.0519627 0.055361 0)
(-0.094461 0.0472603 0)
(-0.119468 0.0395243 0)
(-0.142556 0.0322679 0)
(-0.161324 0.0231746 0)
(-0.173491 0.0135109 0)
(-0.178918 0.0044674 0)
(-0.178288 -0.00236444 0)
(-0.172806 -0.00874778 0)
(-0.163706 -0.0144002 0)
(-0.151779 -0.0188382 0)
(-0.137865 -0.0220478 0)
(-0.122659 -0.0241262 0)
(-0.106744 -0.0250617 0)
(-0.0908038 -0.0246709 0)
(-0.0757134 -0.0228903 0)
(-0.0623447 -0.020098 0)
(-0.0510816 -0.0172988 0)
(-0.0410434 -0.0157877 0)
(-0.0305548 -0.0156073 0)
(-0.0196789 -0.0167689 0)
(-0.00546866 -0.014337 0)
(-0.0528189 0.0682621 0)
(-0.0741192 0.0745598 0)
(-0.120895 0.0629163 0)
(-0.146541 0.0544523 0)
(-0.169355 0.0481277 0)
(-0.18678 0.0380707 0)
(-0.196916 0.0237895 0)
(-0.199132 0.00959906 0)
(-0.19501 -0.00268307 0)
(-0.186412 -0.0130591 0)
(-0.173855 -0.0209372 0)
(-0.158831 -0.0264824 0)
(-0.142622 -0.0302358 0)
(-0.125838 -0.0326528 0)
(-0.108791 -0.0338081 0)
(-0.0920413 -0.033362 0)
(-0.076554 -0.0310176 0)
(-0.0633524 -0.0270275 0)
(-0.0528735 -0.0226999 0)
(-0.0439385 -0.0204269 0)
(-0.034378 -0.0208906 0)
(-0.0217282 -0.0233604 0)
(-0.00815571 -0.0199658 0)
(-0.0780004 0.1005 0)
(-0.102179 0.0966968 0)
(-0.150618 0.0784753 0)
(-0.172765 0.0630554 0)
(-0.194386 0.0432936 0)
(-0.209342 0.0242614 0)
(-0.214992 0.0102304 0)
(-0.210706 -0.00224123 0)
(-0.199002 -0.0139821 0)
(-0.182677 -0.0234661 0)
(-0.163634 -0.0302753 0)
(-0.144177 -0.035071 0)
(-0.125968 -0.0384176 0)
(-0.109579 -0.040743 0)
(-0.0941102 -0.0420528 0)
(-0.0786951 -0.0417539 0)
(-0.0639235 -0.039383 0)
(-0.0513384 -0.0351748 0)
(-0.0420849 -0.0306668 0)
(-0.0356721 -0.0284602 0)
(-0.0305493 -0.0289857 0)
(-0.0197361 -0.0310152 0)
(-0.0145664 -0.0285007 0)
(-0.0999479 0.142641 0)
(-0.124982 0.116833 0)
(-0.177244 0.0847781 0)
(-0.191294 0.061035 0)
(-0.171854 0.0616378 0)
(-0.152745 0.0500634 0)
(-0.115987 0.0258082 0)
(-0.0729103 0.00510041 0)
(-0.0385414 -0.00797156 0)
(-0.0052851 -0.0218037 0)
(0.025514 -0.0321909 0)
(0.0477208 -0.0382653 0)
(0.0568048 -0.0415238 0)
(0.0573709 -0.0433314 0)
(0.0563956 -0.0444641 0)
(0.0598376 -0.0432884 0)
(0.0652874 -0.0382804 0)
(0.0673387 -0.029726 0)
(0.0610237 -0.0202939 0)
(0.0420667 -0.0171615 0)
(0.0132155 -0.0239956 0)
(0.00877426 -0.0316348 0)
(-0.0124674 -0.0352588 0)
(-0.112996 0.184026 0)
(-0.133575 0.135979 0)
(-0.175484 0.0975644 0)
(-0.125238 0.0800738 0)
(-0.137591 0.063355 0)
(-0.0995215 0.0173786 0)
(-0.0378418 -0.0185947 0)
(0.01584 -0.0334566 0)
(0.0746874 -0.0468099 0)
(0.133737 -0.0561953 0)
(0.186978 -0.059167 0)
(0.22911 -0.0551435 0)
(0.252445 -0.0470671 0)
(0.251085 -0.0404639 0)
(0.231387 -0.0395286 0)
(0.209613 -0.0424341 0)
(0.193443 -0.040527 0)
(0.179278 -0.0327439 0)
(0.163741 -0.0207198 0)
(0.148613 -0.0106395 0)
(0.124159 -0.0200169 0)
(0.102428 -0.0290139 0)
(0.00415587 -0.0436553 0)
(-0.0250057 -0.0178398 0)
(0.110935 0.00603744 0)
(0.0476689 0.0261516 0)
(-0.0523517 0.00659899 0)
(-0.0400026 -0.0136366 0)
(0.0464819 -0.0318074 0)
(0.105607 -0.0110459 0)
(0.0902211 0.0094003 0)
(0.093404 -0.0162266 0)
(0.0974796 -0.0198601 0)
(0.0559021 -0.00262428 0)
(-0.0113815 0.00392282 0)
(-0.0163846 -0.0131717 0)
(0.0763648 -0.031515 0)
(0.183423 -0.0305596 0)
(0.26721 -0.0220326 0)
(0.325983 -0.0165865 0)
(0.31366 0.0321531 0)
(-0.0656311 0.0609849 0)
(-0.0258403 -0.0219482 0)
(0.0689742 -0.0256207 0)
(0.0233066 0.033302 0)
(0.0466505 0.0175318 0)
(0.147231 -0.0273853 0)
(0.204466 -0.0385187 0)
(0.247611 -0.0251948 0)
(0.282485 0.00729113 0)
(0.263548 0.0200151 0)
(0.16372 0.0301063 0)
(0.0438639 0.0471505 0)
(0.0193168 0.0184201 0)
(0.0473956 -0.0279455 0)
(0.0900676 -0.0536296 0)
(0.157919 -0.0527818 0)
(0.229366 -0.0356392 0)
(0.243236 -0.0194353 0)
(0.0937582 0.141436 0)
(-0.236784 0.0550273 0)
(0.0932538 -0.0507521 0)
(-0.0640416 0.00615542 0)
(-0.000795795 0.0228026 0)
(0.0805391 -0.0377838 0)
(0.123644 -0.0629464 0)
(0.159002 -0.0629996 0)
(0.190572 -0.0445129 0)
(0.220683 -0.00818603 0)
(0.195959 0.0298497 0)
(0.0774776 0.0670685 0)
(-0.119014 0.0852559 0)
(-0.140526 0.0214522 0)
(-0.0959853 -0.042666 0)
(-0.0395024 -0.0805463 0)
(0.0462051 -0.0979078 0)
(0.135054 -0.0551992 0)
(0.0704903 0.0350185 0)
(-0.103478 0.226192 0)
(-0.082139 -0.0239696 0)
(-0.0468704 -0.0473498 0)
(-0.18899 0.0384845 0)
(-0.175747 -0.0187602 0)
(-0.202826 -0.0444674 0)
(-0.175574 -0.0724609 0)
(-0.128952 -0.0692286 0)
(-0.0945447 -0.043221 0)
(-0.0994006 0.0142115 0)
(-0.180836 0.111072 0)
(-0.349464 0.161805 0)
(-0.43368 0.126869 0)
(-0.37799 -0.00983014 0)
(-0.246015 -0.0932365 0)
(-0.139182 -0.126827 0)
(-0.0777853 -0.135587 0)
(-0.034188 -0.0428058 0)
(-0.107475 0.0823536 0)
(-0.190437 0.244994 0)
(0.0701138 -0.0655872 0)
(-0.18627 0.0586318 0)
(-0.369596 0.0830913 0)
(-0.400064 0.00762971 0)
(-0.370083 -0.0616941 0)
(-0.312669 -0.0988573 0)
(-0.263436 -0.0980755 0)
(-0.243961 -0.0628665 0)
(-0.28716 0.0325138 0)
(-0.462468 0.181582 0)
(-0.520587 0.181193 0)
(-0.47734 0.0845092 0)
(-0.357533 -0.0528977 0)
(-0.250891 -0.137443 0)
(-0.187725 -0.157667 0)
(-0.199157 -0.121256 0)
(-0.238686 -0.0120979 0)
(-0.267359 0.105923 0)
(-0.226599 0.207455 0)
(0.201269 -0.098114 0)
(-0.228215 0.185773 0)
(-0.398811 0.122033 0)
(-0.42173 -0.00607245 0)
(-0.389629 -0.0849766 0)
(-0.343399 -0.117481 0)
(-0.320868 -0.107599 0)
(-0.334172 -0.045217 0)
(-0.394352 0.0795437 0)
(-0.532623 0.219666 0)
(-0.566663 0.174846 0)
(-0.481415 0.0459398 0)
(-0.367 -0.100762 0)
(-0.273248 -0.172273 0)
(-0.25406 -0.164103 0)
(-0.304906 -0.104192 0)
(-0.375253 -0.00473805 0)
(-0.34374 0.0806817 0)
(-0.179232 0.0567405 0)
(0.264236 -0.0552004 0)
(-0.245594 0.322536 0)
(-0.38345 0.168362 0)
(-0.401395 -0.00254915 0)
(-0.380661 -0.0970639 0)
(-0.357051 -0.128414 0)
(-0.361292 -0.107074 0)
(-0.401937 -0.0245092 0)
(-0.461547 0.115853 0)
(-0.566987 0.250778 0)
(-0.598615 0.173543 0)
(-0.496494 -0.00207924 0)
(-0.384518 -0.166472 0)
(-0.326954 -0.193498 0)
(-0.319112 -0.158173 0)
(-0.360246 -0.0757034 0)
(-0.414084 0.00801411 0)
(-0.294554 0.00809747 0)
(-0.00956445 -0.144276 0)
(0.179297 -0.0104739 0)
(-0.281668 0.467414 0)
(-0.375531 0.189799 0)
(-0.37593 0.00270391 0)
(-0.364774 -0.0985334 0)
(-0.360134 -0.125984 0)
(-0.387418 -0.0840665 0)
(-0.457225 0.00263583 0)
(-0.521134 0.145522 0)
(-0.593166 0.274403 0)
(-0.619801 0.180829 0)
(-0.502061 -0.0566927 0)
(-0.441609 -0.185648 0)
(-0.418243 -0.195962 0)
(-0.403772 -0.149014 0)
(-0.38944 -0.0501218 0)
(-0.353414 -0.0203983 0)
(-0.227692 -0.0719122 0)
(0.0210878 -0.212036 0)
(0.111598 0.0114913 0)
(-0.111488 0.283527 0)
(-0.0799683 0.178095 0)
(-0.0613066 0.0995632 0)
(-0.0715328 0.0771646 0)
(-0.0386073 -0.00382165 0)
(0.0269526 -0.0461301 0)
(0.0759493 -0.0656844 0)
(0.127549 -0.0812503 0)
(0.181255 -0.0941339 0)
(0.22755 -0.0969939 0)
(0.265622 -0.091362 0)
(0.292285 -0.0755384 0)
(0.303332 -0.0528583 0)
(0.292064 -0.0350148 0)
(0.264047 -0.0272271 0)
(0.235512 -0.0294514 0)
(0.211546 -0.0238261 0)
(0.185336 -0.0135798 0)
(0.149353 -0.00376897 0)
(0.0918936 0.0118475 0)
(-0.0202141 0.0324827 0)
(-0.171256 0.058121 0)
(-0.28699 0.0889825 0)
(-0.108217 0.350227 0)
(0.097004 0.118114 0)
(-0.0275089 0.10146 0)
(0.136994 0.0190261 0)
(0.209411 -0.0352068 0)
(0.256731 -0.063972 0)
(0.295423 -0.0831265 0)
(0.328425 -0.10148 0)
(0.35934 -0.118346 0)
(0.384189 -0.118438 0)
(0.401757 -0.108257 0)
(0.404843 -0.0845614 0)
(0.399056 -0.035284 0)
(0.383405 0.0157646 0)
(0.352111 0.0269196 0)
(0.306772 0.00373641 0)
(0.259659 -0.00417326 0)
(0.17355 0.0180184 0)
(0.0228352 0.0870429 0)
(-0.210146 0.188623 0)
(-0.384369 0.214859 0)
(-0.522242 0.201557 0)
(-0.608425 0.180451 0)
(-0.0863788 0.301198 0)
(0.120462 0.0815921 0)
(0.155485 0.00782252 0)
(0.24829 -0.0759763 0)
(0.298372 -0.113655 0)
(0.334755 -0.131321 0)
(0.367588 -0.141023 0)
(0.397736 -0.147508 0)
(0.425332 -0.157767 0)
(0.441979 -0.139455 0)
(0.449384 -0.112615 0)
(0.437509 -0.0927762 0)
(0.428214 -0.0703927 0)
(0.395434 -0.00609397 0)
(0.314952 0.0497127 0)
(0.192687 0.0601178 0)
(0.0272442 0.130663 0)
(-0.263994 0.253468 0)
(-0.437135 0.332131 0)
(-0.568648 0.373283 0)
(-0.667363 0.332407 0)
(-0.707146 0.279134 0)
(-0.722205 0.234498 0)
(0.0385974 0.190879 0)
(0.186944 -0.000795261 0)
(0.25109 -0.0813219 0)
(0.29788 -0.118749 0)
(0.327575 -0.136042 0)
(0.350224 -0.146929 0)
(0.369957 -0.155508 0)
(0.384289 -0.155488 0)
(0.393245 -0.174539 0)
(0.379946 -0.168786 0)
(0.362209 -0.134634 0)
(0.250739 -0.0457887 0)
(0.0566033 0.0658748 0)
(-0.020508 0.141645 0)
(-0.0893709 0.173896 0)
(-0.230812 0.237859 0)
(-0.448078 0.383802 0)
(-0.775546 0.493056 0)
(-0.869368 0.460727 0)
(-0.854666 0.41058 0)
(-0.822517 0.336012 0)
(-0.79096 0.264981 0)
(-0.759892 0.193466 0)
(0.113021 0.0515678 0)
(0.199022 -0.0793268 0)
(0.251855 -0.130477 0)
(0.286488 -0.150769 0)
(0.305147 -0.159779 0)
(0.314359 -0.166815 0)
(0.310801 -0.185542 0)
(0.293628 -0.190761 0)
(0.256754 -0.16824 0)
(-0.0044803 -0.0143278 0)
(-0.118062 0.0963334 0)
(-0.192765 0.137828 0)
(-0.251388 0.134088 0)
(-0.266646 0.159971 0)
(-0.568768 0.294467 0)
(-0.911888 0.523992 0)
(-1.12616 0.625629 0)
(-1.11524 0.495097 0)
(-1.0605 0.404628 0)
(-0.99163 0.340366 0)
(-0.935366 0.271545 0)
(-0.8974 0.214695 0)
(-0.8767 0.174856 0)
(0.0720404 -0.117751 0)
(0.148699 -0.148854 0)
(0.204626 -0.180295 0)
(0.239766 -0.178312 0)
(0.246757 -0.17275 0)
(0.218108 -0.165769 0)
(0.101163 -0.124328 0)
(-0.205386 0.020629 0)
(-0.306085 0.0756809 0)
(-0.383806 0.0866157 0)
(-0.467382 0.0903412 0)
(-0.473509 0.130208 0)
(-0.678947 0.233055 0)
(-1.53925 0.638828 0)
(-1.71575 0.79706 0)
(-1.76454 0.84427 0)
(-1.38396 0.631136 0)
(-1.20869 0.440582 0)
(-1.13102 0.340343 0)
(-1.07022 0.288379 0)
(-1.036 0.242931 0)
(-1.02109 0.201895 0)
(-1.00487 0.174551 0)
(0.0360376 -0.181434 0)
(0.112971 -0.201295 0)
(0.14598 -0.227457 0)
(0.147849 -0.188689 0)
(0.0971016 -0.125324 0)
(-0.205037 0.0681847 0)
(-0.384687 0.136364 0)
(-0.52044 0.129487 0)
(-0.625276 0.119431 0)
(-0.733027 0.128876 0)
(-0.788152 0.162142 0)
(-0.995559 0.472007 0)
(-1.44663 0.88874 0)
(-1.6475 0.915513 0)
(-1.4664 0.59781 0)
(-1.23947 0.391484 0)
(-1.19108 0.341409 0)
(-1.15225 0.302046 0)
(-1.12396 0.27808 0)
(-1.09726 0.262718 0)
(-1.07113 0.233992 0)
(-1.04728 0.189451 0)
(-1.02368 0.135508 0)
(0.0470567 -0.24145 0)
(0.125615 -0.225587 0)
(0.0814564 -0.216642 0)
(-0.0624589 -0.0546746 0)
(-0.282884 0.148131 0)
(-0.46408 0.246809 0)
(-0.61278 0.25727 0)
(-0.743663 0.253312 0)
(-0.87261 0.242848 0)
(-1.02068 0.266485 0)
(-1.15906 0.366766 0)
(-1.36735 0.789063 0)
(-1.355 0.979064 0)
(-1.17908 0.709752 0)
(-1.16894 0.493959 0)
(-1.1662 0.40692 0)
(-1.16549 0.341509 0)
(-1.16535 0.293706 0)
(-1.16349 0.251892 0)
(-1.14994 0.211981 0)
(-1.11932 0.168883 0)
(-1.08207 0.124754 0)
(-1.0548 0.0785214 0)
(0.0287888 -0.463067 0)
(0.141363 -0.272857 0)
(-0.147473 -0.0400125 0)
(-0.318739 0.15573 0)
(-0.47915 0.302289 0)
(-0.635896 0.391377 0)
(-0.742113 0.392553 0)
(-0.859087 0.381352 0)
(-0.996453 0.387722 0)
(-1.14793 0.434215 0)
(-1.27572 0.542741 0)
(-1.33034 0.681011 0)
(-1.23255 0.721382 0)
(-1.17346 0.626218 0)
(-1.16322 0.513178 0)
(-1.16891 0.408605 0)
(-1.1774 0.338975 0)
(-1.18278 0.288435 0)
(-1.18564 0.242756 0)
(-1.17487 0.192465 0)
(-1.14524 0.14263 0)
(-1.11295 0.105776 0)
(-1.08841 0.0738106 0)
(-0.1118 -0.386813 0)
(-0.160982 -0.0402746 0)
(-0.33051 0.147162 0)
(-0.474704 0.317839 0)
(-0.613082 0.453398 0)
(-0.699778 0.495309 0)
(-0.788499 0.500164 0)
(-0.894719 0.503653 0)
(-1.01469 0.51678 0)
(-1.14046 0.552173 0)
(-1.24166 0.616372 0)
(-1.27737 0.679316 0)
(-1.24194 0.691388 0)
(-1.19896 0.62485 0)
(-1.18545 0.520387 0)
(-1.17536 0.428605 0)
(-1.16562 0.359993 0)
(-1.1628 0.313623 0)
(-1.16415 0.270203 0)
(-1.16132 0.224977 0)
(-1.14209 0.159413 0)
(-1.09983 0.0990372 0)
(-1.01117 0.0790452 0)
(-0.256495 -0.145789 0)
(-0.321764 0.0939412 0)
(-0.444941 0.29204 0)
(-0.562659 0.456962 0)
(-0.644169 0.533834 0)
(-0.70901 0.571724 0)
(-0.78207 0.591732 0)
(-0.866612 0.60954 0)
(-0.962701 0.629069 0)
(-1.0758 0.64874 0)
(-1.19506 0.666058 0)
(-1.25689 0.690023 0)
(-1.2415 0.68951 0)
(-1.19813 0.644307 0)
(-1.15043 0.542264 0)
(-1.07737 0.429681 0)
(-1.12986 0.3657 0)
(-1.12583 0.323685 0)
(-1.07971 0.267161 0)
(-0.988803 0.153334 0)
(-0.8622 0.0443391 0)
(-0.725562 -0.0287653 0)
(-0.621728 -0.0869596 0)
(-0.224373 0.0712597 0)
(-0.342242 0.238607 0)
(-0.484219 0.410612 0)
(-0.574257 0.531266 0)
(-0.638493 0.594925 0)
(-0.691408 0.633678 0)
(-0.743597 0.659652 0)
(-0.799801 0.683766 0)
(-0.866867 0.701979 0)
(-0.97003 0.715146 0)
(-1.11304 0.732103 0)
(-1.10679 0.735743 0)
(-0.954835 0.639254 0)
(-0.997003 0.535209 0)
(-0.973696 0.434934 0)
(-0.936595 0.420291 0)
(-0.910073 0.33607 0)
(-0.852268 0.242072 0)
(-0.745856 0.135307 0)
(-0.574173 0.00963241 0)
(-0.405391 -0.0863903 0)
(-0.303499 -0.121413 0)
(-0.215598 -0.129775 0)
(-0.207166 0.322583 0)
(-0.32756 0.394852 0)
(-0.472296 0.51079 0)
(-0.559893 0.60167 0)
(-0.621623 0.651715 0)
(-0.667566 0.680141 0)
(-0.704637 0.699122 0)
(-0.738121 0.717095 0)
(-0.777123 0.742205 0)
(-0.775374 0.848373 0)
(-0.69489 0.939863 0)
(-0.749116 0.675557 0)
(-0.735049 0.603057 0)
(-0.730531 0.533073 0)
(-0.719186 0.444804 0)
(-0.689063 0.364986 0)
(-0.627857 0.273128 0)
(-0.534111 0.14297 0)
(-0.365238 -0.0255599 0)
(-0.197103 -0.169974 0)
(-0.11362 -0.216467 0)
(-0.0302669 -0.227969 0)
(0.0433901 -0.230018 0)
(-0.182676 0.55376 0)
(-0.29622 0.55321 0)
(-0.440869 0.62218 0)
(-0.532884 0.677596 0)
(-0.600308 0.702008 0)
(-0.643765 0.706468 0)
(-0.665874 0.71133 0)
(-0.668108 0.726516 0)
(-0.553732 0.743255 0)
(-0.577558 1.00435 0)
(-0.566464 0.86423 0)
(-0.576101 0.615199 0)
(-0.549848 0.559744 0)
(-0.509999 0.514522 0)
(-0.469532 0.420438 0)
(-0.412778 0.317595 0)
(-0.329363 0.190601 0)
(-0.204801 0.0156766 0)
(-0.00233145 -0.195096 0)
(0.0372827 -0.258544 0)
(0.095081 -0.283591 0)
(0.142138 -0.289371 0)
(0.18949 -0.282358 0)
(-0.149173 0.758213 0)
(-0.237499 0.696153 0)
(-0.378401 0.727685 0)
(-0.480551 0.745055 0)
(-0.554325 0.734099 0)
(-0.593779 0.721508 0)
(-0.539381 0.710256 0)
(-0.452168 0.601899 0)
(-0.49181 0.786562 0)
(-0.467882 0.870989 0)
(-0.404719 0.778863 0)
(-0.376339 0.651388 0)
(-0.356079 0.572758 0)
(-0.302181 0.477312 0)
(-0.225694 0.360773 0)
(-0.134015 0.229721 0)
(-0.0159794 0.052694 0)
(0.148787 -0.146586 0)
(0.190973 -0.246169 0)
(0.217558 -0.294533 0)
(0.243629 -0.318151 0)
(0.26727 -0.322519 0)
(0.291783 -0.314005 0)
(-0.112736 0.915005 0)
(-0.14878 0.810661 0)
(-0.280507 0.817974 0)
(-0.371737 0.799912 0)
(-0.411171 0.774873 0)
(-0.250877 0.673548 0)
(-0.364815 0.719491 0)
(-0.370874 0.661792 0)
(-0.40975 0.716838 0)
(-0.34002 0.783546 0)
(-0.269679 0.729029 0)
(-0.211342 0.605385 0)
(-0.156243 0.50617 0)
(-0.0749205 0.394955 0)
(0.0328717 0.252702 0)
(0.135657 0.102896 0)
(0.262297 -0.0690524 0)
(0.316425 -0.19113 0)
(0.335993 -0.271833 0)
(0.342592 -0.314819 0)
(0.345385 -0.333209 0)
(0.347419 -0.335221 0)
(0.350951 -0.326597 0)
(-0.0898112 1.01755 0)
(-0.0552546 0.884667 0)
(-0.168774 0.881902 0)
(-0.0193482 0.8868 0)
(-0.0710919 0.921227 0)
(-0.164728 0.744695 0)
(-0.290577 0.695882 0)
(-0.288421 0.679069 0)
(-0.29103 0.705431 0)
(-0.232463 0.702334 0)
(-0.144172 0.647079 0)
(-0.0518669 0.533698 0)
(0.0427855 0.412491 0)
(0.141409 0.286272 0)
(0.244833 0.146907 0)
(0.337885 0.00406376 0)
(0.401983 -0.122987 0)
(0.424589 -0.21689 0)
(0.424535 -0.277768 0)
(0.41355 -0.311646 0)
(0.399039 -0.326559 0)
(0.385216 -0.328729 0)
(0.373647 -0.322405 0)
(-0.0838395 1.06278 0)
(0.00979417 0.899421 0)
(-0.00739587 0.877516 0)
(0.20491 1.03942 0)
(-0.0865778 0.98598 0)
(-0.12719 0.74451 0)
(-0.196165 0.768452 0)
(-0.207266 0.719225 0)
(-0.182768 0.665184 0)
(-0.109313 0.617366 0)
(-0.00325914 0.542118 0)
(0.107375 0.426713 0)
(0.20963 0.30785 0)
(0.305334 0.185151 0)
(0.388931 0.0594934 0)
(0.450999 -0.0581274 0)
(0.475513 -0.150922 0)
(0.475523 -0.2191 0)
(0.460588 -0.265083 0)
(0.43833 -0.292863 0)
(0.414241 -0.306869 0)
(0.391864 -0.310975 0)
(0.371712 -0.308129 0)
(-0.105224 1.0821 0)
(0.070575 0.836786 0)
(-0.0805368 0.657421 0)
(-0.18218 0.952776 0)
(-0.113714 0.988586 0)
(-0.123938 0.88227 0)
(-0.162396 0.786266 0)
(-0.117089 0.690296 0)
(-0.0560859 0.601157 0)
(0.032644 0.517104 0)
(0.1358 0.427211 0)
(0.238792 0.32035 0)
(0.329913 0.211494 0)
(0.405744 0.103879 0)
(0.461534 0.00191625 0)
(0.489485 -0.0848151 0)
(0.493742 -0.153522 0)
(0.481915 -0.205552 0)
(0.460228 -0.242682 0)
(0.43384 -0.267158 0)
(0.406577 -0.281449 0)
(0.381014 -0.287897 0)
(0.356959 -0.288472 0)
(-0.14375 1.07975 0)
(0.145063 0.753444 0)
(-0.197207 0.83621 0)
(-0.280156 1.02371 0)
(-0.115243 0.998101 0)
(-0.139475 0.857098 0)
(-0.0818207 0.743251 0)
(-0.00660849 0.625155 0)
(0.0710076 0.517695 0)
(0.156535 0.422029 0)
(0.245535 0.328552 0)
(0.328747 0.232021 0)
(0.397565 0.138328 0)
(0.448315 0.050829 0)
(0.478585 -0.0271173 0)
(0.488044 -0.0919645 0)
(0.482165 -0.144651 0)
(0.465508 -0.186196 0)
(0.442215 -0.217599 0)
(0.415712 -0.240002 0)
(0.388546 -0.25471 0)
(0.362626 -0.263079 0)
(0.337286 -0.266439 0)
(-0.170576 1.07001 0)
(0.188959 0.950208 0)
(-0.251635 1.00427 0)
(-0.0107396 1.06159 0)
(-0.140835 0.896755 0)
(-0.0336971 0.801064 0)
(0.0250497 0.669591 0)
(0.102552 0.546993 0)
(0.176449 0.43795 0)
(0.249118 0.340953 0)
(0.318144 0.251718 0)
(0.378203 0.167537 0)
(0.424345 0.0902271 0)
(0.454634 0.0212607 0)
(0.468587 -0.0383642 0)
(0.468817 -0.088796 0)
(0.458516 -0.130973 0)
(0.440662 -0.165516 0)
(0.418025 -0.192926 0)
(0.392921 -0.213733 0)
(0.367128 -0.228586 0)
(0.342064 -0.23827 0)
(0.316918 -0.24371 0)
(-0.180534 1.06973 0)
(0.213369 0.981868 0)
(-0.0370921 1.18399 0)
(0.0791006 0.988279 0)
(-0.0178797 0.872998 0)
(0.08423 0.737617 0)
(0.132349 0.601467 0)
(0.1957 0.478711 0)
(0.255505 0.371699 0)
(0.310985 0.278734 0)
(0.360276 0.19711 0)
(0.400391 0.124786 0)
(0.428908 0.0613835 0)
(0.445147 0.00651736 0)
(0.449655 -0.0406106 0)
(0.444655 -0.0810609 0)
(0.432171 -0.11577 0)
(0.414259 -0.145214 0)
(0.392822 -0.169592 0)
(0.369458 -0.189046 0)
(0.345422 -0.20383 0)
(0.321854 -0.214388 0)
(0.297821 -0.221394 0)
(-0.175809 1.0424 0)
(0.246601 0.957114 0)
(0.102638 1.14233 0)
(0.169682 0.998278 0)
(0.11444 0.857104 0)
(0.178456 0.690403 0)
(0.219055 0.548159 0)
(0.266063 0.425927 0)
(0.310221 0.322337 0)
(0.349735 0.234794 0)
(0.382897 0.160825 0)
(0.407938 0.0983369 0)
(0.423738 0.045652 0)
(0.430272 0.00110373 0)
(0.428466 -0.03712 0)
(0.419949 -0.0704755 0)
(0.406164 -0.0998754 0)
(0.388552 -0.125649 0)
(0.36841 -0.147773 0)
(0.346827 -0.166149 0)
(0.324709 -0.18081 0)
(0.302915 -0.192005 0)
(0.280556 -0.200249 0)
(-0.0822148 0.863978 0)
(0.206427 0.844385 0)
(0.120565 1.08851 0)
(0.198325 0.998738 0)
(0.195395 0.825776 0)
(0.241586 0.651217 0)
(0.278053 0.507187 0)
(0.313046 0.386932 0)
(0.345111 0.287169 0)
(0.372431 0.205013 0)
(0.393521 0.138011 0)
(0.407382 0.0836495 0)
(0.413761 0.0392829 0)
(0.41317 0.00233554 0)
(0.406762 -0.0295871 0)
(0.395763 -0.0580164 0)
(0.381249 -0.0837544 0)
(0.364157 -0.106972 0)
(0.345326 -0.127493 0)
(0.325486 -0.14509 0)
(0.305279 -0.159681 0)
(0.285405 -0.171415 0)
(0.264951 -0.180703 0)
(0.228186 0.668348 0)
(0.158789 0.685074 0)
(0.12957 1.08352 0)
(0.204765 0.962095 0)
(0.225786 0.782685 0)
(0.275805 0.61473 0)
(0.310595 0.473503 0)
(0.339834 0.356889 0)
(0.364541 0.261722 0)
(0.383354 0.185363 0)
(0.39548 0.12513 0)
(0.40087 0.0778096 0)
(0.400155 0.0399578 0)
(0.39437 0.00846272 0)
(0.384741 -0.019176 0)
(0.372193 -0.0443929 0)
(0.357461 -0.0677601 0)
(0.341089 -0.0893005 0)
(0.323578 -0.108753 0)
(0.30541 -0.125842 0)
(0.287055 -0.140453 0)
(0.26902 -0.152691 0)
(0.250473 -0.162889 0)
(0.104756 0.360728 0)
(0.0982331 0.97237 0)
(0.0850732 1.06878 0)
(0.181224 0.898057 0)
(0.229882 0.732607 0)
(0.285738 0.575258 0)
(0.323086 0.441219 0)
(0.351481 0.331002 0)
(0.372078 0.242437 0)
(0.384735 0.173117 0)
(0.389987 0.119835 0)
(0.388985 0.0786812 0)
(0.383183 0.045774 0)
(0.373953 0.0179404 0)
(0.362351 -0.00699049 0)
(0.349153 -0.0303036 0)
(0.334654 -0.0522364 0)
(0.31917 -0.0727299 0)
(0.302973 -0.0915073 0)
(0.286382 -0.108309 0)
(0.269723 -0.123024 0)
(0.25342 -0.13574 0)
(0.236634 -0.146732 0)
(-0.0630929 0.616299 0)
(-0.0863871 0.954825 0)
(0.0474475 0.976198 0)
(0.14961 0.815062 0)
(0.224206 0.669613 0)
(0.28429 0.52857 0)
(0.325266 0.406998 0)
(0.353401 0.307026 0)
(0.370453 0.227748 0)
(0.377915 0.166772 0)
(0.377798 0.120382 0)
(0.372275 0.0843651 0)
(0.363267 0.0549482 0)
(0.352165 0.0293502 0)
(0.339755 0.00589821 0)
(0.326582 -0.0163352 0)
(0.312673 -0.0374514 0)
(0.298187 -0.0573205 0)
(0.283271 -0.0756948 0)
(0.268132 -0.0923609 0)
(0.253021 -0.107234 0)
(0.238234 -0.120391 0)
(0.223005 -0.132071 0)
(-0.0599516 0.570426 0)
(-0.0676845 0.858907 0)
(0.0619039 0.841667 0)
(0.151369 0.723 0)
(0.226017 0.599534 0)
(0.283692 0.478388 0)
(0.323542 0.372706 0)
(0.348638 0.285907 0)
(0.361184 0.217681 0)
(0.363943 0.165395 0)
(0.359892 0.125163 0)
(0.351646 0.0930425 0)
(0.341107 0.0658548 0)
(0.329417 0.0414717 0)
(0.317116 0.0187144 0)
(0.304361 -0.00289641 0)
(0.291341 -0.0235819 0)
(0.277913 -0.0430768 0)
(0.264225 -0.0612209 0)
(0.250417 -0.0778507 0)
(0.236672 -0.0929049 0)
(0.223249 -0.106457 0)
(0.209367 -0.118716 0)
(-0.0437991 0.631148 0)
(-0.0197181 0.793733 0)
(0.0876718 0.741313 0)
(0.164607 0.641809 0)
(0.232338 0.534589 0)
(0.283519 0.431663 0)
(0.317909 0.342412 0)
(0.337469 0.269589 0)
(0.345024 0.212379 0)
(0.343996 0.167882 0)
(0.337591 0.132513 0)
(0.328248 0.103059 0)
(0.317507 0.0771695 0)
(0.306158 0.0533908 0)
(0.294516 0.0309697 0)
(0.28261 0.00962573 0)
(0.270521 -0.0107254 0)
(0.258185 -0.029986 0)
(0.245648 -0.0479921 0)
(0.233052 -0.0646321 0)
(0.220539 -0.0798646 0)
(0.208282 -0.093756 0)
(0.195571 -0.106487 0)
(-0.0249103 0.657651 0)
(0.0203253 0.730027 0)
(0.108827 0.661332 0)
(0.177656 0.571893 0)
(0.236659 0.478683 0)
(0.279369 0.392358 0)
(0.30624 0.318713 0)
(0.319667 0.258834 0)
(0.32298 0.211116 0)
(0.319623 0.172745 0)
(0.312412 0.14084 0)
(0.303248 0.113097 0)
(0.293202 0.0879619 0)
(0.282765 0.0645212 0)
(0.272101 0.042313 0)
(0.26123 0.0211587 0)
(0.250085 0.00107557 0)
(0.238864 -0.0180191 0)
(0.227421 -0.0359249 0)
(0.215924 -0.0525835 0)
(0.204491 -0.0679686 0)
(0.193294 -0.0821377 0)
(0.181615 -0.095241 0)
(-0.0032047 0.646731 0)
(0.0510925 0.659495 0)
(0.12581 0.590338 0)
(0.186321 0.511257 0)
(0.23497 0.432487 0)
(0.268272 0.361743 0)
(0.287665 0.301959 0)
(0.296045 0.252804 0)
(0.296711 0.21239 0)
(0.292588 0.17842 0)
(0.285791 0.148874 0)
(0.277624 0.122279 0)
(0.268769 0.0976871 0)
(0.259524 0.0745493 0)
(0.24999 0.0525779 0)
(0.240193 0.0316514 0)
(0.23012 0.0117543 0)
(0.219849 -0.00709402 0)
(0.20946 -0.0249072 0)
(0.198971 -0.0415763 0)
(0.188519 -0.0570819 0)
(0.178229 -0.0714658 0)
(0.167465 -0.0848571 0)
(0.0160226 0.612368 0)
(0.071466 0.591812 0)
(0.135697 0.528484 0)
(0.186649 0.460874 0)
(0.224782 0.396317 0)
(0.249581 0.339307 0)
(0.263181 0.290762 0)
(0.268461 0.249714 0)
(0.268188 0.214543 0)
(0.264516 0.183661 0)
(0.258873 0.155817 0)
(0.252093 0.130148 0)
(0.244615 0.106105 0)
(0.236644 0.0833565 0)
(0.22827 0.0617133 0)
(0.219542 0.0410831 0)
(0.210501 0.0214384 0)
(0.201145 0.00282175 0)
(0.191726 -0.0148546 0)
(0.182156 -0.031508 0)
(0.172584 -0.0470992 0)
(0.163138 -0.0616442 0)
(0.153181 -0.0752484 0)
(0.028572 0.562492 0)
(0.0806084 0.5307 0)
(0.135505 0.476423 0)
(0.176911 0.420764 0)
(0.206303 0.368923 0)
(0.224938 0.323002 0)
(0.235078 0.282915 0)
(0.239149 0.247719 0)
(0.239187 0.21631 0)
(0.236642 0.187743 0)
(0.232437 0.161321 0)
(0.227123 0.136571 0)
(0.221009 0.113182 0)
(0.214271 0.0909488 0)
(0.207012 0.0697428 0)
(0.199307 0.0494904 0)
(0.191224 0.0301601 0)
(0.182817 0.0117535 0)
(0.174194 -0.00571018 0)
(0.165488 -0.0223013 0)
(0.156716 -0.0379312 0)
(0.147997 -0.0525878 0)
(0.138773 -0.0663346 0)
(0.032862 0.506186 0)
(0.0793822 0.47727 0)
(0.125565 0.433487 0)
(0.15898 0.389108 0)
(0.182282 0.347759 0)
(0.197277 0.310293 0)
(0.205917 0.276424 0)
(0.21002 0.24554 0)
(0.210979 0.217033 0)
(0.209749 0.190422 0)
(0.206954 0.165362 0)
(0.20299 0.141613 0)
(0.198115 0.119002 0)
(0.192501 0.0974053 0)
(0.186268 0.0767356 0)
(0.179511 0.0569368 0)
(0.172316 0.0379783 0)
(0.164768 0.0198519 0)
(0.156898 0.00259301 0)
(0.148973 -0.0138834 0)
(0.140912 -0.0295016 0)
(0.132882 -0.0442153 0)
(0.124322 -0.0580437 0)
(0.0304328 0.452534 0)
(0.070788 0.431922 0)
(0.109255 0.398166 0)
(0.136772 0.363426 0)
(0.156302 0.330306 0)
(0.169447 0.299235 0)
(0.177697 0.270088 0)
(0.182333 0.242613 0)
(0.184299 0.216572 0)
(0.184256 0.191781 0)
(0.182662 0.168106 0)
(0.179841 0.145445 0)
(0.176027 0.123714 0)
(0.171392 0.102845 0)
(0.166071 0.082788 0)
(0.160169 0.0635037 0)
(0.153783 0.0449681 0)
(0.147003 0.0271711 0)
(0.139894 0.0101205 0)
(0.132601 -0.00615924 0)
(0.125226 -0.0217209 0)
(0.117784 -0.0364561 0)
(0.109825 -0.050315 0)
(0.0247768 0.406848 0)
(0.058952 0.394154 0)
(0.0908459 0.368731 0)
(0.114119 0.3417 0)
(0.131242 0.314947 0)
(0.143369 0.288845 0)
(0.151561 0.263493 0)
(0.156707 0.238913 0)
(0.159467 0.215107 0)
(0.160328 0.192072 0)
(0.159657 0.169803 0)
(0.157735 0.148283 0)
(0.154781 0.127492 0)
(0.150966 0.107409 0)
(0.146428 0.0880118 0)
(0.14128 0.0692823 0)
(0.135619 0.0512067 0)
(0.129535 0.0337769 0)
(0.123116 0.0169971 0)
(0.116393 0.000920099 0)
(0.109631 -0.0145426 0)
(0.102746 -0.0292521 0)
(0.0953369 -0.0431021 0)
(0.0188954 0.370325 0)
(0.0472013 0.363025 0)
(0.0735201 0.343933 0)
(0.0934435 0.322834 0)
(0.108669 0.301025 0)
(0.119927 0.278902 0)
(0.127939 0.256728 0)
(0.133318 0.234697 0)
(0.136538 0.212954 0)
(0.137977 0.191606 0)
(0.13794 0.170724 0)
(0.136672 0.150354 0)
(0.134375 0.130523 0)
(0.131215 0.111245 0)
(0.127326 0.0925262 0)
(0.122823 0.0743692 0)
(0.117799 0.056773 0)
(0.112342 0.0397355 0)
(0.106529 0.0232599 0)
(0.100405 0.00737014 0)
(0.0941411 -0.00790576 0)
(0.0877568 -0.0225495 0)
(0.0808439 -0.0363561 0)
(0.0141712 0.341844 0)
(0.0371833 0.337637 0)
(0.0587063 0.323089 0)
(0.0756572 0.306434 0)
(0.0890385 0.288466 0)
(0.0992707 0.269572 0)
(0.106815 0.250092 0)
(0.112086 0.230312 0)
(0.115428 0.210454 0)
(0.117136 0.190688 0)
(0.11746 0.171134 0)
(0.116616 0.15188 0)
(0.114783 0.132988 0)
(0.112115 0.114502 0)
(0.10874 0.0964536 0)
(0.104769 0.0788638 0)
(0.100291 0.0617467 0)
(0.0953863 0.0451105 0)
(0.0901226 0.0289604 0)
(0.0845578 0.0133125 0)
(0.0787157 -0.00176217 0)
(0.0728359 -0.0163081 0)
(0.066381 -0.0300289 0)
(0.0107439 0.319686 0)
(0.0291827 0.317185 0)
(0.0465405 0.3058 0)
(0.0607019 0.292415 0)
(0.072168 0.277409 0)
(0.0811642 0.261121 0)
(0.087956 0.243907 0)
(0.0928141 0.226085 0)
(0.0959854 0.207914 0)
(0.0976945 0.189591 0)
(0.0981447 0.171269 0)
(0.0975166 0.153063 0)
(0.0959686 0.135061 0)
(0.0936389 0.117329 0)
(0.0906463 0.0999192 0)
(0.0870929 0.0828705 0)
(0.0830652 0.0662128 0)
(0.0786352 0.0499674 0)
(0.0738608 0.0341476 0)
(0.0687914 0.0187669 0)
(0.0634223 0.00387128 0)
(0.0579445 -0.010533 0)
(0.0519338 -0.0241214 0)
(0.0082871 0.302362 0)
(0.0228586 0.300938 0)
(0.0365848 0.291744 0)
(0.0481196 0.280735 0)
(0.0576279 0.267986 0)
(0.0652337 0.253774 0)
(0.0710573 0.238435 0)
(0.07527 0.222284 0)
(0.0780407 0.205584 0)
(0.079536 0.188546 0)
(0.079916 0.171337 0)
(0.0793289 0.154087 0)
(0.0779099 0.136903 0)
(0.0757799 0.119867 0)
(0.0730455 0.103047 0)
(0.0698 0.0864975 0)
(0.066125 0.0702632 0)