/*--------------------------------*- C++ -*----------------------------------*\
| =========                 |                                                 |
| \\      /  F ield         | OpenFOAM: The Open Source CFD Toolbox           |
|  \\    /   O peration     | Version:  2312                                  |
|   \\  /    A nd           | Website:  www.openfoam.com                      |
|    \\/     M anipulation  |                                                 |
\*---------------------------------------------------------------------------*/
FoamFile
{
    version     2.0;
    format      ascii;
    arch        "LSB;label=32;scalar=64";
    class       volScalarField;
    location    "2.05";
    object      alpha.water;
}
// * * * * * * * * * * * * * * * * * * * * * * * * * * * * * * * * * * * * * //

dimensions      [0 0 0 0 0 0 0];

internalField   nonuniform List<scalar> 
2268
(
7.60456e-10
4.12023e-10
1.24863e-10
4.8345e-11
3.25303e-11
2.84623e-11
2.6976e-11
2.67401e-11
2.72323e-11
2.83822e-11
3.03302e-11
3.38607e-11
3.92867e-11
4.64708e-11
5.73837e-11
7.66335e-11
1.09263e-10
1.6661e-10
2.61095e-10
4.27732e-10
7.01478e-10
9.33588e-10
1.11036e-09
8.93538e-10
5.49235e-10
1.90064e-10
8.47357e-11
5.80964e-11
4.37896e-11
4.09032e-11
4.09198e-11
4.17317e-11
4.21314e-11
4.27796e-11
5.07632e-11
6.71134e-11
8.40842e-11
1.0492e-10
1.47982e-10
2.26824e-10
3.8238e-10
6.92115e-10
1.20788e-09
1.91997e-09
2.23268e-09
2.28612e-09
7.80841e-10
5.44511e-10
2.35822e-10
1.15558e-10
8.33687e-11
7.14395e-11
6.35143e-11
5.68305e-11
5.01357e-11
4.36056e-11
4.28093e-11
6.11539e-11
1.72395e-10
3.10736e-10
3.32392e-10
3.62422e-10
4.51943e-10
4.08787e-10
6.35603e-10
9.969e-10
1.34077e-09
2.26729e-09
2.44802e-09
2.61221e-10
3.40469e-10
1.65779e-10
9.76932e-11
8.36822e-11
8.83444e-11
8.17924e-11
5.19983e-11
2.67803e-11
2.02963e-11
5.10843e-11
3.11368e-10
1.06712e-09
1.84537e-09
1.97701e-09
2.02324e-09
3.76024e-09
1.00636e-10
1.00686e-10
1.00636e-10
1.00686e-10
1.49674e-10
1.13762e-09
6.53449e-11
6.25696e-11
4.20354e-11
3.13222e-11
3.09526e-11
2.54301e-11
1.50194e-11
5.27199e-12
6.54613e-12
5.26943e-12
6.54633e-12
0.00323819
0.0129721
0.0204407
0.0226119
0.0204176
0.0163124
0.0124051
0.0114252
0.0113855
0.014754
0.00772468
1.13522e-09
3.30058e-05
6.59506e-12
2.76294e-12
1.65606e-23
1.55627e-23
-1.94354e-20
9.18641e-20
0.008931
0.060547
0.181484
0.346301
0.510097
0.601258
0.642083
0.65195
0.641857
0.619373
0.592358
0.575279
0.591209
0.63879
0.654298
0.555979
1.18738e-23
9.51308e-19
3.30371e-18
0.00689484
0.06978
0.169806
0.350256
0.5917
0.792855
0.929139
0.996906
0.999276
0.999311
0.999311
0.999311
0.999234
0.998949
0.998708
0.997662
0.990241
0.988536
0.987981
0.986692
0.167729
0.228283
0.404962
0.629309
0.796052
0.91515
0.990681
0.998934
0.999125
0.999287
0.999305
0.999311
0.999311
0.999311
0.999311
0.999311
0.99931
0.99896
0.996349
0.996097
0.974647
0.763997
0.615817
0.0660363
0.0314694
0.0314847
0.036434
0.027303
0.0268749
0.0268744
0.0265123
0.0225278
0.0225076
0.0224864
0.0262297
0.0267776
0.0267758
0.0257904
0.0248185
0.0181406
0.0117868
0.0118045
0.0728095
0.0287737
0.0477365
0.0639285
0.0583751
0.0273371
0.036791
0.0703104
0.19224
0.174919
0.0188379
0.0106263
0.0106295
0.0123902
0.0322167
0.0325773
0.0300313
0.0694895
0.038898
0.0536029
0.0248487
0.025004
0.041901
0.112377
0.186812
0.23823
0.212177
0.198222
0.310266
0.295814
0.209857
0.0263262
0.00854252
0.00854248
0.0979011
0.422113
0.642182
0.456437
0.0939186
0.207788
0.403399
0.545409
0.549915
0.616001
0.666259
0.666701
0.621517
0.502257
0.420217
0.324218
0.143205
0.00854248
0.0492856
0.452055
0.9011
0.901448
0.603513
0.596803
0.698519
0.667336
0.551936
0.707844
0.720388
0.741267
0.747469
0.747743
0.641384
0.490333
0.361503
0.0954713
0.0853424
0.47745
0.892506
0.901294
0.892085
0.698918
0.709513
0.664518
0.382658
0.382486
0.551508
0.493968
0.30755
0.298069
0.294205
0.25515
0.228983
0.260285
0.192634
0.372923
0.907694
0.90784
0.901107
0.882465
0.898478
0.622715
0.489482
0.488872
0.526869
0.396633
0.296161
0.330299
0.209715
0.120861
0.125002
0.122127
0.222761
0.536947
0.884191
0.907118
0.864612
0.828342
0.822782
0.897304
0.489554
0.687117
0.672341
0.539724
0.48085
0.814213
0.941081
0.546323
0.136666
0.106991
0.108244
0.36252
0.891583
0.891755
0.852412
0.667033
0.629304
0.716075
0.897345
0.8026
0.957698
0.983779
0.991326
0.991411
0.991299
0.978787
0.955626
0.94786
0.948386
0.958872
0.969402
0.979883
0.997768
0.998959
0.996037
0.996017
0.998584
0.998561
0.987773
0.828197
0.363803
0.370956
0.590372
0.93973
0.943397
0.83424
0.682499
0.549319
0.391277
0.27284
0.267337
0.278831
0.318444
0.415783
0.60262
0.702254
0.759581
0.808047
0.944643
0.980054
0.998477
0.982351
0.702567
0.485965
0.90279
0.112882
0.259149
0.251931
0.160358
0.0735197
0.00934105
5.53683e-15
-1.40516e-29
-4.63533e-38
-8.22818e-11
-1.87107e-07
0.000448136
0.0192179
0.0718672
0.119662
0.162135
0.400654
0.745673
0.905088
0.901839
0.824163
0.882247
0.994934
6.41846e-06
6.39372e-06
6.39708e-06
6.39372e-06
0.000396714
9.78755e-10
1.00737e-09
1.96554e-10
6.94094e-19
3.37371e-05
0.000299525
0.000205908
9.59861e-08
-1.09137e-20
4.22104e-15
1.64471e-07
0.000664965
0.0578007
0.286412
0.664443
0.891195
0.9856
0.981704
3.19867e-05
6.42325e-06
6.37541e-06
0.000103746
0.000399622
0.000224133
7.24092e-07
9.03242e-12
1.6609e-13
-2.48004e-10
0.000259014
0.00284757
0.0027229
0.00131589
0.000422703
0.000294507
5.15744e-05
5.02777e-05
4.99607e-05
0.0504529
0.347286
0.752413
0.848018
4.21753e-05
9.94112e-06
1.00168e-05
2.62888e-05
1.66855e-05
1.29853e-05
1.64555e-05
2.30726e-05
5.34321e-20
0.000378301
0.00351812
0.00395455
0.00394959
0.0021144
0.00146881
0.000247569
0.000131944
8.79132e-05
0.000108483
0.000108537
0.0112682
0.0515186
0.0346924
4.21753e-05
4.08002e-05
2.42379e-05
1.63146e-05
4.52122e-05
0.00649181
0.0124681
0.00488201
1.11861e-17
0.00019236
0.00102981
0.00124249
0.000866138
0.000601845
0.000513258
0.000199008
9.74144e-05
9.19213e-05
9.60366e-05
0.000108952
0.00252029
0.00413366
0.00137837
2.27625e-05
0.000879149
0.00159423
0.0218733
0.0434798
0.0434838
0.0133718
1.57254e-09
1.24141e-16
3.74402e-19
3.71006e-19
3.7889e-19
3.70987e-19
4.33405e-19
1.38463e-05
0.000239588
0.00107374
0.00140402
0.00123925
0.00183482
0.00356186
0.00280241
0.000348978
2.08172e-05
0.00479093
0.038604
0.0434798
0.0434838
0.035282
0.00127093
1.11072e-09
3.26873e-08
3.71129e-19
3.79749e-19
0.000129084
0.000734906
0.00123844
0.00160564
0.00190741
0.00299605
0.0045079
0.00450968
0.00364323
0.0017832
0.000714688
0.00079044
2.05861e-05
0.00435891
0.0422013
0.0434797
0.0289757
2.14266e-06
4.43822e-08
4.68977e-07
9.64776e-07
1.72936e-06
2.60224e-08
0.0012887
0.00300625
0.00300365
0.00300614
0.00267969
0.00201231
0.00258925
0.00275274
0.00202666
0.000978811
0.00150793
0.0096703
2.08134e-05
0.000816788
0.0131861
0.0192499
0.00413597
1.02711e-09
6.56906e-10
1.02659e-09
1.06041e-06
4.63591e-05
6.66548e-05
6.96607e-05
0.000118498
0.000123859
5.95239e-05
2.88417e-05
2.88252e-05
0.00042105
0.00357041
0.00860519
0.00859207
0.00704292
0.00199482
2.08282e-05
3.99427e-06
9.24713e-07
3.31782e-07
1.41633e-07
8.89549e-08
1.83704e-08
6.31638e-08
1.50862e-07
1.50224e-07
2.35725e-07
4.84868e-05
0.000101843
0.000178794
0.000173246
0.000139698
0.000121535
0.000119284
9.60374e-05
3.05245e-05
1.64325e-05
1.60913e-06
1.58118e-06
1.82978e-05
2.32397e-06
2.83311e-07
1.61109e-07
1.13484e-07
3.24043e-08
9.61749e-08
1.54125e-07
1.47996e-06
3.68856e-06
8.529e-07
8.37197e-07
9.1039e-07
2.43578e-05
0.000192428
0.000233353
0.000233353
0.000109744
5.40267e-05
3.36021e-05
2.46917e-06
2.5822e-06
1.37394e-05
1.13124e-06
9.18726e-07
2.65589e-07
1.18753e-07
2.54625e-08
1.50378e-08
1.59437e-08
4.52542e-07
5.91405e-06
7.32802e-06
7.32799e-06
2.99403e-06
4.616e-07
7.3998e-07
7.89593e-07
1.24658e-06
5.09265e-05
0.000203623
0.000224317
0.000210758
3.76527e-05
1.00679e-06
5.42058e-06
2.08464e-08
2.13851e-08
1.16889e-07
7.0294e-08
2.40048e-08
5.59848e-07
9.1049e-07
1.2118e-06
4.50334e-06
7.32864e-06
7.32835e-06
7.2027e-06
7.90132e-07
4.06885e-07
7.65841e-07
4.54834e-07
1.26759e-07
1.27983e-07
9.56254e-05
7.18246e-05
9.23411e-05
2.68244e-06
6.78803e-07
2.08002e-08
2.07744e-08
2.07521e-08
2.07263e-08
4.78457e-07
1.59394e-06
1.61168e-06
1.20264e-06
7.98568e-07
2.42759e-06
6.19831e-06
4.11796e-06
2.46817e-07
2.81367e-08
7.31187e-07
6.99059e-07
1.32459e-07
1.98279e-07
7.94093e-08
8.00893e-08
2.84829e-08
2.23062e-06
1.35759e-06
1.59383e-07
3.13403e-08
2.07263e-08
2.07519e-08
3.23262e-07
1.50325e-06
9.22086e-07
2.8391e-07
1.16256e-10
1.1632e-10
1.85016e-07
6.11078e-08
5.4332e-09
2.62642e-08
1.23622e-07
7.48624e-08
1.46762e-08
1.73344e-07
1.65469e-07
7.73187e-08
3.51651e-08
9.57736e-10
8.83639e-10
1.90588e-07
3.69187e-08
2.07519e-08
4.67557e-08
1.90121e-07
1.7959e-07
1.52326e-08
1.16256e-10
1.16256e-10
1.16256e-10
1.16256e-10
1.16805e-10
3.42561e-09
7.31869e-09
1.474e-09
1.32945e-10
4.82885e-09
1.4169e-08
1.33866e-08
1.39942e-08
1.11181e-08
9.87439e-09
6.91189e-09
1.94518e-07
3.00342e-08
2.15457e-08
5.1361e-08
1.82283e-08
3.05998e-10
1.24177e-10
1.21501e-10
1.52376e-10
1.49187e-10
1.21751e-10
5.35786e-10
2.7897e-09
1.66985e-09
4.94651e-10
1.34255e-10
3.64783e-10
3.33305e-10
3.37087e-10
1.91299e-09
6.2442e-09
7.07788e-09
5.88856e-09
1.35488e-07
1.31977e-08
1.78701e-08
4.21947e-08
1.11902e-08
1.32799e-10
1.31545e-10
1.66045e-10
1.73394e-10
1.61145e-10
1.41317e-10
5.3358e-10
6.4095e-10
3.28204e-10
2.1388e-10
2.18837e-10
2.64529e-10
3.29681e-10
1.09246e-09
2.79052e-09
3.53683e-09
3.25111e-09
1.98443e-09
6.7216e-08
1.79243e-09
3.62519e-09
5.67094e-09
1.11257e-09
1.74825e-10
1.52787e-10
1.65874e-10
1.58821e-10
1.42546e-10
1.31917e-10
2.60842e-10
2.35332e-10
1.76291e-10
1.7801e-10
2.18516e-10
2.69946e-10
3.93718e-10
7.18548e-10
1.124e-09
1.09222e-09
8.05063e-10
4.90283e-10
7.4484e-08
8.46157e-10
3.59789e-10
2.60284e-10
2.58627e-10
1.93854e-10
1.62259e-10
1.50713e-10
1.34123e-10
1.14394e-10
1.03338e-10
1.25354e-10
1.15218e-10
1.12644e-10
1.33722e-10
1.57039e-10
1.88126e-10
2.49455e-10
3.17673e-10
3.31195e-10
2.84895e-10
1.89091e-10
1.13437e-10
1.81543e-07
5.21537e-10
5.1049e-10
3.99884e-10
2.95401e-10
2.11109e-10
1.67586e-10
1.40699e-10
1.16523e-10
9.31241e-11
7.85198e-11
7.19134e-11
6.62395e-11
6.80491e-11
7.79045e-11
8.4964e-11
9.57461e-11
1.0795e-10
1.0853e-10
9.65225e-11
6.74161e-11
4.37769e-11
3.21038e-11
1.8332e-07
4.00179e-10
6.50758e-10
5.00857e-10
3.20369e-10
2.43982e-10
1.93209e-10
1.49196e-10
1.15673e-10
8.62364e-11
6.45737e-11
4.97679e-11
4.09578e-11
3.75377e-11
3.67269e-11
3.5987e-11
3.6707e-11
3.5416e-11
3.09817e-11
2.21284e-11
1.53303e-11
9.79289e-12
7.82822e-12
1.83358e-07
5.72784e-10
7.92457e-10
5.5064e-10
3.3895e-10
3.05358e-10
2.5554e-10
1.85339e-10
1.37972e-10
9.50548e-11
6.33006e-11
4.19775e-11
2.88365e-11
2.12496e-11
1.67928e-11
1.37587e-11
1.1903e-11
9.80198e-12
6.95984e-12
4.55567e-12
2.9416e-12
1.87486e-12
1.86001e-12
1.80869e-07
7.10845e-10
9.38501e-10
7.11256e-10
4.68453e-10
4.09321e-10
3.55996e-10
2.38506e-10
1.79839e-10
1.22023e-10
7.34909e-11
4.24747e-11
2.49337e-11
1.50582e-11
9.47508e-12
6.09132e-12
4.11373e-12
2.74354e-12
1.70784e-12
8.26704e-13
4.8668e-13
3.7118e-13
3.97672e-13
1.68404e-07
7.39812e-10
1.13328e-09
8.79043e-10
6.79371e-10
7.53943e-10
5.47335e-10
3.30788e-10
2.4206e-10
1.61474e-10
9.39311e-11
5.05115e-11
2.58653e-11
1.34994e-11
7.22274e-12
3.80763e-12
2.06377e-12
1.09821e-12
5.70404e-13
3.08396e-13
1.11649e-13
6.38049e-14
7.19514e-14
3.26029e-08
7.03255e-10
1.20903e-09
1.0435e-09
1.03295e-09
1.18508e-09
8.18915e-10
4.61515e-10
3.40988e-10
2.22933e-10
1.23986e-10
6.36424e-11
3.07364e-11
1.42518e-11
6.70561e-12
3.08023e-12
1.45875e-12
6.79392e-13
3.0935e-13
1.3876e-13
5.64644e-14
2.18035e-14
1.33409e-14
7.85236e-09
1.43661e-09
1.191e-09
1.18092e-09
1.49854e-09
1.63972e-09
1.12966e-09
6.45428e-10
4.83493e-10
3.24839e-10
1.82219e-10
8.88125e-11
4.03145e-11
1.71212e-11
7.18122e-12
2.92698e-12
1.19747e-12
5.04272e-13
2.07731e-13
8.90337e-14
2.96401e-14
8.21266e-15
3.7428e-15
3.47536e-09
3.11445e-09
1.09487e-09
1.25488e-09
1.68743e-09
1.68959e-09
1.39188e-09
9.1303e-10
6.76426e-10
4.79509e-10
2.82292e-10
1.4064e-10
6.292e-11
2.56402e-11
9.72171e-12
3.44027e-12
1.20672e-12
4.36003e-13
1.57446e-13
5.73271e-14
1.77375e-14
5.4779e-15
1.84184e-15
7.60311e-08
2.87857e-08
7.16093e-10
1.20675e-09
1.57064e-09
1.3667e-09
1.38215e-09
1.25171e-09
1.00617e-09
7.31688e-10
4.67748e-10
2.46324e-10
1.13511e-10
4.86262e-11
1.83076e-11
6.09807e-12
1.85558e-12
5.60784e-13
1.66269e-13
5.29376e-14
1.03449e-14
2.86439e-15
7.99672e-16
1.17634e-06
4.93011e-08
6.90642e-10
6.99523e-10
8.33008e-10
5.82102e-10
5.72235e-10
1.62246e-09
1.52707e-09
1.12951e-09
7.04548e-10
4.05595e-10
2.07022e-10
9.5139e-11
3.84088e-11
1.4359e-11
3.75787e-12
9.57043e-13
2.87266e-13
6.28681e-14
1.40918e-14
2.7181e-15
6.24842e-16
1.37119e-06
5.36986e-08
2.90884e-08
4.20551e-10
4.20462e-10
4.20542e-10
2.4336e-09
4.99539e-09
2.47117e-09
1.70517e-09
1.10004e-09
6.34411e-10
3.34685e-10
1.56852e-10
6.45382e-11
2.37094e-11
7.47031e-12
2.15767e-12
4.42434e-13
1.11202e-13
2.52372e-14
1.67836e-15
3.57195e-16
1.37119e-06
9.2113e-07
1.48002e-07
3.10973e-08
1.87076e-08
4.20433e-10
7.41763e-08
1.75854e-08
2.46619e-09
2.83212e-09
2.13435e-09
1.05647e-09
4.93277e-10
2.20226e-10
9.01791e-11
3.32089e-11
1.04019e-11
2.85591e-12
7.17156e-13
1.72036e-13
1.51552e-14
2.98567e-15
4.05655e-16
1.21493e-06
1.20261e-06
1.67181e-07
1.20042e-07
4.22579e-07
7.88625e-07
2.07778e-07
1.91363e-08
3.46061e-09
5.91191e-09
3.07309e-09
1.23358e-09
5.50929e-10
2.50951e-10
1.04866e-10
3.84712e-11
1.23706e-11
3.33935e-12
8.2712e-13
1.76435e-13
3.5629e-14
1.83151e-15
2.69121e-16
5.69374e-07
5.36848e-07
2.24299e-07
1.1436e-06
3.41225e-06
2.88314e-06
2.60635e-07
2.79686e-08
1.12641e-08
7.20223e-09
2.1264e-09
1.06244e-09
5.21092e-10
2.45727e-10
1.04304e-10
3.91058e-11
1.22633e-11
3.2758e-12
7.74801e-13
1.57474e-13
2.33204e-14
3.62698e-15
1.10833e-16
3.15606e-07
3.20649e-07
1.48993e-06
3.42581e-06
3.42852e-06
2.24024e-06
1.53514e-07
3.93778e-08
1.68453e-08
4.42893e-09
1.51884e-09
8.569e-10
4.41316e-10
2.04999e-10
8.39943e-11
2.96499e-11
8.941e-12
2.18395e-12
4.72438e-13
8.54907e-14
1.42611e-14
4.89589e-16
6.00277e-17
6.87223e-07
2.92942e-07
1.27164e-06
3.09125e-06
2.78242e-06
3.43986e-07
9.00337e-08
2.99104e-08
9.01127e-09
1.97773e-09
1.21167e-09
6.55436e-10
3.22531e-10
1.39509e-10
5.21984e-11
1.65761e-11
4.42838e-12
1.00269e-12
1.82024e-13
3.01664e-14
3.28317e-15
3.90091e-16
1.78501e-17
1.18684e-06
3.28327e-07
1.90478e-07
6.12053e-07
2.36844e-07
7.01162e-08
3.52265e-08
9.58721e-09
3.53201e-09
1.80497e-09
9.43406e-10
4.80353e-10
2.07663e-10
7.57954e-11
2.37789e-11
6.40986e-12
1.47316e-12
2.86884e-13
4.75077e-14
6.24668e-15
7.2991e-16
6.08532e-17
4.68639e-18
1.18684e-06
6.41679e-07
1.64475e-08
1.64602e-08
4.41138e-08
3.26782e-08
1.40337e-08
3.75266e-09
2.23991e-09
1.21843e-09
6.34673e-10
2.81375e-10
1.01293e-10
3.05497e-11
7.8493e-12
1.7308e-12
3.28732e-13
5.38449e-14
7.1093e-15
8.78668e-16
4.06605e-17
3.74038e-18
3.09971e-19
1.04824e-06
9.03055e-07
1.77426e-08
1.7663e-08
2.09844e-08
1.20711e-07
2.87252e-08
2.033e-09
1.26381e-09
7.33924e-10
3.48017e-10
1.29125e-10
3.77689e-11
9.05682e-12
1.82849e-12
3.18189e-13
4.84821e-14
6.45964e-15
7.39278e-16
6.99732e-17
5.42436e-18
3.43576e-19
1.72083e-20
6.68237e-08
4.12007e-07
6.851e-07
6.03412e-07
5.81755e-07
3.13062e-07
7.76811e-09
1.04967e-09
7.21474e-10
3.96535e-10
1.60721e-10
4.77319e-11
1.09327e-11
2.02033e-12
3.13568e-13
4.2343e-14
5.07164e-15
5.34399e-16
4.76655e-17
3.47372e-18
2.05964e-19
9.43861e-21
3.20976e-22
0.617589
0.996284
0.992828
0.985236
0.996377
0.99636
0.996377
0.992377
0.992878
0.986162
0.985995
0.992051
0.903266
0.839449
0.822265
0.826464
0.303316
0.0494747
0.0742445
0.116179
0.000122387
0.000122403
0.00012288
0.000122789
0.000318343
0.000212958
0.000411637
0.00116623
0.000339404
0.000623362
0.00110272
0.00162877
0.00139141
0.00138504
0.00576166
0.0110418
0.0111795
0.0110924
0.011166
0.011079
0.00307873
0.0056523
0.00662056
0.00135847
2.20639e-06
1.6544e-06
1.74371e-18
-2.40852e-10
1.65088e-05
2.14794e-06
4.85386e-06
4.85144e-06
2.92198e-05
2.92341e-05
1.98772e-05
6.3281e-06
-2.18245e-25
-3.5542e-10
8.6194e-10
4.13143e-10
1.22394e-07
6.07355e-08
1.85456e-08
8.57399e-09
1.08095e-09
9.09199e-10
9.1817e-10
8.62887e-10
4.17084e-09
2.18195e-09
1.26725e-09
1.09943e-09
3.60448e-09
1.91545e-09
1.11157e-09
8.95913e-10
1.07582e-09
7.36639e-10
5.56272e-10
4.02686e-10
2.82513e-10
2.33696e-10
2.02293e-10
1.73016e-10
8.56975e-11
7.18126e-11
6.95708e-11
7.3635e-11
2.55867e-11
2.58752e-11
2.74694e-11
3.17485e-11
7.85826e-12
8.02872e-12
8.88197e-12
1.06811e-11
1.86886e-12
1.99996e-12
2.57298e-12
3.2451e-12
4.42536e-13
5.22645e-13
6.12871e-13
8.42409e-13
8.06503e-14
8.8293e-14
1.41297e-13
1.90025e-13
1.49314e-14
1.79566e-14
2.11863e-14
3.59395e-14
2.34176e-15
2.41942e-15
3.80066e-15
5.41462e-15
4.27054e-16
3.94499e-16
4.10134e-16
8.07628e-16
6.04766e-17
4.16785e-17
6.17952e-17
8.47751e-17
8.15223e-18
3.44152e-18
4.01918e-18
9.70941e-18
5.80691e-18
3.96029e-19
3.70981e-19
6.6881e-19
7.16548e-17
1.48768e-18
3.80281e-20
7.43822e-20
5.82316e-17
2.21043e-18
4.44336e-20
5.97728e-21
2.55679e-17
1.53362e-18
1.3988e-20
8.69842e-22
1.31703e-17
6.82183e-19
3.37728e-20
1.36879e-22
3.12935e-18
1.24001e-19
6.22895e-22
9.81807e-24
6.00137e-19
1.22587e-20
5.78683e-23
7.62047e-25
3.80318e-20
5.90981e-22
4.41144e-25
7.05439e-26
1.24847e-21
5.94023e-24
3.62162e-27
6.835e-27
1.20912e-23
1.82249e-26
3.10952e-28
5.90674e-28
0.917595
0.76497
0.609685
0.637511
0.937286
0.999925
0.999839
0.990786
0.567155
0.200323
0.199214
0.554972
0.850298
0.617829
0.47952
0.582325
0.605231
0.826205
0.897605
0.981341
0.972139
0.979373
0.998083
0.999706
0.999738
0.999833
0.999826
0.987907
0.881378
0.820132
0.903448
0.735565
0.42523
0.377566
0.518406
0.523927
0.818996
0.890165
0.996899
0.998967
0.998973
0.998292
0.989928
0.982838
0.99283
0.998745
0.998267
0.998281
0.998239
0.997773
0.894447
0.519124
0.355681
0.263097
0.457712
0.529461
0.469081
0.848534
0.845506
0.859883
0.842551
0.794268
0.808867
0.912175
0.975309
0.951641
0.847932
0.839897
0.86991
0.789027
0.565006
0.382018
0.235201
0.464262
0.356679
0.314728
0.118701
0.111339
0.123547
0.117149
0.0990755
0.130112
0.362681
0.578424
0.646262
0.508814
0.366468
0.362234
0.37567
0.338402
0.218216
0.1983
0.411684
0.287265
0.287877
0.000119683
6.22778e-05
3.52817e-08
3.42074e-23
-3.30046e-26
-1.21145e-24
1.43037e-24
1.85066e-19
0.0852677
0.249284
0.320661
0.316763
0.223369
0.0988075
0.0694308
0.0589467
0.0034414
0.0886542
0.287348
0.00178771
0.00181787
0.00128964
0.000152319
2.17695e-11
5.97816e-25
1.61031e-09
5.58556e-24
4.79992e-23
5.13109e-13
1.53666e-21
2.37827e-11
-2.37827e-11
0.00455528
0.00903331
1.65401e-08
2.38964e-08
8.34227e-05
0.0990636
0.00504049
0.00939088
0.00633878
1.29225e-08
8.61325e-08
1.71637e-06
4.4583e-06
2.21072e-05
0.000101839
0.000205087
0.00156859
0.00673642
0.00739812
0.00615184
8.62825e-07
8.43378e-07
3.72741e-06
3.35305e-06
4.54608e-08
0.0109327
0.00987463
0.00324531
1.09003e-06
1.43639e-05
0.000162728
0.000242353
0.000337204
0.000616382
0.000997966
0.000928851
0.000343185
0.000295593
6.73892e-06
7.13433e-06
5.51577e-06
5.36008e-06
3.14597e-05
2.58445e-09
0.0062656
5.78985e-05
8.72199e-08
1.10858e-05
0.000108266
0.0004126
0.000411759
0.000271956
1.55973e-05
1.57774e-05
1.58385e-05
1.63296e-05
2.78741e-05
5.82395e-05
3.67872e-05
1.03302e-05
6.24262e-07
7.25946e-09
2.79129e-09
7.33736e-08
6.51134e-15
2.57284e-23
6.72181e-06
0.000274952
0.000398879
0.000273671
1.08387e-06
4.53437e-12
3.06325e-06
4.2425e-05
0.000101908
0.000117531
0.000136845
0.000117183
3.2909e-05
2.84259e-06
3.64451e-09
3.70279e-09
3.02514e-08
2.26893e-14
3.86413e-14
7.38081e-06
1.92884e-05
1.19665e-05
3.37752e-08
3.04387e-08
2.22038e-10
2.11348e-10
9.07854e-06
2.16923e-05
3.63633e-05
0.000130289
6.38591e-05
2.88128e-05
2.82538e-06
6.31625e-09
8.04687e-09
3.3789e-06
4.86713e-06
5.12207e-06
1.37203e-06
6.96559e-07
7.77637e-07
3.0874e-06
2.15774e-06
5.0892e-08
4.65546e-09
4.88003e-11
1.26631e-17
7.21791e-08
1.35571e-05
3.37057e-07
3.41146e-07
8.79295e-07
1.14849e-07
1.23633e-08
4.1332e-06
1.85089e-05
3.298e-05
3.30401e-05
4.17671e-05
5.55618e-05
6.40319e-05
5.97969e-05
3.44212e-05
4.33595e-06
3.12256e-18
4.0795e-16
3.81089e-07
3.67015e-07
2.88315e-06
5.16479e-07
1.61078e-07
9.31852e-08
1.49284e-08
5.4291e-10
2.20142e-06
9.09058e-06
4.06393e-05
6.88916e-05
7.57995e-05
7.57986e-05
7.57981e-05
6.82344e-05
2.93595e-05
2.45369e-08
3.12255e-18
4.04343e-06
1.53849e-05
2.17251e-05
5.40397e-06
1.42327e-07
4.17146e-08
5.42158e-09
2.01005e-09
7.11833e-10
7.27364e-10
6.25683e-10
6.28228e-10
7.78731e-06
4.79126e-05
7.57488e-05
5.56643e-05
2.87897e-05
1.62473e-06
1.24957e-08
6.63735e-06
2.17251e-05
2.17283e-05
8.05895e-06
1.50995e-07
2.49136e-08
1.44756e-10
8.77364e-10
1.08736e-09
1.26977e-09
1.08914e-09
1.01125e-09
1.01998e-08
3.74559e-08
6.32585e-06
3.44982e-06
8.86348e-07
1.19466e-06
1.16253e-07
1.35832e-06
1.90739e-05
1.54225e-05
1.97929e-06
7.78546e-08
1.05175e-08
8.14016e-11
1.0987e-09
1.47504e-09
1.80998e-09
1.76437e-09
1.21443e-09
8.54421e-10
7.66975e-09
1.58579e-08
5.71226e-09
1.12698e-08
2.0098e-07
2.72925e-07
7.31508e-07
7.92344e-07
7.1685e-08
3.80895e-08
1.89518e-08
2.06324e-09
8.25008e-11
9.0377e-10
1.21238e-09
1.7145e-09
1.84444e-09
1.54244e-09
8.56331e-10
7.20252e-10
2.02919e-10
2.02898e-10
2.19436e-08
2.50421e-07
5.05527e-07
6.86648e-08
1.35211e-08
8.76086e-09
9.81393e-09
3.27714e-09
5.6443e-10
3.17688e-11
4.766e-10
7.61284e-10
1.06042e-09
1.38471e-09
1.187e-09
8.90326e-10
4.74221e-10
2.02917e-10
2.02901e-10
4.01345e-08
4.14386e-07
4.13417e-07
5.69952e-08
1.16395e-08
2.42737e-09
7.6086e-11
5.02456e-11
1.27325e-10
1.93101e-11
2.53468e-10
4.20199e-10
5.62111e-10
6.40958e-10
6.68742e-10
6.00447e-10
3.82644e-10
2.50475e-10
2.14958e-09
3.60666e-08
1.586e-07
2.36537e-08
1.7563e-08
4.06578e-09
5.70726e-10
1.45079e-10
5.63124e-11
3.50226e-11
5.88093e-12
1.26899e-10
1.85005e-10
2.32713e-10
2.58405e-10
2.62012e-10
2.64845e-10
2.44696e-10
5.29538e-10
5.95317e-09
7.24511e-09
2.61752e-11
2.63497e-11
2.47498e-09
1.17406e-09
2.98481e-10
1.16872e-10
6.5363e-11
2.423e-11
4.09495e-12
5.60477e-11
7.82083e-11
9.39795e-11
1.02727e-10
1.12971e-10
1.11044e-10
1.45201e-10
7.28449e-10
2.70601e-09
1.39089e-10
4.54085e-11
2.68207e-11
2.64185e-11
7.17795e-11
8.71105e-11
8.01858e-11
5.70423e-11
1.97676e-11
2.37846e-12
1.9519e-11
2.89017e-11
3.5368e-11
3.98872e-11
4.68918e-11
5.03271e-11
9.00062e-11
1.55941e-10
1.69983e-10
2.46417e-10
1.14425e-10
6.94844e-11
6.65689e-11
6.12976e-11
5.87794e-11
4.94795e-11
2.86896e-11
9.81004e-12
1.74078e-12
6.41338e-12
9.57168e-12
1.33028e-11
1.56463e-11
1.76303e-11
2.26333e-11
2.44424e-11
2.15308e-11
1.3461e-11
2.18598e-11
2.71962e-11
3.00971e-11
3.26566e-11
3.37897e-11
3.25814e-11
2.94751e-11
1.61272e-11
6.74345e-12
1.18524e-12
1.74273e-12
3.20836e-12
4.48924e-12
5.84411e-12
7.03425e-12
8.66509e-12
1.04928e-11
1.1317e-11
1.24744e-11
1.36261e-11
1.36501e-11
1.43262e-11
1.49802e-11
1.12015e-11
1.04246e-11
1.2222e-11
7.43041e-12
2.26272e-12
9.43171e-13
5.02673e-13
9.09039e-13
1.41368e-12
1.9448e-12
2.67168e-12
3.22671e-12
3.98777e-12
4.75816e-12
5.39486e-12
5.81412e-12
5.93083e-12
6.15412e-12
4.38984e-12
2.42705e-12
2.41514e-12
3.72074e-12
2.57461e-12
1.34609e-12
7.73936e-13
9.10298e-14
2.03053e-13
3.5809e-13
5.60022e-13
7.88718e-13
1.12106e-12
1.4018e-12
1.59598e-12
1.69891e-12
1.76686e-12
1.76777e-12
1.24922e-12
5.80432e-13
4.20982e-13
5.34702e-13
7.63938e-13
9.39012e-13
8.12711e-13
7.12544e-13
1.86231e-14
4.0606e-14
7.6474e-14
1.32518e-13
2.12971e-13
3.03082e-13
4.04056e-13
4.86591e-13
5.03502e-13
4.12452e-13
1.54495e-13
7.06014e-14
7.17853e-14
7.53119e-14
1.3276e-13
2.45893e-13
3.89583e-13
6.97861e-13
6.06848e-13
2.69325e-15
6.44143e-15
1.30666e-14
2.43554e-14
4.18889e-14
6.64144e-14
8.86514e-14
1.01353e-13
8.2763e-14
3.37626e-14
1.10157e-14
7.39337e-15
1.27993e-14
2.67651e-14
6.69555e-14
1.53894e-13
3.17565e-13
6.503e-13
5.08498e-13
3.50438e-16
8.10314e-16
1.71204e-15
3.52355e-15
6.48366e-15
1.03943e-14
1.39342e-14
1.40211e-14
9.29158e-15
3.05605e-15
1.90699e-15
3.64916e-15
7.85222e-15
1.98554e-14
6.27608e-14
1.52181e-13
3.15113e-13
6.12297e-13
4.39037e-13
3.35272e-17
7.77559e-17
1.80036e-16
4.02891e-16
7.72103e-16
1.21064e-15
1.46548e-15
1.31341e-15
7.39969e-16
6.25855e-16
1.27336e-15
3.04435e-15
7.3109e-15
1.83282e-14
6.15584e-14
1.59938e-13
3.26826e-13
5.42325e-13
3.82655e-13
3.04712e-18
7.41593e-18
1.74401e-17
4.02779e-17
7.83203e-17
1.19051e-16
1.41136e-16
1.33755e-16
1.774e-16
3.78567e-16
9.38549e-16
2.35004e-15
6.15289e-15
1.56481e-14
4.75099e-14
1.5523e-13
3.12562e-13
4.84683e-13
2.84876e-13
2.74948e-19
7.3155e-19
1.73458e-18
3.79936e-18
7.64191e-18
1.24545e-17
1.8676e-17
3.41044e-17
8.2714e-17
2.19784e-16
5.85021e-16
1.55418e-15
4.31363e-15
1.19109e-14
2.7498e-14
9.97893e-14
2.75082e-13
3.77272e-13
1.8056e-13
2.57945e-20
7.30541e-20
2.01135e-19
4.98955e-19
1.09961e-18
2.30784e-18
4.94595e-18
1.32296e-17
3.74204e-17
1.07329e-16
3.0544e-16
8.8071e-16
2.5714e-15
7.74823e-15
1.85751e-14
5.08821e-14
1.59068e-13
2.86646e-13
1.14929e-13
2.59049e-21
8.43353e-21
2.48209e-20
7.03549e-20
1.90329e-19
5.16087e-19
1.49581e-18
4.59403e-18
1.43047e-17
4.46772e-17
1.41459e-16
4.51879e-16
1.4377e-15
4.45508e-15
1.17333e-14
2.32396e-14
6.8199e-14
1.49357e-13
6.24026e-14
2.89303e-22
9.43544e-22
3.1695e-21
1.02444e-20
3.25652e-20
1.0224e-19
3.41452e-19
1.18342e-18
4.06157e-18
1.45549e-17
5.30975e-17
1.9438e-16
7.00912e-16
2.28476e-15
6.34332e-15
1.44834e-14
2.87908e-14
6.55003e-14
3.92724e-14
2.5338e-23
1.01589e-22
3.61595e-22
1.25239e-21
4.34052e-21
1.5118e-20
5.8447e-20
2.2887e-19
8.99299e-19
3.79363e-18
1.60509e-17
7.04802e-17
2.97671e-16
1.00185e-15
2.89381e-15
6.72123e-15
1.46191e-14
2.98754e-14
1.88488e-14
2.55729e-24
9.30288e-24
2.8965e-23
8.81624e-23
2.95459e-22
1.15832e-21
5.30775e-21
2.81013e-20
1.45587e-19
7.4565e-19
3.7451e-18
2.04492e-17
9.88209e-17
3.71253e-16
1.03617e-15
2.75473e-15
6.00247e-15
8.60849e-15
1.05665e-14
2.07247e-25
6.90626e-25
2.08018e-24
6.64592e-24
2.61202e-23
1.23927e-22
6.89675e-22
4.01887e-21
2.53135e-20
1.58751e-19
9.85845e-19
6.17966e-18
3.26142e-17
1.23566e-16
3.68547e-16
8.65685e-16
1.65446e-15
3.85423e-15
4.77334e-15
1.546e-26
4.33326e-26
1.13482e-25
3.64074e-25
1.61244e-24
9.55494e-24
6.68121e-23
4.82356e-22
3.74794e-21
2.86634e-20
2.13786e-19
1.39776e-18
7.67531e-18
3.12345e-17
9.85023e-17
2.42154e-16
3.93707e-16
1.16204e-15
1.1816e-15
9.75144e-28
2.12172e-27
4.9702e-27
1.72092e-26
8.53179e-26
5.72879e-25
5.11615e-24
4.72779e-23
4.34285e-22
3.52786e-21
2.69321e-20
1.64373e-19
9.45564e-19
4.08565e-18
1.38873e-17
3.63899e-17
7.87147e-17
1.26449e-16
1.9944e-17
)
;

boundaryField
{
    leftWall
    {
        type            zeroGradient;
    }
    rightWall
    {
        type            zeroGradient;
    }
    lowerWall
    {
        type            zeroGradient;
    }
    atmosphere
    {
        type            inletOutlet;
        inletValue      uniform 0;
        value           nonuniform List<scalar> 
46
(
6.68237e-08
4.12007e-07
6.851e-07
6.03412e-07
5.81755e-07
3.13062e-07
7.76811e-09
1.04967e-09
7.21474e-10
3.96535e-10
1.60721e-10
4.77319e-11
1.09327e-11
2.02033e-12
3.13568e-13
4.2343e-14
5.07164e-15
5.34399e-16
4.76655e-17
3.47372e-18
0
0
0
0
0
0
0
0
0
0
0
0
0
0
0
0
0
0
0
0
0
0
0
0
0
0
)
;
    }
    defaultFaces
    {
        type            empty;
    }
}


// ************************************************************************* //
