/*--------------------------------*- C++ -*----------------------------------*\
| =========                 |                                                 |
| \\      /  F ield         | OpenFOAM: The Open Source CFD Toolbox           |
|  \\    /   O peration     | Version:  2312                                  |
|   \\  /    A nd           | Website:  www.openfoam.com                      |
|    \\/     M anipulation  |                                                 |
\*---------------------------------------------------------------------------*/
FoamFile
{
    version     2.0;
    format      ascii;
    arch        "LSB;label=32;scalar=64";
    class       volScalarField;
    location    "2.05";
    object      alpha.air;
}
// * * * * * * * * * * * * * * * * * * * * * * * * * * * * * * * * * * * * * //

dimensions      [0 0 0 0 0 0 0];

internalField   nonuniform List<scalar> 
2268
(
3.23953e-10
7.80476e-11
7.12413e-12
3.41727e-12
4.46797e-12
4.65105e-12
2.5273e-12
1.09789e-12
9.6365e-13
1.3969e-12
2.58008e-12
4.86642e-12
8.96969e-12
1.41149e-11
2.44349e-11
6.2542e-11
1.29832e-10
6.15786e-11
2.88051e-11
5.1535e-11
5.1553e-11
5.15713e-11
9.84792e-09
7.0187e-10
1.80756e-11
7.13042e-12
4.12357e-11
7.70318e-11
5.21652e-11
1.57806e-11
7.51146e-12
8.82607e-12
2.14014e-11
4.09279e-11
6.11417e-11
7.67729e-11
9.07809e-11
1.42949e-10
3.9664e-10
3.06092e-09
3.81226e-09
2.87954e-11
3.96367e-11
1.01772e-08
5.6532e-08
8.91098e-08
1.34933e-09
3.16224e-09
3.3257e-09
3.53447e-10
4.00491e-10
1.61066e-10
3.79755e-11
2.9442e-11
9.6815e-11
3.48058e-10
5.35904e-10
5.64771e-10
3.44063e-10
1.90168e-10
2.2861e-10
2.48453e-10
1.11373e-08
1.20214e-07
1.94193e-07
9.51652e-08
1.12363e-07
2.18158e-07
1.57895e-07
2.29348e-09
5.77963e-09
5.75226e-09
2.69149e-09
5.91204e-12
5.66286e-12
5.91204e-12
5.66286e-12
5.91204e-12
1.48449e-09
1.75179e-09
1.60693e-09
8.05357e-10
1.36308e-10
2.16986e-10
2.61625e-10
2.71325e-11
8.75688e-08
9.8348e-07
1.08896e-06
3.69228e-07
2.10645e-07
1.96396e-07
1.58395e-10
5.0311e-11
4.12516e-11
5.0311e-11
5.51206e-10
5.54469e-07
3.12529e-06
1.4703e-06
2.24272e-07
2.71449e-11
2.71071e-11
2.7139e-11
2.71069e-11
2.71387e-11
2.71068e-11
2.71329e-11
2.71066e-11
2.71329e-11
2.71068e-11
2.71387e-11
7.2863e-11
0.000107128
0.000520388
1.53413e-10
7.34337e-07
1.57294e-05
1.19796e-05
2.02739e-05
6.76786e-05
8.69346e-05
4.75068e-05
3.53797e-06
5.20341e-05
0.000145383
0.000140434
3.77056e-05
2.13074e-05
4.92497e-05
0.000181273
0.000313252
0.000524881
0.000467097
0.000197752
0.000317418
0.000495228
0.000697465
0.000666655
0.000659127
9.46221e-05
1.28532e-05
5.79178e-05
8.89847e-05
8.69828e-05
0.00016944
0.000402325
0.000713638
0.000702085
0.000615397
0.000550395
0.00054397
0.000652401
0.000744199
0.0010292
0.00127006
0.00113821
0.00083255
0.000775213
0.00065302
0.00101705
0.000698318
0.000460833
1.24352e-05
1.2429e-05
3.97445e-05
0.00029343
0.000503762
0.000890897
0.000870818
0.000708475
0.000679162
0.000679177
0.000682491
0.000685252
0.000680973
0.000688458
0.000688007
0.00100695
0.00361259
0.00385672
0.00719229
0.0133826
0.0133508
0.000198181
0.00048839
0.000975634
0.00207915
0.00305606
0.00506052
0.0128914
0.0128914
0.0128913
0.0127973
0.00905045
0.00925181
0.00767123
0.00591476
0.00591569
0.00594574
0.00614333
0.00600447
0.00603438
0.000171654
0.000172054
0.00164521
0.0104609
0.0107186
0.00865757
0.00396057
0.00283824
0.00309645
0.00845773
0.0090504
0.0109933
0.010932
0.00591404
0.00591471
0.0153364
0.0135903
0.00843252
0.00922387
0.000423926
0.000941761
0.00166688
0.00156323
0.00618256
0.00893617
0.0089353
0.006187
0.00440973
0.00858852
0.00858844
0.00906304
0.00826406
0.00591305
0.0911104
0.0872544
0.00993298
0.00418111
0.00914881
0.0108374
0.0101036
0.0100955
0.00999761
0.00763138
0.00752636
0.00480983
0.00442538
0.00441751
0.00438091
0.0351538
0.0280675
0.00829759
0.135111
0.162192
0.067002
0.000487952
0.000457018
0.00465726
0.0121196
0.00779409
0.0063167
0.0124103
0.0207573
0.0227494
0.0140025
0.00730871
0.00448744
0.00434747
0.0443025
0.0505543
0.109818
0.159378
0.0940231
0.000930237
0.000920719
0.000359673
0.000412614
0.0101667
0.00493462
0.00559643
0.011629
0.0448915
0.0482992
0.0192877
0.0138316
0.0156923
0.00435874
0.0277463
0.0702961
0.106853
0.112862
0.00176248
0.00173413
0.000352115
0.000351319
0.000364781
0.00541976
0.00972525
0.0230537
0.0514354
0.0546991
0.0411664
0.00204537
0.0198923
0.0856839
0.0924051
0.138116
0.0349101
0.00689663
0.00455824
0.00197652
0.00616769
0.0127425
0.0272792
0.00166755
0.0124624
0.0367554
0.0531099
0.0531373
0.0348324
0.00326696
0.000113791
0.0182353
0.142714
0.16553
0.164349
0.0370943
0.00109114
0.00118549
0.0036254
0.0358819
0.129228
0.0560964
0.00175796
0.00044096
0.000440843
0.00117861
0.00483613
0.00483783
0.00352634
0.00342858
0.0121209
0.0182498
0.0221303
0.0298338
0.0305982
0.0201174
0.00223247
0.00104124
0.00396293
0.00398265
0.00141528
0.00143918
0.0107812
0.0325944
0.0241776
0.010704
0.000440649
0.00452166
0.00277123
0.00465679
0.00478361
0.00493989
0.00882501
0.023392
0.0363724
0.0431167
0.0669979
0.133448
0.141625
0.128272
0.0320063
0.011005
0.023497
0.0199455
0.00152135
0.0165098
0.036851
0.0145712
0.00118567
0.0856733
0.0862275
0.0442079
0.00321872
0.0032163
0.00772662
0.00966608
0.00903399
0.00360799
0.00101051
0.00207654
0.00336781
0.110346
0.151385
0.149602
0.0237661
0.0213452
0.0209221
0.0130452
0.0325328
0.0340652
0.00150226
0.00203415
0.0498888
0.0748891
0.0459947
0.0039875
0.00332975
0.00377266
0.00590465
0.001321
0.000963666
0.000928166
0.000833904
0.000841069
0.0025139
0.0396054
0.0472501
0.017657
0.00935367
0.0161407
0.0218339
0.0630763
0.0466638
0.00359672
0.0128767
0.00468385
0.00476003
0.00518923
0.00385328
0.00352048
0.0192064
0.018492
0.0657322
0.129427
0.141006
0.138661
0.0872648
0.0106287
0.00362496
0.00362705
0.0037029
0.00364439
0.00371172
0.0172116
0.0663072
0.0663164
0.0478979
0.041442
0.102182
0.0333522
0.0234643
0.00632888
0.0143418
0.0722324
0.19669
0.555687
0.804458
0.888909
0.887282
0.861897
0.710536
0.350937
0.0619064
0.00343747
0.00358527
0.00363773
0.0110218
0.06494
0.0663072
0.0580476
0.0413124
0.61285
0.355953
0.350559
0.336092
0.4874
0.75005
0.740195
0.295936
0.159386
0.423777
0.615835
0.664758
0.560743
0.161071
0.00337801
0.00349833
0.00362123
0.0036431
0.00363677
0.0254276
0.065074
0.0576999
0.0152444
0.88651
0.997206
0.995116
0.955014
0.639753
0.0837795
0.00888242
0.0076025
0.00719677
0.00725316
0.0144864
0.0325509
0.0369129
0.0106864
0.00370412
0.00347494
0.0026021
0.00219511
0.0023773
0.00926261
0.0410116
0.0343562
0.00359143
0.999934
0.995175
0.960726
0.954588
0.883563
0.768519
0.679337
0.38004
0.150975
0.0722232
0.0154192
0.00356615
0.00290425
0.00243295
0.00210472
0.0018121
0.00169414
0.00169731
0.00276422
0.00401323
0.00486133
0.00442262
0.0038477
0.999979
0.995633
0.957103
0.955456
0.970081
0.99971
0.999997
0.999999
0.999997
0.916368
0.457445
0.189521
0.117139
0.0727022
0.0357585
0.0113838
0.00185903
0.00169398
0.00169715
0.00239722
0.006236
0.0540518
0.159008
0.999979
0.999183
0.986695
0.980422
0.995619
0.999979
0.999999
1
0.999999
0.999946
0.999915
0.99991
0.963233
0.845816
0.800517
0.78295
0.743794
0.686894
0.677137
0.800001
0.940912
0.98116
0.997881
0.999979
0.999996
0.999999
1
1
1
1
1
1
0.999997
0.999946
0.999893
0.999861
0.999821
0.999827
0.99986
0.999879
0.999879
0.999904
0.999959
0.999959
0.999945
0.9999
0.999981
0.999996
0.999998
1
1
1
0.999999
0.999999
0.999998
0.999996
0.999998
0.999999
0.999999
0.999976
0.999808
0.999672
0.999564
0.999556
0.999572
0.999641
0.999958
0.999804
0.999605
0.999998
0.999996
0.999996
0.999997
0.999998
0.999999
0.999999
0.999999
0.999994
0.999931
0.999926
0.999989
0.999999
0.999999
0.999999
0.999999
0.999949
0.999794
0.999766
0.999782
0.999941
0.999914
0.999611
1
0.999999
0.999996
0.999996
0.999997
0.999999
0.999998
0.999998
0.999954
0.999866
0.999866
0.999871
0.999981
0.999999
0.999999
0.999999
1
1
0.999903
0.999922
0.999908
0.999997
0.999999
1
1
0.999999
0.999998
0.999999
0.999998
0.999998
0.999998
0.999974
0.999871
0.999867
0.999869
0.999965
0.999999
0.999999
0.999999
1
1
1
1
1
0.999998
0.999999
1
1
1
1
1
0.999998
0.999999
0.999999
0.999998
0.999968
0.999927
0.999953
0.999993
1
1
1
1
1
1
1
1
1
1
1
1
1
1
1
1
1
1
1
1
1
1
1
1
1
1
1
1
1
1
1
1
1
1
1
0.999999
0.999999
0.999999
1
1
1
1
1
1
1
1
1
1
1
1
1
1
1
1
1
1
1
1
1
1
1
1
1
1
1
1
1
1
1
1
1
1
1
1
1
1
1
1
1
1
1
1
1
1
1
1
1
1
1
1
1
1
1
1
1
1
1
1
1
1
1
1
1
1
1
1
1
1
1
1
1
1
1
1
1
1
1
1
1
1
1
1
1
1
1
1
1
1
1
1
1
1
1
1
1
1
1
1
1
1
1
1
1
1
1
1
1
1
1
1
1
1
1
1
1
1
1
1
1
1
1
1
1
1
1
1
1
1
1
1
1
1
1
1
1
1
1
1
1
1
1
1
1
1
1
1
1
1
1
1
1
1
1
1
1
1
1
1
1
1
1
1
1
1
1
1
1
1
1
1
1
1
1
1
1
1
1
1
1
1
1
1
1
1
1
1
1
1
1
1
1
1
1
1
1
1
1
1
1
1
1
1
1
1
1
1
1
1
1
1
1
1
1
1
1
1
1
1
1
1
1
1
1
1
1
1
1
1
1
1
1
1
1
1
1
1
1
1
1
1
1
1
1
1
1
1
1
1
1
1
1
1
1
1
1
1
1
1
1
1
1
1
1
1
1
1
1
1
1
1
1
1
1
1
1
1
1
1
1
1
1
1
1
1
1
1
1
1
1
1
1
1
0.999999
1
1
1
1
1
1
1
1
1
1
1
1
1
1
1
1
1
1
1
1
1
1
0.999998
1
1
1
1
1
1
1
1
1
1
1
1
1
1
1
1
1
1
1
1
1
1
0.999999
0.999999
1
1
1
1
1
1
1
1
1
1
1
1
1
1
1
1
1
1
1
1
1
0.999999
0.999999
1
1
0.999999
0.999999
0.999999
1
0.999999
0.999999
1
1
1
1
1
1
1
1
1
1
1
1
1
0.999999
0.999999
1
0.999999
0.999996
0.999997
1
1
0.999999
0.999999
1
1
1
1
1
1
1
1
1
1
1
1
1
0.999994
0.999999
0.999998
0.999996
0.999996
0.999998
1
0.999999
0.999999
0.999999
1
1
1
1
1
1
1
1
1
1
1
1
1
0.99997
0.999972
0.999978
0.999993
0.999997
1
1
0.999999
0.999999
1
1
1
1
1
1
1
1
1
1
1
1
1
1
0.999969
0.99997
0.999975
0.999996
1
1
1
1
1
1
1
1
1
1
1
1
1
1
1
1
1
1
1
0.999969
0.999982
0.999996
1
1
1
1
1
1
1
1
1
1
1
1
1
1
1
1
1
1
1
1
0.999981
0.999984
1
1
1
0.999996
0.999999
1
1
1
1
1
1
1
1
1
1
1
1
1
1
1
1
1
0.999989
0.999979
0.999979
0.999978
0.999986
1
1
1
1
1
1
1
1
1
1
1
1
1
1
1
1
1
0.00288643
0.00114087
0.00114107
0.00117139
0.00137097
0.00140142
0.00114768
0.00114958
0.00643871
0.0119423
0.0117293
0.00624312
0.0562445
0.0562441
0.0562445
0.0502824
0.0562399
0.0562326
0.0514044
0.0177034
0.0317601
0.00283833
0.00238146
0.00236452
0.00353836
0.00368859
0.00354444
0.00287127
0.00355963
0.00310081
0.00274782
0.00273129
0.0154468
0.0500912
0.0721258
0.13652
0.654463
0.970276
0.970212
0.97078
0.996921
0.994348
0.993379
0.998642
0.999986
0.999986
0.99999
0.999997
0.999843
0.999794
0.999577
0.999605
0.999525
0.999384
0.999359
0.999361
1
1
1
1
1
1
1
1
1
1
1
1
1
1
1
1
1
1
1
1
1
1
1
1
1
1
1
1
1
1
1
1
1
1
1
1
1
1
1
1
1
1
1
1
1
1
1
1
1
1
1
1
1
1
1
1
1
1
1
1
1
1
1
1
1
1
1
1
1
1
1
1
1
1
1
1
1
1
1
1
1
1
1
1
1
1
1
1
1
1
1
1
1
1
1
1
1
1
1
1
1
1
1
1
1
1
1
1
1
1
1
1
0.0257797
0.0523737
0.0510135
0.0363392
0.00113286
2.00936e-05
0.000106607
0.00668055
0.132438
0.196782
0.196835
0.174437
0.00914275
0.0023283
0.039114
0.102132
0.169269
0.0524672
0.00142635
0.00953272
0.0190946
0.0164376
0.00189666
0.000250513
1.0932e-05
1.07408e-05
4.8053e-05
0.0093212
0.0795255
0.117293
0.0842275
0.0361425
0.0367038
0.0741929
0.126395
0.169194
0.0773553
0.00416384
0.00200812
0.000245363
0.000245299
0.00156758
0.00868835
0.0139357
0.00421079
0.000116508
0.00163578
0.00161892
0.00164594
0.00161806
0.0511634
0.152534
0.107438
0.051126
0.167652
0.0670849
0.0196264
0.00424131
0.000245256
0.000614336
0.0289149
0.0819067
0.0858797
0.0584489
0.022874
0.0475496
0.124915
0.124861
0.103031
0.142383
0.152746
0.084343
0.0510716
0.0561022
0.0246613
0.0246269
0.00120229
0.000245374
0.00171788
0.0436039
0.0848284
0.0858795
0.0858779
0.0713296
0.0667632
0.158671
0.159074
0.159035
0.159074
0.126622
0.0553518
0.0873616
0.0582332
0.0330728
0.0339926
0.00235371
0.00230364
0.00231102
0.00236976
0.00762848
0.0422452
0.0533784
0.0298827
0.00820508
0.00828419
0.0162919
0.035855
0.0412916
0.0412476
0.0703911
0.218661
0.294579
0.253085
0.301049
0.00172376
0.00132988
0.00132528
0.00629156
0.00966327
0.00582717
0.00479452
0.00472517
0.00815241
0.0236676
0.0373455
0.051283
0.0674067
0.167854
0.370583
0.625477
0.789285
0.877629
0.900587
0.0062467
0.119632
0.360743
0.522799
0.548482
0.411732
0.293042
0.316887
0.524947
0.659311
0.707297
0.735183
0.781093
0.870137
0.959761
0.996686
0.999895
0.999995
0.999997
0.479494
0.881039
0.977916
0.986521
0.991819
0.994786
0.974554
0.991036
0.994687
0.994281
0.99557
0.997861
0.998519
0.999575
0.999983
0.999983
0.999982
0.999963
0.999997
0.982859
0.997576
1
0.999989
0.999892
0.999587
0.999588
0.999728
0.999983
0.999981
0.999977
0.999976
0.999969
0.999941
0.999958
0.999954
0.999949
0.999985
0.999997
1
1
1
0.999993
0.999718
0.999588
0.999712
0.999987
0.999983
0.999968
0.999926
0.999866
0.999856
0.999854
0.999867
0.999898
0.999928
0.999969
0.999998
0.999998
1
1
0.999993
0.999979
0.99998
0.999986
0.999987
0.999985
0.999974
0.99996
0.999948
0.999939
0.999858
0.999896
0.999902
0.999933
0.999988
0.999998
0.999852
0.999958
0.999985
0.999993
0.999991
0.999984
0.999971
0.99998
0.999993
0.999999
0.999999
0.999999
0.999999
0.999966
0.999958
0.999956
0.999995
1
0.999998
0.999385
0.99973
0.999774
0.999909
0.999842
0.999691
0.999629
0.999642
0.999709
0.999838
0.999989
0.999999
0.999999
0.999953
0.999937
0.999999
1
1
0.999994
1
0.999776
0.999769
0.999902
0.999822
0.999614
0.999559
0.999559
0.999559
0.999585
0.999722
0.999974
0.999916
0.999708
0.999871
0.999994
1
1
0.999994
1
1
1
1
1
0.999992
0.999905
0.99975
0.999615
0.999586
0.999613
0.999671
0.999614
0.999624
0.9999
0.999992
1
1
0.999994
1
1
1
1
1
1
1
0.999994
0.999997
0.999845
0.999621
0.999616
0.999615
0.999887
0.999982
0.999998
1
1
0.999995
1
1
1
1
1
1
1
1
1
1
0.999965
0.999781
0.999925
0.999999
1
1
1
1
0.999995
1
1
1
1
1
1
1
1
1
1
1
0.999999
1
1
1
1
1
1
0.999995
1
1
1
1
1
1
1
1
1
1
1
1
1
1
1
1
1
1
0.999999
1
1
1
1
1
1
1
1
0.999999
0.999999
1
1
1
1
1
1
1
1
1
1
1
1
1
1
1
1
1
0.999999
0.999999
1
1
1
1
1
1
1
0.999994
1
1
1
1
1
1
1
1
1
1
1
1
1
1
1
1
1
1
0.999991
0.999995
1
1
1
1
1
1
1
1
1
1
1
1
1
1
1
1
0.999999
0.999991
0.999991
1
1
1
1
1
1
1
1
1
1
1
1
1
1
1
1
0.999999
0.999991
0.999997
1
1
1
1
1
1
1
1
1
1
1
1
1
1
1
1
1
0.999997
1
1
1
1
1
1
1
1
1
1
1
1
1
1
1
1
1
1
1
1
1
1
1
1
1
1
1
1
1
1
1
1
1
1
1
1
1
1
1
1
1
1
1
1
1
1
1
1
1
1
1
1
1
1
1
1
1
1
1
1
1
1
1
1
1
1
1
1
1
1
1
1
1
1
1
1
1
1
1
1
1
1
1
1
1
1
1
1
1
1
1
1
1
1
1
1
1
1
1
1
1
1
1
1
1
1
1
1
1
1
1
1
1
1
1
1
1
1
1
1
1
1
1
1
1
1
1
1
1
1
1
1
1
1
1
1
1
1
1
1
1
1
1
1
1
1
1
1
1
1
1
1
1
1
1
1
1
1
1
1
1
1
1
1
1
1
1
1
1
1
1
1
1
1
1
1
1
1
1
1
1
1
1
1
1
1
1
1
1
1
1
1
1
1
1
1
1
1
1
1
1
1
1
1
1
1
1
1
1
1
1
1
1
1
1
1
1
1
1
1
1
1
1
1
1
1
1
1
1
1
1
1
1
1
1
1
1
1
1
1
1
1
1
1
1
1
1
1
1
1
1
1
1
1
1
1
1
1
1
1
1
1
1
1
1
1
1
1
1
1
1
1
1
1
1
1
1
1
1
1
1
1
1
1
1
1
1
1
1
1
1
1
1
1
1
1
1
1
1
1
1
1
1
1
1
)
;

boundaryField
{
    leftWall
    {
        type            alphaContactAngle;
        thetaProperties 
6
(
(galistan air) 90 0 0 0
(oil galistan) 90 0 0 0
(water oil) 90 0 0 0
(water air) 90 0 0 0
(oil air) 90 0 0 0
(water galistan) 90 0 0 0
);
        value           nonuniform List<scalar> 
50
(
3.23953e-10
7.0187e-10
1.34933e-09
2.29348e-09
1.58395e-10
1.53413e-10
0.000666655
0.000698318
0.00044096
0.000440649
0.0856733
0.0498888
0.00468385
0.102182
0.61285
0.88651
0.999934
0.999979
0.999979
0.999979
0.999981
0.999998
1
1
1
1
1
1
1
1
1
1
1
1
1
1
1
1
1
0.999999
0.999998
0.999999
0.999999
0.999999
0.999994
0.99997
0.999969
0.999969
0.999981
1
)
;
    }
    rightWall
    {
        type            alphaContactAngle;
        thetaProperties 
6
(
(galistan air) 90 0 0 0
(oil galistan) 90 0 0 0
(water oil) 90 0 0 0
(water air) 90 0 0 0
(oil air) 90 0 0 0
(water galistan) 90 0 0 0
);
        value           nonuniform List<scalar> 
50
(
0.00603438
0.00922387
0.00914881
0.00465726
0.000412614
0.000364781
0.00166755
0.00175796
0.00142635
0.00416384
0.0196264
0.0246269
0.0339926
0.301049
0.900587
0.999997
0.999997
0.999997
0.999998
0.999998
0.999998
0.999994
0.999994
0.999994
0.999995
0.999995
0.999995
0.999999
1
1
0.999995
0.999991
0.999997
1
1
1
1
1
1
1
1
1
1
1
1
1
1
1
1
1
)
;
    }
    lowerWall
    {
        type            alphaContactAngle;
        thetaProperties 
6
(
(galistan air) 90 0 0 0
(oil galistan) 90 0 0 0
(water oil) 90 0 0 0
(water air) 90 0 0 0
(oil air) 90 0 0 0
(water galistan) 90 0 0 0
);
        value           nonuniform List<scalar> 
62
(
3.23953e-10
7.80476e-11
7.12413e-12
3.41727e-12
4.46797e-12
4.65105e-12
2.5273e-12
1.09789e-12
9.6365e-13
1.3969e-12
2.58008e-12
4.86642e-12
8.96969e-12
1.41149e-11
2.44349e-11
6.2542e-11
1.29832e-10
6.15786e-11
2.88051e-11
5.1535e-11
5.1553e-11
5.15713e-11
9.84792e-09
9.84792e-09
8.91098e-08
1.57895e-07
1.96396e-07
0.000520388
0.000697465
0.00101705
0.0133508
0.00288643
0.00114087
0.00114107
0.00117139
0.000198181
0.000171654
0.000423926
0.0108374
0.0121196
0.0101667
0.00541976
0.0124624
0.000198181
0.00048839
0.000975634
0.00207915
0.00305606
0.00506052
0.0128914
0.0128914
0.0128913
0.0127973
0.00905045
0.00925181
0.00767123
0.00591476
0.00591569
0.00594574
0.00614333
0.00600447
0.00603438
)
;
    }
    atmosphere
    {
        type            inletOutlet;
        inletValue      uniform 1;
        value           nonuniform List<scalar> 
46
(
1
0.99999
0.999979
0.999979
0.999978
0.999986
1
1
1
1
1
1
1
1
1
1
1
1
1
1
1
1
1
1
1
1
1
1
1
1
1
1
1
1
1
1
1
1
1
1
1
1
1
1
1
1
)
;
    }
    defaultFaces
    {
        type            empty;
    }
}


// ************************************************************************* //
