/*--------------------------------*- C++ -*----------------------------------*\
| =========                 |                                                 |
| \\      /  F ield         | OpenFOAM: The Open Source CFD Toolbox           |
|  \\    /   O peration     | Version:  2312                                  |
|   \\  /    A nd           | Website:  www.openfoam.com                      |
|    \\/     M anipulation  |                                                 |
\*---------------------------------------------------------------------------*/
FoamFile
{
    version     2.0;
    format      ascii;
    arch        "LSB;label=32;scalar=64";
    class       volVectorField;
    location    "2.05";
    object      U;
}
// * * * * * * * * * * * * * * * * * * * * * * * * * * * * * * * * * * * * * //

dimensions      [0 1 -1 0 0 0 0];

internalField   nonuniform List<vector> 
2268
(
(0.0116684 -0.00485348 0)
(0.00194769 0.00382996 0)
(-0.0185991 0.00496982 0)
(-0.0321509 0.00370473 0)
(-0.0411247 0.00195127 0)
(-0.0448721 0.000609215 0)
(-0.0452284 -0.000213361 0)
(-0.0435837 -0.000543214 0)
(-0.0412727 -0.000600501 0)
(-0.0385632 -0.000657609 0)
(-0.0352596 -0.000856464 0)
(-0.0309873 -0.00122421 0)
(-0.0253402 -0.00162797 0)
(-0.018202 -0.00194165 0)
(-0.0100638 -0.00208111 0)
(-0.00200482 -0.00193133 0)
(0.00527623 -0.00161007 0)
(0.0104936 -0.00115295 0)
(0.0137241 -0.000632992 0)
(0.0148021 -0.00021375 0)
(0.0140314 0.000289847 0)
(0.00972573 0.000939317 0)
(0.00228854 0.00110169 0)
(-0.00585031 -0.00219564 0)
(-0.0121411 0.0108348 0)
(-0.0307682 0.0111414 0)
(-0.0408742 0.00773244 0)
(-0.0478481 0.00398284 0)
(-0.0502147 0.0010034 0)
(-0.0496859 -0.00073692 0)
(-0.0475034 -0.00132026 0)
(-0.0449215 -0.00150697 0)
(-0.0420425 -0.00179816 0)
(-0.0385362 -0.00240086 0)
(-0.0340288 -0.00335438 0)
(-0.0281603 -0.0044364 0)
(-0.0208229 -0.00536537 0)
(-0.0124603 -0.00580843 0)
(-0.0042524 -0.00547172 0)
(0.00334287 -0.00441846 0)
(0.00878214 -0.00302698 0)
(0.0120713 -0.00178543 0)
(0.0131772 -8.98347e-05 0)
(0.0124823 0.0021429 0)
(0.00826718 0.00507243 0)
(-2.31974e-05 0.00485468 0)
(-0.0160513 0.00386929 0)
(-0.0259027 0.0175756 0)
(-0.0438249 0.0176179 0)
(-0.052443 0.0116685 0)
(-0.0574605 0.00566384 0)
(-0.058022 0.00104751 0)
(-0.0558633 -0.00187939 0)
(-0.0523951 -0.00283167 0)
(-0.0489345 -0.00299834 0)
(-0.0454061 -0.00338196 0)
(-0.0414008 -0.00429304 0)
(-0.0365088 -0.0057256 0)
(-0.0303479 -0.00736618 0)
(-0.0226834 -0.0088868 0)
(-0.0138887 -0.00961702 0)
(-0.00515484 -0.00917061 0)
(0.00302835 -0.00738816 0)
(0.0088943 -0.00511343 0)
(0.0129148 -0.00269696 0)
(0.0151408 -0.000553238 0)
(0.0154947 0.00236314 0)
(0.0115436 0.0066631 0)
(0.00363044 0.00440988 0)
(-0.023658 0.0168431 0)
(-0.0391952 0.0256245 0)
(-0.0571782 0.0233363 0)
(-0.0646485 0.0146309 0)
(-0.067129 0.00625147 0)
(-0.0653367 -0.000781503 0)
(-0.0609123 -0.00414381 0)
(-0.0554548 -0.00476728 0)
(-0.0508025 -0.00478132 0)
(-0.0467503 -0.00525953 0)
(-0.0425296 -0.00615094 0)
(-0.0375339 -0.00781926 0)
(-0.031317 -0.0102482 0)
(-0.0232838 -0.0127237 0)
(-0.0136153 -0.0140214 0)
(-0.00337218 -0.013503 0)
(0.00625178 -0.0108647 0)
(0.0137247 -0.0081949 0)
(0.0188856 -0.00563812 0)
(0.0216539 -0.00176586 0)
(0.0223743 0.00430859 0)
(0.0173154 0.0124513 0)
(0.00988451 0.0130553 0)
(-0.0262095 0.0325097 0)
(-0.0461342 0.0357985 0)
(-0.0662925 0.0296427 0)
(-0.0742579 0.0171324 0)
(-0.0754506 0.00672023 0)
(-0.0708608 -0.00177685 0)
(-0.063178 -0.00667767 0)
(-0.0560696 -0.00722348 0)
(-0.0514316 -0.00603324 0)
(-0.0480328 -0.00529069 0)
(-0.0445546 -0.00667692 0)
(-0.0408001 -0.0103917 0)
(-0.0357185 -0.0152359 0)
(-0.0278297 -0.019576 0)
(-0.0171524 -0.0214547 0)
(-0.00472002 -0.020249 0)
(0.00700441 -0.0158551 0)
(0.0166393 -0.0100923 0)
(0.0245651 -0.00568721 0)
(0.0285035 -0.00282812 0)
(0.0288738 0.00311072 0)
(0.0224037 0.0112337 0)
(0.0146279 0.0165956 0)
(-0.0229904 0.0476452 0)
(-0.0482293 0.0470481 0)
(-0.0742776 0.0364377 0)
(-0.0845323 0.0186883 0)
(-0.0853302 0.00313024 0)
(-0.0787963 -0.00896056 0)
(-0.0690512 -0.0130625 0)
(-0.061229 -0.010553 0)
(-0.0595342 -0.0101896 0)
(-0.0595354 -0.0135036 0)
(-0.0588496 -0.0166853 0)
(-0.0566107 -0.0186835 0)
(-0.0536314 -0.0212707 0)
(-0.0474419 -0.0254575 0)
(-0.037768 -0.027755 0)
(-0.026578 -0.0269846 0)
(-0.0159167 -0.023538 0)
(-0.00805991 -0.0180601 0)
(-0.00298216 -0.0103718 0)
(-0.00316102 -0.00245811 0)
(-0.000249321 0.00856814 0)
(0.0166061 0.0214256 0)
(0.019788 0.0224143 0)
(-0.0272279 0.0649594 0)
(-0.0601449 0.0619608 0)
(-0.0918767 0.0462856 0)
(-0.108081 0.0247804 0)
(-0.112784 0.00668724 0)
(-0.107419 -0.00797517 0)
(-0.0965576 -0.0144874 0)
(-0.0827474 -0.0135748 0)
(-0.0711872 -0.00786292 0)
(-0.0755721 -0.000946211 0)
(-0.114343 0.00590937 0)
(-0.160701 0.00127895 0)
(-0.186124 -0.00794 0)
(-0.204824 -0.0176342 0)
(-0.22869 -0.0227838 0)
(-0.264013 -0.0216727 0)
(-0.305124 -0.0165493 0)
(-0.331507 -0.0127196 0)
(-0.326017 -0.0107325 0)
(-0.287114 -0.00772755 0)
(-0.213304 -0.00896313 0)
(-0.10891 -0.00390624 0)
(-0.0225613 0.0693753 0)
(-0.0401247 0.0864494 0)
(-0.0715925 0.077571 0)
(-0.0995263 0.0558562 0)
(-0.110278 0.0276996 0)
(-0.108253 0.00166038 0)
(-0.103339 -0.0174858 0)
(-0.116324 -0.0175577 0)
(-0.156248 -0.0104353 0)
(-0.181377 -0.00330516 0)
(-0.189778 0.00788052 0)
(-0.190086 0.0148296 0)
(-0.195815 0.00611601 0)
(-0.212867 -0.00368555 0)
(-0.240329 -0.00758475 0)
(-0.273858 -0.00484799 0)
(-0.305887 0.000813709 0)
(-0.328354 -0.000576857 0)
(-0.339611 -0.0135332 0)
(-0.336404 -0.0293724 0)
(-0.314137 -0.0440967 0)
(-0.27018 -0.0636912 0)
(-0.221648 -0.0735273 0)
(-0.262908 -0.0749582 0)
(-0.0618938 0.0185263 0)
(-0.054765 -0.00322638 0)
(-0.0477649 -0.00794351 0)
(-0.0373723 -0.000875739 0)
(-0.0443303 0.00361522 0)
(-0.0435335 0.00216198 0)
(-0.0389469 0.00217277 0)
(-0.042581 0.00261174 0)
(-0.0618381 -0.000725305 0)
(-0.0765443 -0.00651489 0)
(-0.0688489 -0.00705136 0)
(-0.0619468 -0.00110146 0)
(-0.0732991 0.000285805 0)
(-0.091506 0.00022853 0)
(-0.100221 -0.000793529 0)
(-0.0945573 -0.00299351 0)
(-0.0781409 -0.00491508 0)
(-0.0510722 -0.00718977 0)
(-0.0216409 -0.00820362 0)
(-0.00638316 0.023346 0)
(0.0663944 -0.00373218 0)
(0.0645359 0.00150767 0)
(0.067107 0.000355399 0)
(0.0605557 -7.39041e-05 0)
(0.0812627 -0.00535328 0)
(0.0824744 -0.00225023 0)
(0.075212 0.0033133 0)
(0.0516642 0.017441 0)
(0.0348689 0.0106163 0)
(0.00720368 -0.000799671 0)
(-0.0162533 0.00123141 0)
(-0.0128211 0.0119149 0)
(-0.043987 0.0124461 0)
(-0.0722895 0.00343379 0)
(-0.0823433 -0.00677916 0)
(-0.0750161 -0.0159373 0)
(-0.041642 -0.0238467 0)
(-0.00546526 -0.0248751 0)
(0.0394638 0.000147014 0)
(0.104504 -0.025972 0)
(0.137615 -0.0134517 0)
(0.16534 0.00419073 0)
(0.162118 3.01435e-05 0)
(0.181574 -0.00840857 0)
(0.211508 0.00724203 0)
(0.213503 0.0156116 0)
(0.183721 0.0235996 0)
(0.155657 0.0129901 0)
(0.130199 0.0107362 0)
(0.12174 0.00288242 0)
(0.120281 0.0132701 0)
(0.0639551 0.0305628 0)
(-0.0143789 0.0186893 0)
(-0.0517237 -0.00208717 0)
(-0.0746985 -0.0153198 0)
(0.0201875 -0.0274774 0)
(0.0614093 -0.0229933 0)
(0.0328362 -0.0440597 0)
(0.0748262 -0.0405673 0)
(0.0840345 -0.0280833 0)
(0.128529 0.00190294 0)
(0.149219 -0.00712286 0)
(0.166402 -0.0260572 0)
(0.2253 -0.0195296 0)
(0.301545 0.00861906 0)
(0.328073 0.0466148 0)
(0.279908 0.0396769 0)
(0.21927 0.0212641 0)
(0.197533 -0.0049771 0)
(0.164674 0.0337388 0)
(0.0582285 0.0726439 0)
(-0.0664788 0.0517614 0)
(-0.162317 0.0328078 0)
(-0.185296 -0.0355737 0)
(0.0364353 -0.115449 0)
(0.179984 0.0270962 0)
(-0.0238061 -0.0596556 0)
(0.00797043 -0.0480971 0)
(0.0235792 -0.0473952 0)
(0.0693351 -0.0203287 0)
(0.0993787 -0.0215842 0)
(0.103374 -0.0424171 0)
(0.14502 -0.0545074 0)
(0.226916 -0.0302326 0)
(0.319883 0.0292625 0)
(0.341517 0.063743 0)
(0.265883 0.048476 0)
(0.1728 0.020415 0)
(0.0502712 0.0738185 0)
(-0.0641904 0.128132 0)
(-0.239136 0.116224 0)
(-0.263524 0.0409095 0)
(-0.173048 -0.0991638 0)
(0.0205445 -0.215819 0)
(0.16105 0.0792023 0)
(-0.0120339 -0.0278598 0)
(0.0488727 -0.0514612 0)
(0.0434139 -0.0511165 0)
(0.0510343 -0.036547 0)
(0.0519772 -0.0214301 0)
(0.013078 -0.0411396 0)
(0.0141628 -0.0813561 0)
(0.0777272 -0.0669549 0)
(0.170726 -0.00868292 0)
(0.222571 0.0615113 0)
(0.135118 0.100624 0)
(-0.0863041 0.0749787 0)
(-0.168141 0.130141 0)
(-0.263568 0.183764 0)
(-0.287218 0.128425 0)
(-0.262003 0.0215249 0)
(-0.121563 -0.165058 0)
(0.00687471 -0.279611 0)
(0.136936 0.113492 0)
(0.0250917 -0.0943759 0)
(0.0335047 -0.0727961 0)
(-0.00681378 -0.0476555 0)
(-0.0530752 -0.0194959 0)
(-0.0801684 0.00916359 0)
(-0.0801999 -0.0296384 0)
(-0.0615799 -0.0897825 0)
(-0.0337371 -0.085482 0)
(-0.0320037 -0.0296064 0)
(0.0396445 0.093403 0)
(-0.136132 0.181944 0)
(-0.317928 0.13855 0)
(-0.342688 0.14779 0)
(-0.328464 0.174579 0)
(-0.295629 0.122715 0)
(-0.238088 -0.0137333 0)
(-0.0730359 -0.227867 0)
(-0.017003 -0.325021 0)
(0.112618 0.145397 0)
(-0.10822 -0.0243095 0)
(-0.199899 -0.0136316 0)
(-0.255203 -0.0163151 0)
(-0.263088 -0.0080164 0)
(-0.238408 -0.0127721 0)
(-0.202726 -0.054463 0)
(-0.191897 -0.0962542 0)
(-0.193108 -0.0931706 0)
(-0.209046 -0.0308848 0)
(-0.237055 0.132869 0)
(-0.336262 0.233387 0)
(-0.39863 0.167317 0)
(-0.374298 0.138623 0)
(-0.337105 0.149472 0)
(-0.293016 0.104223 0)
(-0.196846 -0.0675575 0)
(-0.0328367 -0.280603 0)
(-0.0460658 -0.357437 0)
(0.0897093 0.164301 0)
(-0.0674263 0.135061 0)
(-0.106618 0.0999301 0)
(-0.127848 0.0680662 0)
(-0.131175 0.0316374 0)
(-0.133655 0.000634344 0)
(-0.140349 -0.00982291 0)
(-0.140813 0.00456649 0)
(-0.128789 0.010155 0)
(-0.117901 -0.000555496 0)
(-0.1128 0.0022259 0)
(-0.120188 0.0116278 0)
(-0.140081 0.0172766 0)
(-0.166294 0.0162387 0)
(-0.19209 0.0159049 0)
(-0.216368 0.0158481 0)
(-0.240343 0.0146459 0)
(-0.266244 0.00898904 0)
(-0.295063 -0.00177503 0)
(-0.323898 -0.0212072 0)
(-0.344416 -0.044585 0)
(-0.361316 -0.0628171 0)
(-0.393336 -0.057229 0)
(-0.450359 -0.049698 0)
(-0.0477346 0.228448 0)
(-0.0693975 0.125217 0)
(-0.0733411 0.0659648 0)
(-0.0650233 0.0218178 0)
(-0.0583618 0.00630769 0)
(-0.0485107 -0.00680013 0)
(-0.0437682 -0.018651 0)
(-0.0134257 -0.0262424 0)
(-0.00378299 -0.0156098 0)
(0.00163414 0.0113665 0)
(-0.00635129 0.0400379 0)
(-0.0279738 0.0539585 0)
(-0.0580199 0.0398188 0)
(-0.106742 0.0322101 0)
(-0.152479 0.0333821 0)
(-0.193507 0.04086 0)
(-0.233366 0.0453026 0)
(-0.277811 0.0394861 0)
(-0.327483 0.0247406 0)
(-0.384419 0.00589082 0)
(-0.455072 -0.00511743 0)
(-0.52572 -0.00542267 0)
(-0.555762 -0.0282985 0)
(0.0414874 0.258689 0)
(0.0641057 0.152276 0)
(0.0642182 0.0793885 0)
(0.063795 0.0215303 0)
(0.0540823 -0.010735 0)
(0.0577001 -0.0232133 0)
(0.0765879 -0.0389324 0)
(0.0992748 -0.0404653 0)
(0.120925 -0.0265961 0)
(0.129757 0.000465949 0)
(0.120236 0.0404157 0)
(0.095036 0.0775489 0)
(0.0338774 0.113377 0)
(-0.0570618 0.123351 0)
(-0.151155 0.108556 0)
(-0.211269 0.0922064 0)
(-0.267823 0.094571 0)
(-0.321514 0.0934773 0)
(-0.382725 0.0871642 0)
(-0.449493 0.0761831 0)
(-0.508691 0.0621586 0)
(-0.538521 0.0333952 0)
(-0.540511 -0.00846708 0)
(0.112513 0.130101 0)
(0.154123 0.129041 0)
(0.151777 0.0820059 0)
(0.136603 0.0342963 0)
(0.119607 0.0020125 0)
(0.128685 -0.0305867 0)
(0.155525 -0.0618052 0)
(0.180396 -0.0691168 0)
(0.189105 -0.0364047 0)
(0.188542 0.0273117 0)
(0.174908 0.0955092 0)
(0.136469 0.150233 0)
(0.079181 0.192389 0)
(0.0166653 0.210785 0)
(-0.056423 0.197444 0)
(-0.13082 0.170242 0)
(-0.216396 0.166653 0)
(-0.296005 0.163988 0)
(-0.371463 0.153277 0)
(-0.439122 0.131693 0)
(-0.490347 0.0920067 0)
(-0.510845 0.0298507 0)
(-0.503664 -0.0356923 0)
(0.00624023 -0.0484044 0)
(0.125808 0.100969 0)
(0.110294 0.0828472 0)
(0.12447 0.0418298 0)
(0.153258 -0.00527392 0)
(0.188826 -0.033244 0)
(0.225673 -0.0671174 0)
(0.254303 -0.0822975 0)
(0.271499 -0.0665096 0)
(0.269447 -0.0239565 0)
(0.214761 0.0469977 0)
(0.134459 0.133649 0)
(0.0512598 0.198557 0)
(-0.0201575 0.234911 0)
(-0.0803642 0.241338 0)
(-0.145092 0.237977 0)
(-0.218899 0.242117 0)
(-0.281604 0.237201 0)
(-0.331729 0.221365 0)
(-0.377808 0.189737 0)
(-0.421127 0.126654 0)
(-0.445152 0.0393383 0)
(-0.449209 -0.0368691 0)
(-0.089017 -0.0543242 0)
(0.0676403 0.0888081 0)
(0.0602536 0.0700201 0)
(0.120847 0.00876073 0)
(0.16114 -0.0963227 0)
(0.170978 -0.166521 0)
(0.158622 -0.184013 0)
(0.0545185 -0.11673 0)
(-0.0791518 0.0032531 0)
(-0.132227 0.15099 0)
(-0.158113 0.264244 0)
(-0.187613 0.334282 0)
(-0.198578 0.348575 0)
(-0.215164 0.317431 0)
(-0.242805 0.30228 0)
(-0.273855 0.300121 0)
(-0.306023 0.296657 0)
(-0.331715 0.279852 0)
(-0.346742 0.254154 0)
(-0.352121 0.219737 0)
(-0.355791 0.156228 0)
(-0.365272 0.0615565 0)
(-0.378922 -0.0313479 0)
(-0.0849053 -0.00471567 0)
(0.00701944 -0.0381647 0)
(0.0723684 -0.0339048 0)
(-0.0630537 -0.0276417 0)
(-0.434073 0.0409718 0)
(-1.01557 0.172764 0)
(-1.24085 0.161293 0)
(-1.28496 0.0766013 0)
(-1.25085 0.0379407 0)
(-1.16124 0.0552048 0)
(-1.0074 0.125139 0)
(-0.853378 0.210448 0)
(-0.706594 0.2719 0)
(-0.584789 0.286359 0)
(-0.515829 0.296918 0)
(-0.473369 0.306653 0)
(-0.448558 0.303552 0)
(-0.429277 0.282635 0)
(-0.409693 0.249932 0)
(-0.386826 0.20815 0)
(-0.364803 0.148414 0)
(-0.35307 0.070353 0)
(-0.354552 -0.00569909 0)
(-0.101147 0.0227942 0)
(-0.731845 0.0955678 0)
(-1.68223 0.256042 0)
(-1.39776 0.518206 0)
(-1.57888 0.395047 0)
(-1.57697 0.160516 0)
(-1.52485 0.024156 0)
(-1.46819 -0.0609929 0)
(-1.40733 -0.092988 0)
(-1.33896 -0.0728868 0)
(-1.24774 -0.0287561 0)
(-1.12655 0.0368409 0)
(-0.991695 0.109247 0)
(-0.864972 0.166975 0)
(-0.761678 0.212576 0)
(-0.67545 0.245389 0)
(-0.604827 0.256364 0)
(-0.547309 0.243921 0)
(-0.497878 0.214357 0)
(-0.45318 0.172538 0)
(-0.414529 0.118954 0)
(-0.388166 0.0551061 0)
(-0.376032 -0.0055538 0)
(-1.17466 1.22503 0)
(-1.6219 0.798848 0)
(-1.69683 0.466567 0)
(-1.65945 0.46717 0)
(-1.61872 0.418801 0)
(-1.5906 0.249545 0)
(-1.54825 0.0716905 0)
(-1.49376 -0.0694456 0)
(-1.45134 -0.120137 0)
(-1.41152 -0.124246 0)
(-1.3553 -0.110864 0)
(-1.27907 -0.0756627 0)
(-1.1863 -0.0196443 0)
(-1.07675 0.0395511 0)
(-0.958856 0.0964489 0)
(-0.846521 0.143607 0)
(-0.748422 0.170644 0)
(-0.666674 0.173008 0)
(-0.598073 0.15416 0)
(-0.538518 0.120563 0)
(-0.487729 0.077807 0)
(-0.450011 0.0287706 0)
(-0.425815 -0.0243299 0)
(-0.552718 2.24772 0)
(-1.43672 0.939868 0)
(-1.6095 0.410981 0)
(-1.59895 0.322574 0)
(-1.56668 0.257205 0)
(-1.53832 0.160615 0)
(-1.54445 0.0535632 0)
(-1.67142 -0.0197036 0)
(-1.53798 -0.115965 0)
(-1.41327 -0.136482 0)
(-1.33712 -0.141268 0)
(-1.28022 -0.121495 0)
(-1.22444 -0.0883906 0)
(-1.15623 -0.0579492 0)
(-1.0688 -0.0208467 0)
(-0.969076 0.0299639 0)
(-0.870386 0.0732521 0)
(-0.783485 0.0919609 0)
(-0.707149 0.0853411 0)
(-0.63853 0.0617696 0)
(-0.578332 0.0290979 0)
(-0.528641 -0.0106415 0)
(-0.490996 -0.0445733 0)
(0.0258639 2.9341 0)
(-0.58234 1.83117 0)
(-1.37435 0.55815 0)
(-1.47245 0.37319 0)
(-1.48866 0.280312 0)
(-1.52582 0.20807 0)
(-1.65625 0.0171857 0)
(-1.63833 -0.383876 0)
(-1.53726 -0.503925 0)
(-1.496 -0.198275 0)
(-1.46152 -0.290049 0)
(-1.32151 -0.190138 0)
(-1.21962 -0.119547 0)
(-1.12523 -0.105984 0)
(-1.05738 -0.0883364 0)
(-0.982966 -0.0549741 0)
(-0.912006 -0.0205148 0)
(-0.842327 0.00224562 0)
(-0.772965 0.00217608 0)
(-0.701689 -0.0132006 0)
(-0.610409 -0.0375574 0)
(-0.513333 -0.0630352 0)
(-0.301902 -0.0902868 0)
(0.228977 2.90846 0)
(0.406302 2.42636 0)
(0.106882 1.40875 0)
(-0.167967 0.651546 0)
(-0.454101 0.368245 0)
(-0.606691 0.296925 0)
(-0.691793 0.208414 0)
(-0.840116 0.0852364 0)
(-1.21018 -0.0451687 0)
(-1.37191 -0.25462 0)
(-1.34335 -0.458649 0)
(-1.29467 -0.503599 0)
(-1.2316 -0.273288 0)
(-1.17818 -0.259946 0)
(-1.13831 -0.209844 0)
(-1.06332 -0.138196 0)
(-0.972964 -0.0833101 0)
(-0.886375 -0.0280727 0)
(-0.818573 -0.0346387 0)
(-0.775765 -0.0629213 0)
(-0.747949 -0.133354 0)
(-0.725779 -0.42358 0)
(-0.767343 -0.468158 0)
(0.222461 2.4281 0)
(0.678632 2.19956 0)
(0.662973 1.60702 0)
(0.569065 0.999494 0)
(0.39349 0.635542 0)
(0.234272 0.455602 0)
(0.0999251 0.304247 0)
(-0.0148751 0.165059 0)
(-0.128755 0.0233025 0)
(-0.282457 -0.0879435 0)
(-0.515134 -0.184182 0)
(-0.735907 -0.206756 0)
(-0.840216 -0.220852 0)
(-0.83354 -0.251722 0)
(-0.806676 -0.240797 0)
(-0.776336 -0.206073 0)
(-0.73704 -0.179046 0)
(-0.671079 -0.170118 0)
(-0.599792 -0.161152 0)
(-0.521286 -0.157046 0)
(-0.458683 -0.141063 0)
(-0.469492 -0.178228 0)
(-0.520673 -0.214639 0)
(0.201013 1.91104 0)
(0.611519 1.82866 0)
(0.803026 1.44585 0)
(0.84415 1.0518 0)
(0.769818 0.780887 0)
(0.665116 0.569833 0)
(0.559042 0.40983 0)
(0.4628 0.278558 0)
(0.371715 0.167427 0)
(0.28312 0.0676097 0)
(0.176597 -0.025636 0)
(0.0463241 -0.103806 0)
(-0.0888148 -0.148767 0)
(-0.222481 -0.195522 0)
(-0.311036 -0.225169 0)
(-0.35413 -0.221743 0)
(-0.364242 -0.204397 0)
(-0.348439 -0.185365 0)
(-0.31182 -0.174657 0)
(-0.272883 -0.167448 0)
(-0.250237 -0.164335 0)
(-0.248722 -0.208493 0)
(-0.251675 -0.237207 0)
(0.172308 1.50811 0)
(0.504163 1.48486 0)
(0.741842 1.30353 0)
(0.844179 1.04684 0)
(0.851667 0.817353 0)
(0.812806 0.633426 0)
(0.750723 0.483988 0)
(0.682812 0.355236 0)
(0.610958 0.24277 0)
(0.536388 0.142622 0)
(0.459394 0.0616332 0)
(0.383164 0.00291992 0)
(0.30178 -0.039131 0)
(0.222664 -0.0759258 0)
(0.140577 -0.110803 0)
(0.0603148 -0.142935 0)
(-0.00201568 -0.170316 0)
(-0.0522528 -0.193723 0)
(-0.0639106 -0.202714 0)
(-0.0717888 -0.202074 0)
(-0.0647187 -0.199931 0)
(-0.0581208 -0.209318 0)
(-0.0523535 -0.246934 0)
(0.135663 1.20442 0)
(0.38402 1.20783 0)
(0.596747 1.11681 0)
(0.725716 0.9653 0)
(0.779937 0.804886 0)
(0.786579 0.656049 0)
(0.765594 0.524919 0)
(0.730429 0.405684 0)
(0.685224 0.297388 0)
(0.634956 0.204702 0)
(0.580777 0.128498 0)
(0.525185 0.069567 0)
(0.468961 0.0254326 0)
(0.412927 -0.0123811 0)
(0.355738 -0.0467344 0)
(0.298927 -0.0789073 0)
(0.24529 -0.108189 0)
(0.196523 -0.135714 0)
(0.152136 -0.166749 0)
(0.118208 -0.185099 0)
(0.0991069 -0.196293 0)
(0.0925341 -0.205205 0)
(0.0885162 -0.223831 0)
(0.0979817 0.980538 0)
(0.280422 1.00153 0)
(0.44557 0.959692 0)
(0.567409 0.871678 0)
(0.639994 0.76132 0)
(0.674456 0.645899 0)
(0.683778 0.534933 0)
(0.677298 0.428678 0)
(0.65933 0.328874 0)
(0.632808 0.240842 0)
(0.600093 0.16889 0)
(0.562929 0.112785 0)
(0.523296 0.0708197 0)
(0.483365 0.035083 0)
(0.444166 0.00164975 0)
(0.404682 -0.0322131 0)
(0.36514 -0.0654134 0)
(0.326901 -0.0962093 0)
(0.291029 -0.123368 0)
(0.259028 -0.146809 0)
(0.23268 -0.169191 0)
(0.212729 -0.190714 0)
(0.196205 -0.210667 0)
(0.0639976 0.821773 0)
(0.195762 0.851259 0)
(0.316166 0.833078 0)
(0.417929 0.780839 0)
(0.490527 0.704447 0)
(0.537026 0.614875 0)
(0.56427 0.521475 0)
(0.577348 0.428169 0)
(0.578986 0.339423 0)
(0.571101 0.260311 0)
(0.555588 0.194628 0)
(0.534412 0.143149 0)
(0.509753 0.102347 0)
(0.483514 0.0668321 0)
(0.456904 0.0331958 0)
(0.430737 -0.000360456 0)
(0.403999 -0.0338539 0)
(0.376406 -0.0656424 0)
(0.349391 -0.0950892 0)
(0.324224 -0.122405 0)
(0.3013 -0.147987 0)
(0.280334 -0.17144 0)
(0.25968 -0.192093 0)
(0.0372498 0.716093 0)
(0.129748 0.745154 0)
(0.214105 0.736342 0)
(0.294704 0.702265 0)
(0.359296 0.646396 0)
(0.407749 0.574889 0)
(0.442592 0.495341 0)
(0.465917 0.413443 0)
(0.47894 0.33496 0)
(0.482836 0.264886 0)
(0.47934 0.206248 0)
(0.470477 0.158918 0)
(0.458281 0.120111 0)
(0.444243 0.0858638 0)
(0.429106 0.0529472 0)
(0.413133 0.0201134 0)
(0.396449 -0.0124084 0)
(0.378476 -0.0437213 0)
(0.359848 -0.0732147 0)
(0.341227 -0.101019 0)
(0.322672 -0.127181 0)
(0.304056 -0.151119 0)
(0.284173 -0.172115 0)
(0.0187562 0.650453 0)
(0.0813942 0.673017 0)
(0.137987 0.664913 0)
(0.20011 0.638187 0)
(0.254337 0.593334 0)
(0.29986 0.533476 0)
(0.33614 0.464349 0)
(0.363343 0.392066 0)
(0.381799 0.322572 0)
(0.392268 0.260311 0)
(0.396425 0.207526 0)
(0.396199 0.16397 0)
(0.393285 0.127381 0)
(0.388695 0.0945792 0)
(0.382698 0.0628938 0)
(0.375178 0.0312645 0)
(0.366065 0.000117323 0)
(0.355568 -0.0300172 0)
(0.343542 -0.0587155 0)
(0.330415 -0.0858264 0)
(0.316181 -0.111136 0)
(0.300897 -0.13417 0)
(0.283645 -0.154527 0)
(0.00731103 0.6125 0)
(0.0482526 0.626096 0)
(0.0841597 0.613834 0)
(0.131098 0.587747 0)
(0.174912 0.547361 0)
(0.215538 0.494302 0)
(0.250306 0.432737 0)
(0.278204 0.36833 0)
(0.29904 0.306483 0)
(0.313306 0.250738 0)
(0.322394 0.202708 0)
(0.327923 0.162136 0)
(0.33124 0.127317 0)
(0.333038 0.0958349 0)
(0.333328 0.0656003 0)
(0.331813 0.0357085 0)
(0.328277 0.00636371 0)
(0.322924 -0.0219768 0)
(0.315645 -0.0490642 0)
(0.306627 -0.0746101 0)
(0.295943 -0.098375 0)
(0.283804 -0.120052 0)
(0.269501 -0.139431 0)
(0.000816781 0.592336 0)
(0.0268079 0.596965 0)
(0.0480459 0.578443 0)
(0.0829529 0.549078 0)
(0.117352 0.508827 0)
(0.152516 0.458868 0)
(0.184535 0.402313 0)
(0.211825 0.343956 0)
(0.233781 0.28825 0)
(0.250558 0.237831 0)
(0.26305 0.193749 0)
(0.272418 0.15574 0)
(0.27967 0.122547 0)
(0.285327 0.0924146 0)
(0.289353 0.063767 0)
(0.291448 0.0358218 0)
(0.291387 0.00857038 0)
(0.289203 -0.0176965 0)
(0.284922 -0.0428271 0)
(0.278692 -0.0665207 0)
(0.270618 -0.0885567 0)
(0.26097 -0.108741 0)
(0.249219 -0.126973 0)
(-0.00258696 0.583029 0)
(0.013518 0.579805 0)
(0.0248599 0.554504 0)
(0.050572 0.519983 0)
(0.0769992 0.477244 0)
(0.106771 0.427648 0)
(0.135522 0.373803 0)
(0.161577 0.319605 0)
(0.183976 0.26851 0)
(0.202468 0.22238 0)
(0.217379 0.181764 0)
(0.229363 0.146281 0)
(0.239085 0.11492 0)
(0.246939 0.0863806 0)
(0.252938 0.0594866 0)
(0.256894 0.0335707 0)
(0.258655 0.00848866 0)
(0.258223 -0.0156394 0)
(0.255661 -0.0386854 0)
(0.251133 -0.0604588 0)
(0.244797 -0.0807652 0)
(0.236929 -0.0994785 0)
(0.227125 -0.11655 0)
(-0.00420659 0.580158 0)
(0.00547022 0.570393 0)
(0.0103929 0.538654 0)
(0.029208 0.498381 0)
(0.0490958 0.451785 0)
(0.0737988 0.400696 0)
(0.0990231 0.347627 0)
(0.123352 0.295795 0)
(0.145588 0.247867 0)
(0.165085 0.205111 0)
(0.181635 0.167597 0)
(0.195414 0.134713 0)
(0.206751 0.105499 0)
(0.215907 0.0788968 0)
(0.222945 0.0539848 0)
(0.227805 0.0301867 0)
(0.230444 0.00729008 0)
(0.230919 -0.0146909 0)
(0.229317 -0.0357623 0)
(0.225816 -0.0557098 0)
(0.220631 -0.0743889 0)
(0.214012 -0.0917226 0)
(0.205658 -0.107695 0)
(-0.0049025 0.580818 0)
(0.000729961 0.566043 0)
(0.00165657 0.52854 0)
(0.015137 0.48261 0)
(0.0296733 0.431648 0)
(0.0496651 0.377942 0)
(0.0711904 0.324145 0)
(0.0933458 0.273084 0)
(0.114845 0.226974 0)
(0.134717 0.186725 0)
(0.152283 0.15193 0)
(0.167298 0.121662 0)
(0.179781 0.0948492 0)
(0.189844 0.0704965 0)
(0.197559 0.0477952 0)
(0.202965 0.0262136 0)
(0.206133 0.0054983 0)
(0.207105 -0.0144063 0)
(0.206085 -0.0335617 0)
(0.203327 -0.0517822 0)
(0.198986 -0.0689586 0)
(0.19331 -0.0850231 0)
(0.186062 -0.0999701 0)
(-0.00480042 0.583216 0)
(-0.0016058 0.565057 0)
(-0.00328619 0.522497 0)
(0.00600817 0.471422 0)
(0.0161056 0.416192 0)
(0.0316915 0.359319 0)
(0.049394 0.303674 0)
(0.0689779 0.25198 0)
(0.0892327 0.206414 0)
(0.108963 0.167792 0)
(0.127081 0.135265 0)
(0.142973 0.107521 0)
(0.156354 0.0832488 0)
(0.167176 0.061366 0)
(0.175482 0.0410591 0)
(0.181362 0.0217889 0)
(0.184961 0.00325696 0)
(0.186385 -0.0146502 0)
(0.185857 -0.0319347 0)
(0.183641 -0.0485249 0)
(0.179946 -0.0642982 0)
(0.175008 -0.0791754 0)
(0.168641 -0.0931403 0)
(-0.00397765 0.586133 0)
(-0.00191291 0.56599 0)
(-0.00530079 0.519269 0)
(0.000787015 0.464039 0)
(0.00722617 0.40494 0)
(0.018643 0.344776 0)
(0.0324157 0.28649 0)
(0.049062 0.232936 0)
(0.0675969 0.186677 0)
(0.0867368 0.148749 0)
(0.105042 0.117947 0)
(0.121545 0.0925273 0)
(0.135664 0.0708276 0)
(0.147176 0.0515521 0)
(0.156058 0.0337804 0)
(0.162404 0.0169185 0)
(0.16641 0.000626229 0)
(0.16823 -0.0152525 0)
(0.168131 -0.0307786 0)
(0.166373 -0.0458353 0)
(0.163203 -0.0602835 0)
(0.15886 -0.0740306 0)
(0.153196 -0.0870481 0)
(-0.0024852 0.588293 0)
(-0.000217602 0.56761 0)
(-0.00417622 0.518055 0)
(-0.000374884 0.459698 0)
(0.00288894 0.397429 0)
(0.0104904 0.33418 0)
(0.0202611 0.272788 0)
(0.033613 0.216383 0)
(0.049917 0.168241 0)
(0.0679891 0.130015 0)
(0.0860653 0.100273 0)
(0.10289 0.0768708 0)
(0.117566 0.0576926 0)
(0.129661 0.0411032 0)
(0.139056 0.0259783 0)
(0.145833 0.0116156 0)
(0.150204 -0.00237037 0)
(0.152324 -0.0162268 0)
(0.152515 -0.0299841 0)
(0.1511 -0.043535 0)
(0.148323 -0.0567203 0)
(0.144422 -0.0694178 0)
(0.13931 -0.0815452 0)
(-0.000365533 0.588254 0)
(0.00362741 0.568609 0)
(0.000586075 0.518066 0)
(0.00321156 0.457708 0)
(0.00404535 0.39318 0)
(0.0082854 0.327301 0)
(0.0141158 0.26268 0)
(0.0237542 0.202521 0)
(0.0370845 0.151503 0)
(0.053436 0.112025 0)
(0.0706851 0.0826319 0)
(0.0873837 0.0608364 0)
(0.102305 0.0440372 0)
(0.114762 0.0301531 0)
(0.124496 0.0177537 0)
(0.131559 0.00596288 0)
(0.136105 -0.00569139 0)
(0.138401 -0.0175128 0)
(0.138789 -0.029496 0)
(0.137564 -0.0415538 0)
(0.135011 -0.0535243 0)
(0.131392 -0.0652203 0)
(0.126665 -0.0764969 0)
(0.00237827 0.58452 0)
(0.00959043 0.567254 0)
(0.00921973 0.517659 0)
(0.0120197 0.457071 0)
(0.0118412 0.391675 0)
(0.0137055 0.324212 0)
(0.0162514 0.256885 0)
(0.0221035 0.192728 0)
(0.0313811 0.137513 0)
(0.0447557 0.0953813 0)
(0.0600718 0.0654825 0)
(0.0758093 0.0448213 0)
(0.0903957 0.0301907 0)
(0.102803 0.0189741 0)
(0.112553 0.00934656 0)
(0.119619 0.000215071 0)
(0.124114 -0.00910425 0)
(0.126362 -0.0188452 0)
(0.126736 -0.0290734 0)
(0.125532 -0.0396926 0)
(0.123045 -0.0505098 0)
(0.11956 -0.0612732 0)
(0.11506 -0.0717655 0)
(0.00573229 0.575779 0)
(0.0173828 0.562024 0)
(0.0212717 0.515155 0)
(0.0257043 0.456069 0)
(0.0262225 0.39132 0)
(0.0272062 0.323611 0)
(0.027912 0.254831 0)
(0.0308072 0.187793 0)
(0.0360047 0.128616 0)
(0.0449242 0.0826482 0)
(0.0566149 0.0506198 0)
(0.0698462 0.0299239 0)
(0.0828947 0.0168537 0)
(0.0944061 0.00807826 0)
(0.103593 0.00119875 0)
(0.110147 -0.00532515 0)
(0.114208 -0.0122982 0)
(0.11613 -0.0200164 0)
(0.116239 -0.0285454 0)
(0.114844 -0.0377822 0)
(0.112252 -0.0474986 0)
(0.108752 -0.0574023 0)
(0.104333 -0.0671973 0)
(0.00961357 0.561014 0)
(0.0264449 0.551628 0)
(0.0356837 0.50916 0)
(0.0428412 0.453138 0)
(0.045343 0.390316 0)
(0.0467953 0.323506 0)
(0.0470855 0.254538 0)
(0.0482065 0.1862 0)
(0.0503435 0.124494 0)
(0.0548607 0.0750619 0)
(0.0619904 0.0400613 0)
(0.0711797 0.0180417 0)
(0.0811079 0.00546537 0)
(0.0904096 -0.00153381 0)
(0.0979688 -0.00606119 0)
(0.103282 -0.0101697 0)
(0.106395 -0.0149069 0)
(0.107576 -0.0207202 0)
(0.107138 -0.0276715 0)
(0.105363 -0.0356314 0)
(0.10251 -0.0443424 0)
(0.0988441 -0.0534837 0)
(0.0943677 -0.0626747 0)
(0.0139673 0.539546 0)
(0.0361193 0.535333 0)
(0.0510352 0.498889 0)
(0.061321 0.447355 0)
(0.0662623 0.387574 0)
(0.0688115 0.322654 0)
(0.0693725 0.254569 0)
(0.0695135 0.186211 0)
(0.06968 0.12336 0)
(0.0709911 0.0717452 0)
(0.074052 0.0342519 0)
(0.0788567 0.0104418 0)
(0.084752 -0.00251315 0)
(0.090683 -0.00859482 0)
(0.0955832 -0.01143 0)
(0.0988854 -0.0135629 0)
(0.10048 -0.0164196 0)
(0.100517 -0.0205977 0)
(0.0992331 -0.0261912 0)
(0.0968601 -0.0330478 0)
(0.0936019 -0.0409044 0)
(0.0896656 -0.0494023 0)
(0.085036 -0.0581023 0)
(0.0187684 0.510981 0)
(0.0457335 0.513216 0)
(0.0657906 0.484373 0)
(0.0788575 0.438676 0)
(0.085883 0.382943 0)
(0.0894371 0.320828 0)
(0.0903226 0.254535 0)
(0.0899457 0.187018 0)
(0.0890354 0.123986 0)
(0.088409 0.071296 0)
(0.0885636 0.0322529 0)
(0.0896877 0.00701501 0)
(0.0916211 -0.00657957 0)
(0.0937975 -0.0122986 0)
(0.0955279 -0.0140594 0)
(0.0963018 -0.0148348 0)
(0.0959411 -0.0163479 0)
(0.0945161 -0.0193252 0)
(0.0921898 -0.0238925 0)
(0.0890966 -0.0298892 0)
(0.0853405 -0.0370653 0)
(0.0810623 -0.0450596 0)
(0.0762109 -0.053394 0)
(0.0238045 0.475204 0)
(0.0545526 0.486179 0)
(0.0784582 0.466452 0)
(0.0933342 0.427818 0)
(0.101532 0.377008 0)
(0.105559 0.318371 0)
(0.106695 0.254374 0)
(0.106356 0.188081 0)
(0.105252 0.125467 0)
(0.103761 0.0725566 0)
(0.10212 0.0329022 0)
(0.100525 0.00698688 0)
(0.0990562 -0.00696757 0)
(0.0976956 -0.0125306 0)
(0.0962211 -0.013708 0)
(0.0943413 -0.013702 0)
(0.0919298 -0.0144334 0)
(0.0889892 -0.016696 0)
(0.0855794 -0.0206203 0)
(0.0817319 -0.0260643 0)
(0.0774631 -0.0327761 0)
(0.0728333 -0.0404231 0)
(0.0677535 -0.0485219 0)
(0.0282619 0.432573 0)
(0.0615257 0.455725 0)
(0.0874469 0.446545 0)
(0.102776 0.415997 0)
(0.11102 0.3707 0)
(0.11505 0.315628 0)
(0.116697 0.253748 0)
(0.117205 0.188682 0)
(0.11679 0.126935 0)
(0.115274 0.0746364 0)
(0.112602 0.0353563 0)
(0.108954 0.00966734 0)
(0.104658 -0.00417693 0)
(0.100179 -0.00957627 0)
(0.0958359 -0.0105223 0)
(0.091608 -0.0102821 0)
(0.0874081 -0.010774 0)
(0.0831808 -0.0127957 0)
(0.0788636 -0.0164683 0)
(0.0743929 -0.0216384 0)
(0.0697116 -0.0280811 0)
(0.0647918 -0.0355149 0)
(0.0595233 -0.0434912 0)
(0.0303172 0.384664 0)
(0.0648679 0.423855 0)
(0.0906938 0.426249 0)
(0.105205 0.404551 0)
(0.112765 0.364673 0)
(0.116943 0.312477 0)
(0.11983 0.251959 0)
(0.122041 0.188015 0)
(0.122944 0.127668 0)
(0.121807 0.0769377 0)
(0.118357 0.0391292 0)
(0.112856 0.0146395 0)
(0.106126 0.00149759 0)
(0.0991404 -0.00377317 0)
(0.0925262 -0.00495866 0)
(0.086574 -0.00504948 0)
(0.0812417 -0.00583016 0)
(0.0762875 -0.00801491 0)
(0.0714973 -0.0117088 0)
(0.0667161 -0.0167937 0)
(0.0618273 -0.0231015 0)
(0.0567523 -0.0304163 0)
(0.0513898 -0.038352 0)
(0.028001 0.335643 0)
(0.0631557 0.393137 0)
(0.0865689 0.407229 0)
(0.0994647 0.394326 0)
(0.106368 0.358916 0)
(0.111357 0.308171 0)
(0.116376 0.248137 0)
(0.120899 0.185457 0)
(0.123307 0.127349 0)
(0.122428 0.0793568 0)
(0.11798 0.0441881 0)
(0.110607 0.0217112 0)
(0.101698 0.00956132 0)
(0.0927584 0.00418676 0)
(0.0848124 0.00221088 0)
(0.0781483 0.0011814 0)
(0.0725404 -0.000344992 0)
(0.0676224 -0.00296675 0)
(0.0629878 -0.00681195 0)
(0.0583544 -0.0118713 0)
(0.0535806 -0.0180678 0)
(0.0485597 -0.025277 0)
(0.0432414 -0.033198 0)
(0.0213225 0.290582 0)
(0.0570478 0.365179 0)
(0.0767149 0.390975 0)
(0.0873214 0.385617 0)
(0.0931771 0.353268 0)
(0.0989823 0.301976 0)
(0.106611 0.241561 0)
(0.113765 0.180762 0)
(0.117516 0.126184 0)
(0.116419 0.0822949 0)
(0.110552 0.0508063 0)
(0.101287 0.030759 0)