/*--------------------------------*- C++ -*----------------------------------*\
| =========                 |                                                 |
| \\      /  F ield         | OpenFOAM: The Open Source CFD Toolbox           |
|  \\    /   O peration     | Version:  2312                                  |
|   \\  /    A nd           | Website:  www.openfoam.com                      |
|    \\/     M anipulation  |                                                 |
\*---------------------------------------------------------------------------*/
FoamFile
{
    version     2.0;
    format      ascii;
    arch        "LSB;label=32;scalar=64";
    class       volScalarField;
    location    "4.55";
    object      alpha.water_0;
}
// * * * * * * * * * * * * * * * * * * * * * * * * * * * * * * * * * * * * * //

dimensions      [0 0 0 0 0 0 0];

internalField   nonuniform List<scalar> 
2268
(
3.34981e-07
3.34905e-07
2.36921e-07
5.78111e-08
6.57282e-09
1.50101e-09
1.03367e-09
5.70304e-10
2.26381e-10
1.3151e-10
9.29796e-11
7.47495e-11
6.61702e-11
6.55151e-11
7.26585e-11
8.78686e-11
1.13076e-10
1.6104e-10
2.27038e-10
4.06542e-10
8.39315e-10
1.33095e-09
1.44855e-09
2.29808e-07
1.57384e-07
6.62921e-08
2.19585e-08
3.596e-10
1.77337e-10
1.97278e-10
2.05748e-10
2.12168e-10
2.06705e-10
1.79262e-10
1.48351e-10
1.20339e-10
1.06007e-10
1.09941e-10
1.27306e-10
1.72208e-10
2.69459e-10
4.37976e-10
6.52179e-10
1.21652e-09
1.53613e-09
1.53795e-09
4.97636e-08
2.71307e-08
1.0284e-08
2.46922e-10
2.50624e-10
3.17782e-10
6.03883e-10
7.17212e-10
8.43353e-10
8.41649e-10
7.37133e-10
5.63718e-10
4.51318e-10
2.61088e-10
2.15723e-10
2.38998e-10
3.46999e-10
7.54101e-10
9.65141e-10
1.01214e-09
1.24194e-09
1.20619e-09
9.40816e-10
5.12263e-08
2.56344e-08
6.83365e-09
6.14979e-10
3.46467e-10
6.58595e-10
1.21442e-09
1.1111e-09
1.0008e-09
1.02875e-09
9.31744e-10
5.01372e-10
3.83472e-09
6.42426e-09
5.614e-09
2.68801e-09
1.02611e-09
5.324e-10
5.27059e-10
4.82092e-10
4.34205e-10
3.67946e-10
2.77396e-10
0.00230961
0.00182003
0.000950147
0.000153336
-2.24114e-15
-3.79046e-14
-1.20447e-12
-2.82337e-19
4.07293e-20
-3.25516e-13
-3.88731e-13
-3.88386e-13
-1.783e-12
-9.07134e-13
-1.60859e-10
6.75004e-11
5.40251e-11
4.05705e-11
4.56925e-11
8.20254e-12
2.02029e-21
7.96677e-22
2.82564e-21
0.494891
0.485128
0.463103
0.427603
0.380829
0.328247
0.271096
0.20687
0.145023
0.0929594
0.0530018
0.024908
0.00780952
0.00132182
-6.10162e-22
3.94544e-23
8.65964e-24
-2.20385e-09
-2.97583e-10
-9.13617e-12
0.0116551
0.0845435
0.104895
0.996561
0.9961
0.994885
0.994041
0.994645
0.990195
0.970063
0.936206
0.887916
0.826853
0.754904
0.670798
0.578928
0.495243
0.445381
0.428085
0.44423
0.411482
0.423784
0.491627
0.57357
0.635263
0.781966
0.99972
0.999724
0.999724
0.999552
0.999224
0.999526
0.999523
0.999658
0.999724
0.999724
0.999647
0.999724
0.999724
0.997851
0.987754
0.974024
0.950757
0.936343
0.938062
0.919122
0.890341
0.893405
0.92446
0.0147033
0.0102038
0.00610959
0.00715649
0.0100199
0.0114803
0.0112866
0.0102041
0.0103486
0.0104898
0.0103675
0.00759333
0.00554447
0.00461274
0.00476538
0.00477286
0.00385703
0.00470017
0.00487626
0.0262739
0.00283562
0.00205994
0.00229549
0.00186163
0.000882596
0.000376496
0.000369389
0.000370592
0.000369389
0.000376496
0.000375373
0.000378625
0.000375406
0.000377319
0.00037496
0.000378797
0.000377989
0.000381838
0.0123371
0.000687909
0.000688123
0.000688198
0.000688481
0.000690339
0.0602913
0.105144
0.105251
0.111804
0.106079
0.0893903
0.0596033
0.0599646
0.0734366
0.0866065
0.105058
0.133848
0.141689
0.135599
0.141619
0.176616
0.254316
0.407546
0.602727
0.756051
0.818749
0.849012
0.706466
0.47968
0.48667
0.473591
0.467043
0.614348
0.57626
0.652102
0.73467
0.583746
0.631816
0.798693
0.833823
0.898979
0.931224
0.920693
0.915191
0.956024
0.973971
0.970477
0.727217
0.772072
0.561107
0.629217
0.901047
0.919969
0.920009
0.919971
0.783741
0.755734
0.990387
0.987394
0.9905
0.990725
0.926718
0.92578
0.97397
0.974021
0.970439
0.896635
0.908739
0.846331
0.819597
0.893588
0.905721
0.898573
0.907991
0.88894
0.859487
0.992582
0.992582
0.991972
0.992205
0.967176
0.920083
0.973986
0.974048
0.974101
0.974047
0.974023
0.97393
0.973679
0.926833
0.834606
0.853977
0.887769
0.919045
0.988036
0.992583
0.938183
0.929732
0.987279
0.965498
0.92265
0.973923
0.973799
0.959894
0.964582
0.973319
0.973916
0.973929
0.895027
0.835138
0.890786
0.919043
0.919045
0.997522
0.999724
0.999724
0.999724
0.999724
0.999724
0.999724
0.999724
0.999724
0.999724
0.999724
0.999724
0.999724
0.999724
0.999007
0.990547
0.976982
0.983509
0.989236
0.993245
0.985213
0.985133
0.969371
0.966988
0.991049
0.995805
0.996299
0.994609
0.994062
0.995256
0.996488
0.998175
0.999507
0.999722
0.999544
0.999398
0.999724
0.999724
0.999608
0.999617
0.999435
0.99879
0.998757
0.998726
0.998605
0.971891
0.592414
0.574536
0.539099
0.546179
0.592888
0.675572
0.775818
0.834295
0.865418
0.901725
0.937153
0.950447
0.946442
0.943851
0.959908
0.94134
0.897314
0.858174
0.864943
0.874783
0.871942
0.859566
0.895151
0.0225748
0.0101706
-6.75587e-27
1.65375e-20
0.0156578
0.0971633
0.162059
0.175463
0.184308
0.2494
0.33601
0.377119
0.323399
0.150233
0.107018
0.134842
0.160713
0.161312
0.170401
0.174901
0.169044
0.161965
0.298979
-1.08668e-09
-1.38075e-08
5.11554e-21
-5.91925e-24
-2.85709e-18
-3.52687e-20
-3.70809e-09
-8.12228e-13
6.6981e-11
6.73553e-17
7.87956e-17
2.52921e-18
6.52725e-21
-2.94932e-07
5.44872e-08
-1.44474e-17
3.66077e-20
-1.02522e-08
-3.92983e-08
-3.98358e-07
-1.33622e-06
-2.33177e-07
0.000422106
4.64642e-06
6.92304e-06
-1.72635e-09
1.70223e-06
9.02809e-10
7.94337e-08
6.17901e-06
0.000103782
0.000140535
4.01047e-05
6.7757e-08
6.8326e-07
1.33329e-05
0.000109455
0.000155008
5.86329e-05
6.29909e-07
5.38885e-05
0.000259366
0.00159242
0.00176463
0.0013856
0.000669234
6.2573e-06
0.000267247
0.000120026
1.86325e-06
0.0017869
0.00398226
0.00534665
0.00580336
0.00326418
0.000626646
0.000466344
0.000322795
9.15232e-05
0.000110625
0.00031983
0.000262656
0.000245114
0.000304348
0.000232179
0.000187304
0.000185938
0.00479821
0.0186599
0.000183036
0.000321804
0.000304904
0.0034289
0.00648333
0.00647708
0.00648275
0.00647779
0.00648266
0.00647709
0.00500549
0.000219734
1.87909e-05
1.8358e-05
0.00116261
0.00412774
0.00751618
0.0142905
0.00947857
0.000506747
0.000315428
0.00395153
0.0186616
0.000661043
0.000388163
0.000272054
0.00359759
0.00649196
0.00636464
0.00361352
0.00442505
0.0025136
0.000307897
6.88966e-06
3.44667e-05
4.71742e-05
2.00606e-05
0.00730042
0.0167891
0.0167912
0.0167891
0.0167912
0.0162368
0.00874311
0.00853612
0.0186519
0.000661111
0.000609084
0.000199634
0.00225456
0.00649888
0.00331512
3.94885e-05
7.28446e-05
4.09835e-05
4.96352e-07
8.01529e-06
9.43537e-05
0.000325433
0.000739266
0.00146684
0.00463869
0.0115706
0.0124667
0.0085881
0.00544427
0.00801496
0.017006
0.0185758
0.000585189
0.000423385
0.000107333
0.000398278
0.00214005
0.000262198
1.44072e-22
-2.4428e-25
-6.37477e-23
1.01677e-06
2.02715e-06
4.54438e-07
4.74987e-07
1.06095e-06
1.58928e-07
1.77654e-07
1.27714e-13
1.12778e-13
1.7749e-13
1.27494e-07
0.000130233
0.0012407
0.00189725
3.89663e-05
1.45435e-05
4.4624e-06
9.04491e-08
5.72591e-08
5.43279e-08
5.15448e-08
5.36341e-11
-2.30412e-11
4.96658e-06
5.47088e-06
3.36723e-06
4.57795e-06
1.05543e-05
9.28616e-06
2.99334e-06
1.25152e-07
1.25171e-07
2.00257e-07
2.90112e-07
1.16807e-07
1.1475e-07
8.91159e-08
2.25539e-07
1.37399e-07
4.52772e-07
5.1322e-07
3.01707e-07
7.03518e-08
2.07331e-07
2.15798e-07
4.05177e-06
5.08071e-06
4.80156e-06
1.24347e-05
1.65924e-05
1.85612e-05
1.85542e-05
1.87427e-05
7.49967e-06
2.94319e-07
1.25184e-06
2.87545e-06
3.45116e-06
8.0589e-06
1.39512e-05
2.32192e-07
1.52917e-07
3.51027e-08
1.79998e-07
1.17134e-07
4.00864e-08
3.61852e-08
3.95917e-06
5.4178e-06
2.98139e-06
1.35328e-06
3.43103e-06
1.69392e-05
1.86445e-05
1.86505e-05
1.86864e-05
1.85896e-05
1.44416e-06
5.34974e-06
1.93872e-05
1.93194e-05
1.93898e-05
1.93751e-05
8.2766e-08
4.01813e-08
3.56765e-08
4.52504e-08
3.12461e-08
2.12725e-08
1.06544e-07
2.88341e-06
2.60438e-06
4.95972e-07
6.4854e-07
1.39357e-06
2.13253e-07
2.12827e-08
1.30582e-05
1.86505e-05
1.5947e-05
5.04606e-07
7.56781e-06
1.92665e-05
1.92704e-05
1.94333e-05
1.55892e-05
3.08927e-08
1.24019e-08
2.06663e-08
2.90608e-08
2.68864e-08
2.56309e-08
2.21581e-07
1.78322e-07
9.72142e-09
5.03298e-09
9.17635e-08
1.41e-07
9.60561e-08
1.90091e-08
9.44718e-07
4.57018e-06
3.47734e-06
3.80871e-07
1.81711e-09
1.072e-05
1.46883e-05
2.61189e-06
8.6798e-07
6.16694e-09
4.58779e-09
8.98469e-09
1.74656e-08
2.89716e-08
2.80361e-08
5.17081e-08
4.5092e-09
6.14036e-09
5.01986e-09
1.2888e-08
1.81566e-08
1.18068e-08
1.75012e-08
6.24183e-08
3.53596e-08
8.7601e-09
1.84785e-08
2.09031e-09
1.31228e-09
4.55419e-06
1.86253e-06
5.6377e-07
8.95937e-09
3.92707e-09
6.95686e-09
1.32106e-08
1.79625e-08
1.42664e-08
4.65474e-09
4.45113e-09
4.75544e-09
2.86383e-09
4.5428e-09
3.25685e-09
1.8404e-09
1.89045e-09
4.43694e-09
4.49539e-09
2.49477e-09
1.50444e-09
1.42377e-09
1.31e-09
1.36539e-06
1.5705e-06
5.70219e-07
1.8363e-08
2.9628e-09
4.19011e-09
6.84165e-09
7.08199e-09
4.90686e-09
2.79147e-09
2.51328e-09
2.02058e-09
1.21475e-09
1.23621e-09
1.03837e-09
9.72391e-10
1.13239e-09
1.38569e-09
1.37445e-09
1.221e-09
9.90168e-10
1.2323e-09
1.30751e-09
1.2257e-09
3.63927e-07
4.29591e-07
1.89225e-08
2.08888e-09
2.18991e-09
2.98502e-09
2.3102e-09
1.5716e-09
1.14373e-09
9.58199e-10
7.26185e-10
5.25765e-10
5.01661e-10
5.47317e-10
7.20027e-10
8.6172e-10
9.83531e-10
1.00421e-09
9.04336e-10
8.89193e-10
1.12679e-09
1.44503e-09
1.21512e-09
6.87199e-08
8.02135e-08
1.89225e-08
1.39156e-09
1.04007e-09
1.23287e-09
8.1007e-10
5.82115e-10
4.6089e-10
3.59249e-10
2.86239e-10
2.39717e-10
2.33973e-10
2.68251e-10
3.39151e-10
3.91709e-10
4.32087e-10
4.42152e-10
4.29658e-10
4.66583e-10
6.05987e-10
9.25115e-10
1.20406e-09
6.23055e-09
7.79793e-09
1.88099e-08
9.09938e-10
5.02085e-10
5.41734e-10
3.62054e-10
2.74289e-10
2.17571e-10
1.70046e-10
1.3819e-10
1.15275e-10
1.0637e-10
1.10865e-10
1.27156e-10
1.41746e-10
1.5486e-10
1.64164e-10
1.719e-10
1.97548e-10
2.65938e-10
4.62351e-10
7.36405e-10
5.68295e-10
4.86181e-09
1.87789e-08
5.80435e-10
2.97197e-10
2.95709e-10
2.25951e-10
1.89146e-10
1.61678e-10
1.35183e-10
1.06886e-10
7.85143e-11
5.94189e-11
5.00364e-11
4.75111e-11
4.92138e-11
5.3631e-11
5.94996e-11
6.71765e-11
8.1372e-11
1.12191e-10
1.87656e-10
3.35011e-10
5.61475e-10
2.60233e-09
1.88311e-08
3.63245e-10
2.4219e-10
2.33712e-10
2.16254e-10
2.11209e-10
2.00264e-10
1.78911e-10
1.3657e-10
8.93759e-11
5.60412e-11
3.56949e-11
2.45802e-11
1.96492e-11
1.8952e-11
2.09835e-11
2.51477e-11
3.23884e-11
4.64147e-11
7.64715e-11
1.25201e-10
2.5855e-10
6.70429e-10
1.88709e-08
2.81887e-10
2.44742e-10
2.57919e-10
2.86013e-10
3.03406e-10
3.00898e-10
2.65808e-10
2.03322e-10
1.27877e-10
7.30175e-11
4.09823e-11
2.26061e-11
1.27058e-11
8.43441e-12
7.52384e-12
8.98146e-12
1.23555e-11
1.82979e-11
2.98024e-11
4.94208e-11
8.42601e-11
1.78934e-10
1.88353e-08
2.77587e-10
2.82034e-10
3.28187e-10
3.78627e-10
4.35674e-10
4.35507e-10
3.88727e-10
3.06985e-10
1.8997e-10
1.01653e-10
5.47394e-11
2.86331e-11
1.39823e-11
6.59655e-12
3.69542e-12
3.32665e-12
4.57254e-12
7.20042e-12
1.212e-11
1.90415e-11
3.70644e-11
6.27743e-11
1.90622e-08
2.77908e-10
3.20306e-10
4.25737e-10
6.1987e-10
9.1418e-10
8.84088e-10
5.41927e-10
4.37085e-10
2.72855e-10
1.36813e-10
7.19337e-11
3.77788e-11
1.82853e-11
7.89077e-12
3.18442e-12
1.6438e-12
1.72393e-12
2.6947e-12
4.60395e-12
8.00865e-12
1.33346e-11
2.45947e-11
2.01232e-08
3.06638e-10
3.81858e-10
5.5352e-10
1.0226e-09
1.38666e-09
2.43866e-09
6.76015e-10
5.60866e-10
3.688e-10
1.72871e-10
8.86899e-11
4.72864e-11
2.36232e-11
1.0355e-11
3.95542e-12
1.42458e-12
7.31064e-13
9.81565e-13
1.74517e-12
2.95828e-12
6.01056e-12
9.66635e-12
2.10978e-08
3.81549e-10
6.57176e-10
5.84358e-10
5.92672e-10
6.05039e-10
7.22605e-09
6.81332e-10
6.46123e-10
4.6415e-10
2.03707e-10
9.9981e-11
5.45258e-11
2.85156e-11
1.30505e-11
5.15778e-12
1.76871e-12
5.77513e-13
3.68604e-13
5.75088e-13
1.12766e-12
1.827e-12
3.65654e-12
2.19147e-08
4.5031e-10
1.0363e-09
2.0025e-09
2.01079e-08
2.05581e-07
8.72481e-08
6.31277e-10
6.95665e-10
5.80859e-10
2.34991e-10
1.0391e-10
5.73509e-11
3.14596e-11
1.51922e-11
6.33117e-12
2.21876e-12
6.59182e-13
1.89195e-13
2.01438e-13
3.30741e-13
7.35955e-13
1.16032e-12
2.27214e-08
5.57193e-10
5.59741e-10
5.32948e-08
7.68322e-07
8.96401e-07
3.39999e-07
6.31648e-10
7.72765e-10
6.40267e-10
2.30291e-10
9.53621e-11
5.42583e-11
3.10519e-11
1.62113e-11
7.26548e-12
2.71476e-12
8.18396e-13
1.9094e-13
7.14297e-14
1.21788e-13
2.02994e-13
3.87438e-13
2.20741e-08
1.22546e-09
1.79944e-08
4.71339e-07
1.01653e-06
9.82137e-07
1.33077e-07
6.31627e-10
1.14744e-09
6.24767e-10
2.01531e-10
7.87078e-11
4.57301e-11
2.77379e-11
1.54245e-11
7.49033e-12
3.0331e-12
1.00704e-12
2.34948e-13
3.78009e-14
3.58639e-14
7.78476e-14
1.20486e-13
2.24113e-08
3.30666e-09
1.32934e-07
9.15273e-07
1.03499e-06
5.42045e-07
7.9895e-10
1.89697e-09
1.65262e-09
5.49092e-10
1.595e-10
5.93389e-11
3.54411e-11
2.19679e-11
1.29378e-11
6.85458e-12
3.06091e-12
1.10507e-12
2.99193e-13
4.81277e-14
1.1997e-14
1.73976e-14
3.87793e-14
2.88513e-08
3.67907e-09
2.29494e-07
8.75521e-07
8.12281e-07
3.21768e-08
8.00944e-10
2.74487e-09
1.63924e-09
4.21706e-10
1.14962e-10
4.16874e-11
2.51607e-11
1.55576e-11
9.45249e-12
5.44252e-12
2.72064e-12
1.0858e-12
3.21734e-13
5.4761e-14
5.28799e-15
6.27899e-15
9.71686e-15
4.71615e-08
8.88622e-09
2.04271e-07
3.86925e-07
1.49051e-07
1.46834e-09
1.46797e-09
2.41929e-09
1.02529e-09
2.7621e-10
7.49244e-11
2.74574e-11
1.62679e-11
9.88977e-12
5.95296e-12
3.65873e-12
2.05624e-12
9.30874e-13
3.15157e-13
6.26928e-14
3.66574e-15
1.44402e-15
3.00123e-15
5.20689e-08
1.12288e-08
1.62023e-07
2.13042e-07
2.26024e-08
4.24144e-09
2.51751e-09
1.68523e-09
5.28208e-10
1.61863e-10
4.32669e-11
1.63209e-11
9.68898e-12
5.63626e-12
3.25453e-12
2.03091e-12
1.28389e-12
6.76976e-13
2.61513e-13
6.75041e-14
4.55986e-15
6.22976e-16
7.30153e-16
5.30091e-08
1.07553e-08
7.23677e-08
3.74998e-09
6.64313e-09
5.22013e-09
3.13171e-09
1.30029e-09
3.34178e-10
8.74275e-11
2.16932e-11
8.86347e-12
5.31464e-12
2.90402e-12
1.54577e-12
9.18927e-13
6.20628e-13
3.88289e-13
1.82466e-13
5.64824e-14
6.79061e-15
3.25861e-16
2.01946e-16
4.9867e-08
8.73381e-09
7.27554e-09
1.61364e-09
2.45506e-09
4.81581e-09
3.02135e-09
1.27864e-09
3.45638e-10
5.45246e-11
9.3115e-12
4.27167e-12
2.62044e-12
1.36512e-12
6.49952e-13
3.41985e-13
2.25199e-13
1.62682e-13
9.66038e-14
3.8671e-14
5.9441e-15
2.98637e-16
5.26017e-17
7.12541e-08
6.87791e-09
1.61363e-09
1.61452e-09
8.31776e-09
8.23652e-09
3.45579e-09
1.24517e-09
3.24504e-10
4.51325e-11
4.1191e-12
1.78603e-12
1.13169e-12
5.695e-13
2.42943e-13
1.03981e-13
5.97753e-14
4.68076e-14
3.61569e-14
1.96858e-14
4.69066e-15
2.87028e-16
1.78705e-17
1.24792e-07
2.23792e-09
1.61446e-09
2.23501e-08
2.32328e-08
9.10195e-09
2.90867e-09
9.31457e-10
2.1475e-10
2.66716e-11
1.79678e-12
5.9508e-13
3.92297e-13
1.98917e-13
7.86958e-14
2.77477e-14
1.18944e-14
8.67729e-15
8.6706e-15
7.25287e-15
2.45687e-15
2.44927e-16
1.15932e-17
1.45957e-07
3.49668e-08
1.61406e-09
4.26298e-08
2.21906e-08
6.88846e-09
1.86954e-09
4.39634e-10
7.49865e-11
6.83176e-12
3.38652e-13
1.29204e-13
9.3609e-14
4.94894e-14
1.90529e-14
5.71686e-15
1.69626e-15
1.02032e-15
1.41532e-15
1.80941e-15
9.94424e-16
1.71274e-16
1.45172e-17
1.55268e-07
1.31181e-07
9.06999e-08
4.07833e-08
1.08592e-08
2.25911e-09
4.29147e-10
6.72503e-11
6.34417e-12
2.93077e-13
1.58558e-14
1.40203e-14
1.14539e-14
6.53684e-15
2.59396e-15
6.98407e-16
1.54413e-16
7.46993e-17
1.5902e-16
3.38679e-16
3.46596e-16
9.96319e-17
1.0183e-17
0.981382
0.981502
0.981475
0.97943
0.959843
0.958177
0.968188
0.986905
0.92041
0.957289
0.965403
0.973509
0.565024
0.647918
0.609138
0.42298
0.0105585
0.00594952
-1.17425e-23
-4.62412e-08
0.000878506
2.12398e-05
2.69304e-05
3.34294e-05
0.0106757
0.000928461
0.00107802
0.000823545
0.0186538
0.0186559
0.0186508
0.0124585
0.0186559
0.018651
0.018653
0.0186492
0.0184237
0.0103516
0.00406678
0.00214491
-5.40202e-09
8.59637e-10
1.22204e-10
2.41365e-10
1.28605e-07
6.51669e-07
6.27331e-08
1.45442e-08
1.13658e-05
5.67131e-06
9.56369e-07
2.17861e-07
1.9384e-05
1.93829e-05
1.05341e-05
4.42555e-07
5.68953e-06
7.06163e-07
3.29751e-07
5.65564e-07
9.53881e-07
5.46672e-07
2.51856e-07
1.23096e-05
5.59998e-07
4.89872e-07
2.34136e-05
4.69344e-05
3.66143e-07
3.77577e-07
6.78882e-06
4.29681e-05
3.43413e-07
4.35861e-07
4.84952e-07
1.00464e-05
1.59483e-07
2.57517e-07
7.14622e-07
8.73376e-07
1.59066e-08
2.06395e-07
3.60767e-07
2.96713e-07
1.26295e-08
4.95284e-08
1.04982e-07
8.78114e-08
7.63378e-09
1.13336e-08
1.72944e-08
1.72755e-08
1.50521e-09
1.7271e-09
2.36374e-09
2.57882e-09
3.03385e-10
3.71183e-10
4.57832e-10
5.84155e-10
9.30476e-11
1.20797e-10
1.54539e-10
1.91804e-10
3.6349e-11
4.55621e-11
6.12586e-11
7.55532e-11
1.4608e-11
1.96308e-11
2.47342e-11
3.09337e-11
5.36139e-12
6.90221e-12
9.21073e-12
1.12119e-11
1.76064e-12
2.45525e-12
3.04864e-12
3.96767e-12
5.80834e-13
7.17128e-13
9.79529e-13
1.16934e-12
1.82604e-13
2.35539e-13
2.80333e-13
3.64667e-13
5.28176e-14
6.32319e-14
8.2054e-14
9.02068e-14
1.70866e-14
1.9013e-14
2.15566e-14
2.65296e-14
4.20462e-15
5.15007e-15
6.19005e-15
6.51127e-15
1.19259e-15
1.36883e-15
1.58551e-15
1.82071e-15
3.01415e-16
3.70408e-16
4.17719e-16
4.45684e-16
7.03627e-17
7.88263e-17
9.57358e-17
1.0784e-16
1.34629e-17
1.688e-17
1.93984e-17
2.2124e-17
2.7018e-18
3.075e-18
3.83979e-18
4.43244e-18
5.8033e-19
5.84764e-19
6.66759e-19
7.75259e-19
1.64453e-19
1.03898e-19
1.01162e-19
1.06298e-19
0.988355
0.933814
0.889865
0.887903
0.965826
0.961697
0.965871
0.944003
0.728668
0.756477
0.865868
0.903422
0.973659
0.973898
0.870008
0.871342
0.919045
0.919046
0.919046
0.988358
0.931238
0.906069
0.944272
0.945789
0.899829
0.869554
0.36744
0.0478633
0.113629
0.325607
0.551905
0.825339
0.841556
0.835605
0.769757
0.709231
0.817311
0.919045
0.948546
0.760112
0.62743
0.641549
0.721788
0.666526
0.220047
-1.16906e-09
1.7875e-13
3.03596e-15
4.08876e-16
0.018798
0.164912
0.219835
0.179286
0.136124
0.0960093
0.0997468
0.136731
0.215505
0.0867806
0.0597356
0.169532
0.325914
0.24098
0.00323887
-2.33827e-08
6.68115e-06
2.20583e-06
1.14968e-15
4.0886e-16
3.93786e-07
-5.48437e-08
-6.17575e-07
-3.21226e-06
-1.24901e-06
0.000979912
0.000583219
-2.77512e-07
-3.97406e-38
-2.36192e-20
0.0206954
0.0987924
0.0861976
0.00028116
3.1914e-05
4.44855e-05
0.000295079
0.000319457
0.000103122
5.39141e-05
9.79463e-05
0.000119709
0.000524975
0.00068085
0.000546394
0.00115659
3.71694e-09
-8.07079e-23
1.02003e-20
0.00610009
0.0813905
0.0896702
0.00227295
0.000261399
1.78185e-05
0.000504545
0.001309
0.00152815
0.00125588
0.000839338
0.000657766
0.000625997
0.000628162
0.000864535
0.00115942
0.000269179
0.000110069
2.0584e-06
0.00299406
0.0542474
0.0903185
0.0245584
0.000449532
1.7746e-05
1.76811e-05
0.000250316
0.00263481
0.00358022
0.00358036
0.00301466
0.00248897
0.00248503
0.00209507
0.000623577
0.00120277
0.00101107
0.000545801
0.00154064
0.00718057
0.0123364
0.0184088
0.00639294
0.000195415
1.76807e-05
1.77204e-05
0.0012954
0.00335765
0.00312323
0.00239993
0.00189715
0.00151771
0.00100077
3.53399e-05
0.0169236
0.00614522
0.00177531
0.00276086
0.00361345
0.005547
0.00672696
0.00745264
0.00251526
1.76804e-05
2.17286e-05
0.000110832
2.08262e-07
2.41214e-07
9.4572e-07
8.84762e-07
7.69165e-06
1.59599e-06
1.5022e-06
0.00131205
0.00142233
0.00311283
0.00411916
0.00430468
0.00421953
0.00341546
0.00278856
8.57825e-05
2.38233e-05
4.85731e-05
1.15734e-05
2.01238e-07
2.01424e-07
2.6433e-07
3.92876e-06
6.71503e-06
5.82235e-06
5.23328e-06
7.23291e-16
1.80634e-10
-6.65496e-10
1.80639e-10
1.68164e-08
2.26562e-08
3.35897e-08
6.1806e-08
1.16741e-06
1.38854e-05
3.0637e-05
6.0637e-07
2.4595e-07
2.77719e-07
8.18452e-07
9.83129e-06
1.18001e-05
1.1783e-05
1.17653e-05
3.44805e-08
2.42334e-07
1.46275e-07
2.06652e-08
6.14201e-09
1.44783e-07
6.37854e-07
9.03986e-07
8.83383e-07
4.04228e-06
9.39167e-06
1.45924e-06
3.84997e-07
3.98767e-07
8.46188e-07
4.94054e-06
1.17968e-05
1.12124e-05
8.48756e-06
1.13007e-07
1.69622e-07
8.64708e-08
5.52218e-08
5.92557e-09
1.07284e-06
6.4604e-06
2.93198e-06
5.38275e-06
2.5934e-06
2.54846e-06
2.56565e-06
5.05284e-06
2.15613e-06
8.41953e-07
1.90297e-06
1.17967e-05
4.97603e-06
6.31464e-07
3.20104e-07
2.77401e-07
2.40271e-07
7.4083e-07
3.95691e-06
1.29264e-05
1.28098e-05
1.26133e-05
1.34434e-05
6.07137e-06
5.55957e-06
1.92263e-05
1.96913e-05
1.10452e-05
8.87712e-07
1.95366e-06
1.15539e-05
7.82661e-08
7.81674e-08
2.58299e-06
6.95156e-06
5.25603e-06
2.01129e-05
2.12492e-05
2.07345e-05
7.57727e-06
1.90093e-05
1.91394e-05
1.92265e-05
1.89102e-05
2.03257e-05
2.03257e-05
1.18719e-05
1.20331e-06
2.19464e-06
4.55103e-06
8.71219e-08
1.00324e-07
4.09246e-05
4.05809e-05
3.37846e-05
2.57935e-05
1.80268e-05
6.19731e-06
6.96591e-06
6.24455e-06
1.04484e-05
2.23284e-05
1.37645e-05
1.36231e-05
1.26797e-05
9.67497e-06
1.06168e-05
2.56608e-05
1.42548e-05
3.61445e-06
1.92915e-07
4.72131e-05
2.1861e-05
5.49282e-06
7.26176e-06
2.29445e-06
4.81093e-07
8.94671e-07
2.4422e-06
2.08659e-05
2.46555e-05
2.07385e-05
1.54111e-05
1.97202e-05
2.99022e-05
3.36228e-05
3.92759e-05
3.57623e-05
1.48593e-05
3.11142e-07
4.67788e-05
4.25863e-06
1.31834e-06
8.97442e-07
5.1095e-07
4.81095e-07
4.99009e-07
3.85129e-06
3.77987e-05
4.89073e-05
4.97716e-05
4.42192e-05
4.17942e-05
2.15773e-05
3.33826e-05
3.92768e-05
3.92793e-05
2.4014e-05
3.45722e-07
7.02947e-06
3.34337e-06
2.57595e-06
9.86242e-07
2.03548e-06
1.98924e-06
2.21201e-06
2.25111e-06
6.77221e-06
3.70173e-05
4.95916e-05
4.81055e-05
2.37439e-05
1.67881e-09
1.6514e-09
3.57763e-05
3.92708e-05
2.44878e-05
1.33081e-07
2.79724e-07
1.13217e-07
4.74786e-07
9.59603e-07
2.01346e-06
2.39143e-06
2.39148e-06
1.55091e-06
7.06e-07
1.91568e-07
5.75041e-06
4.86921e-06
7.01892e-08
8.85719e-08
4.85366e-09
3.10343e-06
3.75441e-05
9.64522e-06
7.54968e-08
7.94557e-08
2.61488e-08
5.88845e-08
1.27603e-07
1.69159e-07
6.39735e-07
6.99253e-07
2.45124e-07
3.29367e-09
1.80404e-07
5.48297e-07
2.49391e-06
2.7927e-06
1.22343e-06
1.64683e-09
1.17631e-09
1.26365e-05
2.89354e-06
7.51186e-08
2.6517e-08
7.50064e-09
9.22209e-09
1.18433e-08
9.03948e-09
1.01871e-08
1.05906e-09
1.06406e-09
1.12907e-09
1.23121e-09
1.08464e-09
1.07283e-09
2.681e-07
2.62151e-07
1.80243e-08
7.4315e-07
4.38359e-06
1.06329e-06
1.20165e-07
9.50907e-09
4.64391e-09
4.73619e-09
4.91582e-09
4.68847e-09
4.28285e-09
3.6197e-09
3.11011e-09
3.05034e-09
2.89395e-09
2.2419e-09
1.00986e-08
1.49751e-07
1.99372e-07
9.1642e-08
1.02406e-06
2.59679e-09
2.08199e-09
2.05501e-07
2.39271e-09
2.46909e-09
2.8894e-09
3.22238e-09
3.34657e-09
3.65073e-09
4.41759e-09
5.96134e-09
7.29299e-09
1.11122e-08
2.14204e-08
1.0899e-07
2.21629e-07
2.41219e-07
1.47858e-07
3.68704e-08
2.18809e-09
2.0813e-09
2.05473e-07
7.13727e-10
8.97817e-10
1.25174e-09
1.67055e-09
2.25353e-09
3.11713e-09
4.10231e-09
5.5238e-09
9.97016e-09
3.58985e-08
6.81372e-08
8.30388e-08
8.67164e-08
8.50988e-08
5.94984e-08
2.66781e-08
5.78324e-09
2.08199e-09
1.83236e-07
2.35989e-10
3.2108e-10
4.44625e-10
6.14843e-10
8.57828e-10
1.23111e-09
1.85514e-09
3.42433e-09
5.88313e-09
9.14463e-09
1.49319e-08
1.48721e-08
1.06566e-08
1.16352e-08
2.68547e-08
2.48793e-08
6.91306e-09
2.08139e-09
1.33158e-07
9.4481e-11
1.28559e-10
1.79508e-10
2.51381e-10
3.60943e-10
5.20174e-10
7.46999e-10
1.12393e-09
1.67264e-09
2.37579e-09
3.3835e-09
4.85058e-09
6.29397e-09
1.30468e-08
1.97512e-08
1.20373e-08
4.51531e-09
4.47116e-09
1.35525e-07
3.74765e-11
5.42573e-11
8.10599e-11
1.22082e-10
1.89532e-10
3.00108e-10
4.77263e-10
7.78194e-10
1.30975e-09
2.31231e-09
4.0743e-09
5.82472e-09
1.14042e-08
2.22345e-08
3.6035e-08
3.64023e-08
1.23783e-08
3.37194e-08
1.1487e-07
1.45201e-11
2.18209e-11
3.40807e-11
5.4216e-11
8.93002e-11
1.54966e-10
2.77253e-10
5.08363e-10
9.84976e-10
1.9494e-09
3.85567e-09
6.91472e-09
1.60457e-08
3.57561e-08
5.32787e-08
5.3263e-08
2.79471e-08
4.32434e-08
1.26677e-07
4.89999e-12
7.82238e-12
1.2398e-11
2.04061e-11
3.66664e-11
7.20256e-11
1.46258e-10
3.03295e-10
6.59533e-10
1.51303e-09
3.46128e-09
7.3149e-09
1.49092e-08
3.31283e-08
5.22487e-08
4.95944e-08
2.20204e-08
8.23216e-08
1.29018e-07
1.56989e-12
2.3644e-12
3.76344e-12
6.50491e-12
1.14597e-11
1.88055e-11
3.07175e-11
7.35169e-11
2.08997e-10
6.50581e-10
1.84279e-09
5.00414e-09
1.11571e-08
2.07223e-08
3.58752e-08
2.83846e-08
2.17043e-08
1.13388e-07
1.27024e-07
4.22397e-13
6.12975e-13
8.97676e-13
1.37806e-12
2.41564e-12
3.85915e-12
4.29729e-12
1.16988e-11
3.7947e-11
1.24272e-10
3.9506e-10
1.27431e-09
6.05086e-09
1.26823e-08
2.11401e-08
2.11301e-08
2.90014e-08
1.13373e-07
1.15952e-07
1.13713e-13
1.42198e-13
1.90873e-13
2.61756e-13
3.73831e-13
6.09725e-13
6.00752e-13
1.77861e-12
6.53595e-12
2.40211e-11
8.78907e-11
3.65467e-10
2.09857e-09
4.36605e-09
1.2093e-08
2.34612e-08
3.97945e-08
6.21e-08
2.33839e-07
2.77929e-14
3.45526e-14
4.24474e-14
5.41005e-14
7.83823e-14
1.21404e-13
1.87913e-13
3.85047e-13
1.44812e-12
5.33783e-12
2.04645e-11
8.25872e-11
5.26322e-10
3.04011e-09
6.91265e-09
1.98652e-08
3.48588e-08
2.27024e-08
3.55487e-07
7.27063e-15
8.20147e-15
9.63595e-15
1.27812e-14
1.91271e-14
3.42217e-14
7.21908e-14
1.73808e-13
5.56559e-13
2.09243e-12
7.6326e-12
2.95948e-11
1.54109e-10
9.26048e-10
2.4217e-09
5.3725e-09
1.74261e-08
1.43872e-08
3.84246e-07
1.87748e-15
2.11583e-15
2.49131e-15
3.3672e-15
5.64039e-15
1.20169e-14
3.21458e-14
9.96466e-14
3.28614e-13
1.02008e-12
3.83689e-12
1.50117e-11
6.77381e-11
5.1833e-10
1.61652e-09
2.58646e-09
4.17107e-09
1.26639e-08
3.84259e-07
4.66957e-16
5.41949e-16
6.75088e-16
1.03174e-15
2.05363e-15
5.09842e-15
1.5132e-14
5.04374e-14
1.76217e-13
6.44143e-13
2.32599e-12
9.45169e-12
3.50777e-11
2.57021e-10
1.31998e-09
3.18211e-09
6.21936e-09
1.37846e-08
2.88044e-07
1.14238e-16
1.35644e-16
1.87466e-16
3.4391e-16
8.11249e-16
2.27115e-15
7.07521e-15
2.36887e-14
8.29507e-14
3.07289e-13
1.15651e-12
4.9799e-12
2.10465e-11
1.00459e-10
9.79256e-10
3.65349e-09
5.86007e-09
1.77993e-08
9.67931e-08
2.46481e-17
3.10748e-17
4.79836e-17
1.05143e-16
2.95839e-16
9.23906e-16
3.00155e-15
9.7968e-15
3.25243e-14
1.11792e-13
4.12469e-13
1.62373e-12
7.95358e-12
4.3038e-11
2.80512e-10
2.12625e-09
5.53183e-09
1.00022e-08
1.87477e-08
4.83182e-18
5.94461e-18
1.02784e-17
2.64527e-17
9.16012e-17
3.39513e-16
1.22912e-15
4.27732e-15
1.49223e-14
5.31024e-14
2.02925e-13
8.57697e-13
3.89702e-12
2.19873e-11
1.27247e-10
5.92869e-10
1.78343e-09
2.47234e-09
2.70099e-10
8.06427e-19
9.57665e-19
1.52819e-18
4.05258e-18
1.64887e-17
7.59811e-17
3.30673e-16
1.32896e-15
4.92559e-15
1.78876e-14
6.95365e-14
2.92651e-13
1.36975e-12
7.17865e-12
4.14612e-11
2.11225e-10
5.71767e-10
7.74803e-10
2.69895e-10
1.06941e-19
1.14899e-19
1.55839e-19
3.4536e-19
1.35548e-18
7.29004e-18
4.02636e-17
1.99955e-16
8.78985e-16
3.37067e-15
1.1576e-14
4.27453e-14
1.64642e-13
8.13882e-13
6.20065e-12
4.27475e-11
1.46887e-10
2.1263e-10
1.31767e-10
)
;

boundaryField
{
    leftWall
    {
        type            zeroGradient;
    }
    rightWall
    {
        type            zeroGradient;
    }
    lowerWall
    {
        type            zeroGradient;
    }
    atmosphere
    {
        type            inletOutlet;
        inletValue      uniform 0;
        value           nonuniform List<scalar> 
46
(
1.55268e-07
1.31181e-07
9.06999e-08
4.07833e-08
1.08592e-08
2.25911e-09
4.29147e-10
6.72503e-11
6.34417e-12
2.93077e-13
0
0
0
0
0
0
0
0
1.5902e-16
3.38679e-16
3.46596e-16
9.96319e-17
1.0183e-17
0
0
0
0
0
0
0
0
0
0
0
0
0
0
0
0
0
0
0
4.27475e-11
1.46887e-10
2.1263e-10
0
)
;
    }
    defaultFaces
    {
        type            empty;
    }
}


// ************************************************************************* //
