/*--------------------------------*- C++ -*----------------------------------*\
| =========                 |                                                 |
| \\      /  F ield         | OpenFOAM: The Open Source CFD Toolbox           |
|  \\    /   O peration     | Version:  2312                                  |
|   \\  /    A nd           | Website:  www.openfoam.com                      |
|    \\/     M anipulation  |                                                 |
\*---------------------------------------------------------------------------*/
FoamFile
{
    version     2.0;
    format      ascii;
    arch        "LSB;label=32;scalar=64";
    class       volScalarField;
    location    "4.55";
    object      alpha.oil;
}
// * * * * * * * * * * * * * * * * * * * * * * * * * * * * * * * * * * * * * //

dimensions      [0 0 0 0 0 0 0];

internalField   nonuniform List<scalar> 
2268
(
7.84565e-10
9.5006e-10
1.11005e-09
3.27331e-09
8.08223e-09
9.20063e-09
7.35642e-09
4.90024e-09
3.01198e-09
2.10235e-09
1.40363e-09
9.92282e-10
7.48788e-10
6.49131e-10
7.27358e-10
1.14577e-09
2.09274e-09
2.60747e-09
2.70303e-09
2.71826e-09
3.19456e-05
4.54284e-05
4.54284e-05
8.34657e-10
8.22729e-10
4.23629e-09
2.48777e-08
5.83809e-08
7.1673e-08
6.71878e-08
4.14137e-08
1.8385e-08
1.03686e-08
5.53604e-09
3.18219e-09
2.21594e-09
1.8557e-09
2.03539e-09
4.34384e-09
1.01254e-08
4.23734e-08
3.10781e-08
2.8622e-09
5.49652e-06
2.8894e-05
2.55857e-05
1.63248e-08
1.20926e-08
1.75017e-08
3.19514e-08
7.88725e-08
8.74065e-08
8.83842e-08
6.58325e-08
2.57765e-08
1.00473e-08
5.60907e-09
3.87137e-09
5.50693e-09
7.80954e-09
7.98658e-09
4.46391e-09
4.80858e-08
5.57942e-07
5.9633e-07
2.86169e-07
4.56063e-09
5.92644e-07
3.87101e-07
2.21943e-08
2.01693e-08
2.29004e-08
2.68399e-08
2.81964e-08
2.63159e-08
2.28628e-08
1.87872e-08
1.94022e-08
4.42259e-08
3.75124e-08
1.60971e-08
1.54337e-08
8.14776e-09
1.31916e-08
7.01682e-09
3.07486e-08
1.26579e-07
1.88177e-07
6.66309e-08
4.46335e-09
3.4583e-09
1.42541e-07
0.00129159
0.00160458
0.00176472
0.00143426
0.000690046
0.000140889
6.67856e-06
7.69313e-06
3.11127e-05
9.82456e-05
6.37457e-05
5.2104e-06
1.92623e-05
3.26039e-05
1.60069e-06
1.15798e-09
9.51852e-15
1.00495e-14
3.11103e-15
4.48742e-23
-2.07741e-11
2.18572e-25
2.87356e-08
0.0055451
0.00554689
0.0055451
0.00554689
0.0049083
0.00200012
0.000118749
7.47078e-05
0.000317609
0.000654965
0.000652372
0.000200566
0.000401012
0.00118668
0.00105237
0.000283289
1.34456e-05
0.00603593
0.033448
0.0581566
0.0554883
0.00074931
1.57774e-08
0.00245996
0.00293545
0.00393743
0.00446055
0.0037875
0.00215092
0.000261212
9.85343e-05
0.000327179
0.000648001
0.000657252
0.000596776
0.00010791
0.000665645
0.00381203
0.000482063
0.00105205
0.065025
0.0977463
0.0977523
0.0977501
0.0954987
1.54869e-08
-2.59149e-24
-1.69957e-20
1.20264e-08
-1.06901e-08
-1.58631e-26
-5.98893e-25
0.000173521
4.52802e-05
4.68183e-05
0.000166681
0.000241233
0.00016031
0.000104336
0.000141504
0.00394365
0.0136764
0.0389712
0.0589197
0.0623173
0.0784878
0.0977523
0.0977501
0.0569765
0.0266325
0.0266325
0.0266325
0.0266325
0.0266325
0.0266325
0.0266325
0.0266325
0.0266325
0.0266326
0.0266326
0.0266326
0.0273232
0.0282332
0.028069
0.0272229
0.0267713
0.0267713
0.0267713
0.0266325
0.0312913
0.0282665
0.0266325
0.0272456
0.027966
0.0460846
0.065187
0.0951403
0.118978
0.108556
0.100768
0.0952936
0.0855507
0.0815387
0.0831733
0.0848994
0.0825946
0.080879
0.190117
0.132709
0.112281
0.144528
0.195241
0.252028
0.290498
0.364265
0.464735
0.489808
0.489892
0.489928
0.492492
0.469405
0.443588
0.435298
0.427188
0.422907
0.422533
0.258004
0.247171
0.230295
0.228531
0.209391
0.153466
0.115079
0.106561
0.105664
0.237817
0.486673
0.492553
0.492568
0.492522
0.352725
0.385143
0.316502
0.240329
0.393664
0.257979
0.120978
0.0856515
0.0416407
0.0203219
0.0229722
0.0239132
0.0117796
0.00935465
0.00936939
0.234796
0.231885
0.424905
0.370501
0.0792543
0.0525147
0.0428257
0.0422352
0.197998
0.235922
0.00359621
0.00358901
0.00359793
0.0035943
0.0290096
0.0454521
0.0136884
0.00994319
0.0122025
0.089127
0.0871912
0.152923
0.182662
0.0811359
0.0305839
0.0305719
0.030555
0.0884734
0.134747
0.00359813
0.00396562
0.00612526
0.00560178
0.0190082
0.0644259
0.0124786
0.00734045
0.00966656
0.019295
0.0213029
0.0225222
0.0227507
0.0380417
0.0573582
0.0375958
0.0305719
0.044009
0.00804989
0.00455456
0.0594874
0.0725013
0.0116522
0.0308973
0.0661365
0.0106168
0.00634106
0.00634722
0.00650843
0.00662764
0.0161644
0.0193611
0.0507543
0.0706777
0.0466813
0.0376874
0.0418769
-6.70936e-22
1.22646e-08
1.3142e-06
8.92893e-07
4.25473e-08
2.88283e-07
1.33827e-05
1.26613e-05
6.74173e-06
1.16008e-05
4.97345e-05
0.000101205
9.18449e-05
0.000134589
0.000930573
0.00966664
0.023379
0.0162115
0.0103874
0.00682463
0.0153724
0.0155081
0.0312176
-1.48318e-20
0.000118154
0.0012524
0.000843708
3.45707e-05
-1.33042e-10
-1.35639e-08
1.51961e-20
-4.55917e-09
-1.75499e-08
-1.19015e-07
-1.87533e-07
-1.23545e-07
-1.20569e-07
2.62081e-05
0.000339287
0.00035294
9.27854e-05
9.26855e-05
0.000314015
0.000421203
0.000231205
0.000119993
0.368155
0.400343
0.457238
0.44554
0.376458
0.265953
0.160932
0.114269
0.0960084
0.0656803
0.0327611
0.0183733
0.0183824
0.0336822
0.0342217
0.0227618
0.0290079
0.0605058
0.057173
0.0507857
0.0610372
0.0718316
0.0376236
0.936158
0.962963
0.992336
0.992685
0.923185
0.814659
0.762659
0.765694
0.763694
0.688699
0.60569
0.575033
0.657444
0.810325
0.855781
0.832044
0.762169
0.751453
0.744554
0.766644
0.776954
0.777157
0.607765
0.977061
0.990064
0.995225
0.994299
0.956415
0.945677
0.995198
0.998461
0.99604
0.951335
0.931296
0.934894
0.990841
0.999667
0.999653
0.998437
0.994753
0.992309
0.994241
0.997136
0.996985
0.987274
0.962905
0.998383
0.998396
0.998389
0.998438
0.998287
0.998414
0.998536
0.998535
0.998528
0.987567
0.970702
0.984408
0.999667
0.999667
0.999667
0.999667
0.999667
0.999667
0.999552
0.998248
0.997123
0.981373
0.9639
0.99839
0.99818
0.998348
0.998376
0.996526
0.994376
0.993075
0.992982
0.996212
0.999226
0.999272
0.999618
0.999667
0.999667
0.999633
0.999667
0.999637
0.999459
0.999588
0.999605
0.999475
0.989931
0.975525
0.659776
0.658791
0.664309
0.624026
0.52656
0.475608
0.475113
0.49222
0.572508
0.674211
0.779178
0.847084
0.904337
0.945147
0.970489
0.984231
0.988281
0.98474
0.992652
0.999452
0.999487
0.993322
0.979165
0.0266898
0.0262717
0.0286535
0.0226814
0.00697371
0.00224504
0.00191137
0.00128255
1.57941e-19
-1.81423e-19
0.0067262
0.0833183
0.151167
0.22855
0.311213
0.403564
0.510483
0.609336
0.679052
0.721327
0.750265
0.750336
0.606625
1.63043e-14
5.09307e-16
4.96702e-21
9.77959e-17
2.23344e-20
9.77898e-17
6.86502e-21
2.78797e-13
1.1425e-09
7.74364e-08
7.99584e-12
2.20352e-12
1.30016e-12
9.65623e-13
1.10373e-12
8.73555e-17
1.317e-16
1.12641e-11
0.00819593
0.0277428
0.0322438
0.0207141
0.000882654
1.81773e-12
1.95845e-11
1.08221e-11
1.04375e-12
2.10921e-15
2.17913e-15
8.09674e-08
6.85326e-08
1.09868e-10
1.75294e-07
1.40263e-05
1.1668e-05
5.65571e-06
5.24132e-06
6.16856e-06
1.21731e-06
2.51439e-08
8.04267e-09
1.17656e-14
7.07639e-15
5.57069e-15
4.81192e-13
5.90755e-11
1.98856e-12
3.71287e-12
1.13953e-13
2.67407e-14
6.49357e-16
4.84076e-08
4.04618e-07
3.71124e-07
-1.09803e-09
1.0594e-05
5.67764e-05
5.83527e-05
4.40964e-05
3.77068e-05
3.62342e-05
1.41929e-05
6.7412e-08
5.13859e-08
7.9505e-08
1.70793e-07
1.11065e-09
1.00564e-06
3.03311e-06
9.87009e-10
2.90958e-12
1.21784e-09
1.6628e-08
2.5258e-08
4.31745e-07
4.75019e-07
3.44722e-07
3.69894e-06
5.66437e-05
5.83528e-05
5.83527e-05
5.77795e-05
5.45504e-05
5.37103e-05
2.88709e-05
1.77037e-08
3.49672e-09
1.64051e-06
3.12606e-06
3.25476e-06
1.39793e-05
1.66883e-05
8.31173e-09
1.81099e-08
3.02919e-08
6.56636e-08
4.13818e-07
5.77896e-07
4.72887e-07
3.32307e-07
1.61276e-06
4.32746e-05
5.83527e-05
5.83569e-05
2.80712e-05
1.53678e-05
1.16843e-05
4.77951e-06
6.15977e-08
3.49669e-09
8.02838e-06
1.67291e-05
1.67088e-05
1.66895e-05
1.66903e-05
1.94814e-08
3.93746e-08
5.63513e-08
1.32081e-07
2.67216e-07
3.22263e-07
3.04067e-07
5.7339e-07
7.70608e-07
4.13787e-06
8.6304e-06
4.5686e-06
3.46394e-08
8.18928e-26
-6.39536e-13
1.9322e-13
3.19941e-08
3.49737e-09
6.78729e-06
1.66255e-05
1.6685e-05
1.67043e-05
1.03935e-05
2.39295e-08
3.18338e-08
4.53854e-08
8.71665e-08
1.00107e-07
9.87322e-08
1.74572e-07
3.5594e-07
1.48524e-07
6.66452e-09
6.70047e-09
6.66509e-09
6.98748e-09
7.81656e-09
2.97026e-14
2.80045e-07
5.91585e-07
2.87148e-07
3.06068e-09
7.33404e-06
1.64484e-05
2.82439e-06
2.63018e-07
1.89417e-08
2.02005e-08
3.46004e-08
5.32674e-08
6.65695e-08
7.38724e-08
8.17437e-08
2.8285e-08
1.55816e-08
2.59257e-08
2.24219e-08
9.82809e-09
1.01333e-08
1.25337e-08
2.7258e-08
6.909e-08
7.02964e-08
2.17887e-08
3.04516e-09
1.78521e-07
7.5185e-06
3.17779e-06
2.91609e-07
1.52077e-08
1.68847e-08
2.76159e-08
4.49338e-08
5.63303e-08
4.91599e-08
2.11485e-08
9.89599e-09
1.19743e-08
1.39707e-08
8.97315e-09
5.12052e-09
6.46129e-09
6.87398e-09
5.43063e-09
4.17783e-09
2.90926e-09
2.92213e-09
3.00737e-09
3.04515e-09
2.00618e-06
2.29076e-06
3.07386e-07
4.5875e-09
1.20962e-08
2.092e-08
3.09404e-08
3.13846e-08
2.40987e-08
1.37952e-08
9.23349e-09
7.55953e-09
5.6711e-09
3.93785e-09
3.15239e-09
3.11944e-09
2.72435e-09
2.55036e-09
2.71932e-09
2.89638e-09
3.20776e-09
3.9745e-09
3.45675e-09
3.46573e-09
6.59425e-07
3.48531e-07
3.15037e-09
9.44951e-09
1.54165e-08
2.03656e-08
1.88615e-08
1.45955e-08
9.57129e-09
6.52077e-09
4.60682e-09
3.32037e-09
2.49159e-09
2.0917e-09
1.90725e-09
1.84317e-09
2.0359e-09
2.39932e-09
2.80611e-09
3.17384e-09
3.59554e-09
3.4658e-09
3.4752e-09
2.97151e-07
3.22869e-07
2.83455e-09
6.97461e-09
1.04511e-08
1.22525e-08
1.08135e-08
8.43598e-09
5.79661e-09
3.8716e-09
2.61087e-09
1.85776e-09
1.4487e-09
1.25825e-09
1.20821e-09
1.27682e-09
1.45915e-09
1.74083e-09
2.12442e-09
2.64592e-09
3.32645e-09
4.35479e-09
4.49619e-09
3.22168e-08
1.05704e-07
2.66923e-09
5.06089e-09
6.83585e-09
7.24155e-09
6.14434e-09
4.59963e-09
3.06953e-09
1.97955e-09
1.31766e-09
9.4631e-10
7.53733e-10
6.69984e-10
6.63814e-10
7.25108e-10
8.55509e-10
1.05724e-09
1.34148e-09
1.74191e-09
2.24849e-09
3.36402e-09
4.32785e-09
4.47474e-09
2.74561e-08
2.57707e-09
3.68045e-09
4.35634e-09
4.18773e-09
3.33789e-09
2.34556e-09
1.51369e-09
9.89283e-10
6.90698e-10
5.14746e-10
4.08117e-10
3.49665e-10
3.36245e-10
3.70057e-10
4.51219e-10
5.85278e-10
7.8022e-10
1.05247e-09
1.40758e-09
2.00063e-09
2.77377e-09
4.1269e-09
9.50324e-09
2.50979e-09
2.82789e-09
2.88097e-09
2.5061e-09
1.90868e-09
1.33104e-09
8.81268e-10
6.37318e-10
4.98067e-10
3.9083e-10
2.98951e-10
2.28113e-10
1.89865e-10
1.89544e-10
2.27777e-10
3.06128e-10
4.28247e-10
6.0111e-10
8.37267e-10
1.18663e-09
1.55998e-09
2.48177e-09
4.13747e-09
2.50519e-09
2.35707e-09
2.13159e-09
1.77072e-09
1.39557e-09
1.05133e-09
7.14525e-10
5.86627e-10
5.09099e-10
4.15396e-10
3.11721e-10
2.14911e-10
1.45949e-10
1.13094e-10
1.15845e-10
1.51793e-10
2.20054e-10
3.24835e-10
4.64361e-10
6.62406e-10
8.94663e-10
1.23808e-09
1.8857e-09
2.54385e-09
2.14988e-09
1.83655e-09
1.5796e-09
1.39938e-09
1.13669e-09
7.27168e-10
6.33514e-10
5.80213e-10
4.88921e-10
3.71183e-10
2.49893e-10
1.52726e-10
9.21433e-11
6.78286e-11
7.4305e-11
1.06866e-10
1.65795e-10
2.50608e-10
3.71204e-10
4.97849e-10
7.40786e-10
9.92847e-10
2.62165e-09
2.10583e-09
1.81237e-09
1.69409e-09
1.65478e-09
1.31077e-09
7.20875e-10
6.80573e-10
6.47085e-10
5.59373e-10
4.35675e-10
2.99109e-10
1.80855e-10
9.87324e-11
5.39279e-11
4.06245e-11
5.1176e-11
8.14084e-11
1.29659e-10
1.99427e-10
2.92656e-10
4.11339e-10
5.7519e-10
2.72169e-09
2.15751e-09
1.92802e-09
1.88488e-09
1.65444e-09
1.22447e-09
6.83051e-10
7.52246e-10
6.87134e-10
6.03106e-10
4.80962e-10
3.41559e-10
2.11607e-10
1.15718e-10
5.63269e-11
2.94679e-11
2.61878e-11
3.96494e-11
6.7653e-11
1.13542e-10
1.71375e-10
2.78525e-10
3.74604e-10
2.80346e-09
2.25375e-09
1.97447e-09
2.01171e-09
1.00602e-08
5.57286e-10
7.3038e-10
1.01565e-09
6.76247e-10
6.08046e-10
4.9149e-10
3.59763e-10
2.31716e-10
1.31804e-10
6.40766e-11
2.83218e-11
1.65695e-11
2.0563e-11
3.62795e-11
6.36038e-11
1.13222e-10
1.72607e-10
2.68397e-10
2.92832e-09
3.24392e-09
2.23304e-09
2.0243e-09
1.95208e-08
4.53e-10
1.05233e-09
2.11923e-09
5.69746e-10
5.3607e-10
4.49877e-10
3.4713e-10
2.33131e-10
1.3882e-10
7.02794e-11
3.0712e-11
1.38233e-11
1.21636e-11
2.08072e-11
3.95623e-11
6.77939e-11
1.30338e-10
1.89444e-10
3.95515e-09
5.53612e-09
3.06972e-08
2.47393e-07
5.13331e-10
4.52654e-10
1.49772e-09
4.61309e-09
4.30119e-10
4.68483e-10
3.92582e-10
3.08681e-10
2.13641e-10
1.31465e-10
7.13581e-11
3.25624e-11
1.32864e-11
8.1861e-12
1.22276e-11
2.40267e-11
4.97718e-11
8.51816e-11
1.41532e-10
5.55455e-09
1.07936e-08
6.74751e-08
3.51408e-07
1.57997e-08
5.85405e-09
3.10077e-08
2.64775e-09
3.95925e-10
4.23736e-10
3.24026e-10
2.5234e-10
1.757e-10
1.12954e-10
6.47968e-11
3.15682e-11
1.30027e-11
6.08568e-12
7.16188e-12
1.44893e-11
2.87614e-11
6.45544e-11
1.00074e-10
8.25308e-09
5.89771e-08
1.572e-07
3.05026e-07
2.58636e-08
1.51857e-08
6.29296e-08
6.13732e-10
4.06035e-10
3.72302e-10
2.48586e-10
1.90805e-10
1.34117e-10
8.63142e-11
5.18227e-11
2.72701e-11
1.19109e-11
4.88283e-12
4.0455e-12
8.184e-12
1.86178e-11
3.47877e-11
7.23763e-11
1.02913e-08
1.1167e-07
8.27707e-07
3.72014e-07
6.39087e-08
7.55163e-08
7.02513e-08
8.46665e-09
5.79797e-10
3.09765e-10
1.78465e-10
1.35258e-10
9.44709e-11
5.93048e-11
3.60725e-11
2.04014e-11
9.80383e-12
4.00092e-12
2.40031e-12
4.18216e-12
9.26006e-12
2.56532e-11
4.0742e-11
1.29284e-08
1.78043e-07
8.37416e-07
8.25974e-07
1.35371e-07
1.40726e-07
7.44002e-08
1.0813e-08
8.91954e-10
2.40094e-10
1.20192e-10
9.06049e-11
6.10216e-11
3.67957e-11
2.16611e-11
1.28655e-11
6.84552e-12
3.00603e-12
1.50765e-12
2.11469e-12
4.69485e-12
1.03873e-11
2.56754e-11
1.20993e-08
1.78911e-07
8.37416e-07
8.37357e-07
1.30064e-07
1.48394e-07
6.42327e-08
1.19633e-08
1.18658e-09
1.82057e-10
7.49509e-11
5.53851e-11
3.64367e-11
2.05906e-11
1.13275e-11
6.6716e-12
3.94427e-12
1.95751e-12
9.25697e-13
1.07407e-12
2.47942e-12
6.24117e-12
1.19144e-11
1.11767e-08
1.57092e-07
8.37416e-07
8.37414e-07
1.4038e-07
1.45547e-07
5.92952e-08
1.3799e-08
1.73261e-09
1.54878e-10
4.28811e-11
3.10797e-11
2.00783e-11
1.04988e-11
5.18746e-12
2.82701e-12
1.75149e-12
1.01307e-12
5.04703e-13
4.15624e-13
8.87789e-13
2.09536e-12
6.48747e-12
7.87915e-09
1.19856e-07
8.37416e-07
7.37925e-07
1.43198e-07
9.41915e-08
4.42156e-08
1.35154e-08
2.25679e-09
1.8138e-10
2.27254e-11
1.53332e-11
9.92755e-12
4.92279e-12
2.13586e-12
9.98495e-13
5.86052e-13
3.87906e-13
2.30549e-13
1.75638e-13
3.64261e-13
9.40987e-13
2.15724e-12
4.37188e-09
1.04011e-07
8.21997e-07
3.09448e-07
1.10252e-07
6.06718e-08
2.84778e-08
9.4522e-09
1.80244e-09
1.77502e-10
1.19298e-11
6.39725e-12
4.2756e-12
2.05597e-12
7.94919e-13
2.94776e-13
1.45696e-13
1.02794e-13
7.79253e-14
6.09996e-14
1.05485e-13
3.0041e-13
7.95378e-13
4.31237e-09
1.0347e-07
2.43918e-07
1.05591e-07
7.36525e-08
5.14737e-08
2.14231e-08
6.10391e-09
1.0897e-09
9.91538e-11
4.99253e-12
2.02677e-12
1.46226e-12
7.16548e-13
2.58225e-13
7.84917e-14
2.79832e-14
1.78105e-14
1.73657e-14
1.84035e-14
3.01072e-14
9.13028e-14
2.45672e-13
4.31237e-09
7.36487e-08
1.12434e-07
5.80241e-08
5.88725e-08
3.59809e-08
1.14573e-08
2.43273e-09
3.36286e-10
2.33275e-11
8.68289e-13
4.14806e-13
3.38699e-13
1.75698e-13
6.20642e-14
1.61593e-14
3.94942e-15
2.00537e-15
2.73928e-15
4.07335e-15
7.42772e-15
2.44893e-14
7.21309e-14
5.16769e-09
9.00908e-09
2.907e-08
4.94691e-08
3.91059e-08
1.25471e-08
2.24147e-09
2.79715e-10
1.87266e-11
6.43688e-13
3.20886e-14
4.09329e-14
3.93193e-14
2.23806e-14
8.15097e-15
1.88118e-15
3.39213e-16
1.41518e-16
3.0493e-16
7.67861e-16
1.8664e-15
6.0504e-15
1.95318e-14
0.0174579
0.0127112
0.00539413
0.00725942
5.98162e-05
4.10148e-05
0.000303454
0.00572468
0.0231036
0.0352818
0.0306997
0.0252832
0.37027
0.316386
0.391414
0.598985
0.95491
0.9651
0.967234
0.974392
0.965595
0.986328
0.999105
0.999105
0.98799
0.995201
0.99562
0.998794
0.968828
0.969421
0.976073
0.987176
0.408506
0.422956
0.531452
0.544635
3.59484e-15
5.89114e-16
8.10549e-22
1.8614e-21
1.76499e-07
6.18295e-08
1.25809e-11
1.35248e-09
3.31533e-06
9.45187e-07
9.95283e-08
1.09666e-07
1.66906e-05
8.71992e-06
1.1317e-06
2.54395e-07
1.66908e-05
1.66945e-05
1.241e-05
1.08598e-06
2.3119e-06
4.29674e-07
4.16715e-07
6.81486e-07
2.61332e-07
3.9497e-07
4.18661e-07
1.08466e-05
1.49577e-07
3.39646e-08
7.6697e-06
2.05579e-05
9.84754e-08
2.66438e-08
9.63494e-07
1.42928e-05
9.25435e-08
2.5987e-08
5.10147e-07
9.47538e-07
1.56363e-07
2.66521e-08
1.0757e-07
8.56361e-08
9.89288e-08
2.85639e-08
1.73638e-08
1.73759e-08
3.39454e-08
1.76665e-08
1.73731e-08
4.07021e-08
1.4246e-08
1.57044e-08
2.21334e-08
3.48847e-08
6.13066e-09
6.60384e-09
1.17209e-08
1.45803e-08
2.45111e-09
2.91191e-09
3.51304e-09
4.93324e-09
1.2262e-09
1.39912e-09
1.68747e-09
1.96804e-09
7.04291e-10
7.96982e-10
9.21156e-10
1.04314e-09
4.70475e-10
5.50509e-10
6.33531e-10
7.05113e-10
3.38701e-10
4.0693e-10
4.7626e-10
5.35928e-10
2.52405e-10
3.19758e-10
3.74693e-10
4.34293e-10
1.9734e-10
2.40977e-10
2.98031e-10
3.42177e-10
1.46273e-10
1.88119e-10
2.23542e-10
2.71553e-10
1.01379e-10
1.25993e-10
1.62851e-10
1.85455e-10
7.1919e-11
8.48402e-11
1.02901e-10
1.30033e-10
3.7755e-11
4.87723e-11
6.3167e-11
7.22487e-11
2.13426e-11
2.61971e-11
3.28848e-11
4.14993e-11
9.82592e-12
1.30666e-11
1.60698e-11
1.91275e-11
4.19769e-12
5.03889e-12
6.65859e-12
8.28121e-12
1.3788e-12
1.84078e-12
2.28799e-12
2.88626e-12
4.35854e-13
5.64876e-13
7.67006e-13
9.53687e-13
1.26225e-13
1.65466e-13
2.06145e-13
2.58785e-13
3.29929e-14
3.85133e-14
4.56457e-14
5.19928e-14
0.00839189
0.0609375
0.104585
0.104
0.0337459
0.0342558
0.0174898
0.0349029
0.248142
0.164403
0.0348626
0.00722555
0.00979872
0.0121942
0.0607322
0.0549829
0.0545887
0.0633274
0.0438886
0.0087852
0.064043
0.0918999
0.0322347
0.0258277
0.0396206
0.020587
0.584936
0.914917
0.793976
0.599662
0.362963
0.0920032
0.068153
0.110232
0.186773
0.246807
0.150027
0.0565503
0.0556715
0.237694
0.310603
0.20232
0.0807004
0.145268
0.626446
0.977722
0.97509
0.914902
0.888481
0.878653
0.738202
0.717966
0.787999
0.831133
0.872468
0.873921
0.834203
0.793221
0.884089
0.804915
0.615149
0.471832
0.611415
0.985661
0.995561
0.995439
0.994471
0.965218
0.966781
0.994771
0.994406
0.996043
0.996611
0.996011
0.996099
0.993639
0.99374
0.994915
0.959621
0.787151
0.706723
0.817091
0.997636
0.997637
0.997637
0.997637
0.997637
0.997479
0.990047
0.989019
0.989799
0.997067
0.997069
0.994639
0.991481
0.999105
0.999105
0.990472
0.847468
0.727211
0.8088
0.997577
0.997637
0.997637
0.997637
0.99763
0.997473
0.997473
0.997135
0.997149
0.997091
0.996531
0.954138
0.898814
0.999105
0.999105
0.999032
0.921936
0.780768
0.805255
0.975828
0.997636
0.997636
0.989763
0.956937
0.93323
0.904888
0.867676
0.813487
0.744288
0.558353
0.35205
0.302175
0.998195
0.998507
0.999081
0.997935
0.992206
0.979572
0.951331
0.924016
0.789299
0.505526
0.314637
0.23213
0.155914
0.0955654
0.0435823
6.79362e-10
-7.34624e-13
5.52326e-10
8.4609e-14
0.544372
0.583962
0.621406
0.623028
0.567835
0.448459
0.320784
0.226142
0.12325
0.0122023
1.43173e-15
1.58496e-15
-3.794e-23
-8.42789e-10
1.62832e-07
3.58589e-07
4.11434e-06
3.96329e-06
5.52326e-10
2.07793e-20
-1.77787e-11
-2.81391e-10
-1.90138e-09
-2.34368e-25
4.17616e-16
5.8038e-23
-4.4617e-24
-3.66327e-08
1.17231e-10
7.62264e-09
1.79767e-07
1.35809e-06
1.23407e-06
7.22642e-06
6.18883e-05
8.75874e-05
4.85546e-05
2.31382e-05
9.90496e-10
2.7956e-12
1.79937e-10
8.5218e-09
4.38227e-08
2.7636e-07
8.35879e-07
2.28632e-06
6.10448e-06
5.26868e-06
7.78909e-09
1.08702e-06
1.35492e-06
1.4569e-06
8.7854e-06
0.000105651
0.000117772
0.000117801
6.40765e-05
7.54049e-08
8.21057e-09
3.7568e-08
6.99101e-08
4.70616e-08
4.91134e-07
1.17751e-06
2.30971e-06
5.7045e-06
1.85512e-05
1.87084e-05
2.89403e-05
1.59e-05
1.56345e-06
2.83272e-06
4.52197e-05
0.000117753
0.000117771
0.000110833
1.60986e-07
1.91107e-07
2.35905e-07
2.34258e-07
4.55103e-08
6.58836e-06
1.21482e-05
8.77875e-06
6.02598e-05
5.81771e-05
4.65588e-05
7.02758e-05
0.000102077
5.97924e-05
3.70595e-06
1.82115e-05
0.000117727
0.000117754
1.17116e-05
2.38332e-07
4.71656e-07
4.02033e-07
3.32255e-06
1.26046e-05
5.49104e-05
7.97455e-05
0.000150778
0.000189775
0.000120937
7.56937e-05
0.000184018
0.000184046
8.64461e-05
3.74203e-06
9.6948e-05
0.00011771
0.000115502
1.17376e-05
1.01852e-06
3.72155e-06
3.03427e-06
6.05007e-05
7.5514e-05
7.62547e-05
0.000162107
0.000215758
0.000215251
0.000215385
0.00020612
0.000127437
5.98959e-05
2.20651e-05
2.21939e-05
0.000112218
0.000117685
3.79848e-05
1.16399e-05
1.44167e-05
1.10603e-05
6.36504e-05
7.77484e-05
7.73462e-05
9.81153e-05
0.000214813
0.000215818
0.00014613
1.77986e-05
7.12761e-06
7.85642e-06
9.79287e-06
2.29957e-05
3.8822e-05
2.30425e-05
6.82666e-05
2.63567e-05
1.18481e-05
1.79783e-05
8.11962e-07
1.25637e-05
4.08571e-05
3.44948e-05
6.60496e-05
0.000192892
6.61671e-05
5.44953e-06
5.0089e-06
4.99921e-06
5.47264e-06
1.17896e-05
1.95609e-05
1.48623e-05
9.53472e-06
9.36841e-06
2.42902e-05
1.31022e-05
3.20486e-07
7.98293e-07
4.20704e-06
5.08275e-06
5.35699e-06
9.11997e-06
5.59878e-06
4.09369e-06
4.49908e-06
7.55719e-06
5.11652e-06
4.16516e-06
4.13889e-06
1.46937e-05
1.93179e-06
1.04312e-05
1.10657e-05
4.85028e-06
5.36348e-06
3.22508e-07
4.51553e-08
4.31054e-06
6.94939e-06
3.73694e-06
3.74341e-06
3.75058e-06
4.09208e-06
4.10715e-06
6.75817e-06
5.80109e-06
7.99462e-06
9.63308e-06
1.10361e-06
1.15273e-07
1.05085e-05
1.35642e-05
1.49077e-07
1.35016e-07
5.65115e-08
2.56847e-08
2.17824e-08
4.97867e-06
1.33378e-05
1.37514e-05
1.38776e-05
7.2083e-06
8.09419e-06
1.0282e-05
2.4515e-05
3.66848e-05
3.02177e-05
8.51432e-06
5.9767e-07
4.72742e-06
1.77265e-05
4.70927e-06
1.34994e-07
8.05391e-08
6.65212e-08
2.48219e-08
2.25216e-08
4.15343e-06
8.84504e-06
2.84793e-06
4.48886e-07
1.28679e-05
3.50235e-05
3.65499e-05
3.6662e-05
3.66848e-05
2.91307e-05
1.11443e-06
2.7113e-06
2.50143e-05
1.08456e-05
1.36588e-07
8.14559e-08
7.83298e-08
4.78637e-08
7.35878e-08
1.88489e-07
1.82168e-07
4.19271e-07
4.46698e-07
7.27171e-08
2.35426e-08
2.32269e-08
1.62914e-05
3.0633e-05
1.04944e-05
7.53028e-08
2.36935e-06
2.50389e-05
1.3014e-05
2.35777e-07
4.3182e-08
5.45091e-08
6.0983e-08
6.44194e-08
6.25341e-08
5.47412e-08
4.64409e-08
4.52471e-08
5.51336e-08
4.55719e-08
2.2931e-08
1.53549e-08
1.53501e-08
1.53491e-08
1.53216e-08
1.53492e-08
2.14219e-05
8.99708e-06
2.10925e-07
1.82106e-08
2.46475e-08
3.47786e-08
4.14463e-08
4.1728e-08
3.99653e-08
3.56578e-08
2.98701e-08
3.05366e-08
4.05873e-08
3.71829e-08
2.61408e-08
2.71521e-08
1.93664e-08
1.53499e-08
4.4023e-08
8.04054e-06
3.46728e-06
2.11062e-07
6.43694e-09
8.07423e-09
1.08116e-08
1.39746e-08
1.64153e-08
1.94561e-08
2.16826e-08
2.1597e-08
2.36445e-08
3.42546e-08
5.2271e-08
6.64715e-08
6.6741e-08
4.27885e-08
3.85562e-08
1.57e-06
2.4627e-07
1.59082e-07
1.64976e-07
2.26117e-09
2.80527e-09
3.58303e-09
4.41839e-09
5.63322e-09
7.45429e-09
9.4192e-09
1.18091e-08
1.3471e-08
1.82345e-08
3.22988e-08
4.61259e-08
4.58466e-08
3.40893e-08
3.27278e-08
4.71356e-07
2.42758e-07
8.31033e-08
9.44161e-08
1.17173e-09
1.389e-09
1.70139e-09
2.12877e-09
2.78763e-09
3.65811e-09
4.88533e-09
6.48051e-09
8.42521e-09
1.16096e-08
1.62259e-08
2.18572e-08
2.59751e-08
3.0625e-08
1.00352e-07
2.64718e-07
1.6051e-07
8.35141e-08
7.33538e-08
7.8004e-10
9.49695e-10
1.17616e-09
1.47103e-09
1.89137e-09
2.4857e-09
3.27125e-09
4.36317e-09
6.13426e-09
9.06798e-09
1.37761e-08
1.76853e-08
2.02178e-08
4.83359e-08
1.1159e-07
1.23464e-07
5.56015e-08
6.03764e-08
5.09214e-08
6.14753e-10
7.7043e-10
9.76281e-10
1.23944e-09
1.60051e-09
2.09088e-09
2.72386e-09
3.55348e-09
4.82275e-09
6.6909e-09
9.46503e-09
1.12161e-08
1.57885e-08
6.53462e-08
8.98422e-08
5.59161e-08
2.88354e-08
2.87171e-08
4.40301e-08
5.01315e-10
6.54025e-10
8.52469e-10
1.11629e-09
1.50476e-09
2.03126e-09
2.73572e-09
3.64403e-09
4.716e-09
6.11536e-09
8.2153e-09
9.71852e-09
1.21816e-08
6.57848e-08
6.73427e-08
2.90878e-08
2.70101e-08
3.69971e-08
4.87326e-08
4.12008e-10
5.45691e-10
7.34474e-10
1.01754e-09
1.44054e-09
2.07834e-09
3.02783e-09
4.28791e-09
5.78564e-09
7.5512e-09
1.05581e-08
1.36955e-08
9.12068e-09
3.15025e-08
4.14963e-08
2.90735e-08
3.96009e-08
5.56521e-08
5.94486e-08
3.18747e-10
4.36387e-10
6.03739e-10
8.73748e-10
1.34902e-09
2.08842e-09
3.33722e-09
5.10774e-09
7.43115e-09
1.01572e-08
1.62746e-08
2.79629e-08
9.39431e-09
1.18231e-08
2.24885e-08
8.35098e-08
1.15638e-07
2.31056e-07
7.48017e-08
2.33374e-10
3.16652e-10
4.60637e-10
7.03983e-10
1.1572e-09
1.98858e-09
3.53003e-09
6.14276e-09
9.72346e-09
1.38791e-08
2.44488e-08
7.0282e-08
4.47259e-08
1.11052e-08
1.11151e-08
8.56048e-08
2.48742e-07
3.03302e-07
2.37814e-06
1.49567e-10
2.17273e-10
3.25675e-10
5.22503e-10
9.33857e-10
1.77067e-09
3.49607e-09
6.85472e-09
1.25312e-08
1.87519e-08
3.33597e-08
1.5086e-07
6.10249e-07
6.17994e-07
1.11052e-08
4.91333e-08
2.20809e-07
3.94145e-07
2.86209e-06
9.1705e-11
1.30416e-10
2.0215e-10
3.50832e-10
6.74979e-10
1.41298e-09
3.09253e-09
6.77322e-09
1.37749e-08
2.51357e-08
4.22844e-08
9.61131e-08
1.41353e-06
6.36973e-06
4.32073e-06
4.91154e-08
1.58882e-07
3.65415e-07
2.86218e-06
4.84358e-11
7.15714e-11
1.13654e-10
2.05192e-10
4.27925e-10
9.8588e-10
2.39076e-09
5.67703e-09
1.2655e-08
2.53487e-08
4.68392e-08
1.0027e-07
9.1775e-07
6.5806e-06
6.90817e-06
3.26947e-06
1.56968e-07
2.53559e-07
2.20112e-06
2.3055e-11
3.45645e-11
5.59875e-11
1.05788e-10
2.37781e-10
5.9625e-10
1.56962e-09
4.03439e-09
9.55346e-09
2.12543e-08
4.20829e-08
1.06461e-07
2.47023e-07
2.27023e-06
6.94699e-06
6.76599e-06
4.34561e-07
2.50238e-07
6.45937e-07
9.99967e-12
1.48283e-11
2.44486e-11
4.79927e-11
1.12382e-10
3.03393e-10
8.67425e-10
2.41847e-09
6.20752e-09
1.48241e-08
3.12575e-08
7.43527e-08
1.54902e-07
3.78924e-07
3.99322e-06
7.01514e-06
6.31023e-06
1.30568e-06
2.29023e-06
3.66604e-12
5.60895e-12
9.28673e-12
1.84381e-11
4.44915e-11
1.25762e-10
3.8673e-10
1.15803e-09
3.18619e-09
7.64144e-09
1.76185e-08
3.8209e-08
8.91087e-08
1.67733e-07
3.62841e-07
4.10464e-06
6.40046e-06
2.6512e-06
2.29879e-06
1.1557e-12
1.70279e-12
2.96702e-12
6.0144e-12
1.53508e-11
4.69941e-11
1.59168e-10
5.39876e-10
1.72798e-09
4.88741e-09
1.22376e-08
2.79671e-08
6.34617e-08
1.32403e-07
2.45319e-07
4.95959e-07
1.11792e-06
1.43501e-06
5.24657e-07
3.01872e-13
4.4132e-13
7.2382e-13
1.43072e-12
3.61251e-12
1.15067e-11
4.25813e-11
1.66812e-10
6.16365e-10
2.05003e-09
6.22326e-09
1.6868e-08
4.31924e-08
9.79485e-08
1.59094e-07
1.88076e-07
2.4028e-07
2.82259e-07
1.3971e-07
5.80026e-14
7.8948e-14
1.22492e-13
2.30963e-13
5.31703e-13
1.53945e-12
5.64517e-12
2.41039e-11
1.06732e-10
4.22313e-10
1.33869e-09
3.75869e-09
8.95545e-09
2.47213e-08
8.37799e-08
1.4387e-07
1.1679e-07
1.05948e-07
1.04502e-07
)
;

boundaryField
{
    leftWall
    {
        type            zeroGradient;
    }
    rightWall
    {
        type            zeroGradient;
    }
    lowerWall
    {
        type            zeroGradient;
    }
    atmosphere
    {
        type            inletOutlet;
        inletValue      uniform 0;
        value           nonuniform List<scalar> 
46
(
5.16769e-09
9.00908e-09
2.907e-08
4.94691e-08
3.91059e-08
1.25471e-08
2.24147e-09
2.79715e-10
1.87266e-11
0
0
0
0
0
0
0
0
0
3.0493e-16
7.67861e-16
1.8664e-15
6.0504e-15
1.95318e-14
0
0
0
0
0
0
0
0
0
0
0
0
0
0
0
0
0
0
0
1.4387e-07
1.1679e-07
1.05948e-07
1.04502e-07
)
;
    }
    defaultFaces
    {
        type            empty;
    }
}


// ************************************************************************* //
