/*--------------------------------*- C++ -*----------------------------------*\
| =========                 |                                                 |
| \\      /  F ield         | OpenFOAM: The Open Source CFD Toolbox           |
|  \\    /   O peration     | Version:  2312                                  |
|   \\  /    A nd           | Website:  www.openfoam.com                      |
|    \\/     M anipulation  |                                                 |
\*---------------------------------------------------------------------------*/
FoamFile
{
    version     2.0;
    format      ascii;
    arch        "LSB;label=32;scalar=64";
    class       volScalarField;
    location    "4.55";
    object      alpha.water;
}
// * * * * * * * * * * * * * * * * * * * * * * * * * * * * * * * * * * * * * //

dimensions      [0 0 0 0 0 0 0];

internalField   nonuniform List<scalar> 
2268
(
3.3438e-07
3.3421e-07
2.40468e-07
5.93437e-08
6.43267e-09
1.45802e-09
1.03411e-09
5.86198e-10
2.3296e-10
1.36849e-10
9.54874e-11
7.60607e-11
6.68326e-11
6.56492e-11
7.176e-11
8.63496e-11
1.11909e-10
1.57775e-10
2.23019e-10
3.97577e-10
8.15454e-10
1.3251e-09
1.44753e-09
2.29441e-07
1.57566e-07
6.58804e-08
2.19863e-08
4.03762e-10
1.8397e-10
2.02165e-10
2.0944e-10
2.18836e-10
2.15832e-10
1.88024e-10
1.54964e-10
1.25097e-10
1.07742e-10
1.09675e-10
1.24694e-10
1.66765e-10
2.59981e-10
4.23041e-10
6.32657e-10
1.19147e-09
1.53361e-09
1.53649e-09
4.7988e-08
2.62158e-08
9.81983e-09
2.51256e-10
2.51067e-10
3.21561e-10
6.07204e-10
7.25155e-10
8.46071e-10
8.45216e-10
7.46413e-10
5.79466e-10
4.92433e-10
3.09098e-10
2.16297e-10
2.33276e-10
3.31199e-10
7.26795e-10
9.41419e-10
1.00618e-09
1.23225e-09
1.22641e-09
9.58814e-10
3.10019e-08
1.84514e-08
6.26661e-09
1.66038e-09
2.59007e-10
6.24643e-10
1.14819e-09
1.06854e-09
9.60445e-10
9.86823e-10
9.05859e-10
4.93038e-10
3.55009e-09
6.15529e-09
5.72535e-09
2.91343e-09
1.0831e-09
5.43121e-10
5.40147e-10
5.14084e-10
4.69527e-10
3.90111e-10
3.03861e-10
0.00311462
0.00277063
0.00192937
0.000812513
5.65171e-05
-6.42182e-15
-2.97618e-13
1.70554e-19
-9.09698e-20
-1.76585e-13
-2.23627e-13
-3.72717e-13
-8.69174e-13
-3.14185e-14
-1.44648e-10
7.80107e-11
7.49288e-11
5.55398e-11
6.45194e-11
2.0489e-11
2.01368e-12
8.15466e-21
1.02614e-20
0.508564
0.502804
0.487008
0.458727
0.418718
0.364607
0.303688
0.237077
0.170538
0.112643
0.0668793
0.0335652
0.0118505
0.00250515
3.78877e-05
8.87441e-17
1.0874e-23
-1.979e-09
-3.88289e-10
-2.46931e-11
-2.23707e-13
0.0560129
0.0696403
0.996671
0.996253
0.995064
0.994212
0.994885
0.996535
0.983663
0.953947
0.910213
0.853265
0.78469
0.702604
0.607881
0.512605
0.447565
0.414719
0.415935
0.372851
0.370381
0.421368
0.508221
0.581176
0.7324
0.999721
0.999724
0.999724
0.999589
0.999255
0.999582
0.999572
0.999693
0.999724
0.999724
0.999653
0.999724
0.999724
0.999724
0.987961
0.972403
0.947111
0.92818
0.928381
0.91018
0.890341
0.892524
0.929559
0.0147483
0.0100912
0.00609508
0.00716104
0.0100232
0.0114656
0.0112618
0.0101478
0.0103351
0.0104656
0.0103584
0.00749447
0.00549375
0.0045822
0.00474098
0.00473435
0.00383438
0.00467794
0.00484669
0.0260915
0.00285191
0.00204389
0.00230237
0.00186493
0.000883684
0.000364462
0.000355836
0.000358322
0.000355836
0.000362581
0.000361939
0.000369428
0.000367639
0.000371108
0.00036874
0.000372659
0.000371834
0.000375763
0.0124183
0.000686373
0.000686492
0.000686774
0.000687217
0.000711185
0.0568458
0.0962363
0.0968919
0.104801
0.10084
0.0856821
0.0599791
0.0621757
0.0769076
0.0906573
0.112759
0.143138
0.15066
0.134699
0.141419
0.178687
0.258154
0.410225
0.601815
0.749864
0.807823
0.845668
0.729109
0.480191
0.479494
0.473745
0.468431
0.618555
0.585613
0.658709
0.740958
0.586796
0.63036
0.796017
0.835316
0.904072
0.934964
0.922204
0.91546
0.957193
0.974131
0.97143
0.741706
0.759856
0.555602
0.605021
0.894966
0.919976
0.920016
0.91998
0.782455
0.755721
0.990276
0.987396
0.990666
0.991478
0.927394
0.927067
0.974131
0.974187
0.972153
0.903261
0.90906
0.843197
0.812089
0.888379
0.906082
0.89772
0.907467
0.890897
0.856907
0.992582
0.992582
0.991294
0.991892
0.967672
0.921067
0.97415
0.974216
0.974275
0.974216
0.974187
0.974087
0.973858
0.936198
0.833606
0.853138
0.884858
0.919047
0.98771
0.992583
0.937964
0.924008
0.985787
0.966683
0.922934
0.974083
0.97327
0.955359
0.961594
0.97284
0.974058
0.97401
0.908763
0.834238
0.887839
0.919044
0.919048
0.99736
0.999724
0.999724
0.999724
0.999724
0.999724
0.999724
0.999722
0.999724
0.999724
0.999724
0.999724
0.999724
0.999724
0.999025
0.990275
0.976563
0.983687
0.989506
0.992997
0.981515
0.983201
0.967502
0.966701
0.990797
0.995395
0.996044
0.994514
0.993875
0.994796
0.995993
0.9979
0.999419
0.999698
0.999504
0.999304
0.999721
0.999723
0.999566
0.999577
0.999509
0.99892
0.998884
0.998853
0.998821
0.972474
0.591473
0.568255
0.530697
0.542831
0.596376
0.679395
0.774111
0.826695
0.856345
0.894994
0.931503
0.945243
0.939795
0.935458
0.954816
0.940029
0.902389
0.868685
0.878917
0.890203
0.888856
0.878194
0.907335
0.0234561
0.00960696
-1.03079e-21
4.01619e-20
0.0219955
0.108645
0.161441
0.165244
0.172082
0.243092
0.32603
0.357483
0.27506
0.125373
0.104184
0.14095
0.170829
0.176178
0.187456
0.194962
0.188914
0.182105
0.344811
-1.28896e-09
-2.88749e-11
-4.24542e-20
-1.28915e-18
7.57563e-21
1.57793e-19
-4.03892e-09
-9.95681e-19
1.55849e-11
1.66285e-16
2.69662e-16
6.59888e-15
3.15645e-15
1.27762e-06
-1.08257e-09
2.79133e-19
2.55272e-19
-5.02126e-09
-2.0515e-09
-2.93676e-07
-1.06991e-06
-1.17788e-07
0.0013756
3.68743e-06
3.04775e-08
-7.89373e-24
8.90554e-07
4.67734e-15
-4.67734e-15
5.62518e-06
0.000109966
0.000118345
2.01806e-05
8.4393e-08
6.61822e-06
3.85771e-05
0.000121612
0.00015028
3.74176e-05
3.47855e-06
0.000102473
0.000396182
0.00170547
0.001711
0.00129093
0.000935281
1.15539e-05
0.000203277
7.98808e-05
7.73857e-05
0.00176801
0.00392395
0.00554531
0.00566243
0.00203598
0.000512424
0.000489283
0.000263732
5.89764e-05
0.00015223
0.000297542
0.000248688
0.000268104
0.000401803
0.000225641
0.000189744
0.000187488
0.00741905
0.0186702
8.10456e-05
0.000337554
0.000340566
0.00377091
0.00651539
0.00650711
0.00649914
0.00649221
0.00648333
0.00647427
0.00272826
1.83509e-05
1.87763e-05
3.30208e-05
0.00192307
0.00537166
0.00960504
0.0152597
0.00728105
0.000359161
0.000402846
0.00667643
0.0186757
0.000654659
0.000333636
0.000306542
0.00415714
0.00652391
0.0065113
0.00510375
0.00424298
0.000885849
3.44952e-05
1.37863e-05
4.21244e-05
6.31537e-05
0.000344938
0.0105975
0.0167891
0.0167912
0.0167891
0.0167912
0.0152076
0.00823169
0.0106882
0.018669
0.000660539
0.000614683
0.000209999
0.00260305
0.00652756
0.00440756
0.0003279
0.000160467
3.6696e-05
1.2487e-06
1.58601e-05
0.000142042
0.000401276
0.000866909
0.00169682
0.00599927
0.0112621
0.0109137
0.00705056
0.00480459
0.00877651
0.0181647
0.0186643
0.000660761
0.000473434
0.000123121
0.000521926
0.00308326
0.000621528
2.12839e-08
7.78715e-14
2.3119e-11
7.21827e-07
2.05105e-06
4.54569e-07
4.74991e-07
6.82315e-07
2.57278e-07
2.88515e-07
2.11614e-13
1.60402e-13
2.84418e-13
6.23779e-08
7.63365e-05
0.000800842
0.00121543
0.000100145
3.71285e-05
6.17311e-06
7.90435e-08
4.57826e-08
4.29135e-08
4.0489e-08
2.20629e-09
2.75345e-10
4.22473e-06
5.35823e-06
3.65909e-06
4.21388e-06
1.04488e-05
1.00619e-05
4.19391e-06
2.6354e-07
1.36376e-07
1.79249e-07
2.37042e-07
5.86938e-08
4.36176e-08
1.87994e-08
1.31402e-07
1.13245e-07
6.67691e-08
3.64896e-07
2.57881e-07
5.69961e-08
1.54595e-07
1.26907e-09
2.85496e-06
4.93415e-06
5.14751e-06
1.17558e-05
1.55871e-05
1.86412e-05
1.87429e-05
1.89214e-05
1.02174e-05
3.95191e-07
1.14083e-06
3.18463e-06
3.86417e-06
7.51959e-06
1.47046e-05
2.21731e-07
1.54246e-07
7.63298e-08
2.36086e-07
1.53827e-07
5.0969e-08
4.71915e-08
3.2226e-06
5.08322e-06
3.41296e-06
1.50897e-06
2.25552e-06
1.50235e-05
1.87919e-05
1.88365e-05
1.88736e-05
1.88365e-05
2.72006e-06
4.2243e-06
1.93686e-05
1.93114e-05
1.93905e-05
1.93971e-05
1.01484e-07
5.18237e-08
3.57041e-08
6.47268e-08
3.43512e-08
2.53079e-08
6.17266e-08
2.7654e-06
3.05129e-06
7.32205e-07
6.0114e-07
1.32524e-06
2.25929e-07
1.70894e-08
1.07916e-05
1.88365e-05
1.6532e-05
7.76032e-07
6.05309e-06
1.92667e-05
1.93024e-05
1.94195e-05
1.59213e-05
3.70403e-08
1.62302e-08
2.23555e-08
3.20821e-08
2.76451e-08
2.53175e-08
1.94042e-07
2.61868e-07
3.89419e-08
4.95176e-09
7.87146e-08
1.4125e-07
9.58251e-08
1.69064e-08
6.1169e-07
4.10624e-06
3.35278e-06
4.87415e-07
2.9055e-09
8.35859e-06
1.5016e-05
2.95712e-06
6.63514e-07
9.04971e-09
5.58636e-09
1.07607e-08
1.9707e-08
2.88052e-08
2.86253e-08
6.65805e-08
8.17029e-09
5.5457e-09
4.91781e-09
1.13896e-08
1.76867e-08
1.18435e-08
1.67363e-08
5.09289e-08
2.53248e-09
2.55572e-09
1.52199e-08
3.03737e-09
1.30167e-09
3.67198e-06
1.97007e-06
5.46392e-07
8.31819e-09
4.12341e-09
6.80149e-09
1.31067e-08
1.97169e-08
1.59067e-08
4.26647e-09
4.17746e-09
4.65713e-09
3.12347e-09
4.37624e-09
3.3521e-09
1.9101e-09
1.85356e-09
3.85502e-09
4.26215e-09
2.5843e-09
1.2975e-09
1.33508e-09
1.29842e-09
1.05483e-06
1.5627e-06
5.93676e-07
1.79369e-08
3.0865e-09
4.19643e-09
6.80365e-09
7.07198e-09
4.97748e-09
2.75096e-09
2.54933e-09
2.18165e-09
1.29275e-09
1.24058e-09
1.04687e-09
9.75249e-10
1.11313e-09
1.35665e-09
1.3581e-09
1.22199e-09
9.85557e-10
1.2132e-09
1.29496e-09
1.18257e-09
3.26572e-07
4.28881e-07
1.89225e-08
2.26287e-09
2.35176e-09
3.29133e-09
2.70618e-09
1.84512e-09
1.27026e-09
1.05483e-09
7.99949e-10
5.63074e-10
5.21308e-10
5.49993e-10
7.10032e-10
8.56448e-10
9.74248e-10
9.98338e-10
9.03904e-10
8.81945e-10
1.10377e-09
1.38366e-09
1.17229e-09
6.09669e-08
7.8707e-08
1.89225e-08
1.53504e-09
1.13136e-09
1.37169e-09
9.37676e-10
6.60895e-10
5.07994e-10
3.95088e-10
3.08852e-10
2.51801e-10
2.40764e-10
2.6953e-10
3.39114e-10
3.90291e-10
4.29389e-10
4.39787e-10
4.27463e-10
4.60871e-10
5.93606e-10
9.02427e-10
1.16229e-09
5.34646e-09
7.20459e-09
1.88199e-08
1.00961e-09
5.42191e-10
5.92915e-10
3.97318e-10
2.96252e-10
2.32822e-10
1.80709e-10
1.45209e-10
1.20033e-10
1.09636e-10
1.12882e-10
1.28163e-10
1.42061e-10
1.54185e-10
1.63223e-10
1.70639e-10
1.95041e-10
2.60871e-10
4.50325e-10
7.19731e-10
5.56113e-10
4.71141e-09
1.878e-08
6.45626e-10
3.11577e-10
3.12842e-10
2.35706e-10
1.94771e-10
1.65152e-10
1.37426e-10
1.08877e-10
8.05201e-11
6.11155e-11
5.12922e-11
4.83218e-11
4.95e-11
5.34541e-11
5.91251e-11
6.65815e-11
8.03433e-11
1.10252e-10
1.83501e-10
3.23849e-10
5.55238e-10
2.50528e-09
1.88293e-08
3.98138e-10
2.46383e-10
2.3788e-10
2.17064e-10
2.09507e-10
1.97804e-10
1.7691e-10
1.36661e-10
9.04074e-11
5.71884e-11
3.65955e-11
2.51812e-11
1.99811e-11
1.89622e-11
2.08786e-11
2.49147e-11
3.19809e-11
4.56683e-11
7.49821e-11
1.22763e-10
2.50617e-10
6.53055e-10
1.88672e-08
2.88586e-10
2.44601e-10
2.55546e-10
2.82061e-10
3.00023e-10
2.98119e-10
2.64572e-10
2.03015e-10
1.29015e-10
7.42597e-11
4.18835e-11
2.32036e-11
1.30584e-11
8.60753e-12
7.52372e-12
8.91341e-12
1.22037e-11
1.80308e-11
2.93023e-11
4.82544e-11
8.33004e-11
1.75147e-10
1.88218e-08
2.78035e-10
2.78786e-10
3.25254e-10
3.74235e-10
4.30119e-10
4.31033e-10
3.85952e-10
3.06057e-10
1.91226e-10
1.03313e-10
5.58111e-11
2.93091e-11
1.43939e-11
6.81247e-12
3.78655e-12
3.32285e-12
4.52501e-12
7.10134e-12
1.19329e-11
1.87621e-11
3.61543e-11
6.17233e-11
1.90156e-08
2.78013e-10
3.19139e-10
4.2077e-10
6.08821e-10
8.95496e-10
8.70987e-10
5.4119e-10
4.36081e-10
2.74348e-10
1.39063e-10
7.32212e-11
3.85379e-11
1.87538e-11
8.15145e-12
3.30378e-12
1.68019e-12
1.71835e-12
2.66298e-12
4.5412e-12
7.85484e-12
1.32183e-11
2.42005e-11
2.00015e-08
3.05e-10
3.7866e-10
5.4808e-10
1.00579e-09
1.34642e-09
2.30193e-09
6.82379e-10
5.602e-10
3.70231e-10
1.75689e-10
9.015e-11
4.8089e-11
2.41176e-11
1.06447e-11
4.09671e-12
1.48028e-12
7.44168e-13
9.73869e-13
1.72338e-12
2.92148e-12
5.88447e-12
9.53577e-12
2.09625e-08
3.77926e-10
6.39553e-10
5.50073e-10
5.55487e-10
5.6308e-10
6.42507e-09
6.96949e-10
6.45411e-10
4.65191e-10
2.06834e-10
1.01526e-10
5.52892e-11
2.89868e-11
1.33442e-11
5.31049e-12
1.83334e-12
6.02157e-13
3.68507e-13
5.69776e-13
1.10962e-12
1.81444e-12
3.6049e-12
2.17748e-08
4.48527e-10
1.00405e-09
1.21748e-09
7.67117e-09
1.8314e-07
8.44636e-08
6.36031e-10
6.93506e-10
5.81113e-10
2.38239e-10
1.0551e-10
5.80126e-11
3.18611e-11
1.54583e-11
6.47928e-12
2.28674e-12
6.84016e-13
1.96165e-13
2.00739e-13
3.27817e-13
7.23299e-13
1.14772e-12
2.25694e-08
5.47702e-10
5.4999e-10
4.47612e-08
7.56149e-07
8.95158e-07
3.34198e-07
6.31447e-10
7.71814e-10
6.4076e-10
2.33037e-10
9.65936e-11
5.47231e-11
3.13516e-11
1.64162e-11
7.39288e-12
2.7794e-12
8.44438e-13
2.00084e-13
7.15532e-14
1.20564e-13
2.01909e-13
3.83429e-13
2.1939e-08
1.05819e-09
1.50434e-08
4.3842e-07
1.00719e-06
9.82148e-07
1.33606e-07
6.31278e-10
1.14791e-09
6.25532e-10
2.03248e-10
7.94511e-11
4.5987e-11
2.79158e-11
1.55639e-11
7.58481e-12
3.08673e-12
1.03061e-12
2.44894e-13
3.82291e-14
3.57918e-14
7.68712e-14
1.19538e-13
2.16368e-08
2.85982e-09
1.25486e-07
9.31183e-07
1.02988e-06
5.52238e-07
7.9895e-10
1.88942e-09
1.65228e-09
5.49125e-10
1.60279e-10
5.96884e-11
3.55453e-11
2.20536e-11
1.30156e-11
6.91329e-12
3.0985e-12
1.1241e-12
3.06537e-13
5.03718e-14
1.19919e-14
1.73303e-14
3.84783e-14
2.70673e-08
3.33816e-09
2.31552e-07
8.98439e-07
8.34676e-07
3.14843e-08
8.00944e-10
2.73923e-09
1.6374e-09
4.20725e-10
1.15142e-10
4.17951e-11
2.51807e-11
1.55864e-11
9.48445e-12
5.47227e-12
2.74229e-12
1.0987e-12
3.27433e-13
5.67585e-14
5.32931e-15
6.24174e-15
9.66666e-15
4.71848e-08
8.31015e-09
2.12526e-07
3.98088e-07
1.51868e-07
1.46183e-09
1.46135e-09
2.41706e-09
1.02052e-09
2.75523e-10
7.47257e-11
2.74554e-11
1.62554e-11
9.89024e-12
5.96095e-12
3.6693e-12
2.0662e-12
9.37955e-13
3.18802e-13
6.42252e-14
3.72116e-15
1.44294e-15
2.98768e-15
5.15808e-08
1.12638e-08
1.69645e-07
2.25944e-07
2.66517e-08
4.173e-09
2.51452e-09
1.682e-09
5.2649e-10
1.61736e-10
4.31357e-11
1.62965e-11
9.67051e-12
5.62855e-12
3.25311e-12
2.03235e-12
1.28732e-12
6.80032e-13
2.63448e-13
6.84366e-14
4.6176e-15
6.22704e-16
7.28311e-16
5.27978e-08
1.09507e-08
7.58758e-08
4.95966e-09
7.37072e-09
5.20928e-09
3.13706e-09
1.30154e-09
3.36901e-10
8.77955e-11
2.16294e-11
8.84547e-12
5.30111e-12
2.89701e-12
1.54273e-12
9.18033e-13
6.21153e-13
3.89366e-13
1.8325e-13
5.68631e-14
6.91034e-15
3.26943e-16
2.01672e-16
5.01226e-08
8.84406e-09
7.21376e-09
1.61363e-09
2.37872e-09
4.8063e-09
3.03159e-09
1.28907e-09
3.50048e-10
5.54612e-11
9.3784e-12
4.25925e-12
2.61262e-12
1.36106e-12
6.48222e-13
3.41318e-13
2.25004e-13
1.63015e-13
9.69057e-14
3.88133e-14
5.99546e-15
2.99146e-16
5.2583e-17
6.95475e-08
7.1674e-09
1.61361e-09
1.61443e-09
8.13678e-09
8.2077e-09
3.48698e-09
1.2627e-09
3.29888e-10
4.62393e-11
4.21032e-12
1.78497e-12
1.12827e-12
5.67656e-13
2.42161e-13
1.03706e-13
5.96828e-14
4.68619e-14
3.63201e-14
1.97454e-14
4.69893e-15
2.86848e-16
1.78482e-17
1.14183e-07
2.34111e-09
1.61444e-09
2.10796e-08
2.27839e-08
9.33511e-09
2.90643e-09
9.48806e-10
2.19247e-10
2.74271e-11
1.85378e-12
5.92304e-13
3.91178e-13
1.9827e-13
7.84236e-14
2.7659e-14
1.18703e-14
8.67261e-15
8.68321e-15
7.29361e-15
2.46173e-15
2.44506e-16
1.15589e-17
1.49093e-07
2.91707e-08
1.61362e-09
4.1162e-08
2.26659e-08
6.97338e-09
1.88122e-09
4.42865e-10
7.52334e-11
7.03029e-12
3.48287e-13
1.29064e-13
9.3362e-14
4.93363e-14
1.89885e-14
5.69762e-15
1.69236e-15
1.02069e-15
1.42268e-15
1.81372e-15
9.96292e-16
1.70961e-16
1.44388e-17
1.55084e-07
1.27141e-07
8.49468e-08
4.12887e-08
1.10852e-08
2.29071e-09
4.35356e-10
6.79061e-11
6.51793e-12
3.00441e-13
1.60037e-14
1.3994e-14
1.14254e-14
6.51783e-15
2.58581e-15
6.96235e-16
1.54069e-16
7.47955e-17
1.60266e-16
3.41822e-16
3.48096e-16
9.93908e-17
1.01257e-17
0.981179
0.981446
0.981451
0.979664
0.960833
0.958596
0.968171
0.987089
0.922794
0.961046
0.966402
0.971786
0.605778
0.660549
0.576005
0.369291
0.0104106
0.00140125
-3.58287e-23
-6.22236e-24
0.000693087
5.16011e-05
6.20072e-05
4.29953e-05
0.00789975
0.000916165
0.00151382
0.000743594
0.0186689
0.0186716
0.0186615
0.00947787
0.0186715
0.01866
0.0186627
0.0186553
0.0152621
0.0059128
0.00272924
0.00137941
1.33978e-12
2.49826e-12
2.87631e-15
1.12179e-12
2.7108e-07
5.72517e-07
6.49347e-08
2.28476e-08
1.33795e-05
7.39398e-06
1.52493e-06
2.03458e-07
1.93947e-05
1.93972e-05
1.30054e-05
6.08528e-07
6.31393e-06
6.72133e-07
3.66122e-07
5.02223e-07
9.46952e-07
5.52259e-07
3.57758e-07
1.36952e-05
5.37982e-07
4.44934e-07
2.31327e-05
4.67615e-05
3.32097e-07
3.3556e-07
5.60264e-06
4.17498e-05
3.29608e-07
4.04046e-07
4.12245e-07
9.03168e-06
1.4467e-07
2.15846e-07
6.83206e-07
8.65608e-07
1.17894e-08
1.64733e-07
3.79473e-07
3.12307e-07
9.71359e-09
4.42098e-08
1.07595e-07
9.35256e-08
6.87482e-09
1.13331e-08
1.66403e-08
1.74503e-08
1.44255e-09
1.6331e-09
2.32406e-09
2.53819e-09
2.9253e-10
3.67102e-10
4.37096e-10
5.74382e-10
9.09937e-11
1.1689e-10
1.52736e-10
1.8833e-10
3.5492e-11
4.51212e-11
5.94633e-11
7.45398e-11
1.43392e-11
1.91031e-11
2.44815e-11
3.04221e-11
5.26072e-12
6.83554e-12
8.97199e-12
1.10658e-11
1.73534e-12
2.39683e-12
3.01262e-12
3.90621e-12
5.72936e-13
7.11657e-13
9.66485e-13
1.15424e-12
1.80684e-13
2.31273e-13
2.78112e-13
3.59899e-13
5.23812e-14
6.28403e-14
8.05872e-14
8.92726e-14
1.69591e-14
1.87609e-14
2.14193e-14
2.62596e-14
4.18254e-15
5.12561e-15
6.10187e-15
6.46845e-15
1.18771e-15
1.35492e-15
1.57802e-15
1.79157e-15
3.00428e-16
3.69079e-16
4.12735e-16
4.42968e-16
7.01736e-17
7.82034e-17
9.53355e-17
1.06279e-16
1.34492e-17
1.68341e-17
1.92023e-17
2.20081e-17
2.69333e-18
3.05771e-18
3.82543e-18
4.37477e-18
5.79417e-19
5.83786e-19
6.60447e-19
7.69328e-19
1.63238e-19
1.02711e-19
1.00419e-19
1.05246e-19
0.988355
0.936197
0.892277
0.890531
0.962627
0.963368
0.965069
0.940329
0.699011
0.729158
0.853536
0.89954
0.973279
0.973985
0.879232
0.870891
0.91905
0.919051
0.91905
0.988358
0.9335
0.905643
0.942904
0.94515
0.905257
0.873891
0.347491
0.0343323
0.0899598
0.284272
0.520971
0.821142
0.848268
0.845817
0.787283
0.735681
0.83419
0.919048
0.941599
0.75467
0.633325
0.651235
0.725062
0.661854
0.21565
-1.58643e-09
3.87188e-13
1.14969e-15
4.0885e-16
0.0119185
0.159718
0.22785
0.200437
0.156986
0.113008
0.1147
0.159462
0.185148
0.0799206
0.0632937
0.187223
0.331902
0.229172
-3.25951e-07
-3.05367e-09
8.63594e-06
4.40059e-06
1.14969e-15
4.08848e-16
5.437e-07
-5.26169e-08
-5.63944e-07
-3.24967e-06
-1.97721e-06
0.00117333
0.000610641
-2.45548e-07
-1.55527e-21
9.4214e-21
0.0245972
0.101057
0.0797101
0.00026066
3.45585e-05
5.12955e-05
0.000325004
0.000338949
9.74182e-05
5.07323e-05
8.63089e-05
0.000105687
0.000515337
0.00065142
0.000554314
0.00114484
2.29673e-08
-2.12606e-22
-7.09933e-12
0.00839311
0.0848274
0.0868454
0.00113403
0.000272466
1.79421e-05
0.000510517
0.00131977
0.00154575
0.00124221
0.000817646
0.000638693
0.00062201
0.000637569
0.000866436
0.00114773
0.000285192
0.000116616
-2.70561e-07
0.00450419
0.0571002
0.0876426
0.0236403
0.000553246
1.77746e-05
1.76814e-05
0.000251438
0.00272407
0.00358022
0.00358036
0.00303043
0.00249514
0.00249361
0.0021563
0.000676344
0.00103891
0.00105178
0.000494427
0.00181806
0.00725474
0.0120647
0.0185886
0.00658547
0.000292984
1.76815e-05
1.76976e-05
0.00130195
0.00330033
0.00300703
0.00229366
0.00186224
0.00154554
0.00102533
4.18115e-05
0.015502
0.00481815
0.00176766
0.00292799
0.00360325
0.00527322
0.00597319
0.00703896
0.00282091
1.76812e-05
2.09513e-05
9.87251e-05
2.04805e-07
2.01229e-07
4.5587e-07
5.95304e-07
1.40217e-05
2.01538e-06
1.91121e-06
0.000944912
0.00128225
0.00290817
0.00375845
0.00374433
0.00346581
0.00261837
0.00245429
0.000119728
2.67749e-05
4.20077e-05
9.48321e-06
2.01285e-07
2.01454e-07
3.71404e-07
4.28965e-06
6.78525e-06
5.74664e-06
5.45402e-06
6.97159e-16
5.3967e-17
-5.64412e-11
1.08617e-16
2.13556e-16
1.50913e-11
3.69081e-12
3.16874e-11
4.80839e-07
1.34659e-05
3.09705e-05
4.79633e-07
2.03794e-07
2.32334e-07
1.14333e-06
1.05974e-05
1.18057e-05
1.17826e-05
1.17632e-05
3.84171e-08
2.22284e-07
1.45245e-07
1.89448e-08
6.95135e-09
1.10524e-07
5.78737e-07
8.06666e-07
7.05633e-07
4.5134e-06
1.01134e-05
1.18437e-06
3.22337e-07
3.52164e-07
8.29308e-07
5.31227e-06
1.18032e-05
1.10457e-05
8.14627e-06
1.28879e-07
1.65425e-07
8.46967e-08
4.15989e-08
6.72262e-09
1.25702e-06
7.01619e-06
3.24687e-06
5.41349e-06
2.56565e-06
2.54852e-06
2.63727e-06
5.0169e-06
1.99785e-06
8.41714e-07
1.94117e-06
1.1803e-05
4.29103e-06
3.62988e-07
2.37545e-07
1.79575e-07
1.87307e-07
8.82659e-07
4.65722e-06
1.34204e-05
1.36405e-05
1.40778e-05
1.41708e-05
5.81376e-06
5.83568e-06
1.93678e-05
1.97463e-05
1.05625e-05
8.4332e-07
1.9041e-06
1.14022e-05
7.67576e-08
7.7362e-08
3.32895e-06
8.19089e-06
5.66003e-06
2.02725e-05
2.12023e-05
2.12001e-05
7.41554e-06
1.87028e-05
1.92173e-05
1.93601e-05
1.88189e-05
2.03249e-05
2.03245e-05
1.0846e-05
9.81231e-07
2.29557e-06
4.48502e-06
8.67101e-08
1.0333e-07
4.23654e-05
4.20165e-05
3.37588e-05
2.59924e-05
1.81934e-05
6.17853e-06
6.07771e-06
5.66665e-06
1.03541e-05
2.31723e-05
1.42445e-05
1.35373e-05
1.15304e-05
1.01028e-05
1.13206e-05
2.71224e-05
1.63228e-05
4.22515e-06
1.96313e-07
4.71565e-05
2.02963e-05
5.06416e-06
7.38522e-06
2.46758e-06
4.82674e-07
7.13512e-07
3.01217e-06
2.32919e-05
2.57973e-05
2.0551e-05
1.53049e-05
2.04871e-05
2.98046e-05
3.41153e-05
3.92822e-05
3.61641e-05
1.5751e-05
3.27946e-07
4.62434e-05
3.58342e-06
1.23536e-06
8.43966e-07
4.83062e-07
4.81373e-07
5.23641e-07
4.23756e-06
3.98387e-05
4.89154e-05
4.95598e-05
4.60591e-05
4.20691e-05
2.04607e-05
3.16784e-05
3.92827e-05
3.92841e-05
2.50376e-05
3.45767e-07
5.73483e-06
3.24525e-06
2.49401e-06
9.73034e-07
1.99469e-06
1.9314e-06
2.21525e-06
2.27641e-06
6.32254e-06
3.56917e-05
4.91069e-05
4.64173e-05
2.23517e-05
1.71935e-09
1.66883e-09
3.43688e-05
3.92775e-05
2.408e-05
1.31258e-07
2.46674e-07
7.76574e-08
4.29601e-07
9.36992e-07
2.02107e-06
2.37853e-06
2.38323e-06
1.56251e-06
6.71797e-07
1.5182e-07
4.16592e-06
4.40042e-06
1.05534e-07
1.17416e-07
4.62699e-09
1.74395e-06
3.64427e-05
8.51158e-06
7.5497e-08
8.63151e-08
2.36595e-08
5.42643e-08
1.20542e-07
1.68156e-07
6.21823e-07
6.96683e-07
2.49424e-07
6.79601e-09
1.433e-07
3.71049e-07
2.28467e-06
2.65117e-06
1.37243e-06
1.64648e-09
1.30786e-09
1.08915e-05
2.63235e-06
7.5253e-08
3.03254e-08
7.19834e-09
8.76986e-09
1.14563e-08
9.067e-09
8.63994e-09
1.05904e-09
1.06405e-09
1.06779e-09
1.07282e-09
1.0839e-09
1.07302e-09
2.50282e-07
2.55122e-07
1.75348e-08
6.71466e-07
3.70556e-06
9.50788e-07
1.21227e-07
9.8527e-09
4.6139e-09
4.62912e-09
4.80941e-09
4.65997e-09
4.24964e-09
3.64053e-09
3.17389e-09
3.13749e-09
2.86966e-09
1.96238e-09
1.04168e-08
1.26589e-07
1.95718e-07
1.07723e-07
9.62241e-07
2.69776e-09
2.08181e-09
2.05188e-07
2.37175e-09
2.42304e-09
2.84905e-09
3.19846e-09
3.31256e-09
3.58484e-09
4.33113e-09
5.84626e-09
7.20627e-09
1.10105e-08
1.89697e-08
9.99212e-08
2.18992e-07
2.35693e-07
1.53356e-07
4.35161e-08
2.35363e-09
2.08114e-09
2.05158e-07
7.02125e-10
8.73647e-10
1.20075e-09
1.61703e-09
2.18167e-09
3.03958e-09
4.05725e-09
5.1788e-09
8.99049e-09
3.25177e-08
6.88259e-08
7.98896e-08
8.48899e-08
8.50292e-08
5.97671e-08
2.80369e-08
6.47811e-09
2.08187e-09
1.8131e-07
2.32449e-10
3.11507e-10
4.35641e-10
5.92449e-10
8.19693e-10
1.18084e-09
1.76525e-09
3.28339e-09
5.56549e-09
8.48948e-09
1.36948e-08
1.47809e-08
9.92881e-09
1.16498e-08
2.62815e-08
2.52043e-08
7.12834e-09
2.08129e-09
1.31982e-07
9.30674e-11
1.26362e-10
1.76206e-10
2.46554e-10
3.53737e-10
5.02676e-10
7.177e-10
1.08667e-09
1.60225e-09
2.25781e-09
3.19725e-09
4.64798e-09
6.31968e-09
1.26583e-08
1.9704e-08
1.21053e-08
4.48696e-09
4.39865e-09
1.34673e-07
3.69374e-11
5.33124e-11
7.95127e-11
1.19599e-10
1.85454e-10
2.93577e-10
4.6517e-10
7.5802e-10
1.29262e-09
2.28091e-09
4.03362e-09
5.80011e-09
1.12674e-08
2.19239e-08
3.58603e-08
3.58282e-08
1.20421e-08
3.29419e-08
1.14823e-07
1.42981e-11
2.14328e-11
3.34012e-11
5.30375e-11
8.72652e-11
1.51421e-10
2.70095e-10
4.94185e-10
9.69434e-10
1.92208e-09
3.81971e-09
6.90389e-09
1.57178e-08
3.56293e-08
5.32366e-08
5.32234e-08
2.80797e-08
4.28194e-08
1.26423e-07
4.82859e-12
7.6793e-12
1.21432e-11
1.99463e-11
3.57456e-11
7.02935e-11
1.41932e-10
2.92734e-10
6.46319e-10
1.49032e-09
3.42971e-09
7.28948e-09
1.47012e-08
3.29922e-08
5.27185e-08
5.02236e-08
2.21546e-08
8.03637e-08
1.28838e-07
1.54639e-12
2.32195e-12
3.68377e-12
6.34463e-12
1.11495e-11
1.79015e-11
2.90404e-11
6.95427e-11
1.98167e-10
6.21273e-10
1.77689e-09
4.89361e-09
1.10909e-08
2.07151e-08
3.61222e-08
2.83838e-08
2.1779e-08
1.13696e-07
1.25813e-07
4.1664e-13
6.04199e-13
8.79135e-13
1.34495e-12
2.34895e-12
3.74559e-12
4.05896e-12
1.10698e-11
3.60692e-11
1.18334e-10
3.79112e-10
1.24771e-09
6.03874e-09
1.27162e-08
2.11722e-08
2.12442e-08
2.86425e-08
1.13685e-07
1.17447e-07
1.12214e-13
1.38039e-13
1.87223e-13
2.55955e-13
3.64874e-13
5.92846e-13
5.76216e-13
1.70756e-12
6.30524e-12
2.30451e-11
8.50624e-11
3.60932e-10
2.08068e-09
4.36593e-09
1.212e-08
2.34345e-08
3.97491e-08
6.33793e-08
2.27549e-07
2.74683e-14
3.40319e-14
4.16781e-14
5.30218e-14
7.67031e-14
1.1878e-13
1.84929e-13
3.77733e-13
1.42524e-12
5.20156e-12
2.00797e-11
8.17582e-11
5.33804e-10
3.07477e-09
6.91802e-09
1.99922e-08
3.49624e-08
2.29484e-08
3.57021e-07
7.19053e-15
8.08748e-15
9.48022e-15
1.25552e-14
1.8804e-14
3.37481e-14
7.15981e-14
1.74481e-13
5.57011e-13
2.09856e-12
7.52635e-12
2.9559e-11
1.56303e-10
9.30389e-10
2.46209e-09
5.47628e-09
1.78483e-08
1.45706e-08
3.84242e-07
1.85821e-15
2.08812e-15
2.45443e-15
3.31907e-15
5.57944e-15
1.19608e-14
3.22031e-14
1.00317e-13
3.31176e-13
1.03191e-12
3.79561e-12
1.50431e-11
6.90472e-11
5.31388e-10
1.61586e-09
2.62187e-09
4.17964e-09
1.26983e-08
3.84255e-07
4.62505e-16
5.35353e-16
6.66378e-16
1.02084e-15
2.04166e-15
5.10175e-15
1.52352e-14
5.0993e-14
1.78899e-13
6.54666e-13
2.31513e-12
9.4516e-12
3.54702e-11
2.68328e-10
1.33732e-09
3.17699e-09
6.2393e-09
1.38602e-08
2.93565e-07
1.13405e-16
1.34105e-16
1.85374e-16
3.41065e-16
8.08444e-16
2.27555e-15
7.12626e-15
2.39594e-14
8.42662e-14
3.12543e-13
1.14688e-12
4.95731e-12
2.10227e-11
1.02073e-10
1.00971e-09
3.673e-09
5.82725e-09
1.79197e-08
9.78908e-08
2.42159e-17
3.08143e-17
4.74941e-17
1.04396e-16
2.9495e-16
9.2533e-16
3.01867e-15
9.89702e-15
3.30082e-14
1.12456e-13
4.12454e-13
1.62617e-12
7.97769e-12
4.32611e-11
2.8548e-10
2.16769e-09
5.56662e-09
1.02249e-08
1.87291e-08
4.78794e-18
5.8128e-18
1.01669e-17
2.62398e-17
9.11237e-17
3.38743e-16
1.23043e-15
4.30279e-15
1.50868e-14
5.40357e-14
2.0674e-13
8.43733e-13
3.90187e-12
2.21052e-11
1.28321e-10
6.01471e-10
1.82479e-09
2.50827e-09
2.69253e-10
7.98416e-19
9.45361e-19
1.50725e-18
4.00458e-18
1.6332e-17
7.53868e-17
3.28827e-16
1.32488e-15
4.93119e-15
1.80299e-14
7.05441e-14
2.98849e-13
1.39164e-12
7.33069e-12
4.14854e-11
2.13859e-10
5.77144e-10
7.75998e-10
2.69039e-10
1.05603e-19
1.13048e-19
1.52942e-19
3.38688e-19
1.33065e-18
7.16567e-18
3.96142e-17
1.96948e-16
8.66649e-16
3.32821e-15
1.14889e-14
4.26272e-14
1.62135e-13
8.11181e-13
6.24017e-12
4.33103e-11
1.48086e-10
2.13278e-10
1.3237e-10
)
;

boundaryField
{
    leftWall
    {
        type            zeroGradient;
    }
    rightWall
    {
        type            zeroGradient;
    }
    lowerWall
    {
        type            zeroGradient;
    }
    atmosphere
    {
        type            inletOutlet;
        inletValue      uniform 0;
        value           nonuniform List<scalar> 
46
(
1.55084e-07
1.27141e-07
8.49468e-08
4.12887e-08
1.10852e-08
2.29071e-09
4.35356e-10
6.79061e-11
6.51793e-12
0
0
0
0
0
0
0
0
0
1.60266e-16
3.41822e-16
3.48096e-16
9.93908e-17
1.01257e-17
0
0
0
0
0
0
0
0
0
0
0
0
0
0
0
0
0
0
0
4.33103e-11
1.48086e-10
2.13278e-10
1.3237e-10
)
;
    }
    defaultFaces
    {
        type            empty;
    }
}


// ************************************************************************* //
