/*--------------------------------*- C++ -*----------------------------------*\
| =========                 |                                                 |
| \\      /  F ield         | OpenFOAM: The Open Source CFD Toolbox           |
|  \\    /   O peration     | Version:  2312                                  |
|   \\  /    A nd           | Website:  www.openfoam.com                      |
|    \\/     M anipulation  |                                                 |
\*---------------------------------------------------------------------------*/
FoamFile
{
    version     2.0;
    format      ascii;
    arch        "LSB;label=32;scalar=64";
    class       volScalarField;
    location    "2.6";
    object      alpha.oil;
}
// * * * * * * * * * * * * * * * * * * * * * * * * * * * * * * * * * * * * * //

dimensions      [0 0 0 0 0 0 0];

internalField   nonuniform List<scalar> 
2268
(
7.63475e-10
7.12798e-10
5.54352e-10
3.3391e-10
1.85703e-10
2.87243e-10
4.0034e-10
2.19335e-09
9.16109e-10
2.44482e-10
1.00732e-10
8.5361e-11
8.32577e-11
8.48535e-11
8.72301e-11
9.20308e-11
1.08956e-10
1.67652e-10
2.51163e-10
2.51357e-10
2.51552e-10
3.22444e-05
5.54133e-05
9.89415e-10
3.69165e-10
2.9523e-10
1.94126e-10
1.80248e-10
1.80226e-10
1.23722e-07
6.05071e-08
4.79634e-09
6.56675e-10
4.49215e-10
4.04647e-10
3.17928e-10
2.94821e-10
2.72474e-10
2.39509e-10
2.28692e-10
3.32214e-10
5.71663e-10
4.33334e-10
2.51747e-10
1.83139e-05
5.54049e-05
1.78042e-10
1.78802e-10
1.78843e-10
1.79604e-10
1.79645e-10
3.41935e-06
1.79451e-06
1.92322e-09
7.03031e-10
6.61212e-10
7.14286e-10
6.75595e-10
2.93958e-10
2.39536e-10
2.39515e-10
2.39517e-10
2.68871e-10
2.61915e-10
2.15596e-10
6.46861e-11
2.83226e-08
6.68756e-07
1.84163e-05
1.79081e-06
0.000568209
0.000112573
0.000231869
0.000156918
3.28088e-05
7.91763e-10
6.61597e-10
6.61473e-10
6.61371e-10
6.6153e-10
6.61689e-10
3.51628e-07
1.71645e-07
4.41713e-07
1.43069e-07
3.50309e-09
2.01614e-10
5.74136e-11
5.73992e-11
3.16509e-08
4.08077e-08
1.34322e-07
0.00330274
0.00728715
0.00553296
0.00261373
0.000260503
6.13769e-05
0.000228192
0.000330936
0.000333875
0.000264605
0.000168847
2.13004e-05
1.59904e-06
8.45788e-07
1.78809e-06
1.48322e-06
4.73766e-07
2.34179e-07
2.37847e-07
3.18812e-07
1.50713e-07
2.06814e-08
2.06339e-08
0.00723181
0.00758307
0.00757391
0.00228873
2.6296e-05
0.000210691
0.000655386
0.000678412
0.00067843
0.000678412
0.000518919
0.000193657
7.24532e-07
7.70308e-07
7.24532e-07
6.42287e-07
4.91819e-07
4.85497e-06
3.25304e-06
1.52747e-06
2.98107e-07
1.0082e-26
7.05503e-05
0.00443943
0.00109609
-1.7772e-10
-9.07641e-10
7.28249e-05
0.000283064
0.000401045
0.00035644
0.00027268
0.000249615
0.000349359
0.00174865
0.0086869
0.0334504
0.0365125
0.0222346
0.000745251
2.36288e-22
4.50035e-25
3.10763e-27
3.01223e-10
-1.63059e-10
0.000142406
0.00197042
0.000208509
-1.07317e-08
3.17396e-05
5.38658e-05
3.87799e-05
3.25869e-06
1.24956e-06
6.8304e-07
9.69833e-06
0.00113667
0.0111282
0.0260759
0.0847976
0.112617
0.0896442
0.0614892
0.00449119
0.0499439
0.0500727
0.0453759
0.00173732
0.000145449
0.0404396
0.0402729
0.0402729
0.0403656
0.0419722
0.0423355
0.0426322
0.0425246
0.0393515
0.038524
0.0375051
0.0278909
0.0278909
0.0278909
0.0278909
0.0278909
0.0284303
0.0351736
0.0371523
0.0485303
0.0532359
0.0624239
0.0805899
0.104769
0.147167
0.171166
0.183766
0.167769
0.139528
0.126038
0.123398
0.0839552
0.0326542
0.0303277
0.0315287
0.0446902
0.0694734
0.157737
0.048453
0.162915
0.262157
0.311212
0.392992
0.485882
0.517825
0.524982
0.524977
0.507976
0.473686
0.438486
0.410472
0.333772
0.17702
0.124584
0.249602
0.418109
0.53088
0.186377
0.332481
0.303919
0.338774
0.366847
0.410987
0.433539
0.429664
0.524994
0.52499
0.525004
0.504539
0.502765
0.50218
0.365041
0.164253
0.295416
0.531759
0.531839
0.36389
0.332379
0.320892
0.22364
0.109855
0.130988
0.297751
0.204193
0.320751
0.524994
0.524985
0.414885
0.397564
0.401939
0.30404
0.149099
0.204529
0.519381
0.531839
0.36389
0.184522
0.0464202
2.73176e-06
2.75076e-06
2.84081e-06
0.191218
0.186603
0.0242723
0.460506
0.51759
0.51724
0.468273
0.365501
0.149475
0.127493
0.354319
0.531864
0.531864
0.315137
0.0411462
2.24671e-06
2.70279e-06
3.26095e-06
1.27889e-05
0.169321
0.108008
0.0242288
0.148334
0.230212
0.329469
0.220173
0.110875
0.0876046
0.115493
0.50978
0.531884
0.531858
0.0124022
2.08889e-06
2.06386e-06
2.03903e-06
2.0178e-06
3.78062e-06
0.10152
0.0318598
0.0241885
0.027074
0.0680902
0.19045
0.277747
0.149065
0.0872261
0.158967
0.499052
0.359354
0.522215
0.000886123
0.000226141
-3.21971e-09
8.36785e-07
5.41516e-07
6.94458e-23
-3.45807e-23
1.4353e-06
4.82029e-06
2.21715e-06
0.00191077
0.0536369
0.16442
0.283179
0.283225
0.268891
0.197015
0.0331032
0.00711749
0.0361321
0.0507761
0.0484168
0.0248549
7.16884e-05
3.65836e-07
-1.28987e-20
4.23045e-09
-4.22439e-22
3.79003e-22
-2.30084e-16
-3.14131e-10
-9.4837e-10
-1.06387e-09
-6.03411e-19
0.061944
0.183224
0.283227
0.258923
0.033726
0.000252679
0.000254476
0.00159403
0.00587241
0.0066142
0.00654004
0.101691
0.0003146
0.000230705
2.62776e-07
4.78388e-09
0.0104602
0.0248644
0.0731918
0.166686
0.250355
0.314941
0.34658
0.340966
0.304507
0.261885
0.225095
0.218209
0.267784
0.331878
0.330195
0.249514
0.127069
0.0979684
0.111543
0.421036
0.298544
0.304026
0.381092
0.452883
0.540213
0.70628
0.878232
0.948427
0.975469
0.969655
0.950737
0.930604
0.90245
0.835293
0.795957
0.80098
0.85094
0.884765
0.884438
0.895226
0.879668
0.848206
0.872304
0.734419
0.596704
0.736007
0.845651
0.86841
0.987862
0.999186
0.999205
0.999209
0.999212
0.999115
0.999094
0.999099
0.999101
0.980713
0.92537
0.947936
0.968741
0.956505
0.942865
0.942469
0.957279
0.923206
0.872111
0.672132
0.672375
0.672469
0.861896
0.996511
0.999171
0.990506
0.997027
0.999235
0.999237
0.999011
0.998819
0.997151
0.998161
0.998644
0.998644
0.976564
0.956221
0.95586
0.986153
0.980945
0.923196
0.824619
0.738589
0.683453
0.852081
0.893683
0.880896
0.739642
0.877719
0.998984
0.999224
0.99917
0.999114
0.997692
0.992212
0.992453
0.995113
0.998644
0.998644
0.995846
0.993099
0.995305
0.998577
0.914332
0.635896
0.834887
0.861611
0.861852
0.832465
0.405732
0.386122
0.721315
0.985916
0.970096
0.957064
0.965914
0.982357
0.991452
0.993762
0.995307
0.998123
0.998644
0.998644
0.998324
0.998477
0.998695
0.472305
0.664268
0.743366
0.708962
0.474903
0.347837
0.347357
0.398838
0.54996
0.473293
0.368185
0.309985
0.333818
0.402382
0.507606
0.60544
0.684788
0.777102
0.883621
0.963878
0.995245
0.997107
0.996801
0.0421976
0.192268
0.342224
0.47767
0.392118
0.400578
0.403388
0.317353
0.087838
4.16185e-19
3.38624e-25
-9.13661e-25
4.50243e-15
5.07389e-15
4.57906e-15
4.08172e-15
0.0233964
0.0604215
0.101102
0.208038
0.478169
0.692385
0.714053
1.15015e-08
1.15143e-08
1.15015e-08
0.00571832
0.0660398
0.0442139
0.0261131
3.1035e-08
1.76344e-15
1.01072e-06
2.16365e-06
1.84517e-06
5.22878e-07
5.52752e-07
8.55317e-07
7.09621e-10
2.18601e-10
7.30913e-07
3.18338e-07
-1.32436e-22
-1.92677e-25
1.50941e-23
-1.05931e-08
3.43595e-07
1.90881e-07
6.61878e-08
1.4099e-07
1.58343e-07
2.62493e-07
4.19713e-07
5.68725e-07
8.52429e-07
5.21689e-06
7.86505e-06
6.41148e-06
2.88633e-06
3.1888e-06
1.16999e-05
1.08899e-05
1.96562e-06
2.05335e-05
3.24062e-05
3.29296e-05
1.84668e-05
8.03843e-06
2.34755e-06
1.74385e-06
1.23962e-06
2.76869e-07
1.44652e-07
4.04831e-05
2.77763e-07
2.52196e-07
1.07191e-07
6.48962e-11
3.29239e-05
5.20079e-05
1.29788e-05
4.93664e-06
3.61841e-05
3.65224e-05
3.55726e-05
4.70019e-06
8.23062e-07
6.32796e-08
3.08267e-09
3.08258e-09
-3.65507e-10
3.01296e-11
1.91711e-06
1.38721e-06
8.67133e-07
4.91671e-05
0.00178249
0.000763707
2.9324e-05
3.06913e-11
4.47035e-15
4.89233e-05
5.57201e-05
3.26287e-05
4.71655e-05
5.48832e-05
3.23656e-05
1.80646e-07
6.03372e-06
1.71286e-05
1.88923e-05
6.82744e-06
2.96301e-08
8.10884e-07
1.2369e-06
1.91984e-06
1.65594e-06
3.69845e-06
0.00152225
0.0023721
0.00237302
0.000426837
2.20955e-09
4.94636e-11
2.54128e-05
5.5731e-05
5.57414e-05
5.37274e-05
3.46771e-05
9.15777e-08
2.03816e-07
5.50298e-05
9.97615e-05
9.28981e-05
6.67146e-05
3.73877e-07
7.48919e-07
1.23387e-05
1.92358e-06
1.01834e-06
1.04224e-06
0.00237005
0.00237177
0.0023431
0.000578113
2.52005e-14
8.26215e-27
2.04804e-05
5.57364e-05
5.57168e-05
7.43235e-06
8.76972e-08
1.69824e-07
2.34259e-07
6.02202e-05
0.000109335
0.000109335
0.000105957
6.98153e-06
2.0547e-07
1.42064e-05
1.79829e-06
6.92257e-07
7.4376e-06
0.00231669
0.00198601
0.000836381
0.00015658
3.40852e-11
6.64558e-28
9.85789e-06
5.5717e-05
5.50962e-05
2.8489e-07
8.75591e-08
9.45211e-08
1.73441e-07
4.07355e-06
3.77594e-05
6.24661e-05
4.17573e-05
3.08326e-06
1.99208e-07
2.7204e-06
1.44762e-06
6.88015e-07
0.000298734
0.000397179
4.97039e-06
7.25313e-11
5.17133e-09
5.24901e-07
1.86358e-08
6.45836e-08
3.58073e-05
3.1753e-05
2.61861e-06
8.77756e-08
8.94626e-08
1.26621e-07
1.88932e-07
2.09539e-07
1.49789e-07
3.73057e-08
1.71733e-07
4.78247e-07
2.54185e-07
1.00647e-06
8.38206e-07
0.000331235
1.79877e-06
4.15973e-24
-8.51344e-26
1.16065e-08
1.76534e-07
2.12448e-08
1.60551e-08
9.99128e-07
9.74322e-07
2.05144e-06
1.00815e-06
3.64015e-07
6.04733e-08
5.74324e-08
4.76697e-08
2.90043e-08
1.83316e-08
4.06648e-08
1.97061e-07
1.47198e-07
7.59153e-07
7.71727e-07
0.000125889
2.8323e-05
1.43576e-23
-1.35902e-39
5.96278e-08
6.8614e-09
7.06804e-09
9.93107e-09
9.86493e-09
3.30066e-08
2.41594e-07
7.8217e-07
3.87422e-07
4.24819e-08
3.14513e-08
3.05152e-08
1.94205e-08
9.71077e-09
1.32128e-08
2.41274e-08
4.49325e-08
1.73059e-05
0.000181327
0.000149803
2.16011e-05
-1.97808e-22
-1.29958e-26
1.10147e-07
2.62969e-08
3.60394e-09
7.12224e-09
1.31745e-08
2.06457e-08
5.49473e-08
1.15749e-07
1.31825e-07
3.37106e-08
1.72494e-08
1.62873e-08
1.1245e-08
5.4087e-09
4.11068e-09
6.239e-09
1.1156e-08
0.000202615
0.000251885
0.000249603
4.13722e-05
3.093e-09
1.93966e-13
1.08666e-07
2.19923e-08
2.80475e-09
5.30692e-09
8.22917e-09
1.01966e-08
2.19527e-08
3.48246e-08
3.58882e-08
1.60227e-08
8.18852e-09
7.43146e-09
5.41172e-09
2.73244e-09
1.99359e-09
2.172e-09
3.27204e-09
0.000157808
0.000135208
2.49188e-05
2.44883e-06
2.7308e-09
4.55392e-09
2.99261e-08
4.92861e-09
2.7887e-09
3.72942e-09
4.06953e-09
5.10749e-09
6.94649e-09
7.79134e-09
7.63561e-09
5.12549e-09
3.33096e-09
2.91135e-09
2.12828e-09
1.42999e-09
1.14639e-09
1.25235e-09
1.48516e-09
1.09735e-06
1.06359e-08
1.96619e-09
1.36319e-09
1.59998e-08
6.15643e-09
4.46187e-09
5.13938e-09
2.79016e-09
2.54751e-09
2.18639e-09
2.33246e-09
2.49412e-09
2.41628e-09
2.24924e-09
1.7034e-09
1.30031e-09
1.12284e-09
8.93866e-10
6.904e-10
6.68831e-10
7.4125e-10
8.13693e-10
3.06658e-08
8.99017e-08
4.6563e-08
1.40925e-08
1.61431e-08
6.16005e-09
4.41183e-09
4.27348e-09
2.08093e-09
1.73229e-09
1.25162e-09
1.08585e-09
9.87908e-10
8.70661e-10
7.42677e-10
5.95819e-10
4.93663e-10
4.39634e-10
3.81518e-10
3.53431e-10
3.52322e-10
3.71591e-10
4.15669e-10
6.97998e-08
2.78005e-07
9.31815e-08
9.97272e-09
8.54307e-09
5.43097e-09
3.71282e-09
2.65606e-09
1.45428e-09
1.18977e-09
7.98647e-10
5.99511e-10
4.65631e-10
3.62363e-10
2.90381e-10
2.37553e-10
2.00325e-10
1.75356e-10
1.63028e-10
1.5085e-10
1.49978e-10
1.7078e-10
1.85496e-10
1.02646e-07
2.74058e-07
4.47178e-08
3.11013e-09
5.58927e-09
5.86364e-09
3.49275e-09
1.78736e-09
1.08363e-09
8.89558e-10
5.84808e-10
4.05815e-10
2.80029e-10
1.92926e-10
1.37386e-10
1.03905e-10
8.28818e-11
7.02654e-11
6.27396e-11
5.89785e-11
5.58466e-11
5.90659e-11
7.06283e-11
9.28938e-08
1.41981e-07
1.06262e-08
3.19403e-09
4.49211e-09
4.73242e-09
2.95564e-09
1.55189e-09
1.13954e-09
7.76205e-10
5.29735e-10
3.63303e-10
2.28545e-10
1.43342e-10
8.67804e-11
5.45458e-11
3.69784e-11
2.76601e-11
2.25826e-11
1.83854e-11
1.76873e-11
2.00965e-11
2.33207e-11
8.77335e-08
3.42008e-08
1.80608e-08
3.00074e-09
3.43649e-09
3.70969e-09
2.72163e-09
1.84941e-09
1.22831e-09
9.49137e-10
7.08354e-10
4.98326e-10
3.24934e-10
1.85243e-10
9.58746e-11
4.76637e-11
2.38137e-11
1.30947e-11
8.21692e-12
5.97205e-12
5.12757e-12
5.24467e-12
6.89963e-12
1.04751e-07
8.51795e-08
2.92383e-08
2.74247e-09
2.95807e-09
3.18225e-09
2.54915e-09
2.2887e-09
2.0311e-09
1.77665e-09
1.45001e-09
1.12339e-09
7.09175e-10
3.88615e-10
1.82472e-10
7.6385e-11
3.00402e-11
1.12795e-11
4.79358e-12
2.07793e-12
1.39426e-12
1.43521e-12
1.84189e-12
1.01209e-07
1.0763e-07
5.43985e-08
2.76316e-09
3.32699e-09
3.9152e-09
3.74851e-09
3.76026e-09
3.61909e-09
3.70791e-09
3.72535e-09
2.7265e-09
1.72505e-09
8.58585e-10
3.89169e-10
1.52382e-10
5.3575e-11
1.76048e-11
5.24969e-12
1.58148e-12
6.07111e-13
3.37933e-13
5.67252e-13
2.07116e-08
9.47681e-08
3.05939e-08
2.73515e-09
4.25213e-09
5.56297e-09
4.94411e-09
4.42799e-09
4.45647e-09
6.46713e-09
7.92668e-09
5.39532e-09
3.11455e-09
1.58208e-09
7.08637e-10
2.81185e-10
9.50507e-11
2.91944e-11
8.01071e-12
1.99368e-12
5.01525e-13
1.69574e-13
2.11634e-13
1.97378e-08
1.32085e-08
1.34528e-08
1.19174e-08
6.80847e-09
7.08166e-09
1.15383e-08
2.09605e-08
3.90176e-08
1.57513e-08
1.11701e-08
5.22166e-09
3.19447e-09
2.00663e-09
1.02869e-09
4.3521e-10
1.48455e-10
4.39216e-11
1.13843e-11
2.61729e-12
6.01769e-13
1.10217e-13
9.43482e-14
2.71221e-08
1.31452e-08
1.45657e-08
2.01821e-08
1.20012e-08
8.00909e-09
5.67128e-08
4.24375e-07
5.81998e-07
2.03047e-07
9.72456e-10
9.73145e-10
1.33313e-09
1.69648e-09
1.20665e-09
5.25403e-10
1.88619e-10
5.57107e-11
1.42484e-11
3.02497e-12
6.6106e-13
1.01103e-13
4.65345e-14
3.63753e-08
1.65662e-08
1.35108e-08
1.43898e-08
1.27297e-08
1.65164e-08
2.99829e-07
7.8796e-07
7.88002e-07
7.74594e-07
3.96181e-08
9.72309e-10
1.07147e-09
1.46835e-09
1.08305e-09
5.12193e-10
1.98903e-10
6.06104e-11
1.47046e-11
2.87761e-12
6.34478e-13
7.94177e-14
2.37213e-14
4.13113e-08
2.88916e-08
1.30609e-08
1.23118e-08
1.24012e-08
5.42957e-08
6.13431e-07
7.88172e-07
7.87637e-07
7.87715e-07
1.35134e-07
9.71974e-10
9.72281e-10
1.00395e-09
8.32245e-10
4.15021e-10
1.62556e-10
5.20224e-11
1.29356e-11
2.50077e-12
5.00609e-13
7.035e-14
1.26876e-14
4.63423e-08
8.32281e-08
5.319e-08
2.42044e-08
1.23162e-08
8.55781e-08
7.71786e-07
7.88245e-07
7.88485e-07
3.06704e-07
9.88669e-10
9.89248e-10
9.85111e-10
8.80169e-10
5.9578e-10
2.82156e-10
1.09852e-10
3.36882e-11
8.73457e-12
1.76726e-12
3.46419e-13
3.86516e-14
6.62301e-15
4.84413e-08
1.16166e-07
2.36549e-07
1.60108e-07
7.25539e-08
8.50675e-08
4.08627e-07
6.09744e-07
3.06952e-07
5.41737e-10
1.22713e-09
1.44789e-09
1.05458e-09
7.56e-10
4.01628e-10
1.66957e-10
5.72165e-11
1.65152e-11
4.24065e-12
9.19938e-13
1.60153e-13
2.24431e-14
2.92349e-15
2.33088e-07
1.2078e-07
2.65431e-07
2.67039e-07
2.66966e-07
2.57842e-07
1.00391e-07
5.4144e-10
5.39656e-10
5.41422e-10
2.03033e-09
2.03447e-09
1.08935e-09
6.03428e-10
2.48149e-10
8.21e-11
2.27525e-11
5.58627e-12
1.30465e-12
3.10604e-13
6.46286e-14
7.46291e-15
1.09148e-15
3.9415e-07
1.63347e-07
1.04284e-07
2.18826e-07
2.39706e-07
2.47709e-07
1.08045e-07
6.36096e-09
1.43083e-09
5.41976e-10
1.66845e-09
1.68496e-09
9.10204e-10
4.04043e-10
1.29333e-10
3.11053e-11
6.24372e-12
1.09544e-12
2.35712e-13
6.89835e-14
1.38299e-14
2.33797e-15
3.28385e-16
3.94222e-07
1.91925e-07
3.80102e-08
8.3802e-09
6.84702e-12
5.93769e-08
7.38811e-08
2.09504e-08
3.22177e-09
4.06858e-10
7.83741e-10
7.46405e-10
4.98142e-10
2.07539e-10
5.48632e-11
9.51129e-12
1.16543e-12
1.23829e-13
2.19122e-14
9.87443e-15
2.44292e-15
4.55367e-16
8.67284e-17
1.3866e-07
2.16666e-08
5.43977e-09
2.05259e-09
7.56757e-12
1.75561e-14
2.62874e-17
1.86512e-09
2.05836e-09
4.29965e-11
7.42555e-11
1.52357e-10
1.14966e-10
4.54617e-11
9.88345e-12
1.17876e-12
8.78444e-14
5.49721e-15
1.07616e-15
9.04051e-16
3.76698e-16
7.86579e-17
1.87179e-17
0.0375483
0.0336742
0.00766482
0.0010575
0.130562
0.0825113
0.00565214
0.000511624
0.131306
0.131069
0.0861585
0.0113835
0.829462
0.763122
0.540439
0.521059
0.990655
0.998626
0.998746
0.998827
0.959709
0.959582
0.959569
0.959563
0.998695
0.998696
0.971744
0.959667
0.998695
0.998619
0.998495
0.998193
0.995238
0.990912
0.980745
0.977458
0.735667
0.715595
0.484203
0.0761589
-3.04148e-09
-5.18043e-16
2.02106e-07
0.00604285
6.75388e-07
6.37379e-08
4.1403e-09
0.000348327
2.35967e-09
6.81876e-10
3.00141e-08
4.19789e-07
4.34834e-06
6.57921e-06
8.41747e-08
6.20499e-07
3.59209e-05
3.55968e-05
3.44621e-05
3.46658e-05
3.58267e-05
3.57997e-05
3.51751e-05
1.01754e-05
1.53077e-05
1.49417e-05
3.35416e-06
9.40863e-09
1.07148e-07
5.42806e-09
5.41025e-09
9.2666e-09
1.90233e-08
6.61674e-09
5.34592e-09
8.00339e-09
1.67042e-08
3.58975e-09
3.91733e-09
5.82415e-09
7.0061e-09
3.33711e-09
3.10373e-09
4.09395e-09
3.01477e-09
2.20358e-09
2.41621e-09
2.80222e-09
1.47447e-09
1.4321e-09
1.63731e-09
1.7734e-09
8.64976e-10
9.01448e-10
9.59225e-10
1.04004e-09
4.2008e-10
4.38458e-10
5.15115e-10
5.398e-10
1.95288e-10
2.13226e-10
2.30178e-10
2.56756e-10
6.97642e-11
7.24764e-11
9.90101e-11
1.08284e-10
2.50217e-11
2.89407e-11
3.53589e-11
4.43702e-11
7.32904e-12
8.65296e-12
1.49094e-11
1.85791e-11
2.60155e-12
3.79758e-12
5.76943e-12
8.85831e-12
9.82762e-13
1.54318e-12
3.48149e-12
4.94448e-12
5.2405e-13
1.01417e-12
1.78811e-12
3.53056e-12
2.59535e-13
5.00265e-13
1.32126e-12
2.10543e-12
1.38746e-13
3.03458e-13
6.18134e-13
1.29149e-12
5.44666e-14
1.14662e-13
3.56068e-13
6.56253e-13
2.27839e-14
5.70552e-14
1.37612e-13
3.16091e-13
7.44588e-15
1.68966e-14
5.83868e-14
1.22837e-13
2.55991e-15
6.63975e-15
1.81287e-14
4.59669e-14
6.92456e-16
1.67661e-15
5.40263e-15
1.28491e-14
1.75933e-16
4.46973e-16
1.22465e-15
3.43934e-15
3.99081e-17
9.65884e-17
2.91425e-16
8.30684e-16
7.85475e-18
1.83067e-17
5.93424e-17
1.76383e-16
0.000530034
0.00331892
0.0197973
0.00870999
3.63286e-07
3.63904e-07
0.000317989
0.000291301
0.0241416
0.0307172
0.0307535
0.240655
0.448678
0.230552
0.0862717
0.0862717
0.149121
0.148269
0.165361
0.000506796
0.14815
0.571013
0.523872
0.181616
3.63235e-07
4.47331e-07
0.0229979
0.147739
0.119409
0.190692
0.3163
0.443217
0.119666
0.0875759
0.121472
0.148499
0.191486
0.151245
0.161499
0.792846
0.964251
0.978141
0.908733
0.51303
0.00533114
0.00920514
0.340749
0.580946
0.501376
0.360122
0.391698
0.290591
0.0975726
0.292542
0.657508
0.710401
0.491178
0.80865
0.99817
0.997875
0.978613
0.976254
0.936201
0.583631
0.153999
0.32473
0.580336
0.549018
0.358636
0.40137
0.628327
0.523823
0.656047
0.792963
0.792964
0.792965
0.998913
0.998932
0.998931
0.930594
0.89127
0.916503
0.916647
0.869728
0.84951
0.592555
0.431348
0.394124
0.568901
0.757799
0.784423
0.792942
0.792964
0.792965
0.792967
0.970655
0.998464
0.998932
0.985546
0.750624
0.839507
0.985651
0.991016
0.991035
0.970723
0.808605
0.60255
0.681451
0.745752
0.693031
0.600225
0.66843
0.764544
0.61134
0.959607
0.989914
0.998908
0.995273
0.731305
0.522007
0.798818
0.991038
0.991028
0.987584
0.830473
0.557861
0.570396
0.55574
0.449786
0.186689
0.13217
0.209128
0.0650198
0.998672
0.998709
0.996293
0.79589
0.164131
0.00851768
0.114658
0.506292
0.882325
0.874367
0.511415
0.154255
0.0165507
-7.654e-08
0.00149612
3.0578e-08
2.81585e-08
3.09607e-08
2.91728e-08
0.91888
0.545359
0.215994
0.0453369
-1.60134e-19
-8.13779e-21
1.32754e-19
0.0224707
0.160525
0.156855
0.0353443
2.68991e-05
-1.86232e-10
-1.20398e-10
-2.29086e-09
9.15597e-08
2.94415e-08
2.91748e-08
3.09627e-08
0.0134558
0.00393583
2.2522e-05
1.68913e-20
-1.56531e-09
-9.06253e-10
-3.04857e-10
-9.34321e-09
1.76575e-19
-7.58255e-21
-1.11332e-08
2.86434e-07
5.74579e-07
6.29736e-08
7.40495e-07
2.49765e-06
7.14734e-07
9.74454e-06
4.28671e-06
0.00275095
-5.16958e-08
-1.36185e-10
-8.16109e-12
3.73007e-05
0.000175946
0.000157771
6.76528e-06
1.30142e-24
-6.75195e-22
5.15884e-06
1.63753e-06
1.0861e-07
6.16505e-08
5.7849e-06
9.48775e-05
0.000229253
0.000299144
1.6859e-05
2.05986e-05
5.38206e-06
0.000222569
0.000308657
0.000328652
0.00032864
0.000329066
0.000329344
0.000165569
0.000133396
9.59775e-05
5.09104e-05
2.22897e-05
1.18247e-06
3.51532e-05
0.000161719
0.000309726
0.000310578
9.42774e-05
7.16812e-07
7.96397e-05
0.000286826
0.000288432
0.000263561
0.000263969
0.000257715
0.000205947
0.000211396
0.000211749
8.31212e-05
5.11396e-05
5.08317e-05
4.56445e-05
2.65494e-05
3.86363e-05
0.000248874
0.000309511
0.00030983
1.68977e-05
8.40778e-05
9.67955e-05
3.22777e-05
1.69277e-05
1.21353e-05
1.11088e-05
5.42295e-06
6.23956e-05
4.94425e-05
9.83198e-06
5.48208e-06
1.6903e-05
1.83501e-05
4.7027e-06
5.91318e-06
3.21666e-05
0.000275678
0.00015698
3.35634e-05
1.67964e-05
1.32174e-07
9.96907e-08
7.34032e-08
2.55022e-08
7.63618e-09
7.57939e-09
7.47743e-09
7.42065e-09
7.31876e-09
7.26258e-09
7.31877e-09
7.42062e-09
5.63631e-07
6.41457e-06
4.47089e-08
2.59039e-05
3.07211e-08
7.92478e-06
8.14203e-08
3.69132e-08
2.80452e-08
2.31233e-08
2.76952e-08
2.53424e-08
1.6709e-08
9.26257e-09
1.5337e-07
2.12814e-07
9.8554e-08
7.42063e-09
6.18423e-08
5.64654e-07
6.38082e-06
4.77887e-08
3.66306e-08
1.40343e-08
1.62628e-08
2.63421e-08
2.21732e-08
2.06466e-08
2.06597e-08
3.05079e-08
2.38737e-08
3.33109e-08
2.10082e-07
4.27203e-07
3.77836e-07
7.09985e-08
7.48732e-09
1.60155e-07
5.9384e-07
6.37498e-07
1.48028e-08
1.26607e-08
1.40386e-08
8.89452e-09
1.54363e-08
1.45142e-08
1.4862e-08
1.68086e-08
2.08186e-08
1.47934e-08
6.45431e-08
4.37153e-07
4.54532e-07
2.93524e-07
7.9424e-09
7.63222e-09
7.48872e-08
2.20978e-07
1.27217e-08
1.26512e-08
1.26529e-08
1.26508e-08
8.35791e-09
1.02906e-08
9.70232e-09
9.99246e-09
1.0917e-08
1.05533e-08
7.1968e-09
3.26534e-08
3.00966e-07
4.26166e-07
3.15693e-08
7.77398e-09
7.75531e-09
7.781e-09
1.19439e-08
2.42604e-07
2.52808e-08
1.26508e-08
1.26572e-08
6.50366e-09
7.1149e-09
6.86236e-09
6.58834e-09
6.55117e-09
5.75342e-09
5.11094e-09
8.09658e-09
3.07323e-08
7.32123e-08
8.29732e-09
8.27707e-09
8.95187e-09
7.79185e-09
7.79338e-09
5.27484e-07
4.38128e-06
4.41007e-06
2.06676e-06
4.63456e-09
4.89159e-09
4.76121e-09
4.40408e-09
4.11017e-09
3.88477e-09
3.72664e-09
3.3081e-09
1.48507e-09
1.52803e-09
5.24387e-09
8.34921e-09
9.83289e-09
9.50802e-09
7.79298e-09
2.23463e-07
3.59875e-06
5.06195e-06
5.073e-06
3.0352e-09
3.1275e-09
3.1496e-09
2.95761e-09
2.83829e-09
2.82893e-09
2.66959e-09
2.12342e-09
1.48132e-09
1.84565e-09
4.19856e-09
6.54044e-09
7.73802e-09
1.25392e-08
2.60108e-08
5.71589e-08
2.55257e-07
2.28151e-06
4.63483e-06
1.89003e-09
1.92041e-09
1.9701e-09
1.93179e-09
1.942e-09
2.00638e-09
1.90223e-09
1.4793e-09
1.27213e-09
1.65921e-09
2.88561e-09
4.5582e-09
5.86107e-09
9.6107e-09
2.81536e-08
9.43003e-08
9.10842e-08
8.88549e-08
3.61733e-07
1.0826e-09
1.11914e-09
1.16424e-09
1.19399e-09
1.2529e-09
1.33836e-09
1.31252e-09
1.12308e-09
1.08023e-09
1.38382e-09
2.0844e-09
3.19985e-09
4.42038e-09
6.65992e-09
1.60395e-08
1.1116e-07
2.66954e-06
6.17921e-06
3.3626e-06
5.66625e-10
6.19441e-10
6.47975e-10
6.93358e-10
7.5969e-10
8.48033e-10
8.98792e-10
8.98308e-10
9.85025e-10
1.25008e-09
1.71928e-09
2.46658e-09
3.43922e-09
5.13932e-09
1.36648e-08
1.1503e-07
5.41377e-06
8.05843e-06
8.05985e-06
2.71981e-10
3.01878e-10
3.43561e-10
3.87712e-10
4.51513e-10
5.40751e-10
6.405e-10
7.49437e-10
9.17376e-10
1.1864e-09
1.56958e-09
2.13787e-09
2.92538e-09
4.0631e-09
8.8858e-09
4.64586e-08
3.10564e-06
8.13794e-06
5.4851e-06
1.19699e-10
1.4738e-10
1.78521e-10
2.20524e-10
2.82541e-10
3.733e-10
4.96674e-10
6.55616e-10
8.67139e-10
1.1449e-09
1.50889e-09
2.03766e-09
2.86869e-09
3.92025e-09
5.59536e-09
2.99056e-08
5.46408e-07
6.90162e-06
3.04332e-07
5.13758e-11
7.10963e-11
9.80587e-11
1.3677e-10
1.97264e-10
2.89429e-10
4.20552e-10
5.95096e-10
8.18317e-10
1.09892e-09
1.47725e-09
2.13856e-09
3.7178e-09
6.58721e-09
6.39579e-09
1.15605e-08
1.47519e-08
4.83288e-07
1.01285e-08
2.32182e-11
3.87994e-11
6.07124e-11
9.68445e-11
1.55173e-10
2.4472e-10
3.72738e-10
5.42949e-10
7.56691e-10
1.02217e-09
1.39592e-09
2.23464e-09
5.64613e-09
1.76243e-08
2.12105e-08
1.20925e-08
1.16414e-08
1.00765e-08
1.01724e-08
1.21743e-11
2.45475e-11
4.32638e-11
7.59595e-11
1.29818e-10
2.11912e-10
3.28198e-10
4.81196e-10
6.71473e-10
9.07389e-10
1.23965e-09
2.01941e-09
6.66049e-09
3.51687e-08
1.08071e-07
4.13555e-08
1.02791e-08
1.01272e-08
1.00612e-08
8.02834e-12
1.73561e-11
3.28238e-11
6.11038e-11
1.07979e-10
1.78053e-10
2.76086e-10
4.03575e-10
5.61354e-10
7.59367e-10
1.04189e-09
1.69448e-09
5.25254e-09
3.09364e-08
1.77291e-07
2.59499e-07
2.57247e-08
1.01133e-08
1.69681e-07
5.62069e-12
1.22905e-11
2.48215e-11
4.74855e-11
8.47483e-11
1.39918e-10
2.16345e-10
3.15447e-10
4.38009e-10
5.95698e-10
8.25339e-10
1.28228e-09
3.26465e-09
1.83516e-08
1.09311e-07
2.72316e-07
1.92543e-07
5.73232e-08
2.58764e-07
3.65527e-12
8.46785e-12
1.75918e-11
3.41875e-11
6.13507e-11
1.00981e-10
1.55742e-10
2.26051e-10
3.15127e-10
4.32096e-10
6.08134e-10
9.3366e-10
1.90081e-09
7.98656e-09
4.23234e-08
2.49388e-07
2.88599e-07
2.28992e-07
2.70136e-07
2.25839e-12
5.35961e-12
1.13663e-11
2.23134e-11
4.01368e-11
6.6159e-11
1.01971e-10
1.48055e-10
2.06786e-10
2.887e-10
4.161e-10
6.48947e-10
1.1817e-09
3.33211e-09
1.69862e-08
7.6837e-08
2.88619e-07
2.88599e-07
1.41587e-07
1.18174e-12
3.02632e-12
6.50572e-12
1.29311e-11
2.33059e-11
3.85308e-11
5.97295e-11
8.77752e-11
1.25232e-10
1.77153e-10
2.62206e-10
4.2333e-10
7.49376e-10
1.64462e-09
6.40215e-09
3.35215e-08
2.12198e-07
2.88615e-07
6.04349e-08
5.76594e-13
1.52941e-12
3.35964e-12
6.76245e-12
1.21623e-11
2.02428e-11
3.14803e-11
4.79374e-11
6.98129e-11
1.01849e-10
1.53777e-10
2.54116e-10
4.57944e-10
9.03551e-10
2.52746e-09
1.17962e-08
4.36108e-08
1.59537e-07
1.97126e-08
2.4642e-13
6.55223e-13
1.47659e-12
2.96754e-12
5.44034e-12
9.27484e-12
1.49151e-11
2.3408e-11
3.66959e-11
5.48389e-11
8.39075e-11
1.40409e-10
2.60268e-10
5.02449e-10
1.11996e-09
3.88832e-09
1.44111e-08
2.0216e-08
1.40145e-08
9.07839e-14
2.51708e-13
5.87379e-13
1.19638e-12
2.23072e-12
3.88232e-12
6.50476e-12
1.0713e-11
1.70319e-11
2.73571e-11
4.31352e-11
7.25854e-11
1.37447e-10
2.69898e-10
5.36141e-10
1.28381e-09
3.72029e-09
8.45462e-09
6.98631e-09
2.94512e-14
8.41844e-14
1.99288e-13
4.19828e-13
7.98438e-13
1.42862e-12
2.54247e-12
4.33481e-12
7.35263e-12
1.22341e-11
1.97328e-11
3.30389e-11
6.31326e-11
1.31721e-10
2.55025e-10
5.36213e-10
1.19146e-09
2.56227e-09
4.02765e-09
8.28372e-15
2.39035e-14
5.64313e-14
1.21688e-13
2.39329e-13
4.55159e-13
8.33572e-13
1.54124e-12
2.81168e-12
4.89339e-12
8.06196e-12
1.32203e-11
2.49859e-11
5.41495e-11
1.1263e-10
2.31324e-10
4.71387e-10
1.11722e-09
2.3875e-09
2.08926e-15
6.06045e-15
1.43288e-14
3.14823e-14
6.46994e-14
1.31268e-13
2.63831e-13
5.25358e-13
1.02525e-12
1.88249e-12
3.20216e-12
5.16936e-12
9.49977e-12
2.10478e-11
4.73856e-11
1.00654e-10
2.03977e-10
5.67284e-10
1.53044e-09
4.7069e-16
1.38854e-15
3.32913e-15
7.5258e-15
1.62842e-14
3.49908e-14
7.64302e-14
1.62659e-13
3.37268e-13
6.52449e-13
1.14991e-12
1.85462e-12
3.30314e-12
7.38443e-12
1.77574e-11
3.98828e-11
8.17465e-11
2.49147e-10
4.96916e-10
)
;

boundaryField
{
    leftWall
    {
        type            zeroGradient;
    }
    rightWall
    {
        type            zeroGradient;
    }
    lowerWall
    {
        type            zeroGradient;
    }
    atmosphere
    {
        type            inletOutlet;
        inletValue      uniform 0;
        value           nonuniform List<scalar> 
46
(
0
0
0
0
0
0
0
0
0
0
0
0
0
0
0
0
0
0
0
0
3.76698e-16
7.86579e-17
1.87179e-17
7.85475e-18
1.83067e-17
5.93424e-17
1.76383e-16
4.7069e-16
1.38854e-15
3.32913e-15
7.5258e-15
1.62842e-14
3.49908e-14
7.64302e-14
1.62659e-13
3.37268e-13
6.52449e-13
1.14991e-12
1.85462e-12
3.30314e-12
7.38443e-12
1.77574e-11
3.98828e-11
8.17465e-11
2.49147e-10
4.96916e-10
)
;
    }
    defaultFaces
    {
        type            empty;
    }
}


// ************************************************************************* //
