/*--------------------------------*- C++ -*----------------------------------*\
| =========                 |                                                 |
| \\      /  F ield         | OpenFOAM: The Open Source CFD Toolbox           |
|  \\    /   O peration     | Version:  2312                                  |
|   \\  /    A nd           | Website:  www.openfoam.com                      |
|    \\/     M anipulation  |                                                 |
\*---------------------------------------------------------------------------*/
FoamFile
{
    version     2.0;
    format      ascii;
    arch        "LSB;label=32;scalar=64";
    class       volScalarField;
    location    "2.6";
    object      alphas;
}
// * * * * * * * * * * * * * * * * * * * * * * * * * * * * * * * * * * * * * //

dimensions      [0 0 0 0 0 0 0];

internalField   nonuniform List<scalar> 
2268
(
2
2
2
2
2
2
2
2
2
2
2
2
2
2
2
2
2
2
2
2
2
1.99997
1.99994
2
2
2
2
2
2
2
2
2
2
2
2
2
2
2
2
2
2
2
2
2
1.99998
1.99994
2
2
2
2
2
2
2
2
2
2
2
2
2
2
2
2
2
2
2
2
2
2
1.99998
2.00003
1.99943
1.99989
1.99977
1.99984
1.99997
2
2
2
2
2
2
2
2
2
2
2
2
2
2
2
2
2
1.79714
1.84902
1.88902
1.91556
1.92912
1.93308
1.93134
1.93426
1.94612
1.96834
1.98987
1.99995
2
2
2
2
2
2
2
2
2
2
2.00004
0.401215
0.444512
0.508774
0.576016
0.612124
0.608586
0.597969
0.606891
0.656994
0.764966
0.936334
1.1857
1.41625
1.60567
1.77648
1.92289
1.99428
2
2
2
2
2
2.00001
0.00647715
0.00591754
0.00623857
0.00492481
0.00119514
0.00081591
0.000697869
0.000924907
0.00099901
0.00104499
0.00161117
0.00590116
0.0773875
0.221469
0.388003
0.652664
1.0411
1.47126
1.81947
1.9976
2
2
1.99993
0.00465631
0.00605234
0.00440507
0.00127017
0.00120556
0.0012678
0.00153482
0.00153855
0.00153142
0.00151036
0.00244348
0.0150383
0.0409661
0.0982502
0.119746
0.0970618
0.11888
0.210624
0.565808
1.04993
1.59284
1.87625
1.99972
1.90566
1.90549
1.90589
1.9163
1.94171
1.94205
1.94145
1.93935
1.93701
1.92129
1.92397
1.93892
1.93892
1.93854
1.93861
1.93909
1.9406
1.94942
1.95178
1.91428
1.91254
1.90338
1.88015
1.86104
1.82297
1.80665
1.79455
1.80874
1.81832
1.81064
1.83541
1.88545
1.94748
1.94292
1.94443
1.94609
1.92723
1.8348
1.45488
1.47881
1.30125
1.10077
0.917417
0.866948
0.922419
1.00018
1.09208
1.20931
1.32521
1.47242
1.57866
1.65689
1.8122
1.86116
1.73918
1.59982
1.46888
0.649587
0.632961
0.486118
0.415737
0.392965
0.436719
0.529616
0.549372
0.643577
0.608209
0.601411
0.713942
0.977595
1.34255
1.37925
1.16716
1.13107
1.39169
1.44998
0.485745
0.417912
0.423547
0.326216
0.165117
0.150064
0.408276
0.327828
0.40334
0.577405
0.55962
0.474059
0.492338
0.551581
0.56445
0.458379
0.643268
0.97017
0.996389
0.494002
0.2692
0.0919288
0.0130526
0.00331723
0.00075076
0.296704
0.282675
0.0923568
0.56796
0.620371
0.619877
0.715927
0.6312
0.396292
0.36349
0.537995
0.803752
0.720144
0.434004
0.0770665
0.000721814
0.000712824
0.000711125
0.000700911
0.242104
0.172214
0.0840869
0.272551
0.372767
0.470841
0.444076
0.331805
0.30971
0.321202
0.767383
0.839689
0.740593
0.0721959
0.0257836
0.0255066
0.00288707
0.000720643
0.000734416
0.132393
0.0960098
0.0602341
0.0605962
0.108599
0.242648
0.340864
0.239983
0.302646
0.440832
0.799902
0.657555
0.772825
0.00293448
0.00371297
0.00186618
0.00140663
0.00149347
0.00153803
0.00154171
0.00153817
0.00153165
0.00153204
0.00521877
0.0817908
0.23269
0.366622
0.348888
0.309351
0.21096
0.0420832
0.0126961
0.0475615
0.155281
0.34012
0.636194
0.00352223
0.00351939
0.00358086
0.0182727
0.0210258
0.0126555
0.0126611
0.0183539
0.0293074
0.0384987
0.0762973
0.171747
0.277461
0.377543
0.328955
0.0975008
0.0539089
0.0393669
0.0203536
0.0130748
0.0128149
0.0883568
0.198123
0.00257508
0.00265467
0.00294956
0.0057439
0.0527063
0.128117
0.200213
0.30259
0.404531
0.482093
0.565428
0.559816
0.512893
0.443672
0.430782
0.463525
0.5131
0.550906
0.456098
0.271571
0.137465
0.106059
0.149698
0.895831
0.75755
0.380093
0.386527
0.458416
0.564618
0.820914
0.984972
1.03007
1.04874
1.06037
1.0984
1.11907
1.10589
1.05708
1.04129
1.04631
1.0857
1.10844
1.09901
1.02136
0.906936
0.858872
1.24905
1.47441
1.55193
1.26712
0.926228
0.978011
1.01398
1.00161
1.00159
1.00155
1.00153
1.00163
1.00165
1.00176
1.00179
1.03857
1.14925
1.10411
1.0625
1.08698
1.11406
1.11442
1.08232
1.14883
1.24931
1.63281
1.61806
1.59755
1.23513
0.999003
1.00165
1.01896
1.0059
1.00149
1.00151
1.00173
1.00204
1.00555
1.00367
1.0027
1.00268
1.04681
1.08749
1.08825
1.02768
1.03808
1.14345
1.34708
1.52081
1.62836
1.29313
1.21204
1.23718
1.51975
1.24428
1.00198
1.00146
1.00141
1.00163
1.00373
1.01435
1.01426
1.00956
1.00259
1.00253
1.00816
1.01377
1.00939
1.00284
1.15915
1.72544
1.32993
1.27663
1.27615
1.3348
2.18747
2.22658
1.55415
1.00793
1.02602
1.04751
1.03696
1.01848
1.00705
1.00508
1.00372
1.00162
1.00204
1.00238
1.00301
1.00265
1.00211
2.03895
1.66236
1.50821
1.57811
2.04718
2.30283
2.30414
2.20093
1.8814
1.99049
2.20014
2.31704
2.26938
2.13698
1.97053
1.78005
1.61525
1.42782
1.22268
1.06922
1.00632
1.00115
1.00063
2.89914
2.60321
2.30402
2.03449
2.21001
2.19123
2.18617
2.35742
2.79655
2.97374
2.96819
2.95076
2.9439
2.96733
2.9943
2.99915
2.94935
2.86252
2.77598
2.56357
2.02765
1.60247
1.56333
2.98882
2.99999
2.99799
2.985
2.86092
2.90135
2.93757
2.99438
2.99985
2.99999
2.99999
2.99999
2.99999
2.99999
2.99989
2.99974
2.99995
2.99998
2.99998
2.99801
2.98401
2.97979
2.98521
2.99986
3
3
3
3
3
3
3
3
2.99999
2.99998
2.99999
2.99999
2.99999
2.99997
2.99997
2.99999
2.99995
2.99993
2.99993
2.99996
2.99998
2.99999
2.99999
2.99998
2.99999
3
2.99987
3
3
3
3
2.99993
2.99988
2.99996
2.99999
2.99992
2.99992
2.99992
2.99999
2.99998
2.99994
2.99994
2.99997
2.99989
2.99999
2.99996
2.99997
2.99999
2.99906
2.96399
2.96814
2.99844
3
3
2.99989
2.99986
2.99991
2.99989
2.99987
2.99993
3
2.99997
2.99982
2.99954
2.99956
2.99985
3
3
2.99997
2.99998
2.99999
2.98021
2.93842
2.9384
2.98499
3
3
2.99993
2.99986
2.99986
2.99987
2.99992
3
3
2.99972
2.9994
2.99939
2.99954
3
3
2.99997
3
3
3
2.9699
2.93839
2.93847
2.95286
2.99904
3
2.99995
2.99986
2.99988
2.99997
3
3
3
2.99984
2.99948
2.99945
2.99977
2.99999
3
2.99997
3
3
2.99999
2.99197
2.98018
2.94395
2.94373
2.99631
3
2.99998
2.99988
2.99989
3
3
3
3
2.99999
2.99992
2.99987
2.99992
2.99999
3
2.99999
3
3
2.99927
2.99921
2.99999
2.99878
2.9887
2.99659
3
3
2.99993
2.99994
2.99999
3
3
3
3
3
3
3
3
3
3
3
3
2.99877
2.99982
2.99998
3
3
2.99849
2.99997
3
3
3
3
3
3
3
3
3
3
3
3
3
3
3
3
2.99848
2.99864
2.99991
3
3
2.9996
3
3
3
3
3
3
3
3
3
3
3
3
3
3
3
2.99987
2.99851
2.99723
2.99795
2.99995
3
3
2.99985
3
3
3
3
3
3
3
3
3
3
3
3
3
3
3
2.99794
2.99703
2.99705
2.99924
3
3
2.99999
2.99994
3
3
3
3
3
3
3
3
3
3
3
3
3
3
3
2.99809
2.99844
2.99968
2.99999
3
2.99997
3
3
3
3
3
3
3
3
3
3
3
3
3
3
3
3
3
2.99993
3
3
3
2.99999
2.99995
2.99999
3
3
3
3
3
3
3
3
3
3
3
3
3
3
3
3
3
3
2.99998
2.99997
2.99997
2.99995
2.99998
3
3
3
3
3
3
3
3
3
3
3
3
3
3
3
3
3
2.99998
2.99996
2.99996
2.99999
2.99998
2.99999
3
3
3
3
3
3
3
3
3
3
3
3
3
3
3
3
3
2.99998
2.99996
2.99999
3
3
3
3
3
3
3
3
3
3
3
3
3
3
3
3
3
3
3
3
3
3
3
3
3
3
3
3
3
3
3
3
3
3
3
3
3
3
3
3
3
3
3
3
3
3
3
3
3
3
3
3
3
3
3
3
3
3
3
3
3
3
3
3
3
3
3
3
3
3
3
3
3
3
3
3
3
3
3
3
3
3
3
3
3
3
3
3
3
3
3
3
3
3
3
3
3
3
3
3
3
3
3
3
3
3
3
3
3
3
3
3
3
3
3
3
3
3
3
3
3
3
3
3
3
3
3
3
3
3
3
3
3
3
3
3
3
3
3
3
3
3
3
3
3
3
3
3
3
3
3
3
3
3
3
3
3
3
3
3
3
3
3
3
3
3
3
3
3
3
3
3
3
3
3
3
3
3
3
3
3
3
3
3
3
3
3
3
3
3
3
3
3
3
3
3
3
3
3
3
3
3
3
3
3
3
3
3
3
3
3
3
3
3
3
3
3
3
3
3
3
3
3
3
3
3
3
3
3
3
3
3
3
3
3
3
3
3
3
3
3
3
3
3
3
3
3
3
3
3
3
3
3
3
3
3
3
3
3
3
3
3
3
3
3
3
3
3
3
3
3
3
3
3
3
3
3
3
3
3
3
3
3
3
3
3
3
3
3
3
3
3
3
3
3
3
3
3
3
3
3
2.99999
3
3
3
3
3
3
3
3
3
3
3
3
3
3
3
3
3
3
3
3
3
3
3
3
3
3
3
3
3
3
3
3
3
3
3
3
3
3
3
3
3
3
3
3
3
3
3
3
3
3
3
3
3
3
3
3
3
3
3
3
3
3
0.524624
0.194522
0.0127082
0.00610149
0.229652
0.190451
0.112488
0.0344224
0.227763
0.19753
0.0931803
0.0114752
0.8354
0.763433
0.540564
0.521151
1.01558
1.00154
1.00145
1.00125
1.08048
1.08061
1.08062
1.08048
1.00261
1.0026
1.05651
1.08063
1.00207
1.00206
1.00227
1.00344
1.00444
1.0159
1.03838
1.04504
1.51908
1.55956
2.02266
2.83891
2.98756
2.9898
2.99014
2.97925
3
2.99966
2.99907
2.99866
3
2.99999
2.99999
2.99999
2.99999
2.99998
2.99998
2.99997
2.9999
2.9999
2.9999
2.9999
2.9999
2.9999
2.99992
2.99998
2.99996
2.99997
2.99999
3
3
3
3
3
3
3
3
3
3
3
3
3
3
3
3
3
3
3
3
3
3
3
3
3
3
3
3
3
3
3
3
3
3
3
3
3
3
3
3
3
3
3
3
3
3
3
3
3
3
3
3
3
3
3
3
3
3
3
3
3
3
3
3
3
3
3
3
3
3
3
3
3
3
3
3
3
3
3
3
3
3
3
3
3
3
3
3
3
3
3
3
3
3
3
3
3
3
3
3
3
0.00675174
0.107219
0.22227
0.138046
0.0825886
0.000759986
0.00228603
0.05301
0.0608176
0.0531579
0.0731381
0.314212
0.614118
0.588647
0.343403
0.298715
0.425073
0.254744
0.283844
0.0266532
0.39908
0.863119
0.809443
0.516614
0.280819
0.00376894
0.0583695
0.213266
0.178047
0.29325
0.613855
0.819603
0.535547
0.231845
0.165072
0.223275
0.263349
0.208175
0.191648
0.94979
1.05893
1.03147
1.17828
0.852122
0.223282
0.0959154
0.402153
0.642058
0.813161
0.865587
0.919462
0.705174
0.217274
0.330572
0.737624
1.01562
0.686676
0.812395
1.00254
1.00384
1.02485
1.02737
1.11741
0.925783
0.493666
0.527253
0.732284
0.716692
0.852817
0.751982
0.787166
0.662666
0.687193
0.820738
1.04558
1.31799
0.999405
1.00031
1.00031
1.11912
1.18867
1.15256
1.11005
0.993075
0.968987
1.17388
1.09424
1.04513
0.772937
0.782877
0.813369
0.813904
0.812912
1.13547
1.39517
1.05815
1.00289
1.00132
1.01898
1.46287
1.30239
1.02688
1.01738
1.01723
0.995696
1.05468
1.45841
1.35885
1.22096
1.32293
1.53299
1.50006
1.414
1.76016
1.08074
1.02016
1.00217
1.00081
1.4904
1.91447
1.39322
1.0179
1.01766
1.0124
1.30737
1.86825
1.84751
1.88043
2.10006
2.6247
2.73212
2.57991
2.8624
1.00264
1.00255
0.999312
1.37677
2.62469
2.94107
2.74934
1.9795
1.23501
1.24977
1.96793
2.67979
2.95643
2.99723
2.99684
2.99994
2.99943
2.99974
2.99975
1.16223
1.90927
2.55976
2.87619
2.96315
2.97856
2.98876
2.94746
2.67844
2.68519
2.92374
2.99615
2.9998
2.99984
2.99995
2.99999
2.99999
2.99997
2.99997
2.9674
2.99115
2.99707
2.99431
2.99556
2.99901
2.99957
2.99899
2.99951
2.99943
2.99978
2.99983
2.99976
2.99983
2.99997
2.99998
2.99998
2.99995
2.99996
2.99278
2.99987
2.99984
2.99974
2.99965
2.99921
2.99947
2.99986
2.99989
2.99991
2.99989
2.99979
2.99977
2.99986
2.99996
2.99979
2.99951
2.99937
2.99991
2.99992
2.99995
2.99937
2.99912
2.99908
2.99909
2.99909
2.9991
2.99943
2.99961
2.99977
2.99981
2.99981
2.99986
2.99989
2.99965
2.99934
2.99934
2.99975
2.99999
2.99977
2.99926
2.99923
2.99932
2.99936
2.99936
2.99946
2.99941
2.99953
2.99983
2.99988
2.99985
2.99987
2.99993
2.99989
2.99945
2.99934
2.99933
2.99993
2.99979
2.99978
2.99992
2.99996
2.99998
2.99998
2.99999
2.99987
2.9999
2.99998
2.99999
2.99996
2.99996
2.99999
2.99996
2.9999
2.99941
2.99968
2.99992
2.99996
3
3
3
3
3
3
3
3
3
3
3
3
2.99999
2.99996
2.99998
2.99994
3
2.99998
3
3
3
3
3
3
3
3
3
3
3
3
3
2.99998
2.99998
3
3
3
3
3
3
3
3
3
3
3
3
3
3
3
3
3
2.99998
3
3
3
3
3
3
3
3
3
3
3
3
3
3
3
3
3
3
3
3
3
3
3
3
3
3
3
3
3
3
3
3
3
3
3
3
3
3
3
3
3
3
3
3
3
3
3
3
3
3
3
3
3
3
3
3
3
3
2.99999
2.99999
3
3
3
3
3
3
3
3
3
3
3
3
3
3
3
3
3
2.99999
2.99999
2.99999
3
3
3
3
3
3
3
3
3
3
3
3
3
3
3
3
3
3
2.99999
3
3
3
3
3
3
3
3
3
3
3
3
3
3
3
3
3
3
3
3
3
3
3
3
3
3
3
3
3
3
3
3
3
3
3
2.99999
2.99999
2.99999
3
3
3
3
3
3
3
3
3
3
3
3
3
3
3
3
2.99999
2.99998
2.99998
3
3
3
3
3
3
3
3
3
3
3
3
3
3
3
3
2.99999
2.99998
2.99999
3
3
3
3
3
3
3
3
3
3
3
3
3
3
3
3
3
2.99999
3
3
3
3
3
3
3
3
3
3
3
3
3
3
3
3
3
3
3
3
3
3
3
3
3
3
3
3
3
3
3
3
3
3
3
3
3
3
3
3
3
3
3
3
3
3
3
3
3
3
3
3
3
3
3
3
3
3
3
3
3
3
3
3
3
3
3
3
3
3
3
3
3
3
3
3
3
3
3
3
3
3
3
3
3
3
3
3
3
3
3
3
3
3
3
3
3
3
3
3
3
3
3
3
3
3
3
3
3
3
3
3
3
3
3
3
3
3
3
3
3
3
3
3
3
3
3
3
3
3
3
3
3
3
3
3
3
3
3
3
3
3
3
3
3
3
3
3
3
3
3
3
3
3
3
3
3
3
3
3
3
3
3
3
3
3
3
3
3
3
3
3
3
3
3
3
3
3
3
3
3
3
3
3
3
3
3
3
3
3
3
3
3
3
3
3
3
3
3
3
3
3
3
3
3
3
3
3
3
3
3
3
3
3
3
3
3
3
3
3
3
3
3
3
3
3
3
3
3
3
3
3
3
3
3
3
3
3
3
3
3
3
3
3
3
3
3
3
3
3
3
3
3
3
3
3
3
3
3
3
3
3
3
3
3
3
3
3
3
3
3
3
3
3
3
3
3
3
3
3
3
3
3
3
3
3
)
;

boundaryField
{
    leftWall
    {
        type            calculated;
        value           nonuniform List<scalar> 
50
(
2
2
2
2.00003
1.79714
0.401215
0.00647715
0.00465631
0.00293448
0.00352223
0.00257508
0.895831
1.24905
1.14883
1.14345
1.15915
2.03895
2.89914
2.98882
2.99986
2.99999
2.99996
2.99997
3
3
3
3
3
2.99987
2.99794
2.99809
2.99993
3
3
3
3
3
3
3
3
3
3
3
3
3
3
3
3
3
3
)
;
    }
    rightWall
    {
        type            calculated;
        value           nonuniform List<scalar> 
50
(
1.95178
1.8348
1.46888
1.44998
0.996389
0.720144
0.740593
0.772825
0.283844
0.208175
0.686676
1.31799
1.39517
1.76016
2.8624
2.99975
2.99997
2.99996
2.99991
2.99975
2.99933
2.99968
3
3
3
3
3
3
2.99999
2.99999
3
2.99999
2.99998
2.99999
3
3
3
3
3
3
3
3
3
3
3
3
3
3
3
3
)
;
    }
    lowerWall
    {
        type            calculated;
        value           nonuniform List<scalar> 
62
(
2
2
2
2
2
2
2
2
2
2
2
2
2
2
2
2
2
2
2
2
2
1.99997
1.99994
1.99994
1.99994
1.99998
2
2.00004
2.00001
1.99993
1.99972
0.524624
0.194522
0.0127082
0.00610149
1.90566
1.91428
1.45488
0.649587
0.485745
0.494002
0.434004
0.0721959
1.90566
1.90549
1.90589
1.9163
1.94171
1.94205
1.94145
1.93935
1.93701
1.92129
1.92397
1.93892
1.93892
1.93854
1.93861
1.93909
1.9406
1.94942
1.95178
)
;
    }
    atmosphere
    {
        type            calculated;
        value           nonuniform List<scalar> 
46
(
3
3
3
3
3
3
3
3
3
3
3
3
3
3
3
3
3
3
3
3
3
3
3
3
3
3
3
3
3
3
3
3
3
3
3
3
3
3
3
3
3
3
3
3
3
3
)
;
    }
    defaultFaces
    {
        type            empty;
    }
}


// ************************************************************************* //
