/*--------------------------------*- C++ -*----------------------------------*\
| =========                 |                                                 |
| \\      /  F ield         | OpenFOAM: The Open Source CFD Toolbox           |
|  \\    /   O peration     | Version:  2312                                  |
|   \\  /    A nd           | Website:  www.openfoam.com                      |
|    \\/     M anipulation  |                                                 |
\*---------------------------------------------------------------------------*/
FoamFile
{
    version     2.0;
    format      ascii;
    arch        "LSB;label=32;scalar=64";
    class       volVectorField;
    location    "2.6";
    object      U;
}
// * * * * * * * * * * * * * * * * * * * * * * * * * * * * * * * * * * * * * //

dimensions      [0 1 -1 0 0 0 0];

internalField   nonuniform List<vector> 
2268
(
(0.0144287 -0.00843721 0)
(0.0229195 -0.00318095 0)
(0.0272119 -0.00145118 0)
(0.0286616 -0.000172082 0)
(0.0273623 0.000560325 0)
(0.0241923 0.00107104 0)
(0.0198536 0.00122596 0)
(0.0155218 0.00102628 0)
(0.0125009 0.00053226 0)
(0.0118549 -0.000119305 0)
(0.0140087 -0.000773988 0)
(0.0188351 -0.0013361 0)
(0.0256151 -0.00165054 0)
(0.0330804 -0.00164137 0)
(0.0398884 -0.00130416 0)
(0.0447761 -0.000674682 0)
(0.0465542 0.000149038 0)
(0.0444967 0.00111866 0)
(0.0387741 0.0019792 0)
(0.0302094 0.002522 0)
(0.0206005 0.00256621 0)
(0.0109773 0.00245471 0)
(0.00319631 0.00216778 0)
(0.00258209 -0.0105436 0)
(0.0106865 -0.00300578 0)
(0.0140227 -0.0018244 0)
(0.0168673 4.96233e-05 0)
(0.0173499 0.00157642 0)
(0.0158372 0.00283063 0)
(0.0126944 0.00329716 0)
(0.00921661 0.00284075 0)
(0.00683576 0.00142939 0)
(0.00675643 -0.000508717 0)
(0.0094677 -0.00248544 0)
(0.0148888 -0.00430207 0)
(0.022317 -0.00538694 0)
(0.0304123 -0.0054362 0)
(0.0377703 -0.00442971 0)
(0.0430612 -0.00246481 0)
(0.045072 0.000212969 0)
(0.0430964 0.00305566 0)
(0.0372175 0.00536282 0)
(0.0283389 0.00666284 0)
(0.018427 0.00669185 0)
(0.00881839 0.00629726 0)
(0.00133421 0.00408102 0)
(-0.00206733 -0.0130504 0)
(0.00334782 -0.00681383 0)
(0.00574117 -0.00470178 0)
(0.00926209 -0.00175269 0)
(0.0100181 0.000504415 0)
(0.00872726 0.0028645 0)
(0.0057056 0.00397686 0)
(0.00234863 0.00351673 0)
(0.000194081 0.00152017 0)
(0.000595199 -0.0011596 0)
(0.00395583 -0.00430316 0)
(0.0102531 -0.00731635 0)
(0.018821 -0.00911234 0)
(0.0280992 -0.00917133 0)
(0.0365392 -0.00750374 0)
(0.0427047 -0.00424498 0)
(0.0451474 0.000284007 0)
(0.0432015 0.0050923 0)
(0.037086 0.00902896 0)
(0.0278494 0.0112136 0)
(0.0178238 0.011006 0)
(0.00831091 0.00994047 0)
(0.00218468 0.00593697 0)
(-0.00491232 -0.0117111 0)
(-0.00156678 -0.00751257 0)
(0.000446502 -0.00565339 0)
(0.00411223 -0.00174496 0)
(0.00448989 0.00230122 0)
(0.00301997 0.00606068 0)
(-0.000498986 0.00764828 0)
(-0.0040994 0.00659446 0)
(-0.00626874 0.002955 0)
(-0.00598354 -0.00177461 0)
(-0.00256027 -0.00662056 0)
(0.00457956 -0.0113222 0)
(0.0145347 -0.0140645 0)
(0.0253246 -0.0140135 0)
(0.035265 -0.0113913 0)
(0.0429881 -0.00655949 0)
(0.0467368 0.000188972 0)
(0.0451839 0.00762372 0)
(0.0388871 0.0134085 0)
(0.0291914 0.0163929 0)
(0.0189271 0.0157445 0)
(0.00931469 0.0139399 0)
(0.00477254 0.00856032 0)
(-0.00705547 -0.0103352 0)
(-0.00408807 -0.00892709 0)
(-0.00118592 -0.00722671 0)
(0.00336495 -0.00375589 0)
(0.00271045 0.000330089 0)
(-9.45098e-05 0.00393613 0)
(-0.00470606 0.00549673 0)
(-0.00908865 0.00464854 0)
(-0.0122032 0.00141464 0)
(-0.0130042 -0.00401497 0)
(-0.0105037 -0.0103158 0)
(-0.00343371 -0.0166316 0)
(0.0072544 -0.0202086 0)
(0.0191912 -0.0200237 0)
(0.0304024 -0.0163238 0)
(0.0399783 -0.00971049 0)
(0.0462604 -0.000430086 0)
(0.0460987 0.00925604 0)
(0.04011 0.0168493 0)
(0.0304446 0.0209413 0)
(0.0203654 0.0200733 0)
(0.0102044 0.0174007 0)
(0.00693623 0.0117533 0)
(-0.00785977 -0.00810731 0)
(-0.00543325 -0.0121817 0)
(-0.00437424 -0.0103969 0)
(0.000999391 -0.0038857 0)
(-0.00262981 0.00393291 0)
(-0.0074529 0.00923577 0)
(-0.013752 0.0111344 0)
(-0.0184395 0.00940366 0)
(-0.019691 0.00396668 0)
(-0.0173482 -0.00464741 0)
(-0.0112866 -0.0141782 0)
(-0.00354339 -0.0218319 0)
(0.00449858 -0.0262077 0)
(0.015015 -0.0270615 0)
(0.0252236 -0.0238945 0)
(0.0338106 -0.016345 0)
(0.0401587 -0.00334157 0)
(0.0409983 0.0110768 0)
(0.0360244 0.0212291 0)
(0.0272972 0.025792 0)
(0.0188347 0.0238139 0)
(0.00979546 0.0199873 0)
(0.00871355 0.014432 0)
(-0.0279096 -0.0014229 0)
(-0.0292841 -0.00620878 0)
(-0.0524226 -0.00750398 0)
(-0.0602694 -0.00292011 0)
(-0.0639857 0.00563581 0)
(-0.0618045 0.0120141 0)
(-0.0575437 0.014749 0)
(-0.0519475 0.0119897 0)
(-0.0404759 0.00435794 0)
(-0.0241977 -0.00146733 0)
(0.00384129 -0.00764509 0)
(0.0078621 -0.0140985 0)
(0.000532556 -0.0245713 0)
(0.00585885 -0.0282478 0)
(0.0147816 -0.0239728 0)
(0.0236338 -0.0177344 0)
(0.0315149 -0.00567619 0)
(0.0412982 0.0100017 0)
(0.0414774 0.0230836 0)
(0.0337527 0.0305439 0)
(0.0254156 0.0289876 0)
(0.0136863 0.0236108 0)
(0.0105887 0.017132 0)
(-0.0436969 0.0138231 0)
(-0.0585541 0.00191896 0)
(-0.0924244 -0.0013471 0)
(-0.112463 0.00136219 0)
(-0.123226 0.00348487 0)
(-0.123419 0.00543934 0)
(-0.116569 0.00631302 0)
(-0.104054 0.000899018 0)
(-0.0809892 -0.0115807 0)
(-0.0473981 -0.0290614 0)
(0.0178976 -0.0418727 0)
(0.0747959 -0.0280328 0)
(0.0931308 -0.0247139 0)
(0.0790963 -0.0299694 0)
(0.0571476 -0.0257515 0)
(0.0322052 -0.011309 0)
(-0.00728275 -0.00395809 0)
(-0.00492998 0.00864497 0)
(0.0249439 0.0267468 0)
(0.0367466 0.034421 0)
(0.0387904 0.0368192 0)
(0.0247579 0.0371373 0)
(0.0148409 0.0364724 0)
(-0.0424728 0.0160806 0)
(-0.0559799 0.00509524 0)
(-0.0718418 0.000510967 0)
(-0.0667822 -0.00322839 0)
(-0.0520998 -0.00510324 0)
(-0.0313977 -0.00537415 0)
(-0.0107966 -0.00576382 0)
(0.00751345 -0.00538805 0)
(0.0163942 -0.00228948 0)
(0.0140763 0.00251206 0)
(0.00156231 0.00650302 0)
(-0.0235953 0.0109843 0)
(-0.075373 0.0107369 0)
(-0.119246 0.00249948 0)
(-0.131326 -0.00787811 0)
(-0.100938 -0.0123491 0)
(-0.0461135 -0.0141727 0)
(-0.0088406 -0.00501578 0)
(-0.00905691 -0.00310017 0)
(-0.013796 0.0219777 0)
(-0.0149379 0.0103487 0)
(-0.0256309 0.00322161 0)
(-0.0162999 -0.00470712 0)
(-1.39642e-05 -0.0113181 0)
(0.0246871 -0.0149953 0)
(0.0404394 -0.0127022 0)
(0.0503966 -0.00735635 0)
(0.0580323 -0.00228046 0)
(0.0611016 0.00412629 0)
(0.0603452 0.0104705 0)
(0.049507 0.0224585 0)
(0.0217717 0.0312508 0)
(-0.0130413 0.023494 0)
(-0.0499062 -0.00121719 0)
(-0.058997 -0.0268487 0)
(-0.0166934 -0.0317859 0)
(0.0124293 -0.00985264 0)
(0.0189548 -0.00551684 0)
(-0.00759267 0.0273327 0)
(-0.0189997 0.0140994 0)
(-0.0236119 0.00157299 0)
(0.00248736 -0.0150174 0)
(0.031708 -0.0230621 0)
(0.0515713 -0.0228483 0)
(0.0412847 -0.0176139 0)
(0.0403769 -0.0126419 0)
(0.0684161 -0.00657737 0)
(0.0765404 -0.000545726 0)
(0.0708214 0.00666871 0)
(0.0693496 0.0214014 0)
(0.0606759 0.0359353 0)
(0.0414827 0.0308998 0)
(0.0214743 0.0113943 0)
(0.00299399 -0.0204553 0)
(0.013827 -0.0458263 0)
(0.0307809 -0.0182161 0)
(0.0424691 0.0145767 0)
(0.00111211 0.0312354 0)
(0.00657128 0.0183789 0)
(0.021327 -0.00683566 0)
(0.0540948 -0.0255252 0)
(0.0545516 -0.0257161 0)
(0.0655163 -0.0151721 0)
(-0.00712782 0.00573499 0)
(-0.0350379 -0.025411 0)
(0.101255 -0.0239847 0)
(0.135221 0.0136868 0)
(0.0564194 0.0222099 0)
(0.0133502 0.027865 0)
(0.0336505 0.0444999 0)
(0.0533564 0.0417033 0)
(0.0503652 0.0186496 0)
(0.0437765 -0.0198434 0)
(0.0742605 -0.0484531 0)
(0.0596076 -0.021686 0)
(0.0620276 0.0213834 0)
(-0.0100786 0.027221 0)
(0.0199668 0.0134803 0)
(0.0607891 -0.0221903 0)
(0.0781486 -0.0304385 0)
(0.08945 -0.0268923 0)
(0.105029 -0.00974372 0)
(0.0246918 0.0352943 0)
(-0.0196621 -0.0582401 0)
(0.0687553 -0.0842038 0)
(0.144388 0.0204069 0)
(0.120564 0.0480773 0)
(0.0757239 0.0368991 0)
(0.0581314 0.0305258 0)
(0.0804885 0.028767 0)
(0.102043 0.0100955 0)
(0.120787 -0.033658 0)
(0.150087 -0.0534341 0)
(0.125634 -0.0139835 0)
(0.10116 0.0642845 0)
(-0.0200586 0.0211583 0)
(0.0465863 -0.0190871 0)
(0.0805003 -0.0327676 0)
(0.0944211 -0.0365837 0)
(0.100049 -0.03235 0)
(0.116644 -0.00511058 0)
(0.0454997 0.0636207 0)
(0.0292498 -0.0589556 0)
(0.0358767 -0.101253 0)
(0.082385 0.00795839 0)
(0.0689236 0.0502564 0)
(0.109342 0.0459038 0)
(0.114081 0.0350679 0)
(0.152901 0.013205 0)
(0.201754 0.00358903 0)
(0.215928 -0.0333506 0)
(0.204369 -0.0482135 0)
(0.164599 -0.00523697 0)
(0.10037 0.123391 0)
(0.018505 0.0249199 0)
(0.0776977 -0.033623 0)
(0.0868337 -0.0373076 0)
(0.0874293 -0.0383186 0)
(0.0827842 -0.0339439 0)
(0.0837198 0.00357184 0)
(0.0320557 0.0865359 0)
(0.0308551 -0.0600822 0)
(0.0023576 -0.089876 0)
(-0.0465375 0.026667 0)
(-0.0394265 0.0341641 0)
(0.0707581 0.0223772 0)
(0.115883 0.0297864 0)
(0.174707 -0.026614 0)
(0.249978 -0.00967298 0)
(0.272485 -0.0357828 0)
(0.220501 -0.0313611 0)
(0.0620478 0.0369034 0)
(0.056185 0.176166 0)
(0.0732423 -0.0310562 0)
(0.105681 -0.0460058 0)
(0.100457 -0.0369493 0)
(0.0887278 -0.0343968 0)
(0.0725545 -0.0306297 0)
(0.0551885 0.0157729 0)
(0.0239635 0.101487 0)
(-0.00742448 -0.0594241 0)
(-0.0219394 -0.0646882 0)
(-0.0839682 0.0268703 0)
(-0.0429621 -0.00542288 0)
(0.0170257 -0.0337382 0)
(0.111163 0.00175798 0)
(0.136098 -0.0585736 0)
(0.18575 -0.0381947 0)
(0.195617 -0.0188347 0)
(0.12409 0.0350661 0)
(0.015951 0.0677502 0)
(0.0388378 0.183996 0)
(-0.0641883 0.0676176 0)
(-0.099283 0.0413262 0)
(-0.140729 0.0306373 0)
(-0.161543 0.0207627 0)
(-0.170683 0.0126823 0)
(-0.166418 0.00605787 0)
(-0.152001 -0.000606619 0)
(-0.13044 -0.01319 0)
(-0.100792 -0.0342179 0)
(-0.0616572 -0.0614542 0)
(-0.0169431 -0.082051 0)
(0.0321076 -0.0560768 0)
(0.0570867 -0.0219676 0)
(0.0539731 -0.0128148 0)
(0.0329983 -0.00795163 0)
(0.0366319 -0.000553104 0)
(0.0474337 0.0144987 0)
(0.0591718 -0.015403 0)
(0.0835423 0.000409321 0)
(0.103914 0.0271803 0)
(0.0938816 0.036801 0)
(0.0811148 0.0278496 0)
(0.0964778 0.00460339 0)
(-0.0510826 0.137033 0)
(-0.103226 0.0800575 0)
(-0.157523 0.0452259 0)
(-0.167593 0.0319242 0)
(-0.159877 0.0127936 0)
(-0.141302 -0.0120979 0)
(-0.122965 -0.0260056 0)
(-0.101178 -0.0433966 0)
(-0.0730761 -0.0714074 0)
(-0.0371813 -0.103517 0)
(-0.00855015 -0.119871 0)
(0.0154067 -0.0919791 0)
(0.0452692 -0.0427401 0)
(0.0667158 -0.00994615 0)
(0.0733754 -0.00323495 0)
(0.0845774 -0.0258169 0)
(0.0932393 -0.0178358 0)
(0.102543 -0.0267685 0)
(0.106462 -0.0226776 0)
(0.129546 0.00801357 0)
(0.171552 0.0372115 0)
(0.204982 0.0318436 0)
(0.2162 -0.0707503 0)
(0.00508499 0.179447 0)
(0.0130187 0.140267 0)
(-0.0332426 0.0843482 0)
(-0.0877363 0.0106461 0)
(-0.10012 -0.0244559 0)
(-0.0726949 -0.0463081 0)
(-0.0548805 -0.0472425 0)
(-0.0329088 -0.0642513 0)
(-0.0054915 -0.0995268 0)
(0.0278321 -0.131095 0)
(0.0492224 -0.136651 0)
(0.0657451 -0.113013 0)
(0.0873858 -0.0756802 0)
(0.119537 -0.0446599 0)
(0.158344 -0.0298685 0)
(0.1878 -0.025692 0)
(0.195991 -0.0113983 0)
(0.187797 -0.0102851 0)
(0.170417 -0.0159008 0)
(0.159354 -0.0204976 0)
(0.171623 -0.0211905 0)
(0.205938 -0.0130219 0)
(0.230362 -0.0122382 0)
(0.125963 0.18608 0)
(0.194987 0.18841 0)
(0.192686 0.161952 0)
(0.152221 0.113123 0)
(0.101266 0.0182574 0)
(0.043462 -0.0624109 0)
(0.0302849 -0.0678581 0)
(0.0448146 -0.0839112 0)
(0.0739647 -0.125714 0)
(0.10672 -0.153847 0)
(0.139194 -0.155845 0)
(0.17001 -0.13334 0)
(0.202709 -0.101162 0)
(0.238344 -0.0767599 0)
(0.273528 -0.0659667 0)
(0.303091 -0.0522129 0)
(0.328488 -0.0279732 0)
(0.348687 -0.00812923 0)
(0.358815 0.000977321 0)
(0.35634 -0.00222946 0)
(0.346373 -0.014826 0)
(0.336207 -0.03268 0)
(0.332274 -0.0502375 0)
(0.12956 -0.230262 0)
(0.329325 0.061858 0)
(0.367331 0.154626 0)
(0.331598 0.145238 0)
(0.283384 0.0813777 0)
(0.222296 0.0176187 0)
(0.15557 -0.0321721 0)
(0.137194 -0.0877332 0)
(0.156517 -0.15536 0)
(0.194183 -0.194617 0)
(0.236074 -0.19783 0)
(0.277297 -0.17746 0)
(0.319026 -0.14826 0)
(0.360992 -0.120905 0)
(0.399072 -0.099148 0)
(0.429256 -0.0758516 0)
(0.453224 -0.0515167 0)
(0.472532 -0.0326784 0)
(0.488858 -0.0176644 0)
(0.500684 -0.0081469 0)
(0.505434 -0.00659805 0)
(0.501648 -0.0121393 0)
(0.48814 -0.0207606 0)
(0.00430571 -0.374755 0)
(0.21893 -0.0444641 0)
(0.291835 0.123913 0)
(0.303533 0.162941 0)
(0.282357 0.115716 0)
(0.246409 0.0590226 0)
(0.212848 0.00317802 0)
(0.197204 -0.0820837 0)
(0.219266 -0.188088 0)
(0.263357 -0.24106 0)
(0.308561 -0.241991 0)
(0.348155 -0.218438 0)
(0.3836 -0.188301 0)
(0.418075 -0.159888 0)
(0.452813 -0.134633 0)
(0.487649 -0.108481 0)
(0.521707 -0.0807953 0)
(0.552093 -0.055272 0)
(0.576081 -0.0328378 0)
(0.593851 -0.0179929 0)
(0.606137 -0.0120092 0)
(0.613716 -0.0114523 0)
(0.612625 -0.0120487 0)
(-0.0660964 -0.443322 0)
(0.0893196 -0.110553 0)
(0.105086 0.0786196 0)
(0.18338 0.148534 0)
(0.22542 0.122301 0)
(0.251 0.0681921 0)
(0.25368 0.0176058 0)
(0.260943 -0.0900802 0)
(0.314083 -0.240153 0)
(0.357922 -0.292485 0)
(0.39521 -0.282634 0)
(0.422061 -0.249831 0)
(0.44197 -0.215451 0)
(0.460485 -0.187308 0)
(0.483255 -0.165254 0)
(0.512386 -0.141916 0)
(0.544381 -0.11322 0)
(0.57324 -0.083958 0)
(0.596915 -0.0578645 0)
(0.616457 -0.0394485 0)
(0.633422 -0.0291622 0)
(0.647703 -0.023167 0)
(0.657307 -0.0149073 0)
(-0.114647 -0.388948 0)
(-0.0594277 -0.142453 0)
(-0.0235403 0.00794177 0)
(0.131874 0.0698747 0)
(0.20471 0.0604835 0)
(0.25811 0.0308646 0)
(0.335249 0.0149477 0)
(0.42026 -0.119426 0)
(0.470036 -0.286861 0)
(0.489479 -0.325366 0)
(0.503788 -0.307719 0)
(0.509509 -0.268622 0)
(0.510823 -0.231043 0)
(0.512074 -0.202907 0)
(0.518366 -0.187287 0)
(0.534491 -0.171272 0)
(0.558167 -0.142852 0)
(0.580444 -0.107323 0)
(0.596815 -0.0741316 0)
(0.608131 -0.0532422 0)
(0.621097 -0.0431459 0)
(0.63794 -0.0357605 0)
(0.655371 -0.0248681 0)
(-0.146769 -0.296893 0)
(-0.139663 -0.223494 0)
(0.00935161 -0.14315 0)
(0.12707 -0.0988679 0)
(0.237272 -0.00632292 0)
(0.34037 -0.0669375 0)
(0.43901 -0.118538 0)
(0.536022 -0.202173 0)
(0.578989 -0.298352 0)
(0.587375 -0.333742 0)
(0.584424 -0.315661 0)
(0.576242 -0.274589 0)
(0.568983 -0.238943 0)
(0.562471 -0.214602 0)
(0.555161 -0.204425 0)
(0.559077 -0.192661 0)
(0.575244 -0.164668 0)
(0.592179 -0.125398 0)
(0.596992 -0.0829256 0)
(0.594048 -0.0604046 0)
(0.598435 -0.0590884 0)
(0.614301 -0.0573701 0)
(0.637932 -0.0444597 0)
(-0.205275 -0.168515 0)
(-0.16475 -0.285913 0)
(-0.0260494 -0.246877 0)
(0.0878817 -0.220647 0)
(0.196203 -0.15445 0)
(0.32118 -0.182693 0)
(0.433608 -0.231912 0)
(0.53194 -0.274778 0)
(0.609089 -0.325465 0)
(0.653651 -0.339411 0)
(0.650949 -0.298267 0)
(0.644895 -0.245498 0)
(0.654175 -0.210016 0)
(0.66092 -0.177022 0)
(0.640384 -0.151802 0)
(0.523677 -0.179786 0)
(0.59561 -0.168814 0)
(0.625327 -0.129925 0)
(0.646937 -0.078597 0)
(0.664375 -0.0569355 0)
(0.70576 -0.0673055 0)
(0.752335 -0.0696854 0)
(0.809023 -0.0617051 0)
(-0.134476 0.143982 0)
(-0.121535 -0.384644 0)
(-0.187255 -0.366996 0)
(-0.000120721 -0.300088 0)
(0.187912 -0.221272 0)
(0.313852 -0.241298 0)
(0.45834 -0.31419 0)
(0.559796 -0.352056 0)
(0.669701 -0.409955 0)
(0.727174 -0.374977 0)
(0.751157 -0.295981 0)
(0.776684 -0.255835 0)
(0.799257 -0.241249 0)
(0.830875 -0.186091 0)
(0.882718 -0.109798 0)
(0.928964 -0.0987231 0)
(0.890596 -0.210499 0)
(0.734386 -0.104387 0)
(0.585922 -0.028197 0)
(0.740624 -0.103922 0)
(0.862954 -0.136665 0)
(0.935478 -0.14737 0)
(1.0299 -0.154331 0)
(0.0623997 0.123144 0)
(-0.00430545 -0.192519 0)
(-0.20215 -0.378233 0)
(-0.299891 -0.531559 0)
(0.111301 -0.617941 0)
(0.682169 -0.537768 0)
(1.06459 -0.511762 0)
(1.16999 -0.455273 0)
(1.08816 -0.391293 0)
(0.968062 -0.365593 0)
(0.883999 -0.325281 0)
(0.838595 -0.294478 0)
(0.80679 -0.272838 0)
(0.789054 -0.249836 0)
(0.794322 -0.220681 0)
(0.821832 -0.187532 0)
(0.857962 -0.139831 0)
(0.91291 -0.0909314 0)
(1.00425 -0.118021 0)
(1.06417 -0.264908 0)
(1.05252 -0.337644 0)
(1.00697 -0.235813 0)
(0.913802 -0.201184 0)
(0.0319775 -0.0236545 0)
(-0.0737113 -0.0638751 0)
(-0.303621 -0.141244 0)
(-0.333826 -0.540662 0)
(0.143018 -1.25585 0)
(0.543661 -1.13743 0)
(0.984377 -0.704327 0)
(1.12816 -0.384692 0)
(1.05602 -0.295489 0)
(0.909478 -0.256746 0)
(0.787813 -0.235394 0)
(0.700681 -0.216068 0)
(0.625402 -0.203932 0)
(0.557687 -0.196607 0)
(0.512378 -0.185763 0)
(0.479845 -0.171381 0)
(0.461889 -0.15266 0)
(0.45171 -0.131709 0)
(0.444579 -0.129836 0)
(0.407683 -0.158289 0)
(0.328046 -0.169989 0)
(0.21856 -0.112144 0)
(0.0804194 0.0467191 0)
(-0.0447742 0.11613 0)
(-0.187055 0.101863 0)
(-0.403002 -0.0519888 0)
(-0.103307 -0.950121 0)
(0.242623 -1.61198 0)
(0.289641 -1.58742 0)
(0.614622 -1.12418 0)
(0.954345 -0.400864 0)
(0.87907 -0.150183 0)
(0.728151 -0.105283 0)
(0.577678 -0.108669 0)
(0.463598 -0.109631 0)
(0.35289 -0.10876 0)
(0.244821 -0.109874 0)
(0.157288 -0.107451 0)
(0.0769322 -0.104082 0)
(0.0174393 -0.0966877 0)
(-0.027787 -0.0997467 0)
(-0.0685793 -0.0949514 0)
(-0.111595 -0.0788001 0)
(-0.174766 -0.0318048 0)
(-0.249722 0.0423145 0)
(-0.306614 0.123513 0)
(-0.0437459 0.204501 0)
(-0.149439 0.214789 0)
(-0.252 -0.0674805 0)
(0.223015 -1.42158 0)
(0.251384 -1.61832 0)
(0.259354 -1.61655 0)
(0.300538 -1.45344 0)
(0.620201 -0.493418 0)
(0.675346 -0.0742965 0)
(0.517229 0.021929 0)
(0.354113 0.0240892 0)
(0.215777 0.0236702 0)
(0.0968788 0.00509411 0)
(0.00431956 -0.035044 0)
(-0.0630853 -0.0583954 0)
(-0.123479 -0.0631268 0)
(-0.181208 -0.0686494 0)
(-0.229057 -0.0817508 0)
(-0.262677 -0.0870384 0)
(-0.300223 -0.0716135 0)
(-0.34005 -0.0214831 0)
(-0.384454 0.0610334 0)
(-0.420667 0.145671 0)
(-0.00784126 0.266849 0)
(-0.0846839 0.252028 0)
(0.117188 -0.206545 0)
(0.265974 -1.45264 0)
(0.240566 -1.60023 0)
(0.239408 -1.62307 0)
(0.252478 -1.47886 0)
(0.31119 -0.699359 0)
(0.468429 0.00646298 0)
(0.315962 0.16977 0)
(0.170367 0.160299 0)
(0.0734829 0.126206 0)
(0.000664673 0.0919379 0)
(-0.0695286 0.0504847 0)
(-0.131736 0.0265479 0)
(-0.185152 0.0178404 0)
(-0.231627 0.00201333 0)
(-0.277003 -0.0247184 0)
(-0.315337 -0.0316403 0)
(-0.350617 -0.0147406 0)
(-0.382182 0.0316851 0)
(-0.403829 0.0915701 0)
(-0.413554 0.152963 0)
(0.044767 0.274585 0)
(-0.0422744 0.20848 0)
(0.389324 -0.526154 0)
(0.307196 -1.43236 0)
(0.260342 -1.58374 0)
(0.244058 -1.60452 0)
(0.230276 -1.43532 0)
(0.21212 -0.887409 0)
(0.276024 0.0646735 0)
(0.171928 0.276686 0)
(0.0659828 0.254389 0)
(0.00123201 0.200697 0)
(-0.0490777 0.149831 0)
(-0.0959506 0.0985574 0)
(-0.140218 0.0656555 0)
(-0.178106 0.047588 0)
(-0.212446 0.0294463 0)
(-0.249954 0.00389754 0)
(-0.289478 -0.00797159 0)
(-0.323761 0.00784129 0)
(-0.348451 0.0473519 0)
(-0.360132 0.0971104 0)
(-0.358957 0.140848 0)
(0.0779231 0.227286 0)
(0.0939553 0.0461909 0)
(0.55524 -0.774097 0)
(0.472859 -1.29095 0)
(0.350763 -1.55046 0)
(0.259028 -1.59479 0)
(0.227115 -1.40972 0)
(0.157977 -0.820589 0)
(0.103171 0.127291 0)
(0.0500965 0.342494 0)
(-0.00809503 0.312817 0)
(-0.0384995 0.244418 0)
(-0.0668066 0.186864 0)
(-0.0935577 0.13959 0)
(-0.124886 0.105634 0)
(-0.154428 0.0829013 0)
(-0.181223 0.0639884 0)
(-0.209625 0.0448868 0)
(-0.240747 0.0329058 0)
(-0.269458 0.0379969 0)
(-0.289055 0.0621563 0)
(-0.295916 0.0962237 0)
(-0.292021 0.126265 0)
(0.0777793 0.0959779 0)
(0.376493 -0.248553 0)
(0.604373 -0.902367 0)
(0.630063 -1.18099 0)
(0.533115 -1.41153 0)
(0.401643 -1.50758 0)
(0.265412 -1.36505 0)
(0.080224 -0.644859 0)
(-0.0141542 0.181656 0)
(-0.0525281 0.378484 0)
(-0.0703913 0.34003 0)
(-0.0733913 0.265117 0)
(-0.0847882 0.205712 0)
(-0.0986291 0.161801 0)
(-0.117008 0.129671 0)
(-0.136221 0.105845 0)
(-0.154862 0.0861377 0)
(-0.174668 0.0692427 0)
(-0.196271 0.0588254 0)
(-0.217036 0.0602752 0)
(-0.231921 0.0746498 0)
(-0.23707 0.0962992 0)
(-0.234194 0.116286 0)
(0.11855 -0.159258 0)
(0.514059 -0.564786 0)
(0.617249 -0.976594 0)
(0.653058 -1.15435 0)
(0.589289 -1.29883 0)
(0.449757 -1.34649 0)
(0.25243 -1.1716 0)
(-0.00304155 -0.470849 0)
(-0.118063 0.258111 0)
(-0.140736 0.387193 0)
(-0.130581 0.338346 0)
(-0.115685 0.266496 0)
(-0.114953 0.212128 0)
(-0.11706 0.173356 0)
(-0.123929 0.14393 0)
(-0.132973 0.120795 0)
(-0.143219 0.101705 0)
(-0.155165 0.0865348 0)
(-0.168794 0.0771383 0)
(-0.182394 0.0761862 0)
(-0.192448 0.084124 0)
(-0.196124 0.0973942 0)
(-0.194769 0.110531 0)
(0.206264 -0.515675 0)
(0.457358 -0.843942 0)
(0.559023 -1.03489 0)
(0.594039 -1.13268 0)
(0.539441 -1.20144 0)
(0.40492 -1.18165 0)
(0.163969 -0.941837 0)
(-0.127827 -0.232819 0)
(-0.224833 0.301817 0)
(-0.220403 0.369992 0)
(-0.191743 0.316583 0)
(-0.166008 0.253924 0)
(-0.15441 0.2081 0)
(-0.14656 0.174337 0)
(-0.143802 0.14803 0)
(-0.144028 0.12694 0)
(-0.1467 0.109747 0)
(-0.151707 0.0965674 0)
(-0.158577 0.0883074 0)
(-0.165943 0.0861733 0)
(-0.171459 0.0902043 0)
(-0.173296 0.0983089 0)
(-0.172426 0.107341 0)
(0.203122 -0.883592 0)
(0.359054 -0.994705 0)
(0.45001 -1.08399 0)
(0.481433 -1.11791 0)
(0.414744 -1.10457 0)
(0.26969 -1.00546 0)
(-0.0222215 -0.643363 0)
(-0.296593 0.0240799 0)
(-0.312458 0.301851 0)
(-0.291751 0.332177 0)
(-0.250094 0.28247 0)
(-0.217056 0.23169 0)
(-0.196244 0.194597 0)
(-0.180645 0.165956 0)
(-0.170202 0.143404 0)
(-0.163352 0.125311 0)
(-0.159651 0.110822 0)
(-0.158684 0.0999704 0)
(-0.15979 0.0931363 0)
(-0.161866 0.0907977 0)
(-0.16332 0.0928428 0)
(-0.163029 0.0981213 0)
(-0.161668 0.104838 0)
(0.151406 -1.0907 0)
(0.260856 -1.10916 0)
(0.334141 -1.12549 0)
(0.31598 -1.08419 0)
(0.232128 -0.995406 0)
(0.0477991 -0.793824 0)
(-0.258028 -0.32338 0)
(-0.403851 0.109329 0)
(-0.380168 0.271772 0)
(-0.34766 0.28209 0)
(-0.299073 0.241299 0)
(-0.261395 0.202402 0)
(-0.23398 0.173354 0)
(-0.21258 0.150271 0)
(-0.196344 0.132023 0)
(-0.184119 0.117496 0)
(-0.175371 0.106115 0)
(-0.169556 0.0978057 0)
(-0.166002 0.092684 0)
(-0.163818 0.0909022 0)
(-0.161903 0.0923354 0)
(-0.159517 0.0963551 0)
(-0.157128 0.101904 0)
(0.0793149 -1.26198 0)
(0.143349 -1.19734 0)
(0.158904 -1.13094 0)
(0.11449 -1.02127 0)
(-0.00133014 -0.849922 0)
(-0.229651 -0.527083 0)
(-0.420695 -0.136856 0)
(-0.470637 0.134448 0)
(-0.432255 0.228144 0)
(-0.387674 0.227326 0)
(-0.335547 0.196282 0)
(-0.295096 0.168122 0)
(-0.263431 0.146644 0)
(-0.237955 0.129388 0)
(-0.21765 0.115761 0)
(-0.201574 0.10509 0)
(-0.189115 0.0969972 0)
(-0.179688 0.0913682 0)
(-0.172664 0.0882028 0)
(-0.16732 0.0875261 0)
(-0.162816 0.0892375 0)
(-0.158634 0.0929964 0)
(-0.155144 0.0981104 0)
(0.014349 -1.3272 0)
(0.025861 -1.2135 0)
(-0.0120564 -1.08724 0)
(-0.100368 -0.911096 0)
(-0.258423 -0.655036 0)
(-0.429206 -0.340358 0)
(-0.5172 -0.0571967 0)
(-0.514517 0.118323 0)
(-0.465677 0.174984 0)
(-0.412449 0.170686 0)
(-0.359205 0.149291 0)
(-0.317365 0.130797 0)
(-0.283263 0.116515 0)
(-0.255235 0.105078 0)
(-0.232315 0.0961909 0)
(-0.213684 0.0894999 0)
(-0.198712 0.0847754 0)
(-0.186818 0.0819152 0)
(-0.177418 0.0808825 0)
(-0.169886 0.0816625 0)
(-0.163544 0.0841927 0)
(-0.157981 0.0882801 0)
(-0.153524 0.0934293 0)
(-0.0303367 -1.30455 0)
(-0.0745143 -1.16254 0)
(-0.169863 -0.988143 0)
(-0.293627 -0.766379 0)
(-0.436483 -0.501105 0)
(-0.538345 -0.236954 0)
(-0.567068 -0.0339711 0)
(-0.533001 0.0768767 0)
(-0.479495 0.115665 0)
(-0.422906 0.113745 0)
(-0.371031 0.10188 0)
(-0.329199 0.092104 0)
(-0.294181 0.0845543 0)
(-0.264886 0.0787277 0)
(-0.240501 0.0745468 0)
(-0.220334 0.0718537 0)
(-0.2038 0.0705222 0)
(-0.190344 0.0704765 0)
(-0.179424 0.0716802 0)
(-0.17048 0.0741203 0)
(-0.162912 0.0777726 0)
(-0.156378 0.0825336 0)
(-0.151207 0.0880127 0)
(-0.0636415 -1.21973 0)
(-0.154414 -1.06027 0)
(-0.285784 -0.862281 0)
(-0.412773 -0.636744 0)
(-0.518828 -0.404959 0)
(-0.570679 -0.203212 0)
(-0.56736 -0.0578743 0)
(-0.527555 0.0260479 0)
(-0.475388 0.0561907 0)
(-0.421155 0.0590167 0)
(-0.372878 0.0557755 0)
(-0.332416 0.0534836 0)
(-0.297716 0.052005 0)
(-0.268151 0.0514105 0)
(-0.243153 0.0517643 0)
(-0.2222 0.0529947 0)
(-0.204792 0.0550313 0)
(-0.190433 0.0578094 0)
(-0.178618 0.0613006 0)
(-0.168828 0.0655096 0)
(-0.160521 0.0704525 0)
(-0.153381 0.076082 0)
(-0.147741 0.0820849 0)
(-0.0862797 -1.09244 0)
(-0.203613 -0.929191 0)
(-0.345621 -0.734104 0)
(-0.458877 -0.53084 0)
(-0.535044 -0.341302 0)
(-0.561857 -0.187293 0)
(-0.547654 -0.081667 0)
(-0.508609 -0.022329 0)
(-0.459913 0.00180736 0)
(-0.410757 0.00885762 0)
(-0.367069 0.0124909 0)
(-0.328906 0.0161815 0)
(-0.295349 0.0198827 0)
(-0.266195 0.0239512 0)
(-0.241186 0.02854 0)
(-0.21999 0.0335323 0)
(-0.202213 0.0388752 0)
(-0.187438 0.0444615 0)
(-0.175196 0.0502602 0)
(-0.165003 0.0562948 0)
(-0.156341 0.0626178 0)
(-0.148917 0.0692305 0)
(-0.143067 0.0758818 0)
(-0.0974352 -0.943205 0)
(-0.221341 -0.790383 0)
(-0.357579 -0.615271 0)
(-0.454116 -0.446491 0)
(-0.512151 -0.29957 0)
(-0.52855 -0.185784 0)
(-0.512921 -0.109508 0)
(-0.478477 -0.0665627 0)
(-0.436314 -0.0466089 0)
(-0.393882 -0.0361407 0)
(-0.355047 -0.0275624 0)
(-0.319802 -0.0194427 0)
(-0.288014 -0.0114562 0)
(-0.259775 -0.0032362 0)
(-0.235202 0.00526737 0)
(-0.214172 0.0139147 0)
(-0.196426 0.0224956 0)
(-0.181649 0.030864 0)
(-0.169381 0.0389719 0)
(-0.159155 0.0468559 0)
(-0.150477 0.0546025 0)
(-0.143059 0.0622561 0)
(-0.137221 0.0696314 0)
(-0.098534 -0.790486 0)
(-0.215407 -0.65767 0)
(-0.337729 -0.510625 0)
(-0.418896 -0.377018 0)
(-0.466287 -0.267198 0)
(-0.479996 -0.186013 0)
(-0.468148 -0.133067 0)
(-0.440958 -0.102918 0)
(-0.406971 -0.0863223 0)
(-0.371858 -0.0742282 0)
(-0.338056 -0.0631941 0)
(-0.305921 -0.0525418 0)
(-0.276016 -0.0415413 0)
(-0.248992 -0.0298654 0)
(-0.225197 -0.0177113 0)
(-0.204805 -0.0054598 0)
(-0.187624 0.00631718 0)
(-0.173259 0.0174182 0)
(-0.161348 0.0278117 0)
(-0.151441 0.0375365 0)
(-0.143056 0.0467095 0)
(-0.135911 0.0554206 0)
(-0.130312 0.0635523 0)
(-0.0929412 -0.64647 0)
(-0.196314 -0.537813 0)
(-0.302553 -0.420085 0)
(-0.370416 -0.317904 0)
(-0.410602 -0.238442 0)
(-0.424363 -0.18323 0)
(-0.417931 -0.149238 0)
(-0.398693 -0.130025 0)
(-0.37297 -0.117449 0)
(-0.34472 -0.105994 0)
(-0.315676 -0.0944497 0)
(-0.286807 -0.0824366 0)
(-0.259212 -0.06931 0)
(-0.233867 -0.0548632 0)
(-0.211418 -0.0395517 0)
(-0.192092 -0.0241498 0)
(-0.175892 -0.00928266 0)
(-0.162433 0.00453789 0)
(-0.151259 0.0171513 0)
(-0.142006 0.0286646 0)
(-0.134208 0.0392235 0)
(-0.127586 0.0489662 0)
(-0.122413 0.0578479 0)
(-0.0839043 -0.517191 0)
(-0.172318 -0.432896 0)
(-0.263288 -0.342437 0)
(-0.319811 -0.266786 0)
(-0.353894 -0.211505 0)
(-0.367464 -0.176909 0)
(-0.365443 -0.158395 0)
(-0.352938 -0.148785 0)
(-0.33416 -0.141194 0)
(-0.311667 -0.132316 0)
(-0.28699 -0.121836 0)
(-0.261609 -0.109545 0)
(-0.236925 -0.0949001 0)
(-0.214053 -0.0780608 0)
(-0.193714 -0.059835 0)
(-0.176208 -0.0413855 0)
(-0.161502 -0.0237023 0)
(-0.149344 -0.00734563 0)
(-0.139313 0.00738207 0)
(-0.131032 0.0205563 0)
(-0.124086 0.0324068 0)
(-0.118204 0.0431136 0)
(-0.113634 0.0527011 0)
(-0.0732775 -0.404874 0)
(-0.147192 -0.343209 0)
(-0.224227 -0.277355 0)
(-0.270933 -0.224457 0)
(-0.2993 -0.1885 0)
(-0.311664 -0.169528 0)
(-0.312099 -0.162864 0)
(-0.304071 -0.161407 0)
(-0.29024 -0.159175 0)
(-0.272289 -0.153848 0)
(-0.251664 -0.145288 0)
(-0.230069 -0.133275 0)
(-0.209043 -0.117508 0)
(-0.189609 -0.098562 0)
(-0.172318 -0.0777355 0)
(-0.157386 -0.0565768 0)
(-0.144802 -0.0363297 0)
(-0.134373 -0.0177773 0)
(-0.125864 -0.00117683 0)
(-0.118783 0.0134815 0)
(-0.112885 0.0264828 0)
(-0.107913 0.0380463 0)
(-0.10407 0.0482594 0)
(-0.0619676 -0.309877 0)
(-0.122369 -0.267838 0)
(-0.186633 -0.223019 0)
(-0.224764 -0.189326 0)
(-0.247774 -0.169247 0)
(-0.257906 -0.162578 0)
(-0.258724 -0.165156 0)
(-0.252799 -0.170508 0)
(-0.241967 -0.173308 0)
(-0.227527 -0.171522 0)
(-0.210904 -0.164767 0)
(-0.193732 -0.152923 0)
(-0.17723 -0.136136 0)
(-0.16203 -0.115432 0)
(-0.148435 -0.0925157 0)
(-0.136604 -0.0691638 0)
(-0.126572 -0.0468053 0)
(-0.118164 -0.0264077 0)
(-0.111265 -0.00826748 0)
(-0.105577 0.0076506 0)
(-0.100849 0.0216144 0)
(-0.0968919 0.0338968 0)
(-0.0938621 0.0446314 0)
(-0.0504127 -0.231888 0)
(-0.0983645 -0.206026 0)
(-0.150507 -0.178538 0)
(-0.180645 -0.160736 0)
(-0.19847 -0.153853 0)
(-0.205844 -0.157213 0)
(-0.205787 -0.167133 0)
(-0.200431 -0.17794 0)
(-0.191458 -0.184687 0)
(-0.180179 -0.185419 0)
(-0.16787 -0.1796 0)
(-0.155728 -0.167448 0)
(-0.144287 -0.149708 0)
(-0.133665 -0.127824 0)
(-0.123947 -0.103564 0)
(-0.115254 -0.0787766 0)
(-0.107721 -0.0549891 0)
(-0.101416 -0.0331388 0)
(-0.0961484 -0.0137777 0)
(-0.0918576 0.00313784 0)
(-0.0882872 0.0178664 0)
(-0.085353 0.0307232 0)
(-0.0831501 0.0418684 0)
(-0.0387186 -0.170493 0)
(-0.0751138 -0.157356 0)
(-0.115457 -0.143901 0)
(-0.137713 -0.138896 0)
(-0.150393 -0.14261 0)
(-0.155025 -0.153894 0)
(-0.153915 -0.169584 0)
(-0.148643 -0.184521 0)
(-0.141192 -0.193686 0)
(-0.13311 -0.195479 0)
(-0.125343 -0.189567 0)
(-0.118378 -0.176832 0)
(-0.111987 -0.158548 0)
(-0.105933 -0.136122 0)
(-0.100118 -0.111186 0)
(-0.0945644 -0.0855576 0)
(-0.0894298 -0.0608428 0)
(-0.0849441 -0.0381028 0)
(-0.0811061 -0.0178384 0)
(-0.0780249 -0.000137836 0)
(-0.0755107 0.0151952 0)
(-0.0735186 0.0285033 0)
(-0.0721069 0.0399581 0)
(-0.0270956 -0.125233 0)
(-0.0526967 -0.121136 0)
(-0.0816278 -0.118591 0)
(-0.0962242 -0.123543 0)
(-0.103846 -0.135359 0)
(-0.106276 -0.15236 0)
(-0.104786 -0.172356 0)
(-0.099775 -0.190332 0)
(-0.0938909 -0.200182 0)
(-0.0891005 -0.201472 0)
(-0.0857325 -0.194542 0)
(-0.0836146 -0.18106 0)
(-0.0819244 -0.162527 0)
(-0.0802401 -0.140113 0)
(-0.078143 -0.115286 0)
(-0.0755071 -0.0896863 0)
(-0.0724904 -0.0647628 0)
(-0.0694361 -0.041598 0)
(-0.0667309 -0.0207204 0)
(-0.0645286 -0.00241073 0)
(-0.0628313 0.0134436 0)
(-0.0616096 0.0271336 0)
(-0.0608832 0.0388246 0)
(-0.0163456 -0.0955035 0)
(-0.0320316 -0.0968467 0)
(-0.0501032 -0.102348 0)
(-0.0576354 -0.114406 0)
(-0.0604126 -0.131587 0)
(-0.0616893 -0.15157 0)
(-0.0611968 -0.174523 0)
(-0.0570527 -0.195174 0)
(-0.0529291 -0.204145 0)
(-0.0513565 -0.203656 0)
(-0.0517143 -0.195091 0)
(-0.0534984 -0.18078 0)
(-0.0556959 -0.162127 0)
(-0.0577229 -0.140169 0)
(-0.0588325 -0.116148 0)
(-0.0586977 -0.0913866 0)
(-0.0574345 -0.0670266 0)
(-0.0554753 -0.0439761 0)
(-0.0534441 -0.0228293 0)
(-0.0517127 -0.00400591 0)
(-0.0505061 0.0123636 0)