/*--------------------------------*- C++ -*----------------------------------*\
| =========                 |                                                 |
| \\      /  F ield         | OpenFOAM: The Open Source CFD Toolbox           |
|  \\    /   O peration     | Version:  2312                                  |
|   \\  /    A nd           | Website:  www.openfoam.com                      |
|    \\/     M anipulation  |                                                 |
\*---------------------------------------------------------------------------*/
FoamFile
{
    version     2.0;
    format      ascii;
    arch        "LSB;label=32;scalar=64";
    class       volScalarField;
    location    "0.15";
    object      alpha.air;
}
// * * * * * * * * * * * * * * * * * * * * * * * * * * * * * * * * * * * * * //

dimensions      [0 0 0 0 0 0 0];

internalField   nonuniform List<scalar> 
2268
(
1.53421e-35
1.09993e-34
3.72529e-34
8.22288e-34
3.10916e-33
6.44189e-33
2.27437e-31
5.49126e-31
5.48673e-30
1.45738e-28
7.33593e-28
1.37405e-26
9.82354e-23
3.11269e-22
2.10261e-22
4.69383e-23
2.05639e-24
3.43847e-26
8.87555e-27
3.14885e-27
1.09586e-27
1.2869e-28
3.16124e-29
8.0706e-33
2.54756e-32
7.83257e-32
1.82214e-31
7.32501e-31
2.14735e-30
1.17228e-29
2.29491e-29
3.27597e-28
7.88822e-27
3.14354e-26
9.70626e-26
9.72759e-22
6.8826e-21
3.62586e-21
5.2656e-22
1.42738e-23
2.21242e-25
1.02445e-25
6.86128e-26
3.34308e-26
1.37433e-26
7.60314e-28
1.69204e-30
3.29714e-30
9.14467e-30
1.9206e-29
6.87697e-29
1.54066e-28
4.58572e-28
6.56542e-28
9.14919e-27
1.55349e-25
4.29513e-25
5.24352e-25
1.13521e-20
8.14143e-20
4.43187e-20
8.43481e-21
3.36132e-22
3.46529e-23
5.82644e-24
1.04499e-24
1.82069e-25
1.13967e-26
2.13048e-28
1.65813e-28
2.54002e-28
6.42985e-28
8.77974e-28
2.54518e-27
4.27048e-27
1.39242e-26
1.18031e-26
1.84743e-25
2.32139e-24
4.87361e-24
9.03161e-24
1.06027e-19
3.74662e-19
2.29914e-19
1.49271e-19
1.36329e-19
1.33508e-19
3.32362e-20
9.22053e-22
1.74275e-24
1.01872e-27
8.71295e-29
8.07288e-27
1.10954e-26
2.56289e-26
5.27243e-26
1.11929e-25
1.37339e-25
2.34587e-25
2.08277e-25
3.49902e-24
2.48343e-23
4.52722e-23
7.80542e-23
3.25577e-19
7.32636e-19
3.99297e-18
2.94043e-17
7.62916e-17
4.73117e-17
1.12406e-17
3.37568e-19
6.98398e-22
2.37717e-24
5.91418e-28
2.20815e-25
2.94399e-25
5.64495e-25
9.38583e-25
2.19113e-24
1.81974e-24
2.03978e-24
1.58805e-24
2.97867e-23
1.03799e-22
1.65966e-22
6.26737e-22
3.87341e-19
6.73521e-19
2.18154e-15
5.44256e-15
4.36458e-15
9.12623e-16
1.97281e-16
1.30315e-17
3.96686e-19
1.88517e-20
2.78204e-22
4.15537e-24
6.22151e-24
1.00438e-23
1.15867e-23
2.24599e-23
1.42593e-23
9.89235e-24
6.54085e-24
1.62681e-22
2.17652e-22
2.86436e-22
2.64325e-21
1.16031e-19
9.47338e-20
2.00261e-13
1.46977e-13
3.12948e-14
2.01424e-15
1.81679e-16
1.60735e-17
1.91067e-18
8.47193e-20
4.58164e-22
7.72982e-23
1.27052e-22
2.43135e-22
1.96246e-22
2.07912e-22
7.68001e-23
2.79523e-23
3.78944e-23
9.0236e-22
2.18122e-22
2.14643e-22
6.8564e-21
1.78293e-23
2.04578e-28
2.52423e-12
7.16616e-13
4.72081e-14
3.01846e-15
3.42426e-16
2.37919e-17
1.70823e-18
7.18974e-20
3.0017e-21
1
1
1
1
1
0.972723
0.782684
0.687763
0.777071
0.965175
0.999999
1
1
1
1
1
1
1
1
1
1
1
1
1
0.783893
0.133174
1.28157e-09
0.049088
0.690717
0.998528
1
1
1
1
1
1
1
1
1
1
1
1
1
0.279187
1.2908e-09
1.29756e-09
1.87951e-09
0.173536
0.88654
1
1
1
1
1
1
1
1
1
1
1
1
0.642194
0.0353131
1.16922e-08
1.55564e-09
6.11357e-10
0.00383659
0.714234
1
1
1
1
1
1
1
1
1
1
1
0.887618
0.182889
2.1063e-10
1.0831e-09
4.10619e-10
6.67105e-10
0.00344567
0.697853
1
1
1
1
1
1
1
1
1
1
0.959011
0.307802
1.93191e-10
2.07333e-10
2.09537e-10
3.13148e-10
1.10471e-09
0.232535
0.890521
1
1
1
1
1
1
1
1
1
0.949466
0.394705
6.6653e-09
1.05379e-09
3.0614e-10
1.90272e-10
5.1498e-10
6.73252e-09
0.547796
0.995502
1
1
1
1
1
1
1
1
0.788478
0.363603
-9.24905e-13
2.44126e-10
2.27776e-10
1.95672e-10
1.71324e-10
6.46479e-10
0.0254082
0.772431
1
1
1
1
1
1
1
1
1
1.9414e-21
2.04547e-21
2.40392e-21
2.73533e-21
1.15431e-21
3.52523e-22
5.43165e-22
2.93074e-21
2.17766e-20
1.65587e-18
9.95816e-23
6.08867e-12
2.30525e-11
2.50398e-11
1.11879e-11
1.48262e-12
3.37085e-14
1.09373e-16
1.17323e-17
3.57237e-18
6.51777e-19
1.13749e-19
2.2337e-20
6.91405e-20
8.37319e-20
1.18607e-19
2.58586e-19
5.36914e-19
1.13903e-18
3.31694e-18
1.78446e-17
3.00715e-17
5.07771e-16
8.53963e-25
6.21751e-11
3.25268e-10
3.1742e-10
8.74966e-11
4.13061e-12
2.10423e-14
8.61988e-18
9.47104e-19
5.52538e-19
2.29194e-19
6.22654e-20
1.73867e-20
9.98337e-17
1.17987e-16
1.46352e-16
3.70931e-16
5.9071e-16
5.81986e-16
1.72512e-15
4.13539e-15
4.61473e-15
8.95831e-15
1.01366e-15
1.37952e-10
1.0268e-09
1.02934e-09
3.16334e-10
1.61355e-11
8.20904e-14
3.2739e-17
5.20826e-20
5.34776e-20
3.05104e-20
1.25916e-20
4.5017e-21
8.32061e-15
9.66553e-15
1.1032e-14
1.22046e-14
1.70135e-14
2.34714e-14
3.53696e-14
5.9703e-14
9.41719e-14
1.5163e-13
9.62193e-16
1.59061e-10
1.54527e-09
2.89416e-09
8.72554e-10
3.73539e-11
1.692e-13
3.71011e-16
4.46666e-18
4.97814e-19
1.43948e-19
5.39188e-20
7.78876e-19
6.41966e-14
7.37421e-14
8.08016e-14
8.4592e-14
1.03068e-13
1.27949e-13
1.76927e-13
2.95142e-13
4.09904e-13
6.03958e-13
6.17884e-14
1.70337e-12
9.69852e-09
1.05531e-08
2.07002e-09
2.88979e-11
6.58298e-13
2.47951e-14
1.26269e-15
3.91915e-16
2.5597e-15
1.25889e-14
1.23486e-13
4.06083e-13
4.63623e-13
4.97627e-13
5.36786e-13
5.81893e-13
6.76299e-13
7.73834e-13
1.40741e-12
2.01571e-12
2.53465e-12
8.0714e-13
1.81381e-13
6.35021e-08
3.63161e-08
2.7729e-09
1.43355e-16
1.63065e-16
2.68151e-16
2.91991e-16
1.36529e-14
1.42723e-13
3.77206e-13
2.3135e-12
2.10411e-12
2.38345e-12
2.53509e-12
2.62228e-12
3.05593e-12
3.11144e-12
4.13003e-12
6.19279e-12
8.02649e-12
9.39618e-12
2.21042e-12
2.98616e-13
3.79544e-07
1.59239e-07
2.69829e-09
1.63755e-16
3.06586e-15
2.63131e-15
2.31863e-15
2.20231e-13
1.89838e-12
6.8371e-12
2.06333e-11
9.76153e-12
1.07914e-11
1.14198e-11
1.16061e-11
1.25519e-11
1.57806e-11
1.88888e-11
2.64386e-11
2.86369e-11
3.02063e-11
3.55412e-12
1.78516e-12
1.12266e-06
3.45086e-07
1.44669e-25
3.90646e-14
2.65022e-14
1.08429e-14
1.6078e-14
3.44456e-12
1.53266e-11
4.6069e-11
1.2445e-10
4.27858e-11
4.5433e-11
4.75103e-11
4.75125e-11
5.39795e-11
5.43449e-11
7.77763e-11
1.02633e-10
1.16473e-10
1.06487e-10
6.30008e-12
1.77244e-12
3.79673e-06
5.70953e-07
4.7669e-25
5.41095e-13
9.65711e-13
5.83503e-13
1.98571e-12
2.9304e-11
8.81873e-11
2.56931e-10
3.35514e-10
1.69459e-10
1.74584e-10
1.79207e-10
1.73588e-10
1.74754e-10
2.31803e-10
2.46807e-10
3.0236e-10
3.54027e-10
3.01344e-10
1.55022e-11
1.76444e-05
1.13207e-05
4.92965e-07
-2.0816e-26
1.01642e-11
1.28788e-11
2.64294e-11
4.28619e-11
1.39235e-10
2.65485e-10
5.23432e-10
5.59166e-10
5.4416e-10
5.64865e-10
5.59389e-10
5.12999e-10
5.71129e-10
6.21002e-10
6.51061e-10
8.34866e-10
7.51502e-10
7.05645e-10
1.47746e-11
0.000101444
5.93743e-05
1.07728e-06
-5.16557e-20
8.12927e-11
8.91697e-11
1.84561e-10
1.62881e-10
4.45177e-10
5.58344e-10
7.79091e-10
6.05667e-10
1.28511e-09
1.34892e-09
1.23978e-09
1.07971e-09
1.03265e-09
1.0766e-09
1.0211e-09
1.5476e-09
1.3083e-09
1.52162e-09
2.60431e-10
0.000201767
6.34853e-05
3.12042e-19
1.24921e-10
3.17534e-10
3.16054e-10
3.17562e-10
4.17655e-10
1.04391e-09
9.39231e-10
4.7734e-10
5.74519e-10
1.77402e-09
1.84966e-09
1.63278e-09
1.2466e-09
9.89267e-10
9.82558e-10
7.43007e-10
1.15524e-08
1.05686e-08
1.00511e-08
4.4151e-09
0.000377867
6.86074e-10
3.67733e-19
4.68897e-10
6.66092e-10
3.33936e-10
1.90981e-10
6.19834e-09
5.3875e-09
9.25914e-10
0.0381308
0.29229
7.39284e-10
1.21318e-09
7.39284e-10
1.21318e-09
1.32555e-09
4.12375e-09
2.33292e-09
0.00115634
0.0144646
0.0496543
0.10615
0.187302
0.00878829
2.40792e-07
-1.39277e-12
3.88275e-10
2.47079e-09
1.88455e-10
0.00548023
0.079011
0.289658
0.675804
0.975666
0.107488
0.116332
0.134418
0.16317
0.207139
0.266512
0.347031
0.466191
0.601094
0.728435
0.825616
0.893429
0.245434
0.0356239
0.0313363
0.0578838
0.132246
0.27135
0.516946
0.782741
0.978999
1
1
0.832908
0.843713
0.863797
0.890913
0.923962
0.957631
0.990011
0.999999
1
0.999989
0.999077
0.987362
0.887521
0.691501
0.682945
0.749997
0.860361
0.963728
1
1
1
1
1
1
1
1
1
1
1
1
1
1
0.999979
0.998885
0.997373
0.99998
0.998922
0.999891
0.999994
1
1
1
1
1
1
0.999976
1
1
1
1
1
1
1
1
1
0.99998
0.999911
0.999999
0.99999
1
0.999993
1
1
1
1
1
1
0.999934
0.999581
1
1
1
1
1
1
1
1
1
1
1
1
1
1
1
1
1
1
1
1
0.999999
0.999762
0.999494
1
1
1
1
1
1
1
1
1
1
1
1
1
1
1
1
1
1
1
1
0.999981
0.99992
0.999918
1
1
1
1
1
1
1
1
1
1
1
1
1
1
1
1
1
1
1
1
1
1
1
1
1
1
1
1
1
1
1
1
1
1
1
1
1
1
1
1
1
1
1
1
1
1
1
1
1
1
1
1
1
1
1
1
1
1
1
1
1
1
1
1
1
1
1
1
1
1
1
1
1
1
1
1
1
1
1
1
1
1
1
1
1
1
1
1
1
1
1
1
1
1
1
1
1
1
1
1
1
1
1
1
1
1
1
1
1
1
1
1
1
1
1
1
1
1
1
1
1
1
1
1
1
1
1
1
1
1
1
1
1
1
1
1
1
1
1
1
1
1
1
1
1
1
1
1
1
1
1
1
1
1
1
1
1
1
1
1
1
1
1
1
1
1
1
1
1
1
1
1
1
1
1
1
1
1
1
1
1
1
1
1
1
1
1
1
1
1
1
1
1
1
1
1
1
1
1
1
1
1
1
1
1
1
1
1
1
1
1
1
1
1
1
1
1
1
1
1
1
1
1
1
1
1
1
1
1
1
1
1
1
1
1
1
1
1
1
1
1
1
1
1
1
1
1
1
1
1
1
1
1
1
1
1
1
1
1
1
1
1
1
1
1
1
1
1
1
1
1
1
1
1
1
1
1
1
1
1
1
1
1
1
1
1
1
1
1
1
1
1
1
1
1
1
1
1
1
1
1
1
1
1
1
1
1
1
1
1
1
1
1
1
1
1
1
1
1
1
1
1
1
1
1
1
1
1
1
1
1
1
1
1
1
1
1
1
1
1
1
1
1
1
1
1
1
1
1
1
1
1
1
1
1
1
1
1
1
1
1
1
1
1
1
1
1
1
1
1
1
1
1
1
1
1
1
1
1
1
1
1
1
1
1
1
1
1
1
1
1
1
1
1
1
1
1
1
1
1
1
1
1
1
1
1
1
1
1
1
1
1
1
1
1
1
1
1
1
1
1
1
1
1
1
1
1
1
1
1
1
1
1
1
1
1
1
1
1
1
1
1
1
1
1
1
1
1
1
1
1
1
1
1
1
1
1
1
1
1
1
1
1
1
1
1
1
1
1
1
1
1
1
1
1
1
1
1
1
1
1
1
1
1
1
1
1
1
1
1
1
1
1
1
1
1
1
1
1
1
1
1
1
1
1
1
1.35922e-20
7.40462e-21
2.07474e-21
4.29623e-21
9.25619e-21
4.87187e-21
2.11219e-21
1.03747e-21
2.40627e-21
1.17316e-21
3.59285e-20
3.62037e-18
2.06658e-17
6.357e-16
3.4578e-15
1.05727e-14
3.39011e-13
5.74134e-13
9.47867e-13
1.43359e-12
5.14725e-12
6.12848e-12
8.37666e-12
1.05181e-11
3.79743e-11
4.92634e-11
4.93207e-11
4.75331e-11
1.50871e-10
1.56116e-10
1.58539e-10
1.27678e-10
3.98738e-10
3.589e-10
3.58197e-10
2.04338e-10
5.9829e-10
3.56405e-10
8.19692e-10
1.97071e-10
7.62154e-10
3.13593e-09
1.97071e-10
1.95273e-10
0.0207958
0.0905311
0.263887
0.55999
0.594375
0.813994
0.996319
1
1
1
1
0.999883
1
1
0.995948
0.999732
1
0.999257
0.99531
0.999913
0.999853
0.998647
0.996717
1
0.999386
0.999577
0.999997
1
0.999668
1
1
1
0.999992
1
1
1
1
1
1
1
1
1
1
1
1
1
1
1
1
1
1
1
1
1
1
1
1
1
1
1
1
1
1
1
1
1
1
1
1
1
1
1
1
1
1
1
1
1
1
1
1
1
1
1
1
1
1
1
1
1
1
1
1
1
1
1
1
1
1
1
1
1
1
1
1
1
1
1
1
1
1
1
1
1
1
1
1
1
1
1
1
1
1
1
9.38369e-22
9.38626e-22
6.29274e-13
3.2812e-11
8.07716e-11
1.12288e-10
1.12631e-10
1.82543e-09
0.306622
0.931193
1
1
1
1
1
1
1
1
1
9.38617e-22
4.74292e-13
1.28993e-11
5.80029e-11
1.15439e-10
1.10562e-10
6.44284e-10
0.101261
0.80558
1
1
1
1
1
1
1
1
1
1
9.38369e-22
3.54701e-12
2.91594e-11
6.48781e-11
1.61355e-10
1.09989e-10
1.1833e-09
0.601529
1
1
1
1
1
1
1
1
1
1
1
1.14692e-13
9.93764e-12
3.4333e-11
4.0682e-11
8.64563e-11
2.8773e-09
0.407283
0.975015
1
1
1
1
1
1
1
1
1
1
1
2.92366e-12
1.27213e-11
2.59061e-11
2.64226e-11
2.47924e-09
0.296292
0.940316
1
1
1
1
1
1
1
1
1
1
1
1
1.14753e-11
1.97395e-11
1.99738e-11
2.24134e-09
0.220044
0.884837
1
1
1
1
1
1
1
1
1
1
1
1
1
2.84759e-11
2.00544e-11
1.74575e-09
0.182504
0.846752
1
1
1
1
1
1
1
1
1
1
1
1
1
1
2.81353e-11
7.59586e-10
0.154584
0.814185
1
1
1
1
1
1
1
1
1
1
1
1
1
1
1
2.78423e-11
0.115221
0.775875
1
1
1
1
1
1
1
1
1
1
1
1
1
1
1
1
0.0471471
0.720221
1
1
1
1
1
1
1
1
1
1
1
1
1
1
1
1
1
0.628918
1
1
1
1
1
1
1
1
1
1
1
1
1
1
1
1
1
1
0.986241
1
1
1
1
1
1
1
1
1
1
1
1
1
1
1
1
1
1
1
1
1
1
1
1
1
1
1
1
1
1
1
1
1
1
1
1
1
0.999996
1
1
1
1
1
1
1
1
1
1
1
1
1
1
1
1
1
1
1
1
1
1
1
1
1
1
1
1
1
1
1
1
1
1
1
1
1
1
1
1
1
1
1
1
1
1
1
1
1
1
1
1
1
1
1
1
1
1
1
1
1
1
1
1
1
1
1
1
1
1
1
1
1
1
1
1
1
1
1
1
1
1
1
1
1
1
1
1
1
1
1
1
1
1
1
1
1
1
1
1
1
1
1
1
1
1
1
1
1
1
1
1
1
1
1
1
1
1
1
1
1
1
1
1
1
1
1
1
1
1
1
1
1
1
1
1
1
1
1
1
1
1
1
1
1
1
1
1
1
1
1
1
1
1
1
1
1
1
1
1
1
1
1
1
1
1
1
1
1
1
1
1
1
1
1
1
1
1
1
1
1
1
1
1
1
1
1
1
1
1
1
1
1
1
1
1
1
1
1
1
1
1
1
1
1
1
1
1
1
1
1
1
1
1
1
1
1
1
1
1
1
1
1
1
1
1
1
1
1
1
1
1
1
1
1
1
1
1
1
1
1
1
1
1
1
1
1
1
1
1
1
1
1
1
1
1
1
1
1
1
1
1
1
1
1
1
1
1
1
1
1
1
1
1
1
1
1
1
1
1
1
1
1
1
1
1
1
1
1
1
1
1
1
1
1
1
1
1
1
1
1
1
1
1
1
1
1
1
1
1
1
1
1
1
1
1
1
1
1
1
1
1
1
1
1
1
1
1
1
1
1
1
1
1
1
1
1
1
1
1
1
1
1
1
1
1
1
1
1
1
1
1
1
1
1
1
1
1
1
1
1
1
1
1
1
1
1
1
1
1
1
1
1
1
1
1
1
1
1
1
1
1
1
1
1
1
1
1
1
1
1
1
1
1
1
1
1
1
1
1
1
1
1
1
1
1
1
1
1
1
1
1
1
1
1
1
1
1
1
1
1
1
1
1
1
1
1
1
1
1
1
1
1
1
1
1
1
1
1
1
1
1
1
1
1
1
1
1
1
1
1
1
1
1
1
1
1
1
1
1
1
1
1
1
1
1
1
1
1
1
1
1
1
1
1
1
1
1
1
1
1
1
1
1
1
1
1
1
1
1
1
1
1
1
1
1
1
1
1
1
1
1
1
1
1
1
1
1
1
1
1
1
1
1
1
1
1
1
1
1
1
1
1
1
1
1
1
1
1
1
1
1
1
1
1
1
1
1
1
1
1
1
1
1
1
1
1
1
1
1
)
;

boundaryField
{
    leftWall
    {
        type            alphaContactAngle;
        thetaProperties 
6
(
(galistan air) 90 0 0 0
(oil galistan) 90 0 0 0
(water oil) 90 0 0 0
(water air) 90 0 0 0
(oil air) 90 0 0 0
(water galistan) 90 0 0 0
);
        value           nonuniform List<scalar> 
50
(
1.53421e-35
8.0706e-33
1.69204e-30
1.65813e-28
8.07288e-27
2.20815e-25
4.15537e-24
7.72982e-23
1.9414e-21
6.91405e-20
9.98337e-17
8.32061e-15
6.41966e-14
4.06083e-13
2.10411e-12
9.76153e-12
4.27858e-11
1.69459e-10
5.4416e-10
1.28511e-09
1.77402e-09
7.39284e-10
0.107488
0.832908
1
1
1
1
1
1
1
1
1
1
1
1
1
1
1
1
1
1
1
1
1
1
1
1
1
1
)
;
    }
    rightWall
    {
        type            alphaContactAngle;
        thetaProperties 
6
(
(galistan air) 90 0 0 0
(oil galistan) 90 0 0 0
(water oil) 90 0 0 0
(water air) 90 0 0 0
(oil air) 90 0 0 0
(water galistan) 90 0 0 0
);
        value           nonuniform List<scalar> 
50
(
1
1
1
1
1
1
1
1
1
1
1
1
1
1
1
1
1
1
1
1
1
1
1
1
1
1
1
1
1
1
1
1
1
1
1
1
1
1
1
1
1
1
1
1
1
1
1
1
1
1
)
;
    }
    lowerWall
    {
        type            alphaContactAngle;
        thetaProperties 
6
(
(galistan air) 90 0 0 0
(oil galistan) 90 0 0 0
(water oil) 90 0 0 0
(water air) 90 0 0 0
(oil air) 90 0 0 0
(water galistan) 90 0 0 0
);
        value           nonuniform List<scalar> 
62
(
1.53421e-35
1.09993e-34
3.72529e-34
8.22288e-34
3.10916e-33
6.44189e-33
2.27437e-31
5.49126e-31
5.48673e-30
1.45738e-28
7.33593e-28
1.37405e-26
9.82354e-23
3.11269e-22
2.10261e-22
4.69383e-23
2.05639e-24
3.43847e-26
8.87555e-27
3.14885e-27
1.09586e-27
1.2869e-28
3.16124e-29
3.16124e-29
7.60314e-28
2.13048e-28
8.71295e-29
5.91418e-28
2.78204e-22
4.58164e-22
3.0017e-21
1.35922e-20
7.40462e-21
2.07474e-21
4.29623e-21
1
1
1
1
1
1
1
0.788478
1
1
1
1
1
0.972723
0.782684
0.687763
0.777071
0.965175
0.999999
1
1
1
1
1
1
1
1
)
;
    }
    atmosphere
    {
        type            inletOutlet;
        inletValue      uniform 1;
        value           nonuniform List<scalar> 
46
(
1
1
1
1
1
1
1
1
1
1
1
1
1
1
1
1
1
1
1
1
1
1
1
1
1
1
1
1
1
1
1
1
1
1
1
1
1
1
1
1
1
1
1
1
1
1
)
;
    }
    defaultFaces
    {
        type            empty;
    }
}


// ************************************************************************* //
