/*--------------------------------*- C++ -*----------------------------------*\
| =========                 |                                                 |
| \\      /  F ield         | OpenFOAM: The Open Source CFD Toolbox           |
|  \\    /   O peration     | Version:  2312                                  |
|   \\  /    A nd           | Website:  www.openfoam.com                      |
|    \\/     M anipulation  |                                                 |
\*---------------------------------------------------------------------------*/
FoamFile
{
    version     2.0;
    format      ascii;
    arch        "LSB;label=32;scalar=64";
    class       volScalarField;
    location    "0.15";
    object      alpha.galistan;
}
// * * * * * * * * * * * * * * * * * * * * * * * * * * * * * * * * * * * * * //

dimensions      [0 0 0 0 0 0 0];

internalField   nonuniform List<scalar> 
2268
(
1
1
1
1
1
1
1
1
1
1
1
1
1
1
1
1
1
1
1
1
1
1
0.69875
1
1
1
1
1
1
1
1
1
1
1
1
1
1
1
1
1
1
1
1
1
0.991121
0.61127
1
1
1
1
1
1
1
1
1
1
1
1
1
1
0.999999
0.999995
0.999996
0.999999
0.999999
0.995396
0.881269
0.528812
0.195969
1
1
1
1
1
1
1
1
1
1
1
1
1
1
0.999995
0.999993
0.999997
0.996883
0.91817
0.612902
0.15549
0.00643066
2.59324e-08
1
1
1
1
1
1
1
1
1
1
1
1
1
1
0.999995
0.999985
0.907615
0.608139
0.178765
0.00288055
7.95686e-09
4.80229e-09
2.63594e-11
1
1
1
1
1
1
1
1
1
1
1
1
1
0.999981
0.996386
0.742451
0.232738
9.95071e-07
3.30743e-10
3.38205e-10
4.06861e-10
2.66348e-11
2.76928e-11
1
1
1
1
1
1
1
1
1
1
1
1
1
0.829274
0.56462
0.118815
2.51812e-10
2.51274e-10
3.22591e-10
3.88505e-10
3.09623e-10
1.74371e-10
2.9636e-11
1
1
1
1
1
1
1
1
1
1
1
1
0.732742
0.186997
0.0488052
2.52169e-10
2.51576e-10
5.72436e-10
6.60085e-10
4.4472e-10
3.36721e-10
1.75988e-10
3.89268e-11
7.31403e-20
5.4392e-19
4.54379e-18
2.90395e-17
1.85579e-16
2.10956e-16
8.79515e-16
1.90155e-15
1.81743e-15
8.87211e-16
1.63562e-16
2.35389e-17
5.18473e-18
1.33845e-18
1.37061e-19
6.75819e-21
1.99178e-22
3.37699e-24
2.72599e-26
2.23249e-19
2.01826e-18
3.29889e-17
3.9546e-16
2.866e-15
6.27657e-15
1.427e-14
1.63935e-14
1.18216e-14
3.98418e-15
5.02032e-16
2.56462e-17
3.93069e-18
1.17479e-18
1.54189e-19
1.16455e-20
6.36445e-22
1.82019e-23
2.56185e-25
1.90351e-18
3.06165e-17
2.30917e-16
5.14216e-15
2.0659e-14
6.40366e-14
8.29948e-14
5.29226e-14
2.45054e-14
7.66444e-15
8.55482e-16
2.94844e-17
9.01386e-18
1.38368e-18
1.11628e-19
1.31585e-20
6.9288e-22
1.64556e-23
1.91274e-25
3.82554e-18
9.45636e-17
3.62825e-15
4.57391e-14
2.12277e-13
3.08276e-13
2.51032e-13
1.28045e-13
3.09675e-14
1.03567e-14
1.10876e-15
3.14277e-17
4.50325e-18
8.41583e-19
8.06132e-20
5.37182e-21
2.39008e-22
7.36243e-24
7.46731e-26
3.13234e-18
2.74209e-17
6.01089e-14
5.24432e-13
9.93686e-13
8.46625e-13
4.83088e-13
1.9426e-13
3.78912e-14
4.81241e-15
3.66652e-16
1.59546e-17
3.49915e-18
2.23199e-19
2.5606e-20
1.60213e-21
7.24808e-23
3.44227e-24
8.68331e-26
1.28067e-18
3.51994e-14
1.07242e-12
2.63116e-12
2.50806e-12
1.53674e-12
7.14336e-13
2.06751e-13
3.04757e-14
4.03782e-15
1.43395e-16
4.71201e-18
7.50274e-19
1.02262e-19
9.16813e-21
7.6825e-22
5.77048e-23
2.90521e-24
3.46349e-26
7.9691e-19
2.15548e-12
6.61842e-12
6.78906e-12
4.33333e-12
1.90246e-12
7.6906e-13
1.70718e-13
2.03473e-14
9.8171e-16
2.69279e-17
1.59807e-18
2.8528e-19
3.493e-20
3.77903e-21
4.28026e-22
3.68595e-23
1.10335e-24
2.96995e-26
8.39611e-12
1.61364e-11
1.60675e-11
1.18078e-11
5.23201e-12
1.97705e-12
5.93423e-13
1.39719e-13
1.42081e-14
2.93901e-16
1.99928e-18
5.30721e-19
1.31883e-19
1.64133e-20
2.12347e-21
2.6629e-22
2.44869e-23
1.08964e-24
1.63835e-26
1
1
1
1
1
1
1
1
1
0.973
0.864511
0.590082
0.169122
0.000511037
3.33683e-06
3.51922e-06
6.33817e-06
1.96611e-06
3.0047e-08
1.07479e-09
4.15334e-10
2.4086e-10
1.0681e-10
1
1
0.999983
0.997814
0.987863
0.960916
0.903649
0.800441
0.614472
0.350934
0.0914668
2.29706e-11
2.2712e-11
1.8879e-11
0.000143853
0.000534612
0.00035958
3.08613e-05
5.57916e-10
5.347e-10
4.23074e-10
2.62608e-10
1.63161e-10
0.661942
0.6424
0.590693
0.511595
0.410843
0.295156
0.176067
0.0657485
1.32025e-09
4.20538e-11
8.22462e-12
2.69654e-10
3.64429e-11
1.59708e-17
0.000716784
0.000903253
0.000902649
7.39876e-05
2.24683e-10
3.99298e-10
2.80879e-10
2.04569e-10
1.4058e-10
0.00812376
0.00180154
-3.44084e-22
0
-3.72485e-27
8.98616e-11
-1.07458e-29
1.46688e-12
4.5518e-11
3.33008e-11
9.29972e-12
1.34023e-12
2.06536e-14
1.96644e-17
9.70943e-33
0.000589661
0.000397554
1.32827e-05
2.23804e-10
2.86725e-10
2.22737e-10
1.29738e-10
8.88936e-11
2.69178e-110
-7.92461e-113
5.02221e-110
4.45576e-92
-5.79149e-105
-5.4358e-102
2.15892e-82
-7.37775e-99
5.2465e-89
1.75078e-91
5.25766e-89
1.03298e-71
2.75046e-87
2.52978e-87
2.95681e-82
-1.01964e-26
-1.23765e-26
-9.53506e-27
2.20682e-10
2.2709e-10
1.64045e-10
1.12609e-10
6.31393e-11
3.19048e-95
3.85398e-92
1.62206e-92
4.54444e-90
1.68166e-86
1.72442e-83
8.2484e-81
1.0859e-80
9.85154e-77
2.20085e-73
1.08741e-70
4.18931e-70
6.59334e-69
1.05052e-69
2.64281e-71
6.00053e-71
4.5656e-71
1.2971e-70
1.50886e-68
1.02305e-64
3.71037e-61
-2.10256e-76
2.823e-74
7.20997e-94
8.42782e-91
4.6033e-91
3.2412e-88
3.16572e-85
1.78212e-82
1.68072e-79
2.84988e-79
2.02001e-75
2.50194e-72
1.13327e-69
1.43763e-68
2.90218e-67
2.74983e-68
1.42731e-70
2.79254e-68
2.64746e-68
8.51518e-69
7.142e-67
7.21624e-63
8.29704e-59
1.51299e-55
4.75377e-55
1.21486e-92
1.38089e-89
3.67213e-89
3.91344e-86
1.07844e-83
2.37362e-81
1.59629e-78
1.84913e-77
6.79325e-74
2.96768e-71
1.37251e-68
4.31724e-67
2.30958e-66
3.14613e-67
2.0331e-69
3.05183e-65
3.90785e-66
3.23056e-67
2.17179e-65
1.35257e-59
6.03128e-57
2.84414e-54
7.5478e-54
1.52204e-91
1.72432e-88
3.30813e-87
3.53531e-84
4.35391e-82
1.37272e-80
1.07947e-77
1.38874e-75
3.14325e-72
5.82309e-70
1.93209e-67
6.55777e-66
1.63399e-65
1.40678e-66
7.98255e-69
5.15214e-63
1.51358e-63
1.00165e-64
4.42071e-63
6.92413e-58
2.51425e-55
3.08549e-52
6.98517e-53
1.48788e-90
2.1494e-87
2.12725e-85
2.22388e-82
9.28567e-81
1.69188e-79
4.82742e-77
6.74819e-74
9.50185e-71
1.06656e-68
2.1102e-66
6.56201e-64
9.91243e-65
1.4261e-66
7.43081e-66
8.73438e-61
3.87508e-62
2.14584e-63
3.83566e-61
1.69542e-56
1.15931e-53
4.97313e-51
3.34102e-49
1.76231e-89
6.29828e-86
9.33435e-84
9.47193e-81
8.72813e-79
1.35864e-78
4.24597e-76
1.64881e-72
1.6182e-69
1.15988e-67
1.25677e-65
4.09654e-62
2.31302e-63
6.13152e-66
1.03763e-61
6.45231e-59
8.98837e-61
4.68031e-62
1.46539e-58
1.66804e-55
2.01629e-52
2.81599e-49
2.51229e-47
4.08747e-88
2.62066e-84
2.78915e-82
2.50555e-79
1.03377e-77
1.96576e-75
2.9727e-72
1.91348e-71
2.37003e-68
1.07e-66
8.13906e-64
5.91136e-61
1.99236e-62
2.38558e-65
1.35627e-59
2.76124e-57
2.1538e-58
1.39556e-57
1.15122e-56
4.52028e-54
9.81448e-50
3.43669e-48
1.17976e-45
7.45089e-87
5.70799e-83
4.57891e-81
3.15299e-78
1.43043e-75
5.61096e-72
1.61081e-70
2.14811e-70
1.85987e-67
1.94617e-65
2.18034e-62
8.56413e-60
1.31033e-60
1.90141e-61
2.10244e-57
6.35615e-56
2.11851e-55
4.1095e-54
3.12964e-55
3.05356e-52
4.21571e-48
4.1584e-45
2.84894e-42
1.26596e-83
2.28168e-80
2.81611e-79
1.01129e-76
2.80216e-74
1.76142e-70
3.80093e-69
3.12927e-67
1.60974e-64
5.52277e-62
3.11645e-59
5.9253e-58
2.38325e-56
5.19668e-57
9.1587e-56
4.38051e-54
5.95652e-53
1.05833e-52
1.03649e-51
5.10061e-47
6.12829e-45
6.29835e-43
2.25788e-40
3.35733e-79
7.98193e-77
1.961e-75
4.08501e-73
1.32099e-70
5.40324e-67
7.85372e-66
1.03991e-63
5.56436e-62
7.70755e-60
2.0976e-57
8.93511e-56
6.90635e-54
4.22036e-53
6.37991e-52
3.11741e-50
7.52135e-49
1.7737e-48
6.91901e-47
1.66851e-43
5.09448e-43
2.54769e-41
2.18744e-39
1.33891e-76
9.2652e-75
1.30326e-72
2.42096e-70
6.63502e-68
1.02656e-64
2.47999e-63
1.24352e-61
1.01985e-60
8.22907e-59
1.41194e-56
1.64996e-54
1.18406e-51
3.73259e-50
2.8575e-49
1.02207e-47
2.47779e-46
2.6687e-45
1.2617e-43
7.28233e-42
1.42621e-41
1.26016e-38
1.98779e-37
1.73023e-75
1.6365e-73
3.38214e-71
5.96953e-69
1.3686e-66
1.44514e-63
5.2673e-62
8.24422e-61
8.0319e-60
7.70493e-58
4.3493e-55
3.37796e-52
1.79323e-50
9.61789e-49
5.81967e-48
1.70712e-46
3.52551e-45
6.32204e-44
2.76951e-42
2.11589e-40
1.68927e-38
1.27356e-36
1.46676e-35
2.10935e-73
3.48744e-71
1.15587e-68
2.08745e-66
3.72681e-64
1.71343e-62
9.85299e-61
1.17507e-58
5.84594e-57
1.66623e-54
1.68106e-52
4.74314e-51
1.38863e-48
3.20271e-47
1.07574e-45
1.77665e-44
1.90192e-43
1.55669e-42
8.57555e-41
3.35316e-39
3.69233e-37
1.36343e-34
1.35852e-33
4.17949e-72
5.83925e-70
1.97719e-67
4.12043e-65
7.07833e-63
1.20161e-60
1.10412e-58
2.64688e-56
8.06452e-55
5.88819e-53
4.35749e-51
2.85133e-49
1.5387e-47
2.42098e-46
1.20792e-44
1.345e-43
1.22899e-42
2.8637e-41
7.63791e-40
4.33714e-38
4.80097e-36
1.15966e-33
1.08928e-32
8.33125e-71
5.82489e-68
1.87781e-65
3.57668e-63
4.53165e-61
4.71467e-59
4.83648e-57
3.86106e-55
1.99226e-53
6.25283e-52
3.84256e-50
1.67332e-48
1.14966e-46
3.50447e-45
7.77366e-44
1.37006e-42
1.94698e-41
2.53405e-40
4.09147e-39
1.13686e-37
1.28151e-36
1.13607e-34
9.88034e-33
8.11498e-70
5.27787e-67
1.65686e-64
3.1939e-62
4.18623e-60
4.13232e-58
3.44959e-56
2.38388e-54
1.20321e-52
3.78393e-51
3.12974e-49
1.29132e-47
4.49557e-46
1.2796e-44
3.1004e-43
6.44096e-42
1.12404e-40
1.97495e-39
5.53322e-38
1.31786e-36
1.46873e-35
1.64436e-34
3.0074e-33
1.48015e-69
9.36401e-67
2.85563e-64
5.48983e-62
7.38235e-60
7.29904e-58
5.5141e-56
3.40899e-54
1.91285e-52
1.00201e-50
4.50508e-49
1.69245e-47
5.64167e-46
1.66524e-44
4.32687e-43
9.36739e-42
1.54833e-40
1.9497e-39
2.8403e-38
4.6891e-37
3.12245e-36
2.77313e-35
2.59319e-34
7.63693e-70
4.9996e-67
1.57289e-64
3.12047e-62
4.33861e-60
4.4693e-58
3.53762e-56
2.21602e-54
1.12947e-52
4.80941e-51
1.74518e-49
5.4192e-48
1.4261e-46
3.16662e-45
6.02077e-44
9.99608e-43
1.42619e-41
1.72874e-40
2.31617e-39
3.32135e-38
2.23939e-37
1.36442e-36
1.08329e-35
1.37227e-71
8.75222e-69
2.66423e-66
5.1405e-64
7.06281e-62
7.37523e-60
6.10655e-58
4.12845e-56
2.3234e-54
1.09502e-52
4.29833e-51
1.4056e-49
3.85226e-48
9.05275e-47
1.87064e-45
3.3566e-44
4.88705e-43
5.79306e-42
8.68118e-41
1.59594e-39
1.46592e-38
8.37783e-38
6.18572e-37
8.01245e-74
5.67305e-71
1.92331e-68
4.1226e-66
6.22907e-64
7.02652e-62
6.13247e-60
4.24496e-58
2.37452e-56
1.09043e-54
4.1778e-53
1.36243e-51
3.87137e-50
9.71919e-49
2.12069e-47
3.82006e-46
5.90326e-45
8.1595e-44
1.65033e-42
3.37879e-41
3.11571e-40
2.47984e-39
2.00472e-38
1.43274e-76
1.29561e-73
4.51037e-71
9.90813e-69
1.52959e-66
1.75524e-64
1.55027e-62
1.08191e-60
6.11799e-59
2.8856e-57
1.17324e-55
4.23281e-54
1.37109e-52
3.94336e-51
9.81019e-50
2.04304e-48
3.46657e-47
5.5789e-46
1.44066e-44
3.839e-43
5.00558e-42
4.00943e-41
4.70881e-40
2.64196e-79
2.07316e-76
7.93516e-74
1.97306e-71
3.57942e-69
5.03957e-67
5.70551e-65
5.295e-63
4.06058e-61
2.57389e-59
1.34224e-57
5.71648e-56
1.97417e-54
5.51382e-53
1.25707e-51
2.40273e-50
3.98199e-49
6.45059e-48
1.54637e-46
4.0426e-45
5.1929e-44
4.40347e-43
6.4889e-42
5.12408e-82
3.80619e-79
1.42929e-76
3.59318e-74
6.7413e-72
9.98369e-70
1.20711e-67
1.21709e-65
1.0358e-63
7.4747e-62
4.56694e-60
2.34914e-58
1.00937e-56
3.59332e-55
1.05317e-53
2.54144e-52
5.13135e-51
9.06444e-50
1.49623e-48
2.37607e-47
3.35104e-46
3.17431e-45
6.24007e-44
1.33442e-82
7.63289e-80
2.09377e-77
3.70723e-75
4.85164e-73
5.15637e-71
4.8003e-69
4.09967e-67
3.22303e-65
2.27091e-63
1.3904e-61
7.24039e-60
3.1695e-58
1.1599e-56
3.54015e-55
9.00299e-54
1.90718e-52
3.36549e-51
4.95041e-50
6.09024e-49
6.34421e-48
5.90225e-47
6.29371e-46
2.61203e-84
1.9236e-81
6.87287e-79
1.59734e-76
2.73784e-74
3.73544e-72
4.28954e-70
4.32059e-68
3.91191e-66
3.2039e-64
2.35671e-62
1.53789e-60
8.80231e-59
4.38155e-57
1.88491e-55
6.96938e-54
2.20147e-52
5.8959e-51
1.32553e-49
2.4688e-48
3.74097e-47
4.49326e-46
4.10467e-45
7.03779e-87
5.84197e-84
2.35464e-81
6.16468e-79
1.18412e-76
1.79236e-74
2.24982e-72
2.43557e-70
2.33727e-68
2.0152e-66
1.56201e-64
1.0811e-62
6.62864e-61
3.58181e-59
1.70376e-57
7.14973e-56
2.65329e-54
8.6894e-53
2.48574e-51
6.09998e-50
1.25434e-48
2.10691e-47
2.92881e-46
1.07723e-89
1.00775e-86
4.57059e-84
1.34375e-81
2.88681e-79
4.84757e-77
6.65527e-75
7.72579e-73
7.78723e-71
6.95648e-69
5.58554e-67
4.06061e-65
2.67814e-63
1.6049e-61
8.74708e-60
4.29683e-58
1.89928e-56
7.51305e-55
2.64431e-53
8.21978e-52
2.22227e-50
5.12643e-49
1.06768e-47
7.30438e-93
7.86114e-90
4.0984e-87
1.38096e-84
3.38139e-82
6.41709e-80
9.84126e-78
1.25748e-75
1.37205e-73
1.3054e-71
1.10239e-69
8.38432e-68
5.81536e-66
3.72806e-64
2.24192e-62
1.2761e-60
6.8246e-59
3.35224e-57
1.47679e-55
5.76185e-54
1.98941e-52
6.09475e-51
1.66133e-49
2.28204e-96
3.58089e-93
2.19366e-90
8.67376e-88
2.48765e-85
5.515e-83
9.84222e-81
1.45569e-78
1.82622e-76
1.98334e-74
1.90088e-72
1.63784e-70
1.29007e-68
9.40689e-67
6.38886e-65
4.03945e-63
2.3667e-61
1.27824e-59
6.33617e-58
2.86178e-56
1.15579e-54
4.1241e-53
1.42607e-51
8.97626e-100
1.3045e-96
9.11755e-94
4.08883e-91
1.32241e-88
3.28758e-86
6.54231e-84
1.0724e-81
1.48021e-79
1.75236e-77
1.8094e-75
1.65769e-73
1.37588e-71
1.06459e-69
7.94966e-68
5.86652e-66
4.24113e-64
2.88922e-62
1.75864e-60
8.91957e-59
3.6295e-57
1.67601e-55
1.10909e-53
1.39392e-103
2.50863e-100
2.03973e-97
1.0687e-94
4.05202e-92
1.18389e-89
2.77527e-87
5.37853e-85
8.83866e-83
1.26031e-80
1.59174e-78
1.81018e-76
1.87453e-74
1.77987e-72
1.55778e-70
1.26414e-68
9.58201e-67
6.84467e-65
4.65049e-63
3.0216e-61
1.87004e-59
1.08822e-57
5.88087e-56
6.64882e-108
1.44741e-104
1.51696e-101
1.02077e-98
4.946e-96
1.83503e-93
5.41885e-91
1.30946e-88
2.64856e-86
4.5771e-84
6.8929e-82
9.20763e-80
1.10534e-77
1.20117e-75
1.18922e-73
1.09002e-71
9.53704e-70
8.17004e-68
6.69996e-66
4.82036e-64
2.93082e-62
2.30037e-60
2.48445e-58
2.9327e-112
8.51966e-109
1.07562e-105
8.74174e-103
5.14772e-100
2.34036e-97
8.54603e-95
2.57547e-92
6.53688e-90
1.42049e-87
2.68116e-85
4.45591e-83
6.60954e-81
8.87155e-79
1.09233e-76
1.24977e-74
1.34393e-72
1.37103e-70
1.33451e-68
1.23452e-66
1.064e-64
8.6058e-63
7.48676e-61
3.02552e-117
1.07356e-113
1.77707e-110
1.87791e-107
1.43202e-104
8.40851e-102
3.95718e-99
1.53424e-96
5.00348e-94
1.39661e-91
3.39014e-89
7.2682e-87
1.39738e-84
2.44407e-82
3.93805e-80
5.90474e-78
8.30222e-76
1.09991e-73
1.37379e-71
1.62088e-69
1.85865e-67
2.16983e-65
2.49558e-63
3.37988e-123
1.78294e-119
4.11e-116
5.88957e-113
5.98628e-110
4.6347e-107
2.86798e-104
1.47387e-101
6.50656e-99
2.54275e-96
9.00651e-94
2.92936e-91
8.75643e-89
2.38711e-86
5.88204e-84
1.30588e-81
2.62902e-79
4.87692e-77
8.51582e-75
1.42762e-72
2.32671e-70
3.69907e-68
5.70726e-66
1.65193e-130
1.60956e-126
6.19289e-123
1.46647e-119
2.48137e-116
3.23073e-113
3.38334e-110
2.9359e-107
2.15716e-104
1.36464e-101
7.53444e-99
3.67307e-96
1.59768e-93
6.262e-91
2.23306e-88
7.31805e-86
2.22808e-83
6.36642e-81
1.70144e-78
4.11005e-76
9.15553e-74
2.55058e-71
8.22924e-69
2.09939e-141
5.97602e-137
4.98791e-133
2.45385e-129
8.53516e-126
2.27625e-122
4.88037e-119
8.68695e-116
1.31488e-112
1.72473e-109
1.99026e-106
2.04439e-103
1.88674e-100
1.57776e-97
1.20833e-94
8.61323e-92
5.8439e-89
3.86321e-86
2.52888e-83
1.65697e-80
1.10176e-77
7.40074e-75
4.35973e-72
1.09474e-10
1.07839e-10
9.92238e-11
8.55037e-11
1.43797e-10
1.31579e-10
1.19647e-10
9.96118e-11
1.23612e-10
1.11741e-10
8.9814e-11
7.44923e-11
7.45978e-11
6.0161e-11
4.75023e-11
3.56526e-11
4.81029e-11
3.94514e-11
2.51964e-11
1.77874e-11
1.8793e-72
1.85523e-70
-1.84013e-64
-1.21685e-62
1.86053e-52
9.18128e-48
2.30591e-46
5.42877e-41
1.83454e-51
4.31591e-46
1.00321e-44
1.63596e-39
1.13948e-50
2.0516e-43
1.88359e-43
1.97341e-38
7.622e-50
2.67878e-42
3.93466e-42
4.04367e-37
1.24504e-48
4.30154e-40
1.35209e-40
1.49714e-35
1.13529e-46
5.39711e-37
1.31057e-36
5.19622e-32
3.48996e-43
4.13786e-35
2.05203e-33
1.17998e-29
7.36075e-41
1.0804e-33
6.12643e-31
3.43138e-28
4.90679e-39
1.01261e-31
2.66352e-29
2.61613e-27
2.23218e-36
1.03913e-30
1.60377e-28
1.88388e-27
4.51102e-34
7.35325e-34
6.62679e-34
3.85189e-33
8.77693e-33
4.74806e-32
8.8186e-32
3.65606e-33
4.28596e-32
5.42373e-32
1.65821e-30
8.99881e-29
5.80695e-32
7.0492e-32
4.18616e-32
5.77167e-31
1.73635e-32
2.39181e-32
1.67207e-32
1.84737e-31
1.32821e-33
2.5133e-33
1.95357e-33
5.06025e-32
8.16898e-35
1.08468e-34
1.37587e-34
5.01398e-33
3.64149e-36
5.19702e-36
6.78716e-36
9.81725e-35
1.29323e-37
1.65673e-37
2.51655e-37
1.20363e-37
2.92895e-39
5.5716e-39
6.9859e-39
3.5465e-41
6.17565e-41
1.05318e-40
1.87025e-40
1.82676e-44
7.62108e-43
2.0744e-42
3.76722e-42
-5.71769e-55
8.77977e-45
2.77923e-44
6.46765e-44
1.65817e-52
2.63741e-44
6.03904e-44
6.75706e-44
4.00293e-57
3.71976e-45
1.42437e-44
2.49985e-44
1.67321e-52
2.30436e-46
1.90265e-45
1.56733e-44
1.43024e-43
4.1353e-48
4.47912e-47
4.41159e-46
3.60229e-45
5.2429e-50
6.79337e-49
7.20646e-48
5.95527e-47
4.45686e-52
7.17089e-51
8.77134e-50
8.38929e-49
2.95252e-54
5.78996e-53
8.19643e-52
8.59687e-51
1.61361e-56
3.97087e-55
6.73445e-54
8.08036e-53
7.13267e-59
2.24009e-57
4.70317e-56
6.69995e-55
2.64803e-61
1.05146e-59
2.7636e-58
4.86565e-57
8.45683e-64
4.39883e-62
1.46361e-60
3.19327e-59
1.50433e-66
1.58254e-64
6.94907e-63
1.90942e-61
3.44288e-69
4.52198e-67
2.8497e-65
1.03205e-63
5.65419e-11
3.84728e-11
2.45742e-11
1.53355e-11
5.53662e-12
1.14518e-12
1.73013e-13
3.6882e-14
3.67128e-15
1.38566e-16
8.42146e-19
9.15023e-20
2.68401e-20
4.87699e-21
9.32276e-22
1.3959e-22
1.14371e-23
5.94247e-25
1.06505e-26
6.78907e-11
4.41115e-11
2.94573e-11
1.15731e-11
2.896e-12
6.29619e-13
1.23694e-13
1.02632e-14
3.58776e-16
2.61832e-18
1.60622e-19
2.86777e-20
9.5394e-21
2.34338e-21
4.78203e-22
5.51279e-23
4.47563e-24
1.72696e-25
2.85397e-27
4.49025e-11
2.72987e-11
1.21871e-11
3.06177e-12
6.05088e-13
8.88824e-14
2.2714e-14
9.5475e-16
5.83574e-18
2.49635e-19
3.2049e-20
1.36089e-20
4.36741e-21
1.09066e-21
1.66856e-22
2.00709e-23
1.15583e-24
3.72468e-26
4.50039e-28
1.89221e-11
9.75295e-12
3.79392e-12
9.88882e-13
2.29971e-13
1.27804e-14
9.26655e-17
3.40712e-18
4.04398e-19
6.65891e-20
6.57084e-21
6.38564e-21
1.82053e-21
3.87661e-22
5.20582e-23
4.43756e-24
2.32856e-25
5.41563e-27
6.35636e-29
8.29334e-12
3.25165e-12
8.46595e-13
1.23359e-13
9.8775e-15
1.12111e-16
4.2601e-19
4.55027e-20
5.14154e-20
1.35807e-20
2.61974e-21
2.31689e-21
6.2143e-22
1.09427e-22
1.24786e-23
9.68652e-25
3.33579e-26
7.11072e-28
8.40753e-30
-8.44752e-55
1.80501e-33
-2.07781e-46
1.39227e-27
7.11324e-28
1.17558e-23
6.42101e-22
9.49249e-21
2.28089e-20
3.80325e-21
6.56244e-22
6.71222e-22
1.69379e-22
2.30737e-23
2.46411e-24
1.40446e-25
4.20151e-27
7.62511e-29
1.10778e-30
2.94352e-34
1.11557e-31
5.5641e-28
1.02431e-25
3.61672e-24
4.52395e-23
7.9497e-22
7.18582e-21
7.18782e-21
4.14876e-22
1.78793e-22
1.58167e-22
3.81194e-23
4.05388e-24
4.25629e-25
2.17882e-26
4.43201e-28
9.8345e-30
1.50702e-31
7.89271e-34
4.46934e-31
4.09977e-27
6.33197e-25
1.42911e-23
1.14552e-22
9.63106e-22
3.36335e-21
1.54631e-21
7.40898e-23
4.0267e-23
3.53569e-23
7.31646e-24
6.88179e-25
5.86212e-26
3.38081e-27
4.95423e-29
1.50778e-30
2.01212e-32
7.60827e-33
1.65027e-28
4.28009e-26
3.49194e-24
4.36966e-23
1.76633e-22
5.35057e-22
1.02283e-21
1.73526e-22
1.8038e-23
8.66723e-24
7.19672e-24
1.23234e-24
9.97718e-26
7.57497e-27
4.27652e-28
5.2477e-30
2.2088e-31
2.55279e-33
4.00103e-30
1.06113e-26
6.99563e-25
1.51031e-23
6.80411e-23
1.25965e-22
2.308e-22
2.19664e-22
3.04572e-23
6.1809e-24
1.98629e-24
1.27049e-24
1.87477e-25
1.3898e-26
1.03889e-27
4.16073e-29
6.65679e-31
2.85795e-32
3.04628e-34
3.35196e-28
1.45405e-25
4.70651e-24
2.85582e-23
5.17354e-23
6.54317e-23
7.64089e-23
3.84184e-23
7.8161e-24
1.49873e-24
4.3891e-25
1.98957e-25
2.64869e-26
2.00572e-27
1.41102e-28
5.25293e-30
9.42649e-32
3.30206e-33
3.44343e-35
5.62392e-27
7.05083e-25
8.70474e-24
2.2663e-23
3.02167e-23
2.82867e-23
2.38889e-23
7.15542e-24
1.74006e-24
3.0086e-25
8.73171e-26
2.8863e-26
3.55841e-27
2.78515e-28
1.83467e-29
7.32065e-31
1.25509e-32
3.5653e-34
3.37353e-36
3.33236e-26
1.24748e-24
6.90659e-24
1.33046e-23
1.51902e-23
1.14721e-23
6.71625e-24
1.40118e-24
3.47659e-25
5.76973e-26
1.59103e-26
4.01732e-27
4.62246e-28
3.59171e-29
1.77216e-30
9.02801e-32
1.52396e-33
3.75135e-35
3.14607e-37
1.39798e-25
8.93977e-25
3.93181e-24
6.33714e-24
6.56665e-24
4.15054e-24
1.74348e-24
2.89069e-25
6.55393e-26
1.14683e-26
2.74805e-27
5.47882e-28
5.85767e-29
4.37359e-30
2.00923e-31
1.00262e-32
1.74332e-34
3.89839e-36
3.11573e-38
5.07564e-26
5.44155e-25
1.6889e-24
2.5679e-24
2.45702e-24
1.33498e-24
4.3653e-25
6.59863e-26
1.28885e-26
2.3144e-27
4.59158e-28
7.38429e-29
7.26195e-30
5.12304e-31
2.47443e-32
1.04796e-33
1.9292e-35
3.96271e-37
3.11798e-39
1.64593e-26
2.09802e-25
6.62504e-25
9.09358e-25
8.01591e-25
3.81798e-25
1.07218e-25
1.56797e-26
2.65407e-27
4.51662e-28
7.42869e-29
1.00603e-29
8.80204e-31
5.82186e-32
2.77792e-33
1.05679e-34
2.0721e-36
3.8961e-38
2.97642e-40
7.51488e-27
8.22091e-26
2.31957e-25
2.9041e-25
2.29478e-25
9.65821e-26
2.18081e-26
3.53124e-27
5.34984e-28
8.26693e-29
1.17815e-29
1.05887e-30
1.0398e-31
6.43143e-33
2.8993e-34
1.04055e-35
2.14737e-37
3.69174e-39
2.70801e-41
3.43107e-27
2.96842e-26
6.31752e-26
7.27298e-26
5.92513e-26
2.2272e-26
4.55606e-27
7.17743e-28
1.02513e-28
1.42311e-29
1.40565e-30
1.40243e-31
1.19018e-32
6.88967e-34
2.91249e-35
1.00321e-36
2.13357e-38
3.37103e-40
2.37103e-42
1.40705e-27
8.65253e-27
1.73693e-26
1.85656e-26
1.15282e-26
3.85574e-27
8.95061e-28
1.32841e-28
1.43594e-29
1.85521e-30
2.03926e-31
1.85526e-32
1.30892e-33
7.11172e-35
2.83742e-36
9.41879e-38
2.01784e-39
2.95988e-41
1.99552e-43
4.44759e-28
1.97327e-27
3.89185e-27
4.0836e-27
2.36645e-27
7.22365e-28
1.26317e-28
1.78364e-29
2.35549e-30
2.73323e-31
2.77752e-32
2.17016e-33
1.36961e-34
7.01112e-36
2.66398e-37
8.5164e-39
1.80195e-40
2.48456e-42
1.60578e-44
9.79855e-29
4.02996e-28
7.09895e-28
7.28284e-28
4.20022e-28
1.13742e-28
2.01129e-29
2.73549e-30
3.4e-31
3.63916e-32
3.28528e-33
2.30591e-34
1.35065e-35
6.54026e-37
2.38507e-38
7.32353e-40
1.50848e-41
1.978e-43
1.17453e-45
1.62005e-29
6.51861e-29
1.0875e-28
1.08931e-28
6.07545e-29
1.52643e-29
2.77306e-30
3.66956e-31
4.18182e-32
4.18883e-33
3.48661e-34
2.25856e-35
1.24533e-36
5.72636e-38
2.01489e-39
5.92501e-41
1.17759e-42
1.48151e-44
7.47135e-47
2.08854e-30
8.54697e-30
1.42152e-29
1.40486e-29
7.38467e-30
1.82817e-30
3.25468e-31
4.19268e-32
4.54009e-33
4.29512e-34
3.36848e-35
2.0387e-36
1.06713e-37
4.67684e-39
1.59241e-40
4.47479e-42
8.54413e-44
1.03694e-45
5.17353e-48
2.10435e-31
9.08511e-31
1.56531e-30
1.57482e-30
7.84434e-31
1.96758e-31
3.35195e-32
4.2171e-33
4.4084e-34
3.97364e-35
2.96738e-36
1.69162e-37
8.46404e-39
3.54786e-40
1.17023e-41
3.13933e-43
5.75113e-45
6.74949e-47
3.34024e-49
1.66261e-32
7.78249e-32
1.43503e-31
1.50762e-31
7.3938e-32
1.87505e-32
3.05691e-33
3.77842e-34
3.84171e-35
3.326e-36
2.38224e-37
1.28824e-38
6.19845e-40
2.49318e-41
7.96655e-43
2.04046e-44
3.58807e-46
4.07372e-48
1.91229e-50
1.04821e-33
5.44679e-33
1.09308e-32
1.21478e-32
6.07388e-33
1.56026e-33
2.47318e-34
3.02471e-35
3.01051e-36
2.52115e-37
1.74263e-38
8.9997e-40
4.18578e-41
1.62056e-42
5.01424e-44
1.22736e-45
2.07442e-47
2.27703e-49
8.97157e-52
5.38865e-35
3.17712e-34
6.99502e-34
8.25576e-34
4.25922e-34
1.12816e-34
1.77759e-35
2.16724e-36
2.12569e-37
1.73271e-38
1.16213e-39
5.76988e-41
2.60549e-42
9.73716e-44
2.91611e-45
6.83224e-47
1.11166e-48
1.17816e-50
4.39222e-53
2.31055e-36
1.5756e-35
3.8338e-35
4.80818e-35
2.54075e-35
7.10758e-36
1.13756e-36
1.39275e-37
1.35548e-38
1.08152e-39
7.07333e-41
3.39831e-42
1.49537e-43
5.40844e-45
1.56748e-46
3.52204e-48
5.52397e-50
5.65363e-52
2.04167e-54
8.2578e-38
6.77654e-37
1.84077e-36
2.45686e-36
1.30696e-36
3.93046e-37
6.50242e-38
8.04799e-39
7.82647e-40
6.14427e-41
3.93595e-42
1.84151e-43
7.9196e-45
2.77866e-46
7.79508e-48
1.68337e-49
2.54571e-51
2.51771e-53
8.50728e-56
2.50992e-39
2.55349e-38
7.90249e-38
1.12867e-37
5.93922e-38
1.92748e-38
3.33379e-39
4.19478e-40
4.10403e-41
3.18543e-42
2.0067e-43
9.19854e-45
3.87532e-46
1.32183e-47
3.59174e-49
7.47138e-51
1.08808e-52
1.04309e-54
3.25476e-57
6.51593e-41
8.46313e-40
3.07064e-39
4.74613e-39
2.45137e-39
8.48544e-40
1.54088e-40
1.97954e-41
1.96101e-42
1.51161e-43
9.39709e-45
4.24409e-46
1.75487e-47
5.83096e-49
1.53628e-50
3.08515e-52
4.31684e-54
4.02672e-56
1.14908e-58
1.35755e-42
2.46829e-41
1.08214e-40
1.83894e-40
9.40566e-41
3.39734e-41
6.45829e-42
8.49487e-43
8.56986e-44
6.58781e-45
4.0508e-46
1.81191e-47
7.36511e-49
2.38975e-50
6.11336e-52
1.18784e-53
1.59405e-55
1.45247e-57
3.68596e-60
2.41873e-44
6.33114e-43
3.44389e-42
6.54463e-42
3.39406e-42
1.25187e-42
2.47059e-43
3.33172e-44
3.43904e-45
2.64648e-46
1.6103e-47
7.1668e-49
2.86833e-50
9.12044e-52
2.26903e-53
4.27482e-55
5.50562e-57
4.90566e-59
1.05721e-61
3.69444e-46
1.42889e-44
9.84911e-44
2.12501e-43
1.15065e-43
4.28417e-44
8.68481e-45
1.20091e-45
1.27274e-46
9.83869e-48
5.91692e-49
2.63025e-50
1.03791e-51
3.25017e-53
7.87748e-55
1.44197e-56
1.78901e-58
1.54382e-60
2.77672e-63
6.30037e-48
2.83172e-46
2.52672e-45
6.26467e-45
3.63532e-45
1.36906e-45
2.82411e-46
4.00154e-47
4.36327e-48
3.39891e-49
2.01842e-50
8.98623e-52
3.49913e-53
1.08483e-54
2.56617e-56
4.57289e-58
5.49506e-60
4.45198e-62
7.18426e-65
6.81445e-50
5.01586e-48
5.82721e-47
1.6758e-46
1.06188e-46
4.09579e-47
8.54778e-48
1.23992e-48
1.39192e-49
1.0957e-50
6.43651e-52
2.87507e-53
1.10492e-54
3.40329e-56
7.87074e-58
1.36792e-59
1.59915e-61
1.16816e-63
1.92002e-66
6.83297e-52
7.94556e-50
1.2146e-48
4.0814e-48
2.85795e-48
1.14862e-48
2.4221e-49
3.59405e-50
4.15077e-51
3.30987e-52
1.93401e-53
8.68085e-55
3.28572e-56
1.00564e-57
2.28116e-59
3.87359e-61
4.41097e-63
2.86481e-65
5.13112e-68
6.51684e-54
1.13464e-51
2.30505e-50
9.10796e-50
7.10054e-50
3.02421e-50
6.46323e-51
9.80565e-52
1.16268e-52
9.40962e-54
5.51207e-55
2.49142e-56
9.22531e-58
2.79744e-59
6.271e-61
1.04233e-62
1.15338e-64
6.90743e-67
1.30222e-69
5.51189e-56
1.47609e-53
4.01648e-52
1.87763e-51
1.63822e-51
7.49551e-52
1.6346e-52
2.53507e-53
3.0763e-54
2.52969e-55
1.49637e-56
6.83024e-58
2.45419e-59
7.3354e-61
1.64138e-62
2.67599e-64
2.8635e-66
1.6825e-68
3.08087e-71
4.22036e-58
1.76715e-55
6.4818e-54
3.60861e-53
3.53861e-53
1.75567e-53
3.9454e-54
6.25649e-55
7.73922e-56
6.46801e-57
3.8796e-58
1.79336e-59
6.24968e-61
1.83062e-62
4.10607e-64
6.58214e-66
6.77609e-68
4.06182e-70
6.84603e-73
3.03911e-60
1.96842e-57
9.74503e-56
6.52997e-55
7.21816e-55
3.90555e-55
9.15109e-56
1.48522e-56
1.86512e-57
1.58331e-58
9.63575e-60
4.51787e-61
1.54468e-62
4.41826e-64
9.85562e-66
1.55787e-67
1.53769e-69
9.41545e-72
1.45034e-74
2.10437e-62
2.06703e-59
1.37816e-57
1.12281e-56
1.40175e-56
8.29795e-57
2.05189e-57
3.41488e-58
4.33921e-59
3.73755e-60
2.30321e-61
1.09478e-62
3.73442e-64
1.04407e-65
2.27946e-67
3.56359e-69
3.37226e-71
2.06879e-73
2.96879e-76
)
;

boundaryField
{
    leftWall
    {
        type            zeroGradient;
    }
    rightWall
    {
        type            zeroGradient;
    }
    lowerWall
    {
        type            zeroGradient;
    }
    atmosphere
    {
        type            inletOutlet;
        inletValue      uniform 0;
        value           nonuniform List<scalar> 
46
(
0
0
0
0
0
0
0
0
0
0
0
0
0
0
0
0
0
0
0
0
0
0
0
3.44288e-69
4.52198e-67
2.8497e-65
1.03205e-63
2.10437e-62
2.06703e-59
1.37816e-57
1.12281e-56
1.40175e-56
8.29795e-57
2.05189e-57
3.41488e-58
4.33921e-59
3.73755e-60
2.30321e-61
1.09478e-62
3.73442e-64
1.04407e-65
2.27946e-67
3.56359e-69
3.37226e-71
2.06879e-73
2.96879e-76
)
;
    }
    defaultFaces
    {
        type            empty;
    }
}


// ************************************************************************* //
