/*--------------------------------*- C++ -*----------------------------------*\
| =========                 |                                                 |
| \\      /  F ield         | OpenFOAM: The Open Source CFD Toolbox           |
|  \\    /   O peration     | Version:  2312                                  |
|   \\  /    A nd           | Website:  www.openfoam.com                      |
|    \\/     M anipulation  |                                                 |
\*---------------------------------------------------------------------------*/
FoamFile
{
    version     2.0;
    format      ascii;
    arch        "LSB;label=32;scalar=64";
    class       volScalarField;
    location    "0.2";
    object      alpha.oil;
}
// * * * * * * * * * * * * * * * * * * * * * * * * * * * * * * * * * * * * * //

dimensions      [0 0 0 0 0 0 0];

internalField   nonuniform List<scalar> 
2268
(
3.62434e-58
3.91589e-55
3.59784e-53
5.56058e-50
1.18882e-46
8.08519e-43
1.82366e-40
4.22996e-39
4.11066e-39
7.34148e-37
1.50978e-36
-2.09889e-29
2.19378e-18
1.48095e-16
1.93049e-14
5.76789e-11
2.78502e-11
3.23528e-12
6.94695e-12
1.17264e-11
1.15632e-11
6.76893e-21
0.0182783
8.01703e-56
7.72454e-53
9.77088e-51
1.1882e-47
1.66771e-44
1.17633e-40
1.58538e-38
2.01767e-37
2.23893e-37
3.68781e-35
1.35005e-34
-1.30681e-28
2.63787e-18
2.19922e-16
-8.54972e-17
2.88077e-07
5.68992e-12
3.26728e-12
1.01102e-09
8.17458e-10
1.33778e-10
7.34448e-21
0.0293434
8.38537e-54
5.46991e-51
6.38925e-49
7.10261e-46
1.33611e-42
1.05298e-38
6.91397e-37
6.41151e-36
5.71735e-36
1.26513e-33
3.11212e-33
-3.83908e-28
8.05045e-18
3.27816e-16
-5.73287e-26
2.8683e-06
5.5723e-05
2.2135e-09
1.02512e-09
1.93581e-09
7.26332e-10
7.36444e-28
0.0298313
5.0985e-52
4.32215e-49
4.88142e-47
5.41536e-44
9.86104e-41
7.00331e-37
2.64782e-35
8.78109e-35
7.10814e-35
3.09576e-32
7.85257e-32
-6.72176e-28
1.39781e-17
2.45571e-17
-9.58053e-18
-8.38444e-18
0.000441343
0.00193679
0.000355506
-7.43399e-23
-2.71838e-12
-1.50693e-12
0.0298754
1.96953e-50
1.51336e-47
1.72934e-45
1.96092e-42
3.23875e-39
2.05139e-35
8.28258e-34
1.15388e-33
7.8942e-34
9.61397e-31
1.2294e-30
-7.3547e-28
4.74403e-18
1.2931e-17
-8.12901e-17
-1.13493e-16
-4.15989e-17
0.0351684
0.214622
0.346641
0.14337
1.39957e-05
0.00515578
6.69229e-49
4.19988e-46
4.9842e-44
9.20472e-41
1.22311e-37
3.10484e-34
6.9069e-33
5.71556e-33
2.82956e-33
1.70082e-29
8.01969e-30
-4.72642e-28
-2.03524e-23
-2.1838e-22
-1.30796e-16
-1.7068e-16
-6.1064e-17
0.0210537
0.597103
0.982142
0.845848
0.059297
0.00481105
3.5693e-47
1.59568e-44
3.3006e-42
3.82785e-39
4.88395e-36
1.62094e-33
1.78099e-32
1.01104e-32
3.7281e-33
1.37404e-28
2.61999e-29
-1.34714e-28
-9.09818e-24
-1.15176e-22
-7.53649e-17
-1.15847e-16
-4.51811e-17
4.28522e-07
0.443755
0.992061
0.99996
0.421994
0.0148663
5.84864e-45
2.44729e-42
5.49273e-40
2.29425e-37
2.84109e-34
2.24599e-34
6.07032e-33
7.66542e-33
2.45804e-33
1.29226e-35
-1.5255e-34
-6.28566e-35
-4.4076e-36
4.69061e-25
2.44689e-19
5.77591e-20
5.58059e-20
-1.21986e-14
0.412139
0.988364
0.999955
0.967098
0.0429365
0.00156395
0.224884
0.723071
0.870804
0.934963
0.976924
1
0.989591
0.969002
0.930209
0.88412
0.855615
0.846891
0.846647
0.863189
0.971871
1
1
0.938101
0.00166713
0.00785011
0.0012356
0.163858
0.626567
0.954403
1
1
1
1
1
1
1
1
1
1
1
0.94661
0.924445
0.000385217
8.07834e-09
8.07829e-09
8.07853e-09
0.278617
0.923451
1
1
1
1
1
1
1
1
1
1
0.970347
0.645603
0.669806
8.07834e-09
8.0783e-09
8.07834e-09
8.07829e-09
0.399148
0.957344
1
1
1
1
1
1
1
1
1
0.99848
0.711353
0.166864
0.0690461
8.07858e-09
9.86497e-09
8.6279e-09
8.07854e-09
0.688054
1
1
1
1
1
1
1
1
1
1
0.797997
0.217275
2.54761e-08
2.52536e-08
8.79821e-09
8.94792e-09
8.68052e-09
0.135052
0.887927
1
1
1
1
1
1
1
1
1
0.848844
0.27859
0.00409905
2.66146e-08
2.64961e-08
8.81917e-09
8.78948e-09
8.73308e-09
0.661739
1
1
1
1
1
1
1
1
1
0.909008
0.3535
0.00789432
1.03664e-08
2.62886e-08
2.505e-08
8.86266e-09
8.84208e-09
0.350085
0.956597
1
1
1
1
1
1
1
1
0.988551
0.516033
0.0262145
7.31554e-09
1.06625e-08
1.5764e-08
1.87233e-08
4.4543e-43
1.82428e-40
4.00982e-38
1.24499e-35
1.46843e-32
2.7324e-29
5.50446e-25
6.09492e-24
1.20156e-23
1.38312e-17
4.43607e-16
2.14715e-16
1.39947e-16
3.1816e-17
3.12157e-18
4.99438e-20
-1.05139e-26
0.0633618
0.701314
0.99999
0.999998
1
0.192585
1.53715e-38
4.48396e-36
9.46559e-34
1.90398e-31
1.85778e-28
2.44142e-25
3.25848e-22
1.19701e-21
1.70132e-20
1.69797e-15
5.66363e-15
1.67874e-15
1.27806e-15
5.03387e-16
6.20263e-17
7.21335e-19
-4.06364e-21
0.353566
0.964489
0.999959
1
1
0.739021
1.18627e-35
2.58949e-33
5.37977e-31
8.63895e-29
7.52743e-26
2.14696e-23
5.67592e-21
1.40503e-20
5.60519e-19
1.45629e-14
3.77463e-14
2.63033e-14
2.3161e-14
7.53563e-15
5.63714e-16
1.24934e-33
0.0380645
0.690159
0.999298
0.999913
1
1
1
2.9117e-34
5.26869e-32
1.10441e-29
1.61807e-27
1.21515e-24
2.29096e-22
5.88597e-20
1.08874e-19
1.43941e-17
7.43519e-14
1.74332e-13
1.93709e-13
9.96487e-14
2.80132e-14
2.39577e-15
-2.542e-33
0.20441
0.895322
0.999752
0.999906
1
1
1
5.97594e-33
8.48124e-31
1.8648e-28
2.59526e-26
2.26527e-23
3.73003e-21
6.71493e-19
1.03718e-18
2.39823e-16
2.57958e-13
6.7935e-13
6.32358e-13
2.92164e-13
3.9377e-14
2.31386e-14
-1.53492e-19
0.516267
0.995059
0.999998
0.999992
0.999998
1
1
9.92424e-32
1.09901e-29
2.70952e-27
3.53926e-25
3.28317e-22
3.86751e-20
6.12712e-18
7.67959e-18
2.56863e-15
1.15154e-12
2.47229e-12
2.04314e-12
6.68555e-13
5.21522e-14
2.31535e-14
0.201407
0.8708
1
1
1
1
1
1
1.27373e-30
1.2329e-28
3.40325e-26
3.2763e-24
3.35369e-21
3.69012e-19
5.42288e-17
3.81474e-17
8.38915e-14
3.40917e-12
8.82242e-12
5.52178e-12
1.4239e-12
1.10784e-18
0.0083587
0.642728
1
1
1
1
1
1
1
1.22242e-29
1.08165e-27
3.06909e-25
2.85358e-23
2.69354e-20
2.79166e-18
3.4543e-16
2.68519e-16
9.62853e-13
1.06513e-11
2.43525e-11
1.11088e-11
2.18889e-12
2.10353e-20
0.389199
0.958656
1
1
1
1
1
1
1
1.83365e-28
7.68074e-27
2.61286e-24
1.87113e-22
1.79354e-19
2.60273e-17
2.34931e-15
7.39012e-16
1.01971e-11
2.03688e-11
5.48903e-11
1.52103e-11
2.17004e-12
0.126513
0.831259
1
1
1
1
1
1
1
1
2.81948e-27
6.94878e-26
1.03787e-23
1.09969e-21
1.64535e-18
1.63097e-16
1.22559e-14
7.46795e-16
4.98865e-11
3.1592e-11
8.27272e-11
1.20967e-11
0.0134894
0.702587
0.999998
1
1
1
1
1
1
1
1
6.78273e-26
1.04355e-24
2.82454e-22
1.53281e-20
2.09455e-17
3.81647e-15
1.4279e-13
7.51697e-16
1.82085e-10
3.31102e-11
5.59743e-11
1.22509e-11
0.415766
0.975715
1
1
1
1
1
1
1
1
0.99101
1.37132e-24
3.99876e-23
8.94385e-21
6.01135e-19
4.76557e-16
6.06018e-14
2.31036e-12
6.41271e-14
1.81906e-09
2.89095e-12
2.71879e-12
0.00385275
0.720175
0.999964
1
1
1
1
1
0.999849
0.960944
0.812403
0.492695
4.50783e-22
2.1048e-20
2.49857e-18
1.27217e-16
5.23625e-14
2.93949e-12
7.50988e-11
1.80273e-09
1.68552e-09
1.88123e-05
1.78235e-05
0.0381427
0.585432
0.897585
0.950675
0.962134
0.949196
0.900157
0.795036
0.589204
0.308546
0.0461329
1.88931e-08
1.56403e-20
1.02146e-18
5.80393e-17
2.98101e-15
8.94748e-13
2.87307e-11
5.52313e-10
1.6197e-08
4.69465e-07
6.88956e-05
0.000801211
0.0344095
0.0394723
0.17372
0.262962
0.295745
0.263139
0.175108
0.0637117
1.19219e-13
5.98703e-14
3.91533e-10
6.42828e-09
8.59301e-20
9.41397e-18
2.61347e-16
1.64367e-14
4.16171e-12
9.48602e-11
2.07895e-09
3.45984e-08
6.81642e-08
0.000267221
0.00359957
0.00165484
3.22074e-22
-1.30665e-09
-1.6988e-10
-4.80647e-29
6.98488e-29
-1.8958e-27
2.02413e-27
1.05757e-10
1.30411e-09
1.83142e-08
2.66053e-08
4.6173e-19
4.88778e-17
2.12886e-15
1.57595e-13
1.39597e-11
2.51005e-10
3.7903e-09
2.68934e-08
5.71893e-08
0.000237623
0.000648862
2.89779e-09
2.952e-09
-2.25921e-09
-3.5859e-10
8.56215e-11
5.18555e-10
2.34598e-09
1.96951e-09
1.94814e-09
1.93562e-08
2.0436e-05
9.21205e-05
1.69905e-18
1.53476e-16
7.65308e-15
3.74667e-13
2.32718e-11
3.16606e-10
4.02958e-09
3.96247e-08
3.25912e-06
1.11963e-05
5.27181e-14
2.19546e-07
7.7887e-09
-8.21357e-11
-9.88577e-11
3.25424e-10
2.10601e-09
5.65562e-09
1.11865e-08
9.13756e-09
8.59778e-05
0.000321073
0.000465047
3.62598e-18
3.1548e-16
8.61768e-15
7.41787e-13
2.12483e-11
3.14145e-10
5.53724e-09
7.30375e-08
1.20286e-07
6.17471e-15
5.35664e-14
6.59306e-13
6.50973e-13
3.50531e-11
1.42465e-10
5.15448e-10
4.01213e-09
2.25922e-08
6.86548e-08
3.46777e-06
0.000245741
0.000383096
0.000356584
3.29686e-18
4.2552e-16
1.86263e-14
5.15132e-13
9.07816e-12
8.0678e-11
3.0992e-10
4.76066e-17
4.87907e-17
1.9262e-14
1.7861e-13
1.27714e-12
9.28892e-12
4.71509e-11
1.83072e-10
6.23857e-10
3.74889e-09
7.52517e-08
3.37173e-07
1.32743e-05
0.000131437
0.000161135
1.87416e-07
5.62929e-27
4.83839e-25
2.10855e-23
1.40016e-22
2.89531e-21
1.02375e-19
9.69928e-20
1.53969e-16
2.57545e-15
2.53564e-14
1.9461e-13
1.31704e-12
7.86478e-12
4.0311e-11
1.74043e-10
6.44405e-10
3.5994e-09
3.0606e-07
9.81471e-07
5.49516e-07
8.21603e-09
1.1593e-08
1.99079e-06
7.13938e-27
8.84204e-25
4.94316e-23
1.7382e-21
4.31023e-20
8.01325e-19
1.15951e-17
1.36014e-16
1.37341e-15
1.14136e-14
9.01799e-14
6.04645e-13
3.27704e-12
1.50815e-11
5.45338e-11
1.41655e-10
2.56208e-10
2.56366e-10
7.66872e-10
7.55582e-10
7.66571e-09
2.96821e-08
5.67411e-08
8.31559e-28
9.99297e-26
5.80326e-24
2.15824e-22
5.75576e-21
1.16608e-19
1.85365e-18
2.40112e-17
2.71706e-16
2.62289e-15
2.1755e-14
1.55684e-13
9.5044e-13
5.16347e-12
2.17234e-11
8.5513e-11
2.61983e-10
6.52882e-10
1.42252e-09
2.90573e-09
4.38497e-09
4.41326e-09
3.09263e-09
1.36374e-28
1.78155e-26
1.11612e-24
4.45837e-23
1.27742e-21
2.79632e-20
4.86613e-19
6.91888e-18
8.21939e-17
8.34269e-16
7.33001e-15
5.52115e-14
3.58527e-13
2.00698e-12
9.20791e-12
3.97078e-11
1.20627e-10
2.87439e-10
5.84231e-10
9.31378e-10
1.19851e-09
1.17373e-09
8.59739e-10
7.39647e-30
1.0002e-27
6.5443e-26
2.75239e-24
8.35793e-23
1.95189e-21
3.64721e-20
5.59589e-19
7.1489e-18
7.61042e-17
6.83862e-16
5.59287e-15
3.50477e-14
2.13814e-13
1.02099e-12
4.19931e-12
1.34882e-11
3.53395e-11
7.66784e-11
1.41965e-10
1.97777e-10
2.28173e-10
2.13158e-10
1.95154e-31
2.8364e-29
1.99652e-27
9.04058e-26
2.95431e-24
7.40699e-23
1.47872e-21
2.4068e-20
3.23581e-19
3.60556e-18
3.38522e-17
2.85936e-16
1.83876e-15
1.07342e-14
5.79758e-14
2.38563e-13
8.45883e-13
2.48451e-12
6.31735e-12
1.41284e-11
2.49893e-11
3.64083e-11
4.41114e-11
2.67562e-33
4.24024e-31
3.24098e-29
1.58911e-27
5.61524e-26
1.52274e-24
3.29396e-23
5.82809e-22
8.57581e-21
1.06114e-19
1.11078e-18
9.79614e-18
7.00615e-17
4.65826e-16
2.31933e-15
1.2077e-14
4.46876e-14
1.55989e-13
4.53903e-13
1.17046e-12
2.56568e-12
4.87265e-12
7.79744e-12
3.27151e-35
5.59501e-33
4.61942e-31
2.4482e-29
9.3452e-28
2.73173e-26
6.34776e-25
1.20184e-23
1.88625e-22
2.4852e-21
2.77495e-20
2.64341e-19
2.14741e-18
1.45301e-17
8.78658e-17
4.84254e-16
2.04974e-15
8.36624e-15
2.71152e-14
8.98732e-14
2.41276e-13
5.45934e-13
1.09174e-12
3.034e-37
5.68609e-35
5.14531e-33
2.99104e-31
1.25377e-29
4.03021e-28
1.0313e-26
2.15254e-25
3.72506e-24
5.40494e-23
6.62633e-22
6.90184e-21
6.1337e-20
4.66878e-19
3.05531e-18
1.72303e-17
8.04568e-17
3.66249e-16
1.43003e-15
5.19998e-15
1.66513e-14
4.82637e-14
1.18775e-13
1.8172e-39
3.74363e-37
3.72567e-35
2.38416e-33
1.10148e-31
3.9083e-30
1.10601e-28
2.55882e-27
4.92228e-26
7.96617e-25
1.09369e-23
1.28144e-22
1.28719e-21
1.11282e-20
8.31257e-20
5.3875e-19
3.03804e-18
1.48584e-17
6.3979e-17
2.84886e-16
1.09125e-15
3.6426e-15
1.03378e-14
8.41365e-42
1.93039e-39
2.13981e-37
1.52572e-35
7.85705e-34
3.10919e-32
9.82023e-31
2.53857e-29
5.46543e-28
9.9235e-27
1.53365e-25
2.03177e-24
2.32046e-23
2.29579e-22
1.97619e-21
1.48561e-20
9.78504e-20
5.66823e-19
2.9085e-18
1.33693e-17
5.57078e-17
2.14558e-16
7.40945e-16
2.49935e-44
6.43901e-42
8.02475e-40
6.44156e-38
3.73932e-36
1.67009e-34
5.96101e-33
1.74374e-31
4.25496e-30
8.77334e-29
1.54366e-27
2.33579e-26
3.05907e-25
3.48614e-24
3.47279e-23
3.0369e-22
2.34367e-21
1.60945e-20
9.93733e-20
5.53744e-19
2.74928e-18
1.16577e-17
4.64036e-17
6.3498e-47
1.8462e-44
2.58347e-42
2.32736e-40
1.51597e-38
7.5992e-37
3.04655e-35
1.00237e-33
2.75682e-32
6.4249e-31
1.28218e-29
2.20921e-28
3.3085e-27
4.3307e-26
4.97983e-25
5.05694e-24
4.56396e-23
3.68862e-22
2.68253e-21
1.74573e-20
1.0171e-19
5.41989e-19
2.49095e-18
9.77977e-50
3.22153e-47
5.12946e-45
5.26266e-43
3.90836e-41
2.23704e-39
1.02603e-37
3.87201e-36
1.22536e-34
3.29877e-33
7.638e-32
1.53412e-30
2.6907e-29
4.14245e-28
5.62218e-27
6.75412e-26
7.21284e-25
6.87795e-24
5.87889e-23
4.51116e-22
3.10119e-21
1.91772e-20
1.10465e-19
9.36925e-53
3.62123e-50
6.76223e-48
8.12909e-46
7.06655e-44
4.72943e-42
2.53382e-40
1.11608e-38
4.12174e-37
1.29555e-35
3.50643e-34
8.24484e-33
1.69615e-31
3.07186e-30
4.9262e-29
7.03045e-28
8.9639e-27
1.02331e-25
1.04464e-24
9.49915e-24
7.76716e-23
5.93184e-22
4.04465e-21
6.21004e-56
2.74892e-53
5.88283e-51
8.12634e-49
8.14396e-47
6.30463e-45
3.92066e-43
2.0125e-41
8.70104e-40
3.21765e-38
1.02977e-36
2.87873e-35
7.08402e-34
1.54487e-32
3.00305e-31
5.22662e-30
8.16305e-29
1.14383e-27
1.43566e-26
1.61328e-25
1.62814e-24
1.48642e-23
1.23792e-22
2.66306e-59
1.41816e-56
3.63999e-54
6.02711e-52
7.24501e-50
6.73465e-48
5.0324e-46
3.10157e-44
1.60522e-42
7.06962e-41
2.67844e-39
8.82221e-38
2.5555e-36
6.58262e-35
1.51808e-33
3.13916e-32
5.83107e-31
9.75873e-30
1.4655e-28
1.97179e-27
2.41063e-26
2.82763e-25
3.07867e-24
3.9986e-63
2.64309e-60
8.33634e-58
1.69081e-55
2.48557e-53
2.82423e-51
2.58112e-49
1.94893e-47
1.23922e-45
6.73017e-44
3.15654e-42
1.2901e-40
4.63116e-39
1.47088e-37
4.16158e-36
1.05553e-34
2.41482e-33
5.02328e-32
9.62866e-31
1.73073e-29
2.93549e-28
4.33532e-27
6.55818e-26
4.60534e-67
3.91119e-64
1.54971e-61
3.9229e-59
7.17995e-57
1.01484e-54
1.15379e-52
1.08469e-50
8.60301e-49
5.8464e-47
3.44716e-45
1.78208e-43
8.14968e-42
3.32129e-40
1.21327e-38
3.98974e-37
1.18452e-35
3.18277e-34
7.76565e-33
1.72884e-31
3.52851e-30
6.62601e-29
1.1569e-27
1.17311e-71
1.3812e-68
7.24583e-66
2.40367e-63
5.75531e-61
1.06592e-58
1.59324e-56
1.9776e-54
2.08036e-52
1.883e-50
1.48358e-48
1.02682e-46
6.28984e-45
3.43133e-43
1.67596e-41
7.35995e-40
2.91331e-38
1.0395e-36
3.3389e-35
9.69869e-34
2.6127e-32
6.77591e-31
1.66688e-29
4.32876e-77
8.1421e-74
6.27152e-71
2.9933e-68
1.02259e-65
2.6868e-63
5.66703e-61
9.87036e-59
1.44831e-56
1.81769e-54
1.97569e-52
1.88153e-50
1.58965e-48
1.20848e-46
8.38899e-45
5.37738e-43
3.19179e-41
1.74299e-39
8.66619e-38
3.89562e-36
1.58398e-34
5.87573e-33
2.02177e-31
8.78581e-84
3.07072e-80
3.73382e-77
2.72075e-74
1.40484e-71
5.56778e-69
1.77447e-66
4.68863e-64
1.04967e-61
2.02426e-59
3.40768e-57
5.06502e-55
6.71616e-53
8.02308e-51
8.71803e-49
8.70266e-47
8.07086e-45
7.04724e-43
5.86473e-41
4.65739e-39
3.47363e-37
2.21541e-35
1.60392e-33
5.02599e-94
5.8772e-90
1.61349e-86
2.53573e-83
2.80925e-80
2.39351e-77
1.64683e-74
9.44157e-72
4.61093e-69
1.94995e-66
7.23283e-64
2.37743e-61
6.98453e-59
1.84792e-56
4.43598e-54
9.74448e-52
1.98008e-49
3.77448e-47
6.86648e-45
1.21425e-42
2.11953e-40
3.66068e-38
6.02748e-36
0.249618
0.816677
0.943724
0.757538
0.337872
0.557078
0.937339
0.98778
0.948815
0.894146
0.925525
0.987789
1
1
0.997676
0.998534
1
1
1
1
1
1
1
1
1
1
1
1
1
1
1
1
1
1
1
1
1
1
1
0.997152
0.940195
0.853093
0.714045
0.469917
0.220197
0.0395
5.891e-08
1.89175e-08
6.32127e-09
6.3941e-09
0.000269117
0.000463508
8.68492e-09
9.37055e-09
0.00195962
0.000799572
4.60682e-08
0.000531042
0.00196203
1.50564e-10
0.00021009
0.00126777
0.00100294
1.39288e-10
0.000959977
0.000727372
4.99236e-09
4.13567e-10
7.63217e-05
2.64261e-05
4.77004e-10
3.93393e-10
3.22882e-08
3.15078e-08
1.22043e-09
5.03934e-10
2.28681e-09
1.5015e-09
9.11043e-10
5.43953e-10
8.19972e-10
7.39662e-10
6.26726e-10
4.41244e-10
6.50318e-10
4.81579e-10
4.07768e-10
2.84521e-10
3.6825e-10
2.65914e-10
2.00417e-10
1.44028e-10
1.49055e-10
1.08303e-10
8.80063e-11
6.27621e-11
4.40608e-11
3.66856e-11
2.87349e-11
2.12267e-11
1.00497e-11
9.04113e-12
7.7761e-12
5.98181e-12
1.74063e-12
1.76021e-12
1.55338e-12
1.21377e-12
2.2919e-13
2.5349e-13
2.63565e-13
2.26845e-13
2.38575e-14
2.98193e-14
3.24399e-14
3.06668e-14
2.06345e-15
2.84083e-15
3.57333e-15
3.78749e-15
1.54373e-16
2.43631e-16
3.18822e-16
3.45169e-16
9.92844e-18
1.7954e-17
2.59386e-17
3.02621e-17
5.43584e-19
1.16422e-18
1.82727e-18
2.27544e-18
2.45033e-20
6.29244e-20
1.14638e-19
1.56384e-19
9.41768e-22
2.88627e-21
6.14251e-21
9.39177e-21
3.04447e-23
1.13019e-22
2.84542e-22
4.95074e-22
8.06412e-25
3.70998e-24
1.15065e-23
2.31727e-23
1.91038e-26
1.08376e-25
4.11021e-25
9.74887e-25
3.75146e-28
2.79574e-27
1.28007e-26
3.72969e-26
6.40565e-30
6.21399e-29
3.52887e-28
1.30885e-27
8.51958e-32
1.13045e-30
8.63528e-30
4.23407e-29
8.38739e-34
1.82323e-32
2.0128e-31
1.26334e-30
0.238123
0.535865
0.984749
1
1
1
1
1
1
1
1
0.968969
0.61631
0.0662535
7.45417e-09
7.32754e-09
9.07279e-09
7.35015e-09
1.40837e-08
0.997061
1
1
1
1
1
1
1
1
1
0.90838
0.399364
0.000329705
9.88018e-09
9.85202e-09
7.35083e-09
5.77922e-09
5.98726e-09
5.42071e-09
0.999995
1
1
1
1
1
1
1
1
0.834121
0.241284
9.82988e-09
9.87402e-09
1.0694e-08
7.86105e-09
5.27396e-09
3.89747e-09
2.87845e-09
3.39241e-09
0.999772
1
1
1
1
1
1
1
0.758182
0.141767
1.13555e-08
1.11707e-08
9.89152e-09
7.63131e-09
5.47525e-09
3.33821e-09
1.78067e-09
1.45828e-09
9.68368e-10
1
1
1
1
1
1
1
0.672649
0.0688842
1.28478e-08
1.26726e-08
7.54516e-09
5.73876e-09
5.27546e-09
3.57337e-09
2.01054e-09
9.69169e-10
3.68019e-10
4.06312e-10
1
1
1
1
1
0.960792
0.53436
0.00963843
1.75e-08
1.52079e-08
7.98385e-09
4.0579e-09
4.03302e-09
3.47837e-09
2.23562e-09
1.09442e-09
3.81925e-10
1.64073e-10
5.73743e-11
1
1
1
1
0.87994
0.350518
1.30702e-08
1.25343e-08
1.78617e-08
1.50358e-08
4.19013e-09
2.67896e-09
2.78956e-09
2.27907e-09
1.34696e-09
5.42816e-10
1.88086e-10
4.57205e-11
1.68118e-11
1
1
1
0.755878
0.166836
9.12374e-09
1.10883e-08
2.10268e-08
2.39802e-08
1.02007e-08
2.00235e-09
1.85316e-09
1.79152e-09
1.32204e-09
7.01988e-10
2.82888e-10
6.62359e-11
1.52734e-11
2.67975e-12
1
0.908961
0.502164
0.0127387
6.26974e-09
6.0847e-09
1.97469e-08
2.71095e-08
1.9871e-08
3.23747e-09
1.09584e-09
1.20237e-09
1.04535e-09
7.27509e-10
3.66464e-10
1.36053e-10
2.83597e-11
3.49355e-12
4.81501e-13
0.803149
0.201766
5.27511e-09
1.75706e-09
1.63207e-09
8.26112e-09
1.9211e-08
2.21157e-08
6.1064e-09
1.24931e-09
6.69564e-10
7.06665e-10
5.64241e-10
3.6298e-10
1.71919e-10
5.88479e-11
7.93231e-12
9.72821e-13
6.64268e-14
0.0270115
1.24653e-08
5.67186e-09
2.07745e-09
2.80338e-09
5.95418e-09
8.92839e-09
6.47233e-09
2.16878e-09
6.47792e-10
4.26275e-10
3.81269e-10
2.73988e-10
1.62269e-10
7.1239e-11
2.28102e-11
2.7279e-12
1.74099e-13
1.21257e-14
7.28918e-09
7.29034e-09
1.31249e-09
1.12958e-09
1.94001e-09
3.00117e-09
3.36451e-09
2.16334e-09
9.6703e-10
4.07903e-10
2.51088e-10
1.90307e-10
1.2034e-10
6.52968e-11
2.63873e-11
7.95144e-12
5.81988e-13
3.83858e-14
1.58937e-15
8.81516e-05
7.69036e-09
5.42124e-10
7.85492e-10
1.14462e-09
1.4738e-09
1.38557e-09
9.69954e-10
5.56405e-10
2.41588e-10
1.36889e-10
8.75025e-11
4.74046e-11
2.347e-11
8.73752e-12
2.47219e-12
1.59447e-13
5.32126e-15
2.87272e-16
7.93967e-09
4.904e-10
3.79268e-10
4.93247e-10
6.4481e-10
7.70206e-10
7.07039e-10
4.97094e-10
2.91208e-10
1.29936e-10
6.89796e-11
3.74354e-11
1.70004e-11
7.56232e-12
2.52667e-12
6.69836e-13
3.33495e-14
1.01874e-15
4.6021e-17
6.22523e-10
2.6513e-10
2.6872e-10
2.80909e-10
3.34909e-10
3.7544e-10
3.37799e-10
2.30813e-10
1.38364e-10
6.46252e-11
3.13886e-11
1.39828e-11
5.68858e-12
2.17077e-12
6.468e-13
1.588e-13
6.3862e-15
1.50367e-16
1.01071e-17
2.68436e-10
2.35454e-10
1.78958e-10
1.50767e-10
1.60849e-10
1.69352e-10
1.49251e-10
1.00239e-10
5.3999e-11
2.93681e-11
1.28749e-11
4.87869e-12
1.72666e-12
5.6822e-13
1.52991e-13
3.37143e-14
1.04673e-15
2.94416e-17
2.03702e-18
2.83045e-10
2.19989e-10
1.09159e-10
7.31444e-11
6.75446e-11
6.89367e-11
5.92907e-11
3.8462e-11
2.11612e-11
1.12626e-11
4.57777e-12
1.55394e-12
4.87193e-13
1.39051e-13
3.3827e-14
6.55004e-15
1.76267e-16
6.19993e-18
3.59754e-19
3.83014e-10
1.81687e-10
6.46904e-11
3.45841e-11
2.72048e-11
2.53574e-11
2.10721e-11
1.27472e-11
7.53755e-12
3.84957e-12
1.46305e-12
4.54753e-13
1.19185e-13
3.21712e-14
6.92371e-15
1.17852e-15
3.10686e-17
1.23321e-18
5.54957e-20
4.14554e-10
1.31458e-10
3.69772e-11
1.57556e-11
1.01717e-11
8.56053e-12
7.12079e-12
4.39417e-12
2.41483e-12
1.17617e-12
4.2355e-13
1.21478e-13
2.92656e-14
6.32976e-15
1.31824e-15
1.97099e-16
5.33073e-18
2.23754e-19
7.98041e-21
3.77893e-10
7.93652e-11
1.94316e-11
6.54452e-12
3.3333e-12
2.52495e-12
2.00812e-12
1.3158e-12
6.89129e-13
3.19299e-13
1.09899e-13
2.93108e-14
6.59412e-15
1.25828e-15
2.18327e-16
3.07454e-17
8.60218e-19
3.70713e-20
1.11458e-21
2.93552e-10
4.07838e-11
9.74626e-12
2.68032e-12
1.08914e-12
7.3258e-13
5.58759e-13
3.47429e-13
1.74541e-13
7.71236e-14
2.54419e-14
6.37073e-15
1.33438e-15
2.34892e-16
3.58086e-17
4.49184e-18
1.29864e-19
5.65523e-21
1.5116e-22
1.7863e-10
1.8092e-11
4.49065e-12
1.02102e-12
3.24985e-13
1.85762e-13
1.33973e-13
8.17718e-14
3.9297e-14
1.66688e-14
5.25189e-15
1.24722e-15
2.44643e-16
3.98799e-17
5.57011e-18
6.1623e-19
1.81249e-20
7.98449e-22
1.6954e-23
9.37023e-11
6.72597e-12
1.84491e-12
3.64103e-13
9.12549e-14
4.30081e-14
2.88217e-14
1.71969e-14
7.89191e-15
3.22809e-15
9.69826e-16
2.20066e-16
4.08143e-17
6.19343e-18
7.97393e-19
7.94419e-20
2.37799e-21
1.04507e-22
1.96233e-24
3.86833e-11
2.34253e-12
6.72278e-13
1.18811e-13
2.40311e-14
9.17679e-15
5.5827e-15
3.23674e-15
1.41843e-15
5.59963e-16
1.61134e-16
3.50409e-17
6.19957e-18
8.8315e-19
1.05305e-19
9.61697e-21
2.94747e-22
1.27314e-23
2.15344e-25
1.35144e-11
7.31521e-13
2.15016e-13
3.48871e-14
5.92091e-15
1.82402e-15
9.77926e-16
5.47018e-16
2.28821e-16
8.71685e-17
2.41708e-17
5.04501e-18
8.57374e-19
1.15645e-19
1.28646e-20
1.09134e-21
3.419e-23
1.37727e-24
2.18992e-26
3.91022e-12
2.08619e-13
5.96255e-14
8.83829e-15
1.33733e-15
3.37746e-16
1.5615e-16
8.33101e-17
3.32325e-17
1.22219e-17
3.27798e-18
6.5837e-19
1.08024e-19
1.39027e-20
1.45322e-21
1.15838e-22
3.63524e-24
1.40207e-25
1.84981e-27
7.76591e-13
5.05967e-14
1.37655e-14
1.96524e-15
2.76342e-16
5.85589e-17
2.29736e-17
1.1481e-17
4.3616e-18
1.54986e-18
4.02666e-19
7.80926e-20
1.24193e-20
1.53504e-21
1.51687e-22
1.1477e-23
3.5928e-25
1.35149e-26
1.66954e-28
1.44985e-13
1.06973e-14
2.73129e-15
3.87971e-16
5.22747e-17
9.61737e-18
3.15098e-18
1.44031e-18
5.19844e-19
1.78505e-19
4.49474e-20
8.44582e-21
1.30595e-21
1.55845e-22
1.46336e-23
1.05996e-24
3.3298e-26
1.20079e-27
1.44515e-29
2.13725e-14
1.85199e-15
4.71193e-16
6.73775e-17
8.92554e-18
1.49691e-18
4.07083e-19
1.65865e-19
5.66186e-20
1.87585e-20
4.57844e-21
8.35779e-22
1.25978e-22
1.45755e-23
1.30642e-24
9.12096e-26
2.88125e-27
9.88242e-29
1.142e-30
2.77253e-15
2.88614e-16
7.0067e-17
1.02221e-17
1.36198e-18
2.18047e-19
4.98817e-20
1.77134e-20
5.67878e-21
1.80801e-21
4.27638e-22
7.59765e-23
1.1186e-23
1.25886e-24
1.08156e-25
7.31606e-27
2.29054e-28
7.63559e-30
7.16211e-32
2.84541e-16
3.74751e-17
8.94261e-18
1.35941e-18
1.8596e-19
2.932e-20
5.8108e-21
1.77324e-21
5.28302e-22
1.6079e-22
3.68207e-23
6.37277e-24
9.17672e-25
1.00702e-25
8.32589e-27
5.47733e-28
1.70003e-29
5.52968e-31
4.93914e-33
2.61104e-17
4.27846e-18
9.92298e-19
1.59963e-19
2.28315e-20
3.61137e-21
6.42421e-22
1.68091e-22
4.59569e-23
1.32838e-23
2.93962e-24
4.95641e-25
6.98404e-26
7.48674e-27
5.97875e-28
3.83521e-29
1.19365e-30
3.7244e-32
3.31048e-34
2.1686e-18
4.26738e-19
9.73411e-20
1.68224e-20
2.53123e-21
4.06635e-22
6.71344e-23
1.52109e-23
3.77979e-24
1.0272e-24
2.18987e-25
3.59348e-26
4.95292e-27
5.19294e-28
4.01913e-29
2.51805e-30
7.90479e-32
2.3291e-33
1.99985e-35
1.57102e-19
3.72154e-20
8.53945e-21
1.59423e-21
2.54302e-22
4.19198e-23
6.6032e-24
1.32058e-24
2.97329e-25
7.49362e-26
1.53243e-26
2.44256e-27
3.28881e-28
3.37475e-29
2.53906e-30
1.55501e-31
4.91972e-33
1.35562e-34
1.07867e-36
1.00455e-20
2.87832e-21
6.75302e-22
1.37055e-22
2.3263e-23
3.97008e-24
6.09436e-25
1.10187e-25
2.25461e-26
5.19838e-27
1.01427e-27
1.56574e-28
2.05525e-29
2.06422e-30
1.51365e-31
9.06399e-33
2.88302e-34
7.36755e-36
5.65042e-38
5.733e-22
2.00145e-22
4.85455e-23
1.07545e-23
1.94929e-24
3.46953e-25
5.27214e-26
8.83146e-27
1.65364e-27
3.4557e-28
6.39353e-29
9.52289e-30
1.21526e-30
1.19408e-31
8.5525e-33
5.00612e-34
1.59749e-35
3.76978e-37
2.85929e-39
2.95492e-23
1.2646e-23
3.17508e-24
7.75344e-25
1.50578e-25
2.81189e-26
4.27863e-27
6.79049e-28
1.17432e-28
2.21795e-29
3.86559e-30
5.52969e-31
6.83764e-32
6.56502e-33
4.60119e-34
2.63079e-35
8.4038e-37
1.84249e-38
1.36734e-40
1.39311e-24
7.33718e-25
1.9317e-25
5.17581e-26
1.0794e-26
2.12471e-27
3.26557e-28
5.0038e-29
8.07974e-30
1.38416e-30
2.25825e-31
3.08607e-32
3.6829e-33
3.4485e-34
2.3683e-35
1.32125e-36
4.21225e-38
8.71896e-40
6.17907e-42
6.08744e-26
3.95111e-26
1.10572e-26
3.20127e-27
7.22978e-28
1.50523e-28
2.35252e-29
3.53342e-30
5.3854e-31
8.44954e-32
1.28373e-32
1.66721e-33
1.91147e-34
1.74044e-35
1.17203e-36
6.37063e-38
2.01857e-39
4.01533e-41
2.66026e-43
2.49798e-27
1.99708e-27
5.988e-28
1.86671e-28
4.5574e-29
1.00569e-29
1.60671e-30
2.39351e-31
3.47557e-32
5.06599e-33
7.14206e-34
8.7832e-35
9.62708e-36
8.49119e-37
5.6048e-38
2.96288e-39
9.28171e-41
1.79556e-42
1.09971e-44
9.7575e-29
9.5863e-29
3.09261e-29
1.03981e-29
2.72397e-30
6.37606e-31
1.04542e-31
1.55851e-32
2.17484e-33
2.98902e-34
3.90623e-35
4.54358e-36
4.73893e-37
4.03048e-38
2.60315e-39
1.33548e-40
4.11157e-42
7.77115e-44
4.38862e-46
3.67728e-30
4.42247e-30
1.53866e-30
5.56337e-31
1.55555e-31
3.86028e-32
6.51372e-33
9.78228e-34
1.32453e-34
1.7362e-35
2.10906e-36
2.32114e-37
2.29513e-38
1.87322e-39
1.18016e-40
5.8615e-42
1.76262e-43
3.25492e-45
1.69723e-47
)
;

boundaryField
{
    leftWall
    {
        type            zeroGradient;
    }
    rightWall
    {
        type            zeroGradient;
    }
    lowerWall
    {
        type            zeroGradient;
    }
    atmosphere
    {
        type            inletOutlet;
        inletValue      uniform 0;
        value           nonuniform List<scalar> 
46
(
0
0
0
0
0
0
0
0
0
0
0
0
0
0
0
0
0
0
0
0
0
0
0
8.38739e-34
1.82323e-32
2.0128e-31
1.26334e-30
3.67728e-30
4.42247e-30
1.53866e-30
5.56337e-31
1.55555e-31
3.86028e-32
6.51372e-33
9.78228e-34
1.32453e-34
1.7362e-35
2.10906e-36
2.32114e-37
2.29513e-38
1.87322e-39
1.18016e-40
5.8615e-42
1.76262e-43
3.25492e-45
1.69723e-47
)
;
    }
    defaultFaces
    {
        type            empty;
    }
}


// ************************************************************************* //
