/*--------------------------------*- C++ -*----------------------------------*\
| =========                 |                                                 |
| \\      /  F ield         | OpenFOAM: The Open Source CFD Toolbox           |
|  \\    /   O peration     | Version:  2312                                  |
|   \\  /    A nd           | Website:  www.openfoam.com                      |
|    \\/     M anipulation  |                                                 |
\*---------------------------------------------------------------------------*/
FoamFile
{
    version     2.0;
    format      ascii;
    arch        "LSB;label=32;scalar=64";
    class       volScalarField;
    location    "0.2";
    object      alpha.galistan;
}
// * * * * * * * * * * * * * * * * * * * * * * * * * * * * * * * * * * * * * //

dimensions      [0 0 0 0 0 0 0];

internalField   nonuniform List<scalar> 
2268
(
1
1
1
1
1
1
1
1
1
1
1
1
1
1
1
1
1
1
1
1
1
1
0.981722
1
1
1
1
1
1
1
1
1
1
1
1
1
1
1
1
1
0.999999
0.999999
0.999999
1
1
0.970657
1
1
1
1
1
1
1
1
1
1
1
1
1
1
1
0.999997
0.999944
0.999999
1
1
1
1
0.970169
1
1
1
1
1
1
1
1
1
1
1
1
1
1
1
0.999998
0.999559
0.998063
0.999644
0.999935
0.999888
0.99997
0.970122
1
1
1
1
1
1
1
1
1
1
1
1
1
1
1
0.995872
0.907196
0.847674
0.718941
0.643506
0.856586
0.999966
0.994835
1
1
1
1
1
1
1
1
1
1
1
1
1
1
0.940488
0.616608
0.186836
0.1193
0.0274558
0.016871
0.15415
0.940701
0.995184
1
1
1
1
1
1
1
1
1
1
1
1
0.982324
0.784813
0.337522
0.000812179
1.44744e-06
9.52874e-07
-5.15656e-25
4.51425e-21
2.60198e-05
0.578006
0.985133
1
1
1
1
1
1
1
1
1
1
0.972266
0.839569
0.510473
0.0934683
-1.6632e-19
-1.87982e-21
2.80786e-05
2.04828e-05
5.74049e-07
-6.13647e-23
-1.14642e-23
0.0329002
0.957064
6.96399e-14
1.64845e-13
4.63455e-13
8.48225e-13
1.57758e-12
2.5744e-12
2.89287e-12
1.74686e-12
1.02033e-12
5.76856e-13
3.47158e-13
2.08042e-13
1.43045e-13
1.00859e-13
7.19535e-14
5.01612e-14
2.93723e-14
1.85161e-14
1.15203e-14
7.10306e-14
5.74988e-13
2.37464e-12
5.25923e-12
9.17875e-12
1.29151e-11
1.05805e-11
6.05983e-12
3.57329e-12
2.17569e-12
1.3829e-12
9.35275e-13
6.42886e-13
4.3596e-13
2.76671e-13
1.7772e-13
1.01287e-13
2.68765e-14
9.37863e-15
2.31002e-13
1.81871e-12
3.76533e-12
8.54929e-12
1.58573e-11
2.35335e-11
1.92194e-11
1.36868e-11
8.42149e-12
5.26306e-12
3.40038e-12
2.24743e-12
1.50847e-12
9.86435e-13
5.57373e-13
2.17368e-13
5.219e-14
6.3154e-15
6.32202e-15
2.16775e-13
9.14554e-13
7.37252e-13
4.00377e-12
1.94302e-11
3.23824e-11
2.78899e-11
1.87572e-11
1.10474e-11
7.67356e-12
5.22523e-12
3.3094e-12
2.0603e-12
1.25569e-12
5.45518e-13
2.17421e-13
4.38824e-14
3.30261e-15
3.64651e-15
1.41081e-13
4.3932e-13
5.61828e-13
4.88778e-12
3.11255e-11
4.21161e-11
3.35545e-11
2.4169e-11
1.64364e-11
1.06836e-11
6.61378e-12
3.86361e-12
2.27668e-12
9.45858e-13
3.3022e-13
6.10976e-14
4.12605e-15
5.74894e-16
2.13761e-15
6.88564e-14
9.91715e-14
1.75276e-12
1.72121e-11
5.16253e-11
5.22341e-11
4.02873e-11
2.79383e-11
1.86428e-11
1.25152e-11
6.55241e-12
3.86389e-12
1.89831e-12
5.60387e-13
1.14333e-13
1.38776e-14
6.48019e-16
2.37763e-16
1.75095e-15
2.25833e-14
4.39126e-14
5.08226e-12
5.02393e-11
8.2778e-11
6.39148e-11
4.55378e-11
3.04237e-11
1.92853e-11
1.24587e-11
6.20029e-12
3.05508e-12
1.04767e-12
2.13178e-13
2.27009e-14
1.07216e-15
1.16438e-16
1.76598e-16
1.49736e-15
8.59555e-15
8.31799e-15
7.47011e-11
1.59189e-10
1.30048e-10
7.9556e-11
5.13845e-11
3.25051e-11
1.82551e-11
1.03422e-11
5.48641e-12
1.81692e-12
3.36517e-13
3.23205e-14
1.68507e-15
1.43966e-16
7.36906e-17
1.59389e-16
1.24865e-15
1
1
1
1
1
0.997596
0.979637
0.931973
0.840551
0.674281
0.432734
0.200661
0.00925138
-1.20138e-20
3.00037e-16
-1.01972e-21
0.00011322
0.000345479
0.000190265
9.58529e-06
1.7407e-22
-1.65829e-20
0.807415
0.82225
0.80855
0.776918
0.724609
0.646035
0.513926
0.368029
0.221707
0.0884605
7.91678e-17
1.8808e-27
-1.18014e-14
-1.97152e-14
2.52712e-13
3.74779e-13
-5.43689e-20
0.000342531
0.000755217
0.000610474
4.06884e-05
7.79286e-24
5.20711e-20
0.260979
0.0898885
0.079606
0.0585594
0.030433
-4.32444e-28
-8.22909e-29
-1.76509e-23
-3.77147e-24
1.45748e-31
2.06664e-13
4.03883e-13
4.24799e-12
6.67529e-12
6.53565e-12
2.23738e-12
2.35295e-30
0.000164931
0.000755532
0.000701962
8.67333e-05
1.30992e-09
5.81579e-10
4.11033e-10
5.48833e-101
-5.46837e-25
-1.56051e-25
-1.12003e-25
-5.41011e-26
-1.95554e-26
-6.85771e-27
-9.02809e-24
3.47473e-13
1.34717e-12
2.28124e-12
2.06423e-12
1.53148e-12
6.73406e-13
1.28506e-13
7.10203e-15
8.75376e-27
0.000119016
0.000248006
9.39846e-05
1.13153e-09
6.38192e-10
2.87221e-10
1.7639e-81
3.28676e-79
7.79681e-77
2.71015e-75
2.36527e-72
2.38888e-70
2.7688e-68
4.06383e-66
-4.12433e-83
5.71827e-81
3.16342e-61
-1.83866e-76
1.36388e-78
3.01303e-82
1.76448e-81
-5.28487e-60
2.20623e-56
5.81475e-12
1.74037e-06
7.79948e-06
1.62216e-06
2.4502e-10
2.44632e-10
5.90899e-80
1.09844e-77
1.601e-75
5.44156e-74
4.67567e-71
1.03331e-68
9.79025e-67
7.18581e-65
1.38298e-64
1.17317e-62
3.90867e-60
6.27555e-58
4.55925e-59
5.8706e-61
1.37654e-62
1.37677e-46
1.09134e-56
-2.59266e-31
1.78105e-10
1.15533e-10
8.77919e-08
1.34204e-08
2.13623e-10
2.66877e-78
3.0815e-76
2.92155e-74
9.70427e-73
7.59206e-70
2.50237e-67
2.40637e-65
5.63097e-64
3.84692e-63
1.05001e-61
8.05259e-59
1.10785e-56
6.50122e-58
6.51773e-59
2.25429e-60
1.87707e-60
1.19605e-54
-4.10218e-24
3.23402e-11
3.18444e-11
3.99935e-10
3.63278e-10
2.91544e-11
1.39724e-76
6.76511e-75
4.29334e-73
1.59855e-71
1.56631e-68
4.39191e-66
2.75118e-64
1.70206e-62
6.36605e-62
1.06126e-59
9.57446e-58
2.04035e-55
9.16404e-57
2.23128e-57
6.81255e-59
1.85957e-57
1.75601e-51
-7.92906e-69
2.59269e-13
2.49432e-13
1.25386e-18
9.33341e-14
1.27234e-15
6.11529e-75
1.48319e-73
6.69573e-72
1.74413e-70
2.91093e-67
2.33411e-64
3.19894e-63
1.65039e-61
3.00932e-60
1.73669e-58
2.72162e-56
2.77638e-54
3.93924e-55
1.15502e-52
4.06283e-54
5.04575e-53
9.28196e-50
1.79815e-49
1.75902e-49
7.84055e-49
1.22419e-49
1.85194e-49
5.52661e-45
2.18005e-73
4.39834e-72
9.81972e-71
2.23359e-68
3.28617e-65
3.34189e-63
2.22575e-62
1.24722e-60
8.35869e-59
9.809e-58
4.27733e-55
5.43038e-52
3.67475e-51
4.89066e-49
1.32168e-50
1.65198e-49
3.75067e-48
7.91502e-48
7.70765e-46
7.94738e-46
1.59784e-45
5.03552e-43
4.67978e-43
6.898e-72
1.03599e-70
8.70761e-68
9.47077e-67
8.81934e-64
2.66901e-61
7.82229e-61
1.43571e-58
1.00852e-56
3.62954e-55
2.0559e-53
2.47924e-50
3.87406e-48
8.83582e-47
8.33287e-48
1.10125e-47
6.60055e-47
3.31816e-46
2.47642e-44
3.60603e-44
2.05409e-44
2.38632e-41
2.45025e-41
1.59732e-70
5.87014e-69
5.69597e-66
6.96528e-65
5.01021e-62
9.46387e-60
7.00315e-58
2.41637e-55
3.7848e-54
2.11002e-52
7.91551e-51
7.34071e-48
4.15488e-46
1.0379e-45
5.09952e-46
1.55843e-45
4.13118e-45
9.57004e-45
6.28232e-43
6.47422e-43
1.05737e-40
9.92832e-39
9.78236e-39
2.41333e-67
1.53695e-65
5.25348e-63
6.03121e-62
5.85838e-59
5.50081e-57
4.85345e-55
1.98729e-53
1.05135e-52
3.38278e-50
8.17823e-49
8.86283e-47
6.0393e-45
1.38145e-43
3.13324e-43
1.17204e-42
3.23912e-42
1.95885e-41
3.33655e-40
6.946e-40
4.01934e-38
2.65567e-37
2.24615e-36
3.56556e-65
3.00922e-63
3.24877e-61
3.37052e-60
4.40315e-57
3.26476e-55
8.95313e-54
1.55543e-52
7.31695e-52
7.24233e-49
1.43579e-47
9.72102e-46
1.51094e-43
5.97307e-42
1.52908e-41
6.76867e-41
2.41966e-40
2.06102e-39
1.58858e-38
9.64254e-38
5.62723e-37
1.12486e-36
2.64963e-34
4.8399e-64
1.01983e-61
4.34012e-60
3.64374e-59
5.66954e-56
2.93722e-54
1.09215e-52
2.31216e-51
1.65794e-50
1.92188e-47
9.13802e-46
2.86784e-44
5.78195e-43
2.88303e-41
1.00798e-40
5.32273e-40
2.38519e-39
1.74834e-38
8.62346e-38
1.48739e-36
6.78699e-36
1.24421e-35
3.96381e-33
7.05915e-63
2.66012e-60
4.1724e-58
5.37759e-57
6.45475e-55
3.79296e-53
1.87416e-51
5.96182e-50
2.84027e-49
3.71133e-47
2.54593e-45
1.61797e-43
1.72517e-41
3.27494e-40
2.7726e-39
1.81091e-38
7.40289e-38
2.76386e-37
3.50575e-36
2.2816e-35
4.53246e-35
1.44067e-34
1.12676e-30
6.51107e-62
2.16581e-59
4.13098e-57
8.17523e-56
9.07233e-54
5.84166e-52
3.25096e-50
1.13133e-48
3.38594e-47
3.83944e-45
2.6331e-44
2.78874e-42
1.09929e-40
1.58589e-39
1.24203e-38
7.89599e-38
2.48747e-37
8.01626e-37
3.21569e-35
1.88042e-34
9.0218e-34
1.67249e-32
7.96911e-29
2.62669e-60
5.4516e-58
3.93623e-56
1.23896e-53
8.11072e-52
3.67931e-50
1.11406e-48
3.79208e-47
1.72404e-45
3.18855e-44
1.37387e-42
1.79403e-41
5.0798e-40
8.11119e-39
5.41212e-38
2.4511e-37
1.31253e-36
2.28263e-35
5.18724e-34
5.00661e-33
5.53758e-32
6.3741e-31
2.62759e-28
3.02732e-59
1.0395e-56
1.48715e-54
1.44596e-52
9.91984e-51
4.42903e-49
1.66139e-47
4.27268e-46
1.21839e-44
3.76137e-43
8.34941e-42
1.89713e-40
2.86869e-39
2.69891e-38
1.85671e-37
1.46127e-36
2.46744e-35
1.51343e-33
2.00727e-32
1.68503e-31
1.69753e-30
1.37047e-29
5.24044e-28
1.09242e-58
3.20209e-56
4.43566e-54
3.85207e-52
2.48347e-50
1.15893e-48
4.29871e-47
1.3634e-45
3.91507e-44
1.01835e-42
2.38594e-41
4.88408e-40
7.92504e-39
9.00248e-38
8.13491e-37
1.08412e-35
2.75297e-34
1.14253e-32
1.15864e-31
7.72632e-31
1.86578e-29
1.58474e-28
1.34448e-27
1.0805e-58
3.3171e-56
4.64464e-54
4.1353e-52
2.61406e-50
1.2578e-48
4.95043e-47
1.70755e-45
5.19297e-44
1.34282e-42
3.0613e-41
5.95254e-40
9.68304e-39
1.27867e-37
1.75241e-36
2.00601e-35
4.32652e-34
6.24693e-33
7.12701e-32
3.74254e-31
2.10176e-30
1.88158e-29
4.67471e-28
4.50818e-59
1.26862e-56
1.73541e-54
1.52331e-52
9.59551e-51
4.65194e-49
1.86078e-47
6.5283e-46
2.00534e-44
5.17611e-43
1.14821e-41
2.23198e-40
3.6152e-39
5.60176e-38
6.28221e-37
7.63423e-36
6.28798e-35
4.44553e-34
2.76439e-33
2.12759e-32
2.56773e-31
2.72036e-30
1.2716e-28
4.65595e-60
1.24952e-57
1.63402e-55
1.38126e-53
8.45878e-52
3.99709e-50
1.52171e-48
4.8193e-47
1.29152e-45
2.91425e-44
5.45661e-43
8.52001e-42
1.09164e-40
1.37859e-39
1.70027e-38
2.53544e-37
2.86338e-36
2.47731e-35
3.03929e-34
2.00395e-33
1.17477e-32
3.93804e-31
2.14322e-29
1.85436e-61
5.23882e-59
7.1979e-57
6.40057e-55
4.13849e-53
2.07264e-51
8.35203e-50
2.76477e-48
7.58239e-47
1.75253e-45
3.60422e-44
6.58896e-43
9.22508e-42
1.45395e-40
1.7829e-39
2.14036e-38
2.10605e-37
1.73164e-36
2.01982e-35
3.16461e-34
2.87824e-33
2.47717e-32
2.12371e-30
2.57094e-63
7.72463e-61
1.12261e-58
1.05011e-56
7.10068e-55
3.69695e-53
1.54128e-51
5.27568e-50
1.51256e-48
3.78132e-47
8.85427e-46
1.89365e-44
3.35584e-43
8.48268e-42
2.0819e-40
3.58675e-39
5.30979e-38
5.74587e-37
1.17271e-35
1.54094e-34
1.50031e-33
1.28834e-32
1.00952e-31
1.71853e-65
5.6158e-63
8.84062e-61
8.93381e-59
6.51598e-57
3.66095e-55
1.65535e-53
6.23883e-52
2.02711e-50
5.88525e-49
1.56901e-47
3.75613e-46
7.90166e-45
2.05885e-43
4.6638e-42
1.12704e-40
1.49946e-39
3.05992e-38
4.17972e-37
5.43343e-36
6.03181e-35
6.59227e-34
6.65901e-33
9.34736e-68
3.1653e-65
5.24749e-63
5.7287e-61
4.70808e-59
3.18679e-57
1.90413e-55
1.04767e-53
5.33499e-52
2.45545e-50
9.87897e-49
3.35714e-47
9.3135e-46
2.12936e-44
4.62736e-43
8.80099e-42
1.04161e-40
1.79103e-39
2.59039e-38
3.87314e-37
4.34638e-36
3.76306e-35
4.45103e-34
3.02944e-70
1.02055e-67
1.67713e-65
1.80631e-63
1.45267e-61
9.50782e-60
5.43965e-58
2.88253e-56
1.45861e-54
7.02484e-53
3.14558e-51
1.2762e-49
4.59146e-48
1.43974e-46
3.88363e-45
8.77546e-44
1.37713e-42
3.25596e-41
5.13946e-40
7.72351e-39
9.94343e-38
1.2825e-36
1.57522e-35
7.54416e-72
2.67118e-69
4.56562e-67
5.03761e-65
4.05031e-63
2.54678e-61
1.31852e-59
5.87444e-58
2.34611e-56
8.69879e-55
3.06289e-53
1.02882e-51
3.2551e-50
9.47968e-49
2.47922e-47
5.73208e-46
1.1855e-44
2.35076e-43
4.94405e-42
1.03881e-40
1.73202e-39
1.99564e-38
3.13487e-37
2.27986e-72
8.70397e-70
1.58695e-67
1.83999e-65
1.52182e-63
9.54168e-62
4.70484e-60
1.86842e-58
6.07436e-57
1.63625e-55
3.69075e-54
7.06601e-53
1.17908e-51
1.8241e-50
2.94937e-49
5.59364e-48
1.20604e-46
2.60448e-45
5.2068e-44
9.54286e-43
1.64904e-41
2.75545e-40
4.22419e-39
1.38241e-74
5.98305e-72
1.23957e-69
1.63759e-67
1.54793e-65
1.11301e-63
6.31843e-62
2.90197e-60
1.09696e-58
3.45793e-57
9.20099e-56
2.09739e-54
4.19129e-53
7.62273e-52
1.3274e-50
2.3089e-49
4.03e-48
6.86862e-47
1.11726e-45
1.73555e-44
2.59008e-43
3.28967e-42
5.37959e-41
4.77638e-77
2.44716e-74
6.02749e-72
9.522e-70
1.08233e-67
9.40826e-66
6.48927e-64
3.63799e-62
1.6851e-60
6.52355e-59
2.12831e-57
5.88844e-56
1.38906e-54
2.81059e-53
4.92103e-52
7.56637e-51
1.04615e-49
1.34401e-48
1.66658e-47
2.09125e-46
2.82348e-45
4.20126e-44
6.6939e-43
7.79165e-80
4.63247e-77
1.33002e-74
2.45933e-72
3.2896e-70
3.38741e-68
2.78968e-66
1.88426e-64
1.06216e-62
5.05915e-61
2.05451e-59
7.16092e-58
2.15306e-56
5.60715e-55
1.26977e-53
2.51418e-52
4.40148e-51
6.98292e-50
1.05146e-48
1.59418e-47
2.51683e-46
4.02713e-45
5.88755e-44
6.76653e-83
4.71586e-80
1.59045e-77
3.46266e-75
5.46714e-73
6.66468e-71
6.52118e-69
5.25765e-67
3.55927e-65
2.05217e-63
1.01905e-61
4.39749e-60
1.66124e-58
5.52762e-57
1.62891e-55
4.27489e-54
1.00575e-52
2.1416e-51
4.20337e-50
7.89614e-49
1.49168e-47
2.84808e-46
5.21434e-45
3.1754e-86
2.60927e-83
1.03615e-80
2.65721e-78
4.94955e-76
7.13809e-74
8.2959e-72
7.98461e-70
6.48953e-68
4.51774e-66
2.7222e-64
1.43079e-62
6.59927e-61
2.68519e-59
9.6928e-58
3.12598e-56
9.09391e-55
2.41765e-53
5.97242e-52
1.39698e-50
3.14631e-49
6.88535e-48
1.46234e-46
8.82957e-90
8.46944e-87
3.91617e-84
1.17122e-81
2.55256e-79
4.32533e-77
5.93443e-75
6.7775e-73
6.57354e-71
5.49641e-69
4.00534e-67
2.56181e-65
1.44381e-63
7.18937e-62
3.17559e-60
1.2533e-58
4.46903e-57
1.46106e-55
4.45172e-54
1.28459e-52
3.58955e-51
9.87548e-50
2.55431e-48
7.94067e-94
9.44007e-91
5.38405e-88
1.98946e-85
5.37029e-83
1.12908e-80
1.92262e-78
2.72062e-76
3.25668e-74
3.34035e-72
2.96495e-70
2.29742e-68
1.56891e-66
9.5609e-65
5.28593e-63
2.7008e-61
1.29293e-59
5.81032e-58
2.42923e-56
9.35348e-55
3.28656e-53
9.31573e-52
3.36653e-50
6.13211e-98
9.49413e-95
6.87871e-92
3.19785e-89
1.07953e-86
2.82613e-84
5.97537e-82
1.04887e-79
1.55941e-77
1.99416e-75
2.22061e-73
2.17537e-71
1.89117e-69
1.47044e-67
1.03024e-65
6.55548e-64
3.82078e-62
2.05746e-60
1.03076e-58
4.82094e-57
2.10885e-55
8.69186e-54
3.41754e-52
1.1407e-102
2.43247e-99
2.31315e-96
1.39412e-93
6.08031e-91
2.05664e-88
5.62918e-86
1.28282e-83
2.48391e-81
4.14856e-79
6.04579e-77
7.75749e-75
8.8275e-73
8.9615e-71
8.15893e-69
6.70055e-67
5.00844e-65
3.46306e-63
2.27074e-61
1.44201e-59
8.80678e-58
5.01467e-56
2.65502e-54
3.0067e-108
9.76432e-105
1.29408e-101
1.06391e-98
6.29037e-96
2.88664e-93
1.0787e-90
3.39372e-88
9.20503e-86
2.18764e-83
4.60119e-81
8.61317e-79
1.44008e-76
2.15793e-74
2.9116e-72
3.55895e-70
3.96858e-68
4.06567e-66
3.85451e-64
3.41254e-62
2.85135e-60
2.25789e-58
1.67665e-56
2.78565e-115
1.71155e-111
3.67104e-108
4.75424e-105
4.40273e-102
3.16204e-99
1.84669e-96
9.04226e-94
3.78961e-91
1.37924e-88
4.40794e-86
1.2498e-83
3.1807e-81
7.36854e-79
1.57738e-76
3.15776e-74
5.93862e-72
1.04561e-69
1.71358e-67
2.61968e-65
3.76305e-63
4.37904e-61
6.83972e-59
1.9796e-125
4.08833e-121
1.97244e-117
5.44497e-114
1.05919e-110
1.58376e-107
1.91172e-104
1.92336e-101
1.6507e-98
1.23073e-95
8.09365e-93
4.75665e-90
2.52689e-87
1.2254e-84
5.47141e-82
2.26728e-79
8.79366e-77
3.22461e-74
1.13167e-71
3.8522e-69
1.28704e-66
4.23792e-64
1.34351e-61
0.750382
0.180481
1.40546e-10
1.385e-10
0.662128
0.442891
0.0587124
1.40546e-10
0.0511847
0.105854
0.0744746
0.0120621
1.00448e-09
1.64025e-10
0.00232362
0.00146635
3.19047e-10
1.5316e-10
7.54105e-10
1.11679e-12
1.07972e-10
6.78918e-11
2.39337e-11
9.33954e-12
6.72282e-12
1.00084e-12
4.58078e-14
1.3718e-16
5.50004e-19
1.27684e-21
8.41197e-40
4.10558e-39
5.32642e-45
3.03324e-38
1.16129e-37
1.7595e-37
8.09476e-41
6.66901e-37
1.33337e-36
4.10237e-35
1.50959e-37
4.37763e-35
3.76096e-33
1.31245e-31
1.92761e-35
8.33002e-34
4.02332e-30
4.92446e-29
1.95438e-34
3.77386e-33
5.29441e-28
5.92849e-27
1.31791e-32
5.59858e-31
1.12995e-26
1.25935e-25
2.0475e-31
3.54261e-28
7.4546e-26
6.13968e-25
7.82684e-29
1.3198e-26
1.74125e-25
6.13779e-25
3.38321e-27
1.77727e-26
1.63763e-25
5.35605e-25
5.68542e-27
4.6595e-26
1.3576e-25
2.9039e-25
5.67559e-27
3.04812e-26
7.74319e-26
1.43131e-25
5.13976e-27
1.70715e-26
3.727e-26
6.82572e-26
2.80265e-27
8.22756e-27
1.66264e-26
2.74269e-26
8.69139e-28
2.55473e-27
5.03203e-27
7.77357e-27
1.69002e-28
5.3436e-28
1.02295e-27
1.54273e-27
1.98182e-29
7.00583e-29
1.57802e-28
2.56526e-28
1.51651e-30
7.05297e-30
1.6986e-29
2.9735e-29
5.38483e-32
4.11896e-31
1.36089e-30
3.06109e-30
3.79451e-33
1.33374e-32
7.1458e-32
1.80779e-31
1.58605e-34
6.3708e-34
2.23198e-33
1.01949e-32
3.50707e-36
1.37003e-35
4.39619e-35
2.78803e-34
5.16752e-38
2.17674e-37
1.01124e-36
4.0148e-36
6.95329e-40
2.84151e-39
9.28808e-39
8.35298e-42
1.1275e-41
7.49746e-41
3.09591e-40
8.29668e-42
6.72458e-43
2.99475e-42
8.85781e-42
8.35298e-42
8.87256e-44
6.86323e-43
4.98201e-42
3.66321e-41
2.98957e-45
2.66504e-44
2.04884e-43
1.36568e-42
6.32474e-47
6.39324e-46
5.3163e-45
3.57203e-44
9.84047e-49
1.16517e-47
1.09638e-46
7.80694e-46
1.27434e-50
1.77562e-49
1.93021e-48
1.50989e-47
1.34346e-52
2.34288e-51
2.9629e-50
2.65158e-49
1.14713e-54
2.55365e-53
3.91205e-52
4.27451e-51
7.53486e-57
2.24715e-55
4.45349e-54
6.3428e-53
3.72413e-59
1.74399e-57
4.86519e-56
1.01321e-54
1.36482e-10
4.85533e-10
6.47871e-10
4.66572e-10
1.93913e-10
9.37118e-11
5.66584e-11
3.1634e-11
1.59303e-11
7.9423e-12
2.57202e-12
5.33529e-13
6.49263e-14
4.37697e-15
2.08051e-16
4.75635e-17
3.6936e-17
1.70836e-16
9.47539e-16
7.95833e-10
1.22568e-09
1.21563e-09
7.47088e-10
2.70093e-10
1.00408e-10
5.34385e-11
2.51125e-11
1.05857e-11
2.23511e-12
2.51717e-13
2.3447e-14
1.73623e-15
3.00275e-16
4.69956e-17
1.8984e-17
2.10364e-17
1.24583e-16
4.35956e-16
5.19609e-09
2.59433e-11
2.63915e-10
2.83276e-10
1.74068e-10
8.4829e-11
3.47609e-11
1.34773e-11
2.57162e-12
2.36489e-13
1.07374e-14
2.58416e-16
3.07396e-17
2.21077e-17
1.54173e-17
7.91958e-18
1.39421e-17
6.06767e-17
2.20456e-16
0.00022796
2.50816e-11
8.04788e-11
1.09757e-10
7.24956e-11
3.23706e-11
1.32632e-11
2.57825e-12
1.59612e-13
4.77477e-15
1.41019e-16
1.13543e-17
6.81921e-18
7.45548e-18
5.28788e-18
3.64963e-18
6.85503e-18
2.64226e-17
5.1089e-17
1.12625e-12
2.46523e-11
2.42486e-11
1.32718e-11
5.96625e-12
2.40256e-12
4.70081e-13
4.32097e-14
2.35223e-15
7.01376e-17
1.06606e-17
3.1781e-18
2.35425e-18
3.01261e-18
1.90606e-18
1.7747e-18
3.22604e-18
5.2125e-18
1.80845e-17
1.5633e-12
2.13873e-14
5.77941e-25
6.62084e-25
2.58639e-28
4.95872e-31
4.44825e-31
4.84625e-31
8.00482e-22
1.01525e-20
1.30977e-18
8.91869e-19
1.01033e-18
1.05571e-18
7.0508e-19
7.3582e-19
1.0129e-18
1.69769e-18
1.75856e-18
4.42964e-19
1.9937e-21
5.15364e-23
1.18311e-23
5.9622e-25
3.34333e-24
8.23762e-23
1.16479e-21
6.21987e-21
8.87722e-20
4.56809e-19
3.29541e-19
3.86193e-19
3.59458e-19
2.65638e-19
2.64772e-19
3.35311e-19
3.15938e-19
3.98418e-19
1.09549e-33
1.07605e-29
2.40967e-27
3.09458e-25
5.0411e-24
5.48019e-23
8.34728e-22
4.11171e-21
1.22815e-20
4.29523e-20
1.31993e-19
1.33426e-19
1.36097e-19
1.11067e-19
8.7278e-20
8.9908e-20
6.93412e-20
6.25776e-20
4.58014e-20
2.69114e-30
9.02605e-28
9.32324e-26
4.38864e-24
3.98475e-23
3.64906e-22
2.75564e-21
5.41411e-21
6.94893e-21
1.36358e-20
3.96677e-20
4.99207e-20
4.56394e-20
3.59971e-20
2.87604e-20
2.77126e-20
1.67356e-20
7.82967e-21
4.55571e-21
4.04015e-28
2.77597e-26
1.27552e-24
1.84834e-23
1.36691e-22
1.24425e-21
2.73224e-21
3.62873e-21
3.11363e-21
4.69383e-21
1.23355e-20
1.75755e-20
1.49077e-20
1.11199e-20
8.65031e-21
7.37647e-21
2.42828e-21
1.03312e-21
3.30173e-22
1.32204e-26
4.36938e-25
8.44346e-24
7.56437e-23
3.70951e-22
8.99398e-22
1.50541e-21
1.56835e-21
1.20799e-21
1.68313e-21
4.36032e-21
5.80693e-21
4.5362e-21
3.1162e-21
2.26952e-21
1.71549e-21
4.33887e-22
8.73128e-23
2.28329e-23
1.61034e-25
3.44768e-24
3.32992e-23
1.15196e-22
2.44525e-22
4.6067e-22
6.40232e-22
5.99741e-22
4.31729e-22
5.82747e-22
1.40309e-21
1.75448e-21
1.24243e-21
7.83308e-22
5.20997e-22
3.50738e-22
4.82067e-23
7.4569e-24
1.2366e-24
9.80017e-25
1.24741e-23
4.12887e-23
7.33628e-23
1.29803e-22
2.041e-22
2.44567e-22
2.26737e-22
1.69987e-22
1.86851e-22
4.0992e-22
4.80379e-22
3.06244e-22
1.77701e-22
1.06246e-22
6.3954e-23
6.62719e-24
4.51604e-25
6.43553e-26
2.64926e-24
1.26703e-23
2.61259e-23
4.10207e-23
6.35786e-23
8.98237e-23
1.01018e-22
8.87246e-23
6.10551e-23
5.84619e-23
1.10494e-22
1.23189e-22
6.96833e-23
3.70053e-23
1.93831e-23
1.04356e-23
7.8599e-25
2.83694e-26
3.09612e-27
2.72468e-24
8.53565e-24
1.48665e-23
2.07663e-23
2.84735e-23
3.61112e-23
3.80408e-23
3.0846e-23
2.00192e-23
1.69411e-23
2.79177e-23
2.79377e-23
1.51979e-23
7.14955e-24
3.19081e-24
1.52317e-24
7.77229e-26
1.57732e-27
2.08801e-28
2.02106e-24
5.00352e-24
7.66897e-24
9.88095e-24
1.18332e-23
1.33458e-23
1.30357e-23
9.69784e-24
5.15208e-24
4.60543e-24
6.82612e-24
6.47048e-24
3.17351e-24
1.30358e-24
4.89828e-25
2.00709e-25
6.50937e-27
1.15866e-28
1.99169e-29
1.20094e-24
2.45976e-24
3.54278e-24
4.03503e-24
4.3171e-24
4.4873e-24
4.00255e-24
2.6639e-24
1.40281e-24
1.12025e-24
1.53932e-24
1.42691e-24
6.38211e-25
2.29619e-25
7.28366e-26
2.44931e-26
5.49242e-28
1.17087e-29
1.75045e-30
6.49711e-25
1.19146e-24
1.52231e-24
1.59137e-24
1.53734e-24
1.39099e-24
1.10884e-24
6.15003e-25
3.43598e-25
2.49014e-25
3.19059e-25
2.91581e-25
1.12089e-25
3.95743e-26
1.06038e-26
2.85114e-27
5.24758e-29
1.27283e-30
1.37583e-31
2.88768e-25
5.20779e-25
5.99714e-25
5.91086e-25
5.18145e-25
4.07889e-25
3.01949e-25
1.62736e-25
7.89709e-26
5.15929e-26
6.13475e-26
5.51304e-26
2.01795e-26
5.88424e-27
1.50071e-27
3.21765e-28
5.4703e-30
1.44669e-31
1.05107e-32
1.26706e-25
1.85214e-25
2.01651e-25
1.89175e-25
1.51631e-25
1.06301e-25
6.91203e-26
3.77222e-26
1.68767e-26
9.90792e-27
1.08812e-26
9.52422e-27
3.4292e-27
8.83995e-28
1.88656e-28
3.52774e-29
5.88432e-31
1.68228e-32
8.44351e-34
4.37597e-26
5.84796e-26
6.27737e-26
5.76789e-26
4.38925e-26
2.82462e-26
1.64802e-26
7.83673e-27
3.32028e-27
1.75114e-27
1.76643e-27
1.49589e-27
5.23183e-28
1.26704e-28
2.35139e-29
3.74628e-30
6.33261e-32
1.92966e-33
7.35803e-35
1.15443e-26
1.52453e-26
1.65391e-26
1.5127e-26
1.11247e-26
6.58179e-27
3.428e-27
1.48326e-27
5.99355e-28
2.8516e-28
2.61969e-28
2.1386e-28
7.20304e-29
1.64205e-29
2.83407e-30
3.83523e-31
6.5855e-33
2.12209e-34
5.87718e-36
2.33527e-27
3.44627e-27
3.76807e-27
3.49154e-27
2.52965e-27
1.40062e-27
6.58061e-28
2.57863e-28
9.92828e-29
4.29386e-29
3.55733e-29
2.78854e-29
9.02988e-30
1.92905e-30
3.15293e-31
3.75764e-32
6.55527e-34
2.2001e-35
5.12011e-37
4.20473e-28
6.53431e-28
7.4023e-28
7.06444e-28
5.11745e-28
2.707e-28
1.16638e-28
4.14239e-29
1.51244e-29
5.99388e-30
4.43959e-30
3.31997e-30
1.03455e-30
2.07281e-31
3.22216e-32
3.49318e-33
6.24812e-35
2.13811e-36
4.52815e-38
5.53807e-29
1.04124e-28
1.25206e-28
1.2499e-28
9.16403e-29
4.72243e-29
1.90096e-29
6.18654e-30
2.12673e-30
7.77757e-31
5.11203e-31
3.61222e-31
1.0844e-31
2.045e-32
3.03916e-33
3.05754e-34
5.64664e-36
1.86372e-37
3.77752e-39
6.89465e-30
1.38952e-29
1.82448e-29
1.91039e-29
1.43834e-29
7.36106e-30
2.83775e-30
8.6202e-31
2.77298e-31
9.41612e-32
5.45216e-32
3.59682e-32
1.04063e-32
1.85546e-33
2.64975e-34
2.50588e-35
4.72546e-37
1.51187e-38
2.60255e-40
5.47784e-31
1.55921e-30
2.27883e-30
2.52383e-30
1.97557e-30
1.01937e-30
3.86922e-31
1.11981e-31
3.36671e-32
1.06783e-32
5.40999e-33
3.28597e-33
9.15513e-34
1.55077e-34
2.13551e-35
1.91647e-36
3.66988e-38
1.17281e-39
1.89401e-41
4.17144e-32
1.47387e-31
2.46952e-31
2.9282e-31
2.40242e-31
1.26162e-31
4.80947e-32
1.35173e-32
3.81728e-33
1.13769e-33
5.0203e-34
2.76471e-34
7.40242e-35
1.19671e-35
1.59156e-36
1.36541e-37
2.67116e-39
8.51045e-41
1.35701e-42
2.81925e-33
1.19145e-32
2.35737e-32
3.02264e-32
2.61664e-32
1.41058e-32
5.44427e-33
1.51054e-33
4.04688e-34
1.1404e-34
4.3808e-35
2.15309e-35
5.5215e-36
8.55367e-37
1.09847e-37
9.06003e-39
1.81939e-40
5.7187e-42
8.89988e-44
1.4523e-34
8.36905e-34
1.99358e-33
2.7822e-33
2.56032e-33
1.43345e-33
5.61158e-34
1.55792e-34
4.01085e-35
1.07537e-35
3.61286e-36
1.5616e-36
3.81834e-37
5.68569e-38
7.03852e-39
5.60491e-40
1.14198e-41
3.60243e-43
4.5555e-45
6.37635e-36
5.10163e-35
1.49125e-34
2.27915e-34
2.24816e-34
1.32405e-34
5.2707e-35
1.47993e-35
3.70618e-36
9.52871e-37
2.82688e-37
1.06225e-37
2.46287e-38
3.53171e-39
4.20196e-40
3.24039e-41
6.65469e-43
2.14364e-44
2.4951e-46
2.48161e-37
2.7298e-36
9.81201e-36
1.66807e-35
1.77338e-35
1.10987e-35
4.51855e-36
1.29386e-36
3.18411e-37
7.92228e-38
2.10365e-38
6.82796e-39
1.49184e-39
2.0614e-40
2.34797e-41
1.75689e-42
3.66446e-44
1.19933e-45
1.37029e-47
9.03575e-39
1.29941e-37
5.701e-37
1.09589e-36
1.26231e-36
8.44696e-37
3.54429e-37
1.04172e-37
2.54459e-38
6.17266e-39
1.49034e-39
4.17811e-40
8.54837e-41
1.13747e-41
1.2348e-42
8.97393e-44
1.91813e-45
6.26888e-47
6.80061e-49
2.71378e-40
5.52711e-39
2.95382e-38
6.5031e-38
8.15883e-38
5.85571e-38
2.55164e-38
7.7375e-39
1.89639e-39
4.50408e-40
1.00512e-40
2.44984e-41
4.6677e-42
5.97104e-43
6.15041e-44
4.34161e-45
9.53742e-47
3.05518e-48
2.98109e-50
7.32871e-42
2.10495e-40
1.37945e-39
3.51016e-39
4.81932e-39
3.7163e-39
1.69243e-39
5.31599e-40
1.32051e-40
3.07789e-41
6.44886e-42
1.38335e-42
2.44528e-43
3.00046e-44
2.92137e-45
2.00141e-46
4.51682e-48
1.39027e-49
1.25261e-51
1.78993e-43
7.22431e-42
5.86526e-41
1.73561e-40
2.6177e-40
2.17209e-40
1.03871e-40
3.38989e-41
8.59762e-42
1.97144e-42
3.93324e-43
7.54532e-44
1.23607e-44
1.45158e-45
1.3326e-46
8.84615e-48
2.05047e-49
5.9411e-51
5.13771e-53
4.00497e-45
2.25252e-43
2.28042e-42
7.91673e-42
1.31541e-41
1.17657e-41
5.92776e-42
2.01457e-42
5.23907e-43
1.18587e-43
2.27998e-44
3.98018e-45
6.05484e-46
6.79445e-47
5.8776e-48
3.77227e-49
8.98266e-51
2.41443e-52
2.01956e-54
8.29525e-47
6.47097e-45
8.20316e-44
3.35544e-43
6.15352e-43
5.94495e-43
3.16245e-43
1.121e-43
2.99512e-44
6.72046e-45
1.25717e-45
2.03085e-46
2.88231e-47
3.08911e-48
2.52204e-49
1.5611e-50
3.81734e-52
9.49473e-54
7.57478e-56
1.60633e-48
1.73896e-46
2.76627e-45
1.32491e-44
2.69889e-44
2.82068e-44
1.58634e-44
5.87071e-45
1.61225e-45
3.60375e-46
6.60675e-47
1.00238e-47
1.33586e-48
1.36836e-49
1.05822e-50
6.30274e-52
1.57934e-53
3.66519e-55
2.72438e-57
2.93647e-50
4.4209e-48
8.83844e-47
4.91454e-46
1.11798e-45
1.26532e-45
7.52764e-46
2.90953e-46
8.20505e-47
1.83781e-47
3.31784e-48
4.78919e-49
6.03674e-50
5.9201e-51
4.35875e-52
2.49369e-53
6.37642e-55
1.39629e-56
9.458e-59
5.12011e-52
1.07307e-49
2.69973e-48
1.738e-47
4.40434e-47
5.40394e-47
3.40069e-47
1.37248e-47
3.96649e-48
8.96033e-49
1.59708e-49
2.2183e-50
2.66408e-51
2.50721e-52
1.76729e-53
9.70397e-55
2.51645e-56
5.23944e-58
3.19151e-60
2.26184e-53
2.49756e-51
7.95186e-50
5.93016e-49
1.66245e-48
2.2128e-48
1.47206e-48
6.19889e-49
1.83235e-49
4.19767e-50
7.39729e-51
9.98251e-52
1.15022e-52
1.0417e-53
7.06664e-55
3.72454e-56
9.72185e-58
1.93036e-59
1.05404e-61
)
;

boundaryField
{
    leftWall
    {
        type            zeroGradient;
    }
    rightWall
    {
        type            zeroGradient;
    }
    lowerWall
    {
        type            zeroGradient;
    }
    atmosphere
    {
        type            inletOutlet;
        inletValue      uniform 0;
        value           nonuniform List<scalar> 
46
(
0
0
0
0
0
0
0
0
0
0
0
0
0
0
0
0
0
0
0
0
0
0
0
3.72413e-59
1.74399e-57
4.86519e-56
1.01321e-54
2.26184e-53
2.49756e-51
7.95186e-50
5.93016e-49
1.66245e-48
2.2128e-48
1.47206e-48
6.19889e-49
1.83235e-49
4.19767e-50
7.39729e-51
9.98251e-52
1.15022e-52
1.0417e-53
7.06664e-55
3.72454e-56
9.72185e-58
1.93036e-59
1.05404e-61
)
;
    }
    defaultFaces
    {
        type            empty;
    }
}


// ************************************************************************* //
