/*--------------------------------*- C++ -*----------------------------------*\
| =========                 |                                                 |
| \\      /  F ield         | OpenFOAM: The Open Source CFD Toolbox           |
|  \\    /   O peration     | Version:  2312                                  |
|   \\  /    A nd           | Website:  www.openfoam.com                      |
|    \\/     M anipulation  |                                                 |
\*---------------------------------------------------------------------------*/
FoamFile
{
    version     2.0;
    format      ascii;
    arch        "LSB;label=32;scalar=64";
    class       volScalarField;
    location    "0.2";
    object      alpha.water;
}
// * * * * * * * * * * * * * * * * * * * * * * * * * * * * * * * * * * * * * //

dimensions      [0 0 0 0 0 0 0];

internalField   nonuniform List<scalar> 
2268
(
2.11664e-16
4.14465e-16
4.48603e-16
4.80065e-16
6.64873e-16
1.22976e-15
2.66949e-15
5.97162e-15
2.40108e-14
9.1745e-14
7.59864e-14
5.85024e-12
1.07057e-11
2.5419e-11
3.3201e-11
6.14433e-11
2.07661e-10
3.82292e-09
9.22421e-09
4.96488e-09
4.56444e-09
2.41443e-09
7.51988e-10
6.15866e-15
1.16795e-14
1.35503e-14
1.39405e-14
1.87212e-14
3.35801e-14
7.07435e-14
1.20582e-13
4.05587e-13
1.30237e-12
1.1082e-13
2.59541e-10
4.45886e-10
6.55589e-10
1.88885e-10
6.21816e-11
1.09666e-07
6.14761e-07
7.51686e-07
5.66705e-07
1.72337e-08
2.37311e-09
4.43578e-10
8.77007e-14
1.38942e-13
1.59678e-13
1.61216e-13
2.4923e-13
4.91078e-13
8.97804e-13
1.56015e-12
3.83091e-12
9.66125e-12
1.03139e-13
2.03083e-09
3.31014e-08
4.43046e-08
1.93004e-08
3.25139e-08
6.91531e-07
9.61391e-07
2.10366e-07
1.74107e-09
1.85508e-09
2.4971e-08
4.39729e-10
8.49018e-13
1.27949e-12
1.42801e-12
1.44885e-12
2.58158e-12
5.15589e-12
8.18916e-12
1.13043e-11
2.17419e-11
4.26502e-11
1.89384e-12
1.48689e-09
6.86686e-08
7.4077e-08
8.20785e-08
1.91223e-06
1.32185e-10
5.60176e-10
5.50833e-10
6.51468e-05
0.000112147
3.04138e-05
2.49558e-06
5.67465e-12
7.56828e-12
8.44438e-12
8.0635e-12
1.74819e-11
3.63919e-11
6.08077e-11
6.99819e-11
9.76474e-11
1.36543e-10
5.54117e-11
7.50013e-10
2.21305e-10
1.40852e-08
1.45762e-08
0.004128
0.0928042
0.117157
0.0664368
0.00985316
4.31299e-05
1.99076e-05
9.04675e-06
2.30561e-11
2.85616e-11
3.09497e-11
3.0629e-11
6.41069e-11
1.25189e-10
2.09103e-10
2.23928e-10
2.36246e-10
2.3206e-10
1.76049e-10
1.76654e-10
1.76899e-10
1.77567e-10
0.0595118
0.383392
0.813164
0.859646
0.375441
0.000987383
2.14425e-06
2.03208e-06
4.66598e-06
5.12442e-11
6.12291e-11
6.5116e-11
6.46981e-11
1.24229e-10
2.05473e-10
3.08795e-10
3.08179e-10
2.58128e-10
2.22878e-10
1.76742e-10
1.77264e-10
0.0176756
0.215187
0.662478
0.999188
0.999999
0.999999
0.556245
0.00793939
1.39793e-05
1.3167e-07
3.12392e-07
7.30072e-11
8.20369e-11
7.75752e-11
8.24237e-11
1.27757e-10
4.46839e-10
4.63267e-10
2.67633e-10
2.04694e-10
2.04966e-10
0.0277343
0.160431
0.489527
0.906532
1
1
0.999972
0.99998
0.58786
0.0116358
4.46334e-05
1.48987e-06
3.88412e-13
2.565e-17
8.56531e-17
8.79889e-16
3.65677e-15
1.1473e-14
2.77953e-14
4.24834e-14
2.08083e-14
1.06653e-14
4.80056e-15
2.23196e-15
9.65813e-16
5.6923e-16
3.55689e-16
2.31365e-16
1.37632e-16
6.09503e-17
3.04317e-17
1.55062e-17
4.90371e-17
1.96633e-15
1.75544e-14
6.60493e-14
1.5464e-13
2.59557e-13
2.316e-13
1.09886e-13
5.48905e-14
2.69362e-14
1.39282e-14
8.07611e-15
4.94434e-15
3.01825e-15
1.71524e-15
9.54256e-16
4.55513e-16
8.40417e-17
1.24847e-17
1.93727e-15
2.21655e-14
5.60926e-14
1.74103e-13
4.08507e-13
7.1275e-13
5.6078e-13
3.79105e-13
2.03348e-13
1.05689e-13
5.8635e-14
3.535e-14
2.21188e-14
1.3185e-14
6.40911e-15
1.89535e-15
3.12826e-16
2.44537e-17
7.71799e-18
1.8698e-15
1.06511e-14
1.06833e-14
8.74964e-14
6.49208e-13
1.31345e-12
1.0858e-12
6.30736e-13
3.16255e-13
2.06544e-13
1.32111e-13
7.67714e-14
4.29019e-14
2.26349e-14
7.6124e-15
2.31484e-15
2.87746e-16
1.2133e-17
4.05806e-18
1.13525e-15
4.7527e-15
1.48923e-14
1.46108e-13
1.45396e-12
2.25623e-12
1.60979e-12
1.05881e-12
6.76435e-13
4.11482e-13
2.3506e-13
1.22646e-13
6.12356e-14
1.99392e-14
5.1043e-15
6.24753e-16
2.23278e-17
1.14714e-18
2.08263e-18
4.58517e-16
9.29278e-16
1.2736e-13
1.06672e-12
3.41566e-12
3.48705e-12
2.48315e-12
1.59583e-12
9.93982e-13
6.24432e-13
2.82562e-13
1.46917e-13
6.25621e-14
1.32223e-14
1.74362e-15
1.3535e-16
3.92301e-18
3.49598e-19
1.53509e-18
1.03954e-16
4.83332e-16
5.12587e-13
4.20606e-12
6.49767e-12
4.86312e-12
3.28736e-12
2.08922e-12
1.22546e-12
7.09614e-13
2.99345e-13
1.29684e-13
3.64671e-14
5.24019e-15
3.36186e-16
8.99613e-18
6.36756e-19
2.68329e-19
1.18094e-18
4.31917e-17
2.00129e-14
4.69157e-12
1.08005e-11
9.60386e-12
6.52463e-12
4.19295e-12
2.59248e-12
1.30276e-12
6.55472e-13
3.04093e-13
8.2022e-14
1.08363e-14
5.97966e-16
1.50627e-17
1.0804e-18
4.17361e-19
1.84118e-19
8.94222e-19
1.16431e-10
1.19488e-10
1.20094e-10
1.22147e-10
1.97758e-10
0.00240439
0.0203627
0.0680265
0.159449
0.325719
0.567266
0.799339
0.990749
1
1
1
0.999887
0.936293
0.298495
1.49691e-09
2.26437e-06
1.59905e-07
5.52866e-13
0.17775
0.19145
0.223082
0.275391
0.353965
0.486074
0.631971
0.778293
0.91154
1
1
1
1
1
1
1
0.999657
0.645679
0.0349001
2.09804e-11
1.74781e-09
6.91615e-09
1.39289e-09
0.910112
0.920394
0.941441
0.969567
1
1
1
1
1
1
1
1
1
1
1
1
0.961771
0.309085
2.09804e-11
2.09762e-11
9.78723e-11
5.32151e-10
9.11643e-10
1
1
1
1
1
1
1
1
1
1
1
1
1
1
1
1
0.79559
0.104559
2.09802e-11
7.62243e-11
2.00858e-10
3.42465e-10
3.88236e-10
1
1
1
1
1
1
1
1
1
1
1
1
1
1
1
1
0.483733
0.00494101
2.09928e-11
1.66151e-09
1.15133e-09
3.78547e-10
2.2837e-10
1
1
1
1
1
1
1
1
1
1
1
1
1
1
0.999999
0.798593
0.1292
5.83218e-10
5.76546e-10
7.22694e-10
5.40083e-10
2.95462e-10
1.78327e-10
1
1
1
1
1
1
1
1
1
1
1
1
1
0.999994
0.991638
0.357272
5.52525e-10
4.98533e-10
4.82533e-10
4.46024e-10
3.56924e-10
2.58559e-10
1.68769e-10
1
1
1
1
1
1
1
1
1
1
1
1
0.999988
0.999987
0.610797
0.0413439
5.07038e-10
5.04823e-10
4.89519e-10
4.33027e-10
3.20493e-10
2.28399e-10
1.40062e-10
1
1
1
1
1
1
1
1
1
1
1
1
0.999983
0.873467
0.168735
7.18426e-10
6.02048e-10
5.57957e-10
4.68405e-10
3.49545e-10
2.31281e-10
1.20239e-10
3.38909e-11
1
1
1
1
1
1
1
1
1
1
1
0.999988
0.986504
0.297394
1.0235e-09
1.08702e-09
7.1294e-10
4.63481e-10
2.9596e-10
1.80162e-10
8.59387e-11
3.90191e-11
1.11014e-11
1
1
1
1
1
1
1
1
1
1
1
0.993302
0.584227
0.0242741
4.44311e-10
2.10772e-09
1.83278e-09
4.31779e-10
1.62775e-10
7.69136e-11
3.19617e-11
1.10287e-11
2.27848e-12
1
1
1
1
1
0.999473
0.988662
0.954981
0.888161
0.781479
0.651055
0.474296
0.161944
1.11243e-09
1.13014e-09
1.55247e-07
9.95738e-09
3.53488e-10
1.10214e-10
6.46787e-11
2.02103e-11
5.12846e-12
9.52037e-13
0.823902
0.809888
0.780428
0.733567
0.663774
0.556458
0.421776
0.28694
0.167691
0.0739856
0.0187909
5.37389e-09
4.5018e-09
0.00012411
3.35842e-05
5.51329e-07
3.08888e-09
3.22364e-09
1.49813e-09
4.99789e-10
1.17599e-10
3.56565e-11
8.02182e-12
0.0990266
0.0885334
0.0687984
0.0430725
0.0141947
1.02897e-19
2.40599e-28
-4.22102e-14
1.95332e-31
-3.80095e-28
-5.30062e-10
1.99224e-07
1.61205e-05
0.000582763
0.000107917
6.44076e-07
3.17359e-07
7.84286e-08
1.17762e-08
1.52723e-09
4.32371e-10
9.668e-11
2.25484e-11
2.82957e-14
1.88037e-12
1.27412e-11
1.1897e-11
1.58739e-14
1.95996e-15
1.164e-13
1.09291e-12
7.07818e-13
5.61348e-09
2.56445e-07
6.37627e-06
5.2057e-05
0.00058269
9.49073e-05
8.1058e-06
1.00308e-06
1.55057e-07
2.75381e-08
3.10373e-09
6.49438e-10
9.14535e-11
1.0548e-11
3.2376e-13
2.06735e-11
3.91506e-10
3.49567e-10
2.3171e-12
7.84112e-14
1.507e-12
1.59473e-11
6.90223e-11
6.80383e-11
2.32383e-07
1.62883e-06
1.15854e-05
0.00013712
9.53492e-06
3.18718e-06
3.36147e-07
2.09622e-08
1.76037e-09
3.55184e-10
7.40559e-11
6.6603e-12
1.93246e-13
7.48023e-13
4.00457e-11
5.83561e-10
5.07622e-10
3.36591e-12
2.6778e-13
4.61999e-12
5.04882e-11
5.15287e-10
4.61014e-09
4.63364e-08
-1.60677e-25
3.79182e-27
-5.56621e-20
-1.86164e-19
-2.66301e-19
-2.04878e-19
-3.69198e-26
-1.63443e-29
1.13114e-38
4.63377e-13
2.84464e-14
9.60065e-17
5.78233e-13
2.73273e-11
3.47639e-10
2.76337e-10
1.77855e-12
4.29745e-13
6.4504e-12
6.78383e-11
9.95978e-10
4.40629e-09
2.34769e-09
-3.61691e-21
-5.15422e-20
-2.327e-19
-7.5307e-19
-1.09958e-18
-8.09238e-19
-4.92013e-26
2.25797e-28
5.27265e-28
4.97555e-28
6.61215e-18
1.05513e-21
4.16223e-29
5.66141e-21
1.40439e-18
1.54077e-20
1.83511e-14
3.57392e-13
4.74356e-12
3.98099e-11
1.86225e-10
4.10493e-10
-4.36571e-22
-6.27491e-21
-4.36063e-20
-1.63071e-19
-3.83686e-19
-5.46298e-19
-3.62029e-19
2.551e-28
2.72066e-27
1.13682e-26
4.72712e-26
5.68253e-25
5.23766e-24
1.27627e-47
1.20725e-46
1.87095e-44
1.95913e-45
1.35037e-44
6.34659e-43
4.69653e-43
-2.60433e-44
-3.15904e-42
-1.55107e-40
3.83909e-35
6.52113e-34
9.47469e-33
8.38611e-32
5.36601e-31
3.99765e-30
6.04252e-29
1.22351e-27
7.70894e-27
3.26423e-26
2.27146e-25
8.02287e-25
2.63468e-24
1.32563e-51
3.5359e-49
4.30261e-47
3.31703e-45
1.82061e-43
7.58102e-42
2.54965e-40
7.44837e-39
1.92826e-37
4.20939e-36
8.08079e-35
1.29732e-33
1.68814e-32
1.71963e-31
1.47465e-30
9.6075e-30
9.56066e-29
7.93579e-28
5.45073e-27
2.02904e-26
6.40982e-26
2.36885e-25
9.31151e-25
5.99246e-52
1.50197e-49
1.82556e-47
1.42271e-45
7.9435e-44
3.38694e-42
1.17244e-40
3.51915e-39
9.26833e-38
2.03036e-36
3.73511e-35
5.80562e-34
7.43926e-33
8.60031e-32
7.03508e-31
5.92544e-30
3.60596e-29
1.82324e-28
7.75111e-28
3.11254e-27
1.27127e-26
4.55726e-26
2.52127e-25
6.76072e-53
1.67314e-50
2.01384e-48
1.56686e-46
8.84185e-45
3.85413e-43
1.35406e-41
3.96069e-40
9.83985e-39
2.07236e-37
3.63731e-36
5.31526e-35
6.32094e-34
6.78298e-33
5.98122e-32
5.28822e-31
3.10011e-30
1.40983e-29
7.09863e-29
2.8331e-28
1.07478e-27
6.74543e-27
4.53283e-26
2.73374e-54
7.22881e-52
9.27233e-50
7.68451e-48
4.62593e-46
2.15577e-44
8.08422e-43
2.49272e-41
6.36865e-40
1.36308e-38
2.56189e-37
4.26198e-36
5.30168e-35
6.95765e-34
6.70755e-33
5.66349e-32
3.49269e-31
1.65661e-30
7.4839e-30
3.59421e-29
1.27415e-28
4.77933e-28
5.12473e-27
5.16039e-56
1.45641e-53
1.98941e-51
1.75134e-49
1.11613e-47
5.48375e-46
2.15838e-44
6.96089e-43
1.86075e-41
4.19631e-40
8.35801e-39
1.4469e-37
1.80116e-36
2.32758e-35
2.89271e-34
2.49724e-33
1.82105e-32
1.01765e-31
6.42924e-31
3.89079e-30
1.84996e-29
7.72546e-29
2.91251e-28
8.57762e-58
2.54142e-55
3.64532e-53
3.37062e-51
2.25556e-49
1.16259e-47
4.79788e-46
1.62738e-44
4.6202e-43
1.1113e-41
2.27395e-40
3.87903e-39
5.23385e-38
7.1386e-37
7.20784e-36
8.21441e-35
5.82691e-34
4.65089e-33
2.92743e-32
1.7202e-31
8.49027e-31
4.05212e-30
1.93134e-29
1.04198e-59
3.20393e-57
4.78178e-55
4.61083e-53
3.22264e-51
1.73601e-49
7.48423e-48
2.64748e-46
7.81873e-45
1.95165e-43
4.1523e-42
7.5539e-41
1.16287e-39
1.48361e-38
1.75933e-37
1.95046e-36
1.49157e-35
1.22319e-34
8.05732e-34
6.02974e-33
3.52658e-32
1.71761e-31
9.47119e-31
7.76942e-62
2.44242e-59
3.70438e-57
3.61377e-55
2.54889e-53
1.38527e-51
6.03906e-50
2.171e-48
6.56404e-47
1.69245e-45
3.75467e-44
7.20231e-43
1.1971e-41
1.72528e-40
2.15673e-39
2.32845e-38
1.98054e-37
1.98083e-36
1.61291e-35
1.26777e-34
8.36386e-34
5.29927e-33
3.34852e-32
3.60838e-64
1.24156e-61
2.06499e-59
2.21304e-57
1.7166e-55
1.02579e-53
4.90728e-52
1.92791e-50
6.33121e-49
1.76005e-47
4.18027e-46
8.54288e-45
1.51149e-43
2.32951e-42
3.14479e-41
3.72337e-40
3.83543e-39
3.41776e-38
2.82933e-37
2.5754e-36
2.05515e-35
1.34789e-34
9.74151e-34
1.17969e-66
4.49212e-64
8.28807e-62
9.87364e-60
8.52619e-58
5.67608e-56
3.02434e-54
1.32177e-52
4.81861e-51
1.48274e-49
3.88382e-48
8.71281e-47
1.68169e-45
2.80429e-44
4.06303e-43
5.16695e-42
5.86455e-41
6.05701e-40
5.74646e-39
4.98347e-38
3.99489e-37
3.14995e-36
2.53119e-35
2.2798e-69
9.54603e-67
1.93919e-64
2.54794e-62
2.43183e-60
1.79386e-58
1.06211e-56
5.17416e-55
2.10932e-53
7.28164e-52
2.14687e-50
5.44144e-49
1.19254e-47
2.27445e-46
3.807e-45
5.65359e-44
7.53584e-43
9.08863e-42
9.93491e-41
9.84109e-40
8.89107e-39
6.98452e-38
6.21667e-37
3.44401e-72
1.6167e-69
3.6772e-67
5.41206e-65
5.78615e-63
4.77918e-61
3.1663e-59
1.72478e-57
7.85933e-56
3.03362e-54
1.00142e-52
2.84917e-51
7.03526e-50
1.51835e-48
2.88711e-47
4.88021e-46
7.39489e-45
1.00885e-43
1.23731e-42
1.36807e-41
1.40511e-40
1.38949e-39
1.28711e-38
3.41688e-75
1.82629e-72
4.73016e-70
7.91466e-68
9.60834e-66
9.00692e-64
6.77453e-62
4.19469e-60
2.17728e-58
9.60163e-57
3.63483e-55
1.19111e-53
3.40261e-52
8.52553e-51
1.88378e-49
3.68849e-48
6.43082e-47
1.00395e-45
1.4128e-44
1.80461e-43
2.11567e-42
2.35396e-41
2.57116e-40
2.29504e-78
1.39123e-75
4.09554e-73
7.81189e-71
1.08468e-68
1.16701e-66
1.01104e-64
7.23616e-63
4.35694e-61
2.2371e-59
9.90139e-58
3.81153e-56
1.28586e-54
3.82564e-53
1.0086e-51
2.36381e-50
4.9318e-49
9.15735e-48
1.51355e-46
2.25082e-45
3.12304e-44
4.18972e-43
5.30174e-42
8.67352e-82
6.21013e-79
2.15231e-76
4.82166e-74
7.8476e-72
9.88582e-70
1.00284e-67
8.41758e-66
5.96306e-64
3.61897e-62
1.90343e-60
8.75199e-59
3.54031e-57
1.2655e-55
4.01019e-54
1.12986e-52
2.8405e-51
6.40451e-50
1.30454e-48
2.42459e-47
4.16443e-46
6.70843e-45
1.02876e-43
2.44437e-85
2.03417e-82
8.14859e-80
2.10615e-77
3.95503e-75
5.75591e-73
6.76256e-71
6.59896e-69
5.46308e-67
3.90177e-65
2.43582e-63
1.34142e-61
6.54671e-60
2.83401e-58
1.08817e-56
3.71424e-55
1.13309e-53
3.11426e-52
7.79551e-51
1.80343e-49
3.94919e-48
8.41815e-47
1.66057e-45
2.25614e-89
2.29654e-86
1.11612e-83
3.49804e-81
7.98129e-79
1.41626e-76
2.03738e-74
2.44424e-72
2.49479e-70
2.19748e-68
1.68713e-66
1.13687e-64
6.75926e-63
3.56552e-61
1.68255e-59
7.19641e-58
2.8378e-56
1.04695e-54
3.62434e-53
1.16475e-51
3.40791e-50
8.11013e-49
2.25085e-47
1.58133e-93
2.08057e-90
1.2826e-87
5.08323e-85
1.4669e-82
3.2933e-80
5.99098e-78
9.07394e-76
1.16649e-73
1.29115e-71
1.24442e-69
1.05408e-67
7.90967e-66
5.29562e-64
3.18425e-62
1.73074e-60
8.56141e-59
3.88284e-57
1.62605e-55
6.31831e-54
2.28176e-52
7.68695e-51
2.44494e-49
2.91577e-98
5.35689e-95
4.39063e-92
2.28054e-89
8.56917e-87
2.49623e-84
5.88247e-82
1.15416e-79
1.92491e-77
2.77183e-75
3.48781e-73
3.87115e-71
3.81749e-69
3.36312e-67
2.65746e-65
1.88932e-63
1.21327e-61
7.09879e-60
3.85734e-58
2.0028e-56
1.00793e-54
4.79402e-53
2.09916e-51
8.39813e-104
2.36079e-100
2.71012e-97
1.92869e-94
9.847e-92
3.88377e-89
1.23892e-86
3.30222e-84
7.54352e-82
1.50758e-79
2.67803e-77
4.27312e-75
6.15621e-73
8.0185e-71
9.44238e-69
1.00628e-66
9.73588e-65
8.59529e-63
6.96742e-61
5.22548e-59
3.66295e-57
2.42e-55
1.49913e-53
8.52388e-111
4.51306e-107
8.33197e-104
9.2675e-101
7.35048e-98
4.50733e-95
2.24116e-92
9.32825e-90
3.32544e-87
1.03284e-84
2.83088e-82
6.91542e-80
1.51888e-77
3.02859e-75
5.54914e-73
9.47062e-71
1.52171e-68
2.30698e-66
3.27763e-64
4.33539e-62
5.34395e-60
5.42435e-58
7.03225e-56
5.56732e-121
9.95394e-117
4.17158e-113
1.0027e-109
1.70168e-106
2.22269e-103
2.34442e-100
2.05933e-97
1.53988e-94
9.9712e-92
5.67272e-89
2.87277e-86
1.31114e-83
5.45687e-81
2.09379e-78
7.47942e-76
2.50954e-73
7.97922e-71
2.42869e-68
7.16064e-66
2.068e-63
5.86785e-61
1.59254e-58
6.15582e-10
4.20448e-10
1.00654e-10
3.23135e-11
1.03825e-09
7.93404e-10
5.52507e-10
3.9287e-10
8.70742e-10
7.61842e-10
6.10404e-10
4.60731e-10
3.7404e-10
3.418e-10
2.77288e-10
1.92731e-10
2.08247e-10
1.6965e-10
1.34996e-10
1.08951e-10
1.39771e-10
1.25758e-10
1.04782e-10
8.77671e-11
1.40688e-10
1.15003e-10
8.71535e-11
5.85491e-11
7.85196e-11
4.70431e-11
1.88969e-11
1.012e-11
2.27963e-11
1.10488e-11
5.51531e-12
2.81136e-12
5.98506e-12
2.81165e-12
9.07211e-13
2.76589e-13
2.74082e-14
2.85279e-14
2.31266e-14
1.46642e-14
7.2441e-13
4.27093e-13
1.75744e-13
4.08675e-14
2.79893e-12
9.66499e-13
2.70932e-13
2.49101e-14
1.84956e-12
1.67145e-13
6.87259e-15
7.60361e-17
9.14155e-24
7.02487e-17
6.2282e-18
3.82877e-21
9.36221e-24
8.18201e-21
1.24273e-22
5.23146e-22
1.00303e-23
3.57496e-23
8.82349e-23
1.53287e-22
1.7314e-23
3.88286e-23
5.10002e-23
5.40108e-23
1.29915e-23
1.85369e-23
2.0609e-23
2.11712e-23
5.11217e-24
6.82668e-24
7.78696e-24
8.01555e-24
1.90094e-24
2.51658e-24
2.93486e-24
3.14665e-24
5.31413e-25
6.90198e-25
8.40293e-25
8.97421e-25
1.05946e-25
1.4405e-25
1.71547e-25
1.82873e-25
1.4548e-26
2.01634e-26
2.76387e-26
3.12737e-26
1.42924e-27
2.33202e-27
3.22474e-27
3.81039e-27
7.86541e-29
1.75182e-28
2.93398e-28
4.15849e-28
4.41601e-30
8.79385e-30
1.9308e-29
2.83065e-29
1.84313e-31
4.14382e-31
9.26583e-31
1.95296e-30
6.13131e-33
1.53335e-32
3.2762e-32
8.72037e-32
1.76694e-34
4.80603e-34
1.37075e-33
3.37095e-33
4.85556e-36
1.49896e-35
3.95186e-35
7.8283e-35
1.12874e-37
3.97667e-37
1.09102e-36
2.22823e-36
2.55872e-39
9.97208e-39
2.65107e-38
4.3513e-38
6.44256e-41
3.27417e-40
1.36245e-39
5.85302e-39
1.52267e-42
9.42992e-42
4.85655e-41
2.28144e-40
3.09937e-44
2.26657e-43
1.33467e-42
6.66857e-42
5.10657e-46
4.51544e-45
3.11235e-44
1.67332e-43
7.32817e-48
7.82932e-47
6.36092e-46
3.77547e-45
8.65891e-50
1.1897e-48
1.1401e-47
7.80457e-47
8.50062e-52
1.51016e-50
1.76296e-49
1.48724e-48
6.48914e-54
1.55498e-52
2.37355e-51
2.61324e-50
3.73948e-56
1.42113e-54
3.02819e-53
4.35665e-52
9.24593e-12
2.2502e-11
2.65392e-11
2.06574e-11
1.22912e-11
7.65976e-12
5.051e-12
2.79708e-12
1.2924e-12
5.68619e-13
1.51725e-13
2.35982e-14
1.87124e-15
7.05855e-17
1.94121e-18
4.00694e-19
1.4927e-19
1.22895e-19
6.20942e-19
2.12119e-10
7.6957e-11
5.21065e-11
2.73667e-11
1.43526e-11
8.15661e-12
5.17133e-12
2.65891e-12
1.15165e-12
2.38981e-13
2.24863e-14
1.3854e-15
6.59448e-17
9.9851e-18
1.06504e-18
1.93799e-19
4.29837e-20
7.78233e-20
2.60912e-19
2.38733e-10
7.21747e-11
3.02216e-11
1.82066e-11
1.1706e-11
7.25935e-12
4.039e-12
2.02595e-12
5.11608e-13
5.48005e-14
2.23162e-15
3.71702e-17
2.88983e-18
1.0581e-18
3.04935e-19
5.25562e-20
1.81038e-20
3.39049e-20
1.29071e-19
1.00024e-10
4.35583e-11
2.40705e-11
1.38544e-11
8.00208e-12
5.10022e-12
2.76794e-12
8.19792e-13
9.33172e-14
4.03112e-15
8.93623e-17
4.59379e-18
1.10569e-18
2.30542e-19
7.9004e-20
1.46747e-20
5.2681e-21
1.39691e-20
2.89381e-20
7.44836e-11
4.96679e-11
2.14198e-11
9.39391e-12
5.35815e-12
2.81138e-12
7.57405e-13
9.0689e-14
5.32733e-15
1.5734e-16
1.37435e-17
2.33948e-18
1.65496e-19
7.38284e-20
1.98011e-20
4.20914e-21
1.93671e-21
2.57137e-21
1.00478e-20
6.00077e-11
2.49848e-11
5.5281e-12
2.89731e-12
8.7519e-13
2.01615e-13
3.2709e-14
2.75144e-15
1.55387e-16
2.68479e-17
3.82688e-18
3.82307e-19
4.58507e-20
2.0582e-20
4.73568e-21
1.08674e-21
5.16764e-22
8.15581e-22
9.3814e-22
1.87309e-11
6.68126e-12
2.41312e-12
3.6747e-13
3.41069e-14
2.98101e-15
2.01825e-16
5.57875e-17
9.32576e-18
1.80909e-18
6.44808e-19
7.04609e-20
1.22655e-20
5.25671e-21
1.11266e-21
2.64541e-22
1.57829e-22
1.47425e-22
2.08291e-22
2.85169e-12
7.68815e-13
5.89193e-14
1.45963e-15
7.59597e-17
1.8431e-17
1.41939e-17
4.10958e-18
1.11263e-19
2.40205e-19
9.63768e-20
1.66257e-20
3.02414e-21
1.12311e-21
2.27926e-22
7.04691e-23
3.09052e-23
2.82683e-23
2.34929e-23
6.10588e-13
3.85288e-14
7.81775e-16
1.3738e-17
1.56294e-18
1.06324e-18
2.99122e-19
2.98671e-19
2.59452e-20
3.14797e-20
1.32579e-20
3.41534e-21
7.26779e-22
2.51154e-22
5.05169e-23
1.85163e-23
7.13414e-24
3.46169e-24
2.25919e-24
6.1693e-14
3.42615e-15
4.94697e-17
4.91579e-18
7.92804e-19
6.53309e-20
5.40993e-20
4.38734e-20
4.29751e-21
4.90374e-21
1.68587e-21
7.28356e-22
1.7866e-22
5.57529e-23
1.13739e-23
4.36361e-24
1.00292e-24
4.45642e-25
1.59397e-25
4.18556e-15
3.42035e-16
3.52756e-17
3.20128e-18
2.18555e-20
1.57001e-20
8.80016e-21
2.85237e-21
8.6061e-22
6.32805e-22
3.46049e-22
1.65397e-22
4.3585e-23
1.15196e-23
2.35787e-24
9.1775e-25
1.7366e-25
3.69908e-26
1.06384e-26
5.62975e-15
4.75355e-16
2.0328e-17
1.13233e-20
7.30597e-21
3.9895e-21
1.7148e-21
4.0131e-22
1.56107e-22
7.84174e-23
7.37661e-23
3.86865e-23
9.79999e-24
2.16863e-24
4.41573e-25
1.72556e-25
1.88697e-26
3.0755e-27
5.61273e-28
1.25707e-15
1.29904e-18
4.59787e-19
2.77025e-21
2.10058e-21
8.82018e-22
3.43682e-22
6.59678e-23
3.47314e-23
1.40412e-23
1.56901e-23
8.58324e-24
1.94273e-24
3.68314e-25
7.51341e-26
2.92657e-26
2.53074e-27
1.82213e-28
2.82197e-29
8.32656e-19
2.6129e-20
1.73935e-20
7.60303e-22
5.77944e-22
2.25852e-22
9.02268e-23
1.5621e-23
8.31516e-24
2.88708e-24
3.08286e-24
1.7537e-24
3.39344e-25
5.67774e-26
1.16686e-26
4.48253e-27
2.94961e-28
1.10291e-29
1.30838e-30
2.1779e-20
1.30227e-21
1.1163e-21
2.51921e-22
1.64979e-22
6.35435e-23
2.62985e-23
3.90411e-24
1.96653e-24
5.32946e-25
5.64962e-25
2.99099e-25
5.39012e-26
8.10594e-27
1.66448e-27
6.18411e-28
2.85494e-29
5.91457e-31
8.35207e-32
1.67402e-21
3.00763e-22
2.24002e-22
9.94594e-23
5.24924e-23
2.08632e-23
7.82909e-24
9.25931e-25
3.561e-25
1.04696e-25
1.0169e-25
5.12292e-26
8.06787e-27
1.11661e-27
2.25348e-28
7.73269e-29
2.33196e-30
4.1595e-32
7.6589e-33
2.29062e-22
1.16455e-22
8.69188e-23
3.66732e-23
1.73641e-23
7.52953e-24
2.27273e-24
1.96923e-25
7.83957e-26
2.13323e-26
1.80276e-26
8.60971e-27
1.19963e-27
1.58597e-28
3.05964e-29
8.99227e-30
1.91862e-31
4.12698e-33
6.49935e-34
5.35689e-23
5.38636e-23
3.75672e-23
1.41174e-23
5.90592e-24
2.48401e-24
6.19903e-25
3.57281e-26
1.62295e-26
4.44834e-27
3.15691e-27
1.39557e-27
1.68581e-28
2.45546e-29
4.31876e-30
1.01054e-30
1.82804e-32
4.60845e-34
4.9354e-35
2.0221e-23
2.43021e-23
1.54496e-23
5.27284e-24
1.90886e-24
7.50428e-25
1.72476e-25
8.613e-27
3.35527e-27
9.33404e-28
5.50368e-28
2.21811e-28
2.69295e-29
3.66287e-30
6.33717e-31
1.13379e-31
2.00292e-33
5.76412e-35
3.73472e-36
9.32297e-24
9.16623e-24
5.40738e-24
1.70417e-24
5.25574e-25
1.94133e-25
4.04615e-26
1.93587e-27
6.83269e-28
1.89269e-28
9.40658e-29
3.43796e-29
4.49189e-30
5.92528e-31
8.73251e-32
1.2921e-32
2.41901e-34
7.84792e-36
3.1629e-37
3.3807e-24
3.02517e-24
1.73019e-24
5.20684e-25
1.42673e-25
4.91908e-26
9.61872e-27
4.06917e-28
1.33156e-28
3.59653e-29
1.53588e-29
5.12067e-30
7.11335e-31
9.44704e-32
1.24022e-32
1.49918e-33
3.08153e-35
1.08773e-36
3.13674e-38
9.15351e-25
8.10593e-25
4.67513e-25
1.35908e-25
3.37296e-26
1.05549e-26
1.94084e-27
8.07058e-29
2.44e-29
6.33826e-30
2.35395e-30
7.25215e-31
1.05017e-31
1.38709e-32
1.72237e-33
1.7495e-34
3.89021e-36
1.45571e-37
2.98826e-39
1.85074e-25
1.85159e-25
1.07599e-25
3.11555e-26
7.1924e-27
2.01855e-27
3.50487e-28
1.5079e-29
4.17116e-30
1.0331e-30
3.36546e-31
9.69565e-32
1.44222e-32
1.86987e-33
2.22328e-34
2.00855e-35
4.74637e-37
1.82816e-38
3.16732e-40
3.32309e-26
3.44955e-26
2.10795e-26
6.27443e-27
1.37697e-27
3.46043e-28
5.68163e-29
2.64496e-30
6.6382e-31
1.55676e-31
4.4969e-32
1.21711e-32
1.83845e-33
2.32628e-34
2.65266e-35
2.21828e-36
5.51661e-38
2.136e-39
3.32325e-41
4.32884e-27
5.27898e-27
3.51877e-27
1.10836e-27
2.35526e-28
5.33468e-29
8.29038e-30
4.34508e-31
9.84422e-32
2.17553e-32
5.64061e-33
1.43044e-33
2.17286e-34
2.67807e-35
2.93251e-36
2.31883e-37
6.00571e-39
2.2093e-40
3.26093e-42
5.3704e-28
6.71788e-28
5.01238e-28
1.69148e-28
3.56307e-29
7.3865e-30
1.09511e-30
6.65131e-32
1.3629e-32
2.8357e-33
6.66751e-34
1.57407e-34
2.38308e-35
2.85964e-36
3.00701e-37
2.27341e-38
5.98838e-40
2.13528e-41
2.64738e-43
4.21463e-29
7.15844e-29
6.05885e-29
2.22798e-29
4.75541e-30
9.17923e-31
1.32017e-31
9.41424e-33
1.76358e-33
3.46571e-34
7.45034e-35
1.62583e-35
2.43186e-36
2.84068e-37
2.86389e-38
2.08281e-39
5.54094e-41
1.95373e-42
2.28412e-44
3.26588e-30
6.43563e-30
6.26436e-30
2.57651e-30
5.6601e-31
1.03207e-31
1.46502e-32
1.22387e-33
2.13217e-34
3.98227e-35
7.88735e-36
1.58218e-36
2.31814e-37
2.63432e-38
2.53974e-39
1.78282e-40
4.81718e-42
1.6501e-43
1.89362e-45
2.22207e-31
5.03872e-31
5.653e-31
2.6545e-31
6.07465e-32
1.06451e-32
1.50741e-33
1.45581e-34
2.40435e-35
4.30091e-36
7.91562e-37
1.4561e-37
2.07319e-38
2.28897e-39
2.1045e-40
1.42853e-41
3.93119e-43
1.29031e-44
1.43027e-46
1.17795e-32
3.47746e-32
4.52047e-32
2.44257e-32
5.89105e-33
1.01681e-33
1.44444e-34
1.58228e-35
2.52319e-36
4.35591e-37
7.52053e-38
1.27072e-38
1.74646e-39
1.86995e-40
1.636e-41
1.07474e-42
2.96986e-44
9.48928e-46
8.53065e-48
5.52436e-34
2.11191e-33
3.21409e-33
2.00126e-33
5.1499e-34
8.99972e-35
1.29078e-35
1.57153e-36
2.45426e-37
4.1245e-38
6.74611e-39
1.05278e-39
1.39001e-40
1.44052e-41
1.19804e-42
7.6185e-44
2.11006e-45
6.57622e-47
5.57603e-49
2.35603e-35
1.14533e-34
2.03122e-34
1.45929e-34
4.05803e-35
7.3496e-36
1.07492e-36
1.42811e-37
2.20622e-38
3.64162e-39
5.69647e-40
8.27824e-41
1.0472e-41
1.04887e-42
8.29574e-44
5.10587e-45
1.43123e-46
4.266e-48
3.58038e-50
9.58626e-37
5.63242e-36
1.1458e-35
9.51058e-36
2.89318e-36
5.51902e-37
8.32951e-38
1.19e-38
1.83507e-39
2.99328e-40
4.51706e-41
6.17084e-42
7.47491e-43
7.23075e-44
5.44898e-45
3.24512e-46
9.24723e-48
2.58437e-49
2.08111e-51
3.19138e-38
2.51973e-37
5.82362e-37
5.58185e-37
1.87689e-37
3.80993e-38
5.99972e-39
9.11912e-40
1.41701e-40
2.28941e-41
3.35869e-42
4.35445e-43
5.05703e-44
4.72581e-45
3.40358e-46
1.96098e-47
5.66405e-49
1.46486e-50
1.08308e-52
9.67676e-40
1.01441e-38
2.70814e-38
2.97655e-38
1.11451e-38
2.42393e-39
4.01743e-40
6.44905e-41
1.01829e-41
1.63031e-42
2.34075e-43
2.90533e-44
3.24321e-45
2.93131e-46
2.02556e-47
1.12907e-48
3.28916e-50
7.79193e-52
5.49338e-54
2.68819e-41
3.70022e-40
1.16255e-39
1.4552e-39
6.09321e-40
1.42714e-40
2.50438e-41
4.22599e-42
6.81894e-43
1.08265e-43
1.52992e-44
1.83185e-45
1.97234e-46
1.72735e-47
1.1503e-48
6.20541e-50
1.81508e-51
3.91941e-53
2.70975e-55
6.91767e-43
1.23673e-41
4.61482e-41
6.57943e-41
3.08502e-41
7.81499e-42
1.45743e-42
2.57762e-43
4.26216e-44
6.72341e-45
9.39396e-46
1.09191e-46
1.13829e-47
9.68146e-49
6.24232e-50
3.26119e-51
9.53859e-53
1.89005e-54
1.27052e-56
1.66192e-44
3.84384e-43
1.71161e-42
2.77504e-42
1.45537e-42
4.00231e-43
7.94863e-44
1.47071e-44
2.49432e-45
3.92035e-46
5.43469e-47
6.16251e-48
6.24362e-49
5.16924e-50
3.24211e-51
1.6418e-52
4.78169e-54
8.84981e-56
5.65194e-58
3.75595e-46
1.1266e-44
6.00556e-44
1.09638e-43
6.43919e-44
1.92841e-44
4.08214e-45
7.89172e-46
1.3724e-46
2.15718e-47
2.97394e-48
3.30242e-49
3.26285e-50
2.63514e-51
1.61456e-52
7.93366e-54
2.29039e-55
4.04016e-57
2.4013e-59
8.04825e-48
3.14223e-46
2.01086e-45
4.09912e-45
2.69099e-45
8.79708e-46
1.98492e-46
4.00495e-47
7.1308e-48
1.12644e-48
1.54576e-49
1.68692e-50
1.63007e-51
1.2864e-52
7.72647e-54
3.68825e-55
1.05036e-56
1.7918e-58
9.80745e-61
1.64955e-49
8.40232e-48
6.46746e-47
1.47195e-46
1.07035e-46
3.82474e-47
9.19236e-48
1.9335e-48
3.51635e-49
5.61345e-50
7.66426e-51
8.25113e-52
7.81711e-53
6.03602e-54
3.56234e-55
1.65377e-56
4.62347e-58
7.68253e-60
3.86693e-62
4.47589e-51
2.16063e-49
2.01188e-48
5.13436e-48
4.08473e-48
1.59562e-48
4.07961e-49
8.93315e-50
1.65604e-50
2.68373e-51
3.64276e-52
3.88265e-53
3.61433e-54
2.73337e-55
1.58705e-56
7.17247e-58
1.95959e-59
3.17924e-61
1.47579e-63
)
;

boundaryField
{
    leftWall
    {
        type            zeroGradient;
    }
    rightWall
    {
        type            zeroGradient;
    }
    lowerWall
    {
        type            zeroGradient;
    }
    atmosphere
    {
        type            inletOutlet;
        inletValue      uniform 0;
        value           nonuniform List<scalar> 
46
(
0
0
0
0
0
0
0
0
0
0
0
0
0
0
0
0
0
0
0
0
0
0
0
3.73948e-56
1.42113e-54
3.02819e-53
4.35665e-52
4.47589e-51
2.16063e-49
2.01188e-48
5.13436e-48
4.08473e-48
1.59562e-48
4.07961e-49
8.93315e-50
1.65604e-50
2.68373e-51
3.64276e-52
3.88265e-53
3.61433e-54
2.73337e-55
1.58705e-56
7.17247e-58
1.95959e-59
3.17924e-61
1.47579e-63
)
;
    }
    defaultFaces
    {
        type            empty;
    }
}


// ************************************************************************* //
