/*--------------------------------*- C++ -*----------------------------------*\
| =========                 |                                                 |
| \\      /  F ield         | OpenFOAM: The Open Source CFD Toolbox           |
|  \\    /   O peration     | Version:  2312                                  |
|   \\  /    A nd           | Website:  www.openfoam.com                      |
|    \\/     M anipulation  |                                                 |
\*---------------------------------------------------------------------------*/
FoamFile
{
    version     2.0;
    format      ascii;
    arch        "LSB;label=32;scalar=64";
    class       volScalarField;
    location    "0.2";
    object      alpha.water_0;
}
// * * * * * * * * * * * * * * * * * * * * * * * * * * * * * * * * * * * * * //

dimensions      [0 0 0 0 0 0 0];

internalField   nonuniform List<scalar> 
2268
(
1.99063e-16
3.90635e-16
4.4652e-16
4.77647e-16
6.2412e-16
1.15706e-15
2.51223e-15
5.7088e-15
2.42587e-14
9.28033e-14
7.54958e-14
6.0682e-12
1.15132e-11
2.31662e-11
3.30473e-11
6.43841e-11
3.5111e-10
3.9132e-09
9.40733e-09
5.68486e-09
4.5596e-09
2.32298e-09
7.11633e-10
5.81296e-15
1.11283e-14
1.28726e-14
1.32312e-14
1.76464e-14
3.14155e-14
6.67933e-14
1.13921e-13
3.88041e-13
1.26312e-12
8.01556e-14
2.55733e-10
4.38192e-10
6.07484e-10
1.2599e-10
6.51785e-11
1.18803e-07
6.32379e-07
7.58943e-07
5.37433e-07
1.17392e-08
1.89156e-09
4.19437e-10
8.28447e-14
1.37966e-13
1.58534e-13
1.59846e-13
2.47904e-13
4.89615e-13
8.97083e-13
1.56037e-12
3.84612e-12
9.71977e-12
8.71089e-14
2.37864e-09
3.38229e-08
4.40173e-08
1.76704e-08
2.89604e-08
7.26215e-07
9.85334e-07
1.67386e-07
1.38341e-09
1.45907e-09
2.69325e-08
4.1555e-10
8.06939e-13
1.21877e-12
1.35854e-12
1.38054e-12
2.43346e-12
4.83853e-12
7.61809e-12
1.06211e-11
2.08845e-11
4.1635e-11
9.39492e-14
2.49356e-09
7.21949e-08
7.58078e-08
8.11218e-08
2.10208e-06
1.32006e-10
5.59989e-10
8.61974e-10
9.08075e-05
0.000117456
2.83186e-05
2.49149e-06
5.60483e-12
7.4852e-12
8.35167e-12
7.96098e-12
1.73302e-11
3.60306e-11
6.01128e-11
6.88097e-11
9.66731e-11
1.35492e-10
5.12558e-11
7.90781e-10
2.02117e-10
1.59753e-08
1.6696e-08
0.00469003
0.0913541
0.111088
0.0615012
0.00849773
2.75105e-05
1.85639e-05
8.96015e-06
2.25709e-11
2.80015e-11
3.03463e-11
2.99972e-11
6.32023e-11
1.2413e-10
2.07929e-10
2.2202e-10
2.35501e-10
2.32113e-10
1.78746e-10
1.79398e-10
1.7989e-10
1.80553e-10
0.0613878
0.390393
0.813876
0.844369
0.341101
0.000130678
1.01358e-06
1.88322e-06
4.18212e-06
5.09186e-11
6.09349e-11
6.49439e-11
6.44141e-11
1.24695e-10
2.03479e-10
3.09413e-10
3.10366e-10
2.63817e-10
2.26327e-10
2.67454e-10
1.80055e-10
0.0165173
0.213505
0.665195
0.999531
0.999999
0.999999
0.509288
0.00363046
5.69953e-06
6.73417e-14
5.40402e-14
7.24457e-11
8.16436e-11
7.70252e-11
8.19876e-11
1.27666e-10
1.28549e-10
1.29439e-10
1.30337e-10
1.30064e-10
2.73637e-10
0.0258566
0.156223
0.484138
0.903613
1
1
0.999969
0.99998
0.542389
0.00610244
2.74801e-05
6.55836e-07
6.73417e-14
2.14669e-17
7.16067e-17
7.5122e-16
3.19228e-15
1.01428e-14
2.41342e-14
3.57395e-14
1.99495e-14
9.57745e-15
4.2478e-15
1.95126e-15
8.14255e-16
4.957e-16
3.11721e-16
2.07763e-16
1.22586e-16
5.57791e-17
2.67668e-17
1.4185e-17
4.33961e-17
1.68569e-15
1.53797e-14
5.8507e-14
1.41455e-13
2.39682e-13
2.12197e-13
9.95267e-14
4.9955e-14
2.44257e-14
1.26086e-14
7.34617e-15
4.4834e-15
2.72683e-15
1.51419e-15
8.63997e-16
3.67438e-16
6.20983e-17
1.0624e-17
1.73239e-15
2.11588e-14
4.94591e-14
1.59092e-13
3.80891e-13
6.69177e-13
5.31897e-13
3.5195e-13
1.87377e-13
9.71552e-14
5.3307e-14
3.2344e-14
2.03462e-14
1.15696e-14
5.66656e-15
1.53338e-15
2.41325e-16
1.62879e-17
6.35056e-18
1.6044e-15
9.58901e-15
1.02336e-14
8.2858e-14
6.06678e-13
1.23635e-12
1.02957e-12
5.95389e-13
2.96836e-13
1.91106e-13
1.21333e-13
6.98908e-14
3.86164e-14
1.96686e-14
6.66674e-15
1.9023e-15
1.97305e-16
7.95398e-18
3.04192e-18
9.08638e-16
4.07114e-15
1.44137e-14
1.33668e-13
1.35871e-12
2.13471e-12
1.51291e-12
9.91135e-13
6.30084e-13
3.77341e-13
2.16669e-13
1.11194e-13
5.52986e-14
1.44204e-14
4.4876e-15
4.46276e-16
1.39127e-17
7.70051e-19
1.96858e-18
3.56179e-16
6.23438e-16
1.13977e-13
9.89283e-13
3.18596e-12
3.30364e-12
2.36511e-12
1.50125e-12
9.31722e-13
5.76196e-13
2.62986e-13
1.34582e-13
5.24919e-14
1.08371e-14
1.43917e-15
1.05375e-16
2.60797e-18
3.4055e-19
1.21848e-18
8.2985e-17
5.01574e-16
4.98405e-13
3.99137e-12
6.11599e-12
4.58022e-12
3.10375e-12
1.9573e-12
1.15039e-12
6.53362e-13
2.81908e-13
1.11841e-13
3.30708e-14
4.27864e-15
2.59071e-16
6.36852e-18
6.06954e-19
2.23791e-19
1.03866e-18
3.40069e-17
2.65213e-14
4.48097e-12
1.02382e-11
9.09707e-12
6.19926e-12
3.95967e-12
2.38634e-12
1.25924e-12
6.11375e-13
2.72001e-13
7.35763e-14
8.9978e-15
4.60181e-16
1.14667e-17
1.03666e-18
3.2989e-19
1.69977e-19
7.24353e-19
7.27584e-11
7.30724e-11
7.33878e-11
7.37045e-11
7.40219e-11
0.0018598
0.0186254
0.0647516
0.154629
0.318404
0.561081
0.795329
0.989119
1
1
1
0.999876
0.918598
0.262776
1.77609e-09
9.82859e-07
4.76793e-08
3.45047e-10
0.171139
0.184649
0.215846
0.267553
0.344006
0.475679
0.622936
0.771366
0.906408
1
1
1
1
1
1
1
0.999627
0.609715
0.024834
2.09928e-11
8.14972e-10
2.40095e-09
1.33853e-09
0.904785
0.91534
0.936947
0.965806
0.998676
1
1
1
1
1
1
1
1
1
1
1
0.948472
0.280087
2.10254e-11
2.09959e-11
1.0831e-10
6.02989e-10
8.74232e-10
1
1
1
1
1
1
1
1
1
1
1
1
1
1
1
1
0.774366
0.0895869
2.10275e-11
8.33491e-11
2.13852e-10
3.37496e-10
3.75388e-10
1
1
1
1
1
1
1
1
1
1
1
1
1
1
1
1
0.459487
0.00293422
2.10563e-11
1.77931e-09
1.1301e-09
3.53734e-10
2.22368e-10
1
1
1
1
1
1
1
1
1
1
1
1
1
1
0.999999
0.785445
0.119724
1.23197e-09
5.91523e-10
7.12131e-10
5.17784e-10
2.84153e-10
1.73439e-10
1
1
1
1
1
1
1
1
1
1
1
1
1
0.999994
0.98855
0.347356
1.01288e-09
5.0705e-10
4.81372e-10
4.42565e-10
3.53533e-10
2.52231e-10
1.66572e-10
1
1
1
1
1
1
1
1
1
1
1
1
0.999988
0.999987
0.608597
0.0400586
1.25588e-09
5.15424e-10
4.8908e-10
4.30301e-10
3.18064e-10
2.24082e-10
1.36431e-10
1
1
1
1
1
1
1
1
1
1
1
1
0.999982
0.876977
0.170057
1.70657e-09
6.03554e-10
5.57785e-10
4.68006e-10
3.47496e-10
2.28246e-10
1.17388e-10
3.25658e-11
1
1
1
1
1
1
1
1
1
1
1
0.99999
0.989275
0.306171
1.02198e-09
1.1045e-09
6.94039e-10
4.60751e-10
2.93521e-10
1.7999e-10
8.45182e-11
3.78388e-11
1.02687e-11
1
1
1
1
1
1
1
1
1
1
1
0.99609
0.597434
0.0273105
4.44324e-10
2.72182e-09
1.69447e-09
4.12858e-10
1.62365e-10
7.64012e-11
3.13283e-11
1.06557e-11
2.15487e-12
1
1
1
1
1
0.999968
0.992437
0.963543
0.902343
0.801291
0.675517
0.505238
0.176927
1.04767e-09
1.13081e-09
1.43459e-07
9.03421e-09
3.65493e-10
1.09479e-10
6.14406e-11
1.88632e-11
4.67328e-12
8.53536e-13
0.841572
0.82823
0.800099
0.755119
0.687683
0.588736
0.451028
0.311637
0.186764
0.0872063
0.0274042
3.55582e-08
4.5018e-09
0.00010801
3.08219e-05
5.57945e-07
2.58779e-09
2.70708e-09
1.36469e-09
4.67819e-10
1.02731e-10
3.23478e-11
7.30743e-12
0.113898
0.102744
0.0817277
0.0541978
0.0231029
8.12154e-09
2.90394e-24
-7.19356e-14
-3.95245e-16
-3.80095e-28
-2.0114e-10
1.19848e-07
9.83743e-06
0.000582984
0.000106725
5.41409e-07
2.90264e-07
7.34234e-08
1.11062e-08
1.54158e-09
3.96675e-10
8.83411e-11
2.05219e-11
1.84211e-14
1.24199e-12
-4.77502e-13
-2.00245e-16
-3.31798e-27
7.85856e-16
7.09403e-14
6.58178e-13
1.82371e-14
3.08425e-09
1.93789e-07
6.25673e-06
5.24895e-05
0.000582914
9.76153e-05
7.82037e-06
9.59758e-07
1.48429e-07
2.64706e-08
2.75301e-09
6.08619e-10
9.06762e-11
1.02339e-11
3.00529e-13
1.96992e-11
3.84719e-10
3.44653e-10
2.3134e-12
6.61735e-14
1.32777e-12
1.45499e-11
6.27953e-11
6.19749e-11
2.34919e-07
1.7352e-06
1.27e-05
0.000162249
1.09224e-05
3.39704e-06
3.58583e-07
2.35143e-08
1.65623e-09
3.67692e-10
7.72393e-11
6.73653e-12
1.9286e-13
7.20842e-13
3.93061e-11
5.91487e-10
5.16945e-10
3.46783e-12
2.38972e-13
4.25191e-12
4.9919e-11
4.98821e-10
4.5244e-09
4.85531e-08
1.39146e-08
7.42075e-26
-4.77716e-20
-1.62566e-19
-2.32325e-19
-1.79821e-19
-3.6353e-26
-2.53698e-29
5.20317e-39
5.13658e-13
2.97261e-14
9.97496e-17
5.69914e-13
2.78811e-11
3.59256e-10
2.86436e-10
1.85646e-12
3.93897e-13
6.44683e-12
6.52527e-11
9.89888e-10
4.50121e-09
3.14637e-09
-3.38243e-21
-5.06158e-20
-2.30563e-19
-7.63856e-19
-1.1242e-18
-8.35003e-19
-5.17341e-26
1.93606e-28
4.14229e-28
3.88269e-28
6.84523e-18
1.09144e-21
4.58912e-24
2.92126e-21
1.26815e-18
2.36915e-16
1.77497e-14
3.4833e-13
4.6767e-12
4.10671e-11
1.94386e-10
4.49354e-10
-4.1615e-22
-6.21664e-21
-4.39767e-20
-1.66402e-19
-3.95979e-19
-5.70414e-19
-3.8259e-19
2.11829e-28
2.42348e-27
1.03253e-26
4.16695e-26
5.03517e-25
4.92247e-24
1.30583e-47
8.30256e-47
1.93375e-44
1.89979e-45
6.44022e-45
3.87141e-43
4.30702e-41
8.87375e-40
1.69486e-38
1.59189e-38
3.26374e-35
5.57635e-34
8.43362e-33
7.50119e-32
5.02597e-31
3.94249e-30
5.4778e-29
1.04848e-27
7.03304e-27
3.11845e-26
2.02924e-25
7.29591e-25
2.53534e-24
1.01041e-51
2.78615e-49
3.44577e-47
2.69829e-45
1.50506e-43
6.34576e-42
2.14239e-40
6.28116e-39
1.65561e-37
3.64362e-36
7.08987e-35
1.15176e-33
1.52116e-32
1.55047e-31
1.34715e-30
9.53506e-30
9.27164e-29
7.7072e-28
4.9208e-27
2.04304e-26
6.25979e-26
2.23502e-25
8.79807e-25
4.71836e-52
1.19666e-49
1.47328e-47
1.16455e-45
6.59682e-44
2.84252e-42
9.8604e-41
2.96642e-39
7.94238e-38
1.76384e-36
3.2752e-35
5.15543e-34
6.54141e-33
7.84844e-32
6.2327e-31
5.35026e-30
3.68908e-29
1.8339e-28
7.7683e-28
3.05612e-27
1.25288e-26
4.18577e-26
2.3748e-25
5.37603e-53
1.34381e-50
1.63411e-48
1.28494e-46
7.32842e-45
3.2263e-43
1.14309e-41
3.3683e-40
8.44387e-39
1.80063e-37
3.19374e-36
4.73463e-35
5.5974e-34
6.08696e-33
5.21102e-32
4.8304e-31
2.86084e-30
1.43853e-29
6.3344e-29
2.87743e-28
1.03501e-27
6.15136e-27
4.25824e-26
2.15152e-54
5.74804e-52
7.44873e-50
6.23528e-48
3.78991e-46
1.78278e-44
6.75091e-43
2.10519e-41
5.44055e-40
1.16752e-38
2.18516e-37
3.77203e-36
4.51202e-35
6.14434e-34
5.91276e-33
5.15003e-32
3.2225e-31
1.65783e-30
7.38913e-30
3.28377e-29
1.16957e-28
4.39238e-28
4.77789e-27
4.02199e-56
1.14713e-53
1.5836e-51
1.40872e-49
9.06899e-48
4.49939e-46
1.78844e-44
5.82976e-43
1.57355e-41
3.55053e-40
7.0623e-39
1.2789e-37
1.55e-36
1.9555e-35
2.55676e-34
2.22584e-33
1.65115e-32
1.01712e-31
5.53392e-31
3.51796e-30
1.69108e-29
7.12175e-29
2.70056e-28
6.65963e-58
1.99296e-55
2.88761e-53
2.69702e-51
1.8227e-49
9.48406e-48
3.94893e-46
1.3505e-44
3.86358e-43
9.36344e-42
1.93641e-40
3.394e-39
4.44532e-38
6.33012e-37
6.06308e-36
7.34083e-35
5.81011e-34
4.09268e-33
2.61649e-32
1.56502e-31
7.71597e-31
3.66169e-30
1.77635e-29
8.09639e-60
2.51156e-57
3.7826e-55
3.6812e-53
2.59684e-51
1.41176e-49
6.14071e-48
2.19088e-46
6.52319e-45
1.64096e-43
3.51847e-42
6.46392e-41
1.01172e-39
1.28501e-38
1.50683e-37
1.73782e-36
1.4842e-35
1.08477e-34
7.00537e-34
5.41241e-33
3.20641e-32
1.70572e-31
8.5041e-31
6.07402e-62
1.92837e-59
2.95306e-57
2.90772e-55
2.06899e-53
1.13364e-51
4.97882e-50
1.80191e-48
5.4821e-47
1.42205e-45
3.17456e-44
6.13065e-43
1.02648e-41
1.49114e-40
1.87997e-39
2.05872e-38
1.97484e-37
1.71706e-36
1.41139e-35
1.13306e-34
7.48317e-34
4.71776e-33
3.03118e-32
2.79353e-64
9.70202e-62
1.62859e-59
1.76123e-57
1.37832e-55
8.3081e-54
4.00819e-52
1.58771e-50
5.25626e-49
1.47286e-47
3.52559e-46
7.26007e-45
1.29395e-43
2.0083e-42
2.73127e-41
3.26428e-40
3.40227e-39
3.04369e-38
2.45218e-37
2.26307e-36
1.83413e-35
1.34043e-34
8.62668e-34
9.03422e-67
3.47016e-64
6.4587e-62
7.76228e-60
6.76268e-58
4.54254e-56
2.44233e-54
1.07718e-52
3.96316e-51
1.23086e-49
3.25442e-48
7.37046e-47
1.43623e-45
2.41726e-44
3.53139e-43
4.51929e-42
5.15006e-41
5.33721e-40
5.09135e-39
4.44047e-38
3.55342e-37
2.77949e-36
2.27309e-35
1.7338e-69
7.32035e-67
1.49944e-64
1.98656e-62
1.91195e-60
1.42234e-58
8.49414e-57
4.1745e-55
1.71718e-53
5.98285e-52
1.7806e-50
4.55583e-49
1.00765e-47
1.93818e-46
3.2681e-45
4.88329e-44
6.54588e-43
7.94447e-42
8.74831e-41
8.72784e-40
7.9437e-39
6.75203e-38
5.51218e-37
2.59319e-72
1.22805e-69
2.81623e-67
4.17984e-65
4.50747e-63
3.75618e-61
2.51127e-59
1.38072e-57
6.35108e-56
2.47483e-54
8.24746e-53
2.36857e-51
5.90159e-50
1.28449e-48
2.46123e-47
4.1895e-46
6.3929e-45
8.79241e-44
1.0878e-42
1.20904e-41
1.24229e-40
1.23576e-39
1.15098e-38
2.54351e-75
1.37135e-72
3.58329e-70
6.04945e-68
7.41058e-66
7.01029e-64
5.32137e-62
3.32545e-60
1.74215e-58
7.75422e-57
2.96266e-55
9.7977e-54
2.82434e-52
7.14053e-51
1.59194e-49
3.14489e-48
5.53074e-47
8.70561e-46
1.23471e-44
1.58841e-43
1.86841e-42
2.07548e-41
2.29201e-40
1.69781e-78
1.0373e-75
3.07793e-73
5.91841e-71
8.28554e-69
8.98986e-67
7.85573e-65
5.67213e-63
3.44578e-61
1.78512e-59
7.97118e-58
3.09545e-56
1.05341e-54
3.16184e-53
8.41255e-52
1.99084e-50
4.19728e-49
7.8802e-48
1.31564e-46
1.96641e-45
2.72792e-44
3.67903e-43
4.67323e-42
6.32686e-82
4.56813e-79
1.59698e-76
3.60923e-74
5.92643e-72
7.53145e-70
7.70634e-68
6.5234e-66
4.65962e-64
2.85115e-62
1.512e-60
7.01171e-59
2.86193e-57
1.03279e-55
3.30554e-54
9.40823e-53
2.3889e-51
5.43669e-50
1.11657e-48
2.08935e-47
3.60736e-46
5.8339e-45
8.97469e-44
1.77953e-85
1.49375e-82
6.03614e-80
1.57364e-77
2.98006e-75
4.37253e-73
5.17744e-71
5.08941e-69
4.24219e-67
3.04924e-65
1.91582e-63
1.06266e-61
5.23117e-60
2.28745e-58
8.87803e-57
3.06241e-55
9.43395e-54
2.61493e-52
6.58957e-51
1.52982e-49
3.343e-48
7.1924e-47
1.42749e-45
1.62907e-89
1.67137e-86
8.18787e-84
2.58618e-81
5.94505e-79
1.06253e-76
1.53919e-74
1.85937e-72
1.9114e-70
1.69647e-68
1.31333e-66
8.92997e-65
5.35947e-63
2.85261e-61
1.35605e-59
5.82736e-58
2.30358e-56
8.52155e-55
2.9678e-53
9.63443e-52
2.86774e-50
7.75742e-49
1.91407e-47
1.12893e-93
1.49486e-90
9.27901e-88
3.70369e-85
1.07663e-82
2.43543e-80
4.46527e-78
6.81843e-76
8.83951e-74
9.86899e-72
9.59523e-70
8.19889e-68
6.20586e-66
4.19044e-64
2.54066e-62
1.39184e-60
6.93529e-59
3.16636e-57
1.33459e-55
5.22175e-54
1.89888e-52
6.42857e-51
2.05663e-49
2.0521e-98
3.79554e-95
3.13509e-92
1.64163e-89
6.2196e-87
1.82693e-84
4.34126e-82
8.58893e-80
1.44446e-77
2.09752e-75
2.66195e-73
2.98061e-71
2.96635e-69
2.6386e-67
2.10621e-65
1.51296e-63
9.80845e-62
5.77574e-60
3.14141e-58
1.62719e-56
8.21647e-55
3.9485e-53
1.73661e-51
5.86454e-104
1.65953e-100
1.92099e-97
1.37917e-94
7.10415e-92
2.82598e-89
9.08498e-87
2.43748e-84
5.59748e-82
1.1235e-79
2.0043e-77
3.21534e-75
4.66628e-73
6.13481e-71
7.30203e-69
7.86926e-67
7.69674e-65
6.86383e-63
5.6133e-61
4.23867e-59
2.9848e-57
1.98024e-55
1.23756e-53
5.88646e-111
3.13211e-107
5.82439e-104
6.52834e-101
5.21817e-98
3.22418e-95
1.61494e-92
6.76938e-90
2.43007e-87
7.60162e-85
2.09937e-82
5.16961e-80
1.14442e-77
2.29768e-75
4.23186e-73
7.25159e-71
1.17096e-68
1.79003e-66
2.57256e-64
3.43686e-62
4.28718e-60
5.13356e-58
5.75515e-56
3.73358e-121
6.68963e-117
2.82269e-113
6.83862e-110
1.17052e-106
1.5427e-103
1.64241e-100
1.4564e-97
1.09932e-94
7.18367e-92
4.12215e-89
2.1041e-86
9.67228e-84
4.05237e-81
1.56505e-78
5.62919e-76
1.90301e-73
6.1005e-71
1.87315e-68
5.57511e-66
1.62748e-63
4.67394e-61
1.28299e-58
6.95922e-10
4.17394e-10
1.05887e-10
3.50081e-11
1.05566e-09
7.79769e-10
5.43354e-10
3.84713e-10
8.3943e-10
7.29302e-10
5.79866e-10
4.32295e-10
3.47785e-10
3.15102e-10
2.52833e-10
1.74461e-10
2.03472e-10
1.62032e-10
1.28378e-10
1.04144e-10
1.3882e-10
1.23491e-10
1.009e-10
8.51102e-11
1.37213e-10
1.11331e-10
8.35817e-11
5.54769e-11
7.49077e-11
4.42052e-11
1.75957e-11
9.14513e-12
2.1587e-11
1.05316e-11
5.02459e-12
2.49717e-12
5.71517e-12
2.52499e-12
8.34963e-13
2.62868e-13
2.32964e-14
2.42731e-14
1.99559e-14
1.28784e-14
6.37975e-13
3.73783e-13
1.52169e-13
3.50938e-14
2.46395e-12
8.55883e-13
2.52484e-13
2.12653e-14
1.81687e-12
1.60736e-13
6.61944e-15
7.04153e-17
2.03276e-14
7.31702e-17
6.18079e-18
3.38497e-21
8.92365e-24
8.30672e-21
1.13535e-22
4.34017e-22
9.14117e-24
3.42652e-23
8.48671e-23
1.39535e-22
1.64462e-23
3.76599e-23
4.98179e-23
5.31148e-23
1.23944e-23
1.79606e-23
1.99848e-23
2.09013e-23
4.92183e-24
6.52119e-24
7.54645e-24
7.76624e-24
1.80752e-24
2.41702e-24
2.83825e-24
3.10467e-24
5.06197e-25
6.55685e-25
8.08775e-25
8.5943e-25
9.99625e-26
1.37083e-25
1.63273e-25
1.81229e-25
1.37513e-26
1.88145e-26
2.62039e-26
2.96049e-26
1.33002e-27
2.18981e-27
3.0075e-27
3.7686e-27
7.30738e-29
1.60026e-28
2.84818e-28
3.8819e-28
4.04806e-30
8.51265e-30
1.75749e-29
2.78474e-29
1.68328e-31
3.68108e-31
8.99059e-31
1.79766e-30
5.53652e-33
1.46496e-32
2.85529e-32
8.50441e-32
1.60365e-34
4.18466e-34
1.29733e-33
3.02678e-33
4.3686e-36
1.40352e-35
3.47556e-35
7.76095e-35
1.01153e-37
3.53728e-37
1.03736e-36
2.0275e-36
2.29251e-39
9.00879e-39
2.37414e-38
3.98023e-38
5.69235e-41
2.91168e-40
1.21154e-39
5.16998e-39
1.33159e-42
8.261e-42
4.25399e-41
1.99594e-40
2.69027e-44
1.96926e-43
1.1579e-42
5.78988e-42
4.38389e-46
3.87818e-45
2.68449e-44
1.44364e-43
6.25217e-48
6.67358e-47
5.45454e-46
3.23877e-45
7.27961e-50
1.00902e-48
9.68832e-48
6.65625e-47
7.08426e-52
1.26814e-50
1.47653e-49
1.26022e-48
5.35556e-54
1.28322e-52
1.95934e-51
2.19807e-50
3.04083e-56
1.16976e-54
2.51217e-53
3.63032e-52
9.80601e-12
2.22652e-11
2.52375e-11
1.95064e-11
1.17387e-11
7.35873e-12
4.75949e-12
2.68735e-12
1.20031e-12
5.09818e-13
1.37827e-13
2.03997e-14
1.52551e-15
5.43888e-17
1.64414e-18
3.85092e-19
1.35125e-19
1.08692e-19
5.1659e-19
1.99853e-10
7.39773e-11
4.97328e-11
2.58979e-11
1.37005e-11
7.88256e-12
5.10289e-12
2.48059e-12
1.02965e-12
2.08515e-13
1.88751e-14
1.21721e-15
5.76067e-17
9.43802e-18
9.91768e-19
1.62841e-19
3.91115e-20
6.75186e-20
2.10462e-19
2.18418e-10
6.52842e-11
2.93899e-11
1.80619e-11
1.13503e-11
7.00964e-12
3.81161e-12
1.84279e-12
4.62363e-13
4.6412e-14
1.8081e-15
2.98229e-17
2.85305e-18
9.65888e-19
2.64367e-19
4.3202e-20
1.53707e-20
2.50987e-20
1.04185e-19
9.18735e-11
4.08485e-11
2.28615e-11
1.34057e-11
7.96651e-12
4.90666e-12
2.57892e-12
7.67363e-13
7.91001e-14
3.3861e-15
7.66106e-17
4.54478e-18
9.37811e-19
2.20477e-19
6.55049e-20
1.18007e-20
3.7875e-21
1.031e-20
2.08513e-20
7.15669e-11
4.73544e-11
2.01659e-11
9.19095e-12
5.21055e-12
2.70544e-12
7.03677e-13
8.15533e-14
4.76015e-15
1.37169e-16
1.35784e-17
2.28561e-18
1.57654e-19
6.5582e-20
1.58743e-20
3.36967e-21
1.63382e-21
1.9707e-21
6.63589e-21
5.76583e-11
2.36326e-11
5.18277e-12
2.71781e-12
8.42015e-13
1.98574e-13
3.16688e-14
2.52293e-15
1.49087e-16
2.71954e-17
3.748e-18
3.52355e-19
4.07721e-20
1.74813e-20
3.70425e-21
8.30143e-22
3.60644e-22
6.24888e-22
6.15097e-22
1.76351e-11
6.06126e-12
2.16688e-12
3.3282e-13
3.21348e-14
2.91773e-15
2.04593e-16
4.70497e-17
8.08981e-18
1.78921e-18
6.28724e-19
7.2567e-20
1.05611e-20
4.34634e-21
8.68152e-22
1.99252e-22
1.28748e-22
7.74685e-23
1.36065e-22
2.54985e-12
6.58275e-13
4.9551e-14
1.24782e-15
7.7662e-17
1.99941e-17
1.4319e-17
3.99486e-18
1.06496e-19
2.35141e-19
9.4455e-20
1.45931e-20
2.54509e-21
8.71894e-22
1.67498e-22
5.66641e-23
1.94173e-23
1.98051e-23
6.70843e-24
5.48121e-13
3.40367e-14
6.68632e-16
1.30419e-17
1.63059e-18
1.05088e-18
2.89667e-19
3.00198e-19
2.52803e-20
3.11614e-20
1.28845e-20
2.91781e-21
6.09203e-22
2.02887e-22
3.9611e-23
1.48268e-23
5.58081e-24
1.4895e-24
1.13877e-24
5.77446e-14
3.00787e-15
4.15176e-17
3.0127e-18
6.98956e-19
6.37748e-20
5.36917e-20
4.02657e-20
4.17685e-21
3.98505e-21
1.69362e-21
6.11939e-22
1.51679e-22
4.50174e-23
8.98954e-24
3.42631e-24
5.48212e-25
2.82504e-25
3.54605e-26
3.7045e-15
3.04057e-16
2.32549e-17
2.59917e-18
2.1977e-20
1.54229e-20
8.92575e-21
2.86058e-21
7.64521e-22
4.71765e-22
2.90896e-22
1.42039e-22
3.71555e-23
9.176e-24
1.83164e-24
7.05457e-25
1.30476e-25
1.17164e-26
4.87787e-27
5.10043e-15
3.10821e-16
1.60961e-17
1.13719e-20
7.27568e-21
3.90241e-21
1.63906e-21
3.42836e-22
1.36398e-22
7.46451e-23
6.37656e-23
3.35402e-23
8.23817e-24
1.69937e-24
3.37214e-25
1.30337e-25
9.41742e-27
1.71169e-27
1.02481e-28
1.08023e-15
8.66081e-19
3.7697e-19
2.71019e-21
2.0649e-21
8.53085e-22
3.21321e-22
5.81703e-23
3.15829e-23
1.37262e-23
1.35012e-23
7.38601e-24
1.59449e-24
2.83291e-25
5.65933e-26
2.17488e-26
1.82635e-27
4.45745e-29
1.20339e-29
7.29941e-19
1.87646e-20
1.37099e-20
7.3885e-22
5.62448e-22
2.19374e-22
8.6479e-23
1.44732e-23
7.63216e-24
2.44052e-24
2.61711e-24
1.49216e-24
2.72171e-25
4.3008e-26
8.68173e-27
3.2786e-27
1.83013e-28
5.72132e-30
3.32411e-31
1.59487e-20
1.04766e-21
9.30819e-22
2.46605e-22
1.60396e-22
6.18235e-23
2.5343e-23
3.62521e-24
1.76234e-24
4.51124e-25
4.76583e-25
2.44722e-25
4.26818e-26
6.09522e-27
1.2263e-27
4.44327e-28
1.70169e-29
1.91794e-31
4.9203e-32
1.4468e-21
2.88869e-22
2.13522e-22
9.73371e-23
5.12987e-23
2.05191e-23
7.54502e-24
8.50139e-25
3.59154e-25
9.06702e-26
8.62347e-26
4.27399e-26
6.37392e-27
8.46349e-28
1.66732e-28
5.47358e-29
1.30298e-30
2.55466e-32
4.78925e-33
2.02298e-22
1.13819e-22
8.57628e-23
3.59358e-23
1.68612e-23
7.35421e-24
2.1838e-24
1.74775e-25
7.16612e-26
1.87339e-26
1.53569e-26
7.20177e-27
9.60532e-28
1.23757e-28
2.31761e-29
6.3445e-30
1.16857e-31
2.7625e-33
3.81128e-34
5.26395e-23
5.30724e-23
3.72335e-23
1.3873e-23
5.74406e-24
2.4123e-24
5.91569e-25
3.60606e-26
1.46555e-26
3.9523e-27
2.70415e-27
1.16791e-27
1.34066e-28
1.99216e-29
3.37056e-30
7.21584e-31
1.23751e-32
3.25511e-34
2.86534e-35
1.98351e-23
2.37804e-23
1.51522e-23
5.12721e-24
1.82881e-24
7.14387e-25
1.62585e-25
8.08993e-27
3.04385e-27
8.35922e-28
4.74788e-28
1.86533e-28
2.25502e-29
2.95953e-30
5.06873e-31
8.27267e-32
1.4509e-33
4.33014e-35
2.28377e-36
9.27827e-24
9.18112e-24
5.45174e-24
1.71572e-24
5.26804e-25
1.95011e-25
4.0682e-26
1.78941e-27
6.20629e-28
1.69647e-28
8.14293e-29
2.89918e-29
3.81368e-30
4.96386e-31
6.92449e-32
9.65749e-33
1.83475e-34
6.12512e-36
2.12e-37
3.29386e-24
2.95419e-24
1.69414e-24
5.0688e-25
1.36831e-25
4.68015e-26
9.06445e-27
3.7486e-28
1.20679e-28
3.21138e-29
1.32763e-29
4.31678e-30
6.01263e-31
7.93451e-32
1.00915e-32
1.14517e-33
2.40429e-35
8.62475e-37
2.27792e-38
8.84205e-25
7.85821e-25
4.54845e-25
1.31429e-25
3.21521e-26
9.93815e-27
1.80806e-27
7.41347e-29
2.2024e-29
5.63001e-30
2.02588e-30
6.10056e-31
8.82492e-32
1.15373e-32
1.40609e-33
1.35764e-34
3.06131e-36
1.15713e-37
2.13995e-39
1.76514e-25
1.78663e-25
1.03962e-25
2.99491e-26
6.82282e-27
1.88556e-27
3.23557e-28
1.38133e-29
3.74726e-30
9.12509e-31
2.88136e-31
8.12871e-32
1.20468e-32
1.54187e-33
1.80122e-34
1.57175e-35
3.7492e-37
1.44734e-38
2.42471e-40
3.16927e-26
3.30164e-26
2.02208e-26
5.9949e-27
1.29931e-27
3.20848e-28
5.1985e-29
2.41586e-30
5.9356e-31
1.36717e-31
3.83245e-32
1.01605e-32
1.52574e-33
1.9038e-34
2.13309e-35
1.73938e-36
4.35758e-38
1.68149e-39
2.5493e-41
4.05883e-27
5.01101e-27
3.35036e-27
1.05229e-27
2.20948e-28
4.91136e-29
7.52053e-30
3.95668e-31
8.76411e-32
1.90067e-32
4.79004e-33
1.18853e-33
1.7912e-34
2.17611e-35
2.34184e-36
1.81425e-37
4.72131e-39
1.70126e-40
2.48669e-42
5.06094e-28
6.3249e-28
4.73591e-28
1.59313e-28
3.31896e-29
6.75064e-30
9.85645e-31
6.03478e-32
1.20858e-32
2.46696e-33
5.64646e-34
1.3019e-34
1.95166e-35
2.30807e-36
2.38474e-37
1.77073e-38
4.65442e-40
1.64189e-41
1.91748e-43
3.81482e-29
6.68267e-29
5.67454e-29
2.0806e-29
4.39575e-30
8.32529e-31
1.18019e-31
8.50173e-33
1.55805e-33
3.00487e-34
6.29579e-35
1.33939e-35
1.97969e-36
2.27869e-37
2.25584e-38
1.61338e-39
4.27965e-41
1.50043e-42
1.74609e-44
3.17377e-30
5.95433e-30
5.81499e-30
2.38845e-30
5.19632e-31
9.29731e-32
1.30235e-32
1.09899e-33
1.87645e-34
3.44229e-35
6.65312e-36
1.29931e-36
1.87731e-37
2.10159e-38
1.9878e-39
1.37318e-40
3.70794e-42
1.25391e-43
1.43765e-45
2.00921e-31
4.62078e-31
5.20669e-31
2.44508e-31
5.54337e-32
9.54034e-33
1.33377e-33
1.29894e-34
2.10704e-35
3.70567e-36
6.66467e-37
1.19281e-37
1.6716e-38
1.81729e-39
1.63775e-40
1.09437e-41
3.01166e-43
9.72429e-45
1.06954e-46
1.13768e-32
3.16222e-32
4.13426e-32
2.23476e-32
5.34193e-33
9.07481e-34
1.27267e-34
1.4021e-35
2.20064e-36
3.73856e-37
6.3172e-38
1.03876e-38
1.40296e-39
1.47829e-40
1.26685e-41
8.19338e-43
2.25293e-44
7.12596e-46
5.91523e-48
4.88546e-34
1.90253e-33
2.91744e-33
1.81681e-33
4.63626e-34
7.99576e-35
1.13243e-35
1.38252e-36
2.12827e-37
3.52342e-38
5.64879e-39
8.58739e-40
1.11291e-40
1.13438e-41
9.23772e-43
5.78311e-44
1.59449e-45
4.91645e-47
4.17019e-49
2.08498e-35
1.02343e-34
1.82823e-34
1.31339e-34
3.62456e-35
6.49324e-36
9.38583e-37
1.24692e-37
1.90059e-38
3.09383e-39
4.75036e-40
6.73488e-41
8.35684e-42
8.22861e-43
6.37297e-44
3.86104e-45
1.08118e-46
3.16546e-48
2.66308e-50
8.49506e-37
4.99991e-36
1.02215e-35
8.48263e-36
2.56317e-36
4.84366e-37
7.23383e-38
1.03099e-38
1.5701e-39
2.52719e-40
3.74801e-41
5.00375e-42
5.9439e-43
5.65106e-44
4.17192e-45
2.44535e-46
6.96771e-48
1.90122e-49
1.51443e-51
2.81054e-38
2.22175e-37
5.14993e-37
4.93356e-37
1.64922e-37
3.31927e-38
5.17874e-39
7.83795e-40
1.2042e-40
1.91966e-41
2.77068e-42
3.51625e-43
4.00508e-44
3.67836e-45
2.59728e-46
1.47265e-47
4.24824e-49
1.06837e-50
7.69343e-53
8.45564e-40
8.88035e-39
2.37475e-38
2.60745e-38
9.71257e-39
2.09551e-39
3.44435e-40
5.49817e-41
8.59292e-42
1.35689e-42
1.91839e-43
2.33432e-44
2.55673e-45
2.27146e-46
1.54034e-47
8.4493e-49
2.45466e-50
5.63456e-52
3.94612e-54
2.33315e-41
3.21542e-40
1.01124e-39
1.26363e-39
5.26558e-40
1.224e-40
2.13156e-41
3.57326e-42
5.71072e-43
8.94011e-44
1.24496e-44
1.46326e-45
1.54672e-46
1.33193e-47
8.71413e-49
4.62631e-50
1.34777e-51
2.81546e-53
1.9478e-55
5.97018e-43
1.06683e-41
3.97934e-41
5.66423e-41
2.64321e-41
6.64848e-42
1.23097e-42
2.16135e-43
3.54051e-44
5.50684e-45
7.58663e-46
8.66521e-47
8.87441e-48
7.42474e-49
4.70887e-50
2.42132e-51
7.04521e-53
1.3542e-54
9.05924e-57
1.42651e-44
3.29382e-43
1.46412e-42
2.36881e-42
1.23605e-42
3.37697e-43
6.66018e-44
1.22285e-44
2.05447e-45
3.18462e-46
4.35496e-47
4.85626e-48
4.83694e-49
3.94097e-50
2.43419e-51
1.21349e-52
3.51128e-54
6.34426e-56
3.99781e-58
3.20594e-46
9.59553e-45
5.1013e-44
9.2725e-44
5.42017e-44
1.6136e-44
3.3926e-45
6.50642e-46
1.1206e-46
1.73813e-47
2.36435e-48
2.58355e-49
2.511e-50
1.99649e-51
1.20599e-52
5.83522e-54
1.67121e-55
2.89684e-57
1.6874e-59
6.82946e-48
2.65971e-46
1.69658e-45
3.43627e-45
2.24476e-45
7.29936e-46
1.63602e-46
3.27406e-47
5.77082e-48
9.00418e-49
1.21914e-49
1.31009e-50
1.24602e-51
9.68382e-53
5.7394e-54
2.69843e-55
7.61167e-57
1.28134e-58
6.8533e-61
1.391e-49
7.06539e-48
5.41859e-47
1.22469e-46
8.84819e-47
3.14691e-47
7.5137e-48
1.56732e-48
2.82016e-49
4.45226e-50
5.99627e-51
6.3618e-52
5.9354e-53
4.51455e-54
2.6307e-55
1.20318e-56
3.32634e-58
5.46378e-60
2.68716e-62
3.73168e-51
1.80464e-49
1.6735e-48
4.2424e-48
3.34654e-48
1.30181e-48
3.30695e-49
7.18069e-50
1.31653e-50
2.11221e-51
2.82727e-52
2.97233e-53
2.72621e-54
2.03132e-55
1.16482e-56
5.18751e-58
1.39935e-59
2.24512e-61
1.01935e-63
)
;

boundaryField
{
    leftWall
    {
        type            zeroGradient;
    }
    rightWall
    {
        type            zeroGradient;
    }
    lowerWall
    {
        type            zeroGradient;
    }
    atmosphere
    {
        type            inletOutlet;
        inletValue      uniform 0;
        value           nonuniform List<scalar> 
46
(
0
0
0
0
0
0
0
0
0
0
0
0
0
0
0
0
0
0
0
0
0
0
0
3.04083e-56
1.16976e-54
2.51217e-53
3.63032e-52
3.73168e-51
1.80464e-49
1.6735e-48
4.2424e-48
3.34654e-48
1.30181e-48
3.30695e-49
7.18069e-50
1.31653e-50
2.11221e-51
2.82727e-52
2.97233e-53
2.72621e-54
2.03132e-55
1.16482e-56
5.18751e-58
1.39935e-59
2.24512e-61
1.01935e-63
)
;
    }
    defaultFaces
    {
        type            empty;
    }
}


// ************************************************************************* //
