/*--------------------------------*- C++ -*----------------------------------*\
| =========                 |                                                 |
| \\      /  F ield         | OpenFOAM: The Open Source CFD Toolbox           |
|  \\    /   O peration     | Version:  2312                                  |
|   \\  /    A nd           | Website:  www.openfoam.com                      |
|    \\/     M anipulation  |                                                 |
\*---------------------------------------------------------------------------*/
FoamFile
{
    version     2.0;
    format      ascii;
    arch        "LSB;label=32;scalar=64";
    class       volScalarField;
    location    "0.2";
    object      p_rgh;
}
// * * * * * * * * * * * * * * * * * * * * * * * * * * * * * * * * * * * * * //

dimensions      [1 -1 -2 0 0 0 0];

internalField   nonuniform List<scalar> 
2268
(
11039.3
11018.8
10959.1
10865
10736.9
10574.5
10377.5
10145.6
9878.56
9576.06
9238.27
8866.06
8461.53
8033.11
7604.36
7222.85
6971.12
6966.14
7350.31
8379.92
10373.9
13142.8
17180
11036
11015.2
10955
10860.2
10731.2
10567.4
10368.7
10134.6
9864.68
9558.47
9215.93
8837.71
8425.29
7986.83
7545.97
7148.84
6877.88
6850.43
7184.36
8141.26
10094.2
12908.2
17126.6
11033.2
11011.9
10951
10855.3
10724.8
10559
10357.7
10120.4
9846.32
9534.58
9184.93
8797.88
8373.83
7920.46
7460.68
7035.72
6726.96
6660.6
6897.63
7664.83
9476.74
12265.7
16539.9
11030
11008.1
10946.2
10849
10716.4
10547.7
10342.7
10100.6
9820.29
9500.25
9139.85
8739.75
8298.74
7824.39
7338.42
6870.74
6497.72
6379.24
6502.12
6932.87
8454.81
11208.4
15512
11027.2
11004.4
10941.3
10842.3
10706.9
10534.6
10324.7
10076.6
9788.6
9457.87
9083.46
8666.69
8203.53
7702.3
7184.46
6645.33
5911.29
5542.06
4961.04
4749.95
6455.92
9625.77
14103.7
11025.3
11001.6
10937.1
10836
10697.6
10520.8
10305.4
10050.3
9753.29
9409.26
9016.72
8578.21
8084.58
7549.77
6784.14
5026.69
3079.85
2737.62
2245.56
2186.22
3031.97
7798.42
12247.4
11022.3
10997.7
10931.6
10828.1
10685.9
10503.8
10281.6
10018.1
9710.17
9348.71
8932.62
8467.17
7862.67
6440.82
3996.11
2244.43
2203.19
2188.21
2118.25
2045.66
2140.71
5378.15
10380.8
11010.4
10984.4
10916.1
10809
10661.2
10470.7
10238.7
9964.21
9643.9
9263.37
8684.7
7521.28
5313.05
2810.21
2220.87
2202.11
2176.28
2155.4
2068.96
1974.31
2030.76
2198.24
8877.11
-431.246
-426.674
-411.277
-382.451
-171.487
428.981
720.494
802.695
832.102
788.845
720.615
641.51
553.513
462.079
382.719
343.902
404.09
706.693
1914.97
-433.097
-437.533
-437.74
-423.523
-260.325
338.931
665.188
766.626
797.769
766.937
705.57
628.816
541.52
450.286
369.1
319.76
339.239
525.447
1506.84
-434.735
-438.004
-438.516
-434.457
-381.87
260.759
615.876
726.35
761.613
740.455
684.957
610.327
523.708
432.135
347.846
285.794
255.718
236.241
487.1
-435.875
-438.528
-438.371
-435.652
-393.451
211.726
557.859
678.751
718.687
705.315
655.554
583.383
497.366
404.541
314.977
235.648
130.126
28.8392
37.5084
-436.522
-438.819
-438.553
-435.58
-329.964
186.586
501.982
630.681
675.143
667.509
622.504
552.602
466.957
371.899
275.472
160.607
33.7741
1.33174
7.19651
-436.783
-438.814
-438.511
-416.301
-233.881
172.693
454.406
585.506
633.135
629.177
587.57
519.2
432.811
332.664
204.55
51.2924
-0.45881
-1.08142
4.07097
-436.72
-438.661
-438.115
-312.511
-134.477
173.219
417.108
544.176
592.807
590.861
551.438
483.619
394.433
269.772
79.2646
-0.537514
-2.12472
-1.61584
3.80447
-436.459
-438.377
-363.532
-212.556
-64.0785
180.491
387.073
504.205
550.888
548.984
509.913
440.534
343.78
144.995
4.6373
-2.86066
-2.1097
-1.99927
2.5127
10990.6
10961.9
10890.1
10777.3
10619.7
10400.4
10048.1
9480.57
8616.54
7254.91
5425
3695.81
2313.64
2212.67
2184.25
2154.19
2118.87
2071.27
1891.48
1839.08
1868.63
1694.43
6559.26
9696.36
9563.5
9254.49
8752.09
8012.38
6815.36
5496.64
4180.56
2996.16
2214.65
2195.13
2190.04
2188.07
2163.63
2128.01
2084.67
2039.39
1888.01
1679.29
1687.29
1698.66
1680.34
3852.46
3106.95
3000.9
2781.83
2490.94
2179.75
2176.11
2175.79
2177.65
2181.2
2181.94
2169.46
2154.94
2137
2107.41
2065.59
2014.93
1948.82
1666.85
1552.09
1565.68
1571.92
1563.93
1519.22
2157.87
2159.94
2161.9
2164.66
2167.46
2166.12
2164.15
2161.98
2159.05
2153.09
2140.25
2121.05
2094.39
2057.27
2009.5
1954.75
1812.67
1480.61
1451.73
1465.36
1463.96
1434.49
1359.52
2152.96
2154.4
2155.06
2155.64
2155.53
2153.49
2150
2145.1
2138.18
2127.78
2111.7
2088.33
2055.61
2012.02
1959.22
1903.5
1599.73
1352.8
1370.11
1383.54
1381.62
1354.31
1290.96
2146.4
2147.1
2146.61
2145.44
2143.21
2139.42
2133.96
2126.58
2116.69
2103.09
2084.08
2057.55
2020.67
1972.27
1916.84
1750.45
1345.35
1287.86
1307.3
1318.65
1316.13
1292.8
1241.28
2137.54
2137.57
2136.07
2133.44
2129.45
2123.83
2116.41
2106.89
2094.78
2079.04
2058.21
2029.91
1990.51
1938.66
1879.14
1440.73
1217.44
1238.03
1255.76
1264.4
1259.39
1235.83
1187.85
2127.37
2126.78
2124.36
2120.43
2114.85
2107.47
2098.19
2086.8
2073.01
2055.96
2034.53
2006.09
1965.83
1913.07
1597.9
1190.66
1179.8
1198.92
1212.07
1215.84
1206.37
1180.22
1134.16
2116.69
2115.55
2112.29
2107.16
2100.07
2090.98
2079.91
2066.82
2051.76
2034.14
2013.69
1987.16
1948.57
1803.39
1246.73
1130.45
1148.98
1164.09
1171.83
1169.47
1154.8
1126.14
1083.04
2106.1
2104.46
2100.41
2094.14
2085.59
2074.78
2061.82
2046.92
2030.66
2013.24
1996.26
1975.4
1932.29
1329.82
1089.81
1107.56
1123.21
1132.91
1134.3
1125.9
1106.64
1075.88
1034.2
2095.81
2093.74
2088.95
2081.58
2071.56
2058.89
2043.67
2026.24
2007.59
1989.02
1975
1952.36
1586.95
1078.94
1074.83
1089.7
1100.56
1104.12
1099.19
1084.98
1060.67
1026.24
976.755
2087
2084.57
2079.14
2070.83
2059.46
2044.12
2006.76
1924.22
1778.25
1556.99
1293.94
954.733
1079.31
1044.22
1063.09
1073.89
1079.04
1076.49
1065.6
1045.82
981.346
808.108
484.918
1737.47
1707.09
1643.2
1542.12
1392.76
1166.85
884.401
601.709
351.722
155.357
41.3369
46.6917
609.464
942.296
1007.13
1025.06
1012.13
956.369
838.635
617.253
322.676
48.1864
-0.126323
220.116
196.811
152.961
95.7762
31.5373
0.395625
0.291707
0.295015
0.363225
0.562154
1.70001
38.4593
43.8638
193.931
292.048
328.249
292.03
194.233
70.5447
0.0398679
-0.275935
-0.215509
-0.237428
0.175176
0.180398
0.183186
0.19007
0.205167
0.296359
0.292454
0.298557
0.323096
0.668525
4.54603
2.13847
0.208418
1.4403
0.239546
0.0245677
-0.032102
-0.0806486
-0.125435
-0.169235
-0.273593
-0.309108
-0.33192
0.182264
0.185944
0.191322
0.201538
0.21926
0.254142
0.266402
0.273567
0.281496
0.569036
1.01644
0.17317
0.12299
0.389332
0.0333899
-0.00940557
-0.0629846
-0.117356
-0.184529
-0.254412
-0.33727
-0.374108
-0.320344
0.186094
0.189019
0.194438
0.203714
0.217236
0.234355
0.244302
0.248829
0.252788
0.252329
0.206453
0.162335
0.106872
0.056636
0.0117213
-0.0279884
-0.0798549
-0.143589
-0.223141
-0.311107
-0.292971
-0.079166
0.0770731
0.187043
0.189187
0.193457
0.200186
0.208867
0.217891
0.22344
0.224633
0.220643
0.208797
0.18599
0.152572
0.107804
0.0626048
0.0180536
-0.0274622
-0.0829849
-0.152317
-0.237261
-0.326672
-0.0998247
0.00794247
-0.0551192
0.185393
0.186768
0.189619
0.193809
0.198704
0.20306
0.205056
0.203534
0.197547
0.185919
0.167277
0.139983
0.104469
0.066258
0.0255696
-0.0191691
-0.0729468
-0.139252
-0.217706
-0.284195
-0.200283
-0.218053
-0.465032
0.18163
0.182354
0.183949
0.186125
0.188355
0.189777
0.189332
0.186087
0.179254
0.168163
0.15199
0.12962
0.101454
0.0697438
0.0345554
-0.00539206
-0.0529638
-0.10985
-0.174712
-0.24382
-0.307306
-0.353708
-0.377316
0.176154
0.176386
0.177023
0.177765
0.178217
0.177794
0.17581
0.17159
0.16456
0.154271
0.140173
0.12169
0.0990582
0.0730455
0.0436052
0.00983762
-0.029875
-0.0765296
-0.128836
-0.182471
-0.231147
-0.270345
-0.301023
0.169381
0.169268
0.169241
0.169029
0.168356
0.166818
0.163956
0.159299
0.152444
0.143069
0.130818
0.115406
0.0969205
0.0755774
0.051267
0.0234209
-0.00882329
-0.0458858
-0.0868302
-0.128888
-0.168273
-0.20321
-0.235199
0.161668
0.161332
0.160877
0.160073
0.158732
0.156574
0.153288
0.148549
0.142076
0.133633
0.122996
0.110008
0.0946677
0.0770016
0.056889
0.0339878
0.00784857
-0.0217161
-0.0541628
-0.0879068
-0.120811
-0.152115
-0.18305
0.153277
0.152813
0.152105
0.150967
0.149271
0.146824
0.143412
0.138813
0.132827
0.125284
0.116035
0.104976
0.0920659
0.077263
0.0604553
0.0414296
0.0199408
-0.00410805
-0.0304374
-0.0582191
-0.0863248
-0.114334
-0.142854
0.144407
0.14388
0.143045
0.141749
0.139909
0.137389
0.134042
0.129713
0.12426
0.117557
0.109499
0.100003
0.0890105
0.0764576
0.0622415
0.0462133
0.0282187
0.00818951
-0.013742
-0.0371647
-0.0615059
-0.0864937
-0.112294
0.135193
0.134649
0.133773
0.132439
0.130592
0.128138
0.124973
0.120987
0.116078
0.110149
0.103119
0.0949158
0.0854756
0.0747259
0.0625721
0.0488971
0.0335848
0.0165727
-0.00208512
-0.0221815
-0.0434106
-0.0655501
-0.0885331
0.125733
0.125203
0.124342
0.123048
0.121283
0.118981
0.116067
0.112463
0.108088
0.10287
0.0967395
0.0896316
0.081481
0.0722141
0.0617435
0.0499696
0.0367955
0.0221597
0.00607639
-0.0113443
-0.0299201
-0.0494693
-0.069846
0.116089
0.115594
0.114786
0.113581
0.111955
0.109857
0.107233
0.104024
0.100169
0.0956057
0.0902755
0.0841177
0.0770681
0.0690552
0.059998
0.0498087
0.0384032
0.0257227
0.0117628
-0.00341171
-0.0196777
-0.036885
-0.0548986
0.106307
0.10586
0.105128
0.104043
0.102587
0.100723
0.0984101
0.0956003
0.0922442
0.08829
0.0836839
0.0783694
0.0722846
0.0653615
0.0575252
0.0486972
0.0388032
0.0277893
0.015644
0.00241054
-0.011817
-0.0269221
-0.0427949
0.0964142
0.0960229
0.0953815
0.0944348
0.093169
0.0915553
0.0895603
0.0871459
0.0842698
0.0808861
0.0769459
0.0723956
0.0671766
0.0612247
0.0544708
0.0468444
0.0382794
0.0287275
0.0181742
0.00665129
-0.00576393
-0.0189711
-0.0329101
0.0864298
0.0860985
0.0855559
0.0847571
0.0836911
0.0823344
0.0806593
0.078633
0.0762184
0.0733743
0.0700548
0.0662096
0.0617832
0.0567152
0.050942
0.0443994
0.0370288
0.0287865
0.0196568
0.00966373
-0.00112559
-0.0126285
-0.0248081
0.0763645
0.076095
0.0756551
0.075009
0.0741468
0.0730486
0.0716904
0.0700433
0.0680738
0.0657435
0.0630096
0.0598244
0.0561353
0.0518857
0.0470165
0.0414692
0.0351906
0.0281405
0.0203024
0.0116926
0.00236934
-0.00758767
-0.0181709
0.0662229
0.0660154
0.0656798
0.0651871
0.0645289
0.0636873
0.062641
0.0613636
0.0598239
0.0579862
0.0558098
0.0532493
0.0502548
0.0467729
0.0427486
0.0381276
0.0328608
0.0269106
0.020259
0.0129154
0.00492877
-0.00363038
-0.0127503
0.0560038
0.0558568
0.0556251
0.0552849
0.0548285
0.0542397
0.0534989
0.0525815
0.0514582
0.0500949
0.0484529
0.0464887
0.0441549
0.0414008
0.0381744
0.0344247
0.0301055
0.0251806
0.0196298
0.0134555
0.00669522
-0.000578316
-0.00836235
0.0457026
0.0456143
0.0454854
0.0452944
0.0450361
0.0446947
0.0442521
0.043685
0.0429653
0.0420605
0.0409334
0.039542
0.037841
0.0357819
0.0333149
0.0303915
0.0269672
0.0230059
0.0184853
0.0134005
0.00777855
0.00168281
-0.00486315
0.0353184
0.0352843
0.0352555
0.0352091
0.0351436
0.0350431
0.0348906
0.0346637
0.0343355
0.0338744
0.0332444
0.0324052
0.0313128
0.0299205
0.0281805
0.0260455
0.0234719
0.0204231
0.0168736
0.012812
0.00825305
0.00325725
-0.00214858
0.0248412
0.0248558
0.0249239
0.0250166
0.025138
0.0252715
0.0254011
0.0255048
0.0255564
0.0255253
0.0253763
0.0250704
0.024565
0.0238147
0.022773
0.0213935
0.0196327
0.0174529
0.0148253
0.0117327
0.00817753
0.0042046
-0.000132143
0.0142446
0.0142965
0.0144573
0.0146836
0.0149866
0.0153485
0.0157534
0.0161797
0.0166015
0.0169888
0.0173073
0.0175188
0.0175817
0.017452
0.0170838
0.0164314
0.0154511
0.0141034
0.0123563
0.0101864
0.00758429
0.00458491
0.00124046
0.00350151
0.00357414
0.00382221
0.00417666
0.00465625
0.00524109
0.0059154
0.00665731
0.00744112
0.00823694
0.00901106
0.00972597
0.010341
0.0108127
0.0110962
0.011146
0.010918
0.0103709
0.00946918
0.00818403
0.00649564
0.00441567
0.00201222
-0.00735964
-0.00728602
-0.00695934
-0.00648435
-0.00583523
-0.00503385
-0.00409713
-0.00304752
-0.0019111
-0.000717689
0.000499147
0.00170235
0.00285159
0.00390401
0.00481495
0.00553924
0.00603244
0.00625254
0.00616135
0.00572547
0.00491619
0.0037272
0.00220382
-0.0183387
-0.0182867
-0.0178939
-0.017307
-0.016494
-0.0154807
-0.0142865
-0.0129352
-0.0114532
-0.00987049
-0.00822056
-0.00654048
-0.00487066
-0.00325433
-0.00173678
-0.000364228
0.000817579
0.0017653
0.00243968
0.00280706
0.00283739
0.00249864
0.00180484
-0.0296198
-0.0297144
-0.0292604
-0.0285601
-0.0275772
-0.0263472
-0.0248916
-0.0232347
-0.021403
-0.0194262
-0.0173375
-0.015174
-0.0129763
-0.0107886
-0.0086577
-0.00663215
-0.00476134
-0.00309423
-0.00167751
-0.000553094
0.000245824
0.000707514
0.000870418
1800.89
757.428
-385.058
-426.239
6245.11
3671.93
82.688
-415.772
1597.37
1564.73
846.626
124.747
1103.08
888.796
745.263
620.578
1145.41
1026.61
917.869
820.363
1144.96
1068.33
993.251
921.544
1114.35
1056.88
1002.72
950.281
1075.21
1031.69
990.494
949.765
1034.2
998.896
964.856
929.898
991.396
960.984
931.678
898.744
894.727
794.507
658.088
432.287
215.813
38.6935
-0.0493765
-0.321547
-0.23734
-0.187582
0.0591026
0.134557
-0.282584
-0.302687
1.766
0.419585
-0.334081
0.265725
1.87103
-0.462936
-0.178398
1.10494
0.742372
-0.473409
0.712619
0.396047
-0.525156
-0.511437
-0.419599
-0.476841
-0.501871
-0.492481
-0.462958
-0.457969
-0.452596
-0.44755
-0.387523
-0.390145
-0.391853
-0.392008
-0.316347
-0.324497
-0.33135
-0.335697
-0.254802
-0.26609
-0.276002
-0.283305
-0.204066
-0.216647
-0.227986
-0.23704
-0.163338
-0.176006
-0.187674
-0.197523
-0.131167
-0.143173
-0.154453
-0.164394
-0.105641
-0.116651
-0.12718
-0.136773
-0.0851995
-0.095137
-0.104757
-0.113747
-0.0685881
-0.0774762
-0.0861751
-0.0944499
-0.05496
-0.0628792
-0.0706776
-0.078201
-0.0436688
-0.0506892
-0.0576549
-0.0644376
-0.0342887
-0.0404944
-0.0466729
-0.0527437
-0.0264624
-0.0319091
-0.0373715
-0.0427687
-0.0199562
-0.0247125
-0.0294953
-0.0342586
-0.0145533
-0.0186597
-0.0228245
-0.0269907
-0.0101198
-0.0136298
-0.0172008
-0.0208047
-0.00651951
-0.00945915
-0.0124865
-0.0155576
-0.00368358
-0.00609541
-0.00859087
-0.0111562
-0.00153284
-0.00343426
-0.00543721
-0.0075151
-3.79973e-05
-0.0014642
-0.0029773
-0.00458493
0.000842898
-0.000124429
-0.00118208
-0.00232855
0.00106122
0.000511849
-8.85277e-05
-0.000769966
0.000815862
0.000708879
0.000543726
0.000313886
-380.877
-313.416
-206.217
-117.346
25.9458
201.162
355.055
451.603
491.686
486.858
444.185
360.882
186.492
16.2182
-2.67905
-2.54259
-1.99615
-2.26733
0.431101
-245.774
-135.921
-50.5669
41.9961
148.305
262.587
363.253
428.859
453.355
438.425
359.603
141.938
-2.17139
-3.30241
-2.89348
-2.53033
-1.95625
-1.72034
-0.407735
52.7354
134.427
177.471
219.766
275.904
339.756
396.739
433.035
441.146
356.242
98.562
-2.86602
-3.28294
-3.17556
-2.85207
-2.4536
-1.87773
-1.38416
-0.538758
461.753
400.311
379.585
376.427
392.13
419.264
446.254
463.407
354.909
64.7354
-2.95446
-3.30104
-3.1338
-3.00931
-2.6919
-2.25735
-1.71707
-1.20392
-0.604975
687.166
585.047
529.364
499.553
490.566
496.158
508.89
352.108
33.834
-2.91503
-3.04448
-3.00159
-2.97905
-2.76039
-2.42224
-2.01333
-1.54128
-1.0877
-0.676315
811.609
707.671
637.432
593.217
572.566
549.188
312.715
2.59511
-2.8645
-2.80655
-2.89818
-2.86353
-2.69819
-2.45164
-2.13842
-1.77785
-1.38273
-1.01335
-0.735198
867.052
776.272
706.035
660.169
566.1
226.967
-2.47189
-2.51595
-2.60579
-2.64314
-2.65141
-2.55405
-2.38108
-2.1532
-1.87845
-1.57194
-1.25221
-0.966722
-0.778252
883.152
804.689
743.565
543.708
119.072
-1.96601
-2.09666
-2.14619
-2.355
-2.37938
-2.33714
-2.23602
-2.08221
-1.88359
-1.65068
-1.3987
-1.14735
-0.933372
-0.805369
870.334
737.105
394.103
8.53451
-1.63396
-1.65571
-1.84089
-2.05791
-2.07281
-2.08251
-2.04085
-1.95012
-1.81655
-1.64832
-1.45641
-1.25479
-1.06125
-0.903415
-0.816294
690.654
171.417
-0.910544
-1.12632
-1.28754
-1.49386
-1.67399
-1.76008
-1.80847
-1.81578
-1.77789
-1.69929
-1.58653
-1.44785
-1.29327
-1.13493
-0.987767
-0.872051
-0.812316
24.5031
-0.686105
-0.810506
-0.952152
-1.17888
-1.32465
-1.45192
-1.53319
-1.57691
-1.58161
-1.5488
-1.48315
-1.39079
-1.27905
-1.15663
-1.03381
-0.922625
-0.837747
-0.796309
-0.41188
-0.601336
-0.743991
-0.928596
-1.05173
-1.17503
-1.27482
-1.34232
-1.37719
-1.38007
-1.35294
-1.29976
-1.22578
-1.13723
-1.04146
-0.946933
-0.86315
-0.800665
-0.771525
-0.385413
-0.614923
-0.740867
-0.838443
-0.948855
-1.04785
-1.12639
-1.17983
-1.20729
-1.20927
-1.18753
-1.14531
-1.08692
-1.01755
-0.943247
-0.870867
-0.807773
-0.761553
-0.740836
-0.491362
-0.579627
-0.680207
-0.771966
-0.860403
-0.93794
-0.999548
-1.04175
-1.06353
-1.06519
-1.0482
-1.01516
-0.969566
-0.915669
-0.85837
-0.80313
-0.75561
-0.721289
-0.706441
-0.504075
-0.568903
-0.640695
-0.713423
-0.782407
-0.842858
-0.89105
-0.924341
-0.941714
-0.943332
-0.930343
-0.904812
-0.869545
-0.827965
-0.784006
-0.741968
-0.706188
-0.68063
-0.669964
-0.505343
-0.552042
-0.604943
-0.660148
-0.713122
-0.759963
-0.797585
-0.823862
-0.837844
-0.839564
-0.829888
-0.810426
-0.783407
-0.751564
-0.718022
-0.686144
-0.659242
-0.640205
-0.632551
-0.508214
-0.531643
-0.568537
-0.609703
-0.650167
-0.686466
-0.715972
-0.736898
-0.748372
-0.75033
-0.743405
-0.728841
-0.708395
-0.684234
-0.658821
-0.634773
-0.614618
-0.600466
-0.595025
-0.486441
-0.501998
-0.52871
-0.559952
-0.591394
-0.620011
-0.643589
-0.66064
-0.670395
-0.672741
-0.668139
-0.657549
-0.642354
-0.624262
-0.605204
-0.58721
-0.572208
-0.561754
-0.557942
-0.445401
-0.461734
-0.484253
-0.509839
-0.535505
-0.558965
-0.578497
-0.592933
-0.60165
-0.604536
-0.601938
-0.594606
-0.583626
-0.570343
-0.556269
-0.542972
-0.531931
-0.524287
-0.521698
-0.395647
-0.415068
-0.436784
-0.459761
-0.482143
-0.502421
-0.519395
-0.532222
-0.540447
-0.543998
-0.543156
-0.538516
-0.530939
-0.521482
-0.511328
-0.501692
-0.493707
-0.488222
-0.486544
-0.344622
-0.366916
-0.389014
-0.41094
-0.431579
-0.450016
-0.465482
-0.477425
-0.485551
-0.489843
-0.490544
-0.488141
-0.48332
-0.476916
-0.469856
-0.463083
-0.457469
-0.453641
-0.452655
-0.296232
-0.32049
-0.343117
-0.36459
-0.384275
-0.401656
-0.416274
-0.427796
-0.436064
-0.44111
-0.443158
-0.442611
-0.440022
-0.436057
-0.431441
-0.426912
-0.42314
-0.420596
-0.420127
-0.252427
-0.277548
-0.300404
-0.321535
-0.340594
-0.357315
-0.371442
-0.382797
-0.391317
-0.397071
-0.400269
-0.40125
-0.400465
-0.398443
-0.395759
-0.392987
-0.39065
-0.389096
-0.389019
-0.213994
-0.238953
-0.261558
-0.282212
-0.300712
-0.316923
-0.330714
-0.342002
-0.350786
-0.357159
-0.361311
-0.363532
-0.364189
-0.363707
-0.362542
-0.361144
-0.35992
-0.359132
-0.359346
-0.180919
-0.204928
-0.226808
-0.246761
-0.264632
-0.280343
-0.293824
-0.305047
-0.314043
-0.320911
-0.325826
-0.329029
-0.330822
-0.331548
-0.331568
-0.331236
-0.330873
-0.330672
-0.3311
-0.152698
-0.175271
-0.196061
-0.215094
-0.232219
-0.247368
-0.260496
-0.271597
-0.280713
-0.28794
-0.29343
-0.297387
-0.300055
-0.301712
-0.302644
-0.303132
-0.303425
-0.303671
-0.304253
-0.128677
-0.149563
-0.16903
-0.186977
-0.203241
-0.217744
-0.230443
-0.241336
-0.250463
-0.257908
-0.263799
-0.268305
-0.271625
-0.273981
-0.2756
-0.276705
-0.277493
-0.27807
-0.278757
-0.108209
-0.127325
-0.145347
-0.162099
-0.17741
-0.191184
-0.20337
-0.213961
-0.222985
-0.230511
-0.236645
-0.241521
-0.2453
-0.24816
-0.25028
-0.251838
-0.252985
-0.253804
-0.254557
-0.0907245
-0.108084
-0.124618
-0.140121
-0.154414
-0.167389
-0.178985
-0.189181
-0.197995
-0.205477
-0.211709
-0.216799
-0.220873
-0.224073
-0.22654
-0.228412
-0.229812
-0.230798
-0.231586
-0.0757441
-0.09141
-0.106468
-0.120705
-0.133943
-0.146067
-0.157005
-0.166725
-0.175231
-0.182555
-0.18876
-0.193927
-0.198157
-0.201558
-0.204243
-0.206319
-0.207881
-0.208972
-0.209771
-0.0628742
-0.0769299
-0.0905512
-0.103532
-0.1157
-0.126936
-0.137162
-0.146335
-0.154447
-0.161516
-0.167584
-0.172713
-0.176979
-0.180465
-0.183259
-0.185444
-0.187096
-0.188245
-0.189032
-0.0517901
-0.0643268
-0.076566
-0.0883153
-0.0994119
-0.109737
-0.119208
-0.127777
-0.135422
-0.14215
-0.147988
-0.152978
-0.157178
-0.160652
-0.163466
-0.165684
-0.167363
-0.168527
-0.169289
-0.0422294
-0.053334
-0.06425
-0.0748003
-0.0848332
-0.0942336
-0.102918
-0.110833
-0.11795
-0.124265
-0.129792
-0.134559
-0.138609
-0.141987
-0.144745
-0.14693
-0.148588
-0.149733
-0.150455
-0.0339758
-0.0437298
-0.0533801
-0.0627658
-0.0717473
-0.0802153
-0.0880878
-0.0953088
-0.101845
-0.107685
-0.112832
-0.117305
-0.121131
-0.124344
-0.126982
-0.129081
-0.130674
-0.131772
-0.132445
-0.0268554
-0.0353305
-0.0437677
-0.0520214
-0.0599646
-0.0674954
-0.0745354
-0.0810287
-0.08694
-0.0922514
-0.0969603
-0.101076
-0.104616
-0.107605
-0.11007
-0.112036
-0.113531
-0.114559
-0.115173
-0.020728
-0.0279859
-0.0352553
-0.0424051
-0.0493211
-0.0559101
-0.0620992
-0.0678349
-0.0730813
-0.0778179
-0.0820372
-0.0857422
-0.0889438
-0.091658
-0.0939034
-0.0956998
-0.0970637
-0.0980026
-0.0985521
-0.0154836
-0.0215743
-0.0277121
-0.0337794
-0.039675
-0.0453158
-0.0506357
-0.0555856
-0.0601312
-0.0642512
-0.0679357
-0.0711834
-0.0739999
-0.0763953
-0.0783825
-0.0799741
-0.0811848
-0.0820169
-0.0824944
-0.0110369
-0.0159992
-0.0210314
-0.0260291
-0.0309049
-0.0355868
-0.0400175
-0.0441537
-0.0479643
-0.0514293
-0.0545378
-0.0572862
-0.0596767
-0.0617151
-0.0634094
-0.0647692
-0.0658022
-0.0665131
-0.0669156
-0.00732574
-0.011186
-0.0151267
-0.0190576
-0.0229061
-0.0266131
-0.0301312
-0.0334243
-0.0364663
-0.0392396
-0.0417341
-0.0439452
-0.0458728
-0.0475199
-0.0488916
-0.0499927
-0.0508307
-0.0514077
-0.0517293
-0.0043119
-0.00708
-0.00992882
-0.0127833
-0.0155877
-0.0182966
-0.0208741
-0.0232926
-0.0255317
-0.0275777
-0.0294221
-0.0310605
-0.0324917
-0.033717
-0.0347386
-0.0355601
-0.0361846
-0.0366152
-0.0368535
-0.00198572
-0.00364873
-0.00538693
-0.00714093
-0.00887283
-0.0105523
-0.0121555
-0.0136643
-0.0150645
-0.016347
-0.0175061
-0.0185382
-0.019442
-0.0202172
-0.0208648
-0.0213857
-0.0217817
-0.0220559
-0.022205
-0.000135959
-0.000732651
-0.00137762
-0.00202833
-0.0026704
-0.00329362
-0.00389025
-0.00445464
-0.00498287
-0.00547084
-0.00591515
-0.00631334
-0.00666381
-0.00696563
-0.00721829
-0.00742152
-0.00757494
-0.00767899
-0.00773024
)
;

boundaryField
{
    leftWall
    {
        type            fixedFluxPressure;
        gradient        uniform 0;
        value           nonuniform List<scalar> 
50
(
11039.3
11036
11033.2
11030
11027.2
11025.3
11022.3
11010.4
10990.6
9696.36
3106.95
2157.87
2152.96
2146.4
2137.54
2127.37
2116.69
2106.1
2095.81
2087
1737.47
220.116
0.175176
0.182264
0.186094
0.187043
0.185393
0.18163
0.176154
0.169381
0.161668
0.153277
0.144407
0.135193
0.125733
0.116089
0.106307
0.0964142
0.0864298
0.0763645
0.0662229
0.0560038
0.0457026
0.0353184
0.0248412
0.0142446
0.00350151
-0.00735964
-0.0183387
-0.0296198
)
;
    }
    rightWall
    {
        type            fixedFluxPressure;
        gradient        uniform 0;
        value           nonuniform List<scalar> 
50
(
1914.97
1506.84
487.1
37.5084
7.19651
4.07097
3.80447
2.5127
0.431101
-0.407735
-0.538758
-0.604975
-0.676315
-0.735198
-0.778252
-0.805369
-0.816294
-0.812316
-0.796309
-0.771525
-0.740836
-0.706441
-0.669964
-0.632551
-0.595025
-0.557942
-0.521698
-0.486544
-0.452655
-0.420127
-0.389019
-0.359346
-0.3311
-0.304253
-0.278757
-0.254557
-0.231586
-0.209771
-0.189032
-0.169289
-0.150455
-0.132445
-0.115173
-0.0985521
-0.0824944
-0.0669156
-0.0517293
-0.0368535
-0.022205
-0.00773024
)
;
    }
    lowerWall
    {
        type            fixedFluxPressure;
        gradient        uniform 0;
        value           nonuniform List<scalar> 
62
(
11039.3
11018.8
10959.1
10865
10736.9
10574.5
10377.5
10145.6
9878.56
9576.06
9238.27
8866.06
8461.53
8033.11
7604.36
7222.85
6971.12
6966.14
7350.31
8379.92
10373.9
13142.8
17180
17180
17126.6
16539.9
15512
14103.7
12247.4
10380.8
8877.11
1800.89
757.428
-385.058
-426.239
-431.246
-433.097
-434.735
-435.875
-436.522
-436.783
-436.72
-436.459
-431.246
-426.674
-411.277
-382.451
-171.487
428.981
720.494
802.695
832.102
788.845
720.615
641.51
553.513
462.079
382.719
343.902
404.09
706.693
1914.97
)
;
    }
    atmosphere
    {
        type            totalPressure;
        rho             rho;
        psi             none;
        gamma           1;
        p0              uniform 0;
        value           nonuniform List<scalar> 
46
(
-0.0354955
-0.0360082
-0.0354959
-0.0347007
-0.0336145
-0.0322622
-0.0306638
-0.0288418
-0.0268217
-0.0246321
-0.0223058
-0.0198794
-0.0173936
-0.0148928
-0.0124249
-0.0100403
-0.00779094
-0.00572915
-0.00390638
-0.00237224
-0.00117478
-0.000364064
-9.36733e-06
0
0
0
0
0
0
0
0
0
0
0
0
0
0
0
0
0
0
0
0
0
0
0
)
;
    }
    defaultFaces
    {
        type            empty;
    }
}


// ************************************************************************* //
