/*--------------------------------*- C++ -*----------------------------------*\
| =========                 |                                                 |
| \\      /  F ield         | OpenFOAM: The Open Source CFD Toolbox           |
|  \\    /   O peration     | Version:  2312                                  |
|   \\  /    A nd           | Website:  www.openfoam.com                      |
|    \\/     M anipulation  |                                                 |
\*---------------------------------------------------------------------------*/
FoamFile
{
    version     2.0;
    format      ascii;
    arch        "LSB;label=32;scalar=64";
    class       volScalarField;
    location    "5.3";
    object      alpha.galistan;
}
// * * * * * * * * * * * * * * * * * * * * * * * * * * * * * * * * * * * * * //

dimensions      [0 0 0 0 0 0 0];

internalField   nonuniform List<scalar> 
2268
(
1
1
1
1
1
1
1
1
1
1
1
1
1
1
1
1
1
1
1
0.999979
0.999959
0.999958
0.999958
1
1
1
1
1
1
1
1
1
1
1
1
1
1
1
1
1
1
1
0.999998
0.999988
0.999982
0.999991
1
1
1
1
1
1
1
1
1
1
1
1
1
1
1
1
1
1
1
1
1
1
1
1
1
1
1
1
1
1
1
1
1
1
1
1
0.999996
0.999974
0.999989
1
1
1
1
1
0.999986
0.999816
1
1
1
1
1
1
1
0.999998
0.999974
0.999935
0.999862
0.99972
0.999758
0.999903
0.999436
0.987906
0.973109
0.960787
0.953054
0.94563
0.934798
0.92298
0.916945
0.999962
0.999929
0.999864
0.999747
0.99981
0.999924
0.999956
0.999664
0.970947
0.907054
0.828011
0.744453
0.657239
0.567343
0.492229
0.44033
0.402425
0.367831
0.332703
0.295999
0.266406
0.244572
0.230133
0.994962
0.991472
0.984477
0.952654
0.869186
0.748231
0.612043
0.459459
0.314966
0.202433
0.11603
0.0524863
0.0155239
0.0064201
0.00186694
0.000386635
3.32775e-06
-2.34383e-09
-3.70774e-09
-3.15935e-25
1.1549e-25
-4.82051e-15
6.67895e-42
0.610953
0.550765
0.431094
0.291129
0.171768
0.0850636
0.0286202
0.00127371
1.17557e-05
1.12331e-05
1.08002e-05
8.69815e-06
1.15753e-05
1.64949e-05
1.6124e-05
2.36161e-05
2.87021e-05
2.55976e-05
1.22124e-05
3.96136e-06
5.06019e-07
6.71276e-24
3.21439e-24
0.961618
0.962738
0.962739
0.962739
0.962739
0.962079
0.961614
0.962548
0.962622
0.962627
0.962632
0.962636
0.963056
0.965315
0.96677
0.966857
0.966779
0.966933
0.967093
0.950492
0.934499
0.923843
0.921664
0.922906
0.922058
0.919467
0.917917
0.916338
0.928879
0.944451
0.949648
0.957942
0.959331
0.970563
0.970547
0.969656
0.968806
0.968843
0.549334
0.529943
0.48106
0.437287
0.401128
0.379144
0.36966
0.375868
0.403882
0.439321
0.500203
0.601613
0.68837
0.700911
0.783614
0.815012
0.817382
0.79102
0.769938
0.00637084
3.96911e-08
5.13817e-08
2.86605e-22
1.30913e-23
4.89972e-35
4.62371e-06
4.35581e-05
0.000258025
0.002913
0.00747255
0.0274061
0.138931
0.339049
0.459985
0.489831
0.483809
0.451562
0.416179
2.62793e-05
0.000262765
0.00117586
0.000319608
3.66151e-05
-4.64964e-23
0.00127149
0.00450714
0.00540688
0.00840212
0.0142059
0.0123623
0.0121328
0.0375084
0.0785958
0.141567
0.114036
0.068791
0.052842
2.62741e-05
0.00317749
0.00810143
0.00412687
0.00114979
0.000168498
0.000158962
0.00282106
0.00455181
0.0030503
0.0170463
0.0205359
0.0208123
0.0119896
0.000488722
0.000444313
0.000444915
0.000444313
0.00170199
2.62791e-05
0.00464223
0.00779347
0.00841032
0.0063511
0.000923496
0.000239204
0.00136445
0.00101911
0.000760036
0.00304862
0.0108631
0.0118656
0.00509221
0.000790435
0.000445961
0.00213025
0.00427009
0.00283614
9.88385e-05
0.000103896
0.00241127
0.00835783
0.00641206
0.00358268
0.000321996
0.000286396
0.000240038
0.000663971
0.00173022
0.00386933
0.00254874
0.00102723
0.000586658
0.000445598
0.0031977
0.00435777
0.002467
0.00518252
1.58919e-10
6.05807e-24
-6.55051e-09
2.17722e-10
-4.35828e-09
-7.85352e-07
2.9012e-06
3.48823e-05
4.24595e-05
2.62257e-05
8.69371e-06
8.52864e-06
9.06454e-06
6.53145e-05
0.000105186
0.000115867
5.15659e-05
1.90615e-05
1.11333e-05
1.10029e-05
4.962e-05
0.000110051
0.000336345
0.000114095
6.21179e-05
0.00013838
0.000385402
0.00129108
0.00138
0.000769038
0.000180752
4.61565e-05
5.73526e-05
0.000208891
0.000269247
0.000162766
0.000333673
0.00148132
0.00300906
0.00283168
0.00287122
0.00298286
0.00308659
0.0037155
0.00431781
0.000469212
0.000348839
8.16311e-05
7.73649e-05
0.00117403
0.00239441
0.00239505
0.00239496
0.00239446
0.00137121
0.000321356
0.000968354
0.00113148
0.000546084
0.000389152
0.00216474
0.00434421
0.00469301
0.00507562
0.00564844
0.00577907
0.00578101
0.00578311
0.000338224
0.000339454
0.000274799
0.000159168
0.000158247
0.000159529
0.000293876
0.00159673
0.00239194
0.00207087
0.000884943
0.00113514
0.0011331
0.00106998
0.0001971
9.08334e-05
0.000580043
0.000615381
0.00031723
0.000806326
0.00208192
0.00304697
0.00435192
7.64623e-05
9.13994e-05
9.46052e-05
5.1931e-05
2.51078e-05
2.51078e-05
2.51094e-05
2.58159e-05
0.000119311
0.000346117
0.000656652
0.000872708
0.000703377
0.000274244
0.000136845
8.99653e-05
5.35497e-05
6.23417e-05
9.06648e-05
5.02402e-05
0.000151912
0.000575438
0.000129163
0.000148878
0.000100758
6.86853e-05
4.5307e-05
2.51092e-05
2.51078e-05
2.51078e-05
2.51078e-05
2.5109e-05
0.000160843
0.000370886
0.000218119
7.04122e-05
5.81607e-05
3.04106e-05
1.704e-05
6.17721e-06
1.74648e-05
1.01608e-05
5.05526e-05
0.000560658
0.000567
0.000226767
0.000400981
0.000400365
0.000389851
0.000267056
5.2514e-05
2.51079e-05
4.36907e-05
0.000257736
0.000460064
0.000457312
0.000288397
0.00011901
8.0964e-05
6.8447e-05
6.25804e-05
2.67014e-05
5.82724e-06
5.82181e-06
5.8262e-06
6.88511e-05
0.000881532
0.00107628
0.00102693
0.000264069
0.000251806
0.00025033
0.000240896
9.23497e-05
2.5108e-05
4.08931e-05
0.000347915
0.000710999
0.000711137
0.000708202
0.000701746
0.000694138
0.000649542
0.000484068
9.91486e-05
5.91935e-06
0.000113326
0.000158766
8.3552e-05
7.23571e-05
0.000815511
0.00241859
3.20067e-09
3.20716e-09
3.20068e-09
3.20756e-09
1.41197e-05
2.93609e-05
1.60241e-05
2.65646e-08
3.09398e-05
0.000119228
0.000241016
0.000428406
0.00060733
0.000698039
0.000609516
7.91465e-05
0.000134965
0.000442345
0.000442347
0.000217183
4.97453e-05
4.96974e-05
0.00169271
3.20716e-09
1.85532e-08
3.94658e-08
2.21314e-08
1.68204e-08
1.69418e-08
1.52117e-08
1.19018e-08
2.42772e-08
2.43565e-08
6.00181e-08
5.07345e-06
5.84848e-05
0.000281511
0.000256346
9.89617e-05
0.00022991
0.000442347
0.00024784
4.70846e-05
6.11513e-05
7.42195e-05
1.60759e-06
5.09068e-09
5.70646e-08
1.33645e-07
1.26529e-07
7.03303e-08
4.66677e-08
3.1505e-08
3.66661e-08
7.8394e-08
1.15338e-07
9.84193e-08
1.5547e-07
1.25238e-06
1.03677e-06
3.11441e-08
1.95053e-05
4.2785e-05
1.98483e-05
1.43767e-05
2.5358e-05
4.83819e-05
7.10321e-05
3.55553e-05
7.82403e-09
6.59458e-08
1.48978e-07
1.48831e-07
1.17262e-07
5.28669e-08
3.76972e-08
7.82503e-08
1.26498e-07
1.15152e-07
7.74299e-08
4.09646e-08
3.36318e-09
3.39524e-08
2.93514e-08
2.94315e-08
2.24938e-06
3.8422e-06
2.11289e-06
5.17974e-09
2.28317e-09
2.25858e-09
2.28207e-09
4.11567e-09
3.75498e-08
7.62076e-08
4.45004e-08
3.20825e-09
1.33725e-09
1.32645e-09
1.1651e-08
2.60501e-08
1.4528e-09
2.88204e-09
3.29671e-09
3.32158e-09
1.15769e-07
1.16357e-07
1.54118e-07
1.20646e-07
1.16703e-07
1.16648e-07
1.52175e-07
9.56517e-08
6.90824e-09
2.25839e-09
2.55611e-09
1.27706e-08
1.31282e-08
5.01206e-09
3.33234e-09
3.10211e-09
1.46527e-09
1.12967e-09
1.12402e-09
1.79731e-09
3.46144e-09
4.7041e-09
1.7545e-08
1.42276e-07
1.55293e-07
9.70829e-08
1.02921e-07
2.35799e-07
3.58368e-07
9.31717e-07
7.38895e-07
1.07987e-07
9.29263e-08
1.77239e-09
4.62176e-09
4.62359e-09
4.47766e-09
5.20681e-09
4.74665e-09
2.37401e-09
1.93263e-09
2.17162e-09
3.24952e-09
3.64925e-09
3.47225e-09
2.44071e-09
2.15466e-09
3.2961e-08
3.35113e-08
2.58584e-07
6.7288e-07
1.67823e-06
1.82633e-06
1.90486e-06
1.12967e-06
2.5185e-06
1.26448e-09
2.10276e-09
2.84437e-09
3.89757e-09
4.4245e-09
4.07808e-09
2.50561e-09
1.99184e-09
1.97032e-09
2.27532e-09
2.43824e-09
2.24489e-09
2.06055e-09
2.06155e-09
3.66869e-09
3.49778e-08
4.79262e-07
1.72515e-06
1.72718e-06
1.70343e-06
2.42372e-06
4.97359e-06
5.35363e-06
1.01863e-09
1.53189e-09
2.14082e-09
2.56579e-09
2.69866e-09
2.5707e-09
2.11888e-09
1.62281e-09
1.47333e-09
1.46249e-09
1.48753e-09
1.55975e-09
1.85868e-09
2.06506e-09
3.22787e-09
1.92791e-08
9.5352e-08
4.03644e-07
5.98852e-07
3.22575e-07
3.17015e-06
5.35363e-06
5.35427e-06
7.80267e-10
1.11494e-09
1.48806e-09
1.67278e-09
1.65774e-09
1.49114e-09
1.32459e-09
1.15008e-09
1.03155e-09
1.00508e-09
1.04172e-09
1.17869e-09
1.43352e-09
1.84695e-09
2.29233e-09
2.57983e-09
1.38232e-09
1.74806e-09
1.80223e-09
1.92629e-09
2.08127e-06
5.13386e-06
2.4861e-06
6.91497e-10
8.14146e-10
1.01278e-09
1.08411e-09
1.03074e-09
8.90482e-10
7.71053e-10
7.11759e-10
6.57453e-10
6.09209e-10
6.01499e-10
6.64387e-10
8.08323e-10
1.02052e-09
1.21074e-09
1.28053e-09
1.63313e-09
3.30046e-09
8.8237e-09
4.5897e-08
3.95432e-07
2.57808e-07
2.76641e-07
6.3507e-10
5.85145e-10
6.85686e-10
6.99616e-10
6.47361e-10
5.61829e-10
4.78572e-10
4.20147e-10
3.72408e-10
3.3618e-10
3.09061e-10
3.1391e-10
3.70221e-10
5.08537e-10
7.0615e-10
1.05098e-09
2.05914e-09
6.69924e-09
2.56637e-08
8.75578e-08
1.5648e-07
1.38949e-07
4.70915e-08
5.69266e-10
4.21642e-10
4.47409e-10
4.26032e-10
3.84538e-10
3.23222e-10
2.6512e-10
2.20912e-10
1.87229e-10
1.64401e-10
1.44719e-10
1.39084e-10
1.64077e-10
2.23714e-10
3.35258e-10
5.31832e-10
1.02307e-09
3.47005e-09
2.07105e-08
1.33681e-07
1.66843e-07
7.7822e-08
4.85656e-08
5.20345e-10
3.06186e-10
2.98543e-10
2.70318e-10
2.26868e-10
1.80629e-10
1.39792e-10
1.05695e-10
8.1511e-11
6.45664e-11
5.41444e-11
5.50506e-11
6.73039e-11
9.40824e-11
1.4584e-10
2.38069e-10
4.06117e-10
8.58349e-10
4.46355e-09
2.09809e-08
1.29347e-07
1.48908e-07
1.08785e-07
4.72171e-10
2.21747e-10
2.08096e-10
1.88551e-10
1.57933e-10
1.20552e-10
8.55146e-11
5.91735e-11
3.98174e-11
2.74249e-11
2.14274e-11
1.99866e-11
2.28662e-11
3.24044e-11
5.48347e-11
1.04288e-10
2.11727e-10
3.91061e-10
5.16903e-10
7.81216e-10
1.80837e-08
1.29808e-07
1.30044e-07
4.42619e-10
1.74652e-10
1.68383e-10
1.64516e-10
1.473e-10
1.15365e-10
7.9918e-11
5.0155e-11
2.95189e-11
1.71522e-11
1.05952e-11
7.3247e-12
7.0782e-12
9.78844e-12
1.74321e-11
3.66397e-11
8.80793e-11
2.05061e-10
4.36329e-10
6.25357e-10
9.60151e-10
2.46282e-08
5.36903e-08
4.12168e-10
1.39882e-10
1.55647e-10
1.77802e-10
1.74556e-10
1.36057e-10
9.15064e-11
5.5619e-11
3.18099e-11
1.75845e-11
9.08717e-12
4.74434e-12
2.95914e-12
2.94808e-12
4.75296e-12
1.0012e-11
2.48539e-11
6.74003e-11
1.67416e-10
3.9031e-10
6.82161e-10
6.81736e-10
1.55373e-08
3.95427e-10
1.2792e-10
1.69594e-10
2.21247e-10
2.29708e-10
1.68048e-10
1.07229e-10
6.39442e-11
3.66114e-11
2.02452e-11
1.0364e-11
4.96197e-12
2.31241e-12
1.30686e-12
1.32452e-12
2.37899e-12
5.33108e-12
1.35489e-11
3.6964e-11
9.01356e-11
2.13494e-10
1.20204e-09
2.13369e-09
3.71265e-10
1.31848e-10
2.07126e-10
2.87095e-10
3.04492e-10
2.15219e-10
1.18172e-10
6.91145e-11
4.01488e-11
2.24489e-11
1.17514e-11
5.71107e-12
2.54924e-12
1.09638e-12
5.85623e-13
6.08731e-13
1.16757e-12
2.67573e-12
6.46514e-12
1.74841e-11
5.40483e-11
1.25505e-10
6.06844e-10
3.58184e-10
1.43475e-10
2.71916e-10
4.09524e-10
4.87006e-10
2.91069e-10
1.29067e-10
6.74552e-11
4.10718e-11
2.28463e-11
1.22557e-11
6.17783e-12
2.86776e-12
1.20617e-12
4.78532e-13
2.59388e-13
2.90055e-13
5.19229e-13
1.09914e-12
2.31997e-12
5.82372e-12
3.41503e-11
6.8632e-11
3.57047e-10
1.76753e-10
3.85744e-10
6.85555e-10
7.13947e-10
3.61344e-10
1.34602e-10
6.22544e-11
3.87254e-11
2.13297e-11
1.15977e-11
6.08285e-12
2.97253e-12
1.31228e-12
5.23746e-13
1.96413e-13
1.14636e-13
1.42756e-13
2.35045e-13
4.64956e-13
1.12305e-12
2.035e-12
9.29416e-12
3.61315e-10
2.13989e-10
6.22601e-10
9.22561e-10
7.95856e-10
4.04193e-10
1.39335e-10
6.47055e-11
3.53813e-11
1.85178e-11
1.00251e-11
5.41586e-12
2.78666e-12
1.31245e-12
5.48705e-13
2.01287e-13
7.51573e-14
5.38913e-14
8.27525e-14
1.41641e-13
2.46825e-13
6.6071e-13
1.02301e-12
3.77825e-10
2.9083e-10
8.25831e-10
1.05157e-09
8.76393e-10
3.89117e-10
1.42235e-10
7.41212e-11
3.23743e-11
1.53129e-11
7.98593e-12
4.37547e-12
2.35161e-12
1.18479e-12
5.33435e-13
2.05464e-13
7.02852e-14
2.91987e-14
3.31032e-14
5.97428e-14
1.30185e-13
2.13118e-13
4.79357e-13
3.91784e-10
3.64632e-10
9.89092e-10
1.13564e-09
9.18191e-10
3.714e-10
1.67469e-10
8.2863e-11
2.97727e-11
1.21838e-11
5.95485e-12
3.25188e-12
1.79308e-12
9.51158e-13
4.66166e-13
1.97083e-13
7.05014e-14
2.18041e-14
1.66768e-14
2.96796e-14
5.80957e-14
1.64325e-13
2.62456e-13
4.1692e-10
4.60099e-10
1.10137e-09
1.17774e-09
9.08848e-10
4.0263e-10
2.13012e-10
8.6582e-11
2.83092e-11
9.53647e-12
4.21493e-12
2.24455e-12
1.24481e-12
6.83486e-13
3.58358e-13
1.68254e-13
6.55448e-14
2.11763e-14
9.17422e-15
1.44632e-14
3.64865e-14
6.98354e-14
1.99837e-13
4.38959e-10
5.32924e-10
1.16225e-09
1.17749e-09
8.4402e-10
4.43135e-10
2.54121e-10
9.59313e-11
2.84279e-11
7.66341e-12
2.91091e-12
1.47821e-12
8.04976e-13
4.38941e-13
2.40184e-13
1.2531e-13
5.55301e-14
1.94519e-14
6.0769e-15
7.00987e-15
1.52156e-14
5.83641e-14
1.02673e-13
4.71467e-10
5.81171e-10
1.19393e-09
1.16815e-09
7.49958e-10
4.82075e-10
2.93271e-10
1.09296e-10
2.92705e-11
6.26503e-12
1.93533e-12
9.26905e-13
4.8369e-13
2.5442e-13
1.40199e-13
7.91844e-14
4.05256e-14
1.6563e-14
4.45675e-15
3.2768e-15
7.34722e-15
1.65887e-14
6.02773e-14
4.9084e-10
6.11599e-10
1.16718e-09
1.1201e-09
7.21352e-10
5.1031e-10
3.08901e-10
1.16226e-10
2.99451e-11
5.08854e-12
1.23856e-12
5.46285e-13
2.73408e-13
1.3463e-13
7.08658e-14
4.1774e-14
2.45514e-14
1.20756e-14
3.66007e-15
1.70113e-15
3.45639e-15
9.95854e-15
2.28156e-14
5.31021e-10
5.92366e-10
1.10769e-09
1.05682e-09
6.80812e-10
5.3069e-10
2.96852e-10
1.07038e-10
2.58346e-11
4.23466e-12
7.4971e-13
2.99387e-13
1.45572e-13
6.6488e-14
3.153e-14
1.79143e-14
1.16275e-14
6.95911e-15
2.78243e-15
7.67691e-16
8.89931e-16
2.09697e-15
9.25205e-15
5.59588e-10
5.46521e-10
1.06894e-09
9.92904e-10
6.36932e-10
5.34362e-10
2.61525e-10
8.43193e-11
2.06052e-11
3.15271e-12
4.11277e-13
1.46435e-13
7.13319e-14
3.08443e-14
1.27385e-14
6.27704e-15
4.11548e-15
2.99376e-15
1.6096e-15
4.43568e-16
3.12993e-16
8.23972e-16
2.05822e-15
6.25915e-10
4.77143e-10
9.94072e-10
7.84919e-10
6.31705e-10
4.75249e-10
1.9887e-10
6.05697e-11
1.36933e-11
1.82205e-12
1.86341e-13
5.97308e-14
3.04553e-14
1.29494e-14
4.72319e-15
1.83594e-15
1.07312e-15
8.88227e-16
6.51218e-16
2.51574e-16
8.796e-17
1.0811e-16
4.8522e-16
7.05767e-10
4.03993e-10
8.26812e-10
5.90479e-10
6.04269e-10
3.30005e-10
1.20906e-10
3.44884e-11
6.23262e-12
7.11774e-13
6.00335e-14
1.86934e-14
1.02293e-14
4.49744e-15
1.54221e-15
4.74894e-16
1.99203e-16
1.63244e-16
1.83203e-16
1.18861e-16
3.31528e-17
3.36793e-17
8.23938e-17
8.20797e-10
3.97593e-10
5.73141e-10
5.57342e-10
4.08619e-10
1.59811e-10
5.71706e-11
1.33833e-11
1.68434e-12
1.49566e-13
1.0706e-14
3.75196e-15
2.33998e-15
1.10724e-15
3.80201e-16
9.91696e-17
2.71875e-17
1.97232e-17
3.1285e-17
4.18517e-17
1.40499e-17
6.34223e-18
1.48126e-17
1.02175e-09
4.36822e-10
4.93892e-10
3.90108e-10
1.06505e-10
3.5717e-11
1.19175e-11
2.18792e-12
1.75783e-13
8.04895e-15
6.3583e-16
3.65107e-16
2.69497e-16
1.41876e-16
5.16055e-17
1.2236e-17
2.33415e-18
1.44258e-18
3.90619e-18
9.51521e-18
6.2604e-18
2.11428e-18
2.46553e-18
0.000113305
4.44066e-05
4.35716e-05
0.000241707
0.0039587
0.00227979
0.00192684
0.00380582
0.00578479
0.00578705
0.00578483
0.00508186
0.00556605
0.00578843
0.00226773
0.000218627
0.00012887
0.000128888
0.000129187
0.000218459
0.000302991
0.000247142
0.000191527
0.000307948
0.00100521
0.000719627
0.000564363
0.00036869
0.00241703
0.0024186
0.00173384
0.00113606
0.00168885
0.00130826
0.000960884
0.000932899
-1.69805e-09
9.02447e-15
1.52267e-13
5.37388e-13
1.69475e-06
2.75807e-08
2.31328e-07
2.48598e-07
1.29074e-06
2.07941e-06
1.54157e-06
9.03651e-07
2.28264e-09
1.02622e-08
1.2383e-08
1.28325e-08
1.06806e-07
1.32857e-07
9.31197e-08
3.40451e-08
1.18571e-06
3.11888e-07
1.02482e-07
3.7452e-08
2.16579e-06
1.25253e-07
4.28165e-08
4.29061e-08
2.90185e-06
1.49836e-07
2.11687e-07
6.24212e-08
3.59203e-06
5.15702e-06
1.56573e-06
1.40607e-07
1.49602e-06
5.15228e-06
5.15723e-06
5.15207e-06
4.70304e-08
1.04009e-07
1.16487e-06
1.52268e-06
2.4061e-08
2.29341e-08
2.28635e-08
2.36527e-08
3.3277e-08
2.30308e-08
2.2756e-08
2.26739e-08
7.84437e-08
2.30617e-08
3.08537e-08
2.5976e-08
8.01186e-08
7.02539e-08
1.54055e-08
1.07689e-08
2.36854e-08
2.71137e-08
2.06875e-08
6.07578e-09
7.10051e-09
7.82827e-09
3.97211e-09
3.13395e-09
7.99827e-10
9.4893e-10
1.09929e-09
5.51181e-10
1.68444e-10
1.91938e-10
1.46988e-10
1.01872e-10
1.55005e-11
1.89136e-11
2.09785e-11
1.40764e-11
2.10376e-12
2.6149e-12
2.80683e-12
3.10663e-12
6.87896e-13
8.83397e-13
1.17427e-12
1.26796e-12
4.74388e-13
6.05011e-13
7.29354e-13
9.68405e-13
2.97243e-13
3.86633e-13
5.61031e-13
6.37799e-13
2.10444e-13
2.85226e-13
3.74988e-13
5.77714e-13
9.82689e-14
1.36517e-13
2.29406e-13
2.98464e-13
5.07717e-14
7.49719e-14
1.09656e-13
1.98322e-13
1.67635e-14
2.56856e-14
5.33329e-14
7.52492e-14
5.15282e-15
7.80044e-15
1.22963e-14
2.6916e-14
8.86535e-16
1.41166e-15
3.06351e-15
5.04464e-15
1.62379e-16
2.38293e-16
3.63608e-16
8.32958e-16
2.28486e-17
2.68917e-17
4.77234e-17
7.29576e-17
3.19594e-18
3.15792e-18
4.00932e-18
4.82049e-18
0.000430067
0.000187614
0.000185817
0.00605542
0.00626065
0.00248637
0.000271167
0.000274212
0.000238576
0.00155469
0.00382371
0.00274157
0.000167809
1.23069e-06
0.000310918
0.000613855
0.00255171
0.0022868
0.00200956
0.00291485
0.000500523
0.00100268
0.00285595
0.00645594
0.00301871
0.00123962
0.000244265
0.000242398
0.0143061
0.0122387
0.00122358
1.71089e-07
1.7109e-07
2.96752e-05
0.00234234
0.00329876
0.00356942
0.00329997
0.00262035
0.00511755
0.010008
0.010008
0.010008
0.00641213
0.00134781
0.00205304
0.0140433
0.0236518
0.0236518
0.0213702
0.00333141
1.0489e-06
0.000437887
0.00532514
0.00672354
0.00672958
0.00673001
0.00232194
0.0100048
0.010008
0.0100075
0.00939821
0.00553958
0.00565619
0.0119958
0.0222329
0.0232464
0.0236641
0.0236515
0.0120437
0.00158132
0.00211712
0.00575742
0.00672959
0.00672998
0.00659696
0.000589875
0.00538596
0.00731004
0.00467381
0.00131618
0.00137216
0.00252858
0.00441446
0.00537862
0.0112118
0.0216159
0.0186341
0.00779664
0.00147608
0.00147777
0.00175409
0.00246566
0.00161197
0.00144737
0.000293775
9.47377e-05
9.5118e-05
9.47507e-05
0.000130355
0.000330714
0.000533138
0.00054377
0.000588206
0.000765734
0.00155688
0.00117999
0.00081954
0.000671222
0.000671046
0.000936815
0.000843
0.000649324
0.002323
0.000216884
0.000132845
0.000105583
9.67215e-05
9.74309e-05
9.84036e-05
0.00010626
0.000435958
0.000853194
0.000770195
0.000409507
0.000346025
0.000345552
0.000674866
0.000918977
0.00084802
0.000747678
0.00140636
0.00702072
0.00121822
0.00121939
0.00107189
0.000793433
0.000527073
0.000246132
0.000113913
0.000115426
0.00159094
0.002981
0.00258247
0.000630021
0.000549297
0.00169244
0.00359995
0.0042093
0.00481839
0.0071082
0.0071082
0.00116313
0.00144784
0.00152424
0.00153821
0.00153993
0.00123071
0.000520428
0.000118524
0.000159552
0.00288645
0.00316781
0.00317629
0.00142897
0.00191393
0.00310215
0.00306313
0.00322971
0.00400235
0.00575829
4.89263e-13
4.55008e-13
3.38533e-05
0.000110484
0.000312234
0.000603488
0.000753351
0.0006746
0.000197109
0.000168734
0.00205571
0.00316694
0.00172297
0.000448169
0.000265201
0.000131815
0.000102652
7.30245e-05
0.000283216
7.79806e-08
5.48485e-09
-4.13289e-27
6.56872e-13
9.03645e-13
2.05729e-08
2.20551e-05
3.10968e-05
9.53128e-05
0.00012825
0.00027233
0.00065873
0.000411895
6.70458e-06
1.81181e-06
8.68027e-08
7.02091e-06
1.794e-05
1.18328e-06
2.19578e-07
6.57323e-08
-6.12962e-15
5.41386e-08
1.8002e-06
1.74543e-06
-1.20641e-09
-2.16207e-14
-2.19543e-20
6.57101e-13
-1.32654e-15
-1.91152e-10
6.33846e-06
5.33344e-06
8.65178e-08
8.7623e-08
1.1432e-06
2.91684e-06
6.10279e-07
2.27201e-08
7.51413e-08
-2.3094e-10
4.418e-07
3.42694e-06
3.42892e-06
2.14421e-06
2.76775e-06
2.41937e-06
9.11892e-07
5.73216e-08
5.98216e-08
8.0027e-07
3.26891e-07
1.05946e-07
4.5038e-07
2.88133e-06
2.04277e-06
3.35354e-07
1.17318e-07
1.19558e-07
8.27267e-08
8.31994e-08
8.8675e-07
6.88401e-07
1.04048e-06
2.04207e-06
2.50527e-06
1.9994e-06
3.86081e-07
1.91837e-08
6.49742e-08
1.5789e-08
9.51561e-08
7.21716e-07
3.25743e-06
3.25806e-06
6.86271e-07
1.23986e-07
9.39311e-08
2.80301e-08
7.02525e-08
2.62861e-07
4.04077e-07
1.87164e-07
4.16786e-07
1.00157e-06
1.26959e-06
1.61789e-07
1.50464e-08
1.46734e-08
1.46492e-08
9.99463e-08
9.62158e-07
2.10586e-06
3.22315e-06
2.00037e-06
1.07233e-07
6.20989e-08
2.60594e-08
1.47574e-07
2.8573e-07
2.77739e-07
1.43535e-07
1.42413e-07
1.40179e-07
1.40179e-07
2.05745e-07
2.45657e-08
1.43917e-07
1.58357e-07
1.2696e-07
1.40051e-06
5.50091e-07
1.8251e-06
1.325e-06
4.28422e-08
2.60688e-08
2.6116e-08
7.0746e-08
1.263e-07
3.9081e-07
9.41451e-07
1.02546e-06
8.30513e-07
8.66692e-07
1.10969e-06
1.14335e-06
8.62728e-07
4.22048e-07
2.15009e-07
1.42936e-06
2.96967e-07
1.44126e-07
6.42511e-07
3.38626e-07
1.25708e-07
8.12993e-07
9.76163e-07
1.89176e-07
2.88893e-07
1.50645e-06
1.50524e-06
1.50732e-06
1.50684e-06
1.50128e-06
1.3525e-06
1.4097e-06
1.41389e-06
1.22875e-06
1.1288e-06
1.74828e-07
1.43908e-07
1.58708e-07
2.62412e-06
1.93183e-07
1.95517e-06
1.78485e-06
1.40948e-07
2.16668e-07
6.38058e-07
1.1803e-06
1.50721e-06
1.38169e-06
7.40533e-07
1.24941e-06
1.41393e-06
1.41188e-06
1.2484e-06
7.53688e-07
3.51876e-08
3.25843e-07
1.09672e-06
1.27019e-06
3.4644e-06
3.4643e-06
3.33057e-06
7.60642e-08
6.94282e-08
6.979e-08
7.2994e-07
1.5053e-06
3.75377e-07
2.44658e-07
3.27119e-07
8.45362e-07
6.84271e-07
3.98126e-07
5.87598e-08
1.12163e-08
3.36176e-07
1.30668e-06
3.78142e-07
2.25017e-06
3.45965e-06
3.06945e-06
5.34172e-07
3.8058e-07
7.46797e-07
9.7222e-07
9.66789e-07
1.90708e-07
7.62677e-08
1.04084e-08
2.39143e-08
2.38817e-07
1.42689e-07
2.28606e-08
9.47605e-09
1.11723e-07
1.15731e-06
2.24375e-08
1.34893e-07
2.66321e-07
3.02784e-07
2.56538e-07
3.79622e-07
4.08088e-07
4.84869e-07
2.99694e-07
8.87472e-08
1.14075e-08
5.27126e-10
5.27694e-10
5.64316e-10
3.073e-08
3.61008e-08
1.04011e-08
1.27534e-08
9.56907e-08
6.55373e-09
5.04226e-10
5.06938e-10
5.04223e-10
8.92277e-10
1.01699e-08
5.59074e-09
4.68001e-10
4.49284e-10
7.53561e-10
5.47606e-10
5.27479e-10
6.45745e-10
2.15946e-09
1.15459e-09
2.38148e-08
7.6196e-09
6.04223e-09
3.41257e-08
7.23937e-09
4.30657e-09
1.38687e-09
1.53066e-09
1.39097e-09
5.64565e-10
4.71138e-10
4.6071e-10
4.49287e-10
4.49284e-10
5.63676e-10
7.01446e-10
8.1964e-10
1.17894e-09
1.12235e-09
1.99794e-09
1.99953e-09
5.37366e-09
4.09528e-08
6.18778e-09
1.85665e-09
1.26893e-09
1.44641e-09
1.20082e-09
7.52745e-10
5.51047e-10
4.75809e-10
4.51138e-10
4.96987e-10
6.18659e-10
8.16332e-10
1.01403e-09
1.28759e-09
1.44323e-09
1.53894e-09
1.55534e-09
5.07081e-09
5.52723e-08
1.66661e-09
6.91905e-10
6.91583e-10
6.8466e-10
5.29715e-10
3.81905e-10
2.98819e-10
2.73186e-10
2.9303e-10
3.61419e-10
4.9495e-10
7.25027e-10
1.01657e-09
1.40335e-09
2.28865e-09
2.28598e-09
1.68036e-09
6.42192e-09
5.52596e-08
3.60175e-10
2.40358e-10
2.12924e-10
1.92283e-10
1.61297e-10
1.34002e-10
1.22735e-10
1.34378e-10
1.71386e-10
2.4614e-10
3.81367e-10
6.04517e-10
9.24614e-10
1.34551e-09
2.38963e-09
2.38995e-09
1.82945e-09
1.49095e-08
4.0258e-08
6.9647e-11
5.63376e-11
5.02793e-11
4.72915e-11
4.61042e-11
4.78737e-11
5.76358e-11
8.03294e-11
1.23923e-10
2.04673e-10
3.52181e-10
5.89362e-10
9.22237e-10
1.3745e-09
2.29052e-09
2.22149e-09
2.47046e-09
1.6925e-08
1.18559e-08
1.24094e-11
1.21579e-11
1.29903e-11
1.46852e-11
1.81124e-11
2.47128e-11
3.66099e-11
5.81241e-11
1.02678e-10
1.96842e-10
3.79683e-10
6.82535e-10
1.10249e-09
1.70156e-09
2.23766e-09
1.76734e-09
2.45737e-09
1.44872e-08
1.13692e-08
3.17758e-12
3.95231e-12
5.38942e-12
7.33917e-12
1.0342e-11
1.48464e-11
2.22772e-11
3.8233e-11
7.64728e-11
1.74964e-10
3.94671e-10
8.29836e-10
1.49233e-09
2.2723e-09
1.92498e-09
1.47467e-09
1.49092e-09
4.92831e-09
1.13306e-08
1.64555e-12
2.50057e-12
3.71223e-12
5.51982e-12
8.36802e-12
1.28503e-11
2.05142e-11
3.40543e-11
6.3584e-11
1.4533e-10
3.82636e-10
8.67384e-10
1.79356e-09
2.41199e-09
1.47939e-09
1.47398e-09
1.47399e-09
1.45998e-08
1.01409e-08
1.15425e-12
2.16554e-12
3.29345e-12
5.29433e-12
8.63975e-12
1.41338e-11
2.28938e-11
3.64353e-11
6.28246e-11
1.39912e-10
3.60148e-10
9.85646e-10
1.88726e-09
2.55218e-09
1.68823e-09
1.93827e-09
3.36411e-08
5.24594e-08
9.42648e-09
1.10507e-12
1.77042e-12
3.03386e-12
5.31135e-12
9.24644e-12
1.60568e-11
2.68563e-11
4.34683e-11
6.97618e-11
1.2204e-10
2.70692e-10
1.20564e-09
2.2524e-09
3.12538e-09
1.37007e-08
4.08243e-08
6.54881e-08
5.45848e-08
9.04185e-09
7.51229e-13
1.43331e-12
2.64874e-12
5.04746e-12
9.54307e-12
1.75348e-11
3.06035e-11
4.96566e-11
7.56665e-11
1.14607e-10
2.61214e-10
1.44572e-09
3.35513e-09
5.43325e-09
1.68352e-08
5.7009e-08
6.54803e-08
4.21416e-08
6.69351e-09
5.45418e-13
1.01226e-12
2.09358e-12
4.35818e-12
8.94465e-12
1.76614e-11
3.25383e-11
5.47545e-11
8.28999e-11
1.15554e-10
1.67098e-10
6.90352e-10
3.23925e-09
7.52021e-09
1.11291e-08
3.88774e-08
6.54802e-08
1.42833e-08
4.85611e-09
2.76215e-13
6.20554e-13
1.42979e-12
3.31628e-12
7.5043e-12
1.61449e-11
3.21049e-11
5.74331e-11
9.21307e-11
1.31068e-10
1.85224e-10
8.92339e-10
4.95507e-09
1.02363e-08
1.99128e-08
1.63445e-08
1.73254e-08
4.13069e-09
4.038e-09
1.25049e-13
3.14633e-13
8.28665e-13
2.17175e-12
5.49098e-12
1.28931e-11
2.79005e-11
5.4783e-11
9.54814e-11
1.43504e-10
1.84687e-10
6.98462e-10
8.61705e-09
2.59503e-08
3.00424e-08
4.07516e-08
4.73441e-09
4.26117e-09
2.98154e-08
4.23759e-14
1.21107e-13
3.67271e-13
1.12056e-12
3.24251e-12
8.64012e-12
2.0851e-11
4.55059e-11
8.83333e-11
1.50365e-10
2.18776e-10
2.43783e-10
4.36561e-09
3.51111e-08
7.23415e-08
7.20354e-08
7.90091e-09
4.26678e-09
5.67924e-08
1.00868e-14
3.11188e-14
1.09552e-13
3.97587e-13
1.38959e-12
4.40736e-12
1.2415e-11
3.10882e-11
6.83285e-11
1.32531e-10
2.2292e-10
3.15968e-10
3.95081e-10
2.12684e-08
7.08784e-08
1.01506e-07
1.04632e-07
4.26954e-09
1.10619e-07
1.40104e-15
4.57947e-15
1.85856e-14
8.31034e-14
3.67114e-13
1.48905e-12
5.25921e-12
1.60462e-11
4.23125e-11
9.63377e-11
1.9081e-10
3.22867e-10
4.65367e-10
1.75629e-09
4.02374e-08
9.21154e-08
1.35927e-07
8.7761e-08
1.35994e-07
1.11742e-16
3.03669e-16
1.28451e-15
7.21874e-15
4.38916e-14
2.49707e-13
1.22743e-12
5.03964e-12
1.73028e-11
4.96645e-11
1.21389e-10
2.53595e-10
4.41045e-10
5.90679e-10
2.14765e-09
5.9128e-08
1.3593e-07
1.35346e-07
1.36038e-07
5.72933e-18
1.01684e-17
3.37582e-17
2.16201e-16
1.91536e-15
1.70664e-14
1.30525e-13
8.07056e-13
3.85306e-12
1.46569e-11
4.60333e-11
1.2038e-10
2.69789e-10
4.9062e-10
7.0327e-10
4.97107e-09
4.45702e-08
8.18204e-08
3.68862e-08
)
;

boundaryField
{
    leftWall
    {
        type            zeroGradient;
    }
    rightWall
    {
        type            zeroGradient;
    }
    lowerWall
    {
        type            zeroGradient;
    }
    atmosphere
    {
        type            inletOutlet;
        inletValue      uniform 0;
        value           nonuniform List<scalar> 
46
(
1.02175e-09
4.36822e-10
4.93892e-10
0
0
0
0
0
0
0
0
0
0
0
0
0
0
0
0
0
0
0
0
0
0
0
0
0
0
0
0
0
0
0
8.07056e-13
3.85306e-12
1.46569e-11
4.60333e-11
1.2038e-10
2.69789e-10
4.9062e-10
7.0327e-10
4.97107e-09
4.45702e-08
8.18204e-08
3.68862e-08
)
;
    }
    defaultFaces
    {
        type            empty;
    }
}


// ************************************************************************* //
