/*--------------------------------*- C++ -*----------------------------------*\
| =========                 |                                                 |
| \\      /  F ield         | OpenFOAM: The Open Source CFD Toolbox           |
|  \\    /   O peration     | Version:  2312                                  |
|   \\  /    A nd           | Website:  www.openfoam.com                      |
|    \\/     M anipulation  |                                                 |
\*---------------------------------------------------------------------------*/
FoamFile
{
    version     2.0;
    format      ascii;
    arch        "LSB;label=32;scalar=64";
    class       volScalarField;
    location    "5.3";
    object      alpha.air;
}
// * * * * * * * * * * * * * * * * * * * * * * * * * * * * * * * * * * * * * //

dimensions      [0 0 0 0 0 0 0];

internalField   nonuniform List<scalar> 
2268
(
9.95164e-10
9.59374e-10
9.0701e-10
8.63924e-10
6.7502e-10
3.65829e-10
2.0123e-10
1.34662e-10
1.2474e-10
1.336e-10
1.58537e-10
1.75219e-10
1.95816e-10
2.18421e-10
2.38646e-10
3.09359e-10
3.45829e-10
3.01518e-10
2.34211e-10
2.34213e-10
2.32263e-07
6.25558e-07
6.25573e-07
1.24422e-09
1.2098e-09
2.08503e-09
2.66412e-09
2.94679e-09
2.22274e-09
6.92014e-10
6.12651e-10
6.53091e-10
6.53997e-10
6.46239e-10
7.54487e-10
1.27284e-09
1.48751e-09
2.38673e-10
8.91936e-10
1.21354e-09
1.0627e-09
2.34211e-10
2.87698e-08
4.56357e-07
5.81005e-07
5.12351e-07
1.76773e-09
1.74092e-09
2.09219e-09
7.7149e-09
1.21525e-08
1.22945e-08
8.85806e-09
2.52377e-09
1.45743e-09
1.39382e-09
1.28928e-09
1.91335e-09
1.13761e-08
1.05553e-07
1.74403e-07
8.40641e-10
8.66573e-10
1.53412e-09
6.89638e-09
3.56182e-08
3.67255e-08
4.00857e-08
4.32432e-08
1.43306e-09
1.42834e-09
1.42834e-09
3.08694e-09
5.62205e-09
6.38706e-09
4.19604e-09
1.28717e-09
1.19566e-09
1.19593e-09
1.1973e-09
1.7078e-09
2.0113e-08
7.01717e-07
5.16025e-06
1.13728e-05
8.88276e-10
1.33513e-09
2.43006e-09
4.59981e-09
7.68717e-09
1.43801e-05
0.00018442
1.42834e-09
1.42836e-09
1.42834e-09
1.42836e-09
1.42834e-09
1.42836e-09
1.52761e-09
5.18251e-07
1.1119e-05
3.10293e-05
4.06627e-05
1.07561e-05
1.09215e-08
5.35025e-08
4.6919e-08
0.000205097
0.00143307
0.00253676
0.00303713
0.00338461
0.00408885
0.00540236
0.00701264
1.75332e-05
1.09437e-05
2.67154e-05
0.000169718
0.000174364
7.59489e-05
5.3659e-06
5.23719e-07
7.48934e-05
0.000148218
0.000148589
0.000130289
1.47709e-05
4.69557e-08
4.68576e-08
0.000169239
0.00437792
0.00887773
0.00993224
0.00993035
0.00996198
0.00997141
0.00997144
0.000561333
0.000732655
0.00115304
0.00132018
0.00132152
0.00130986
0.00100241
0.000214847
7.54187e-05
9.80772e-05
0.000148523
0.000148589
3.27678e-05
7.98057e-06
2.80803e-05
5.46319e-05
0.000588883
0.00183705
0.0022234
0.00196151
0.00231645
0.00513643
0.00997144
0.000561575
0.000965703
0.00128662
0.00132022
0.00131876
0.000940563
0.000570278
0.000357979
0.000166701
9.80898e-05
9.81069e-05
0.000104021
0.00013166
0.000157454
0.000153875
0.000124072
0.000131948
0.000160477
0.000164702
0.000186326
0.000187232
0.000155588
0.00442988
0.000257384
0.000666445
0.00514465
0.00618545
0.0060989
0.00610066
0.00559228
0.00336035
0.00264386
0.00226181
0.00206237
0.00206065
0.00202968
0.00196282
0.00193327
0.00192505
0.00262817
0.00330726
0.00330969
0.000247175
0.000248024
0.000429446
0.00170974
0.00251112
0.00264593
0.00485983
0.00931721
0.00964788
0.00719108
0.00288424
0.00196788
0.00196681
0.00196575
0.00201428
0.00190565
0.00302113
0.0041766
0.00331324
0.00616956
0.00689765
0.0120401
0.0170039
0.0192628
0.0208407
0.0171848
0.0165772
0.0174929
0.0169129
0.00840069
0.00420251
0.00337312
0.00218809
0.00180088
0.00181042
0.00317332
0.00486347
0.00331504
0.0147353
0.0127439
0.0165045
0.0202412
0.0251118
0.0276861
0.021013
0.0158264
0.0178372
0.0589924
0.063917
0.0372329
0.00502087
0.00720417
0.00857267
0.0073723
0.0152465
0.00922161
0.0144206
0.0147335
0.00283366
0.00337516
0.0039702
0.00413593
0.0239612
0.023148
0.0170539
0.0483902
0.024641
0.103079
0.106714
0.0639471
0.0215784
0.0121442
0.0632321
0.0633911
0.0475352
0.0434412
0.00789726
0.00282758
0.00624726
0.00218082
0.00218113
0.00478569
0.00595887
0.0196527
0.0255213
0.00751846
0.045838
0.106853
0.106713
0.0796909
0.0171011
0.0619546
0.0476707
0.0648836
0.0670203
0.00179888
0.00495191
0.0114516
0.00972422
0.00316732
0.00234322
0.00529645
0.0182543
0.0161449
0.00666745
0.0191155
0.050629
0.0928282
0.0540768
0.0171131
0.0551336
0.0242764
0.0335872
0.0669782
0.00179683
0.00186709
0.00993733
0.0165512
0.00599349
0.00224713
0.00222193
0.0116973
0.00979092
0.00406268
0.0147888
0.0259419
0.02402
0.0209608
0.0253793
0.0209117
0.0212791
0.0237377
0.0385684
0.00049403
0.000348074
0.000271259
0.000246606
0.000213991
0.000213862
0.000160843
0.000160913
0.000166981
0.000160271
0.000175482
0.000193407
0.000198972
0.000203879
0.000251943
0.000351508
0.000919036
0.00146704
0.00158056
0.00195159
0.00209557
0.00182258
0.000935836
0.0140229
0.00689663
0.00262364
0.00157912
0.000217859
0.00250527
0.0170425
0.0274172
0.0290267
0.0299477
0.0289904
0.0317803
0.0358206
0.0307391
0.0211288
0.0257833
0.0386013
0.0429235
0.0411975
0.0333314
0.0310299
0.0315133
0.0298643
0.0386229
0.0386038
0.038623
0.0335941
0.00716795
0.00105051
0.00104886
0.0197091
0.0736989
0.077019
0.0769719
0.0770591
0.0769758
0.0742967
0.0377157
0.0455752
0.0583069
0.0582852
0.0482092
0.0288389
0.0230978
0.0298465
0.0478007
0.0161227
0.0078816
0.00888781
0.0184622
0.0207964
0.0207845
0.00456811
0.00139995
0.00139329
0.0161098
0.0770758
0.0769816
0.077061
0.066776
0.00929728
0.00196155
0.0202379
0.0203847
-2.88557e-08
-1.21868e-14
-3.46995e-09
-5.98139e-08
0.0222287
0.000169344
0.00014217
0.000145573
0.0012844
0.00640717
0.00280718
0.000289517
0.000311039
0.0311301
0.0766076
0.0769684
0.0670505
0.0256723
0.00432524
7.63565e-05
5.55228e-05
7.44438e-05
0.000101451
5.71823e-05
6.85675e-06
4.43043e-06
5.84177e-05
0.00820341
0.000578528
0.000252326
0.000145636
0.000156334
0.000135263
0.000116035
0.000117474
0.000115961
0.00138927
0.00806382
0.0146647
0.00638188
0.000146969
0.000152501
8.65774e-05
4.20468e-05
9.86984e-06
3.19343e-06
9.04567e-06
8.77656e-06
1.06421e-06
1.14364e-06
-1.52626e-21
0.445495
0.425034
0.384977
0.329459
0.274209
0.221745
0.171324
0.12263
0.0700168
0.0200186
5.77327e-06
5.86197e-06
7.0968e-06
1.17824e-05
1.26497e-05
3.03276e-06
3.02989e-06
3.02737e-06
2.06667e-06
-5.78846e-10
5.45517e-21
3.71409e-21
-6.30009e-20
0.999573
0.999533
0.999611
0.995291
0.974383
0.947066
0.910451
0.86994
0.810881
0.712558
0.564471
0.398911
0.248376
0.130562
0.0601159
0.022955
0.0080575
3.03025e-06
0.000773895
0.00631714
0.0391011
0.127861
0.245831
1
1
1
0.999997
0.999974
0.99997
0.999984
0.999997
0.999691
0.999156
0.997398
0.973733
0.911679
0.813203
0.682621
0.564087
0.525936
0.541121
0.587647
0.628298
0.686969
0.793835
0.92346
1
1
1
1
1
1
1
1
1
0.999999
0.999999
0.99991
0.99976
0.999097
0.999315
0.998521
0.993637
0.993214
0.994211
0.994492
0.997095
0.998525
0.999986
1
1
1
1
1
1
0.999999
0.999999
0.999998
0.999995
0.999992
0.999991
0.999991
0.999991
0.999978
0.999757
0.999805
0.99998
0.999986
0.999974
0.999942
0.999914
0.999955
1
1
1
1
0.999999
0.999999
0.999999
0.999998
0.999995
0.999967
0.999959
0.999959
0.999957
0.999957
0.999958
0.999984
0.999986
0.999986
0.999985
0.999985
0.999965
0.999965
0.999974
1
1
1
1
1
1
0.999999
0.999998
0.999995
0.999972
0.999967
0.999982
0.999981
0.99996
0.999955
0.999955
0.999985
0.999966
0.999951
0.999951
0.999954
0.999971
0.999994
1
1
1
1
1
1
1
1
1
1
1
1
0.999998
0.999987
0.999972
0.999965
0.999974
0.999998
0.999998
0.999989
0.999978
0.999987
0.99999
1
1
1
1
1
1
1
1
1
1
1
1
1
1
0.999997
1
1
0.999999
0.999987
0.999941
0.999936
0.999953
0.999982
1
1
1
1
1
1
1
1
1
1
1
1
1
1
1
1
1
0.999997
0.999958
0.999937
0.999936
0.999944
0.999959
1
1
1
1
1
1
1
1
1
1
1
1
1
1
1
1
1
0.999999
0.99999
0.999957
0.999936
0.999947
0.999955
1
1
1
1
1
1
1
1
1
1
1
1
1
1
1
1
1
1
1
0.999998
0.999968
0.999952
0.999978
1
1
1
1
1
1
1
1
1
1
1
1
1
1
1
1
1
1
1
1
0.999999
0.999997
0.999999
1
1
1
1
1
1
1
1
1
1
1
1
1
1
1
1
1
1
1
1
1
1
1
1
1
1
1
1
1
1
1
1
1
1
1
1
1
1
1
1
1
1
1
1
1
1
1
1
1
1
1
1
1
1
1
1
1
1
1
1
1
1
1
1
1
1
1
1
1
1
1
1
1
1
1
1
1
1
1
1
1
1
1
1
1
1
1
1
1
1
1
1
1
1
1
1
1
1
1
1
1
1
1
1
1
1
1
1
1
1
1
1
1
1
1
1
1
1
1
1
1
1
1
1
1
1
1
1
1
1
1
1
1
1
1
1
1
1
1
1
1
1
1
1
1
1
1
1
1
1
1
1
1
1
1
1
1
1
1
1
1
1
1
1
1
1
1
1
1
1
1
1
1
1
1
1
1
1
1
1
1
1
1
1
1
1
1
1
1
1
1
1
1
1
1
1
1
1
1
1
1
1
1
1
1
1
1
1
1
1
1
1
1
1
1
1
1
1
1
1
1
1
1
1
1
1
1
1
1
1
1
1
1
0.999999
0.999999
1
1
1
1
1
1
1
1
1
1
1
1
1
1
1
1
1
1
1
1
1
0.999999
0.999999
1
1
1
1
1
1
1
1
1
1
1
1
1
1
1
1
1
1
1
1
0.999999
0.999999
1
1
1
1
1
1
1
1
1
1
1
1
1
1
1
1
1
1
1
1
1
0.999999
0.999999
1
1
1
1
1
1
1
1
1
1
1
1
1
1
1
1
1
1
1
1
1
0.999999
0.999999
1
1
1
1
1
1
1
1
1
1
1
1
1
1
1
1
1
1
1
1
1
0.999999
0.999999
1
1
1
1
1
1
1
1
1
1
1
1
1
1
1
1
1
1
1
1
1
0.999999
1
1
1
1
1
1
1
1
1
1
1
1
1
1
1
1
1
1
1
1
1
1
0.999999
0.999999
1
1
1
1
1
1
1
1
1
1
1
1
1
1
1
1
1
1
1
1
0.999999
0.999999
0.999999
1
1
1
1
1
1
1
1
1
1
1
1
1
1
1
1
1
1
1
1
0.999999
0.999999
0.999999
1
1
1
1
1
1
1
1
1
1
1
1
1
1
1
1
1
1
1
1
1
0.999999
0.999999
1
1
1
1
1
1
1
1
1
1
1
1
1
1
1
1
1
1
1
1
1
0.999999
1
1
1
1
1
1
1
1
1
1
1
1
1
1
1
1
1
1
1
1
1
1
0.999999
1
1
1
1
1
1
1
1
1
1
1
1
1
1
1
1
1
1
1
1
0.000645204
0.000309066
0.000310352
0.00101196
0.023321
0.0136531
0.0135686
0.0263343
0.0478046
0.0477987
0.0477937
0.0477874
0.0478092
0.0478046
0.0472865
0.014287
0.0240589
0.0134688
0.000568966
0.000465141
5.65362e-27
0.0001679
0.00032326
0.00021412
3.40862e-19
-4.0287e-07
-5.82301e-07
-5.26325e-07
0.277486
0.284622
0.269746
0.256379
0.953941
0.960829
0.958242
0.956353
1
1
1
1
0.999997
1
1
1
0.999994
0.999997
0.999998
0.999999
0.999999
0.999999
0.999999
0.999999
0.999991
0.999996
0.999999
0.999999
0.999994
0.999999
0.999999
0.999999
0.999993
0.999999
0.999999
0.999997
0.999992
0.999998
0.999999
0.999999
0.99999
0.999986
0.999987
0.999996
0.999988
0.999964
0.999944
0.999942
1
0.999999
0.999967
0.999919
1
1
1
0.999994
1
1
1
1
1
1
1
1
1
1
1
1
1
1
1
1
1
1
1
1
1
1
1
1
1
1
1
1
1
1
1
1
1
1
1
1
1
1
1
1
1
1
1
1
1
1
1
1
1
1
1
1
1
1
1
1
1
1
1
1
1
1
1
1
1
1
1
1
1
1
1
1
1
1
1
1
1
1
1
1
1
1
1
1
0.00344246
0.00197575
0.00469458
0.0186815
0.0112662
0.0034526
0.00222637
0.00297301
0.00181515
0.00327205
0.0147359
0.0210478
0.00577697
0.0151613
0.0457145
0.0203741
0.0198939
0.0263822
0.0298264
0.0262871
0.00748481
0.00690329
0.0473651
0.0531836
0.012123
0.00298998
0.00176854
0.00176655
0.0525258
0.051258
0.0056001
0.00171405
0.0402161
0.0486764
0.0232543
0.0234112
0.0505583
0.0521113
0.0243619
0.0164044
0.0518828
0.151406
0.151405
0.137636
0.0510894
0.00565085
0.0190613
0.0859052
0.0893134
0.00838685
0.00173672
0.0216527
0.0270098
0.00681941
0.0178012
0.0439167
0.0521113
0.00033017
0.0560041
0.15134
0.151404
0.151404
0.151402
0.115478
0.0297231
0.0141217
0.0827703
0.0972264
0.0694117
0.00223917
0.000102144
0.000115563
6.8226e-05
0.00241316
0.00350243
0.00422402
0.000330773
0.0537791
0.0609279
0.0557379
0.0411652
0.0430721
0.0418675
0.023263
0.0011278
0.00688334
0.0949292
0.0829602
0.00583496
7.12122e-05
6.85441e-05
6.80801e-05
6.51007e-05
0.000192967
5.20204e-05
0.000366279
0.00024508
0.000244905
0.000245057
0.00024462
0.000709858
0.00114879
0.0011901
0.00112987
0.0010911
0.0101663
0.0213058
0.0064954
0.000311871
0.000135309
0.000447783
0.000578826
0.000699699
4.87355e-05
7.97481e-05
0.000253468
0.00024508
0.000244905
0.000256824
0.000245296
0.000705487
0.00119756
0.0010909
0.00109751
0.00116593
0.00131953
0.00132553
0.000827507
0.000369106
0.000222983
0.000231349
0.000199742
0.0586672
0.241319
0.196646
0.152483
0.0905672
0.0393144
0.00742578
0.000379445
0.000425967
0.000381443
0.00603939
0.00294076
0.00474342
0.0288571
0.107586
0.240148
0.347051
0.450721
0.59542
0.67791
0.955451
0.928755
0.887441
0.818437
0.710625
0.560653
0.381778
0.235174
0.185603
0.220618
0.372481
0.50992
0.633252
0.809922
0.928667
0.968581
0.988509
0.995138
0.992634
1
0.999825
0.998487
0.999244
0.999688
0.998985
0.995348
0.96921
0.898236
0.841195
0.878849
0.973848
0.998179
0.999276
0.999362
0.999029
0.999861
0.999924
0.999702
1
1
1
1
1
1
0.999978
0.999969
0.999889
0.994981
0.994361
0.998695
0.999588
0.999993
0.999994
0.999976
0.999961
0.999936
0.999915
0.999999
1
1
0.999999
0.999998
0.999998
0.999996
0.999964
0.999737
0.999447
0.999405
0.999931
0.999993
0.999993
0.999918
0.999912
0.999945
0.999944
0.999908
0.999999
0.999999
0.999998
0.999997
0.999995
0.999989
0.999928
0.999744
0.999667
0.999669
0.999934
0.999998
0.999993
0.999922
0.999888
0.999926
0.999948
0.999953
0.999907
0.999999
0.999996
0.999996
0.999998
0.999997
0.999954
0.999915
0.999923
0.999775
0.999668
0.999896
0.999998
0.999994
0.999898
0.999887
0.999942
0.999953
0.999965
0.999914
0.999996
0.999996
0.999999
0.999999
0.999992
0.999966
0.999964
0.999965
0.999943
0.999891
0.999933
0.999999
0.999998
0.999971
0.999893
0.999946
0.999966
0.999991
0.999986
0.999996
0.999998
0.999999
0.999999
0.999999
0.999991
0.99998
0.999956
0.999937
0.999941
0.999992
0.999999
0.999999
0.999998
0.999981
0.999955
0.999977
0.999993
0.999993
0.999999
0.999999
0.999989
0.999982
0.999991
0.999991
0.99996
0.999943
0.999944
0.999957
0.999933
0.999935
0.999958
0.999968
0.999984
0.99998
0.999977
0.999993
0.999992
0.999998
0.999996
0.999972
0.999949
0.999951
0.999962
0.999965
0.999962
0.999954
0.999957
0.99994
0.999931
0.999931
0.999955
0.999985
0.999993
0.999978
0.999986
0.999993
0.999957
0.999955
0.999932
0.99995
0.999955
0.999953
0.999952
0.999951
0.999951
0.999949
0.999946
0.999936
0.999934
0.999977
0.999988
0.999993
0.999979
0.999981
0.999997
0.999919
0.99992
0.999925
0.999958
0.999964
0.999954
0.999954
0.999977
0.999979
0.999974
0.999979
0.999983
0.999973
0.999969
0.999969
0.99998
0.999979
0.999982
0.999997
0.999949
0.999921
0.999934
0.999995
0.999992
0.999977
0.999976
0.99998
0.999983
0.999991
1
1
0.999997
0.999974
0.999969
0.999969
0.99998
0.999985
0.999997
0.999999
0.999988
0.999989
0.999999
1
0.999998
0.999991
0.999989
0.999989
0.999993
0.999999
1
1
0.999998
0.999991
0.999973
0.999988
0.999995
0.999997
1
1
1
1
1
1
1
0.999999
0.999999
0.999999
1
1
1
1
1
0.999998
0.999999
1
0.999997
1
1
1
1
1
1
1
1
1
1
1
1
1
1
1
1
1
1
0.999997
1
1
1
1
1
1
1
1
1
1
1
1
1
1
1
1
1
0.999998
0.999997
1
1
1
1
1
1
1
1
1
1
1
1
1
1
1
1
0.999999
0.999998
0.999999
1
1
1
1
1
1
1
1
1
1
1
1
1
1
1
1
0.999999
0.999998
1
1
1
1
1
1
1
1
1
1
1
1
1
1
1
1
1
0.999999
0.999998
1
1
1
1
1
1
1
1
1
1
1
1
1
1
1
1
1
1
1
1
1
1
1
1
1
1
1
1
1
1
1
1
1
1
1
1
1
1
1
1
1
1
1
1
1
1
1
1
1
1
1
1
1
1
1
1
1
1
1
1
1
1
1
1
1
1
1
1
1
1
1
1
1
1
1
1
1
1
1
1
1
1
1
1
1
1
1
1
1
1
1
1
1
1
1
1
1
1
1
1
1
1
1
1
1
1
1
1
1
1
1
1
1
1
1
1
1
1
1
1
1
1
1
1
1
1
0.999999
1
1
1
1
1
1
1
1
1
1
1
1
1
1
1
1
1
1
0.999997
0.999995
0.999999
1
1
1
1
0.999999
1
1
1
1
1
1
1
1
1
1
1
0.999998
0.999994
0.999994
1
1
1
0.999999
0.999997
1
1
1
1
1
1
1
1
1
1
1
1
0.999996
0.999994
0.999995
1
1
0.999999
0.999997
1
1
1
1
1
1
1
1
1
1
1
1
1
0.999995
0.999994
0.999997
1
1
0.999997
1
1
1
1
1
1
1
1
1
1
1
1
1
0.999999
0.999994
0.999994
0.999998
1
0.999997
1
1
1
1
1
1
1
1
1
1
1
1
1
1
0.999999
0.999995
0.999995
0.999999
0.999998
1
1
1
1
1
1
1
1
1
1
1
1
1
1
1
0.999999
0.999998
0.999999
1
)
;

boundaryField
{
    leftWall
    {
        type            alphaContactAngle;
        thetaProperties 
6
(
(galistan air) 90 0 0 0
(oil galistan) 90 0 0 0
(water oil) 90 0 0 0
(water air) 90 0 0 0
(oil air) 90 0 0 0
(water galistan) 90 0 0 0
);
        value           nonuniform List<scalar> 
50
(
9.95164e-10
1.24422e-09
1.76773e-09
1.43306e-09
1.42834e-09
1.75332e-05
0.000561333
0.000561575
0.00049403
0.0140229
0.0386229
0.0161227
0.000169344
0.000578528
0.445495
0.999573
1
1
1
1
1
1
1
1
1
1
1
1
1
1
1
1
1
1
1
1
1
1
1
1
1
1
1
1
1
1
1
1
1
1
)
;
    }
    rightWall
    {
        type            alphaContactAngle;
        thetaProperties 
6
(
(galistan air) 90 0 0 0
(oil galistan) 90 0 0 0
(water oil) 90 0 0 0
(water air) 90 0 0 0
(oil air) 90 0 0 0
(water galistan) 90 0 0 0
);
        value           nonuniform List<scalar> 
50
(
0.00330969
0.00331324
0.00331504
0.0144206
0.0434412
0.0670203
0.0669782
0.0385684
0.0298264
0.0521113
0.0521113
0.00422402
5.20204e-05
4.87355e-05
0.0586672
0.67791
0.992634
0.999702
0.999915
0.999908
0.999907
0.999914
0.999986
0.999993
0.999992
0.999993
0.999997
0.999997
0.999997
0.999997
0.999997
0.999997
0.999997
0.999999
1
1
1
1
1
1
1
1
1
0.999999
0.999997
0.999997
0.999997
0.999997
0.999998
1
)
;
    }
    lowerWall
    {
        type            alphaContactAngle;
        thetaProperties 
6
(
(galistan air) 90 0 0 0
(oil galistan) 90 0 0 0
(water oil) 90 0 0 0
(water air) 90 0 0 0
(oil air) 90 0 0 0
(water galistan) 90 0 0 0
);
        value           nonuniform List<scalar> 
62
(
9.95164e-10
9.59374e-10
9.0701e-10
8.63924e-10
6.7502e-10
3.65829e-10
2.0123e-10
1.34662e-10
1.2474e-10
1.336e-10
1.58537e-10
1.75219e-10
1.95816e-10
2.18421e-10
2.38646e-10
3.09359e-10
3.45829e-10
3.01518e-10
2.34211e-10
2.34213e-10
2.32263e-07
6.25558e-07
6.25573e-07
6.25573e-07
5.12351e-07
4.32432e-08
0.00018442
0.00701264
0.00997144
0.00997144
0.00442988
0.000645204
0.000309066
0.000310352
0.00101196
0.000257384
0.000247175
0.00616956
0.0147353
0.0147335
0.00789726
0.00179888
0.00179683
0.000257384
0.000666445
0.00514465
0.00618545
0.0060989
0.00610066
0.00559228
0.00336035
0.00264386
0.00226181
0.00206237
0.00206065
0.00202968
0.00196282
0.00193327
0.00192505
0.00262817
0.00330726
0.00330969
)
;
    }
    atmosphere
    {
        type            inletOutlet;
        inletValue      uniform 1;
        value           nonuniform List<scalar> 
46
(
1
1
0.999999
1
1
1
1
1
1
1
1
1
1
1
1
1
1
1
1
1
1
1
1
1
1
1
1
1
1
1
1
1
1
1
1
1
1
1
1
1
1
1
0.999999
0.999998
0.999999
1
)
;
    }
    defaultFaces
    {
        type            empty;
    }
}


// ************************************************************************* //
