/*--------------------------------*- C++ -*----------------------------------*\
| =========                 |                                                 |
| \\      /  F ield         | OpenFOAM: The Open Source CFD Toolbox           |
|  \\    /   O peration     | Version:  2312                                  |
|   \\  /    A nd           | Website:  www.openfoam.com                      |
|    \\/     M anipulation  |                                                 |
\*---------------------------------------------------------------------------*/
FoamFile
{
    version     2.0;
    format      ascii;
    arch        "LSB;label=32;scalar=64";
    class       volScalarField;
    location    "5.3";
    object      alpha.water;
}
// * * * * * * * * * * * * * * * * * * * * * * * * * * * * * * * * * * * * * //

dimensions      [0 0 0 0 0 0 0];

internalField   nonuniform List<scalar> 
2268
(
3.25526e-07
3.2479e-07
1.70523e-07
3.75531e-09
3.39297e-10
6.27067e-10
4.49264e-10
2.14246e-10
1.3565e-10
1.09298e-10
9.96067e-11
9.77227e-11
9.83309e-11
1.00578e-10
1.11249e-10
1.36621e-10
1.8352e-10
2.53138e-10
3.56663e-10
7.33383e-10
1.17299e-09
1.37647e-09
1.37819e-09
3.16998e-07
2.23353e-07
4.56973e-08
4.91165e-10
3.40348e-10
3.23624e-10
2.90593e-10
2.83123e-10
2.68791e-10
2.72147e-10
2.99316e-10
3.17694e-10
3.21755e-10
2.90138e-10
2.71133e-10
2.91219e-10
3.87528e-10
5.03527e-10
6.94568e-10
9.76541e-10
1.2155e-09
1.27403e-09
1.24926e-09
8.35159e-08
2.47671e-08
4.72026e-09
4.61958e-09
4.68806e-09
4.60117e-09
2.02975e-09
6.12173e-10
5.94171e-10
7.55889e-10
1.02454e-09
1.21072e-09
1.21071e-09
1.07059e-09
7.48416e-10
5.60553e-10
5.51628e-10
6.075e-10
6.86981e-10
1.04997e-09
1.06203e-09
7.93477e-10
1.02884e-09
1.2417e-08
5.44281e-09
2.62279e-09
3.32028e-09
3.48052e-09
2.55869e-09
1.14619e-09
5.8219e-10
5.48102e-10
7.67334e-10
1.0876e-09
1.09671e-09
3.47941e-10
3.33841e-10
3.23684e-10
3.2336e-10
4.06146e-10
1.60271e-09
4.95054e-09
1.2906e-08
1.36893e-08
7.78754e-10
7.93605e-10
2.33104e-09
1.76059e-09
4.1662e-10
5.87551e-10
8.14839e-10
4.63695e-10
7.62039e-11
1.33628e-11
-3.25267e-13
-6.52045e-13
-9.56873e-13
-7.49406e-13
1.90704e-22
1.9026e-22
1.29569e-17
0.00353012
0.00435356
0.006883
0.0119168
0.0187075
0.0256147
0.0350752
0.064255
5.54597e-22
7.59814e-22
-4.18563e-22
-2.86145e-21
-9.44422e-21
1.13107e-22
2.14162e-27
2.53987e-27
0.0284294
0.0922203
0.171127
0.254641
0.341976
0.432364
0.506436
0.527436
0.513443
0.536903
0.570971
0.607682
0.637238
0.65907
0.703096
0.00138536
0.00396958
0.00970901
0.0414471
0.126755
0.250057
0.386916
0.540094
0.684427
0.796884
0.883198
0.946641
0.983848
0.993352
0.997618
0.99323
0.972664
0.947651
0.938854
0.947889
0.958477
0.954389
0.933825
0.383477
0.443264
0.562569
0.702503
0.822959
0.912195
0.970274
0.998128
0.999747
0.999785
0.999786
0.999773
0.999786
0.999786
0.999785
0.999786
0.999786
0.999786
0.999786
0.999786
0.999786
0.999786
0.962087
0.0105551
0.00745934
0.00293539
0.00243477
0.00390823
0.00530029
0.00627374
0.00757192
0.00804803
0.00838778
0.00878584
0.00878319
0.00839451
0.00620206
0.00477695
0.0046987
0.00407306
0.00323935
0.00307712
0.000127749
0.000124478
0.00012744
0.00012539
0.000264883
0.000675364
0.000534952
6.16002e-05
6.07516e-05
5.84309e-05
6.11351e-05
6.19572e-05
6.97242e-05
0.000682629
0.000803872
0.00102781
0.000803171
0.000498046
0.000521126
0.199781
0.219309
0.263634
0.306481
0.372482
0.398703
0.400176
0.387482
0.358551
0.327739
0.278795
0.156911
0.00776002
4.34126e-05
4.34182e-05
4.40831e-05
0.000100407
3.08156e-05
3.07396e-05
0.754714
0.935026
0.933274
0.891085
0.878669
0.90043
0.930741
0.938659
0.924732
0.902158
0.893869
0.884363
0.721303
0.378007
0.0344824
0.00586264
0.00593034
0.0455787
0.0761351
0.768401
0.99214
0.992082
0.992274
0.992287
0.972499
0.971303
0.973359
0.941056
0.958377
0.855165
0.864953
0.908206
0.90852
0.558593
0.298239
0.506536
0.659027
0.513527
0.825814
0.967966
0.982172
0.990685
0.991183
0.991198
0.990637
0.974283
0.966682
0.980749
0.838422
0.770029
0.823839
0.902858
0.780843
0.583411
0.900504
0.914578
0.727811
0.969763
0.980278
0.975746
0.978864
0.984264
0.989786
0.990577
0.977136
0.979592
0.980807
0.90344
0.770281
0.82441
0.935415
0.862325
0.863503
0.949194
0.942054
0.73185
0.993418
0.995448
0.985615
0.973062
0.985565
0.990238
0.990318
0.981276
0.980952
0.980857
0.95951
0.78269
0.861523
0.956993
0.944427
0.949194
0.949194
0.949194
0.754875
0.993234
0.998672
0.998873
0.999236
0.999644
0.999666
0.999714
0.999779
0.999786
0.999786
0.999786
0.999786
0.999786
0.999786
0.999683
0.999543
0.998965
0.998481
0.9984
0.998037
0.997893
0.998128
0.99895
0.985346
0.992637
0.997019
0.997615
0.997053
0.996204
0.981577
0.971814
0.970793
0.970006
0.970952
0.968011
0.956918
0.937824
0.900799
0.849426
0.803607
0.802019
0.795002
0.796847
0.822735
0.868447
0.91617
0.548128
0.52281
0.530116
0.531862
0.486013
0.410765
0.402319
0.43648
0.477663
0.567984
0.586391
0.512715
0.407987
0.300986
0.200237
0.12732
0.0900156
0.0893872
0.0737622
0.0620034
0.0794479
0.128095
0.233849
9.05411e-21
7.54295e-25
9.06338e-21
-4.27117e-26
3.94544e-13
0.000162069
7.18411e-05
0.000518068
0.00157492
0.00857316
0.0178701
0.0102449
0.000633681
6.82476e-20
1.52744e-20
-8.52631e-09
1.08272e-24
-2.71863e-24
1.60934e-21
1.63883e-08
3.16035e-13
3.16263e-13
1.29713e-11
7.40245e-06
1.96402e-05
1.30345e-05
3.89285e-06
1.11514e-05
2.69952e-05
5.4563e-05
3.25457e-05
1.15588e-05
1.21711e-05
1.08205e-11
5.88556e-20
4.6802e-20
-2.05727e-09
-1.01286e-10
6.59458e-05
8.3385e-05
4.75781e-05
6.35178e-05
0.000711018
0.000477352
3.16693e-13
7.97822e-05
4.42848e-05
0.000121097
7.7095e-05
5.3844e-05
9.52018e-05
0.000265015
0.000347003
0.000246896
4.39686e-05
2.51859e-11
2.8286e-13
3.89272e-15
-4.05766e-13
-1.38813e-11
9.39675e-05
0.000257007
0.000195343
0.000190718
0.000192174
0.0021612
0.00307953
0.000758025
0.000507929
0.000264183
0.000278362
0.000260228
6.9882e-05
1.2483e-05
0.000237374
0.00216554
0.00352763
0.00315516
0.00209297
0.00106827
0.0005067
0.000121575
0.000129702
0.000135011
0.000189312
0.00197905
0.00397335
0.00105146
0.00121037
0.0109772
0.0142475
0.00410109
0.000162801
0.000215609
0.000139048
1.87064e-05
1.24616e-05
4.00651e-05
0.0015922
0.00410473
0.00457074
0.00458057
0.00458179
0.00458055
0.00451625
0.00220309
9.33385e-05
9.31679e-05
0.00320628
0.0114662
0.0102978
0.00280141
0.0134726
0.0197936
0.0197905
2.05546e-08
2.05506e-08
2.05546e-08
3.42726e-06
1.15168e-05
7.641e-07
6.10389e-08
3.28427e-06
0.000278048
0.000725172
0.00177772
0.003165
0.00350568
0.00235186
0.000444262
0.000128096
0.00610866
0.0117182
0.0117185
0.010141
0.0159334
0.0197903
0.0164535
8.08691e-08
3.6029e-08
2.05575e-08
2.05612e-08
2.05638e-08
2.05663e-08
6.13326e-08
2.1921e-07
4.22388e-07
4.23651e-07
6.88981e-07
8.50621e-05
0.000181818
0.000621832
0.000428457
0.000426319
0.00400375
0.00591954
0.00554121
0.00546117
0.00284379
0.00140074
1.28026e-05
2.34597e-07
1.27081e-07
2.67948e-08
2.05638e-08
2.36301e-08
9.32524e-08
3.30004e-07
9.22326e-07
1.15257e-06
1.07318e-06
8.70879e-07
3.91879e-06
3.30051e-06
8.81389e-07
2.20941e-05
0.000223156
0.00015212
5.6772e-12
1.27892e-08
5.67771e-12
3.58487e-11
-4.47881e-24
-1.35255e-14
2.63322e-07
1.65662e-07
4.53105e-08
2.10575e-08
6.87327e-08
1.93575e-07
1.08477e-06
1.84657e-06
1.84658e-06
1.81015e-06
1.44311e-06
7.29359e-07
6.54315e-07
6.69589e-07
3.03262e-06
5.40645e-06
6.0325e-06
6.54719e-06
9.77513e-06
8.71285e-06
3.57788e-06
1.62183e-06
-2.17425e-24
2.16535e-07
6.68077e-08
2.8481e-08
2.71863e-08
3.92282e-08
1.39838e-07
6.01321e-07
1.46007e-06
1.06343e-06
6.42629e-08
1.37323e-07
6.43822e-07
6.48872e-07
1.23137e-05
1.35957e-05
1.31645e-05
5.94889e-06
1.54666e-05
1.5668e-05
1.53689e-05
1.31612e-05
1.61179e-06
-1.28911e-23
6.26628e-08
1.67771e-08
1.36115e-08
1.42793e-08
1.97722e-08
6.86484e-08
7.93614e-08
5.89585e-09
1.98262e-09
2.51387e-09
1.21349e-08
1.1291e-07
1.63664e-06
1.24542e-05
2.00368e-05
2.00324e-05
1.59115e-05
1.6395e-06
1.74781e-06
7.85831e-06
1.8e-05
4.92108e-06
1.3361e-06
2.24745e-08
8.87201e-09
9.31387e-09
1.01917e-08
1.29275e-08
1.76453e-08
1.76123e-08
8.86353e-09
1.9902e-09
4.20114e-09
1.03519e-08
1.93301e-08
3.16814e-08
3.2549e-08
3.25958e-06
1.07282e-07
2.34605e-09
2.34455e-09
4.86406e-06
3.6519e-05
3.95322e-05
2.41853e-05
7.71966e-06
1.02804e-08
5.40172e-09
7.09076e-09
8.08761e-09
7.82964e-09
3.04569e-09
1.47842e-09
1.41718e-09
1.92384e-09
2.99366e-09
3.62052e-09
3.39244e-09
3.28582e-09
2.57831e-09
3.07192e-09
3.10363e-09
2.34568e-09
1.02668e-08
1.77168e-05
3.95322e-05
3.95322e-05
3.95322e-05
3.51929e-05
1.05291e-08
3.44488e-09
4.61803e-09
5.23729e-09
4.66993e-09
2.45225e-09
1.63284e-09
1.34244e-09
1.6219e-09
2.1183e-09
2.53359e-09
2.9409e-09
4.07905e-09
4.83768e-09
6.30237e-09
7.11345e-09
4.68635e-09
2.08116e-09
3.28389e-06
2.07076e-05
3.95322e-05
3.95322e-05
3.95322e-05
1.30304e-08
2.32441e-09
2.84728e-09
3.30041e-09
2.95428e-09
2.17968e-09
1.54257e-09
1.14426e-09
1.08056e-09
1.29994e-09
1.72223e-09
2.43015e-09
3.48282e-09
5.24532e-09
6.47975e-09
6.84664e-09
5.05187e-09
2.08174e-09
2.75084e-09
4.0318e-08
2.49514e-05
3.95275e-05
1.93993e-05
1.30273e-08
1.69662e-09
1.81236e-09
2.06078e-09
1.79721e-09
1.4394e-09
1.08615e-09
7.87342e-10
6.62699e-10
7.2944e-10
9.56217e-10
1.36074e-09
1.92553e-09
2.68467e-09
3.5156e-09
3.70926e-09
2.3937e-09
2.09416e-09
8.99273e-09
6.35154e-08
1.55792e-07
2.55028e-06
3.17468e-07
1.26568e-08
1.16188e-09
1.112e-09
1.24396e-09
1.03961e-09
8.16754e-10
6.13491e-10
4.64697e-10
3.79253e-10
3.69584e-10
4.47032e-10
5.56885e-10
7.38826e-10
1.07076e-09
1.43052e-09
1.69591e-09
1.79624e-09
2.11337e-09
7.02846e-09
3.64888e-08
3.62534e-08
3.9156e-08
1.7324e-07
1.21846e-08
8.18227e-10
6.47597e-10
6.94403e-10
5.86097e-10
4.61147e-10
3.46536e-10
2.56191e-10
2.03828e-10
1.84144e-10
2.0233e-10
2.30419e-10
2.99943e-10
4.09569e-10
5.62136e-10
7.13958e-10
8.56269e-10
1.54571e-09
9.38515e-09
6.61973e-08
8.95552e-08
4.01597e-08
3.21118e-08
1.17678e-08
6.06597e-10
4.44393e-10
4.64598e-10
4.22476e-10
3.59073e-10
2.75079e-10
1.85369e-10
1.35151e-10
1.00392e-10
8.67756e-11
9.54812e-11
1.22811e-10
1.66563e-10
2.31168e-10
3.16369e-10
4.22397e-10
6.69878e-10
2.95145e-09
1.60884e-08
1.04698e-07
1.04868e-07
5.07812e-08
1.1474e-08
4.50306e-10
3.7691e-10
4.40761e-10
6.1821e-10
6.62818e-10
4.50822e-10
2.14772e-10
1.3903e-10
8.64409e-11
5.74727e-11
4.60989e-11
4.81309e-11
6.13363e-11
8.86295e-11
1.3674e-10
2.19579e-10
3.40547e-10
4.30181e-10
6.00792e-10
9.89009e-09
5.31245e-08
4.27722e-08
1.13763e-08
4.07e-10
3.92457e-10
7.8547e-10
1.12638e-09
1.10786e-09
6.92094e-10
2.75228e-10
1.78704e-10
1.03588e-10
5.62689e-11
3.30782e-11
2.39653e-11
2.42585e-11
3.35515e-11
5.4507e-11
9.82657e-11
1.78945e-10
3.21134e-10
4.36686e-10
4.3818e-10
4.80832e-09
6.73354e-09
1.1253e-08
3.81459e-10
5.46065e-10
1.14519e-09
1.68784e-09
1.75833e-09
1.06593e-09
3.35096e-10
2.24738e-10
1.30785e-10
6.79696e-11
3.58223e-11
1.93621e-11
1.2924e-11
1.32429e-11
2.00218e-11
3.62725e-11
7.16854e-11
1.37518e-10
2.62646e-10
4.65867e-10
5.69238e-10
3.42472e-09
1.1227e-08
4.13866e-10
8.3807e-10
1.53865e-09
2.30032e-09
2.53327e-09
1.47588e-09
3.93499e-10
2.76142e-10
1.61669e-10
8.2589e-11
4.24822e-11
2.18803e-11
1.08582e-11
6.92608e-12
7.51881e-12
1.22496e-11
2.32226e-11
4.72367e-11
8.93983e-11
1.63151e-10
5.6513e-10
9.70616e-10
1.12428e-08
5.75232e-10
1.26466e-09
1.70899e-09
2.28264e-09
5.93231e-09
1.50488e-09
4.31e-10
3.2173e-10
1.89873e-10
9.4858e-11
4.90083e-11
2.53458e-11
1.27219e-11
5.78939e-12
3.64363e-12
4.33262e-12
7.52897e-12
1.39124e-11
2.7826e-11
5.98782e-11
1.04252e-10
3.88144e-10
1.13883e-08
8.2364e-10
1.77615e-09
1.71186e-09
3.25721e-09
3.59429e-08
5.06132e-10
4.35888e-10
3.91509e-10
2.10177e-10
1.00117e-10
5.23631e-11
2.82789e-11
1.43778e-11
6.69634e-12
2.91838e-12
1.84438e-12
2.43682e-12
4.42928e-12
7.70062e-12
1.40508e-11
4.39443e-11
7.19132e-11
1.15502e-08
1.00017e-09
2.94874e-09
1.01793e-07
3.21769e-07
6.43214e-08
4.34159e-10
4.43078e-10
4.37858e-10
2.07798e-10
9.56816e-11
5.09118e-11
2.8995e-11
1.56313e-11
7.64784e-12
3.30931e-12
1.19086e-12
9.06086e-13
1.28258e-12
2.39703e-12
4.95008e-12
7.23101e-12
1.9928e-11
1.17079e-08
7.85468e-10
4.92003e-08
5.8967e-07
6.34784e-07
2.70622e-08
4.33989e-10
5.45449e-10
4.42279e-10
1.86911e-10
8.24894e-11
4.46243e-11
2.69527e-11
1.56054e-11
8.05423e-12
3.59964e-12
1.39466e-12
4.59876e-13
4.57056e-13
7.14399e-13
1.21486e-12
2.95778e-12
4.04654e-12
1.19423e-08
7.85496e-10
2.68979e-07
7.38875e-07
6.64615e-07
4.38452e-10
4.38448e-10
7.0469e-10
4.21005e-10
1.54852e-10
6.44035e-11
3.52922e-11
2.26014e-11
1.4126e-11
7.88673e-12
3.758e-12
1.56251e-12
3.68048e-13
1.73305e-13
2.23042e-13
4.32672e-13
6.34261e-13
1.30337e-12
1.23747e-08
6.47016e-09
4.60719e-07
6.89741e-07
2.94295e-07
4.38476e-10
6.57532e-10
8.1787e-10
3.73225e-10
1.18004e-10
4.63695e-11
2.55787e-11
1.71388e-11
1.14104e-11
6.96832e-12
3.65073e-12
1.62518e-12
4.72333e-13
9.44822e-14
7.6463e-14
1.11787e-13
2.4317e-13
3.14095e-13
1.27798e-08
4.91993e-08
5.7154e-07
6.32161e-07
4.75069e-08
4.38507e-10
1.04002e-09
7.59882e-10
2.52452e-10
8.40291e-11
3.12188e-11
1.71172e-11
1.17846e-11
8.22997e-12
5.43443e-12
3.1659e-12
1.52002e-12
5.78454e-13
8.88137e-14
3.12793e-14
3.54897e-14
5.29785e-14
9.58599e-14
1.27988e-08
1.09866e-07
6.3719e-07
5.39778e-07
4.62817e-10
5.135e-10
1.46733e-09
6.22522e-10
1.72158e-10
5.93656e-11
2.02431e-11
1.08549e-11
7.48046e-12
5.27645e-12
3.68933e-12
2.40078e-12
1.31081e-12
5.71202e-13
1.09404e-13
1.58068e-14
9.42279e-15
1.86009e-14
2.26657e-14
1.64398e-08
1.47e-07
6.37271e-07
4.36351e-07
4.61967e-10
1.15872e-09
2.06671e-09
6.30725e-10
1.64319e-10
4.20609e-11
1.2384e-11
6.49892e-12
4.3662e-12
3.01505e-12
2.16384e-12
1.54279e-12
9.71901e-13
4.93387e-13
1.25394e-13
1.36871e-14
3.36214e-15
3.9802e-15
6.57147e-15
1.57473e-08
1.28106e-07
5.878e-07
1.74589e-07
8.87561e-10
1.89865e-09
2.60203e-09
7.29026e-10
1.72053e-10
3.06948e-11
7.21401e-12
3.63838e-12
2.37089e-12
1.54527e-12
1.08425e-12
8.23622e-13
5.98443e-13
3.62504e-13
1.26058e-13
1.58641e-14
1.71557e-15
1.30908e-15
1.69655e-15
1.80278e-08
1.1036e-07
2.94136e-07
4.19911e-08
4.23966e-09
5.98923e-09
3.08302e-09
8.18827e-10
1.77869e-10
2.59416e-11
4.03536e-12
1.8959e-12
1.20616e-12
7.25043e-13
4.66907e-13
3.54023e-13
2.88832e-13
2.10795e-13
1.0424e-13
1.80779e-14
1.68793e-15
3.6513e-16
4.71415e-16
2.38264e-08
1.03234e-07
2.95263e-07
2.75493e-08
5.61445e-09
1.09999e-08
3.32713e-09
7.88585e-10
1.61392e-10
2.10517e-11
2.17147e-12
8.89477e-13
5.66195e-13
3.1623e-13
1.77194e-13
1.21725e-13
1.04585e-13
9.32189e-14
6.22497e-14
1.66858e-14
1.8027e-15
1.53496e-16
1.13567e-16
2.76755e-08
8.30686e-08
1.80168e-07
1.93482e-09
1.23548e-08
1.14131e-08
2.97433e-09
6.17637e-10
1.15382e-10
1.37426e-11
1.04793e-12
3.53719e-13
2.33537e-13
1.25596e-13
6.07012e-14
3.38382e-14
2.76269e-14
2.87447e-14
2.70725e-14
1.18183e-14
1.82405e-15
1.02479e-16
2.86382e-17
2.78513e-08
2.38823e-08
3.56036e-09
1.93533e-09
1.66776e-08
8.99842e-09
1.94675e-09
3.93824e-10
5.83956e-11
6.06496e-12
3.73756e-13
1.09728e-13
7.65342e-14
4.19507e-14
1.85524e-14
8.05975e-15
5.2042e-15
5.81792e-15
7.60296e-15
6.2097e-15
1.29716e-15
1.02049e-16
8.69107e-18
4.01357e-08
5.87814e-09
1.88208e-09
8.28851e-09
1.48066e-08
3.17911e-09
8.95884e-10
1.66003e-10
1.71929e-11
1.41596e-12
6.83804e-14
2.19636e-14
1.72288e-14
1.01055e-14
4.41616e-15
1.57549e-15
7.0131e-16
7.91729e-16
1.44619e-15
2.13008e-15
7.91294e-16
9.10862e-17
6.71668e-18
7.04797e-08
1.22468e-08
3.59841e-09
1.81833e-08
4.67312e-09
6.96975e-10
1.69783e-10
2.58661e-11
1.79473e-12
7.6767e-14
2.87627e-15
2.15258e-15
1.96683e-15
1.28683e-15
5.98467e-16
1.94892e-16
6.10465e-17
6.4896e-17
1.94469e-16
4.95689e-16
4.03764e-16
7.07525e-17
5.50902e-18
0.998936
0.998389
0.994667
0.994413
0.951553
0.968676
0.967988
0.960728
0.337379
0.354602
0.357571
0.41824
8.32015e-13
6.1444e-24
-1.88492e-07
3.25684e-24
1.77167e-05
2.96696e-11
3.49044e-14
1.33935e-05
0.00042366
0.000283161
0.000182224
0.000175346
0.00278961
0.00201505
0.00136414
0.00106397
0.0173808
0.0154025
0.0134046
0.0115391
0.0142134
0.0139649
0.0130687
0.0115286
5.91163e-13
8.837e-13
6.11315e-13
9.12489e-13
1.98905e-11
6.23074e-11
9.21249e-11
2.13833e-10
1.81545e-11
1.05176e-09
1.39524e-10
2.08375e-09
-1.21145e-13
5.06206e-09
4.2674e-08
2.65843e-08
3.34064e-07
2.90681e-07
2.07302e-07
2.61658e-07
3.58332e-06
7.03339e-07
4.26503e-07
8.99355e-07
4.80668e-06
2.15581e-07
4.49084e-07
2.67929e-06
4.25327e-06
2.10601e-07
4.01964e-07
9.64362e-07
6.22606e-06
5.47539e-06
6.92479e-06
3.67031e-06
1.07699e-05
2.87701e-05
2.86745e-05
2.87701e-05
1.81412e-07
5.39522e-07
1.39198e-05
2.46011e-05
1.55453e-08
1.52871e-08
2.15313e-08
1.6755e-06
4.35447e-08
7.91072e-08
7.88075e-08
7.85524e-08
8.39404e-09
5.8219e-08
1.23219e-07
1.2233e-07
5.92011e-09
1.2888e-08
6.27408e-08
1.21732e-07
4.9167e-09
5.51586e-09
2.86052e-08
3.88034e-08
2.74377e-09
3.59597e-09
5.95021e-09
6.43632e-09
6.05913e-10
8.34457e-10
1.15009e-09
1.06949e-09
1.61105e-10
2.01551e-10
2.26452e-10
2.7573e-10
2.92761e-11
3.79774e-11
5.1585e-11
5.25114e-11
7.37786e-12
9.13401e-12
1.02353e-11
1.27151e-11
1.67633e-12
2.10331e-12
2.76616e-12
2.8643e-12
4.7191e-13
5.463e-13
5.98148e-13
7.26799e-13
1.08449e-13
1.1813e-13
1.43165e-13
1.43838e-13
2.86885e-14
3.00298e-14
3.07831e-14
3.45235e-14
6.76496e-15
6.90756e-15
7.5629e-15
7.44112e-15
1.89231e-15
1.85727e-15
1.79592e-15
1.91555e-15
4.84045e-16
4.66243e-16
4.9734e-16
4.84474e-16
1.27835e-16
1.16426e-16
1.11463e-16
1.22428e-16
2.59121e-17
2.44994e-17
2.68118e-17
2.61327e-17
5.74373e-18
5.17028e-18
4.68642e-18
5.18622e-18
1.0306e-18
8.47146e-19
9.27656e-19
8.64967e-19
2.16831e-19
1.54705e-19
1.33906e-19
1.13135e-19
0.993727
0.995402
0.99309
0.973234
0.980367
0.989071
0.973999
0.972121
0.976272
0.98072
0.959331
0.788865
0.845664
0.957105
0.9271
0.949197
0.949196
0.949194
0.876152
0.959225
0.943131
0.927316
0.877926
0.882286
0.964634
0.975601
0.97564
0.976313
0.88254
0.828111
0.837297
0.813685
0.9261
0.922292
0.949157
0.949199
0.924514
0.923185
0.40033
0.275351
0.30535
0.430827
0.72704
0.839185
0.930795
0.975527
0.815334
0.475659
0.492183
0.621917
0.794226
0.913097
0.922203
0.798461
0.618678
0.600814
0.62778
-5.38778e-09
1.75781e-09
2.58036e-07
0.0382505
0.210178
0.52602
0.633015
0.531725
0.14111
0.0243976
0.0227066
0.032275
0.430777
0.7116
0.740351
0.233572
0.0352996
0.0225287
0.0149618
-1.93741e-08
0.00112417
0.0109756
0.00833008
0.00338799
0.0106847
0.0243837
0.0125535
0.00178584
1.29784e-05
1.0439e-14
-4.02046e-21
0.0193923
0.103561
0.0886187
0.000819859
0.000233841
0.000229562
0.000523115
3.69663e-05
0.00256403
0.0304744
0.0242598
0.00277166
0.000745853
0.000105333
5.22747e-05
6.89497e-05
7.52899e-05
2.66095e-05
1.69184e-09
1.1082e-09
0.000928031
0.00110553
0.000527569
0.000491759
0.000565121
0.0015722
0.000400811
0.000375628
0.0396827
0.0461804
0.0307206
0.00274057
0.000974673
0.000153782
3.86199e-05
0.000136879
0.000323757
0.000241715
0.000238694
0.000407717
0.000621357
0.00102702
0.00142465
0.00181397
0.00254027
0.00708442
0.00304552
0.00620248
0.0459301
0.0461804
0.0274415
0.00695689
0.00184773
0.000291975
5.30481e-05
8.01361e-05
0.000597744
0.000685011
0.00114904
0.00228915
0.00254025
0.00254022
0.00254027
0.00254023
0.00893916
0.00620662
0.00238011
0.00106539
0.0263852
0.0343676
0.0344931
0.0242193
0.00968059
0.00124717
8.94019e-05
0.000196759
0.000606493
0.00125805
0.00222603
0.00254023
0.00143027
0.000859551
0.00160814
6.15795e-13
0.000175322
0.00147875
0.000645539
3.22219e-08
0.000411992
0.00389884
0.0189198
0.02913
0.0292695
0.0134758
9.58443e-05
9.7785e-05
0.000275606
0.00037258
0.000839479
3.67479e-05
3.128e-06
1.52747e-05
4.88261e-10
2.59604e-17
5.11912e-17
7.59315e-13
4.92025e-09
1.97751e-09
6.2736e-10
5.65349e-10
1.52468e-05
0.00489028
0.00536683
0.000646574
2.51724e-08
2.15528e-07
2.45495e-06
2.3376e-06
4.65272e-06
3.1199e-06
3.09632e-06
2.42857e-09
5.73232e-13
2.32247e-09
1.82239e-07
1.6265e-07
1.00399e-07
2.76908e-08
3.73141e-09
3.58676e-09
0.000304735
0.000566524
6.77945e-05
9.34711e-08
1.81648e-06
1.92516e-06
2.70686e-06
3.73401e-05
5.23136e-06
3.57372e-06
1.80612e-08
4.72681e-07
1.78591e-06
1.95961e-06
1.17928e-06
2.5767e-06
7.92276e-06
5.03193e-06
2.52432e-06
6.81687e-07
6.74291e-07
9.96502e-07
4.82499e-08
8.57955e-07
5.57391e-06
2.33634e-05
4.05893e-05
3.56531e-05
4.66096e-06
9.7095e-07
3.56721e-06
3.48459e-06
1.93542e-06
1.17272e-06
9.40109e-06
1.84372e-05
1.75156e-05
3.96555e-06
4.71565e-06
3.7866e-06
1.69857e-07
4.55568e-08
1.41402e-06
7.31064e-06
4.05893e-05
4.05893e-05
2.97842e-05
5.85032e-06
3.92658e-06
3.88488e-06
4.60814e-07
5.34998e-08
2.31468e-06
1.83817e-05
1.83761e-05
9.28822e-06
2.92302e-07
3.417e-06
2.94442e-06
1.3743e-07
1.14922e-07
8.37661e-07
6.01351e-06
4.05893e-05
2.97134e-05
3.61427e-06
4.33413e-06
3.92458e-06
1.60938e-06
4.93009e-08
4.94228e-08
5.14083e-07
8.21956e-06
1.28135e-05
4.07117e-07
2.63126e-07
2.99012e-07
4.0562e-07
1.7326e-07
1.94006e-07
2.20058e-07
2.09395e-06
3.49075e-05
9.07364e-06
5.42608e-07
2.14105e-06
1.07773e-06
5.08184e-07
3.38577e-07
1.4282e-06
1.77012e-06
1.78354e-06
3.24452e-07
3.13876e-07
2.3221e-07
2.32185e-07
2.36464e-07
2.85191e-07
1.69091e-07
1.68809e-07
9.51467e-06
1.38969e-05
3.62499e-06
1.13375e-07
1.22036e-06
1.24663e-06
3.91038e-07
4.5621e-06
1.9716e-05
2.67999e-05
3.28831e-05
1.41596e-05
3.32687e-07
3.18482e-06
5.89396e-06
2.8308e-06
6.46074e-06
5.86577e-06
7.54753e-06
9.69303e-06
1.55714e-06
6.77599e-07
1.05755e-07
5.02648e-07
1.08492e-05
3.92476e-07
3.95152e-06
2.46274e-05
4.26256e-05
4.26256e-05
4.26256e-05
4.23411e-05
3.96943e-05
3.96624e-05
3.69824e-05
1.13893e-05
1.15983e-05
8.41086e-06
5.41164e-06
8.02006e-07
2.75114e-07
2.68986e-07
7.82412e-08
2.05246e-05
1.42192e-05
9.12741e-06
1.75184e-05
3.58684e-05
4.26256e-05
4.21228e-05
1.70505e-05
1.57853e-05
2.12885e-05
1.6444e-05
4.43973e-06
2.49538e-06
1.8607e-06
1.04719e-06
3.48044e-07
2.5918e-07
3.21857e-07
7.82412e-08
1.04417e-05
1.42188e-05
1.0717e-05
1.37667e-06
6.96123e-06
1.75749e-05
1.27711e-05
7.9757e-06
4.83282e-06
1.19274e-06
9.46254e-10
9.4715e-10
9.51742e-10
5.48436e-07
2.87222e-07
3.97263e-07
4.62431e-07
3.21799e-07
7.82412e-08
7.84699e-08
1.22225e-06
1.1631e-06
1.27097e-07
9.6721e-10
9.67231e-10
9.67225e-10
9.67226e-10
9.67225e-10
9.67227e-10
1.07355e-09
2.35223e-09
9.76808e-10
9.64931e-10
4.4409e-09
3.97854e-07
4.82129e-07
2.0822e-07
7.82412e-08
1.36698e-07
1.89882e-08
9.70768e-09
9.39286e-09
1.0719e-08
2.34429e-09
9.67225e-10
9.67225e-10
9.67226e-10
9.67239e-10
1.11609e-09
4.23326e-09
3.13981e-09
1.90982e-09
1.20877e-09
6.43825e-08
3.03027e-07
2.01049e-07
8.48044e-08
1.00218e-07
4.30045e-08
1.46378e-08
9.2709e-09
1.27042e-08
5.90784e-09
2.27116e-09
1.81381e-09
1.67199e-09
2.3353e-09
2.46774e-09
4.43043e-09
6.2215e-09
8.7919e-09
3.77164e-09
3.83346e-09
4.56953e-08
2.10413e-07
9.61085e-08
3.22297e-08
1.06041e-08
9.05171e-09
7.92581e-09
7.49653e-09
3.70576e-09
2.29978e-09
2.06463e-09
2.37328e-09
3.5125e-09
5.17327e-09
8.6618e-09
1.1538e-08
1.48551e-08
4.1162e-09
1.5542e-08
1.70372e-07
2.10592e-07
2.04143e-07
4.26101e-09
2.96033e-09
3.99185e-09
3.34058e-09
2.65438e-09
1.73488e-09
1.46028e-09
1.5508e-09
1.96138e-09
2.83563e-09
4.46755e-09
8.23384e-09
1.24366e-08
1.53858e-08
5.09486e-09
1.78878e-07
2.07662e-07
1.31804e-07
2.03967e-07
1.17188e-09
1.10193e-09
1.08214e-09
9.22297e-10
8.13164e-10
7.19176e-10
7.51271e-10
9.09473e-10
1.24877e-09
1.88831e-09
3.09596e-09
5.56942e-09
8.99248e-09
1.16007e-08
1.62855e-08
1.42494e-07
2.06774e-07
8.12432e-08
2.03758e-07
2.77291e-10
2.89026e-10
2.68373e-10
2.60598e-10
2.69841e-10
3.00898e-10
3.84839e-10
5.58512e-10
8.84137e-10
1.47085e-09
2.51871e-09
4.13761e-09
6.20848e-09
8.57602e-09
1.76181e-08
4.38427e-08
4.43685e-08
4.35276e-08
1.41249e-07
5.88721e-11
6.60425e-11
7.2997e-11
8.23338e-11
1.02936e-10
1.45247e-10
2.2398e-10
3.71274e-10
6.92778e-10
1.38327e-09
2.68275e-09
4.53276e-09
6.23318e-09
6.73382e-09
9.62265e-09
4.44557e-09
4.36059e-09
6.52019e-09
9.00183e-08
1.36787e-11
1.66505e-11
2.08223e-11
2.62163e-11
3.47377e-11
4.60284e-11
6.78276e-11
1.45521e-10
3.8619e-10
1.08363e-09
2.70106e-09
5.97639e-09
1.05529e-08
9.17624e-09
6.38717e-09
4.90459e-09
4.36029e-09
6.72687e-09
7.34974e-08
3.47425e-12
4.37843e-12
5.40472e-12
6.42621e-12
6.76551e-12
6.76882e-12
1.30577e-11
4.05424e-11
1.53874e-10
6.08616e-10
2.17228e-09
5.53265e-09
1.56595e-08
2.87676e-08
3.26455e-08
8.64786e-09
4.36179e-09
9.73929e-09
1.19323e-07
7.57786e-13
9.97021e-13
1.13357e-12
1.25474e-12
1.21158e-12
1.38975e-12
3.44657e-12
1.19383e-11
5.21047e-11
3.17597e-10
1.49607e-09
5.95524e-09
1.77529e-08
4.49969e-08
4.77622e-08
1.7876e-08
4.36179e-09
1.92843e-08
1.21018e-07
1.69749e-13
1.8305e-13
1.97083e-13
2.21249e-13
2.64735e-13
5.00222e-13
1.60431e-12
6.44067e-12
2.63259e-11
1.00344e-10
3.84653e-10
6.1111e-09
1.78804e-08
3.88167e-08
4.94307e-08
4.86726e-08
1.39197e-08
1.43643e-08
1.21025e-07
3.46115e-14
3.51958e-14
3.84955e-14
5.26486e-14
1.00833e-13
2.72898e-13
9.80928e-13
3.87727e-12
1.50623e-11
5.15529e-11
2.45494e-10
4.3764e-09
1.42595e-08
2.94818e-08
4.50379e-08
4.90809e-08
3.06565e-08
7.47637e-08
9.4018e-08
7.68331e-15
7.88546e-15
1.04164e-14
2.02194e-14
5.43706e-14
1.74662e-13
6.0962e-13
2.26581e-12
8.30154e-12
2.89978e-11
9.55223e-11
7.42333e-10
5.17157e-09
1.81579e-08
3.64906e-08
4.90054e-08
3.97741e-08
1.09743e-07
1.23635e-07
1.91423e-15
2.15962e-15
3.67489e-15
9.67159e-15
3.22996e-14
1.17317e-13
4.31261e-13
1.57289e-12
5.60567e-12
1.83642e-11
5.90252e-11
3.41009e-10
1.32295e-09
4.9268e-09
2.0519e-08
2.65572e-08
4.5749e-08
1.23101e-07
1.22306e-07
5.0303e-16
6.50224e-16
1.40306e-15
4.47654e-15
1.68242e-14
6.58193e-14
2.58211e-13
9.90468e-13
3.62571e-12
1.16342e-11
3.68987e-11
2.22983e-10
9.98329e-10
1.72121e-09
3.16331e-09
1.31215e-08
4.45185e-08
8.58543e-08
3.74449e-07
1.27992e-16
1.83411e-16
4.5521e-16
1.62988e-15
6.6761e-15
2.84025e-14
1.21266e-13
5.09923e-13
2.0508e-12
7.5936e-12
2.53195e-11
9.22997e-11
6.129e-10
1.74348e-09
2.40739e-09
6.66082e-09
2.52574e-08
6.20652e-08
3.83167e-07
2.8642e-17
4.15102e-17
1.07949e-16
4.11549e-16
1.82617e-15
8.43559e-15
3.92237e-14
1.8092e-13
8.10547e-13
3.42173e-12
1.23109e-11
4.28597e-11
2.25444e-10
1.40135e-09
2.80929e-09
3.73671e-09
8.78863e-09
4.04419e-08
3.83346e-07
5.27333e-18
6.844e-18
1.75258e-17
7.22491e-17
3.64965e-16
1.98257e-15
1.08414e-14
5.80012e-14
2.97001e-13
1.42008e-12
6.24054e-12
2.50085e-11
1.04514e-10
5.71647e-10
2.4996e-09
3.88584e-09
5.50311e-09
3.76526e-08
3.83346e-07
7.90198e-19
8.00142e-19
1.54124e-18
6.14025e-18
3.56994e-17
2.33865e-16
1.58611e-15
1.07534e-14
7.04621e-14
4.18434e-13
2.22607e-12
1.06902e-11
4.53139e-11
1.90034e-10
1.10632e-09
3.48735e-09
6.47593e-09
3.57842e-08
1.40376e-07
9.14327e-20
7.42916e-20
9.29046e-20
2.57367e-19
1.5938e-18
1.36067e-17
1.2205e-16
1.10368e-15
9.37676e-15
7.16956e-14
4.77751e-13
2.5454e-12
1.10925e-11
4.61758e-11
2.93119e-10
1.53808e-09
4.6873e-09
1.24162e-08
1.65019e-10
)
;

boundaryField
{
    leftWall
    {
        type            zeroGradient;
    }
    rightWall
    {
        type            zeroGradient;
    }
    lowerWall
    {
        type            zeroGradient;
    }
    atmosphere
    {
        type            inletOutlet;
        inletValue      uniform 0;
        value           nonuniform List<scalar> 
46
(
7.04797e-08
1.22468e-08
3.59841e-09
0
0
0
0
0
0
0
0
0
0
0
0
0
0
0
0
0
0
0
0
0
0
0
0
0
0
0
0
0
0
0
1.10368e-15
9.37676e-15
7.16956e-14
4.77751e-13
2.5454e-12
1.10925e-11
4.61758e-11
2.93119e-10
1.53808e-09
4.6873e-09
1.24162e-08
1.65019e-10
)
;
    }
    defaultFaces
    {
        type            empty;
    }
}


// ************************************************************************* //
