/*--------------------------------*- C++ -*----------------------------------*\
| =========                 |                                                 |
| \\      /  F ield         | OpenFOAM: The Open Source CFD Toolbox           |
|  \\    /   O peration     | Version:  2312                                  |
|   \\  /    A nd           | Website:  www.openfoam.com                      |
|    \\/     M anipulation  |                                                 |
\*---------------------------------------------------------------------------*/
FoamFile
{
    version     2.0;
    format      ascii;
    arch        "LSB;label=32;scalar=64";
    class       volScalarField;
    location    "5.3";
    object      alphas;
}
// * * * * * * * * * * * * * * * * * * * * * * * * * * * * * * * * * * * * * //

dimensions      [0 0 0 0 0 0 0];

internalField   nonuniform List<scalar> 
2268
(
2
2
2
2
2
2
2
2
2
2
2
2
2
2
2
2
2
2
2
1.99998
1.99996
1.99996
1.99996
2
2
2
2
2
2
2
2
2
2
2
2
2
2
2
2
2
2
2
2
1.99999
1.99998
1.99999
2
2
2
2
2
2
2
2
2
2
2
2
2
2
2
2
2
2
2
2
2
2
2
2
2
2
2
2
2
2
2
2
2
2
2
2
2
1.99998
2.00001
2
2
2
2
2
2.00001
2.00018
2
2
2
2
2
2
2
2
2
2
1.99994
1.99974
1.99976
1.9999
1.99944
1.98479
1.97162
1.95898
1.94721
1.93369
1.91736
1.89871
1.86672
2
1.99995
1.99992
2.00009
2.00016
2.00008
1.99997
1.99966
1.94267
1.81513
1.65718
1.49007
1.31529
1.13498
0.985793
0.913232
0.897738
0.848683
0.781596
0.708178
0.649091
0.605445
0.54698
1.9947
1.98897
1.97707
1.91385
1.74507
1.50079
1.22713
0.919794
0.63069
0.405745
0.233128
0.106143
0.0317415
0.013084
0.00430461
0.00726584
0.0285166
0.0560236
0.0655932
0.0560336
0.0461555
0.0558837
0.0861176
1.2286
1.10943
0.871099
0.591267
0.351446
0.17475
0.0594866
0.0038614
0.000598514
0.000422028
0.000421422
0.000443394
0.000489006
0.000545526
0.000539312
0.00048594
0.000506795
0.000560721
0.000555808
0.000590782
0.000589165
0.000525423
0.0467726
1.95158
1.95661
1.97009
1.97268
1.97103
1.96898
1.96653
1.9617
1.95986
1.95876
1.95797
1.95797
1.95872
1.96304
1.96586
1.96601
1.96796
1.97031
1.97064
1.95086
1.93487
1.92457
1.92496
1.92766
1.92667
1.92865
1.93649
1.93557
1.9432
1.95016
1.95352
1.96181
1.96258
1.97379
1.97333
1.9749
1.97666
1.97495
1.36189
1.32443
1.24151
1.16481
1.06717
1.02212
1.00385
1.02154
1.08032
1.14541
1.23821
1.45311
1.68736
1.70524
1.78717
1.81859
1.82363
1.80072
1.77654
0.281128
0.0904622
0.0997346
0.149397
0.171555
0.154943
0.11129
0.0930371
0.1112
0.21874
0.241438
0.217509
0.42767
0.97545
1.44265
1.49871
1.50837
1.42443
1.36888
0.261092
0.0137896
0.0158439
0.0159862
0.0160218
0.0754229
0.0762644
0.065256
0.161132
0.0993075
0.365199
0.360836
0.231821
0.172145
0.544291
0.969792
0.734282
0.504834
0.626197
0.190006
0.040867
0.0384242
0.0178039
0.0143288
0.0185418
0.0214395
0.0678436
0.0889125
0.0373378
0.2703
0.464213
0.4104
0.268514
0.253848
0.540942
0.195282
0.215634
0.407931
0.0338608
0.0342684
0.0549505
0.0489945
0.028422
0.0158238
0.0202548
0.0607369
0.0537165
0.0332877
0.137839
0.34184
0.373112
0.177831
0.172691
0.24721
0.101489
0.12939
0.404943
0.0102741
0.00839006
0.0366714
0.0683987
0.0328339
0.0178394
0.0144481
0.0424053
0.0388698
0.0279322
0.0717983
0.273063
0.189066
0.0859561
0.106918
0.093075
0.0965619
0.102639
0.324729
0.0129367
0.00202433
0.00166915
0.00125723
0.000783562
0.000762088
0.000606895
0.00054557
0.000582879
0.000577028
0.000591196
0.000609545
0.000620526
0.000630918
0.000886457
0.00126489
0.00298883
0.00450425
0.00477979
0.00587705
0.0063087
0.005567
0.00303162
0.0430364
0.0212702
0.00829005
0.00568205
0.00376846
0.010098
0.0538876
0.0837897
0.0874416
0.0899353
0.087086
0.0957586
0.114992
0.123817
0.141792
0.203622
0.276604
0.28666
0.290265
0.272798
0.242411
0.198295
0.147876
0.529587
0.554746
0.547211
0.535403
0.529497
0.593731
0.602174
0.605333
0.672129
0.587425
0.567874
0.642371
0.747096
0.848153
0.875583
0.965995
1.03094
1.03188
1.02773
1.00132
0.972527
0.937379
0.867536
1.03258
1.0161
1.01805
1.03708
1.04175
1.04157
1.00936
1.00388
1.0036
1.02572
1.13717
1.14485
1.15462
1.13462
1.01879
1.00401
1.04106
1.04138
1.00032
1.00081
1.00208
1.00305
1.04881
1.00041
1.00036
1.00037
1.00262
1.01283
1.00561
1.00055
1.00062
1.06237
1.15355
1.15459
1.13497
1.05205
1.00892
1.00029
1.00014
1.00012
1.00022
1.00014
0.999353
0.999683
1.00069
1.01646
1.00126
1.00048
1.00028
1.0003
1.0002
0.999992
0.999913
1.00001
1.00276
1.01629
1.0297
1.01298
1.00036
1.00036
1.00011
0.999844
0.999831
0.999833
0.999836
0.997907
0.997483
0.999811
0.999719
1.89113
1.85019
1.77008
1.65912
1.54846
1.44328
1.34053
1.24199
1.13734
1.0384
0.999232
0.999624
0.999974
0.999962
0.999953
0.999843
0.998033
0.996039
0.998958
0.998858
0.989904
0.986829
0.996926
2.99925
2.9991
2.99933
2.9908
2.94885
2.89412
2.81935
2.73612
2.6179
2.42125
2.12507
1.79394
1.49293
1.25957
1.12062
1.04592
1.01291
0.988653
0.991409
1.00992
1.0648
1.23674
1.47429
3
3
3
2.99999
2.99995
2.99997
2.99998
2.99999
2.99913
2.99771
2.99326
2.94473
2.82046
2.62475
2.36541
2.12812
2.0459
2.07097
2.16402
2.24667
2.35805
2.56793
2.83216
3
3
3
3
3
3
3
3
3
3
3
2.99974
2.9994
2.99785
2.99846
2.99671
2.9835
2.98095
2.98313
2.98357
2.99141
2.99572
2.99996
3
3
3
3
3
3
3
3
3
2.99999
2.99998
2.99998
2.99998
2.99998
2.99993
2.99931
2.9995
2.99998
2.99999
2.99997
2.99993
2.9999
2.99994
3
3
3
3
3
3
3
2.99999
2.99999
2.99993
2.99992
2.99992
2.99991
2.99991
2.99991
2.99996
2.99997
2.99997
2.99996
2.99996
2.99993
2.99993
2.99995
3
3
3
3
3
3
3
3
2.99999
2.99994
2.99993
2.99996
2.99996
2.99991
2.9999
2.9999
2.99996
2.99992
2.99989
2.99989
2.99989
2.99994
2.99999
3
3
3
3
3
3
3
3
3
3
3
3
3
2.99996
2.99992
2.99991
2.99993
2.99999
2.99999
2.99997
2.99994
2.99997
2.99998
3
3
3
3
3
3
3
3
3
3
3
3
3
3
2.99999
3
3
3
2.99997
2.99985
2.99984
2.99988
2.99996
3
3
3
3
3
3
3
3
3
3
3
3
3
3
3
3
3
3
2.9999
2.99984
2.99984
2.99985
2.99989
3
3
3
3
3
3
3
3
3
3
3
3
3
3
3
3
3
3
2.99998
2.99989
2.99984
2.99986
2.99988
3
3
3
3
3
3
3
3
3
3
3
3
3
3
3
3
3
3
3
3
2.99991
2.99987
2.99994
3
3
3
3
3
3
3
3
3
3
3
3
3
3
3
3
3
3
3
3
3
2.99999
3
3
3
3
3
3
3
3
3
3
3
3
3
3
3
3
3
3
3
3
3
3
3
3
3
3
3
3
3
3
3
3
3
3
3
3
3
3
3
3
3
3
3
3
3
3
3
3
3
3
3
3
3
3
3
3
3
3
3
3
3
3
3
3
3
3
3
3
3
3
3
3
3
3
3
3
3
3
3
3
3
3
3
3
3
3
3
3
3
3
3
3
3
3
3
3
3
3
3
3
3
3
3
3
3
3
3
3
3
3
3
3
3
3
3
3
3
3
3
3
3
3
3
3
3
3
3
3
3
3
3
3
3
3
3
3
3
3
3
3
3
3
3
3
3
3
3
3
3
3
3
3
3
3
3
3
3
3
3
3
3
3
3
3
3
3
3
3
3
3
3
3
3
3
3
3
3
3
3
3
3
3
3
3
3
3
3
3
3
3
3
3
3
3
3
3
3
3
3
3
3
3
3
3
3
3
3
3
3
3
3
3
3
3
3
3
3
3
3
3
3
3
3
3
3
3
3
3
3
3
3
3
3
3
3
3
3
3
3
3
3
3
3
3
3
3
3
3
3
3
3
3
3
3
3
3
3
3
3
3
3
3
3
3
3
3
3
3
3
3
3
3
3
3
3
3
3
3
3
3
3
3
3
3
3
3
3
3
3
3
3
3
3
3
3
3
3
3
3
3
3
3
3
3
3
3
3
3
3
3
3
3
3
3
3
3
3
3
3
3
3
3
3
3
3
3
3
3
3
3
3
3
3
3
3
3
3
3
3
3
3
3
3
3
3
3
3
3
3
3
3
3
3
3
3
3
3
3
3
3
3
3
3
3
3
3
3
3
3
3
3
3
3
3
3
3
3
3
3
3
3
3
3
3
3
3
3
3
3
3
3
3
3
3
3
3
3
3
3
3
3
3
3
3
3
3
3
3
3
3
3
3
3
3
3
3
3
3
3
3
3
3
3
3
3
3
3
3
3
3
3
3
3
3
3
3
3
3
3
3
3
3
3
3
3
3
3
3
3
3
3
3
3
3
3
3
3
3
3
3
3
3
3
3
3
3
3
3
3
3
3
3
3
3
3
3
3
3
3
3
3
3
3
3
3
3
3
3
3
3
3
3
3
3
3
3
3
3
3
3
3
3
3
3
3
3
3
3
3
3
3
3
3
3
3
3
3
3
3
3
3
3
3
3
3
3
3
3
3
3
0.00246726
0.00227331
0.00599689
0.0078531
0.0990475
0.0609102
0.0610765
0.0957467
0.764015
0.746783
0.743801
0.682416
1.10118
1.1014
1.09684
1.02879
1.04823
1.02707
1.00127
1.00114
0.999879
1.0003
1.00066
1.00056
0.998216
0.998704
0.999199
0.999304
1.54001
1.55626
1.52782
1.50235
2.89536
2.909
2.90438
2.90211
3
3
3
3
3
3
3
3
2.99999
3
3
3
3
3
3
3
2.99998
2.99999
3
3
2.99999
3
3
3
2.99998
3
3
2.99999
2.99998
3
3
3
2.99998
2.99997
2.99997
2.99999
2.99997
2.9999
2.99987
2.99986
3
3
2.99992
2.99981
3
3
3
2.99999
3
3
3
3
3
3
3
3
3
3
3
3
3
3
3
3
3
3
3
3
3
3
3
3
3
3
3
3
3
3
3
3
3
3
3
3
3
3
3
3
3
3
3
3
3
3
3
3
3
3
3
3
3
3
3
3
3
3
3
3
3
3
3
3
3
3
3
3
3
3
3
3
3
3
3
3
3
3
3
3
3
3
3
3
0.0135884
0.00873662
0.0164847
0.0701845
0.0484265
0.0203206
0.0307252
0.0340995
0.0275968
0.0273784
0.0739645
0.255972
0.166058
0.0732191
0.16464
0.092165
0.093143
0.105857
0.18551
0.0962645
0.0723395
0.0874931
0.21966
0.230537
0.0626304
0.0316182
0.0281414
0.0274622
0.236818
0.286644
0.175127
0.189744
0.154332
0.175091
0.0996934
0.100922
0.180172
0.184338
0.651014
0.762576
0.808424
0.881993
0.585779
0.442499
0.172732
0.0378276
0.236832
0.719803
0.710096
0.416227
0.212578
0.130209
0.132255
0.220503
0.423648
0.493749
0.483173
1.00298
1.12201
1.31269
1.27456
1.10203
0.782323
0.603596
0.539717
0.909367
1.16439
1.19541
1.1302
0.585745
0.290185
0.261997
0.772322
0.976256
0.991206
1.00008
1.00125
1.11182
1.11819
1.10782
1.08026
1.07683
1.06188
1.03839
1.00585
1.02497
1.21147
1.18455
1.00007
0.898057
0.912996
1.00107
1.00236
1.00177
1.00103
1.00099
0.998021
0.970111
0.976325
0.997848
1.001
1.00273
1.00287
1.00278
1.00287
1.02186
1.04379
1.01381
1.00037
0.999836
1.0013
1.00151
1.00148
1.00085
0.999976
1.00026
0.960913
0.954406
0.96989
0.997848
1.00054
1.00268
1.003
1.00283
1.00242
1.00274
1.00276
1.00192
1.00104
1.00027
0.999786
0.999992
1.12181
1.47677
1.39147
1.29984
1.136
1.03298
0.987656
0.993916
0.99912
1.00206
1.01501
1.00838
1.00952
1.05758
1.21572
1.48161
1.69577
1.90372
2.19541
2.36039
2.90313
2.85275
2.77403
2.63735
2.39641
2.08817
1.72958
1.44625
1.36168
1.44287
1.74804
2.02282
2.26733
2.6205
2.85821
2.93768
2.97882
2.99342
2.98942
3
2.99947
2.99553
2.99795
2.99969
2.99816
2.98755
2.92017
2.76754
2.65329
2.74628
2.95077
2.99798
2.99873
2.99862
2.99735
2.99979
2.99992
2.99967
3
3
3
3
3
3
2.99998
2.99997
2.99986
2.9852
2.98363
2.9974
2.99959
2.99999
2.99999
2.99995
2.99992
2.99989
2.99983
3
3
3
3
3
3
2.99999
2.99993
2.99947
2.99859
2.99824
2.99979
2.99999
2.99999
2.99983
2.99982
2.99985
2.99989
2.99981
3
3
2.99999
2.99999
2.99999
2.99998
2.99985
2.99949
2.99933
2.99934
2.99987
2.99999
2.99999
2.99984
2.99977
2.99983
2.99986
2.99987
2.99981
3
2.99999
2.99999
2.99999
2.99999
2.9999
2.99981
2.99983
2.99955
2.99933
2.99979
3
2.99999
2.99979
2.99977
2.99984
2.99987
2.9999
2.99982
2.99999
2.99999
3
3
2.99998
2.99991
2.99991
2.99992
2.99989
2.99978
2.99986
3
3
2.99994
2.99978
2.99985
2.9999
2.99998
2.99997
2.99999
2.99999
3
3
3
2.99997
2.99995
2.99991
2.99987
2.99988
2.99998
3
3
3
2.99996
2.99988
2.99995
2.99999
2.99999
3
3
2.99998
2.99996
2.99998
2.99998
2.99992
2.99989
2.99989
2.99991
2.99987
2.99987
2.99992
2.99994
2.99996
2.99995
2.99995
2.99999
2.99998
3
2.99999
2.99994
2.99988
2.99988
2.99989
2.99992
2.99992
2.99991
2.99991
2.99988
2.99986
2.99986
2.9999
2.99996
2.99999
2.99996
2.99997
2.99999
2.99991
2.99991
2.99986
2.99988
2.99987
2.99986
2.99986
2.99986
2.99986
2.99986
2.99986
2.99986
2.99986
2.99995
2.99997
2.99999
2.99996
2.99996
2.99999
2.99982
2.99983
2.99984
2.9999
2.99989
2.99987
2.99987
2.99994
2.99994
2.99993
2.99994
2.99996
2.99995
2.99994
2.99994
2.99996
2.99996
2.99996
3
2.99989
2.99983
2.99986
2.99999
2.99998
2.99994
2.99994
2.99995
2.99996
2.99998
3
3
2.99999
2.99995
2.99994
2.99994
2.99996
2.99997
3
3
2.99998
2.99998
3
3
3
2.99998
2.99998
2.99998
2.99999
3
3
3
3
2.99998
2.99994
2.99998
2.99999
2.99999
3
3
3
3
3
3
3
3
3
3
3
3
3
3
3
3
3
3
2.99999
3
3
3
3
3
3
3
3
3
3
3
3
3
3
3
3
3
3
2.99999
3
3
3
3
3
3
3
3
3
3
3
3
3
3
3
3
3
3
2.99999
3
3
3
3
3
3
3
3
3
3
3
3
3
3
3
3
3
3
3
3
3
3
3
3
3
3
3
3
3
3
3
3
3
3
3
3
3
3
3
3
3
3
3
3
3
3
3
3
3
3
3
3
3
3
3
3
3
3
3
3
3
3
3
3
3
3
3
3
3
3
3
3
3
3
3
3
3
3
3
3
3
3
3
3
3
3
3
3
3
3
3
3
3
3
3
3
3
3
3
3
3
3
3
3
3
3
3
3
3
3
3
3
3
3
3
3
3
3
3
3
3
3
3
3
3
3
3
3
3
3
3
3
3
3
3
3
3
3
3
3
3
3
3
3
3
3
3
3
3
3
3
3
3
3
3
3
3
3
3
3
3
3
3
3
3
3
3
3
3
3
3
3
3
3
3
3
3
3
3
3
3
3
3
3
3
3
3
3
3
3
3
3
3
3
3
3
3
3
3
3
3
2.99999
2.99999
3
3
3
3
3
3
3
3
3
3
3
3
3
3
3
3
3
3
2.99999
2.99999
3
3
3
3
2.99999
3
3
3
3
3
3
3
3
3
3
3
3
2.99999
2.99999
2.99999
3
3
3
2.99999
3
3
3
3
3
3
3
3
3
3
3
3
3
2.99999
2.99999
2.99999
3
3
2.99999
3
3
3
3
3
3
3
3
3
3
3
3
3
3
2.99999
2.99999
3
3
2.99999
3
3
3
3
3
3
3
3
3
3
3
3
3
3
3
2.99999
2.99999
3
3
3
3
3
3
3
3
3
3
3
3
3
3
3
3
3
3
3
3
3
)
;

boundaryField
{
    leftWall
    {
        type            calculated;
        value           nonuniform List<scalar> 
50
(
2
2
2
2
2
2
1.9947
1.2286
0.0129367
0.0430364
0.529587
1.03258
1.00041
1.00126
1.89113
2.99925
3
3
3
3
3
3
3
3
3
3
3
3
3
3
3
3
3
3
3
3
3
3
3
3
3
3
3
3
3
3
3
3
3
3
)
;
    }
    rightWall
    {
        type            calculated;
        value           nonuniform List<scalar> 
50
(
1.97064
1.97495
1.77654
1.36888
0.626197
0.407931
0.404943
0.324729
0.18551
0.184338
0.483173
1.00008
1.00103
1.00085
1.12181
2.36039
2.98942
2.99967
2.99983
2.99981
2.99981
2.99982
2.99997
2.99999
2.99998
2.99999
2.99999
3
3
2.99999
2.99999
2.99999
2.99999
3
3
3
3
3
3
3
3
3
3
3
2.99999
2.99999
2.99999
2.99999
3
3
)
;
    }
    lowerWall
    {
        type            calculated;
        value           nonuniform List<scalar> 
62
(
2
2
2
2
2
2
2
2
2
2
2
2
2
2
2
2
2
2
2
1.99998
1.99996
1.99996
1.99996
1.99996
1.99999
2
2.00018
1.86672
0.54698
0.0861176
0.0467726
0.00246726
0.00227331
0.00599689
0.0078531
1.95158
1.95086
1.36189
0.281128
0.261092
0.190006
0.0338608
0.0102741
1.95158
1.95661
1.97009
1.97268
1.97103
1.96898
1.96653
1.9617
1.95986
1.95876
1.95797
1.95797
1.95872
1.96304
1.96586
1.96601
1.96796
1.97031
1.97064
)
;
    }
    atmosphere
    {
        type            calculated;
        value           nonuniform List<scalar> 
46
(
3
3
3
3
3
3
3
3
3
3
3
3
3
3
3
3
3
3
3
3
3
3
3
3
3
3
3
3
3
3
3
3
3
3
3
3
3
3
3
3
3
3
3
3
3
3
)
;
    }
    defaultFaces
    {
        type            empty;
    }
}


// ************************************************************************* //
