/*--------------------------------*- C++ -*----------------------------------*\
| =========                 |                                                 |
| \\      /  F ield         | OpenFOAM: The Open Source CFD Toolbox           |
|  \\    /   O peration     | Version:  2312                                  |
|   \\  /    A nd           | Website:  www.openfoam.com                      |
|    \\/     M anipulation  |                                                 |
\*---------------------------------------------------------------------------*/
FoamFile
{
    version     2.0;
    format      ascii;
    arch        "LSB;label=32;scalar=64";
    class       volScalarField;
    location    "5.3";
    object      p_rgh;
}
// * * * * * * * * * * * * * * * * * * * * * * * * * * * * * * * * * * * * * //

dimensions      [1 -1 -2 0 0 0 0];

internalField   nonuniform List<scalar> 
2268
(
6446.76
6417.21
6361.28
6282.36
6186.13
6078.58
5965.52
5850.61
5736.22
5624.97
5519.79
5423.31
5337.26
5262.45
5198.68
5144.74
5099.37
5061.28
5029
5001.81
4980.07
4964.79
4957.19
6452.59
6422.73
6366.15
6286.15
6188.67
6080
5966.04
5850.48
5735.48
5623.55
5517.76
5420.88
5334.65
5259.91
5196.43
5142.8
5097.73
5059.97
5027.84
5000.58
4978.6
4962.84
4955.08
6464.83
6434.16
6375.98
6293.74
6193.69
6082.5
5966.91
5850.16
5733.99
5620.68
5513.63
5415.93
5329.35
5254.79
5191.92
5138.88
5094.43
5057.36
5025.38
4998.11
4975.76
4959.25
4951.22
6483.73
6451.62
6390.89
6305.14
6201.01
6085.98
5968.14
5849.74
5731.83
5616.28
5507.18
5408.22
5321.2
5246.99
5185.07
5132.97
5089.47
5053.71
5022.05
4994.51
4971.55
4953.89
4944.95
6509.5
6475.23
6411.01
6320.75
6211.23
6091.97
5969.52
5849.11
5729.06
5610.44
5498.34
5397.19
5309.51
5236.13
5174.33
5088.46
5000.7
4928.05
4874.66
4824.85
4768.23
4713.71
4689.13
6542.33
6504.96
6435.63
6338.18
6221
6094.97
5970.29
5847.32
5618.3
5258.94
4851.49
4440.78
4031.2
3627.69
3293.22
3057.92
2880.81
2726.25
2573.55
2415.88
2290.22
2198.93
2145.4
6561.45
6504.31
6399.52
6155.45
5657.65
4985.22
4250.9
3452.21
2710.65
2135.98
1696.41
1375.15
1189.29
1143.79
1121.79
1114.46
1110.04
1107.26
1108.68
1114.66
1121.45
1124.82
1124.3
4625.59
4269.46
3570.37
2754.8
2062.35
1563.56
1241.97
1088.34
1084.68
1090.07
1096.04
1101.96
1106.43
1108.76
1110.78
1112.84
1115.14
1117.88
1121.18
1125.31
1130.23
1135.49
1132.45
2960.34
2945.9
2925.9
2905.39
2889.92
2879.66
2877.52
2887.98
2913.69
2961.89
3034.36
3131.77
3254.21
3379.9
3499.35
3563.84
3576.07
3555.38
3528.1
2953.37
2924.8
2894.88
2872.63
2857.72
2846.82
2842.36
2850.33
2873.33
2930.53
3015.13
3116.57
3248.81
3376.71
3510.8
3576.29
3584.53
3555.16
3522.6
2352.64
2320
2232.05
2146.03
2076.36
2033.73
2017.84
2037.21
2101.62
2191.17
2340.75
2581.36
2833.16
2982.44
3240.33
3354.9
3361.73
3279.95
3206.02
1154.24
1164.83
1182.79
1190.27
1196.76
1204.03
1212.99
1220.56
1222.19
1232.53
1254.71
1318.17
1627.66
2185.97
2515.86
2627.04
2609.29
2502.15
2387.2
1132.5
1172.5
1194.21
1205.02
1212.75
1212.79
1221.41
1237.54
1235.1
1257.82
1263.86
1256.23
1250.87
1328.73
1421.48
1600.26
1536.3
1395.35
1315.42
1137.63
1176.61
1217.95
1218.9
1216.64
1217.95
1221.32
1229.85
1237.65
1240.93
1276.35
1267.04
1262.8
1224.78
1154.61
1106.55
1165.41
1168.08
1143.19
1162.33
1183.68
1213.57
1234.17
1238.44
1220.21
1220.57
1223.62
1225.41
1230.33
1225.53
1226.54
1221.18
1204.65
1171.15
1159.59
1188.36
1195.77
1143.99
1164.1
1165.36
1186.14
1230.73
1237.72
1233.08
1220.39
1220.5
1224.26
1231.52
1229.93
1192.19
1190.4
1194.69
1185.16
1185.93
1196.55
1199.68
1147.28
1069.51
1036.08
1040.22
1046.01
1052.96
1059.86
1067.91
1076.23
1082.66
1089.27
1095.13
1100.21
1103.93
1106.35
1109.03
1111.49
1113.86
1116.22
1119.39
1123.31
1128.23
1134.54
1142.67
1029.62
1034.58
1040.77
1047.66
1056.98
1071.05
1069.72
1064.11
1064.55
1070.19
1076.86
1081.22
1080.27
1077.31
1072.81
1067.19
1064.22
1063.85
1065.76
1073.73
1088.35
1113.78
1141.52
869.765
860.631
863.716
870.339
879.108
870.654
874.497
887.858
889.802
920.356
923.408
907.571
874.36
833.174
811.768
803.056
809.916
816.734
821.515
833.039
845.998
864.535
901.12
647.335
653.046
654.398
652.37
656.18
662.404
677.788
701.417
718.026
717.617
688.153
696.356
700.869
712.839
735.615
743.796
745.338
748.753
756.7
763.949
779.793
791.131
795.674
651.424
653.176
655.828
658.477
660.217
667.767
675.102
681.323
673.41
661.099
674.434
691.597
719.522
732.824
739.93
745.097
748.843
751.759
753.497
753.746
754.543
758.611
747.166
650.473
651.382
653.571
657.041
661.546
667.241
673.567
680.466
687.269
694.416
703.164
715.009
725.355
733.605
740.557
746.198
749.929
752.403
753.114
754.373
761.372
757.897
750.716
380.662
394.411
421.14
456.539
491.069
527.885
566.158
607.239
650.837
690.675
709.938
717.315
727.02
736.647
744.716
750.005
754.316
757.178
755.436
755.004
772.094
773.145
761.806
5.68966
5.53438
5.40651
8.31999
20.7906
39.6003
67.9178
105.394
156.172
228.65
337.719
460.986
575.127
664.329
717.251
741.76
755.227
769.236
768.248
755.251
735.647
685.7
626.227
0.174685
0.177667
0.180657
0.185434
0.483869
0.784886
0.512811
0.186996
1.2822
3.90595
8.6522
32.4139
85.8676
165.561
266.327
349.53
386.319
385.575
348.117
309.545
263.65
181.503
109.589
0.163711
0.164444
0.164402
0.160654
0.151023
0.143211
0.140067
0.140403
0.139943
0.133885
0.114827
0.340621
1.69961
7.53762
6.70398
3.95773
13.9697
20.6678
15.2321
10.4489
6.30199
4.14404
0.159276
0.151284
0.151794
0.152046
0.148428
0.141203
0.135433
0.133806
0.130243
0.12336
0.114576
0.102692
0.0803037
0.0702944
0.0381083
0.0458889
0.865543
1.22876
0.381917
0.283176
0.576122
1.17059
1.75875
0.923314
0.139105
0.13954
0.139642
0.136461
0.131261
0.125078
0.121973
0.118498
0.113768
0.129588
0.120901
0.0987386
0.0753204
0.0530577
0.0434898
0.00266456
0.0303272
0.0629406
0.0344862
-0.00593526
0.018419
0.0253761
0.0325358
0.127341
0.127012
0.126086
0.122306
0.117308
0.112685
0.108502
0.103972
0.0992291
0.109604
0.102067
0.0723237
0.0572748
0.0786123
0.0746206
0.0653774
0.0146669
0.0367655
0.0552428
0.0620594
0.0587666
0.0272302
0.00514981
0.116248
0.115515
0.113677
0.110666
0.106998
0.102623
0.0973118
0.0907116
0.0828691
0.0728467
0.0618557
0.0506308
0.0420092
0.0571642
0.072273
0.0708335
0.0498887
0.00888235
0.0143015
0.0492029
0.0664849
0.0224693
0.0112679
0.106255
0.105426
0.103693
0.101094
0.0977115
0.0934794
0.0883208
0.0821722
0.0748951
0.0664994
0.0572539
0.0475762
0.0375243
0.0275776
0.027162
0.0130089
0.0151274
0.0263449
0.0767343
0.17041
0.179264
0.115372
0.0969361
0.0971364
0.0963198
0.0947258
0.0923395
0.0891742
0.0852066
0.0804067
0.0747803
0.0682888
0.0609982
0.0530911
0.044823
0.0364621
0.0282595
0.0207727
0.0156925
0.0256359
0.0648719
0.131382
0.181309
0.202325
0.268844
0.24949
0.0888192
0.0880429
0.0865596
0.0843355
0.0813947
0.0777368
0.073363
0.0682724
0.0625023
0.0561256
0.0492886
0.0421932
0.0350659
0.0281546
0.0213754
0.0163369
0.0141157
0.0209323
0.0394668
0.0906461
0.232367
0.286847
0.270867
0.0812232
0.0804876
0.0791106
0.0770555
0.0743482
0.0710002
0.0670322
0.0624636
0.0573358
0.0517264
0.0457552
0.0395749
0.033349
0.0272423
0.0213681
0.0160621
0.0111924
0.00673089
0.00245271
0.000694838
0.140842
0.282419
0.126138
0.0742895
0.0735947
0.0723217
0.0704323
0.067956
0.064911
0.0613241
0.057226
0.0526601
0.0476966
0.0424333
0.036987
0.0314807
0.0260365
0.020765
0.0157934
0.011129
0.00673353
0.00259967
-0.000335393
0.00790099
0.00552733
-0.0035787
0.0679583
0.067303
0.0661304
0.0643992
0.0621424
0.0593818
0.0561452
0.0524661
0.0483892
0.0439762
0.0393048
0.0344648
0.0295509
0.024656
0.0198619
0.0152398
0.0108178
0.00667832
0.00322322
0.00159409
-3.02481e-05
-0.00472257
-0.0118061
0.0621704
0.0615544
0.060475
0.0588912
0.056838
0.0543372
0.0514174
0.0481117
0.0444618
0.0405207
0.0363512
0.0320232
0.0276092
0.0231774
0.0187873
0.0144816
0.0102786
0.00623397
0.00289321
0.00381894
0.00128502
-0.00665179
-0.0122257
0.0568718
0.0562924
0.0553002
0.0538526
0.0519844
0.0497189
0.0470833
0.0441083
0.0408317
0.0372983
0.0335594
0.0296703
0.025686
0.0216575
0.0176274
0.0136242
0.00965777
0.00572862
0.00195398
-0.00121998
-6.51704e-06
-0.00314891
-0.00936261
0.0520091
0.0514636
0.0505521
0.0492289
0.0475297
0.0454761
0.0430939
0.0404119
0.0374633
0.0342858
0.0309214
0.0274138
0.0238056
0.0201354
0.0164344
0.0127237
0.00901131
0.00529194
0.001545
-0.00223751
-0.00524719
-0.00380162
-0.00787566
0.0475344
0.0470201
0.0461822
0.0449729
0.0434265
0.0415632
0.0394073
0.0369851
0.0343266
0.0314629
0.0284284
0.025258
0.021985
0.0186389
0.0152435
0.0118145
0.00835905
0.00487545
0.00135674
-0.00221435
-0.00583955
-0.00841336
-0.0108331
0.0434002
0.042915
0.0421456
0.0410405
0.0396328
0.0379408
0.035987
0.0337966
0.0313968
0.0288126
0.0260723
0.0232041
0.0202342
0.0171855
0.0140765
0.0109197
0.00772155
0.00448256
0.00120028
-0.00212379
-0.00549639
-0.00894924
-0.0117133
0.0395653
0.0391079
0.0384025
0.0373934
0.0361118
0.0345738
0.0328015
0.0308194
0.0286524
0.0263198
0.0238449
0.0212507
0.018558
0.0157849
0.012946
0.0100519
0.00710903
0.00411991
0.00108591
-0.00198892
-0.00510086
-0.00821087
-0.0113524
0.035987
0.0355597
0.0349157
0.0339951
0.0328277
0.0314409
0.0298209
0.0280296
0.0260748
0.0239713
0.0217385
0.0193953
0.0169584
0.0144423
0.0118589
0.00921733
0.00652432
0.00378436
0.001002
-0.00181494
-0.0046601
-0.00753014
-0.0103742
0.0326352
0.0322333
0.0316501
0.0308149
0.0297623
0.0286078
0.0270172
0.0254052
0.0236472
0.0217551
0.0197456
0.0176343
0.015435
0.0131596
0.0108181
0.00841847
0.0059675
0.00347116
0.00093641
-0.00162676
-0.00421011
-0.00680419
-0.00937584
0.0294891
0.0290987
0.0285741
0.0282269
0.028151
0.0259379
0.0243728
0.0229259
0.021354
0.0196602
0.0178592
0.015964
0.0139864
0.0119371
0.00982442
0.00765564
0.00543735
0.00317635
0.00088102
-0.00143749
-0.00376937
-0.0061033
-0.00840328
0.0265086
0.0261246
0.0258435
0.0274259
0.0267144
0.0231455
0.0218632
0.0205756
0.0191818
0.0176769
0.0160726
0.0143803
0.0126108
0.0107739
0.00887741
0.00692801
0.004932
0.00289641
0.000830112
-0.00125538
-0.00334917
-0.00543849
-0.00748906
0.0236514
0.0232885
0.024043
0.0254323
0.0242512
0.0205013
0.0194638
0.0183409
0.01712
0.0157966
0.0143795
0.0128787
0.0113051
0.00966812
0.00797571
0.00623412
0.00444936
0.00262823
0.000779557
-0.00108528
-0.00295521
-0.00481707
-0.00663812
0.0208928
0.0206167
0.0223795
0.0226905
0.020144
0.0180645
0.0171698
0.0162122
0.0151602
0.0140117
0.0127732
0.0114542
0.0100655
0.00861708
0.00711719
0.00557208
0.0039874
0.00236952
0.000726809
-0.000929918
-0.00258994
-0.0042403
-0.00585
0.0182272
0.0181861
0.0203305
0.02001
0.0166616
0.0157435
0.0149796
0.0141839
0.0132964
0.0123156
0.0112471
0.0101005
0.00888693
0.00761682
0.00629885
0.00493951
0.00354413
0.00211856
0.000670461
-0.000790309
-0.00225364
-0.00370677
-0.00512097
0.0156568
0.0158566
0.0181188
0.0173142
0.0142286
0.013514
0.0129008
0.0122555
0.0115245
0.0107022
0.0097943
0.00881089
0.0077633
0.00666222
0.00551663
0.00433331
0.00311734
0.00187387
0.000609681
-0.000666442
-0.00194503
-0.00321387
-0.00444641
0.0132183
0.0136159
0.0159538
0.0146475
0.0119706
0.0114294
0.0109511
0.0104282
0.00984023
0.00916466
0.0084069
0.00757729
0.0066872
0.00574699
0.00476553
0.0037497
0.00270441
0.00163391
0.000543984
-0.000557549
-0.00166198
-0.00275775
-0.00382104
0.0108938
0.0113983
0.0143286
0.0114616
0.00974739
0.00946958
0.00910891
0.00870009
0.00823814
0.00769516
0.00707601
0.00639079
0.00565029
0.00486392
0.00403974
0.00318431
0.00230231
0.00139716
0.000473261
-0.000462416
-0.0014019
-0.00233459
-0.00323897
0.00876977
0.00955078
0.0117527
0.00969908
0.00779248
0.00762045
0.00736881
0.0070636
0.00670886
0.00628348
0.00579124
0.0052414
0.00464339
0.00400496
0.00333273
0.00263221
0.00190759
0.00116167
0.000397395
-0.000379618
-0.0011619
-0.00193963
-0.0026941
0.0068281
0.0081382
0.0099043
0.00830439
0.00608313
0.00592577
0.00572464
0.00550362
0.00523898
0.00491678
0.00454076
0.0041183
0.00365669
0.00316149
0.00263732
0.00208799
0.00151664
0.000925459
0.000316142
-0.000307599
-0.000938667
-0.00156826
-0.00217993
0.00504752
0.00632148
0.0075923
0.00661746
0.00459674
0.0043529
0.00416345
0.00400411
0.00381351
0.00358208
0.00331311
0.00301116
0.00268075
0.00232496
0.00194605
0.00154577
0.00112556
0.000686529
0.000229251
-0.000244496
-0.000728652
-0.00121484
-0.00168954
0.0033873
0.00409988
0.00507602
0.00435568
0.00314899
0.00283363
0.00267248
0.00255511
0.00242232
0.00227065
0.00210072
0.00191306
0.00170889
0.00148865
0.00125235
0.000999613
0.000729839
0.000442366
0.000136201
-0.000188641
-0.000528158
-0.000874554
-0.00121676
0.00189356
0.00214836
0.00353508
0.00250726
0.00155428
0.00136423
0.00123102
0.001131
0.00104748
0.000968882
0.000893136
0.000815628
0.000733975
0.000646045
0.000549917
0.000443582
0.0003247
0.000190599
3.79048e-05
-0.000136491
-0.000331067
-0.000538452
-0.000750089
0.000567186
0.000570173
0.0012348
0.000679651
3.27658e-05
-9.80731e-05
-0.000253329
-0.000336392
-0.000369377
-0.000369819
-0.00034782
-0.000312782
-0.000270322
-0.00022486
-0.000179856
-0.000138364
-0.000103623
-7.93658e-05
-7.15565e-05
-8.80784e-05
-0.000133239
-0.000200636
-0.000283499
1148.65
1151.55
1154.02
1158.77
1157.54
1155.08
1154.78
1167.13
944.047
952.44
955.13
973.617
798.802
802.093
761.589
753.382
738.928
744.584
751.981
753.893
750.967
749.491
748.34
750.173
758.4
752.133
748.562
744.854
598.932
591.238
587.121
583.921
83.3345
69.7232
63.8192
63.4605
0.0676393
0.0459026
0.0235349
0.0031114
0.0792297
0.0178434
0.00476145
-0.00864447
0.0449627
0.0562858
0.0347497
0.012353
-0.00240344
-0.00478071
-0.00718859
-0.0101515
0.00459792
-0.00286088
-0.0103183
-0.0140911
0.031812
-0.00515159
-0.0147077
-0.0177923
0.0673263
-0.0121734
-0.0174556
-0.015112
0.0960084
-0.00909172
-0.0103034
-0.0172129
0.130484
0.188545
0.0617533
-0.00578674
0.0689567
0.257847
0.283758
0.28549
-0.0161159
-0.0157143
0.0882353
0.185412
-0.0174162
-0.0203046
-0.0230621
-0.0141146
-0.0164064
-0.0193055
-0.0219806
-0.0247888
-0.0137126
-0.0182133
-0.0199081
-0.0224856
-0.0124788
-0.0148129
-0.0191623
-0.0211377
-0.0139119
-0.0154112
-0.0173199
-0.0196759
-0.0134244
-0.0148717
-0.0165306
-0.018037
-0.0124501
-0.0137668
-0.0150605
-0.0163835
-0.011231
-0.0124096
-0.0135688
-0.0147171
-0.0100607
-0.0111092
-0.0121352
-0.0131518
-0.00896191
-0.00989251
-0.0108016
-0.0117014
-0.00794276
-0.00876585
-0.00956916
-0.0103642
-0.0070005
-0.00772573
-0.00843258
-0.00913224
-0.0061298
-0.00676488
-0.00738351
-0.00799594
-0.00532386
-0.00587579
-0.00641263
-0.00694397
-0.00457635
-0.00505053
-0.0055113
-0.00596707
-0.00387984
-0.00428154
-0.0046709
-0.00505536
-0.00322725
-0.00356048
-0.00388277
-0.00419983
-0.00261106
-0.00287988
-0.00313863
-0.00339155
-0.00202322
-0.00223062
-0.00242929
-0.0026214
-0.00145725
-0.00160615
-0.0017472
-0.00188107
-0.000899673
-0.000991607
-0.00107785
-0.00115788
-0.00034626
-0.000384037
-0.000418632
-0.000448731
1164.94
1166.99
1173.24
1215.32
1233.81
1223.73
1214.56
1221.4
1227.42
1239.98
1243.61
1181.74
1173.18
1192.08
1174.08
1187.49
1194.39
1185.51
1167.37
1162.56
1147.25
1154.09
1149.97
1195.11
1219.31
1223.16
1225.24
1230.96
1304.3
1266.86
1185.69
1160.57
1179.07
1170.63
1200.2
1200.41
1178.34
1177.59
954.411
941.476
995.254
1013.22
1139.26
1163.88
1193.13
1245.27
1303.45
1242.22
1248
1307.05
1188.29
1186
1185.59
1181.35
1111.91
1088.67
1096.1
786.97
858.924
821.119
842.411
915.631
1019.32
1092.36
1165.89
1120.27
1051.6
1051.62
1066.21
1136.34
1132.52
1143.71
947.426
864.619
853.283
848.674
759.853
799.662
832.979
803.242
764.66
769.978
796.063
828.095
851.335
929.963
1025.52
987.937
884.367
837.276
821.813
778.154
786.358
772.068
772.138
750.17
750.321
771.456
774.612
768.292
773.651
779.285
782.409
786.103
789.72
794.512
778.089
775.361
769.295
761.665
761.117
756.575
752.046
781.362
742.231
743.443
773.033
785.004
782.98
771.574
775.753
785.339
796.426
796.822
788.591
781.29
772.249
767.368
762.103
754.471
748.142
756.563
814.541
593.344
625.022
659.573
732.661
772.544
785.374
781.622
785.307
816.96
841.54
834.147
788.847
757.989
710.2
643.21
573.326
507.646
446.392
389.797
66.8932
91.9653
123.663
177.912
284.157
403.992
532.307
634.033
666.647
692.37
580.195
467.814
328.74
194.642
124.767
92.0504
78.5066
88.6349
127.906
-0.0145081
0.30046
3.29324
3.66181
7.19645
14.6294
24.1171
57.6307
116.68
165.369
162.073
94.4752
41.5137
11.5916
7.25986
4.9367
2.90256
2.14179
6.90561
-0.026094
-0.0315882
-0.0455621
-0.0591914
-0.0948869
-0.138685
0.353147
0.516066
2.07835
11.6673
16.0401
17.0128
10.0867
0.412328
0.324791
0.319601
0.51777
0.790689
0.383347
-0.0136235
-0.02741
-0.0459347
-0.0655512
-0.0518605
-0.0985273
-0.201213
-0.246214
-0.120439
0.333977
0.553051
-0.388817
-0.138642
0.173169
0.250401
0.307456
0.359093
0.372164
0.344976
-0.0157824
-0.0253351
-0.0407835
-0.0507226
-0.00112755
-0.0325779
-0.0534476
0.0732282
0.0477127
-0.0843544
-0.406874
-0.411877
-0.219725
0.0559844
0.204874
0.259208
0.349634
0.323257
0.296225
-0.0159068
-0.0232148
-0.0392995
-0.0604128
-0.0671556
-0.0553659
-0.0414449
-0.0837739
0.0118315
0.0699485
-0.230995
-0.297314
-0.169946
0.0627459
0.167406
0.218791
0.307213
0.296905
0.258088
-0.0125701
-0.025083
-0.0502436
-0.0672326
-0.073707
-0.0533378
-0.0967426
-0.145191
-0.154262
-0.105481
-0.176366
-0.209373
-0.130311
-0.0150985
0.140901
0.19032
0.214564
0.204165
0.181524
-0.0154782
-0.0315904
-0.0483549
-0.0604005
-0.0752685
-0.0819318
-0.0954984
-0.112172
-0.113494
-0.127156
-0.169685
-0.144193
-0.0878872
-0.035643
0.0252315
0.169819
0.105901
0.128442
0.122983
-0.0230311
-0.0328658
-0.0322467
-0.0333866
-0.0583756
-0.0693468
-0.0337636
-0.02911
-0.0486852
-0.0648134
-0.0112989
0.0170224
0.0142769
0.0195708
0.0306212
0.103964
0.0753801
0.054704
0.0817265
-0.00954285
-0.0239522
0.0284916
0.073553
0.0390412
0.0220867
0.0213286
-0.00413679
0.00415195
0.00649669
0.0375916
0.0702518
0.0958962
0.0886479
0.0653373
0.0554058
0.0543298
0.0503785
0.0500269
0.144436
0.0371013
0.130119
0.117478
0.0649575
0.0599801
0.0667533
0.0815861
0.0883038
0.0905541
0.0779578
0.0890141
0.115666
0.0671928
0.055909
0.0366434
0.0400976
0.0556704
0.0665697
0.166602
0.23386
0.211408
0.16249
0.0487435
0.0651626
0.05973
0.0114962
0.0374758
0.0133985
0.00243989
-0.00710555
0.0353732
0.0467672
0.0453628
0.0249976
0.0329874
0.0478921
0.0656906
0.0757125
0.192156
0.208637
0.0819612
-0.0123881
0.0161044
0.0225897
0.0171041
0.00959879
-0.0333615
-0.0468573
-0.0419002
-0.0293535
0.0237163
0.0347059
0.0376404
0.0266951
0.0275178
0.0530448
-0.0274944
-0.0114366
-0.011856
-0.0314354
-0.0390508
-0.035081
-0.0248028
-0.0169605
-0.0221323
-0.0328746
-0.0404695
-0.0364056
-0.0306582
-0.0221595
-0.00345205
0.0314302
0.0106356
0.00388888
0.0050194
-0.0272642
-0.0331664
-0.0375393
-0.0409401
-0.0440185
-0.0463855
-0.0475191
-0.0458209
-0.0429193
-0.0402371
-0.0364939
-0.0326937
-0.0282949
-0.0239117
-0.0198907
-0.0110188
-0.00979652
-0.00772225
-0.00132146
-0.0246564
-0.029296
-0.0332465
-0.0363681
-0.0391102
-0.0412858
-0.04225
-0.0416157
-0.0398105
-0.0370487
-0.0337602
-0.0302546
-0.0267534
-0.0232623
-0.0199664
-0.0166786
-0.0135947
-0.0102371
-0.00367676
-0.0224972
-0.0264347
-0.0296905
-0.0324365
-0.0347339
-0.0364409
-0.0372279
-0.0369539
-0.0356686
-0.0336334
-0.0311282
-0.0283795
-0.0255589
-0.0227343
-0.0200874
-0.017452
-0.0145569
-0.00995236
-0.00487129
-0.0205586
-0.0237717
-0.0265715
-0.0289736
-0.0309258
-0.0323229
-0.033025
-0.0329606
-0.0321006
-0.0306409
-0.0287751
-0.0266669
-0.0244412
-0.0221805
-0.0200164
-0.0172976
-0.0147251
-0.0103599
-0.00926165
-0.0185358
-0.0212958
-0.0237474
-0.0258411
-0.0275206
-0.0287221
-0.0293731
-0.0294317
-0.0289
-0.0278882
-0.0265344
-0.0249615
-0.0232557
-0.0214787
-0.0196791
-0.0174988
-0.0146044
-0.0105288
-0.0116131
-0.0166107
-0.0190213
-0.0211653
-0.0229955
-0.0244648
-0.0255303
-0.026152
-0.0263145
-0.026015
-0.0253412
-0.0243849
-0.0232345
-0.0219493
-0.0205699
-0.0190856
-0.0175421
-0.0151135
-0.0111563
-0.0137751
-0.0148241
-0.0169391
-0.0188191
-0.020427
-0.0217259
-0.0226862
-0.0232866
-0.0235233
-0.023403
-0.022984
-0.0223287
-0.021497
-0.0205262
-0.0194441
-0.0182351
-0.0168146
-0.015544
-0.0142141
-0.0137745
-0.0131793
-0.0150384
-0.0166905
-0.0181072
-0.0192613
-0.0201338
-0.020714
-0.0210034
-0.0210146
-0.0207846
-0.0203522
-0.0197484
-0.0189868
-0.0181011
-0.0171027
-0.0158272
-0.0151301
-0.0142056
-0.0133041
-0.0116677
-0.0133012
-0.014753
-0.016001
-0.0170269
-0.0178192
-0.0183737
-0.0186956
-0.0187973
-0.018699
-0.0184246
-0.0179863
-0.0173371
-0.0164764
-0.0155512
-0.0146375
-0.0141039
-0.0128291
-0.0123957
-0.0102782
-0.0117089
-0.0129801
-0.0140757
-0.0149835
-0.0156973
-0.0162166
-0.0165484
-0.0167031
-0.0166766
-0.0165035
-0.0161667
-0.0156139
-0.0147639
-0.0140145
-0.0133511
-0.0111091
-0.00959888
-0.0115219
-0.00899704
-0.0102431
-0.0113491
-0.0123036
-0.0130989
-0.0137313
-0.0142023
-0.0145177
-0.0146943
-0.0146715
-0.0145565
-0.014281
-0.013811
-0.0131387
-0.0118197
-0.00971617
-0.00796326
-0.00840956
-0.0105791
-0.00781147
-0.00888695
-0.00983973
-0.0106616
-0.0113474
-0.0118952
-0.012305
-0.0125742
-0.0126831
-0.0126361
-0.0124385
-0.0123607
-0.011945
-0.0113628
-0.0101662
-0.00732072
-0.00665773
-0.00780374
-0.0098621
-0.00670951
-0.00762613
-0.00843514
-0.00913107
-0.00971113
-0.0101745
-0.0105206
-0.0107454
-0.0108366
-0.0107502
-0.010086
-0.00908646
-0.0101166
-0.0095308
-0.00904659
-0.00709448
-0.00536845
-0.00834859
-0.00872536
-0.00568027
-0.00644774
-0.00712119
-0.00769763
-0.00817639
-0.00855801
-0.00884231
-0.00902547
-0.00909333
-0.00901843
-0.00870046
-0.00229952
0.0047049
-0.00569361
-0.00709576
-0.00729091
-0.00723829
-0.00744658
-0.00524816
-0.00471345
-0.00534053
-0.00588598
-0.00634917
-0.00673173
-0.00703604
-0.00726356
-0.00741199
-0.00747064
-0.0074261
-0.00723166
-0.00231804
0.00813528
0.00871359
-0.00505997
-0.00447377
-0.00680769
-0.00616392
0.00260069
-0.00379963
-0.00429437
-0.0047191
-0.00507557
-0.00536746
-0.00559887
-0.00577352
-0.0058927
-0.00595141
-0.00593619
-0.00581789
-0.00517296
0.00406823
0.0116395
0.0109849
-0.00123401
-0.00585035
-0.00547105
0.00549163
-0.00292954
-0.00329983
-0.0036115
-0.00386852
-0.00407593
-0.00423919
-0.00436411
-0.00445561
-0.00451161
-0.00453095
-0.00452664
-0.00452729
-0.00377939
0.00953059
0.0148764
0.00986641
0.00170878
-0.00559096
0.0100741
-0.00209396
-0.00234801
-0.00255572
-0.00272213
-0.00285244
-0.0029527
-0.00303035
-0.00309382
-0.00313351
-0.00315941
-0.00318242
-0.00321942
-0.00325124
-0.00157968
0.01404
0.0171651
0.0095147
0.000828543
0.0127645
-0.00128384
-0.00143131
-0.0015451
-0.00163048
-0.0016922
-0.00173632
-0.00177166
-0.00181485
-0.00182406
-0.00184259
-0.0018741
-0.00192326
-0.00201441
-0.00221801
0.000442827
0.0147686
0.018983
0.00718463
0.0106662
-0.000493005
-0.000540626
-0.000567601
-0.000578875
-0.000578322
-0.000570072
-0.000555637
-0.000530334
-0.000541735
-0.000559183
-0.000595412
-0.000661918
-0.000779149
-0.00102528
-0.0015833
-0.00102752
0.00154396
0.00222179
-0.00160307
)
;

boundaryField
{
    leftWall
    {
        type            fixedFluxPressure;
        gradient        uniform 0;
        value           nonuniform List<scalar> 
50
(
6446.76
6452.59
6464.83
6483.73
6509.5
6542.33
6561.45
4625.59
1069.51
1029.62
869.765
647.335
651.424
650.473
380.662
5.68966
0.174685
0.163711
0.151284
0.139105
0.127341
0.116248
0.106255
0.0971364
0.0888192
0.0812232
0.0742895
0.0679583
0.0621704
0.0568718
0.0520091
0.0475344
0.0434002
0.0395653
0.035987
0.0326352
0.0294891
0.0265086
0.0236514
0.0208928
0.0182272
0.0156568
0.0132183
0.0108938
0.00876977
0.0068281
0.00504752
0.0033873
0.00189356
0.000567186
)
;
    }
    rightWall
    {
        type            fixedFluxPressure;
        gradient        uniform 0;
        value           nonuniform List<scalar> 
50
(
3528.1
3522.6
3206.02
2387.2
1315.42
1143.19
1143.99
1147.28
1167.37
1177.59
1096.1
848.674
772.138
781.362
814.541
389.797
127.906
6.90561
0.383347
0.344976
0.296225
0.258088
0.181524
0.122983
0.0817265
0.0500269
0.0665697
0.0656906
0.0530448
0.0050194
-0.00132146
-0.00367676
-0.00487129
-0.00926165
-0.0116131
-0.0137751
-0.0137745
-0.0133041
-0.0123957
-0.0115219
-0.0105791
-0.0098621
-0.00872536
-0.00524816
0.00260069
0.00549163
0.0100741
0.0127645
0.0106662
-0.00160307
)
;
    }
    lowerWall
    {
        type            fixedFluxPressure;
        gradient        uniform 0;
        value           nonuniform List<scalar> 
62
(
6446.76
6417.21
6361.28
6282.36
6186.13
6078.58
5965.52
5850.61
5736.22
5624.97
5519.79
5423.31
5337.26
5262.45
5198.68
5144.74
5099.37
5061.28
5029
5001.81
4980.07
4964.79
4957.19
4957.19
4955.08
4951.22
4944.95
4689.13
2145.4
1124.3
1132.45
1148.65
1151.55
1154.02
1158.77
2960.34
2953.37
2352.64
1154.24
1132.5
1137.63
1162.33
1164.1
2960.34
2945.9
2925.9
2905.39
2889.92
2879.66
2877.52
2887.98
2913.69
2961.89
3034.36
3131.77
3254.21
3379.9
3499.35
3563.84
3576.07
3555.38
3528.1
)
;
    }
    atmosphere
    {
        type            totalPressure;
        rho             rho;
        psi             none;
        gamma           1;
        p0              uniform 0;
        value           nonuniform List<scalar> 
46
(
0
0
0
-9.26155e-05
-0.000638382
-0.000960188
-0.00112672
-0.00117569
-0.00115672
-0.00110062
-0.00101843
-0.00091913
-0.000808877
-0.000692551
-0.000573952
-0.000456321
-0.000342638
-0.0002363
-0.000141782
-6.88847e-05
-2.95766e-05
-1.90058e-05
-2.59338e-05
-4.74485e-05
-6.4918e-05
-8.31548e-05
-9.65404e-05
-0.000103609
-0.00010762
-9.49105e-05
-7.13282e-05
-4.35624e-05
-1.8409e-05
-2.47718e-06
0
0
0
0
0
0
0
0
0
0
0
0
)
;
    }
    defaultFaces
    {
        type            empty;
    }
}


// ************************************************************************* //
