/*--------------------------------*- C++ -*----------------------------------*\
| =========                 |                                                 |
| \\      /  F ield         | OpenFOAM: The Open Source CFD Toolbox           |
|  \\    /   O peration     | Version:  2312                                  |
|   \\  /    A nd           | Website:  www.openfoam.com                      |
|    \\/     M anipulation  |                                                 |
\*---------------------------------------------------------------------------*/
FoamFile
{
    version     2.0;
    format      ascii;
    arch        "LSB;label=32;scalar=64";
    class       surfaceScalarField;
    location    "5.3";
    object      phi;
}
// * * * * * * * * * * * * * * * * * * * * * * * * * * * * * * * * * * * * * //

dimensions      [0 3 -1 0 0 0 0];

oriented        oriented;

internalField   nonuniform List<scalar> 
4432
(
1.14279e-06
-1.14279e-06
1.73815e-06
-5.95355e-07
2.2244e-06
-4.86252e-07
2.56245e-06
-3.38046e-07
2.73417e-06
-1.71725e-07
2.71801e-06
1.61624e-08
2.56712e-06
1.50893e-07
2.31874e-06
2.48382e-07
1.95281e-06
3.6593e-07
1.52059e-06
4.3222e-07
1.06134e-06
4.59246e-07
6.14951e-07
4.46393e-07
1.9367e-07
4.21284e-07
-1.84572e-07
3.78244e-07
-4.81101e-07
2.9653e-07
-6.9441e-07
2.1331e-07
-8.4052e-07
1.46111e-07
-9.27994e-07
8.74736e-08
-9.56507e-07
2.85131e-08
-9.34677e-07
-2.18298e-08
-8.76096e-07
-5.85819e-08
-7.1794e-07
-1.58157e-07
-7.1794e-07
6.32003e-07
-1.77481e-06
1.24302e-06
-1.20639e-06
1.75515e-06
-9.98384e-07
2.13138e-06
-7.14287e-07
2.33743e-06
-3.77786e-07
2.35465e-06
-1.06393e-09
2.21086e-06
2.94666e-07
1.99524e-06
4.63992e-07
1.64971e-06
7.11454e-07
1.22673e-06
8.55196e-07
7.8916e-07
8.96811e-07
3.58111e-07
8.77442e-07
-4.79052e-08
8.27301e-07
-4.12352e-07
7.42694e-07
-6.85253e-07
5.69433e-07
-8.6738e-07
3.9544e-07
-9.78316e-07
2.57048e-07
-1.02644e-06
1.35594e-07
-1.00382e-06
5.89788e-09
-9.14801e-07
-1.10854e-07
-7.79533e-07
-1.93851e-07
-5.40744e-07
-3.96948e-07
-1.25869e-06
4.5036e-07
-2.22517e-06
1.03447e-06
-1.79049e-06
1.53743e-06
-1.50135e-06
1.91424e-06
-1.09109e-06
2.11883e-06
-5.82379e-07
2.13352e-06
-1.57473e-08
1.97933e-06
4.48854e-07
1.77935e-06
6.63965e-07
1.43244e-06
1.05837e-06
9.98161e-07
1.28947e-06
5.5896e-07
1.33601e-06
1.29099e-07
1.3073e-06
-2.7477e-07
1.23117e-06
-6.40847e-07
1.10877e-06
-8.92283e-07
8.20871e-07
-1.0391e-06
5.42261e-07
-1.10674e-06
3.24691e-07
-1.10449e-06
1.33335e-07
-1.00891e-06
-8.96777e-08
-8.30316e-07
-2.89449e-07
-6.2618e-07
-3.97987e-07
-3.56554e-07
-6.66574e-07
-1.61524e-06
4.47292e-07
-2.67248e-06
1.02612e-06
-2.36933e-06
1.54177e-06
-2.01701e-06
1.93626e-06
-1.48559e-06
2.12336e-06
-7.69491e-07
2.09729e-06
1.03227e-08
1.92289e-06
6.2325e-07
1.70482e-06
8.82029e-07
1.36159e-06
1.40159e-06
9.29237e-07
1.72182e-06
4.54054e-07
1.81119e-06
4.45059e-09
1.7569e-06
-4.2414e-07
1.65976e-06
-8.27581e-07
1.51221e-06
-1.07367e-06
1.06696e-06
-1.20002e-06
6.68612e-07
-1.22457e-06
3.49242e-07
-1.14668e-06
5.5442e-08
-9.29451e-07
-3.06906e-07
-5.94571e-07
-6.2433e-07
-2.98918e-07
-6.93641e-07
-4.65471e-08
-9.18946e-07
-1.66179e-06
6.1431e-07
-3.28679e-06
1.26149e-06
-3.01651e-06
1.83543e-06
-2.59095e-06
2.28051e-06
-1.93067e-06
2.48949e-06
-9.78471e-07
2.3782e-06
1.21613e-07
2.14944e-06
8.52015e-07
1.97116e-06
1.06031e-06
1.65499e-06
1.71776e-06
1.21372e-06
2.16308e-06
6.98772e-07
2.32614e-06
1.78043e-07
2.27763e-06
-3.45844e-07
2.18365e-06
-9.23842e-07
2.09021e-06
-1.34269e-06
1.48581e-06
-1.54637e-06
8.72291e-07
-1.4869e-06
2.89777e-07
-1.1823e-06
-2.49159e-07
-7.25411e-07
-7.63796e-07
-2.63105e-07
-1.08663e-06
1.74523e-07
-1.13127e-06
4.17076e-07
-1.1615e-06
-1.24471e-06
8.49336e-07
-4.13613e-06
1.68333e-06
-3.85051e-06
2.44806e-06
-3.35569e-06
3.08062e-06
-2.56323e-06
3.41557e-06
-1.31341e-06
3.41192e-06
1.2526e-07
3.00332e-06
1.26061e-06
2.27591e-06
1.78771e-06
1.59183e-06
2.40184e-06
1.02213e-06
2.73278e-06
4.82515e-07
2.86574e-06
-1.3927e-07
2.8994e-06
-8.8885e-07
2.93321e-06
-1.3833e-06
2.58465e-06
-1.78252e-06
1.88502e-06
-1.99503e-06
1.0848e-06
-1.91012e-06
2.04862e-07
-1.42917e-06
-7.30111e-07
-8.4441e-07
-1.34856e-06
-3.6351e-07
-1.56753e-06
7.77669e-08
-1.57255e-06
2.94525e-07
-1.37826e-06
-9.5019e-07
1.00906e-06
-5.14519e-06
1.88663e-06
-4.72807e-06
2.45177e-06
-3.92083e-06
2.81576e-06
-2.92721e-06
3.19173e-06
-1.68938e-06
3.65367e-06
-3.36691e-07
4.19281e-06
7.21465e-07
4.04984e-06
1.93066e-06
4.01889e-06
2.43276e-06
3.84093e-06
2.91071e-06
3.07125e-06
3.63539e-06
7.81292e-07
5.18933e-06
-2.26373e-06
5.97821e-06
-3.42527e-06
3.74616e-06
-3.4366e-06
1.89634e-06
-3.12559e-06
7.73768e-07
-2.89248e-06
-2.82595e-08
-2.86145e-06
-7.61146e-07
-3.04713e-06
-1.16288e-06
-3.11669e-06
-1.49797e-06
-2.89696e-06
-1.79228e-06
-1.8724e-06
-2.40283e-06
-2.82258e-06
1.23607e-06
-6.38124e-06
2.6293e-06
-6.12129e-06
4.12651e-06
-5.41802e-06
5.44653e-06
-4.24722e-06
6.28864e-06
-2.53149e-06
5.70839e-06
2.43564e-07
2.76232e-06
3.66753e-06
-7.32558e-07
5.42553e-06
-2.31047e-06
4.01067e-06
-2.51092e-06
3.11115e-06
-2.40862e-06
3.53308e-06
-1.8659e-06
4.64659e-06
-9.58846e-07
5.07114e-06
-2.05403e-08
2.80784e-06
9.98358e-07
8.77429e-07
1.97758e-06
-2.05458e-07
2.87084e-06
-9.21521e-07
3.45916e-06
-1.34947e-06
3.74385e-06
-1.44757e-06
3.51361e-06
-1.26773e-06
2.69152e-06
-9.70199e-07
1.72568e-06
-1.43698e-06
-1.0969e-06
5.13558e-07
-5.13562e-07
1.12171e-06
-6.08159e-07
1.50917e-06
-3.87461e-07
2.06739e-06
-5.58218e-07
2.67628e-06
-6.08886e-07
3.05991e-06
-3.83634e-07
3.10917e-06
-4.92584e-08
2.87181e-06
2.37366e-07
2.33134e-06
5.40471e-07
1.36259e-06
9.68748e-07
2.87691e-07
1.0749e-06
-6.27721e-07
9.15413e-07
-1.43787e-06
8.1015e-07
-2.44509e-06
1.00722e-06
-2.96872e-06
5.23634e-07
-3.49091e-06
5.2219e-07
-3.33818e-06
-1.52722e-07
-1.83418e-06
-1.504e-06
-1.83417e-06
1.3917e-06
-1.90527e-06
1.95491e-06
-1.17138e-06
2.22376e-06
-6.56321e-07
2.51163e-06
-8.461e-07
2.72626e-06
-8.23518e-07
2.83132e-06
-4.88704e-07
2.85549e-06
-7.3443e-08
2.66319e-06
4.2966e-07
2.50511e-06
6.9854e-07
1.78516e-06
1.68869e-06
7.49284e-07
2.11077e-06
-1.45107e-07
1.8098e-06
-1.1936e-06
1.85864e-06
-2.51181e-06
2.32543e-06
-3.36046e-06
1.37229e-06
-4.00314e-06
1.16487e-06
-3.75494e-06
-4.00914e-07
-2.0705e-06
-3.18842e-06
-3.90467e-06
3.65493e-07
-2.27078e-06
1.18912e-06
-1.99501e-06
2.45095e-06
-1.91817e-06
2.74863e-06
-1.14377e-06
2.38836e-06
-4.63255e-07
1.89832e-06
1.34261e-09
1.64003e-06
1.84845e-07
1.42898e-06
6.40711e-07
1.05405e-06
1.07347e-06
1.34184e-06
1.4009e-06
1.34941e-06
2.1032e-06
-3.78407e-07
3.53762e-06
-3.07012e-06
4.55035e-06
-4.49303e-06
3.74834e-06
-4.8542e-06
1.73347e-06
-3.83744e-06
1.48112e-07
-2.28785e-06
-1.9505e-06
-6.54133e-07
-4.82213e-06
-4.55879e-06
-7.5896e-06
5.3187e-06
-6.59756e-06
-2.98714e-06
-7.43826e-07
-7.77197e-06
3.00286e-06
-4.89053e-06
4.26107e-06
-1.72153e-06
3.40475e-06
8.57601e-07
2.3246e-06
1.26492e-06
1.36041e-06
1.60483e-06
3.87428e-07
2.04638e-06
3.97422e-06
-2.18597e-06
7.33465e-06
-1.25729e-06
3.59786e-06
7.27435e-06
-1.34381e-06
9.49199e-06
-2.84509e-06
5.2496e-06
-3.44193e-06
2.3303e-06
-1.25976e-06
-2.03407e-06
1.32571e-06
-4.53597e-06
2.02256e-06
-5.51897e-06
-2.53623e-06
-5.75024e-06
1.10689e-05
-2.26392e-06
-6.47346e-06
2.33105e-06
-1.23669e-05
5.93366e-06
-8.49313e-06
7.63496e-06
-3.4228e-06
6.07362e-06
2.41896e-06
2.25592e-06
5.08264e-06
5.41835e-07
3.31892e-06
2.79721e-06
-2.08988e-07
7.53546e-06
-6.9242e-06
1.29218e-05
-6.64358e-06
1.64222e-05
3.77389e-06
1.54212e-05
1.0493e-05
1.1723e-05
8.94785e-06
3.58633e-06
1.0467e-05
4.35361e-08
1.50875e-06
3.11736e-06
-7.60977e-06
4.48698e-06
-6.88857e-06
1.95078e-06
-1.08139e-06
1.21503e-05
3.39891e-06
-1.09538e-05
5.61861e-06
-1.45867e-05
8.50478e-06
-1.13793e-05
1.03377e-05
-5.25578e-06
1.03712e-05
2.38545e-06
8.55726e-06
6.89648e-06
7.32769e-06
4.54845e-06
8.78918e-06
-1.67053e-06
1.14396e-05
-9.57465e-06
1.47628e-05
-9.96687e-06
1.86649e-05
-1.28175e-07
2.06834e-05
8.47443e-06
1.89153e-05
1.07159e-05
1.34101e-05
1.59721e-05
6.08308e-06
8.83578e-06
6.21679e-06
-7.74349e-06
7.49057e-06
-8.16234e-06
9.44132e-06
4.65823e-06
7.49198e-06
7.99536e-06
-1.4291e-05
8.78528e-06
-1.53767e-05
1.07062e-05
-1.33004e-05
1.24883e-05
-7.03794e-06
1.33043e-05
1.5694e-06
1.34114e-05
6.78932e-06
1.33525e-05
4.60733e-06
1.39773e-05
-2.29532e-06
1.5301e-05
-1.08984e-05
1.69216e-05
-1.15876e-05
1.86935e-05
-1.90003e-06
1.92807e-05
7.88719e-06
1.70404e-05
1.29562e-05
1.10327e-05
2.19798e-05
7.16997e-06
1.26985e-05
5.91101e-06
-6.48455e-06
5.2725e-06
-7.52385e-06
1.47138e-05
1.36829e-05
-6.19099e-06
1.29577e-05
-1.35658e-05
1.17458e-05
-1.41647e-05
1.20152e-05
-1.35698e-05
1.32086e-05
-8.23138e-06
1.45855e-05
1.92513e-07
1.5304e-05
6.07078e-06
1.55612e-05
4.3501e-06
1.56725e-05
-2.40663e-06
1.63865e-05
-1.16124e-05
1.72725e-05
-1.24736e-05
1.75138e-05
-2.1413e-06
1.62668e-05
9.13411e-06
1.3461e-05
1.5762e-05
7.78339e-06
2.76574e-05
6.45857e-06
1.40233e-05
5.62373e-06
-5.6497e-06
3.74748e-06
-5.64759e-06
1.84613e-05
7.15955e-07
-7.09713e-06
2.74156e-07
-5.67942e-06
-8.58656e-07
-4.28516e-06
-1.66096e-06
-3.44487e-06
-1.71287e-06
-2.47955e-06
-1.59548e-06
1.26192e-07
-7.77005e-07
2.84907e-06
-1.64635e-09
4.65018e-06
-1.40952e-07
4.14998e-06
-2.69709e-07
3.2399e-06
-2.24633e-07
3.488e-06
4.75984e-07
3.94597e-06
1.8461e-06
3.70102e-06
2.82013e-06
1.83381e-06
4.03123e-06
-3.33674e-07
5.41695e-06
-1.59118e-06
7.30603e-06
-2.8106e-06
9.32355e-06
-3.36698e-06
1.11137e-05
-3.23768e-06
1.24625e-05
-2.61662e-06
1.32966e-05
-1.80428e-06
1.37529e-05
-1.89325e-06
-2.43195e-06
1.5088e-05
5.75765e-07
-7.67281e-06
9.40553e-07
-6.04414e-06
1.23967e-06
-4.58421e-06
1.26703e-06
-3.47219e-06
8.42867e-07
-2.05535e-06
-5.91456e-08
1.02824e-06
-5.19149e-07
3.3091e-06
-5.17968e-07
4.64902e-06
-7.30728e-08
3.7051e-06
1.11658e-06
2.05026e-06
2.02017e-06
2.58443e-06
2.77832e-06
3.18783e-06
3.28374e-06
3.19561e-06
2.87125e-06
2.24631e-06
2.8452e-06
-3.07615e-07
2.71029e-06
-1.45627e-06
3.5322e-06
-3.63251e-06
4.9186e-06
-4.75338e-06
6.69962e-06
-5.0187e-06
8.75859e-06
-4.67558e-06
1.04546e-05
-3.50027e-06
1.1181e-05
-2.61965e-06
-3.60576e-06
1.23548e-05
2.09128e-06
-9.76402e-06
4.51693e-06
-8.46971e-06
6.53386e-06
-6.60107e-06
7.46222e-06
-4.40049e-06
7.53135e-06
-2.12442e-06
6.74031e-06
1.81931e-06
7.13384e-06
2.9156e-06
8.76665e-06
3.01624e-06
9.67126e-06
2.80052e-06
8.7378e-06
2.98374e-06
5.80964e-06
5.51261e-06
3.10309e-06
5.89439e-06
6.01111e-07
5.69761e-06
-1.7993e-06
4.64674e-06
-3.31862e-06
1.21171e-06
-3.99268e-06
-7.82204e-07
-3.98708e-06
-3.63811e-06
-3.81844e-06
-4.92201e-06
-2.75818e-06
-6.07896e-06
1.02291e-07
-7.53605e-06
4.67081e-06
-8.06878e-06
8.31769e-06
-6.26653e-06
-5.06835e-06
9.7803e-06
1.06248e-06
-1.08264e-05
3.45503e-06
-1.08622e-05
5.69544e-06
-8.84142e-06
6.88528e-06
-5.59028e-06
7.98901e-06
-3.2281e-06
1.12471e-05
-1.4387e-06
1.53586e-05
-1.19585e-06
1.92263e-05
-8.51462e-07
1.98859e-05
2.14096e-06
1.58742e-05
6.99543e-06
1.04261e-05
1.09607e-05
6.1116e-06
1.02089e-05
3.29527e-06
8.51395e-06
1.53676e-06
6.40525e-06
-4.37855e-07
3.18633e-06
-2.30748e-06
1.08742e-06
-4.34679e-06
-1.59879e-06
-5.66391e-06
-3.60488e-06
-5.44211e-06
-6.30076e-06
-3.41009e-06
-9.56806e-06
1.27611e-06
-1.2755e-05
6.78894e-06
-1.17793e-05
-7.01307e-06
8.73366e-06
1.10073e-06
-1.19271e-05
2.02483e-06
-1.17863e-05
3.18504e-06
-1.00016e-05
4.61008e-06
-7.0153e-06
6.31617e-06
-4.93418e-06
8.6153e-06
-3.73782e-06
1.01732e-05
-2.7537e-06
1.03839e-05
-1.06222e-06
9.25796e-06
3.26696e-06
8.46247e-06
7.79094e-06
8.63663e-06
1.07866e-05
8.61113e-06
1.02344e-05
8.75656e-06
8.36852e-06
8.35721e-06
6.8046e-06
6.6757e-06
4.86783e-06
4.66974e-06
3.09339e-06
2.08229e-06
9.8866e-07
-2.78309e-07
-1.24428e-06
-2.58164e-06
-3.99743e-06
-4.10602e-06
-8.04367e-06
-3.40345e-06
-1.34575e-05
-9.05119e-07
-1.42777e-05
-9.72588e-06
1.8077e-06
1.13611e-06
-1.30632e-05
1.81483e-06
-1.2465e-05
2.78174e-06
-1.09685e-05
4.57314e-06
-8.80671e-06
6.37312e-06
-6.73416e-06
7.50857e-06
-4.87328e-06
7.65371e-06
-2.89884e-06
7.34995e-06
-7.58449e-07
7.90514e-06
2.71178e-06
9.17243e-06
6.52365e-06
1.06254e-05
9.33363e-06
1.07785e-05
1.00813e-05
9.70806e-06
9.43895e-06
8.11237e-06
8.40027e-06
6.15469e-06
6.82551e-06
4.26603e-06
4.98206e-06
2.46342e-06
2.79127e-06
8.46549e-07
3.7259e-07
-8.41698e-07
-2.30917e-06
-3.11173e-06
-5.77365e-06
-4.31908e-06
-1.22502e-05
-4.28209e-06
-1.43147e-05
-1.20666e-05
-1.94141e-06
1.58946e-06
-1.46527e-05
2.95776e-06
-1.38333e-05
4.74243e-06
-1.27532e-05
7.21747e-06
-1.12817e-05
9.49011e-06
-9.00679e-06
1.1175e-05
-6.55818e-06
1.21862e-05
-3.91002e-06
1.27945e-05
-1.36673e-06
1.33883e-05
2.11793e-06
1.34001e-05
6.51189e-06
1.29553e-05
9.77835e-06
1.16809e-05
1.13557e-05
9.73551e-06
1.13844e-05
7.50421e-06
1.06316e-05
5.53623e-06
8.79349e-06
4.13959e-06
6.3787e-06
3.25364e-06
3.67723e-06
2.91551e-06
7.10724e-07
2.82174e-06
-2.2154e-06
1.92387e-06
-4.87578e-06
-1.57804e-07
-1.01685e-05
-2.07523e-06
-1.23972e-05
-1.25834e-05
-1.55845e-06
-3.78552e-07
-1.42739e-05
-1.18266e-06
-1.3029e-05
-2.61349e-06
-1.13222e-05
-1.88352e-06
-1.20117e-05
1.18017e-06
-1.20705e-05
4.27834e-06
-9.65638e-06
6.91693e-06
-6.54867e-06
9.50077e-06
-3.95066e-06
1.18607e-05
-2.42018e-07
1.2972e-05
5.40053e-06
1.28146e-05
9.93569e-06
1.18503e-05
1.232e-05
1.03686e-05
1.28661e-05
8.44158e-06
1.25586e-05
7.28635e-06
9.94873e-06
7.51133e-06
6.15372e-06
8.30493e-06
2.88364e-06
8.64211e-06
3.73549e-07
8.99507e-06
-2.56836e-06
9.93895e-06
-5.81965e-06
8.18834e-06
-8.41791e-06
3.83646e-06
-8.04536e-06
-9.48926e-06
7.42338e-07
2.58301e-06
-1.68566e-05
5.64509e-06
-1.60908e-05
7.43272e-06
-1.31097e-05
7.84263e-06
-1.24215e-05
8.94745e-06
-1.31754e-05
7.57033e-06
-8.27941e-06
2.29846e-07
7.91583e-07
-5.74631e-06
2.02522e-06
-3.38634e-06
-2.60219e-06
-1.13313e-06
3.14717e-06
-9.26229e-06
1.80648e-05
-1.12039e-05
1.42616e-05
-8.57176e-06
1.0234e-05
-5.96128e-06
9.94808e-06
-4.33638e-06
8.32385e-06
-3.99822e-06
5.81559e-06
-3.12282e-06
2.00825e-06
-1.24087e-06
-1.50839e-06
2.434e-06
-6.24323e-06
1.10478e-05
-1.44334e-05
1.77566e-05
-1.51266e-05
1.43853e-05
-4.67387e-06
1.40455e-07
4.75585e-06
1.71877e-07
-1.70284e-05
7.88562e-07
-1.67074e-05
2.11899e-06
-1.44401e-05
3.35855e-06
-1.36611e-05
2.00614e-06
-1.1823e-05
1.63772e-06
-7.91113e-06
4.7948e-06
-2.3657e-06
9.01752e-06
-2.19777e-06
9.5468e-06
-3.13176e-06
1.18559e-05
8.3783e-07
1.53172e-05
1.46032e-05
6.28055e-06
2.32982e-05
-3.17124e-06
1.96857e-05
4.38713e-06
2.3897e-06
3.3029e-06
9.40811e-06
-1.77621e-05
2.68807e-05
-2.33305e-05
7.57665e-06
-1.33511e-05
-1.14877e-05
-7.87654e-06
-1.17177e-05
-3.3093e-06
-1.90004e-05
4.15962e-06
-2.2595e-05
2.04038e-05
-2.09176e-05
-7.83399e-06
2.838e-05
-7.34676e-07
-1.62937e-05
-1.18164e-06
-1.62605e-05
-1.02085e-06
-1.46009e-05
-1.24902e-06
-1.3433e-05
-1.59347e-06
-1.14787e-05
-6.09106e-07
-8.89565e-06
2.91572e-06
-5.89074e-06
5.60765e-06
-4.88994e-06
6.11064e-06
-3.63502e-06
8.48051e-06
-1.53235e-06
1.75499e-05
5.53345e-06
2.67906e-05
1.40572e-05
3.23658e-05
1.41103e-05
2.82432e-05
6.51217e-06
2.51816e-05
1.24695e-05
3.33502e-05
1.8712e-05
3.63967e-05
4.53017e-06
3.5944e-05
-1.1035e-05
4.10717e-05
-1.68451e-05
4.50462e-05
-2.29743e-05
5.17642e-05
-2.93127e-05
6.20118e-05
-3.11638e-05
-2.39404e-05
7.81185e-05
-9.23216e-07
-1.53707e-05
-1.59716e-06
-1.55867e-05
-1.97219e-06
-1.4226e-05
-2.52668e-06
-1.28786e-05
-2.77789e-06
-1.12276e-05
-2.29225e-06
-9.38147e-06
-6.02479e-07
-7.58071e-06
8.77531e-07
-6.37019e-06
2.26569e-06
-5.02346e-06
5.4484e-06
-4.71538e-06
1.23409e-05
-1.35943e-06
2.20465e-05
4.35123e-06
3.01613e-05
5.99508e-06
3.42e-05
2.47311e-06
4.25697e-05
4.0995e-06
5.55376e-05
5.74387e-06
6.19151e-05
-1.84742e-06
6.39114e-05
-1.30314e-05
6.77843e-05
-2.07178e-05
7.14095e-05
-2.6599e-05
7.39719e-05
-3.18742e-05
7.59321e-05
-3.31245e-05
-3.04033e-05
8.23953e-05
-9.99141e-07
-1.43717e-05
-1.86901e-06
-1.4717e-05
-2.62817e-06
-1.3467e-05
-3.34041e-06
-1.21666e-05
-3.70471e-06
-1.08635e-05
-3.5064e-06
-9.57997e-06
-2.6653e-06
-8.422e-06
-1.5849e-06
-7.4508e-06
-1.0658e-07
-6.50203e-06
1.59099e-06
-6.41324e-06
4.82158e-06
-4.59034e-06
1.03366e-05
-1.16417e-06
1.61526e-05
1.78758e-07
2.21568e-05
-3.53143e-06
3.10828e-05
-4.82681e-06
4.18225e-05
-4.99604e-06
4.86517e-05
-8.67681e-06
5.10665e-05
-1.54462e-05
5.26535e-05
-2.23047e-05
5.47876e-05
-2.87328e-05
5.63231e-05
-3.341e-05
5.78674e-05
-3.46681e-05
-3.3583e-05
6.10464e-05
-1.00473e-06
-1.33672e-05
-1.96406e-06
-1.37579e-05
-2.84315e-06
-1.25881e-05
-3.55634e-06
-1.14536e-05
-3.95628e-06
-1.04637e-05
-3.94883e-06
-9.58759e-06
-3.54067e-06
-8.83034e-06
-2.81849e-06
-8.17317e-06
-1.71705e-06
-7.60367e-06
-9.30979e-07
-7.19952e-06
5.84773e-07
-6.10633e-06
3.75101e-06
-4.33066e-06
7.77236e-06
-3.84286e-06
1.0726e-05
-6.4853e-06
1.486e-05
-8.96107e-06
1.97139e-05
-9.8502e-06
2.31853e-05
-1.21483e-05
2.42852e-05
-1.65463e-05
2.4836e-05
-2.28557e-05
2.60571e-05
-2.99539e-05
2.75064e-05
-3.48592e-05
2.89959e-05
-3.61583e-05
-3.56179e-05
3.10301e-05
-9.62947e-07
-1.24044e-05
-1.90338e-06
-1.28176e-05
-2.71036e-06
-1.17813e-05
-3.31663e-06
-1.08475e-05
-3.67482e-06
-1.01057e-05
-3.75571e-06
-9.50686e-06
-3.57069e-06
-9.01552e-06
-3.15213e-06
-8.59189e-06
-2.53582e-06
-8.22014e-06
-1.88758e-06
-7.84793e-06
-7.66334e-07
-7.22776e-06
1.45244e-06
-6.54962e-06
4.19807e-06
-6.5887e-06
5.83511e-06
-8.12253e-06
6.90563e-06
-1.00318e-05
7.77603e-06
-1.07208e-05
8.10518e-06
-1.24776e-05
7.88501e-06
-1.63263e-05
7.31782e-06
-2.22886e-05
6.49615e-06
-2.91323e-05
5.69907e-06
-3.40625e-05
5.77463e-06
-3.62339e-05
-3.60663e-05
6.22246e-06
-8.91663e-07
-1.15129e-05
-1.75618e-06
-1.19532e-05
-2.43949e-06
-1.10982e-05
-2.91453e-06
-1.03726e-05
-3.18472e-06
-9.83565e-06
-3.25595e-06
-9.43576e-06
-3.1487e-06
-9.12291e-06
-2.88673e-06
-8.85401e-06
-2.49864e-06
-8.60837e-06
-1.99852e-06
-8.34818e-06
-1.20496e-06
-8.02146e-06
3.45864e-08
-7.7893e-06
1.44472e-06
-7.99897e-06
2.17658e-06
-8.85453e-06
2.02312e-06
-9.87847e-06
1.73512e-06
-1.04329e-05
1.0144e-06
-1.1757e-05
-4.56921e-07
-1.48551e-05
-3.08436e-06
-1.96613e-05
-6.73673e-06
-2.548e-05
-9.60591e-06
-3.11935e-05
-1.091e-05
-3.49302e-05
-3.34757e-05
-1.35011e-05
-8.35157e-07
-1.06778e-05
-1.6331e-06
-1.11554e-05
-2.22483e-06
-1.05065e-05
-2.60534e-06
-9.99218e-06
-2.80099e-06
-9.64012e-06
-2.83978e-06
-9.39709e-06
-2.75035e-06
-9.21246e-06
-2.55668e-06
-9.0478e-06
-2.27648e-06
-8.88868e-06
-1.90143e-06
-8.72335e-06
-1.36545e-06
-8.55756e-06
-6.62982e-07
-8.49189e-06
1.41794e-08
-8.67625e-06
3.02592e-07
-9.14306e-06
1.20585e-07
-9.69658e-06
-2.14657e-07
-1.00978e-05
-1.08187e-06
-1.089e-05
-3.21478e-06
-1.27223e-05
-7.1466e-06
-1.57296e-05
-1.22862e-05
-2.03406e-05
-1.61124e-05
-2.73676e-05
-1.93284e-05
-3.17143e-05
-2.84328e-05
-2.43719e-05
-8.11469e-07
-9.86645e-06
-1.58196e-06
-1.0385e-05
-2.13873e-06
-9.94986e-06
-2.483e-06
-9.648e-06
-2.64828e-06
-9.47493e-06
-2.67148e-06
-9.37399e-06
-2.58799e-06
-9.29606e-06
-2.42492e-06
-9.21098e-06
-2.20036e-06
-9.11334e-06
-1.91338e-06
-9.01043e-06
-1.54534e-06
-8.92569e-06
-1.11816e-06
-8.91918e-06
-7.37416e-07
-9.05709e-06
-5.42964e-07
-9.33761e-06
-5.73894e-07
-9.66575e-06
-6.94206e-07
-9.97757e-06
-1.14323e-06
-1.0441e-05
-2.64427e-06
-1.12214e-05
-5.77788e-06
-1.25961e-05
-1.05971e-05
-1.55215e-05
-1.60303e-05
-2.19345e-05
-2.16413e-05
-2.61036e-05
-2.21804e-05
-2.7894e-05
-8.23679e-07
-9.04282e-06
-1.60221e-06
-9.60651e-06
-2.16611e-06
-9.38603e-06
-2.51701e-06
-9.29717e-06
-2.68699e-06
-9.30502e-06
-2.71457e-06
-9.3465e-06
-2.63925e-06
-9.37146e-06
-2.49432e-06
-9.356e-06
-2.30392e-06
-9.30382e-06
-2.07853e-06
-9.23591e-06
-1.8203e-06
-9.18401e-06
-1.54952e-06
-9.19004e-06
-1.31922e-06
-9.28748e-06
-1.18674e-06
-9.47018e-06
-1.15713e-06
-9.69544e-06
-1.19501e-06
-9.93977e-06
-1.40188e-06
-1.02342e-05
-2.04213e-06
-1.05813e-05
-3.56953e-06
-1.10688e-05
-6.59198e-06
-1.24992e-05
-1.23983e-05
-1.61284e-05
-1.94965e-05
-1.90053e-05
-1.61225e-05
-2.55547e-05
-8.58695e-07
-8.18414e-06
-1.66872e-06
-8.79651e-06
-2.26324e-06
-8.79154e-06
-2.64111e-06
-8.91934e-06
-2.83013e-06
-9.11605e-06
-2.86933e-06
-9.30736e-06
-2.80259e-06
-9.43826e-06
-2.67036e-06
-9.48829e-06
-2.50456e-06
-9.46969e-06
-2.32523e-06
-9.41531e-06
-2.14431e-06
-9.36499e-06
-1.97808e-06
-9.35634e-06
-1.85238e-06
-9.41326e-06
-1.78838e-06
-9.53425e-06
-1.78508e-06
-9.69882e-06
-1.83315e-06
-9.89177e-06
-1.96765e-06
-1.00998e-05
-2.27743e-06
-1.02715e-05
-2.97503e-06
-1.03713e-05
-4.7172e-06
-1.0757e-05
-8.88972e-06
-1.19559e-05
-1.49857e-05
-1.29096e-05
-1.15392e-05
-1.95693e-05
-9.09127e-07
-7.27501e-06
-1.76285e-06
-7.94279e-06
-2.39607e-06
-8.15833e-06
-2.80476e-06
-8.51068e-06
-3.01293e-06
-8.90792e-06
-3.06115e-06
-9.25916e-06
-2.9989e-06
-9.50056e-06
-2.87446e-06
-9.61278e-06
-2.72729e-06
-9.61691e-06
-2.58448e-06
-9.55817e-06
-2.46299e-06
-9.48654e-06
-2.37617e-06
-9.44321e-06
-2.33694e-06
-9.45255e-06
-2.35262e-06
-9.51863e-06
-2.42036e-06
-9.63113e-06
-2.53624e-06
-9.77594e-06
-2.7122e-06
-9.92393e-06
-2.97539e-06
-1.00084e-05
-3.40759e-06
-9.93915e-06
-4.3716e-06
-9.79304e-06
-6.67768e-06
-9.64994e-06
-1.04233e-05
-9.16392e-06
-8.0825e-06
-1.38803e-05
-9.65646e-07
-6.30932e-06
-1.86869e-06
-7.03972e-06
-2.54252e-06
-7.48448e-06
-2.97953e-06
-8.07366e-06
-3.20184e-06
-8.68562e-06
-3.25342e-06
-9.2076e-06
-3.19061e-06
-9.56339e-06
-3.06938e-06
-9.73404e-06
-2.93606e-06
-9.75026e-06
-2.82306e-06
-9.67121e-06
-2.74969e-06
-9.55995e-06
-2.72728e-06
-9.46566e-06
-2.76291e-06
-9.41696e-06
-2.85898e-06
-9.4226e-06
-3.01266e-06
-9.4775e-06
-3.22063e-06
-9.56801e-06
-3.48126e-06
-9.66334e-06
-3.79034e-06
-9.69937e-06
-4.15389e-06
-9.57563e-06
-4.73229e-06
-9.21463e-06
-5.79056e-06
-8.59161e-06
-7.41433e-06
-7.54029e-06
-6.13121e-06
-9.36566e-06
-1.02585e-06
-5.28344e-06
-1.97956e-06
-6.08597e-06
-2.69147e-06
-6.77254e-06
-3.1518e-06
-7.61332e-06
-3.38238e-06
-8.45503e-06
-3.43239e-06
-9.1576e-06
-3.36501e-06
-9.63078e-06
-3.24252e-06
-9.85654e-06
-3.11745e-06
-9.87536e-06
-3.02676e-06
-9.76192e-06
-2.99165e-06
-9.59509e-06
-3.02191e-06
-9.43543e-06
-3.12079e-06
-9.31811e-06
-3.28794e-06
-9.25549e-06
-3.52119e-06
-9.24428e-06
-3.81804e-06
-9.27118e-06
-4.17071e-06
-9.31069e-06
-4.56315e-06
-9.30694e-06
-4.96435e-06
-9.17443e-06
-5.36897e-06
-8.80999e-06
-5.84768e-06
-8.1129e-06
-6.33072e-06
-7.05707e-06
-5.58774e-06
-6.8743e-06
-1.08552e-06
-4.19781e-06
-2.08895e-06
-5.08247e-06
-2.83662e-06
-6.0248e-06
-3.31553e-06
-7.13437e-06
-3.55022e-06
-8.22032e-06
-3.5964e-06
-9.1114e-06
-3.52289e-06
-9.70429e-06
-3.39547e-06
-9.98397e-06
-3.2712e-06
-9.99964e-06
-3.19206e-06
-9.84108e-06
-3.18215e-06
-9.60502e-06
-3.25114e-06
-9.36646e-06
-3.39955e-06
-9.16972e-06
-3.62374e-06
-9.03131e-06
-3.91984e-06
-8.9482e-06
-4.28431e-06
-8.90672e-06
-4.71131e-06
-8.8837e-06
-5.18032e-06
-8.83794e-06
-5.65231e-06
-8.70244e-06
-6.06954e-06
-8.39271e-06
-6.35728e-06
-7.82508e-06
-6.46994e-06
-6.94457e-06
-5.71564e-06
-6.342e-06
-1.14553e-06
-3.0522e-06
-2.197e-06
-4.03092e-06
-2.97688e-06
-5.24485e-06
-3.47073e-06
-6.64047e-06
-3.70762e-06
-7.98339e-06
-3.75202e-06
-9.06698e-06
-3.67506e-06
-9.78122e-06
-3.54129e-06
-1.01177e-05
-3.41049e-06
-1.01304e-05
-3.32965e-06
-9.92192e-06
-3.32756e-06
-9.6071e-06
-3.41661e-06
-9.27742e-06
-3.59684e-06
-8.9895e-06
-3.86133e-06
-8.76683e-06
-4.20181e-06
-8.60773e-06
-4.61141e-06
-8.49712e-06
-5.08292e-06
-8.41218e-06
-5.60062e-06
-8.32023e-06
-6.12943e-06
-8.17361e-06
-6.61124e-06
-7.91088e-06
-6.95806e-06
-7.47829e-06
-7.07595e-06
-6.82647e-06
-5.90215e-06
-6.8896e-06
-1.20553e-06
-1.84652e-06
-2.30479e-06
-2.93155e-06
-3.11551e-06
-4.43405e-06
-3.62241e-06
-6.13349e-06
-3.86209e-06
-7.74366e-06
-3.91101e-06
-9.01801e-06
-3.83713e-06
-9.85507e-06
-3.69887e-06
-1.0256e-05
-3.55667e-06
-1.02726e-05
-3.46157e-06
-1.0017e-05
-3.44802e-06
-9.62065e-06
-3.53416e-06
-9.19128e-06
-3.72323e-06
-8.80043e-06
-4.00721e-06
-8.48285e-06
-4.37284e-06
-8.2421e-06
-4.80785e-06
-8.06211e-06
-5.30119e-06
-7.91883e-06
-5.83889e-06
-7.78252e-06
-6.3948e-06
-7.61769e-06
-6.92662e-06
-7.37902e-06
-7.36926e-06
-7.03557e-06
-7.63475e-06
-6.56115e-06
-5.88335e-06
-7.65343e-06
-1.27058e-06
-5.75854e-07
-2.41872e-06
-1.78331e-06
-3.26043e-06
-3.59224e-06
-3.77862e-06
-5.61522e-06
-4.02278e-06
-7.49943e-06
-4.08439e-06
-8.95635e-06
-4.02101e-06
-9.91841e-06
-3.88193e-06
-1.0395e-05
-3.72742e-06
-1.04271e-05
-3.61004e-06
-1.01344e-05
-3.56837e-06
-9.66231e-06
-3.62827e-06
-9.13137e-06
-3.80045e-06
-8.62825e-06
-4.07978e-06
-8.20352e-06
-4.45046e-06
-7.87141e-06
-4.8942e-06
-7.61836e-06
-5.39451e-06
-7.4185e-06
-5.93492e-06
-7.2421e-06
-6.49498e-06
-7.05761e-06
-7.04264e-06
-6.83135e-06
-7.53607e-06
-6.54214e-06
-7.92365e-06
-6.1733e-06
-5.66474e-06
-8.14236e-06
-1.34452e-06
7.68856e-07
-2.54543e-06
-5.82255e-07
-3.41973e-06
-2.71783e-06
-3.94716e-06
-5.08769e-06
-4.19477e-06
-7.25175e-06
-4.27786e-06
-8.8732e-06
-4.22734e-06
-9.96888e-06
-4.08952e-06
-1.05328e-05
-3.92569e-06
-1.05909e-05
-3.78542e-06
-1.02746e-05
-3.707e-06
-9.74072e-06
-3.72241e-06
-9.11595e-06
-3.85291e-06
-8.49774e-06
-4.10193e-06
-7.9545e-06
-4.4555e-06
-7.51783e-06
-4.8909e-06
-7.18295e-06
-5.3858e-06
-6.92358e-06
-5.92019e-06
-6.7077e-06
-6.47363e-06
-6.50417e-06
-7.02066e-06
-6.28427e-06
-7.53036e-06
-6.03235e-06
-7.96818e-06
-5.7357e-06
-5.3509e-06
-8.28191e-06
-1.42309e-06
2.19205e-06
-2.68626e-06
6.81038e-07
-3.59117e-06
-1.8128e-06
-4.12167e-06
-4.55709e-06
-4.38116e-06
-6.99218e-06
-4.48865e-06
-8.76564e-06
-4.44039e-06
-1.00171e-05
-4.30143e-06
-1.06717e-05
-4.1341e-06
-1.07582e-05
-3.97882e-06
-1.04299e-05
-3.86657e-06
-9.85296e-06
-3.83028e-06
-9.15223e-06
-3.9012e-06
-8.42681e-06
-4.09596e-06
-7.75973e-06
-4.40935e-06
-7.20442e-06
-4.8183e-06
-6.774e-06
-5.29547e-06
-6.44639e-06
-5.81608e-06
-6.18708e-06
-6.35768e-06
-5.96253e-06
-6.89571e-06
-5.74623e-06
-7.40735e-06
-5.52074e-06
-7.86046e-06
-5.2823e-06
-4.99977e-06
-8.21172e-06
-1.49894e-06
3.69119e-06
-2.81919e-06
2.00144e-06
-3.73844e-06
-8.93429e-07
-4.2806e-06
-4.01483e-06
-4.58192e-06
-6.69079e-06
-4.69106e-06
-8.65642e-06
-4.6242e-06
-1.00839e-05
-4.47956e-06
-1.08163e-05
-4.31701e-06
-1.09207e-05
-4.16179e-06
-1.05851e-05
-4.03081e-06
-9.98392e-06
-3.95012e-06
-9.23291e-06
-3.95574e-06
-8.42118e-06
-4.07931e-06
-7.63616e-06
-4.33054e-06
-6.95319e-06
-4.69399e-06
-6.41055e-06
-5.13955e-06
-6.00081e-06
-5.63771e-06
-5.6889e-06
-6.16188e-06
-5.43835e-06
-6.68944e-06
-5.21861e-06
-7.19512e-06
-5.01493e-06
-7.65024e-06
-4.82736e-06
-4.62727e-06
-8.0225e-06
-1.54598e-06
5.23723e-06
-2.90726e-06
3.36282e-06
-3.82008e-06
1.94969e-08
-4.39897e-06
-3.43585e-06
-4.75089e-06
-6.3388e-06
-4.82762e-06
-8.57963e-06
-4.72581e-06
-1.01857e-05
-4.57578e-06
-1.09663e-05
-4.4294e-06
-1.10671e-05
-4.29353e-06
-1.07209e-05
-4.16764e-06
-1.01098e-05
-4.06405e-06
-9.33649e-06
-4.01464e-06
-8.47059e-06
-4.06139e-06
-7.58941e-06
-4.23399e-06
-6.78058e-06
-4.53285e-06
-6.11168e-06
-4.93182e-06
-5.60184e-06
-5.39653e-06
-5.22417e-06
-5.89739e-06
-4.93744e-06
-6.40789e-06
-4.70808e-06
-6.90389e-06
-4.51891e-06
-7.35999e-06
-4.37091e-06
-4.24272e-06
-7.74453e-06
-1.51242e-06
6.74982e-06
-2.89747e-06
4.74799e-06
-3.81812e-06
9.40244e-07
-4.43741e-06
-2.81648e-06
-4.80477e-06
-5.97137e-06
-4.8275e-06
-8.55685e-06
-4.69092e-06
-1.03222e-05
-4.54514e-06
-1.11121e-05
-4.42904e-06
-1.11831e-05
-4.33248e-06
-1.08175e-05
-4.23832e-06
-1.0204e-05
-4.14185e-06
-9.43297e-06
-4.06252e-06
-8.54993e-06
-4.04263e-06
-7.60932e-06
-4.12939e-06
-6.69383e-06
-4.34683e-06
-5.89425e-06
-4.68279e-06
-5.26588e-06
-5.10249e-06
-4.80446e-06
-5.57085e-06
-4.46907e-06
-6.05836e-06
-4.2205e-06
-6.53963e-06
-4.03752e-06
-6.99188e-06
-3.91885e-06
-3.85199e-06
-7.3824e-06
-1.40512e-06
8.15498e-06
-2.75389e-06
6.09683e-06
-3.70639e-06
1.89281e-06
-4.34551e-06
-2.17731e-06
-4.67405e-06
-5.64278e-06
-4.63673e-06
-8.59413e-06
-4.48031e-06
-1.04786e-05
-4.3554e-06
-1.1237e-05
-4.28551e-06
-1.1253e-05
-4.24673e-06
-1.08563e-05
-4.20838e-06
-1.02423e-05
-4.15014e-06
-9.49123e-06
-4.07463e-06
-8.62546e-06
-4.0136e-06
-7.67037e-06
-4.02124e-06
-6.68621e-06
-4.14646e-06
-5.76905e-06
-4.4027e-06
-5.00965e-06
-4.76349e-06
-4.44368e-06
-5.18927e-06
-4.04327e-06
-5.646e-06
-3.76379e-06
-6.10676e-06
-3.57681e-06
-6.54773e-06
-3.4776e-06
-3.45811e-06
-6.9417e-06
-1.25009e-06
9.40519e-06
-2.50226e-06
7.34906e-06
-3.45062e-06
2.84122e-06
-4.07104e-06
-1.55685e-06
-4.32215e-06
-5.39165e-06
-4.22798e-06
-8.68829e-06
-4.07297e-06
-1.06336e-05
-3.9899e-06
-1.132e-05
-3.98363e-06
-1.12593e-05
-4.01829e-06
-1.08216e-05
-4.05425e-06
-1.02064e-05
-4.05996e-06
-9.48556e-06
-4.02225e-06
-8.66321e-06
-3.95572e-06
-7.73695e-06
-3.90711e-06
-6.73487e-06
-3.94084e-06
-5.73536e-06
-4.10248e-06
-4.84805e-06
-4.38857e-06
-4.15762e-06
-4.76063e-06
-3.67122e-06
-5.17893e-06
-3.34547e-06
-5.61166e-06
-3.14402e-06
-6.03506e-06
-3.05442e-06
-3.07181e-06
-6.42121e-06
-1.03571e-06
1.04409e-05
-2.14191e-06
8.45527e-06
-3.0107e-06
3.71003e-06
-3.57851e-06
-9.89033e-07
-3.73025e-06
-5.23991e-06
-3.59092e-06
-8.82763e-06
-3.46666e-06
-1.07579e-05
-3.45176e-06
-1.1335e-05
-3.52803e-06
-1.11831e-05
-3.64791e-06
-1.07018e-05
-3.768e-06
-1.00864e-05
-3.85314e-06
-9.40049e-06
-3.87967e-06
-8.63675e-06
-3.84457e-06
-7.77211e-06
-3.77553e-06
-6.80397e-06
-3.73545e-06
-5.7755e-06
-3.79553e-06
-4.78802e-06
-3.99023e-06
-3.96296e-06
-4.29467e-06
-3.3668e-06
-4.66376e-06
-2.97646e-06
-5.06107e-06
-2.74677e-06
-5.45864e-06
-2.65666e-06
-2.69623e-06
-5.83432e-06
-7.64775e-07
1.12057e-05
-1.68335e-06
9.37386e-06
-2.41713e-06
4.44381e-06
-2.865e-06
-5.4117e-07
-2.89876e-06
-5.20616e-06
-2.74229e-06
-8.98414e-06
-2.68869e-06
-1.08115e-05
-2.77238e-06
-1.12513e-05
-2.94817e-06
-1.10074e-05
-3.15813e-06
-1.04919e-05
-3.36118e-06
-9.88341e-06
-3.52684e-06
-9.23491e-06
-3.62956e-06
-8.53411e-06
-3.65357e-06
-7.74818e-06
-3.60503e-06
-6.8526e-06
-3.52616e-06
-5.85444e-06
-3.49457e-06
-4.81968e-06
-3.58368e-06
-3.8739e-06
-3.80485e-06
-3.14571e-06
-4.11501e-06
-2.66632e-06
-4.46839e-06
-2.39343e-06
-4.83319e-06
-2.29211e-06
-2.34459e-06
-5.1848e-06
-4.50357e-07
1.1656e-05
-1.14697e-06
1.00705e-05