/*--------------------------------*- C++ -*----------------------------------*\
| =========                 |                                                 |
| \\      /  F ield         | OpenFOAM: The Open Source CFD Toolbox           |
|  \\    /   O peration     | Version:  2312                                  |
|   \\  /    A nd           | Website:  www.openfoam.com                      |
|    \\/     M anipulation  |                                                 |
\*---------------------------------------------------------------------------*/
FoamFile
{
    version     2.0;
    format      ascii;
    arch        "LSB;label=32;scalar=64";
    class       volVectorField;
    location    "5.3";
    object      U;
}
// * * * * * * * * * * * * * * * * * * * * * * * * * * * * * * * * * * * * * //

dimensions      [0 1 -1 0 0 0 0];

internalField   nonuniform List<vector> 
2268
(
(0.00859171 -0.00440469 0)
(0.0166819 -0.00161836 0)
(0.0224748 -0.00114706 0)
(0.0272454 -0.00074652 0)
(0.0302074 -0.00032886 0)
(0.0311373 0.000185151 0)
(0.0301894 0.000531049 0)
(0.0278853 0.000796199 0)
(0.0243167 0.00110841 0)
(0.0196856 0.00126897 0)
(0.0145708 0.00130842 0)
(0.00941995 0.00124567 0)
(0.00450499 0.00115519 0)
(-4.68816e-05 0.00102888 0)
(-0.00387141 0.000804968 0)
(-0.00674536 0.000581425 0)
(-0.00876412 0.000409251 0)
(-0.010087 0.000271265 0)
(-0.0107687 0.000145647 0)
(-0.0108938 3.03583e-05 0)
(-0.0105551 -0.000100454 0)
(-0.00925819 -0.000520141 0)
(-0.00682134 -0.00269581 0)
(0.00271041 -0.00795199 0)
(0.011206 -0.00481653 0)
(0.0170238 -0.00402067 0)
(0.022281 -0.0028424 0)
(0.0256326 -0.00148547 0)
(0.0268439 5.06821e-05 0)
(0.026103 0.0011966 0)
(0.0241072 0.00192287 0)
(0.0208106 0.002873 0)
(0.0163527 0.00343251 0)
(0.0113881 0.00363523 0)
(0.00639481 0.00357465 0)
(0.00165895 0.00339331 0)
(-0.00272004 0.00306267 0)
(-0.00633643 0.00239116 0)
(-0.00890377 0.00170463 0)
(-0.0105494 0.0011499 0)
(-0.0114512 0.000662498 0)
(-0.0116106 0.000154526 0)
(-0.0110521 -0.000295996 0)
(-0.00990156 -0.000591739 0)
(-0.00797005 -0.00134137 0)
(-0.0040766 -0.00538434 0)
(0.000991226 -0.0111051 0)
(0.0089695 -0.00826248 0)
(0.0144355 -0.0068661 0)
(0.019788 -0.00490101 0)
(0.0232172 -0.00252993 0)
(0.0244128 -8.86487e-05 0)
(0.0235158 0.00197471 0)
(0.0215559 0.00301449 0)
(0.0183542 0.00480813 0)
(0.0137971 0.00588724 0)
(0.00876721 0.0061926 0)
(0.00376875 0.00606085 0)
(-0.000943392 0.00565879 0)
(-0.00533085 0.00503362 0)
(-0.00884149 0.00377347 0)
(-0.0110748 0.00256063 0)
(-0.0122633 0.00158969 0)
(-0.0126406 0.000732231 0)
(-0.0121 -0.000143589 0)
(-0.0105812 -0.00098066 0)
(-0.0084941 -0.00155816 0)
(-0.0062767 -0.00291705 0)
(-0.0015407 -0.00806578 0)
(0.00098236 -0.013005 0)
(0.00890069 -0.0111318 0)
(0.0143767 -0.00957804 0)
(0.0198558 -0.00727727 0)
(0.0232256 -0.00405931 0)
(0.0242171 -0.000128243 0)
(0.0228603 0.00299852 0)
(0.020832 0.00436151 0)
(0.0177958 0.00658834 0)
(0.0129868 0.0077128 0)
(0.00775893 0.00790371 0)
(0.00252849 0.00768317 0)
(-0.00248941 0.00736183 0)
(-0.00727537 0.00684594 0)
(-0.0109762 0.00502259 0)
(-0.013055 0.00322212 0)
(-0.0139214 0.00191454 0)
(-0.0136454 0.000814309 0)
(-0.0119643 -0.000742534 0)
(-0.00880224 -0.00210415 0)
(-0.00500858 -0.00262735 0)
(-0.00248708 -0.00415649 0)
(0.00164073 -0.00935567 0)
(0.00234454 -0.0156797 0)
(0.0112044 -0.014085 0)
(0.0174312 -0.011599 0)
(0.0235176 -0.00800414 0)
(0.0273401 -0.00361638 0)
(0.0280581 0.000537825 0)
(0.0257294 0.00378659 0)
(0.0235641 0.00507692 0)
(0.0210472 0.00897038 0)
(0.0163434 0.0117235 0)
(0.010878 0.0125643 0)
(0.00497295 0.0121118 0)
(-0.001004 0.0111545 0)
(-0.00741225 0.00968509 0)
(-0.0131638 0.00644433 0)
(-0.0166737 0.00381149 0)
(-0.0176127 0.00187454 0)
(-0.0154653 -0.000296771 0)
(-0.011004 -0.00284589 0)
(-0.00592313 -0.0048135 0)
(1.44932e-05 -0.00545731 0)
(0.00380586 -0.00682508 0)
(0.00558194 -0.0100637 0)
(0.00397947 -0.0203104 0)
(0.0148056 -0.0191387 0)
(0.0232733 -0.0175114 0)
(0.0314378 -0.0142339 0)
(0.0371203 -0.00786452 0)
(0.0396664 0.000319106 0)
(0.0375727 0.00603421 0)
(0.0299031 0.00706514 0)
(0.0215671 0.00868833 0)
(0.0146814 0.00949616 0)
(0.00865518 0.00961881 0)
(0.00201575 0.00915792 0)
(-0.00594408 0.00892539 0)
(-0.0129117 0.0095421 0)
(-0.0179823 0.00708332 0)
(-0.0215795 0.0039745 0)
(-0.0227939 0.000458138 0)
(-0.0193384 -0.00344869 0)
(-0.0129973 -0.00671929 0)
(-0.00736621 -0.0083718 0)
(-0.00075483 -0.00845457 0)
(0.00245115 -0.00730441 0)
(0.005198 -0.0023959 0)
(0.00509842 -0.0245963 0)
(0.0171204 -0.0214349 0)
(0.0246372 -0.0160424 0)
(0.0294736 -0.0101322 0)
(0.0331811 -0.00418356 0)
(0.0378686 0.00151661 0)
(0.0442896 0.00544299 0)
(0.048248 0.00933744 0)
(0.0458963 0.0141633 0)
(0.0450875 0.0173676 0)
(0.041139 0.0204013 0)
(0.0267672 0.0243401 0)
(-0.00960418 0.0268166 0)
(-0.0359115 0.0215243 0)
(-0.0398028 0.0152652 0)
(-0.037064 0.00911526 0)
(-0.0346367 0.00246805 0)
(-0.0323082 -0.00240571 0)
(-0.0337663 -0.00566358 0)
(-0.0351247 -0.00711067 0)
(-0.0336298 -0.00902547 0)
(-0.0310565 -0.0104 0)
(-0.00659225 -0.0120533 0)
(0.00593382 -0.0230695 0)
(0.0210315 -0.0225306 0)
(0.0364876 -0.0211135 0)
(0.0529726 -0.0188385 0)
(0.0664598 -0.0133609 0)
(0.0734076 -0.00391688 0)
(0.0565531 0.00617219 0)
(0.00901953 0.0175764 0)
(-0.0227327 0.0162408 0)
(-0.0275059 0.01662 0)
(-0.0283959 0.0207333 0)
(-0.0242282 0.0286381 0)
(-0.0177582 0.0322286 0)
(-0.00611423 0.0172526 0)
(0.0058511 0.00603081 0)
(0.0174663 6.67463e-07 0)
(0.0278726 -0.00325045 0)
(0.0364101 -0.00583655 0)
(0.042002 -0.00696655 0)
(0.043105 -0.00737033 0)
(0.0386362 -0.00728292 0)
(0.0205395 -0.0106902 0)
(0.0265549 -0.0103815 0)
(-0.00162807 -0.000975614 0)
(0.0122486 -0.00289504 0)
(0.0131077 -0.00160371 0)
(0.0203143 -0.00175018 0)
(0.0269512 -0.0018419 0)
(0.0329606 -0.00108201 0)
(0.0356173 1.92841e-06 0)
(0.0345365 0.000455334 0)
(0.0301683 0.00125488 0)
(0.0216677 0.00238272 0)
(0.00959674 0.00203143 0)
(-0.0022679 0.000374241 0)
(-0.0109837 -0.000189205 0)
(-0.0217229 0.000832208 0)
(-0.029976 5.83632e-05 0)
(-0.0372866 0.000888706 0)
(-0.0430861 -0.000489398 0)
(-0.0344331 -0.00307912 0)
(-0.0104464 -0.00287601 0)
(0.00848935 -0.00375806 0)
(0.0218729 -0.00340425 0)
(0.0222766 -0.00276645 0)
(0.0271348 -0.00402043 0)
(0.0296396 -0.00438847 0)
(0.0314833 -0.00298393 0)
(0.0323382 -0.000625826 0)
(0.0316457 0.00176625 0)
(0.0297317 0.00391356 0)
(0.025169 0.00636441 0)
(0.0149591 0.0080375 0)
(0.00362019 0.00874246 0)
(-0.00623171 0.00821645 0)
(-0.0207498 0.00875432 0)
(-0.032632 0.00518283 0)
(-0.0426112 0.00479265 0)
(-0.0491881 -0.00076748 0)
(-0.0376163 -0.0116584 0)
(-0.0133554 -0.015728 0)
(0.000245875 -0.013402 0)
(0.00780419 -0.00663916 0)
(0.0214411 -0.00244233 0)
(0.0317654 -0.00403467 0)
(0.0296124 -0.0044234 0)
(0.0238196 -0.00262433 0)
(0.0189925 -0.000637167 0)
(0.0178249 0.00151391 0)
(0.0128646 0.00143742 0)
(0.0121541 0.00784948 0)
(0.0170554 0.00973563 0)
(0.00979846 0.00623979 0)
(-0.0184334 0.00879847 0)
(-0.0458405 0.0130291 0)
(-0.0547962 0.00944364 0)
(-0.0518994 0.0062299 0)
(-0.0386897 -0.00346088 0)
(-0.0161882 -0.0207709 0)
(-0.002052 -0.02358 0)
(-0.078043 -0.00177489 0)
(-0.0956358 -0.00904155 0)
(-0.0380718 -0.0186359 0)
(0.0196165 -0.0092073 0)
(0.0448162 -0.00133446 0)
(0.0473466 0.00232504 0)
(0.0290839 0.00203912 0)
(0.0296823 0.0054324 0)
(-0.00649702 0.0111003 0)
(0.0192204 0.00786041 0)
(0.0773595 0.0136359 0)
(0.0713292 0.0335355 0)
(0.00447369 0.0358094 0)
(-0.0292205 0.0206336 0)
(-0.0398267 0.00732434 0)
(-0.0324286 -0.00361333 0)
(0.00460074 -0.0128795 0)
(0.0222145 -0.0233627 0)
(0.0191554 -0.0209388 0)
(-0.0826618 0.0441534 0)
(-0.043891 -0.0220203 0)
(0.00151492 -0.0530646 0)
(0.0484701 -0.0334949 0)
(0.0813285 -0.0125153 0)
(0.0922999 0.00832403 0)
(0.0436596 0.0133373 0)
(0.00859919 0.0103909 0)
(0.000128449 0.0062939 0)
(0.0691221 -0.0305748 0)
(0.117092 -0.0261178 0)
(0.173915 0.0310332 0)
(0.188825 0.0560427 0)
(0.15564 0.0368196 0)
(0.105803 0.0236756 0)
(-0.015899 -0.0130633 0)
(0.017713 -0.0283757 0)
(0.0472 -0.0275076 0)
(0.0479974 -0.00410772 0)
(-0.0739355 0.0540226 0)
(0.0428552 -0.0501235 0)
(0.0487367 -0.0682679 0)
(0.0787607 -0.0496668 0)
(0.110305 -0.0209192 0)
(0.125259 0.0132109 0)
(0.109519 0.0319254 0)
(0.0805826 0.0190102 0)
(0.083072 -0.00948246 0)
(0.122001 -0.0422913 0)
(0.148797 -0.0436885 0)
(0.18746 0.00463403 0)
(0.228796 0.0440825 0)
(0.23586 0.0471456 0)
(0.202499 0.0639936 0)
(0.0884635 0.0250107 0)
(0.0650693 -0.0465983 0)
(0.0732154 -0.0413124 0)
(0.0996467 0.0255483 0)
(-0.0118602 0.0769807 0)
(0.10237 -0.0587035 0)
(0.0971823 -0.074363 0)
(0.107563 -0.0627057 0)
(0.132992 -0.0308145 0)
(0.151621 0.00983512 0)
(0.151185 0.034357 0)
(0.149291 0.0247261 0)
(0.155633 -0.00767982 0)
(0.170657 -0.0482957 0)
(0.18284 -0.0525592 0)
(0.198632 -0.00707895 0)
(0.219406 0.0369989 0)
(0.215317 0.0553985 0)
(0.181318 0.0914978 0)
(0.0717074 0.0546714 0)
(0.0851995 -0.0340481 0)
(0.0492595 -0.0404925 0)
(0.0792913 0.0601944 0)
(0.148167 -0.0145697 0)
(0.160643 -0.0685145 0)
(0.14264 -0.0724747 0)
(0.131738 -0.0671444 0)
(0.140994 -0.0392067 0)
(0.161173 0.00412265 0)
(0.170093 0.0316735 0)
(0.175799 0.0222364 0)
(0.179642 -0.0115988 0)
(0.185212 -0.055609 0)
(0.190674 -0.0593633 0)
(0.196023 -0.0103483 0)
(0.195386 0.0389456 0)
(0.174755 0.0670003 0)
(0.136786 0.120145 0)
(0.0481642 0.0708229 0)
(0.0886686 -0.0296864 0)
(0.0340493 -0.0322323 0)
(0.0619823 0.0820819 0)
(0.00180837 -0.0628816 0)
(0.00395372 -0.0570166 0)
(-0.00124969 -0.0458648 0)
(-0.00747822 -0.0336698 0)
(-0.00929001 -0.0184032 0)
(-0.0103123 0.00907786 0)
(-0.00574238 0.0315113 0)
(-0.00161819 0.0363607 0)
(-9.63194e-06 0.0273057 0)
(-0.000869547 0.0207707 0)
(-0.00172635 0.0208048 0)
(-0.000224823 0.0240988 0)
(0.00540737 0.0238066 0)
(0.0125318 0.0132777 0)
(0.0182768 0.00231343 0)
(0.0250437 -0.00434731 0)
(0.0336741 -0.00952702 0)
(0.0444231 -0.0115209 0)
(0.0549345 -0.0104027 0)
(0.0637803 -0.00709018 0)
(0.0698929 -0.00295823 0)
(0.0736708 -0.00380105 0)
(0.0777915 -0.000361399 0)
(0.00184276 -0.0270848 0)
(0.00464771 -0.0182204 0)
(0.00582073 -0.0114344 0)
(0.00737328 -0.0109037 0)
(0.0070641 -0.0110772 0)
(0.00251928 -0.00601226 0)
(-0.00202428 0.00682176 0)
(-0.00380138 0.0193077 0)
(-0.00198737 0.0167081 0)
(0.00259496 0.011426 0)
(0.00856917 0.0141838 0)
(0.0126149 0.0166808 0)
(0.0162643 0.0149756 0)
(0.0170358 0.0063361 0)
(0.015374 -0.00634013 0)
(0.0146314 -0.0138249 0)
(0.0160245 -0.0227919 0)
(0.0220183 -0.0269932 0)
(0.0300426 -0.0267853 0)
(0.0405697 -0.0227064 0)
(0.0521277 -0.0159974 0)
(0.0590679 -0.0149374 0)
(0.0647191 -0.0233125 0)
(0.00716892 -0.0475197 0)
(0.0175998 -0.0382966 0)
(0.0299151 -0.030366 0)
(0.0384325 -0.0211447 0)
(0.042044 -0.0083127 0)
(0.0384486 0.0158862 0)
(0.0369448 0.0260097 0)
(0.0415332 0.0288212 0)
(0.0506676 0.0216377 0)
(0.0520121 0.0120395 0)
(0.0400473 0.0166834 0)
(0.0235219 0.0190742 0)
(0.0100857 0.0194882 0)
(-0.00404097 0.0165261 0)
(-0.0147759 0.00111056 0)
(-0.0206213 -0.00577415 0)
(-0.0217111 -0.020503 0)
(-0.0216455 -0.0272629 0)
(-0.0193778 -0.0303003 0)
(-0.0101433 -0.031224 0)
(0.0115053 -0.0256986 0)
(0.0363547 -0.0169416 0)
(0.0507403 -0.0189756 0)
(0.00382272 -0.0616841 0)
(0.0103025 -0.0586557 0)
(0.0244183 -0.0461921 0)
(0.0346006 -0.0297467 0)
(0.0401825 -0.0158354 0)
(0.0506472 0.00164103 0)
(0.0704515 0.00353676 0)
(0.0930395 0.00254395 0)
(0.109623 0.0099184 0)
(0.101678 0.0247164 0)
(0.0710055 0.0468722 0)
(0.0431961 0.0481373 0)
(0.024362 0.0430975 0)
(0.013264 0.032866 0)
(0.00430643 0.0116957 0)
(-0.00785597 -0.00123057 0)
(-0.0181541 -0.0172708 0)
(-0.0288393 -0.0258944 0)
(-0.0319302 -0.0369524 0)
(-0.026439 -0.0507432 0)
(-0.00947146 -0.061131 0)
(0.0221098 -0.051126 0)
(0.04492 -0.0331394 0)
(0.00569174 -0.0610615 0)
(0.00769146 -0.0619261 0)
(0.013176 -0.051003 0)
(0.02118 -0.0325317 0)
(0.029603 -0.0206259 0)
(0.0401915 -0.0151596 0)
(0.0507543 -0.0139782 0)
(0.056144 -0.00953874 0)
(0.0524233 0.0156687 0)
(0.0489603 0.0458253 0)
(0.0457686 0.064588 0)
(0.0460577 0.058259 0)
(0.0476837 0.0467542 0)
(0.0474751 0.0366894 0)
(0.0425433 0.0234541 0)
(0.0321206 0.013295 0)
(0.0190471 0.00117599 0)
(0.00462823 -0.010963 0)
(-0.00801518 -0.028347 0)
(-0.0202945 -0.0498034 0)
(-0.0242182 -0.07348 0)
(-0.0153567 -0.0726834 0)
(0.00412045 -0.0424943 0)
(0.00475241 -0.0699027 0)
(0.00801251 -0.0670981 0)
(0.0115094 -0.05746 0)
(0.0196446 -0.042961 0)
(0.0296811 -0.0309592 0)
(0.0379244 -0.0214675 0)
(0.0415263 -0.0114376 0)
(0.0403501 0.00143605 0)
(0.0402124 0.022003 0)
(0.0456715 0.0418917 0)
(0.053356 0.05576 0)
(0.0588679 0.0548346 0)
(0.0570957 0.0469946 0)
(0.0497714 0.0391884 0)
(0.0397694 0.029131 0)
(0.0287652 0.0190341 0)
(0.0182402 0.00791232 0)
(0.00857612 -0.00372001 0)
(0.00120862 -0.0165181 0)
(-0.0114535 -0.0382116 0)
(-0.0229544 -0.0719688 0)
(-0.0272159 -0.0787871 0)
(-0.0186529 -0.0594242 0)
(0.00532836 -0.0819472 0)
(0.0119883 -0.0784639 0)
(0.0198523 -0.0721917 0)
(0.0318103 -0.0633074 0)
(0.0450484 -0.0528802 0)
(0.0559534 -0.0416948 0)
(0.0630654 -0.0286949 0)
(0.0673386 -0.0144991 0)
(0.0707918 0.00303963 0)
(0.0720523 0.0247684 0)
(0.0714829 0.0442677 0)
(0.0677014 0.0551764 0)
(0.0595268 0.057081 0)
(0.0480568 0.0540637 0)
(0.0359566 0.0461122 0)
(0.0259159 0.0355982 0)
(0.0195182 0.0226657 0)
(0.0159307 0.00644192 0)
(0.015331 -0.0111726 0)
(0.0148107 -0.0285668 0)
(0.00544222 -0.0635005 0)
(-0.00964762 -0.0753188 0)
(-0.0126706 -0.0705466 0)
(-0.000252664 -0.079905 0)
(-0.00454244 -0.0745134 0)
(-0.0142129 -0.0689453 0)
(-0.0141036 -0.0638701 0)
(-0.00124008 -0.0524364 0)
(0.0158421 -0.0386778 0)
(0.0310045 -0.0230829 0)
(0.0440793 -0.00738998 0)
(0.0574916 0.0131381 0)
(0.0670641 0.0327515 0)
(0.0701668 0.0473476 0)
(0.0685835 0.0559503 0)
(0.0627272 0.0593798 0)
(0.0529544 0.0598027 0)
(0.0433073 0.0520327 0)
(0.0395281 0.037518 0)
(0.0420748 0.020619 0)
(0.0453647 0.00381215 0)
(0.0485912 -0.0101096 0)
(0.0517816 -0.0212198 0)
(0.0525281 -0.0414155 0)
(0.0293784 -0.0617848 0)
(0.00914158 -0.0773884 0)
(0.00823171 -0.073323 0)
(0.0220929 -0.0671212 0)
(0.0364758 -0.0550963 0)
(0.0382784 -0.0589887 0)
(0.0492173 -0.067029 0)
(0.050555 -0.0502307 0)
(0.0275875 -0.0202985 0)
(-0.0323439 -0.00733406 0)
(-0.032795 -0.00767096 0)
(0.00304052 0.0328759 0)
(-0.034744 0.0651376 0)
(-0.0532126 0.0706899 0)
(-0.046507 0.0718334 0)
(-0.033488 0.0715879 0)
(-0.0229772 0.0613964 0)
(-0.0211777 0.0439778 0)
(-0.0203616 0.02548 0)
(-0.0131185 0.00765643 0)
(-0.00556096 -0.00996592 0)
(0.0340019 -0.0296015 0)
(0.0840666 -0.0365049 0)
(0.0911127 -0.0328672 0)
(0.0516864 -0.0486202 0)
(0.000958927 -0.0961074 0)
(0.00128082 -0.0931372 0)
(0.00813763 -0.0769574 0)
(0.016707 -0.0736975 0)
(0.0141514 -0.0648357 0)
(0.00520111 -0.0342831 0)
(0.014681 0.0175864 0)
(0.0405514 0.0106728 0)
(0.0513755 -0.0276703 0)
(0.0554861 -0.000186625 0)
(0.0754134 0.118325 0)
(0.0690761 0.118023 0)
(-0.0240359 0.0729089 0)
(0.00341406 0.0504487 0)
(0.0438229 0.0503038 0)
(-0.0318758 0.051696 0)
(-0.12802 0.0041082 0)
(-0.0930221 -0.0279689 0)
(-0.0529238 -0.061688 0)
(-0.0414085 -0.117381 0)
(-0.00335634 -0.113125 0)
(0.0497052 -0.0269123 0)
(0.162606 0.041698 0)
(-0.00271404 -0.090689 0)
(-0.00553797 -0.0892926 0)
(-0.00575389 -0.0784032 0)
(-0.00604126 -0.0722903 0)
(-0.00996529 -0.0632837 0)
(-0.00885041 -0.0473133 0)
(0.00549017 -0.0305688 0)
(0.0254127 -0.0208023 0)
(0.0320197 -0.0101172 0)
(0.0334442 0.00931514 0)
(0.0661318 0.0537705 0)
(0.126217 0.105792 0)
(0.149514 0.100513 0)
(0.174033 -0.00289774 0)
(0.152658 0.0471438 0)
(0.154152 0.152095 0)
(0.149757 0.0510549 0)
(0.211765 -0.0809448 0)
(0.21504 -0.0813528 0)
(0.226532 -0.102102 0)
(0.2559 -0.137085 0)
(0.304623 -0.160144 0)
(0.383171 -0.0946753 0)
(-0.00345579 -0.0856461 0)
(-0.00673559 -0.0862603 0)
(-0.00973715 -0.0783909 0)
(-0.0124117 -0.0716606 0)
(-0.0154219 -0.0624238 0)
(-0.0141777 -0.051057 0)
(-0.00749716 -0.0381101 0)
(0.00129199 -0.0315953 0)
(0.00806809 -0.0241981 0)
(0.0173375 -0.0193423 0)
(0.0424295 0.00795404 0)
(0.0921707 0.0455479 0)
(0.140346 0.0535268 0)
(0.174342 0.0377274 0)
(0.206713 0.0601385 0)
(0.261864 0.0779028 0)
(0.31079 0.0170069 0)
(0.34228 -0.0479115 0)
(0.358221 -0.0897275 0)
(0.374997 -0.138037 0)
(0.390091 -0.178474 0)
(0.400974 -0.187451 0)
(0.428324 -0.156084 0)
(-0.00346806 -0.0805026 0)
(-0.007561 -0.0821231 0)
(-0.0123784 -0.0750799 0)
(-0.0163246 -0.0678882 0)
(-0.0194876 -0.060076 0)
(-0.0195367 -0.0519159 0)
(-0.0166084 -0.0439822 0)
(-0.0117068 -0.0378212 0)
(-0.00463874 -0.0318073 0)
(0.00310853 -0.0313999 0)
(0.0142217 -0.0190239 0)
(0.0375634 0.00426338 0)
(0.0710603 0.0142346 0)
(0.0987355 -0.00521231 0)
(0.141484 -0.00283075 0)
(0.197921 -0.00190666 0)
(0.245608 -0.0385033 0)
(0.270393 -0.0871197 0)
(0.281019 -0.123659 0)
(0.289217 -0.153425 0)
(0.297301 -0.175536 0)
(0.305794 -0.18057 0)
(0.32041 -0.170872 0)
(-0.00323342 -0.074963 0)
(-0.00784974 -0.0769761 0)
(-0.0132324 -0.0703815 0)
(-0.0173862 -0.0637992 0)
(-0.0204787 -0.0576927 0)
(-0.0213516 -0.0519526 0)
(-0.020239 -0.0467582 0)
(-0.0172171 -0.042321 0)
(-0.012149 -0.038358 0)
(-0.00747624 -0.0365402 0)
(-0.00243101 -0.0284738 0)
(0.00936138 -0.0153652 0)
(0.0308031 -0.0127199 0)
(0.0493346 -0.0322092 0)
(0.0673598 -0.0473652 0)
(0.0926756 -0.0540954 0)
(0.116474 -0.0677625 0)
(0.129809 -0.0946 0)
(0.134323 -0.128496 0)
(0.136681 -0.164658 0)
(0.141669 -0.190222 0)
(0.151592 -0.196124 0)
(0.16166 -0.191666 0)
(-0.00296842 -0.0695875 0)
(-0.00763732 -0.0717397 0)
(-0.0127189 -0.0657273 0)
(-0.0163237 -0.0601303 0)
(-0.0189548 -0.0554836 0)
(-0.0200449 -0.0515294 0)
(-0.0197589 -0.048171 0)
(-0.0180962 -0.0452923 0)
(-0.0152961 -0.0427645 0)
(-0.0122663 -0.0406216 0)
(-0.00803128 -0.0361936 0)
(0.000572769 -0.0303697 0)
(0.0152464 -0.029945 0)
(0.0281949 -0.0409745 0)
(0.0338761 -0.0531449 0)
(0.0392636 -0.0568702 0)
(0.0435098 -0.067746 0)
(0.0446243 -0.0909934 0)
(0.0434675 -0.125171 0)
(0.0372958 -0.163868 0)
(0.0308019 -0.190483 0)
(0.0306459 -0.200036 0)
(0.0311073 -0.200386 0)
(-0.00269873 -0.064572 0)
(-0.00711384 -0.0668519 0)
(-0.0116212 -0.061709 0)
(-0.0145056 -0.0572108 0)
(-0.0165093 -0.0537593 0)
(-0.0173538 -0.0510733 0)
(-0.0172312 -0.0489178 0)
(-0.0162116 -0.0470779 0)
(-0.0144889 -0.0454165 0)
(-0.0123093 -0.0437625 0)
(-0.00903207 -0.0414302 0)
(-0.0034221 -0.0393306 0)
(0.00429095 -0.0402947 0)
(0.0107506 -0.0466677 0)
(0.0116948 -0.054361 0)
(0.0101198 -0.0579665 0)
(0.00820756 -0.0670507 0)
(0.0031513 -0.0866612 0)
(-0.00693023 -0.116355 0)
(-0.0265929 -0.149893 0)
(-0.045543 -0.177646 0)
(-0.055776 -0.194277 0)
(-0.0641781 -0.18933 0)
(-0.00252442 -0.0599226 0)
(-0.00667507 -0.0623846 0)
(-0.0107357 -0.0583059 0)
(-0.0131118 -0.0549387 0)
(-0.0146367 -0.0525211 0)
(-0.0151912 -0.0507714 0)
(-0.015017 -0.0494216 0)
(-0.0142362 -0.048257 0)
(-0.0129907 -0.0471716 0)
(-0.0113312 -0.0460674 0)
(-0.00893661 -0.0448589 0)
(-0.00545237 -0.0441705 0)
(-0.00144643 -0.0452378 0)
(0.00138526 -0.0486034 0)
(0.00146368 -0.0526566 0)
(0.000117974 -0.0553193 0)
(-0.00218254 -0.0613833 0)
(-0.00914959 -0.0751998 0)
(-0.0257121 -0.0967746 0)
(-0.0525749 -0.124887 0)
(-0.0769661 -0.159273 0)
(-0.0953197 -0.180932 0)
(-0.115885 -0.165709 0)
(-0.00246681 -0.0554941 0)
(-0.00648928 -0.0581696 0)
(-0.0103807 -0.0552327 0)
(-0.0125759 -0.0530114 0)
(-0.0139098 -0.0515686 0)
(-0.0143396 -0.0506137 0)
(-0.014131 -0.0498827 0)
(-0.0134435 -0.0491975 0)
(-0.0124144 -0.0485063 0)
(-0.0110838 -0.0478097 0)
(-0.00933095 -0.0471941 0)
(-0.00710377 -0.0470404 0)
(-0.00481201 -0.0478668 0)
(-0.00326188 -0.0497417 0)
(-0.00288589 -0.0519984 0)
(-0.00311447 -0.053854 0)
(-0.00403674 -0.0569893 0)
(-0.00834182 -0.063621 0)
(-0.0203926 -0.0754035 0)
(-0.0428142 -0.0971287 0)
(-0.0712097 -0.134328 0)
(-0.101578 -0.156124 0)
(-0.132389 -0.135885 0)
(-0.00252751 -0.0510848 0)
(-0.00658131 -0.0539938 0)
(-0.0105164 -0.0522147 0)
(-0.0127686 -0.0511414 0)
(-0.01413 -0.0506665 0)
(-0.0145845 -0.0504748 0)
(-0.0144026 -0.0503056 0)
(-0.0137751 -0.0500185 0)
(-0.0128665 -0.0496131 0)
(-0.0117609 -0.0491693 0)
(-0.0104588 -0.0488328 0)
(-0.00899856 -0.0488528 0)
(-0.00761387 -0.0494691 0)
(-0.00665363 -0.0506617 0)
(-0.00624557 -0.0520994 0)
(-0.006198 -0.0535352 0)
(-0.00665098 -0.0553343 0)
(-0.00858297 -0.0578411 0)
(-0.0134744 -0.0620141 0)
(-0.0241071 -0.0735088 0)
(-0.0490963 -0.102681 0)
(-0.0869299 -0.122149 0)
(-0.120127 -0.103301 0)
(-0.00265527 -0.0465487 0)
(-0.00685492 -0.0497074 0)
(-0.0109674 -0.0490852 0)
(-0.0133953 -0.0491676 0)
(-0.01488 -0.0496885 0)
(-0.0154145 -0.050285 0)
(-0.0152784 -0.050681 0)
(-0.0146959 -0.0507603 0)
(-0.0138704 -0.0505683 0)
(-0.0129359 -0.0502506 0)
(-0.0119628 -0.0499961 0)
(-0.0110188 -0.0500056 0)
(-0.010232 -0.0504215 0)
(-0.00974515 -0.0512267 0)
(-0.00958859 -0.0522657 0)
(-0.00969486 -0.0534288 0)
(-0.0101475 -0.0547137 0)
(-0.011302 -0.0559066 0)
(-0.0135148 -0.0570266 0)
(-0.0181392 -0.0608729 0)
(-0.033283 -0.0735203 0)
(-0.0649811 -0.0854116 0)
(-0.092787 -0.0742427 0)
(-0.00282907 -0.0417723 0)
(-0.00725061 -0.0452116 0)
(-0.0115936 -0.0457623 0)
(-0.0142271 -0.0470327 0)
(-0.0158457 -0.048604 0)
(-0.0164495 -0.0500388 0)
(-0.016339 -0.0510232 0)
(-0.0157772 -0.0514516 0)
(-0.0150095 -0.0514146 0)
(-0.0142127 -0.0511209 0)
(-0.0134969 -0.0508087 0)
(-0.0129377 -0.0506842 0)
(-0.0126104 -0.0508731 0)
(-0.0125724 -0.0513844 0)
(-0.0128227 -0.0521399 0)
(-0.0133286 -0.0530539 0)
(-0.0141272 -0.0540041 0)
(-0.0153379 -0.0546502 0)
(-0.0170321 -0.0546146 0)
(-0.0198729 -0.0547367 0)
(-0.0276937 -0.0562988 0)
(-0.0453991 -0.0574842 0)
(-0.0647357 -0.0524336 0)
(-0.00301651 -0.0367057 0)
(-0.00769911 -0.0404629 0)
(-0.0122953 -0.0422238 0)
(-0.0151279 -0.0447376 0)
(-0.0168576 -0.0474303 0)
(-0.0174982 -0.0497613 0)
(-0.0173836 -0.0513564 0)
(-0.0168175 -0.0521136 0)
(-0.0160855 -0.0521723 0)
(-0.0153997 -0.0518121 0)
(-0.0148932 -0.0513337 0)
(-0.014642 -0.0509766 0)
(-0.0146928 -0.0508822 0)
(-0.0150698 -0.0510876 0)
(-0.0157664 -0.0515543 0)
(-0.0167615 -0.0522028 0)
(-0.0180541 -0.0528699 0)
(-0.0196379 -0.0531837 0)
(-0.0214322 -0.0526229 0)
(-0.0237044 -0.0510649 0)
(-0.0277471 -0.0482866 0)
(-0.034988 -0.0431489 0)
(-0.0439277 -0.0363459 0)
(-0.00321399 -0.0313218 0)
(-0.00817897 -0.0354433 0)
(-0.0130225 -0.0384734 0)
(-0.0160296 -0.0423051 0)
(-0.0178373 -0.046199 0)
(-0.0184842 -0.0494824 0)
(-0.0183425 -0.0517063 0)
(-0.0177515 -0.0527704 0)
(-0.0170294 -0.0528674 0)
(-0.0164204 -0.0523582 0)
(-0.0160762 -0.0516225 0)
(-0.0160721 -0.0509528 0)
(-0.0164366 -0.0505186 0)
(-0.0171733 -0.0503777 0)
(-0.0182719 -0.0505095 0)
(-0.0197183 -0.0508428 0)
(-0.0214998 -0.0512246 0)
(-0.0235702 -0.0513245 0)
(-0.025777 -0.0506198 0)
(-0.0279455 -0.0486046 0)
(-0.0302527 -0.0448486 0)
(-0.032901 -0.0386736 0)
(-0.0350996 -0.0301786 0)
(-0.00340734 -0.0256185 0)
(-0.00865841 -0.0301554 0)
(-0.0137409 -0.0345269 0)
(-0.0168966 -0.0397627 0)
(-0.0187536 -0.0449389 0)
(-0.0193894 -0.0492235 0)
(-0.0192153 -0.0520901 0)
(-0.0185889 -0.0534462 0)
(-0.0178477 -0.0535371 0)
(-0.0172655 -0.0528088 0)
(-0.0170172 -0.051734 0)
(-0.0171856 -0.0506755 0)
(-0.0177902 -0.0498445 0)
(-0.0188148 -0.0493162 0)
(-0.0202341 -0.0490736 0)
(-0.0220296 -0.0490463 0)
(-0.0241859 -0.0491044 0)
(-0.0266562 -0.048994 0)
(-0.0292913 -0.0482925 0)
(-0.0317561 -0.0464817 0)
(-0.0336763 -0.0430778 0)
(-0.0349826 -0.0377566 0)
(-0.0350246 -0.0301657 0)
(-0.00360253 -0.0195945 0)
(-0.00914076 -0.0246051 0)
(-0.014445 -0.0303991 0)
(-0.0177249 -0.0371323 0)
(-0.0196106 -0.0436662 0)
(-0.0202374 -0.0489859 0)
(-0.020051 -0.0525059 0)
(-0.0193976 -0.0541569 0)
(-0.0186149 -0.0542245 0)
(-0.0180028 -0.0532322 0)
(-0.0177642 -0.0517526 0)
(-0.0180041 -0.0502334 0)
(-0.0187496 -0.0489438 0)
(-0.0199724 -0.0479865 0)
(-0.0216232 -0.0473466 0)
(-0.0236596 -0.046946 0)
(-0.0260526 -0.0466639 0)
(-0.0287608 -0.0463068 0)
(-0.0316603 -0.0455727 0)
(-0.0344453 -0.0440754 0)
(-0.0367216 -0.0414493 0)
(-0.0382645 -0.0374129 0)
(-0.038411 -0.0316152 0)
(-0.0037967 -0.0132495 0)
(-0.00962381 -0.0187985 0)
(-0.0151458 -0.0261019 0)
(-0.0185357 -0.034428 0)
(-0.0204395 -0.0423818 0)
(-0.0210798 -0.0487461 0)
(-0.0209241 -0.0529264 0)
(-0.0202706 -0.0549007 0)
(-0.0194409 -0.0549652 0)
(-0.0187524 -0.0537029 0)
(-0.0184348 -0.0517825 0)
(-0.0186275 -0.0497432 0)
(-0.019386 -0.04793 0)
(-0.0206882 -0.0464936 0)
(-0.0224656 -0.0454325 0)
(-0.024644 -0.0446599 0)
(-0.027163 -0.0440512 0)
(-0.0299712 -0.0434429 0)
(-0.0329718 -0.0426136 0)
(-0.0359382 -0.0413021 0)
(-0.0385833 -0.0392806 0)
(-0.0407681 -0.036352 0)
(-0.0418406 -0.0321326 0)
(-0.00400735 -0.00656855 0)
(-0.0101421 -0.0127281 0)
(-0.0158832 -0.0216382 0)
(-0.0193712 -0.0316571 0)
(-0.0212856 -0.0410806 0)
(-0.0219742 -0.0484611 0)
(-0.0218971 -0.0533061 0)
(-0.0212726 -0.0556581 0)
(-0.0204073 -0.0557746 0)
(-0.0196226 -0.0542797 0)
(-0.0191599 -0.0519251 0)
(-0.0191933 -0.0493334 0)
(-0.0198259 -0.0469348 0)
(-0.0210691 -0.0449552 0)
(-0.0228538 -0.0434328 0)
(-0.0250768 -0.0422833 0)
(-0.0276419 -0.0413696 0)
(-0.0304734 -0.0405362 0)
(-0.0334758 -0.0396031 0)
(-0.0364661 -0.038378 0)
(-0.0392733 -0.036714 0)
(-0.0418837 -0.0344946 0)
(-0.0437086 -0.0313722 0)
(-0.00424323 0.00045626 0)
(-0.0107259 -0.00638239 0)
(-0.0166998 -0.0170012 0)
(-0.0202691 -0.0288325 0)
(-0.0221846 -0.0397667 0)
(-0.0229597 -0.0480737 0)
(-0.0229853 -0.0536088 0)
(-0.0223933 -0.0564089 0)
(-0.0215125 -0.0566456 0)
(-0.0206468 -0.0549873 0)
(-0.0200194 -0.0522534 0)
(-0.0198199 -0.049122 0)
(-0.0202039 -0.0460997 0)
(-0.0212446 -0.0435082 0)
(-0.022904 -0.0414609 0)
(-0.0250663 -0.0399003 0)
(-0.0276013 -0.0386805 0)
(-0.0304016 -0.0376362 0)
(-0.033362 -0.0366008 0)
(-0.0363257 -0.0354144 0)
(-0.0391617 -0.0339782 0)
(-0.0419134 -0.0322264 0)
(-0.0440627 -0.0298649 0)
(-0.00449648 0.00792942 0)
(-0.0113719 0.00023526 0)
(-0.0175898 -0.0121981 0)
(-0.0211915 -0.0259897 0)
(-0.0231426 -0.0384145 0)
(-0.0240535 -0.0475451 0)
(-0.0241301 -0.0538574 0)
(-0.0235258 -0.0571558 0)
(-0.022647 -0.0575549 0)
(-0.0217481 -0.0558071 0)
(-0.0209951 -0.052787 0)
(-0.0205563 -0.0491849 0)
(-0.0206202 -0.0455468 0)
(-0.021336 -0.0422909 0)
(-0.0227355 -0.0396415 0)
(-0.0247239 -0.0376068 0)
(-0.0271483 -0.0360494 0)
(-0.0298669 -0.0347864 0)
(-0.0327543 -0.0336469 0)
(-0.0356614 -0.0324837 0)
(-0.0384835 -0.0312124 0)
(-0.0412487 -0.0297944 0)
(-0.0434901 -0.0280188 0)
(-0.00473558 0.0158073 0)
(-0.0120004 0.00719976 0)
(-0.0183756 -0.00729159 0)
(-0.021985 -0.023125 0)
(-0.0241322 -0.0369061 0)
(-0.0251804 -0.0469363 0)
(-0.0251529 -0.0541538 0)
(-0.0244664 -0.0579275 0)
(-0.0236082 -0.0584664 0)
(-0.0227478 -0.0566755 0)
(-0.0219612 -0.0534765 0)
(-0.0213542 -0.0495261 0)
(-0.021106 -0.0453479 0)
(-0.0214274 -0.0414201 0)
(-0.0224501 -0.0380973 0)
(-0.0241483 -0.0355035 0)
(-0.0263729 -0.0335458 0)
(-0.02895 -0.0320289 0)
(-0.0317312 -0.0307641 0)
(-0.0345694 -0.0296048 0)
(-0.037344 -0.028467 0)
(-0.0400796 -0.0273295 0)
(-0.0423638 -0.02605 0)
(-0.00485505 0.0240067 0)
(-0.0124162 0.0143843 0)
(-0.0188355 -0.00238679 0)
(-0.0225 -0.0201247 0)
(-0.0249702 -0.035132 0)
(-0.0260318 -0.0464192 0)
(-0.0257457 -0.0546151 0)
(-0.0249495 -0.0587416 0)
(-0.0241491 -0.0593257 0)
(-0.0234113 -0.057494 0)
(-0.0227141 -0.0542092 0)
(-0.0220732 -0.0500632 0)
(-0.02161 -0.045494 0)
(-0.0215499 -0.0409658 0)
(-0.0221233 -0.0369382 0)
(-0.0234225 -0.0336959 0)
(-0.0253519 -0.0312498 0)
(-0.0277223 -0.02942 0)
(-0.0303548 -0.0279913 0)
(-0.0330854 -0.0268015 0)
(-0.0357977 -0.0257591 0)
(-0.0384901 -0.0248599 0)
(-0.0407797 -0.024014 0)
(-0.00462613 0.0325587 0)
(-0.0122756 0.021873 0)
(-0.0188005 0.00253733 0)
(-0.0226166 -0.0168962 0)
(-0.0253052 -0.0331777 0)
(-0.0261598 -0.0461549 0)
(-0.0255755 -0.0552838 0)
(-0.0247201 -0.0595678 0)
(-0.0240428 -0.0600606 0)
(-0.0235153 -0.0581514 0)
(-0.0230328 -0.0548408 0)
(-0.0225179 -0.0506476 0)
(-0.0220031 -0.0458842 0)
(-0.0216683 -0.0409194 0)
(-0.0217942 -0.0362374 0)
(-0.0226126 -0.0322844 0)
(-0.0241486 -0.0292463 0)
(-0.0262362 -0.027019 0)
(-0.0286656 -0.0253676 0)
(-0.0312535 -0.0240997 0)
(-0.0338682 -0.0231138 0)
(-0.0364995 -0.0224031 0)
(-0.038782 -0.0219073 0)
(-0.004185 0.0402889 0)
(-0.0115251 0.0293301 0)
(-0.0181324 0.00760708 0)
(-0.0221448 -0.0135041 0)
(-0.0247773 -0.0312983 0)
(-0.0252154 -0.0462157 0)
(-0.024408 -0.0561114 0)
(-0.023594 -0.0603305 0)
(-0.0231268 -0.0605889 0)
(-0.0228963 -0.0585421 0)
(-0.0227373 -0.055229 0)
(-0.0224975 -0.0511053 0)
(-0.0221158 -0.0463499 0)
(-0.0216846 -0.0411804 0)
(-0.0214594 -0.0360011 0)
(-0.0217721 -0.0313487 0)
(-0.0228221 -0.027625 0)
(-0.0245405 -0.0248914 0)
(-0.0267062 -0.0229381 0)
(-0.0291024 -0.0215359 0)
(-0.0315877 -0.02056 0)
(-0.0341198 -0.0199892 0)
(-0.0363608 -0.0197785 0)
(-0.00361579 0.0474527 0)
(-0.0103743 0.0362748 0)
(-0.0167532 0.0127483 0)
(-0.0208227 -0.0101074 0)
(-0.0231269 -0.0297501 0)
(-0.0230236 -0.0466062 0)
(-0.0221274 -0.056999 0)
(-0.0214746 -0.0609289 0)
(-0.0213219 -0.0608209 0)
(-0.0214717 -0.058572 0)
(-0.0217184 -0.0552545 0)
(-0.0218665 -0.0512751 0)
(-0.0217813 -0.0466968 0)
(-0.0214574 -0.0415743 0)
(-0.0210614 -0.0361517 0)
(-0.0209333 -0.0309279 0)
(-0.0214361 -0.0264799 0)
(-0.0226884 -0.023122 0)
(-0.0245185 -0.0207675 0)
(-0.0266807 -0.0191606 0)
(-0.0289927 -0.0181343 0)
(-0.0313911 -0.0176461 0)
(-0.0335586 -0.0176528 0)
(-0.00284991 0.0537024 0)
(-0.00878036 0.042696 0)
(-0.0145007 0.0177876 0)
(-0.018431 -0.00687561 0)
(-0.0201941 -0.0286768 0)
(-0.0195152 -0.0472805 0)
(-0.0187124 -0.0578051 0)
(-0.0183711 -0.0612324 0)
(-0.0186567 -0.0606546 0)
(-0.0192629 -0.058164 0)
(-0.019962 -0.0548373 0)
(-0.0205546 -0.0510395 0)
(-0.0208728 -0.0467519 0)
(-0.0208329 -0.0418928 0)
(-0.0204871 -0.0365227 0)
(-0.0200862 -0.0309806 0)
(-0.0200591 -0.0258789 0)
(-0.0207563 -0.0218002 0)
(-0.0221624 -0.018922 0)
(-0.0240235 -0.0170245 0)
(-0.02612 -0.0158835 0)
(-0.0283438 -0.0154166 0)
(-0.0304049 -0.0155805 0)
(-0.00188403 0.0586544 0)
(-0.00676592 0.0482155 0)