/*--------------------------------*- C++ -*----------------------------------*\
| =========                 |                                                 |
| \\      /  F ield         | OpenFOAM: The Open Source CFD Toolbox           |
|  \\    /   O peration     | Version:  2312                                  |
|   \\  /    A nd           | Website:  www.openfoam.com                      |
|    \\/     M anipulation  |                                                 |
\*---------------------------------------------------------------------------*/
FoamFile
{
    version     2.0;
    format      ascii;
    arch        "LSB;label=32;scalar=64";
    class       volScalarField;
    location    "2.95";
    object      alpha.water_0;
}
// * * * * * * * * * * * * * * * * * * * * * * * * * * * * * * * * * * * * * //

dimensions      [0 0 0 0 0 0 0];

internalField   nonuniform List<scalar> 
2268
(
2.16173e-07
4.28481e-08
2.68383e-09
4.52792e-10
2.79489e-10
1.58596e-10
7.18152e-11
5.03884e-11
3.95856e-11
3.44118e-11
3.40341e-11
3.64865e-11
4.21694e-11
5.21323e-11
6.80871e-11
8.85955e-11
1.31457e-10
2.04322e-10
3.0428e-10
5.19452e-10
8.73718e-10
1.18359e-09
1.36547e-09
5.34841e-07
1.89003e-07
1.83231e-11
2.85097e-10
2.56105e-10
1.67132e-10
1.32296e-10
1.06033e-10
7.27423e-11
5.36664e-11
4.82995e-11
5.202e-11
6.3598e-11
8.49403e-11
1.13154e-10
1.44653e-10
2.19667e-10
3.76831e-10
6.12788e-10
9.64805e-10
1.69456e-09
2.22453e-09
1.68582e-09
3.96017e-07
1.40765e-07
9.10349e-12
5.11643e-10
2.23451e-10
2.85677e-10
3.4282e-10
2.89088e-10
1.79157e-10
8.33309e-11
6.06033e-11
6.02929e-11
7.69636e-11
1.15831e-10
1.62609e-10
1.9836e-10
2.44823e-10
3.34834e-10
5.08984e-10
9.28074e-10
2.10107e-09
3.82378e-09
1.67745e-09
7.2819e-08
3.77523e-08
3.67496e-11
1.68615e-10
8.17694e-11
1.22741e-10
1.69885e-10
1.4873e-10
7.65229e-11
3.49372e-11
2.58163e-11
2.77485e-11
2.82167e-11
5.88286e-11
7.10607e-11
7.14577e-11
9.79994e-11
9.24998e-11
9.28385e-11
9.24489e-11
9.28385e-11
9.32047e-11
3.62446e-10
1.13247e-16
2.21744e-17
-1.73659e-29
6.54537e-28
7.74848e-28
7.93334e-22
6.15142e-12
5.01745e-12
2.86304e-12
1.8687e-12
3.20021e-12
2.38974e-11
2.51449e-09
2.50227e-18
2.32386e-18
2.35103e-09
-3.28976e-14
-8.49013e-18
0.000751015
0.00556758
0.0110708
0.0179736
0.0216037
0.130743
0.124987
0.105162
0.0775311
0.0431005
0.00957498
4.39743e-25
1.597e-25
6.39009e-27
-8.23043e-18
-7.61445e-18
1.01032e-05
0.00482534
0.0276956
0.0769814
0.149067
0.231551
0.325453
0.444811
0.527362
0.573767
0.616689
0.634424
0.83999
0.831136
0.807991
0.770609
0.709485
0.624816
0.508409
0.410256
0.351971
0.332826
0.348472
0.403424
0.52343
0.658306
0.768709
0.848
0.918927
0.965702
0.9657
0.966368
0.975604
0.977269
0.976771
0.995531
0.996837
0.997909
0.998845
0.999498
0.999498
0.997235
0.988602
0.984517
0.989937
0.98635
0.991989
0.996455
0.978199
0.947665
0.929929
0.963638
0.98032
0.980322
0.98032
0.980322
0.98032
0.977255
0.025246
0.0252324
0.0252189
0.020907
0.010592
0.0101924
0.0166983
0.0196893
0.0196892
0.0191563
0.0170858
0.016109
0.0162428
0.0160528
0.0103139
0.00771252
0.00788413
0.00836062
0.00804163
0.143291
0.0660559
0.00910701
0.00910709
0.00911781
0.00899273
0.010503
0.0134036
0.0157725
0.0166351
0.00913028
0.00605336
0.0057239
0.00542162
0.00507923
0.00506526
0.00508643
0.00682574
0.0078337
0.634588
0.508189
0.34045
0.147236
0.0389914
0.00459677
0.00459449
0.00459678
0.0046069
0.0113088
0.0297372
0.0353408
0.0285655
0.0247423
0.0671341
0.108691
0.0388099
0.0166818
0.0100792
0.640403
0.721163
0.663449
0.396163
0.137097
0.012212
0.0118277
0.128665
0.277711
0.337093
0.359836
0.359604
0.312921
0.310279
0.377835
0.482866
0.499127
0.419788
0.327078
0.643832
0.911853
0.902895
0.576075
0.428469
0.38781
0.70256
0.914421
0.925197
0.789733
0.451184
0.414406
0.497729
0.779381
0.808478
0.849305
0.872579
0.872391
0.618578
0.695012
0.858114
0.94967
0.851987
0.512573
0.637064
0.968292
0.966344
0.931492
0.703438
0.450044
0.427352
0.74616
0.870775
0.874012
0.871286
0.868133
0.868198
0.874907
0.882069
0.88555
0.949612
0.988594
0.743159
0.646024
0.968037
0.945945
0.566168
0.439251
0.441469
0.443239
0.766264
0.873247
0.874231
0.874473
0.874799
0.874896
0.874937
0.793697
0.9092
0.961393
0.999027
0.913813
0.652725
0.887506
0.964467
0.751008
0.60652
0.589296
0.619314
0.681721
0.838846
0.874196
0.874378
0.851013
0.829986
0.874914
0.998356
0.998943
0.999474
0.999479
0.999499
0.999499
0.999498
0.999498
0.999498
0.999498
0.999498
0.999498
0.999484
0.989426
0.895401
0.746965
0.861944
0.976998
0.972669
0.973756
0.978597
0.980322
0.938982
0.999125
0.999125
0.997308
0.995797
0.99606
0.995309
0.992663
0.993066
0.997191
0.999498
0.999498
0.985977
0.978179
0.974056
0.83123
0.709046
0.802032
0.758465
0.725396
0.695472
0.649181
0.611709
0.488683
0.999125
0.999112
0.999112
0.997294
0.976123
0.949922
0.92371
0.84309
0.870526
0.911339
0.906003
0.86327
0.782517
0.660048
0.511433
0.440694
0.282781
0.12822
0.0690573
0.0464123
0.0250972
0.0140395
0.00632023
0.86657
0.84193
0.772895
0.651883
0.403976
0.29972
0.434643
0.477181
0.363837
0.296296
0.253017
0.191637
0.110446
0.0496061
0.0281663
0.00227807
-2.04705e-10
-5.85761e-08
-2.72522e-08
-5.22889e-12
-2.94673e-07
-1.59145e-08
-1.23137e-21
0.0228497
0.00650422
0.000114571
0.000114364
0.000114559
0.000114448
0.025663
0.205716
0.0806627
0.000125686
3.17008e-06
3.09902e-06
3.08026e-06
3.09941e-06
5.71439e-06
9.24475e-06
6.29504e-05
0.000306478
0.000578103
0.000552295
0.000343265
2.34555e-05
1.67811e-05
0.00301366
0.00152964
0.000671954
0.000827995
0.000150752
0.000548187
0.05203
0.11124
0.0751071
0.00833564
5.31895e-06
0.000143594
2.14757e-05
1.58489e-05
0.00030536
0.000527913
0.000325458
0.000187145
0.000212105
0.00369486
0.00913629
0.00466542
0.000612636
0.00497779
0.00497462
0.00364822
0.00514573
0.00297806
0.00405066
0.00467808
0.00116245
0.00506093
0.00682707
0.00690336
0.0054317
0.000406077
1.59923e-05
1.56573e-05
0.00353306
0.00876347
0.0046497
0.000287504
0.000277304
0.00429168
0.0194778
0.0200052
0.00257368
0.00153491
0.00108519
0.00360818
0.00523803
0.00522521
0.00378009
0.000667076
2.71358e-05
5.39666e-07
1.43999e-07
1.23303e-07
0.000116824
0.000113141
4.9452e-05
0.00572726
0.00915823
0.00915361
0.00829593
0.00119938
0.00116109
0.00937531
0.0200206
4.05739e-08
2.57478e-05
9.77635e-05
9.91985e-05
0.00115588
0.00216181
0.00124093
5.10021e-05
2.21445e-07
4.32639e-08
3.67887e-07
5.97041e-07
7.93496e-07
1.62898e-06
0.000125634
0.000170322
2.6726e-05
1.39986e-06
3.72532e-05
7.9476e-05
0.00345828
0.0126623
0.020019
4.05739e-08
0.000118718
0.000212745
0.000179547
2.47825e-05
1.61325e-06
2.90652e-07
2.67329e-07
2.4681e-07
5.09366e-08
4.29048e-08
7.66451e-06
3.42249e-05
2.75212e-05
5.00758e-06
3.97783e-07
3.97854e-07
3.97577e-07
4.95423e-05
0.000155384
0.000568142
0.00202783
0.00483758
4.05861e-08
4.05739e-08
0.000161939
0.000199345
0.000146651
1.72355e-05
5.12797e-06
1.00331e-07
1.01431e-07
2.41833e-07
1.11636e-05
6.12523e-05
6.19957e-05
6.20923e-05
3.28389e-05
4.04758e-07
3.9853e-07
3.97779e-07
3.54616e-05
0.000166236
0.000104488
3.02982e-07
3.06704e-07
4.0403e-08
4.05801e-08
4.05856e-08
1.83662e-05
2.13451e-05
1.11504e-05
8.64184e-07
4.47673e-06
1.00356e-05
5.24959e-05
6.20122e-05
6.20255e-05
5.91181e-05
1.85702e-05
2.91081e-06
6.86389e-07
3.98561e-07
3.99003e-07
3.71437e-06
2.72033e-05
1.5732e-05
2.74163e-06
2.44535e-07
2.75204e-08
7.07683e-08
1.37161e-07
1.27777e-07
1.29621e-07
1.27286e-07
1.30988e-07
1.83969e-05
4.65733e-05
4.66414e-05
2.32103e-05
5.97718e-06
1.56962e-06
1.53962e-06
2.56272e-06
4.0915e-06
3.70298e-06
2.09216e-06
3.18829e-07
2.71186e-07
2.54214e-07
2.45458e-07
2.41079e-07
2.2132e-08
8.12035e-08
3.77551e-07
5.37525e-07
4.77247e-07
3.33687e-07
1.12482e-06
5.99921e-07
1.93837e-06
6.10473e-07
6.25984e-07
2.74098e-06
2.05087e-05
4.62246e-05
4.84e-05
5.2649e-05
2.91395e-05
1.69974e-06
3.27205e-07
2.68295e-05
4.74644e-05
4.73592e-05
2.43652e-05
1.89529e-08
5.73844e-08
1.99325e-07
1.04001e-06
1.92067e-06
1.92882e-06
9.67602e-07
5.96258e-07
4.32398e-07
5.95499e-07
5.78896e-06
4.78073e-05
6.57859e-05
6.68649e-05
6.69156e-05
5.66405e-05
9.81907e-06
1.7099e-06
2.2193e-05
3.79639e-05
3.79523e-05
2.55835e-05
1.14517e-05
1.42721e-08
2.28686e-08
6.67816e-09
1.34303e-07
1.88723e-06
1.88451e-06
1.62421e-06
9.21383e-07
3.23174e-07
9.97495e-07
3.66103e-05
5.40848e-05
4.42834e-05
2.05436e-07
-4.37557e-11
-9.56825e-25
1.60411e-06
4.12438e-06
3.86061e-06
1.7273e-06
1.20639e-06
5.24542e-08
2.10163e-07
1.20941e-08
1.22085e-08
3.64774e-09
1.56814e-09
3.06913e-07
1.32131e-06
1.04557e-06
7.20497e-08
3.45936e-07
2.40353e-06
2.04308e-06
1.51889e-07
3.41225e-09
1.11145e-08
4.04912e-08
4.32227e-07
5.3555e-07
3.05534e-07
1.07405e-09
5.69462e-09
3.99884e-09
2.6e-09
1.32539e-07
1.20602e-08
1.04615e-08
4.76537e-09
1.5865e-09
1.11716e-09
1.06923e-09
1.09586e-09
2.7832e-08
5.09379e-08
1.46262e-09
1.2305e-09
1.34308e-09
3.88319e-09
1.70245e-08
3.58377e-08
2.34059e-08
1.40971e-09
1.26966e-09
1.08126e-09
1.12167e-09
1.50857e-09
2.65243e-09
7.33121e-09
1.28466e-08
8.85768e-09
7.09837e-09
4.64873e-09
2.98638e-09
2.96986e-09
6.87404e-09
2.88988e-08
4.39156e-08
7.89634e-09
1.26348e-09
1.22659e-09
1.95632e-09
4.00348e-09
9.22361e-09
1.0943e-08
1.30673e-08
9.92018e-09
2.42011e-09
9.77378e-10
9.797e-10
9.7611e-10
8.06983e-10
1.40079e-08
8.54767e-09
8.18435e-09
7.86612e-09
6.33641e-09
3.75898e-09
3.81027e-09
5.32246e-09
7.26655e-09
3.58843e-09
3.04289e-09
1.04785e-09
1.36727e-09
1.08474e-09
6.49018e-10
7.53673e-10
2.00753e-09
3.10386e-09
3.22255e-09
2.4398e-09
1.55151e-09
7.97268e-10
6.27932e-10
1.52983e-08
7.73312e-09
5.66647e-09
5.95405e-09
3.97802e-09
7.07654e-10
1.40358e-10
1.39999e-10
2.7474e-10
4.8443e-10
6.11971e-10
7.61197e-10
6.63049e-10
6.39271e-10
6.42708e-10
8.50733e-10
1.15838e-09
1.30406e-09
1.55363e-09
1.45599e-09
9.12229e-10
6.20865e-10
3.96417e-10
1.7018e-08
6.99999e-09
3.22679e-09
2.17904e-09
7.61913e-10
2.20541e-10
1.59589e-10
1.3995e-10
1.42586e-10
1.66066e-10
2.22341e-10
2.66048e-10
2.99458e-10
3.12686e-10
3.47874e-10
4.36435e-10
5.64878e-10
6.30536e-10
6.3597e-10
6.51739e-10
4.60759e-10
2.81572e-10
2.09009e-10
2.37106e-08
5.79488e-09
2.41476e-09
1.47895e-09
5.19283e-10
1.67261e-10
1.10681e-10
1.15231e-10
1.16254e-10
1.16025e-10
1.1772e-10
1.32032e-10
1.40612e-10
1.47608e-10
1.63603e-10
1.9499e-10
2.29502e-10
2.54705e-10
2.75045e-10
2.76886e-10
2.00098e-10
1.26415e-10
1.09703e-10
5.38525e-08
3.56799e-09
2.02638e-09
1.46145e-09
6.5287e-10
2.0993e-10
9.46043e-11
7.20038e-11
6.1892e-11
5.44525e-11
5.25965e-11
5.39262e-11
5.82824e-11
6.32749e-11
6.96436e-11
7.84683e-11
8.81619e-11
9.42063e-11
9.67967e-11
9.73775e-11
7.41059e-11
5.82312e-11
5.58449e-11
1.10058e-07
2.43997e-09
7.93976e-10
5.88231e-10
3.6316e-10
2.02689e-10
1.25389e-10
9.20106e-11
6.28017e-11
4.27291e-11
3.19895e-11
2.6668e-11
2.43309e-11
2.4358e-11
2.58277e-11
2.74487e-11
2.91049e-11
3.02479e-11
3.09753e-11
3.03597e-11
2.65521e-11
2.53039e-11
2.5903e-11
1.39032e-07
6.45062e-09
2.17579e-10
2.55074e-10
2.69922e-10
2.2702e-10
1.84324e-10
1.42725e-10
9.82656e-11
6.00283e-11
3.63119e-11
2.20908e-11
1.40107e-11
1.03112e-11
8.89645e-12
8.52803e-12
8.50255e-12
8.60247e-12
8.68483e-12
8.59659e-12
8.80672e-12
9.42731e-12
1.10054e-11
1.67581e-07
4.95107e-08
2.1709e-10
2.37164e-10
3.23249e-10
3.10237e-10
2.7804e-10
2.27902e-10
1.63873e-10
9.67452e-11
5.87738e-11
3.38151e-11
1.77452e-11
8.68824e-12
4.52287e-12
2.97487e-12
2.2272e-12
2.0998e-12
2.15446e-12
2.32701e-12
2.58117e-12
3.40444e-12
4.26822e-12
1.88485e-07
1.19349e-07
2.52794e-10
2.41568e-10
4.36288e-10
4.50368e-10
4.12363e-10
3.25091e-10
2.52043e-10
1.49098e-10
9.70303e-11
5.84058e-11
3.0845e-11
1.42345e-11
5.76423e-12
2.27552e-12
1.01597e-12
5.56104e-13
5.03682e-13
5.83171e-13
7.44904e-13
1.03391e-12
1.54233e-12
1.88637e-07
1.4371e-07
5.07423e-10
2.22842e-10
4.8305e-10
5.19298e-10
5.30306e-10
5.30579e-10
3.39615e-10
2.02407e-10
1.43643e-10
9.45761e-11
5.30803e-11
2.55332e-11
1.04119e-11
3.7354e-12
1.21095e-12
3.9298e-13
1.50102e-13
1.34946e-13
1.8359e-13
3.30744e-13
4.99754e-13
1.77897e-07
1.69703e-07
1.08014e-08
2.146e-10
4.07619e-10
4.08442e-10
5.47178e-10
1.12791e-09
3.74073e-10
2.60204e-10
1.93303e-10
1.35749e-10
8.22863e-11
4.25401e-11
1.82414e-11
6.77442e-12
2.13323e-12
5.96403e-13
1.54547e-13
4.54981e-14
4.68523e-14
8.22848e-14
1.57892e-13
1.12485e-07
2.15203e-07
8.44827e-08
2.14605e-10
8.05025e-10
4.09979e-10
4.78974e-10
2.11558e-09
3.50021e-10
2.9378e-10
2.46103e-10
1.77782e-10
1.13685e-10
6.25738e-11
2.84204e-11
1.1105e-11
3.77218e-12
1.06485e-12
2.53789e-13
5.41909e-14
1.59754e-14
2.13501e-14
4.14176e-14
9.77684e-08
2.27248e-07
1.36368e-07
2.146e-10
5.48015e-09
5.1325e-08
8.36636e-08
6.25675e-10
3.16938e-10
3.1851e-10
3.01354e-10
2.17084e-10
1.43393e-10
8.06099e-11
3.92444e-11
1.63048e-11
5.90529e-12
1.76551e-12
4.29647e-13
8.92686e-14
1.2277e-14
5.31e-15
1.00525e-14
3.61588e-08
1.62347e-07
1.0627e-07
2.14605e-10
1.01598e-08
1.81243e-07
1.80591e-07
2.56481e-08
3.17858e-10
3.28653e-10
3.31013e-10
2.49308e-10
1.70533e-10
9.42453e-11
4.74355e-11
2.10336e-11
8.04241e-12
2.59058e-12
6.73047e-13
1.35381e-13
2.33618e-14
2.32005e-15
2.28004e-15
8.60091e-09
2.80768e-08
1.88633e-08
3.04093e-09
3.2715e-09
1.86418e-07
3.73352e-07
1.21902e-07
3.29938e-10
3.38854e-10
3.38989e-10
2.60924e-10
1.76688e-10
9.86672e-11
5.0607e-11
2.33612e-11
9.63205e-12
3.32774e-12
9.14739e-13
2.0371e-13
4.05022e-14
2.78331e-15
5.38859e-16
2.69979e-09
4.72499e-09
2.23497e-09
4.79857e-10
9.93199e-10
3.75637e-07
1.45025e-06
5.7719e-07
3.29808e-10
3.73277e-10
3.27028e-10
2.56346e-10
1.71884e-10
9.50744e-11
4.73642e-11
2.2343e-11
9.66761e-12
3.57673e-12
1.06135e-12
2.49528e-13
5.06468e-14
4.02413e-15
2.13773e-16
1.10861e-09
6.45167e-10
7.9558e-10
1.42756e-09
4.37286e-10
6.59218e-07
1.45207e-06
9.87522e-07
2.53725e-09
3.91269e-10
2.86062e-10
2.31445e-10
1.54642e-10
8.22467e-11
3.96792e-11
1.81716e-11
8.00611e-12
3.15424e-12
1.02681e-12
2.6003e-13
5.21732e-14
6.87067e-15
2.27943e-16
6.43174e-10
6.4265e-10
8.44805e-10
2.19327e-09
4.40498e-10
1.01874e-06
1.44223e-06
4.6487e-07
1.09776e-08
3.91273e-10
2.20835e-10
1.8638e-10
1.24017e-10
6.39339e-11
2.87827e-11
1.24086e-11
5.37786e-12
2.16574e-12
7.68466e-13
2.10545e-13
4.54455e-14
5.41612e-15
3.13676e-16
9.94232e-08
1.28074e-08
1.88048e-09
2.32776e-09
4.35195e-10
2.46411e-07
9.37753e-07
6.84658e-08
3.3228e-09
3.06205e-10
1.487e-10
1.29294e-10
8.56487e-11
4.29785e-11
1.79454e-11
7.00325e-12
2.76053e-12
1.11323e-12
4.06354e-13
1.25359e-13
2.83085e-14
4.37889e-15
3.27164e-16
5.08109e-07
1.17399e-07
1.87728e-09
2.5847e-09
3.68978e-09
1.14447e-11
1.08928e-11
1.63904e-09
6.71608e-10
1.88711e-10
8.17346e-11
7.37964e-11
4.89809e-11
2.42063e-11
9.16406e-12
3.07883e-12
1.05246e-12
3.73189e-13
1.42463e-13
5.05461e-14
1.36535e-14
1.90928e-15
2.43887e-16
5.08356e-07
2.58865e-07
1.57724e-08
4.37458e-09
6.69068e-09
1.23874e-09
8.93628e-11
8.58932e-12
3.54571e-10
9.64726e-11
3.51872e-11
3.27042e-11
2.19926e-11
1.07567e-11
3.80658e-12
1.0691e-12
2.81801e-13
8.04849e-14
2.90634e-14
1.32002e-14
3.82768e-15
7.30084e-16
1.44239e-16
4.25607e-07
1.36848e-07
1.09677e-08
2.04394e-09
3.70819e-09
1.02001e-09
1.28911e-10
1.7988e-11
8.36214e-11
1.9541e-11
1.06292e-11
9.75228e-12
6.96101e-12
3.37489e-12
1.11837e-12
2.59075e-13
4.87643e-14
9.16606e-15
3.27255e-15
2.16488e-15
7.50235e-16
2.32685e-16
6.13159e-17
1.77241e-08
3.57644e-09
2.40793e-10
1.16703e-10
1.54276e-11
2.10026e-12
2.61739e-13
6.58978e-12
7.00659e-13
2.57256e-13
1.44932e-12
1.53835e-12
1.15333e-12
5.5997e-13
1.6748e-13
3.21169e-14
4.21365e-15
5.05324e-16
1.86649e-16
2.22849e-16
1.48606e-16
5.68985e-17
2.24438e-17
0.825362
0.791807
0.769119
0.688351
0.372278
0.252827
0.196378
0.415816
0.00891107
0.0129299
0.0113847
0.00526477
5.01026e-05
0.00151155
0.00022585
0.000179854
1.44003e-07
1.60639e-07
2.03981e-08
5.53957e-08
7.38466e-05
2.01987e-10
2.14308e-10
1.63189e-08
0.0155147
0.00430425
0.000903081
1.64498e-08
0.020019
0.0200206
0.019992
0.0066972
0.0169365
0.00926929
0.0091088
0.0169378
0.00463492
0.00192114
0.00053372
0.00299839
2.4576e-07
2.44833e-07
0.000176087
0.000477697
2.4162e-07
6.68372e-07
2.43934e-05
1.59444e-06
2.41926e-07
8.41929e-07
9.11531e-07
1.48818e-06
7.77201e-07
4.35922e-07
4.2953e-07
3.57585e-07
6.89093e-07
7.76581e-07
3.48286e-06
3.55093e-06
2.42265e-06
2.40069e-06
1.94474e-06
1.65519e-06
5.53605e-07
4.16644e-07
1.07208e-08
2.97635e-08
1.44719e-09
5.94606e-09
2.52499e-09
2.34498e-09
1.17181e-09
1.54969e-09
1.45899e-09
1.66508e-09
6.71321e-10
7.32697e-10
9.03536e-10
9.47881e-10
3.72927e-10
4.36644e-10
4.64389e-10
5.22862e-10
2.09356e-10
2.21951e-10
2.65306e-10
2.88494e-10
1.16974e-10
1.27064e-10
1.38983e-10
1.62443e-10
5.97388e-11
6.42857e-11
7.8099e-11
8.72544e-11
2.91087e-11
3.42225e-11
3.80378e-11
4.7171e-11
1.3365e-11
1.5092e-11
1.96439e-11
2.26788e-11
5.5691e-12
6.99339e-12
8.15287e-12
1.03156e-11
2.1502e-12
2.58054e-12
3.57505e-12
4.21927e-12
7.51054e-13
1.07495e-12
1.2896e-12
1.66338e-12
2.59994e-13
3.32768e-13
4.75277e-13
5.93284e-13
7.91098e-14
1.11386e-13
1.49106e-13
2.0243e-13
2.051e-14
2.92835e-14
4.7189e-14
6.30861e-14
4.77191e-15
8.51051e-15
1.2057e-14
1.77264e-14
1.02964e-15
1.75447e-15
3.09992e-15
4.64004e-15
1.90307e-16
3.83965e-16
6.23067e-16
1.02778e-15
3.55281e-17
6.50471e-17
1.36839e-16
2.25294e-16
7.92707e-18
1.24505e-17
2.50271e-17
4.5753e-17
3.09702e-18
1.97198e-18
4.18416e-18
8.21142e-18
3.0183e-18
5.08704e-19
5.57572e-19
1.29172e-18
3.35175e-18
2.59497e-19
8.87234e-20
1.61665e-19
3.08653e-18
2.28854e-19
2.03918e-20
2.16328e-20
2.3468e-18
1.73932e-19
1.11793e-20
2.64196e-21
0.699864
0.954038
0.993787
0.999027
0.982745
0.815864
0.835325
0.969344
0.968416
0.922127
0.749568
0.589948
0.590132
0.794781
0.835917
0.737561
0.745622
0.654208
0.663759
0.842126
0.986508
0.98675
0.989348
0.991527
0.959047
0.85089
0.969316
0.945794
0.878893
0.830112
0.661209
0.58946
0.635578
0.325828
0.255988
0.486258
0.611864
0.480825
0.0293263
0.484837
0.900034
0.931581
0.964317
0.976368
0.97431
0.9641
0.875348
0.578631
0.466754
0.507775
0.589408
0.394808
0.207287
0.205046
0.203555
0.377482
0.480384
2.19434e-09
0.000856479
0.107436
0.560266
0.890477
0.947501
0.954345
0.77856
0.288345
0.0842077
0.15821
0.39008
0.512816
0.456553
0.405552
0.249926
0.159381
0.141769
0.166222
7.87351e-11
4.83924e-12
1.41601e-12
0.009094
0.148012
0.476909
0.5968
0.232658
-1.94317e-19
2.3363e-20
-4.86275e-14
-5.50667e-08
0.173372
0.410557
0.369609
0.370828
0.355748
0.140087
0.094101
3.1362e-05
3.31094e-09
1.20764e-12
-1.6252e-07
1.26244e-09
0.00295575
0.0172743
-1.47191e-11
4.18792e-06
-9.09913e-11
0.000466059
0.00110448
0.000128354
0.0231472
0.0015061
0.117731
0.0714353
0.143935
0.0944214
5.26545e-05
0.000159212
0.000183415
9.9294e-05
5.72949e-06
3.54073e-06
-1.26311e-07
-3.95122e-08
-2.12916e-25
-1.04092e-09
1.34287e-05
7.32963e-05
0.00011153
0.00129514
0.00146482
0.000999867
0.000828073
0.0442025
0.102646
8.55069e-05
8.91693e-05
0.0013133
0.00141987
0.000622153
0.000273926
0.000203602
0.000161449
0.000126533
0.000124311
0.00016622
4.78246e-05
9.58087e-06
0.00102576
0.00236462
0.00178308
0.000929449
0.00388197
0.0905645
0.0169971
0.0122145
0.000886651
0.000473939
0.000472824
0.00156822
0.00368715
0.00409314
0.00411715
0.00380133
0.00125325
-5.91673e-09
9.51058e-06
5.32979e-06
0.00445974
0.00569202
0.00131149
0.00387901
0.00338928
0.00952545
0.0121445
0.0121217
0.0095746
0.00234171
0.000578936
0.000808621
0.00351554
0.00412076
0.00297949
0.000492552
1.82699e-08
1.28443e-06
1.29739e-06
0.00446069
0.00914878
0.00317438
0.00361223
0.00032941
0.000242829
1.03976e-05
0.0071449
0.0103424
0.0102308
0.00151059
2.22539e-06
0.000218654
0.000649533
0.000385619
6.06348e-05
4.58627e-08
1.85471e-06
0.002973
0.00925652
0.00906964
0.00181061
0.00356459
0.000300622
6.69369e-07
4.11752e-07
7.11416e-05
0.0014511
0.00312993
0.00136757
2.27015e-06
2.27367e-06
3.05055e-06
2.86946e-06
6.33212e-07
0.000288135
0.00617016
0.00757063
0.00641405
0.00143976
0.000156732
0.00123079
0.000275946
2.8331e-07
1.439e-06
2.62421e-06
7.77003e-06
4.01179e-05
0.000213455
4.11084e-05
4.33325e-06
2.12538e-06
1.62553e-06
6.3233e-07
0.000233548
0.00450202
0.00329379
1.36779e-06
1.36885e-06
1.37267e-06
1.471e-06
2.07003e-05
2.55672e-07
9.18846e-07
4.91497e-06
3.52097e-05
6.73391e-05
5.22957e-05
1.84628e-05
1.84678e-06
1.76679e-06
5.66553e-06
7.84812e-05
6.8954e-05
0.000903406
0.000327776
1.36762e-06
3.54871e-06
1.64321e-05
1.52996e-05
3.91302e-08
3.11827e-06
1.57146e-05
2.30648e-05
2.14407e-05
1.30314e-05
2.00456e-05
2.7755e-05
1.7382e-05
7.739e-06
0.000111444
0.000166601
0.000153984
1.35077e-06
1.3153e-06
1.38661e-06
2.26206e-06
1.76579e-07
7.5228e-08
3.96143e-08
2.1566e-06
4.48108e-06
9.18081e-06
1.07143e-06
1.90394e-09
4.35843e-06
2.70136e-05
5.43585e-05
5.45315e-05
5.90717e-05
0.00016556
0.000190629
9.83478e-05
1.68155e-06
1.27185e-06
1.45457e-06
1.13467e-06
7.39273e-07
5.42293e-08
5.4648e-08
1.88062e-09
1.8921e-09
1.8923e-09
1.90362e-09
1.88213e-09
3.6999e-06
9.57116e-06
1.72616e-05
2.85866e-05
5.92704e-05
0.00015504
0.000151057
4.69181e-05
1.27574e-06
1.26862e-06
1.2661e-06
5.6174e-07
6.56821e-08
2.95614e-09
3.9509e-09
3.94113e-09
2.7696e-09
2.63011e-09
1.85721e-09
1.29556e-09
1.18507e-09
1.29561e-09
1.08797e-08
4.36594e-06
6.1663e-06
4.71219e-05
4.5863e-05
3.39584e-05
8.21173e-06
4.99433e-08
4.889e-08
4.8222e-08
1.82222e-09
2.38411e-09
2.74666e-09
2.91876e-09
3.03742e-09
3.5622e-09
5.85097e-09
9.13683e-09
1.45686e-08
1.74241e-07
4.01683e-07
4.09853e-09
4.32083e-06
3.11397e-05
3.37812e-05
1.44193e-05
7.06463e-07
5.14933e-07
1.58118e-07
1.06913e-09
1.35896e-09
1.56645e-09
1.90103e-09
3.56336e-09
8.92848e-09
1.54744e-08
2.5152e-08
2.71182e-08
7.70979e-08
4.11072e-09
4.08145e-09
1.51506e-06
1.11285e-05
1.51293e-05
1.40572e-05
1.51825e-05
1.2493e-05
1.25937e-06
5.75189e-10
7.31885e-10
8.83882e-10
1.24756e-09
2.70064e-09
7.99911e-09
1.5476e-08
2.16113e-08
2.4215e-08
2.01247e-08
4.72498e-09
4.09789e-09
2.68904e-07
5.25795e-06
1.03024e-05
1.51691e-05
1.51741e-05
1.51689e-05
3.73533e-06
3.26009e-10
4.33198e-10
5.62076e-10
7.96653e-10
1.30385e-09
2.89105e-09
6.00696e-09
9.78667e-09
1.522e-08
1.1155e-08
6.62811e-09
4.08094e-09
6.69459e-07
9.09364e-06
1.51617e-05
1.51636e-05
1.51689e-05
1.51584e-05
3.30803e-06
1.85584e-10
2.47986e-10
3.38421e-10
5.16625e-10
8.13103e-10
1.29626e-09
2.02168e-09
3.9839e-09
6.65771e-09
8.9775e-09
2.82795e-08
1.54546e-07
1.44757e-06
4.34828e-06
1.01497e-05
1.51618e-05
1.23044e-05
9.16907e-06
4.60471e-06
1.03987e-10
1.44049e-10
2.09849e-10
3.16762e-10
5.19428e-10
8.3579e-10
1.33704e-09
2.4005e-09
4.54649e-09
9.65318e-09
3.52124e-08
1.55053e-07
4.21992e-07
3.43349e-07
5.97222e-07
3.65357e-06
8.39302e-07
7.17586e-07
8.04217e-06
5.59147e-11
8.08973e-11
1.23513e-10
1.93444e-10
3.00689e-10
5.15696e-10
9.17101e-10
1.67041e-09
3.16319e-09
6.48466e-09
1.76472e-08
5.3946e-08
9.32466e-08
1.13759e-07
9.42569e-08
3.38724e-07
2.18727e-07
6.25411e-07
1.75439e-05
2.79708e-11
4.14889e-11
6.4231e-11
1.06733e-10
1.70437e-10
2.88802e-10
5.21295e-10
9.98096e-10
1.85937e-09
3.36041e-09
6.4492e-09
1.42178e-08
1.86925e-08
2.35155e-08
2.01708e-08
1.90482e-08
7.91467e-09
7.18664e-07
1.75063e-05
1.25205e-11
1.95903e-11
3.11619e-11
4.95398e-11
8.58135e-11
1.45294e-10
2.65091e-10
5.07103e-10
9.96523e-10
1.73012e-09
2.81886e-09
5.06158e-09
9.37297e-09
2.00555e-08
2.69882e-08
8.41615e-09
7.91537e-09
4.66921e-07
1.75553e-05
5.32624e-12
8.39366e-12
1.35736e-11
2.20866e-11
3.88127e-11
6.3234e-11
1.24961e-10
2.33685e-10
4.65689e-10
8.67264e-10
1.36957e-09
2.12047e-09
3.95581e-09
5.8711e-09
1.28757e-08
1.0657e-08
8.74417e-09
1.7109e-07
4.15806e-06
2.0485e-12
3.34588e-12
5.45436e-12
8.93643e-12
1.50868e-11
2.66356e-11
4.88294e-11
1.03108e-10
1.99584e-10
3.93795e-10
6.63508e-10
9.06783e-10
1.13973e-09
8.64793e-10
1.80321e-09
4.85132e-09
7.43899e-09
5.09272e-08
2.41276e-08
7.60502e-13
1.24636e-12
2.02631e-12
3.3349e-12
5.66569e-12
9.91349e-12
1.80799e-11
3.73554e-11
8.21988e-11
1.68912e-10
3.23349e-10
4.52065e-10
3.87216e-10
1.55098e-10
1.18046e-10
4.05566e-10
2.0614e-09
8.88375e-09
2.52594e-09
2.59274e-13
4.37065e-13
7.17176e-13
1.15563e-12
1.94195e-12
3.14781e-12
5.95644e-12
1.1624e-11
2.41045e-11
5.09348e-11
7.17706e-11
1.19778e-10
1.60207e-10
7.16848e-11
5.52584e-11
1.4408e-10
4.33823e-10
1.33354e-09
2.49604e-09
8.5222e-14
1.45427e-13
2.38871e-13
3.79957e-13
6.09057e-13
9.80689e-13
1.59717e-12
2.95038e-12
5.39619e-12
6.00121e-12
5.17499e-12
1.37871e-11
3.68266e-11
4.34715e-11
2.91772e-11
4.28936e-11
1.685e-10
3.88682e-10
1.50348e-09
2.4727e-14
4.42829e-14
7.32313e-14
1.14872e-13
1.77184e-13
2.81625e-13
4.42517e-13
7.23756e-13
1.16761e-12
1.37235e-12
5.11681e-13
8.12138e-13
5.09235e-12
1.63065e-11
1.78934e-11
1.28314e-11
2.76916e-11
1.18514e-10
2.06402e-10
6.80658e-15
1.2453e-14
2.09935e-14
3.30591e-14
5.04221e-14
7.3753e-14
1.13289e-13
1.70608e-13
2.64448e-13
3.22962e-13
1.69317e-13
1.25599e-13
5.36883e-13
4.90589e-12
6.92667e-12
7.06823e-12
4.38519e-12
9.09658e-12
3.77858e-11
1.57643e-15
3.24567e-15
5.67232e-15
9.0761e-15
1.35035e-14
1.96069e-14
2.77192e-14
4.19648e-14
5.95766e-14
7.6542e-14
5.27208e-14
4.17002e-14
9.12039e-14
5.09741e-13
1.676e-12
3.18296e-12
1.98702e-12
2.42824e-12
4.56957e-12
3.78808e-16
8.07947e-16
1.44098e-15
2.32539e-15
3.46656e-15
4.98798e-15
7.11324e-15
1.02929e-14
1.54582e-14
2.02291e-14
2.10844e-14
2.27691e-14
4.14762e-14
1.45425e-13
3.92237e-13
9.54415e-13
1.36597e-12
1.00284e-12
8.75655e-13
7.58689e-17
1.73524e-16
3.36349e-16
5.55316e-16
8.45614e-16
1.24191e-15
1.80811e-15
2.77536e-15
4.3593e-15
7.01248e-15
1.02515e-14
1.66493e-14
3.15468e-14
7.47638e-14
2.39333e-13
4.57908e-13
7.06987e-13
7.48988e-13
4.89677e-13
1.48047e-17
3.56973e-17
7.11848e-17
1.23627e-16
1.97397e-16
2.96292e-16
4.61104e-16
7.73117e-16
1.4487e-15
2.83241e-15
5.54991e-15
1.12464e-14
2.28765e-14
5.22609e-14
1.34217e-13
3.31528e-13
4.99788e-13
5.35446e-13
4.19056e-13
2.53002e-18
6.85364e-18
1.46101e-17
2.67649e-17
4.43901e-17
7.07213e-17
1.18852e-16
2.25096e-16
5.32353e-16
1.28339e-15
3.07875e-15
7.28611e-15
1.64321e-14
3.52253e-14
8.33739e-14
2.06206e-13
3.51556e-13
4.35127e-13
3.00436e-13
3.72532e-19
1.05165e-18
2.38539e-18
4.68051e-18
8.49934e-18
1.45368e-17
2.79929e-17
6.37166e-17
1.80805e-16
5.26974e-16
1.50273e-15
3.928e-15
9.68685e-15
2.18381e-14
4.82746e-14
1.16495e-13
2.46824e-13
3.16935e-13
2.00227e-13
4.79919e-20
1.4326e-19
3.41995e-19
7.14378e-19
1.44152e-18
2.88563e-18
6.23341e-18
1.7325e-17
5.78443e-17
1.98288e-16
6.45453e-16
1.90348e-15
5.07869e-15
1.24456e-14
2.76177e-14
5.97639e-14
1.39119e-13
2.00733e-13
1.24119e-13
5.67879e-21
1.87132e-20
4.91462e-20
1.11365e-19
2.43576e-19
5.37158e-19
1.30366e-18
4.2566e-18
1.68736e-17
6.73799e-17
2.4965e-16
8.2132e-16
2.38453e-15
6.24817e-15
1.48304e-14
3.2019e-14
6.16102e-14
8.71361e-14
5.44868e-14
)
;

boundaryField
{
    leftWall
    {
        type            zeroGradient;
    }
    rightWall
    {
        type            zeroGradient;
    }
    lowerWall
    {
        type            zeroGradient;
    }
    atmosphere
    {
        type            inletOutlet;
        inletValue      uniform 0;
        value           nonuniform List<scalar> 
46
(
1.77241e-08
3.57644e-09
0
0
0
0
0
0
0
0
0
0
0
0
0
0
0
0
0
0
0
5.68985e-17
2.24438e-17
2.3468e-18
1.73932e-19
1.11793e-20
2.64196e-21
5.67879e-21
1.87132e-20
4.91462e-20
1.11365e-19
2.43576e-19
5.37158e-19
1.30366e-18
4.2566e-18
1.68736e-17
6.73799e-17
2.4965e-16
8.2132e-16
2.38453e-15
6.24817e-15
1.48304e-14
3.2019e-14
6.16102e-14
8.71361e-14
5.44868e-14
)
;
    }
    defaultFaces
    {
        type            empty;
    }
}


// ************************************************************************* //
