/*--------------------------------*- C++ -*----------------------------------*\
| =========                 |                                                 |
| \\      /  F ield         | OpenFOAM: The Open Source CFD Toolbox           |
|  \\    /   O peration     | Version:  2312                                  |
|   \\  /    A nd           | Website:  www.openfoam.com                      |
|    \\/     M anipulation  |                                                 |
\*---------------------------------------------------------------------------*/
FoamFile
{
    version     2.0;
    format      ascii;
    arch        "LSB;label=32;scalar=64";
    class       volScalarField;
    location    "2.95";
    object      alphas;
}
// * * * * * * * * * * * * * * * * * * * * * * * * * * * * * * * * * * * * * //

dimensions      [0 0 0 0 0 0 0];

internalField   nonuniform List<scalar> 
2268
(
2
2
2
2
2
2
2
2
2
2
2
2
2
2
2
2
2
2
2
2
1.99997
1.99995
1.99995
2
2
2
2
2
2
2
2
2
2
2
2
2
2
2
2
2
2
2
2
2
1.99998
1.99997
2
2
2
2
2
2
2
2
2
2
2
2
2
2
2
2
2
2
2
2
2
2
2
2
2
2
2
1.99997
2
2
2
2
2
2
2
2
2
2
2
2
2
2
2
2
2
2
1.99926
1.99723
1.99977
1.99972
1.99997
2.00001
2
2
2
2
2
2
2
2
2
2
2
1.99755
1.99077
1.9773
1.96671
1.95772
1.95598
1.76255
1.77294
1.8132
1.872
1.93746
1.99624
1.99951
1.99965
1.99987
1.9999
1.9995
1.99854
1.98434
1.93313
1.82887
1.68126
1.50504
1.28975
1.05058
0.889665
0.798501
0.739461
0.710962
0.348635
0.368347
0.420399
0.506472
0.636643
0.812617
1.04315
1.21091
1.29845
1.31386
1.26488
1.14095
0.891565
0.633937
0.417005
0.254495
0.119074
0.0384592
0.036818
0.0338576
0.028898
0.0475757
0.051353
0.00614426
0.00630954
0.00509069
0.00291939
0.00119131
0.000840331
0.00915366
0.0270662
0.0306486
0.0133062
0.0160894
0.00257706
0.00349058
0.021981
0.053706
0.0718544
0.0459673
0.0399504
0.0354606
0.0317877
0.0365356
0.0402123
0.0461819
1.91094
1.91103
1.91347
1.93319
1.96317
1.96376
1.94887
1.94022
1.93925
1.93833
1.94245
1.94427
1.943
1.94209
1.95302
1.95747
1.95725
1.95591
1.95596
1.67619
1.79536
1.91724
1.94202
1.95065
1.95611
1.95683
1.95071
1.94433
1.92922
1.93217
1.93908
1.93884
1.92938
1.90003
1.86842
1.85441
1.86965
1.82254
0.512425
0.696781
1.05013
1.4914
1.73222
1.798
1.83634
1.83347
1.69257
1.56514
1.48748
1.48459
1.50455
1.51343
1.45333
1.39999
1.46823
1.46616
1.46266
0.435435
0.321145
0.381498
0.755453
1.21972
1.45449
1.48364
1.29083
1.01289
0.834309
0.758455
0.76466
0.866415
0.87955
0.787549
0.633661
0.594012
0.709719
0.813001
0.433011
0.162887
0.138808
0.48284
0.642765
0.710593
0.370078
0.123391
0.104645
0.257114
0.572978
0.685384
0.60262
0.326697
0.296473
0.234641
0.206264
0.184591
0.400599
0.387862
0.22685
0.0875987
0.208138
0.534956
0.352104
0.0547607
0.0587561
0.103512
0.335504
0.577283
0.643241
0.331299
0.237828
0.224858
0.237661
0.24753
0.246663
0.186496
0.236952
0.226179
0.0892058
0.0368521
0.296703
0.374126
0.0593792
0.100604
0.507293
0.607687
0.599004
0.595755
0.289111
0.215349
0.211553
0.212034
0.22091
0.232184
0.222059
0.32838
0.17279
0.0694889
0.00188489
0.11425
0.39081
0.152125
0.0524715
0.303642
0.45368
0.463228
0.433025
0.422762
0.296827
0.177977
0.22518
0.310637
0.355426
0.221688
0.00351575
0.00308415
0.00152843
0.00151934
0.00145751
0.00143377
0.00135728
0.00129452
0.00136411
0.00134008
0.00112439
0.00127605
0.00130295
0.0105684
0.111388
0.268267
0.147098
0.0523632
0.0651012
0.0612011
0.0465743
0.0401487
0.0966878
0.00225533
0.00247949
0.00790682
0.0122936
0.0116798
0.0110876
0.0201267
0.0207788
0.00891986
0.00150998
0.00150394
0.0392911
0.0653619
0.0640325
0.191882
0.326725
0.253459
0.351185
0.413117
0.443594
0.491806
0.53084
0.628734
0.0023945
0.0024237
0.00247008
0.00782022
0.0422103
0.106597
0.098172
0.180308
0.189114
0.188
0.203307
0.258996
0.338683
0.462795
0.607908
0.649454
0.807765
0.984802
1.04977
1.07541
1.11451
1.15427
1.16083
0.163608
0.198751
0.302121
0.438547
0.668162
0.829509
0.799006
0.654329
0.672816
0.768151
0.850348
0.914156
0.985489
1.02637
1.02426
1.02716
1.00745
1.00128
1.00157
1.00193
1.00169
1.04134
1.16606
1.09355
1.12316
1.14511
1.14519
1.14284
1.14131
1.42598
1.09764
0.931276
1.01026
1.01058
1.00952
1.00595
1.00211
1.00124
1.00123
1.00109
1.00035
0.999985
1.00001
1.0002
1.00113
1.02166
1.79686
1.70768
1.59928
1.51355
1.49448
1.62224
1.78963
1.63619
1.37529
1.1843
1.05541
1.02475
1.01941
1.01561
1.01106
1.00372
1.00047
1.00062
1.00053
0.997195
0.991941
0.996051
1.00001
2.98491
2.98335
2.91678
2.8003
2.75136
2.713
2.55965
2.5569
2.43166
2.35577
2.32566
2.2853
2.24662
2.19473
2.12849
2.05342
1.85709
1.54641
1.44011
1.45176
1.41587
1.22473
1.01516
2.99245
2.99533
2.99703
2.99032
2.98417
2.98416
2.98731
2.99777
2.99986
3
3
2.99998
2.99962
2.99951
2.9998
2.98281
2.96232
2.90117
2.78529
2.64029
2.48202
2.33338
2.14431
3
2.99996
2.99972
2.99944
2.9962
2.99263
2.99558
2.99971
3
3
3
3
3
3
2.99968
2.99938
2.99982
2.99999
2.99981
2.99979
2.99265
2.96356
2.93922
3
2.99968
2.9994
2.99944
2.99985
2.99989
2.99985
2.99996
3
3
3
2.99998
2.99989
2.9999
2.99998
3
3
3
2.99978
2.99949
2.99827
2.99396
2.98357
3
3
2.99959
2.99945
2.99955
2.9998
2.99981
2.99983
2.99998
3
2.99997
2.99979
2.99979
2.99979
2.99987
3
3
3
2.99988
2.99941
2.99944
2.99992
3
3
3
3
2.99996
2.99995
2.99997
2.99998
2.99996
2.99996
2.99984
2.99979
2.99979
2.99979
2.99993
2.99999
2.99999
2.99999
3
2.99998
2.99984
2.99988
2.99997
3
3
3
3
3
3
3
3
2.99996
2.99984
2.99984
2.99991
2.99997
2.99997
2.99992
2.99991
2.9999
2.9999
2.99996
3
3
3
3
3
3
3
3
3
3
3
3
3
2.99999
2.99998
2.99998
2.99997
2.99975
2.99965
2.99965
2.99975
2.99989
2.99999
3
2.99991
2.99984
2.99984
2.9999
3
3
3
3
2.99999
2.99997
2.99996
2.99996
2.99998
2.99997
2.99986
2.99964
2.9996
2.99961
2.9997
2.99982
2.99996
2.99998
2.99988
2.99983
2.99983
2.99988
2.99994
3
3
3
3
2.99996
2.99993
2.99993
2.99993
2.99998
2.99997
2.9997
2.99964
2.99975
3
3
2.99999
2.99994
2.99993
2.99993
2.99996
2.99999
3
2.99998
3
3
3
3
2.99996
2.99993
2.99994
3
3
2.99999
2.99995
2.99994
3
3
3
2.99999
2.99997
2.99996
3
3
3
3
2.99999
3
3
3
3
2.99999
2.99998
3
3
3
3
3
3
3
3
3
3
3
3
3
3
3
3
3
3
3
3
3
3
3
3
3
3
3
3
3
3
3
3
3
3
3
3
3
3
3
3
3
3
3
3
3
3
3
3
3
3
3
3
3
3
3
3
3
3
3
3
3
3
3
3
3
3
3
3
3
3
3
3
3
3
3
3
3
3
3
3
3
3
3
3
3
3
3
3
3
3
3
3
3
3
3
3
3
3
3
3
3
3
3
3
3
3
3
3
3
3
3
3
3
3
3
3
3
3
3
3
3
3
3
3
3
3
3
3
3
3
3
3
3
3
3
3
3
3
3
3
3
3
3
3
3
3
3
3
3
3
3
3
3
3
3
3
3
3
3
3
3
3
3
3
3
3
3
3
3
3
3
3
3
3
3
3
3
3
3
3
3
3
3
3
3
3
3
3
3
3
3
3
3
3
3
3
3
3
3
3
3
3
3
3
3
3
3
3
3
3
3
3
3
3
3
3
3
3
3
3
3
3
3
3
3
3
3
3
3
3
3
3
3
3
3
3
3
3
3
3
3
3
3
3
3
3
3
3
3
3
3
3
3
3
3
3
3
3
3
3
3
3
3
3
3
3
3
3
3
3
3
3
3
3
3
3
3
3
3
3
3
3
3
3
3
3
3
3
3
3
3
3
3
3
3
3
3
3
3
3
3
3
3
3
3
3
3
3
3
3
3
3
3
3
3
3
3
3
3
3
3
3
3
3
3
3
3
3
3
3
3
3
3
3
3
3
3
3
3
3
3
3
3
3
3
3
3
3
3
3
3
3
3
3
3
3
3
3
3
3
3
3
3
3
3
3
3
3
3
3
3
3
3
3
3
3
3
3
3
3
3
3
3
3
3
3
3
3
3
3
3
3
3
3
3
3
3
3
3
3
3
3
3
3
3
3
3
3
3
3
3
3
3
3
3
3
3
3
3
3
3
3
3
3
3
3
3
3
3
3
3
3
3
3
3
3
3
3
3
3
3
3
3
3
3
3
3
3
3
3
3
3
3
3
3
3
3
3
3
3
3
3
3
3
3
3
3
3
3
3
3
3
3
3
3
3
3
3
3
3
3
3
3
3
3
3
3
3
3
3
3
3
3
3
3
3
3
3
3
3
3
3
3
3
3
3
3
3
3
3
3
3
3
3
3
3
3
3
3
3
3
3
3
3
3
3
3
3
3
3
3
3
3
3
3
3
3
3
3
3
3
3
3
3
3
3
3
3
3
3
3
3
3
3
3
3
3
3
3
3
3
3
3
3
3
3
3
3
3
0.262844
0.312289
0.342782
0.42155
0.661604
0.772315
0.835079
0.572385
1.05969
1.00016
1.00215
1.01803
1.16578
1.16021
1.1466
1.06491
1.04029
1.03925
1.05214
1.03403
1.00173
1.00163
1.00228
1.00328
0.984909
0.996614
1.00004
1.0022
1.95553
1.71484
1.45344
1.55324
2.93143
2.92167
2.84197
2.83157
2.98357
2.99178
2.99846
2.99157
2.99998
2.99998
2.99984
2.99886
3
3
2.99995
3
3
3
3
3
2.99998
3
3
3
2.99998
2.99999
2.99996
2.99993
2.99995
2.99994
2.99994
2.99995
2.99999
2.99999
2.99999
3
3
3
3
3
3
3
3
3
3
3
3
3
3
3
3
3
3
3
3
3
3
3
3
3
3
3
3
3
3
3
3
3
3
3
3
3
3
3
3
3
3
3
3
3
3
3
3
3
3
3
3
3
3
3
3
3
3
3
3
3
3
3
3
3
3
3
3
3
3
3
3
3
3
3
3
3
3
3
3
3
3
3
3
3
3
3
3
3
3
3
3
3
3
3
3
3
3
3
3
3
0.346789
0.0708087
0.0127404
0.00187589
0.0271048
0.239847
0.198406
0.0426528
0.0437001
0.115872
0.335912
0.573863
0.647044
0.311989
0.192911
0.333523
0.46031
0.538118
0.469382
0.147447
0.0292444
0.0335331
0.0243113
0.0129796
0.0530303
0.164667
0.0662971
0.09533
0.154593
0.223096
0.575875
0.667114
0.414756
0.72474
0.78236
0.605286
0.587355
0.703359
0.995486
0.530471
0.206285
0.195232
0.094065
0.0454219
0.0428037
0.0928798
0.29131
0.585384
0.581992
0.575263
0.664541
0.814295
0.855575
0.849459
0.850729
0.714464
0.67982
1.01906
1.06749
0.966908
0.549613
0.244553
0.140234
0.123847
0.320846
0.892675
1.09403
0.997827
0.687804
0.730258
0.936509
0.948196
0.874333
0.878671
0.924634
1.0162
1.0029
1.05783
1.07579
1.07616
0.969076
0.648547
0.539746
0.851611
1.05276
1.10897
1.08815
1.12077
1.09072
0.978573
1.02823
1.0256
0.742566
0.928786
1.06539
1.00171
1.00644
1.03984
1.03346
1.01577
1.04277
1.0839
1.06403
1.01065
1.01069
1.03166
1.11835
1.14089
1.10508
1.21793
1.05805
1.09509
0.903274
1.05965
1.00637
1.00251
1.002
1.00236
1.00263
1.0026
1.00418
1.01116
1.01293
1.00995
1.00261
1.06196
1.10194
1.03883
1.01731
1.0189
1.01947
0.980668
1.02126
1.80579
1.56958
1.26562
1.02428
1.00146
1.00183
1.00203
1.00218
1.00231
1.00232
1.00221
1.00313
1.01465
1.02261
1.01387
1.01209
1.01774
1.01037
0.95149
2.90066
2.85242
2.73678
2.54598
2.18086
1.83775
1.6559
1.50434
1.31885
1.22451
1.08541
1.00454
1.00509
1.00527
1.00783
1.01272
1.0163
1.00993
1.03147
2.97199
2.96215
2.96177
2.96862
2.97866
2.97353
2.94456
2.88952
2.76248
2.6974
2.55092
2.09695
1.47195
1.09573
1.08961
1.1609
1.0719
1.01095
1.04845
2.99898
2.99976
2.98135
2.96884
2.96899
2.99115
2.99975
2.99924
2.99778
2.9985
2.99862
2.98993
2.56405
2.08836
2.32489
1.97506
1.06002
1.01093
1.04635
3
2.99999
2.99988
2.99665
2.99033
2.99451
2.99993
2.99995
2.99999
2.99999
2.99999
2.99802
2.97969
2.96446
2.96441
2.28694
1.03087
1.01637
1.02712
3
2.99999
2.99998
2.99998
2.99993
2.99929
2.99983
2.99998
2.99999
2.99999
2.99999
2.99866
2.98433
2.98901
2.99476
2.81844
1.8585
1.1612
1.04537
3
3
2.99999
2.99985
2.99979
2.99984
2.99991
2.99991
2.99992
2.99997
2.99985
2.99968
2.99678
2.999
2.99999
2.99944
2.97672
2.552
2.02315
2.99992
2.99988
2.99984
2.99974
2.99938
2.99938
2.99944
2.99933
2.99936
2.99934
2.99925
2.99954
2.99999
2.99999
2.99999
2.99999
3
3
2.99998
2.99996
2.99995
2.99991
2.99988
2.99972
2.99949
2.99929
2.99921
2.99921
2.9992
2.9991
2.99918
2.99969
2.99998
2.99999
2.99999
3
3
2.99999
3
3
3
3
3
2.99996
2.99972
2.9995
2.99943
2.99935
2.99942
2.99932
2.99946
2.99981
2.99999
2.99999
2.99999
3
3
3
3
3
3
3
3
3
2.99999
2.99998
2.99996
2.99996
2.99995
2.99983
2.99983
2.9999
2.99997
3
3
3
3
3
3
3
3
3
3
3
3
3
3
3
2.99997
2.99991
2.9999
2.99995
3
2.99999
3
3
3
3
3
3
3
3
3
3
3
3
3
2.99995
2.99992
2.99994
2.99996
2.99988
2.99963
2.99992
3
3
3
3
3
3
3
3
3
3
3
3
2.99997
2.99986
2.99989
2.99984
2.99947
2.99946
2.99985
3
3
3
3
3
3
3
3
3
3
3
3
3
2.99988
2.99972
2.9995
2.99946
2.99946
2.99988
3
3
3
3
3
3
3
3
3
3
3
3
3
2.99998
2.99988
2.99985
2.99983
2.99948
2.9999
3
3
3
3
3
3
3
3
3
3
3
3
3
3
3
2.99999
3
2.9998
2.9999
3
3
3
3
3
3
3
3
3
3
3
3
3
3
3
3
3
3
2.99958
3
3
3
3
3
3
3
3
3
3
3
3
3
3
3
3
3
3
2.99955
3
3
3
3
3
3
3
3
3
3
3
3
3
3
3
3
3
3
2.99955
3
3
3
3
3
3
3
3
3
3
3
3
3
3
3
3
3
3
2.99989
3
3
3
3
3
3
3
3
3
3
3
3
3
3
3
3
3
3
3
3
3
3
3
3
3
3
3
3
3
3
3
3
3
3
2.99999
2.99999
3
3
3
3
3
3
3
3
3
3
3
3
3
3
3
3
3
2.99999
2.99999
2.99999
2.99999
3
3
3
3
3
3
3
3
3
3
3
3
3
3
3
2.99999
2.99999
2.99999
2.99999
3
3
3
3
3
3
3
3
3
3
3
3
3
3
3
3
2.99999
2.99999
3
3
3
3
3
3
3
3
3
3
3
3
3
3
3
3
3
3
3
3
3
3
3
3
3
3
3
3
3
3
3
3
3
3
3
3
3
3
3
3
3
3
3
3
3
3
3
3
3
3
3
3
3
3
3
3
3
3
3
3
3
3
3
3
3
3
3
3
3
3
3
3
3
3
3
3
3
3
3
3
3
3
3
3
3
3
3
3
3
3
3
3
3
3
3
3
3
3
3
3
3
3
3
3
3
3
3
3
3
3
3
3
3
3
3
3
3
3
3
3
3
3
3
3
3
3
3
3
3
3
3
3
3
3
3
3
3
3
3
3
3
3
3
3
3
3
3
3
3
3
3
3
3
3
3
3
3
3
3
3
3
3
3
3
3
3
3
3
3
3
3
3
)
;

boundaryField
{
    leftWall
    {
        type            calculated;
        value           nonuniform List<scalar> 
50
(
2
2
2
2
1.99926
1.76255
0.348635
0.00614426
0.00351575
0.00225533
0.0023945
0.163608
1.09355
1.79686
2.98491
2.99245
3
3
3
3
3
3
3
3
3
3
3
3
3
3
3
3
3
3
3
3
3
3
3
3
3
3
3
3
3
3
3
3
3
3
)
;
    }
    rightWall
    {
        type            calculated;
        value           nonuniform List<scalar> 
50
(
1.95596
1.82254
1.46266
0.813001
0.400599
0.186496
0.222059
0.221688
0.469382
0.703359
0.67982
1.0162
1.06539
1.05965
1.02126
0.95149
1.03147
1.04845
1.04635
1.02712
1.04537
2.02315
2.99998
2.99999
3
3
3
2.99992
2.99985
2.99988
2.9999
2.9999
2.99958
2.99955
2.99955
2.99989
3
3
2.99999
2.99999
3
3
3
3
3
3
3
3
3
3
)
;
    }
    lowerWall
    {
        type            calculated;
        value           nonuniform List<scalar> 
62
(
2
2
2
2
2
2
2
2
2
2
2
2
2
2
2
2
2
2
2
2
1.99997
1.99995
1.99995
1.99995
1.99997
2
2
1.95598
0.710962
0.051353
0.0461819
0.262844
0.312289
0.342782
0.42155
1.91094
1.67619
0.512425
0.435435
0.433011
0.387862
0.236952
0.32838
1.91094
1.91103
1.91347
1.93319
1.96317
1.96376
1.94887
1.94022
1.93925
1.93833
1.94245
1.94427
1.943
1.94209
1.95302
1.95747
1.95725
1.95591
1.95596
)
;
    }
    atmosphere
    {
        type            calculated;
        value           nonuniform List<scalar> 
46
(
3
3
3
3
3
3
3
3
3
3
3
3
3
3
3
3
3
3
3
3
3
3
3
3
3
3
3
3
3
3
3
3
3
3
3
3
3
3
3
3
3
3
3
3
3
3
)
;
    }
    defaultFaces
    {
        type            empty;
    }
}


// ************************************************************************* //
