/*--------------------------------*- C++ -*----------------------------------*\
| =========                 |                                                 |
| \\      /  F ield         | OpenFOAM: The Open Source CFD Toolbox           |
|  \\    /   O peration     | Version:  2312                                  |
|   \\  /    A nd           | Website:  www.openfoam.com                      |
|    \\/     M anipulation  |                                                 |
\*---------------------------------------------------------------------------*/
FoamFile
{
    version     2.0;
    format      ascii;
    arch        "LSB;label=32;scalar=64";
    class       volScalarField;
    location    "2.95";
    object      alpha.galistan;
}
// * * * * * * * * * * * * * * * * * * * * * * * * * * * * * * * * * * * * * //

dimensions      [0 0 0 0 0 0 0];

internalField   nonuniform List<scalar> 
2268
(
1
1
1
1
1
1
1
1
1
1
1
1
1
1
1
1
1
1
1
1
0.999974
0.999946
0.999946
0.999999
1
1
1
1
1
1
1
1
1
1
1
1
1
1
1
1
1
1
1
0.999998
0.999981
0.999968
1
1
1
1
0.999999
0.999999
1
1
1
1
1
1
1
1
1
1
1
1
1
1
1
0.999998
0.999997
1
1
1
1
0.999967
1
1
1
1
1
1
1
1
1
1
1
1
1
1
1
1
1
1
0.999068
0.997225
0.999774
0.999717
0.999968
0.999987
1
1
1
1
1
1
1
0.999999
1
1
1
0.99755
0.991908
0.983779
0.978568
0.973752
0.965003
0.876768
0.882809
0.90279
0.934615
0.968556
0.99794
0.999499
0.999631
0.999842
0.999853
0.999376
0.998663
0.991669
0.966564
0.914335
0.840212
0.747382
0.629534
0.507062
0.426738
0.378151
0.345112
0.326665
0.169611
0.178497
0.20486
0.250457
0.317583
0.406015
0.521238
0.605119
0.648873
0.655941
0.629881
0.567101
0.442828
0.31303
0.198272
0.107908
0.0379523
-2.59612e-07
9.39969e-24
-1.39045e-13
-7.32746e-08
-2.0878e-06
4.65785e-08
2.88566e-05
2.93694e-05
2.88566e-05
2.93694e-05
0.000194927
0.000331591
0.00436203
0.0132976
0.0151472
0.00642297
0.00759778
0.000390012
-2.12881e-15
-8.85693e-08
-5.79569e-07
-1.92679e-07
-4.10229e-24
5.41089e-07
2.97506e-05
0.000103321
0.000230853
0.00101742
0.00487736
0.935663
0.935734
0.938157
0.94296
0.95019
0.950486
0.945491
0.945493
0.946463
0.949182
0.950972
0.950972
0.950972
0.950971
0.95097
0.95097
0.950969
0.95077
0.95096
0.817452
0.85918
0.925877
0.949964
0.953299
0.953291
0.953286
0.953237
0.951882
0.937523
0.930722
0.931955
0.932096
0.92765
0.897982
0.861014
0.828173
0.839043
0.808648
0.137173
0.192519
0.368289
0.629718
0.767051
0.799919
0.834788
0.824613
0.68733
0.56486
0.504711
0.505379
0.522695
0.531687
0.516091
0.487593
0.471358
0.44584
0.442877
0.00242621
1.71106e-13
0.00179772
0.0987656
0.345933
0.458525
0.454874
0.366625
0.23593
0.130339
0.102488
0.10412
0.136519
0.144079
0.148444
0.108751
0.0863421
0.112024
0.126285
3.42054e-06
2.31325e-13
5.41927e-20
1.34127e-19
0.0344369
0.0891169
0.0619872
0.012354
0.00660279
0.00660277
0.0066028
0.00660319
0.00660294
0.0108022
0.00651469
0.00659193
0.00670039
0.00672908
0.00671786
0.00865455
0.00546247
-1.75827e-21
4.40206e-08
1.12642e-06
0.00270869
0.0139492
0.0139245
0.0103055
0.00660278
0.00660282
0.0066035
0.00913069
0.0160335
0.0155868
0.0110495
0.0123966
0.0102043
0.00782975
0.043449
0.044477
0.00617595
4.49759e-08
1.9302e-06
0.00317824
0.00957145
0.00531943
0.00553658
0.00690133
0.00660921
0.00660272
0.0164746
0.0281095
0.0280945
0.0278564
0.0187164
0.00703419
0.00918991
0.0575537
0.0575119
0.0195036
4.59781e-08
2.69788e-05
0.00315954
0.0094565
0.00291103
0.00452168
0.0216292
0.0250106
0.0166066
0.021428
0.025215
0.0106479
0.012812
0.00394497
0.00395524
0.00918867
3.24932e-05
7.27128e-05
4.89582e-05
4.40787e-05
1.24929e-05
2.48011e-05
4.38997e-05
9.5782e-05
8.01326e-05
0.00012667
0.000330661
0.000218548
0.000241221
0.000551441
0.00582886
0.00787519
1.98486e-05
1.01735e-05
0.000158001
0.000463055
0.000406889
0.000408561
0.0129252
8.12756e-05
0.000146245
1.41478e-05
1.41785e-05
7.6635e-07
7.68034e-07
7.66358e-07
7.66593e-07
7.66358e-07
7.66373e-07
7.68634e-07
0.00010144
0.000152878
0.000742369
0.00583827
0.00335396
0.000254105
4.8495e-06
4.84948e-06
0.000934216
0.00203344
0.00203344
0.000935042
0.000221097
0.000241337
0.000194591
0.000104537
6.53905e-05
0.000789612
0.0011381
0.000545402
0.00019223
0.000165209
0.000250131
0.000263647
0.000197574
0.000964852
0.00134722
0.000508907
4.69687e-05
4.85194e-06
4.84946e-06
6.19231e-06
0.000975876
0.00203344
0.00147537
0.000456565
0.000457352
0.000313304
0.000168654
0.000393551
0.00378217
0.00401382
0.00279095
0.000296004
0.000141061
0.000297678
0.000298924
0.000231424
0.000195537
4.32482e-05
4.55661e-05
4.68517e-05
3.09511e-05
2.10447e-05
2.10752e-05
2.55106e-05
8.23284e-05
0.000182044
0.000258991
0.000192863
0.000187673
0.000201364
0.00244639
0.0039982
0.0040138
0.00345711
0.00054607
2.65866e-05
6.15787e-05
7.47869e-05
3.75432e-05
3.55594e-06
3.55807e-06
3.56762e-06
4.5836e-06
1.29264e-05
1.17978e-05
9.42746e-06
9.41542e-06
0.00011806
0.000273573
0.000149478
0.000149446
0.000183586
0.00040004
0.000941759
0.00297204
0.00401264
0.00129776
8.8465e-05
1.3879e-06
1.34857e-06
1.34892e-06
5.35281e-06
1.66448e-05
1.65512e-05
9.15461e-06
3.89462e-06
3.45581e-05
8.64269e-05
8.38252e-05
7.0864e-05
2.28258e-05
2.33264e-05
0.000203461
0.000203599
7.83707e-05
2.21322e-06
1.9654e-06
6.41919e-06
0.000281386
0.000224932
0.000196308
2.90734e-05
1.35804e-06
1.34967e-06
3.54664e-05
0.000169982
0.000172064
0.000170076
4.28835e-05
1.41695e-06
1.37869e-06
0.000325216
0.000439046
0.000409308
7.6483e-05
4.71604e-05
8.83702e-05
0.000121297
0.000122114
0.000115726
2.90788e-05
6.78847e-23
-6.98235e-12
-7.39142e-12
1.52713e-07
2.23294e-06
1.5148e-05
6.42551e-05
0.000158796
0.000161203
3.677e-05
7.87673e-06
1.91627e-06
1.71177e-06
3.58338e-06
0.000223157
0.0005778
0.000576641
2.64266e-09
2.36324e-09
2.64984e-09
5.61238e-06
3.25705e-05
3.37748e-05
3.95386e-06
-1.17831e-10
1.10211e-07
2.27395e-07
2.07182e-07
8.77624e-08
8.66326e-08
3.0966e-07
6.79976e-06
1.20042e-05
1.26425e-05
1.26458e-05
6.19701e-06
2.57187e-07
1.77172e-07
0.000217076
0.000577815
2.63575e-09
1.02621e-06
1.23588e-06
2.90806e-07
3.62745e-08
2.46086e-08
1.72129e-07
2.05446e-07
5.66278e-08
3.0366e-08
2.89339e-08
3.6313e-07
9.82393e-07
4.90024e-07
2.93093e-08
2.83738e-08
5.37408e-07
6.86597e-07
8.36243e-07
4.65922e-07
1.72672e-07
1.69249e-07
0.000123377
2.92428e-09
5.57819e-07
1.90615e-06
1.90775e-06
5.96836e-07
2.96958e-08
2.43683e-08
2.57288e-08
2.62196e-08
2.63726e-08
6.44137e-07
1.33095e-06
1.31447e-06
1.3249e-06
3.13927e-07
1.69207e-08
1.75624e-08
2.39119e-08
8.43663e-07
1.0358e-06
1.07097e-06
2.16865e-07
2.79087e-08
4.65558e-09
1.87793e-09
1.08402e-07
2.19726e-07
1.52364e-07
3.96352e-08
2.79342e-08
7.6337e-08
6.58657e-08
8.60943e-07
1.32609e-06
1.32608e-06
9.78676e-07
2.00441e-07
1.75989e-07
1.67377e-07
8.34053e-08
5.61407e-08
1.14199e-07
3.62789e-07
4.04469e-07
1.36246e-07
2.39757e-08
4.05281e-09
1.88315e-09
1.88142e-09
1.88749e-09
2.26154e-08
6.18528e-08
3.8756e-08
3.73521e-07
5.62474e-07
5.59827e-07
2.50066e-07
2.21505e-07
3.08767e-07
8.29553e-07
8.27513e-07
7.75582e-07
2.31365e-07
2.22895e-07
2.18971e-07
6.2304e-08
4.98204e-08
4.94699e-08
2.4828e-08
2.82546e-09
1.90559e-09
1.88709e-09
4.16042e-09
2.86224e-08
7.42048e-08
5.76187e-08
5.50438e-08
5.52466e-08
5.52552e-08
3.26211e-07
4.26176e-07
1.49905e-06
1.50844e-06
4.17395e-07
4.15778e-07
5.91712e-07
5.94142e-07
4.04426e-07
5.28436e-08
5.24591e-08
1.5612e-08
1.50597e-08
2.29438e-09
1.84735e-09
3.4214e-09
1.10612e-08
2.02895e-08
4.35017e-08
4.44888e-08
1.08072e-07
3.423e-07
7.78129e-07
1.38599e-06
1.32118e-06
2.70233e-08
5.41263e-08
1.89697e-07
1.23447e-06
1.91487e-06
1.41209e-06
1.3891e-06
2.78084e-06
2.81292e-06
2.7854e-06
6.67783e-07
2.02137e-09
1.64606e-09
3.69212e-09
1.12974e-08
3.10999e-08
3.08739e-08
8.1957e-08
5.04806e-07
1.02108e-06
1.0194e-06
4.00316e-07
3.57589e-09
3.16967e-08
1.76825e-07
3.64694e-07
3.6938e-06
4.6713e-06
4.58922e-06
4.64225e-06
3.28024e-06
5.61808e-07
7.07351e-07
4.37255e-07
1.89178e-09
1.38411e-09
2.90861e-09
6.4754e-09
2.15078e-08
4.4641e-08
1.22342e-07
2.03241e-07
6.86864e-08
3.58167e-09
3.56733e-09
3.58387e-09
1.80668e-08
3.84234e-08
5.23406e-08
1.78991e-06
3.92581e-06
1.37028e-06
8.31343e-09
3.16329e-08
3.8483e-08
5.76442e-09
2.22313e-08
1.85406e-09
1.01504e-09
1.5252e-09
1.7054e-09
1.5862e-09
1.57614e-09
1.59901e-09
2.54812e-09
2.51408e-09
5.51143e-09
9.08782e-09
9.75716e-09
1.06758e-08
1.87434e-08
2.62596e-08
1.05076e-09
1.13046e-09
2.04531e-09
8.38733e-09
1.20089e-08
1.07567e-08
5.66016e-09
2.59062e-09
1.84703e-09
7.10801e-10
9.109e-10
1.23876e-09
1.73348e-09
2.10051e-09
2.6834e-09
4.46072e-09
1.02552e-08
1.42926e-08
1.42827e-08
1.32092e-08
3.2435e-09
1.14411e-09
1.11585e-09
1.05079e-09
1.05221e-09
1.21701e-09
2.47344e-09
3.03201e-09
3.1401e-09
2.17708e-09
1.44692e-09
1.90515e-09
5.38507e-10
7.40253e-10
1.49381e-09
2.77306e-09
3.46035e-09
4.09124e-09
4.49892e-09
5.15429e-09
7.66845e-09
1.17355e-08
9.11448e-09
4.60301e-09
2.47328e-09
1.26669e-09
1.0535e-09
1.15745e-09
1.39785e-09
1.45569e-09
1.40877e-09
1.18748e-09
7.63017e-10
5.98598e-10
2.01329e-09
4.24389e-10
4.38668e-10
8.9863e-10
1.6077e-09
2.07382e-09
2.31045e-09
2.47002e-09
2.5601e-09
2.35986e-09
2.53298e-09
2.97481e-09
2.91865e-09
2.1602e-09
1.40855e-09
8.68003e-10
5.74723e-10
5.23067e-10
5.8771e-10
6.00073e-10
4.66502e-10
3.63342e-10
2.49349e-10
2.1549e-09
3.58104e-10
2.18533e-10
3.8806e-10
5.16552e-10
6.05327e-10
6.51798e-10
7.29421e-10
8.71843e-10
9.53217e-10
9.42921e-10
9.78197e-10
1.08243e-09
9.38601e-10
7.23013e-10
4.75177e-10
2.97059e-10
2.17141e-10
1.95214e-10
2.10054e-10
2.03199e-10
1.38711e-10
1.01418e-10
2.31179e-09
3.46532e-10
1.41322e-10
1.7963e-10
2.09872e-10
2.2864e-10
2.37328e-10
2.40289e-10
2.69937e-10
3.03938e-10
3.68555e-10
4.52482e-10
4.42973e-10
3.6953e-10
2.89323e-10
2.05678e-10
1.32411e-10
8.39045e-11
7.52522e-11
7.65723e-11
7.30646e-11
5.51222e-11
4.51533e-11
2.4869e-09
3.79491e-10
9.90187e-11
9.1667e-11
8.72499e-11
8.71219e-11
9.29995e-11
9.75807e-11
1.02386e-10
1.09553e-10
1.20768e-10
1.25254e-10
1.26039e-10
1.15193e-10
9.53843e-11
7.06452e-11
4.47502e-11
2.8558e-11
2.43488e-11
2.45513e-11
2.45725e-11
2.23566e-11
2.01004e-11
2.61159e-09
4.46349e-10
6.56247e-11
4.19541e-11
2.79249e-11
2.38211e-11
2.46832e-11
2.80733e-11
3.13241e-11
3.2035e-11
3.25823e-11
3.26879e-11
3.20862e-11
3.01214e-11
2.60051e-11
1.87687e-11
1.18634e-11
8.40695e-12
7.72734e-12
7.81572e-12
8.05227e-12
8.2991e-12
8.37209e-12
2.69927e-09
6.20433e-10
5.79973e-11
2.99523e-11
1.67017e-11
1.22993e-11
1.0427e-11
8.96498e-12
7.15794e-12
6.15952e-12
6.70613e-12
6.81793e-12
6.66787e-12
6.32517e-12
5.81004e-12
4.06663e-12
2.79872e-12
2.271e-12
2.20004e-12
2.28621e-12
2.52919e-12
2.81557e-12
3.23322e-12
2.80174e-09
8.87179e-10
6.5978e-11
2.8613e-11
1.65915e-11
1.2816e-11
1.15195e-11
1.00268e-11
6.8124e-12
3.95704e-12
2.59916e-12
1.73553e-12
1.24764e-12
1.17135e-12
1.03386e-12
8.86267e-13
6.17165e-13
5.51064e-13
5.57693e-13
6.22923e-13
7.09403e-13
9.42219e-13
1.13562e-12
2.86097e-09
1.16384e-09
1.1086e-10
3.22446e-11
2.14167e-11
2.03971e-11
1.98259e-11
1.71886e-11
1.18346e-11
6.69397e-12
4.11006e-12
2.18891e-12
1.00539e-12
4.65568e-13
2.318e-13
1.62671e-13
1.3321e-13
1.16305e-13
1.22672e-13
1.51386e-13
1.94707e-13
2.61648e-13
3.76651e-13
2.86278e-09
1.33628e-09
1.98872e-10
4.61121e-11
4.24273e-11
5.04143e-11
5.39351e-11
4.46714e-11
2.38209e-11
1.27418e-11
8.33864e-12
4.52529e-12
1.97801e-12
7.94071e-13
2.55847e-13
7.71757e-14
3.06171e-14
2.21788e-14
2.34144e-14
3.04162e-14
4.40066e-14
7.69945e-14
1.10472e-13
2.8408e-09
1.63509e-09
2.9105e-10
8.8887e-11
9.69234e-11
1.48769e-10
1.58143e-10
1.24902e-10
8.45784e-11
4.12125e-11
1.69273e-11
8.91164e-12
3.92769e-12
1.64285e-12
5.35181e-13
1.39604e-13
3.23184e-14
8.23853e-15
4.49377e-15
5.62052e-15
9.52848e-15
1.71044e-14
3.23946e-14
2.64096e-09
1.91916e-09
5.71992e-10
1.78414e-10
2.83936e-10
4.74285e-10
5.31723e-10
3.12921e-10
1.67261e-10
8.61948e-11
3.28409e-11
1.6297e-11
6.99618e-12
3.02714e-12
1.01758e-12
2.88672e-13
6.87949e-14
1.33194e-14
2.50394e-15
1.18281e-15
1.79262e-15
4.23248e-15
8.08236e-15
2.38551e-09
2.23334e-09
8.07709e-10
3.3925e-10
5.54006e-10
9.56427e-10
1.07434e-09
7.09145e-10
3.25127e-10
1.33622e-10
5.83437e-11
2.70332e-11
1.13623e-11
4.75674e-12
1.73365e-12
5.24643e-13
1.35178e-13
2.77644e-14
4.5452e-15
6.9e-16
3.77697e-16
8.21505e-16
2.18016e-15
1.86211e-09
1.88298e-09
1.11256e-09
4.84434e-10
6.97767e-10
1.24491e-09
1.3565e-09
1.16185e-09
5.47342e-10
2.08903e-10
8.2373e-11
3.90917e-11
1.84666e-11
6.82686e-12
2.49951e-12
8.27708e-13
2.27301e-13
5.11975e-14
9.09759e-15
1.22903e-15
2.07065e-16
2.13357e-16
5.89954e-16
1.54582e-09
1.26143e-09
1.00599e-09
5.45235e-10
7.20954e-10
1.33275e-09
1.62914e-09
1.40916e-09
6.79312e-10
2.66426e-10
1.07873e-10
4.67554e-11
2.14048e-11
8.6554e-12
3.2613e-12
1.09586e-12
3.30674e-13
8.26644e-14
1.58707e-14
2.43922e-15
3.53383e-16
7.154e-17
1.61248e-16
1.39902e-09
6.06287e-10
5.46518e-10
5.09901e-10
7.1222e-10
1.52083e-09
1.98798e-09
1.6433e-09
7.35196e-10
2.88686e-10
1.21828e-10
5.02427e-11
2.19448e-11
8.92127e-12
3.35859e-12
1.20144e-12
3.90035e-13
1.06004e-13
2.26137e-14
3.72777e-15
5.73042e-16
5.07679e-17
4.91657e-17
1.5847e-09
3.51522e-10
3.52136e-10
4.07596e-10
7.59229e-10
1.66984e-09
2.09312e-09
1.68954e-09
6.80414e-10
2.73069e-10
1.16054e-10
4.81189e-11
2.0956e-11
8.34472e-12
3.08721e-12
1.08272e-12
3.65286e-13
1.08575e-13
2.60725e-14
4.73075e-15
7.05415e-16
6.94993e-17
1.48689e-17
2.71046e-09
3.79321e-10
3.30537e-10
5.15988e-10
9.37632e-10
1.75203e-09
2.07298e-09
1.20024e-09
3.70513e-10
2.16593e-10
9.25597e-11
3.95809e-11
1.77271e-11
6.9523e-12
2.41549e-12
8.04156e-13
2.7022e-13
8.32903e-14
2.22323e-14
4.4958e-15
7.36452e-16
6.20866e-17
6.41004e-18
4.98336e-09
9.64089e-10
5.35695e-10
8.06581e-10
1.09457e-09
1.61162e-09
1.64937e-09
6.25933e-10
2.06651e-10
1.2913e-10
6.16032e-11
2.73447e-11
1.27591e-11
4.94227e-12
1.59897e-12
4.81302e-13
1.46645e-13
4.54967e-14
1.26317e-14
2.94073e-15
5.0619e-16
5.92377e-17
3.93868e-18
6.24676e-09
2.74533e-09
1.05724e-09
1.06206e-09
1.05138e-09
9.8599e-10
7.61281e-10
2.56494e-10
8.99622e-11
6.16308e-11
3.2243e-11
1.53456e-11
7.50872e-12
2.90434e-12
8.5684e-13
2.20627e-13
5.72382e-14
1.52832e-14
4.3956e-15
1.19635e-15
2.53171e-16
2.69331e-17
2.65379e-18
6.24681e-09
3.75596e-09
1.4183e-09
8.74287e-10
5.18839e-10
3.66062e-10
2.17634e-10
7.44373e-11
2.41019e-11
2.0583e-11
1.28158e-11
6.61235e-12
3.40159e-12
1.31939e-12
3.67103e-13
7.87886e-14
1.53287e-14
3.11438e-15
8.27001e-16
2.98353e-16
6.76694e-17
1.01457e-17
1.56738e-18
4.88445e-09
2.19386e-09
6.52436e-10
2.27902e-10
1.00548e-10
6.60396e-11
3.1888e-11
9.71498e-12
4.20416e-12
4.29478e-12
3.57194e-12
1.85844e-12
1.05645e-12
4.10537e-13
1.0771e-13
1.90713e-14
2.57657e-15
3.17979e-16
8.03941e-17
4.5509e-17
1.26127e-17
3.17559e-18
6.73146e-19
5.27697e-10
1.21165e-10
1.89226e-11
2.17152e-11
1.17415e-11
6.14655e-12
2.65185e-12
8.14685e-13
3.16791e-13
3.28597e-13
4.49606e-13
2.63971e-13
1.63796e-13
6.37917e-14
1.48983e-14
2.1058e-15
1.83266e-16
1.26066e-17
3.78816e-18
4.31556e-18
2.37016e-18
7.5267e-19
2.45167e-19
0.0319999
0.032033
0.0358944
0.045379
-5.34104e-14
-7.23048e-08
-6.25374e-07
-9.44226e-08
1.23157e-06
0.000126948
0.000891085
0.00104643
3.06171e-05
3.86708e-05
0.000255947
0.000300088
0.000273663
0.000143258
7.02733e-05
7.14375e-05
7.48049e-05
0.000204687
0.0015878
0.00255022
3.01644e-05
3.03921e-05
1.53759e-05
0.00167216
0.000488557
6.43103e-05
1.61199e-05
0.000671843
0.000576683
0.000577687
0.000123894
6.46643e-06
0.000550051
0.000423361
5.3056e-05
2.39046e-08
1.48033e-05
2.00623e-05
6.92418e-06
2.39318e-08
1.35327e-07
2.34941e-07
2.32006e-08
2.31904e-08
3.01508e-08
2.53548e-08
2.30245e-08
2.29438e-08
1.52978e-08
1.53179e-08
2.03149e-07
1.12113e-06
8.14051e-08
7.70742e-07
1.78445e-06
1.7904e-06
1.54092e-07
4.24626e-07
5.28653e-07
3.52877e-07
9.59075e-09
2.23383e-08
8.82784e-10
8.84215e-10
1.36668e-09
1.36288e-09
1.67663e-09
1.5915e-09
1.35875e-09
1.40596e-09
1.42152e-09
1.41506e-09
6.00002e-10
6.41345e-10
7.02818e-10
6.95694e-10
2.36458e-10
2.64775e-10
2.69149e-10
2.91627e-10
9.84365e-11
1.00522e-10
1.16239e-10
1.20597e-10
4.56025e-11
4.76593e-11
4.92096e-11
5.33178e-11
2.01727e-11
2.09986e-11
2.34925e-11
2.44308e-11
8.93936e-12
9.77116e-12
1.02216e-11
1.13965e-11
3.67416e-12
3.9545e-12
4.66505e-12
5.02721e-12
1.40904e-12
1.64247e-12
1.81829e-12
2.11932e-12
4.92846e-13
5.70662e-13
7.36377e-13
8.28663e-13
1.59203e-13
2.18123e-13
2.54425e-13
3.16042e-13
5.15418e-14
6.52851e-14
9.3609e-14
1.16014e-13
1.59733e-14
2.29409e-14
3.18304e-14
4.52931e-14
4.55513e-15
6.91272e-15
1.28562e-14
1.88426e-14
1.40321e-15
2.98092e-15
4.77059e-15
8.23799e-15
4.62579e-16
9.11796e-16
1.97572e-15
3.65557e-15
1.42618e-16
3.47271e-16
6.69408e-16
1.37415e-15
4.26465e-17
9.42162e-17
2.37762e-16
4.91199e-16
9.74933e-18
3.02341e-17
6.89811e-17
1.47844e-16
2.15025e-18
5.44343e-18
1.64925e-17
3.82843e-17
4.30715e-19
1.04703e-18
2.95832e-18
8.0253e-18
8.84272e-20
1.49503e-19
4.96817e-19
1.38607e-18
3.3909e-20
2.24097e-20
6.37106e-20
2.26549e-19
2.02587e-20
3.59244e-21
8.82885e-21
2.99179e-20
0.0507446
0.0238366
0.00577412
5.39708e-08
0.000106687
0.00501425
0.00712663
0.0029206
0.00365135
0.0244308
0.0301174
0.0300581
0.0260539
0.00380065
0.00576077
0.00718346
0.00889025
0.00396262
0.00417127
-2.44946e-21
0.00214022
0.00309154
0.000215916
0.000189805
0.00186576
0.00332073
0.00337051
0.00479329
0.00609325
0.00749258
0.0166332
0.0159068
0.00287148
0.0148132
0.0157682
0.0157453
0.00494113
0.00415733
0.0016036
0.00443272
0.00767464
0.00704472
0.000456835
0.000473594
0.000329132
0.00033908
0.00209071
0.00639644
0.00638602
0.00761822
0.00835259
0.00202188
0.0080463
0.0146365
0.014792
0.0148569
0.00783535
0.000911222
0.00228865
0.00556057
0.00862393
0.00800871
0.00167547
0.000981622
0.00776449
0.00820844
0.00774587
0.0134782
0.00271306
0.00164554
0.0016426
0.0016413
0.00164296
0.00329212
0.014777
0.0156999
7.02909e-05
0.000372295
0.000793367
0.00301957
0.00738031
0.00626882
0.00506088
0.00515974
0.00823269
0.0135421
0.0135418
0.00893306
0.00164659
0.00169657
0.00242248
0.00173988
0.00158543
0.00508632
0.0150248
0.00117645
0.000312074
5.93431e-06
5.92268e-06
0.00047161
0.00198
0.00211761
0.000800237
0.00168273
0.00170675
0.00285258
0.00780531
0.00379144
0.00170064
0.00186059
0.00201098
0.00158542
0.00158711
0.00972536
0.00585385
0.00210675
0.000153447
6.37221e-06
1.96438e-05
4.78311e-05
-1.75981e-08
-6.89082e-08
3.13017e-05
2.77595e-05
3.87472e-05
0.000223422
0.00359976
0.00281052
0.00201286
0.00160242
0.00158851
0.00158622
0.0103338
0.00629569
0.00629745
0.00498408
0.00174736
7.51404e-06
7.48598e-06
2.8195e-05
3.27569e-05
2.74885e-05
2.76882e-05
2.77599e-05
2.78439e-05
0.000213789
0.00356324
0.00599486
0.00591998
0.00299966
0.00176698
0.0132609
0.00338795
0.00433395
0.00509036
0.00508803
0.00282084
3.49429e-05
6.80618e-06
3.56066e-06
2.65228e-06
0.0013944
0.00293202
0.00136028
0.000803179
0.000670209
0.00530512
0.0117995
0.00674732
0.0021297
0.013266
0.000526121
0.000755686
0.00129626
0.00163727
0.00228608
0.0014882
4.58785e-05
2.66674e-06
2.63579e-06
0.00155331
0.00414603
0.00415156
0.0026204
0.000307945
0.00238609
0.0182746
0.00968749
0.00197665
0.0132998
9.48309e-05
0.000235778
0.000129235
0.000126465
0.00017179
0.000312276
0.000239046
6.31605e-05
2.65239e-06
0.000183423
0.00119301
0.00308131
0.0018945
0.000433181
0.012034
0.0182715
0.00900067
0.00198036
0.0134526
3.47199e-07
8.1302e-06
3.15311e-05
2.51932e-05
2.6815e-06
9.00834e-07
4.3687e-05
3.93228e-05
6.71094e-06
6.66947e-06
1.19424e-05
0.000151123
0.000142906
0.00895272
0.0182715
0.0182746
0.0163847
0.00479023
0.00981883
1.49483e-07
4.30712e-06
4.61959e-06
2.73632e-06
2.81157e-07
1.51414e-07
3.0111e-06
4.84021e-06
5.82047e-06
6.6781e-06
7.62672e-06
7.77365e-06
0.000329975
0.00270487
0.00523957
0.0174708
0.0176331
0.0141894
1.73244e-05
1.41035e-06
9.1422e-07
7.59287e-07
8.339e-07
4.19861e-07
1.52265e-07
3.69924e-07
4.83711e-07
8.1957e-06
1.92589e-05
1.72897e-05
7.95395e-06
0.000110602
0.000192696
5.89542e-06
0.000549648
0.00576624
0.00673533
1.73242e-05
7.43887e-07
5.59607e-07
7.63061e-07
4.1384e-07
5.92856e-07
1.36028e-06
3.60414e-06
4.82683e-06
1.27543e-05
2.23973e-05
2.2457e-05
1.88667e-05
7.48823e-06
5.35266e-06
5.27521e-06
2.99983e-07
3.21225e-07
7.21182e-07
1.73242e-05
1.06444e-07
1.63635e-07
2.55243e-07
9.38514e-08
4.64324e-07
1.54676e-06
3.31847e-06
4.78624e-06
5.22815e-06
4.49008e-06
1.02566e-05
2.37462e-05
2.34102e-05
1.45839e-05
1.1095e-06
7.08507e-07
7.26041e-07
2.67364e-07
5.77334e-06
8.76107e-10
8.77618e-10
8.73252e-10
9.0473e-10
7.83437e-08
1.46843e-07
1.19859e-07
2.38679e-07
5.92859e-07
1.84256e-06
2.21964e-06
9.45378e-06
2.33057e-05
1.93664e-05
3.42585e-06
2.44866e-06
1.73997e-06
2.93179e-07
2.21105e-07
1.44649e-09
1.22881e-09
9.78241e-10
1.03871e-09
4.1995e-09
7.44081e-11
9.41735e-11
7.44081e-11
4.08372e-13
2.2998e-15
2.47569e-13
3.23662e-10
2.26666e-06
5.25009e-06
3.36727e-06
2.03551e-06
8.20409e-07
2.21254e-07
2.21346e-07
1.2766e-09
1.08803e-09
9.14485e-10
7.12956e-10
3.36253e-10
2.57857e-10
1.66549e-10
1.43351e-10
1.09301e-10
2.59496e-11
6.72793e-22
2.09111e-07
6.50853e-06
5.09599e-06
2.78935e-06
2.19438e-07
2.18618e-07
6.463e-07
3.04584e-07
6.98647e-10
6.72625e-10
5.85765e-10
4.8092e-10
3.97456e-10
3.29658e-10
2.75233e-10
2.57317e-10
3.12911e-10
5.55646e-10
2.28904e-13
9.1152e-07
1.356e-05
1.3573e-05
6.07769e-06
4.45695e-07
5.22608e-06
1.27366e-05
2.66936e-06
2.98071e-10
3.07732e-10
2.70973e-10
2.35621e-10
2.3703e-10
2.75235e-10
3.30743e-10
3.95795e-10
5.59593e-10
8.89462e-10
6.72767e-22
4.45613e-07
6.60636e-06
1.32264e-05
1.32215e-05
1.18326e-05
1.57502e-05
1.56907e-05
4.6161e-06
1.26225e-10
1.34421e-10
1.26565e-10
1.01427e-10
9.52103e-11
1.37108e-10
2.92698e-10
5.23265e-10
7.1621e-10
1.02391e-09
3.88137e-09
9.26944e-08
1.61173e-08
5.98993e-06
1.2215e-05
1.57567e-05
1.5756e-05
1.57582e-05
3.57992e-06
5.56206e-11
5.95425e-11
5.96863e-11
5.73469e-11
6.73415e-11
1.15863e-10
2.23714e-10
4.8406e-10
7.20183e-10
1.14109e-09
4.25216e-09
2.11152e-08
1.61149e-08
2.14727e-08
1.02006e-06
3.31351e-06
4.17936e-06
1.24292e-05
2.68815e-06
2.61697e-11
2.9186e-11
3.16182e-11
3.56709e-11
5.13166e-11
9.49091e-11
1.88294e-10
3.70504e-10
6.25992e-10
1.11922e-09
3.46391e-09
1.17662e-08
2.16234e-08
1.56673e-08
1.26713e-08
1.31852e-08
1.2659e-08
1.3197e-06
3.02689e-06
1.22315e-11
1.41517e-11
1.70009e-11
2.13884e-11
3.15772e-11
6.17766e-11
1.27043e-10
2.44828e-10
4.3581e-10
7.74993e-10
1.89868e-09
6.01712e-09
1.72547e-08
2.84812e-08
2.448e-08
1.28255e-08
1.73563e-08
1.75278e-08
8.91838e-06
5.6072e-12
6.77427e-12
8.53299e-12
1.16685e-11
1.80414e-11
3.42281e-11
7.02923e-11
1.40617e-10
2.53513e-10
4.24773e-10
7.73588e-10
1.91674e-09
3.99e-09
2.24685e-08
6.94056e-08
6.55253e-08
5.41053e-08
8.74764e-08
8.91162e-06
2.3718e-12
3.10317e-12
4.02341e-12
5.59587e-12
9.29606e-12
1.72764e-11
3.53841e-11
7.08693e-11
1.35247e-10
2.22202e-10
3.34536e-10
5.14283e-10
4.27538e-10
6.81801e-09
6.88054e-08
1.81811e-07
2.19942e-07
1.5747e-07
7.77807e-06
9.75755e-13
1.33605e-12
1.82976e-12
2.67147e-12
4.51905e-12
7.94572e-12
1.72893e-11
3.37958e-11
6.61496e-11
1.17239e-10
1.75896e-10
2.33525e-10
2.69246e-10
4.11934e-10
3.07186e-08
1.74502e-07
2.40143e-07
2.86838e-07
7.62042e-07
3.75165e-13
5.6094e-13
8.23757e-13
1.27101e-12
2.11951e-12
3.94961e-12
7.80209e-12
1.66874e-11
3.17736e-11
6.0386e-11
1.01222e-10
1.48666e-10
2.26439e-10
4.31636e-10
3.75739e-09
5.30458e-08
1.93887e-07
2.22311e-07
1.19014e-07
1.48239e-13
2.41601e-13
3.89393e-13
6.6163e-13
1.1682e-12
2.16185e-12
4.10879e-12
8.2393e-12
1.66626e-11
3.21331e-11
6.00582e-11
9.97687e-11
1.64e-10
2.94904e-10
3.46806e-10
3.47215e-10
3.13641e-08
1.07268e-07
8.05347e-08
6.09516e-14
1.13766e-13
2.13189e-13
3.90835e-13
7.7269e-13
1.3997e-12
2.71385e-12
5.0358e-12
9.26728e-12
1.70935e-11
2.75004e-11
5.02862e-11
1.03085e-10
1.84807e-10
3.44011e-10
6.65373e-10
3.24119e-09
1.17669e-08
2.43602e-08
2.83218e-14
6.00282e-14
1.27796e-13
2.61911e-13
5.56914e-13
1.09346e-12
2.06857e-12
3.88733e-12
6.99201e-12
1.17742e-11
1.92833e-11
3.27084e-11
6.21449e-11
1.36002e-10
2.77162e-10
7.61293e-10
1.49501e-09
2.174e-09
1.94677e-09
1.36726e-14
3.28602e-14
7.66354e-14
1.74369e-13
3.81967e-13
8.53503e-13
1.71266e-12
3.29934e-12
6.18827e-12
1.11281e-11
1.93798e-11
3.17795e-11
5.45088e-11
1.25479e-10
2.67305e-10
6.65403e-10
1.34501e-09
1.54929e-09
1.51283e-09
6.549e-15
1.70616e-14
4.33112e-14
1.07076e-13
2.55957e-13
5.9296e-13
1.31347e-12
2.69339e-12
5.58785e-12
1.04473e-11
1.94698e-11
3.51712e-11
6.01147e-11
1.37485e-10
2.78783e-10
6.15483e-10
1.28673e-09
1.74167e-09
1.56104e-09
2.67231e-15
7.96242e-15
2.17836e-14
5.76827e-14
1.4802e-13
3.65258e-13
8.78271e-13
2.05879e-12
4.39926e-12
9.15706e-12
1.77982e-11
3.53072e-11
7.51533e-11
1.6177e-10
3.17169e-10
6.19043e-10
1.23825e-09
1.76459e-09
1.49886e-09
1.02713e-15
3.21977e-15
9.29035e-15
2.60416e-14
7.26998e-14
2.01052e-13
5.14055e-13
1.30849e-12
3.15045e-12
6.98124e-12
1.51156e-11
3.10523e-11
7.08866e-11
1.73539e-10
3.52669e-10
6.31954e-10
1.20297e-09
1.68583e-09
1.13827e-09
3.11687e-16
1.05855e-15
3.41496e-15
1.022e-14
3.05518e-14
9.16312e-14
2.63196e-13
7.22042e-13
1.91789e-12
4.81544e-12
1.11106e-11
2.52535e-11
5.70536e-11
1.4497e-10
3.49609e-10
6.38043e-10
1.06013e-09
1.4709e-09
8.69875e-10
8.69458e-17
3.11288e-16
1.03883e-15
3.35921e-15
1.09257e-14
3.50738e-14
1.12947e-13
3.47309e-13
1.01325e-12
2.73604e-12
6.93112e-12
1.68312e-11
3.83831e-11
1.01207e-10
2.76709e-10
5.93024e-10
9.40014e-10
1.09897e-09
7.05181e-10
1.97518e-17
7.85872e-17
2.80201e-16
9.70644e-16
3.38164e-15
1.2053e-14
4.17202e-14
1.41744e-13
4.83305e-13
1.44285e-12
4.01608e-12
1.06256e-11
2.62465e-11
6.23255e-11
1.66258e-10
4.20888e-10
6.90768e-10
8.50107e-10
4.38438e-10
3.71282e-18
1.53437e-17
5.78865e-17
2.17286e-16
8.38018e-16
3.22776e-15
1.30705e-14
4.89474e-14
1.83008e-13
6.12689e-13
1.9117e-12
5.37638e-12
1.42084e-11
3.40904e-11
8.2454e-11
2.16107e-10
4.49817e-10
5.4004e-10
2.54559e-10
5.97559e-19
2.59576e-18
1.02058e-17
4.04819e-17
1.73339e-16
7.78625e-16
3.44489e-15
1.49933e-14
6.14587e-14
2.31187e-13
7.98835e-13
2.48138e-12
6.99125e-12
1.80764e-11
4.14931e-11
9.14163e-11
2.13643e-10
3.02797e-10
1.42499e-10
8.34472e-20
3.94994e-19
1.68597e-18
7.05918e-18
3.22791e-17
1.59676e-16
7.81207e-16
3.86168e-15
1.80472e-14
7.70323e-14
2.97513e-13
1.01802e-12
3.08633e-12
8.46447e-12
2.07567e-11
4.50976e-11
8.11023e-11
1.0993e-10
5.58021e-11
)
;

boundaryField
{
    leftWall
    {
        type            zeroGradient;
    }
    rightWall
    {
        type            zeroGradient;
    }
    lowerWall
    {
        type            zeroGradient;
    }
    atmosphere
    {
        type            inletOutlet;
        inletValue      uniform 0;
        value           nonuniform List<scalar> 
46
(
5.27697e-10
1.21165e-10
0
0
0
0
0
0
0
0
0
0
0
0
0
0
0
0
0
0
0
7.5267e-19
2.45167e-19
2.02587e-20
3.59244e-21
8.82884e-21
2.99179e-20
8.34472e-20
3.94994e-19
1.68597e-18
7.05918e-18
3.22791e-17
1.59676e-16
7.81207e-16
3.86168e-15
1.80472e-14
7.70323e-14
2.97513e-13
1.01802e-12
3.08633e-12
8.46447e-12
2.07567e-11
4.50976e-11
8.11023e-11
1.0993e-10
5.58021e-11
)
;
    }
    defaultFaces
    {
        type            empty;
    }
}


// ************************************************************************* //
