/*--------------------------------*- C++ -*----------------------------------*\
| =========                 |                                                 |
| \\      /  F ield         | OpenFOAM: The Open Source CFD Toolbox           |
|  \\    /   O peration     | Version:  2312                                  |
|   \\  /    A nd           | Website:  www.openfoam.com                      |
|    \\/     M anipulation  |                                                 |
\*---------------------------------------------------------------------------*/
FoamFile
{
    version     2.0;
    format      ascii;
    arch        "LSB;label=32;scalar=64";
    class       volScalarField;
    location    "2.95";
    object      alpha.water;
}
// * * * * * * * * * * * * * * * * * * * * * * * * * * * * * * * * * * * * * //

dimensions      [0 0 0 0 0 0 0];

internalField   nonuniform List<scalar> 
2268
(
2.16071e-07
4.22538e-08
2.6591e-09
4.4984e-10
2.76722e-10
1.56656e-10
7.0663e-11
5.00994e-11
3.92965e-11
3.43977e-11
3.41471e-11
3.66818e-11
4.24654e-11
5.25607e-11
6.83421e-11
8.91897e-11
1.32479e-10
2.05616e-10
3.06425e-10
5.23105e-10
8.7727e-10
1.1862e-09
1.36661e-09
5.32932e-07
1.87009e-07
3.6897e-11
2.85267e-10
2.54809e-10
1.65818e-10
1.30674e-10
1.04699e-10
7.21726e-11
5.34147e-11
4.83904e-11
5.24103e-11
6.42336e-11
8.59562e-11
1.13617e-10
1.45837e-10
2.21564e-10
3.79299e-10
6.15736e-10
9.70737e-10
1.7037e-09
2.23247e-09
1.68674e-09
3.96521e-07
1.38055e-07
2.12384e-11
4.99239e-10
2.24578e-10
2.87145e-10
3.39203e-10
2.86058e-10
1.74092e-10
8.16694e-11
6.04083e-11
6.02902e-11
7.70049e-11
1.16806e-10
1.62753e-10
1.9789e-10
2.44841e-10
3.35186e-10
5.06613e-10
9.32626e-10
2.09406e-09
3.77155e-09
1.64914e-09
7.63701e-08
3.87445e-08
3.8589e-11
1.71136e-10
8.53593e-11
1.26784e-10
1.71676e-10
1.47586e-10
7.41388e-11
3.40048e-11
2.55277e-11
2.6326e-11
2.73135e-11
5.77625e-11
6.94781e-11
6.98713e-11
9.64825e-11
9.11215e-11
9.14645e-11
9.17317e-11
9.19042e-11
9.17383e-11
9.21292e-11
1.3742e-16
2.54766e-17
-5.99942e-29
4.84024e-28
1.03062e-27
2.38553e-21
8.63761e-12
5.50086e-12
2.8373e-12
1.83622e-12
3.78627e-12
6.59805e-10
3.13909e-09
2.97914e-18
2.76524e-18
2.60948e-09
-3.19464e-14
-8.00577e-18
0.00113764
0.00652716
0.0125755
0.0204224
0.0247797
0.115436
0.109865
0.0908183
0.0642109
0.0313008
0.00171017
6.08418e-25
1.37081e-24
1.20538e-21
-1.00438e-17
-8.9815e-18
0.000232167
0.00736511
0.0334358
0.0855976
0.15948
0.242543
0.339875
0.456901
0.53731
0.583898
0.628617
0.648023
0.822367
0.812835
0.787781
0.747306
0.681883
0.593405
0.478097
0.394217
0.350587
0.342726
0.365723
0.426869
0.551428
0.679093
0.782025
0.856281
0.925249
0.966027
0.965836
0.966625
0.976072
0.977447
0.976951
0.995272
0.996554
0.997779
0.998802
0.999499
0.999499
0.995216
0.986239
0.984509
0.993267
0.991856
0.998115
0.996678
0.978136
0.947162
0.929776
0.964482
0.98032
0.980322
0.98032
0.980322
0.98032
0.977049
0.0251907
0.0251766
0.0251626
0.0206303
0.0104706
0.0101756
0.0168052
0.0196887
0.0196886
0.0190875
0.0170804
0.0160922
0.0162179
0.0159708
0.0100873
0.0076054
0.00781927
0.00834204
0.00804219
0.141734
0.0642947
0.009107
0.0091071
0.00912488
0.00897852
0.0105356
0.0134551
0.015816
0.0165553
0.00894196
0.00597354
0.00569158
0.00535763
0.00504714
0.00503327
0.00505465
0.00676689
0.00782695
0.63364
0.503651
0.327408
0.139454
0.0372663
0.00459632
0.00459441
0.00459639
0.00460765
0.0109844
0.0285292
0.0334729
0.0275967
0.0254054
0.0698821
0.111056
0.0412093
0.0178245
0.0106717
0.640717
0.721662
0.659246
0.378541
0.128676
0.0128951
0.0153803
0.135474
0.282694
0.334455
0.356374
0.353935
0.309132
0.31328
0.389155
0.494569
0.511705
0.430183
0.332718
0.642267
0.910855
0.896211
0.563288
0.424821
0.397688
0.726945
0.918681
0.925986
0.777596
0.450304
0.412693
0.510305
0.790494
0.816313
0.854312
0.872869
0.872701
0.625552
0.696069
0.853888
0.949198
0.837989
0.497173
0.659295
0.967923
0.966631
0.925475
0.686483
0.448649
0.427183
0.76345
0.870288
0.874779
0.872024
0.868227
0.868268
0.874934
0.881752
0.885009
0.949187
0.985539
0.724879
0.657085
0.967855
0.935846
0.542508
0.439718
0.441601
0.444712
0.779557
0.873727
0.874853
0.874882
0.874905
0.874934
0.874947
0.787999
0.908817
0.961087
0.998899
0.901791
0.654236
0.897329
0.961643
0.736644
0.599394
0.583628
0.617704
0.686877
0.845857
0.87484
0.874873
0.849879
0.830391
0.87494
0.998367
0.998948
0.999474
0.999479
0.999499
0.999499
0.999499
0.999499
0.999499
0.999499
0.999498
0.999498
0.999485
0.990101
0.894987
0.74689
0.864087
0.976864
0.972567
0.973773
0.978661
0.980322
0.934591
0.999125
0.999125
0.997359
0.995892
0.996101
0.995481
0.992955
0.993073
0.997026
0.999496
0.999498
0.986869
0.978162
0.975071
0.834771
0.709199
0.801009
0.756543
0.724766
0.695264
0.648197
0.609384
0.481468
0.999125
0.999112
0.999112
0.997358
0.976348
0.947561
0.923989
0.844866
0.86975
0.912584
0.909764
0.869707
0.790165
0.66682
0.51632
0.442638
0.281868
0.127321
0.0693324
0.0467742
0.0247741
0.0136327
0.00651532
0.871518
0.846113
0.775829
0.653985
0.406075
0.289935
0.419069
0.474077
0.372914
0.304982
0.261999
0.201005
0.117173
0.0526839
0.0295906
0.0028794
-4.83539e-09
-7.56919e-08
-5.09164e-08
-2.03645e-12
-3.48735e-07
-2.11406e-09
4.75781e-21
0.0259079
0.00789476
0.000114576
0.000114367
0.000114561
0.000114451
0.02149
0.19971
0.0835609
0.000145659
3.17155e-06
3.09794e-06
3.0792e-06
3.09842e-06
4.52738e-06
6.97185e-06
5.41126e-05
0.000300085
0.000561526
0.000532116
0.000347407
1.16202e-07
8.41016e-06
0.00298406
0.00156125
0.000722612
0.000887908
0.000156841
0.00062715
0.0521862
0.110113
0.0751644
0.0087238
5.25893e-06
0.000164326
3.18204e-05
4.10919e-06
0.00027624
0.000518354
0.000323508
0.000199434
0.000213911
0.00342066
0.00866141
0.00450364
0.000597485
0.00496168
0.0049571
0.00364794
0.00510447
0.00299539
0.00413493
0.00484426
0.000722368
0.00464756
0.0066217
0.00673042
0.00570763
0.000622407
6.9029e-06
9.78942e-06
0.00267595
0.00878174
0.00527783
0.000355091
0.000334322
0.00319303
0.018994
0.020001
0.00249988
0.00152657
0.00094805
0.00318688
0.00523803
0.00522521
0.00422886
0.000742041
4.5372e-05
6.30518e-07
1.90539e-07
1.28442e-07
0.000106662
0.000110471
1.25108e-05
0.00544248
0.00914006
0.00913524
0.0084322
0.0013597
0.00128738
0.00857202
0.0200206
4.05739e-08
1.03725e-05
9.23021e-05
9.37418e-05
0.000871688
0.00205532
0.00128675
9.71958e-05
2.74594e-07
6.74664e-08
3.05641e-07
5.56377e-07
7.26176e-07
8.37963e-07
0.000102447
0.000196516
5.47924e-05
3.96754e-07
6.05571e-05
5.47708e-05
0.00244864
0.0120736
0.020019
4.05739e-08
0.000100135
0.000194875
0.000186521
3.58125e-05
1.13607e-06
1.26568e-07
1.0175e-07
2.37088e-07
7.89719e-08
7.09005e-08
5.13544e-06
3.29296e-05
3.22307e-05
7.31194e-06
6.70043e-07
3.99747e-07
3.95758e-07
1.91471e-05
0.000105639
0.000512265
0.00200159
0.00543458
4.05801e-08
4.04703e-08
0.000135668
0.00018324
0.00014967
2.04106e-05
6.96303e-06
1.01011e-07
1.02039e-07
4.9047e-07
6.46686e-06
5.88642e-05
6.17508e-05
6.19774e-05
4.25193e-05
9.24269e-07
4.12528e-07
3.97938e-07
2.87536e-05
0.000138576
0.000118675
3.72205e-07
3.81447e-07
3.94551e-08
4.01405e-08
4.04703e-08
1.30198e-05
1.51705e-05
1.10596e-05
1.35831e-06
4.17416e-06
8.27924e-06
4.82332e-05
6.19118e-05
6.18744e-05
6.10969e-05
2.19607e-05
3.26027e-06
8.66008e-07
4.02561e-07
3.95194e-07
2.75186e-06
3.05365e-05
1.75904e-05
3.53668e-06
2.43558e-07
2.48471e-08
7.16934e-08
1.46924e-07
1.2653e-07
1.28541e-07
1.25958e-07
1.35401e-07
1.31526e-05
4.67593e-05
4.62537e-05
2.44653e-05
6.15434e-06
1.68705e-06
1.65569e-06
3.08432e-06
4.60931e-06
4.18766e-06
2.39267e-06
2.80484e-07
2.73821e-07
2.62899e-07
2.50788e-07
2.53873e-07
2.04913e-08
7.76959e-08
3.82815e-07
5.61958e-07
5.80602e-07
4.18029e-07
1.04347e-06
5.83317e-07
1.10505e-06
5.49773e-07
5.65526e-07
3.01622e-06
2.13573e-05
4.78518e-05
4.8873e-05
5.37812e-05
2.93706e-05
1.69261e-06
2.89596e-07
2.38532e-05
4.66312e-05
4.65665e-05
2.55287e-05
1.84034e-08
4.91389e-08
1.56528e-07
9.91336e-07
1.95327e-06
1.96411e-06
1.03777e-06
5.78907e-07
3.80397e-07
5.34819e-07
6.76213e-06
5.02391e-05
6.47322e-05
6.59747e-05
6.61176e-05
5.40221e-05
7.85105e-06
1.71357e-06
2.30198e-05
3.79716e-05
3.79876e-05
2.69709e-05
1.27293e-05
1.38972e-08
2.09761e-08
7.8942e-09
1.22758e-07
1.84703e-06
1.8714e-06
1.70259e-06
7.88572e-07
3.80976e-07
1.46259e-06
3.95534e-05
5.21717e-05
4.04657e-05
-2.75856e-10
-5.14748e-11
-1.61353e-24
1.79674e-06
4.03422e-06
3.66018e-06
1.72725e-06
1.46958e-06
1.36357e-07
2.90622e-07
1.19097e-08
1.17829e-08
3.22175e-09
1.54349e-09
2.5178e-07
1.2385e-06
8.73502e-07
4.92708e-08
5.09709e-07
2.32466e-06
1.642e-06
1.29383e-07
4.04509e-09
1.3592e-08
4.80434e-08
4.43743e-07
4.89913e-07
2.7079e-07
1.08439e-09
5.439e-09
1.57673e-09
1.59273e-09
1.56109e-07
1.20797e-08
1.02393e-08
4.74887e-09
1.55478e-09
1.00888e-09
9.56262e-10
9.87415e-10
2.96955e-08
4.71906e-08
1.62569e-09
1.24464e-09
1.49838e-09
4.70569e-09
1.78889e-08
3.43895e-08
1.89333e-08
1.73678e-09
1.45715e-09
1.09186e-09
1.14714e-09
1.499e-09
3.03582e-09
7.84659e-09
1.27137e-08
8.84976e-09
7.17721e-09
4.85138e-09
3.13283e-09
3.27556e-09
8.05896e-09
2.89596e-08
4.10503e-08
6.30924e-09
1.29538e-09
1.23782e-09
2.07735e-09
4.22943e-09
9.1362e-09
1.04654e-08
1.2564e-08
9.30977e-09
2.34986e-09
9.79562e-10
9.8021e-10
9.80919e-10
9.05293e-10
1.40362e-08
8.46371e-09
8.02531e-09
7.74779e-09
6.1077e-09
3.59068e-09
3.61046e-09
4.96434e-09
6.98385e-09
3.4091e-09
2.89197e-09
1.05561e-09
1.33799e-09
1.0542e-09
6.50833e-10
8.21385e-10
2.04817e-09
3.08548e-09
3.16578e-09
2.38854e-09
1.52042e-09
7.82168e-10
6.31674e-10
1.51732e-08
7.61687e-09
5.52599e-09
5.71892e-09
3.61211e-09
6.14583e-10
1.40581e-10
1.39255e-10
2.1552e-10
4.64303e-10
6.07045e-10
7.44803e-10
6.5357e-10
6.32042e-10
6.4037e-10
8.57516e-10
1.16105e-09
1.30666e-09
1.54497e-09
1.43208e-09
8.87597e-10
6.13197e-10
3.94712e-10
1.67803e-08
6.82477e-09
3.16839e-09
2.08177e-09
7.09728e-10
2.11979e-10
1.56846e-10
1.39204e-10
1.42807e-10
1.67013e-10
2.213e-10
2.6396e-10
2.95773e-10
3.0984e-10
3.46666e-10
4.37708e-10
5.63982e-10
6.26438e-10
6.33224e-10
6.45452e-10
4.51221e-10
2.76814e-10
2.0974e-10
2.35465e-08
5.59837e-09
2.3663e-09
1.44133e-09
5.09473e-10
1.66286e-10
1.10249e-10
1.13795e-10
1.14465e-10
1.14214e-10
1.16435e-10
1.30228e-10
1.38725e-10
1.46115e-10
1.62696e-10
1.94315e-10
2.28679e-10
2.5367e-10
2.7337e-10
2.7417e-10
1.95653e-10
1.25269e-10
1.10251e-10
5.58215e-08
3.48651e-09
1.97859e-09
1.40966e-09
6.27348e-10
2.04914e-10
9.46635e-11
7.18174e-11
6.15691e-11
5.39981e-11
5.19955e-11
5.32917e-11
5.75931e-11
6.25828e-11
6.90347e-11
7.80012e-11
8.75246e-11
9.34813e-11
9.61493e-11
9.6509e-11
7.31271e-11
5.80066e-11
5.60895e-11
1.10243e-07
2.55516e-09
7.49577e-10
5.59756e-10
3.51417e-10
2.00513e-10
1.26178e-10
9.30228e-11
6.32212e-11
4.2844e-11
3.18027e-11
2.64487e-11
2.40599e-11
2.40504e-11
2.55437e-11
2.71607e-11
2.88188e-11
2.9987e-11
3.07376e-11
2.99507e-11
2.63341e-11
2.52968e-11
2.60157e-11
1.39346e-07
7.40029e-09
2.18502e-10
2.54107e-10
2.69938e-10
2.28125e-10
1.85886e-10
1.43917e-10
9.90326e-11
6.0372e-11
3.66132e-11
2.21473e-11
1.39797e-11
1.02225e-11
8.78933e-12
8.42072e-12
8.40377e-12
8.51743e-12
8.62552e-12
8.54743e-12
8.80508e-12
9.41485e-12
1.11084e-11
1.69448e-07
4.76986e-08
2.18301e-10
2.39828e-10
3.25864e-10
3.1328e-10
2.80557e-10
2.28905e-10
1.64462e-10
9.71787e-11
5.91608e-11
3.40265e-11
1.78168e-11
8.69373e-12
4.50047e-12
2.94122e-12
2.19993e-12
2.08212e-12
2.12748e-12
2.32001e-12
2.5748e-12
3.43616e-12
4.28659e-12
1.88543e-07
1.17564e-07
2.5588e-10
2.46489e-10
4.38193e-10
4.51031e-10
4.13118e-10
3.29722e-10
2.50998e-10
1.4924e-10
9.73699e-11
5.86931e-11
3.09847e-11
1.42757e-11
5.76882e-12
2.26788e-12
1.007e-12
5.49054e-13
5.02015e-13
5.83936e-13
7.4953e-13
1.0348e-12
1.56663e-12
1.88637e-07
1.41569e-07
5.57516e-10
2.25328e-10
4.82607e-10
5.16663e-10
5.31227e-10
5.45078e-10
3.37102e-10
2.01912e-10
1.43953e-10
9.47535e-11
5.31945e-11
2.55776e-11
1.04169e-11
3.74456e-12
1.18917e-12
3.89779e-13
1.49352e-13
1.35452e-13
1.84559e-13
3.36412e-13
5.05218e-13
1.79138e-07
1.65984e-07
1.05745e-08
2.146e-10
4.05271e-10
4.05863e-10
5.54112e-10
1.13969e-09
3.70584e-10
2.59931e-10
1.9372e-10
1.3583e-10
8.22796e-11
4.25046e-11
1.82832e-11
6.67461e-12
2.12434e-12
5.92381e-13
1.53087e-13
4.56076e-14
4.75112e-14
8.25048e-14
1.61379e-13
1.13983e-07
2.15768e-07
8.11688e-08
2.14605e-10
8.22501e-10
4.07282e-10
6.23296e-10
2.00764e-09
3.46975e-10
2.94385e-10
2.46259e-10
1.77759e-10
1.13542e-10
6.25909e-11
2.80815e-11
1.10566e-11
3.75078e-12
1.05709e-12
2.51384e-13
5.34859e-14
1.59794e-14
2.18403e-14
4.18597e-14
9.85568e-08
2.26279e-07
1.34915e-07
2.146e-10
5.83987e-09
5.47144e-08
8.73383e-08
3.16989e-10
3.1701e-10
3.18927e-10
3.00807e-10
2.16885e-10
1.43411e-10
7.98162e-11
3.90328e-11
1.6212e-11
5.86441e-12
1.75134e-12
4.2564e-13
8.8199e-14
1.20394e-14
5.31485e-15
1.03328e-14
3.67573e-08
1.64657e-07
1.0568e-07
2.14605e-10
1.13277e-08
1.84403e-07
1.80093e-07
2.84241e-08
3.18116e-10
3.29071e-10
3.30734e-10
2.48024e-10
1.69795e-10
9.36865e-11
4.7119e-11
2.08819e-11
7.98217e-12
2.56874e-12
6.66377e-13
1.34446e-13
2.27753e-14
2.31955e-15
2.3231e-15
9.40736e-09
2.93103e-08
1.91937e-08
3.00563e-09
3.28034e-09
1.89983e-07
4.06475e-07
1.20898e-07
3.17693e-10
3.3836e-10
3.37756e-10
2.59871e-10
1.75663e-10
9.80052e-11
5.02008e-11
2.3168e-11
9.54932e-12
3.29733e-12
9.05748e-13
2.01532e-13
4.00093e-14
2.71544e-15
5.47141e-16
2.69534e-09
5.25656e-09
2.44695e-09
4.86307e-10
8.51002e-10
3.84512e-07
1.45126e-06
5.98106e-07
3.17439e-10
3.72509e-10
3.25071e-10
2.54843e-10
1.70693e-10
9.42849e-11
4.69405e-11
2.21323e-11
9.57573e-12
3.54257e-12
1.05101e-12
2.46983e-13
5.00623e-14
3.92828e-15
2.13018e-16
1.1143e-09
6.41112e-10
8.15129e-10
1.41951e-09
4.3502e-10
6.65121e-07
1.4509e-06
9.93033e-07
2.87149e-09
3.89025e-10
2.83578e-10
2.29576e-10
1.53265e-10
8.14518e-11
3.92615e-11
1.79775e-11
7.92329e-12
3.12265e-12
1.01682e-12
2.57463e-13
5.16794e-14
6.72432e-15
2.22269e-16
6.39256e-10
6.38784e-10
8.41117e-10
2.17631e-09
4.36779e-10
1.00368e-06
1.43649e-06
4.48942e-07
1.05873e-08
3.83094e-10
2.18406e-10
1.84391e-10
1.22628e-10
6.31915e-11
2.84353e-11
1.22593e-11
5.31547e-12
2.14305e-12
7.60955e-13
2.08623e-13
4.5007e-14
5.3653e-15
3.0604e-16
9.11775e-08
1.22736e-08
1.89362e-09
2.31135e-09
4.35023e-10
2.26941e-07
9.06134e-07
6.67671e-08
3.06135e-09
3.00098e-10
1.46641e-10
1.27562e-10
8.44837e-11
4.23923e-11
1.76946e-11
6.90632e-12
2.72516e-12
1.10044e-12
4.02421e-13
1.24307e-13
2.8088e-14
4.3461e-15
3.20564e-16
5.07559e-07
1.16666e-07
1.88926e-09
2.5647e-09
3.71496e-09
1.14335e-11
1.08928e-11
1.07825e-09
6.51157e-10
1.87422e-10
8.04474e-11
7.26198e-11
4.82012e-11
2.38231e-11
9.02131e-12
3.03197e-12
1.03745e-12
3.68643e-13
1.41079e-13
5.01677e-14
1.35647e-14
1.90067e-15
2.4027e-16
5.0835e-07
2.6132e-07
1.58303e-08
4.3073e-09
6.6228e-09
1.29095e-09
9.31104e-11
9.41668e-12
3.45879e-10
9.50965e-11
3.45566e-11
3.20967e-11
2.1593e-11
1.05638e-11
3.74011e-12
1.05115e-12
2.77429e-13
7.94323e-14
2.8787e-14
1.3108e-14
3.8089e-15
7.28444e-16
1.42902e-16
4.29508e-07
1.39025e-07
1.09402e-08
1.99554e-09
3.65604e-09
1.0222e-09
1.32394e-10
1.83425e-11
8.14184e-11
1.91811e-11
1.04031e-11
9.54954e-12
6.81831e-12
3.30755e-12
1.09686e-12
2.54395e-13
4.7966e-14
9.04444e-15
3.24349e-15
2.15081e-15
7.47678e-16
2.32735e-16
6.13428e-17
1.89805e-08
3.73927e-09
2.41726e-10
1.16368e-10
1.56668e-11
2.12026e-12
2.63267e-13
6.43552e-12
6.95666e-13
2.51559e-13
1.41486e-12
1.50213e-12
1.12683e-12
5.47675e-13
1.64053e-13
3.15207e-14
4.14528e-15
4.98836e-16
1.85222e-16
2.21596e-16
1.48202e-16
5.71156e-17
2.25338e-17
0.8192
0.789355
0.762685
0.686428
0.363961
0.240634
0.195965
0.468726
0.0096827
0.0129723
0.0117196
0.00643921
0.000123137
0.00186245
0.000269533
0.000236175
2.3491e-07
8.78375e-07
2.33683e-08
8.98523e-08
7.36502e-06
2.37511e-10
2.59907e-10
1.5937e-08
0.0160465
0.00433329
0.00127381
2.6448e-05
0.020019
0.0200206
0.0199914
0.00784448
0.0192294
0.0101849
0.00940226
0.0167686
0.00529321
0.00259977
0.000496551
0.00280921
2.41245e-07
2.41079e-07
5.08203e-05
0.000381102
2.41112e-07
2.41226e-07
1.66941e-05
1.18515e-06
2.43357e-07
5.84679e-07
5.66616e-07
1.12011e-06
1.34793e-06
3.9861e-07
3.97178e-07
4.36572e-07
8.18144e-07
5.48914e-07
3.17812e-06
3.25622e-06
2.39008e-06
2.36705e-06
2.06815e-06
1.75252e-06
6.22399e-07
4.40216e-07
1.3609e-08
3.19788e-08
2.18926e-09
2.58618e-09
2.34128e-09
1.91577e-09
1.23058e-09
1.60557e-09
1.46407e-09
1.66972e-09
6.79447e-10
7.45051e-10
9.24286e-10
9.6431e-10
3.79277e-10
4.4516e-10
4.7141e-10
5.32977e-10
2.11532e-10
2.24816e-10
2.71003e-10
2.93924e-10
1.18392e-10
1.28796e-10
1.41058e-10
1.65227e-10
6.01572e-11
6.49988e-11
7.96503e-11
8.89341e-11
2.94033e-11
3.47918e-11
3.87184e-11
4.79876e-11
1.35109e-11
1.52914e-11
2.00512e-11
2.31304e-11
5.70071e-12
7.08817e-12
8.29719e-12
1.04981e-11
2.17616e-12
2.61834e-12
3.64917e-12
4.30234e-12
7.62305e-13
1.09595e-12
1.31141e-12
1.69129e-12
2.63766e-13
3.37074e-13
4.86308e-13
6.0434e-13
8.13143e-14
1.13427e-13
1.51804e-13
2.06005e-13
2.0898e-14
2.9733e-14
4.84701e-14
6.43713e-14
4.85686e-15
8.75825e-15
1.23063e-14
1.8118e-14
1.05915e-15
1.80681e-15
3.17598e-15
4.75465e-15
1.94238e-16
3.98691e-16
6.42776e-16
1.05686e-15
3.66609e-17
6.73169e-17
1.40919e-16
2.32581e-16
8.02384e-18
1.30437e-17
2.59494e-17
4.72222e-17
3.06631e-18
2.02714e-18
4.35538e-18
8.51678e-18
2.93651e-18
5.1636e-19
5.86932e-19
1.34657e-18
3.27473e-18
2.55534e-19
9.23444e-20
1.70364e-19
3.03794e-18
2.25756e-19
2.04816e-20
2.26597e-20
2.33158e-18
1.72251e-19
1.11191e-20
2.76405e-21
0.709033
0.955565
0.993812
0.998905
0.978643
0.807121
0.843133
0.969276
0.968727
0.917343
0.736398
0.590591
0.591062
0.801024
0.823858
0.721297
0.740613
0.65816
0.676614
0.867897
0.987518
0.987776
0.991424
0.990475
0.956806
0.853977
0.969051
0.945503
0.878032
0.826674
0.65755
0.589475
0.617596
0.301075
0.244519
0.479996
0.609646
0.477953
0.0394376
0.524337
0.912511
0.932546
0.96844
0.97562
0.972563
0.961362
0.871133
0.573162
0.463539
0.512574
0.589397
0.382724
0.201175
0.199848
0.198395
0.367606
0.476686
1.20772e-12
0.00124354
0.123189
0.595608
0.899978
0.949671
0.955375
0.774355
0.286585
0.0850267
0.158649
0.39448
0.518101
0.453049
0.409818
0.249864
0.158931
0.135016
0.146849
4.53186e-17
9.39907e-13
8.70425e-13
0.012636
0.162206
0.495753
0.60348
0.231774
-1.0024e-10
-3.42342e-21
-2.03469e-22
-3.93913e-08
0.183554
0.411575
0.362645
0.364416
0.349391
0.133469
0.0941124
2.94494e-05
2.34658e-09
7.58523e-13
-1.48082e-07
1.06756e-08
0.00409948
0.0189574
-1.15177e-11
3.9685e-06
-7.58653e-11
0.00046675
0.00108692
0.000225935
0.0230662
0.00142853
0.107627
0.0549963
0.135011
0.0944261
4.38484e-05
0.000151355
0.000169664
9.93921e-05
3.41992e-06
4.59428e-06
-1.23369e-07
-4.16922e-08
-2.12916e-25
-9.92445e-10
1.33246e-05
7.62601e-05
0.000110081
0.00126719
0.0014237
0.00103062
0.000842859
0.0381555
0.0988297
7.02047e-05
7.35619e-05
0.00122447
0.00135769
0.000639037
0.000273202
0.000198848
0.000150279
0.00010627
0.000105847
0.000151891
5.11248e-05
9.31074e-06
0.000979626
0.0024303
0.00185756
0.000950808
0.00381772
0.0828091
0.0168069
0.0124273
0.00100644
0.000477527
0.000476501
0.00140842
0.00356383
0.00406573
0.00409679
0.00380893
0.0013561
4.32742e-09
9.2531e-06
3.71212e-06
0.00433336
0.0060058
0.00144227
0.00384695
0.000332297
0.00916009
0.0123654
0.0123118
0.00991444
0.00256692
0.000800417
0.000810805
0.00348809
0.00410212
0.00315689
0.000582471
2.13257e-08
1.24092e-06
1.25168e-06
0.00446657
0.00905977
0.00328367
0.00355691
0.000346984
0.000309001
7.76079e-07
0.00617427
0.0103424
0.0102305
0.00284487
4.63044e-06
0.000232641
0.000738892
0.000439934
6.38297e-05
5.34152e-08
1.75981e-06
0.00327554
0.00918139
0.00879558
0.00160407
0.00356326
0.000305575
8.53728e-07
4.46897e-07
3.01141e-05
0.00110635
0.00322022
0.00182888
1.0147e-05
2.09479e-06
2.05438e-06
1.80338e-06
6.59211e-07
0.000611222
0.00672352
0.00718668
0.00577346
0.000907873
0.000102744
0.00093733
0.000254503
3.05562e-07
1.32877e-06
2.03056e-06
6.71752e-06
2.34083e-05
0.000234994
5.72843e-05
4.00494e-06
2.13649e-06
1.58949e-06
6.59458e-07
0.000445421
0.00511264
0.00276193
1.36552e-06
1.3663e-06
1.36773e-06
1.43783e-06
9.71997e-06
2.82651e-07
7.03619e-07
2.63783e-06
3.34573e-05
6.19474e-05
5.04685e-05
2.43955e-05
1.97641e-06
1.75088e-06
1.55097e-06
4.56093e-05
0.000103879
0.00103753
0.00026849
1.36556e-06
3.85554e-06
1.3106e-05
1.25088e-05
3.929e-08
2.70725e-06
1.5181e-05
2.21447e-05
2.23741e-05
1.66434e-05
1.81741e-05
2.66717e-05
1.44426e-05
2.17184e-06
9.09514e-05
0.000165014
0.000140715
1.35624e-06
1.35057e-06
1.39095e-06
1.95793e-06
3.06848e-07
1.39659e-07
3.96426e-08
2.24145e-06
4.90294e-06
1.00264e-05
1.48142e-06
1.83155e-09
4.70252e-06
2.72286e-05
5.40444e-05
5.35655e-05
5.87942e-05
0.000164609
0.00018126
9.5706e-05
2.34584e-06
1.22158e-06
1.41601e-06
1.18211e-06
7.37529e-07
5.69682e-08
7.86605e-08
1.84877e-09
1.84722e-09
1.83155e-09
1.80607e-09
1.78086e-09
4.60647e-06
1.17721e-05
1.92426e-05
3.10121e-05
6.88822e-05
0.000169542
0.000166366
5.60897e-05
1.23597e-06
1.23358e-06
1.22899e-06
5.11883e-07
7.02784e-08
2.14211e-09
3.83236e-09
3.79479e-09
2.63962e-09
2.57722e-09
1.75654e-09
1.29553e-09
1.18427e-09
1.29553e-09
1.40524e-07
3.70757e-06
1.14656e-05
5.3188e-05
5.35865e-05
3.38196e-05
8.63243e-06
5.0295e-08
4.90212e-08
4.83192e-08
1.8056e-09
2.44375e-09
2.79684e-09
2.92099e-09
3.02998e-09
3.5192e-09
5.24331e-09
7.94449e-09
1.17658e-08
1.56907e-07
2.59351e-07
5.21398e-09
2.59294e-06
2.98716e-05
3.39632e-05
1.72187e-05
7.26381e-07
6.61429e-07
1.83203e-07
1.0857e-09
1.39802e-09
1.58863e-09
1.9441e-09
3.68711e-09
8.71796e-09
1.54481e-08
2.50034e-08
2.66519e-08
8.31147e-08
4.10835e-09
4.08039e-09
1.17638e-06
1.12135e-05
1.68153e-05
1.45358e-05
1.5217e-05
1.29793e-05
1.42672e-06
5.85014e-10
7.41267e-10
8.91852e-10
1.26757e-09
2.86175e-09
8.11939e-09
1.54687e-08
2.20489e-08
2.47052e-08
2.0116e-08
4.41067e-09
4.09662e-09
2.68036e-07
5.00173e-06
9.96738e-06
1.51926e-05
1.51997e-05
1.51743e-05
3.98294e-06
3.30554e-10
4.42994e-10
5.73335e-10
8.03972e-10
1.34365e-09
3.08975e-09
6.39714e-09
1.0105e-08
1.54535e-08
1.08331e-08
6.3307e-09
4.07978e-09
5.24669e-07
8.77227e-06
1.51794e-05
1.51837e-05
1.51894e-05
1.51542e-05
3.494e-06
1.87769e-10
2.53803e-10
3.45954e-10
5.20132e-10
8.21438e-10
1.31331e-09
2.03439e-09
3.99427e-09
6.65158e-09
9.00949e-09
2.6699e-08
1.34845e-07
1.37943e-06
4.5014e-06
1.05549e-05
1.51794e-05
1.28722e-05
9.2023e-06
4.58055e-06
1.05113e-10
1.47898e-10
2.14015e-10
3.23979e-10
5.3016e-10
8.41852e-10
1.37012e-09
2.45854e-09
4.63364e-09
9.68681e-09
3.47614e-08
1.54914e-07
4.67472e-07
3.45845e-07
6.97955e-07
4.38363e-06
1.02515e-06
7.30346e-07
7.44387e-06
5.6906e-11
8.1513e-11
1.26735e-10
1.97305e-10
3.07976e-10
5.27659e-10
9.35961e-10
1.70368e-09
3.22605e-09
6.63268e-09
1.82206e-08
5.56895e-08
8.92e-08
1.19768e-07
9.68753e-08
2.78546e-07
2.58804e-07
6.0424e-07
1.74899e-05
2.8477e-11
4.19886e-11
6.62886e-11
1.09035e-10
1.74382e-10
2.96114e-10
5.35038e-10
1.02176e-09
1.90239e-09
3.45819e-09
6.78257e-09
1.53852e-08
1.92778e-08
2.44074e-08
2.21445e-08
2.60169e-08
7.91467e-09
7.09353e-07
1.74532e-05
1.27692e-11
1.99598e-11
3.14621e-11
5.11208e-11
8.79023e-11
1.49223e-10
2.72612e-10
5.21899e-10
1.02103e-09
1.77445e-09
2.92237e-09
5.32944e-09
9.15556e-09
1.98259e-08
2.67065e-08
7.92038e-09
7.91537e-09
4.80779e-07
1.74975e-05
5.42766e-12
8.57376e-12
1.37401e-11
2.27868e-11
3.97409e-11
6.52447e-11
1.28501e-10
2.41017e-10
4.79501e-10
8.88802e-10
1.40765e-09
2.20828e-09
4.11311e-09
6.14553e-09
1.37034e-08
1.05523e-08
8.50124e-09
1.80623e-07
5.1534e-06
2.08889e-12
3.41652e-12
5.53154e-12
9.20634e-12
1.55099e-11
2.73927e-11
5.05723e-11
1.06234e-10
2.06125e-10
4.04991e-10
6.79716e-10
9.36151e-10
1.20853e-09
9.58643e-10
1.92161e-09
5.13778e-09
7.68704e-09
5.30979e-08
3.21277e-08
7.74738e-13
1.27179e-12
2.05503e-12
3.44454e-12
5.8174e-12
1.02033e-11
1.87054e-11
3.87883e-11
8.49714e-11
1.74403e-10
3.33068e-10
4.64575e-10
4.03059e-10
1.72916e-10
1.19832e-10
4.57438e-10
2.31654e-09
1.03286e-08
2.49817e-09
2.64235e-13
4.45909e-13
7.32285e-13
1.16539e-12
1.99878e-12
3.24898e-12
6.15609e-12
1.20752e-11
2.51659e-11
5.31756e-11
7.51324e-11
1.25105e-10
1.66635e-10
7.38196e-11
5.59972e-11
1.56641e-10
5.02749e-10
1.26075e-09
2.45007e-09
8.68246e-14
1.48306e-13
2.43769e-13
3.85808e-13
6.28388e-13
1.00619e-12
1.65282e-12
3.06425e-12
5.59551e-12
6.14348e-12
5.5556e-12
1.47247e-11
3.84163e-11
4.41092e-11
2.94265e-11
4.52152e-11
1.75666e-10
4.34091e-10
1.57143e-09
2.52357e-14
4.51762e-14
7.4725e-14
1.17315e-13
1.78517e-13
2.89745e-13
4.5498e-13
7.47937e-13
1.20919e-12
1.41196e-12
5.20067e-13
8.96523e-13
5.42704e-12
1.70354e-11
1.82118e-11
1.30875e-11
3.06231e-11
1.24955e-10
2.37491e-10
6.9502e-15
1.27151e-14
2.14285e-14
3.3752e-14
5.12396e-14
7.60493e-14
1.16232e-13
1.75895e-13
2.7272e-13
3.31901e-13
1.72671e-13
1.30874e-13
5.86351e-13
5.29968e-12
7.34862e-12
7.25116e-12
4.60213e-12
1.04445e-11
4.4971e-11
1.61765e-15
3.31882e-15
5.79365e-15
9.2613e-15
1.37844e-14
1.97143e-14
2.85953e-14
4.30489e-14
6.13494e-14
7.85786e-14
5.38386e-14
4.35019e-14
9.38874e-14
5.54824e-13
1.77058e-12
3.35311e-12
2.00352e-12
2.75361e-12
5.87176e-12
3.88691e-16
8.26739e-16
1.47274e-15
2.37422e-15
3.53846e-15
5.09274e-15
7.15293e-15
1.06185e-14
1.58308e-14
2.07155e-14
2.14407e-14
2.32359e-14
4.1864e-14
1.49977e-13
4.02747e-13
9.88967e-13
1.39026e-12
1.01306e-12
1.02941e-12
7.81764e-17
1.78273e-16
3.44262e-16
5.67599e-16
8.63709e-16
1.26834e-15
1.84856e-15
2.79158e-15
4.49456e-15
7.18235e-15
1.04637e-14
1.69231e-14
3.21915e-14
7.59011e-14
2.46161e-13
4.72218e-13
7.20467e-13
7.61357e-13
4.91053e-13
1.52713e-17
3.67033e-17
7.3026e-17
1.26557e-16
2.0174e-16
3.03003e-16
4.71912e-16
7.92349e-16
1.46808e-15
2.85016e-15
5.60466e-15
1.13532e-14
2.31006e-14
5.27734e-14
1.37069e-13
3.3521e-13
5.08034e-13
5.3905e-13
4.22536e-13
2.62164e-18
7.05961e-18
1.49973e-17
2.74083e-17
4.54111e-17
7.23578e-17
1.21061e-16
2.32934e-16
5.47832e-16
1.31768e-15
3.15329e-15
7.44159e-15
1.67423e-14
3.60431e-14
8.4696e-14
2.10192e-13
3.53727e-13
4.3972e-13
3.04237e-13
3.8744e-19
1.08978e-18
2.46316e-18
4.82019e-18
8.73115e-18
1.49453e-17
2.87986e-17
6.48757e-17
1.84385e-16
5.37517e-16
1.53043e-15
3.9976e-15
9.83989e-15
2.19974e-14
4.91256e-14
1.18948e-13
2.51658e-13
3.18845e-13
2.02766e-13
5.01059e-20
1.48944e-19
3.54456e-19
7.38925e-19
1.48765e-18
2.97195e-18
6.43625e-18
1.79022e-17
5.97455e-17
2.04378e-16
6.63499e-16
1.95144e-15
5.19754e-15
1.27048e-14
2.79722e-14
6.04953e-14
1.42106e-13
2.05648e-13
1.26001e-13
5.94107e-21
1.94661e-20
5.08921e-20
1.15059e-19
2.51398e-19
5.54307e-19
1.34806e-18
4.40642e-18
1.74447e-17
6.9509e-17
2.56882e-16
8.43086e-16
2.44377e-15
6.4043e-15
1.51622e-14
3.26877e-14
6.2574e-14
8.8686e-14
5.53749e-14
)
;

boundaryField
{
    leftWall
    {
        type            zeroGradient;
    }
    rightWall
    {
        type            zeroGradient;
    }
    lowerWall
    {
        type            zeroGradient;
    }
    atmosphere
    {
        type            inletOutlet;
        inletValue      uniform 0;
        value           nonuniform List<scalar> 
46
(
1.89805e-08
3.73927e-09
0
0
0
0
0
0
0
0
0
0
0
0
0
0
0
0
0
0
0
5.71156e-17
2.25338e-17
2.33158e-18
1.72251e-19
1.11191e-20
2.76405e-21
5.94107e-21
1.94661e-20
5.08921e-20
1.15059e-19
2.51398e-19
5.54307e-19
1.34806e-18
4.40642e-18
1.74447e-17
6.9509e-17
2.56882e-16
8.43086e-16
2.44377e-15
6.4043e-15
1.51622e-14
3.26877e-14
6.2574e-14
8.8686e-14
5.53749e-14
)
;
    }
    defaultFaces
    {
        type            empty;
    }
}


// ************************************************************************* //
