/*--------------------------------*- C++ -*----------------------------------*\
| =========                 |                                                 |
| \\      /  F ield         | OpenFOAM: The Open Source CFD Toolbox           |
|  \\    /   O peration     | Version:  2312                                  |
|   \\  /    A nd           | Website:  www.openfoam.com                      |
|    \\/     M anipulation  |                                                 |
\*---------------------------------------------------------------------------*/
FoamFile
{
    version     2.0;
    format      ascii;
    arch        "LSB;label=32;scalar=64";
    class       volVectorField;
    location    "2.95";
    object      U;
}
// * * * * * * * * * * * * * * * * * * * * * * * * * * * * * * * * * * * * * //

dimensions      [0 1 -1 0 0 0 0];

internalField   nonuniform List<vector> 
2268
(
(0.00221201 -0.00219355 0)
(-0.0100463 0.00234607 0)
(-0.0281309 0.00401566 0)
(-0.0477134 0.00480045 0)
(-0.0678275 0.00479052 0)
(-0.0862794 0.00430197 0)
(-0.10155 0.00330098 0)
(-0.11174 0.00195119 0)
(-0.115921 0.000518288 0)
(-0.114317 -0.000764812 0)
(-0.107936 -0.00175878 0)
(-0.0982236 -0.00238537 0)
(-0.0870064 -0.00258284 0)
(-0.0758562 -0.00248874 0)
(-0.065585 -0.00227656 0)
(-0.0564368 -0.00203232 0)
(-0.0484531 -0.00179243 0)
(-0.041608 -0.0015756 0)
(-0.0357182 -0.00145836 0)
(-0.0302367 -0.00151178 0)
(-0.0242218 -0.00178555 0)
(-0.0168803 -0.00216104 0)
(-0.00959616 -0.00351596 0)
(-0.00868738 0.0058384 0)
(-0.0226543 0.0120839 0)
(-0.0412248 0.0133857 0)
(-0.0590037 0.0140908 0)
(-0.0772981 0.0137868 0)
(-0.0943846 0.0122451 0)
(-0.108713 0.00924859 0)
(-0.118105 0.00513156 0)
(-0.121491 0.000718315 0)
(-0.119102 -0.00323259 0)
(-0.111951 -0.0062177 0)
(-0.101496 -0.00795128 0)
(-0.0896536 -0.00830977 0)
(-0.0780903 -0.00775888 0)
(-0.0675702 -0.00690942 0)
(-0.058232 -0.00604188 0)
(-0.0500453 -0.00521439 0)
(-0.0429789 -0.00441375 0)
(-0.036868 -0.00385727 0)
(-0.0311486 -0.00380763 0)
(-0.0247962 -0.00447522 0)
(-0.0170326 -0.00557559 0)
(-0.00890692 -0.00933608 0)
(-0.0137855 0.0129001 0)
(-0.0306101 0.0189102 0)
(-0.0498266 0.0209603 0)
(-0.067537 0.0218884 0)
(-0.0856789 0.0215226 0)
(-0.102757 0.0192823 0)
(-0.117016 0.0145328 0)
(-0.125977 0.00787323 0)
(-0.128506 0.000755228 0)
(-0.125025 -0.005627 0)
(-0.116623 -0.0105216 0)
(-0.104847 -0.0134029 0)
(-0.091842 -0.0139453 0)
(-0.0795092 -0.0129955 0)
(-0.0685647 -0.0116202 0)
(-0.0589146 -0.0102399 0)
(-0.0503469 -0.00889803 0)
(-0.0428199 -0.00753634 0)
(-0.0362529 -0.00657582 0)
(-0.0301243 -0.00649733 0)
(-0.0233466 -0.00776016 0)
(-0.0153249 -0.00972122 0)
(-0.00575386 -0.0149155 0)
(-0.0168448 0.026398 0)
(-0.0361509 0.0299184 0)
(-0.0563325 0.0308373 0)
(-0.0745566 0.0314653 0)
(-0.0932743 0.0307769 0)
(-0.111115 0.0275111 0)
(-0.125974 0.0205845 0)
(-0.134905 0.0108001 0)
(-0.136792 0.000269424 0)
(-0.132255 -0.00921657 0)
(-0.122452 -0.0162893 0)
(-0.109034 -0.0202882 0)
(-0.0945015 -0.0206834 0)
(-0.0811338 -0.0188465 0)
(-0.0695497 -0.0165359 0)
(-0.0593367 -0.0144139 0)
(-0.0500451 -0.0125348 0)
(-0.0416593 -0.0105802 0)
(-0.0343247 -0.00918947 0)
(-0.0277221 -0.00900512 0)
(-0.0207214 -0.0108733 0)
(-0.0130932 -0.0138627 0)
(-0.00255709 -0.0190192 0)
(-0.0164073 0.0366984 0)
(-0.035448 0.0380714 0)
(-0.0562805 0.0385281 0)
(-0.0757323 0.0395081 0)
(-0.0967195 0.0396035 0)
(-0.117637 0.0361465 0)
(-0.134933 0.0267816 0)
(-0.144865 0.0133222 0)
(-0.146667 -0.000446772 0)
(-0.140925 -0.0125546 0)
(-0.129279 -0.0216927 0)
(-0.113976 -0.0272814 0)
(-0.0979044 -0.02783 0)
(-0.0836573 -0.0251363 0)
(-0.0715487 -0.0220494 0)
(-0.0606631 -0.0194999 0)
(-0.0504745 -0.0175975 0)
(-0.041058 -0.0152698 0)
(-0.0329138 -0.0136164 0)
(-0.0259673 -0.0134488 0)
(-0.0191103 -0.0159579 0)
(-0.0126238 -0.0202382 0)
(-0.00169333 -0.02458 0)
(-0.0129235 0.044087 0)
(-0.0300607 0.043814 0)
(-0.051786 0.0440964 0)
(-0.0714111 0.0452559 0)
(-0.0931944 0.0457898 0)
(-0.115731 0.042098 0)
(-0.134771 0.0314019 0)
(-0.145652 0.0157825 0)
(-0.147934 -0.00197295 0)
(-0.142271 -0.018864 0)
(-0.130393 -0.0307604 0)
(-0.115086 -0.0366817 0)
(-0.0994259 -0.0351681 0)
(-0.0861995 -0.0298652 0)
(-0.0751641 -0.0260431 0)
(-0.0648974 -0.0248757 0)
(-0.0560161 -0.0247945 0)
(-0.047357 -0.0236088 0)
(-0.038307 -0.0218476 0)
(-0.0305155 -0.0202796 0)
(-0.023617 -0.0217883 0)
(-0.0170933 -0.0260703 0)
(-0.00592842 -0.0280795 0)
(-0.00747009 0.0598234 0)
(-0.0172923 0.0595526 0)
(-0.0372587 0.0588836 0)
(-0.0554616 0.0591318 0)
(-0.0765695 0.0593896 0)
(-0.100007 0.0545602 0)
(-0.124207 0.0396832 0)
(-0.140556 0.0195724 0)
(-0.144657 -0.000539234 0)
(-0.136773 -0.0161671 0)
(-0.126022 -0.0273378 0)
(-0.114495 -0.0347172 0)
(-0.102959 -0.0354165 0)
(-0.088265 -0.03298 0)
(-0.0701791 -0.0311571 0)
(-0.0544531 -0.0285389 0)
(-0.0538743 -0.021735 0)
(-0.0631996 -0.0137746 0)
(-0.0715216 -0.0106159 0)
(-0.0749008 -0.0100019 0)
(-0.0721701 -0.0136224 0)
(-0.0578192 -0.0208428 0)
(-0.0597214 -0.0336984 0)
(0.00181191 0.0606272 0)
(0.0166437 0.0656165 0)
(0.0124758 0.0692948 0)
(0.0113414 0.0721868 0)
(0.0097481 0.0730449 0)
(0.0173302 0.0703751 0)
(0.0198207 0.0551032 0)
(0.0117221 0.0276261 0)
(0.0132887 -0.00363459 0)
(-0.00901396 -0.0275519 0)
(-0.0324788 -0.0457968 0)
(-0.0404498 -0.0557197 0)
(-0.0489994 -0.0537285 0)
(-0.0580642 -0.0481506 0)
(-0.0657066 -0.0441095 0)
(-0.0885543 -0.0298304 0)
(-0.124432 -0.0177114 0)
(-0.109346 -0.0220475 0)
(-0.0988826 -0.0190066 0)
(-0.095047 -0.0204021 0)
(-0.0929707 -0.0237374 0)
(-0.0874259 -0.0361806 0)
(-0.111578 -0.0893914 0)
(-0.0217835 0.0135693 0)
(-0.0254754 0.00715539 0)
(-0.0530114 0.00886231 0)
(-0.0822432 0.0058928 0)
(-0.0981487 0.00204737 0)
(-0.0975998 0.000558548 0)
(-0.096881 0.000370278 0)
(-0.097904 -0.000290495 0)
(-0.0986796 -0.000210479 0)
(-0.104213 0.000771662 0)
(-0.11443 0.000367669 0)
(-0.123941 -0.00174584 0)
(-0.126804 -0.00508735 0)
(-0.115798 -0.00866181 0)
(-0.0873106 -0.0118752 0)
(-0.0506326 -0.0128063 0)
(-0.0145522 -0.00769842 0)
(0.0109773 -0.00137676 0)
(0.00161054 -0.00231373 0)
(0.00717783 0.00334111 0)
(0.000886343 0.00472415 0)
(-0.0184239 0.0143629 0)
(-0.0443375 0.0164866 0)
(-0.0568461 0.00361698 0)
(-0.0495225 -0.00354061 0)
(-0.0488687 -0.00077154 0)
(-0.0508958 0.000178028 0)
(-0.0466416 0.00339199 0)
(-0.0458005 0.00788937 0)
(-0.0529941 0.00882874 0)
(-0.0628183 0.00726844 0)
(-0.0729553 0.00240222 0)
(-0.0789039 -0.00649712 0)
(-0.0707842 -0.0181176 0)
(-0.0567303 -0.0229437 0)
(-0.033309 -0.0185413 0)
(-0.00721923 -0.00688006 0)
(0.000849523 0.00799702 0)
(0.00171236 0.00972734 0)
(-0.0147737 0.0179003 0)
(-0.0317512 0.0241102 0)
(-0.0470693 0.020505 0)
(-0.0568089 0.00315148 0)
(-0.053383 -0.00606124 0)
(-0.049623 -0.0018571 0)
(-0.0456638 -0.00358917 0)
(-0.0367644 -0.00287767 0)
(-0.0281887 0.00415312 0)
(-0.034203 0.00658086 0)
(-0.0493234 0.00637164 0)
(-0.0669391 0.00122971 0)
(-0.0750936 -0.00871457 0)
(-0.0817451 -0.021254 0)
(-0.0853703 -0.0268322 0)
(-0.0721396 -0.024307 0)
(-0.0583905 -0.0129998 0)
(-0.0205636 -0.00555467 0)
(-0.0329017 0.0128128 0)
(-0.000374076 0.0240126 0)
(0.000330299 0.0464523 0)
(-0.111998 0.0380238 0)
(-0.123869 0.00484101 0)
(-0.104609 -0.00600594 0)
(-0.0851553 -0.00234952 0)
(-0.0547042 -0.00255723 0)
(-0.029316 -0.00274948 0)
(-0.015801 0.00916195 0)
(-0.0549917 0.0176662 0)
(-0.116657 0.0259048 0)
(-0.159466 0.0165407 0)
(-0.149413 0.000667547 0)
(-0.109117 -0.01511 0)
(-0.0770709 -0.0285327 0)
(-0.0475082 -0.0311214 0)
(-0.0488233 -0.0292505 0)
(0.00040243 -0.0309991 0)
(-0.0436997 0.0275634 0)
(0.0205334 -0.00421337 0)
(0.00274854 0.058784 0)
(-0.0230419 0.0799194 0)
(-0.125339 -0.00315214 0)
(-0.179889 -0.0277292 0)
(-0.17332 -0.0311952 0)
(-0.13261 -0.0306259 0)
(-0.0802811 -0.0177041 0)
(-0.0824921 0.0224822 0)
(-0.180021 0.0515355 0)
(-0.234182 0.0553636 0)
(-0.233802 0.0189848 0)
(-0.140512 -0.0454367 0)
(-0.0246605 -0.0588299 0)
(0.0745743 -0.0540705 0)
(0.121565 -0.028791 0)
(0.0680206 -0.0163007 0)
(0.0291931 -0.0231774 0)
(0.0575987 0.0233893 0)
(0.106007 0.00510517 0)
(0.0558832 0.0761029 0)
(-0.0135057 0.097971 0)
(-0.0787885 0.0649916 0)
(-0.206712 0.00885237 0)
(-0.221549 -0.0440833 0)
(-0.188293 -0.0521969 0)
(-0.170447 -0.0180645 0)
(-0.157716 0.03731 0)
(-0.195132 0.0671219 0)
(-0.207796 0.053545 0)
(-0.180294 -0.00977875 0)
(-0.0988017 -0.100212 0)
(-0.048666 -0.102327 0)
(0.0350132 -0.0973041 0)
(0.133363 -0.0458014 0)
(0.152356 0.0153322 0)
(0.0908131 0.00537793 0)
(0.0705393 -0.0435954 0)
(0.105594 -0.00595398 0)
(0.0801945 0.102067 0)
(-0.0250927 0.124963 0)
(-0.0842179 0.0969179 0)
(-0.185121 0.0471198 0)
(-0.226387 -0.0372714 0)
(-0.252109 -0.0495316 0)
(-0.279325 -0.00530986 0)
(-0.255271 0.0363185 0)
(-0.203017 0.062298 0)
(-0.154873 0.0530461 0)
(-0.106557 -0.0202702 0)
(-0.0947229 -0.109687 0)
(-0.0935134 -0.113054 0)
(-0.0578449 -0.131315 0)
(0.0361592 -0.0830024 0)
(0.110226 0.0210334 0)
(0.0957075 0.0548544 0)
(0.00224159 -0.0609242 0)
(0.01753 -0.0129768 0)
(0.0354659 0.127697 0)
(-0.0582281 0.156865 0)
(-0.09898 0.122907 0)
(-0.170969 0.0824232 0)
(-0.238882 -0.0151023 0)
(-0.281695 -0.0378521 0)
(-0.306591 -0.00467073 0)
(-0.272223 0.00703912 0)
(-0.197938 0.0150011 0)
(-0.120649 0.0198822 0)
(-0.062755 -0.0222646 0)
(-0.122985 -0.0934227 0)
(-0.149244 -0.117588 0)
(-0.132853 -0.151187 0)
(-0.0906601 -0.135785 0)
(0.0568626 0.0222113 0)
(0.0848393 0.0807404 0)
(-0.0114352 0.0529787 0)
(-0.00216969 0.0546825 0)
(-0.00338021 0.0593379 0)
(0.00247681 0.0598456 0)
(0.0137894 0.0569116 0)
(0.052819 0.0458032 0)
(0.0903736 0.0362451 0)
(0.116352 0.0211298 0)
(0.127456 0.00807211 0)
(0.123684 0.00523143 0)
(0.108752 -0.0099128 0)
(0.0882024 -0.0250987 0)
(0.0629094 -0.0256495 0)
(0.0411845 -0.0192982 0)
(0.014046 -0.0157832 0)
(-0.0210224 0.00795222 0)
(-0.0487684 0.0123087 0)
(-0.0388552 -0.0290429 0)
(-0.0529704 -0.0173272 0)
(-0.0642598 -0.0144218 0)
(-0.0752703 -0.0147531 0)
(-0.092014 -0.0319884 0)
(-0.135313 -0.0928577 0)
(-0.0154919 0.0700525 0)
(-0.0135789 0.0615422 0)
(-0.0126207 0.0628581 0)
(0.00236975 0.0597303 0)
(0.037905 0.0256183 0)
(0.0808607 -0.00567761 0)
(0.118186 -0.00575724 0)
(0.147302 0.00119826 0)
(0.15875 -0.00105212 0)
(0.15462 -0.00801046 0)
(0.139514 -0.0114482 0)
(0.111197 -0.00913932 0)
(0.0794723 -0.00557734 0)
(0.0574557 -0.00050377 0)
(0.0339087 0.00788535 0)
(0.0156799 0.0145682 0)
(0.0377757 -0.00908313 0)
(0.0399146 -0.0187599 0)
(0.0251055 -0.00608319 0)
(0.0127629 -0.00211271 0)
(0.0056206 -0.000971737 0)
(0.0070081 -0.00120711 0)
(-0.0216892 -0.0276264 0)
(-0.00358133 0.0717221 0)
(0.0188035 0.0475132 0)
(0.0264491 0.0290584 0)
(0.0657492 -0.000991751 0)
(0.095248 -0.0205267 0)
(0.11325 -0.0443817 0)
(0.132468 -0.0518148 0)
(0.160638 -0.0281724 0)
(0.174235 0.000415983 0)
(0.160923 0.0150763 0)
(0.135441 0.0249806 0)
(0.105854 0.0312847 0)
(0.0785369 0.0274367 0)
(0.0561421 0.0207744 0)
(0.0359674 0.0237722 0)
(0.0407364 0.0105955 0)
(0.0413647 -0.0122229 0)
(0.0246723 -0.00149124 0)
(0.00681595 0.0134158 0)
(-0.00895841 0.0129711 0)
(-0.0247962 0.00142587 0)
(-0.0444726 -0.00104472 0)
(-0.086451 0.0330497 0)
(0.0254831 0.0654508 0)
(0.058366 0.0448436 0)
(0.0930282 0.0217967 0)
(0.124927 -0.00144064 0)
(0.141059 -0.00977754 0)
(0.146266 -0.0327634 0)
(0.133478 -0.0475346 0)
(0.124859 -0.0428772 0)
(0.131845 0.00983434 0)
(0.114734 0.0372821 0)
(0.0958227 0.0451462 0)
(0.085007 0.0481805 0)
(0.0795256 0.0452888 0)
(0.0742605 0.037912 0)
(0.0703425 0.030223 0)
(0.0728309 0.0130568 0)
(0.0667443 0.00219859 0)
(0.0542544 0.0101741 0)
(0.0467936 0.0196533 0)
(0.040464 0.026125 0)
(0.0295521 0.0296492 0)
(0.00903213 0.0458566 0)
(-0.0212548 0.0801675 0)
(0.0146097 -0.0113684 0)
(0.0503731 -0.020068 0)
(0.0712727 -0.0367022 0)
(0.0909434 -0.0459731 0)
(0.106125 -0.0468242 0)
(0.11983 -0.0523892 0)
(0.118209 -0.0319086 0)
(0.0630886 -0.0395676 0)
(0.0486191 0.0251549 0)
(0.0541303 0.0453238 0)
(0.0750455 0.0408481 0)
(0.100547 0.0389012 0)
(0.125221 0.0353076 0)
(0.144983 0.0283354 0)
(0.160102 0.0195875 0)
(0.166043 0.0138282 0)
(0.159749 0.0106152 0)
(0.146489 0.0155689 0)
(0.130699 0.0270863 0)
(0.111669 0.0369335 0)
(0.0901203 0.0433754 0)
(0.0698459 0.0551006 0)
(0.0575955 0.080115 0)
(-0.0113637 -0.022979 0)
(0.0175242 -0.0274319 0)
(0.0218987 -0.0396619 0)
(0.0435457 -0.0431222 0)
(0.0269216 -0.0459177 0)
(-0.0145041 -0.0374934 0)
(-0.0212081 0.0483804 0)
(-0.0239291 0.0037445 0)
(0.013721 0.0299282 0)
(0.0740547 0.0202032 0)
(0.133007 0.0100506 0)
(0.18208 0.00975899 0)
(0.223214 0.0109888 0)
(0.25526 0.0126392 0)
(0.275878 0.0171385 0)
(0.283114 0.0220766 0)
(0.279108 0.0263126 0)
(0.269473 0.0354146 0)
(0.250636 0.0537455 0)
(0.217981 0.0691436 0)
(0.177881 0.0762904 0)
(0.143765 0.0815516 0)
(0.124562 0.0933604 0)
(-0.0158016 0.0178462 0)
(-0.0281391 -0.0168566 0)
(-0.0541023 -0.049605 0)
(0.000377861 -0.0392329 0)
(-0.0863682 0.0157737 0)
(-0.138198 -0.0200713 0)
(-0.0689631 -0.0342838 0)
(0.0209283 -0.0636302 0)
(0.0919859 -0.0757876 0)
(0.163092 -0.0764079 0)
(0.22162 -0.0728051 0)
(0.267515 -0.0619182 0)
(0.30391 -0.0490377 0)
(0.33273 -0.0352981 0)
(0.348709 -0.0166853 0)
(0.348016 0.00148633 0)
(0.343331 0.0115025 0)
(0.338551 0.0263262 0)
(0.322766 0.0597824 0)
(0.295882 0.0920174 0)
(0.267857 0.102765 0)
(0.244875 0.0949418 0)
(0.220801 0.0935346 0)
(0.067063 -0.0348322 0)
(0.15978 -0.0142446 0)
(0.220023 -0.0488909 0)
(0.273179 -0.0441644 0)
(0.341058 0.036416 0)
(0.461758 0.0130518 0)
(0.53867 -0.107358 0)
(0.578163 -0.109833 0)
(0.516722 -0.0990546 0)
(0.398085 -0.0669279 0)
(0.312867 -0.0445313 0)
(0.24712 -0.0344903 0)
(0.218531 -0.031924 0)
(0.195076 -0.0172881 0)
(0.123529 0.0183851 0)
(0.0942502 0.0334448 0)
(0.0751739 0.0360006 0)
(0.184434 0.0502291 0)
(0.246602 0.0919024 0)
(0.286662 0.118835 0)
(0.308768 0.127996 0)
(0.306704 0.123117 0)
(0.276957 0.125193 0)
(0.0129259 -0.125348 0)
(0.13001 -0.156648 0)
(0.237684 -0.116975 0)
(0.299892 -0.13051 0)
(0.351849 -0.170226 0)
(0.409004 -0.192633 0)
(0.458579 -0.180659 0)
(0.459725 -0.0590442 0)
(0.413219 0.0236732 0)
(0.395611 0.0332912 0)
(0.409612 0.0157663 0)
(0.434928 -0.00570842 0)
(0.457008 -0.019225 0)
(0.468546 0.0114701 0)
(0.4619 0.0797552 0)
(0.474607 0.0513376 0)
(0.464202 0.00491645 0)
(0.393402 -0.0834733 0)
(0.286552 -0.0222206 0)
(0.226978 0.071719 0)
(0.243716 0.0998372 0)
(0.284365 0.126092 0)
(0.300602 0.161125 0)
(0.0529714 -0.212187 0)
(0.143477 -0.279673 0)
(0.240143 -0.241929 0)
(0.344403 -0.183707 0)
(0.416788 -0.159497 0)
(0.41942 -0.152449 0)
(0.385386 -0.0993368 0)
(0.376098 -0.0373845 0)
(0.404772 -0.0222295 0)
(0.446777 -0.0263839 0)
(0.484405 -0.0386129 0)
(0.516591 -0.0491919 0)
(0.547057 -0.0478968 0)
(0.581906 -0.0264852 0)
(0.624476 0.00762568 0)
(0.668485 0.030779 0)
(0.695274 0.0665767 0)
(0.693333 0.117383 0)
(0.653329 0.164968 0)
(0.628327 0.184248 0)
(0.529063 0.144298 0)
(0.422047 0.105692 0)
(0.382794 0.135088 0)
(0.0697182 -0.33095 0)
(0.147416 -0.349138 0)
(0.206403 -0.322778 0)
(0.268008 -0.2673 0)
(0.324944 -0.209245 0)
(0.363583 -0.160654 0)
(0.384274 -0.120842 0)
(0.40719 -0.0849024 0)
(0.438903 -0.0624815 0)
(0.471607 -0.0612859 0)
(0.500646 -0.0721046 0)
(0.523928 -0.0831698 0)
(0.545516 -0.082996 0)
(0.571019 -0.0652973 0)
(0.60264 -0.0349106 0)
(0.637449 -0.00628588 0)
(0.667858 0.0199145 0)
(0.689626 0.0513315 0)
(0.706079 0.101619 0)
(0.725353 0.158703 0)
(0.729696 0.213611 0)
(0.704662 0.242076 0)
(0.631597 0.206878 0)
(0.0514584 -0.437658 0)
(0.121908 -0.416192 0)
(0.170692 -0.37623 0)
(0.212639 -0.317264 0)
(0.253294 -0.251063 0)
(0.291681 -0.192719 0)
(0.324547 -0.145479 0)
(0.353799 -0.111388 0)
(0.383821 -0.0917902 0)
(0.411473 -0.0899582 0)
(0.43113 -0.0933507 0)
(0.44172 -0.0984443 0)
(0.447577 -0.0979061 0)
(0.458101 -0.0855934 0)
(0.479221 -0.0640599 0)
(0.509005 -0.0381094 0)
(0.542391 -0.00238721 0)
(0.57823 0.0462929 0)
(0.607735 0.101052 0)
(0.63387 0.155686 0)
(0.650954 0.209526 0)
(0.658583 0.247772 0)
(0.6522 0.266192 0)
(0.0276368 -0.509138 0)
(0.0780456 -0.469499 0)
(0.110672 -0.416447 0)
(0.142126 -0.353405 0)
(0.172404 -0.288088 0)
(0.204088 -0.228483 0)
(0.234048 -0.179028 0)
(0.260182 -0.144589 0)
(0.280409 -0.12123 0)
(0.291083 -0.10851 0)
(0.28924 -0.100187 0)
(0.279985 -0.0967429 0)
(0.26866 -0.0977278 0)
(0.267329 -0.0945153 0)
(0.279703 -0.0832559 0)
(0.297001 -0.0671486 0)
(0.319917 -0.0411231 0)
(0.351632 0.00222302 0)
(0.383825 0.0599417 0)
(0.416908 0.120112 0)
(0.456744 0.180171 0)
(0.496801 0.228869 0)
(0.532688 0.260604 0)
(0.00964661 -0.547793 0)
(0.0368873 -0.499675 0)
(0.0487532 -0.440207 0)
(0.0652475 -0.376859 0)
(0.080491 -0.313727 0)
(0.0982295 -0.254748 0)
(0.114805 -0.202647 0)
(0.124793 -0.161049 0)
(0.124939 -0.126323 0)
(0.113153 -0.0997322 0)
(0.0915842 -0.0827538 0)
(0.0721629 -0.0769406 0)
(0.055148 -0.0886958 0)
(0.0493045 -0.0947238 0)
(0.0482659 -0.087071 0)
(0.045461 -0.0758722 0)
(0.0514913 -0.0526244 0)
(0.0652838 -0.00854076 0)
(0.109905 0.0409452 0)
(0.151934 0.0811041 0)
(0.20949 0.130383 0)
(0.265825 0.176458 0)
(0.318673 0.212615 0)
(-0.00423677 -0.558256 0)
(-0.000104888 -0.506648 0)
(-0.0100824 -0.443991 0)
(-0.0130794 -0.380957 0)
(-0.0185568 -0.318634 0)
(-0.0219338 -0.259873 0)
(-0.0270596 -0.203907 0)
(-0.0382212 -0.152794 0)
(-0.0571399 -0.104996 0)
(-0.0834231 -0.0651298 0)
(-0.109355 -0.0496595 0)
(-0.127246 -0.0623434 0)
(-0.128783 -0.0844066 0)
(-0.132053 -0.0855257 0)
(-0.140328 -0.0795401 0)
(-0.147627 -0.0731691 0)
(-0.146637 -0.0610228 0)
(-0.132358 -0.0392357 0)
(-0.104473 -0.013173 0)
(-0.0647658 0.019354 0)
(-0.0238377 0.0691885 0)
(0.0274845 0.12302 0)
(0.0828494 0.173223 0)
(-0.0162767 -0.543859 0)
(-0.0330873 -0.490089 0)
(-0.0620817 -0.425941 0)
(-0.0851012 -0.362119 0)
(-0.110481 -0.298998 0)
(-0.135296 -0.237935 0)
(-0.161341 -0.175368 0)
(-0.189554 -0.115007 0)
(-0.216846 -0.064681 0)
(-0.232809 -0.0389941 0)
(-0.228763 -0.0496719 0)
(-0.218208 -0.0737869 0)
(-0.216486 -0.0837957 0)
(-0.222638 -0.0764732 0)
(-0.231584 -0.071383 0)
(-0.237537 -0.0716467 0)
(-0.235399 -0.0696499 0)
(-0.225606 -0.0549215 0)
(-0.214157 -0.0336642 0)
(-0.202241 -0.00638042 0)
(-0.178454 0.0373657 0)
(-0.146562 0.0821597 0)
(-0.105242 0.124405 0)
(-0.0259155 -0.510316 0)
(-0.0584937 -0.455649 0)
(-0.101557 -0.391455 0)
(-0.138182 -0.326962 0)
(-0.17507 -0.263569 0)
(-0.209091 -0.202513 0)
(-0.237726 -0.143273 0)
(-0.256003 -0.0944226 0)
(-0.259232 -0.063819 0)
(-0.249276 -0.0538125 0)
(-0.237768 -0.0626636 0)
(-0.234965 -0.0757873 0)
(-0.239271 -0.0784125 0)
(-0.242975 -0.072241 0)
(-0.24348 -0.0695287 0)
(-0.24417 -0.0722039 0)
(-0.246775 -0.0738981 0)
(-0.249311 -0.0612116 0)
(-0.251352 -0.0392484 0)
(-0.251429 -0.0146268 0)
(-0.241763 0.016718 0)
(-0.220567 0.0490223 0)
(-0.192595 0.0785647 0)
(-0.0319738 -0.463523 0)
(-0.0731479 -0.410434 0)
(-0.122291 -0.348932 0)
(-0.161797 -0.288075 0)
(-0.196576 -0.230246 0)
(-0.223229 -0.178178 0)
(-0.238945 -0.132197 0)
(-0.242302 -0.0966299 0)
(-0.235641 -0.0743707 0)
(-0.224533 -0.0653707 0)
(-0.216043 -0.0678542 0)
(-0.214087 -0.0738542 0)
(-0.215905 -0.0750908 0)
(-0.21694 -0.0721784 0)
(-0.216761 -0.0694582 0)
(-0.218426 -0.0684949 0)
(-0.224721 -0.0665751 0)
(-0.232928 -0.055103 0)
(-0.237968 -0.0368128 0)
(-0.238564 -0.017235 0)
(-0.233866 0.00482476 0)
(-0.221863 0.0278037 0)
(-0.205065 0.0487667 0)
(-0.0342772 -0.410672 0)
(-0.077409 -0.361935 0)
(-0.125765 -0.306799 0)
(-0.161262 -0.25403 0)
(-0.188518 -0.205414 0)
(-0.205894 -0.163054 0)
(-0.213376 -0.127412 0)
(-0.211724 -0.10057 0)
(-0.204024 -0.0835986 0)
(-0.194449 -0.0754373 0)
(-0.186969 -0.0738745 0)
(-0.183574 -0.0748494 0)
(-0.183177 -0.0744663 0)
(-0.183719 -0.0720456 0)
(-0.184743 -0.0687168 0)
(-0.187332 -0.0648787 0)
(-0.192184 -0.059161 0)
(-0.197751 -0.0489861 0)
(-0.201653 -0.0347473 0)
(-0.20266 -0.0183368 0)
(-0.200176 -0.000822458 0)
(-0.194157 0.01639 0)
(-0.184514 0.0320449 0)
(-0.0338747 -0.357404 0)
(-0.0750503 -0.314943 0)
(-0.119803 -0.268438 0)
(-0.150444 -0.225567 0)
(-0.172039 -0.186906 0)
(-0.183889 -0.153723 0)
(-0.187448 -0.126587 0)
(-0.184495 -0.106055 0)
(-0.177642 -0.092138 0)
(-0.169758 -0.083895 0)
(-0.163283 -0.0797221 0)
(-0.159478 -0.0773707 0)
(-0.158066 -0.0748181 0)
(-0.158114 -0.0713576 0)
(-0.159162 -0.0670481 0)
(-0.161356 -0.061777 0)
(-0.164668 -0.0547113 0)
(-0.168205 -0.0448634 0)
(-0.170696 -0.0324035 0)
(-0.171213 -0.0182781 0)
(-0.169344 -0.00365501 0)
(-0.165507 0.0102108 0)
(-0.159881 0.0227249 0)
(-0.0321213 -0.306759 0)
(-0.0699624 -0.271219 0)
(-0.110924 -0.233874 0)
(-0.138011 -0.200908 0)
(-0.156591 -0.17173 0)
(-0.166323 -0.146758 0)
(-0.169009 -0.126283 0)
(-0.166561 -0.110412 0)
(-0.161174 -0.0987949 0)
(-0.154922 -0.0906256 0)
(-0.149433 -0.0848652 0)
(-0.145603 -0.0803375 0)
(-0.143518 -0.0760016 0)
(-0.142823 -0.0712739 0)
(-0.143206 -0.0658918 0)
(-0.144503 -0.0595862 0)
(-0.146447 -0.0518886 0)
(-0.148439 -0.0423901 0)
(-0.149706 -0.0311691 0)
(-0.1496 -0.0187526 0)
(-0.147805 -0.00600184 0)
(-0.144687 0.00609025 0)
(-0.140804 0.0169616 0)
(-0.0299616 -0.259788 0)
(-0.0644005 -0.230967 0)
(-0.102135 -0.202357 0)
(-0.126859 -0.178563 0)
(-0.144045 -0.158009 0)
(-0.153424 -0.140403 0)
(-0.156728 -0.125622 0)
(-0.155661 -0.11353 0)
(-0.152007 -0.103798 0)
(-0.147323 -0.0959201 0)
(-0.142781 -0.0893296 0)
(-0.139093 -0.0834523 0)
(-0.136527 -0.0777673 0)
(-0.13505 -0.0718891 0)
(-0.134514 -0.0655481 0)
(-0.134731 -0.0584914 0)
(-0.135415 -0.0504394 0)
(-0.136133 -0.0411988 0)
(-0.136374 -0.0308212 0)
(-0.135689 -0.0196359 0)
(-0.133832 -0.00823986 0)
(-0.130992 0.00262314 0)
(-0.127727 0.0124843 0)
(-0.0278699 -0.216497 0)
(-0.0593156 -0.19383 0)
(-0.0944309 -0.173168 0)
(-0.117509 -0.157554 0)
(-0.134012 -0.144584 0)
(-0.143636 -0.133418 0)
(-0.147915 -0.123625 0)
(-0.14826 -0.114948 0)
(-0.146103 -0.107142 0)
(-0.14267 -0.0999673 0)
(-0.138904 -0.0932038 0)
(-0.135439 -0.0866449 0)
(-0.132625 -0.080083 0)
(-0.130584 -0.0733272 0)
(-0.129289 -0.0662085 0)
(-0.128608 -0.0585603 0)
(-0.128314 -0.050224 0)
(-0.12809 -0.0411084 0)
(-0.127574 -0.0312623 0)
(-0.126434 -0.0209104 0)
(-0.124465 -0.01047 0)
(-0.121777 -0.000489706 0)
(-0.118803 0.00864581 0)
(-0.0260186 -0.176475 0)
(-0.054976 -0.159328 0)
(-0.0879762 -0.145827 0)
(-0.10981 -0.137531 0)
(-0.125833 -0.131323 0)
(-0.135676 -0.125919 0)
(-0.140661 -0.120647 0)
(-0.141958 -0.115181 0)
(-0.140757 -0.10937 0)
(-0.138101 -0.103177 0)
(-0.134832 -0.0966333 0)
(-0.131561 -0.0897888 0)
(-0.128676 -0.0826673 0)
(-0.12636 -0.0752581 0)
(-0.124641 -0.0675213 0)
(-0.123433 -0.0593928 0)
(-0.12256 -0.0508072 0)
(-0.121783 -0.0417382 0)
(-0.120831 -0.0322404 0)
(-0.119444 -0.0224751 0)
(-0.117454 -0.0127355 0)
(-0.114918 -0.00342439 0)
(-0.112165 0.0051574 0)
(-0.0244285 -0.139221 0)
(-0.0513485 -0.126999 0)
(-0.0826333 -0.119962 0)
(-0.103487 -0.118279 0)
(-0.119087 -0.118215 0)
(-0.128974 -0.118113 0)
(-0.134277 -0.117096 0)
(-0.135992 -0.114766 0)
(-0.135172 -0.111023 0)
(-0.132788 -0.10597 0)
(-0.129665 -0.0998347 0)
(-0.126429 -0.0928817 0)
(-0.123494 -0.0853481 0)
(-0.121064 -0.0774036 0)
(-0.119179 -0.0691435 0)
(-0.117763 -0.060603 0)
(-0.116662 -0.0517889 0)
(-0.115677 -0.0427198 0)
(-0.114588 -0.0334565 0)
(-0.113185 -0.0241193 0)
(-0.111322 -0.0149097 0)
(-0.109037 -0.00611255 0)
(-0.106573 0.00202684 0)
(-0.0230402 -0.10431 0)
(-0.0482478 -0.0964804 0)
(-0.0781056 -0.0952971 0)
(-0.0981635 -0.0996799 0)
(-0.113356 -0.105336 0)
(-0.123124 -0.11027 0)
(-0.128425 -0.113395 0)
(-0.130141 -0.114205 0)
(-0.129264 -0.112595 0)
(-0.126758 -0.108758 0)
(-0.123474 -0.103083 0)
(-0.120079 -0.0960444 0)
(-0.117015 -0.0881016 0)
(-0.114501 -0.0796208 0)
(-0.112572 -0.0708437 0)
(-0.111137 -0.0619005 0)
(-0.11004 -0.052854 0)
(-0.10909 -0.0437493 0)
(-0.108092 -0.0346468 0)
(-0.106863 -0.0256339 0)
(-0.105279 -0.0168405 0)
(-0.103357 -0.00845612 0)
(-0.10128 -0.000661487 0)
(-0.0217386 -0.0714921 0)
(-0.0453663 -0.0675647 0)
(-0.0739201 -0.0716825 0)
(-0.0932305 -0.0816901 0)
(-0.107958 -0.0927796 0)
(-0.117432 -0.102617 0)
(-0.122479 -0.109865 0)
(-0.123917 -0.113855 0)
(-0.122733 -0.114426 0)
(-0.119909 -0.111828 0)
(-0.116321 -0.106597 0)
(-0.11267 -0.0994177 0)
(-0.109429 -0.0909855 0)
(-0.106834 -0.081885 0)
(-0.104917 -0.0725228 0)
(-0.103571 -0.063129 0)
(-0.102618 -0.0538125 0)
(-0.101859 -0.0446292 0)
(-0.101104 -0.0356272 0)
(-0.100186 -0.0268608 0)
(-0.098995 -0.0183995 0)
(-0.0975291 -0.0103504 0)
(-0.0959139 -0.00283178 0)
(-0.0203778 -0.0407543 0)
(-0.0423255 -0.0402515 0)
(-0.0694863 -0.0491507 0)
(-0.0879041 -0.0643934 0)
(-0.101983 -0.0807043 0)
(-0.110932 -0.0953706 0)
(-0.115497 -0.106736 0)
(-0.116487 -0.113911 0)
(-0.11492 -0.116647 0)
(-0.111792 -0.115252 0)
(-0.107974 -0.11041 0)
(-0.104156 -0.103012 0)
(-0.100819 -0.0939912 0)
(-0.0982175 -0.0841614 0)
(-0.0963908 -0.0741135 0)
(-0.0952223 -0.0641902 0)
(-0.0945153 -0.0545448 0)
(-0.0940562 -0.0452318 0)
(-0.0936481 -0.0362754 0)
(-0.0931317 -0.0276928 0)
(-0.0924071 -0.0194979 0)
(-0.0914527 -0.0117246 0)
(-0.0903413 -0.00443244 0)
(-0.0188297 -0.0123643 0)
(-0.038763 -0.014806 0)
(-0.0642117 -0.0279479 0)
(-0.0813892 -0.0480193 0)
(-0.0945183 -0.0693526 0)
(-0.10266 -0.088764 0)
(-0.106533 -0.104177 0)
(-0.106986 -0.114434 0)
(-0.1051 -0.119198 0)
(-0.101865 -0.118882 0)
(-0.0980829 -0.114338 0)
(-0.0943708 -0.106656 0)
(-0.09117 -0.0969787 0)
(-0.0887374 -0.0863384 0)
(-0.0871343 -0.0755177 0)
(-0.0862539 -0.0649879 0)
(-0.0858928 -0.0549543 0)
(-0.0858239 -0.045465 0)
(-0.0858422 -0.0365098 0)
(-0.0857907 -0.0280629 0)
(-0.0855772 -0.0200855 0)
(-0.0851631 -0.0125435 0)
(-0.0845636 -0.00544102 0)
(-0.0169562 0.0137591 0)
(-0.0342796 0.00869497 0)
(-0.0575874 -0.00845321 0)
(-0.0730454 -0.032899 0)
(-0.0848697 -0.0590124 0)
(-0.0919427 -0.083005 0)
(-0.0949834 -0.102295 0)
(-0.0948874 -0.11538 0)
(-0.0928497 -0.121875 0)
(-0.0898228 -0.122403 0)
(-0.0864687 -0.118027 0)
(-0.0832568 -0.110021 0)
(-0.080527 -0.0996855 0)
(-0.0785131 -0.0882231 0)
(-0.0773054 -0.0765942 0)
(-0.0768341 -0.0654114 0)
(-0.0769119 -0.0549479 0)
(-0.0773092 -0.0452502 0)
(-0.0778148 -0.0362685 0)
(-0.0782726 -0.0279282 0)
(-0.0785962 -0.0201382 0)
(-0.0787286 -0.0128011 0)
(-0.0786375 -0.00586553 0)
(-0.0145607 0.0364351 0)
(-0.0284298 0.0295047 0)
(-0.0491608 0.00907817 0)
(-0.0625431 -0.0194073 0)
(-0.0727011 -0.049944 0)
(-0.0785419 -0.0782129 0)
(-0.0807472 -0.101105 0)
(-0.0802035 -0.116631 0)
(-0.0782562 -0.124384 0)
(-0.0758002 -0.125413 0)
(-0.0733056 -0.121035 0)
(-0.0710232 -0.1127 0)
(-0.0691304 -0.101789 0)
(-0.0678008 -0.0895908 0)
(-0.0671527 -0.0771959 0)
(-0.0671844 -0.0653606 0)
(-0.0677595 -0.0544497 0)
(-0.0686662 -0.0445266 0)
(-0.0696925 -0.0355058 0)
(-0.0706806 -0.02726 0)
(-0.0715473 -0.019646 0)
(-0.0722204 -0.0125056 0)
(-0.0726145 -0.00573126 0)
(-0.0119826 0.0544175 0)
(-0.021664 0.0461827 0)
(-0.038914 0.0238733 0)
(-0.0498542 -0.00788292 0)
(-0.0580979 -0.0423142 0)
(-0.0626416 -0.0743887 0)
(-0.0641711 -0.100464 0)
(-0.0634571 -0.117957 0)
(-0.0619337 -0.126399 0)
(-0.0604025 -0.127504 0)
(-0.0591531 -0.122929 0)
(-0.0581787 -0.114294 0)
(-0.057448 -0.102975 0)
(-0.057033 -0.0902367 0)
(-0.0570612 -0.077216 0)
(-0.0576238 -0.0647887 0)
(-0.0586817 -0.0534387 0)
(-0.0600767 -0.0432813 0)
(-0.0616069 -0.034213 0)
(-0.0631105 -0.0260572 0)
(-0.0645015 -0.0186178 0)
(-0.0656887 -0.01168 0)
(-0.0665415 -0.0050756 0)
(-0.00932608 0.0678311 0)
(-0.0144794 0.058613 0)
(-0.027669 0.0351803 0)
(-0.0353562 0.00140143 0)
(-0.041492 -0.0362492 0)
(-0.0447428 -0.0714211 0)
(-0.0459748 -0.100065 0)
(-0.0455504 -0.118969 0)
(-0.0448889 -0.12757 0)
(-0.0446104 -0.128325 0)
(-0.0448828 -0.123362 0)
(-0.0454643 -0.114484 0)
(-0.046114 -0.102991 0)
(-0.0467704 -0.0900126 0)
(-0.0475274 -0.0766171 0)
(-0.0485683 -0.0637341 0)
(-0.0499977 -0.051979 0)
(-0.0517656 -0.0415734 0)
(-0.0537088 -0.032437 0)
(-0.0556603 -0.0243584 0)
(-0.0575208 -0.0170925 0)
(-0.0591732 -0.010368 0)
(-0.0604323 -0.00395322 0)
(-0.00677198 0.0766592 0)
(-0.00735522 0.0664632 0)
(-0.0160469 0.0424978 0)
(-0.0196628 0.00773027 0)
(-0.0234866 -0.0319538 0)
(-0.0254702 -0.0690205 0)
(-0.0270873 -0.0993915 0)
(-0.0276367 -0.119169 0)
(-0.0283698 -0.127508 0)
(-0.0296365 -0.127622 0)
(-0.0315591 -0.122148 0)
(-0.0337531 -0.113111 0)
(-0.0358293 -0.101702 0)
(-0.0376006 -0.0888462 0)
(-0.0390736 -0.07543 0)
(-0.0404791 -0.0623226 0)
(-0.0420805 -0.050237 0)
(-0.0440016 -0.039555 0)
(-0.0461728 -0.0302948 0)
(-0.0484374 -0.0222506 0)
(-0.0506685 -0.0151373 0)
(-0.0527108 -0.00863328 0)
(-0.0543199 -0.00243926 0)
(-0.00429176 0.0810595 0)
(-0.000595023 0.0697215 0)
(-0.00479638 0.0456132 0)
(-0.00356213 0.0104495 0)
(-0.00458929 -0.0296288 0)
(-0.00554726 -0.0667807 0)
(-0.00841742 -0.0976584 0)
(-0.0109166 -0.117884 0)
(-0.0136776 -0.125792 0)
(-0.0167059 -0.125246 0)
(-0.0202583 -0.119292 0)
(-0.0239197 -0.110229 0)
(-0.0272606 -0.0991453 0)
(-0.0300315 -0.0867681 0)
(-0.0321313 -0.0737373 0)
(-0.0337625 -0.0607333 0)
(-0.0352984 -0.0484649 0)
(-0.0370737 -0.0374804 0)
(-0.0391936 -0.0279905 0)
(-0.0415559 -0.0198811 0)
(-0.044007 -0.0128592 0)
(-0.0463359 -0.0065581 0)
(-0.0482077 -0.000606447 0)
(-0.00186813 0.0813012 0)
(0.00559456 0.0684992 0)
(0.00566321 0.0443363 0)
(0.0117826 0.0088437 0)
(0.013599 -0.0292194 0)
(0.0132566 -0.0638723 0)
(0.00895799 -0.093491 0)
(0.00370894 -0.114032 0)
(-0.0017321 -0.121907 0)
(-0.00671263 -0.121085 0)
(-0.011795 -0.114932 0)
(-0.0166398 -0.106081 0)
(-0.0209129 -0.0955552 0)
(-0.0243976 -0.0839439 0)
(-0.0269365 -0.07167 0)
(-0.0286498 -0.0591469 0)
(-0.0299178 -0.0469373 0)
(-0.0312401 -0.0356742 0)
(-0.0329651 -0.0258144 0)
(-0.0351365 -0.0174647 0)
(-0.0376028 -0.0104042 0)
(-0.0400853 -0.00424578 0)
(-0.042127 0.00145778 0)
(0.000722342 0.0772658 0)
(0.0110414 0.0630217 0)
(0.0154656 0.0385104 0)
(0.0244129 0.00372149 0)
(0.0282322 -0.0305284 0)
(0.0279013 -0.060905 0)
(0.0227565 -0.0872817 0)
(0.0152975 -0.106953 0)
(0.0072593 -0.115406 0)
(4.73635e-05 -0.115078 0)
(-0.00645696 -0.109262 0)
(-0.0121329 -0.101026 0)