/*--------------------------------*- C++ -*----------------------------------*\
| =========                 |                                                 |
| \\      /  F ield         | OpenFOAM: The Open Source CFD Toolbox           |
|  \\    /   O peration     | Version:  2312                                  |
|   \\  /    A nd           | Website:  www.openfoam.com                      |
|    \\/     M anipulation  |                                                 |
\*---------------------------------------------------------------------------*/
FoamFile
{
    version     2.0;
    format      ascii;
    arch        "LSB;label=32;scalar=64";
    class       volScalarField;
    location    "5.4";
    object      alpha.air;
}
// * * * * * * * * * * * * * * * * * * * * * * * * * * * * * * * * * * * * * //

dimensions      [0 0 0 0 0 0 0];

internalField   nonuniform List<scalar> 
2268
(
1.03336e-09
9.79394e-10
9.84611e-10
9.11699e-10
7.91721e-10
5.06953e-10
2.87908e-10
1.72789e-10
1.34444e-10
1.3115e-10
1.50526e-10
1.69895e-10
1.87053e-10
2.05604e-10
2.29298e-10
3.00078e-10
3.44422e-10
3.01118e-10
2.34182e-10
2.34182e-10
2.53848e-07
6.23901e-07
6.23935e-07
1.31875e-09
1.27627e-09
1.82277e-09
2.93814e-09
3.45637e-09
2.96766e-09
1.23989e-09
7.1577e-10
6.36743e-10
6.30174e-10
6.20302e-10
6.93723e-10
1.0387e-09
3.07668e-10
2.1563e-10
7.6119e-10
1.15384e-09
1.01755e-09
2.34182e-10
3.05391e-08
4.64647e-07
5.7888e-07
4.76367e-07
1.67109e-09
1.64666e-09
1.73052e-09
5.0066e-09
1.12223e-08
1.17779e-08
1.0568e-08
4.29046e-09
1.72885e-09
1.3182e-09
1.16537e-09
1.55637e-09
6.89991e-09
6.48014e-08
1.70329e-08
7.67765e-10
7.70916e-10
1.30897e-09
6.83625e-09
3.5066e-08
3.99498e-08
3.93605e-08
3.94844e-08
1.67216e-09
1.67416e-09
1.69673e-09
1.85405e-09
3.61432e-09
5.62314e-09
4.77172e-09
2.58722e-09
1.4928e-09
1.29717e-09
1.22314e-09
1.25452e-09
1.37331e-08
4.79489e-07
4.50476e-06
9.45569e-07
2.1233e-08
1.45281e-09
1.7966e-09
4.23063e-09
5.75216e-09
2.29742e-08
0.000304346
3.85097e-09
4.07913e-09
3.48153e-09
4.54269e-09
8.53744e-09
9.13671e-09
4.77762e-09
6.43906e-08
3.04888e-06
7.36013e-06
1.17355e-05
1.97051e-09
2.0497e-09
1.34487e-07
6.21792e-08
0.000186221
0.00107461
0.00211645
0.00285879
0.00338181
0.00407824
0.00547743
0.00740252
0.000117639
0.000186027
0.000293353
0.000557259
0.000501072
0.000278325
4.23414e-05
7.12909e-07
2.36393e-05
0.000118638
0.000145536
0.000120876
1.90282e-05
5.05652e-08
5.03917e-08
0.000219056
0.00471349
0.00901569
0.00986956
0.00988091
0.00995654
0.00997132
0.00997121
0.000806653
0.000895018
0.00132152
0.00132148
0.00132151
0.00132148
0.00125308
0.000588714
7.03084e-05
8.55598e-05
0.000146429
0.000146457
2.88413e-05
5.03917e-08
1.72344e-06
0.000162745
0.00136974
0.00222147
0.00212038
0.00176912
0.00227592
0.0060011
0.00997132
0.00116424
0.000870245
0.000966139
0.00120217
0.00104124
0.00108971
0.000716314
0.000239928
9.24566e-05
7.79706e-05
7.75119e-05
7.539e-05
4.73209e-05
5.8243e-05
9.65337e-05
0.000104337
0.000105239
0.000106219
0.000124463
0.000169942
0.000191516
0.000216842
0.00320812
0.000258361
0.000392975
0.00451535
0.00597837
0.00600246
0.00600975
0.00599652
0.00330202
0.00253312
0.00220919
0.00216567
0.00185981
0.00185745
0.00185678
0.00185465
0.00195719
0.00269552
0.00323265
0.003196
0.000387397
0.000475477
0.000680571
0.00194358
0.00269136
0.0026893
0.00404873
0.0077761
0.00751385
0.00446184
0.00228501
0.00191743
0.00185854
0.00187726
0.00185535
0.0018539
0.00318635
0.00385775
0.00317573
0.00849867
0.00853805
0.0124507
0.0172796
0.0195587
0.0210471
0.0175362
0.0171862
0.0176221
0.0148059
0.00177296
0.00178949
0.00233644
0.00187885
0.00196369
0.0018556
0.0030723
0.00385755
0.00317776
0.0141959
0.0105284
0.0131395
0.0170038
0.0228439
0.0267089
0.0243834
0.0171695
0.0201899
0.0565658
0.0650029
0.0186899
0.00234583
0.00440237
0.00836947
0.0268357
0.038768
0.026268
0.0188614
0.0141818
0.0032959
0.00326538
0.00392241
0.00339738
0.0187855
0.0237848
0.0198224
0.0373717
0.0178927
0.0696195
0.0708711
0.065732
0.0492623
0.0156462
0.0573568
0.0610928
0.0610825
0.0449328
0.0141959
0.00241853
0.0079592
0.00508316
0.00329906
0.00465653
0.00583461
0.0162322
0.0314177
0.0135539
0.00860126
0.0413101
0.0976723
0.0976785
0.0976786
0.0525678
0.0429453
0.036882
0.0652662
0.00329773
0.00197642
0.00764472
0.00844979
0.00468845
0.0028882
0.00381196
0.0102123
0.0163504
0.012369
0.0050181
0.00497521
0.0509743
0.0955305
0.0897757
0.0524062
0.0212542
0.0225894
0.0652196
0.00206518
0.0021248
0.00228495
0.0100815
0.00929523
0.00290635
0.00289228
0.00544902
0.0100568
0.00462249
0.0046789
0.00573041
0.0229877
0.0344609
0.0357821
0.0263885
0.0213047
0.0219056
0.0651998
0.00178948
0.000825596
0.000495462
0.000325178
0.000238094
0.000284833
0.000199825
0.000199779
9.29661e-05
0.000152636
0.000169836
0.000172751
0.000193808
0.00019696
0.000153339
0.00012905
0.000907761
0.00215269
0.00272999
0.00251055
0.00220088
0.00247229
0.00181721
0.0244266
0.0148894
0.00916588
0.00549143
0.000439212
0.00329172
0.0196938
0.021516
0.0192028
0.0242514
0.023585
0.0252623
0.0279948
0.0232353
0.0192558
0.0249662
0.0402999
0.0471113
0.044412
0.0358793
0.0307759
0.0312664
0.0353265
0.0354969
0.035435
0.0360052
0.0360261
0.0099462
0.00155584
0.00201448
0.0217872
0.0729217
0.0775357
0.0775593
0.0776586
0.0776239
0.0728768
0.0351327
0.0483598
0.0578826
0.0578631
0.0332261
0.019576
0.0158428
0.0191617
0.0447605
0.00788191
0.00132717
0.00387647
0.0140228
0.0204108
0.0200601
0.00448103
0.00196491
0.00483613
0.0146787
0.0776993
0.0776757
0.077697
0.0560079
0.00266003
0.00522851
0.0165376
0.00777006
3.50918e-06
1.34462e-07
-5.84829e-24
-1.23675e-09
0.00280486
0.000271907
0.000261761
0.000265768
0.000489395
0.00503388
0.00246873
0.000317471
0.000337241
0.0246622
0.0778185
0.0776662
0.077748
0.0353713
0.00631606
6.83185e-05
4.75452e-05
5.98464e-05
8.04669e-05
4.56595e-05
3.50887e-06
3.02231e-06
5.21691e-17
0.00310806
0.0347204
0.0267592
0.0127198
0.00198243
0.000272977
0.000115578
0.000115632
0.000201591
0.00220486
0.0217445
0.0311282
0.0147449
0.000280946
0.000144562
7.71254e-05
3.74407e-05
6.06588e-06
3.96545e-25
3.13606e-06
2.52942e-06
3.47536e-07
2.4143e-07
2.99461e-20
0.672152
0.647863
0.59591
0.50228
0.371843
0.263817
0.161177
0.0729812
0.0108129
5.86268e-06
5.77284e-06
0.000155242
3.34367e-05
2.43572e-07
2.61503e-07
6.892e-06
4.41019e-20
3.73803e-20
-2.60739e-09
3.41437e-05
1.86853e-13
2.09367e-15
1.19476e-18
0.999696
0.999625
0.999653
0.998102
0.981462
0.945369
0.886752
0.790407
0.634904
0.444725
0.300657
0.203465
0.138715
0.0932897
0.0726452
0.0653963
0.0790185
0.103152
0.12708
0.151922
0.203018
0.27999
0.377994
1
0.999998
0.999999
0.999994
0.999977
0.999987
0.999983
0.999796
0.995483
0.971784
0.928939
0.874451
0.821498
0.787725
0.774454
0.777847
0.814141
0.854929
0.88658
0.915125
0.94237
0.954162
0.94605
1
1
1
1
0.999998
1
1
1
1
1
1
1
0.999869
0.999692
0.999383
0.998245
0.998854
0.999907
0.999993
0.999992
0.999975
0.999965
0.999961
1
1
1
1
1
1
1
1
0.999999
0.999999
0.999998
0.999998
0.999997
0.99999
0.999989
0.999884
0.99999
0.999993
0.999993
0.999992
0.999991
0.999989
0.999973
1
1
1
1
1
1
0.999999
0.999998
0.999998
0.999993
0.999974
0.999958
0.999958
0.999958
0.999956
0.999956
0.999962
0.99999
0.999994
0.999985
0.999963
0.999952
0.999958
1
1
1
1
1
1
1
0.999999
0.999999
0.999984
0.999973
0.999978
0.99999
0.999991
0.999967
0.999956
0.999956
0.99999
0.999995
0.999962
0.999943
0.999949
0.999975
1
1
1
1
1
1
1
1
1
1
1
1
1
0.999999
0.999988
0.999984
0.999987
0.999998
0.999994
0.999955
0.999943
0.999953
0.999979
1
1
1
1
1
1
1
1
1
1
1
1
1
1
1
1
1
0.999999
0.999968
0.999935
0.999935
0.999947
0.999965
1
1
1
1
1
1
1
1
1
1
1
1
1
1
1
1
1
0.999998
0.99997
0.999941
0.99994
0.999954
0.999987
1
1
1
1
1
1
1
1
1
1
1
1
1
1
1
1
1
1
1
0.999992
0.999966
0.999976
0.999995
1
1
1
1
1
1
1
1
1
1
1
1
1
1
1
1
1
1
1
1
1
1
0.999985
1
1
1
1
1
1
1
1
1
1
1
1
1
1
1
1
1
1
1
1
1
1
0.999989
1
1
1
1
1
1
1
1
1
1
1
1
1
1
1
1
1
1
1
1
1
1
1
1
1
1
1
1
1
1
1
1
1
1
1
1
1
1
1
1
1
1
1
1
1
1
1
1
1
1
1
1
1
1
1
1
1
1
1
1
1
1
1
1
1
1
1
1
1
1
1
1
1
1
1
1
1
1
1
1
1
1
1
1
1
1
1
1
1
1
1
1
1
1
1
1
1
1
1
1
1
1
1
1
1
1
1
1
1
1
1
1
1
1
1
1
1
1
1
1
1
1
1
1
1
1
1
1
1
1
1
1
1
1
1
1
1
1
1
1
1
1
1
1
1
1
1
1
1
1
1
1
1
1
1
1
1
1
1
1
1
1
1
1
1
1
1
1
1
1
1
1
1
1
1
1
1
1
1
1
1
1
1
1
1
1
1
1
1
1
1
1
1
1
1
1
1
1
1
1
1
1
1
1
1
1
1
1
1
1
1
1
1
1
1
1
1
1
1
1
1
1
1
1
1
1
1
1
1
1
1
1
1
0.999999
0.999999
1
1
1
1
1
1
1
1
1
1
1
1
1
1
1
1
1
1
1
1
1
0.999999
0.999999
1
1
1
1
1
1
1
1
1
1
1
1
1
1
1
1
1
1
1
1
0.999999
0.999999
1
1
1
1
1
1
1
1
1
1
1
1
1
1
1
1
1
1
1
1
1
0.999999
0.999999
1
1
1
1
1
1
1
1
1
1
1
1
1
1
1
1
1
1
1
1
1
0.999999
0.999999
1
1
1
1
1
1
1
1
1
1
1
1
1
1
1
1
1
1
1
1
1
0.999999
0.999999
1
1
1
1
1
1
1
1
1
1
1
1
1
1
1
1
1
1
1
1
1
0.999999
1
1
1
1
1
1
1
1
1
1
1
1
1
1
1
1
1
1
1
1
1
1
0.999999
0.999999
1
1
1
1
1
1
1
1
1
1
1
1
1
1
1
1
1
1
1
1
1
0.999999
0.999999
1
1
1
1
1
1
1
1
1
1
1
1
1
1
1
1
1
1
1
1
0.999999
0.999999
0.999999
1
1
1
1
1
1
1
1
1
1
1
1
1
1
1
1
1
1
1
1
1
0.999999
0.999999
1
1
1
1
1
1
1
1
1
1
1
1
1
1
1
1
1
1
1
1
1
0.999999
1
1
1
1
1
1
1
1
1
1
1
1
1
1
1
1
1
1
1
1
1
1
0.999999
1
1
1
1
1
1
1
1
1
1
1
1
1
1
1
1
1
1
1
1
0.00141508
0.0011246
0.000764724
0.000760354
0.0353129
0.0246543
0.0161154
0.0282051
0.0478687
0.0478698
0.0478711
0.0478698
0.0436913
0.0478711
0.0478725
0.0230298
0.0149932
0.0133147
0.00322874
0.000608234
2.44123e-07
1.09938e-06
0.000124417
0.000183395
0.00182685
0.00321745
0.0039799
0.0037318
0.447853
0.476829
0.480201
0.478272
0.951298
0.969056
0.9801
0.983064
0.999961
0.99996
0.999959
0.998847
0.99994
0.999937
0.999938
0.999975
0.999967
0.999967
0.999967
0.999973
0.999993
0.999998
0.999999
0.999999
0.999996
0.999998
0.999999
0.999999
0.999999
0.999999
0.999999
0.999997
0.999999
0.999999
0.999998
0.999997
0.999995
0.999998
0.999999
0.999999
0.999955
0.999981
0.999997
0.999997
0.999949
0.999922
0.999922
0.999943
1
0.999956
0.99992
0.99992
1
1
1
0.999977
1
1
1
1
1
1
1
1
1
1
1
1
1
1
1
1
1
1
1
1
1
1
1
1
1
1
1
1
1
1
1
1
1
1
1
1
1
1
1
1
1
1
1
1
1
1
1
1
1
1
1
1
1
1
1
1
1
1
1
1
1
1
1
1
1
1
1
1
1
1
1
1
1
1
1
1
1
1
1
1
1
1
1
1
0.0057204
0.00374799
0.00228582
0.011553
0.0164905
0.00686611
0.00290597
0.00220877
0.00221697
0.00230342
0.0104706
0.015155
0.0143941
0.012731
0.0179029
0.0271637
0.0215086
0.0237287
0.0340558
0.0282135
0.0191563
0.00565425
0.0299065
0.0913412
0.045494
0.00480483
0.00256045
0.00208093
0.0237226
0.0851244
0.027022
0.00173187
0.0185809
0.0404984
0.0312226
0.0243914
0.0387625
0.0326953
0.0237042
0.0263698
0.0587294
0.1515
0.151549
0.151545
0.0791821
0.0187749
0.00207153
0.0626222
0.0911635
0.0455174
0.00173652
0.021497
0.0404967
0.0260498
0.024424
0.049727
0.0483575
0.000327215
0.0464048
0.120701
0.151566
0.151562
0.151548
0.140302
0.0727588
0.00461097
0.0401673
0.0908949
0.0925065
0.0307411
0.00652555
0.0134795
0.00392469
0.0119153
0.0340261
0.0356706
0.000295198
0.0174518
0.00279773
0.0258972
0.0335547
0.0311532
0.0266117
0.0220764
0.00609544
0.000934726
0.0114226
0.0842042
0.0560025
0.0117034
-6.10741e-21
-4.14858e-21
0.00021118
0.0015142
0.00127764
0.00029338
0.000358609
0.00010468
0.000102181
0.000102764
0.000102181
0.000103678
0.000607226
0.000964641
0.000889446
0.000846851
0.00144903
0.0218812
0.0101238
0.000359922
2.66384e-07
0.000101192
0.000163379
0.000142955
0.00422656
0.015283
0.0382322
0.0424977
0.0328208
0.0154659
0.00357277
0.000418771
0.00038469
0.0006385
0.000719514
0.000762644
0.00124656
0.00198613
0.000931366
0.00013392
0.000169967
0.00019161
5.3067e-05
0.535265
0.625813
0.683096
0.707433
0.688081
0.630082
0.524953
0.385412
0.241886
0.139008
0.0536937
0.00553867
0.000807464
0.000802587
0.000692531
0.000160527
4.58604e-05
4.23693e-05
2.38087e-05
0.992172
0.996189
0.998468
0.99949
0.999586
0.997252
0.995646
0.991164
0.978093
0.920499
0.801009
0.546031
0.228903
0.0446431
0.000689094
9.28383e-06
8.25005e-06
1.04812e-05
9.57481e-06
0.999406
0.999936
0.999997
0.999966
0.999979
1
1
0.999999
0.999985
0.999938
0.998542
0.98282
0.949795
0.797723
0.520593
0.330533
0.285449
0.328142
0.493995
0.999999
1
1
1
1
1
0.999999
0.999999
0.999998
0.999969
0.99994
0.999942
0.997854
0.995075
0.991617
0.968308
0.949824
0.961699
0.988462
0.999999
0.999999
0.999999
0.999999
0.999999
1
0.999996
0.999985
0.999919
0.999703
0.999702
0.999739
0.999904
0.999765
0.999512
0.999685
0.998187
0.997645
0.996678
0.999999
0.999999
0.999998
0.999998
0.999998
0.999982
0.99998
0.999861
0.999699
0.999699
0.999887
0.999993
0.999998
1
0.999999
0.999999
0.999941
0.999986
0.999982
0.999998
0.999996
0.999996
0.999998
0.999986
0.999949
0.99995
0.999943
0.999747
0.999904
0.999997
0.999994
0.999977
0.999994
0.999999
0.999991
0.999989
0.999967
0.99992
0.999997
0.999998
0.999999
0.999998
0.999984
0.999979
0.999971
0.999957
0.999985
0.999982
0.999997
0.99994
0.99989
0.999898
0.999974
0.999967
0.999955
0.999939
0.999909
0.999997
0.999999
0.999999
0.999998
0.999996
0.999978
0.999931
0.999931
0.999987
0.999997
0.999997
0.999932
0.999885
0.999885
0.999915
0.999954
0.999953
0.999956
0.999906
0.999998
0.999987
0.99997
0.999977
0.999983
0.99995
0.99993
0.99993
0.999961
0.999997
0.999997
0.999984
0.999935
0.99991
0.999938
0.999955
0.999987
0.999988
0.999923
0.999986
0.999957
0.999939
0.999948
0.999952
0.99996
0.99996
0.99996
0.999941
0.999937
0.999947
0.999987
0.999987
0.999984
0.999978
0.99998
0.99999
0.999995
0.999993
0.999935
0.999927
0.999941
0.999956
0.999954
0.999952
0.999951
0.999946
0.999941
0.999938
0.999932
0.999935
0.99998
0.999989
0.999989
0.999989
0.999974
0.999996
0.999997
0.99992
0.99992
0.999952
0.999971
0.999956
0.999954
0.999981
0.999982
0.999974
0.999966
0.999951
0.999933
0.999951
0.999988
0.999989
0.999989
0.999972
0.999984
0.999997
0.999944
0.999938
0.999992
0.999997
0.999986
0.999979
0.99998
0.999985
0.999991
0.999998
0.999997
0.999986
0.999973
0.999973
0.999973
0.999971
0.999971
0.999983
0.999997
1
1
0.999998
1
1
0.999996
0.999989
0.999989
0.99999
0.999999
1
1
0.999999
0.999976
0.999971
0.999971
0.999981
0.999991
0.999997
1
1
1
1
1
1
1
0.999999
0.999999
0.999999
1
1
1
0.999998
0.99999
0.999977
0.999996
0.999999
0.999997
1
1
1
1
1
1
1
1
1
1
1
1
1
1
1
0.999999
1
1
0.999997
1
1
1
1
1
1
1
1
1
1
1
1
1
1
1
1
1
1
0.999997
1
1
1
1
1
1
1
1
1
1
1
1
1
1
1
1
1
0.999998
0.999997
1
1
1
1
1
1
1
1
1
1
1
1
1
1
1
1
0.999999
0.999998
0.999999
1
1
1
1
1
1
1
1
1
1
1
1
1
1
1
1
0.999999
0.999998
1
1
1
1
1
1
1
1
1
1
1
1
1
1
1
1
1
0.999999
0.999998
1
1
1
1
1
1
1
1
1
1
1
1
1
1
1
1
1
1
1
1
1
1
1
1
1
1
1
1
1
1
1
1
1
1
1
1
1
1
1
1
1
1
1
1
1
1
1
1
1
1
1
1
1
1
1
1
1
1
1
1
1
1
1
1
1
1
1
1
1
1
1
1
1
1
1
1
1
1
1
1
1
1
1
1
1
1
1
1
1
1
1
1
1
1
1
1
1
1
1
1
1
1
1
1
1
1
1
1
1
1
1
1
1
1
1
1
1
1
1
1
1
1
1
1
1
1
0.999997
0.999997
1
1
1
1
1
1
1
1
1
1
1
1
1
1
1
1
1
0.999996
0.999994
0.999997
1
1
1
1
0.999998
1
1
1
1
1
1
1
1
1
1
1
0.999999
0.999994
0.999994
0.999998
1
1
0.999999
0.999997
1
1
1
1
1
1
1
1
1
1
1
1
0.999998
0.999994
0.999994
0.999999
1
1
0.999997
1
1
1
1
1
1
1
1
1
1
1
1
1
0.999997
0.999994
0.999995
1
1
0.999997
1
1
1
1
1
1
1
1
1
1
1
1
1
1
0.999997
0.999994
0.999995
0.999999
0.999997
1
1
1
1
1
1
1
1
1
1
1
1
1
1
1
0.999998
0.999997
0.999999
0.999999
)
;

boundaryField
{
    leftWall
    {
        type            alphaContactAngle;
        thetaProperties 
6
(
(galistan air) 90 0 0 0
(oil galistan) 90 0 0 0
(water oil) 90 0 0 0
(water air) 90 0 0 0
(oil air) 90 0 0 0
(water galistan) 90 0 0 0
);
        value           nonuniform List<scalar> 
50
(
1.03336e-09
1.31875e-09
1.67109e-09
1.67216e-09
3.85097e-09
0.000117639
0.000806653
0.00116424
0.00178948
0.0244266
0.0354969
0.00788191
0.000271907
0.0347204
0.672152
0.999696
1
1
1
1
1
1
1
1
1
1
1
1
1
1
1
1
1
1
1
1
1
1
1
1
1
1
1
1
1
1
1
1
1
1
)
;
    }
    rightWall
    {
        type            alphaContactAngle;
        thetaProperties 
6
(
(galistan air) 90 0 0 0
(oil galistan) 90 0 0 0
(water oil) 90 0 0 0
(water air) 90 0 0 0
(oil air) 90 0 0 0
(water galistan) 90 0 0 0
);
        value           nonuniform List<scalar> 
50
(
0.003196
0.00317573
0.00317776
0.0188614
0.0449328
0.0652662
0.0652196
0.0651998
0.0340558
0.0326953
0.0483575
0.0356706
0.00127764
0.000142955
5.3067e-05
2.38087e-05
9.57481e-06
0.493995
0.988462
0.996678
0.999982
0.99992
0.999909
0.999906
0.999923
0.999993
0.999997
0.999997
0.999997
0.999997
0.999997
0.999997
0.999997
0.999997
0.999999
1
1
1
1
1
1
1
1
1
0.999998
0.999997
0.999997
0.999997
0.999997
0.999999
)
;
    }
    lowerWall
    {
        type            alphaContactAngle;
        thetaProperties 
6
(
(galistan air) 90 0 0 0
(oil galistan) 90 0 0 0
(water oil) 90 0 0 0
(water air) 90 0 0 0
(oil air) 90 0 0 0
(water galistan) 90 0 0 0
);
        value           nonuniform List<scalar> 
62
(
1.03336e-09
9.79394e-10
9.84611e-10
9.11699e-10
7.91721e-10
5.06953e-10
2.87908e-10
1.72789e-10
1.34444e-10
1.3115e-10
1.50526e-10
1.69895e-10
1.87053e-10
2.05604e-10
2.29298e-10
3.00078e-10
3.44422e-10
3.01118e-10
2.34182e-10
2.34182e-10
2.53848e-07
6.23901e-07
6.23935e-07
6.23935e-07
4.76367e-07
3.94844e-08
0.000304346
0.00740252
0.00997121
0.00997132
0.00320812
0.00141508
0.0011246
0.000764724
0.000760354
0.000258361
0.000387397
0.00849867
0.0141959
0.0141818
0.0141959
0.00329773
0.00206518
0.000258361
0.000392975
0.00451535
0.00597837
0.00600246
0.00600975
0.00599652
0.00330202
0.00253312
0.00220919
0.00216567
0.00185981
0.00185745
0.00185678
0.00185465
0.00195719
0.00269552
0.00323265
0.003196
)
;
    }
    atmosphere
    {
        type            inletOutlet;
        inletValue      uniform 1;
        value           nonuniform List<scalar> 
46
(
1
1
0.999999
1
1
1
1
1
1
1
1
1
1
1
1
1
1
1
1
1
1
1
1
1
1
1
1
1
1
1
1
1
1
1
1
1
1
1
1
1
1
1
0.999998
0.999997
0.999999
0.999999
)
;
    }
    defaultFaces
    {
        type            empty;
    }
}


// ************************************************************************* //
