/*--------------------------------*- C++ -*----------------------------------*\
| =========                 |                                                 |
| \\      /  F ield         | OpenFOAM: The Open Source CFD Toolbox           |
|  \\    /   O peration     | Version:  2312                                  |
|   \\  /    A nd           | Website:  www.openfoam.com                      |
|    \\/     M anipulation  |                                                 |
\*---------------------------------------------------------------------------*/
FoamFile
{
    version     2.0;
    format      ascii;
    arch        "LSB;label=32;scalar=64";
    class       volScalarField;
    location    "5.4";
    object      alphas;
}
// * * * * * * * * * * * * * * * * * * * * * * * * * * * * * * * * * * * * * //

dimensions      [0 0 0 0 0 0 0];

internalField   nonuniform List<scalar> 
2268
(
2
2
2
2
2
2
2
2
2
2
2
2
2
2
2
2
2
2
2
1.99998
1.99996
1.99996
1.99996
2
2
2
2
2
2
2
2
2
2
2
2
2
2
2
2
2
2
2
2
1.99999
1.99998
1.99999
2
2
2
2
2
2
2
2
2
2
2
2
2
2
2
2
2
2
2
2
2
2
2
2
2
2
2
2
2
2
2
2
2
2
2
2
2
2
2
2
2
2
2
2
2
2.0003
2
2
2
2
2
2
2
2
2
2.00001
2.00001
1.99993
1.99992
1.99995
1.99962
1.99524
1.98609
1.97661
1.96144
1.93501
1.91398
1.89421
1.85534
1.99924
1.99914
1.99852
1.99889
1.99978
2.00023
2.00004
1.99985
1.99961
1.99863
1.94323
1.86076
1.757
1.60781
1.41621
1.24236
1.10382
0.937182
0.784491
0.68321
0.62119
0.587501
0.548564
1.48285
1.49164
1.49808
1.49609
1.47831
1.43076
1.35088
1.24486
1.08417
0.882449
0.697846
0.524404
0.349805
0.194305
0.0920985
0.0504631
0.0537891
0.0633873
0.0638286
0.0480082
0.0412751
0.0567824
0.0879806
0.135989
0.13934
0.137802
0.130455
0.124761
0.12216
0.098048
0.0424796
0.00887565
0.00127041
0.000469916
0.000599716
0.00042428
0.000431649
0.000575199
0.000449436
0.000455403
0.000887956
0.000822317
0.00056295
0.000602524
0.000653723
0.0305511
1.95133
1.95616
1.96855
1.97256
1.97134
1.96934
1.96795
1.96234
1.96004
1.95907
1.95894
1.95848
1.95888
1.9645
1.96674
1.96669
1.96878
1.97102
1.97106
1.92099
1.9253
1.92069
1.91712
1.92221
1.92644
1.93349
1.94397
1.94986
1.96556
1.96822
1.96739
1.96422
1.97355
1.97374
1.97362
1.97555
1.97657
1.97251
1.11362
1.06682
1.05198
1.0557
1.04256
1.05607
1.10953
1.19963
1.33562
1.47533
1.61014
1.76018
1.74463
1.75184
1.76914
1.74219
1.76268
1.72887
1.67822
0.230819
0.0403225
0.0671316
0.116189
0.153269
0.167024
0.144826
0.138183
0.189713
0.329459
0.486307
0.640436
1.00363
1.16845
1.29438
1.38675
1.26496
1.22372
1.29379
0.221512
0.0174644
0.0192567
0.0172234
0.0147404
0.0596952
0.0758473
0.0701385
0.128066
0.0654998
0.238226
0.284887
0.272923
0.246664
0.26778
0.687721
0.432118
0.307654
0.617158
0.222994
0.0329133
0.0444073
0.0342986
0.0226926
0.0195853
0.0216374
0.0561232
0.104919
0.0484232
0.065614
0.207894
0.396527
0.374168
0.373548
0.420806
0.215303
0.134095
0.422998
0.118579
0.0186772
0.0306169
0.0427817
0.0336657
0.0232076
0.0176284
0.0352042
0.0542296
0.0416993
0.0265661
0.0516932
0.294051
0.376429
0.356054
0.295872
0.112855
0.0978528
0.329199
0.00904022
0.00875096
0.00906399
0.0365914
0.045981
0.0227207
0.0168702
0.0206284
0.0358352
0.025069
0.0257973
0.0297351
0.237781
0.23938
0.138079
0.102341
0.0943095
0.0964842
0.315114
0.00569071
0.00279953
0.00182388
0.0012612
0.000965282
0.000992213
0.000746676
0.000651784
0.000531734
0.000556266
0.00057276
0.00056624
0.000608397
0.000614835
0.00057142
0.000555196
0.00298081
0.00667716
0.00831381
0.00758146
0.00660461
0.0075011
0.00580932
0.130488
0.089572
0.053384
0.0318187
0.0158145
0.0141048
0.0610572
0.0652788
0.057681
0.0728267
0.070854
0.0760798
0.0843193
0.0710477
0.110644
0.189952
0.308906
0.351628
0.357629
0.335381
0.291444
0.242687
0.217035
0.835278
0.812126
0.759322
0.697473
0.618381
0.558159
0.482739
0.476495
0.563636
0.542577
0.481887
0.533593
0.624524
0.76635
0.868818
0.991984
1.06111
1.07721
1.04181
1.02077
0.998713
0.973495
0.965994
1.01604
1.00288
1.00799
1.02819
1.04096
1.03817
1.00386
0.997503
1.00158
1.01348
1.10111
1.11996
1.14791
1.11274
1.00545
1.01064
1.03338
1.01572
1.00019
1.00016
1.00064
1.00125
1.00794
1.00059
1.00056
1.00058
1.00101
1.01007
1.00494
1.00061
1.00067
1.04951
1.15602
1.15623
1.15659
1.07152
1.01293
1.00026
1.00011
1.00008
1.00016
1.00003
0.999184
0.999594
1.00026
1.00615
1.06955
1.05351
1.02546
1.00399
1.00046
0.999976
0.999941
1.00026
1.00443
1.04359
1.06258
1.02975
1.00064
1.00033
1.0001
0.999855
0.999769
0.999818
0.999822
0.998155
0.996098
0.996078
0.999468
2.34443
2.29585
2.19195
2.0048
1.74373
1.52754
1.32039
1.14273
1.01943
0.999455
1.00003
1.00036
1.00002
0.999916
0.999951
0.999885
0.998453
0.995347
0.996529
0.998168
0.99234
0.981291
0.988351
2.99947
2.99927
2.99946
2.99636
2.96293
2.89036
2.77006
2.57687
2.26594
1.88558
1.59767
1.40336
1.27429
1.18554
1.14564
1.1308
1.15571
1.19504
1.24301
1.29828
1.39588
1.54022
1.73793
3
2.99999
3
2.99999
2.99996
2.99999
2.99998
2.99946
2.98948
2.94053
2.85449
2.74578
2.64152
2.57567
2.54918
2.55478
2.62123
2.70028
2.76337
2.82215
2.87846
2.9002
2.87622
3
3
3
3
2.99999
3
3
3
3
3
3
3
2.99975
2.99925
2.99836
2.99501
2.99685
2.9999
2.99999
2.99998
2.99997
2.99996
2.99996
3
3
3
3
3
3
3
3
3
3
3
2.99999
2.99999
2.99998
2.99998
2.99966
2.99998
2.99998
2.99998
2.99998
2.99998
2.99998
2.99995
3
3
3
3
3
3
3
2.99999
2.99999
2.99998
2.99995
2.99992
2.99992
2.99991
2.99991
2.99991
2.99992
2.99998
2.99998
2.99996
2.99991
2.99989
2.9999
3
3
3
3
3
3
3
3
3
2.99997
2.99995
2.99996
2.99998
2.99998
2.99992
2.9999
2.9999
2.99998
2.99999
2.99991
2.99985
2.99987
2.99994
3
3
3
3
3
3
3
3
3
3
3
3
3
3
2.99996
2.99995
2.99996
3
2.99999
2.99988
2.99985
2.99987
2.99994
3
3
3
3
3
3
3
3
3
3
3
3
3
3
3
3
3
3
2.99993
2.99983
2.99983
2.99986
2.99991
3
3
3
3
3
3
3
3
3
3
3
3
3
3
3
3
3
3
2.99993
2.99985
2.99984
2.99987
2.99997
3
3
3
3
3
3
3
3
3
3
3
3
3
3
3
3
3
3
3
2.99998
2.9999
2.99994
2.99999
3
3
3
3
3
3
3
3
3
3
3
3
3
3
3
3
3
3
3
3
3
3
2.99996
3
3
3
3
3
3
3
3
3
3
3
3
3
3
3
3
3
3
3
3
3
3
2.99997
3
3
3
3
3
3
3
3
3
3
3
3
3
3
3
3
3
3
3
3
3
3
3
3
3
3
3
3
3
3
3
3
3
3
3
3
3
3
3
3
3
3
3
3
3
3
3
3
3
3
3
3
3
3
3
3
3
3
3
3
3
3
3
3
3
3
3
3
3
3
3
3
3
3
3
3
3
3
3
3
3
3
3
3
3
3
3
3
3
3
3
3
3
3
3
3
3
3
3
3
3
3
3
3
3
3
3
3
3
3
3
3
3
3
3
3
3
3
3
3
3
3
3
3
3
3
3
3
3
3
3
3
3
3
3
3
3
3
3
3
3
3
3
3
3
3
3
3
3
3
3
3
3
3
3
3
3
3
3
3
3
3
3
3
3
3
3
3
3
3
3
3
3
3
3
3
3
3
3
3
3
3
3
3
3
3
3
3
3
3
3
3
3
3
3
3
3
3
3
3
3
3
3
3
3
3
3
3
3
3
3
3
3
3
3
3
3
3
3
3
3
3
3
3
3
3
3
3
3
3
3
3
3
3
3
3
3
3
3
3
3
3
3
3
3
3
3
3
3
3
3
3
3
3
3
3
3
3
3
3
3
3
3
3
3
3
3
3
3
3
3
3
3
3
3
3
3
3
3
3
3
3
3
3
3
3
3
3
3
3
3
3
3
3
3
3
3
3
3
3
3
3
3
3
3
3
3
3
3
3
3
3
3
3
3
3
3
3
3
3
3
3
3
3
3
3
3
3
3
3
3
3
3
3
3
3
3
3
3
3
3
3
3
3
3
3
3
3
3
3
3
3
3
3
3
3
3
3
3
3
3
3
3
3
3
3
3
3
3
3
3
3
3
3
3
3
3
3
3
3
3
3
3
3
3
3
3
3
3
3
3
3
3
3
3
3
3
3
3
3
3
3
3
3
3
3
3
3
3
3
3
3
3
3
3
3
3
3
3
3
3
3
3
3
3
3
3
3
3
3
3
3
3
3
3
3
3
3
3
3
3
3
3
3
3
3
3
3
3
3
3
3
3
3
3
3
3
3
3
3
3
3
3
3
3
3
3
3
3
3
3
3
3
3
3
3
3
3
3
3
3
3
3
3
3
3
3
3
3
3
3
3
3
3
3
3
3
3
3
3
3
3
3
3
3
3
3
3
3
3
3
3
3
3
3
3
3
3
3
3
3
3
3
3
3
3
3
3
3
0.00480436
0.0039388
0.00316635
0.00315934
0.199604
0.152091
0.12082
0.177888
0.928782
0.904289
0.889338
0.925198
1.09282
1.10161
1.09941
1.04628
1.03
1.02673
1.0066
1.00135
0.999869
0.999862
1.00008
1.00032
0.997906
1.00248
1.0048
1.00461
1.87833
1.93628
1.94317
1.94309
2.88416
2.92332
2.94663
2.95408
2.99996
2.99995
2.99994
2.99664
2.99991
2.9999
2.9999
2.99995
2.99993
2.99993
2.99993
2.99995
2.99999
3
3
3
2.99999
3
3
3
3
3
3
2.99999
3
3
3
2.99999
2.99999
3
3
3
2.99989
2.99996
2.99999
2.99999
2.99987
2.99982
2.99982
2.99988
3
2.9999
2.99982
2.99982
3
3
3
2.99995
3
3
3
3
3
3
3
3
3
3
3
3
3
3
3
3
3
3
3
3
3
3
3
3
3
3
3
3
3
3
3
3
3
3
3
3
3
3
3
3
3
3
3
3
3
3
3
3
3
3
3
3
3
3
3
3
3
3
3
3
3
3
3
3
3
3
3
3
3
3
3
3
3
3
3
3
3
3
3
3
3
3
3
3
0.0191641
0.0125636
0.00908649
0.0368717
0.0651446
0.0297799
0.020915
0.0279029
0.0284448
0.0211341
0.0488565
0.0793714
0.233857
0.13988
0.0852032
0.103635
0.0942188
0.0988838
0.226556
0.212803
0.254333
0.193224
0.1893
0.360105
0.174452
0.0334558
0.0279699
0.0269015
0.124407
0.395962
0.268102
0.208746
0.119962
0.149489
0.115721
0.100826
0.142131
0.137086
0.912302
0.993869
0.994116
0.915012
0.68612
0.500122
0.257028
0.0910166
0.20213
0.700107
0.854622
0.731021
0.266534
0.109976
0.147306
0.106735
0.126613
0.211313
0.189318
1.00205
1.10098
1.25115
1.30233
1.26344
1.04487
0.819214
0.812172
0.938706
1.09525
1.20019
1.20882
0.859669
0.168866
0.0939858
0.144769
0.554095
0.769603
0.76965
1.00099
1.03483
0.990837
1.03942
1.06477
1.06303
1.05408
1.04545
1.01274
1.00265
1.02892
1.1891
1.131
0.786076
0.462238
0.683125
0.992907
1.00887
1.00585
1.00076
1.00055
0.972648
0.967141
0.98321
0.99765
0.999002
1.00083
1.00227
1.00246
1.00246
1.00352
1.04537
1.02262
0.990422
0.999987
1.00184
1.0018
1.00138
1.00693
1.03079
1.06306
1.04489
1.02542
0.999959
0.996277
0.997568
0.99947
1.00135
1.00231
1.0021
1.00279
1.00436
1.00185
1.00041
1.00077
1.00084
1.0004
2.06146
2.24901
2.36651
2.40657
2.34435
2.22726
2.01667
1.74863
1.47093
1.26923
1.10453
1.01284
1.00289
1.00178
1.00153
1.00041
1.00011
1.00007
1.00192
2.97848
2.98965
2.99653
2.99948
2.99958
2.99246
2.9879
2.9746
2.9427
2.82393
2.58474
2.08121
1.45949
1.09104
1.00187
0.999942
1.00009
1.00233
1.00453
2.99823
2.99981
2.99999
2.9999
2.99994
3
3
3
2.99998
2.99994
2.99566
2.94846
2.87983
2.58047
2.04184
1.66371
1.5754
1.66079
1.9925
3
3
3
3
3
3
3
3
3
2.99994
2.99988
2.99985
2.99356
2.98552
2.98219
2.93872
2.9016
2.92767
2.98143
3
3
3
3
3
3
2.99999
2.99996
2.99983
2.99941
2.9994
2.99947
2.99974
2.99936
2.99887
2.99945
2.99472
2.99482
2.99565
3
3
2.99999
2.99999
2.99999
2.99996
2.99995
2.99971
2.99939
2.9994
2.99977
2.99998
3
3
3
3
2.99982
2.99996
2.99997
2.99999
2.99999
2.99999
3
2.99997
2.99988
2.99988
2.99988
2.99949
2.99981
2.99999
2.99999
2.99996
2.99999
3
2.99998
2.99998
2.99993
2.99984
2.99999
2.99999
3
3
2.99996
2.99994
2.99994
2.99991
2.99997
2.99996
2.99999
2.99988
2.99978
2.99979
2.99994
2.99991
2.99988
2.99986
2.99981
2.99999
3
3
3
2.99999
2.99996
2.99986
2.99986
2.99997
2.99999
2.99999
2.99986
2.99976
2.99975
2.99979
2.99987
2.99987
2.99989
2.99981
3
2.99997
2.99993
2.99994
2.99995
2.9999
2.99986
2.99986
2.99992
2.99999
2.99999
2.99997
2.99987
2.9998
2.99984
2.99987
2.99997
2.99998
2.99984
2.99997
2.99991
2.99986
2.99985
2.99986
2.9999
2.99991
2.99991
2.99988
2.99988
2.99989
2.99997
2.99997
2.99996
2.99994
2.99995
2.99998
2.99999
2.99999
2.99987
2.99985
2.99986
2.99987
2.99987
2.99986
2.99986
2.99985
2.99984
2.99987
2.99986
2.99987
2.99996
2.99997
2.99997
2.99998
2.99995
2.99999
2.99999
2.99983
2.99983
2.9999
2.99991
2.99987
2.99987
2.99995
2.99995
2.99993
2.99991
2.9999
2.99986
2.9999
2.99997
2.99998
2.99998
2.99994
2.99997
2.99999
2.99988
2.99987
2.99999
2.99999
2.99996
2.99995
2.99995
2.99997
2.99998
2.99999
2.99999
2.99997
2.99995
2.99994
2.99995
2.99994
2.99994
2.99997
3
3
3
3
3
3
2.99999
2.99998
2.99998
2.99998
3
3
3
3
2.99995
2.99994
2.99994
2.99996
2.99998
3
3
3
3
3
3
3
3
3
3
3
3
3
3
3
2.99998
2.99995
2.99999
3
2.99999
3
3
3
3
3
3
3
3
3
3
3
3
3
3
3
3
3
3
2.99999
3
3
3
3
3
3
3
3
3
3
3
3
3
3
3
3
3
3
2.99999
3
3
3
3
3
3
3
3
3
3
3
3
3
3
3
3
3
3
2.99999
3
3
3
3
3
3
3
3
3
3
3
3
3
3
3
3
3
3
3
3
3
3
3
3
3
3
3
3
3
3
3
3
3
3
3
3
3
3
3
3
3
3
3
3
3
3
3
3
3
3
3
3
3
3
3
3
3
3
3
3
3
3
3
3
3
3
3
3
3
3
3
3
3
3
3
3
3
3
3
3
3
3
3
3
3
3
3
3
3
3
3
3
3
3
3
3
3
3
3
3
3
3
3
3
3
3
3
3
3
3
3
3
3
3
3
3
3
3
3
3
3
3
3
3
3
3
3
3
3
3
3
3
3
3
3
3
3
3
3
3
3
3
3
3
3
3
3
3
3
3
3
3
3
3
3
3
3
3
3
3
3
3
3
3
3
3
3
3
3
3
3
3
3
3
3
3
3
3
3
3
3
3
2.99999
2.99999
3
3
3
3
3
3
3
3
3
3
3
3
3
3
3
3
3
2.99999
2.99999
2.99999
3
3
3
3
3
3
3
3
3
3
3
3
3
3
3
3
3
2.99999
2.99999
3
3
3
3
2.99999
3
3
3
3
3
3
3
3
3
3
3
3
3
2.99999
2.99999
3
3
3
2.99999
3
3
3
3
3
3
3
3
3
3
3
3
3
2.99999
2.99999
2.99999
3
3
2.99999
3
3
3
3
3
3
3
3
3
3
3
3
3
3
2.99999
2.99999
2.99999
3
2.99999
3
3
3
3
3
3
3
3
3
3
3
3
3
3
3
3
2.99999
3
3
)
;

boundaryField
{
    leftWall
    {
        type            calculated;
        value           nonuniform List<scalar> 
50
(
2
2
2
2
2
1.99924
1.48285
0.135989
0.00569071
0.130488
0.835278
1.01604
1.00059
1.06955
2.34443
2.99947
3
3
3
3
3
3
3
3
3
3
3
3
3
3
3
3
3
3
3
3
3
3
3
3
3
3
3
3
3
3
3
3
3
3
)
;
    }
    rightWall
    {
        type            calculated;
        value           nonuniform List<scalar> 
50
(
1.97106
1.97251
1.67822
1.29379
0.617158
0.422998
0.329199
0.315114
0.226556
0.137086
0.189318
0.76965
1.00585
1.00138
1.0004
1.00192
1.00453
1.9925
2.98143
2.99565
2.99997
2.99984
2.99981
2.99981
2.99984
2.99999
2.99999
2.99999
3
3
2.99999
2.99999
2.99999
2.99999
3
3
3
3
3
3
3
3
3
3
3
2.99999
2.99999
2.99999
2.99999
3
)
;
    }
    lowerWall
    {
        type            calculated;
        value           nonuniform List<scalar> 
62
(
2
2
2
2
2
2
2
2
2
2
2
2
2
2
2
2
2
2
2
1.99998
1.99996
1.99996
1.99996
1.99996
1.99999
2
2.0003
1.85534
0.548564
0.0879806
0.0305511
0.00480436
0.0039388
0.00316635
0.00315934
1.95133
1.92099
1.11362
0.230819
0.221512
0.222994
0.118579
0.00904022
1.95133
1.95616
1.96855
1.97256
1.97134
1.96934
1.96795
1.96234
1.96004
1.95907
1.95894
1.95848
1.95888
1.9645
1.96674
1.96669
1.96878
1.97102
1.97106
)
;
    }
    atmosphere
    {
        type            calculated;
        value           nonuniform List<scalar> 
46
(
3
3
3
3
3
3
3
3
3
3
3
3
3
3
3
3
3
3
3
3
3
3
3
3
3
3
3
3
3
3
3
3
3
3
3
3
3
3
3
3
3
3
3
2.99999
3
3
)
;
    }
    defaultFaces
    {
        type            empty;
    }
}


// ************************************************************************* //
