/*--------------------------------*- C++ -*----------------------------------*\
| =========                 |                                                 |
| \\      /  F ield         | OpenFOAM: The Open Source CFD Toolbox           |
|  \\    /   O peration     | Version:  2312                                  |
|   \\  /    A nd           | Website:  www.openfoam.com                      |
|    \\/     M anipulation  |                                                 |
\*---------------------------------------------------------------------------*/
FoamFile
{
    version     2.0;
    format      ascii;
    arch        "LSB;label=32;scalar=64";
    class       volScalarField;
    location    "5.4";
    object      alpha.oil;
}
// * * * * * * * * * * * * * * * * * * * * * * * * * * * * * * * * * * * * * //

dimensions      [0 0 0 0 0 0 0];

internalField   nonuniform List<scalar> 
2268
(
1.1385e-09
9.92008e-10
1.52467e-09
5.36346e-09
9.5545e-09
7.29745e-09
4.70546e-09
3.20773e-09
2.3142e-09
1.77003e-09
1.44341e-09
1.3334e-09
1.42075e-09
1.90503e-09
3.30345e-09
5.03089e-09
6.94481e-09
7.47905e-09
3.52719e-08
2.25639e-05
4.11766e-05
4.11765e-05
4.10577e-05
2.62298e-09
9.92285e-10
1.2882e-08
4.08639e-08
6.20933e-08
5.83016e-08
2.21396e-08
8.62831e-09
4.77993e-09
3.93851e-09
3.32051e-09
2.88989e-09
2.95719e-09
4.31209e-09
1.28498e-08
5.80879e-08
8.43358e-08
5.2187e-08
7.57825e-08
2.60857e-06
1.22745e-05
1.69732e-05
6.38412e-06
5.1021e-09
3.46347e-09
1.92884e-08
5.89619e-08
6.25663e-08
6.25797e-08
2.63283e-08
4.37079e-09
3.84123e-09
3.8263e-09
3.39172e-09
2.64662e-09
2.40372e-09
2.40255e-09
2.40393e-09
1.07351e-07
1.96671e-07
1.97262e-07
5.66552e-08
1.98077e-09
1.97515e-09
1.97525e-09
1.97515e-09
5.11718e-09
5.48322e-09
9.47174e-09
1.26186e-08
1.88641e-08
1.05696e-08
4.45926e-09
2.98551e-09
2.49012e-09
2.50229e-09
2.47649e-09
2.4404e-09
2.40255e-09
2.40371e-09
2.40267e-09
2.40371e-09
1.41365e-08
3.01901e-08
2.36635e-08
1.39677e-08
1.08827e-08
2.02801e-09
1.97525e-09
2.1171e-08
1.88461e-08
2.03556e-08
2.07587e-08
1.80672e-08
1.11834e-08
1.14857e-08
2.28447e-07
2.09281e-09
2.0952e-09
2.08766e-09
7.3522e-05
8.14857e-05
5.44938e-05
0.000376473
0.00494604
0.014989
0.0255091
0.0303252
0.032501
0.0360582
0.0378565
0.0145812
0.000879093
0.00104907
0.00176881
0.00166587
0.000723993
4.4649e-05
2.54564e-06
0.000147797
0.000414427
0.000442233
0.000556704
0.000751223
0.000747237
0.000279585
0.00106845
0.0341424
0.0815046
0.0863894
0.0863932
0.0863894
0.0863931
0.0863894
0.0596541
0.00449205
0.00482803
0.00482621
0.00482803
0.00451291
0.0017675
5.81579e-05
7.02505e-05
0.000423926
0.000678218
0.000767945
0.000768027
0.000767945
0.000256354
0.00147348
0.0153779
0.0411314
0.0565159
0.0574675
0.0427008
0.0344474
0.0387791
0.0580667
0.00312806
0.0033775
0.00406078
0.00423728
0.00420739
0.00299531
0.000672252
0.00015774
0.000151298
0.000181372
0.000226652
0.000362651
0.000271607
5.37699e-05
0.000230191
8.20987e-05
9.53812e-05
0.000525646
0.000420856
4.40357e-05
2.60229e-05
1.6988e-07
0.0209266
0.029485
0.0294932
0.0295188
0.0291425
0.0278473
0.0265091
0.0265042
0.0265037
0.0265022
0.0264974
0.0264945
0.0264946
0.0264941
0.0264947
0.0264946
0.0264951
0.0264952
0.0264957
0.0265196
0.0792927
0.0750726
0.0798834
0.084719
0.0794403
0.0760253
0.0705543
0.0638125
0.0576665
0.038921
0.0335585
0.0338063
0.0365416
0.0266333
0.0265413
0.0264952
0.0264957
0.026583
0.0300056
0.239036
0.229427
0.229103
0.229963
0.216554
0.205142
0.215731
0.219821
0.219812
0.211461
0.196533
0.227917
0.257652
0.249977
0.232766
0.259604
0.240339
0.274927
0.3249
0.188231
0.00873737
0.0277131
0.0651776
0.0846392
0.0863143
0.0690712
0.0774412
0.0926459
0.0744456
0.0926657
0.142386
0.249374
0.369058
0.494927
0.497118
0.497121
0.497113
0.497116
0.178851
0.00371444
0.00192681
0.00193534
0.00385653
0.0032618
0.0032403
0.00324028
0.00725016
0.00324023
0.0176564
0.0319545
0.0337168
0.0349999
0.161635
0.487274
0.248406
0.118932
0.390027
0.180319
0.0180407
0.00345924
0.0019668
0.00350179
0.00408872
0.0032403
0.00324029
0.00324027
0.00324027
0.032992
0.0703149
0.0661775
0.0401598
0.0573589
0.262054
0.0860297
0.0229174
0.226676
0.108633
0.0121349
0.00375573
0.00196256
0.00349087
0.00554386
0.00445021
0.0032403
0.00324031
0.00328538
0.0100188
0.0343027
0.122547
0.0601921
0.0677749
0.137645
0.0475223
0.0230649
0.132702
0.00279191
0.00212762
0.00197662
0.00196852
0.00197166
0.00197627
0.00429192
0.00336597
0.00518777
0.0107232
0.0102516
0.0102961
0.162665
0.128945
0.0255816
0.0225454
0.0253246
0.0237529
0.116138
0.000322607
0.000322745
0.000337491
0.000285671
0.000250998
0.000138034
0.00014791
5.35172e-05
1.79263e-05
2.35733e-05
2.42424e-05
3.37043e-05
1.25153e-05
9.25263e-06
8.95904e-06
9.27749e-07
-2.69248e-17
2.69247e-17
4.06283e-23
-6.46339e-10
-3.82632e-10
-1.5076e-27
9.79341e-22
0.0565669
0.0445854
0.0257874
0.0150293
0.0133606
0.00159375
4.4361e-11
1.90484e-11
2.70574e-12
3.46711e-21
-5.85664e-21
2.99873e-21
-1.12843e-22
0.00112257
0.0523239
0.112317
0.18168
0.203856
0.217881
0.221047
0.192564
0.141636
0.101209
0.727945
0.704977
0.651018
0.589153
0.586532
0.548716
0.47192
0.406384
0.34035
0.307156
0.248621
0.298712
0.389463
0.547119
0.762379
0.840931
0.878449
0.894611
0.933244
0.951778
0.939938
0.904343
0.819982
0.991844
0.998443
0.995885
0.985832
0.979451
0.977443
0.989544
0.98903
0.982531
0.964909
0.865514
0.884429
0.912323
0.943269
0.997212
0.994585
0.983157
0.992054
0.999801
0.999801
0.999357
0.998755
0.994865
0.999663
0.99966
0.999663
0.999472
0.994925
0.997483
0.999611
0.999606
0.975015
0.920965
0.921438
0.921155
0.96385
0.993383
0.9998
0.9998
0.999801
0.999801
0.999801
0.999093
0.999339
0.999336
0.996573
0.964947
0.972875
0.987037
0.997907
0.999587
0.999586
0.999545
0.999606
0.99777
0.978157
0.96855
0.985
0.999638
0.9998
0.9998
0.999706
0.999739
0.999801
0.999801
0.998067
0.99504
0.995264
0.999059
0.327174
0.351462
0.403421
0.497372
0.628099
0.736053
0.836792
0.923344
0.986184
0.998691
0.999665
0.999739
0.999759
0.999754
0.999795
0.999795
0.998442
0.995336
0.996511
0.998048
0.991853
0.979128
0.985106
1.03698e-20
1.23694e-17
4.21377e-05
0.00172669
0.0185132
0.0542303
0.109547
0.204381
0.359805
0.549984
0.69431
0.791745
0.856959
0.904482
0.926808
0.934386
0.918578
0.885224
0.861172
0.842111
0.786755
0.70018
0.600484
1.18446e-09
1.97787e-11
-3.25017e-13
2.21845e-22
4.55605e-19
5.07569e-17
5.49047e-17
5.72443e-17
0.00254535
0.0242875
0.0665609
0.121161
0.175682
0.211168
0.22505
0.220998
0.178324
0.13463
0.102775
0.0762232
0.0512578
0.0376479
0.0379929
1.37894e-08
6.88175e-09
7.20199e-09
1.30914e-08
1.3347e-08
9.63339e-08
7.42429e-08
3.90234e-08
1.09731e-13
7.18686e-15
1.09731e-13
7.18697e-15
6.59162e-13
7.77981e-12
6.44335e-12
4.81767e-12
4.04148e-12
7.77648e-24
7.76925e-24
2.08793e-07
3.35771e-11
5.14338e-11
3.25572e-11
2.18981e-08
2.39931e-08
4.87377e-08
1.06449e-07
2.66594e-07
3.05597e-07
3.00383e-07
6.69504e-08
9.22483e-08
5.45752e-07
1.18586e-06
7.78645e-07
3.21089e-06
9.92776e-06
1.08113e-05
7.34972e-06
7.23749e-06
3.39861e-06
1.85905e-06
2.54562e-06
5.85125e-06
9.29768e-06
2.191e-05
2.0916e-08
4.18299e-08
1.01148e-07
3.03596e-07
3.05597e-07
3.05886e-07
9.5164e-08
4.2141e-08
4.21563e-08
5.41744e-06
2.361e-05
4.13565e-05
4.16304e-05
4.16304e-05
4.12884e-05
4.13162e-05
3.48592e-05
6.85016e-06
3.65896e-06
7.44999e-06
1.96135e-05
3.16669e-05
3.16824e-05
1.58416e-08
5.68028e-08
9.54928e-08
1.84659e-07
2.56714e-07
6.88079e-08
4.21642e-08
4.21563e-08
4.21407e-08
1.54937e-05
2.71846e-05
2.13271e-05
9.96031e-06
8.87365e-06
1.73184e-05
2.87275e-05
2.85418e-05
6.66487e-06
2.05019e-06
1.87369e-05
2.24819e-05
2.05733e-05
1.67143e-05
1.31307e-08
3.95163e-08
6.41031e-08
7.22927e-08
7.80009e-08
3.91273e-08
4.29816e-08
1.1189e-07
1.8797e-07
3.34483e-08
7.5476e-09
6.01747e-10
6.33042e-10
6.08338e-10
6.56435e-10
1.921e-06
1.45967e-06
4.8254e-07
2.45279e-06
1.21383e-05
1.36605e-05
3.30657e-06
5.92453e-08
1.15312e-08
2.61984e-08
3.59366e-08
3.4147e-08
3.2396e-08
2.94273e-08
3.78246e-08
3.62036e-08
2.31693e-08
1.43649e-08
1.1988e-08
1.06233e-08
1.09379e-08
6.74484e-09
2.54587e-09
1.94238e-09
7.48233e-10
2.96664e-07
1.71846e-05
2.24017e-05
2.10306e-05
7.31318e-06
5.83563e-08
8.9959e-09
1.73981e-08
2.04694e-08
1.56515e-08
1.41637e-08
1.81331e-08
2.15506e-08
1.66075e-08
8.27431e-09
6.94463e-09
1.07142e-08
1.60467e-08
1.63811e-08
1.22338e-08
8.50631e-09
4.60011e-09
7.48497e-10
1.18326e-06
1.80038e-05
2.23148e-05
1.51824e-05
7.8054e-07
1.34615e-07
6.48083e-09
1.28671e-08
1.44448e-08
1.2893e-08
1.10941e-08
9.74348e-09
8.45414e-09
6.08851e-09
4.34731e-09
5.50761e-09
8.59594e-09
1.21063e-08
1.2914e-08
1.07178e-08
9.66424e-09
8.3818e-09
4.29826e-09
7.36089e-08
1.08529e-07
5.30613e-06
1.3004e-08
1.08489e-07
1.06533e-06
4.11086e-09
1.0573e-08
1.20174e-08
1.10813e-08
8.69742e-09
5.98871e-09
3.86535e-09
3.11811e-09
3.08561e-09
3.56774e-09
4.70146e-09
5.97189e-09
6.7404e-09
6.8593e-09
7.6027e-09
8.47553e-09
9.00884e-09
1.49581e-08
1.61203e-08
1.28224e-08
1.33414e-08
1.3086e-08
2.30406e-06
3.74934e-09
8.78486e-09
9.83574e-09
8.79185e-09
6.69623e-09
4.66971e-09
3.18503e-09
2.48541e-09
2.13416e-09
2.00091e-09
2.05888e-09
2.36903e-09
2.89303e-09
3.89523e-09
5.1283e-09
5.8261e-09
6.49786e-09
7.33686e-09
1.12713e-08
1.32206e-08
3.77417e-08
9.41413e-08
9.34586e-08
3.55361e-09
6.99764e-09
7.50769e-09
6.38255e-09
4.8263e-09
3.38224e-09
2.33731e-09
1.72857e-09
1.38125e-09
1.21446e-09
1.15869e-09
1.23274e-09
1.5006e-09
2.04789e-09
2.66243e-09
3.16875e-09
3.51041e-09
4.44793e-09
1.47327e-08
8.32708e-08
1.60868e-07
1.64103e-07
1.02243e-07
3.22705e-09
5.27402e-09
5.17438e-09
4.17813e-09
3.09618e-09
2.12133e-09
1.46223e-09
1.06405e-09
8.37807e-10
7.27912e-10
7.06557e-10
7.444e-10
9.12772e-10
1.19474e-09
1.58674e-09
2.06103e-09
2.46299e-09
3.4607e-09
1.65746e-08
1.39232e-07
1.92797e-07
1.92927e-07
7.63257e-08
3.00673e-09
4.00594e-09
3.59415e-09
2.75641e-09
1.94745e-09
1.32938e-09
9.3015e-10
6.89473e-10
5.37159e-10
4.42292e-10
3.99541e-10
4.38243e-10
5.56767e-10
7.59363e-10
1.04938e-09
1.40416e-09
1.80889e-09
2.28052e-09
4.65872e-09
2.70776e-08
1.67241e-07
1.80907e-07
1.32177e-07
2.77199e-09
3.10956e-09
2.6639e-09
1.98048e-09
1.25737e-09
8.35655e-10
6.63709e-10
5.42294e-10
4.26496e-10
3.36195e-10
2.79863e-10
2.6777e-10
3.15879e-10
4.25546e-10
6.16008e-10
8.83661e-10
1.26848e-09
1.74211e-09
1.77643e-09
1.77751e-09
3.04692e-08
1.49444e-07
1.26567e-07
2.63452e-09
2.65495e-09
2.26108e-09
1.50702e-09
9.77745e-10
7.41267e-10
6.49872e-10
5.33982e-10
4.14996e-10
3.18887e-10
2.3958e-10
1.90903e-10
1.8565e-10
2.36973e-10
3.4522e-10
5.28623e-10
8.18271e-10
1.21924e-09
1.72912e-09
1.90067e-09
1.89768e-09
1.17267e-08
3.65801e-08
2.48692e-09
2.28841e-09
2.01392e-09
1.4714e-09
9.73072e-10
7.65324e-10
7.10296e-10
5.70253e-10
4.3756e-10
3.36431e-10
2.41351e-10
1.69271e-10
1.3204e-10
1.36642e-10
1.87514e-10
2.90864e-10
4.54247e-10
7.0736e-10
1.0723e-09
1.58256e-09
1.99798e-09
2.067e-09
1.37232e-08
2.42959e-09
2.17899e-09
2.01185e-09
1.70754e-09
1.0563e-09
8.16114e-10
7.90092e-10
5.99118e-10
4.54647e-10
3.52304e-10
2.55165e-10
1.72036e-10
1.13297e-10
8.98611e-11
1.02193e-10
1.51924e-10
2.39668e-10
3.73827e-10
5.7337e-10
8.43019e-10
1.32834e-09
2.52865e-09
3.3553e-09
2.40352e-09
2.1485e-09
2.18523e-09
2.06489e-09
1.25182e-09
9.2912e-10
1.0937e-09
5.80523e-10
4.44467e-10
3.48934e-10
2.60637e-10
1.78043e-10
1.11928e-10
7.16717e-11
6.14189e-11
7.89044e-11
1.25496e-10
1.97413e-10
2.99216e-10
4.49904e-10
6.78049e-10
1.00442e-09
1.74543e-09
2.42617e-09
2.22254e-09
2.37766e-09
2.34123e-09
1.91194e-09
1.28417e-09
1.72824e-09
4.88822e-10
3.80193e-10
3.20917e-10
2.49283e-10
1.76134e-10
1.13142e-10
6.68942e-11
4.4338e-11
4.5086e-11
6.65294e-11
1.08318e-10
1.70889e-10
2.52491e-10
3.7763e-10
5.95483e-10
7.77109e-10
2.47867e-09
2.32351e-09
2.33891e-09
2.38666e-09
3.35675e-09
3.12543e-09
3.19066e-09
3.53914e-10
3.29261e-10
2.79745e-10
2.19301e-10
1.625e-10
1.08276e-10
6.49831e-11
3.79778e-11
2.92869e-11
3.82917e-11
6.20833e-11
1.00538e-10
1.61168e-10
2.50354e-10
3.44145e-10
5.09566e-10
2.58187e-09
2.50605e-09
3.61433e-09
1.26409e-08
6.54006e-09
1.17007e-08
4.55428e-09
3.03066e-10
2.86183e-10
2.30461e-10
1.80515e-10
1.3784e-10
9.59738e-11
6.02477e-11
3.47521e-11
2.21787e-11
2.36329e-11
3.8356e-11
6.54887e-11
1.05811e-10
1.66692e-10
2.68821e-10
3.46836e-10
3.2668e-09
8.66711e-09
2.80713e-08
3.81644e-08
1.07966e-08
1.60773e-08
4.0843e-09
3.73643e-10
2.5598e-10
1.82202e-10
1.36514e-10
1.06355e-10
7.76797e-11
5.12989e-11
3.06728e-11
1.81938e-11
1.56758e-11
2.37664e-11
4.21161e-11
7.3296e-11
1.24455e-10
1.83402e-10
2.77462e-10
4.97789e-09
3.23773e-08
1.07021e-07
4.8757e-08
1.81033e-08
1.97504e-08
2.70838e-09
5.37239e-10
2.62523e-10
1.39422e-10
9.79002e-11
7.64339e-11
5.62969e-11
3.92161e-11
2.49524e-11
1.4749e-11
1.06824e-11
1.44198e-11
2.69025e-11
4.80762e-11
8.22175e-11
1.46664e-10
1.95068e-10
5.76725e-09
4.77969e-08
1.07122e-07
8.06966e-08
5.66418e-08
2.24089e-08
2.10072e-09
9.20477e-10
3.68692e-10
1.09238e-10
6.52574e-11
5.10345e-11
3.75979e-11
2.67843e-11
1.80468e-11
1.12076e-11
7.41297e-12
8.44215e-12
1.517e-11
3.02521e-11
5.54308e-11
8.71076e-11
1.44801e-10
4.79963e-09
1.98275e-08
7.93482e-08
1.40791e-07
1.00639e-07
2.49193e-08
5.41635e-09
1.60376e-09
4.81612e-10
9.44523e-11
4.27598e-11
3.17467e-11
2.31517e-11
1.63001e-11
1.14073e-11
7.62049e-12
5.00156e-12
4.77327e-12
8.28974e-12
1.6249e-11
3.02896e-11
6.38014e-11
8.41947e-11
5.72237e-09
1.64993e-08
1.46492e-07
1.85277e-07
9.05372e-08
3.96843e-08
1.32962e-08
2.85106e-09
5.90045e-10
9.11118e-11
2.64846e-11
1.89951e-11
1.31826e-11
8.87964e-12
6.23342e-12
4.43933e-12
3.0826e-12
2.63388e-12
4.1778e-12
8.57524e-12
1.66922e-11
2.88698e-11
5.24591e-11
7.28292e-09
5.02514e-08
3.48148e-07
2.48228e-07
6.23922e-08
5.25793e-08
1.79082e-08
3.92568e-09
7.17578e-10
9.2381e-11
1.63096e-11
1.06038e-11
7.04445e-12
4.38327e-12
2.92573e-12
2.16013e-12
1.64046e-12
1.38823e-12
2.0414e-12
4.26407e-12
8.73213e-12
1.72236e-11
2.52757e-11
1.3603e-08
1.44472e-07
8.33322e-07
5.80471e-07
5.47253e-08
4.28531e-08
1.88376e-08
4.61963e-09
7.79472e-10
8.68758e-11
9.71752e-12
5.49523e-12
3.55371e-12
2.01224e-12
1.19565e-12
8.51785e-13
6.9474e-13
6.12787e-13
7.85295e-13
1.58829e-12
3.5085e-12
6.4505e-12
1.34738e-11
1.83775e-08
3.81789e-07
8.38113e-07
8.29226e-07
7.35621e-08
3.95519e-08
1.51593e-08
4.18287e-09
7.01785e-10
7.14593e-11
5.43118e-12
2.53887e-12
1.65761e-12
8.72078e-13
4.41114e-13
2.73619e-13
2.26663e-13
2.21201e-13
2.99894e-13
6.12727e-13
1.35953e-12
3.05101e-12
4.76997e-12
1.85274e-08
5.01168e-07
8.38113e-07
8.38113e-07
1.15841e-07
3.48269e-08
1.07468e-08
2.84065e-09
4.78688e-10
4.46088e-11
2.579e-12
9.78191e-13
6.75178e-13
3.46229e-13
1.50792e-13
7.32557e-14
5.47969e-14
6.09321e-14
8.80398e-14
1.7943e-13
4.15116e-13
8.24409e-13
1.90392e-12
1.82151e-08
4.03799e-07
8.38113e-07
5.27252e-07
9.48827e-08
1.70715e-08
5.61485e-09
1.52885e-09
2.17359e-10
1.82482e-11
8.57976e-13
2.87089e-13
2.16299e-13
1.14953e-13
4.64279e-14
1.74237e-14
9.86199e-15
1.15647e-14
2.03858e-14
4.35122e-14
1.05031e-13
3.38256e-13
5.70649e-13
1.28368e-08
2.1293e-07
8.38113e-07
2.75636e-07
2.26659e-08
4.29238e-09
2.15267e-09
5.90236e-10
5.91884e-11
3.92633e-12
1.43437e-13
5.36086e-14
4.68957e-14
2.71481e-14
1.10153e-14
3.43653e-15
1.30541e-15
1.57743e-15
3.83663e-15
1.07408e-14
3.04029e-14
7.4968e-14
1.78558e-13
5.21296e-09
7.73238e-08
6.0732e-07
3.3542e-08
3.61588e-10
3.4711e-10
3.91839e-10
8.69458e-11
5.1416e-12
1.58233e-13
4.59614e-15
4.75907e-15
5.05355e-15
3.3232e-15
1.40664e-15
4.01583e-16
1.09455e-16
1.26165e-16
4.97952e-16
2.10415e-15
7.60552e-15
2.18332e-14
4.51693e-14
-9.20637e-21
0.000117814
0.000528185
0.000535406
0.0830286
0.0704396
0.0679865
0.086484
0.773446
0.748949
0.733994
0.770604
0.950868
0.946265
0.948463
0.976753
0.984771
0.986528
0.996629
0.999248
0.9993
0.999303
0.999304
0.999304
0.988935
0.989862
0.990868
0.992258
0.529935
0.500962
0.497729
0.504669
0.0298762
0.0120491
0.00149436
0.00199834
4.58727e-08
2.53601e-06
9.1303e-08
1.58417e-16
3.30031e-05
3.23927e-05
3.35451e-05
2.23104e-05
3.1555e-05
3.29083e-05
3.31526e-05
2.71932e-05
6.455e-06
1.39665e-06
1.09376e-06
9.71763e-07
1.03524e-06
1.34631e-06
8.52658e-07
1.3046e-07
1.3898e-07
2.00206e-07
5.1685e-08
6.84042e-08
3.67102e-07
5.16154e-08
5.21053e-08
1.81576e-07
1.75109e-06
5.65879e-08
3.18808e-07
6.28504e-07
1.14842e-05
9.57345e-06
1.44657e-06
1.78463e-06
1.67446e-05
4.46142e-05
4.49756e-05
5.04316e-05
1.15221e-08
2.96459e-05
5.88736e-05
5.86117e-05
1.21333e-08
2.35867e-08
2.34353e-07
1.84758e-05
1.35829e-08
1.11906e-08
1.11696e-08
1.11868e-08
3.0342e-08
1.43242e-08
1.48583e-08
1.11999e-08
5.20805e-08
4.14391e-08
1.17085e-08
1.17598e-08
2.30721e-08
2.33688e-08
1.34849e-08
9.47208e-09
7.91207e-09
7.6198e-09
6.52919e-09
6.6555e-09
2.0907e-09
2.48678e-09
2.9781e-09
3.07986e-09
1.12074e-09
1.21289e-09
1.32668e-09
1.50094e-09
6.15738e-10
6.90889e-10
7.76001e-10
8.21027e-10
4.57278e-10
5.10222e-10
5.54798e-10
6.23646e-10
3.43894e-10
3.92952e-10
4.45691e-10
4.90098e-10
2.62658e-10
3.00275e-10
3.32436e-10
3.89463e-10
1.75348e-10
2.02009e-10
2.41685e-10
2.80701e-10
1.18569e-10
1.3935e-10
1.59226e-10
2.00887e-10
6.33827e-11
7.30501e-11
9.47849e-11
1.11346e-10
3.58969e-11
4.13517e-11
4.74202e-11
6.43292e-11
1.61352e-11
1.82132e-11
2.42575e-11
2.71152e-11
7.0297e-12
7.74376e-12
8.51154e-12
1.13902e-11
2.26617e-12
2.54506e-12
3.24931e-12
3.47962e-12
7.77448e-13
8.37667e-13
8.51641e-13
1.05796e-12
2.09869e-13
2.01271e-13
2.37834e-13
2.45808e-13
5.07043e-14
4.6083e-14
4.57211e-14
4.24058e-14
0.000556658
0.000578839
0.00198399
0.00197086
0.00197535
0.00211267
0.0101638
0.020801
0.0213182
0.0131303
0.0103395
0.0253352
0.186484
0.101248
0.0310316
0.0218588
0.0256202
0.0231742
0.120111
0.12134
0.191773
0.171846
0.0951421
0.0697511
0.0281238
0.0164057
0.0194198
0.0201536
0.0355365
0.0963551
0.160826
0.203232
0.0641978
0.0279726
0.0218439
0.0218959
0.021197
0.0348839
0.835744
0.898851
0.797777
0.440356
0.211307
0.0295685
0.0163837
0.0303296
0.175203
0.464633
0.533525
0.546861
0.249508
0.0454639
0.0257948
0.0255555
0.042362
0.0486708
0.0335144
0.998272
0.945427
0.869235
0.82767
0.788585
0.577023
0.390949
0.579852
0.893071
0.932484
0.879933
0.88369
0.724607
0.142031
0.0523629
0.123347
0.504888
0.654063
0.649177
0.999304
0.981867
0.978949
0.955354
0.959984
0.968104
0.972536
0.976627
0.993358
0.998285
0.982506
0.895104
0.925004
0.735621
0.461046
0.676771
0.978812
0.992479
0.995262
0.999304
0.999304
0.972179
0.96668
0.982745
0.997188
0.998272
0.998286
0.998285
0.998287
0.998285
0.997861
0.976502
0.987506
0.987269
0.998197
0.998102
0.998196
0.998193
0.993433
0.983993
0.947293
0.916397
0.926072
0.952903
0.985221
0.996106
0.998111
0.998285
0.998287
0.998284
0.998279
0.99763
0.998199
0.998197
0.998198
0.998196
0.998196
0.453247
0.369019
0.314649
0.281696
0.27754
0.334493
0.439926
0.591646
0.745068
0.851587
0.93907
0.991442
0.997747
0.998202
0.998199
0.9982
0.998197
0.998199
0.993592
0.000924832
4.08992e-18
4.54882e-18
4.11959e-18
5.43564e-18
2.70201e-26
-2.64567e-10
-5.48032e-08
0.00763826
0.0622689
0.181672
0.438901
0.767712
0.953157
0.9982
0.997646
0.996209
0.993215
0.990403
3.34469e-16
8.54797e-09
3.61335e-08
4.48527e-08
3.8828e-08
2.68537e-08
3.30955e-08
8.05343e-08
6.18453e-10
6.31313e-10
7.42199e-10
7.16488e-10
0.0300171
0.184553
0.474629
0.663707
0.704964
0.662271
0.496418
3.77137e-07
5.85375e-08
7.82444e-08
1.99e-07
2.07353e-07
1.12806e-07
3.30803e-08
3.8848e-07
9.57964e-07
3.06286e-05
5.96111e-05
2.25854e-05
1.2046e-12
9.11585e-20
0.00383598
0.0274657
0.0431411
0.0289535
0.00195057
4.87804e-07
2.19493e-07
4.54587e-07
4.55915e-07
2.07275e-07
3.23259e-08
2.41115e-08
4.6139e-06
7.15588e-05
0.000295107
0.000297737
0.000256768
2.61634e-05
-5.23394e-21
-5.46959e-21
-4.7179e-20
2.18439e-19
1.89144e-19
-1.81587e-08
8.78812e-07
5.67032e-07
2.98034e-07
3.01689e-07
5.97994e-07
1.06808e-05
2.25257e-08
0.000119242
0.000292074
0.00029725
0.000112644
4.60924e-06
3.67146e-14
-3.67146e-14
8.44649e-07
1.30547e-06
8.70564e-09
9.45614e-21
8.06979e-06
1.01944e-07
1.0259e-07
1.9992e-07
3.62333e-07
6.55927e-06
3.33311e-05
3.24106e-05
4.96906e-05
0.000248961
9.3071e-05
3.07039e-06
4.17947e-06
2.11145e-05
4.6974e-06
8.73999e-07
8.68305e-06
1.05831e-05
3.1505e-05
7.89364e-05
1.85568e-07
3.44357e-07
7.57578e-07
1.16805e-06
4.86742e-06
6.10579e-06
2.64566e-05
4.32149e-05
1.42604e-05
1.65045e-05
3.16492e-06
5.87881e-05
0.000103251
9.2222e-05
1.36255e-05
2.91657e-06
1.25159e-05
4.29203e-05
8.61694e-05
7.12479e-07
1.05285e-06
1.03251e-06
2.00808e-06
2.00235e-06
2.1018e-05
6.856e-05
6.8532e-05
1.30168e-05
2.36139e-06
3.0415e-06
6.78674e-05
0.000103236
9.45878e-05
4.36218e-05
2.73635e-06
4.4264e-06
2.10543e-05
8.61483e-05
1.2838e-06
1.14174e-05
2.15707e-05
9.8116e-06
2.89573e-06
4.6395e-05
6.81223e-05
6.8476e-05
3.7957e-05
2.72346e-06
3.17379e-06
1.55909e-05
6.06401e-05
6.58127e-05
2.06551e-05
2.73762e-06
2.73366e-06
4.963e-06
6.8252e-05
1.29367e-05
3.85032e-05
3.74589e-05
9.40675e-06
5.10518e-06
1.2383e-05
2.77055e-05
2.8789e-05
5.38664e-05
5.98289e-05
5.10636e-05
1.2505e-05
1.18645e-05
6.7017e-06
4.36228e-06
7.09908e-06
7.23463e-06
3.45096e-06
4.70415e-06
6.37019e-05
6.45412e-05
3.34736e-05
6.70538e-07
2.91805e-06
4.7775e-06
4.7639e-06
1.01976e-05
1.549e-05
5.20134e-05
6.23638e-05
5.9285e-05
1.22441e-05
4.32827e-06
4.3584e-06
1.0463e-05
2.57762e-05
3.58425e-06
2.6033e-06
6.25285e-05
6.44406e-05
3.13791e-05
1.07232e-07
1.62865e-06
4.4691e-06
4.99507e-06
4.34165e-06
4.3482e-06
1.27643e-05
4.26359e-05
6.13345e-05
4.04967e-05
4.31401e-06
7.13229e-06
1.09442e-05
2.80907e-05
1.52228e-05
1.95895e-06
4.62568e-05
5.01853e-05
3.81595e-06
1.03213e-07
2.59426e-06
1.08758e-05
1.08752e-05
1.08755e-05
7.79322e-06
4.77242e-07
8.61634e-07
1.28531e-05
2.35619e-05
2.47312e-05
2.62069e-05
2.86171e-05
2.82955e-05
1.5896e-05
1.56979e-06
1.12065e-08
1.12229e-08
1.93662e-06
9.9135e-08
8.18293e-08
3.92996e-06
1.07238e-05
1.08731e-05
1.02066e-05
1.03212e-06
5.20035e-08
5.23492e-08
1.21575e-06
2.37469e-05
2.86703e-05
2.85126e-05
1.88125e-05
8.60289e-06
1.56721e-06
1.12894e-08
1.14169e-08
1.14407e-08
2.38941e-08
8.17967e-08
5.88091e-08
1.20616e-08
9.82062e-07
1.3713e-06
1.04508e-06
1.45713e-07
2.13501e-08
3.58426e-08
1.74887e-06
9.83695e-06
2.266e-05
3.52815e-06
4.84789e-07
2.36672e-06
1.76109e-08
1.94799e-08
2.17241e-08
2.83569e-08
3.08182e-08
1.20425e-08
1.20553e-08
1.20618e-08
1.57269e-08
6.15763e-08
8.14071e-08
1.88527e-08
2.02052e-08
1.40329e-08
1.38655e-08
9.3243e-07
1.18212e-08
1.67965e-08
2.78123e-06
1.44454e-08
2.21073e-08
2.61453e-08
2.65922e-08
2.57983e-08
1.71499e-08
1.52882e-08
1.3237e-08
1.22449e-08
1.23971e-08
1.65163e-08
2.14571e-08
2.46033e-08
2.06974e-08
1.37019e-08
1.15971e-08
1.17111e-08
9.85818e-08
2.78143e-06
7.35573e-09
1.03594e-08
1.34266e-08
1.43815e-08
1.31824e-08
1.14655e-08
1.09181e-08
1.05512e-08
1.08373e-08
1.13671e-08
1.26473e-08
1.94263e-08
2.70102e-08
3.03528e-08
2.08913e-08
1.15338e-08
2.16315e-08
1.35298e-06
2.71784e-06
3.46463e-09
4.43211e-09
5.10688e-09
5.36711e-09
5.24572e-09
5.33447e-09
5.49217e-09
6.05477e-09
7.09436e-09
8.76642e-09
1.13306e-08
1.65699e-08
2.50677e-08
3.06486e-08
2.25285e-08
1.02356e-08
3.26176e-07
1.82433e-06
1.01487e-06
1.58008e-09
1.86591e-09
2.11688e-09
2.31954e-09
2.5591e-09
2.90357e-09
3.43983e-09
4.18692e-09
5.30277e-09
6.98677e-09
9.6471e-09
1.40062e-08
2.13622e-08
2.56139e-08
1.70108e-08
1.02294e-08
6.50255e-07
1.9204e-06
5.35161e-08
9.0165e-10
1.08251e-09
1.30962e-09
1.58365e-09
1.95738e-09
2.50247e-09
3.19208e-09
4.06425e-09
5.12976e-09
6.56419e-09
8.7585e-09
1.22317e-08
1.80379e-08
1.88131e-08
1.6914e-08
6.15948e-08
6.62321e-07
1.82923e-06
5.34024e-08
6.84787e-10
8.66694e-10
1.12353e-09
1.48294e-09
2.01372e-09
2.82877e-09
3.86649e-09
5.06658e-09
6.22752e-09
7.3021e-09
8.51408e-09
9.8972e-09
1.21761e-08
1.38112e-08
4.28315e-08
1.52865e-07
2.71518e-07
3.02592e-07
5.42831e-08
5.72146e-10
7.68892e-10
1.04529e-09
1.5007e-09
2.28529e-09
3.49592e-09
5.21275e-09
7.26137e-09
9.09328e-09
9.76126e-09
9.61442e-09
9.76224e-09
1.34207e-08
4.12176e-08
1.02729e-07
1.72135e-07
4.45847e-08
3.53419e-08
4.86196e-08
4.50639e-10
6.69824e-10
9.64795e-10
1.5297e-09
2.59621e-09
4.29587e-09
6.89016e-09
1.03694e-08
1.49244e-08
1.70415e-08
1.34828e-08
1.0087e-08
2.44297e-08
7.60105e-08
1.34483e-07
1.75613e-07
6.5049e-08
2.88104e-08
3.67741e-08
3.65261e-10
5.29026e-10
8.59605e-10
1.50632e-09
2.81932e-09
5.11823e-09
8.92201e-09
1.53588e-08
2.75476e-08
3.85178e-08
2.76029e-08
1.45006e-08
2.20642e-08
6.35906e-08
1.05861e-07
1.33994e-07
5.67728e-08
2.75889e-08
3.93146e-08
2.4172e-10
3.92598e-10
6.99317e-10
1.367e-09
2.81264e-09
5.69499e-09
1.04606e-08
1.74228e-08
4.72674e-08
9.99011e-08
9.77957e-08
1.45991e-08
1.50394e-08
2.76305e-08
5.44881e-08
4.03452e-08
3.55507e-08
2.69631e-08
3.24285e-08
1.54941e-10
2.57501e-10
5.1363e-10
1.10749e-09
2.43832e-09
5.32712e-09
1.03739e-08
1.85352e-08
4.13915e-08
1.69542e-07
3.67841e-07
1.42894e-07
1.5134e-08
2.80334e-08
3.2704e-08
2.70755e-08
2.70611e-08
2.69478e-08
2.72402e-08
7.86654e-11
1.45593e-10
3.19643e-10
7.66357e-10
1.82942e-09
4.2745e-09
9.05544e-09
1.86474e-08
4.08916e-08
7.52284e-08
4.56354e-07
3.42679e-06
3.33372e-06
2.82583e-08
2.86647e-08
3.36805e-08
2.69665e-08
5.85959e-08
2.69109e-08
3.61718e-11
6.92463e-11
1.62923e-10
4.34342e-10
1.11827e-09
2.85504e-09
6.6161e-09
1.43592e-08
3.30316e-08
6.43439e-08
2.42997e-07
3.71817e-06
5.53006e-06
3.35279e-06
2.93357e-08
6.32201e-08
1.23676e-07
3.16961e-07
2.01368e-06
1.36203e-11
2.61636e-11
6.61433e-11
1.91945e-10
5.77346e-10
1.60984e-09
3.94334e-09
9.24366e-09
2.20529e-08
4.80872e-08
9.09189e-08
1.21281e-06
5.547e-06
5.53516e-06
1.84065e-06
6.36222e-08
1.22587e-07
5.4237e-07
2.65732e-06
4.45919e-12
7.58633e-12
1.8572e-11
5.97718e-11
2.05254e-10
6.75985e-10
1.90991e-09
4.9989e-09
1.16601e-08
2.81173e-08
5.32873e-08
8.81386e-08
1.74612e-06
5.54863e-06
5.53517e-06
6.0814e-07
1.21963e-07
4.19658e-07
2.65732e-06
1.16503e-12
1.71375e-12
3.77508e-12
1.24943e-11
5.13923e-11
2.16815e-10
7.7634e-10
2.48357e-09
6.74575e-09
1.60251e-08
3.60335e-08
6.35297e-08
9.88727e-08
2.75601e-06
5.5901e-06
5.24468e-06
1.21794e-07
2.54678e-07
2.65377e-06
2.54383e-13
3.1534e-13
5.3183e-13
1.40564e-12
5.98861e-12
3.26144e-11
1.7068e-10
7.5e-10
2.64297e-09
7.78194e-09
2.03794e-08
4.64455e-08
8.76157e-08
1.56641e-07
3.40563e-06
5.54795e-06
4.4025e-06
5.02667e-07
2.65722e-06
4.02047e-14
4.27062e-14
5.96325e-14
1.18394e-13
3.79972e-13
2.11989e-12
1.52365e-11
1.01539e-10
5.15619e-10
2.16516e-09
6.88004e-09
1.81701e-08
3.45155e-08
4.08518e-08
9.83028e-08
1.96814e-06
2.89513e-06
1.30632e-06
7.81374e-07
)
;

boundaryField
{
    leftWall
    {
        type            zeroGradient;
    }
    rightWall
    {
        type            zeroGradient;
    }
    lowerWall
    {
        type            zeroGradient;
    }
    atmosphere
    {
        type            inletOutlet;
        inletValue      uniform 0;
        value           nonuniform List<scalar> 
46
(
5.21296e-09
7.73238e-08
6.07319e-07
0
0
0
0
0
0
0
0
0
0
0
0
0
0
0
0
0
0
0
0
0
0
0
0
0
0
0
0
0
0
0
0
0
2.16516e-09
6.88004e-09
1.81701e-08
3.45155e-08
4.08518e-08
9.83028e-08
1.96814e-06
2.89513e-06
1.30632e-06
7.81374e-07
)
;
    }
    defaultFaces
    {
        type            empty;
    }
}


// ************************************************************************* //
