/*--------------------------------*- C++ -*----------------------------------*\
| =========                 |                                                 |
| \\      /  F ield         | OpenFOAM: The Open Source CFD Toolbox           |
|  \\    /   O peration     | Version:  2312                                  |
|   \\  /    A nd           | Website:  www.openfoam.com                      |
|    \\/     M anipulation  |                                                 |
\*---------------------------------------------------------------------------*/
FoamFile
{
    version     2.0;
    format      ascii;
    arch        "LSB;label=32;scalar=64";
    class       volScalarField;
    location    "1.8";
    object      alpha.water_0;
}
// * * * * * * * * * * * * * * * * * * * * * * * * * * * * * * * * * * * * * //

dimensions      [0 0 0 0 0 0 0];

internalField   nonuniform List<scalar> 
2268
(
7.25404e-10
4.09881e-10
1.56238e-10
6.55337e-11
4.0529e-11
3.11386e-11
2.84655e-11
2.72476e-11
2.66726e-11
2.60584e-11
2.58166e-11
2.62086e-11
2.76336e-11
3.08455e-11
3.74961e-11
4.83951e-11
6.74702e-11
1.09512e-10
1.8409e-10
3.29149e-10
5.67586e-10
8.25445e-10
9.75791e-10
9.69626e-10
7.40889e-10
3.45786e-10
1.52324e-10
1.03757e-10
6.73153e-11
5.21343e-11
4.56309e-11
4.2194e-11
4.26885e-11
4.04366e-11
4.01473e-11
4.26325e-11
5.17185e-11
6.58174e-11
9.0768e-11
1.39578e-10
2.76851e-10
5.42771e-10
9.83525e-10
1.83298e-09
2.24363e-09
2.23731e-09
7.78155e-10
7.72746e-10
4.47771e-10
2.45637e-10
1.38735e-10
1.14968e-10
9.04123e-11
8.12845e-11
6.76309e-11
6.68746e-11
5.02072e-11
4.49436e-11
4.6744e-11
5.39966e-11
7.75889e-11
9.98076e-11
1.78241e-10
3.58186e-10
6.63162e-10
1.16623e-09
1.83688e-09
2.06918e-09
1.91995e-09
2.06426e-09
3.66341e-11
3.66236e-11
3.64958e-11
3.64854e-11
3.83624e-11
5.01201e-11
2.74693e-10
4.74124e-11
4.49585e-11
3.90477e-11
3.57694e-11
4.13473e-11
4.46507e-11
6.10457e-11
7.29063e-11
1.17182e-10
2.18136e-10
3.85105e-10
4.42643e-10
4.01885e-10
3.49503e-10
3.5339e-10
0.0352121
0.0314786
0.0353623
0.010923
7.30078e-20
1.99621e-24
-8.13582e-12
-1.92722e-10
-1.80667e-14
2.95269e-24
1.85771e-11
2.05919e-11
2.19701e-11
2.34057e-11
3.75091e-11
8.58769e-11
1.10893e-10
2.71073e-11
3.5821e-11
2.71065e-11
3.58217e-11
3.46946e-06
0.000999193
0.309361
0.333127
0.419399
0.507461
0.546334
0.541591
0.500073
0.37107
0.182559
0.0231066
1.83383e-25
1.67084e-29
5.94557e-30
5.33129e-13
-4.09104e-15
-2.27078e-14
-3.29882e-14
0.0130056
0.0690749
0.167173
0.286344
0.399903
0.456725
0.0135418
0.0587484
0.707697
0.994925
0.99765
0.997542
0.994628
0.968838
0.856641
0.626152
0.313879
0.138939
0.0808942
0.0805662
0.126885
0.221803
0.380938
0.606505
0.783408
0.901269
0.970081
0.984959
0.983987
4.61286e-06
0.000331426
0.478489
0.995116
0.995675
0.997933
0.997714
0.997855
0.999233
0.998642
0.960149
0.856928
0.784938
0.781505
0.845987
0.937784
0.999479
0.998342
0.99763
0.997444
0.99739
0.994518
0.983505
0.114165
0.079723
0.0341655
0.0304963
0.0307406
0.0292102
0.0274626
0.0269891
0.0260731
0.0260937
0.0256532
0.0256415
0.0273825
0.0265149
0.0260493
0.0260729
0.0262075
0.0265499
0.0185568
0.0937475
0.0468136
0.0454563
0.0896844
0.110577
0.0626917
0.0590218
0.131674
0.215906
0.189434
0.0341257
0.00852278
0.0085223
0.00852268
0.00852268
0.0293744
0.0451335
0.0129565
0.0116507
0.0336498
0.0337025
0.0258462
0.0202659
0.0202732
0.140257
0.281514
0.414189
0.414189
0.414174
0.349573
0.113575
0.0359459
0.0085227
0.00853429
0.0454403
0.12079
0.114655
0.0116381
0.188333
0.625752
0.57997
0.245167
0.082418
0.0610268
0.207099
0.334527
0.242906
0.222196
0.359506
0.294975
0.244949
0.106358
0.0772872
0.0769946
0.104979
0.224859
0.149795
0.789215
0.875276
0.875321
0.824606
0.634353
0.292484
0.204976
0.14833
0.126068
0.249621
0.446476
0.538075
0.49486
0.210085
0.171343
0.354482
0.516296
0.788996
0.514601
0.827934
0.691473
0.700888
0.800406
0.822829
0.644525
0.157683
0.126044
0.12607
0.392397
0.767429
0.945836
0.988158
0.661393
0.426258
0.578472
0.898839
0.897748
0.701822
0.767712
0.231302
0.154001
0.470525
0.819049
0.68283
0.17413
0.126514
0.126453
0.791628
0.994267
0.999908
0.997379
0.889931
0.587904
0.763276
0.898829
0.898814
0.898794
0.341757
0.0701472
0.073217
0.534217
0.895604
0.739005
0.28866
0.126858
0.164904
0.818695
0.969263
0.999917
0.999815
0.923182
0.621606
0.881353
0.898003
0.892144
0.898785
8.2102e-06
4.34558e-05
0.0174085
0.332614
0.527858
0.869299
0.977952
0.985523
0.999327
0.999317
0.999407
0.999485
0.999486
0.999481
0.999481
0.999482
0.999483
0.998911
0.994853
0.990134
0.988981
0.989018
0.949632
2.29893e-05
1.61601e-05
0.00259187
0.00135885
0.0046092
0.0637991
0.194755
0.667407
0.92594
0.985435
0.999501
0.999239
0.984028
0.959914
0.970236
0.98983
0.945054
0.839342
0.731633
0.728239
0.751565
0.788354
0.793437
1.96692e-05
1.6184e-05
0.000113128
0.000990552
0.00245088
0.00652962
0.0199447
0.0609691
0.228317
0.522131
0.714604
0.824604
0.88297
0.828855
0.719223
0.52854
0.303493
0.123295
0.0367349
0.0370169
0.0525179
0.0961311
0.119917
1.18121e-05
2.4848e-05
3.60487e-05
0.000168173
0.000263484
0.000892773
0.000442815
6.69254e-06
6.37377e-06
0.0107898
0.0509692
0.0759569
0.0744577
0.0534924
0.0130177
0.000447572
1.13959e-07
6.64459e-08
3.35043e-08
9.05648e-05
-8.81708e-09
-3.7444e-17
-1.65298e-23
1.18146e-05
3.47044e-05
3.06062e-05
1.04907e-05
1.94832e-06
1.94929e-06
1.67945e-05
7.6568e-06
1.58584e-05
4.48915e-11
1.53929e-14
1.71122e-19
2.14837e-21
-8.54165e-22
-1.45937e-08
0.000481283
0.00255561
0.00501559
0.00875702
0.0086943
0.00480272
0.000263784
2.54102e-05
2.05121e-05
2.90233e-05
3.40396e-05
3.29651e-05
8.05145e-06
1.94745e-06
0.000258792
0.00114831
0.000369639
0.000682904
0.00159203
0.00194939
0.00202271
0.00200607
0.00225385
0.00380466
0.00863985
0.010339
0.010283
0.0088155
0.00302922
0.000948142
0.000392575
4.23248e-05
2.21499e-05
3.40234e-05
2.27403e-05
7.21798e-06
1.94939e-06
0.00172545
0.00526494
0.0052849
0.00601412
0.00601104
0.0046025
0.00307386
0.00203563
0.00223052
0.00189859
0.000265399
1.59038e-07
5.18879e-12
-1.22337e-24
-1.312e-27
0.000179927
8.61874e-05
4.23375e-05
4.23038e-05
2.85278e-05
2.8472e-05
1.82391e-05
1.94745e-06
0.00090183
0.00565665
0.00601413
0.00601107
0.00355678
0.000143956
2.04272e-06
5.39548e-12
5.33291e-12
5.37441e-12
1.08446e-07
7.00305e-08
-4.29705e-28
2.64945e-29
-1.88909e-28
9.07703e-11
3.11034e-05
4.23375e-05
1.83724e-05
1.18644e-05
1.49738e-05
1.57898e-05
3.04197e-06
1.75292e-06
0.00251416
0.0060057
0.00416358
0.000228829
8.39833e-06
1.48605e-07
6.05514e-08
5.41079e-12
3.43405e-07
6.84471e-07
3.1867e-07
-4.0966e-16
1.01257e-10
-3.78272e-17
1.64719e-05
0.000313027
2.51472e-05
3.70241e-06
2.61018e-07
2.6032e-07
9.59134e-07
4.7356e-06
2.02129e-06
0.00142397
0.00124346
0.000153252
1.85161e-06
1.57885e-06
8.3756e-07
1.4481e-07
4.92318e-11
6.65797e-07
8.19917e-07
3.33917e-07
-7.42438e-27
4.64164e-15
4.34711e-06
0.000217342
0.000325374
2.27786e-08
1.50732e-06
9.68427e-07
3.1194e-07
3.19262e-07
6.23801e-06
4.31659e-06
4.60901e-07
4.60529e-07
1.34341e-06
1.7283e-06
1.26871e-06
6.07809e-07
1.03591e-07
6.04191e-09
1.90946e-08
3.69899e-07
1.01609e-09
1.61037e-09
1.64162e-09
2.75707e-05
0.000225573
0.000216076
2.27711e-08
2.41496e-07
5.17056e-07
1.46874e-07
3.65724e-07
9.59767e-07
7.68627e-07
4.60383e-07
5.12679e-07
1.10277e-06
6.08892e-07
1.19666e-10
1.19764e-10
1.19065e-10
3.53689e-10
2.03561e-10
2.05092e-10
1.95936e-09
1.79377e-08
3.4461e-08
2.15611e-05
5.48513e-05
2.38198e-05
2.27582e-08
2.27388e-08
2.27582e-08
2.90134e-08
1.73263e-07
4.38129e-07
4.73401e-07
4.74065e-07
4.69058e-07
1.92314e-07
1.19814e-10
1.20017e-10
1.1973e-10
2.39164e-10
4.22063e-10
7.45501e-10
1.40981e-09
6.42913e-09
2.9773e-08
5.71442e-07
1.18513e-06
6.98986e-12
2.61974e-06
2.27711e-08
2.2807e-08
3.57326e-08
4.87676e-08
7.17612e-08
1.75573e-07
3.57594e-07
2.41967e-07
8.3674e-08
3.05369e-10
8.53379e-10
3.37704e-10
2.13596e-10
2.40183e-10
4.96597e-10
8.33952e-10
1.32316e-09
1.81618e-09
2.66454e-09
1.09984e-08
6.99116e-12
7.60347e-12
4.17317e-07
7.92686e-08
4.72244e-08
6.554e-08
5.81113e-08
3.92726e-08
3.00123e-08
5.78327e-08
5.63417e-08
3.04665e-10
3.05423e-10
3.13986e-10
2.24353e-10
1.82631e-10
2.12351e-10
3.14619e-10
5.12186e-10
7.81476e-10
9.97025e-10
1.10156e-09
7.86362e-10
3.16579e-10
4.31961e-11
4.36849e-11
3.02366e-07
2.02117e-08
3.86541e-08
7.8202e-09
5.07999e-10
4.40417e-10
4.38742e-10
4.37212e-10
4.65407e-10
2.76594e-10
1.69922e-10
1.17712e-10
1.03139e-10
1.25029e-10
1.76384e-10
2.72525e-10
4.16914e-10
5.16299e-10
4.98144e-10
3.0878e-10
1.94455e-10
1.94639e-10
3.41382e-10
3.98759e-07
2.55732e-09
1.8678e-09
2.26273e-09
1.28117e-09
1.05136e-09
7.02043e-10
4.35431e-10
2.38503e-10
1.37565e-10
8.57771e-11
6.75859e-11
6.15103e-11
6.36814e-11
8.51109e-11
1.28051e-10
1.86742e-10
2.40139e-10
2.29686e-10
1.33772e-10
1.3443e-10
4.14756e-10
2.05251e-09
3.98337e-07
4.33288e-09
1.81468e-09
1.68398e-09
9.71352e-10
6.28192e-10
3.52715e-10
2.16301e-10
1.33398e-10
8.48186e-11
5.6082e-11
4.11103e-11
3.09868e-11
2.81928e-11
3.41285e-11
4.81403e-11
6.87341e-11
8.86213e-11
9.42594e-11
8.95063e-11
1.82781e-10
9.01905e-10
4.45528e-09
3.53525e-07
9.1277e-10
2.28936e-09
1.76129e-09
8.44387e-10
3.54336e-10
2.30128e-10
1.76698e-10
1.23421e-10
7.97977e-11
4.77912e-11
2.85958e-11
1.75773e-11
1.27278e-11
1.24177e-11
1.60573e-11
2.21486e-11
3.03103e-11
3.80981e-11
4.54648e-11
6.67401e-11
1.73596e-10
1.14353e-09
2.51732e-07
2.62917e-10
2.37127e-09
2.02674e-09
8.81855e-10
3.30753e-10
2.42059e-10
1.98926e-10
1.37632e-10
8.63114e-11
4.66001e-11
2.49982e-11
1.2993e-11
7.22348e-12
5.0811e-12
5.2747e-12
7.14177e-12
1.02325e-11
1.49741e-11
2.10885e-11
3.43503e-11
8.00852e-11
3.6379e-10
3.04828e-07
1.83926e-10
2.26346e-09
2.09871e-09
8.78633e-10
3.78224e-10
3.55923e-10
2.53659e-10
1.65238e-10
1.0039e-10
5.19015e-11
2.48246e-11
1.17527e-11
5.53196e-12
2.78377e-12
1.77321e-12
1.90592e-12
2.80285e-12
4.85758e-12
8.56974e-12
1.68283e-11
4.49994e-11
1.12285e-10
7.74576e-07
1.25259e-10
1.63352e-09
1.92851e-09
7.38133e-10
5.59685e-10
5.00336e-10
2.94174e-10
1.99141e-10
1.15565e-10
5.65373e-11
2.5792e-11
1.15207e-11
5.06546e-12
2.24377e-12
9.04173e-13
5.57936e-13
7.13229e-13
1.44447e-12
3.2389e-12
7.0283e-12
1.79185e-11
4.97291e-11
1.24751e-06
4.28303e-11
6.75525e-10
1.23253e-09
9.75427e-10
1.07568e-09
8.69602e-10
3.48192e-10
2.40338e-10
1.31927e-10
6.02397e-11
2.62331e-11
1.13389e-11
4.80981e-12
1.97889e-12
8.06268e-13
2.51297e-13
1.82696e-13
3.22672e-13
8.60407e-13
2.23617e-12
6.60565e-12
1.6818e-11
1.33617e-06
2.24339e-11
9.49014e-11
8.31194e-10
1.47656e-09
1.91528e-09
1.41385e-09
4.46491e-10
2.91041e-10
1.51782e-10
6.40927e-11
2.64442e-11
1.09372e-11
4.49494e-12
1.79317e-12
6.98593e-13
2.27839e-13
7.45278e-14
8.44774e-14
2.33914e-13
6.07512e-13
1.71719e-12
5.54565e-12
1.3364e-06
7.19007e-08
1.19963e-11
6.10664e-10
1.91e-09
2.81061e-09
1.99564e-09
5.88368e-10
3.60507e-10
1.79412e-10
7.03885e-11
2.64945e-11
1.03156e-11
4.07757e-12
1.5849e-12
5.89383e-13
2.12733e-13
4.88033e-14
2.23284e-14
4.43738e-14
1.22626e-13
4.58242e-13
1.29548e-12
1.29708e-06
1.35119e-06
7.52465e-12
1.44668e-10
1.37861e-09
2.97476e-09
2.38753e-09
7.66197e-10
4.58944e-10
2.2186e-10
8.09511e-11
2.66978e-11
9.57983e-12
3.58761e-12
1.34741e-12
4.88412e-13
1.65066e-13
5.1696e-14
1.09606e-14
1.04222e-14
2.70261e-14
8.15857e-14
3.11888e-13
1.03306e-06
1.59402e-06
5.98219e-09
1.39706e-11
4.15226e-11
2.86613e-09
2.4576e-09
9.69871e-10
5.70221e-10
2.84096e-10
9.90102e-11
2.89659e-11
8.88485e-12
3.0763e-12
1.10129e-12
3.87948e-13
1.27996e-13
3.9518e-14
8.18011e-15
2.37242e-15
3.86401e-15
1.63333e-14
5.30359e-14
2.03394e-07
1.59215e-06
8.54314e-07
2.32725e-08
3.30146e-08
5.38005e-09
1.90417e-09
1.21684e-09
6.97988e-10
3.66417e-10
1.30274e-10
3.47888e-11
8.46735e-12
2.589e-12
8.70268e-13
2.92291e-13
9.29215e-14
2.72524e-14
6.89818e-15
1.14422e-15
8.02323e-16
2.12511e-15
9.18786e-15
1.66393e-07
1.16203e-06
3.05055e-06
2.14456e-06
4.87878e-07
2.36017e-08
2.04368e-09
1.47553e-09
8.51642e-10
4.67191e-10
1.78341e-10
4.61228e-11
9.09793e-12
2.18021e-12
6.6466e-13
2.10346e-13
6.45238e-14
1.81445e-14
4.40148e-15
8.10032e-16
1.67399e-16
3.00686e-16
1.03878e-15
1.65994e-07
1.05184e-06
3.05083e-06
3.05055e-06
9.20016e-07
4.58354e-08
1.72215e-09
1.74014e-09
1.04156e-09
5.76985e-10
2.47933e-10
6.75582e-11
1.17238e-11
1.96291e-12
4.90344e-13
1.43941e-13
4.17621e-14
1.10689e-14
2.55497e-15
5.07232e-16
6.05375e-17
3.00859e-17
1.29189e-16
1.73107e-07
1.00283e-06
3.05029e-06
2.98726e-06
5.36238e-07
6.12221e-08
1.72157e-09
2.26553e-09
1.33546e-09
7.04261e-10
3.3568e-10
1.04752e-10
1.85754e-11
2.26345e-12
3.70153e-13
9.43067e-14
2.50353e-14
6.39336e-15
1.4088e-15
2.45012e-16
3.04774e-17
5.15225e-18
1.05487e-17
3.63717e-07
4.04906e-07
1.37445e-06
5.30378e-07
1.25695e-07
2.10981e-08
5.29258e-09
4.21247e-09
1.75056e-09
8.20071e-10
4.19616e-10
1.56499e-10
3.59829e-11
4.31387e-12
3.77967e-13
5.97503e-14
1.41951e-14
3.20845e-15
6.50084e-16
1.14045e-16
1.37982e-17
1.24126e-18
9.61289e-19
8.73875e-07
9.94042e-08
1.15908e-08
2.17679e-08
4.76806e-09
6.50689e-09
1.2383e-08
9.11415e-09
2.35829e-09
9.17546e-10
4.82972e-10
1.99005e-10
5.49319e-11
8.65495e-12
7.7893e-13
5.4077e-14
7.58022e-15
1.52594e-15
2.91035e-16
4.14374e-17
5.92337e-18
4.23457e-19
7.97601e-20
1.18683e-06
1.76248e-07
4.34767e-09
4.57568e-09
4.71526e-09
1.39523e-08
1.57195e-08
1.04841e-08
3.31405e-09
1.01576e-09
5.32187e-10
2.17476e-10
6.62843e-11
1.25374e-11
1.56886e-12
9.96981e-14
6.02445e-15
6.8689e-16
1.12276e-16
1.84647e-17
2.06517e-18
1.52049e-19
1.33053e-20
1.18676e-06
7.97471e-08
6.97214e-09
5.9762e-09
1.03153e-08
1.54039e-08
1.49961e-08
6.30942e-09
1.54208e-09
9.69108e-10
5.18951e-10
2.12731e-10
6.92318e-11
1.53747e-11
2.22996e-12
1.93203e-13
9.90559e-15
4.81878e-16
5.06758e-17
5.86096e-18
7.49135e-19
6.12534e-20
2.50711e-21
1.18689e-06
2.63515e-07
9.14971e-09
6.70928e-09
7.08944e-09
8.54792e-09
4.76265e-09
1.6708e-09
1.22964e-09
8.31086e-10
4.35568e-10
1.8932e-10
5.99846e-11
1.36919e-11
2.17854e-12
2.28861e-13
1.45788e-14
5.94121e-16
2.73452e-17
2.46005e-18
2.38032e-19
1.90631e-20
7.84748e-22
9.99678e-07
9.59162e-07
4.26925e-07
2.04386e-07
8.95335e-08
8.17619e-09
1.19819e-09
1.18626e-09
9.97117e-10
6.29481e-10
3.20845e-10
1.24517e-10
3.77464e-11
8.43007e-12
1.4102e-12
1.63896e-13
1.28643e-14
6.42792e-16
2.25351e-17
9.48707e-19
6.92657e-20
5.19258e-21
2.09726e-22
9.70963e-08
9.78433e-07
1.1061e-06
1.10597e-06
7.26807e-07
2.0991e-08
1.1282e-09
1.12626e-09
8.22797e-10
4.31748e-10
1.78663e-10
6.03233e-11
1.56909e-11
3.31384e-12
5.36553e-13
6.77951e-14
6.28264e-15
3.92864e-16
1.59219e-17
5.09996e-19
2.1188e-20
1.17898e-21
4.00448e-23
1.81391e-08
2.75105e-07
8.5997e-07
8.34574e-07
4.12476e-07
8.34094e-09
2.09257e-09
1.33853e-09
6.19013e-10
2.26886e-10
7.18356e-11
1.85348e-11
3.89567e-12
7.10602e-13
1.07741e-13
1.40276e-14
1.49224e-15
1.19379e-16
6.3031e-18
2.36848e-19
7.78638e-21
2.86667e-22
8.97747e-24
7.85983e-09
3.15238e-09
5.12286e-08
3.66544e-08
8.03867e-09
2.85126e-09
1.45374e-09
5.62229e-10
1.85257e-10
5.36199e-11
1.32659e-11
2.70863e-12
4.756e-13
7.06608e-14
1.03421e-14
1.46324e-15
1.93876e-16
2.20024e-17
1.78644e-18
9.77458e-20
3.32093e-21
9.28549e-23
2.43377e-24
2.20475e-09
2.99996e-09
1.46242e-09
1.31264e-09
1.19935e-09
8.73435e-10
3.49749e-10
1.03378e-10
2.63926e-11
5.46276e-12
9.83853e-13
1.56869e-13
2.29568e-14
3.58712e-15
5.93832e-16
1.02751e-16
1.79295e-17
2.88111e-18
3.78928e-19
3.47481e-20
1.62215e-21
4.94352e-23
8.46777e-25
6.3041e-10
1.55293e-09
1.19148e-09
8.13218e-10
4.35938e-10
1.8086e-10
5.32663e-11
1.10791e-11
1.69858e-12
2.18277e-13
2.63893e-14
3.57359e-15
6.03158e-16
1.11341e-16
2.36353e-17
5.20486e-18
1.09325e-18
2.2346e-19
4.10676e-20
6.07082e-21
6.21362e-22
3.96213e-23
6.8798e-25
0.915097
0.880196
0.749064
0.673937
0.796584
0.864282
0.803439
0.248891
0.105749
0.0583423
0.0474967
0.0503841
5.79154e-25
4.36933e-24
1.46016e-19
0.0374811
5.91271e-06
3.52365e-07
9.29124e-08
8.84916e-08
0.000116865
1.24401e-06
1.28233e-06
8.63418e-08
6.00928e-05
6.04994e-05
5.82877e-05
1.88321e-05
0.000164264
0.000224887
0.000265581
0.000261724
0.000395881
0.000395786
0.000394873
0.000393256
0.000249334
0.00013497
6.58934e-05
4.35466e-05
1.36014e-05
9.0569e-06
9.07043e-06
9.08359e-06
2.67754e-05
9.07135e-06
1.25284e-05
3.13438e-05
3.06474e-05
2.67715e-05
5.99229e-05
9.68703e-05
2.88447e-05
3.91438e-05
6.07207e-05
9.71043e-05
3.71017e-06
1.7435e-05
2.6333e-05
9.7468e-05
3.3122e-10
3.32315e-10
2.12875e-06
2.60156e-05
4.05396e-09
3.17412e-09
2.28398e-09
1.54654e-08
1.62678e-08
2.26145e-08
1.59855e-08
2.28399e-09
5.26e-09
6.81568e-09
7.29798e-09
5.09773e-09
1.23837e-09
1.82027e-09
2.37578e-09
2.80183e-09
2.99411e-10
4.39624e-10
6.89119e-10
8.92325e-10
1.06107e-10
1.57387e-10
2.40595e-10
3.23325e-10
4.32797e-11
6.41917e-11
9.79034e-11
1.35338e-10
1.2842e-11
2.15178e-11
3.61892e-11
5.05123e-11
3.59986e-12
6.47182e-12
1.06945e-11
1.67809e-11
8.85296e-13
1.45689e-12
2.9392e-12
4.64199e-12
1.80487e-13
3.37501e-13
6.34807e-13
1.13679e-12
2.89392e-14
5.34172e-14
1.16436e-13
2.23263e-13
3.99827e-15
9.30233e-15
1.83708e-14
3.82822e-14
4.71803e-16
9.22624e-16
2.36777e-15
5.16428e-15
4.72849e-17
1.03756e-16
2.34658e-16
5.285e-16
3.70004e-18
7.94279e-18
2.26945e-17
4.78959e-17
2.42976e-19
7.36273e-19
1.76916e-18
4.65957e-18
1.69952e-20
4.76249e-20
1.52066e-19
3.75148e-19
9.63966e-22
3.39309e-21
1.06687e-20
3.20687e-20
6.62269e-23
2.14845e-22
7.45115e-22
2.53762e-21
5.78882e-24
1.46016e-23
5.56182e-23
2.03333e-22
7.79656e-25
9.11383e-25
3.65597e-24
1.55735e-23
1.56556e-25
6.0566e-26
2.19899e-25
7.84572e-25
4.9905e-26
6.23655e-27
1.23447e-26
5.42711e-26
1.55392e-26
1.20183e-27
7.88699e-28
3.43907e-27
6.60903e-27
3.58613e-28
6.69742e-29
1.85186e-28
0.155724
0.0387582
0.167425
0.865806
0.982135
0.956561
0.864977
0.6544
0.529007
0.811797
0.951124
0.998276
0.99986
0.794775
0.546286
0.800486
0.663542
0.679263
0.898776
0.0290042
0.000609237
0.168513
0.971385
0.999703
0.999805
0.999799
0.996364
0.989541
0.97786
0.99792
0.999973
0.999973
0.992576
0.550205
0.436813
0.516097
0.592598
0.893687
0.00926597
0.000653296
0.00536393
0.163174
0.949503
0.991179
0.999019
0.998013
0.99997
0.999971
0.999973
0.999973
0.999973
0.959136
0.459648
0.339234
0.509392
0.492808
0.488908
0.0412218
0.0122492
0.00264543
0.0137686
0.271794
0.694347
0.858685
0.94695
0.973286
0.996458
0.999547
0.994374
0.997238
0.855113
0.338859
0.339658
0.684539
0.530311
0.21163
0.0323023
0.0340607
0.00591738
0.00466214
0.0816316
0.118597
0.175637
0.386799
0.719734
0.92901
0.977991
0.933348
0.959159
0.929055
0.525365
0.443586
0.874683
0.844257
0.21475
0.00420393
0.00698516
0.00042934
0.0150403
0.0243032
0.0118265
0.00493113
0.000575587
0.0596844
0.339925
0.694905
0.842659
0.926154
0.971226
0.952528
0.876026
0.887441
0.887605
0.292223
-1.40017e-07
-1.06727e-07
-2.48072e-10
0.0172094
0.0350074
0.031651
0.00456369
0.000411566
0.00268457
0.0055356
0.0465817
0.371126
0.826001
0.930779
0.743107
0.494261
0.731748
0.881097
0.337619
0.000162912
8.21507e-05
4.36216e-05
0.00894063
0.0349117
0.0352916
0.0136933
8.74507e-05
0.00224178
0.00546246
0.00436434
0.0434892
0.170408
0.206346
-8.31672e-11
4.21379e-07
0.400363
0.865127
0.36204
0.000394263
0.000327475
4.10282e-05
0.00253917
0.027164
0.0300643
0.00229012
9.66856e-05
0.00184097
0.00547745
0.00423032
0.000741501
6.88117e-10
-9.2347e-23
-3.17544e-09
0.0085534
0.469632
0.80776
0.510366
8.40537e-05
0.000271674
9.1403e-05
0.000251192
0.00340899
0.00473819
0.000160274
8.29838e-05
0.000398645
0.00202724
0.0029642
0.00163602
0.000414889
4.43511e-05
-5.2927e-09
0.143988
0.684802
0.754177
0.500619
1.04519e-05
8.08782e-05
0.000114325
1.21189e-06
3.70147e-09
0.000182824
4.36442e-06
0.000343079
0.00345089
0.00585523
0.00652929
0.00333654
0.00100773
0.00115577
-3.87046e-06
0.180889
0.57094
0.659956
0.378925
2.52163e-05
8.34602e-06
5.59792e-05
2.1817e-08
3.33099e-09
5.00346e-09
3.01995e-09
0.000795705
0.00893184
0.0112043
0.0111758
0.0111972
0.0054231
0.00191772
9.1159e-08
1.0377e-07
0.0659395
0.281956
0.293481
6.01432e-05
3.85467e-06
-1.28489e-09
9.64765e-10
5.86886e-10
2.6169e-06
1.76398e-05
5.97002e-05
0.000379486
0.00484942
0.00881967
0.0111017
0.00957439
0.00109788
7.23249e-05
1.4624e-05
4.72141e-06
4.88403e-06
0.0966963
9.74491e-05
9.4921e-06
1.1742e-07
2.70775e-07
3.40005e-08
4.71662e-07
1.74332e-06
1.0427e-06
5.57113e-06
6.01363e-06
6.30362e-06
0.000532151
0.00182141
0.00251862
0.000501833
7.75188e-05
1.72665e-05
1.21825e-05
1.12375e-05
9.71043e-05
4.24224e-05
2.81053e-07
5.46845e-07
1.23108e-07
3.89247e-09
3.34331e-09
4.84031e-07
6.10533e-06
7.03343e-05
0.00025892
6.53231e-05
6.38786e-05
0.00028025
0.000616668
0.000356758
0.000110579
9.03348e-05
0.0001165
7.08847e-05
6.47605e-05
1.98675e-05
1.41881e-07
5.88928e-08
3.3636e-09
3.38891e-09
9.61537e-07
1.36685e-05
1.96329e-05
0.000721399
0.000367543
6.61218e-05
6.47029e-05
0.000114603
9.80898e-05
0.000104745
7.33588e-05
8.84198e-05
2.94226e-05
7.1615e-05
5.35034e-05
8.01371e-06
1.00765e-08
3.415e-09
3.32997e-09
4.416e-06
5.12455e-06
0.000126714
0.000720559
0.000788422
0.000628453
0.00016424
9.40003e-06
1.17299e-09
3.42315e-15
8.89577e-15
1.94048e-12
6.87169e-07
3.53092e-05
5.3342e-05
3.19909e-05
2.70889e-06
8.82337e-09
1.74861e-06
6.58117e-06
5.48826e-06
4.9909e-05
0.000371105
0.000656151
0.000664399
0.000600057
4.83192e-05
2.92588e-06
4.03167e-15
7.56052e-14
1.41748e-11
2.5949e-09
2.08889e-07
1.94754e-05
2.98564e-05
7.3758e-06
6.3533e-07
4.56208e-06
6.73691e-06
6.35553e-06
5.4855e-05
2.63953e-05
1.34218e-07
0.000103454
0.000164219
8.19789e-05
1.14173e-05
1.03523e-07
-1.4337e-14
6.00558e-11
2.56925e-09
8.20291e-10
8.11237e-10
3.02729e-06
5.69145e-06
1.89389e-06
1.71873e-06
5.56638e-06
9.27865e-06
4.09905e-05
2.00768e-05
1.40102e-07
1.30439e-07
1.40098e-07
1.59808e-06
5.16927e-06
8.67839e-07
1.04531e-14
1.05254e-10
1.11319e-09
1.32328e-09
8.02598e-10
6.15576e-10
1.05427e-07
7.59615e-07
5.09106e-08
8.40256e-06
3.35043e-05
3.48035e-05
1.32026e-05
2.2437e-07
1.16333e-06
2.32487e-06
1.99341e-06
1.41353e-09
1.16223e-10
6.42293e-10
1.42898e-10
4.0311e-10
6.33326e-10
7.64109e-10
6.08561e-10
2.55576e-09
2.65164e-08
3.12466e-08
3.79601e-06
1.90991e-05
1.3985e-05
1.75209e-06
1.34613e-07
2.6286e-09
4.93466e-10
1.18202e-10
1.16244e-10
5.36979e-10
5.78084e-10
7.12928e-11
1.79157e-10
2.80625e-10
4.1904e-10
5.12133e-10
2.03238e-09
2.05728e-08
1.15356e-07
2.12552e-08
2.29061e-07
1.20328e-08
5.70116e-10
5.62807e-10
5.58964e-10
2.90744e-10
1.72187e-10
1.63329e-10
1.87494e-10
9.14414e-11
1.63365e-11
7.04625e-11
1.18649e-10
1.83437e-10
2.64374e-10
6.03129e-10
2.94694e-09
2.36226e-08
1.59745e-09
3.15842e-10
9.02515e-10
8.19275e-10
5.76745e-10
3.17322e-10
2.34396e-10
1.93047e-10
1.70151e-10
1.20458e-10
5.82169e-11
7.61122e-12
2.41171e-11
4.41108e-11
7.29971e-11
1.10447e-10
1.48531e-10
1.00746e-10
7.7129e-11
1.955e-10
3.1352e-10
4.14287e-10
3.46782e-10
2.71496e-10
2.24296e-10
1.92518e-10
1.66506e-10
1.34673e-10
8.80901e-11
2.48883e-11
4.0552e-12
7.13473e-12
1.50241e-11
2.69017e-11
4.10487e-11
5.73563e-11
6.68911e-11
7.69269e-11
1.18748e-10
1.61241e-10
1.71036e-10
1.57921e-10
1.46502e-10
1.39647e-10
1.28273e-10
1.11855e-10
9.02009e-11
4.5591e-11
1.10085e-11
1.69081e-12
1.82958e-12
4.46202e-12
8.80949e-12
1.49224e-11
2.18537e-11
2.94889e-11
3.91784e-11
4.90927e-11
6.30886e-11
6.86291e-11
6.87691e-11
6.99281e-11
7.11244e-11
6.97682e-11
6.7459e-11
5.27314e-11
2.64184e-11
5.66091e-12
1.39915e-12
3.85742e-13
1.03532e-12
2.46503e-12
4.90517e-12
8.28506e-12
1.19938e-11
1.58237e-11
2.00287e-11
2.40047e-11
2.69553e-11
2.95108e-11
3.11075e-11
3.24484e-11
3.50829e-11
3.40567e-11
2.8265e-11
1.06853e-11
3.60972e-12
1.16125e-12
7.07037e-14
2.09332e-13
5.58392e-13
1.24626e-12
2.3352e-12
3.72453e-12
5.21666e-12
6.73591e-12
8.13811e-12
9.59257e-12
1.17263e-11
1.35996e-11
1.4732e-11
1.71819e-11
1.63459e-11
9.81476e-12
2.94835e-12
1.39756e-12
9.58063e-13
1.02771e-14
3.17362e-14
9.71055e-14
2.41569e-13
5.06211e-13
8.97872e-13
1.33631e-12
1.76872e-12
2.21943e-12
2.39578e-12
2.10651e-12
1.76435e-12
1.88561e-12
4.39527e-12
4.91529e-12
2.5169e-12
7.39727e-13
9.98936e-13
8.46339e-13
1.13608e-15
3.87572e-15
1.24822e-14
3.5304e-14
8.01071e-14
1.47644e-13
2.11466e-13
2.33257e-13
1.1001e-13
6.26852e-14
3.635e-14
4.07321e-14
7.33111e-14
5.39578e-13
7.10707e-13
4.16153e-13
4.4431e-13
8.75011e-13
7.68534e-13
1.15051e-16
3.91667e-16
1.29316e-15
3.76243e-15
8.5519e-15
1.53368e-14
1.87676e-14
6.11554e-15
1.00492e-15
1.61081e-15
4.52921e-15
9.51927e-15
1.55424e-14
6.92459e-14
1.25448e-13
2.06622e-13
4.18742e-13
8.22005e-13
6.15753e-13
9.37308e-18
3.5158e-17
1.1762e-16
3.51402e-16
7.67487e-16
1.22613e-15
1.32538e-15
6.28087e-16
7.00888e-16
1.54433e-15
3.3357e-15
6.94216e-15
1.60273e-14
3.97883e-14
9.83506e-14
1.9992e-13
4.4352e-13
7.65836e-13
4.86332e-13
8.74845e-19
3.27947e-18
1.04089e-17
2.97316e-17
6.77691e-17
1.12485e-16
1.52025e-16
2.2336e-16
5.5112e-16
1.38166e-15
3.21676e-15
7.15521e-15
1.68793e-14
4.1344e-14
1.10997e-13
2.4192e-13
4.34869e-13
6.80011e-13
4.051e-13
7.59255e-20
3.07305e-19
1.02929e-18
2.95341e-18
7.40179e-18
1.67762e-17
3.9326e-17
1.12633e-16
3.37614e-16
9.22966e-16
2.37865e-15
5.88094e-15
1.44733e-14
3.78111e-14
1.02487e-13
2.40906e-13
4.27144e-13
5.58135e-13
2.89151e-13
6.94182e-21
3.02247e-20
1.10403e-19
3.69502e-19
1.17993e-18
3.71363e-18
1.24431e-17
4.33061e-17
1.4324e-16
4.48461e-16
1.32213e-15
3.65184e-15
9.78095e-15
2.54368e-14
6.98958e-14
1.83871e-13
3.65257e-13
4.41563e-13
1.76929e-13
6.27496e-22
2.99286e-21
1.26409e-20
5.07324e-20
1.96391e-19
7.5561e-19
3.00094e-18
1.18499e-17
4.49252e-17
1.60522e-16
5.54132e-16
1.75589e-15
5.19046e-15
1.41078e-14
3.65187e-14
1.00869e-13
2.29555e-13
3.07739e-13
1.14372e-13
4.95491e-23
2.85896e-22
1.32024e-21
5.95731e-21
2.66575e-20
1.19124e-19
5.62273e-19
2.54792e-18
1.07911e-17
4.50648e-17
1.82091e-16
6.757e-16
2.27691e-15
6.83948e-15
1.74747e-14
4.26827e-14
9.66386e-14
1.63019e-13
6.93243e-14
3.80555e-24
2.29384e-23
1.02373e-22
4.12209e-22
1.81787e-21
9.16297e-21
5.22735e-20
3.20572e-19
1.82984e-18
9.51081e-18
4.56686e-17
2.04963e-16
7.88854e-16
2.5854e-15
7.49128e-15
1.94334e-14
3.93598e-14
7.97943e-14
3.50985e-14
2.40308e-25
1.46922e-24
6.43706e-24
2.77969e-23
1.45704e-22
8.99998e-22
5.97076e-21
4.02194e-20
2.73314e-19
1.73651e-18
1.0219e-17
5.34362e-17
2.38308e-16
8.52511e-16
2.59685e-15
6.80127e-15
1.46184e-14
2.71324e-14
2.07765e-14
1.395e-26
8.46274e-26
3.38373e-25
1.46114e-24
8.56298e-24
6.36912e-23
5.35692e-22
4.57787e-21
3.88292e-20
3.06325e-19
2.24541e-18
1.38885e-17
6.9699e-17
2.7581e-16
9.01833e-16
2.38723e-15
4.49041e-15
1.20159e-14
1.15088e-14
7.04546e-28
3.95966e-27
1.45504e-26
6.73394e-26
4.50888e-25
4.11539e-24
4.39875e-23
4.71214e-22
4.93157e-21
4.69885e-20
3.89432e-19
2.75933e-18
1.64327e-17
7.26581e-17
2.53779e-16
7.04076e-16
1.57863e-15
3.96789e-15
4.00884e-15
)
;

boundaryField
{
    leftWall
    {
        type            zeroGradient;
    }
    rightWall
    {
        type            zeroGradient;
    }
    lowerWall
    {
        type            zeroGradient;
    }
    atmosphere
    {
        type            inletOutlet;
        inletValue      uniform 0;
        value           nonuniform List<scalar> 
46
(
6.3041e-10
1.55293e-09
1.19148e-09
8.13218e-10
4.35938e-10
1.8086e-10
5.32663e-11
1.10791e-11
1.69858e-12
2.18277e-13
2.63893e-14
3.57359e-15
6.03158e-16
1.11341e-16
2.36353e-17
5.20486e-18
1.09325e-18
2.2346e-19
4.10676e-20
6.07082e-21
6.21362e-22
3.96213e-23
6.8798e-25
6.60903e-27
3.58613e-28
6.69742e-29
1.85186e-28
7.04546e-28
3.95966e-27
0
0
0
0
0
0
0
0
0
0
0
0
0
0
0
0
0
)
;
    }
    defaultFaces
    {
        type            empty;
    }
}


// ************************************************************************* //
