/*--------------------------------*- C++ -*----------------------------------*\
| =========                 |                                                 |
| \\      /  F ield         | OpenFOAM: The Open Source CFD Toolbox           |
|  \\    /   O peration     | Version:  2312                                  |
|   \\  /    A nd           | Website:  www.openfoam.com                      |
|    \\/     M anipulation  |                                                 |
\*---------------------------------------------------------------------------*/
FoamFile
{
    version     2.0;
    format      ascii;
    arch        "LSB;label=32;scalar=64";
    class       volScalarField;
    location    "1.8";
    object      alpha.air;
}
// * * * * * * * * * * * * * * * * * * * * * * * * * * * * * * * * * * * * * //

dimensions      [0 0 0 0 0 0 0];

internalField   nonuniform List<scalar> 
2268
(
2.44049e-10
5.96567e-11
7.35028e-12
2.3065e-12
3.51818e-12
6.38182e-12
5.59481e-12
3.44504e-12
1.81291e-12
6.49716e-13
3.80158e-13
4.47059e-13
7.47666e-13
1.05774e-12
1.35006e-12
2.25513e-12
4.66201e-12
8.33506e-12
1.89949e-11
3.80547e-11
3.95886e-11
3.94879e-11
2.45344e-09
7.84639e-10
2.73313e-10
2.37343e-12
2.40294e-12
1.42095e-10
1.73394e-10
8.11681e-11
3.72459e-11
1.32447e-11
4.28451e-12
2.30269e-12
2.71905e-12
8.43053e-12
1.47366e-11
2.76391e-11
7.28431e-11
2.40376e-10
3.54049e-10
1.89034e-11
4.33708e-10
7.47989e-09
2.66567e-08
5.21327e-08
9.73266e-10
4.0138e-09
1.38765e-08
4.21016e-09
2.35689e-09
8.61039e-10
2.40678e-10
1.03248e-10
3.18371e-11
1.14496e-11
2.4756e-12
2.51375e-12
1.10763e-11
6.46043e-11
1.2672e-10
2.99211e-10
2.59912e-09
3.32005e-08
7.37287e-08
6.32497e-10
8.58457e-08
2.72785e-07
2.89782e-07
9.78046e-10
5.13079e-09
2.19319e-08
2.71953e-08
3.82664e-09
2.31037e-11
2.44003e-11
1.99981e-11
2.17366e-11
8.40938e-11
4.78589e-10
1.12112e-09
1.57926e-11
1.39915e-10
2.9057e-10
3.14927e-10
4.02107e-09
8.65315e-08
1.00334e-06
1.33322e-06
2.84186e-07
2.29943e-07
2.28312e-07
0.000109318
3.04159e-09
3.04188e-09
3.04159e-09
3.77076e-09
7.75631e-06
5.74118e-05
4.2399e-05
2.78447e-12
2.82765e-12
9.1405e-10
1.06566e-08
6.49252e-09
1.63293e-09
8.56234e-10
6.02785e-10
6.01303e-10
3.09591e-08
9.42429e-07
3.97223e-06
4.67698e-06
7.98073e-05
0.000304172
0.00214316
0.00192127
0.00175936
0.000604107
0.000287484
0.000108221
0.000319337
0.000320531
0.000303576
5.02117e-05
7.69832e-13
1.39344e-09
7.97198e-09
1.20042e-09
8.57304e-10
2.24368e-07
1.3612e-10
1.35815e-10
1.36212e-10
1.36011e-10
7.49075e-06
0.00048956
0.00106902
0.0012076
0.00122977
0.00333211
0.0023585
0.000125771
0.000123425
0.000151848
0.000153495
7.45407e-05
1.28951e-05
6.94382e-13
2.34674e-11
6.08634e-12
4.72826e-07
2.65275e-05
5.31966e-05
6.17052e-05
0.000334078
0.000695197
0.000785214
0.00088785
0.000486777
0.000958499
0.00249753
0.00122658
0.00199923
0.0034753
0.00262955
0.00140587
0.00207406
0.00140791
1.07388e-07
1.05852e-07
1.0379e-07
4.57961e-13
4.55688e-13
4.73364e-06
3.04484e-05
7.49008e-05
0.000470183
0.00153057
0.0023153
0.00230802
0.00207768
0.00119418
0.000961072
0.00136201
3.2274e-05
3.21744e-05
2.57482e-05
0.000118355
0.000119023
0.00210156
0.0126483
0.0135982
0.0129471
0.0108223
0.0108228
0.0116901
0.0119632
0.00795313
0.00614382
0.00612986
0.00580987
0.00553172
0.00213727
0.00153986
0.000243242
0.00893682
0.0145557
0.00109714
0.000589186
0.00188363
0.0113681
0.022201
0.025967
0.0195439
0.0197944
0.0239707
0.0258504
0.0190862
0.011782
0.00645607
0.00578719
0.0082922
0.0066977
0.00354599
0.00353839
0.0149537
0.0170159
0.00313959
0.0196316
0.0589094
0.114592
0.112524
0.0677112
0.0636298
0.0958442
0.115323
0.0848461
0.063881
0.0203776
0.0102943
0.016895
0.0111187
0.0124364
0.0114684
0.0107466
0.00708747
0.0207274
0.0800353
0.128465
0.129367
0.129564
0.129909
0.159883
0.263986
0.26398
0.223925
0.103478
0.0136636
0.0122704
0.0140167
0.00550104
0.00552776
0.0103493
0.00822452
0.00532305
0.048376
0.0820804
0.0578017
0.0599404
0.0686861
0.0443729
0.156376
0.263973
0.246036
0.0610665
0.00588938
0.00293032
0.00838162
0.00372265
0.00818007
0.0148451
0.00836592
0.00579591
0.00530555
0.0474466
0.055268
0.0494653
0.023113
0.00595753
6.9825e-05
0.0137237
0.203443
0.0475828
0.000357062
0.000361413
0.00107239
0.000407858
0.00286121
0.0134959
0.0282697
0.023192
0.00618747
0.00945292
0.0283797
0.0519439
0.0493517
0.0400157
0.00327404
4.52124e-06
0.00307812
0.0748922
0.0290915
0.00226749
0.000283585
0.000225518
0.000225182
0.00286121
0.00438809
0.0282188
0.0283066
0.00718775
0.0432826
0.0510435
0.051044
0.0624628
0.0626598
0.00195498
5.1299e-06
0.000240918
0.0490314
0.0610289
0.000505729
0.00050142
0.000465138
0.000261649
0.0786128
0.00557518
0.00168265
0.00345191
0.00310855
0.00850712
0.0205831
0.0137916
0.00039716
1.0765e-07
5.61887e-07
3.15732e-05
7.26729e-05
8.38307e-05
9.46959e-05
0.000463413
0.00047733
0.00100105
0.00497561
0.00999994
0.0115139
0.0113384
0.00470899
0.175721
0.0276003
0.0228092
0.00262543
0.000885982
0.000885754
0.00148643
0.0264785
0.072931
0.0135194
7.6328e-05
0.000218364
0.0011061
0.00170455
0.0033621
0.00913517
0.014087
0.00897535
0.00502013
0.0131835
0.0580873
0.0822828
0.0823859
0.147762
0.0556677
0.00477607
0.00294205
0.0337005
0.0352829
0.0389867
0.154659
0.174631
0.174627
0.12779
0.0597429
0.0409591
0.0324785
0.0334066
0.0382142
0.0384301
0.0307189
0.00811662
0.00804593
0.0226494
0.0730042
0.0827789
0.0239664
0.353617
0.00392623
0.00377803
0.00670528
0.0430617
0.0455028
0.0408171
0.0549764
0.105012
0.111636
0.0747814
0.0278507
0.0198237
0.0226805
0.0271796
0.0277712
0.0273617
0.0272747
0.0316572
0.0388541
0.0431311
0.0402932
0.024039
0.397902
0.210307
0.15017
0.0248971
5.51807e-05
2.70181e-05
3.90526e-05
3.87692e-05
0.00361084
0.00789978
0.00588616
0.00593385
0.00598817
0.0110197
0.0457644
0.127682
0.251856
0.4141
0.555054
0.630581
0.667238
0.658318
0.0239664
0.225555
0.381667
0.381515
0.129272
5.67681e-05
2.71006e-05
0.0174518
0.0121701
0.0124032
0.0472404
0.0911328
0.172052
0.322132
0.525678
0.723083
0.87579
0.978038
0.99014
0.991357
0.996778
0.999053
0.999587
0.0441094
0.0434614
0.311095
0.118935
0.0956747
0.0966759
0.0852501
0.106345
0.203111
0.479267
0.786208
0.902911
0.965272
0.998094
0.997947
0.998379
0.999924
1
1
1
0.999994
0.999823
0.999916
0.681727
0.617662
0.423895
0.51369
0.630409
0.629628
0.415924
0.330173
0.52788
0.899991
0.996058
0.999827
0.999981
0.999979
0.999988
0.999999
1
1
1
1
0.999999
0.999998
0.999948
0.999958
0.999982
0.999989
0.999985
0.999984
0.997718
0.969993
0.904026
0.927261
0.983317
0.999664
0.999886
0.999748
0.999752
0.999952
0.999999
0.999999
1
1
0.999999
0.999999
0.999962
0.999604
0.999975
0.999995
0.999998
0.999998
0.999999
0.999996
0.999988
0.998601
0.998838
0.999808
0.999998
0.999872
0.99974
0.999742
0.999947
0.999999
0.999999
1
0.999999
0.999999
0.999992
0.999706
0.999549
0.999997
0.999994
0.999994
0.999994
0.999999
0.999994
0.999992
0.999984
0.999995
0.999998
0.999998
0.999999
0.999999
1
1
1
1
1
0.999999
1
0.999962
0.999715
0.999589
0.999997
0.999995
0.999994
0.999996
0.999999
0.999999
0.999999
0.999999
0.999999
0.999998
0.999999
1
1
1
1
1
1
1
1
1
0.999976
0.999849
0.999693
1
1
0.999999
1
0.999999
1
1
0.999999
0.999999
1
1
1
1
1
1
1
1
1
1
0.999999
0.999999
0.99986
0.99971
1
1
1
0.999999
0.999999
0.999999
0.999999
0.999999
1
1
1
1
1
1
1
1
1
1
1
1
1
0.999957
0.999716
1
1
0.999999
0.999999
0.999999
1
1
1
1
1
1
1
1
1
1
1
1
1
1
1
1
1
0.99986
1
1
1
1
1
1
1
1
1
1
1
1
1
1
1
1
1
1
1
1
1
1
0.999971
1
1
1
1
1
1
1
1
1
1
1
1
1
1
1
1
1
1
1
1
1
1
1
1
1
1
1
1
1
1
1
1
1
1
1
1
1
1
1
1
1
1
1
1
1
1
1
1
1
1
1
1
1
1
1
1
1
1
1
1
1
1
1
1
1
1
1
1
1
1
1
1
1
1
1
1
1
1
1
1
1
1
1
1
1
1
1
1
1
1
1
1
1
1
1
1
1
1
1
1
1
1
1
1
1
1
1
1
1
1
1
1
1
1
1
0.999999
1
1
1
1
1
1
1
1
1
1
1
1
1
1
1
1
1
1
1
1
1
1
0.999999
1
1
1
1
1
1
1
1
1
1
1
1
1
1
1
1
1
1
1
1
1
1
0.999999
1
1
1
1
1
1
1
1
1
1
1
1
1
1
1
1
1
1
1
1
1
1
0.999998
1
1
1
1
1
1
1
1
1
1
1
1
1
1
1
1
1
1
1
1
1
1
0.999998
0.999999
1
1
1
1
1
1
1
1
1
1
1
1
1
1
1
1
1
1
1
1
1
0.999998
0.999998
1
1
1
1
1
1
1
1
1
1
1
1
1
1
1
1
1
1
1
1
1
0.999999
0.999998
0.999999
1
1
1
1
1
1
1
1
1
1
1
1
1
1
1
1
1
1
1
1
1
0.999999
0.999997
0.999998
0.999999
1
1
1
1
1
1
1
1
1
1
1
1
1
1
1
1
1
1
1
0.999999
0.999996
0.999996
0.999999
1
1
1
1
1
1
1
1
1
1
1
1
1
1
1
1
1
1
0.999981
0.999995
0.999993
0.999997
0.999999
1
1
1
1
1
1
1
1
1
1
1
1
1
1
1
1
1
1
0.99997
0.99997
0.999992
0.999999
1
1
1
1
1
1
1
1
1
1
1
1
1
1
1
1
1
1
1
0.99997
0.999976
0.999996
1
1
1
1
0.999999
1
1
1
1
1
1
1
1
1
1
1
1
1
1
1
0.999969
0.999991
1
1
1
1
0.999999
0.999999
1
1
1
1
1
1
1
1
1
1
1
1
1
1
1
0.999969
0.999999
1
1
1
1
0.999999
0.999999
1
1
1
1
1
1
1
1
1
1
1
1
1
1
1
0.999969
0.999999
1
1
1
1
0.999999
1
1
1
1
1
1
1
1
1
1
1
1
1
1
1
1
0.999983
0.999974
0.99999
0.999996
0.999998
0.999999
1
1
1
1
1
1
1
1
1
1
1
1
1
1
1
1
1
1
0.999964
0.999959
0.999959
0.999971
0.999998
1
1
1
1
1
1
1
1
1
1
1
1
1
1
1
1
1
1
0.99999
0.999967
0.999967
0.999982
1
1
1
1
1
1
1
1
1
1
1
1
1
1
1
1
1
1
1
1
0.999997
0.999998
1
1
1
1
1
1
1
1
1
1
1
1
1
1
1
1
1
1
1
1
1
1
1
1
1
1
1
1
1
1
1
1
1
1
1
1
1
1
1
1
1
1
1
1
1
1
1
1
1
1
1
1
1
1
1
1
1
1
1
1
1
1
1
1
1
0.00408893
0.00270041
0.00227164
0.00227055
0.0825567
0.0256684
0.00239328
0.00227019
0.0825359
0.0377771
0.0023991
0.00227063
0.0389992
0.0387968
0.0408859
0.0389517
0.649801
0.631159
0.596157
0.54667
0.999732
0.999751
0.999757
0.998445
0.999936
0.999936
0.999936
0.999922
0.9998
0.999745
0.999701
0.999718
0.999534
0.999531
0.99953
0.99953
0.999612
0.999715
0.999715
0.999581
0.999689
0.999715
0.999659
0.999282
0.999686
0.999714
0.999411
0.999275
0.999686
0.999713
0.999645
0.999268
0.999686
0.999688
0.999728
0.999586
0.999712
0.999696
0.999759
0.999834
0.999716
0.999774
0.999994
0.999956
0.999998
0.999997
0.999996
0.999996
1
1
1
0.999999
1
1
1
1
1
1
1
1
1
1
1
1
1
1
1
1
1
1
1
1
1
1
1
1
1
1
1
1
1
1
1
1
1
1
1
1
1
1
1
1
1
1
1
1
1
1
1
1
1
1
1
1
1
1
1
1
1
1
1
1
1
1
1
1
1
1
1
1
1
1
1
1
1
1
1
1
1
1
1
1
1
1
1
1
1
1
1
1
1
1
1
1
1
1
1
1
0.0110033
0.0250758
0.0247611
0.0236004
0.0034329
0.0161933
0.0275206
0.048082
0.0624838
0.0260809
1.75677e-06
2.08343e-06
0.000196874
0.0726445
0.102146
0.0107574
0.0444686
0.0269328
0.00200276
0.0433378
0.0747695
0.0334933
0.0128444
0.000200707
0.000206197
0.000243959
0.00451682
0.00850373
0.000229285
2.79303e-06
2.83145e-06
6.75559e-06
0.00698273
0.17659
0.148848
0.105171
0.0676076
0.00769778
0.0542554
0.0871375
0.0701362
0.0129706
0.0155624
0.00730114
0.00023133
0.000953356
1.69523e-05
6.68776e-06
1.79307e-05
2.09068e-05
1.85918e-05
0.0358586
0.194849
0.177341
0.0922612
0.0950924
0.0276676
0.0389171
0.122067
0.0906942
0.0815663
0.0163514
0.016403
0.0371199
0.037662
0.0222479
0.00279773
0.000553558
0.00548036
0.00243707
0.0826041
0.194741
0.156961
0.00373871
0.0437843
0.0488024
0.374375
0.224942
0.163786
0.0908945
0.0215599
0.0114126
0.0270407
0.0383298
0.0351743
0.00939559
0.0211339
0.060723
0.0350348
0.0422097
0.100407
0.0558748
0.00373734
0.00373893
0.0432413
0.9779
0.839455
0.530696
0.239916
0.0664344
0.00699456
0.00695365
0.0118263
0.0136049
0.00346957
0.044589
0.0861526
0.0650129
0.0158513
0.00371702
0.00371621
0.00381661
0.00706362
0.047068
0.999838
0.999889
0.951476
0.753825
0.413367
0.0942061
0.00662881
0.00663526
0.00375508
0.00181598
0.0318878
0.08632
0.0789885
0.0278897
0.00994249
0.0376174
0.024875
0.0144854
0.0470902
0.99983
0.99989
0.99989
0.987777
0.921387
0.549838
0.10428
0.00738458
0.00502176
0.00183956
0.00536707
0.0434457
0.0596114
0.0321499
0.0258485
0.074833
0.156338
0.0316841
0.0429039
0.999534
0.999693
0.999855
0.994054
0.967745
0.852303
0.168871
0.00751939
0.00535148
0.0020233
0.00346533
0.0153096
0.0414068
0.0500101
0.0469309
0.0963138
0.186604
0.111931
0.0236446
0.999505
0.999594
0.999865
0.998685
0.993817
0.587873
0.00752382
0.00718245
0.00621101
0.00429365
0.0046655
0.0642764
0.0922105
0.092211
0.0740275
0.182887
0.186592
0.16814
0.0227929
0.999282
0.999725
0.999869
0.999791
0.998887
0.622526
0.196272
0.172296
0.150166
0.0607366
0.0284293
0.0377661
0.0469967
0.0458049
0.102101
0.18687
0.18687
0.167419
0.0227921
0.999296
0.999798
0.999889
0.999875
0.990728
0.966982
0.994825
0.984703
0.919331
0.65397
0.421427
0.175686
0.0405704
0.0407776
0.0473274
0.141629
0.18687
0.18047
0.0227921
0.999279
0.999853
0.99999
0.999912
0.996147
0.998321
0.999857
0.999933
0.999616
0.989755
0.975344
0.852709
0.431134
0.076685
0.0468397
0.0502686
0.0688231
0.118967
0.136882
0.999334
0.999919
1
0.999989
0.999954
0.999958
0.999981
0.999976
0.999984
0.999984
0.999979
0.997309
0.986593
0.721488
0.28288
0.0796301
0.0405495
0.0379141
0.0377633
0.999648
0.999608
1
0.999999
1
1
0.999996
0.99998
0.999985
0.999895
0.999626
0.999913
0.99992
0.994815
0.978943
0.73763
0.466047
0.282511
0.252304
0.999707
0.999552
0.999821
1
1
1
0.999998
0.999995
0.999987
0.999968
0.99905
0.999564
0.999919
0.999922
0.9999
0.996941
0.990876
0.974813
0.950339
0.999872
0.999549
0.999554
0.999868
1
1
0.999998
0.999996
0.999996
0.999852
0.999046
0.999048
0.999318
0.999809
0.999984
0.999984
0.999993
1
1
0.999998
0.999845
0.999551
0.99957
0.999791
1
0.999998
0.999994
0.999995
0.99993
0.999423
0.99924
0.999313
0.999385
0.999936
0.999957
0.999965
0.999997
1
0.999999
0.999998
0.999867
0.999611
0.999625
0.999634
0.999751
0.999919
0.999993
0.99984
0.999833
0.999971
0.99992
0.999866
0.999896
0.99992
0.999933
0.999992
1
1
1
1
0.999957
0.999784
0.999732
0.999716
0.999715
0.99972
0.999721
0.999873
0.999991
0.999985
0.999964
0.999932
0.999928
0.999968
0.999997
1
1
1
1
1
0.999998
0.999986
0.999932
0.999883
0.999814
0.999834
0.999963
1
0.999957
0.999931
0.999931
0.99996
1
1
1
1
1
1
1
0.999999
0.999999
0.999999
0.999996
0.999974
0.999982
0.999998
1
1
0.99996
0.999968
1
1
1
0.999996
1
1
1
1
0.999999
0.999999
0.999999
0.999999
1
1
1
1
1
1
1
1
1
1
0.999992
1
1
1
1
1
0.999999
0.999999
0.999999
1
1
1
1
1
1
1
1
1
1
0.999993
1
1
1
1
1
1
1
1
1
1
1
1
1
1
1
1
1
1
0.999992
1
1
1
1
1
1
1
1
1
1
1
1
1
1
1
1
1
0.999997
0.999995
1
1
1
1
1
1
1
1
1
1
1
1
1
1
1
1
0.999999
0.999989
0.999998
1
1
1
1
1
1
1
1
1
1
1
1
1
1
1
1
0.999994
0.999989
0.999998
1
1
1
1
1
1
1
1
1
1
1
1
1
1
1
1
0.999993
0.999989
0.999998
1
1
1
1
1
1
1
1
1
1
1
1
1
1
1
1
0.999999
0.999995
0.999999
1
1
1
1
1
1
1
1
1
1
1
1
1
1
1
1
1
1
1
1
1
1
1
1
1
1
1
1
1
1
1
1
1
1
1
1
1
1
1
1
1
1
1
1
1
1
1
1
1
1
1
1
1
1
1
1
1
1
1
1
1
1
1
1
1
1
1
1
1
1
1
1
1
1
1
1
1
1
1
1
1
1
1
1
1
1
1
1
1
1
1
1
1
1
1
1
1
1
1
1
1
1
1
1
1
1
1
1
1
1
1
1
1
1
1
1
1
1
1
1
1
1
1
1
1
1
1
1
1
1
1
1
1
1
1
1
1
1
1
1
1
1
1
1
1
1
1
1
1
1
1
1
1
1
1
1
1
1
1
1
1
1
1
1
1
1
1
1
1
1
1
1
1
1
1
1
1
1
1
1
1
1
1
1
1
1
1
1
1
1
1
1
1
1
1
1
1
1
1
1
1
1
1
1
1
1
1
1
1
1
1
1
1
1
1
1
1
1
1
1
1
1
1
1
1
1
1
1
)
;

boundaryField
{
    leftWall
    {
        type            alphaContactAngle;
        thetaProperties 
6
(
(galistan air) 90 0 0 0
(oil galistan) 90 0 0 0
(water oil) 90 0 0 0
(water air) 90 0 0 0
(oil air) 90 0 0 0
(water galistan) 90 0 0 0
);
        value           nonuniform List<scalar> 
50
(
2.44049e-10
7.84639e-10
9.73266e-10
9.78046e-10
0.000109318
0.00214316
0.0012076
0.00249753
0.0786128
0.175721
0.147762
0.0239664
0.024039
0.0239664
0.0441094
0.681727
0.999958
0.999975
0.999997
0.999997
1
1
1
1
1
1
1
1
1
0.999999
0.999999
0.999999
0.999998
0.999998
0.999998
0.999999
1
1
0.999981
0.99997
0.99997
0.999969
0.999969
0.999969
0.999983
1
1
1
1
1
)
;
    }
    rightWall
    {
        type            alphaContactAngle;
        thetaProperties 
6
(
(galistan air) 90 0 0 0
(oil galistan) 90 0 0 0
(water oil) 90 0 0 0
(water air) 90 0 0 0
(oil air) 90 0 0 0
(water galistan) 90 0 0 0
);
        value           nonuniform List<scalar> 
50
(
0.00553172
0.00578719
0.0102943
0.0122704
0.00838162
0.000407858
0.000225182
0.000261649
0.00200276
0.00769778
0.0276676
0.0488024
0.0432413
0.047068
0.0470902
0.0429039
0.0236446
0.0227929
0.0227921
0.0227921
0.136882
0.0377633
0.252304
0.950339
1
1
1
1
1
0.999996
0.999992
0.999993
0.999992
0.999995
0.999998
0.999998
0.999998
0.999999
1
1
1
1
1
1
1
1
1
1
1
1
)
;
    }
    lowerWall
    {
        type            alphaContactAngle;
        thetaProperties 
6
(
(galistan air) 90 0 0 0
(oil galistan) 90 0 0 0
(water oil) 90 0 0 0
(water air) 90 0 0 0
(oil air) 90 0 0 0
(water galistan) 90 0 0 0
);
        value           nonuniform List<scalar> 
62
(
2.44049e-10
5.96567e-11
7.35028e-12
2.3065e-12
3.51818e-12
6.38182e-12
5.59481e-12
3.44504e-12
1.81291e-12
6.49716e-13
3.80158e-13
4.47059e-13
7.47666e-13
1.05774e-12
1.35006e-12
2.25513e-12
4.66201e-12
8.33506e-12
1.89949e-11
3.80547e-11
3.95886e-11
3.94879e-11
2.45344e-09
2.45344e-09
5.21327e-08
2.89782e-07
2.28312e-07
0.000304172
0.00106902
0.000958499
0.000961072
0.00408893
0.00270041
0.00227164
0.00227055
0.00136201
0.00213727
0.0082922
0.016895
0.0140167
0.00372265
0.00286121
0.00286121
0.00136201
3.2274e-05
3.21744e-05
2.57482e-05
0.000118355
0.000119023
0.00210156
0.0126483
0.0135982
0.0129471
0.0108223
0.0108228
0.0116901
0.0119632
0.00795313
0.00614382
0.00612986
0.00580987
0.00553172
)
;
    }
    atmosphere
    {
        type            inletOutlet;
        inletValue      uniform 1;
        value           nonuniform List<scalar> 
46
(
1
1
1
1
1
1
1
1
1
1
1
1
1
1
1
1
1
1
1
1
1
1
1
1
1
1
1
1
1
1
1
1
1
1
1
1
1
1
1
1
1
1
1
1
1
1
)
;
    }
    defaultFaces
    {
        type            empty;
    }
}


// ************************************************************************* //
