/*--------------------------------*- C++ -*----------------------------------*\
| =========                 |                                                 |
| \\      /  F ield         | OpenFOAM: The Open Source CFD Toolbox           |
|  \\    /   O peration     | Version:  2312                                  |
|   \\  /    A nd           | Website:  www.openfoam.com                      |
|    \\/     M anipulation  |                                                 |
\*---------------------------------------------------------------------------*/
FoamFile
{
    version     2.0;
    format      ascii;
    arch        "LSB;label=32;scalar=64";
    class       surfaceScalarField;
    location    "1.8";
    object      phi;
}
// * * * * * * * * * * * * * * * * * * * * * * * * * * * * * * * * * * * * * //

dimensions      [0 3 -1 0 0 0 0];

oriented        oriented;

internalField   nonuniform List<scalar> 
4432
(
1.89131e-06
-1.89131e-06
1.77002e-06
1.21296e-07
1.26016e-06
5.09855e-07
3.03253e-07
9.5691e-07
-8.08319e-07
1.11157e-06
-2.04358e-06
1.23526e-06
-3.2376e-06
1.19402e-06
-4.30031e-06
1.06271e-06
-5.26751e-06
9.67207e-07
-6.24299e-06
9.75477e-07
-7.32258e-06
1.07959e-06
-8.40543e-06
1.08285e-06
-9.32476e-06
9.19323e-07
-9.92649e-06
6.01736e-07
-1.01219e-05
1.95436e-07
-9.89242e-06
-2.29509e-07
-9.26108e-06
-6.31341e-07
-8.27628e-06
-9.84805e-07
-6.99213e-06
-1.28415e-06
-5.4662e-06
-1.52594e-06
-3.77385e-06
-1.69235e-06
-2.02391e-06
-1.74994e-06
-2.02391e-06
5.08825e-07
-2.40014e-06
5.80239e-07
4.98823e-08
2.23068e-07
8.67027e-07
-4.14905e-07
1.59488e-06
-1.35482e-06
2.05148e-06
-2.51326e-06
2.3937e-06
-3.66595e-06
2.3467e-06
-4.68797e-06
2.08474e-06
-5.61599e-06
1.89522e-06
-6.55966e-06
1.91916e-06
-7.62029e-06
2.14022e-06
-8.70194e-06
2.1645e-06
-9.62531e-06
1.8427e-06
-1.02302e-05
1.20667e-06
-1.04254e-05
3.9064e-07
-1.01927e-05
-4.62223e-07
-9.55169e-06
-1.27239e-06
-8.55578e-06
-1.98071e-06
-7.25818e-06
-2.58175e-06
-5.71758e-06
-3.06653e-06
-4.01119e-06
-3.39874e-06
-2.27544e-06
-3.48568e-06
-4.29935e-06
-6.69451e-07
-1.73069e-06
-6.43699e-07
2.41299e-08
-8.69328e-07
1.09266e-06
-1.31654e-06
2.04209e-06
-2.1418e-06
2.87674e-06
-3.23558e-06
3.48748e-06
-4.36245e-06
3.47357e-06
-5.30833e-06
3.03062e-06
-6.12889e-06
2.71578e-06
-6.9616e-06
2.75187e-06
-7.98337e-06
3.16199e-06
-9.08225e-06
3.26338e-06
-1.0041e-05
2.80141e-06
-1.0673e-05
1.83874e-06
-1.08798e-05
5.97361e-07
-1.06268e-05
-7.1521e-07
-9.94164e-06
-1.95752e-06
-8.87109e-06
-3.05126e-06
-7.47024e-06
-3.98259e-06
-5.82542e-06
-4.71135e-06
-4.03422e-06
-5.18994e-06
-2.23026e-06
-5.28964e-06
-6.5296e-06
-1.56129e-06
-1.69396e-07
-1.83622e-06
2.99062e-07
-1.8021e-06
1.05853e-06
-2.06444e-06
2.30443e-06
-2.7425e-06
3.5548e-06
-3.78179e-06
4.52677e-06
-4.90769e-06
4.59947e-06
-5.77507e-06
3.89799e-06
-6.45439e-06
3.3951e-06
-7.14907e-06
3.44656e-06
-8.13043e-06
4.14336e-06
-9.28775e-06
4.4207e-06
-1.03347e-05
3.84832e-06
-1.10458e-05
2.54987e-06
-1.12975e-05
8.4909e-07
-1.1034e-05
-9.78745e-07
-1.0234e-05
-2.75754e-06
-8.96696e-06
-4.3183e-06
-7.35328e-06
-5.59628e-06
-5.55214e-06
-6.51249e-06
-3.68763e-06
-7.05445e-06
-1.82062e-06
-7.15664e-06
-8.35022e-06
-1.51783e-06
1.34844e-06
-1.49468e-06
2.75913e-07
-1.1838e-06
7.47653e-07
-1.67854e-06
2.79916e-06
-2.63116e-06
4.50743e-06
-3.8227e-06
5.7183e-06
-5.10298e-06
5.87976e-06
-5.9326e-06
4.72762e-06
-6.45538e-06
3.91788e-06
-6.99638e-06
3.98756e-06
-7.96745e-06
5.11443e-06
-9.2427e-06
5.69595e-06
-1.04331e-05
5.03876e-06
-1.12241e-05
3.34086e-06
-1.14701e-05
1.09508e-06
-1.10771e-05
-1.37177e-06
-1.00537e-05
-3.78091e-06
-8.52057e-06
-5.85146e-06
-6.68553e-06
-7.43132e-06
-4.80099e-06
-8.39703e-06
-2.98787e-06
-8.86757e-06
-1.2022e-06
-8.94232e-06
-9.55242e-06
2.92926e-07
1.0555e-06
-4.49812e-07
1.01865e-06
-1.54464e-06
1.84248e-06
-3.1184e-06
4.37292e-06
-4.65119e-06
6.04021e-06
-5.75271e-06
6.81982e-06
-6.64027e-06
6.76732e-06
-6.92904e-06
5.0164e-06
-6.6615e-06
3.65034e-06
-7.32011e-06
4.64617e-06
-8.28505e-06
6.07938e-06
-9.39858e-06
6.80949e-06
-1.04035e-05
6.04371e-06
-1.09398e-05
3.87713e-06
-1.09234e-05
1.07863e-06
-1.04793e-05
-1.81584e-06
-9.35644e-06
-4.90375e-06
-7.70051e-06
-7.5074e-06
-5.85803e-06
-9.27381e-06
-4.07172e-06
-1.01833e-05
-2.39943e-06
-1.05399e-05
-7.82617e-07
-1.05591e-05
-1.0335e-05
3.20337e-06
-2.14787e-06
-5.306e-06
9.52801e-06
-1.41007e-05
1.06372e-05
-1.96191e-05
9.8913e-06
-2.15253e-05
7.9464e-06
-2.064e-05
5.93458e-06
-1.84649e-05
4.59223e-06
-1.6707e-05
3.25845e-06
-1.35281e-05
4.71431e-07
-1.08885e-05
2.00658e-06
-1.01053e-05
5.29615e-06
-1.05018e-05
7.20599e-06
-1.13611e-05
6.90309e-06
-1.19897e-05
4.50572e-06
-1.19524e-05
1.04126e-06
-1.11036e-05
-2.66462e-06
-9.30162e-06
-6.70571e-06
-6.77377e-06
-1.00353e-05
-4.33508e-06
-1.17125e-05
-2.20586e-06
-1.23126e-05
-5.19769e-07
-1.22259e-05
5.61943e-07
-1.16408e-05
-9.77307e-06
6.22668e-06
-8.37457e-06
-7.55134e-07
1.65098e-05
-1.28085e-05
2.26906e-05
-2.04064e-05
1.74892e-05
-2.5217e-05
1.2757e-05
-2.53724e-05
6.08997e-06
-2.28732e-05
2.09306e-06
-2.00401e-05
4.2535e-07
-1.74255e-05
-2.14315e-06
-1.47989e-05
-6.20018e-07
-1.33501e-05
3.8473e-06
-1.21804e-05
6.03632e-06
-1.16657e-05
6.3884e-06
-1.14859e-05
4.32592e-06
-1.10475e-05
6.02809e-07
-9.81409e-06
-3.89799e-06
-7.34768e-06
-9.1721e-06
-3.15026e-06
-1.42327e-05
3.79482e-07
-1.52422e-05
2.72763e-06
-1.46607e-05
4.2723e-06
-1.37706e-05
4.32394e-06
-1.16924e-05
-5.44912e-06
-9.0374e-06
9.0374e-06
-1.53517e-05
6.31428e-06
-1.84912e-05
3.13955e-06
-2.0251e-05
1.75979e-06
-1.92951e-05
-9.55908e-07
-1.55268e-05
-3.76833e-06
-1.26556e-05
-2.87114e-06
-1.24406e-05
-2.14978e-07
-1.18307e-05
-6.0999e-07
-1.02008e-05
-1.62987e-06
-8.42267e-06
-1.77811e-06
-7.16083e-06
-1.26184e-06
-6.36943e-06
-7.91396e-07
-5.78168e-06
-5.87754e-07
-3.90038e-06
-1.8813e-06
-8.54523e-07
-3.04586e-06
1.82459e-06
-2.67911e-06
2.86673e-06
-1.04214e-06
2.86673e-06
-8.5425e-07
9.89167e-06
3.21857e-07
5.13818e-06
-1.38608e-06
4.8475e-06
-5.23459e-06
5.60829e-06
-8.74374e-06
2.55325e-06
-7.75313e-06
-4.75894e-06
-4.93522e-06
-5.68905e-06
-4.155e-06
-9.95197e-07
-4.00306e-06
-7.61934e-07
-3.63538e-06
-1.99754e-06
-4.50044e-06
-9.13052e-07
-5.49913e-06
-2.63154e-07
-4.43648e-06
-1.85405e-06
-3.49058e-06
-1.53365e-06
-1.75954e-06
-3.61234e-06
-5.62381e-07
-4.24302e-06
9.59277e-08
-3.33742e-06
6.26909e-07
-1.57313e-06
3.49364e-06
5.01082e-06
4.88086e-06
9.17983e-06
9.69171e-07
1.28209e-05
1.20645e-06
9.49e-06
8.93917e-06
8.10516e-06
3.93809e-06
7.39358e-06
-4.04736e-06
7.99515e-06
-6.29062e-06
1.00404e-05
-3.0404e-06
9.5908e-06
-3.12377e-07
7.99103e-06
-3.97771e-07
3.72705e-06
3.35093e-06
-1.18888e-06
4.65278e-06
-1.37989e-06
-1.66303e-06
9.03321e-08
-3.00387e-06
2.53506e-06
-6.05707e-06
3.39545e-06
-5.10341e-06
4.68653e-06
-4.6285e-06
3.32859e-06
-2.1519e-07
6.82223e-06
1.73341e-06
3.14747e-06
1.0667e-05
-7.96438e-06
1.84392e-05
-6.56582e-06
1.98174e-05
7.56105e-06
2.05044e-05
3.2511e-06
1.80962e-05
-1.63915e-06
1.54373e-05
-3.63177e-06
1.45858e-05
-2.18883e-06
1.36032e-05
6.70189e-07
1.14214e-05
1.78407e-06
8.25571e-06
6.51661e-06
1.76289e-06
1.11456e-05
-2.53228e-06
2.63215e-06
-4.25863e-06
-1.27751e-06
1.48041e-06
-1.17961e-05
6.54773e-06
-1.01707e-05
1.08936e-05
-8.97434e-06
7.83486e-06
2.84353e-06
1.46571e-05
9.664e-07
2.18107e-06
1.38166e-05
-2.08145e-05
2.14369e-05
-1.41862e-05
2.8168e-05
8.30011e-07
2.77454e-05
3.67366e-06
2.24308e-05
3.67541e-06
1.51723e-05
3.62675e-06
1.22165e-05
7.66996e-07
1.22073e-05
6.79343e-07
4.95708e-06
9.03433e-06
-5.24893e-06
1.67226e-05
-8.36368e-06
1.42604e-05
-6.50601e-06
7.74486e-07
-9.9894e-06
2.20589e-06
-3.02735e-06
-1.87581e-05
-2.14175e-06
-1.10563e-05
-7.11286e-07
-1.04048e-05
1.81996e-06
3.1229e-07
1.64771e-05
1.25854e-05
-1.04043e-05
1.77372e-05
-2.59664e-05
2.28633e-05
-1.93122e-05
3.2389e-05
-8.69566e-06
3.11474e-05
4.91527e-06
2.2056e-05
1.27668e-05
1.37142e-05
1.19686e-05
1.20591e-05
2.42211e-06
8.32804e-06
4.41038e-06
-5.67962e-06
2.3042e-05
-1.36046e-05
2.46476e-05
-9.40419e-06
1.006e-05
-5.51385e-06
-3.11584e-06
-6.5239e-06
3.21596e-06
-4.84932e-06
-2.04327e-05
-8.52304e-06
-7.3826e-06
-8.26679e-06
-1.0661e-05
-2.99131e-06
-4.96318e-06
1.34858e-05
1.91647e-05
-2.9569e-05
1.96057e-05
-2.64073e-05
2.05912e-05
-2.02976e-05
2.65713e-05
-1.46758e-05
2.31846e-05
8.30199e-06
1.32811e-05
2.26702e-05
1.04493e-05
1.48004e-05
9.2915e-06
3.57993e-06
-1.95415e-06
1.5656e-05
-1.41259e-05
3.52137e-05
-1.39335e-05
2.44552e-05
-8.34525e-06
4.47177e-06
-4.32635e-06
-7.13473e-06
-3.66849e-06
2.55811e-06
-7.07482e-06
-1.70264e-05
-8.64188e-06
-5.81552e-06
-8.65358e-06
-1.06493e-05
-5.03136e-06
-8.58539e-06
8.45442e-06
1.80417e-05
-4.76107e-05
1.68267e-05
-2.51923e-05
1.32029e-05
-1.66738e-05
1.61602e-05
-1.76331e-05
1.21877e-05
1.22745e-05
6.55159e-06
2.83064e-05
6.00922e-06
1.53428e-05
-1.49924e-06
1.10884e-05
-1.45223e-05
2.86791e-05
-1.66455e-05
3.7337e-05
-1.16987e-05
1.95084e-05
-6.01009e-06
-1.21685e-06
-2.3357e-06
-1.08091e-05
-1.79324e-06
2.01566e-06
-9.30224e-06
-9.51736e-06
-8.83592e-06
-6.28184e-06
-7.8833e-06
-1.16019e-05
-6.09136e-06
-1.03773e-05
2.36306e-06
1.12988e-05
-1.96734e-05
7.69488e-06
2.01137e-05
-1.4605e-06
3.18459e-05
-1.39604e-05
2.99891e-05
-2.33811e-05
2.21777e-05
-2.93893e-05
1.20981e-05
-3.40997e-05
6.80355e-06
-3.72934e-05
3.61905e-06
-4.03686e-05
9.3205e-07
-4.00109e-05
-9.77775e-07
-3.51481e-05
-1.01543e-06
-2.86942e-05
-4.17676e-07
-2.24355e-05
1.29708e-07
-1.75656e-05
-5.43911e-07
-1.27141e-05
-4.24872e-06
-5.0732e-06
-1.15389e-05
5.83612e-06
-2.00814e-05
1.4872e-05
-2.32685e-05
2.08706e-05
-2.12408e-05
2.45848e-05
-1.83749e-05
2.53282e-05
-1.4514e-05
2.29165e-05
-9.28081e-06
-1.32305e-06
1.87905e-05
9.21571e-06
-2.88891e-05
1.80581e-06
2.75236e-05
3.02454e-06
3.06272e-05
5.96496e-06
2.70486e-05
6.94301e-06
2.11997e-05
3.39622e-06
1.56449e-05
-1.26559e-06
1.14654e-05
-7.18752e-06
9.54097e-06
-1.4719e-05
8.46353e-06
-2.12528e-05
5.556e-06
-2.37934e-05
1.52522e-06
-2.1345e-05
-2.86608e-06
-1.37599e-05
-7.45543e-06
-3.46272e-06
-1.08411e-05
9.20286e-06
-1.69143e-05
2.18901e-05
-2.42261e-05
3.07434e-05
-2.89346e-05
3.69011e-05
-2.94262e-05
4.30115e-05
-2.73513e-05
4.93451e-05
-2.47084e-05
5.54359e-05
-2.06048e-05
6.21249e-05
-1.59699e-05
-1.01022e-05
7.0904e-05
1.99384e-06
-3.08829e-05
-1.34605e-05
4.2978e-05
-1.03458e-05
2.75125e-05
-8.01601e-07
1.75044e-05
1.29863e-05
7.41178e-06
2.05415e-05
8.08971e-06
2.72949e-05
4.71192e-06
2.8616e-05
8.21986e-06
2.51186e-05
1.19609e-05
1.91217e-05
1.15529e-05
1.45143e-05
6.13264e-06
1.39398e-05
-2.29156e-06
1.88225e-05
-1.23382e-05
2.76526e-05
-1.96712e-05
3.73656e-05
-2.66273e-05
4.53378e-05
-3.21984e-05
5.16851e-05
-3.52819e-05
5.73286e-05
-3.50697e-05
6.26153e-05
-3.26381e-05
6.72406e-05
-2.93337e-05
7.13719e-05
-2.47362e-05
7.48053e-05
-1.94032e-05
-1.35262e-05
7.82293e-05
-8.21044e-07
-3.00619e-05
-1.11284e-05
5.32854e-05
-1.93258e-05
3.57099e-05
-1.66361e-05
1.48147e-05
2.04581e-06
-1.12702e-05
2.00014e-05
-9.86591e-06
3.41678e-05
-9.45445e-06
4.56341e-05
-3.24638e-06
5.25554e-05
5.03959e-06
5.45357e-05
9.57254e-06
5.43946e-05
6.27372e-06
5.40096e-05
-1.90652e-06
5.45084e-05
-1.28369e-05
5.70819e-05
-2.22446e-05
6.05529e-05
-3.00983e-05
6.46979e-05
-3.63434e-05
6.95304e-05
-4.01144e-05
7.48533e-05
-4.03926e-05
7.99352e-05
-3.772e-05
8.3963e-05
-3.33615e-05
8.70931e-05
-2.78663e-05
8.88922e-05
-2.12024e-05
-1.43882e-05
8.97542e-05
-9.57821e-07
-2.91041e-05
1.21009e-05
4.02267e-05
2.24924e-06
4.55616e-05
1.96276e-06
1.51012e-05
1.00859e-05
-1.93933e-05
2.41537e-05
-2.39337e-05
3.71294e-05
-2.24301e-05
4.34189e-05
-9.53589e-06
4.55958e-05
2.8627e-06
4.87314e-05
6.43691e-06
5.08625e-05
4.14261e-06
5.24592e-05
-3.50317e-06
5.35836e-05
-1.39613e-05
5.6399e-05
-2.50601e-05
6.12687e-05
-3.4968e-05
6.7513e-05
-4.25877e-05
7.45275e-05
-4.71289e-05
8.10299e-05
-4.68951e-05
8.65959e-05
-4.32859e-05
9.14728e-05
-3.82384e-05
9.48768e-05
-3.12703e-05
9.68493e-05
-2.31751e-05
-1.66496e-05
9.91107e-05
-6.57532e-06
-2.25288e-05
1.85436e-05
1.51077e-05
2.41736e-05
3.99315e-05
3.03326e-05
8.94223e-06
2.74239e-05
-1.64847e-05
2.75135e-05
-2.40232e-05
2.66359e-05
-2.15526e-05
1.92076e-05
-2.10758e-06
1.16699e-05
1.04004e-05
9.6064e-06
8.50036e-06
1.2937e-05
8.12009e-07
1.96755e-05
-1.02417e-05
2.92727e-05
-2.35586e-05
4.05541e-05
-3.63415e-05
5.28067e-05
-4.72205e-05
6.57107e-05
-5.54916e-05
7.91305e-05
-6.05483e-05
8.61748e-05
-5.3939e-05
8.97813e-05
-4.68922e-05
9.64757e-05
-4.4933e-05
8.68784e-05
-2.16737e-05
7.53804e-05
-1.16777e-05
-1.14197e-05
7.01499e-05
-1.34638e-05
-9.06498e-06
3.36422e-06
-1.72026e-06
2.48198e-05
1.84759e-05
3.65044e-05
-2.74235e-06
3.17993e-05
-1.17795e-05
2.20518e-05
-1.42758e-05
1.45477e-05
-1.40485e-05
9.54401e-06
2.89615e-06
4.20224e-06
1.57422e-05
-4.41827e-06
1.71209e-05
-1.17369e-05
8.13068e-06
2.85925e-06
-2.48383e-05
3.06907e-05
-5.13901e-05
3.8107e-05
-4.37579e-05
4.30764e-05
-5.21901e-05
4.60519e-05
-5.84674e-05
3.99503e-05
-5.44469e-05
3.78098e-05
-5.17987e-05
2.96358e-05
-3.87184e-05
9.91748e-06
-2.52149e-05
-6.73086e-08
-1.16894e-05
-1.0281e-05
-1.46464e-06
2.13297e-06
-2.38343e-05
-1.21507e-05
3.0858e-06
-7.61891e-06
-6.25195e-06
2.0719e-05
-9.862e-06
3.41499e-05
-1.61731e-05
2.75223e-05
-5.15192e-06
1.6904e-05
-3.65738e-06
2.1329e-05
-1.84736e-05
3.17588e-05
-7.53366e-06
5.70857e-05
-9.58468e-06
7.61165e-05
-1.90988e-06
6.07786e-05
2.34679e-05
3.34434e-05
2.49666e-06
1.54888e-05
-3.34356e-05
1.66591e-05
-4.49286e-05
9.501e-06
-4.50324e-05
-2.43397e-06
-4.65329e-05
-1.2701e-05
-4.41805e-05
-2.49781e-05
-3.95221e-05
-3.66166e-05
-2.70803e-05
-5.0871e-05
-1.09606e-05
-6.61975e-05
3.63689e-06
-7.87531e-05
1.10909e-05
4.49057e-06
-8.1111e-05
2.20295e-07
2.86574e-06
3.48515e-07
-6.37991e-06
1.02102e-05
-1.97233e-05
1.17459e-06
-7.13765e-06
-1.87199e-05
1.4743e-05
-1.39043e-05
-8.47346e-06
2.20793e-05
-5.44572e-05
4.71732e-05
-3.26275e-05
7.19429e-05
-3.43542e-05
6.02032e-05
9.82979e-06
3.62539e-05
4.74172e-05
2.85772e-05
1.01735e-05
2.15986e-05
-2.64571e-05
1.57424e-05
-3.90725e-05
5.62242e-06
-3.49126e-05
-7.55551e-06
-3.3355e-05
-2.01792e-05
-3.15569e-05
-3.43041e-05
-2.53972e-05
-4.89055e-05
-1.24791e-05
-6.28604e-05
2.99418e-06
-7.45705e-05
1.53469e-05
-7.55598e-05
1.20799e-05
-3.79107e-06
-6.72781e-05
1.12542e-05
-8.38824e-06
1.78757e-05
-1.30012e-05
2.13322e-05
-2.31796e-05
3.21024e-05
-1.79076e-05
5.33054e-05
-6.46031e-06
5.54767e-05
-1.06448e-05
3.05909e-05
-2.95714e-05
2.97842e-05
-3.18207e-05
1.16731e-05
-1.62431e-05
-1.27019e-05
3.42047e-05
2.83771e-06
3.18778e-05
1.76416e-05
-4.63016e-06
1.73896e-05
-2.6205e-05
9.57718e-06
-3.12602e-05
-4.85771e-07
-2.48497e-05
-1.21206e-05
-2.17203e-05
-2.45882e-05
-1.90894e-05
-3.7976e-05
-1.20096e-05
-5.05561e-05
1.0098e-07
-6.08051e-05
1.3243e-05
-6.51806e-05
1.97222e-05
-5.97314e-05
6.63078e-06
-9.89354e-06
-5.36292e-05
1.0355e-05
-1.87431e-05
1.77848e-05
-2.04308e-05
1.84833e-05
-2.38779e-05
2.29485e-05
-2.23727e-05
3.54821e-05
-1.89938e-05
3.89638e-05
-1.41263e-05
1.05423e-05
-1.14981e-06
-1.68631e-05
-4.41524e-06
-3.97657e-05
6.65948e-06
-2.79706e-05
2.24096e-05
3.13912e-07
3.59339e-06
1.06485e-05
-1.49647e-05
7.5474e-06
-2.31039e-05
-1.71207e-06
-2.20007e-05
-1.0463e-05
-1.60988e-05
-1.96094e-05
-1.2574e-05
-2.9904e-05
-8.79476e-06
-4.0217e-05
-1.6967e-06
-4.83486e-05
8.23248e-06
-5.26461e-05
1.75404e-05
-5.19715e-05
1.90475e-05
-4.89701e-05
3.62905e-06
-1.20645e-05
-4.67993e-05
9.58122e-06
-2.83242e-05
1.47064e-05
-2.55559e-05
1.48814e-05
-2.40529e-05
1.28379e-05
-2.03291e-05
8.59756e-06
-1.47533e-05
2.16166e-06
-7.69026e-06
-1.13101e-05
1.23221e-05
-2.9775e-05
1.40497e-05
-3.02674e-05
7.15186e-06
-1.04531e-05
2.59548e-06
3.41185e-06
-1.02715e-05
3.25249e-06
-1.48053e-05
-4.15998e-06
-1.56914e-05
-1.3298e-05
-1.28627e-05
-2.04976e-05
-8.89924e-06
-2.71945e-05
-5.87714e-06
-3.42887e-05
-1.70065e-06
-4.05191e-05
4.53364e-06
-4.43168e-05
1.20302e-05
-4.47673e-05
1.79908e-05
-4.2973e-05
1.72532e-05
-4.31313e-05
3.7876e-06
-1.19629e-05
-4.32331e-05
4.72354e-06
-3.30478e-05
6.46929e-06
-2.73016e-05
4.9911e-06
-2.25747e-05
1.23457e-06
-1.65726e-05
-5.14088e-06
-8.37788e-06
-1.27106e-05
-1.20452e-07
-1.65549e-05
1.61664e-05
-1.76045e-05
1.50995e-05
-9.62758e-06
-8.2507e-07
-1.77604e-06
-5.25603e-06
-3.70989e-06
-8.33758e-06
-9.84271e-06
-8.67246e-06
-1.73314e-05
-8.20268e-06
-2.35247e-05
-6.66941e-06
-2.78614e-05
-4.56259e-06
-3.19685e-05
-1.77006e-06
-3.59013e-05
2.23204e-06
-3.88699e-05
7.50221e-06
-3.99562e-05
1.31164e-05
-3.90652e-05
1.70999e-05
-3.77837e-05
1.59719e-05
-3.96153e-05
5.61902e-06
-9.18765e-06
-4.23906e-05
-1.03043e-06
-3.20173e-05
-3.43936e-06
-2.48927e-05
-7.63489e-06
-1.83792e-05
-1.23886e-05
-1.18189e-05
-1.64132e-05
-4.35325e-06
-1.99342e-05
3.4005e-06
-1.65382e-05
1.27704e-05
-1.10733e-05
9.63458e-06
-1.09114e-05
-9.87022e-07
-1.44192e-05
-1.74819e-06
-1.93234e-05
-3.43333e-06
-2.33905e-05
-4.60536e-06
-2.65532e-05
-5.03998e-06
-2.89174e-05
-4.30528e-06
-3.0977e-05
-2.50296e-06
-3.30147e-05
2.67616e-07
-3.48028e-05
4.02009e-06
-3.58282e-05
8.52759e-06
-3.57491e-05
1.30373e-05
-3.47306e-05
1.60814e-05
-3.41217e-05
1.5363e-05
-3.7094e-05
8.59166e-06
-2.89705e-06
-4.3385e-05
-6.10572e-06
-2.59117e-05
-1.28789e-05
-1.81196e-05
-1.97665e-05
-1.14916e-05
-2.57928e-05
-5.79269e-06
-2.9815e-05
-3.31084e-07
-3.09758e-05
4.56123e-06
-2.72996e-05
9.09423e-06
-2.49582e-05
7.29317e-06
-2.78758e-05
1.93066e-06
-2.87456e-05
-8.78419e-07
-2.89989e-05
-3.18004e-06
-2.91783e-05
-4.426e-06
-2.96539e-05
-4.56433e-06
-3.0317e-05
-3.6422e-06
-3.10485e-05
-1.77152e-06
-3.17515e-05
9.706e-07
-3.22086e-05
4.4771e-06
-3.22073e-05
8.52632e-06
-3.16152e-05
1.24452e-05
-3.07245e-05
1.51909e-05
-3.06543e-05
1.52931e-05
-3.35437e-05
1.14809e-05
4.70881e-06
-4.11498e-05
-1.08312e-05
-1.50805e-05
-2.14135e-05
-7.53734e-06
-3.07551e-05
-2.15011e-06
-3.77665e-05
1.21861e-06
-4.14749e-05
3.37721e-06
-4.19738e-05
5.06008e-06
-3.89766e-05
6.09706e-06
-3.58125e-05
4.12899e-06
-3.40734e-05
1.91508e-07
-3.23162e-05
-2.63559e-06
-3.10183e-05
-4.47801e-06
-3.024e-05
-5.20432e-06
-2.98808e-05
-4.92351e-06
-2.97648e-05
-3.75822e-06
-2.973e-05
-1.80633e-06
-2.9632e-05
8.72508e-07
-2.9341e-05
4.18609e-06
-2.87391e-05
7.92445e-06
-2.7868e-05
1.15741e-05
-2.70336e-05
1.43566e-05
-2.70256e-05
1.52852e-05
-2.92471e-05
1.37027e-05
1.05681e-05
-3.51068e-05
-1.40628e-05
-1.01788e-06
-2.63261e-05
4.72578e-06
-3.53874e-05
6.91109e-06
-4.11765e-05
7.00763e-06
-4.39451e-05
6.14577e-06
-4.3842e-05
4.95688e-06
-4.10119e-05
3.26692e-06
-3.73105e-05
4.27561e-07
-3.44807e-05
-2.63838e-06
-3.22506e-05
-4.86571e-06
-3.06774e-05
-6.05128e-06
-2.9632e-05
-6.24975e-06
-2.89523e-05
-5.60318e-06
-2.84699e-05
-4.24069e-06
-2.8031e-05
-2.24527e-06
-2.74998e-05
3.41323e-07
-2.67796e-05
3.46587e-06
-2.58303e-05
6.97507e-06
-2.47689e-05
1.05127e-05
-2.3924e-05
1.35118e-05
-2.39242e-05
1.52856e-05
-2.56676e-05
1.54461e-05
1.45716e-05
-2.96712e-05
-1.46288e-05
1.36107e-05
-2.57422e-05
1.5839e-05
-3.34207e-05
1.45895e-05
-3.82492e-05
1.1836e-05
-4.0506e-05
8.40249e-06
-4.03268e-05
4.77765e-06
-3.82348e-05
1.17478e-06
-3.54999e-05
-2.30741e-06
-3.2998e-05
-5.14033e-06
-3.09715e-05
-6.89225e-06
-2.94584e-05
-7.56445e-06
-2.83719e-05
-7.33627e-06
-2.75784e-05
-6.39674e-06
-2.6936e-05
-4.88308e-06
-2.63092e-05
-2.87213e-06
-2.55756e-05
-3.92327e-07
-2.46465e-05
2.53675e-06
-2.3508e-05
5.83662e-06
-2.22765e-05
9.28121e-06
-2.12733e-05
1.25088e-05
-2.10572e-05
1.50696e-05
-2.23e-05
1.66891e-05
1.76224e-05
-2.5351e-05
-1.27369e-05
2.63475e-05
-2.24164e-05
2.55183e-05
-2.94658e-05
2.16387e-05
-3.40036e-05
1.63737e-05
-3.61909e-05
1.05897e-05
-3.63271e-05
4.91373e-06
-3.50136e-05
-1.38859e-07
-3.30255e-05
-4.29557e-06
-3.09938e-05
-7.17208e-06
-2.92371e-05
-8.64899e-06
-2.78529e-05
-8.94877e-06
-2.68014e-05
-8.38781e-06
-2.59857e-05
-7.21246e-06
-2.52924e-05
-5.57646e-06
-2.4606e-05
-3.55861e-06
-2.3817e-05
-1.18131e-06
-2.28398e-05
1.55948e-06
-2.16403e-05
4.63716e-06
-2.03011e-05
7.94206e-06
-1.90428e-05
1.12506e-05
-1.82747e-05
1.43017e-05
-1.8515e-05
1.69295e-05
1.91531e-05
-2.00459e-05
-1.05094e-05
3.68566e-05
-1.91495e-05
3.41583e-05
-2.56529e-05
2.8142e-05
-2.99812e-05
2.07018e-05
-3.22464e-05
1.28547e-05
-3.27478e-05
5.41495e-06
-3.19817e-05
-9.04992e-07
-3.05087e-05
-5.76872e-06
-2.88401e-05
-8.84078e-06
-2.73082e-05
-1.01809e-05
-2.60449e-05
-1.02122e-05
-2.50458e-05
-9.38693e-06
-2.42446e-05
-8.01369e-06
-2.35525e-05
-6.26862e-06
-2.28731e-05
-4.23804e-06
-2.21098e-05
-1.94463e-06
-2.11766e-05
6.26243e-07
-2.00241e-05
3.48457e-06
-1.86798e-05
6.59781e-06
-1.72408e-05
9.8118e-06
-1.59521e-05
1.30131e-05
-1.51198e-05
1.60973e-05
1.90127e-05
-1.49797e-05
-8.67941e-06
4.55358e-05
-1.62923e-05
4.1771e-05
-2.22591e-05
3.41085e-05
-2.63977e-05
2.48403e-05
-2.87541e-05
1.5211e-05
-2.9563e-05
6.22371e-06
-2.91889e-05
-1.27918e-06
-2.80732e-05
-6.88457e-06
-2.66611e-05
-1.02529e-05
-2.52918e-05
-1.15503e-05
-2.41192e-05
-1.13849e-05
-2.31648e-05
-1.03414e-05
-2.23858e-05
-8.79281e-06
-2.17127e-05
-6.94172e-06
-2.10656e-05
-4.88518e-06
-2.036e-05
-2.65033e-06
-1.95147e-05
-2.19095e-07
-1.84692e-05
2.43904e-06
-1.71879e-05
5.31657e-06
-1.57198e-05
8.34382e-06
-1.41412e-05
1.14346e-05
-1.2573e-05
1.45291e-05
1.75791e-05
-1.11396e-05
-7.14368e-06
5.26793e-05
-1.3756e-05
4.83831e-05
-1.91844e-05
3.95367e-05
-2.31418e-05
2.87976e-05
-2.5581e-05
1.765e-05
-2.6636e-05
7.27855e-06
-2.65688e-05
-1.34653e-06
-2.57173e-05
-7.73613e-06
-2.44884e-05
-1.1482e-05
-2.32317e-05
-1.28071e-05
-2.21194e-05
-1.24972e-05
-2.11951e-05
-1.12657e-05
-2.0434e-05
-9.55398e-06
-1.97813e-05
-7.59448e-06
-1.91695e-05
-5.49705e-06
-1.85243e-05
-3.2956e-06
-1.77699e-05
-9.73592e-07
-1.68396e-05
1.50878e-06
-1.56865e-05
4.16338e-06
-1.42979e-05
6.95533e-06
-1.26762e-05
9.81297e-06
-1.0828e-05
1.2681e-05
1.55237e-05
-8.77288e-06
-5.67611e-06
5.83552e-05
-1.13024e-05
5.40092e-05
-1.62057e-05
4.44398e-05
-1.99998e-05
3.25915e-05
-2.25254e-05
2.01754e-05
-2.38194e-05
8.5724e-06
-2.40186e-05
-1.14741e-06
-2.33885e-05
-8.36642e-06
-2.23067e-05
-1.25638e-05
-2.11352e-05
-1.39787e-05
-2.00641e-05
-1.35684e-05
-1.91594e-05
-1.21706e-05
-1.84119e-05
-1.03015e-05
-1.77775e-05
-8.22893e-06
-1.71977e-05
-6.07697e-06
-1.66062e-05
-3.88712e-06
-1.59329e-05
-1.64699e-06
-1.51094e-05
6.85262e-07
-1.40855e-05
3.13945e-06
-1.28285e-05
5.69846e-06
-1.13087e-05
8.29322e-06
-9.48638e-06
1.08586e-05
1.33527e-05
-7.31561e-06
-4.12177e-06
6.24766e-05
-8.70954e-06
5.85967e-05
-1.3079e-05
4.8809e-05
-1.67365e-05
3.62488e-05
-1.93863e-05
2.2825e-05
-2.09367e-05
1.01227e-05
-2.14127e-05
-6.71551e-07
-2.1005e-05
-8.77424e-06
-2.0072e-05
-1.3497e-05
-1.89843e-05
-1.50666e-05
-1.79518e-05
-1.46011e-05
-1.70663e-05
-1.30562e-05
-1.63351e-05
-1.10328e-05
-1.57218e-05
-8.8423e-06
-1.5174e-05
-6.62484e-06
-1.46316e-05
-4.42958e-06
-1.40289e-05
-2.24973e-06
-1.32995e-05
-4.42765e-08
-1.2391e-05
2.231e-06
-1.12635e-05
4.57099e-06
-9.8925e-06
6.92222e-06
-8.23323e-06
9.1994e-06
1.13481e-05
-6.22887e-06
-2.39551e-06
6.48719e-05
-5.81259e-06
6.20135e-05
-9.58517e-06
5.25814e-05
-1.31217e-05
3.97851e-05
-1.59495e-05
2.56526e-05
-1.7827e-05
1.20001e-05
-1.86174e-05
1.18718e-07
-1.84669e-05
-8.92492e-06
-1.77194e-05
-1.42446e-05
-1.67411e-05
-1.60449e-05
-1.57642e-05
-1.55781e-05
-1.49118e-05
-1.39087e-05
-1.421e-05
-1.17347e-05
-1.36294e-05
-9.4229e-06
-1.3122e-05
-7.1324e-06
-1.26322e-05
-4.91939e-06
-1.20989e-05
-2.78307e-06
-1.1458e-05
-6.8529e-07
-1.06528e-05
1.42579e-06
-9.64858e-06
3.5668e-06
-8.42061e-06
5.69429e-06
-6.94517e-06
7.7239e-06
9.57387e-06
-5.1711e-06
-5.20448e-07
6.53921e-05
-2.53617e-06
6.4029e-05
-5.56511e-06
5.56101e-05
-8.96858e-06
4.31884e-05
-1.20348e-05
2.87187e-05
-1.43156e-05
1.42807e-05
-1.54886e-05
1.29157e-06
-1.56582e-05
-8.75547e-06
-1.51649e-05
-1.47381e-05
-1.43493e-05
-1.68606e-05
-1.34687e-05
-1.64589e-05
-1.26804e-05
-1.46971e-05
-1.20339e-05
-1.23812e-05
-1.15084e-05
-9.94851e-06
-1.10588e-05
-7.58211e-06
-1.06341e-05
-5.34409e-06
-1.01781e-05
-3.23914e-06
-9.629e-06
-1.23447e-06
-8.93218e-06
7.28931e-07
-8.04086e-06
2.67551e-06
-6.94594e-06
4.59936e-06
-5.63805e-06
6.41607e-06
8.02592e-06
-4.09035e-06
1.44186e-06
6.395e-05
9.99082e-07
6.44716e-05
-9.88564e-07
5.75975e-05
-3.98754e-06
4.61871e-05
-7.41937e-06
3.21503e-05
-1.02887e-05
1.71498e-05
-1.18586e-05
2.86132e-06
-1.24459e-05
-8.16831e-06
-1.2304e-05
-1.48801e-05
-1.17352e-05
-1.74296e-05
-1.10205e-05
-1.71737e-05
-1.03488e-05
-1.53689e-05
-9.79848e-06
-1.29316e-05
-9.36114e-06
-1.03859e-05
-8.99585e-06
-7.94749e-06
-8.65648e-06
-5.68353e-06
-8.29306e-06
-3.60262e-06
-7.84999e-06
-1.6776e-06
-7.26511e-06
1.4401e-07
-6.50333e-06
1.91375e-06
-5.5416e-06
3.63765e-06
-4.3837e-06
5.25807e-06
6.66557e-06
-3.02349e-06
3.26354e-06
6.06862e-05
4.38202e-06
6.33528e-05
3.75573e-06
5.82236e-05
1.60972e-06
4.8333e-05
-1.60964e-06
3.53695e-05
-5.03635e-06
2.05764e-05
-7.6573e-06
5.48211e-06
-8.67916e-06
-7.1466e-06
-9.01868e-06
-1.45408e-05
-8.81763e-06
-1.76307e-05
-8.37146e-06
-1.762e-05
-7.89283e-06
-1.58477e-05
-7.49469e-06
-1.33298e-05
-7.1887e-06
-1.0692e-05
-6.94158e-06
-8.19469e-06
-6.71313e-06
-5.91204e-06
-6.46101e-06
-3.85481e-06
-6.13684e-06
-2.00183e-06
-5.68575e-06
-3.0711e-07
-5.06324e-06
1.29124e-06
-4.24804e-06
2.82242e-06
-3.24419e-06
4.25431e-06
5.48737e-06
-2.06623e-06
4.91283e-06
5.57732e-05
7.25995e-06
6.10055e-05
7.61227e-06
5.78711e-05
6.44098e-06
4.9504e-05
4.15372e-06
3.76566e-05
1.04439e-06
2.36855e-05
-2.06815e-06
8.5945e-06
-4.16343e-06
-5.05146e-06
-5.21352e-06
-1.34908e-05
-5.53932e-06
-1.73051e-05
-5.49095e-06
-1.76684e-05
-5.29996e-06
-1.60388e-05
-5.12084e-06
-1.35091e-05
-4.99581e-06
-1.08171e-05
-4.90542e-06
-8.28515e-06
-4.81716e-06
-6.00036e-06
-4.69764e-06
-3.97439e-06
-4.50878e-06
-2.19074e-06
-4.20481e-06
-6.11113e-07
-3.73931e-06
8.25743e-07
-3.08197e-06
2.16511e-06
-2.24402e-06
3.41624e-06
4.48271e-06
-1.23947e-06
6.22377e-06
4.95491e-05
9.41502e-06
5.7814e-05
1.03717e-05
5.69142e-05
9.83051e-06
5.0045e-05
8.27477e-06
3.92121e-05
6.04836e-06
2.59118e-05
3.4755e-06
1.11672e-05
9.15468e-07
-2.49157e-06
-8.76082e-07
-1.16994e-05
-1.91732e-06
-1.62639e-05
-2.39255e-06
-1.71933e-05
-2.58353e-06
-1.58479e-05
-2.69082e-06
-1.34018e-05
-2.79595e-06
-1.0712e-05
-2.90153e-06
-8.17965e-06
-2.98341e-06
-5.91854e-06
-3.01754e-06
-3.94031e-06
-2.97743e-06
-2.2309e-06
-2.82757e-06
-7.61e-07
-2.5322e-06
5.30366e-07
-2.05568e-06
1.68855e-06
-1.38553e-06
2.74616e-06
3.66531e-06
-5.68375e-07
6.87938e-06
4.26696e-05
1.05104e-05
5.41828e-05
1.18568e-05
5.55676e-05
1.188e-05
5.00216e-05
1.10348e-05
4.00572e-05
9.60396e-06
2.73424e-05
7.67928e-06
1.30918e-05
5.4012e-06
-2.13614e-07
3.40232e-06
-9.70061e-06
1.90281e-06
-1.47645e-05
8.90066e-07
-1.61807e-05
2.1819e-07
-1.51761e-05
-2.44044e-07
-1.29397e-05
-6.19555e-07
-1.03366e-05
-9.52806e-07
-7.84645e-06
-1.23169e-06
-5.6397e-06
-1.43804e-06
-3.73401e-06
-1.55828e-06
-2.11071e-06
-1.57098e-06
-7.48329e-07
-1.45271e-06
4.12094e-07
-1.1461e-06
1.38196e-06
-6.69061e-07
2.26897e-06
3.03289e-06
-3.6753e-08
6.78727e-06
3.5882e-05
1.0354e-05
5.06158e-05
1.21303e-05
5.37912e-05
1.28638e-05
4.92879e-05
1.28123e-05
4.01086e-05
1.21982e-05
2.79565e-05
1.10298e-05
1.426e-05
9.26579e-06
1.55028e-06
7.33782e-06
-7.77273e-06
5.5868e-06
-1.30136e-05
4.16057e-06
-1.47545e-05
3.05129e-06
-1.40669e-05
2.18226e-06
-1.20707e-05
1.47704e-06
-9.63143e-06
8.95663e-07
-7.26511e-06
4.08912e-07
-5.15298e-06
2.00185e-08
-3.34515e-06
-2.66196e-07
-1.82452e-06
-4.44892e-07
-5.69649e-07
-4.8507e-07
4.52273e-07
-3.73398e-07
1.27025e-06
-8.39242e-08
1.97961e-06
2.59668e-06
3.52092e-07
6.00211e-06
2.98798e-05
9.27054e-06
4.73472e-05
1.16039e-05
5.14576e-05
1.31689e-05
4.77228e-05
1.39895e-05
3.9288e-05
1.423e-05
2.77158e-05
1.37951e-05
1.46948e-05
1.25582e-05
2.78711e-06
1.08173e-05
-6.03187e-06
8.95659e-06
-1.1153e-05
7.22811e-06
-1.30261e-05
5.73659e-06
-1.25754e-05
4.48985e-06
-1.0824e-05
3.46046e-06
-8.60206e-06
2.60549e-06
-6.41017e-06
1.90338e-06
-4.45089e-06
1.33202e-06
-2.7738e-06
8.83657e-07
-1.37617e-06
5.52599e-07
-2.38596e-07
3.39369e-07
6.65531e-07
2.78444e-07
1.33123e-06
3.78705e-07
1.87924e-06
2.34248e-06
6.3288e-07
4.50114e-06
2.53784e-05
7.76284e-06
4.40854e-05
1.07815e-05
4.84388e-05
1.32048e-05
4.52995e-05
1.49189e-05
3.75737e-05
1.59696e-05
2.6665e-05
1.61509e-05
1.45134e-05
1.53169e-05
3.62111e-06
1.37538e-05
-4.46883e-06
1.18325e-05
-9.23169e-06
9.87501e-06
-1.10686e-05
8.07634e-06
-1.07767e-05
6.51531e-06
-9.26299e-06
5.19938e-06
-7.28614e-06
4.10547e-06
-5.31626e-06
3.20425e-06
-3.54966e-06
2.46554e-06
-2.03509e-06
1.86831e-06
-7.78939e-07
1.39125e-06
2.38487e-07
1.04204e-06
1.01478e-06
8.1138e-07
1.56189e-06
7.31029e-07
1.95973e-06
2.27657e-06
7.96795e-07
2.37466e-06
2.30038e-05
6.26607e-06
4.01939e-05
1.00457e-05
4.46591e-05
1.32976e-05
4.20475e-05
1.58389e-05
3.50323e-05
1.75406e-05
2.49633e-05
1.81179e-05
1.39362e-05
1.75257e-05
4.21319e-06
1.60305e-05
-2.97363e-06
1.40281e-05
-7.22928e-06
1.18839e-05
-8.92439e-06
9.85464e-06
-8.7475e-06
8.06902e-06
-7.47736e-06
6.55597e-06
-5.77307e-06
5.29285e-06
-4.05312e-06
4.24601e-06
-2.5028e-06
3.38231e-06
-1.17136e-06
2.66731e-06
-6.39121e-08
2.07913e-06
8.26701e-07
1.59951e-06
1.49445e-06
1.22798e-06
1.9335e-06
9.82784e-07
2.20484e-06
2.38355e-06
8.75814e-07
2.68135e-07
2.27354e-05
4.96364e-06
3.54983e-05
9.4965e-06
4.01262e-05
1.34965e-05
3.80475e-05
1.66875e-05
3.18412e-05
1.87466e-05
2.29042e-05
1.95067e-05
1.31761e-05
1.89591e-05
4.76076e-06
1.74126e-05
-1.42714e-06
1.52961e-05
-5.11278e-06
1.30081e-05
-6.63633e-06
1.08407e-05
-6.58013e-06
8.94882e-06
-5.5854e-06
7.36398e-06
-4.1882e-06
6.04983e-06
-2.73892e-06
4.95465e-06
-1.40759e-06
4.03474e-06
-2.51412e-07
3.25488e-06
7.15993e-07
2.58843e-06
1.49319e-06
2.02046e-06
2.06249e-06
1.53467e-06
2.41932e-06
1.14677e-06
2.59293e-06
2.65561e-06
8.74643e-07
-5.37604e-07
2.3273e-05
3.86341e-06
3.10972e-05
8.78428e-06
3.52052e-05
1.32669e-05
3.35648e-05
1.68152e-05
2.8293e-05
1.89324e-05
2.07869e-05
1.96915e-05
1.24171e-05
1.91322e-05
5.32002e-06
1.75252e-05
1.7993e-07
1.53417e-05
-2.92925e-06
1.3003e-05
-4.2976e-06