/*--------------------------------*- C++ -*----------------------------------*\
| =========                 |                                                 |
| \\      /  F ield         | OpenFOAM: The Open Source CFD Toolbox           |
|  \\    /   O peration     | Version:  2312                                  |
|   \\  /    A nd           | Website:  www.openfoam.com                      |
|    \\/     M anipulation  |                                                 |
\*---------------------------------------------------------------------------*/
FoamFile
{
    version     2.0;
    format      ascii;
    arch        "LSB;label=32;scalar=64";
    class       volScalarField;
    location    "2.9";
    object      alphas;
}
// * * * * * * * * * * * * * * * * * * * * * * * * * * * * * * * * * * * * * //

dimensions      [0 0 0 0 0 0 0];

internalField   nonuniform List<scalar> 
2268
(
2
2
2
2
2
2
2
2
2
2
2
2
2
2
2
2
2
2
2
2
1.99998
1.99995
1.99995
2
2
2
2
2
2
2
2
2
2
2
2
2
2
2
2
2
2
2
2
2
1.99998
1.99997
2
2
2
2
2
2
2
2
2
2
2
2
2
2
2
2
2
2
2
2
2
2
2
2
2
2
2
1.99994
2
2
2
2
2
2
2
2
2
2
2
2
2
2
2
2
2
2
1.99798
1.99501
1.99831
1.99934
1.99997
2.00002
1.99999
2
2
2
2
2
2
2
2
2
2
1.99983
1.99815
1.99633
1.99593
1.99881
2.00303
1.31701
1.33628
1.38714
1.45466
1.53272
1.63873
1.78768
1.93228
1.99967
1.99991
1.99999
1.99991
1.99981
1.99937
1.97736
1.91124
1.8008
1.64347
1.46308
1.29721
1.18247
1.15029
1.17862
0.0658472
0.0747445
0.0893707
0.112283
0.146492
0.208493
0.3461
0.607644
0.97927
1.33082
1.50706
1.52587
1.41737
1.17179
0.87084
0.587163
0.36499
0.197035
0.0939281
0.0385224
0.0364627
0.0475442
0.0586166
0.00484919
0.00518906
0.00407455
0.00192436
0.0012273
0.00104877
0.000788737
0.000664694
0.00462843
0.0392955
0.109672
0.150015
0.116533
0.064852
0.0487808
0.0663939
0.0527138
0.0336651
0.0297025
0.0250613
0.0298327
0.0402555
0.0426969
1.90822
1.90868
1.90882
1.9198
1.95956
1.96194
1.95459
1.94005
1.94004
1.93743
1.94147
1.94381
1.94374
1.94264
1.94743
1.95653
1.9566
1.95564
1.95595
1.67953
1.79297
1.88427
1.92464
1.94823
1.95399
1.95638
1.9521
1.94585
1.93172
1.92502
1.93237
1.9335
1.93389
1.92283
1.89944
1.88207
1.88789
1.81974
0.528784
0.673645
0.883372
1.24457
1.62322
1.7569
1.77849
1.81055
1.71599
1.59133
1.49069
1.45525
1.46651
1.50715
1.52502
1.46699
1.56803
1.50957
1.46681
0.436744
0.34028
0.355179
0.524037
0.880319
1.38752
1.48479
1.31902
1.10792
0.888542
0.748099
0.690581
0.745636
0.860792
0.919103
0.899313
0.914761
0.986352
0.991187
0.436056
0.15358
0.086759
0.355523
0.512001
0.665844
0.588476
0.172083
0.123878
0.168856
0.548412
0.614353
0.690326
0.502773
0.407006
0.286364
0.188295
0.1929
0.496942
0.408015
0.168878
0.0485518
0.0754241
0.292586
0.534312
0.063086
0.057622
0.0624488
0.156429
0.564337
0.580183
0.481188
0.242803
0.236087
0.238648
0.250811
0.250561
0.182453
0.230992
0.206681
0.0678293
0.00177629
0.0810321
0.451892
0.119035
0.0550105
0.204486
0.569854
0.609167
0.612488
0.440578
0.221685
0.222644
0.223315
0.232297
0.250766
0.209352
0.248763
0.168554
0.0516403
0.00116169
0.00687471
0.246765
0.335304
0.0440587
0.147104
0.355116
0.391435
0.388629
0.422644
0.402489
0.215261
0.229807
0.28005
0.349793
0.230528
0.00359369
0.00277725
0.00145167
0.00144723
0.00146803
0.00176488
0.00147652
0.00146195
0.00146308
0.00133922
0.00104466
0.00105267
0.00107987
0.0215783
0.105638
0.258166
0.171845
0.0453781
0.0551989
0.0547942
0.0410085
0.0384144
0.0579675
0.00225931
0.00247003
0.00953476
0.0157713
0.0134759
0.0159638
0.0272408
0.0203385
0.00777809
0.00336283
0.0218433
0.0736972
0.0677358
0.0844394
0.244333
0.328197
0.234113
0.298137
0.367586
0.403905
0.450023
0.471612
0.507984
0.00238457
0.00240038
0.00243861
0.0106956
0.0434557
0.0630005
0.137866
0.233429
0.244954
0.251398
0.313685
0.380175
0.452381
0.551454
0.656889
0.659273
0.774509
0.961762
1.03414
1.06367
1.10133
1.13857
1.1505
0.238804
0.260656
0.329094
0.435429
0.647012
0.691399
0.534822
0.656331
0.838528
0.911391
0.966393
1.00926
1.03369
1.03591
1.02411
1.02575
1.0093
1.00116
1.00101
1.00101
1.0011
1.05603
1.1659
1.132
1.1381
1.1387
1.13883
1.13689
1.13684
1.41488
0.946603
0.964361
1.00216
1.00339
1.00292
1.00174
1.00135
1.00132
1.00117
1.00069
1.00015
0.999796
0.9998
1.00016
1.00069
1.00558
1.52802
1.45031
1.36951
1.37396
1.41784
1.51126
1.80609
1.61585
1.3663
1.12792
1.00849
1.00325
1.00323
1.00412
1.0035
1.00093
1.00117
1.00106
0.998622
0.989686
0.989517
0.997928
0.999974
2.91837
2.8469
2.72518
2.67734
2.7673
2.67312
2.40996
2.2441
2.07651
1.98597
1.97351
1.96647
1.95326
1.94664
1.90412
1.72769
1.61615
1.72948
1.87232
1.78336
1.49755
1.27963
1.17093
2.98438
2.99106
2.98699
2.98402
2.98408
2.99165
2.9988
2.99998
3
3
2.99964
2.99908
2.99908
2.99927
2.99072
2.97245
2.92841
2.79445
2.63258
2.60374
2.63932
2.59837
2.49704
2.99999
2.99868
2.99863
2.99132
2.98848
2.99594
3
3
3
3
3
3
2.99982
2.99941
2.99961
2.99966
2.99966
2.99964
2.98552
2.96888
2.96861
2.97402
2.98377
2.99999
2.99854
2.99933
2.99986
2.99986
2.99991
2.99999
3
3
2.99999
2.99995
2.99995
2.99999
3
3
2.99946
2.99922
2.99931
2.99956
2.99933
2.99716
2.99041
2.99032
3
2.99858
2.99845
2.99927
2.99966
2.99975
2.99992
3
3
2.9999
2.99978
2.9998
2.99991
3
3
3
2.99958
2.99929
2.99935
2.99993
3
2.99972
2.99847
3
2.99998
2.9994
2.99945
2.99987
2.99992
2.99994
2.99996
2.99984
2.99978
2.99978
2.99981
2.99996
3
3
3
2.99997
2.99996
2.99996
2.99999
3
3
3
3
3
3
3
2.99999
3
2.99991
2.99978
2.99978
2.99983
2.99996
2.99997
2.99997
2.99996
2.99994
2.99993
2.99995
3
3
3
3
3
3
3
3
3
3
3
3
2.99998
2.99994
2.99998
2.99998
2.99998
2.99997
2.99982
2.99972
2.99978
2.99982
2.99991
3
2.99998
2.9998
2.99979
2.99979
2.99993
3
3
3
3
3
3
3
2.99999
2.99998
2.99996
2.99991
2.99982
2.99961
2.99958
2.99958
2.99968
2.99982
2.99997
2.99994
2.99983
2.99984
2.99992
2.99999
3
3
3
3
2.99999
2.99998
2.99995
2.99993
2.99994
2.99997
2.99995
2.99964
2.99961
2.99968
2.99999
3
2.99999
2.99993
2.99993
2.99993
2.99998
3
2.99999
3
3
3
3
2.99999
2.99993
2.99993
2.99993
2.99999
3
2.99998
2.99988
2.99988
3
3
3
2.99999
2.99995
2.99996
3
3
3
3
3
3
3
3
2.99999
2.99994
2.99993
2.99999
3
3
3
3
3
3
3
3
3
3
3
3
3
3
3
3
3
3
3
3
3
3
3
3
3
3
3
3
3
3
3
3
3
3
3
3
3
3
3
3
3
3
3
3
3
3
3
3
3
3
3
3
3
3
3
3
3
3
3
3
3
3
3
3
3
3
3
3
3
3
3
3
3
3
3
3
3
3
3
3
3
3
3
3
3
3
3
3
3
3
3
3
3
3
3
3
3
3
3
3
3
3
3
3
3
3
3
3
3
3
3
3
3
3
3
3
3
3
3
3
3
3
3
3
3
3
3
3
3
3
3
3
3
3
3
3
3
3
3
3
3
3
3
3
3
3
3
3
3
3
3
3
3
3
3
3
3
3
3
3
3
3
3
3
3
3
3
3
3
3
3
3
3
3
3
3
3
3
3
3
3
3
3
3
3
3
3
3
3
3
3
3
3
3
3
3
3
3
3
3
3
3
3
3
3
3
3
3
3
3
3
3
3
3
3
3
3
3
3
3
3
3
3
3
3
3
3
3
3
3
3
3
3
3
3
3
3
3
3
3
3
3
3
3
3
3
3
3
3
3
3
3
3
3
3
3
3
3
3
3
3
3
3
3
3
3
3
3
3
3
3
3
3
3
3
3
3
3
3
3
3
3
3
3
3
3
3
3
3
3
3
3
3
3
3
3
3
3
3
3
3
3
3
3
3
3
3
3
3
3
3
3
3
3
3
3
3
3
3
3
3
3
3
3
3
3
3
3
3
3
3
3
3
3
3
3
3
3
3
3
3
3
3
3
3
3
3
3
3
3
3
3
3
3
3
3
3
3
3
3
3
3
3
3
3
3
3
3
3
3
3
3
3
3
3
3
3
3
3
3
3
3
3
3
3
3
3
3
3
3
3
3
3
3
3
3
3
3
3
3
3
3
3
3
3
3
3
3
3
3
3
3
3
3
3
3
3
3
3
3
3
3
3
3
3
3
3
3
3
3
3
3
3
3
3
3
3
3
3
3
3
3
3
3
3
3
3
3
3
3
3
3
3
3
3
3
3
3
3
3
3
3
3
3
3
3
3
3
3
3
3
3
3
3
3
3
3
3
3
3
3
3
3
3
3
3
3
3
3
3
3
3
3
3
3
3
3
3
3
3
3
3
3
3
3
3
3
3
3
3
3
3
3
3
3
3
3
3
3
3
3
3
3
3
3
3
3
3
3
3
3
3
3
3
3
3
3
3
3
3
3
3
3
3
3
3
3
3
3
3
3
3
3
3
3
3
3
3
3
3
3
3
3
3
3
3
3
0.185045
0.246335
0.289463
0.359451
0.568938
0.643788
0.735307
0.827885
1.15203
1.02915
1.00659
1.03776
1.1659
1.16586
1.1652
1.06857
1.01124
1.01596
1.01859
1.01009
1.0011
1.00243
1.00571
1.00236
1.15585
1.16987
1.21998
1.22823
2.35484
2.32324
2.44846
2.56546
2.99241
2.97125
2.94205
2.94056
2.99334
2.99035
2.98837
2.99281
2.99829
2.99917
2.99989
2.99964
3
3
3
2.99998
3
3
2.99998
2.99996
2.99998
2.99998
2.99998
2.99998
2.99999
2.99994
2.9999
2.9999
2.99996
2.99995
2.99996
2.99997
2.99999
3
3
3
3
3
3
3
3
3
3
3
3
3
3
3
3
3
3
3
3
3
3
3
3
3
3
3
3
3
3
3
3
3
3
3
3
3
3
3
3
3
3
3
3
3
3
3
3
3
3
3
3
3
3
3
3
3
3
3
3
3
3
3
3
3
3
3
3
3
3
3
3
3
3
3
3
3
3
3
3
3
3
3
3
3
3
3
3
3
3
3
3
3
3
3
3
3
3
3
3
3
3
3
0.443186
0.10553
0.0211173
0.00106173
0.00107512
0.111074
0.334938
0.0411559
0.0411746
0.0779784
0.171093
0.48728
0.633657
0.472275
0.184205
0.186136
0.410818
0.5469
0.617378
0.513715
0.0415188
0.0487844
0.116906
0.0263563
0.035837
0.137278
0.041583
0.0905013
0.14967
0.155845
0.48523
0.65867
0.423478
0.349341
0.561603
0.454466
0.546852
0.717736
1.04397
0.835606
0.432261
0.28429
0.228053
0.0498358
0.0418426
0.0716286
0.227544
0.525929
0.551041
0.554653
0.686121
0.755751
0.736615
0.752593
0.775132
0.605196
0.584514
1.01811
1.07969
1.01442
0.89174
0.518176
0.234546
0.168633
0.313962
0.874255
1.11247
1.01763
0.644362
0.745042
0.889046
0.974653
0.851328
0.842592
0.856428
0.708913
1.00277
1.0712
1.07849
1.05614
1.06389
0.935035
0.735403
0.902333
1.02468
1.09304
1.11158
1.12233
1.10354
1.00158
0.984356
0.983748
0.718416
0.890922
1.08038
1.00155
1.00952
1.05207
1.03109
1.0045
1.02759
1.07439
1.04036
1.00822
1.00824
1.05317
1.11917
1.11818
1.09502
1.23234
1.05548
0.861253
0.816182
1.08293
1.05843
1.00295
1.00183
1.00242
1.00262
1.00267
1.00354
1.01694
1.02012
1.0101
1.00331
1.0833
1.0933
1.02915
1.02265
1.04897
1.06503
0.920168
1.03957
2.37324
1.92204
1.55568
1.13842
1.00171
1.00179
1.0017
1.00177
1.00209
1.00244
1.00286
1.00638
1.02198
1.02226
1.01706
1.01751
1.02042
0.985322
1.0106
2.94786
2.96191
2.9075
2.72646
2.3809
2.09362
1.85434
1.59422
1.51643
1.45115
1.16153
1.00716
1.00731
1.00852
1.01246
1.01715
1.01791
1.00535
0.956876
2.96802
2.95828
2.96582
2.99622
2.99849
2.99681
2.98262
2.93117
2.89757
2.88333
2.76966
2.40899
1.78716
1.21317
1.09247
1.05532
1.03142
1.00803
1.05621
2.9993
2.97216
2.96763
2.99416
2.99994
2.99992
2.99987
2.99938
2.99943
2.99966
2.99915
2.99815
2.91011
2.46427
2.35385
1.9164
1.11061
1.01072
1.06565
2.99995
2.99932
2.99653
2.99718
2.99982
2.99999
2.99999
2.99998
2.99998
2.99998
2.99999
2.99999
2.99956
2.9764
2.96442
2.64063
1.19098
1.01281
1.0413
2.99997
2.99995
2.99994
2.9998
2.99992
2.99998
2.99998
2.99988
2.99985
2.9997
2.99952
2.99993
2.99996
2.98705
2.9924
2.90929
1.42336
1.02591
1.03464
2.99998
2.99989
2.99979
2.99961
2.99953
2.99954
2.99941
2.99936
2.99931
2.99916
2.99926
2.99953
2.99995
2.99991
2.9992
2.99022
2.40778
1.28281
1.04582
2.9999
2.99984
2.99976
2.99968
2.99947
2.99935
2.99923
2.99923
2.99921
2.99918
2.99923
2.99941
2.99994
2.99998
2.99998
2.99971
2.99433
2.71749
2.17586
2.99997
2.99998
2.99998
2.99998
2.99993
2.99971
2.99941
2.99931
2.99929
2.99941
2.99974
2.99969
2.99983
2.99999
2.99999
2.99999
2.99999
3
2.99997
3
3
3
3
3
3
2.99993
2.99983
2.99992
2.99995
2.99991
2.99985
2.99982
2.99989
2.99999
2.99998
2.99999
3
3
3
3
3
3
3
3
3
3
3
3
2.99997
2.99996
2.99991
2.9999
2.99995
2.99998
3
3
3
3
3
3
3
3
3
3
3
3
3
3
2.99999
2.99993
2.99995
2.99996
2.99998
3
3
3
3
3
3
3
3
3
3
3
3
3
3
3
2.99994
2.99983
2.99997
2.99994
2.99959
2.99969
2.99998
3
3
3
3
3
3
3
3
3
3
3
3
2.99999
2.99981
2.99957
2.99946
2.99946
2.99946
2.99994
3
3
3
3
3
3
3
3
3
3
3
3
2.99999
2.99994
2.99979
2.99971
2.99959
2.99946
2.99994
3
3
3
3
3
3
3
3
3
3
3
3
3
3
2.99999
2.99998
2.99998
2.9995
2.99994
3
3
3
3
3
3
3
3
3
3
3
3
3
3
3
3
3
2.99989
2.99962
3
3
3
3
3
3
3
3
3
3
3
3
3
3
3
3
3
2.99999
2.99954
3
3
3
3
3
3
3
3
3
3
3
3
3
3
3
3
3
2.99999
2.99954
3
3
3
3
3
3
3
3
3
3
3
3
3
3
3
3
3
3
2.99985
3
3
3
3
3
3
3
3
3
3
3
3
3
3
3
3
3
3
3
3
3
3
3
3
3
3
3
3
3
3
3
3
3
3
2.99999
2.99999
3
3
3
3
3
3
3
3
3
3
3
3
3
3
3
3
3
2.99999
2.99999
2.99999
2.99999
3
3
3
3
3
3
3
3
3
3
3
3
3
3
3
2.99999
2.99999
2.99999
2.99999
3
3
3
3
3
3
3
3
3
3
3
3
3
3
3
3
2.99999
2.99999
3
3
3
3
3
3
3
3
3
3
3
3
3
3
3
3
3
3
3
3
3
3
3
3
3
3
3
3
3
3
3
3
3
3
3
3
3
3
3
3
3
3
3
3
3
3
3
3
3
3
3
3
3
3
3
3
3
3
3
3
3
3
3
3
3
3
3
3
3
3
3
3
3
3
3
3
3
3
3
3
3
3
3
3
3
3
3
3
3
3
3
3
3
3
3
3
3
3
3
3
3
3
3
3
3
3
3
3
3
3
3
3
3
3
3
3
3
3
3
3
3
3
3
3
3
3
3
3
3
3
3
3
3
3
3
3
3
3
3
3
3
3
3
3
3
3
3
3
3
3
3
3
3
3
3
3
3
3
3
3
3
3
3
3
3
3
3
3
3
3
3
3
3
3
3
3
3
3
3
3
3
3
3
3
3
3
3
3
3
3
3
)
;

boundaryField
{
    leftWall
    {
        type            calculated;
        value           nonuniform List<scalar> 
50
(
2
2
2
2
1.99798
1.31701
0.0658472
0.00484919
0.00359369
0.00225931
0.00238457
0.238804
1.132
1.52802
2.91837
2.98438
2.99999
2.99999
3
3
3
3
3
3
3
3
3
3
3
3
3
3
3
3
3
3
3
3
3
3
3
3
3
3
3
3
3
3
3
3
)
;
    }
    rightWall
    {
        type            calculated;
        value           nonuniform List<scalar> 
50
(
1.95595
1.81974
1.46681
0.991187
0.496942
0.182453
0.209352
0.230528
0.617378
0.717736
0.584514
0.708913
1.08038
1.08293
1.03957
1.0106
0.956876
1.05621
1.06565
1.0413
1.03464
1.04582
2.17586
2.99997
3
3
3
2.99998
2.99994
2.99994
2.99994
2.99962
2.99954
2.99954
2.99985
3
3
2.99999
2.99999
3
3
3
3
3
3
3
3
3
3
3
)
;
    }
    lowerWall
    {
        type            calculated;
        value           nonuniform List<scalar> 
62
(
2
2
2
2
2
2
2
2
2
2
2
2
2
2
2
2
2
2
2
2
1.99998
1.99995
1.99995
1.99995
1.99997
2
2
2.00303
1.17862
0.0586166
0.0426969
0.185045
0.246335
0.289463
0.359451
1.90822
1.67953
0.528784
0.436744
0.436056
0.408015
0.230992
0.248763
1.90822
1.90868
1.90882
1.9198
1.95956
1.96194
1.95459
1.94005
1.94004
1.93743
1.94147
1.94381
1.94374
1.94264
1.94743
1.95653
1.9566
1.95564
1.95595
)
;
    }
    atmosphere
    {
        type            calculated;
        value           nonuniform List<scalar> 
46
(
3
3
3
3
3
3
3
3
3
3
3
3
3
3
3
3
3
3
3
3
3
3
3
3
3
3
3
3
3
3
3
3
3
3
3
3
3
3
3
3
3
3
3
3
3
3
)
;
    }
    defaultFaces
    {
        type            empty;
    }
}


// ************************************************************************* //
