/*--------------------------------*- C++ -*----------------------------------*\
| =========                 |                                                 |
| \\      /  F ield         | OpenFOAM: The Open Source CFD Toolbox           |
|  \\    /   O peration     | Version:  2312                                  |
|   \\  /    A nd           | Website:  www.openfoam.com                      |
|    \\/     M anipulation  |                                                 |
\*---------------------------------------------------------------------------*/
FoamFile
{
    version     2.0;
    format      ascii;
    arch        "LSB;label=32;scalar=64";
    class       volScalarField;
    location    "2.9";
    object      alpha.oil;
}
// * * * * * * * * * * * * * * * * * * * * * * * * * * * * * * * * * * * * * //

dimensions      [0 0 0 0 0 0 0];

internalField   nonuniform List<scalar> 
2268
(
7.88818e-10
7.31331e-10
5.77003e-10
3.35027e-10
1.96729e-10
2.58376e-10
4.77521e-10
9.44222e-10
5.01275e-10
1.42214e-10
9.23021e-11
9.10376e-11
1.00261e-10
1.29175e-10
2.07018e-10
3.76279e-10
7.03902e-10
1.06064e-09
1.31561e-09
6.41371e-09
2.13477e-05
5.40059e-05
5.40052e-05
7.9312e-10
3.79982e-10
2.89258e-10
1.90926e-10
1.90739e-10
7.51499e-10
1.81927e-09
2.62716e-08
1.88105e-09
3.18206e-10
3.04221e-10
2.57517e-10
2.48409e-10
2.74608e-10
3.60308e-10
5.59083e-10
1.07578e-09
1.77602e-09
2.18515e-09
1.31763e-08
1.73693e-06
1.8811e-05
3.39295e-05
1.29973e-10
1.23322e-10
1.23167e-10
7.32453e-09
4.09934e-07
1.17886e-06
5.36144e-07
3.57682e-09
9.32126e-10
4.29332e-10
3.1608e-10
5.04279e-10
6.13106e-10
2.36864e-10
2.36862e-10
2.36864e-10
1.27834e-09
3.38954e-09
4.60156e-09
4.02573e-09
9.3311e-14
8.27532e-14
8.27614e-14
1.23335e-10
1.23187e-10
1.23303e-10
2.13136e-08
6.08746e-05
2.09742e-08
5.98303e-09
1.19244e-09
2.05327e-09
5.35418e-09
2.67987e-08
7.5537e-08
9.15851e-08
1.48042e-07
1.06271e-07
1.53755e-08
2.15815e-09
1.97596e-22
1.14954e-22
-2.02567e-12
4.23009e-09
7.58984e-09
2.30306e-09
0.00229706
0.00498513
0.00168683
0.000663405
4.79507e-05
7.03136e-06
1.37968e-05
5.55529e-10
5.50755e-10
6.6779e-10
7.58103e-10
1.1404e-09
2.80553e-09
7.01973e-07
6.23053e-07
6.37414e-08
4.25983e-09
0.000170137
0.00185043
0.00368086
0.00420969
0.00157171
0.000829648
0.00735387
0.00735387
0.00717766
0.000837593
4.8151e-05
0.000421486
0.000638811
0.000605326
0.000345499
9.70966e-05
1.47088e-05
0.000103513
0.000190959
7.17775e-08
6.90504e-08
6.63692e-08
0.00189083
0.0203167
0.0312097
0.0352644
0.0329821
0.0141906
0.00832154
0.00658799
0.00591743
0.00419992
0.000733186
5.13736e-05
0.000353069
0.000665957
0.000665977
0.000614298
0.000381838
0.00229391
0.00572835
0.00572734
0.00267701
0.00208525
0.015368
0.0269126
0.0365888
0.0368293
0.0366895
0.0303816
0.0144379
0.00929668
0.00221179
0.000441844
2.88694e-05
8.25114e-05
5.32841e-05
8.73481e-05
0.000272462
0.000365514
0.000273104
0.000239899
0.000417686
0.00214484
0.00469122
0.0188445
0.0469403
0.0627989
0.0432608
0.013154
0.0151243
0.017415
0.0149868
0.00973547
0.00931156
0.0401716
0.0398365
0.0397286
0.0360208
0.0295539
0.02762
0.02762
0.0276199
0.02762
0.0276202
0.0276201
0.0282015
0.0282019
0.0287426
0.0306679
0.0327569
0.0328293
0.033869
0.0344928
0.0403556
0.0770848
0.0755717
0.0579659
0.0361319
0.0332285
0.0308967
0.0290926
0.0278245
0.0381993
0.0570311
0.0610568
0.0606214
0.0584764
0.0696741
0.0940081
0.120572
0.11546
0.175472
0.218863
0.301469
0.301469
0.275104
0.2313
0.234892
0.214841
0.187864
0.279163
0.39959
0.459912
0.461053
0.453331
0.444126
0.394854
0.335418
0.413923
0.496278
0.534122
0.324929
0.278538
0.295433
0.419633
0.523144
0.524079
0.524025
0.486262
0.463145
0.513659
0.530217
0.53024
0.530223
0.530213
0.496573
0.396272
0.464758
0.514587
0.534122
0.32314
0.0411838
0.042195
0.281933
0.455452
0.524107
0.377882
0.0859017
0.069734
0.105836
0.514485
0.530241
0.528174
0.32004
0.225486
0.190174
0.110566
0.125627
0.453819
0.289667
0.0651102
0.0151961
0.026433
0.24766
0.514735
0.0346814
0.00862689
0.0159886
0.111413
0.530253
0.530263
0.378064
0.0691738
0.0693665
0.0693709
0.0693748
0.0693841
0.0980819
0.0262438
0.0423087
0.0242688
0.000146578
0.0681896
0.389085
0.0593827
0.00875915
0.123931
0.481139
0.529654
0.528012
0.343002
0.0698972
0.0694543
0.0693748
0.0693875
0.0693923
0.0842571
0.0257597
0.0166315
0.00988764
0.000146839
0.00413353
0.179071
0.235964
0.0206427
0.0968633
0.266886
0.310422
0.313434
0.308297
0.125708
0.080718
0.0739634
0.0693937
0.0729162
0.0752237
0.000756735
4.45067e-10
5.6408e-07
5.07903e-06
1.36485e-05
1.27866e-05
1.44724e-05
1.97338e-05
1.24949e-05
1.57995e-05
2.92292e-05
2.27273e-05
-2.23501e-08
0.0189178
0.0922265
0.229137
0.159416
0.00995381
0.00990695
0.0099123
0.00990976
0.0106291
0.0124269
0.000130587
4.8208e-10
1.04468e-06
1.18469e-05
2.64729e-05
0.00238048
0.00194085
4.86146e-08
5.24267e-24
-8.11626e-25
3.47644e-12
1.13044e-12
-9.3254e-11
0.0264806
0.197275
0.267127
0.150427
0.141844
0.166752
0.199715
0.243276
0.280649
0.3654
4.50823e-06
4.45036e-10
2.90985e-09
2.81021e-09
0.00645061
0.00266659
0.111638
0.151096
0.0956123
0.0879604
0.123825
0.186518
0.258906
0.35625
0.478599
0.521884
0.630832
0.777998
0.848105
0.875539
0.88695
0.886504
0.898223
0.160719
0.168562
0.199032
0.317064
0.510234
0.456582
0.322363
0.548636
0.749101
0.787586
0.828354
0.874677
0.918056
0.948534
0.962671
0.987097
0.995324
0.999409
0.999409
0.999409
0.999409
0.971977
0.917034
0.93003
0.930019
0.93003
0.929834
0.929694
0.929381
0.620033
0.654438
0.960486
0.998326
0.998279
0.998524
0.999124
0.999318
0.999318
0.999318
0.999318
0.999311
0.99896
0.998964
0.999321
0.999315
0.996971
0.731427
0.773764
0.814789
0.812396
0.790206
0.742435
0.517814
0.517842
0.713101
0.93049
0.995748
0.998366
0.998339
0.99753
0.997569
0.999065
0.999315
0.999316
0.997487
0.988614
0.988658
0.997091
0.999122
0.032639
0.0697527
0.132562
0.153461
0.112317
0.158001
0.289008
0.370283
0.448378
0.493667
0.503404
0.515993
0.52324
0.525358
0.539549
0.624803
0.686936
0.635016
0.563469
0.601168
0.720416
0.829535
0.890744
6.02895e-25
4.50056e-27
-1.01278e-22
-7.50669e-21
4.179e-20
3.95597e-23
-2.76983e-08
-3.69478e-11
2.07579e-08
1.63905e-25
-3.06621e-27
-1.92451e-26
-1.51374e-12
-5.29599e-25
1.84825e-24
9.02406e-13
0.0214885
0.0884721
0.178881
0.194534
0.173591
0.17328
0.221302
1.14289e-06
3.55989e-09
0.000364432
0.000791749
0.000786116
0.000169408
6.09662e-08
3.18886e-07
4.50012e-07
4.3091e-07
2.07418e-07
4.45286e-08
2.50689e-17
1.07432e-05
1.53734e-05
1.15107e-05
5.70539e-06
1.48152e-06
-2.22106e-07
-1.40441e-20
7.69601e-20
2.9109e-20
2.25332e-21
2.52378e-06
2.09247e-05
1.96024e-05
6.30044e-05
6.39592e-05
3.97432e-05
2.35651e-06
5.92391e-07
5.80751e-07
9.25025e-07
1.57521e-06
8.81719e-07
2.36955e-07
2.3391e-07
2.42362e-07
9.94951e-05
0.00010745
0.000108924
9.09605e-05
3.03131e-05
-1.3305e-22
-9.53719e-11
-1.50008e-10
2.33386e-06
1.47397e-05
1.94248e-05
7.98818e-05
0.00012446
0.000124933
4.0126e-05
6.04372e-07
6.07578e-07
9.39956e-06
1.4175e-05
6.50511e-06
2.33717e-07
2.34945e-07
2.40153e-07
2.47906e-07
5.2261e-05
7.25976e-05
4.15465e-05
2.74146e-06
2.51798e-09
7.18304e-13
2.03567e-14
1.09709e-06
2.04852e-08
1.26232e-07
1.07936e-07
3.53959e-05
3.98473e-05
1.99441e-05
2.33845e-06
1.11605e-05
1.41823e-05
1.41495e-05
6.06585e-06
3.97909e-07
3.07038e-07
8.49487e-07
9.48601e-07
1.23598e-05
2.1261e-05
1.14798e-05
3.26346e-07
9.51429e-09
4.17046e-08
3.23356e-07
3.01775e-08
2.10982e-08
5.38426e-08
1.27674e-07
7.03819e-08
6.59437e-08
3.50608e-06
1.46205e-05
1.4616e-05
7.88716e-06
5.25039e-06
5.48919e-06
1.07208e-05
1.69312e-05
2.91202e-05
3.49254e-05
2.09173e-05
5.95723e-07
2.02043e-08
9.53271e-09
9.57073e-09
1.22537e-08
9.49863e-09
4.1812e-08
1.57936e-08
2.38716e-09
2.98058e-07
5.40409e-07
3.14821e-07
1.53415e-06
5.43483e-06
5.25625e-06
5.86254e-06
6.06011e-06
1.01892e-05
7.80837e-05
0.000101459
5.80222e-05
3.52716e-05
1.25396e-05
8.65392e-09
1.90855e-06
1.80735e-05
1.93262e-05
1.9417e-05
1.79106e-05
2.93602e-08
2.40015e-09
2.3638e-09
1.6687e-07
5.49943e-07
3.59092e-07
1.3932e-06
3.14379e-06
7.06823e-06
1.63283e-05
3.91141e-05
6.50169e-05
0.000102343
0.00010231
0.000102291
5.25245e-05
1.49288e-05
8.52283e-09
1.26806e-05
2.76118e-05
2.76207e-05
1.50831e-05
3.04839e-06
2.81046e-08
2.77557e-09
4.07344e-09
3.98184e-09
3.63105e-07
9.06801e-06
2.48524e-05
3.17848e-05
2.8748e-05
1.24422e-05
1.96409e-05
0.000100301
0.000102179
8.11493e-05
2.0287e-06
2.04296e-08
2.16001e-06
2.70655e-05
2.74483e-05
2.73078e-05
7.25537e-06
3.99533e-08
3.18665e-06
3.19753e-08
5.6812e-09
1.38935e-08
1.88002e-08
2.34793e-06
3.23584e-05
3.40356e-05
3.37874e-05
6.89037e-06
1.03037e-07
4.68398e-06
4.95424e-05
5.57449e-05
2.08437e-08
2.05609e-08
2.09656e-08
3.01348e-06
2.01849e-05
1.94007e-05
1.00203e-08
1.4588e-08
3.99059e-08
2.0439e-06
3.40456e-08
7.2226e-09
2.03797e-08
6.71237e-08
2.74459e-06
2.71055e-05
3.25983e-05
3.59438e-06
5.65256e-08
1.03082e-07
1.51346e-07
1.65549e-08
1.76578e-08
2.80767e-08
1.28279e-07
2.13199e-07
1.51314e-07
1.40425e-08
1.13125e-08
1.00225e-08
1.98487e-08
7.08376e-08
1.03955e-07
3.38526e-08
6.5448e-09
1.73405e-08
5.79101e-08
3.35082e-07
1.04612e-06
2.03494e-06
4.17512e-08
4.8563e-08
2.9031e-08
1.87176e-08
1.58192e-08
1.65965e-08
2.53465e-08
3.10172e-08
5.07949e-08
8.91711e-08
8.98762e-08
3.91136e-08
1.00326e-08
1.01061e-08
1.27691e-08
1.47566e-08
3.88974e-08
5.70456e-09
7.21662e-09
1.05501e-08
4.21306e-09
4.47786e-09
1.09899e-08
6.43342e-08
1.97304e-07
1.95163e-07
6.43094e-08
1.02515e-08
8.95847e-09
1.26352e-08
1.17448e-08
8.23687e-09
5.52143e-09
1.19123e-08
1.65502e-08
1.53745e-08
9.79372e-09
8.04145e-09
8.8488e-09
4.12494e-08
4.3498e-09
1.31489e-09
1.32149e-09
1.52846e-09
6.40367e-09
1.703e-08
6.04497e-08
1.76041e-07
1.94209e-07
1.45303e-07
1.01293e-08
6.60919e-09
6.39873e-09
6.787e-09
5.85055e-09
4.9722e-09
4.66472e-09
5.48897e-09
7.3129e-09
7.14284e-09
5.8467e-09
5.91955e-09
4.68865e-08
4.0797e-09
1.3301e-09
1.91507e-09
3.69716e-09
7.1271e-09
8.50468e-09
4.79692e-09
1.82499e-09
5.35921e-09
3.10992e-09
8.17555e-09
8.27176e-09
5.35736e-09
3.65942e-09
3.28009e-09
2.94696e-09
2.74126e-09
2.74546e-09
3.01821e-09
3.36889e-09
3.81235e-09
4.05149e-09
4.70248e-08
4.91009e-09
1.35515e-09
1.75681e-09
1.96675e-09
1.76328e-09
1.48962e-09
1.19232e-09
1.23649e-09
1.00299e-09
1.47184e-09
2.55195e-09
3.17948e-09
2.25634e-09
1.86881e-09
1.6485e-09
1.49298e-09
1.40609e-09
1.45235e-09
1.72006e-09
2.04984e-09
2.27874e-09
2.64367e-09
4.69281e-08
3.78063e-09
1.35014e-09
1.36981e-09
1.29538e-09
1.18219e-09
1.06443e-09
1.03243e-09
1.0722e-09
9.96999e-10
9.38296e-10
8.68323e-10
8.40581e-10
8.38981e-10
7.85002e-10
7.34048e-10
7.1577e-10
7.3756e-10
8.19035e-10
9.3699e-10
1.09996e-09
1.43897e-09
1.59361e-09
1.88466e-08
3.6764e-09
1.55138e-09
2.05913e-09
1.76063e-09
1.40528e-09
1.06029e-09
8.09942e-10
6.24518e-10
4.94471e-10
4.06784e-10
3.52482e-10
3.21309e-10
3.07353e-10
3.01579e-10
3.00455e-10
3.23795e-10
3.56445e-10
4.03818e-10
4.91351e-10
6.39542e-10
7.3886e-10
9.28245e-10
4.5736e-09
4.79287e-09
2.78042e-09
3.08353e-09
2.65607e-09
2.11728e-09
1.56979e-09
1.07346e-09
7.01861e-10
4.68559e-10
3.04582e-10
2.00374e-10
1.42932e-10
1.18298e-10
1.11903e-10
1.17653e-10
1.31657e-10
1.53807e-10
1.83457e-10
2.27848e-10
2.81659e-10
3.95419e-10
4.79927e-10
4.57294e-09
4.54022e-09
3.28588e-09
4.19865e-09
3.82878e-09
3.20393e-09
2.40083e-09
1.67369e-09
1.1172e-09
7.31196e-10
4.43204e-10
2.52796e-10
1.34368e-10
7.36548e-11
4.87049e-11
4.32338e-11
4.73518e-11
5.57341e-11
6.91133e-11
9.17046e-11
1.31056e-10
1.69329e-10
2.36389e-10
6.0223e-09
5.19531e-09
4.36158e-09
6.13374e-09
4.61229e-09
3.58639e-09
2.85339e-09
2.33235e-09
1.58778e-09
1.07421e-09
7.34132e-10
4.17194e-10
2.17276e-10
9.94253e-11
4.15342e-11
2.12189e-11
1.62803e-11
1.77633e-11
2.28183e-11
3.28152e-11
4.73207e-11
7.42087e-11
1.09407e-10
6.17225e-09
6.46809e-09
6.48236e-09
8.9541e-09
8.62557e-09
6.78474e-09
3.91315e-09
2.38352e-09
1.83851e-09
1.31313e-09
1.02294e-09
6.65652e-10
3.70325e-10
1.72232e-10
6.67143e-11
2.3437e-11
9.16216e-12
5.97341e-12
6.78453e-12
1.03083e-11
1.83165e-11
3.0838e-11
4.95057e-11
7.89136e-09
9.12688e-09
9.3868e-09
1.44031e-08
7.18793e-08
2.21966e-07
7.32547e-08
2.86371e-09
1.34653e-09
1.17316e-09
1.18209e-09
8.75608e-10
5.56648e-10
2.88174e-10
1.18442e-10
3.94221e-11
1.17839e-11
3.8033e-12
2.34615e-12
3.38562e-12
6.14743e-12
1.29339e-11
2.51665e-11
1.36115e-08
1.04784e-08
1.26948e-08
2.83307e-08
4.26251e-07
8.1779e-07
6.35562e-07
6.84752e-08
5.61163e-10
6.9967e-10
1.08968e-09
9.89335e-10
7.08294e-10
4.16441e-10
1.82117e-10
6.5994e-11
1.95116e-11
5.08706e-12
1.56513e-12
1.36195e-12
2.91194e-12
6.18081e-12
1.31416e-11
2.34121e-08
1.16777e-08
1.86652e-08
8.41303e-08
7.71386e-07
8.1779e-07
8.1779e-07
6.63278e-07
5.62406e-10
5.61183e-10
8.7888e-10
9.93337e-10
7.8531e-10
5.04098e-10
2.48726e-10
9.47211e-11
3.00866e-11
7.86115e-12
1.84763e-12
7.27341e-13
1.09871e-12
3.00418e-12
7.57505e-12
3.0897e-08
1.11632e-08
1.87594e-08
8.99468e-08
7.97602e-07
8.1779e-07
8.1779e-07
7.70496e-07
2.10916e-08
5.62327e-10
8.30344e-10
9.45815e-10
7.65131e-10
5.33635e-10
2.85936e-10
1.17813e-10
4.01698e-11
1.10436e-11
2.54083e-12
6.34799e-13
6.10083e-13
1.64905e-12
4.16294e-12
3.09077e-08
1.11752e-08
1.02452e-08
2.5268e-08
3.515e-07
8.1779e-07
8.1549e-07
1.22807e-07
6.09598e-09
5.60824e-10
9.85171e-10
9.57155e-10
7.29228e-10
5.00312e-10
2.83171e-10
1.25306e-10
4.59073e-11
1.34217e-11
3.13223e-12
6.69558e-13
2.87959e-13
6.18863e-13
2.22122e-12
3.05785e-08
1.06158e-08
1.00975e-08
1.05851e-08
6.29623e-08
4.68538e-07
2.69741e-07
5.56756e-10
5.58662e-10
6.42953e-10
1.12943e-09
9.96577e-10
6.75645e-10
4.38817e-10
2.44629e-10
1.12113e-10
4.3572e-11
1.36536e-11
3.3563e-12
6.98185e-13
2.09095e-13
2.92682e-13
9.20344e-13
3.83428e-08
3.08473e-08
1.88437e-08
2.54896e-08
4.01492e-08
4.00589e-08
5.236e-08
3.37856e-09
7.3118e-10
5.6991e-10
1.12652e-09
9.94539e-10
6.1591e-10
3.62267e-10
1.87435e-10
8.46889e-11
3.38311e-11
1.12484e-11
3.02693e-12
6.43683e-13
1.41824e-13
8.91643e-14
3.78544e-13
3.87078e-08
9.26376e-08
1.80346e-07
2.02047e-07
2.14847e-07
1.28787e-07
5.5886e-08
1.16436e-08
1.38021e-09
4.48179e-10
9.71164e-10
8.84532e-10
5.23649e-10
2.79142e-10
1.28587e-10
5.37864e-11
2.09742e-11
7.1899e-12
2.10666e-12
4.91536e-13
1.00408e-13
3.49232e-14
1.02528e-13
3.8534e-08
1.18688e-07
2.35321e-07
2.35274e-07
2.35151e-07
2.29336e-07
6.62451e-08
1.27424e-08
1.65287e-09
3.20119e-10
6.90264e-10
6.58679e-10
3.90585e-10
1.92953e-10
7.8223e-11
2.84021e-11
1.00587e-11
3.38519e-12
1.06057e-12
2.73794e-13
5.75542e-14
1.42292e-14
3.15386e-14
3.18038e-07
2.10878e-07
1.54809e-07
1.45354e-07
7.94624e-08
1.88849e-08
2.01471e-08
7.44256e-09
1.51823e-09
2.17678e-10
3.82744e-10
3.84834e-10
2.39489e-10
1.13518e-10
3.98462e-11
1.22229e-11
3.58373e-12
1.07493e-12
3.37265e-13
1.07372e-13
2.63375e-14
4.47644e-15
6.44652e-15
3.7966e-07
2.75606e-07
7.58893e-09
6.24635e-11
1.17274e-12
6.39103e-13
7.93853e-14
6.20816e-10
8.70439e-10
1.28769e-10
1.45815e-10
1.62979e-10
1.11928e-10
5.25982e-11
1.69386e-11
4.15055e-12
9.1232e-13
2.10337e-13
6.6562e-14
2.66149e-14
7.12128e-15
1.53571e-15
1.43403e-15
3.45595e-07
1.02219e-07
2.69584e-09
8.57484e-11
3.64129e-11
6.77467e-12
6.53941e-13
2.25641e-14
2.49458e-10
3.28269e-11
3.52101e-11
4.53438e-11
3.52564e-11
1.6737e-11
5.06885e-12
1.01168e-12
1.54684e-13
2.32494e-14
6.92369e-15
4.2995e-15
1.37796e-15
4.20078e-16
2.63034e-16
5.22641e-09
3.79534e-11
4.11422e-11
2.02273e-10
5.14785e-11
4.97694e-12
3.66846e-13
1.35638e-14
4.57012e-11
2.8061e-12
3.07027e-12
6.00967e-12
5.39398e-12
2.6164e-12
7.07356e-13
1.17206e-13
1.21121e-14
1.13864e-15
3.84374e-16
4.34016e-16
2.70673e-16
9.86759e-17
5.7394e-17
0.0650958
0.10168
0.121491
0.169381
0.50796
0.627398
0.71294
0.739667
0.918202
0.982615
0.982514
0.980234
0.91704
0.917067
0.917102
0.96567
0.994226
0.99194
0.990684
0.994928
0.999121
0.997849
0.994562
0.997914
0.913971
0.912073
0.886798
0.882753
0.292549
0.308344
0.267789
0.214118
2.90815e-21
1.4585e-21
-3.3605e-21
-2.20105e-20
-1.51186e-10
-1.25473e-10
-8.51933e-11
-4.76119e-11
8.92811e-07
1.22829e-06
1.23003e-06
4.25842e-07
4.48759e-07
3.26125e-07
8.89897e-08
3.00052e-08
5.92206e-08
3.64979e-07
9.94258e-06
1.38293e-05
9.59205e-06
7.22703e-06
5.7703e-06
4.6212e-06
5.48542e-06
2.04305e-05
3.94013e-05
4.28154e-05
2.03772e-05
2.04078e-05
1.58838e-05
1.59027e-05
3.89719e-06
1.73502e-06
1.31302e-08
1.31527e-08
2.32375e-08
6.131e-08
1.31147e-08
1.71983e-08
1.25184e-08
1.16817e-08
1.35418e-08
1.39355e-08
9.18358e-09
9.24287e-09
9.48511e-09
9.64584e-09
6.19002e-09
6.35609e-09
6.5694e-09
6.65808e-09
4.24002e-09
4.33174e-09
4.38292e-09
4.49783e-09
2.78158e-09
2.84585e-09
2.93679e-09
3.00145e-09
1.7394e-09
1.83222e-09
1.89572e-09
1.96673e-09
1.02587e-09
1.09899e-09
1.16519e-09
1.22113e-09
5.68423e-10
6.16949e-10
6.79911e-10
7.47627e-10
2.94032e-10
3.3331e-10
3.82496e-10
4.21199e-10
1.4744e-10
1.72898e-10
2.07265e-10
2.49089e-10
7.47155e-11
9.45452e-11
1.24222e-10
1.46649e-10
4.1278e-11
5.50285e-11
7.31485e-11
9.30208e-11
2.49768e-11
3.41213e-11
4.87855e-11
6.3845e-11
1.48788e-11
2.1258e-11
3.12694e-11
4.30823e-11
9.10998e-12
1.38619e-11
2.02409e-11
2.85538e-11
4.75366e-12
7.38967e-12
1.18599e-11
1.69793e-11
2.5283e-12
3.93718e-12
6.1881e-12
9.49679e-12
9.81102e-13
1.70959e-12
3.16321e-12
4.49344e-12
3.76066e-13
7.821e-13
1.24727e-12
2.23316e-12
1.12932e-13
2.27182e-13
4.96087e-13
7.43444e-13
3.3282e-14
6.99977e-14
1.35525e-13
2.86092e-13
6.11227e-15
1.50783e-14
3.91245e-14
6.99886e-14
1.08719e-15
3.2078e-15
7.42522e-15
1.8947e-14
1.79462e-16
5.08053e-16
1.55939e-15
3.93618e-15
0.296416
0.0354466
1.61222e-05
3.77128e-05
5.56977e-05
0.0780545
0.238174
0.0223348
0.0222857
0.0420159
0.10266
0.295634
0.292619
0.175539
0.100012
0.10756
0.126566
0.269931
0.366672
0.480359
0.0318874
1.62351e-05
1.6093e-05
0.000959836
0.0190996
0.112889
0.00865581
0.0318133
0.0912264
0.12507
0.208702
0.282389
0.204456
0.317018
0.51363
0.35743
0.27671
0.462269
0.977126
0.803243
0.332315
0.0447389
0.000494516
0.00379827
0.00788685
0.000914507
0.0179342
0.248362
0.449633
0.496091
0.361118
0.315951
0.68628
0.693773
0.694984
0.415806
0.396508
0.990474
0.959042
0.95152
0.733974
0.262078
0.0231669
0.0056615
0.174543
0.652498
0.828582
0.732058
0.587723
0.448179
0.305806
0.469335
0.691075
0.769446
0.7711
0.526165
0.998581
0.96423
0.956147
0.971538
0.924281
0.716106
0.517994
0.791607
0.98374
0.946469
0.937192
0.93348
0.806243
0.415429
0.395999
0.395642
0.630119
0.821845
0.821715
0.99858
0.99515
0.973877
0.984434
0.997739
0.985685
0.962005
0.979672
0.995436
0.995389
0.970296
0.934398
0.93864
0.925198
0.843494
0.586733
0.618205
0.763697
0.820984
0.967603
0.997113
0.998202
0.998652
0.998652
0.998653
0.998228
0.99153
0.989912
0.994937
0.998306
0.957975
0.95116
0.981353
0.985328
0.972864
0.916012
0.844387
0.820713
0.310168
0.533361
0.716681
0.927585
0.998514
0.998516
0.998385
0.998363
0.99836
0.998335
0.998331
0.996796
0.987973
0.983611
0.985989
0.987948
0.987951
0.959081
0.826844
1.13475e-19
0.00979498
0.0433726
0.134232
0.307357
0.447442
0.566535
0.6966
0.734694
0.768795
0.91744
0.996057
0.996032
0.994811
0.978449
0.982093
0.987948
0.985966
0.862475
-5.64312e-12
0.000864122
2.909e-08
3.45961e-08
2.90897e-08
0.000892146
0.00613198
0.0287256
0.0466154
0.055072
0.113082
0.29343
0.605766
0.893323
0.937949
0.950945
0.979663
0.988165
0.952573
5.59184e-07
1.00768e-05
1.76139e-05
2.23641e-06
3.29441e-08
-1.63318e-09
-5.59578e-21
-1.23325e-18
-1.36536e-20
-6.28602e-19
-4.31433e-10
-2.43835e-10
0.0444634
0.261853
0.304341
0.518658
0.937401
0.988134
0.959135
-7.97507e-10
-1.2338e-10
8.28492e-07
9.46415e-07
1.42958e-06
1.30997e-06
3.25787e-08
1.34124e-12
-4.33355e-12
2.46713e-12
1.27203e-06
1.37586e-06
-3.04257e-11
4.60096e-14
6.22323e-14
0.160255
0.895662
0.988157
0.971331
9.04319e-06
3.78887e-07
4.14653e-11
7.0808e-25
-1.00872e-08
2.53311e-14
3.9171e-06
5.46387e-05
6.44839e-05
3.22921e-05
2.76453e-07
2.5439e-07
2.34219e-07
7.84543e-08
-2.0488e-10
0.0363692
0.780368
0.979478
0.979568
4.35313e-06
9.23417e-06
5.30402e-05
0.000147051
0.000192923
0.00019065
0.000267465
0.000293468
0.000183842
9.03749e-05
4.40137e-05
1.23816e-05
1.08761e-06
4.26642e-07
2.50256e-09
3.15065e-09
0.288187
0.850576
0.977058
4.26368e-05
5.63927e-05
8.02884e-05
0.000147816
0.000250083
0.000293459
0.000293445
0.000293467
0.000282498
0.000244123
0.000109336
2.12965e-05
1.73829e-07
4.5262e-07
8.38868e-08
7.41792e-09
1.69396e-09
0.137346
0.412056
1.37622e-05
7.83352e-06
7.97652e-06
1.12275e-05
3.6499e-05
0.000139722
0.000267519
0.000293479
0.000295341
0.000240016
7.65764e-05
1.62773e-05
1.94327e-07
4.16888e-07
2.27906e-07
5.01861e-08
1.91076e-09
1.38752e-10
1.37115e-10
1.31837e-08
1.31653e-08
1.49976e-08
1.51277e-08
1.4997e-08
1.85266e-07
3.38397e-05
8.6935e-05
4.03578e-05
2.62964e-05
1.34081e-05
7.12944e-06
6.37766e-07
3.42011e-08
1.19415e-07
5.33284e-08
1.48517e-08
2.02053e-08
4.89807e-10
1.48559e-08
1.60126e-08
1.88728e-08
2.0562e-08
2.49752e-08
2.43137e-08
6.13723e-09
5.7193e-09
6.14161e-09
5.72364e-09
6.15063e-09
3.20946e-06
1.62901e-06
1.83356e-09
2.04697e-09
1.12948e-08
3.91465e-09
2.15138e-09
2.18e-10
1.41921e-08
1.64316e-08
1.80821e-08
3.07219e-08
8.30675e-08
2.46291e-07
1.62627e-07
1.53723e-08
1.00003e-08
8.2886e-09
5.73768e-09
3.02265e-06
2.05819e-05
3.82913e-06
1.1415e-10
1.05002e-10
1.05216e-10
1.05001e-10
1.06058e-10
1.03638e-08
1.52295e-08
1.95397e-08
5.6871e-08
2.43934e-07
3.56217e-07
3.44348e-07
2.35873e-07
9.68508e-09
6.58648e-09
6.15279e-09
3.35485e-07
2.2131e-05
7.34598e-05
1.07299e-10
2.7113e-06
0.000174733
0.000134393
8.66843e-06
7.1021e-09
9.98083e-09
1.34355e-08
3.04426e-08
1.18017e-07
3.47347e-07
3.57521e-07
2.78222e-07
6.43366e-09
6.43955e-09
7.39117e-09
7.37754e-09
4.28028e-06
7.75181e-05
0.000185189
0.000241179
0.000241336
0.000241285
2.78575e-05
4.6724e-09
5.64262e-09
7.55957e-09
1.16607e-08
2.85949e-08
9.0592e-08
1.66266e-07
8.80675e-08
6.42806e-09
6.43366e-09
1.22184e-08
5.43917e-08
1.87484e-07
1.54978e-05
8.09398e-05
0.000116711
0.000175486
0.000241308
2.49278e-05
3.12899e-09
3.3749e-09
3.81834e-09
4.93564e-09
7.55409e-09
1.27903e-08
1.52249e-08
6.73422e-09
6.42241e-09
6.6263e-09
1.34902e-08
3.55181e-08
2.8316e-08
2.55509e-09
2.55509e-09
2.55509e-09
6.29418e-06
0.000235413
2.11932e-05
2.07857e-09
2.22353e-09
2.35608e-09
2.58473e-09
2.97723e-09
3.69187e-09
4.28875e-09
4.20379e-09
5.9921e-09
6.67381e-09
7.78297e-09
7.32952e-09
4.69404e-09
2.55509e-09
2.55509e-09
2.55509e-09
3.82857e-08
5.38803e-05
0.000157252
1.33696e-09
1.47554e-09
1.59776e-09
1.72926e-09
1.92765e-09
2.35545e-09
3.03805e-09
3.9215e-09
5.17795e-09
5.9827e-09
5.78959e-09
5.63412e-09
1.56011e-08
2.63406e-07
8.78851e-07
5.95479e-07
1.97031e-07
1.34483e-06
0.000200139
8.17613e-10
9.552e-10
1.09045e-09
1.2357e-09
1.41983e-09
1.75523e-09
2.32568e-09
3.21356e-09
4.33262e-09
5.23141e-09
5.28827e-09
6.02491e-09
7.91743e-08
1.37735e-06
1.65236e-06
1.59632e-06
1.15059e-06
2.42305e-06
0.000200523
4.8408e-10
6.09259e-10
7.40519e-10
8.92079e-10
1.09135e-09
1.37026e-09
1.83043e-09
2.55009e-09
3.51759e-09
4.50606e-09
4.92895e-09
5.17204e-09
3.9825e-08
8.92229e-07
1.65904e-06
9.12777e-07
3.70931e-07
1.59072e-06
6.37856e-05
2.89598e-10
3.89125e-10
5.12251e-10
6.61463e-10
8.57009e-10
1.10701e-09
1.47898e-09
2.03894e-09
2.82356e-09
3.7581e-09
4.52619e-09
4.68634e-09
1.06472e-08
1.05321e-07
3.74795e-07
1.87446e-07
1.0735e-07
1.54109e-07
1.39996e-07
1.76616e-10
2.61682e-10
3.70073e-10
5.09606e-10
6.95664e-10
9.26778e-10
1.24567e-09
1.69992e-09
2.32888e-09
3.12044e-09
3.91245e-09
4.25507e-09
4.45877e-09
2.59758e-08
5.73632e-07
2.89928e-06
2.97869e-06
1.23181e-07
1.57967e-07
1.19265e-10
1.8645e-10
2.7759e-10
4.07475e-10
5.78339e-10
7.91638e-10
1.08835e-09
1.50224e-09
2.09202e-09
2.83704e-09
3.62732e-09
4.06495e-09
4.62824e-09
2.26785e-08
1.49217e-06
7.31412e-06
7.31684e-06
6.43148e-06
6.42534e-06
8.24857e-11
1.37318e-10
2.15901e-10
3.25206e-10
4.80973e-10
6.7771e-10
9.52618e-10
1.35608e-09
1.98481e-09
2.94093e-09
4.1673e-09
4.93736e-09
4.73928e-09
1.84705e-08
6.58016e-07
6.36134e-06
7.33791e-06
7.29078e-06
4.87566e-06
6.01401e-11
1.01794e-10
1.65857e-10
2.53015e-10
3.89542e-10
5.56305e-10
7.94158e-10
1.15858e-09
1.79355e-09
2.9861e-09
5.13046e-09
7.85892e-09
7.72242e-09
9.12259e-09
4.52193e-08
9.78602e-07
6.76612e-06
7.30637e-06
3.18387e-07
3.97514e-11
7.17162e-11
1.19313e-10
1.88467e-10
2.86812e-10
4.23982e-10
6.23937e-10
9.16369e-10
1.43446e-09
2.52644e-09
5.20283e-09
1.19468e-08
2.26757e-08
1.57955e-08
1.52e-08
2.32533e-08
7.25434e-07
1.57525e-06
3.46171e-08
2.61553e-11
4.7093e-11
8.06656e-11
1.30485e-10
2.04411e-10
3.04456e-10
4.4861e-10
6.66463e-10
1.06549e-09
1.83013e-09
3.93956e-09
1.16673e-08
4.15807e-08
1.28329e-07
6.91141e-08
1.36842e-08
1.43722e-08
6.13041e-08
1.08383e-08
1.37607e-11
2.82768e-11
4.98691e-11
8.37642e-11
1.31482e-10
2.01668e-10
3.00666e-10
4.6103e-10
7.40852e-10
1.28072e-09
2.52539e-09
7.12915e-09
2.81768e-08
1.60377e-07
2.32963e-07
7.47834e-08
1.70886e-08
1.70831e-08
5.89011e-08
7.49743e-12
1.54611e-11
2.80293e-11
4.8072e-11
7.75747e-11
1.22275e-10
1.87083e-10
2.91787e-10
4.76988e-10
8.35166e-10
1.59494e-09
3.6726e-09
1.30594e-08
5.5213e-08
2.49577e-07
2.59894e-07
5.41506e-08
2.11558e-08
2.41952e-07
3.23035e-12
7.09711e-12
1.41051e-11
2.49168e-11
4.15546e-11
6.78518e-11
1.06536e-10
1.71788e-10
2.86132e-10
5.10279e-10
9.72146e-10
2.00091e-09
4.9783e-09
1.89614e-08
1.03434e-07
2.64123e-07
2.50708e-07
1.66111e-07
2.5715e-07
1.3879e-12
3.0568e-12
6.21364e-12
1.15252e-11
2.04376e-11
3.39577e-11
5.62517e-11
9.20729e-11
1.57753e-10
2.88725e-10
5.62736e-10
1.13563e-09
2.42997e-09
6.40379e-09
2.59366e-08
2.05513e-07
2.64616e-07
2.64745e-07
1.95242e-07
4.47222e-13
1.20558e-12
2.54478e-12
5.00863e-12
9.13068e-12
1.61987e-11
2.79233e-11
4.76517e-11
8.34236e-11
1.55539e-10
3.10373e-10
6.45573e-10
1.33076e-09
2.80776e-09
7.86668e-09
3.04116e-08
2.61692e-07
2.63552e-07
3.73711e-08
1.40227e-13
3.60278e-13
8.22323e-13
1.71821e-12
3.45213e-12
6.46033e-12
1.20055e-11
2.1381e-11
3.9614e-11
7.44783e-11
1.55058e-10
3.39421e-10
7.33491e-10
1.47963e-09
2.80675e-09
6.60534e-09
6.16328e-08
1.49336e-07
1.35595e-08
3.61406e-14
1.01393e-13
2.41138e-13
5.3094e-13
1.1349e-12
2.39567e-12
4.68421e-12
9.03218e-12
1.71569e-11
3.32416e-11
6.92278e-11
1.5676e-10
3.56746e-10
7.77759e-10
1.47506e-09
2.67889e-09
9.05393e-09
1.7076e-08
7.23072e-09
8.37672e-15
2.5763e-14
6.79719e-14
1.6219e-13
3.71627e-13
8.23607e-13
1.73735e-12
3.57454e-12
7.19431e-12
1.44087e-11
3.04048e-11
6.96308e-11
1.6584e-10
3.82685e-10
7.991e-10
1.39304e-09
2.23662e-09
2.57245e-09
3.84166e-09
)
;

boundaryField
{
    leftWall
    {
        type            zeroGradient;
    }
    rightWall
    {
        type            zeroGradient;
    }
    lowerWall
    {
        type            zeroGradient;
    }
    atmosphere
    {
        type            inletOutlet;
        inletValue      uniform 0;
        value           nonuniform List<scalar> 
46
(
5.22641e-09
0
0
0
0
0
0
0
0
0
0
0
0
0
0
0
0
0
0
0
0
9.86759e-17
5.7394e-17
1.79462e-16
5.08053e-16
1.55939e-15
3.93618e-15
8.37672e-15
2.5763e-14
6.79719e-14
1.6219e-13
3.71627e-13
8.23607e-13
1.73735e-12
3.57454e-12
7.19431e-12
1.44087e-11
3.04048e-11
6.96308e-11
1.6584e-10
3.82685e-10
7.991e-10
1.39304e-09
2.23662e-09
2.57245e-09
3.84166e-09
)
;
    }
    defaultFaces
    {
        type            empty;
    }
}


// ************************************************************************* //
