/*--------------------------------*- C++ -*----------------------------------*\
| =========                 |                                                 |
| \\      /  F ield         | OpenFOAM: The Open Source CFD Toolbox           |
|  \\    /   O peration     | Version:  2312                                  |
|   \\  /    A nd           | Website:  www.openfoam.com                      |
|    \\/     M anipulation  |                                                 |
\*---------------------------------------------------------------------------*/
FoamFile
{
    version     2.0;
    format      ascii;
    arch        "LSB;label=32;scalar=64";
    class       volScalarField;
    location    "2.9";
    object      alpha.water_0;
}
// * * * * * * * * * * * * * * * * * * * * * * * * * * * * * * * * * * * * * //

dimensions      [0 0 0 0 0 0 0];

internalField   nonuniform List<scalar> 
2268
(
2.16451e-07
4.81336e-08
3.63207e-09
5.45068e-10
3.11213e-10
1.83124e-10
8.80397e-11
5.62793e-11
4.22736e-11
3.51225e-11
3.30663e-11
3.4172e-11
3.81533e-11
4.621e-11
6.02285e-11
8.2225e-11
1.16485e-10
1.71622e-10
2.56964e-10
4.81286e-10
8.1761e-10
1.14692e-09
1.34651e-09
5.53346e-07
2.11308e-07
9.83035e-12
2.8967e-10
2.75398e-10
1.75683e-10
1.52176e-10
1.25925e-10
8.21996e-11
5.84456e-11
4.76904e-11
4.70414e-11
5.53306e-11
7.25241e-11
9.96495e-11
1.34965e-10
1.86721e-10
3.31521e-10
5.28857e-10
9.06629e-10
1.5469e-09
2.0383e-09
1.70266e-09
3.89989e-07
1.74606e-07
8.85246e-12
6.75994e-10
2.10028e-10
2.51148e-10
3.89548e-10
3.50478e-10
2.37452e-10
1.08748e-10
6.4539e-11
5.77414e-11
6.59203e-11
1.06465e-10
1.53376e-10
1.96088e-10
2.40549e-10
3.30529e-10
4.93898e-10
8.79153e-10
2.09735e-09
4.65094e-09
1.34953e-09
3.1777e-08
2.17777e-08
1.26574e-11
1.12391e-10
4.11569e-11
6.43628e-11
1.35747e-10
1.39905e-10
9.93081e-11
4.6476e-11
2.982e-11
2.65993e-11
3.74391e-11
6.60136e-11
8.94461e-11
9.6551e-11
1.20986e-10
1.12355e-10
1.59195e-10
5.20822e-10
3.1498e-09
9.53395e-09
7.59742e-10
9.66113e-18
3.31446e-18
-6.10225e-30
-2.75147e-29
9.88538e-24
2.71633e-23
-2.35e-29
2.01174e-23
2.20021e-13
1.75055e-12
1.78598e-12
5.24242e-12
2.42249e-12
4.45986e-15
4.06936e-13
2.29471e-15
7.36905e-09
5.28191e-18
4.00306e-13
-3.53e-20
3.9854e-13
1.6297e-05
7.66427e-10
0.35525
0.344739
0.319644
0.289744
0.251175
0.197508
0.120201
0.0424064
3.58847e-20
8.77413e-27
3.08027e-20
-3.49192e-20
6.5171e-07
0.000117483
0.00909034
0.0386005
0.0892802
0.155477
0.237487
0.314782
0.373035
0.40213
0.393007
0.968727
0.965317
0.959773
0.951365
0.93628
0.908039
0.844015
0.717572
0.532484
0.34526
0.246387
0.229859
0.278293
0.398264
0.54648
0.683363
0.791977
0.873447
0.927353
0.959656
0.966805
0.974256
0.97419
0.996921
0.998003
0.99863
0.999323
0.999497
0.999497
0.999497
0.999497
0.998369
0.981821
0.94555
0.921699
0.935031
0.954619
0.951578
0.936688
0.952985
0.979983
0.979989
0.980003
0.980009
0.980015
0.978773
0.0259697
0.0259038
0.0258923
0.0238083
0.0113301
0.011189
0.0144993
0.0196882
0.0196924
0.0196914
0.0177968
0.0163018
0.0163043
0.0163114
0.0136256
0.009131
0.0090155
0.00857713
0.00803872
0.138296
0.0639159
0.020477
0.00892583
0.00892822
0.00895955
0.00963243
0.0122276
0.0152542
0.0171789
0.011624
0.00667378
0.00628422
0.00578385
0.00556006
0.00554746
0.00556303
0.00747196
0.00788091
0.626592
0.512035
0.411291
0.247486
0.0772277
0.00479359
0.00476946
0.00479143
0.00476683
0.00674331
0.0261884
0.0445559
0.0437751
0.0271941
0.0400262
0.103914
0.0193173
0.00757185
0.00756328
0.636915
0.697595
0.685287
0.546279
0.316355
0.0529406
0.00727497
0.115886
0.228057
0.302429
0.361289
0.392577
0.372871
0.320947
0.295017
0.349405
0.300009
0.243097
0.234102
0.637981
0.922177
0.944209
0.699828
0.536618
0.416062
0.52321
0.87995
0.908063
0.872132
0.474495
0.441435
0.414457
0.600923
0.705051
0.770331
0.857079
0.843367
0.521652
0.667066
0.902174
0.975919
0.961245
0.753627
0.475623
0.948463
0.968967
0.964807
0.882353
0.456181
0.451834
0.573808
0.868104
0.869673
0.869483
0.866551
0.867593
0.870128
0.890203
0.890138
0.959807
0.999413
0.938092
0.599897
0.902282
0.970488
0.859705
0.496629
0.44507
0.445057
0.608383
0.869673
0.869711
0.869664
0.869586
0.867985
0.870366
0.883723
0.9141
0.972015
0.99952
0.996606
0.8096
0.718204
0.970866
0.892066
0.706479
0.659856
0.657717
0.648177
0.767964
0.869762
0.869754
0.858388
0.83359
0.870128
0.998276
0.999039
0.999494
0.999494
0.999497
0.999396
0.999497
0.999497
0.999497
0.999497
0.999493
0.999483
0.99948
0.978793
0.901487
0.759352
0.834457
0.978236
0.975079
0.975029
0.979608
0.980009
0.970566
0.999124
0.999124
0.996792
0.994659
0.995406
0.992905
0.989456
0.993187
0.99729
0.998553
0.991659
0.974583
0.977173
0.951263
0.781234
0.711963
0.823505
0.811232
0.771916
0.737282
0.692327
0.659622
0.594587
0.999124
0.999119
0.999119
0.996313
0.981999
0.978546
0.873718
0.819195
0.850459
0.849989
0.800588
0.736602
0.666861
0.571631
0.458493
0.433109
0.326217
0.164918
0.0935518
0.0646449
0.0436518
0.0307556
0.0187628
0.809625
0.798753
0.757104
0.644451
0.452262
0.481402
0.614496
0.402207
0.209573
0.160479
0.115039
0.0727142
0.0392944
0.0208024
0.0163414
-2.69326e-20
-2.47155e-07
9.29826e-07
4.8264e-05
4.74843e-05
1.66653e-05
8.71072e-13
8.59632e-13
0.00214331
0.000550152
0.00117609
0.000114861
0.00011504
0.000114861
0.123929
0.246797
0.0352012
0.000299855
4.46818e-06
3.11617e-06
3.09716e-06
4.72665e-06
1.36153e-05
6.6903e-05
0.000235639
0.000414443
0.000771738
0.000745719
0.000385009
0.000129828
5.87508e-05
0.00293948
0.000592298
0.000177137
0.000182025
0.000114861
0.00011504
0.0516771
0.115859
0.0682948
0.00336427
3.11546e-06
3.19056e-06
3.65874e-05
0.000278444
0.000439085
0.00026721
5.91906e-05
5.9826e-05
0.00258854
0.0113701
0.010949
0.00226058
0.00056657
0.00540296
0.00429733
0.00321515
0.00519326
0.00267449
0.00358895
0.00392241
0.00512263
0.00903017
0.00906653
0.00608904
0.000338713
3.91916e-05
0.00126409
0.00596316
0.00718369
0.00278114
0.000100828
8.02689e-05
0.00658298
0.0204438
0.0204297
0.0149673
0.00531706
0.00305766
0.00455741
0.00529389
0.00530797
0.00244064
0.000310808
3.11832e-06
5.57265e-07
1.16272e-07
0.000162166
0.000296088
0.000257962
0.000202932
0.00362694
0.00941755
0.00958762
0.00958102
0.00278381
0.00216437
0.00513601
0.0186835
0.0200206
0.000246628
0.00049433
0.000216614
0.00264989
0.00326233
0.00100335
7.27144e-07
9.33045e-08
8.16557e-08
1.6036e-07
5.17989e-07
4.66802e-07
8.83437e-05
0.000187155
0.000104782
0.000100424
0.000107773
0.00012115
0.00638762
0.0103622
0.0104118
0.0075834
0.00439581
1.31758e-07
0.000516051
0.000177071
2.66927e-06
2.62701e-06
2.83004e-06
9.57175e-07
1.12663e-07
6.52735e-08
2.26289e-06
1.4436e-05
1.22707e-05
1.13165e-06
8.01911e-07
5.64089e-07
0.000143725
0.000206249
0.000145417
6.6585e-05
0.000232455
0.000964688
0.00343205
0.00313839
7.08193e-08
0.000505784
0.000536226
0.000161978
2.61558e-05
7.67248e-09
9.3976e-09
1.59003e-07
6.44896e-08
3.28535e-05
6.23123e-05
6.24965e-05
1.917e-05
7.51902e-07
5.34363e-07
4.23773e-07
0.000134137
0.000203179
0.000168004
6.61592e-06
3.58408e-07
0.000158959
0.000528052
6.89121e-08
4.46602e-05
0.000227914
0.000191763
1.41137e-05
1.4979e-08
6.89556e-06
1.20388e-05
4.92722e-05
6.23657e-05
6.2444e-05
5.63327e-05
1.10911e-05
5.56075e-07
4.25569e-07
4.25012e-07
4.24963e-07
4.55208e-07
3.65531e-06
1.40533e-06
3.45199e-07
3.46975e-07
3.47039e-07
6.71571e-08
8.05216e-08
1.12563e-07
9.60895e-08
4.2849e-06
9.68901e-07
3.44844e-05
6.19124e-05
6.18532e-05
4.89256e-05
1.12189e-05
7.44329e-06
2.11858e-06
4.24525e-07
4.29474e-07
8.20008e-07
9.96268e-07
6.23195e-07
3.4648e-07
3.45016e-07
3.46445e-07
3.45241e-07
3.46962e-07
2.75376e-08
1.02169e-07
2.91864e-07
2.08116e-07
1.98968e-07
4.68778e-07
7.45947e-06
1.95797e-05
3.86699e-06
1.86593e-06
3.3139e-06
3.47345e-06
6.00729e-06
2.1688e-05
3.31925e-05
3.51969e-05
1.97452e-05
1.12391e-06
4.80757e-06
5.58832e-05
5.67446e-05
5.66312e-05
1.07821e-05
2.71507e-08
1.18319e-07
7.6205e-07
8.80224e-07
6.62732e-07
6.49491e-07
6.55679e-07
6.64223e-07
1.25957e-06
1.1735e-06
2.94152e-06
1.29826e-05
5.91425e-05
7.22781e-05
7.21212e-05
7.20604e-05
5.15642e-05
1.07326e-05
1.03105e-05
3.54688e-05
3.43055e-05
1.34604e-05
2.14532e-06
2.46736e-08
8.23734e-08
3.00407e-07
8.60266e-07
1.71444e-06
1.74729e-06
1.08021e-06
1.35646e-06
2.13771e-06
1.62048e-06
3.43545e-06
5.05044e-05
6.47308e-05
5.80025e-05
3.22616e-06
-3.93802e-15
-3.76694e-10
4.66689e-06
5.06681e-06
3.62484e-06
3.43395e-07
1.40937e-09
1.01172e-07
1.84052e-08
4.19084e-08
1.65821e-08
7.11397e-08
1.39785e-06
2.07937e-06
2.08678e-06
1.85887e-06
2.619e-07
1.44196e-07
4.28896e-06
6.30868e-06
3.92941e-06
1.51817e-09
1.54954e-09
2.21209e-08
7.21792e-07
9.83386e-07
7.77945e-07
5.45266e-08
1.22011e-09
1.39945e-09
7.27554e-09
1.18891e-08
2.91799e-08
1.43643e-08
1.8234e-08
8.18403e-08
4.6302e-07
2.39478e-07
1.29073e-08
7.05289e-08
9.55272e-08
1.64762e-09
1.66708e-09
1.67612e-09
2.86153e-09
2.17796e-08
6.18169e-08
5.11225e-08
1.24193e-09
8.92224e-10
7.63933e-10
1.22896e-09
1.70544e-09
1.46682e-09
1.17315e-08
1.71807e-08
8.79068e-09
1.04249e-09
7.09537e-10
7.74868e-10
7.48831e-10
1.35843e-08
6.09689e-08
5.50952e-08
6.66024e-09
2.31959e-09
1.90043e-09
2.32273e-09
7.68466e-09
1.6998e-08
2.08808e-08
2.13583e-08
7.97806e-09
7.6315e-10
9.55823e-10
1.03658e-09
8.39117e-10
1.24393e-08
1.17421e-08
1.05506e-08
8.04449e-09
7.1642e-09
5.96096e-09
5.3495e-09
9.30348e-09
1.29226e-08
9.77343e-09
7.51048e-09
9.98481e-10
1.6752e-09
1.69806e-09
1.44833e-09
1.13147e-09
1.32249e-09
3.12795e-09
3.92057e-09
3.42061e-09
1.97858e-09
1.10808e-09
6.81921e-10
1.45824e-08
9.02096e-09
9.18545e-09
1.01586e-08
1.01251e-08
6.02108e-09
3.26653e-10
1.52054e-10
5.36539e-10
1.30099e-09
7.81402e-10
9.94495e-10
8.88653e-10
8.3032e-10
7.87082e-10
8.20306e-10
1.21786e-09
1.50235e-09
1.62979e-09
1.71659e-09
1.35958e-09
7.43001e-10
4.71338e-10
1.63692e-08
8.72458e-09
4.76133e-09
3.90058e-09
2.64659e-09
7.17877e-10
2.63128e-10
1.51775e-10
1.55732e-10
1.61574e-10
2.26903e-10
3.3831e-10
3.80006e-10
3.85456e-10
3.9283e-10
4.30742e-10
5.75436e-10
7.00009e-10
7.3482e-10
7.37408e-10
5.97346e-10
3.86774e-10
2.19988e-10
1.78244e-08
9.05033e-09
3.46845e-09
2.06067e-09
6.00581e-10
1.48653e-10
1.13813e-10
1.44105e-10
1.49953e-10
1.5611e-10
1.57895e-10
1.60404e-10
1.72963e-10
1.74764e-10
1.81866e-10
2.0583e-10
2.46374e-10
2.77832e-10
2.93187e-10
3.11002e-10
2.73039e-10
1.57289e-10
1.08414e-10
2.20733e-08
6.44947e-09
3.23995e-09
2.34839e-09
1.13767e-09
3.21267e-10
9.64267e-11
7.73934e-11
6.90798e-11
6.33639e-11
6.31261e-11
6.53965e-11
6.97475e-11
7.41127e-11
7.96498e-11
8.67183e-11
9.6429e-11
1.04774e-10
1.10424e-10
1.10826e-10
9.06817e-11
6.60028e-11
5.49849e-11
8.04593e-08
3.26269e-09
1.98804e-09
1.32474e-09
7.1529e-10
2.75995e-10
1.17731e-10
7.81957e-11
5.83047e-11
4.25372e-11
3.47843e-11
3.0435e-11
2.88235e-11
2.92467e-11
3.05129e-11
3.17749e-11
3.36727e-11
3.44969e-11
3.46615e-11
3.50113e-11
3.13579e-11
2.62958e-11
2.52366e-11
1.48303e-07
3.32614e-09
7.04447e-10
3.23822e-10
2.87944e-10
2.17543e-10
1.60026e-10
1.23389e-10
8.51248e-11
5.35677e-11
3.29408e-11
2.15005e-11
1.48166e-11
1.17628e-11
1.05954e-11
1.02758e-11
1.01253e-11
1.00006e-11
9.91538e-12
9.55756e-12
9.05537e-12
9.49531e-12
1.02876e-11
1.71888e-07
3.45317e-08
2.19121e-10
2.19842e-10
2.85884e-10
2.80015e-10
2.47362e-10
2.05784e-10
1.50109e-10
8.9594e-11
5.23441e-11
3.07647e-11
1.65156e-11
8.61288e-12
4.87347e-12
3.50468e-12
2.71002e-12
2.43616e-12
2.39249e-12
2.48824e-12
2.75166e-12
3.0938e-12
3.91253e-12
1.93101e-07
1.36054e-07
2.19669e-10
2.21388e-10
3.9953e-10
4.13216e-10
3.80666e-10
3.31803e-10
2.50576e-10
1.45227e-10
9.21437e-11
5.34493e-11
2.84957e-11
1.35713e-11
5.64662e-12
2.37704e-12
1.15389e-12
6.44672e-13
5.5493e-13
5.88089e-13
6.88196e-13
9.35057e-13
1.34472e-12
1.93617e-07
1.75485e-07
1.68952e-09
2.14624e-10
4.66779e-10
5.30506e-10
5.32189e-10
4.66943e-10
3.78042e-10
2.08276e-10
1.40223e-10
9.17854e-11
5.09243e-11
2.45602e-11
1.01881e-11
3.79187e-12
1.27659e-12
4.39065e-13
1.66921e-13
1.3345e-13
1.74259e-13
2.72377e-13
4.21759e-13
1.76249e-07
1.95588e-07
1.70627e-08
2.14606e-10
4.27458e-10
4.93818e-10
5.44876e-10
7.30958e-10
4.77908e-10
2.76747e-10
1.85087e-10
1.34429e-10
8.20031e-11
4.25713e-11
1.8631e-11
6.94103e-12
2.28542e-12
6.5025e-13
1.75214e-13
4.71039e-14
3.98141e-14
6.62944e-14
1.28804e-13
9.50413e-08
2.32945e-07
1.07436e-07
2.14611e-10
4.4697e-10
3.74014e-10
3.75101e-10
2.05427e-09
4.54558e-10
3.06379e-10
2.48335e-10
1.77536e-10
1.15413e-10
6.52987e-11
2.9426e-11
1.19109e-11
4.05861e-12
1.17179e-12
2.88442e-13
6.44811e-14
1.58058e-14
1.67391e-14
3.24628e-14
8.7103e-08
2.39579e-07
1.60752e-07
2.14606e-10
2.36329e-09
1.427e-08
1.61284e-08
5.81016e-09
3.19759e-10
3.19585e-10
3.03741e-10
2.18635e-10
1.47661e-10
8.6219e-11
4.22483e-11
1.7679e-11
6.47618e-12
1.97013e-12
4.87437e-13
1.02323e-13
1.68189e-14
4.60519e-15
7.46189e-15
2.10631e-08
1.29395e-07
1.17845e-07
2.14612e-10
2.7527e-09
1.21334e-07
2.30651e-07
4.07326e-09
3.20022e-10
3.28868e-10
3.39299e-10
2.58981e-10
1.81335e-10
1.02251e-10
5.20524e-11
2.31065e-11
9.01489e-12
2.92297e-12
7.78473e-13
1.5319e-13
3.05029e-14
2.50227e-15
1.71886e-15
7.59792e-09
2.28133e-08
1.57898e-08
3.63252e-09
1.34834e-09
1.43727e-07
2.72943e-07
1.24343e-07
3.20278e-10
3.37454e-10
3.54292e-10
2.74244e-10
1.90798e-10
1.0889e-10
5.65926e-11
2.6267e-11
1.08839e-11
3.78021e-12
1.04814e-12
2.36122e-13
4.79848e-14
4.01605e-15
4.53897e-16
1.75627e-09
9.76032e-10
6.21276e-10
4.53767e-10
7.65809e-10
2.41454e-07
1.00803e-06
3.4364e-07
3.20415e-10
3.73765e-10
3.52295e-10
2.77398e-10
1.88765e-10
1.06186e-10
5.42458e-11
2.55611e-11
1.10809e-11
4.1068e-12
1.22134e-12
2.88934e-13
5.94837e-14
5.65445e-15
2.44034e-16
1.23887e-09
6.4758e-10
7.29528e-10
1.48989e-09
6.58974e-09
5.64608e-07
1.4569e-06
8.62611e-07
3.20698e-10
4.0762e-10
3.21619e-10
2.57421e-10
1.74681e-10
9.43879e-11
4.59733e-11
2.12118e-11
9.34531e-12
3.6507e-12
1.18467e-12
2.97932e-13
6.25583e-14
8.18091e-15
3.32639e-16
6.4758e-10
6.47331e-10
9.03393e-10
2.45714e-09
2.42549e-09
1.1342e-06
1.45559e-06
7.12922e-07
5.02193e-09
3.95234e-10
2.56978e-10
2.15683e-10
1.44795e-10
7.51093e-11
3.41984e-11
1.48036e-11
6.3525e-12
2.53844e-12
8.8332e-13
2.43127e-13
5.23524e-14
6.1988e-15
4.44432e-16
1.98813e-07
1.45116e-08
1.82688e-09
2.42648e-09
2.41943e-09
6.35771e-07
1.37673e-06
1.08391e-07
1.53779e-09
3.19586e-10
1.7888e-10
1.55961e-10
1.0362e-10
5.20627e-11
2.18966e-11
8.48231e-12
3.34958e-12
1.30774e-12
4.76937e-13
1.41407e-13
3.22601e-14
4.87918e-15
4.36142e-16
5.08357e-07
1.20042e-07
1.83387e-09
2.82396e-09
3.07264e-09
2.86446e-10
5.41147e-08
1.19118e-08
4.72299e-10
2.19502e-10
1.038e-10
9.25807e-11
6.13461e-11
3.02896e-11
1.14226e-11
3.87311e-12
1.29715e-12
4.54429e-13
1.63733e-13
5.75056e-14
1.51548e-14
2.06905e-15
3.01279e-16
5.08357e-07
2.34555e-07
9.07295e-09
4.04104e-09
7.62976e-09
3.59333e-10
1.39038e-11
1.5455e-12
5.11978e-10
1.19667e-10
4.57016e-11
4.23327e-11
2.85351e-11
1.39235e-11
4.88635e-12
1.36117e-12
3.52908e-13
9.71112e-14
3.44242e-14
1.466e-14
4.18517e-15
7.75768e-16
1.5961e-16
3.88793e-07
1.25836e-07
5.00219e-09
1.84541e-09
4.64455e-09
9.3955e-10
8.68128e-11
1.40214e-11
1.26044e-10
2.62851e-11
1.42673e-11
1.34092e-11
9.35656e-12
4.49913e-12
1.47492e-12
3.35924e-13
6.16362e-14
1.12836e-14
3.73805e-15
2.40383e-15
7.99351e-16
2.36998e-16
6.19081e-17
4.04648e-09
1.30347e-11
2.2371e-10
1.28738e-10
2.0897e-11
2.35532e-12
2.73504e-13
9.46831e-12
7.6957e-13
4.00748e-13
2.2288e-12
2.1681e-12
1.61107e-12
7.70409e-13
2.25331e-13
4.33257e-14
5.47593e-15
6.10673e-16
2.09949e-16
2.43474e-16
1.56135e-16
5.65578e-17
2.14853e-17
0.886392
0.841827
0.814818
0.757546
0.481118
0.37567
0.28641
0.236616
0.0043177
0.00108129
0.00930366
1.0474e-06
8.72789e-13
8.36676e-11
6.12279e-05
4.15995e-06
3.06441e-06
1.08721e-10
7.07768e-07
4.40666e-06
2.85878e-05
1.45309e-10
1.56916e-06
1.81084e-06
0.00483486
0.00150951
0.000135287
6.95757e-06
0.020019
0.0197048
0.00309221
4.41191e-05
0.00225383
0.0123615
0.0192895
0.0192429
0.0021345
0.00296352
0.00304021
0.00170959
0.000484279
0.000169802
8.69839e-06
2.26898e-06
4.05275e-07
9.64913e-07
7.84733e-07
2.08312e-06
3.50696e-07
3.45888e-07
3.45355e-07
8.29982e-07
3.45785e-07
3.45357e-07
5.21155e-07
3.2321e-06
9.7524e-07
4.69157e-06
5.65834e-06
5.77932e-06
1.0677e-06
1.89931e-06
1.35634e-06
5.75706e-07
4.10238e-08
1.24621e-09
1.248e-09
1.24602e-09
9.16877e-10
1.25076e-09
1.5071e-09
1.85332e-09
8.99908e-10
1.06773e-09
1.16958e-09
1.31049e-09
5.44137e-10
6.15824e-10
6.7104e-10
7.37107e-10
3.20075e-10
3.46489e-10
3.82197e-10
4.09291e-10
1.89506e-10
2.00237e-10
2.11731e-10
2.3108e-10
1.05964e-10
1.09801e-10
1.17044e-10
1.27581e-10
5.52534e-11
5.85147e-11
6.27848e-11
6.92689e-11
2.66227e-11
2.89262e-11
3.17998e-11
3.5625e-11
1.18955e-11
1.3181e-11
1.52802e-11
1.81043e-11
4.8568e-12
5.64606e-12
6.79003e-12
7.87818e-12
1.84292e-12
2.19725e-12
2.71575e-12
3.41178e-12
6.41836e-13
8.20251e-13
1.07808e-12
1.30217e-12
2.12088e-13
2.74341e-13
3.65707e-13
4.64349e-13
6.22424e-14
8.49764e-14
1.18579e-13
1.56466e-13
1.57281e-14
2.2896e-14
3.45866e-14
4.70853e-14
3.73107e-15
6.04359e-15
9.00921e-15
1.34473e-14
7.27841e-16
1.24039e-15
2.19323e-15
3.1871e-15
1.40186e-16
2.54434e-16
4.2496e-16
7.30227e-16
2.38981e-17
4.19872e-17
9.31575e-17
1.39418e-16
7.00188e-18
8.04376e-18
1.45836e-17
3.19368e-17
4.00849e-18
1.47301e-18
2.63703e-18
4.40203e-18
4.51739e-18
4.88605e-19
3.31913e-19
8.291e-19
4.60058e-18
3.32224e-19
6.66064e-20
8.07143e-20
3.80846e-18
2.85994e-19
1.92855e-20
1.18045e-20
2.59539e-18
1.979e-19
1.22993e-20
1.48169e-21
0.637747
0.928259
0.990658
0.999628
0.999606
0.917321
0.717394
0.970684
0.970382
0.942385
0.87198
0.635444
0.581028
0.716895
0.869788
0.867148
0.776241
0.635961
0.538684
0.491913
0.959721
0.982603
0.95755
0.988424
0.976384
0.885322
0.980194
0.947009
0.887559
0.864555
0.700533
0.581874
0.726905
0.686448
0.487428
0.61843
0.633283
0.447652
-1.87186e-19
0.176638
0.610178
0.859512
0.919867
0.98079
0.980735
0.975496
0.913421
0.663702
0.519395
0.482449
0.520387
0.541289
0.30526
0.283697
0.278688
0.525539
0.544545
1.23212e-10
8.58042e-06
0.0254518
0.193646
0.623193
0.892653
0.938292
0.771347
0.266099
0.0739953
0.17138
0.39559
0.44832
0.502612
0.359272
0.255297
0.209218
0.201285
0.425423
9.14021e-07
2.50014e-07
0.00267157
1.09098e-05
0.022109
0.191744
0.384482
0.160551
0.000312082
-1.5342e-20
-9.44434e-24
-8.30566e-08
0.0903511
0.386202
0.409176
0.410924
0.336438
0.151646
0.0865172
8.00327e-05
2.67991e-07
6.5414e-05
1.18235e-05
-7.2421e-08
-1.45432e-11
8.30151e-20
1.21665e-19
1.0218e-05
-2.24753e-08
0.000626663
0.00128293
0.000181736
0.0172126
0.0280712
0.266839
0.30813
0.214261
0.0865263
0.000193578
0.000634697
0.000602006
8.76837e-05
2.37708e-05
4.18934e-08
-7.62924e-26
-4.5067e-22
6.77096e-10
-4.04471e-10
1.52899e-05
6.14731e-05
0.000178495
0.00191588
0.00173408
0.00122782
0.043667
0.139194
0.102251
3.3432e-05
0.00179736
0.00210906
0.00176236
0.000415227
0.000423016
0.000533891
0.000510224
0.000392836
0.000288735
0.00013795
2.05605e-07
0.000260092
0.00199946
0.00204355
0.00123413
0.00062846
0.036773
0.109053
0.0156074
0.00458087
0.0003334
0.000263978
0.00140377
0.00393913
0.00420153
0.00419864
0.00419824
0.00230955
3.66848e-05
1.99123e-07
1.82993e-05
0.000212839
0.00724489
0.0033238
0.000721719
0.00860132
0.104013
0.0116694
0.0137452
0.00983222
0.000401733
0.000197435
0.000361112
0.00181893
0.00377076
0.00280199
0.000845297
6.81341e-06
1.87741e-07
1.8908e-07
0.000307129
0.00857009
0.0079901
0.000791646
0.00466972
0.0113885
0.000636408
0.0100912
0.00957427
0.000960421
1.67445e-06
1.7309e-06
3.12449e-05
0.000207365
0.000173281
9.04927e-05
2.21971e-05
1.89008e-07
1.87726e-07
0.00437227
0.00933683
0.00933827
0.00219355
0.00375519
0.000368136
2.26437e-06
0.000242925
0.00109805
0.000730123
1.85516e-05
1.74439e-06
1.70644e-06
4.64788e-06
6.78732e-06
2.29656e-06
1.89041e-07
1.87693e-07
4.1709e-05
0.00760939
0.00933789
0.00685238
0.000717301
0.00270245
0.000368861
3.64888e-06
1.69318e-05
1.83708e-05
6.91132e-05
1.80004e-05
5.96032e-06
1.80027e-06
1.72733e-06
1.72185e-06
9.24391e-05
0.00016532
2.33435e-05
4.15472e-06
0.00395711
0.00174098
0.00039655
3.26698e-05
0.00049457
0.000151247
4.44391e-06
3.16853e-05
3.55775e-05
2.77131e-05
2.67108e-05
2.5779e-05
1.81723e-05
1.55348e-05
0.000118094
0.000209542
0.000209581
0.000140984
4.51504e-06
5.934e-06
1.60668e-06
1.60396e-06
1.81446e-05
0.000181183
1.40703e-05
5.81607e-06
1.60119e-05
2.52913e-05
6.38186e-06
8.72903e-06
2.1054e-05
5.8483e-05
5.99051e-05
7.355e-05
0.000108154
0.000163377
0.00015869
9.11671e-06
1.60983e-06
1.60396e-06
3.09723e-06
9.30201e-06
4.10465e-08
4.10151e-08
4.55055e-07
2.76541e-07
4.22321e-07
2.22374e-09
5.99451e-09
2.72724e-06
1.88355e-05
3.17514e-05
3.66887e-05
2.97539e-05
2.774e-05
7.78121e-05
5.44418e-05
3.09829e-06
1.60697e-06
1.60442e-06
5.00489e-06
1.39874e-06
4.10722e-08
1.46639e-09
1.80278e-09
1.82379e-09
2.20534e-09
2.22364e-09
2.24214e-09
2.24952e-09
2.2468e-08
1.5286e-08
8.76029e-08
2.16651e-05
4.46137e-05
5.85264e-05
3.6011e-05
3.43647e-06
3.91865e-06
3.25927e-06
8.36003e-07
5.94694e-08
1.98136e-09
2.6754e-09
3.19595e-09
3.32358e-09
3.29626e-09
2.69233e-09
2.24953e-09
2.43095e-09
1.96581e-08
8.47469e-07
1.01053e-05
1.05522e-05
2.30615e-05
2.86149e-05
1.74252e-05
6.59076e-06
2.02639e-07
6.78703e-08
4.75369e-08
1.47846e-09
1.98717e-09
2.31045e-09
2.67762e-09
2.93991e-09
4.43559e-09
9.47736e-09
1.91718e-08
2.77013e-08
1.35384e-07
4.8352e-09
6.51211e-09
5.05116e-06
9.30649e-06
1.12177e-05
7.08668e-06
1.5088e-06
7.26891e-08
1.1448e-07
8.17611e-10
1.06315e-09
1.20547e-09
1.41343e-09
2.60278e-09
7.85543e-09
1.62342e-08
2.40692e-08
2.4103e-08
9.98024e-09
4.8352e-09
4.83538e-09
1.00681e-06
3.48978e-06
6.77278e-06
1.51174e-05
1.49046e-05
8.76217e-06
6.97502e-07
4.52348e-10
5.9049e-10
7.09956e-10
9.43486e-10
1.63707e-09
5.39068e-09
1.17198e-08
1.68564e-08
2.40376e-08
1.49181e-08
4.8352e-09
4.83501e-09
7.30078e-07
9.75597e-06
1.51174e-05
1.51215e-05
1.51223e-05
1.51315e-05
1.21966e-06
2.57152e-10
3.52315e-10
4.54865e-10
6.33358e-10
9.62914e-10
1.63043e-09
3.31212e-09
6.66778e-09
1.21965e-08
9.85857e-09
7.05075e-09
7.57743e-08
1.89512e-06
9.19626e-06
1.4169e-05
1.51174e-05
1.5062e-05
1.51343e-05
2.22888e-06
1.50021e-10
1.9994e-10
2.77603e-10
4.1486e-10
6.28759e-10
9.66284e-10
1.42964e-09
2.40491e-09
3.4045e-09
5.33586e-09
3.43316e-08
2.94576e-07
1.12357e-06
9.61625e-07
2.09249e-06
6.4636e-06
1.94449e-06
5.03381e-06
7.31625e-06
8.35161e-11
1.1323e-10
1.64106e-10
2.57978e-10
4.03021e-10
6.28702e-10
1.02506e-09
1.79793e-09
3.34937e-09
6.71218e-09
2.55681e-08
9.47934e-08
9.34378e-08
4.9231e-08
5.70597e-08
7.52006e-08
7.53726e-08
8.86758e-07
1.76847e-05
4.52943e-11
6.27099e-11
9.3719e-11
1.49245e-10
2.37849e-10
3.86802e-10
6.46359e-10
1.18318e-09
2.27947e-09
4.1914e-09
7.70201e-09
9.49562e-09
1.11089e-08
2.99799e-08
3.3123e-08
4.18085e-08
6.38414e-09
9.15284e-07
1.76825e-05
2.20027e-11
3.18829e-11
4.87375e-11
7.82977e-11
1.26279e-10
2.09741e-10
3.5643e-10
6.60526e-10
1.26786e-09
2.28151e-09
3.29914e-09
3.96951e-09
1.56385e-08
3.05617e-08
3.0266e-08
1.35316e-08
4.66887e-09
7.30967e-07
1.76853e-05
9.91244e-12
1.48754e-11
2.29728e-11
3.68649e-11
6.1598e-11
1.01386e-10
1.75518e-10
3.28871e-10
6.41988e-10
1.18885e-09
1.87629e-09
2.61538e-09
8.23876e-09
1.7751e-08
2.51275e-08
1.48744e-08
9.61227e-09
3.22227e-07
5.45974e-06
4.18052e-12
6.35e-12
9.9526e-12
1.60181e-11
2.69015e-11
4.46573e-11
7.81103e-11
1.48145e-10
2.95338e-10
5.65956e-10
9.4228e-10
1.21461e-09
1.42177e-09
1.99983e-09
4.49673e-09
8.08566e-09
7.21324e-09
1.3669e-08
8.91187e-09
1.6069e-12
2.54162e-12
4.00811e-12
6.42145e-12
1.07438e-11
1.78825e-11
3.14803e-11
6.05285e-11
1.24074e-10
2.49356e-10
4.44876e-10
6.22866e-10
4.61473e-10
2.34279e-10
5.06148e-10
9.42953e-10
2.48805e-09
1.73746e-09
2.45794e-09
5.97997e-13
9.563e-13
1.48964e-12
2.41779e-12
3.95924e-12
6.52857e-12
1.13788e-11
2.18614e-11
4.57952e-11
9.80111e-11
2.02405e-10
2.9867e-10
2.60482e-10
1.02521e-10
7.36237e-11
1.20567e-10
4.2554e-10
1.62847e-09
3.71133e-09
2.01813e-13
3.39679e-13
5.32796e-13
8.35026e-13
1.35603e-12
2.16209e-12
3.61591e-12
6.54929e-12
1.27743e-11
2.38728e-11
3.14097e-11
5.5951e-11
9.92301e-11
6.79462e-11
4.56531e-11
5.58231e-11
1.52297e-10
6.42814e-10
2.25331e-09
6.71378e-14
1.11649e-13
1.80169e-13
2.74663e-13
4.43993e-13
6.73467e-13
1.05452e-12
1.76313e-12
3.06355e-12
4.60146e-12
1.69654e-12
4.10158e-12
1.58945e-11
2.92478e-11
2.38731e-11
2.23439e-11
3.73818e-11
1.30889e-10
2.47381e-10
1.8501e-14
3.3582e-14
5.516e-14
8.5029e-14
1.25676e-13
1.91054e-13
2.97325e-13
4.5931e-13
7.19455e-13
9.9359e-13
4.61653e-13
2.9452e-13
1.50874e-12
9.80235e-12
1.26195e-11
9.4959e-12
6.93226e-12
8.53714e-12
2.19703e-11
5.12705e-15
9.29737e-15
1.56631e-14
2.43645e-14
3.69332e-14
5.27692e-14
7.47401e-14
1.07428e-13
1.62637e-13
2.16172e-13
1.31916e-13
8.1715e-14
1.48857e-13
1.6356e-12
2.9848e-12
4.9401e-12
2.63566e-12
2.34876e-12
2.10059e-12
1.07331e-15
2.36382e-15
4.16342e-15
6.74483e-15
9.83328e-15
1.40491e-14
1.93523e-14
2.74879e-14
3.8681e-14
5.06586e-14
4.02764e-14
3.14028e-14
4.60783e-14
2.03652e-13
7.69368e-13
1.4068e-12
1.70447e-12
1.20216e-12
8.29141e-13
2.64294e-16
5.83127e-16
1.04749e-15
1.70759e-15
2.52792e-15
3.56326e-15
4.93953e-15
7.01811e-15
1.02475e-14
1.42621e-14
1.63363e-14
1.94095e-14
3.54145e-14
7.81808e-14
2.84063e-13
5.54744e-13
9.67239e-13
8.79445e-13
5.14692e-13
4.89794e-17
1.17428e-16
2.37479e-16
3.97711e-16
6.05997e-16
8.86582e-16
1.25488e-15
1.87925e-15
2.99051e-15
4.90408e-15
7.92941e-15
1.3642e-14
2.70033e-14
6.08892e-14
1.49339e-13
3.69553e-13
5.26592e-13
6.10278e-13
4.60772e-13
9.99953e-18
2.38474e-17
4.8627e-17
8.61423e-17
1.40424e-16
2.05816e-16
3.16245e-16
5.13616e-16
9.69809e-16
1.99944e-15
4.20242e-15
8.9442e-15
1.94082e-14
4.27927e-14
1.03326e-13
2.5544e-13
4.19264e-13
4.90231e-13
3.6149e-13
1.47229e-18
4.60792e-18
9.90714e-18
1.86754e-17
3.10044e-17
4.91015e-17
8.013e-17
1.50494e-16
3.46161e-16
8.79206e-16
2.21611e-15
5.40197e-15
1.26254e-14
2.81658e-14
6.61944e-14
1.52648e-13
3.07856e-13
3.79077e-13
2.50199e-13
2.17537e-19
6.18965e-19
1.4537e-18
2.91384e-18
5.48057e-18
9.23456e-18
1.74695e-17
3.89569e-17
1.15963e-16
3.47535e-16
1.04751e-15
2.88368e-15
7.29724e-15
1.71236e-14
3.79234e-14
8.60467e-14
1.85347e-13
2.65995e-13
1.65954e-13
2.63412e-20
8.21717e-20
2.00332e-19
4.20769e-19
8.62547e-19
1.80493e-18
3.73235e-18
1.03692e-17
3.5288e-17
1.25355e-16
4.23617e-16
1.30772e-15
3.57397e-15
9.06819e-15
2.08197e-14
4.65122e-14
1.02119e-13
1.51151e-13
9.50168e-14
3.07654e-21
1.08019e-20
2.97928e-20
6.87772e-20
1.50035e-19
3.24278e-19
7.64744e-19
2.45134e-18
9.98602e-18
4.13878e-17
1.60051e-16
5.47174e-16
1.6345e-15
4.35572e-15
1.05722e-14
2.31359e-14
4.68418e-14
6.55989e-14
4.31921e-14
)
;

boundaryField
{
    leftWall
    {
        type            zeroGradient;
    }
    rightWall
    {
        type            zeroGradient;
    }
    lowerWall
    {
        type            zeroGradient;
    }
    atmosphere
    {
        type            inletOutlet;
        inletValue      uniform 0;
        value           nonuniform List<scalar> 
46
(
4.04648e-09
0
0
0
0
0
0
0
0
0
0
0
0
0
0
0
0
0
0
0
0
5.65578e-17
2.14853e-17
2.59539e-18
1.979e-19
1.22993e-20
1.48169e-21
3.07654e-21
1.08019e-20
2.97928e-20
6.87772e-20
1.50035e-19
3.24278e-19
7.64744e-19
2.45134e-18
9.98602e-18
4.13878e-17
1.60051e-16
5.47174e-16
1.6345e-15
4.35572e-15
1.05722e-14
2.31359e-14
4.68418e-14
6.55989e-14
4.31921e-14
)
;
    }
    defaultFaces
    {
        type            empty;
    }
}


// ************************************************************************* //
