/*--------------------------------*- C++ -*----------------------------------*\
| =========                 |                                                 |
| \\      /  F ield         | OpenFOAM: The Open Source CFD Toolbox           |
|  \\    /   O peration     | Version:  2312                                  |
|   \\  /    A nd           | Website:  www.openfoam.com                      |
|    \\/     M anipulation  |                                                 |
\*---------------------------------------------------------------------------*/
FoamFile
{
    version     2.0;
    format      ascii;
    arch        "LSB;label=32;scalar=64";
    class       volScalarField;
    location    "2.9";
    object      alpha.water;
}
// * * * * * * * * * * * * * * * * * * * * * * * * * * * * * * * * * * * * * //

dimensions      [0 0 0 0 0 0 0];

internalField   nonuniform List<scalar> 
2268
(
2.16542e-07
4.78643e-08
3.5746e-09
5.34694e-10
3.08663e-10
1.81165e-10
8.68412e-11
5.58053e-11
4.20559e-11
3.5058e-11
3.31031e-11
3.43075e-11
3.84218e-11
4.66595e-11
6.08937e-11
8.26629e-11
1.17567e-10
1.74422e-10
2.61256e-10
4.8457e-10
8.22277e-10
1.14971e-09
1.34822e-09
5.52314e-07
2.09894e-07
8.67443e-12
2.89313e-10
2.73749e-10
1.75477e-10
1.50901e-10
1.24378e-10
8.13434e-11
5.80636e-11
4.76672e-11
4.73275e-11
5.5902e-11
7.34432e-11
1.00833e-10
1.35581e-10
1.89414e-10
3.34503e-10
5.37423e-10
9.11278e-10
1.55945e-09
2.0587e-09
1.70179e-09
3.90365e-07
1.7223e-07
7.74084e-12
6.64135e-10
2.10827e-10
2.54462e-10
3.86415e-10
3.45335e-10
2.32467e-10
1.07234e-10
6.40955e-11
5.78725e-11
6.71232e-11
1.07228e-10
1.54398e-10
1.96649e-10
2.40569e-10
3.30902e-10
4.93989e-10
8.97796e-10
2.12954e-09
4.56314e-09
1.32836e-09
3.44158e-08
2.30825e-08
1.42613e-11
1.17578e-10
4.3864e-11
6.85719e-11
1.39081e-10
1.41426e-10
9.85069e-11
4.58086e-11
2.96059e-11
2.6609e-11
3.78372e-11
6.61246e-11
8.82793e-11
9.54834e-11
1.19667e-10
1.10217e-10
1.58388e-10
5.38585e-10
3.08146e-09
1.74287e-09
1.46745e-09
1.17281e-17
3.87981e-18
3.94821e-30
-2.75147e-29
1.05752e-23
3.32453e-23
2.57953e-23
4.58162e-23
6.29302e-13
1.82605e-12
1.91196e-12
5.14414e-12
5.61784e-12
4.3301e-15
4.06936e-13
2.29492e-15
4.70642e-09
2.01603e-19
3.98376e-13
4.30415e-20
3.96781e-13
0.000199332
0.000101329
0.338144
0.328244
0.303246
0.272936
0.233818
0.180425
0.105842
0.033561
2.94142e-21
3.19218e-31
-6.48466e-18
-1.07008e-17
1.36919e-06
0.000316425
0.0113223
0.0443979
0.0986751
0.168106
0.252862
0.333769
0.393064
0.422055
0.414736
0.964107
0.960449
0.954045
0.944322
0.927071
0.895579
0.826619
0.695847
0.510061
0.334496
0.245517
0.234394
0.288551
0.412773
0.563637
0.699265
0.805084
0.884106
0.935644
0.962696
0.967588
0.974524
0.974249
0.996899
0.997966
0.998613
0.999294
0.999497
0.999497
0.999497
0.999497
0.99757
0.980269
0.945043
0.924043
0.939456
0.958187
0.952446
0.936003
0.953588
0.980009
0.980016
0.98003
0.980039
0.980047
0.979052
0.0259213
0.0258574
0.0258458
0.023669
0.0113185
0.0110954
0.0146912
0.0196923
0.0196923
0.0196914
0.0176779
0.016279
0.0163031
0.0163086
0.0134281
0.00900208
0.0089291
0.00855828
0.00803851
0.140174
0.0650917
0.0202366
0.00895202
0.00896225
0.00896629
0.0097269
0.012353
0.0152908
0.0171677
0.0113316
0.0066296
0.00626703
0.00575795
0.00552239
0.00550939
0.00552621
0.00742969
0.00787185
0.628173
0.514669
0.410967
0.241621
0.0734012
0.00476346
0.00473928
0.0047598
0.00473737
0.00721478
0.0274114
0.0450401
0.0431555
0.0263386
0.0418368
0.103027
0.0191879
0.00762836
0.00760776
0.637232
0.700881
0.684652
0.540417
0.29995
0.0454274
0.00477179
0.112489
0.229598
0.309527
0.36428
0.392783
0.370258
0.317728
0.296863
0.356299
0.314401
0.257023
0.242204
0.639221
0.921351
0.94295
0.693537
0.52567
0.409418
0.525026
0.879203
0.908678
0.870949
0.471998
0.439513
0.415566
0.616154
0.711292
0.775411
0.861187
0.849604
0.529478
0.669978
0.899281
0.973685
0.957237
0.737365
0.478739
0.95326
0.969019
0.963948
0.870742
0.456179
0.450888
0.585233
0.867966
0.869829
0.86968
0.866562
0.867748
0.870605
0.890201
0.890139
0.958567
0.99931
0.92753
0.589933
0.917147
0.970612
0.847449
0.486157
0.441635
0.441623
0.620876
0.869829
0.869857
0.869821
0.869754
0.868223
0.870842
0.881196
0.913993
0.970745
0.999515
0.994953
0.797745
0.72738
0.970601
0.885439
0.699412
0.65488
0.655026
0.648319
0.772382
0.869895
0.869895
0.858213
0.833448
0.870605
0.99828
0.999033
0.999494
0.999494
0.999497
0.999403
0.999497
0.999497
0.999497
0.999497
0.999494
0.999494
0.999491
0.979783
0.901205
0.758126
0.836437
0.978233
0.974956
0.974991
0.979575
0.980038
0.96935
0.999124
0.999124
0.996818
0.994731
0.99549
0.993092
0.989626
0.99322
0.997407
0.998879
0.99271
0.975351
0.977346
0.953752
0.785082
0.711608
0.821606
0.806057
0.766293
0.731837
0.687131
0.655019
0.586706
0.999124
0.999118
0.999118
0.996396
0.981184
0.977044
0.87948
0.821376
0.854534
0.857484
0.812783
0.748824
0.676528
0.578319
0.461635
0.432214
0.321266
0.160745
0.0898832
0.0617506
0.0412203
0.0287965
0.0171084
0.813088
0.800575
0.757521
0.643369
0.443703
0.463854
0.605702
0.415097
0.221037
0.171077
0.125535
0.0803702
0.0433428
0.0223066
0.0168335
-3.34331e-20
-2.20877e-07
8.60144e-07
4.85917e-05
4.89262e-05
1.81048e-05
8.71088e-13
8.59616e-13
0.00256848
0.000558585
0.00035073
0.000114862
0.000115039
0.000114861
0.11366
0.24727
0.0381977
0.000385117
4.84198e-06
3.11787e-06
3.09868e-06
4.26428e-06
1.34558e-05
6.13869e-05
0.000220647
0.000403401
0.00075777
0.000754346
0.000397587
0.000133062
6.15721e-05
0.00299179
0.000671388
0.000197442
0.000202614
0.000114861
0.00011504
0.0514458
0.115721
0.0691588
0.00370073
3.8667e-06
4.22861e-06
2.62803e-05
0.000268366
0.000451023
0.000312156
6.71512e-05
6.34714e-05
0.00208138
0.0109861
0.0110485
0.0026267
0.00058792
0.00538111
0.00446451
0.00322132
0.00524525
0.00268976
0.00362526
0.00389103
0.0049916
0.0088558
0.00889792
0.00656023
0.000497089
2.89197e-05
0.000822796
0.00555153
0.00756372
0.0033248
0.000163802
0.000103751
0.00457808
0.020369
0.0204081
0.015859
0.00515055
0.00291423
0.0042894
0.00529262
0.00530603
0.00278432
0.000400488
5.95018e-06
5.48565e-07
1.52215e-07
0.000118584
0.000277571
0.000252806
0.000186836
0.00306376
0.00917966
0.00953667
0.00953675
0.00321835
0.0023178
0.00429042
0.0181508
0.0200206
1.42532e-06
0.000437682
0.000200644
0.00234189
0.0033031
0.00124201
6.28934e-07
1.53494e-07
7.51616e-08
1.97713e-07
6.92387e-07
8.34022e-07
5.98584e-05
0.000184944
0.000114761
0.000102268
0.000106038
0.000120322
0.00482686
0.0103622
0.0104118
0.00847122
0.00520377
6.53582e-08
0.000472952
0.000211726
4.17421e-06
2.59404e-06
2.5111e-06
1.22631e-06
7.80447e-08
7.03497e-08
1.45729e-06
1.43692e-05
1.54682e-05
2.22861e-06
5.54988e-07
4.65579e-07
0.000112493
0.000188586
0.000157291
8.57253e-05
0.000204753
0.000947181
0.00318687
0.00321862
6.37013e-08
0.000463421
0.000502712
0.000190812
2.98902e-05
7.6723e-09
1.15916e-08
1.07879e-07
7.91144e-08
2.73964e-05
6.22704e-05
6.23337e-05
2.95787e-05
5.12491e-07
4.30658e-07
4.20514e-07
0.000105102
0.000186699
0.000190202
2.27402e-05
4.00764e-07
9.45323e-05
0.000510146
6.21143e-08
5.22707e-06
0.00019774
0.000183539
1.96316e-05
1.22069e-08
6.26601e-06
1.18876e-05
4.58355e-05
6.23838e-05
6.24458e-05
5.87338e-05
1.44415e-05
4.28109e-07
4.20701e-07
4.13123e-07
4.20497e-07
4.40899e-07
4.61087e-06
1.87136e-06
3.46552e-07
3.42378e-07
3.37019e-07
6.06595e-08
8.35613e-08
1.44298e-07
1.16963e-07
3.24698e-06
9.84726e-07
2.73951e-05
6.19124e-05
6.18532e-05
4.95481e-05
1.14553e-05
7.87344e-06
2.34692e-06
4.23563e-07
4.1787e-07
7.56763e-07
1.00951e-06
6.79699e-07
3.453e-07
3.44969e-07
3.45285e-07
3.45167e-07
3.41775e-07
2.74336e-08
1.03409e-07
3.03419e-07
2.8223e-07
2.41557e-07
4.70546e-07
5.54813e-06
1.67036e-05
4.11222e-06
1.9714e-06
3.09936e-06
3.23754e-06
6.79731e-06
2.35228e-05
3.49759e-05
3.67313e-05
2.08156e-05
1.2033e-06
4.11822e-06
5.40691e-05
5.61642e-05
5.60889e-05
1.17753e-05
2.66796e-08
1.12076e-07
7.82426e-07
8.73385e-07
7.00194e-07
6.51118e-07
6.501e-07
6.49163e-07
1.32796e-06
1.20815e-06
2.80282e-06
1.44746e-05
6.16462e-05
7.20079e-05
7.1927e-05
7.18183e-05
4.85572e-05
9.56088e-06
1.03316e-05
3.62336e-05
3.47049e-05
1.39926e-05
2.41878e-06
2.43118e-08
7.72077e-08
2.0493e-07
7.91181e-07
1.81469e-06
1.84303e-06
1.08488e-06
1.39197e-06
1.94752e-06
1.50096e-06
4.45845e-06
5.3622e-05
6.26599e-05
5.3979e-05
1.14755e-06
-1.68865e-12
-4.28155e-10
4.70945e-06
4.91137e-06
3.44643e-06
3.27326e-07
1.35411e-09
9.25511e-08
1.70966e-08
3.93561e-08
1.72089e-08
7.44798e-08
1.32966e-06
2.02206e-06
1.99493e-06
1.71708e-06
1.88787e-07
2.23064e-07
4.55846e-06
5.63648e-06
3.48448e-06
1.61565e-09
1.7716e-09
3.62728e-08
7.58752e-07
9.31136e-07
7.04147e-07
3.63827e-08
1.25328e-09
1.32908e-09
9.41262e-09
1.17807e-08
2.71604e-08
1.33947e-08
1.54243e-08
4.41543e-08
4.0929e-07
2.04602e-07
1.50488e-08
7.32176e-08
8.80914e-08
1.66449e-09
1.68641e-09
1.79152e-09
3.69393e-09
2.46528e-08
6.00126e-08
4.34338e-08
1.66564e-09
1.00218e-09
7.81253e-10
1.26084e-09
1.68622e-09
1.40369e-09
1.18246e-08
1.64806e-08
8.48138e-09
1.31441e-09
6.18841e-10
6.8134e-10
6.78973e-10
1.56332e-08
6.0085e-08
4.98499e-08
6.40212e-09
2.27514e-09
1.89474e-09
2.36519e-09
7.99523e-09
1.70865e-08
2.00775e-08
2.02698e-08
7.20853e-09
7.87182e-10
9.62926e-10
1.02816e-09
8.44282e-10
1.23811e-08
1.14154e-08
1.03267e-08
8.23223e-09
7.2205e-09
5.87057e-09
5.39267e-09
9.02832e-09
1.26452e-08
8.98381e-09
6.87511e-09
1.03327e-09
1.6571e-09
1.67111e-09
1.36924e-09
1.13925e-09
1.43142e-09
3.12908e-09
3.89634e-09
3.30485e-09
1.93321e-09
1.09454e-09
6.68599e-10
1.47705e-08
9.03096e-09
8.86584e-09
9.79376e-09
9.71633e-09
5.24385e-09
2.59124e-10
1.51382e-10
4.32322e-10
1.13842e-09
7.46577e-10
9.75321e-10
8.79052e-10
8.12563e-10
7.72896e-10
8.18983e-10
1.22096e-09
1.48265e-09
1.61905e-09
1.70745e-09
1.3252e-09
7.19539e-10
4.65457e-10
1.67495e-08
8.50551e-09
4.65363e-09
3.75653e-09
2.41476e-09
6.46582e-10
2.44987e-10
1.51585e-10
1.5585e-10
1.60237e-10
2.31331e-10
3.33067e-10
3.72974e-10
3.78471e-10
3.87158e-10
4.29647e-10
5.74703e-10
6.93537e-10
7.27127e-10
7.28189e-10
5.85466e-10
3.76719e-10
2.17404e-10
1.72906e-08
8.84387e-09
3.42751e-09
2.01664e-09
6.03451e-10
1.54089e-10
1.14327e-10
1.42041e-10
1.47789e-10
1.53339e-10
1.54453e-10
1.572e-10
1.69242e-10
1.70759e-10
1.78664e-10
2.03458e-10
2.43453e-10
2.74369e-10
2.90005e-10
3.08821e-10
2.67449e-10
1.53594e-10
1.08125e-10
2.21465e-08
6.00501e-09
3.07091e-09
2.25832e-09
1.09051e-09
3.0982e-10
9.60028e-11
7.66972e-11
6.80534e-11
6.20701e-11
6.15783e-11
6.37718e-11
6.8026e-11
7.32016e-11
7.87937e-11
8.59952e-11
9.57893e-11
1.03999e-10
1.09509e-10
1.09746e-10
8.91919e-11
6.51899e-11
5.49338e-11
8.7701e-08
2.87118e-09
1.8799e-09
1.24358e-09
6.70232e-10
2.65744e-10
1.18214e-10
7.90749e-11
5.85635e-11
4.22919e-11
3.45375e-11
3.00933e-11
2.84308e-11
2.88329e-11
3.00959e-11
3.14276e-11
3.32868e-11
3.41291e-11
3.43609e-11
3.46982e-11
3.0961e-11
2.60945e-11
2.52478e-11
1.47134e-07
3.32466e-09
6.17098e-10
3.12924e-10
2.84589e-10
2.17548e-10
1.61843e-10
1.24921e-10
8.62509e-11
5.43056e-11
3.31428e-11
2.1531e-11
1.47153e-11
1.16348e-11
1.04505e-11
1.01258e-11
9.98386e-12
9.87975e-12
9.80986e-12
9.45989e-12
9.01172e-12
9.50709e-12
1.03229e-11
1.71797e-07
3.55743e-08
2.18951e-10
2.19434e-10
2.89429e-10
2.83476e-10
2.5066e-10
2.08317e-10
1.51486e-10
9.01929e-11
5.29237e-11
3.09893e-11
1.66285e-11
8.61697e-12
4.84249e-12
3.45995e-12
2.66595e-12
2.40503e-12
2.37147e-12
2.47686e-12
2.7461e-12
3.08345e-12
3.95094e-12
1.92551e-07
1.3637e-07
2.19361e-10
2.22273e-10
4.02342e-10
4.15828e-10
3.83692e-10
3.33751e-10
2.51485e-10
1.4567e-10
9.25261e-11
5.39007e-11
2.87004e-11
1.36237e-11
5.65806e-12
2.36928e-12
1.14224e-12
6.36206e-13
5.50797e-13
5.86318e-13
6.86947e-13
9.49543e-13
1.35677e-12
1.93249e-07
1.72051e-07
1.64963e-09
2.1461e-10
4.68123e-10
5.30628e-10
5.3224e-10
4.62886e-10
3.7583e-10
2.078e-10
1.40349e-10
9.20115e-11
5.1126e-11
2.4655e-11
1.02165e-11
3.78903e-12
1.27196e-12
4.35438e-13
1.65116e-13
1.32889e-13
1.76966e-13
2.71723e-13
4.30274e-13
1.76163e-07
1.95253e-07
1.56839e-08
2.14605e-10
4.26776e-10
4.87237e-10
5.41741e-10
7.43218e-10
4.6772e-10
2.75628e-10
1.85774e-10
1.34531e-10
8.20401e-11
4.26056e-11
1.86044e-11
6.93067e-12
2.27652e-12
6.46161e-13
1.73605e-13
4.67862e-14
3.96726e-14
6.82526e-14
1.3044e-13
9.60903e-08
2.31396e-07
1.05993e-07
2.1461e-10
4.70936e-10
3.74026e-10
3.75097e-10
2.18324e-09
4.41164e-10
3.04613e-10
2.4782e-10
1.77558e-10
1.15314e-10
6.50908e-11
2.93555e-11
1.18584e-11
4.03706e-12
1.16354e-12
2.85658e-13
6.35977e-14
1.5835e-14
1.6729e-14
3.34322e-14
8.80732e-08
2.38731e-07
1.58609e-07
2.14605e-10
2.56345e-09
1.6006e-08
1.89952e-08
5.45395e-09
3.19022e-10
3.18887e-10
3.04039e-10
2.18697e-10
1.47309e-10
8.58252e-11
4.20141e-11
1.75739e-11
6.43119e-12
1.95378e-12
4.82823e-13
1.01403e-13
1.63638e-14
4.65961e-15
7.55278e-15
2.19592e-08
1.31522e-07
1.16934e-07
2.14611e-10
2.89124e-09
1.26984e-07
2.34247e-07
2.862e-09
3.19223e-10
3.28948e-10
3.38733e-10
2.58191e-10
1.80604e-10
1.01611e-10
5.16804e-11
2.29328e-11
8.94079e-12
2.89312e-12
7.68671e-13
1.51276e-13
3.00867e-14
2.47505e-15
1.75918e-15
7.62297e-09
2.30101e-08
1.59428e-08
3.56208e-09
1.46209e-09
1.4718e-07
2.68017e-07
1.28142e-07
3.1937e-10
3.36686e-10
3.53232e-10
2.73296e-10
1.89656e-10
1.08097e-10
5.61061e-11
2.60283e-11
1.07807e-11
3.74549e-12
1.03803e-12
2.33656e-13
4.73654e-14
3.89917e-15
4.55888e-16
1.81719e-09
9.05156e-10
5.93184e-10
4.57377e-10
6.48954e-10
2.51761e-07
1.04964e-06
3.56765e-07
3.23852e-10
3.74914e-10
3.50448e-10
2.75838e-10
1.87449e-10
1.05269e-10
5.37046e-11
2.52937e-11
1.09626e-11
4.06221e-12
1.20789e-12
2.85618e-13
5.87558e-14
5.50561e-15
2.40195e-16
1.22702e-09
6.47579e-10
7.27759e-10
1.4834e-09
5.96121e-09
5.7355e-07
1.4569e-06
8.73448e-07
5.24036e-10
4.06801e-10
3.18835e-10
2.554e-10
1.73089e-10
9.34108e-11
4.54465e-11
2.09592e-11
9.23453e-12
3.60854e-12
1.17122e-12
2.94593e-13
6.17872e-14
8.07271e-15
3.22666e-16
6.65946e-10
6.47333e-10
9.01191e-10
2.4335e-09
2.417e-09
1.13231e-06
1.45578e-06
6.95695e-07
6.41958e-09
3.93103e-10
2.54055e-10
2.13338e-10
1.43098e-10
7.41788e-11
3.37479e-11
1.46032e-11
6.26876e-12
2.50717e-12
8.73189e-13
2.40476e-13
5.17577e-14
6.13243e-15
4.32504e-16
1.92412e-07
1.4523e-08
1.82236e-09
2.42017e-09
2.40992e-09
5.97943e-07
1.36056e-06
1.02903e-07
1.95166e-09
3.18494e-10
1.76309e-10
1.53751e-10
1.02115e-10
5.1299e-11
2.15596e-11
8.35261e-12
3.30037e-12
1.29034e-12
4.71324e-13
1.39969e-13
3.19532e-14
4.83789e-15
4.26509e-16
5.08357e-07
1.20427e-07
1.82253e-09
2.80809e-09
3.13745e-09
3.19878e-10
3.25251e-08
1.05906e-08
5.29406e-10
2.16928e-10
1.01957e-10
9.09704e-11
6.02867e-11
2.97684e-11
1.12279e-11
3.8071e-12
1.27615e-12
4.47913e-13
1.61826e-13
5.69653e-14
1.50387e-14
2.05307e-15
2.96347e-16
5.08357e-07
2.36846e-07
8.97968e-09
4.06305e-09
7.55062e-09
4.39983e-10
1.89227e-11
1.98605e-12
4.98268e-10
1.17724e-10
4.47701e-11
4.14705e-11
2.79634e-11
1.3648e-11
4.79205e-12
1.33566e-12
3.46703e-13
9.56441e-14
3.40254e-14
1.45381e-14
4.14477e-15
7.72161e-16
1.58856e-16
3.90832e-07
1.26261e-07
5.58076e-09
1.85036e-09
4.55624e-09
9.47828e-10
9.03132e-11
1.42864e-11
1.22233e-10
2.57105e-11
1.39293e-11
1.30945e-11
9.14181e-12
4.39878e-12
1.44315e-12
3.29129e-13
6.04959e-14
1.11096e-14
3.69778e-15
2.38407e-15
7.95462e-16
2.36299e-16
6.18696e-17
4.69148e-09
3.90466e-11
2.21916e-10
1.27774e-10
2.10027e-11
2.37935e-12
2.74425e-13
9.21151e-12
7.64641e-13
3.90349e-13
2.16823e-12
2.11008e-12
1.56911e-12
7.51258e-13
2.20112e-13
4.24125e-14
5.37436e-15
6.01517e-16
2.07932e-16
2.41676e-16
1.55462e-16
5.65394e-17
2.15443e-17
0.88324
0.838421
0.811921
0.753223
0.471714
0.367138
0.279604
0.230927
0.00375929
0.00185715
0.00913129
1.25176e-06
8.88331e-13
1.1009e-09
0.000175626
7.30267e-06
3.91235e-06
1.23404e-10
3.09936e-07
4.09188e-06
4.61077e-05
1.13723e-10
7.02285e-07
9.01424e-07
0.00540092
0.00182181
0.00011069
1.56117e-05
0.020019
0.0200206
0.00505497
5.30331e-05
0.00234201
0.00957518
0.0192802
0.0192352
0.0021566
0.00291618
0.00357388
0.00211865
0.000557428
0.00026396
8.08771e-06
1.48427e-06
3.37917e-07
9.96913e-07
8.31469e-07
1.30016e-06
3.49311e-07
3.73947e-07
3.5004e-07
6.95877e-07
3.42078e-07
3.40001e-07
3.42362e-07
2.65971e-06
9.51739e-07
4.57737e-06
5.59615e-06
5.79812e-06
1.17805e-06
2.08948e-06
1.33883e-06
6.43387e-07
5.3483e-08
1.24493e-09
1.24797e-09
1.24493e-09
9.45665e-10
1.25273e-09
1.52309e-09
1.84334e-09
9.11387e-10
1.08938e-09
1.18868e-09
1.33412e-09
5.53442e-10
6.23618e-10
6.81953e-10
7.50712e-10
3.22681e-10
3.51114e-10
3.86568e-10
4.15666e-10
1.90488e-10
2.01787e-10
2.14196e-10
2.34332e-10
1.06415e-10
1.10629e-10
1.18256e-10
1.29819e-10
5.54067e-11
5.91015e-11
6.34427e-11
7.05535e-11
2.6788e-11
2.91521e-11
3.21521e-11
3.64198e-11
1.1984e-11
1.33371e-11
1.55031e-11
1.84175e-11
4.90509e-12
5.72218e-12
6.87232e-12
8.0328e-12
1.86436e-12
2.23055e-12
2.76273e-12
3.46751e-12
6.52214e-13
8.28349e-13
1.0997e-12
1.32327e-12
2.13239e-13
2.81659e-13
3.715e-13
4.72948e-13
6.33956e-14
8.58162e-14
1.21683e-13
1.59268e-13
1.62248e-14
2.34736e-14
3.49363e-14
4.85628e-14
3.83361e-15
6.10182e-15
9.31788e-15
1.3473e-14
7.54458e-16
1.28269e-15
2.21555e-15
3.31598e-15
1.44434e-16
2.57076e-16
4.43974e-16
7.31225e-16
2.45862e-17
4.4043e-17
9.39167e-17
1.46288e-16
7.05484e-18
8.10905e-18
1.54778e-17
3.28117e-17
3.90226e-18
1.52137e-18
2.65867e-18
4.67585e-18
4.3741e-18
4.83585e-19
3.51695e-19
8.57972e-19
4.48844e-18
3.25615e-19
6.67766e-20
8.65686e-20
3.74825e-18
2.80942e-19
1.93569e-20
1.23178e-20
2.57492e-18
1.96121e-19
1.21981e-20
1.54726e-21
0.635976
0.930516
0.990974
0.99962
0.999604
0.910181
0.726486
0.970442
0.970457
0.94219
0.865313
0.630094
0.583674
0.72036
0.869912
0.864233
0.776124
0.636404
0.548417
0.508522
0.964759
0.982339
0.959517
0.990574
0.975112
0.878516
0.979278
0.947005
0.887212
0.862726
0.695468
0.584416
0.721262
0.66949
0.465072
0.604918
0.631475
0.451233
2.45962e-10
0.185693
0.632455
0.872343
0.921843
0.98079
0.980735
0.975455
0.911922
0.657062
0.514526
0.482393
0.52691
0.536354
0.294404
0.28139
0.273012
0.516688
0.539238
3.86681e-10
4.04903e-05
0.02678
0.210725
0.64941
0.904689
0.939407
0.776467
0.270837
0.0743233
0.169341
0.391721
0.452264
0.499193
0.361641
0.254922
0.202846
0.195692
0.40745
7.07944e-07
2.49321e-07
0.00287876
1.2001e-05
0.0273752
0.208937
0.407845
0.170078
0.000251433
1.45337e-20
2.75963e-22
-9.2293e-08
0.0940777
0.388609
0.406935
0.407381
0.339776
0.151632
0.0865938
7.55142e-05
2.68832e-07
3.42306e-05
1.28904e-05
-7.11935e-08
-1.3383e-11
0.000164997
-9.66389e-12
9.75876e-06
-2.01822e-08
0.000605268
0.001264
0.000170241
0.0176168
0.0261659
0.256061
0.300109
0.218132
0.0866092
0.000178045
0.000574152
0.000587754
9.09515e-05
2.41871e-05
3.68696e-08
-3.56825e-23
-1.58332e-14
4.45463e-10
-5.4892e-10
1.60261e-05
6.03568e-05
0.000167479
0.00182998
0.00169998
0.00123614
0.0337845
0.129661
0.103156
3.97441e-05
0.00164285
0.0020179
0.00180175
0.000418149
0.000384367
0.000492948
0.000487439
0.000387724
0.000287938
0.00014921
1.87692e-07
0.000191619
0.00193985
0.00206814
0.0012428
0.0006661
0.0316238
0.107797
0.0167426
0.00506063
0.000295325
0.000289335
0.00123196
0.00382959
0.0041953
0.00419248
0.00419192
0.00252968
7.56802e-05
1.88838e-07
1.71625e-05
3.58718e-05
0.00708
0.00352398
0.000737246
0.00702323
0.101387
0.0105596
0.0131177
0.0110444
0.000807215
0.000174898
0.000364876
0.0017033
0.00379116
0.00296185
0.000962316
1.15424e-05
1.87667e-07
1.88861e-07
5.91442e-05
0.00825909
0.00817169
0.000871748
0.00459977
0.00816395
0.000127655
0.00925403
0.0107782
0.00194391
1.65639e-06
1.72182e-06
2.16757e-05
0.000203136
0.000190875
0.000100366
2.44835e-05
1.88466e-07
1.8766e-07
0.00400586
0.00933683
0.00933827
0.00232152
0.00371195
0.000369236
1.48156e-06
0.000221894
0.00115673
0.000938465
5.94378e-05
2.03965e-06
2.0732e-06
4.38702e-06
6.90888e-06
3.32252e-06
1.88491e-07
1.87635e-07
9.00925e-05
0.00786417
0.0093376
0.00686209
0.000723654
0.00269603
0.00036837
2.60286e-06
1.64248e-05
1.89217e-05
6.67421e-05
2.51667e-05
6.32525e-06
2.28262e-06
1.77232e-06
1.7655e-06
6.82644e-05
0.000157787
2.1023e-05
5.59732e-06
0.00430986
0.00154728
0.000362222
3.37855e-05
0.000492375
0.000150551
4.41621e-06
2.91213e-05
3.43388e-05
3.13496e-05
2.87681e-05
2.43402e-05
1.54105e-05
1.17373e-05
9.79589e-05
0.000209542
0.000209581
0.000140366
7.34616e-06
2.45688e-05
1.60634e-06
1.60396e-06
2.04121e-05
0.000176507
1.28846e-05
5.80684e-06
1.64168e-05
2.64116e-05
7.16494e-06
8.68074e-06
2.06967e-05
5.85798e-05
5.99597e-05
7.21714e-05
0.000109043
0.000177927
0.0001745
1.15614e-05
1.61318e-06
1.60396e-06
3.23723e-06
9.2184e-06
4.11597e-08
4.11256e-08
5.63553e-07
3.97831e-07
7.21007e-07
2.14971e-09
5.77391e-09
3.02344e-06
1.94937e-05
3.29461e-05
3.94659e-05
3.5443e-05
3.33452e-05
8.59087e-05
5.33325e-05
1.77175e-06
1.60634e-06
1.60396e-06
4.36246e-06
1.36869e-06
4.12869e-08
1.24799e-09
1.24493e-09
1.25111e-09
2.13154e-09
2.14955e-09
2.16806e-09
2.18642e-09
6.7435e-08
4.63647e-08
3.2534e-08
2.0157e-05
4.33644e-05
5.74201e-05
3.63517e-05
2.89934e-06
3.48711e-06
3.12699e-06
8.25686e-07
6.29973e-08
1.96223e-09
2.63006e-09
3.11286e-09
3.29279e-09
3.25519e-09
2.57746e-09
2.20521e-09
2.22348e-09
1.7598e-08
8.2036e-07
1.04309e-05
1.04476e-05
2.70618e-05
3.34023e-05
1.72774e-05
6.12689e-06
1.26698e-07
5.76658e-08
4.79356e-08
1.50579e-09
2.00906e-09
2.3297e-09
2.7048e-09
2.95797e-09
4.44982e-09
9.42108e-09
1.85648e-08
2.93724e-08
1.72205e-07
1.00349e-08
4.88131e-09
5.56692e-06
1.04e-05
1.30218e-05
6.51588e-06
1.20927e-06
6.75455e-08
1.1301e-07
8.34377e-10
1.07707e-09
1.22954e-09
1.43556e-09
2.78329e-09
7.98069e-09
1.61781e-08
2.42207e-08
2.42607e-08
7.96291e-09
4.83506e-09
4.83504e-09
1.19729e-06
3.18367e-06
6.00966e-06
1.51321e-05
1.4965e-05
8.6974e-06
6.75779e-07
4.605e-10
5.99512e-10
7.12918e-10
9.52976e-10
1.77784e-09
5.59214e-09
1.19313e-08
1.73081e-08
2.41084e-08
1.40855e-08
4.83497e-09
4.83474e-09
7.18128e-07
9.40439e-06
1.51321e-05
1.51382e-05
1.51361e-05
1.5137e-05
1.33254e-06
2.61728e-10
3.57758e-10
4.6291e-10
6.36913e-10
9.79563e-10
1.72768e-09
3.5509e-09
6.98297e-09
1.24962e-08
9.93217e-09
6.4577e-09
6.60929e-08
1.85914e-06
9.45622e-06
1.44722e-05
1.51344e-05
1.51386e-05
1.51355e-05
2.29632e-06
1.52257e-10
2.03522e-10
2.83313e-10
4.19317e-10
6.38768e-10
9.84389e-10
1.44705e-09
2.43549e-09
3.41548e-09
5.19862e-09
3.29362e-08
2.96517e-07
1.20607e-06
1.20504e-06
2.4478e-06
7.48688e-06
2.78775e-06
5.55362e-06
6.07381e-06
8.47607e-11
1.15346e-10
1.678e-10
2.63624e-10
4.10158e-10
6.4034e-10
1.04444e-09
1.83036e-09
3.30227e-09
6.63725e-09
2.74313e-08
1.06043e-07
1.00421e-07
9.25765e-08
1.05776e-07
1.12302e-07
7.86001e-08
8.52408e-07
1.76813e-05
4.5971e-11
6.39167e-11
9.58416e-11
1.52718e-10
2.43685e-10
3.96755e-10
6.65774e-10
1.22052e-09
2.30538e-09
4.35578e-09
8.13966e-09
9.04563e-09
9.5449e-09
3.23908e-08
3.68602e-08
4.6346e-08
5.22564e-09
9.02854e-07
1.76795e-05
2.23668e-11
3.25226e-11
4.98723e-11
8.02128e-11
1.29644e-10
2.15701e-10
3.68272e-10
6.84163e-10
1.31083e-09
2.2997e-09
3.2963e-09
3.92639e-09
1.54758e-08
3.03084e-08
2.94843e-08
1.32861e-08
4.76328e-09
7.44496e-07
1.76812e-05
1.00847e-11
1.51769e-11
2.35122e-11
3.78508e-11
6.32557e-11
1.0451e-10
1.8177e-10
3.41685e-10
6.66354e-10
1.22724e-09
1.86836e-09
2.66185e-09
8.71392e-09
1.86223e-08
2.56825e-08
1.45176e-08
9.13669e-09
3.58836e-07
6.90914e-06
4.25223e-12
6.48103e-12
1.01876e-11
1.64537e-11
2.7664e-11
4.6098e-11
8.10487e-11
1.54324e-10
3.07611e-10
5.87095e-10
9.6737e-10
1.24702e-09
1.52001e-09
2.25275e-09
4.98709e-09
8.61462e-09
7.39743e-09
2.21216e-08
2.60207e-09
1.63616e-12
2.59353e-12
4.10147e-12
6.59624e-12
1.10563e-11
1.84815e-11
3.27238e-11
6.32223e-11
1.29699e-10
2.59747e-10
4.59991e-10
6.24893e-10
4.58369e-10
2.33868e-10
6.54742e-10
1.11588e-09
2.82369e-09
1.64215e-09
2.73553e-09
6.08657e-13
9.75009e-13
1.52513e-12
2.48129e-12
4.07391e-12
6.67107e-12
1.17531e-11
2.27095e-11
4.85092e-11
1.02967e-10
2.10957e-10
3.09734e-10
2.62102e-10
1.02634e-10
7.54815e-11
1.25023e-10
4.53054e-10
1.65089e-09
3.61736e-09
2.05714e-13
3.43581e-13
5.47323e-13
8.57028e-13
1.39424e-12
2.23374e-12
3.76206e-12
6.87202e-12
1.34937e-11
2.54371e-11
3.47606e-11
6.12347e-11
1.0265e-10
6.76681e-11
4.61827e-11
5.85906e-11
1.71507e-10
7.05715e-10
2.39768e-09
6.77881e-14
1.14535e-13
1.83984e-13
2.81813e-13
4.55652e-13
6.94343e-13
1.09486e-12
1.84547e-12
3.22788e-12
4.78031e-12
1.84204e-12
4.59793e-12
1.72521e-11
3.09142e-11
2.42149e-11
2.3254e-11
4.48532e-11
1.6124e-10
3.07912e-10
1.90085e-14
3.43103e-14
5.63928e-14
8.7021e-14
1.29276e-13
1.97143e-13
3.07665e-13
4.78605e-13
7.54826e-13
1.04214e-12
4.6888e-13
3.19169e-13
1.68315e-12
1.02676e-11
1.32159e-11
9.64683e-12
7.43769e-12
1.0133e-11
3.536e-11
5.23827e-15
9.51213e-15
1.60294e-14
2.49728e-14
3.78561e-14
5.428e-14
7.73463e-14
1.1206e-13
1.70305e-13
2.26483e-13
1.36375e-13
8.73128e-14
1.64185e-13
1.7627e-12
3.24194e-12
5.19223e-12
2.6571e-12
2.46129e-12
2.20139e-12
1.11257e-15
2.42373e-15
4.26856e-15
6.90706e-15
1.00946e-14
1.4441e-14
1.99727e-14
2.8467e-14
4.02952e-14
5.28063e-14
4.15598e-14
3.2616e-14
4.66826e-14
2.17505e-13
8.04377e-13
1.50023e-12
1.76043e-12
1.21313e-12
8.94802e-13
2.71777e-16
5.98263e-16
1.07474e-15
1.75181e-15
2.59485e-15
3.6651e-15
5.09444e-15
7.26358e-15
1.06202e-14
1.47588e-14
1.67452e-14
1.98419e-14
3.61407e-14
7.93318e-14
2.92127e-13
5.64769e-13
9.92185e-13
8.94017e-13
5.17552e-13
5.06876e-17
1.21275e-16
2.44233e-16
4.08866e-16
6.23254e-16
9.12145e-16
1.29463e-15
1.94312e-15
3.09453e-15
5.06067e-15
8.1262e-15
1.39077e-14
2.7558e-14
6.2162e-14
1.5195e-13
3.79776e-13
5.37147e-13
6.16276e-13
4.64136e-13
1.03169e-17
2.46077e-17
5.01602e-17
8.87779e-17
1.44469e-16
2.12361e-16
3.26578e-16
5.32044e-16
1.00388e-15
2.06162e-15
4.31187e-15
9.14288e-15
1.98088e-14
4.37835e-14
1.04597e-13
2.59947e-13
4.20324e-13
4.96103e-13
3.65754e-13
1.53952e-18
4.75995e-18
1.02205e-17
1.92327e-17
3.19566e-17
5.06294e-17
8.28705e-17
1.55984e-16
3.58455e-16
9.07094e-16
2.27788e-15
5.53507e-15
1.29089e-14
2.88349e-14
6.78119e-14
1.54752e-13
3.14196e-13
3.81009e-13
2.52331e-13
2.26522e-19
6.47068e-19
1.51567e-18
3.03674e-18
5.69335e-18
9.61592e-18
1.81967e-17
4.06966e-17
1.2051e-16
3.60404e-16
1.08078e-15
2.96472e-15
7.48363e-15
1.75341e-14
3.89778e-14
8.85191e-14
1.87821e-13
2.70623e-13
1.68857e-13
2.76044e-20
8.58378e-20
2.09227e-19
4.39884e-19
9.01853e-19
1.87718e-18
3.89866e-18
1.0823e-17
3.68276e-17
1.30359e-16
4.39245e-16
1.35071e-15
3.68433e-15
9.32254e-15
2.13996e-14
4.78988e-14
1.04903e-13
1.54392e-13
9.83444e-14
3.22534e-21
1.12778e-20
3.09926e-20
7.14771e-20
1.56112e-19
3.38634e-19
8.00404e-19
2.5715e-18
1.04494e-17
4.31624e-17
1.6624e-16
5.66413e-16
1.68724e-15
4.49088e-15
1.08815e-14
2.38658e-14
4.85593e-14
6.83736e-14
4.39145e-14
)
;

boundaryField
{
    leftWall
    {
        type            zeroGradient;
    }
    rightWall
    {
        type            zeroGradient;
    }
    lowerWall
    {
        type            zeroGradient;
    }
    atmosphere
    {
        type            inletOutlet;
        inletValue      uniform 0;
        value           nonuniform List<scalar> 
46
(
4.69148e-09
0
0
0
0
0
0
0
0
0
0
0
0
0
0
0
0
0
0
0
0
5.65394e-17
2.15443e-17
2.57492e-18
1.96121e-19
1.21981e-20
1.54726e-21
3.22534e-21
1.12778e-20
3.09926e-20
7.14771e-20
1.56112e-19
3.38634e-19
8.00404e-19
2.5715e-18
1.04494e-17
4.31624e-17
1.6624e-16
5.66413e-16
1.68724e-15
4.49088e-15
1.08815e-14
2.38658e-14
4.85593e-14
6.83736e-14
4.39145e-14
)
;
    }
    defaultFaces
    {
        type            empty;
    }
}


// ************************************************************************* //
