/*--------------------------------*- C++ -*----------------------------------*\
| =========                 |                                                 |
| \\      /  F ield         | OpenFOAM: The Open Source CFD Toolbox           |
|  \\    /   O peration     | Version:  2312                                  |
|   \\  /    A nd           | Website:  www.openfoam.com                      |
|    \\/     M anipulation  |                                                 |
\*---------------------------------------------------------------------------*/
FoamFile
{
    version     2.0;
    format      ascii;
    arch        "LSB;label=32;scalar=64";
    class       volScalarField;
    location    "2.15";
    object      alpha.galistan;
}
// * * * * * * * * * * * * * * * * * * * * * * * * * * * * * * * * * * * * * //

dimensions      [0 0 0 0 0 0 0];

internalField   nonuniform List<scalar> 
2268
(
1
1
1
1
1
1
1
1
1
1
1
1
1
1
1
1
1
1
1
1
1
0.999949
0.999939
1
1
1
1
1
1
1
1
1
1
1
1
1
1
1
1
1
1
1
1
1
0.999978
0.999954
1
1
1
1
1
1
1
1
1
1
1
1
1
1
1
1
1
1
1
1
1
1
0.999999
1
1
1
1
1
1
1
1
1
1
1
1
1
1
1
1
1
1
0.999999
0.999999
1
1
0.999999
0.999996
1
0.99995
0.999997
0.999999
0.999998
0.999997
0.999999
0.999999
0.999983
0.999987
0.999978
0.999962
0.971018
0.943424
0.927733
0.926121
0.935698
0.949689
0.972267
0.999907
0.999907
0.99957
0.999593
0.998594
0.996959
0.999862
0.999972
0.99984
0.999681
0.985045
0.934207
0.843295
0.71637
0.572736
0.419861
0.308181
0.241579
0.212145
0.208017
0.225695
0.264465
0.330989
0.420548
0.532132
0.604515
0.998089
0.988363
0.996174
0.996491
0.895766
0.684031
0.462964
0.311186
0.197551
0.0886567
0.0290338
0.00776432
0.000280132
0.000147256
0.00013262
-7.50088e-11
1.9326e-11
-3.06375e-14
-7.79215e-07
0.000345023
0.0123261
0.0222668
0.0836759
0.917701
0.89237
0.716374
0.413498
0.160484
0.0197049
0.000526732
0.000459485
0.000426125
0.00042072
0.000341777
6.98975e-05
-2.17282e-22
-6.20595e-21
1.2785e-08
9.21747e-07
0.000106297
0.00396011
0.00862394
0.00833316
0.0114551
0.0138049
0.0168653
0.89195
0.916717
0.916723
0.91074
0.924654
0.924695
0.924738
0.927296
0.927321
0.928538
0.929331
0.931619
0.944693
0.94474
0.944618
0.945649
0.945649
0.936974
0.926134
0.887118
0.916272
0.906345
0.862785
0.813161
0.721416
0.707767
0.754245
0.827812
0.774024
0.7212
0.736523
0.79182
0.890207
0.88347
0.835387
0.745755
0.539076
0.548449
0.707414
0.660376
0.657273
0.619678
0.473018
0.411823
0.385248
0.395236
0.417056
0.504697
0.557994
0.552502
0.549343
0.587745
0.532343
0.463012
0.142686
0.0310967
0.06488
0.163709
0.1393
0.154265
0.228754
0.227542
0.158489
0.149651
0.158843
0.157214
0.165567
0.223656
0.226454
0.408177
0.423603
0.366112
0.0963621
0.023
0.0273168
0.00976753
0.124124
0.124971
0.102327
0.122146
0.181445
0.181555
0.149913
0.093182
0.0941348
0.105831
0.120632
0.142966
0.239883
0.287575
0.154258
0.0176977
0.0229899
0.0378958
0.00979254
0.0394276
0.0690319
0.0644098
0.0482787
0.0635833
0.0717851
0.0659568
0.0876677
0.122337
0.122449
0.0999286
0.147861
0.131957
0.110888
0.0136212
0.0179094
0.0381325
0.0360927
0.0120334
0.00195397
0.00195972
0.00309127
0.0124615
0.00300662
0.000370503
1.09118e-06
0.00299163
0.0601976
0.103828
0.083693
0.0187823
0.0133095
0.00441878
0.013881
0.0348931
0.0378074
0.00456637
0.0148543
0.00293821
0.00211579
0.00410725
0.00237752
0.000311011
1.09264e-06
1.08378e-06
6.4869e-07
0.0182692
0.0788636
0.0350604
0.00443528
0.00434851
0.00445053
0.0219242
0.0348501
0.00765133
0.00276907
0.0131868
0.247024
0.132877
0.0339737
0.00172886
0.00201445
0.00127552
2.72675e-05
3.24276e-05
5.44258e-05
2.36113e-05
-1.06569e-07
1.3732e-14
1.00544e-12
1.35977e-10
1.34199e-10
2.36152e-10
0.00152417
0.0102888
0.0105661
0.0105001
0.00281333
0.00147767
0.00470214
0.00499579
0.0158436
0.00546078
0.00172918
0.00125763
0.00079731
0.000184402
8.9897e-05
6.94531e-05
6.88977e-05
3.70709e-05
1.33159e-14
8.73729e-08
8.21645e-07
5.48598e-07
2.21624e-06
0.000808868
0.00151018
0.00138225
0.000662695
0.00059542
0.000405468
9.69515e-05
-4.51274e-08
8.67227e-15
5.83344e-10
6.65321e-05
0.0004764
0.000829927
0.00077496
0.000266368
2.82502e-05
7.61002e-05
7.94663e-05
3.12286e-05
3.21342e-06
6.02395e-07
5.98245e-07
4.74293e-05
0.000158361
0.000171937
0.000173019
0.00169388
0.00384955
0.0041162
0.00205161
6.87866e-05
7.57415e-05
4.58149e-05
2.85103e-06
1.10569e-05
0.00010824
0.000154187
0.000130687
1.56232e-05
1.16796e-05
6.95052e-05
1.7867e-05
1.47907e-05
6.00692e-06
1.07056e-05
5.30703e-05
5.25108e-05
0.000133886
0.00112723
0.00278733
0.00530708
0.00530661
0.00530707
3.97436e-06
5.92154e-06
5.24343e-06
2.82915e-06
2.81421e-06
4.67695e-06
6.19697e-06
1.74259e-06
3.48188e-06
1.93654e-06
5.6203e-06
0.000120297
7.18083e-06
6.96352e-06
3.01312e-05
8.52208e-05
0.000100367
7.40049e-05
8.15246e-05
0.00165605
0.004004
0.00365965
0.00179245
5.57127e-06
2.07383e-06
6.21663e-06
5.74435e-06
3.63452e-06
1.33541e-05
1.29641e-05
8.89686e-07
7.95741e-07
7.83514e-07
0.000112274
0.000210254
0.000140258
3.32699e-05
3.44896e-05
1.81309e-05
2.89818e-05
4.91077e-05
0.000310694
0.000438663
0.000252813
0.000346759
0.000332991
1.74784e-05
5.95872e-06
3.50509e-05
3.50539e-05
1.03818e-05
4.32607e-06
6.59839e-06
1.4032e-05
6.70313e-05
0.00018754
0.000213889
0.000213788
0.000105211
4.35758e-05
2.11816e-05
1.50951e-06
1.44857e-06
2.66439e-05
0.000436708
0.000472263
0.000255036
0.000261048
0.000440027
1.78695e-05
1.32909e-05
3.68032e-06
3.67471e-06
3.70736e-06
3.61809e-06
3.76962e-06
7.87293e-05
0.000200829
0.00019944
0.000161815
0.000113222
5.46233e-05
2.63163e-05
2.34726e-05
1.11686e-05
3.07514e-06
0.00013078
0.00053213
0.000692428
0.000626483
0.00239251
0.00907766
1.58839e-05
7.20406e-06
5.31276e-05
5.17477e-05
3.59302e-06
3.60101e-06
3.5958e-06
4.63128e-06
3.45902e-05
4.53731e-05
2.81399e-05
1.77699e-05
1.19378e-05
4.68996e-06
1.06165e-05
3.92479e-05
0.000206333
0.000284535
0.000301453
0.00115285
0.00603216
0.0143387
0.0154018
7.36519e-06
9.7079e-07
2.52891e-06
0.000803474
0.00524702
0.00541096
0.00506647
0.00114715
5.93301e-05
2.00076e-05
1.70574e-05
8.46893e-06
4.58139e-06
4.47443e-06
0.000187171
0.000593456
0.000739771
0.000532088
0.00223076
0.0068162
0.00677281
0.00376
4.77698e-05
8.18273e-07
2.47075e-07
2.91951e-05
0.00036546
0.000525723
0.000872572
0.0073538
0.0109248
0.0109202
0.0108334
0.00926909
0.00862748
0.0119244
0.0137762
0.0137688
0.0131711
0.00520993
0.000237776
3.05503e-09
2.98691e-09
1.49822e-06
4.75219e-08
6.38846e-08
2.49601e-07
2.31126e-07
2.58387e-05
0.00011568
1.55928e-05
2.50235e-05
0.000171748
0.000177557
9.76203e-05
8.12965e-05
9.50868e-06
6.88647e-15
3.44497e-25
-5.76716e-22
-1.18122e-24
-3.8029e-21
-1.24955e-20
3.66927e-10
3.52453e-07
8.38928e-06
1.08317e-05
1.07715e-05
4.75744e-06
2.33194e-07
8.95782e-05
4.32847e-06
2.43376e-06
2.03908e-06
1.96396e-07
2.65473e-10
2.57932e-10
2.65473e-10
2.57932e-10
2.65476e-10
1.94006e-09
1.40653e-08
2.82169e-07
8.19609e-07
8.1313e-07
8.16605e-07
4.68558e-07
4.39906e-07
8.49142e-07
5.93038e-06
1.14509e-05
1.69428e-05
0.000605019
0.000582729
9.54644e-07
1.42018e-06
1.04242e-06
1.24581e-07
2.57932e-10
3.05824e-08
6.96289e-08
3.96621e-08
1.79568e-08
1.52437e-09
6.91176e-09
9.57961e-08
1.82161e-07
2.36559e-07
4.07649e-07
4.46966e-07
5.49002e-07
5.7009e-07
5.95321e-10
6.04424e-10
5.65243e-10
0.000950745
0.000852145
-2.15226e-09
8.94833e-07
7.89715e-07
9.06147e-08
1.83125e-09
9.71176e-08
2.3589e-07
2.53459e-07
2.62939e-07
8.89332e-08
9.25289e-09
2.33643e-09
2.3346e-09
6.03518e-09
8.71696e-09
2.05684e-09
1.3893e-09
1.45667e-09
2.02485e-09
9.64363e-10
8.33863e-10
0.000950651
0.000949925
-2.10423e-10
4.15413e-08
4.90543e-07
1.37163e-08
2.86805e-09
1.52795e-09
7.218e-08
3.81535e-07
3.82022e-07
3.82283e-07
8.56014e-08
5.4771e-09
4.79607e-09
2.12082e-08
3.06737e-08
2.07924e-08
8.91636e-09
4.34158e-09
3.04469e-09
2.12803e-09
1.76189e-09
0.000847001
0.000949327
-1.35943e-27
5.38294e-09
2.39733e-07
5.51447e-09
2.95926e-09
1.52617e-09
1.52808e-09
3.30353e-07
3.81852e-07
3.2109e-07
1.72515e-07
5.35095e-09
1.2309e-08
3.57222e-08
3.57766e-08
2.68191e-08
1.15828e-08
3.33568e-09
2.0618e-09
1.77218e-09
1.55332e-09
8.92303e-05
0.000303069
1.29351e-27
1.55477e-09
5.93566e-08
3.80676e-09
2.31756e-09
1.53434e-09
1.53753e-09
9.77952e-08
2.98936e-07
7.50821e-08
1.75288e-08
9.16284e-09
1.45856e-08
2.54025e-08
2.76178e-08
1.15471e-08
5.3164e-09
1.72574e-09
7.48996e-10
7.15021e-10
7.21873e-10
2.16391e-05
6.24258e-07
2.80888e-08
3.41324e-10
3.77528e-10
2.855e-09
3.75814e-09
7.04434e-09
2.22365e-08
1.16917e-08
5.38747e-10
7.36244e-10
1.18209e-09
1.96613e-09
5.72956e-09
8.59934e-09
7.3039e-09
3.78851e-09
1.27799e-09
5.06777e-10
3.97939e-10
4.24859e-10
4.81649e-10
1.22458e-06
1.12568e-06
3.30178e-09
2.99797e-09
4.2024e-09
9.0012e-09
3.42572e-08
3.53015e-08
1.60896e-08
5.52082e-10
5.40822e-10
5.39254e-10
1.0756e-09
1.68038e-09
1.21808e-09
6.22405e-10
3.3034e-10
2.40281e-10
2.143e-10
2.16565e-10
2.28445e-10
2.45653e-10
2.35839e-10
8.67919e-05
1.09601e-06
3.61918e-09
4.52345e-09
6.38454e-09
3.0305e-08
3.51377e-08
3.52345e-08
1.37952e-08
2.65319e-09
1.26866e-09
8.26023e-10
9.74395e-10
9.38673e-10
7.26366e-10
4.66066e-10
2.89955e-10
2.03127e-10
1.39995e-10
1.20495e-10
1.12547e-10
9.14009e-11
8.38887e-11
0.000764764
2.47822e-05
1.04486e-08
3.66165e-09
1.25165e-08
3.4359e-08
3.53062e-08
2.319e-08
5.99113e-09
1.50501e-09
7.37105e-10
5.79082e-10
5.53491e-10
4.51459e-10
3.06791e-10
1.94161e-10
1.2776e-10
8.63123e-11
6.38507e-11
5.20174e-11
4.20067e-11
3.44876e-11
2.81421e-11
0.000791417
9.0277e-05
7.99087e-09
3.67135e-09
1.19025e-08
2.83873e-08
2.15102e-08
7.62701e-09
1.8941e-09
5.66436e-10
3.69632e-10
3.15743e-10
2.59251e-10
1.83262e-10
1.13979e-10
6.82608e-11
4.47436e-11
3.19355e-11
2.36407e-11
1.88384e-11
1.48231e-11
9.94303e-12
7.7654e-12
0.000782632
0.000104564
3.70922e-09
5.86797e-09
1.12235e-08
1.20021e-08
6.31434e-09
1.90919e-09
6.60995e-10
2.94871e-10
1.84727e-10
1.4351e-10
1.02275e-10
6.37389e-11
3.6438e-11
2.12472e-11
1.37238e-11
9.9021e-12
7.60235e-12
5.42639e-12
3.47696e-12
2.4259e-12
1.85476e-12
0.000581145
5.77951e-05
3.13758e-09
3.08787e-09
5.16984e-09
3.41739e-09
1.45627e-09
6.39385e-10
2.6771e-10
1.27738e-10
8.04255e-11
5.55362e-11
3.37375e-11
1.87497e-11
9.91562e-12
5.58346e-12
3.42122e-12
2.38071e-12
1.7142e-12
1.28955e-12
6.88864e-13
4.70701e-13
3.45839e-13
1.21327e-05
2.59738e-06
4.59028e-08
3.06475e-09
2.08544e-09
1.29026e-09
6.21525e-10
2.67882e-10
1.17322e-10
5.373e-11
2.9953e-11
1.76675e-11
9.45147e-12
4.42654e-12
2.19856e-12
1.18794e-12
6.99488e-13
4.59225e-13
3.02649e-13
1.99152e-13
1.24973e-13
7.98861e-14
5.38751e-14
1.42708e-09
1.42758e-09
4.12695e-09
1.56587e-09
9.24501e-10
4.86424e-10
2.35151e-10
1.13112e-10
3.63157e-11
1.0577e-11
5.18416e-12
3.18561e-12
1.74791e-12
8.54312e-13
3.97418e-13
2.04127e-13
1.18811e-13
7.05213e-14
4.40006e-14
2.81443e-14
1.7552e-14
9.6166e-15
7.67449e-15
2.45233e-09
1.42609e-09
1.22377e-09
7.24205e-10
3.71155e-10
1.90261e-10
1.0397e-10
3.25718e-11
8.86087e-12
3.17717e-12
1.3844e-12
7.21129e-13
3.67844e-13
1.7846e-13
8.35182e-14
4.0556e-14
1.98583e-14
1.02937e-14
5.68315e-15
3.03494e-15
1.68079e-15
9.93616e-16
9.19213e-16
3.54015e-09
1.41112e-09
5.48899e-10
3.16129e-10
1.6461e-10
8.90446e-11
3.85371e-11
1.67249e-11
5.66816e-12
2.90886e-12
1.35228e-12
5.98802e-13
2.58276e-13
1.10095e-13
4.64999e-14
1.90807e-14
7.48248e-15
2.88993e-15
1.17372e-15
4.98622e-16
2.22508e-16
9.54014e-17
8.29674e-17
3.86477e-09
1.10165e-09
3.02567e-10
1.76153e-10
9.11466e-11
5.66216e-11
3.57623e-11
1.86317e-11
6.85988e-12
3.62866e-12
1.73062e-12
7.94886e-13
3.59504e-13
1.58022e-13
6.76813e-14
2.69427e-14
9.98884e-15
3.24443e-15
1.03334e-15
3.2273e-16
8.65353e-17
1.84064e-17
1.0566e-17
3.86404e-09
9.48388e-10
2.03389e-10
1.13973e-10
8.58477e-11
6.73078e-11
5.11676e-11
3.22996e-11
1.29354e-11
7.21249e-12
3.70479e-12
1.79767e-12
8.44938e-13
3.95008e-13
1.75635e-13
7.20044e-14
2.66885e-14
8.06065e-15
2.4498e-15
6.58443e-16
1.46219e-16
2.81288e-17
3.79441e-18
3.89705e-09
1.0878e-09
2.01212e-10
1.12113e-10
1.13701e-10
1.00618e-10
8.43094e-11
5.83211e-11
3.99289e-11
2.20981e-11
1.08823e-11
4.88563e-12
2.4161e-12
1.19349e-12
5.35271e-13
2.1657e-13
7.71811e-14
2.42104e-14
6.2755e-15
1.62525e-15
3.85696e-16
4.45262e-17
7.952e-18
4.30962e-09
1.4628e-09
2.15756e-10
1.25876e-10
1.55625e-10
1.58062e-10
1.50702e-10
1.21867e-10
1.04356e-10
7.36283e-11
3.44196e-11
1.31692e-11
6.20856e-12
3.23597e-12
1.43197e-12
5.54036e-13
1.91344e-13
5.39575e-14
1.51787e-14
3.53056e-15
7.46775e-16
1.10468e-16
9.39296e-18
5.0444e-09
1.80793e-09
2.82751e-10
1.38324e-10
1.91108e-10
2.27326e-10
2.38704e-10
2.395e-10
2.34782e-10
1.51935e-10
5.76813e-11
2.25028e-11
1.36773e-11
6.98274e-12
3.11892e-12
1.16955e-12
3.57682e-13
1.01372e-13
2.69625e-14
6.02529e-15
1.22291e-15
1.40686e-16
1.74456e-17
9.09188e-09
2.6252e-09
2.98867e-10
1.38573e-10
2.21741e-10
3.22482e-10
4.49468e-10
5.11538e-10
4.38149e-10
2.69217e-10
1.20339e-10
4.97872e-11
2.47368e-11
1.17953e-11
5.07753e-12
1.85611e-12
6.04808e-13
1.73796e-13
4.18339e-14
8.69105e-15
1.75103e-15
2.18766e-16
1.3049e-17
1.47773e-08
4.3206e-09
3.08274e-10
2.11401e-10
7.15955e-10
6.22509e-10
8.07233e-10
8.5926e-10
6.89262e-10
4.73959e-10
2.28877e-10
7.69373e-11
3.65843e-11
1.7774e-11
7.55158e-12
2.67769e-12
8.29712e-13
2.15422e-13
4.95444e-14
9.61028e-15
1.7367e-15
2.33375e-16
2.2316e-17
1.48751e-08
1.16685e-08
2.60242e-09
2.87915e-09
2.94964e-09
1.24496e-09
1.24094e-09
1.26339e-09
9.54261e-10
6.06758e-10
2.67424e-10
9.74247e-11
4.8827e-11
2.17702e-11
8.68501e-12
2.99474e-12
8.33092e-13
2.03885e-13
4.1613e-14
7.19995e-15
1.15014e-15
1.06459e-16
5.77012e-18
1.2748e-08
1.27173e-08
1.1023e-08
9.38099e-09
4.45857e-09
2.57305e-09
2.33717e-09
1.72647e-09
1.17039e-09
6.4295e-10
2.17116e-10
1.01761e-10
4.92268e-11
2.08978e-11
7.13196e-12
2.0959e-12
5.1141e-13
1.06208e-13
1.81013e-14
2.80497e-15
3.56436e-16
3.42646e-17
2.40204e-18
9.39023e-09
1.07564e-08
1.16421e-08
1.13678e-08
7.39968e-09
6.14941e-09
3.15642e-09
2.2005e-09
1.28588e-09
4.87295e-10
1.97376e-10
9.79949e-11
3.72008e-11
1.42553e-11
3.95734e-12
8.75596e-13
1.68368e-13
2.80958e-14
4.12792e-15
4.82948e-16
5.38645e-17
3.58475e-18
1.05546e-19
4.03756e-09
7.48838e-09
1.04879e-08
1.13432e-08
1.01314e-08
6.43806e-09
3.2235e-09
2.24653e-09
1.09569e-09
3.94774e-10
1.6806e-10
6.62277e-11
2.27742e-11
6.34489e-12
1.32077e-12
2.20959e-13
3.17782e-14
3.90735e-15
4.53079e-16
4.54863e-17
3.84644e-18
2.45818e-19
1.3195e-20
1.61273e-09
3.44091e-09
6.21306e-09
7.90215e-09
7.40097e-09
4.87201e-09
3.24383e-09
1.80011e-09
7.41368e-10
2.85261e-10
1.02448e-10
3.74507e-11
1.00825e-11
1.93073e-12
2.77466e-13
3.21871e-14
3.23257e-15
2.95789e-16
2.51286e-17
1.96389e-18
1.34546e-19
6.99073e-21
3.05168e-22
1.02521e-09
1.41757e-09
1.76915e-09
3.21403e-09
4.35891e-09
3.61051e-09
2.07403e-09
8.33562e-10
3.3092e-10
1.39895e-10
4.77551e-11
1.37503e-11
2.6513e-12
3.39983e-13
3.201e-14
2.59285e-15
1.74157e-16
1.05586e-17
5.96624e-19
3.10745e-20
1.44287e-21
5.62046e-23
1.68434e-24
0.0102893
0.0102487
0.00478467
2.32442e-05
9.75641e-05
7.82558e-05
2.3243e-05
2.33481e-05
0.00146562
0.000978214
2.3349e-05
2.32442e-05
0.00461736
0.000316266
5.49216e-05
0.000141817
0.00145989
0.000953487
0.00107146
0.00172316
0.000335799
0.00039072
0.00115321
0.00289712
0.00224596
0.00533204
0.010628
0.0196486
0.0198048
0.0198108
0.0198162
0.0198229
0.0153608
0.0159804
0.0134176
0.00883884
2.15864e-15
7.01416e-16
-1.62493e-34
-6.35272e-15
1.60882e-07
2.19966e-08
-4.07637e-17
-1.38071e-16
3.17161e-06
2.42673e-06
1.29626e-06
8.26509e-07
2.29366e-05
2.30782e-05
2.28437e-05
3.65247e-06
5.65858e-10
3.44628e-07
3.63423e-08
2.74901e-07
8.36969e-10
9.99133e-10
1.97795e-09
6.79868e-10
1.78886e-09
1.93085e-09
2.56972e-09
2.97541e-09
1.49022e-09
1.38977e-09
1.44794e-09
1.58929e-09
7.75237e-10
8.32996e-10
8.00842e-10
7.97468e-10
4.72939e-10
4.46623e-10
4.39173e-10
4.37393e-10
2.2443e-10
2.01582e-10
1.81346e-10
1.72377e-10
7.49984e-11
6.64444e-11
5.9517e-11
5.34245e-11
2.44858e-11
2.02118e-11
1.84044e-11
1.57208e-11
6.58593e-12
5.50152e-12
4.93632e-12
4.58201e-12
1.52811e-12
1.27171e-12
1.20597e-12
1.22707e-12
2.86714e-13
2.5375e-13
2.47914e-13
2.71546e-13
5.15943e-14
4.69494e-14
5.0159e-14
5.69914e-14
6.82434e-15
6.34122e-15
6.60215e-15
9.01231e-15
9.1208e-16
8.56485e-16
9.89867e-16
1.2533e-15
8.63911e-17
8.47958e-17
1.04368e-16
1.62844e-16
9.97296e-18
1.04136e-17
1.23627e-17
1.81715e-17
2.1552e-18
1.21695e-18
1.70116e-18
2.98877e-18
2.39729e-18
5.87699e-19
3.25676e-19
9.2227e-19
3.04995e-18
6.46985e-19
1.38905e-19
3.12705e-19
3.50642e-18
7.40954e-19
5.50266e-20
1.29625e-19
3.44031e-18
7.52845e-19
4.65245e-20
3.53493e-20
3.11866e-18
5.1462e-19
1.49904e-20
9.50255e-21
7.90282e-19
1.16602e-19
6.02403e-21
1.87469e-21
2.46986e-19
2.78659e-20
3.70022e-22
2.76406e-22
1.95999e-20
2.52639e-21
4.25718e-23
2.90557e-23
1.20146e-21
4.43037e-23
8.67044e-25
3.28984e-24
2.22137e-23
8.30514e-25
9.74408e-26
3.75917e-25
7.83128e-26
2.86738e-27
9.66686e-27
3.40703e-26
3.66658e-05
8.74005e-05
7.84547e-05
7.71555e-05
7.68173e-05
1.6845e-05
1.09186e-06
0.00100614
0.0039406
0.0137801
0.0122653
0.00500563
0.0116265
0.0228405
0.0291884
0.0208025
0.0025444
0.00283278
0.00933398
6.53321e-05
0.000243792
0.000793101
0.00166126
0.00106722
0.000229346
1.18413e-06
1.82515e-05
8.63775e-05
0.00724211
0.0261925
0.0349317
0.0352542
0.0349803
0.0180781
0.0025355
0.00255463
0.00988074
0.00955256
0.000602364
0.00361804
0.00710294
0.0077641
0.00609546
1.1272e-06
1.14024e-06
1.30085e-06
1.622e-06
0.00088412
0.00745692
0.0142608
0.023966
0.018277
0.00280985
0.0025354
0.00823683
0.0201329
0.0201327
0.00342174
0.00765959
0.00776408
0.00776411
0.00589061
1.09969e-06
2.30258e-06
1.49593e-05
1.62786e-06
1.63667e-06
7.87577e-05
0.000917875
0.00283139
0.00672018
0.00460763
0.00289295
0.0156119
0.0201318
0.0201329
0.00205307
0.00214474
0.00760537
0.0050033
0.000219904
1.28673e-06
1.67162e-05
0.00207469
0.00471085
0.00491204
0.00385089
0.00304063
0.00219134
0.00256691
0.00863784
0.00676897
0.0119186
0.019598
0.0130699
0.00773361
0.0119409
0.00645699
0.000234706
1.39776e-05
1.80729e-05
0.000190905
0.00627772
0.0133925
0.0133898
0.0133881
0.010926
0.0054595
0.00767391
0.00865589
0.00645242
0.00693178
0.00529717
0.000644209
0.0198229
0.0198163
0.0171586
1.39704e-05
1.3993e-05
0.00161666
0.00566694
0.00764175
0.00943432
0.0110334
0.00820656
0.00322403
0.00249224
0.00219719
0.00249745
0.00227816
0.00123987
0.000540176
3.6753e-05
0.0198274
0.0197573
0.0116105
0.000829112
0.000248832
0.00462527
0.0052396
0.00378157
0.000817846
6.60964e-07
6.66054e-07
4.01057e-05
0.000213351
1.34088e-10
6.13866e-11
6.39152e-11
6.13866e-11
2.20773e-06
4.17065e-06
0.00482962
0.00220458
0.00126658
0.00135491
0.00105886
8.96994e-05
1.16586e-06
1.17538e-06
1.87758e-06
2.77387e-06
6.68168e-07
1.78328e-07
1.8232e-07
1.05181e-07
1.62739e-10
4.8524e-08
8.9942e-07
1.27164e-06
1.44625e-06
-1.50015e-13
5.25225e-23
-7.00959e-22
1.60694e-05
1.64779e-07
7.4789e-07
1.76327e-06
2.3661e-06
4.32135e-06
5.19952e-06
6.07487e-06
5.68688e-06
2.85171e-06
6.31828e-07
7.90732e-11
8.23172e-08
2.127e-07
4.92834e-07
1.46443e-08
4.02554e-27
3.72896e-09
2.57672e-08
4.6943e-08
6.08234e-07
6.14056e-07
6.07574e-07
2.25074e-06
4.84453e-06
8.29006e-06
9.70686e-06
8.9959e-06
3.76961e-06
3.62525e-07
1.03572e-10
4.35487e-08
3.80063e-09
2.82705e-08
5.11948e-10
1.89777e-07
3.21966e-09
3.99005e-08
1.28238e-06
2.83355e-06
4.59716e-06
4.25358e-06
1.74189e-06
1.74475e-06
1.21988e-05
1.2199e-05
8.0443e-07
7.87384e-07
5.31028e-07
7.0427e-08
1.10232e-07
1.94727e-08
1.51757e-09
2.05112e-09
2.07653e-07
6.26677e-07
2.62331e-06
2.89436e-06
3.88775e-06
5.3249e-06
5.3129e-06
1.59028e-06
8.59176e-07
1.8023e-05
2.34511e-05
9.45798e-06
3.89819e-06
1.79465e-05
9.12811e-06
1.09074e-06
6.35091e-08
1.96585e-09
2.44455e-09
2.02867e-06
7.83867e-06
7.79407e-06
2.81972e-06
1.33959e-06
2.05735e-06
1.39363e-06
1.7891e-07
2.06445e-08
8.48482e-06
2.3086e-05
2.38609e-05
2.33998e-05
2.3738e-05
2.37607e-05
2.69077e-06
1.94112e-10
1.65317e-09
2.4563e-09
6.19135e-10
4.46546e-10
2.8402e-11
-1.20619e-11
-1.51926e-11
1.66945e-10
3.71886e-10
-3.51577e-12
-7.26855e-22
4.8028e-11
3.91193e-06
2.27199e-05
2.33648e-05
2.23194e-05
1.21948e-05
1.5509e-06
1.94497e-10
8.811e-10
2.54988e-09
2.79334e-09
2.10287e-09
1.7045e-09
2.40008e-09
2.65434e-09
2.12237e-09
1.33549e-09
9.09773e-10
1.48934e-09
9.74051e-10
2.32458e-10
1.6745e-06
9.62462e-06
3.07007e-07
2.85291e-11
2.75988e-11
1.96037e-10
6.74042e-10
2.94437e-09
1.94735e-09
1.6518e-09
1.41567e-09
2.10489e-09
2.63193e-09
2.60545e-09
1.57902e-09
1.08447e-09
1.96391e-09
1.70842e-09
2.39611e-10
2.25998e-12
1.76428e-12
7.26458e-10
2.30712e-10
2.44381e-10
2.35731e-10
9.48638e-10
3.30306e-09
8.4582e-10
7.05454e-10
5.21242e-10
5.05101e-10
1.25827e-09
1.06523e-09
7.68372e-10
5.26235e-10
1.05584e-09
3.12404e-10
5.00616e-11
1.46742e-11
3.43599e-10
2.40363e-09
1.12674e-09
3.09391e-10
3.06785e-10
1.03938e-09
3.37952e-09
4.08655e-10
2.74576e-10
1.90507e-10
1.71119e-10
2.1834e-10
2.28185e-10
1.98957e-10
1.45664e-10
4.45717e-11
4.30227e-11
3.74292e-11
3.09896e-11
5.48624e-10
3.25608e-09
1.07114e-09
1.82915e-10
2.39586e-10
1.16657e-09
3.38784e-09
1.49868e-10
1.0862e-10
9.6053e-11
8.6848e-11
8.51644e-11
8.36193e-11
8.38209e-11
7.20308e-11
5.94104e-11
5.40029e-11
4.26524e-11
3.58276e-11
5.23534e-11
2.08087e-10
1.55892e-10
1.18819e-10
1.93758e-10
1.22106e-09
3.40267e-09
4.46309e-11
4.14202e-11
4.53444e-11
5.06541e-11
5.37586e-11
5.57671e-11
5.34078e-11
5.0396e-11
5.05309e-11
4.75709e-11
3.89675e-11
3.4088e-11
2.97092e-11
2.47034e-11
4.29017e-11
5.85252e-11
1.3418e-10
1.54595e-09
3.39992e-09
1.49735e-11
1.61256e-11
2.01163e-11
2.35788e-11
2.52118e-11
2.4679e-11
2.37455e-11
2.46348e-11
2.6378e-11
2.75448e-11
2.63012e-11
2.25051e-11
1.91164e-11
2.02395e-11
2.12889e-11
3.7865e-11
1.27006e-10
1.68012e-09
2.92688e-09
5.31116e-12
6.54688e-12
8.04168e-12
9.32703e-12
1.02117e-11
1.0614e-11
1.05738e-11
1.07506e-11
1.0653e-11
1.10644e-11
1.12292e-11
9.84545e-12
9.09712e-12
9.68993e-12
1.39829e-11
3.01114e-11
1.0307e-10
1.79806e-09
2.21053e-09
1.61348e-12
2.29425e-12
3.00097e-12
3.39072e-12
3.65278e-12
3.71863e-12
4.00384e-12
4.1098e-12
4.47285e-12
4.38496e-12
4.32549e-12
4.38172e-12
4.73452e-12
6.47597e-12
1.14134e-11
2.96028e-11
1.16592e-10
1.81375e-09
2.00547e-09
4.53055e-13
7.1409e-13
9.5608e-13
1.17005e-12
1.23992e-12
1.3081e-12
1.37509e-12
1.5266e-12
1.59261e-12
1.76662e-12
1.43126e-12
2.12552e-12
3.23225e-12
5.70155e-12
1.23024e-11
4.03383e-11
1.87209e-10
1.85901e-09
1.87265e-09
9.46141e-14
1.91262e-13
2.83901e-13
3.61967e-13
4.00433e-13
4.26287e-13
4.66192e-13
4.86238e-13
5.49557e-13
7.36269e-13
1.00085e-12
1.80465e-12
3.00005e-12
7.5344e-12
1.79616e-11
5.70327e-11
3.58736e-10
1.86321e-09
1.82658e-09
2.23124e-14
4.48324e-14
7.04027e-14
9.3211e-14
1.2012e-13
1.37391e-13
1.54573e-13
1.91491e-13
2.78192e-13
4.90032e-13
9.51966e-13
2.0267e-12
4.59078e-12
1.06399e-11
2.5863e-11
7.6567e-11
4.69348e-10
1.90484e-09
1.59796e-09
2.94775e-15
7.69121e-15
1.37671e-14
2.1805e-14
2.99673e-14
4.22446e-14
6.01006e-14
1.01749e-13
2.08666e-13
4.78206e-13
1.16612e-12
2.79104e-12
6.87746e-12
1.73595e-11
5.1821e-11
1.61945e-10
6.32e-10
1.91828e-09
1.28817e-09
5.81556e-16
1.30751e-15
2.70981e-15
4.83329e-15
8.81019e-15
1.64892e-14
3.46011e-14
8.25836e-14
2.07917e-13
5.32111e-13
1.31789e-12
3.25717e-12
8.02123e-12
2.25704e-11
8.34852e-11
2.4971e-10
7.90861e-10
1.91289e-09
9.24972e-10
8.25226e-17
2.60248e-16
6.32727e-16
1.57505e-15
3.98429e-15
1.05121e-14
2.82021e-14
7.68591e-14
2.05154e-13
5.23482e-13
1.30884e-12
3.3051e-12
8.26071e-12
2.39978e-11
9.8163e-11
3.04682e-10
8.61351e-10
1.54062e-09
7.50495e-10
2.3583e-17
8.98173e-17
2.83011e-16
9.04783e-16
2.80097e-15
8.35184e-15
2.37115e-14
6.69296e-14
1.78967e-13
4.60039e-13
1.17065e-12
3.01796e-12
7.91994e-12
2.24811e-11
9.87159e-11
3.30876e-10
8.56003e-10
1.0741e-09
5.73541e-10
1.03611e-17
4.57735e-17
1.66676e-16
5.8698e-16
1.96896e-15
5.99975e-15
1.75412e-14
4.9722e-14
1.3383e-13
3.49385e-13
9.1242e-13
2.42565e-12
6.79476e-12
1.87819e-11
6.96179e-11
3.11649e-10
6.90221e-10
8.79242e-10
4.51558e-10
4.75669e-18
2.191e-17
8.54753e-17
3.20123e-16
1.11393e-15
3.57464e-15
1.05731e-14
3.04173e-14
8.30418e-14
2.23222e-13
6.06488e-13
1.69251e-12
5.04894e-12
1.44915e-11
3.59065e-11
1.72404e-10
5.37775e-10
6.37517e-10
2.33173e-10
1.614e-18
8.24188e-18
3.52674e-17
1.35087e-16
5.02986e-16
1.69144e-15
5.07998e-15
1.49621e-14
4.199e-14
1.18612e-13
3.39062e-13
1.01828e-12
3.22452e-12
9.93039e-12
2.23728e-11
7.23247e-11
3.23923e-10
4.23401e-10
1.32331e-10
4.16003e-19
2.3058e-18
1.09041e-17
4.75589e-17
1.87714e-16
6.40567e-16
1.95947e-15
5.85586e-15
1.73048e-14
5.24307e-14
1.65631e-13
5.4693e-13
1.84211e-12
5.88457e-12
1.43748e-11
3.06979e-11
9.71576e-11
2.36432e-10
7.12224e-11
8.91766e-20
5.24207e-19
2.66381e-18
1.23659e-17
5.1147e-17
1.79658e-16
5.74199e-16
1.8792e-15
5.99035e-15
1.98395e-14
6.96842e-14
2.58674e-13
9.43934e-13
3.09105e-12
8.24518e-12
1.64056e-11
3.62304e-11
8.30959e-11
3.84577e-11
1.51471e-20
9.0914e-20
4.96462e-19
2.38781e-18
9.76379e-18
3.49736e-17
1.25582e-16
4.47376e-16
1.57033e-15
5.92112e-15
2.39763e-14
1.032e-13
4.17861e-13
1.42783e-12
3.88137e-12
8.68313e-12
1.71151e-11
3.37913e-11
2.28155e-11
1.78544e-21
1.19566e-20
6.45494e-20
3.0963e-19
1.32074e-18
5.03611e-18
1.95281e-17
7.63784e-17
3.17371e-16
1.37982e-15
6.50937e-15
3.37428e-14
1.54986e-13
5.38178e-13
1.54675e-12
3.60493e-12
6.9575e-12
1.04769e-11
1.00552e-11
2.05117e-22
1.1201e-21
4.98366e-21
2.0602e-20
8.57775e-20
3.44819e-19
1.65646e-18
8.65148e-18
4.53652e-17
2.50997e-16
1.38822e-15
8.76362e-15
4.56714e-14
1.78279e-13
5.02742e-13
1.20995e-12
2.54361e-12
3.88275e-12
5.30392e-12
1.74841e-23
7.9085e-23
3.19519e-22
1.39854e-21
6.91801e-21
3.66554e-20
2.0872e-19
1.24258e-18
8.06168e-18
5.2343e-17
3.38336e-16
2.29231e-15
1.2889e-14
5.11942e-14
1.53795e-13
3.53304e-13
6.13709e-13
1.57898e-12
1.85832e-12
1.27521e-24
4.31769e-24
1.43125e-23
6.42627e-23
3.92585e-22
2.71052e-21
1.99856e-20
1.46304e-19
1.16203e-18
8.96095e-18
6.70746e-17
4.32941e-16
2.52016e-15
1.05698e-14
3.40881e-14
8.45753e-14
1.4486e-13
3.45782e-13
3.14284e-13
7.45686e-26
1.77424e-25
4.74324e-25
2.34017e-24
1.78544e-23
1.48847e-22
1.30972e-21
1.28047e-20
1.18282e-19
9.57071e-19
7.24881e-18
4.5389e-17
2.64918e-16
1.18552e-15
3.99817e-15
1.026e-14
1.96096e-14
3.28122e-14
2.43443e-15
)
;

boundaryField
{
    leftWall
    {
        type            zeroGradient;
    }
    rightWall
    {
        type            zeroGradient;
    }
    lowerWall
    {
        type            zeroGradient;
    }
    atmosphere
    {
        type            inletOutlet;
        inletValue      uniform 0;
        value           nonuniform List<scalar> 
46
(
1.02521e-09
1.41757e-09
1.76915e-09
3.21403e-09
4.35891e-09
3.61051e-09
2.07403e-09
8.33562e-10
3.3092e-10
1.39895e-10
4.77551e-11
1.37503e-11
2.6513e-12
3.39983e-13
0
0
0
0
0
0
0
0
0
0
0
0
0
0
0
0
0
0
0
0
0
0
0
0
0
0
0
0
0
0
0
0
)
;
    }
    defaultFaces
    {
        type            empty;
    }
}


// ************************************************************************* //
