/*--------------------------------*- C++ -*----------------------------------*\
| =========                 |                                                 |
| \\      /  F ield         | OpenFOAM: The Open Source CFD Toolbox           |
|  \\    /   O peration     | Version:  2312                                  |
|   \\  /    A nd           | Website:  www.openfoam.com                      |
|    \\/     M anipulation  |                                                 |
\*---------------------------------------------------------------------------*/
FoamFile
{
    version     2.0;
    format      ascii;
    arch        "LSB;label=32;scalar=64";
    class       volScalarField;
    location    "2.15";
    object      alpha.water;
}
// * * * * * * * * * * * * * * * * * * * * * * * * * * * * * * * * * * * * * //

dimensions      [0 0 0 0 0 0 0];

internalField   nonuniform List<scalar> 
2268
(
7.80061e-10
4.78382e-10
1.68195e-10
6.01159e-11
3.45504e-11
2.8878e-11
2.70869e-11
2.68476e-11
2.72951e-11
2.84655e-11
3.04861e-11
3.42546e-11
3.99239e-11
4.76443e-11
5.92191e-11
7.89695e-11
1.11711e-10
1.69822e-10
2.62269e-10
4.14962e-10
6.77697e-10
9.20503e-10
1.10811e-09
8.94774e-10
5.58696e-10
2.11045e-10
9.14396e-11
5.79865e-11
4.45726e-11
4.09263e-11
4.09218e-11
4.15459e-11
4.1914e-11
4.26807e-11
5.12852e-11
7.05517e-11
9.14682e-11
1.15999e-10
1.60525e-10
2.3799e-10
3.81303e-10
6.77869e-10
1.15579e-09
1.86639e-09
2.19237e-09
2.26096e-09
1.44655e-09
5.26183e-10
2.29987e-10
1.14699e-10
8.29155e-11
7.0746e-11
6.29949e-11
5.60119e-11
4.94815e-11
4.34828e-11
4.32181e-11
6.46038e-11
1.72667e-10
2.83792e-10
3.01037e-10
3.57594e-10
4.56055e-10
3.8011e-10
5.51563e-10
9.34835e-10
1.31121e-09
2.22408e-09
2.40993e-09
8.46192e-10
8.52578e-10
1.64278e-10
9.76273e-11
8.46944e-11
8.56271e-11
7.53989e-11
4.80125e-11
2.72879e-11
2.2335e-11
2.33162e-11
2.05437e-11
1.66946e-11
1.66059e-11
1.67387e-11
1.66502e-11
1.67835e-11
1.66502e-11
1.67835e-11
1.66502e-11
3.14529e-11
3.28825e-10
3.27585e-10
4.0061e-06
3.71406e-08
2.01858e-11
3.00445e-11
3.14254e-11
2.18003e-11
7.17758e-13
9.78022e-24
2.07159e-30
8.03097e-30
1.99244e-30
9.20223e-20
9.12795e-20
0.0289654
0.0565757
0.0722636
0.0738485
0.0642674
0.050311
0.0277274
1.73328e-11
1.73643e-11
5.04283e-05
1.57564e-05
2.99372e-07
7.83536e-20
-1.5724e-22
2.70137e-21
1.91556e-25
1.91837e-25
0.0145685
0.0653804
0.156417
0.283416
0.427068
0.579999
0.691717
0.758243
0.78742
0.79117
0.772879
0.73313
0.667879
0.577231
0.463571
0.391161
2.18292e-19
1.35752e-19
1.14696e-19
0.00348536
0.103624
0.314654
0.535638
0.687451
0.801505
0.910815
0.970647
0.991847
0.999192
0.999316
0.999316
0.998824
0.998151
0.994662
0.975014
0.929626
0.89809
0.904968
0.911368
0.080386
0.0958554
0.282462
0.586261
0.838778
0.979177
0.999117
0.999304
0.999312
0.999316
0.999316
0.999316
0.999316
0.999304
0.999316
0.999316
0.998378
0.943229
0.692545
0.575109
0.580501
0.775909
0.932559
0.0581761
0.0318244
0.0315007
0.0354234
0.0266843
0.025331
0.0234758
0.0209184
0.0208963
0.0208966
0.0210744
0.0248892
0.0248385
0.0247453
0.0250976
0.0234527
0.0150131
0.0118021
0.0118021
0.0629944
0.0313958
0.0314068
0.0497204
0.0539452
0.032359
0.0209949
0.0209551
0.0956874
0.107193
0.0166091
0.0166247
0.0150244
0.0149343
0.0300778
0.0330545
0.0467253
0.172448
0.0661766
0.10127
0.115618
0.109671
0.079
0.054554
0.0594784
0.0828167
0.0728822
0.0859294
0.120839
0.237065
0.274343
0.20852
0.055358
0.0142392
0.0141767
0.400319
0.76494
0.550259
0.550875
0.573922
0.561391
0.473699
0.485771
0.524961
0.548566
0.539914
0.484585
0.487976
0.544747
0.593907
0.412017
0.121069
0.0144212
0.398465
0.895324
0.904528
0.638715
0.676207
0.676118
0.665247
0.577887
0.643045
0.642539
0.648058
0.710103
0.714437
0.714433
0.714429
0.675186
0.252522
0.0959386
0.221743
0.853667
0.894425
0.884582
0.638047
0.676207
0.63452
0.420497
0.420298
0.462523
0.470022
0.336905
0.336488
0.365857
0.537927
0.714004
0.352903
0.176626
0.209587
0.753356
0.875939
0.730686
0.680902
0.704737
0.579696
0.459497
0.453803
0.451662
0.538701
0.646757
0.778906
0.383311
0.172829
0.168069
0.298661
0.286531
0.46508
0.71595
0.83766
0.817649
0.605347
0.661603
0.88827
0.58006
0.685666
0.696402
0.880123
0.999603
0.999736
0.976508
0.398765
0.114518
0.147025
0.234419
0.58375
0.871962
0.871792
0.836853
0.623769
0.607496
0.896827
0.89165
0.749721
0.866081
0.964871
0.993788
0.993958
0.99429
0.994317
0.989311
0.991484
0.998851
0.999311
0.999316
0.999316
0.99898
0.998221
0.998986
0.988753
0.737417
0.569534
0.579717
0.778186
0.994229
0.97751
0.919407
0.96816
0.968026
0.859069
0.729406
0.679582
0.625484
0.602771
0.690385
0.823717
0.902404
0.912597
0.968827
0.998889
0.996417
0.992875
0.979373
0.756954
0.587886
0.939268
0.99478
0.99482
0.99422
0.445985
0.488848
0.445249
0.265741
0.125934
0.0551409
0.0262508
0.0201773
0.0458126
0.124958
0.261204
0.468883
0.631549
0.760398
0.941813
0.992935
0.957449
0.867975
0.914465
0.977014
0.971548
0.94123
0.944992
0.00281938
4.69459e-12
1.82982e-23
8.7892e-21
5.07315e-20
3.85133e-18
-3.22443e-08
-3.67242e-08
2.68194e-06
-9.03066e-09
-1.80309e-12
0.00465298
0.0472847
0.0971414
0.263509
0.809094
0.949585
0.94786
0.947685
0.916581
0.507904
0.252432
0.245056
0.000115234
1.79612e-05
-2.1696e-22
-7.05297e-40
3.16286e-05
0.000103311
1.48244e-05
2.56789e-05
1.15343e-05
1.43718e-06
-3.99725e-16
-2.05022e-21
9.76941e-20
1.19699e-19
1.07504e-06
0.0559408
0.382093
0.741042
0.794189
0.371103
0.00378804
2.27716e-22
-7.6462e-23
0.000836984
0.000140381
0.000499251
0.000379002
0.000577173
0.000847635
0.000835028
9.24442e-05
3.61152e-06
1.713e-06
0.000703271
0.00107186
0.000504622
6.0497e-09
3.07052e-06
3.13907e-06
0.0036146
0.0459501
0.0341028
1.93616e-05
1.94849e-05
0.000122913
0.00018593
0.00190254
0.00081822
0.00248092
0.00247527
0.000292847
0.000303769
0.000280541
8.93295e-05
0.000266803
0.00178602
0.00209564
0.00198923
6.72144e-09
6.89572e-09
1.64353e-08
7.41363e-06
7.56461e-06
7.72987e-06
7.90878e-06
5.90806e-05
0.000322149
0.000599209
0.000870402
0.00190903
0.000611695
1.18284e-05
0.000175979
0.000131374
0.000429483
0.00129415
0.00223064
0.00262801
0.00262713
0.00106492
0.000642388
7.59404e-09
9.4253e-06
3.00153e-05
7.56773e-06
8.01379e-06
0.000386345
0.00180412
0.00180423
0.00144458
0.00210034
0.00801425
0.00167146
1.32905e-06
1.57518e-06
1.49533e-06
0.000243688
0.00243077
0.00314951
0.00206323
0.000686875
0.000732812
0.00087417
0.00113544
0.00112175
0.00105911
0.00122709
0.00155159
0.00168687
0.000855579
0.000877221
0.00142343
0.00567343
0.0103938
0.01035
0.000773323
5.34299e-07
0.000685449
0.00305268
0.00316058
0.00315
0.00316103
0.00246696
0.000582739
0.000523906
0.000711959
0.00115934
0.00148285
0.00245237
0.00644453
0.00644819
0.00233764
0.000864508
0.00385343
0.00648659
0.00636395
0.00236923
3.49093e-05
9.32076e-05
1.11897e-06
0.000510582
0.00110934
0.000594192
0.000540092
0.000658761
0.000573502
0.000241716
6.57858e-05
5.71545e-05
4.0083e-05
0.00107055
0.00600487
0.00688365
0.00687865
0.005493
0.00167144
0.000429628
7.09297e-05
3.36404e-05
5.74261e-13
3.84672e-16
4.93463e-07
6.52569e-07
8.56296e-05
7.42756e-09
1.49874e-08
1.17338e-06
4.2113e-05
9.41222e-05
0.000151795
0.000150701
0.000104455
3.55431e-05
2.08008e-05
2.79936e-10
2.09791e-16
-2.38203e-19
-8.93753e-19
2.58333e-18
1.44307e-09
1.77843e-09
3.68511e-07
2.4705e-06
9.11076e-07
2.72709e-09
1.07814e-09
1.33582e-09
5.56024e-09
1.56991e-07
1.30366e-06
2.5639e-06
2.93707e-06
3.24105e-06
1.63671e-05
5.564e-05
8.10569e-05
7.8798e-05
3.00006e-05
2.94889e-05
5.21522e-05
8.38857e-05
6.7176e-05
7.15803e-06
1.30676e-08
4.53486e-06
6.33863e-06
4.63661e-06
0.021626
0.0120902
1.36154e-09
2.34604e-08
8.22138e-08
6.40435e-07
5.55941e-07
1.48842e-06
3.33482e-06
3.14904e-06
2.4845e-06
5.92348e-07
4.11418e-07
4.36201e-07
1.31253e-06
1.17216e-05
8.32975e-05
8.3085e-05
5.64946e-05
1.36544e-06
6.44767e-06
5.97471e-06
3.07317e-06
0.0390089
0.0321744
-1.12679e-10
4.6487e-08
5.04657e-08
1.33746e-07
7.38098e-08
1.07027e-07
5.46078e-07
6.899e-07
2.97393e-06
4.38096e-06
4.55131e-06
1.11906e-06
2.11399e-08
2.01999e-07
1.44712e-07
4.47229e-08
4.42165e-08
2.57141e-06
9.71581e-06
2.01351e-08
1.90447e-08
0.0390186
0.03898
-1.24874e-12
4.44648e-08
2.9932e-08
2.75916e-08
2.77163e-08
2.75437e-08
7.15894e-07
8.28704e-07
4.75117e-07
7.07888e-07
3.87715e-06
2.1387e-06
8.43605e-09
4.96519e-08
1.29224e-07
7.99908e-08
4.47174e-08
4.19071e-08
4.19303e-08
1.18771e-07
1.38984e-07
0.0386318
0.0342938
-6.82596e-14
1.10819e-08
8.12067e-09
9.05423e-08
1.09829e-07
1.51635e-07
1.15516e-06
1.15644e-06
5.4338e-07
1.09153e-10
1.08731e-10
1.0922e-10
4.46296e-09
4.69879e-09
1.71636e-09
2.6587e-10
1.00055e-08
2.58827e-08
2.00756e-08
4.50635e-09
3.95312e-09
0.00533099
0.00404034
-8.56083e-28
1.97458e-09
1.84871e-07
2.50666e-07
9.60541e-08
5.8032e-08
5.70948e-07
7.32125e-07
1.51525e-07
1.07427e-10
1.28083e-10
3.08277e-10
6.06559e-10
2.99893e-10
2.64755e-10
2.64883e-10
2.76057e-10
4.65259e-10
1.9093e-09
4.33363e-09
4.50625e-09
0.00125537
1.0537e-05
2.895e-06
1.59207e-09
4.75908e-07
5.18087e-07
1.05024e-07
5.65029e-08
1.46521e-10
1.45511e-10
1.46416e-10
1.90293e-10
2.26923e-10
5.48888e-10
9.88487e-10
1.02993e-09
7.40283e-10
4.50925e-10
3.16831e-10
3.93615e-10
8.6817e-10
2.077e-09
3.19192e-09
9.65197e-06
5.94431e-06
2.1853e-06
1.82113e-07
5.72421e-07
3.51854e-07
5.5356e-08
3.28061e-09
1.79112e-10
1.8175e-10
1.53863e-10
1.57361e-10
2.03934e-10
3.78012e-10
4.24446e-10
3.71314e-10
2.93802e-10
2.6303e-10
2.98495e-10
5.79308e-10
9.87161e-10
1.37878e-09
1.39247e-09
3.3242e-07
7.03565e-07
7.56378e-07
3.8549e-07
3.08618e-07
9.21738e-08
1.974e-08
1.20473e-08
2.54481e-09
6.44417e-10
3.24799e-10
1.85653e-10
1.87512e-10
2.2906e-10
2.21504e-10
1.96684e-10
1.87336e-10
2.10767e-10
2.72929e-10
3.76982e-10
4.6705e-10
4.09491e-10
3.68628e-10
0.0308658
0.000792471
6.16531e-07
2.35903e-07
6.88127e-08
2.72641e-08
2.46329e-08
8.55819e-09
1.42773e-09
4.16095e-10
2.11322e-10
1.45771e-10
1.3763e-10
1.34081e-10
1.25727e-10
1.22167e-10
1.26446e-10
1.41699e-10
1.70432e-10
1.77091e-10
1.68472e-10
1.4374e-10
1.05985e-10
0.0417361
0.00602298
3.56204e-07
7.7799e-08
1.24016e-08
1.56659e-08
1.02562e-08
3.22804e-09
7.1736e-10
2.13269e-10
1.39954e-10
1.10816e-10
9.39846e-11
8.27061e-11
7.49954e-11
7.10239e-11
7.07219e-11
7.34273e-11
7.06071e-11
6.99272e-11
6.1027e-11
3.90302e-11
2.43312e-11
0.0419384
0.0101879
6.27323e-08
1.88774e-08
4.90836e-09
4.17884e-09
2.53009e-09
8.37833e-10
3.00459e-10
1.61477e-10
1.13836e-10
8.71632e-11
6.75944e-11
5.36035e-11
4.39744e-11
3.74866e-11
3.29527e-11
2.95313e-11
2.64442e-11
2.15927e-11
1.42222e-11
8.31026e-12
5.27192e-12
0.041949
0.0072053
2.01533e-09
1.50119e-09
1.42034e-09
1.41748e-09
8.51757e-10
3.66704e-10
1.98135e-10
1.39982e-10
1.05493e-10
7.78746e-11
5.43692e-11
3.83054e-11
2.70394e-11
1.94538e-11
1.40837e-11
1.05993e-11
7.8984e-12
5.87971e-12
2.77979e-12
1.65118e-12
1.08965e-12
0.00636026
0.000808695
1.42062e-09
2.53126e-08
7.63906e-09
1.60024e-09
5.1755e-10
2.62942e-10
1.91179e-10
1.49719e-10
1.11897e-10
7.83738e-11
5.16684e-11
3.17613e-11
1.9674e-11
1.20311e-11
7.14335e-12
4.36451e-12
2.59094e-12
1.50339e-12
7.63554e-13
3.78872e-13
2.13445e-13
3.32073e-08
3.31282e-08
1.03554e-07
2.58463e-08
4.02457e-09
8.12084e-10
3.69105e-10
2.79836e-10
2.35086e-10
1.86071e-10
1.35041e-10
8.92472e-11
5.46103e-11
3.16098e-11
1.7246e-11
9.24561e-12
4.96626e-12
2.50512e-12
1.28672e-12
6.48046e-13
2.95056e-13
1.13455e-13
6.02627e-14
7.1081e-08
3.76852e-08
2.91666e-08
6.61173e-09
1.25415e-09
5.32062e-10
4.49566e-10
3.87118e-10
3.06549e-10
2.3489e-10
1.66666e-10
1.07758e-10
6.35848e-11
3.47787e-11
1.77529e-11
8.85061e-12
4.12575e-12
1.88548e-12
8.73493e-13
3.79871e-13
1.55016e-13
5.26487e-14
2.51105e-14
1.79572e-07
4.48396e-08
6.78265e-09
1.83062e-09
7.23738e-10
6.69245e-10
6.5483e-10
5.26427e-10
3.85058e-10
3.10243e-10
2.21222e-10
1.39338e-10
7.97568e-11
4.2149e-11
2.09034e-11
9.69133e-12
4.1724e-12
1.70696e-12
7.03863e-13
2.83742e-13
1.03567e-13
3.00672e-14
9.89825e-15
1.79568e-07
3.35324e-08
2.07516e-09
1.04205e-09
7.51798e-10
9.5337e-10
8.96433e-10
6.87292e-10
5.09797e-10
4.24558e-10
3.07603e-10
1.97665e-10
1.15349e-10
6.12055e-11
3.01808e-11
1.3512e-11
5.59158e-12
2.05263e-12
7.44688e-13
2.64489e-13
8.1566e-14
1.76611e-14
6.00661e-15
1.67572e-07
1.5507e-08
1.30886e-09
9.92641e-10
1.04358e-09
1.25931e-09
1.16601e-09
9.33642e-10
7.20623e-10
6.25701e-10
4.87757e-10
3.29201e-10
1.9496e-10
1.06106e-10
5.30279e-11
2.40969e-11
9.88476e-12
3.37214e-12
1.1276e-12
3.43823e-13
9.07772e-14
1.98671e-14
3.48973e-15
8.32235e-08
6.77744e-09
1.32973e-09
1.09669e-09
1.32271e-09
1.42894e-09
1.28416e-09
1.08516e-09
1.04395e-09
9.86921e-10
7.70602e-10
5.26546e-10
3.37348e-10
1.92626e-10
9.77535e-11
4.49029e-11
1.81021e-11
6.36812e-12
1.87708e-12
5.44986e-13
1.41755e-13
1.96846e-14
4.05213e-15
3.83758e-08
8.18249e-09
1.87366e-09
1.11345e-09
1.3547e-09
1.40908e-09
1.02771e-09
8.31191e-10
1.45088e-09
1.58283e-09
1.28025e-09
8.77655e-10
5.46575e-10
3.11557e-10
1.54686e-10
6.94552e-11
2.81705e-11
9.4436e-12
3.02596e-12
8.0602e-13
1.99679e-13
3.23795e-14
3.19624e-15
1.48019e-08
1.45607e-08
2.2202e-09
8.78521e-10
1.00982e-09
9.20892e-10
5.41079e-10
5.17832e-10
2.47473e-09
2.41839e-09
2.12662e-09
1.53626e-09
8.9262e-10
4.38781e-10
2.13864e-10
9.35792e-11
3.58561e-11
1.22234e-11
3.83163e-12
1.00804e-12
2.25399e-13
3.05326e-14
4.20388e-15
6.48309e-08
1.07998e-08
4.26591e-10
4.14856e-10
4.99004e-10
3.79202e-10
2.54711e-09
1.55072e-09
6.03103e-09
3.60165e-09
3.70732e-09
2.3595e-09
1.0627e-09
5.03958e-10
2.40855e-10
1.03406e-10
3.94877e-11
1.36833e-11
3.99909e-12
1.00495e-12
2.43926e-13
3.42023e-14
2.5228e-15
1.1185e-06
1.07596e-08
1.14108e-08
4.10774e-10
9.45212e-10
3.71377e-10
3.73455e-10
5.86374e-08
2.24658e-08
7.78039e-09
4.99193e-09
1.9048e-09
8.65944e-10
4.55445e-10
2.25434e-10
9.78315e-11
3.80327e-11
1.2364e-11
3.51294e-12
8.27384e-13
1.77556e-13
2.81663e-14
3.0542e-15
1.29122e-06
9.98646e-07
1.81675e-07
1.98747e-08
2.87152e-09
9.4059e-09
4.30301e-07
2.49625e-07
4.4303e-08
1.22023e-08
4.08312e-09
1.16375e-09
7.05096e-10
3.78781e-10
1.8227e-10
7.79329e-11
2.76658e-11
8.59776e-12
2.21012e-12
4.77289e-13
9.37341e-14
1.01427e-14
7.05248e-16
1.11247e-06
1.12994e-06
2.37828e-07
4.46819e-08
3.69179e-07
3.04816e-06
2.03794e-06
2.05486e-07
2.74363e-08
7.58136e-09
1.15161e-09
9.07527e-10
5.76286e-10
2.93527e-10
1.26658e-10
4.81897e-11
1.5431e-11
4.19891e-12
9.31477e-13
1.83871e-13
2.92046e-14
3.50308e-15
2.93036e-16
4.87355e-07
4.96835e-07
2.84851e-07
5.76568e-07
3.02742e-06
3.2722e-06
1.65588e-06
1.68291e-07
9.75529e-09
1.12814e-09
1.12238e-09
8.79595e-10
4.25309e-10
1.96581e-10
7.19881e-11
2.18449e-11
5.77348e-12
1.30721e-12
2.56165e-13
3.95488e-14
5.68874e-15
4.61824e-16
2.21318e-17
9.75497e-07
2.94987e-07
2.85818e-07
3.06007e-06
3.20065e-06
2.80707e-06
2.96776e-07
7.71605e-08
8.35723e-09
1.45713e-09
1.06803e-09
5.87258e-10
2.60277e-10
9.64574e-11
2.80204e-11
6.71961e-12
1.3843e-12
2.40315e-13
3.80369e-14
5.0982e-15
5.46084e-16
4.38636e-17
3.05752e-18
1.11447e-06
6.79643e-07
3.1572e-07
1.39341e-06
2.02336e-06
4.01069e-07
1.30146e-07
2.11008e-08
3.67511e-09
1.39117e-09
7.095e-10
3.44974e-10
1.2691e-10
3.49195e-11
7.45029e-12
1.29754e-12
1.93876e-13
2.57755e-14
3.08906e-15
3.30945e-16
3.03773e-17
2.0648e-18
1.20601e-19
1.0197e-06
8.80408e-07
2.02901e-07
1.93886e-07
3.94247e-07
1.82934e-07
3.17998e-08
2.3194e-09
1.13591e-09
7.91543e-10
3.96796e-10
1.56573e-10
4.36128e-11
8.48967e-12
1.24098e-12
1.5326e-13
1.58712e-14
1.4718e-15
1.24246e-16
9.44158e-18
6.28093e-19
3.43865e-20
1.4257e-21
0.936523
0.927234
0.718505
0.603387
0.982072
0.977369
0.988191
0.997247
0.954625
0.957733
0.959914
0.96011
0.276038
0.285147
0.286748
0.285099
2.42958e-05
6.7472e-05
2.86801e-08
3.60361e-09
0.000238438
0.000613831
0.000808276
0.000400432
0.00419113
0.00899609
0.0112682
0.0077
0.0112683
0.0112682
0.0112682
0.0106537
0.0112682
0.0105346
0.00113379
3.56697e-08
0.000703183
0.00143974
0.000657987
2.56175e-05
1.69926e-16
2.43444e-13
7.6468e-07
5.16829e-07
5.25738e-08
6.19962e-08
6.18969e-08
6.02971e-08
6.20922e-09
5.01939e-07
1.10786e-06
4.05875e-06
6.14118e-09
6.1242e-09
6.09889e-09
2.52973e-07
1.92653e-08
1.44652e-08
6.99816e-09
1.36273e-09
4.52245e-08
2.24978e-08
9.90561e-09
3.33765e-09
2.96272e-09
2.65282e-09
2.43728e-09
1.34396e-09
4.90447e-09
4.91702e-09
4.3472e-09
1.91285e-09
3.26627e-09
3.21782e-09
2.54651e-09
1.32866e-09
1.30442e-09
9.87872e-10
6.83863e-10
3.99322e-10
2.96529e-10
2.19112e-10
1.588e-10
1.10515e-10
7.74841e-11
5.40932e-11
4.17789e-11
3.56198e-11
1.71232e-11
1.3193e-11
1.2289e-11
1.23055e-11
4.00919e-12
3.50266e-12
3.60757e-12
3.84134e-12
9.21499e-13
8.59726e-13
8.84225e-13
1.0191e-12
2.04751e-13
1.94083e-13
2.17028e-13
2.60482e-13
3.89764e-14
3.60281e-14
3.81423e-14
5.31839e-14
9.53237e-15
7.26289e-15
7.78893e-15
9.67831e-15
3.81035e-15
1.432e-15
1.22815e-15
1.62835e-15
2.70522e-15
5.7119e-16
1.83604e-16
2.14824e-16
1.54789e-15
2.25144e-16
2.8951e-17
2.76515e-17
1.3829e-15
2.76194e-16
1.1705e-17
3.21437e-18
1.15288e-15
2.55749e-16
1.23618e-17
4.18842e-19
9.60907e-16
2.26041e-16
1.07754e-17
1.64199e-19
7.30431e-16
1.76018e-16
1.20811e-17
1.82127e-19
4.83825e-16
9.12352e-17
3.038e-18
1.28667e-20
1.15552e-16
2.07971e-17
1.39822e-18
1.88576e-20
3.70186e-17
5.19656e-18
8.52881e-20
9.92158e-23
4.77236e-18
7.00578e-19
1.24032e-20
1.70923e-23
3.75064e-19
1.77363e-20
2.88118e-23
5.24976e-26
1.16528e-20
5.01514e-22
4.52812e-25
4.80318e-27
8.84483e-23
3.97156e-25
2.71641e-28
3.88095e-28
0.604388
0.888523
0.997196
0.999747
0.999809
0.999782
0.847979
0.227359
0.114319
0.196368
0.666832
0.867292
0.866149
0.638072
0.495282
0.452193
0.632082
0.896916
0.896912
0.997585
0.997583
0.996176
0.994213
0.998537
0.999589
0.988934
0.624259
0.221515
0.336009
0.810864
0.844879
0.393982
0.30129
0.23965
0.29641
0.616798
0.685772
0.896715
0.955442
0.915083
0.873649
0.882369
0.957899
0.992921
0.992682
0.985091
0.871888
0.850216
0.944521
0.944618
0.695529
0.317211
0.227853
0.21189
0.2284
0.275119
0.678464
0.268618
0.211084
0.191909
0.285953
0.579722
0.800867
0.880946
0.869573
0.86052
0.91531
0.944629
0.923829
0.813757
0.509823
0.276525
0.184549
0.0915265
0.121785
0.34521
6.27252e-10
-4.60362e-08
0
-4.55712e-24
-2.26824e-19
0.0897607
0.236177
0.348428
0.414433
0.447012
0.449326
0.409019
0.402444
0.331783
0.129589
0.0723086
0.000206742
0.00422561
0.100401
0.000216527
8.03626e-05
3.94073e-11
6.80114e-09
7.72813e-08
7.44346e-11
5.78777e-11
0.0112969
0.080627
0.0906563
0.0745935
0.0466665
0.0419402
0.0230909
0.0102293
0.00401375
0.000218463
1.38909e-06
0.0145641
0.00253374
9.56184e-12
3.31878e-11
4.69068e-08
1.41349e-05
5.15851e-05
5.0152e-05
4.1948e-14
4.77234e-22
4.94565e-22
-1.10987e-21
2.97623e-21
1.46225e-21
1.28552e-21
6.62234e-21
2.62101e-13
3.29548e-06
1.43117e-06
1.21546e-08
0.00355099
9.40765e-12
3.47948e-08
3.41827e-05
0.000249852
0.000313488
0.000313277
7.14095e-05
0.00018017
0.000761073
0.00104714
0.000984052
0.000389147
0.000249101
6.27041e-05
1.18489e-05
5.91029e-06
2.47885e-06
1.03339e-08
2.56347e-08
2.79634e-08
3.0684e-05
0.00024979
0.000297669
0.000279512
0.000185342
1.99985e-05
7.06742e-06
5.87213e-06
9.99393e-06
9.85671e-06
1.25652e-05
2.0179e-05
4.15504e-05
7.30885e-06
6.81887e-06
5.69493e-06
1.03338e-08
1.17893e-06
6.72178e-06
0.000190705
0.000274476
0.000173887
3.14947e-06
3.9355e-07
1.22606e-07
1.09187e-07
1.06524e-07
7.15031e-06
2.28996e-05
4.27799e-05
5.64799e-05
4.16974e-05
1.52521e-05
1.44775e-08
2.11528e-06
1.03338e-08
1.81686e-05
0.000247316
0.000280738
0.000268438
4.87531e-06
1.52408e-06
1.58223e-06
3.35715e-06
2.55399e-06
9.50671e-07
6.47449e-06
2.63779e-06
7.96243e-06
5.47222e-05
3.66611e-05
1.35076e-05
1.24857e-08
9.52564e-08
6.70171e-09
1.74005e-05
9.34503e-05
0.000105163
3.07635e-05
6.70798e-06
9.96215e-06
4.17249e-05
6.13085e-05
6.0818e-05
3.51136e-05
2.03016e-06
3.03178e-10
3.03125e-10
3.03091e-10
5.38402e-07
1.47047e-06
1.20662e-06
4.25047e-08
1.37006e-08
1.21177e-05
1.84496e-05
1.48013e-05
1.4139e-05
1.786e-05
5.65394e-05
7.514e-05
7.54484e-05
7.54485e-05
5.91166e-05
9.76465e-06
4.86325e-09
3.03091e-10
2.98099e-06
8.86336e-06
1.66042e-06
1.39537e-07
1.04209e-07
1.60742e-08
1.55213e-06
1.23459e-05
1.49898e-05
1.36701e-05
3.1797e-05
4.51336e-05
4.20612e-05
7.11452e-05
7.39849e-05
3.27254e-05
8.27624e-06
2.64833e-07
8.31447e-10
9.60499e-06
2.11273e-05
1.213e-05
3.28446e-07
5.00209e-08
9.75815e-09
3.81634e-10
3.36295e-10
3.55414e-10
-1.20969e-12
-1.41859e-12
6.77569e-09
1.15739e-08
2.16341e-06
4.74431e-06
1.89143e-07
1.81961e-08
2.92722e-07
7.98927e-10
8.46088e-06
2.11207e-05
1.66075e-05
2.54435e-07
3.00261e-08
1.52095e-09
1.07222e-09
8.99533e-10
1.00033e-09
8.29695e-10
7.83221e-10
5.30061e-10
4.40371e-10
8.86381e-10
5.61393e-10
2.96985e-10
1.90688e-08
3.18625e-07
1.13679e-07
2.16048e-07
1.15413e-05
4.44942e-06
3.78434e-08
1.2048e-08
1.20639e-10
8.58514e-10
9.72791e-10
1.24918e-09
1.27814e-09
1.19456e-09
8.81222e-10
7.52179e-10
8.49482e-10
4.12192e-10
2.73477e-10
8.20718e-08
3.24979e-07
2.00119e-07
7.03672e-09
5.30968e-09
6.13841e-09
2.10889e-08
5.2166e-09
5.83723e-11
7.29825e-10
7.57615e-10
1.02407e-09
1.32129e-09
1.35863e-09
1.11607e-09
9.19175e-10
6.36142e-10
3.13968e-10
2.73717e-10
1.59674e-07
3.25074e-07
7.53658e-08
7.35241e-09
3.84751e-09
3.9411e-09
6.19356e-09
3.02231e-10
4.76334e-11
5.14038e-10
4.63609e-10
5.32849e-10
8.51654e-10
9.26254e-10
8.31478e-10
6.27054e-10
2.98841e-10
2.97976e-10
5.34221e-09
1.71018e-07
1.48787e-07
1.80672e-08
5.31929e-09
1.74604e-09
1.35497e-09
5.39203e-11
1.91283e-10
1.6568e-11
2.39069e-10
2.4543e-10
3.08198e-10
3.84117e-10
4.57374e-10
4.45845e-10
3.81112e-10
2.86646e-10
8.31133e-10
1.13326e-08
8.01962e-09
2.01235e-10
8.53493e-09
3.67111e-09
6.98191e-10
6.3718e-11
5.39234e-11
4.32667e-11
9.92773e-12
1.04135e-10
1.25804e-10
1.65547e-10
2.03709e-10
1.97563e-10
2.08241e-10
2.00515e-10
2.79604e-10
1.74629e-09
3.93692e-09
3.03066e-11
3.07249e-11
6.11375e-10
9.42625e-10
2.59884e-10
1.12486e-10
5.84066e-11
2.34404e-11
4.20803e-12
4.25148e-11
5.61139e-11
7.63376e-11
9.09807e-11
9.94151e-11
9.76095e-11
9.82126e-11
2.52921e-10
1.37033e-09
7.71029e-11
5.83072e-11
3.64398e-11
3.54578e-11
1.43883e-10
1.09473e-10
8.11499e-11
5.68563e-11
1.76928e-11
2.61794e-12
1.7457e-11
2.45725e-11
3.19636e-11
3.80453e-11
4.31661e-11
4.59357e-11
5.14148e-11
1.16884e-10
2.27689e-10
1.26338e-10
7.26051e-11
4.59413e-11
3.94793e-11
4.24662e-11
5.39203e-11
4.86236e-11
3.35864e-11
1.30082e-11
1.70582e-12
5.94489e-12
9.32487e-12
1.28538e-11
1.52685e-11
1.75521e-11
1.94583e-11
2.40397e-11
2.92982e-11
1.97261e-11
4.38025e-11
4.18909e-11
3.3871e-11
3.1875e-11
3.4029e-11
3.30382e-11
2.84049e-11
1.72086e-11
6.30216e-12
1.33485e-12
1.93216e-12
3.28977e-12
4.67854e-12
6.09239e-12
7.07437e-12
8.49878e-12
9.71152e-12
1.01925e-11
9.17681e-12
1.05044e-11
7.97988e-12
1.04249e-11
1.44961e-11
9.68483e-12
1.00499e-11
1.38046e-11
8.71195e-12
3.79249e-12
9.67342e-13
4.92199e-13
1.05312e-12
1.65537e-12
2.26896e-12
2.78207e-12
3.33168e-12
4.06968e-12
4.5804e-12
5.08612e-12
5.59797e-12
4.63548e-12
3.98955e-12
4.36987e-12
2.77882e-12
3.0297e-12
3.81077e-12
3.28327e-12
1.47076e-12
8.35901e-13
1.43416e-13
3.03375e-13
5.04806e-13
7.19537e-13
1.01018e-12
1.28115e-12
1.55648e-12
1.84271e-12
2.03596e-12
2.13844e-12
2.06678e-12
1.39358e-12
1.31692e-12
4.84844e-13
5.32712e-13
1.03907e-12
1.14043e-12
1.00633e-12
7.14562e-13
2.45312e-14
6.59932e-14
1.22637e-13
2.03309e-13
2.92299e-13
4.16174e-13
5.25672e-13
6.13016e-13
6.42932e-13
5.96427e-13
5.12398e-13
2.02361e-13
1.79046e-13
1.20908e-13
1.44538e-13
3.0155e-13
4.87891e-13
7.06112e-13
6.27721e-13
5.7808e-15
1.30808e-14
2.70217e-14
4.62834e-14
7.61621e-14
1.10861e-13
1.46369e-13
1.73042e-13
1.6595e-13
1.30176e-13
5.18086e-14
1.83753e-14
2.50952e-14
3.14986e-14
6.91905e-14
1.59575e-13
3.24274e-13
6.47718e-13
5.20415e-13
7.56879e-16
2.21828e-15
4.56217e-15
8.73208e-15
1.50005e-14
2.34995e-14
3.13739e-14
3.38638e-14
2.86614e-14
1.25811e-14
4.30973e-15
4.19282e-15
8.32291e-15
1.85536e-14
6.01739e-14
1.48592e-13
3.07893e-13
6.05767e-13
4.5736e-13
1.06586e-16
2.98543e-16
6.2724e-16
1.28504e-15
2.34876e-15
3.72198e-15
4.73977e-15
4.84114e-15
3.33265e-15
1.32584e-15
1.24503e-15
2.73942e-15
6.59267e-15
1.63605e-14
5.73618e-14
1.52816e-13
3.12487e-13
5.47299e-13
3.87396e-13
1.14812e-17
3.01844e-17
6.9736e-17
1.50996e-16
2.9001e-16
4.36416e-16
5.36613e-16
4.87419e-16
3.24038e-16
3.72559e-16
8.41047e-16
2.13385e-15
5.62083e-15
1.42484e-14
4.50736e-14
1.51565e-13
3.067e-13
4.91125e-13
3.28719e-13
1.22051e-18
3.08736e-18
7.13418e-18
1.59201e-17
3.01291e-17
4.66032e-17
5.59383e-17
5.91726e-17
9.15966e-17
2.1316e-16
5.58122e-16
1.50419e-15
4.25302e-15
1.13919e-14
2.69121e-14
1.07179e-13
2.7264e-13
4.03616e-13
2.06269e-13
1.26203e-19
3.25166e-19
7.69889e-19
1.62574e-18
3.20913e-18
5.40539e-18
8.46412e-18
1.65768e-17
4.15379e-17
1.14016e-16
3.18521e-16
9.28457e-16
2.80883e-15
8.17495e-15
1.81627e-14
5.46613e-14
1.95447e-13
3.05976e-13
1.30374e-13
1.66271e-20
3.42135e-20
9.09532e-20
2.25602e-19
4.9703e-19
1.02629e-18
2.30068e-18
6.0883e-18
1.74006e-17
5.16375e-17
1.59789e-16
5.14287e-16
1.67198e-15
5.11918e-15
1.23209e-14
2.70263e-14
8.06349e-14
1.94279e-13
7.54189e-14
1.65222e-21
4.14884e-21
1.19025e-20
3.26266e-20
8.7417e-20
2.30531e-19
6.39788e-19
1.98461e-18
6.17799e-18
2.00883e-17
6.92785e-17
2.51831e-16
8.95558e-16
2.85246e-15
7.56434e-15
1.56855e-14
3.55236e-14
8.16141e-14
4.27545e-14
5.11767e-22
5.02747e-22
1.57836e-21
4.85635e-21
1.43293e-20
4.27313e-20
1.41301e-19
4.86192e-19
1.67306e-18
6.20176e-18
2.47092e-17
1.04649e-16
4.16041e-16
1.397e-15
3.80441e-15
8.82354e-15
1.82953e-14
3.5295e-14
2.59134e-14
1.57573e-23
5.43854e-23
1.81554e-22
5.83495e-22
1.88148e-21
6.21058e-21
2.26033e-20
8.59762e-20
3.50686e-19
1.50179e-18
6.99572e-18
3.58112e-17
1.62155e-16
5.57753e-16
1.61092e-15
3.87284e-15
7.78972e-15
1.15264e-14
1.17452e-14
1.69203e-24
5.0069e-24
1.45838e-23
4.10815e-23
1.28962e-22
4.48399e-22
2.02226e-21
1.02083e-20
5.23403e-20
2.85219e-19
1.56451e-18
9.77054e-18
5.03058e-17
1.94517e-16
5.52511e-16
1.35685e-15
2.93474e-15
4.41463e-15
6.25726e-15
1.26778e-25
3.82346e-25
1.05049e-24
3.078e-24
1.11175e-23
5.00055e-23
2.66028e-22
1.52684e-21
9.64084e-21
6.15616e-20
3.94291e-19
2.64275e-18
1.46892e-17
5.79139e-17
1.74466e-16
4.0753e-16
7.18898e-16
1.8234e-15
2.21907e-15
9.70591e-27
2.42961e-26
5.83123e-26
1.71595e-25
7.06054e-25
3.9433e-24
2.67189e-23
1.86845e-22
1.43442e-21
1.08346e-20
8.01418e-20
5.12686e-19
2.9528e-18
1.22624e-17
3.94813e-17
9.91659e-17
1.72435e-16
4.01936e-16
3.8065e-16
6.0357e-28
1.18477e-27
2.51913e-27
7.96863e-27
3.66091e-26
2.30659e-25
1.8234e-24
1.68288e-23
1.49331e-22
1.18139e-21
8.85109e-21
5.50897e-20
3.18448e-19
1.40763e-18
4.71628e-18
1.22219e-17
2.36965e-17
3.88483e-17
3.06655e-18
)
;

boundaryField
{
    leftWall
    {
        type            zeroGradient;
    }
    rightWall
    {
        type            zeroGradient;
    }
    lowerWall
    {
        type            zeroGradient;
    }
    atmosphere
    {
        type            inletOutlet;
        inletValue      uniform 0;
        value           nonuniform List<scalar> 
46
(
1.0197e-06
8.80408e-07
2.02901e-07
1.93886e-07
3.94247e-07
1.82934e-07
3.17998e-08
2.3194e-09
1.13591e-09
7.91543e-10
3.96796e-10
1.56573e-10
4.36128e-11
8.48967e-12
0
0
0
0
0
0
0
0
0
0
0
0
0
0
0
0
0
0
0
0
0
0
0
0
0
0
0
0
0
0
0
0
)
;
    }
    defaultFaces
    {
        type            empty;
    }
}


// ************************************************************************* //
