/*--------------------------------*- C++ -*----------------------------------*\
| =========                 |                                                 |
| \\      /  F ield         | OpenFOAM: The Open Source CFD Toolbox           |
|  \\    /   O peration     | Version:  2312                                  |
|   \\  /    A nd           | Website:  www.openfoam.com                      |
|    \\/     M anipulation  |                                                 |
\*---------------------------------------------------------------------------*/
FoamFile
{
    version     2.0;
    format      ascii;
    arch        "LSB;label=32;scalar=64";
    class       volScalarField;
    location    "2.15";
    object      p;
}
// * * * * * * * * * * * * * * * * * * * * * * * * * * * * * * * * * * * * * //

dimensions      [1 -1 -2 0 0 0 0];

internalField   nonuniform List<scalar> 
2268
(
6539.87
6471.08
6358.8
6213.54
6050.35
5882.37
5721.19
5571.59
5433.22
5304.45
5185.14
5076.01
4978.54
4895.95
4833.23
4793.49
4775
4775.77
4794.25
4826.76
4868.06
4903.49
4924.61
5750.68
5681.99
5569.47
5421.43
5255.3
5084.7
4922.38
4772.77
4634.62
4505.76
4386.25
4276.83
4178.68
4095.07
4031.78
3992.41
3973.87
3975.45
3994.51
4028.76
4073.59
4109.98
4132.56
4974.44
4904.24
4787.78
4633.52
4461.92
4285.54
4120.89
3971.42
3834.01
3705.12
3585.14
3474.93
3375.3
3289.39
3225.28
3185.53
3168.86
3171.58
3192.5
3229.59
3278.45
3319.27
3346.33
4212.21
4138.19
4014.01
3849.83
3667.37
3483.84
3316.06
3167.31
3031.14
2901.75
2781.17
2670.27
2568.62
2479.4
2414.11
2375.32
2362.01
2363.43
2386.4
2432.33
2485.7
2532.44
2561.33
3464.97
3384.02
3248.09
3070.72
2875.4
2678.87
2507.05
2360.38
2226.95
2097.5
1975.67
1863.32
1757.97
1672.55
1614.67
1582.57
1569.09
1571.03
1589.44
1631.25
1693.58
1750.82
1790.92
2732.76
2641.47
2491.17
2294.41
2081.84
1870.2
1693.5
1556.25
1444.7
1345.46
1269.73
1210.91
1159.64
1125.35
1104.25
1090.83
1080.87
1074.02
1073.63
1086.55
1115.37
1149.33
1153.12
2023.59
1917.63
1745.95
1531.26
1332.46
1165.97
1069.64
1004.31
963.083
941.228
935.901
938.608
943.398
948.079
950.931
948.863
940.965
928.228
913.833
904.231
898.502
888.375
877.196
1371.26
1260
1110.81
966.965
879.736
848.811
841.637
832.3
831.489
844.687
860.091
871.32
879.522
884.823
887.794
886.508
879.706
867.227
854.77
847.459
839.136
822.578
752.044
2878.04
2852.26
2844.4
2796.12
2694.79
2573.73
2510.2
2505.51
2545.46
2577.18
2614.4
2678.83
2786.19
2824.54
2663.04
2425.9
2149.3
1924.84
1893.88
2165.79
2119.14
2110.26
2086.12
1995.67
1895.54
1836.11
1818.29
1842.82
1892.13
1942.76
1995.62
2094.5
2104.89
1953.41
1720.52
1456.97
1297.79
1271.08
1519.79
1483.28
1473.53
1487.36
1458.32
1404.8
1360.27
1329.31
1332.88
1376.35
1430.79
1469.49
1557.36
1528.02
1388.92
1181.98
1066.96
1029.89
1000.21
1142.81
1131.89
1119.15
1128.69
1148.14
1134.33
1100.37
1063.95
1071.02
1089.93
1111.66
1137.63
1176.01
1134.85
1025.97
934.529
950.222
936.503
909.194
982.407
980.403
968.114
951.119
956.15
954.319
928.052
905.346
927.372
951.001
953.255
958.835
920.406
867.456
819.285
830.505
863.043
837.532
832.995
866.687
856.474
856.518
841.304
823.746
812.128
795.59
768.992
793.078
826.848
832.768
816.817
769.67
724.718
722.378
754.35
770.167
742.476
758.335
805.003
789.184
788.009
776.723
757.102
739.073
713.184
679.335
685.021
713.162
730.399
716.402
682.778
657.119
665.755
679.049
679.719
668.632
687.502
762.063
742.892
737.761
723.305
706.025
686.845
654.168
627.075
621.301
627.921
656.223
660.985
634.938
613.932
602.761
600.04
605.817
602.793
620.808
858.082
797.093
757.738
742.145
734.283
734.637
736.667
737.184
741.476
750.71
761.193
770.69
779.357
785.94
789.813
789.395
783.186
772.468
764.702
758.485
744.77
722.452
689.642
597.052
598.569
599.583
599.095
602.71
607.404
611.314
614.76
620.125
627.314
634.631
642.028
649.18
656.446
662.333
663.213
658.337
651.741
645.758
633.361
616.209
593.336
573.128
512.639
505.247
504.851
503.059
504.438
509.154
515.374
521.889
527.427
531.641
534.438
535.841
536.073
536.37
538.651
540.82
537.528
533.659
525.776
508.95
486.985
465.839
449.847
448.867
435.379
425.648
421.358
422.572
428.25
437.102
447.135
455.551
460.963
461.801
459.145
453.324
445.101
435.737
428.339
423.086
417.764
406.84
388.404
369.813
355.856
343.259
391.191
367.381
353.148
343.517
336.846
342.047
355.097
370.719
385.537
395.905
397.601
394.856
388.476
377.29
361.584
343.831
328.059
315.654
304.009
291.155
283.304
275.242
265.069
339.711
289.726
261.249
238.823
230.649
239.987
262.578
287.744
313.446
330.288
334.541
332.388
326.297
315.415
300.207
281.884
261.805
244.05
231.801
224.2
217.714
208.589
198.935
338.384
249.033
217.6
182.951
159.056
165.153
187.453
217.682
252.808
273.875
276.349
272.214
265.727
255.977
242.953
227.288
210.153
193.337
179.159
167.977
156.928
145.286
133.785
396.168
276.069
203.09
155.851
142.25
145.865
161.472
183.384
203.997
217.26
217.118
212.796
206.493
197.638
186.287
172.723
157.353
141.517
125.844
110.685
95.8854
80.8281
66.5828
447.631
326.331
220.638
147.25
118.293
116.997
128.942
143.444
152.73
156.052
155.164
151.865
146.462
138.064
127.665
115.463
100.678
85.2017
67.9702
49.9096
37.0197
25.0694
14.2606
403.489
269.516
152.099
73.9576
46.771
47.6255
61.597
71.9244
79.1119
86.4327
88.7143
87.4251
84.1983
75.6
65.0451
54.4053
39.696
27.5935
18.4504
8.20181
4.4555
1.19268
-1.46899
260.451
133.255
31.0915
4.8981
2.35791
2.27364
8.52862
12.2155
14.6406
20.2573
22.7329
22.5006
24.008
18.9937
13.0927
10.4252
2.45037
-1.63685
-1.8463
-1.72979
-1.7323
-1.77598
-1.72062
118.893
21.9664
2.50106
-0.949772
-1.36694
-1.6439
-1.9668
-2.17437
-2.19712
-2.11063
-2.10011
-2.14441
-2.18787
-2.20849
-2.20325
-2.18197
-2.15804
-2.05322
-2.01522
-1.96914
-1.93699
-1.93723
-1.8766
38.5253
-1.37263
-1.57688
-1.85842
-2.0056
-2.19642
-2.37361
-2.42058
-2.38531
-2.36509
-2.34404
-2.33317
-2.33285
-2.31586
-2.29876
-2.28927
-2.24716
-2.18128
-2.13748
-2.11286
-2.08961
-2.06255
-2.02015
8.76429
-2.18866
-2.27331
-2.34155
-2.38212
-2.53518
-2.63057
-2.64731
-2.60997
-2.565
-2.52831
-2.50025
-2.47267
-2.44525
-2.42185
-2.39405
-2.35588
-2.31175
-2.27777
-2.25671
-2.23932
-2.2149
-2.18273
10.6696
-1.86996
-2.53636
-2.71154
-2.68691
-2.82298
-2.87193
-2.85481
-2.79374
-2.73265
-2.67995
-2.63472
-2.59658
-2.56425
-2.53672
-2.51099
-2.48045
-2.44616
-2.41531
-2.39052
-2.36885
-2.34523
-2.31866
1.58423
-2.79999
-2.84036
-2.93585
-2.95121
-3.04221
-3.048
-2.98319
-2.92667
-2.86892
-2.81733
-2.77304
-2.73307
-2.69685
-2.66528
-2.63608
-2.60616
-2.57555
-2.54723
-2.52258
-2.50011
-2.47717
-2.45417
1.74399
-2.86051
-3.03844
-3.12463
-3.15732
-3.20651
-3.18302
-3.12424
-3.06013
-3.00057
-2.94817
-2.90307
-2.86355
-2.82666
-2.79223
-2.7609
-2.73132
-2.70295
-2.67653
-2.65241
-2.62999
-2.6083
-2.5875
-2.71009
-3.60928
-3.29593
-3.32705
-3.31493
-3.34359
-3.30611
-3.24575
-3.18174
-3.12345
-3.07214
-3.02713
-2.98715
-2.95055
-2.91654
-2.88515
-2.85601
-2.82874
-2.80338
-2.77997
-2.7582
-2.73767
-2.71843
-3.58361
-3.73468
-3.57201
-3.5264
-3.46121
-3.46466
-3.41817
-3.35647
-3.29477
-3.23904
-3.18979
-3.14609
-3.10693
-3.07125
-3.03831
-3.00782
-2.97954
-2.95324
-2.92885
-2.90627
-2.88534
-2.86583
-2.84773
-3.90784
-3.77978
-3.7311
-3.69219
-3.60769
-3.57843
-3.52347
-3.46109
-3.40179
-3.34882
-3.30204
-3.26045
-3.22306
-3.189
-3.15762
-3.12854
-3.10153
-3.07643
-3.05314
-3.03156
-3.01156
-2.99301
-2.97587
-4.18637
-3.97401
-3.89581
-3.83394
-3.74303
-3.68673
-3.62414
-3.56119
-3.50391
-3.45372
-3.40978
-3.37086
-3.33586
-3.30397
-3.27457
-3.24729
-3.2219
-3.19825
-3.17626
-3.15583
-3.13687
-3.1193
-3.10307
-4.04907
-4.06912
-4.01213
-3.99448
-3.87405
-3.7908
-3.71935
-3.65571
-3.60088
-3.55403
-3.51354
-3.47786
-3.44579
-3.41651
-3.38945
-3.36426
-3.34074
-3.31875
-3.29821
-3.27907
-3.26125
-3.2447
-3.22938
-6.22908
-4.11866
-4.08926
-4.0912
-3.97412
-3.87819
-3.80344
-3.74209
-3.69182
-3.64972
-3.61366
-3.58191
-3.55328
-3.52699
-3.50256
-3.4797
-3.45822
-3.43803
-3.41907
-3.40131
-3.3847
-3.36922
-3.35484
-5.5104
-4.3829
-4.18312
-4.13246
-4.02845
-3.93906
-3.86987
-3.8183
-3.77644
-3.74108
-3.71061
-3.68352
-3.6588
-3.63584
-3.61426
-3.59387
-3.57455
-3.55625
-3.53895
-3.52263
-3.50729
-3.49292
-3.4795
-4.47692
-4.48124
-4.21039
-4.12497
-4.03899
-3.97314
-3.92297
-3.88619
-3.85554
-3.82903
-3.80521
-3.78338
-3.76293
-3.74351
-3.72493
-3.70709
-3.68999
-3.67362
-3.65799
-3.64315
-3.6291
-3.61586
-3.60344
-3.28364
-3.87101
-4.06205
-4.06791
-4.02624
-3.99129
-3.96949
-3.95062
-3.93262
-3.91549
-3.89878
-3.88247
-3.86642
-3.85059
-3.835
-3.81972
-3.80481
-3.79035
-3.7764
-3.76302
-3.75026
-3.73815
-3.72673
-3.28397
-3.54863
-3.90558
-3.99897
-4.00729
-4.01658
-4.02037
-4.01788
-4.0116
-4.00307
-3.99285
-3.98193
-3.97008
-3.95767
-3.94495
-3.93211
-3.91931
-3.90668
-3.89435
-3.88239
-3.8709
-3.85991
-3.84947
-3.5527
-3.73317
-3.92578
-3.99173
-4.03633
-4.0673
-4.08503
-4.09349
-4.09587
-4.09422
-4.08986
-4.08299
-4.07469
-4.06531
-4.05518
-4.04458
-4.03373
-4.02282
-4.01201
-4.00142
-3.99113
-3.98122
-3.97176
-3.86696
-3.95193
-4.01153
-4.06487
-4.11047
-4.14377
-4.16609
-4.17985
-4.18729
-4.19011
-4.18951
-4.18619
-4.18083
-4.17397
-4.16605
-4.1574
-4.14829
-4.13895
-4.12954
-4.12022
-4.11108
-4.10221
-4.09368
-4.08818
-4.09948
-4.13713
-4.17591
-4.21118
-4.24006
-4.26172
-4.27675
-4.28632
-4.29151
-4.29322
-4.29219
-4.28891
-4.28396
-4.27779
-4.27076
-4.26315
-4.25519
-4.24706
-4.2389
-4.23084
-4.22295
-4.21532
-4.22436
-4.24052
-4.27005
-4.29885
-4.32589
-4.34946
-4.36838
-4.38252
-4.39227
-4.39821
-4.40096
-4.4011
-4.39906
-4.39538
-4.39051
-4.38477
-4.37841
-4.37165
-4.36465
-4.35756
-4.35048
-4.34352
-4.33675
-4.38108
-4.38974
-4.40768
-4.42797
-4.44825
-4.46684
-4.48249
-4.49475
-4.50358
-4.50923
-4.5121
-4.51256
-4.51108
-4.50815
-4.50418
-4.49943
-4.4941
-4.48836
-4.48237
-4.47624
-4.47008
-4.46398
-4.45802
-4.52813
-4.53332
-4.54475
-4.55909
-4.5741
-4.58841
-4.60087
-4.61092
-4.6183
-4.62308
-4.62554
-4.62582
-4.62449
-4.62199
-4.61865
-4.61467
-4.6102
-4.60535
-4.60025
-4.59499
-4.58968
-4.58439
-4.57919
-4.6675
-4.67126
-4.67926
-4.68964
-4.7007
-4.71148
-4.72105
-4.72889
-4.73466
-4.73833
-4.7401
-4.7401
-4.7388
-4.7366
-4.73376
-4.73042
-4.72668
-4.72261
-4.71831
-4.71385
-4.70931
-4.70477
-4.7003
-4.80235
-4.80512
-4.81099
-4.81855
-4.82655
-4.83439
-4.84141
-4.8472
-4.85145
-4.85406
-4.85515
-4.8549
-4.85365
-4.85173
-4.84934
-4.84659
-4.84351
-4.84014
-4.83656
-4.83283
-4.82901
-4.82518
-4.82139
-4.93404
-4.93594
-4.94026
-4.94558
-4.95105
-4.95633
-4.96111
-4.96509
-4.96802
-4.96978
-4.97037
-4.96997
-4.96885
-4.96725
-4.96533
-4.96313
-4.96066
-4.95794
-4.95502
-4.95196
-4.9488
-4.94562
-4.94247
-5.06373
-5.0648
-5.06777
-5.07105
-5.07417
-5.07713
-5.07991
-5.08236
-5.08422
-5.08534
-5.08564
-5.08523
-5.08433
-5.08312
-5.08168
-5.08002
-5.07813
-5.07601
-5.0737
-5.07124
-5.0687
-5.06613
-5.06358
-5.19268
-5.19298
-5.1945
-5.19557
-5.1963
-5.19708
-5.19805
-5.19915
-5.20018
-5.20086
-5.20104
-5.20075
-5.20014
-5.19935
-5.1984
-5.19726
-5.1959
-5.19433
-5.19258
-5.19069
-5.18872
-5.18671
-5.18473
-5.32222
-5.32183
-5.3215
-5.31986
-5.31801
-5.31662
-5.31586
-5.31579
-5.3162
-5.31662
-5.3168
-5.31672
-5.31644
-5.31603
-5.31551
-5.31484
-5.31397
-5.3129
-5.31166
-5.31029
-5.30884
-5.30736
-5.3059
-5.45437
-5.45309
-5.44991
-5.44458
-5.43964
-5.43605
-5.43364
-5.43269
-5.4327
-5.43296
-5.43319
-5.43332
-5.43336
-5.43322
-5.43305
-5.43277
-5.43232
-5.4317
-5.43092
-5.43003
-5.42906
-5.42807
-5.4271
-5.59061
-5.58899
-5.58122
-5.56967
-5.5609
-5.55554
-5.55189
-5.55028
-5.55001
-5.55019
-5.55053
-5.55094
-5.55126
-5.55117
-5.55115
-5.55111
-5.55098
-5.55071
-5.55033
-5.54987
-5.54934
-5.54881
-5.54831
-5.73098
-5.73244
-5.71646
-5.69313
-5.68055
-5.67509
-5.67159
-5.66968
-5.66894
-5.66867
-5.66861
-5.66864
-5.66875
-5.66917
-5.66941
-5.66963
-5.66977
-5.66983
-5.6698
-5.66972
-5.6696
-5.66949
-5.66944
687.469
684.115
680.077
677.522
565.86
561.94
559.875
559.118
441.413
436.18
431.786
428.547
335.02
329.978
325.54
321.634
258.025
253.808
249.51
245.284
192.016
187.491
182.683
177.459
125.47
118.822
111.012
102.575
57.9237
50.9333
43.562
36.9445
12.5437
12.3509
9.73572
6.04725
-1.67124
-1.66864
-1.58869
-1.55768
-1.75015
-1.77001
-1.77576
-1.75883
-1.84986
-1.83617
-1.82571
-1.81681
-1.99994
-1.98893
-1.97909
-1.97015
-2.16041
-2.1499
-2.13972
-2.12862
-2.3002
-2.29107
-2.28371
-2.27709
-2.43826
-2.42979
-2.42236
-2.41579
-2.57343
-2.56516
-2.5578
-2.55124
-2.70534
-2.69745
-2.69032
-2.6839
-2.83539
-2.82789
-2.82102
-2.81475
-2.9642
-2.95708
-2.95048
-2.94439
-3.09202
-3.08526
-3.07893
-3.07303
-3.21894
-3.21254
-3.2065
-3.20081
-3.34502
-3.33897
-3.33324
-3.32779
-3.4703
-3.46462
-3.45921
-3.45405
-3.59487
-3.58957
-3.58449
-3.57963
-3.7188
-3.71388
-3.70915
-3.70461
-3.84218
-3.83765
-3.83328
-3.82907
-3.9651
-3.96095
-3.95694
-3.95306
-4.08765
-4.08387
-4.08023
-4.07668
-4.2099
-4.20649
-4.20319
-4.19998
-4.3319
-4.32885
-4.3259
-4.32302
-4.45373
-4.45103
-4.4484
-4.44584
-4.57543
-4.57306
-4.57076
-4.56851
-4.69705
-4.695
-4.693
-4.69106
-4.81862
-4.81687
-4.81517
-4.81352
-4.94017
-4.93871
-4.9373
-4.93592
-5.06171
-5.06053
-5.0594
-5.05829
-5.18327
-5.18236
-5.18148
-5.18063
-5.30484
-5.30418
-5.30355
-5.30295
-5.42642
-5.426
-5.42562
-5.42525
-5.54799
-5.54781
-5.54766
-5.54754
-5.66947
-5.66953
-5.66963
-5.66975
672.404
659.967
648.351
633.16
616.521
596.456
571.801
564.592
555.76
549.411
565.75
570.812
550.931
524.457
505.289
495.317
513.319
501.359
524.299
554.583
537.681
522.523
508.869
495.65
480.422
470.206
474.241
471.262
456.673
447.623
444.023
424.484
400.157
384.558
380.301
389.163
380.912
398.797
422.794
408.918
394.499
382.024
372.163
362.788
359.405
366.776
370.61
353.704
329.389
316.269
304.548
289.436
284.366
279.527
273.538
268.712
270.806
314.708
301.966
288.431
273.026
259.514
251.385
248.384
253.352
260.326
251.946
231.171
211.382
200.988
193.746
191.416
182.968
167.622
153.835
137.715
237.877
225.424
209.304
191.597
177.144
165.781
157.918
158.059
160.233
152.985
138.129
122.184
112.246
108.871
102.983
94.1698
76.6834
55.8825
32.3411
167.22
151.965
136.108
122.006
111.572
98.7805
87.3123
79.7348
74.0823
67.5517
58.6309
49.7973
44.661
39.0527
32.2823
28.4689
18.6564
6.58342
2.29482
89.1079
75.5538
63.7679
54.4977
47.0569
37.3328
29.8498
22.9719
16.7615
14.6007
11.2652
7.83916
7.91157
4.30467
1.47964
0.90939
-0.0841671
-0.688372
-0.340951
28.3814
20.7239
14.1815
11.0268
8.15217
4.38873
3.2733
1.85691
-0.578718
-0.98503
-1.01365
-0.990889
-1.00198
-1.12613
-1.112
-1.12439
-1.1874
-1.18589
-0.934147
2.64847
0.50635
-0.176042
-0.184207
-0.65625
-1.22875
-1.30452
-1.32799
-1.30866
-1.24366
-1.23396
-1.2325
-1.25503
-1.24723
-1.23475
-1.24152
-1.26714
-1.2189
-1.11809
-1.53763
-1.50972
-1.49806
-1.52146
-1.55451
-1.50379
-1.4844
-1.47283
-1.43777
-1.39085
-1.37211
-1.37019
-1.37478
-1.36116
-1.35288
-1.35018
-1.34104
-1.3173
-1.27022
-1.7295
-1.68881
-1.67787
-1.70594
-1.70939
-1.66626
-1.63344
-1.61047
-1.57987
-1.54095
-1.51748
-1.51343
-1.50827
-1.49283
-1.48398
-1.48455
-1.47919
-1.46192
-1.439
-1.8072
-1.8153
-1.83183
-1.85444
-1.84598
-1.81402
-1.7827
-1.75951
-1.73634
-1.70293
-1.671
-1.65726
-1.64802
-1.62965
-1.61953
-1.62728
-1.62437
-1.61558
-1.60558
-1.96034
-1.95814
-1.96736
-1.98343
-1.98161
-1.96438
-1.94254
-1.92184
-1.90379
-1.88091
-1.84345
-1.81089
-1.79512
-1.7846
-1.7747
-1.7815
-1.77793
-1.77165
-1.76602
-2.11572
-2.11079
-2.11248
-2.1159
-2.11537
-2.10914
-2.09735
-2.08159
-2.06709
-2.05557
-2.03014
-1.98905
-1.96914
-1.96794
-1.96103
-1.95024
-1.93846
-1.92811
-1.92351
-2.26769
-2.26015
-2.25624
-2.25008
-2.24602
-2.24038
-2.23138
-2.22104
-2.21074
-2.20303
-2.19318
-2.1731
-2.15695
-2.15588
-2.14559
-2.11496
-2.09483
-2.08269
-2.07757
-2.40605
-2.39605
-2.38885
-2.38158
-2.37491
-2.36779
-2.35929
-2.35004
-2.34094
-2.33317
-2.32771
-2.32464
-2.3167
-2.30895
-2.29102
-2.26315
-2.24403
-2.23278
-2.2276
-2.54131
-2.53003
-2.52078
-2.51228
-2.50429
-2.49624
-2.48768
-2.47882
-2.47013
-2.46216
-2.45526
-2.45007
-2.44578
-2.43432
-2.41873
-2.39977
-2.38568
-2.37752
-2.3735
-2.67404
-2.66218
-2.65186
-2.64249
-2.6337
-2.62509
-2.61642
-2.60773
-2.59921
-2.59106
-2.58325
-2.57619
-2.56961
-2.56005
-2.54811
-2.53552
-2.52569
-2.51938
-2.51631
-2.80505
-2.79297
-2.78213
-2.77225
-2.76301
-2.75412
-2.74541
-2.73685
-2.7285
-2.72037
-2.71234
-2.70491
-2.69747
-2.68915
-2.67997
-2.67105
-2.66388
-2.65901
-2.65666
-2.93485
-2.92275
-2.91173
-2.90161
-2.89219
-2.88322
-2.87457
-2.8662
-2.85809
-2.85019
-2.84239
-2.83507
-2.82777
-2.82041
-2.81303
-2.80626
-2.80078
-2.79691
-2.79505
-3.06371
-3.05174
-3.04075
-3.03063
-3.02121
-3.01232
-3.00383
-2.9957
-2.9879
-2.98036
-2.973
-2.966
-2.9592
-2.95265
-2.94647
-2.94104
-2.9367
-2.93354
-2.932
-3.19176
-3.18006
-3.16927
-3.1593
-3.15003
-3.14132
-3.13308
-3.12526
-3.11782
-3.1107
-3.10383
-3.09726
-3.09103
-3.08518
-3.07985
-3.07533
-3.07178
-3.06924
-3.06789
-3.31908
-3.30777
-3.29729
-3.2876
-3.27859
-3.27016
-3.26223
-3.25476
-3.2477
-3.24101
-3.23465
-3.22859
-3.2229
-3.21766
-3.21294
-3.20909
-3.2061
-3.20409
-3.20296
-3.44574
-3.4349
-3.42483
-3.4155
-3.40684
-3.39875
-3.39118
-3.38409
-3.37744
-3.37119
-3.3653
-3.35976
-3.35461
-3.34997
-3.34559
-3.34231
-3.33969
-3.33817
-3.33721
-3.57177
-3.56149
-3.5519
-3.54301
-3.53475
-3.52705
-3.51987
-3.51318
-3.50694
-3.50112
-3.49568
-3.49062
-3.48595
-3.48173
-3.47798
-3.475
-3.47268
-3.47139
-3.47048
-3.69725
-3.68757
-3.67853
-3.67012
-3.66231
-3.65504
-3.64827
-3.642
-3.63617
-3.63076
-3.62576
-3.62114
-3.61692
-3.61313
-3.60982
-3.60714
-3.60504
-3.60381
-3.60297
-3.82222
-3.81319
-3.80473
-3.79684
-3.78951
-3.7827
-3.77637
-3.77051
-3.76509
-3.7601
-3.7555
-3.7513
-3.74749
-3.74411
-3.74116
-3.73875
-3.73684
-3.73562
-3.73489
-3.94675
-3.9384
-3.93054
-3.92321
-3.91638
-3.91004
-3.90416
-3.89873
-3.89372
-3.88912
-3.88491
-3.8811
-3.87767
-3.87464
-3.87202
-3.86986
-3.86811
-3.86695
-3.86628
-4.07091
-4.06324
-4.056
-4.04924
-4.04294
-4.03709
-4.03166
-4.02665
-4.02205
-4.01783
-4.014
-4.01055
-4.00746
-4.00476
-4.00241
-4.00049
-3.99888
-3.99781
-3.99719
-4.19474
-4.18776
-4.18116
-4.17498
-4.16921
-4.16385
-4.15889
-4.15431
-4.1501
-4.14626
-4.14277
-4.13966
-4.13689
-4.13447
-4.13236
-4.13068
-4.12919
-4.12821
-4.12765
-4.3183
-4.31201
-4.30605
-4.30045
-4.29523
-4.29037
-4.28587
-4.28171
-4.27789
-4.2744
-4.27126
-4.26845
-4.26597
-4.26382
-4.26195
-4.2604
-4.25908
-4.25821
-4.2577
-4.44165
-4.43604
-4.43071
-4.4257
-4.42102
-4.41666
-4.41262
-4.40888
-4.40544
-4.4023
-4.39947
-4.39695
-4.39474
-4.39283
-4.39116
-4.38978
-4.3886
-4.38782
-4.38736
-4.56482
-4.55988
-4.55518
-4.55075
-4.54661
-4.54275
-4.53916
-4.53583
-4.53277
-4.52997
-4.52744
-4.52519
-4.52322
-4.52152
-4.52005
-4.51882
-4.51778
-4.51709
-4.51668
-4.68786
-4.68358
-4.67949
-4.67564
-4.67203
-4.66866
-4.66552
-4.6626
-4.6599
-4.65742
-4.65519
-4.65319
-4.65145
-4.64995
-4.64865
-4.64758
-4.64665
-4.64605
-4.64571
-4.8108
-4.80715
-4.80366
-4.80038
-4.7973
-4.79441
-4.79171
-4.78919
-4.78685
-4.78469
-4.78274
-4.781
-4.77947
-4.77815
-4.77701
-4.77608
-4.77527
-4.77475
-4.77446
-4.93366
-4.93063
-4.92773
-4.92501
-4.92244
-4.92002
-4.91775
-4.91562
-4.91364
-4.91181
-4.91014
-4.90864
-4.90731
-4.90616
-4.90517
-4.90437
-4.90367
-4.90323
-4.90297
-5.05647
-5.05404
-5.05172
-5.04953
-5.04747
-5.04551
-5.04367
-5.04194
-5.04031
-5.0388
-5.03741
-5.03615
-5.03503
-5.03404
-5.03319
-5.03249
-5.03189
-5.03152
-5.03128
-5.17923
-5.17738
-5.17563
-5.17397
-5.1724
-5.17091
-5.16949
-5.16815
-5.16688
-5.1657
-5.16459
-5.16357
-5.16265
-5.16183
-5.1611
-5.16049
-5.15998
-5.15965
-5.15943
-5.30197
-5.30069
-5.29948
-5.29834
-5.29726
-5.29622
-5.29523
-5.29429
-5.29339
-5.29252
-5.2917
-5.29093
-5.29021
-5.28954
-5.28894
-5.28842
-5.28797
-5.28768
-5.28746
-5.42468
-5.42395
-5.42329
-5.42266
-5.42207
-5.42149
-5.42093
-5.42038
-5.41983
-5.4193
-5.41876
-5.41823
-5.41771
-5.4172
-5.41672
-5.41628
-5.41589
-5.41562
-5.41541
-5.54737
-5.5472
-5.54708
-5.54697
-5.54686
-5.54674
-5.54661
-5.54646
-5.54627
-5.54606
-5.54581
-5.54553
-5.54521
-5.54486
-5.54449
-5.54412
-5.54377
-5.5435
-5.54329
-5.67
-5.67041
-5.67085
-5.67128
-5.67168
-5.67205
-5.67236
-5.67262
-5.67281
-5.67294
-5.67298
-5.67295
-5.67284
-5.67265
-5.6724
-5.67209
-5.67175
-5.67145
-5.67113
)
;

boundaryField
{
    leftWall
    {
        type            calculated;
        value           nonuniform List<scalar> 
50
(
6539.87
5750.68
4974.44
4212.21
3464.97
2732.76
2023.59
1371.26
858.082
597.052
512.639
448.867
391.191
339.711
338.384
396.168
447.631
403.489
260.451
118.893
38.5253
8.76429
10.6696
1.58423
1.74399
-2.71009
-3.58361
-3.90784
-4.18637
-4.04907
-6.22908
-5.5104
-4.47692
-3.28364
-3.28397
-3.5527
-3.86696
-4.08818
-4.22436
-4.38108
-4.52813
-4.6675
-4.80235
-4.93404
-5.06373
-5.19268
-5.32222
-5.45437
-5.59061
-5.73098
)
;
    }
    rightWall
    {
        type            calculated;
        value           nonuniform List<scalar> 
50
(
1893.88
1271.08
1000.21
909.194
832.995
758.335
687.502
620.808
524.299
398.797
270.806
137.715
32.3411
2.29482
-0.340951
-0.934147
-1.11809
-1.27022
-1.439
-1.60558
-1.76602
-1.92351
-2.07757
-2.2276
-2.3735
-2.51631
-2.65666
-2.79505
-2.932
-3.06789
-3.20296
-3.33721
-3.47048
-3.60297
-3.73489
-3.86628
-3.99719
-4.12765
-4.2577
-4.38736
-4.51668
-4.64571
-4.77446
-4.90297
-5.03128
-5.15943
-5.28746
-5.41541
-5.54329
-5.67113
)
;
    }
    lowerWall
    {
        type            calculated;
        value           nonuniform List<scalar> 
62
(
6938.02
6869.23
6756.95
6611.69
6448.5
6280.52
6119.34
5969.74
5831.37
5702.6
5583.29
5474.16
5376.69
5294.1
5231.38
5191.64
5173.15
5173.92
5192.4
5224.91
5266.21
5301.62
5322.74
4924.61
4132.56
3346.33
2561.33
1790.92
1153.12
877.196
752.044
754.822
751.133
736.112
726.067
2878.04
2165.79
1519.79
1142.81
982.407
866.687
805.003
762.063
3235.61
3218.94
3211.07
3160.54
3064.4
2943.28
2879.64
2875.9
2915.86
2948.06
2985.65
3051.01
3163.42
3201.78
3040.24
2803.46
2526.74
2298.91
2263.79
)
;
    }
    atmosphere
    {
        type            calculated;
        value           nonuniform List<scalar> 
46
(
-5.79663
-5.81433
-5.78825
-5.74623
-5.7358
-5.73525
-5.73218
-5.72939
-5.72911
-5.72907
-5.72905
-5.72904
-5.72904
-5.72904
-5.7291
-5.72923
-5.72938
-5.7295
-5.72959
-5.72965
-5.7297
-5.72976
-5.72989
-5.73005
-5.73024
-5.73048
-5.73075
-5.73128
-5.73201
-5.73277
-5.7335
-5.73418
-5.7348
-5.73536
-5.73584
-5.73623
-5.73654
-5.73675
-5.73686
-5.73686
-5.73676
-5.73654
-5.73624
-5.73586
-5.7355
-5.73492
)
;
    }
    defaultFaces
    {
        type            empty;
    }
}


// ************************************************************************* //
