/*--------------------------------*- C++ -*----------------------------------*\
| =========                 |                                                 |
| \\      /  F ield         | OpenFOAM: The Open Source CFD Toolbox           |
|  \\    /   O peration     | Version:  2312                                  |
|   \\  /    A nd           | Website:  www.openfoam.com                      |
|    \\/     M anipulation  |                                                 |
\*---------------------------------------------------------------------------*/
FoamFile
{
    version     2.0;
    format      ascii;
    arch        "LSB;label=32;scalar=64";
    class       volScalarField;
    location    "2.15";
    object      p_rgh;
}
// * * * * * * * * * * * * * * * * * * * * * * * * * * * * * * * * * * * * * //

dimensions      [1 -1 -2 0 0 0 0];

internalField   nonuniform List<scalar> 
2268
(
6938.02
6869.23
6756.95
6611.69
6448.5
6280.52
6119.34
5969.74
5831.37
5702.6
5583.29
5474.16
5376.69
5294.1
5231.38
5191.64
5173.15
5173.92
5192.4
5224.91
5266.21
5301.62
5322.74
6945.13
6876.44
6763.92
6615.88
6449.75
6279.15
6116.83
5967.22
5829.07
5700.21
5580.7
5471.28
5373.13
5289.52
5226.23
5186.86
5168.31
5169.9
5188.96
5223.21
5268.04
5304.4
5326.95
6965.19
6894.99
6778.53
6624.27
6452.67
6276.29
6111.64
5962.17
5824.76
5695.87
5575.89
5465.68
5366.05
5280.14
5216.03
5176.28
5159.61
5162.33
5183.25
5220.34
5269.2
5310.02
5337.08
6999.26
6925.24
6801.06
6636.88
6454.42
6270.89
6103.11
5954.36
5818.19
5688.8
5568.22
5457.32
5355.67
5266.45
5201.16
5162.37
5149.06
5150.48
5173.44
5219.38
5272.74
5319.49
5348.37
7048.3
6967.37
6831.26
6654.05
6458.74
6262.22
6090.39
5943.72
5810.29
5680.79
5558.97
5446.59
5341.19
5159.72
5010.27
4926.1
4907.27
4940.99
5005.84
5122.56
5276.61
5333.84
5372.74
7110.69
7015.19
6857.99
6673.48
6461.36
6249.16
6071.8
5875.17
5557.43
5089.46
4498.95
3857.56
3186.26
2699.01
2407.74
2274.86
2248.04
2312.77
2469.5
2752.51
3144.4
3630.61
3927.94
7189.91
7035.51
6902.82
6690.38
6008.65
4827.1
3671.08
2878.21
2292.34
1748.6
1457.55
1358.28
1327.13
1331.16
1333.94
1331
1322.84
1309.41
1290.75
1274.04
1322.13
1363.23
1659.78
6887.79
6634.28
5514.11
3695.28
2208.6
1398.95
1285.87
1276.18
1275.18
1288.34
1303.28
1312.88
1320.66
1325.96
1328.93
1327.65
1321.07
1315.11
1272.64
1238.35
1251.22
1293.34
1274.95
3235.61
3218.94
3211.07
3160.54
3064.4
2943.28
2879.64
2875.9
2915.86
2948.06
2985.65
3051.01
3163.42
3201.78
3040.24
2803.46
2526.74
2298.91
2263.79
3233.17
3218.66
3198.36
3124.75
2977.14
2770.52
2695.02
2730.74
2843.17
2831.02
2816.81
2887.3
3049.72
3173.44
3014.87
2726.38
2360.47
1969.31
1948.63
2956.6
2831.02
2814.93
2754.56
2442.55
2271.94
2177.94
2165.4
2212.05
2426.01
2591
2621.72
2699.03
2732.05
2480.73
2139.07
1441.84
1219.28
1238.04
1740.89
1666.87
1693.09
1893.64
1911.23
1716.03
1660.8
1648.23
1645.52
1687.2
1870.36
1907.69
2415.07
2385.67
2104.75
1331.29
1207.06
1205.88
1103.83
1631.83
1632.84
1540.97
1580.44
1797.11
1794.59
1659.86
1451.07
1478.6
1542.76
1596.08
1671.26
1901.13
1993.91
1502.03
1134.73
1190.91
1216.25
1083.35
1302.48
1411.11
1355.2
1269.27
1321.31
1345.5
1286.25
1353.44
1529.13
1591.63
1531.06
1648.89
1495.52
1368.89
1056.94
1128.32
1184.66
1145.82
1084.25
1111.75
1070.23
1072.73
1107.87
1060.58
1052.52
1052.59
956.698
1201.89
1452.25
1395.04
1042.03
1006.49
990.175
1079.73
1189.48
1143.04
981.221
1121.86
1117.68
1117.23
1128.07
1151.76
1149.15
1128.18
1085.91
915.443
941.58
1324.4
1129.65
1030.35
1066.15
1045.37
1123.1
1121.67
967.415
1036.6
1113.52
3041.63
2218.29
1517.67
1284.78
1279.07
1274.53
1267.3
1265.19
1270.8
1283.74
1294.29
1303.79
1312.46
1318.86
1322.33
1322.32
1322.21
1300.83
1250.49
1249.22
1237.88
1263.61
1245.16
1271.32
1380.19
1293.9
1224.61
1181.48
1165.93
1143.69
1133.62
1163.29
1205.96
1232.26
1243.18
1287.33
1314.41
1318.95
1317.21
1311.01
1235.2
1174.62
1276.79
1277.34
1252.83
1229.41
1060.62
1061.65
1050.55
997.326
949.263
929.454
921.13
917.583
929.145
959.642
996.412
1060.59
1124.33
1202.45
1298.64
1319.69
1299.65
1260.46
1274.83
1297.38
1292.46
1261.98
1232.28
881.618
865.769
852.385
850.993
874.562
883.223
892.361
902.735
909.837
915.103
913.46
885.73
870.046
885.984
1004.27
1244.42
1291.93
1289.47
1294
1277.76
1096.99
974.874
970.505
811.595
863.909
868.559
858.875
853.497
858.801
871.827
887.398
902.227
912.563
914.307
910.887
867.446
858.998
871.32
886.377
1012.5
1182.71
1198.73
988.38
834.422
841.439
806.101
712.698
749.536
772.441
760.47
760.625
803.32
842.442
866.995
892.629
909.468
903.533
886.059
893.706
894.031
878.259
860.082
822.702
812.733
797.567
772.692
796.641
792.647
782.851
759.108
726.65
585.243
524.057
419.147
370.791
460.506
543.969
574.225
749.481
893.933
911.238
906.865
897.255
883.852
867.842
846.667
796.762
786.225
781.206
802.714
791.532
783.286
1032.96
971.736
873.83
604.505
301.839
305.939
321.882
346.785
570.481
853.251
924.41
918.807
910.473
901.106
889.724
875.9
860.361
830.703
796.42
808.894
810.847
810.477
820.855
1138.55
1083.21
978.409
901.728
772.173
683.874
682.515
780.664
884.274
923.477
922.451
919.337
913.801
905.155
895.14
883.77
871.791
855.64
837.496
807.61
720.447
560.128
378.436
1209.59
1075.98
906.171
801.584
881.934
932.288
981.653
927.002
909.097
915.53
918.059
917.321
914.395
906.613
903.308
901.463
870.668
772.994
549.292
271.916
168.783
91.2298
1.32201
1126.02
938.44
366.039
102.905
85.942
97.4217
288.798
399.161
482.001
646.578
717.009
726.908
771.417
627.413
460.844
370.51
140.492
8.87279
0.705481
0.182209
0.174095
0.0666943
0.0763517
1040.97
687.04
17.352
3.95081
0.946717
0.915726
4.46331
4.50514
2.52638
2.1932
0.348373
-0.165963
-0.237562
-0.297883
-0.292641
-0.271366
-0.247434
-0.141091
-0.087084
0.448559
0.682456
0.523676
0.182071
1011.55
210.546
0.578128
0.244417
0.0867152
-0.152004
-0.324249
-0.34873
-0.3092
-0.275826
-0.183161
-0.115629
-0.0656863
-0.0795427
-0.0498174
-0.0342901
-0.0156926
0.00437234
-0.0746781
0.0510184
0.57641
0.753299
0.916492
1082.38
49.8509
-0.0826815
-0.138984
-0.190469
-0.368879
-0.467285
-0.481224
-0.398799
-0.302758
-0.26806
-0.275808
-0.292493
-0.279172
-0.252342
-0.200814
-0.00311592
0.0420476
0.0220122
-0.0755347
-0.0643398
0.0270392
0.112148
951.919
100.265
-0.240291
-0.397314
-0.376145
-0.533141
-0.584645
-0.564524
-0.498868
-0.436941
-0.311189
-0.192628
-0.156561
-0.188723
-0.244065
-0.224085
-0.193635
-0.159724
-0.128917
-0.0983928
-0.0603551
-0.0589616
-0.0323985
204.953
124.551
-0.416237
-0.520774
-0.523692
-0.629388
-0.632458
-0.56818
-0.510447
-0.443029
-0.392329
-0.32618
-0.164005
-0.133703
-0.212529
-0.22343
-0.19333
-0.163218
-0.135414
-0.110934
-0.0884588
-0.0653669
-0.0423764
131.245
119.244
-0.491793
-0.58183
-0.612425
-0.665525
-0.641658
-0.583223
-0.519339
-0.449444
-0.397098
-0.355461
-0.307117
-0.26042
-0.244639
-0.222807
-0.193289
-0.165266
-0.139429
-0.115626
-0.0932753
-0.0716394
-0.0508572
17.3456
20.7348
-0.629505
-0.661631
-0.648354
-0.676597
-0.639599
-0.582688
-0.518088
-0.45612
-0.399134
-0.362631
-0.324746
-0.288448
-0.254238
-0.222378
-0.193068
-0.166364
-0.14131
-0.118092
-0.0963757
-0.0758484
-0.0566127
7.60942
-0.894823
-0.775159
-0.739083
-0.669876
-0.672577
-0.629263
-0.568765
-0.506955
-0.451629
-0.402801
-0.359088
-0.319914
-0.284207
-0.251126
-0.220522
-0.192282
-0.166121
-0.141825
-0.11928
-0.0983471
-0.0788327
-0.0607296
10.2304
-0.805965
-0.812414
-0.779036
-0.692387
-0.664451
-0.609132
-0.547142
-0.488963
-0.436629
-0.389849
-0.34826
-0.310846
-0.276763
-0.245402
-0.216345
-0.189347
-0.164253
-0.140962
-0.119381
-0.0993836
-0.0808333
-0.0636925
14.0788
-0.862321
-0.855992
-0.795057
-0.704313
-0.647583
-0.584698
-0.521939
-0.465918
-0.41624
-0.372364
-0.333458
-0.298459
-0.266568
-0.237183
-0.209912
-0.184526
-0.160884
-0.138891
-0.118461
-0.0995083
-0.0819371
-0.0657013
138.946
2.71508
-0.847166
-0.830958
-0.71041
-0.626198
-0.554705
-0.49196
-0.438043
-0.391404
-0.350953
-0.315275
-0.28321
-0.253933
-0.226882
-0.2017
-0.178179
-0.156192
-0.135658
-0.116511
-0.0986956
-0.0821443
-0.0668194
169.816
23.0027
-0.799976
-0.802787
-0.685337
-0.588657
-0.514546
-0.453962
-0.403982
-0.361946
-0.325895
-0.294145
-0.265516
-0.239236
-0.214811
-0.191945
-0.170466
-0.150279
-0.131323
-0.113558
-0.0969558
-0.0814739
-0.0670891
177.193
38.6026
-0.769765
-0.718853
-0.614603
-0.525357
-0.456583
-0.40526
-0.363462
-0.328119
-0.297654
-0.270565
-0.245849
-0.22289
-0.201317
-0.180925
-0.161606
-0.143307
-0.126003
-0.109684
-0.0943474
-0.0799744
-0.0665593
175.236
27.2929
-0.67196
-0.586475
-0.500455
-0.43479
-0.384748
-0.348022
-0.317386
-0.290884
-0.267067
-0.24524
-0.224795
-0.205376
-0.186791
-0.168958
-0.151852
-0.13548
-0.119859
-0.105013
-0.0909658
-0.0777245
-0.0653003
24.2574
2.88064
-0.396367
-0.404278
-0.362746
-0.327878
-0.30612
-0.287275
-0.269284
-0.252156
-0.235447
-0.219138
-0.203089
-0.187258
-0.171674
-0.156393
-0.141484
-0.127022
-0.113071
-0.0996901
-0.0869313
-0.0748235
-0.0633967
0.504764
0.240105
-0.116427
-0.210249
-0.218691
-0.228016
-0.231825
-0.229341
-0.223072
-0.214538
-0.20432
-0.193399
-0.181551
-0.169142
-0.156423
-0.143583
-0.130783
-0.11816
-0.105824
-0.0938696
-0.0823713
-0.0713809
-0.0609439
0.361438
0.180782
-0.0118693
-0.077937
-0.122579
-0.153561
-0.171301
-0.179766
-0.182145
-0.180493
-0.176138
-0.169271
-0.160974
-0.151595
-0.141462
-0.130856
-0.120008
-0.109104
-0.0982936
-0.0876966
-0.0774109
-0.0675044
-0.0580368
0.172883
0.0872558
0.0274536
-0.025926
-0.0715333
-0.104843
-0.12717
-0.140927
-0.148365
-0.151195
-0.150592
-0.147276
-0.141915
-0.135058
-0.127133
-0.118481
-0.109375
-0.100034
-0.0906297
-0.0813026
-0.072164
-0.0632955
-0.0547674
0.0769184
0.0648447
0.0270146
-0.0117785
-0.0470612
-0.0759379
-0.0975987
-0.112637
-0.122202
-0.127394
-0.129105
-0.128075
-0.124797
-0.119846
-0.113679
-0.106652
-0.0990449
-0.0910849
-0.0829525
-0.0747938
-0.0667277
-0.058842
-0.0512139
0.0659221
0.0489215
0.0192766
-0.00952952
-0.036569
-0.0601337
-0.0790655
-0.093203
-0.10295
-0.108896
-0.111647
-0.111794
-0.109752
-0.106078
-0.101207
-0.0954657
-0.0891099
-0.0823472
-0.075348
-0.0682535
-0.0611801
-0.0542178
-0.0474462
0.0340612
0.0248716
0.00684218
-0.0134413
-0.0334661
-0.0522562
-0.0679768
-0.0802346
-0.0890583
-0.0947126
-0.0975887
-0.0980526
-0.096568
-0.0936494
-0.0896807
-0.0849298
-0.0796021
-0.0738674
-0.0678718
-0.061741
-0.0555836
-0.049485
-0.0435238
0.0120428
0.00651455
-0.00501983
-0.0190675
-0.0338603
-0.0485555
-0.0611568
-0.0712072
-0.0785709
-0.0833533
-0.0858061
-0.0860904
-0.0847743
-0.0822894
-0.0789574
-0.0749813
-0.0705075
-0.0656612
-0.0605568
-0.0553001
-0.049986
-0.0446939
-0.0394998
-0.00219464
-0.00617491
-0.0143003
-0.024191
-0.0351341
-0.0464233
-0.0560093
-0.0638321
-0.0696861
-0.0734027
-0.0749867
-0.0750772
-0.073868
-0.0716952
-0.0688635
-0.0655319
-0.0617926
-0.057728
-0.0534226
-0.0489611
-0.0444253
-0.0398862
-0.0354147
-0.0111996
-0.0148041
-0.0207262
-0.0278657
-0.0358282
-0.0441084
-0.0504318
-0.0565527
-0.0612428
-0.0624967
-0.0637167
-0.0645925
-0.0635298
-0.061632
-0.059257
-0.056505
-0.0534244
-0.0500636
-0.0464824
-0.0427488
-0.0389316
-0.0350947
-0.0313045
-0.0120752
-0.020244
-0.0247004
-0.0297483
-0.0353695
-0.0401207
-0.044834
-0.0489324
-0.0518507
-0.052325
-0.0533204
-0.0544175
-0.053541
-0.0519631
-0.0500497
-0.0478514
-0.0453821
-0.0426662
-0.0397474
-0.0366816
-0.0335291
-0.030347
-0.0271966
-0.0155546
-0.0184156
-0.0261235
-0.0301826
-0.0333654
-0.0355999
-0.0363219
-0.0400583
-0.0415478
-0.0426051
-0.0437066
-0.0445705
-0.0438289
-0.0426361
-0.0412057
-0.0395484
-0.0376546
-0.0355353
-0.0332251
-0.0307736
-0.0282346
-0.0256615
-0.0231128
-0.0203037
-0.0205668
-0.0268292
-0.0290158
-0.0283921
-0.0149264
-0.0215414
-0.0318682
-0.0321968
-0.0329443
-0.0348739
-0.0350406
-0.0344619
-0.0336787
-0.0327313
-0.031591
-0.030234
-0.028665
-0.0269144
-0.0250273
-0.0230548
-0.0210475
-0.019061
-0.0281062
-0.0275716
-0.0282937
-0.025141
-0.00957389
-0.00746462
-0.0159076
-0.0234579
-0.0235522
-0.0249732
-0.0258293
-0.0258291
-0.0255681
-0.025167
-0.024652
-0.0239778
-0.023108
-0.0220404
-0.0208017
-0.0194336
-0.0179838
-0.0165012
-0.015041
0.0167638
-0.0178029
-0.024839
-0.00161027
-0.0034491
-0.00421626
-0.0156336
-0.0156922
-0.0162383
-0.0167811
-0.0170921
-0.0172483
-0.0172955
-0.0171659
-0.0169986
-0.0167185
-0.0162708
-0.0156464
-0.0148683
-0.0139741
-0.0130076
-0.0120143
-0.0110475
0.0349407
0.0344063
0.0382402
0.00142596
-0.0077477
-0.0115931
-0.00954365
-0.00836012
-0.0084892
-0.00888517
-0.00926128
-0.00968723
-0.0100132
-0.00992097
-0.00990306
-0.00986492
-0.0097269
-0.00946391
-0.00908553
-0.00861763
-0.00809548
-0.00755945
-0.00706207
0.00231569
0.0183605
0.008539
-0.00968857
-0.00742547
-0.00249842
-0.00203753
-0.00289973
-0.00242205
-0.0022023
-0.00215428
-0.00219703
-0.00230292
-0.00272509
-0.00296916
-0.00318414
-0.0033282
-0.00338497
-0.00336131
-0.00327753
-0.00316201
-0.00305003
-0.00299691
1261.47
1255.26
1157.61
1091.23
1214.09
1206.62
1211.03
1216.23
1222.36
1213.37
1200.08
1196.92
969.595
917.75
910.945
907.319
794.489
783.232
780.513
785.298
776.036
772.807
780.024
800.904
807.343
851.051
905.512
987.328
893.694
763.319
604.201
506.167
350.337
361.886
291.636
191.128
1.15527
2.37948
1.16284
0.145023
0.0391495
0.0159384
0.0110159
0.0275067
0.142823
0.137359
0.118538
0.115324
0.667551
0.692343
0.761821
0.313223
0.0021096
0.0304979
0.224421
0.324489
-0.0139354
-0.00481575
0.00257078
0.00913718
-0.0267072
-0.0182828
-0.0108539
-0.00428559
-0.0367859
-0.0285201
-0.0211491
-0.0145892
-0.0435161
-0.035627
-0.0285003
-0.0220769
-0.0483877
-0.0408871
-0.0340169
-0.027756
-0.0520179
-0.0448995
-0.0383001
-0.0322077
-0.0546557
-0.0478966
-0.0415688
-0.0356652
-0.0563864
-0.0499848
-0.0439426
-0.0382553
-0.0572683
-0.051224
-0.045487
-0.0400459
-0.0573612
-0.0516826
-0.0462669
-0.0411029
-0.056734
-0.0514303
-0.0463556
-0.0414912
-0.0554718
-0.0505499
-0.0458244
-0.041279
-0.0536579
-0.0491216
-0.0447563
-0.0405402
-0.0513854
-0.0472319
-0.0432247
-0.0393455
-0.0487357
-0.0449604
-0.0413123
-0.0377688
-0.0457868
-0.0423805
-0.0390815
-0.0358717
-0.0425985
-0.0395506
-0.0365965
-0.0337139
-0.0392336
-0.0365299
-0.0339067
-0.0313456
-0.0357404
-0.0333681
-0.031068
-0.0288178
-0.0321648
-0.0301103
-0.0281177
-0.026169
-0.0285371
-0.0267872
-0.0250936
-0.0234352
-0.0248907
-0.0234314
-0.022021
-0.0206426
-0.0212434
-0.0200622
-0.0189256
-0.0178151
-0.0176089
-0.0166932
-0.0158158
-0.0149628
-0.0139822
-0.013321
-0.0126951
-0.0120905
-0.0103637
-0.00994664
-0.00956174
-0.00919975
-0.00674149
-0.00656328
-0.00641662
-0.00629403
-0.0030297
-0.00308963
-0.00318384
-0.00330643
1087.56
1161.61
1181.57
1167.05
1150.44
1129.93
1043.4
855.096
839.296
947.266
1095.08
1103.09
1128.99
1114.43
1073.25
982.281
926.128
1025.67
1094.73
1212.34
1196.93
1185.74
1178.53
1162.86
1140.86
1121.99
968.777
818.386
902.937
1245.32
1350.74
1185.46
1113.42
906.795
789.801
933.095
1019.64
1104.91
1195.14
1184.15
1174.15
1168.88
1187.69
1141.12
1138.14
1141.45
1075.37
1052.4
1150.21
1215.93
1185.35
935.736
771.916
778.774
837.53
972.56
1132.54
929.386
916.096
883.164
910.503
1008.33
1041.94
1082.45
1054.86
1047.13
1085.66
1092.55
1064.96
993.263
893.974
801.573
745.029
801.616
865.705
960.325
782.352
770.91
812.37
738.753
660.113
703.008
767.528
827.144
888.326
903.694
877.86
827.738
796.967
772.549
766.044
671.897
634.527
554.469
419.204
863.622
911.84
813.095
701.905
688.029
675.252
661.682
726.804
820.571
786.428
759.937
708.553
613.149
615.554
549.932
498.671
354.598
136.796
30.5841
887.214
816.006
814.466
642.048
647.647
572.885
463.576
384.469
351.838
334.354
263.257
184.282
191.245
115.268
52.8634
41.7851
22.7519
9.98557
1.58241
441.21
409.341
305.735
215.231
189.287
124.421
105.055
75.4901
16.683
1.50932
1.88369
2.5698
5.02499
0.634536
0.386145
0.303332
0.232736
0.269558
0.555254
104.475
47.8214
27.7076
29.8697
23.3233
2.59757
0.539334
0.264084
0.27895
0.360951
0.333451
0.325005
0.304494
0.326725
0.387096
0.341956
0.304465
0.351265
0.447535
0.124549
0.161643
0.478519
0.956194
0.400175
0.185556
0.22461
0.249111
0.326596
0.392529
0.444414
0.463843
0.422997
0.418572
0.414281
0.394606
0.36999
0.3575
0.392087
0.0883223
0.540364
0.616647
0.568745
0.113372
0.146002
0.178759
0.24595
0.353851
0.493677
0.530947
0.499003
0.386788
0.408566
0.393833
0.38775
0.354278
0.329114
0.348296
0.141519
0.274179
0.283777
0.162266
0.180035
0.316902
0.487644
0.541511
0.634646
0.933579
0.793733
0.284877
0.293698
0.332731
0.329458
0.322198
0.289535
0.29535
0.307638
0.230578
0.169832
0.20088
0.18087
0.23065
0.518526
0.754777
0.676839
0.674791
1.13652
1.22502
0.666685
0.431187
1.06685
0.753885
0.293089
0.259991
0.264453
0.275727
0.387001
0.454947
0.455966
0.209171
0.174112
0.249369
0.286997
0.419084
0.481765
0.690811
1.20597
1.25983
1.26614
1.28703
1.27905
0.337355
0.22325
0.233043
0.243782
0.0185378
0.0260695
0.0395398
0.0616552
0.0422163
0.0459623
0.0548869
0.0700917
0.086285
0.083603
0.262914
1.19443
1.26419
1.12621
0.621274
0.258482
0.191949
0.203622
0.215226
0.00545059
0.0154248
0.0226063
0.0299109
0.0366054
0.0437263
0.0521936
0.0614117
0.0705346
0.0783067
0.0837789
0.15758
0.511167
0.112974
0.14817
0.158955
0.167459
0.178718
0.190453
-0.00464054
0.00662776
0.0158718
0.0244154
0.0324741
0.0405432
0.0490273
0.0578453
0.0665962
0.0746476
0.0816088
0.0873374
0.0913057
0.102306
0.117876
0.136843
0.150971
0.159282
0.169952
-0.0122127
-0.000362882
0.00994821
0.0193444
0.0282155
0.03681
0.0454283
0.0541012
0.0627652
0.0711883
0.079147
0.0864671
0.0923822
0.10184
0.11373
0.126296
0.136133
0.142554
0.152158
-0.0180484
-0.00597418
0.00485864
0.014741
0.023996
0.0328733
0.0415793
0.050139
0.0591564
0.0674248
0.0756821
0.0825152
0.0895855
0.0979719
0.107064
0.115949
0.123118
0.128061
0.131259
-0.0226668
-0.01057
0.000451498
0.0105615
0.0199844
0.028951
0.0376012
0.0459785
0.0546661
0.0628598
0.0703024
0.0771466
0.084432
0.0917853
0.0991576
0.105923
0.111442
0.115402
0.117267
-0.0263385
-0.0143749
-0.00338663
0.00673477
0.016152
0.0250491
0.0335364
0.0416646
0.0494823
0.0573736
0.0643902
0.0713924
0.0781795
0.0847254
0.0909056
0.0963259
0.100944
0.1125
0.105542
-0.0292016
-0.0175039
-0.00670939
0.00325871
0.0125263
0.0212355
0.0294766
0.037297
0.0447416
0.0518588
0.0587228
0.0652937
0.0715353
0.0773816
0.0827135
0.0872283
0.0913367
0.107058
0.101667
-0.0313339
-0.0200189
-0.00953984
0.000153732
0.00916136
0.0175942
0.0255236
0.0329934
0.0400476
0.0467349
0.0531024
0.0591587
0.064855
0.0700882
0.0748098
0.0786603
0.0823377
0.0979486
0.0987792
-0.0327955
-0.0219575
-0.0118888
-0.00256075
0.00610486
0.0141947
0.021765
0.0288559
0.0355058
0.0417573
0.0476471
0.0531823
0.0583308
0.0629758
0.0673614
0.0706357
0.0738353
0.0891599
0.0845659
-0.033637
-0.0233531
-0.0137679
-0.00487422
0.00338812
0.0110863
0.0182643
0.0249561
0.0311956
0.0370183
0.042455
0.0475154
0.0521852
0.0564071
0.0601652
0.0631435
0.065638
0.0721725
0.0677478
-0.0339177
-0.0242422
-0.0151961
-0.00678873
0.00102453
0.00829492
0.0150562
0.0213362
0.0271638
0.0325678
0.0375736
0.0421912
0.0464147
0.050204
0.053515
0.0561979
0.0583705
0.059622
0.060456
-0.0336947
-0.0246683
-0.0162011
-0.00831836
-0.000988118
0.00582793
0.0121549
0.0180151
0.0234318
0.0284282
0.0330238
0.0372267
0.0410369
0.0444256
0.0473725
0.0497823
0.0517164
0.0530084
0.0537221
-0.0330331
-0.024679
-0.0168182
-0.00948712
-0.00266435
0.00367806
0.00955828
0.0149937
0.0200027
0.0246027
0.0288081
0.0326238
0.0360549
0.0390817
0.0417527
0.0439498
0.0456518
0.046877
0.0476066
-0.0319913
-0.0243241
-0.0170867
-0.0103255
-0.00402711
0.00182822
0.00725339
0.0122618
0.0168676
0.0210832
0.0249174
0.0283712
0.0314561
0.0341608
0.0367333
0.0388533
0.0401438
0.0412409
0.0421538
-0.0306298
-0.0236527
-0.0170478
-0.0108675
-0.00510441
0.000255256
0.00522066
0.00980228
0.014011
0.0178548
0.0213362
0.0244535
0.0272225
0.0296399
0.0319941
0.0340136
0.0354676
0.0361238
0.037047
-0.0289997
-0.0227117
-0.0167422
-0.0111482
-0.0059262
-0.00106656
0.00343773
0.00759538
0.011415
0.0148997
0.0180455
0.0208525
0.0233333
0.0254839
0.0273884
0.0294681
0.0309107
0.0317925
0.0321935
-0.0271524
-0.021545
-0.0162088
-0.0112016
-0.00652221
-0.00216304
0.00188208
0.00562079
0.00905949
0.0121968
0.0150253
0.0175451
0.0197634
0.0216772
0.023341
0.0250232
0.0265786
0.0273906
0.0275831
-0.0251303
-0.0201927
-0.0154834
-0.0110597
-0.00692032
-0.00305836
0.000532457
0.00385912
0.00692536
0.00972439
0.0122525
0.0145024
0.0164783
0.0181782
0.0196519
0.0208822
0.0225044
0.0233203
0.023069
-0.022974
-0.0186902
-0.0145986
-0.0107513
-0.00714573
-0.00377454
-0.000631145
0.00229027
0.00499078
0.00746339
0.00970032
0.0116928
0.0134417
0.0149447
0.0162457
0.0173169
0.0184413
0.0193966
0.0192298
-0.0207151
-0.0170686
-0.0135825
-0.0103017
-0.00722074
-0.00433159
-0.00162779
0.000894742
0.00323527
0.00538744
0.00733943
0.00908298
0.0106163
0.0119366
0.0130776
0.0140072
0.0148165
0.0154559
0.0156699
-0.0183825
-0.0153536
-0.0124591
-0.00973228
-0.00716498
-0.00474833
-0.00247696
-0.000348838
0.00163472
0.00346774
0.005138
0.00663794
0.0079639
0.00911242
0.0101051
0.010912
0.0116097
0.0120569
0.0123303
-0.0159957
-0.0135657
-0.0112477
-0.00906151
-0.00699655
-0.0050442
-0.00320073
-0.0014654
0.000160735
0.00167225
0.00306152
0.00431988
0.00544331
0.00642778
0.00728303
0.00798315
0.00858441
0.00896005
0.00920744
-0.0135696
-0.0117193
-0.00996342
-0.00830576
-0.00673432
-0.00524169
-0.0038251
-0.00248379
-0.00121797
-3.03718e-05
0.00107568
0.00209197
0.0030147
0.00383875
0.00456517
0.00517125
0.00569007
0.00601496
0.00624416
-0.0111099
-0.00982609
-0.00862046
-0.00748234
-0.00639938
-0.00536489
-0.00437573
-0.00342987
-0.00252585
-0.00166328
-0.00084303
-6.96172e-05
0.00065215
0.00131663
0.00191947
0.00243923
0.00288927
0.00318122
0.00340113
-0.00862716
-0.00790079
-0.00723626
-0.00661123
-0.00601396
-0.00543675
-0.00487469
-0.00432367
-0.0037802
-0.00324182
-0.00270678
-0.00217668
-0.00165575
-0.00115
-0.000666865
-0.000227845
0.000163869
0.000438124
0.000647553
-0.00612393
-0.00595308
-0.00582766
-0.00571811
-0.00561061
-0.00549457
-0.00536247
-0.005208
-0.00502584
-0.00481184
-0.00456274
-0.00427748
-0.00395754
-0.00360902
-0.00324054
-0.00287465
-0.00252453
-0.00225603
-0.00203948
-0.00355656
-0.00396511
-0.00440546
-0.00483566
-0.00523936
-0.00560337
-0.00591823
-0.0061758
-0.00636913
-0.00649248
-0.00654074
-0.00651078
-0.00640042
-0.00621196
-0.00595233
-0.00564471
-0.00530283
-0.00500659
-0.00469127
)
;

boundaryField
{
    leftWall
    {
        type            fixedFluxPressure;
        gradient        uniform 0;
        value           nonuniform List<scalar> 
50
(
6938.02
6945.13
6965.19
6999.26
7048.3
7110.69
7189.91
6887.79
3041.63
1271.32
1060.62
881.618
811.595
712.698
759.108
1032.96
1138.55
1209.59
1126.02
1040.97
1011.55
1082.38
951.919
204.953
131.245
17.3456
7.60942
10.2304
14.0788
138.946
169.816
177.193
175.236
24.2574
0.504764
0.361438
0.172883
0.0769184
0.0659221
0.0340612
0.0120428
-0.00219464
-0.0111996
-0.0120752
-0.0155546
-0.0203037
-0.0281062
0.0167638
0.0349407
0.00231569
)
;
    }
    rightWall
    {
        type            fixedFluxPressure;
        gradient        uniform 0;
        value           nonuniform List<scalar> 
50
(
2263.79
1948.63
1238.04
1103.83
1083.35
1084.25
1121.86
1113.52
1094.73
1104.91
1132.54
960.325
419.204
30.5841
1.58241
0.555254
0.447535
0.392087
0.348296
0.307638
0.275727
0.243782
0.215226
0.190453
0.169952
0.152158
0.131259
0.117267
0.105542
0.101667
0.0987792
0.0845659
0.0677478
0.060456
0.0537221
0.0476066
0.0421538
0.037047
0.0321935
0.0275831
0.023069
0.0192298
0.0156699
0.0123303
0.00920744
0.00624416
0.00340113
0.000647553
-0.00203948
-0.00469127
)
;
    }
    lowerWall
    {
        type            fixedFluxPressure;
        gradient        uniform 0;
        value           nonuniform List<scalar> 
62
(
6938.02
6869.23
6756.95
6611.69
6448.5
6280.52
6119.34
5969.74
5831.37
5702.6
5583.29
5474.16
5376.69
5294.1
5231.38
5191.64
5173.15
5173.92
5192.4
5224.91
5266.21
5301.62
5322.74
5322.74
5326.95
5337.08
5348.37
5372.74
3927.94
1659.78
1274.95
1261.47
1255.26
1157.61
1091.23
3235.61
3233.17
2956.6
1740.89
1631.83
1302.48
1111.75
1117.68
3235.61
3218.94
3211.07
3160.54
3064.4
2943.28
2879.64
2875.9
2915.86
2948.06
2985.65
3051.01
3163.42
3201.78
3040.24
2803.46
2526.74
2298.91
2263.79
)
;
    }
    atmosphere
    {
        type            totalPressure;
        rho             rho;
        psi             none;
        gamma           1;
        p0              uniform 0;
        value           nonuniform List<scalar> 
46
(
0
0
0
0
0
0
0
0
0
0
0
0
0
0
-6.09543e-05
-0.000194084
-0.000338062
-0.000460136
-0.00054936
-0.00061078
-0.000657398
-0.000720389
-0.0008525
-0.00101242
-0.00120303
-0.00143799
-0.00171227
-0.00223593
-0.00297032
-0.00373238
-0.00446049
-0.00514113
-0.00576331
-0.00631843
-0.00679812
-0.00719466
-0.0075014
-0.00771172
-0.00782131
-0.00782482
-0.00771883
-0.00750477
-0.00720396
-0.00682096
-0.00646453
-0.00588442
)
;
    }
    defaultFaces
    {
        type            empty;
    }
}


// ************************************************************************* //
