/*--------------------------------*- C++ -*----------------------------------*\
| =========                 |                                                 |
| \\      /  F ield         | OpenFOAM: The Open Source CFD Toolbox           |
|  \\    /   O peration     | Version:  2312                                  |
|   \\  /    A nd           | Website:  www.openfoam.com                      |
|    \\/     M anipulation  |                                                 |
\*---------------------------------------------------------------------------*/
FoamFile
{
    version     2.0;
    format      ascii;
    arch        "LSB;label=32;scalar=64";
    class       surfaceScalarField;
    location    "2.15";
    object      phi;
}
// * * * * * * * * * * * * * * * * * * * * * * * * * * * * * * * * * * * * * //

dimensions      [0 3 -1 0 0 0 0];

oriented        oriented;

internalField   nonuniform List<scalar> 
4432
(
3.58086e-06
-3.58085e-06
4.67803e-06
-1.09717e-06
5.10194e-06
-4.23905e-07
5.16896e-06
-6.70206e-08
5.0537e-06
1.1526e-07
4.783e-06
2.70704e-07
4.43058e-06
3.52418e-07
4.04525e-06
3.85334e-07
3.61954e-06
4.2571e-07
3.08404e-06
5.35504e-07
2.43527e-06
6.48773e-07
1.74922e-06
6.86047e-07
1.12161e-06
6.27613e-07
6.05742e-07
5.15873e-07
2.6244e-07
3.43303e-07
9.32964e-08
1.69144e-07
5.38224e-08
3.9475e-08
8.63588e-08
-3.25355e-08
1.23433e-07
-3.7073e-08
8.91628e-08
3.42713e-08
-3.60903e-08
1.25254e-07
-2.18338e-07
1.82249e-07
-2.18338e-07
2.30689e-06
-5.88774e-06
3.60742e-06
-2.3977e-06
4.30572e-06
-1.12221e-06
4.62687e-06
-3.88162e-07
4.64198e-06
1.00146e-07
4.42455e-06
4.88145e-07
4.09003e-06
6.86938e-07
3.7258e-06
7.49568e-07
3.34992e-06
8.01596e-07
2.81812e-06
1.06731e-06
2.18485e-06
1.28205e-06
1.50705e-06
1.36385e-06
8.77015e-07
1.25766e-06
3.57583e-07
1.03531e-06
9.48201e-09
6.91408e-07
-1.52869e-07
3.31499e-07
-1.55064e-07
4.16722e-08
-8.19409e-08
-1.05656e-07
-3.83052e-08
-8.07058e-08
-7.15031e-08
6.74725e-08
-2.33272e-07
2.87027e-07
-4.59685e-07
4.08665e-07
-6.78018e-07
1.47928e-06
-7.36702e-06
2.74606e-06
-3.66448e-06
3.56342e-06
-1.93957e-06
4.01282e-06
-8.3756e-07
4.12365e-06
-1.06865e-08
3.9525e-06
6.59295e-07
3.66473e-06
9.74709e-07
3.36304e-06
1.05126e-06
3.06541e-06
1.09924e-06
2.62443e-06
1.50829e-06
2.0354e-06
1.87108e-06
1.35638e-06
2.04287e-06
7.14738e-07
1.8993e-06
1.71816e-07
1.57823e-06
-1.86408e-07
1.04963e-06
-3.15673e-07
4.60765e-07
-2.43097e-07
-3.09025e-08
-8.66205e-08
-2.62132e-07
4.57362e-08
-2.13061e-07
5.69855e-08
5.62244e-08
-9.59397e-08
4.39954e-07
-3.03965e-07
6.16693e-07
-9.81983e-07
9.39212e-07
-8.30623e-06
2.0997e-06
-4.82496e-06
2.99398e-06
-2.83385e-06
3.54799e-06
-1.39157e-06
3.74969e-06
-2.12388e-07
3.6259e-06
7.83085e-07
3.38316e-06
1.21746e-06
3.22407e-06
1.21035e-06
3.06907e-06
1.25424e-06
2.62283e-06
1.95453e-06
1.96212e-06
2.5318e-06
1.25227e-06
2.75273e-06
5.85783e-07
2.56579e-06
2.54727e-08
2.13855e-06
-2.87862e-07
1.36297e-06
-2.88207e-07
4.61114e-07
-6.88478e-08
-2.50258e-07
2.39687e-07
-5.70663e-07
4.61063e-07
-4.34434e-07
5.2036e-07
-3.06983e-09
2.60104e-07
7.00213e-07
8.09876e-08
7.95811e-07
-9.00991e-07
9.81179e-07
-9.28741e-06
2.01038e-06
-5.85416e-06
2.83327e-06
-3.65673e-06
3.41706e-06
-1.97536e-06
3.69451e-06
-4.89836e-07
3.5473e-06
9.30299e-07
3.27107e-06
1.49369e-06
3.07696e-06
1.40446e-06
2.98797e-06
1.34324e-06
2.59288e-06
2.34962e-06
1.87454e-06
3.25014e-06
9.15835e-07
3.71144e-06
-3.42711e-08
3.5159e-06
-7.33801e-07
2.83808e-06
-1.04514e-06
1.67431e-06
-9.843e-07
4.00277e-07
-5.37439e-07
-6.9712e-07
1.38744e-07
-1.24685e-06
7.79855e-07
-1.07555e-06
1.01503e-06
-2.38251e-07
4.52127e-07
1.26312e-06
3.0329e-09
1.2449e-06
-8.97962e-07
1.41476e-06
-1.07022e-05
2.29846e-06
-6.73786e-06
2.96555e-06
-4.32382e-06
3.31443e-06
-2.32423e-06
3.38677e-06
-5.62175e-07
2.98862e-06
1.32845e-06
2.37828e-06
2.10403e-06
1.80554e-06
1.97721e-06
1.24186e-06
1.90692e-06
4.18815e-07
3.17267e-06
-4.00149e-07
4.06911e-06
-1.19777e-06
4.50906e-06
-2.33632e-06
4.65445e-06
-3.42817e-06
3.92994e-06
-4.196e-06
2.44215e-06
-4.44917e-06
6.53458e-07
-3.95201e-06
-1.19427e-06
-3.05208e-06
-2.14677e-06
-2.42496e-06
-1.70265e-06
-1.65544e-06
-1.00777e-06
-2.38989e-07
-1.53327e-07
1.0603e-06
-5.43853e-08
1.62344e-07
1.35039e-06
-1.20526e-05
1.98622e-06
-7.37369e-06
1.84721e-06
-4.18481e-06
1.0636e-06
-1.54061e-06
6.27813e-07
-1.26385e-07
6.41531e-07
1.31475e-06
1.15776e-06
1.58782e-06
1.0318e-06
2.10318e-06
-2.3072e-06
5.24594e-06
-1.00498e-05
1.09153e-05
-1.77125e-05
1.17318e-05
-2.3399e-05
1.01956e-05
-2.69244e-05
8.17985e-06
-2.85597e-05
5.5652e-06
-2.87466e-05
2.62914e-06
-2.72956e-05
-7.9757e-07
-2.45699e-05
-3.91993e-06
-2.11463e-05
-5.57039e-06
-1.77671e-05
-5.08182e-06
-1.42683e-05
-4.50648e-06
-8.51994e-06
-5.90173e-06
-1.4273e-06
-7.14702e-06
-1.26494e-06
8.90354e-07
-1.29429e-05
1.80252e-06
-8.28585e-06
3.23338e-06
-5.61567e-06
5.36317e-06
-3.67039e-06
4.60801e-06
6.28784e-07
-2.98108e-06
8.90386e-06
-1.11408e-05
9.74753e-06
-1.69328e-05
7.89528e-06
-2.13059e-05
9.61898e-06
-2.42091e-05
1.38185e-05
-2.73275e-05
1.48503e-05
-3.01192e-05
1.29873e-05
-3.1785e-05
9.84567e-06
-3.22158e-05
5.99597e-06
-3.13041e-05
1.7175e-06
-2.94995e-05
-2.60215e-06
-2.75287e-05
-5.89078e-06
-2.56818e-05
-7.41727e-06
-2.45219e-05
-6.24166e-06
-2.25998e-05
-6.42861e-06
-2.07459e-05
-7.75561e-06
-1.69055e-05
-1.09874e-05
-1.81705e-05
-1.23522e-06
1.23521e-06
1.69919e-06
-2.93441e-06
4.23826e-06
-2.53907e-06
4.72047e-06
-4.82212e-07
2.90553e-06
1.81494e-06
-5.99566e-07
3.5051e-06
-4.57827e-06
3.9787e-06
-8.1598e-06
3.58154e-06
-1.02047e-05
2.04489e-06
-1.05414e-05
3.36702e-07
-9.77328e-06
-7.68107e-07
-7.95708e-06
-1.8162e-06
-4.43515e-06
-3.52193e-06
2.09115e-07
-4.64426e-06
3.0491e-06
-2.83999e-06
3.54156e-06
-4.92458e-07
2.21477e-06
1.32679e-06
2.00191e-07
2.01458e-06
2.00193e-07
5.10312e-06
-3.86791e-06
9.05563e-06
-6.88693e-06
1.18794e-05
-5.36284e-06
1.33018e-05
-1.90463e-06
1.25206e-05
2.59615e-06
1.05084e-05
5.51729e-06
6.80677e-06
7.68033e-06
2.39649e-06
7.99182e-06
-2.06152e-06
6.5029e-06
-4.86275e-06
3.13793e-06
-4.61877e-06
-1.01208e-06
-9.93469e-07
-5.4415e-06
2.70025e-06
-7.21565e-06
5.08533e-06
-7.02935e-06
5.65253e-06
-3.40719e-06
4.82136e-06
3.38711e-07
2.9642e-06
3.18395e-06
1.81185e-06
3.16692e-06
2.01204e-06
7.2098e-06
-1.10777e-05
9.60837e-06
-9.28549e-06
1.27147e-05
-8.46916e-06
1.67736e-05
-5.96357e-06
1.87007e-05
6.69107e-07
1.91462e-05
5.07173e-06
1.75181e-05
9.30846e-06
1.40382e-05
1.14717e-05
9.23711e-06
1.1304e-05
5.90067e-06
6.47437e-06
5.90663e-06
-1.01804e-06
9.386e-06
-8.92086e-06
1.44132e-05
-1.22428e-05
1.62826e-05
-8.89879e-06
1.57929e-05
-2.91751e-06
1.22169e-05
3.91479e-06
1.00024e-05
5.39839e-06
1.37102e-05
-5.40872e-07
1.57223e-05
4.96936e-06
-1.60471e-05
6.74044e-06
-1.10566e-05
6.89673e-06
-8.62546e-06
1.0531e-05
-9.5979e-06
1.51266e-05
-3.9265e-06
1.90627e-05
1.13569e-06
2.17278e-05
6.64331e-06
2.07972e-05
1.24023e-05
1.88732e-05
1.3228e-05
1.62354e-05
9.11215e-06
1.44003e-05
8.17086e-07
1.50849e-05
-9.60543e-06
1.79323e-05
-1.50903e-05
1.71018e-05
-8.06828e-06
1.15617e-05
2.62256e-06
-1.8699e-06
1.73464e-05
-1.14774e-07
3.64325e-06
1.20495e-05
-1.27052e-05
2.77718e-05
2.52494e-06
-1.8572e-05
4.94842e-06
-1.34801e-05
5.22346e-06
-8.90049e-06
6.35895e-06
-1.07334e-05
9.46177e-06
-7.02931e-06
1.2678e-05
-2.08056e-06
1.57954e-05
3.52589e-06
1.75265e-05
1.06713e-05
2.00803e-05
1.06741e-05
2.2058e-05
7.13448e-06
1.87675e-05
4.10759e-06
1.71651e-05
-8.00306e-06
1.34263e-05
-1.13514e-05
6.84102e-06
-1.483e-06
-5.18823e-06
1.46518e-05
-7.69479e-06
1.98529e-05
1.47728e-07
-4.19927e-06
7.07069e-06
-1.96282e-05
3.48425e-05
2.32319e-06
-2.08953e-05
3.50986e-06
-1.46668e-05
3.46525e-06
-8.8559e-06
3.98459e-06
-1.12527e-05
5.59559e-06
-8.64031e-06
7.98692e-06
-4.4719e-06
1.14072e-05
1.05639e-07
1.13994e-05
1.06791e-05
1.43938e-05
7.6797e-06
1.72635e-05
4.26486e-06
1.3343e-05
8.02805e-06
4.49891e-06
8.41009e-07
-2.82502e-06
-4.02751e-06
-1.16482e-05
7.34021e-06
-1.62751e-05
1.92787e-05
-6.10928e-06
9.68706e-06
1.14956e-06
-1.14581e-05
3.08775e-06
-2.15664e-05
3.79302e-05
-3.65815e-06
-1.72371e-05
-5.62838e-06
-1.26965e-05
-6.83537e-06
-7.64892e-06
-6.54133e-06
-1.15468e-05
-2.90677e-06
-1.22749e-05
3.69466e-06
-1.10733e-05
1.29772e-05
-9.17687e-06
1.07064e-05
1.29498e-05
6.08007e-06
1.23061e-05
5.8648e-06
4.48012e-06
-1.10147e-06
1.49943e-05
-1.0053e-05
9.79253e-06
-1.62788e-05
2.19823e-06
-2.09231e-05
1.19845e-05
-1.61171e-05
1.44727e-05
-3.58044e-06
-2.84965e-06
-8.92039e-07
-1.41465e-05
5.77412e-07
-2.30358e-05
3.85076e-05
-1.41161e-05
-3.12108e-06
-1.94177e-05
-7.39486e-06
-1.79629e-05
-9.10376e-06
-1.5935e-05
-1.35746e-05
-1.24461e-05
-1.57638e-05
-7.2512e-06
-1.62682e-05
3.23969e-07
-1.6752e-05
3.37852e-06
9.8952e-06
-5.94801e-06
2.16326e-05
-1.29704e-05
1.15025e-05
-1.57975e-05
1.78214e-05
-1.74619e-05
1.14569e-05
-2.00796e-05
4.81595e-06
-1.90392e-05
1.09442e-05
-1.1762e-05
7.19547e-06
-3.5729e-06
-1.10388e-05
-3.58379e-06
-1.41357e-05
-1.11278e-06
-2.55068e-05
3.73948e-05
6.60714e-06
-1.955e-05
1.14956e-05
-1.31743e-05
7.23461e-06
-1.35467e-06
-2.30903e-06
5.87326e-06
-1.14691e-05
9.7889e-06
-1.80527e-05
1.54874e-05
-2.67814e-05
1.84763e-05
-3.70056e-05
1.81195e-05
-4.5573e-05
1.81865e-05
-5.14359e-05
1.96814e-05
-5.62356e-05
1.965e-05
-6.01868e-05
1.69385e-05
-6.27706e-05
1.24296e-05
-6.39496e-05
7.17497e-06
-6.43315e-05
2.09935e-06
-6.44063e-05
-2.52729e-06
-6.49777e-05
-5.31944e-06
-6.7013e-05
-5.38187e-06
-7.00707e-05
-3.18405e-06
-7.03464e-05
-6.15282e-06
-6.8427e-05
-9.67508e-06
-6.54826e-05
-1.39317e-05
-1.50799e-05
-6.85731e-05
-8.88957e-06
-1.06605e-05
-8.02697e-06
-1.40369e-05
-7.10481e-06
-2.27682e-06
-5.84505e-06
4.61351e-06
-6.43366e-06
1.03775e-05
-8.71834e-06
1.77721e-05
-1.41086e-05
2.38665e-05
-2.28288e-05
2.68397e-05
-3.15992e-05
2.69569e-05
-3.81951e-05
2.62773e-05
-4.40942e-05
2.55491e-05
-4.99742e-05
2.28185e-05
-5.60411e-05
1.84964e-05
-6.2148e-05
1.3282e-05
-6.70935e-05
7.04477e-06
-7.1083e-05
1.46225e-06
-7.51812e-05
-1.22126e-06
-7.90256e-05
-1.5374e-06
-7.97013e-05
-2.50834e-06
-7.78853e-05
-7.96884e-06
-7.51298e-05
-1.24305e-05
-7.42469e-05
-1.48147e-05
-1.51302e-05
-7.41966e-05
7.38643e-06
-1.80469e-05
8.34566e-06
-1.49961e-05
1.14423e-05
-5.37346e-06
1.34338e-05
2.62202e-06
1.18744e-05
1.19369e-05
8.25965e-06
2.13868e-05
3.34745e-06
2.87787e-05
-3.78498e-06
3.39721e-05
-1.26651e-05
3.5837e-05
-2.1094e-05
3.47062e-05
-2.91929e-05
3.3648e-05
-3.89586e-05
3.25842e-05
-5.14404e-05
3.09783e-05
-6.42292e-05
2.60708e-05
-7.36325e-05
1.6448e-05
-7.91794e-05
7.00924e-06
-8.21953e-05
1.79456e-06
-8.17867e-05
-1.94597e-06
-7.74255e-05
-6.86949e-06
-7.31433e-05
-1.22511e-05
-7.11386e-05
-1.44352e-05
-7.12628e-05
-1.46905e-05
-1.58864e-05
-7.05065e-05
3.19791e-05
-5.0026e-05
4.0527e-05
-2.35441e-05
4.28535e-05
-7.69993e-06
3.98087e-05
5.6668e-06
3.48798e-05
1.68658e-05
2.87796e-05
2.7487e-05
2.17241e-05
3.58342e-05
1.25936e-05
4.31027e-05
2.47321e-06
4.59573e-05
-6.14672e-06
4.33261e-05
-1.35135e-05
4.10148e-05
-2.22182e-05
4.12889e-05
-3.36906e-05
4.24507e-05
-4.61252e-05
3.85054e-05
-5.8596e-05
2.89189e-05
-6.89679e-05
1.73811e-05
-7.45131e-05
7.33981e-06
-7.40367e-05
-2.42238e-06
-6.95971e-05
-1.13091e-05
-6.56293e-05
-1.62188e-05
-6.40631e-05
-1.60014e-05
-6.33079e-05
-1.54457e-05
-1.66709e-05
-6.25234e-05
3.29382e-05
-8.29642e-05
4.61874e-05
-3.67932e-05
5.15118e-05
-1.30242e-05
5.5412e-05
1.76654e-06
5.27614e-05
1.95164e-05
4.6596e-05
3.36524e-05
3.91638e-05
4.32665e-05
2.63509e-05
5.59156e-05
1.14716e-05
6.08366e-05
-5.33992e-07
5.53318e-05
-9.64095e-06
5.01217e-05
-1.69922e-05
4.86401e-05
-2.19152e-05
4.73737e-05
-2.63587e-05
4.29489e-05
-3.3142e-05
3.57022e-05
-4.32158e-05
2.74549e-05
-5.27317e-05
1.68557e-05
-5.79119e-05
2.75777e-06
-5.8693e-05
-1.0528e-05
-5.76676e-05
-1.72442e-05
-5.5769e-05
-1.79e-05
-5.26858e-05
-1.85289e-05
-1.87159e-05
-5.06408e-05
2.79661e-05
-0.00011093
4.41743e-05
-5.30014e-05
5.49388e-05
-2.37887e-05
5.77025e-05
-9.97185e-07
5.2206e-05
2.5013e-05
3.63664e-05
4.94921e-05
2.20068e-05
5.76261e-05
6.2765e-06
7.16459e-05
-9.68239e-06
7.67955e-05
-1.88923e-05
6.45417e-05
-2.24268e-05
5.36562e-05
-2.36579e-05
4.98712e-05
-2.37095e-05
4.74253e-05
-2.36734e-05
4.29127e-05
-2.4734e-05
3.67628e-05
-2.6288e-05
2.90088e-05
-2.86324e-05
1.92002e-05
-3.34867e-05
7.61209e-06
-3.96523e-05
-4.36248e-06
-4.44321e-05
-1.24644e-05
-4.50034e-05
-1.73287e-05
-4.41971e-05
-1.93352e-05
-1.95751e-05
-4.33379e-05
-6.72249e-06
-0.000104208
-9.50208e-06
-5.02219e-05
-2.22059e-05
-1.10849e-05
-3.13118e-05
8.10877e-06
-3.14486e-05
2.51496e-05
-3.03749e-05
4.84184e-05
-3.58347e-05
6.30859e-05
-4.27399e-05
7.85512e-05
-4.54548e-05
7.95104e-05
-4.51907e-05
6.42776e-05
-4.44029e-05
5.28684e-05
-4.15569e-05
4.70252e-05
-3.77879e-05
4.36563e-05
-3.44794e-05
3.96043e-05
-3.17574e-05
3.40408e-05
-2.93987e-05
2.66501e-05
-2.76771e-05
1.74786e-05
-2.79954e-05
7.93045e-06
-3.11457e-05
-1.21215e-06
-3.42435e-05
-9.36658e-06
-3.57211e-05
-1.58511e-05
-3.61211e-05
-1.89352e-05
-1.97012e-05
-3.59949e-05
-7.65798e-05
-2.76279e-05
-0.000127138
3.36273e-07
-0.000148096
9.87327e-06
-0.000154715
1.47273e-05
-0.000155046
2.5481e-05
-0.00014824
4.16125e-05
-0.000138465
5.33111e-05
-0.00012058
6.06661e-05
-9.93307e-05
5.82608e-05
-8.4535e-05
4.94819e-05
-7.46142e-05
4.29476e-05
-6.69721e-05
3.93831e-05
-5.98684e-05
3.65526e-05
-5.3286e-05
3.30218e-05
-4.72475e-05
2.80023e-05
-4.16847e-05
2.10872e-05
-3.71414e-05
1.29354e-05
-3.39932e-05
4.78229e-06
-3.26892e-05
-2.51617e-06
-3.28882e-05
-9.16751e-06
-3.31194e-05
-1.562e-05
-3.21002e-05
-1.99544e-05
-1.94839e-05
-3.23174e-05
-9.06538e-05
6.30259e-05
-0.000147429
5.71113e-05
-0.000183832
4.62765e-05
-0.000202849
3.37445e-05
-0.000205296
2.79281e-05
-0.000193796
3.01126e-05
-0.00017509
3.46046e-05
-0.000152704
3.82808e-05
-0.000132956
3.85126e-05
-0.000118382
3.49077e-05
-0.000106684
3.12494e-05
-9.58889e-05
2.85885e-05
-8.52709e-05
2.59345e-05
-7.52252e-05
2.29762e-05
-6.6113e-05
1.88901e-05
-5.77277e-05
1.27019e-05
-5.0742e-05
5.94964e-06
-4.56866e-05
-2.73127e-07
-4.19291e-05
-6.27368e-06
-4.03608e-05
-1.07358e-05
-3.79221e-05
-1.80587e-05
-2.98853e-05
-2.79911e-05
-2.11766e-05
-2.81927e-05
-7.3813e-05
0.000136839
-0.000134082
0.00011738
-0.000188315
0.00010051
-0.000218312
6.37413e-05
-0.000220338
2.99536e-05
-0.000211617
2.13919e-05
-0.000198328
2.13158e-05
-0.00018255
2.25029e-05
-0.000167303
2.3265e-05
-0.00015245
2.00546e-05
-0.00013796
1.67596e-05
-0.000124083
1.47122e-05
-0.000110151
1.20025e-05
-9.71743e-05
9.99902e-06
-8.6704e-05
8.41977e-06
-7.72065e-05
3.20446e-06
-6.93484e-05
-1.9085e-06
-6.43489e-05
-5.27264e-06
-5.61461e-05
-1.44762e-05
-4.9078e-05
-1.78037e-05
-4.28368e-05
-2.42994e-05
-6.68324e-06
-6.41443e-05
-4.70316e-05
1.91727e-05
-4.33975e-05
0.000180236
-8.15792e-05
0.000155562
-0.000167779
0.00018671
-0.000218623
0.000114585
-0.000224263
3.55914e-05
-0.00021993
1.70564e-05
-0.00021315
1.45353e-05
-0.000200001
9.3529e-06
-0.000184911
8.17357e-06
-0.000170655
5.79789e-06
-0.000156032
2.137e-06
-0.000142039
7.19132e-07
-0.000127262
-2.77272e-06
-0.000110717
-6.54548e-06
-9.47391e-05
-7.55644e-06
-7.54056e-05
-1.61271e-05
-4.06982e-05
-3.66157e-05
-1.19833e-05
-3.39874e-05
-1.07962e-05
-1.56628e-05
-2.19003e-05
-6.6992e-06
-3.4444e-05
-1.17553e-05
-6.47006e-05
-3.38867e-05
-3.30051e-05
-7.8726e-05
-2.02416e-05
0.000200478
-1.0182e-05
0.000145502
-7.4846e-05
0.000251373
-0.000128816
0.000168554
-0.000166045
7.28205e-05
-0.000191942
4.29521e-05
-0.000201112
2.37039e-05
-0.000199382
7.6223e-06
-0.000192669
1.46083e-06
-0.000183636
-3.23549e-06
-0.000172568
-8.92944e-06
-0.000168215
-3.63392e-06
-0.000161425
-9.56355e-06
-0.000152991
-1.49791e-05
-0.000147518
-1.30293e-05
-0.000137874
-2.57712e-05
-0.000134654
-3.98348e-05
-0.000132236
-3.64051e-05
-0.000124092
-2.38062e-05
-0.000111831
-1.89597e-05
-9.95315e-05
-2.40547e-05
-0.000101868
-3.15499e-05
-2.88116e-05
-0.00010606
-8.41802e-06
0.000208896
-1.14919e-05
0.000148574
-2.52577e-05
0.000265137
-7.14808e-05
0.000214777
-0.000113801
0.000115141
-0.000142959
7.21112e-05
-0.000159514
4.02581e-05
-0.000167294
1.54017e-05
-0.00016428
-1.55177e-06
-0.000154692
-1.28241e-05
-0.000145015
-1.86055e-05
-0.000127754
-2.08942e-05
-0.000114088
-2.32324e-05
-0.000104162
-2.49058e-05
-9.1106e-05
-2.60853e-05
-8.62124e-05
-3.06665e-05
-8.98271e-05
-3.62198e-05
-9.13568e-05
-3.4875e-05
-8.63781e-05
-2.87846e-05
-7.99663e-05
-2.53713e-05
-7.43413e-05
-2.96795e-05
-7.14253e-05
-3.44651e-05
-3.32306e-05
-6.70057e-05
-8.50065e-07
0.000209746
3.672e-07
0.000147352
-1.28752e-05
0.000278379
-3.65154e-05
0.000238421
-6.65438e-05
0.000145169
-8.42313e-05
8.97978e-05
-8.59592e-05
4.19851e-05
-7.77612e-05
7.20268e-06
-6.78424e-05
-1.14715e-05
-6.2103e-05
-1.85642e-05
-5.80596e-05
-2.26493e-05
-5.47171e-05
-2.4237e-05
-5.22236e-05
-2.5726e-05
-5.0716e-05
-2.64133e-05
-5.00437e-05
-2.67575e-05
-5.0689e-05
-3.00209e-05
-5.25408e-05
-3.43678e-05
-5.24296e-05
-3.49861e-05
-4.88131e-05
-3.2401e-05
-4.45149e-05
-2.96696e-05
-4.27696e-05
-3.14246e-05
-4.41741e-05
-3.30608e-05
-3.34613e-05
-4.39424e-05
-3.83504e-06
0.000213581
-7.95132e-06
0.000151468
-1.73155e-05
0.000287742
-2.1534e-05
0.000242639
-3.88305e-05
0.000162465
-4.14418e-05
9.24083e-05
-3.3466e-05
3.40084e-05
-2.6226e-05
-3.80068e-08
-1.80072e-05
-1.96909e-05
-1.05539e-05
-2.60181e-05
-5.37315e-06
-2.78305e-05
-1.93854e-06
-2.76719e-05
-3.46571e-07
-2.73183e-05
-1.10206e-06
-2.56581e-05
-3.59286e-06
-2.42669e-05
-7.85263e-06
-2.57613e-05
-1.35853e-05
-2.86353e-05
-1.80266e-05
-3.05449e-05
-1.93819e-05
-3.10459e-05
-1.83459e-05
-3.07059e-05
-1.78864e-05
-3.18843e-05
-1.87257e-05
-3.2221e-05
-3.22753e-05
-1.99112e-05
-1.12604e-05
0.000224841
-1.08844e-05
0.000151093
-4.33631e-06
0.000281194
-1.36548e-05
0.000251956
-1.8508e-05
0.000167318
-1.11013e-05
8.50012e-05
-1.54133e-06
2.4448e-05
6.92054e-06
-8.50023e-06
1.24292e-05
-2.51999e-05
1.717e-05
-3.07593e-05
2.03671e-05
-3.10279e-05
2.23823e-05
-2.96875e-05
2.33181e-05
-2.82544e-05
2.33992e-05
-2.57396e-05
2.22568e-05
-2.31249e-05
1.95209e-05
-2.30257e-05
1.52722e-05
-2.43869e-05
1.07209e-05
-2.59939e-05
7.04061e-06
-2.7366e-05
4.83344e-06
-2.84991e-05
2.76104e-06
-2.98121e-05
1.29853e-06
-3.0759e-05
-3.12306e-05
2.5452e-07
-1.53943e-05
0.000240235
-9.82692e-06
0.000145525
-4.57365e-06
0.000275941
-1.20641e-05
0.000259447
-3.56728e-06
0.000158821
1.07229e-05
7.0711e-05
1.96317e-05
1.55392e-05
2.68685e-05
-1.57371e-05
3.11029e-05
-2.94344e-05
3.35472e-05
-3.32037e-05
3.48206e-05
-3.23016e-05
3.51105e-05
-2.99776e-05
3.45213e-05
-2.76656e-05
3.37439e-05
-2.49625e-05
3.31317e-05
-2.2513e-05
3.16565e-05
-2.15508e-05
2.91872e-05
-2.19179e-05
2.61743e-05
-2.29812e-05
2.31442e-05
-2.43362e-05
2.04388e-05
-2.57942e-05
1.79428e-05
-2.73164e-05
1.58847e-05
-2.87008e-05
-2.97522e-05
1.44065e-05
-1.5844e-05
0.000256078
-3.9589e-05
0.00016927
-1.8693e-05
0.000255046
-1.06892e-05
0.000251444
1.18034e-05
0.000136329
2.74924e-05
5.50223e-05
3.67991e-05
6.23267e-06
4.13185e-05
-2.02565e-05
4.27019e-05
-3.08177e-05
4.236e-05
-3.28619e-05
4.12959e-05
-3.12376e-05
3.99492e-05
-2.86311e-05
3.84155e-05
-2.6132e-05
3.71905e-05
-2.37377e-05
3.63369e-05
-2.16597e-05
3.52737e-05
-2.04879e-05
3.37191e-05
-2.03637e-05
3.17692e-05
-2.10316e-05
2.96463e-05
-2.22136e-05
2.75356e-05
-2.36839e-05
2.54964e-05
-2.52774e-05
2.36218e-05
-2.68268e-05
-2.81818e-05
2.20517e-05
-2.7055e-05
0.000283134
-6.67738e-05
0.000208987
-4.33116e-05
0.000231585
-5.07509e-06
0.000213209
2.40199e-05
0.000107234
4.04027e-05
3.86399e-05
4.82458e-05
-1.61014e-06
4.98349e-05
-2.18454e-05
4.8222e-05
-2.92047e-05
4.53551e-05
-2.99949e-05
4.24185e-05
-2.83011e-05
3.99123e-05
-2.6125e-05
3.78584e-05
-2.40782e-05
3.62905e-05
-2.21699e-05
3.51689e-05
-2.05383e-05
3.41976e-05
-1.95168e-05
3.3136e-05
-1.93023e-05
3.19227e-05
-1.98185e-05
3.05828e-05
-2.0874e-05
2.91617e-05
-2.2263e-05
2.76912e-05
-2.38073e-05
2.62165e-05
-2.53521e-05
-2.67785e-05
2.48132e-05
-2.66134e-05
0.000309747
-5.89601e-05
0.000241334
-4.0072e-05
0.000212697
7.61328e-06
0.000165524
3.56849e-05
7.91628e-05
4.97602e-05
2.4565e-05
5.43742e-05
-6.22374e-06
5.30797e-05
-2.05507e-05
4.90536e-05
-2.51784e-05
4.44445e-05
-2.53857e-05
4.03802e-05
-2.42367e-05
3.71816e-05
-2.29264e-05
3.47691e-05
-2.16658e-05
3.30288e-05
-2.04296e-05
3.18362e-05
-1.93458e-05
3.09968e-05
-1.86775e-05
3.03008e-05
-1.86064e-05
2.96069e-05
-1.91248e-05
2.88393e-05
-2.01065e-05
2.79627e-05
-2.13868e-05
2.69674e-05
-2.28123e-05
2.58691e-05
-2.42542e-05
-2.56193e-05
2.471e-05
-1.92424e-05
0.00032899
-4.39617e-05
0.000266054
-2.29973e-05
0.000191732
2.12079e-05
0.000121319
4.48261e-05
5.55448e-05
5.50715e-05
1.43199e-05
5.62831e-05
-7.43508e-06
5.24674e-05
-1.67346e-05
4.68736e-05
-1.95845e-05
4.14587e-05
-1.99706e-05
3.70225e-05
-1.98005e-05
3.36419e-05
-1.95457e-05
3.11495e-05
-1.91733e-05
2.93993e-05
-1.86795e-05
2.82579e-05
-1.82044e-05
2.75589e-05
-1.79786e-05
2.70984e-05
-1.81459e-05
2.67098e-05
-1.87363e-05
2.62733e-05
-1.96702e-05
2.57206e-05
-2.08342e-05
2.50227e-05
-2.21147e-05
2.41819e-05
-2.34135e-05
-2.46611e-05
2.32236e-05
-1.71761e-06
0.000330709
-1.80532e-05
0.000282389
-1.44012e-07
0.000173821
3.31874e-05
8.79878e-05
5.15671e-05
3.71652e-05
5.73876e-05
8.49973e-06
5.53309e-05
-5.37809e-06
4.96965e-05
-1.11e-05
4.34131e-05
-1.33009e-05
3.79524e-05
-1.45098e-05
3.36728e-05
-1.55207e-05
3.04572e-05
-1.63301e-05
2.81027e-05
-1.68188e-05
2.64652e-05
-1.70419e-05
2.54163e-05
-1.71555e-05
2.47948e-05
-1.73572e-05
2.44193e-05
-1.77705e-05
2.41263e-05
-1.84433e-05
2.37992e-05
-1.93432e-05
2.3365e-05
-2.04002e-05
2.27915e-05
-2.15414e-05
2.20753e-05
-2.26974e-05
-2.38204e-05
2.12344e-05
5.12291e-06
0.000325587
8.26729e-06
0.000279245
2.68806e-05
0.000155208
4.78268e-05
6.70415e-05
5.76501e-05
2.73419e-05
5.79713e-05
8.17884e-06
5.29735e-05
-3.80023e-07
4.61322e-05
-4.25855e-06
3.98627e-05
-7.03118e-06
3.48e-05
-9.44694e-06
3.09324e-05
-1.1653e-05
2.80344e-05
-1.34321e-05
2.59233e-05
-1.47076e-05
2.44379e-05
-1.55565e-05
2.34589e-05
-1.61765e-05
2.28344e-05
-1.67328e-05
2.24195e-05
-1.73556e-05
2.20769e-05
-1.81008e-05
2.17095e-05
-1.89758e-05
2.12568e-05
-1.99476e-05
2.06903e-05
-2.0975e-05
2.00052e-05
-2.20125e-05
-2.30279e-05
1.92126e-05
8.53724e-06
0.00031705
2.16124e-05
0.000266171
4.88092e-05
0.000128011
6.06954e-05
5.51554e-05
6.20676e-05
2.59701e-05
5.7211e-05
1.30357e-05
4.97065e-05
7.1248e-06
4.25291e-05
2.91907e-06
3.66255e-05
-1.12736e-06
3.21171e-05
-4.93841e-06
2.87429e-05
-8.27862e-06
2.6223e-05
-1.09121e-05
2.43674e-05
-1.28519e-05
2.30324e-05
-1.42215e-05
2.20904e-05
-1.52345e-05
2.14246e-05
-1.6067e-05
2.09157e-05
-1.68467e-05
2.0465e-05
-1.76501e-05
1.9997e-05
-1.85079e-05
1.94692e-05
-1.942e-05
1.88575e-05
-2.03634e-05
1.8157e-05
-2.13121e-05
-2.22438e-05
1.73729e-05
1.45049e-05
0.000302546
4.61606e-05
0.000234516
7.02455e-05
0.000103927
7.17907e-05
5.36114e-05
6.46236e-05
3.31383e-05
5.50399e-05
2.26198e-05
4.59825e-05
1.61825e-05
3.88363e-05
1.00655e-05
3.35185e-05
4.1906e-06
2.96358e-05
-1.05559e-06
2.67635e-05
-5.40619e-06
2.46226e-05
-8.77107e-06
2.30395e-05
-1.12688e-05
2.18546e-05
-1.30365e-05
2.09626e-05
-1.43425e-05
2.02702e-05
-1.53745e-05
1.96822e-05
-1.62588e-05
1.9133e-05
-1.71009e-05
1.85738e-05
-1.79487e-05
1.79709e-05
-1.88172e-05
1.73091e-05
-1.97016e-05
1.65824e-05
-2.05856e-05
-2.14544e-05
1.5793e-05
3.25057e-05
0.000270039
7.96861e-05
0.000187335
8.48172e-05
9.87982e-05
7.48664e-05
6.35643e-05
6.23346e-05
4.5671e-05
5.03793e-05
3.45757e-05
4.13241e-05
2.52381e-05
3.4821e-05
1.65688e-05
3.02358e-05
8.77599e-06
2.69896e-05
2.19074e-06
2.46438e-05
-3.06026e-06
2.29211e-05
-7.04826e-06
2.16154e-05
-9.96304e-06
2.06242e-05
-1.20453e-05
1.98357e-05
-1.3554e-05
1.91667e-05
-1.47055e-05
1.8561e-05
-1.5653e-05
1.79672e-05
-1.65072e-05
1.73544e-05
-1.73359e-05
1.67031e-05
-1.81659e-05
1.60042e-05
-1.90029e-05
1.52558e-05
-1.98371e-05
-2.06563e-05
1.44575e-05
5.99996e-05
0.000210037
8.99132e-05
0.000157422
8.11759e-05
0.000107538
6.69562e-05
7.7785e-05
5.35083e-05
5.91196e-05
4.30795e-05
4.5005e-05
3.55424e-05
3.27755e-05
3.02222e-05
2.18893e-05
2.653e-05
1.24683e-05
2.397e-05
4.75083e-06
2.21957e-05
-1.2858e-06
2.09277e-05
-5.78024e-06
1.99714e-05
-9.00664e-06
1.92362e-05
-1.13101e-05
1.86123e-05
-1.29301e-05
1.80423e-05
-1.41355e-05
1.74783e-05
-1.50891e-05
1.68947e-05
-1.59235e-05
1.62703e-05
-1.67115e-05
1.55993e-05
-1.74949e-05
1.48819e-05
-1.82855e-05
1.41197e-05
-1.90751e-05
-1.98517e-05
1.33151e-05
5.12549e-05
0.000158783
6.44679e-05
0.000144211
5.96806e-05
0.000112326
5.05345e-05
8.69316e-05
4.17561e-05
6.78985e-05
3.46236e-05
5.21378e-05
2.91738e-05
3.82257e-05
2.5205e-05
2.58583e-05
2.24542e-05
1.52193e-05
2.06257e-05
6.57942e-06
1.94132e-05
-7.31933e-08
1.86431e-05
-5.01009e-06
1.81065e-05
-8.46995e-06
1.76867e-05
-1.08903e-05
1.72995e-05
-1.25428e-05
1.68884e-05
-1.37244e-05
1.64239e-05
-1.46245e-05
1.58893e-05
-1.53889e-05
1.52844e-05
-1.61067e-05
1.46149e-05
-1.68254e-05
1.38894e-05
-1.75601e-05
1.31189e-05
-1.83045e-05
-1.90413e-05
1.23084e-05
2.38702e-05
0.000134914
3.58771e-05
0.000132204
3.817e-05
0.000110033
3.52654e-05
8.98365e-05
3.09105e-05
7.22537e-05
2.66468e-05
5.64017e-05
2.30088e-05
4.18639e-05
2.02051e-05
2.86621e-05
1.82763e-05
1.71482e-05
1.71064e-05
7.74947e-06
1.64953e-05
5.37954e-07
1.62345e-05
-4.74917e-06
1.61499e-05
-8.38536e-06
1.60881e-05
-1.08284e-05
1.59759e-05
-1.24306e-05
1.57586e-05
-1.35071e-05
1.54182e-05
-1.4284e-05
1.49565e-05
-1.49272e-05
1.4386e-05
-1.55362e-05
1.37266e-05
-1.61659e-05
1.29975e-05
-1.68311e-05
1.22182e-05
-1.75254e-05
-1.82234e-05
1.14004e-05
1.06854e-05
0.000124229
2.08979e-05
0.000121991
2.45536e-05
0.000106377
2.4385e-05
9.00052e-05
2.25588e-05
7.40801e-05
2.01777e-05
5.8783e-05
1.78154e-05
4.42263e-05
1.58534e-05
3.06243e-05
1.45186e-05
1.8483e-05
1.38542e-05
8.41404e-06
1.3746e-05
6.46217e-07
1.39613e-05
-4.96449e-06
1.42968e-05
-8.72083e-06
1.45993e-05
-1.11309e-05
1.47654e-05
-1.25966e-05
1.47384e-05
-1.348e-05
1.45185e-05
-1.40641e-05
1.41229e-05
-1.45316e-05
1.35818e-05
-1.49951e-05
1.29269e-05
-1.5511e-05
1.21901e-05
-1.60944e-05
1.13979e-05
-1.67331e-05
-1.73927e-05
1.0567e-05
6.97664e-06
0.000117252
1.36442e-05
0.000115324
1.67521e-05
0.000103269
1.75465e-05
8.92108e-05
1.70059e-05
7.46208e-05
1.57617e-05
6.00272e-05
1.42656e-05
4.57225e-05
1.29021e-05
3.19878e-05
1.19565e-05
1.94287e-05
1.15755e-05
8.79517e-06
1.17553e-05
4.66466e-07
1.22761e-05
-5.48528e-06
1.29213e-05
-9.36597e-06
1.34869e-05
-1.16964e-05
1.38427e-05
-1.29525e-05
1.39435e-05
-1.35807e-05
1.37937e-05
-1.39143e-05
1.34271e-05
-1.4165e-05
1.28874e-05
-1.44554e-05
1.22183e-05
-1.48418e-05
1.14605e-05
-1.53366e-05
1.0645e-05
-1.59178e-05
-1.65425e-05
9.7948e-06
4.98524e-06
0.000112266
9.77229e-06
0.000110536
1.25786e-05
0.000100463
1.38507e-05
8.79387e-05
1.40465e-05
7.44249e-05
1.35579e-05
6.05158e-05
1.27282e-05
4.65523e-05
1.18676e-05
3.28485e-05
1.12293e-05
2.0067e-05
1.09917e-05
9.03277e-06
1.12092e-05
2.49056e-07
1.17629e-05
-6.03889e-06
1.24481e-05
-1.00511e-05
1.30371e-05
-1.22853e-05
1.34009e-05
-1.33162e-05
1.34867e-05
-1.36665e-05
1.3305e-05
-1.37326e-05
1.28968e-05
-1.37567e-05
1.23126e-05
-1.38712e-05
1.15999e-05
-1.41291e-05
1.08007e-05
-1.45375e-05
9.95008e-06
-1.5067e-05
-1.56638e-05
9.07122e-06
4.29743e-06
0.000107969
8.28002e-06
0.000106554
1.09805e-05
9.77624e-05
1.25613e-05
8.63579e-05
1.32621e-05
7.37242e-05
1.33507e-05
6.04272e-05
1.30808e-05
4.68223e-05
1.26648e-05
3.32645e-05
1.22914e-05
2.04404e-05
1.21267e-05
9.19755e-06
1.22163e-05
1.59583e-07
1.25499e-05
-6.37249e-06
1.29802e-05
-1.04813e-05
1.33321e-05
-1.26372e-05
1.34849e-05
-1.3469e-05
1.3392e-05
-1.35736e-05
1.30599e-05
-1.34004e-05
1.25284e-05
-1.32251e-05
1.18448e-05
-1.31875e-05
1.10548e-05
-1.33391e-05
1.01948e-05
-1.36773e-05
9.29696e-06
-1.41694e-05
-1.47508e-05
8.3841e-06
4.39095e-06
0.000103578
8.28812e-06
0.000102657
1.11093e-05
9.49412e-05
1.29734e-05
8.44938e-05
1.40718e-05
7.26257e-05
1.46154e-05
5.98837e-05
1.47824e-05
4.66554e-05
1.47022e-05
3.33448e-05
1.45051e-05
2.06376e-05
1.43298e-05
9.37292e-06
1.42211e-05
2.68363e-07
1.42037e-05
-6.35504e-06
1.42235e-05
-1.0501e-05
1.41713e-05
-1.2585e-05
1.39639e-05
-1.32615e-05
1.35667e-05
-1.31763e-05
1.29887e-05
-1.28223e-05
1.22673e-05
-1.25036e-05
1.1444e-05
-1.23642e-05
1.05518e-05
-1.24469e-05
9.6183e-06
-1.27438e-05
8.66712e-06
-1.32179e-05
-1.38009e-05
7.71709e-06
4.90597e-06
9.86718e-05
9.13772e-06
9.84248e-05
1.22482e-05
9.18308e-05
1.43956e-05
8.23464e-05
1.58016e-05
7.12198e-05
1.66684e-05
5.9017e-05
1.71163e-05
4.62076e-05
1.72338e-05
3.32273e-05
1.71235e-05
2.0748e-05
1.68818e-05
9.61462e-06
1.65539e-05
5.96401e-07
1.61724e-05
-5.97342e-06
1.57421e-05
-1.00706e-05
1.52231e-05
-1.20659e-05
1.45831e-05
-1.26214e-05
1.38196e-05
-1.24126e-05
1.29535e-05
-1.19561e-05
1.20172e-05
-1.15673e-05
1.10405e-05
-1.13874e-05
1.00418e-05
-1.1448e-05
9.0355e-06
-1.17374e-05
8.0345e-06
-1.22171e-05
-1.28191e-05
7.05284e-06
5.65123e-06
9.30206e-05
1.03858e-05
9.36904e-05
1.38208e-05
8.83959e-05
1.61907e-05
7.99767e-05
1.77797e-05
6.96308e-05
1.88171e-05
5.79797e-05
1.93948e-05
4.56299e-05
1.96024e-05
3.30198e-05
1.95304e-05
2.08201e-05
1.92174e-05
9.92767e-06
1.86933e-05
1.12065e-06
1.79806e-05
-5.2606e-06
1.71088e-05
-9.19879e-06
1.61137e-05
-1.10707e-05
1.50346e-05
-1.15422e-05
1.39084e-05
-1.12863e-05
1.27718e-05
-1.08193e-05
1.16475e-05
-1.04429e-05
1.05444e-05
-1.02842e-05
9.46464e-06
-1.03681e-05
8.40596e-06
-1.06787e-05
7.37192e-06
-1.11827e-05
-1.18178e-05
6.37058e-06
6.49593e-06
8.65249e-05
1.16746e-05
8.85118e-05
1.53341e-05
8.47365e-05
1.77896e-05
7.75213e-05
1.94045e-05
6.8016e-05
2.04475e-05
5.69368e-05
2.10482e-05
4.50293e-05
2.13146e-05
3.27535e-05
2.1284e-05
2.08507e-05
2.09299e-05
1.02819e-05
2.02355e-05
1.81511e-06
1.91971e-05
-4.22213e-06
1.79035e-05
-7.90505e-06
1.64605e-05
-9.62752e-06
1.49855e-05
-1.00671e-05
1.35681e-05
-9.86886e-06
1.22454e-05
-9.49656e-06
1.10167e-05
-9.21408e-06
9.8622e-06
-9.12953e-06
8.75838e-06
-9.2642e-06
7.6893e-06
-9.60935e-06