/*--------------------------------*- C++ -*----------------------------------*\
| =========                 |                                                 |
| \\      /  F ield         | OpenFOAM: The Open Source CFD Toolbox           |
|  \\    /   O peration     | Version:  2312                                  |
|   \\  /    A nd           | Website:  www.openfoam.com                      |
|    \\/     M anipulation  |                                                 |
\*---------------------------------------------------------------------------*/
FoamFile
{
    version     2.0;
    format      ascii;
    arch        "LSB;label=32;scalar=64";
    class       volVectorField;
    location    "2.15";
    object      U;
}
// * * * * * * * * * * * * * * * * * * * * * * * * * * * * * * * * * * * * * //

dimensions      [0 1 -1 0 0 0 0];

internalField   nonuniform List<vector> 
2268
(
(0.0278843 -0.0133121 0)
(0.0503693 -0.00333382 0)
(0.0555276 -0.000385708 0)
(0.0584034 0.000595492 0)
(0.0577723 0.000777733 0)
(0.0558621 0.000963782 0)
(0.0525241 0.000984052 0)
(0.0484298 0.000973631 0)
(0.0438992 0.00114087 0)
(0.0384626 0.00157771 0)
(0.0314897 0.00190463 0)
(0.0236667 0.00185015 0)
(0.0159871 0.0016162 0)
(0.00932519 0.00129711 0)
(0.00451375 0.000815696 0)
(0.0015921 0.000374566 0)
(0.000609122 5.67014e-05 0)
(0.000789598 -0.000186626 0)
(0.00155544 -0.000125858 0)
(0.00155978 -3.87209e-05 0)
(0.00102215 1.91642e-06 0)
(-0.00166771 -6.02326e-05 0)
(-0.00288285 -0.000918014 0)
(0.0120369 -0.0266396 0)
(0.037777 -0.00913381 0)
(0.0444794 -0.00419955 0)
(0.051328 -0.00128742 0)
(0.052601 0.000531251 0)
(0.0516212 0.0019854 0)
(0.0485921 0.00286895 0)
(0.0447577 0.00317522 0)
(0.0405932 0.00330142 0)
(0.035475 0.00399034 0)
(0.0286115 0.00485885 0)
(0.0208613 0.00541799 0)
(0.0132661 0.00514489 0)
(0.00657706 0.00435678 0)
(0.00172246 0.0030133 0)
(-0.00117803 0.00151817 0)
(-0.00193388 0.000334674 0)
(-0.00138445 -0.000271269 0)
(-0.000373009 -0.000347373 0)
(-0.000389266 0.000404348 0)
(-0.00106126 0.00150506 0)
(-0.00396598 0.00219719 0)
(-0.00567214 -0.00163701 0)
(0.00404678 -0.0371589 0)
(0.0275796 -0.0165801 0)
(0.0351627 -0.00802044 0)
(0.0437505 -0.00290166 0)
(0.0462221 0.000806282 0)
(0.046093 0.00355266 0)
(0.0435656 0.00473483 0)
(0.040219 0.00503196 0)
(0.0368916 0.0055777 0)
(0.0328289 0.00794147 0)
(0.0267814 0.009405 0)
(0.0192577 0.00950638 0)
(0.0114673 0.00839594 0)
(0.00456782 0.00658187 0)
(-0.000460379 0.00414085 0)
(-0.00323136 0.00170363 0)
(-0.00336291 0.000116386 0)
(-0.00194894 -0.000722467 0)
(9.79334e-05 -0.00031883 0)
(0.00106172 0.000167478 0)
(0.000809474 0.00130853 0)
(-0.00282942 0.00184094 0)
(-0.00337538 -0.00490964 0)
(-1.04876e-05 -0.0425927 0)
(0.0200088 -0.0231733 0)
(0.0280126 -0.0129243 0)
(0.0379743 -0.00632017 0)
(0.0416746 -0.00104713 0)
(0.0420537 0.00354252 0)
(0.0400369 0.00587158 0)
(0.0378282 0.00620305 0)
(0.036371 0.00586427 0)
(0.0331552 0.00762446 0)
(0.0263969 0.0101223 0)
(0.0182257 0.012219 0)
(0.0100751 0.0125123 0)
(0.00290627 0.0112718 0)
(-0.00199567 0.0079771 0)
(-0.0037363 0.00392359 0)
(-0.00249131 0.000124568 0)
(0.000931736 -0.00211205 0)
(0.00463227 -0.00182782 0)
(0.00638406 0.000762404 0)
(0.00582944 0.00393278 0)
(0.000816487 0.00500527 0)
(0.00169231 -0.00728469 0)
(0.00128347 -0.046877 0)
(0.0196517 -0.028907 0)
(0.0263073 -0.0173583 0)
(0.0360149 -0.00808559 0)
(0.0404518 -0.000945438 0)
(0.0413692 0.00471983 0)
(0.0391406 0.0070797 0)
(0.0364737 0.00671621 0)
(0.0348823 0.00807319 0)
(0.0324983 0.0146993 0)
(0.0263443 0.0183618 0)
(0.0160899 0.0175243 0)
(0.00436977 0.0139067 0)
(-0.00504116 0.00974687 0)
(-0.0106996 0.00482013 0)
(-0.0120548 6.96132e-05 0)
(-0.00932684 -0.00433394 0)
(-0.00260611 -0.00560066 0)
(0.00563122 -0.00436619 0)
(0.0116252 -0.00127959 0)
(0.0112689 0.00318374 0)
(-0.00049331 0.00392032 0)
(0.000979792 -0.000386962 0)
(0.00604407 -0.0534916 0)
(0.0239165 -0.0331965 0)
(0.0287473 -0.0225967 0)
(0.0361257 -0.0147444 0)
(0.038283 -0.00503649 0)
(0.036572 0.00634496 0)
(0.0309207 0.00985939 0)
(0.0245087 0.00843354 0)
(0.0175834 0.00515956 0)
(0.00970503 0.00764901 0)
(-7.22073e-05 0.0127468 0)
(-0.00803972 0.0181721 0)
(-0.0196879 0.0196634 0)
(-0.032574 0.0173482 0)
(-0.0438836 0.011087 0)
(-0.0502402 0.00346574 0)
(-0.0490686 -0.00489068 0)
(-0.0404812 -0.00940699 0)
(-0.02991 -0.00733525 0)
(-0.0267933 -0.00108252 0)
(-0.0101668 0.0117178 0)
(0.00597124 0.0130848 0)
(0.0155757 -0.0120002 0)
(0.00543648 -0.0653855 0)
(0.0228384 -0.0431072 0)
(0.0225474 -0.0235558 0)
(0.0169398 -0.00710471 0)
(0.00670357 0.000359265 0)
(0.00635452 0.00463244 0)
(0.00914206 0.00800575 0)
(0.0167966 0.00873352 0)
(0.0059617 0.0129563 0)
(-0.0625681 0.0314276 0)
(-0.160064 0.0388761 0)
(-0.237794 0.038912 0)
(-0.293167 0.0367579 0)
(-0.318922 0.0287095 0)
(-0.331118 0.0175142 0)
(-0.324781 0.00452489 0)
(-0.298631 -0.007742 0)
(-0.263005 -0.0151611 0)
(-0.225301 -0.0124043 0)
(-0.182663 -0.00922292 0)
(-0.132407 -0.0132534 0)
(-0.0648777 -0.0147159 0)
(0.0279436 0.0234338 0)
(-0.000214813 -0.0542816 0)
(0.0180172 -0.0270272 0)
(0.0211694 -0.0162372 0)
(0.0459226 -0.0112632 0)
(0.0677998 -0.00282781 0)
(0.0365733 0.0154083 0)
(-0.0905387 0.0164534 0)
(-0.173198 0.0200192 0)
(-0.222 0.0472083 0)
(-0.250386 0.0759152 0)
(-0.294736 0.0769055 0)
(-0.331429 0.0635631 0)
(-0.356578 0.0486268 0)
(-0.368659 0.0310955 0)
(-0.365712 0.0106728 0)
(-0.348137 -0.0123947 0)
(-0.32487 -0.0316586 0)
(-0.304316 -0.0418397 0)
(-0.28861 -0.0382151 0)
(-0.269191 -0.0372742 0)
(-0.239096 -0.0445029 0)
(-0.197019 -0.0571764 0)
(-0.252394 -0.0578973 0)
(-0.0374448 0.010596 0)
(0.00554871 -0.0081559 0)
(0.0372868 -0.00955652 0)
(0.0568003 -0.00254655 0)
(0.046012 0.00726316 0)
(0.0152689 0.0113929 0)
(-0.0282511 0.0114978 0)
(-0.0728896 0.00823693 0)
(-0.109449 -0.00115393 0)
(-0.122781 -0.00586045 0)
(-0.116705 -0.00460986 0)
(-0.101512 -0.00423913 0)
(-0.071079 -0.0108539 0)
(-0.0212139 -0.0149991 0)
(0.0248757 -0.0087278 0)
(0.0413981 -0.00179466 0)
(0.0341208 0.00712244 0)
(0.0109192 0.00765163 0)
(-0.00472765 0.00457608 0)
(0.0150082 0.00199535 0)
(0.0929109 -0.0213102 0)
(0.122083 -0.0151596 0)
(0.147377 -0.001863 0)
(0.147454 0.0116836 0)
(0.134998 0.0210096 0)
(0.102272 0.0254583 0)
(0.0561538 0.0247929 0)
(-0.0015836 0.0211642 0)
(-0.0431173 0.00837641 0)
(-0.0679602 -0.00503874 0)
(-0.0341519 -0.0164747 0)
(0.017242 -0.0224491 0)
(0.0482016 -0.0275031 0)
(0.0616764 -0.0149575 0)
(0.0612185 -0.00137342 0)
(0.0391938 0.00397459 0)
(0.026903 0.00756581 0)
(0.0213488 -0.00414779 0)
(0.055051 -0.0386334 0)
(0.0999871 -0.0421422 0)
(0.124063 -0.0365605 0)
(0.169373 -0.0178332 0)
(0.207378 0.00976018 0)
(0.221069 0.0277707 0)
(0.211938 0.0442867 0)
(0.185253 0.0503326 0)
(0.129909 0.0438348 0)
(0.0879285 0.0225651 0)
(0.0517729 -0.00479203 0)
(0.0865234 -0.0370699 0)
(0.141885 -0.0502336 0)
(0.179124 -0.0390139 0)
(0.185046 -0.0210215 0)
(0.151564 0.00266036 0)
(0.110638 0.0257376 0)
(0.141135 0.0313609 0)
(0.148151 0.0318941 0)
(0.0312808 -0.0695248 0)
(0.0765193 -0.0510757 0)
(0.0723779 -0.0433925 0)
(0.0932654 -0.037854 0)
(0.149687 -0.00545708 0)
(0.197426 0.0203452 0)
(0.231897 0.0456913 0)
(0.251986 0.0632694 0)
(0.226821 0.0638106 0)
(0.200169 0.0417455 0)
(0.174027 -0.00363397 0)
(0.163887 -0.0485619 0)
(0.188232 -0.0684666 0)
(0.212569 -0.0508994 0)
(0.16176 -0.00829379 0)
(0.0696243 0.0459064 0)
(-0.0874598 0.0367734 0)
(0.0818405 -0.0424253 0)
(0.164667 0.106551 0)
(0.00411149 -0.0866844 0)
(0.0540604 -0.0590747 0)
(0.0553457 -0.043732 0)
(0.0594674 -0.05192 0)
(0.0936031 -0.0277875 0)
(0.124826 -0.00781402 0)
(0.155136 0.0194256 0)
(0.191156 0.06065 0)
(0.220758 0.0637724 0)
(0.24374 0.043858 0)
(0.250234 0.0139278 0)
(0.196338 -0.0444039 0)
(0.181889 -0.0712794 0)
(0.120889 -0.0249634 0)
(0.0191302 0.0407026 0)
(-0.121207 0.100522 0)
(-0.0250146 -0.00437608 0)
(0.0214717 -0.0883749 0)
(0.141724 0.14733 0)
(-0.00565556 -0.100502 0)
(0.0512832 -0.0709398 0)
(0.0383058 -0.0455604 0)
(0.032836 -0.056052 0)
(0.061637 -0.0376512 0)
(0.0725079 -0.0112991 0)
(0.113259 0.0165807 0)
(0.122845 0.0353935 0)
(0.151115 0.0382464 0)
(0.19011 0.0253841 0)
(0.212712 0.0242968 0)
(0.0963732 -0.0226415 0)
(-0.0045029 -0.0312165 0)
(-0.0719175 0.014257 0)
(-0.179992 0.0930799 0)
(-0.170766 0.0855358 0)
(0.0428739 -0.0447613 0)
(-0.0304032 -0.105508 0)
(0.118802 0.179218 0)
(-0.0668471 -0.104928 0)
(-0.0338653 -0.0743548 0)
(-0.0755026 -0.0369928 0)
(-0.0894358 -0.0516821 0)
(-0.0603745 -0.0462878 0)
(0.00400823 -0.0310558 0)
(0.0787307 -0.0162751 0)
(0.179193 0.0682103 0)
(0.0772988 0.0365441 0)
(0.0782053 0.0111164 0)
(0.0707276 0.0555606 0)
(-0.0993193 0.0283278 0)
(-0.159408 -0.0130297 0)
(-0.220748 0.0489307 0)
(-0.226099 0.0889071 0)
(-0.133301 0.0203458 0)
(0.0494794 -0.0690434 0)
(-0.0789693 -0.108634 0)
(0.101516 0.190479 0)
(-0.156382 -0.0353653 0)
(-0.196013 -0.0396057 0)
(-0.221829 -0.0380173 0)
(-0.197536 -0.06118 0)
(-0.161506 -0.072573 0)
(-0.108393 -0.075246 0)
(-0.0733141 -0.074855 0)
(0.078391 0.0505827 0)
(-0.00520943 0.0841471 0)
(-0.121008 0.0428065 0)
(-0.141591 0.0859083 0)
(-0.214506 0.0593461 0)
(-0.222861 0.0287696 0)
(-0.228907 0.0590878 0)
(-0.193219 0.0532653 0)
(-0.0789067 -0.0496093 0)
(0.00519542 -0.068125 0)
(-0.100573 -0.120416 0)
(0.0843126 0.191447 0)
(0.000215249 -0.0939712 0)
(0.0581754 -0.0842659 0)
(0.0609054 -0.0482005 0)
(0.0202305 -0.019974 0)
(-0.042185 0.0234458 0)
(-0.0743991 0.0911576 0)
(-0.12039 0.100328 0)
(-0.172762 0.0780762 0)
(-0.222915 0.0707323 0)
(-0.259898 0.0874953 0)
(-0.289689 0.093161 0)
(-0.313937 0.0805328 0)
(-0.331263 0.0587628 0)
(-0.340944 0.0319923 0)
(-0.344213 0.00466167 0)
(-0.34436 -0.0200341 0)
(-0.346103 -0.0361756 0)
(-0.354758 -0.0390131 0)
(-0.369322 -0.0264249 0)
(-0.377236 -0.0325448 0)
(-0.36975 -0.0489275 0)
(-0.363106 -0.0755607 0)
(-0.371239 -0.0951594 0)
(-0.0492072 -0.103839 0)
(-0.0463226 -0.0647039 0)
(-0.043131 0.0253379 0)
(-0.0328834 0.059632 0)
(-0.0308857 0.0647317 0)
(-0.0370816 0.0856773 0)
(-0.0598166 0.109586 0)
(-0.0958337 0.117915 0)
(-0.146753 0.117914 0)
(-0.187451 0.121257 0)
(-0.221152 0.118642 0)
(-0.251824 0.101252 0)
(-0.283999 0.0753516 0)
(-0.317089 0.0494214 0)
(-0.346831 0.0209095 0)
(-0.370038 -0.00600325 0)
(-0.39336 -0.0190687 0)
(-0.416999 -0.0159276 0)
(-0.428816 -0.0102925 0)
(-0.424017 -0.0364478 0)
(-0.411047 -0.059475 0)
(-0.40275 -0.0768027 0)
(-0.402482 -0.0841622 0)
(0.015772 -0.0211034 0)
(0.0518175 -0.0749596 0)
(0.0471626 -0.0388314 0)
(0.0690846 0.00670722 0)
(0.0708119 0.0607553 0)
(0.0547012 0.114629 0)
(0.0330548 0.151824 0)
(0.00347562 0.172147 0)
(-0.0430308 0.171965 0)
(-0.0915356 0.162958 0)
(-0.133696 0.15845 0)
(-0.17856 0.147056 0)
(-0.241238 0.128221 0)
(-0.315335 0.097985 0)
(-0.373643 0.0577513 0)
(-0.412397 0.0231674 0)
(-0.437737 0.00502177 0)
(-0.444763 -0.00350261 0)
(-0.428432 -0.0202943 0)
(-0.402832 -0.0516248 0)
(-0.386193 -0.0707702 0)
(-0.383284 -0.0778814 0)
(-0.383421 -0.0825361 0)
(0.112426 -0.171439 0)
(0.203021 -0.0924164 0)
(0.231135 -0.0297447 0)
(0.226969 0.0161627 0)
(0.20154 0.0660583 0)
(0.170167 0.122699 0)
(0.137731 0.169063 0)
(0.0968296 0.20663 0)
(0.042972 0.223637 0)
(-0.0117382 0.215013 0)
(-0.0542542 0.206738 0)
(-0.090773 0.205614 0)
(-0.14898 0.204679 0)
(-0.215051 0.177765 0)
(-0.283505 0.117872 0)
(-0.348901 0.0574365 0)
(-0.392181 0.018093 0)
(-0.404531 -0.0185186 0)
(-0.386637 -0.0547581 0)
(-0.362235 -0.0798258 0)
(-0.347766 -0.0833163 0)
(-0.3409 -0.0821918 0)
(-0.338764 -0.0901474 0)
(0.0787997 -0.36996 0)
(0.234894 -0.164118 0)
(0.268494 -0.0400696 0)
(0.287986 0.0595428 0)
(0.291872 0.133634 0)
(0.269841 0.189842 0)
(0.234857 0.2298 0)
(0.183817 0.263164 0)
(0.107434 0.274269 0)
(0.0266343 0.258539 0)
(-0.0333835 0.241835 0)
(-0.0742314 0.243456 0)
(-0.105561 0.24737 0)
(-0.12953 0.227574 0)
(-0.156964 0.183011 0)
(-0.20476 0.124014 0)
(-0.264101 0.0598752 0)
(-0.303373 -0.0051294 0)
(-0.317373 -0.0609829 0)
(-0.314915 -0.0899885 0)
(-0.303934 -0.0902998 0)
(-0.290246 -0.0896417 0)
(-0.276936 -0.094186 0)
(-0.00323542 -0.601289 0)
(0.234289 -0.280083 0)
(0.264284 -0.140549 0)
(0.307689 -0.0557416 0)
(0.304613 0.045068 0)
(0.244999 0.140174 0)
(0.152999 0.206901 0)
(0.0856187 0.309657 0)
(-0.00664428 0.362003 0)
(-0.0877504 0.322764 0)
(-0.116418 0.283539 0)
(-0.126011 0.270503 0)
(-0.129307 0.261085 0)
(-0.127457 0.238081 0)
(-0.128781 0.203568 0)
(-0.137624 0.162991 0)
(-0.14948 0.108983 0)
(-0.167747 0.033176 0)
(-0.196198 -0.0448384 0)
(-0.227588 -0.0892664 0)
(-0.2416 -0.102104 0)
(-0.240118 -0.106565 0)
(-0.235351 -0.105122 0)
(-0.155597 -0.654149 0)
(0.0262026 -0.361453 0)
(-0.0823228 -0.112878 0)
(-0.182356 0.0476251 0)
(-0.224342 0.176816 0)
(-0.118474 0.309063 0)
(-0.165911 0.349664 0)
(-0.194566 0.426726 0)
(-0.220223 0.453045 0)
(-0.252939 0.371653 0)
(-0.253341 0.302659 0)
(-0.236624 0.271939 0)
(-0.212429 0.253087 0)
(-0.192859 0.229108 0)
(-0.17718 0.19816 0)
(-0.164393 0.158268 0)
(-0.15393 0.108041 0)
(-0.148588 0.0513394 0)
(-0.15727 -0.00631423 0)
(-0.175448 -0.0516037 0)
(-0.189231 -0.0850381 0)
(-0.193918 -0.100349 0)
(-0.193702 -0.104735 0)
(-0.400749 -0.3581 0)
(-0.573011 -0.108775 0)
(-0.759562 0.00688403 0)
(-0.833246 0.0520009 0)
(-0.848618 0.133449 0)
(-0.810282 0.278024 0)
(-0.764524 0.371785 0)
(-0.700862 0.428756 0)
(-0.574811 0.396597 0)
(-0.49277 0.317382 0)
(-0.426117 0.266729 0)
(-0.379213 0.240343 0)
(-0.339336 0.222965 0)
(-0.30263 0.202332 0)
(-0.269105 0.173623 0)
(-0.238114 0.134456 0)
(-0.21097 0.086868 0)
(-0.190175 0.0392643 0)
(-0.176918 -0.00555686 0)
(-0.175185 -0.0462772 0)
(-0.178791 -0.081336 0)
(-0.176174 -0.101665 0)
(-0.169583 -0.105 0)
(-0.444827 0.121794 0)
(-0.665657 0.143513 0)
(-0.921788 0.155041 0)
(-1.05914 0.151271 0)
(-1.1098 0.166743 0)
(-1.07985 0.199484 0)
(-0.993394 0.233715 0)
(-0.87699 0.258611 0)
(-0.760878 0.258148 0)
(-0.670022 0.230723 0)
(-0.60253 0.2044 0)
(-0.542862 0.18857 0)
(-0.485211 0.174218 0)
(-0.429681 0.156396 0)
(-0.378139 0.131309 0)
(-0.330902 0.0951653 0)
(-0.289657 0.0538876 0)
(-0.25649 0.0144163 0)
(-0.234278 -0.0228641 0)
(-0.223077 -0.054579 0)
(-0.213908 -0.0894079 0)
(-0.186804 -0.119803 0)
(-0.145597 -0.116388 0)
(-0.344925 0.524382 0)
(-0.561871 0.439547 0)
(-0.908222 0.318104 0)
(-1.11827 0.176781 0)
(-1.18612 0.108415 0)
(-1.16277 0.103231 0)
(-1.10051 0.120563 0)
(-1.0227 0.138653 0)
(-0.937463 0.148088 0)
(-0.856756 0.141016 0)
(-0.778909 0.130105 0)
(-0.702771 0.120257 0)
(-0.627494 0.106511 0)
(-0.554651 0.092122 0)
(-0.491484 0.0741493 0)
(-0.43787 0.0425244 0)
(-0.39249 0.00901026 0)
(-0.359319 -0.0187158 0)
(-0.327755 -0.043655 0)
(-0.28694 -0.0636104 0)
(-0.246377 -0.10343 0)
(-0.192155 -0.164914 0)
(0.0433132 -0.141436 0)
(-0.239304 0.849846 0)
(-0.321882 0.73106 0)
(-0.690417 0.576315 0)
(-1.04565 0.348321 0)
(-1.18983 0.166067 0)
(-1.21008 0.119637 0)
(-1.15716 0.102202 0)
(-1.09678 0.0909168 0)
(-1.02199 0.0796982 0)
(-0.946843 0.0547537 0)
(-0.874275 0.0355237 0)
(-0.799483 0.0245393 0)
(-0.721105 0.0143235 0)
(-0.642601 0.00907812 0)
(-0.55397 0.00514641 0)
(-0.455833 -0.0127263 0)
(-0.358494 -0.0313504 0)
(-0.168687 -0.0451749 0)
(0.043297 -0.0868228 0)
(-0.0986933 -0.074163 0)
(-0.158154 -0.111455 0)
(-0.263166 -0.393029 0)
(-0.40261 -0.315382 0)
(-0.189886 1.04343 0)
(-0.11702 0.88117 0)
(-0.189056 1.04821 0)
(-0.389058 0.864805 0)
(-0.762064 0.211885 0)
(-0.968831 0.0463083 0)
(-1.08837 0.0161837 0)
(-1.08609 -0.0208686 0)
(-1.03855 -0.0131961 0)
(-1.00151 -0.00088019 0)
(-0.960462 -0.016456 0)
(-0.918367 0.032601 0)
(-0.892697 -0.00670298 0)
(-0.841817 -0.041895 0)
(-0.804212 -0.0284925 0)
(-0.766689 -0.133925 0)
(-0.722983 -0.307472 0)
(-0.714752 -0.278858 0)
(-0.69607 -0.115345 0)
(-0.631591 -0.0397129 0)
(-0.558561 -0.0594338 0)
(-0.534681 -0.0964797 0)
(-0.563058 -0.0826897 0)
(-0.209465 1.1377 0)
(0.0553117 0.834808 0)
(-0.118538 1.72028 0)
(-0.188034 1.13525 0)
(-0.53402 0.584853 0)
(-0.716914 0.398772 0)
(-0.815664 0.274903 0)
(-0.879854 0.154466 0)
(-0.89366 0.0577257 0)
(-0.850948 -0.017621 0)
(-0.814418 -0.0620747 0)
(-0.739569 -0.124164 0)
(-0.642713 -0.153575 0)
(-0.587059 -0.165657 0)
(-0.521733 -0.180854 0)
(-0.465184 -0.177889 0)
(-0.467771 -0.182056 0)
(-0.487626 -0.166389 0)
(-0.48021 -0.135886 0)
(-0.44917 -0.132039 0)
(-0.413485 -0.17047 0)
(-0.392272 -0.20895 0)
(-0.37337 -0.197196 0)
(-0.232803 1.17387 0)
(0.190482 0.760903 0)
(-0.155727 1.51553 0)
(0.00685297 1.25253 0)
(-0.346572 0.71851 0)
(-0.427729 0.452647 0)
(-0.465603 0.200155 0)
(-0.42827 0.00889075 0)
(-0.375903 -0.089597 0)
(-0.343917 -0.112974 0)
(-0.320619 -0.119631 0)
(-0.304921 -0.107948 0)
(-0.286571 -0.111787 0)
(-0.277784 -0.120744 0)
(-0.270988 -0.12526 0)
(-0.269418 -0.159978 0)
(-0.27664 -0.198822 0)
(-0.282375 -0.200841 0)
(-0.272216 -0.174784 0)
(-0.251753 -0.150459 0)
(-0.233051 -0.160683 0)
(-0.233475 -0.177769 0)
(-0.236507 -0.17586 0)
(-0.230229 1.16668 0)
(0.147052 0.813345 0)
(-0.254451 1.53346 0)
(0.0949707 1.31331 0)
(-0.259802 0.841801 0)
(-0.224159 0.498083 0)
(-0.202761 0.221528 0)
(-0.139259 0.0473016 0)
(-0.113382 -0.0572011 0)
(-0.0744623 -0.102688 0)
(-0.0397595 -0.125571 0)
(-0.0175547 -0.137913 0)
(-0.00327235 -0.147638 0)
(-0.00153988 -0.147922 0)
(-0.0113641 -0.148322 0)
(-0.0300372 -0.160504 0)
(-0.0570714 -0.18025 0)
(-0.0863175 -0.18818 0)
(-0.101569 -0.181604 0)
(-0.103767 -0.171231 0)
(-0.0972588 -0.176584 0)
(-0.0986082 -0.180653 0)
(-0.10341 -0.18488 0)
(-0.206057 1.16226 0)
(0.0466071 0.845275 0)
(-0.115887 1.5684 0)
(0.0417938 1.33323 0)
(-0.161754 0.905867 0)
(-0.078863 0.505419 0)
(-0.0322488 0.16624 0)
(0.0254828 -0.036367 0)
(0.0571894 -0.12437 0)
(0.0819234 -0.156383 0)
(0.100768 -0.162071 0)
(0.115438 -0.157593 0)
(0.124192 -0.151853 0)
(0.126081 -0.139202 0)
(0.121627 -0.126051 0)
(0.112705 -0.127534 0)
(0.0946584 -0.138009 0)
(0.07045 -0.149029 0)
(0.0470778 -0.157884 0)
(0.0300157 -0.162495 0)
(0.0188501 -0.16974 0)
(0.0101729 -0.172448 0)
(0.00341192 -0.173763 0)
(-0.175129 1.21768 0)
(-0.0384342 0.858895 0)
(-0.0446195 1.50599 0)
(-0.0163638 1.39239 0)
(-0.0943842 0.910537 0)
(0.0411352 0.428633 0)
(0.0965666 0.112649 0)
(0.139272 -0.0640413 0)
(0.160627 -0.148467 0)
(0.17531 -0.17474 0)
(0.183831 -0.173112 0)
(0.187397 -0.162734 0)
(0.187312 -0.151931 0)
(0.183044 -0.13757 0)
(0.178794 -0.123274 0)
(0.17414 -0.119417 0)
(0.164249 -0.123429 0)
(0.149264 -0.130169 0)
(0.132353 -0.137226 0)
(0.116306 -0.14436 0)
(0.102094 -0.152444 0)
(0.0902354 -0.159489 0)
(0.0800801 -0.164115 0)
(-0.159564 1.29698 0)
(-0.0751642 0.801509 0)
(-0.215036 1.43216 0)
(-0.0622324 1.40557 0)
(-0.0374028 0.815007 0)
(0.127504 0.345715 0)
(0.191601 0.0600205 0)
(0.221146 -0.097958 0)
(0.22961 -0.164758 0)
(0.22931 -0.18048 0)
(0.224365 -0.173119 0)
(0.217406 -0.159252 0)
(0.209657 -0.145895 0)
(0.20216 -0.131789 0)
(0.196708 -0.119232 0)
(0.192152 -0.113145 0)
(0.18561 -0.113296 0)
(0.176187 -0.117498 0)
(0.16493 -0.124107 0)
(0.153226 -0.132095 0)
(0.141945 -0.140764 0)
(0.131644 -0.148932 0)
(0.121437 -0.155723 0)
(-0.125294 1.48508 0)
(-0.210314 0.968431 0)
(-0.442254 1.31385 0)
(-0.0586769 1.28975 0)
(0.0186364 0.656746 0)
(0.193246 0.253046 0)
(0.256643 0.00972794 0)
(0.272074 -0.116136 0)
(0.266198 -0.164386 0)
(0.251297 -0.171494 0)
(0.234542 -0.161769 0)
(0.219719 -0.148158 0)
(0.207642 -0.135392 0)
(0.198106 -0.123536 0)
(0.191115 -0.113513 0)
(0.185867 -0.10751 0)
(0.180755 -0.106324 0)
(0.174768 -0.109253 0)
(0.167846 -0.115136 0)
(0.160323 -0.122843 0)
(0.152491 -0.131415 0)
(0.14475 -0.139929 0)
(0.136064 -0.147618 0)
(-0.0837594 1.55632 0)
(-0.184203 1.19895 0)
(-0.456601 1.19769 0)
(0.00443103 1.02613 0)
(0.107864 0.498449 0)
(0.245825 0.166741 0)
(0.29377 -0.0253433 0)
(0.295111 -0.117502 0)
(0.275833 -0.148612 0)
(0.250119 -0.150175 0)
(0.226028 -0.141736 0)
(0.206601 -0.13201 0)
(0.191841 -0.122996 0)
(0.180963 -0.114494 0)
(0.173357 -0.107132 0)
(0.168206 -0.10252 0)
(0.164364 -0.101662 0)
(0.160815 -0.104383 0)
(0.156958 -0.109855 0)
(0.152544 -0.117088 0)
(0.14751 -0.125172 0)
(0.142004 -0.133306 0)
(0.135092 -0.140925 0)
(-0.0413601 1.77887 0)
(-0.138735 1.35799 0)
(-0.354466 1.09352 0)
(0.084526 0.75394 0)
(0.184691 0.355059 0)
(0.280797 0.0983962 0)
(0.30882 -0.0418482 0)
(0.296251 -0.103539 0)
(0.266881 -0.121711 0)
(0.235458 -0.122087 0)
(0.20875 -0.118069 0)
(0.188082 -0.113817 0)
(0.172665 -0.109481 0)
(0.16155 -0.104864 0)
(0.154043 -0.100731 0)
(0.149366 -0.0983931 0)
(0.14651 -0.0987251 0)
(0.14443 -0.101756 0)
(0.142326 -0.106948 0)
(0.139716 -0.113565 0)
(0.136357 -0.120885 0)
(0.132322 -0.128296 0)
(0.126753 -0.135352 0)
(-0.0251405 1.79088 0)
(0.00927658 1.53048 0)
(-0.207212 0.981965 0)
(0.169556 0.546722 0)
(0.245644 0.240504 0)
(0.302816 0.0545804 0)
(0.308633 -0.0392103 0)
(0.283689 -0.0767869 0)
(0.248868 -0.0883942 0)
(0.216408 -0.091966 0)
(0.190431 -0.0941809 0)
(0.170733 -0.0958069 0)
(0.15612 -0.0963183 0)
(0.145658 -0.0957393 0)
(0.138676 -0.0949223 0)
(0.134422 -0.0949821 0)
(0.131963 -0.0966806 0)
(0.130344 -0.100161 0)
(0.128786 -0.105139 0)
(0.126787 -0.111139 0)
(0.124083 -0.117663 0)
(0.120689 -0.124264 0)
(0.115859 -0.130641 0)
(-0.0103466 1.78218 0)
(0.102576 1.53661 0)
(-0.0289108 0.892966 0)
(0.262048 0.414487 0)
(0.30055 0.167427 0)
(0.318896 0.0401877 0)
(0.300059 -0.0183328 0)
(0.265603 -0.0419258 0)
(0.229055 -0.0536384 0)
(0.198473 -0.0632189 0)
(0.174911 -0.0721109 0)
(0.157165 -0.0792978 0)
(0.144017 -0.0842724 0)
(0.13459 -0.0873936 0)
(0.128174 -0.0895533 0)
(0.124055 -0.0917554 0)
(0.121429 -0.094683 0)
(0.119524 -0.0985845 0)
(0.117699 -0.103392 0)
(0.115529 -0.108862 0)
(0.112784 -0.114686 0)
(0.10948 -0.120574 0)
(0.104928 -0.126306 0)
(-0.0242581 1.76672 0)
(0.111186 1.50612 0)
(0.149219 0.774393 0)
(0.338426 0.323848 0)
(0.341641 0.138542 0)
(0.326528 0.054514 0)
(0.285952 0.0177168 0)
(0.245762 -0.00273603 0)
(0.210461 -0.0204177 0)
(0.182899 -0.0374448 0)
(0.162206 -0.052618 0)
(0.14673 -0.0647763 0)
(0.135243 -0.0736319 0)
(0.126875 -0.0798565 0)
(0.120921 -0.0844334 0)
(0.116739 -0.0883323 0)
(0.113697 -0.0922218 0)
(0.111205 -0.0964613 0)
(0.108788 -0.101159 0)
(0.10613 -0.106241 0)
(0.103056 -0.111537 0)
(0.0995771 -0.116866 0)
(0.0950559 -0.12209 0)
(-0.0235149 1.71517 0)
(0.129317 1.43395 0)
(0.353639 0.632507 0)
(0.42432 0.2864 0)
(0.372234 0.155313 0)
(0.321731 0.0946079 0)
(0.268009 0.0636437 0)
(0.225409 0.036583 0)
(0.192278 0.00979551 0)
(0.168162 -0.0149559 0)
(0.150555 -0.0358729 0)
(0.137402 -0.0522971 0)
(0.127612 -0.0643778 0)
(0.120344 -0.0730804 0)
(0.114894 -0.079503 0)
(0.110729 -0.0846385 0)
(0.107363 -0.0892308 0)
(0.104362 -0.0937293 0)
(0.101404 -0.0983596 0)
(0.0982827 -0.103168 0)
(0.0948683 -0.108088 0)
(0.0911764 -0.113013 0)
(0.0866103 -0.117849 0)
(0.0114547 1.59952 0)
(0.286648 1.13862 0)
(0.501608 0.524963 0)
(0.456627 0.305561 0)
(0.372452 0.209937 0)
(0.296968 0.154638 0)
(0.242817 0.113322 0)
(0.202108 0.0733927 0)
(0.172955 0.0362213 0)
(0.15247 0.00409345 0)
(0.137963 -0.0219594 0)
(0.127343 -0.0419612 0)
(0.119397 -0.0566412 0)
(0.113365 -0.0672207 0)
(0.108683 -0.0749474 0)
(0.104839 -0.0809248 0)
(0.101459 -0.0859727 0)
(0.0982593 -0.0906173 0)
(0.0950225 -0.0951685 0)
(0.0916151 -0.099763 0)
(0.0879618 -0.104404 0)
(0.0841029 -0.109028 0)
(0.0794834 -0.113568 0)
(0.185241 1.23202 0)
(0.402989 0.816544 0)
(0.498094 0.534834 0)
(0.413712 0.382216 0)
(0.31773 0.283714 0)
(0.254743 0.216747 0)
(0.208348 0.158213 0)
(0.174584 0.104974 0)
(0.150944 0.058222 0)
(0.134612 0.019457 0)
(0.123383 -0.0108936 0)
(0.115529 -0.033851 0)
(0.109741 -0.0506237 0)
(0.105324 -0.0625429 0)
(0.101765 -0.0711159 0)
(0.0986159 -0.0775707 0)
(0.0955982 -0.0827947 0)
(0.0925187 -0.0874099 0)
(0.0892593 -0.0918099 0)
(0.0857579 -0.0961875 0)
(0.0819941 -0.100583 0)
(0.0780355 -0.104958 0)
(0.0733866 -0.109252 0)
(0.189684 0.907677 0)
(0.322166 0.796246 0)
(0.356555 0.601276 0)
(0.296238 0.44645 0)
(0.24449 0.345121 0)
(0.202638 0.263969 0)
(0.169373 0.192673 0)
(0.144464 0.129493 0)
(0.126753 0.0751863 0)
(0.114803 0.0310022 0)
(0.106963 -0.00301698 0)
(0.101966 -0.0283326 0)
(0.0986518 -0.0466351 0)
(0.0962191 -0.0594146 0)
(0.0941516 -0.0683994 0)
(0.0920641 -0.0749344 0)
(0.0897309 -0.080029 0)
(0.0870371 -0.0843956 0)
(0.0839495 -0.0884971 0)
(0.0804891 -0.0925735 0)
(0.0766975 -0.0966944 0)
(0.0726851 -0.100831 0)
(0.0680144 -0.104906 0)
(0.0828944 0.793012 0)
(0.172199 0.762603 0)
(0.208501 0.601368 0)
(0.199159 0.478469 0)
(0.176972 0.379827 0)
(0.153434 0.293794 0)
(0.132119 0.216418 0)
(0.114861 0.147093 0)
(0.102262 0.087255 0)
(0.0941972 0.0387038 0)
(0.0896904 0.00153709 0)
(0.0876494 -0.0256742 0)
(0.0869367 -0.0450066 0)
(0.0867083 -0.0581969 0)
(0.0863655 -0.0671193 0)
(0.0855412 -0.0732996 0)
(0.0840544 -0.0779043 0)
(0.0818764 -0.081754 0)
(0.0790658 -0.085366 0)
(0.0757146 -0.089017 0)
(0.0719311 -0.0927988 0)
(0.0678713 -0.0966744 0)
(0.0631698 -0.100534 0)
(0.0307749 0.702178 0)
(0.0898001 0.680296 0)
(0.128419 0.582486 0)
(0.134274 0.485936 0)
(0.12619 0.395499 0)
(0.114463 0.310969 0)
(0.101306 0.231987 0)
(0.0895484 0.159305 0)
(0.0806315 0.0953352 0)
(0.0754653 0.0429715 0)
(0.073584 0.00304544 0)
(0.0741217 -0.0258356 0)
(0.0758332 -0.0458714 0)
(0.0777551 -0.0590348 0)
(0.0791613 -0.0673928 0)
(0.0796041 -0.0727521 0)
(0.0789459 -0.0764782 0)
(0.0772566 -0.0795054 0)
(0.0746916 -0.0824144 0)
(0.0714234 -0.0855078 0)
(0.0676216 -0.0888776 0)
(0.0634976 -0.0924634 0)
(0.0587337 -0.0961099 0)
(0.0179917 0.64407 0)
(0.0590631 0.635407 0)
(0.0848072 0.564504 0)
(0.0943843 0.483595 0)
(0.093112 0.401341 0)
(0.0881327 0.320419 0)
(0.0802129 0.242177 0)
(0.0723765 0.168021 0)
(0.0660508 0.101063 0)
(0.0626379 0.0452023 0)
(0.0621702 0.00235795 0)
(0.0642466 -0.0283968 0)
(0.0676047 -0.0490537 0)
(0.071076 -0.0617804 0)
(0.0737083 -0.069082 0)
(0.0750083 -0.0731523 0)
(0.0748776 -0.0756147 0)
(0.0734519 -0.0775438 0)
(0.0709637 -0.0795669 0)
(0.0676568 -0.0819879 0)
(0.0637568 -0.0848797 0)
(0.0595055 -0.0881528 0)
(0.0546324 -0.0915954 0)
(0.0124987 0.618477 0)
(0.0425904 0.608132 0)
(0.0614196 0.549242 0)
(0.0727765 0.477963 0)
(0.0752658 0.402198 0)
(0.0744361 0.325156 0)
(0.0703305 0.248646 0)
(0.0657074 0.174282 0)
(0.0616244 0.105557 0)
(0.0593882 0.0468807 0)
(0.0592842 0.00108512 0)
(0.0615211 -0.0318841 0)
(0.0649945 -0.0531823 0)
(0.068556 -0.0653448 0)
(0.0712569 -0.0713691 0)
(0.0725479 -0.0738965 0)
(0.0723042 -0.0748812 0)
(0.0706861 -0.0755614 0)
(0.0679688 -0.0766086 0)
(0.06443 -0.0783116 0)
(0.0603069 -0.0807112 0)
(0.0558512 -0.0836809 0)
(0.0508078 -0.0869487 0)
(0.010957 0.594615 0)
(0.0360685 0.585651 0)
(0.052404 0.534907 0)
(0.0646965 0.470465 0)
(0.0697055 0.399936 0)
(0.0718106 0.326473 0)
(0.0708543 0.251962 0)
(0.0689989 0.178191 0)
(0.0669113 0.108829 0)
(0.0655868 0.0484376 0)
(0.0653129 0.000363684 0)
(0.0665677 -0.0344419 0)
(0.0685797 -0.0563564 0)
(0.0707066 -0.0680731 0)
(0.0721729 -0.0729488 0)
(0.0724216 -0.0740396 0)
(0.0713057 -0.0736209 0)
(0.0689673 -0.0731135 0)
(0.0656663 -0.0732468 0)
(0.0616654 -0.0742924 0)
(0.057185 -0.0762584 0)
(0.0524426 -0.0789789 0)
(0.0471837 -0.0821269 0)
(0.0117698 0.571509 0)
(0.0358661 0.564958 0)
(0.0526254 0.520373 0)
(0.0659324 0.461379 0)
(0.073039 0.395251 0)
(0.077406 0.324961 0)
(0.0789825 0.252487 0)
(0.0792293 0.179868 0)
(0.0785492 0.110813 0)
(0.0776762 0.049855 0)
(0.0769214 0.000683869 0)
(0.0765784 -0.035075 0)
(0.076409 -0.0574245 0)
(0.076252 -0.0688364 0)
(0.0756115 -0.0728249 0)
(0.074058 -0.0727618 0)
(0.0714701 -0.0712151 0)
(0.067976 -0.0697722 0)
(0.0638071 -0.0692056 0)
(0.059178 -0.0697639 0)
(0.0542441 -0.0714227 0)
(0.0491718 -0.0739892 0)
(0.0436738 -0.0771001 0)
(0.0139337 0.546824 0)
(0.0391972 0.543408 0)
(0.0581272 0.504591 0)
(0.0727274 0.45067 0)
(0.081622 0.388551 0)
(0.0876355 0.321205 0)
(0.0909428 0.250904 0)
(0.0924437 0.179917 0)
(0.0925006 0.111888 0)
(0.0916836 0.0513119 0)
(0.0902627 0.00214919 0)
(0.0882638 -0.0337267 0)
(0.0858441 -0.0560977 0)
(0.0831407 -0.0671682 0)
(0.0800131 -0.0704718 0)
(0.0762816 -0.0695834 0)
(0.0719326 -0.067283 0)
(0.0671005 -0.0652656 0)
(0.061964 -0.0643092 0)
(0.05666 -0.0646292 0)
(0.0512681 -0.0661632 0)
(0.0458743 -0.0687046 0)
(0.0401642 -0.0718767 0)
(0.0169995 0.518637 0)
(0.0443219 0.51936 0)
(0.0660232 0.486958 0)
(0.0818199 0.438431 0)
(0.0919233 0.380383 0)
(0.0988282 0.315985 0)
(0.102966 0.248106 0)
(0.10498 0.179101 0)
(0.10535 0.112527 0)
(0.104471 0.0530059 0)
(0.102421 0.00464223 0)
(0.0989899 -0.0305881 0)
(0.0944431 -0.0524346 0)
(0.0891972 -0.0629668 0)
(0.0835324 -0.0657233 0)
(0.0776102 -0.0643746 0)
(0.0715627 -0.0617669 0)
(0.0655177 -0.0595997 0)
(0.0595621 -0.0586086 0)
(0.0537251 -0.0589534 0)
(0.0479949 -0.0605435 0)
(0.0423798 -0.0631793 0)
(0.0365368 -0.0665046 0)
(0.020657 0.485995 0)
(0.0499053 0.492477 0)
(0.0739402 0.467613 0)
(0.0903307 0.425195 0)
(0.100766 0.371532 0)
(0.107662 0.310218 0)
(0.111807 0.244888 0)
(0.113955 0.1779 0)
(0.114631 0.112923 0)
(0.113829 0.0549204 0)
(0.111267 0.00803254 0)
(0.106523 -0.0258087 0)
(0.0998899 -0.0465141 0)
(0.092219 -0.0562824 0)
(0.0842265 -0.0586906 0)
(0.0764317 -0.0573409 0)
(0.0691166 -0.0549543 0)
(0.0623309 -0.0530928 0)
(0.0559899 -0.0523882 0)
(0.0499721 -0.0529616 0)
(0.0441685 -0.054732 0)
(0.0385125 -0.0575403 0)
(0.0326763 -0.0610786 0)
(0.0244241 0.448604 0)
(0.0547479 0.463552 0)
(0.0797888 0.447461 0)
(0.0957103 0.411874 0)
(0.10541 0.362967 0)
(0.111329 0.304851 0)
(0.114933 0.24168 0)
(0.117416 0.176267 0)
(0.118806 0.112938 0)
(0.118286 0.0569226 0)
(0.115127 0.0122589 0)
(0.108956 -0.0193607 0)
(0.100195 -0.038383 0)
(0.0902711 -0.047327 0)
(0.080413 -0.0497806 0)
(0.071429 -0.0490512 0)
(0.0636011 -0.047476 0)
(0.0568082 -0.0463432 0)
(0.0507287 -0.0461563 0)
(0.0450466 -0.0470508 0)
(0.0395522 -0.0490175 0)
(0.0341297 -0.0519896 0)
(0.0284937 -0.0557463 0)
(0.0269711 0.40713 0)
(0.0572141 0.434251 0)
(0.0813704 0.427938 0)
(0.0955705 0.399597 0)
(0.103453 0.355708 0)
(0.107615 0.300551 0)
(0.110781 0.238269 0)