/*--------------------------------*- C++ -*----------------------------------*\
| =========                 |                                                 |
| \\      /  F ield         | OpenFOAM: The Open Source CFD Toolbox           |
|  \\    /   O peration     | Version:  2312                                  |
|   \\  /    A nd           | Website:  www.openfoam.com                      |
|    \\/     M anipulation  |                                                 |
\*---------------------------------------------------------------------------*/
FoamFile
{
    version     2.0;
    format      ascii;
    arch        "LSB;label=32;scalar=64";
    class       volScalarField;
    location    "0.8";
    object      alpha.water_0;
}
// * * * * * * * * * * * * * * * * * * * * * * * * * * * * * * * * * * * * * //

dimensions      [0 0 0 0 0 0 0];

internalField   nonuniform List<scalar> 
2268
(
4.83435e-11
3.62835e-11
3.05877e-11
2.59754e-11
2.39693e-11
2.35168e-11
2.35726e-11
2.26593e-11
2.01761e-11
1.681e-11
1.37235e-11
1.18466e-11
1.08333e-11
1.07636e-11
1.13346e-11
1.34594e-11
1.83106e-11
2.90617e-11
4.88437e-11
8.50769e-11
1.71144e-10
2.80788e-10
3.15562e-10
2.23675e-11
2.23378e-11
2.23275e-11
2.22974e-11
2.22997e-11
2.23989e-11
2.34296e-11
3.03288e-11
4.67315e-11
4.94769e-11
4.64591e-11
4.13243e-11
3.68248e-11
3.46649e-11
3.52573e-11
3.91589e-11
4.96604e-11
7.39179e-11
1.38123e-10
2.73317e-10
6.28885e-10
1.07216e-09
9.4493e-10
0.164112
0.146085
0.116462
0.066039
0.00198006
2.03762e-10
2.25824e-11
2.5003e-11
3.49041e-11
4.4343e-11
5.1383e-11
5.46366e-11
5.56352e-11
5.57186e-11
5.62292e-11
6.15608e-11
7.88124e-11
1.38158e-10
3.75077e-10
8.23044e-10
1.6103e-09
2.14186e-09
1.97169e-09
0.906863
0.890762
0.858925
0.78049
0.594036
0.215967
0.000726098
2.28792e-11
2.70522e-11
3.44475e-11
4.26991e-11
4.71715e-11
4.94568e-11
5.16779e-11
5.61262e-11
6.49553e-11
8.72373e-11
1.61373e-10
4.4428e-10
1.6079e-09
3.52819e-09
5.24259e-09
4.68183e-09
1
1
1
1
0.999859
0.849248
0.246392
2.26463e-11
2.6761e-11
2.79095e-11
3.26726e-11
3.61429e-11
4.41871e-11
4.22123e-11
4.71783e-11
3.81464e-11
4.01581e-11
6.54251e-11
2.02276e-10
1.00268e-09
2.95981e-09
5.09159e-09
4.38916e-09
1
1
1
1
1
1
0.717055
0.080783
2.5467e-11
2.52903e-11
2.64628e-11
1.00985e-10
2.07785e-10
1.75684e-10
3.07379e-10
6.79062e-11
2.49358e-11
2.4611e-11
2.49358e-11
1.51559e-09
2.74639e-11
2.75971e-11
2.74639e-11
1
1
1
1
1
1
0.963908
0.349588
2.52903e-11
2.5467e-11
2.52903e-11
0.000106497
0.0176957
0.0522888
0.0788929
0.0964294
0.103504
0.0991315
0.0847381
0.0702675
0.0643487
0.0702609
0.0872769
1
1
1
1
1
1
1
0.788196
0.173228
0.0412125
0.102351
0.285968
0.506941
0.636015
0.698885
0.725169
0.731783
0.715261
0.68216
0.651487
0.640576
0.661957
0.682655
3.39219e-12
5.78646e-12
5.23047e-07
0.00731559
0.0057953
0.00622404
0.00617549
0.00621331
0.00706617
0.00994046
0.0130458
0.0135437
0.0135768
0.00770815
0.00455236
0.014222
0.0436773
0.0824906
0.0798518
2.25081e-12
4.33591e-08
0.00148555
0.0424438
0.0729607
0.112166
0.107077
0.0736438
0.0561114
0.0553243
0.0549124
0.0515824
0.0533344
0.0400754
0.00590599
0.0229239
0.122141
0.0810784
0.0222007
0.00072856
0.116401
0.342147
0.506972
0.540176
0.540541
0.58417
0.636846
0.619093
0.548453
0.494875
0.448371
0.393665
0.132855
0.018074
0.0936413
0.122131
0.0126383
0.00782177
0.170533
0.596677
0.829071
0.931366
0.938284
0.943509
0.985221
0.992939
0.992643
0.959634
0.956796
0.886202
0.6071
0.106889
0.0157352
0.0834732
0.0952362
0.003537
0.0395198
0.679149
0.727451
0.915818
0.992936
0.992938
0.992945
0.992947
0.992944
0.774863
0.259208
0.339394
0.361541
0.189447
0.0639662
0.0161996
0.0460092
0.0194834
0.0159573
0.179971
0.619672
0.452476
0.460386
0.760774
0.959913
0.992941
0.992952
0.894937
0.0260193
0.00317529
0.00590788
0.0047293
0.00196725
0.0182589
0.0205068
0.0427177
1.69054e-05
0.0161543
0.181377
0.175358
0.0177253
0.055166
0.24868
0.793675
0.985078
0.992246
0.572059
0.0184576
0.0205217
2.52573e-07
0.000361546
0.0029954
0.0070267
0.0110629
0.0332778
2.18645e-07
0.00119469
0.151118
0.0096379
0.000153387
0.000175421
0.0266774
0.478609
0.969113
0.991456
0.590749
0.228204
0.409112
2.49525e-07
1.51922e-05
0.000475081
0.00492241
0.0086838
0.00217577
2.35655e-12
-3.70091e-15
0.246203
1
1
1
1
1
1
1
0.999488
0.921214
0.772833
0.755545
0.87541
0.972205
0.999428
0.999794
0.999632
0.999371
0.998897
0.992581
0.985537
0.984311
0.983812
0.952028
1
1
1
1
1
1
1
1
1
1
1
1
0.999938
0.999933
0.999928
0.998983
0.996615
0.992289
0.989926
0.988763
0.987497
0.968734
0.778363
1
1
1
1
1
1
1
1
1
1
1
0.999999
0.980741
0.901926
0.821652
0.766047
0.739531
0.730632
0.765651
0.848602
0.728632
0.153756
-1.93898e-12
1
1
1
0.999999
0.999999
1
1
1
0.997298
0.990654
0.947278
0.820824
0.515588
0.278242
0.152004
0.112768
0.191456
0.355423
0.44079
0.226648
0.0352138
5.81789e-10
6.72498e-10
1
1
1
1
0.996647
0.949035
0.95094
0.877269
0.668032
0.498837
0.278841
0.050649
2.23307e-09
2.38804e-09
0.00193509
0.00855596
0.0176757
0.0512435
0.0186827
2.32554e-06
8.84158e-08
6.01209e-10
5.10926e-10
1
0.999998
0.999828
0.952555
0.601111
0.377229
0.271978
0.179711
0.089058
3.72146e-24
-9.16873e-25
6.4599e-14
1.18048e-06
5.97818e-05
0.000719185
0.000815002
2.77699e-05
0.000844276
0.000884135
0.000123433
1.68975e-16
2.16224e-10
2.79185e-10
0.78634
0.775347
0.691398
0.375206
0.0773606
0.0240785
0.00625977
8.41024e-05
1.10911e-07
1.35092e-07
1.45996e-06
4.73378e-07
1.93592e-07
1.75991e-06
3.17616e-08
9.68843e-08
2.87205e-05
0.000305531
0.000537315
5.402e-05
9.86574e-22
4.46347e-09
1.15626e-08
0.105671
0.0938827
0.054592
0.00153622
-3.64417e-20
-8.84729e-14
-5.65889e-12
1.0623e-06
8.09057e-07
2.82166e-07
1.76895e-06
2.04709e-06
6.9094e-08
4.45274e-09
4.93647e-09
2.67303e-06
1.90042e-05
2.41023e-05
2.90102e-05
2.66052e-05
1.753e-15
1.65398e-09
3.04615e-08
0.00215943
3.86774e-08
1.88449e-20
1.76109e-22
3.15135e-09
6.94298e-08
2.13005e-07
3.5084e-07
1.15701e-07
1.30531e-07
1.39595e-06
2.34391e-06
1.76729e-06
4.40589e-09
6.76668e-09
1.9799e-06
3.78705e-06
1.84488e-06
2.19472e-06
1.29587e-06
3.27559e-07
7.05554e-10
2.37215e-08
0.000495206
2.28775e-22
2.71078e-23
2.28852e-22
3.20626e-08
1.04125e-07
1.0427e-07
1.55896e-09
2.06685e-09
3.98786e-08
1.69724e-07
1.87347e-06
2.51654e-06
2.24029e-06
1.57077e-08
2.52469e-08
1.83428e-08
5.66407e-08
4.43244e-07
3.23315e-06
4.00332e-06
3.29259e-06
1.45583e-07
6.14342e-11
6.45277e-11
2.48671e-09
9.58632e-09
2.12272e-08
2.70098e-08
4.06463e-09
2.01063e-09
1.29335e-10
4.16175e-09
4.63261e-08
2.02263e-07
1.57518e-06
2.29701e-06
1.75866e-06
3.71172e-07
2.43958e-08
5.23945e-09
5.20882e-09
3.14341e-07
3.7919e-06
6.98768e-06
6.9933e-06
2.24235e-09
2.76879e-09
1.46297e-08
1.51006e-08
1.32484e-08
1.31619e-09
6.1389e-10
5.53554e-10
6.22184e-11
2.97948e-10
8.4432e-09
5.08201e-08
8.14119e-08
2.89547e-07
5.56041e-07
4.1953e-07
1.37053e-07
1.17994e-08
7.35263e-09
2.66472e-08
2.62433e-07
1.46329e-06
3.63291e-06
2.27512e-09
3.18046e-09
1.91074e-08
1.21985e-08
9.29544e-09
7.71721e-11
1.12771e-10
7.36419e-11
2.57204e-11
5.52639e-11
7.66461e-10
7.5632e-09
2.72211e-08
3.34981e-08
7.79136e-10
2.76038e-08
4.34914e-08
2.06975e-08
7.59673e-09
7.66454e-09
5.06068e-08
3.32657e-07
2.6853e-07
2.30868e-09
5.28419e-08
1.55263e-08
4.07539e-09
2.75709e-09
1.91584e-10
1.18219e-10
5.32778e-11
2.34334e-11
1.65045e-11
6.31701e-11
6.95212e-10
4.16073e-09
6.60521e-09
8.44127e-10
8.05649e-11
7.99269e-11
4.28876e-09
6.59002e-09
9.97027e-09
9.89819e-09
5.55275e-09
5.04361e-09
3.53096e-07
6.26073e-07
1.06635e-08
2.69667e-09
2.21385e-10
1.90416e-10
1.07003e-10
4.38814e-11
1.84246e-11
1.09242e-11
1.44518e-11
5.93151e-11
3.74374e-10
3.41677e-10
1.226e-10
7.06187e-11
2.73273e-10
9.87176e-10
2.13231e-09
6.98321e-09
9.45229e-09
8.88359e-09
7.12808e-09
7.16364e-07
7.16729e-07
5.05304e-08
8.27259e-09
8.90087e-10
1.43074e-10
6.23325e-11
2.74194e-11
1.19688e-11
6.9607e-12
7.32979e-12
1.27711e-11
1.66663e-11
6.31991e-12
1.57611e-11
1.87674e-11
1.31211e-10
4.43585e-10
1.23447e-09
3.01007e-09
4.19668e-09
7.01807e-09
1.18841e-08
4.19726e-07
5.96166e-07
6.16717e-08
8.52475e-09
6.15684e-10
1.4147e-10
4.11416e-11
1.57943e-11
7.30396e-12
3.83055e-12
3.75668e-12
5.23172e-12
5.50802e-12
3.28311e-12
3.29641e-12
4.70343e-12
1.49039e-11
6.61458e-11
4.75395e-10
9.52587e-10
1.15201e-09
2.12761e-09
5.92873e-09
5.68098e-08
6.05796e-08
2.56274e-08
2.56982e-09
3.08664e-10
8.0499e-11
2.47908e-11
9.77855e-12
4.08359e-12
1.88038e-12
1.63943e-12
2.0367e-12
1.89906e-12
1.10488e-12
6.46388e-13
1.00486e-12
3.09751e-12
1.64847e-11
1.93349e-10
2.16911e-10
1.67621e-10
3.88907e-10
1.31225e-09
2.52792e-08
9.79099e-09
4.2596e-10
3.53877e-10
1.1561e-10
3.77438e-11
1.3838e-11
5.47301e-12
2.03158e-12
8.29499e-13
6.21806e-13
6.83179e-13
5.828e-13
2.95066e-13
1.03427e-13
1.56938e-13
5.05766e-13
3.10059e-12
3.12052e-11
2.55407e-11
4.41298e-11
2.6931e-11
8.63183e-11
2.27454e-08
2.83824e-09
3.02172e-10
1.31614e-10
5.11188e-11
1.88028e-11
7.07523e-12
2.64031e-12
9.11597e-13
3.28553e-13
2.12586e-13
2.04866e-13
1.53497e-13
6.49782e-14
1.38532e-14
1.89603e-14
6.34777e-14
4.60222e-13
4.52524e-12
2.52273e-12
6.79999e-12
2.02419e-12
1.12865e-11
7.44212e-09
1.25659e-09
2.04807e-10
6.56483e-11
2.33906e-11
8.42279e-12
3.00492e-12
1.05344e-12
3.37878e-13
1.11858e-13
6.19911e-14
5.20942e-14
3.46601e-14
1.22065e-14
1.68283e-15
1.88643e-15
5.84105e-15
5.56184e-14
4.26083e-13
1.92875e-13
7.48913e-13
2.6915e-13
1.60855e-12
1.73742e-09
3.05684e-10
7.7025e-11
2.68662e-11
9.24876e-12
3.26107e-12
1.1129e-12
3.78772e-13
1.14694e-13
3.52702e-14
1.73392e-14
1.25967e-14
7.00632e-15
2.00209e-15
1.99573e-16
1.62055e-16
4.46148e-16
5.63944e-15
2.95899e-14
1.30133e-14
5.14204e-14
2.86505e-14
2.85261e-13
2.48754e-10
6.38413e-11
2.44889e-11
8.98419e-12
3.05105e-12
1.08813e-12
3.6675e-13
1.16201e-13
3.27029e-14
9.65608e-15
4.50676e-15
2.68544e-15
1.25598e-15
2.94292e-16
2.24693e-17
1.35633e-17
3.12747e-17
5.06245e-16
1.86371e-15
7.49238e-16
2.68148e-15
3.82982e-15
4.24874e-14
3.0672e-11
1.49319e-11
6.77296e-12
2.49137e-12
8.65096e-13
3.14887e-13
1.04923e-13
3.15787e-14
8.35631e-15
2.27632e-15
9.80343e-16
5.1635e-16
1.98423e-16
3.75077e-17
2.3588e-18
1.15623e-18
2.08922e-18
3.9892e-17
1.11306e-16
3.81584e-17
1.75629e-16
7.40505e-16
5.61102e-15
4.68454e-12
3.50473e-12
1.59219e-12
5.96106e-13
2.19459e-13
7.64724e-14
2.6151e-14
7.55629e-15
1.89208e-15
4.88212e-16
1.92814e-16
8.67191e-17
2.92272e-17
4.54942e-18
2.39856e-19
9.53373e-20
1.29857e-19
2.6439e-18
5.87209e-18
1.87243e-18
2.07837e-17
1.00238e-16
7.25484e-16
8.64558e-13
7.22683e-13
3.25952e-13
1.28874e-13
5.06923e-14
1.76936e-14
5.81477e-15
1.58664e-15
3.76121e-16
9.53243e-17
3.32561e-17
1.35133e-17
4.14111e-18
5.35324e-19
2.317e-20
7.29202e-21
7.26184e-21
1.43953e-19
2.60781e-19
1.07487e-19
2.61249e-18
1.01258e-17
8.36795e-17
1.52071e-13
1.29247e-13
6.04778e-14
2.59102e-14
1.06796e-14
3.73815e-15
1.1483e-15
2.9404e-16
6.61529e-17
1.68468e-17
4.79035e-18
1.97129e-18
5.48191e-19
5.88225e-20
2.06497e-21
5.0888e-22
3.62793e-22
6.46467e-21
9.72652e-21
9.1564e-21
2.94102e-19
1.03233e-18
8.88509e-18
2.34501e-14
2.06286e-14
1.04587e-14
4.8659e-15
2.03805e-15
7.05707e-16
2.00832e-16
4.85113e-17
1.04238e-17
2.58569e-18
6.59938e-19
2.64927e-19
6.62061e-20
5.92944e-21
1.69013e-22
3.20321e-23
1.66905e-23
2.44638e-22
3.26557e-22
1.05461e-21
2.82328e-20
7.15767e-20
8.84352e-19
3.19244e-15
3.02323e-15
1.70192e-15
8.45694e-16
3.51432e-16
1.18484e-16
3.15164e-17
7.2041e-18
1.48998e-18
3.4877e-19
8.4486e-20
3.2557e-20
7.30008e-21
5.49852e-22
1.27945e-23
1.82317e-24
7.38575e-25
8.09724e-24
1.18646e-23
1.29597e-22
2.20657e-21
6.65648e-21
8.01466e-20
3.93335e-16
4.15674e-16
2.59938e-16
1.34682e-16
5.47622e-17
1.77719e-17
4.49362e-18
9.71159e-19
1.95464e-19
4.07633e-20
9.9116e-21
3.67023e-21
7.39525e-22
4.71848e-23
9.02123e-25
9.44838e-26
3.33676e-26
2.5205e-25
6.38049e-25
1.45347e-23
1.82344e-22
3.5697e-22
7.22288e-21
4.48836e-17
5.43291e-17
3.70323e-17
1.9556e-17
7.72987e-18
2.40335e-18
5.82644e-19
1.19353e-19
2.3857e-20
3.84391e-21
1.06745e-21
3.809e-22
6.90848e-23
3.76052e-24
5.95021e-26
4.50588e-27
1.65747e-27
8.59585e-27
5.0079e-26
1.42482e-24
1.06695e-23
2.64815e-23
5.43301e-22
4.83576e-18
6.76751e-18
4.89678e-18
2.58877e-18
9.92568e-19
2.95412e-19
6.87576e-20
1.3419e-20
2.6164e-21
3.53184e-22
1.06513e-22
3.64019e-23
5.96125e-24
2.78863e-25
3.68095e-27
2.01389e-28
9.63039e-29
3.95688e-28
4.28641e-27
1.21635e-25
8.80184e-25
8.19057e-25
3.86717e-23
5.00414e-19
7.98784e-19
5.99691e-19
3.13427e-19
1.16547e-19
3.32147e-20
7.41733e-21
1.38582e-21
2.59227e-22
3.15701e-23
9.87026e-24
3.20911e-24
4.75913e-25
1.92616e-26
2.12183e-28
8.76557e-30
6.03919e-30
2.56776e-29
3.52099e-28
9.32428e-27
4.04977e-26
6.67898e-26
2.37605e-24
5.03662e-20
8.86662e-20
6.80535e-20
3.48805e-20
1.25832e-20
3.43527e-21
7.35484e-22
1.32079e-22
2.3225e-23
2.6956e-24
8.5086e-25
2.61772e-25
3.52237e-26
1.24033e-27
1.13524e-29
3.97187e-31
4.4862e-31
1.86982e-30
1.9974e-29
4.77344e-28
3.05914e-27
3.23116e-27
1.57855e-25
4.95216e-21
9.21649e-21
7.17312e-21
3.58893e-21
1.2617e-21
3.30017e-22
6.76711e-23
1.17319e-23
1.87283e-24
2.18039e-25
6.8423e-26
1.99027e-26
2.42288e-27
7.45451e-29
5.71191e-31
2.02857e-32
3.01981e-32
1.01618e-31
1.45599e-30
3.22138e-29
1.70521e-28
1.82262e-28
8.80455e-27
4.75228e-22
8.97213e-22
7.07887e-22
3.43483e-22
1.11048e-22
2.7787e-23
5.44552e-24
9.17804e-25
1.23154e-25
1.56218e-26
5.15067e-27
1.329e-27
1.5505e-28
4.19548e-30
2.5558e-32
1.22458e-33
2.92364e-33
9.92037e-33
1.00449e-31
2.04394e-30
1.1136e-29
9.32814e-30
4.81137e-28
4.44774e-23
8.20537e-23
6.16774e-23
3.07512e-23
9.98563e-24
2.39471e-24
4.48581e-25
7.35981e-26
7.95261e-27
1.16538e-27
3.64369e-28
9.13163e-29
9.29715e-30
2.20841e-31
1.22097e-33
8.65157e-35
2.44269e-34
8.46343e-34
6.44193e-33
1.18086e-31
6.14098e-31
4.5321e-31
2.64927e-29
4.04983e-24
7.08111e-24
5.5312e-24
2.59078e-24
8.22065e-25
1.88717e-25
3.37395e-26
5.32646e-27
4.92434e-28
8.03775e-29
2.43055e-29
5.7416e-30
5.2249e-31
1.09403e-32
5.45426e-35
6.78223e-36
2.02421e-35
6.53745e-35
3.92452e-34
6.3295e-33
3.06661e-32
2.02766e-32
1.42928e-30
3.55976e-25
5.79328e-25
4.5651e-25
2.06376e-25
6.32365e-26
1.38713e-26
2.36427e-27
3.55773e-28
2.94187e-29
5.21694e-30
1.53497e-30
3.37009e-31
2.76585e-32
5.11503e-34
2.31987e-36
5.58486e-37
1.67188e-36
4.93045e-36
2.33336e-35
3.20408e-34
1.31129e-33
8.54369e-34
7.12672e-32
2.998e-26
4.51773e-26
3.5385e-26
1.56168e-26
4.60854e-27
9.63516e-28
1.56641e-28
2.22485e-29
1.71042e-30
3.22635e-31
9.21516e-32
1.87386e-32
1.38624e-33
2.26537e-35
9.79081e-38
4.65337e-38
1.3659e-37
3.70106e-37
1.38764e-36
1.53795e-35
5.55289e-35
3.56604e-35
3.28378e-33
2.37828e-27
3.32209e-27
2.61159e-27
1.12744e-27
3.19966e-28
6.35699e-29
9.87357e-30
1.30731e-30
9.6802e-32
1.90888e-32
5.28046e-33
9.92901e-34
6.61404e-35
9.54552e-37
4.3391e-39
3.84378e-39
1.09734e-38
2.76679e-38
8.40112e-38
7.05548e-37
2.39549e-36
1.49654e-36
1.45869e-34
1.79718e-28
2.34735e-28
1.84535e-28
7.7963e-29
2.12546e-29
4.0048e-30
5.95117e-31
7.22694e-32
5.33409e-33
1.0841e-33
2.89913e-34
5.03789e-35
3.02045e-36
3.84536e-38
2.15377e-40
3.12065e-40
8.64081e-40
2.05566e-39
5.23246e-39
3.18502e-38
1.01553e-37
9.00962e-38
7.17258e-36
0.804278
0.713876
0.608319
0.559307
0.287365
0.00285214
2.41261e-17
3.64055e-17
-1.04132e-11
5.08843e-12
2.84281e-07
4.69644e-07
3.66437e-09
8.71045e-09
1.24172e-07
1.45005e-06
3.07205e-10
8.88322e-11
2.35401e-11
2.82883e-08
5.92875e-11
4.35819e-14
2.09502e-22
4.70293e-19
1.05052e-08
1.84524e-09
4.70293e-19
1.93081e-22
3.26111e-08
2.50618e-08
5.81566e-09
7.77564e-09
2.92618e-08
3.17341e-08
7.45277e-08
6.12424e-08
1.00283e-07
1.08902e-07
8.30317e-08
1.82135e-07
1.84234e-06
7.23817e-07
1.88591e-06
3.29302e-07
5.86787e-06
5.86787e-06
5.86787e-06
1.6004e-06
4.72156e-07
6.3335e-07
2.23795e-06
3.23017e-06
5.04587e-09
8.53197e-08
2.03195e-07
4.3999e-07
6.17959e-09
1.51238e-08
2.09909e-08
5.67597e-08
1.19044e-08
1.08023e-08
8.01928e-09
1.23501e-08
1.18405e-08
9.63292e-09
8.24569e-09
6.32052e-09
3.29862e-09
3.44065e-09
3.06609e-09
2.08678e-09
3.0215e-10
2.09446e-10
2.23022e-10
2.64338e-10
2.31488e-11
2.18751e-11
2.49868e-11
4.63942e-11
2.49649e-12
3.80847e-12
7.83959e-12
1.47721e-11
4.65208e-13
1.00658e-12
2.09269e-12
4.17278e-12
8.08584e-14
1.67742e-13
4.02406e-13
7.73759e-13
1.2289e-14
2.30968e-14
5.96042e-14
1.09121e-13
1.89436e-15
2.81159e-15
7.02979e-15
1.43151e-14
2.3756e-16
2.81298e-16
8.08698e-16
2.07495e-15
2.55413e-17
3.30192e-17
1.0253e-16
3.20643e-16
2.57204e-18
2.9896e-18
1.08459e-17
4.59768e-17
2.92032e-19
3.72356e-19
8.36154e-19
5.23684e-18
3.23792e-20
3.35289e-20
8.70386e-20
5.05137e-19
2.73876e-21
3.33802e-21
6.5761e-21
3.92209e-20
2.12668e-22
1.90254e-22
4.80685e-22
2.30424e-21
1.57717e-23
1.47804e-23
2.81739e-23
1.3895e-22
1.12083e-24
9.2755e-25
1.60599e-24
7.34655e-24
6.1598e-26
5.31874e-26
7.83069e-26
3.4098e-25
2.81473e-27
2.66893e-27
3.67491e-27
1.45197e-26
1.55797e-28
1.12818e-28
1.55163e-28
5.71113e-28
7.47364e-30
4.70762e-30
6.09505e-30
2.14566e-29
3.29677e-31
1.95675e-31
2.81957e-31
1.22524e-30
1.40871e-32
9.67129e-33
3.30218e-32
2.63131e-31
6.44758e-34
1.1745e-33
1.15727e-32
1.33768e-31
6.7401e-35
8.39739e-34
1.41219e-32
2.01167e-31
0.0652669
0.00503541
0.000170623
-1.15078e-08
0.102918
0.629936
0.991739
0.925272
0.874261
0.777774
0.0925951
3.26014e-07
8.87452e-06
0.000512552
0.00280932
7.85007e-07
7.99603e-07
-1.61416e-10
0.268904
-9.49784e-13
-8.48632e-13
-1.43159e-09
-2.05059e-21
1.42391e-05
0.356684
0.793406
0.971808
0.97177
0.949937
0.412388
-3.64737e-10
-4.26351e-09
1.85036e-05
2.1994e-11
7.60459e-07
7.748e-07
0.0293094
0.35892
1.40583e-06
1.84428e-06
1.077e-06
3.87387e-08
-1.62694e-21
0.0411811
0.498524
0.817842
0.952059
0.847373
0.675847
0.32648
0.0861716
3.6547e-13
-1.30874e-10
8.50464e-11
0.0739878
0.213584
0.764086
1.91733e-06
1.93462e-06
9.46282e-07
3.02955e-11
-9.7494e-25
7.95852e-20
0.107902
0.479797
0.532284
0.496038
0.479092
0.373963
0.40948
0.374808
0.214308
0.224894
0.541486
0.731582
0.803075
4.92435e-07
9.41499e-07
2.34717e-07
2.58174e-08
3.07421e-08
-1.32823e-11
0.000600753
0.063061
0.15629
0.183597
0.192275
0.198668
0.223846
0.415521
0.547468
0.657138
0.822779
0.859273
0.766156
2.62053e-18
7.85945e-18
2.60036e-07
5.61889e-07
5.59589e-07
1.29508e-07
6.27367e-08
6.42611e-08
0.00017322
0.00839709
0.0169339
0.0132054
0.0109162
0.0561755
0.226758
0.540478
0.846382
0.870619
0.596852
3.96207e-18
2.93313e-08
1.13499e-07
3.46913e-07
7.40734e-07
7.37688e-07
5.55596e-07
7.36183e-08
9.18963e-10
8.90385e-10
9.03489e-10
8.94027e-10
9.03489e-10
5.565e-09
3.69375e-06
0.149265
0.799291
0.870855
0.512615
1.68544e-09
1.9777e-27
3.61798e-16
2.20133e-08
1.76364e-07
2.8074e-07
3.47424e-07
4.38842e-07
4.07176e-07
6.08347e-08
4.79147e-08
9.03489e-10
6.72288e-07
5.95826e-06
8.48632e-07
0.00783606
0.694109
0.869611
0.0657141
3.38478e-08
4.524e-28
1.01475e-10
5.54702e-11
5.60935e-11
8.19882e-11
9.44559e-11
6.54258e-08
6.2359e-08
1.4519e-07
2.43001e-07
3.03612e-07
2.45045e-06
1.27365e-05
2.83908e-05
0.0084913
0.561189
0.845907
1.83336e-05
5.28195e-08
1.71726e-10
5.49214e-10
7.55474e-11
6.42399e-11
5.61006e-11
3.56027e-11
4.67417e-13
7.33846e-13
4.71113e-08
5.26726e-07
3.79647e-06
7.53629e-06
7.49033e-06
7.50131e-06
0.000519603
0.346214
0.797681
1.80223e-05
4.18068e-08
4.01658e-08
8.8451e-09
1.02766e-10
1.153e-10
1.93604e-10
2.84104e-10
2.07091e-10
4.66756e-13
8.76686e-08
2.16707e-06
9.64803e-06
2.02234e-05
7.47762e-06
1.1903e-05
0.00154463
0.289627
0.636172
3.15726e-06
1.32968e-07
1.97863e-07
6.617e-08
5.3557e-09
1.1434e-10
2.26123e-10
4.37401e-10
5.53525e-10
4.3929e-10
4.01926e-11
4.23316e-11
1.41459e-05
5.47759e-05
5.53646e-05
1.28232e-05
0.0229356
0.0796739
0.0366719
3.06873e-06
1.34872e-06
9.69458e-07
4.33974e-07
5.55299e-08
1.67459e-10
3.76226e-10
3.4026e-10
4.21342e-10
4.00895e-10
1.12307e-10
2.76542e-11
4.46054e-08
4.48525e-05
0.000159983
0.000148157
-2.30698e-14
-5.77833e-12
-6.7769e-13
2.98475e-06
2.1898e-07
4.11368e-07
1.10735e-06
3.62647e-07
2.08411e-09
4.64639e-10
2.90435e-10
4.10817e-11
2.73917e-11
2.75637e-11
2.7855e-11
2.52703e-11
2.53595e-11
3.16318e-11
3.3484e-11
4.42487e-10
2.8026e-09
2.83046e-09
2.53157e-14
1.4822e-08
5.68063e-08
1.09373e-06
1.1172e-06
1.24864e-07
5.60594e-10
1.34147e-09
3.1345e-10
4.57648e-11
3.48183e-11
3.777e-11
4.52838e-11
4.61977e-11
5.72663e-11
1.42556e-10
7.81665e-10
1.27558e-09
9.58733e-10
2.49471e-14
5.77595e-09
5.81167e-09
2.71586e-07
6.95074e-07
2.44431e-07
6.54194e-10
2.02544e-09
1.27574e-09
1.84575e-10
3.98763e-11
2.58352e-11
2.04346e-11
2.14362e-11
1.8813e-11
5.82172e-12
6.93258e-14
2.53156e-14
2.49635e-14
2.46054e-14
1.51586e-09
5.48443e-09
1.15647e-07
1.2123e-07
6.31695e-08
3.55076e-09
2.14686e-09
2.11019e-09
7.38313e-10
8.07154e-11
2.44667e-11
1.01564e-11
7.27257e-12
5.8492e-12
4.71007e-12
4.10345e-12
4.1142e-12
5.05486e-13
1.63276e-14
1.4065e-09
1.34875e-08
1.76235e-08
1.20509e-08
1.59441e-09
1.17675e-09
2.04896e-09
2.16843e-09
1.35175e-09
2.60891e-10
5.44147e-11
2.8111e-11
2.61903e-11
2.7574e-11
2.57631e-11
2.11684e-11
1.11233e-11
7.39263e-13
1.2988e-14
1.37681e-09
2.41924e-09
3.75517e-10
5.66508e-11
1.29009e-10
7.21608e-10
1.52747e-09
1.43149e-09
1.12118e-09
4.34977e-10
1.18808e-10
4.34418e-11
3.97877e-11
4.49435e-11
4.98774e-11
4.58443e-11
1.60457e-11
9.07949e-13
1.30804e-14
4.64119e-10
2.75803e-10
7.00247e-11
5.6699e-11
2.41303e-10
6.18939e-10
8.69995e-10
7.7719e-10
5.00191e-10
2.59361e-10
1.20259e-10
5.23752e-11
4.47064e-11
4.81338e-11
5.48618e-11
5.52462e-11
2.17934e-11
1.36309e-12
1.56683e-14
8.623e-11
4.57638e-11
2.40206e-11
4.55102e-11
1.98625e-10
4.10198e-10
4.01305e-10
3.26831e-10
2.04557e-10
7.19637e-11
1.78695e-11
1.39188e-11
1.90828e-11
2.70731e-11
4.61758e-11
5.46815e-11
2.50414e-11
2.6253e-12
4.66661e-14
1.15654e-11
8.00454e-12
1.10263e-11
4.09463e-11
1.35593e-10
1.6212e-10
1.381e-10
9.99912e-11
4.26461e-11
1.16124e-11
3.7587e-12
2.9825e-12
4.07088e-12
1.10965e-11
2.71107e-11
4.6485e-11
2.51224e-11
3.7122e-12
1.21275e-13
1.65143e-12
2.17306e-12
6.63278e-12
2.62888e-11
5.39548e-11
4.89801e-11
3.73137e-11
1.9022e-11
5.22334e-12
1.1395e-12
5.53218e-13
5.75218e-13
1.14312e-12
3.28324e-12
1.52332e-11
3.50887e-11
2.08585e-11
3.67668e-12
2.1937e-13
4.04177e-13
9.32543e-13
3.41358e-12
1.13607e-11
1.4245e-11
1.14595e-11
6.66663e-12
2.11147e-12
3.95734e-13
7.72109e-14
5.25981e-14
6.82185e-14
1.74214e-13
8.45998e-13
1.00337e-11
2.26327e-11
1.48477e-11
3.10995e-12
3.33064e-13
1.23865e-13
4.31631e-13
1.26278e-12
2.84768e-12
2.67601e-12
1.81272e-12
7.42839e-13
1.67799e-13
1.79411e-14
1.97918e-15
1.67833e-15
1.0083e-14
7.75172e-14
4.72364e-13
9.1865e-12
1.56952e-11
9.68006e-12
2.70449e-12
4.44556e-13
3.11524e-14
1.25833e-13
3.27371e-13
4.41628e-13
3.68985e-13
2.02447e-13
5.8498e-14
6.97125e-15
2.94332e-16
1.13509e-17
1.21141e-17
1.78221e-15
1.79455e-14
3.60432e-13
9.2633e-12
1.14554e-11
6.64797e-12
2.50138e-12
5.33515e-13
5.72788e-15
2.36737e-14
5.0396e-14
5.11352e-14
3.66422e-14
1.50297e-14
2.81601e-15
2.05024e-16
4.64312e-18
2.50985e-20
1.3787e-20
6.16306e-17
2.80685e-15
2.01299e-13
8.02007e-12
8.05092e-12
5.27191e-12
2.53159e-12
5.96966e-13
7.8975e-16
3.14985e-15
5.47124e-15
4.63121e-15
2.54772e-15
7.4805e-16
9.95194e-17
4.72818e-18
6.14257e-20
3.21321e-21
3.25328e-21
4.12548e-19
1.87298e-16
1.21708e-13
5.70385e-12
6.02342e-12
4.51e-12
2.36688e-12
6.42703e-13
8.76706e-17
3.05285e-16
4.19608e-16
3.10453e-16
1.29811e-16
2.64566e-17
2.16497e-18
5.15753e-20
4.47235e-21
2.10591e-20
2.11223e-19
1.55913e-17
4.4826e-16
7.61294e-14
3.76308e-12
4.75269e-12
3.92149e-12
2.40401e-12
6.78244e-13
7.46975e-18
2.3673e-17
2.41281e-17
1.52663e-17
4.65773e-18
6.00254e-19
2.8081e-20
6.31004e-22
4.50063e-21
1.61947e-19
5.78104e-18
2.39501e-16
1.22745e-15
5.38261e-14
2.2595e-12
3.80566e-12
3.44121e-12
2.18766e-12
6.8653e-13
4.95384e-19
1.26548e-18
1.04465e-18
5.07098e-19
1.09579e-19
8.78642e-21
2.14238e-22
4.5915e-22
1.53874e-20
4.82979e-19
2.27456e-17
7.71709e-16
6.91917e-15
5.51556e-14
1.12305e-12
2.80867e-12
2.85733e-12
1.97556e-12
4.66017e-13
3.08393e-20
5.58473e-20
3.58968e-20
1.17968e-20
1.66137e-21
7.01797e-23
5.6046e-23
1.1905e-21
3.60625e-20
8.86301e-19
5.08116e-17
1.35341e-15
1.559e-14
1.11659e-13
7.18191e-13
1.91064e-12
1.98742e-12
1.20427e-12
3.26862e-13
1.50096e-21
1.90569e-21
9.71639e-22
2.05241e-22
1.49716e-23
8.8409e-24
6.8551e-23
1.90414e-21
4.65475e-20
1.00727e-18
5.52302e-17
1.58728e-15
1.77835e-14
1.3535e-13
6.17674e-13
1.21353e-12
1.2041e-12
6.32101e-13
1.1694e-13
6.55778e-23
5.49923e-23
2.16097e-23
2.58265e-24
9.65392e-25
4.33752e-24
4.89513e-23
1.02181e-21
2.06198e-20
3.069e-19
6.50065e-18
7.07521e-16
8.10971e-15
8.95287e-14
4.95649e-13
7.39017e-13
5.83851e-13
2.53855e-13
5.11777e-14
2.06577e-24
1.27109e-24
3.30348e-25
1.04513e-25
5.03882e-25
3.44122e-24
2.353e-23
2.49955e-22
3.80056e-21
5.65405e-20
5.42142e-19
9.23171e-17
1.78342e-15
2.88144e-14
1.91335e-13
2.71504e-13
1.90931e-13
7.60118e-14
1.35389e-14
6.29167e-26
2.68509e-26
9.25915e-27
4.74157e-26
3.9786e-25
2.81436e-24
1.73379e-23
1.07372e-22
7.28573e-22
7.28651e-21
6.77952e-20
2.30801e-18
2.80979e-16
3.64483e-15
2.58435e-14
4.35465e-14
3.55971e-14
1.56031e-14
3.53882e-15
1.63305e-27
7.39188e-28
3.1405e-27
3.08142e-26
2.84639e-25
2.03026e-24
1.30578e-23
7.14937e-23
3.42061e-22
1.50207e-21
1.10819e-20
1.18051e-19
9.68081e-18
3.08532e-16
2.8191e-15
5.00689e-15
4.41585e-15
2.51431e-15
6.01875e-16
5.11661e-29
1.60469e-28
1.81441e-27
1.94237e-26
1.87811e-25
1.35501e-24
8.64058e-24
4.7874e-23
2.1215e-22
7.91095e-22
2.52752e-21
1.20462e-20
2.78956e-19
9.16345e-18
2.12544e-16
4.08583e-16
3.75078e-16
2.84966e-16
1.04844e-16
6.46185e-30
7.39744e-29
9.60194e-28
1.06163e-26
1.04219e-25
7.8185e-25
5.07005e-24
2.7289e-23
1.15367e-22
4.0023e-22
1.17866e-21
2.77479e-21
6.07133e-21
3.82449e-20
4.96562e-18
8.02666e-18
1.0034e-17
1.38489e-17
2.41331e-17
2.44501e-30
3.7135e-29
5.60009e-28
7.02143e-27
6.80028e-26
4.97648e-25
2.9315e-24
1.36575e-23
5.25006e-23
1.58802e-22
4.27799e-22
8.57624e-22
1.61556e-21
1.51694e-21
1.78999e-21
1.77133e-20
2.73296e-19
2.52935e-18
1.25856e-17
1.75035e-30
4.17421e-29
7.07867e-28
8.21013e-27
6.74522e-26
4.12457e-25
1.957e-24
7.17112e-24
2.10097e-23
5.31926e-23
1.13764e-22
1.9675e-22
3.31264e-22
2.32912e-22
3.6674e-22
5.84063e-22
4.94815e-20
9.20846e-19
4.09141e-18
2.42714e-30
4.19655e-29
5.00652e-28
3.90554e-27
2.19315e-26
9.77601e-26
3.41746e-25
1.00476e-24
2.55807e-24
5.56318e-24
9.51905e-24
1.38817e-23
1.87082e-23
8.10363e-24
1.15817e-23
2.27153e-23
5.34522e-21
7.23425e-20
2.16711e-19
)
;

boundaryField
{
    leftWall
    {
        type            zeroGradient;
    }
    rightWall
    {
        type            zeroGradient;
    }
    lowerWall
    {
        type            zeroGradient;
    }
    atmosphere
    {
        type            inletOutlet;
        inletValue      uniform 0;
        value           nonuniform List<scalar> 
46
(
1.79718e-28
2.34735e-28
1.84535e-28
7.7963e-29
2.12546e-29
4.0048e-30
5.95117e-31
7.22694e-32
5.33409e-33
1.0841e-33
2.89913e-34
5.03789e-35
3.02045e-36
3.84536e-38
2.15377e-40
3.12065e-40
8.64081e-40
2.05566e-39
5.23246e-39
3.18502e-38
1.01553e-37
9.00962e-38
7.17258e-36
6.7401e-35
8.39739e-34
1.41219e-32
2.01167e-31
2.42714e-30
0
0
0
0
0
0
0
0
0
0
0
0
0
0
0
0
0
0
)
;
    }
    defaultFaces
    {
        type            empty;
    }
}


// ************************************************************************* //
