/*--------------------------------*- C++ -*----------------------------------*\
| =========                 |                                                 |
| \\      /  F ield         | OpenFOAM: The Open Source CFD Toolbox           |
|  \\    /   O peration     | Version:  2312                                  |
|   \\  /    A nd           | Website:  www.openfoam.com                      |
|    \\/     M anipulation  |                                                 |
\*---------------------------------------------------------------------------*/
FoamFile
{
    version     2.0;
    format      ascii;
    arch        "LSB;label=32;scalar=64";
    class       volScalarField;
    location    "0.8";
    object      alpha.air;
}
// * * * * * * * * * * * * * * * * * * * * * * * * * * * * * * * * * * * * * //

dimensions      [0 0 0 0 0 0 0];

internalField   nonuniform List<scalar> 
2268
(
8.54069e-14
7.18292e-14
5.29056e-14
3.88089e-14
3.01427e-14
2.38467e-14
1.81725e-14
1.21014e-14
6.42446e-15
2.75416e-15
1.04103e-15
4.65374e-16
2.30554e-16
1.83106e-16
2.01358e-16
2.41676e-16
1.83809e-16
1.24781e-16
1.25016e-16
1.35954e-16
1.01463e-16
3.13564e-17
1.5519e-17
1.43252e-12
1.24102e-12
9.74599e-13
6.89883e-13
4.57896e-13
2.67884e-13
1.42538e-13
6.77829e-14
2.94371e-14
2.03175e-14
8.7943e-15
5.0577e-15
3.85768e-15
4.15304e-15
7.13154e-15
1.10382e-14
9.16566e-15
1.68803e-15
9.83803e-16
9.4891e-16
7.56362e-16
4.34257e-16
6.03618e-17
2.76094e-11
2.5882e-11
2.25734e-11
1.69312e-11
1.02722e-11
5.26646e-12
2.03528e-12
7.78794e-13
2.40647e-13
7.84893e-14
3.08974e-14
2.21931e-14
3.14113e-14
5.44451e-14
1.31002e-13
2.58064e-13
3.14962e-13
6.6913e-14
7.25371e-15
6.38528e-15
7.37104e-15
3.38595e-15
7.36558e-16
9.59147e-11
9.45608e-11
9.04801e-11
7.98088e-11
5.94397e-11
3.18321e-11
1.23978e-11
5.57519e-12
2.7682e-12
8.68184e-13
3.4621e-13
2.84503e-13
3.58552e-13
7.43119e-13
2.2121e-12
5.62372e-12
8.76685e-12
4.20335e-12
2.52993e-14
2.04292e-14
2.18218e-14
3.3907e-15
6.28525e-13
1.30857e-10
1.31123e-10
1.27343e-10
1.19157e-10
1.02007e-10
6.8509e-11
3.21086e-11
1.33145e-11
6.90472e-12
3.77558e-12
2.1261e-12
1.51504e-12
1.6718e-12
4.1165e-12
1.6286e-11
4.95529e-11
8.6665e-11
4.77791e-11
2.79527e-13
1.67806e-11
2.18593e-14
6.16544e-11
1.03668e-10
1.60678e-10
1.5974e-10
1.53455e-10
1.4051e-10
1.20776e-10
9.01198e-11
4.9318e-11
2.22926e-11
1.14254e-11
7.2702e-12
4.68597e-12
4.13038e-12
5.35759e-12
1.44096e-11
4.81068e-11
1.31908e-10
2.34246e-10
1.67757e-12
1.76712e-12
2.19782e-09
4.15338e-09
2.14336e-09
7.67547e-10
1.95832e-10
1.93183e-10
1.84381e-10
1.66711e-10
1.42424e-10
1.11363e-10
6.30878e-11
2.95349e-11
1.44614e-11
8.90785e-12
7.24493e-12
9.74178e-12
2.11878e-11
2.95178e-11
2.93212e-11
2.91784e-11
6.88414e-10
2.23507e-08
8.63077e-08
5.50903e-08
2.14475e-08
4.12458e-09
7.71601e-10
2.31485e-10
2.28029e-10
2.16183e-10
2.02991e-10
1.67626e-10
1.31167e-10
8.19385e-11
3.72163e-11
1.78784e-11
1.26541e-11
1.38863e-11
2.40771e-11
3.61691e-11
7.15798e-10
2.68727e-08
9.72957e-08
1.66188e-07
2.8523e-07
3.41433e-07
1.10375e-09
1.08852e-09
1.09687e-09
4.88028e-06
0.0183676
0.00161251
0.00161267
0.00289926
0.00404925
0.00404813
0.00223614
0.00177058
0.000510548
0.0162696
0.0373345
0.0373345
0.0198413
0.0154175
0.10058
0.0563405
0.0243763
0.0243854
0.0266081
0.0230897
0.0079954
0.00684235
0.00391467
0.000440208
1.9514e-06
8.88173e-07
8.62233e-07
8.64085e-07
8.62232e-07
0.000193491
0.00276711
0.00160754
0.00497939
0.130214
0.0527179
0.0244235
0.0513816
0.0660098
0.0237346
0.0180539
0.012023
0.00600209
0.000341893
1.62323e-06
0.000116454
0.000178548
0.000178157
0.000309411
0.000273719
0.00057125
0.000587228
0.000303699
0.148448
0.0660153
0.0338124
0.111245
0.0727663
0.0252525
0.0253814
0.00298892
1.45548e-07
8.59297e-10
1.2976e-05
3.88887e-05
2.25424e-05
0.00218341
0.00444032
0.005737
0.00496053
0.00166452
0.00030468
0.147988
0.0572163
0.0860574
0.352322
0.0957628
0.1066
0.108976
0.0494717
0.00180488
1.23149e-05
7.93804e-07
2.36282e-07
2.21933e-05
0.0101089
0.00936946
0.0057999
0.00277547
0.000750857
0.000303847
0.0732259
0.0416913
0.174876
0.460614
0.0911941
0.246238
0.535172
0.465631
0.124099
1.2627e-06
1.25446e-06
3.10495e-06
0.00188733
0.00987312
0.0030412
0.00309061
0.000338042
0.000327127
0.0545675
0.0655372
0.0420556
0.174287
0.461685
0.0767119
0.419829
0.597634
0.617892
0.410567
0.0190035
7.55166e-08
0.000233452
0.00409874
0.00563391
0.0348413
0.092418
0.220078
0.150601
0.278773
0.0682999
0.0473922
0.161996
0.440452
0.0752671
0.0641622
0.171442
0.585204
0.542548
0.0813314
4.59343e-08
4.63828e-08
0.00239072
0.0180545
0.0815657
0.279588
0.48764
0.403232
0.320855
0.0680554
0.114281
0.676981
0.480382
0.0797678
2.72582e-10
2.66927e-10
2.56432e-10
2.46181e-10
2.2771e-10
1.865e-10
1.4098e-10
9.38942e-11
5.00957e-11
3.73327e-11
4.82763e-11
4.80884e-11
3.19279e-10
1.53649e-08
2.11932e-07
4.01222e-07
4.01819e-07
3.18118e-07
3.22585e-07
3.29441e-05
0.000388333
0.00198049
0.0171933
3.04443e-10
3.00813e-10
2.95031e-10
2.88905e-10
2.71898e-10
2.50669e-10
2.10127e-10
1.60385e-10
1.19024e-10
1.0965e-10
1.03513e-10
6.95032e-11
3.25871e-11
3.59495e-09
1.87486e-08
-2.69448e-10
-6.16295e-11
-1.48299e-21
2.87052e-06
0.000719872
0.00461737
0.0257674
0.109712
2.80736e-10
2.82138e-10
2.68877e-10
2.35066e-10
1.88393e-10
1.44328e-10
5.88562e-11
4.75852e-11
-1.97708e-13
-2.42045e-14
-9.04638e-14
-1.83131e-13
-2.58393e-14
0.00110046
0.0120299
0.0287482
0.0371664
0.0409436
0.0388629
0.0517324
0.180827
0.215386
0.111104
1.20102e-10
1.33091e-10
8.88929e-11
-2.02868e-13
-1.81046e-13
-6.07675e-14
2.4323e-22
7.05181e-22
0.00255715
0.00927392
0.00362421
0.0176306
0.152151
0.331392
0.455624
0.490927
0.497843
0.393564
0.0544897
0.0124646
0.0772581
0.0497003
2.82328e-09
3.67599e-12
4.18868e-12
1.21746e-09
1.39302e-07
0.00285221
0.0479013
0.045945
0.00513465
0.00259249
0.0227453
0.170121
0.401181
0.578925
0.693868
0.772904
0.763041
0.399848
0.0143237
0.00199889
1.55687e-06
1.38754e-06
1.27925e-06
6.89444e-09
2.9546e-12
2.95606e-12
1.28966e-06
0.0205964
0.0558363
0.0884839
0.0908614
0.0853264
0.181935
0.415463
0.780479
0.971646
0.999993
0.997572
0.666732
0.178176
0.0330073
3.13307e-05
1.89174e-06
1.67166e-06
2.56619e-06
0.0188738
0.0288784
0.207003
0.209932
0.284789
0.410532
0.434193
0.467035
0.616656
0.782306
0.917401
1
0.999999
0.999999
0.999999
0.828174
0.148392
0.000861857
0.000856613
0.00573774
0.28314
0.588767
0.741903
0.788876
0.565142
0.88551
0.855639
0.839576
0.841373
0.859617
0.942934
0.99317
0.999999
0.999999
0.999999
0.999998
0.999998
0.999999
0.585002
0.000862307
0.000856617
0.0487905
0.63711
0.982018
0.999869
1
1
1
0.971864
0.958119
0.961416
0.985843
0.999999
0.999999
0.999999
0.999999
1
1
0.999998
0.999998
0.999999
0.777852
0.190036
0.127904
0.605693
0.999999
0.999999
0.999998
1
1
1
0.971965
0.98971
0.999999
1
0.999999
0.999999
0.999999
1
1
1
1
0.999998
0.999993
0.98006
0.919096
0.90342
0.976212
1
1
0.999997
0.999996
0.999997
1
0.972521
0.999989
1
1
1
1
1
1
1
1
1
1
0.999998
0.999998
0.999998
1
1
1
1
0.999999
0.999996
0.999993
0.999993
0.983528
1
1
1
1
1
1
1
1
1
1
1
1
0.999999
0.999999
1
1
1
0.999999
1
1
0.999998
0.999996
0.999748
0.999984
0.999993
1
1
0.999998
1
1
1
1
1
1
1
1
1
1
1
1
1
1
0.999996
0.999996
0.999999
0.999991
0.999937
0.99994
1
0.999998
0.999998
1
1
1
1
1
1
1
1
1
1
1
1
1
1
0.999979
0.99997
0.999985
0.999991
0.999936
0.999951
1
0.999998
0.999998
1
1
1
1
1
1
1
1
1
1
1
1
1
1
0.999985
0.99997
0.999979
0.999994
0.999975
0.999996
1
1
1
1
1
1
1
1
1
1
1
1
1
1
1
1
1
0.999998
0.999998
0.999994
0.999999
0.999999
1
1
1
1
1
1
1
1
1
1
1
1
1
1
1
1
1
1
1
1
1
1
1
1
1
1
1
1
1
1
1
1
1
1
1
1
1
1
1
1
1
1
1
0.999995
1
1
1
1
1
1
1
1
1
1
1
1
1
1
1
1
1
1
1
1
0.999999
0.999999
1
1
1
1
1
1
1
1
1
1
1
1
1
1
1
1
1
1
1
1
1
1
1
1
1
1
1
1
1
1
1
1
1
1
1
1
1
1
1
1
1
1
1
1
1
1
1
1
1
1
1
1
1
1
1
1
1
1
1
1
1
1
1
1
1
1
1
1
1
1
1
1
1
1
1
1
1
1
1
1
1
1
1
1
1
1
1
1
1
1
1
1
1
1
1
1
1
1
1
1
1
1
1
1
1
1
1
1
1
1
1
1
1
1
1
1
1
1
1
1
1
1
1
1
1
1
1
1
1
1
1
1
1
1
1
1
1
1
1
1
1
1
1
1
1
1
1
1
1
1
1
1
1
1
1
1
1
1
1
1
1
1
1
1
1
1
1
1
1
1
1
1
1
1
1
1
1
1
1
1
1
1
1
1
1
1
1
1
1
1
1
1
1
1
1
1
1
1
1
1
1
1
1
1
1
1
1
1
1
1
1
1
1
1
1
1
1
1
1
1
1
1
1
1
1
1
1
1
1
1
1
1
1
1
1
1
1
1
1
1
1
1
1
1
1
1
1
1
1
1
1
1
1
1
1
1
1
1
1
1
1
1
1
1
1
1
1
1
1
1
1
1
1
1
1
1
1
1
1
1
1
1
1
1
1
1
1
1
1
1
1
1
1
1
1
1
1
1
1
1
1
1
1
1
1
1
1
1
1
1
1
1
1
1
1
1
1
1
1
1
1
1
1
1
1
1
1
1
1
1
1
1
1
1
1
1
1
1
1
1
1
1
1
1
1
1
1
1
1
1
1
1
1
1
1
1
1
1
1
1
1
1
1
1
1
1
1
1
1
1
1
1
1
1
1
1
1
1
1
1
1
1
1
1
1
1
1
1
1
1
1
1
1
1
1
1
1
1
1
1
1
1
1
1
1
1
1
1
1
1
1
1
1
1
1
1
1
1
1
1
1
1
1
1
1
1
1
1
1
1
1
1
1
1
1
1
1
1
1
1
1
1
1
1
1
1
1
1
1
1
1
1
1
1
1
1
1
1
1
1
1
1
1
1
1
1
1
1
1
1
1
1
1
1
1
1
1
1
1
1
1
1
1
1
1
1
1
1
1
1
1
1
1
1
1
1
1
1
1
1
1
1
1
1
1
1
1
1
1
1
1
1
1
1
1
1
1
1
1
1
1
1
1
1
1
1
1
1
1
1
0.057986
0.0720912
0.0735822
0.0565928
0.145265
0.144256
0.0400653
7.55871e-05
4.12025e-13
-8.13046e-19
6.80076e-23
4.65307e-17
3.51973e-10
-1.05311e-17
1.5264e-11
1.26382e-14
4.04345e-09
-1.79109e-13
6.51287e-11
2.53157e-11
1.09728e-08
1.50724e-08
6.99548e-11
1.3094e-08
0.307882
0.202836
0.10482
0.0282748
1
1
0.937874
0.645969
1
1
1
1
1
1
1
1
0.999999
0.999999
0.999998
1
0.999994
0.999994
0.999994
0.999999
0.999999
0.999999
0.999998
0.999997
1
1
1
0.999999
0.999999
1
1
1
0.999971
0.999919
0.999909
0.999909
0.999917
0.999909
0.999909
0.999909
0.999997
0.999969
0.999909
0.999909
1
0.999999
0.99998
0.999975
1
1
1
1
1
1
1
1
1
1
1
1
1
1
1
1
1
1
1
1
1
1
1
1
1
1
1
1
1
1
1
1
1
1
1
1
1
1
1
1
1
1
1
1
1
1
1
1
1
1
1
1
1
1
1
1
1
1
1
1
1
1
1
1
1
1
1
1
1
1
1
1
1
1
1
1
1
1
1
1
1
1
1
1
1
1
1
1
1
1
1
1
0.00255551
0.0974412
0.342165
0.674858
0.428667
0.013071
3.02843e-05
0.000873079
0.00285718
0.0341302
0.376481
0.488012
0.488339
0.161736
0.0845623
0.321437
0.908719
0.44248
0.049689
0.00289182
0.2453
0.830728
0.814659
0.540622
0.167301
2.04724e-05
0.000308475
0.0006801
2.73089e-06
0.12986
0.40292
0.595262
0.615175
0.498757
0.76128
0.779004
0.231514
0.0096029
0.0796932
0.778988
0.98432
0.964975
0.646604
0.490676
0.0345477
4.90693e-05
5.62276e-05
2.73093e-06
2.73089e-06
0.051329
0.31747
0.638657
0.760266
0.760911
0.358392
0.000655687
0.000529037
0.143133
0.829739
0.984434
0.98432
0.943386
0.667672
0.418995
0.0428064
2.73857e-06
2.73091e-06
0.00385189
0.0719006
0.0815422
0.234907
0.428709
0.398124
0.0273116
0.000211396
0.000760129
2.37185e-11
0.267349
0.852353
0.984423
0.984308
0.983584
0.804122
0.436848
0.198244
0.133844
0.298402
0.340418
0.310891
0.0493589
0.0169951
0.00394288
0.00017439
0.000213529
0.000780792
2.81748e-08
1.10835e-08
0.0905519
0.616558
0.87851
0.954846
0.953138
0.547816
0.262418
0.253112
0.246517
0.241343
0.241025
0.181032
0.0853062
0.0047915
0.000231651
0.00143024
0.000438886
2.03108e-06
-3.30961e-20
1.10919e-08
-1.22125e-12
0.0643795
0.446302
0.686291
0.796061
0.796716
0.7234
0.361485
0.248855
0.057957
0.00329741
0.0902187
0.0903659
0.00516505
0.00529423
0.00030858
0.321189
0.0538646
3.14844e-06
2.6548e-06
1.40537e-09
1.45555e-09
1.40486e-09
0.200694
0.401743
0.479623
0.559749
0.554685
0.150146
0.00320523
0.00400906
0.0518
0.00837363
0.00822613
6.9114e-06
1
0.691955
0.187343
0.00560023
1.17264e-07
5.35563e-09
2.73833e-09
-3.23882e-25
-1.46685e-08
-1.68527e-08
2.81537e-06
3.70742e-05
0.00853762
0.0157672
2.3523e-05
0.000465839
0.00272304
0.00189237
2.97043e-07
1
1
0.971785
0.513257
0.134268
9.7581e-09
1.04476e-08
5.25254e-08
0.000490575
0.00312239
0.00383591
0.00106744
1.50473e-08
1.91913e-06
9.22696e-06
9.71397e-06
8.47115e-10
8.60261e-10
3.76283e-07
1
1
1
1
0.896082
0.434699
0.116351
5.5685e-08
2.21784e-06
0.00578918
0.00653933
0.00639234
1.49128e-08
1.49164e-08
1.49128e-08
1.50719e-08
3.54299e-08
1.92313e-09
3.63783e-07
1
1
1
1
1
1
0.8628
0.402629
0.0847577
0.00412707
0.00373286
0.00122644
0.000202844
1.49128e-08
9.47539e-08
2.83471e-07
3.25019e-07
1.19156e-05
3.67231e-07
0.999999
0.999999
1
1
1
1
1
1
0.777473
0.307902
0.0393052
0.00102854
0.000250352
1.50535e-08
1.49462e-08
1.93917e-08
2.53595e-08
0.0014642
0.0269423
1
1
0.999999
1
1
1
1
1
1
1
0.674723
0.328922
0.181294
0.144653
0.14735
0.245632
0.312579
0.38869
0.429422
0.999996
0.999995
0.999993
0.999984
0.999999
1
1
1
1
1
0.999999
0.999986
0.916875
0.879994
0.887679
0.953181
0.954791
0.815245
0.641962
0.999967
0.999995
0.999839
0.999689
0.999904
1
1
1
1
1
1
0.999974
0.999952
0.999954
0.99999
0.999989
0.999792
0.792237
0.508637
0.999985
0.999933
0.999667
0.999667
0.999762
0.999995
1
1
1
1
1
0.999999
0.999992
0.999986
0.99997
0.999861
0.999841
0.968877
0.544281
0.999984
0.999987
0.999699
0.999667
0.999912
1
1
1
1
1
1
1
0.99999
0.999913
0.999862
0.998664
0.986626
0.997211
0.966969
0.999997
0.999995
0.999956
0.999962
0.999991
1
1
1
1
1
1
0.999999
0.999999
0.999957
0.999786
0.999085
0.982919
0.997326
0.999539
1
1
1
1
1
1
1
1
1
1
1
1
0.999999
1
1
1
0.984774
0.996628
0.999539
1
1
1
1
1
1
1
1
1
1
1
1
1
1
1
1
1
0.995911
0.999429
1
1
1
1
1
1
1
1
1
1
1
1
1
1
1
1
1
0.995787
0.998442
1
1
1
1
1
1
1
1
1
1
1
1
1
1
1
1
1
0.995788
0.998099
1
1
1
1
1
1
1
1
1
1
1
1
1
1
1
1
1
0.995787
0.999409
1
1
1
1
1
1
1
1
1
1
1
1
1
1
1
1
0.999636
0.99696
0.999932
1
1
1
1
1
1
1
1
1
1
1
1
1
1
1
0.99981
0.997038
0.999978
0.999999
1
1
1
1
1
1
1
1
1
1
1
1
1
1
1
0.998537
0.997051
0.999763
0.999999
1
1
1
1
1
1
1
1
1
1
1
1
1
1
1
0.999205
0.99803
0.99975
0.999999
1
1
1
1
1
1
1
1
1
1
1
1
1
1
1
1
1
0.999988
0.999998
1
1
1
1
1
1
1
1
1
1
1
1
1
1
1
1
1
1
1
1
1
1
1
1
1
1
1
1
1
1
1
1
1
1
1
1
1
1
1
1
1
1
1
1
1
1
1
1
1
1
1
1
1
1
1
1
1
1
1
1
1
1
1
1
1
1
1
1
1
1
1
1
1
1
1
1
1
1
1
1
1
1
1
1
1
1
1
1
1
1
1
1
1
1
1
1
1
1
1
1
1
1
1
1
1
1
1
1
1
1
1
1
1
1
1
1
1
1
1
1
1
1
1
1
1
1
1
1
1
1
1
1
1
1
1
1
1
1
1
1
1
1
1
1
1
1
1
1
1
1
1
1
1
1
1
1
1
1
1
1
1
1
1
1
1
1
1
1
1
1
1
1
1
1
1
1
1
1
1
1
1
1
1
1
1
1
1
1
1
1
1
1
1
1
1
1
1
1
1
1
1
1
1
1
1
1
1
1
1
1
1
1
1
1
1
1
1
1
1
1
1
1
1
1
1
1
1
1
1
1
1
1
1
1
1
1
1
1
1
1
1
1
1
1
1
1
1
)
;

boundaryField
{
    leftWall
    {
        type            alphaContactAngle;
        thetaProperties 
6
(
(galistan air) 90 0 0 0
(oil galistan) 90 0 0 0
(water oil) 90 0 0 0
(water air) 90 0 0 0
(oil air) 90 0 0 0
(water galistan) 90 0 0 0
);
        value           nonuniform List<scalar> 
50
(
8.54069e-14
1.43252e-12
2.76094e-11
9.59147e-11
1.30857e-10
1.60678e-10
1.95832e-10
2.31485e-10
2.72582e-10
3.04443e-10
2.80736e-10
1.20102e-10
3.67599e-12
2.9546e-12
0.207003
0.88551
0.971864
0.971965
0.972521
0.983528
0.999748
0.999991
0.999991
0.999994
0.999999
1
1
1
1
1
1
1
1
1
1
1
1
1
1
1
1
1
1
1
1
1
1
1
1
1
)
;
    }
    rightWall
    {
        type            alphaContactAngle;
        thetaProperties 
6
(
(galistan air) 90 0 0 0
(oil galistan) 90 0 0 0
(water oil) 90 0 0 0
(water air) 90 0 0 0
(oil air) 90 0 0 0
(water galistan) 90 0 0 0
);
        value           nonuniform List<scalar> 
50
(
0.0266081
0.0660098
0.0727663
0.0957628
0.0911941
0.0767119
0.0752671
0.0797678
0.049689
0.0096029
0.000529037
0.000760129
0.000780792
0.000438886
0.00030858
6.9114e-06
2.97043e-07
3.76283e-07
3.63783e-07
3.67231e-07
0.0269423
0.429422
0.641962
0.508637
0.544281
0.966969
0.999539
0.999539
0.999429
0.998442
0.998099
0.999409
0.999932
0.999999
0.999999
0.999999
0.999998
1
1
1
1
1
1
1
1
1
1
1
1
1
)
;
    }
    lowerWall
    {
        type            alphaContactAngle;
        thetaProperties 
6
(
(galistan air) 90 0 0 0
(oil galistan) 90 0 0 0
(water oil) 90 0 0 0
(water air) 90 0 0 0
(oil air) 90 0 0 0
(water galistan) 90 0 0 0
);
        value           nonuniform List<scalar> 
62
(
8.54069e-14
7.18292e-14
5.29056e-14
3.88089e-14
3.01427e-14
2.38467e-14
1.81725e-14
1.21014e-14
6.42446e-15
2.75416e-15
1.04103e-15
4.65374e-16
2.30554e-16
1.83106e-16
2.01358e-16
2.41676e-16
1.83809e-16
1.24781e-16
1.25016e-16
1.35954e-16
1.01463e-16
3.13564e-17
1.5519e-17
1.5519e-17
6.03618e-17
7.36558e-16
6.28525e-13
1.03668e-10
7.67547e-10
7.71601e-10
4.88028e-06
0.057986
0.0720912
0.0735822
0.0565928
0.0183676
0.0230897
0.0237346
0.0252525
0.1066
0.246238
0.419829
0.0641622
0.0183676
0.00161251
0.00161267
0.00289926
0.00404925
0.00404813
0.00223614
0.00177058
0.000510548
0.0162696
0.0373345
0.0373345
0.0198413
0.0154175
0.10058
0.0563405
0.0243763
0.0243854
0.0266081
)
;
    }
    atmosphere
    {
        type            inletOutlet;
        inletValue      uniform 1;
        value           nonuniform List<scalar> 
46
(
1
1
1
1
1
1
1
1
1
1
1
1
1
1
1
1
1
1
1
1
1
1
1
1
1
1
1
1
1
1
1
1
1
1
1
1
1
1
1
1
1
1
1
1
1
1
)
;
    }
    defaultFaces
    {
        type            empty;
    }
}


// ************************************************************************* //
