/*--------------------------------*- C++ -*----------------------------------*\
| =========                 |                                                 |
| \\      /  F ield         | OpenFOAM: The Open Source CFD Toolbox           |
|  \\    /   O peration     | Version:  2312                                  |
|   \\  /    A nd           | Website:  www.openfoam.com                      |
|    \\/     M anipulation  |                                                 |
\*---------------------------------------------------------------------------*/
FoamFile
{
    version     2.0;
    format      ascii;
    arch        "LSB;label=32;scalar=64";
    class       volScalarField;
    location    "3.65";
    object      alpha.galistan;
}
// * * * * * * * * * * * * * * * * * * * * * * * * * * * * * * * * * * * * * //

dimensions      [0 0 0 0 0 0 0];

internalField   nonuniform List<scalar> 
2268
(
1
1
1
1
1
1
1
1
1
1
1
1
1
1
1
1
1
1
1
1
1
0.999952
0.999947
1
1
1
1
1
1
1
1
1
1
1
1
1
1
1
1
1
1
1
1
1
0.999975
0.999948
1
1
1
1
1
1
1
1
1
1
1
1
1
1
1
1
1
1
1
1
1
0.999999
0.999991
0.99993
0.999938
0.999992
0.999996
1
1
0.999999
0.999999
1
1
1
1
1
0.999999
0.999998
0.999999
1
1
1
1
1
1
0.999999
0.941281
0.942663
0.944982
0.947119
0.949406
0.953069
0.959546
0.968886
0.980225
0.991337
0.998531
0.999945
0.999967
0.999942
0.999961
0.999998
0.99984
0.999978
0.999867
0.999937
1
1
1
0.24211
0.247518
0.251944
0.255636
0.260513
0.268272
0.285158
0.314795
0.361521
0.43175
0.527845
0.640519
0.73373
0.820386
0.904585
0.966644
0.997771
0.997782
0.999783
1
1
1
1
8.04499e-20
8.02153e-20
2.07363e-14
8.33085e-12
-2.17562e-08
-3.58411e-09
-3.67101e-08
-7.95967e-09
-9.78657e-09
1.44245e-12
1.39189e-12
0.00469102
0.0473816
0.109969
0.201434
0.350049
0.542791
0.737055
0.910213
0.991186
0.994267
0.997114
0.991879
1.19219e-14
6.8471e-11
9.85031e-07
2.37286e-05
5.25819e-05
5.32155e-05
4.99006e-05
2.02599e-05
1.82477e-05
4.62924e-05
4.41938e-05
1.38537e-05
1.06394e-05
1.06571e-05
1.06394e-05
1.06623e-05
0.0159077
0.0865138
0.249181
0.50856
0.767908
0.920115
0.988978
0.958076
0.957383
0.955411
0.95719
0.957449
0.95397
0.951948
0.953436
0.954016
0.954935
0.954957
0.955044
0.95609
0.958058
0.957968
0.957726
0.955763
0.953394
0.953373
0.939821
0.945057
0.946422
0.95069
0.950827
0.950146
0.948141
0.941125
0.941381
0.952323
0.955361
0.958804
0.960745
0.960706
0.957586
0.938315
0.93235
0.92477
0.902231
0.460536
0.509914
0.532222
0.542659
0.521093
0.496523
0.500872
0.529083
0.584048
0.633755
0.60958
0.62235
0.669857
0.67758
0.613444
0.588954
0.542061
0.509231
0.472607
0.0384902
0.00755114
0.00128571
0.00132861
0.00267506
0.000461379
0.000452779
0.000454524
0.00612086
0.0829291
0.208474
0.281909
0.348527
0.382301
0.370793
0.325543
0.26928
0.184504
0.14543
0.000986605
0.00221584
0.00840574
0.00524981
0.00152071
0.000871128
0.00128212
0.00302882
0.00590002
0.0022016
0.00220341
0.00220354
0.0106064
0.0148169
0.0197909
0.0118042
0.00311057
0.00171582
0.0017153
0.00144216
0.0103853
0.0100842
0.011777
0.0125365
0.0125366
0.0104801
0.00604098
0.00835981
0.00388627
0.00220359
0.00220537
0.00308274
0.00610572
0.00572991
0.00663009
0.00430631
0.0017153
0.0017153
0.00313414
0.00320297
0.000727507
0.000720577
0.00238708
0.00248209
0.00269575
0.00399452
0.0212772
0.00220635
0.00220578
0.00220555
0.00220736
0.00220774
0.00222386
0.0033429
0.00424699
0.001943
0.0017153
0.00313183
0.00073288
0.000723418
0.000713932
0.00071249
0.000712494
0.00071249
0.00606036
0.0228305
0.00286735
0.00234913
0.00939677
0.00784604
0.0026791
0.00222044
0.00223228
0.00337941
0.00489526
0.00549792
2.20465e-06
1.06666e-06
6.43155e-06
9.44225e-05
9.39229e-05
5.50133e-05
3.00156e-05
3.62408e-05
3.03029e-05
0.000359462
0.000817028
0.000817595
0.000571771
0.000552897
0.00910715
0.0113559
0.0114901
0.0118293
0.00304909
0.0057058
0.0386844
0.11064
0.189107
3.70349e-05
1.58687e-05
3.45002e-06
3.45572e-06
8.81506e-05
0.000115286
7.31273e-05
2.25181e-05
1.17795e-05
1.35098e-05
0.00121578
0.00171929
0.0012302
0.00189554
0.00226258
0.00237282
0.00128689
0.000695608
0.00069561
0.00144043
0.00161704
0.000915891
0.00536925
0.0002403
0.000158701
1.58722e-05
6.01158e-05
0.000354312
0.000482795
0.000297583
7.30994e-05
1.19375e-05
0.000190117
0.00279563
0.00288756
0.00288516
0.00156731
0.00140178
0.00192877
0.000893237
0.000699145
0.00229644
0.00269674
0.00153323
0.000387113
0.000181047
0.00028931
0.000340986
0.00156417
0.00195529
0.00120382
0.000915546
0.000167147
0.000194864
0.00041307
0.0010101
0.00229942
0.00196957
0.00150458
0.0017166
0.00390949
0.00614472
0.0049833
0.000889799
0.00293043
0.00292843
0.00293047
0.00102612
0.00018038
0.000357045
0.00103399
0.0026671
0.00266707
0.000976366
4.77844e-05
0.000213951
0.00134493
0.00171411
0.00171432
0.000171783
0.000153988
0.0013393
0.00603895
0.00614472
0.00614469
0.00212528
0.000190724
0.00108854
0.00187576
0.000983694
0.000374432
4.85792e-05
0.000348321
0.000379386
0.00166059
0.00229248
0.00132094
0.000164041
6.30799e-06
0.000528191
0.00155921
0.000475232
3.97998e-05
0.000179446
0.00218808
0.00286389
0.00154077
0.000700914
0.000129481
4.7408e-06
4.79785e-06
0.000294267
0.000124712
5.98481e-05
3.8956e-05
0.000427174
0.000926782
0.000331351
0.000253314
3.93743e-05
5.93441e-06
5.96207e-06
3.03317e-05
2.91883e-05
4.94723e-05
3.91878e-05
5.73876e-05
0.000116035
1.71249e-05
1.5493e-05
6.75641e-05
0.000132251
0.00012979
0.000139704
0.000139515
0.000134954
0.000704426
0.000810283
0.000445025
0.00073481
0.000170265
9.53588e-05
1.65985e-05
9.06406e-06
1.97001e-05
4.60064e-05
3.10563e-05
2.56541e-06
2.66214e-06
2.64228e-07
1.9489e-07
2.05036e-05
0.000183697
0.000359747
0.000359298
0.000338124
0.000338406
0.000261391
0.000282568
0.00085359
0.00167383
8.80868e-05
8.9254e-05
9.63368e-05
4.48003e-05
2.77743e-05
4.08497e-05
8.65263e-05
8.40486e-05
4.46598e-05
4.788e-05
1.38997e-05
9.58113e-07
1.86997e-07
1.36631e-05
0.000156283
0.000148305
3.6665e-05
3.95792e-06
1.56743e-06
1.19784e-05
7.04915e-05
0.000305251
0.000735006
0.000562012
0.000925715
0.00108886
0.00086957
0.000660914
0.000665976
0.000771162
0.00090185
0.000867407
0.000482626
2.09118e-05
3.62099e-07
2.07527e-07
3.78627e-05
6.98583e-05
9.4446e-06
7.15331e-09
2.23016e-08
6.95163e-09
3.58392e-08
1.50318e-08
5.16294e-08
5.12896e-08
0.00109528
0.00125872
0.00130699
0.00128931
0.0012229
0.00122071
0.00128989
0.00130915
0.00122841
0.000434541
1.61258e-06
7.53223e-07
3.05169e-05
4.70053e-05
4.27553e-06
9.46534e-09
6.4114e-09
4.24322e-09
3.89991e-09
2.87372e-09
2.36933e-09
4.16607e-08
7.44592e-08
1.80097e-05
3.8749e-09
4.85455e-06
-7.41444e-08
1.01531e-07
2.80281e-06
6.60237e-05
0.00011146
2.26023e-05
2.46643e-05
4.30394e-06
2.27091e-05
4.05951e-05
1.51182e-05
3.66162e-08
3.3727e-08
3.2299e-08
1.87188e-08
1.12878e-08
9.68275e-09
6.96998e-10
2.39905e-09
1.18211e-08
1.26197e-09
1.37886e-09
1.24188e-09
1.36308e-09
1.24014e-09
1.25119e-09
1.2616e-09
-5.82863e-09
1.26159e-09
8.41471e-06
1.03741e-06
9.94202e-06
2.95462e-05
8.08343e-07
9.8101e-08
3.83342e-08
3.57685e-08
2.68835e-08
5.64932e-09
5.46965e-09
1.02907e-08
3.42621e-08
2.20755e-11
1.96022e-09
6.95352e-09
1.64697e-08
2.19148e-08
2.0713e-08
1.96107e-08
1.39707e-09
1.50352e-06
8.78379e-06
8.06369e-06
3.95893e-09
4.6759e-08
6.39236e-07
2.78802e-07
9.98512e-08
7.87452e-08
9.04206e-08
3.97593e-08
5.70372e-09
5.01597e-08
7.73765e-07
1.45177e-06
8.70509e-07
2.78122e-09
8.55771e-09
2.53495e-08
3.09024e-08
3.09684e-08
2.55027e-08
4.14362e-08
2.19966e-07
8.51759e-07
1.11109e-06
3.87358e-09
4.0094e-09
3.34542e-08
3.25361e-08
2.14411e-07
3.25518e-07
2.38872e-07
4.09125e-08
3.83295e-08
1.28063e-06
2.58923e-06
2.69445e-06
2.31294e-06
1.84584e-09
4.47204e-09
1.03777e-08
1.90097e-08
2.81907e-08
5.14819e-08
6.20425e-08
2.62056e-08
2.69324e-08
2.67207e-08
9.23199e-08
3.06212e-07
4.81163e-07
4.80983e-07
5.02374e-07
3.52247e-07
2.44116e-07
8.15338e-07
1.44251e-06
1.76856e-06
1.84533e-06
1.34947e-06
6.93513e-07
1.34085e-09
1.4868e-09
1.63621e-09
2.13686e-09
2.60171e-08
1.67516e-07
2.61471e-07
2.15276e-07
2.81026e-07
4.01102e-07
4.10529e-07
4.10497e-07
2.69646e-07
2.60533e-07
5.65205e-07
1.23554e-06
1.23126e-06
3.00278e-07
4.05425e-07
3.69826e-07
1.1625e-07
8.76013e-09
9.69464e-09
1.19702e-09
1.37488e-09
2.049e-09
4.6924e-09
3.77012e-08
2.17688e-07
2.69327e-07
2.68031e-07
1.28781e-07
9.63392e-08
1.43878e-07
9.17248e-08
5.03264e-08
1.44531e-07
4.34669e-07
6.52498e-07
3.24416e-07
3.33364e-09
3.19506e-09
6.01229e-10
5.97192e-10
3.4585e-09
4.35984e-10
1.17499e-09
1.50236e-09
3.36995e-09
6.8467e-09
1.45158e-08
9.79667e-09
2.94035e-08
8.70377e-09
3.54058e-09
3.53389e-09
3.54057e-09
3.5339e-09
2.53205e-08
8.03226e-08
8.864e-08
4.7142e-09
7.15916e-10
7.2244e-10
2.13157e-09
8.22102e-10
6.24388e-10
4.26014e-10
4.3654e-10
1.12953e-09
1.20843e-09
2.52544e-09
3.58521e-09
2.23457e-09
2.4142e-09
2.47905e-09
2.49581e-09
4.20609e-09
4.41051e-09
4.35253e-09
4.84154e-09
6.03611e-09
5.53947e-09
7.33004e-10
7.32259e-10
7.79412e-10
6.43071e-10
6.75906e-10
4.45978e-10
3.38807e-10
2.71242e-10
2.81991e-10
1.08975e-09
8.14207e-10
1.46792e-09
1.67998e-09
2.20101e-09
2.4916e-09
2.74549e-09
3.84488e-09
4.20486e-09
3.99167e-09
3.51617e-09
3.05842e-09
2.72032e-09
2.07756e-09
1.09204e-09
7.29946e-10
5.19635e-10
3.579e-10
2.66083e-10
2.05162e-10
1.59445e-10
1.18817e-10
1.69249e-10
1.07178e-09
5.3453e-10
9.29983e-10
1.22944e-09
1.52094e-09
1.75827e-09
2.04305e-09
2.22385e-09
2.17359e-09
1.92082e-09
1.62818e-09
1.31689e-09
1.03183e-09
7.76382e-10
5.29134e-10
3.51812e-10
2.26367e-10
1.50545e-10
1.01635e-10
8.23799e-11
6.4469e-11
6.49095e-11
7.81981e-11
1.07072e-09
3.49301e-10
5.49713e-10
6.74658e-10
7.7361e-10
8.41353e-10
8.63732e-10
8.289e-10
7.20228e-10
6.06644e-10
4.89996e-10
3.79256e-10
2.98276e-10
2.29945e-10
1.64875e-10
1.14624e-10
7.5095e-11
4.61883e-11
3.59966e-11
3.25867e-11
2.94022e-11
2.64362e-11
3.7448e-11
1.08625e-09
2.37609e-10
2.88696e-10
3.16446e-10
3.19099e-10
3.03734e-10
2.74831e-10
2.35515e-10
1.86859e-10
1.50344e-10
1.14529e-10
8.63996e-11
6.4454e-11
4.85645e-11
3.78532e-11
2.75532e-11
1.6989e-11
1.27409e-11
1.16545e-11
1.16287e-11
1.14992e-11
1.33467e-11
1.6588e-11
1.10197e-09
1.78082e-10
1.47953e-10
1.40882e-10
1.18944e-10
9.79353e-11
7.66223e-11
5.66663e-11
4.23066e-11
3.01816e-11
2.11095e-11
1.54776e-11
1.19347e-11
9.48947e-12
7.5907e-12
5.11844e-12
3.90574e-12
3.60501e-12
3.68402e-12
3.98113e-12
4.47863e-12
4.84791e-12
7.4119e-12
1.11716e-09
1.29797e-10
7.66042e-11
5.99928e-11
4.44017e-11
3.23589e-11
2.2983e-11
1.65819e-11
1.16083e-11
7.86874e-12
4.9545e-12
3.18692e-12
2.28454e-12
1.80738e-12
1.4531e-12
1.15982e-12
9.57418e-13
9.71002e-13
1.07356e-12
1.25786e-12
1.44032e-12
2.20671e-12
2.94543e-12
1.14755e-09
1.14196e-10
3.19972e-11
2.78575e-11
2.3727e-11
2.28225e-11
2.23705e-11
1.96995e-11
1.66511e-11
1.20761e-11
6.981e-12
3.68637e-12
1.78593e-12
8.55392e-13
4.47477e-13
2.88869e-13
2.36156e-13
2.41532e-13
2.91818e-13
3.82527e-13
5.34634e-13
7.22763e-13
1.23696e-12
1.18448e-09
1.17824e-10
2.48064e-11
2.58913e-11
3.43831e-11
4.86262e-11
5.6211e-11
5.06344e-11
4.132e-11
2.69254e-11
1.48104e-11
7.46372e-12
3.32614e-12
1.33524e-12
4.85987e-13
1.71041e-13
7.54412e-14
5.95885e-14
7.24535e-14
1.03328e-13
1.48569e-13
2.91531e-13
4.4791e-13
1.24039e-09
1.31811e-10
3.00474e-11
4.27615e-11
7.81701e-11
1.23109e-10
1.58889e-10
1.55972e-10
1.04149e-10
5.16558e-11
2.75565e-11
1.36541e-11
6.05202e-12
2.41504e-12
8.43724e-13
2.54859e-13
6.59291e-14
2.19588e-14
1.75518e-14
2.54706e-14
4.83576e-14
7.89088e-14
1.7009e-13
1.29434e-09
1.54727e-10
4.46626e-11
9.80305e-11
1.90996e-10
2.94414e-10
3.42972e-10
2.98288e-10
1.91149e-10
8.688e-11
4.502e-11
2.19438e-11
9.7903e-12
3.93108e-12
1.40632e-12
4.28755e-13
1.04571e-13
2.26295e-14
6.37578e-15
6.23468e-15
1.1269e-14
3.09628e-14
5.56724e-14
1.38177e-09
1.84684e-10
7.34511e-11
1.72417e-10
4.36331e-10
6.97795e-10
7.14526e-10
4.97191e-10
2.9427e-10
1.37726e-10
6.52548e-11
3.08455e-11
1.3937e-11
5.70826e-12
2.10047e-12
6.71317e-13
1.7212e-13
3.58468e-14
6.13049e-15
1.94244e-15
3.63431e-15
8.12456e-15
2.23193e-14
1.46878e-09
2.27602e-10
1.11606e-10
3.92087e-10
8.63179e-10
1.20071e-09
1.26824e-09
8.12234e-10
3.70188e-10
1.78939e-10
8.28519e-11
3.77725e-11
1.72134e-11
7.18461e-12
2.74412e-12
9.2382e-13
2.58056e-13
5.59666e-14
9.05713e-15
1.16848e-15
8.62276e-16
3.32044e-15
7.93881e-15
1.60501e-09
2.87247e-10
1.94971e-10
6.21386e-10
1.23558e-09
1.58693e-09
1.71957e-09
1.10755e-09
4.56164e-10
1.91375e-10
9.11728e-11
4.04736e-11
1.83926e-11
7.79073e-12
3.02253e-12
1.09538e-12
3.27155e-13
8.08818e-14
1.44461e-14
1.9204e-15
4.23566e-16
8.28273e-16
3.55593e-15
1.72118e-09
3.70209e-10
2.17659e-10
7.92632e-10
1.35615e-09
1.73063e-09
1.83389e-09
1.35475e-09
4.81145e-10
1.94479e-10
8.58762e-11
3.82781e-11
1.72911e-11
7.1458e-12
2.86644e-12
1.07509e-12
3.60904e-13
9.77361e-14
1.97798e-14
2.85782e-15
3.24811e-16
3.84064e-16
1.33092e-15
1.96286e-09
5.21446e-10
2.53039e-10
7.26856e-10
1.1858e-09
1.59375e-09
1.81367e-09
1.3431e-09
4.61746e-10
1.61127e-10
7.23309e-11
3.10628e-11
1.40171e-11
5.94748e-12
2.35013e-12
8.93715e-13
3.22791e-13
9.9282e-14
2.25858e-14
3.61958e-15
4.23463e-16
1.10247e-16
5.0005e-16
2.13832e-09
7.20712e-10
3.03057e-10
5.94908e-10
8.73229e-10
1.16801e-09
1.59889e-09
1.03361e-09
3.95254e-10
1.3462e-10
5.53744e-11
2.36854e-11
1.0388e-11
4.2951e-12
1.62177e-12
6.0977e-13
2.32215e-13
8.07769e-14
2.14454e-14
3.90465e-15
4.71147e-16
6.76807e-17
1.76932e-16
2.27078e-09
9.79717e-10
4.88142e-10
5.56369e-10
6.62428e-10
8.98451e-10
1.21724e-09
8.1927e-10
3.31145e-10
1.04338e-10
3.89576e-11
1.52863e-11
6.62816e-12
2.65582e-12
9.47529e-13
3.3782e-13
1.3023e-13
4.93527e-14
1.55967e-14
3.34604e-15
4.75534e-16
3.85937e-17
4.91328e-17
2.27372e-09
1.33427e-09
7.89672e-10
5.80486e-10
5.86112e-10
8.42891e-10
8.85152e-10
6.00556e-10
2.29544e-10
7.05386e-11
2.22747e-11
8.36212e-12
3.67206e-12
1.41854e-12
4.65936e-13
1.50318e-13
5.428e-14
2.12822e-14
7.72541e-15
2.10256e-15
3.48647e-16
3.06804e-17
1.40502e-17
2.19761e-09
1.50572e-09
8.56806e-10
6.0581e-10
6.0613e-10
8.18565e-10
6.82668e-10
3.62293e-10
1.34903e-10
3.63556e-11
1.01454e-11
3.8815e-12
1.72366e-12
6.49817e-13
1.96209e-13
5.39682e-14
1.64087e-14
5.82953e-15
2.40896e-15
8.76426e-16
1.99283e-16
2.00889e-17
3.73054e-18
2.00559e-09
1.43965e-09
8.61647e-10
6.22262e-10
7.17135e-10
7.07458e-10
4.34301e-10
1.7069e-10
5.15299e-11
1.13998e-11
3.19543e-12
1.3625e-12
6.47035e-13
2.45346e-13
7.08792e-14
1.63406e-14
3.72517e-15
1.02777e-15
4.21549e-16
2.41096e-16
7.0046e-17
1.03737e-17
1.34295e-18
1.9796e-09
1.40651e-09
8.79066e-10
7.93525e-10
7.66563e-10
4.85446e-10
1.97124e-10
5.54936e-11
1.05822e-11
1.76455e-12
6.68471e-13
3.19344e-13
1.6779e-13
6.55109e-14
1.7726e-14
3.45629e-15
5.48145e-16
9.56444e-17
4.21543e-17
4.00653e-17
1.85769e-17
4.58889e-18
6.02029e-19
2.43902e-09
1.67183e-09
1.08031e-09
8.59445e-10
5.39807e-10
2.0419e-10
5.49331e-11
8.57737e-12
8.37701e-13
9.84478e-14
6.98662e-14
3.92077e-14
2.36617e-14
9.46288e-15
2.45093e-15
3.95957e-16
4.05225e-17
4.09508e-18
2.51569e-18
4.41388e-18
4.26908e-18
1.64916e-18
2.77977e-19
0.0908493
0.0404233
0.00471865
0.00425576
0.00535735
0.00399658
0.00391
0.00457479
0.00019386
0.000764478
0.00217687
0.00143872
0.000257694
0.000606965
0.00103971
0.00247115
3.71785e-05
0.000307597
0.00104726
0.00344942
3.61816e-05
3.73228e-05
7.39764e-05
0.00137579
0.000450714
4.4923e-05
0.000399018
0.00507538
0.00167927
0.0022137
0.00492886
0.00557392
0.000955324
0.00149954
0.00265748
0.00368585
1.46276e-05
3.49866e-05
1.91555e-05
8.17571e-06
7.91807e-11
2.55458e-11
1.85805e-11
1.00617e-08
2.25459e-11
2.20023e-11
2.20152e-11
1.58721e-09
2.19487e-11
2.19841e-11
2.20037e-11
2.20415e-11
1.80027e-07
6.02859e-11
2.20138e-11
4.9565e-10
6.65864e-07
6.65938e-08
5.98535e-08
3.05176e-08
1.86812e-07
1.25214e-07
3.77804e-08
1.51656e-08
3.12569e-08
1.7647e-08
9.57403e-09
4.88384e-09
2.67283e-09
1.99206e-09
3.33874e-09
7.86812e-09
5.6777e-10
7.08695e-10
1.86351e-09
2.50599e-09
4.48091e-10
8.2774e-10
1.20233e-09
1.26605e-09
2.83484e-10
4.5699e-10
6.88371e-10
6.72003e-10
1.11467e-10
1.48523e-10
1.79591e-10
2.16183e-10
4.95974e-11
5.99961e-11
8.02741e-11
8.44205e-11
2.14148e-11
2.64144e-11
3.05125e-11
3.54541e-11
9.13771e-12
1.03995e-11
1.36388e-11
1.48328e-11
4.02876e-12
4.74828e-12
5.43874e-12
6.49054e-12
1.58926e-12
1.86112e-12
2.4701e-12
2.73064e-12
6.52979e-13
7.88151e-13
9.28062e-13
1.17113e-12
2.40626e-13
3.03745e-13
4.2164e-13
4.84533e-13
9.62097e-14
1.33293e-13
1.67329e-13
2.28495e-13
4.00001e-14
5.46097e-14
8.62634e-14
1.07073e-13
1.9075e-14
2.84831e-14
4.25163e-14
6.97698e-14
7.94846e-15
1.34838e-14
2.42218e-14
3.61954e-14
4.19108e-15
6.98277e-15
1.26947e-14
2.41817e-14
1.39559e-15
2.70074e-15
5.94423e-15
1.03405e-14
5.90142e-16
1.16022e-15
2.27057e-15
4.97107e-15
1.69937e-16
3.84028e-16
8.85173e-16
1.62756e-15
4.97926e-17
1.0511e-16
2.05012e-16
4.75153e-16
1.05668e-17
2.30271e-17
5.16788e-17
1.04708e-16
2.00234e-18
4.49371e-18
9.0005e-18
2.10907e-17
3.96085e-19
8.63726e-19
1.8485e-18
3.63926e-18
8.10903e-20
1.56078e-19
3.17946e-19
5.46077e-19
0.00250461
0.000861622
0.0015173
0.00596158
0.0074268
0.00572966
0.00249139
0.00990526
0.0228902
0.0228886
0.0182903
0.0159271
0.0131863
0.009736
0.00889818
0.00783887
0.00967432
0.00968197
0.00947404
0.00287973
0.00110783
0.00428738
0.0110598
0.0110548
0.0109656
0.00389057
0.0100659
0.0180266
0.0204266
0.0159085
0.015879
0.015755
0.0121225
0.00806533
0.00788758
0.00961005
0.00977694
0.00977388
0.000876452
0.00160032
0.0047121
0.00790492
0.0104
0.00826009
0.00112366
0.000966933
0.00292041
0.00726336
0.0134591
0.0158196
0.0146218
0.00853286
0.0085756
0.0141453
0.0141545
0.00500688
0.00441697
0.00192969
0.000755707
0.000852563
0.000760733
0.00213517
0.00270006
0.000675409
0.00052128
0.000552281
0.00669709
0.0113074
0.0124162
0.00448856
0.00325953
0.00751193
0.00914245
0.00961927
0.00282538
0.00311612
0.00315323
0.000423048
0.000226884
0.000235777
9.03825e-05
7.76276e-05
0.000474483
0.000516304
0.000723585
0.00197409
0.00246919
0.00211437
0.00120196
0.00125141
0.000862465
0.000858991
0.00204603
0.00352365
0.00204422
0.00551997
0.000843971
0.000203676
7.75678e-05
7.75674e-05
7.75678e-05
7.76061e-05
0.000250411
0.000365618
0.000459925
0.000522771
0.000526383
0.000813807
0.000844753
0.000855366
0.00122541
0.00276499
0.00626675
0.00113191
0.00557306
0.00371521
9.2389e-05
7.75674e-05
7.90481e-05
0.000312599
0.00134912
0.00245192
0.00287581
0.00192998
0.00136484
0.00189654
0.00220978
0.00289666
0.00384608
0.00579249
0.0095846
0.00845381
0.000344531
0.00557392
0.00557392
0.00250581
0.00018462
0.000841731
0.0022396
0.00293223
0.00293637
0.00293627
0.00293635
0.00283522
0.00259824
0.00231146
0.0024142
0.00382114
0.00619613
0.00769106
0.00722376
0.000434186
0.00393428
0.00341218
0.00218688
0.000678429
0.000894315
0.002114
0.00293639
0.00293626
0.00270108
0.000485244
6.15963e-05
1.84506e-05
1.98448e-06
8.02023e-07
0.000158736
0.000235492
9.14818e-07
0.00046023
0.000793735
5.34364e-05
2.75074e-05
0.000160701
0.000251867
0.00019726
0.000394577
0.000867155
0.000892126
0.000217562
2.58085e-05
6.50705e-10
7.22807e-10
4.4648e-08
8.50229e-07
1.2132e-06
2.73472e-08
2.63156e-08
1.0924e-23
0.000169367
5.55551e-09
6.59241e-09
5.66325e-09
6.69007e-09
-1.17799e-09
6.91924e-09
4.41679e-08
1.10343e-05
3.61589e-05
2.36064e-05
8.80511e-10
1.4167e-07
1.12442e-06
3.45292e-06
3.45905e-06
2.46471e-06
1.16395e-08
-2.79402e-24
-8.30401e-22
1.21106e-08
8.32184e-08
3.23327e-07
1.62587e-06
3.55539e-06
4.14253e-06
3.55032e-06
3.952e-06
2.33265e-06
3.34022e-06
2.92198e-07
1.04483e-07
1.57801e-06
3.45018e-06
3.41606e-06
1.89015e-06
1.30825e-06
1.35735e-06
2.03973e-23
3.80896e-08
2.68387e-08
2.261e-07
2.45228e-06
9.47167e-06
9.46435e-06
5.81771e-06
2.58253e-07
2.00797e-08
1.4896e-07
1.32947e-07
1.05642e-07
3.98921e-07
6.47023e-07
1.80323e-06
6.61434e-06
1.79964e-05
1.69888e-05
7.65547e-06
6.41276e-08
2.77109e-08
4.3259e-08
5.54574e-07
4.84953e-06
6.76403e-06
2.74072e-06
2.96611e-07
1.85062e-08
5.35852e-09
5.31765e-08
6.53013e-08
4.3189e-08
8.42899e-08
1.55995e-06
1.31885e-05
1.93555e-05
1.91328e-05
1.90637e-05
3.18612e-08
1.80143e-07
1.31482e-07
1.77458e-07
2.21133e-06
1.38041e-06
2.97159e-07
3.62743e-08
1.34405e-08
5.33021e-09
8.73676e-09
1.00905e-08
1.02002e-08
2.41758e-07
6.57719e-07
9.46275e-06
1.93358e-05
1.5205e-05
1.05827e-05
4.02633e-09
4.05297e-09
3.28379e-07
1.16119e-06
1.98396e-06
2.15666e-06
1.51742e-06
1.07471e-06
6.92965e-08
6.0985e-09
1.16088e-08
1.44409e-08
1.43086e-08
3.56868e-08
5.09975e-08
1.92592e-06
6.62974e-06
7.43955e-07
1.09316e-06
3.24451e-09
3.2211e-09
1.24547e-07
7.74118e-07
1.12725e-06
2.23926e-06
2.25475e-06
2.1982e-06
5.57767e-07
5.0142e-07
1.38285e-07
1.28082e-08
1.28293e-08
1.69533e-08
2.42666e-07
6.41467e-07
6.44206e-07
6.96133e-07
8.68176e-07
8.03882e-09
4.00651e-09
6.36786e-09
7.38407e-09
7.07378e-08
2.28357e-07
2.23319e-06
2.27413e-06
2.2731e-06
1.29134e-06
1.03947e-07
1.28139e-08
1.28081e-08
1.79531e-07
3.92812e-07
4.27178e-07
9.02392e-07
2.14519e-06
5.47873e-06
4.01898e-09
2.13302e-09
7.92086e-10
7.93025e-10
8.83647e-10
1.94562e-07
1.30425e-06
2.08899e-06
1.66976e-06
7.82413e-07
1.66024e-08
1.27982e-08
2.60365e-08
3.32284e-07
4.01198e-07
3.33471e-07
6.45837e-06
8.14536e-06
5.52703e-06
8.06093e-10
1.1448e-09
7.91956e-10
7.92587e-10
3.39111e-08
1.91011e-07
1.94685e-07
1.11725e-07
1.07311e-07
2.49844e-07
2.06652e-07
3.89965e-08
9.2354e-08
1.93964e-07
3.33949e-07
3.3597e-07
9.82327e-06
9.25346e-06
3.32965e-06
5.67513e-10
7.24249e-10
7.9061e-10
1.58991e-09
1.04427e-08
5.87674e-09
2.07738e-09
1.9182e-09
1.93006e-09
6.44556e-08
1.2145e-07
8.03984e-08
9.18193e-08
8.20305e-08
3.19896e-08
3.88443e-06
9.84766e-06
1.47191e-06
2.2209e-07
2.18882e-10
2.50541e-10
2.80704e-10
4.09365e-10
2.70684e-10
5.94085e-10
1.77455e-09
1.90584e-09
1.98817e-09
1.05096e-08
1.29878e-08
2.14746e-08
3.32245e-08
4.86616e-09
3.18269e-08
5.29898e-06
4.81825e-06
5.70168e-07
2.08844e-08
9.10201e-11
1.01132e-10
1.08478e-10
1.28546e-10
1.60457e-10
3.15804e-10
6.88228e-10
7.07282e-10
7.65272e-10
2.70066e-09
3.99365e-09
7.62631e-09
7.46821e-09
6.64608e-10
6.25102e-10
3.50034e-06
2.11709e-06
2.21513e-07
1.92265e-08
3.73807e-11
4.30775e-11
4.79259e-11
5.82669e-11
8.36315e-11
1.41404e-10
2.51286e-10
3.32594e-10
4.632e-10
8.31148e-10
1.25732e-09
3.22681e-09
3.67855e-09
3.14703e-10
2.33782e-08
1.80957e-07
9.84421e-08
2.93346e-08
1.71193e-08
1.66148e-11
2.05573e-11
2.58573e-11
3.56296e-11
5.54656e-11
9.06335e-11
1.51135e-10
2.38348e-10
3.68602e-10
5.72393e-10
9.01994e-10
2.04674e-09
2.95976e-09
3.13665e-10
3.64392e-08
4.4189e-08
3.98062e-08
2.73815e-08
1.61226e-08
7.33836e-12
9.98629e-12
1.3881e-11
2.09876e-11
3.45275e-11
5.89632e-11
1.0157e-10
1.68539e-10
2.70868e-10
4.45931e-10
8.01108e-10
1.66834e-09
2.63053e-09
3.60855e-09
2.46185e-08
2.11238e-08
8.42069e-09
1.13369e-08
8.08155e-09
3.34793e-12
4.68225e-12
6.92854e-12
1.09708e-11
1.85183e-11
3.269e-11
5.77147e-11
1.00332e-10
1.7024e-10
2.85367e-10
5.48363e-10
1.21198e-09
2.24409e-09
3.86817e-09
1.27924e-08
7.26171e-09
7.06364e-09
7.06144e-09
7.06391e-09
1.38675e-12
2.1106e-12
3.20578e-12
5.24159e-12
9.08991e-12
1.61228e-11
2.90149e-11
5.17681e-11
9.13183e-11
1.58167e-10
2.85644e-10
6.45045e-10
1.30223e-09
1.37987e-09
1.13774e-08
8.52206e-09
7.05716e-09
7.05974e-09
1.56371e-08
6.33021e-13
9.87683e-13
1.5679e-12
2.61711e-12
4.49313e-12
7.9411e-12
1.44039e-11
2.59529e-11
4.69804e-11
8.4681e-11
1.48493e-10
2.85684e-10
5.74223e-10
3.1724e-10
3.43182e-09
4.28898e-08
2.29858e-08
7.06078e-09
5.45121e-08
2.92318e-13
5.32104e-13
8.87522e-13
1.52263e-12
2.65708e-12
4.57867e-12
8.02356e-12
1.48365e-11
2.72231e-11
5.05597e-11
9.14247e-11
1.56272e-10
2.45674e-10
2.80105e-10
2.74201e-10
5.52368e-08
1.41637e-07
4.88752e-08
5.41281e-08
1.6754e-13
3.27953e-13
5.9344e-13
1.07035e-12
1.89013e-12
3.33947e-12
5.66363e-12
9.48172e-12
1.55671e-11
2.64713e-11
4.99073e-11
1.04406e-10
1.95501e-10
2.71941e-10
2.74348e-10
3.4126e-08
1.77752e-07
1.77751e-07
1.5374e-07
1.03916e-13
2.24582e-13
4.32872e-13
8.30045e-13
1.56148e-12
2.78751e-12
4.8591e-12
8.23084e-12
1.34976e-11
2.17638e-11
3.58922e-11
6.34727e-11
1.44384e-10
2.44588e-10
3.90243e-10
9.5741e-09
1.5648e-07
1.77754e-07
1.77752e-07
6.91781e-14
1.46678e-13
3.12469e-13
6.38678e-13
1.24338e-12
2.40651e-12
4.43513e-12
7.94769e-12
1.35825e-11
2.24278e-11
3.5708e-11
5.70619e-11
1.04404e-10
2.23425e-10
7.66746e-10
4.25245e-09
3.97172e-08
1.77612e-07
1.09844e-07
3.89323e-14
9.15341e-14
2.06592e-13
4.49875e-13
9.46956e-13
1.92936e-12
3.7817e-12
7.30966e-12
1.32936e-11
2.3691e-11
3.99245e-11
6.55244e-11
1.12621e-10
2.30849e-10
6.24276e-10
2.85167e-09
1.14956e-08
8.2679e-08
8.35113e-09
2.05672e-14
4.88996e-14
1.17828e-13
2.75685e-13
6.28802e-13
1.39676e-12
3.00076e-12
6.17111e-12
1.20485e-11
2.29591e-11
4.34606e-11
7.98087e-11
1.38166e-10
2.59749e-10
5.45534e-10
1.51664e-09
3.86664e-09
1.40874e-09
1.40747e-09
8.32992e-15
2.19757e-14
5.6567e-14
1.43502e-13
3.59226e-13
8.82325e-13
2.0957e-12
4.74737e-12
1.0224e-11
2.09716e-11
4.28896e-11
8.80568e-11
1.69495e-10
2.8736e-10
5.22837e-10
1.05077e-09
1.41311e-09
1.4072e-09
1.4072e-09
2.93985e-15
8.14773e-15
2.24156e-14
6.23123e-14
1.74096e-13
4.78413e-13
1.27187e-12
3.22707e-12
7.6999e-12
1.72441e-11
3.72765e-11
8.17831e-11
1.7539e-10
3.19422e-10
5.24397e-10
9.70456e-10
1.45293e-09
1.51596e-09
1.40847e-09
8.4855e-16
2.44344e-15
7.17771e-15
2.20351e-14
6.95565e-14
2.18623e-13
6.63599e-13
1.89463e-12
5.02453e-12
1.2378e-11
2.84963e-11
6.34573e-11
1.47693e-10
3.13896e-10
5.43609e-10
8.85747e-10
1.42418e-09
1.5464e-09
1.16308e-09
1.98864e-16
5.87265e-16
1.83714e-15
6.28507e-15
2.26384e-14
8.12887e-14
2.8702e-13
9.27351e-13
2.74099e-12
7.45987e-12
1.8877e-11
4.47547e-11
1.05412e-10
2.42447e-10
5.04693e-10
8.44398e-10
1.27158e-09
1.46381e-09
9.49766e-10
3.91648e-17
1.13683e-16
3.75436e-16
1.42924e-15
5.91922e-15
2.48798e-14
1.00281e-13
3.75469e-13
1.27467e-12
3.88077e-12
1.07038e-11
2.70493e-11
6.39703e-11
1.56779e-10
3.7412e-10
6.85161e-10
9.94066e-10
1.17139e-09
6.68274e-10
6.36426e-18
1.78976e-17
6.00159e-17
2.44324e-16
1.12056e-15
5.31901e-15
2.45005e-14
1.04788e-13
4.05112e-13
1.40435e-12
4.36604e-12
1.22901e-11
3.21306e-11
8.12578e-11
2.06912e-10
4.66134e-10
7.64463e-10
8.6054e-10
4.23961e-10
8.63938e-19
2.17237e-18
6.69321e-18
2.59802e-17
1.1907e-16
5.91287e-16
2.996e-15
1.42357e-14
6.16332e-14
2.46587e-13
9.02242e-13
3.08412e-12
9.66939e-12
2.84451e-11
8.04709e-11
2.12361e-10
3.91416e-10
4.5718e-10
1.65638e-10
)
;

boundaryField
{
    leftWall
    {
        type            zeroGradient;
    }
    rightWall
    {
        type            zeroGradient;
    }
    lowerWall
    {
        type            zeroGradient;
    }
    atmosphere
    {
        type            inletOutlet;
        inletValue      uniform 0;
        value           nonuniform List<scalar> 
46
(
2.43902e-09
1.67183e-09
1.08031e-09
8.59445e-10
0
0
0
0
0
0
0
0
0
0
0
0
0
0
0
0
4.26908e-18
1.64916e-18
2.77977e-19
8.10903e-20
1.56078e-19
3.17946e-19
5.46077e-19
8.63938e-19
2.17237e-18
6.69321e-18
2.59802e-17
1.1907e-16
5.91287e-16
2.996e-15
1.42357e-14
6.16332e-14
2.46587e-13
9.02242e-13
3.08412e-12
9.66939e-12
2.84451e-11
8.04709e-11
2.12361e-10
3.91416e-10
4.5718e-10
1.65638e-10
)
;
    }
    defaultFaces
    {
        type            empty;
    }
}


// ************************************************************************* //
