/*--------------------------------*- C++ -*----------------------------------*\
| =========                 |                                                 |
| \\      /  F ield         | OpenFOAM: The Open Source CFD Toolbox           |
|  \\    /   O peration     | Version:  2312                                  |
|   \\  /    A nd           | Website:  www.openfoam.com                      |
|    \\/     M anipulation  |                                                 |
\*---------------------------------------------------------------------------*/
FoamFile
{
    version     2.0;
    format      ascii;
    arch        "LSB;label=32;scalar=64";
    class       volScalarField;
    location    "3.65";
    object      alpha.water;
}
// * * * * * * * * * * * * * * * * * * * * * * * * * * * * * * * * * * * * * //

dimensions      [0 0 0 0 0 0 0];

internalField   nonuniform List<scalar> 
2268
(
3.77878e-07
3.02976e-07
6.57635e-08
1.54887e-08
4.69597e-09
1.02374e-09
2.52353e-10
1.77962e-10
1.21244e-10
8.47213e-11
6.37373e-11
5.2099e-11
4.72411e-11
4.63634e-11
4.90955e-11
5.5243e-11
7.18046e-11
9.97092e-11
1.38622e-10
2.3004e-10
4.30302e-10
9.58351e-10
1.2977e-09
3.54012e-07
2.55035e-07
6.93826e-08
1.49824e-08
1.95949e-09
2.85034e-10
2.47313e-10
2.00764e-10
1.53536e-10
1.18033e-10
1.143e-10
9.68571e-11
8.46632e-11
7.71564e-11
7.58472e-11
8.79635e-11
1.10555e-10
1.45045e-10
2.09867e-10
3.70624e-10
6.64572e-10
1.48125e-09
1.65461e-09
6.59826e-08
1.94183e-08
1.69172e-08
6.06536e-09
1.89662e-09
1.84963e-10
1.72747e-10
1.50869e-10
1.72245e-10
1.47849e-09
8.73829e-10
2.1198e-10
1.6222e-10
1.42786e-10
1.31257e-10
1.36398e-10
1.67971e-10
2.15395e-10
2.92618e-10
4.3612e-10
9.27412e-10
1.81693e-09
1.83349e-09
-2.03628e-11
-3.76411e-12
-2.29958e-12
-6.47927e-13
6.12209e-08
6.06619e-08
1.35959e-16
1.16797e-16
4.498e-09
3.30502e-08
2.05274e-08
9.73212e-10
1.42492e-10
1.13814e-10
9.76667e-11
9.91632e-11
1.24159e-10
1.5065e-10
1.98535e-10
2.97936e-10
6.44946e-10
1.54468e-09
1.44679e-09
0.0536403
0.0520693
0.0504658
0.0501341
0.0496874
0.0467162
0.040262
0.030833
0.0196293
0.00865306
0.0014281
-1.02065e-13
-1.11513e-14
-2.75204e-20
7.33865e-21
2.54755e-21
5.65988e-22
2.09671e-11
5.07293e-11
9.85452e-11
3.20258e-10
8.21871e-10
6.91261e-10
0.749461
0.743917
0.739491
0.737521
0.736942
0.731057
0.714353
0.684691
0.637966
0.567756
0.470762
0.357051
0.264855
0.179047
0.0953759
0.0330323
1.0842e-20
6.20993e-20
7.17236e-20
2.64481e-12
3.60401e-11
1.32082e-10
1.01441e-10
0.997815
0.995846
0.995577
0.996501
0.998176
0.999423
0.999592
0.999604
0.999541
0.999281
0.9918
0.971424
0.936055
0.884422
0.789879
0.639641
0.452804
0.26072
0.0842482
5.49157e-18
2.47142e-20
-8.36405e-29
2.20028e-13
0.999605
0.999575
0.999147
0.99953
0.999654
0.999653
0.999653
0.999653
0.999652
0.995479
0.976998
0.970472
0.97299
0.973178
0.968421
0.940416
0.897626
0.813769
0.684675
0.434223
0.190484
0.0552777
1.07835e-13
0.0147093
0.01365
0.0136746
0.00822907
0.00615588
0.00992313
0.0133034
0.0156071
0.0155814
0.0146188
0.0146399
0.0144556
0.013576
0.0115886
0.00760414
0.00463609
0.00472786
0.00620787
0.00609382
0.0331848
0.00524691
0.00490238
0.00487953
0.00482581
0.00420738
0.00350384
0.00320611
0.00319651
0.00318668
0.00318454
0.00282998
0.00269377
0.00224261
0.00183918
0.00185188
0.00260741
0.00279534
0.00279549
0.387482
0.140927
0.105149
0.092774
0.115268
0.143255
0.16715
0.213114
0.166922
0.0649822
0.00445027
0.00185459
0.00183594
0.00182317
0.00183798
0.00183662
0.00185025
0.00226683
0.012668
0.556059
0.620025
0.719927
0.626047
0.571103
0.570967
0.617436
0.847846
0.864378
0.530201
0.214264
0.162463
0.167233
0.180252
0.135698
0.126114
0.195727
0.289964
0.330105
0.656939
0.969454
0.969455
0.969454
0.931891
0.926981
0.954955
0.969504
0.969502
0.781148
0.407956
0.865885
0.848739
0.83325
0.801937
0.780353
0.83062
0.745617
0.47382
0.919784
0.96946
0.969455
0.969462
0.969419
0.969383
0.969483
0.969492
0.96251
0.594243
0.472897
0.899971
0.906499
0.906502
0.9065
0.906494
0.906492
0.868043
0.713158
0.806238
0.969449
0.969463
0.969463
0.969473
0.969473
0.969482
0.963262
0.76811
0.4417
0.714674
0.7929
0.858481
0.900573
0.90649
0.906491
0.906485
0.906489
0.906475
0.668395
0.942537
0.969454
0.929544
0.951955
0.954436
0.969152
0.892918
0.509795
0.442233
0.537962
0.626387
0.780752
0.884313
0.906465
0.90649
0.906458
0.906483
0.906479
0.999605
0.999605
0.999605
0.999585
0.999622
0.999642
0.999641
0.999652
0.999652
0.96034
0.950869
0.950707
0.972775
0.974249
0.883568
0.854897
0.854902
0.859589
0.908193
0.98053
0.94962
0.881063
0.806485
0.999579
0.99872
0.998667
0.999118
0.999652
0.999652
0.999652
0.999652
0.999652
0.996028
0.959009
0.950726
0.951002
0.979863
0.982767
0.986516
0.98653
0.983579
0.989198
0.990321
0.990401
0.9798
0.908154
0.999395
0.99625
0.990073
0.999322
0.999484
0.999494
0.999652
0.999119
0.999652
0.999649
0.996695
0.982259
0.984969
0.984988
0.984344
0.979763
0.981204
0.983775
0.977418
0.898552
0.800499
0.695395
0.527103
0.975179
0.847825
0.845729
0.941699
0.956425
0.961808
0.965151
0.953051
0.969712
0.992216
0.987836
0.974269
0.96057
0.925409
0.866709
0.804268
0.784106
0.768625
0.453644
0.21172
0.110293
0.0570194
0.00933771
0.67298
0.397937
0.177598
0.35015
0.68125
0.831259
0.878589
0.873854
0.842038
0.762002
0.671963
0.637049
0.509426
0.263335
0.132173
0.0379574
0.0916565
0.0936368
0.00274867
1.79693e-05
2.36094e-05
5.80709e-05
0.000979632
0.0529183
0.00037819
1.97889e-09
3.93757e-10
-1.73472e-19
0.102413
0.227606
0.22844
0.177842
0.0909694
0.0377302
0.00786769
4.93068e-21
-1.74644e-07
-1.16323e-07
-6.11664e-08
0.000187948
0.000146807
0.00011698
0.000106183
0.000284125
0.000591902
0.0010264
1.74924e-05
1.68221e-05
1.61132e-05
3.53484e-06
1.61985e-09
1.23572e-24
3.35256e-24
-1.91777e-16
-5.94383e-07
1.17814e-05
1.31736e-08
1.0322e-07
0.000112177
0.00187939
0.00182014
0.00106426
0.000912014
0.000786329
0.00119249
0.00228368
0.00135848
0.000598869
0.00941935
0.000202114
0.000110929
8.89168e-05
9.81585e-05
5.11612e-05
2.15843e-05
1.0024e-05
6.72518e-06
8.8285e-05
0.00017062
4.4144e-05
0.000287707
0.00968927
0.0117989
0.00715699
0.00299862
0.00216855
0.00168177
0.00180463
0.00261694
0.00291867
0.00332789
0.010355
0.000213606
0.000294319
0.000412434
0.000361054
0.00026244
0.000180765
0.000101676
0.000132696
9.70376e-05
0.00282508
0.00555113
0.00741705
0.0123255
0.012104
0.00853532
0.000570886
2.61787e-07
2.6122e-07
6.69308e-06
0.000127386
0.000494902
0.00111063
0.00188598
0.00116944
0.00212741
0.00348969
0.00544449
0.00741964
0.00773446
0.00841831
0.00996409
0.0095623
0.00990629
0.0174265
0.0174249
0.0156979
0.00779981
0.00214237
2.56067e-07
2.56101e-07
6.18941e-07
2.31632e-06
1.11166e-06
6.71959e-07
7.32711e-07
5.80161e-07
0.00284944
0.00292988
0.00357739
0.00645704
0.0117014
0.0138314
0.0148274
0.0153339
0.0148282
0.0137085
0.0168633
0.0147362
0.00390263
0.000159541
2.56067e-07
2.5493e-07
2.55028e-07
1.33071e-06
4.42323e-06
4.12519e-06
1.00114e-06
5.80141e-07
1.10134e-06
0.00017667
1.11405e-07
1.01092e-08
2.4583e-09
1.54433e-09
-2.72468e-10
6.26408e-12
-1.58739e-08
6.26474e-21
2.29525e-09
2.52246e-05
0.00502218
0.000839844
2.5786e-07
2.55703e-07
9.18069e-07
1.48955e-06
1.8167e-06
2.48757e-06
2.85383e-06
2.11268e-06
2.18608e-06
2.24273e-06
2.14505e-09
1.26436e-09
4.28786e-08
8.88585e-09
1.91299e-09
5.15986e-10
1.45982e-08
1.75747e-08
6.9433e-09
1.27207e-09
8.4443e-05
0.000455125
0.000126844
2.62137e-07
3.20123e-07
9.82907e-07
8.26301e-07
5.98557e-07
4.84318e-07
5.03473e-07
2.01693e-05
2.17022e-05
3.61857e-06
7.72898e-08
3.00326e-07
4.65271e-07
2.80993e-07
1.62168e-08
1.86287e-07
3.8361e-07
3.89495e-07
2.58201e-07
1.3192e-08
9.78067e-08
3.19105e-07
2.96449e-07
2.95981e-07
1.52481e-07
1.76911e-07
1.18979e-07
1.17451e-07
1.18998e-07
1.82863e-05
2.57476e-05
2.55845e-05
1.33679e-05
9.37169e-08
3.53856e-07
4.9014e-07
3.73944e-07
9.1268e-08
3.69276e-07
3.78823e-07
1.12691e-07
4.23133e-08
9.5623e-08
2.57703e-07
3.9157e-07
3.72921e-07
2.12425e-07
1.17563e-07
1.18467e-07
1.17763e-07
5.10529e-06
2.4857e-05
2.57476e-05
2.57023e-05
1.87139e-05
3.98743e-06
3.9022e-08
1.22751e-07
2.5697e-07
8.02836e-08
1.51849e-07
1.2898e-07
1.10517e-07
1.11003e-07
1.41909e-07
2.42276e-07
3.78488e-08
3.98644e-08
3.27693e-06
7.7129e-06
9.91287e-06
2.10633e-05
2.93789e-05
2.96205e-05
1.33523e-05
9.00515e-06
5.06915e-06
4.11684e-07
1.38768e-09
1.55102e-08
4.65665e-09
2.48972e-09
4.86769e-09
6.15351e-08
1.74779e-08
1.95871e-08
1.48603e-06
8.02551e-06
1.03167e-05
9.69479e-06
9.48801e-06
1.4953e-05
2.06873e-05
2.06988e-05
1.90952e-05
1.05102e-05
1.07341e-05
1.49361e-07
7.81631e-10
7.7999e-10
7.74448e-10
1.36553e-09
6.48494e-09
3.04626e-09
2.33245e-09
4.08188e-09
1.21127e-08
1.52375e-08
1.5109e-07
6.37292e-06
1.05254e-05
1.05585e-05
7.54016e-06
2.82448e-06
5.52886e-06
9.89128e-06
8.89728e-06
7.45658e-07
1.20231e-09
1.18038e-09
1.16451e-09
1.14772e-09
7.81627e-10
8.00632e-10
5.06913e-10
9.75995e-09
3.82792e-09
2.59049e-09
3.74178e-09
4.17295e-09
4.01662e-09
7.02576e-07
1.5258e-06
1.26755e-06
3.86013e-07
4.75038e-08
1.31962e-09
1.30696e-09
1.29618e-09
1.28557e-09
1.27513e-09
1.99482e-09
2.82008e-09
1.78482e-09
1.35717e-09
9.23761e-10
6.32452e-10
5.19606e-10
1.0462e-08
3.61197e-09
2.72032e-09
6.72541e-09
2.2276e-08
5.48577e-08
3.49649e-08
1.55333e-09
1.54075e-09
1.55333e-09
1.65591e-09
2.43695e-09
1.73992e-09
1.51561e-09
1.38956e-09
1.26239e-09
1.50373e-09
1.611e-09
1.22711e-09
9.10511e-10
6.19605e-10
4.45545e-10
4.27302e-10
1.18009e-08
2.961e-09
1.8102e-09
2.49895e-09
4.52932e-09
5.70445e-09
1.58678e-09
1.72223e-09
1.51903e-09
1.60146e-09
1.56555e-09
1.33714e-09
1.11772e-09
9.14833e-10
7.84734e-10
7.45516e-10
7.4499e-10
7.19419e-10
6.44164e-10
5.10267e-10
3.36075e-10
2.23438e-10
3.15854e-10
1.31845e-08
2.27586e-09
1.08916e-09
1.23374e-09
1.66378e-09
2.00074e-09
1.56375e-09
8.01812e-10
6.37298e-10
5.41664e-10
4.94147e-10
4.45384e-10
3.97035e-10
3.56815e-10
3.3367e-10
3.27931e-10
3.31675e-10
3.22921e-10
2.90409e-10
2.36945e-10
1.55732e-10
1.39212e-10
1.71839e-10
2.41797e-08
1.71945e-09
7.01549e-10
5.78996e-10
5.90608e-10
5.74899e-10
4.48304e-10
2.9347e-10
2.21634e-10
1.8095e-10
1.54051e-10
1.33724e-10
1.24379e-10
1.23247e-10
1.22679e-10
1.27129e-10
1.30384e-10
1.27255e-10
1.19196e-10
1.01217e-10
7.79165e-11
6.74887e-11
9.59226e-11
3.30407e-08
1.23441e-09
5.43084e-10
3.09908e-10
2.37543e-10
1.89139e-10
1.48394e-10
1.08593e-10
8.22085e-11
6.59988e-11
5.3694e-11
4.55314e-11
4.08912e-11
3.90713e-11
4.04131e-11
4.20522e-11
4.31373e-11
4.34301e-11
4.1291e-11
3.77949e-11
3.40052e-11
3.8709e-11
5.02773e-11
3.67825e-08
7.8691e-10
4.9485e-10
2.41243e-10
1.65646e-10
1.30199e-10
1.01112e-10
7.68384e-11
5.84957e-11
4.51001e-11
3.33636e-11
2.41271e-11
1.81698e-11
1.46003e-11
1.29378e-11
1.25229e-11
1.27872e-11
1.30667e-11
1.33093e-11
1.35917e-11
1.45391e-11
1.6174e-11
2.63562e-11
3.89157e-08
6.70329e-10
3.78919e-10
2.38041e-10
1.85043e-10
1.69022e-10
1.50314e-10
1.21238e-10
9.19894e-11
6.78992e-11
4.83519e-11
3.16917e-11
1.91297e-11
1.10233e-11
6.54514e-12
4.5282e-12
3.6766e-12
3.67715e-12
3.96046e-12
4.49274e-12
5.11499e-12
8.21442e-12
1.18932e-11
4.42389e-08
6.75957e-10
2.73843e-10
2.62849e-10
2.55013e-10
2.42123e-10
2.12784e-10
1.74517e-10
1.38004e-10
1.1088e-10
8.16558e-11
5.37726e-11
3.14112e-11
1.62641e-11
7.59962e-12
3.33177e-12
1.63932e-12
1.09575e-12
1.13934e-12
1.44573e-12
2.06897e-12
2.97488e-12
5.51967e-12
4.96882e-08
1.29032e-09
2.64236e-10
3.33691e-10
3.42634e-10
3.32309e-10
3.12569e-10
2.62796e-10
2.09651e-10
1.68804e-10
1.27797e-10
8.64901e-11
5.15019e-11
2.65789e-11
1.19703e-11
4.70327e-12
1.62148e-12
5.90716e-13
3.61936e-13
4.30061e-13
6.25732e-13
1.31495e-12
2.15944e-12
6.38759e-08
2.51778e-09
2.66576e-10
3.8172e-10
4.01466e-10
4.19466e-10
5.25772e-10
5.50222e-10
4.00891e-10
2.41188e-10
1.78114e-10
1.23603e-10
7.61316e-11
4.06682e-11
1.873e-11
7.4237e-12
2.42496e-12
7.42852e-13
1.81518e-13
1.32789e-13
2.23945e-13
3.80071e-13
8.65837e-13
7.07561e-08
4.71688e-09
2.36623e-10
3.29766e-10
3.61701e-10
5.38216e-10
1.28581e-09
1.4419e-09
9.83594e-10
3.72252e-10
2.29908e-10
1.59327e-10
1.0122e-10
5.57566e-11
2.68058e-11
1.10055e-11
3.67284e-12
1.04694e-12
2.52089e-13
5.9862e-14
5.85156e-14
1.55022e-13
2.81435e-13
8.88612e-08
5.62966e-09
2.04366e-10
2.64265e-10
1.08198e-09
4.06727e-09
2.88569e-09
2.56396e-09
2.48127e-09
7.29122e-10
2.92997e-10
1.87193e-10
1.21633e-10
6.91422e-11
3.46713e-11
1.50179e-11
5.30845e-12
1.55304e-12
3.73962e-13
5.1163e-14
2.23956e-14
3.92108e-14
1.01694e-13
9.77152e-08
7.17329e-09
2.04553e-10
2.14437e-09
1.83192e-08
5.41418e-08
1.18618e-07
3.76389e-08
3.51453e-09
1.48315e-09
3.95456e-10
2.04154e-10
1.31859e-10
7.65879e-11
3.99572e-11
1.82303e-11
7.00074e-12
2.13922e-12
5.01002e-13
8.9769e-14
1.25209e-14
1.26404e-14
2.89049e-14
1.18491e-07
9.54632e-09
2.15837e-09
3.29648e-08
1.7413e-07
5.95936e-07
1.03059e-06
3.54446e-07
2.52395e-09
2.51916e-09
5.69268e-10
2.14929e-10
1.29659e-10
7.57805e-11
4.0003e-11
1.95705e-11
7.97385e-12
2.70713e-12
6.9292e-13
1.38592e-13
1.25467e-14
3.24943e-15
8.72057e-15
1.20913e-07
1.17529e-08
4.90672e-10
4.41749e-08
2.86199e-07
1.06186e-06
1.38446e-06
1.23187e-06
2.5278e-09
4.34384e-09
7.92541e-10
2.12303e-10
1.16833e-10
6.56901e-11
3.52084e-11
1.77145e-11
8.03886e-12
2.96244e-12
8.35794e-13
1.78429e-13
1.99874e-14
1.67902e-15
2.13912e-15
1.6179e-07
2.80246e-08
5.40903e-10
2.83764e-08
1.47995e-07
7.04489e-07
1.35434e-06
8.04612e-07
4.8164e-09
4.57022e-09
8.03164e-10
1.8399e-10
9.26074e-11
5.25723e-11
2.76545e-11
1.39949e-11
6.71881e-12
2.76717e-12
8.62459e-13
1.92713e-13
3.08179e-14
1.33091e-15
5.23311e-16
1.6963e-07
6.2697e-08
3.28044e-10
5.55806e-09
1.91494e-08
1.66276e-07
1.07908e-06
2.27297e-08
2.26294e-08
3.18747e-09
6.80811e-10
1.44362e-10
6.78263e-11
3.70607e-11
1.8515e-11
9.20781e-12
4.60661e-12
2.10656e-12
7.50092e-13
1.89499e-13
3.23748e-14
1.79912e-15
1.74323e-16
1.7193e-07
1.44e-07
2.46538e-08
3.35247e-09
2.29037e-09
2.16426e-08
3.49855e-10
2.31665e-08
9.12645e-09
1.97327e-09
4.38043e-10
8.85129e-11
4.28521e-11
2.26206e-11
1.06106e-11
4.98576e-12
2.50705e-12
1.23505e-12
5.12878e-13
1.48331e-13
2.88807e-14
2.08433e-15
8.33819e-17
1.70818e-07
1.66335e-07
8.77371e-08
1.31529e-08
1.57916e-09
2.04319e-08
3.85754e-10
3.35833e-10
2.96198e-10
7.42656e-10
1.77977e-10
4.38356e-11
2.37043e-11
1.199e-11
5.14185e-12
2.18899e-12
1.03718e-12
5.28318e-13
2.49102e-13
8.9098e-14
1.97835e-14
2.1334e-15
7.24715e-17
1.24325e-07
1.67842e-07
7.31399e-08
1.82756e-08
1.57876e-09
2.04967e-09
1.74013e-09
6.94931e-10
2.23561e-10
8.62825e-11
3.16389e-11
1.76639e-11
1.11769e-11
5.45062e-12
2.12079e-12
7.69537e-13
3.13257e-13
1.49012e-13
8.06876e-14
3.7677e-14
1.0961e-14
1.45757e-15
6.98754e-17
3.83335e-08
1.10426e-07
5.08456e-08
1.03258e-08
3.53098e-09
3.07859e-09
2.26067e-09
9.39411e-10
2.70998e-10
6.15815e-11
1.32735e-11
6.66092e-12
4.26313e-12
2.04541e-12
7.5033e-13
2.27836e-13
7.14781e-14
2.80361e-14
1.54776e-14
1.07679e-14
3.93269e-15
7.64275e-16
5.88757e-17
2.19091e-08
4.22181e-08
2.18058e-08
8.16897e-09
5.8142e-09
3.87472e-09
1.73319e-09
5.1661e-10
1.02203e-10
1.49792e-11
2.70884e-12
1.654e-12
1.12908e-12
5.5001e-13
1.88188e-13
4.82824e-14
1.08115e-14
2.94223e-15
1.79065e-15
1.91265e-15
1.08523e-15
3.39999e-16
4.37414e-17
4.27847e-08
4.12345e-08
2.16409e-08
9.14117e-09
4.90191e-09
1.98276e-09
5.76378e-10
9.05017e-11
7.93749e-12
4.25574e-13
2.1241e-13
2.20709e-13
1.65346e-13
8.24962e-14
2.73793e-14
6.01824e-15
9.37444e-16
1.67798e-16
1.25605e-16
2.30298e-16
2.61173e-16
1.24447e-16
2.3846e-17
0.905295
0.950473
0.950567
0.779511
0.813499
0.809826
0.792328
0.690742
0.479549
0.473568
0.450242
0.46302
0.0107261
0.0280436
0.0393757
0.0031192
0.000963704
0.000245507
0.000108196
0.000106259
0.00237566
0.018169
0.020207
0.0158011
0.0201992
0.0202079
0.0202076
0.0202069
0.0202079
0.0202076
0.0202069
0.0202068
0.00991822
0.0125223
0.00672146
0.00591085
8.10714e-06
7.599e-05
3.1665e-07
3.23203e-07
4.32492e-06
4.00137e-06
3.36092e-06
3.16461e-07
2.18837e-06
2.52401e-06
2.46881e-06
8.15409e-06
1.18277e-07
4.96082e-07
5.60304e-07
1.46951e-06
1.8105e-07
3.09191e-08
3.0605e-08
3.08824e-08
1.82747e-08
2.75928e-08
9.31346e-08
5.7124e-08
1.6564e-08
4.10222e-08
9.58251e-08
8.52851e-08
5.67644e-09
6.07539e-09
3.35671e-08
3.16737e-08
2.06573e-09
1.66759e-09
1.01335e-08
2.70094e-08
7.46922e-10
8.345e-10
3.43399e-09
6.13648e-09
6.72028e-10
1.4002e-09
2.96645e-09
5.06472e-09
5.84218e-10
1.0689e-09
1.9981e-09
3.0934e-09
2.80716e-10
4.70887e-10
6.92581e-10
9.98047e-10
1.42394e-10
1.90927e-10
2.90256e-10
3.33725e-10
7.1638e-11
9.80905e-11
1.2144e-10
1.53911e-10
3.64473e-11
4.60407e-11
6.55709e-11
7.78548e-11
1.83557e-11
2.42212e-11
3.00976e-11
3.88889e-11
8.02297e-12
1.02014e-11
1.48976e-11
1.75502e-11
3.46852e-12
4.52652e-12
5.68432e-12
7.69514e-12
1.2942e-12
1.71155e-12
2.501e-12
2.9519e-12
4.87615e-13
6.73834e-13
8.39509e-13
1.13935e-12
1.67992e-13
2.1619e-13
3.14338e-13
3.65393e-13
5.80995e-14
7.62978e-14
9.84556e-14
1.36885e-13
1.58634e-14
2.21445e-14
3.17421e-14
3.83267e-14
4.97601e-15
6.58839e-15
9.01591e-15
1.26204e-14
1.09895e-15
1.61627e-15
2.55655e-15
3.29489e-15
2.8586e-16
4.32058e-16
6.1589e-16
9.06994e-16
6.12037e-17
9.91677e-17
1.63865e-16
2.14556e-16
1.3721e-17
2.14295e-17
3.09281e-17
4.78341e-17
2.86331e-18
3.90468e-18
6.42425e-18
9.18423e-18
8.34751e-19
7.17907e-19
9.78013e-19
1.64633e-18
5.52668e-19
1.6452e-19
1.85112e-19
2.74012e-19
5.53652e-19
5.66029e-20
3.36469e-20
4.0344e-20
0.664612
0.848066
0.710277
0.498606
0.628588
0.717219
0.77726
0.657953
0.288481
0.489838
0.64686
0.769666
0.822115
0.858364
0.725274
0.505516
0.360586
0.728281
0.808427
0.665654
0.530195
0.194686
0.00530916
0.0221421
0.138389
0.36908
0.28656
0.102115
0.234635
0.473849
0.466434
0.248947
0.130264
0.0444847
0.00600545
0.0041684
0.0771151
0.124456
0.402046
0.0911569
5.77171e-20
-3.8087e-21
-8.57731e-20
0.0786885
0.334987
0.321744
0.102202
0.0346368
0.000172294
0.0027299
0.00484708
0.000237659
0.00144123
0.0024763
0.00393351
0.00279097
0.00274796
-3.97024e-11
-3.75925e-09
-2.05355e-14
-1.26542e-13
-2.42607e-19
0.165558
0.435691
0.436036
0.37402
0.0159561
0.000172584
0.000172294
0.000173083
0.000236437
0.00126088
0.00205789
0.00383671
0.0042507
0.00394219
-9.6967e-22
1.13411e-05
2.82505e-05
9.82651e-05
0.000449684
0.0945392
0.172709
0.100231
0.0959636
0.0295792
0.0001766
0.000173069
0.000172992
0.000202073
0.000209524
0.000209516
0.000464954
0.00361252
0.00504766
0.00180438
6.96476e-05
0.000508896
0.000588951
0.000466633
0.00543977
0.000881535
0.000882309
0.00255906
0.0111864
0.0115497
0.00256125
0.000504982
0.00059808
0.000209546
0.000236043
0.000567254
0.00038149
0.00370293
0.0177382
0.000365461
0.00129827
0.00190662
0.00199195
0.00197329
0.000903135
0.000884347
0.000896849
0.00159814
0.00481717
0.00482813
0.00299568
0.00151877
0.000338815
0.000982701
0.00187726
0.000121048
2.95464e-05
0.0202064
0.0110603
0.00437004
0.0047579
0.0047579
0.00430453
0.00314146
0.00193801
0.000787209
0.000432665
0.000439985
0.00105266
0.000761658
0.000752665
0.0005141
0.00117215
0.00142171
0.000690646
2.34661e-05
0.00818013
0.00669459
0.00279984
0.00475793
0.00475792
0.00364688
0.00204811
0.0010176
0.000251135
1.19601e-05
1.48989e-07
1.59716e-07
7.82165e-07
6.31629e-07
5.4712e-05
4.64432e-05
3.36294e-06
4.39885e-05
6.55567e-05
3.16461e-07
4.73257e-05
0.000353719
0.00210006
0.00267672
0.000450439
6.5865e-05
2.6167e-05
1.37446e-05
1.41322e-05
5.35626e-06
1.4751e-07
5.38512e-07
7.12626e-07
8.182e-06
9.82413e-06
3.28758e-06
4.64326e-08
2.15926e-05
3.30151e-07
3.30616e-07
3.31101e-07
3.31113e-07
9.40603e-06
6.18089e-06
3.43626e-05
1.89394e-05
1.38853e-05
1.3932e-05
9.90809e-06
4.07017e-06
5.22503e-06
6.54401e-06
1.63404e-05
1.65436e-05
1.38497e-05
4.64326e-08
4.64326e-08
1.01864e-05
8.5059e-06
3.31064e-07
3.31158e-07
3.81122e-06
4.49636e-05
6.86464e-05
6.84043e-05
2.65625e-05
1.3478e-05
1.08417e-05
9.6445e-06
2.33213e-05
2.3204e-05
3.35446e-06
9.41607e-06
2.00752e-06
3.75175e-07
4.64326e-08
7.71697e-06
1.68135e-05
1.36042e-05
8.35023e-06
7.65068e-06
4.55512e-05
5.4948e-05
3.69676e-05
1.45857e-05
5.89158e-06
6.71969e-07
2.39768e-07
1.89195e-05
2.68256e-05
3.44337e-06
3.36979e-06
1.17568e-05
1.45839e-05
1.99987e-06
2.55203e-07
9.82942e-06
1.86555e-05
1.86381e-05
1.84792e-05
1.47337e-05
1.66595e-06
1.25367e-06
1.21427e-06
3.71527e-07
5.52762e-08
5.50721e-08
8.88981e-06
2.68376e-05
2.14346e-05
3.75923e-06
1.98334e-05
2.15359e-05
1.70935e-05
3.60731e-08
1.09729e-06
5.21291e-06
6.83132e-06
3.49977e-06
1.90592e-05
5.34316e-05
4.97216e-05
1.70152e-05
7.28195e-07
2.9506e-07
5.50127e-08
4.85491e-08
1.98588e-05
2.68651e-05
9.57153e-06
2.2227e-05
2.2151e-05
2.22283e-05
3.62507e-08
3.70694e-08
1.1743e-06
9.21786e-07
4.07961e-08
1.58281e-06
5.26278e-05
6.06312e-05
6.05854e-05
3.94154e-05
2.51275e-06
4.86436e-08
4.28263e-08
2.68928e-25
2.38576e-05
1.86823e-05
1.60068e-05
6.95129e-06
9.58482e-06
3.54526e-08
5.1882e-08
4.33796e-08
1.99406e-07
4.21729e-08
2.34459e-09
6.21306e-06
4.77422e-05
4.88292e-05
4.31216e-05
4.1285e-06
5.48067e-08
1.15873e-06
-1.47601e-08
1.60493e-05
1.93774e-05
7.11454e-06
6.95306e-06
6.95222e-06
3.36303e-08
2.69308e-08
3.08957e-09
2.35655e-09
2.32838e-09
2.34416e-09
2.34351e-09
9.07247e-06
4.12124e-05
4.21495e-05
3.12305e-05
1.93998e-05
3.54976e-06
8.34118e-09
8.41335e-06
1.94118e-05
7.06827e-06
6.95222e-06
8.92443e-06
5.72163e-09
3.66642e-09
3.11748e-09
2.96821e-08
2.1591e-07
3.40406e-07
2.3676e-09
4.26215e-06
3.59189e-05
4.22245e-05
4.20967e-05
2.41577e-05
8.88157e-07
6.83582e-09
1.16823e-05
1.82797e-05
7.42549e-06
7.97306e-06
1.27949e-05
5.58779e-09
4.2336e-09
3.44043e-09
3.47424e-09
8.84855e-07
2.78296e-06
4.57015e-06
6.05855e-06
1.032e-05
2.12743e-05
1.83544e-05
6.43378e-06
6.34407e-08
2.6355e-07
8.02435e-06
5.36575e-06
1.02879e-05
1.26154e-05
1.25136e-05
3.64995e-09
5.44764e-09
1.0492e-08
3.62315e-08
3.58816e-07
7.0979e-07
6.60939e-07
2.08126e-07
1.0939e-09
1.84472e-09
1.09817e-09
1.84154e-09
6.15538e-08
1.03423e-06
4.73841e-07
7.23318e-08
3.6633e-06
7.39867e-06
9.95461e-07
1.14171e-09
1.44482e-09
2.35686e-09
4.65636e-09
1.39118e-09
1.39537e-09
1.39672e-09
8.10201e-09
8.86696e-09
4.82525e-09
2.6989e-09
6.99843e-09
9.7968e-08
6.73274e-07
8.14681e-08
7.20057e-08
2.50681e-09
2.42391e-09
2.34434e-09
3.84296e-10
4.7931e-10
6.85589e-10
1.04474e-09
1.38698e-09
2.34328e-09
3.58199e-09
5.34345e-09
6.01298e-09
7.09646e-09
7.02487e-09
3.42561e-08
1.28741e-07
6.89946e-08
2.63243e-08
3.32289e-08
3.26966e-09
9.72319e-08
2.11587e-07
1.80202e-10
2.59374e-10
3.77928e-10
5.55504e-10
8.61267e-10
1.42012e-09
2.25715e-09
3.2831e-09
4.35846e-09
5.90635e-09
9.25847e-09
2.61451e-08
7.70423e-08
2.95926e-08
2.10208e-08
3.76745e-09
2.7436e-09
2.41478e-07
2.67395e-07
9.55182e-11
1.4707e-10
2.17031e-10
3.17706e-10
4.76624e-10
7.28152e-10
1.17041e-09
1.88261e-09
3.04512e-09
4.94351e-09
9.32243e-09
1.71042e-08
3.4347e-08
2.67743e-08
1.21552e-08
3.69907e-09
2.14157e-08
3.31645e-07
2.42673e-07
4.86297e-11
7.81304e-11
1.20036e-10
1.83663e-10
2.85291e-10
4.53282e-10
7.47489e-10
1.23629e-09
2.05691e-09
3.60617e-09
7.17481e-09
1.24311e-08
2.02981e-08
1.99156e-08
8.87506e-09
7.56899e-09
6.5107e-08
3.41368e-07
9.62353e-08
2.35224e-11
3.75111e-11
5.94071e-11
9.3461e-11
1.4945e-10
2.48757e-10
4.25392e-10
7.39981e-10
1.28968e-09
2.25278e-09
4.53108e-09
9.08454e-09
1.45187e-08
1.76411e-08
8.65883e-09
4.57442e-08
1.74819e-07
1.82166e-07
8.50639e-08
9.69962e-12
1.61745e-11
2.5496e-11
4.09966e-11
6.7834e-11
1.15496e-10
2.04712e-10
3.69961e-10
6.74249e-10
1.21647e-09
2.28177e-09
4.955e-09
8.65374e-09
1.2559e-08
1.85145e-08
7.08385e-08
9.8201e-08
3.29441e-08
2.51669e-07
3.99927e-12
6.45073e-12
1.01667e-11
1.63196e-11
2.68408e-11
4.65351e-11
8.56741e-11
1.60485e-10
3.06054e-10
5.83078e-10
1.07303e-09
2.13058e-09
4.40741e-09
4.62929e-09
1.76677e-08
3.71902e-08
3.52761e-08
4.11286e-09
4.48701e-07
1.42491e-12
2.43413e-12
3.75232e-12
5.94233e-12
9.85203e-12
1.69451e-11
3.14062e-11
6.49249e-11
1.34501e-10
2.74869e-10
5.20885e-10
8.74261e-10
1.20791e-09
1.04667e-09
5.08943e-09
3.22959e-09
3.16752e-09
4.11448e-09
4.4803e-07
5.08758e-13
8.32874e-13
1.26017e-12
1.9321e-12
3.07533e-12
5.30869e-12
9.29282e-12
1.62695e-11
2.77239e-11
5.44052e-11
1.32597e-10
3.38105e-10
4.57992e-10
2.53077e-10
2.36059e-10
1.87808e-09
3.17911e-09
3.18914e-09
4.04984e-07
1.72656e-13
2.67336e-13
3.80319e-13
5.58849e-13
8.5656e-13
1.3104e-12
1.99685e-12
2.85974e-12
3.70348e-12
6.50784e-12
2.03847e-11
6.63526e-11
1.51837e-10
8.08573e-11
2.09948e-10
1.11611e-09
4.38771e-09
1.19282e-08
8.14313e-08
5.27594e-14
7.6553e-14
1.09185e-13
1.5336e-13
2.15553e-13
3.12579e-13
4.40056e-13
5.81942e-13
6.91683e-13
9.32875e-13
2.66162e-12
1.03624e-11
3.35026e-11
4.66565e-11
2.07919e-10
1.05706e-09
4.93342e-09
1.60959e-08
8.34639e-10
1.55832e-14
2.26378e-14
3.06824e-14
4.06107e-14
5.40079e-14
7.24473e-14
9.69922e-14
1.26591e-13
1.56377e-13
2.25734e-13
5.79309e-13
2.37501e-12
9.23793e-12
2.66155e-11
9.32437e-11
7.59186e-10
3.40737e-09
1.30992e-08
8.34591e-10
4.44722e-15
6.17063e-15
8.15158e-15
1.04056e-14
1.33575e-14
1.75176e-14
2.32741e-14
3.03208e-14
3.90868e-14
5.93637e-14
1.57039e-13
6.14535e-13
2.76621e-12
1.15059e-11
2.80698e-11
2.26271e-10
1.30082e-09
2.75721e-09
8.34673e-10
1.11699e-15
1.599e-15
2.08653e-15
2.63114e-15
3.37244e-15
4.51353e-15
6.30448e-15
8.98325e-15
1.30625e-14
2.10336e-14
4.71432e-14
1.70294e-13
6.88212e-13
2.89766e-12
1.08494e-11
3.51519e-11
1.35597e-10
2.82835e-10
5.49206e-10
2.69443e-16
3.87051e-16
5.08171e-16
6.51898e-16
8.73399e-16
1.26728e-15
2.02603e-15
3.52814e-15
6.43647e-15
1.21682e-14
2.5294e-14
6.70298e-14
2.35448e-13
7.43807e-13
3.70607e-12
1.08045e-11
3.89456e-11
7.6929e-11
2.6732e-10
5.93512e-17
8.68834e-17
1.16219e-16
1.55311e-16
2.24851e-16
3.7878e-16
7.5092e-16
1.63685e-15
3.65299e-15
8.03307e-15
1.72931e-14
3.86781e-14
1.07129e-13
3.35267e-13
8.43875e-13
2.74076e-12
9.82026e-12
3.15941e-11
5.3308e-11
1.19635e-17
1.73846e-17
2.40126e-17
3.44235e-17
5.56923e-17
1.11406e-16
2.76871e-16
7.41186e-16
1.95815e-15
4.90291e-15
1.1543e-14
2.59569e-14
6.13394e-14
1.57538e-13
3.90075e-13
1.05022e-12
2.43901e-12
6.57961e-12
1.30841e-11
2.17312e-18
3.13759e-18
4.48257e-18
6.87852e-18
1.26e-17
3.04708e-17
9.22828e-17
3.00482e-16
9.37535e-16
2.66711e-15
6.90595e-15
1.64133e-14
3.68222e-14
8.85895e-14
2.26133e-13
4.72781e-13
6.24039e-13
9.12685e-13
1.67252e-12
3.37138e-19
4.88989e-19
7.16471e-19
1.1714e-18
2.37274e-18
6.51247e-18
2.29911e-17
8.74074e-17
3.15427e-16
1.03445e-15
3.05202e-15
8.14663e-15
2.01383e-14
4.8245e-14
1.19328e-13
2.75379e-13
4.27966e-13
4.59998e-13
3.72754e-13
4.63305e-20
6.44774e-20
9.49907e-20
1.59003e-19
3.17449e-19
8.34948e-19
3.06443e-18
1.27442e-17
5.16136e-17
1.96453e-16
6.85553e-16
2.23607e-15
6.68796e-15
1.86964e-14
5.02731e-14
1.28245e-13
2.30063e-13
2.62962e-13
1.24095e-13
)
;

boundaryField
{
    leftWall
    {
        type            zeroGradient;
    }
    rightWall
    {
        type            zeroGradient;
    }
    lowerWall
    {
        type            zeroGradient;
    }
    atmosphere
    {
        type            inletOutlet;
        inletValue      uniform 0;
        value           nonuniform List<scalar> 
46
(
4.27847e-08
4.12345e-08
2.16409e-08
9.14117e-09
0
0
0
0
0
0
0
0
0
0
0
0
0
0
0
0
2.61173e-16
1.24447e-16
2.3846e-17
5.53652e-19
5.66029e-20
3.36469e-20
4.0344e-20
4.63305e-20
6.44774e-20
9.49907e-20
1.59003e-19
3.17449e-19
8.34948e-19
3.06443e-18
1.27442e-17
5.16136e-17
1.96453e-16
6.85553e-16
2.23607e-15
6.68796e-15
1.86964e-14
5.02731e-14
1.28245e-13
2.30063e-13
2.62962e-13
1.24095e-13
)
;
    }
    defaultFaces
    {
        type            empty;
    }
}


// ************************************************************************* //
