/*--------------------------------*- C++ -*----------------------------------*\
| =========                 |                                                 |
| \\      /  F ield         | OpenFOAM: The Open Source CFD Toolbox           |
|  \\    /   O peration     | Version:  2312                                  |
|   \\  /    A nd           | Website:  www.openfoam.com                      |
|    \\/     M anipulation  |                                                 |
\*---------------------------------------------------------------------------*/
FoamFile
{
    version     2.0;
    format      ascii;
    arch        "LSB;label=32;scalar=64";
    class       volScalarField;
    location    "3.65";
    object      alpha.air;
}
// * * * * * * * * * * * * * * * * * * * * * * * * * * * * * * * * * * * * * //

dimensions      [0 0 0 0 0 0 0];

internalField   nonuniform List<scalar> 
2268
(
8.1392e-10
8.13682e-10
8.38578e-10
7.98801e-10
6.49864e-10
4.10841e-10
1.91307e-10
1.10616e-10
9.43032e-11
6.58501e-11
4.19145e-11
3.46415e-11
3.46209e-11
3.92361e-11
4.97932e-11
6.5705e-11
9.43236e-11
1.12327e-10
1.19038e-10
1.19129e-10
7.63901e-10
7.77016e-10
1.47432e-07
9.75322e-10
1.8256e-09
2.27299e-09
2.97502e-09
2.67151e-09
1.35043e-09
2.02935e-10
1.10346e-10
2.25977e-09
7.17612e-10
2.23238e-10
1.53107e-10
1.49755e-10
2.23834e-10
1.85443e-10
3.16342e-10
6.03346e-10
9.586e-10
1.14444e-09
4.65237e-10
2.55061e-28
1.10566e-08
1.25056e-06
9.11404e-10
2.67003e-09
1.56052e-08
2.82683e-08
3.78275e-09
1.16562e-09
2.02982e-10
8.68541e-08
3.65429e-08
4.33777e-09
8.18825e-10
8.93437e-10
3.54557e-10
7.16623e-09
9.99788e-10
2.57366e-10
2.5255e-10
4.0129e-09
6.8323e-09
6.76076e-09
-3.19933e-27
7.23003e-07
1.4343e-06
9.10699e-10
9.10488e-10
4.22268e-06
3.8396e-06
2.01666e-09
1.35614e-09
1.39109e-06
6.10528e-07
5.77169e-08
1.5567e-09
1.43123e-09
1.36793e-08
5.77587e-09
8.92646e-07
3.10118e-07
2.47397e-08
2.52695e-10
2.52583e-10
1.57877e-09
-6.10443e-27
-7.25198e-16
3.80341e-07
8.22278e-07
0.000385756
0.000565705
0.000783026
0.000778049
0.000525963
0.000145829
4.04314e-06
1.54303e-09
1.5358e-09
6.42173e-06
4.04569e-05
5.50516e-05
3.34025e-05
1.43422e-05
3.1476e-06
1.21141e-06
8.49149e-07
6.01241e-07
9.69156e-07
5.82231e-07
1.98576e-08
4.27452e-08
7.03685e-08
0.00119079
0.00132594
0.00132594
0.00132594
0.00132594
0.000529989
2.39988e-05
1.49044e-06
3.24263e-09
3.32468e-05
0.000207819
0.000340006
0.000186005
5.49184e-06
3.11564e-06
1.56438e-05
5.48448e-05
1.80848e-05
1.02074e-09
3.78626e-10
9.71735e-09
2.4248e-08
2.83513e-08
0.000534835
0.00127296
0.00132594
0.00132594
0.000976213
0.000396219
0.000232111
5.23427e-05
2.0434e-06
1.31355e-05
0.000157955
0.000335882
0.000449135
0.000516947
0.000682861
0.000811321
0.000197657
1.8005e-05
0.00198139
0.00206404
0.000955398
0.000688256
0.00675717
0.000368105
0.00040806
0.0008356
0.00042988
0.00025972
0.00023964
0.000185639
5.19933e-05
1.00362e-05
2.12286e-05
7.40079e-05
7.57289e-05
0.00169693
0.00338861
0.00357914
0.00591399
0.00437987
0.00860809
0.00873143
0.00872625
0.00685805
0.00839043
0.00845126
0.000409569
0.00216181
0.00410966
0.00777575
0.00930375
0.00930376
0.00794952
0.00415902
0.00360447
0.00360465
0.00360414
0.00370141
0.00353581
0.00295498
0.00294739
0.00603349
0.00676002
0.00660593
0.00660662
0.000188822
0.000189451
0.000553436
0.00130487
0.0019606
0.00249761
0.00588416
0.00766899
0.00624154
0.0042765
0.00311176
0.00309259
0.00316972
0.00300618
0.0029454
0.00371415
0.0135487
0.0141413
0.00811456
0.000188822
0.00153658
0.00259372
0.00314792
0.00293092
0.00387647
0.0147057
0.0200218
0.0200324
0.0130339
0.00350875
0.00313276
0.00457223
0.00438893
0.00294426
0.00294619
0.0160499
0.0161311
0.0130181
0.00170891
0.00624952
0.00750199
0.00803357
0.00795176
0.010304
0.0141025
0.0161276
0.0164467
0.0146675
0.0233492
0.0250615
0.0236811
0.0194661
0.0240088
0.0333381
0.0199805
0.0105197
0.0094385
0.00408711
0.00449007
0.00452228
0.00541974
0.00458337
0.0039327
0.00393261
0.0048606
0.00613539
0.00482741
0.0363577
0.0358098
0.0228523
0.0194347
0.0194714
0.0410086
0.0264547
0.00968491
0.00943811
0.00343666
0.00349641
0.00787215
0.0073813
0.0063931
0.00573617
0.00451258
0.013405
0.0180207
0.0315689
0.0413046
0.0227791
0.0150746
0.0253303
0.0426662
0.0457291
0.0239532
0.00943793
0.00943797
0.00343615
0.00343574
0.0139882
0.0184537
0.0171692
0.0166152
0.0168376
0.0217292
0.0928111
0.0252387
0.0413066
0.0150491
0.0150234
0.0287166
0.0525507
0.0513444
0.0504101
0.0189145
0.0094381
0.00344182
0.00343543
0.0107109
0.0342687
0.0365172
0.0340247
0.0192922
0.0766608
0.0921281
0.0216004
0.02641
0.020539
0.0374303
0.0744614
0.0528044
0.0525462
0.051557
0.029911
0.0199097
0.000360616
0.000361822
0.000362553
0.000304407
0.000258977
0.00027581
0.000313824
0.000174038
1.23842e-05
6.04277e-05
0.000307969
0.000439143
0.00150305
0.00623315
0.0135506
0.0135121
0.0126036
0.00749229
0.00244195
0.00243044
0.00243025
0.00244564
0.0033325
0.000365138
0.00124755
0.00132755
0.000878852
0.000260332
0.00023301
0.000274993
0.000213653
2.53361e-05
2.3704e-05
2.24854e-05
2.28194e-05
3.05554e-05
0.000339098
0.0134645
0.00872979
0.00537912
0.00316932
0.00305478
0.00516487
0.00625177
0.01757
0.0350129
0.000364996
0.00359086
0.00991086
0.000617823
0.000161548
2.27218e-05
2.24133e-05
0.000623587
0.000154448
0.000161191
0.000227008
0.00183227
0.00176919
0.00960867
0.0135451
0.0176001
0.0171933
0.0147416
0.0111843
0.0278275
0.0441801
0.0442612
0.0102139
0.022013
0.031545
0.0334594
0.0416547
0.0423716
0.0372768
0.0346823
0.0467542
0.0298751
0.00677368
0.00986434
0.0237738
0.0368938
0.0472423
0.0720581
0.0642986
0.0359574
0.0349288
0.0351025
0.0290482
0.0323255
0.0219668
0.00351385
0.0660222
0.0408823
0.0192351
0.0678667
0.0738179
0.0737968
0.0738277
0.0738037
0.0715497
0.0575922
0.0682684
0.0907764
0.0907351
0.0907759
0.0907348
0.0437813
0.0116657
0.0195518
0.0153451
0.00366921
0.00131852
0.000706214
0.000110299
0.0660308
0.0501031
0.00135501
0.00019891
0.0503859
0.0738162
0.0737927
0.0708641
0.066015
0.0565843
0.0629594
0.0834935
0.0640465
0.0366066
0.0321777
0.00189436
0.00109554
0.00107911
0.00105754
0.00073805
0.000729477
0.000486347
7.29683e-05
0.0660225
0.0160783
0.000196116
0.000198499
0.00087194
0.0317717
0.031796
0.0071631
0.000421952
0.00038839
0.000395177
0.0367817
0.0385025
0.0377543
0.0471842
0.0714917
0.0859195
0.0929376
0.103529
0.119765
0.126075
0.124226
0.110935
0.0248265
0.0026541
0.000195926
0.000261106
0.000387505
0.000424291
0.000425988
0.000401764
0.000335106
0.000309725
0.000395321
0.0644174
0.21895
0.477816
0.714464
0.833733
0.886172
0.906269
0.913745
0.907761
0.886247
0.859816
0.824067
0.000204529
0.000138139
0.00013725
0.000139059
0.000164801
0.000234135
0.000267389
0.000277019
0.000312869
0.000308788
0.000312408
0.123362
0.612896
0.974318
0.991308
0.999281
0.999963
0.999996
0.999992
0.999861
0.999435
0.998584
0.997379
0.0376525
0.0528923
0.0659208
0.0713159
0.0774215
0.0882734
0.105695
0.136442
0.184113
0.208162
0.221814
0.410048
0.900095
0.992162
0.997788
0.99999
0.999998
0.999997
0.999996
0.999999
0.999999
0.999999
0.999999
0.726268
0.757182
0.783697
0.792846
0.801452
0.817152
0.840619
0.874095
0.91627
0.962016
0.983135
0.985263
0.996067
0.999769
0.999995
0.999998
0.999998
0.99999
0.999986
0.99999
0.999999
0.999999
0.999999
0.999805
1
0.999995
1
1
0.999997
0.999934
0.999889
0.999977
0.999975
0.99997
0.994955
0.99912
0.999982
0.999999
0.999998
0.999998
0.999997
0.999991
0.999985
0.99999
0.999994
0.999995
1
1
1
1
1
1
1
1
0.999999
0.999989
0.999914
0.999535
0.999844
0.999999
0.999999
0.999999
0.999999
0.999999
0.999999
0.999997
0.999961
0.999959
0.99998
1
1
0.999999
0.999999
0.999999
1
1
0.999998
0.999989
0.99999
1
1
0.999999
0.999999
1
1
1
1
0.999999
0.999966
0.999955
0.999954
0.999971
1
1
0.999999
0.999996
0.999996
0.999998
1
1
0.999999
0.999999
1
1
1
1
1
0.999996
0.999999
0.999986
0.999957
0.999955
0.999954
0.999967
0.999992
1
1
0.999999
0.999996
0.999996
0.999997
1
1
0.999999
0.999998
0.999998
0.99998
0.999958
0.999927
0.999925
0.999924
0.999928
0.999962
0.999978
0.999982
0.999988
0.999997
0.999999
1
1
1
0.999998
0.999996
0.999997
1
0.999997
0.999952
0.999924
0.999924
0.999924
0.999924
0.999936
0.999937
0.999954
0.999975
0.999989
0.999999
1
1
1
1
1
1
1
1
0.999999
0.999999
0.999998
0.999982
0.999939
0.999929
0.999963
0.999977
0.999984
0.999989
0.99999
0.999999
1
1
1
1
1
1
1
1
1
1
1
1
1
0.999996
0.999996
0.999999
1
1
1
1
1
1
1
1
1
1
1
1
1
1
1
1
1
1
1
1
1
1
1
1
1
1
1
1
1
1
1
1
1
1
1
1
1
1
1
1
1
1
1
1
1
1
1
1
1
1
1
1
1
1
1
1
1
1
1
1
1
1
1
1
1
1
1
1
1
1
1
1
1
1
1
1
1
1
1
1
1
1
1
1
1
1
1
1
1
1
1
1
1
1
1
1
1
1
1
1
1
1
1
1
1
1
1
1
1
1
1
1
1
1
1
1
1
1
1
1
1
1
1
1
1
1
1
1
1
1
1
1
1
1
1
1
1
1
1
1
1
1
1
1
1
1
1
1
1
1
1
1
1
1
1
1
1
1
1
1
1
1
1
1
1
1
1
1
1
1
1
1
1
1
1
1
1
1
1
1
1
1
1
1
1
1
1
1
1
1
1
1
1
1
1
1
1
1
1
1
1
1
1
1
1
1
1
1
1
1
1
1
1
1
1
1
1
1
1
1
1
1
1
1
1
1
1
1
1
1
1
1
1
1
1
1
1
1
1
1
1
1
1
1
1
1
1
1
1
1
1
1
1
1
1
1
1
1
1
1
1
1
1
1
1
1
1
1
1
1
1
1
1
1
1
1
1
1
1
1
1
1
1
1
1
1
1
1
1
1
1
1
1
1
0.999999
0.999999
1
1
1
1
1
1
1
1
1
1
1
1
1
1
1
1
1
1
1
1
0.999999
0.999999
0.999999
0.999999
1
1
1
1
1
1
1
1
1
1
1
1
1
1
1
1
1
1
1
0.999999
0.999999
0.999999
0.999999
0.999999
1
1
1
1
1
1
1
1
1
1
1
1
1
1
1
1
1
1
0.999999
0.999999
0.999999
0.999999
0.999999
1
1
1
1
1
1
1
1
1
1
1
1
1
1
1
1
1
1
0.999999
1
1
0.999999
1
1
1
1
1
1
1
1
1
1
1
1
1
1
1
1
1
1
1
1
1
1
1
1
1
1
1
1
1
1
1
1
1
1
1
1
1
1
1
1
1
1
1
1
1
1
1
1
1
1
1
1
1
1
1
1
1
1
1
1
1
1
1
1
1
1
1
1
1
1
1
1
1
1
1
1
1
1
1
1
1
1
1
1
1
1
1
1
1
1
1
1
1
1
1
1
1
1
1
1
1
1
1
1
1
1
1
1
1
1
1
1
1
1
1
1
1
1
1
1
1
1
1
1
1
1
1
1
1
1
1
1
1
1
1
1
1
1
1
1
1
1
1
1
1
1
1
1
1
1
1
1
1
1
0.00324436
0.00849269
0.0441034
0.0488185
0.0524794
0.0524705
0.0524671
0.0502791
0.0328979
0.052468
0.0524619
0.0466028
0.00500217
0.0241926
0.0356163
0.0233229
0.00013775
0.00058558
0.00042852
5.30058e-10
1.44092e-10
1.69858e-11
2.56897e-09
-9.42632e-10
0.0942051
0.0807605
0.0918591
0.118095
0.792389
0.791965
0.802164
0.790307
0.989126
0.985978
0.990621
0.990403
0.999977
0.999889
0.999981
0.999992
0.999995
0.999996
0.999996
1
0.999997
0.999997
0.999997
0.999992
0.999994
0.999998
0.999999
0.999998
0.999996
0.999999
1
1
0.999999
1
1
1
1
1
1
1
1
1
1
1
1
1
1
1
1
1
1
1
1
1
1
1
1
1
1
1
1
1
1
1
1
1
1
1
1
1
1
1
1
1
1
1
1
1
1
1
1
1
1
1
1
1
1
1
1
1
1
1
1
1
1
1
1
1
1
1
1
1
1
1
1
1
1
1
1
1
1
1
1
1
1
1
1
1
1
1
1
1
1
1
1
1
1
1
1
1
1
1
1
1
1
1
1
1
1
1
1
1
1
1
0.0103055
0.00745583
0.0216778
0.0657451
0.0716992
0.0716243
0.0793444
0.109332
0.0914744
0.0259299
0.0283916
0.0701661
0.093314
0.0932983
0.0859664
0.0275805
0.0161665
0.0298167
0.0282541
0.0170268
0.0369446
0.0325829
0.0377279
0.0544139
0.0703504
0.17479
0.0930957
0.0287564
0.0288534
0.0798523
0.093311
0.0933125
0.0504082
0.0117344
0.00210685
0.00205716
0.0132818
0.0164099
0.0471406
0.0470918
0.0250286
0.000450228
0.0150893
0.139635
0.186318
0.0936777
0.0315123
0.0379014
0.0743347
0.0917441
0.0250574
0.00143045
0.025248
0.043781
0.00204864
0.00204862
0.00204855
0.0232469
0.0180533
0.00231791
0.000448668
0.0420354
0.186324
0.186295
0.186315
0.185781
0.0473061
0.001202
0.0194823
0.0154956
0.00150621
0.0368238
0.0561039
0.0557172
0.00204864
0.00204873
8.77625e-23
0.000543819
0.000723111
0.000644149
0.0145555
0.118116
0.140793
0.172083
0.17995
0.04375
0.00120196
0.00120199
0.00129794
0.00122344
0.00160229
0.019522
0.14301
0.00205334
0.00204886
2.65201e-24
6.464e-05
0.000265634
0.000311723
0.000554055
0.00237149
0.00698871
0.00612341
0.00863388
0.0128429
0.013924
0.00120173
0.00135822
0.0012298
0.00335421
0.0205373
0.237529
0.0134877
0.00431072
0.0857126
0.00957675
0.000143117
0.000145676
0.000144367
0.00014812
0.000193281
0.000198537
0.0407641
0.0762634
0.116203
0.191757
0.261743
0.378799
0.462462
0.477555
0.430971
0.489929
0.0882322
0.732085
0.61279
0.370577
0.269227
0.244711
0.263904
0.345781
0.462092
0.597374
0.757058
0.879546
0.957192
0.996465
0.996833
0.995665
0.986034
0.939104
0.955434
0.860608
0.987886
0.989893
0.977521
0.944303
0.929603
0.938679
0.967736
0.988307
0.996739
0.999503
0.999938
0.999972
0.999972
0.999971
0.999787
0.999718
0.999996
0.999496
0.999141
0.999946
0.999925
0.999486
0.997648
0.997126
0.999155
0.999067
0.999082
0.999769
0.999952
0.999951
0.999904
0.999858
0.999867
0.999967
0.99999
0.999997
1
0.999809
1
1
1
1
0.99999
0.999988
0.999935
0.999937
0.999948
0.999948
0.999909
0.999854
0.999854
0.999856
0.999949
0.999981
0.999986
1
1
0.99999
0.999991
0.999999
0.999998
0.999988
0.999886
0.999846
0.999846
0.9999
0.9999
0.999911
0.999963
0.99994
0.999931
0.999991
0.999986
0.99998
0.999973
0.999996
0.99999
0.999983
0.999986
0.999989
0.999981
0.999906
0.999878
0.999906
0.999965
0.999974
0.999994
0.999998
0.999936
0.999781
0.999992
0.999941
0.999755
0.999736
0.99982
0.999999
0.999981
0.999966
0.999981
0.999977
0.999977
0.999993
0.999995
0.999995
0.999995
0.999997
0.999998
0.999965
0.999781
0.999883
0.999868
0.999728
0.999728
0.999727
1
0.999954
0.999945
0.999947
0.999976
0.999977
0.999945
0.999948
0.999979
0.999994
0.999986
0.999992
1
0.999825
0.999741
0.999877
0.999736
0.999799
0.999731
1
0.99997
0.999945
0.999944
0.999956
0.999993
0.999945
0.999924
0.999919
0.999923
0.999965
0.999996
1
0.999984
0.999743
0.999847
0.999953
0.999973
0.999863
1
0.999998
0.999976
0.999966
0.999983
0.999997
0.999991
0.999924
0.999918
0.999918
0.999957
0.999984
0.999999
1
0.999764
0.999837
0.999973
0.999973
0.999973
1
0.999999
1
1
1
1
0.999997
0.999951
0.999918
0.999918
0.99993
0.999954
0.999996
1
0.999799
0.999852
0.999972
0.999972
0.999938
1
0.999999
0.999999
0.999999
0.999999
0.999999
0.999998
0.999971
0.999924
0.999919
0.99992
0.999957
0.999999
1
0.999814
0.99981
0.999959
0.999957
0.999888
1
1
1
1
0.999998
0.999996
0.999994
0.999992
0.99998
0.999961
0.999966
0.999988
1
0.999999
0.999858
0.999896
0.999956
0.999904
0.99989
1
1
1
1
1
0.999999
0.999999
1
1
1
1
1
1
0.999994
0.999983
0.999993
0.999982
0.999952
0.999963
1
1
1
1
1
1
1
1
1
1
1
1
1
0.999996
1
0.999994
0.999995
0.999999
1
1
1
1
1
1
1
1
1
1
1
1
1
1
1
1
0.999996
0.999998
1
1
1
1
1
1
1
1
1
1
1
1
1
1
1
1
1
1
1
1
1
1
1
1
1
1
1
1
1
1
1
1
1
1
1
1
1
1
0.999999
1
1
1
1
1
1
1
1
1
1
1
1
1
1
1
1
1
1
1
1
1
1
1
1
1
1
1
1
1
1
1
1
1
1
1
1
1
1
1
1
1
1
1
1
1
1
1
1
1
1
1
1
1
1
0.999999
0.999999
1
0.999997
1
1
1
1
1
1
1
1
1
1
1
1
1
1
1
0.999999
0.999999
1
0.999996
1
1
1
1
1
1
1
1
1
1
1
1
1
1
1
1
1
1
0.999996
1
1
1
1
1
1
1
1
1
1
1
1
1
1
0.999999
0.999998
1
1
0.999997
1
1
1
1
1
1
1
1
1
1
1
1
1
1
0.999994
0.999993
0.999999
1
1
1
1
1
1
1
1
1
1
1
1
1
1
1
1
0.999995
0.999993
0.999994
1
1
1
1
1
1
1
1
1
1
1
1
1
1
1
1
0.999998
0.999993
0.999993
0.999995
0.999996
1
1
1
1
1
1
1
1
1
1
1
1
1
1
1
0.999996
0.999993
0.999994
0.999998
1
1
1
1
1
1
1
1
1
1
1
1
1
1
1
1
0.999998
0.999999
1
1
1
1
1
1
1
1
1
1
1
1
1
1
1
1
1
1
1
1
1
1
1
1
1
1
1
1
1
1
1
1
1
1
1
1
1
1
1
1
1
1
1
1
1
1
1
1
1
1
1
1
1
1
1
1
1
1
1
1
1
1
1
1
1
1
1
1
1
1
1
1
1
1
1
1
1
1
1
1
1
1
1
1
1
1
1
1
1
1
1
1
1
1
1
1
1
1
1
1
1
1
1
1
1
1
1
1
1
1
1
1
1
1
1
)
;

boundaryField
{
    leftWall
    {
        type            alphaContactAngle;
        thetaProperties 
6
(
(galistan air) 90 0 0 0
(oil galistan) 90 0 0 0
(water oil) 90 0 0 0
(water air) 90 0 0 0
(oil air) 90 0 0 0
(water galistan) 90 0 0 0
);
        value           nonuniform List<scalar> 
50
(
8.1392e-10
9.75322e-10
9.11404e-10
9.10699e-10
0.000385756
0.00119079
0.000534835
0.000368105
0.000360616
0.000365138
0.000364996
0.022013
0.0660222
0.0660308
0.0660225
0.0248265
0.000204529
0.0376525
0.726268
0.999805
1
1
1
1
1
1
1
1
1
1
1
1
1
1
1
1
1
1
1
1
1
1
1
1
1
1
1
1
1
1
)
;
    }
    rightWall
    {
        type            alphaContactAngle;
        thetaProperties 
6
(
(galistan air) 90 0 0 0
(oil galistan) 90 0 0 0
(water oil) 90 0 0 0
(water air) 90 0 0 0
(oil air) 90 0 0 0
(water galistan) 90 0 0 0
);
        value           nonuniform List<scalar> 
50
(
0.00660662
0.00811456
0.0130181
0.0094385
0.00943811
0.00943797
0.0094381
0.0199097
0.0282541
0.0164099
0.00204855
0.00204873
0.00204886
0.00431072
0.0882322
0.860608
0.999141
0.999809
1
0.999996
0.99982
0.999727
0.999731
0.999863
0.999973
0.999938
0.999888
0.99989
0.999963
1
1
1
1
1
1
0.999997
0.999996
0.999996
0.999997
1
1
0.999996
0.999998
1
1
1
1
1
1
1
)
;
    }
    lowerWall
    {
        type            alphaContactAngle;
        thetaProperties 
6
(
(galistan air) 90 0 0 0
(oil galistan) 90 0 0 0
(water oil) 90 0 0 0
(water air) 90 0 0 0
(oil air) 90 0 0 0
(water galistan) 90 0 0 0
);
        value           nonuniform List<scalar> 
62
(
8.1392e-10
8.13682e-10
8.38578e-10
7.98801e-10
6.49864e-10
4.10841e-10
1.91307e-10
1.10616e-10
9.43032e-11
6.58501e-11
4.19145e-11
3.46415e-11
3.46209e-11
3.92361e-11
4.97932e-11
6.5705e-11
9.43236e-11
1.12327e-10
1.19038e-10
1.19129e-10
7.63901e-10
7.77016e-10
1.47432e-07
1.47432e-07
1.25056e-06
1.4343e-06
8.22278e-07
7.03685e-08
2.83513e-08
0.00675717
0.00845126
0.00324436
0.00849269
0.0441034
0.0488185
0.000409569
0.000188822
0.000188822
0.00170891
0.00408711
0.00343666
0.00343615
0.00344182
0.000409569
0.00216181
0.00410966
0.00777575
0.00930375
0.00930376
0.00794952
0.00415902
0.00360447
0.00360465
0.00360414
0.00370141
0.00353581
0.00295498
0.00294739
0.00603349
0.00676002
0.00660593
0.00660662
)
;
    }
    atmosphere
    {
        type            inletOutlet;
        inletValue      uniform 1;
        value           nonuniform List<scalar> 
46
(
1
1
1
1
1
1
1
1
1
1
1
1
1
1
1
1
1
1
1
1
1
1
1
1
1
1
1
1
1
1
1
1
1
1
1
1
1
1
1
1
1
1
1
1
1
1
)
;
    }
    defaultFaces
    {
        type            empty;
    }
}


// ************************************************************************* //
