/*--------------------------------*- C++ -*----------------------------------*\
| =========                 |                                                 |
| \\      /  F ield         | OpenFOAM: The Open Source CFD Toolbox           |
|  \\    /   O peration     | Version:  2312                                  |
|   \\  /    A nd           | Website:  www.openfoam.com                      |
|    \\/     M anipulation  |                                                 |
\*---------------------------------------------------------------------------*/
FoamFile
{
    version     2.0;
    format      ascii;
    arch        "LSB;label=32;scalar=64";
    class       volScalarField;
    location    "3.65";
    object      alpha.water_0;
}
// * * * * * * * * * * * * * * * * * * * * * * * * * * * * * * * * * * * * * //

dimensions      [0 0 0 0 0 0 0];

internalField   nonuniform List<scalar> 
2268
(
3.78016e-07
3.00382e-07
6.56873e-08
1.50364e-08
4.58273e-09
9.96418e-10
2.51733e-10
1.77043e-10
1.20432e-10
8.40889e-11
6.32343e-11
5.17363e-11
4.70346e-11
4.62829e-11
4.9145e-11
5.54227e-11
7.22889e-11
1.00487e-10
1.3961e-10
2.33309e-10
4.34556e-10
9.63031e-10
1.29941e-09
3.54711e-07
2.55298e-07
6.93125e-08
1.46991e-08
1.94325e-09
2.86063e-10
2.47335e-10
2.00603e-10
1.52939e-10
1.17273e-10
1.10399e-10
9.59338e-11
8.39828e-11
7.67046e-11
7.56908e-11
8.84816e-11
1.11054e-10
1.46094e-10
2.12379e-10
3.76209e-10
6.73435e-10
1.49491e-09
1.65635e-09
6.79735e-08
2.00292e-08
1.7075e-08
6.07023e-09
1.74984e-09
1.93154e-10
1.73649e-10
1.52024e-10
1.84361e-10
1.22635e-09
6.83044e-10
1.96653e-10
1.61418e-10
1.42518e-10
1.31163e-10
1.36552e-10
1.69528e-10
2.17216e-10
2.95525e-10
4.4054e-10
9.39588e-10
1.8219e-09
1.83541e-09
-2.11598e-11
-3.96349e-12
-2.41252e-12
-6.97271e-13
6.01306e-08
6.7679e-08
1.17587e-16
9.72858e-17
1.05611e-08
3.45012e-08
2.1381e-08
7.3785e-10
1.47158e-10
1.15605e-10
9.82011e-11
9.94333e-11
1.24795e-10
1.51204e-10
1.98495e-10
2.98475e-10
6.50718e-10
1.54023e-09
1.43078e-09
0.0509168
0.0499182
0.0490729
0.0492269
0.0488042
0.0454965
0.0386754
0.0289611
0.0176993
0.00711004
0.000819075
-8.29063e-14
-6.27428e-15
4.70259e-20
-1.65425e-20
2.39795e-24
-1.24829e-29
2.06166e-11
4.96737e-11
9.52553e-11
3.14275e-10
8.04076e-10
6.70904e-10
0.742598
0.738422
0.735882
0.735215
0.734723
0.727826
0.709634
0.677856
0.628191
0.554134
0.45378
0.342821
0.253121
0.170449
0.0908621
0.0316506
0.000518949
6.11187e-20
6.9835e-20
2.14319e-12
3.33047e-11
1.24029e-10
9.32406e-11
0.997685
0.995729
0.995519
0.996516
0.998251
0.99943
0.99959
0.9996
0.999524
0.99919
0.990771
0.967228
0.929981
0.877725
0.783458
0.635458
0.452532
0.264489
0.0883054
1.1851e-17
2.47142e-20
1.5884e-28
2.47142e-20
0.999605
0.99956
0.999133
0.999537
0.999654
0.999653
0.999653
0.999652
0.999652
0.994783
0.975525
0.971015
0.973068
0.973074
0.967233
0.937277
0.895437
0.811382
0.691084
0.452372
0.209681
0.0695645
0.00472766
0.014564
0.0137397
0.0137647
0.00811314
0.00614638
0.0100404
0.0133911
0.0157068
0.0156795
0.0146892
0.0147066
0.014417
0.0135706
0.0113423
0.00748737
0.00460069
0.00469425
0.00621871
0.00612796
0.0314279
0.00547828
0.00498941
0.00497029
0.00487532
0.00421004
0.00362581
0.00346179
0.0033951
0.00332736
0.00322342
0.00283845
0.00265351
0.0021895
0.00186682
0.00188115
0.00263325
0.00280701
0.00280754
0.381527
0.131639
0.0966042
0.0898834
0.117066
0.143613
0.164442
0.202303
0.155355
0.0575895
0.00333201
0.00187088
0.00186107
0.00185098
0.00186393
0.00186639
0.00187829
0.00208837
0.0109729
0.552866
0.602772
0.705313
0.621427
0.571625
0.57098
0.616669
0.842996
0.85082
0.507396
0.196372
0.151445
0.176271
0.212079
0.172991
0.156362
0.205235
0.285532
0.322172
0.651002
0.968668
0.96942
0.969412
0.935101
0.929302
0.953409
0.969483
0.969483
0.752796
0.405351
0.86321
0.852369
0.848678
0.829003
0.804001
0.840441
0.735528
0.473819
0.915491
0.969442
0.969428
0.969427
0.969222
0.969295
0.969463
0.969473
0.965475
0.575319
0.479694
0.899927
0.906481
0.906484
0.906481
0.906475
0.906472
0.863576
0.72262
0.799097
0.969406
0.969429
0.969443
0.969454
0.969453
0.969463
0.964272
0.78427
0.44122
0.717109
0.797448
0.863369
0.897411
0.906466
0.906471
0.906465
0.906468
0.906455
0.662997
0.94474
0.969413
0.92562
0.950626
0.952674
0.969326
0.903437
0.535974
0.441664
0.537607
0.624993
0.780726
0.882976
0.906433
0.906471
0.906431
0.906462
0.906459
0.999606
0.999606
0.999606
0.999584
0.999622
0.999642
0.999639
0.999652
0.999652
0.958011
0.950862
0.950694
0.972823
0.971045
0.878241
0.85489
0.854905
0.861219
0.917692
0.983203
0.954001
0.892011
0.824489
0.999579
0.998713
0.998621
0.999091
0.999651
0.999651
0.999651
0.999652
0.999652
0.994605
0.957123
0.950713
0.951013
0.981507
0.982848
0.986528
0.986536
0.984116
0.990111
0.990673
0.98925
0.976914
0.901457
0.999391
0.996401
0.990334
0.999483
0.999595
0.99951
0.999651
0.999225
0.999651
0.999647
0.995878
0.981014
0.985072
0.985094
0.984191
0.979713
0.980994
0.983396
0.966193
0.872834
0.77426
0.67497
0.52682
0.97557
0.848503
0.853544
0.948877
0.958959
0.964673
0.967346
0.954383
0.971396
0.993647
0.988956
0.974704
0.960884
0.924429
0.862801
0.79895
0.770558
0.742037
0.405556
0.177476
0.0904141
0.0483239
0.00866738
0.670951
0.399375
0.191987
0.387859
0.71832
0.853312
0.890557
0.885829
0.858041
0.783263
0.695132
0.651178
0.509695
0.259947
0.126934
0.0322147
0.0823332
0.0770637
0.000677391
2.13796e-05
2.71262e-05
0.000174802
0.00101586
0.0524287
0.00132104
1.97889e-09
3.93759e-10
0.0104457
0.140066
0.262587
0.260228
0.203046
0.106837
0.0479768
0.0118863
-3.74139e-20
-1.49112e-07
-9.35414e-08
-3.53045e-08
0.000189746
0.000121273
3.85154e-05
0.00014498
0.000311173
0.000626857
0.00104319
2.00134e-05
1.94101e-05
1.87947e-05
4.03197e-06
1.3971e-10
5.2459e-23
1.18898e-23
-8.15231e-17
-6.52082e-07
7.54385e-06
-1.55108e-23
-1.28255e-09
0.000256507
0.0021061
0.00205382
0.00114575
0.000955106
0.000851778
0.00129582
0.00234381
0.001388
0.000782882
0.0107986
0.000216879
0.000114963
7.8228e-05
7.3116e-05
3.21643e-05
9.03715e-06
4.69221e-06
8.60312e-06
9.76035e-05
0.000210453
1.90957e-08
0.000969734
0.0111132
0.0116781
0.00700509
0.00299962
0.00218165
0.00172526
0.00185049
0.00266411
0.00298002
0.00346269
0.0102525
0.00022229
0.000266217
0.00029744
0.000269371
0.000222461
0.000161592
6.92307e-05
4.71708e-05
6.24685e-05
0.00393649
0.00568407
0.00685096
0.0119489
0.0119857
0.00662893
9.8302e-05
1.44001e-06
2.78594e-07
2.87965e-07
8.96853e-05
0.000410875
0.000960799
0.00132711
0.000929785
0.00200609
0.00339141
0.00499992
0.00630226
0.00640735
0.00712899
0.00858491
0.00828755
0.00953509
0.0174465
0.0174243
0.010064
0.00627859
0.00125442
2.65291e-07
2.63668e-07
6.8328e-07
2.46297e-06
7.0423e-07
4.37234e-07
6.38591e-07
4.24179e-07
0.00298349
0.00323749
0.00441134
0.00805812
0.0134773
0.0150142
0.0163214
0.0168106
0.0165662
0.0161427
0.0174249
0.0129177
0.00163684
2.33122e-06
2.70062e-07
2.6198e-07
3.22834e-07
1.34248e-06
4.56039e-06
4.35126e-06
1.39598e-06
6.68919e-07
1.29475e-06
0.000498333
0.000216131
4.602e-05
0.000132204
0.000557071
0.000880505
0.000721691
0.000946124
0.000690045
5.98166e-06
0.0017265
0.00570012
0.000568799
3.08461e-07
3.04325e-07
1.12446e-06
1.52385e-06
1.66346e-06
2.0757e-06
2.77331e-06
2.90308e-06
3.20991e-06
2.34358e-06
5.1031e-09
1.27857e-09
2.29549e-09
1.27824e-09
2.14503e-09
1.27806e-09
2.29549e-09
1.27806e-09
2.52006e-09
1.27806e-09
6.77321e-05
0.000496603
0.000137837
3.06726e-07
3.29436e-07
9.07837e-07
7.52444e-07
5.96004e-07
5.73571e-07
6.00898e-07
2.21382e-05
2.13185e-05
2.99682e-06
8.16244e-08
3.25792e-07
4.7126e-07
2.63182e-07
1.96826e-08
1.69417e-07
4.07924e-07
4.68601e-07
3.23229e-07
7.20622e-09
1.617e-07
5.5776e-07
6.08272e-07
3.55032e-07
1.566e-07
1.27497e-07
1.23452e-07
1.30582e-07
1.38302e-07
2.13188e-05
2.61148e-05
2.60279e-05
1.15257e-05
9.98144e-08
3.80952e-07
5.3659e-07
4.11326e-07
7.26474e-08
3.23969e-07
4.12998e-07
1.53566e-07
3.10135e-08
7.78938e-08
2.43584e-07
3.73623e-07
4.23579e-07
1.82816e-07
1.17839e-07
1.19143e-07
1.17792e-07
7.44653e-06
2.57704e-05
2.58346e-05
2.5821e-05
1.572e-05
2.80823e-06
4.20664e-08
1.4079e-07
3.13053e-07
9.518e-08
1.47082e-07
1.79353e-07
1.35522e-07
4.06391e-08
5.08144e-08
7.28737e-08
3.14975e-08
4.21876e-08
3.32761e-06
8.93633e-06
1.09822e-05
2.26628e-05
3.03409e-05
3.05462e-05
1.2636e-05
7.41889e-06
3.49543e-06
1.21183e-07
1.47976e-09
1.753e-08
5.13294e-09
2.23022e-09
9.66916e-09
7.38707e-08
2.55561e-08
2.82166e-08
9.26694e-07
6.45904e-06
1.05254e-05
9.91311e-06
9.78807e-06
1.44076e-05
2.07003e-05
2.07083e-05
1.86572e-05
9.97379e-06
9.08709e-06
7.01845e-08
7.93188e-10
7.93126e-10
7.88286e-10
1.45634e-09
5.97847e-09
2.96607e-09
2.2214e-09
3.19451e-09
1.92145e-08
2.35991e-08
6.50406e-08
5.54359e-06
1.04813e-05
1.05585e-05
8.21094e-06
3.03107e-06
4.60731e-06
8.83608e-06
8.42984e-06
4.72934e-07
1.26864e-09
1.25023e-09
1.23741e-09
1.23188e-09
7.93184e-10
8.01349e-10
4.67025e-10
9.7665e-09
3.88974e-09
2.55426e-09
3.45458e-09
3.48795e-09
3.39787e-09
6.0295e-07
1.76e-06
1.55278e-06
5.70243e-07
9.61493e-08
1.3574e-09
1.34719e-09
1.33869e-09
1.32799e-09
1.3173e-09
2.0758e-09
3.04393e-09
1.8716e-09
1.36604e-09
9.31262e-10
6.27054e-10
5.20695e-10
1.04107e-08
3.7088e-09
2.63798e-09
5.95387e-09
2.08061e-08
5.96232e-08
5.44753e-08
1.63784e-09
1.61652e-09
1.63785e-09
2.02113e-09
2.52542e-09
1.80143e-09
1.57654e-09
1.45288e-09
1.30433e-09
1.47379e-09
1.56513e-09
1.21003e-09
8.99149e-10
6.11703e-10
4.38832e-10
4.2476e-10
1.1813e-08
3.05002e-09
1.85712e-09
2.61877e-09
4.6416e-09
6.30873e-09
1.72447e-09
1.87875e-09
1.59561e-09
1.6773e-09
1.60431e-09
1.36149e-09
1.12623e-09
9.11348e-10
7.70614e-10
7.29791e-10
7.22611e-10
6.93578e-10
6.27601e-10
5.02704e-10
3.29672e-10
2.20107e-10
3.11763e-10
1.30965e-08
2.34614e-09
1.12608e-09
1.25637e-09
1.71076e-09
2.11439e-09
1.70203e-09
8.38328e-10
6.60639e-10
5.55629e-10
5.04475e-10
4.52367e-10
3.98141e-10
3.52304e-10
3.26849e-10
3.19522e-10
3.22877e-10
3.14073e-10
2.83292e-10
2.3304e-10
1.55062e-10
1.3674e-10
1.6847e-10
2.33168e-08
1.76572e-09
7.33002e-10
5.95769e-10
6.11196e-10
6.04723e-10
4.74087e-10
3.06649e-10
2.29657e-10
1.86211e-10
1.57646e-10
1.35615e-10
1.25124e-10
1.22586e-10
1.20717e-10
1.24376e-10
1.27321e-10
1.24084e-10
1.16554e-10
9.9484e-11
7.70125e-11
6.65582e-11
9.43052e-11
3.31155e-08
1.26257e-09
5.6837e-10
3.18079e-10
2.45104e-10
1.94842e-10
1.53116e-10
1.11658e-10
8.41389e-11
6.74386e-11
5.46971e-11
4.61885e-11
4.1262e-11
3.92002e-11
4.01349e-11
4.14016e-11
4.22723e-11
4.2471e-11
4.03752e-11
3.70986e-11
3.34146e-11
3.79593e-11
4.94284e-11
3.71415e-08
7.9913e-10
5.09156e-10
2.44865e-10
1.67294e-10
1.31336e-10
1.01729e-10
7.7231e-11
5.86719e-11
4.51152e-11
3.35154e-11
2.43222e-11
1.83517e-11
1.47157e-11
1.29944e-11
1.24657e-11
1.26218e-11
1.28363e-11
1.30545e-11
1.3351e-11
1.42511e-11
1.58744e-11
2.59547e-11
3.92181e-08
6.77603e-10
3.87014e-10
2.40147e-10
1.84211e-10
1.66153e-10
1.48442e-10
1.20012e-10
9.12586e-11
6.76055e-11
4.83009e-11
3.17815e-11
1.92706e-11
1.11478e-11
6.61796e-12
4.56553e-12
3.66936e-12
3.63372e-12
3.89436e-12
4.41626e-12
5.06141e-12
8.02006e-12
1.1656e-11
4.46473e-08
6.71848e-10
2.74983e-10
2.61463e-10
2.5127e-10
2.40524e-10
2.11287e-10
1.73366e-10
1.3692e-10
1.104e-10
8.15904e-11
5.39344e-11
3.16302e-11
1.64406e-11
7.70531e-12
3.37963e-12
1.65691e-12
1.09326e-12
1.12323e-12
1.42678e-12
2.0197e-12
2.90742e-12
5.43016e-12
5.01063e-08
1.29943e-09
2.62081e-10
3.31457e-10
3.41466e-10
3.30767e-10
3.08249e-10
2.57661e-10
2.05672e-10
1.68115e-10
1.27934e-10
8.68569e-11
5.18735e-11
2.68402e-11
1.21206e-11
4.77391e-12
1.64712e-12
5.96987e-13
3.59901e-13
4.22961e-13
6.17236e-13
1.27868e-12
2.11537e-12
6.45421e-08
2.56328e-09
2.63271e-10
3.81299e-10
4.01947e-10
4.14085e-10
5.00344e-10
5.22498e-10
3.85458e-10
2.39042e-10
1.78409e-10
1.24223e-10
7.66918e-11
4.106e-11
1.89449e-11
7.52632e-12
2.46118e-12
7.54474e-13
1.83902e-13
1.31807e-13
2.18061e-13
3.74296e-13
8.44796e-13
7.14253e-08
4.80064e-09
2.37549e-10
3.3042e-10
3.4816e-10
4.94713e-10
1.18802e-09
1.40192e-09
9.44779e-10
3.64478e-10
2.30009e-10
1.60265e-10
1.0202e-10
5.62787e-11
2.70959e-11
1.11437e-11
3.72355e-12
1.06311e-12
2.56218e-13
5.99582e-14
5.75844e-14
1.50475e-13
2.76561e-13
8.97394e-08
5.81483e-09
2.0435e-10
2.47022e-10
7.89624e-10
2.81057e-09
4.37967e-09
3.14103e-09
2.48469e-09
7.12947e-10
2.92254e-10
1.88432e-10
1.22712e-10
6.98238e-11
3.50409e-11
1.51965e-11
5.37591e-12
1.57507e-12
3.79636e-13
5.23302e-14
2.20352e-14
3.78758e-14
9.98426e-14
9.84949e-08
7.40676e-09
2.0455e-10
1.70353e-09
1.64338e-08
5.11132e-08
1.12189e-07
4.03245e-08
3.92265e-09
1.4677e-09
3.94474e-10
2.05512e-10
1.33189e-10
7.74052e-11
4.041e-11
1.84377e-11
7.0872e-12
2.16871e-12
5.08585e-13
9.11986e-14
1.25234e-14
1.2271e-14
2.8323e-14
1.19653e-07
9.86561e-09
1.68496e-09
2.97226e-08
1.74591e-07
5.60523e-07
9.92723e-07
3.43242e-07
2.54037e-09
2.53679e-09
5.67664e-10
2.16779e-10
1.31129e-10
7.67252e-11
4.0475e-11
1.98046e-11
8.0651e-12
2.7394e-12
7.01822e-13
1.40594e-13
1.28696e-14
3.21084e-15
8.45642e-15
1.23185e-07
1.2268e-08
3.81134e-10
3.90788e-08
2.88939e-07
1.02496e-06
1.38858e-06
1.23307e-06
2.54298e-09
4.47051e-09
8.02066e-10
2.15065e-10
1.18499e-10
6.65518e-11
3.56514e-11
1.79247e-11
8.13121e-12
2.99643e-12
8.45944e-13
1.80654e-13
2.05602e-14
1.6678e-15
2.10138e-15
1.61632e-07
3.0112e-08
3.45839e-10
2.69515e-08
1.45497e-07
7.04309e-07
1.3666e-06
8.70029e-07
6.70671e-09
4.68764e-09
8.17814e-10
1.86867e-10
9.40144e-11
5.33645e-11
2.80511e-11
1.41751e-11
6.79645e-12
2.79743e-12
8.7202e-13
1.95001e-13
3.12444e-14
1.35489e-15
5.08828e-16
1.7006e-07
6.65229e-08
2.94754e-10
5.27108e-09
1.89347e-08
1.69247e-07
1.11915e-06
2.33989e-08
2.34279e-08
3.27056e-09
6.97528e-10
1.47413e-10
6.9036e-11
3.77023e-11
1.88127e-11
9.338e-12
4.6621e-12
2.12899e-12
7.57583e-13
1.91453e-13
3.27488e-14
1.84325e-15
1.71423e-16
1.72024e-07
1.4441e-07
2.66804e-08
3.39861e-09
2.28817e-09
2.28664e-08
8.10714e-09
2.41197e-08
9.54735e-09
2.03718e-09
4.5171e-10
9.05943e-11
4.36865e-11
2.30524e-11
1.08009e-11
5.06382e-12
2.53974e-12
1.2482e-12
5.17588e-13
1.4961e-13
2.91518e-14
2.12906e-15
8.35674e-17
1.70742e-07
1.66953e-07
8.82833e-08
1.31025e-08
1.57649e-09
2.0786e-08
3.20045e-10
3.23161e-10
2.97777e-10
7.71042e-10
1.84361e-10
4.48915e-11
2.41984e-11
1.22361e-11
5.24173e-12
2.22689e-12
1.05204e-12
5.34235e-13
2.5122e-13
8.97278e-14
1.99106e-14
2.17075e-15
7.38175e-17
1.18842e-07
1.67985e-07
7.22827e-08
1.78588e-08
1.5759e-09
2.15239e-09
1.71271e-09
6.80333e-10
2.20251e-10
8.7292e-11
3.23274e-11
1.80521e-11
1.14219e-11
5.56804e-12
2.16398e-12
7.83764e-13
3.18148e-13
1.50738e-13
8.13371e-14
3.78906e-14
1.10012e-14
1.47449e-15
7.11541e-17
3.83159e-08
1.08116e-07
4.99574e-08
9.9754e-09
3.44101e-09
3.05966e-09
2.26343e-09
9.41035e-10
2.73032e-10
6.27954e-11
1.36238e-11
6.8191e-12
4.3618e-12
2.09126e-12
7.66441e-13
2.32327e-13
7.26858e-14
2.83825e-14
1.5586e-14
1.08199e-14
3.9316e-15
7.65376e-16
5.9676e-17
2.12515e-08
3.96298e-08
2.08871e-08
8.0552e-09
5.7992e-09
3.88645e-09
1.73895e-09
5.18826e-10
1.02948e-10
1.5229e-11
2.78315e-12
1.69517e-12
1.15621e-12
5.62674e-13
1.92257e-13
4.92395e-14
1.09974e-14
2.97736e-15
1.80011e-15
1.91958e-15
1.0808e-15
3.39175e-16
4.39074e-17
4.35713e-08
4.12438e-08
2.17752e-08
9.07042e-09
4.91457e-09
1.99232e-09
5.78991e-10
9.02718e-11
7.88487e-12
4.24873e-13
2.18244e-13
2.26684e-13
1.69615e-13
8.44828e-14
2.79789e-14
6.13446e-15
9.52591e-16
1.69611e-16
1.26011e-16
2.30608e-16
2.59413e-16
1.23622e-16
2.38857e-17
0.920043
0.950545
0.95063
0.746724
0.808701
0.802425
0.772433
0.675065
0.47792
0.468915
0.441755
0.464011
0.00964693
0.0258877
0.0390584
0.00356962
0.000979906
0.000333786
0.000104009
0.0001003
0.00390801
0.0192174
0.0202063
0.0152142
0.0202068
0.0202063
0.0202064
0.0202063
0.0202063
0.0202064
0.0202063
0.0202063
0.0083478
0.0114572
0.00566708
0.00510237
6.27587e-07
2.37206e-05
3.22692e-07
3.37404e-07
4.37067e-06
4.78823e-06
3.82797e-06
3.63571e-07
2.04666e-06
2.67509e-06
2.33215e-06
7.61696e-06
3.00855e-08
5.46345e-07
5.0996e-07
1.22019e-06
2.88776e-08
3.79001e-08
3.31844e-08
3.35328e-08
2.57044e-08
4.89243e-08
1.01929e-07
6.56298e-08
2.38819e-08
4.18625e-08
1.02409e-07
7.919e-08
5.09347e-09
5.64853e-09
3.06805e-08
2.93716e-08
2.02607e-09
1.43713e-09
1.17633e-08
2.91282e-08
7.16048e-10
8.57254e-10
3.29188e-09
5.71583e-09
6.70974e-10
1.4085e-09
2.99152e-09
5.04276e-09
5.7524e-10
1.05999e-09
1.9648e-09
3.07799e-09
2.75382e-10
4.53943e-10
6.81826e-10
9.66222e-10
1.39398e-10
1.88328e-10
2.82925e-10
3.31485e-10
7.05052e-11
9.56716e-11
1.20388e-10
1.50746e-10
3.57758e-11
4.54722e-11
6.42263e-11
7.70839e-11
1.81144e-11
2.36514e-11
2.98144e-11
3.80432e-11
7.86712e-12
1.00496e-11
1.45939e-11
1.74854e-11
3.42552e-12
4.41575e-12
5.61739e-12
7.51947e-12
1.26461e-12
1.68676e-12
2.45147e-12
2.94145e-12
4.82828e-13
6.5809e-13
8.2983e-13
1.11431e-12
1.64922e-13
2.13092e-13
3.0859e-13
3.64014e-13
5.66475e-14
7.48389e-14
9.72964e-14
1.34208e-13
1.54849e-14
2.18776e-14
3.10952e-14
3.74784e-14
4.85135e-15
6.43262e-15
8.91153e-15
1.2391e-14
1.06686e-15
1.59406e-15
2.49055e-15
3.22492e-15
2.78101e-16
4.20262e-16
6.08023e-16
8.89352e-16
5.91189e-17
9.75022e-17
1.59686e-16
2.10323e-16
1.32977e-17
2.08051e-17
3.05e-17
4.67414e-17
2.78109e-18
3.75831e-18
6.22021e-18
8.94974e-18
8.25724e-19
6.94578e-19
9.61325e-19
1.59943e-18
5.5997e-19
1.60727e-19
1.79322e-19
2.66158e-19
5.6205e-19
5.62737e-20
3.26703e-20
3.90706e-20
0.660811
0.860612
0.714249
0.484406
0.608725
0.704487
0.774004
0.676068
0.310793
0.485686
0.638543
0.769747
0.824947
0.858045
0.710554
0.483557
0.340803
0.711782
0.787812
0.662067
0.542739
0.192842
0.00395931
0.0171025
0.127422
0.363955
0.29589
0.101832
0.237961
0.50326
0.495026
0.260836
0.124535
0.0395603
0.0052937
0.00379179
0.0657775
0.103438
0.412354
0.0945658
2.27414e-20
-1.76522e-21
-9.13897e-20
0.0725645
0.329992
0.322167
0.101557
0.0436788
0.00017289
0.00858818
0.00545711
0.000241899
0.00156649
0.00249952
0.00379768
0.00296433
0.00292161
1.3607e-14
-4.255e-09
-1.73262e-14
-1.35948e-13
1.82526e-19
0.153436
0.435633
0.436057
0.38635
0.0246786
0.000173763
0.000173651
0.000174552
0.000240895
0.00127216
0.00205265
0.00401563
0.00432726
0.00402208
2.50957e-07
1.22751e-05
4.12326e-05
0.000114486
0.000207177
0.0857725
0.169175
0.100864
0.101309
0.0330111
0.000177161
0.000174565
0.000174669
0.000202657
0.000209218
0.000199671
0.000414037
0.00357192
0.00511669
0.00191186
6.24763e-05
0.000516352
0.000606928
0.000440278
0.00493433
0.000887531
0.000888116
0.00262967
0.011341
0.0119382
0.00253355
0.000498467
0.000582442
0.000209292
0.000232087
0.000584672
0.000354767
0.003586
0.0180404
0.00052018
0.00141816
0.0020409
0.00208341
0.00197912
0.000930273
0.000891002
0.000901052
0.00162912
0.00486164
0.0048727
0.00299229
0.0014847
0.000335287
0.000968438
0.00190421
0.000126584
2.47228e-05
0.0202061
0.0112809
0.00440092
0.0047579
0.00475791
0.00428757
0.00316923
0.00198074
0.000825974
0.000466105
0.000509502
0.00114448
0.000845053
0.000782602
0.00050798
0.00113897
0.00146364
0.000692802
2.06308e-05
0.00743142
0.00641669
0.00260002
0.00475786
0.00475791
0.0035081
0.00201832
0.00106867
0.000307802
2.47092e-05
8.52579e-08
1.00912e-07
1.2058e-06
3.26425e-06
4.9827e-05
3.9555e-05
3.54666e-06
4.82844e-05
6.69791e-05
3.31166e-07
2.34026e-05
0.000314143
0.00190334
0.00243633
0.00039177
5.78685e-05
2.493e-05
1.38486e-05
1.34239e-05
7.57091e-06
8.66606e-08
3.78557e-07
4.40617e-07
6.97489e-06
9.71412e-06
3.47021e-06
4.64325e-08
2.29813e-05
3.3131e-07
3.31166e-07
3.3119e-07
3.31593e-07
7.6756e-07
3.45243e-07
3.78573e-05
2.07491e-05
1.39173e-05
1.39369e-05
1.13014e-05
4.15459e-06
4.68976e-06
5.56782e-06
1.64834e-05
1.72249e-05
1.45003e-05
4.64325e-08
4.64325e-08
1.07479e-05
9.60662e-06
3.31555e-07
3.31687e-07
3.89299e-06
4.87088e-05
6.96247e-05
6.94528e-05
2.8972e-05
1.32142e-05
1.17927e-05
9.27412e-06
2.15981e-05
2.36543e-05
3.14726e-06
1.01777e-05
2.71181e-06
2.00325e-07
4.64325e-08
7.34906e-06
1.73484e-05
1.49169e-05
9.59e-06
7.8709e-06
4.17843e-05
5.16146e-05
3.56441e-05
1.42167e-05
5.99267e-06
8.40189e-07
1.07036e-07
1.79946e-05
2.70602e-05
3.18995e-06
2.89579e-06
9.76028e-06
1.33673e-05
9.51425e-07
1.53202e-07
9.06717e-06
1.87385e-05
1.87421e-05
1.86516e-05
1.37593e-05
1.65406e-06
1.46236e-06
1.40287e-06
3.58855e-07
5.58494e-08
5.53923e-08
9.33835e-06
2.70962e-05
2.14365e-05
3.41978e-06
1.96744e-05
2.02879e-05
1.64474e-05
3.49493e-08
1.14563e-06
4.33457e-06
5.68275e-06
2.72861e-06
2.30463e-05
5.64267e-05
4.90682e-05
1.55027e-05
9.91165e-07
3.00301e-07
5.5133e-08
5.49523e-08
2.15543e-05
2.70473e-05
8.90008e-06
2.20944e-05
2.22355e-05
2.2103e-05
3.52418e-08
3.5704e-08
1.16429e-06
6.27224e-07
3.05792e-08
3.66173e-06
5.56619e-05
6.02364e-05
6.01762e-05
3.57129e-05
1.04239e-06
5.50725e-08
5.49053e-08
3.44033e-07
2.50901e-05
1.72725e-05
1.74034e-05
9.17236e-06
1.12442e-05
3.64757e-08
5.61045e-08
6.17915e-08
1.47509e-07
3.08168e-08
2.39866e-09
8.9514e-06
4.89486e-05
4.79599e-05
3.93085e-05
1.70798e-06
5.51476e-08
1.38421e-06
-1.7778e-08
1.78104e-05
1.94398e-05
7.0971e-06
6.95358e-06
6.95449e-06
3.26315e-08
2.44127e-08
3.53764e-09
2.39393e-09
2.36704e-09
2.39393e-09
2.39678e-09
1.24621e-05
4.19051e-05
4.21289e-05
2.78485e-05
1.96384e-05
3.42428e-06
-3.2775e-13
9.79314e-06
1.8963e-05
6.95358e-06
6.95224e-06
8.19299e-06
5.24236e-09
3.58355e-09
3.52065e-09
4.19885e-08
2.66526e-07
4.57618e-07
1.98413e-07
7.52128e-06
3.64558e-05
4.20767e-05
4.08039e-05
2.10039e-05
6.82814e-07
-1.23134e-15
1.28324e-05
1.77385e-05
7.09625e-06
7.73803e-06
1.28691e-05
5.62913e-09
4.22974e-09
3.52411e-09
3.53878e-09
1.11457e-06
3.09899e-06
4.862e-06
6.04825e-06
1.03676e-05
1.97479e-05
1.60739e-05
4.84061e-06
6.7633e-08
5.07365e-07
8.0205e-06
5.02126e-06
1.03289e-05
1.28381e-05
1.28107e-05
3.62018e-09
5.46252e-09
1.0868e-08
4.00174e-08
3.45403e-07
6.47889e-07
5.51973e-07
8.04959e-08
1.10333e-09
1.84423e-09
1.10716e-09
1.84154e-09
6.62337e-08
1.14298e-06
3.61024e-07
7.13379e-08
4.09014e-06
7.83471e-06
2.09004e-06
1.11541e-09
1.39482e-09
2.23216e-09
4.08641e-09
1.39672e-09
1.40656e-09
1.39672e-09
9.58881e-09
9.34328e-09
5.04491e-09
3.08623e-09
1.13447e-08
1.15783e-07
6.03219e-07
6.88437e-08
7.12122e-08
2.50681e-09
2.59124e-09
4.24467e-08
3.76833e-10
4.68619e-10
6.65368e-10
9.99919e-10
1.40379e-09
2.39577e-09
3.6919e-09
5.25022e-09
5.9389e-09
7.18215e-09
7.68898e-09
3.54575e-08
1.33998e-07
6.15361e-08
2.63424e-08
3.23458e-08
2.79402e-09
1.00448e-07
2.13108e-07
1.77578e-10
2.56203e-10
3.73349e-10
5.47965e-10
8.51035e-10
1.4032e-09
2.23255e-09
3.24002e-09
4.33653e-09
5.93371e-09
9.58078e-09
2.62248e-08
7.45861e-08
3.02594e-08
2.10781e-08
3.49773e-09
2.60417e-09
2.50405e-07
2.692e-07
9.41814e-11
1.4534e-10
2.14586e-10
3.14016e-10
4.70731e-10
7.17513e-10
1.15318e-09
1.85973e-09
3.01802e-09
4.92593e-09
9.37798e-09
1.68092e-08
3.23911e-08
2.58952e-08
1.16725e-08
3.43221e-09
2.38531e-08
3.48155e-07
2.36402e-07
4.78825e-11
7.70973e-11
1.1856e-10
1.81509e-10
2.82062e-10
4.48347e-10
7.40034e-10
1.22524e-09
2.04109e-09
3.57808e-09
7.12957e-09
1.23192e-08
1.98087e-08
1.94223e-08
8.5461e-09
8.49481e-09
7.05512e-08
3.49785e-07
9.32939e-08
2.30289e-11
3.69581e-11
5.859e-11
9.22128e-11
1.47445e-10
2.45545e-10
4.2017e-10
7.31743e-10
1.27683e-09
2.23066e-09
4.47263e-09
9.00731e-09
1.43645e-08
1.76055e-08
8.39467e-09
5.19191e-08
1.73454e-07
1.74273e-07
8.356e-08
9.56843e-12
1.59283e-11
2.51093e-11
4.03808e-11
6.68327e-11
1.13773e-10
2.01726e-10
3.64711e-10
6.6504e-10
1.19955e-09
2.24245e-09
4.85622e-09
8.508e-09
1.25402e-08
1.88468e-08
7.22729e-08
9.95605e-08
3.08692e-08
2.63325e-07
3.91171e-12
6.35203e-12
1.00138e-11
1.60771e-11
2.64258e-11
4.57838e-11
8.43128e-11
1.57911e-10
3.01107e-10
5.73693e-10
1.05235e-09
2.07521e-09
4.27033e-09
4.32155e-09
1.7539e-08
3.54782e-08
3.16924e-08
4.11209e-09
4.50346e-07
1.41472e-12
2.38879e-12
3.69807e-12
5.85494e-12
9.70845e-12
1.66788e-11
3.08392e-11
6.37984e-11
1.32018e-10
2.69494e-10
5.09735e-10
8.52567e-10
1.18843e-09
1.02066e-09
4.70815e-09
3.04593e-09
2.99954e-09
4.11329e-09
4.49862e-07
4.98042e-13
8.21154e-13
1.24329e-12
1.90671e-12
3.03203e-12
5.23751e-12
9.16706e-12
1.60112e-11
2.71406e-11
5.28938e-11
1.28746e-10
3.27015e-10
4.46407e-10
2.48082e-10
2.23627e-10
1.90206e-09
3.22146e-09
3.23364e-09
3.93511e-07
1.70052e-13
2.64017e-13
3.75714e-13
5.52428e-13
8.48356e-13
1.30007e-12
1.98353e-12
2.83339e-12
3.65614e-12
6.30696e-12
1.96598e-11
6.3985e-11
1.47266e-10
7.95164e-11
2.09027e-10
1.10284e-09
4.43385e-09
1.23895e-08
7.33005e-08
5.20179e-14
7.55621e-14
1.08031e-13
1.52073e-13
2.14104e-13
3.10935e-13
4.38508e-13
5.80946e-13
6.88347e-13
9.0989e-13
2.61314e-12
9.99624e-12
3.23194e-11
4.60072e-11
2.00804e-10
1.05753e-09
4.86342e-09
1.62963e-08
8.34503e-10
1.53598e-14
2.23829e-14
3.04116e-14
4.03542e-14
5.37541e-14
7.21645e-14
9.67057e-14
1.26348e-13
1.55369e-13
2.21409e-13
5.59289e-13
2.28754e-12
9.06085e-12
2.63154e-11
8.62573e-11
7.2532e-10
3.31255e-09
1.27312e-08
8.34453e-10
4.38605e-15
6.10055e-15
8.08572e-15
1.03536e-14
1.33044e-14
1.74558e-14
2.321e-14
3.02432e-14
3.88526e-14
5.78913e-14
1.49793e-13
5.90596e-13
2.65182e-12
1.09479e-11
2.7365e-11
2.06444e-10
1.19122e-09
2.47861e-09
8.34536e-10
1.09887e-15
1.58032e-15
2.06999e-15
2.61902e-15
3.35863e-15
4.49404e-15
6.27637e-15
8.9384e-15
1.29647e-14
2.0672e-14
4.52709e-14
1.61112e-13
6.61936e-13
2.74866e-12
1.02506e-11
3.3664e-11
1.2446e-10
2.72626e-10
5.37297e-10
2.64829e-16
3.82154e-16
5.03867e-16
6.48517e-16
8.68836e-16
1.25879e-15
2.00866e-15
3.49272e-15
6.36304e-15
1.19941e-14
2.47156e-14
6.44347e-14
2.24981e-13
7.13242e-13
3.44473e-12
9.92556e-12
3.54696e-11
7.57322e-11
2.52553e-10
5.82105e-17
8.56706e-17
1.1512e-16
1.54331e-16
2.23198e-16
3.74763e-16
7.40901e-16
1.61273e-15
3.59771e-15
7.91171e-15
1.70033e-14
3.77088e-14
1.03398e-13
3.24259e-13
8.04114e-13
2.50329e-12
9.47145e-12
2.93154e-11
5.05192e-11
1.17119e-17
1.71063e-17
2.37476e-17
3.4152e-17
5.51671e-17
1.09798e-16
2.72065e-16
7.27638e-16
1.92291e-15
4.81933e-15
1.13499e-14
2.54669e-14
5.98748e-14
1.52742e-13
3.87387e-13
9.86298e-13
2.2416e-12
6.1382e-12
1.16967e-11
2.12224e-18
3.08158e-18
4.42699e-18
6.8133e-18
1.24635e-17
2.9968e-17
9.04412e-17
2.94313e-16
9.19307e-16
2.61799e-15
6.78446e-15
1.61318e-14
3.60575e-14
8.63948e-14
2.21094e-13
4.68489e-13
6.13937e-13
8.66153e-13
1.58385e-12
3.27844e-19
4.79083e-19
7.06474e-19
1.15919e-18
2.34632e-18
6.41553e-18
2.25801e-17
8.57592e-17
3.0939e-16
1.01459e-15
2.99344e-15
7.98868e-15
1.97341e-14
4.71333e-14
1.16366e-13
2.6997e-13
4.19619e-13
4.55245e-13
3.64603e-13
4.49477e-20
6.30498e-20
9.35928e-20
1.57452e-19
3.14773e-19
8.26238e-19
3.0246e-18
1.25496e-17
5.06892e-17
1.92422e-16
6.69537e-16
2.17982e-15
6.50982e-15
1.81704e-14
4.87593e-14
1.24698e-13
2.27351e-13
2.6141e-13
1.23149e-13
)
;

boundaryField
{
    leftWall
    {
        type            zeroGradient;
    }
    rightWall
    {
        type            zeroGradient;
    }
    lowerWall
    {
        type            zeroGradient;
    }
    atmosphere
    {
        type            inletOutlet;
        inletValue      uniform 0;
        value           nonuniform List<scalar> 
46
(
4.35713e-08
4.12438e-08
2.17752e-08
9.07042e-09
0
0
0
0
0
0
0
0
0
0
0
0
0
0
0
0
2.59413e-16
1.23622e-16
2.38857e-17
5.6205e-19
5.62738e-20
3.26703e-20
3.90706e-20
4.49477e-20
6.30498e-20
9.35928e-20
1.57452e-19
3.14773e-19
8.26238e-19
3.0246e-18
1.25496e-17
5.06892e-17
1.92422e-16
6.69537e-16
2.17982e-15
6.50982e-15
1.81704e-14
4.87593e-14
1.24698e-13
2.27351e-13
2.6141e-13
1.23149e-13
)
;
    }
    defaultFaces
    {
        type            empty;
    }
}


// ************************************************************************* //
