/*--------------------------------*- C++ -*----------------------------------*\
| =========                 |                                                 |
| \\      /  F ield         | OpenFOAM: The Open Source CFD Toolbox           |
|  \\    /   O peration     | Version:  2312                                  |
|   \\  /    A nd           | Website:  www.openfoam.com                      |
|    \\/     M anipulation  |                                                 |
\*---------------------------------------------------------------------------*/
FoamFile
{
    version     2.0;
    format      ascii;
    arch        "LSB;label=32;scalar=64";
    class       volScalarField;
    location    "3.65";
    object      p;
}
// * * * * * * * * * * * * * * * * * * * * * * * * * * * * * * * * * * * * * //

dimensions      [1 -1 -2 0 0 0 0];

internalField   nonuniform List<scalar> 
2268
(
4798.76
4800.44
4804.29
4810.45
4819.75
4833.68
4854.36
4883.95
4924.32
4976.72
5041.53
5118.71
5208.56
5312.16
5430.59
5563.31
5708.25
5860.86
6014.69
6159.15
6282.02
6371.95
6420.94
4001.31
4003.07
4007.25
4013.34
4022.38
4035.86
4056.04
4085.2
4125.23
4177.45
4242.19
4319.29
4408.94
4512.4
4631.08
4764.76
4910.3
5064.32
5220.44
5367.5
5492.79
5584.64
5634.84
3203.87
3206.03
3210.19
3215.8
3224.09
3236.55
3255.69
3283.91
3323.24
3375.1
3439.73
3516.67
3605.91
3709.03
3828.11
3962.99
4110.42
4267.24
4427.95
4580.17
4710.16
4805.76
4858.71
2405.72
2408.36
2412.71
2418.09
2425.36
2436
2453.32
2479.99
2518.16
2569.46
2633.98
2710.77
2799.4
2901.91
3021.61
3158.66
3308.56
3469.35
3637.24
3797.45
3934.63
4036
4092.97
1628.8
1631.4
1634.74
1638.11
1642.44
1649.1
1661.78
1683.23
1716.03
1762.87
1824.96
1901.34
1989.11
2090.57
2211.2
2351.66
2504.59
2670.04
2848.18
3019.62
3166.67
3276.14
3338.34
1132.4
1132.65
1133.35
1133.97
1134.3
1134.47
1136.21
1141.1
1150.54
1166.08
1189.5
1223.91
1275.02
1341.06
1429.82
1551.97
1698.94
1869.08
2060.37
2246.92
2406.75
2526.86
2595.29
983.629
982.29
981.425
980.532
978.79
975.68
970.94
964.681
956.743
946.852
936.384
926.796
924.929
932.531
952.745
990.172
1057.55
1162.18
1307.74
1485.68
1658.62
1790.83
1867.74
924.272
923.013
922.356
921.541
919.779
916.541
911.683
905.351
897.237
886.706
874.466
861.197
846.043
831.009
817.311
804.714
796.466
800.877
828.081
900.703
1002.49
1100.53
1167.22
2414.65
2429.76
2443.71
2446.38
2437.62
2428.59
2435.27
2459.15
2501.37
2557.59
2617.94
2684.79
2746.17
2774.16
2745.42
2675.41
2590.13
2511.68
2459.29
1652.68
1669.32
1685.71
1687.62
1677.51
1669.89
1674.51
1699.41
1741.59
1794.82
1852.88
1921.29
1987.54
2017.33
1984.75
1917.87
1832.84
1757.09
1707.86
1075.01
1078.81
1090.26
1087.41
1080.18
1073.15
1078.84
1098.06
1121.2
1154.81
1218.67
1284.44
1340.88
1370.17
1351.57
1298.55
1231.44
1169.48
1136.35
839.281
839.332
843.883
839.762
840.481
842.998
845.009
848.747
848.998
841.46
870.049
907.523
927.798
941.007
940.141
912.724
884.875
863.016
855.868
775.515
781.043
786.301
785.263
787.063
790.299
791.268
791.253
785.826
757.227
752.579
757.12
750.041
748.986
747.685
741.083
738.481
746.803
756.874
718.681
716.367
721.186
721.276
724.003
727.157
728.151
729.579
719.41
698.407
705.721
701.125
693.843
688.638
684.352
682.419
684.342
693.021
705.13
659.145
651.002
658.156
657.469
659.888
662.909
664.618
667.384
652.779
650.73
658.796
645.57
636.849
629.894
626.04
624.362
626.983
636.056
647.346
607.343
592.644
598.58
597.641
600.823
603.915
605.113
606.788
594.091
608.71
609.405
593.196
579.893
571.415
567.974
566.808
568.275
577.238
586.448
831.407
829.811
829.54
828.949
827.352
824.273
819.46
812.934
804.732
794.924
783.563
769.902
752.979
735.365
718.674
701.475
682.571
662.425
642.973
631.94
629.172
635.615
634.447
706.918
704.296
703.453
703.263
702.238
699.72
695.192
688.734
680.573
670.6
658.243
642.407
623.865
603.868
583.541
564.689
546.523
526.202
507.982
488.399
465.194
442.361
426.697
582.708
578.12
577.248
577.792
577.509
575.717
571.81
565.789
557.827
547.074
532.52
514.008
493.146
471.181
450.026
430.481
412.177
393.539
374.691
357.505
343.615
332.374
317.498
462.057
455.943
453.263
453.897
455.897
455.659
453.038
447.544
438.698
425.816
408.233
387.926
364.929
341.164
318.548
299.671
283.954
269.983
258.454
251.685
247.004
243.932
242.625
356.338
354.892
353.902
351.209
348.339
345.755
342.929
337.276
328.044
315.261
299.437
280.372
257.56
233.639
213.038
196.938
184.657
176.688
174.476
173.566
173.259
174.422
176.787
278.642
281.093
280.944
276.178
269.45
263.527
257.831
251.193
243.455
234.521
223.001
206.166
184.681
160.584
138.218
122.481
112.191
106.876
104.795
103.679
104.296
107.014
111.071
219.599
219.535
217.335
213.314
208.555
202.698
196.25
190.354
184.546
178.371
168.534
150.903
123.741
91.0611
64.2388
48.5048
40.2817
37.0697
35.952
35.8768
37.6257
41.4306
46.6867
159.031
157.044
154.746
151.71
148.234
144.317
139.615
134.724
130.249
125.833
118.444
101.239
66.9596
28.1718
11.8435
5.637
3.30475
2.53231
2.24986
2.39758
3.23786
5.06444
7.95453
97.1317
94.9717
92.8797
90.5474
87.9243
85.0094
81.7819
78.2947
74.7177
71.6079
66.8275
51.6785
21.8635
4.85281
0.521454
-0.47459
-0.766873
-0.845182
-0.913649
-0.969547
-0.966652
-0.818819
-0.467731
39.9752
38.5091
36.5491
34.9207
33.2063
31.3296
29.4241
27.3193
24.8818
22.9863
21.9708
16.2338
2.42411
-0.372464
-0.812079
-0.975781
-1.04376
-1.09837
-1.15846
-1.21344
-1.26868
-1.32409
-1.37182
6.92696
6.07341
5.22254
4.92912
4.70866
4.19821
3.4377
2.29672
0.740228
-1.13045
-2.13973
-2.69766
-2.34035
-1.68554
-1.49815
-1.37939
-1.3321
-1.3524
-1.38378
-1.41792
-1.45344
-1.4917
-1.53228
-2.39977
-2.42103
-2.44857
-2.4686
-2.46662
-2.45606
-2.42308
-2.41415
-2.56533
-2.67516
-2.67756
-2.69217
-2.57093
-2.16098
-1.87274
-1.68952
-1.61781
-1.59866
-1.60192
-1.6152
-1.63415
-1.65927
-1.69245
-2.3835
-2.38918
-2.40281
-2.41505
-2.42753
-2.44636
-2.47478
-2.51049
-2.56548
-2.63121
-2.68467
-2.72956
-2.57881
-2.30664
-2.07955
-1.93622
-1.85431
-1.81603
-1.80178
-1.80081
-1.80894
-1.82491
-1.8484
-2.41206
-2.41769
-2.42917
-2.44473
-2.46603
-2.49568
-2.53387
-2.5788
-2.62663
-2.66141
-2.68231
-2.66274
-2.54407
-2.35622
-2.21741
-2.11221
-2.04324
-2.00319
-1.98251
-1.97516
-1.97786
-1.98781
-2.00294
-2.4816
-2.48853
-2.49917
-2.5138
-2.53357
-2.55934
-2.58971
-2.62129
-2.65029
-2.67014
-2.66962
-2.63157
-2.54277
-2.42704
-2.33467
-2.26054
-2.20712
-2.17187
-2.15097
-2.14174
-2.14169
-2.14762
-2.1563
-2.57448
-2.58055
-2.58973
-2.60235
-2.61847
-2.63828
-2.66055
-2.6821
-2.69813
-2.70464
-2.69348
-2.65745
-2.59598
-2.52186
-2.45686
-2.40289
-2.3611
-2.33127
-2.31178
-2.30125
-2.29841
-2.29998
-2.30337
-2.67861
-2.68383
-2.6917
-2.70236
-2.71536
-2.73034
-2.74611
-2.76011
-2.76862
-2.76881
-2.75617
-2.72663
-2.68307
-2.63289
-2.58533
-2.54371
-2.50934
-2.48249
-2.4632
-2.45152
-2.44615
-2.44438
-2.44475
-2.78768
-2.79213
-2.79876
-2.80761
-2.81804
-2.8294
-2.84048
-2.84937
-2.85376
-2.85152
-2.84007
-2.81632
-2.78387
-2.747
-2.71068
-2.67741
-2.64843
-2.62472
-2.60698
-2.59532
-2.58849
-2.5851
-2.58398
-2.89941
-2.90316
-2.90863
-2.91578
-2.92391
-2.93229
-2.93982
-2.94521
-2.94681
-2.94255
-2.93111
-2.9121
-2.88747
-2.85973
-2.83165
-2.80513
-2.78143
-2.76156
-2.7462
-2.73525
-2.72801
-2.72379
-2.7219
-3.01301
-3.01615
-3.02061
-3.02627
-3.03242
-3.03837
-3.04321
-3.04582
-3.04499
-3.03965
-3.0292
-3.01385
-2.99485
-2.97364
-2.95184
-2.93084
-2.91171
-2.89529
-2.88208
-2.87211
-2.86502
-2.86046
-2.85809
-3.12802
-3.13065
-3.13427
-3.1387
-3.1433
-3.14741
-3.15028
-3.15109
-3.14905
-3.14356
-3.13436
-3.12171
-3.10654
-3.0899
-3.07271
-3.05593
-3.0404
-3.02676
-3.01543
-3.00649
-2.99982
-2.99522
-2.99252
-3.24418
-3.24637
-3.2493
-3.25276
-3.25616
-3.25893
-3.26049
-3.26024
-3.25765
-3.2524
-3.24441
-3.23392
-3.22156
-3.20814
-3.19432
-3.18073
-3.16798
-3.15658
-3.14685
-3.13891
-3.13276
-3.12831
-3.12543
-3.36128
-3.36311
-3.36548
-3.36817
-3.37066
-3.37248
-3.37317
-3.37229
-3.36952
-3.36465
-3.35772
-3.34895
-3.33877
-3.32776
-3.31646
-3.30531
-3.29475
-3.28515
-3.27678
-3.26978
-3.26418
-3.25995
-3.25701
-3.47921
-3.48075
-3.48266
-3.48476
-3.48657
-3.48772
-3.48783
-3.48659
-3.48379
-3.47935
-3.47332
-3.46591
-3.45746
-3.44833
-3.43895
-3.42971
-3.42089
-3.41278
-3.40558
-3.39942
-3.39435
-3.39038
-3.38747
-3.59791
-3.59921
-3.60077
-3.60241
-3.60372
-3.60439
-3.60412
-3.60268
-3.59994
-3.59589
-3.59062
-3.58431
-3.57721
-3.56959
-3.56176
-3.55401
-3.54659
-3.53969
-3.53348
-3.52807
-3.52351
-3.51983
-3.517
-3.71734
-3.71844
-3.71973
-3.72103
-3.72197
-3.7223
-3.72177
-3.72022
-3.71759
-3.7139
-3.70926
-3.70383
-3.6978
-3.69139
-3.6848
-3.67826
-3.67196
-3.66607
-3.66071
-3.65595
-3.65186
-3.64847
-3.64577
-3.83746
-3.83841
-3.83949
-3.84052
-3.84119
-3.84127
-3.84056
-3.83896
-3.83644
-3.83307
-3.82895
-3.82423
-3.81906
-3.81361
-3.80804
-3.80249
-3.79712
-3.79205
-3.7874
-3.78322
-3.77957
-3.77646
-3.77392
-3.95827
-3.95907
-3.95997
-3.96079
-3.96125
-3.96115
-3.96031
-3.95868
-3.95627
-3.95316
-3.94948
-3.94534
-3.94087
-3.9362
-3.93144
-3.9267
-3.9221
-3.91773
-3.91368
-3.91001
-3.90675
-3.90393
-3.90155
-4.07968
-4.08036
-4.08109
-4.08174
-4.08205
-4.08179
-4.08086
-4.0792
-4.07688
-4.074
-4.07068
-4.06702
-4.06313
-4.05909
-4.05499
-4.05092
-4.04696
-4.04318
-4.03965
-4.03642
-4.03351
-4.03096
-4.02877
-4.20151
-4.20212
-4.20274
-4.20327
-4.20344
-4.20307
-4.20204
-4.20035
-4.19812
-4.19543
-4.19242
-4.18917
-4.18574
-4.18223
-4.17868
-4.17516
-4.17174
-4.16846
-4.16537
-4.16252
-4.15995
-4.15765
-4.15564
-4.32362
-4.32421
-4.32485
-4.32527
-4.32534
-4.32486
-4.32373
-4.32202
-4.31985
-4.31735
-4.3146
-4.31168
-4.30866
-4.30558
-4.30248
-4.29943
-4.29646
-4.29361
-4.29091
-4.28841
-4.28612
-4.28406
-4.28224
-4.44615
-4.44668
-4.44724
-4.44765
-4.44764
-4.44706
-4.44582
-4.44408
-4.44198
-4.43963
-4.43711
-4.43449
-4.43181
-4.4291
-4.42639
-4.42373
-4.42114
-4.41866
-4.4163
-4.41411
-4.41209
-4.41025
-4.40861
-4.56894
-4.56943
-4.56995
-4.57033
-4.57026
-4.56959
-4.56824
-4.56645
-4.5644
-4.56219
-4.55988
-4.55752
-4.55514
-4.55276
-4.55039
-4.54806
-4.5458
-4.54364
-4.54158
-4.53966
-4.53789
-4.53626
-4.5348
-4.69182
-4.69228
-4.69278
-4.69313
-4.69305
-4.69231
-4.69088
-4.68903
-4.68703
-4.68494
-4.68282
-4.68071
-4.6786
-4.67651
-4.67444
-4.67241
-4.67044
-4.66856
-4.66677
-4.6651
-4.66355
-4.66213
-4.66084
-4.81464
-4.81507
-4.81555
-4.81588
-4.81576
-4.81498
-4.81351
-4.81169
-4.80974
-4.80779
-4.80587
-4.804
-4.80215
-4.80033
-4.79853
-4.79677
-4.79506
-4.79343
-4.79189
-4.79045
-4.78911
-4.78787
-4.78675
-4.93723
-4.93762
-4.93806
-4.93835
-4.93817
-4.93737
-4.93597
-4.93424
-4.93244
-4.93068
-4.92899
-4.92735
-4.92576
-4.92418
-4.92264
-4.92113
-4.91966
-4.91827
-4.91695
-4.91572
-4.91458
-4.91353
-4.91257
-5.05954
-5.05985
-5.06022
-5.06045
-5.06022
-5.05947
-5.05823
-5.05668
-5.0551
-5.05358
-5.05214
-5.05075
-5.0494
-5.04807
-5.04676
-5.04548
-5.04425
-5.04307
-5.04196
-5.04093
-5.03998
-5.0391
-5.03831
-5.18159
-5.1818
-5.18206
-5.18223
-5.18199
-5.18135
-5.18032
-5.17906
-5.17774
-5.17651
-5.17533
-5.1742
-5.17308
-5.17198
-5.17089
-5.16983
-5.16881
-5.16784
-5.16693
-5.16609
-5.16532
-5.16462
-5.16397
-5.30346
-5.30358
-5.30372
-5.3038
-5.30358
-5.30308
-5.30233
-5.30141
-5.30045
-5.2995
-5.2986
-5.2977
-5.29681
-5.29592
-5.29504
-5.29419
-5.29337
-5.29259
-5.29187
-5.29121
-5.29062
-5.29008
-5.28959
-5.42522
-5.42527
-5.4253
-5.42528
-5.42512
-5.42482
-5.42438
-5.42383
-5.42323
-5.4226
-5.42195
-5.42129
-5.4206
-5.41991
-5.41922
-5.41856
-5.41792
-5.41733
-5.41679
-5.41631
-5.41589
-5.41551
-5.41518
-5.54697
-5.54695
-5.54688
-5.54677
-5.54668
-5.54661
-5.54652
-5.54635
-5.5461
-5.54578
-5.54539
-5.54495
-5.54446
-5.54396
-5.54345
-5.54296
-5.5425
-5.54208
-5.54171
-5.5414
-5.54114
-5.54092
-5.54073
-5.66878
-5.66873
-5.66861
-5.66843
-5.66834
-5.66853
-5.66877
-5.66894
-5.66903
-5.66901
-5.66887
-5.66864
-5.66836
-5.66804
-5.66771
-5.66739
-5.6671
-5.66684
-5.66663
-5.66648
-5.66639
-5.66633
-5.66627
577.737
556.094
548.707
543.764
425.011
425.427
426.738
427.855
316.369
318.633
322.678
328.246
244.568
246.311
249.113
252.551
179.823
182.064
184.539
187.218
114.924
117.474
120.25
123.631
51.2439
54.2231
57.3826
60.8355
10.7899
12.6764
14.7133
16.6423
0.196277
0.772903
1.30737
1.98457
-1.40365
-1.42783
-1.46042
-1.47318
-1.56704
-1.58906
-1.60529
-1.62638
-1.71822
-1.73381
-1.74687
-1.76105
-1.86766
-1.87953
-1.89052
-1.90048
-2.01618
-2.02469
-2.03284
-2.04047
-2.16449
-2.17029
-2.17608
-2.18174
-2.30799
-2.31182
-2.31586
-2.32018
-2.44748
-2.45007
-2.45295
-2.45634
-2.58548
-2.5871
-2.58912
-2.59167
-2.72241
-2.72327
-2.72456
-2.72629
-2.85787
-2.85819
-2.85886
-2.85988
-2.9918
-2.99169
-2.99189
-2.99237
-3.12435
-3.12394
-3.12379
-3.12388
-3.2557
-3.25508
-3.25469
-3.2545
-3.38602
-3.38528
-3.38473
-3.38434
-3.51549
-3.51468
-3.51402
-3.5135
-3.64425
-3.64341
-3.64269
-3.64209
-3.77243
-3.77158
-3.77084
-3.7702
-3.90012
-3.89929
-3.89856
-3.8979
-4.02741
-4.02662
-4.0259
-4.02525
-4.15438
-4.15363
-4.15295
-4.15232
-4.28107
-4.28038
-4.27974
-4.27914
-4.40755
-4.40691
-4.40632
-4.40577
-4.53384
-4.53326
-4.53272
-4.53222
-4.65999
-4.65947
-4.65899
-4.65853
-4.78601
-4.78556
-4.78513
-4.78473
-4.91193
-4.91155
-4.91118
-4.91083
-5.03778
-5.03745
-5.03715
-5.03685
-5.16355
-5.16329
-5.16304
-5.16281
-5.28927
-5.28907
-5.28888
-5.2887
-5.41495
-5.41482
-5.41468
-5.41456
-5.5406
-5.54052
-5.54045
-5.54037
-5.66624
-5.66622
-5.66619
-5.66617
535.402
513.796
512.748
513.894
515.549
517.828
518.506
518.719
514.559
523.484
521.03
501.015
487.846
480.992
479.544
484.025
486.037
485.514
489.345
427.506
414.249
413.216
418.832
418.693
418.371
418.29
415.24
410.276
406.519
401.953
388.671
378.924
377.936
383.824
390.906
389.852
379.841
381.253
331.173
330.613
333.563
336.678
337.55
337.042
338.093
331.913
324.526
317.352
310.923
302.642
296.204
295.803
301.372
305.935
300.006
298.425
300.923
257.336
261.251
264.562
265.474
264.779
263.978
262.889
256.887
250.786
243.122
235.88
228.248
221.668
219.442
221.778
224.193
220.938
228.396
229.315
193.74
198.754
200.954
201.872
201.223
198.15
192.737
187.533
181.936
174.343
165.826
159.352
154.789
150.862
151.368
155.761
155.109
159.78
162.59
129.802
135.775
138.305
140.026
140.456
138.707
133.903
128.991
121.443
111.455
102.021
94.7778
89.2697
85.3318
85.715
90.7202
93.3346
93.988
99.8985
65.6604
71.7585
76.4695
79.2858
80.8533
80.4118
76.4543
70.4888
61.2419
50.1812
40.7917
33.7383
28.9391
26.434
28.7403
33.0914
39.4528
36.9149
39.8209
19.4748
21.9717
25.2924
27.1736
29.0227
29.8481
27.6341
23.0888
16.8677
9.61557
5.05412
2.38541
0.94843
1.02713
2.59559
4.63555
6.87276
6.66047
5.29558
2.40605
1.93136
1.47509
1.66807
2.16354
2.81918
2.90444
2.12682
0.573387
-0.90262
-1.21139
-1.2586
-1.26304
-1.25066
-1.16664
-1.14501
-1.26614
-0.99709
-0.567505
-1.47433
-1.49035
-1.41108
-1.26598
-1.27581
-1.25187
-1.00963
-1.06777
-1.44091
-1.46876
-1.46245
-1.45223
-1.43455
-1.42024
-1.43958
-1.45831
-1.4466
-1.4443
-1.36746
-1.64884
-1.66534
-1.69456
-1.72205
-1.73884
-1.75672
-1.7864
-1.78263
-1.74246
-1.68467
-1.64944
-1.62811
-1.60784
-1.59152
-1.5898
-1.58397
-1.56738
-1.58151
-1.59779
-1.7823
-1.80272
-1.82497
-1.84759
-1.86442
-1.88136
-1.89907
-1.90338
-1.88619
-1.85219
-1.81903
-1.79571
-1.77373
-1.7524
-1.74076
-1.72656
-1.70703
-1.70872
-1.71971
-1.91652
-1.93554
-1.9548
-1.97536
-1.99437
-2.01218
-2.02574
-2.02673
-2.01507
-1.99532
-1.9708
-1.94911
-1.93068
-1.90732
-1.89137
-1.88214
-1.86716
-1.8596
-1.85899
-2.05304
-2.06914
-2.08531
-2.10404
-2.12496
-2.14277
-2.15037
-2.14741
-2.13905
-2.12655
-2.10928
-2.09158
-2.0794
-2.06199
-2.04342
-2.04949
-2.04519
-2.03406
-2.02807
-2.19118
-2.20438
-2.21829
-2.23391
-2.25216
-2.26691
-2.27104
-2.26763
-2.26057
-2.25159
-2.24011
-2.22647
-2.21689
-2.20983
-2.19249
-2.20926
-2.2148
-2.20517
-2.1991
-2.32758
-2.33869
-2.35096
-2.36393
-2.37789
-2.38884
-2.39314
-2.38988
-2.38315
-2.37481
-2.36594
-2.35655
-2.34942
-2.34625
-2.33787
-2.34471
-2.35562
-2.34876
-2.34441
-2.46212
-2.47108
-2.48195
-2.49275
-2.50285
-2.51038
-2.51438
-2.51306
-2.50763
-2.50087
-2.4931
-2.48562
-2.47973
-2.47571
-2.47194
-2.47147
-2.47407
-2.47051
-2.46846
-2.59609
-2.60306
-2.6116
-2.61981
-2.62674
-2.63232
-2.63599
-2.63714
-2.63426
-2.62955
-2.62295
-2.61649
-2.61063
-2.60545
-2.60153
-2.59863
-2.59402
-2.59363
-2.593
-2.72948
-2.73489
-2.74104
-2.74676
-2.75164
-2.75597
-2.76009
-2.76295
-2.76323
-2.76022
-2.75499
-2.74911
-2.74237
-2.7363
-2.73266
-2.73046
-2.72414
-2.72547
-2.72697
-2.862
-2.86601
-2.87044
-2.87457
-2.87825
-2.88186
-2.88565
-2.88894
-2.89069
-2.8895
-2.88582
-2.88032
-2.87371
-2.86808
-2.86606
-2.86518
-2.86294
-2.86543
-2.86572
-2.99359
-2.99627
-2.99944
-3.00254
-3.0055
-3.00846
-3.01136
-3.01382
-3.01538
-3.01528
-3.01293
-3.00867
-3.00363
-2.99923
-2.99848
-2.9979
-3.00081
-3.0017
-2.99917
-3.12439
-3.12597
-3.12804
-3.1303
-3.13261
-3.13489
-3.137
-3.13873
-3.13976
-3.1397
-3.1382
-3.13534
-3.13187
-3.12881
-3.12839
-3.12913
-3.1314
-3.12821
-3.12355
-3.25448
-3.25522
-3.25648
-3.25798
-3.25961
-3.26125
-3.26274
-3.26389
-3.26452
-3.26438
-3.26327
-3.26123
-3.25875
-3.25655
-3.25605
-3.25716
-3.25601
-3.251
-3.24479
-3.38394
-3.38407
-3.38469
-3.38558
-3.38663
-3.38769
-3.38865
-3.38935
-3.38964
-3.38937
-3.38843
-3.38682
-3.38483
-3.38285
-3.38148
-3.38127
-3.37858
-3.3736
-3.36727
-3.51284
-3.51253
-3.51266
-3.51308
-3.51365
-3.51426
-3.51479
-3.51513
-3.51515
-3.51475
-3.51386
-3.51247
-3.51069
-3.50869
-3.50657
-3.50482
-3.50196
-3.49791
-3.4924
-3.64126
-3.64064
-3.64041
-3.64045
-3.64065
-3.64091
-3.64111
-3.64118
-3.641
-3.64051
-3.63965
-3.63838
-3.63675
-3.63479
-3.63246
-3.63013
-3.62725
-3.62394
-3.61991
-3.76927
-3.76843
-3.76794
-3.7677
-3.76761
-3.7676
-3.76756
-3.76743
-3.76712
-3.76657
-3.76574
-3.76459
-3.76312
-3.76132
-3.75911
-3.75676
-3.75414
-3.75139
-3.74825
-3.89692
-3.89594
-3.89527
-3.89483
-3.89453
-3.89431
-3.8941
-3.89382
-3.89343
-3.89286
-3.89208
-3.89104
-3.88975
-3.88817
-3.88624
-3.88417
-3.88197
-3.87976
-3.87701
-4.02426
-4.02321
-4.02242
-4.02184
-4.0214
-4.02103
-4.02069
-4.02032
-4.01987
-4.0193
-4.01858
-4.01767
-4.01655
-4.01522
-4.01362
-4.01191
-4.01015
-4.00847
-4.00628
-4.15135
-4.15027
-4.14942
-4.14875
-4.1482
-4.14774
-4.14732
-4.14689
-4.14641
-4.14585
-4.14519
-4.1444
-4.14344
-4.14234
-4.14101
-4.13969
-4.13837
-4.13712
-4.13549
-4.27821
-4.27714
-4.27627
-4.27555
-4.27496
-4.27444
-4.27396
-4.27349
-4.27301
-4.27247
-4.27187
-4.27117
-4.27036
-4.26944
-4.26834
-4.26736
-4.26645
-4.26556
-4.26443
-4.4049
-4.40386
-4.403
-4.40227
-4.40165
-4.4011
-4.4006
-4.40012
-4.39964
-4.39913
-4.39858
-4.39796
-4.39728
-4.39653
-4.39569
-4.39497
-4.39431
-4.39369
-4.39294
-4.53142
-4.53045
-4.52962
-4.52891
-4.52829
-4.52773
-4.52723
-4.52676
-4.52629
-4.52581
-4.52531
-4.52477
-4.5242
-4.52362
-4.52306
-4.5225
-4.52196
-4.52143
-4.52097
-4.65781
-4.65692
-4.65614
-4.65547
-4.65487
-4.65433
-4.65384
-4.65338
-4.65294
-4.6525
-4.65206
-4.65159
-4.65111
-4.65065
-4.65026
-4.64984
-4.64941
-4.64896
-4.64867
-4.78409
-4.78329
-4.78258
-4.78195
-4.78139
-4.78088
-4.78042
-4.77999
-4.77958
-4.77919
-4.77879
-4.7784
-4.778
-4.77762
-4.77731
-4.77705
-4.77673
-4.77635
-4.77613
-4.91028
-4.90957
-4.90894
-4.90838
-4.90786
-4.9074
-4.90697
-4.90657
-4.90621
-4.90586
-4.90552
-4.90519
-4.90486
-4.90454
-4.90428
-4.90408
-4.90387
-4.90356
-4.90333
-5.03638
-5.03578
-5.03524
-5.03474
-5.03429
-5.03387
-5.03349
-5.03314
-5.03281
-5.03251
-5.03222
-5.03195
-5.03168
-5.03143
-5.0312
-5.03101
-5.03084
-5.03061
-5.03043
-5.16242
-5.16193
-5.16147
-5.16105
-5.16067
-5.16031
-5.15998
-5.15968
-5.1594
-5.15914
-5.15891
-5.15868
-5.15847
-5.15828
-5.15809
-5.15793
-5.1578
-5.15765
-5.15752
-5.28841
-5.28802
-5.28766
-5.28732
-5.28702
-5.28672
-5.28645
-5.2862
-5.28598
-5.28576
-5.28558
-5.2854
-5.28525
-5.2851
-5.28497
-5.28486
-5.28478
-5.2847
-5.28461
-5.41435
-5.41407
-5.41381
-5.41356
-5.41332
-5.41311
-5.41291
-5.41272
-5.41255
-5.41239
-5.41224
-5.41212
-5.41201
-5.41192
-5.41184
-5.41179
-5.41177
-5.41174
-5.41167
-5.54025
-5.54008
-5.53992
-5.53977
-5.53962
-5.53948
-5.53935
-5.53924
-5.53912
-5.53902
-5.53892
-5.53884
-5.53878
-5.53874
-5.53872
-5.53875
-5.53878
-5.5388
-5.53871
-5.66613
-5.66607
-5.66602
-5.66596
-5.66591
-5.66585
-5.6658
-5.66575
-5.6657
-5.66566
-5.66562
-5.66559
-5.66557
-5.66558
-5.66563
-5.66574
-5.66586
-5.66589
-5.66573
)
;

boundaryField
{
    leftWall
    {
        type            calculated;
        value           nonuniform List<scalar> 
50
(
4798.76
4001.31
3203.87
2405.72
1628.8
1132.4
983.629
924.272
831.407
706.918
582.708
462.057
356.338
278.642
219.599
159.031
97.1317
39.9752
6.92696
-2.39977
-2.3835
-2.41206
-2.4816
-2.57448
-2.67861
-2.78768
-2.89941
-3.01301
-3.12802
-3.24418
-3.36128
-3.47921
-3.59791
-3.71734
-3.83746
-3.95827
-4.07968
-4.20151
-4.32362
-4.44615
-4.56894
-4.69182
-4.81464
-4.93723
-5.05954
-5.18159
-5.30346
-5.42522
-5.54697
-5.66878
)
;
    }
    rightWall
    {
        type            calculated;
        value           nonuniform List<scalar> 
50
(
2459.29
1707.86
1136.35
855.868
756.874
705.13
647.346
586.448
489.345
381.253
300.923
229.315
162.59
99.8985
39.8209
5.29558
-0.567505
-1.36746
-1.59779
-1.71971
-1.85899
-2.02807
-2.1991
-2.34441
-2.46846
-2.593
-2.72697
-2.86572
-2.99917
-3.12355
-3.24479
-3.36727
-3.4924
-3.61991
-3.74825
-3.87701
-4.00628
-4.13549
-4.26443
-4.39294
-4.52097
-4.64867
-4.77613
-4.90333
-5.03043
-5.15752
-5.28461
-5.41167
-5.53871
-5.66573
)
;
    }
    lowerWall
    {
        type            calculated;
        value           nonuniform List<scalar> 
62
(
5196.91
5198.59
5202.44
5208.6
5217.9
5231.83
5252.51
5282.1
5322.47
5374.87
5439.68
5516.86
5606.71
5710.31
5828.74
5961.46
6106.4
6259.01
6412.84
6557.3
6680.17
6770.09
6819.07
6420.94
5634.84
4858.71
4092.97
3338.34
2595.29
1867.74
1167.22
711.363
649.844
612.228
601.406
2414.65
1652.68
1075.01
839.281
775.515
718.681
659.145
607.343
2796.94
2811.73
2824.9
2828.12
2819.4
2809.1
2815.07
2839.62
2882.06
2938.62
2998.98
3065.86
3127.63
3156.36
3127.52
3057.33
2971.29
2891.96
2839.55
)
;
    }
    atmosphere
    {
        type            calculated;
        value           nonuniform List<scalar> 
46
(
-5.72959
-5.72951
-5.72951
-5.72942
-5.72926
-5.72969
-5.73007
-5.73039
-5.73062
-5.73072
-5.73068
-5.73054
-5.73034
-5.73011
-5.72987
-5.72964
-5.72943
-5.72926
-5.72912
-5.72905
-5.72904
-5.72904
-5.72904
-5.72904
-5.72905
-5.72904
-5.72904
-5.72904
-5.72904
-5.72904
-5.72904
-5.72904
-5.72904
-5.72904
-5.72904
-5.72904
-5.72904
-5.72904
-5.72904
-5.72904
-5.72905
-5.72907
-5.72916
-5.72936
-5.72943
-5.72907
)
;
    }
    defaultFaces
    {
        type            empty;
    }
}


// ************************************************************************* //
