/*--------------------------------*- C++ -*----------------------------------*\
| =========                 |                                                 |
| \\      /  F ield         | OpenFOAM: The Open Source CFD Toolbox           |
|  \\    /   O peration     | Version:  2312                                  |
|   \\  /    A nd           | Website:  www.openfoam.com                      |
|    \\/     M anipulation  |                                                 |
\*---------------------------------------------------------------------------*/
FoamFile
{
    version     2.0;
    format      ascii;
    arch        "LSB;label=32;scalar=64";
    class       volScalarField;
    location    "5.8";
    object      alpha.water_0;
}
// * * * * * * * * * * * * * * * * * * * * * * * * * * * * * * * * * * * * * //

dimensions      [0 0 0 0 0 0 0];

internalField   nonuniform List<scalar> 
2268
(
2.97935e-07
2.98165e-07
2.79381e-07
1.66803e-07
3.68653e-08
4.64063e-09
1.02814e-09
5.97976e-10
4.39194e-10
3.23712e-10
2.3921e-10
1.8697e-10
1.52827e-10
1.28326e-10
1.13573e-10
1.08471e-10
1.1679e-10
1.4515e-10
1.9292e-10
3.03037e-10
6.83718e-10
1.26607e-09
1.36611e-09
1.82374e-07
1.63176e-07
8.25568e-08
2.54843e-08
2.18482e-09
1.62997e-09
1.61367e-09
1.37639e-09
9.42234e-10
6.11634e-10
4.61915e-10
4.06685e-10
3.92248e-10
3.76851e-10
3.49579e-10
2.78652e-10
2.39379e-10
2.55513e-10
3.43444e-10
4.76885e-10
8.31699e-10
1.28841e-09
1.33287e-09
3.04128e-08
1.36324e-08
9.35292e-09
8.76244e-09
8.75609e-09
8.59357e-09
9.23078e-09
8.18874e-09
2.69862e-09
1.21297e-09
8.34835e-10
7.84927e-10
8.58045e-10
9.38849e-10
9.41415e-10
8.90222e-10
7.48014e-10
5.44042e-10
5.14922e-10
5.8695e-10
8.85542e-10
1.14797e-09
1.11328e-09
8.78663e-09
8.77977e-09
8.7738e-09
8.76771e-09
8.76152e-09
3.0708e-08
3.01444e-08
3.13109e-08
2.9979e-10
2.9976e-10
3.00371e-10
3.38379e-10
4.37388e-10
5.23864e-10
5.67834e-10
5.63337e-10
4.98274e-10
4.57931e-10
4.7042e-10
5.56777e-10
7.58991e-10
8.3955e-10
7.78944e-10
0.0220017
0.0205355
0.0179381
0.0148689
0.0120475
0.00959774
0.00736158
0.00498652
0.00229572
6.46999e-05
-3.14025e-23
-9.05138e-30
-4.17389e-15
-3.86404e-14
3.97341e-29
8.18055e-23
1.1158e-11
7.06499e-11
1.46482e-10
2.14684e-10
3.09459e-10
3.22638e-10
3.14115e-10
0.649383
0.642463
0.629845
0.613773
0.596352
0.578109
0.558628
0.534361
0.49526
0.436814
0.357271
0.280899
0.201204
0.124029
0.0600833
0.0171058
2.38531e-21
2.07461e-29
1.92044e-29
-3.15402e-21
-1.20774e-15
-2.3976e-15
5.61015e-24
0.998021
0.998417
0.998229
0.997364
0.99654
0.996609
0.997148
0.998579
0.999358
0.999222
0.994414
0.963182
0.91551
0.845484
0.744958
0.611945
0.455051
0.245755
0.097386
0.0182217
0.000905141
0.000324351
4.18123e-05
0.999456
0.999456
0.999456
0.999454
0.999256
0.999499
0.999692
0.999692
0.999668
0.999697
0.999698
0.999734
0.999785
0.999785
0.999777
0.994665
0.920031
0.832568
0.739214
0.613333
0.465701
0.366828
0.328299
0.00686267
0.00527865
0.00218867
0.00295725
0.00372261
0.00556372
0.00598307
0.00610786
0.00638668
0.00685527
0.00730864
0.00694062
0.00387289
0.00341271
0.00344281
0.0033209
0.0023891
0.00211606
0.00232553
0.00101632
0.000496948
8.48101e-05
-4.76368e-15
-3.1056e-11
-2.39092e-06
-2.32601e-06
-2.12256e-06
-1.48179e-06
2.01819e-17
2.63618e-21
-7.6061e-14
-8.58287e-07
-9.31338e-07
-1.12729e-07
1.97236e-05
3.63392e-05
3.65683e-05
3.79758e-05
8.26305e-05
8.1458e-05
8.26278e-05
0.0282942
0.0630628
0.0998043
0.141322
0.170127
0.179038
0.154964
0.128572
0.0992942
0.0957499
0.0865577
0.0640078
0.0364332
0.049322
0.0718855
0.0720841
0.136341
0.26973
0.443474
0.575225
0.658072
0.726009
0.824751
0.871526
0.89129
0.910625
0.921353
0.840671
0.695612
0.67582
0.622496
0.435881
0.478901
0.723521
0.529797
0.698639
0.841217
0.921305
0.96231
0.97016
0.955026
0.954715
0.9838
0.991807
0.99179
0.991275
0.991326
0.973267
0.917143
0.904936
0.651363
0.824168
0.953098
0.8322
0.789487
0.990141
0.99019
0.990199
0.990207
0.980429
0.978077
0.990356
0.991778
0.990911
0.942736
0.984193
0.989401
0.976645
0.9199
0.667815
0.800633
0.95297
0.936044
0.970149
0.989912
0.988627
0.988845
0.990198
0.991279
0.990287
0.990997
0.99149
0.952804
0.78579
0.945567
0.989259
0.97858
0.838696
0.666908
0.93349
0.952373
0.85084
0.992589
0.991141
0.991217
0.989941
0.988995
0.99128
0.991279
0.991277
0.990036
0.886409
0.694323
0.87571
0.929006
0.912853
0.90128
0.810536
0.951907
0.952378
0.821743
0.997047
0.999445
0.999456
0.999107
0.997398
0.993059
0.99556
0.998842
0.998717
0.998724
0.999785
0.999785
0.999785
0.999785
0.999775
0.9987
0.996383
0.99589
0.992754
0.986548
0.982917
0.98287
0.984972
0.953773
0.932963
0.891535
0.817844
0.749612
0.765924
0.823321
0.870425
0.88995
0.912359
0.936311
0.969332
0.98711
0.99277
0.987904
0.985374
0.988282
0.988376
0.991895
0.991579
0.98745
0.987644
0.994106
0.296195
0.253927
0.22515
0.193702
0.114248
0.0712307
0.0861078
0.15967
0.290962
0.428991
0.505869
0.523751
0.535086
0.563525
0.660256
0.699845
0.711892
0.738128
0.760031
0.771138
0.796307
0.897227
0.97994
4.23516e-24
2.31634e-24
2.18339e-24
8.49425e-22
4.51714e-17
6.10423e-09
0.000825424
-6.24645e-10
9.16351e-20
0.00241005
0.00872669
0.00806052
0.00908159
0.0167692
0.0354249
0.0521731
0.05779
0.0606365
0.0756232
0.0946705
0.105246
0.137509
0.43593
5.59823e-06
5.58323e-06
3.5007e-07
8.4746e-22
2.47901e-06
1.48891e-05
2.3565e-05
6.66412e-06
1.76289e-06
-1.43805e-13
-2.00885e-07
1.79719e-05
-2.69453e-07
-1.38695e-07
-1.08795e-07
-4.35214e-07
3.98639e-05
9.8467e-06
-4.83628e-07
-5.37367e-07
-1.32919e-06
1.16132e-19
0.00138289
5.37479e-05
4.02568e-05
8.9929e-05
0.000136947
0.000121195
1.20302e-05
3.92825e-11
2.49754e-08
-6.18458e-09
3.1598e-08
3.38273e-05
6.89087e-05
7.84385e-05
6.83998e-05
4.99551e-05
9.07862e-05
0.000137239
0.000150051
0.00102077
0.0033028
0.00234142
0.000349008
1.18291e-06
0.000209399
6.25427e-05
0.000160925
0.000436506
0.000209532
0.00189405
0.00124106
9.51144e-07
1.25189e-05
9.13615e-05
6.52492e-05
0.00010475
8.5721e-05
0.000189067
0.000320142
0.000729393
0.00258
0.00232774
0.00122498
0.00357086
0.0167668
0.0197256
0.00390254
0.000238497
0.000119493
8.21669e-05
0.00146428
0.00441912
0.0045931
0.00459278
0.00249138
0.000736608
0.0012066
0.00119553
0.000155671
5.49754e-05
5.55309e-05
0.00231297
0.00856018
0.00920507
0.00917417
0.00522054
0.00460461
0.0162924
0.019845
0.019845
0.000145493
4.78409e-05
7.32588e-05
7.4466e-05
0.000325601
0.00359768
0.0045931
0.00459278
0.0045931
0.00299764
0.00175195
0.000253947
7.34806e-05
0.000131096
0.00236374
0.00535754
0.00568755
0.00917064
0.0102896
0.0102453
0.00888437
0.00971596
0.0178549
7.48573e-09
7.38101e-09
1.71767e-05
0.000140894
6.22049e-05
0.000395989
0.00150283
0.00293931
0.00310782
0.00199922
0.000753405
0.00019092
5.28815e-05
0.000260682
0.000733572
9.97702e-05
5.75487e-05
0.000598692
0.00102283
0.000155026
1.47141e-06
1.47665e-06
1.4903e-05
2.70733e-08
1.55947e-08
1.32212e-08
9.65643e-07
6.64426e-09
5.67943e-09
6.67627e-09
5.49519e-09
5.2207e-05
8.53043e-05
2.99364e-07
1.56203e-05
3.08903e-05
9.4088e-05
8.82088e-07
6.80972e-07
7.46912e-07
6.88484e-07
7.51418e-07
1.7835e-06
4.28274e-06
9.90602e-06
5.89065e-06
6.95511e-08
4.3577e-08
1.65355e-08
5.79703e-08
2.08265e-07
5.80587e-07
6.50285e-07
4.20768e-07
2.99619e-07
2.95067e-07
2.92111e-07
2.84211e-07
2.70915e-06
6.0176e-07
1.59415e-08
7.7433e-07
3.63538e-06
4.90976e-06
1.91599e-06
1.80065e-06
2.81543e-05
3.27031e-05
3.22469e-05
1.32735e-07
9.43219e-08
8.17524e-09
1.0463e-08
3.33342e-08
1.61219e-07
3.41485e-07
3.60212e-07
4.42695e-07
6.78376e-07
6.82889e-07
6.49502e-07
9.87419e-09
2.1876e-08
9.87851e-09
5.60523e-06
8.61531e-06
7.14029e-06
1.93714e-06
2.55975e-05
3.05153e-05
3.11434e-05
1.11093e-05
1.32791e-07
1.08634e-07
8.00944e-09
7.29342e-09
8.28879e-09
4.93074e-08
1.30742e-07
2.44661e-07
3.05069e-07
3.76395e-07
5.81748e-07
3.90958e-07
1.62963e-08
9.59969e-09
9.73672e-09
4.7748e-06
8.57578e-06
9.69476e-07
1.27245e-05
2.62594e-05
1.38305e-05
7.62813e-07
8.40157e-07
1.1209e-07
6.90644e-08
1.05476e-08
7.28457e-09
7.29371e-09
2.16771e-08
6.77068e-08
1.04353e-07
1.27091e-07
1.2257e-07
1.86635e-07
1.32476e-07
1.84057e-08
9.47065e-09
7.29944e-08
9.0539e-07
1.68505e-06
2.98627e-07
6.10868e-06
1.09354e-06
5.32432e-07
7.32199e-07
8.88684e-07
4.70205e-08
2.51217e-08
1.03347e-08
7.27511e-09
8.8517e-09
1.4689e-08
2.37473e-08
3.22591e-08
3.4246e-08
2.88383e-08
2.87966e-08
3.14858e-08
9.8373e-09
8.37574e-09
5.26783e-08
2.09525e-07
1.05727e-07
9.68767e-08
2.47913e-09
2.46589e-09
2.86527e-06
6.87877e-06
5.25582e-07
1.47207e-08
7.91568e-09
5.94602e-09
6.31626e-09
6.57945e-09
6.84661e-09
6.41281e-09
6.30268e-09
5.49156e-09
3.76767e-09
3.67159e-09
3.53887e-09
3.45429e-09
4.63723e-09
8.26891e-09
1.31887e-08
3.68687e-09
2.68819e-08
4.08642e-09
2.33299e-09
9.71558e-06
1.36626e-05
3.32138e-07
1.19387e-08
4.27609e-09
3.70233e-09
4.37694e-09
4.29761e-09
3.57803e-09
2.92565e-09
2.17143e-09
1.75919e-09
1.41212e-09
1.44209e-09
1.77014e-09
2.16422e-09
2.9773e-09
3.54675e-09
3.52714e-09
3.64944e-09
2.52355e-09
2.44133e-09
2.12464e-09
8.00597e-06
1.36594e-05
6.85878e-06
1.20615e-08
3.19775e-09
2.43938e-09
2.84393e-09
2.66411e-09
2.13368e-09
1.54818e-09
1.1526e-09
9.23389e-10
8.69609e-10
9.82571e-10
1.21348e-09
1.58505e-09
2.18296e-09
2.87812e-09
3.43162e-09
3.20057e-09
2.1101e-09
2.11579e-09
2.12013e-09
9.03969e-08
1.02361e-05
1.31431e-05
1.20553e-08
2.22514e-09
1.54736e-09
1.73542e-09
1.50833e-09
1.17086e-09
8.97883e-10
6.70222e-10
5.32242e-10
4.88243e-10
5.40224e-10
6.65674e-10
8.75472e-10
1.20587e-09
1.61806e-09
1.98658e-09
1.94986e-09
1.6342e-09
2.6037e-09
1.07148e-08
3.28124e-08
5.46643e-07
3.08875e-07
1.16594e-08
1.5291e-09
9.49326e-10
1.01152e-09
8.54546e-10
6.69058e-10
5.05708e-10
3.75486e-10
2.94402e-10
2.56744e-10
2.65616e-10
3.11388e-10
3.98324e-10
5.42247e-10
7.3227e-10
9.23965e-10
1.00681e-09
1.01299e-09
1.69555e-09
1.32372e-08
3.97512e-08
4.002e-08
2.48499e-07
1.12494e-08
1.00832e-09
6.33517e-10
6.37435e-10
5.53557e-10
4.69799e-10
3.68456e-10
2.53706e-10
1.86101e-10
1.46005e-10
1.30048e-10
1.3627e-10
1.65185e-10
2.19195e-10
2.97124e-10
3.89548e-10
4.76005e-10
6.07443e-10
1.09099e-09
7.79376e-09
2.97525e-08
5.5671e-08
5.66688e-08
1.07719e-08
6.69812e-10
4.74817e-10
5.40789e-10
6.24385e-10
6.34018e-10
4.7403e-10
2.63397e-10
1.74292e-10
1.15826e-10
8.11975e-11
6.72194e-11
6.88955e-11
8.45384e-11
1.13821e-10
1.56625e-10
2.17352e-10
3.15769e-10
5.33125e-10
2.12052e-09
1.05722e-08
2.65613e-08
3.28522e-08
1.04519e-08
4.9668e-10
4.64755e-10
7.2708e-10
1.10917e-09
1.15333e-09
7.43375e-10
3.21384e-10
2.03962e-10
1.24211e-10
7.38983e-11
4.68161e-11
3.53463e-11
3.43821e-11
4.31368e-11
6.23343e-11
9.77539e-11
1.57889e-10
2.5305e-10
5.64269e-10
1.10904e-09
4.35569e-09
5.64e-09
1.01188e-08
4.47633e-10
5.3492e-10
1.27095e-09
1.72612e-09
1.80216e-09
9.99049e-10
3.58585e-10
2.41492e-10
1.46556e-10
8.1465e-11
4.54274e-11
2.65121e-11
1.85321e-11
1.77631e-11
2.4553e-11
4.08571e-11
7.19682e-11
1.23121e-10
2.12958e-10
3.80861e-10
4.9667e-10
1.65778e-09
9.90823e-09
4.49725e-10
8.73141e-10
1.70435e-09
2.68503e-09
3.62596e-09
1.16942e-09
3.82869e-10
2.80751e-10
1.68203e-10
9.04945e-11
4.90144e-11
2.66982e-11
1.46356e-11
9.68346e-12
1.00498e-11
1.54886e-11
2.77115e-11
4.95467e-11
9.19117e-11
1.57653e-10
3.79233e-10
7.90626e-10
9.70477e-09
5.91265e-10
1.30114e-09
2.58748e-09
5.79568e-09
1.04987e-08
8.60481e-10
4.04315e-10
3.28742e-10
1.84479e-10
9.45519e-11
5.15899e-11
2.83408e-11
1.48501e-11
7.70697e-12
5.09496e-12
5.81566e-12
9.58125e-12
1.70984e-11
3.12334e-11
5.95251e-11
1.161e-10
2.59704e-10
9.56525e-09
9.09326e-10
2.48379e-09
5.15352e-09
2.50307e-08
2.18804e-08
4.69975e-10
4.29689e-10
3.71341e-10
1.84809e-10
9.08191e-11
4.99824e-11
2.86349e-11
1.56174e-11
7.7853e-12
3.81665e-12
2.55411e-12
3.24995e-12
5.28258e-12
9.45479e-12
1.68579e-11
3.4072e-11
6.15699e-11
9.62029e-09
3.08963e-09
1.36845e-08
6.80232e-08
1.6337e-07
1.34236e-08
4.38708e-10
4.83294e-10
3.62528e-10
1.65456e-10
7.94046e-11
4.47928e-11
2.69087e-11
1.53395e-11
8.00486e-12
3.72732e-12
1.68874e-12
1.18112e-12
1.67411e-12
2.78387e-12
4.76068e-12
7.99106e-12
1.50311e-11
1.00144e-08
1.08599e-08
1.07175e-07
4.9018e-07
3.29937e-07
4.38807e-10
4.38914e-10
5.40149e-10
3.27549e-10
1.34482e-10
6.27936e-11
3.63382e-11
2.32626e-11
1.41774e-11
7.7593e-12
3.74123e-12
1.57363e-12
5.47892e-13
5.72909e-13
8.59793e-13
1.34543e-12
2.29226e-12
3.62958e-12
1.19589e-08
3.24898e-08
2.3589e-07
6.0772e-07
3.12885e-07
4.39014e-10
5.39683e-10
5.73423e-10
2.77026e-10
1.00139e-10
4.49304e-11
2.69454e-11
1.8404e-11
1.2025e-11
7.06755e-12
3.55865e-12
1.54366e-12
4.71131e-13
2.13314e-13
2.7631e-13
4.24945e-13
6.43991e-13
9.96527e-13
1.38715e-08
6.20539e-08
3.06516e-07
6.10219e-07
1.05055e-07
4.38906e-10
7.88812e-10
5.38836e-10
2.02342e-10
6.99493e-11
3.01638e-11
1.82581e-11
1.30859e-11
9.22262e-12
5.90215e-12
3.21601e-12
1.51358e-12
4.70989e-13
1.03811e-13
9.2447e-14
1.29621e-13
1.95649e-13
2.6947e-13
1.78226e-08
1.06216e-07
5.4273e-07
4.34309e-07
5.26012e-10
6.10469e-10
1.03441e-09
4.42333e-10
1.31375e-10
4.76878e-11
1.92258e-11
1.17808e-11
8.61785e-12
6.29084e-12
4.36634e-12
2.6733e-12
1.37094e-12
4.89179e-13
7.83714e-14
3.35807e-14
3.69503e-14
5.29258e-14
7.15364e-14
1.82419e-08
1.49303e-07
6.28714e-07
2.40462e-07
5.24218e-10
1.00932e-09
1.39226e-09
4.40465e-10
1.17017e-10
3.27821e-11
1.16691e-11
6.87375e-12
5.07627e-12
3.80957e-12
2.86243e-12
1.94439e-12
1.11439e-12
4.90799e-13
8.38315e-14
1.4786e-14
1.10596e-14
1.5482e-14
1.82888e-14
2.39907e-08
1.9115e-07
6.28732e-07
2.40769e-07
5.2602e-10
1.64526e-09
1.88746e-09
4.97154e-10
1.16584e-10
2.39846e-11
6.89851e-12
3.96949e-12
2.75462e-12
2.06753e-12
1.61043e-12
1.22116e-12
8.01469e-13
4.13713e-13
9.96481e-14
1.05238e-14
3.55161e-15
4.02912e-15
4.91162e-15
2.61749e-08
2.79991e-07
6.28714e-07
1.80686e-07
5.2419e-10
2.95427e-09
2.35704e-09
5.70593e-10
1.20574e-10
1.93747e-11
4.01045e-12
2.13713e-12
1.45061e-12
1.01169e-12
7.74008e-13
6.38562e-13
4.89179e-13
3.05706e-13
9.41623e-14
1.1257e-14
1.62463e-15
1.22369e-15
1.39239e-15
3.0029e-08
3.18991e-07
6.28732e-07
5.75376e-08
2.54384e-09
7.9867e-09
2.70234e-09
5.97979e-10
1.1856e-10
1.59348e-11
2.23374e-12
1.06199e-12
7.11703e-13
4.51827e-13
3.19537e-13
2.69368e-13
2.37807e-13
1.83731e-13
7.76025e-14
1.27151e-14
1.22025e-15
3.55954e-16
3.83462e-16
2.81333e-08
2.68231e-07
4.13542e-07
7.65688e-09
5.03301e-09
1.09512e-08
2.83185e-09
5.46693e-10
9.82139e-11
1.20539e-11
1.17253e-12
5.00812e-13
3.26324e-13
1.89685e-13
1.15943e-13
9.05387e-14
8.75041e-14
8.27356e-14
4.96794e-14
1.20529e-14
1.25825e-15
1.32824e-16
9.48044e-17
2.49217e-08
1.83892e-07
2.77904e-07
5.12265e-09
1.23628e-08
1.10335e-08
2.54565e-09
4.35605e-10
6.53708e-11
7.17583e-12
5.43647e-13
1.96176e-13
1.31761e-13
7.30752e-14
3.78977e-14
2.45095e-14
2.35403e-14
2.6869e-14
2.41339e-14
9.09916e-15
1.28593e-15
7.92344e-17
2.31921e-17
2.20625e-08
1.61781e-07
2.8136e-07
3.89777e-09
1.41633e-08
6.91282e-09
1.43521e-09
2.75182e-10
2.91412e-11
2.77397e-12
1.76611e-13
5.87165e-14
4.21407e-14
2.38006e-14
1.11739e-14
5.55781e-15
4.53238e-15
5.9379e-15
7.60233e-15
5.25152e-15
9.71329e-16
7.38428e-17
7.08216e-18
2.18962e-08
9.85179e-08
1.60296e-07
3.8362e-09
1.3097e-08
2.94098e-09
6.09306e-10
1.1087e-10
9.53585e-12
6.39429e-13
3.20702e-14
1.17106e-14
9.46552e-15
5.74874e-15
2.64771e-15
1.05632e-15
6.34265e-16
9.26033e-16
1.66183e-15
2.03952e-15
6.16578e-16
6.63855e-17
4.77492e-18
2.57288e-08
2.95199e-08
1.58275e-08
1.18761e-08
3.01684e-09
4.30924e-10
9.53815e-11
1.58283e-11
9.74225e-13
3.68667e-14
1.53456e-15
1.15818e-15
1.10211e-15
7.58068e-16
3.68466e-16
1.3565e-16
6.1431e-17
9.79042e-17
2.73497e-16
5.44519e-16
3.43289e-16
5.14606e-17
3.51031e-18
0.973648
0.97364
0.984669
0.992597
0.989115
0.974949
0.97915
0.992172
0.994568
0.994511
0.994561
0.994452
0.722183
0.733611
0.602303
0.501518
0.00635251
0.00917255
0.00780138
0.00224183
9.13259e-07
6.89396e-06
6.44388e-05
1.21671e-05
1.31023e-05
8.19822e-05
2.27422e-05
2.36055e-05
0.019845
0.0126506
0.0032647
0.00420457
0.019845
0.019845
0.0167162
0.00836769
0.000957514
0.00198068
0.00197844
0.00108189
6.05325e-07
8.56246e-07
6.42938e-07
7.84544e-07
1.28151e-05
1.47333e-05
2.23815e-05
3.26773e-05
7.38814e-07
7.44823e-07
9.64489e-07
1.02387e-06
7.64118e-07
1.03422e-06
8.68319e-07
1.08227e-06
1.28033e-06
1.25789e-06
5.71732e-07
5.72012e-07
2.29609e-07
2.2899e-07
8.3452e-07
4.49566e-06
2.2899e-07
2.28987e-07
4.02067e-06
1.01744e-05
4.49091e-07
4.26445e-06
8.65669e-06
8.30392e-06
1.29236e-05
1.21372e-05
1.19188e-05
6.99116e-06
1.13669e-05
1.75889e-05
1.75761e-05
7.29925e-06
1.61002e-07
3.60989e-08
3.59059e-08
3.60614e-08
5.77176e-08
7.06435e-08
5.41414e-08
3.9453e-08
2.30725e-08
7.55844e-09
6.14753e-09
7.43908e-08
5.81818e-09
4.07749e-09
2.05815e-09
3.77587e-09
2.29538e-09
2.12703e-09
2.05686e-09
5.68708e-09
1.03253e-09
1.86505e-09
2.47667e-09
2.95609e-09
3.65438e-10
4.53137e-10
5.70076e-10
5.77054e-10
9.34049e-11
1.15922e-10
1.27351e-10
1.41686e-10
2.08076e-11
2.40802e-11
2.87201e-11
3.02281e-11
4.83438e-12
5.96012e-12
6.34582e-12
7.18456e-12
1.31115e-12
1.43261e-12
1.64315e-12
1.76463e-12
3.17088e-13
3.46469e-13
3.65318e-13
3.96574e-13
7.82352e-14
7.79731e-14
8.22798e-14
8.51059e-14
2.01447e-14
1.86478e-14
1.81032e-14
1.8588e-14
4.80052e-15
4.45933e-15
4.36354e-15
4.27636e-15
1.31049e-15
1.158e-15
1.14671e-15
1.14715e-15
3.54586e-16
3.16145e-16
3.03575e-16
3.3107e-16
9.13176e-17
7.52513e-17
7.51592e-17
7.93518e-17
1.88454e-17
1.725e-17
1.61012e-17
1.70653e-17
3.9901e-18
3.25162e-18
3.02383e-18
2.90608e-18
7.06117e-19
5.66297e-19
5.18057e-19
4.87107e-19
1.37819e-19
8.17247e-20
7.42081e-20
5.89387e-20
0.992593
0.992589
0.987638
0.97263
0.978935
0.991284
0.991275
0.990276
0.890097
0.568547
0.695556
0.90509
0.946106
0.940323
0.944812
0.932015
0.952137
0.952317
0.81488
0.992579
0.986172
0.922494
0.904155
0.977318
0.989382
0.865037
0.53812
0.242318
0.246005
0.871721
0.946
0.946231
0.946042
0.946638
0.946578
0.945826
0.93361
0.892652
0.978675
0.869859
0.80816
0.79484
0.819841
0.574371
0.0595502
-3.64562e-07
1.02314e-14
0.114959
0.387936
0.512128
0.636745
0.682328
0.611227
0.574169
0.626894
0.833154
0.925459
0.383679
0.281983
0.230368
0.159838
0.116041
0.030562
6.24777e-17
4.61123e-20
-7.76365e-12
-3.97814e-23
9.55324e-37
1.46361e-16
0.00217508
0.0158138
1.51521e-11
3.67151e-11
0.0359929
0.165259
0.361122
0.000303569
1.66248e-09
1.31692e-09
2.46484e-06
4.19863e-08
5.73432e-08
0.000786359
2.97018e-06
2.90687e-22
-8.75734e-23
9.94988e-23
1.32813e-07
-6.63251e-07
1.61623e-09
2.14984e-07
4.56499e-06
1.10847e-05
4.77525e-06
1.87374e-06
3.10545e-05
0.00502911
0.0133762
0.0121841
0.00391342
1.77408e-06
3.11131e-05
0.000144667
0.000159219
0.000178138
0.000122574
0.000185868
0.000228012
0.000322064
0.000418083
0.000673309
0.000986832
0.00131583
0.00156679
0.000162462
0.000453017
0.0108498
0.0298764
0.0197849
0.00137821
0.000934672
0.00102387
0.000724867
0.000643612
0.000381792
0.000355928
0.000246205
0.000859505
0.00201659
0.00253726
0.00253762
0.00253726
0.00253762
0.00458384
0.00170226
0.00396924
0.0312914
0.0366123
0.025534
0.0103045
0.00860642
0.0114437
0.0158172
0.0111314
0.00126347
0.000120503
0.00112881
0.00202662
0.00210853
0.00151971
0.000832922
0.000956085
0.00704084
0.00405595
0.0074679
0.0300613
0.0365479
0.0363938
0.0306771
0.0221052
0.0223406
0.0223994
0.0184048
0.00210438
1.71227e-05
3.55886e-05
0.000110535
0.00011217
1.96817e-05
3.45822e-07
5.40544e-08
0.000450379
0.000612581
0.00487078
0.00833657
0.00996421
0.00494937
0.00262871
0.0034289
0.00394448
0.00504822
0.00272792
0.00123638
1.78879e-05
2.8294e-06
3.38852e-07
6.082e-07
1.18988e-06
5.4128e-08
5.43749e-08
1.43868e-07
2.09709e-07
1.01741e-18
-6.73883e-10
1.01737e-18
1.03535e-18
1.01737e-18
7.06921e-14
3.68712e-13
5.3854e-13
3.20302e-08
0.0004363
3.61738e-05
9.58683e-06
7.12872e-06
3.07773e-07
3.06509e-07
7.22941e-07
6.7815e-06
3.28322e-05
3.34792e-05
1.8768e-05
3.66873e-06
1.03535e-18
1.57e-07
1.99804e-07
1.57174e-07
2.85762e-07
2.39138e-07
1.1832e-05
6.59043e-05
0.000195893
6.88096e-05
6.33498e-06
8.30962e-06
8.56727e-07
3.98963e-07
1.88585e-05
5.80469e-06
1.18047e-05
8.61885e-06
1.14624e-06
1.46596e-07
4.54046e-08
4.59916e-08
5.15783e-07
4.02174e-06
5.43193e-06
1.24518e-06
5.66169e-07
1.62601e-06
6.70027e-06
2.16668e-06
6.84693e-07
3.42635e-07
3.42702e-07
1.85623e-05
1.45064e-06
1.57403e-06
1.59188e-06
4.48036e-07
1.76922e-07
4.59917e-08
7.32225e-07
3.56313e-06
7.95114e-06
7.94989e-06
6.30206e-06
2.2041e-06
5.41718e-06
7.69182e-06
7.70279e-06
1.38661e-06
4.16612e-08
3.65238e-06
1.86678e-05
5.71209e-07
6.53737e-07
8.3197e-07
2.48832e-06
1.94105e-06
6.56299e-07
4.45208e-06
5.36456e-06
4.81941e-06
6.29543e-06
6.61278e-06
5.27928e-06
2.58821e-06
9.11128e-08
4.78291e-08
4.15885e-08
4.13811e-08
1.40263e-05
1.74586e-05
6.61886e-06
4.8795e-06
2.03754e-06
3.77169e-06
4.06969e-06
1.65657e-06
1.09679e-06
1.09439e-06
1.18751e-07
6.09236e-08
9.23695e-08
1.12252e-06
7.94096e-06
7.04127e-06
3.96577e-07
1.01405e-06
5.56816e-06
1.6905e-05
1.70249e-05
3.21098e-05
4.01318e-05
2.8209e-05
1.88238e-05
1.49654e-05
4.67168e-06
3.23799e-06
3.03365e-07
6.09236e-08
6.07589e-08
6.09236e-08
5.59013e-06
1.48122e-05
2.37938e-05
1.21088e-05
1.15149e-05
1.82436e-05
1.6355e-05
1.8998e-06
1.95369e-05
4.28722e-05
4.28722e-05
4.28722e-05
3.97329e-05
3.32405e-05
1.91043e-05
2.69064e-06
1.02395e-06
2.42039e-07
6.07589e-08
3.80929e-06
2.92859e-05
4.02258e-05
4.02252e-05
3.72431e-05
1.62411e-05
1.23345e-06
6.46598e-07
3.86261e-06
2.2187e-05
4.28722e-05
4.28722e-05
4.21843e-05
3.51014e-05
1.88915e-05
6.07553e-06
3.65532e-06
1.60679e-06
1.01417e-06
3.99526e-06
8.97373e-06
1.26845e-05
1.15805e-05
3.00684e-06
2.36221e-07
9.37511e-08
3.61933e-07
9.55069e-07
5.65561e-08
1.47185e-05
4.21801e-05
3.14287e-05
2.02159e-06
1.45375e-06
8.71501e-06
8.80057e-06
4.07924e-06
2.56699e-06
3.71606e-06
2.95268e-06
2.97317e-06
4.9047e-07
1.1911e-07
1.19516e-07
9.37337e-08
3.01983e-07
3.22769e-07
5.73371e-08
3.85322e-09
3.52583e-06
1.51056e-07
1.17271e-06
1.05208e-06
8.38083e-10
2.21952e-07
1.45485e-06
6.87264e-07
1.38902e-06
2.94514e-06
2.11037e-06
1.79088e-07
2.77796e-07
3.44476e-07
1.49681e-07
7.89385e-08
1.2287e-08
1.23721e-08
4.03544e-09
5.67939e-10
6.21224e-10
5.67939e-10
1.18683e-09
8.44474e-10
6.24939e-10
6.25415e-10
6.29809e-10
6.30304e-10
4.77726e-08
2.46786e-09
1.79251e-07
3.74657e-07
4.29542e-07
2.82415e-07
7.83351e-08
7.95758e-08
5.73732e-08
2.64448e-08
7.96975e-09
7.17875e-09
5.72429e-09
3.44743e-09
2.27877e-09
1.58113e-09
1.20226e-09
1.18759e-09
5.6388e-09
2.46794e-09
2.46188e-09
2.45595e-09
1.27572e-07
4.29559e-07
2.94085e-07
7.83347e-08
6.49037e-08
5.69051e-08
2.48694e-08
1.16172e-08
8.85316e-09
6.77837e-09
4.75681e-09
3.35978e-09
2.21494e-09
2.16728e-09
2.23203e-09
3.08935e-09
3.77626e-09
3.35143e-09
2.45013e-09
2.44556e-09
2.63105e-07
2.61239e-07
8.37815e-08
2.29888e-08
1.49744e-08
5.87213e-09
4.19944e-09
4.1054e-09
3.31937e-09
2.3715e-09
1.8544e-09
1.80833e-09
2.2643e-09
3.09838e-09
4.20639e-09
5.64103e-09
7.01003e-09
5.4474e-09
2.43802e-09
6.33049e-08
1.95698e-07
9.25472e-08
2.04441e-09
1.59362e-09
1.82968e-09
1.70559e-09
1.4461e-09
1.12314e-09
9.40117e-10
9.67622e-10
1.23538e-09
1.77389e-09
2.82459e-09
4.61482e-09
7.3465e-09
9.73871e-09
9.0197e-09
4.62014e-09
1.52721e-08
1.60905e-07
1.16927e-07
5.73453e-10
5.62632e-10
5.2862e-10
4.57219e-10
3.86227e-10
3.79128e-10
4.21956e-10
5.67929e-10
8.55883e-10
1.38676e-09
2.2718e-09
3.93539e-09
6.61069e-09
9.38885e-09
7.37739e-09
1.38437e-08
5.65889e-08
1.97773e-07
2.02377e-07
1.44058e-10
1.41283e-10
1.30993e-10
1.24874e-10
1.29529e-10
1.6442e-10
2.29285e-10
3.73858e-10
6.82773e-10
1.24075e-09
2.15487e-09
3.54672e-09
5.64154e-09
7.08848e-09
6.5328e-09
3.56989e-08
1.36763e-07
2.02475e-07
2.02469e-07
3.11339e-11
3.23399e-11
3.49172e-11
4.0053e-11
4.87982e-11
5.33463e-11
7.67315e-11
1.63289e-10
4.29024e-10
1.10636e-09
2.37171e-09
4.20009e-09
5.52508e-09
5.72321e-09
6.15733e-09
6.88156e-08
1.54936e-07
1.32136e-07
2.02469e-07
7.81788e-12
8.55032e-12
9.38575e-12
9.58751e-12
7.41638e-12
9.17179e-12
2.01606e-11
6.51519e-11
2.41608e-10
7.94239e-10
2.56796e-09
5.55703e-09
8.4525e-09
7.76294e-09
6.65389e-09
5.44214e-08
1.54811e-07
1.11829e-07
2.02467e-07
1.85903e-12
2.1027e-12
2.18022e-12
1.31993e-12
1.32723e-12
2.43703e-12
7.62926e-12
2.91582e-11
1.1805e-10
3.51156e-10
2.50939e-09
7.12392e-09
1.26041e-08
1.23122e-08
1.0759e-08
2.20029e-08
6.23289e-08
3.89633e-08
1.57399e-07
4.14668e-13
4.51191e-13
4.40582e-13
2.81793e-13
4.16925e-13
1.15449e-12
3.85948e-12
1.40802e-11
5.3931e-11
1.7835e-10
2.68951e-09
9.67011e-09
2.22684e-08
2.56193e-08
1.12794e-08
4.28515e-09
4.27487e-09
2.13671e-08
6.34535e-08
8.6534e-14
8.2465e-14
8.68664e-14
1.22171e-13
2.29823e-13
7.34422e-13
2.37996e-12
8.52686e-12
3.47042e-11
1.65118e-10
2.89584e-09
1.26489e-08
2.97475e-08
4.13713e-08
1.19321e-08
4.36389e-09
4.50698e-09
2.04593e-08
9.85632e-08
1.82602e-14
1.89049e-14
2.65543e-14
6.02506e-14
1.78461e-13
5.27772e-13
1.73416e-12
6.44088e-12
3.00698e-11
1.83238e-10
2.47691e-09
1.23549e-08
3.00592e-08
4.65973e-08
3.74729e-08
4.37272e-09
4.37307e-09
2.19136e-08
1.15212e-07
4.27941e-15
5.67937e-15
1.20704e-14
3.68929e-14
1.25884e-13
4.49818e-13
1.49237e-12
5.23885e-12
2.20724e-11
1.02692e-10
4.90356e-10
4.23848e-09
2.14813e-08
4.42479e-08
4.82655e-08
1.43004e-08
4.37973e-09
1.59845e-08
1.1524e-07
1.32736e-15
2.1671e-15
6.14815e-15
2.21307e-14
8.54587e-14
3.23012e-13
1.11614e-12
3.52018e-12
1.17898e-11
4.20555e-11
1.42984e-10
9.83525e-10
6.718e-09
2.58681e-08
4.82694e-08
4.75598e-08
1.59422e-08
2.03726e-08
6.96266e-08
3.65581e-16
7.52826e-16
2.58609e-15
1.05854e-14
4.52552e-14
1.84062e-13
6.95206e-13
2.33507e-12
8.15209e-12
3.65556e-11
1.79838e-10
6.71849e-10
1.39838e-09
1.06449e-08
3.47295e-08
4.84971e-08
4.37653e-08
5.7375e-08
8.47125e-08
9.88106e-17
2.1089e-16
7.80675e-16
3.62459e-15
1.75589e-14
8.2301e-14
3.51027e-13
1.3029e-12
4.46928e-12
1.76243e-11
8.20977e-11
4.46771e-10
1.27065e-09
1.99504e-09
1.02272e-08
3.73058e-08
4.63718e-08
1.53831e-07
1.72975e-07
1.86427e-17
3.85933e-17
1.45886e-16
7.5844e-16
4.31665e-15
2.40816e-14
1.23007e-13
5.45088e-13
2.09426e-12
7.18432e-12
2.9346e-11
1.42645e-10
7.83998e-10
1.68926e-09
2.79226e-09
6.71429e-09
4.65266e-08
1.2186e-07
3.6932e-07
3.1389e-18
4.31887e-18
1.42752e-17
8.01088e-17
5.86024e-16
4.62132e-15
3.04553e-14
1.69191e-13
7.72567e-13
2.98404e-12
1.04436e-11
4.19233e-11
2.11214e-10
1.15916e-09
2.36441e-09
1.58312e-09
2.2195e-08
9.26779e-08
3.69199e-07
4.07603e-19
4.0221e-19
9.01137e-19
4.67377e-18
3.97414e-17
3.92549e-16
3.75783e-15
2.97587e-14
1.87785e-13
9.38617e-13
3.72852e-12
1.21961e-11
4.69538e-11
2.43003e-10
1.08842e-09
1.57107e-09
4.18268e-09
6.42669e-08
3.6799e-07
4.3485e-20
3.21341e-20
3.72528e-20
1.19843e-19
9.46899e-19
1.1241e-17
1.52944e-16
1.76747e-15
1.57732e-14
1.08761e-13
5.63271e-13
2.0989e-12
6.43448e-12
1.78864e-11
5.5293e-11
5.7213e-10
7.42627e-10
1.62271e-08
2.56095e-07
)
;

boundaryField
{
    leftWall
    {
        type            zeroGradient;
    }
    rightWall
    {
        type            zeroGradient;
    }
    lowerWall
    {
        type            zeroGradient;
    }
    atmosphere
    {
        type            inletOutlet;
        inletValue      uniform 0;
        value           nonuniform List<scalar> 
46
(
2.57288e-08
2.95199e-08
1.58275e-08
1.18761e-08
3.01684e-09
4.30924e-10
9.53815e-11
1.58283e-11
9.74225e-13
3.68667e-14
1.53456e-15
1.15818e-15
1.10211e-15
7.58068e-16
3.68466e-16
1.3565e-16
6.1431e-17
9.79042e-17
2.73497e-16
5.44519e-16
3.43289e-16
5.14607e-17
0
0
0
0
0
0
0
0
0
0
0
0
0
0
0
0
0
0
0
0
0
7.42627e-10
1.62271e-08
2.56095e-07
)
;
    }
    defaultFaces
    {
        type            empty;
    }
}


// ************************************************************************* //
