/*--------------------------------*- C++ -*----------------------------------*\
| =========                 |                                                 |
| \\      /  F ield         | OpenFOAM: The Open Source CFD Toolbox           |
|  \\    /   O peration     | Version:  2312                                  |
|   \\  /    A nd           | Website:  www.openfoam.com                      |
|    \\/     M anipulation  |                                                 |
\*---------------------------------------------------------------------------*/
FoamFile
{
    version     2.0;
    format      ascii;
    arch        "LSB;label=32;scalar=64";
    class       volScalarField;
    location    "5.8";
    object      alpha.galistan;
}
// * * * * * * * * * * * * * * * * * * * * * * * * * * * * * * * * * * * * * //

dimensions      [0 0 0 0 0 0 0];

internalField   nonuniform List<scalar> 
2268
(
1
1
1
1
1
1
1
1
1
1
1
1
1
1
1
1
1
1
1
1
0.999972
0.999958
0.999958
1
1
1
1
1
1
1
1
1
1
1
1
1
1
1
1
1
1
1
1
0.999991
0.999963
0.999975
1
1
1
1
1
1
1
1
1
1
1
1
1
1
1
1
1
1
1
1
1
0.999996
1
1
1
1
1
1
1
1
1
0.999999
0.999999
1
1
1
1
1
0.999999
1
1
1
1
1
1
1
0.974561
0.976205
0.978671
0.981396
0.984426
0.987656
0.991082
0.994511
0.99776
0.999908
0.999878
0.999839
0.999752
0.999823
0.999925
0.999966
0.999994
1
1
1
1
1
1
0.338135
0.345337
0.358394
0.374805
0.392932
0.412135
0.433703
0.462286
0.504194
0.565019
0.645577
0.722168
0.802418
0.879666
0.943678
0.985828
0.996742
0.995548
0.991001
0.995088
0.99973
0.999828
0.99963
6.6791e-18
-3.2659e-10
-8.4673e-10
2.09945e-11
-1.83696e-08
-8.99306e-09
-1.06986e-09
-8.19287e-27
0.000101565
0.000869232
0.00650469
0.0387663
0.0882092
0.160457
0.263774
0.399107
0.546989
0.693226
0.817671
0.895975
0.921738
0.935118
0.952148
1.93915e-08
2.30064e-07
1.87696e-05
5.46978e-05
1.5646e-09
6.37996e-17
-5.59809e-13
6.22223e-07
-8.92426e-24
-1.31227e-22
-1.70771e-21
-1.07377e-09
6.78446e-06
4.26149e-05
7.14577e-05
0.000721061
0.0276224
0.0860981
0.175619
0.295834
0.433087
0.529732
0.569489
0.96619
0.966216
0.965151
0.964379
0.964244
0.965156
0.965157
0.965157
0.965159
0.965009
0.964561
0.964965
0.967902
0.967902
0.967903
0.967903
0.967903
0.967902
0.967749
0.971659
0.971541
0.971572
0.9672
0.957948
0.955757
0.953924
0.951966
0.94736
0.942955
0.943578
0.945889
0.945045
0.945074
0.944182
0.939
0.919676
0.903712
0.887605
0.831934
0.835584
0.813603
0.757165
0.713403
0.672824
0.643097
0.625135
0.615295
0.60933
0.60794
0.619134
0.597227
0.569166
0.539551
0.512235
0.496258
0.481754
0.481754
0.659209
0.506868
0.302998
0.174783
0.0964017
0.0525476
0.0248025
0.0124751
0.00849357
0.00955353
0.0093491
0.0282678
0.0439323
0.0348957
0.0293382
0.0460247
0.0349901
0.0139052
0.0157929
0.0856868
0.0161616
-1.37422e-06
-9.70356e-07
4.50136e-10
-1.71997e-23
-4.06322e-16
-8.86442e-09
0.000160299
0.00032103
0.00133401
0.000138149
-1.94707e-07
2.74725e-23
1.23266e-21
-2.57027e-06
6.08418e-10
0.000224035
0.000210072
0.000115354
0.000126044
0.00386601
0.00461895
0.00191657
9.76829e-05
0.000736655
0.000915043
0.000953754
0.00240952
0.0214964
0.00505979
0.000314846
0.00365389
0.00691559
0.00114231
0.00123543
0.00174182
0.000210374
0.000239891
0.00528416
0.00612689
0.00612398
0.00472619
0.00042091
0.000564783
0.000922632
0.00140455
0.018637
0.0221587
0.00855172
0.001061
0.0009453
0.00550525
0.0082882
0.00351648
0.00234505
0.000590491
0.000283232
0.00471107
0.00320336
0.00501045
0.00501578
0.00293794
0.000394489
0.000438621
0.00206752
0.0222273
0.0221004
0.00461466
0.0011494
0.00176991
0.00297344
0.00835222
0.00307662
0.00236433
0.0016705
1.06497e-05
2.5595e-07
4.61755e-05
0.000409254
0.000755975
0.000269293
7.0999e-06
2.13146e-05
-7.19098e-34
2.56659e-24
1.23128e-06
1.87252e-05
1.69683e-05
1.33862e-05
6.28292e-24
2.10362e-22
-1.64454e-07
4.22032e-18
-7.68169e-09
3.91727e-11
1.00132e-09
2.49759e-08
3.29384e-05
0.000329205
9.30716e-05
6.20028e-05
0.00131093
0.00202998
0.00201515
0.0011153
0.000979563
0.000686397
0.000192122
0.000300951
0.000272214
5.11799e-05
0.000128032
0.000697153
0.000625968
0.000134796
3.26907e-22
3.55032e-23
0.00028207
0.000958423
0.00148236
0.000381945
0.000407768
0.000407709
0.000170782
0.000270641
0.00163354
0.00193125
0.00205984
0.00230919
0.00230954
0.00154283
0.000334986
0.000226691
0.00178229
0.00465656
0.00465974
0.00464121
0.00447286
0.00427643
0.00458896
0.00565875
0.00599968
0.00537067
0.000492808
0.000272131
0.000213875
0.000154903
0.000149638
9.02764e-05
2.91708e-05
0.000111765
0.00168935
0.00230662
0.00120839
5.11205e-05
5.12071e-05
0.00146069
0.00353616
0.00347941
0.00283951
0.00257817
0.00245146
0.00236475
0.00400674
0.00601198
0.00600091
0.00584389
8.52756e-05
7.69182e-05
4.08599e-05
7.59798e-06
7.5069e-06
7.50695e-06
8.62743e-06
0.00121775
0.00230748
0.000533272
5.10654e-05
5.17931e-05
0.000160903
0.000159584
0.000136354
9.66616e-05
0.000130832
0.000115583
0.00015673
0.000262977
0.00086739
0.00336796
0.00508553
0.000117366
9.71107e-05
4.66488e-05
9.18245e-06
7.61581e-06
7.51201e-06
7.51364e-06
0.000248503
0.00119312
0.000160932
5.5361e-05
5.80975e-05
2.39607e-05
8.79451e-06
8.2338e-06
2.60618e-05
3.59378e-05
2.56523e-05
2.55594e-05
0.000141531
0.000528929
0.000556113
0.000279088
0.000364058
0.000272655
9.33949e-05
3.75343e-05
7.93018e-06
4.65671e-05
0.000242646
0.000170427
0.000167271
0.000100945
0.000100568
8.17651e-05
8.09439e-05
1.39229e-05
6.70925e-06
6.69904e-06
6.70854e-06
2.47908e-05
2.75464e-05
2.8137e-05
0.000389151
0.00158014
0.0015249
0.00040262
0.000402622
0.000304636
0.000166854
0.00038953
0.000649396
0.000659954
0.000511669
0.000207294
0.000233199
0.000346789
0.000429291
0.00023743
5.67337e-06
1.77849e-05
0.000210199
0.000324842
0.00032601
0.000311131
0.000130068
1.77414e-05
0.000187391
0.00192032
0.000178635
0.000250954
0.000284928
0.000134148
2.61786e-05
0.00020436
0.000660191
0.000660199
0.000660904
0.000545011
0.000540409
0.000535369
0.000415996
5.74733e-06
1.74783e-05
0.000259609
0.000326059
0.000137377
2.60287e-05
8.67765e-06
2.26134e-05
0.000631682
0.000947696
3.64983e-09
3.71107e-09
5.04326e-06
1.96352e-06
7.3724e-07
3.24396e-05
0.000156234
0.000392245
0.000427583
0.000317358
0.000383501
0.000395311
0.000202813
8.78702e-06
3.2998e-06
5.44451e-05
0.000101757
3.74268e-05
8.39446e-06
4.49846e-06
7.41662e-06
6.97284e-06
3.53731e-07
3.644e-09
5.23781e-09
7.42413e-09
4.24772e-09
3.96809e-09
4.12361e-09
4.03229e-09
4.36525e-09
4.5636e-06
1.83851e-06
2.39851e-05
2.5862e-05
4.20063e-07
4.05088e-06
3.34681e-07
1.14839e-08
1.29839e-08
1.16373e-08
4.14657e-07
9.38371e-07
6.04711e-07
5.32611e-07
3.5509e-07
4.31812e-09
2.21228e-08
5.30593e-08
8.0353e-08
8.46213e-08
8.60991e-08
5.99577e-08
1.99345e-08
1.24196e-08
1.20399e-08
1.22793e-08
1.14889e-08
1.40567e-08
3.00254e-08
5.06668e-09
2.18371e-08
1.21041e-08
1.27071e-08
1.26952e-08
1.32125e-08
2.19604e-06
3.637e-06
3.25309e-06
7.2703e-09
3.48005e-08
9.53275e-08
9.66979e-08
9.66675e-08
5.29873e-08
3.15851e-08
8.65849e-09
1.31076e-08
2.71799e-08
3.35964e-08
3.26186e-08
2.94102e-08
7.65758e-09
5.06527e-09
2.98789e-08
6.64903e-08
3.77605e-08
1.32153e-08
1.37416e-07
3.91583e-06
5.26319e-06
5.2608e-06
4.97942e-09
1.74e-08
5.94178e-08
6.25137e-08
3.86216e-08
3.60285e-08
1.84475e-08
5.28385e-09
6.13357e-09
1.36363e-08
2.86608e-08
1.92329e-08
1.37569e-08
5.14072e-09
5.39757e-09
1.15633e-08
7.25134e-08
3.82859e-08
1.80007e-06
2.12044e-06
9.84759e-07
1.98191e-07
1.47288e-07
3.04693e-09
1.38986e-08
3.51388e-08
3.66198e-08
1.88013e-08
1.64805e-08
1.08424e-08
3.98337e-09
2.8592e-09
4.7449e-09
9.28715e-09
7.55985e-09
4.84779e-09
4.07707e-09
4.94021e-09
2.40061e-09
7.77829e-08
5.35182e-07
7.72083e-07
1.63754e-07
5.57342e-08
6.11284e-08
3.01674e-08
2.23713e-09
7.34443e-09
1.20678e-08
1.20958e-08
8.94927e-09
7.01585e-09
5.46816e-09
3.17368e-09
2.20953e-09
2.3888e-09
3.27866e-09
3.18102e-09
2.70809e-09
2.82324e-09
2.99963e-09
2.36832e-09
1.26703e-07
5.45232e-07
1.28634e-07
3.27833e-08
2.6511e-07
7.11166e-07
5.2221e-08
1.47549e-09
2.947e-09
3.89907e-09
4.10518e-09
4.15962e-09
3.81085e-09
2.99103e-09
2.35836e-09
1.8705e-09
1.72122e-09
1.71604e-09
1.7412e-09
1.73866e-09
1.74407e-09
1.61775e-09
2.40658e-09
9.0533e-08
1.12044e-07
2.79695e-08
7.31159e-09
1.32667e-06
1.97921e-06
6.60209e-08
1.0246e-09
1.59884e-09
1.99029e-09
2.35712e-09
2.46292e-09
2.27528e-09
1.952e-09
1.60683e-09
1.34183e-09
1.16829e-09
1.05811e-09
1.08138e-09
1.13525e-09
1.25138e-09
1.45206e-09
3.46775e-09
1.23577e-08
3.11485e-09
6.98224e-09
7.14658e-09
1.18698e-06
1.98237e-06
9.97585e-07
8.17787e-10
1.08598e-09
1.33155e-09
1.51192e-09
1.50886e-09
1.36713e-09
1.13308e-09
9.50604e-10
8.38884e-10
7.70031e-10
7.16333e-10
7.26598e-10
7.94127e-10
9.25901e-10
1.12579e-09
2.14013e-09
5.04346e-09
3.10838e-09
6.86857e-09
9.79911e-09
9.10053e-08
1.57059e-06
1.22308e-06
6.9259e-10
7.68481e-10
9.12066e-10
9.63028e-10
8.9297e-10
7.69273e-10
6.64977e-10
5.62931e-10
4.93797e-10
4.45776e-10
4.1133e-10
4.07288e-10
4.50532e-10
5.45698e-10
6.93708e-10
1.08334e-09
2.22558e-09
2.16611e-09
5.22302e-09
1.96513e-08
9.6139e-08
2.13167e-07
8.19836e-08
6.11249e-10
5.55102e-10
6.04882e-10
5.9362e-10
5.26282e-10
4.39423e-10
3.582e-10
2.99395e-10
2.56637e-10
2.25924e-10
2.04477e-10
1.96132e-10
2.16615e-10
2.69779e-10
3.60904e-10
5.38459e-10
9.63878e-10
1.34387e-09
2.62145e-09
2.47323e-08
1.0283e-07
1.07214e-07
5.68092e-08
5.50021e-10
4.0186e-10
4.03804e-10
3.67775e-10
3.07412e-10
2.42229e-10
1.86465e-10
1.47991e-10
1.20225e-10
1.00447e-10
8.76377e-11
8.2797e-11
9.20076e-11
1.17781e-10
1.66397e-10
2.57089e-10
4.47599e-10
8.24854e-10
1.8848e-09
1.23718e-08
3.6736e-08
1.01314e-07
1.04477e-07
4.93432e-10
2.93292e-10
2.76103e-10
2.40673e-10
1.95594e-10
1.49264e-10
1.08764e-10
7.86608e-11
5.71242e-11
4.30453e-11
3.49511e-11
3.16857e-11
3.47475e-11
4.52873e-11
6.76473e-11
1.11729e-10
2.0451e-10
3.90742e-10
8.50467e-10
2.48002e-09
1.22186e-08
3.88634e-08
1.00831e-07
4.50725e-10
2.22233e-10
2.06305e-10
1.85067e-10
1.53972e-10
1.18065e-10
8.34003e-11
5.62284e-11
3.64519e-11
2.41144e-11
1.62664e-11
1.25212e-11
1.21921e-11
1.54447e-11
2.40822e-11
4.39127e-11
8.93575e-11
1.80154e-10
3.42562e-10
7.19962e-10
1.00497e-09
1.061e-08
2.65677e-08
4.12676e-10
1.77537e-10
1.78156e-10
1.80743e-10
1.66414e-10
1.30586e-10
8.92318e-11
5.66674e-11
3.41199e-11
1.9822e-11
1.16213e-11
7.00515e-12
4.9823e-12
5.10273e-12
7.65621e-12
1.4953e-11
3.34703e-11
7.47815e-11
1.51786e-10
2.83924e-10
5.10807e-10
5.99179e-10
5.20371e-09
3.86166e-10
1.54701e-10
1.80588e-10
2.11174e-10
2.12027e-10
1.51453e-10
9.84839e-11
6.03509e-11
3.61379e-11
2.06914e-11
1.14201e-11
6.06946e-12
3.24278e-12
2.1451e-12
2.37775e-12
4.33479e-12
9.84763e-12
2.31188e-11
5.07157e-11
1.1407e-10
2.3067e-10
6.70667e-10
1.37563e-09
3.63284e-10
1.51694e-10
2.09221e-10
2.67723e-10
2.84362e-10
1.78634e-10
1.06096e-10
6.08713e-11
3.71492e-11
2.10255e-11
1.15967e-11
6.09545e-12
3.01806e-12
1.48137e-12
9.56321e-13
1.19145e-12
2.40255e-12
5.51778e-12
1.24825e-11
2.86698e-11
6.79487e-11
1.50022e-10
3.23382e-10
3.48831e-10
1.64611e-10
2.66437e-10
3.7238e-10
4.00961e-10
2.15149e-10
1.07707e-10
5.74422e-11
3.53042e-11
1.98855e-11
1.10595e-11
5.92114e-12
2.98876e-12
1.3924e-12
6.43832e-13
4.23548e-13
5.68232e-13
1.12215e-12
2.31152e-12
5.20657e-12
1.13656e-11
2.72479e-11
5.30553e-11
3.31694e-10
1.97673e-10
3.71529e-10
5.59953e-10
5.14379e-10
2.54352e-10
1.03149e-10
5.45004e-11
3.14266e-11
1.72149e-11
9.66958e-12
5.34247e-12
2.79293e-12
1.3359e-12
5.86502e-13
2.60647e-13
1.8059e-13
2.44549e-13
4.30476e-13
8.31157e-13
1.59881e-12
2.97685e-12
6.57838e-12
3.31585e-10
2.48853e-10
5.25251e-10
7.44737e-10
5.48315e-10
2.61652e-10
1.00308e-10
5.52854e-11
2.71951e-11
1.39109e-11
7.73747e-12
4.37868e-12
2.39813e-12
1.21127e-12
5.49643e-13
2.23657e-13
9.91377e-14
7.54525e-14
1.13511e-13
1.95088e-13
3.1774e-13
5.93578e-13
1.04972e-12
3.40344e-10
3.26959e-10
7.00813e-10
8.71943e-10
5.6374e-10
2.48719e-10
1.10335e-10
5.74377e-11
2.35816e-11
1.06754e-11
5.68114e-12
3.29003e-12
1.88343e-12
1.00551e-12
4.8604e-13
2.02791e-13
7.77832e-14
3.86615e-14
4.52135e-14
7.9137e-14
1.469e-13
2.70623e-13
4.82315e-13
3.53964e-10
4.12049e-10
8.6034e-10
9.40522e-10
5.81722e-10
2.54108e-10
1.36844e-10
5.95338e-11
2.10676e-11
8.00454e-12
3.96348e-12
2.26613e-12
1.33052e-12
7.55283e-13
3.94176e-13
1.76575e-13
6.88868e-14
2.62112e-14
2.26373e-14
3.99683e-14
8.36871e-14
1.77614e-13
3.2272e-13
3.76354e-10
4.98297e-10
9.73604e-10
9.79288e-10
5.99511e-10
2.8617e-10
1.63917e-10
6.37431e-11
1.9941e-11
6.05478e-12
2.65811e-12
1.49679e-12
8.76651e-13
5.06227e-13
2.83296e-13
1.42098e-13
5.96399e-14
2.08374e-14
1.21417e-14
2.15472e-14
4.60054e-14
1.08568e-13
2.20787e-13
3.93904e-10
5.80906e-10
1.06027e-09
9.84449e-10
5.85654e-10
3.31919e-10
1.89421e-10
7.15765e-11
1.9864e-11
4.69579e-12
1.72535e-12
9.0415e-13
5.23252e-13
3.0437e-13
1.81483e-13
1.00173e-13
4.72084e-14
1.78583e-14
7.1127e-15
1.06772e-14
2.60424e-14
6.76873e-14
1.31925e-13
4.20033e-10
6.52706e-10
1.13183e-09
9.74793e-10
5.79668e-10
3.77122e-10
2.19646e-10
7.84912e-11
1.98628e-11
3.78802e-12
1.10449e-12
5.46465e-13
2.90999e-13
1.66986e-13
1.00691e-13
6.12363e-14
3.30473e-14
1.40509e-14
4.86789e-15
5.08504e-15
1.05982e-14
2.88182e-14
6.73511e-14
4.37853e-10
7.1464e-10
1.15326e-09
9.70075e-10
6.08484e-10
4.19911e-10
2.35443e-10
8.01347e-11
1.82836e-11
3.14369e-12
6.92539e-13
3.09281e-13
1.59962e-13
8.42149e-14
4.84514e-14
3.13753e-14
1.96526e-14
1.00552e-14
3.31752e-15
2.39658e-15
5.23497e-15
1.32115e-14
3.01172e-14
4.545e-10
7.36723e-10
1.15333e-09
9.61205e-10
6.25269e-10
4.56833e-10
2.19467e-10
6.58612e-11
1.53125e-11
2.46423e-12
4.06975e-13
1.615e-13
8.28133e-14
3.96944e-14
2.05563e-14
1.30978e-14
9.31693e-15
5.92775e-15
2.19823e-15
9.42505e-16
1.39997e-15
3.67786e-15
1.08894e-14
4.7455e-10
7.31027e-10
1.13495e-09
9.44967e-10
6.20115e-10
4.72187e-10
1.92357e-10
5.47446e-11
1.20436e-11
1.71076e-12
2.13856e-13
7.94978e-14
3.98942e-14
1.78486e-14
7.92786e-15
4.43995e-15
3.35834e-15
2.58074e-15
1.25853e-15
4.45834e-16
4.65774e-16
1.10757e-15
2.55103e-15
4.959e-10
7.11158e-10
1.11095e-09
9.23649e-10
6.25277e-10
4.03519e-10
1.48464e-10
3.92526e-11
7.46055e-12
9.18856e-13
9.41042e-14
3.20644e-14
1.67746e-14
7.33368e-15
2.82503e-15
1.25508e-15
8.89657e-16
8.03383e-16
5.6368e-16
2.17853e-16
1.15828e-16
1.84952e-16
5.17377e-16
5.22186e-10
6.64814e-10
1.07688e-09
7.75733e-10
5.77931e-10
2.69306e-10
8.37241e-11
2.17429e-11
3.0016e-12
3.19728e-13
2.8373e-14
9.75942e-15
5.5282e-15
2.50281e-15
9.01556e-16
3.08711e-16
1.64463e-16
1.65113e-16
1.78753e-16
1.01878e-16
3.55129e-17
4.34961e-17
8.52776e-17
5.39379e-10
5.66906e-10
9.88859e-10
6.25493e-10
3.70339e-10
1.11309e-10
3.51566e-11
8.31762e-12
9.00663e-13
6.77986e-14
5.11484e-15
1.96693e-15
1.26921e-15
6.21976e-16
2.24134e-16
6.38304e-17
2.28849e-17
2.32484e-17
3.65427e-17
3.93552e-17
1.30577e-17
8.06599e-18
1.38975e-17
6.30686e-10
4.95948e-10
7.73363e-10
4.33561e-10
8.34791e-11
1.99434e-11
6.35431e-12
1.27941e-12
9.38542e-14
3.93149e-15
3.32087e-16
1.95018e-16
1.50731e-16
8.34883e-17
3.17237e-17
8.4438e-18
2.24033e-18
2.26623e-18
5.66308e-18
1.04203e-17
5.54428e-18
2.10307e-18
2.03072e-18
0.000717175
0.00101257
0.00267121
0.00266415
0.000174947
0.00039437
0.00072451
0.000871692
0.000178583
0.000508793
0.0010241
0.00199828
0.0037982
0.00629969
0.0104027
0.0104055
0.00151751
0.000672651
0.00285656
0.00681144
0.000243394
0.000229144
0.000217243
0.000120863
0.000486117
0.00023268
0.000291862
0.00028527
0.00222536
0.00222545
0.00198534
0.000360714
0.000597875
0.000912944
0.00137953
0.0013758
3.53808e-07
3.53888e-07
6.003e-05
0.000404875
3.53888e-07
3.54047e-07
9.53818e-07
6.76972e-07
2.53852e-06
2.8258e-06
3.4468e-06
3.53339e-06
5.25794e-06
3.36538e-06
2.92162e-07
2.35931e-07
4.40118e-08
2.95503e-08
2.95509e-08
2.95512e-08
2.95499e-08
2.95507e-08
2.95504e-08
2.9551e-08
2.95501e-08
2.98745e-08
2.96876e-08
2.96189e-08
2.95495e-08
6.50098e-07
1.61094e-06
9.55827e-07
5.93641e-08
1.75581e-06
3.0159e-06
3.09495e-06
2.30217e-07
9.09977e-07
2.5158e-06
3.18711e-06
2.82569e-08
4.93264e-07
2.95098e-07
2.80435e-07
2.84928e-08
1.90563e-09
1.8637e-09
1.9002e-09
1.04499e-07
1.01279e-07
5.86637e-08
3.11785e-08
1.04477e-07
1.02164e-07
9.58074e-08
4.37047e-08
2.91857e-08
7.58488e-08
6.07519e-08
5.31198e-08
8.47587e-09
1.19761e-08
2.0473e-08
1.826e-08
1.99337e-09
3.18104e-09
2.73259e-09
2.15737e-09
3.97105e-10
4.22776e-10
4.6509e-10
3.91731e-10
7.88538e-11
8.48899e-11
7.15948e-11
5.099e-11
8.96398e-12
9.34903e-12
9.19932e-12
7.79063e-12
1.45504e-12
1.80675e-12
1.93552e-12
2.20125e-12
7.02455e-13
8.64685e-13
1.10672e-12
1.34482e-12
4.7199e-13
6.38783e-13
8.28566e-13
1.08566e-12
3.33528e-13
4.62693e-13
6.57249e-13
8.80634e-13
2.32371e-13
3.17253e-13
4.53061e-13
6.38586e-13
1.16613e-13
1.73634e-13
2.70287e-13
3.98404e-13
5.76046e-14
8.50101e-14
1.40494e-13
2.09122e-13
1.92013e-14
3.39053e-14
5.45333e-14
9.13712e-14
5.60793e-15
8.24698e-15
1.50532e-14
2.64741e-14
9.32161e-16
1.59278e-15
2.75445e-15
5.0879e-15
1.48256e-16
2.00801e-16
3.33381e-16
6.05467e-16
1.80823e-17
2.03472e-17
2.96599e-17
4.58383e-17
2.13936e-18
1.69286e-18
2.29227e-18
2.55508e-18
0.00238435
0.000961815
0.000951838
0.00229125
0.00411396
0.00147365
0.000399863
0.00146001
0.0113849
0.0221719
0.00702904
7.52784e-05
8.59264e-05
0.000343336
0.000920877
0.00270222
0.00286128
0.00146836
0.00125646
0.00101204
0.00105882
0.00304024
0.00296171
0.000679418
0.00131513
0.00843706
0.0193101
0.0230128
0.017129
7.55807e-05
7.6214e-05
7.58157e-05
0.00012419
0.000400858
0.00331975
0.00673661
0.00348572
0.00113674
0.0062062
0.0104018
0.00928263
0.00206828
0.00130203
0.00970325
0.0230012
0.0229987
0.0230121
0.0177866
0.000877695
0.000370558
7.64866e-05
0.000982071
0.00547721
0.00673701
0.00673701
0.00591549
0.00116875
0.0104085
0.0104157
0.0104144
0.0104131
0.00737527
0.00496577
0.00794949
0.0121683
0.0114701
0.00478009
0.00261228
0.00236947
0.000309529
0.00185042
0.00597202
0.006737
0.00630319
0.00471519
0.00411668
0.00781529
0.00580535
0.0042882
0.0039591
0.00341077
0.000703848
7.78875e-05
0.000573116
0.000700128
0.000590017
0.000421805
0.000412217
0.000926098
0.00174002
0.00118832
0.0020719
0.0022586
0.00210427
0.00210321
6.67657e-05
6.48005e-05
6.51059e-05
6.47408e-05
6.54941e-05
0.000150939
7.78052e-05
0.000383637
0.000862568
0.000848759
0.000651096
0.000416592
0.000630769
0.000660209
0.000824269
0.000964169
0.00150194
0.00303355
0.00511968
0.000125919
6.5616e-05
0.000133024
0.000164741
0.000109945
7.8945e-05
7.91353e-05
0.000140751
0.000507065
0.00096045
0.00126989
0.000670468
0.000626306
0.00139383
0.00318404
0.00483425
0.00652005
0.00680106
0.0068
0.000353494
0.000548953
0.000930906
0.00135587
0.00115857
0.000506663
0.000311469
0.000113619
0.000245165
0.001691
0.00201566
0.00201386
0.00152437
0.00396226
0.00486576
0.00487452
0.00362728
0.00266985
0.00339781
0.00136695
0.00136497
0.00136487
0.00136487
0.00136477
0.00124399
0.00051986
0.000111883
0.00025574
0.000832386
0.00138671
0.00166242
0.00162513
0.000996272
0.000680028
0.000312468
1.65323e-05
5.43505e-07
2.45846e-07
0.000627884
0.00098392
0.00102624
0.000778143
0.000373254
5.94553e-05
3.01231e-05
4.51342e-05
3.95495e-12
3.83304e-12
3.83793e-12
-1.6778e-24
-4.50598e-08
4.22857e-06
3.14199e-08
2.08651e-08
5.02486e-09
6.23274e-09
6.94968e-09
2.95376e-08
3.79701e-08
2.03455e-25
-3.43172e-10
-4.19122e-13
-2.23924e-27
1.93758e-09
8.79316e-10
1.99595e-10
2.22864e-11
2.00864e-09
1.15247e-06
1.86118e-05
1.01932e-06
3.14163e-08
1.72623e-07
2.57921e-07
1.26534e-07
1.15235e-06
3.49492e-06
3.1165e-06
3.43273e-07
5.63603e-08
-1.29756e-26
1.68282e-10
1.44253e-08
8.02375e-09
5.70809e-09
1.65732e-11
3.3326e-10
2.60476e-09
3.06153e-08
3.05019e-08
4.75527e-07
2.37312e-06
9.30085e-07
1.32835e-07
2.44614e-06
1.3485e-06
8.2493e-07
4.10413e-07
7.87313e-10
8.20229e-10
1.73262e-10
8.30303e-09
2.96563e-08
3.31382e-08
1.45055e-08
8.1929e-09
3.91504e-09
9.51039e-08
8.21631e-08
1.71096e-06
2.42374e-06
1.87562e-06
2.72613e-07
2.44913e-06
2.95517e-08
5.54487e-08
4.06047e-08
4.14253e-09
1.78067e-09
7.40955e-09
8.04817e-08
8.90292e-08
5.69422e-08
5.99565e-08
8.35606e-08
1.07787e-08
1.04956e-08
1.83085e-06
2.42255e-06
2.42489e-06
1.64631e-06
2.72887e-07
2.2634e-06
3.97942e-08
7.48446e-08
6.41269e-08
2.64617e-08
1.85828e-07
5.16954e-07
6.42718e-07
3.52464e-07
4.34185e-08
5.67114e-08
9.44719e-08
7.01013e-08
1.36366e-07
2.42482e-06
2.42506e-06
1.92211e-06
2.83394e-07
1.14569e-06
2.4446e-06
2.9602e-08
6.30315e-08
4.15491e-07
8.14911e-07
1.58023e-06
1.584e-06
1.41487e-06
1.02757e-06
4.49953e-08
1.86275e-08
4.52188e-08
1.6225e-07
7.04085e-07
1.44247e-06
1.33245e-06
7.55537e-07
2.78219e-07
2.61446e-06
2.62622e-06
3.60346e-07
1.42817e-07
1.05598e-06
1.53701e-06
1.58438e-06
1.58444e-06
1.58408e-06
1.09717e-06
1.01081e-07
1.97154e-08
4.58955e-08
2.59913e-07
6.78928e-08
2.40268e-07
6.84071e-07
6.86747e-07
1.80181e-06
2.03587e-06
1.75267e-06
2.55806e-06
1.80209e-06
6.37961e-07
7.86536e-07
1.57532e-06
1.58444e-06
1.58444e-06
1.58425e-06
5.34239e-07
1.66725e-07
1.81241e-08
1.75753e-08
2.32373e-08
9.26572e-07
1.85743e-06
1.85613e-06
9.63584e-07
3.16504e-07
5.55665e-07
3.18668e-06
2.62466e-06
7.14516e-07
4.00068e-07
3.56593e-07
1.3487e-06
1.57981e-06
8.13395e-07
6.50731e-07
6.92889e-07
6.32218e-07
5.22413e-07
2.79188e-07
5.94454e-07
1.29548e-06
3.33715e-07
4.80695e-08
4.80973e-08
6.9216e-08
1.40119e-06
2.26604e-06
1.53424e-06
1.16715e-07
1.16999e-07
6.39201e-07
9.07744e-07
1.19402e-07
1.90531e-07
7.10159e-07
1.20344e-06
1.20482e-06
1.20485e-06
1.20448e-06
4.18095e-07
5.30733e-08
5.76674e-08
1.84307e-07
2.79183e-07
1.86238e-09
4.42788e-07
6.04747e-07
1.77398e-07
1.16796e-07
4.21214e-07
5.51559e-07
1.17683e-07
2.5982e-08
7.54465e-09
4.0223e-07
9.65536e-07
1.09747e-06
9.63712e-07
8.52817e-08
5.55999e-08
5.68782e-08
7.63784e-07
1.10057e-06
9.4293e-09
1.02096e-09
1.01378e-09
4.7289e-08
1.47442e-07
5.10272e-08
5.50842e-09
5.82987e-09
2.28079e-08
7.49175e-09
8.82286e-10
8.90168e-10
2.44867e-07
8.85997e-10
5.36871e-08
3.01173e-08
1.11084e-08
6.10076e-07
1.11497e-06
1.7859e-08
6.01511e-09
1.85661e-09
1.36093e-09
3.92054e-09
4.26121e-10
4.25474e-10
4.26056e-10
4.40407e-10
5.27163e-10
8.74476e-10
1.09948e-09
8.8603e-10
8.86588e-10
8.86041e-10
8.53489e-09
7.57894e-09
8.02406e-08
8.41039e-07
1.3003e-08
3.37641e-09
2.33479e-09
1.31976e-09
6.6919e-10
6.53932e-10
5.78473e-10
4.32439e-10
3.52071e-10
4.63999e-10
5.82862e-10
9.1764e-10
1.17341e-09
1.10087e-09
8.86634e-10
3.90453e-09
6.85115e-09
1.72291e-08
1.55193e-07
5.83353e-09
2.36634e-09
1.10182e-09
8.01732e-10
7.43924e-10
6.03503e-10
4.63119e-10
3.69576e-10
3.39737e-10
3.55647e-10
4.39552e-10
5.84003e-10
7.58308e-10
8.57668e-10
9.22755e-10
3.11796e-09
5.21948e-09
3.44419e-09
5.66826e-08
1.32054e-09
5.68928e-10
3.66788e-10
3.18351e-10
2.78362e-10
2.24073e-10
1.85135e-10
1.6575e-10
1.89524e-10
2.46467e-10
3.48106e-10
4.98112e-10
6.8259e-10
8.83767e-10
1.02088e-09
2.06974e-09
2.82348e-09
3.23088e-09
3.15673e-08
2.11487e-10
1.25498e-10
1.02985e-10
8.78894e-11
7.56597e-11
6.60067e-11
6.925e-11
8.52237e-11
1.20743e-10
1.87353e-10
2.94647e-10
4.54865e-10
6.68462e-10
9.20999e-10
1.16333e-09
1.89095e-09
1.92964e-09
2.07679e-09
3.39857e-08
3.55146e-11
2.78768e-11
2.4191e-11
2.30838e-11
2.38842e-11
2.85702e-11
3.78787e-11
5.76398e-11
9.82211e-11
1.73101e-10
3.0287e-10
4.72687e-10
6.93441e-10
9.21231e-10
1.4607e-09
2.00155e-09
1.93127e-09
2.26269e-09
4.00266e-08
6.80537e-12
6.92438e-12
7.86892e-12
9.66338e-12
1.28292e-11
1.7594e-11
2.64403e-11
4.44652e-11
8.4349e-11
1.73327e-10
3.56325e-10
6.29371e-10
8.90441e-10
1.08221e-09
1.79159e-09
2.06593e-09
1.96187e-09
4.84168e-09
4.15203e-08
2.54537e-12
3.38499e-12
4.73109e-12
6.88789e-12
1.05454e-11
1.62375e-11
2.57096e-11
4.31905e-11
8.17813e-11
1.72928e-10
4.23581e-10
8.06887e-10
1.24454e-09
1.60668e-09
2.02723e-09
2.10302e-09
2.04124e-09
1.21939e-08
3.48854e-08
1.73498e-12
2.69637e-12
4.19285e-12
6.77607e-12
1.12588e-11
1.85384e-11
3.01184e-11
4.82104e-11
8.43597e-11
1.62838e-10
5.07279e-10
1.03154e-09
1.57213e-09
1.93567e-09
2.06106e-09
2.00287e-09
2.2742e-09
1.20834e-08
2.02211e-08
1.46274e-12
2.44398e-12
4.08253e-12
7.09264e-12
1.26076e-11
2.17204e-11
3.54208e-11
5.54199e-11
9.0117e-11
1.75432e-10
6.69327e-10
1.35239e-09
1.92199e-09
2.04211e-09
1.69608e-09
1.60241e-09
1.88636e-09
6.6398e-09
1.06245e-08
1.23736e-12
2.125e-12
3.8671e-12
7.2127e-12
1.34982e-11
2.43775e-11
4.05686e-11
6.33782e-11
9.941e-11
2.08137e-10
8.76194e-10
1.87264e-09
2.40058e-09
2.05135e-09
1.46989e-09
1.47014e-09
1.46718e-09
1.46712e-09
9.45029e-09
9.17936e-13
1.73194e-12
3.38324e-12
6.82758e-12
1.34974e-11
2.58032e-11
4.4814e-11
7.19404e-11
1.11827e-10
2.33576e-10
9.97745e-10
2.52906e-09
3.84362e-09
5.12377e-09
1.79542e-09
1.46693e-09
1.4669e-09
2.95219e-08
9.04651e-09
5.98386e-13
1.23949e-12
2.67293e-12
5.8624e-12
1.24805e-11
2.55169e-11
4.67321e-11
7.80217e-11
1.20424e-10
2.18215e-10
7.81626e-10
2.96812e-09
5.89056e-09
1.05877e-08
2.15194e-08
1.65432e-08
4.69628e-08
4.99013e-08
7.87955e-09
3.40524e-13
7.70321e-13
1.85148e-12
4.43635e-12
1.03327e-11
2.26224e-11
4.45807e-11
7.79381e-11
1.24211e-10
2.20123e-10
8.90003e-10
5.0462e-09
7.75836e-09
8.7503e-09
2.79636e-08
5.94364e-08
6.34571e-08
4.94076e-08
5.54073e-09
1.44944e-13
3.82019e-13
1.04306e-12
2.79795e-12
7.24395e-12
1.7317e-11
3.7586e-11
7.15786e-11
1.22836e-10
2.34005e-10
9.80769e-10
7.15226e-09
1.68125e-08
1.68064e-08
1.65277e-08
4.40249e-08
6.34988e-08
2.68993e-08
4.77556e-09
4.97265e-14
1.41713e-13
4.35513e-13
1.36012e-12
4.0396e-12
1.10199e-11
2.68798e-11
5.768e-11
1.08541e-10
1.91445e-10
4.45278e-10
4.0514e-09
2.32672e-08
4.0455e-08
4.04144e-08
2.59292e-08
4.27334e-08
7.84604e-09
4.77201e-09
9.5412e-15
3.23663e-14
1.17262e-13
4.42629e-13
1.59765e-12
5.23463e-12
1.50596e-11
3.76499e-11
8.19733e-11
1.49171e-10
2.49504e-10
7.20058e-10
1.13531e-08
3.67719e-08
6.82681e-08
4.97043e-08
1.44639e-08
4.96389e-09
5.98919e-09
1.1183e-15
3.44346e-15
1.43266e-14
6.80208e-14
3.32298e-13
1.52653e-12
5.62118e-12
1.74826e-11
4.52294e-11
1.00674e-10
1.89265e-10
2.96217e-10
5.74536e-10
1.74172e-08
5.19354e-08
7.70166e-08
2.24319e-08
4.97798e-09
6.67597e-08
6.40451e-17
1.76159e-16
8.23561e-16
5.14405e-15
3.59012e-14
2.25741e-13
1.19508e-12
5.08077e-12
1.72845e-11
4.81545e-11
1.09653e-10
2.07176e-10
3.11934e-10
1.61113e-10
1.30931e-08
6.5823e-08
3.92816e-08
7.8124e-09
8.851e-08
2.76181e-18
4.51494e-18
1.45676e-17
1.07965e-16
1.0977e-15
1.11607e-14
9.9096e-14
6.38668e-13
3.03077e-12
1.11465e-11
3.23354e-11
7.24882e-11
1.3385e-10
1.37669e-10
6.22419e-12
1.8527e-09
8.27363e-08
4.6602e-08
1.08681e-07
)
;

boundaryField
{
    leftWall
    {
        type            zeroGradient;
    }
    rightWall
    {
        type            zeroGradient;
    }
    lowerWall
    {
        type            zeroGradient;
    }
    atmosphere
    {
        type            inletOutlet;
        inletValue      uniform 0;
        value           nonuniform List<scalar> 
46
(
6.30686e-10
4.95948e-10
7.73363e-10
4.33561e-10
8.34791e-11
1.99434e-11
6.35431e-12
1.27941e-12
9.38542e-14
3.93149e-15
3.32087e-16
1.95018e-16
1.50731e-16
8.34883e-17
3.17237e-17
8.4438e-18
2.24033e-18
2.26623e-18
5.66308e-18
1.04203e-17
5.54428e-18
2.10307e-18
0
0
0
0
0
0
0
0
0
0
0
0
0
0
0
0
0
0
0
0
0
8.27363e-08
4.6602e-08
1.08681e-07
)
;
    }
    defaultFaces
    {
        type            empty;
    }
}


// ************************************************************************* //
