/*--------------------------------*- C++ -*----------------------------------*\
| =========                 |                                                 |
| \\      /  F ield         | OpenFOAM: The Open Source CFD Toolbox           |
|  \\    /   O peration     | Version:  2312                                  |
|   \\  /    A nd           | Website:  www.openfoam.com                      |
|    \\/     M anipulation  |                                                 |
\*---------------------------------------------------------------------------*/
FoamFile
{
    version     2.0;
    format      ascii;
    arch        "LSB;label=32;scalar=64";
    class       volScalarField;
    location    "5.8";
    object      alpha.oil;
}
// * * * * * * * * * * * * * * * * * * * * * * * * * * * * * * * * * * * * * //

dimensions      [0 0 0 0 0 0 0];

internalField   nonuniform List<scalar> 
2268
(
1.45879e-09
1.07781e-09
1.15277e-09
3.60494e-09
1.215e-08
1.78474e-08
1.64286e-08
1.17721e-08
6.55944e-09
4.15053e-09
2.9696e-09
2.34736e-09
1.94101e-09
1.71332e-09
1.72947e-09
2.10084e-09
2.67804e-09
3.19843e-09
3.23864e-09
3.18409e-08
2.79466e-05
4.11497e-05
4.10633e-05
3.30696e-09
1.29328e-09
1.8408e-09
2.21939e-08
4.85659e-08
5.26715e-08
4.95935e-08
3.63667e-08
2.25037e-08
1.26525e-08
7.87371e-09
5.40606e-09
4.12561e-09
3.40518e-09
2.52247e-09
4.87301e-09
1.83031e-08
2.95422e-08
1.93285e-08
2.74807e-08
8.94327e-06
3.62359e-05
2.47073e-05
2.05466e-08
1.4242e-08
1.55584e-08
2.72238e-08
4.57274e-08
4.98482e-08
4.34962e-08
3.88721e-08
8.66274e-08
4.13837e-08
2.30568e-08
1.4354e-08
1.00015e-08
5.09451e-09
2.28201e-09
2.28533e-09
2.70892e-08
8.51072e-08
9.47009e-08
9.36392e-08
3.10185e-08
3.94898e-06
1.86312e-07
1.42648e-08
1.42534e-08
1.42648e-08
1.46643e-08
1.42856e-08
1.53813e-08
1.66271e-08
1.80474e-08
1.3836e-06
9.36984e-07
7.15487e-09
6.61397e-09
4.56999e-09
2.51267e-09
2.28157e-09
2.28203e-09
1.03096e-07
3.40903e-08
4.01102e-08
3.57259e-08
1.27465e-08
3.87723e-08
4.96332e-09
0.00147982
0.00151929
0.00184489
0.0022145
0.00213548
0.00161969
0.000782765
0.000109722
9.17367e-06
6.26909e-05
0.000112618
0.000137533
0.000205723
0.000153219
7.12221e-05
2.54505e-05
1.43067e-09
1.45104e-09
1.54021e-09
1.39978e-09
2.56977e-09
4.38715e-09
1.9158e-09
0.00432687
0.00446483
0.00449791
0.0045002
0.00449792
0.0045002
0.00367276
0.000829531
9.20168e-06
7.03209e-05
0.000392323
0.000759489
0.000764408
0.000764222
0.000354166
6.56306e-05
0.00322639
0.00433249
0.00896734
0.00410073
0.000255006
0.000155539
1.91581e-09
0.00087523
0.00091361
0.00119679
0.00175247
0.00210821
0.00225328
0.00187612
0.000699913
9.21548e-05
6.31203e-05
0.000309042
0.000687207
0.000732016
0.000673688
0.000264417
6.11633e-05
0.00867469
0.065964
0.0802108
0.0775361
0.0692619
0.0573984
0.0384034
-2.73509e-12
2.80452e-06
1.36905e-05
4.97178e-21
1.05839e-38
-1.26619e-14
1.31711e-06
4.11893e-05
6.43375e-05
1.2837e-05
9.23884e-06
7.3153e-05
0.000151679
0.000145981
0.000146146
0.00528034
0.0577265
0.0824662
0.0824617
0.0820392
0.0813139
0.0803162
0.0804668
0.0264879
0.0264879
0.0264879
0.0264879
0.0264879
0.0265616
0.0270072
0.0268794
0.0266136
0.0264878
0.0264878
0.0264878
0.0265931
0.0270498
0.0269931
0.0269953
0.0270101
0.0269821
0.0269217
0.0268972
0.0275286
0.0277384
0.0319566
0.0403372
0.0417439
0.0432614
0.0451737
0.0504586
0.0553906
0.0547707
0.0524592
0.0533045
0.0532755
0.0541671
0.0593494
0.0786381
0.0941519
0.109781
0.167664
0.162983
0.180263
0.201736
0.202035
0.198311
0.18188
0.171918
0.177085
0.218856
0.252908
0.273035
0.297194
0.338499
0.388591
0.432056
0.43101
0.428753
0.43038
0.222193
0.222299
0.222191
0.205356
0.194209
0.168198
0.0988863
0.0669478
0.0577408
0.0507278
0.0454512
0.100107
0.213692
0.240107
0.303424
0.455885
0.430626
0.213514
0.407677
0.222297
0.139113
0.0646021
0.0249581
0.00978737
0.00432476
0.00149085
0.00149111
0.00154061
0.00153581
0.00152862
0.00153222
0.00649896
0.00655805
0.00664863
0.291059
0.132171
0.0206255
0.134493
0.204342
0.0046586
0.00218823
0.00147669
0.00147669
0.00189776
0.00151381
0.00149142
0.00176777
0.00151132
0.00362868
0.00153193
0.00193587
0.0126096
0.00670878
0.229753
0.137062
0.0205035
0.0314961
0.0358678
0.00148761
0.0014796
0.00147649
0.00147661
0.00177296
0.00200043
0.00266816
0.00158635
0.00151926
0.135943
0.0371692
0.00512741
0.0142456
0.12815
0.223555
0.0328019
0.0204808
0.117358
0.00435413
0.00147637
0.00147619
0.00147635
0.00254079
0.00231735
0.00299156
0.00408316
0.00160758
0.0262566
0.208557
0.110921
0.0642602
0.0738636
0.0575076
0.0943091
0.0202826
0.0204566
0.135032
-2.42408e-17
-3.59395e-09
6.91867e-06
6.91824e-16
1.39616e-19
-1.84291e-12
-1.899e-11
7.27919e-25
2.94486e-24
-7.31749e-10
3.7405e-08
4.6275e-08
1.12554e-05
0.000104917
0.000225696
0.00148575
0.00392598
0.00429857
0.00741421
0.0134236
0.0161976
0.0140222
0.0126173
0.0185365
0.0509667
0.0972726
0.174872
0.245245
0.21561
0.136619
0.0787368
0.0492645
0.0163362
-5.78921e-08
-2.30643e-08
-7.91046e-25
-2.72495e-08
3.37157e-23
1.03958e-08
1.13305e-07
6.32406e-08
1.28121e-09
-2.27509e-06
-6.62525e-06
5.10002e-07
0.00421044
0.677353
0.717395
0.743034
0.771195
0.875036
0.9226
0.907983
0.782719
0.615963
0.469166
0.384636
0.371226
0.401864
0.365679
0.260722
0.227837
0.232134
0.243551
0.218904
0.171856
0.131857
0.0339144
0.00166816
0.989923
0.997527
0.99504
0.974742
0.976345
0.997419
0.99743
0.982474
0.916767
0.913941
0.936165
0.967546
0.964628
0.927054
0.903867
0.919342
0.926554
0.9282
0.911177
0.872325
0.834284
0.785955
0.451873
0.999688
0.999688
0.999688
0.998549
0.998246
0.999681
0.989893
0.927876
0.916944
0.940868
0.999606
0.999821
0.998686
0.993296
0.995487
0.999821
0.999821
0.99976
0.999717
0.999648
0.996877
0.969604
0.944826
0.999654
0.999688
0.999688
0.999688
0.999688
0.999688
0.993394
0.959283
0.948995
0.993119
0.999821
0.999822
0.999821
0.999822
0.999821
0.999821
0.999821
0.999821
0.998864
0.996589
0.997066
0.995122
0.985361
0.977207
0.986503
0.997434
0.999429
0.999688
0.998041
0.998545
0.999551
0.999471
0.999821
0.999822
0.999814
0.999822
0.999791
0.999717
0.999395
0.997604
0.99803
0.998673
0.996045
0.98182
0.979149
0.995789
0.352575
0.400608
0.508711
0.662214
0.760783
0.830023
0.900996
0.970982
0.999141
0.998706
0.998605
0.997137
0.966123
0.928273
0.872154
0.808247
0.763319
0.738431
0.741066
0.764291
0.77271
0.775016
0.806426
3.30435e-19
2.98523e-19
2.92389e-19
0.0033887
0.0506192
0.114591
0.204396
0.333445
0.475779
0.564446
0.538927
0.436572
0.3365
0.254045
0.166823
0.107898
0.0799096
0.0672848
0.0649744
0.0775961
0.0914828
0.101013
0.103371
2.28092e-09
8.99382e-10
2.76148e-10
1.03367e-12
4.03377e-24
5.6568e-24
9.11282e-14
1.78787e-17
0.00177989
0.00911002
0.00638487
0.000399597
-1.39328e-18
-3.59246e-20
-9.12118e-10
-1.49741e-19
2.71037e-19
3.43695e-20
1.60329e-20
-2.04766e-09
-5.33474e-10
-6.69226e-10
-7.02252e-09
8.36443e-09
4.76413e-09
1.75635e-09
1.22881e-18
1.19035e-18
2.20311e-12
2.52375e-11
1.955e-17
-7.46805e-22
-1.13727e-20
4.16407e-18
-4.15846e-18
9.50558e-19
-1.08654e-15
3.43249e-06
3.80934e-06
5.49736e-06
7.20407e-06
4.89677e-06
2.97855e-06
3.24997e-06
9.77895e-06
8.88531e-06
1.05772e-08
1.31925e-08
2.90414e-08
2.98896e-08
3.24962e-08
3.99885e-08
5.13727e-08
3.93434e-08
-1.03759e-16
-5.73905e-15
-2.68228e-13
5.76624e-15
1.35777e-06
1.62968e-05
2.46683e-05
2.48946e-05
2.49892e-05
2.34486e-05
1.1805e-05
5.10671e-06
1.41982e-05
1.54776e-05
1.58727e-05
1.31611e-08
2.57074e-08
8.70558e-08
1.24591e-07
1.55045e-07
1.92456e-07
1.90495e-07
2.41618e-07
3.22238e-07
3.5371e-07
3.49243e-07
5.89172e-07
7.67649e-06
1.93958e-05
1.81921e-05
1.60541e-05
1.96054e-05
1.83309e-05
1.27427e-05
1.33726e-05
1.13026e-05
5.27744e-06
7.87755e-08
1.19032e-08
2.14388e-08
1.05658e-07
1.43373e-07
1.95006e-07
1.94943e-07
1.56032e-07
1.70059e-07
3.58989e-07
7.40751e-07
9.11776e-07
1.0936e-06
3.77553e-06
4.25728e-06
1.82968e-06
8.24089e-07
1.2189e-06
1.03061e-06
1.33547e-05
1.33475e-05
4.01739e-06
8.47043e-08
7.53711e-08
1.01456e-08
2.86663e-08
7.52998e-08
1.0428e-07
1.37274e-07
1.22288e-07
8.33097e-08
8.17413e-08
1.66657e-07
3.79701e-07
5.70503e-07
5.31012e-07
8.60278e-07
8.11775e-07
5.90553e-07
3.35782e-09
3.3807e-09
6.49189e-07
1.19643e-05
4.89676e-06
6.18436e-07
3.03544e-07
4.01233e-07
9.91632e-09
2.59373e-08
4.21254e-08
4.81956e-08
5.05598e-08
4.83207e-08
4.16669e-08
3.86817e-08
5.41986e-08
1.1412e-07
1.92009e-07
1.56387e-07
2.26441e-07
1.73473e-07
1.23704e-07
7.59547e-09
3.41271e-09
9.07572e-07
2.31138e-06
3.8111e-07
2.53728e-06
2.47399e-06
1.05769e-06
8.85218e-09
1.71298e-08
2.04419e-08
1.85651e-08
1.92359e-08
1.98369e-08
1.75073e-08
1.66497e-08
1.57086e-08
1.98353e-08
2.39925e-08
1.79897e-08
2.0398e-08
1.56832e-08
1.29902e-08
6.67245e-09
3.42416e-09
3.81224e-07
6.96435e-09
6.49808e-09
4.7464e-06
1.45183e-05
1.52e-06
6.1707e-09
1.25042e-08
1.40482e-08
1.28129e-08
1.19097e-08
1.04623e-08
9.26542e-09
7.57731e-09
5.69353e-09
4.42495e-09
3.91928e-09
5.33651e-09
4.97701e-09
5.98807e-09
6.29186e-09
7.28334e-09
7.77742e-09
5.94661e-09
6.24369e-09
6.3769e-09
3.34979e-06
1.44854e-05
2.32591e-05
4.83923e-09
1.01256e-08
1.14566e-08
1.03365e-08
8.79366e-09
6.95412e-09
5.11881e-09
3.84644e-09
3.21096e-09
2.98968e-09
3.19763e-09
3.80405e-09
4.25796e-09
4.91962e-09
5.40334e-09
5.98935e-09
6.81804e-09
5.89032e-09
7.15967e-09
1.4696e-08
3.46155e-08
5.81778e-07
6.1394e-05
4.02602e-09
8.21646e-09
9.16675e-09
8.01228e-09
6.29464e-09
4.61399e-09
3.42487e-09
2.52957e-09
2.02087e-09
1.79302e-09
1.8129e-09
2.02296e-09
2.35824e-09
2.83678e-09
3.40699e-09
4.00653e-09
4.61569e-09
4.83964e-09
4.65548e-09
1.7551e-08
3.93268e-08
3.19813e-07
2.14897e-07
3.61694e-09
6.52305e-09
6.74159e-09
5.62287e-09
4.26197e-09
3.04277e-09
2.12862e-09
1.56237e-09
1.22686e-09
1.04923e-09
9.96889e-10
1.05525e-09
1.22882e-09
1.5362e-09
1.96042e-09
2.4379e-09
2.88689e-09
3.08959e-09
2.2835e-09
1.5238e-08
8.57287e-08
1.74603e-07
1.89347e-07
3.33078e-09
5.07836e-09
4.81537e-09
3.78291e-09
2.71943e-09
1.863e-09
1.28068e-09
9.46772e-10
7.42046e-10
6.18515e-10
5.62167e-10
5.77429e-10
6.75077e-10
8.64838e-10
1.1452e-09
1.49168e-09
1.85594e-09
2.22173e-09
2.10993e-09
1.35989e-08
5.40106e-08
1.45085e-07
1.87327e-07
3.04341e-09
3.93193e-09
3.44518e-09
2.54953e-09
1.72936e-09
1.16212e-09
8.33429e-10
6.48109e-10
5.13536e-10
4.1654e-10
3.56424e-10
3.40924e-10
3.83215e-10
4.88924e-10
6.6514e-10
9.06198e-10
1.21926e-09
1.59459e-09
1.93735e-09
4.6422e-09
2.04723e-08
5.49529e-08
1.2937e-07
2.83263e-09
3.15476e-09
2.63007e-09
1.86048e-09
1.12218e-09
7.69822e-10
6.62623e-10
5.5647e-10
4.44391e-10
3.52242e-10
2.7851e-10
2.3402e-10
2.3017e-10
2.76555e-10
3.7701e-10
5.40653e-10
7.80597e-10
1.09773e-09
1.44463e-09
2.20092e-09
2.77201e-09
1.29175e-08
2.51285e-08
2.64307e-09
2.64779e-09
2.24894e-09
1.38288e-09
9.03585e-10
7.57565e-10
6.98695e-10
5.6733e-10
4.44604e-10
3.47524e-10
2.61522e-10
1.95528e-10
1.5987e-10
1.63254e-10
2.10701e-10
3.07375e-10
4.61007e-10
6.8081e-10
9.59682e-10
1.32187e-09
1.75367e-09
1.75369e-09
6.53237e-09
2.52242e-09
2.38129e-09
1.98953e-09
1.43114e-09
9.4816e-10
8.05832e-10
7.72898e-10
5.81079e-10
4.515e-10
3.52351e-10
2.63477e-10
1.87254e-10
1.32169e-10
1.08395e-10
1.19395e-10
1.67127e-10
2.52349e-10
3.78967e-10
5.46587e-10
7.89352e-10
1.0412e-09
1.81997e-09
2.78037e-09
2.4374e-09
2.23752e-09
2.04741e-09
1.64089e-09
1.08112e-09
9.79078e-10
1.09074e-09
5.44469e-10
4.24297e-10
3.39331e-10
2.59543e-10
1.84319e-10
1.22985e-10
8.44171e-11
7.35032e-11
9.06317e-11
1.34496e-10
2.04626e-10
2.99859e-10
4.29353e-10
6.10085e-10
8.56795e-10
1.31807e-09
2.39972e-09
2.20553e-09
2.19204e-09
1.96198e-09
1.46217e-09
1.19011e-09
1.67976e-09
4.47387e-10
3.58871e-10
3.065e-10
2.40696e-10
1.75466e-10
1.17628e-10
7.43114e-11
5.22527e-11
5.22493e-11
7.32262e-11
1.13091e-10
1.68762e-10
2.48126e-10
3.44684e-10
5.06669e-10
6.78397e-10
2.40403e-09
2.22954e-09
2.25119e-09
2.15133e-09
2.75495e-09
3.29925e-09
2.45342e-09
3.40585e-10
3.08089e-10
2.58804e-10
2.06138e-10
1.56357e-10
1.0796e-10
6.80473e-11
4.25366e-11
3.41006e-11
4.26925e-11
6.60235e-11
1.02867e-10
1.5627e-10
2.34277e-10
3.24342e-10
4.55308e-10
2.40917e-09
2.23251e-09
2.64125e-09
4.98595e-09
6.3295e-09
8.93414e-09
2.63497e-09
3.20707e-10
2.63068e-10
2.05823e-10
1.63256e-10
1.27556e-10
9.19401e-11
6.01822e-11
3.6767e-11
2.49847e-11
2.65991e-11
4.12445e-11
6.73974e-11
1.07798e-10
1.62214e-10
2.47825e-10
3.34673e-10
2.59524e-09
2.52547e-09
2.52753e-09
1.76968e-08
9.21929e-09
1.13492e-08
2.01554e-09
3.91307e-10
2.34881e-10
1.55626e-10
1.18673e-10
9.54858e-11
7.17665e-11
4.91965e-11
3.09011e-11
1.95692e-11
1.76982e-11
2.63249e-11
4.50446e-11
7.59746e-11
1.2253e-10
1.83911e-10
2.60116e-10
3.39178e-09
7.8543e-09
2.72705e-08
2.10348e-08
1.12663e-08
1.22216e-08
1.72302e-09
5.91899e-10
2.64596e-10
1.15828e-10
8.11745e-11
6.52389e-11
5.02132e-11
3.63889e-11
2.41524e-11
1.51157e-11
1.20061e-11
1.656e-11
2.94051e-11
5.11118e-11
8.62498e-11
1.39157e-10
1.92684e-10
6.06123e-09
2.51935e-08
5.88763e-08
2.12606e-08
3.42783e-08
1.16587e-08
2.57732e-09
1.02197e-09
3.39141e-10
8.94999e-11
5.26773e-11
4.22272e-11
3.24636e-11
2.38945e-11
1.68248e-11
1.10972e-11
8.05267e-12
9.87031e-12
1.77358e-11
3.29385e-11
5.62163e-11
9.21804e-11
1.35123e-10
7.90531e-09
5.3416e-08
7.01218e-08
6.75399e-08
5.67429e-08
1.2526e-08
5.24963e-09
1.66356e-09
4.15252e-10
7.60513e-11
3.25177e-11
2.4713e-11
1.87738e-11
1.39167e-11
1.0388e-11
7.2964e-12
5.24457e-12
5.66945e-12
9.91617e-12
1.86644e-11
3.41562e-11
6.06197e-11
8.36185e-11
8.4837e-09
4.98542e-08
9.30296e-08
1.11304e-07
5.81845e-08
2.25337e-08
1.06657e-08
2.4303e-09
4.95106e-10
7.25211e-11
1.97627e-11
1.42958e-11
1.00452e-11
7.28341e-12
5.50499e-12
4.17934e-12
3.14465e-12
3.09492e-12
5.1979e-12
1.01902e-11
1.79767e-11
3.17276e-11
4.83976e-11
7.69974e-09
3.50119e-08
1.48984e-07
1.10847e-07
5.1129e-08
3.36586e-08
1.42711e-08
3.16616e-09
5.68046e-10
7.11406e-11
1.19262e-11
7.73034e-12
5.25654e-12
3.46583e-12
2.49752e-12
2.00147e-12
1.64603e-12
1.58833e-12
2.55318e-12
5.14497e-12
9.99454e-12
1.7259e-11
2.52762e-11
7.62588e-09
3.61391e-08
1.60634e-07
1.43338e-07
4.06453e-08
3.29577e-08
1.5079e-08
3.51755e-09
5.98982e-10
6.38139e-11
6.93902e-12
3.84955e-12
2.58405e-12
1.52838e-12
9.85075e-13
7.77619e-13
6.98622e-13
6.9777e-13
1.04815e-12
2.09789e-12
4.03568e-12
7.39008e-12
1.25097e-11
7.93478e-09
5.31519e-08
5.09555e-07
5.69384e-07
4.10546e-08
3.40007e-08
1.1964e-08
3.09607e-09
5.09971e-10
5.01456e-11
3.75745e-12
1.80575e-12
1.19122e-12
6.4498e-13
3.50139e-13
2.44318e-13
2.28324e-13
2.53279e-13
3.9242e-13
7.98931e-13
1.70798e-12
3.18349e-12
4.72869e-12
1.09881e-08
5.18977e-08
8.3845e-07
8.38431e-07
1.01523e-07
2.97657e-08
8.60546e-09
2.23851e-09
3.3726e-10
2.99903e-11
1.74357e-12
6.9498e-13
4.82149e-13
2.5198e-13
1.15592e-13
6.3805e-14
5.66788e-14
7.20804e-14
1.20782e-13
2.55798e-13
5.30714e-13
9.90354e-13
1.77452e-12
1.37884e-08
1.64498e-07
8.38441e-07
8.38438e-07
1.11358e-07
1.24974e-08
3.74118e-09
1.2135e-09
1.45212e-10
1.13183e-11
5.4824e-13
2.01238e-13
1.53311e-13
8.28806e-14
3.49098e-14
1.45924e-14
1.04004e-14
1.47402e-14
2.8439e-14
6.46099e-14
1.47544e-13
3.68418e-13
5.51886e-13
1.31098e-08
5.68526e-07
8.3844e-07
5.39874e-07
3.70158e-08
2.82476e-09
1.45512e-09
4.54065e-10
4.43794e-11
2.47243e-12
9.36849e-14
3.83204e-14
3.3872e-14
1.99922e-14
8.38088e-15
2.84752e-15
1.43796e-15
2.2721e-15
5.8567e-15
1.61888e-14
4.21845e-14
9.32259e-14
1.64603e-13
1.18426e-08
4.3646e-07
7.63803e-07
8.55837e-08
2.03437e-09
2.72579e-10
2.70665e-10
6.61118e-11
3.95986e-12
1.10958e-13
3.61241e-15
3.56616e-15
3.84223e-15
2.60749e-15
1.15873e-15
3.64813e-16
1.37189e-16
2.36954e-16
9.30624e-16
3.58311e-15
1.11521e-14
2.47127e-14
3.90279e-14
0.02417
0.023945
0.00673168
0.0015447
0.0126649
0.0239771
0.0134884
0.00154258
0.002638
0.00287885
0.00277816
0.0015432
0.212678
0.254459
0.423454
0.495391
0.946783
0.97855
0.993113
0.982105
0.987077
0.999415
0.999415
0.999415
0.999415
0.999415
0.999415
0.999415
0.875066
0.92733
0.957605
0.97173
0.123038
0.145201
0.183155
0.248999
-1.40242e-21
-5.05761e-25
-6.01944e-25
-1.97008e-10
5.35539e-06
2.14232e-06
9.40195e-07
5.85397e-07
1.62094e-05
1.61534e-05
1.40164e-05
9.84675e-07
5.28355e-08
5.38014e-08
5.28375e-08
5.71514e-08
2.19994e-07
1.56725e-07
1.25683e-07
8.52378e-08
1.28057e-06
9.6625e-07
9.06298e-08
8.81483e-08
2.39456e-06
8.83569e-06
2.47626e-05
1.12506e-05
4.97402e-06
5.60323e-05
7.33917e-05
6.8609e-05
4.95317e-05
7.33691e-05
7.33611e-05
7.33959e-05
7.17293e-05
7.16381e-05
6.97903e-05
7.3441e-05
3.15102e-06
4.3643e-05
3.33355e-05
2.31674e-05
8.66972e-08
1.0528e-08
1.04722e-08
1.05083e-08
1.12014e-07
1.07797e-07
6.88063e-08
3.1385e-08
1.20052e-07
9.07327e-08
7.93789e-08
3.20354e-08
2.72623e-08
4.93722e-08
4.53912e-08
4.34149e-08
9.63191e-09
1.27809e-08
2.17467e-08
2.01017e-08
3.34754e-09
5.20523e-09
5.17346e-09
5.19401e-09
1.5375e-09
1.67295e-09
2.08896e-09
2.22427e-09
8.37029e-10
9.54906e-10
1.02629e-09
1.13347e-09
5.3434e-10
5.87251e-10
6.73196e-10
7.17387e-10
3.97915e-10
4.64611e-10
5.02116e-10
5.60316e-10
3.19127e-10
3.5659e-10
4.09575e-10
4.5459e-10
2.3255e-10
2.71305e-10
3.07057e-10
3.56989e-10
1.62249e-10
1.86962e-10
2.24628e-10
2.642e-10
1.08388e-10
1.22168e-10
1.43785e-10
1.76201e-10
5.91734e-11
6.81337e-11
8.32214e-11
1.02342e-10
3.16661e-11
3.53638e-11
4.3346e-11
5.261e-11
1.44905e-11
1.65339e-11
1.91586e-11
2.40836e-11
6.09397e-12
6.23354e-12
7.23011e-12
8.626e-12
2.01269e-12
2.17032e-12
2.32781e-12
2.69128e-12
6.44697e-13
6.29493e-13
6.47055e-13
6.84691e-13
1.70822e-13
1.54601e-13
1.53109e-13
1.60649e-13
3.69928e-14
2.78448e-14
2.86557e-14
2.4925e-14
0.00169689
0.00197321
0.0034468
0.00988328
0.00854
0.00492885
0.00601264
0.00648325
0.0769903
0.351606
0.273398
0.0807204
0.0485289
0.0417434
0.0202574
0.0202573
0.0202573
0.0202573
0.134908
0.00154456
0.0041487
0.0262653
0.0297072
0.00974348
0.00934044
0.147863
0.449144
0.670814
0.67449
0.114864
0.0446444
0.0209658
0.0210362
0.0235123
0.0320422
0.0202573
0.0202573
0.061934
0.00154252
0.0106417
0.0344929
0.0555576
0.11767
0.443477
0.92546
0.938898
0.898924
0.787277
0.616835
0.505571
0.366071
0.298979
0.394144
0.420309
0.330661
0.119002
0.0337098
0.514762
0.563854
0.621934
0.689994
0.739568
0.877814
0.991262
0.977944
0.938878
0.941519
0.98479
0.995632
0.997407
0.986219
0.994018
0.988965
0.934196
0.799375
0.602363
0.944546
0.934262
0.947297
0.918244
0.884635
0.959717
0.998435
0.998536
0.998536
0.998536
0.998536
0.995973
0.99741
0.998219
0.998535
0.997526
0.997334
0.997335
0.99732
0.999415
0.994141
0.986913
0.988308
0.99597
0.996194
0.998502
0.998536
0.998536
0.998536
0.998536
0.998536
0.998536
0.998535
0.998535
0.998173
0.994661
0.97583
0.933929
0.999416
0.999388
0.988319
0.968354
0.980765
0.99839
0.998536
0.998536
0.998536
0.997962
0.998064
0.998536
0.997702
0.947068
0.839166
0.681791
0.487102
0.353676
0.285136
0.977569
0.982412
0.978196
0.939815
0.929634
0.940636
0.949238
0.93669
0.890609
0.812407
0.733683
0.669409
0.544691
0.29189
0.105836
0.00594554
0.0010581
-9.4769e-11
-7.52363e-11
0.318764
0.374782
0.37736
0.318354
0.284751
0.280725
0.263749
0.23035
0.155421
0.0824393
0.0349776
0.00729519
2.93442e-17
-3.28225e-08
2.60266e-21
-1.50545e-21
1.03126e-21
8.74676e-07
1.86288e-06
9.3354e-24
-6.56407e-09
3.63086e-14
1.34287e-12
1.56951e-12
8.84497e-14
1.10621e-21
-7.13112e-10
-2.22421e-25
2.08642e-27
8.93458e-31
1.74171e-36
-4.86258e-14
5.59377e-06
1.50199e-05
8.44184e-06
2.90644e-06
1.54562e-06
2.5452e-05
1.68144e-06
1.40715e-06
1.87677e-06
4.77678e-06
5.17394e-06
1.38488e-06
3.49255e-07
4.69705e-08
7.68498e-09
1.90115e-09
6.42524e-12
1.07366e-18
2.1972e-15
3.22439e-06
2.61597e-05
0.000156557
0.00018329
8.39182e-05
8.87194e-05
5.33168e-08
4.78809e-08
1.06845e-05
1.74495e-05
1.6491e-05
5.74515e-06
9.99819e-07
3.80911e-08
1.21871e-08
2.59261e-09
5.32441e-08
8.59013e-08
1.08428e-09
1.54953e-08
7.86294e-06
0.000155512
0.000188695
0.000188677
3.76719e-05
4.79983e-08
4.78335e-08
2.89963e-06
1.72596e-05
1.74495e-05
1.09735e-05
4.2576e-07
2.7188e-08
1.24362e-08
6.71106e-08
5.66465e-07
3.01027e-07
2.0146e-10
1.85686e-10
2.0595e-07
0.000130066
0.000188272
0.000132644
1.50185e-05
1.03284e-07
5.24747e-08
3.07257e-07
2.35185e-06
2.88797e-06
1.08214e-06
4.19633e-07
1.88841e-06
1.85805e-05
1.56858e-05
2.40391e-06
8.49957e-07
3.27065e-06
1.67142e-07
1.37475e-07
0.00013686
0.000188436
3.57959e-05
1.48313e-05
4.44524e-07
2.60051e-07
1.99536e-07
2.00717e-07
1.17493e-06
1.24066e-05
2.24051e-05
4.77575e-05
4.96557e-05
2.73477e-05
2.33424e-06
1.17002e-05
7.06298e-05
5.69326e-05
4.54155e-05
3.37755e-05
2.33967e-05
3.88468e-06
1.85435e-05
5.20971e-07
3.96529e-07
4.50735e-07
1.03519e-05
3.01293e-05
6.06395e-05
6.12504e-05
6.12641e-05
5.24389e-05
7.70571e-06
5.35253e-06
5.84405e-05
9.56575e-05
9.56885e-05
6.96827e-06
4.83335e-06
8.89049e-07
5.92141e-07
1.46591e-05
1.92368e-05
5.0738e-06
3.09615e-06
2.7099e-05
4.43968e-05
5.41686e-05
5.83044e-05
6.04452e-05
5.98869e-06
6.0034e-06
1.27608e-05
8.92936e-05
8.88316e-05
6.09765e-05
7.45451e-07
7.46163e-07
1.29177e-06
5.92143e-07
9.60068e-07
6.31582e-05
1.43455e-05
6.03038e-06
2.49912e-06
2.50934e-06
2.51951e-06
1.20657e-05
3.28921e-05
4.69846e-05
1.97996e-05
1.80672e-05
5.94276e-05
4.22738e-05
1.13478e-05
8.09152e-06
7.45365e-07
5.07315e-06
3.1813e-06
1.90782e-06
7.34297e-05
1.46733e-05
5.80606e-07
1.80705e-06
3.29682e-06
3.23981e-06
3.46288e-06
2.67749e-05
5.01408e-05
5.22201e-05
5.2232e-05
1.51868e-05
4.73334e-06
4.73076e-06
4.72882e-06
1.39223e-05
2.23828e-05
1.11493e-05
2.9731e-06
1.71333e-05
3.82814e-06
4.31918e-07
4.9022e-07
5.21382e-06
7.54969e-06
7.40003e-06
6.6392e-06
2.49777e-05
3.96209e-05
5.02359e-05
4.2012e-05
6.92238e-06
5.12737e-06
8.51144e-06
2.1945e-05
2.8492e-05
1.85814e-05
2.07125e-06
1.04722e-08
1.0528e-08
2.0205e-07
2.11882e-07
5.10413e-06
7.46454e-06
8.16201e-06
6.2804e-06
1.93367e-06
8.26368e-07
1.15147e-05
1.0057e-05
1.73947e-05
1.35919e-05
2.62098e-05
2.85771e-05
2.84821e-05
1.51699e-05
1.55779e-06
1.1438e-08
1.10736e-08
4.17767e-07
2.91224e-07
1.05366e-08
1.05372e-08
2.9191e-06
1.38075e-06
2.17606e-06
8.22484e-07
6.44087e-08
6.46768e-08
1.08931e-07
1.76617e-05
2.72448e-05
2.8467e-05
2.67958e-05
3.88578e-06
1.55779e-06
1.47333e-08
1.14521e-08
1.68187e-08
1.71567e-08
2.4843e-08
1.09612e-08
1.00206e-08
9.95542e-09
1.15309e-08
1.86536e-07
2.85639e-07
1.84646e-07
6.11471e-08
4.93975e-08
2.98928e-06
2.2833e-05
9.52911e-06
7.53764e-07
1.60297e-06
1.53581e-08
1.10357e-08
1.58432e-08
2.04249e-08
2.09607e-08
1.65151e-08
1.16483e-08
9.89137e-09
9.61789e-09
8.32447e-09
5.09531e-08
5.31458e-08
4.90879e-08
4.9242e-08
3.08791e-08
3.0855e-08
2.57876e-07
2.77596e-07
2.30875e-06
8.64351e-09
9.79013e-09
1.75867e-08
1.87862e-08
1.78519e-08
1.531e-08
1.31227e-08
1.14833e-08
1.03599e-08
8.31139e-09
9.93011e-09
1.48689e-08
2.23043e-08
3.08233e-08
4.71768e-08
3.46268e-08
2.10455e-08
2.02367e-08
2.2541e-06
5.11753e-09
6.22891e-09
7.27135e-09
7.89333e-09
7.76296e-09
7.35749e-09
6.81362e-09
6.88145e-09
7.51814e-09
8.29411e-09
9.38508e-09
1.23906e-08
1.71967e-08
2.2897e-08
2.66974e-08
3.36424e-08
2.01492e-08
2.01914e-08
2.22392e-06
2.43757e-09
2.74883e-09
3.06661e-09
3.23269e-09
3.30385e-09
3.4537e-09
3.84997e-09
4.51829e-09
5.37755e-09
6.61086e-09
8.26162e-09
1.1345e-08
1.67974e-08
2.31615e-08
2.68175e-08
2.21127e-08
1.15676e-08
1.06661e-07
2.23663e-06
1.22431e-09
1.38035e-09
1.55886e-09
1.78052e-09
2.09789e-09
2.61914e-09
3.33009e-09
4.26641e-09
5.30111e-09
6.35838e-09
7.81871e-09
1.06697e-08
1.56734e-08
2.32229e-08
2.37926e-08
1.1554e-08
1.15586e-08
8.7685e-07
2.14334e-06
7.83009e-10
9.30281e-10
1.16334e-09
1.49627e-09
2.03734e-09
2.88458e-09
4.06853e-09
5.48654e-09
6.82469e-09
7.63708e-09
8.40301e-09
1.01369e-08
1.4681e-08
2.11377e-08
1.69987e-08
1.12649e-08
1.68151e-07
1.50445e-06
8.15336e-07
6.34644e-10
8.06786e-10
1.07503e-09
1.53042e-09
2.36315e-09
3.54953e-09
5.18987e-09
7.38588e-09
9.79208e-09
1.09294e-08
1.02301e-08
9.86848e-09
1.2116e-08
1.51121e-08
1.6969e-08
1.12986e-08
4.58789e-07
1.63787e-06
1.6397e-07
5.29203e-10
7.21336e-10
1.03606e-09
1.63187e-09
2.76149e-09
4.69046e-09
7.80735e-09
1.19501e-08
1.73202e-08
1.84061e-08
1.39557e-08
1.05136e-08
1.50844e-08
2.5598e-08
3.81771e-08
5.98198e-08
4.95115e-07
1.6013e-06
1.03049e-07
4.27599e-10
6.24368e-10
9.7466e-10
1.6816e-09
3.12465e-09
5.73153e-09
9.79983e-09
1.70898e-08
3.21547e-08
3.61425e-08
2.0338e-08
1.21509e-08
2.56853e-08
5.61138e-08
8.63899e-08
1.3614e-07
2.6457e-07
8.21508e-07
6.18912e-08
3.29932e-10
4.99296e-10
8.67034e-10
1.64778e-09
3.2747e-09
6.36108e-09
1.11462e-08
2.10563e-08
5.42851e-08
8.62618e-08
3.50795e-08
1.77177e-08
2.89421e-08
7.52906e-08
1.45363e-07
1.50884e-07
1.19919e-07
6.68234e-08
4.47345e-08
2.23785e-10
3.73037e-10
7.04494e-10
1.47216e-09
3.09749e-09
6.38366e-09
1.16471e-08
2.26899e-08
6.53556e-08
2.01757e-07
1.14024e-07
4.47898e-08
3.01676e-08
6.18891e-08
1.14367e-07
1.50861e-07
6.34538e-08
4.06401e-08
3.74324e-08
1.33595e-10
2.42753e-10
5.09181e-10
1.15903e-09
2.60996e-09
5.75248e-09
1.11164e-08
2.06977e-08
5.08885e-08
2.6262e-07
9.61454e-07
8.65584e-07
1.18609e-07
2.97609e-08
6.46414e-08
1.09187e-07
3.8588e-08
2.65401e-08
2.97002e-08
7.21655e-11
1.37533e-10
3.17737e-10
7.84323e-10
1.93341e-09
4.53461e-09
9.56255e-09
1.75078e-08
3.35979e-08
1.39335e-07
1.8426e-06
4.99738e-06
1.61512e-06
5.22542e-08
2.90275e-08
2.6167e-08
2.41645e-08
2.41646e-08
2.41644e-08
3.03814e-11
6.24084e-11
1.58807e-10
4.32888e-10
1.17533e-09
2.94865e-09
6.79996e-09
1.34163e-08
2.55283e-08
8.9294e-08
1.0298e-06
4.99697e-06
4.99738e-06
5.79438e-07
2.44963e-08
2.74266e-08
2.71939e-08
2.41568e-08
2.4469e-08
1.13588e-11
2.22484e-11
5.92254e-11
1.83027e-10
5.62241e-10
1.60453e-09
4.12241e-09
9.29271e-09
1.84595e-08
4.40059e-08
1.80465e-07
2.23941e-06
4.99697e-06
4.66203e-06
4.50738e-08
2.93747e-08
4.59157e-08
1.33114e-07
7.55009e-07
3.0968e-12
5.65504e-12
1.50379e-11
5.24744e-11
1.92615e-10
6.56624e-10
1.97602e-09
5.20125e-09
1.2069e-08
2.28967e-08
3.99898e-08
6.36284e-08
2.80504e-06
4.83719e-06
4.06636e-06
7.77413e-08
6.07762e-08
2.34576e-07
2.53871e-06
7.68769e-13
1.0043e-12
2.21891e-12
7.99912e-12
3.72965e-11
1.77667e-10
6.80636e-10
2.17572e-09
5.62976e-09
1.25671e-08
2.24997e-08
4.17282e-08
7.59523e-08
2.97263e-06
4.64818e-06
3.13845e-06
9.75797e-08
2.96331e-07
2.54002e-06
1.50699e-13
1.69891e-13
2.8028e-13
7.9293e-13
4.01909e-12
2.45737e-11
1.37101e-10
6.13373e-10
2.15928e-09
6.18656e-09
1.42765e-08
2.66712e-08
4.37483e-08
5.24218e-09
1.97044e-06
3.65864e-06
9.62675e-07
3.51485e-07
2.52905e-06
2.17033e-14
2.07317e-14
2.5895e-14
5.23886e-14
1.83223e-13
1.20166e-12
1.03813e-11
7.15434e-11
3.57731e-10
1.3319e-09
3.86046e-09
8.04368e-09
9.42449e-09
4.15705e-09
1.80231e-10
7.47039e-07
2.67701e-06
7.36244e-07
1.95349e-06
)
;

boundaryField
{
    leftWall
    {
        type            zeroGradient;
    }
    rightWall
    {
        type            zeroGradient;
    }
    lowerWall
    {
        type            zeroGradient;
    }
    atmosphere
    {
        type            inletOutlet;
        inletValue      uniform 0;
        value           nonuniform List<scalar> 
46
(
1.18426e-08
4.3646e-07
7.63803e-07
8.55837e-08
2.03437e-09
2.72579e-10
2.70665e-10
6.61118e-11
3.95986e-12
1.10958e-13
3.61241e-15
3.56616e-15
3.84223e-15
2.60749e-15
1.15873e-15
3.64813e-16
1.37189e-16
2.36954e-16
9.30624e-16
3.58311e-15
1.11521e-14
2.47127e-14
0
0
0
0
0
0
0
0
0
0
0
0
0
0
0
0
0
0
0
0
0
2.67701e-06
7.36244e-07
1.95349e-06
)
;
    }
    defaultFaces
    {
        type            empty;
    }
}


// ************************************************************************* //
