/*--------------------------------*- C++ -*----------------------------------*\
| =========                 |                                                 |
| \\      /  F ield         | OpenFOAM: The Open Source CFD Toolbox           |
|  \\    /   O peration     | Version:  2312                                  |
|   \\  /    A nd           | Website:  www.openfoam.com                      |
|    \\/     M anipulation  |                                                 |
\*---------------------------------------------------------------------------*/
FoamFile
{
    version     2.0;
    format      ascii;
    arch        "LSB;label=32;scalar=64";
    class       volScalarField;
    location    "5.8";
    object      alpha.air;
}
// * * * * * * * * * * * * * * * * * * * * * * * * * * * * * * * * * * * * * //

dimensions      [0 0 0 0 0 0 0];

internalField   nonuniform List<scalar> 
2268
(
1.10493e-09
1.06622e-09
1.06607e-09
1.14101e-09
1.32205e-09
1.40217e-09
1.21576e-09
8.51974e-10
5.1194e-10
3.46359e-10
2.79076e-10
2.48054e-10
2.24185e-10
2.13041e-10
2.041e-10
2.07797e-10
2.37803e-10
2.76906e-10
2.81724e-10
1.67002e-10
1.46351e-09
5.38844e-07
6.27325e-07
1.45128e-09
1.30411e-09
1.43424e-09
2.19073e-09
3.5809e-09
5.8587e-09
5.64987e-09
4.69387e-09
2.98178e-09
2.0019e-09
1.99331e-09
1.7081e-09
1.24529e-09
1.2086e-09
9.93584e-10
3.90508e-10
2.8757e-10
5.27881e-10
5.28571e-10
2.18515e-10
3.42402e-08
6.37036e-07
6.37276e-07
3.96429e-09
3.54346e-09
3.24159e-09
3.95183e-09
7.77031e-09
1.8065e-08
2.17551e-08
2.07558e-08
7.92161e-09
4.84831e-09
7.6277e-09
8.21036e-09
4.63885e-09
7.60895e-09
2.07344e-08
9.35524e-09
1.15299e-09
5.2816e-10
7.46884e-10
3.23501e-10
6.53617e-08
2.76208e-07
2.41801e-07
3.25063e-09
3.24761e-09
3.2446e-09
3.24762e-09
1.89656e-07
6.52905e-09
5.60883e-09
4.98408e-09
4.04094e-09
4.04052e-09
4.04094e-09
4.63879e-09
7.2024e-09
8.08242e-09
2.55408e-07
8.51731e-07
3.46862e-07
9.20527e-08
2.4968e-10
1.11726e-09
1.602e-08
6.80114e-09
3.23182e-09
0.000368013
0.00030805
0.000343979
0.000572285
0.000685927
0.000637771
0.000498369
0.000308543
0.000151466
2.88102e-05
8.93276e-06
2.35575e-05
4.24735e-05
2.34058e-05
3.4451e-06
8.65669e-06
6.49278e-06
6.07166e-10
5.93182e-11
6.11416e-11
1.28866e-10
3.88806e-10
1.45706e-09
0.0011126
0.0011066
0.00114782
0.00132149
0.00132149
0.00132149
0.00132149
0.00131363
0.000890408
0.000246949
4.62544e-05
0.000118368
0.000126734
0.000122835
3.4524e-05
6.88992e-07
3.13803e-05
0.000119016
3.21412e-05
0.000810824
1.47975e-05
1.65406e-05
0.000369808
0.00105633
0.000626869
0.00052717
0.000824641
0.00132149
0.00113003
0.000981435
0.000733137
0.000545051
0.000323817
0.000282168
0.000167379
0.000120694
0.000103259
3.80527e-05
3.32618e-11
3.04442e-11
0.00138927
0.00696094
0.00762167
0.0069579
0.00671492
0.00929427
0.000543832
0.000540855
0.000511426
0.000490636
0.000743745
0.000503508
0.000306843
0.000266385
0.000266519
0.000286496
0.000288475
0.000193458
5.64399e-05
2.63039e-05
6.70589e-06
3.61999e-16
0.00058674
0.00344498
0.00597679
0.00813624
0.00960842
0.00957594
0.00960869
0.000490023
0.00209969
0.00615802
0.00615888
0.00553467
0.00269904
0.00187479
0.00187433
0.00184729
0.00165192
0.00165178
0.0016516
0.00165167
0.00165155
0.00167297
0.00179438
0.00270537
0.00300233
0.00300665
0.000320793
0.000403719
0.000603395
0.0008436
0.00171486
0.0025008
0.00281677
0.00286244
0.00218319
0.00165435
0.00165165
0.00165145
0.00165128
0.00165124
0.00165121
0.00165108
0.00168629
0.00211792
0.00259062
0.000319301
0.00135176
0.00605077
0.0118082
0.0179297
0.0243793
0.0282727
0.0284401
0.0249314
0.0138573
0.00693279
0.00509767
0.00659311
0.00251687
0.00578093
0.0184838
0.0230778
0.017173
0.0149462
0.0152748
0.0241918
0.0336744
0.0370585
0.0434336
0.0457685
0.0457701
0.0457687
0.0388865
0.0241788
0.0181556
0.02336
0.0406295
0.043799
0.0396662
0.0592881
0.0543553
0.0454045
0.0457036
0.0182597
0.018493
0.0142203
0.0103749
0.0182409
0.0402641
0.0430751
0.0134392
0.00649206
0.00634588
0.0062722
0.00733852
0.017838
0.0745947
0.0873983
0.0593208
0.0434081
0.0260322
0.0359014
0.0182567
0.00528678
0.00372138
0.00365972
0.00634346
0.017794
0.0195475
0.0069808
0.00547955
0.00544144
0.0407836
0.0106711
0.00834809
0.00595282
0.0634474
0.0974292
0.0641743
0.0246864
0.0246885
0.00591593
0.00289719
0.00373083
0.00351667
0.0035214
0.00652058
0.00710238
0.00527791
0.00548468
0.032774
0.070736
0.0122996
0.00455355
0.00451126
0.0256339
0.0974208
0.0319381
0.0246874
0.0246882
0.00271652
0.00274994
0.00419016
0.00352209
0.00361336
0.00345718
0.00532861
0.00419466
0.00615123
0.0708458
0.0702715
0.00764944
0.00452024
0.00874363
0.0400281
0.0974903
0.0249381
0.0246896
0.0390492
0.0030031
0.000560721
0.000490891
0.000490685
0.0018788
0.00665198
0.00421708
0.000995157
0.00105664
0.00078104
0.000213619
0.000196118
0.000186662
9.65918e-05
-6.63533e-10
-9.96563e-08
-3.07778e-07
2.21189e-06
1.80096e-06
1.36042e-05
0.0003155
0.000628121
0.000689491
0.0292752
0.0181013
0.0126687
0.00727984
0.00187166
0.0121883
0.0345785
0.0465496
0.0562536
0.0662517
0.0616204
0.0278883
0.0116318
0.00674479
0.0112873
0.013411
0.0111846
0.0112692
0.00804748
0.00830198
0.0117861
0.00989907
0.00205693
0.0335555
0.0335187
0.0342157
0.0342178
0.00686834
0.00157208
0.00138186
0.0512783
0.0807751
0.0808709
0.0807501
0.0779244
0.0388252
0.0431192
0.0559286
0.0558946
0.038967
0.00325686
0.00658304
0.0425388
0.0479815
0.0475887
0.0124127
0.0098052
0.00225865
0.00480553
0.0251085
0.023565
0.00255211
0.00121307
0.0158362
0.0809261
0.0807501
0.051301
0.020255
0.0211074
0.0474091
0.0506544
0.019261
0.00711319
0.00283632
0.0027586
0.0207686
0.0470027
0.0481833
0.0481836
0.000220633
0.000229313
0.000271055
0.00144338
0.00174447
0.000296763
0.0100665
0.0708998
0.0807466
0.0585992
0.000342926
0.000102782
0.0011535
0.00654417
0.0043767
6.90935e-05
1.16412e-05
0.000124346
0.000126725
8.96687e-05
0.00225687
0.0270276
0.0481833
0.000174373
0.000175564
0.00017459
0.000166038
0.000184699
0.000298056
0.0065979
0.0404684
0.0498117
0.00671963
9.30733e-05
5.40116e-05
8.32107e-05
0.000113774
0.000130567
6.11176e-05
6.76744e-06
4.05984e-06
1.47023e-07
3.38308e-08
0.000427597
0.00405895
0.0143578
0.022217
0.0131609
0.00231258
9.40978e-05
9.37958e-05
6.84957e-05
6.77521e-05
0.000278898
0.00036204
2.32821e-05
1.32863e-05
6.61492e-06
6.80194e-06
3.75444e-19
1.18696e-18
-2.3448e-07
-6.33947e-09
1.18949e-23
1.25459e-18
-3.60283e-27
-8.29282e-19
1.13321e-09
-1.63415e-06
0.646785
0.59887
0.490903
0.336178
0.234441
0.164734
0.0937511
0.0261092
3.83936e-06
3.63983e-06
3.75845e-06
0.00228085
0.0335856
0.0716671
0.125265
0.182883
0.227322
0.252274
0.253796
0.230598
0.209765
0.204952
0.171808
0.999678
0.999703
0.999642
0.996404
0.949012
0.881634
0.790351
0.661302
0.518967
0.431845
0.4587
0.562638
0.66301
0.745832
0.830464
0.885844
0.913142
0.922783
0.924873
0.912346
0.899805
0.887839
0.876875
1
1
0.999978
0.999865
0.999936
0.999594
0.998386
0.996743
0.994546
0.988326
0.992285
0.998995
0.999746
0.999723
0.999096
0.99973
0.999711
0.999028
0.998649
0.999764
0.99999
0.99999
0.99994
1
1
1
0.999997
1
1
1
1
0.999925
0.99987
0.99997
0.999947
0.999968
0.999877
0.999996
0.999996
0.999994
0.999992
0.999994
0.999994
0.999992
0.99998
0.999985
1
1
1
1
1
0.999999
0.999999
1
1
1
1
1
0.999995
0.999983
0.999975
0.999975
0.999972
0.999972
0.999986
0.999993
0.999957
0.999948
0.999948
1
1
1
1
1
1
0.999999
0.999999
0.999999
0.999999
0.999999
0.999999
0.999992
0.999981
0.999982
0.999979
0.999972
0.999974
0.999985
0.999963
0.999954
0.999958
0.999982
1
1
1
1
1
1
1
1
0.999999
0.999999
0.999998
0.999998
0.999996
0.999996
0.999998
0.999994
0.99999
0.999998
0.999973
0.999959
0.99998
0.999999
0.999999
1
1
1
1
1
1
1
1
1
0.999999
0.999999
0.999999
0.999999
0.999999
0.999999
0.999999
0.999998
0.999998
0.999981
0.999994
0.999999
0.999999
0.999999
1
1
1
1
1
1
1
1
1
1
1
1
1
1
1
1
1
0.999998
0.999998
1
0.999994
0.99999
0.999998
1
1
1
1
1
1
1
1
1
1
1
1
1
1
1
1
1
0.999999
1
1
0.999984
0.99997
0.999998
1
1
1
1
1
1
1
1
1
1
1
1
1
1
1
1
1
1
1
1
0.999988
0.99997
0.999969
1
1
1
1
1
1
1
1
1
1
1
1
1
1
1
1
1
1
1
1
1
0.999988
0.999924
1
1
1
1
1
1
1
1
1
1
1
1
1
1
1
1
1
1
1
1
1
0.999999
0.999999
1
1
1
1
1
1
1
1
1
1
1
1
1
1
1
1
1
1
1
1
1
1
1
1
1
1
1
1
1
1
1
1
1
1
1
1
1
1
1
1
1
1
1
1
1
1
1
1
1
1
1
1
1
1
1
1
1
1
1
1
1
1
1
1
1
1
1
1
1
1
1
1
1
1
1
1
1
1
1
1
1
1
1
1
1
1
1
1
1
1
1
1
1
1
1
1
1
1
1
1
1
1
1
1
1
1
1
1
1
1
1
1
1
1
1
1
1
1
1
1
1
1
1
1
1
1
1
1
1
1
1
1
1
1
1
1
1
1
1
1
1
1
1
1
1
1
1
1
1
1
1
1
1
1
1
1
1
1
1
1
1
1
1
1
1
1
1
1
1
1
1
1
1
1
1
1
1
1
1
1
1
1
1
1
1
1
1
1
1
1
1
1
1
1
1
1
1
1
1
1
1
1
1
1
1
1
1
1
1
1
1
1
1
1
1
1
1
1
1
1
1
1
1
1
1
1
1
1
1
1
1
1
1
0.999999
1
1
1
1
1
1
1
1
1
1
1
1
1
1
1
1
1
1
1
1
1
1
0.999999
1
1
1
1
1
1
1
1
1
1
1
1
1
1
1
1
1
1
1
1
1
0.999999
1
1
1
1
1
1
1
1
1
1
1
1
1
1
1
1
1
1
1
1
1
1
0.999999
1
1
1
1
1
1
1
1
1
1
1
1
1
1
1
1
1
1
1
1
1
1
0.999999
1
1
1
1
1
1
1
1
1
1
1
1
1
1
1
1
1
1
1
1
1
1
0.999999
1
1
1
1
1
1
1
1
1
1
1
1
1
1
1
1
1
1
1
1
1
1
0.999999
1
1
1
1
1
1
1
1
1
1
1
1
1
1
1
1
1
1
1
1
1
1
0.999999
0.999999
1
1
1
1
1
1
1
1
1
1
1
1
1
1
1
1
1
1
1
1
1
0.999999
0.999999
1
1
1
1
1
1
1
1
1
1
1
1
1
1
1
1
1
1
1
1
1
0.999999
0.999999
1
1
1
1
1
1
1
1
1
1
1
1
1
1
1
1
1
1
1
1
0.999999
0.999999
0.999999
1
1
1
1
1
1
1
1
1
1
1
1
1
1
1
1
1
1
1
1
1
0.999999
1
1
1
1
1
1
1
1
1
1
1
1
1
1
1
1
1
1
1
1
0.0014683
0.00139811
0.0025738
0.0031403
0.000781689
0.000997921
0.00256263
0.00418402
0.00273587
0.00220123
0.00175145
0.00205987
0.0481759
0.01279
0.000292262
0.0165019
0.0481836
0.0149488
0.000288017
0.0110746
0.012677
0.000342926
0.000314836
0.000434299
2.77867e-06
0.000236743
0.000261338
0.000264613
0.102863
0.0597005
0.0374644
0.0238258
0.856519
0.834041
0.800082
0.742749
0.998603
0.99793
0.99839
0.999014
0.999994
0.999997
0.999998
0.999998
0.999961
0.999973
0.999966
0.999965
0.999994
0.999996
0.999999
0.999999
0.999999
0.999999
0.999999
0.999999
0.999997
0.999998
0.999999
0.999999
0.999997
0.999991
0.999974
0.999984
0.999995
0.999943
0.999921
0.99992
0.99995
0.99992
0.999915
0.999915
0.999915
0.999915
0.999915
0.999916
0.999987
0.999938
0.999949
0.999969
1
1
1
1
1
1
1
1
1
1
1
1
1
1
1
1
1
1
1
1
1
1
1
1
1
1
1
1
1
1
1
1
1
1
1
1
1
1
1
1
1
1
1
1
1
1
1
1
1
1
1
1
1
1
1
1
1
1
1
1
1
1
1
1
1
1
1
1
1
1
1
1
1
1
1
1
1
1
1
1
1
1
1
1
1
1
1
1
0.00326731
0.00444364
0.00854433
0.0152438
0.00764188
0.00230659
0.00230562
0.00274674
0.0286513
0.0710592
0.0187497
0.00528018
0.00536405
0.0176691
0.034771
0.0468394
0.0249067
0.0258707
0.0476893
0.00484694
0.01094
0.0512826
0.0617592
0.00978359
0.00230477
0.00337357
0.0248274
0.0763787
0.0557541
0.00577757
0.00937304
0.0328222
0.0328909
0.0296869
0.0182996
0.02712
0.0430553
0.0492196
0.0178116
0.118121
0.152265
0.151955
0.0733633
0.0256769
0.0126424
0.0381034
0.0780641
0.0779786
0.00558583
0.00199306
0.0113603
0.0262959
0.00179001
0.00677073
0.0427483
0.042844
0.0412234
0.107346
0.15226
0.15225
0.152258
0.152245
0.0954122
0.000788967
0.0098877
0.0496518
0.0537011
0.0125982
0.00199809
0.000207579
1.07842e-05
1.04502e-05
0.00429843
0.0249889
0.0311304
0.0226318
0.0476388
0.0599324
0.0484152
0.077793
0.111954
0.0395787
0.000776605
0.000888029
0.000763698
0.000873855
0.00104207
0.00361393
0.00166497
4.0979e-05
0.000276257
0.00039717
0.000403133
0.00048802
0.000571312
0.000299009
5.57542e-05
5.61052e-05
5.5641e-05
5.6259e-05
0.00365114
0.00137563
0.000883072
0.000406997
0.000395106
0.000668348
0.000847736
0.000607132
0.000485086
0.000215902
0.000205492
0.0028795
0.0198562
0.0594028
0.000247393
5.61299e-05
0.000216927
5.62902e-05
5.59103e-05
5.64405e-05
0.000354445
0.000304824
0.000154028
8.92086e-05
7.59309e-05
0.000415409
0.00144524
0.050735
0.155652
0.310838
0.50384
0.636985
0.705526
0.0175773
0.0154499
0.016026
0.0252985
0.0325963
0.0327411
0.038894
0.0532832
0.0961106
0.168491
0.251595
0.327006
0.453719
0.703172
0.887298
0.98702
0.993683
0.996375
0.995506
0.673915
0.620021
0.612743
0.649265
0.677335
0.682234
0.706524
0.748076
0.822525
0.894748
0.945381
0.988493
0.998357
0.998991
0.999241
0.999563
0.999946
0.999998
0.999998
0.999114
0.998242
0.994227
0.992354
0.991806
0.996954
0.998673
0.998052
0.997943
0.997159
0.998609
0.998791
0.999974
0.999987
0.999985
0.999991
0.999997
0.999998
0.999974
0.999998
0.999998
0.999998
0.999995
0.999995
0.999999
1
1
1
1
1
0.999691
0.999943
0.999987
0.999968
0.999843
0.999816
0.999915
0.999904
0.999965
0.999965
0.999968
0.999977
0.999984
0.999994
0.999999
1
1
1
0.999989
0.999956
0.999823
0.999934
0.999987
0.999834
0.99981
0.999811
0.999941
0.999994
0.999988
0.999987
0.999981
0.999982
0.999989
1
0.999999
0.999996
0.999994
0.999998
0.999999
0.999998
0.999992
0.999996
0.999867
0.99981
0.999867
0.999964
0.999999
0.999999
0.999998
0.999997
0.999997
0.999999
0.999999
0.999994
0.999973
0.999976
0.999991
0.999997
0.999992
0.99999
0.99999
0.999859
0.99981
0.999961
0.999964
0.999999
0.999999
0.999999
0.999997
0.999997
0.999986
0.999973
0.999947
0.999946
0.999967
0.999991
0.999983
0.999926
0.999941
0.999952
0.999964
0.999976
0.999981
0.999962
0.999992
0.999994
0.999997
0.999985
0.999964
0.999936
0.999936
0.999937
0.999947
0.999992
0.999995
0.99994
0.999896
0.999896
0.999991
0.999993
0.999993
0.99998
0.999965
0.999948
0.999954
0.999966
0.999951
0.999938
0.999938
0.999936
0.999938
0.999994
0.999994
0.999987
0.999905
0.999896
0.999914
0.999987
0.999988
0.999979
0.999981
0.999995
0.999916
0.999941
0.99995
0.999954
0.999956
0.999962
0.999967
0.999963
0.999951
0.99998
0.999982
0.999937
0.999928
0.999947
0.99995
0.99996
0.999978
0.999995
0.999997
0.99992
0.999962
0.999956
0.999955
0.999954
0.999961
0.999977
0.999966
0.999945
0.999945
0.999946
0.99998
0.999986
0.999982
0.999983
0.999983
0.999977
0.999989
0.999997
0.999981
0.999994
0.999985
0.999958
0.999964
0.999991
0.99999
0.999985
0.999966
0.999956
0.999946
0.999953
0.999989
0.999991
0.999991
0.999978
0.999971
0.999981
0.999997
1
0.999999
0.999999
0.999997
0.999995
0.999991
0.99999
0.999994
0.999998
0.999998
0.999987
0.999988
0.999979
0.999983
0.999974
0.999971
0.999971
0.999984
0.999997
1
1
1
1
1
1
0.999997
0.999999
0.999998
0.999999
1
1
1
0.999982
0.999973
0.999971
0.999973
0.999995
0.999997
1
1
1
1
1
1
1
1
1
1
1
1
1
1
0.999997
0.999977
0.99999
0.999999
0.999997
1
1
1
1
1
1
1
1
1
1
1
1
1
1
1
1
0.999999
0.999999
0.999997
1
1
1
1
1
1
1
1
1
1
1
1
1
1
1
1
1
1
0.999998
1
1
1
1
1
1
1
1
1
1
1
1
1
1
1
1
1
1
0.999998
1
1
1
1
1
1
1
1
1
1
1
1
1
1
1
1
1
1
0.999998
1
1
1
1
1
1
1
1
1
1
1
1
1
1
1
1
1
0.999999
0.999998
1
1
1
1
1
1
1
1
1
1
1
1
1
1
1
1
1
0.999998
0.999999
1
1
1
1
1
1
1
1
1
1
1
1
1
1
1
1
0.999999
0.999998
1
1
1
1
1
1
1
1
1
1
1
1
1
1
1
1
1
0.999999
0.999998
1
1
1
1
1
1
1
1
1
1
1
1
1
1
1
1
1
1
0.999999
1
1
1
1
1
1
1
1
1
1
1
1
1
1
1
1
1
1
1
1
1
1
1
1
1
1
1
1
1
1
1
1
1
1
1
1
1
1
1
1
1
1
1
1
1
1
1
1
1
0.999999
0.999999
1
1
1
1
1
1
1
1
1
1
1
1
1
1
1
1
1
0.999998
0.999995
0.999998
1
1
1
1
1
1
1
1
1
1
1
1
1
1
1
1
0.999999
0.999995
0.999995
0.999999
1
1
1
1
1
1
1
1
1
1
1
1
1
1
1
1
0.999998
0.999995
0.999995
1
1
1
1
0.999999
1
1
1
1
1
1
1
1
1
1
1
1
0.999997
0.999995
0.999996
1
1
1
0.999997
1
1
1
1
1
1
1
1
1
1
1
1
1
0.999997
0.999995
0.999997
1
1
0.999997
1
1
1
1
1
1
1
1
1
1
1
1
1
1
0.999998
0.999996
0.999999
1
0.999997
1
1
1
1
1
1
1
1
1
1
1
1
1
1
1
0.999999
0.999997
0.999999
0.999998
)
;

boundaryField
{
    leftWall
    {
        type            alphaContactAngle;
        thetaProperties 
6
(
(galistan air) 90 0 0 0
(oil galistan) 90 0 0 0
(water oil) 90 0 0 0
(water air) 90 0 0 0
(oil air) 90 0 0 0
(water galistan) 90 0 0 0
);
        value           nonuniform List<scalar> 
50
(
1.10493e-09
1.45128e-09
3.96429e-09
3.25063e-09
0.000368013
0.0011126
0.00105633
0.000543832
0.0030031
0.0292752
0.0335555
0.0098052
0.000220633
0.000174373
0.022217
0.646785
0.999678
1
1
1
1
1
1
1
1
1
1
1
1
1
1
1
1
1
1
1
1
1
1
1
1
1
1
1
1
1
1
1
1
1
)
;
    }
    rightWall
    {
        type            alphaContactAngle;
        thetaProperties 
6
(
(galistan air) 90 0 0 0
(oil galistan) 90 0 0 0
(water oil) 90 0 0 0
(water air) 90 0 0 0
(oil air) 90 0 0 0
(water galistan) 90 0 0 0
);
        value           nonuniform List<scalar> 
50
(
0.00300665
0.00259062
0.0149462
0.0457036
0.0359014
0.0246885
0.0246882
0.0390492
0.0476893
0.0492196
0.0412234
0.0226318
0.000571312
0.0594028
0.705526
0.995506
0.999998
0.999974
0.999904
0.999941
0.999964
0.999964
0.999962
0.999965
0.999995
0.999997
0.999997
0.999997
0.999997
0.999997
0.999997
0.999997
0.999998
0.999998
0.999998
0.999998
0.999999
1
1
1
1
1
1
1
1
0.999999
0.999997
0.999997
0.999997
0.999998
)
;
    }
    lowerWall
    {
        type            alphaContactAngle;
        thetaProperties 
6
(
(galistan air) 90 0 0 0
(oil galistan) 90 0 0 0
(water oil) 90 0 0 0
(water air) 90 0 0 0
(oil air) 90 0 0 0
(water galistan) 90 0 0 0
);
        value           nonuniform List<scalar> 
62
(
1.10493e-09
1.06622e-09
1.06607e-09
1.14101e-09
1.32205e-09
1.40217e-09
1.21576e-09
8.51974e-10
5.1194e-10
3.46359e-10
2.79076e-10
2.48054e-10
2.24185e-10
2.13041e-10
2.041e-10
2.07797e-10
2.37803e-10
2.76906e-10
2.81724e-10
1.67002e-10
1.46351e-09
5.38844e-07
6.27325e-07
6.27325e-07
6.37276e-07
2.41801e-07
3.23182e-09
1.45706e-09
0.000369808
0.00929427
0.00960869
0.0014683
0.00139811
0.0025738
0.0031403
0.000490023
0.000320793
0.000319301
0.0152748
0.0182597
0.0182567
0.00591593
0.00271652
0.000490023
0.00209969
0.00615802
0.00615888
0.00553467
0.00269904
0.00187479
0.00187433
0.00184729
0.00165192
0.00165178
0.0016516
0.00165167
0.00165155
0.00167297
0.00179438
0.00270537
0.00300233
0.00300665
)
;
    }
    atmosphere
    {
        type            inletOutlet;
        inletValue      uniform 1;
        value           nonuniform List<scalar> 
46
(
1
1
0.999999
1
1
1
1
1
1
1
1
1
1
1
1
1
1
1
1
1
1
1
1
1
1
1
1
1
1
1
1
1
1
1
1
1
1
1
1
1
1
1
1
0.999997
0.999999
0.999998
)
;
    }
    defaultFaces
    {
        type            empty;
    }
}


// ************************************************************************* //
