/*--------------------------------*- C++ -*----------------------------------*\
| =========                 |                                                 |
| \\      /  F ield         | OpenFOAM: The Open Source CFD Toolbox           |
|  \\    /   O peration     | Version:  2312                                  |
|   \\  /    A nd           | Website:  www.openfoam.com                      |
|    \\/     M anipulation  |                                                 |
\*---------------------------------------------------------------------------*/
FoamFile
{
    version     2.0;
    format      ascii;
    arch        "LSB;label=32;scalar=64";
    class       volScalarField;
    location    "5.8";
    object      alphas;
}
// * * * * * * * * * * * * * * * * * * * * * * * * * * * * * * * * * * * * * //

dimensions      [0 0 0 0 0 0 0];

internalField   nonuniform List<scalar> 
2268
(
2
2
2
2
2
2
2
2
2
2
2
2
2
2
2
2
2
2
2
2
1.99997
1.99996
1.99996
2
2
2
2
2
2
2
2
2
2
2
2
2
2
2
2
2
2
2
2
1.99999
1.99996
1.99998
2
2
2
2
2
2
2
2
2
2
2
2
2
2
2
2
2
2
2
2
2
2
2
2
2
2
2
2
2
2
2
2
2
2
2
2
2
2
2
2
2
2
2
2
2
2
1.95171
1.95485
1.96022
1.96672
1.97304
1.97885
1.98444
1.99006
1.99598
1.99997
1.9999
1.99989
1.99984
1.99987
1.99993
1.99998
2.00001
2
2
2
2
2
2
0.683934
0.698458
0.72473
0.758075
0.794326
0.832735
0.875043
0.929343
1.01107
1.13085
1.29169
1.44545
1.60598
1.76047
1.88781
1.97172
1.9968
1.99579
1.99106
1.99671
1.99976
1.99986
2.00037
0.00404421
0.00279421
0.0027783
0.0042264
0.00607265
0.00564335
0.00482042
0.00289932
0.00193044
0.00277304
0.0141649
0.078722
0.177513
0.321897
0.527926
0.798275
1.10265
1.45658
1.73644
1.89235
1.93361
1.94778
1.97058
0.00163154
0.00162583
0.00158551
0.0015813
0.00223124
0.00151052
0.000921845
0.000841588
0.000863894
0.000872324
0.000874665
0.000653524
0.000334567
0.000310122
0.000309179
0.00672247
0.114731
0.264997
0.45163
0.698117
0.976314
1.16851
1.24827
1.96034
1.96522
1.97526
1.97372
1.97158
1.96497
1.96295
1.96282
1.96247
1.96146
1.96056
1.96137
1.96735
1.96781
1.96782
1.96818
1.97093
1.97179
1.97144
1.97118
1.97182
1.97269
1.96889
1.96138
1.96076
1.95956
1.95769
1.95173
1.94626
1.94688
1.94919
1.94835
1.94838
1.94748
1.9423
1.92305
1.90793
1.89276
1.83249
1.83821
1.82562
1.75149
1.68263
1.6171
1.55289
1.50751
1.48247
1.47909
1.48959
1.5266
1.51143
1.48438
1.48504
1.51198
1.49276
1.44378
1.43873
1.58644
1.30861
0.929211
0.666097
0.517313
0.410599
0.285802
0.229204
0.191388
0.142371
0.118616
0.226723
0.423445
0.441295
0.481099
0.725798
0.663672
0.377538
0.576374
0.44845
0.226915
0.10726
0.0560809
0.0645101
0.125117
0.130716
0.0418086
0.0213374
0.0212155
0.0230132
0.0238241
0.0600127
0.230342
0.268844
0.469016
0.262395
0.0991701
0.242617
0.259343
0.020771
0.0210844
0.0216937
0.0243402
0.0554752
0.0616295
0.0242639
0.0201139
0.0226547
0.168972
0.0436649
0.0276098
0.0377758
0.210882
0.524326
0.332056
0.0980462
0.105982
0.0540953
0.0207475
0.0249259
0.0242745
0.0214932
0.0221765
0.0244371
0.0203472
0.0208495
0.137115
0.392468
0.0911715
0.02091
0.02967
0.216062
0.532394
0.135649
0.0992331
0.192604
0.0130702
0.0191483
0.0204534
0.0220635
0.0234124
0.0185648
0.0197664
0.0175444
0.0241963
0.283249
0.463572
0.143098
0.0801198
0.103634
0.183539
0.403484
0.10125
0.0992542
0.25552
0.00903059
0.00168267
0.00157194
0.00229056
0.00714835
0.0204945
0.0126654
0.0030281
0.00316992
0.00234312
0.000643358
0.00062585
0.000605179
0.000421465
0.000225694
0.00148545
0.00392473
0.0043052
0.00741959
0.0134644
0.0171441
0.0159067
0.0147516
0.107021
0.105457
0.135403
0.199334
0.25492
0.256206
0.242585
0.220345
0.219398
0.215476
0.185463
0.0842093
0.0349976
0.0204904
0.0352561
0.0414851
0.0338234
0.0338078
0.0241424
0.0254678
0.0372686
0.0326624
0.0111451
0.778835
0.818766
0.846023
0.87439
0.898908
0.931179
0.916249
0.941173
0.862907
0.714864
0.627556
0.605453
0.521904
0.504349
0.437828
0.404803
0.35798
0.261874
0.247831
0.31079
0.287801
0.187422
0.039892
1.01988
1.00473
1.00977
1.05037
1.04722
1.00513
1.00129
1.03336
1.16416
1.15861
1.09017
1.02841
1.03087
1.07635
1.06279
0.982804
0.95305
0.941612
0.924182
0.942645
0.987316
0.942507
0.608112
1.00052
1.00053
1.00058
1.00289
1.00349
1.00059
1.02011
1.14301
1.1638
1.11773
1.00074
1.00023
1.00247
1.01325
1.00889
1.00022
1.00012
1.00036
1.00041
1.00044
1.00538
1.05742
1.09955
1.00041
1.00041
1.0003
1.0002
1.00026
1.0006
1.0132
1.08119
1.10082
1.0136
1.00021
1.0001
1.00012
1.00018
1.00023
1.00006
0.999914
0.999885
0.998915
0.996872
0.999407
1.00841
1.02899
1.04459
1.02653
1.00456
0.999786
0.999985
0.998339
0.999234
1.00073
1.00089
1.00009
1.00006
0.999998
1
0.999819
0.99973
0.999408
0.997617
0.99808
0.998728
0.996101
0.982598
0.982309
0.998834
2.29374
2.19802
1.98203
1.67108
1.46489
1.32552
1.18357
1.05033
0.999567
0.999184
0.99931
1.00484
1.06735
1.14329
1.24799
1.35732
1.44594
1.4959
1.50308
1.45635
1.40204
1.39025
1.32569
2.99939
2.99961
2.9995
2.99287
2.89771
2.7599
2.57677
2.31867
2.034
1.86107
1.91611
2.12556
2.32636
2.49155
2.65825
2.76595
2.81999
2.83591
2.83965
2.81465
2.79094
2.76579
2.73589
3
3
2.99994
2.9996
2.99981
2.99885
2.99547
2.99101
2.98627
2.97472
2.98401
2.99818
2.99964
2.99919
2.9973
2.9993
2.99934
2.99716
2.99596
2.9993
2.99998
2.99998
2.99982
3
3
3
2.99999
3
3
3
3
2.99978
2.99961
2.99996
2.99989
2.9999
2.99964
2.99999
2.99999
2.99999
2.99998
2.99999
2.99999
2.99998
2.99995
2.99996
3
3
3
3
3
3
3
3
3
3
3
3
2.99999
2.99996
2.99995
2.99995
2.99994
2.99994
2.99997
2.99998
2.99989
2.99987
2.99987
3
3
3
3
3
3
3
3
3
3
3
3
2.99998
2.99996
2.99996
2.99995
2.99993
2.99994
2.99997
2.9999
2.99988
2.99989
2.99996
3
3
3
3
3
3
3
3
3
3
3
3
2.99999
2.99999
3
2.99998
2.99997
2.99999
2.99993
2.99989
2.99995
3
3
3
3
3
3
3
3
3
3
3
3
3
3
3
3
3
3
2.99999
3
2.99996
2.99999
3
3
3
3
3
3
3
3
3
3
3
3
3
3
3
3
3
3
3
3
3
3
3
2.99999
2.99997
3
3
3
3
3
3
3
3
3
3
3
3
3
3
3
3
3
3
3
3
3
2.99996
2.99993
3
3
3
3
3
3
3
3
3
3
3
3
3
3
3
3
3
3
3
3
3
2.99997
2.99993
2.99993
3
3
3
3
3
3
3
3
3
3
3
3
3
3
3
3
3
3
3
3
3
2.99997
2.99984
3
3
3
3
3
3
3
3
3
3
3
3
3
3
3
3
3
3
3
3
3
3
3
3
3
3
3
3
3
3
3
3
3
3
3
3
3
3
3
3
3
3
3
3
3
3
3
3
3
3
3
3
3
3
3
3
3
3
3
3
3
3
3
3
3
3
3
3
3
3
3
3
3
3
3
3
3
3
3
3
3
3
3
3
3
3
3
3
3
3
3
3
3
3
3
3
3
3
3
3
3
3
3
3
3
3
3
3
3
3
3
3
3
3
3
3
3
3
3
3
3
3
3
3
3
3
3
3
3
3
3
3
3
3
3
3
3
3
3
3
3
3
3
3
3
3
3
3
3
3
3
3
3
3
3
3
3
3
3
3
3
3
3
3
3
3
3
3
3
3
3
3
3
3
3
3
3
3
3
3
3
3
3
3
3
3
3
3
3
3
3
3
3
3
3
3
3
3
3
3
3
3
3
3
3
3
3
3
3
3
3
3
3
3
3
3
3
3
3
3
3
3
3
3
3
3
3
3
3
3
3
3
3
3
3
3
3
3
3
3
3
3
3
3
3
3
3
3
3
3
3
3
3
3
3
3
3
3
3
3
3
3
3
3
3
3
3
3
3
3
3
3
3
3
3
3
3
3
3
3
3
3
3
3
3
3
3
3
3
3
3
3
3
3
3
3
3
3
3
3
3
3
3
3
3
3
3
3
3
3
3
3
3
3
3
3
3
3
3
3
3
3
3
3
3
3
3
3
3
3
3
3
3
3
3
3
3
3
3
3
3
3
3
3
3
3
3
3
3
3
3
3
3
3
3
3
3
3
3
3
3
3
3
3
3
3
3
3
3
3
3
3
3
3
3
3
3
3
3
3
3
3
3
3
3
3
3
3
3
3
3
3
3
3
3
3
3
3
3
3
3
3
3
3
3
3
3
3
3
3
3
3
3
3
3
3
3
3
3
3
3
3
3
3
3
3
3
3
3
3
3
3
3
3
3
3
3
3
3
3
3
3
3
3
3
3
3
3
3
3
3
3
3
3
3
3
3
3
3
3
3
3
3
3
3
3
3
3
3
3
3
3
3
3
3
3
3
3
3
3
3
3
3
3
3
3
3
3
3
3
3
3
3
3
3
3
3
3
3
3
3
3
3
3
3
3
3
3
3
3
3
3
3
3
3
3
3
3
3
3
3
3
3
3
3
3
3
3
3
0.0300093
0.0301645
0.0197955
0.0162939
0.0153598
0.0277596
0.0226253
0.015838
0.0112028
0.0105001
0.0100807
0.0117194
0.364802
0.305429
0.445136
0.565708
1.09437
1.02474
0.99969
1.02895
1.0256
1.0009
1.00079
1.00096
1.0004
1.00059
1.00078
1.00078
1.18811
1.11088
1.07397
1.04393
2.69379
2.64915
2.58616
2.48
2.99581
2.99379
2.99529
2.99785
2.99999
2.99999
3
3
2.9999
2.99994
2.99992
2.9999
2.99999
2.99999
3
3
3
3
3
3
2.99999
2.99999
3
3
2.99999
2.99998
2.99995
2.99996
2.99999
2.99989
2.99984
2.99983
2.9999
2.99984
2.99982
2.99983
2.99982
2.99982
2.99982
2.99983
2.99996
2.99986
2.99988
2.99993
3
3
3
3
3
3
3
3
3
3
3
3
3
3
3
3
3
3
3
3
3
3
3
3
3
3
3
3
3
3
3
3
3
3
3
3
3
3
3
3
3
3
3
3
3
3
3
3
3
3
3
3
3
3
3
3
3
3
3
3
3
3
3
3
3
3
3
3
3
3
3
3
3
3
3
3
3
3
3
3
3
3
3
3
3
3
3
3
0.0162675
0.0172278
0.0309835
0.0601973
0.0396936
0.0147959
0.0137292
0.0176435
0.185714
0.609127
0.343705
0.0967115
0.0647929
0.0954373
0.126412
0.16618
0.1007
0.100806
0.280489
0.0181095
0.0390862
0.186193
0.220908
0.0404531
0.018885
0.174857
0.562247
0.945975
0.87601
0.132347
0.072916
0.119584
0.119957
0.113375
0.0935806
0.11509
0.156395
0.211866
0.0673898
0.385808
0.509853
0.515558
0.340364
0.539914
1.00939
1.09921
1.17914
1.05679
0.635347
0.512292
0.400305
0.379831
0.410468
0.454095
0.47238
0.259365
0.159718
0.857617
1.04146
1.09951
1.16759
1.21105
1.17398
1.00953
1.03194
1.11077
1.11218
1.02781
1.00637
0.998649
0.989952
1.00599
1.01533
1.02177
0.902197
0.678492
1.10309
1.12567
1.10112
1.15954
1.22732
1.07986
1.00092
1.00235
1.00223
1.00234
1.00251
1.00764
1.00426
1.00182
1.00174
1.00286
1.00306
1.00301
1.00324
1.00045
0.994438
0.987212
0.988604
0.99627
1.00745
1.00278
1.00195
1.00148
1.00142
1.00184
1.00191
1.00162
1.00131
1.00083
1.00072
1.0063
1.04147
1.12238
1.00041
0.999688
0.989236
0.968852
0.981153
0.998717
0.999758
0.999732
1.00001
1.00015
1.00083
1.00112
1.00329
1.10206
1.31249
1.62397
2.01166
2.27823
2.41531
1.03101
1.02986
1.02814
1.01842
1.02974
1.03987
1.06654
1.09677
1.17943
1.32126
1.4925
1.65446
1.9089
2.40933
2.77746
2.97676
2.98936
2.99446
2.99331
2.34324
2.23758
2.21832
2.26888
2.31949
2.32991
2.38436
2.4748
2.62351
2.76835
2.8739
2.9761
2.99832
2.99897
2.99908
2.99931
2.99987
3
3
2.9986
2.99669
2.98473
2.97862
2.97617
2.99098
2.99608
2.99425
2.99383
2.99148
2.99583
2.99637
2.99992
2.99998
2.99997
2.99998
2.99999
3
2.99995
3
3
3
2.99999
2.99999
3
3
3
3
3
3
2.99908
2.99987
2.99997
2.99993
2.99969
2.99963
2.99983
2.9998
2.9999
2.9999
2.99992
2.99995
2.99997
2.99999
3
3
3
3
2.99997
2.99987
2.99947
2.9998
2.99997
2.99966
2.99962
2.99962
2.99987
2.99998
2.99996
2.99997
2.99996
2.99996
2.99998
3
3
2.99999
2.99998
2.99999
3
2.99999
2.99998
2.99999
2.99974
2.99962
2.99973
2.99991
3
3
2.99999
2.99999
2.99999
3
3
2.99999
2.99994
2.99994
2.99998
2.99999
2.99998
2.99997
2.99997
2.99972
2.99962
2.99992
2.99991
3
3
3
2.99999
2.99999
2.99997
2.99994
2.99989
2.99989
2.99993
2.99998
2.99996
2.99985
2.99988
2.99991
2.99993
2.99995
2.99995
2.99991
2.99998
2.99998
2.99999
2.99997
2.99992
2.99987
2.99987
2.99987
2.99989
2.99998
2.99999
2.99988
2.99978
2.99979
2.99998
2.99999
2.99998
2.99994
2.99992
2.99986
2.99987
2.9999
2.99988
2.99986
2.99987
2.99987
2.99988
2.99999
2.99999
2.99997
2.9998
2.99978
2.9998
2.99996
2.99996
2.99994
2.99995
2.99999
2.99982
2.99984
2.99986
2.99987
2.99987
2.99989
2.99992
2.99992
2.9999
2.99996
2.99996
2.99987
2.99982
2.99986
2.99986
2.99988
2.99994
2.99999
2.99999
2.99984
2.99991
2.99987
2.99987
2.99987
2.99989
2.99994
2.99993
2.99989
2.99989
2.99989
2.99996
2.99996
2.99995
2.99996
2.99996
2.99995
2.99998
2.99999
2.99996
2.99999
2.99996
2.99987
2.9999
2.99998
2.99998
2.99996
2.99992
2.99991
2.99989
2.9999
2.99998
2.99998
2.99998
2.99996
2.99994
2.99996
2.99999
3
3
3
2.99999
2.99999
2.99998
2.99998
2.99999
3
2.99999
2.99997
2.99998
2.99996
2.99997
2.99995
2.99994
2.99994
2.99997
3
3
3
3
3
3
3
2.99999
3
3
3
3
3
3
2.99996
2.99994
2.99994
2.99995
2.99999
3
3
3
3
3
3
3
3
3
3
3
3
3
3
3
2.99999
2.99995
2.99998
3
3
3
3
3
3
3
3
3
3
3
3
3
3
3
3
3
3
3
3
2.99999
3
3
3
3
3
3
3
3
3
3
3
3
3
3
3
3
3
3
3
3
3
3
3
3
3
3
3
3
3
3
3
3
3
3
3
3
3
3
3
3
3
3
3
3
3
3
3
3
3
3
3
3
3
3
3
3
2.99999
3
3
3
3
3
3
3
3
3
3
3
3
3
3
3
3
3
3
3
3
3
3
3
3
3
3
3
3
3
3
3
3
3
3
3
3
3
3
3
3
3
3
3
3
3
3
3
3
3
3
3
3
3
3
3
3
3
3
3
3
3
3
3
3
3
3
3
3
3
3
3
3
3
3
3
3
3
3
3
3
3
3
3
3
3
3
3
3
3
3
3
3
3
3
3
3
3
3
3
3
3
3
3
3
3
3
3
3
3
3
3
3
3
3
3
3
3
3
3
3
3
3
3
3
3
3
3
3
3
3
3
3
3
3
3
3
3
3
3
3
3
3
3
3
3
3
3
3
3
3
3
3
3
3
3
3
3
3
3
3
3
3
3
2.99999
3
3
3
3
3
3
3
3
3
3
3
3
3
3
3
3
3
3
2.99999
2.99999
3
3
3
3
3
3
3
3
3
3
3
3
3
3
3
3
3
3
2.99999
2.99999
3
3
3
3
3
3
3
3
3
3
3
3
3
3
3
3
3
2.99999
2.99999
2.99999
3
3
3
2.99999
3
3
3
3
3
3
3
3
3
3
3
3
3
2.99999
2.99999
2.99999
3
3
2.99999
3
3
3
3
3
3
3
3
3
3
3
3
3
3
3
2.99999
3
3
2.99999
3
3
3
3
3
3
3
3
3
3
3
3
3
3
3
3
2.99999
3
3
)
;

boundaryField
{
    leftWall
    {
        type            calculated;
        value           nonuniform List<scalar> 
50
(
2
2
2
2
1.95171
0.683934
0.00404421
0.00163154
0.00903059
0.107021
0.778835
1.01988
1.00052
1.00041
1.04459
2.29374
2.99939
3
3
3
3
3
3
3
3
3
3
3
3
3
3
3
3
3
3
3
3
3
3
3
3
3
3
3
3
3
3
3
3
3
)
;
    }
    rightWall
    {
        type            calculated;
        value           nonuniform List<scalar> 
50
(
1.97144
1.89276
1.43873
0.576374
0.242617
0.105982
0.192604
0.25552
0.280489
0.211866
0.159718
0.678492
1.00324
1.12238
2.41531
2.99331
3
2.99995
2.9998
2.99987
2.99991
2.99991
2.99991
2.99992
2.99999
2.99999
2.99999
2.99999
3
3
3
2.99999
3
3
2.99999
3
3
3
3
3
3
3
3
3
3
3
2.99999
2.99999
2.99999
3
)
;
    }
    lowerWall
    {
        type            calculated;
        value           nonuniform List<scalar> 
62
(
2
2
2
2
2
2
2
2
2
2
2
2
2
2
2
2
2
2
2
2
1.99997
1.99996
1.99996
1.99996
1.99998
2
2
2
2.00037
1.97058
1.24827
0.0300093
0.0301645
0.0197955
0.0162939
1.96034
1.97118
1.83249
1.58644
0.44845
0.259343
0.0540953
0.0130702
1.96034
1.96522
1.97526
1.97372
1.97158
1.96497
1.96295
1.96282
1.96247
1.96146
1.96056
1.96137
1.96735
1.96781
1.96782
1.96818
1.97093
1.97179
1.97144
)
;
    }
    atmosphere
    {
        type            calculated;
        value           nonuniform List<scalar> 
46
(
3
3
3
3
3
3
3
3
3
3
3
3
3
3
3
3
3
3
3
3
3
3
3
3
3
3
3
3
3
3
3
3
3
3
3
3
3
3
3
3
3
3
3
2.99999
3
3
)
;
    }
    defaultFaces
    {
        type            empty;
    }
}


// ************************************************************************* //
