/*--------------------------------*- C++ -*----------------------------------*\
| =========                 |                                                 |
| \\      /  F ield         | OpenFOAM: The Open Source CFD Toolbox           |
|  \\    /   O peration     | Version:  2312                                  |
|   \\  /    A nd           | Website:  www.openfoam.com                      |
|    \\/     M anipulation  |                                                 |
\*---------------------------------------------------------------------------*/
FoamFile
{
    version     2.0;
    format      ascii;
    arch        "LSB;label=32;scalar=64";
    class       volVectorField;
    location    "5.8";
    object      U;
}
// * * * * * * * * * * * * * * * * * * * * * * * * * * * * * * * * * * * * * //

dimensions      [0 1 -1 0 0 0 0];

internalField   nonuniform List<vector> 
2268
(
(0.00482136 -0.00286824 0)
(0.00725429 -0.00107966 0)
(0.00953287 -0.00068426 0)
(0.0115361 -0.000512074 0)
(0.013203 -0.000373873 0)
(0.0144329 -0.000230076 0)
(0.0151459 -8.15335e-05 0)
(0.0153125 6.26184e-05 0)
(0.0149292 0.000205979 0)
(0.0139999 0.00034625 0)
(0.0125565 0.000473183 0)
(0.0106181 0.000593063 0)
(0.00821063 0.000704021 0)
(0.00542734 0.000790715 0)
(0.00241022 0.000821772 0)
(-0.000630601 0.000769934 0)
(-0.00319467 0.000539919 0)
(-0.00503292 0.000634962 0)
(-0.00676311 0.000598159 0)
(-0.00821765 0.000604695 0)
(-0.00841632 0.000435915 0)
(-0.00816159 0.000304984 0)
(-0.00618346 -0.00196244 0)
(0.000479456 -0.00315514 0)
(0.00331043 -0.00156559 0)
(0.00551653 -0.00147163 0)
(0.00767922 -0.00131326 0)
(0.00945381 -0.00105146 0)
(0.010748 -0.000712145 0)
(0.011522 -0.000323646 0)
(0.0117783 6.64612e-05 0)
(0.0115133 0.000478188 0)
(0.0107175 0.000873904 0)
(0.00941922 0.00122461 0)
(0.0076326 0.00157424 0)
(0.0053701 0.00188643 0)
(0.00271461 0.00210391 0)
(-0.000190672 0.0021848 0)
(-0.00315233 0.00195356 0)
(-0.00540517 0.00138046 0)
(-0.00687463 0.00124267 0)
(-0.00833066 0.000982279 0)
(-0.00940714 0.000352092 0)
(-0.00888531 -0.000475658 0)
(-0.00774491 -0.000993715 0)
(-0.00410883 -0.0050161 0)
(-5.33449e-06 -0.00389715 0)
(0.00259981 -0.00299897 0)
(0.00471085 -0.00263249 0)
(0.00680133 -0.00226361 0)
(0.0084594 -0.00181329 0)
(0.00962338 -0.00128617 0)
(0.010275 -0.000678493 0)
(0.0104389 -7.27973e-05 0)
(0.0100625 0.000611543 0)
(0.00911939 0.00127435 0)
(0.00769415 0.00185745 0)
(0.00579821 0.00248734 0)
(0.00339784 0.00305855 0)
(0.000590574 0.00343307 0)
(-0.00250485 0.00354601 0)
(-0.00560516 0.0031777 0)
(-0.00766081 0.00225242 0)
(-0.00870844 0.00194045 0)
(-0.0098856 0.00176593 0)
(-0.0105642 0.000401003 0)
(-0.00910913 -0.00105185 0)
(-0.00736255 -0.00219748 0)
(-0.00253187 -0.00808438 0)
(0.000765296 -0.00435152 0)
(0.00336423 -0.0039074 0)
(0.00572504 -0.00344946 0)
(0.00792282 -0.00287548 0)
(0.00965212 -0.0021835 0)
(0.010934 -0.00141656 0)
(0.0117165 -0.000553628 0)
(0.0119194 0.000291742 0)
(0.0113474 0.00122761 0)
(0.010001 0.00202533 0)
(0.00815336 0.00264748 0)
(0.00587411 0.00343436 0)
(0.00306406 0.00422118 0)
(-0.000171024 0.00486839 0)
(-0.00372377 0.00512604 0)
(-0.00733273 0.00465554 0)
(-0.00942298 0.00300662 0)
(-0.0100878 0.00262225 0)
(-0.0112493 0.00235645 0)
(-0.0116292 0.000196625 0)
(-0.00894378 -0.00199163 0)
(-0.00641032 -0.00338855 0)
(-0.000825703 -0.00956826 0)
(0.0016307 -0.00657319 0)
(0.00450623 -0.00620784 0)
(0.00732236 -0.00561338 0)
(0.00998597 -0.00482643 0)
(0.0123735 -0.00389816 0)
(0.0144506 -0.00287462 0)
(0.0159342 -0.00157442 0)
(0.0164331 5.28158e-05 0)
(0.0154715 0.00180629 0)
(0.0131864 0.00338584 0)
(0.010318 0.00454115 0)
(0.00714594 0.005868 0)
(0.00346401 0.00700341 0)
(-0.000469559 0.0075338 0)
(-0.00464201 0.00736333 0)
(-0.00920851 0.00600295 0)
(-0.0120542 0.00308876 0)
(-0.0128302 0.00267324 0)
(-0.0141603 0.0026387 0)
(-0.0139798 2.29376e-05 0)
(-0.0095244 -0.00361996 0)
(-0.0055871 -0.00559905 0)
(0.000926052 -0.0113924 0)
(0.00229034 -0.0088214 0)
(0.0059851 -0.00828635 0)
(0.00945922 -0.00752798 0)
(0.0128927 -0.00665256 0)
(0.0163877 -0.00573479 0)
(0.0193609 -0.00480419 0)
(0.0212388 -0.00336289 0)
(0.0220867 -0.00107378 0)
(0.0217566 0.000986565 0)
(0.0200864 0.00205405 0)
(0.0162196 0.00246833 0)
(0.0121703 0.00351119 0)
(0.00819648 0.00458442 0)
(0.00286308 0.00585314 0)
(-0.00407226 0.00739231 0)
(-0.0124662 0.0077343 0)
(-0.020409 0.00524522 0)
(-0.0251766 0.00394716 0)
(-0.0245023 0.00143856 0)
(-0.0197703 -0.00411432 0)
(-0.0123751 -0.00799209 0)
(-0.0062509 -0.00881566 0)
(0.00194192 -0.0130005 0)
(0.00513548 -0.00887441 0)
(0.0150327 -0.00748498 0)
(0.0220204 -0.00576401 0)
(0.0269602 -0.00456658 0)
(0.0311785 -0.00278169 0)
(0.0307654 7.75861e-05 0)
(0.022837 0.00241638 0)
(0.0126856 0.00314324 0)
(0.00225388 0.00586491 0)
(-0.00927216 0.0104719 0)
(-0.0329993 0.0142854 0)
(-0.0448891 0.0125068 0)
(-0.044841 0.0122186 0)
(-0.0403113 0.0127441 0)
(-0.0333172 0.0126125 0)
(-0.0304687 0.011169 0)
(-0.0347825 0.00735849 0)
(-0.0361028 0.00582091 0)
(-0.0312222 0.0037483 0)
(-0.0259321 -0.00172262 0)
(-0.0198134 -0.00782104 0)
(-0.0109568 -0.0109814 0)
(0.00116359 -0.0123471 0)
(0.000421094 -0.015021 0)
(0.00469698 -0.0137492 0)
(0.00633707 -0.0108609 0)
(0.00750623 -0.0108448 0)
(0.010047 -0.00931957 0)
(0.0112526 -0.0033513 0)
(0.00761301 0.00187829 0)
(0.000584814 0.00430753 0)
(-0.0176289 0.00829242 0)
(-0.0267745 0.0135075 0)
(-0.0375051 0.0167374 0)
(-0.0474399 0.00991024 0)
(-0.0584228 0.00711924 0)
(-0.0639807 0.00675102 0)
(-0.0665195 0.00931353 0)
(-0.0803904 0.0164267 0)
(-0.100675 0.0131978 0)
(-0.105331 0.00135453 0)
(-0.0909152 -0.00631742 0)
(-0.0714414 -0.0101842 0)
(-0.0496946 -0.0136055 0)
(-0.0288853 -0.0141616 0)
(-0.0068667 -0.0129591 0)
(-0.0285034 0.00956409 0)
(-0.0478255 0.00424485 0)
(-0.0603038 0.00183534 0)
(-0.0630848 0.000133958 0)
(-0.0600852 -0.00107007 0)
(-0.0537026 -0.00156308 0)
(-0.0465313 -0.00158531 0)
(-0.0397925 -0.00139997 0)
(-0.033857 -0.00123624 0)
(-0.0297678 -0.000756359 0)
(-0.028415 -0.00106013 0)
(-0.026724 -0.00232166 0)
(-0.0218825 -0.00290752 0)
(-0.0151523 -0.00288134 0)
(-0.00934413 -0.00177104 0)
(-0.00419308 -0.00155795 0)
(0.00159757 -0.00110873 0)
(0.00601665 -0.00024836 0)
(0.00442524 0.0018598 0)
(-0.0206801 0.0223756 0)
(-0.0421157 0.0116659 0)
(-0.0573661 0.00468124 0)
(-0.0618217 -9.07689e-05 0)
(-0.0607783 -0.00323268 0)
(-0.0561659 -0.00475223 0)
(-0.0501076 -0.00508253 0)
(-0.0439502 -0.00445163 0)
(-0.0382852 -0.00388205 0)
(-0.0329431 -0.00162853 0)
(-0.0289797 0.000237393 0)
(-0.0250259 -0.000540009 0)
(-0.0195768 -0.00219181 0)
(-0.01396 -0.00283546 0)
(-0.00946259 -0.00200759 0)
(-0.00588297 -0.00317414 0)
(-0.00177981 -0.00350265 0)
(-0.00176411 -0.00106361 0)
(-0.000651489 0.00312241 0)
(-0.0258787 0.0327379 0)
(-0.0538955 0.0207421 0)
(-0.0707585 0.00949586 0)
(-0.073433 0.00126989 0)
(-0.0702999 -0.00425306 0)
(-0.0657384 -0.00724278 0)
(-0.0622405 -0.00818294 0)
(-0.060374 -0.00761267 0)
(-0.0591998 -0.00692599 0)
(-0.0539299 -0.00442408 0)
(-0.041642 -0.00291667 0)
(-0.0297462 -0.00600388 0)
(-0.0204476 -0.00727454 0)
(-0.0116539 -0.00677698 0)
(-0.00124085 -0.00511577 0)
(0.00028027 -0.00548803 0)
(-0.00590209 -0.00399666 0)
(-0.0145673 -0.000921234 0)
(-0.00493383 -0.000735793 0)
(-0.0417681 0.0523683 0)
(-0.0753227 0.0312372 0)
(-0.0955019 0.0112991 0)
(-0.0898194 -0.00220016 0)
(-0.0666341 -0.00811679 0)
(-0.0549497 -0.00785608 0)
(-0.0584915 -0.00436488 0)
(-0.0686265 -0.00117957 0)
(-0.0739966 -0.00150812 0)
(-0.0519853 -0.00765652 0)
(0.027643 -0.011049 0)
(0.0747006 -0.00433297 0)
(0.047479 -0.0094132 0)
(0.0272453 -0.0117045 0)
(0.0537977 -0.00673292 0)
(0.0198186 0.00235312 0)
(-0.0334006 0.00415826 0)
(0.0122085 0.000713266 0)
(0.0286346 -0.00106326 0)
(-0.0514461 0.0766509 0)
(-0.0788151 0.051026 0)
(-0.0831825 0.0168488 0)
(-0.0605077 -0.0113593 0)
(-0.0451694 -0.0138335 0)
(-0.0803915 -0.00436992 0)
(-0.109718 -0.00226408 0)
(-0.107971 -0.00534188 0)
(-0.0856792 -0.015092 0)
(-0.0364139 -0.0477147 0)
(0.0577239 -0.0722381 0)
(0.141903 -0.0145882 0)
(0.13569 0.0088605 0)
(0.0794904 -0.00559417 0)
(0.0897977 -0.0106643 0)
(0.0513336 0.0414223 0)
(-0.0621688 -0.000692277 0)
(0.0550512 -0.040239 0)
(0.0731553 0.0173565 0)
(-0.069783 0.112013 0)
(-0.0806834 0.0564373 0)
(-0.0781429 0.00911459 0)
(-0.0603659 -0.0192071 0)
(-0.034631 -0.0135875 0)
(-0.0350616 0.01861 0)
(-0.0684777 0.00585116 0)
(-0.0701937 -0.0101342 0)
(-0.0567059 -0.0263911 0)
(-0.00524257 -0.0768025 0)
(0.0334406 -0.104374 0)
(0.0902805 -0.0286617 0)
(0.109568 0.0200841 0)
(0.0818102 0.00441853 0)
(0.0627966 -0.00768062 0)
(0.0375996 0.0656323 0)
(0.0302986 -0.00460019 0)
(0.0540832 -0.0473374 0)
(0.0684381 0.0494296 0)
(-0.071718 0.136875 0)
(-0.073389 0.0552278 0)
(-0.0806347 0.00476551 0)
(-0.0696958 -0.0286582 0)
(-0.0527564 -0.0292352 0)
(-0.0171595 0.0162477 0)
(-0.0312043 0.0104465 0)
(-0.035411 -0.0114591 0)
(-0.0257321 -0.0337107 0)
(0.0122525 -0.092878 0)
(0.00459223 -0.111404 0)
(0.0130417 -0.0410889 0)
(0.0796283 0.0204037 0)
(0.0663477 0.00877877 0)
(0.0301451 -0.000630545 0)
(0.0156593 0.0761032 0)
(0.0423154 -0.0166487 0)
(0.0496952 -0.0500122 0)
(0.0677003 0.0727612 0)
(-0.0738869 0.172408 0)
(-0.0711636 0.0613951 0)
(-0.0749111 0.00620391 0)
(-0.0712857 -0.0301334 0)
(-0.0692254 -0.0376862 0)
(-0.0282936 0.00513689 0)
(-0.0139129 0.0144086 0)
(-0.0101162 -0.0110761 0)
(0.00695542 -0.0386446 0)
(0.00896927 -0.0888569 0)
(-0.0347721 -0.0981466 0)
(-0.0495893 -0.055857 0)
(0.0337736 0.00759488 0)
(0.00718644 0.0181191 0)
(-0.0304665 0.0152267 0)
(-0.00860276 0.0702621 0)
(0.0448859 -0.0344587 0)
(0.0287456 -0.0527272 0)
(0.0614992 0.0935128 0)
(-0.00408028 -0.0180975 0)
(-0.00509367 -0.0165735 0)
(-0.00756786 -0.0110864 0)
(-0.00806302 -0.00963424 0)
(-0.0125102 -0.00388358 0)
(-0.0210067 0.00795899 0)
(-0.0298003 0.0183713 0)
(-0.0358024 0.0189611 0)
(-0.0381479 0.0212909 0)
(-0.0447657 0.0272696 0)
(-0.0582364 0.0317379 0)
(-0.0727988 0.0271619 0)
(-0.0844749 0.0200442 0)
(-0.0924432 0.0131813 0)
(-0.0974509 0.0129844 0)
(-0.0987996 0.0186936 0)
(-0.100547 0.0168524 0)
(-0.106935 0.00238073 0)
(-0.115436 -0.0157541 0)
(-0.123385 -0.0315142 0)
(-0.129322 -0.0496626 0)
(-0.127221 -0.0595526 0)
(-0.118167 -0.0426788 0)
(0.00102601 -0.00385112 0)
(0.00312728 -0.00594599 0)
(0.00154915 -0.00615027 0)
(-0.00202509 -0.00755758 0)
(-0.0139267 -2.05775e-05 0)
(-0.0247029 0.00782959 0)
(-0.0275656 0.010093 0)
(-0.028477 0.00826583 0)
(-0.0322237 0.0130951 0)
(-0.0373591 0.0266645 0)
(-0.0491902 0.0358114 0)
(-0.0663256 0.0326445 0)
(-0.0825758 0.023922 0)
(-0.0976065 0.0193409 0)
(-0.111713 0.0197937 0)
(-0.119587 0.0226602 0)
(-0.125847 0.0231898 0)
(-0.133562 0.0171231 0)
(-0.145263 0.0116786 0)
(-0.163892 0.0073957 0)
(-0.190687 0.000493062 0)
(-0.222357 -0.00947635 0)
(-0.247799 -0.00739805 0)
(0.00645614 -0.0188188 0)
(0.0163782 -0.0140431 0)
(0.0237206 -0.00460757 0)
(0.019027 0.0082686 0)
(0.00660932 0.0191053 0)
(0.00259763 0.0234898 0)
(0.00572731 0.019008 0)
(0.00735746 0.0202214 0)
(-0.00485303 0.0267136 0)
(-0.0361594 0.046108 0)
(-0.0623942 0.0621463 0)
(-0.08761 0.062214 0)
(-0.112637 0.0505265 0)
(-0.132731 0.0395431 0)
(-0.146584 0.0328618 0)
(-0.154939 0.0301601 0)
(-0.160755 0.0296602 0)
(-0.168035 0.024535 0)
(-0.179559 0.0229127 0)
(-0.196782 0.0251076 0)
(-0.220974 0.024931 0)
(-0.248205 0.0161872 0)
(-0.262626 0.00394315 0)
(0.00131963 -0.0287343 0)
(0.00426735 -0.0245292 0)
(0.00924243 -0.0108791 0)
(0.0123239 0.0128402 0)
(0.0149611 0.0189714 0)
(0.0225656 0.0112673 0)
(0.0294906 0.00877038 0)
(0.0150138 0.0274589 0)
(-0.0280514 0.0649845 0)
(-0.062295 0.0841274 0)
(-0.0843698 0.0864868 0)
(-0.0970481 0.0827573 0)
(-0.111024 0.0711943 0)
(-0.13062 0.0572957 0)
(-0.153061 0.047927 0)
(-0.173816 0.0404472 0)
(-0.189464 0.037623 0)
(-0.20351 0.0345158 0)
(-0.216258 0.0364226 0)
(-0.224574 0.0403964 0)
(-0.230484 0.0397658 0)
(-0.237951 0.0261308 0)
(-0.239974 -0.00906286 0)
(0.00156646 -0.0280232 0)
(0.000795394 -0.0242077 0)
(-0.000971904 -0.012335 0)
(0.00259381 0.00325709 0)
(0.0083357 0.00589797 0)
(0.0106986 0.00224192 0)
(0.00443384 0.0254253 0)
(-0.0176829 0.0703569 0)
(-0.0448033 0.088817 0)
(-0.0577853 0.10179 0)
(-0.0664058 0.0942817 0)
(-0.0755497 0.0900869 0)
(-0.0913169 0.0856935 0)
(-0.11367 0.0789211 0)
(-0.139613 0.0723777 0)
(-0.164912 0.0630404 0)
(-0.187058 0.0548756 0)
(-0.204531 0.0480778 0)
(-0.215172 0.0436396 0)
(-0.21603 0.0404734 0)
(-0.206573 0.0354886 0)
(-0.191456 0.0243878 0)
(-0.182131 -0.00453973 0)
(-0.00181828 -0.0277337 0)
(-0.00420699 -0.0213727 0)
(-0.00757726 -0.0084469 0)
(-0.00700789 0.00704254 0)
(-0.0087599 0.0134846 0)
(-0.0189946 0.0163804 0)
(-0.0246862 0.0378383 0)
(-0.0240307 0.0862539 0)
(-0.0294069 0.101542 0)
(-0.031495 0.110773 0)
(-0.0366964 0.107784 0)
(-0.0525566 0.110308 0)
(-0.0747533 0.112573 0)
(-0.100416 0.110706 0)
(-0.12672 0.104222 0)
(-0.151289 0.0928065 0)
(-0.172372 0.0793251 0)
(-0.189296 0.0657181 0)
(-0.201772 0.052113 0)
(-0.207278 0.0369313 0)
(-0.203142 0.0200458 0)
(-0.191647 0.00409744 0)
(-0.180698 -0.0037611 0)
(-0.00329979 -0.0337113 0)
(-0.00651554 -0.0288434 0)
(-0.00724164 -0.018698 0)
(-0.000159579 -0.00280451 0)
(0.00387827 0.0130178 0)
(-0.00511359 0.0224111 0)
(-0.0210253 0.0343208 0)
(-0.0181073 0.0750341 0)
(-0.00776305 0.0934596 0)
(-0.0048858 0.104055 0)
(-0.0120509 0.112295 0)
(-0.0327552 0.122879 0)
(-0.0592491 0.128864 0)
(-0.0868307 0.127272 0)
(-0.112963 0.119286 0)
(-0.13555 0.105481 0)
(-0.153351 0.0893933 0)
(-0.166424 0.0737353 0)
(-0.176199 0.0592936 0)
(-0.183314 0.0413861 0)
(-0.187437 0.0180502 0)
(-0.189888 -0.00535928 0)
(-0.18909 -0.0188435 0)
(-0.0036843 -0.03234 0)
(-0.00811185 -0.0301571 0)
(-0.00795996 -0.0239338 0)
(-0.00272802 -0.00966541 0)
(0.00647192 0.0143204 0)
(0.0111316 0.0348071 0)
(0.0110341 0.0479457 0)
(0.0141259 0.0734918 0)
(0.0260112 0.0935352 0)
(0.0316937 0.111529 0)
(0.0206879 0.13181 0)
(-0.012512 0.149895 0)
(-0.0513596 0.154992 0)
(-0.0900448 0.149931 0)
(-0.125695 0.137047 0)
(-0.154952 0.117388 0)
(-0.173535 0.0961796 0)
(-0.180359 0.0762817 0)
(-0.178539 0.0596317 0)
(-0.172456 0.0419384 0)
(-0.166351 0.0229862 0)
(-0.168082 0.00555177 0)
(-0.175338 -0.00988427 0)
(-0.00416412 0.000765032 0)
(0.00527399 -0.00350247 0)
(-0.0272539 -0.000559211 0)
(-0.15043 0.00133815 0)
(-0.0532382 -0.0057433 0)
(0.0148918 0.0175726 0)
(0.0457303 0.0313058 0)
(0.0577957 0.0545976 0)
(0.0734677 0.0821221 0)
(0.0803598 0.113981 0)
(0.0662378 0.147216 0)
(0.0326151 0.174325 0)
(-0.0126121 0.184675 0)
(-0.062465 0.181145 0)
(-0.112032 0.169375 0)
(-0.167914 0.142748 0)
(-0.227497 0.108346 0)
(-0.276252 0.0731728 0)
(-0.29798 0.0492316 0)
(-0.302348 0.0271833 0)
(-0.302116 0.0102272 0)
(-0.292656 0.00070413 0)
(-0.279582 -0.0150845 0)
(0.0207263 -0.0103337 0)
(0.0421885 0.000427367 0)
(0.0657508 0.05176 0)
(0.081206 0.0891286 0)
(0.0115287 -0.0934159 0)
(-0.109333 -0.0325017 0)
(0.0112172 0.00711804 0)
(0.094001 0.0387409 0)
(0.140188 0.0700828 0)
(0.120381 0.124577 0)
(0.0833671 0.19385 0)
(0.0707114 0.255981 0)
(0.0523146 0.289227 0)
(-0.00975916 0.335714 0)
(-0.0386145 0.296032 0)
(-0.0619068 0.257395 0)
(-0.120766 0.202903 0)
(-0.129899 0.146268 0)
(-0.146122 0.0827383 0)
(-0.0988554 0.0421744 0)
(-0.108986 0.012052 0)
(-0.130887 0.00326608 0)
(-0.243894 0.00368841 0)
(0.0017133 -0.058304 0)
(-0.00500038 -0.0309172 0)
(-0.00506891 0.0186078 0)
(0.00690424 0.0590593 0)
(-0.00252622 0.0602903 0)
(-0.0204956 -0.0289018 0)
(-0.0508721 -0.13104 0)
(-0.0809556 -0.11364 0)
(-0.0474071 0.0152137 0)
(-0.00138551 0.190958 0)
(0.00203493 0.213689 0)
(-0.0180019 0.23624 0)
(-0.0275559 0.327608 0)
(0.0439603 0.329758 0)
(0.111337 0.181515 0)
(0.127002 0.267055 0)
(0.122704 0.211613 0)
(0.121933 0.158055 0)
(0.116624 0.071299 0)
(0.0943698 0.0598435 0)
(0.102672 0.0331962 0)
(0.144262 0.0493502 0)
(0.187593 0.11758 0)
(-0.019393 -0.0372357 0)
(-0.0303443 -0.010004 0)
(-0.0300127 0.0182216 0)
(-0.0148497 0.0453203 0)
(0.000510022 0.0414101 0)
(-0.00322151 0.0377314 0)
(-0.0448913 0.0230725 0)
(-0.097624 0.0136545 0)
(-0.128181 0.0108418 0)
(-0.0969565 0.0592742 0)
(-0.0443187 0.158164 0)
(-0.0456002 0.190928 0)
(-0.0184958 0.17133 0)
(0.0618389 0.0700197 0)
(0.0972222 0.206716 0)
(0.108561 0.204673 0)
(0.132342 0.190508 0)
(0.138516 0.142822 0)
(0.129223 0.0932265 0)
(0.119261 0.0475971 0)
(0.139753 -0.0177291 0)
(0.181362 -0.0326744 0)
(0.245255 -0.00206559 0)
(-0.0187249 -0.0101095 0)
(-0.0312097 0.000789452 0)
(-0.0367274 0.0119636 0)
(-0.0310887 0.0164559 0)
(-0.0238279 0.0150626 0)
(-0.0232645 0.00841999 0)
(-0.0323413 0.00543576 0)
(-0.0483953 0.0193482 0)
(-0.071173 0.0550819 0)
(-0.0844986 0.108933 0)
(-0.0558571 0.183335 0)
(-0.0242184 0.237431 0)
(0.019419 0.228613 0)
(0.0311939 0.214622 0)
(0.0330462 0.214252 0)
(0.0644663 0.202723 0)
(0.0921947 0.174342 0)
(0.104938 0.143913 0)
(0.108138 0.0996171 0)
(0.126497 0.0310573 0)
(0.147238 -0.0398934 0)
(0.167873 -0.0626297 0)
(0.203972 -0.051169 0)
(-0.00833353 -0.00103512 0)
(-0.0148902 0.00444717 0)
(-0.0198607 0.0113932 0)
(-0.0232796 0.022126 0)
(-0.0264313 0.0272541 0)
(-0.0313876 0.0285716 0)
(-0.0394741 0.0286993 0)
(-0.0497898 0.031234 0)
(-0.0609878 0.0416657 0)
(-0.0694422 0.0708044 0)
(-0.0586166 0.125449 0)
(-0.0258308 0.161095 0)
(0.00733419 0.153188 0)
(0.019851 0.138958 0)
(0.0336106 0.155356 0)
(0.0577428 0.155525 0)
(0.0760767 0.147823 0)
(0.0858768 0.135991 0)
(0.100896 0.0821834 0)
(0.120985 0.00661021 0)
(0.124125 -0.0518808 0)
(0.123807 -0.0729022 0)
(0.127121 -0.0636647 0)
(-0.00543811 0.0166005 0)
(-0.0111222 0.0186759 0)
(-0.0166533 0.0212717 0)
(-0.0212771 0.0253641 0)
(-0.024704 0.0293894 0)
(-0.0293736 0.0334847 0)
(-0.0351747 0.03854 0)
(-0.0420485 0.0457721 0)
(-0.0486564 0.0569571 0)
(-0.0519813 0.0748609 0)
(-0.0439785 0.105139 0)
(-0.0198803 0.129942 0)
(0.00534793 0.133006 0)
(0.0200332 0.134406 0)
(0.0352877 0.142272 0)
(0.0532713 0.142067 0)
(0.0667893 0.137818 0)
(0.0791381 0.124285 0)
(0.0962569 0.0693371 0)
(0.0987381 0.00531919 0)
(0.0806828 -0.045692 0)
(0.0675188 -0.0641317 0)
(0.0569132 -0.053162 0)
(-0.00376318 0.0170371 0)
(-0.00830683 0.0189137 0)
(-0.0127365 0.0224706 0)
(-0.0175157 0.0278965 0)
(-0.021486 0.0328304 0)
(-0.0252405 0.0377745 0)
(-0.0286066 0.0436964 0)
(-0.0319936 0.0516058 0)
(-0.0345774 0.0626682 0)
(-0.0345038 0.0774819 0)
(-0.027694 0.0967465 0)
(-0.0113601 0.113151 0)
(0.00723441 0.119708 0)
(0.021318 0.123496 0)
(0.035712 0.12785 0)
(0.0505487 0.129089 0)
(0.0629152 0.126045 0)
(0.0754593 0.109757 0)
(0.0839577 0.0677635 0)
(0.0704275 0.0198428 0)
(0.0434641 -0.0294315 0)
(0.0309264 -0.0529615 0)
(0.0198709 -0.0349993 0)
(-0.00296921 0.0244567 0)
(-0.00756904 0.0255199 0)
(-0.0118337 0.0283345 0)
(-0.0156696 0.0321167 0)
(-0.0186266 0.0359423 0)
(-0.0209187 0.0404456 0)
(-0.0224562 0.0458093 0)
(-0.0234219 0.0526543 0)
(-0.0232906 0.0616621 0)
(-0.0209624 0.0729831 0)
(-0.0146522 0.0863649 0)
(-0.00321237 0.0980276 0)
(0.0108815 0.104647 0)
(0.0237187 0.108868 0)
(0.0369562 0.112544 0)
(0.0503417 0.11487 0)
(0.0625283 0.112979 0)
(0.0734383 0.100913 0)
(0.0769434 0.075517 0)
(0.0602493 0.0436264 0)
(0.0292122 -0.0112896 0)
(0.0126686 -0.0431756 0)
(0.00851363 -0.0178657 0)
(-0.00251778 0.0286306 0)
(-0.00668844 0.0290759 0)
(-0.0104449 0.0316129 0)
(-0.0135088 0.0347791 0)
(-0.0155711 0.0381011 0)
(-0.0167835 0.0418764 0)
(-0.0170318 0.0464239 0)
(-0.0164303 0.0521106 0)
(-0.0146937 0.0592953 0)
(-0.0111392 0.0678566 0)
(-0.00512434 0.0773671 0)
(0.00413192 0.0858096 0)
(0.0154254 0.0916211 0)
(0.0269228 0.0957762 0)
(0.0389676 0.0990855 0)
(0.0514563 0.101461 0)
(0.0637571 0.100948 0)
(0.0745252 0.0949804 0)
(0.0795174 0.0820966 0)
(0.0731552 0.0638076 0)
(0.0479314 0.0185808 0)
(0.0137145 -0.0298867 0)
(0.00761477 -0.0156672 0)
(-0.00221173 0.0327876 0)
(-0.0060157 0.0327791 0)
(-0.00933319 0.0346077 0)
(-0.0116436 0.0369337 0)
(-0.0129923 0.0393925 0)
(-0.0133561 0.0422559 0)
(-0.0126568 0.045907 0)
(-0.0110196 0.0505059 0)
(-0.00829836 0.0562556 0)
(-0.00412635 0.0628872 0)
(0.00169049 0.0698624 0)
(0.00990576 0.0761593 0)
(0.0195224 0.0808011 0)
(0.0298247 0.0843419 0)
(0.0408362 0.0870166 0)
(0.0526014 0.088879 0)
(0.0648866 0.0890802 0)
(0.0765665 0.0866782 0)
(0.0854345 0.0806588 0)
(0.0893603 0.0702131 0)
(0.0846038 0.046613 0)
(0.0585796 0.00225745 0)
(0.0290523 -0.0212622 0)
(-0.00199818 0.0364343 0)
(-0.0054546 0.0361239 0)
(-0.00850067 0.0372327 0)
(-0.0103076 0.0385413 0)
(-0.0111151 0.0399665 0)
(-0.0107967 0.0418223 0)
(-0.00939038 0.0444819 0)
(-0.00706862 0.0480488 0)
(-0.0037288 0.0526032 0)
(0.00071285 0.0577589 0)
(0.00653567 0.0630161 0)
(0.0139755 0.0677344 0)
(0.0224524 0.0713232 0)
(0.0317291 0.0740422 0)
(0.0417998 0.0759105 0)
(0.0527563 0.0769648 0)
(0.0645746 0.076892 0)
(0.0767395 0.0754158 0)
(0.0882941 0.0718024 0)
(0.0985012 0.0641659 0)
(0.10541 0.0497444 0)
(0.105685 0.0271134 0)
(0.0945273 0.00403006 0)
(-0.00187984 0.0399629 0)
(-0.00511552 0.0393447 0)
(-0.00798178 0.0395276 0)
(-0.00942816 0.0397139 0)
(-0.00981221 0.0399948 0)
(-0.00897439 0.0407782 0)
(-0.0070495 0.0423916 0)
(-0.00423741 0.0450035 0)
(-0.000548515 0.0485439 0)
(0.00403345 0.0525818 0)
(0.00978721 0.0566158 0)
(0.0165687 0.0601244 0)
(0.0241479 0.0628321 0)
(0.0324716 0.0647327 0)
(0.0415574 0.0657662 0)
(0.0514928 0.0659068 0)
(0.0623259 0.0650298 0)
(0.0739454 0.0630689 0)
(0.0860328 0.0595279 0)
(0.0979551 0.0524955 0)
(0.108185 0.0406637 0)
(0.11476 0.0240677 0)
(0.117298 0.00842277 0)
(-0.00182283 0.0433549 0)
(-0.0049484 0.0424332 0)
(-0.00769547 0.041591 0)
(-0.00887451 0.0405622 0)
(-0.00893386 0.0396132 0)
(-0.00769164 0.0392473 0)
(-0.00539952 0.0398413 0)
(-0.00224322 0.0415815 0)
(0.00166946 0.0442653 0)
(0.00628738 0.0474535 0)
(0.0118075 0.050613 0)
(0.0180085 0.0532589 0)
(0.0247849 0.0552465 0)
(0.0321692 0.056435 0)
(0.0401921 0.0567183 0)
(0.0489151 0.0560256 0)
(0.058384 0.0542819 0)
(0.0686301 0.0514681 0)
(0.0796107 0.0473283 0)
(0.0906677 0.0406468 0)
(0.100481 0.0306015 0)
(0.107688 0.0175485 0)
(0.112245 0.00294945 0)
(-0.00181642 0.0466815 0)
(-0.00489258 0.045449 0)
(-0.00755243 0.0434935 0)
(-0.00854127 0.041136 0)
(-0.00835737 0.038892 0)
(-0.00681941 0.0373417 0)
(-0.00426808 0.0369697 0)
(-0.000897467 0.0379241 0)
(0.00312255 0.0399207 0)
(0.00774802 0.0424567 0)
(0.0129462 0.0450058 0)
(0.0185672 0.0470843 0)
(0.0245917 0.0485316 0)
(0.0310533 0.0491692 0)
(0.0379802 0.0488663 0)
(0.0454073 0.0475374 0)
(0.0533491 0.0451186 0)
(0.0618371 0.0415966 0)
(0.070882 0.0368906 0)
(0.0800884 0.0305389 0)
(0.0885054 0.0220509 0)
(0.0951096 0.0115074 0)
(0.099874 0.00024855 0)
(-0.00185117 0.050005 0)
(-0.00493944 0.0484377 0)
(-0.00755788 0.0452744 0)
(-0.0084042 0.0415342 0)
(-0.00799727 0.0379316 0)
(-0.00626717 0.035193 0)
(-0.00357773 0.0339018 0)
(-0.000102511 0.0341367 0)
(0.00394551 0.035585 0)
(0.00849688 0.0376846 0)
(0.0133715 0.039814 0)
(0.018463 0.0415501 0)
(0.0237885 0.0426493 0)
(0.0293737 0.0429129 0)
(0.035242 0.0422164 0)
(0.0414122 0.0404794 0)
(0.0478697 0.0376492 0)
(0.0545946 0.0337146 0)
(0.0615598 0.0286759 0)
(0.068591 0.0224577 0)
(0.0752146 0.0149547 0)
(0.0806919 0.00618265 0)
(0.0849111 -0.00289358 0)
(-0.00192512 0.0533884 0)
(-0.0050757 0.0514388 0)
(-0.00769066 0.0469611 0)
(-0.00845489 0.0417939 0)
(-0.00789209 0.0368412 0)
(-0.00605372 0.0329416 0)
(-0.0033196 0.0307482 0)
(0.000150157 0.0303169 0)
(0.00415776 0.0312979 0)
(0.0085894 0.0331131 0)
(0.0131767 0.0350225 0)
(0.0178236 0.0365953 0)
(0.0225381 0.037527 0)
(0.0273371 0.0375942 0)
(0.0322462 0.0366884 0)
(0.0372782 0.03475 0)
(0.042407 0.0317496 0)
(0.0475874 0.0276876 0)
(0.0527543 0.0226039 0)
(0.0577939 0.016544 0)
(0.0624683 0.00960224 0)
(0.0664121 0.00199287 0)
(0.0695824 -0.00569541 0)
(-0.0020282 0.0568949 0)
(-0.00529407 0.0545049 0)
(-0.00795451 0.0486147 0)
(-0.008688 0.0419445 0)
(-0.00804367 0.0356206 0)
(-0.00620754 0.030662 0)
(-0.00353501 0.0276583 0)
(-0.000152389 0.0265526 0)
(0.00374393 0.0270962 0)
(0.00803602 0.0287212 0)
(0.0123948 0.0305601 0)
(0.0166999 0.0321226 0)
(0.0209273 0.0330488 0)
(0.0250744 0.0330924 0)
(0.0291691 0.0321447 0)
(0.0332323 0.0301737 0)
(0.0372489 0.0271834 0)
(0.0411708 0.0232028 0)
(0.044919 0.0182888 0)
(0.0483954 0.0125287 0)
(0.0514667 0.00607149 0)
(0.0539783 -0.000791518 0)
(0.0559226 -0.0075799 0)
(-0.00216198 0.0605853 0)
(-0.00560597 0.0576794 0)
(-0.00836716 0.0503023 0)
(-0.00910991 0.0420601 0)
(-0.00844095 0.0343727 0)
(-0.0067171 0.0284708 0)
(-0.00423312 0.0247001 0)
(-0.00102131 0.022952 0)
(0.00271392 0.0230508 0)
(0.00683223 0.0244695 0)
(0.0110222 0.0263332 0)
(0.0150961 0.0280006 0)
(0.018981 0.0290674 0)
(0.0226403 0.0292496 0)
(0.0260928 0.028415 0)
(0.0293733 0.0265456 0)
(0.0324922 0.0236782 0)
(0.0354209 0.0198823 0)
(0.0380986 0.0152369 0)
(0.0404558 0.00986089 0)
(0.0423999 0.00390931 0)
(0.0438219 -0.00236433 0)
(0.0448198 -0.00860208 0)
(-0.00233659 0.0645272 0)
(-0.00603033 0.061033 0)
(-0.0089607 0.0520836 0)
(-0.00974437 0.042171 0)
(-0.00908314 0.0331677 0)
(-0.00756948 0.0265223 0)
(-0.00536496 0.0219549 0)
(-0.00234833 0.0195514 0)
(0.00117026 0.0192165 0)
(0.00501522 0.0203952 0)
(0.00907104 0.0222727 0)
(0.0130179 0.0241012 0)
(0.0166981 0.0254216 0)
(0.0200427 0.0258856 0)
(0.0230393 0.0253113 0)
(0.0257275 0.0236657 0)
(0.0281522 0.0210153 0)
(0.0303156 0.0174655 0)
(0.0321889 0.0131271 0)
(0.0337388 0.00813203 0)
(0.0349102 0.00262349 0)
(0.0356481 -0.00318506 0)
(0.0360994 -0.00905434 0)
(-0.00254701 0.068797 0)
(-0.00656512 0.0646379 0)
(-0.00972827 0.0539989 0)
(-0.0105468 0.0422515 0)
(-0.0099979 0.032117 0)
(-0.00880933 0.0249086 0)
(-0.00682861 0.0194233 0)
(-0.00399613 0.0163657 0)
(-0.000706119 0.0156101 0)
(0.00288321 0.0165238 0)
(0.0066849 0.018347 0)
(0.010511 0.0203466 0)
(0.0140965 0.0219707 0)
(0.0172872 0.0228219 0)
(0.0200142 0.0226389 0)
(0.0223008 0.0213402 0)
(0.0242156 0.0189969 0)
(0.0257988 0.01574 0)
(0.0270652 0.0117205 0)
(0.0280223 0.00707144 0)
(0.0286518 0.00192449 0)
(0.0289162 -0.0035512 0)
(0.029019 -0.00918796 0)
(-0.00277202 0.0734439 0)
(-0.00712423 0.06853 0)
(-0.0104865 0.0560608 0)
(-0.011454 0.0423981 0)
(-0.0112996 0.0314478 0)
(-0.0104039 0.0234975 0)
(-0.00845222 0.0170162 0)
(-0.00573137 0.013367 0)
(-0.00267054 0.0122709 0)
(0.000621739 0.012925 0)
(0.00412878 0.014601 0)
(0.00775335 0.0166852 0)
(0.0112568 0.0186041 0)
(0.0143989 0.0199034 0)
(0.017018 0.0202172 0)
(0.0190787 0.0193838 0)
(0.0206506 0.0174371 0)
(0.0218205 0.0145286 0)
(0.0226395 0.0108374 0)
(0.0231462 0.00650827 0)
(0.0233711 0.0016596 0)
(0.0233159 -0.0035845 0)
(0.0231506 -0.00909754 0)
(-0.00296997 0.0784572 0)
(-0.00760004 0.0726836 0)
(-0.011082 0.0582661 0)
(-0.0123715 0.0429648 0)
(-0.0128127 0.031261 0)
(-0.012037 0.0220323 0)
(-0.00993047 0.0146205 0)
(-0.00727565 0.0105246 0)
(-0.00445007 0.00919749 0)
(-0.00149328 0.0096586 0)
(0.00164371 0.0111415 0)
(0.00495726 0.013171 0)
(0.00831335 0.0152949 0)
(0.011433 0.0170213 0)
(0.0140494 0.0178962 0)
(0.0160396 0.0176307 0)
(0.0174293 0.0161788 0)
(0.0183294 0.013682 0)
(0.0188353 0.0103349 0)
(0.0190221 0.00630956 0)
(0.0189431 0.00172218 0)
(0.018616 -0.00334342 0)
(0.0182468 -0.00879665 0)
(-0.00309344 0.0837705 0)
(-0.00794301 0.0770506 0)
(-0.0115322 0.0606085 0)
(-0.0132191 0.0441135 0)
(-0.0140791 0.0313684 0)
(-0.0131928 0.0204029 0)
(-0.0109375 0.0121855 0)
(-0.00836044 0.00783307 0)
(-0.00579876 0.00642043 0)
(-0.00322275 0.00676548 0)
(-0.000527059 0.00806834 0)
(0.0023691 0.00993582 0)
(0.00543635 0.012099 0)
(0.00846339 0.0141403 0)
(0.0111198 0.0155622 0)
(0.0131573 0.0159383 0)
(0.0145112 0.0150789 0)
(0.0152759 0.0130641 0)
(0.0155852 0.0100964 0)
(0.0155559 0.00637418 0)
(0.0152631 0.00201594 0)
(0.0147383 -0.00290092 0)
(0.0141914 -0.00830222 0)
(-0.00308337 0.0892319 0)
(-0.00804868 0.0815859 0)
(-0.0117791 0.0631299 0)
(-0.0138102 0.0456901 0)
(-0.0147418 0.031439 0)
(-0.0135739 0.0186389 0)
(-0.0112365 0.00973176 0)
(-0.00878091 0.00532296 0)
(-0.00653616 0.00398805 0)
(-0.00439496 0.00431611 0)
(-0.00220022 0.00547894 0)
(0.000187236 0.00713029 0)
(0.00282753 0.00915526 0)
(0.00561222 0.0113132 0)
(0.00825622 0.0131684 0)
(0.0104062 0.0141898 0)
(0.0118485 0.0140061 0)
(0.0126047 0.0125567 0)
(0.0128288 0.0100207 0)
(0.0126736 0.0066172 0)
(0.0122398 0.00248154 0)
(0.0115751 -0.00229048 0)
(0.0109047 -0.00765196 0)
(-0.00291057 0.0946257 0)
(-0.0078438 0.0862002 0)
(-0.0117182 0.0658738 0)
(-0.0139239 0.0473988 0)
(-0.0146472 0.0312821 0)
(-0.0131265 0.0167451 0)
(-0.0107185 0.0072959 0)
(-0.00844282 0.00304765 0)
(-0.0065805 0.00195676 0)
(-0.00491679 0.0023669 0)
(-0.00326554 0.00343173 0)
(-0.00145096 0.00486561 0)
(0.000643815 0.00662859 0)
(0.00302753 0.0086775 0)
(0.00552138 0.0107473 0)
(0.00775915 0.0123125 0)
(0.00937974 0.0128356 0)
(0.0102511 0.0120414 0)
(0.0104931 0.0100056 0)
(0.0102918 0.00695391 0)
(0.00979642 0.00306311 0)
(0.00905102 -0.00156868 0)
(0.00828864 -0.00688111 0)
(-0.00256927 0.0997097 0)
(-0.0072866 0.090766 0)
(-0.0111439 0.0687754 0)
(-0.0133257 0.0489893 0)
(-0.0137187 0.0308115 0)
(-0.0117742 0.0146145 0)
(-0.009361 0.00492001 0)
(-0.00737044 0.00108869 0)
(-0.00596634 0.000387096 0)
(-0.00481695 0.000955537 0)
(-0.00371752 0.0019629 0)
(-0.00248603 0.00318038 0)
(-0.000989495 0.00463449 0)
(0.000857526 0.00640414 0)
(0.00301445 0.00841762 0)
(0.00521601 0.0103102 0)
(0.00703175 0.011478 0)
(0.00812684 0.0114053 0)
(0.00849594 0.00995547 0)
(0.00833975 0.00731402 0)
(0.00783798 0.00368729 0)
(0.00706247 -0.000793271 0)
(0.00626952 -0.00603661 0)
(-0.00206606 0.104224 0)
(-0.00637668 0.0951095 0)
(-0.00999993 0.0715968 0)
(-0.0119424 0.0503274 0)
(-0.0118577 0.0299574 0)
(-0.00942875 0.0122538 0)
(-0.0072069 0.002734 0)
(-0.00570186 -0.000435716 0)
(-0.00483699 -0.000656283 0)
(-0.00421157 0.000103322 0)
(-0.00363883 0.00108674 0)
(-0.00296072 0.00210867 0)
(-0.0020436 0.00324755 0)
(-0.000777724 0.00464426 0)
(0.000878493 0.00636458 0)
(0.00283587 0.00828048 0)
(0.00474551 0.00990041 0)