/*--------------------------------*- C++ -*----------------------------------*\
| =========                 |                                                 |
| \\      /  F ield         | OpenFOAM: The Open Source CFD Toolbox           |
|  \\    /   O peration     | Version:  2312                                  |
|   \\  /    A nd           | Website:  www.openfoam.com                      |
|    \\/     M anipulation  |                                                 |
\*---------------------------------------------------------------------------*/
FoamFile
{
    version     2.0;
    format      ascii;
    arch        "LSB;label=32;scalar=64";
    class       volScalarField;
    location    "0.7";
    object      alpha.water;
}
// * * * * * * * * * * * * * * * * * * * * * * * * * * * * * * * * * * * * * //

dimensions      [0 0 0 0 0 0 0];

internalField   nonuniform List<scalar> 
2268
(
2.4721e-11
2.61153e-11
2.54323e-11
2.48489e-11
2.42595e-11
2.39202e-11
2.38262e-11
2.3671e-11
2.23117e-11
2.03052e-11
1.75573e-11
1.4229e-11
1.14552e-11
9.09151e-12
7.63833e-12
7.31296e-12
8.68017e-12
1.37407e-11
2.71513e-11
5.51189e-11
1.0858e-10
2.20492e-10
2.43078e-10
2.37501e-11
2.35469e-11
2.37417e-11
3.63029e-11
3.7047e-11
4.84843e-11
3.52111e-11
2.46879e-11
6.83405e-11
6.83621e-11
6.46945e-11
5.89032e-11
4.5726e-11
3.44681e-11
2.71492e-11
2.5908e-11
2.80763e-11
4.05653e-11
7.19415e-11
1.32296e-10
3.56269e-10
1.0371e-09
9.48645e-10
0.0242044
0.0217515
0.0205137
0.0180184
0.0141023
0.0087281
0.00257663
2.45056e-11
2.45012e-11
2.45055e-11
4.40288e-11
4.95508e-11
5.67233e-11
6.06252e-11
5.51336e-11
5.13472e-11
5.36116e-11
6.75435e-11
1.1336e-10
2.97217e-10
7.82575e-10
1.67904e-09
1.55375e-09
0.661894
0.651017
0.645677
0.633347
0.611659
0.574487
0.508244
0.384972
0.215573
0.0347329
3.63541e-11
3.63581e-11
4.33082e-11
5.10529e-11
5.25128e-11
5.51833e-11
6.51827e-11
9.11805e-11
1.97074e-10
8.44104e-10
2.00836e-09
2.53866e-09
2.32329e-09
1
1
1
1
1
1
1
0.997443
0.9231
0.675133
0.167291
3.63476e-11
3.63538e-11
4.0397e-11
4.74595e-11
5.29893e-11
6.61582e-11
1.00353e-10
2.45287e-10
1.12087e-09
3.04164e-09
9.55156e-09
7.23569e-09
1
1
1
1
1
1
1
1
1
0.999991
0.728889
0.0908256
3.63642e-11
3.64355e-11
4.03049e-11
4.92195e-11
5.86196e-11
7.3715e-11
1.22131e-10
2.78283e-10
1.90184e-09
1.12088e-08
1.46985e-08
1
1
1
1
1
1
1
1
1
1
0.988203
0.457847
0.00451906
3.6329e-11
3.6329e-11
3.6329e-11
3.63294e-11
3.6329e-11
3.6377e-11
3.64387e-11
3.64697e-11
3.64697e-11
3.64697e-11
1
1
1
1
1
1
1
1
1
1
1
0.83518
0.140015
3.63293e-11
3.6329e-11
0.000251877
0.0115652
0.0373198
0.071499
0.0871628
0.0820417
0.0780113
0.0466
2.96388e-12
1.17149e-12
5.4941e-13
-2.26492e-21
1.15233e-35
1.10634e-08
0.00143441
0.00521299
0.00995397
0.0132589
0.0107624
0.00341868
0.000175829
2.82367e-05
5.48217e-05
0.000142833
0.00202204
0.0125378
0.0302756
3.72922e-12
1.44297e-12
-2.88405e-18
-5.19291e-21
-5.26218e-20
0.0194102
0.041894
0.0415988
0.0432431
0.07311
0.0524319
0.00881106
0.000153255
1.8982e-06
0.000730327
0.00265007
0.0121111
0.0585413
0.088912
4.88769e-12
5.22237e-13
0.0297112
0.169716
0.227489
0.1741
0.114424
0.157838
0.485042
0.518117
0.221676
0.0215068
0.000169916
1.81953e-06
1.35064e-05
0.0145565
0.030371
0.0853362
0.0889298
3.74493e-12
5.22207e-13
0.364901
0.589788
0.77311
0.813983
0.772162
0.839121
0.860578
0.605576
0.105373
0.0127792
6.73754e-06
8.38122e-07
1.06589e-05
0.000561603
0.00250821
0.00205553
0.0443459
3.76253e-12
0.216449
0.560404
0.910214
0.992509
0.992509
0.992509
0.991523
0.758002
0.0656689
0.000509807
0.00330485
1.8593e-05
8.44345e-07
1.02791e-06
4.78323e-09
4.25562e-09
0.00223997
0.0455659
0.359207
0.511605
0.968858
0.992509
0.992509
0.992509
0.99251
0.99251
0.425008
1.96912e-06
0.000360482
0.000205309
1.14672e-05
8.16378e-07
7.72753e-07
7.80728e-08
4.83163e-09
0.00617268
0.133776
0.530071
0.909669
0.985398
0.985663
0.992509
0.992509
0.99251
0.99251
0.410769
1.90196e-06
0.000130261
1.64701e-06
1.75953e-06
4.1179e-07
4.95741e-07
1.75116e-07
4.13335e-08
0.00061212
0.134279
0.892642
0.904281
0.829955
0.756586
0.890703
0.99251
0.99251
0.992511
0.786225
0.0694926
2.9084e-06
2.81448e-06
3.37721e-07
1.61597e-08
9.92856e-09
4.9733e-08
1.53799e-08
2.68717e-22
0.0902985
1
1
1
1
1
1
1
1
1
1
1
0.999677
0.809433
0.361999
0.286323
0.416178
0.53487
0.621104
0.688002
0.711269
0.705243
0.70634
0.66718
1
1
1
1
1
1
1
1
1
1
1
1
1
0.996689
1
0.999999
0.999995
0.999817
0.999577
0.999355
0.999138
0.998915
0.995325
1
1
1
1
1
1
1
1
1
1
1
1
1
1
1
1
1
0.995124
0.968038
0.921982
0.863224
0.784845
0.689889
1
1
1
0.999999
0.999997
0.999996
1
0.982134
0.971847
0.963078
0.960629
0.985288
0.99282
0.971199
0.926917
0.861829
0.775891
0.649545
0.474802
0.316652
0.182607
0.0884825
0.0193415
0.991599
0.972978
0.93266
0.883763
0.847523
0.78952
0.655487
0.399365
0.244033
0.214142
0.22201
0.229189
0.268509
0.27441
0.219747
0.143591
0.0696171
0.00363501
-3.02223e-21
1.69963e-27
0
-2.65491e-11
5.17259e-28
0.677272
0.404423
0.228091
0.168736
0.153091
0.105497
0.0289228
0.00273383
1.24788e-05
0.00439841
0.00165267
-1.11117e-24
-5.23273e-25
1.12921e-24
9.74957e-25
-5.65642e-24
-5.62952e-24
1.14445e-17
7.06917e-08
1.6597e-08
9.81186e-09
7.26009e-09
2.32839e-09
0.0660341
0.0157143
0.0231586
0.0224958
0.00676943
5.55329e-08
2.39655e-06
3.52457e-06
1.24764e-05
1.23955e-05
3.67653e-06
1.06435e-05
3.86468e-06
4.12594e-06
4.95479e-06
7.27992e-06
7.46362e-06
4.62825e-06
5.92479e-09
5.94717e-09
7.62066e-09
3.20288e-09
2.77182e-09
3.67926e-12
3.71208e-12
3.6791e-12
3.71192e-12
3.67893e-12
5.65442e-08
8.20591e-07
1.4151e-06
4.57833e-06
3.34501e-06
6.46788e-07
1.1196e-06
1.42352e-06
1.76828e-06
1.34734e-06
8.07457e-06
8.34815e-06
4.75469e-06
5.94656e-09
5.92478e-09
6.43776e-09
1.32651e-09
1.67116e-09
2.2704e-08
3.10519e-07
2.36427e-07
3.73142e-12
2.83309e-10
2.73513e-09
5.64166e-10
8.03056e-08
8.10319e-08
-4.35546e-14
8.71993e-30
-3.31543e-17
-2.5527e-29
-3.42102e-18
-7.17132e-19
7.73851e-16
3.43978e-06
3.29134e-07
3.73843e-08
5.94829e-09
6.80199e-09
5.65199e-09
7.32949e-10
7.62461e-08
9.28061e-07
4.69374e-07
3.11643e-08
3.27189e-08
6.38537e-09
2.96655e-10
2.0604e-10
3.34083e-11
3.34058e-11
3.61994e-11
5.08424e-11
4.52215e-11
3.21007e-11
1.42828e-11
1.79721e-12
-3.77913e-29
2.93364e-26
1.42793e-08
1.58649e-08
1.08977e-08
1.94e-08
7.9974e-09
6.7189e-08
9.28372e-07
1.93263e-07
3.68095e-08
8.30367e-08
4.85328e-08
3.44502e-09
5.47503e-10
9.04502e-11
3.17231e-11
3.85983e-11
6.03601e-11
6.07955e-11
4.55362e-11
2.37751e-11
2.06297e-11
1.88583e-10
2.55857e-09
1.36743e-08
1.62386e-08
7.80276e-09
2.46156e-08
5.08317e-08
6.34884e-08
4.20596e-07
2.63832e-08
2.9606e-09
1.59093e-08
1.14898e-09
3.25112e-11
2.91502e-11
2.40455e-11
1.70422e-11
2.27788e-11
4.47212e-11
4.89908e-11
3.61159e-11
1.60591e-11
4.67903e-12
1.83823e-11
4.84853e-10
5.42438e-09
1.15383e-08
2.91464e-09
1.27681e-08
4.70027e-08
3.42853e-08
1.60899e-09
3.01946e-09
6.83579e-10
2.4843e-10
2.48058e-10
1.22446e-10
5.14546e-11
2.82728e-11
1.5657e-11
1.61005e-11
2.80091e-11
3.1176e-11
2.14709e-11
4.06099e-12
2.78634e-13
7.12369e-13
2.51916e-11
3.33144e-10
1.84406e-09
2.23926e-09
4.49221e-10
1.81068e-08
1.75229e-08
1.63546e-09
6.93573e-10
4.34785e-10
3.46599e-10
1.93208e-10
7.17153e-11
3.8487e-11
2.05963e-11
1.07677e-11
1.23621e-11
1.91005e-11
1.71282e-11
8.68403e-12
6.93851e-13
1.54805e-14
8.52258e-14
1.08245e-12
2.99368e-12
5.49361e-11
7.81586e-10
1.94556e-11
2.94701e-10
4.42056e-09
7.99677e-10
2.89948e-10
2.25405e-10
1.6266e-10
7.4227e-11
3.76216e-11
2.031e-11
9.20998e-12
5.52003e-12
7.90572e-12
9.72195e-12
7.13486e-12
2.25092e-12
6.97427e-14
3.27049e-16
2.83602e-15
6.26041e-14
7.56333e-14
8.96705e-13
3.79919e-11
8.89456e-12
1.02014e-13
2.71017e-10
2.36742e-10
1.30093e-10
8.03902e-11
5.39348e-11
3.31109e-11
1.70042e-11
6.92987e-12
2.83039e-12
2.40873e-12
3.64884e-12
3.54261e-12
1.75516e-12
1.94305e-13
2.55796e-15
2.39285e-17
1.53069e-17
4.17258e-16
1.22488e-16
8.45042e-16
1.18864e-13
1.17338e-12
1.03122e-13
7.49576e-11
7.61233e-11
5.10649e-11
3.32806e-11
2.42176e-11
1.47311e-11
6.08729e-12
1.97927e-12
7.09984e-13
7.8852e-13
9.87084e-13
7.66001e-13
1.88093e-13
8.10424e-15
1.20457e-16
1.0807e-18
3.00426e-19
3.59501e-19
5.58265e-18
9.18734e-17
1.99236e-15
7.83763e-14
5.89567e-14
2.24572e-11
2.29193e-11
1.83055e-11
1.46885e-11
1.00886e-11
4.96516e-12
1.80102e-12
4.94086e-13
1.84875e-13
1.87882e-13
1.85731e-13
1.02752e-13
1.52387e-14
4.48173e-16
5.3903e-18
6.41206e-20
1.81169e-20
7.5003e-20
2.77404e-18
8.86492e-17
7.56366e-16
9.85496e-15
3.07264e-14
6.3634e-12
8.28659e-12
6.8985e-12
5.45602e-12
3.29491e-12
1.38767e-12
4.04109e-13
9.86782e-14
3.62535e-14
3.12419e-14
2.48008e-14
1.04615e-14
1.14669e-15
2.4869e-17
2.4416e-19
4.35135e-21
2.41799e-21
1.76234e-20
6.75437e-19
3.50117e-17
2.94449e-16
2.40524e-15
1.47175e-14
1.52526e-12
2.50024e-12
2.28528e-12
1.66399e-12
8.59359e-13
3.04882e-13
7.81961e-14
1.6212e-14
5.65039e-15
4.08439e-15
2.63254e-15
9.0998e-16
7.80928e-17
1.33774e-18
1.12819e-20
3.0664e-22
5.1866e-22
3.6385e-21
1.33646e-19
7.71194e-18
8.08031e-17
6.93197e-16
5.21014e-15
3.46399e-13
6.4166e-13
6.0755e-13
3.86126e-13
1.73639e-13
5.53875e-14
1.18547e-14
2.05901e-15
7.07981e-16
4.37243e-16
2.40359e-16
6.91576e-17
4.8987e-18
6.91581e-20
5.15567e-22
2.69077e-23
9.63828e-23
6.33268e-22
2.05283e-20
1.29954e-18
1.76004e-17
1.54783e-16
1.57238e-15
5.65058e-14
1.22373e-13
1.14889e-13
6.95671e-14
2.89858e-14
7.72954e-15
1.45302e-15
2.3031e-16
7.19996e-17
3.93839e-17
1.93464e-17
4.70489e-18
2.6884e-19
3.41037e-21
2.26217e-23
2.90525e-24
1.64461e-23
9.83361e-23
2.62527e-21
1.62586e-19
2.24344e-18
2.66709e-17
3.46906e-16
9.31918e-15
2.11231e-14
1.90639e-14
1.07277e-14
3.77979e-15
8.87244e-16
1.48916e-16
2.2345e-17
6.54751e-18
2.93078e-18
1.29994e-18
2.89784e-19
1.48764e-20
1.57927e-22
9.46509e-25
3.44001e-25
2.33169e-24
1.37366e-23
2.93389e-22
1.64852e-20
2.83464e-19
2.67941e-18
6.55426e-17
1.1186e-15
2.67803e-15
2.49339e-15
1.30761e-15
4.11946e-16
8.62786e-17
1.32983e-17
1.89446e-18
4.92423e-19
2.03384e-19
7.7697e-20
1.63331e-20
7.72739e-22
6.75969e-24
3.82468e-26
4.10614e-26
2.96789e-25
1.83591e-24
2.97766e-23
1.50058e-21
2.65221e-20
2.74412e-19
9.2204e-18
1.23381e-16
3.03439e-16
2.72249e-16
1.33808e-16
3.82757e-17
7.26702e-18
1.02745e-18
1.42376e-19
3.2709e-20
1.26812e-20
4.4716e-21
7.97323e-22
3.62668e-23
2.47653e-25
1.7412e-27
4.79082e-27
3.16782e-26
2.17239e-25
2.81139e-24
1.14149e-22
2.13853e-21
1.55362e-20
1.00814e-18
1.10166e-17
2.88784e-17
2.51661e-17
1.16697e-17
3.07427e-18
5.36333e-19
7.04202e-20
9.27405e-21
1.93273e-21
6.61516e-22
2.34314e-22
3.71849e-23
1.46677e-24
8.57258e-27
1.22326e-28
5.59822e-28
3.59874e-27
2.29775e-26
2.50578e-25
7.32499e-24
1.31111e-22
1.04594e-21
9.09897e-20
9.87237e-19
2.3458e-18
2.00104e-18
8.80425e-19
2.16427e-19
3.50874e-20
4.34368e-21
5.1328e-22
1.02267e-22
3.18252e-23
1.09273e-23
1.63684e-24
5.56121e-26
2.76677e-28
1.3423e-29
6.68637e-29
3.78001e-28
2.23114e-27
2.05515e-26
4.17063e-25
7.1933e-24
3.63419e-23
6.52971e-21
8.49358e-20
1.67154e-19
1.39238e-19
5.8384e-20
1.35438e-20
2.0579e-21
2.42218e-22
2.48503e-23
4.88198e-24
1.43998e-24
4.56896e-25
6.55451e-26
2.01637e-27
8.54243e-30
1.67107e-30
8.08589e-30
3.95571e-29
2.07396e-28
1.57347e-27
1.78818e-26
2.44891e-25
1.78193e-24
3.95042e-22
6.70895e-21
1.06395e-20
8.61562e-21
3.45495e-21
7.63136e-22
1.09321e-22
1.22054e-23
1.12307e-24
2.11773e-25
5.96298e-26
1.73058e-26
2.36756e-27
6.78354e-29
2.73783e-31
1.95568e-31
9.56949e-31
4.19529e-30
1.95028e-29
1.01387e-28
1.05551e-27
1.16631e-26
5.8163e-26
1.77992e-23
4.84535e-22
6.12348e-22
4.80471e-22
1.84819e-22
3.912e-23
5.30542e-24
5.57806e-25
4.70317e-26
8.40022e-27
2.23312e-27
5.97793e-28
7.75627e-29
2.08362e-30
1.07783e-32
2.24886e-32
1.06672e-31
4.42891e-31
1.5217e-30
8.2916e-30
5.21228e-29
3.88485e-28
1.68939e-27
8.81758e-25
3.214e-23
3.21572e-23
2.44013e-23
9.02722e-24
1.83838e-24
2.36897e-25
2.29757e-26
1.82228e-27
3.06364e-28
7.59349e-29
1.89101e-29
2.31918e-30
5.85802e-32
6.08411e-34
2.33583e-33
1.09128e-32
4.43999e-32
1.65573e-31
6.22121e-31
2.72697e-30
1.28571e-29
4.30876e-29
3.45237e-26
1.96133e-24
1.55111e-24
1.13767e-24
4.05543e-25
7.9616e-26
9.78869e-27
8.38697e-28
6.53689e-29
1.03201e-29
2.36255e-30
5.49577e-31
6.35803e-32
1.51953e-33
4.41319e-35
2.15726e-34
1.01437e-33
3.90061e-33
1.47331e-32
4.83888e-32
1.6492e-31
4.78548e-31
1.22336e-30
1.15628e-27
1.10021e-25
6.90903e-26
4.89708e-26
1.68451e-26
3.18964e-27
3.73754e-28
2.85154e-29
2.17503e-30
3.22279e-31
6.76871e-32
1.47211e-32
1.60371e-33
3.67043e-35
3.35537e-36
1.78975e-35
8.57001e-35
3.55285e-34
1.26061e-33
3.91845e-33
1.18664e-32
2.64746e-32
5.03405e-32
3.34501e-29
5.66116e-27
2.85407e-27
1.95493e-27
6.49565e-28
1.18583e-28
1.32205e-29
9.08441e-31
6.72796e-32
9.36013e-33
1.79452e-33
3.64658e-34
3.7343e-35
8.3957e-37
2.42633e-37
1.34912e-36
6.61432e-36
2.84e-35
1.03256e-34
3.17329e-34
9.39181e-34
2.0682e-33
5.5505e-33
8.72045e-31
2.66952e-28
1.09744e-28
7.26622e-29
2.3336e-29
4.10396e-30
4.34262e-31
2.71741e-32
1.93994e-33
2.53568e-34
4.42107e-35
8.38358e-36
8.05739e-37
1.89945e-38
1.62686e-38
9.32552e-38
4.69198e-37
2.07919e-36
7.83637e-36
2.45688e-35
7.3998e-35
1.83864e-34
7.67926e-34
2.61224e-32
1.15604e-29
3.94176e-30
2.5242e-30
7.83786e-31
1.32668e-31
1.32709e-32
7.64539e-34
5.23047e-35
6.42588e-36
1.01615e-36
1.79558e-37
1.61795e-38
4.69025e-40
1.01093e-39
5.95451e-39
3.07578e-38
1.39929e-37
5.45606e-37
1.77155e-36
5.56289e-36
1.70647e-35
1.17848e-34
1.90602e-33
4.61919e-31
1.32724e-31
8.2271e-32
2.47006e-32
4.02134e-33
3.77642e-34
2.02772e-35
1.32325e-36
1.52806e-37
2.18759e-38
3.59688e-39
3.03974e-40
1.43216e-41
5.85051e-41
3.5308e-40
1.87099e-39
8.70034e-39
3.50149e-38
1.183e-37
4.0174e-37
1.72016e-36
1.95419e-35
3.34731e-34
1.7116e-32
4.20475e-33
2.52561e-33
7.3311e-34
1.14765e-34
1.0004e-35
5.08388e-37
3.15292e-38
3.42078e-39
4.42908e-40
6.76707e-41
5.38391e-42
5.52201e-43
3.16162e-42
1.95195e-41
1.05969e-40
5.02674e-40
2.08843e-39
7.38873e-39
2.88452e-38
1.96173e-37
3.32779e-36
7.02669e-35
5.90482e-34
1.25785e-34
7.33056e-35
2.05682e-35
3.09268e-36
2.50064e-37
1.20864e-38
7.10231e-40
7.23396e-41
8.46812e-42
1.20079e-42
9.10904e-44
2.40992e-44
1.59992e-43
1.00953e-42
5.60796e-42
2.71444e-41
1.16809e-40
4.40623e-40
2.17514e-39
2.45536e-38
5.70394e-37
1.44062e-35
1.903e-35
3.56528e-36
2.01891e-36
5.47394e-37
7.89575e-38
5.94275e-39
2.73298e-40
1.51807e-41
1.44999e-42
1.53505e-43
2.01825e-44
1.51303e-45
1.07264e-45
7.60751e-45
4.90299e-44
2.78488e-43
1.37907e-42
6.18812e-42
2.57827e-41
1.78971e-40
3.22397e-39
9.51387e-38
2.84739e-36
5.75268e-37
9.60421e-38
5.29291e-38
1.38624e-38
1.91608e-39
1.3468e-40
5.89431e-42
3.08906e-43
2.76344e-44
2.64766e-45
3.22634e-46
2.61263e-47
4.63942e-47
3.41141e-46
2.24586e-45
1.30476e-44
6.6436e-44
3.14213e-43
1.52426e-42
1.59748e-41
4.21039e-40
1.51153e-38
6.3124e-37
1.64033e-38
2.4648e-39
1.32442e-39
3.34931e-40
4.43192e-41
2.91864e-42
1.21552e-43
6.00145e-45
5.02155e-46
4.35914e-47
4.92405e-48
5.15161e-49
1.92168e-48
1.4501e-47
9.76088e-47
5.81313e-46
3.0677e-45
1.55873e-44
9.64083e-44
1.67865e-42
6.5158e-41
3.17956e-39
1.64501e-37
0.592209
0.581961
0.493548
0.492869
0.988642
0.978782
0.961316
0.934026
0.608379
0.537995
0.426515
0.352692
-5.45258e-21
-5.71221e-26
6.08877e-24
1.563e-06
-2.68406e-12
1.07071e-13
9.01617e-12
1.00192e-11
-5.47774e-14
2.56957e-15
-7.41289e-20
1.92016e-06
7.62712e-09
6.09762e-09
-5.98046e-11
1.51124e-06
4.69986e-09
4.4485e-09
-1.06892e-10
3.09719e-06
1.64027e-09
6.03269e-09
4.95632e-08
3.04564e-06
5.83924e-10
5.99127e-09
7.27458e-08
9.58456e-07
2.25503e-08
6.84075e-09
1.37193e-08
5.67359e-08
1.09152e-07
1.6e-07
1.71226e-07
1.46557e-07
6.27674e-08
1.54348e-07
2.43365e-07
5.51543e-07
1.33943e-08
2.56856e-08
8.42351e-08
2.22111e-07
1.19261e-13
1.17658e-13
4.1167e-10
4.21081e-08
1.99198e-13
7.66112e-13
7.87367e-13
2.98718e-09
2.54906e-13
1.11613e-12
3.32374e-12
3.37301e-12
1.81708e-13
8.23122e-13
3.03579e-12
9.34208e-12
9.43396e-14
3.72894e-13
1.66976e-12
6.38851e-12
3.46412e-14
1.24664e-13
5.53032e-13
2.47003e-12
1.03179e-14
3.03139e-14
1.47971e-13
6.46848e-13
2.48062e-15
6.18096e-15
3.06405e-14
1.43716e-13
4.76704e-16
8.77926e-16
5.64619e-15
2.70124e-14
6.67118e-17
1.28167e-16
7.72798e-16
4.13219e-15
7.02787e-18
1.12085e-17
9.59313e-17
5.27887e-16
7.88688e-19
1.05073e-18
7.67689e-18
5.38918e-17
6.19323e-20
5.56061e-20
6.6875e-19
3.97908e-18
4.16424e-21
2.92641e-21
3.98016e-20
2.94921e-19
2.31982e-22
1.39263e-22
1.75979e-21
1.65588e-20
1.09498e-23
4.69794e-24
7.05248e-23
6.44722e-22
4.11043e-25
1.61479e-25
2.22806e-24
2.65615e-23
1.45453e-26
4.35961e-27
6.72115e-26
8.77607e-25
4.63432e-28
1.24003e-28
1.62865e-27
2.2838e-26
1.29573e-29
4.65165e-30
4.72443e-29
6.06035e-28
3.75192e-31
5.33668e-31
3.74489e-30
2.92158e-29
2.61517e-32
1.52799e-31
1.12476e-30
7.9634e-30
5.39245e-33
4.89207e-32
4.15381e-31
3.29779e-30
1.37704e-33
1.51789e-32
1.45861e-31
1.30876e-30
3.42426e-34
4.34194e-33
4.74893e-32
4.80213e-31
8.19059e-35
1.1911e-33
1.47592e-32
1.68982e-31
2.26477e-35
3.84259e-34
5.70705e-33
7.62711e-32
6.86192e-36
1.25594e-34
2.05795e-33
2.87736e-32
0.809719
0.769367
0.526522
0.40008
0.508997
0.738663
0.991775
0.992511
0.9916
0.884385
0.499979
-8.72553e-22
-8.48308e-26
1.77453e-26
6.70292e-10
4.30827e-09
2.13549e-09
3.73014e-22
0.152255
0.717597
0.272622
0.00852445
6.93281e-08
0.0235844
0.187642
0.4874
0.678108
0.877336
0.884165
0.86647
0.46897
0.24383
0.053502
1.27771e-13
4.58486e-20
4.78234e-20
1.63214e-07
0.256741
0.0308637
5.53543e-10
4.23389e-19
6.54935e-08
-9.32149e-16
1.01663e-17
0.0396765
0.174727
0.341755
0.421118
0.471442
0.602548
0.601509
0.589876
0.488718
0.418362
0.224283
0.000341173
0.345477
1.36846e-06
1.04096e-05
9.55841e-06
7.437e-10
9.16475e-12
2.40662e-09
4.86641e-13
5.00939e-13
0.0126362
0.0336749
0.0703364
0.187611
0.373725
0.579386
0.673261
0.672724
0.57014
0.374591
0.653181
4.8249e-06
1.93381e-05
1.1581e-05
2.54536e-06
9.2874e-25
5.33602e-07
1.26422e-06
7.96835e-07
1.08303e-12
3.07911e-21
-6.2076e-22
-3.03588e-20
0.0537504
0.151471
0.32105
0.563555
0.866517
0.864245
0.845899
1.34091e-05
1.93259e-05
6.73337e-06
7.37324e-11
4.10624e-09
1.19561e-06
2.50384e-06
2.49379e-06
3.66176e-08
-1.53915e-19
3.36124e-17
0.000176873
0.0007812
4.49508e-19
8.38844e-19
0.238964
0.866074
0.91312
0.717021
1.2785e-05
1.76411e-05
2.36506e-11
7.22944e-11
2.67905e-09
1.65669e-07
1.99378e-06
2.50267e-06
1.9266e-06
-1.71286e-15
9.91235e-10
2.0929e-11
2.09295e-11
4.45361e-06
3.73505e-07
3.2832e-15
0.816711
0.913155
0.596219
1.09167e-05
5.49725e-06
2.36803e-11
6.92091e-11
1.6157e-10
1.05784e-09
1.61133e-07
2.02298e-06
2.27143e-06
2.14707e-06
2.09354e-11
2.09354e-11
1.12805e-06
1.67902e-05
2.53283e-05
-1.35838e-08
0.649727
0.913143
0.55136
6.97228e-06
4.22483e-06
2.36504e-11
2.66731e-11
4.60452e-11
7.71437e-12
7.91603e-12
7.73756e-12
1.48768e-06
2.66846e-06
2.67844e-06
1.23626e-06
9.62395e-07
1.0202e-06
2.6245e-05
5.01993e-20
0.211103
0.913132
0.168399
3.1029e-06
5.30934e-06
2.36803e-11
2.36747e-11
5.17824e-11
5.6159e-11
6.64493e-11
1.04624e-10
7.31512e-12
1.83659e-12
4.42374e-07
7.16884e-07
1.83326e-07
8.48857e-07
2.06107e-05
2.44781e-05
0.00239423
0.899414
0.00612299
1.21e-06
5.47621e-06
9.5452e-09
2.36803e-11
4.85455e-11
6.5012e-11
1.09034e-10
3.18017e-10
5.97029e-10
5.82112e-10
-2.049e-27
-1.43248e-12
-6.30893e-13
1.21009e-06
1.0691e-05
3.07674e-05
0.0020362
0.31706
0.00149564
1.50865e-06
4.47528e-06
6.25142e-08
2.36749e-11
4.51916e-11
6.80847e-11
9.67222e-11
2.99194e-10
1.06597e-09
1.62398e-09
1.64509e-09
1.66013e-09
1.12973e-09
6.72787e-10
2.8552e-06
4.29287e-05
0.000346114
5.17149e-05
5.31347e-05
2.02467e-06
2.09426e-06
1.98283e-07
8.06383e-10
7.03218e-11
8.43413e-11
6.57591e-11
6.93595e-11
2.46509e-10
5.15184e-10
7.30978e-10
7.48614e-10
3.75342e-10
3.79781e-10
1.53942e-06
1.18554e-05
2.35605e-05
2.55046e-05
8.45651e-06
1.75811e-06
4.38283e-07
3.39919e-08
5.19539e-09
1.11996e-09
1.59587e-10
6.6604e-11
3.53682e-11
2.51543e-11
2.49417e-11
5.19361e-11
9.39795e-11
3.01132e-10
4.77854e-10
5.1214e-10
7.77962e-07
5.48968e-06
1.54315e-05
2.84244e-06
1.14008e-07
2.54438e-08
4.22688e-09
5.39681e-09
2.7574e-09
6.45975e-10
1.48676e-10
6.76305e-11
3.47458e-11
2.49023e-11
2.35574e-11
4.05174e-11
1.80282e-10
7.22258e-10
1.069e-09
8.5512e-10
8.64086e-10
3.13469e-07
1.30104e-06
3.19608e-11
5.26038e-11
1.87161e-09
5.16517e-09
4.53073e-09
1.71019e-09
3.43403e-10
1.07633e-10
5.54345e-11
2.46137e-11
1.22537e-11
9.37737e-12
2.8312e-11
1.85911e-10
5.88471e-10
8.43604e-10
4.87051e-09
6.02408e-08
1.8366e-07
5.9962e-11
2.09956e-10
1.80524e-09
4.55967e-09
4.48687e-09
2.27988e-09
6.78841e-10
1.87636e-10
8.71157e-11
5.63021e-11
2.78514e-11
9.44705e-12
7.24508e-12
8.04411e-12
5.55706e-11
2.28252e-10
3.50845e-10
1.34551e-13
1.34551e-13
6.92371e-11
2.44307e-10
1.51018e-09
3.29041e-09
3.11964e-09
1.95133e-09
6.37033e-10
2.72065e-10
1.13104e-10
8.01854e-11
5.85677e-11
3.13247e-11
9.57924e-12
4.69774e-12
4.04137e-12
3.72797e-12
1.34551e-13
1.34551e-13
1.34551e-13
4.23487e-11
1.82454e-10
9.64747e-10
1.7568e-09
1.55619e-09
9.83567e-10
4.35335e-10
1.95909e-10
1.18604e-10
8.63377e-11
7.61715e-11
6.56588e-11
3.38529e-11
8.77748e-12
2.84334e-12
1.10668e-12
3.45581e-13
2.06042e-13
1.35682e-13
1.61806e-11
9.5559e-11
4.64297e-10
6.59886e-10
5.87551e-10
3.66198e-10
1.7033e-10
9.50087e-11
6.18735e-11
5.73816e-11
6.56604e-11
7.62965e-11
6.73095e-11
2.47122e-11
7.77291e-12
4.5103e-12
2.25226e-12
8.30473e-13
1.29008e-13
5.79059e-12
3.5845e-11
1.51992e-10
1.96209e-10
1.69007e-10
1.04452e-10
5.31315e-11
3.19227e-11
2.44697e-11
1.86367e-11
2.1807e-11
5.68949e-11
7.99275e-11
6.67373e-11
2.63605e-11
1.4273e-11
7.05793e-12
1.54373e-12
1.08746e-13
1.50446e-12
1.03624e-11
3.56399e-11
4.5556e-11
3.8095e-11
2.28302e-11
1.2547e-11
8.12086e-12
6.02637e-12
4.78326e-12
4.89979e-12
1.35091e-11
5.83359e-11
9.05204e-11
7.61287e-11
4.25105e-11
1.56452e-11
1.60744e-12
6.91115e-14
3.01764e-13
2.04757e-12
6.2306e-12
7.92003e-12
6.32743e-12
3.96708e-12
2.16376e-12
1.3028e-12
9.07837e-13
8.55598e-13
1.11637e-12
2.47056e-12
2.10192e-11
6.12932e-11
8.16258e-11
6.33581e-11
1.79682e-11
1.23369e-12
2.10096e-14
4.81128e-14
2.97839e-13
8.81773e-13
1.05382e-12
8.41531e-13
5.14443e-13
2.48927e-13
1.26227e-13
7.94239e-14
8.99276e-14
1.19083e-13
3.67869e-13
2.69396e-12
2.4894e-11
5.9275e-11
5.65107e-11
1.54906e-11
8.66301e-13
1.15213e-14
5.60564e-15
3.40924e-14
9.54532e-14
1.1013e-13
8.58275e-14
4.87709e-14
1.72981e-14
5.76565e-15
3.63898e-15
5.41662e-15
8.51708e-15
1.28164e-13
7.76941e-13
8.19376e-12
3.58471e-11
3.60583e-11
9.22486e-12
3.79191e-13
1.00381e-14
5.3995e-16
3.10326e-15
7.26318e-15
9.09454e-15
6.61855e-15
3.22669e-15
6.33556e-16
5.29135e-17
4.65329e-18
5.38265e-17
1.15296e-16
3.28629e-14
1.43783e-13
2.74256e-12
2.14223e-11
2.24859e-11
3.59785e-12
1.54784e-13
1.04036e-14
4.60094e-17
2.28483e-16
4.67302e-16
6.00559e-16
3.95296e-16
1.50519e-16
1.59142e-17
5.41584e-19
4.43515e-21
7.07623e-21
2.1793e-19
8.72394e-16
6.47664e-15
9.15242e-13
1.44688e-11
1.44e-11
1.01289e-12
4.34242e-14
1.24153e-14
2.91497e-18
1.38236e-17
2.6678e-17
3.06036e-17
1.7572e-17
4.75482e-18
2.63513e-19
3.8583e-21
9.57e-22
1.98373e-21
5.35006e-21
2.96967e-19
3.45895e-17
1.04996e-12
9.84868e-12
9.10345e-12
7.26448e-13
4.74084e-14
1.36747e-14
1.36001e-19
6.64918e-19
1.22734e-18
1.27007e-18
6.19385e-19
1.09813e-19
2.62149e-21
3.54301e-22
8.13176e-22
2.6927e-21
1.98619e-20
6.57157e-19
1.10627e-14
1.27572e-12
7.67803e-12
5.77839e-12
6.74949e-13
8.31971e-14
1.3835e-14
5.53717e-21
2.62527e-20
4.68427e-20
4.01411e-20
1.68949e-20
1.81848e-21
1.0021e-22
2.3742e-22
1.75965e-21
2.02113e-20
7.64722e-19
1.44541e-16
4.86482e-14
1.51425e-12
6.44795e-12
3.44828e-12
6.66164e-13
1.12028e-13
1.1899e-14
1.89198e-22
8.75845e-22
1.465e-21
1.10771e-21
3.52979e-22
3.29785e-23
5.036e-23
2.7061e-22
9.79641e-21
2.1496e-19
1.79764e-17
6.35359e-15
1.08836e-13
1.5383e-12
5.4974e-12
2.83388e-12
9.93205e-13
1.38936e-13
6.31874e-15
5.90731e-24
2.27737e-23
3.7735e-23
2.41801e-23
7.30552e-24
1.09734e-23
7.21536e-23
1.97969e-21
6.75205e-20
2.18807e-18
1.1077e-16
1.14236e-14
1.88237e-13
1.45359e-12
4.58817e-12
2.92955e-12
1.08346e-12
1.42869e-13
2.77161e-15
1.67687e-25
5.84859e-25
8.59488e-25
7.25358e-25
2.2534e-24
1.53868e-23
2.05824e-22
7.71928e-21
2.23937e-19
7.7553e-18
4.61118e-16
1.67169e-14
1.97817e-13
1.25153e-12
3.67417e-12
2.7854e-12
1.14434e-12
1.46463e-13
2.28667e-15
3.88811e-27
1.57665e-26
3.91767e-26
1.88614e-25
1.28431e-24
9.78013e-24
1.57985e-22
4.64771e-21
1.08973e-19
2.12728e-18
1.29101e-16
1.09831e-14
1.28621e-13
8.99352e-13
2.66454e-12
2.19938e-12
1.01781e-12
1.87742e-13
3.10619e-15
2.05982e-28
1.60643e-27
1.32468e-26
1.18204e-25
9.49465e-25
6.68902e-24
5.45758e-23
8.41618e-22
1.7601e-20
3.53836e-19
1.11203e-17
1.6146e-15
4.225e-14
4.07097e-13
1.45763e-12
1.28827e-12
6.71398e-13
1.46225e-13
3.6318e-15
6.08979e-29
7.11996e-28
7.57374e-27
7.71078e-26
6.96414e-25
5.24465e-24
3.33068e-23
2.42103e-22
2.28014e-21
3.49656e-20
4.70285e-19
5.16912e-17
7.64481e-15
1.13478e-13
5.26955e-13
4.8647e-13
3.19622e-13
7.61958e-14
2.59382e-15
2.67082e-29
3.51186e-28
4.20565e-27
4.66649e-26
4.53452e-25
3.46336e-24
2.39035e-23
1.39038e-22
7.5116e-22
4.25293e-21
5.46379e-20
1.16671e-18
1.83608e-16
9.96479e-15
8.82726e-14
9.52631e-14
8.78779e-14
2.44062e-14
2.32101e-15
1.14975e-29
1.69261e-28
2.26779e-27
2.67811e-26
2.78149e-25
2.16277e-24
1.4785e-23
8.79942e-23
4.34531e-22
1.81895e-21
7.48735e-21
6.7107e-20
3.50767e-18
2.76792e-16
9.6705e-15
1.28022e-14
1.18065e-14
4.67024e-15
5.49622e-16
4.51889e-30
7.27267e-29
1.07316e-27
1.28713e-26
1.36e-25
1.08662e-24
7.83837e-24
4.83753e-23
2.29965e-22
9.23521e-22
3.30361e-21
9.83584e-21
3.28283e-20
8.25777e-19
1.61843e-16
2.94802e-16
3.91294e-16
2.70737e-16
1.1226e-16
1.81524e-30
3.30285e-29
5.31679e-28
6.88346e-27
6.95977e-26
5.42244e-25
3.54343e-24
1.94726e-23
9.3041e-23
3.63568e-22
1.29034e-21
3.55721e-21
8.62295e-21
1.15211e-20
2.36013e-20
7.27695e-19
7.83199e-18
3.16294e-17
5.12047e-17
9.21227e-31
1.85883e-29
2.98173e-28
3.74567e-27
3.93761e-26
3.37776e-25
2.2837e-24
1.21366e-23
4.9927e-23
1.6941e-22
4.74332e-22
1.02996e-21
2.34115e-21
1.92793e-21
4.45972e-21
7.81603e-21
9.1886e-19
9.80324e-18
2.40115e-17
3.44969e-31
6.58542e-30
9.40289e-29
1.19575e-27
1.17857e-26
8.54808e-26
4.80029e-25
2.08084e-24
7.28963e-24
2.08057e-23
4.64521e-23
8.96074e-23
1.42243e-22
5.18389e-23
1.11797e-22
1.34687e-22
5.22714e-20
9.55638e-19
2.90505e-18
)
;

boundaryField
{
    leftWall
    {
        type            zeroGradient;
    }
    rightWall
    {
        type            zeroGradient;
    }
    lowerWall
    {
        type            zeroGradient;
    }
    atmosphere
    {
        type            inletOutlet;
        inletValue      uniform 0;
        value           nonuniform List<scalar> 
46
(
1.64033e-38
2.4648e-39
1.32442e-39
3.34931e-40
4.43192e-41
2.91864e-42
1.21552e-43
6.00145e-45
5.02155e-46
4.35914e-47
4.92405e-48
5.15161e-49
1.92168e-48
1.4501e-47
9.76088e-47
5.81313e-46
3.0677e-45
1.55873e-44
9.64083e-44
1.67865e-42
6.5158e-41
3.17956e-39
1.64501e-37
6.86192e-36
1.25594e-34
2.05795e-33
2.87736e-32
3.44969e-31
6.58542e-30
9.40289e-29
1.19575e-27
1.17857e-26
0
0
0
0
0
0
0
0
0
0
0
0
0
0
)
;
    }
    defaultFaces
    {
        type            empty;
    }
}


// ************************************************************************* //
