/*--------------------------------*- C++ -*----------------------------------*\
| =========                 |                                                 |
| \\      /  F ield         | OpenFOAM: The Open Source CFD Toolbox           |
|  \\    /   O peration     | Version:  2312                                  |
|   \\  /    A nd           | Website:  www.openfoam.com                      |
|    \\/     M anipulation  |                                                 |
\*---------------------------------------------------------------------------*/
FoamFile
{
    version     2.0;
    format      ascii;
    arch        "LSB;label=32;scalar=64";
    class       volScalarField;
    location    "0.7";
    object      alpha.oil;
}
// * * * * * * * * * * * * * * * * * * * * * * * * * * * * * * * * * * * * * //

dimensions      [0 0 0 0 0 0 0];

internalField   nonuniform List<scalar> 
2268
(
2.93464e-24
2.60262e-24
1.80188e-23
1.1075e-22
3.7643e-22
1.00943e-21
2.50857e-21
4.12228e-21
4.82351e-21
6.38622e-21
1.31022e-20
2.97404e-20
8.78518e-19
1.09668e-15
6.83856e-14
4.22929e-13
2.62443e-12
1.28546e-11
5.34474e-11
1.26833e-10
4.2366e-10
5.69901e-06
7.30325e-05
1.12021e-22
3.36131e-23
4.15635e-22
2.34872e-21
6.03391e-21
1.34059e-20
2.87287e-20
4.46601e-20
5.50972e-20
7.60966e-20
1.56717e-19
4.63131e-19
6.23383e-18
7.18269e-15
3.91212e-13
2.02722e-12
1.06826e-11
5.4068e-11
1.75707e-10
2.73374e-10
1.24196e-10
6.79581e-06
7.30318e-05
3.55813e-20
9.52411e-21
8.61931e-20
3.27712e-19
1.15878e-18
3.79443e-18
3.69079e-18
1.62647e-18
1.22797e-18
1.28105e-18
1.94445e-18
8.46856e-17
3.44774e-15
6.39683e-14
5.21283e-13
2.98039e-12
1.37625e-11
6.19944e-11
2.19491e-10
3.92676e-10
1.24169e-10
2.68081e-06
2.74563e-05
1.08245e-18
3.04032e-19
3.10173e-18
1.56152e-17
1.07792e-16
3.77828e-16
4.62258e-16
2.1897e-16
1.5791e-16
1.86239e-16
2.39062e-16
2.87309e-16
4.25918e-15
6.88776e-14
6.11703e-13
3.84969e-12
1.91486e-11
8.68075e-11
7.72153e-10
1.24914e-08
2.61222e-08
2.99154e-09
2.99154e-09
3.76875e-18
1.06104e-18
1.31174e-17
9.46398e-17
8.63834e-16
2.69771e-15
3.51579e-15
2.99181e-15
7.19496e-15
9.10773e-15
7.07051e-15
4.47039e-15
3.23436e-14
5.2348e-13
3.13339e-12
1.33081e-11
4.76235e-11
1.42029e-10
1.09742e-09
3.19986e-08
5.70491e-08
1.71603e-08
2.99154e-09
8.75815e-18
2.76435e-18
3.91302e-17
6.0594e-16
5.36193e-15
1.19395e-14
1.41329e-14
2.91732e-14
8.14549e-14
8.70481e-14
4.49161e-14
2.51363e-14
3.85073e-14
3.51713e-13
4.83188e-12
4.13151e-11
1.55634e-10
1.0776e-09
5.19045e-09
1.29836e-08
3.99151e-08
2.25121e-05
7.01499e-05
2.05532e-17
4.87855e-18
1.0698e-16
2.88313e-15
2.22782e-14
4.18971e-14
4.80638e-14
1.29283e-13
3.12067e-13
3.23376e-13
1.64627e-13
7.53305e-14
2.44542e-12
4.09983e-11
3.42483e-10
1.13783e-09
3.86276e-10
3.03218e-09
1.02055e-08
1.88992e-08
3.84995e-07
4.57794e-05
0.000230895
4.24916e-17
8.76601e-18
2.92456e-16
1.14917e-14
8.22274e-14
1.40868e-13
1.41226e-13
2.213e-13
5.73253e-13
6.65447e-13
6.30373e-13
3.24125e-11
7.18926e-10
2.31319e-09
5.00316e-09
5.67881e-09
1.98418e-10
1.98199e-10
1.98342e-10
1.98199e-10
1.98342e-10
3.18275e-05
0.000270309
0.641849
0.510827
0.533781
0.416901
0.159567
0.155857
0.204967
0.208549
0.204303
0.0842219
0.0389221
0.18625
0.525903
0.446472
0.397713
0.403313
0.453978
0.536097
0.548594
0.862187
0.977678
0.96004
0.7182
0.102634
0.023441
0.000160032
8.69704e-06
-1.62098e-16
5.7815e-14
0.0148309
0.168188
0.525891
0.376233
0.484121
0.758484
0.781676
0.706824
0.626103
0.981851
0.933619
0.575017
0.237366
0.0473072
-2.21128e-20
6.66805e-27
-1.30431e-08
5.48796e-14
0.127448
0.357989
0.297315
0.408231
0.375991
0.875682
0.875831
0.871192
0.703784
0.629344
0.988465
0.557256
0.159174
2.29471e-20
6.14593e-21
7.92269e-08
1.46192e-07
-3.78479e-26
0.0658217
0.383423
0.864627
0.506992
0.254655
0.666655
0.875786
0.736561
0.551531
0.520813
0.689768
0.952219
0.293086
8.79419e-07
-8.18582e-22
1.45476e-05
1.31507e-10
9.09041e-11
-1.41874e-07
0.223256
0.926815
0.996672
0.51041
0.25466
0.704671
0.625416
0.126063
0.132128
0.577653
0.745515
0.0288703
0.00171961
0.00179382
0.00420762
0.00440836
0.00244432
6.71098e-14
-1.23949e-08
0.5199
0.99816
0.998242
0.664564
0.287873
0.590183
0.0933408
0.0159934
0.0843854
0.719403
0.747255
0.000797057
0.0233615
0.0145744
0.0143353
0.00749076
0.00744033
0.00515442
0.00172039
0.503824
0.975203
0.998241
0.922951
0.400256
0.0708066
0.0153036
0.0152934
0.0149089
0.603676
0.747255
0.000796655
0.0897011
0.170045
0.243414
0.109297
0.00749012
0.00748621
0.00372837
0.121982
0.839849
0.998098
0.983654
0.390269
0.0146046
0.0146129
0.0145548
0.0148948
0.647623
0.742227
8.75658e-17
1.68919e-17
1.37782e-15
3.77553e-14
2.41618e-13
3.91489e-13
3.73489e-13
3.86739e-13
1.01434e-12
1.46018e-12
1.96643e-12
1.26138e-11
1.21212e-10
3.63335e-10
1.62536e-09
1.64194e-09
1.08109e-06
2.25484e-05
0.000105301
0.000205065
0.00031339
0.000490738
0.000878159
4.83268e-16
4.90662e-15
3.89126e-14
2.63459e-14
2.59861e-14
2.59856e-14
2.59865e-14
1.30232e-12
4.19037e-12
5.67558e-12
5.26588e-12
4.74023e-12
8.92481e-12
9.09306e-12
2.60941e-08
5.33577e-07
5.49845e-06
0.000182557
0.000422939
0.000644827
0.000860067
0.00108497
0.00467469
2.35693e-18
2.84537e-18
2.36474e-18
2.4522e-12
8.44339e-11
3.53454e-08
2.06997e-08
1.35324e-13
4.74747e-13
6.59942e-14
8.26068e-14
6.59942e-14
8.26072e-14
4.66666e-08
2.58638e-08
1.46057e-07
1.90367e-07
0.004876
0.0319616
0.0780181
0.133475
0.189445
0.243996
1.314e-09
3.05369e-08
2.46564e-07
1.0608e-06
2.8991e-06
3.61844e-06
4.72916e-16
4.67505e-16
4.71052e-16
0.00105737
0.0142521
0.00590533
0.00316608
0.0274219
0.0730826
0.137568
0.208948
0.288691
0.34818
0.392978
0.419084
0.418865
0.404525
7.3895e-09
2.71111e-08
3.93022e-08
3.88613e-08
1.60441e-07
1.56555e-07
0.0205936
0.276578
0.534576
0.750012
0.742229
0.730075
0.661931
0.5977
0.580624
0.570332
0.531654
0.462296
0.357625
0.250738
0.161602
0.0856573
0.0203979
1.20313e-09
1.20362e-09
1.20313e-09
9.50602e-05
1.56555e-07
0.208068
0.711267
0.757145
0.759866
0.759869
0.731891
0.680136
0.584127
0.451817
0.299387
0.171196
0.0774646
0.00735479
9.94769e-11
8.70607e-11
8.46957e-11
9.07923e-11
-5.27906e-11
0.00332251
0.053287
0.0786631
0.0786971
0.0730204
0.0674657
0.05064
0.00145564
0.0121658
0.0130109
0.00418181
3.9778e-20
-3.34651e-28
-1.94573e-28
-1.31321e-16
-1.00979e-26
-1.02199e-10
4.02279e-14
1.85293e-07
3.57313e-07
4.07431e-08
2.52907e-09
1.67645e-08
0.00621969
0.0327747
0.016378
0.0118904
0.00839128
0.00104645
5.84828e-07
-8.33525e-10
-3.08319e-10
1.54037e-14
1.54874e-14
1.84256e-09
1.60056e-09
1.31877e-09
5.82704e-09
2.11119e-08
3.69863e-08
1.78118e-07
1.17646e-06
5.56713e-06
7.70116e-07
3.28706e-09
6.23096e-09
0.00439431
0.00226344
0.00190576
7.20326e-07
6.9938e-07
6.93501e-07
4.01371e-06
3.9434e-06
3.2968e-06
3.46155e-07
2.07245e-07
1.66656e-08
6.54342e-09
4.96557e-09
1.1099e-08
3.8355e-08
3.83502e-08
2.54389e-08
1.68714e-08
1.39782e-05
2.98624e-05
2.91781e-09
7.0891e-10
0.000404265
3.23457e-08
0.00116147
0.000267885
6.87774e-07
6.86597e-07
1.76299e-06
8.51336e-07
5.14705e-07
1.15603e-06
3.31272e-07
2.90553e-08
3.70837e-09
1.64391e-09
3.15156e-09
1.50697e-08
2.64609e-08
1.86489e-08
1.64081e-08
2.62305e-06
6.92635e-05
7.37719e-05
2.98432e-10
9.38683e-08
2.897e-08
1.20253e-05
0.000117246
7.77887e-06
7.00223e-08
1.09398e-09
1.0972e-09
1.09398e-09
1.26126e-09
8.11142e-09
3.89236e-08
3.82323e-09
6.39932e-10
5.15652e-10
5.15746e-10
1.73987e-09
1.03201e-08
1.59412e-08
1.64115e-08
4.59804e-05
0.00011091
6.29944e-05
9.38084e-08
2.49696e-08
1.15498e-08
2.60592e-08
3.73968e-06
2.1402e-06
5.42476e-08
4.68075e-09
3.44078e-09
1.72443e-09
2.99012e-10
2.99459e-10
4.95857e-10
5.1474e-10
6.61108e-10
1.21305e-09
1.36634e-09
1.40967e-08
2.659e-07
2.90501e-07
2.04462e-06
8.82745e-05
0.000161259
2.03708e-07
7.12556e-08
1.17738e-08
1.81373e-08
3.42083e-06
2.48182e-06
1.47577e-07
2.64482e-09
2.49784e-09
1.61568e-09
7.70146e-10
3.17722e-10
1.79206e-10
2.54182e-10
8.22653e-10
2.28285e-09
3.02084e-09
1.71655e-09
6.53116e-08
8.79224e-07
8.82634e-07
6.96704e-06
0.000159383
2.36174e-07
6.7313e-08
1.18834e-08
8.8492e-07
2.78174e-06
1.04289e-06
2.06402e-09
1.83171e-09
8.67748e-10
5.16734e-10
3.91977e-10
2.49096e-10
1.394e-10
2.4218e-10
9.27859e-10
2.64164e-09
3.56138e-09
1.69823e-09
1.69798e-09
1.51652e-06
2.18323e-05
4.85553e-05
9.00181e-05
1.20102e-07
1.5833e-08
1.29287e-08
6.60171e-07
3.90681e-07
3.85547e-08
3.1178e-09
8.68855e-10
3.3026e-10
1.85875e-10
1.22119e-10
6.72447e-11
5.86796e-11
2.21535e-10
9.69807e-10
2.6333e-09
3.46175e-09
3.20932e-09
1.76159e-07
3.89957e-06
2.28993e-05
4.39958e-05
4.54718e-05
5.0362e-09
2.30481e-09
3.83261e-08
2.3212e-08
1.8769e-09
2.07618e-09
7.86262e-10
1.85461e-10
4.81753e-11
1.31782e-11
3.75931e-12
5.82813e-12
3.62229e-11
2.2068e-10
9.35201e-10
2.4505e-09
5.07832e-09
1.92683e-08
3.87128e-07
1.85808e-06
2.89381e-06
2.50849e-06
2.49342e-07
1.09621e-09
9.90501e-10
1.21553e-08
2.90189e-09
1.19522e-09
5.79379e-10
1.6601e-10
3.8876e-11
8.46094e-12
1.92189e-12
1.22138e-12
5.72281e-12
3.44769e-11
2.15565e-10
9.04205e-10
2.21087e-09
4.26678e-09
1.45557e-08
6.24824e-08
5.03895e-09
2.55078e-09
7.45847e-09
4.50326e-09
4.01277e-10
4.73067e-10
1.27974e-09
7.16687e-10
3.67615e-10
1.33324e-10
3.62696e-11
7.69151e-12
1.39846e-12
3.64114e-13
8.8874e-13
5.17867e-12
2.96702e-11
1.89312e-10
7.4972e-10
1.70906e-09
2.49196e-09
3.1117e-09
3.44125e-09
1.47864e-09
1.36754e-09
1.85668e-09
3.10476e-09
1.40604e-10
1.83601e-10
2.52444e-10
1.82003e-10
8.69817e-11
2.79887e-11
6.39184e-12
1.25475e-12
2.0882e-13
1.4408e-13
7.50343e-13
4.12983e-12
2.28529e-11
1.41238e-10
5.29811e-10
1.20116e-09
1.72311e-09
1.63563e-09
9.98644e-10
7.72353e-10
7.56694e-10
1.15818e-09
1.99398e-09
3.67473e-11
4.79483e-11
5.98716e-11
4.04378e-11
1.68852e-11
4.83208e-12
1.04014e-12
1.75804e-13
3.70915e-14
9.82586e-14
5.61463e-13
2.92125e-12
1.5257e-11
8.54442e-11
2.9455e-10
6.68558e-10
1.04083e-09
1.10995e-09
7.76406e-10
4.73507e-10
3.55923e-10
4.84756e-10
8.49553e-10
8.09584e-12
9.93289e-12
1.24423e-11
7.07571e-12
2.69161e-12
7.35013e-13
1.3709e-13
2.06635e-14
1.21642e-14
6.56986e-14
3.6899e-13
1.78661e-12
8.52915e-12
3.85959e-11
1.183e-10
2.66926e-10
4.46358e-10
5.51592e-10
4.53382e-10
2.748e-10
1.5568e-10
1.60115e-10
2.9414e-10
1.16748e-12
1.47411e-12
1.83797e-12
1.02029e-12
3.76679e-13
8.84163e-14
1.51785e-14
2.70468e-15
5.84398e-15
3.64913e-14
2.01049e-13
9.03072e-13
3.88983e-12
1.37969e-11
3.69531e-11
8.08623e-11
1.46652e-10
2.00732e-10
1.95793e-10
1.2741e-10
6.21302e-11
4.88022e-11
8.03049e-11
1.68102e-13
2.08408e-13
2.50659e-13
1.32194e-13
4.19155e-14
9.01198e-15
1.46541e-15
5.27518e-16
2.55655e-15
1.56882e-14
8.46542e-14
3.8167e-13
1.58303e-12
4.81591e-12
1.14803e-11
2.38559e-11
4.27794e-11
6.07608e-11
6.82845e-11
5.10039e-11
2.74855e-11
1.65261e-11
2.20815e-11
1.69622e-14
2.18424e-14
2.72682e-14
1.37249e-14
4.00436e-15
7.96886e-16
1.34648e-16
1.40995e-16
8.85392e-16
5.37507e-15
2.84958e-14
1.33473e-13
5.2864e-13
1.56144e-12
3.6083e-12
7.39746e-12
1.29526e-11
1.87973e-11
2.23221e-11
1.93049e-11
1.23065e-11
7.29783e-12
6.67047e-12
1.55972e-15
2.12356e-15
2.55621e-15
1.23017e-15
3.34189e-16
6.24253e-17
1.32967e-17
3.6669e-17
2.44027e-16
1.48217e-15
7.88274e-15
3.72321e-14
1.50156e-13
4.43843e-13
1.0882e-12
2.24136e-12
3.90842e-12
5.9324e-12
7.35696e-12
7.00995e-12
5.21894e-12
3.41962e-12
2.41096e-12
1.1457e-16
1.7855e-16
2.08602e-16
9.62415e-17
2.45828e-17
4.40349e-18
1.62079e-18
8.12195e-18
5.49415e-17
3.27494e-16
1.82063e-15
8.93018e-15
3.54019e-14
1.13135e-13
2.85777e-13
6.17915e-13
1.14017e-12
1.80026e-12
2.34138e-12
2.4614e-12
2.05817e-12
1.40647e-12
9.68273e-13
8.14565e-18
1.29834e-17
1.49292e-17
6.6241e-18
1.60736e-18
2.87946e-19
2.30084e-19
1.51217e-18
1.03655e-17
6.34587e-17
3.58194e-16
1.81606e-15
7.421e-15
2.34655e-14
6.44825e-14
1.48038e-13
2.90304e-13
4.873e-13
6.82213e-13
7.7838e-13
6.99852e-13
5.25549e-13
3.61809e-13
5.56586e-19
8.35424e-19
9.46357e-19
4.05066e-19
9.43895e-20
1.83705e-20
3.26413e-20
2.39763e-19
1.67266e-18
1.05305e-17
6.09509e-17
3.14422e-16
1.31595e-15
4.24056e-15
1.24652e-14
3.07475e-14
6.38414e-14
1.15342e-13
1.73915e-13
2.10003e-13
2.03362e-13
1.56894e-13
1.24097e-13
3.51768e-20
4.83498e-20
5.37465e-20
2.22557e-20
5.0376e-21
1.22399e-21
4.23894e-21
3.28685e-20
2.34539e-19
1.52257e-18
9.08278e-18
4.76128e-17
2.02385e-16
6.96537e-16
2.07584e-15
5.55939e-15
1.22045e-14
2.38442e-14
3.65209e-14
5.03189e-14
4.99444e-14
4.09808e-14
3.47706e-14
2.05026e-21
2.54408e-21
2.76566e-21
1.11095e-21
2.47476e-22
8.90486e-23
4.90579e-22
3.9468e-21
2.89308e-20
1.94305e-19
1.19557e-18
6.39686e-18
2.76509e-17
1.01318e-16
3.19784e-16
8.78551e-16
2.04823e-15
3.81876e-15
6.97636e-15
9.87672e-15
1.0746e-14
8.64651e-15
8.98066e-15
1.11487e-22
1.22708e-22
1.30223e-22
5.08736e-23
1.13445e-23
6.93779e-24
5.04814e-23
4.19605e-22
3.17064e-21
2.20622e-20
1.39879e-19
7.65518e-19
3.38951e-18
1.30024e-17
4.30366e-17
1.22247e-16
2.98576e-16
6.33586e-16
1.10782e-15
1.71363e-15
1.89452e-15
1.74434e-15
1.94756e-15
5.71029e-24
5.46249e-24
5.65501e-24
2.15367e-24
4.93062e-25
5.45657e-25
4.64248e-24
3.98582e-23
3.11246e-22
2.24322e-21
1.46276e-20
8.18861e-20
3.73771e-19
1.4844e-18
5.10735e-18
1.51297e-17
3.72117e-17
8.37896e-17
1.55422e-16
2.53444e-16
3.12756e-16
3.05935e-16
3.85683e-16
2.76203e-25
2.25694e-25
2.27862e-25
8.47802e-26
2.0724e-26
4.12024e-26
3.84189e-25
3.40947e-24
2.75553e-23
2.05439e-22
1.37502e-21
7.87174e-21
3.71588e-20
1.52148e-19
5.42946e-19
1.68113e-18
4.51146e-18
1.02846e-17
2.01089e-17
3.47796e-17
4.58767e-17
5.04141e-17
6.42062e-17
1.25728e-26
8.69514e-27
8.55928e-27
3.11759e-27
8.62303e-28
2.90813e-27
2.88102e-26
2.6446e-25
2.21334e-24
1.70381e-23
1.16847e-22
6.84234e-22
3.34261e-21
1.41089e-20
5.22405e-20
1.68967e-19
4.77396e-19
1.1568e-18
2.38536e-18
4.39815e-18
6.43184e-18
8.63485e-18
1.05247e-17
5.357e-28
3.13552e-28
3.00872e-28
1.07524e-28
3.63101e-29
1.89967e-28
1.97071e-27
1.87174e-26
1.62162e-25
1.28619e-24
9.02594e-24
5.40922e-23
2.7331e-22
1.19103e-21
4.5779e-21
1.54482e-20
4.56796e-20
1.17368e-19
2.55737e-19
5.03971e-19
8.13503e-19
1.22367e-18
1.56364e-18
2.12914e-29
1.06186e-29
9.93124e-30
3.49282e-30
1.56572e-30
1.14691e-29
1.23728e-28
1.21571e-27
1.08908e-26
8.88103e-26
6.37079e-25
3.9094e-24
2.04069e-23
9.19481e-23
3.66965e-22
1.29053e-21
3.9798e-21
1.07924e-20
2.4776e-20
5.22895e-20
9.20772e-20
1.51281e-19
2.09246e-19
7.89223e-31
3.38767e-31
3.08859e-31
1.07396e-31
6.88653e-32
6.41554e-31
7.17121e-30
7.2848e-29
6.73714e-28
5.63624e-27
4.12957e-26
2.59518e-25
1.39783e-24
6.51646e-24
2.69984e-23
9.88674e-23
3.17655e-22
9.07447e-22
2.19059e-21
4.94722e-21
9.43019e-21
1.66547e-20
2.56274e-20
2.73312e-32
1.02125e-32
9.08063e-33
3.14489e-33
3.04087e-33
3.33806e-32
3.8578e-31
4.04732e-30
3.85658e-29
3.30349e-28
2.47012e-27
1.58962e-26
8.82317e-26
4.25539e-25
1.8291e-24
6.9702e-24
2.33508e-23
7.02252e-23
1.78612e-22
4.28564e-22
8.80659e-22
1.6478e-21
2.91485e-21
8.86013e-34
2.91777e-34
2.5324e-34
8.83846e-35
1.32311e-34
1.6225e-33
1.93574e-32
2.09456e-31
2.05214e-30
1.79675e-29
1.36962e-28
9.02602e-28
5.15666e-27
2.57058e-26
1.1454e-25
4.53964e-25
1.58755e-24
5.02391e-24
1.3518e-23
3.4367e-23
7.52033e-23
1.52267e-22
3.10498e-22
2.69413e-35
7.92287e-36
6.72063e-36
2.40652e-36
5.58861e-36
7.39777e-35
9.0995e-34
1.01398e-32
1.01942e-31
9.1104e-31
7.07127e-30
4.7732e-29
2.80376e-28
1.44298e-27
6.66016e-27
2.74338e-26
1.00232e-25
3.33469e-25
9.52738e-25
2.57059e-24
6.08431e-24
1.344e-23
3.19014e-23
7.70676e-37
2.05e-37
1.70232e-37
6.41846e-38
2.26978e-37
3.17579e-36
4.0226e-35
4.60889e-34
4.74608e-33
4.32458e-32
3.41486e-31
2.36137e-30
1.4249e-29
7.56342e-29
3.61435e-28
1.54603e-27
5.90359e-27
2.06232e-26
6.26853e-26
1.79924e-25
4.62641e-25
1.07549e-24
3.33194e-24
2.08381e-38
5.06512e-39
4.12616e-39
1.69671e-39
8.81929e-39
1.28766e-37
1.67778e-36
1.97357e-35
2.07886e-34
1.9303e-33
1.5498e-32
1.09806e-31
6.80489e-31
3.72328e-30
1.84178e-29
8.17818e-29
3.26469e-28
1.19651e-27
3.87311e-27
1.18541e-26
3.29722e-26
8.79905e-26
3.92364e-25
0.00140531
0.00239201
0.00498263
0.00618629
0.0113584
0.0212177
0.0386838
0.0659745
0.281824
0.299613
0.364168
0.382311
0.389537
0.351816
0.364655
0.382325
0.000405129
0.0189131
0.0703934
0.109629
-1.22239e-11
-1.52046e-19
-2.13837e-20
-1.35848e-18
4.69062e-08
3.16172e-08
-5.52364e-18
6.91e-18
2.22229e-08
3.07511e-08
3.58049e-09
3.38996e-17
3.85138e-09
6.04904e-09
2.48298e-09
2.33289e-11
7.56765e-10
1.33404e-09
7.08215e-10
2.46637e-10
4.49004e-10
7.07698e-10
6.11205e-10
4.72665e-10
5.183e-05
4.84772e-20
-5.79602e-12
1.18158e-11
0.000289307
0.000141292
5.91556e-05
-8.05066e-23
0.000295258
0.000341815
0.000341777
0.000322427
7.60951e-05
0.000207574
0.000341782
0.000341754
1.88189e-08
8.32611e-06
0.000104726
0.000217065
8.77066e-09
3.81468e-08
2.22243e-08
1.45579e-06
5.68154e-09
8.57772e-09
1.03024e-08
1.64212e-08
3.45004e-09
3.91615e-09
5.74726e-09
6.5347e-09
1.44298e-09
1.61714e-09
2.25919e-09
3.00745e-09
4.69202e-10
4.7349e-10
7.05195e-10
9.83313e-10
1.22972e-10
1.10971e-10
1.66317e-10
2.65599e-10
2.85137e-11
2.16102e-11
3.67104e-11
6.19394e-11
6.75287e-12
5.37426e-12
7.77812e-12
1.36129e-11
1.98492e-12
1.58931e-12
2.09428e-12
3.43663e-12
7.5422e-13
5.61548e-13
6.49468e-13
1.05536e-12
2.71148e-13
2.07062e-13
2.39682e-13
4.15929e-13
9.2442e-14
6.78168e-14
9.37346e-14
1.83052e-13
2.77963e-14
2.34724e-14
3.42042e-14
8.61832e-14
7.44235e-15
6.36144e-15
1.20724e-14
3.242e-14
1.69912e-15
1.74911e-15
3.54845e-15
1.12085e-14
3.56196e-16
3.87756e-16
9.33701e-16
3.2357e-15
6.50397e-17
8.91154e-17
2.58255e-16
1.06485e-15
1.16949e-17
2.28053e-17
8.44293e-17
4.07061e-16
2.09264e-18
5.86937e-18
2.74167e-17
1.4564e-16
3.64006e-19
1.36335e-18
7.48084e-18
4.33564e-17
5.87829e-20
2.69192e-19
1.68865e-18
1.06326e-17
8.77228e-21
4.85317e-20
3.41167e-19
2.3743e-18
1.24429e-21
8.41263e-21
6.89063e-20
5.62748e-19
1.77855e-22
1.54822e-21
1.52322e-20
1.49098e-19
3.03331e-23
3.61556e-22
4.58527e-21
5.49753e-20
6.53611e-24
9.7713e-23
1.45159e-21
1.88339e-20
0.0426716
0.21176
0.325757
0.415918
0.416568
0.261337
0.00822517
0.00603726
0.00535776
0.00529932
0.367778
0.871739
0.630221
0.428176
0.317605
0.154149
0.315055
0.821959
0.618464
0.201041
0.31035
0.307288
0.373538
0.542646
0.542874
0.490163
0.321891
0.122661
0.101218
0.101352
0.368111
0.507483
0.696848
0.818438
0.817954
0.845846
0.846796
0.539064
0.382286
0.162175
0.162645
0.165832
0.261281
0.473258
0.517086
0.592682
0.592314
0.554278
0.525378
0.365963
0.311702
0.31265
0.397434
0.397885
0.592499
0.839107
0.452526
0.271296
0.595812
0.859776
0.884684
0.518925
0.144083
0.122595
0.198158
0.308962
0.465593
0.56745
0.567376
0.563034
0.406183
0.277284
0.260736
0.266907
0.458936
0.187779
0.220535
0.86333
0.999988
0.999997
0.999999
0.761519
0.12177
0.000791283
0.000852289
0.042762
0.217271
0.335713
0.400954
0.635529
0.642204
0.422192
0.0843145
0.0426037
0.0401076
0.0226141
0.324276
0.927598
1
1
0.999998
0.720735
0.0404968
2.53924e-06
2.5739e-06
0.00268297
0.284516
0.53319
0.540633
0.819663
0.699644
0.125376
0.0401311
0.0401076
1.92736e-17
0.0183117
0.55488
1
1
1
0.999994
0.600282
0.0250813
2.53924e-06
0.00085617
0.390576
0.863017
0.907297
0.888847
0.947213
0.180238
0.045419
0.0401076
6.03274e-17
5.20482e-08
0.157351
0.908454
1
1
1
0.999959
0.667521
0.107238
0.000797569
0.0664766
0.51582
0.995328
0.999958
0.99382
0.348287
0.053567
0.0851018
3.60275e-16
1.17983e-06
0.00204006
0.474101
1
1
1
0.999981
0.999861
0.899894
0.463934
0.32263
0.326517
0.907257
0.999958
0.999911
0.788792
0.0654956
0.468411
3.09759e-09
2.18932e-08
7.0734e-08
0.130511
0.875258
1
1
1
0.999967
0.999859
0.999858
0.999858
0.976855
0.977945
0.999964
0.999964
0.997606
0.0911726
0.736653
1.15684e-09
2.42568e-09
1.29306e-08
1.50458e-08
0.347955
1
1
0.999999
0.999999
0.999969
0.999865
0.999882
0.999945
0.999964
0.999964
0.999964
0.997963
0.681794
0.989725
4.70216e-11
4.13555e-11
6.82339e-09
8.1579e-09
0.0128282
0.5082
0.999856
0.999999
0.999999
0.999999
1
0.99977
0.999499
0.999964
0.999964
0.999941
0.999649
0.999948
0.999947
-5.33841e-16
8.90621e-08
3.68365e-08
7.1598e-09
7.11109e-09
0.0135018
0.500179
0.975525
1
1
1
0.999923
0.996214
0.993025
0.998332
0.999963
0.999963
0.99991
0.999835
0.00020355
2.30132e-05
3.84889e-09
6.47525e-09
7.38378e-09
6.04724e-09
5.19295e-09
0.38355
0.922676
1
1
1
0.993123
0.9689
0.968918
0.996143
0.999959
0.995474
0.927804
0.000333659
2.42941e-05
3.82087e-09
4.71745e-09
9.12566e-09
7.09602e-09
5.20167e-09
5.12574e-09
0.266137
0.844847
1
1
0.99708
0.968881
0.963053
0.962892
0.987636
0.917043
0.873198
9.29878e-05
1.93338e-06
3.7921e-09
3.79353e-09
6.70047e-09
1.00004e-08
7.23872e-09
5.1358e-09
5.05962e-09
0.152427
0.719665
0.993718
0.999295
0.999233
0.977842
0.965321
0.971156
0.919195
0.873167
6.10172e-09
6.08415e-09
6.06643e-09
3.81072e-09
4.62972e-09
9.40586e-09
9.98126e-09
5.87612e-09
5.31509e-09
5.24214e-09
0.0312433
0.461786
0.852091
0.975468
0.999528
0.99961
0.983895
0.953263
0.935311
7.26882e-09
6.23463e-09
5.51523e-09
3.48829e-09
3.72817e-09
6.32025e-09
8.86403e-09
8.16447e-09
6.32697e-09
9.32823e-09
2.01841e-08
1.87174e-08
0.094159
0.362668
0.600396
0.753073
0.820516
0.82331
0.74723
6.5232e-09
5.49323e-09
3.87641e-09
2.87557e-09
3.12286e-09
4.38882e-09
5.75593e-09
5.89039e-09
5.91103e-09
1.69765e-08
8.68387e-08
2.72407e-07
2.31152e-07
1.6663e-07
1.86e-07
0.0492364
0.119157
0.166425
0.270179
3.37248e-09
2.91038e-09
2.13967e-09
1.98009e-09
2.38222e-09
3.03715e-09
3.74849e-09
4.45333e-09
4.53523e-09
4.4622e-09
6.28361e-08
1.1531e-06
1.53332e-06
1.94564e-06
1.29955e-07
1.24579e-07
1.60883e-07
0.0552297
0.647317
1.27803e-09
1.06107e-09
1.02703e-09
1.17637e-09
1.53946e-09
1.96123e-09
2.45768e-09
3.19897e-09
4.42418e-09
4.43517e-09
4.46221e-09
4.77642e-07
2.42998e-06
1.37616e-05
3.58937e-05
4.55846e-05
6.06916e-18
0.0605224
0.694516
3.80957e-10
3.71395e-10
4.47715e-10
6.13141e-10
8.68087e-10
1.16024e-09
1.56257e-09
2.21354e-09
3.28267e-09
5.06958e-09
8.19395e-09
8.21858e-09
8.24329e-09
1.29408e-06
7.23612e-05
0.000221362
2.78193e-08
0.0714375
0.575419
9.92515e-11
1.20718e-10
1.7973e-10
2.85557e-10
4.35184e-10
6.5104e-10
9.55792e-10
1.46198e-09
2.25797e-09
3.35451e-09
6.48575e-09
1.00774e-08
1.49933e-08
1.20752e-08
1.20695e-08
0.000202909
2.64825e-06
0.0952891
0.00710341
2.51334e-11
3.95056e-11
7.35481e-11
1.29555e-10
2.21077e-10
3.67678e-10
6.12677e-10
1.02154e-09
1.58097e-09
2.0711e-09
3.44018e-09
1.20895e-08
2.83757e-08
1.59581e-08
1.23872e-08
1.27065e-05
1.59651e-08
0.091835
8.10363e-08
6.80095e-12
1.4522e-11
3.25376e-11
6.72769e-11
1.31708e-10
2.63983e-10
5.12239e-10
9.54531e-10
1.5812e-09
2.16648e-09
3.00453e-09
9.15063e-09
3.98229e-08
3.74446e-08
1.93107e-08
1.71144e-08
2.79734e-09
0.00890765
8.79967e-08
2.41705e-12
6.80482e-12
1.79672e-11
4.63929e-11
1.08427e-10
2.61463e-10
5.76792e-10
1.16777e-09
2.16994e-09
3.78902e-09
3.93338e-09
3.94031e-09
4.40576e-08
4.33437e-08
2.18772e-08
3.58683e-05
0.00266457
2.89407e-07
2.84693e-07
1.12952e-12
4.08085e-12
1.26251e-11
3.7244e-11
9.86864e-11
2.60342e-10
6.15755e-10
1.26685e-09
2.47068e-09
4.27584e-09
4.14109e-09
4.54296e-09
7.76518e-08
7.23411e-08
1.8709e-08
0.000783969
0.0239047
0.000452572
0.111669
6.15889e-13
2.59429e-12
8.80214e-12
2.85558e-11
8.25576e-11
2.26598e-10
5.51043e-10
1.23122e-09
2.4412e-09
4.5204e-09
5.3777e-09
4.56322e-09
7.63718e-08
1.34682e-07
1.87026e-08
0.0015845
0.0241252
2.27701e-07
0.496828
3.11926e-13
1.48886e-12
5.55327e-12
1.94888e-11
6.06205e-11
1.74377e-10
4.39734e-10
1.03066e-09
2.16205e-09
3.71592e-09
6.55893e-09
1.31308e-08
1.40063e-07
2.08947e-07
1.8713e-08
0.0026509
0.0225471
2.19482e-07
0.529925
1.37527e-13
6.94809e-13
2.79078e-12
1.00768e-11
3.39842e-11
1.04814e-10
2.97464e-10
7.98972e-10
1.84727e-09
3.04538e-09
3.07438e-09
9.34697e-08
3.10851e-07
2.35483e-07
2.09181e-08
0.00666366
0.00026201
2.19965e-07
0.529887
4.81261e-14
2.71293e-13
1.21446e-12
5.11186e-12
2.02117e-11
7.50718e-11
2.57105e-10
7.94888e-10
1.96419e-09
3.54966e-09
3.12454e-09
1.61406e-07
3.13461e-07
2.27445e-07
3.93225e-08
0.00719918
0.000248361
2.19482e-07
0.529884
1.63803e-14
1.03208e-13
5.73505e-13
2.84873e-12
1.39325e-11
6.23712e-11
2.45477e-10
8.16719e-10
2.19906e-09
4.09036e-09
3.3034e-09
2.25127e-07
3.13928e-07
1.73097e-07
3.54832e-08
0.00570846
0.000985891
0.000475329
0.444283
6.16703e-15
4.89748e-14
3.2917e-13
1.97243e-12
1.10205e-11
5.45039e-11
2.25272e-10
7.93629e-10
2.2433e-09
4.43181e-09
5.92001e-09
2.27268e-07
3.13994e-07
1.5537e-07
3.54177e-08
3.57782e-08
0.000237947
0.0045298
0.0303667
2.78465e-15
2.58391e-14
1.99532e-13
1.35339e-12
8.29734e-12
4.35569e-11
1.89153e-10
7.43738e-10
2.32046e-09
4.77511e-09
5.79508e-09
1.64387e-07
3.13178e-07
2.40147e-07
6.04712e-08
4.23969e-08
3.90944e-08
0.00452696
0.000247442
1.02267e-15
9.67401e-15
8.02526e-14
6.06751e-13
3.9757e-12
2.15193e-11
1.0276e-10
4.50303e-10
1.48693e-09
3.49378e-09
5.89562e-09
5.0773e-08
3.03577e-07
2.93458e-07
1.10349e-07
4.49755e-08
3.97293e-08
0.00326627
0.000247671
2.91953e-16
2.88159e-15
2.50206e-14
1.99679e-13
1.42038e-12
8.55987e-12
4.36476e-11
2.14073e-10
8.17256e-10
2.35932e-09
4.87109e-09
4.9613e-09
1.48066e-07
2.27017e-07
1.9516e-07
6.44069e-08
3.96485e-08
0.000255568
0.000258141
7.15147e-17
7.37674e-16
6.87657e-15
5.9821e-14
4.62611e-13
2.98158e-12
1.79559e-11
9.10696e-11
4.01034e-10
1.33715e-09
3.67897e-09
8.09254e-09
1.50245e-08
6.01598e-08
1.70145e-07
9.25501e-08
3.7124e-08
7.94267e-09
9.39398e-06
1.70444e-17
1.99508e-16
2.15719e-15
2.13955e-14
1.9221e-13
1.34748e-12
8.40908e-12
4.53842e-11
2.00952e-10
7.34288e-10
2.16292e-09
5.27955e-09
8.17465e-09
1.09488e-08
7.78084e-08
9.18177e-08
6.0473e-08
9.74817e-09
3.24458e-09
4.45646e-18
6.08599e-17
7.77596e-16
8.38058e-15
8.066e-14
5.9344e-13
3.94725e-12
2.24314e-11
9.76538e-11
3.52657e-10
1.10724e-09
2.6438e-09
5.38004e-09
7.7794e-09
2.24011e-08
6.64386e-08
6.77403e-08
2.10967e-08
3.59251e-09
1.40426e-18
2.28073e-17
3.33403e-16
3.99743e-15
3.77816e-14
2.772e-13
1.70494e-12
8.77675e-12
3.91136e-11
1.40978e-10
4.52926e-10
1.09248e-09
2.45379e-09
1.8565e-09
1.50087e-09
4.74877e-09
2.77022e-08
1.67873e-08
3.6861e-09
6.05714e-19
1.1283e-17
1.69281e-16
2.00235e-15
1.98435e-14
1.61727e-13
1.04383e-12
5.29331e-12
2.07346e-11
6.67775e-11
1.76974e-10
3.55476e-10
6.81588e-10
1.44573e-10
4.1979e-11
4.2744e-13
2.16348e-15
5.07471e-09
2.5183e-09
2.12222e-19
3.83404e-18
5.21883e-17
6.36772e-16
6.09021e-15
4.32145e-14
2.37822e-13
1.0097e-12
3.45155e-12
9.56542e-12
2.06158e-11
3.73863e-11
3.99533e-11
2.57052e-12
2.0455e-14
1.35822e-16
3.78278e-19
2.25944e-10
2.13591e-10
)
;

boundaryField
{
    leftWall
    {
        type            zeroGradient;
    }
    rightWall
    {
        type            zeroGradient;
    }
    lowerWall
    {
        type            zeroGradient;
    }
    atmosphere
    {
        type            inletOutlet;
        inletValue      uniform 0;
        value           nonuniform List<scalar> 
46
(
2.08381e-38
5.06512e-39
4.12616e-39
1.69671e-39
8.81929e-39
1.28766e-37
1.67778e-36
1.97357e-35
2.07886e-34
1.9303e-33
1.5498e-32
1.09806e-31
6.80489e-31
3.72328e-30
1.84178e-29
8.17818e-29
3.26469e-28
1.19651e-27
3.87311e-27
1.18541e-26
3.29722e-26
8.79905e-26
3.92364e-25
6.53611e-24
9.7713e-23
1.45159e-21
1.88339e-20
2.12222e-19
3.83404e-18
5.21883e-17
6.36772e-16
6.09021e-15
0
0
0
0
0
0
0
0
0
0
0
0
0
0
)
;
    }
    defaultFaces
    {
        type            empty;
    }
}


// ************************************************************************* //
