/*--------------------------------*- C++ -*----------------------------------*\
| =========                 |                                                 |
| \\      /  F ield         | OpenFOAM: The Open Source CFD Toolbox           |
|  \\    /   O peration     | Version:  2312                                  |
|   \\  /    A nd           | Website:  www.openfoam.com                      |
|    \\/     M anipulation  |                                                 |
\*---------------------------------------------------------------------------*/
FoamFile
{
    version     2.0;
    format      ascii;
    arch        "LSB;label=32;scalar=64";
    class       volScalarField;
    location    "0.7";
    object      p;
}
// * * * * * * * * * * * * * * * * * * * * * * * * * * * * * * * * * * * * * //

dimensions      [1 -1 -2 0 0 0 0];

internalField   nonuniform List<scalar> 
2268
(
3242.61
3253.71
3260.22
3278.32
3311.63
3371.59
3478.55
3659.76
3961.88
4418.41
4992.2
5582.85
6072.82
6443.75
6703.87
6873.47
6970.36
7017.81
7034.85
7036.37
7037.47
7026.39
7036.79
2441.86
2452.65
2458.79
2475.68
2506.79
2562.7
2660.65
2834.3
3128.51
3586.59
4178.34
4795.13
5298.39
5671.76
5929.22
6091.98
6182.21
6224.28
6237.55
6237.2
6238.05
6227.5
6240.47
1647.79
1657.04
1661.72
1675.12
1700.42
1747.14
1835.83
1983.42
2261.12
2718.98
3341.46
4010.42
4541.69
4921.12
5170.52
5324.51
5401.96
5433.72
5439.77
5435.78
5436.19
5426.19
5442.55
1098.04
1101.42
1102.49
1107.12
1116.72
1134.66
1167.13
1236.35
1406.68
1792.12
2472.38
3231.49
3807.17
4195.21
4432.43
4571.24
4628.83
4645.4
4640.87
4631.77
4631.98
4622.83
4645.08
913.877
913.225
912.075
911.719
912.548
915.454
922.676
935.454
982.659
1114.51
1594.19
2449.23
3095.76
3495.34
3733.63
3831.49
3861.13
3857.82
3839.47
3824.11
3824.78
3816.65
3847.02
854.72
853.866
852.609
851.932
852.374
854.787
860.58
869.739
885.821
910.986
1035.66
1683.69
2404.58
2815.43
3032.5
3098.15
3095.17
3068.46
3033.82
3011.91
3014.62
3007.89
3049.86
795.376
794.227
792.694
791.551
791.39
792.868
796.481
804.378
817.717
837.528
846.563
1077.31
1723.37
2149.17
2343.99
2363.92
2323.21
2270.72
2217.82
2189.93
2197.64
2194.12
2256.68
735.95
734.459
732.53
730.822
730.021
730.683
733.323
739.007
748.312
760.615
752.601
750.867
1074.22
1486.38
1651.15
1618.77
1545.61
1476.49
1415.72
1387.73
1398.38
1397.13
1489.43
2477.8
2342.71
2903.01
3406.79
3763.32
3506.14
3278.33
3135.07
2954.82
2790.04
2706.55
2900.13
3490.17
2685.63
2050.73
1862.79
1873.5
2209.23
3040.11
2037.69
2052.41
2520.77
2938.9
2937.15
2692.08
2552.62
2434.47
2228.5
2014.49
1901.54
2104.22
2969.83
2276.11
1672.54
1524.47
1552.62
1784.67
2550.79
1945.22
1947.81
2278.82
2379.28
2036.59
1827.57
1782.24
1716.2
1592.23
1446.08
1344.71
1480.55
2330.7
1798.77
1451.08
1370.63
1400.94
1546.03
2170.3
1942.73
1618.19
1782.85
1624.38
1373.48
1286.72
1287.4
1291.77
1317.86
1257.5
1161.86
1227.38
1854.54
1486.81
1353.42
1303.63
1321.1
1407.41
1868.27
1884.4
1456.11
1302.69
1216.13
1160.43
1143.64
1155.6
1183.35
1239.54
1209.7
1120.51
1185.85
1583.21
1350.87
1302.89
1283.1
1294.29
1322.89
1639.39
1462.4
1279.11
1073.33
1070.71
1072.49
1068.63
1080.94
1117.75
1180.48
1173.17
1093.25
1165.5
1386.79
1293.29
1284.05
1279.39
1280.7
1285.42
1491.22
693.117
1064.04
992.988
990.769
996.626
999.496
1012.81
1048.13
1094.22
1129.93
1083.85
1167.43
1282.8
1273.32
1280.48
1277.44
1277.53
1275.4
1422.14
377.553
953.722
924.692
916.946
920.38
928.498
942.924
969.879
973.982
1081.33
1084.58
1179.63
1254.16
1267.38
1278.93
1276.17
1278.62
1274.02
1410.2
643.041
640.921
638.159
635.413
633.309
632.439
633.029
635.256
638.239
637.818
618.27
562.925
559.411
673.409
849.851
823.395
772.688
735.804
708.9
697.724
702.641
707.852
762.684
516.593
513.074
508.56
503.871
499.726
496.429
493.824
491.657
488.823
480.554
454.997
395.352
272.936
239.14
260.422
277.402
291.715
302.196
310.651
313.572
313.433
319.885
350.764
391.208
385.172
377.983
370.856
364.7
359.429
354.04
348.268
343.004
335.041
317.288
283.874
231.797
191.046
176.136
178.037
180.616
178.053
171.801
162.615
151.97
146.611
162.476
268.958
257.989
246.959
237.032
228.85
221.856
212.984
203.816
199.723
197.195
189.687
176.117
154.648
130.688
114.519
101.072
88.5963
75.1539
62.4367
50.469
38.815
28.5343
19.8488
152.734
130.917
114.142
103.341
98.1723
99.6204
98.0557
93.713
93.6804
93.9381
90.3443
84.1102
72.0587
56.2094
41.9277
30.8228
21.856
13.9597
10.0556
6.46047
3.3145
0.860247
-0.888601
63.1755
37.0837
28.1719
24.4412
22.135
23.2425
27.78
24.0718
23.9703
24.0876
22.4816
20.4621
17.4655
13.2149
8.29064
4.18541
1.10545
-0.792923
-1.24104
-1.566
-1.92484
-2.04028
-2.14783
8.91386
7.09076
5.27841
4.05245
2.63179
1.43273
0.393771
-0.961719
-1.00187
-0.848766
-1.05179
-1.12384
-1.13507
-1.14701
-1.15287
-1.1615
-1.1808
-1.18507
-1.31044
-1.52805
-1.84632
-2.27738
-2.46655
1.10771
0.217111
-0.590542
-0.932633
-1.0287
-1.17084
-1.23816
-1.28154
-1.34571
-1.32405
-1.2784
-1.26476
-1.26536
-1.2664
-1.26525
-1.26175
-1.25868
-1.25813
-1.31733
-1.43669
-1.56848
-1.7484
-1.92181
-1.06816
-1.50881
-1.46586
-1.47546
-1.46329
-1.4405
-1.46645
-1.42157
-1.44783
-1.45195
-1.42374
-1.40403
-1.39121
-1.37889
-1.36572
-1.34931
-1.33104
-1.31807
-1.33217
-1.37324
-1.43197
-1.51063
-1.62632
-1.71832
-1.86695
-1.76742
-1.71016
-1.68063
-1.64592
-1.61713
-1.58517
-1.57755
-1.56736
-1.54566
-1.52578
-1.50977
-1.49367
-1.47577
-1.45446
-1.43057
-1.4077
-1.38913
-1.38222
-1.40316
-1.45792
-1.59021
-1.91069
-2.04682
-1.97854
-1.92262
-1.87546
-1.82662
-1.77733
-1.73406
-1.70845
-1.68942
-1.66877
-1.64934
-1.63194
-1.61392
-1.59418
-1.57149
-1.54585
-1.51767
-1.48972
-1.47388
-1.48544
-1.54328
-1.69224
-2.01635
-2.11556
-2.1019
-2.06539
-2.01707
-1.9653
-1.91212
-1.86729
-1.83529
-1.81166
-1.79135
-1.77256
-1.75554
-1.73817
-1.71946
-1.69868
-1.67551
-1.64968
-1.62743
-1.61711
-1.63306
-1.69967
-1.84897
-2.07765
-2.14094
-2.15911
-2.1461
-2.11196
-2.06788
-2.02251
-1.98377
-1.95414
-1.93164
-1.9133
-1.89662
-1.8814
-1.86624
-1.85025
-1.8332
-1.81458
-1.79656
-1.78373
-1.7833
-1.80693
-1.87482
-2.01044
-2.12313
-2.16319
-2.19381
-2.19858
-2.18161
-2.15322
-2.1211
-2.09253
-2.06945
-2.05113
-2.03593
-2.02216
-2.00958
-1.99733
-1.98494
-1.97229
-1.95994
-1.95022
-1.94666
-1.9552
-1.98521
-2.05239
-2.15804
-2.18091
-2.20642
-2.23863
-2.25334
-2.25057
-2.2367
-2.21916
-2.20114
-2.18524
-2.17178
-2.16011
-2.14943
-2.13958
-2.13047
-2.12179
-2.1135
-2.10713
-2.10444
-2.10828
-2.12318
-2.15609
-2.21623
-2.30089
-2.26508
-2.28115
-2.30835
-2.32593
-2.33177
-2.329
-2.32189
-2.31277
-2.30327
-2.29426
-2.28593
-2.27815
-2.271
-2.2647
-2.25913
-2.25488
-2.25318
-2.25557
-2.26427
-2.28257
-2.31504
-2.36605
-2.43388
-2.37463
-2.38449
-2.4044
-2.42032
-2.42945
-2.43255
-2.43153
-2.42818
-2.42353
-2.41832
-2.41303
-2.40788
-2.40305
-2.39916
-2.3964
-2.39529
-2.39687
-2.40239
-2.41356
-2.43262
-2.46235
-2.50462
-2.55856
-2.50024
-2.50609
-2.51947
-2.53198
-2.5411
-2.54636
-2.54841
-2.54818
-2.54649
-2.54401
-2.54114
-2.53821
-2.53553
-2.5338
-2.53328
-2.53443
-2.53812
-2.54535
-2.55739
-2.57574
-2.6021
-2.63696
-2.67967
-2.63294
-2.63635
-2.6451
-2.65429
-2.66201
-2.66748
-2.67072
-2.67216
-2.67232
-2.67166
-2.67058
-2.66943
-2.66852
-2.66846
-2.66962
-2.67232
-2.67731
-2.68535
-2.69736
-2.71433
-2.73718
-2.76568
-2.79947
-2.76778
-2.76983
-2.77564
-2.78225
-2.78838
-2.79329
-2.79679
-2.79902
-2.80027
-2.80085
-2.80109
-2.80128
-2.80174
-2.80294
-2.80531
-2.80904
-2.81477
-2.82305
-2.83455
-2.84989
-2.86932
-2.89261
-2.91945
-2.90284
-2.9042
-2.90818
-2.91297
-2.91774
-2.92192
-2.92529
-2.92784
-2.92971
-2.93111
-2.93228
-2.93346
-2.93494
-2.9371
-2.94027
-2.94465
-2.95073
-2.95892
-2.96967
-2.98324
-2.99968
-3.0189
-3.04042
-3.03757
-3.03857
-3.04139
-3.04493
-3.04867
-3.05219
-3.05528
-3.05791
-3.06012
-3.06204
-3.06385
-3.06574
-3.06796
-3.07079
-3.07445
-3.07922
-3.08539
-3.09329
-3.1031
-3.11503
-3.12907
-3.1451
-3.16261
-3.17182
-3.17261
-3.17469
-3.17738
-3.18036
-3.18333
-3.18614
-3.18872
-3.19109
-3.19333
-3.19556
-3.19793
-3.20065
-3.20391
-3.2079
-3.21285
-3.21889
-3.22635
-3.23529
-3.24581
-3.25791
-3.27145
-3.28595
-3.30558
-3.30622
-3.30781
-3.30993
-3.31236
-3.31491
-3.31745
-3.31994
-3.32236
-3.32477
-3.32726
-3.32993
-3.33296
-3.33647
-3.34062
-3.34555
-3.35142
-3.35838
-3.36652
-3.37586
-3.38639
-3.39797
-3.41023
-3.43888
-3.43941
-3.44067
-3.44239
-3.44441
-3.44663
-3.44895
-3.45131
-3.45372
-3.45621
-3.45882
-3.46167
-3.46485
-3.46848
-3.47265
-3.47749
-3.4831
-3.48959
-3.497
-3.50535
-3.51461
-3.52467
-3.53522
-3.57175
-3.5722
-3.57323
-3.57466
-3.57639
-3.57835
-3.58046
-3.5827
-3.58505
-3.58753
-3.59019
-3.5931
-3.59633
-3.59996
-3.60408
-3.60876
-3.61408
-3.6201
-3.62687
-3.63439
-3.64261
-3.65147
-3.66073
-3.70422
-3.70462
-3.70548
-3.7067
-3.70821
-3.70996
-3.71189
-3.714
-3.71626
-3.71869
-3.72133
-3.72422
-3.72742
-3.73098
-3.73497
-3.73944
-3.74446
-3.75005
-3.75624
-3.76304
-3.77042
-3.77832
-3.78658
-3.83635
-3.8367
-3.83744
-3.83849
-3.83983
-3.8414
-3.84318
-3.84515
-3.8473
-3.84965
-3.85221
-3.85502
-3.85813
-3.86157
-3.86539
-3.86963
-3.87433
-3.87951
-3.88519
-3.89137
-3.89804
-3.90515
-3.9126
-3.96817
-3.96847
-3.96911
-3.97004
-3.97123
-3.97265
-3.97429
-3.97612
-3.97815
-3.98039
-3.98284
-3.98554
-3.98851
-3.99179
-3.99541
-3.99939
-4.00376
-4.00855
-4.01376
-4.0194
-4.02546
-4.03191
-4.03869
-4.09969
-4.09996
-4.10053
-4.10135
-4.10242
-4.10371
-4.10521
-4.1069
-4.1088
-4.1109
-4.11322
-4.11578
-4.11858
-4.12167
-4.12507
-4.12878
-4.13283
-4.13724
-4.14202
-4.14717
-4.15268
-4.15856
-4.16475
-4.23096
-4.2312
-4.2317
-4.23244
-4.23339
-4.23456
-4.23593
-4.23749
-4.23925
-4.2412
-4.24337
-4.24576
-4.24838
-4.25126
-4.25441
-4.25784
-4.26157
-4.26562
-4.26998
-4.27467
-4.2797
-4.28505
-4.29071
-4.36199
-4.36221
-4.36265
-4.36331
-4.36416
-4.36522
-4.36646
-4.36788
-4.3695
-4.3713
-4.3733
-4.3755
-4.37792
-4.38057
-4.38347
-4.38662
-4.39003
-4.39371
-4.39768
-4.40194
-4.4065
-4.41137
-4.41653
-4.49281
-4.49301
-4.4934
-4.49398
-4.49474
-4.49569
-4.49681
-4.4981
-4.49956
-4.5012
-4.50302
-4.50503
-4.50724
-4.50966
-4.51229
-4.51514
-4.51823
-4.52157
-4.52515
-4.52899
-4.53311
-4.5375
-4.54218
-4.62345
-4.62362
-4.62396
-4.62448
-4.62515
-4.62599
-4.62699
-4.62814
-4.62945
-4.63093
-4.63256
-4.63437
-4.63636
-4.63853
-4.64089
-4.64345
-4.64622
-4.6492
-4.65241
-4.65584
-4.65951
-4.66344
-4.66763
-4.75391
-4.75406
-4.75436
-4.75481
-4.7554
-4.75614
-4.75701
-4.75803
-4.75919
-4.76049
-4.76194
-4.76354
-4.7653
-4.76722
-4.76931
-4.77157
-4.77402
-4.77665
-4.77947
-4.7825
-4.78574
-4.7892
-4.7929
-4.88423
-4.88436
-4.88461
-4.885
-4.88551
-4.88614
-4.8869
-4.88778
-4.88878
-4.88991
-4.89117
-4.89256
-4.89409
-4.89576
-4.89757
-4.89953
-4.90165
-4.90393
-4.90637
-4.90899
-4.91179
-4.9148
-4.918
-5.01442
-5.01453
-5.01474
-5.01507
-5.01549
-5.01603
-5.01667
-5.01741
-5.01826
-5.01922
-5.02028
-5.02146
-5.02275
-5.02416
-5.0257
-5.02736
-5.02914
-5.03107
-5.03313
-5.03534
-5.03771
-5.04024
-5.04294
-5.1445
-5.14459
-5.14476
-5.14503
-5.14538
-5.14581
-5.14633
-5.14694
-5.14763
-5.14841
-5.14929
-5.15025
-5.15131
-5.15246
-5.15371
-5.15507
-5.15653
-5.1581
-5.15978
-5.16158
-5.16351
-5.16557
-5.16777
-5.2745
-5.27457
-5.2747
-5.27491
-5.27517
-5.27551
-5.27592
-5.27639
-5.27692
-5.27753
-5.27821
-5.27896
-5.27978
-5.28067
-5.28164
-5.28269
-5.28383
-5.28504
-5.28635
-5.28774
-5.28923
-5.29082
-5.2925
-5.40443
-5.40448
-5.40457
-5.40472
-5.40491
-5.40515
-5.40544
-5.40577
-5.40615
-5.40658
-5.40707
-5.4076
-5.40819
-5.40882
-5.40951
-5.41026
-5.41107
-5.41193
-5.41285
-5.41384
-5.41489
-5.41602
-5.4172
-5.53432
-5.53434
-5.53439
-5.53448
-5.53459
-5.53473
-5.53491
-5.53511
-5.53533
-5.53559
-5.53588
-5.5362
-5.53655
-5.53693
-5.53734
-5.53779
-5.53827
-5.53878
-5.53933
-5.53991
-5.54053
-5.54119
-5.54188
-5.66418
-5.66416
-5.66416
-5.6642
-5.66423
-5.66428
-5.66434
-5.6644
-5.66448
-5.66456
-5.66466
-5.66477
-5.66488
-5.66501
-5.66514
-5.66529
-5.66545
-5.66561
-5.66579
-5.66597
-5.66616
-5.66635
-5.66653
870.025
902.149
931.841
931.599
404.507
448.446
502.033
565.678
224.653
292.875
374.247
489.078
21.6081
118.432
257.076
377.865
0.169178
1.55692
8.29881
32.711
-2.40779
-2.69184
-2.43897
-0.502896
-2.3746
-2.32649
-2.53832
-3.52282
-1.96856
-2.0202
-2.11043
-2.43191
-1.7891
-1.9687
-2.17377
-2.38038
-1.82538
-2.04841
-2.30959
-2.54819
-1.95017
-2.17237
-2.42935
-2.68374
-2.07802
-2.26533
-2.4801
-2.70072
-2.19279
-2.33873
-2.49753
-2.66723
-2.29368
-2.40315
-2.5235
-2.65337
-2.4013
-2.48044
-2.56668
-2.66201
-2.50971
-2.56636
-2.62671
-2.69355
-2.61659
-2.65761
-2.70004
-2.74643
-2.72311
-2.75291
-2.78308
-2.81526
-2.83166
-2.85334
-2.87501
-2.89772
-2.94362
-2.95968
-2.97547
-2.99178
-3.0591
-3.07136
-3.08323
-3.09533
-3.1775
-3.18718
-3.19642
-3.20574
-3.29814
-3.30602
-3.31345
-3.32091
-3.42045
-3.42703
-3.43322
-3.4394
-3.54397
-3.5496
-3.55491
-3.5602
-3.66836
-3.67328
-3.67795
-3.68262
-3.79334
-3.79772
-3.80191
-3.80611
-3.91868
-3.92262
-3.92644
-3.9303
-4.0442
-4.04779
-4.05131
-4.05488
-4.16977
-4.17306
-4.17632
-4.17964
-4.29529
-4.2983
-4.30132
-4.30442
-4.4207
-4.42345
-4.42623
-4.42909
-4.54594
-4.54843
-4.55097
-4.55359
-4.67099
-4.67323
-4.67551
-4.67789
-4.79586
-4.79783
-4.79986
-4.80197
-4.92055
-4.92225
-4.92401
-4.92584
-5.04509
-5.04651
-5.04799
-5.04954
-5.1695
-5.17065
-5.17185
-5.1731
-5.29382
-5.2947
-5.29562
-5.29658
-5.41811
-5.41872
-5.41935
-5.42002
-5.5424
-5.54275
-5.5431
-5.54349
-5.66666
-5.66674
-5.66682
-5.66692
655.676
839.75
845.765
829.956
817.482
819.513
826.429
840.91
828.089
885.983
997.988
1162.47
1227.4
1249.45
1268.04
1270.63
1270.25
1279.28
1407.05
644.635
715.548
774.697
779.398
738.522
716.417
678.925
680.069
687.937
713.655
776.702
910.488
1026.54
1108.77
1176.61
1215.36
1232.06
1254.75
1445.02
692.45
755.225
745.237
726.24
696.556
646.174
583.831
564.549
570.933
591.262
630.653
689.665
772.255
865.064
959.124
1036.9
1122.11
1210.93
1392.82
565.996
662.868
670.138
654.299
650.028
596.571
550.964
512.684
509.464
519.907
545.165
580.79
626.822
682.082
747.919
820.278
937.835
1060.04
1219.8
166.583
261.663
392.803
472.33
522.524
534.453
509.491
502.053
499.039
499.36
509.55
547.844
576.213
598.947
626.672
666.992
742.783
833.087
1014.82
2.7032
29.907
160.775
301.437
384.754
438.997
481.852
498.582
498.249
497.919
498.882
505.028
542.928
558.338
567.817
577.997
625.637
650.265
823.55
-5.80168
-4.24972
19.4376
155.721
268.188
341.163
407.368
476.005
496.222
497.062
495.668
493.375
507.165
519.56
521.64
515.375
544.142
538.764
659.875
-3.66206
-4.41254
-2.31365
51.9475
170.149
256.927
327.333
399.897
466.463
491.865
493.44
487.585
479.921
466.468
465.189
452.142
468.76
458.193
521.518
-2.91105
-3.87048
-2.8916
2.04377
87.4854
180.173
252.87
318.073
380.051
435.198
475.918
462.543
437.954
410.919
400.294
386.743
398.502
389.332
430.679
-2.90078
-3.42375
-2.9804
-2.02235
27.491
108.941
181.036
242.672
297.142
344.766
381.905
391.402
378.33
340.343
337.141
320.088
342.408
326.161
413.08
-3.06424
-3.57911
-3.20047
-3.16917
-0.434467
43.3657
110.951
170.148
221.054
263.191
292.278
302.635
296.414
277.335
273.696
260.025
291.119
272.417
270.528
-3.03692
-3.40048
-3.31392
-3.1394
-2.89505
5.12824
45.7949
101.106
149.404
188.313
215.208
227.756
227.471
220.832
218.847
216.123
248.563
245.802
253.485
-2.94275
-3.2578
-3.29237
-3.16154
-3.00983
-2.65061
6.58197
39.2352
83.8385
121.527
148.461
164.047
170.106
171.747
175.399
186.305
218.229
229.483
237.366
-2.86481
-3.10431
-3.17794
-3.1696
-2.99916
-2.87543
-2.72653
4.09191
28.8399
63.2894
91.3489
110.238
121.902
130.149
140.115
159.715
195.847
214.1
212.69
-2.81904
-2.99678
-3.09415
-3.08996
-3.08585
-2.93853
-2.71825
-2.67021
2.12501
19.0897
43.5084
64.1211
79.7725
93.1235
108.502
132.885
165.12
180.022
240.578
-2.80543
-2.93606
-3.0351
-3.0857
-3.08498
-2.97095
-2.81361
-2.65248
-2.63868
0.377538
12.4914
26.888
43.2642
59.246
77.8489
101.089
134.653
202.747
303.33
-2.82193
-2.91691
-2.99728
-3.03951
-3.03281
-2.99467
-2.88146
-2.77231
-2.67908
-2.76576
-1.99492
7.71594
16.816
27.2782
43.2572
64.4109
98.892
170.739
279.659
-2.86712
-2.93312
-2.99288
-3.02837
-3.03262
-3.00733
-2.96017
-2.88394
-2.83263
-2.82263
-2.76594
-2.79987
-0.10464
8.24244
14.5036
23.5978
49.2784
123.217
218.63
-2.93358
-2.97934
-3.02321
-3.05289
-3.06317
-3.05336
-3.02448
-2.98486
-2.95007
-2.9154
-2.88303
-2.82225
-2.83465
-2.8804
-2.95125
-1.60463
8.04615
55.234
130.611
-3.0173
-3.04973
-3.08196
-3.10558
-3.11661
-3.11415
-3.09894
-3.07505
-3.04853
-3.01817
-2.96821
-2.91415
-2.89123
-2.8655
-2.9053
-3.3273
-1.67656
7.97137
66.1274
-3.1142
-3.13791
-3.16184
-3.18026
-3.1905
-3.19197
-3.18512
-3.17192
-3.1541
-3.13137
-3.10234
-3.0714
-3.06448
-3.11972
-3.20576
-3.34932
-3.18287
-2.9782
19.7444
-3.22027
-3.23841
-3.2568
-3.27157
-3.28103
-3.2849
-3.28345
-3.27744
-3.26773
-3.25491
-3.24001
-3.22741
-3.22672
-3.23557
-3.24463
-3.40871
-3.0786
-3.34134
7.21735
-3.33257
-3.34722
-3.36209
-3.37459
-3.38368
-3.38923
-3.39143
-3.39064
-3.38734
-3.38205
-3.37553
-3.36917
-3.36473
-3.36497
-3.35044
-3.44607
-3.15098
-2.95891
-3.32021
-3.44914
-3.46158
-3.47428
-3.48548
-3.49457
-3.5015
-3.50646
-3.50962
-3.51126
-3.51165
-3.51103
-3.50918
-3.50488
-3.49734
-3.45157
-3.52579
-3.1847
-3.00025
-3.16329
-3.56864
-3.57967
-3.59103
-3.60155
-3.61088
-3.61905
-3.62622
-3.63258
-3.63821
-3.64322
-3.64746
-3.6499
-3.64716
-3.64068
-3.58092
-3.66224
-3.30688
-3.99335
-3.45115
-3.69015
-3.70025
-3.7108
-3.72101
-3.73072
-3.74003
-3.74912
-3.75817
-3.76727
-3.77645
-3.78542
-3.7931
-3.79592
-3.79375
-3.77811
-3.76792
-3.62688
-4.53354
-3.51723
-3.813
-3.82248
-3.83252
-3.84262
-3.85275
-3.86308
-3.87385
-3.88526
-3.89749
-3.91069
-3.92477
-3.93914
-3.95258
-3.95727
-4.03682
-3.99172
-4.50131
-4.9362
-5.47789
-3.93669
-3.94573
-3.95542
-3.96548
-3.97599
-3.98718
-3.99932
-4.01277
-4.0278
-4.04485
-4.06447
-4.08828
-4.11514
-4.1165
-4.28234
-4.15733
-4.40507
-4.84057
-2.69906
-4.06088
-4.06953
-4.07893
-4.08894
-4.09972
-4.11152
-4.12468
-4.13973
-4.15702
-4.17725
-4.20133
-4.23039
-4.27091
-4.28297
-4.4558
-4.35958
-4.49932
-4.80193
-2.35904
-4.18528
-4.19356
-4.20265
-4.21253
-4.22338
-4.23552
-4.24934
-4.26532
-4.28407
-4.30644
-4.3336
-4.36656
-4.41491
-4.45471
-4.59389
-4.71588
-4.83957
-4.87285
-3.33913
-4.3097
-4.31758
-4.3263
-4.33591
-4.34663
-4.35876
-4.37274
-4.38905
-4.40836
-4.43165
-4.46018
-4.49484
-4.54482
-4.60307
-4.71633
-4.87427
-4.78977
-4.94437
-2.99194
-4.43401
-4.44143
-4.44969
-4.45888
-4.46922
-4.48101
-4.49465
-4.51062
-4.52952
-4.55227
-4.58008
-4.61389
-4.66137
-4.72826
-4.82162
-5.08696
-4.76103
-5.00122
-2.63047
-4.55812
-4.56501
-4.57271
-4.58133
-4.59107
-4.6022
-4.61507
-4.63006
-4.64766
-4.66856
-4.69359
-4.72372
-4.76402
-4.82691
-4.91465
-5.17131
-4.89173
-5.24948
-4.67033
-4.682
-4.68829
-4.69533
-4.70324
-4.71218
-4.7224
-4.73415
-4.74768
-4.76327
-4.78132
-4.802
-4.82567
-4.8552
-4.9003
-4.96311
-5.10503
-4.99996
-5.16929
-5.27901
-4.80563
-4.81125
-4.81756
-4.82464
-4.83265
-4.84175
-4.85213
-4.8639
-4.87714
-4.89189
-4.90788
-4.92477
-4.94239
-4.96721
-5.00404
-5.08164
-5.04608
-5.13527
-5.17455
-4.92903
-4.93394
-4.93944
-4.94563
-4.95261
-4.96047
-4.96936
-4.97927
-4.99015
-5.0018
-5.01367
-5.02505
-5.03361
-5.04328
-5.06257
-5.10777
-5.10524
-5.16446
-5.11302
-5.05223
-5.05639
-5.06105
-5.06629
-5.07221
-5.07879
-5.08618
-5.09432
-5.10302
-5.11202
-5.12063
-5.12817
-5.13281
-5.13439
-5.14241
-5.165
-5.16464
-5.17302
-5.11212
-5.17529
-5.17866
-5.18245
-5.1867
-5.19143
-5.19688
-5.20289
-5.20942
-5.21629
-5.22323
-5.22955
-5.23473
-5.23775
-5.2376
-5.23876
-5.24621
-5.23855
-5.22017
-5.1568
-5.29827
-5.30084
-5.30378
-5.30709
-5.3108
-5.31502
-5.31973
-5.32488
-5.33026
-5.33573
-5.34056
-5.34449
-5.34686
-5.34652
-5.34562
-5.34676
-5.33534
-5.31311
-5.25314
-5.42121
-5.42296
-5.42506
-5.42741
-5.43012
-5.43324
-5.43678
-5.44077
-5.445
-5.44954
-5.45362
-5.45724
-5.45979
-5.4606
-5.46036
-5.46086
-5.45058
-5.43583
-5.38887
-5.54419
-5.54526
-5.54652
-5.54799
-5.54973
-5.55174
-5.55421
-5.55723
-5.56074
-5.56475
-5.56855
-5.57264
-5.57596
-5.57888
-5.58078
-5.58297
-5.5759
-5.57127
-5.54037
-5.66712
-5.66744
-5.66788
-5.66852
-5.66956
-5.67099
-5.67264
-5.67466
-5.67721
-5.6805
-5.68413
-5.68917
-5.694
-5.70014
-5.70541
-5.71065
-5.70677
-5.7086
-5.6841
)
;

boundaryField
{
    leftWall
    {
        type            calculated;
        value           nonuniform List<scalar> 
50
(
3242.61
2441.86
1647.79
1098.04
913.877
854.72
795.376
735.95
643.041
516.593
391.208
268.958
152.734
63.1755
8.91386
1.10771
-1.06816
-1.71832
-1.91069
-2.01635
-2.07765
-2.12313
-2.18091
-2.26508
-2.37463
-2.50024
-2.63294
-2.76778
-2.90284
-3.03757
-3.17182
-3.30558
-3.43888
-3.57175
-3.70422
-3.83635
-3.96817
-4.09969
-4.23096
-4.36199
-4.49281
-4.62345
-4.75391
-4.88423
-5.01442
-5.1445
-5.2745
-5.40443
-5.53432
-5.66418
)
;
    }
    rightWall
    {
        type            calculated;
        value           nonuniform List<scalar> 
50
(
3040.11
2550.79
2170.3
1868.27
1639.39
1491.22
1422.14
1410.2
1407.05
1445.02
1392.82
1219.8
1014.82
823.55
659.875
521.518
430.679
413.08
270.528
253.485
237.366
212.69
240.578
303.33
279.659
218.63
130.611
66.1274
19.7444
7.21735
-3.32021
-3.16329
-3.45115
-3.51723
-5.47789
-2.69906
-2.35904
-3.33913
-2.99194
-2.63047
-4.67033
-5.27901
-5.17455
-5.11302
-5.11212
-5.1568
-5.25314
-5.38887
-5.54037
-5.6841
)
;
    }
    lowerWall
    {
        type            calculated;
        value           nonuniform List<scalar> 
62
(
3640.76
3651.86
3658.37
3676.47
3709.78
3769.74
3876.7
4057.91
4360.03
4816.56
5390.35
5981
6470.97
6841.9
7102.02
7271.62
7368.51
7415.96
7433
7434.52
7435.62
7424.54
7434.92
7036.79
6240.47
5442.55
4645.08
3847.02
3049.86
2256.68
1489.43
1251.3
1290.66
1387.58
1386.88
2477.8
2037.69
1945.22
1942.73
1884.4
1462.4
693.117
377.553
2616.05
2534.27
3094.25
3641.36
4095.69
3837.85
3582.72
3435.4
3255.06
3135.09
3077.33
3225.09
3619.29
2775.78
2169.11
2022.14
2033.61
2370.89
3202.45
)
;
    }
    atmosphere
    {
        type            calculated;
        value           nonuniform List<scalar> 
46
(
-5.72904
-5.72904
-5.72904
-5.72904
-5.72904
-5.72904
-5.72904
-5.72904
-5.72904
-5.72904
-5.72904
-5.72904
-5.72904
-5.72904
-5.72904
-5.72904
-5.72904
-5.72904
-5.72904
-5.72904
-5.72904
-5.72904
-5.72904
-5.72904
-5.72904
-5.72904
-5.72904
-5.72904
-5.72904
-5.72904
-5.72904
-5.72904
-5.72919
-5.72987
-5.73125
-5.73347
-5.73671
-5.74087
-5.74727
-5.75328
-5.76277
-5.77119
-5.77922
-5.77726
-5.77702
-5.74771
)
;
    }
    defaultFaces
    {
        type            empty;
    }
}


// ************************************************************************* //
