/*--------------------------------*- C++ -*----------------------------------*\
| =========                 |                                                 |
| \\      /  F ield         | OpenFOAM: The Open Source CFD Toolbox           |
|  \\    /   O peration     | Version:  2312                                  |
|   \\  /    A nd           | Website:  www.openfoam.com                      |
|    \\/     M anipulation  |                                                 |
\*---------------------------------------------------------------------------*/
FoamFile
{
    version     2.0;
    format      ascii;
    arch        "LSB;label=32;scalar=64";
    class       volScalarField;
    location    "0.7";
    object      p_rgh;
}
// * * * * * * * * * * * * * * * * * * * * * * * * * * * * * * * * * * * * * //

dimensions      [1 -1 -2 0 0 0 0];

internalField   nonuniform List<scalar> 
2268
(
3640.76
3651.86
3658.37
3676.47
3709.78
3769.74
3876.7
4057.91
4360.03
4816.56
5390.35
5981
6470.97
6841.9
7102.02
7271.62
7368.51
7415.96
7433
7434.52
7435.62
7424.54
7434.92
3636.3
3647.1
3653.24
3670.13
3701.24
3757.15
3855.1
4028.75
4322.96
4781.04
5372.79
5989.58
6492.84
6866.21
7123.67
7286.43
7376.66
7418.73
7432
7431.65
7432.5
7421.94
7434.84
3593.92
3607.69
3614.65
3632.65
3665.17
3721.8
3821.83
3974.17
4251.87
4709.73
5332.21
6001.17
6532.44
6911.86
7161.27
7315.26
7392.71
7424.47
7430.52
7426.53
7426.94
7416.93
7433.24
2176.72
2208.16
2223.02
2259.47
2325.05
2438.93
2642.38
3029.77
3637.33
4489.53
5259.43
6018.54
6594.22
6982.26
7219.48
7358.29
7415.87
7432.45
7427.92
7418.82
7419.03
7409.88
7432.12
1178.74
1178.09
1176.94
1176.58
1177.41
1180.32
1187.54
1208.8
1502.72
2457.44
4622.39
6032.58
6679.11
7078.69
7316.98
7414.84
7444.48
7441.17
7422.82
7407.46
7408.13
7400
7430.37
1178.44
1177.59
1176.33
1175.65
1176.1
1178.51
1184.3
1193.46
1209.54
1234.74
2458.98
5694.96
6784.23
7195.08
7412.15
7477.8
7474.82
7448.11
7413.47
7391.56
7394.27
7387.44
7429.21
1177.96
1176.81
1175.28
1174.13
1173.97
1175.45
1179.06
1186.96
1200.3
1220.11
1285.69
4058.63
6877.65
7325.12
7519.93
7539.87
7499.15
7446.67
7393.77
7365.88
7373.59
7369.84
7431.48
1177.39
1175.9
1173.97
1172.26
1171.46
1172.12
1174.76
1180.45
1189.75
1202.06
1194.04
2103.89
6272.07
7458.63
7623.4
7589.63
7453.89
7242.33
6992.52
6877.9
6916.87
6937.73
7202.39
2616.05
2534.27
3094.25
3641.36
4095.69
3837.85
3582.72
3435.4
3255.06
3135.09
3077.33
3225.09
3619.29
2775.78
2169.11
2022.14
2033.61
2370.89
3202.45
2198.99
2118.42
2610.66
3306.97
4013.32
3837.43
3698.93
3580.69
3364.32
3112.48
3016.49
3094.47
3312.05
2512.48
1988.71
1832.32
1823.27
2088.33
2898.54
2017.46
2144.69
3110.64
3600.47
3515.85
3497.16
3562.04
3415.96
2686.4
2230.25
2240.01
2861.3
2868.45
2190.66
1608.41
1501.95
1529.29
1758.38
2632.24
2044.55
2901.02
3196.61
2886.85
2162.71
1971.59
2081.42
1913.02
1676.54
1425.56
1356.21
2516.25
2468.2
1737.52
1446.99
1379.67
1409.32
1605.86
2512.28
2167.32
3301.45
3025.26
1778.94
1450.1
1433.35
1445.32
1462.51
1479.78
1354.73
1262.74
2051.18
2353.79
1530.37
1385.81
1300.02
1312.02
1453.84
2304.37
4260.59
3575.17
1515.13
1406.91
1407.99
1412.42
1435.05
1464.74
1573.52
1340.71
1261.07
1540.47
2336.69
1440.75
1299.46
1282.29
1294.85
1406.8
1938.68
3324.2
1762.85
1372.77
1370.61
1377.77
1380.9
1405.6
1450.56
1720.3
1411.7
1278.61
1345.15
2226.66
1351.72
1287.35
1284.36
1286.37
1392.64
1954.91
1408.19
1408.65
1328.6
1304.66
1337.7
1368.29
1382.73
1425.68
1816.02
1766.39
1305.08
1396.94
1597.32
1299.26
1290.83
1288.41
1288.9
1417.65
2352.78
1176.51
1174.39
1171.63
1168.88
1166.78
1165.91
1166.5
1168.72
1171.71
1171.28
1151.74
1098.55
2366.59
5471.16
6153.4
5259.02
4414.99
3801.58
3326.97
3159.58
3204.03
3200.67
3514.55
1175.25
1171.74
1167.22
1162.53
1158.39
1155.09
1152.49
1150.32
1147.48
1139.22
1113.66
1054.01
931.597
925.123
919.084
936.064
950.375
960.798
969.173
972.021
971.81
978.189
1007.89
1175.06
1169.03
1161.84
1154.71
1148.56
1143.28
1137.9
1132.12
1126.86
1118.9
1101.14
1067.73
1015.65
974.902
959.994
961.894
964.472
959.998
943.13
915.893
880.929
836.085
798.93
1178.01
1167.04
1156.01
1146.08
1137.9
1130.9
1122.03
1096.64
1083.21
1073.19
1069.45
1074.49
1058.61
1026.02
990.352
947.047
888.906
796.897
652.473
517.205
395.66
299.802
221.822
1178.3
1137.24
1078.81
1017.49
974.876
916.396
786.974
650.115
622.74
703.299
703.817
698.728
692.134
649.233
569.66
474.558
369.2
257.335
195.656
136.898
87.7496
46.1012
10.6728
848.806
506.678
293.525
221.099
200.617
266.976
473.951
466.452
464.772
469.972
448.998
415.121
356.578
275.778
182.663
104.392
47.0829
4.62171
-0.0815136
-0.40654
-0.765387
-0.88083
-0.988377
97.0732
62.701
86.7092
84.6544
59.4124
45.9652
34.1434
1.26055
8.09744
8.79217
2.91824
0.174457
0.154528
0.142921
0.138122
0.132476
0.11341
0.105502
-0.0256756
-0.243174
-0.561636
-0.992714
-1.18186
6.89312
24.6841
12.3413
8.84216
6.28443
0.975255
0.173236
0.130279
0.0705689
0.0904914
0.132337
0.146643
0.14647
0.145925
0.146482
0.159465
0.162935
0.158516
0.0933306
-0.0229391
-0.158083
-0.338528
-0.51191
3.83284
1.76043
1.5293
0.060116
0.07227
0.0950634
0.071653
0.116596
0.0898391
0.083338
0.111438
0.131008
0.143822
0.156135
0.169312
0.185739
0.209288
0.217481
0.202928
0.172496
0.125949
0.02445
-0.0912209
0.276936
-0.205171
0.855798
0.172034
-0.0197885
0.0148795
0.0445522
0.075753
0.0830991
0.0938163
0.114832
0.134458
0.150448
0.166551
0.184453
0.20577
0.229671
0.252531
0.271123
0.280196
0.314456
0.263467
0.0700849
-0.125079
-0.259724
-0.182074
-0.0326839
-0.0829645
-0.0410616
0.00808499
0.0513562
0.076965
0.0959896
0.116649
0.136103
0.153473
0.171493
0.191233
0.213921
0.239564
0.267751
0.295727
0.311572
0.340954
0.341
0.149415
-0.105537
-0.204125
-0.191236
-0.154754
-0.10287
-0.0526511
-0.00146473
0.0433209
0.0753206
0.0989535
0.119255
0.138049
0.155072
0.172435
0.19115
0.211924
0.235094
0.260942
0.283439
0.293797
0.279503
0.295123
0.215481
-0.0415718
-0.105062
-0.123294
-0.110274
-0.0726805
-0.0295592
0.0134447
0.0520311
0.0816622
0.104159
0.122504
0.139186
0.154403
0.169564
0.185553
0.202604
0.221225
0.239241
0.252134
0.253397
0.229771
0.168058
0.187315
0.0381583
-0.0021213
-0.0328026
-0.0366296
-0.0176176
0.0088987
0.039899
0.0684711
0.0915505
0.109871
0.125064
0.13884
0.151415
0.163669
0.176053
0.188709
0.201064
0.210782
0.214338
0.207431
0.199335
0.160966
0.100024
0.105432
0.0797926
0.0475765
0.0336008
0.0360697
0.0495321
0.067035
0.0850499
0.100951
0.114407
0.12608
0.136765
0.146607
0.155726
0.164402
0.172692
0.179068
0.181756
0.178114
0.167459
0.156222
0.120148
0.0371745
0.146314
0.130234
0.10308
0.085481
0.0796216
0.0823861
0.0894941
0.0986192
0.108117
0.117129
0.125455
0.133234
0.140387
0.146683
0.152259
0.156507
0.158208
0.155841
0.147578
0.131055
0.0998305
0.0483484
-0.0221901
0.161953
0.152089
0.132195
0.116262
0.10713
0.104033
0.105052
0.108398
0.113051
0.118258
0.123548
0.128703
0.133531
0.137418
0.140181
0.141292
0.139719
0.134209
0.123095
0.103964
0.0742319
0.0319649
-0.0219796
0.161538
0.155682
0.142309
0.129791
0.120677
0.115417
0.113366
0.113592
0.115284
0.117768
0.120632
0.123563
0.126244
0.127974
0.128491
0.127345
0.12366
0.116427
0.104384
0.0860324
0.0596766
0.0248154
-0.0178939
0.154026
0.150621
0.14187
0.13268
0.124955
0.119491
0.116247
0.114804
0.114652
0.115312
0.116385
0.117538
0.118452
0.118511
0.11735
0.114646
0.109665
0.101622
0.0896071
0.0726372
0.0497897
0.0212892
-0.0124952
0.144388
0.142334
0.136521
0.129911
0.123784
0.118877
0.115377
0.11314
0.111893
0.111314
0.111077
0.110881
0.110424
0.109223
0.106858
0.103121
0.0973994
0.0891101
0.0776118
0.0622782
0.0428447
0.019551
-0.00728153
0.134519
0.133155
0.129173
0.124387
0.119618
0.115435
0.11207
0.10952
0.107648
0.106249
0.105079
0.103896
0.102422
0.100256
0.0970903
0.0927064
0.0866265
0.0784349
0.0676914
0.0541229
0.0376809
0.0184542
-0.00305943
0.124983
0.123983
0.121158
0.117619
0.113886
0.110365
0.107268
0.104645
0.102435
0.100514
0.0987036
0.0968146
0.0945954
0.09176
0.0880993
0.0833315
0.0771589
0.0692605
0.0594506
0.0475184
0.0334832
0.0174475
-6.02519e-05
0.115924
0.11514
0.113059
0.110366
0.107391
0.104413
0.101603
0.0990231
0.0966527
0.0944144
0.0921832
0.0898152
0.0870961
0.0838342
0.0798456
0.0749002
0.068857
0.0613926
0.0524588
0.0419366
0.029841
0.0163005
0.00179982
0.107357
0.106717
0.105126
0.103012
0.100586
0.0980346
0.0954886
0.093005
0.0905809
0.0881682
0.0856815
0.0830091
0.079983
0.0764717
0.0723231
0.0673866
0.0615184
0.054558
0.046425
0.0370809
0.026553
0.014968
0.0027154
0.0992573
0.0987217
0.0974619
0.0957505
0.0937219
0.0915028
0.0891873
0.0868221
0.0844128
0.081929
0.0793116
0.0764677
0.0732844
0.0696605
0.0654852
0.0606444
0.0550316
0.0485488
0.0411373
0.0327853
0.0235277
0.0134672
0.00291222
0.0915852
0.0911283
0.0900996
0.0886742
0.0869403
0.0849819
0.0828662
0.0806296
0.0782799
0.0757974
0.073138
0.0702298
0.0669987
0.0633668
0.0592536
0.054574
0.049253
0.0432268
0.0364569
0.0289427
0.0207163
0.0118594
0.00259602
0.0843015
0.0839055
0.0830425
0.0818272
0.0803177
0.0785695
0.0766299
0.0745262
0.0722653
0.0698336
0.0671977
0.0643077
0.0611092
0.0575447
0.0535562
0.0490817
0.0440697
0.0384782
0.0322808
0.0254802
0.0181012
0.010203
0.00194839
0.0773663
0.0770195
0.0762809
0.0752256
0.073893
0.0723197
0.0705387
0.0685693
0.0664169
0.0640716
0.0615086
0.0586945
0.0555875
0.0521447
0.0483255
0.0440875
0.039393
0.0342135
0.0285312
0.0223472
0.0156782
0.00856611
0.00111758
0.0707485
0.0704415
0.0697993
0.0688705
0.0676829
0.06626
0.0646247
0.0627903
0.0607605
0.0585274
0.0560734
0.0533754
0.0504024
0.0471212
0.0435045
0.039523
0.0351491
0.0303619
0.0251491
0.0195097
0.0134517
0.00699997
0.000223907
0.0644163
0.0641435
0.0635789
0.0627547
0.0616905
0.0604013
0.0589028
0.0572038
0.0553063
0.0532046
0.0508857
0.0483326
0.0455236
0.0424341
0.0390429
0.0353313
0.0312784
0.0268681
0.0220908
0.0169431
0.0114264
0.0055517
-0.000641909
0.0583445
0.0581005
0.0576009
0.0568663
0.0559111
0.054744
0.0533762
0.0518128
0.0500549
0.0480984
0.0459332
0.0435463
0.0409234
0.038046
0.0348974
0.0314647
0.0277323
0.0236872
0.0193212
0.0146295
0.00960675
0.00425353
-0.00141116
0.0525062
0.0522882
0.0518456
0.0511907
0.0503346
0.0492819
0.0480404
0.046613
0.0450002
0.0431987
0.0412007
0.0389959
0.0365746
0.0339233
0.0310294
0.0278823
0.0244703
0.0207827
0.0168125
0.0125529
0.00799407
0.00312861
-0.00203552
0.0468793
0.0466848
0.0462935
0.0457113
0.0449478
0.0440041
0.0428862
0.0415953
0.0401314
0.0384916
0.0366702
0.0346593
0.032451
0.0300364
0.0274052
0.0245486
0.0214577
0.0181237
0.0145399
0.010698
0.0065855
0.00219275
-0.00248478
0.0414404
0.0412686
0.040925
0.0404108
0.0397354
0.038897
0.0379009
0.0367469
0.0354345
0.0339611
0.032323
0.0305141
0.0285276
0.0263572
0.0239946
0.0214326
0.0186643
0.0156823
0.0124798
0.00904811
0.00537428
0.00144413
-0.00274514
0.0361703
0.0360194
0.0357208
0.0352712
0.0346809
0.0339453
0.0330697
0.0320526
0.0308937
0.0295904
0.0281403
0.0265386
0.0247799
0.0228592
0.0207698
0.0185061
0.0160623
0.0134321
0.0106088
0.00758406
0.0043457
0.000880629
-0.0028208
0.0310479
0.030917
0.0306616
0.0302743
0.0297671
0.0291323
0.0283762
0.0274961
0.0264918
0.0253612
0.0241022
0.0227112
0.0211843
0.0195172
0.0177047
0.0157422
0.0136248
0.0113469
0.00890253
0.00628501
0.00348234
0.00047932
-0.00272287
0.0260528
0.0259413
0.0257282
0.0254016
0.0249756
0.0244404
0.0238029
0.0230597
0.0222106
0.0212541
0.0201882
0.0190105
0.0177179
0.0163069
0.0147737
0.0131147
0.0113252
0.00940036
0.00733611
0.00512613
0.00276036
0.00022897
-0.0024743
0.021164
0.0210721
0.0209006
0.0206336
0.0202879
0.0198511
0.0193314
0.0187246
0.0180312
0.0172498
0.0163782
0.0154151
0.0143581
0.0132046
0.011952
0.0105974
0.00913668
0.00756621
0.00588253
0.00408141
0.00215473
8.99205e-05
-0.00210208
0.0163605
0.0162888
0.0161588
0.0159509
0.0156845
0.0153454
0.0149429
0.0144721
0.0139343
0.013328
0.0126514
0.0119035
0.0110822
0.0101868
0.00921535
0.00816506
0.00703312
0.00581706
0.00451369
0.00312062
0.00163245
4.2408e-05
-0.00164576
0.0116216
0.0115717
0.0114835
0.0113344
0.0111466
0.0109043
0.0106183
0.0102831
0.00990037
0.00946925
0.00898809
0.00845434
0.00786841
0.00723079
0.00653996
0.00579281
0.00498821
0.00412508
0.0032003
0.0022137
0.00116366
3.76232e-05
-0.00114144
0.00692806
0.00690651
0.00685993
0.00676971
0.00665912
0.00651331
0.00634276
0.00614228
0.00591372
0.00565677
0.00536991
0.00504943
0.00469877
0.00431823
0.00390658
0.00346026
0.00298063
0.0024673
0.00191888
0.00133427
0.000716297
5.80563e-05
-0.000628519
0.00226148
0.00228584
0.00227945
0.00224735
0.00221194
0.00216196
0.00210558
0.0020388
0.0019632
0.00187856
0.00178472
0.00167682
0.00156182
0.00143634
0.00130196
0.00115415
0.000997502
0.000830656
0.00065494
0.000470837
0.000284621
9.36256e-05
-8.94415e-05
4119.32
4213.08
4815.7
4811.64
1059.43
1100.12
1147.96
1202.61
812.075
832.139
851.465
915.584
199.217
278.93
423.398
552.205
1.41251
12.352
45.6623
90.3243
-1.24834
-1.53226
-1.27859
0.665338
-1.08987
-1.04155
-1.25167
-2.22844
-0.558661
-0.60977
-0.69891
-1.01419
-0.253921
-0.43336
-0.638264
-0.840542
-0.165044
-0.38803
-0.64916
-0.88637
-0.164656
-0.38687
-0.643851
-0.898188
-0.117758
-0.354393
-0.569136
-0.789806
0.137041
-0.159062
-0.401121
-0.630289
0.185739
0.126498
0.00623626
-0.144209
-0.0283001
0.042555
0.10942
0.0141546
-0.0983014
-0.144955
-0.0893116
-0.0209662
-0.0800012
-0.120981
-0.16343
-0.208007
-0.0613302
-0.0911244
-0.121292
-0.153468
-0.0446827
-0.0663676
-0.0880368
-0.110743
-0.03145
-0.0475115
-0.0633068
-0.0796135
-0.0217374
-0.0340063
-0.0458735
-0.0579757
-0.0149458
-0.0246289
-0.0338661
-0.0431867
-0.0103937
-0.0182701
-0.0257081
-0.0331621
-0.00750475
-0.0140844
-0.0202772
-0.0264554
-0.00583751
-0.0114677
-0.0167747
-0.022068
-0.00503348
-0.0099519
-0.0146213
-0.0192853
-0.00481639
-0.00919032
-0.0133815
-0.0175875
-0.00495711
-0.00890104
-0.0127241
-0.0165809
-0.00528413
-0.00887495
-0.0123966
-0.0159711
-0.0056607
-0.0089484
-0.0122081
-0.0155361
-0.00598963
-0.00900106
-0.0120188
-0.0151146
-0.00620052
-0.00895147
-0.0117293
-0.0145938
-0.00624653
-0.00873801
-0.0112766
-0.013901
-0.00610741
-0.00834176
-0.0106273
-0.0130011
-0.00577827
-0.00774678
-0.00977626
-0.0118841
-0.00527647
-0.0069786
-0.00873299
-0.0105644
-0.00461566
-0.00604152
-0.00752328
-0.00906654
-0.00383453
-0.00498841
-0.00618203
-0.00743531
-0.00296567
-0.00384263
-0.00475981
-0.00571974
-0.00205947
-0.00266875
-0.00329493
-0.00396518
-0.00115105
-0.00149699
-0.00185607
-0.00224606
-0.000218237
-0.000300678
-0.000379028
-0.000480947
2079.57
1360.98
1213.62
1154.42
1200.17
1283.27
1357.7
1381.74
1373.19
2096.59
2223.83
1691.16
1469.2
1363.97
1353.1
1312.17
1354.65
1499.27
3051.15
1183.55
997.596
881.962
902.829
933.052
1018.97
1161.4
1232.72
1306.22
1459.28
1667.29
2500.61
2513.41
2406.18
1992.54
1777.22
1743.45
2208.33
3516.68
866.931
819.443
809.642
791.893
799.542
832.07
817.939
933.981
1071.02
1138.62
1239.52
1622.74
2283.09
2482.16
2645
3235.86
3258.44
3157.26
3894.98
689.976
934.07
1061.08
1056.53
886.343
662.847
607.486
603.48
661.998
762.598
872.02
1040.29
1308.98
1570.13
2093.54
2368.34
3581.18
3623.36
3807.51
281.45
708.286
909.933
989.455
1039.65
928.518
573.389
503.496
500.513
522.463
622.715
722.135
839.812
1084.47
1290.91
1667.22
2359.71
3025
3493.04
16.9749
218.704
698.614
881.157
964.474
1018.73
900.044
523.199
499.41
499.08
501.594
671.002
853.475
872.287
1043.2
1260.74
1824.27
2375.59
5477.96
-4.49264
8.79601
376.419
798.038
910.505
983.48
1049.75
862.43
513.84
498.355
497.502
745.089
1061.76
1102.49
1092.7
1123.85
1709.09
2359.05
7761.91
-2.23593
-2.99486
109.793
692.459
875.063
961.842
1032.25
1105.53
939.867
570.082
495.489
535.947
844.39
1168.27
1170.15
1152.71
1630.28
2308.81
8284.23
-1.36532
-2.32805
0.206093
366.729
854.997
947.685
1020.38
1085.97
1150.31
1128.97
835.754
712.394
689.792
1107.55
1167.99
1154.32
1327.96
2269.1
8589.03
-1.2354
-1.7547
-1.3201
107.759
754.258
939.05
1011.14
1072.78
1127.95
1177.93
1215.07
1224.56
1189.9
1152.31
1167.46
1150.41
1174.5
2106.49
6812.28
-1.27665
-1.78392
-1.41499
-1.38368
311.352
936.072
1003.66
1062.85
1113.76
1156.58
1188.12
1197.77
1190.11
1170.15
1166.51
1152.88
1185.67
1474.83
1368.8
-1.12342
-1.48133
-1.40316
-1.22871
11.246
491.553
1000.96
1056.41
1104.71
1143.62
1170.51
1183.29
1183
1176.23
1174.25
1171.58
1204.27
1201.16
1208.84
-0.902824
-1.21765
-1.25611
-1.12567
-0.973929
13.1013
516.732
1032.27
1101.74
1139.43
1166.36
1181.87
1184.16
1183.03
1191.87
1204.55
1236.21
1247.35
1255.12
-0.480517
-0.917548
-1.01687
-1.00855
-0.838078
-0.714327
-0.565389
419.849
1025.96
1143.79
1171.85
1190.74
1195.01
1178.2
1192.12
1240.46
1277.05
1412.32
3249.35
-0.151952
-0.68282
-0.807944
-0.803743
-0.799596
-0.652251
-0.43195
-0.383872
308.022
985.186
1186.6
1207.22
1219.54
1200.72
1232.37
1304.13
1676.17
3782.37
5065.55
-0.28215
-0.522348
-0.623706
-0.674288
-0.673559
-0.559497
-0.402151
-0.240972
-0.227148
186.202
880.862
1225.02
1248.11
1264.02
1260.58
1333.48
1775.44
3934.69
5391.89
-0.285345
-0.380322
-0.460691
-0.502909
-0.496198
-0.458049
-0.344829
-0.235646
-0.14237
-0.229025
40.0881
594.759
1097.89
1264.52
1310.95
1332.21
1377.69
1850.7
2559.75
-0.205337
-0.271336
-0.33109
-0.366582
-0.370825
-0.345528
-0.298372
-0.22214
-0.170781
-0.160711
-0.103931
-0.137778
127.622
492.61
814.626
1026.51
1141.77
1219.42
1213.78
-0.146606
-0.192359
-0.236235
-0.265906
-0.276183
-0.266378
-0.237491
-0.197874
-0.163084
-0.128375
-0.0958311
-0.0345711
-0.0463362
-0.091191
-0.163121
69.6554
176.545
289.468
509.135
-0.105132
-0.13756
-0.169788
-0.193406
-0.204439
-0.201979
-0.186769
-0.162876
-0.136359
-0.105996
-0.0559388
-0.000277345
0.0241052
0.0541538
0.0123743
-0.411509
1.2371
91.1416
1009.7
-0.0768391
-0.10055
-0.124483
-0.142903
-0.153139
-0.154608
-0.147758
-0.134553
-0.116736
-0.0940078
-0.0649774
-0.0333148
-0.0234425
-0.0592323
-0.104238
-0.231337
-0.137984
91.7897
1075.42
-0.0577162
-0.0758583
-0.0942484
-0.109011
-0.11848
-0.122343
-0.120896
-0.114881
-0.105169
-0.0923496
-0.0774413
-0.064839
-0.0641503
-0.0709767
0.0352503
0.117987
0.0996364
112.559
918.456
-0.0448261
-0.0594687
-0.0743444
-0.086841
-0.0959366
-0.101478
-0.103681
-0.102894
-0.0995918
-0.0942952
-0.0877694
-0.0814055
-0.0769615
-0.0771997
-0.0626749
0.182929
0.157364
156.66
11.6213
-0.0362002
-0.0486349
-0.061335
-0.0725383
-0.0816263
-0.0885543
-0.0935164
-0.0966799
-0.0983151
-0.098704
-0.0980789
-0.0962147
-0.0918914
-0.0843706
-0.0386086
-0.0863772
0.243929
156.814
0.249786
-0.0305065
-0.0415292
-0.0528946
-0.0634173
-0.0727456
-0.0809104
-0.0880853
-0.0944384
-0.100068
-0.105081
-0.109315
-0.11175
-0.108953
-0.102482
-0.0427527
-0.118951
0.238767
15.2717
0.08714
-0.0268184
-0.0369231
-0.0474713
-0.0576815
-0.0673902
-0.0766955
-0.0857855
-0.0948422
-0.103934
-0.113111
-0.12208
-0.129762
-0.132508
-0.130343
-0.114012
-0.027276
4.9073
-0.869668
0.146617
-0.0244714
-0.0339566
-0.0439942
-0.0540926
-0.0642261
-0.0745563
-0.0853233
-0.0967368
-0.108961
-0.12216
-0.13624
-0.150603
-0.163909
-0.168597
-0.24522
1.29102
44.4785
-0.292102
209.417
-0.0229751
-0.0320076
-0.0416957
-0.0517601
-0.0622751
-0.0734576
-0.0855984
-0.0990475
-0.114078
-0.131122
-0.150736
-0.174548
-0.201271
-0.202498
-0.364766
2.86188
46.6241
-0.926401
971.494
-0.0219646
-0.0306181
-0.0400142
-0.0500264
-0.0608024
-0.0726026
-0.0857636
-0.100815
-0.118099
-0.138329
-0.162402
-0.191453
-0.231717
-0.243488
-0.413479
5.02202
44.9814
-0.762571
1069.7
-0.0211698
-0.0294544
-0.0385429
-0.0484172
-0.0592732
-0.0714081
-0.0852263
-0.101213
-0.119956
-0.142326
-0.169486
-0.202253
-0.250155
-0.289795
-0.427081
13.2947
-0.13101
-0.70828
1101.87
-0.0203968
-0.0282789
-0.0369972
-0.0466054
-0.0573222
-0.0694577
-0.0834361
-0.0997424
-0.119052
-0.142336
-0.170867
-0.205186
-0.254836
-0.312972
-0.425044
14.8242
0.031165
-0.654595
1135.44
-0.0195107
-0.0269321
-0.0351905
-0.0443803
-0.0547218
-0.0665135
-0.0801564
-0.0961179
-0.115018
-0.13776
-0.165573
-0.198898
-0.246176
-0.313133
-0.40589
11.9027
1.82527
0.460356
980.465
-0.0184294
-0.0253199
-0.0330181
-0.0416364
-0.0513777
-0.0625119
-0.0753794
-0.090371
-0.107963
-0.128859
-0.153884
-0.183513
-0.22361
-0.286713
-0.374269
-0.631242
0.187046
9.5516
68.6593
-0.0171106
-0.0233999
-0.0304427
-0.0383499
-0.0472957
-0.0575141
-0.069261
-0.0827894
-0.0983807
-0.116418
-0.137103
-0.160399
-0.189577
-0.234791
-0.297803
-0.439863
-0.334925
10.0334
-0.0381366
-0.0155469
-0.0211712
-0.0274767
-0.0345637
-0.0425724
-0.0516737
-0.0620486
-0.0738163
-0.087055
-0.101801
-0.117789
-0.134564
-0.151579
-0.176409
-0.213612
-0.291376
-0.255867
7.46202
0.20753
-0.0137525
-0.0186603
-0.0241657
-0.0303534
-0.0373321
-0.0451972
-0.0540832
-0.0639984
-0.0748728
-0.08652
-0.0983826
-0.109765
-0.117968
-0.127448
-0.146792
-0.192312
-0.189856
0.37766
0.435405
-0.011763
-0.0159159
-0.020578
-0.0258188
-0.0317435
-0.0383166
-0.0457117
-0.0538457
-0.0625489
-0.0715466
-0.0801542
-0.0876819
-0.0923033
-0.0937668
-0.101508
-0.124298
-0.124071
-0.132532
-0.0480183
-0.00962691
-0.0129957
-0.0167878
-0.0210335
-0.0257691
-0.0312138
-0.0372246
-0.0437595
-0.0506251
-0.057564
-0.0638762
-0.0690514
-0.0720632
-0.0719084
-0.0728988
-0.080308
-0.0727251
-0.0544752
0.00887675
-0.00740621
-0.00998084
-0.0129195
-0.0162264
-0.0199377
-0.0241569
-0.0288671
-0.0340186
-0.0394038
-0.0448692
-0.0497015
-0.0536225
-0.0559854
-0.0556395
-0.0547036
-0.0557299
-0.0442989
-0.0221958
0.0377299
-0.00515795
-0.00690788
-0.00900324
-0.0113596
-0.0140619
-0.0171909
-0.0207244
-0.0247137
-0.0289475
-0.0334888
-0.0375636
-0.0411795
-0.043726
-0.0445437
-0.044302
-0.0447918
-0.0344549
-0.0197328
0.0271901
-0.00294484
-0.00400866
-0.00527624
-0.00674508
-0.0084817
-0.0104946
-0.0129572
-0.0159777
-0.0194917
-0.0235014
-0.0272964
-0.0313893
-0.0347117
-0.0376289
-0.0395331
-0.0417199
-0.0346469
-0.0300093
0.000890035
-0.000678659
-0.000994607
-0.001442
-0.0020793
-0.00311729
-0.00454323
-0.00619476
-0.00821598
-0.0107707
-0.0140536
-0.0176909
-0.0227253
-0.0275596
-0.033696
-0.0389697
-0.0442089
-0.0403241
-0.0421589
-0.0176566
)
;

boundaryField
{
    leftWall
    {
        type            fixedFluxPressure;
        gradient        uniform 0;
        value           nonuniform List<scalar> 
50
(
3640.76
3636.3
3593.92
2176.72
1178.74
1178.44
1177.96
1177.39
1176.51
1175.25
1175.06
1178.01
1178.3
848.806
97.0732
6.89312
3.83284
0.276936
-0.125079
-0.105537
-0.0415718
0.0381583
0.105432
0.146314
0.161953
0.161538
0.154026
0.144388
0.134519
0.124983
0.115924
0.107357
0.0992573
0.0915852
0.0843015
0.0773663
0.0707485
0.0644163
0.0583445
0.0525062
0.0468793
0.0414404
0.0361703
0.0310479
0.0260528
0.021164
0.0163605
0.0116216
0.00692806
0.00226148
)
;
    }
    rightWall
    {
        type            fixedFluxPressure;
        gradient        uniform 0;
        value           nonuniform List<scalar> 
50
(
3202.45
2898.54
2632.24
2512.28
2304.37
1938.68
1954.91
2352.78
3051.15
3516.68
3894.98
3807.51
3493.04
5477.96
7761.91
8284.23
8589.03
6812.28
1368.8
1208.84
1255.12
3249.35
5065.55
5391.89
2559.75
1213.78
509.135
1009.7
1075.42
918.456
11.6213
0.249786
0.08714
0.146617
209.417
971.494
1069.7
1101.87
1135.44
980.465
68.6593
-0.0381366
0.20753
0.435405
-0.0480183
0.00887675
0.0377299
0.0271901
0.000890035
-0.0176566
)
;
    }
    lowerWall
    {
        type            fixedFluxPressure;
        gradient        uniform 0;
        value           nonuniform List<scalar> 
62
(
3640.76
3651.86
3658.37
3676.47
3709.78
3769.74
3876.7
4057.91
4360.03
4816.56
5390.35
5981
6470.97
6841.9
7102.02
7271.62
7368.51
7415.96
7433
7434.52
7435.62
7424.54
7434.92
7434.92
7434.84
7433.24
7432.12
7430.37
7429.21
7431.48
7202.39
4119.32
4213.08
4815.7
4811.64
2616.05
2198.99
2017.46
2044.55
2167.32
4260.59
3324.2
1408.19
2616.05
2534.27
3094.25
3641.36
4095.69
3837.85
3582.72
3435.4
3255.06
3135.09
3077.33
3225.09
3619.29
2775.78
2169.11
2022.14
2033.61
2370.89
3202.45
)
;
    }
    atmosphere
    {
        type            totalPressure;
        rho             rho;
        psi             none;
        gamma           1;
        p0              uniform 0;
        value           nonuniform List<scalar> 
46
(
0
0
0
0
0
0
0
0
0
0
0
0
0
0
0
0
0
0
0
0
0
0
0
0
0
0
0
0
0
0
0
0
-0.000147186
-0.000830996
-0.00220571
-0.00442969
-0.00767196
-0.0118288
-0.0182319
-0.0242404
-0.0337302
-0.0421489
-0.0501792
-0.0482204
-0.047983
-0.0186721
)
;
    }
    defaultFaces
    {
        type            empty;
    }
}


// ************************************************************************* //
