/*--------------------------------*- C++ -*----------------------------------*\
| =========                 |                                                 |
| \\      /  F ield         | OpenFOAM: The Open Source CFD Toolbox           |
|  \\    /   O peration     | Version:  2312                                  |
|   \\  /    A nd           | Website:  www.openfoam.com                      |
|    \\/     M anipulation  |                                                 |
\*---------------------------------------------------------------------------*/
FoamFile
{
    version     2.0;
    format      ascii;
    arch        "LSB;label=32;scalar=64";
    class       volVectorField;
    location    "0.7";
    object      U;
}
// * * * * * * * * * * * * * * * * * * * * * * * * * * * * * * * * * * * * * //

dimensions      [0 1 -1 0 0 0 0];

internalField   nonuniform List<vector> 
2268
(
(0.0137203 -0.00616161 0)
(0.028498 -0.00585535 0)
(0.0492968 -0.00561031 0)
(0.0671449 -0.00518094 0)
(0.0827572 -0.00445736 0)
(0.094721 -0.00324154 0)
(0.100633 -0.00111283 0)
(0.0968692 0.00255645 0)
(0.0785893 0.00693002 0)
(0.042578 0.0114778 0)
(-0.0102708 0.0143776 0)
(-0.0705746 0.013808 0)
(-0.119065 0.00991991 0)
(-0.147908 0.00516628 0)
(-0.157886 0.000875464 0)
(-0.152878 -0.00230815 0)
(-0.137188 -0.00425262 0)
(-0.115123 -0.00526668 0)
(-0.0902317 -0.00563971 0)
(-0.0658967 -0.00544604 0)
(-0.0392325 -0.00499325 0)
(-0.0251199 -0.00412668 0)
(0.00403421 -6.00305e-05 0)
(0.013293 -0.0136279 0)
(0.0281353 -0.0129571 0)
(0.0489527 -0.0124298 0)
(0.0668947 -0.0112855 0)
(0.0827491 -0.00928867 0)
(0.0953073 -0.00594407 0)
(0.102407 -0.000765402 0)
(0.0998024 0.00721803 0)
(0.0819617 0.0189576 0)
(0.0452211 0.0316368 0)
(-0.00994143 0.0399999 0)
(-0.0732624 0.0380434 0)
(-0.123229 0.0266756 0)
(-0.151849 0.0132007 0)
(-0.160867 0.00128969 0)
(-0.154701 -0.00766273 0)
(-0.138042 -0.0134828 0)
(-0.115363 -0.0166475 0)
(-0.0901881 -0.0176538 0)
(-0.0659857 -0.0170787 0)
(-0.0404148 -0.0158378 0)
(-0.0281505 -0.0143462 0)
(-0.0011188 -0.0102203 0)
(0.0125491 -0.0248344 0)
(0.0269612 -0.0239046 0)
(0.0472513 -0.0231378 0)
(0.0648924 -0.0212875 0)
(0.0807578 -0.0180669 0)
(0.0936746 -0.0124315 0)
(0.101643 -0.00270881 0)
(0.101346 0.0134027 0)
(0.0859427 0.0367418 0)
(0.0490529 0.06133 0)
(-0.00979445 0.0742573 0)
(-0.0790233 0.0671949 0)
(-0.132147 0.0453963 0)
(-0.160465 0.0213311 0)
(-0.167675 0.00101519 0)
(-0.159515 -0.0137134 0)
(-0.141107 -0.0230301 0)
(-0.116965 -0.0278864 0)
(-0.0907307 -0.0290631 0)
(-0.0659222 -0.0274436 0)
(-0.0405406 -0.0245456 0)
(-0.028929 -0.0210572 0)
(-0.00314079 -0.0155488 0)
(0.011339 -0.0336429 0)
(0.0243498 -0.0326396 0)
(0.0429388 -0.0318197 0)
(0.0591065 -0.0296179 0)
(0.0741068 -0.0259045 0)
(0.0874528 -0.019516 0)
(0.0979942 -0.00858716 0)
(0.100326 0.00869387 0)
(0.0885348 0.0338882 0)
(0.0531946 0.0676696 0)
(-0.011213 0.0991215 0)
(-0.091668 0.0962699 0)
(-0.149015 0.0646198 0)
(-0.175935 0.0298991 0)
(-0.179576 0.000647809 0)
(-0.167976 -0.0202766 0)
(-0.146914 -0.0331913 0)
(-0.120899 -0.0399209 0)
(-0.0933107 -0.0414258 0)
(-0.0674093 -0.0388387 0)
(-0.0417595 -0.0344292 0)
(-0.0306226 -0.0291697 0)
(-0.00501926 -0.0251648 0)
(0.00160267 -0.0375616 0)
(-0.000361675 -0.035889 0)
(0.000927129 -0.0349474 0)
(-0.000461492 -0.0314713 0)
(-0.00145712 -0.0264298 0)
(-0.00349366 -0.0183144 0)
(-0.00404683 -0.00448476 0)
(-0.0170047 0.0225322 0)
(-0.0088873 0.0598521 0)
(-0.0140047 0.103213 0)
(-0.0582787 0.130268 0)
(-0.125851 0.124566 0)
(-0.179038 0.0812926 0)
(-0.199775 0.0347754 0)
(-0.197744 -0.00297726 0)
(-0.181831 -0.028908 0)
(-0.157926 -0.044422 0)
(-0.129779 -0.0525757 0)
(-0.100246 -0.0540854 0)
(-0.0723735 -0.0502473 0)
(-0.0452944 -0.0439902 0)
(-0.0335887 -0.0365419 0)
(-0.00641939 -0.0344995 0)
(-0.00828881 -0.0337421 0)
(-0.0272639 -0.0323367 0)
(-0.0444762 -0.0314079 0)
(-0.0628215 -0.0283865 0)
(-0.080074 -0.0242805 0)
(-0.0974554 -0.0176395 0)
(-0.113363 -0.00497108 0)
(-0.126632 0.0146031 0)
(-0.137572 0.0499589 0)
(-0.172771 0.125527 0)
(-0.202108 0.16812 0)
(-0.203455 0.145201 0)
(-0.231124 0.0945918 0)
(-0.240724 0.0372338 0)
(-0.229788 -0.00901388 0)
(-0.207039 -0.0392126 0)
(-0.177577 -0.0567754 0)
(-0.145133 -0.0663589 0)
(-0.112049 -0.0677372 0)
(-0.0811233 -0.062277 0)
(-0.0514702 -0.0539166 0)
(-0.0379009 -0.0440496 0)
(-0.00556012 -0.0452816 0)
(-0.0125295 -0.0231749 0)
(-0.0373359 -0.0216497 0)
(-0.0606984 -0.0206029 0)
(-0.0843054 -0.017871 0)
(-0.106492 -0.013625 0)
(-0.128315 -0.00635984 0)
(-0.150127 0.00666777 0)
(-0.173564 0.027674 0)
(-0.199855 0.0639836 0)
(-0.226417 0.130374 0)
(-0.318801 0.195803 0)
(-0.319883 0.146967 0)
(-0.306439 0.095202 0)
(-0.299587 0.0332293 0)
(-0.274555 -0.0193513 0)
(-0.23852 -0.0529653 0)
(-0.199167 -0.0727179 0)
(-0.159825 -0.0836316 0)
(-0.121651 -0.0842976 0)
(-0.0874477 -0.0766898 0)
(-0.0549062 -0.0659886 0)
(-0.0395298 -0.0537996 0)
(0.00403057 -0.0557979 0)
(-0.0143411 -0.0102112 0)
(-0.0412866 -0.00904987 0)
(-0.0668068 -0.00812783 0)
(-0.0919611 -0.00602615 0)
(-0.11522 -0.00239671 0)
(-0.137506 0.00447981 0)
(-0.159329 0.016935 0)
(-0.183128 0.0388391 0)
(-0.211319 0.0791393 0)
(-0.235037 0.148821 0)
(-0.277724 0.21866 0)
(-0.382819 0.14469 0)
(-0.374889 0.0768775 0)
(-0.357876 0.0190369 0)
(-0.317779 -0.043932 0)
(-0.261399 -0.0805324 0)
(-0.208554 -0.0974738 0)
(-0.162095 -0.106867 0)
(-0.119943 -0.105722 0)
(-0.0831379 -0.0961052 0)
(-0.0471723 -0.0845165 0)
(-0.0299655 -0.0736692 0)
(0.0277315 -0.0590093 0)
(-0.426002 -0.0232919 0)
(-0.405643 -0.114484 0)
(-0.245781 -0.106728 0)
(0.164108 -0.105514 0)
(0.322362 -0.0650919 0)
(0.455525 -0.0411912 0)
(0.540492 -0.0316311 0)
(0.597172 -0.0295615 0)
(0.654796 -0.0314559 0)
(0.733919 -0.0332507 0)
(0.80875 -0.0153497 0)
(0.819781 0.0343712 0)
(0.433065 0.143585 0)
(-0.420548 0.107268 0)
(-0.590543 0.00765686 0)
(-0.611195 -0.0335158 0)
(-0.569228 -0.0422949 0)
(-0.487061 -0.0586873 0)
(-0.214658 -0.129763 0)
(-0.422554 0.288442 0)
(-0.316847 0.0652568 0)
(0.231644 -0.195737 0)
(0.376588 -0.140942 0)
(0.458991 -0.0820731 0)
(0.513745 -0.0427191 0)
(0.543322 -0.0274088 0)
(0.555981 -0.0255454 0)
(0.565936 -0.034104 0)
(0.594671 -0.042094 0)
(0.635048 -0.00146884 0)
(0.638547 0.120761 0)
(0.24689 0.325534 0)
(-0.286427 0.294349 0)
(-0.466847 0.0774916 0)
(-0.531659 -0.00882736 0)
(-0.546193 -0.0235002 0)
(-0.48837 -0.0700737 0)
(-0.045159 -0.227445 0)
(-0.405185 0.337026 0)
(0.414051 -0.273442 0)
(0.469849 -0.311855 0)
(0.521205 -0.214593 0)
(0.565298 -0.120592 0)
(0.57666 -0.0672189 0)
(0.567014 -0.0446754 0)
(0.540833 -0.0405497 0)
(0.517321 -0.050973 0)
(0.512256 -0.0680195 0)
(0.521198 -0.00936786 0)
(0.498355 0.217614 0)
(0.0571849 0.479581 0)
(-0.192158 0.394491 0)
(-0.373079 0.142908 0)
(-0.54828 -0.00700755 0)
(-0.621855 -0.0558792 0)
(-0.483439 -0.201259 0)
(0.0618217 -0.359919 0)
(-0.0232741 0.334682 0)
(0.500269 -0.364627 0)
(0.5116 -0.334034 0)
(0.545181 -0.22642 0)
(0.585337 -0.115162 0)
(0.588934 -0.0461753 0)
(0.553174 -0.0188172 0)
(0.48848 -0.00663701 0)
(0.410253 -0.017662 0)
(0.439118 -0.0441181 0)
(0.362299 0.0347213 0)
(0.363771 0.354413 0)
(-0.0905076 0.592588 0)
(0.00457454 0.501727 0)
(-0.223724 0.244045 0)
(-0.395456 0.0543809 0)
(-0.53731 -0.103957 0)
(-0.377404 -0.319035 0)
(0.11674 -0.437115 0)
(0.527076 0.032927 0)
(0.482114 -0.352742 0)
(0.497649 -0.339259 0)
(0.505096 -0.244243 0)
(0.499541 -0.099395 0)
(0.467022 -0.029701 0)
(0.360194 0.00801221 0)
(0.189322 0.0400595 0)
(0.121983 -0.0546084 0)
(0.230231 -0.0777494 0)
(0.180973 0.052744 0)
(0.247825 0.457196 0)
(-0.181039 0.631007 0)
(0.177713 0.531152 0)
(-0.0763353 0.304552 0)
(-0.420488 0.126935 0)
(-0.56141 -0.0396975 0)
(-0.332093 -0.434262 0)
(0.131692 -0.500194 0)
(0.443698 -0.18939 0)
(0.41804 -0.323008 0)
(0.445544 -0.32625 0)
(0.405539 -0.203527 0)
(0.360604 -0.0806997 0)
(0.320369 0.00345162 0)
(0.260037 0.07618 0)
(0.119223 0.0953514 0)
(0.0167504 -0.0442237 0)
(-0.031241 -0.0956017 0)
(0.0132754 0.0702665 0)
(0.121672 0.469721 0)
(-0.197408 0.615969 0)
(0.224723 0.491432 0)
(-0.0114489 0.452544 0)
(-0.250862 0.320724 0)
(-0.261671 -0.254556 0)
(-0.285744 -0.532029 0)
(0.124257 -0.562949 0)
(0.389647 -0.352756 0)
(0.29588 -0.372207 0)
(0.375805 -0.325564 0)
(0.365388 -0.20807 0)
(0.318856 -0.0801609 0)
(0.270781 0.0238175 0)
(0.219526 0.113292 0)
(0.107318 0.161651 0)
(-0.0981663 -0.00416372 0)
(-0.228078 -0.106387 0)
(-0.225892 0.0262088 0)
(-0.0283336 0.493765 0)
(-0.178292 0.581928 0)
(0.194154 0.453284 0)
(0.0830003 0.501828 0)
(0.233707 0.321882 0)
(0.370939 -0.0283963 0)
(-0.15848 -0.523782 0)
(0.141151 -0.595252 0)
(0.39573 -0.470693 0)
(0.218846 -0.39541 0)
(0.358516 -0.326162 0)
(0.372201 -0.203654 0)
(0.336376 -0.0639845 0)
(0.284946 0.0474747 0)
(0.230299 0.146599 0)
(0.160193 0.217866 0)
(0.00660463 0.103797 0)
(-0.218995 -0.0355911 0)
(-0.453015 0.0320948 0)
(-0.0704497 0.478497 0)
(-0.141848 0.521462 0)
(0.157208 0.400688 0)
(0.22208 0.395115 0)
(0.350643 0.273805 0)
(0.425633 -0.104588 0)
(0.0255649 -0.428353 0)
(0.166473 -0.557239 0)
(-0.0148417 0.0102569 0)
(-0.042291 0.0105231 0)
(-0.0685291 0.01033 0)
(-0.0939326 0.0110807 0)
(-0.11669 0.0135989 0)
(-0.137134 0.0197868 0)
(-0.155395 0.0323933 0)
(-0.172399 0.0552867 0)
(-0.187408 0.0951388 0)
(-0.191757 0.161978 0)
(-0.17912 0.245146 0)
(-0.214539 0.262378 0)
(-0.348326 0.0742118 0)
(-0.362525 -0.0233582 0)
(-0.322168 -0.0743443 0)
(-0.258507 -0.100252 0)
(-0.200095 -0.114462 0)
(-0.152106 -0.124172 0)
(-0.107636 -0.12102 0)
(-0.0670272 -0.108778 0)
(-0.0256134 -0.0973106 0)
(0.00328204 -0.0911523 0)
(0.0581117 -0.0741869 0)
(-0.0167647 0.0368309 0)
(-0.0464363 0.037055 0)
(-0.0747257 0.0365722 0)
(-0.100243 0.0355942 0)
(-0.121139 0.0350033 0)
(-0.137169 0.0371321 0)
(-0.147929 0.0455769 0)
(-0.154112 0.0645709 0)
(-0.154182 0.09641 0)
(-0.139619 0.143393 0)
(-0.0971187 0.205453 0)
(-0.0220782 0.257777 0)
(0.0260807 0.225521 0)
(0.0179056 0.0192758 0)
(-0.0197576 -0.153424 0)
(-0.0356078 -0.204293 0)
(-0.0325205 -0.2082 0)
(0.00504602 -0.211433 0)
(0.0684586 -0.200397 0)
(0.141669 -0.178947 0)
(0.21365 -0.158873 0)
(0.279396 -0.147305 0)
(0.35033 -0.141211 0)
(-0.016698 0.0731495 0)
(-0.0465401 0.0715149 0)
(-0.0768163 0.0663795 0)
(-0.10437 0.058893 0)
(-0.126003 0.0515439 0)
(-0.139948 0.0474883 0)
(-0.144914 0.0508662 0)
(-0.143454 0.0668341 0)
(-0.137066 0.0906908 0)
(-0.118027 0.115593 0)
(-0.0759375 0.142582 0)
(-0.00420249 0.157751 0)
(0.087244 0.117477 0)
(0.151805 0.015791 0)
(0.17687 -0.0560673 0)
(0.178592 -0.109196 0)
(0.192057 -0.159561 0)
(0.221105 -0.210215 0)
(0.256603 -0.23916 0)
(0.298303 -0.244781 0)
(0.34624 -0.237846 0)
(0.394841 -0.226638 0)
(0.436654 -0.208964 0)
(-0.0189093 0.0989475 0)
(-0.0519877 0.101243 0)
(-0.088008 0.098851 0)
(-0.119678 0.0904318 0)
(-0.143711 0.0758113 0)
(-0.158197 0.0571161 0)
(-0.162538 0.0436766 0)
(-0.16389 0.0504248 0)
(-0.165577 0.0684127 0)
(-0.152618 0.0750593 0)
(-0.116691 0.0809072 0)
(-0.0631353 0.0702456 0)
(0.0048649 0.0304107 0)
(0.0739653 -0.0488393 0)
(0.120037 -0.126191 0)
(0.161642 -0.184345 0)
(0.198741 -0.22959 0)
(0.239616 -0.263636 0)
(0.28239 -0.280091 0)
(0.326277 -0.281246 0)
(0.375007 -0.272268 0)
(0.431484 -0.257881 0)
(0.497555 -0.21917 0)
(-0.0257657 0.136656 0)
(-0.0650023 0.136958 0)
(-0.113334 0.123316 0)
(-0.163588 0.102816 0)
(-0.221851 0.0812517 0)
(-0.278428 0.0652374 0)
(-0.305132 0.0557868 0)
(-0.295924 0.0739556 0)
(-0.274116 0.0972566 0)
(-0.251823 0.0743851 0)
(-0.211511 0.0598584 0)
(-0.159937 0.0300391 0)
(-0.105708 -0.0315753 0)
(-0.0496829 -0.109028 0)
(0.00626333 -0.173196 0)
(0.0812612 -0.219417 0)
(0.134937 -0.262612 0)
(0.196781 -0.302992 0)
(0.251946 -0.324278 0)
(0.3049 -0.331201 0)
(0.35888 -0.328549 0)
(0.430432 -0.325061 0)
(0.517516 -0.281086 0)
(-0.119082 0.189818 0)
(-0.16525 0.184771 0)
(-0.194766 0.192308 0)
(-0.237756 0.196894 0)
(-0.310666 0.189286 0)
(-0.42141 0.132641 0)
(-0.462568 0.0427993 0)
(-0.433304 0.0150782 0)
(-0.391345 0.0138549 0)
(-0.357742 -0.003894 0)
(-0.321277 -0.0209033 0)
(-0.274149 -0.0481282 0)
(-0.216251 -0.0940832 0)
(-0.153039 -0.159445 0)
(-0.0855036 -0.229022 0)
(-0.0125259 -0.282425 0)
(0.0848588 -0.331964 0)
(0.196952 -0.375579 0)
(0.277977 -0.390238 0)
(0.35329 -0.444669 0)
(0.325601 -0.454601 0)
(0.287299 -0.438177 0)
(-0.447161 0.0369257 0)
(-0.18769 0.332477 0)
(-0.505675 0.257479 0)
(-0.482636 0.193003 0)
(-0.429212 0.199216 0)
(-0.388517 0.232924 0)
(-0.37443 0.219417 0)
(-0.407133 0.0644983 0)
(-0.209034 0.0133685 0)
(-0.468519 0.0266904 0)
(-0.464133 0.0100547 0)
(-0.380573 -0.0246021 0)
(-0.235551 -0.0758101 0)
(-0.162207 -0.145207 0)
(-0.118248 -0.226243 0)
(-0.119908 -0.312359 0)
(-0.13906 -0.390371 0)
(-0.187694 -0.472948 0)
(-0.25477 -0.492303 0)
(-0.31309 -0.444905 0)
(-0.418257 -0.361704 0)
(-0.64887 -0.0713378 0)
(-1.05232 0.382989 0)
(-1.34394 0.804958 0)
(-0.350361 0.863765 0)
(-0.506341 0.364688 0)
(-0.483418 0.16901 0)
(-0.454192 0.144141 0)
(-0.42676 0.194915 0)
(-0.381107 0.18597 0)
(-0.348667 -0.173793 0)
(-0.303988 0.259523 0)
(-0.285573 0.154435 0)
(-0.194965 -0.0931798 0)
(-0.142329 -0.229838 0)
(-0.137958 -0.209374 0)
(-0.1205 -0.220417 0)
(-0.130716 -0.231642 0)
(-0.154571 -0.257983 0)
(-0.203552 -0.27599 0)
(-0.279999 -0.286733 0)
(-0.396455 -0.277631 0)
(-0.567746 -0.230971 0)
(-0.792247 -0.129111 0)
(-1.00566 0.0877152 0)
(-1.20144 0.423576 0)
(-1.42469 0.912209 0)
(-0.257936 1.2478 0)
(-0.261331 0.538547 0)
(-0.391514 0.172274 0)
(-0.459973 0.146178 0)
(-0.461149 0.145753 0)
(-0.405027 0.0955677 0)
(-0.375695 -0.00632547 0)
(-0.311251 -0.0276643 0)
(-0.155467 -0.0764941 0)
(-0.0509733 -0.138909 0)
(-0.0493216 -0.159141 0)
(-0.0632212 -0.14711 0)
(-0.0568233 -0.160798 0)
(-0.0773394 -0.17968 0)
(-0.110702 -0.199207 0)
(-0.168179 -0.209231 0)
(-0.24946 -0.200005 0)
(-0.364755 -0.158681 0)
(-0.52119 -0.0730566 0)
(-0.707068 0.0874755 0)
(-0.90304 0.317112 0)
(-1.07076 0.633213 0)
(-1.20933 1.0485 0)
(-0.141751 1.41163 0)
(-0.125182 0.646419 0)
(-0.274256 0.266392 0)
(-0.357857 0.176354 0)
(-0.356901 0.121102 0)
(-0.293721 0.00554366 0)
(-0.231063 -0.0965263 0)
(-0.174128 -0.0917872 0)
(-0.101451 -0.113192 0)
(-0.0523048 -0.150772 0)
(-0.0433439 -0.184362 0)
(-0.0492522 -0.17468 0)
(-0.0520938 -0.174638 0)
(-0.0728024 -0.169233 0)
(-0.105432 -0.163547 0)
(-0.155306 -0.146361 0)
(-0.224195 -0.106309 0)
(-0.316613 -0.0309044 0)
(-0.430593 0.09056 0)
(-0.56768 0.244032 0)
(-0.706485 0.466117 0)
(-0.811502 0.760831 0)
(-0.868647 1.12557 0)
(-0.0178908 1.42565 0)
(0.0271402 0.755944 0)
(-0.104621 0.365281 0)
(-0.163844 0.207823 0)
(-0.146323 0.102899 0)
(-0.103157 -0.0343013 0)
(-0.0778005 -0.131242 0)
(-0.0527768 -0.163688 0)
(-0.0222718 -0.176726 0)
(-0.00324512 -0.180477 0)
(-0.00899432 -0.176775 0)
(-0.0256062 -0.160254 0)
(-0.0422517 -0.150383 0)
(-0.0686066 -0.138897 0)
(-0.101941 -0.122545 0)
(-0.145564 -0.0916487 0)
(-0.201475 -0.0357087 0)
(-0.268276 0.0573439 0)
(-0.344675 0.184127 0)
(-0.425438 0.349281 0)
(-0.501554 0.557136 0)
(-0.546575 0.812756 0)
(-0.531826 1.11546 0)
(0.065921 1.33307 0)
(0.141473 0.79005 0)
(0.0923682 0.447901 0)
(0.0625938 0.235257 0)
(0.0697539 0.0784444 0)
(0.0841796 -0.0487839 0)
(0.0764341 -0.128942 0)
(0.0651542 -0.164086 0)
(0.0545299 -0.172779 0)
(0.0412121 -0.167999 0)
(0.0205917 -0.157402 0)
(-0.00445828 -0.139511 0)
(-0.0300386 -0.124851 0)
(-0.0590643 -0.108475 0)
(-0.0913782 -0.0849451 0)
(-0.129007 -0.0456287 0)
(-0.172376 0.0192711 0)
(-0.21896 0.115232 0)
(-0.264513 0.244029 0)
(-0.302857 0.404132 0)
(-0.326271 0.592271 0)
(-0.32248 0.808432 0)
(-0.267024 1.04208 0)
(0.110521 1.17734 0)
(0.20951 0.762351 0)
(0.22411 0.460385 0)
(0.222311 0.241352 0)
(0.221513 0.0802511 0)
(0.209516 -0.036598 0)
(0.180772 -0.108546 0)
(0.146276 -0.141855 0)
(0.110319 -0.14863 0)
(0.0752937 -0.140452 0)
(0.0414408 -0.126891 0)
(0.00982659 -0.110508 0)
(-0.0199839 -0.0954719 0)
(-0.0494612 -0.0778157 0)
(-0.0793702 -0.0515083 0)
(-0.111197 -0.00877013 0)
(-0.144052 0.0580679 0)
(-0.175454 0.151264 0)
(-0.198694 0.272362 0)
(-0.207776 0.418223 0)
(-0.195818 0.583542 0)
(-0.1548 0.763192 0)
(-0.0756639 0.941124 0)
(0.126045 0.987821 0)
(0.23874 0.68966 0)
(0.289641 0.437175 0)
(0.30359 0.238591 0)
(0.296599 0.0908336 0)
(0.272661 -0.0110748 0)
(0.232152 -0.0721616 0)
(0.184035 -0.100405 0)
(0.135098 -0.106495 0)
(0.0903722 -0.100525 0)
(0.0514112 -0.090206 0)
(0.0177924 -0.0781676 0)
(-0.0124274 -0.0655106 0)
(-0.0408266 -0.0485763 0)
(-0.0680407 -0.0218949 0)
(-0.0957291 0.0216993 0)
(-0.122267 0.0857171 0)
(-0.142834 0.172119 0)
(-0.151574 0.279993 0)
(-0.142343 0.406101 0)
(-0.109601 0.544662 0)
(-0.0519125 0.691041 0)
(0.0496238 0.838574 0)
(0.12165 0.793147 0)
(0.23533 0.593724 0)
(0.300405 0.397305 0)
(0.320205 0.232801 0)
(0.309715 0.108328 0)
(0.278235 0.0247829 0)
(0.234387 -0.0262883 0)
(0.184074 -0.0515195 0)
(0.134887 -0.0598266 0)
(0.0914146 -0.0590203 0)
(0.0542116 -0.0539587 0)
(0.0220727 -0.0464445 0)
(-0.00688747 -0.0364932 0)
(-0.0340455 -0.0210555 0)
(-0.059643 0.00507927 0)
(-0.0849516 0.0472042 0)
(-0.107153 0.106834 0)
(-0.121393 0.183646 0)
(-0.12217 0.275942 0)
(-0.104081 0.380747 0)
(-0.0629063 0.49315 0)
(0.000881208 0.610728 0)
(0.10643 0.732318 0)
(0.102772 0.618145 0)
(0.205622 0.496469 0)
(0.270344 0.354183 0)
(0.29095 0.227386 0)
(0.280645 0.129058 0)
(0.250167 0.0617064 0)
(0.208995 0.0205203 0)
(0.166048 -0.00400961 0)
(0.124579 -0.016991 0)
(0.086821 -0.0215328 0)
(0.0534801 -0.0208777 0)
(0.0238618 -0.0167677 0)
(-0.0033022 -0.00912622 0)
(-0.0291321 0.0053236 0)
(-0.0535406 0.0309167 0)
(-0.0770605 0.0704223 0)
(-0.0959946 0.124028 0)
(-0.106374 0.190046 0)
(-0.103782 0.266416 0)
(-0.0840295 0.350591 0)
(-0.0436846 0.438801 0)
(0.0178079 0.529058 0)
(0.114525 0.62385 0)
(0.0757337 0.480194 0)
(0.160728 0.412166 0)
(0.218167 0.31484 0)
(0.238511 0.222339 0)
(0.232204 0.147746 0)
(0.208931 0.0937354 0)
(0.177438 0.0570417 0)
(0.143737 0.0333331 0)
(0.110428 0.0193202 0)
(0.0791251 0.0118312 0)
(0.0503348 0.00932746 0)
(0.0238338 0.0110677 0)
(-0.00117611 0.017141 0)
(-0.0253885 0.0304149 0)
(-0.048079 0.0544543 0)
(-0.068902 0.0906729 0)
(-0.0844393 0.137597 0)
(-0.0917419 0.193074 0)
(-0.0877829 0.255154 0)
(-0.0696502 0.32153 0)
(-0.0348249 0.389098 0)
(0.0179191 0.455886 0)
(0.0984106 0.524888 0)
(0.0498894 0.383304 0)
(0.115111 0.345083 0)
(0.163116 0.280428 0)
(0.183129 0.21524 0)
(0.182344 0.159791 0)
(0.167998 0.116726 0)
(0.146402 0.0849072 0)
(0.121677 0.0622886 0)
(0.0959498 0.0473449 0)
(0.0704929 0.0386655 0)
(0.0460839 0.034933 0)
(0.0228302 0.0353296 0)
(0.00054043 0.0402175 0)
(-0.0214168 0.0529218 0)
(-0.0414901 0.0752307 0)
(-0.0586923 0.107289 0)
(-0.070424 0.147385 0)
(-0.074738 0.193583 0)
(-0.069643 0.243978 0)
(-0.0532639 0.296346 0)
(-0.02414 0.347983 0)
(0.0190011 0.396983 0)
(0.0817539 0.444565 0)
(0.0314907 0.319008 0)
(0.0791143 0.293717 0)
(0.117542 0.250725 0)
(0.136374 0.205609 0)
(0.139906 0.164908 0)
(0.132729 0.131025 0)
(0.118952 0.104231 0)
(0.101432 0.0840395 0)
(0.0819493 0.0698534 0)
(0.0617197 0.0609876 0)
(0.0414976 0.0566507 0)
(0.0216349 0.0564007 0)
(0.00244773 0.0608361 0)
(-0.0166466 0.0725585 0)
(-0.033315 0.0924483 0)
(-0.0465647 0.11993 0)
(-0.054634 0.153688 0)
(-0.0561293 0.191982 0)
(-0.0497452 0.232947 0)
(-0.0343278 0.274497 0)
(-0.00936906 0.314265 0)
(0.0265468 0.350785 0)
(0.0753778 0.382829 0)
(0.0205094 0.275847 0)
(0.0548147 0.255221 0)
(0.084507 0.225962 0)
(0.101081 0.194871 0)
(0.1068 0.165243 0)
(0.104244 0.139037 0)
(0.0958927 0.11718 0)
(0.0837481 0.0999436 0)
(0.0692754 0.0873218 0)
(0.0535007 0.0790435 0)
(0.0371734 0.0747636 0)
(0.0207967 0.0743166 0)
(0.00468629 0.0784515 0)
(-0.0111552 0.0887685 0)
(-0.0240043 0.105767 0)
(-0.0337027 0.128855 0)
(-0.0385824 0.156953 0)
(-0.0376717 0.188461 0)
(-0.0300833 0.221669 0)
(-0.015203 0.254663 0)
(0.007224 0.285683 0)
(0.0380613 0.312962 0)
(0.07802 0.334705 0)
(0.0142064 0.245605 0)
(0.0392691 0.226661 0)
(0.0617368 0.206115 0)
(0.0755829 0.184538 0)
(0.0818691 0.163017 0)
(0.0819054 0.143003 0)
(0.0771418 0.125568 0)
(0.0689071 0.111352 0)
(0.0583261 0.100583 0)
(0.046275 0.0933229 0)
(0.0334031 0.0894797 0)
(0.0203937 0.0890615 0)
(0.00724772 0.0926613 0)
(-0.00510698 0.10157 0)
(-0.0145514 0.115567 0)
(-0.0212021 0.134652 0)
(-0.0234836 0.157724 0)
(-0.0206923 0.183368 0)
(-0.0122488 0.210026 0)
(0.00218472 0.236181 0)
(0.0229381 0.26038 0)
(0.0500387 0.280537 0)
(0.0843944 0.295268 0)
(0.0103509 0.223499 0)
(0.0290817 0.205375 0)
(0.0460193 0.190552 0)
(0.057273 0.17539 0)
(0.0632851 0.1597 0)
(0.0646609 0.144522 0)
(0.0622095 0.130851 0)
(0.0567926 0.119374 0)
(0.049246 0.110464 0)
(0.0402621 0.104313 0)
(0.03039 0.100998 0)
(0.0203322 0.100706 0)
(0.0099966 0.103697 0)
(0.00105852 0.111053 0)
(-0.00578164 0.122393 0)
(-0.00978814 0.137881 0)
(-0.0100318 0.156531 0)
(-0.00594668 0.177097 0)
(0.00294574 0.198325 0)
(0.0170141 0.218946 0)
(0.0361145 0.237338 0)
(0.0603337 0.25208 0)
(0.090493 0.261652 0)
(0.0077926 0.206838 0)
(0.0220882 0.189316 0)
(0.0349598 0.178409 0)
(0.0440421 0.167604 0)
(0.0494605 0.156091 0)
(0.0514782 0.144605 0)
(0.0505083 0.133981 0)
(0.0470982 0.124841 0)
(0.0418411 0.117608 0)
(0.0353063 0.112511 0)
(0.0280284 0.109744 0)
(0.0204917 0.109443 0)
(0.0128954 0.111919 0)
(0.0066215 0.117614 0)
(0.00203164 0.126706 0)
(8.82932e-05 0.139066 0)
(0.00136616 0.153866 0)
(0.00635742 0.170207 0)
(0.0154266 0.186844 0)
(0.0288127 0.202695 0)
(0.0463484 0.216496 0)
(0.0679861 0.226897 0)
(0.0945348 0.232523 0)
(0.00599169 0.194022 0)
(0.0170989 0.177023 0)
(0.027022 0.16887 0)
(0.0343815 0.161058 0)
(0.0391478 0.152537 0)
(0.0414238 0.14383 0)
(0.041404 0.135595 0)
(0.0394439 0.128376 0)
(0.0359634 0.122572 0)
(0.0314128 0.11844 0)
(0.0262296 0.116161 0)
(0.0207454 0.115784 0)
(0.0155635 0.117678 0)
(0.011367 0.121983 0)
(0.00868254 0.12907 0)
(0.00827167 0.138693 0)
(0.0106551 0.150251 0)
(0.0161989 0.162918 0)
(0.0251745 0.175715 0)
(0.0377264 0.187682 0)
(0.0536585 0.197721 0)
(0.0728945 0.204667 0)
(0.0961407 0.207238 0)
(0.00468554 0.183989 0)
(0.0134542 0.167459 0)
(0.0212344 0.161277 0)
(0.0272618 0.155557 0)
(0.0314275 0.149199 0)
(0.0337695 0.142579 0)
(0.0343668 0.136207 0)
(0.033454 0.130533 0)
(0.0313259 0.125893 0)
(0.0283265 0.12253 0)
(0.0248074 0.120583 0)
(0.0211104 0.120174 0)
(0.0177765 0.121444 0)
(0.0152337 0.124613 0)
(0.0140367 0.12989 0)
(0.0147677 0.137143 0)
(0.0179032 0.145937 0)
(0.0237233 0.15556 0)
(0.0324016 0.165181 0)
(0.0439956 0.173951 0)
(0.0583341 0.180939 0)
(0.0753248 0.185137 0)
(0.0955243 0.185383 0)
(0.0037261 0.176008 0)
(0.0107548 0.159892 0)
(0.0169663 0.155141 0)
(0.0219734 0.150904 0)
(0.0256221 0.146119 0)
(0.0279366 0.141061 0)
(0.0289345 0.13612 0)
(0.028773 0.131647 0)
(0.0276608 0.127922 0)
(0.0258741 0.125156 0)
(0.0236843 0.123454 0)
(0.0214217 0.122947 0)
(0.0194841 0.123686 0)
(0.0182316 0.125856 0)
(0.0181216 0.129578 0)
(0.0196694 0.134812 0)
(0.0232699 0.141239 0)
(0.029129 0.148327 0)
(0.0373606 0.155331 0)
(0.0479703 0.16151 0)
(0.0607835 0.166051 0)
(0.0756978 0.168095 0)
(0.0931164 0.166595 0)
(0.00301505 0.169564 0)
(0.00873768 0.153808 0)
(0.013788 0.150104 0)
(0.0180079 0.146924 0)
(0.0212265 0.143287 0)
(0.0234705 0.139392 0)
(0.0247223 0.135534 0)
(0.0250948 0.131982 0)
(0.0247457 0.128962 0)
(0.02388 0.126638 0)
(0.0227322 0.125107 0)
(0.0215858 0.124451 0)
(0.0206915 0.124744 0)
(0.0203973 0.126038 0)
(0.0210895 0.128463 0)
(0.0231453 0.131991 0)
(0.0269519 0.136426 0)
(0.0326787 0.141361 0)
(0.0403781 0.146221 0)
(0.0500106 0.150312 0)
(0.0613986 0.152927 0)
(0.0744252 0.153304 0)
(0.0893626 0.150513 0)
(0.00248594 0.164278 0)
(0.00721547 0.148837 0)
(0.0113917 0.145894 0)
(0.0150002 0.14348 0)
(0.0178633 0.140684 0)
(0.0200147 0.137653 0)
(0.0214222 0.134605 0)
(0.0221737 0.131749 0)
(0.0223823 0.129257 0)
(0.0222094 0.127256 0)
(0.021856 0.125826 0)
(0.0215277 0.125028 0)
(0.0214158 0.124903 0)
(0.0218215 0.125492 0)
(0.0230589 0.126821 0)
(0.0254176 0.128921 0)
(0.0292197 0.131676 0)
(0.0346543 0.134801 0)
(0.0417641 0.137873 0)
(0.0504596 0.140283 0)
(0.0605401 0.141403 0)
(0.0718801 0.140521 0)
(0.0846453 0.136798 0)
(0.0020913 0.15987 0)
(0.00605348 0.144707 0)
(0.00956102 0.142323 0)
(0.0126887 0.140467 0)
(0.0152506 0.138288 0)
(0.0172977 0.135894 0)
(0.018791 0.13345 0)
(0.0197995 0.131111 0)
(0.0204088 0.129004 0)
(0.0207466 0.127233 0)
(0.0209647 0.125857 0)
(0.0212299 0.124913 0)
(0.0216973 0.124437 0)
(0.0225881 0.124436 0)
(0.0241667 0.124876 0)
(0.0266609 0.125794 0)
(0.0303243 0.12713 0)
(0.0353604 0.128735 0)
(0.04182 0.130302 0)
(0.0496102 0.131351 0)
(0.058509 0.131305 0)
(0.0683615 0.129491 0)
(0.0792474 0.125122 0)
(0.00179659 0.156131 0)
(0.00515909 0.141232 0)
(0.00813857 0.139258 0)
(0.0108736 0.137808 0)
(0.0131738 0.13608 0)
(0.0151083 0.134155 0)
(0.0166328 0.132153 0)
(0.0178045 0.130189 0)
(0.0186908 0.128362 0)
(0.0193885 0.126745 0)
(0.020005 0.125392 0)
(0.020688 0.124315 0)
(0.0215629 0.123535 0)
(0.0227746 0.123037 0)
(0.0245436 0.122774 0)
(0.0270482 0.122736 0)
(0.030482 0.122912 0)
(0.0350453 0.123225 0)
(0.0408187 0.123519 0)
(0.0477321 0.123438 0)
(0.055547 0.122475 0)
(0.0640976 0.119988 0)
(0.0733844 0.1152 0)
(0.00158146 0.152905 0)
(0.0044642 0.138279 0)
(0.0070067 0.136601 0)
(0.0094098 0.135452 0)
(0.0114714 0.13405 0)
(0.0132828 0.132466 0)
(0.0147923 0.130784 0)
(0.0160537 0.129089 0)
(0.0171151 0.127459 0)
(0.0180517 0.125943 0)
(0.0189378 0.124584 0)
(0.019897 0.123389 0)
(0.0210351 0.122347 0)
(0.0224473 0.121441 0)
(0.0242973 0.12062 0)
(0.0267255 0.119831 0)
(0.0298699 0.119072 0)
(0.0339243 0.118322 0)
(0.0389949 0.117533 0)
(0.0450425 0.116488 0)
(0.0518642 0.114781 0)
(0.0592631 0.111817 0)
(0.0671768 0.106792 0)
(0.00143057 0.150065 0)
(0.00391645 0.135756 0)
(0.00607731 0.134293 0)
(0.00818873 0.133364 0)
(0.0100193 0.132197 0)
(0.0116937 0.130856 0)
(0.0131485 0.1294 0)
(0.0144363 0.127893 0)
(0.01559 0.126393 0)
(0.0166673 0.124934 0)
(0.0177244 0.123549 0)
(0.0188512 0.122248 0)
(0.0201396 0.120989 0)
(0.0216581 0.119761 0)
(0.0235101 0.118495 0)
(0.0258024 0.117132 0)
(0.0286403 0.115645 0)
(0.032179 0.114044 0)
(0.036541 0.112336 0)
(0.0417369 0.110452 0)
(0.0476158 0.10812 0)
(0.0539904 0.104812 0)
(0.0607208 0.0996961 0)
(0.00134184 0.147527 0)
(0.00348974 0.133611 0)
(0.00528859 0.132302 0)
(0.00713013 0.131532 0)
(0.00872603 0.130528 0)
(0.0102454 0.129354 0)
(0.0116071 0.128051 0)
(0.0128646 0.126668 0)
(0.0140381 0.125246 0)
(0.0151772 0.123813 0)
(0.0163294 0.12239 0)
(0.0175437 0.120982 0)
(0.0189001 0.11955 0)
(0.0204449 0.118064 0)
(0.0222429 0.116461 0)
(0.0243757 0.114671 0)
(0.0268998 0.112645 0)
(0.0299376 0.110381 0)
(0.0336065 0.10792 0)
(0.0379714 0.105296 0)
(0.0429535 0.102414 0)
(0.0483764 0.098837 0)
(0.0540682 0.0937402 0)
(0.00129801 0.145221 0)
(0.00314548 0.13181 0)
(0.00459283 0.130614 0)
(0.00617659 0.129955 0)
(0.0075279 0.129057 0)
(0.00887114 0.127993 0)
(0.0101024 0.126785 0)
(0.0112791 0.125473 0)
(0.0124133 0.12409 0)
(0.0135459 0.122657 0)
(0.0147163 0.121185 0)
(0.0159537 0.11967 0)
(0.0173148 0.118091 0)
(0.0188343 0.116401 0)
(0.0205463 0.11455 0)
(0.0225011 0.112453 0)
(0.0247296 0.110049 0)
(0.0273035 0.107307 0)
(0.0303156 0.104258 0)
(0.0338776 0.101011 0)
(0.0379761 0.0976117 0)
(0.0425027 0.0938006 0)
(0.0472811 0.0887979 0)
(0.00129444 0.143071 0)
(0.00286921 0.130335 0)
(0.00396376 0.129225 0)
(0.00529426 0.128637 0)
(0.00638684 0.127803 0)
(0.00753418 0.126801 0)
(0.00860034 0.125644 0)
(0.00965022 0.124364 0)
(0.010691 0.122983 0)
(0.0117559 0.121525 0)
(0.012874 0.119989 0)
(0.0140712 0.118374 0)
(0.0153858 0.116665 0)
(0.0168358 0.114813 0)
(0.0184372 0.112775 0)
(0.0202158 0.110472 0)
(0.0221738 0.107824 0)
(0.0243348 0.104765 0)
(0.0267623 0.101308 0)
(0.0295663 0.0975661 0)
(0.0328003 0.093693 0)
(0.0364452 0.0896485 0)
(0.0403747 0.0847761 0)
(0.00132107 0.141029 0)
(0.00264636 0.129175 0)
(0.00338714 0.128134 0)
(0.0044677 0.127582 0)
(0.00529237 0.126777 0)
(0.00622856 0.125806 0)
(0.00710182 0.124665 0)
(0.00798433 0.123385 0)
(0.00888205 0.121984 0)
(0.00982154 0.12048 0)
(0.0108262 0.118869 0)
(0.0119215 0.117156 0)
(0.013128 0.115324 0)
(0.0144623 0.113333 0)
(0.0159294 0.11115 0)
(0.017531 0.108706 0)
(0.0192413 0.105914 0)
(0.0210589 0.102694 0)
(0.0229975 0.0990071 0)
(0.0251195 0.0949213 0)
(0.0275157 0.0906441 0)
(0.0302792 0.0863482 0)
(0.0333986 0.0815986 0)
(0.00136381 0.13906 0)
(0.00246038 0.128316 0)
(0.00285616 0.127336 0)
(0.00369543 0.126787 0)
(0.00425576 0.125989 0)
(0.00497474 0.125023 0)
(0.00563478 0.123877 0)
(0.00632722 0.122578 0)
(0.00704709 0.121144 0)
(0.00781033 0.119581 0)
(0.00864319 0.117892 0)
(0.00957174 0.116074 0)
(0.010605 0.114118 0)
(0.0117646 0.112 0)
(0.0130531 0.109696 0)
(0.0144552 0.107141 0)
(0.0159403 0.104272 0)
(0.0174756 0.101007 0)
(0.0190184 0.0972482 0)
(0.0205729 0.093008 0)
(0.022211 0.088449 0)
(0.0240767 0.0838951 0)
(0.0263659 0.079234 0)
(0.00140147 0.137144 0)
(0.00229146 0.127731 0)
(0.00236905 0.126812 0)
(0.00298308 0.126236 0)
(0.00329747 0.125431 0)
(0.00380703 0.124451 0)
(0.00425642 0.12329 0)
(0.00474912 0.121967 0)
(0.00526872 0.120491 0)
(0.00582766 0.118868 0)
(0.00644696 0.117105 0)
(0.00714995 0.115186 0)
(0.00795104 0.113112 0)
(0.00887499 0.110874 0)
(0.00991451 0.108451 0)
(0.0110626 0.105798 0)
(0.0123013 0.102874 0)
(0.0135696 0.0996152 0)
(0.0148029 0.0959071 0)
(0.0159291 0.0916963 0)
(0.0169227 0.0870578 0)
(0.0179301 0.0823202 0)
(0.0193529 0.0776965 0)
(0.00140717 0.135296 0)
(0.00211025 0.127401 0)
(0.00191895 0.126547 0)
(0.00233136 0.125915 0)
(0.0024363 0.125091 0)
(0.0027584 0.124087 0)
(0.00301753 0.122906 0)
(0.0033215 0.121558 0)
(0.00364422 0.120046 0)
(0.00399819 0.118376 0)
(0.00438881 0.116555 0)
(0.00483828 0.114545 0)
(0.00537054 0.112373 0)
(0.00600127 0.110024 0)
(0.00672502 0.107487 0)
(0.00754563 0.10473 0)
(0.00846452 0.101741 0)
(0.00942096 0.0984814 0)
(0.0103486 0.0948819 0)
(0.011158 0.0908431 0)
(0.0116965 0.0863541 0)
(0.0119337 0.0816274 0)