/*--------------------------------*- C++ -*----------------------------------*\
| =========                 |                                                 |
| \\      /  F ield         | OpenFOAM: The Open Source CFD Toolbox           |
|  \\    /   O peration     | Version:  2312                                  |
|   \\  /    A nd           | Website:  www.openfoam.com                      |
|    \\/     M anipulation  |                                                 |
\*---------------------------------------------------------------------------*/
FoamFile
{
    version     2.0;
    format      ascii;
    arch        "LSB;label=32;scalar=64";
    class       volScalarField;
    location    "5.05";
    object      alpha.water_0;
}
// * * * * * * * * * * * * * * * * * * * * * * * * * * * * * * * * * * * * * //

dimensions      [0 0 0 0 0 0 0];

internalField   nonuniform List<scalar> 
2268
(
3.25837e-07
3.23722e-07
2.67029e-07
2.61064e-08
4.6519e-10
8.74467e-10
7.42437e-10
3.69404e-10
1.84076e-10
1.24178e-10
9.73361e-11
8.54708e-11
8.22689e-11
8.3293e-11
8.95461e-11
1.06497e-10
1.40661e-10
1.97583e-10
2.78529e-10
5.34751e-10
1.02067e-09
1.35297e-09
1.40812e-09
2.54413e-07
1.92923e-07
7.02227e-08
1.11597e-08
4.25644e-10
4.25242e-10
3.11181e-10
3.11132e-10
2.8729e-10
2.47525e-10
2.31345e-10
2.20065e-10
2.12082e-10
1.87684e-10
1.70451e-10
1.81011e-10
2.84258e-10
4.04242e-10
5.66369e-10
8.36396e-10
1.19041e-09
1.33505e-09
1.30705e-09
3.95034e-08
1.81236e-08
8.52834e-09
5.3853e-09
5.52491e-09
6.84787e-09
6.26825e-09
1.75303e-09
6.61373e-10
6.39103e-10
6.77825e-10
8.56156e-10
1.051e-09
1.10111e-09
9.47136e-10
7.11407e-10
5.81671e-10
6.41863e-10
7.17642e-10
8.79236e-10
9.55478e-10
9.61454e-10
8.66502e-10
5.81857e-09
3.60239e-09
9.7414e-10
8.02918e-10
2.13686e-09
2.75224e-09
2.05399e-09
1.00036e-09
5.41627e-10
5.51931e-10
9.17209e-10
1.73303e-09
2.34545e-09
2.34396e-09
2.06099e-09
9.80825e-10
5.21465e-10
5.51744e-10
3.60117e-10
3.70845e-10
4.03318e-10
4.45398e-10
5.04498e-10
4.18793e-12
4.98898e-19
2.59588e-19
2.60857e-19
2.80154e-19
1.21038e-11
9.49062e-20
1.80643e-27
-5.29289e-29
-2.3613e-22
1.04447e-21
-2.44029e-21
-5.87476e-22
2.35073e-20
-3.23246e-20
2.43948e-20
-4.69966e-14
-1.78814e-15
-2.08941e-16
-4.40424e-16
-1.85354e-15
-2.60619e-15
-1.01947e-14
0.130671
0.12386
0.109961
0.0916239
0.0709942
0.0495484
0.0286493
0.0134877
0.00859314
0.0117656
0.0173975
0.0240406
0.0369929
0.0593763
0.0887957
0.119193
0.127752
0.131598
0.151049
0.175119
0.192404
0.21029
0.264353
0.840943
0.834867
0.81825
0.794056
0.763642
0.726754
0.684676
0.645767
0.618187
0.608832
0.624981
0.660465
0.708701
0.763288
0.814822
0.849173
0.828211
0.812535
0.83016
0.855215
0.865531
0.86664
0.88976
0.999516
0.999499
0.999323
0.998727
0.998544
0.998551
0.998862
0.999302
0.999667
0.999755
0.999717
0.999662
0.999714
0.999756
0.999756
0.999756
0.999756
0.974849
0.962304
0.982825
0.994935
0.970693
0.936331
0.012293
0.0077995
0.00364058
0.00294051
0.00553428
0.00700434
0.0089093
0.00920251
0.00905884
0.00912333
0.00915953
0.0091616
0.00657427
0.00572293
0.00453209
0.00438965
0.00380063
0.00360821
0.00361815
0.00719278
0.000698587
0.000690981
0.000682973
0.000673835
0.000665399
0.000657177
0.000648515
0.000640073
0.000633415
0.000626441
0.000618213
0.000611269
0.000209335
2.70829e-05
2.69032e-05
9.17492e-05
0.00032972
0.000565598
0.174086
0.171297
0.161705
0.19245
0.211591
0.187677
0.152242
0.137331
0.128997
0.133565
0.12563
0.0711863
0.018177
0.0017134
0.00592622
0.00609025
4.92253e-05
4.95855e-05
4.92276e-05
0.727059
0.846774
0.792846
0.78819
0.848709
0.864081
0.860264
0.850006
0.82985
0.860005
0.863887
0.826886
0.681891
0.387366
0.197611
0.157574
0.196983
0.341317
0.166556
0.788719
0.989363
0.982024
0.979729
0.988376
0.966337
0.97565
0.975645
0.974902
0.942797
0.940547
0.974436
0.975673
0.957799
0.517108
0.727721
0.821648
0.847287
0.575553
0.919058
0.985688
0.991436
0.990248
0.990238
0.984597
0.9641
0.975646
0.948318
0.857172
0.882748
0.948065
0.975668
0.970962
0.744251
0.87963
0.875375
0.861673
0.634371
0.975146
0.983266
0.991438
0.990603
0.955769
0.973193
0.963781
0.97389
0.949795
0.843936
0.871288
0.90371
0.962496
0.957762
0.915383
0.92572
0.926292
0.861914
0.867514
0.963092
0.977036
0.991275
0.991468
0.954296
0.91711
0.959233
0.975336
0.975334
0.864451
0.750925
0.908659
0.842847
0.623204
0.723873
0.857077
0.947639
0.903199
0.890926
0.999748
0.999748
0.999748
0.999748
0.999748
0.999748
0.999748
0.99974
0.999747
0.999755
0.999756
0.999756
0.999756
0.999756
0.999756
0.999756
0.999756
0.999725
0.999677
0.999557
0.998157
0.997327
0.996636
0.963939
0.983961
0.997149
0.977416
0.974387
0.981146
0.969904
0.970768
0.978969
0.98736
0.993289
0.995212
0.996705
0.999259
0.999725
0.999717
0.998437
0.991934
0.985515
0.985659
0.989903
0.993248
0.991214
0.39724
0.361616
0.320325
0.252968
0.230723
0.283963
0.40295
0.553565
0.632261
0.672
0.734162
0.811378
0.874688
0.888573
0.881229
0.880823
0.871621
0.851518
0.78662
0.714706
0.683447
0.738142
0.848377
9.4822e-06
3.50434e-15
-4.69606e-12
2.48586e-20
0.000349738
8.54522e-05
0.000962356
0.00019643
2.77121e-08
0.00410603
0.0267214
0.0878302
0.17451
0.181556
0.167285
0.167046
0.174103
0.143412
0.0525659
3.14925e-05
0.0100349
0.0811551
0.239033
6.2797e-09
-4.03271e-15
2.79717e-05
9.53096e-05
9.4913e-05
3.77791e-05
5.63479e-08
1.73961e-08
1.75881e-10
3.49336e-19
4.68033e-19
-4.62382e-08
-4.57684e-07
1.1112e-09
3.18067e-09
1.14977e-09
1.3423e-16
1.37834e-21
-3.57365e-21
3.31422e-05
5.55739e-20
-8.87201e-21
7.58257e-20
1.32814e-08
2.67609e-05
2.87516e-05
4.37197e-05
2.61207e-05
2.67329e-05
1.25752e-05
2.32659e-06
4.17666e-06
1.95041e-05
4.26947e-05
6.42424e-05
0.000165129
0.000265054
0.000272585
0.000227111
4.03991e-05
2.46499e-05
0.0019715
0.00186726
0.000244798
3.59094e-06
4.29069e-24
1.30198e-05
0.000138501
0.000188987
0.000253793
0.000213801
0.000208435
0.000184155
0.000146912
0.00013522
0.000153433
0.000148522
9.74241e-05
0.000138467
0.00220437
0.00394443
0.00277576
0.000406146
0.000184459
0.000213898
0.0130233
0.00434676
0.000272716
0.000386813
9.13409e-05
0.000256282
0.000160264
0.000813269
0.0024452
0.00345528
0.00322052
0.0025341
0.00197921
0.0016532
0.00128393
0.00053121
0.000153649
0.00181697
0.0139976
0.0149179
0.0101671
0.000974631
0.000214758
0.013624
0.015445
0.00170619
0.00061884
0.000339884
0.000339706
8.24968e-05
0.000701413
0.00445137
0.00553175
0.00553036
0.00551305
0.00477855
0.00362714
0.00298322
0.001867
0.000554669
0.000545757
0.00373854
0.0139229
0.0144914
0.0119166
0.00894919
0.0178206
0.0201037
0.0144665
0.000676302
0.000285965
0.000272694
8.2946e-05
6.2805e-05
0.000203988
0.000922486
0.000985804
0.000675331
0.000430642
0.000246337
0.000244845
0.00062503
0.000930055
0.000705052
3.00605e-05
2.91768e-08
3.29291e-08
5.75746e-09
0.00376914
0.0196325
0.020102
0.0201037
0.0155677
1.08757e-07
1.08518e-07
7.62257e-06
2.54604e-08
2.54561e-08
2.54604e-08
2.54013e-08
2.53184e-08
2.51648e-08
2.53175e-08
2.54008e-08
2.55277e-08
1.18934e-07
3.12817e-08
3.30735e-08
7.48327e-07
5.70802e-07
1.7668e-07
3.16507e-08
0.00245457
0.0194512
0.020102
0.0201009
1.3485e-07
1.12999e-07
3.4189e-08
2.54561e-08
3.19622e-08
8.01995e-08
1.32331e-07
3.80483e-07
9.34288e-07
4.29305e-07
1.81501e-07
4.66828e-08
3.14134e-08
3.14584e-08
5.31932e-08
4.49205e-07
3.72486e-07
3.3977e-07
1.01725e-07
7.04465e-11
0.00395046
0.0199716
0.020102
3.40038e-07
2.37081e-07
7.71129e-08
3.2556e-08
8.34711e-08
2.24433e-07
4.84606e-07
1.82598e-06
1.8459e-06
1.649e-06
1.0642e-06
7.53885e-07
7.20465e-07
2.30911e-06
8.54022e-06
1.09035e-05
4.04312e-06
3.27348e-07
3.18874e-07
8.48455e-09
0.000227058
0.00400009
0.00532356
4.36964e-07
2.84799e-07
1.01439e-07
6.81356e-08
8.95706e-08
1.94606e-07
9.06916e-07
1.84591e-06
1.84591e-06
1.84549e-06
1.1458e-06
1.11597e-06
1.447e-06
9.70355e-06
1.55711e-05
1.46227e-05
1.40731e-05
4.29288e-06
1.17584e-06
5.57653e-07
-2.77872e-11
3.04933e-21
-2.14561e-10
3.51166e-07
8.28348e-08
3.06902e-08
4.25423e-08
2.14515e-08
9.37791e-08
4.62356e-07
1.55026e-06
1.83461e-06
1.03408e-06
3.18599e-07
9.08288e-09
1.08925e-06
9.94134e-06
2.00019e-05
2.00018e-05
2.00019e-05
1.39562e-05
1.993e-07
6.28471e-07
2.77872e-11
-7.02851e-23
-2.65123e-23
5.12576e-08
2.26195e-08
2.04643e-08
1.9608e-08
1.75986e-08
4.41329e-08
1.26087e-08
1.40752e-09
1.66456e-07
2.99439e-09
3.03905e-09
9.05989e-09
1.74332e-08
5.32097e-08
1.12904e-05
1.99275e-05
1.34776e-05
1.52314e-09
1.59334e-09
1.43328e-06
1.97487e-05
2.36732e-05
2.16962e-05
9.28494e-09
9.27799e-09
1.37209e-08
1.3045e-08
1.59265e-08
8.26839e-09
1.40745e-09
1.39941e-09
1.39161e-09
2.95035e-09
4.25266e-09
6.93145e-09
9.00706e-09
1.84209e-08
8.22311e-09
8.22416e-09
2.90772e-07
2.62649e-07
1.71492e-09
3.36804e-07
1.54058e-05
2.83085e-05
2.89457e-05
9.51676e-09
3.58436e-09
5.86712e-09
7.57781e-09
9.00994e-09
5.54167e-09
1.85013e-09
1.60434e-09
1.38406e-09
2.53093e-09
3.11833e-09
2.80632e-09
4.64275e-09
7.82907e-09
1.03123e-08
8.21502e-09
8.22152e-09
4.29695e-08
1.79952e-09
5.12279e-08
1.0915e-06
3.27387e-06
6.63314e-06
1.17916e-08
3.38631e-09
3.8469e-09
4.40782e-09
4.70101e-09
3.69276e-09
3.20199e-09
1.90264e-09
1.33792e-09
1.33427e-09
1.51816e-09
2.04158e-09
3.26048e-09
4.59614e-09
6.45264e-09
8.29702e-09
1.06707e-08
1.00193e-08
3.69535e-09
1.27726e-09
3.49324e-15
-1.62099e-10
5.89202e-14
1.45754e-08
2.36721e-09
2.69008e-09
3.24701e-09
3.03992e-09
2.6228e-09
2.03545e-09
1.51948e-09
1.0714e-09
8.97428e-10
9.02723e-10
1.07813e-09
1.24299e-09
1.74424e-09
2.62553e-09
3.69053e-09
4.42864e-09
4.46226e-09
3.0815e-09
9.79994e-10
8.08651e-09
1.38806e-07
2.13325e-07
1.45682e-08
1.63091e-09
1.35225e-09
1.68955e-09
1.51303e-09
1.24624e-09
9.7095e-10
7.22388e-10
5.37736e-10
4.48466e-10
4.26049e-10
4.78392e-10
5.85408e-10
7.45468e-10
9.78452e-10
1.28007e-09
1.56872e-09
1.68218e-09
1.52545e-09
1.05204e-09
7.02371e-09
1.34257e-07
2.87542e-07
1.42404e-08
1.12472e-09
7.78338e-10
8.7669e-10
7.21681e-10
5.41313e-10
3.96311e-10
2.94354e-10
2.27243e-10
1.90563e-10
1.78309e-10
1.9527e-10
2.29741e-10
2.79003e-10
3.47361e-10
4.36053e-10
5.40756e-10
6.46436e-10
7.23523e-10
6.94001e-10
2.06794e-09
2.76924e-08
1.39459e-07
1.38317e-08
7.76299e-10
4.34918e-10
4.65029e-10
3.82635e-10
3.04607e-10
2.39089e-10
1.82659e-10
1.36427e-10
1.01398e-10
8.15057e-11
7.58767e-11
8.22159e-11
9.78427e-11
1.22553e-10
1.57097e-10
2.05362e-10
2.74873e-10
3.70467e-10
5.43615e-10
1.08738e-09
2.44611e-09
5.71176e-09
1.36499e-08
5.87952e-10
3.39337e-10
3.49588e-10
3.16792e-10
2.96383e-10
2.78277e-10
2.03627e-10
1.43158e-10
9.34913e-11
6.00575e-11
4.15573e-11
3.32159e-11
3.28941e-11
3.89087e-11
5.10758e-11
7.16477e-11
1.03847e-10
1.56314e-10
2.59874e-10
4.61937e-10
1.15994e-09
1.35773e-09
1.35309e-08
4.20202e-10
3.13043e-10
3.56249e-10
5.28365e-10
6.31099e-10
5.02611e-10
2.9218e-10
2.02808e-10
1.2557e-10
7.23536e-11
4.06916e-11
2.38152e-11
1.62984e-11
1.43359e-11
1.69932e-11
2.36774e-11
3.66434e-11
5.78752e-11
9.84701e-11
1.89156e-10
3.45829e-10
7.96371e-10
1.34596e-08
3.28745e-10
3.27204e-10
5.55968e-10
9.3815e-10
1.33424e-09
9.64833e-10
3.90193e-10
2.7613e-10
1.71336e-10
9.51862e-11
5.13963e-11
2.74767e-11
1.44751e-11
8.45665e-12
6.70001e-12
8.2247e-12
1.25272e-11
2.01862e-11
3.39131e-11
5.93373e-11
1.39913e-10
2.45741e-10
1.34417e-08
3.18225e-10
4.39343e-10
9.37502e-10
1.85638e-09
3.41982e-09
2.17041e-09
4.98465e-10
3.61632e-10
2.26744e-10
1.22662e-10
6.55398e-11
3.4654e-11
1.73479e-11
8.47289e-12
4.30602e-12
3.28709e-12
4.34599e-12
6.92407e-12
1.17203e-11
1.97157e-11
3.56974e-11
8.18543e-11
1.3538e-08
3.7258e-10
7.94819e-10
1.89138e-09
3.36158e-09
6.9695e-09
5.08787e-09
5.7347e-10
4.31667e-10
2.78566e-10
1.46309e-10
7.7249e-11
4.16944e-11
2.13991e-11
1.003e-11
4.4435e-12
1.9758e-12
1.67583e-12
2.40081e-12
3.98474e-12
6.56555e-12
1.34511e-11
2.09431e-11
1.38594e-08
5.12176e-10
1.85452e-09
7.1699e-09
2.90593e-08
4.3279e-08
7.57019e-09
5.86344e-10
5.14683e-10
3.34188e-10
1.60263e-10
8.25522e-11
4.5649e-11
2.4493e-11
1.19209e-11
5.20258e-12
2.08892e-12
8.59392e-13
8.54609e-13
1.37167e-12
2.40056e-12
3.67139e-12
7.79759e-12
1.39801e-08
1.00964e-09
6.1366e-09
8.07382e-08
3.2791e-07
2.38582e-07
4.8467e-10
5.70506e-10
6.00904e-10
3.4607e-10
1.55371e-10
7.82597e-11
4.47809e-11
2.54836e-11
1.31487e-11
5.9496e-12
2.36531e-12
7.32665e-13
3.57758e-13
4.25277e-13
6.83826e-13
1.48444e-12
2.14796e-12
1.49004e-08
2.06792e-09
2.78285e-08
3.40188e-07
6.83672e-07
3.75481e-07
4.83917e-10
5.99783e-10
6.86154e-10
3.23648e-10
1.32008e-10
6.50169e-11
3.9029e-11
2.37438e-11
1.32455e-11
6.37259e-12
2.58977e-12
9.03032e-13
2.08737e-13
1.50887e-13
2.35643e-13
3.71249e-13
7.47932e-13
1.55189e-08
3.47125e-09
1.0379e-07
7.00685e-07
6.98734e-07
2.02601e-07
4.94446e-10
8.79025e-10
7.61686e-10
2.74041e-10
1.00838e-10
4.88028e-11
3.04917e-11
1.95619e-11
1.18547e-11
6.20683e-12
2.70483e-12
9.97811e-13
1.90817e-13
6.26312e-14
7.11502e-14
1.47458e-13
2.10162e-13
1.55298e-08
1.05767e-08
3.24121e-07
7.92072e-07
6.24147e-07
4.85686e-10
5.61299e-10
1.34843e-09
7.04472e-10
2.091e-10
6.8983e-11
3.32858e-11
2.16638e-11
1.46291e-11
9.38925e-12
5.38977e-12
2.57939e-12
1.01057e-12
2.49761e-13
4.35802e-14
2.32732e-14
3.36266e-14
7.05037e-14
1.34508e-08
2.55219e-08
5.14019e-07
7.92681e-07
3.15452e-07
4.99161e-10
1.25032e-09
1.33129e-09
4.70537e-10
1.40176e-10
4.67309e-11
2.17908e-11
1.42267e-11
9.63856e-12
6.46406e-12
4.08134e-12
2.19717e-12
9.20321e-13
2.93275e-13
3.86099e-14
7.58861e-15
1.22005e-14
1.80252e-14
1.48852e-08
3.42941e-08
6.01631e-07
7.6773e-07
2.72463e-08
4.96171e-10
1.66742e-09
1.03968e-09
2.64543e-10
9.49165e-11
2.88297e-11
1.33323e-11
8.56947e-12
5.66817e-12
3.83926e-12
2.61916e-12
1.60597e-12
7.73138e-13
2.76266e-13
3.93954e-14
3.42002e-15
2.65857e-15
5.3724e-15
1.56484e-08
5.54628e-08
4.93912e-07
4.7465e-07
1.39542e-09
1.04772e-09
2.37105e-09
8.96882e-10
2.49616e-10
6.43753e-11
1.65796e-11
7.62563e-12
4.80975e-12
3.00531e-12
1.96287e-12
1.39471e-12
9.73286e-13
5.58978e-13
2.31386e-13
4.10242e-14
2.78031e-15
1.01787e-15
1.44973e-15
2.69491e-08
7.3341e-08
3.34189e-07
1.17067e-07
1.20949e-08
2.57815e-09
2.86735e-09
1.0558e-09
2.599e-10
4.43952e-11
8.96396e-12
4.06112e-12
2.5218e-12
1.45918e-12
8.70598e-13
6.02088e-13
4.61602e-13
3.21865e-13
1.63656e-13
4.01387e-14
3.90877e-15
3.42136e-16
3.92531e-16
3.01365e-08
6.19125e-08
3.27945e-07
4.83999e-08
4.1943e-09
5.99666e-09
3.69452e-09
1.16672e-09
2.75779e-10
4.03355e-11
4.80238e-12
1.96305e-12
1.2154e-12
6.57864e-13
3.44049e-13
2.11645e-13
1.64027e-13
1.34731e-13
9.14059e-14
3.16386e-14
3.80493e-15
2.07504e-16
9.72701e-17
3.28838e-08
3.60132e-08
6.56645e-08
4.29014e-09
4.83972e-09
1.06016e-08
4.0134e-09
1.11814e-09
2.34953e-10
3.15335e-11
2.4935e-12
8.01153e-13
5.17203e-13
2.68798e-13
1.22579e-13
6.06411e-14
4.2654e-14
3.9537e-14
3.7003e-14
1.88513e-14
3.32783e-15
1.7504e-16
2.64053e-17
3.66466e-08
1.05294e-08
1.60645e-09
1.60637e-09
1.64848e-08
1.21143e-08
3.49375e-09
8.07835e-10
1.52539e-10
1.73483e-11
1.08193e-12
2.66344e-13
1.77404e-13
9.31138e-14
3.89434e-14
1.53344e-14
8.2061e-15
7.65452e-15
9.56569e-15
8.34238e-15
2.02104e-15
1.6455e-16
1.00082e-17
5.96514e-08
8.12603e-09
1.60638e-09
2.36333e-09
1.86416e-08
8.42764e-09
2.13921e-09
4.25533e-10
5.50823e-11
4.57886e-12
2.07181e-13
5.63118e-14
4.18878e-14
2.32234e-14
9.50865e-15
3.11542e-15
1.13876e-15
9.78492e-16
1.65962e-15
2.56939e-15
1.04639e-15
1.2863e-16
9.61844e-18
8.12923e-08
1.40158e-08
5.47388e-09
2.78217e-08
1.461e-08
2.37199e-09
5.54707e-10
7.55486e-11
6.00049e-12
2.50797e-13
8.61653e-15
5.80862e-15
5.01118e-15
3.0637e-15
1.31869e-15
3.90869e-16
1.03351e-16
7.83131e-17
2.09948e-16
5.73115e-16
4.64809e-16
8.80467e-17
7.35306e-18
0.996668
0.984937
0.976248
0.969899
0.990549
0.990517
0.990478
0.976525
0.904318
0.914576
0.882077
0.709542
0.286879
0.245585
0.151093
0.0474588
-5.97765e-08
-4.45258e-08
-2.14092e-11
-1.48732e-16
3.1354e-05
2.49568e-05
9.30835e-08
1.70179e-10
0.000597379
0.000132744
4.35311e-06
0.000104052
0.000784423
0.000657336
0.000401311
0.000104745
0.000653441
0.00104775
0.00116086
0.00114085
0.00522434
0.000659592
0.000348681
0.000631481
0.0200943
0.0149767
0.000573523
5.24853e-06
0.0201037
0.0103627
2.61906e-08
3.28162e-08
0.00323816
0.000366689
1.17129e-06
3.08983e-08
-6.25222e-08
-1.1626e-07
1.13413e-07
6.43565e-07
3.87051e-06
1.02251e-05
5.64296e-07
-7.59656e-10
2.91102e-05
2.92397e-05
2.6617e-05
2.10351e-05
2.90093e-05
2.88775e-05
3.72421e-05
3.80697e-05
2.38544e-05
3.3687e-05
3.81691e-05
3.81949e-05
1.62734e-06
1.98364e-05
3.36706e-05
1.15553e-05
5.36669e-07
1.28505e-06
1.24837e-06
9.66024e-09
3.3178e-07
1.03612e-07
1.00144e-07
9.71937e-09
2.25906e-07
1.36757e-07
8.08485e-09
6.94046e-09
2.05097e-08
2.89078e-08
9.1212e-09
1.51449e-08
2.13765e-09
6.47958e-09
5.65473e-09
1.20786e-08
9.83344e-10
1.14865e-09
3.24793e-09
4.93787e-09
4.19946e-10
6.16995e-10
9.81006e-10
1.51476e-09
1.12873e-10
1.34105e-10
2.82064e-10
4.0029e-10
3.37543e-11
4.29747e-11
6.20742e-11
9.17555e-11
9.7721e-12
1.07565e-11
1.8023e-11
2.2038e-11
3.3679e-12
4.04862e-12
4.72937e-12
6.32502e-12
9.31807e-13
1.05546e-12
1.52719e-12
1.77511e-12
3.03979e-13
3.54162e-13
3.85221e-13
4.77104e-13
8.44796e-14
8.29464e-14
1.07675e-13
1.11922e-13
2.50943e-14
2.5407e-14
2.47988e-14
2.98751e-14
6.45714e-15
6.04001e-15
7.12838e-15
6.76949e-15
1.79867e-15
1.82629e-15
1.6763e-15
1.85287e-15
4.72309e-16
4.26422e-16
4.93159e-16
4.64286e-16
1.20663e-16
1.16152e-16
1.03641e-16
1.15437e-16
2.55468e-17
2.12316e-17
2.57998e-17
2.3964e-17
5.2165e-18
5.04283e-18
4.24483e-18
4.88889e-18
1.03154e-18
7.84949e-19
8.72071e-19
8.5079e-19
2.15986e-19
1.47288e-19
1.31926e-19
1.12251e-19
0.957566
0.96162
0.987943
0.991466
0.969045
0.916904
0.940149
0.975335
0.975336
0.858125
0.608163
0.90842
0.799131
0.572478
0.572447
0.909854
0.94764
0.947581
0.884755
0.966505
0.933383
0.907591
0.871783
0.918205
0.937859
0.96796
0.968091
0.876907
0.60118
0.561715
0.875533
0.888042
0.851308
0.819339
0.947533
0.947641
0.947642
0.91801
0.445803
0.451028
0.471184
0.591392
0.676363
0.592424
0.543739
0.52297
0.1284
0.0731207
0.0728512
0.119105
0.349242
0.594441
0.711824
0.705113
0.724446
0.712257
0.69111
0.0108045
0.096803
0.0860055
0.0464484
0.0602342
0.0208937
0.0105506
0.00928091
-1.98173e-20
-6.21812e-20
6.48412e-22
-8.41106e-21
-5.9547e-09
0.000135464
0.0147355
0.0238008
0.00608312
0.000359994
0.000360667
0.000265622
0.0263138
0.0416155
0.000634493
0.000426394
0.000120133
0.000117678
0.000110257
9.44862e-05
1.61924e-05
-1.91961e-12
-1.77958e-23
4.98859e-06
0.000247817
0.00036943
0.00038845
0.000382513
0.000360669
0.000359996
0.00108526
0.0388615
0.0720664
0.00726924
0.00104072
0.000389446
0.000146786
0.000292187
0.000382318
0.000358393
4.49306e-05
9.51648e-24
0.000192553
0.000282144
0.00038108
0.000548966
0.000651105
0.00119452
0.00193504
0.00174933
0.0563544
0.0724632
0.066448
0.00540886
7.66293e-05
7.66343e-05
7.66616e-05
3.47279e-05
0.000112759
0.00117092
0.0016599
0.00170555
0.00201501
0.00255889
0.00262005
0.0026196
0.00262016
0.00255579
0.00114365
0.0349247
0.0565228
0.0375558
0.00591158
0.00208547
0.000611202
2.54073e-08
2.25645e-08
1.83944e-08
5.82057e-05
0.000463439
0.00118697
0.00242273
0.00252482
0.00247755
0.00179942
0.00142522
0.00102457
0.000874085
0.00186549
0.00425499
0.0011297
0.000754411
0.000306078
8.40306e-05
2.93046e-08
6.05048e-08
5.7829e-06
3.50447e-05
9.54676e-05
0.000191699
0.0002264
0.000238932
1.27141e-06
1.27287e-06
1.27141e-06
1.27287e-06
0.000830117
0.0001534
-1.08328e-07
-2.91795e-09
-1.26347e-12
6.35256e-07
4.86075e-07
5.45824e-06
4.62658e-06
1.52832e-06
1.57026e-06
2.64072e-06
1.24568e-06
1.23549e-06
1.23051e-06
1.66267e-06
5.7267e-06
2.53099e-06
2.71381e-06
0.00017039
0.000145357
2.56782e-05
8.00261e-07
8.38888e-10
1.72236e-06
7.83764e-06
1.1474e-05
1.09392e-05
9.11164e-06
2.69227e-06
3.34532e-07
1.47886e-06
1.71397e-06
3.53966e-06
3.67752e-06
5.95855e-06
2.66655e-06
2.88168e-06
1.81607e-06
2.42342e-05
2.47805e-05
3.25394e-06
2.82454e-07
6.84833e-06
1.37683e-05
1.60077e-05
1.59747e-05
7.29752e-06
2.06621e-06
3.26976e-07
1.27244e-07
2.83353e-06
5.19286e-06
1.38343e-05
3.82958e-05
8.16471e-06
2.38315e-06
8.72327e-07
5.43063e-07
2.58945e-06
1.28632e-06
1.56461e-07
1.33958e-09
1.60015e-05
2.89532e-05
1.09807e-05
1.95371e-06
1.16577e-06
1.26741e-07
1.26934e-07
1.18962e-06
4.08328e-06
3.84088e-05
4.01493e-05
1.68254e-05
2.45084e-06
2.57436e-07
8.25349e-11
5.43125e-11
5.87935e-24
5.64033e-08
1.13212e-09
1.1861e-05
2.89538e-05
6.42086e-06
1.85302e-06
3.14741e-06
6.71097e-06
6.75775e-06
1.28647e-06
1.20674e-06
4.0119e-05
4.01473e-05
1.83897e-05
2.33027e-06
-6.04714e-19
3.85134e-25
1.56896e-10
9.60782e-10
1.0201e-09
1.07605e-09
1.88384e-05
2.89418e-05
2.68992e-05
3.26888e-06
9.06114e-06
5.16872e-06
1.79446e-06
9.42358e-07
8.24307e-06
3.81871e-05
3.61668e-05
9.75046e-06
5.46634e-07
2.45544e-05
2.15743e-05
1.70297e-10
1.83963e-10
2.42544e-06
5.69701e-06
2.46334e-05
1.40362e-05
5.83971e-06
4.09004e-06
5.14413e-06
5.71581e-06
2.24311e-06
2.52554e-06
3.12881e-05
3.85113e-05
2.96402e-06
7.70886e-08
1.74036e-07
3.78733e-05
3.79115e-05
2.77857e-05
8.86188e-06
7.18032e-06
2.17506e-05
4.07757e-05
3.70631e-05
1.76635e-05
1.2548e-05
2.93751e-05
3.02153e-05
2.73121e-05
2.73164e-05
1.98854e-05
6.90955e-06
1.01528e-06
7.72969e-08
7.60032e-08
1.69874e-05
2.6678e-05
3.33364e-05
2.32291e-05
7.84744e-06
1.73631e-05
4.08775e-05
4.22933e-05
4.22999e-05
4.17356e-05
4.0443e-05
3.02414e-05
1.96896e-05
4.43542e-06
9.82809e-08
9.85278e-08
5.20377e-07
3.32698e-07
7.57748e-08
6.03031e-08
1.57278e-06
1.77504e-05
2.00653e-05
4.13119e-06
4.5702e-06
8.8217e-06
1.64341e-05
1.06278e-05
7.89574e-06
6.52246e-06
2.8796e-06
8.4635e-07
4.55694e-07
1.93056e-07
1.00691e-07
1.82114e-07
4.28963e-07
7.75655e-08
6.26499e-08
5.86338e-07
2.63025e-07
6.41054e-06
3.82781e-07
1.12426e-06
3.84771e-06
3.91666e-06
3.30456e-06
1.54621e-06
1.01391e-07
1.04276e-09
1.04276e-09
1.14802e-07
4.56295e-07
5.42875e-07
3.53138e-07
3.56359e-07
8.55712e-08
8.46715e-08
6.84111e-07
1.40036e-07
2.26473e-08
2.24383e-08
5.07471e-07
8.85323e-07
6.74137e-07
5.52992e-07
3.33602e-07
5.68386e-08
1.04279e-09
1.04276e-09
1.04276e-09
2.84333e-07
5.4329e-07
4.48959e-07
1.15649e-07
8.55248e-08
1.02346e-07
4.05541e-07
1.45106e-07
2.38595e-08
3.65457e-08
1.07486e-08
1.14017e-09
1.14168e-09
1.14028e-09
1.14174e-09
1.73408e-09
1.67796e-09
2.7542e-09
2.77762e-09
2.64965e-09
2.64771e-09
1.79927e-07
1.76346e-07
1.29716e-07
1.04158e-07
4.00821e-08
3.42637e-08
2.16412e-08
2.03605e-08
4.57654e-09
2.30745e-09
2.16351e-09
2.33756e-09
3.11347e-09
3.87431e-09
4.73468e-09
9.55683e-09
1.19556e-08
2.64356e-09
7.77863e-08
2.53071e-07
1.75599e-07
1.58431e-07
7.06746e-08
1.27736e-08
8.95916e-09
1.04112e-08
6.25963e-09
3.14037e-09
2.5061e-09
2.32474e-09
2.58054e-09
5.20994e-09
7.25246e-09
1.16488e-08
1.90298e-08
2.98817e-08
3.22726e-08
2.24307e-07
2.53038e-07
1.22422e-07
1.67364e-07
1.42274e-08
5.3651e-09
4.67348e-09
3.51457e-09
2.2808e-09
1.76546e-09
1.75418e-09
2.00235e-09
2.59005e-09
3.81013e-09
7.34723e-09
1.62493e-08
2.49702e-08
3.24374e-08
6.47236e-08
1.53283e-07
1.45218e-07
3.92998e-08
1.67406e-07
1.91558e-09
1.67727e-09
1.45587e-09
9.96736e-10
8.07761e-10
7.86802e-10
8.64942e-10
1.08238e-09
1.51437e-09
2.22643e-09
3.4647e-09
5.66656e-09
8.6442e-09
1.13218e-08
3.80754e-08
6.84295e-08
2.8427e-08
3.09537e-09
1.33664e-07
4.50769e-10
4.28124e-10
3.59093e-10
3.06564e-10
3.03983e-10
3.34748e-10
4.0517e-10
5.49458e-10
8.206e-10
1.30155e-09
2.15658e-09
3.25483e-09
4.57076e-09
6.35688e-09
1.21279e-08
1.85405e-08
1.02422e-08
3.07858e-09
9.92481e-08
1.04091e-10
1.01524e-10
1.00397e-10
1.07398e-10
1.26388e-10
1.6256e-10
2.36139e-10
3.81842e-10
6.64372e-10
1.2344e-09
2.40549e-09
4.24621e-09
7.14043e-09
9.81538e-09
1.25024e-08
1.42214e-08
6.21135e-09
3.07914e-09
9.8504e-08
2.56689e-11
2.87279e-11
3.34535e-11
4.08695e-11
5.36745e-11
8.31184e-11
1.3435e-10
2.22287e-10
4.53658e-10
1.07653e-09
2.54263e-09
5.29658e-09
1.08231e-08
1.90899e-08
2.81175e-08
1.16364e-08
5.09898e-09
3.0786e-09
1.17658e-07
7.19238e-12
8.93032e-12
1.11296e-11
1.43713e-11
2.00482e-11
2.69122e-11
3.1024e-11
5.74386e-11
1.51764e-10
5.13226e-10
1.772e-09
5.38616e-09
1.25479e-08
2.97207e-08
3.96923e-08
4.38704e-08
6.07371e-09
1.79099e-08
1.22565e-07
2.09948e-12
2.60697e-12
3.24876e-12
4.21384e-12
5.5709e-12
4.28479e-12
4.78891e-12
1.18911e-11
3.97803e-11
1.58619e-10
7.06666e-10
3.45747e-09
1.24527e-08
2.94106e-08
4.97123e-08
4.97172e-08
2.09852e-08
1.80445e-08
1.22568e-07
5.16446e-13
6.54613e-13
7.54674e-13
9.10371e-13
1.1314e-12
9.84968e-13
9.68862e-13
3.12482e-12
1.26616e-11
5.89082e-11
3.08344e-10
2.32978e-09
9.66712e-09
2.52815e-08
4.67741e-08
4.74779e-08
2.83329e-08
8.09304e-08
1.14524e-07
1.27888e-13
1.4043e-13
1.48427e-13
1.6342e-13
1.94282e-13
2.37266e-13
3.33545e-13
1.17963e-12
5.34084e-12
2.60193e-11
1.23068e-10
6.88002e-10
6.40955e-09
1.5661e-08
3.63894e-08
4.24282e-08
2.76692e-08
1.1285e-07
1.09166e-07
3.02401e-14
3.02154e-14
3.02945e-14
3.43618e-14
4.80814e-14
8.58721e-14
2.04214e-13
6.64862e-13
2.66926e-12
1.24783e-11
5.34685e-11
2.82513e-10
3.137e-09
9.354e-09
2.07368e-08
2.49101e-08
3.13154e-08
1.12856e-07
1.09065e-07
7.23414e-15
6.70526e-15
7.06708e-15
9.45167e-15
1.75637e-14
4.45106e-14
1.39085e-13
4.80864e-13
1.70149e-12
6.68789e-12
2.70145e-11
9.79836e-11
6.50796e-10
3.41671e-09
8.92128e-09
1.99953e-08
4.12514e-08
8.232e-08
2.98215e-07
1.80689e-15
1.71193e-15
1.97118e-15
3.25617e-15
8.02447e-15
2.59105e-14
9.35506e-14
3.47636e-13
1.238e-12
4.4832e-12
1.74124e-11
6.89396e-11
4.88419e-10
1.40502e-09
3.29407e-09
1.005e-08
3.38035e-08
3.62123e-08
3.83359e-07
4.55843e-16
4.58009e-16
6.16944e-16
1.29263e-15
3.84762e-15
1.36414e-14
5.32627e-14
2.13082e-13
8.071e-13
3.07762e-12
1.10361e-11
4.35134e-11
2.40219e-10
1.15394e-09
2.22143e-09
4.89206e-09
1.13541e-08
2.49415e-08
3.83359e-07
1.1191e-16
1.21074e-16
1.91808e-16
4.77835e-16
1.59444e-15
6.0837e-15
2.47184e-14
1.02908e-13
4.09715e-13
1.64735e-12
6.53857e-12
2.70185e-11
1.1786e-10
7.49549e-10
2.52873e-09
3.60953e-09
5.23226e-09
2.40568e-08
3.83359e-07
2.49015e-17
2.81771e-17
4.99493e-17
1.39053e-16
5.1071e-16
2.06924e-15
8.74231e-15
3.74241e-14
1.55326e-13
6.33607e-13
2.53217e-12
1.13493e-11
4.98629e-11
2.59375e-10
1.77629e-09
3.93484e-09
5.54791e-09
2.5865e-08
2.21552e-07
4.79697e-18
5.14751e-18
9.60238e-18
3.01926e-17
1.24737e-16
5.63049e-16
2.61939e-15
1.22846e-14
5.70085e-14
2.67924e-13
1.22548e-12
5.51964e-12
2.41681e-11
1.09719e-10
5.92221e-10
2.86186e-09
6.0251e-09
2.32218e-08
7.20019e-08
7.60251e-19
7.26983e-19
1.12135e-18
3.35695e-18
1.56196e-17
8.13313e-17
4.19575e-16
2.14244e-15
1.09729e-14
5.86066e-14
3.09666e-13
1.66596e-12
8.3916e-12
4.44615e-11
2.40795e-10
1.16199e-09
3.73878e-09
7.33538e-09
1.80186e-10
9.19458e-20
7.54003e-20
8.86221e-20
1.92307e-19
8.17912e-19
4.86902e-18
2.93062e-17
1.65769e-16
8.77001e-16
4.66324e-15
2.72621e-14
1.72744e-13
1.1155e-12
7.54689e-12
5.45996e-11
3.24796e-10
9.05402e-10
5.23494e-10
1.64334e-10
)
;

boundaryField
{
    leftWall
    {
        type            zeroGradient;
    }
    rightWall
    {
        type            zeroGradient;
    }
    lowerWall
    {
        type            zeroGradient;
    }
    atmosphere
    {
        type            inletOutlet;
        inletValue      uniform 0;
        value           nonuniform List<scalar> 
46
(
8.12923e-08
1.40158e-08
5.47388e-09
0
0
0
0
0
0
0
0
0
0
0
0
0
0
0
0
5.73115e-16
4.64809e-16
8.80467e-17
7.35306e-18
2.15986e-19
1.47288e-19
1.31926e-19
1.12251e-19
9.19458e-20
7.54003e-20
8.86221e-20
1.92307e-19
8.17912e-19
4.86902e-18
2.93062e-17
1.65769e-16
8.77001e-16
4.66324e-15
2.72621e-14
1.72744e-13
1.1155e-12
7.54689e-12
5.45996e-11
3.24796e-10
9.05402e-10
5.23494e-10
1.64334e-10
)
;
    }
    defaultFaces
    {
        type            empty;
    }
}


// ************************************************************************* //
