/*--------------------------------*- C++ -*----------------------------------*\
| =========                 |                                                 |
| \\      /  F ield         | OpenFOAM: The Open Source CFD Toolbox           |
|  \\    /   O peration     | Version:  2312                                  |
|   \\  /    A nd           | Website:  www.openfoam.com                      |
|    \\/     M anipulation  |                                                 |
\*---------------------------------------------------------------------------*/
FoamFile
{
    version     2.0;
    format      ascii;
    arch        "LSB;label=32;scalar=64";
    class       volScalarField;
    location    "5.05";
    object      alpha.galistan;
}
// * * * * * * * * * * * * * * * * * * * * * * * * * * * * * * * * * * * * * //

dimensions      [0 0 0 0 0 0 0];

internalField   nonuniform List<scalar> 
2268
(
1
1
1
1
1
1
1
1
1
1
1
1
1
1
1
1
1
1
1
0.999992
0.999959
0.999958
0.999958
1
1
1
1
1
1
1
1
1
1
1
1
1
1
1
1
1
1
1
0.999999
0.99999
0.999977
0.99998
1
1
1
1
1
1
1
1
1
1
1
1
1
1
1
1
1
1
1
1
1
1
1
1
1
1
1
1
1
1
1
1
1
1
1
1
1
1
0.999999
1
1
1
1
1
1
1
1
0.999983
0.999845
0.999923
1
1
0.999998
0.999997
0.999999
0.99999
0.999986
0.999984
0.999965
0.999943
0.999953
0.999922
0.999432
0.996862
0.994702
0.994362
0.993184
0.994927
0.998903
0.87715
0.8833
0.896112
0.913245
0.933903
0.956158
0.97584
0.988957
0.991633
0.986996
0.980317
0.972376
0.957635
0.933887
0.903497
0.867357
0.824049
0.782994
0.755261
0.73421
0.714237
0.702961
0.69739
0.170087
0.175962
0.192236
0.216205
0.246787
0.284953
0.326683
0.362048
0.384331
0.387612
0.36612
0.327186
0.277401
0.223706
0.174175
0.132468
0.0998975
0.0786158
0.0605026
0.0445836
0.0357841
0.033905
0.0415118
-2.98518e-14
-3.2405e-12
2.70166e-20
7.48348e-20
-1.29238e-08
-1.84477e-08
-1.43283e-08
-3.14236e-14
-1.26035e-19
4.3724e-05
7.22206e-06
7.24603e-06
7.21505e-06
7.4274e-06
2.87524e-05
3.32676e-05
5.61634e-06
4.17596e-11
4.15089e-11
-1.36836e-25
-5.89967e-23
-5.80077e-26
4.89945e-25
0.960382
0.962733
0.962733
0.962734
0.960729
0.95925
0.959637
0.961523
0.962232
0.962234
0.962236
0.962238
0.964784
0.965524
0.965529
0.965679
0.965673
0.965875
0.965859
0.948045
0.929061
0.935575
0.942204
0.946335
0.945983
0.942697
0.942255
0.941709
0.943573
0.947347
0.953139
0.955412
0.954515
0.943318
0.937731
0.966687
0.967498
0.967528
0.574983
0.574029
0.578083
0.582451
0.591208
0.602836
0.614817
0.61626
0.614161
0.606683
0.608486
0.621936
0.615189
0.590866
0.546052
0.531745
0.591361
0.697656
0.738215
0.0123633
0.0166771
0.028773
0.0271022
0.0216478
0.0219218
0.0298566
0.0368638
0.0412255
0.0347039
0.0406673
0.0695606
0.13134
0.205436
0.282133
0.312984
0.315354
0.331199
0.447774
4.01173e-05
4.63155e-05
3.85249e-05
3.84425e-05
3.84555e-05
3.84425e-05
0.000582934
0.0047619
0.00523414
0.00416688
0.00401707
0.00401422
0.0045324
0.000982895
0.0109048
0.0107171
0.0092039
0.00909758
0.0189525
4.01173e-05
4.01173e-05
6.30496e-05
0.000161172
0.000191467
0.000143484
0.00128737
0.00666662
0.00814321
0.0183135
0.0124039
0.00737006
0.00421811
0.000983697
0.000129837
0.00660016
0.0104645
0.0103931
0.00144199
0.0013283
0.00131521
0.000628296
0.00039792
0.000520826
0.000199882
0.000976368
0.00221073
0.00525855
0.0225208
0.0226299
0.0145159
1.56831e-07
0.000192685
0.000133024
0.00273172
0.00546687
0.0106323
0.00144199
0.012813
0.00976674
0.00117568
0.000622838
0.000586101
0.000932486
0.000417
0.000284056
0.000156189
0.0126517
0.0226332
1.73516e-07
1.59397e-07
8.24799e-06
3.96094e-05
3.82012e-05
0.00180019
0.00844034
0.00234587
3.48524e-09
1.92502e-08
1.99608e-12
9.11535e-15
7.28904e-06
1.88294e-05
2.78131e-05
4.62187e-05
5.6523e-05
4.72001e-05
1.72859e-05
7.26053e-06
1.24476e-05
1.14857e-05
3.24881e-05
7.36064e-05
7.39122e-05
2.82459e-05
1.44277e-05
1.09981e-05
7.88832e-05
0.000100218
2.76113e-05
0.000397765
0.000109316
0.000207693
0.000712886
0.00154787
0.0016856
0.00128106
0.000373653
6.5826e-06
6.56021e-06
2.22792e-05
2.37067e-05
3.05018e-05
4.46094e-05
2.66291e-05
1.47031e-05
8.31524e-06
8.35388e-06
0.000616818
0.00148829
0.00158272
0.00113271
0.000509647
0.000552135
0.000251891
0.000390161
0.00206129
0.00240174
0.00240245
0.00240239
0.00162592
0.000162457
0.000377425
0.00088139
0.000789847
0.000543514
0.000979064
0.00229435
0.00285576
0.00220271
0.00222295
0.00520931
0.00561988
0.00561988
0.00561987
0.00449365
0.00053208
0.000278583
0.00022482
0.000585805
0.00198617
0.00239986
0.00175393
0.000675117
0.000272162
0.00130262
0.00134933
0.00119313
0.000633757
0.00114107
0.0040006
0.00544432
0.00542494
0.00561977
0.00561988
0.00561988
0.00561932
0.00522737
0.00289832
3.84645e-05
0.000271966
0.000132199
4.22559e-05
2.87337e-05
2.87057e-05
4.78518e-05
0.000681412
0.000709735
0.000646369
0.000569383
0.000269322
7.27717e-05
0.000199743
0.000346347
0.00029358
0.000123712
0.00130672
0.00410406
0.00317422
0.00100111
0.000514818
0.000450587
3.8472e-05
0.000135148
4.00845e-05
2.87863e-05
2.87605e-05
2.95727e-05
0.000186546
0.000474712
0.000264568
0.000153782
8.78528e-05
4.77573e-05
4.38218e-05
5.60718e-06
2.2408e-06
2.85853e-05
0.000122743
0.000138237
2.03748e-05
0.00129196
0.000603384
0.000227717
0.000223347
9.14556e-05
3.27525e-05
3.16789e-05
2.88107e-05
2.88132e-05
3.70851e-05
6.45473e-05
7.33935e-05
6.04183e-05
2.42487e-05
3.98991e-06
3.37085e-06
3.38355e-06
3.40217e-06
2.25548e-06
1.23411e-05
5.14707e-05
3.10662e-05
2.09824e-05
0.00131262
0.00194548
0.000497565
0.000290758
0.000364036
0.000189935
0.000100182
4.10088e-05
0.000116697
0.000389094
0.000550092
0.000525126
0.000470694
0.00044704
0.000398801
0.000262912
0.000128891
6.54801e-05
9.13854e-05
0.000198502
0.000215783
9.03478e-05
2.06007e-05
0.000563729
0.00256023
0.00188234
0.000296699
0.00051658
0.000516805
0.000422473
0.000175614
0.000258297
0.000761961
0.000857956
0.000857061
0.000839416
0.000841379
0.000827504
0.000615872
0.000308318
7.08265e-05
0.000170409
0.000457261
0.000459206
0.000460508
0.000103282
4.34046e-05
0.00230146
0.00346936
0.00280043
0.000291033
0.000261599
0.000196124
0.000132814
0.000111156
8.68486e-05
0.000147409
0.000125065
7.85214e-05
5.94584e-05
3.55251e-05
5.25861e-05
7.17504e-05
2.68616e-05
3.43864e-05
7.11558e-05
0.000219741
0.000375374
0.000285104
4.33865e-05
0.000750479
0.00345302
0.00358767
3.90714e-10
1.63607e-09
5.52966e-14
3.18747e-14
9.68195e-15
9.70539e-15
9.68195e-15
9.74246e-15
1.00105e-24
-1.42664e-09
-6.62899e-26
1.45509e-25
-1.13195e-24
-1.59273e-09
-1.07584e-09
-5.65136e-10
-4.75673e-12
1.11514e-05
0.00016489
0.000168695
4.79217e-05
0.000488207
0.00169758
4.46265e-09
2.241e-08
7.29822e-08
1.00112e-07
8.09625e-08
5.69681e-08
2.8084e-08
3.85426e-08
9.58911e-08
2.49721e-07
2.0408e-07
1.05024e-07
2.34087e-07
6.58028e-07
6.98043e-07
6.96843e-07
2.07545e-07
-6.74816e-24
7.73811e-06
2.90751e-05
1.41531e-05
6.2142e-09
3.57986e-07
6.73739e-09
6.70145e-08
2.08986e-07
2.20943e-07
1.38132e-07
9.76586e-08
7.28131e-08
8.67402e-08
2.73502e-07
2.74776e-07
5.73498e-08
5.54418e-09
4.34329e-09
4.57303e-09
1.55578e-07
6.9699e-07
2.32166e-07
-3.45968e-25
5.16231e-08
1.31801e-06
4.19875e-07
8.6461e-09
-2.02316e-25
6.81858e-09
8.02577e-08
2.08615e-07
2.07605e-07
1.04093e-07
6.31572e-08
5.64429e-08
6.78103e-08
1.139e-07
7.37168e-08
4.26461e-09
4.26526e-09
8.94022e-09
1.46181e-07
4.42342e-07
3.93934e-07
1.65846e-07
-4.8123e-27
5.68653e-26
4.13158e-14
-1.1013e-22
7.71434e-11
-5.57948e-13
2.68284e-09
4.03897e-08
1.0144e-07
3.67378e-08
1.78811e-08
1.06302e-08
2.04433e-09
2.04296e-09
2.04474e-09
2.04348e-09
5.64563e-09
6.57532e-09
1.18435e-08
1.00821e-07
3.26395e-07
2.47336e-07
1.84378e-07
2.29853e-08
2.91258e-08
1.41511e-09
-1.02571e-19
-1.03217e-26
3.49248e-08
1.80948e-09
8.31675e-09
4.53206e-09
9.61976e-09
1.20121e-08
1.13185e-08
2.88355e-09
2.04479e-09
2.04457e-09
2.5313e-09
6.83692e-09
6.86928e-09
4.68336e-09
3.15329e-09
3.57056e-08
1.23439e-07
6.14106e-08
3.0469e-07
5.5797e-07
1.18164e-06
1.2882e-06
1.11858e-06
1.62695e-06
1.41024e-09
2.98867e-09
4.33185e-09
5.64362e-09
6.08632e-09
7.27588e-09
6.01633e-09
2.64155e-09
2.16296e-09
2.43318e-09
2.5694e-09
3.0533e-09
3.2411e-09
3.119e-09
2.71258e-09
2.72882e-09
2.74628e-09
2.15916e-07
1.13196e-06
1.4695e-06
1.46886e-06
1.45271e-06
1.25682e-06
1.12295e-09
1.5714e-09
2.8369e-09
3.51859e-09
3.8914e-09
3.90067e-09
4.5716e-09
2.82807e-09
2.07874e-09
2.05642e-09
2.03472e-09
2.17057e-09
2.53516e-09
2.84572e-09
2.69613e-09
2.73314e-09
3.5674e-09
2.584e-08
1.90569e-07
7.00277e-07
7.88823e-07
2.21569e-07
9.02061e-08
9.13227e-10
1.36849e-09
1.85983e-09
2.11e-09
2.35276e-09
1.96124e-09
1.72851e-09
1.66335e-09
1.51023e-09
1.46717e-09
1.34328e-09
1.29075e-09
1.46204e-09
1.79164e-09
2.31501e-09
2.72909e-09
2.76781e-09
2.09591e-09
1.20807e-09
5.26409e-09
3.53199e-08
3.39716e-08
3.40063e-08
7.75322e-10
9.44665e-10
1.31094e-09
1.49629e-09
1.54518e-09
1.42685e-09
1.18828e-09
1.07543e-09
9.92944e-10
9.15763e-10
8.40224e-10
7.36425e-10
6.72505e-10
8.01419e-10
1.08667e-09
1.42943e-09
1.62507e-09
1.3854e-09
6.97731e-10
8.36176e-10
9.65331e-08
2.04003e-07
1.32365e-07
6.81759e-10
6.49598e-10
8.01392e-10
8.75504e-10
8.79759e-10
8.13992e-10
7.18597e-10
6.3011e-10
5.52349e-10
4.83033e-10
4.20446e-10
3.62682e-10
3.4334e-10
3.75491e-10
4.66212e-10
6.10299e-10
7.59988e-10
8.01223e-10
6.28418e-10
5.40451e-09
5.94239e-08
2.15824e-07
2.13551e-07
6.28057e-10
4.74555e-10
5.35359e-10
5.31991e-10
4.99128e-10
4.30201e-10
3.59326e-10
3.00724e-10
2.53361e-10
2.14355e-10
1.83544e-10
1.56517e-10
1.42911e-10
1.50546e-10
1.81082e-10
2.38482e-10
3.22054e-10
4.20323e-10
4.97633e-10
1.00395e-09
8.93859e-09
7.91563e-08
2.12917e-07
5.70481e-10
3.28226e-10
3.33987e-10
3.12071e-10
2.7683e-10
2.28096e-10
1.77462e-10
1.37121e-10
1.05516e-10
8.18221e-11
6.51568e-11
5.4987e-11
4.97756e-11
5.19916e-11
6.27862e-11
8.50798e-11
1.23905e-10
1.90155e-10
2.97401e-10
6.53024e-10
2.06397e-09
5.76113e-09
4.77352e-08
5.2974e-10
2.41382e-10
2.29195e-10
2.05244e-10
1.70064e-10
1.33158e-10
9.82906e-11
6.96022e-11
4.66956e-11
3.15278e-11
2.16664e-11
1.62131e-11
1.39607e-11
1.41848e-11
1.7261e-11
2.41698e-11
3.74187e-11
5.97195e-11
1.12165e-10
2.54889e-10
6.85923e-10
2.54628e-09
2.81593e-09
4.92362e-10
1.73918e-10
1.60633e-10
1.51815e-10
1.37079e-10
1.13903e-10
8.51109e-11
5.72146e-11
3.54299e-11
2.07963e-11
1.19482e-11
6.94744e-12
4.55996e-12
3.88594e-12
4.44392e-12
6.26293e-12
9.58816e-12
1.67286e-11
2.99173e-11
6.73883e-11
1.99103e-10
5.41823e-10
1.47067e-09
4.63504e-10
1.30573e-10
1.30706e-10
1.48224e-10
1.5516e-10
1.39459e-10
1.04705e-10
6.89327e-11
4.17781e-11
2.38757e-11
1.27054e-11
6.3213e-12
3.09219e-12
1.68547e-12
1.32519e-12
1.62207e-12
2.51943e-12
4.23272e-12
7.35898e-12
1.45979e-11
3.68827e-11
1.34825e-10
2.8528e-10
4.42228e-10
1.09521e-10
1.33757e-10
1.87593e-10
2.15941e-10
1.97065e-10
1.37817e-10
8.72306e-11
5.19266e-11
2.9848e-11
1.59703e-11
7.91916e-12
3.63389e-12
1.5624e-12
7.40114e-13
5.3388e-13
6.81641e-13
1.10897e-12
1.85133e-12
3.29687e-12
6.75863e-12
1.86172e-11
5.94811e-11
4.12634e-10
1.08266e-10
1.6641e-10
2.5148e-10
3.0233e-10
2.73818e-10
1.74943e-10
1.02597e-10
5.90009e-11
3.42193e-11
1.86615e-11
9.48961e-12
4.45563e-12
1.89724e-12
7.4457e-13
3.16928e-13
2.30788e-13
3.12277e-13
5.15145e-13
8.44069e-13
1.39913e-12
3.50674e-12
6.89216e-12
4.01826e-10
1.2346e-10
2.27753e-10
3.76184e-10
5.03185e-10
4.11682e-10
2.04479e-10
1.07586e-10
6.0874e-11
3.5123e-11
1.95534e-11
1.02395e-11
4.97645e-12
2.19596e-12
8.65737e-13
3.13882e-13
1.28223e-13
1.03557e-13
1.53629e-13
2.60019e-13
4.3088e-13
6.66985e-13
1.56142e-12
3.9983e-10
1.51362e-10
3.3175e-10
6.29026e-10
8.03647e-10
5.58815e-10
2.5265e-10
9.973e-11
5.63581e-11
3.25816e-11
1.82511e-11
9.77639e-12
4.95128e-12
2.30759e-12
9.58258e-13
3.50627e-13
1.15602e-13
4.86822e-14
4.96316e-14
8.13709e-14
1.34567e-13
2.88051e-13
4.27368e-13
4.10133e-10
1.9492e-10
4.97921e-10
9.20569e-10
9.7573e-10
6.69215e-10
2.75882e-10
9.91639e-11
5.36729e-11
2.82872e-11
1.54087e-11
8.32626e-12
4.38077e-12
2.15916e-12
9.65346e-13
3.72073e-13
1.21768e-13
3.78042e-14
2.16765e-14
3.29446e-14
6.23558e-14
1.08384e-13
2.29628e-13
4.17544e-10
2.23927e-10
7.26045e-10
1.14571e-09
1.10191e-09
6.89015e-10
2.63936e-10
1.11162e-10
5.17764e-11
2.35843e-11
1.20302e-11
6.45475e-12
3.46128e-12
1.77186e-12
8.56973e-13
3.58247e-13
1.24528e-13
3.66225e-14
1.1963e-14
1.35204e-14
2.73835e-14
7.42371e-14
1.26411e-13
4.38493e-10
2.99444e-10
9.34444e-10
1.26515e-09
1.15395e-09
6.38708e-10
2.69421e-10
1.3917e-10
4.77227e-11
1.89197e-11
8.63287e-12
4.56466e-12
2.4868e-12
1.3245e-12
6.70329e-13
3.06336e-13
1.17414e-13
3.66286e-14
9.25744e-15
6.61931e-15
1.47001e-14
3.11865e-14
9.07816e-14
4.58317e-10
3.67418e-10
1.0787e-09
1.30201e-09
1.13771e-09
5.90066e-10
3.25596e-10
1.53362e-10
4.47461e-11
1.44957e-11
6.1615e-12
3.10371e-12
1.65511e-12
8.72214e-13
4.55818e-13
2.2794e-13
9.84217e-14
3.31381e-14
8.70976e-15
3.5695e-15
6.29116e-15
2.27734e-14
4.80708e-14
4.95276e-10
4.3724e-10
1.16468e-09
1.28374e-09
9.90627e-10
5.91985e-10
3.75882e-10
1.5824e-10
4.44847e-11
1.16496e-11
4.1375e-12
1.98256e-12
1.01644e-12
5.17061e-13
2.69317e-13
1.43976e-13
7.07801e-14
2.74029e-14
7.75582e-15
2.1106e-15
2.75426e-15
7.48697e-15
2.60864e-14
5.20114e-10
4.88896e-10
1.1414e-09
1.23954e-09
8.6382e-10
6.07526e-10
4.03679e-10
1.70674e-10
4.77256e-11
9.74574e-12
2.66552e-12
1.18931e-12
5.86043e-13
2.79704e-13
1.38343e-13
7.59032e-14
4.22912e-14
1.96211e-14
6.38439e-15
1.41023e-15
1.30147e-15
4.03186e-15
1.07538e-14
5.70848e-10
4.83505e-10
1.09047e-09
1.15644e-09
7.90901e-10
6.06219e-10
3.97349e-10
1.76009e-10
4.80606e-11
7.71329e-12
1.6411e-12
6.64966e-13
3.16957e-13
1.40571e-13
6.28065e-14
3.2714e-14
1.97519e-14
1.11626e-14
4.5415e-15
9.85645e-16
4.55726e-16
9.74185e-16
4.32899e-15
6.11519e-10
4.51219e-10
1.04817e-09
1.07246e-09
6.75698e-10
5.92703e-10
3.7266e-10
1.49758e-10
3.98671e-11
6.65698e-12
9.51396e-13
3.35312e-13
1.57496e-13
6.62887e-14
2.60386e-14
1.17066e-14
6.89737e-15
4.54922e-15
2.50977e-15
7.00243e-16
2.01355e-16
3.51231e-16
1.10668e-15
7.09366e-10
3.93867e-10
9.35396e-10
8.58638e-10
6.39474e-10
5.67747e-10
3.22286e-10
1.20728e-10
2.99472e-11
4.42775e-12
4.63331e-13
1.40115e-13
6.87481e-14
2.82536e-14
9.86176e-15
3.4992e-15
1.76539e-15
1.2744e-15
9.7372e-16
4.0258e-16
9.03057e-17
6.19738e-17
2.55151e-16
8.16021e-10
3.71304e-10
7.36026e-10
6.00419e-10
6.37928e-10
5.00535e-10
2.33709e-10
7.53846e-11
1.68378e-11
2.07362e-12
1.72337e-13
4.63625e-14
2.39968e-14
1.00909e-14
3.2952e-15
9.43522e-16
3.39067e-16
2.28175e-16
2.37224e-16
1.69271e-16
3.81954e-17
2.06704e-17
5.12687e-17
9.67204e-10
3.72648e-10
5.09515e-10
5.60698e-10
6.223e-10
3.63994e-10
1.33514e-10
3.4575e-11
5.27247e-12
4.75921e-13
3.12358e-14
9.72626e-15
5.71858e-15
2.55607e-15
8.24716e-16
2.00532e-16
4.73895e-17
2.57463e-17
3.70666e-17
5.16446e-17
1.75387e-17
5.458e-18
9.86935e-18
1.16783e-09
4.57334e-10
4.91265e-10
5.95567e-10
3.66565e-10
1.25521e-10
3.73961e-11
6.30886e-12
5.62075e-13
2.50878e-14
1.84338e-15
9.84029e-16
6.84642e-16
3.36753e-16
1.13451e-16
2.45985e-17
4.08901e-18
1.79883e-18
4.2812e-18
1.11524e-17
7.30247e-18
1.96866e-18
1.8599e-18
6.85111e-07
2.34395e-07
1.59179e-07
0.00281817
0.000468016
0.000482557
0.000324741
0.000200284
0.00102443
0.0001579
0.000157867
0.000579686
0.000423216
0.000605954
0.00221575
0.00677491
0.000290728
0.000830089
0.00208117
0.0029854
0.000221756
0.00062448
0.000758627
0.000760688
0.000147358
0.000144114
0.000161284
0.000125272
0.000257318
0.000161592
8.27153e-05
8.12943e-05
0.00119615
0.00029746
0.000233739
0.00011623
0.00358646
0.00300079
0.00045525
0.000143069
0.00272283
0.00225517
0.000506079
6.1043e-05
3.23809e-05
0.000199238
0.000362571
7.42152e-05
8.789e-19
-8.79248e-19
6.24396e-05
1.7964e-05
7.74774e-25
1.91918e-07
1.74652e-07
1.79957e-06
1.28803e-06
1.5664e-06
1.17052e-07
8.00808e-08
1.65009e-06
1.63735e-06
6.33471e-07
6.73047e-07
1.57713e-06
1.50466e-06
2.32007e-06
5.44572e-06
1.46914e-06
2.02499e-06
5.44572e-06
5.43765e-06
9.13267e-08
1.95476e-06
4.9318e-06
2.36215e-06
8.07269e-08
4.10212e-07
3.89452e-07
5.29331e-08
1.91839e-07
1.05189e-07
9.67205e-08
3.47458e-08
2.19784e-07
2.09753e-07
9.44758e-08
6.13825e-08
1.04901e-07
1.06541e-07
9.14541e-08
7.25309e-08
1.24972e-08
3.90676e-08
4.0259e-08
4.9713e-08
2.06614e-09
3.06435e-09
1.61299e-08
1.68067e-08
5.93956e-10
1.11821e-09
2.82456e-09
3.73482e-09
8.95355e-11
1.38541e-10
4.43463e-10
5.89566e-10
1.31908e-11
1.86612e-11
4.49749e-11
6.81554e-11
1.95638e-12
2.18832e-12
5.34196e-12
7.25097e-12
6.81891e-13
8.59779e-13
1.12894e-12
1.55473e-12
3.38836e-13
4.43606e-13
6.44072e-13
7.94533e-13
2.32416e-13
3.37453e-13
4.3623e-13
5.87511e-13
1.52582e-13
2.11322e-13
3.21788e-13
4.04049e-13
1.05101e-13
1.45811e-13
2.096e-13
3.14435e-13
5.08525e-14
7.26896e-14
1.23712e-13
1.61435e-13
2.43239e-14
3.70757e-14
5.66257e-14
9.7317e-14
8.7021e-15
1.30438e-14
2.50719e-14
3.71665e-14
2.6291e-15
4.05232e-15
6.33066e-15
1.26267e-14
5.4339e-16
7.11533e-16
1.54807e-15
2.51792e-15
1.03042e-16
1.53418e-16
2.13673e-16
4.61873e-16
1.74501e-17
1.89796e-17
3.35082e-17
5.35574e-17
2.61251e-18
2.63186e-18
3.39348e-18
4.1417e-18
0.0112859
0.0132417
0.00398341
0.000944371
0.000588227
0.00124066
0.00063763
0.000177139
0.000157511
0.00631556
0.019548
1.04591e-05
1.52511e-07
1.46681e-07
2.23746e-07
0.000681784
0.00267204
0.0026332
0.00566146
0.000790633
0.00267422
0.00443528
0.00531697
0.00435855
0.00172956
0.00017811
0.000176813
0.0133047
0.0230198
0.0207363
0.00315712
0.00242084
0.00206688
0.00151546
0.00355223
0.00340331
0.00263227
0.00460408
0.00791093
0.00998588
0.00998535
0.00967944
0.00457049
0.00806311
0.0111013
0.0129615
0.0230198
0.0230382
0.0230198
0.0203165
0.0139444
0.0116453
0.00521045
0.00358771
0.00428122
0.00501561
0.00604798
0.00998613
0.00998643
0.00977435
0.00319706
0.0017669
0.00369558
0.00453952
0.00670777
0.0182292
0.0230205
0.0230449
0.00998156
0.00234268
0.00190631
0.00228729
0.00363398
0.00668404
0.00724496
0.0072477
0.00706884
0.00998621
0.0028924
0.000435017
0.000739588
0.00118728
0.00103794
0.00096523
0.0017229
0.00531491
0.00445582
0.000590142
0.000767238
0.000710282
0.00165395
0.00167276
0.00169982
0.00193819
0.0046286
0.00139277
0.00404587
0.000626588
0.000153372
0.000174024
0.000249911
0.000336902
0.000404363
0.0004041
0.000141094
7.01985e-05
7.01515e-05
7.04504e-05
9.24682e-05
0.000122968
0.000214941
0.000315506
0.00160581
0.00722479
0.000116861
0.000135181
0.000201579
0.00019474
7.50477e-05
7.49482e-05
0.000283133
0.00241445
0.00340669
0.00271122
0.000738822
0.000664433
0.00139709
0.00194166
0.00258171
0.00200631
0.00245724
0.00676563
0.00722685
0.000138182
0.000195941
0.0003019
0.000300848
7.50145e-05
7.49816e-05
0.00135282
0.00340671
0.00340647
0.00289055
0.00260217
0.00272728
0.00352672
0.00385055
0.00384018
0.00295503
0.0043793
0.00571514
0.00714251
0.000210369
0.00026305
0.000302923
0.000219105
0.000191139
0.000197804
0.000203425
4.53908e-05
2.41928e-05
4.58345e-06
1.28328e-07
1.98338e-13
5.38438e-11
0.000102244
0.000145108
0.000230301
0.000140125
0.000204825
0.000402646
0.00012816
0.000102683
5.52488e-05
9.29802e-06
2.9154e-05
1.49532e-06
2.51466e-08
3.11717e-08
2.4089e-07
1.86968e-07
3.54128e-07
1.34369e-07
4.4204e-10
1.07198e-24
-1.32921e-10
3.00456e-16
4.16458e-25
8.82721e-33
2.81069e-13
3.25968e-05
4.0841e-06
2.31658e-06
6.07384e-07
7.64861e-07
6.4742e-07
5.1753e-06
5.64507e-06
5.36747e-06
2.62269e-06
3.08647e-08
1.34133e-13
5.68228e-07
7.84779e-07
5.24797e-08
3.31704e-09
9.88925e-14
-2.27867e-20
2.24889e-07
4.78074e-06
7.33739e-10
5.70823e-10
7.39263e-10
1.42651e-08
3.67076e-06
6.9534e-06
6.76903e-06
6.81003e-06
1.43174e-06
1.26639e-11
1.45531e-13
2.76649e-07
3.65109e-07
7.07085e-08
7.19468e-08
1.1207e-06
9.18108e-07
7.29723e-07
1.65399e-06
6.07968e-10
7.40997e-10
5.00516e-09
2.56364e-09
6.38639e-07
6.86592e-06
5.72375e-06
1.81208e-06
3.7334e-08
4.40912e-10
1.79966e-08
5.17303e-07
4.01678e-07
7.41477e-08
5.55676e-07
3.28163e-06
2.59581e-06
8.08543e-07
4.02321e-07
2.47628e-09
2.37551e-09
8.54944e-09
2.55058e-09
5.60764e-07
1.17424e-06
5.7913e-07
1.3389e-06
4.38026e-09
1.10029e-06
2.65718e-06
2.65928e-06
8.8766e-07
1.02844e-07
1.53086e-06
3.27944e-06
3.14349e-06
6.13942e-07
-2.7297e-24
-1.19034e-11
-2.94656e-11
3.18507e-09
2.56254e-09
1.3084e-06
4.7074e-07
1.03505e-07
1.05634e-06
5.68048e-07
1.76777e-06
1.80667e-06
1.68701e-06
3.13125e-07
1.01573e-07
2.15106e-06
2.6721e-06
3.27324e-06
6.06354e-07
2.37801e-06
3.02063e-06
1.15183e-07
3.09471e-09
2.84471e-06
1.61772e-06
1.3483e-08
1.03737e-07
6.15146e-07
1.11106e-06
4.02665e-07
2.34733e-07
1.38128e-07
1.38394e-07
1.00745e-06
2.15727e-06
1.2072e-07
2.44625e-06
1.23096e-07
5.43546e-06
5.43931e-06
4.85156e-06
6.9241e-07
3.98516e-06
6.45364e-07
1.07731e-08
1.34581e-07
1.0537e-06
1.76089e-06
1.76077e-06
1.55397e-06
1.08739e-06
1.15719e-06
1.87443e-06
1.266e-06
1.20753e-07
5.44562e-08
9.81277e-08
3.57325e-06
4.42831e-06
4.78274e-06
2.56529e-06
4.21934e-06
5.72857e-07
1.06148e-08
5.04127e-08
2.34134e-07
4.27842e-07
6.66252e-07
7.45001e-07
1.56866e-06
1.74309e-06
1.70067e-06
5.2135e-07
2.81323e-08
6.70997e-08
1.18751e-06
3.06756e-08
2.5465e-07
8.35133e-07
2.30094e-06
4.22042e-06
1.50492e-06
3.11628e-07
2.03649e-07
3.65285e-07
4.87578e-07
2.51306e-07
1.27042e-07
1.20211e-07
1.90615e-07
1.35995e-08
3.95621e-08
2.20672e-08
9.44565e-08
1.74567e-06
3.06756e-08
3.06756e-08
2.23773e-07
1.33224e-06
6.97789e-07
1.15551e-06
1.1452e-06
1.05886e-06
8.11027e-07
6.65678e-07
6.23451e-07
2.24026e-07
1.50822e-07
3.03337e-08
1.37822e-08
5.069e-09
5.05808e-09
5.07464e-09
9.70896e-07
3.07512e-08
4.77763e-08
1.71299e-07
5.57633e-09
1.51817e-09
1.55664e-07
5.56709e-07
5.0293e-07
3.40561e-07
1.39621e-07
2.4929e-08
2.13811e-09
3.56581e-08
8.7364e-08
8.7483e-08
2.68059e-08
5.04226e-09
1.41437e-08
2.21361e-08
5.03336e-08
2.95112e-08
2.25264e-08
3.02433e-09
1.50426e-09
1.24849e-09
1.77213e-09
8.46799e-10
8.45883e-10
8.46451e-10
8.48382e-10
8.52327e-10
8.544e-10
8.64741e-10
1.53776e-09
5.34658e-09
5.02775e-09
1.70976e-08
5.71722e-08
4.46071e-08
1.43761e-08
2.47312e-09
2.95495e-09
2.10896e-09
1.25885e-09
1.02181e-09
9.32336e-10
8.75469e-10
8.56088e-10
8.83112e-10
9.02823e-10
9.04527e-10
9.30874e-10
1.09779e-09
1.50098e-09
1.66872e-09
1.11432e-08
5.76442e-08
2.47805e-08
5.43683e-09
1.81491e-09
2.02777e-09
1.49942e-09
1.03138e-09
7.72788e-10
6.44721e-10
5.94356e-10
6.58675e-10
7.89546e-10
1.04637e-09
1.3972e-09
1.97731e-09
3.06774e-09
3.01828e-09
1.71736e-09
1.14707e-08
5.76632e-08
6.43377e-09
1.50966e-09
9.8345e-10
8.46152e-10
6.10341e-10
4.27002e-10
3.32079e-10
3.06174e-10
3.41061e-10
4.35991e-10
6.43096e-10
1.0279e-09
1.52799e-09
2.30042e-09
3.23528e-09
2.9015e-09
1.72216e-09
1.81046e-08
3.32838e-08
9.7336e-10
4.25038e-10
3.09968e-10
2.32364e-10
1.67423e-10
1.30372e-10
1.21494e-10
1.36537e-10
1.77114e-10
2.54445e-10
3.93883e-10
6.33747e-10
9.6045e-10
1.42809e-09
2.51219e-09
2.03672e-09
3.08877e-09
2.11464e-08
1.30344e-08
1.77405e-10
9.79246e-11
7.02034e-11
5.59625e-11
4.76678e-11
4.77783e-11
5.69194e-11
7.71196e-11
1.15767e-10
1.89465e-10
3.30234e-10
5.59167e-10
9.16233e-10
1.42602e-09
2.26155e-09
1.69884e-09
2.25313e-09
2.11097e-08
1.27236e-08
2.96379e-11
1.90846e-11
1.65073e-11
1.6716e-11
1.92512e-11
2.49697e-11
3.60451e-11
5.67194e-11
9.6119e-11
1.76168e-10
3.44503e-10
6.65e-10
1.17797e-09
1.94159e-09
2.26797e-09
1.58744e-09
1.53885e-09
1.21616e-08
1.19784e-08
5.29236e-12
5.00548e-12
5.88085e-12
7.57188e-12
1.04858e-11
1.59531e-11
2.48289e-11
3.95892e-11
7.31986e-11
1.57537e-10
3.53246e-10
7.37237e-10
1.41114e-09
2.6435e-09
1.88214e-09
1.31133e-09
1.31115e-09
1.67843e-08
1.04445e-08
1.69547e-12
2.25842e-12
3.19594e-12
4.65226e-12
7.04936e-12
1.05877e-11
1.58263e-11
2.60554e-11
4.75851e-11
1.07597e-10
2.90603e-10
7.53803e-10
1.51644e-09
2.86224e-09
1.33576e-09
1.31113e-09
5.00666e-08
5.32524e-08
9.81701e-09
1.01272e-12
1.53509e-12
2.35938e-12
3.67622e-12
5.83738e-12
9.16051e-12
1.49884e-11
2.49438e-11
4.25413e-11
8.025e-11
2.04205e-10
6.33516e-10
1.57726e-09
2.78955e-09
2.00369e-09
2.64585e-08
6.69988e-08
5.55156e-08
9.33091e-09
7.27534e-13
1.2683e-12
2.02728e-12
3.36614e-12
5.6964e-12
9.63922e-12
1.64506e-11
2.77496e-11
4.58295e-11
7.90178e-11
1.67881e-10
5.90261e-10
1.62509e-09
2.90792e-09
7.5789e-09
5.63603e-08
6.70031e-08
3.80748e-08
7.87346e-09
6.03762e-13
1.01602e-12
1.77263e-12
3.14128e-12
5.65201e-12
1.02707e-11
1.84072e-11
3.18894e-11
5.21966e-11
8.17545e-11
1.38898e-10
3.91235e-10
2.02403e-09
3.38158e-09
8.12739e-09
5.11514e-08
6.7e-08
2.05941e-08
6.37746e-09
4.08095e-13
7.85953e-13
1.44516e-12
2.77215e-12
5.41751e-12
1.05611e-11
2.00526e-11
3.5775e-11
5.86305e-11
8.8794e-11
1.2451e-10
2.42376e-10
2.15885e-09
5.93194e-09
6.84691e-09
1.15891e-08
1.983e-08
5.33763e-09
4.96875e-09
2.76764e-13
5.13774e-13
1.06314e-12
2.23364e-12
4.77089e-12
1.00372e-11
2.03394e-11
3.82452e-11
6.47334e-11
9.92506e-11
1.30159e-10
1.44956e-10
5.45408e-10
8.17047e-09
2.14723e-08
1.05799e-08
4.45916e-09
4.45892e-09
7.69074e-09
1.39142e-13
2.97563e-13
6.77416e-13
1.58039e-12
3.74181e-12
8.66603e-12
1.88844e-11
3.77869e-11
6.77177e-11
1.11464e-10
1.56958e-10
1.84764e-10
2.95713e-09
1.52361e-08
3.52751e-08
6.21296e-08
7.57773e-09
4.45916e-09
4.01881e-08
5.99039e-14
1.42066e-13
3.63379e-13
9.69673e-13
2.5745e-12
6.50273e-12
1.54917e-11
3.373e-11
6.5281e-11
1.16636e-10
1.84817e-10
2.47945e-10
5.5296e-10
1.41215e-08
6.06715e-08
1.07437e-07
8.45533e-08
4.45915e-09
9.2633e-08
1.99516e-14
5.29235e-14
1.53971e-13
4.72445e-13
1.43992e-12
4.1343e-12
1.09191e-11
2.61621e-11
5.54559e-11
1.07466e-10
1.90251e-10
3.04407e-10
4.14985e-10
4.07418e-09
5.1867e-08
9.91555e-08
1.40158e-07
5.05086e-08
1.35441e-07
4.96441e-15
1.38663e-14
4.60034e-14
1.62748e-13
5.92137e-13
2.01271e-12
6.16985e-12
1.67416e-11
3.99269e-11
8.50094e-11
1.65557e-10
2.98324e-10
4.46282e-10
5.35394e-10
1.38987e-08
6.82361e-08
1.40171e-07
1.37378e-07
1.40724e-07
7.99336e-16
2.28859e-15
8.52523e-15
3.64352e-14
1.60742e-13
6.66684e-13
2.4707e-12
7.96339e-12
2.21533e-11
5.52753e-11
1.22754e-10
2.46952e-10
4.41633e-10
6.35794e-10
6.56949e-10
2.40491e-08
9.37397e-08
1.3992e-07
1.09128e-07
7.96755e-17
1.96951e-16
7.26055e-16
3.61241e-15
2.03404e-14
1.10181e-13
5.29077e-13
2.17544e-12
7.64999e-12
2.333e-11
6.21598e-11
1.50573e-10
3.28274e-10
6.07683e-10
9.12785e-10
1.82962e-09
2.64032e-08
6.4005e-08
8.93494e-09
4.88496e-18
8.61149e-18
2.57894e-17
1.328e-16
9.13097e-16
6.47906e-15
4.14563e-14
2.30801e-13
1.06282e-12
4.13726e-12
1.37667e-11
4.20368e-11
1.19615e-10
3.27244e-10
7.72359e-10
1.19331e-09
1.0883e-09
9.39905e-10
9.25938e-10
)
;

boundaryField
{
    leftWall
    {
        type            zeroGradient;
    }
    rightWall
    {
        type            zeroGradient;
    }
    lowerWall
    {
        type            zeroGradient;
    }
    atmosphere
    {
        type            inletOutlet;
        inletValue      uniform 0;
        value           nonuniform List<scalar> 
46
(
1.16783e-09
4.57334e-10
4.91265e-10
0
0
0
0
0
0
0
0
0
0
0
0
0
0
0
0
1.11524e-17
7.30247e-18
1.96866e-18
1.8599e-18
2.61251e-18
2.63186e-18
3.39348e-18
4.1417e-18
4.88496e-18
8.61149e-18
2.57894e-17
1.328e-16
9.13097e-16
6.47906e-15
4.14563e-14
2.30801e-13
1.06282e-12
4.13726e-12
1.37667e-11
4.20368e-11
1.19615e-10
3.27244e-10
7.72359e-10
1.19331e-09
1.0883e-09
9.39905e-10
9.25938e-10
)
;
    }
    defaultFaces
    {
        type            empty;
    }
}


// ************************************************************************* //
