/*--------------------------------*- C++ -*----------------------------------*\
| =========                 |                                                 |
| \\      /  F ield         | OpenFOAM: The Open Source CFD Toolbox           |
|  \\    /   O peration     | Version:  2312                                  |
|   \\  /    A nd           | Website:  www.openfoam.com                      |
|    \\/     M anipulation  |                                                 |
\*---------------------------------------------------------------------------*/
FoamFile
{
    version     2.0;
    format      ascii;
    arch        "LSB;label=32;scalar=64";
    class       volScalarField;
    location    "5.05";
    object      alpha.water;
}
// * * * * * * * * * * * * * * * * * * * * * * * * * * * * * * * * * * * * * //

dimensions      [0 0 0 0 0 0 0];

internalField   nonuniform List<scalar> 
2268
(
3.25829e-07
3.23256e-07
2.66248e-07
2.40884e-08
4.23252e-10
8.67517e-10
7.32349e-10
3.64108e-10
1.82327e-10
1.2345e-10
9.71791e-11
8.56368e-11
8.2594e-11
8.36866e-11
9.00719e-11
1.07242e-10
1.41797e-10
1.98973e-10
2.79911e-10
5.38278e-10
1.02385e-09
1.35365e-09
1.40777e-09
2.54349e-07
1.94588e-07
7.01134e-08
1.06826e-08
4.22936e-10
4.22271e-10
3.10695e-10
3.10642e-10
2.85809e-10
2.46992e-10
2.3183e-10
2.22488e-10
2.15526e-10
1.88576e-10
1.72198e-10
1.83557e-10
2.87362e-10
4.06938e-10
5.69302e-10
8.39749e-10
1.19115e-09
1.33463e-09
1.30434e-09
4.20024e-08
1.8184e-08
8.35846e-09
5.41603e-09
5.524e-09
6.78905e-09
6.16155e-09
1.67098e-09
6.54962e-10
6.38807e-10
6.82492e-10
8.68247e-10
1.06223e-09
1.11198e-09
9.52608e-10
7.10571e-10
5.82098e-10
6.42569e-10
7.18156e-10
8.78754e-10
9.54101e-10
9.5813e-10
8.64912e-10
5.56656e-09
3.6219e-09
9.78383e-10
8.7998e-10
2.18324e-09
2.78839e-09
2.04561e-09
9.76926e-10
5.40584e-10
5.53257e-10
9.30803e-10
1.73947e-09
2.31372e-09
2.30857e-09
2.00772e-09
9.48619e-10
5.12346e-10
5.39821e-10
3.53572e-10
3.64937e-10
3.97411e-10
4.38758e-10
4.9448e-10
1.16174e-11
6.27515e-19
3.55755e-19
3.58233e-19
1.24073e-12
1.41136e-11
1.07854e-19
-6.92155e-29
-5.29289e-29
-7.13817e-22
1.61524e-23
1.20432e-20
5.4135e-22
-4.29029e-22
-1.32289e-20
9.03901e-20
-3.58291e-14
-1.34298e-15
-2.16498e-16
-4.82665e-16
-1.71932e-15
-2.43033e-15
-1.10315e-14
0.116969
0.110543
0.097614
0.0806081
0.0616815
0.0422938
0.0237048
0.0109147
0.0079276
0.0124019
0.0190896
0.0269983
0.0414534
0.065247
0.0961019
0.127683
0.136052
0.140105
0.159389
0.182994
0.1992
0.216462
0.271088
0.824938
0.818718
0.801752
0.777292
0.746834
0.710863
0.671332
0.636849
0.615175
0.611694
0.633109
0.671866
0.721463
0.775363
0.825515
0.858831
0.837399
0.82051
0.836855
0.860869
0.870316
0.870614
0.892338
0.999463
0.999445
0.999249
0.998566
0.998465
0.998513
0.998851
0.999299
0.999668
0.999755
0.999722
0.999671
0.999714
0.999756
0.999756
0.999756
0.999756
0.978086
0.964337
0.983007
0.995521
0.97232
0.935462
0.0122352
0.00779572
0.00362088
0.00293408
0.00551031
0.00697302
0.00885659
0.00915761
0.00903309
0.00910177
0.00915124
0.00915333
0.00660684
0.00573433
0.00454573
0.00440253
0.00381155
0.00360744
0.00361753
0.00690822
0.00066589
0.000658145
0.000647879
0.000640068
0.000631329
0.000622769
0.00061392
0.000607095
0.00060688
0.000606274
0.00060447
0.00060207
0.000213095
2.77106e-05
2.75547e-05
9.59254e-05
0.000344841
0.000598804
0.172412
0.170187
0.161965
0.193881
0.21423
0.191639
0.157192
0.142279
0.133229
0.137703
0.129489
0.0739438
0.0194204
0.00196147
0.00578133
0.00604697
4.92248e-05
4.95848e-05
4.9228e-05
0.726333
0.84648
0.793374
0.789017
0.850511
0.866984
0.864569
0.854684
0.834698
0.863816
0.867721
0.83144
0.690127
0.398037
0.201091
0.157748
0.187919
0.318284
0.147236
0.787199
0.989274
0.982141
0.979703
0.988344
0.966393
0.975649
0.975639
0.974271
0.940189
0.940417
0.974255
0.975673
0.960486
0.521043
0.726361
0.818578
0.843378
0.569627
0.91887
0.985219
0.991443
0.990292
0.990281
0.98479
0.964311
0.975641
0.946386
0.856001
0.882797
0.946324
0.975668
0.971986
0.739415
0.879161
0.875239
0.861216
0.624085
0.975068
0.983
0.991444
0.990934
0.956854
0.974427
0.964008
0.973744
0.949781
0.845441
0.870777
0.902641
0.962252
0.959093
0.917406
0.926889
0.927507
0.861387
0.861543
0.962637
0.975654
0.991142
0.991477
0.956235
0.917718
0.959564
0.975336
0.975334
0.866783
0.746918
0.908657
0.838786
0.63963
0.750454
0.862051
0.947644
0.904675
0.893
0.999748
0.999748
0.999748
0.999748
0.999748
0.999748
0.999748
0.99974
0.999747
0.999755
0.999756
0.999756
0.999756
0.999756
0.999756
0.999756
0.999756
0.999729
0.999685
0.999679
0.998319
0.997434
0.996499
0.964526
0.98424
0.997286
0.980026
0.976551
0.981388
0.970232
0.970718
0.978521
0.986623
0.992672
0.994726
0.996323
0.999076
0.999665
0.999664
0.998352
0.99191
0.985202
0.985112
0.989384
0.993255
0.991556
0.407578
0.371244
0.330412
0.259158
0.234442
0.286312
0.401531
0.549721
0.627363
0.664692
0.722507
0.798283
0.863395
0.87786
0.869604
0.86881
0.861397
0.843435
0.779794
0.708473
0.680915
0.736641
0.848757
5.21107e-05
-4.02728e-16
-2.46017e-12
-4.47018e-20
0.000357233
3.87881e-05
0.000952487
0.000254887
4.53689e-08
0.00160605
0.020569
0.0757985
0.158544
0.167333
0.153219
0.152143
0.1597
0.133513
0.0494315
3.83699e-05
0.00843406
0.0780659
0.244541
4.57341e-16
-1.0085e-18
2.6336e-05
9.3782e-05
9.34169e-05
3.91159e-05
8.38345e-08
8.6337e-09
1.56109e-10
7.69068e-19
9.067e-19
-5.68024e-08
-4.32583e-07
1.02792e-09
3.51443e-09
1.44064e-09
1.81431e-16
-8.62991e-24
3.82352e-21
3.99999e-05
9.61969e-22
-4.78191e-20
1.89192e-21
5.22064e-09
2.7389e-05
2.98878e-05
4.49881e-05
2.87392e-05
2.94502e-05
1.23965e-05
1.5006e-06
3.89106e-06
1.90595e-05
4.24484e-05
6.40994e-05
0.000157513
0.000285457
0.000273596
0.000238676
5.57464e-05
2.73256e-05
0.00182292
0.00194443
0.000287309
6.11101e-06
-1.81123e-24
1.35384e-05
0.000138714
0.000189825
0.000259832
0.00021673
0.000213191
0.000190373
0.00015101
0.000135686
0.000151852
0.000146971
9.25053e-05
9.31617e-05
0.00199427
0.00413149
0.00322622
0.000565153
0.000184542
0.000219295
0.0122774
0.00465675
0.000261558
0.000366771
9.77658e-05
0.000257694
0.000155113
0.000787012
0.00247394
0.00354273
0.00333677
0.002677
0.00211051
0.00176579
0.00139711
0.000609585
0.000116706
0.00109754
0.0136176
0.0147682
0.0112772
0.00135762
0.000217934
0.0121825
0.0158256
0.00187659
0.000622572
0.000339884
0.000339707
8.41307e-05
0.000629296
0.00429637
0.00552943
0.0055281
0.00549167
0.00479246
0.00363687
0.00299782
0.00191793
0.000589212
0.000579267
0.00273162
0.013133
0.0141078
0.0122762
0.00869378
0.0170455
0.0201008
0.0151099
0.00079906
0.000273072
0.0002608
8.44605e-05
5.65392e-05
0.000152806
0.000789519
0.000845863
0.000562571
0.000336743
0.000177207
0.000171179
0.000507473
0.000836332
0.000687592
5.6779e-05
4.31393e-08
4.65539e-08
9.44009e-09
0.00252817
0.0190298
0.020102
0.0201037
0.0161247
1.10404e-07
1.08913e-07
5.97606e-06
2.53184e-08
2.51656e-08
2.50308e-08
2.48786e-08
2.47441e-08
2.45913e-08
2.47433e-08
2.4878e-08
2.50302e-08
1.09649e-07
3.09735e-08
3.1147e-08
6.19511e-07
5.78102e-07
2.25367e-07
5.20466e-08
0.00134536
0.0186926
0.020102
0.0201012
1.44682e-07
1.18679e-07
3.83039e-08
2.5546e-08
3.14901e-08
8.02592e-08
1.38365e-07
4.11537e-07
9.83825e-07
4.66816e-07
2.08445e-07
5.40222e-08
3.16299e-08
3.12919e-08
9.06287e-08
5.58716e-07
3.65917e-07
3.48988e-07
1.1435e-07
-2.21482e-15
0.00250834
0.0194364
0.0201019
3.44781e-07
2.39596e-07
7.6339e-08
3.37925e-08
8.26862e-08
2.26337e-07
5.05879e-07
1.84591e-06
1.8459e-06
1.72113e-06
1.1032e-06
7.66685e-07
7.88354e-07
2.63265e-06
9.24191e-06
1.1619e-05
4.42763e-06
3.25345e-07
3.21823e-07
3.32502e-09
9.18409e-05
0.00369366
0.00636911
4.3262e-07
2.81722e-07
9.98236e-08
6.90604e-08
8.77792e-08
1.91341e-07
9.10725e-07
1.84591e-06
1.84591e-06
1.84531e-06
1.14471e-06
1.11164e-06
1.46782e-06
1.01461e-05
1.59648e-05
1.49711e-05
1.45928e-05
4.41401e-06
1.09663e-06
5.26654e-07
2.97039e-23
-1.50483e-21
-1.2108e-10
3.46528e-07
7.5011e-08
2.95347e-08
4.06633e-08
2.01217e-08
9.18786e-08
4.29155e-07
1.47038e-06
1.8118e-06
9.17082e-07
2.33917e-07
8.89757e-09
1.00347e-06
1.0207e-05
2.00012e-05
2.00007e-05
2.00013e-05
1.23169e-05
2.52665e-07
5.57775e-07
-6.62452e-21
-2.23939e-23
1.20146e-23
3.97772e-08
2.00066e-08
1.96596e-08
1.85881e-08
1.74727e-08
4.06746e-08
4.16995e-09
1.37713e-09
9.6483e-08
2.82919e-09
2.86835e-09
8.81124e-09
9.61995e-09
2.16771e-08
1.1129e-05
1.98285e-05
1.13266e-05
1.12146e-09
1.1911e-09
2.08417e-06
2.00829e-05
2.28391e-05
2.0064e-05
9.06546e-09
9.04918e-09
1.2891e-08
1.23674e-08
1.53297e-08
7.10085e-09
1.37713e-09
1.3705e-09
1.36433e-09
2.79215e-09
4.16854e-09
6.73014e-09
8.48864e-09
1.6515e-08
8.20718e-09
8.20754e-09
9.57083e-08
2.36961e-07
1.32129e-09
5.02517e-07
1.76303e-05
2.88754e-05
2.94669e-05
9.51451e-09
3.58306e-09
5.79682e-09
7.46229e-09
8.80121e-09
5.41691e-09
1.89772e-09
1.6142e-09
1.3585e-09
2.497e-09
3.03785e-09
2.80846e-09
4.7211e-09
7.66796e-09
9.74121e-09
8.20169e-09
8.24552e-09
3.95936e-08
2.14639e-09
7.0883e-08
1.37655e-06
4.27708e-06
8.53061e-06
1.19493e-08
3.3448e-09
3.80513e-09
4.3659e-09
4.62603e-09
3.64428e-09
3.13952e-09
1.87698e-09
1.32744e-09
1.32161e-09
1.51172e-09
2.04967e-09
3.246e-09
4.59141e-09
6.44186e-09
8.31856e-09
1.04108e-08
9.27341e-09
3.58798e-09
1.13627e-09
1.92101e-13
-1.64062e-10
-4.71254e-10
1.45498e-08
2.34124e-09
2.64485e-09
3.18946e-09
2.98017e-09
2.56466e-09
1.98807e-09
1.48175e-09
1.04825e-09
8.81569e-10
8.88963e-10
1.06728e-09
1.24234e-09
1.75385e-09
2.63543e-09
3.68182e-09
4.39289e-09
4.36951e-09
2.96711e-09
1.17331e-09
9.75541e-09
1.30428e-07
2.02033e-07
1.45425e-08
1.60727e-09
1.33381e-09
1.66067e-09
1.48309e-09
1.21832e-09
9.47201e-10
7.04323e-10
5.25427e-10
4.39568e-10
4.19078e-10
4.74351e-10
5.81537e-10
7.43339e-10
9.78249e-10
1.27946e-09
1.56299e-09
1.67083e-09
1.503e-09
1.32946e-09
6.97143e-09
1.47054e-07
2.85323e-07
1.41925e-08
1.10919e-09
7.67272e-10
8.62312e-10
7.0873e-10
5.31633e-10
3.89551e-10
2.89522e-10
2.23632e-10
1.87601e-10
1.75709e-10
1.93453e-10
2.27806e-10
2.77595e-10
3.46744e-10
4.36421e-10
5.42084e-10
6.48141e-10
7.23472e-10
7.67231e-10
2.6201e-09
3.07968e-08
1.53799e-07
1.37867e-08
7.68441e-10
4.3192e-10
4.60836e-10
3.80211e-10
3.03381e-10
2.37768e-10
1.81888e-10
1.35698e-10
1.00715e-10
8.07995e-11
7.52218e-11
8.16197e-11
9.7412e-11
1.22428e-10
1.57566e-10
2.06884e-10
2.77823e-10
3.72247e-10
5.70283e-10
1.14827e-09
2.34642e-09
6.41716e-09
1.3605e-08
5.81977e-10
3.38783e-10
3.49201e-10
3.18339e-10
3.02651e-10
2.84005e-10
2.05845e-10
1.42918e-10
9.34492e-11
5.98805e-11
4.13182e-11
3.30198e-11
3.27873e-11
3.89425e-11
5.13794e-11
7.237e-11
1.04218e-10
1.61266e-10
2.68341e-10
4.89919e-10
1.18495e-09
1.29852e-09
1.34861e-08
4.17586e-10
3.13789e-10
3.61318e-10
5.44645e-10
6.50511e-10
5.12063e-10
2.93367e-10
2.03716e-10
1.25724e-10
7.24435e-11
4.01354e-11
2.36823e-11
1.62171e-11
1.4336e-11
1.70877e-11
2.37272e-11
3.74609e-11
5.91841e-11
1.01918e-10
1.96105e-10
3.67739e-10
8.13886e-10
1.34154e-08
3.28564e-10
3.29711e-10
5.68867e-10
9.68023e-10
1.38123e-09
9.86526e-10
3.90977e-10
2.76316e-10
1.71142e-10
9.48685e-11
5.12696e-11
2.73029e-11
1.43663e-11
8.41206e-12
6.71942e-12
8.31231e-12
1.2713e-11
2.05746e-11
3.48494e-11
6.2306e-11
1.44606e-10
2.51322e-10
1.33988e-08
3.19857e-10
4.49153e-10
9.65102e-10
1.91618e-09
3.4925e-09
2.2151e-09
4.98035e-10
3.60952e-10
2.26001e-10
1.22046e-10
6.51273e-11
3.43971e-11
1.72067e-11
8.41077e-12
4.26346e-12
3.3059e-12
4.40208e-12
7.0412e-12
1.19805e-11
2.03274e-11
3.75913e-11
8.47367e-11
1.34971e-08
3.77044e-10
8.20696e-10
2.00452e-09
3.96671e-09
7.77259e-09
5.07638e-09
5.7154e-10
4.30242e-10
2.77263e-10
1.45343e-10
7.66767e-11
4.13585e-11
2.12076e-11
9.93278e-12
4.39978e-12
1.96391e-12
1.68979e-12
2.43528e-12
4.05959e-12
6.77205e-12
1.3759e-11
2.12489e-11
1.38152e-08
5.25453e-10
1.96075e-09
8.5779e-09
3.47381e-08
4.68594e-08
7.31186e-09
5.84904e-10
5.13625e-10
3.31844e-10
1.58869e-10
8.18403e-11
4.52583e-11
2.42732e-11
1.18051e-11
5.14825e-12
2.06582e-12
8.58988e-13
8.64728e-13
1.39664e-12
2.44171e-12
3.80277e-12
7.9313e-12
1.39398e-08
1.05098e-09
7.03467e-09
8.6839e-08
3.25872e-07
2.35248e-07
4.85832e-10
5.70907e-10
5.99354e-10
3.42685e-10
1.53715e-10
7.74999e-11
4.43819e-11
2.52561e-11
1.30258e-11
5.89149e-12
2.34282e-12
7.20856e-13
3.58912e-13
4.31303e-13
7.03198e-13
1.50643e-12
2.20269e-12
1.48581e-08
2.24455e-09
3.11016e-08
3.4041e-07
6.94479e-07
3.64769e-07
4.85771e-10
6.07912e-10
6.83173e-10
3.19844e-10
1.30433e-10
6.43585e-11
3.86766e-11
2.35344e-11
1.3126e-11
6.31164e-12
2.56355e-12
8.93006e-13
2.06957e-13
1.52576e-13
2.39051e-13
3.8156e-13
7.58133e-13
1.54813e-08
4.10115e-09
1.06197e-07
7.07719e-07
7.05714e-07
1.87993e-07
5.00882e-10
8.87581e-10
7.53983e-10
2.70355e-10
9.95254e-11
4.82909e-11
3.02137e-11
1.93965e-11
1.17528e-11
6.15161e-12
2.6797e-12
9.8774e-13
1.87386e-13
6.28484e-14
7.26324e-14
1.49148e-13
2.13868e-13
1.55167e-08
1.24169e-08
3.27932e-07
7.92072e-07
6.13759e-07
4.87029e-10
5.78651e-10
1.34016e-09
6.95244e-10
2.0594e-10
6.81129e-11
3.2946e-11
2.14673e-11
1.45033e-11
9.31142e-12
5.34518e-12
2.55756e-12
1.00258e-12
2.45263e-13
4.30975e-14
2.35129e-14
3.44544e-14
7.12353e-14
1.3498e-08
2.80887e-08
5.15257e-07
7.9268e-07
3.02362e-07
5.0707e-10
1.26574e-09
1.31801e-09
4.60985e-10
1.38198e-10
4.61105e-11
2.15625e-11
1.40918e-11
9.55422e-12
6.41199e-12
4.04982e-12
2.17996e-12
9.12781e-13
2.90629e-13
3.79392e-14
7.67363e-15
1.23307e-14
1.82922e-14
1.49201e-08
3.68881e-08
6.01248e-07
7.63811e-07
2.6147e-08
5.04122e-10
1.6757e-09
1.027e-09
2.62172e-10
9.37236e-11
2.84463e-11
1.3189e-11
8.48499e-12
5.61684e-12
3.80858e-12
2.60015e-12
1.59463e-12
7.67603e-13
2.74151e-13
3.87203e-14
3.41327e-15
2.71251e-15
5.42544e-15
1.57124e-08
5.58466e-08
4.95371e-07
4.68365e-07
1.47669e-09
1.05343e-09
2.36993e-09
8.94852e-10
2.4824e-10
6.35168e-11
1.63637e-11
7.54257e-12
4.76041e-12
2.97683e-12
1.94692e-12
1.38506e-12
9.67097e-13
5.55487e-13
2.29949e-13
4.04212e-14
2.75126e-15
1.02618e-15
1.46521e-15
2.68642e-08
7.35885e-08
3.35316e-07
1.148e-07
1.19911e-08
2.583e-09
2.86235e-09
1.05314e-09
2.58756e-10
4.40326e-11
8.85516e-12
4.01637e-12
2.49503e-12
1.44472e-12
8.63203e-13
5.98003e-13
4.58963e-13
3.20132e-13
1.62884e-13
3.96817e-14
3.85552e-15
3.44335e-16
3.96391e-16
3.01034e-08
6.24828e-08
3.2839e-07
4.75558e-08
4.21572e-09
6.05773e-09
3.69234e-09
1.16187e-09
2.73806e-10
3.99744e-11
4.74674e-12
1.94081e-12
1.20221e-12
6.51087e-13
3.40934e-13
2.10147e-13
1.63161e-13
1.34145e-13
9.1095e-14
3.13729e-14
3.76361e-15
2.06517e-16
9.8319e-17
3.28295e-08
3.65609e-08
6.64439e-08
4.25097e-09
4.90705e-09
1.06656e-08
4.00463e-09
1.10988e-09
2.32739e-10
3.11689e-11
2.46317e-12
7.92015e-13
5.11451e-13
2.65961e-13
1.21406e-13
6.01846e-14
4.24404e-14
3.94227e-14
3.69036e-14
1.87532e-14
3.30062e-15
1.73678e-16
2.66148e-17
3.65784e-08
1.05484e-08
1.60693e-09
1.60685e-09
1.65699e-08
1.21373e-08
3.47672e-09
8.03659e-10
1.51126e-10
1.70934e-11
1.06593e-12
2.63102e-13
1.75373e-13
9.2112e-14
3.85604e-14
1.52081e-14
8.16298e-15
7.63791e-15
9.55177e-15
8.32552e-15
2.01143e-15
1.63454e-16
1.00166e-17
5.90909e-08
8.11383e-09
1.60685e-09
2.44608e-09
1.85757e-08
8.35254e-09
2.10922e-09
4.17637e-10
5.37634e-11
4.51024e-12
2.04178e-13
5.55962e-14
4.13916e-14
2.29695e-14
9.41479e-15
3.08888e-15
1.13237e-15
9.77238e-16
1.65977e-15
2.56889e-15
1.0443e-15
1.28116e-16
9.56599e-18
8.12905e-08
1.3989e-08
5.44101e-09
2.7702e-08
1.44642e-08
2.27567e-09
5.31716e-10
7.23893e-11
5.73893e-12
2.39717e-13
8.25881e-15
5.73034e-15
4.9488e-15
3.02919e-15
1.30557e-15
3.87583e-16
1.02736e-16
7.82421e-17
2.10211e-16
5.73524e-16
4.65188e-16
8.7907e-17
7.33124e-18
0.996535
0.987551
0.976435
0.970489
0.990709
0.990672
0.990633
0.977975
0.909374
0.920923
0.898924
0.740155
0.301973
0.2647
0.168426
0.0568171
-3.07437e-08
-4.8e-08
-1.72992e-11
-5.40955e-15
1.51159e-05
2.37887e-05
4.40422e-07
1.44295e-09
0.000582887
0.000131328
6.23331e-06
9.74862e-05
0.000715326
0.000632703
0.000391515
0.00010511
0.000708114
0.000896351
0.00111011
0.0011153
0.00590031
0.00052043
0.000481063
0.000596406
0.0200951
0.0183711
0.00225924
3.60471e-05
0.0201037
0.0167795
0.000833981
9.48256e-09
0.00483223
0.00127836
2.48464e-06
1.87236e-08
-3.87413e-08
-7.41314e-08
1.71851e-07
4.71474e-07
2.51692e-06
5.18283e-06
-9.82917e-10
-2.43023e-16
2.97058e-05
2.96602e-05
2.18099e-05
1.73234e-05
2.95959e-05
2.94584e-05
3.80213e-05
3.82072e-05
2.78638e-05
3.48193e-05
3.82232e-05
3.82326e-05
2.995e-06
2.30605e-05
3.61988e-05
1.01929e-05
6.08685e-07
1.65114e-06
1.77592e-06
1.07145e-08
3.22491e-07
1.24972e-07
1.5616e-07
1.12817e-08
2.29123e-07
1.25678e-07
1.27572e-08
9.55754e-09
2.20362e-08
3.10166e-08
8.93659e-09
1.70392e-08
2.86696e-09
7.2712e-09
5.78863e-09
1.31196e-08
1.01925e-09
1.15996e-09
3.40681e-09
5.31259e-09
4.40556e-10
6.39839e-10
1.04195e-09
1.59542e-09
1.17913e-10
1.46217e-10
2.96717e-10
4.19661e-10
3.51207e-11
4.47316e-11
6.57288e-11
9.60773e-11
1.0024e-11
1.12942e-11
1.85903e-11
2.28594e-11
3.43641e-12
4.12288e-12
4.88202e-12
6.4786e-12
9.50412e-13
1.08779e-12
1.55505e-12
1.81363e-12
3.08567e-13
3.58754e-13
3.93657e-13
4.8503e-13
8.5407e-14
8.47555e-14
1.0901e-13
1.13883e-13
2.53279e-14
2.56158e-14
2.52188e-14
3.01802e-14
6.51268e-15
6.12735e-15
7.17851e-15
6.8494e-15
1.81394e-15
1.83661e-15
1.69512e-15
1.86594e-15
4.756e-16
4.31482e-16
4.95923e-16
4.67448e-16
1.21676e-16
1.16802e-16
1.04769e-16
1.16174e-16
2.577e-17
2.15339e-17
2.5968e-17
2.41668e-17
5.27281e-18
5.07766e-18
4.29957e-18
4.92591e-18
1.04044e-18
7.97407e-19
8.80404e-19
8.57545e-19
2.17709e-19
1.47417e-19
1.32096e-19
1.13281e-19
0.958426
0.961761
0.986965
0.991476
0.97073
0.917492
0.940213
0.975335
0.975336
0.857677
0.609105
0.908419
0.788886
0.572711
0.57279
0.913115
0.947644
0.947583
0.885233
0.968129
0.934021
0.909045
0.8749
0.920829
0.939374
0.968407
0.968533
0.878588
0.606885
0.571407
0.8788
0.885376
0.845103
0.817255
0.947512
0.947646
0.947647
0.917068
0.456713
0.453696
0.475365
0.595878
0.682838
0.601818
0.556922
0.53499
0.131124
0.0771538
0.077124
0.122942
0.358827
0.60104
0.711394
0.697665
0.715314
0.703337
0.682815
0.0122014
0.0985748
0.0874182
0.0497897
0.0659443
0.0237584
0.0128635
0.0111534
-1.75287e-20
-1.33435e-20
7.41476e-12
2.35229e-08
1.497e-05
0.000142417
0.0141855
0.0203358
0.00271925
0.000359994
0.000360654
0.000177193
0.0260126
0.0396436
0.000588112
0.000394197
0.00011385
0.000113976
0.000108593
9.09834e-05
1.43914e-05
-1.86344e-12
1.46691e-24
5.27076e-06
0.000249913
0.000368572
0.000388506
0.00038621
0.000360654
0.000359994
0.00115446
0.0377358
0.0708181
0.00497431
0.00100778
0.000368229
0.000144969
0.000293795
0.000379136
0.000353098
4.03233e-05
9.51648e-24
0.000194214
0.000288028
0.000391154
0.000570421
0.000668927
0.00121137
0.00197698
0.00187184
0.0573703
0.0713325
0.064252
0.00400636
7.53412e-05
7.53398e-05
7.55531e-05
3.44434e-05
0.000120035
0.00118311
0.00165546
0.00170611
0.00202723
0.00257701
0.00261975
0.00261937
0.00261985
0.00256466
0.00129262
0.0380677
0.0605312
0.0383206
0.00515252
0.00184675
0.000518468
1.25051e-08
8.33829e-09
3.68673e-09
6.3381e-05
0.000464186
0.0011906
0.00240697
0.00250026
0.00243255
0.00176747
0.00140126
0.00102355
0.00094681
0.00282897
0.00603138
0.00153324
0.000854994
0.000309589
8.17533e-05
1.69391e-08
6.66764e-08
6.6958e-06
3.79482e-05
9.63802e-05
0.000178051
0.000190448
0.000187329
1.27141e-06
1.27287e-06
1.27141e-06
1.27287e-06
0.000852873
0.000118187
-7.29288e-08
-3.14722e-09
-1.82856e-13
1.72215e-06
7.28023e-07
5.56022e-06
4.82091e-06
1.69569e-06
1.73745e-06
2.62045e-06
1.21545e-06
1.20533e-06
1.20025e-06
1.67331e-06
5.63118e-06
2.49364e-06
2.68057e-06
0.000177999
0.000152679
2.49231e-05
8.79533e-07
6.35632e-13
1.56239e-06
7.66932e-06
1.15581e-05
1.09892e-05
9.41501e-06
2.68297e-06
3.04563e-07
1.42497e-06
1.71462e-06
3.58418e-06
3.71428e-06
6.36713e-06
2.67218e-06
2.87346e-06
3.3055e-06
3.21944e-05
2.72766e-05
3.69842e-06
3.33202e-07
6.23196e-06
1.41712e-05
1.6222e-05
1.61799e-05
7.67584e-06
2.0911e-06
2.97258e-07
1.28082e-07
2.79607e-06
5.14907e-06
1.4689e-05
3.93437e-05
8.57391e-06
2.4308e-06
8.92395e-07
9.32174e-07
4.35502e-06
1.76542e-06
1.68028e-07
1.20456e-09
1.51329e-05
2.89532e-05
1.13327e-05
1.95575e-06
1.20218e-06
1.27708e-07
1.27962e-07
1.12277e-06
4.00005e-06
3.88409e-05
4.01493e-05
1.7019e-05
2.48245e-06
3.52635e-07
8.61207e-08
5.43975e-11
1.38637e-09
5.33492e-08
9.16508e-10
1.11402e-05
2.89538e-05
6.60963e-06
1.85632e-06
3.05482e-06
6.54684e-06
6.62257e-06
1.36202e-06
1.24197e-06
4.01173e-05
4.01493e-05
1.84692e-05
2.35423e-06
3.77386e-25
2.00989e-25
1.14617e-10
7.70275e-10
8.12534e-10
8.68554e-10
1.76305e-05
2.89385e-05
2.67896e-05
3.06431e-06
8.85171e-06
5.25884e-06
1.82494e-06
9.71367e-07
8.0139e-06
3.81296e-05
3.53393e-05
9.12429e-06
5.69323e-07
2.09272e-05
1.80801e-05
1.24598e-10
1.32413e-10
2.16037e-06
5.04459e-06
2.4112e-05
1.41725e-05
5.86525e-06
3.89244e-06
5.1331e-06
5.7471e-06
2.15616e-06
2.25627e-06
3.11309e-05
3.8292e-05
2.47347e-06
7.78743e-08
1.77428e-07
3.81669e-05
3.81268e-05
2.52941e-05
6.98928e-06
6.92761e-06
2.13296e-05
4.11971e-05
3.64529e-05
1.71933e-05
1.22865e-05
2.92208e-05
3.01284e-05
2.72795e-05
2.72878e-05
1.96344e-05
6.38152e-06
9.81095e-07
7.8108e-08
7.60773e-08
1.81831e-05
2.8071e-05
3.27508e-05
2.33176e-05
7.91974e-06
1.80137e-05
4.13061e-05
4.22933e-05
4.22999e-05
4.17905e-05
4.05102e-05
3.03119e-05
1.96945e-05
4.50052e-06
9.92177e-08
9.94448e-08
5.1195e-07
3.37617e-07
7.57875e-08
7.20032e-08
2.25509e-06
1.9727e-05
2.02563e-05
4.31766e-06
4.91175e-06
9.30209e-06
1.72714e-05
1.11579e-05
8.22526e-06
6.71285e-06
2.93967e-06
8.18352e-07
4.63831e-07
1.94546e-07
1.01699e-07
1.76492e-07
4.26165e-07
7.7634e-08
7.58421e-08
5.56376e-07
5.96364e-07
7.48626e-06
4.43839e-07
1.05499e-06
4.00787e-06
4.06976e-06
3.49034e-06
1.64485e-06
1.06423e-07
1.04209e-09
1.04155e-09
1.03139e-07
4.58334e-07
5.41706e-07
3.61341e-07
3.53008e-07
8.57525e-08
9.26588e-08
6.47227e-07
1.29792e-07
2.21878e-08
2.19786e-08
4.9023e-07
8.99081e-07
6.59315e-07
5.49092e-07
3.38994e-07
5.96721e-08
2.48075e-09
1.04209e-09
1.04234e-09
2.71659e-07
5.4209e-07
4.53359e-07
1.1493e-07
8.57101e-08
1.0415e-07
4.16465e-07
1.42696e-07
2.46723e-08
3.49914e-08
1.11515e-08
1.13497e-09
1.12693e-09
1.12375e-09
1.12516e-09
1.81494e-09
1.67857e-09
2.70473e-09
2.76541e-09
2.64173e-09
2.63967e-09
1.76303e-07
1.77426e-07
1.29142e-07
1.03878e-07
5.32109e-08
3.80911e-08
2.18544e-08
2.10655e-08
5.04596e-09
2.34305e-09
2.14587e-09
2.31111e-09
3.07263e-09
3.79148e-09
4.6502e-09
9.36529e-09
1.18294e-08
2.63605e-09
7.17016e-08
2.52848e-07
1.777e-07
1.57807e-07
7.16884e-08
1.37523e-08
9.72664e-09
1.07104e-08
6.29711e-09
3.23886e-09
2.50769e-09
2.32135e-09
2.55885e-09
5.10489e-09
7.15115e-09
1.13987e-08
1.9015e-08
2.91423e-08
3.00018e-08
2.22296e-07
2.52899e-07
1.24471e-07
1.67392e-07
1.56255e-08
5.55652e-09
4.78246e-09
3.66789e-09
2.36673e-09
1.79411e-09
1.76352e-09
1.99723e-09
2.58492e-09
3.74915e-09
7.19028e-09
1.5972e-08
2.47968e-08
3.21509e-08
6.34431e-08
1.55524e-07
1.49119e-07
4.19819e-08
1.67446e-07
2.17499e-09
1.75215e-09
1.51796e-09
1.04247e-09
8.3213e-10
8.00144e-10
8.74045e-10
1.08791e-09
1.51622e-09
2.2252e-09
3.44095e-09
5.6798e-09
8.67757e-09
1.13459e-08
3.82164e-08
6.9325e-08
2.91734e-08
3.09584e-09
1.34993e-07
4.76069e-10
4.48639e-10
3.76342e-10
3.16784e-10
3.10567e-10
3.3965e-10
4.0893e-10
5.52194e-10
8.22094e-10
1.30107e-09
2.15328e-09
3.22801e-09
4.53365e-09
6.28369e-09
1.21383e-08
1.8193e-08
1.01592e-08
3.07851e-09
9.8776e-08
1.08707e-10
1.05898e-10
1.03768e-10
1.09784e-10
1.28233e-10
1.64047e-10
2.37145e-10
3.82349e-10
6.63808e-10
1.23109e-09
2.39573e-09
4.20708e-09
7.07303e-09
9.66913e-09
1.2266e-08
1.4303e-08
6.21089e-09
3.07908e-09
9.78334e-08
2.65352e-11
2.95443e-11
3.41756e-11
4.15258e-11
5.42943e-11
8.36985e-11
1.35068e-10
2.22831e-10
4.53624e-10
1.07467e-09
2.53611e-09
5.26128e-09
1.07611e-08
1.88803e-08
2.75381e-08
1.13592e-08
5.0601e-09
3.07855e-09
1.1757e-07
7.36684e-12
9.11529e-12
1.13266e-11
1.45838e-11
2.02692e-11
2.71982e-11
3.12766e-11
5.77615e-11
1.52272e-10
5.14214e-10
1.77338e-09
5.36804e-09
1.25244e-08
2.97113e-08
3.98085e-08
4.32417e-08
5.91423e-09
1.7397e-08
1.22562e-07
2.1391e-12
2.65423e-12
3.30328e-12
4.27458e-12
5.6282e-12
4.31396e-12
4.81906e-12
1.19437e-11
3.99116e-11
1.59208e-10
7.10434e-10
3.47858e-09
1.24597e-08
2.95488e-08
4.97103e-08
4.97146e-08
2.03012e-08
1.78241e-08
1.2256e-07
5.26405e-13
6.65565e-13
7.67232e-13
9.24206e-13
1.14367e-12
9.86401e-13
9.76669e-13
3.15168e-12
1.27788e-11
5.95734e-11
3.09576e-10
2.35609e-09
9.76364e-09
2.53995e-08
4.72275e-08
4.75332e-08
2.85927e-08
7.88337e-08
1.14882e-07
1.29723e-13
1.42569e-13
1.50594e-13
1.65564e-13
1.96206e-13
2.37897e-13
3.37307e-13
1.19651e-12
5.42376e-12
2.61132e-11
1.25692e-10
7.03213e-10
6.48135e-09
1.57455e-08
3.67056e-08
4.27213e-08
2.77891e-08
1.1284e-07
1.09169e-07
3.05938e-14
3.05632e-14
3.06161e-14
3.46734e-14
4.84546e-14
8.65972e-14
2.06653e-13
6.75154e-13
2.72026e-12
1.25301e-11
5.38592e-11
2.88417e-10
3.20636e-09
9.51712e-09
2.08098e-08
2.53305e-08
3.1195e-08
1.12846e-07
1.09062e-07
7.29971e-15
6.7666e-15
7.12583e-15
9.53272e-15
1.77482e-14
4.50862e-14
1.4111e-13
4.87995e-13
1.7078e-12
6.74684e-12
2.72227e-11
9.93594e-11
6.66271e-10
3.49097e-09
8.96103e-09
1.99771e-08
4.13286e-08
8.3953e-08
2.92684e-07
1.82009e-15
1.7239e-15
1.98663e-15
3.2912e-15
8.13868e-15
2.63333e-14
9.5137e-14
3.53211e-13
1.24242e-12
4.51907e-12
1.75388e-11
7.00756e-11
4.92364e-10
1.41262e-09
3.42066e-09
1.01319e-08
3.41932e-08
3.69301e-08
3.83359e-07
4.58993e-16
4.61156e-16
6.22471e-16
1.30882e-15
3.90674e-15
1.38836e-14
5.4264e-14
2.16875e-13
8.10707e-13
3.10169e-12
1.11257e-11
4.40011e-11
2.45214e-10
1.16378e-09
2.21911e-09
5.03059e-09
1.15202e-08
2.5165e-08
3.83359e-07
1.12689e-16
1.21959e-16
1.93676e-16
4.83964e-16
1.61858e-15
6.18878e-15
2.51833e-14
1.04805e-13
4.11462e-13
1.66239e-12
6.60067e-12
2.72598e-11
1.1964e-10
7.6104e-10
2.53531e-09
3.60936e-09
5.30566e-09
2.41454e-08
3.83359e-07
2.50865e-17
2.83957e-17
5.04311e-17
1.40733e-16
5.1764e-16
2.10063e-15
8.88957e-15
3.80981e-14
1.58438e-13
6.37124e-13
2.56157e-12
1.14887e-11
5.04548e-11
2.66027e-10
1.80291e-09
3.93584e-09
5.55271e-09
2.58879e-08
2.28627e-07
4.83419e-18
5.18871e-18
9.69078e-18
3.05129e-17
1.26247e-16
5.70729e-16
2.66053e-15
1.25043e-14
5.72806e-14
2.70178e-13
1.23656e-12
5.573e-12
2.4409e-11
1.10965e-10
6.06981e-10
2.90485e-09
6.06082e-09
2.34528e-08
7.23188e-08
7.66389e-19
7.32111e-19
1.1308e-18
3.39078e-18
1.5738e-17
8.20382e-17
4.23904e-16
2.14969e-15
1.10603e-14
5.91911e-14
3.13514e-13
1.68779e-12
8.50828e-12
4.5042e-11
2.43922e-10
1.18702e-09
3.81988e-09
7.61804e-09
1.79996e-10
9.27325e-20
7.59115e-20
8.87128e-20
1.92678e-19
8.29647e-19
4.951e-18
2.98761e-17
1.69627e-16
8.81878e-16
4.70488e-15
2.75918e-14
1.754e-13
1.13449e-12
7.69024e-12
5.55551e-11
3.29794e-10
9.25308e-10
5.30174e-10
1.64334e-10
)
;

boundaryField
{
    leftWall
    {
        type            zeroGradient;
    }
    rightWall
    {
        type            zeroGradient;
    }
    lowerWall
    {
        type            zeroGradient;
    }
    atmosphere
    {
        type            inletOutlet;
        inletValue      uniform 0;
        value           nonuniform List<scalar> 
46
(
8.12905e-08
1.3989e-08
5.44101e-09
0
0
0
0
0
0
0
0
0
0
0
0
0
0
0
0
5.73524e-16
4.65188e-16
8.7907e-17
7.33124e-18
2.17709e-19
1.47417e-19
1.32096e-19
1.13281e-19
9.27325e-20
7.59115e-20
8.87128e-20
1.92678e-19
8.29647e-19
4.951e-18
2.98761e-17
1.69627e-16
8.81878e-16
4.70488e-15
2.75918e-14
1.754e-13
1.13449e-12
7.69024e-12
5.55551e-11
3.29794e-10
9.25308e-10
5.30174e-10
1.64334e-10
)
;
    }
    defaultFaces
    {
        type            empty;
    }
}


// ************************************************************************* //
