/*--------------------------------*- C++ -*----------------------------------*\
| =========                 |                                                 |
| \\      /  F ield         | OpenFOAM: The Open Source CFD Toolbox           |
|  \\    /   O peration     | Version:  2312                                  |
|   \\  /    A nd           | Website:  www.openfoam.com                      |
|    \\/     M anipulation  |                                                 |
\*---------------------------------------------------------------------------*/
FoamFile
{
    version     2.0;
    format      ascii;
    arch        "LSB;label=32;scalar=64";
    class       volScalarField;
    location    "5.05";
    object      p;
}
// * * * * * * * * * * * * * * * * * * * * * * * * * * * * * * * * * * * * * //

dimensions      [1 -1 -2 0 0 0 0];

internalField   nonuniform List<scalar> 
2268
(
5285.98
5291.22
5302.27
5318.1
5337.17
5357.41
5376.18
5390.65
5398.39
5397.88
5388.21
5369.34
5342.01
5307.96
5269.67
5229.56
5189.96
5153.62
5122.81
5098.79
5082.02
5072.56
5068.89
4487.3
4492.3
4503.71
4520.09
4539.86
4560.92
4580.54
4595.7
4603.82
4603.45
4593.65
4574.45
4546.61
4511.97
4473.1
4432.44
4392.25
4355.49
4324.56
4300.6
4283.81
4274.29
4270.83
3685.51
3690.29
3702.35
3719.83
3741.06
3763.86
3785.31
3802
3810.97
3810.93
3800.84
3781
3752.2
3716.36
3676.35
3634.59
3593.18
3555.55
3524.4
3500.56
3483.75
3474.4
3471.82
2879.69
2884.86
2898.06
2917.26
2940.71
2966.22
2990.52
3009.59
3019.81
3020.28
3009.71
2988.92
2958.7
2921.07
2879.32
2835.94
2792.6
2753.54
2722.15
2698.62
2681.85
2672.91
2671.98
2069.65
2075.77
2090.76
2112.35
2138.88
2168.18
2196.38
2218.69
2230.42
2231.51
2220.2
2198.22
2166.18
2126.21
2082.14
2036.58
1990.42
1949.97
1919.23
1896.43
1880.06
1871.29
1871.76
1297.95
1302.97
1315.62
1334.02
1357.1
1383.96
1411.4
1434.43
1447.96
1451.99
1442.07
1421.35
1392.13
1357.48
1321.35
1286.34
1252.76
1225.52
1205.67
1190.87
1180.85
1176.57
1181.63
842.083
843.102
845.97
850.485
856.63
864.65
874.252
884.048
893.19
898.057
897.429
892.053
883.965
874.787
865.825
858.257
852.434
848.347
845.968
845.159
845.744
845.973
845.634
717.047
716.062
713.424
709.791
705.511
700.685
696.331
694.098
695.05
699.197
706.033
714.452
724.003
733.78
742.67
750.32
756.779
761.342
765.751
770.369
774.356
777.372
779.668
2610.13
2604.56
2611.26
2613.48
2615.59
2618.88
2622.89
2624.99
2624.71
2624.03
2627.87
2638.75
2653.83
2671.55
2689.12
2721.78
2792.56
2880.34
2956.52
1849.12
1848.63
1854.15
1853.39
1854.37
1857.59
1862.69
1864.71
1864.18
1862.14
1864.43
1874.03
1887.71
1905.72
1924.91
1955.58
2019.08
2110.99
2192.68
1231.92
1239.54
1242.39
1235.98
1231.59
1230.45
1233.96
1236
1236.14
1234.71
1234.1
1237.85
1254.89
1283.31
1320.34
1353.74
1385.29
1442.69
1516.99
964.289
968.764
966.787
958.84
951.598
945.935
942.63
942.075
942.193
943.904
939.535
930.295
928.942
941.42
965.284
985.331
995.854
1007.16
1035.04
907.382
906.963
901.549
893.584
887.243
881.905
874.133
869.652
867.633
872.55
864.766
842.938
821.21
815.375
818.643
822.238
824.048
828.958
814.494
852.489
849.52
843.603
835.209
827.909
822.376
814.54
806.881
803.869
809.445
802.685
778.029
756.762
752.926
761.328
763.416
769.059
769.113
758.628
795.826
793.728
784.918
775.571
768.046
762.125
754.876
745.719
741.83
743.088
737.657
712.309
693.583
691.647
704.502
702.856
707.513
707.585
706.397
729.341
734.409
724.804
715.109
708.127
702.198
695.697
687.821
683.603
680.483
673.893
651.834
636.805
637.224
642.959
645.305
648.291
647.174
650.845
622.71
621.826
619.734
616.799
613.479
609.846
606.672
605.316
606.47
610.356
616.561
624.352
633.144
642.083
650.415
657.749
663.824
668.622
672.797
676.331
678.517
678.228
672.334
496.676
495.211
492.692
489.94
487.302
485.029
483.14
483.072
484.449
487.738
493.306
500.735
509.294
517.698
525.482
532.399
538.028
542.599
545.942
547.425
548.313
549.21
547.89
391.683
390.664
388.141
385.637
383.512
380.817
377.636
375.227
374.567
375.862
378.771
383.554
390.194
397.091
403.959
410.569
416.49
421.539
424.91
426.432
427.16
427.915
427.808
317.213
316.929
315.13
312.659
310.064
306.303
301.855
298.73
297.395
296.97
296.834
297.484
299.619
303.39
308.235
313.727
319.836
326.006
331.263
334.326
335.295
334.918
333.13
254.048
253.34
251.654
249.307
246.396
243.313
240.99
239.386
237.64
235.792
234.368
233.533
233.707
235.854
239.407
244.204
250.124
256.644
263.213
268.432
270.432
269.92
267.027
190.606
189.756
188.349
186.291
183.756
181.264
179.36
177.24
174.994
172.488
170.727
169.982
170.306
172.092
175.568
180.567
186.732
193.766
201.209
208.636
213.619
213.959
210.633
127.67
126.771
125.285
123.139
120.449
117.74
115.26
112.61
109.896
107.397
105.568
104.704
104.966
106.676
110.253
115.652
122.79
131.547
141.293
150.708
158.357
160.456
156.464
65.2423
64.291
62.5498
60.0332
57.0117
53.8742
50.876
48.0845
45.5255
43.3259
41.6348
40.6858
40.5661
41.4786
44.0661
48.8542
55.9665
67.0041
80.8796
94.2117
104.375
108.226
104.283
17.0138
16.408
15.3022
13.7334
11.964
10.2718
8.83304
7.59416
6.51242
5.6178
4.95719
4.61412
4.46977
4.49268
5.00902
6.62514
8.87098
14.1879
24.4255
37.6311
49.5379
54.5034
52.1465
-1.40763
-1.43033
-1.4777
-1.50942
-1.51255
-1.49712
-1.46802
-1.48839
-1.52672
-1.55167
-1.56879
-1.56116
-1.55445
-1.59353
-1.61629
-1.59494
-1.49134
-1.32056
-0.684241
2.96028
9.20743
12.8972
13.5405
-1.77996
-1.77727
-1.77089
-1.76212
-1.75673
-1.75487
-1.75668
-1.75355
-1.75119
-1.75378
-1.76098
-1.77863
-1.79977
-1.81451
-1.8294
-1.85228
-1.87278
-1.87512
-1.83647
-1.79699
-1.08602
0.466108
1.3137
-1.90362
-1.9014
-1.89658
-1.89022
-1.88591
-1.8845
-1.88527
-1.88607
-1.88794
-1.89317
-1.90377
-1.92172
-1.94444
-1.96691
-1.99171
-2.02639
-2.06853
-2.1057
-2.15317
-2.17191
-2.11453
-1.52429
-1.24239
-2.02753
-2.02602
-2.02307
-2.0195
-2.01689
-2.01598
-2.01675
-2.01899
-2.02312
-2.03026
-2.04227
-2.05983
-2.08151
-2.10562
-2.13484
-2.17324
-2.21968
-2.27213
-2.32926
-2.38204
-2.4299
-2.48444
-2.53823
-2.15285
-2.15212
-2.15076
-2.14864
-2.14743
-2.14748
-2.14903
-2.15237
-2.15788
-2.16633
-2.17885
-2.19563
-2.21591
-2.23952
-2.26934
-2.30682
-2.35076
-2.39975
-2.4541
-2.51122
-2.58804
-2.72175
-2.79848
-2.27912
-2.27886
-2.27826
-2.27758
-2.27743
-2.27834
-2.28067
-2.28475
-2.29097
-2.30012
-2.31227
-2.32761
-2.34595
-2.36811
-2.39525
-2.42812
-2.46653
-2.50911
-2.55639
-2.60872
-2.67159
-2.74304
-2.76476
-2.40585
-2.40588
-2.40586
-2.40602
-2.40671
-2.40833
-2.41121
-2.41566
-2.42203
-2.43085
-2.44219
-2.45578
-2.47201
-2.49175
-2.51543
-2.54277
-2.57334
-2.60638
-2.64203
-2.68009
-2.71922
-2.7528
-2.75216
-2.53278
-2.53302
-2.5334
-2.53413
-2.53539
-2.53749
-2.54068
-2.54522
-2.55139
-2.55946
-2.56955
-2.58166
-2.59598
-2.61287
-2.63258
-2.65463
-2.67823
-2.70323
-2.72904
-2.75394
-2.77476
-2.78637
-2.77892
-2.65975
-2.66013
-2.66079
-2.66187
-2.6635
-2.66588
-2.66921
-2.67369
-2.6795
-2.68683
-2.69577
-2.70636
-2.71868
-2.73283
-2.74873
-2.766
-2.78412
-2.8026
-2.82048
-2.83583
-2.8461
-2.84883
-2.84197
-2.78661
-2.78709
-2.78793
-2.78923
-2.79107
-2.79359
-2.79692
-2.80122
-2.80661
-2.8132
-2.82106
-2.83021
-2.84066
-2.85236
-2.86513
-2.87861
-2.8923
-2.90556
-2.91724
-2.92658
-2.93105
-2.92994
-2.92435
-2.91332
-2.91386
-2.9148
-2.91622
-2.91815
-2.9207
-2.92394
-2.92798
-2.93291
-2.93878
-2.94563
-2.95346
-2.96223
-2.97182
-2.98202
-2.99249
-3.00276
-3.01224
-3.02016
-3.02511
-3.02643
-3.02379
-3.01871
-3.03982
-3.0404
-3.04139
-3.04286
-3.04481
-3.04731
-3.05039
-3.05413
-3.05857
-3.06375
-3.06967
-3.07631
-3.0836
-3.09141
-3.09951
-3.1076
-3.11526
-3.12196
-3.12708
-3.12973
-3.12949
-3.12628
-3.12131
-3.16611
-3.16671
-3.16772
-3.16919
-3.17111
-3.17349
-3.17637
-3.17978
-3.18374
-3.18827
-3.19334
-3.19893
-3.20495
-3.21126
-3.21767
-3.22389
-3.22956
-3.23428
-3.23755
-3.23883
-3.23782
-3.23454
-3.22975
-3.2922
-3.29281
-3.29381
-3.29525
-3.29709
-3.29933
-3.30198
-3.30505
-3.30854
-3.31246
-3.31677
-3.32144
-3.32638
-3.33146
-3.3365
-3.34126
-3.34545
-3.34874
-3.35079
-3.35124
-3.34986
-3.34671
-3.34228
-3.4181
-3.41871
-3.41968
-3.42107
-3.4228
-3.42488
-3.42728
-3.43001
-3.43306
-3.43642
-3.44007
-3.44395
-3.44798
-3.45204
-3.45599
-3.45962
-3.4627
-3.46497
-3.46619
-3.46613
-3.46462
-3.46168
-3.45767
-3.54384
-3.54443
-3.54537
-3.54669
-3.5483
-3.5502
-3.55236
-3.55476
-3.5574
-3.56026
-3.56331
-3.56651
-3.56978
-3.57302
-3.5761
-3.57886
-3.5811
-3.58265
-3.58329
-3.58293
-3.58141
-3.57874
-3.57516
-3.66944
-3.67001
-3.67091
-3.67213
-3.67362
-3.67534
-3.67725
-3.67934
-3.68161
-3.68402
-3.68657
-3.68919
-3.69182
-3.69439
-3.69678
-3.69887
-3.7005
-3.70151
-3.70173
-3.70124
-3.69977
-3.69737
-3.69421
-3.79491
-3.79546
-3.79631
-3.79744
-3.7988
-3.80033
-3.80201
-3.80382
-3.80574
-3.80777
-3.80987
-3.812
-3.81411
-3.81614
-3.81798
-3.81955
-3.82072
-3.82141
-3.82156
-3.82079
-3.81936
-3.8172
-3.81442
-3.92028
-3.92081
-3.9216
-3.92264
-3.92385
-3.92521
-3.92667
-3.92821
-3.92984
-3.93152
-3.93324
-3.93496
-3.93664
-3.93822
-3.93963
-3.9408
-3.94162
-3.94203
-3.94193
-3.94121
-3.93988
-3.93796
-3.93553
-4.04558
-4.04607
-4.0468
-4.04775
-4.04882
-4.05001
-4.05126
-4.05257
-4.05392
-4.0553
-4.05669
-4.05807
-4.05939
-4.06061
-4.06168
-4.06253
-4.06309
-4.06329
-4.06307
-4.06237
-4.06116
-4.05947
-4.05734
-4.17083
-4.17129
-4.17196
-4.1728
-4.17374
-4.17476
-4.17582
-4.1769
-4.178
-4.17912
-4.18023
-4.18132
-4.18235
-4.18328
-4.18408
-4.18468
-4.18504
-4.1851
-4.18481
-4.18413
-4.18305
-4.18156
-4.17971
-4.29606
-4.29648
-4.29708
-4.29782
-4.29864
-4.29951
-4.30037
-4.30123
-4.3021
-4.30298
-4.30386
-4.3047
-4.30549
-4.30619
-4.30677
-4.30718
-4.30739
-4.30736
-4.30704
-4.3064
-4.30542
-4.30412
-4.30252
-4.42124
-4.42164
-4.42217
-4.42283
-4.42355
-4.42425
-4.42491
-4.42557
-4.42623
-4.4269
-4.42756
-4.4282
-4.42879
-4.42931
-4.42971
-4.42999
-4.43009
-4.42999
-4.42966
-4.42907
-4.4282
-4.42707
-4.42568
-4.54636
-4.54675
-4.54724
-4.54784
-4.54844
-4.54897
-4.54945
-4.54991
-4.55038
-4.55086
-4.55135
-4.55182
-4.55224
-4.55261
-4.55288
-4.55304
-4.55307
-4.55293
-4.5526
-4.55206
-4.55131
-4.55033
-4.54914
-4.67146
-4.67182
-4.67228
-4.67282
-4.67331
-4.67367
-4.67397
-4.67425
-4.67455
-4.67487
-4.6752
-4.67553
-4.67583
-4.67607
-4.67624
-4.67631
-4.67628
-4.67612
-4.67581
-4.67533
-4.67468
-4.67384
-4.67283
-4.79651
-4.79686
-4.7973
-4.79776
-4.79813
-4.79834
-4.79847
-4.79859
-4.79874
-4.79892
-4.79913
-4.79933
-4.79952
-4.79967
-4.79976
-4.79977
-4.7997
-4.79953
-4.79924
-4.79882
-4.79826
-4.79756
-4.79671
-4.92147
-4.92179
-4.92218
-4.92259
-4.92286
-4.92294
-4.92292
-4.92291
-4.92293
-4.92301
-4.92311
-4.92322
-4.92332
-4.92339
-4.92342
-4.92339
-4.92329
-4.92312
-4.92286
-4.9225
-4.92203
-4.92145
-4.92075
-5.04629
-5.04659
-5.04694
-5.04728
-5.04745
-5.04743
-5.0473
-5.0472
-5.04714
-5.04713
-5.04716
-5.04719
-5.04722
-5.04722
-5.0472
-5.04713
-5.04702
-5.04685
-5.04663
-5.04633
-5.04595
-5.04547
-5.04491
-5.17093
-5.1712
-5.17151
-5.17178
-5.17187
-5.17179
-5.17162
-5.17146
-5.17136
-5.1713
-5.17126
-5.17123
-5.1712
-5.17116
-5.17109
-5.171
-5.17087
-5.17072
-5.17052
-5.17028
-5.16998
-5.16961
-5.16917
-5.29537
-5.29559
-5.29589
-5.29606
-5.2961
-5.29604
-5.29587
-5.29572
-5.2956
-5.29551
-5.29543
-5.29535
-5.29527
-5.29517
-5.29507
-5.29496
-5.29483
-5.29468
-5.29452
-5.29433
-5.29411
-5.29383
-5.29351
-5.41962
-5.41976
-5.42007
-5.4201
-5.42018
-5.42019
-5.4201
-5.41999
-5.41989
-5.41977
-5.41966
-5.41953
-5.41941
-5.41927
-5.41914
-5.419
-5.41887
-5.41873
-5.4186
-5.41846
-5.41831
-5.41813
-5.41791
-5.54372
-5.54375
-5.54415
-5.54393
-5.54414
-5.54428
-5.54433
-5.54429
-5.5442
-5.54408
-5.54394
-5.54378
-5.54361
-5.54344
-5.54328
-5.54312
-5.54298
-5.54285
-5.54274
-5.54266
-5.54257
-5.54247
-5.54234
-5.66774
-5.66764
-5.66818
-5.66758
-5.66806
-5.66842
-5.6686
-5.66864
-5.66857
-5.66844
-5.66826
-5.66807
-5.66786
-5.66766
-5.66747
-5.6673
-5.66714
-5.66702
-5.66693
-5.66688
-5.66686
-5.66684
-5.66681
659.473
655.502
652.916
648.903
542.379
538.461
534.525
530.246
425.898
423.827
420.548
417.24
331.464
329.771
327.736
326.094
264.325
262.202
259.568
256.613
206.413
202.953
198.679
193.931
150.868
146.204
140.365
133.636
97.7582
91.9855
84.1645
74.446
46.6825
41.4745
33.4594
23.2638
11.0107
8.23022
3.99432
0.344475
0.473775
-0.345796
-1.01742
-1.29801
-1.4545
-1.6452
-1.93373
-1.8374
-2.68856
-2.52776
-2.3511
-2.26851
-2.77429
-2.69896
-2.58646
-2.48037
-2.72143
-2.66982
-2.59988
-2.52179
-2.70941
-2.67062
-2.62493
-2.57503
-2.75033
-2.72602
-2.6968
-2.66447
-2.82567
-2.81067
-2.79138
-2.77013
-2.91621
-2.90771
-2.89469
-2.87954
-3.01323
-3.00809
-2.99989
-2.98875
-3.11632
-3.11222
-3.1064
-3.09877
-3.22489
-3.22131
-3.21696
-3.21153
-3.33775
-3.33452
-3.33095
-3.32678
-3.45364
-3.45078
-3.44772
-3.44428
-3.57166
-3.56919
-3.56655
-3.56361
-3.6912
-3.68908
-3.68681
-3.6843
-3.81183
-3.81001
-3.80807
-3.80593
-3.9333
-3.93174
-3.93008
-3.92826
-4.05542
-4.05409
-4.05266
-4.05112
-4.17806
-4.17691
-4.1757
-4.17438
-4.3011
-4.30012
-4.29908
-4.29796
-4.42447
-4.42364
-4.42275
-4.4218
-4.54811
-4.5474
-4.54664
-4.54584
-4.67196
-4.67136
-4.67072
-4.67004
-4.79598
-4.79548
-4.79495
-4.79438
-4.92014
-4.91973
-4.91929
-4.91882
-5.04442
-5.04409
-5.04373
-5.04335
-5.16879
-5.16852
-5.16824
-5.16794
-5.29322
-5.29303
-5.29282
-5.29259
-5.41771
-5.41758
-5.41743
-5.41727
-5.54223
-5.54215
-5.54207
-5.54197
-5.66679
-5.66676
-5.66674
-5.6667
638.26
633.309
625.833
619.09
613.14
608.35
603.559
598.364
596.365
590.898
584.5
567.961
557.931
562.033
560.585
559.236
558.273
556.768
561.603
521.447
510.267
498.664
489.852
483.329
480.188
477.424
475.266
471.983
466.459
457.503
447.932
445.56
450.999
449.584
439.034
435.545
434.198
438.974
411.163
397.632
385.414
373.682
365.201
360.248
355.982
355.281
350.956
348.669
342.817
332.967
327.251
327.98
328.826
319.35
317.416
318.7
322.224
322.321
311.096
298.481
284.285
275.345
267.531
260.99
257.023
254.528
252.198
247.042
239.767
234.648
231.272
229.088
225.576
223.342
223.214
226.61
250.84
240.274
226.531
214.401
204.712
196.25
189.341
183.488
177.018
172.801
169.486
167.894
165.89
162.379
159.673
155.746
152.271
149.714
152.284
184.979
171.013
156.723
145.057
134.821
126.689
120.484
115.627
110.83
107.06
105.217
104.238
101.427
98.0865
94.1723
90.0825
86.5128
83.0093
80.8401
120.882
101.153
84.3604
72.2266
62.9932
55.9936
50.9413
47.1692
44.679
42.5953
42.3056
42.3155
40.4325
38.0722
35.0998
32.2629
30.4831
29.1196
28.5073
56.1233
34.9959
21.9129
15.3254
12.0782
9.51027
7.65308
6.12057
5.34199
5.03732
5.26118
5.40656
5.09358
4.57691
3.70406
2.96299
2.96493
4.12752
5.4639
9.02046
2.47494
0.00331393
-0.852384
-1.0375
-1.11815
-1.16185
-1.23239
-1.24289
-1.27404
-1.32072
-1.37663
-1.3658
-1.27883
-1.21517
-1.15318
-1.18482
-1.14657
-1.02742
-1.37645
-1.25668
-1.32713
-1.41507
-1.47183
-1.48318
-1.45795
-1.44128
-1.44602
-1.46353
-1.4927
-1.50402
-1.49941
-1.49242
-1.47656
-1.46866
-1.45764
-1.46872
-1.47959
-1.54003
-1.53917
-1.55762
-1.59356
-1.63241
-1.63351
-1.61581
-1.60321
-1.60743
-1.61851
-1.62718
-1.62892
-1.632
-1.62746
-1.6174
-1.6108
-1.60163
-1.60813
-1.61134
-1.80459
-1.76539
-1.73543
-1.74825
-1.7677
-1.77325
-1.76559
-1.76011
-1.76818
-1.77554
-1.76846
-1.76273
-1.76045
-1.76126
-1.75626
-1.75173
-1.74526
-1.74776
-1.75025
-2.10928
-1.96956
-1.91792
-1.90493
-1.90698
-1.9099
-1.90927
-1.90754
-1.91432
-1.91476
-1.90191
-1.8954
-1.89343
-1.89554
-1.89411
-1.89147
-1.88785
-1.88844
-1.89133
-2.29133
-2.15031
-2.0867
-2.05761
-2.04519
-2.04141
-2.04258
-2.04284
-2.04706
-2.04544
-2.03446
-2.03087
-2.0297
-2.03006
-2.02951
-2.02923
-2.02847
-2.02894
-2.03055
-2.39927
-2.29789
-2.23868
-2.20353
-2.181
-2.17401
-2.17275
-2.17414
-2.17999
-2.17733
-2.17259
-2.17136
-2.17021
-2.16772
-2.16544
-2.16682
-2.16723
-2.16845
-2.16747
-2.49933
-2.42953
-2.37908
-2.34497
-2.31971
-2.31165
-2.30747
-2.31208
-2.3165
-2.31326
-2.31092
-2.30882
-2.30668
-2.30309
-2.30176
-2.30334
-2.30211
-2.30448
-2.30092
-2.61416
-2.56285
-2.51859
-2.48623
-2.46575
-2.4574
-2.4515
-2.45248
-2.45379
-2.45189
-2.44936
-2.44577
-2.44168
-2.43861
-2.43842
-2.43811
-2.43439
-2.43515
-2.43201
-2.7365
-2.6977
-2.66063
-2.62949
-2.61484
-2.60387
-2.59835
-2.59609
-2.59458
-2.59255
-2.59043
-2.58602
-2.58139
-2.57629
-2.57371
-2.57096
-2.56727
-2.56511
-2.56377
-2.85476
-2.82506
-2.7974
-2.77221
-2.76001
-2.7455
-2.73999
-2.73618
-2.7329
-2.72978
-2.72659
-2.72195
-2.71687
-2.71138
-2.70711
-2.70321
-2.70006
-2.6972
-2.69669
-2.96983
-2.94628
-2.92612
-2.90802
-2.89558
-2.88272
-2.87573
-2.87079
-2.86634
-2.86228
-2.85819
-2.85347
-2.84884
-2.84404
-2.83939
-2.83517
-2.8322
-2.82966
-2.82926
-3.08514
-3.06679
-3.05059
-3.03657
-3.02456
-3.01438
-3.00766
-3.00224
-2.99726
-2.99264
-2.98811
-2.98352
-2.97914
-2.97503
-2.97098
-2.96707
-2.96372
-2.96135
-2.96058
-3.20147
-3.18727
-3.17385
-3.16176
-3.15138
-3.14272
-3.13632
-3.13094
-3.12601
-3.1214
-3.11702
-3.11284
-3.10885
-3.10505
-3.10144
-3.09791
-3.09463
-3.09224
-3.09121
-3.31906
-3.30787
-3.2968
-3.28649
-3.27738
-3.26968
-3.26351
-3.25833
-3.25375
-3.24956
-3.24565
-3.24195
-3.23839
-3.23492
-3.23154
-3.22828
-3.22529
-3.22297
-3.22189
-3.43803
-3.42902
-3.41988
-3.4111
-3.40317
-3.39632
-3.3906
-3.38576
-3.38156
-3.37779
-3.37432
-3.37107
-3.36793
-3.36485
-3.3618
-3.35881
-3.35604
-3.35385
-3.35287
-3.55838
-3.55096
-3.54337
-3.53593
-3.52907
-3.52302
-3.51782
-3.51338
-3.50952
-3.50609
-3.50299
-3.50012
-3.49738
-3.49468
-3.49197
-3.48929
-3.48678
-3.48478
-3.48391
-3.67987
-3.67365
-3.6673
-3.66098
-3.65507
-3.64975
-3.64508
-3.64102
-3.63748
-3.63436
-3.63157
-3.62901
-3.6266
-3.62424
-3.62186
-3.61948
-3.61724
-3.61549
-3.61471
-3.80219
-3.79691
-3.7915
-3.78616
-3.78108
-3.7764
-3.77222
-3.76855
-3.76533
-3.76249
-3.75997
-3.75769
-3.75556
-3.75348
-3.75138
-3.74927
-3.74729
-3.74577
-3.74507
-3.92509
-3.92059
-3.91596
-3.91138
-3.907
-3.90292
-3.89922
-3.89592
-3.89301
-3.89044
-3.88816
-3.88613
-3.88424
-3.88239
-3.88051
-3.87864
-3.87686
-3.87557
-3.87495
-4.04842
-4.04457
-4.0406
-4.03666
-4.03287
-4.02931
-4.02605
-4.02312
-4.0205
-4.01818
-4.01613
-4.01431
-4.01263
-4.01096
-4.00926
-4.00758
-4.00597
-4.00489
-4.00436
-4.17208
-4.16878
-4.16537
-4.16198
-4.15869
-4.15559
-4.15271
-4.15015
-4.1478
-4.14572
-4.14387
-4.14223
-4.14072
-4.1392
-4.13763
-4.13608
-4.13471
-4.13379
-4.13335
-4.29601
-4.29318
-4.29025
-4.28733
-4.28449
-4.28179
-4.27928
-4.27699
-4.27491
-4.27305
-4.27138
-4.26989
-4.2685
-4.2671
-4.26564
-4.26425
-4.26311
-4.26236
-4.26196
-4.42014
-4.41772
-4.41521
-4.4127
-4.41024
-4.4079
-4.4057
-4.40369
-4.40184
-4.40017
-4.39866
-4.39728
-4.39599
-4.39468
-4.39336
-4.39218
-4.39123
-4.39061
-4.39026
-4.54443
-4.54237
-4.54023
-4.53808
-4.53596
-4.53393
-4.53202
-4.53024
-4.52861
-4.5271
-4.52572
-4.52444
-4.52322
-4.52202
-4.52087
-4.5199
-4.51913
-4.5186
-4.51829
-4.66886
-4.66711
-4.6653
-4.66345
-4.66164
-4.65989
-4.65823
-4.65667
-4.65522
-4.65387
-4.65261
-4.65142
-4.65026
-4.64917
-4.64821
-4.64744
-4.64682
-4.64639
-4.64609
-4.79339
-4.79192
-4.79039
-4.78883
-4.78728
-4.78578
-4.78435
-4.783
-4.78172
-4.78052
-4.7794
-4.77833
-4.77727
-4.77629
-4.77545
-4.77483
-4.77435
-4.77404
-4.77376
-4.91801
-4.91679
-4.91551
-4.9142
-4.9129
-4.91162
-4.91039
-4.90923
-4.90813
-4.9071
-4.90612
-4.90522
-4.90436
-4.90349
-4.9027
-4.90219
-4.9018
-4.90159
-4.90137
-5.04269
-5.04169
-5.04064
-5.03956
-5.03848
-5.03742
-5.0364
-5.0354
-5.03448
-5.03362
-5.0328
-5.03206
-5.03142
-5.03074
-5.03004
-5.02954
-5.02922
-5.02906
-5.02893
-5.16742
-5.16663
-5.16579
-5.16492
-5.16404
-5.16319
-5.16237
-5.16155
-5.16079
-5.16009
-5.15944
-5.15885
-5.15835
-5.15792
-5.1574
-5.15695
-5.15664
-5.15647
-5.15646
-5.29219
-5.29159
-5.29094
-5.29027
-5.28959
-5.28891
-5.28824
-5.28765
-5.28707
-5.28652
-5.28603
-5.28559
-5.28522
-5.28494
-5.28467
-5.28435
-5.28407
-5.28388
-5.28395
-5.41699
-5.41657
-5.41611
-5.41563
-5.41514
-5.41466
-5.41419
-5.41374
-5.41333
-5.41294
-5.41259
-5.41229
-5.41205
-5.41188
-5.41177
-5.41166
-5.4115
-5.41131
-5.41143
-5.54181
-5.54155
-5.54128
-5.54099
-5.5407
-5.54041
-5.54012
-5.53985
-5.53959
-5.53936
-5.53915
-5.53898
-5.53886
-5.53879
-5.53878
-5.5388
-5.53879
-5.5387
-5.53877
-5.66664
-5.66655
-5.66645
-5.66635
-5.66625
-5.66615
-5.66605
-5.66596
-5.66587
-5.66578
-5.66572
-5.66567
-5.66567
-5.6657
-5.66577
-5.66581
-5.66588
-5.66598
-5.66601
)
;

boundaryField
{
    leftWall
    {
        type            calculated;
        value           nonuniform List<scalar> 
50
(
5285.98
4487.3
3685.51
2879.69
2069.65
1297.95
842.083
717.047
622.71
496.676
391.683
317.213
254.048
190.606
127.67
65.2423
17.0138
-1.40763
-1.77996
-1.90362
-2.02753
-2.15285
-2.27912
-2.40585
-2.53278
-2.65975
-2.78661
-2.91332
-3.03982
-3.16611
-3.2922
-3.4181
-3.54384
-3.66944
-3.79491
-3.92028
-4.04558
-4.17083
-4.29606
-4.42124
-4.54636
-4.67146
-4.79651
-4.92147
-5.04629
-5.17093
-5.29537
-5.41962
-5.54372
-5.66774
)
;
    }
    rightWall
    {
        type            calculated;
        value           nonuniform List<scalar> 
50
(
2956.52
2192.68
1516.99
1035.04
814.494
758.628
706.397
650.845
561.603
438.974
322.224
226.61
152.284
80.8401
28.5073
5.4639
-1.02742
-1.47959
-1.61134
-1.75025
-1.89133
-2.03055
-2.16747
-2.30092
-2.43201
-2.56377
-2.69669
-2.82926
-2.96058
-3.09121
-3.22189
-3.35287
-3.48391
-3.61471
-3.74507
-3.87495
-4.00436
-4.13335
-4.26196
-4.39026
-4.51829
-4.64609
-4.77376
-4.90137
-5.02893
-5.15646
-5.28395
-5.41143
-5.53877
-5.66601
)
;
    }
    lowerWall
    {
        type            calculated;
        value           nonuniform List<scalar> 
62
(
5684.13
5689.37
5700.42
5716.25
5735.32
5755.56
5774.33
5788.8
5796.54
5796.03
5786.36
5767.49
5740.16
5706.11
5667.82
5627.71
5588.11
5551.77
5520.95
5496.94
5480.15
5470.7
5467.02
5068.89
4270.83
3471.82
2671.98
1871.76
1181.63
845.634
779.668
721.928
717.676
714.742
712.744
2610.13
1849.12
1231.92
964.289
907.382
852.489
795.826
729.341
2993.26
2988.53
2995.09
2997.27
2998.65
3001.4
3005.62
3008.48
3008.48
3007.8
3011.65
3022.53
3038.54
3056.54
3074.09
3106.81
3177.55
3265.41
3341.58
)
;
    }
    atmosphere
    {
        type            calculated;
        value           nonuniform List<scalar> 
46
(
-5.72961
-5.72944
-5.73048
-5.72914
-5.73002
-5.73067
-5.73092
-5.73094
-5.73083
-5.73066
-5.73046
-5.73023
-5.73001
-5.72979
-5.72958
-5.7294
-5.72925
-5.72914
-5.72906
-5.72904
-5.72904
-5.72904
-5.72904
-5.72904
-5.72904
-5.72904
-5.72904
-5.72904
-5.72904
-5.72904
-5.72904
-5.72904
-5.72904
-5.72904
-5.72904
-5.72904
-5.72904
-5.72905
-5.72906
-5.72909
-5.72917
-5.72933
-5.72936
-5.72936
-5.7295
-5.72941
)
;
    }
    defaultFaces
    {
        type            empty;
    }
}


// ************************************************************************* //
