/*--------------------------------*- C++ -*----------------------------------*\
| =========                 |                                                 |
| \\      /  F ield         | OpenFOAM: The Open Source CFD Toolbox           |
|  \\    /   O peration     | Version:  2312                                  |
|   \\  /    A nd           | Website:  www.openfoam.com                      |
|    \\/     M anipulation  |                                                 |
\*---------------------------------------------------------------------------*/
FoamFile
{
    version     2.0;
    format      ascii;
    arch        "LSB;label=32;scalar=64";
    class       surfaceScalarField;
    location    "5.05";
    object      phi;
}
// * * * * * * * * * * * * * * * * * * * * * * * * * * * * * * * * * * * * * //

dimensions      [0 3 -1 0 0 0 0];

oriented        oriented;

internalField   nonuniform List<scalar> 
4432
(
-1.11268e-06
1.11272e-06
-2.6303e-06
1.51766e-06
-4.12656e-06
1.49628e-06
-5.52561e-06
1.39906e-06
-6.7744e-06
1.24879e-06
-7.82134e-06
1.04694e-06
-8.61006e-06
7.8871e-07
-9.0957e-06
4.85635e-07
-9.2623e-06
1.66599e-07
-9.12476e-06
-1.37548e-07
-8.71986e-06
-4.04903e-07
-8.11269e-06
-6.07165e-07
-7.37811e-06
-7.3458e-07
-6.58684e-06
-7.91279e-07
-5.77413e-06
-8.12707e-07
-4.94759e-06
-8.26549e-07
-4.13568e-06
-8.1191e-07
-3.3756e-06
-7.6009e-07
-2.71909e-06
-6.56512e-07
-2.16907e-06
-5.50024e-07
-1.66015e-06
-5.08935e-07
-1.07783e-06
-5.82325e-07
-1.07783e-06
-1.63994e-06
2.75277e-06
-3.17912e-06
3.05692e-06
-4.66705e-06
2.98428e-06
-6.05082e-06
2.78287e-06
-7.28331e-06
2.4813e-06
-8.31353e-06
2.07717e-06
-9.08136e-06
1.55656e-06
-9.53835e-06
9.42639e-07
-9.67078e-06
2.99035e-07
-9.49638e-06
-3.11941e-07
-9.05476e-06
-8.46521e-07
-8.40695e-06
-1.25498e-06
-7.63545e-06
-1.50608e-06
-6.8143e-06
-1.61243e-06
-5.97462e-06
-1.6524e-06
-5.11221e-06
-1.68897e-06
-4.26111e-06
-1.66302e-06
-3.45768e-06
-1.56353e-06
-2.75983e-06
-1.35438e-06
-2.16207e-06
-1.14779e-06
-1.59551e-06
-1.07551e-06
-9.31898e-07
-1.24594e-06
-2.00974e-06
-1.8066e-06
4.55939e-06
-3.41491e-06
4.66525e-06
-4.94837e-06
4.51775e-06
-6.37516e-06
4.20966e-06
-7.64856e-06
3.75469e-06
-8.71059e-06
3.13919e-06
-9.49807e-06
2.34402e-06
-9.95669e-06
1.40125e-06
-1.0076e-05
4.18373e-07
-9.87911e-06
-5.0887e-07
-9.4013e-06
-1.32433e-06
-8.71197e-06
-1.94431e-06
-7.89756e-06
-2.32048e-06
-7.04365e-06
-2.46634e-06
-6.17652e-06
-2.51952e-06
-5.27048e-06
-2.59501e-06
-4.36806e-06
-2.56544e-06
-3.49957e-06
-2.43203e-06
-2.74085e-06
-2.1131e-06
-2.09036e-06
-1.79828e-06
-1.48964e-06
-1.67624e-06
-8.01582e-07
-1.934e-06
-2.81132e-06
-1.79249e-06
6.35194e-06
-3.44023e-06
6.31303e-06
-5.01735e-06
6.0949e-06
-6.50584e-06
5.69817e-06
-7.84645e-06
5.09531e-06
-8.9688e-06
4.26154e-06
-9.80567e-06
3.18089e-06
-1.02965e-05
1.89205e-06
-1.04294e-05
5.51278e-07
-1.02315e-05
-7.06693e-07
-9.73293e-06
-1.82294e-06
-9.00194e-06
-2.67529e-06
-8.14327e-06
-3.17915e-06
-7.26367e-06
-3.34594e-06
-6.3824e-06
-3.4008e-06
-5.42388e-06
-3.55353e-06
-4.45864e-06
-3.53069e-06
-3.50439e-06
-3.38629e-06
-2.65707e-06
-2.96043e-06
-1.91077e-06
-2.54459e-06
-1.27256e-06
-2.31445e-06
-6.28067e-07
-2.5785e-06
-3.43939e-06
-1.59957e-06
7.95149e-06
-3.17808e-06
7.89153e-06
-4.71895e-06
7.63575e-06
-6.24022e-06
7.21941e-06
-7.6901e-06
6.54517e-06
-8.94744e-06
5.51887e-06
-9.89922e-06
4.13264e-06
-1.04721e-05
2.4649e-06
-1.06399e-05
7.19117e-07
-1.04264e-05
-9.20251e-07
-9.84804e-06
-2.40127e-06
-9.04582e-06
-3.4775e-06
-8.16283e-06
-4.06213e-06
-7.30798e-06
-4.20079e-06
-6.46469e-06
-4.24409e-06
-5.46452e-06
-4.5537e-06
-4.46135e-06
-4.53386e-06
-3.41141e-06
-4.43623e-06
-2.41846e-06
-3.95338e-06
-1.47716e-06
-3.48588e-06
-7.49131e-07
-3.04248e-06
-2.29739e-07
-3.09789e-06
-3.66913e-06
-1.54415e-06
9.49569e-06
-3.04038e-06
9.38779e-06
-4.45359e-06
9.04899e-06
-5.79899e-06
8.56483e-06
-7.06292e-06
7.80911e-06
-8.14733e-06
6.60329e-06
-8.93398e-06
4.91929e-06
-9.37373e-06
2.90465e-06
-9.45407e-06
7.9946e-07
-9.21819e-06
-1.15613e-06
-8.72953e-06
-2.88994e-06
-8.14644e-06
-4.06059e-06
-7.50121e-06
-4.70737e-06
-6.82677e-06
-4.87524e-06
-6.0898e-06
-4.98106e-06
-5.09401e-06
-5.5495e-06
-4.1666e-06
-5.46129e-06
-2.99952e-06
-5.60332e-06
-1.7709e-06
-5.18201e-06
-6.05647e-07
-4.65115e-06
2.17787e-07
-3.86593e-06
4.64812e-07
-3.34493e-06
-3.20434e-06
-1.34262e-06
1.08384e-05
-2.46709e-06
1.05124e-05
-3.61926e-06
1.02013e-05
-4.78998e-06
9.73564e-06
-5.92441e-06
8.9436e-06
-7.03252e-06
7.71145e-06
-7.94052e-06
5.82732e-06
-8.47918e-06
3.44332e-06
-8.62054e-06
9.4082e-07
-8.40609e-06
-1.37058e-06
-8.08274e-06
-3.21331e-06
-7.5176e-06
-4.62576e-06
-6.48199e-06
-5.74301e-06
-5.1092e-06
-6.24807e-06
-3.6717e-06
-6.41862e-06
-2.35542e-06
-6.86582e-06
-1.37525e-06
-6.44151e-06
-1.34182e-07
-6.84443e-06
1.34517e-06
-6.66141e-06
2.69788e-06
-6.00391e-06
3.45566e-06
-4.62376e-06
2.94928e-06
-2.83858e-06
-2.55113e-07
-2.92068e-07
1.11306e-05
1.31932e-07
1.00885e-05
5.17116e-07
9.81615e-06
8.08856e-07
9.44395e-06
1.29741e-06
8.45508e-06
1.79059e-06
7.21828e-06
2.2517e-06
5.36621e-06
2.71685e-06
2.97817e-06
3.26571e-06
3.91932e-07
3.89386e-06
-1.99876e-06
4.65535e-06
-3.97482e-06
5.74291e-06
-5.71334e-06
7.32166e-06
-7.3218e-06
9.28898e-06
-8.21542e-06
1.10723e-05
-8.20194e-06
1.18251e-05
-7.61863e-06
1.22153e-05
-6.83178e-06
1.24244e-05
-7.05352e-06
1.27744e-05
-7.0115e-06
1.28145e-05
-6.04397e-06
1.16402e-05
-3.4495e-06
8.63613e-06
1.65461e-07
8.38098e-06
-1.43908e-06
1.43908e-06
-1.62838e-06
1.89302e-07
-1.21397e-06
-4.1441e-07
-4.6549e-07
-7.48474e-07
4.82994e-07
-9.4848e-07
1.61053e-06
-1.12753e-06
2.79486e-06
-1.18433e-06
3.9006e-06
-1.10574e-06
4.84124e-06
-9.40637e-07
5.54212e-06
-7.00879e-07
6.05902e-06
-5.16896e-07
6.44107e-06
-3.82053e-07
6.93757e-06
-4.96497e-07
7.4403e-06
-5.02735e-07
7.28475e-06
1.55552e-07
6.89832e-06
3.86435e-07
6.21678e-06
6.81545e-07
3.99301e-06
2.22377e-06
3.99302e-06
-5.01547e-08
1.48924e-06
-4.80248e-07
6.19399e-07
-6.06956e-07
-2.87699e-07
-1.84114e-07
-1.17131e-06
6.02412e-07
-1.735e-06
1.68233e-06
-2.20745e-06
2.9814e-06
-2.48339e-06
4.16757e-06
-2.29191e-06
5.20956e-06
-1.98262e-06
6.02323e-06
-1.51455e-06
6.54429e-06
-1.03796e-06
6.65939e-06
-4.9715e-07
6.71099e-06
-5.48089e-07
6.84855e-06
-6.40294e-07
6.8278e-06
1.76309e-07
6.70534e-06
5.08895e-07
5.81219e-06
1.5747e-06
3.42091e-06
4.61506e-06
7.41393e-06
2.45106e-07
1.24414e-06
9.63794e-08
7.68133e-07
-9.07548e-08
-1.00553e-07
-3.59399e-07
-9.02655e-07
-4.34185e-07
-1.6602e-06
7.27525e-09
-2.6489e-06
1.00704e-06
-3.48314e-06
2.36611e-06
-3.65097e-06
3.74746e-06
-3.36396e-06
5.27113e-06
-3.03821e-06
6.74799e-06
-2.5148e-06
7.30189e-06
-1.05105e-06
7.27166e-06
-5.17865e-07
7.44419e-06
-8.12819e-07
8.55417e-06
-9.33677e-07
9.25529e-06
-1.92213e-07
7.69065e-06
3.13934e-06
4.05138e-06
8.25433e-06
1.14653e-05
-2.95768e-06
4.20185e-06
-1.0619e-06
-1.12763e-06
-1.55364e-07
-1.00707e-06
-1.36542e-06
3.07423e-07
-2.61992e-06
-4.05673e-07
-3.45731e-06
-1.81147e-06
-3.81753e-06
-3.12289e-06
-3.32855e-06
-4.13991e-06
-2.36034e-06
-4.33214e-06
1.70673e-06
-7.10524e-06
6.76283e-06
-7.57086e-06
9.35225e-06
-3.64044e-06
1.00482e-05
-1.21381e-06
1.04019e-05
-1.16643e-06
1.09787e-05
-1.51049e-06
1.04188e-05
3.67694e-07
8.21019e-06
5.34796e-06
5.03498e-06
1.14296e-05
1.65003e-05
-1.62037e-07
4.36389e-06
2.75971e-06
-4.04936e-06
3.60595e-06
-1.85329e-06
3.7018e-06
2.11592e-07
1.89004e-06
1.40612e-06
-3.47453e-06
3.55314e-06
-9.16225e-06
2.56485e-06
-9.85386e-06
-3.44828e-06
-8.01995e-06
-6.16603e-06
-1.00248e-06
-1.41227e-05
7.24105e-06
-1.58144e-05
1.35892e-05
-9.98855e-06
1.47472e-05
-2.3718e-06
8.28054e-06
5.30021e-06
-4.20577e-06
1.09758e-05
-8.36907e-06
4.53101e-06
-2.66319e-06
-3.57907e-07
4.11949e-06
4.64691e-06
2.06199e-05
2.74227e-06
1.62162e-06
5.82536e-06
-7.13245e-06
6.64975e-06
-2.67766e-06
6.91538e-06
-5.40248e-08
5.67265e-06
2.64888e-06
2.82258e-06
6.40323e-06
-3.22211e-06
8.60958e-06
-6.56489e-06
-1.05454e-07
-5.38847e-06
-7.34241e-06
-1.30953e-06
-1.82016e-05
2.98507e-06
-2.0109e-05
7.34307e-06
-1.43465e-05
8.08615e-06
-3.11484e-06
1.77957e-07
1.32084e-05
-9.77671e-06
2.09305e-05
-1.179e-05
6.54428e-06
-6.88184e-06
-5.266e-06
9.89228e-07
-3.22414e-06
2.16091e-05
7.38086e-06
-5.75922e-06
1.02194e-05
-9.97094e-06
1.05715e-05
-3.02976e-06
9.84695e-06
6.70499e-07
7.70485e-06
4.791e-06
5.54063e-06
8.56749e-06
3.25248e-06
1.08978e-05
-4.54313e-07
3.60138e-06
-1.45914e-06
-6.33755e-06
-1.17232e-06
-1.84884e-05
-1.09653e-06
-2.01847e-05
-3.64568e-07
-1.50785e-05
2.55814e-07
-3.73519e-06
-5.50546e-06
1.89697e-05
-1.02301e-05
2.56552e-05
-8.73284e-06
5.0471e-06
-4.29276e-06
-9.70606e-06
-6.07207e-07
-6.90968e-06
2.10019e-05
1.27267e-05
-1.84859e-05
1.40252e-05
-1.12694e-05
1.30533e-05
-2.05778e-06
1.14667e-05
2.25706e-06
9.25118e-06
7.00655e-06
7.11888e-06
1.06998e-05
5.84312e-06
1.21736e-05
3.76777e-06
5.67674e-06
2.73808e-06
-5.30783e-06
-1.05569e-06
-1.46946e-05
-4.54236e-06
-1.6698e-05
-6.30894e-06
-1.33119e-05
-6.32758e-06
-3.71653e-06
-8.02558e-06
2.06678e-05
-1.0428e-05
2.80576e-05
-5.69598e-06
3.15054e-07
-1.91148e-06
-1.34905e-05
-1.7444e-06
-7.07676e-06
1.92575e-05
8.8379e-08
1.10422e-05
1.2547e-06
8.92211e-06
2.78371e-06
8.28712e-06
4.58076e-06
7.64688e-06
7.04724e-06
5.98857e-06
9.33608e-06
4.92941e-06
1.13831e-05
3.31917e-06
1.29871e-05
1.37411e-06
1.43735e-05
-9.94472e-07
1.61024e-05
-3.72771e-06
1.8328e-05
-6.20053e-06
2.10298e-05
-8.41518e-06
2.42471e-05
-1.05391e-05
2.80021e-05
-1.19704e-05
3.2232e-05
-1.24319e-05
3.64131e-05
-1.17997e-05
3.99248e-05
-1.03435e-05
4.19941e-05
-9.12283e-06
4.30895e-05
-8.10697e-06
4.31448e-05
-6.09929e-06
4.26078e-05
-2.91242e-06
4.17134e-05
1.05983e-06
5.69381e-06
4.44005e-05
1.74873e-06
9.29336e-06
2.52291e-06
8.14784e-06
3.33925e-06
7.47069e-06
4.91067e-06
6.07537e-06
5.89572e-06
5.00345e-06
6.3049e-06
4.52016e-06
7.27442e-06
2.34959e-06
9.3466e-06
-6.98121e-07
1.12314e-05
-2.87933e-06
1.3326e-05
-5.82239e-06
1.59295e-05
-8.80405e-06
1.90435e-05
-1.15292e-05
2.27342e-05
-1.42299e-05
2.64282e-05
-1.56645e-05
3.02352e-05
-1.62389e-05
3.44903e-05
-1.60548e-05
3.85617e-05
-1.44149e-05
4.22594e-05
-1.28206e-05
4.52808e-05
-1.11283e-05
4.65729e-05
-7.39144e-06
4.64271e-05
-2.76665e-06
4.58186e-05
1.66834e-06
5.43183e-06
4.60805e-05
4.87793e-06
4.41532e-06
1.00766e-05
2.94907e-06
1.36784e-05
3.86882e-06
1.70673e-05
2.68631e-06
1.99085e-05
2.16218e-06
2.12746e-05
3.15399e-06
2.07177e-05
2.90641e-06
1.98757e-05
1.43809e-07
1.96892e-05
-2.69282e-06
1.99458e-05
-6.07903e-06
2.04428e-05
-9.30111e-06
2.18457e-05
-1.29321e-05
2.41624e-05
-1.65466e-05
2.61664e-05
-1.76685e-05
2.8378e-05
-1.84506e-05
3.09978e-05
-1.86746e-05
3.41742e-05
-1.75913e-05
3.76394e-05
-1.62858e-05
4.01849e-05
-1.36738e-05
4.05677e-05
-7.77428e-06
3.86468e-05
-8.45736e-07
3.52416e-05
5.07353e-06
8.82016e-06
3.18532e-05
6.76106e-06
-2.34586e-06
1.48842e-05
-5.17421e-06
2.11479e-05
-2.39497e-06
2.61444e-05
-2.31024e-06
3.23547e-05
-4.04819e-06
3.75755e-05
-2.06685e-06
3.96911e-05
7.90753e-07
3.96524e-05
1.82445e-07
3.90702e-05
-2.11067e-06
3.85634e-05
-5.57224e-06
3.7212e-05
-7.94978e-06
3.53944e-05
-1.11145e-05
3.37081e-05
-1.48603e-05
3.24939e-05
-1.64543e-05
3.15809e-05
-1.75376e-05
3.07009e-05
-1.77946e-05
3.07791e-05
-1.76695e-05
3.24978e-05
-1.80045e-05
3.534e-05
-1.6516e-05
3.74464e-05
-9.88066e-06
3.55233e-05
1.07735e-06
2.97374e-05
1.08594e-05
1.61682e-05
2.23893e-05
5.24728e-06
-7.59318e-06
9.92046e-06
-9.84744e-06
1.40835e-05
-6.55808e-06
1.70216e-05
-5.24835e-06
2.02854e-05
-7.31198e-06
2.39045e-05
-5.68594e-06
2.78333e-05
-3.13809e-06
3.22853e-05
-4.26957e-06
3.67857e-05
-6.61111e-06
4.06099e-05
-9.3965e-06
4.3765e-05
-1.11048e-05
4.53359e-05
-1.26855e-05
4.49522e-05
-1.44766e-05
4.4115e-05
-1.5617e-05
4.22569e-05
-1.56795e-05
3.92463e-05
-1.47839e-05
3.52212e-05
-1.36445e-05
3.0864e-05
-1.36472e-05
2.77426e-05
-1.33946e-05
2.70808e-05
-9.21888e-06
2.64023e-05
1.75587e-06
2.3435e-05
1.38266e-05
2.15682e-05
1.80348e-05
3.42543e-06
-1.10186e-05
5.25445e-06
-1.16764e-05
8.08547e-06
-9.38909e-06
1.10831e-05
-8.24592e-06
1.36084e-05
-9.83735e-06
1.74028e-05
-9.48032e-06
2.27532e-05
-8.48845e-06
2.80529e-05
-9.56924e-06
3.27446e-05
-1.13028e-05
3.63709e-05
-1.30229e-05
3.96031e-05
-1.4337e-05
4.22628e-05
-1.53452e-05
4.39044e-05
-1.61181e-05
4.46366e-05
-1.63492e-05
4.47039e-05
-1.57468e-05
4.41476e-05
-1.42275e-05
4.26621e-05
-1.2159e-05
3.88886e-05
-9.87368e-06
3.25582e-05
-7.06417e-06
2.75195e-05
-4.18018e-06
2.4488e-05
4.78728e-06
2.0962e-05
1.73526e-05
2.60733e-05
1.64568e-05
2.82832e-06
-1.38469e-05
4.73812e-06
-1.35862e-05
7.56759e-06
-1.22185e-05
1.117e-05
-1.18483e-05
1.41726e-05
-1.28399e-05
1.80624e-05
-1.33702e-05
2.30758e-05
-1.35018e-05
2.78408e-05
-1.43342e-05
3.21965e-05
-1.56585e-05
3.60741e-05
-1.69005e-05
3.96733e-05
-1.79363e-05
4.28952e-05
-1.8567e-05
4.54011e-05
-1.8624e-05
4.71111e-05
-1.80592e-05
4.81141e-05
-1.67497e-05
4.82609e-05
-1.43743e-05
4.73846e-05
-1.12826e-05
4.52752e-05
-7.7642e-06
4.13351e-05
-3.12403e-06
3.51949e-05
1.95998e-06
2.91544e-05
1.08277e-05
2.32557e-05
2.32511e-05
3.23082e-05
1.70207e-05
3.08778e-06
-1.69347e-05
5.95618e-06
-1.64546e-05
9.48338e-06
-1.57457e-05
1.3291e-05
-1.56559e-05
1.67873e-05
-1.63362e-05
2.0507e-05
-1.70899e-05
2.47169e-05
-1.77117e-05
2.91849e-05
-1.88023e-05
3.36447e-05
-2.01183e-05
3.81197e-05
-2.13755e-05
4.25706e-05
-2.23873e-05
4.68933e-05
-2.28898e-05
5.0641e-05
-2.23718e-05
5.36186e-05
-2.10369e-05
5.59418e-05
-1.9073e-05
5.72689e-05
-1.57014e-05
5.7031e-05
-1.10448e-05
5.61429e-05
-6.87605e-06
5.53947e-05
-2.37586e-06
5.14967e-05
5.85794e-06
4.40752e-05
1.82491e-05
3.47625e-05
3.25637e-05
4.16635e-05
2.54071e-05
3.65029e-06
-2.0585e-05
7.2422e-06
-2.00468e-05
1.12523e-05
-1.97563e-05
1.52318e-05
-1.96361e-05
1.8763e-05
-1.98681e-05
2.22512e-05
-2.05786e-05
2.63574e-05
-2.18183e-05
3.09793e-05
-2.34249e-05
3.57768e-05
-2.49169e-05
4.07448e-05
-2.63451e-05
4.5881e-05
-2.75255e-05
5.14775e-05
-2.84883e-05
5.65502e-05
-2.74466e-05
6.06135e-05
-2.51032e-05
6.44607e-05
-2.29246e-05
6.84506e-05
-1.96952e-05
7.09726e-05
-1.35689e-05
7.32657e-05
-9.17126e-06
7.41931e-05
-3.30399e-06
7.13244e-05
8.72636e-06
6.33379e-05
2.62355e-05
5.30351e-05
4.28665e-05
5.15865e-05
4.3112e-05
8.6067e-06
-2.91917e-05
1.64143e-05
-2.78543e-05
2.13576e-05
-2.46994e-05
1.96376e-05
-1.79159e-05
1.70682e-05
-1.72984e-05
1.91791e-05
-2.26893e-05
2.83054e-05
-3.09444e-05
3.62564e-05
-3.13758e-05
4.22615e-05
-3.09218e-05
4.83391e-05
-3.24223e-05
5.41847e-05
-3.33708e-05
6.44729e-05
-3.87761e-05
7.56281e-05
-3.86016e-05
7.93186e-05
-2.87934e-05
7.81303e-05
-2.17355e-05
7.51602e-05
-1.67248e-05
7.14489e-05
-9.85782e-06
5.90995e-05
3.17762e-06
5.90932e-05
-3.29779e-06
6.88935e-05
-1.0749e-06
6.98712e-05
2.52571e-05
6.91169e-05
4.36212e-05
4.95836e-05
7.11206e-05
2.57915e-06
-3.17707e-05
3.51621e-06
-2.87911e-05
5.77112e-06
-2.69537e-05
1.34621e-05
-2.56059e-05
2.16905e-05
-2.55259e-05
2.80181e-05
-2.90161e-05
3.10295e-05
-3.3955e-05
3.63372e-05
-3.66824e-05
4.33336e-05
-3.79165e-05
5.02412e-05
-3.93277e-05
5.78241e-05
-4.0951e-05
6.23419e-05
-4.32911e-05
6.6277e-05
-4.25337e-05
7.45516e-05
-3.7064e-05
8.38888e-05
-3.10673e-05
9.0655e-05
-2.34863e-05
8.96462e-05
-8.84627e-06
8.51003e-05
7.72567e-06
7.71399e-05
4.66296e-06
6.70323e-05
9.03222e-06
7.25899e-05
1.96992e-05
8.48108e-05
3.14004e-05
3.601e-05
9.83847e-05
1.54438e-06
-3.33155e-05
4.00164e-06
-3.12485e-05
6.92326e-06
-2.98755e-05
1.10132e-05
-2.96959e-05
1.60152e-05
-3.05279e-05
1.97746e-05
-3.27755e-05
2.19859e-05
-3.61662e-05
2.43431e-05
-3.90394e-05
2.74007e-05
-4.09738e-05
3.08705e-05
-4.27971e-05
3.43996e-05
-4.44797e-05
3.64641e-05
-4.5355e-05
3.8431e-05
-4.44998e-05
4.29904e-05
-4.16226e-05
5.07408e-05
-3.88168e-05
6.14071e-05
-3.41517e-05
7.60335e-05
-2.34718e-05
8.98793e-05
-6.1193e-06
8.59588e-05
8.58342e-06
7.52182e-05
1.9773e-05
8.09578e-05
1.39602e-05
9.65842e-05
1.57728e-05
2.58358e-05
0.000106758
1.59925e-07
-3.34755e-05
1.44047e-06
-3.25292e-05
3.09005e-06
-3.15252e-05
4.90233e-06
-3.15083e-05
6.83483e-06
-3.24605e-05
8.25238e-06
-3.41931e-05
8.80113e-06
-3.6715e-05
8.95158e-06
-3.91899e-05
9.04031e-06
-4.10625e-05
9.22839e-06
-4.29851e-05
9.08648e-06
-4.43377e-05
8.05833e-06
-4.43267e-05
6.84923e-06
-4.32905e-05
6.96361e-06
-4.17366e-05
8.92174e-06
-4.07745e-05
1.28978e-05
-3.81272e-05
2.12424e-05
-3.18159e-05
3.72752e-05
-2.21517e-05
5.54766e-05
-9.61741e-06
7.10261e-05
4.22411e-06
7.74279e-05
7.55808e-06
8.43019e-05
8.8994e-06
2.72314e-05
8.29059e-05
-5.8411e-07
-3.28913e-05
-4.23048e-07
-3.26902e-05
-1.39914e-07
-3.18083e-05
3.47058e-08
-3.16829e-05
2.39825e-08
-3.24498e-05
-3.39244e-07
-3.38299e-05
-1.4003e-06
-3.56539e-05
-3.00432e-06
-3.75859e-05
-4.98707e-06
-3.90797e-05
-7.19265e-06
-4.07795e-05
-9.75898e-06
-4.17713e-05
-1.27252e-05
-4.13605e-05
-1.5603e-05
-4.04126e-05
-1.73876e-05
-3.99519e-05
-1.84916e-05
-3.96703e-05
-1.92407e-05
-3.73777e-05
-1.86814e-05
-3.23747e-05
-1.60994e-05
-2.47331e-05
-1.00781e-05
-1.56381e-05
-1.60436e-06
-4.24883e-06
1.47214e-06
4.4832e-06
-6.23603e-06
1.66082e-05
4.00868e-05
-1.90872e-05
-1.01798e-06
-3.1873e-05
-1.74824e-06
-3.19596e-05
-2.41593e-06
-3.11403e-05
-3.22196e-06
-3.08767e-05
-4.29799e-06
-3.13735e-05
-5.72393e-06
-3.24038e-05
-7.608e-06
-3.37697e-05
-9.96422e-06
-3.52295e-05
-1.25942e-05
-3.64496e-05
-1.57149e-05
-3.76586e-05
-1.91497e-05
-3.83365e-05
-2.26851e-05
-3.7825e-05
-2.6232e-05
-3.68656e-05
-2.98848e-05
-3.62988e-05
-3.37891e-05
-3.57658e-05
-3.76869e-05
-3.34795e-05
-4.14106e-05
-2.86505e-05
-4.44013e-05
-2.17418e-05
-4.66115e-05
-1.34271e-05
-4.77763e-05
-3.08326e-06
-5.08861e-05
7.59404e-06
-5.73546e-05
2.30778e-05
4.46836e-05
-6.19507e-05
-1.24882e-06
-3.06235e-05
-2.44551e-06
-3.07623e-05
-3.61603e-06
-2.99693e-05
-4.86514e-06
-2.96271e-05
-6.32177e-06
-2.99165e-05
-8.06653e-06
-3.06587e-05
-1.01631e-05
-3.16728e-05
-1.26337e-05
-3.27585e-05
-1.53784e-05
-3.37046e-05
-1.86211e-05
-3.44156e-05
-2.23015e-05
-3.46558e-05
-2.60606e-05
-3.40657e-05
-2.98834e-05
-3.30425e-05
-3.4178e-05
-3.20039e-05
-3.92256e-05
-3.07178e-05
-4.45668e-05
-2.81379e-05
-4.98324e-05
-2.33843e-05
-5.47434e-05
-1.68301e-05
-5.91224e-05
-9.04752e-06
-6.25222e-05
3.17331e-07
-6.65623e-05
1.16351e-05
-7.01554e-05
2.66709e-05
4.44105e-05
-6.98819e-05
-1.40987e-06
-2.92129e-05
-2.83722e-06
-2.93343e-05
-4.18881e-06
-2.86171e-05
-5.54392e-06
-2.82715e-05
-7.03389e-06
-2.8426e-05
-8.75845e-06
-2.89336e-05
-1.0782e-05
-2.96488e-05
-1.31474e-05
-3.03927e-05
-1.58531e-05
-3.09985e-05
-1.89412e-05
-3.13272e-05
-2.24027e-05
-3.11939e-05
-2.59967e-05
-3.04713e-05
-2.97199e-05
-2.93189e-05
-3.38506e-05
-2.78728e-05
-3.86666e-05
-2.59014e-05
-4.39743e-05
-2.28296e-05
-4.91496e-05
-1.82085e-05
-5.37971e-05
-1.21819e-05
-5.77839e-05
-5.06001e-06
-6.10224e-05
3.55638e-06
-6.35715e-05
1.41845e-05
-6.45276e-05
2.76276e-05
4.22649e-05
-6.23818e-05
-1.54498e-06
-2.76671e-05
-3.11558e-06
-2.77629e-05
-4.56062e-06
-2.71714e-05
-5.95146e-06
-2.688e-05
-7.40928e-06
-2.69677e-05
-9.03748e-06
-2.73049e-05
-1.09188e-05
-2.77669e-05
-1.31053e-05
-2.82057e-05
-1.56186e-05
-2.84848e-05
-1.84588e-05
-2.84866e-05
-2.15652e-05
-2.8087e-05
-2.4825e-05
-2.7211e-05
-2.8251e-05
-2.58925e-05
-3.1987e-05
-2.41363e-05
-3.61033e-05
-2.17846e-05
-4.04269e-05
-1.85055e-05
-4.45356e-05
-1.40992e-05
-4.81376e-05
-8.57934e-06
-5.1018e-05
-2.17912e-06
-5.30228e-05
5.56169e-06
-5.37576e-05
1.49198e-05
-5.26899e-05
2.65597e-05
3.89361e-05
-4.93603e-05
-1.68382e-06
-2.59827e-05
-3.37635e-06
-2.60698e-05
-4.91795e-06
-2.56292e-05
-6.36339e-06
-2.54341e-05
-7.82319e-06
-2.55074e-05
-9.39043e-06
-2.57372e-05
-1.11459e-05
-2.60111e-05
-1.31431e-05
-2.6208e-05
-1.54064e-05
-2.6221e-05
-1.79317e-05
-2.59608e-05
-2.06724e-05
-2.53458e-05
-2.3561e-05
-2.43219e-05
-2.65792e-05
-2.28738e-05
-2.97594e-05
-2.09556e-05
-3.30793e-05
-1.84642e-05
-3.63733e-05
-1.52109e-05
-3.93844e-05
-1.10876e-05
-4.1807e-05
-6.15616e-06
-4.3554e-05
-4.31661e-07
-4.42419e-05
6.24981e-06
-4.34293e-05
1.41072e-05
-4.063e-05
2.37611e-05
3.44345e-05
-3.61281e-05
-1.81353e-06
-2.41684e-05
-3.61917e-06
-2.42635e-05
-5.26054e-06
-2.39873e-05
-6.77802e-06
-2.39161e-05
-8.26127e-06
-2.40237e-05
-9.79037e-06
-2.42077e-05
-1.14379e-05
-2.43631e-05
-1.32538e-05
-2.43917e-05
-1.52655e-05
-2.42089e-05
-1.74739e-05
-2.3752e-05
-1.98482e-05
-2.2971e-05
-2.23439e-05
-2.18258e-05
-2.4929e-05
-2.02882e-05
-2.75655e-05
-1.83187e-05
-3.01928e-05
-1.58364e-05
-3.26574e-05
-1.27458e-05
-3.47645e-05
-8.98015e-06
-3.6312e-05
-4.60823e-06
-3.71382e-05
3.94803e-07
-3.69198e-05
6.03157e-06
-3.52667e-05
1.24543e-05
-3.16671e-05
2.01611e-05
2.89744e-05
-2.62065e-05
-1.93141e-06
-2.22366e-05
-3.83586e-06
-2.23586e-05
-5.56163e-06
-2.22611e-05
-7.1381e-06
-2.23392e-05
-8.63357e-06
-2.25278e-05
-1.01162e-05
-2.27247e-05
-1.16489e-05
-2.28301e-05
-1.32826e-05
-2.27577e-05
-1.5048e-05
-2.24432e-05
-1.69536e-05
-2.1846e-05
-1.89843e-05
-2.09398e-05
-2.11067e-05
-1.97031e-05
-2.32788e-05
-1.81156e-05
-2.54474e-05
-1.61497e-05
-2.75288e-05
-1.37546e-05
-2.93851e-05
-1.08892e-05
-3.08594e-05
-7.50543e-06
-3.17695e-05
-3.69783e-06
-3.20076e-05
6.33091e-07
-3.13284e-05
5.35243e-06
-2.94422e-05
1.0568e-05
-2.58841e-05
1.66033e-05
2.34713e-05
-2.03809e-05
-2.02894e-06
-2.02072e-05
-4.01333e-06
-2.03739e-05
-5.80189e-06
-2.04722e-05
-7.41249e-06
-2.07283e-05
-8.89567e-06
-2.10444e-05
-1.03095e-05
-2.13105e-05
-1.17146e-05
-2.14247e-05
-1.31647e-05
-2.13072e-05
-1.46964e-05
-2.09112e-05
-1.63258e-05
-2.02163e-05
-1.80459e-05
-1.92193e-05
-1.98303e-05
-1.79184e-05
-2.16374e-05
-1.63081e-05
-2.34102e-05
-1.43766e-05
-2.50617e-05
-1.21027e-05
-2.64861e-05
-9.46447e-06
-2.75434e-05
-6.44789e-06
-2.81037e-05
-3.13725e-06
-2.80294e-05
5.58857e-07
-2.7176e-05
4.49901e-06
-2.53443e-05
8.73633e-06
-2.21863e-05
1.34449e-05
1.86047e-05
-1.73193e-05
-2.10743e-06
-1.80997e-05
-4.15323e-06
-1.83279e-05
-5.97938e-06
-1.86459e-05
-7.59793e-06
-1.91096e-05
-9.0434e-06
-1.95987e-05
-1.0369e-05
-1.99847e-05
-1.16364e-05
-2.0157e-05
-1.29051e-05
-2.00383e-05
-1.42208e-05
-1.95953e-05
-1.56049e-05
-1.88319e-05
-1.7056e-05
-1.77679e-05
-1.85509e-05
-1.64232e-05
-2.00493e-05
-1.48094e-05
-2.14959e-05
-1.29297e-05
-2.28175e-05
-1.07808e-05
-2.39278e-05
-8.35399e-06
-2.46986e-05
-5.67679e-06
-2.50679e-05
-2.76782e-06
-2.48797e-05
3.70765e-07
-2.40427e-05
3.66195e-06
-2.24127e-05
7.1061e-06
-1.97501e-05
1.07825e-05
1.46101e-05
-1.57553e-05
-2.16534e-06
-1.59342e-05
-4.25304e-06
-1.62401e-05
-6.09927e-06
-1.67995e-05
-7.70168e-06
-1.75071e-05
-9.08976e-06
-1.82105e-05
-1.03114e-05
-1.87629e-05
-1.14347e-05
-1.90335e-05
-1.25276e-05
-1.89452e-05
-1.3642e-05
-1.84807e-05
-1.48072e-05
-1.76664e-05
-1.60264e-05
-1.65485e-05
-1.72788e-05
-1.51706e-05
-1.85253e-05
-1.35626e-05
-1.97124e-05
-1.17425e-05
-2.07768e-05
-9.71614e-06
-2.1642e-05
-7.4886e-06
-2.22392e-05
-5.07939e-06
-2.24769e-05
-2.53001e-06
-2.22691e-05
1.63041e-07
-2.15384e-05
2.93115e-06
-2.01819e-05
5.74954e-06
-1.80398e-05
8.64023e-06
1.14935e-05
-1.4923e-05
-2.20711e-06
-1.37272e-05
-4.31904e-06
-1.41282e-05
-6.1634e-06
-1.49552e-05
-7.731e-06
-1.59394e-05
-9.0447e-06
-1.68967e-05
-1.01544e-05
-1.76532e-05
-1.11348e-05
-1.80529e-05
-1.20594e-05
-1.80205e-05
-1.29871e-05
-1.75529e-05
-1.39537e-05
-1.66997e-05
-1.49675e-05
-1.55345e-05
-1.6012e-05
-1.4126e-05
-1.70514e-05
-1.2523e-05
-1.80366e-05
-1.07571e-05
-1.89094e-05
-8.84317e-06
-1.96048e-05
-6.79309e-06
-2.00618e-05
-4.62225e-06
-2.02276e-05
-2.36418e-06
-2.00235e-05
-4.09613e-08
-1.9409e-05
2.31658e-06
-1.83129e-05
4.65321e-06
-1.66403e-05
6.96773e-06
9.14687e-06
-1.42936e-05
-2.23149e-06
-1.14958e-05
-4.35265e-06
-1.20072e-05
-6.17959e-06
-1.31283e-05
-7.69789e-06
-1.44212e-05
-8.92663e-06
-1.5668e-05
-9.9241e-06
-1.66557e-05
-1.07707e-05
-1.72062e-05
-1.15423e-05
-1.72488e-05
-1.22996e-05
-1.67955e-05
-1.30842e-05
-1.5915e-05
-1.39115e-05
-1.47071e-05
-1.47711e-05
-1.32662e-05
-1.56333e-05
-1.16607e-05
-1.64544e-05
-9.9358e-06
-1.71794e-05
-8.11807e-06
-1.77541e-05
-6.21824e-06
-1.81242e-05
-4.25209e-06
-1.82464e-05
-2.24191e-06
-1.80564e-05
-2.30986e-07
-1.75449e-05
1.80497e-06
-1.66575e-05
3.76579e-06
-1.53472e-05
5.65725e-06
7.38504e-06
-1.35852e-05
-2.24465e-06
-9.25144e-06
-4.36043e-06
-9.89161e-06
-6.1583e-06
-1.13306e-05
-7.61663e-06
-1.2963e-05
-8.75635e-06
-1.45283e-05
-9.64872e-06
-1.57633e-05
-1.03813e-05
-1.64736e-05
-1.10224e-05
-1.66077e-05
-1.16296e-05
-1.61883e-05
-1.22492e-05
-1.52953e-05
-1.29029e-05
-1.40532e-05
-1.35909e-05
-1.25782e-05
-1.42923e-05
-1.09593e-05
-1.497e-05
-9.25797e-06
-1.55763e-05
-7.51171e-06
-1.606e-05
-5.7345e-06
-1.63723e-05
-3.9397e-06
-1.64716e-05
-2.14264e-06
-1.63308e-05
-3.7178e-07
-1.5905e-05
1.37905e-06
-1.5182e-05
3.04265e-06
-1.414e-05
4.61528e-06
6.02379e-06
-1.27786e-05
-2.25047e-06
-7.00121e-06
-4.35514e-06
-7.78718e-06
-6.11664e-06
-9.5693e-06
-7.50817e-06
-1.15716e-05
-8.55821e-06
-1.34784e-05
-9.35817e-06
-1.49634e-05
-1.00009e-05
-1.5831e-05
-1.05363e-05
-1.60723e-05
-1.10164e-05
-1.57081e-05
-1.14903e-05
-1.48215e-05
-1.19851e-05
-1.35584e-05
-1.25093e-05
-1.20538e-05
-1.30553e-05
-1.04133e-05
-1.35984e-05
-8.7148e-06
-1.40994e-05
-7.01069e-06
-1.45091e-05
-5.32471e-06
-1.47828e-05
-3.66601e-06
-1.4882e-05
-2.04342e-06
-1.47822e-05
-4.71697e-07
-1.4449e-05
1.04582e-06
-1.38723e-05
2.46588e-06
-1.30424e-05
3.78518e-06
4.95084e-06
-1.19693e-05
-2.25562e-06
-4.74594e-06
-4.35086e-06
-5.69224e-06
-6.07249e-06
-7.8479e-06
-7.39356e-06
-1.02507e-05
-8.3548e-06
-1.25173e-05
-9.07621e-06
-1.42421e-05
-9.64827e-06
-1.5259e-05
-1.00973e-05
-1.56234e-05
-1.0473e-05
-1.53324e-05
-1.0825e-05
-1.44695e-05
-1.11798e-05
-1.32036e-05
-1.15523e-05
-1.16814e-05
-1.19478e-05
-1.00178e-05
-1.23561e-05
-8.30653e-06
-1.27528e-05
-6.61395e-06
-1.30936e-05
-4.98391e-06
-1.33353e-05
-3.42431e-06
-1.34409e-05
-1.93785e-06
-1.33838e-05
-5.28842e-07
-1.31392e-05
8.01085e-07
-1.26961e-05
2.02265e-06
-1.20475e-05
3.13658e-06
4.10305e-06
-1.11997e-05
-2.25591e-06
-2.49034e-06
-4.3415e-06
-3.60694e-06
-6.02366e-06
-6.16598e-06
-7.27565e-06
-8.99891e-06
-8.16304e-06
-1.16301e-05
-8.82163e-06
-1.35837e-05
-9.32304e-06
-1.47577e-05
-9.68987e-06
-1.52566e-05
-9.98105e-06
-1.50412e-05
-1.02402e-05
-1.42104e-05
-1.04838e-05
-1.29601e-05
-1.0724e-05
-1.14411e-05
-1.09772e-05
-9.76466e-06
-1.12525e-05
-8.03122e-06
-1.15383e-05
-6.32812e-06
-1.18072e-05
-4.71503e-06
-1.20152e-05
-3.21638e-06
-1.21258e-05
-1.82728e-06
-1.21071e-05
-5.47576e-07
-1.19432e-05
6.37079e-07
-1.16186e-05
1.69792e-06
-1.11254e-05
2.64333e-06
3.44573e-06
-1.0468e-05
-2.22665e-06
-2.6402e-07
-4.2938e-06
-1.54009e-06
-5.93579e-06
-4.52424e-06
-7.12485e-06
-7.81005e-06
-7.97624e-06
-1.07788e-05
-8.58548e-06
-1.29746e-05
-8.99047e-06
-1.43528e-05
-9.26735e-06
-1.49798e-05
-9.49337e-06
-1.48153e-05
-9.69298e-06
-1.40108e-05
-9.86356e-06
-1.27895e-05
-1.00065e-05
-1.12982e-05
-1.01383e-05
-9.63288e-06
-1.02843e-05
-7.88527e-06
-1.04563e-05
-6.15622e-06
-1.06429e-05
-4.52845e-06
-1.0809e-05
-3.05035e-06
-1.09143e-05
-1.72201e-06
-1.09322e-05
-5.29769e-07
-1.08342e-05
5.38975e-07
-1.06107e-05
1.47438e-06
-1.02509e-05
2.28351e-06
2.94606e-06
-9.75122e-06
-2.14395e-06
1.87962e-06
-4.16906e-06
4.84735e-07
-5.76124e-06
-2.93231e-06
-6.90068e-06
-6.6708e-06
-7.74124e-06
-9.93844e-06
-8.29086e-06
-1.24251e-05
-8.57403e-06
-1.40697e-05
-8.76783e-06
-1.47861e-05
-8.95196e-06
-1.46312e-05
-9.12428e-06
-1.38386e-05
-9.26383e-06
-1.26501e-05
-9.35464e-06
-1.12075e-05
-9.40332e-06
-9.58426e-06
-9.43946e-06
-7.84919e-06
-9.49803e-06
-6.09772e-06
-9.59198e-06
-4.43456e-06
-9.70462e-06
-2.93778e-06
-9.79655e-06
-1.63014e-06
-9.83326e-06
-4.93134e-07
-9.7891e-06
4.9471e-07
-9.64843e-06
1.33363e-06
-9.39852e-06
2.0335e-06
2.58176e-06
-9.03414e-06
-2.00516e-06
3.88451e-06
-3.93337e-06
2.41269e-06
-5.45949e-06
-1.40641e-06
-6.57927e-06
-5.5512e-06
-7.38581e-06
-9.13205e-06
-7.82818e-06
-1.19828e-05
-8.00271e-06
-1.38953e-05
-8.14446e-06
-1.46445e-05
-8.31462e-06
-1.44612e-05
-8.49017e-06
-1.36631e-05
-8.63421e-06
-1.25061e-05
-8.7168e-06
-1.1125e-05
-8.72904e-06
-9.57209e-06
-8.69104e-06
-7.88726e-06
-8.64951e-06
-6.13932e-06
-8.64547e-06
-4.43867e-06
-8.69011e-06
-2.8932e-06
-8.7535e-06
-1.56682e-06
-8.7967e-06
-4.50015e-07
-8.79056e-06
4.88457e-07
-8.71551e-06
1.25849e-06
-8.55485e-06
1.87281e-06
2.32587e-06
-8.29895e-06
-1.81153e-06
5.69578e-06
-3.58678e-06
4.18771e-06
-5.01857e-06
2.51853e-08
-6.09901e-06
-4.47093e-06
-6.84182e-06
-8.38938e-06
-7.14048e-06
-1.16843e-05
-7.24422e-06
-1.37917e-05
-7.37144e-06
-1.45173e-05
-7.55385e-06
-1.42789e-05
-7.75718e-06
-1.34598e-05
-7.93533e-06
-1.2328e-05
-8.04602e-06
-1.10144e-05
-8.06642e-06
-9.55176e-06
-8.00094e-06
-7.95282e-06
-7.88978e-06
-6.25055e-06
-7.79329e-06
-4.53524e-06
-7.75569e-06
-2.93088e-06
-7.7735e-06
-1.54909e-06
-7.80946e-06
-4.14141e-07
-7.82503e-06
5.03922e-07
-7.79713e-06
1.23051e-06
-7.70589e-06
1.78146e-06
2.15826e-06
-7.53823e-06
-1.54656e-06
7.24216e-06
-3.12524e-06
5.7662e-06
-4.4167e-06
1.31648e-06
-5.41613e-06
-3.47165e-06
-6.03412e-06
-7.77151e-06
-6.20811e-06
-1.15104e-05
-6.28741e-06
-1.37125e-05
-6.43547e-06
-1.43694e-05
-6.65698e-06
-1.40574e-05
-6.90883e-06
-1.32081e-05
-7.14071e-06
-1.20962e-05
-7.30637e-06
-1.08488e-05
-7.37203e-06
-9.48618e-06
-7.32656e-06
-7.99839e-06
-7.18893e-06
-6.38827e-06
-7.02189e-06
-4.70236e-06
-6.89569e-06
-3.05716e-06
-6.85131e-06
-1.59355e-06
-6.86172e-06
-4.03817e-07
-6.88419e-06
5.26283e-07
-6.88752e-06
1.23375e-06
-6.84779e-06
1.74169e-06
2.05756e-06
-6.74709e-06
-1.21044e-06
8.45241e-06
-2.54599e-06
7.1016e-06
-3.64341e-06
2.41375e-06
-4.50146e-06
-2.61372e-06
-4.93468e-06
-7.3384e-06
-5.02878e-06
-1.14164e-05
-5.13447e-06
-1.36069e-05
-5.34102e-06
-1.41629e-05
-5.63147e-06
-1.37671e-05
-5.94975e-06
-1.28899e-05
-6.24626e-06
-1.17998e-05
-6.47825e-06
-1.06169e-05
-6.6102e-06
-9.35432e-06
-6.61916e-06
-7.98951e-06
-6.50588e-06
-6.50163e-06
-6.30877e-06
-4.89956e-06
-6.10764e-06
-3.25837e-06
-5.98415e-06
-1.71712e-06
-5.95029e-06
-4.37761e-07
-5.9653e-06
5.41202e-07
-5.98529e-06
1.25366e-06
-5.98043e-06