/*--------------------------------*- C++ -*----------------------------------*\
| =========                 |                                                 |
| \\      /  F ield         | OpenFOAM: The Open Source CFD Toolbox           |
|  \\    /   O peration     | Version:  2312                                  |
|   \\  /    A nd           | Website:  www.openfoam.com                      |
|    \\/     M anipulation  |                                                 |
\*---------------------------------------------------------------------------*/
FoamFile
{
    version     2.0;
    format      ascii;
    arch        "LSB;label=32;scalar=64";
    class       volScalarField;
    location    "5.7";
    object      alpha.oil;
}
// * * * * * * * * * * * * * * * * * * * * * * * * * * * * * * * * * * * * * //

dimensions      [0 0 0 0 0 0 0];

internalField   nonuniform List<scalar> 
2268
(
1.49446e-09
1.05307e-09
1.24193e-09
4.11652e-09
1.3108e-08
1.71098e-08
1.5333e-08
1.01428e-08
5.57238e-09
3.4911e-09
2.61943e-09
2.16023e-09
1.81629e-09
1.64468e-09
1.74724e-09
2.23979e-09
2.92354e-09
3.41293e-09
3.42202e-09
3.42864e-09
3.16983e-05
4.11002e-05
4.11744e-05
2.70155e-09
1.05204e-09
2.31782e-09
2.5168e-08
4.88576e-08
5.34725e-08
4.83904e-08
3.43063e-08
1.82189e-08
1.07815e-08
6.57614e-09
4.7202e-09
3.81216e-09
3.21969e-09
2.34599e-09
5.72775e-09
2.38843e-08
3.43744e-08
1.75825e-08
3.43445e-09
1.00511e-05
3.46073e-05
2.26253e-05
1.78863e-08
1.16012e-08
1.29338e-08
2.64579e-08
4.62335e-08
4.85696e-08
4.205e-08
3.79942e-08
5.22181e-08
2.54138e-08
1.52175e-08
9.94346e-09
7.06669e-09
3.7087e-09
2.24329e-09
2.23952e-09
3.91684e-08
9.39585e-08
1.03793e-07
1.02617e-07
1.22171e-08
2.85188e-06
1.6664e-07
1.36115e-07
1.31337e-07
1.51165e-07
1.79606e-07
2.0471e-07
2.00452e-07
1.65598e-07
7.11108e-08
1.18907e-06
1.6015e-07
7.86327e-08
1.47556e-08
2.24487e-09
2.24335e-09
2.23368e-09
2.5e-07
7.31915e-08
2.89481e-08
3.56151e-08
2.67872e-08
1.21407e-08
1.57621e-09
1.62496e-09
0.00101182
0.00107271
0.00144734
0.00181649
0.0017084
0.00108674
0.000406999
2.87024e-05
1.43053e-05
7.35016e-05
0.00010212
0.000120862
0.000192654
0.000128428
6.55901e-05
2.52088e-05
1.63432e-09
1.61562e-09
1.54867e-09
1.53103e-09
1.46404e-09
1.52082e-09
1.97447e-09
0.00424557
0.00439519
0.00449793
0.00450023
0.00449794
0.00450023
0.00288767
0.00036342
1.46169e-05
0.000149239
0.000478271
0.000765017
0.000765133
0.000765017
0.000246917
1.72713e-05
0.00482012
0.0096648
0.0212389
0.0157428
0.00870238
0.00401383
1.94994e-09
0.00175945
0.00177975
0.00204152
0.00264927
0.0027958
0.0026937
0.00200257
0.000510025
5.41105e-05
7.90882e-05
0.000357989
0.000708913
0.000735591
0.000670567
0.000254352
1.70096e-05
0.0118558
0.072378
0.0829852
0.082813
0.0807507
0.0782084
0.0603441
-3.64668e-12
4.07094e-06
1.70979e-05
2.16835e-14
-1.9015e-28
-8.33365e-17
-9.09561e-16
5.41181e-05
7.42949e-05
1.71206e-05
-2.206e-24
6.83514e-05
0.000136475
0.00014933
0.000365103
0.00460684
0.0332368
0.0690234
0.0802773
0.0801664
0.0824579
0.0824637
0.0824579
0.0283724
0.0282856
0.0277536
0.0266963
0.0264879
0.0264879
0.0265015
0.0264879
0.0264879
0.0264879
0.0264879
0.0264879
0.0264879
0.0268621
0.0267638
0.0267592
0.0267766
0.0268606
0.026854
0.0856621
0.0519305
0.0324559
0.0310015
0.030201
0.0308828
0.0321688
0.0354786
0.0408251
0.0492834
0.0528935
0.0508141
0.0480766
0.0430991
0.0424521
0.0437275
0.0614458
0.0833483
0.101207
0.224773
0.224435
0.213511
0.204516
0.199099
0.189371
0.177703
0.167698
0.166778
0.202169
0.249089
0.271738
0.285357
0.320602
0.371414
0.405952
0.413912
0.420943
0.433432
0.224871
0.140869
0.199271
0.210909
0.210908
0.209014
0.178218
0.118645
0.0874257
0.0832397
0.0910391
0.141047
0.229527
0.280776
0.361409
0.482244
0.457364
0.287345
0.423421
0.0941662
0.00534526
0.0215411
0.0412414
0.0486804
0.0543658
0.0127279
0.00156428
0.00154576
0.00173604
0.00178478
0.00181711
0.00767314
0.0160901
0.0163204
0.272426
0.135753
0.0220138
0.14071
0.00583285
0.00182152
0.0016024
0.00208569
0.00271984
0.00227357
0.0019901
0.00186165
0.00205228
0.00272271
0.0017765
0.00308549
0.00793025
0.0207027
0.0183003
0.235667
0.12148
0.0220804
0.153711
0.00296819
0.00158176
0.00147851
0.00147854
0.00148037
0.00241603
0.0021179
0.00257865
0.00338038
0.00181412
0.00178203
0.00588356
0.00608568
0.0437924
0.134488
0.203633
0.0382167
0.021645
0.161409
0.00235953
0.00358342
0.00148536
0.00147852
0.00150666
0.0019544
0.00261552
0.00321543
0.00337128
0.00190989
0.0369508
0.0935697
0.0845993
0.107519
0.0560679
0.032577
0.0202595
0.0207713
0.160643
-3.08299e-12
-6.31512e-09
-4.19864e-08
-1.01943e-14
-2.83462e-20
-5.39573e-20
-3.49436e-20
-3.44027e-08
-1.58336e-20
-8.04501e-09
-4.12229e-19
-3.29147e-08
-1.43706e-07
7.23728e-06
0.000136976
0.000277386
0.00101981
0.0016885
0.00298817
0.00392605
0.00824751
0.0104957
0.00608147
0.000230839
0.0226996
0.0645828
0.129913
0.200505
0.198373
0.139708
0.0882563
0.0728369
0.0662218
0.0635557
0.0538145
0.0258715
3.08396e-06
3.08349e-06
3.1054e-06
3.09049e-06
4.74692e-06
4.83569e-06
4.76101e-06
4.39575e-06
3.21746e-06
1.53413e-06
0.543522
0.609917
0.662348
0.735841
0.872126
0.912275
0.886155
0.777238
0.703773
0.667946
0.660062
0.65906
0.671418
0.674756
0.593192
0.475839
0.406314
0.391328
0.389278
0.371928
0.361367
0.376883
0.411093
0.982338
0.992572
0.988116
0.972471
0.98076
0.998977
0.9989
0.978473
0.917928
0.919003
0.957427
0.999122
0.995755
0.984219
0.966213
0.964007
0.978199
0.981081
0.980277
0.977961
0.975953
0.970412
0.945618
0.99968
0.999679
0.999672
0.99647
0.997895
0.999665
0.981983
0.925003
0.91833
0.957063
0.999812
0.999812
0.999812
0.999812
0.999683
0.999663
0.999815
0.999815
0.999815
0.999718
0.999641
0.99957
0.997187
0.99968
0.99968
0.999679
0.999679
0.999679
0.999678
0.994512
0.975963
0.985678
0.999764
0.999813
0.999812
0.999812
0.999812
0.999798
0.999803
0.999815
0.999815
0.999815
0.998897
0.993857
0.994367
0.998418
0.999546
0.999679
0.999637
0.999643
0.999527
0.996713
0.996688
0.996642
0.980386
0.954457
0.924123
0.899384
0.888106
0.900268
0.925951
0.953236
0.976301
0.992883
0.995071
0.998535
0.995402
0.982638
0.978603
0.92229
0.919136
0.894332
0.836769
0.77444
0.713056
0.632699
0.515288
0.382301
0.282433
0.212231
0.173607
0.157716
0.159544
0.171243
0.195801
0.232329
0.302502
0.413243
0.515558
0.604929
0.67049
0.724851
0.184643
0.177978
0.170752
0.160936
0.133909
0.0917455
0.0411788
0.0069699
-1.63536e-18
2.32561e-19
3.48947e-20
-2.93281e-19
1.59253e-19
-2.18492e-20
-3.63022e-19
1.63358e-20
-1.65683e-14
-3.42543e-09
0.00112901
0.0107758
0.0251557
0.045227
0.0720897
1.15629e-18
1.02984e-19
1.70293e-21
-1.54777e-21
-1.48882e-22
7.4255e-18
-1.01501e-13
-4.96701e-11
-2.18844e-12
-5.78817e-14
-5.85496e-16
8.00147e-07
3.90251e-07
5.25889e-06
1.29751e-05
1.63868e-05
1.4212e-05
1.73519e-06
6.50432e-07
2.11545e-07
3.05176e-07
1.52845e-07
9.47492e-14
3.24532e-09
7.58184e-10
2.60156e-10
1.18585e-27
-1.52425e-26
-7.43639e-18
2.80396e-10
1.38572e-08
6.80839e-08
8.75213e-08
1.14318e-08
2.10153e-07
1.21124e-05
2.82217e-05
2.82284e-05
2.82218e-05
2.82284e-05
2.42119e-05
4.4956e-06
2.46514e-06
6.05037e-06
1.07975e-05
6.77146e-06
9.57619e-09
3.86261e-09
5.51565e-09
1.08498e-08
1.64834e-08
3.66145e-08
8.25544e-08
1.18919e-07
1.63114e-07
2.4246e-07
2.82981e-08
1.14839e-06
1.62563e-05
2.28314e-05
1.78566e-05
1.72524e-05
2.38747e-05
1.86034e-05
4.46993e-06
1.43818e-05
1.7531e-05
1.75468e-05
1.14429e-05
1.27761e-08
6.88614e-09
4.19402e-08
9.06723e-08
1.27542e-07
2.01485e-07
2.01749e-07
1.52421e-07
1.41916e-07
7.59511e-07
1.72194e-06
1.45854e-06
3.25313e-06
2.61323e-06
1.22178e-06
3.54658e-07
1.99478e-06
3.19888e-06
1.2681e-05
1.50542e-05
1.13073e-05
4.99074e-07
3.85003e-08
1.32905e-08
9.00999e-09
6.72283e-08
1.20862e-07
1.8206e-07
2.01714e-07
1.62456e-07
8.63199e-08
8.00864e-08
3.44074e-07
8.29129e-07
3.53512e-07
2.33144e-07
1.55383e-07
9.20047e-09
3.57161e-09
3.58343e-09
4.12339e-06
1.61604e-05
1.0779e-05
5.57427e-08
4.36137e-08
4.22147e-08
1.14827e-08
2.17111e-08
6.46467e-08
9.4821e-08
1.22717e-07
1.07933e-07
7.43524e-08
5.18491e-08
4.61992e-08
5.30912e-08
8.60205e-08
3.0234e-08
2.08729e-08
1.69226e-08
7.67975e-09
3.58343e-09
3.57162e-09
3.56169e-06
1.25378e-05
9.16433e-07
4.15063e-07
2.2189e-07
3.14621e-07
1.01592e-08
2.34805e-08
3.98077e-08
4.55347e-08
4.344e-08
3.70217e-08
3.12237e-08
2.61909e-08
2.12116e-08
1.6852e-08
1.98434e-08
1.3373e-08
1.37376e-08
1.32955e-08
1.03271e-08
6.28027e-09
1.6833e-08
1.06846e-06
1.61452e-07
2.17619e-07
1.85549e-06
9.59984e-07
7.75619e-07
8.47477e-09
1.63815e-08
2.00163e-08
1.74208e-08
1.58745e-08
1.56746e-08
1.47122e-08
1.2019e-08
8.89922e-09
6.65719e-09
7.00153e-09
8.2703e-09
9.68575e-09
9.67864e-09
8.78498e-09
8.41577e-09
1.34198e-08
1.22982e-07
1.69075e-08
1.41251e-07
4.89632e-06
1.19866e-05
1.26322e-06
5.82166e-09
1.19706e-08
1.37333e-08
1.23863e-08
1.08388e-08
9.39517e-09
7.46238e-09
5.49124e-09
4.16373e-09
3.62716e-09
3.97674e-09
4.81747e-09
5.63862e-09
6.04372e-09
6.49451e-09
7.10644e-09
8.25653e-09
1.47131e-08
1.13832e-08
4.41495e-08
3.98055e-06
1.62739e-05
2.03482e-05
4.53363e-09
9.5792e-09
1.12082e-08
1.02219e-08
8.4502e-09
6.45429e-09
4.59737e-09
3.29741e-09
2.55621e-09
2.21433e-09
2.17814e-09
2.38375e-09
2.77196e-09
3.36334e-09
4.19711e-09
4.99537e-09
5.67533e-09
7.20253e-09
1.08424e-08
4.34611e-08
9.69732e-08
5.17339e-06
6.61542e-05
3.83597e-09
7.88978e-09
8.88903e-09
7.80507e-09
6.12621e-09
4.41595e-09
3.04218e-09
2.15648e-09
1.6339e-09
1.34726e-09
1.2294e-09
1.24976e-09
1.43396e-09
1.84155e-09
2.41848e-09
3.0041e-09
3.49648e-09
4.0782e-09
1.17058e-08
6.67221e-08
1.16219e-07
2.51636e-07
1.54054e-06
3.45716e-09
6.19839e-09
6.44173e-09
5.35822e-09
3.99164e-09
2.7446e-09
1.84883e-09
1.29874e-09
9.77351e-10
7.98267e-10
7.17869e-10
7.23891e-10
8.38085e-10
1.08058e-09
1.44049e-09
1.88304e-09
2.31719e-09
2.73089e-09
8.84377e-09
7.58606e-08
1.71024e-07
1.73398e-07
1.93483e-07
3.21723e-09
4.76513e-09
4.47737e-09
3.47334e-09
2.44564e-09
1.63047e-09
1.10265e-09
7.96151e-10
6.09423e-10
4.90525e-10
4.27066e-10
4.27818e-10
5.06131e-10
6.66432e-10
9.15759e-10
1.24407e-09
1.6305e-09
2.08108e-09
3.73009e-09
2.63536e-08
1.06576e-07
1.74104e-07
1.37604e-07
2.94447e-09
3.66869e-09
3.18294e-09
2.33949e-09
1.53267e-09
9.88159e-10
7.32665e-10
5.83469e-10
4.61149e-10
3.66243e-10
3.00192e-10
2.71889e-10
2.97401e-10
3.8307e-10
5.41571e-10
7.77649e-10
1.11458e-09
1.54017e-09
1.89763e-09
4.07695e-09
2.0741e-08
1.01089e-07
1.28723e-07
2.75915e-09
2.97051e-09
2.48832e-09
1.70436e-09
1.0198e-09
7.45518e-10
6.60309e-10
5.4899e-10
4.33759e-10
3.39202e-10
2.58623e-10
2.0381e-10
1.87451e-10
2.21977e-10
3.12514e-10
4.72261e-10
7.2373e-10
1.06993e-09
1.4773e-09
1.84429e-09
2.90822e-09
8.67139e-09
3.2498e-08
2.5843e-09
2.51547e-09
2.15546e-09
1.38725e-09
9.28473e-10
7.64474e-10
7.15294e-10
5.74684e-10
4.46593e-10
3.47259e-10
2.55662e-10
1.8236e-10
1.39094e-10
1.34882e-10
1.75775e-10
2.67543e-10
4.18873e-10
6.46771e-10
9.6814e-10
1.34794e-09
1.7127e-09
2.19692e-09
8.44014e-09
2.48465e-09
2.30167e-09
1.97659e-09
1.51552e-09
9.86964e-10
8.19985e-10
8.00151e-10
5.86397e-10
4.52899e-10
3.52306e-10
2.60925e-10
1.80554e-10
1.20646e-10
9.29583e-11
1.00215e-10
1.44605e-10
2.26375e-10
3.51573e-10
5.30318e-10
7.89248e-10
1.19637e-09
2.00888e-09
3.2215e-09
2.41073e-09
2.18984e-09
2.09306e-09
1.79208e-09
1.15708e-09
1.00216e-09
1.20433e-09
5.40643e-10
4.17263e-10
3.36342e-10
2.56328e-10
1.79575e-10
1.15941e-10
7.50724e-11
6.27558e-11
7.84866e-11
1.21418e-10
1.91479e-10
2.91974e-10
4.23732e-10
6.28377e-10
9.57278e-10
1.43982e-09
2.39891e-09
2.20234e-09
2.25577e-09
2.13957e-09
1.66344e-09
1.32014e-09
1.81567e-09
4.37865e-10
3.54156e-10
3.01587e-10
2.36335e-10
1.70733e-10
1.12404e-10
6.82473e-11
4.57119e-11
4.56759e-11
6.68653e-11
1.0758e-10
1.6543e-10
2.50803e-10
3.69083e-10
5.2863e-10
7.40282e-10
2.41708e-09
2.24925e-09
2.28748e-09
2.30312e-09
3.16626e-09
3.85811e-09
2.74694e-09
3.32712e-10
3.04103e-10
2.5364e-10
2.01149e-10
1.51914e-10
1.0353e-10
6.3717e-11
3.8349e-11
3.02649e-11
3.96098e-11
6.36714e-11
1.03237e-10
1.61757e-10
2.4e-10
3.5022e-10
4.80138e-10
2.44993e-09
2.29854e-09
2.9227e-09
6.20888e-09
7.12207e-09
1.02499e-08
3.05949e-09
3.25821e-10
2.6185e-10
2.01914e-10
1.58859e-10
1.23527e-10
8.82859e-11
5.69743e-11
3.3925e-11
2.24819e-11
2.47656e-11
4.02221e-11
6.79797e-11
1.10461e-10
1.73197e-10
2.57025e-10
3.52713e-10
2.72931e-09
3.95541e-09
3.38483e-09
2.47797e-08
9.96316e-09
1.2519e-08
2.35838e-09
4.0954e-10
2.3744e-10
1.53627e-10
1.15519e-10
9.2385e-11
6.89753e-11
4.67658e-11
2.89039e-11
1.79177e-11
1.6422e-11
2.56593e-11
4.54783e-11
7.78464e-11
1.2639e-10
1.94675e-10
2.69696e-10
4.35457e-09
1.64081e-08
5.44131e-08
2.50552e-08
1.4074e-08
1.37914e-08
1.90835e-09
6.30276e-10
2.74673e-10
1.15723e-10
7.95634e-11
6.32136e-11
4.81943e-11
3.46622e-11
2.27788e-11
1.39908e-11
1.11052e-11
1.59673e-11
2.93937e-11
5.15471e-11
9.05797e-11
1.42615e-10
2.00604e-10
6.31836e-09
4.04347e-08
7.56143e-08
3.28021e-08
4.2289e-08
1.42844e-08
2.96219e-09
1.09652e-09
3.57381e-10
9.07971e-11
5.21509e-11
4.1272e-11
3.1307e-11
2.27442e-11
1.58807e-11
1.03841e-11
7.45131e-12
9.36022e-12
1.73543e-11
3.3318e-11
5.65198e-11
9.59966e-11
1.39257e-10
8.30104e-09
5.13447e-08
8.32028e-08
8.22207e-08
6.53387e-08
1.63747e-08
6.13239e-09
1.76767e-09
4.35533e-10
7.81625e-11
3.25585e-11
2.4356e-11
1.81811e-11
1.32529e-11
9.8138e-12
6.84231e-12
4.87459e-12
5.30728e-12
9.51427e-12
1.83113e-11
3.49364e-11
6.17997e-11
8.64792e-11
7.15855e-09
3.91367e-08
1.12681e-07
1.43648e-07
6.12863e-08
2.6532e-08
1.16939e-08
2.60776e-09
5.16961e-10
7.51022e-11
1.99689e-11
1.42875e-11
9.8477e-12
7.00036e-12
5.17756e-12
3.9024e-12
2.92009e-12
2.85218e-12
4.90625e-12
9.89983e-12
1.77458e-11
3.24082e-11
4.96076e-11
7.09659e-09
2.90857e-08
1.45992e-07
1.42971e-07
5.31323e-08
3.68741e-08
1.51783e-08
3.35549e-09
5.99436e-10
7.38182e-11
1.21316e-11
7.78201e-12
5.22214e-12
3.35929e-12
2.36183e-12
1.86495e-12
1.52952e-12
1.46858e-12
2.39354e-12
4.94325e-12
9.91332e-12
1.73524e-11
2.58747e-11
7.08112e-09
3.78268e-08
2.38726e-07
2.2901e-07
3.99035e-08
3.44717e-08
1.56495e-08
3.68109e-09
6.24709e-10
6.60854e-11
7.08099e-12
3.88478e-12
2.58891e-12
1.49989e-12
9.35138e-13
7.16045e-13
6.35829e-13
6.30267e-13
9.43018e-13
1.92744e-12
3.84702e-12
7.40907e-12
1.27538e-11
1.00798e-08
6.45743e-08
8.04549e-07
7.35909e-07
4.75099e-08
3.50577e-08
1.2272e-08
3.179e-09
5.24833e-10
5.16903e-11
3.8296e-12
1.82303e-12
1.1976e-12
6.39723e-13
3.36357e-13
2.24299e-13
2.03593e-13
2.24526e-13
3.48504e-13
7.24242e-13
1.61724e-12
3.13649e-12
4.81305e-12
1.38406e-08
1.01084e-07
8.3845e-07
8.38445e-07
1.15007e-07
2.95578e-08
8.60258e-09
2.26747e-09
3.45047e-10
3.07265e-11
1.77141e-12
6.97563e-13
4.83362e-13
2.5061e-13
1.12206e-13
5.87054e-14
4.95234e-14
6.231e-14
1.03522e-13
2.23426e-13
4.74462e-13
9.65433e-13
1.79702e-12
1.47149e-08
4.84247e-07
8.38464e-07
8.07006e-07
1.07944e-07
1.16699e-08
3.70641e-09
1.1944e-09
1.45249e-10
1.15091e-11
5.54354e-13
2.00304e-13
1.5219e-13
8.19378e-14
3.39208e-14
1.34774e-14
8.80218e-15
1.20839e-14
2.36222e-14
5.34244e-14
1.36429e-13
3.55717e-13
5.57465e-13
1.34337e-08
5.949e-07
8.38453e-07
3.84318e-07
2.70036e-08
2.1846e-09
1.4339e-09
4.41315e-10
4.29993e-11
2.48758e-12
9.27719e-14
3.73368e-14
3.29155e-14
1.93273e-14
8.00531e-15
2.61275e-15
1.17665e-15
1.78328e-15
4.78299e-15
1.37383e-14
3.73701e-14
8.76527e-14
1.66927e-13
1.1083e-08
2.867e-07
7.33999e-07
6.48251e-08
3.51126e-10
2.0434e-10
2.62023e-10
6.3373e-11
3.72482e-12
1.01512e-13
3.07426e-15
3.26961e-15
3.50314e-15
2.34699e-15
1.02438e-15
3.07634e-16
9.91722e-17
1.57435e-16
6.80816e-16
2.85195e-15
9.56144e-15
2.31975e-14
4.01941e-14
0.00125899
0.00929545
0.0326213
0.0311089
1.18519e-07
0.00205111
0.00561303
0.0172237
0.223356
0.0185024
0.00934235
0.0192853
0.914109
0.791175
0.630575
0.561381
0.958254
0.948538
0.950123
0.983713
0.995871
0.988654
0.990597
0.999109
0.986052
0.998283
0.999402
0.999403
0.765487
0.788863
0.856835
0.913185
0.0855295
0.0933993
0.115215
0.147439
9.59523e-14
-1.09595e-08
-6.43123e-08
-7.18239e-09
2.24793e-06
1.61618e-06
6.49428e-06
9.93235e-06
3.74769e-06
2.01594e-06
3.43486e-06
7.72566e-06
3.81694e-08
4.00299e-08
4.04806e-08
5.71444e-07
1.5559e-07
1.33709e-07
8.18591e-08
1.22807e-07
9.21335e-07
8.55943e-07
7.47443e-07
7.31195e-07
2.20992e-06
3.07709e-06
3.42472e-06
2.00693e-06
2.13203e-06
2.08501e-05
4.90261e-05
5.06789e-05
3.1039e-05
7.22686e-05
7.22498e-05
7.17626e-05
7.1906e-05
7.20997e-05
7.22378e-05
7.22017e-05
5.12351e-05
5.65846e-05
4.40357e-05
6.22933e-05
1.2544e-07
1.50102e-08
1.50395e-08
5.06493e-07
1.03849e-07
3.66604e-08
1.11801e-08
1.08098e-08
8.73275e-08
6.29899e-08
1.60994e-08
1.21446e-08
3.93784e-08
4.66351e-08
4.24842e-08
1.585e-08
1.40953e-08
2.33417e-08
2.22386e-08
1.01032e-08
5.12638e-09
5.85699e-09
5.72717e-09
5.51609e-09
1.79428e-09
2.06832e-09
2.35808e-09
2.59003e-09
9.51399e-10
1.02606e-09
1.16291e-09
1.23486e-09
5.78386e-10
6.48367e-10
7.03433e-10
7.6997e-10
4.35621e-10
4.83933e-10
5.40627e-10
5.88247e-10
3.44275e-10
3.83254e-10
4.26991e-10
4.87701e-10
2.48341e-10
2.82059e-10
3.32114e-10
3.77971e-10
1.70473e-10
2.02864e-10
2.3432e-10
2.87675e-10
1.13957e-10
1.27202e-10
1.58191e-10
1.87216e-10
6.21412e-11
7.37341e-11
8.77109e-11
1.13395e-10
3.31149e-11
3.70062e-11
4.7412e-11
5.71706e-11
1.50473e-11
1.78176e-11
2.04721e-11
2.62547e-11
6.32618e-12
6.56353e-12
7.94002e-12
9.49536e-12
2.09964e-12
2.32484e-12
2.51968e-12
2.95448e-12
6.72254e-13
6.67587e-13
7.12498e-13
7.69446e-13
1.79056e-13
1.68088e-13
1.70083e-13
1.80802e-13
4.00541e-14
3.13318e-14
3.23968e-14
2.87186e-14
0.0136698
0.00330819
0.00153566
0.00549141
0.010626
0.00386024
0.00620308
0.00704777
0.0115983
0.114879
0.271208
0.163783
0.093606
0.0581863
0.0230992
0.0202585
0.0202585
0.0202585
0.0991506
0.0221939
0.0032765
0.0100886
0.0329439
0.0291621
0.0059749
0.00617018
0.0679177
0.347593
0.645525
0.393414
0.049919
0.03214
0.0208972
0.0209095
0.0229837
0.0202585
0.0202586
0.0208447
0.0338556
0.0504006
0.0107385
0.0173288
0.02045
0.0363502
0.244281
0.795436
0.910727
0.853578
0.514261
0.255779
0.160179
0.128976
0.166488
0.220794
0.160688
0.0626134
0.0312001
0.598773
0.666329
0.544704
0.550167
0.539398
0.530695
0.837891
0.979299
0.911055
0.893043
0.937613
0.991816
0.90466
0.85863
0.901427
0.935907
0.844472
0.688416
0.570855
0.986681
0.946711
0.929927
0.913422
0.86436
0.859106
0.968004
0.997931
0.998527
0.997659
0.997365
0.992789
0.995778
0.998018
0.997404
0.995509
0.997018
0.997849
0.997783
0.999388
0.997945
0.99001
0.981662
0.985786
0.98457
0.996725
0.998323
0.998527
0.998527
0.998527
0.998525
0.998526
0.998525
0.998514
0.998502
0.998343
0.996689
0.991184
0.999403
0.999401
0.997817
0.980321
0.968888
0.998526
0.998527
0.998527
0.998527
0.998527
0.998527
0.998528
0.998526
0.998527
0.972415
0.894618
0.787128
0.633468
0.470097
0.955919
0.995869
0.997633
0.988047
0.96414
0.969798
0.997932
0.998527
0.998527
0.998143
0.997086
0.990148
0.912075
0.669875
0.322457
0.142856
0.0493689
2.41995e-10
1.97707e-10
0.208834
0.318496
0.484741
0.609457
0.665902
0.778245
0.877949
0.935632
0.931817
0.831073
0.685077
0.465033
0.166835
0.00108284
4.67765e-11
9.44828e-11
4.67768e-11
2.46188e-07
3.3317e-06
-1.31765e-09
3.42472e-19
0.00338563
0.0258681
0.0495612
0.0880486
0.174056
0.253157
0.254646
0.14352
0.0490646
0.000467904
-3.64492e-08
3.60636e-09
9.94643e-06
1.97245e-05
2.38687e-05
6.97625e-06
1.33478e-05
5.80055e-06
4.09236e-06
9.46913e-07
-1.15815e-20
2.31156e-20
0
-1.23378e-27
1.45104e-27
2.31947e-19
2.12352e-19
3.1852e-26
2.61205e-13
2.04955e-10
7.76343e-08
1.34149e-05
6.81985e-05
0.000166612
5.37715e-05
6.15119e-05
1.22636e-05
2.14535e-05
2.15691e-05
1.32903e-05
3.42683e-06
3.70146e-07
4.12833e-08
3.00167e-09
4.89695e-09
1.11876e-08
1.0958e-08
3.714e-09
5.91305e-10
7.99405e-09
8.31101e-09
0.000160227
0.000195195
0.000138584
7.83225e-05
2.39263e-06
7.99319e-06
1.67682e-05
1.6478e-05
4.13634e-06
2.11983e-07
7.75088e-08
2.74533e-09
1.06167e-08
1.74831e-08
1.48164e-08
6.82965e-10
2.22588e-11
1.64335e-11
2.27384e-05
0.000197147
0.000198027
8.53901e-05
1.87049e-05
1.23994e-07
5.01217e-07
2.97628e-06
3.13566e-06
1.4917e-06
3.88401e-07
6.5185e-09
2.40597e-09
1.26892e-07
9.94699e-08
5.04119e-07
8.19145e-07
5.44412e-07
-1.53556e-09
0.000127486
0.000198042
0.000129731
1.35272e-05
1.70422e-05
6.12087e-07
2.14515e-07
5.37501e-08
6.1339e-08
2.53623e-10
-1.14354e-09
4.69079e-06
2.766e-05
2.44564e-05
3.8738e-06
5.7691e-06
2.47609e-05
2.64774e-05
3.91113e-05
5.67989e-05
3.66771e-05
9.35639e-06
6.95372e-07
2.30347e-05
1.10425e-06
6.88455e-07
5.81379e-07
5.94455e-06
2.94443e-05
5.39193e-05
6.34814e-05
6.3674e-05
4.22054e-05
3.68924e-06
3.65309e-06
3.13195e-05
9.85856e-05
7.10328e-05
1.9449e-06
7.94471e-07
5.16667e-07
5.17924e-07
1.7308e-05
1.44493e-05
1.9457e-06
1.39929e-06
3.96241e-05
6.24452e-05
6.34984e-05
6.35965e-05
3.44066e-05
4.49156e-06
3.65495e-06
3.65028e-06
9.42512e-05
9.83276e-05
8.54148e-05
7.39088e-06
7.61652e-07
1.2961e-06
5.51623e-07
5.41337e-07
4.45494e-05
1.09751e-05
6.86146e-06
3.23947e-06
6.57887e-06
2.44639e-05
3.53022e-05
4.31956e-05
3.45652e-05
9.11082e-06
1.19322e-05
6.25704e-05
8.33391e-05
4.26115e-05
1.22186e-05
7.55786e-07
4.92939e-06
3.95739e-06
2.35285e-06
7.19296e-05
1.27337e-05
6.25528e-07
1.86785e-06
6.74099e-06
5.5495e-06
6.96456e-06
4.31558e-05
5.44049e-05
5.4974e-05
4.7526e-05
2.49904e-05
5.0722e-06
5.05618e-06
5.0722e-06
7.66832e-06
2.07728e-05
1.20226e-05
3.04529e-06
5.22218e-05
7.57469e-06
1.73563e-07
1.04675e-06
2.96389e-06
5.51374e-06
6.40753e-06
8.6274e-06
3.20941e-05
5.0728e-05
5.05614e-05
4.80997e-05
7.579e-06
5.0722e-06
6.74194e-06
1.58582e-05
2.86393e-05
1.85718e-05
2.53e-06
4.72127e-07
5.57276e-07
1.7435e-07
1.05638e-06
8.81905e-06
1.08744e-05
1.08733e-05
8.86169e-06
5.08809e-06
4.54765e-06
2.69945e-05
2.79363e-05
2.54792e-05
9.17465e-06
1.96079e-05
2.86181e-05
2.86121e-05
1.8014e-05
1.73546e-06
1.08146e-08
1.08582e-08
7.99438e-07
2.94498e-07
1.5152e-07
1.94482e-06
6.34985e-06
6.3683e-06
5.21068e-06
8.85108e-07
1.23422e-07
1.14239e-07
9.84163e-08
2.42012e-05
2.80467e-05
2.86223e-05
2.81586e-05
6.4076e-06
1.55574e-06
1.08198e-08
1.08253e-08
1.46163e-08
1.99209e-08
4.6319e-08
1.15642e-08
1.16331e-08
1.15515e-08
1.59653e-07
6.31486e-07
4.28656e-07
1.61139e-07
6.45933e-08
6.31697e-08
1.06311e-05
2.8058e-05
1.14978e-05
9.45577e-07
1.56968e-06
1.0855e-08
1.67277e-08
2.12732e-08
2.48232e-08
2.47378e-08
1.86273e-08
1.37394e-08
1.14721e-08
1.06578e-08
5.31248e-08
8.38395e-08
6.69813e-08
5.35519e-08
6.26339e-08
6.18986e-08
7.82224e-07
9.68899e-07
2.73676e-07
2.40712e-06
8.25218e-09
1.58249e-08
2.14142e-08
2.16471e-08
2.06727e-08
1.78398e-08
1.44112e-08
1.25475e-08
1.0745e-08
1.08969e-08
1.81125e-08
2.2076e-08
2.51617e-08
3.64607e-08
6.12868e-08
3.52397e-08
2.64307e-08
2.31724e-08
2.40701e-06
6.02078e-09
7.68756e-09
9.36085e-09
1.02092e-08
9.86181e-09
8.59676e-09
8.26025e-09
8.2983e-09
8.81768e-09
9.46247e-09
1.13779e-08
1.47641e-08
1.95038e-08
2.46541e-08
2.81262e-08
3.52797e-08
2.07681e-08
2.0976e-08
2.41684e-06
2.70769e-09
3.27382e-09
3.64902e-09
3.83923e-09
3.82399e-09
4.06006e-09
4.37287e-09
4.91725e-09
5.83155e-09
7.27799e-09
9.20632e-09
1.28031e-08
1.92305e-08
2.51106e-08
2.64727e-08
2.03111e-08
1.26199e-08
2.77709e-07
2.42595e-06
1.34835e-09
1.53764e-09
1.73066e-09
1.94812e-09
2.21356e-09
2.68887e-09
3.31746e-09
4.09995e-09
5.06509e-09
6.33446e-09
8.33882e-09
1.17229e-08
1.73833e-08
2.514e-08
2.26622e-08
1.16713e-08
1.16605e-08
1.2702e-06
1.79491e-06
8.27393e-10
9.91058e-10
1.23594e-09
1.5584e-09
2.05434e-09
2.78135e-09
3.79162e-09
4.95274e-09
6.04785e-09
6.93983e-09
8.2132e-09
1.08976e-08
1.62224e-08
2.22299e-08
1.69338e-08
1.16099e-08
3.13702e-07
1.70788e-06
4.73269e-07
6.71634e-10
8.50612e-10
1.12704e-09
1.56352e-09
2.33506e-09
3.45608e-09
5.05931e-09
6.94014e-09
8.72039e-09
9.27768e-09
9.1493e-09
9.73743e-09
1.24677e-08
1.55732e-08
1.89907e-08
1.23336e-08
5.41338e-07
1.73608e-06
1.73839e-07
5.56319e-10
7.66126e-10
1.08883e-09
1.67903e-09
2.75393e-09
4.34699e-09
6.8705e-09
1.01403e-08
1.39619e-08
1.48532e-08
1.17462e-08
1.02973e-08
1.43071e-08
2.63245e-08
4.55671e-08
9.55448e-08
4.40884e-07
1.39513e-06
7.74097e-08
4.56025e-10
6.70387e-10
1.03494e-09
1.75308e-09
3.15812e-09
5.59488e-09
9.40713e-09
1.53667e-08
2.56851e-08
3.03167e-08
1.79921e-08
1.20272e-08
2.58732e-08
5.72724e-08
9.62323e-08
1.46536e-07
2.02859e-07
3.47979e-07
5.91648e-08
3.5322e-10
5.40245e-10
9.3541e-10
1.74832e-09
3.39902e-09
6.43431e-09
1.10488e-08
2.02292e-08
4.66421e-08
6.88888e-08
2.91521e-08
1.45751e-08
3.05425e-08
7.45752e-08
1.44006e-07
1.53872e-07
7.04505e-08
9.03325e-08
3.86246e-08
2.42933e-10
4.10715e-10
7.73805e-10
1.59742e-09
3.31546e-09
6.65834e-09
1.17585e-08
2.25538e-08
6.3956e-08
1.51962e-07
8.62204e-08
2.41775e-08
2.0534e-08
6.0556e-08
1.05016e-07
1.53296e-07
6.17389e-08
2.92933e-08
3.83524e-08
1.45491e-10
2.70395e-10
5.69216e-10
1.28188e-09
2.80947e-09
6.07813e-09
1.1383e-08
2.0875e-08
5.30134e-08
2.47759e-07
6.10052e-07
4.08343e-07
5.50714e-08
2.7507e-08
5.95106e-08
7.75481e-08
3.3865e-08
2.44012e-08
2.68527e-08
7.97301e-11
1.55567e-10
3.59097e-10
8.7567e-10
2.11651e-09
4.85547e-09
1.01496e-08
1.86672e-08
3.00659e-08
1.24477e-07
1.48924e-06
4.29809e-06
1.44508e-06
2.88676e-08
2.75134e-08
2.43189e-08
2.43594e-08
2.44057e-08
2.44012e-08
3.39549e-11
7.11292e-11
1.82268e-10
4.91044e-10
1.31193e-09
3.26207e-09
7.33642e-09
1.42253e-08
2.39489e-08
7.0353e-08
9.47516e-07
5.07143e-06
5.07117e-06
5.77526e-07
2.41178e-08
2.86974e-08
2.74996e-08
4.00953e-08
2.45557e-08
1.27474e-11
2.58521e-11
6.95533e-11
2.13243e-10
6.42104e-10
1.7914e-09
4.51595e-09
1.0157e-08
1.90659e-08
3.80114e-08
2.37398e-07
2.59287e-06
5.07143e-06
4.60949e-06
2.41173e-08
3.68825e-08
6.98769e-08
1.81515e-07
1.55418e-06
3.53279e-12
6.70566e-12
1.83035e-11
6.34252e-11
2.27583e-10
7.49812e-10
2.19235e-09
5.68687e-09
1.34991e-08
2.51125e-08
4.61265e-08
1.75353e-07
3.38587e-06
5.16735e-06
3.87127e-06
6.08291e-08
6.12528e-08
3.96634e-07
2.56586e-06
8.76872e-13
1.21222e-12
2.81732e-12
1.034e-11
4.66814e-11
2.17871e-10
8.13914e-10
2.56038e-09
6.66614e-09
1.50547e-08
2.46978e-08
4.7725e-08
1.58369e-07
3.72955e-06
5.15966e-06
2.81802e-06
1.48676e-07
3.67284e-07
2.5655e-06
1.76187e-13
2.07918e-13
3.49987e-13
1.02638e-12
5.21471e-12
3.0672e-11
1.6656e-10
7.34587e-10
2.56693e-09
7.46537e-09
1.82031e-08
3.31447e-08
5.68266e-08
4.24139e-08
3.04158e-06
4.1393e-06
1.15001e-06
3.8846e-07
2.56379e-06
2.57707e-14
2.55867e-14
3.43582e-14
6.86013e-14
2.44299e-13
1.56992e-12
1.329e-11
9.14507e-11
4.64746e-10
1.75789e-09
5.2483e-09
1.16129e-08
1.58866e-08
6.49365e-09
1.88656e-10
1.51604e-06
2.87172e-06
7.31308e-07
1.94399e-06
)
;

boundaryField
{
    leftWall
    {
        type            zeroGradient;
    }
    rightWall
    {
        type            zeroGradient;
    }
    lowerWall
    {
        type            zeroGradient;
    }
    atmosphere
    {
        type            inletOutlet;
        inletValue      uniform 0;
        value           nonuniform List<scalar> 
46
(
1.1083e-08
2.867e-07
7.33999e-07
6.48251e-08
3.51126e-10
2.0434e-10
0
0
0
0
0
0
0
2.34699e-15
1.02438e-15
3.07634e-16
9.91722e-17
1.57435e-16
6.80816e-16
2.85195e-15
9.56144e-15
2.31975e-14
0
0
0
0
0
0
0
0
0
0
0
0
0
0
0
0
0
0
0
0
1.51604e-06
2.87172e-06
7.31308e-07
1.94399e-06
)
;
    }
    defaultFaces
    {
        type            empty;
    }
}


// ************************************************************************* //
