/*--------------------------------*- C++ -*----------------------------------*\
| =========                 |                                                 |
| \\      /  F ield         | OpenFOAM: The Open Source CFD Toolbox           |
|  \\    /   O peration     | Version:  2312                                  |
|   \\  /    A nd           | Website:  www.openfoam.com                      |
|    \\/     M anipulation  |                                                 |
\*---------------------------------------------------------------------------*/
FoamFile
{
    version     2.0;
    format      ascii;
    arch        "LSB;label=32;scalar=64";
    class       volScalarField;
    location    "5.7";
    object      alpha.air;
}
// * * * * * * * * * * * * * * * * * * * * * * * * * * * * * * * * * * * * * //

dimensions      [0 0 0 0 0 0 0];

internalField   nonuniform List<scalar> 
2268
(
1.10955e-09
1.05843e-09
1.06418e-09
1.15703e-09
1.32318e-09
1.35068e-09
1.0964e-09
6.99485e-10
4.21211e-10
2.80543e-10
2.35779e-10
2.23487e-10
2.09524e-10
2.0643e-10
2.00481e-10
2.10808e-10
2.48561e-10
2.85866e-10
2.82141e-10
1.62415e-10
1.579e-10
5.75252e-07
6.22162e-07
1.36825e-09
1.27168e-09
1.44236e-09
2.20016e-09
3.56763e-09
5.45284e-09
4.83997e-09
3.87094e-09
2.46147e-09
1.76751e-09
1.79165e-09
1.45369e-09
1.10058e-09
1.1401e-09
8.92187e-10
3.50004e-10
3.61333e-10
6.15449e-10
5.67229e-10
1.56146e-10
7.54435e-08
6.29235e-07
6.29714e-07
3.43933e-09
3.08582e-09
2.79004e-09
3.40787e-09
7.7692e-09
1.87851e-08
2.07841e-08
1.74256e-08
5.94363e-09
4.77642e-09
8.09624e-09
7.65282e-09
3.68569e-09
9.20411e-09
3.12398e-08
2.39226e-08
5.00158e-09
1.49195e-09
6.48878e-10
1.58061e-10
7.83897e-08
2.50846e-07
2.09546e-07
2.64066e-08
2.47674e-08
2.63564e-08
4.29644e-08
5.87517e-08
8.86352e-08
1.24829e-07
2.31624e-07
4.91916e-09
4.75532e-09
1.22241e-08
6.46962e-09
3.69258e-09
3.69689e-09
5.03143e-07
9.24348e-07
3.79281e-07
5.71714e-08
-5.39579e-12
1.73694e-09
1.04037e-08
2.73503e-09
3.92026e-09
0.000199144
0.000195105
0.000247286
0.000469518
0.000549275
0.000495622
0.000338547
0.000187032
7.86357e-05
1.26794e-05
1.12786e-05
2.93647e-05
3.78947e-05
1.78601e-05
2.07646e-06
1.10123e-05
6.579e-06
5.74766e-09
3.16836e-18
-7.33698e-12
5.22967e-27
5.72089e-27
8.43291e-10
0.00111579
0.00102563
0.00110861
0.00132149
0.00132149
0.00132149
0.00132149
0.00116245
0.000656018
0.000132589
5.813e-05
0.000127293
0.000130026
0.000108896
1.78051e-05
8.70649e-08
3.81806e-05
0.000261888
0.000750617
0.00131212
0.000567629
0.000403673
0.00252461
0.00111313
0.000747875
0.000679079
0.00108718
0.00132149
0.00111648
0.00104651
0.000818633
0.000588718
0.000273899
0.000262416
0.000177193
0.000126306
0.000103532
3.30442e-05
7.9902e-08
8.66206e-08
0.00175777
0.0078798
0.00938089
0.00930125
0.00930879
0.00998124
0.000547652
0.000541015
0.00051541
0.000508559
0.000730311
0.000400267
0.00029507
0.000240281
0.00023812
0.000322012
0.000435841
0.000266414
8.08769e-05
4.28017e-05
2.50011e-05
2.39168e-05
0.000572592
0.00229358
0.00442537
0.00603371
0.00848772
0.00998174
0.00998174
0.000278408
0.000582254
0.00505059
0.0062533
0.0062533
0.00470583
0.00190629
0.00190457
0.0019037
0.00178858
0.00166763
0.00166715
0.0016667
0.00166628
0.00172705
0.00182296
0.00273944
0.00304684
0.00304419
0.000274236
0.000275138
0.000274236
0.000470296
0.00127781
0.00245
0.0030454
0.00304597
0.00234783
0.00166849
0.00166803
0.00167108
0.00166814
0.00166586
0.00166556
0.00166593
0.00190971
0.00224486
0.00270808
0.00823149
0.00796523
0.00929356
0.0102325
0.0110463
0.0129704
0.0172122
0.0207068
0.0204941
0.0150901
0.0070917
0.00382288
0.00315747
0.00186122
0.00420286
0.0141364
0.0206733
0.0154984
0.0109422
0.0164257
0.0166682
0.0287845
0.0329459
0.0346964
0.0406328
0.045776
0.0457741
0.0457758
0.039204
0.0271032
0.0254625
0.0449306
0.0283263
0.0293771
0.0564134
0.0545974
0.0473012
0.0444296
0.0122429
0.00646888
0.00913262
0.011441
0.0208291
0.0322821
0.0425787
0.0435261
0.0148026
0.00817081
0.00817183
0.0084128
0.0504989
0.0825622
0.0945129
0.0666552
0.0481494
0.0263183
0.0406708
0.00415913
0.00388537
0.00367519
0.00363416
0.00602816
0.0133475
0.0245191
0.0176434
0.00680433
0.00574906
0.00558919
0.0057056
0.00630314
0.0180761
0.0915883
0.0975019
0.0591744
0.0242265
0.025097
0.00462132
0.00369836
0.00454829
0.00453011
0.00298204
0.00578084
0.0069076
0.00841417
0.00528016
0.00742281
0.0332547
0.00800659
0.00440013
0.0043782
0.0395884
0.0974977
0.0295851
0.023922
0.0449363
0.00548668
0.00267672
0.00435865
0.00628591
0.00298799
0.00296587
0.00587088
0.00527022
0.00521346
0.022969
0.0672175
0.0167945
0.00573556
0.0115085
0.0267581
0.0974973
0.0251998
0.0243835
0.0490167
0.00224992
0.00055459
0.000506445
0.000507297
0.00165686
0.00603026
0.00495328
0.00143037
0.00192856
0.00481098
0.00480074
0.00153718
0.000298623
0.000194297
6.13204e-05
2.49575e-05
2.59202e-05
2.68108e-05
4.6177e-05
3.44907e-05
3.94861e-05
0.000191361
0.000193273
0.0271642
0.0147094
0.00889396
0.00457416
0.00164796
0.0121344
0.0333416
0.0458797
0.0563525
0.0683989
0.0699955
0.0533805
0.0297591
0.0142806
0.0115864
0.0179842
0.0182366
0.0151448
0.0153069
0.00849058
0.00835817
0.0196492
0.024354
0.0353073
0.0352967
0.0353072
0.029852
0.0032131
0.000896397
0.0062578
0.0598522
0.0796582
0.0797149
0.0796542
0.0796624
0.0465876
0.0325691
0.0538228
0.0559055
0.0559545
0.0367754
0.0147603
0.0136292
0.0269597
0.0477696
0.0480673
0.017298
0.00715792
0.0116913
0.0273478
0.0191581
0.00101488
0.000955448
0.0197998
0.0797656
0.0796542
0.0425065
0.000810723
0.00411928
0.0147288
0.031956
0.0325323
0.0133633
0.00639427
0.0045317
0.00452801
0.00587589
0.0135491
0.0389629
0.000242686
0.0002549
0.000294782
0.00352055
0.00209131
0.000307444
0.0179916
0.0741445
0.0796656
0.0421453
0.000121571
8.63972e-05
9.15599e-05
8.68469e-05
0.00025295
0.000280309
7.78254e-05
5.05935e-05
8.82706e-06
8.40885e-09
2.86319e-05
2.76087e-06
0.00190431
0.000204228
0.000215723
0.000233373
0.000214638
0.000201236
0.000306754
0.0054798
0.0239385
0.0139716
4.85871e-05
4.91369e-05
3.92686e-05
3.81971e-05
3.29055e-05
2.79687e-08
2.97522e-08
9.1554e-06
6.71788e-06
1.98443e-08
7.47395e-09
9.86123e-09
9.20221e-09
0.000605524
0.000140105
0.000140373
0.000140836
0.000142114
0.000143546
0.00014441
0.000524535
0.00260991
0.0185727
0.0438692
0.0740493
0.099776
0.111408
0.09949
0.0739568
0.0461844
0.0200094
0.000411428
-1.81756e-10
-4.04593e-10
1.70565e-19
4.61233e-19
1.14751e-17
0.077041
0.0803868
0.105009
0.15979
0.22039
0.281682
0.362072
0.481382
0.615439
0.71526
0.785906
0.82556
0.841795
0.840275
0.828532
0.80157
0.759422
0.687896
0.577165
0.476743
0.390223
0.315434
0.255105
0.814688
0.821483
0.828802
0.838109
0.861677
0.902998
0.953559
0.989498
0.999168
0.999353
0.999618
0.999717
0.99985
0.999594
0.99958
0.999562
0.999675
0.999333
0.997562
0.983482
0.963004
0.942541
0.916886
0.999725
0.999777
0.999674
0.999502
0.999551
0.998924
0.998866
0.999612
0.999999
1
1
0.999999
0.999979
0.999935
0.999939
0.999981
0.999983
0.999992
0.999993
0.999972
0.999987
0.999985
0.999981
1
1
1
1
1
1
0.999999
0.999998
0.999999
0.999999
0.999999
0.999999
0.999987
0.99997
0.99997
0.999969
0.999967
0.999973
0.999994
0.999995
0.999989
0.999984
0.999984
1
1
1
1
1
1
0.999999
0.999999
0.999999
0.999999
0.999999
0.999998
0.999983
0.999977
0.999982
0.999976
0.999965
0.999973
0.999994
0.999963
0.999945
0.999945
0.999953
1
1
1
1
1
1
1
1
0.999999
0.999999
0.999998
0.999998
0.999997
0.999997
0.999998
0.999989
0.999987
0.999993
0.99997
0.999949
0.999949
0.99997
0.999991
1
1
1
1
1
1
1
1
1
1
0.999999
1
1
1
1
0.999998
0.999997
0.999994
0.999956
0.999956
0.999985
0.999998
0.999999
1
1
1
1
1
1
1
1
1
1
1
1
1
1
1
1
1
0.999995
0.999983
0.999999
0.999999
0.999999
0.999998
1
1
1
1
1
1
1
1
1
1
1
1
1
1
1
1
1
0.999999
1
1
0.999995
0.999995
0.999998
1
1
1
1
1
1
1
1
1
1
1
1
1
1
1
1
1
1
1
0.999999
0.999984
0.999972
0.999998
1
1
1
1
1
1
1
1
1
1
1
1
1
1
1
1
1
1
1
1
0.999986
0.999967
0.999971
1
1
1
1
1
1
1
1
1
1
1
1
1
1
1
1
1
1
1
1
0.999999
0.999982
0.999919
1
1
1
1
1
1
1
1
1
1
1
1
1
1
1
1
1
1
1
1
1
0.999999
0.999995
1
1
1
1
1
1
1
1
1
1
1
1
1
1
1
1
1
1
1
1
1
1
1
1
1
1
1
1
1
1
1
1
1
1
1
1
1
1
1
1
1
1
1
1
1
1
1
1
1
1
1
1
1
1
1
1
1
1
1
1
1
1
1
1
1
1
1
1
1
1
1
1
1
1
1
1
1
1
1
1
1
1
1
1
1
1
1
1
1
1
1
1
1
1
1
1
1
1
1
1
1
1
1
1
1
1
1
1
1
1
1
1
1
1
1
1
1
1
1
1
1
1
1
1
1
1
1
1
1
1
1
1
1
1
1
1
1
1
1
1
1
1
1
1
1
1
1
1
1
1
1
1
1
1
1
1
1
1
1
1
1
1
1
1
1
1
1
1
1
1
1
1
1
1
1
1
1
1
1
1
1
1
1
1
1
1
1
1
1
1
1
1
1
1
1
1
1
1
1
1
1
1
1
1
1
1
1
1
1
1
0.999999
1
1
1
1
1
1
1
1
1
1
1
1
1
1
1
1
1
1
1
1
1
1
0.999999
1
1
1
1
1
1
1
1
1
1
1
1
1
1
1
1
1
1
1
1
1
1
0.999999
1
1
1
1
1
1
1
1
1
1
1
1
1
1
1
1
1
1
1
1
1
0.999999
1
1
1
1
1
1
1
1
1
1
1
1
1
1
1
1
1
1
1
1
1
1
0.999999
1
1
1
1
1
1
1
1
1
1
1
1
1
1
1
1
1
1
1
1
1
1
0.999999
1
1
1
1
1
1
1
1
1
1
1
1
1
1
1
1
1
1
1
1
1
1
0.999999
1
1
1
1
1
1
1
1
1
1
1
1
1
1
1
1
1
1
1
1
1
1
0.999999
1
1
1
1
1
1
1
1
1
1
1
1
1
1
1
1
1
1
1
1
1
1
0.999999
0.999999
1
1
1
1
1
1
1
1
1
1
1
1
1
1
1
1
1
1
1
1
1
0.999999
0.999999
1
1
1
1
1
1
1
1
1
1
1
1
1
1
1
1
1
1
1
1
0.999999
0.999999
0.999999
1
1
1
1
1
1
1
1
1
1
1
1
1
1
1
1
1
1
1
1
0.999999
0.999999
1
1
1
1
1
1
1
1
1
1
1
1
1
1
1
1
1
1
1
1
1
1
0.999999
1
1
1
1
1
1
1
1
1
1
1
1
1
1
1
1
1
1
1
1
0.000138286
0.000138286
0.00147259
0.00270076
0.00211954
0.00106145
0.00112543
0.00250752
0.0480853
0.047927
0.0299903
0.00956259
0.0480995
0.0481182
0.0480976
0.0393217
0.0388298
0.0480976
0.0480058
0.0146218
0.00392046
0.0111418
0.00920481
0.000695615
3.27677e-07
2.73657e-07
3.76519e-05
0.000211465
0.213579
0.189064
0.125105
0.0740827
0.904038
0.89065
0.867694
0.836251
0.999987
0.999952
0.999927
0.999868
0.999985
0.999984
0.99998
0.99997
0.999952
0.999953
0.999952
0.999949
0.999997
0.999997
0.999996
0.999994
0.999999
0.999999
0.999998
0.999998
0.999997
0.999997
0.999998
0.999999
0.999998
0.999997
0.999996
0.999997
0.999998
0.999979
0.99995
0.999942
0.999969
0.999926
0.999918
0.999917
0.999916
0.999916
0.999916
0.999918
0.999929
0.999923
0.999937
0.999928
1
1
1
0.999999
1
1
1
1
1
1
1
1
1
1
1
1
1
1
1
1
1
1
1
1
1
1
1
1
1
1
1
1
1
1
1
1
1
1
1
1
1
1
1
1
1
1
1
1
1
1
1
1
1
1
1
1
1
1
1
1
1
1
1
1
1
1
1
1
1
1
1
1
1
1
1
1
1
1
1
1
1
1
1
1
1
1
1
1
0.00515113
0.00266679
0.00453036
0.0145337
0.0152854
0.00261798
0.00216617
0.00216405
0.00687195
0.0594254
0.0670686
0.0104413
0.00579361
0.0126065
0.0246192
0.0279842
0.0251521
0.0258014
0.0506552
0.00460944
0.00284959
0.015257
0.0562833
0.0421827
0.0024814
0.00216857
0.00308363
0.0455442
0.0867378
0.0186574
0.00485856
0.0226832
0.0341589
0.0341323
0.0244903
0.0250096
0.0368059
0.0385855
0.00777314
0.0265134
0.115823
0.152041
0.117421
0.0285398
0.011116
0.0149443
0.066033
0.0870791
0.0264085
0.00430743
0.00753953
0.0306939
0.0124226
0.00348157
0.0364013
0.0425695
0.0425638
0.0287281
0.0903593
0.152041
0.152041
0.152041
0.15204
0.0696769
0.00216101
0.0658721
0.0869104
0.0544398
0.00369138
1.71142e-05
6.44064e-06
6.44705e-06
0.0028786
0.0288879
0.039069
0.0278608
0.00983046
0.0476304
0.0640408
0.0797667
0.127996
0.136466
0.0259934
0.000716455
0.000807094
0.00191549
0.00220889
0.00676913
0.00318712
6.63972e-06
0.000418981
0.00131029
-1.03623e-08
0.00014229
5.63707e-05
0.00042087
0.00191949
0.000103894
0.000103839
0.0084727
0.0149347
0.0031924
0.0014853
0.000652359
0.000600399
0.00102613
0.00102619
0.000687172
7.81023e-05
0.000110799
8.68446e-05
9.81861e-10
-9.74417e-07
0.00327432
0.000259798
0.000308045
0.000103856
0.000103835
0.000145201
0.000916421
0.000962272
0.000910209
0.000462751
0.000310567
0.000384064
0.000706452
0.000675824
0.000268254
0.0244665
0.100064
0.205106
0.35718
0.520568
0.0338106
0.000103325
0.000103834
0.00010375
0.000103726
0.000103641
0.000103726
0.000114591
0.000163022
0.000170683
0.000175438
0.00792595
0.0869921
0.325755
0.668658
0.8483
0.942965
0.994326
0.995169
0.775875
0.667388
0.508535
0.383385
0.2976
0.183515
0.0852343
0.0458332
0.0532038
0.14862
0.299391
0.532129
0.830931
0.994711
0.99683
0.998913
1
1
0.999997
0.998691
0.997017
0.993333
0.970638
0.932105
0.881791
0.795771
0.722522
0.721014
0.831313
0.937799
0.997982
0.999512
0.999941
0.99999
0.99998
0.999976
0.999993
0.999987
0.999973
0.999974
0.999974
0.999438
0.999631
0.999871
0.998982
0.995103
0.990862
0.990184
0.994185
0.998734
0.999688
0.999966
0.999972
0.99993
0.999833
0.999946
0.999937
0.999959
0.999967
0.999974
0.999987
0.999997
0.999997
1
1
1
1
1
0.99937
0.999559
0.999888
0.999974
0.999831
0.999804
0.999861
0.999909
0.999991
0.99999
0.999983
0.999984
0.999996
1
1
1
1
1
1
0.999998
1
0.999999
0.999974
0.999799
0.9998
0.999914
0.999959
0.999997
0.999997
0.999997
0.999997
0.999998
0.999999
0.999999
0.999993
0.999992
0.999997
0.999999
0.999992
0.999988
0.999988
0.999865
0.999799
0.99987
0.999977
0.999961
0.999999
0.999998
0.999998
0.999997
0.999998
0.999995
0.999987
0.999964
0.999968
0.999988
0.999986
0.999972
0.999971
0.999958
0.999941
0.999962
0.99999
0.999981
0.999955
0.999998
0.999998
0.999998
0.99999
0.999967
0.999943
0.999934
0.999935
0.999956
0.999995
0.999996
0.999968
0.999897
0.999924
0.999996
0.999998
0.999991
0.99998
0.999964
0.999962
0.999967
0.999981
0.999956
0.999935
0.999934
0.999934
0.999965
0.999995
0.999996
0.999996
0.9999
0.999891
0.999899
0.999984
0.999984
0.999975
0.999981
0.999996
0.999927
0.999945
0.99995
0.999953
0.999959
0.999959
0.999955
0.999953
0.999965
0.999991
0.999988
0.999935
0.999895
0.999917
0.999946
0.999957
0.999973
0.999996
0.999997
0.999918
0.999948
0.999956
0.999955
0.999949
0.99995
0.999958
0.99995
0.999943
0.999943
0.999952
0.999973
0.999982
0.999976
0.999977
0.999985
0.999979
0.999988
0.999996
0.999941
0.999984
0.999971
0.999956
0.99996
0.999986
0.999987
0.999977
0.999954
0.999945
0.999945
0.999946
0.999986
0.99999
0.999989
0.999984
0.999971
0.999981
0.999997
0.999998
0.999998
0.999997
0.999985
0.999984
0.999985
0.999986
0.999991
0.999994
0.999992
0.999971
0.999969
0.999969
0.999986
0.99998
0.999971
0.999971
0.999981
0.999997
1
1
0.999999
1
1
0.999998
0.999994
0.999994
0.999995
0.999999
1
1
0.999999
0.999976
0.999972
0.999971
0.999971
0.999993
0.999997
1
1
1
1
1
1
1
1
1
0.999999
1
1
1
1
0.999989
0.999972
0.999988
0.999999
0.999997
1
1
1
1
1
1
1
1
1
1
1
1
1
1
1
0.999999
0.999999
0.999999
0.999997
1
1
1
1
1
1
1
1
1
1
1
1
1
1
1
1
1
1
0.999997
1
1
1
1
1
1
1
1
1
1
1
1
1
1
1
1
1
1
0.999997
1
1
1
1
1
1
1
1
1
1
1
1
1
1
1
1
1
1
0.999997
1
1
1
1
1
1
1
1
1
1
1
1
1
1
1
1
1
0.999999
0.999998
1
1
1
1
1
1
1
1
1
1
1
1
1
1
1
1
1
0.999998
0.999999
1
1
1
1
1
1
1
1
1
1
1
1
1
1
1
1
0.999999
0.999998
1
1
1
1
1
1
1
1
1
1
1
1
1
1
1
1
1
1
0.999999
1
1
1
1
1
1
1
1
1
1
1
1
1
1
1
1
1
1
1
1
1
1
1
1
1
1
1
1
1
1
1
1
1
1
1
1
1
1
1
1
1
1
1
1
1
1
1
1
1
1
1
1
1
1
1
1
1
1
1
1
1
1
1
1
1
1
1
1
0.999999
1
1
1
1
1
1
1
1
1
1
1
1
1
1
1
1
1
1
0.999999
0.999996
0.999999
1
1
1
1
1
1
1
1
1
1
1
1
1
1
1
1
0.999999
0.999995
0.999995
0.999999
1
1
1
1
1
1
1
1
1
1
1
1
1
1
1
1
0.999997
0.999995
0.999995
1
1
1
1
0.999998
1
1
1
1
1
1
1
1
1
1
1
1
0.999997
0.999995
0.999996
1
1
0.999999
0.999997
1
1
1
1
1
1
1
1
1
1
1
1
1
0.999996
0.999995
0.999997
1
1
0.999997
1
1
1
1
1
1
1
1
1
1
1
1
1
1
0.999997
0.999996
0.999999
1
0.999997
1
1
1
1
1
1
1
1
1
1
1
1
1
1
1
0.999998
0.999997
0.999999
0.999998
)
;

boundaryField
{
    leftWall
    {
        type            alphaContactAngle;
        thetaProperties 
6
(
(galistan air) 90 0 0 0
(oil galistan) 90 0 0 0
(water oil) 90 0 0 0
(water air) 90 0 0 0
(oil air) 90 0 0 0
(water galistan) 90 0 0 0
);
        value           nonuniform List<scalar> 
50
(
1.10955e-09
1.36825e-09
3.43933e-09
2.64066e-08
0.000199144
0.00111579
0.00111313
0.000547652
0.00224992
0.0271642
0.0353073
0.017298
0.000242686
0.000204228
0.000140105
0.077041
0.814688
0.999725
1
1
1
1
1
1
1
1
1
1
1
1
1
1
1
1
1
1
1
1
1
1
1
1
1
1
1
1
1
1
1
1
)
;
    }
    rightWall
    {
        type            alphaContactAngle;
        thetaProperties 
6
(
(galistan air) 90 0 0 0
(oil galistan) 90 0 0 0
(water oil) 90 0 0 0
(water air) 90 0 0 0
(oil air) 90 0 0 0
(water galistan) 90 0 0 0
);
        value           nonuniform List<scalar> 
50
(
0.00304419
0.00270808
0.0109422
0.0444296
0.0406708
0.025097
0.0449363
0.0490167
0.0506552
0.0385855
0.0425638
0.0278608
5.63707e-05
0.00327432
0.520568
0.995169
0.999997
0.999987
0.999937
0.999909
0.999959
0.999961
0.999955
0.999964
0.999996
0.999997
0.999996
0.999997
0.999997
0.999997
0.999997
0.999997
0.999997
0.999997
0.999997
0.999998
0.999999
1
1
1
1
1
1
1
1
0.999998
0.999997
0.999997
0.999997
0.999998
)
;
    }
    lowerWall
    {
        type            alphaContactAngle;
        thetaProperties 
6
(
(galistan air) 90 0 0 0
(oil galistan) 90 0 0 0
(water oil) 90 0 0 0
(water air) 90 0 0 0
(oil air) 90 0 0 0
(water galistan) 90 0 0 0
);
        value           nonuniform List<scalar> 
62
(
1.10955e-09
1.05843e-09
1.06418e-09
1.15703e-09
1.32318e-09
1.35068e-09
1.0964e-09
6.99485e-10
4.21211e-10
2.80543e-10
2.35779e-10
2.23487e-10
2.09524e-10
2.0643e-10
2.00481e-10
2.10808e-10
2.48561e-10
2.85866e-10
2.82141e-10
1.62415e-10
1.579e-10
5.75252e-07
6.22162e-07
6.22162e-07
6.29714e-07
2.09546e-07
3.92026e-09
8.43291e-10
0.00252461
0.00998124
0.00998174
0.000138286
0.000138286
0.00147259
0.00270076
0.000278408
0.000274236
0.00823149
0.0164257
0.0122429
0.00415913
0.00462132
0.00548668
0.000278408
0.000582254
0.00505059
0.0062533
0.0062533
0.00470583
0.00190629
0.00190457
0.0019037
0.00178858
0.00166763
0.00166715
0.0016667
0.00166628
0.00172705
0.00182296
0.00273944
0.00304684
0.00304419
)
;
    }
    atmosphere
    {
        type            inletOutlet;
        inletValue      uniform 1;
        value           nonuniform List<scalar> 
46
(
1
1
0.999999
1
1
1
1
1
1
1
1
1
1
1
1
1
1
1
1
1
1
1
1
1
1
1
1
1
1
1
1
1
1
1
1
1
1
1
1
1
1
1
0.999999
0.999997
0.999999
0.999998
)
;
    }
    defaultFaces
    {
        type            empty;
    }
}


// ************************************************************************* //
