/*--------------------------------*- C++ -*----------------------------------*\
| =========                 |                                                 |
| \\      /  F ield         | OpenFOAM: The Open Source CFD Toolbox           |
|  \\    /   O peration     | Version:  2312                                  |
|   \\  /    A nd           | Website:  www.openfoam.com                      |
|    \\/     M anipulation  |                                                 |
\*---------------------------------------------------------------------------*/
FoamFile
{
    version     2.0;
    format      ascii;
    arch        "LSB;label=32;scalar=64";
    class       volScalarField;
    location    "5.7";
    object      alpha.galistan;
}
// * * * * * * * * * * * * * * * * * * * * * * * * * * * * * * * * * * * * * //

dimensions      [0 0 0 0 0 0 0];

internalField   nonuniform List<scalar> 
2268
(
1
1
1
1
1
1
1
1
1
1
1
1
1
1
1
1
1
1
1
1
0.999968
0.999958
0.999958
1
1
1
1
1
1
1
1
1
1
1
1
1
1
1
1
1
1
1
1
0.99999
0.999965
0.999977
1
1
1
1
1
1
1
1
1
1
1
1
1
1
1
1
1
1
1
1
1
0.999997
1
1
1
1
1
1
1
1
1
0.999999
1
1
1
1
1
0.999999
0.999999
1
1
1
1
1
1
1
0.996082
0.996062
0.995769
0.995513
0.996117
0.997516
0.998931
0.999769
0.999907
0.999914
0.999887
0.99985
0.999769
0.999854
0.999932
0.999964
0.999993
1
1
1
1
1
1
0.493189
0.493453
0.495388
0.501326
0.513222
0.532229
0.556901
0.587348
0.628729
0.674302
0.722739
0.775642
0.830644
0.883057
0.927425
0.963777
0.995097
0.990073
0.97801
0.982945
0.99073
0.995583
0.997475
4.05002e-17
4.86128e-24
4.82578e-24
5.09761e-12
-3.04655e-08
-4.05964e-09
2.72593e-17
-5.18774e-08
-4.10701e-10
0.00951097
0.0289351
0.0562558
0.096063
0.153068
0.231376
0.336003
0.467358
0.610132
0.733916
0.819252
0.873466
0.904704
0.929675
1.00499e-07
3.47747e-07
1.18996e-05
3.67727e-05
-2.59276e-22
2.52863e-22
5.12026e-08
2.86622e-07
3.4462e-13
2.47309e-11
2.50661e-11
5.46287e-11
1.75939e-06
2.69227e-05
1.20383e-24
-2.61418e-21
0.00582666
0.032914
0.0831497
0.153961
0.230596
0.29152
0.315459
0.963457
0.964484
0.964577
0.964587
0.963318
0.96368
0.965162
0.965069
0.964794
0.964715
0.96445
0.964486
0.967531
0.967885
0.967886
0.967874
0.967888
0.967888
0.967751
0.914064
0.947802
0.96727
0.968496
0.968468
0.966611
0.964736
0.961419
0.956766
0.948991
0.945378
0.947116
0.949879
0.954934
0.955725
0.954467
0.936576
0.914338
0.896016
0.582625
0.635514
0.710906
0.757715
0.768444
0.772123
0.765741
0.741748
0.710215
0.67537
0.653155
0.648327
0.640435
0.622647
0.590516
0.561288
0.528111
0.509196
0.513947
0.0398954
0.0714774
0.149989
0.224402
0.241148
0.206349
0.145078
0.0920704
0.0581667
0.0470542
0.0461034
0.0570237
0.0721235
0.0740604
0.0652976
0.0647918
0.0458129
0.0317911
0.047023
-2.24041e-06
-5.96911e-05
-1.38982e-05
9.32558e-13
1.78538e-21
3.43097e-27
-4.18453e-22
-2.66435e-08
-8.09982e-07
0.000111384
0.000178075
1.71154e-05
-3.99839e-12
-4.79397e-07
6.96659e-13
0.000217589
-3.4742e-23
-5.13939e-06
-3.4488e-08
0.000420208
0.00470573
0.00512839
0.00517461
0.00188578
5.10543e-06
0.000719452
0.00113613
0.00090462
0.00143459
0.00278633
0.00137446
7.8129e-07
0.00559669
0.00990707
0.00618743
0.0010677
0.00186768
0.000629557
0.00282664
0.0053089
0.00506933
0.00629286
0.00615791
0.000732199
0.000524114
0.00113538
0.00108804
0.00299048
0.0168937
0.00423267
0.000758334
0.000721516
0.0070403
0.00864945
0.00234653
0.00254678
0.00110098
0.00288271
0.00318822
0.00120175
0.00449277
0.00639718
0.00399988
0.000335531
0.000335584
0.000386096
0.00999602
0.022717
0.0104799
0.00174929
0.00181198
0.0016111
0.00793464
0.00226388
0.0025654
0.0013141
1.36462e-06
1.47252e-06
4.19365e-05
0.000277967
0.000533641
0.000228761
1.96811e-05
3.83495e-05
1.53762e-05
1.67133e-09
3.25074e-06
2.96052e-05
1.73275e-05
1.76212e-05
2.08723e-05
-6.67838e-08
-1.27511e-06
-7.3795e-07
-7.44055e-07
-3.59153e-07
-2.89308e-07
-2.74867e-06
-3.042e-06
0.000300737
4.54771e-05
5.44347e-05
0.00129873
0.00203666
0.00200663
0.00112109
0.000991794
0.000787278
0.000305784
0.000374662
0.000435711
0.000159434
9.30809e-05
0.00052311
0.0012294
0.00113258
0.000499028
0.000309184
0.000173853
0.000137095
0.0017169
0.0037021
0.000407844
0.000407775
0.000148197
0.000467933
0.00190897
0.00202952
0.00217286
0.00231055
0.0023106
0.00161446
0.000672729
0.000182116
0.000396077
0.00276516
0.00469707
0.00470055
0.00469661
0.0046778
0.0047949
0.00497351
0.00543956
0.00599797
0.00600102
0.000364449
0.000269802
0.000192643
0.000181469
8.19844e-05
7.89333e-06
0.000144686
0.00172751
0.00230594
0.00134299
6.69634e-05
6.69742e-05
0.000125654
0.00105261
0.00180813
0.00189836
0.00178826
0.00177122
0.00190202
0.00190697
0.00179467
0.00291319
0.00588608
7.77557e-05
6.56623e-05
3.34689e-05
9.03614e-06
8.68143e-06
7.89329e-06
8.18954e-06
0.000836798
0.00199629
0.000791203
6.64547e-05
7.35412e-05
7.03559e-05
5.54896e-05
1.26974e-05
6.11248e-06
4.70182e-05
5.23971e-05
1.41351e-05
7.95648e-05
0.000330725
0.000426903
0.000908884
9.07798e-05
7.0649e-05
3.64474e-05
7.96606e-06
7.89373e-06
7.89382e-06
7.89366e-06
9.85831e-05
0.000350961
0.000186976
6.64974e-05
4.84947e-05
4.74479e-05
2.36177e-05
6.01592e-06
5.98678e-06
8.24497e-06
7.52751e-06
6.10639e-06
1.87344e-05
0.000249364
0.000427076
0.00038022
0.000221671
0.000118307
6.59768e-05
1.74379e-05
7.91533e-06
0.000178967
0.000474101
0.000319624
0.000187965
0.000187595
0.000374601
0.000443813
0.000422635
0.000179141
2.8753e-05
2.20852e-05
3.82997e-05
6.80491e-05
7.58987e-05
5.87395e-05
5.96493e-05
9.9553e-05
0.0015724
0.000402581
0.000375908
0.000101609
0.000239847
0.000579321
0.000669652
0.000668261
0.000516068
0.000315931
0.000375022
0.00045496
0.000455016
0.000425027
0.000117245
3.68134e-05
6.12694e-05
0.000227699
0.000326942
0.000326939
0.000326863
0.000225381
5.15392e-05
0.000197885
0.000402618
0.000402581
0.000306113
0.000122543
0.000276773
0.000665999
0.000669654
0.000426772
0.00011592
0.000123638
0.000200288
0.000188501
6.2141e-05
8.27038e-06
4.89607e-06
7.73524e-06
2.69856e-05
9.88285e-05
0.000203837
0.000163001
1.56331e-05
1.20382e-05
0.000120027
0.000170853
0.000220361
0.000164744
2.79294e-05
1.99083e-05
9.4079e-05
0.000115723
2.07553e-05
3.60119e-08
-3.59977e-09
-5.36879e-09
-2.58829e-09
-1.54265e-10
-2.81446e-11
-5.02859e-11
-1.80775e-10
-1.03592e-10
1.38254e-06
4.32582e-06
6.0575e-06
8.95472e-06
1.195e-05
1.66052e-05
4.33607e-09
4.45359e-09
4.33606e-09
2.06036e-08
2.11668e-08
2.06335e-08
1.46754e-07
1.02958e-07
1.11745e-07
1.23987e-07
2.7786e-07
1.67794e-07
3.02446e-08
1.15617e-08
1.5014e-08
3.27835e-08
1.85198e-08
1.89472e-08
4.38475e-08
7.56431e-07
3.21701e-07
3.11109e-07
4.35806e-07
4.54138e-09
7.65637e-09
7.74468e-09
7.16501e-08
8.21654e-08
8.67353e-08
1.07161e-07
2.81986e-08
1.47905e-08
2.2065e-08
5.81717e-08
6.39276e-08
3.7611e-08
5.82489e-09
8.9158e-09
6.4138e-08
8.57684e-08
2.33205e-08
1.88482e-08
1.32571e-06
3.5749e-06
3.67621e-06
3.64676e-06
5.04168e-09
1.05664e-08
7.09769e-08
9.93482e-08
9.94034e-08
5.92389e-08
5.74246e-08
1.9943e-08
4.46615e-09
4.05197e-09
1.66612e-08
1.25885e-08
8.2919e-09
3.51925e-09
9.65405e-09
5.26512e-08
2.01921e-07
4.29388e-07
1.76733e-06
2.85644e-06
5.54198e-06
5.53776e-06
4.5347e-06
5.26796e-09
8.59186e-09
5.85583e-08
7.08976e-08
4.27997e-08
3.64784e-08
2.60673e-08
1.07926e-08
2.55622e-09
2.18482e-09
3.32298e-09
3.38963e-09
2.66079e-09
5.19098e-09
7.78648e-09
9.78883e-09
2.04658e-07
1.0089e-06
2.13927e-06
2.60913e-06
2.39079e-06
1.01088e-06
3.14503e-08
3.44296e-09
9.70375e-09
3.37002e-08
3.97001e-08
2.27259e-08
1.55288e-08
1.01747e-08
4.97086e-09
2.35249e-09
2.0246e-09
2.297e-09
2.48322e-09
2.30959e-09
2.71638e-09
2.76686e-09
1.11095e-08
2.66598e-07
9.20876e-07
1.07923e-07
2.77895e-08
2.72875e-08
2.78107e-08
3.11286e-08
2.15504e-09
6.43459e-09
1.18355e-08
1.19322e-08
8.72764e-09
6.14359e-09
4.40177e-09
2.98854e-09
2.15825e-09
1.89858e-09
1.88869e-09
1.80349e-09
1.77319e-09
1.64449e-09
1.71035e-09
1.17413e-08
1.79695e-07
1.22858e-07
3.46573e-08
3.50189e-08
1.73073e-07
3.10787e-07
3.48924e-08
1.3838e-09
2.73249e-09
3.5579e-09
3.71022e-09
3.61204e-09
3.37384e-09
2.76391e-09
2.13282e-09
1.69153e-09
1.45611e-09
1.3087e-09
1.27684e-09
1.34735e-09
1.43067e-09
1.73519e-09
6.79146e-09
3.43956e-08
2.92918e-08
2.90961e-08
7.80972e-08
1.2703e-06
2.0611e-06
3.25472e-08
9.84046e-10
1.49037e-09
1.81894e-09
2.09819e-09
2.16439e-09
2.02975e-09
1.69553e-09
1.35994e-09
1.12436e-09
9.71268e-10
8.61387e-10
8.67372e-10
9.53874e-10
1.13216e-09
1.41432e-09
2.55895e-09
6.7053e-09
5.29042e-09
1.74024e-08
6.69157e-08
1.3742e-06
2.06198e-06
1.1946e-06
7.90603e-10
1.00599e-09
1.22689e-09
1.38135e-09
1.3354e-09
1.17148e-09
9.59981e-10
7.89149e-10
6.70967e-10
5.84953e-10
5.21575e-10
5.11018e-10
5.6432e-10
6.91234e-10
8.7662e-10
1.1817e-09
1.86649e-09
3.44596e-09
1.87671e-08
5.46788e-08
1.73051e-07
1.68943e-06
1.24457e-06
6.78172e-10
7.2064e-10
8.40403e-10
8.75988e-10
7.99964e-10
6.69965e-10
5.39093e-10
4.41488e-10
3.70275e-10
3.16057e-10
2.78376e-10
2.58513e-10
2.81209e-10
3.53619e-10
4.78825e-10
6.93845e-10
1.22829e-09
3.06052e-09
2.1291e-08
8.62088e-08
1.22293e-07
1.04618e-07
3.27325e-08
5.99306e-10
5.14313e-10
5.53633e-10
5.3396e-10
4.62192e-10
3.69696e-10
2.87867e-10
2.26564e-10
1.82285e-10
1.50582e-10
1.28303e-10
1.1573e-10
1.255e-10
1.61574e-10
2.33468e-10
3.73455e-10
7.07482e-10
1.66391e-09
1.10335e-08
6.44806e-08
1.15504e-07
9.72778e-08
3.5013e-08
5.42937e-10
3.68457e-10
3.63158e-10
3.24364e-10
2.65041e-10
2.01937e-10
1.49951e-10
1.11038e-10
8.33694e-11
6.36284e-11
5.12076e-11
4.65629e-11
5.21474e-11
6.95657e-11
1.06372e-10
1.78927e-10
3.32714e-10
6.79393e-10
2.43575e-09
1.54708e-08
7.35954e-08
1.10198e-07
1.09958e-07
4.86411e-10
2.67105e-10
2.48266e-10
2.15925e-10
1.74557e-10
1.30561e-10
9.29225e-11
6.36136e-11
4.25298e-11
2.89597e-11
2.12364e-11
1.77287e-11
1.88442e-11
2.52752e-11
4.13154e-11
7.70826e-11
1.56843e-10
3.03394e-10
5.15454e-10
1.53877e-09
1.38255e-08
7.98279e-08
1.10155e-07
4.45703e-10
2.03344e-10
1.90137e-10
1.75177e-10
1.51526e-10
1.18947e-10
8.36708e-11
5.39986e-11
3.28848e-11
1.99117e-11
1.20246e-11
7.90202e-12
6.70248e-12
8.35617e-12
1.42197e-11
3.01003e-11
7.12293e-11
1.58447e-10
3.02793e-10
4.94113e-10
1.26786e-09
8.51107e-09
4.31134e-08
4.08597e-10
1.63588e-10
1.70369e-10
1.81504e-10
1.74578e-10
1.37096e-10
9.25108e-11
5.77653e-11
3.42342e-11
1.95913e-11
1.05615e-11
5.6481e-12
3.31353e-12
2.89182e-12
4.37965e-12
9.598e-12
2.45889e-11
6.30041e-11
1.46395e-10
2.85409e-10
4.81873e-10
8.73961e-10
6.75803e-09
3.84509e-10
1.46457e-10
1.78782e-10
2.2005e-10
2.27496e-10
1.61369e-10
1.02302e-10
6.16702e-11
3.66082e-11
2.07456e-11
1.1125e-11
5.5979e-12
2.6777e-12
1.46473e-12
1.39082e-12
2.55524e-12
6.24321e-12
1.64141e-11
4.23116e-11
1.1121e-10
3.00835e-10
7.98547e-10
1.68594e-09
3.61024e-10
1.47257e-10
2.14552e-10
2.86981e-10
3.12456e-10
1.93972e-10
1.09739e-10
6.16079e-11
3.73949e-11
2.0958e-11
1.13439e-11
5.7845e-12
2.72897e-12
1.20455e-12
6.49428e-13
7.0226e-13
1.41614e-12
3.51101e-12
9.24183e-12
2.36184e-11
6.6354e-11
1.77389e-10
3.74654e-10
3.4634e-10
1.63999e-10
2.82682e-10
4.13038e-10
4.44576e-10
2.37696e-10
1.10857e-10
5.77833e-11
3.52451e-11
1.96696e-11
1.08027e-11
5.64461e-12
2.76777e-12
1.22673e-12
5.09611e-13
2.83622e-13
3.42973e-13
6.78558e-13
1.46257e-12
4.08202e-12
1.1386e-11
2.88606e-11
6.31017e-11
3.33073e-10
2.03767e-10
4.03538e-10
6.16467e-10
5.61143e-10
2.74896e-10
1.07422e-10
5.54603e-11
3.13552e-11
1.69408e-11
9.42459e-12
5.11899e-12
2.61233e-12
1.20767e-12
5.03618e-13
2.01215e-13
1.2478e-13
1.62833e-13
3.03932e-13
6.29243e-13
1.31333e-12
3.39138e-12
7.48226e-12
3.3583e-10
2.63771e-10
5.74294e-10
8.04827e-10
5.84652e-10
2.82055e-10
1.06338e-10
5.71758e-11
2.73668e-11
1.37126e-11
7.53294e-12
4.21237e-12
2.26451e-12
1.11727e-12
4.88854e-13
1.86693e-13
7.39172e-14
5.91277e-14
9.44255e-14
1.73627e-13
3.30519e-13
6.24897e-13
1.15716e-12
3.4669e-10
3.45999e-10
7.52236e-10
9.52233e-10
5.99659e-10
2.67138e-10
1.19776e-10
6.01235e-11
2.40306e-11
1.0614e-11
5.54532e-12
3.17821e-12
1.7954e-12
9.39851e-13
4.43601e-13
1.77003e-13
6.39385e-14
3.1315e-14
4.09255e-14
7.71505e-14
1.49255e-13
2.93353e-13
5.09686e-13
3.65141e-10
4.32413e-10
9.09066e-10
9.93253e-10
6.23007e-10
2.74865e-10
1.48695e-10
6.28038e-11
2.1751e-11
8.06271e-12
3.90656e-12
2.19901e-12
1.27496e-12
7.13762e-13
3.66506e-13
1.59561e-13
5.97462e-14
2.12788e-14
2.08103e-14
3.94081e-14
8.91013e-14
1.84475e-13
3.4165e-13
3.82025e-10
5.08018e-10
1.02126e-09
1.01745e-09
6.48011e-10
3.12813e-10
1.76798e-10
6.77236e-11
2.09062e-11
6.18317e-12
2.65391e-12
1.46826e-12
8.46996e-13
4.81352e-13
2.65743e-13
1.31582e-13
5.40707e-14
1.71883e-14
1.12123e-14
2.14475e-14
4.62464e-14
1.15373e-13
2.30421e-13
4.08896e-10
5.93652e-10
1.10772e-09
1.01705e-09
6.21321e-10
3.58666e-10
2.04389e-10
7.57345e-11
2.08106e-11
4.84172e-12
1.74429e-12
8.96031e-13
5.08677e-13
2.90752e-13
1.71612e-13
9.38006e-14
4.36518e-14
1.55765e-14
6.55879e-15
1.02286e-14
2.6946e-14
6.97399e-14
1.386e-13
4.27833e-10
6.61137e-10
1.15346e-09
1.01433e-09
6.08521e-10
3.98615e-10
2.32389e-10
8.2965e-11
2.07813e-11
3.92952e-12
1.12642e-12
5.49462e-13
2.866e-13
1.61277e-13
9.51761e-14
5.74688e-14
3.09318e-14
1.29724e-14
4.24595e-15
4.74723e-15
1.02994e-14
2.97731e-14
6.97681e-14
4.4979e-10
7.06809e-10
1.16224e-09
1.00345e-09
6.3504e-10
4.3901e-10
2.45593e-10
8.39582e-11
1.92149e-11
3.2616e-12
7.09928e-13
3.1317e-13
1.59689e-13
8.21063e-14
4.61211e-14
2.94655e-14
1.84843e-14
9.48776e-15
2.943e-15
2.2365e-15
5.17515e-15
1.33315e-14
3.11904e-14
4.67502e-10
7.14369e-10
1.15812e-09
9.8115e-10
6.36296e-10
4.72558e-10
2.26224e-10
6.84566e-11
1.59019e-11
2.55219e-12
4.17606e-13
1.63859e-13
8.33205e-14
3.91844e-14
1.96762e-14
1.21821e-14
8.61897e-15
5.56936e-15
2.00451e-15
8.40642e-16
1.2545e-15
3.67363e-15
1.11998e-14
4.92543e-10
7.03023e-10
1.12118e-09
9.57704e-10
6.23007e-10
4.78809e-10
1.96023e-10
5.60946e-11
1.23957e-11
1.76296e-12
2.18663e-13
8.0646e-14
4.02429e-14
1.77862e-14
7.6805e-15
4.12226e-15
3.04353e-15
2.3515e-15
1.17591e-15
4.09565e-16
4.24311e-16
1.07703e-15
2.61797e-15
5.1342e-10
6.70401e-10
1.1017e-09
9.06004e-10
6.28015e-10
3.99985e-10
1.48091e-10
3.97404e-11
7.63165e-12
9.40982e-13
9.57233e-14
3.23306e-14
1.68651e-14
7.31915e-15
2.76159e-15
1.1691e-15
7.88405e-16
7.07662e-16
5.17087e-16
2.01442e-16
9.88597e-17
1.74204e-16
5.26143e-16
5.4223e-10
5.92829e-10
1.03927e-09
7.0589e-10
5.64515e-10
2.58557e-10
8.11672e-11
2.11979e-11
3.00823e-12
3.2494e-13
2.86902e-14
9.75903e-15
5.50339e-15
2.48113e-15
8.80406e-16
2.88522e-16
1.40417e-16
1.36719e-16
1.5845e-16
9.50895e-17
3.33292e-17
4.07984e-17
8.6283e-17
5.79858e-10
5.0261e-10
9.09126e-10
5.8972e-10
3.41442e-10
1.01058e-10
3.33318e-11
7.95968e-12
8.76533e-13
6.81673e-14
5.07252e-15
1.92729e-15
1.23769e-15
6.03013e-16
2.14887e-16
5.91358e-17
1.89943e-17
1.81486e-17
3.04152e-17
3.66213e-17
1.22478e-17
7.45535e-18
1.40975e-17
6.97861e-10
4.6413e-10
6.86204e-10
4.1116e-10
6.15348e-11
1.68953e-11
5.99882e-12
1.222e-12
8.9358e-14
3.68286e-15
3.04596e-16
1.8069e-16
1.38323e-16
7.55031e-17
2.81715e-17
7.17828e-18
1.65703e-18
1.5081e-18
4.28507e-18
9.03006e-18
5.31553e-18
1.99473e-18
2.09052e-18
7.95795e-05
7.33744e-05
0.00033737
0.000816969
0.000408634
7.41979e-05
7.1856e-05
7.75867e-05
0.00599877
0.00559253
0.00174132
0.001058
0.00600187
0.00599918
0.00599445
0.00580726
0.00291617
0.00336466
0.00187093
0.00166558
0.000208793
0.000203991
0.000198499
0.000194947
0.00197666
0.00171676
0.000560309
0.000374549
0.00108853
0.0022423
0.00223553
0.00198873
0.000862241
0.000900278
0.000701341
0.000823577
1.05394e-05
5.35751e-06
3.46068e-07
2.31162e-07
1.6215e-06
3.06996e-06
1.06555e-06
1.99381e-07
4.29657e-06
4.31829e-06
4.29875e-06
3.03943e-06
1.53613e-06
1.47453e-06
1.13284e-06
9.88018e-07
3.17838e-08
3.2098e-08
4.94074e-08
8.17802e-08
3.18683e-08
3.2079e-08
3.25478e-08
3.31671e-08
3.20792e-08
3.41071e-08
3.45433e-08
3.33138e-08
3.2295e-08
8.84314e-08
2.14219e-07
1.98678e-07
3.25158e-08
1.01944e-06
2.85311e-06
2.48386e-06
1.27095e-07
1.88962e-06
3.24413e-06
3.25532e-06
3.22647e-07
9.0689e-07
8.37699e-07
1.95397e-06
1.70295e-08
6.74792e-09
6.78224e-09
6.57112e-09
8.69996e-08
3.61459e-08
1.59896e-08
1.11034e-08
1.0149e-07
8.40124e-08
2.53896e-08
2.01063e-08
5.49646e-08
6.54557e-08
5.20466e-08
1.1867e-08
1.31095e-08
2.29337e-08
2.13577e-08
7.41212e-09
3.40754e-09
3.5041e-09
2.50878e-09
1.94866e-09
4.87557e-10
5.34704e-10
4.96827e-10
3.33161e-10
9.8554e-11
9.03469e-11
6.66726e-11
4.79182e-11
1.06177e-11
1.08044e-11
9.47046e-12
8.15249e-12
1.72979e-12
1.95308e-12
2.19563e-12
2.39336e-12
7.89428e-13
9.62442e-13
1.17837e-12
1.47308e-12
5.21232e-13
6.75331e-13
9.10194e-13
1.15731e-12
3.58289e-13
5.13909e-13
6.90368e-13
9.64703e-13
2.50008e-13
3.35501e-13
5.04734e-13
6.78671e-13
1.24957e-13
1.92168e-13
2.86856e-13
4.43566e-13
6.1548e-14
9.03588e-14
1.56155e-13
2.28789e-13
2.02886e-14
3.75864e-14
5.9245e-14
1.00861e-13
5.91536e-15
8.86407e-15
1.6981e-14
2.97089e-14
9.86931e-16
1.74558e-15
3.0552e-15
5.70845e-15
1.5597e-16
2.16228e-16
3.7688e-16
7.01978e-16
1.90712e-17
2.24648e-17
3.35623e-17
5.25702e-17
2.31998e-18
1.91366e-18
2.5963e-18
2.95623e-18
0.0019361
0.000218366
0.000198796
0.00168073
0.00601125
0.00233509
0.000441672
0.000335458
0.00256506
0.0199073
0.0226257
0.00527663
7.4642e-05
9.90273e-05
0.00048496
0.000973223
0.00230788
0.00167464
0.00109518
7.18125e-05
7.28634e-05
0.00116226
0.00518141
0.001948
0.000344884
0.00048391
0.00497064
0.0192431
0.0232575
0.0114366
0.000148125
0.000113441
5.9062e-05
0.000130274
0.00136873
0.00514826
0.0034932
0.00108971
0.00240943
0.00799451
0.0101528
0.00810043
0.000516693
0.000533934
0.00854303
0.0232322
0.02324
0.0232384
0.00984994
0.00115493
6.82346e-05
7.06413e-05
0.00243224
0.00634448
0.00673679
0.00673697
0.00182055
0.00829473
0.0103062
0.0103116
0.0103114
0.00996665
0.00488854
0.00906977
0.0185404
0.0230726
0.0200468
0.00794699
0.00449251
0.000601088
0.000742839
0.00563388
0.00673673
0.0067368
0.00612213
0.00489597
0.00348886
0.00565842
0.00603196
0.00681097
0.00764419
0.00442829
0.001837
0.00135218
0.000666143
0.000425231
0.000425625
0.000442213
0.00103445
0.00197525
0.00217744
0.00318054
0.00298183
0.00189228
0.00206086
0.000191554
9.75183e-05
9.90776e-05
0.000166719
0.000548737
0.000495627
8.284e-05
0.000191848
0.000820688
0.000862705
0.000437209
0.000442639
0.000626012
0.0011132
0.00111467
0.00111896
0.00112101
0.00223494
0.00411212
0.000295045
0.000136516
7.20204e-05
7.20204e-05
7.20204e-05
7.45767e-05
7.60841e-05
0.000126157
0.000643453
0.000966602
0.000948186
0.000500538
0.000486567
0.000547804
0.00181664
0.0032689
0.00522814
0.00681806
0.00679743
0.00114333
0.000545481
0.000470846
0.000794252
0.000876723
0.00035498
8.09894e-05
9.41689e-05
0.00027716
0.000987978
0.00182248
0.00132341
0.000544136
0.00307009
0.00637259
0.00633592
0.00556104
0.00419766
0.00362934
0.0012083
0.00136343
0.00136424
0.00136387
0.00136425
0.00136393
0.00109394
0.000278861
0.000273414
0.00148388
0.0018249
0.00176091
0.00216911
0.00353798
0.00223851
0.00066041
4.8083e-10
4.57857e-10
6.3212e-10
5.34618e-05
0.000345854
0.000813157
0.00136211
0.00136388
0.00135832
0.000973025
0.000420236
0.000268656
0.00106952
0.0014003
0.00148523
0.000425998
4.03438e-05
7.30147e-10
7.04117e-10
4.63063e-10
3.43337e-09
6.10717e-10
1.84099e-07
8.55895e-07
6.91771e-06
0.000149238
0.00036487
0.000127496
0.00013376
0.000178094
5.84337e-05
3.86866e-05
3.9749e-05
0.000189091
0.000181858
8.49898e-10
4.64059e-09
6.9273e-08
1.80694e-07
1.76916e-08
2.40986e-07
1.61501e-07
1.65503e-07
2.70161e-07
5.36335e-10
5.89875e-10
1.0042e-06
7.23174e-10
6.6444e-10
1.64015e-15
3.8487e-16
-2.12675e-12
-2.41183e-22
2.39994e-13
9.85661e-09
7.54568e-07
1.83032e-06
5.60553e-07
2.85921e-08
1.68113e-06
2.87197e-07
1.65894e-10
1.05127e-10
4.84205e-10
5.35894e-10
2.33929e-08
1.16726e-08
5.38635e-09
1.77828e-11
-3.8487e-16
9.75513e-27
-6.66477e-14
8.63924e-08
4.37536e-07
2.28405e-06
2.4295e-06
9.40662e-07
2.62363e-08
2.54599e-06
1.13777e-07
4.07668e-08
2.74552e-11
1.63506e-09
7.72903e-08
1.17839e-07
1.15846e-07
5.16598e-08
1.60286e-09
6.00906e-09
1.28276e-08
-1.05107e-11
1.27931e-06
2.28102e-06
2.43296e-06
2.43243e-06
4.13663e-07
4.49497e-07
2.54434e-06
7.21314e-08
9.37891e-08
7.19121e-08
1.91444e-08
2.59215e-08
5.02909e-08
7.80315e-08
5.06125e-08
8.40298e-10
1.48171e-07
1.86497e-07
8.09024e-08
4.88145e-07
2.43255e-06
2.43211e-06
1.20172e-06
1.87134e-07
1.49982e-06
2.52117e-06
3.34744e-08
9.02199e-08
2.5573e-07
7.64102e-07
1.20938e-06
1.03439e-06
6.94159e-07
2.52309e-07
1.01038e-08
3.92475e-08
6.4243e-08
6.68271e-08
1.11371e-06
2.30856e-06
1.31037e-06
5.38332e-07
1.8721e-07
2.64176e-06
2.65903e-06
5.74926e-08
6.6608e-08
1.06146e-06
1.58388e-06
1.5839e-06
1.58334e-06
1.51226e-06
2.58374e-07
1.7398e-08
1.64627e-08
1.64933e-08
4.67231e-07
3.94392e-07
5.2575e-07
6.01344e-07
6.14237e-07
2.12574e-06
2.05776e-06
1.71296e-06
1.40112e-06
9.16448e-07
6.18657e-07
9.44711e-07
1.58306e-06
1.58334e-06
1.58345e-06
1.50242e-06
3.22209e-07
2.92859e-08
2.97556e-08
3.14145e-08
3.25449e-08
4.07876e-07
1.92349e-06
1.91997e-06
1.18532e-06
3.24197e-07
3.20843e-07
3.25071e-06
1.99476e-06
4.472e-07
4.33113e-07
1.16884e-06
1.49726e-06
1.58319e-06
1.57352e-06
1.07317e-06
7.47496e-07
3.47005e-07
1.61122e-07
9.49427e-08
2.71471e-07
1.15917e-06
6.35466e-07
5.02624e-08
5.08083e-08
1.52412e-07
3.04352e-06
3.081e-06
1.18853e-06
1.04849e-07
1.0657e-07
7.52112e-07
1.48791e-06
2.64826e-07
2.59198e-07
8.41849e-07
1.18404e-06
1.2104e-06
1.07491e-06
1.21146e-06
8.86013e-07
5.25714e-08
5.26131e-08
1.38398e-07
3.39387e-07
8.97468e-09
1.38402e-06
9.49739e-07
1.05102e-07
1.04718e-07
8.71156e-07
1.01624e-06
1.9679e-07
5.42511e-08
5.21491e-08
7.1979e-07
1.26116e-06
1.27001e-06
1.27123e-06
2.53408e-07
5.78486e-08
4.77428e-08
6.49878e-07
1.12077e-06
1.61709e-09
9.09985e-10
8.98667e-10
1.10574e-07
2.6699e-07
1.63208e-07
4.97811e-10
6.00996e-08
5.36521e-08
7.89074e-09
1.57631e-09
1.0124e-07
3.48551e-07
1.28769e-07
1.07498e-07
4.49516e-08
8.12576e-09
5.77942e-07
1.12059e-06
8.56328e-09
2.93865e-09
1.09109e-09
4.87965e-09
5.78154e-09
4.98368e-10
4.93786e-10
4.05392e-10
4.07026e-10
1.39011e-09
1.55065e-09
5.47662e-09
1.58095e-09
9.24102e-10
9.2517e-10
1.11262e-08
8.08009e-09
8.94745e-08
8.96642e-07
5.43167e-09
3.55815e-09
2.01107e-09
1.37815e-09
1.0665e-09
7.46309e-10
5.41492e-10
4.30604e-10
4.12347e-10
6.3238e-10
7.06159e-10
1.20554e-09
1.50265e-09
1.09667e-09
9.06337e-10
6.09495e-09
8.04256e-09
2.02324e-08
1.64848e-07
3.57624e-09
2.14826e-09
1.02138e-09
9.72851e-10
8.83825e-10
6.97225e-10
5.10782e-10
4.18137e-10
3.9514e-10
4.30353e-10
5.14954e-10
6.85482e-10
8.3949e-10
9.16474e-10
9.06909e-10
4.48708e-09
5.61656e-09
4.13187e-09
6.45922e-08
1.13474e-09
4.95807e-10
4.37691e-10
4.05651e-10
3.45964e-10
2.64295e-10
2.2241e-10
2.05028e-10
2.32404e-10
2.97524e-10
4.17434e-10
5.78829e-10
7.59425e-10
9.51725e-10
1.0916e-09
2.48261e-09
3.01541e-09
3.18145e-09
3.47761e-08
1.90704e-10
1.42133e-10
1.2266e-10
1.07609e-10
9.29885e-11
8.35125e-11
8.63069e-11
1.0355e-10
1.43352e-10
2.17068e-10
3.35137e-10
5.13918e-10
7.476e-10
1.01031e-09
1.28536e-09
2.08063e-09
1.94588e-09
2.19336e-09
3.70892e-08
3.85216e-11
3.20866e-11
2.88597e-11
2.81061e-11
2.88158e-11
3.41269e-11
4.63798e-11
6.97963e-11
1.14947e-10
1.9391e-10
3.23287e-10
5.088e-10
7.53264e-10
1.00654e-09
1.68167e-09
2.07439e-09
1.94509e-09
3.05718e-09
4.31862e-08
7.56561e-12
7.89708e-12
9.11518e-12
1.1099e-11
1.46637e-11
2.06301e-11
3.04647e-11
5.11894e-11
9.79055e-11
1.96129e-10
3.76872e-10
6.14898e-10
8.79025e-10
1.142e-09
1.9451e-09
2.12587e-09
1.95412e-09
7.64207e-09
4.34441e-08
2.78375e-12
3.68597e-12
5.12725e-12
7.37452e-12
1.09628e-11
1.66724e-11
2.66063e-11
4.57882e-11
8.91674e-11
1.97031e-10
4.3774e-10
8.20028e-10
1.25838e-09
1.65895e-09
2.10119e-09
2.14258e-09
2.21629e-09
1.36831e-08
3.00206e-08
1.83346e-12
2.86533e-12
4.39663e-12
6.96934e-12
1.13108e-11
1.79556e-11
2.90166e-11
4.7977e-11
8.83434e-11
1.81137e-10
5.20878e-10
1.00573e-09
1.5935e-09
1.96469e-09
2.0708e-09
1.9281e-09
2.31919e-09
1.14669e-08
1.41749e-08
1.54855e-12
2.59632e-12
4.27646e-12
7.29718e-12
1.26399e-11
2.12146e-11
3.42103e-11
5.36633e-11
9.05929e-11
1.7772e-10
6.47544e-10
1.26149e-09
1.90796e-09
2.04581e-09
1.63107e-09
1.53221e-09
1.69264e-09
4.21738e-09
1.12041e-08
1.31426e-12
2.27084e-12
4.10121e-12
7.50672e-12
1.37361e-11
2.41373e-11
3.92519e-11
6.07964e-11
9.6121e-11
1.95874e-10
8.11062e-10
1.68998e-09
2.23427e-09
2.06404e-09
1.4581e-09
1.45865e-09
1.45812e-09
4.59407e-09
9.16249e-09
9.89406e-13
1.88115e-12
3.64358e-12
7.22828e-12
1.39889e-11
2.5967e-11
4.37428e-11
6.81808e-11
1.06364e-10
2.24916e-10
1.00162e-09
2.37247e-09
3.61832e-09
5.16219e-09
3.18798e-09
1.45327e-09
1.03797e-08
4.10812e-08
9.0929e-09
6.49374e-13
1.36407e-12
2.92932e-12
6.31448e-12
1.30377e-11
2.59971e-11
4.62324e-11
7.56473e-11
1.13436e-10
2.07029e-10
6.91844e-10
2.66814e-09
5.13505e-09
9.89556e-09
2.46889e-08
3.17805e-08
5.90475e-08
5.40398e-08
7.27342e-09
3.76279e-13
8.63022e-13
2.05652e-12
4.84028e-12
1.09939e-11
2.34262e-11
4.51066e-11
7.71875e-11
1.1777e-10
1.91634e-10
6.26656e-10
3.79532e-09
7.1283e-09
8.25913e-09
2.56051e-08
5.92254e-08
6.37226e-08
4.06314e-08
5.29731e-09
1.62843e-13
4.3344e-13
1.18331e-12
3.1222e-12
7.90342e-12
1.84955e-11
3.90295e-11
7.25469e-11
1.18456e-10
2.03175e-10
9.0093e-10
5.99879e-09
1.45117e-08
1.5493e-08
1.54635e-08
3.94563e-08
6.37232e-08
1.89991e-08
4.74727e-09
5.65222e-14
1.65215e-13
5.09029e-13
1.57006e-12
4.55478e-12
1.21035e-11
2.87922e-11
6.06885e-11
1.10429e-10
1.81491e-10
4.51512e-10
4.59632e-09
2.09519e-08
3.88505e-08
4.1609e-08
2.03859e-08
2.9022e-08
5.47689e-09
4.73634e-09
1.1156e-14
3.89754e-14
1.43439e-13
5.35324e-13
1.88724e-12
5.97908e-12
1.67429e-11
4.1077e-11
8.87545e-11
1.56733e-10
2.39934e-10
7.27894e-10
1.37936e-08
3.98404e-08
6.94527e-08
5.32459e-08
7.30308e-09
4.50531e-09
2.134e-08
1.31043e-15
4.29917e-15
1.85651e-14
8.84187e-14
4.16194e-13
1.86678e-12
6.67048e-12
2.02705e-11
5.18464e-11
1.14084e-10
2.06343e-10
3.16045e-10
7.5469e-10
2.19473e-08
6.07551e-08
8.53348e-08
2.7646e-08
4.53244e-09
8.99369e-08
7.6692e-17
2.22586e-16
1.05657e-15
6.7548e-15
4.67695e-14
2.82916e-13
1.45766e-12
6.09617e-12
2.05732e-11
5.77339e-11
1.34351e-10
2.50455e-10
3.69976e-10
2.34327e-10
2.02152e-08
7.81328e-08
6.67814e-08
7.05126e-09
1.07666e-07
3.2878e-18
5.5936e-18
1.95615e-17
1.41796e-16
1.46439e-15
1.45651e-14
1.27465e-13
8.20218e-13
3.93888e-12
1.47015e-11
4.38631e-11
1.03088e-10
2.00311e-10
2.13658e-10
6.54608e-12
1.6024e-08
9.57474e-08
6.14391e-08
1.09949e-07
)
;

boundaryField
{
    leftWall
    {
        type            zeroGradient;
    }
    rightWall
    {
        type            zeroGradient;
    }
    lowerWall
    {
        type            zeroGradient;
    }
    atmosphere
    {
        type            inletOutlet;
        inletValue      uniform 0;
        value           nonuniform List<scalar> 
46
(
6.97861e-10
4.6413e-10
6.86204e-10
4.1116e-10
6.15348e-11
1.68953e-11
0
0
0
0
0
0
0
7.55031e-17
2.81715e-17
7.17828e-18
1.65703e-18
1.50811e-18
4.28507e-18
9.03006e-18
5.31554e-18
1.99473e-18
0
0
0
0
0
0
0
0
0
0
0
0
0
0
0
0
0
0
0
0
1.6024e-08
9.57474e-08
6.14391e-08
1.09949e-07
)
;
    }
    defaultFaces
    {
        type            empty;
    }
}


// ************************************************************************* //
