/*--------------------------------*- C++ -*----------------------------------*\
| =========                 |                                                 |
| \\      /  F ield         | OpenFOAM: The Open Source CFD Toolbox           |
|  \\    /   O peration     | Version:  2312                                  |
|   \\  /    A nd           | Website:  www.openfoam.com                      |
|    \\/     M anipulation  |                                                 |
\*---------------------------------------------------------------------------*/
FoamFile
{
    version     2.0;
    format      ascii;
    arch        "LSB;label=32;scalar=64";
    class       volScalarField;
    location    "5.7";
    object      alphas;
}
// * * * * * * * * * * * * * * * * * * * * * * * * * * * * * * * * * * * * * //

dimensions      [0 0 0 0 0 0 0];

internalField   nonuniform List<scalar> 
2268
(
2
2
2
2
2
2
2
2
2
2
2
2
2
2
2
2
2
2
2
2
1.99997
1.99996
1.99996
2
2
2
2
2
2
2
2
2
2
2
2
2
2
2
2
2
2
2
2
1.99999
1.99997
1.99998
2
2
2
2
2
2
2
2
2
2
2
2
2
2
2
2
2
2
2
2
2
2
2
2
2
2
2
2
2
2
2
2
2
2
2
2
2
2
2
2
2
2
2
2
2
2
1.99377
1.99378
1.99373
1.99425
1.99559
1.9976
1.99928
2.00013
2.00006
1.99994
1.99991
1.99991
1.99985
1.99989
1.99994
1.99999
2.00001
2
2
2
2
2
2
0.993972
0.994378
0.998599
1.01112
1.03491
1.07292
1.12065
1.17855
1.25944
1.34915
1.44613
1.55243
1.66244
1.76721
1.85515
1.92757
1.99513
1.9906
1.97951
1.98557
1.99187
1.99639
2.00252
0.00509883
0.00402338
0.00407876
0.00591082
0.00676021
0.00604315
0.0051421
0.00296582
0.00182026
0.0199227
0.0590154
0.113752
0.193241
0.307117
0.463105
0.672024
0.946573
1.29791
1.57446
1.74946
1.85559
1.91554
1.94964
0.00164316
0.00162781
0.00158713
0.00159922
0.00219093
0.0012008
0.000885313
0.000775535
0.000788656
0.000983156
0.00130752
0.000867595
0.000382625
0.000331581
0.000440106
0.00467859
0.0466079
0.141732
0.259853
0.406189
0.569113
0.69545
0.743321
1.95612
1.959
1.97206
1.97463
1.97188
1.96797
1.96254
1.96234
1.96179
1.96128
1.96039
1.96046
1.96655
1.96763
1.96772
1.96798
1.97077
1.97178
1.97149
1.91461
1.94836
1.96782
1.9694
1.97097
1.97146
1.97078
1.96745
1.9614
1.95227
1.94865
1.95006
1.95284
1.95797
1.9589
1.95766
1.94033
1.91876
1.90136
1.41472
1.51936
1.6632
1.75064
1.76913
1.77253
1.76082
1.71331
1.64869
1.59818
1.57667
1.57986
1.5757
1.57148
1.56505
1.57094
1.53215
1.48583
1.49415
0.353938
0.333828
0.585602
0.758551
0.797293
0.74361
0.605702
0.440108
0.341087
0.29496
0.264555
0.331482
0.508565
0.513876
0.580135
0.781068
0.712782
0.49283
0.650756
0.13089
0.0246325
0.0489111
0.0755643
0.111168
0.151212
0.140464
0.132142
0.045952
0.0264712
0.0266564
0.0270897
0.15917
0.263776
0.299859
0.472827
0.280201
0.100959
0.262722
0.0191506
0.0228891
0.0228847
0.0233374
0.0245759
0.0423263
0.0769862
0.0570642
0.0242745
0.0228391
0.0241167
0.0229512
0.0268412
0.0861245
0.312879
0.540548
0.301139
0.0984952
0.230261
0.0224854
0.0232946
0.0252621
0.0276546
0.0227423
0.021223
0.0238889
0.0300919
0.0213969
0.0300635
0.135334
0.0383687
0.0208027
0.05837
0.267333
0.513425
0.131665
0.0985046
0.298419
0.024585
0.01799
0.0169648
0.0293218
0.023265
0.0188518
0.0208992
0.0196973
0.0197838
0.090809
0.284037
0.164913
0.105305
0.145669
0.139564
0.340938
0.100387
0.0990525
0.310321
0.0067525
0.00166671
0.00160316
0.00207783
0.00603785
0.0185483
0.0148992
0.00436779
0.00581642
0.0144329
0.0144087
0.00467073
0.000930381
0.000625372
0.000362681
0.000352125
0.00109502
0.00176746
0.00312521
0.0040288
0.00836539
0.0110643
0.0066552
0.082325
0.0669186
0.0913735
0.146233
0.209523
0.23879
0.241975
0.227879
0.243469
0.27203
0.274292
0.214828
0.115468
0.043031
0.0358086
0.0564144
0.056978
0.0464371
0.0465439
0.0258242
0.0253531
0.0623846
0.0804677
0.650259
0.716623
0.768566
0.826333
0.885583
0.919023
0.909274
0.961415
0.947369
0.91032
0.90037
0.898412
0.811973
0.777994
0.764054
0.652956
0.583571
0.51101
0.443149
0.422763
0.453125
0.532188
0.567297
1.03496
1.01459
1.02358
1.05488
1.0384
1.00204
1.00206
1.04133
1.16184
1.16065
1.08508
1.00169
1.00836
1.03051
1.0657
1.0654
1.02187
1.00381
0.997676
0.995359
0.99717
1.01689
1.07428
1.00056
1.00058
1.00062
1.00705
1.00419
1.0006
1.03597
1.14911
1.16132
1.08508
1.00031
1.00022
1.00023
1.00018
1.00047
1.00052
1.00014
1.00007
0.999869
0.999877
1.00039
1.00043
1.00472
1.00047
1.00047
1.00045
1.00034
1.0003
1.00061
1.01097
1.04798
1.02829
1.00028
1.00009
1.00003
1.00002
0.999958
0.99981
0.999815
0.999859
0.99985
0.999827
0.998934
0.994356
0.995221
1.00099
1.00041
1.00034
1.00019
1.0001
0.999974
0.997504
0.99921
1.00511
1.03648
1.08644
1.14702
1.1996
1.22317
1.1991
1.14788
1.09183
1.03641
0.994254
0.995222
0.998653
0.995521
0.982838
0.981748
1.15422
1.16105
1.20956
1.31662
1.43677
1.55944
1.72025
1.96047
2.22925
2.42896
2.57086
2.6512
2.68395
2.6806
2.65691
2.60063
2.51105
2.36685
2.14539
1.94644
1.77605
1.61689
1.49056
2.62951
2.64323
2.65777
2.67551
2.71949
2.80207
2.9032
2.97632
2.99773
2.99831
2.99925
2.99953
2.99967
2.9988
2.99875
2.9987
2.99908
2.9982
2.99422
2.96155
2.9142
2.87287
2.82299
2.99952
2.99977
2.99935
2.99856
2.99869
2.99696
2.99683
2.99888
3
3
3
3
2.99994
2.99981
2.99983
2.99996
2.99996
2.99998
2.99999
2.99993
2.99998
2.99998
2.99998
3
3
3
3
3
3
3
2.99999
3
3
3
3
2.99997
2.99994
2.99994
2.99994
2.99993
2.99994
2.99999
2.99999
2.99997
2.99996
2.99996
3
3
3
3
3
3
3
3
3
3
3
2.99999
2.99997
2.99995
2.99996
2.99994
2.99992
2.99994
2.99999
2.99991
2.99986
2.99986
2.99988
3
3
3
3
3
3
3
3
3
3
2.99999
3
2.99999
2.99999
3
2.99997
2.99996
2.99998
2.99993
2.99987
2.99987
2.99992
2.99998
3
3
3
3
3
3
3
3
3
3
3
3
3
3
3
2.99999
2.99999
2.99999
2.99989
2.99988
2.99996
3
3
3
3
3
3
3
3
3
3
3
3
3
3
3
3
3
3
3
2.99999
2.99996
3
3
3
3
3
3
3
3
3
3
3
3
3
3
3
3
3
3
3
3
3
3
3
3
2.99999
2.99999
3
3
3
3
3
3
3
3
3
3
3
3
3
3
3
3
3
3
3
3
3
2.99996
2.99993
3
3
3
3
3
3
3
3
3
3
3
3
3
3
3
3
3
3
3
3
3
2.99996
2.99992
2.99994
3
3
3
3
3
3
3
3
3
3
3
3
3
3
3
3
3
3
3
3
3
2.99995
2.99983
3
3
3
3
3
3
3
3
3
3
3
3
3
3
3
3
3
3
3
3
3
3
2.99999
3
3
3
3
3
3
3
3
3
3
3
3
3
3
3
3
3
3
3
3
3
3
3
3
3
3
3
3
3
3
3
3
3
3
3
3
3
3
3
3
3
3
3
3
3
3
3
3
3
3
3
3
3
3
3
3
3
3
3
3
3
3
3
3
3
3
3
3
3
3
3
3
3
3
3
3
3
3
3
3
3
3
3
3
3
3
3
3
3
3
3
3
3
3
3
3
3
3
3
3
3
3
3
3
3
3
3
3
3
3
3
3
3
3
3
3
3
3
3
3
3
3
3
3
3
3
3
3
3
3
3
3
3
3
3
3
3
3
3
3
3
3
3
3
3
3
3
3
3
3
3
3
3
3
3
3
3
3
3
3
3
3
3
3
3
3
3
3
3
3
3
3
3
3
3
3
3
3
3
3
3
3
3
3
3
3
3
3
3
3
3
3
3
3
3
3
3
3
3
3
3
3
3
3
3
3
3
3
3
3
3
3
3
3
3
3
3
3
3
3
3
3
3
3
3
3
3
3
3
3
3
3
3
3
3
3
3
3
3
3
3
3
3
3
3
3
3
3
3
3
3
3
3
3
3
3
3
3
3
3
3
3
3
3
3
3
3
3
3
3
3
3
3
3
3
3
3
3
3
3
3
3
3
3
3
3
3
3
3
3
3
3
3
3
3
3
3
3
3
3
3
3
3
3
3
3
3
3
3
3
3
3
3
3
3
3
3
3
3
3
3
3
3
3
3
3
3
3
3
3
3
3
3
3
3
3
3
3
3
3
3
3
3
3
3
3
3
3
3
3
3
3
3
3
3
3
3
3
3
3
3
3
3
3
3
3
3
3
3
3
3
3
3
3
3
3
3
3
3
3
3
3
3
3
3
3
3
3
3
3
3
3
3
3
3
3
3
3
3
3
3
3
3
3
3
3
3
3
3
3
3
3
3
3
3
3
3
3
3
3
3
3
3
3
3
3
3
3
3
3
3
3
3
3
3
3
3
3
3
3
3
3
3
3
3
3
3
3
3
3
3
3
3
3
3
3
3
3
3
3
3
3
3
3
3
3
3
3
3
3
3
3
3
3
3
3
3
3
3
3
3
3
3
3
3
3
3
3
3
3
3
3
3
3
3
3
3
3
3
3
3
3
3
3
3
3
0.00183301
0.00985705
0.0377138
0.0408451
0.00717601
0.00538386
0.00913302
0.0249014
0.37961
0.173469
0.102796
0.0500891
1.07041
0.947528
0.786856
0.69096
1.08058
1.09956
1.09788
1.03091
1.00805
1.02249
1.01861
1.00159
0.990006
1.00172
1.00064
1.00079
1.4084
1.36054
1.23662
1.13941
2.79937
2.76715
2.7197
2.65784
2.99998
2.99987
2.99978
2.9996
2.99996
2.99996
2.99995
2.99992
2.99987
2.99987
2.99987
2.99986
2.99999
2.99999
2.99999
2.99998
3
3
2.99999
2.99999
2.99999
2.99999
3
3
2.99999
2.99999
2.99999
2.99999
3
2.99996
2.9999
2.99988
2.99994
2.99985
2.99983
2.99983
2.99982
2.99983
2.99983
2.99983
2.99984
2.99983
2.99986
2.99985
3
3
3
3
3
3
3
3
3
3
3
3
3
3
3
3
3
3
3
3
3
3
3
3
3
3
3
3
3
3
3
3
3
3
3
3
3
3
3
3
3
3
3
3
3
3
3
3
3
3
3
3
3
3
3
3
3
3
3
3
3
3
3
3
3
3
3
3
3
3
3
3
3
3
3
3
3
3
3
3
3
3
3
3
3
3
3
3
0.0329954
0.0117453
0.0155243
0.0524539
0.0685047
0.0163844
0.0135849
0.0142108
0.0373443
0.33297
0.517665
0.20566
0.111136
0.0962038
0.0979267
0.106158
0.100331
0.101012
0.253306
0.0361659
0.011971
0.0581842
0.212156
0.159606
0.0141089
0.0136437
0.0871099
0.522712
0.952253
0.472259
0.0647909
0.100416
0.123492
0.123567
0.0991922
0.105584
0.137663
0.138781
0.0619939
0.14593
0.378514
0.489652
0.373746
0.123037
0.294715
0.886734
1.15531
1.16129
0.613186
0.271011
0.182935
0.221199
0.20862
0.243928
0.283365
0.203796
0.162532
0.701547
0.95802
1.02145
1.02691
1.01545
0.996593
1.06506
1.02286
1.15482
1.19387
1.11683
1.01188
0.905914
0.860135
0.912714
0.958016
0.944609
0.817867
0.664229
1.02315
1.10092
1.13411
1.16634
1.26364
1.27736
1.04966
1.00279
1.00228
1.00426
1.00484
1.01398
1.00741
1.00199
1.00302
1.0058
1.00298
1.00206
1.00207
1.00103
1.0039
0.99052
0.982307
1.0123
1.03036
1.00647
1.00316
1.00213
1.00205
1.00248
1.00249
1.00184
1.00099
1.00108
1.001
1.00059
1.00116
1.00923
1.00077
1.0006
0.998273
0.980777
0.969468
1.00142
1.00157
1.00151
1.0012
1.00139
1.00158
1.00165
1.00153
1.00043
1.04945
1.20135
1.4129
1.71865
2.0454
1.05964
0.99727
0.998886
0.989947
0.966205
0.970819
0.998405
0.999059
0.99957
1.00063
1.00126
1.01657
1.17414
1.65328
2.34118
2.70043
2.88939
2.99137
2.99277
2.53888
2.32339
2.01307
1.76234
1.56143
1.33152
1.13584
1.07369
1.09198
1.2799
1.5869
2.06494
2.66397
2.99229
2.99497
2.99806
3
3
2.99999
2.99618
2.99174
2.98501
2.94051
2.8486
2.73614
2.56332
2.42156
2.41823
2.6396
2.86526
2.99738
2.99939
2.9999
2.99998
2.99996
2.99995
2.99999
2.99997
2.99992
2.99993
2.99994
2.99861
2.99962
2.99987
2.99721
2.98566
2.9727
2.97063
2.98263
2.99658
2.99943
2.9999
2.99993
2.99986
2.99967
2.99989
2.99987
2.99989
2.99992
2.99995
2.99997
2.99999
2.99999
3
3
3
3
3
2.99811
2.99868
2.99966
2.99992
2.99966
2.99961
2.99972
2.99981
2.99998
2.99998
2.99997
2.99997
2.99999
3
3
3
3
3
3
2.99999
3
3
2.99995
2.9996
2.9996
2.99983
2.9999
2.99999
2.99999
2.99999
2.99999
3
3
3
2.99998
2.99998
2.99999
3
2.99998
2.99997
2.99997
2.99973
2.9996
2.99974
2.99995
2.9999
3
3
2.99999
2.99999
2.99999
2.99998
2.99997
2.99992
2.99993
2.99997
2.99996
2.99994
2.99994
2.99992
2.99988
2.99993
2.99998
2.99995
2.99989
2.99999
2.99999
2.99999
2.99998
2.99993
2.99988
2.99987
2.99987
2.99991
2.99999
2.99999
2.99994
2.99979
2.99985
2.99999
2.99999
2.99997
2.99995
2.99991
2.9999
2.9999
2.99995
2.99991
2.99987
2.99987
2.99987
2.99993
2.99999
2.99999
2.99999
2.9998
2.99977
2.99978
2.99996
2.99995
2.99993
2.99995
2.99999
2.99983
2.99985
2.99986
2.99987
2.99989
2.9999
2.9999
2.9999
2.99993
2.99998
2.99998
2.99987
2.99977
2.99979
2.99985
2.99988
2.99993
2.99999
2.99999
2.99983
2.99986
2.99987
2.99987
2.99986
2.99986
2.99988
2.9999
2.99989
2.99989
2.9999
2.99994
2.99995
2.99993
2.99994
2.99997
2.99996
2.99998
2.99999
2.99988
2.99997
2.99991
2.99987
2.99988
2.99996
2.99997
2.99994
2.99989
2.99989
2.99989
2.99989
2.99997
2.99998
2.99998
2.99997
2.99994
2.99996
2.99999
2.99999
3
2.99999
2.99996
2.99996
2.99997
2.99997
2.99998
2.99999
2.99998
2.99994
2.99994
2.99993
2.99997
2.99996
2.99994
2.99994
2.99996
3
3
3
3
3
3
3
2.99999
2.99999
2.99999
3
3
3
3
2.99995
2.99994
2.99994
2.99994
2.99999
3
3
3
3
3
3
3
3
3
3
3
3
3
3
3
2.99998
2.99994
2.99998
3
3
3
3
3
3
3
3
3
3
3
3
3
3
3
3
3
3
3
3
2.99999
3
3
3
3
3
3
3
3
3
3
3
3
3
3
3
3
3
3
2.99999
3
3
3
3
3
3
3
3
3
3
3
3
3
3
3
3
3
3
2.99999
3
3
3
3
3
3
3
3
3
3
3
3
3
3
3
3
3
3
2.99999
3
3
3
3
3
3
3
3
3
3
3
3
3
3
3
3
3
3
3
3
3
3
3
3
3
3
3
3
3
3
3
3
3
3
3
3
3
3
3
3
3
3
3
3
3
3
3
3
3
3
3
3
3
3
3
3
3
3
3
3
3
3
3
3
3
3
3
3
3
3
3
3
3
3
3
3
3
3
3
3
3
3
3
3
3
3
3
3
3
3
3
3
3
3
3
3
3
3
3
3
3
3
3
3
3
3
3
3
3
3
3
3
3
3
3
3
3
3
3
3
3
3
3
3
3
3
3
3
3
3
3
3
3
3
3
3
3
3
3
3
3
3
3
3
3
3
3
3
3
3
3
3
3
3
3
3
3
3
3
3
3
3
3
2.99999
3
3
3
3
3
3
3
3
3
3
3
3
3
3
3
3
3
3
2.99999
2.99999
3
3
3
3
3
3
3
3
3
3
3
3
3
3
3
3
3
2.99999
2.99999
2.99999
3
3
3
3
3
3
3
3
3
3
3
3
3
3
3
3
3
2.99999
2.99999
2.99999
3
3
3
2.99999
3
3
3
3
3
3
3
3
3
3
3
3
3
2.99999
2.99999
2.99999
3
3
2.99999
3
3
3
3
3
3
3
3
3
3
3
3
3
3
2.99999
2.99999
3
3
2.99999
3
3
3
3
3
3
3
3
3
3
3
3
3
3
3
3
2.99999
3
3
)
;

boundaryField
{
    leftWall
    {
        type            calculated;
        value           nonuniform List<scalar> 
50
(
2
2
2
2
1.99377
0.993972
0.00509883
0.00164316
0.0067525
0.082325
0.650259
1.03496
1.00056
1.00047
1.00041
1.15422
2.62951
2.99952
3
3
3
3
3
3
3
3
3
3
3
3
3
3
3
3
3
3
3
3
3
3
3
3
3
3
3
3
3
3
3
3
)
;
    }
    rightWall
    {
        type            calculated;
        value           nonuniform List<scalar> 
50
(
1.97149
1.90136
1.49415
0.650756
0.262722
0.230261
0.298419
0.310321
0.253306
0.138781
0.162532
0.664229
1.00207
1.00923
2.0454
2.99277
2.99999
2.99997
2.99987
2.99981
2.9999
2.9999
2.99989
2.99991
2.99999
2.99999
2.99999
2.99999
3
3
3
2.99999
2.99999
2.99999
2.99999
3
3
3
3
3
3
3
3
3
3
3
2.99999
2.99999
2.99999
3
)
;
    }
    lowerWall
    {
        type            calculated;
        value           nonuniform List<scalar> 
62
(
2
2
2
2
2
2
2
2
2
2
2
2
2
2
2
2
2
2
2
2
1.99997
1.99996
1.99996
1.99996
1.99998
2
2
2
2.00252
1.94964
0.743321
0.00183301
0.00985705
0.0377138
0.0408451
1.95612
1.91461
1.41472
0.353938
0.13089
0.0191506
0.0224854
0.024585
1.95612
1.959
1.97206
1.97463
1.97188
1.96797
1.96254
1.96234
1.96179
1.96128
1.96039
1.96046
1.96655
1.96763
1.96772
1.96798
1.97077
1.97178
1.97149
)
;
    }
    atmosphere
    {
        type            calculated;
        value           nonuniform List<scalar> 
46
(
3
3
3
3
3
3
3
3
3
3
3
3
3
3
3
3
3
3
3
3
3
3
3
3
3
3
3
3
3
3
3
3
3
3
3
3
3
3
3
3
3
3
3
2.99999
3
3
)
;
    }
    defaultFaces
    {
        type            empty;
    }
}


// ************************************************************************* //
