/*--------------------------------*- C++ -*----------------------------------*\
| =========                 |                                                 |
| \\      /  F ield         | OpenFOAM: The Open Source CFD Toolbox           |
|  \\    /   O peration     | Version:  2312                                  |
|   \\  /    A nd           | Website:  www.openfoam.com                      |
|    \\/     M anipulation  |                                                 |
\*---------------------------------------------------------------------------*/
FoamFile
{
    version     2.0;
    format      ascii;
    arch        "LSB;label=32;scalar=64";
    class       volScalarField;
    location    "5.7";
    object      alpha.water_0;
}
// * * * * * * * * * * * * * * * * * * * * * * * * * * * * * * * * * * * * * //

dimensions      [0 0 0 0 0 0 0];

internalField   nonuniform List<scalar> 
2268
(
3.01098e-07
3.01573e-07
2.74461e-07
1.54687e-07
2.34479e-08
2.46634e-09
7.00224e-10
5.3074e-10
4.0393e-10
2.86265e-10
2.09829e-10
1.68396e-10
1.38995e-10
1.19268e-10
1.08462e-10
1.07376e-10
1.21021e-10
1.55524e-10
2.17374e-10
3.40816e-10
7.59951e-10
1.29959e-09
1.36953e-09
1.9506e-07
1.70662e-07
8.20936e-08
2.05415e-08
1.63752e-09
1.40954e-09
1.36936e-09
1.12345e-09
7.69811e-10
5.24681e-10
4.11804e-10
3.80459e-10
3.77908e-10
3.64202e-10
3.29921e-10
2.59847e-10
2.43389e-10
2.74528e-10
3.88782e-10
5.2642e-10
9.13475e-10
1.30768e-09
1.32383e-09
2.1989e-08
3.59648e-09
1.96032e-09
1.83441e-09
3.6071e-09
3.8399e-09
4.88723e-09
3.69043e-09
2.05098e-09
1.03589e-09
8.0443e-10
7.89478e-10
9.06893e-10
9.53765e-10
9.53671e-10
8.81317e-10
6.79909e-10
5.3357e-10
5.23048e-10
6.32298e-10
9.30594e-10
1.11203e-09
1.07762e-09
3.00697e-07
2.6636e-07
2.09652e-07
1.50912e-07
1.11111e-07
6.54457e-08
9.54928e-09
3.02005e-09
1.15363e-09
4.61436e-10
3.45266e-10
4.12313e-10
5.12405e-10
5.67578e-10
5.75169e-10
5.5111e-10
4.5512e-10
4.43236e-10
4.6926e-10
5.67138e-10
7.28575e-10
7.52082e-10
7.56144e-10
0.00168454
0.0016635
0.00158769
0.00135892
0.000917886
0.000382576
4.4881e-05
-1.70074e-12
2.64205e-19
-3.64616e-14
-3.16337e-14
1.85104e-19
-6.94313e-20
-2.30378e-20
1.29374e-20
1.37049e-21
1.37126e-21
5.34631e-11
1.07219e-10
1.59458e-10
2.19471e-10
2.15955e-10
1.83685e-10
0.481816
0.481642
0.480115
0.474568
0.462343
0.441759
0.416212
0.385242
0.344921
0.303955
0.257296
0.207248
0.156224
0.108418
0.0686212
0.0345897
3.46987e-05
1.20527e-17
-1.05198e-11
9.60018e-22
4.6055e-21
1.1892e-20
1.00987e-20
0.997014
0.99734
0.997155
0.996124
0.995785
0.996107
0.996888
0.998675
0.996801
0.982274
0.961684
0.933367
0.892992
0.836238
0.759905
0.658128
0.519421
0.322338
0.190805
0.109039
0.0590342
0.0303363
0.0204508
0.999453
0.999455
0.999456
0.999455
0.999275
0.999605
0.999707
0.999708
0.999692
0.999636
0.99951
0.999645
0.999781
0.999781
0.999576
0.995368
0.962236
0.901107
0.845351
0.787227
0.720495
0.672079
0.657242
0.00803399
0.00676752
0.00273229
0.00238989
0.0039786
0.00499761
0.00650932
0.00663422
0.00689942
0.00704638
0.00740905
0.00738918
0.0043781
0.00359729
0.00363872
0.00357046
0.00263543
0.00222288
0.00235879
-1.33572e-20
-8.35067e-06
-1.13708e-06
8.10064e-06
6.32522e-05
5.68267e-05
6.07842e-05
5.68268e-05
6.07862e-05
5.68289e-05
7.23726e-05
0.000399643
0.000397594
0.000358407
0.000226766
0.000211261
7.17103e-05
7.15931e-05
7.24331e-05
0.225007
0.167284
0.0885036
0.0354489
0.0210902
0.0215757
0.0307923
0.057258
0.0915915
0.100592
0.0870025
0.074525
0.0701317
0.0538968
0.0310766
0.016374
0.034723
0.0511698
0.037291
0.740861
0.81495
0.664919
0.550482
0.510014
0.525205
0.601315
0.715706
0.793001
0.819512
0.824654
0.771556
0.652883
0.614667
0.535998
0.392194
0.435186
0.618787
0.477288
0.914494
0.989591
0.97685
0.953364
0.929923
0.906654
0.940049
0.953425
0.980303
0.989603
0.989614
0.98948
0.939485
0.90062
0.887937
0.659742
0.814015
0.95105
0.811178
0.989589
0.989572
0.989375
0.98894
0.989157
0.985117
0.972498
0.977047
0.989752
0.989611
0.989575
0.989576
0.98539
0.95304
0.877354
0.659537
0.818343
0.951792
0.80899
0.989582
0.989381
0.989197
0.987541
0.989242
0.991026
0.99055
0.987403
0.989866
0.988315
0.953506
0.984383
0.988984
0.948094
0.817901
0.694274
0.927158
0.951704
0.788027
0.988751
0.990309
0.99326
0.987576
0.988995
0.991039
0.991155
0.991154
0.990921
0.969501
0.890595
0.884058
0.905847
0.876297
0.91579
0.866421
0.952278
0.952245
0.785699
0.997781
0.99943
0.999449
0.999228
0.997883
0.993897
0.99514
0.998619
0.998185
0.99532
0.995212
0.998338
0.99964
0.999781
0.999781
0.999716
0.999069
0.998497
0.997333
0.996873
0.9945
0.992187
0.995657
0.972651
0.964158
0.929942
0.87084
0.805506
0.796626
0.83165
0.867898
0.871907
0.864838
0.863635
0.888049
0.938406
0.98422
0.987823
0.980658
0.97974
0.983802
0.983187
0.990614
0.991202
0.978853
0.968546
0.428133
0.362245
0.31093
0.24092
0.128464
0.0915872
0.112271
0.163956
0.212454
0.243523
0.248127
0.249838
0.269096
0.275793
0.323668
0.433735
0.510133
0.545387
0.569455
0.58608
0.579712
0.541818
0.489917
-2.64958e-07
-1.03477e-08
-1.6964e-10
-1.36678e-27
-2.33483e-25
-3.30878e-25
-4.3224e-10
-7.33294e-09
2.57553e-19
6.8171e-20
-1.40846e-19
-1.11868e-07
-3.7614e-08
-1.3748e-08
1.76223e-06
0.000551658
0.0043302
0.00782066
0.0100307
0.0115563
0.0114058
0.00831757
0.00455171
3.1755e-07
9.82953e-09
9.37101e-13
3.31815e-07
5.12363e-06
2.0011e-05
1.75021e-05
1.65829e-05
9.55912e-06
7.12971e-25
1.28113e-07
3.08085e-05
2.91683e-05
5.06162e-05
5.77218e-05
5.273e-05
5.39333e-05
8.12245e-05
0.00020222
0.000382655
7.8134e-05
1.15302e-07
4.86725e-18
2.1587e-05
3.19062e-05
4.78524e-05
9.66836e-05
0.000111741
1.12429e-05
7.00332e-06
3.04716e-06
-5.00252e-08
-4.43131e-13
7.87279e-05
0.000110775
0.000101932
0.000121916
0.000197895
0.000211829
0.000172055
0.000173444
0.000180361
0.000517425
0.00607403
0.00606434
0.000749504
7.98587e-05
6.33057e-05
0.000138963
0.000168041
0.000374209
0.00312257
0.00240349
0.000506078
0.0010155
0.00162658
0.00158995
0.000487835
6.46722e-05
6.42968e-05
6.46724e-05
0.000495764
0.00344208
0.00671438
0.00546249
0.00156008
0.00421158
0.0162749
0.0198458
0.000266867
0.000101408
0.000668923
0.00337565
0.0045715
0.00459232
0.00456432
0.00279943
0.00189156
0.00187444
0.00131546
0.000425263
6.4712e-05
6.47243e-05
0.00025342
0.00208833
0.00723375
0.00927469
0.00926472
0.00789005
0.00450995
0.0129027
0.0198458
0.000265942
0.00014908
0.0001521
0.00130116
0.00442901
0.00459082
0.00459234
0.00212887
0.000497672
0.000327217
9.86355e-05
6.90993e-05
8.37423e-05
0.0003948
0.00042037
0.000376692
0.000197102
0.000385338
0.000956942
0.00414998
0.0113949
0.012154
0.0113721
0.000142254
1.43136e-05
0.000202265
0.000568525
0.000570271
0.000984518
0.00065629
7.49935e-05
4.12958e-06
3.03811e-06
1.31757e-06
1.2397e-06
1.3375e-05
4.17029e-05
2.77253e-05
3.0825e-06
3.21347e-06
8.97972e-06
5.61055e-06
5.90219e-06
4.06232e-06
3.84038e-06
2.5441e-06
1.66045e-08
1.75284e-08
-8.25752e-10
2.9412e-09
3.14788e-09
1.69324e-06
5.69063e-06
4.55747e-06
5.70525e-07
4.69765e-07
7.37909e-07
9.1514e-07
6.81648e-07
1.20974e-06
1.0029e-06
2.54035e-06
5.28375e-06
2.69716e-06
1.26024e-06
1.58377e-06
3.34223e-06
3.71688e-06
9.84483e-06
1.95404e-08
2.40294e-08
2.03291e-08
1.6944e-08
3.57917e-08
1.4431e-07
5.71172e-07
2.02961e-07
3.08866e-07
8.80952e-07
1.13793e-06
1.15546e-06
4.05583e-07
1.27154e-08
1.24894e-08
7.89566e-06
1.07914e-05
8.36445e-06
1.87992e-06
2.28479e-05
3.47121e-05
3.37676e-05
3.23748e-05
9.91466e-08
9.21644e-08
3.75369e-08
8.34924e-09
1.2133e-08
2.88545e-08
7.24008e-08
1.41101e-07
3.78755e-07
4.10481e-07
5.1011e-07
3.26231e-07
6.60286e-08
1.25025e-08
9.5369e-07
1.01681e-05
1.08107e-05
3.30281e-06
1.65114e-05
3.42428e-05
3.49337e-05
2.38659e-05
5.6277e-06
1.40293e-07
1.28864e-07
4.3749e-08
8.31291e-09
8.33707e-09
1.46164e-08
5.04741e-08
1.03627e-07
1.53484e-07
1.02267e-07
1.02513e-07
4.74396e-08
1.85357e-08
3.68339e-08
2.54474e-07
1.53195e-06
1.68702e-06
3.47113e-07
2.64997e-05
3.18821e-05
1.28649e-05
7.90168e-07
8.06548e-07
1.27686e-07
8.8947e-08
2.64276e-08
8.28763e-09
8.31321e-09
1.55981e-08
3.58786e-08
3.9644e-08
3.38525e-08
1.5209e-08
1.31958e-08
7.70242e-09
7.83039e-09
1.25351e-08
3.06346e-08
2.19974e-07
7.40984e-08
2.1429e-07
4.71624e-06
1.70617e-07
3.90706e-07
1.00975e-06
1.21777e-06
5.04653e-08
3.11609e-08
1.32684e-08
8.26283e-09
8.85632e-09
1.05434e-08
1.27422e-08
9.90527e-09
6.02832e-09
3.07491e-09
2.98552e-09
2.7568e-09
3.37057e-09
3.909e-09
4.69128e-09
2.18768e-08
5.78209e-09
7.40942e-08
8.23863e-09
1.72042e-07
2.37011e-06
3.69281e-06
8.04408e-07
1.51718e-08
8.26355e-09
5.91743e-09
6.20916e-09
6.28427e-09
5.60418e-09
4.41063e-09
2.85229e-09
1.90064e-09
1.61385e-09
1.79522e-09
2.04966e-09
2.58691e-09
3.35509e-09
4.47673e-09
5.83312e-09
4.80436e-09
1.21099e-08
7.29096e-09
4.68151e-07
9.05072e-06
1.44017e-05
2.3005e-07
1.22264e-08
4.3884e-09
3.53941e-09
4.13264e-09
4.00622e-09
3.19827e-09
2.26692e-09
1.54156e-09
1.15617e-09
1.05963e-09
1.1834e-09
1.46895e-09
1.97262e-09
2.79531e-09
3.7727e-09
4.42999e-09
3.64854e-09
3.25541e-09
7.56013e-09
3.2707e-07
8.9261e-06
1.43972e-05
7.94105e-06
1.24897e-08
3.26659e-09
2.2971e-09
2.6272e-09
2.39351e-09
1.86721e-09
1.3468e-09
9.51057e-10
7.16353e-10
6.33796e-10
6.88404e-10
8.55324e-10
1.14754e-09
1.60135e-09
2.16386e-09
2.57604e-09
2.23169e-09
2.11655e-09
9.92834e-09
6.01217e-08
5.45763e-07
1.13773e-05
1.36745e-05
1.24791e-08
2.25072e-09
1.43074e-09
1.57425e-09
1.35168e-09
1.02737e-09
7.39277e-10
5.29565e-10
3.99648e-10
3.40261e-10
3.49513e-10
4.08839e-10
5.19274e-10
7.10588e-10
9.60831e-10
1.19169e-09
1.27815e-09
1.50286e-09
8.60308e-09
3.82078e-08
9.94819e-08
2.41494e-07
3.90123e-06
1.20027e-08
1.47696e-09
8.66861e-10
9.00425e-10
7.44655e-10
5.66769e-10
4.16291e-10
2.96963e-10
2.21622e-10
1.79646e-10
1.6888e-10
1.79787e-10
2.17893e-10
2.90146e-10
3.95727e-10
5.25585e-10
6.57704e-10
9.18102e-10
4.94404e-09
3.81849e-08
5.41199e-08
7.06989e-08
2.09528e-07
1.15676e-08
9.40267e-10
5.63492e-10
5.64468e-10
4.9812e-10
4.42685e-10
3.53818e-10
2.30731e-10
1.60267e-10
1.15806e-10
8.98485e-11
8.26617e-11
9.41554e-11
1.22069e-10
1.68679e-10
2.35116e-10
3.27703e-10
4.99369e-10
1.33108e-09
1.13859e-08
5.42934e-08
6.464e-08
4.645e-08
1.1043e-08
5.98012e-10
4.3567e-10
5.11932e-10
6.7763e-10
7.50291e-10
5.49535e-10
2.80307e-10
1.77172e-10
1.10417e-10
6.89382e-11
4.83711e-11
4.25539e-11
4.85286e-11
6.66609e-11
1.00328e-10
1.60641e-10
2.58339e-10
3.78946e-10
1.36921e-09
8.30959e-09
3.5329e-08
2.65119e-08
1.07127e-08
4.58137e-10
4.34939e-10
8.04761e-10
1.22081e-09
1.26414e-09
8.09799e-10
3.34227e-10
2.11961e-10
1.27829e-10
7.16866e-11
4.06156e-11
2.60233e-11
2.199e-11
2.6997e-11
4.27983e-11
7.68986e-11
1.38023e-10
2.30416e-10
3.51878e-10
8.81054e-10
1.70717e-09
5.32954e-09
1.03689e-08
4.28088e-10
5.57856e-10
1.29476e-09
1.80831e-09
2.01793e-09
1.09188e-09
3.69238e-10
2.49929e-10
1.5062e-10
8.11245e-11
4.31727e-11
2.28451e-11
1.39093e-11
1.21134e-11
1.72724e-11
3.15573e-11
6.16375e-11
1.17743e-10
2.08004e-10
3.44786e-10
6.58207e-10
2.11094e-09
1.0172e-08
4.45404e-10
9.04071e-10
1.70865e-09
2.79229e-09
4.22855e-09
1.24038e-09
3.90056e-10
2.88752e-10
1.71787e-10
8.96907e-11
4.72485e-11
2.49577e-11
1.2394e-11
7.342e-12
7.1673e-12
1.15281e-11
2.22446e-11
4.39563e-11
8.86634e-11
1.90778e-10
4.34447e-10
9.80709e-10
9.94986e-09
6.23229e-10
1.32688e-09
2.92381e-09
8.2483e-09
1.27419e-08
8.02986e-10
4.111e-10
3.40325e-10
1.86294e-10
9.26656e-11
4.9307e-11
2.66146e-11
1.35493e-11
6.36238e-12
3.82747e-12
4.29965e-12
7.52656e-12
1.46675e-11
2.84174e-11
5.94982e-11
1.38343e-10
3.02136e-10
9.88341e-09
9.69619e-10
3.25521e-09
1.33979e-08
4.27858e-08
2.61785e-08
4.45339e-10
4.35573e-10
3.76369e-10
1.8439e-10
8.86867e-11
4.78604e-11
2.70911e-11
1.44268e-11
6.92978e-12
3.02838e-12
1.9104e-12
2.52862e-12
4.35008e-12
8.62314e-12
1.78797e-11
3.60747e-11
7.24931e-11
9.92304e-09
3.64179e-09
2.34538e-08
1.08665e-07
2.22379e-07
1.65874e-08
4.36696e-10
4.94346e-10
3.66935e-10
1.63759e-10
7.73916e-11
4.30332e-11
2.56368e-11
1.43625e-11
7.27258e-12
3.22218e-12
1.24486e-12
9.26717e-13
1.41722e-12
2.55808e-12
4.47118e-12
8.94743e-12
1.67503e-11
1.05118e-08
1.48881e-08
1.23375e-07
5.89825e-07
3.8479e-07
1.12217e-09
4.51605e-10
5.57968e-10
3.32988e-10
1.33093e-10
6.11172e-11
3.50076e-11
2.22766e-11
1.3445e-11
7.18804e-12
3.33899e-12
1.23299e-12
4.45839e-13
4.78649e-13
7.85143e-13
1.40568e-12
2.39842e-12
3.99936e-12
1.16725e-08
4.33146e-08
2.49466e-07
6.67023e-07
3.35446e-07
4.73761e-10
5.82421e-10
5.98197e-10
2.84102e-10
9.98811e-11
4.38158e-11
2.60335e-11
1.77033e-11
1.14772e-11
6.65712e-12
3.24796e-12
1.35914e-12
3.31515e-13
1.79591e-13
2.50086e-13
4.09694e-13
6.87255e-13
1.06345e-12
1.50796e-08
7.6605e-08
3.19685e-07
6.66758e-07
7.34479e-08
4.72548e-10
8.51859e-10
5.6525e-10
2.08525e-10
7.06896e-11
2.97163e-11
1.77091e-11
1.25927e-11
8.83354e-12
5.61428e-12
3.00614e-12
1.38132e-12
3.62052e-13
8.73168e-14
8.16348e-14
1.29525e-13
2.0061e-13
2.8629e-13
1.506e-08
1.04536e-07
6.33282e-07
3.84354e-07
1.35771e-09
6.89351e-10
1.10704e-09
4.69108e-10
1.37238e-10
4.88901e-11
1.92003e-11
1.15424e-11
8.33717e-12
6.02309e-12
4.15879e-12
2.53394e-12
1.28353e-12
4.11935e-13
6.5161e-14
2.99142e-14
3.39584e-14
5.47995e-14
7.46189e-14
2.07368e-08
1.5207e-07
6.33474e-07
2.87939e-07
5.26818e-10
1.05062e-09
1.49578e-09
4.65751e-10
1.22629e-10
3.39462e-11
1.18004e-11
6.80047e-12
4.93261e-12
3.64759e-12
2.72786e-12
1.84841e-12
1.05278e-12
4.43512e-13
7.24862e-14
1.29546e-14
1.054e-14
1.56992e-14
1.90299e-14
2.20756e-08
2.14955e-07
6.32855e-07
2.69933e-07
5.11509e-10
1.72227e-09
1.99987e-09
5.25457e-10
1.22e-10
2.49817e-11
7.03697e-12
3.98155e-12
2.70924e-12
1.99599e-12
1.5268e-12
1.15536e-12
7.6032e-13
3.92217e-13
8.28397e-14
9.18614e-15
3.26654e-15
4.02885e-15
5.04945e-15
2.81185e-08
2.68876e-07
6.33086e-07
1.6319e-07
5.14612e-10
3.18472e-09
2.46632e-09
5.96999e-10
1.26303e-10
2.01616e-11
4.11261e-12
2.15848e-12
1.44477e-12
9.84078e-13
7.36799e-13
6.01606e-13
4.6329e-13
2.92191e-13
8.46396e-14
1.02636e-14
1.5094e-15
1.19763e-15
1.42575e-15
2.59796e-08
2.61051e-07
6.07683e-07
3.14216e-08
3.13976e-09
8.62837e-09
2.79339e-09
6.20965e-10
1.23279e-10
1.65461e-11
2.29339e-12
1.075e-12
7.14441e-13
4.44476e-13
3.04877e-13
2.5073e-13
2.20705e-13
1.73499e-13
7.30515e-14
1.18596e-14
1.13952e-15
3.47176e-16
3.90238e-16
2.45893e-08
1.8743e-07
2.73936e-07
1.26384e-08
5.69012e-09
1.11524e-08
2.88785e-09
5.59858e-10
1.01289e-10
1.24583e-11
1.20046e-12
5.07209e-13
3.28701e-13
1.88415e-13
1.11631e-13
8.38262e-14
7.94479e-14
7.58103e-14
4.70829e-14
1.15034e-14
1.19786e-15
1.2669e-16
9.61884e-17
2.20932e-08
1.47294e-07
3.05912e-07
6.63048e-09
1.352e-08
1.10095e-08
2.51495e-09
4.39878e-10
6.70207e-11
7.3725e-12
5.54496e-13
1.9764e-13
1.32402e-13
7.27848e-14
3.68015e-14
2.26424e-14
2.08524e-14
2.37665e-14
2.23797e-14
8.77406e-15
1.248e-15
7.6469e-17
2.3369e-17
2.18627e-08
1.32509e-07
2.26401e-07
3.31797e-09
1.43899e-08
6.57362e-09
1.35638e-09
2.6322e-10
2.91822e-11
2.82919e-12
1.7937e-13
5.87406e-14
4.19744e-14
2.35868e-14
1.08622e-14
5.12795e-15
3.87508e-15
4.97295e-15
6.69252e-15
5.01477e-15
9.51677e-16
7.34605e-17
7.10997e-18
2.18647e-08
6.8318e-08
6.22019e-08
4.19035e-09
1.28308e-08
2.5469e-09
5.49731e-10
1.04189e-10
9.21241e-12
6.46457e-13
3.20086e-14
1.15063e-14
9.25325e-15
5.58358e-15
2.53498e-15
9.67327e-16
5.2132e-16
7.36707e-16
1.3959e-15
1.88719e-15
6.12141e-16
6.75292e-17
4.8573e-18
3.09573e-08
1.30401e-08
1.22019e-08
1.49875e-08
2.18492e-09
3.40693e-10
8.89038e-11
1.50515e-11
9.29525e-13
3.51536e-14
1.38924e-15
1.08388e-15
1.01986e-15
6.90842e-16
3.28238e-16
1.14885e-16
4.47482e-17
6.64478e-17
2.08369e-16
4.6904e-16
3.37267e-16
5.26422e-17
3.63285e-18
0.999454
0.995986
0.965582
0.963274
0.993749
0.997761
0.994684
0.979536
0.586295
0.869796
0.934354
0.953538
0.0110706
0.0977246
0.24645
0.336498
1.1272e-20
-9.43938e-20
4.69061e-20
-2.92022e-19
-4.21926e-12
-4.99427e-11
-6.61882e-11
-1.04697e-20
0.0157915
4.05295e-05
2.56667e-08
9.90069e-06
0.0198458
0.0198457
0.0167185
0.0116802
0.00928894
0.0133414
0.0162769
0.0153822
2.54411e-06
3.10999e-05
2.09081e-05
5.85985e-05
1.05377e-05
1.04442e-05
9.67935e-06
2.61888e-05
4.03752e-05
4.03747e-05
4.04058e-05
4.03828e-05
1.25674e-06
1.98691e-06
2.16028e-06
4.32294e-06
1.22754e-06
1.37621e-06
1.80677e-06
2.26928e-06
1.90191e-06
1.7581e-06
7.85629e-07
6.08103e-07
2.29275e-07
2.29082e-07
3.9665e-07
1.03994e-06
2.29081e-07
2.29081e-07
5.7739e-07
6.70258e-06
2.29081e-07
4.76168e-07
6.31237e-06
8.71896e-06
1.16778e-05
9.61541e-06
7.78467e-06
7.11492e-06
1.90625e-05
1.90593e-05
1.83085e-05
7.41044e-06
1.09282e-07
9.04123e-08
4.8339e-08
1.13096e-06
5.5413e-08
6.95724e-08
4.84542e-08
9.12208e-09
8.93745e-09
1.71147e-08
9.63243e-08
9.79298e-08
4.27444e-09
4.63951e-09
8.86625e-09
7.63315e-08
2.99539e-09
2.45423e-09
7.22892e-09
2.91825e-08
1.70669e-09
2.44685e-09
3.50212e-09
3.0741e-09
4.79339e-10
5.98356e-10
6.48462e-10
6.68826e-10
1.173e-10
1.32618e-10
1.56635e-10
1.62735e-10
2.4669e-11
2.94216e-11
3.20793e-11
3.54415e-11
5.83779e-12
6.55042e-12
7.65477e-12
8.19928e-12
1.49386e-12
1.67186e-12
1.83205e-12
2.08859e-12
3.48347e-13
3.75916e-13
4.36358e-13
4.52601e-13
8.38326e-14
8.90054e-14
9.03831e-14
9.89697e-14
2.13868e-14
1.97732e-14
2.10663e-14
2.08196e-14
5.08494e-15
4.96586e-15
4.73479e-15
4.95782e-15
1.37102e-15
1.23057e-15
1.28879e-15
1.27591e-15
3.6886e-16
3.44568e-16
3.30345e-16
3.66472e-16
9.51078e-17
8.0036e-17
8.39187e-17
8.86246e-17
1.97867e-17
1.86119e-17
1.76784e-17
1.89725e-17
4.18541e-18
3.47747e-18
3.35149e-18
3.30837e-18
7.43077e-19
6.17441e-19
5.79781e-19
5.51188e-19
1.49512e-19
9.22382e-20
8.39467e-20
6.80937e-20
0.972229
0.993965
0.993938
0.979454
0.96712
0.991165
0.991164
0.990085
0.981541
0.833376
0.651422
0.815512
0.891186
0.924908
0.951945
0.951823
0.952234
0.952223
0.857048
0.972236
0.993765
0.978433
0.906961
0.91981
0.991178
0.991152
0.943216
0.640471
0.268732
0.523782
0.945154
0.945136
0.944937
0.944883
0.951807
0.949633
0.93975
0.9398
0.942698
0.899969
0.866699
0.822468
0.85764
0.936799
0.797335
0.22713
5.65449e-16
0.0256636
0.430187
0.749679
0.849438
0.858302
0.840993
0.794885
0.819025
0.897193
0.925315
0.330666
0.20342
0.280263
0.289369
0.304282
0.339679
0.114813
-1.63288e-11
-3.33207e-11
-1.20047e-22
-4.81482e-37
-7.31148e-20
0.112275
0.166249
0.118835
0.0729225
0.139739
0.291956
0.421571
-1.2838e-19
1.58527e-19
2.51644e-19
0.000839174
0.000544096
0.000299384
0.00486635
-7.64968e-15
6.93675e-26
2.56445e-24
1.88977e-23
1.49861e-23
-3.67727e-23
1.12917e-13
4.69685e-09
1.24516e-08
1.66523e-08
6.03418e-05
6.25943e-05
3.63902e-25
6.47293e-06
0.0092821
0.0185386
0.00544473
-3.91542e-22
-6.18193e-07
6.87865e-25
1.48959e-07
7.62046e-06
1.16642e-05
4.00737e-06
0.000135726
0.000260104
0.000273545
0.000267323
0.000400525
0.000946126
0.00135751
4.68126e-05
0.000141966
0.00187686
0.0184436
0.0322329
0.000566248
0.000450541
0.000431804
0.000358734
0.000192428
0.000141304
0.000248235
0.00031501
0.000622964
0.0010997
0.00182572
0.00245704
0.00253366
0.00253763
0.0099593
0.00388856
0.00152932
0.00980471
0.0352549
0.0308671
0.00240692
0.00120083
0.00101362
0.00053267
0.000609537
0.000584791
0.000411247
0.00109629
0.00251182
0.00251138
0.00239652
0.00180298
0.00150112
0.0141338
0.0131714
0.00582837
0.00442406
0.0335893
0.0370502
0.0360246
0.0186721
0.0143028
0.0182865
0.0143217
0.00155522
7.65085e-05
0.000644276
0.00112668
0.000749586
7.57837e-05
1.04261e-07
1.09712e-07
0.000942152
0.00253196
0.00262595
0.00160226
0.0140082
0.0289211
0.0301948
0.0240977
0.0241331
0.024015
0.0124314
7.64968e-05
7.30817e-05
3.0101e-05
4.40127e-08
5.21627e-08
4.36125e-08
1.19649e-07
1.09206e-07
2.27663e-05
2.00644e-05
1.28512e-05
0.000395849
4.30012e-07
5.084e-06
0.00160661
0.0051618
0.0099234
0.0110957
0.00627331
0.00121819
0.000158857
3.36993e-05
1.34016e-05
1.0179e-06
2.6092e-07
1.7525e-07
1.25465e-06
2.58356e-05
9.0539e-06
3.36342e-06
-5.46994e-14
2.56801e-09
1.3414e-06
9.17815e-08
1.62381e-09
1.21795e-09
6.05737e-10
7.01357e-08
0.000604723
0.000414272
0.000112547
2.95853e-05
4.55047e-06
9.51455e-07
1.71588e-07
7.4439e-06
4.99271e-06
1.02122e-06
-8.1611e-24
-8.58798e-16
7.4485e-08
2.76131e-07
3.91836e-08
5.7687e-08
1.42947e-07
5.04653e-08
3.2827e-08
1.71836e-06
6.76903e-07
7.27798e-07
6.48605e-07
1.36985e-06
7.47841e-07
7.17157e-07
1.98751e-05
2.41817e-06
2.21717e-06
6.26809e-07
1.35081e-08
1.71076e-07
4.6916e-07
1.54782e-06
7.27919e-06
7.348e-06
2.0434e-06
1.25974e-06
7.81863e-06
1.02232e-05
1.00133e-05
3.7061e-06
2.00917e-07
6.08276e-08
9.28244e-06
1.97602e-05
7.06258e-07
1.25825e-06
2.40751e-06
3.25591e-06
2.48553e-06
5.99667e-06
7.98622e-06
7.99546e-06
7.99914e-06
7.99934e-06
7.3634e-06
3.05638e-06
2.12675e-06
2.65954e-07
4.03158e-08
4.07054e-08
6.00438e-08
1.69041e-05
1.96514e-05
1.11608e-06
1.08736e-06
1.56082e-06
3.62306e-06
2.58682e-06
2.28233e-06
1.69518e-06
1.56812e-06
1.65674e-06
1.2298e-06
4.46728e-07
7.64035e-07
3.32196e-06
1.85491e-06
3.91551e-07
9.04567e-07
8.03143e-06
1.71429e-05
1.65044e-05
2.19931e-05
3.01923e-05
1.69245e-05
2.97265e-06
1.10044e-06
4.82039e-07
5.06359e-07
7.70028e-08
6.35018e-08
6.24113e-08
6.20956e-08
5.27755e-06
1.02551e-05
1.35188e-05
7.32462e-06
1.44445e-05
2.16975e-05
1.60521e-05
1.68592e-06
2.61469e-05
4.28489e-05
4.28418e-05
4.20876e-05
3.25298e-05
1.43758e-05
7.11275e-06
2.47941e-06
1.72715e-07
6.2022e-08
6.19565e-08
2.77378e-06
2.12722e-05
4.0225e-05
4.02245e-05
4.00731e-05
2.08281e-05
1.82024e-07
5.15902e-07
7.28571e-06
3.71388e-05
4.28418e-05
4.28349e-05
4.27984e-05
4.26359e-05
3.41819e-05
4.96183e-06
1.20698e-06
8.40304e-07
5.39411e-07
2.30768e-06
1.36873e-05
1.94885e-05
1.782e-05
6.76712e-06
9.78279e-08
9.82601e-08
4.02605e-07
3.60356e-06
5.67262e-06
2.81123e-05
4.28346e-05
3.68468e-05
8.6878e-06
6.55276e-06
1.40583e-05
1.41399e-05
3.96164e-06
2.87251e-06
4.26627e-06
5.10284e-06
4.52789e-06
3.63614e-06
9.89949e-08
9.92196e-08
9.87107e-08
3.11982e-07
1.8902e-06
2.48221e-09
1.86516e-06
1.40992e-05
8.05449e-06
3.95913e-06
2.06563e-06
7.312e-10
1.25318e-06
3.18204e-06
1.46322e-06
2.23557e-06
4.50301e-06
4.00231e-06
2.43439e-07
2.45649e-07
3.19532e-07
1.3891e-07
7.83684e-08
5.40148e-09
2.61364e-09
1.15334e-09
4.43293e-08
6.68595e-10
6.70819e-10
6.76675e-10
7.22687e-10
7.28431e-10
9.01208e-08
2.30301e-07
1.34586e-07
7.4909e-08
1.75787e-07
2.87975e-07
4.30011e-07
4.29842e-07
2.88906e-07
7.83285e-08
7.66631e-08
3.28812e-08
1.24903e-08
7.92925e-09
7.81854e-09
4.96186e-09
2.30922e-09
1.45542e-09
1.11918e-09
1.11224e-09
9.75561e-09
1.65366e-08
6.8078e-09
2.50965e-09
2.46782e-09
2.11426e-07
4.29957e-07
2.90364e-07
7.83286e-08
8.08759e-08
4.28642e-08
1.73109e-08
9.69713e-09
8.94948e-09
6.95697e-09
4.34269e-09
2.8399e-09
2.01188e-09
1.96707e-09
2.06223e-09
3.72048e-09
3.87907e-09
2.90141e-09
2.61993e-09
2.5964e-09
3.47308e-07
2.50139e-07
7.94128e-08
2.43236e-08
1.04108e-08
5.44993e-09
5.3719e-09
5.07705e-09
3.7881e-09
2.46258e-09
1.98279e-09
2.09107e-09
2.679e-09
3.42695e-09
4.52413e-09
5.59566e-09
6.59966e-09
4.48691e-09
4.00046e-09
1.01205e-07
2.00356e-07
8.62693e-08
2.18475e-09
2.04518e-09
2.33052e-09
2.08562e-09
1.73869e-09
1.28613e-09
1.12601e-09
1.20206e-09
1.5409e-09
2.20183e-09
3.5409e-09
5.69612e-09
8.36833e-09
1.07812e-08
8.36071e-09
4.01591e-09
3.8055e-08
1.78331e-07
1.20471e-07
6.45269e-10
6.6724e-10
6.32387e-10
5.48417e-10
4.77487e-10
4.78321e-10
5.39821e-10
7.06688e-10
1.04101e-09
1.6582e-09
2.72484e-09
4.79214e-09
7.89505e-09
1.05433e-08
7.73054e-09
2.24387e-08
9.658e-08
2.0071e-07
2.00451e-07
1.69057e-10
1.68273e-10
1.58179e-10
1.56643e-10
1.65229e-10
2.05415e-10
3.03503e-10
4.83394e-10
8.25841e-10
1.40857e-09
2.39211e-09
4.04826e-09
6.46083e-09
7.93181e-09
7.71378e-09
6.63894e-08
1.59556e-07
1.81343e-07
2.00726e-07
3.59628e-11
3.904e-11
4.41052e-11
5.0828e-11
6.74259e-11
9.48219e-11
1.36665e-10
2.66211e-10
6.07812e-10
1.3567e-09
2.60292e-09
4.1079e-09
5.57241e-09
6.52243e-09
7.62109e-09
8.52928e-08
1.63203e-07
1.29181e-07
2.00767e-07
9.19733e-12
1.04301e-11
1.20269e-11
1.48935e-11
1.24429e-11
1.66202e-11
3.58454e-11
1.09652e-10
3.65357e-10
1.13241e-09
2.86984e-09
5.68374e-09
8.12699e-09
7.52188e-09
8.43761e-09
5.84271e-08
1.34057e-07
7.52035e-08
2.00711e-07
2.15842e-12
2.59772e-12
2.79806e-12
2.03835e-12
2.15428e-12
3.82779e-12
1.20469e-11
4.67234e-11
1.88081e-10
6.34226e-10
2.97573e-09
6.90706e-09
1.19908e-08
1.20751e-08
1.12775e-08
1.07127e-08
3.20631e-08
3.21573e-08
1.13716e-07
4.97138e-13
5.57438e-13
5.6317e-13
4.03603e-13
5.89229e-13
1.55612e-12
5.35198e-12
2.00381e-11
7.81118e-11
2.5768e-10
3.05879e-09
8.93345e-09
2.18704e-08
2.54456e-08
1.10445e-08
4.48325e-09
7.2701e-09
1.60072e-08
7.20251e-08
1.00458e-13
9.97968e-14
1.07893e-13
1.49107e-13
2.80323e-13
9.11491e-13
2.98591e-12
1.04413e-11
3.87054e-11
1.6095e-10
2.86518e-09
1.22027e-08
2.91065e-08
4.14041e-08
1.49648e-08
4.48705e-09
4.45277e-09
2.0434e-08
1.09646e-07
2.13165e-14
2.24899e-14
3.15962e-14
7.00394e-14
2.03929e-13
6.05132e-13
1.94177e-12
7.03717e-12
3.19063e-11
1.84731e-10
2.83657e-09
1.19334e-08
2.95941e-08
4.6957e-08
4.32293e-08
4.443e-09
4.45089e-09
2.00983e-08
1.16346e-07
4.84992e-15
6.60944e-15
1.39877e-14
4.17615e-14
1.36193e-13
4.72909e-13
1.51597e-12
5.27704e-12
2.17447e-11
1.26267e-10
7.77233e-10
5.77218e-09
1.9848e-08
4.41736e-08
4.78116e-08
2.82024e-08
5.0145e-09
1.42123e-08
1.09357e-07
1.5054e-15
2.51024e-15
7.02849e-15
2.45842e-14
9.17213e-14
3.35883e-13
1.13451e-12
3.50389e-12
1.09151e-11
3.93569e-11
1.31312e-10
1.17099e-09
8.65543e-09
2.33932e-08
4.78431e-08
4.79016e-08
2.87528e-08
3.09963e-08
7.57156e-08
4.17006e-16
8.67291e-16
2.95857e-15
1.17705e-14
4.87052e-14
1.9312e-13
7.04327e-13
2.283e-12
7.19282e-12
3.20871e-11
1.75468e-10
6.44749e-10
1.63103e-09
1.01442e-08
3.29204e-08
4.87304e-08
4.56525e-08
1.08897e-07
7.79152e-08
1.12582e-16
2.47389e-16
9.12053e-16
4.12047e-15
1.91433e-14
8.64248e-14
3.60648e-13
1.33087e-12
4.28171e-12
1.54168e-11
8.50133e-11
4.91362e-10
1.25375e-09
2.27919e-09
8.95741e-09
3.04034e-08
5.20294e-08
1.43229e-07
2.61145e-07
2.16265e-17
4.64615e-17
1.78109e-16
8.983e-16
4.851e-15
2.54493e-14
1.24808e-13
5.51366e-13
2.17577e-12
6.96232e-12
2.73629e-11
1.56091e-10
9.10276e-10
1.80142e-09
3.06764e-09
6.62684e-09
4.4044e-08
1.09422e-07
3.71575e-07
3.63245e-18
5.33925e-18
1.85496e-17
1.03806e-16
7.04499e-16
5.26402e-15
3.3052e-14
1.79221e-13
8.26061e-13
3.29247e-12
1.08285e-11
4.56152e-11
2.61386e-10
1.38864e-09
2.63105e-09
2.81061e-09
1.99286e-08
8.26576e-08
3.7156e-07
4.81521e-19
4.99098e-19
1.15082e-18
6.16562e-18
5.12989e-17
4.6526e-16
4.18731e-15
3.21842e-14
2.03696e-13
1.06681e-12
4.58445e-12
1.5287e-11
6.24492e-11
3.45702e-10
1.61588e-09
2.59316e-09
6.92266e-09
5.53068e-08
3.70378e-07
5.1748e-20
3.97384e-20
4.9909e-20
1.58185e-19
1.26984e-18
1.44083e-17
1.86453e-16
2.10416e-15
1.90672e-14
1.35336e-13
7.4355e-13
2.97231e-12
9.99682e-12
3.19517e-11
1.10746e-10
1.02962e-09
2.74513e-09
3.41156e-08
2.51511e-07
)
;

boundaryField
{
    leftWall
    {
        type            zeroGradient;
    }
    rightWall
    {
        type            zeroGradient;
    }
    lowerWall
    {
        type            zeroGradient;
    }
    atmosphere
    {
        type            inletOutlet;
        inletValue      uniform 0;
        value           nonuniform List<scalar> 
46
(
3.09573e-08
1.30401e-08
1.22019e-08
1.49875e-08
2.18492e-09
3.40693e-10
0
0
0
0
0
0
0
0
3.28238e-16
1.14885e-16
4.47482e-17
6.64478e-17
2.08369e-16
4.6904e-16
3.37267e-16
5.26422e-17
0
0
0
0
0
0
0
0
0
0
0
0
0
0
0
0
0
0
0
0
1.02962e-09
2.74513e-09
3.41156e-08
2.51511e-07
)
;
    }
    defaultFaces
    {
        type            empty;
    }
}


// ************************************************************************* //
