/*--------------------------------*- C++ -*----------------------------------*\
| =========                 |                                                 |
| \\      /  F ield         | OpenFOAM: The Open Source CFD Toolbox           |
|  \\    /   O peration     | Version:  2312                                  |
|   \\  /    A nd           | Website:  www.openfoam.com                      |
|    \\/     M anipulation  |                                                 |
\*---------------------------------------------------------------------------*/
FoamFile
{
    version     2.0;
    format      ascii;
    arch        "LSB;label=32;scalar=64";
    class       volScalarField;
    location    "5.7";
    object      p;
}
// * * * * * * * * * * * * * * * * * * * * * * * * * * * * * * * * * * * * * //

dimensions      [1 -1 -2 0 0 0 0];

internalField   nonuniform List<scalar> 
2268
(
4756.97
4758.24
4761.16
4766.82
4776.31
4790.66
4810.72
4837.35
4871.4
4913.62
4964.8
5025.58
5096.3
5176.82
5266.44
5363.76
5465.93
5568.8
5667.89
5758.37
5834.26
5889.31
5918.53
3959.91
3961.13
3963.98
3969.45
3978.73
3992.88
4012.73
4039.11
4072.94
4114.99
4166.05
4226.82
4297.65
4378.41
4468.42
4566.4
4669.49
4773.28
4873.35
4964.97
5042
5097.95
5127.94
3162.63
3163.64
3166.05
3171.02
3179.84
3193.57
3212.93
3238.74
3272.08
3313.77
3364.62
3425.39
3496.47
3577.73
3668.52
3767.74
3872.88
3978.48
4080.37
4174.18
4253.37
4311.1
4342.89
2364.97
2365.55
2367.23
2371.42
2379.55
2392.65
2411.23
2436.08
2468.62
2509.78
2560.39
2621.2
2692.72
2774.8
2866.78
2968.11
3076.3
3184.49
3289.01
3386.22
3468.73
3529.13
3563.6
1568.37
1568.32
1569.01
1572.12
1579.04
1590.79
1607.81
1631.01
1662.5
1702.99
1753.31
1814.22
1886.41
1969.58
2062.99
2166.94
2279.73
2391.07
2498.87
2601.05
2688.4
2752.67
2790.81
958.535
957.599
956.361
955.982
957.267
960.919
967.667
978.161
993.486
1016.45
1048.12
1088.97
1141.07
1205.81
1284.05
1377.61
1486.13
1602.31
1718.02
1824.96
1915.91
1983.57
2025.79
717.703
716.518
714.357
711.577
708.331
704.989
702.579
701.556
701.32
703.63
709.9
720.503
736.946
760.618
792.538
834.423
888.668
958.618
1038
1119.17
1194.95
1255.18
1293.09
659.094
657.76
655.42
652.49
649.077
645.526
642.976
641.825
641.135
639.791
639.122
639.673
641.573
644.371
647.422
650.762
655.838
666.072
684.301
711.956
744.797
775.638
799.019
2736.56
2791.26
2868.27
2924.04
2940.15
2924.32
2885.19
2836.26
2790.15
2752.71
2727.27
2709.1
2693.23
2672.43
2641.36
2605.32
2565.81
2536.18
2521.64
1971.11
2022.29
2101.11
2160.32
2175.17
2157.79
2116.15
2066.39
2021.35
1986.47
1963.71
1946.35
1929.48
1907.69
1875.2
1839
1803.31
1781.4
1774.57
1337.65
1368.88
1428.89
1480.53
1492.88
1467.98
1424.66
1381.13
1348.34
1329.65
1318.22
1303.07
1290.67
1275.65
1253.59
1228.37
1208.31
1200.99
1199.73
1043.26
1045.04
1057.7
1073.81
1075.98
1060.04
1037.95
1020.24
1011.13
1009.46
1006.5
991.378
978.651
971.13
965.168
953.11
951.671
953.537
947.399
967.312
956.379
946.504
939.808
936.56
933.202
931.248
930.865
932.354
934.547
931.27
913.18
899.362
894.039
892.038
884.224
886.94
888.071
881.334
903.019
892.364
885.82
881.888
879.696
875.933
874.088
872.82
872.595
874.116
869.725
851.796
840.132
837.063
835.575
832.219
834.476
830.063
824.831
833.304
825.833
822.087
820.122
819.561
818.126
815.83
813.68
812.314
812.926
804.651
787.791
778.79
777.498
776.446
777.751
779.275
771.155
767.396
760.832
760.068
759.641
758.261
758.102
758.707
757.343
754.951
752.567
750.548
737.529
723.619
719.075
720.351
718.071
720.289
720.59
711.495
710.447
567.634
565.973
563.193
559.72
555.862
552.468
549.996
548.348
546.906
545.484
545.151
545.664
547.905
551.252
554.747
558.594
562.161
565.079
568.191
572.553
579.16
589.275
602.798
446.284
444.072
441.036
437.346
433.538
430.336
428.037
425.814
423.791
421.683
419.812
419.657
421.34
424.299
428.282
432.991
437.62
442.185
447.132
453.019
460.31
469.795
482.263
344.771
343.699
342.091
340.019
337.882
335.539
332.607
329.129
326.124
323.496
321.217
319.53
318.249
318.15
319.348
321.916
325.551
329.838
334.799
340.648
347.749
356.325
366.112
272.649
272.674
272.184
271.236
269.744
267.412
263.928
259.824
255.868
252.069
249.079
246.554
243.973
242.008
241.059
241.206
242.94
245.959
250.098
255.53
262.288
270.241
278.321
212.103
211.811
211.117
209.858
207.754
204.705
200.633
195.615
191.474
187.118
183.06
179.338
176.732
175.145
174.854
175.763
177.886
181.29
185.797
191.455
198.191
205.108
211.07
151.373
151.096
150.368
148.913
146.401
142.939
138.464
132.736
126.351
120.473
115.189
111.155
108.602
107.539
108.049
109.953
113.169
117.577
122.798
128.673
135.174
141.977
148.369
91.3789
91.1353
90.1885
88.3585
85.5958
81.8609
76.4305
68.6276
59.7099
52.5432
47.1031
43.3126
41.1505
40.4674
41.3648
43.7716
47.5896
52.7919
59.0932
65.5726
72.0362
78.6176
85.2535
35.7472
35.6525
35.1812
34.0357
31.9047
28.9343
24.1387
17.9847
11.85
8.64576
6.556
5.18135
4.36795
4.08374
4.37313
5.30193
6.93205
9.40554
13.1174
17.1294
21.0909
24.9212
28.9468
4.60969
4.42112
4.06097
3.64424
3.18972
2.30889
0.853561
-0.371845
-0.917611
-1.0063
-1.05148
-1.12119
-1.20512
-1.23519
-1.2428
-1.24403
-1.23087
-1.1901
-1.09935
-0.677327
0.102281
0.812773
1.66592
-1.63727
-1.62736
-1.64216
-1.65679
-1.65845
-1.64038
-1.56747
-1.42836
-1.34936
-1.37571
-1.41581
-1.43807
-1.43838
-1.44591
-1.45365
-1.46121
-1.47419
-1.50532
-1.54334
-1.57417
-1.56177
-1.52781
-1.4977
-1.86904
-1.87554
-1.86333
-1.84237
-1.83611
-1.8361
-1.79688
-1.70338
-1.62411
-1.60724
-1.60161
-1.60499
-1.60848
-1.61394
-1.61799
-1.6231
-1.63408
-1.65398
-1.67684
-1.69445
-1.70028
-1.68945
-1.68
-1.9582
-1.96229
-1.95941
-1.95365
-1.94992
-1.93879
-1.91132
-1.86867
-1.82946
-1.79776
-1.77681
-1.76871
-1.76877
-1.76833
-1.76963
-1.77418
-1.78351
-1.79643
-1.81066
-1.82325
-1.83453
-1.84162
-1.84904
-2.05836
-2.06079
-2.06048
-2.05771
-2.05145
-2.04272
-2.02274
-1.9955
-1.96346
-1.94095
-1.92627
-1.91773
-1.91455
-1.91399
-1.91612
-1.92117
-1.9292
-1.93917
-1.94926
-1.96186
-1.97682
-1.99208
-2.00712
-2.17215
-2.17261
-2.17205
-2.16979
-2.16466
-2.15513
-2.14013
-2.1203
-2.09916
-2.08264
-2.07076
-2.06333
-2.05988
-2.05907
-2.06072
-2.06502
-2.07164
-2.08006
-2.0898
-2.10156
-2.11551
-2.13046
-2.1446
-2.29018
-2.28996
-2.28872
-2.28628
-2.28122
-2.27311
-2.26176
-2.24798
-2.23349
-2.22093
-2.21123
-2.20477
-2.20132
-2.2003
-2.20153
-2.20506
-2.21072
-2.21823
-2.22692
-2.23582
-2.24626
-2.25935
-2.27189
-2.40976
-2.40918
-2.40759
-2.40459
-2.40033
-2.39384
-2.38528
-2.37527
-2.36483
-2.3554
-2.34781
-2.34251
-2.33945
-2.33847
-2.33948
-2.34243
-2.34718
-2.35327
-2.3599
-2.36684
-2.3758
-2.38652
-2.39804
-2.53078
-2.5301
-2.5285
-2.52576
-2.52185
-2.51653
-2.50989
-2.50238
-2.49468
-2.48763
-2.48182
-2.47761
-2.47513
-2.47436
-2.47526
-2.47778
-2.48179
-2.48689
-2.4926
-2.49923
-2.50704
-2.5158
-2.52513
-2.65278
-2.65211
-2.65063
-2.64823
-2.64487
-2.64053
-2.63534
-2.62962
-2.62384
-2.61854
-2.61412
-2.61088
-2.60898
-2.60847
-2.60935
-2.61159
-2.61513
-2.61979
-2.62529
-2.63169
-2.63979
-2.64739
-2.65443
-2.77564
-2.77502
-2.77372
-2.77168
-2.76889
-2.76538
-2.76131
-2.75692
-2.75255
-2.74856
-2.74522
-2.74278
-2.7414
-2.74116
-2.74208
-2.74415
-2.74737
-2.75168
-2.75699
-2.76338
-2.77117
-2.77902
-2.78643
-2.89917
-2.89865
-2.89755
-2.89586
-2.89358
-2.89078
-2.88759
-2.88421
-2.8809
-2.87791
-2.87539
-2.87362
-2.87269
-2.87268
-2.87365
-2.87559
-2.87854
-2.88247
-2.88738
-2.8933
-2.90039
-2.90855
-2.91607
-3.02328
-3.02285
-3.02195
-3.02057
-3.01873
-3.01651
-3.01403
-3.01145
-3.00894
-3.0067
-3.00486
-3.00361
-3.00305
-3.00324
-3.00424
-3.00607
-3.00875
-3.01227
-3.01666
-3.0219
-3.02797
-3.03476
-3.04204
-3.14787
-3.14752
-3.14679
-3.14568
-3.14422
-3.14248
-3.14056
-3.13859
-3.13671
-3.13506
-3.13375
-3.13291
-3.13263
-3.13298
-3.134
-3.13571
-3.13813
-3.14127
-3.1451
-3.14963
-3.15476
-3.16036
-3.1662
-3.27284
-3.27256
-3.27197
-3.27109
-3.26994
-3.26858
-3.26711
-3.26563
-3.26425
-3.26306
-3.26216
-3.26164
-3.26158
-3.26204
-3.26306
-3.26465
-3.26683
-3.2696
-3.27293
-3.2768
-3.28113
-3.2858
-3.29058
-3.39809
-3.39787
-3.39741
-3.39672
-3.39583
-3.39478
-3.39367
-3.39257
-3.39157
-3.39074
-3.39016
-3.38989
-3.39
-3.39054
-3.39153
-3.39301
-3.39496
-3.3974
-3.40028
-3.40359
-3.40725
-3.41116
-3.41516
-3.52357
-3.52341
-3.52305
-3.52251
-3.52183
-3.52104
-3.52021
-3.51942
-3.51871
-3.51817
-3.51782
-3.51775
-3.51798
-3.51856
-3.51952
-3.52088
-3.52263
-3.52477
-3.52727
-3.5301
-3.5332
-3.53648
-3.53985
-3.64923
-3.64911
-3.64883
-3.64843
-3.64791
-3.64732
-3.64672
-3.64616
-3.64569
-3.64536
-3.6452
-3.64527
-3.64558
-3.64619
-3.64711
-3.64835
-3.64991
-3.65179
-3.65396
-3.65639
-3.65903
-3.66181
-3.66465
-3.77502
-3.77493
-3.77473
-3.77443
-3.77404
-3.77362
-3.7732
-3.77282
-3.77253
-3.77236
-3.77234
-3.77251
-3.77288
-3.77349
-3.77436
-3.77549
-3.77688
-3.77853
-3.78042
-3.78251
-3.78477
-3.78714
-3.78955
-3.90092
-3.90086
-3.90071
-3.90049
-3.90021
-3.89992
-3.89964
-3.8994
-3.89924
-3.89919
-3.89927
-3.89951
-3.89992
-3.90052
-3.90133
-3.90235
-3.9036
-3.90505
-3.90669
-3.90849
-3.91043
-3.91246
-3.91452
-4.0269
-4.02687
-4.02676
-4.0266
-4.02641
-4.02622
-4.02604
-4.02591
-4.02585
-4.02588
-4.02603
-4.02631
-4.02674
-4.02732
-4.02807
-4.029
-4.0301
-4.03137
-4.0328
-4.03437
-4.03604
-4.03778
-4.03955
-4.15295
-4.15294
-4.15287
-4.15277
-4.15265
-4.15253
-4.15242
-4.15236
-4.15237
-4.15245
-4.15264
-4.15295
-4.15337
-4.15393
-4.15462
-4.15546
-4.15643
-4.15755
-4.1588
-4.16015
-4.16159
-4.16309
-4.16461
-4.27907
-4.27908
-4.27904
-4.27899
-4.27892
-4.27884
-4.27878
-4.27876
-4.27881
-4.27893
-4.27914
-4.27945
-4.27985
-4.28038
-4.28101
-4.28176
-4.28263
-4.2836
-4.28469
-4.28586
-4.2871
-4.28839
-4.28971
-4.40524
-4.40527
-4.40526
-4.40525
-4.4052
-4.40515
-4.40512
-4.40512
-4.40518
-4.40531
-4.40553
-4.40582
-4.40621
-4.4067
-4.40727
-4.40794
-4.4087
-4.40956
-4.41049
-4.41151
-4.41258
-4.41369
-4.41483
-4.53146
-4.53151
-4.53151
-4.53152
-4.53149
-4.53145
-4.53143
-4.53144
-4.5315
-4.53163
-4.53182
-4.53211
-4.53246
-4.5329
-4.53342
-4.53402
-4.53468
-4.53542
-4.53624
-4.53711
-4.53803
-4.53899
-4.53997
-4.65772
-4.65777
-4.65779
-4.65781
-4.65779
-4.65775
-4.65772
-4.65772
-4.65777
-4.65788
-4.65805
-4.6583
-4.65862
-4.65902
-4.65948
-4.66
-4.66058
-4.66122
-4.66192
-4.66267
-4.66346
-4.66428
-4.66512
-4.78398
-4.78405
-4.78408
-4.78411
-4.78408
-4.78402
-4.78397
-4.78396
-4.78399
-4.78407
-4.78422
-4.78444
-4.78472
-4.78506
-4.78546
-4.78591
-4.78642
-4.78697
-4.78756
-4.7882
-4.78887
-4.78957
-4.79029
-4.91024
-4.91031
-4.91035
-4.91038
-4.91034
-4.91025
-4.91018
-4.91013
-4.91015
-4.91021
-4.91033
-4.91051
-4.91075
-4.91104
-4.91138
-4.91177
-4.9122
-4.91266
-4.91316
-4.9137
-4.91426
-4.91486
-4.91546
-5.03647
-5.03654
-5.03658
-5.03659
-5.03654
-5.03642
-5.03632
-5.03626
-5.03625
-5.0363
-5.03639
-5.03654
-5.03673
-5.03697
-5.03726
-5.03758
-5.03793
-5.03832
-5.03874
-5.03918
-5.03964
-5.04014
-5.04064
-5.16264
-5.16271
-5.16274
-5.16273
-5.16265
-5.16252
-5.1624
-5.16232
-5.1623
-5.16233
-5.16241
-5.16252
-5.16268
-5.16287
-5.16309
-5.16335
-5.16363
-5.16394
-5.16428
-5.16464
-5.16501
-5.16541
-5.16583
-5.28874
-5.28879
-5.28883
-5.28877
-5.28866
-5.28853
-5.28841
-5.28833
-5.28831
-5.28832
-5.28838
-5.28847
-5.28858
-5.28873
-5.2889
-5.28909
-5.28931
-5.28955
-5.2898
-5.29008
-5.29037
-5.29068
-5.29101
-5.41478
-5.41481
-5.41488
-5.4147
-5.4146
-5.41445
-5.41436
-5.41429
-5.41427
-5.41428
-5.41432
-5.41438
-5.41447
-5.41458
-5.41468
-5.41481
-5.41496
-5.41513
-5.41531
-5.4155
-5.41571
-5.41594
-5.41619
-5.54076
-5.54079
-5.54096
-5.54057
-5.54046
-5.5403
-5.54025
-5.54021
-5.54019
-5.54019
-5.54022
-5.54025
-5.54031
-5.54038
-5.54043
-5.54051
-5.5406
-5.5407
-5.54081
-5.54092
-5.54105
-5.54119
-5.54136
-5.66667
-5.66683
-5.66719
-5.66648
-5.6663
-5.66614
-5.66612
-5.66609
-5.66609
-5.66609
-5.66609
-5.6661
-5.66611
-5.66611
-5.66615
-5.66619
-5.66622
-5.66626
-5.6663
-5.66634
-5.66639
-5.66645
-5.66653
608.19
608.526
605.35
606.582
493.191
499.901
506.835
514.531
374.32
381.222
389.134
397.474
282.531
285.453
289.685
294.721
214.591
216.733
218.792
221.176
152.619
155.29
158.029
160.668
90.4767
93.9179
97.2924
100.529
32.7144
35.2941
38.1106
41.064
2.60941
3.24316
3.89655
4.94713
-1.47727
-1.46239
-1.44213
-1.42489
-1.67492
-1.67499
-1.68027
-1.69214
-1.85989
-1.86853
-1.87863
-1.88817
-2.02114
-2.03013
-2.03837
-2.04491
-2.15526
-2.16231
-2.16966
-2.17683
-2.28065
-2.28627
-2.29201
-2.29785
-2.40578
-2.41052
-2.41503
-2.41956
-2.53189
-2.53585
-2.53938
-2.54304
-2.66035
-2.66399
-2.66734
-2.67057
-2.79175
-2.79518
-2.79849
-2.80124
-2.92153
-2.92525
-2.92857
-2.93142
-3.04761
-3.05071
-3.05347
-3.05613
-3.17051
-3.17322
-3.1757
-3.17796
-3.2941
-3.29631
-3.29838
-3.30037
-3.4181
-3.41995
-3.42171
-3.42342
-3.54233
-3.54389
-3.54538
-3.54685
-3.66675
-3.66807
-3.66935
-3.67061
-3.79134
-3.79246
-3.79356
-3.79465
-3.91604
-3.917
-3.91795
-3.91888
-4.04085
-4.04167
-4.04249
-4.0433
-4.16573
-4.16644
-4.16714
-4.16784
-4.29067
-4.29129
-4.2919
-4.2925
-4.41566
-4.41619
-4.41672
-4.41724
-4.54068
-4.54114
-4.5416
-4.54205
-4.66574
-4.66613
-4.66653
-4.66692
-4.79082
-4.79116
-4.79149
-4.79184
-4.91591
-4.9162
-4.91649
-4.91678
-5.04102
-5.04126
-5.04151
-5.04176
-5.16614
-5.16634
-5.16655
-5.16676
-5.29126
-5.29143
-5.2916
-5.29177
-5.41638
-5.41651
-5.41664
-5.41678
-5.5415
-5.54159
-5.54169
-5.54179
-5.66661
-5.66666
-5.66673
-5.66679
643.142
661.9
666.036
665.552
664.196
665.861
666.307
663.929
658.879
650.024
640.374
632.339
631.062
630.293
628.838
628.852
627.228
618.399
620.399
527.832
538.436
542.834
542.435
540.803
542.966
543.678
539.57
532.687
525.796
517.699
513.693
511.935
509.186
506.369
503.51
498.708
493.747
497.923
408.977
414.731
420.282
423.216
424.821
424.963
425.153
425.03
422.6
417.171
406.35
398.786
393.407
388.861
383.693
377.39
371.057
369.432
373.655
302.614
309.164
316.338
322.935
327.317
327.608
328.016
329.614
329.509
324.562
315.495
307.019
299.339
291.968
283.328
274.508
266.774
262.133
262.658
225.971
233.799
241.326
248.409
253.865
257.635
258.573
257.195
255.242
252.09
247.42
239.757
230.552
220.031
208.438
197.55
187.71
180.378
176.744
165.022
171.879
179.291
186.568
193.08
197.733
199.55
199.058
196.982
192.954
186.403
176.967
165.382
152.409
138.871
125.59
114.346
105.514
99.2254
105.727
112.913
120.43
127.888
135.281
140.386
143.734
143.728
140.732
135.482
127.472
116.052
101.694
85.9208
69.6857
55.2998
44.639
35.876
30.3508
46.0519
53.4609
62.1069
70.6727
77.979
83.8893
87.7914
88.8433
86.8804
81.0488
71.2481
57.6249
41.7759
28.4442
18.1588
10.2375
5.32197
2.60357
2.14178
7.20752
11.2111
16.7843
22.8708
28.6562
34.3261
38.5272
40.3311
39.1437
34.0133
25.4978
15.0295
5.96964
1.69836
0.433406
-0.903966
-1.23091
-1.24829
-1.23566
-1.39335
-1.19346
-0.684473
0.519209
2.14778
3.95751
6.21804
8.00183
7.81848
5.05947
1.83924
-0.307432
-1.22135
-1.51174
-1.57087
-1.54865
-1.45798
-1.42575
-1.40869
-1.72986
-1.75491
-1.74999
-1.75185
-1.78232
-1.84828
-1.83118
-1.65873
-1.49274
-1.43413
-1.58915
-1.68533
-1.71475
-1.72061
-1.70824
-1.68446
-1.62471
-1.59397
-1.57754
-1.90246
-1.91853
-1.94427
-2.02561
-2.08992
-2.09584
-2.11005
-2.12823
-2.12289
-2.09775
-2.05207
-2.00098
-1.96124
-1.89392
-1.85859
-1.82385
-1.78051
-1.75194
-1.73639
-2.05315
-2.06857
-2.09335
-2.13746
-2.17512
-2.19047
-2.20054
-2.21097
-2.20804
-2.18881
-2.15224
-2.11446
-2.08075
-2.03134
-1.99085
-1.95828
-1.92647
-1.90259
-1.88751
-2.1866
-2.20034
-2.21943
-2.24274
-2.26467
-2.27752
-2.28661
-2.29042
-2.28691
-2.27196
-2.24732
-2.21933
-2.19065
-2.15793
-2.12743
-2.10067
-2.07476
-2.05242
-2.03933
-2.30742
-2.32121
-2.3348
-2.34849
-2.36051
-2.36909
-2.37528
-2.38193
-2.38077
-2.37024
-2.352
-2.32962
-2.30706
-2.28601
-2.26591
-2.24394
-2.22122
-2.20305
-2.1928
-2.4275
-2.43883
-2.45038
-2.45954
-2.46779
-2.47522
-2.48216
-2.48812
-2.48754
-2.47875
-2.46381
-2.44546
-2.42876
-2.41487
-2.39963
-2.38081
-2.36311
-2.35111
-2.34351
-2.54974
-2.55964
-2.56952
-2.57791
-2.585
-2.59159
-2.59706
-2.60089
-2.59946
-2.59212
-2.5805
-2.56693
-2.55503
-2.54384
-2.53022
-2.51473
-2.50261
-2.49537
-2.48923
-2.67604
-2.6845
-2.69329
-2.70084
-2.70703
-2.71196
-2.71578
-2.71718
-2.71481
-2.70876
-2.70019
-2.69172
-2.68302
-2.67358
-2.662
-2.65006
-2.64124
-2.63499
-2.62997
-2.8055
-2.81207
-2.81899
-2.82528
-2.83058
-2.83446
-2.83658
-2.83695
-2.83397
-2.8287
-2.82196
-2.81553
-2.80955
-2.80223
-2.79383
-2.78473
-2.77605
-2.77041
-2.76656
-2.93519
-2.9392
-2.94442
-2.94967
-2.95438
-2.95725
-2.95831
-2.95779
-2.95564
-2.95179
-2.94623
-2.94039
-2.93474
-2.9289
-2.92258
-2.91452
-2.90754
-2.90362
-2.90018
-3.05999
-3.06387
-3.06804
-3.07252
-3.07625
-3.07834
-3.07916
-3.07828
-3.07679
-3.07433
-3.07087
-3.06644
-3.06108
-3.05576
-3.05009
-3.04339
-3.03842
-3.03503
-3.03261
-3.18156
-3.18593
-3.18964
-3.19345
-3.19669
-3.19883
-3.19953
-3.19864
-3.19732
-3.19553
-3.19346
-3.19046
-3.18657
-3.1821
-3.17711
-3.17201
-3.16806
-3.16537
-3.16364
-3.30363
-3.30764
-3.31104
-3.31418
-3.31691
-3.31876
-3.31956
-3.31931
-3.31841
-3.31703
-3.31532
-3.31307
-3.31025
-3.30709
-3.30346
-3.29962
-3.29638
-3.29407
-3.2931
-3.42623
-3.42976
-3.43281
-3.43548
-3.43772
-3.43935
-3.44025
-3.44041
-3.43999
-3.43909
-3.43779
-3.43605
-3.43387
-3.43137
-3.42868
-3.42595
-3.42329
-3.42142
-3.42079
-3.54925
-3.55232
-3.55502
-3.55735
-3.55928
-3.56076
-3.56171
-3.56214
-3.56208
-3.56159
-3.56069
-3.55941
-3.55775
-3.55578
-3.55361
-3.55143
-3.54948
-3.54803
-3.54737
-3.67267
-3.67532
-3.6777
-3.67976
-3.68148
-3.68285
-3.68384
-3.68442
-3.68462
-3.68444
-3.68391
-3.68304
-3.68183
-3.68032
-3.6786
-3.67688
-3.67535
-3.67418
-3.67358
-3.79642
-3.79871
-3.8008
-3.80263
-3.80419
-3.80548
-3.80647
-3.80716
-3.80753
-3.80761
-3.80739
-3.80687
-3.80604
-3.80492
-3.80357
-3.8022
-3.80097
-3.80001
-3.79951
-3.92042
-3.92242
-3.92425
-3.92588
-3.92731
-3.92852
-3.92951
-3.93026
-3.93077
-3.93104
-3.93106
-3.93083
-3.93032
-3.9295
-3.92848
-3.92739
-3.92639
-3.9256
-3.92522
-4.04462
-4.04637
-4.04798
-4.04944
-4.05075
-4.05189
-4.05287
-4.05366
-4.05427
-4.05468
-4.05489
-4.05488
-4.05461
-4.05403
-4.05326
-4.05242
-4.05163
-4.05098
-4.05067
-4.169
-4.17052
-4.17194
-4.17326
-4.17445
-4.17553
-4.17648
-4.17729
-4.17796
-4.17847
-4.17882
-4.17897
-4.17888
-4.1785
-4.17792
-4.17728
-4.17666
-4.17613
-4.17589
-4.2935
-4.29483
-4.29609
-4.29727
-4.29836
-4.29937
-4.30028
-4.3011
-4.30179
-4.30237
-4.3028
-4.30306
-4.3031
-4.30286
-4.30243
-4.30195
-4.30148
-4.30108
-4.30088
-4.41811
-4.41928
-4.42039
-4.42145
-4.42244
-4.42337
-4.42424
-4.42503
-4.42573
-4.42632
-4.42679
-4.42711
-4.42723
-4.4271
-4.4268
-4.42644
-4.4261
-4.42582
-4.42568
-4.54281
-4.54383
-4.54481
-4.54575
-4.54665
-4.5475
-4.54831
-4.54905
-4.54972
-4.55029
-4.55076
-4.5511
-4.55126
-4.55121
-4.551
-4.55077
-4.55056
-4.5504
-4.55033
-4.66758
-4.66847
-4.66933
-4.67016
-4.67096
-4.67173
-4.67246
-4.67314
-4.67375
-4.67428
-4.67471
-4.67503
-4.67521
-4.6752
-4.67508
-4.67499
-4.67493
-4.67491
-4.67492
-4.7924
-4.79318
-4.79393
-4.79465
-4.79536
-4.79604
-4.79669
-4.7973
-4.79784
-4.7983
-4.79866
-4.79892
-4.7991
-4.79914
-4.79913
-4.79918
-4.79929
-4.79944
-4.7995
-4.91727
-4.91794
-4.91859
-4.91922
-4.91983
-4.92042
-4.92098
-4.92151
-4.92199
-4.92239
-4.9227
-4.92289
-4.92303
-4.92311
-4.9232
-4.92343
-4.92371
-4.92401
-4.92412
-5.04218
-5.04275
-5.04331
-5.04385
-5.04436
-5.04486
-5.04534
-5.04579
-5.04619
-5.04654
-5.04683
-5.04702
-5.04709
-5.04713
-5.04729
-5.04773
-5.04818
-5.04864
-5.04882
-5.16711
-5.1676
-5.16807
-5.16852
-5.16894
-5.16935
-5.16975
-5.17011
-5.17045
-5.17074
-5.17101
-5.17124
-5.17131
-5.17132
-5.17143
-5.17202
-5.17274
-5.17338
-5.17372
-5.29206
-5.29246
-5.29284
-5.29321
-5.29355
-5.29388
-5.29419
-5.29447
-5.29474
-5.29498
-5.2952
-5.29542
-5.29557
-5.29566
-5.29567
-5.29641
-5.29747
-5.29834
-5.2989
-5.417
-5.41732
-5.41763
-5.41792
-5.41818
-5.41843
-5.41866
-5.41887
-5.41906
-5.41924
-5.41941
-5.41959
-5.41978
-5.42001
-5.42006
-5.42105
-5.42257
-5.42356
-5.42455
-5.54196
-5.5422
-5.54242
-5.54263
-5.54283
-5.543
-5.54315
-5.54328
-5.5434
-5.54352
-5.54364
-5.5438
-5.54399
-5.54437
-5.54469
-5.54608
-5.5485
-5.54898
-5.55092
-5.6669
-5.66706
-5.6672
-5.66734
-5.66745
-5.66754
-5.66761
-5.66767
-5.66771
-5.66776
-5.66782
-5.66795
-5.66815
-5.66869
-5.67009
-5.6723
-5.67582
-5.67416
-5.67827
)
;

boundaryField
{
    leftWall
    {
        type            calculated;
        value           nonuniform List<scalar> 
50
(
4756.97
3959.91
3162.63
2364.97
1568.37
958.535
717.703
659.094
567.634
446.284
344.771
272.649
212.103
151.373
91.3789
35.7472
4.60969
-1.63727
-1.86904
-1.9582
-2.05836
-2.17215
-2.29018
-2.40976
-2.53078
-2.65278
-2.77564
-2.89917
-3.02328
-3.14787
-3.27284
-3.39809
-3.52357
-3.64923
-3.77502
-3.90092
-4.0269
-4.15295
-4.27907
-4.40524
-4.53146
-4.65772
-4.78398
-4.91024
-5.03647
-5.16264
-5.28874
-5.41478
-5.54076
-5.66667
)
;
    }
    rightWall
    {
        type            calculated;
        value           nonuniform List<scalar> 
50
(
2521.64
1774.57
1199.73
947.399
881.334
824.831
767.396
710.447
620.399
497.923
373.655
262.658
176.744
99.2254
30.3508
2.14178
-1.23566
-1.40869
-1.57754
-1.73639
-1.88751
-2.03933
-2.1928
-2.34351
-2.48923
-2.62997
-2.76656
-2.90018
-3.03261
-3.16364
-3.2931
-3.42079
-3.54737
-3.67358
-3.79951
-3.92522
-4.05067
-4.17589
-4.30088
-4.42568
-4.55033
-4.67492
-4.7995
-4.92412
-5.04882
-5.17372
-5.2989
-5.42455
-5.55092
-5.67827
)
;
    }
    lowerWall
    {
        type            calculated;
        value           nonuniform List<scalar> 
62
(
5155.12
5156.39
5159.31
5164.97
5174.46
5188.81
5208.87
5235.5
5269.55
5311.77
5362.95
5423.73
5494.45
5574.97
5664.59
5761.91
5864.08
5966.95
6066.04
6156.52
6232.4
6287.45
6316.66
5918.53
5127.94
4342.89
3563.6
2790.81
2025.79
1293.09
799.019
670.802
670.881
667.098
668.677
2736.56
1971.11
1337.65
1043.26
967.312
903.019
833.304
760.832
3120.81
3175.88
3252.8
3308.55
3324.2
3308.55
3270.05
3221.09
3174.87
3137.4
3111.87
3093.71
3078.97
3058.29
3027.23
2991.18
2951.64
2922.01
2907.41
)
;
    }
    atmosphere
    {
        type            calculated;
        value           nonuniform List<scalar> 
46
(
-5.7293
-5.72997
-5.73126
-5.72934
-5.72906
-5.72904
-5.72904
-5.72905
-5.72905
-5.72905
-5.72905
-5.72905
-5.72904
-5.72904
-5.72904
-5.72904
-5.72904
-5.72904
-5.72904
-5.72904
-5.72904
-5.72904
-5.72907
-5.72913
-5.72917
-5.72923
-5.72928
-5.72936
-5.72948
-5.72959
-5.72968
-5.72975
-5.72979
-5.72982
-5.72983
-5.72983
-5.72983
-5.72983
-5.72985
-5.72992
-5.73022
-5.73075
-5.73462
-5.74469
-5.73608
-5.74456
)
;
    }
    defaultFaces
    {
        type            empty;
    }
}


// ************************************************************************* //
