/*--------------------------------*- C++ -*----------------------------------*\
| =========                 |                                                 |
| \\      /  F ield         | OpenFOAM: The Open Source CFD Toolbox           |
|  \\    /   O peration     | Version:  2312                                  |
|   \\  /    A nd           | Website:  www.openfoam.com                      |
|    \\/     M anipulation  |                                                 |
\*---------------------------------------------------------------------------*/
FoamFile
{
    version     2.0;
    format      ascii;
    arch        "LSB;label=32;scalar=64";
    class       volScalarField;
    location    "5.7";
    object      p_rgh;
}
// * * * * * * * * * * * * * * * * * * * * * * * * * * * * * * * * * * * * * //

dimensions      [1 -1 -2 0 0 0 0];

internalField   nonuniform List<scalar> 
2268
(
5155.12
5156.39
5159.31
5164.97
5174.46
5188.81
5208.87
5235.5
5269.55
5311.77
5362.95
5423.73
5494.45
5574.97
5664.59
5761.91
5864.08
5966.95
6066.04
6156.52
6232.4
6287.45
6316.66
5154.36
5155.58
5158.43
5163.9
5173.18
5187.33
5207.18
5233.56
5267.39
5309.44
5360.5
5421.27
5492.1
5572.86
5662.87
5760.85
5863.94
5967.73
6067.8
6159.42
6236.44
6292.36
6322.36
5153.38
5154.39
5156.8
5161.77
5170.59
5184.32
5203.68
5229.49
5262.83
5304.52
5355.37
5416.14
5487.22
5568.48
5659.27
5758.49
5863.63
5969.23
6071.12
6164.93
6244.12
6301.84
6333.64
5152.02
5152.6
5154.28
5158.47
5166.6
5179.69
5198.28
5223.13
5255.67
5296.83
5347.44
5408.25
5479.77
5561.84
5653.82
5755.15
5863.35
5971.54
6076.06
6173.27
6255.77
6316.18
6350.65
5138.53
5138.4
5138.06
5140.21
5149.13
5165.62
5187.47
5213.54
5245.52
5286.04
5336.27
5397.05
5468.96
5552.42
5646.11
5750.17
5863.05
5974.41
6082.22
6184.4
6271.75
6336.02
6374.16
3281.55
3281.69
3288.25
3311.89
3361.42
3442.17
3549.24
3683.69
3867.07
4075.02
4303.12
4558.47
4833.66
5110.99
5369.29
5610.34
5845.1
5940.05
6004.8
6132.46
6256.37
6344.52
6394.38
1099.52
1098.47
1096.29
1093.24
1089.87
1086.63
1084.38
1083.73
1083.67
1131.68
1231.01
1372.54
1579.8
1876.74
2284.13
2827.59
3509.2
4251.27
4919.62
5409.3
5745.37
5955.82
6116.59
1100.29
1098.96
1096.7
1093.91
1090.2
1086.79
1084.29
1083.15
1082.45
1081.09
1080.37
1080.98
1082.96
1085.91
1088.77
1091.17
1121.92
1273.31
1565.96
1984.57
2439.68
2806.82
2962.6
3120.81
3175.88
3252.8
3308.55
3324.2
3308.55
3270.05
3221.09
3174.87
3137.4
3111.87
3093.71
3078.97
3058.29
3027.23
2991.18
2951.64
2922.01
2907.41
3066.7
3156.69
3257.9
3318.51
3333.3
3313.73
3269.9
3216.33
3165.96
3122.17
3095.25
3079.91
3066.21
3050.24
3018.65
2981.01
2924.72
2877.21
2849.29
2541.18
2669.98
2869.59
3008.05
3040.46
3022.78
2967.93
2880.38
2789.56
2704.81
2650.16
2624.92
2597.07
2546.85
2461.47
2378.37
2295.59
2253.64
2260.9
1325.7
1417.59
1624.39
1830.5
1875.54
1768.75
1590.63
1442.25
1348.84
1320.27
1316.55
1324.8
1337.92
1333.54
1296.44
1265.06
1217.58
1202.27
1222.02
1216.46
1218.63
1206.05
1196.18
1189.47
1182.32
1183.16
1184.01
1193.09
1197.39
1194.33
1175.63
1149.85
1134.92
1129.73
1096.1
1121.09
1143.04
1116.8
1226.16
1233.62
1228.9
1225.09
1208.68
1194.99
1192.48
1195.14
1197.45
1201.36
1202.65
1178.75
1160.54
1174.29
1166.9
1111.36
1123.73
1149.95
1118.11
1227.1
1232.15
1226.95
1230.85
1230.24
1201.55
1197.88
1197.99
1197.45
1206.66
1255.16
1186.48
1162.16
1153.49
1151.92
1125.58
1154.49
1152.66
1107.2
1215.28
1217.17
1205.48
1221.45
1233.27
1220.53
1197.47
1195.21
1193.1
1236.72
1266.81
1194.96
1148.99
1143.01
1144.25
1155.43
1158.97
1151.79
1102.08
1099.91
1099.15
1096.67
1094.77
1092.01
1084.25
1080.95
1081.31
1079.45
1076.39
1076.08
1078.51
1081.33
1084.73
1088.28
1091.97
1095.33
1098.08
1100.83
1104.95
1110.4
1119.82
1134.52
1089.48
1085.95
1073.03
1060.93
1041.89
1032.24
1028
1033.41
1027.88
1016.05
1014.58
1029.07
1053.22
1074.33
1083.64
1089.96
1093.63
1095
1098.27
1107.53
1114.6
1129.7
1155.45
891.963
864.877
840.162
816.698
796.16
781.078
785.593
784.187
794.466
798.999
790.608
784.489
806.366
839.203
874.698
921.663
952.47
977.465
1001.62
1016.91
1022.29
1013.97
1010.14
723.644
727.148
723.687
715.505
716.55
721.57
719.734
725.828
701.522
686.369
685.116
701.504
698.118
702.319
702.514
704.168
715.606
723.45
731.136
737.68
742.848
759.09
789.22
730.149
729.687
728.538
725.286
723.917
721.785
708.59
685.756
694.386
693.151
701.016
697.421
694.769
692.994
692.044
692.85
695.633
699.135
703.19
709.755
719.755
727.982
739.458
732.361
731.778
730.533
728.686
726.189
722.604
715.132
700.095
703.29
702.989
695.927
691.642
689.076
687.672
687.973
689.874
693.105
697.506
702.714
709.305
722.078
731.166
733.828
737.376
735.382
733.62
731.003
728.16
728.985
727.832
714.896
693.816
670.833
649.155
629.353
619.166
622.047
636.795
657.211
680.066
700.247
705.798
709.776
718.267
733.689
766.622
694.046
690.991
668.481
633.199
595.651
551.222
489.824
395.707
290.973
218.622
167.931
137.935
124.928
120.059
127.22
149.244
187.426
242.925
324.53
397.853
458.88
518.759
572.018
156.346
150.853
142.959
132.273
119.388
94.9888
54.8789
20.1261
4.12322
3.89853
4.92131
4.47328
1.7547
1.08127
1.03043
1.11077
1.3219
3.26902
7.22756
21.0518
39.3641
55.98
77.6347
4.0322
4.98711
3.98628
1.40965
1.15987
3.76085
4.38105
1.30793
0.312455
0.284801
0.24489
0.223125
0.255718
0.317063
0.297156
0.21659
0.201776
0.194976
0.218118
0.257974
0.30641
0.405221
0.539679
-0.0835184
-0.0900225
-0.0778132
-0.0564553
-0.0501842
-0.0501944
-0.00583132
0.0882616
0.165301
0.182244
0.191792
0.186254
0.190692
0.199187
0.195985
0.192557
0.185764
0.157796
0.116292
0.114863
0.105835
0.121902
0.13849
-0.0474117
-0.0514224
-0.0485609
-0.0411463
-0.0371163
-0.0255136
0.00360809
0.0438387
0.0824068
0.115298
0.137434
0.1468
0.159102
0.164218
0.158254
0.167867
0.17244
0.148505
0.107637
0.175754
0.250531
0.24452
0.226694
-0.0222015
-0.0245017
-0.0226152
-0.0190658
-0.0127593
-0.00501562
0.0150985
0.0413822
0.0734118
0.0966605
0.113014
0.120783
0.124941
0.124593
0.122494
0.137412
0.136055
0.118775
0.180382
0.234898
0.293167
0.245054
0.163525
-0.0106811
-0.0110705
-0.00919217
-0.0065783
-0.00220289
0.00718681
0.0219063
0.041327
0.0623326
0.0790344
0.0914499
0.0982439
0.101478
0.102315
0.101146
0.100303
0.100488
0.115808
0.205636
0.213806
0.141999
0.0618427
0.0191022
-0.00358045
-0.00323937
-0.00135899
0.00126302
0.00583169
0.0137207
0.024911
0.0385213
0.052917
0.0654165
0.0751562
0.0815508
0.0849836
0.0860268
0.0848216
0.0819095
0.0837996
0.100949
0.0876659
0.0526635
0.0416445
0.029927
0.0184125
0.00182616
0.00250898
0.00426119
0.0072549
0.0114118
0.0178115
0.0263146
0.036275
0.0466687
0.056078
0.0636646
0.0689606
0.0720227
0.0729913
0.0719885
0.0693825
0.070099
0.063599
0.052822
0.0463641
0.0496248
0.0456682
0.0171184
0.00589344
0.00661646
0.00824315
0.0109798
0.0148895
0.0202045
0.0268112
0.0342922
0.0419714
0.0490171
0.0548178
0.05903
0.0615187
0.0622897
0.0613983
0.0590596
0.0560007
0.050877
0.0450146
0.0414093
0.103004
0.142818
0.0147448
0.00907456
0.00974856
0.0112404
0.013648
0.0170046
0.0213375
0.026512
0.0322163
0.0379821
0.0432809
0.0476928
0.0509366
0.0528432
0.0533603
0.0524893
0.0502941
0.0469038
0.042198
0.0371303
0.0333893
0.100816
0.148164
0.0975699
0.0114041
0.0120056
0.0133167
0.0153624
0.0181502
0.0216428
0.0257024
0.0300834
0.0344487
0.0384403
0.0417781
0.0442118
0.0455922
0.0458445
0.0449385
0.0428792
0.0396854
0.0354372
0.0307262
0.0258702
0.0240452
0.110424
0.177404
0.0130648
0.013564
0.0146641
0.016358
0.0186322
0.0214227
0.0246021
0.0279702
0.0312785
0.0342685
0.0367908
0.0385564
0.0394873
0.039498
0.0385426
0.0366038
0.0336829
0.0298268
0.0256646
0.0224663
0.0170177
0.00922094
0.00989792
0.0141394
0.0145406
0.0154442
0.0168228
0.0186536
0.0208651
0.0233426
0.0259246
0.0284253
0.0306633
0.0325008
0.03375
0.0343182
0.0341289
0.0331338
0.0313082
0.0286448
0.0251585
0.0211815
0.0183305
0.0145581
0.00705616
-0.00214116
0.0147428
0.015056
0.0157869
0.016894
0.0183514
0.0200886
0.0220052
0.0239708
0.0258441
0.027493
0.0288024
0.0296404
0.0299208
0.0295763
0.0285615
0.0268515
0.0244366
0.0213208
0.0175656
0.0136674
0.0112638
0.00739235
0.00142158
0.014974
0.0152109
0.0157939
0.0166728
0.0178208
0.0191721
0.0206396
0.0221191
0.0235011
0.0246903
0.0255904
0.026106
0.0261634
0.0257052
0.0246917
0.0231007
0.0209243
0.0181678
0.0148473
0.01103
0.00729265
0.00577793
0.00236525
0.0149121
0.0150852
0.0155444
0.0162343
0.0171287
0.0181673
0.0192758
0.0203717
0.0213694
0.0221986
0.0227822
0.0230492
0.0229388
0.0224032
0.0214089
0.0199373
0.0179833
0.0155558
0.012677
0.00938185
0.00576117
0.00219701
-0.000155938
0.0146248
0.0147442
0.0151013
0.0156365
0.0163238
0.0171101
0.0179318
0.0187256
0.0194242
0.019972
0.020312
0.0203905
0.0201579
0.019575
0.0186141
0.0172599
0.0155099
0.0133741
0.0108766
0.00805536
0.00496782
0.00170009
-0.00136536
0.014162
0.0142374
0.0145127
0.0149228
0.0154441
0.0160302
0.0166169
0.0171741
0.0176414
0.0179728
0.0181275
0.0180654
0.0177472
0.0171409
0.0162239
0.0149839
0.0134197
0.0115417
0.00937199
0.00694685
0.00431921
0.00156579
-0.00122668
0.0135655
0.0136054
0.0138153
0.0141283
0.014531
0.0149626
0.0153362
0.0157099
0.0160001
0.016168
0.0161854
0.0160206
0.0156456
0.0150346
0.0141689
0.0130386
0.0116434
0.00999288
0.00810664
0.00601509
0.00376109
0.00139966
-0.00100306
0.0128628
0.0128755
0.013041
0.0133109
0.0136978
0.0139133
0.014092
0.014325
0.0144824
0.0145283
0.0144499
0.0142117
0.0138027
0.0132011
0.0123914
0.0113655
0.0101233
0.00867329
0.00703195
0.0052251
0.00328752
0.00126423
-0.000798274
0.0120776
0.0120775
0.012276
0.0127881
0.0134135
0.0127792
0.0128823
0.0130093
0.0130699
0.0130341
0.0128842
0.0126013
0.0121769
0.0115951
0.0108439
0.00991655
0.00881283
0.00753958
0.00611061
0.00454737
0.00287855
0.00113775
-0.000631507
0.0112222
0.0112483
0.0117916
0.0137934
0.0130761
0.0116212
0.0116991
0.0117527
0.0117466
0.0116562
0.0114647
0.0111592
0.0107349
0.0101797
0.00948728
0.00865232
0.007674
0.0065573
0.00531345
0.00395985
0.00251925
0.00101944
-0.00050353
0.0103089
0.0104381
0.0113767
0.0132563
0.0118612
0.0105093
0.010538
0.0105467
0.0104998
0.0103781
0.0101671
0.00985387
0.0094509
0.00892438
0.00828971
0.00754083
0.00667608
0.00569864
0.00461715
0.00344553
0.00220256
0.000910052
-0.000404831
0.0093508
0.00962034
0.0108264
0.0122758
0.00970279
0.00939963
0.00939909
0.00938253
0.00931725
0.00918677
0.00897289
0.0086738
0.00828614
0.00780107
0.00722444
0.00655591
0.00579425
0.00494128
0.00400312
0.00299044
0.00191805
0.000804401
-0.000329789
0.00833464
0.00879551
0.0112142
0.0100684
0.00834425
0.00829536
0.00828591
0.00825718
0.00819036
0.0080661
0.00786953
0.00758646
0.00722955
0.00678962
0.0062704
0.0056765
0.00500853
0.00426724
0.00345644
0.00258405
0.00166173
0.000702221
-0.00027455
0.00730818
0.00798386
0.0102914
0.00866779
0.00729103
0.00720519
0.00720128
0.0071745
0.00711742
0.00700772
0.00683334
0.00658745
0.00626191
0.005869
0.00540882
0.00488521
0.00430258
0.00366191
0.00296509
0.00221723
0.00142655
0.000604532
-0.000235728
0.00624756
0.00719866
0.00936494
0.007664
0.00619094
0.00615856
0.00616188
0.00614009
0.00609847
0.0060082
0.00585887
0.00564554
0.00536464
0.00502142
0.00462165
0.00416706
0.00366297
0.0031134
0.00251924
0.00188318
0.00121086
0.000508456
-0.000208339
0.0052146
0.00642098
0.00845976
0.00612691
0.00511293
0.00515839
0.00516536
0.0051574
0.00513384
0.00506485
0.00494194
0.00476276
0.00452641
0.0042329
0.00389381
0.00350769
0.00307856
0.00261206
0.00211109
0.00157642
0.00101093
0.000420161
-0.000188049
0.00418274
0.00541394
0.00771611
0.00468171
0.00409202
0.00420793
0.00421842
0.00422865
0.00422303
0.00417442
0.00407725
0.00393123
0.0037374
0.00349706
0.00321422
0.0028942
0.00253843
0.00215032
0.00173441
0.00129259
0.00082536
0.000333356
-0.000174085
0.00321423
0.00417582
0.00648714
0.00496404
0.00321249
0.00332428
0.00332612
0.00335566
0.00336391
0.0033327
0.00325903
0.00314392
0.00298952
0.00279847
0.00257257
0.00231664
0.00203188
0.00172057
0.00138441
0.00102856
0.000652039
0.0002548
-0.000164056
0.00230971
0.00317125
0.00591689
0.00440669
0.00261619
0.00249761
0.00249616
0.00253733
0.00255249
0.00253435
0.00248102
0.00239377
0.00227491
0.00212803
0.00196098
0.00176793
0.00155114
0.00131336
0.00105678
0.000782009
0.000492284
0.000183412
-0.000155562
0.00147219
0.00332992
0.00482186
0.00360724
0.00186373
0.00168904
0.00171828
0.00176591
0.00178382
0.00177437
0.00173812
0.00167578
0.00158796
0.00147581
0.001374
0.00124301
0.00109157
0.000924048
0.000743155
0.000549522
0.000341948
0.000116767
-0.000133962
0.000692274
0.00253828
0.00303335
0.00180447
0.00095944
0.000971362
0.00101047
0.00104409
0.00105783
0.00105367
0.0010329
0.00099609
0.000942232
0.00086672
0.000815968
0.000739407
0.000648474
0.000547861
0.000439448
0.000323649
0.000197753
5.46431e-05
-0.000107335
2.70576e-05
0.000538917
0.00145061
0.00026352
0.000156894
0.000305545
0.000324313
0.000349554
0.000355784
0.000354658
0.000348645
0.000339635
0.000331463
0.000332073
0.000288297
0.000252538
0.000218216
0.00018256
0.000144667
0.000103666
5.71723e-05
-3.70222e-06
-8.70556e-05
1141.78
1139.93
1131.59
1135.77
1153.83
1157.8
1163.5
1166.51
1091.9
1175.22
1162.95
1176.67
800.773
859.524
936.718
979.042
750.97
754.373
736.351
753.197
733.224
731.645
735.421
742.93
773.567
764.969
748.964
748.986
621.36
662.368
707.232
737.964
102.239
118.095
133.381
160.268
0.423879
0.389185
0.345839
0.459274
0.171288
0.207056
0.158163
0.142049
0.242341
0.232652
0.223467
0.185413
0.0595145
0.0499654
0.0334402
0.0280018
0.009431
0.00261574
-0.00327686
-0.00849869
0.0117809
0.00562336
-0.00223981
-0.00838114
0.00986045
0.00624487
0.00263141
-0.00188457
0.00907683
0.0307336
0.0686868
0.0831258
0.0444277
0.13297
0.210614
0.198136
0.132709
0.189996
0.233978
0.228381
0.133186
0.160273
0.132939
0.169425
-0.00898163
-0.0128668
-0.0156553
-0.0150004
-0.00390533
-0.00882866
-0.0122937
-0.0148989
-0.0016685
-0.00468425
-0.00917442
-0.0113882
-0.00254352
-0.00389512
-0.0062783
-0.00965808
-0.00353079
-0.00460564
-0.00616624
-0.00823957
-0.00323441
-0.00454722
-0.00587497
-0.00716442
-0.00278139
-0.00390623
-0.00500604
-0.00609623
-0.00231639
-0.00327628
-0.00422251
-0.00515878
-0.00193229
-0.00275802
-0.00357203
-0.0043797
-0.0016214
-0.00233055
-0.00303497
-0.00373376
-0.00136938
-0.00198396
-0.00259195
-0.00319692
-0.00116014
-0.0016891
-0.00221781
-0.00274329
-0.000990538
-0.0014493
-0.0019053
-0.00236179
-0.000851044
-0.00124471
-0.00164063
-0.00203554
-0.000735746
-0.00107491
-0.0014131
-0.00175412
-0.0006345
-0.000921435
-0.00121197
-0.00150488
-0.000550321
-0.000794552
-0.00103938
-0.00129002
-0.000475316
-0.000677269
-0.000885107
-0.00109495
-0.000405634
-0.000570769
-0.000737797
-0.000909854
-0.000326519
-0.000454218
-0.000588165
-0.000722885
-0.000248664
-0.000344122
-0.000440457
-0.000540389
-0.00016609
-0.000221796
-0.000284379
-0.000348771
1183.16
1194.52
1198.01
1201.04
1226.86
1212.51
1199.92
1196.6
1202.73
1254.24
1216.98
1151.82
1136.97
1142.18
1146.26
1148.51
1157.31
1143.91
1107.74
1176.74
1194.74
1197.73
1195.97
1178.18
1200.87
1202.87
1214.85
1205.71
1106.72
1128.9
1153.94
1146.02
1138.98
1136.76
1149.78
1176.73
1150.35
1133.32
1197.14
1236.59
1208.94
1160.77
1113.79
1177.47
1188.46
1113.59
1026.05
1026.52
1064.71
1090.36
1109.25
1098.83
1116.46
1134.29
1129.59
1161.58
1129.83
1007.89
950.674
957.176
961.287
966.638
913.049
896.247
1002.75
1027.43
977.098
839.45
813.08
804.029
819.204
846.818
832.279
842.485
892.53
942.701
785.033
802.589
806.679
816.144
807.937
764.001
789.188
792.168
780.925
773.954
769.138
759.345
759.969
763.767
754.686
756.855
745.013
722.986
721.66
747.392
751.984
766.121
779.22
779.198
776.299
778.674
780.817
788.722
785.364
772.139
762.784
754.254
749.064
735.516
722.332
711.311
719.62
739.999
752.843
757.417
765.175
783.871
798.555
783.675
786.987
787.854
793.758
793.904
785.504
766.465
751.922
737.657
727.562
689.502
644.612
564.974
454.369
754.616
770.777
776.861
797.896
823.511
816.218
795.448
796.298
797.499
804.483
810.161
781.697
695.76
561.499
371.495
236.519
150.488
86.1512
74.4636
215.391
304.575
426.168
528.443
622.463
716.85
790.048
792.324
782.658
731.81
610.702
410.988
180.44
78.5566
49.8817
14.9987
0.304206
0.287022
0.302081
3.54975
12.6077
26.1368
57.738
103.645
156.839
222.358
268.469
266.397
189.606
95.0621
35.2056
10.1098
1.08598
0.0976809
0.12801
0.222114
0.240527
0.262764
0.103014
0.0921014
0.235113
4.37461
8.82329
3.01873
4.76242
12.8457
17.8993
18.7256
11.4579
6.5886
4.69547
0.125833
0.114765
0.166152
0.314154
0.240108
0.270849
0.0777297
0.0385088
0.000971808
-0.102314
-0.176025
-0.156683
-0.199385
-0.217602
-0.212279
-0.187132
-0.141452
1.11217
0.790661
0.23138
0.120089
0.299312
0.332075
0.291886
0.31315
0.00530608
-0.0210476
-0.0405075
-0.0849026
-0.135023
-0.153283
-0.164188
-0.174785
-0.171676
-0.15288
-0.116342
-0.0749842
-0.0417379
0.0175648
0.132587
0.346897
0.337875
0.222312
0.277696
-0.0171059
-0.0328386
-0.0541434
-0.078302
-0.0996572
-0.111797
-0.120356
-0.113577
-0.108457
-0.104223
-0.0835587
-0.0420138
0.0292395
0.0902773
0.252371
0.345282
0.23834
0.155997
0.257085
-0.0167324
-0.0291438
-0.0410486
-0.0546545
-0.0686629
-0.0692082
-0.0630678
-0.0443669
-0.0483851
-0.0567849
-0.0352495
-0.00572908
0.0289739
0.120754
0.160391
0.12135
0.0815526
0.168235
0.241449
-0.0106524
-0.0207555
-0.0260506
-0.00739438
0.0249694
0.0402129
0.0322547
0.0118521
-0.0213135
-0.0586341
-0.0450782
0.0075755
0.146694
0.16267
0.0577452
0.0515335
0.0742148
0.187247
0.214606
0.0655565
0.0592521
0.0477204
0.0710147
0.088309
0.0810353
0.0733002
-0.0116741
-0.056444
-0.0501881
-0.0385772
0.117821
0.145549
0.156645
0.0570708
0.0804222
0.163033
0.15309
0.110261
0.166624
0.138815
0.113821
0.112083
0.10852
0.079992
0.0712985
0.0631095
0.00502232
-0.0336375
-0.0213335
0.061172
0.148317
0.166443
0.192223
0.188447
0.124089
0.0439741
0.0478357
0.223335
0.170615
0.105024
0.0999114
0.129008
0.135876
0.113277
0.0828581
0.0732535
0.0654514
0.0457966
0.0186528
0.0251133
0.054663
0.091506
0.0541439
0.041973
0.0354617
0.0314851
0.183217
0.119562
0.0959483
0.0928009
0.0731376
0.0160113
0.0380746
0.0172098
0.0535064
0.0786699
0.0942173
0.101701
0.0451906
0.0503328
0.0436078
0.0230618
0.0486246
0.0412668
0.0299211
-0.0163957
0.0312085
0.013742
0.0126622
0.00157112
0.0226504
0.0222862
-0.0194013
-0.0262713
-0.0185175
0.0413972
0.0716147
0.0800324
0.0595751
0.0281539
0.0404719
0.0452404
0.0567601
0.0536673
-0.0189138
-0.023309
-0.0257845
-0.0256897
-0.0224722
-0.0262193
-0.0269316
-0.023469
-0.0242486
-0.0311275
-0.0300332
-0.0230828
-0.00877082
0.0244877
0.0351564
0.0389647
0.0406327
0.0329394
0.0495571
-0.0152283
-0.0196286
-0.023174
-0.0261628
-0.0288027
-0.0309541
-0.0317647
-0.0315206
-0.0303758
-0.0281805
-0.0267809
-0.0247679
-0.0223109
-0.0191915
0.00177518
0.03531
0.0120045
0.000170055
0.0373623
-0.0127432
-0.0164698
-0.0196818
-0.022402
-0.0246617
-0.0263199
-0.0272404
-0.027419
-0.0270002
-0.0260245
-0.0246646
-0.0229233
-0.0207526
-0.018257
-0.0155869
-0.0113872
-0.00717489
-0.00622555
0.0041292
-0.0108399
-0.0140103
-0.0167832
-0.0191115
-0.0210514
-0.0225446
-0.0235198
-0.0239567
-0.023899
-0.0234002
-0.0224878
-0.0211865
-0.0195102
-0.017509
-0.0153077
-0.0130092
-0.0106891
-0.00894392
-0.00158307
-0.00926895
-0.0119469
-0.0143231
-0.01638
-0.0181093
-0.019487
-0.0204752
-0.0210627
-0.0212532
-0.0210698
-0.0205283
-0.0196367
-0.0184009
-0.0168587
-0.0151349
-0.0133429
-0.0117078
-0.010007
-0.00366305
-0.00787567
-0.0101735
-0.0122588
-0.0140896
-0.015654
-0.0169397
-0.0179314
-0.018616
-0.0189874
-0.0190516
-0.0188167
-0.0182758
-0.0174148
-0.0162518
-0.0148986
-0.013453
-0.0119747
-0.0100887
-0.0037374
-0.00669459
-0.00869148
-0.0105232
-0.0121576
-0.013584
-0.0147947
-0.0157802
-0.0165297
-0.0170341
-0.0172918
-0.0173006
-0.0170462
-0.0164982
-0.0156463
-0.0145939
-0.0132921
-0.0119307
-0.0085092
-0.00492051
-0.00570816
-0.00745009
-0.00906327
-0.0105266
-0.0118318
-0.0129731
-0.0139438
-0.014734
-0.0153336
-0.0157353
-0.0159293
-0.0158955
-0.0155921
-0.0149875
-0.0141775
-0.013028
-0.0113202
-0.00769073
-0.00762337
-0.00488678
-0.00640787
-0.0078317
-0.009144
-0.0103386
-0.0114116
-0.012357
-0.0131656
-0.0138263
-0.0143292
-0.0146562
-0.0147763
-0.0146451
-0.0142306
-0.0136213
-0.01278
-0.0107283
-0.00731419
-0.00889667
-0.00419663
-0.00552812
-0.0067865
-0.00796317
-0.00905407
-0.0100565
-0.0109645
-0.0117686
-0.0124555
-0.0130189
-0.0134294
-0.0136512
-0.0136244
-0.0133325
-0.012866
-0.0122825
-0.0109533
-0.00799486
-0.0100774
-0.0036149
-0.00478058
-0.00589255
-0.00694524
-0.00793624
-0.00886304
-0.00971971
-0.0104943
-0.0111658
-0.0117408
-0.0122001
-0.0124722
-0.0124665
-0.0122454
-0.0119421
-0.0115121
-0.0110253
-0.0102324
-0.0100711
-0.00311923
-0.00413956
-0.00511983
-0.00605707
-0.0069499
-0.00779575
-0.00858863
-0.0093112
-0.00991561
-0.0104326
-0.0109434
-0.011217
-0.0112344
-0.0110325
-0.010824
-0.0106183
-0.0105954
-0.01013
-0.00949477
-0.002694
-0.00358391
-0.00444366
-0.00527141
-0.00606654
-0.00682612
-0.00754354
-0.00819946
-0.00871157
-0.00902464
-0.00954833
-0.00988159
-0.00990591
-0.00962538
-0.00955079
-0.00962939
-0.00922006
-0.00727224
-0.00883054
-0.00232309
-0.00309603
-0.00384574
-0.00456987
-0.00526873
-0.00593964
-0.0065767
-0.00716016
-0.00762401
-0.00761354
-0.0070749
-0.00766161
-0.00845798
-0.00814014
-0.00707599
-0.00672788
-0.0052836
-0.0057353
-0.00835541
-0.00199879
-0.00266656
-0.00331582
-0.00394325
-0.00454859
-0.00513019
-0.00568128
-0.00618735
-0.00662936
-0.00679278
-0.00372538
0.00319034
-0.00369318
-0.00709441
-0.00591644
-0.00391903
-0.00400071
-0.00582624
-0.00807026
-0.00171074
-0.00228454
-0.00284045
-0.0033761
-0.00389079
-0.00438364
-0.0048499
-0.00527901
-0.00565551
-0.00587972
-0.00391576
0.00661847
0.00712986
-0.00410281
-0.00553994
-0.00424757
-0.0030671
-0.00624889
-0.0075666
-0.00144889
-0.00193338
-0.00240134
-0.00284988
-0.00327776
-0.00368444
-0.00406715
-0.00441804
-0.00472725
-0.00496928
-0.00469839
0.00143567
0.00890273
0.00895309
-0.00274944
-0.00467808
-0.00460151
-0.00611092
-0.00241035
-0.00119806
-0.00159793
-0.00198221
-0.00234833
-0.00269408
-0.00301886
-0.00332139
-0.00359779
-0.00383886
-0.00404396
-0.00420429
-0.00404121
0.00521935
0.0116992
0.010401
-0.00154641
-0.00569242
-0.00552877
0.00222246
-0.000950783
-0.00126917
-0.00157352
-0.00186206
-0.00213056
-0.00237798
-0.00260401
-0.00280797
-0.00298788
-0.00314001
-0.00327831
-0.00338335
-0.00323887
0.00773394
0.0144019
0.00888548
-0.00398439
-0.00572421
0.00703786
-0.00071011
-0.000947843
-0.0011743
-0.00138599
-0.00157834
-0.00174954
-0.00189967
-0.00203058
-0.00214481
-0.00224407
-0.00233092
-0.00243668
-0.0025567
-0.00298213
0.00649061
0.0124845
0.000966811
-0.00581521
0.00754523
-0.000458639
-0.000614984
-0.000761261
-0.000892933
-0.00100604
-0.00109818
-0.00116968
-0.00122379
-0.00126709
-0.00130918
-0.00136294
-0.00146912
-0.00164811
-0.00221158
-0.00364132
-0.000337629
0.00609547
-0.000758991
0.00352352
)
;

boundaryField
{
    leftWall
    {
        type            fixedFluxPressure;
        gradient        uniform 0;
        value           nonuniform List<scalar> 
50
(
5155.12
5154.36
5153.38
5152.02
5138.53
3281.55
1099.52
1100.29
1099.91
1089.48
891.963
723.644
730.149
732.361
737.376
694.046
156.346
4.0322
-0.0835184
-0.0474117
-0.0222015
-0.0106811
-0.00358045
0.00182616
0.00589344
0.00907456
0.0114041
0.0130648
0.0141394
0.0147428
0.014974
0.0149121
0.0146248
0.014162
0.0135655
0.0128628
0.0120776
0.0112222
0.0103089
0.0093508
0.00833464
0.00730818
0.00624756
0.0052146
0.00418274
0.00321423
0.00230971
0.00147219
0.000692274
2.70576e-05
)
;
    }
    rightWall
    {
        type            fixedFluxPressure;
        gradient        uniform 0;
        value           nonuniform List<scalar> 
50
(
2907.41
2849.29
2260.9
1222.02
1116.8
1118.11
1107.2
1102.08
1107.74
1133.32
1129.83
942.701
721.66
739.999
454.369
74.4636
0.302081
0.262764
0.270849
0.31315
0.277696
0.257085
0.241449
0.214606
0.110261
0.0478357
0.0314851
0.0299211
0.0536673
0.0495571
0.0373623
0.0041292
-0.00158307
-0.00366305
-0.0037374
-0.00492051
-0.00762337
-0.00889667
-0.0100774
-0.0100711
-0.00949477
-0.00883054
-0.00835541
-0.00807026
-0.0075666
-0.00241035
0.00222246
0.00703786
0.00754523
0.00352352
)
;
    }
    lowerWall
    {
        type            fixedFluxPressure;
        gradient        uniform 0;
        value           nonuniform List<scalar> 
62
(
5155.12
5156.39
5159.31
5164.97
5174.46
5188.81
5208.87
5235.5
5269.55
5311.77
5362.95
5423.73
5494.45
5574.97
5664.59
5761.91
5864.08
5966.95
6066.04
6156.52
6232.4
6287.45
6316.66
6316.66
6322.36
6333.64
6350.65
6374.16
6394.38
6116.59
2962.6
1141.78
1139.93
1131.59
1135.77
3120.81
3066.7
2541.18
1325.7
1216.46
1226.16
1227.1
1215.28
3120.81
3175.88
3252.8
3308.55
3324.2
3308.55
3270.05
3221.09
3174.87
3137.4
3111.87
3093.71
3078.97
3058.29
3027.23
2991.18
2951.64
2922.01
2907.41
)
;
    }
    atmosphere
    {
        type            totalPressure;
        rho             rho;
        psi             none;
        gamma           1;
        p0              uniform 0;
        value           nonuniform List<scalar> 
46
(
0
0
0
0
0
0
-3.04501e-06
-6.42751e-06
-7.8725e-06
-8.00863e-06
-7.27782e-06
-6.08926e-06
-4.69465e-06
-3.28942e-06
-1.95124e-06
-8.75898e-07
-1.66615e-07
0
0
0
0
-1.88198e-06
-2.92879e-05
-8.58195e-05
-0.000133049
-0.000186407
-0.000238618
-0.000319815
-0.000439349
-0.000545374
-0.00063507
-0.000705252
-0.00075456
-0.000783033
-0.000793446
-0.00079203
-0.000786902
-0.000787371
-0.000808155
-0.000881796
-0.00117511
-0.00170933
0
0
0
0
)
;
    }
    defaultFaces
    {
        type            empty;
    }
}


// ************************************************************************* //
