/*--------------------------------*- C++ -*----------------------------------*\
| =========                 |                                                 |
| \\      /  F ield         | OpenFOAM: The Open Source CFD Toolbox           |
|  \\    /   O peration     | Version:  2312                                  |
|   \\  /    A nd           | Website:  www.openfoam.com                      |
|    \\/     M anipulation  |                                                 |
\*---------------------------------------------------------------------------*/
FoamFile
{
    version     2.0;
    format      ascii;
    arch        "LSB;label=32;scalar=64";
    class       volVectorField;
    location    "5.7";
    object      U;
}
// * * * * * * * * * * * * * * * * * * * * * * * * * * * * * * * * * * * * * //

dimensions      [0 1 -1 0 0 0 0];

internalField   nonuniform List<vector> 
2268
(
(0.00602922 -0.00349032 0)
(0.0104155 -0.0015884 0)
(0.0147354 -0.00119659 0)
(0.0189292 -0.00105768 0)
(0.0230693 -0.0010055 0)
(0.0272746 -0.00100891 0)
(0.031707 -0.00106659 0)
(0.0365218 -0.00115508 0)
(0.0417489 -0.00121793 0)
(0.0471893 -0.00121396 0)
(0.0524964 -0.00112822 0)
(0.0573226 -0.000969698 0)
(0.0613825 -0.000747918 0)
(0.0644226 -0.00047111 0)
(0.0662374 -0.000163064 0)
(0.0667158 0.000165933 0)
(0.0656275 0.000611753 0)
(0.0623012 0.00131305 0)
(0.0558634 0.00220572 0)
(0.0460315 0.00308891 0)
(0.0332173 0.00383371 0)
(0.0181993 0.00419261 0)
(0.00303978 0.00228991 0)
(0.00148274 -0.00472634 0)
(0.00633024 -0.00305587 0)
(0.0105592 -0.00299659 0)
(0.0148837 -0.0029444 0)
(0.0190887 -0.00293962 0)
(0.0233136 -0.00304781 0)
(0.0277824 -0.0032841 0)
(0.0327068 -0.00361289 0)
(0.0381199 -0.00385402 0)
(0.0437926 -0.0038718 0)
(0.049344 -0.00363948 0)
(0.054407 -0.00319123 0)
(0.0586946 -0.00254987 0)
(0.0619496 -0.00173089 0)
(0.0639736 -0.000806588 0)
(0.0647283 0.00017342 0)
(0.0640727 0.00139167 0)
(0.0612467 0.00330368 0)
(0.0552459 0.00564649 0)
(0.0458353 0.00781028 0)
(0.0336069 0.00958556 0)
(0.0191966 0.0106029 0)
(0.00538933 0.0077501 0)
(0.000881261 -0.00629235 0)
(0.00546829 -0.0053669 0)
(0.00954348 -0.00509807 0)
(0.0137285 -0.00492715 0)
(0.0177043 -0.00491552 0)
(0.0216705 -0.00515249 0)
(0.0259175 -0.00561063 0)
(0.0307323 -0.00625359 0)
(0.036143 -0.00671852 0)
(0.0418684 -0.00676937 0)
(0.0474854 -0.00636922 0)
(0.0526104 -0.00557867 0)
(0.0569532 -0.0044488 0)
(0.0602441 -0.00302575 0)
(0.0623012 -0.00146371 0)
(0.0632115 9.969e-05 0)
(0.0630791 0.0020914 0)
(0.0609671 0.00540838 0)
(0.055504 0.00942897 0)
(0.0465502 0.0129888 0)
(0.0348928 0.0158314 0)
(0.02066 0.0173681 0)
(0.00749145 0.0132793 0)
(0.00161062 -0.00759191 0)
(0.00616432 -0.00720708 0)
(0.0104458 -0.00687732 0)
(0.0146115 -0.00657387 0)
(0.0184469 -0.0065099 0)
(0.0222965 -0.00686764 0)
(0.0264833 -0.00760532 0)
(0.0312708 -0.00861896 0)
(0.0366192 -0.00935627 0)
(0.0422344 -0.00945496 0)
(0.0477333 -0.00889548 0)
(0.0527489 -0.00780893 0)
(0.0569853 -0.00624266 0)
(0.0601336 -0.00421854 0)
(0.0619685 -0.00200263 0)
(0.0628236 4.21507e-05 0)
(0.0632023 0.00243532 0)
(0.0618585 0.00715641 0)
(0.0568817 0.0130218 0)
(0.0483853 0.0180393 0)
(0.0374385 0.0222516 0)
(0.0232563 0.0249865 0)
(0.00989762 0.0211434 0)
(0.00240204 -0.0101398 0)
(0.00706531 -0.0100462 0)
(0.0117171 -0.00978338 0)
(0.0161085 -0.00942348 0)
(0.0202036 -0.00933628 0)
(0.0244694 -0.00980472 0)
(0.0291529 -0.0107566 0)
(0.0342342 -0.0119988 0)
(0.0394773 -0.0128784 0)
(0.0447401 -0.0129679 0)
(0.049677 -0.0121406 0)
(0.0540413 -0.0105991 0)
(0.0577278 -0.00845555 0)
(0.0605795 -0.00574067 0)
(0.0621839 -0.0028881 0)
(0.0625858 -0.000613197 0)
(0.0627924 0.00172347 0)
(0.0619577 0.00800443 0)
(0.0575635 0.0158417 0)
(0.0498915 0.0219671 0)
(0.0400217 0.0273357 0)
(0.0261594 0.0314899 0)
(0.0125099 0.0281191 0)
(0.00288393 -0.0142834 0)
(0.00814361 -0.0141086 0)
(0.0135205 -0.0136043 0)
(0.0187212 -0.0129892 0)
(0.0238572 -0.0128336 0)
(0.0291632 -0.0133725 0)
(0.0344572 -0.0142313 0)
(0.0395915 -0.015073 0)
(0.0441479 -0.0154549 0)
(0.0487698 -0.0152335 0)
(0.0529178 -0.014333 0)
(0.0560156 -0.0127657 0)
(0.0577749 -0.0104379 0)
(0.0582684 -0.00710957 0)
(0.0574976 -0.00317464 0)
(0.0559528 3.99534e-05 0)
(0.0546024 0.00298623 0)
(0.0533022 0.00958871 0)
(0.0517766 0.0178447 0)
(0.0482226 0.024692 0)
(0.0407393 0.0314247 0)
(0.0277559 0.037223 0)
(0.014242 0.03606 0)
(0.00465226 -0.0150286 0)
(0.0141981 -0.0141581 0)
(0.0227373 -0.0125483 0)
(0.0312548 -0.0108342 0)
(0.0403389 -0.00964689 0)
(0.0464314 -0.00912949 0)
(0.0458339 -0.00982097 0)
(0.0415258 -0.0114531 0)
(0.0348788 -0.0126393 0)
(0.0337916 -0.0131148 0)
(0.0342046 -0.0121206 0)
(0.0361359 -0.0102547 0)
(0.0388263 -0.00816448 0)
(0.0428604 -0.00537503 0)
(0.0478575 -0.00213194 0)
(0.0503767 0.000395052 0)
(0.0461803 0.00380131 0)
(0.0423943 0.0109765 0)
(0.0423192 0.0200169 0)
(0.0406085 0.028823 0)
(0.0341783 0.0379405 0)
(0.0231282 0.0456814 0)
(0.0125974 0.0469591 0)
(0.00010725 -0.0183732 0)
(0.00349325 -0.0184325 0)
(0.00617335 -0.0175908 0)
(0.0104496 -0.01866 0)
(0.0182874 -0.0196996 0)
(0.0272067 -0.0171521 0)
(0.0328532 -0.0135436 0)
(0.030657 -0.0117442 0)
(0.00995886 -0.0117817 0)
(0.00132179 -0.014054 0)
(-0.0109044 -0.0139904 0)
(-0.0206912 -0.0121873 0)
(-0.0321861 -0.0100639 0)
(-0.0410333 -0.00830538 0)
(-0.041078 -0.00456965 0)
(-0.0405594 0.000885272 0)
(-0.0429297 0.00568103 0)
(-0.0389434 0.00683772 0)
(-0.0254673 0.0151064 0)
(-0.0117373 0.0274704 0)
(-0.00495448 0.0405942 0)
(-0.00474373 0.0501315 0)
(0.000875775 0.0528533 0)
(-0.0251768 0.0095815 0)
(-0.0542808 0.00629865 0)
(-0.0811899 0.00510789 0)
(-0.0964945 0.00238599 0)
(-0.0988502 -0.0008299 0)
(-0.089918 -0.00257624 0)
(-0.0763051 -0.00306829 0)
(-0.0620293 -0.00307505 0)
(-0.0490439 -0.00273731 0)
(-0.0393423 -0.00205081 0)
(-0.0350798 -0.00125533 0)
(-0.0350856 -0.00139158 0)
(-0.0350868 -0.00182888 0)
(-0.0329756 -0.002203 0)
(-0.0291665 -0.00173298 0)
(-0.0236992 -0.00174363 0)
(-0.0155584 -0.00227065 0)
(-0.00564368 -0.00163121 0)
(0.000204983 0.000145817 0)
(-0.0155596 0.0239084 0)
(-0.0461014 0.0172121 0)
(-0.0768168 0.0129191 0)
(-0.0941622 0.00590358 0)
(-0.0977219 -0.00253298 0)
(-0.0907798 -0.00780557 0)
(-0.0780269 -0.00952256 0)
(-0.0635554 -0.00937876 0)
(-0.0502934 -0.00788092 0)
(-0.040487 -0.00476673 0)
(-0.0350966 -0.000304481 0)
(-0.0335788 0.00213247 0)
(-0.0332116 0.00128905 0)
(-0.0324242 -0.000270606 0)
(-0.0299012 -0.00169204 0)
(-0.0245073 -0.00386164 0)
(-0.0158779 -0.00696882 0)
(-0.0100846 -0.00559652 0)
(-0.00329591 -0.00253287 0)
(-0.0270191 0.0292821 0)
(-0.0689027 0.0280429 0)
(-0.0980277 0.0213561 0)
(-0.110233 0.0102733 0)
(-0.111533 -0.00151885 0)
(-0.103894 -0.009847 0)
(-0.0911469 -0.0132501 0)
(-0.0785218 -0.0137563 0)
(-0.0692522 -0.0118619 0)
(-0.0625288 -0.00801789 0)
(-0.0538579 -0.00390443 0)
(-0.0446234 -0.00208232 0)
(-0.0390046 -0.00275852 0)
(-0.0342504 -0.00337862 0)
(-0.0256978 -0.00526396 0)
(-0.0175756 -0.00753839 0)
(-0.0160323 -0.00882267 0)
(-0.0231057 -0.00707054 0)
(-0.00921767 -0.007581 0)
(-0.0833283 0.0767014 0)
(-0.119704 0.0578256 0)
(-0.147147 0.0331409 0)
(-0.151919 0.0106257 0)
(-0.145357 -0.00660499 0)
(-0.131214 -0.0174682 0)
(-0.117653 -0.0203874 0)
(-0.108763 -0.0184357 0)
(-0.104112 -0.0120688 0)
(-0.0896664 -0.00679413 0)
(-0.0470216 -0.00621831 0)
(0.0037369 -0.0015762 0)
(-0.00248833 -0.00264923 0)
(-0.0163099 -0.00442865 0)
(0.00727076 -0.00907565 0)
(-0.00612467 -0.0115863 0)
(-0.0390472 -0.000315655 0)
(-0.0182738 -0.00378665 0)
(0.012907 -0.0138581 0)
(-0.0983981 0.113217 0)
(-0.105884 0.0706757 0)
(-0.109865 0.037072 0)
(-0.088579 0.00765747 0)
(-0.0650855 -0.0126055 0)
(-0.0943272 -0.0181017 0)
(-0.144754 -0.0225233 0)
(-0.164528 -0.0221526 0)
(-0.151031 -0.022105 0)
(-0.102142 -0.0335443 0)
(-0.024063 -0.0573183 0)
(0.0769507 -0.0178376 0)
(0.0624149 0.0103101 0)
(0.0260095 -0.00590004 0)
(0.0586587 -0.0169493 0)
(0.0228789 0.0186474 0)
(-0.0604914 -0.0012394 0)
(0.049323 -0.0451695 0)
(0.0767718 -0.0015531 0)
(-0.0980756 0.146754 0)
(-0.0988872 0.0722236 0)
(-0.108995 0.0271178 0)
(-0.0885746 -0.00501034 0)
(-0.058192 -0.0166875 0)
(-0.0548054 0.0115367 0)
(-0.101691 0.00175232 0)
(-0.122385 -0.0160757 0)
(-0.113461 -0.0314549 0)
(-0.0759281 -0.0579506 0)
(-0.0193248 -0.0988487 0)
(0.0500271 -0.040099 0)
(0.0752179 0.0193793 0)
(0.0564422 -0.00166557 0)
(0.0415219 -0.0176022 0)
(0.0218931 0.040502 0)
(0.0172111 -0.0113352 0)
(0.0443833 -0.0617473 0)
(0.0684762 0.0339225 0)
(-0.0949049 0.18592 0)
(-0.0896768 0.080351 0)
(-0.10876 0.0240889 0)
(-0.0943678 -0.0156038 0)
(-0.0730775 -0.0325585 0)
(-0.0420097 0.0109251 0)
(-0.0666234 0.00981064 0)
(-0.0835377 -0.0141539 0)
(-0.0826402 -0.0359372 0)
(-0.0569584 -0.0745963 0)
(-0.031168 -0.1194 0)
(-0.00595357 -0.0645663 0)
(0.0662827 0.0170099 0)
(0.048497 0.00536663 0)
(0.00977307 -0.0113558 0)
(-0.000111304 0.0489068 0)
(0.0231643 -0.0211145 0)
(0.0346018 -0.0674658 0)
(0.061855 0.054612 0)
(-0.0938796 0.227328 0)
(-0.0790251 0.088553 0)
(-0.0913023 0.0254221 0)
(-0.0846226 -0.0174341 0)
(-0.0838324 -0.0399773 0)
(-0.0523176 0.00376015 0)
(-0.0498585 0.0173494 0)
(-0.0572486 -0.00924067 0)
(-0.0582034 -0.0362091 0)
(-0.042496 -0.0817854 0)
(-0.0549301 -0.118028 0)
(-0.0650296 -0.0773369 0)
(0.0136341 0.00799997 0)
(-0.00931826 0.0153186 0)
(-0.0380366 0.00114601 0)
(-0.0263725 0.0424547 0)
(0.0204228 -0.0388235 0)
(0.0132915 -0.0736068 0)
(0.0487881 0.0711734 0)
(-0.00764605 -0.0218215 0)
(-0.0131883 -0.0227508 0)
(-0.0161688 -0.0203472 0)
(-0.0142826 -0.0214026 0)
(-0.0113545 -0.0206132 0)
(-0.00946354 -0.0131187 0)
(-0.0097171 -0.00112137 0)
(-0.0116559 0.00144204 0)
(-0.0120968 -0.00177586 0)
(-0.0166996 -0.00213819 0)
(-0.027991 0.00121143 0)
(-0.0408242 0.00497082 0)
(-0.0532258 0.00595281 0)
(-0.0632362 0.000134349 0)
(-0.0714992 -0.000829821 0)
(-0.0790094 0.00339047 0)
(-0.0862308 0.00923613 0)
(-0.0957551 0.0105802 0)
(-0.105139 0.0136297 0)
(-0.110826 0.022287 0)
(-0.112781 0.0348657 0)
(-0.109226 0.0423702 0)
(-0.091249 0.0375308 0)
(-0.00386545 0.00197975 0)
(-0.00645331 -0.00573439 0)
(-0.00792189 -0.014842 0)
(-0.0082206 -0.0237025 0)
(-0.0115337 -0.0262184 0)
(-0.0128564 -0.0232451 0)
(-0.00821282 -0.0176864 0)
(-0.00480385 -0.0139907 0)
(-0.007123 -0.0106433 0)
(-0.0130054 -0.00212106 0)
(-0.0248202 0.00327909 0)
(-0.0383579 0.00486071 0)
(-0.0492265 0.004323 0)
(-0.0600529 0.00357312 0)
(-0.0792135 0.00782918 0)
(-0.0939353 0.0134771 0)
(-0.104932 0.0178596 0)
(-0.114246 0.0214548 0)
(-0.121526 0.0240254 0)
(-0.125806 0.0287458 0)
(-0.129657 0.0364526 0)
(-0.135151 0.0417552 0)
(-0.147044 0.0423992 0)
(0.00875934 -0.0113476 0)
(0.0266288 -0.0159122 0)
(0.040448 -0.0178778 0)
(0.0375587 -0.0156401 0)
(0.0271514 -0.0153593 0)
(0.0248985 -0.015855 0)
(0.0272677 -0.0139586 0)
(0.0260487 -0.00438698 0)
(0.00801625 0.0040507 0)
(-0.0230694 0.0168323 0)
(-0.0565766 0.0314117 0)
(-0.0839044 0.0334993 0)
(-0.106974 0.0338641 0)
(-0.126176 0.0309819 0)
(-0.139104 0.0283132 0)
(-0.146998 0.0278315 0)
(-0.151392 0.0273506 0)
(-0.15325 0.0287112 0)
(-0.153465 0.0295906 0)
(-0.152854 0.0354557 0)
(-0.153575 0.0471415 0)
(-0.160592 0.062759 0)
(-0.176592 0.0770965 0)
(0.011488 -0.0392499 0)
(0.0322381 -0.0403585 0)
(0.047675 -0.0299238 0)
(0.0541811 -0.0125416 0)
(0.05556 -0.011592 0)
(0.0540617 -0.0186611 0)
(0.0454266 -0.0135444 0)
(0.01221 0.0155877 0)
(-0.0355069 0.048916 0)
(-0.0824822 0.0643877 0)
(-0.114121 0.0668413 0)
(-0.132039 0.0536366 0)
(-0.141817 0.0481557 0)
(-0.152094 0.0406652 0)
(-0.163653 0.03562 0)
(-0.174992 0.0327163 0)
(-0.184295 0.0283209 0)
(-0.190593 0.0262807 0)
(-0.195009 0.0254142 0)
(-0.19595 0.0308102 0)
(-0.191187 0.0432284 0)
(-0.180138 0.0630518 0)
(-0.165149 0.0801357 0)
(0.0118507 -0.057743 0)
(0.0281189 -0.0544013 0)
(0.0375509 -0.039294 0)
(0.0460642 -0.0213462 0)
(0.0487007 -0.0165156 0)
(0.0407214 -0.0116808 0)
(0.0154796 0.0227953 0)
(-0.01615 0.0713304 0)
(-0.0477807 0.0875058 0)
(-0.0700993 0.088835 0)
(-0.0852108 0.0777324 0)
(-0.0984884 0.0611898 0)
(-0.11406 0.054565 0)
(-0.128719 0.0496978 0)
(-0.142772 0.0465492 0)
(-0.15589 0.0439539 0)
(-0.167119 0.0385591 0)
(-0.176563 0.033558 0)
(-0.184692 0.0299834 0)
(-0.188534 0.0281567 0)
(-0.181996 0.0290151 0)
(-0.165045 0.0401356 0)
(-0.142822 0.0551307 0)
(0.00956474 -0.0769798 0)
(0.0270842 -0.0648578 0)
(0.03697 -0.0430011 0)
(0.04175 -0.0193459 0)
(0.0359975 -0.00380567 0)
(0.0197074 0.0131802 0)
(0.00310384 0.0479664 0)
(-0.0108401 0.0962071 0)
(-0.027753 0.112472 0)
(-0.0443149 0.110316 0)
(-0.0615352 0.101002 0)
(-0.0827386 0.0897787 0)
(-0.103964 0.0816867 0)
(-0.120934 0.0743023 0)
(-0.133124 0.0678107 0)
(-0.141401 0.0613057 0)
(-0.146907 0.0537857 0)
(-0.150406 0.0464445 0)
(-0.153431 0.0405971 0)
(-0.157016 0.0346682 0)
(-0.157922 0.0245142 0)
(-0.156006 0.0217037 0)
(-0.14436 0.0261351 0)
(0.0100546 -0.102147 0)
(0.0347203 -0.0893365 0)
(0.0546927 -0.0626949 0)
(0.0699197 -0.0269888 0)
(0.0694015 0.00494485 0)
(0.051288 0.0251629 0)
(0.0241366 0.051426 0)
(0.00278611 0.0877307 0)
(-0.0173217 0.100042 0)
(-0.0404407 0.094481 0)
(-0.0634016 0.086147 0)
(-0.0858675 0.076303 0)
(-0.105002 0.0660015 0)
(-0.117916 0.0547713 0)
(-0.124175 0.0461315 0)
(-0.124761 0.0400355 0)
(-0.121971 0.0358239 0)
(-0.119664 0.0325643 0)
(-0.116999 0.0307475 0)
(-0.114256 0.0315864 0)
(-0.111958 0.028217 0)
(-0.115593 0.0236572 0)
(-0.119319 0.014757 0)
(0.0101501 -0.102741 0)
(0.0340174 -0.0883458 0)
(0.048911 -0.0581379 0)
(0.0649482 -0.0189168 0)
(0.0805018 0.018034 0)
(0.0910876 0.0473424 0)
(0.0864209 0.0796281 0)
(0.0657414 0.11511 0)
(0.0377294 0.133151 0)
(-0.000349006 0.133074 0)
(-0.0428738 0.127251 0)
(-0.0877067 0.117621 0)
(-0.127579 0.103008 0)
(-0.160347 0.0860744 0)
(-0.180355 0.0694332 0)
(-0.185586 0.0552317 0)
(-0.177264 0.0446423 0)
(-0.163887 0.0377577 0)
(-0.143935 0.0308422 0)
(-0.118912 0.0269019 0)
(-0.0958617 0.0251917 0)
(-0.0819377 0.0241524 0)
(-0.0828029 0.0188717 0)
(0.0260152 -0.116884 0)
(0.079092 -0.106279 0)
(0.130705 -0.0846785 0)
(0.184733 -0.055641 0)
(0.236142 -0.0238417 0)
(0.276246 0.0182973 0)
(0.290681 0.0794679 0)
(0.296067 0.163708 0)
(0.166554 0.255009 0)
(0.0106953 0.250302 0)
(-0.0345855 0.221323 0)
(-0.0561186 0.190767 0)
(-0.0591099 0.18472 0)
(-0.0868393 0.150926 0)
(-0.0961523 0.099399 0)
(-0.118269 0.0706877 0)
(-0.16324 0.0363094 0)
(-0.277927 0.0266579 0)
(-0.375647 -0.00700808 0)
(-0.361846 -0.0195447 0)
(-0.285408 -0.00696175 0)
(-0.226422 0.0121489 0)
(-0.190435 0.0259047 0)
(0.0260323 -0.2442 0)
(0.072159 -0.227017 0)
(0.111307 -0.174444 0)
(0.0619986 -0.117825 0)
(0.0368939 -0.0986013 0)
(0.0940154 -0.0182903 0)
(0.121426 0.0948972 0)
(0.0601722 0.298413 0)
(0.0421112 0.435033 0)
(0.0703564 0.301891 0)
(0.0623962 0.230429 0)
(0.0259635 0.176164 0)
(0.0143039 0.185831 0)
(0.0373909 0.124359 0)
(0.0409868 0.0916604 0)
(0.0344451 0.102897 0)
(0.0373583 0.134945 0)
(0.0255309 0.164953 0)
(0.04447 0.110715 0)
(-0.00426628 0.0316647 0)
(-0.0240409 -0.114674 0)
(-0.00692295 -0.0933087 0)
(0.0130949 -0.0125211 0)
(-0.00283691 -0.252602 0)
(-0.0481296 -0.226561 0)
(-0.0736003 -0.101284 0)
(-0.108228 -0.0659065 0)
(-0.155762 -0.0734282 0)
(-0.185492 -0.024169 0)
(-0.200209 0.0939413 0)
(-0.186901 0.192859 0)
(-0.066553 0.151438 0)
(0.0230873 0.196088 0)
(0.0417661 0.209377 0)
(0.0503736 0.190267 0)
(0.0665925 0.13025 0)
(0.0844122 0.117984 0)
(0.0813135 0.109955 0)
(0.0772809 0.103019 0)
(0.082995 0.0978536 0)
(0.0942066 0.106585 0)
(0.106328 0.085947 0)
(0.115388 0.0369704 0)
(0.146313 -0.0680251 0)
(0.155548 -0.0819944 0)
(0.166254 -0.0172913 0)
(-0.0439349 -0.196342 0)
(-0.0960742 -0.140266 0)
(-0.120304 -0.104776 0)
(-0.13277 -0.0161223 0)
(-0.161204 0.00365184 0)
(-0.175818 0.0323556 0)
(-0.170006 0.108596 0)
(-0.139854 0.176003 0)
(-0.0876971 0.238087 0)
(-0.0503945 0.228532 0)
(-0.00331856 0.197166 0)
(0.0395496 0.166828 0)
(0.0626469 0.13706 0)
(0.0691448 0.115479 0)
(0.0707126 0.103675 0)
(0.0726364 0.0916892 0)
(0.0743787 0.0882807 0)
(0.0746465 0.0954536 0)
(0.0774685 0.0735435 0)
(0.109184 -0.0215663 0)
(0.139751 -0.0932286 0)
(0.159267 -0.0956553 0)
(0.180789 -0.0486283 0)
(-0.0379176 -0.105438 0)
(-0.0805169 -0.0862132 0)
(-0.113172 -0.05953 0)
(-0.127279 -0.0373149 0)
(-0.131359 -0.00807947 0)
(-0.136692 0.0372224 0)
(-0.129061 0.0837552 0)
(-0.107567 0.115944 0)
(-0.0787204 0.133139 0)
(-0.0425473 0.144821 0)
(-0.00609872 0.142894 0)
(0.0227533 0.13175 0)
(0.040378 0.114078 0)
(0.0479829 0.105875 0)
(0.0521546 0.0998429 0)
(0.0542237 0.089447 0)
(0.0498886 0.0901307 0)
(0.0439354 0.0976093 0)
(0.061494 0.0487235 0)
(0.0967272 -0.0512827 0)
(0.112064 -0.111891 0)
(0.121491 -0.109141 0)
(0.130113 -0.0707691 0)
(-0.0196641 -0.0885445 0)
(-0.0472602 -0.0734277 0)
(-0.0699613 -0.0580361 0)
(-0.0879404 -0.0265812 0)
(-0.0981351 0.00141921 0)
(-0.102036 0.0315042 0)
(-0.0949508 0.0633862 0)
(-0.0797292 0.0855875 0)
(-0.0590092 0.10478 0)
(-0.0336148 0.115245 0)
(-0.00921789 0.115676 0)
(0.0103449 0.111838 0)
(0.0239607 0.105508 0)
(0.032927 0.101802 0)
(0.0396302 0.0972965 0)
(0.0418329 0.0924391 0)
(0.0376102 0.0956948 0)
(0.0408562 0.089515 0)
(0.0660329 0.0175852 0)
(0.0773813 -0.0642644 0)
(0.0675645 -0.110409 0)
(0.0552772 -0.0993989 0)
(0.0394702 -0.0614093 0)
(-0.0132676 -0.0422601 0)
(-0.0334744 -0.0353865 0)
(-0.051493 -0.0253168 0)
(-0.066533 -0.00831439 0)
(-0.0742754 0.0118713 0)
(-0.0762243 0.0340616 0)
(-0.0707774 0.0559274 0)
(-0.0602497 0.0736954 0)
(-0.0459783 0.0878036 0)
(-0.0284955 0.0958792 0)
(-0.0111597 0.098142 0)
(0.00368982 0.0975504 0)
(0.015436 0.0955434 0)
(0.0249304 0.0939403 0)
(0.0324817 0.091931 0)
(0.0365573 0.0920674 0)
(0.0386742 0.0927482 0)
(0.0493546 0.0742821 0)
(0.0623814 0.0131574 0)
(0.0494227 -0.0526833 0)
(0.0165979 -0.0866379 0)
(-0.0102452 -0.072646 0)
(-0.030685 -0.0445627 0)
(-0.00924129 -0.0294624 0)
(-0.0246482 -0.0242843 0)
(-0.0378809 -0.0150678 0)
(-0.0492064 -8.03923e-05 0)
(-0.0560145 0.0165222 0)
(-0.0577746 0.0335713 0)
(-0.0538594 0.0496144 0)
(-0.0461497 0.0629596 0)
(-0.035588 0.07359 0)
(-0.022874 0.0806185 0)
(-0.00992907 0.0840906 0)
(0.00190172 0.0853278 0)
(0.012167 0.0854513 0)
(0.0212518 0.085433 0)
(0.0289219 0.0854146 0)
(0.0349331 0.0871484 0)
(0.0406147 0.0850349 0)
(0.0480632 0.0664066 0)
(0.0459891 0.0227275 0)
(0.0188569 -0.0279525 0)
(-0.0182973 -0.0554275 0)
(-0.0389934 -0.0532259 0)
(-0.0552308 -0.0268734 0)
(-0.00689967 -0.0130395 0)
(-0.019198 -0.00993779 0)
(-0.0298205 -0.00257445 0)
(-0.0383336 0.00801489 0)
(-0.0430861 0.0198774 0)
(-0.0440142 0.0324064 0)
(-0.0408899 0.0441519 0)
(-0.0348573 0.0542943 0)
(-0.026704 0.0626486 0)
(-0.0169924 0.0687751 0)
(-0.00686902 0.0726819 0)
(0.00287407 0.0749483 0)
(0.0118728 0.0763075 0)
(0.020197 0.0773361 0)
(0.0277497 0.0783136 0)
(0.0347403 0.0799739 0)
(0.0413014 0.0785486 0)
(0.0456119 0.0677588 0)
(0.0390742 0.0416197 0)
(0.00835392 0.00323876 0)
(-0.0264449 -0.0290009 0)
(-0.0441171 -0.0394947 0)
(-0.0518242 -0.0119345 0)
(-0.00537788 -0.00183765 0)
(-0.0151958 -0.000164696 0)
(-0.0236249 0.00558092 0)
(-0.0299393 0.0135904 0)
(-0.0333455 0.0223331 0)
(-0.0337502 0.0313155 0)
(-0.0311155 0.0399027 0)
(-0.0261979 0.0475975 0)
(-0.0196736 0.0542819 0)
(-0.0119201 0.0595967 0)
(-0.00365117 0.0634355 0)
(0.00459969 0.0660807 0)
(0.0125966 0.0679641 0)
(0.0203139 0.069456 0)
(0.0277454 0.0708223 0)
(0.0350963 0.0723357 0)
(0.042354 0.0726881 0)
(0.0475983 0.0694855 0)
(0.0458316 0.0584189 0)
(0.0278078 0.0362733 0)
(-0.0104071 -0.0021523 0)
(-0.0358271 -0.0253249 0)
(-0.0428925 -0.00836012 0)
(-0.00432958 0.00741111 0)
(-0.012271 0.00809737 0)
(-0.0191378 0.0123215 0)
(-0.0239052 0.0179033 0)
(-0.0263857 0.02398 0)
(-0.0264336 0.0301938 0)
(-0.0240819 0.0364081 0)
(-0.0199366 0.0422035 0)
(-0.0144652 0.0475456 0)
(-0.00800329 0.0521046 0)
(-0.00099448 0.0556503 0)
(0.00619493 0.0583269 0)
(0.0133906 0.0603584 0)
(0.0205909 0.0619566 0)
(0.0278181 0.0633139 0)
(0.0352566 0.0646396 0)
(0.0429895 0.0657073 0)
(0.0502164 0.0660006 0)
(0.0547073 0.0633953 0)
(0.0526546 0.054357 0)
(0.0375262 0.0358107 0)
(-0.000302121 -0.00237666 0)
(-0.0219492 -0.0109221 0)
(-0.00363149 0.0150796 0)
(-0.0102156 0.0150057 0)
(-0.0160175 0.017743 0)
(-0.0197596 0.0212241 0)
(-0.021608 0.0250251 0)
(-0.0213358 0.0290401 0)
(-0.0191096 0.033306 0)
(-0.015475 0.0375959 0)
(-0.0106797 0.04186 0)
(-0.00507361 0.0456933 0)
(0.00105258 0.0489044 0)
(0.0074314 0.051428 0)
(0.0139313 0.0533843 0)
(0.0205755 0.0548644 0)
(0.0274421 0.0559904 0)
(0.034707 0.0569445 0)
(0.0425279 0.0577948 0)
(0.0507864 0.0586236 0)
(0.0588452 0.0585301 0)
(0.0652516 0.054451 0)
(0.0669537 0.047183 0)
(0.0606899 0.0331349 0)
(0.0393606 0.0121446 0)
(-0.00317321 0.0216491 0)
(-0.00884569 0.0209702 0)
(-0.0139218 0.0222356 0)
(-0.01696 0.0238435 0)
(-0.0183191 0.0256429 0)
(-0.0177777 0.0278043 0)
(-0.0155949 0.0304017 0)
(-0.0122208 0.0334722 0)
(-0.00789356 0.0368521 0)
(-0.00286796 0.0400812 0)
(0.0025927 0.0429409 0)
(0.00827381 0.0452511 0)
(0.0141272 0.0470279 0)
(0.0201763 0.0482776 0)
(0.026517 0.0490751 0)
(0.0333103 0.0495232 0)
(0.0407192 0.0497412 0)
(0.0488962 0.0499123 0)
(0.057881 0.0497057 0)
(0.0666458 0.0468864 0)
(0.073689 0.0419351 0)
(0.0780108 0.0344665 0)
(0.078625 0.0275748 0)
(-0.00287386 0.0274515 0)
(-0.00796058 0.0262478 0)
(-0.0125317 0.0260939 0)
(-0.0150625 0.0259539 0)
(-0.0160492 0.025938 0)
(-0.0152594 0.0264048 0)
(-0.0130774 0.0276035 0)
(-0.0098279 0.0296554 0)
(-0.0058038 0.0322971 0)
(-0.00122519 0.0350643 0)
(0.0036859 0.0376135 0)
(0.00876551 0.039734 0)
(0.0139926 0.0413218 0)
(0.0193993 0.0423324 0)
(0.0250777 0.0427804 0)
(0.0311519 0.0427176 0)
(0.0377579 0.042235 0)
(0.0451123 0.0414964 0)
(0.0534411 0.0404831 0)
(0.0620821 0.0381481 0)
(0.0700346 0.0340876 0)
(0.0768581 0.028398 0)
(0.0822277 0.0208119 0)
(-0.00269947 0.0327528 0)
(-0.00739897 0.0310719 0)
(-0.0115986 0.0295122 0)
(-0.0137693 0.0276428 0)
(-0.0144709 0.0259235 0)
(-0.0134886 0.0248408 0)
(-0.0112773 0.0248432 0)
(-0.00810913 0.0260389 0)
(-0.00429966 0.0280861 0)
(-5.61681e-05 0.0304973 0)
(0.00440145 0.0328386 0)
(0.00894019 0.034826 0)
(0.0135682 0.0362652 0)
(0.0183191 0.0370802 0)
(0.0232649 0.0372405 0)
(0.0284978 0.0367684 0)
(0.0341095 0.0357201 0)
(0.0402689 0.0342115 0)
(0.0471671 0.0323325 0)
(0.0546925 0.0298712 0)
(0.0621663 0.0262764 0)
(0.0689931 0.0213833 0)
(0.0752415 0.0160652 0)
(-0.00261846 0.0377404 0)
(-0.00709361 0.0355952 0)
(-0.0110524 0.0325974 0)
(-0.0129541 0.0290673 0)
(-0.0133677 0.02569 0)
(-0.0122532 0.0231745 0)
(-0.0100484 0.0221174 0)
(-0.00696853 0.0225603 0)
(-0.00333129 0.0241374 0)
(0.000653361 0.0263093 0)
(0.00475221 0.0285365 0)
(0.00883001 0.0304648 0)
(0.0129126 0.0318389 0)
(0.017033 0.0325292 0)
(0.0212499 0.0324986 0)
(0.0256386 0.0317541 0)
(0.0302552 0.0303317 0)
(0.0351781 0.0283066 0)
(0.0405205 0.0257756 0)
(0.0463709 0.0227977 0)
(0.0525669 0.0192734 0)
(0.0585301 0.0149584 0)
(0.0643032 0.0107151 0)
(-0.00261246 0.0425631 0)
(-0.00697825 0.0399324 0)
(-0.010782 0.0354277 0)
(-0.0125134 0.0302624 0)
(-0.0127284 0.0253402 0)
(-0.0115275 0.0215035 0)
(-0.00935173 0.01944 0)
(-0.00639232 0.0191983 0)
(-0.00290814 0.0203767 0)
(0.000878377 0.0224027 0)
(0.0047031 0.0246101 0)
(0.0084306 0.0265703 0)
(0.0120608 0.027974 0)
(0.0156206 0.0286369 0)
(0.0191703 0.0285215 0)
(0.0227746 0.0276389 0)
(0.0264719 0.026027 0)
(0.0303061 0.0237411 0)
(0.0343276 0.0208752 0)
(0.0385946 0.0175178 0)
(0.0430705 0.0137542 0)
(0.0475829 0.00970561 0)
(0.0521827 0.00577881 0)
(-0.00265481 0.0473472 0)
(-0.00700994 0.0441901 0)
(-0.0107475 0.0381161 0)
(-0.0123766 0.0312767 0)
(-0.0124727 0.0248238 0)
(-0.0112883 0.0198367 0)
(-0.00921193 0.0169193 0)
(-0.00637882 0.0159776 0)
(-0.00305563 0.0167607 0)
(0.000571885 0.0186898 0)
(0.00421009 0.020948 0)
(0.00770133 0.0230315 0)
(0.0110019 0.0245622 0)
(0.0141161 0.025314 0)
(0.0171042 0.0252254 0)
(0.0200365 0.0243226 0)
(0.0229585 0.0226615 0)
(0.025896 0.0203096 0)
(0.0288557 0.0173424 0)
(0.0318594 0.0138541 0)
(0.0349166 0.00996758 0)
(0.0379908 0.00591559 0)
(0.0411203 0.00208776 0)
(-0.00274344 0.0521933 0)
(-0.00718507 0.0484399 0)
(-0.0109383 0.0407551 0)
(-0.0125136 0.0322033 0)
(-0.0125455 0.0242657 0)
(-0.0114707 0.0182748 0)
(-0.00959398 0.0145513 0)
(-0.00694197 0.012966 0)
(-0.00377113 0.0133242 0)
(-0.000294936 0.0150865 0)
(0.00322178 0.0174396 0)
(0.00658715 0.0197112 0)
(0.00969486 0.0214711 0)
(0.0125065 0.022434 0)
(0.0150676 0.0224913 0)
(0.017459 0.0216689 0)
(0.0197456 0.020044 0)
(0.0219596 0.0177179 0)
(0.0241093 0.0147729 0)
(0.0262142 0.0113255 0)
(0.0282579 0.00749213 0)
(0.0302264 0.00347278 0)
(0.0322257 -0.000402456 0)
(-0.00288607 0.0572008 0)
(-0.00750704 0.0527891 0)
(-0.0113655 0.0434243 0)
(-0.0129288 0.0330743 0)
(-0.0129251 0.0237174 0)
(-0.012039 0.0169481 0)
(-0.0104146 0.0123866 0)
(-0.00793583 0.0101351 0)
(-0.00495076 0.0100901 0)
(-0.00169856 0.0116369 0)
(0.00172917 0.0140117 0)
(0.00506013 0.0164898 0)
(0.00809687 0.0185577 0)
(0.0107571 0.0198462 0)
(0.0130444 0.0201762 0)
(0.0150371 0.0195403 0)
(0.016832 0.0180417 0)
(0.0184808 0.0158091 0)
(0.0200076 0.012956 0)
(0.0214467 0.00960205 0)
(0.0227955 0.00585295 0)
(0.0240499 0.00188266 0)
(0.0253697 -0.00205725 0)
(-0.00307039 0.0624663 0)
(-0.00796004 0.0573263 0)
(-0.0119938 0.046172 0)
(-0.0135369 0.0338593 0)
(-0.0136237 0.0232882 0)
(-0.0130242 0.0159181 0)
(-0.0115505 0.010388 0)
(-0.00920693 0.00747366 0)
(-0.00640705 0.00703172 0)
(-0.00334276 0.00835094 0)
(-0.000127611 0.0106627 0)
(0.00314813 0.0133147 0)
(0.00620277 0.0157044 0)
(0.00884859 0.0174003 0)
(0.0110194 0.0181211 0)
(0.0127673 0.0177923 0)
(0.0142052 0.0165131 0)
(0.0154167 0.0144339 0)
(0.0164628 0.0117138 0)
(0.0174017 0.00846626 0)
(0.0182468 0.00479173 0)
(0.0190014 0.000827293 0)
(0.0198713 -0.00321038 0)
(-0.0032694 0.0680466 0)
(-0.00843694 0.0620866 0)
(-0.0125937 0.0489993 0)
(-0.0142408 0.0346776 0)
(-0.0147138 0.0232224 0)
(-0.0143372 0.0150156 0)
(-0.0128059 0.00844485 0)
(-0.0105102 0.0049427 0)
(-0.0078969 0.0041821 0)
(-0.00507236 0.0052795 0)
(-0.00207348 0.00745562 0)
(0.00103337 0.0101486 0)
(0.00407849 0.0128251 0)
(0.00678744 0.0149693 0)
(0.00897823 0.0161778 0)
(0.0106258 0.0162766 0)
(0.0118365 0.0153133 0)
(0.0127406 0.013462 0)
(0.0134248 0.0109092 0)
(0.0139634 0.00778393 0)
(0.0144202 0.00417599 0)
(0.0148154 0.000184785 0)
(0.0153218 -0.00399849 0)
(-0.00343221 0.0739246 0)
(-0.00881649 0.0670356 0)
(-0.0130093 0.0518884 0)
(-0.0149262 0.0359095 0)
(-0.0159486 0.0236062 0)
(-0.0156048 0.0139698 0)
(-0.0138478 0.00644263 0)
(-0.0115633 0.00251469 0)
(-0.0091448 0.00154662 0)
(-0.00661602 0.00247792 0)
(-0.00392452 0.0044872 0)
(-0.00107807 0.00709592 0)
(0.00185644 0.0099218 0)
(0.00461898 0.0124697 0)
(0.00690669 0.0142223 0)
(0.0085879 0.0148555 0)
(0.009708 0.0143199 0)
(0.010417 0.012777 0)
(0.0108442 0.0104301 0)
(0.0110938 0.00744397 0)
(0.0112382 0.00391045 0)
(0.0113119 -0.000109659 0)
(0.0115238 -0.00444872 0)
(-0.00348932 0.0800299 0)
(-0.00902162 0.0721377 0)
(-0.0132689 0.0548433 0)
(-0.0155211 0.0376516 0)
(-0.0168481 0.0241959 0)
(-0.0162995 0.0126904 0)
(-0.0143505 0.00434547 0)
(-0.0121066 0.000192197 0)
(-0.00992525 -0.000825365 0)
(-0.00774738 3.58849e-06 0)
(-0.00545273 0.00184509 0)
(-0.00296383 0.00428919 0)
(-0.000291945 0.00709242 0)
(0.00241407 0.00989599 0)
(0.0048129 0.0121627 0)
(0.00662486 0.0134082 0)
(0.00778364 0.0134132 0)
(0.00841238 0.0122661 0)
(0.00867757 0.0101842 0)
(0.0087213 0.00736498 0)
(0.00863424 0.00390627 0)
(0.00845116 -0.000130193 0)
(0.00840113 -0.00458324 0)
(-0.00337736 0.0861467 0)
(-0.00892361 0.0773405 0)
(-0.0132768 0.0579373 0)
(-0.0158055 0.0397011 0)
(-0.0170743 0.0246357 0)
(-0.01616 0.011223 0)
(-0.0140957 0.00219275 0)
(-0.0119638 -0.00196821 0)
(-0.010085 -0.00287643 0)
(-0.00831472 -0.00205326 0)
(-0.0064904 -0.000358433 0)
(-0.00446198 0.00186682 0)
(-0.00216951 0.00449983 0)
(0.000304816 0.00733546 0)
(0.00272535 0.0099776 0)
(0.00471237 0.0118335 0)
(0.00602155 0.0124765 0)
(0.00668396 0.0118293 0)
(0.00688545 0.0100869 0)
(0.00680303 0.00747431 0)
(0.00654726 0.00411319 0)
(0.00617121 8.91687e-05 0)
(0.00591341 -0.00445881 0)
(-0.00308353 0.0920172 0)
(-0.0084657 0.0825185 0)
(-0.0128921 0.0612145 0)
(-0.0155155 0.0417761 0)
(-0.0164819 0.0247648 0)
(-0.0151397 0.00957645 0)
(-0.0129921 3.77315e-05 0)
(-0.0110659 -0.00390081 0)
(-0.00955958 -0.00454564 0)
(-0.00824782 -0.00363636 0)
(-0.00693678 -0.00204346 0)
(-0.00544566 -5.72025e-05 0)
(-0.00365586 0.00229195 0)
(-0.00155364 0.00496327 0)
(0.0007197 0.00772722 0)
(0.00282672 0.0100756 0)
(0.00436423 0.0113928 0)
(0.00517887 0.0113571 0)
(0.00541097 0.0100445 0)
(0.00527184 0.00769416 0)
(0.00492605 0.00448002 0)
(0.00441469 0.000486238 0)
(0.00398482 -0.00411969 0)
(-0.00261777 0.0973853 0)
(-0.00762688 0.0875225 0)
(-0.0119022 0.064566 0)
(-0.0144178 0.0436684 0)
(-0.0149839 0.0245091 0)
(-0.0131582 0.00765221 0)
(-0.0110485 -0.00204285 0)
(-0.00943533 -0.00551108 0)
(-0.00838603 -0.00576143 0)
(-0.00757558 -0.00470046 0)
(-0.00679645 -0.00317547 0)
(-0.00586446 -0.00142591 0)
(-0.00463788 0.000585532 0)
(-0.00303302 0.00293993 0)
(-0.00108699 0.00557205 0)
(0.00098118 0.00815846 0)
(0.00274309 0.0100815 0)
(0.00381615 0.0107401 0)
(0.0041871 0.00996665 0)
(0.00408333 0.00796023 0)
(0.00369397 0.00493275 0)
(0.00310293 0.00100691 0)
(0.002573 -0.00362045 0)
(-0.00199139 0.101981 0)
(-0.0064229 0.0921531 0)
(-0.0103099 0.0676993 0)
(-0.0124852 0.045244 0)
(-0.0124786 0.0238137 0)
(-0.0101566 0.00551522 0)
(-0.00833096 -0.00386428 0)
(-0.00721708 -0.00666118 0)
(-0.0067158 -0.00645161 0)
(-0.00642575 -0.00522468 0)
(-0.00615685 -0.00375225 0)
(-0.00575179 -0.0022205 0)
(-0.00508353 -0.000552975 0)
(-0.00403642 0.00139428 0)
(-0.00255965 0.00369317 0)
(-0.000739597 0.00621836 0)
(0.00111233 0.00852089 0)
(0.00249474 0.00987771 0)
(0.00312497 0.00976301 0)
(0.00312982 0.00819185 0)
(0.0027645 0.0054033 0)
(0.00216212 0.0016024 0)
(0.00157623 -0.0030158 0)
(-0.00123964 0.105554 0)