/*--------------------------------*- C++ -*----------------------------------*\
| =========                 |                                                 |
| \\      /  F ield         | OpenFOAM: The Open Source CFD Toolbox           |
|  \\    /   O peration     | Version:  2312                                  |
|   \\  /    A nd           | Website:  www.openfoam.com                      |
|    \\/     M anipulation  |                                                 |
\*---------------------------------------------------------------------------*/
FoamFile
{
    version     2.0;
    format      ascii;
    arch        "LSB;label=32;scalar=64";
    class       volScalarField;
    location    "3.55";
    object      alpha.water;
}
// * * * * * * * * * * * * * * * * * * * * * * * * * * * * * * * * * * * * * //

dimensions      [0 0 0 0 0 0 0];

internalField   nonuniform List<scalar> 
2268
(
3.79424e-07
2.58206e-07
5.87995e-08
1.50108e-08
3.43061e-09
6.13506e-10
2.40927e-10
1.56175e-10
1.02589e-10
7.11056e-11
5.38256e-11
4.56377e-11
4.35132e-11
4.53686e-11
5.10957e-11
6.17764e-11
8.49901e-11
1.2426e-10
1.79403e-10
3.12403e-10
5.69778e-10
1.09572e-09
1.3431e-09
3.75111e-07
2.58343e-07
6.5468e-08
1.43619e-08
1.44169e-09
3.02704e-10
2.48016e-10
1.90815e-10
1.38908e-10
1.04898e-10
9.16679e-11
7.79097e-11
6.95456e-11
6.79792e-11
7.52298e-11
1.00912e-10
1.25593e-10
1.82952e-10
3.0795e-10
5.57353e-10
9.16961e-10
1.80729e-09
1.72326e-09
9.24865e-08
2.90801e-08
1.93556e-08
6.21457e-09
1.10693e-09
2.23611e-10
2.06765e-10
1.87481e-10
1.88529e-10
1.76897e-10
1.98846e-10
1.72976e-10
1.42749e-10
1.32604e-10
1.29969e-10
1.50998e-10
2.16102e-10
2.5771e-10
3.50082e-10
5.68434e-10
1.23799e-09
2.15655e-09
1.77208e-09
1.93831e-08
1.93706e-08
1.93592e-08
2.81321e-08
3.58637e-08
3.66338e-08
3.59013e-11
3.62964e-11
6.60535e-11
6.74786e-11
2.59344e-10
2.48882e-10
1.98074e-10
1.43999e-10
1.1101e-10
1.13797e-10
1.42323e-10
1.612e-10
1.93175e-10
3.101e-10
7.59882e-10
1.30026e-09
9.55558e-10
0.0204234
0.0221598
0.0240923
0.0240724
0.0197816
0.011473
0.00374408
8.99011e-05
3.37149e-19
2.11317e-19
-5.55745e-20
1.80889e-20
2.99375e-22
2.14081e-21
-8.01113e-21
4.92924e-20
1.0165e-20
1.92845e-11
1.80276e-11
2.8523e-11
8.85683e-11
2.85078e-10
1.30602e-10
0.635869
0.645582
0.655285
0.65635
0.638109
0.590907
0.518864
0.422888
0.319125
0.234582
0.161039
0.100462
0.0561676
0.0258291
0.00886056
0.00215004
3.94027e-06
2.39671e-21
5.40821e-24
6.39528e-24
4.36274e-22
3.34699e-24
1.95036e-22
0.995673
0.994085
0.994608
0.996717
0.998819
0.999498
0.999598
0.999501
0.987771
0.943945
0.878901
0.80303
0.726708
0.639034
0.547777
0.453085
0.375063
0.291566
0.196627
0.163888
0.153203
0.148235
0.130004
0.999602
0.999235
0.998979
0.999625
0.999633
0.999632
0.999632
0.999631
0.998679
0.989462
0.974066
0.973107
0.973005
0.972902
0.955031
0.899139
0.852409
0.810654
0.817162
0.85205
0.867073
0.864444
0.829343
0.0139862
0.0149311
0.0142304
0.00665352
0.00620432
0.0125612
0.0163359
0.0170868
0.0170906
0.0153538
0.0147747
0.013098
0.0119136
0.00916831
0.00666942
0.00449687
0.00446485
0.00616323
0.00654725
0.0120838
0.00717611
0.00615737
0.00600541
0.00596133
0.00593042
0.00589092
0.00568245
0.00551342
0.00474641
0.00306679
0.00251287
0.00242494
0.00241106
0.00243741
0.00243472
0.00286022
0.00303345
0.00324677
0.280105
0.041291
0.0411782
0.0755576
0.0894503
0.0783789
0.0760394
0.0574971
0.0173318
0.00300384
0.002525
0.00251852
0.0519095
0.104735
0.0697942
0.0198553
0.00286475
0.00286944
0.00287395
0.513615
0.425396
0.503377
0.558741
0.558386
0.538968
0.564464
0.664139
0.523752
0.154034
0.0741864
0.361178
0.754766
0.827693
0.772178
0.621562
0.330846
0.209211
0.140022
0.611281
0.726517
0.962481
0.965383
0.935273
0.902192
0.870353
0.958489
0.757414
0.393037
0.382498
0.890727
0.905311
0.905397
0.896117
0.905391
0.871751
0.545239
0.470467
0.776014
0.968576
0.968551
0.968519
0.968539
0.968539
0.968522
0.968339
0.861657
0.402272
0.583217
0.905284
0.905378
0.905335
0.905391
0.905386
0.905391
0.805713
0.83336
0.67295
0.968611
0.96857
0.96854
0.968504
0.968504
0.968486
0.968357
0.869949
0.421297
0.666716
0.8547
0.898854
0.865886
0.905391
0.905443
0.905375
0.905388
0.905317
0.623865
0.967485
0.96854
0.925083
0.929572
0.94271
0.968468
0.959709
0.835416
0.486838
0.518277
0.613233
0.790432
0.864444
0.89953
0.905424
0.903127
0.905317
0.905331
0.999602
0.999602
0.999602
0.999602
0.999602
0.999626
0.999629
0.999631
0.993963
0.951488
0.95014
0.957137
0.971706
0.923682
0.843054
0.84322
0.846416
0.906571
0.983708
0.991118
0.991104
0.991084
0.982543
0.999542
0.998871
0.998135
0.998526
0.999628
0.999629
0.999629
0.99963
0.999606
0.978162
0.949988
0.950058
0.954965
0.984562
0.971998
0.973486
0.988885
0.988613
0.990774
0.990791
0.971847
0.884251
0.683175
0.999338
0.998308
0.994163
0.998888
0.999545
0.999628
0.999618
0.999629
0.999628
0.99823
0.98011
0.968852
0.983766
0.985754
0.985749
0.983528
0.978315
0.974085
0.747794
0.459626
0.365226
0.442018
0.516148
0.938089
0.841381
0.906841
0.973245
0.985186
0.984146
0.977899
0.961407
0.975401
0.99667
0.995194
0.990701
0.979915
0.961919
0.918748
0.836975
0.607646
0.363266
0.0847127
0.0011071
0.000628232
0.00129266
1.32754e-07
0.462924
0.405128
0.436423
0.703102
0.879582
0.929222
0.932273
0.926886
0.932026
0.959092
0.938726
0.869637
0.775555
0.58565
0.265611
0.0415654
0.0149841
-1.38501e-08
2.30401e-20
7.58775e-05
0.000622791
0.00111893
0.00166159
0.00406231
0.00407236
0.00793787
0.0859949
0.290453
0.421597
0.457166
0.478396
0.482363
0.39736
0.295436
0.175171
0.0256355
1.45867e-06
1.47073e-06
1.48847e-06
9.63768e-05
1.54738e-05
0.000137365
0.00047113
0.000702212
0.00182719
0.0139172
0.000516543
0.000431882
-2.21608e-20
-2.78745e-17
3.86353e-12
0.00099522
0.00269302
0.00427701
0.00264506
3.19531e-06
1.4122e-06
1.432e-06
1.4122e-06
0.00120152
0.00137424
0.000931872
0.000668398
0.00101549
0.00187461
0.00278022
0.00315656
0.0115245
0.0201651
0.000341131
0.000144747
5.57128e-07
2.67841e-11
1.2603e-13
3.11807e-06
3.97638e-05
5.29743e-05
0.000468046
0.00125043
0.00141461
0.00272539
0.00873499
0.0107059
0.00966262
0.00550039
0.00342563
0.00381608
0.00462624
0.00510021
0.00529215
0.0054245
0.00914638
0.000129768
0.000129754
0.00013087
0.000102675
2.87002e-05
3.88715e-05
0.000452434
0.00512419
0.00661278
0.00661117
0.00371084
0.0128871
0.0125295
0.00943145
0.00424514
0.00204877
0.00102752
0.000488925
0.000121151
1.18216e-07
1.18658e-07
5.20979e-08
4.9732e-08
0.000129784
0.000129768
0.000157954
0.000140281
2.02256e-05
2.06804e-05
2.02717e-05
0.00270837
0.00597093
0.00639636
0.00832125
0.00578507
2.66015e-08
3.95956e-08
1.85559e-07
2.14024e-07
8.1687e-09
1.28782e-12
-1.60045e-08
2.1118e-06
2.24317e-06
3.00579e-07
2.52274e-07
0.000841252
0.00416414
0.00269446
0.00218456
0.00241718
0.0045445
0.00636422
0.00301485
0.000792581
0.000792051
0.00361374
0.000785381
1.91789e-06
4.80588e-07
7.09686e-07
8.14744e-07
6.1216e-07
2.4199e-07
1.46784e-06
5.94644e-06
5.95209e-06
4.1244e-06
1.25672e-07
0.00704026
0.0146684
0.0249025
0.0283823
0.0284552
0.0283816
0.0241592
0.00255471
5.24162e-10
5.25633e-10
1.39961e-06
1.16018e-06
4.45197e-07
5.16456e-07
1.14235e-06
1.60518e-06
1.62286e-06
1.57987e-06
1.38847e-06
1.93054e-06
5.57476e-06
1.00277e-05
6.1796e-06
0.00420687
0.0020559
0.00288364
0.00824318
0.00753689
0.00385257
0.000341556
0.0001533
6.61474e-08
5.24159e-10
5.4878e-07
6.60139e-07
5.18617e-07
2.35171e-07
1.97916e-07
3.30949e-07
8.7494e-07
1.43677e-06
3.78635e-06
1.64507e-05
2.0429e-05
5.57056e-06
3.18089e-07
-9.09803e-12
-6.56829e-09
-2.01735e-09
-4.74847e-15
1.5728e-15
1.37738e-16
4.15605e-18
3.54512e-11
6.44208e-10
3.24356e-07
8.53433e-07
9.95042e-07
1.00223e-06
2.23405e-07
1.97642e-07
3.93631e-07
6.05292e-07
1.87276e-06
2.44795e-05
2.72994e-05
2.73106e-05
9.87683e-06
4.66515e-07
1.18755e-07
6.41589e-07
7.30434e-07
3.01058e-07
9.15523e-08
4.17109e-08
1.33219e-08
3.47296e-07
5.68533e-07
5.73367e-07
5.02075e-07
1.07949e-07
1.11504e-07
3.39236e-07
1.83503e-06
5.26943e-06
1.21739e-05
2.85319e-05
2.8412e-05
2.57925e-05
1.03801e-05
1.45813e-08
6.11707e-08
1.61541e-07
8.48514e-07
1.22945e-06
9.89825e-07
2.10437e-07
2.41209e-07
2.64023e-07
3.00132e-07
3.01694e-07
3.67414e-07
3.20895e-07
4.69062e-06
1.57426e-05
2.13609e-05
2.18126e-05
3.45864e-05
3.60139e-05
2.1986e-05
1.45627e-06
-3.0093e-19
-1.30015e-12
1.59205e-10
1.93601e-10
7.25277e-08
2.35141e-07
5.90142e-07
4.53195e-07
2.3096e-07
2.48166e-07
1.40032e-07
5.80475e-08
1.68151e-07
9.30648e-06
1.67351e-05
1.68112e-05
8.86301e-06
1.57991e-05
2.17888e-05
9.89723e-06
2.20475e-07
2.40261e-09
8.66152e-10
1.06903e-09
9.14072e-10
6.75451e-10
1.16949e-10
1.26609e-08
4.09701e-09
5.08297e-09
1.78582e-08
5.26009e-08
1.17097e-07
5.02351e-08
5.0653e-08
4.17193e-06
1.04557e-05
7.94045e-06
2.79825e-06
2.45336e-07
8.68729e-07
1.99875e-07
1.96903e-09
1.97809e-09
2.14338e-09
1.89519e-09
1.63707e-09
1.19493e-09
8.02573e-10
3.14844e-10
1.00817e-08
5.88054e-09
2.93691e-09
2.93144e-09
5.26277e-09
2.12145e-08
7.13557e-08
5.89631e-07
1.81786e-06
8.00515e-07
1.17889e-07
6.65235e-08
1.18481e-08
1.55138e-08
4.18007e-09
2.54113e-09
2.64636e-09
2.51862e-09
2.0417e-09
1.43478e-09
9.73658e-10
6.31074e-10
5.47935e-10
1.07244e-08
5.31048e-09
3.04113e-09
2.82162e-09
4.83824e-09
2.00667e-08
8.60646e-08
2.20607e-07
3.94481e-08
1.48753e-08
4.37453e-09
2.55457e-09
2.52069e-09
1.77435e-09
1.44419e-09
1.2599e-09
1.24021e-09
1.18594e-09
1.08277e-09
8.69506e-10
5.99848e-10
4.35211e-10
4.18966e-10
1.18577e-08
4.39999e-09
2.50755e-09
2.34341e-09
3.49997e-09
8.62824e-09
2.30025e-08
9.17261e-09
1.67313e-09
1.26698e-09
1.37183e-09
1.15875e-09
1.00099e-09
7.64012e-10
6.34064e-10
5.82471e-10
5.87659e-10
6.01841e-10
5.6632e-10
4.89237e-10
3.32849e-10
2.09572e-10
2.84307e-10
1.29139e-08
3.48759e-09
1.82624e-09
1.4274e-09
1.76369e-09
2.86438e-09
4.64904e-09
1.41738e-09
9.03335e-10
6.61037e-10
5.50221e-10
4.58567e-10
3.53447e-10
2.97552e-10
2.72144e-10
2.66873e-10
2.78763e-10
2.74803e-10
2.58938e-10
2.27157e-10
1.57337e-10
1.34277e-10
1.51736e-10
1.63874e-08
2.3625e-09
1.29911e-09
7.91793e-10
7.86523e-10
9.42028e-10
9.48357e-10
4.76317e-10
3.32463e-10
2.4418e-10
1.92303e-10
1.51429e-10
1.27112e-10
1.14772e-10
1.09628e-10
1.10184e-10
1.13893e-10
1.12955e-10
1.08173e-10
9.71374e-11
7.77937e-11
6.31833e-11
8.6842e-11
3.06713e-08
1.65572e-09
1.00729e-09
4.53638e-10
3.34911e-10
2.97682e-10
2.2609e-10
1.52969e-10
1.1175e-10
8.54072e-11
6.64892e-11
5.32736e-11
4.58791e-11
4.1661e-11
3.97782e-11
3.96996e-11
3.98187e-11
3.95755e-11
3.85103e-11
3.61777e-11
3.23919e-11
3.51351e-11
4.48854e-11
4.33616e-08
9.19681e-10
7.02253e-10
3.37851e-10
1.96154e-10
1.53985e-10
1.14962e-10
8.79823e-11
6.61934e-11
4.89619e-11
3.60921e-11
2.66326e-11
2.04006e-11
1.61042e-11
1.39055e-11
1.29517e-11
1.26313e-11
1.25826e-11
1.25539e-11
1.28178e-11
1.37258e-11
1.47815e-11
2.28908e-11
4.43743e-08
8.07844e-10
5.04735e-10
2.80654e-10
1.93767e-10
1.57809e-10
1.3555e-10
1.11599e-10
8.51395e-11
6.35723e-11
4.71148e-11
3.24985e-11
2.0339e-11
1.21701e-11
7.35723e-12
4.99434e-12
3.92926e-12
3.65956e-12
3.76835e-12
4.26778e-12
4.69217e-12
7.01683e-12
1.01428e-11
5.17833e-08
7.11096e-10
2.97637e-10
2.67007e-10
2.27836e-10
2.18449e-10
2.02027e-10
1.70546e-10
1.30669e-10
1.0435e-10
8.02978e-11
5.425e-11
3.29064e-11
1.77355e-11
8.56273e-12
3.80215e-12
1.85032e-12
1.14843e-12
1.07879e-12
1.33866e-12
1.86079e-12
2.47634e-12
4.77987e-12
5.82669e-08
1.6253e-09
2.43429e-10
3.1165e-10
3.2208e-10
3.21316e-10
2.99368e-10
2.49348e-10
1.85114e-10
1.61571e-10
1.27422e-10
8.88166e-11
5.44155e-11
2.87026e-11
1.32941e-11
5.32736e-12
1.89752e-12
6.69406e-13
3.5825e-13
3.99108e-13
5.34898e-13
1.04764e-12
1.79368e-12
7.56129e-08
3.44278e-09
2.30217e-10
3.65062e-10
4.09344e-10
4.13522e-10
4.04769e-10
3.76619e-10
2.61764e-10
2.21624e-10
1.79653e-10
1.28499e-10
8.0909e-11
4.4248e-11
2.07106e-11
8.37481e-12
2.81928e-12
8.53578e-13
2.17962e-13
1.24531e-13
1.87511e-13
3.12926e-13
6.9425e-13
8.36221e-08
6.77582e-09
2.12808e-10
3.3808e-10
3.34458e-10
3.2483e-10
3.95133e-10
5.93694e-10
4.55329e-10
2.88584e-10
2.29978e-10
1.68189e-10
1.08917e-10
6.08131e-11
2.9664e-11
1.23377e-11
4.23854e-12
1.21944e-12
2.97949e-13
6.47682e-14
4.82372e-14
1.18062e-13
2.29238e-13
1.0654e-07
8.98487e-09
2.00182e-10
2.47237e-10
2.60397e-10
8.66311e-10
2.2272e-09
1.71259e-09
1.44567e-09
4.81941e-10
2.80143e-10
2.00774e-10
1.33317e-10
7.6512e-11
3.86287e-11
1.68465e-11
6.09695e-12
1.79974e-12
4.34972e-13
6.8716e-14
2.00561e-14
2.96063e-14
8.0481e-14
1.14103e-07
1.15501e-08
2.00249e-10
7.31327e-10
3.69356e-09
2.8723e-08
3.29926e-08
1.67274e-08
4.87355e-09
1.11887e-09
3.54771e-10
2.19875e-10
1.47855e-10
8.63083e-11
4.51167e-11
2.08035e-11
7.99347e-12
2.4569e-12
6.07017e-13
1.06689e-13
1.34612e-14
9.39451e-15
2.26755e-14
1.39482e-07
1.56119e-08
7.22805e-10
1.8886e-08
1.1973e-07
2.62937e-07
6.19806e-07
2.27e-07
1.92339e-08
2.63229e-09
5.15228e-10
2.33066e-10
1.48637e-10
8.71775e-11
4.60868e-11
2.22682e-11
9.25782e-12
3.10925e-12
8.05739e-13
1.63293e-13
1.74426e-14
2.74963e-15
6.30088e-15
1.51707e-07
2.48554e-08
2.71094e-10
1.19721e-08
2.2639e-07
6.64331e-07
1.41344e-06
1.18305e-06
3.07245e-08
6.06849e-09
8.77002e-10
2.41966e-10
1.36521e-10
7.84416e-11
4.15783e-11
2.05652e-11
9.23958e-12
3.397e-12
9.67359e-13
2.06817e-13
2.83502e-14
1.62685e-15
1.59921e-15
1.6823e-07
6.37009e-08
2.41761e-10
7.26615e-09
1.08302e-07
5.97649e-07
1.4138e-06
1.34381e-06
6.71219e-08
7.55212e-09
1.05241e-09
2.3626e-10
1.14593e-10
6.41385e-11
3.33422e-11
1.65427e-11
7.78667e-12
3.17268e-12
9.89558e-13
2.23698e-13
3.66998e-14
1.74069e-15
3.90169e-16
1.72987e-07
1.23429e-07
7.12029e-09
2.25639e-09
8.08532e-09
1.85369e-07
1.3299e-06
3.5604e-07
3.71437e-08
5.2756e-09
1.00512e-09
1.91327e-10
8.61791e-11
4.67334e-11
2.29864e-11
1.11455e-11
5.41217e-12
2.4159e-12
8.57985e-13
2.16502e-13
3.75871e-14
2.47018e-15
1.48648e-16
1.73335e-07
1.64598e-07
6.98833e-08
4.08497e-09
1.62846e-09
2.98758e-08
3.65799e-07
9.11998e-08
1.8723e-08
3.36762e-09
6.62742e-10
1.22381e-10
5.59375e-11
2.93728e-11
1.35847e-11
6.19872e-12
3.00555e-12
1.42908e-12
5.78955e-13
1.67175e-13
3.26544e-14
2.76183e-15
9.36043e-17
1.28306e-07
1.72018e-07
8.38682e-08
1.21026e-08
1.51018e-09
2.82946e-08
2.36832e-10
2.38095e-10
1.186e-09
1.2558e-09
2.9334e-10
6.15735e-11
3.16554e-11
1.5951e-11
6.75214e-12
2.78676e-12
1.26952e-12
6.18927e-13
2.80578e-13
9.81657e-14
2.16018e-14
2.67959e-15
9.54296e-17
7.55925e-08
1.51863e-07
5.12067e-08
1.19381e-08
1.50758e-09
3.04472e-09
1.3979e-09
4.33605e-10
1.66165e-10
9.5688e-11
4.23612e-11
2.3994e-11
1.51895e-11
7.38167e-12
2.82919e-12
1.01212e-12
3.96103e-13
1.7775e-13
9.06387e-14
4.10012e-14
1.16641e-14
1.58549e-15
9.00386e-17
1.63568e-08
4.80243e-08
3.22601e-08
6.0173e-09
2.6092e-09
3.03363e-09
2.18545e-09
9.17942e-10
2.83444e-10
7.48335e-11
1.87537e-11
9.28684e-12
5.9093e-12
2.81379e-12
1.02135e-12
3.03308e-13
9.16809e-14
3.37485e-14
1.73468e-14
1.15966e-14
4.01222e-15
7.75634e-16
7.11721e-17
1.02338e-08
1.90084e-08
1.06934e-08
7.25309e-09
5.61104e-09
3.84221e-09
1.75138e-09
5.05575e-10
1.02349e-10
1.73413e-11
3.8066e-12
2.34209e-12
1.58592e-12
7.64658e-13
2.57387e-13
6.45727e-14
1.39671e-14
3.53597e-15
1.95352e-15
2.03489e-15
1.04062e-15
3.29331e-16
4.74492e-17
7.02759e-08
5.17822e-08
2.58714e-08
8.86281e-09
4.64301e-09
2.00767e-09
5.44785e-10
7.35088e-11
6.02883e-12
3.58842e-13
3.09979e-13
3.22133e-13
2.38295e-13
1.16521e-13
3.76413e-14
8.0012e-15
1.19469e-15
1.98482e-16
1.32869e-16
2.37652e-16
2.43978e-16
1.13e-16
2.44565e-17
0.944678
0.883135
0.523244
0.541759
0.604425
0.575176
0.514886
0.60588
0.490768
0.467774
0.453331
0.493775
1.35497e-07
0.00171296
0.00757784
7.61216e-08
0.00133477
0.000553401
0.000145622
0.000153164
0.0182004
0.0152523
0.0129016
0.0122874
0.0201614
0.020165
0.0201614
0.020165
0.0149412
0.0142316
0.00927265
0.0124803
0.000468967
0.000492863
1.70044e-05
0.000172478
1.30196e-06
9.84751e-07
3.89838e-07
3.79821e-07
1.48833e-07
3.78833e-07
7.13263e-06
8.09486e-06
4.75941e-07
8.50327e-07
1.50865e-06
1.57406e-06
1.80146e-07
2.33583e-07
2.22109e-07
1.7995e-07
1.37724e-07
1.37129e-07
8.93056e-08
8.84112e-08
2.32743e-07
2.35858e-07
2.30872e-07
8.71735e-08
2.83355e-09
7.98739e-09
1.27151e-08
1.21542e-08
1.95854e-09
1.29364e-09
3.53944e-08
3.96277e-08
3.05558e-09
1.68448e-09
2.51294e-08
5.58939e-08
6.00694e-10
9.00768e-10
2.72139e-09
3.24351e-09
6.01437e-10
1.29975e-09
2.91003e-09
5.34827e-09
5.02991e-10
8.64248e-10
1.8561e-09
2.91498e-09
2.37054e-10
3.62358e-10
5.70379e-10
8.95285e-10
1.18382e-10
1.59649e-10
2.54013e-10
3.07117e-10
6.23876e-11
8.14865e-11
1.07966e-10
1.37446e-10
3.24417e-11
3.86819e-11
5.6037e-11
6.87185e-11
1.58195e-11
2.03996e-11
2.59508e-11
3.38728e-11
6.81298e-12
8.46564e-12
1.24739e-11
1.53716e-11
2.93729e-12
3.82401e-12
4.81153e-12
6.43395e-12
1.09433e-12
1.39174e-12
2.06236e-12
2.59178e-12
4.10332e-13
5.63859e-13
7.13715e-13
9.45742e-13
1.38521e-13
1.79081e-13
2.6584e-13
3.28626e-13
4.51864e-14
6.4751e-14
8.26237e-14
1.13643e-13
1.25916e-14
1.81064e-14
2.70103e-14
3.28399e-14
3.84265e-15
5.29435e-15
7.41057e-15
1.0664e-14
8.12494e-16
1.26168e-15
2.03841e-15
2.6702e-15
2.06716e-16
3.26523e-16
4.96488e-16
7.50028e-16
4.06471e-17
7.38814e-17
1.26704e-16
1.7321e-16
9.38283e-18
1.47076e-17
2.44595e-17
3.80453e-17
2.03439e-18
2.56312e-18
4.59355e-18
6.82331e-18
8.21259e-19
4.71549e-19
7.04881e-19
1.25766e-18
6.9883e-19
1.27867e-19
1.25883e-19
1.96638e-19
6.89278e-19
5.63149e-20
2.37353e-20
2.8114e-20
0.738712
0.967649
0.781586
0.401161
0.42619
0.57259
0.761258
0.845654
0.634038
0.568065
0.51869
0.776711
0.832063
0.83537
0.494887
0.228497
0.14239
0.366626
0.361314
0.767792
0.660756
0.182197
-5.59275e-17
6.03074e-13
0.0260296
0.284114
0.402426
0.181046
0.200749
0.616569
0.720441
0.479044
0.102931
0.00176188
0.00161577
0.00147305
0.00107432
0.00106987
0.494734
0.1412
7.19317e-20
1.05295e-09
2.10826e-14
0.00443637
0.21595
0.344789
0.0948953
0.0947836
0.10019
0.130977
0.0371393
0.000191626
0.00225347
0.00325293
0.00321931
0.00295602
0.00283403
1.29161e-14
-9.23868e-09
7.71032e-33
1.90098e-15
9.31893e-09
0.0152478
0.325683
0.441051
0.441009
0.338744
0.00102475
0.000177307
0.000176643
0.000190228
0.00158434
0.00222193
0.00549541
0.00546027
0.0056352
4.3756e-06
3.80836e-05
0.000232273
0.000445592
0.000268234
0.00846826
0.0677715
0.0504976
0.143427
0.139483
0.0301215
0.000176531
0.000176557
0.000179493
0.000276037
0.000127254
0.000127356
0.00318893
0.00562653
0.00303918
0.000224615
0.000648755
0.000836122
0.000791748
0.00102145
0.00091938
0.000570427
0.000569905
0.00853793
0.0228639
0.00355275
0.000574647
0.000508695
0.000223872
0.000127641
0.000755587
0.000168219
0.00160244
0.0163251
0.00227414
0.00354971
0.00411138
0.00371854
0.0032138
0.00238122
0.00176167
0.000985384
0.00108806
0.00287578
0.00756707
0.00300485
0.00086114
0.000265148
0.00065056
0.00212463
0.000169497
1.06128e-05
0.014683
0.00998904
0.00334779
0.00475789
0.00475791
0.00337712
0.00258149
0.00209499
0.0014523
0.00103458
0.000888681
0.00153561
0.00205667
0.00133402
0.000509098
0.0012773
0.00200821
0.000557711
1.07944e-05
0.000941062
0.00165841
0.000477744
0.00355872
0.00308531
0.000692429
0.000416436
0.000436908
0.000349144
0.00024838
0.000277124
0.00060967
0.000746742
0.000699026
0.000334745
2.57113e-05
2.38992e-06
7.36245e-05
7.54868e-05
3.92302e-07
4.21399e-07
8.08491e-06
0.000177272
4.95034e-05
3.4706e-05
4.35479e-05
6.04668e-05
3.04749e-05
2.26248e-05
2.1604e-05
1.95057e-05
1.29208e-05
6.4808e-11
-1.52399e-07
6.22225e-08
3.09012e-06
4.16868e-07
1.57885e-05
8.07638e-06
4.6887e-06
1.76235e-06
1.75027e-06
1.76235e-06
2.86699e-05
9.32998e-05
9.35451e-05
8.5615e-05
2.97185e-05
1.87276e-05
1.45724e-05
7.02922e-06
2.30727e-06
7.9306e-06
1.8513e-05
1.9766e-05
4.64436e-08
4.67327e-08
3.56921e-06
1.97437e-05
2.18535e-05
1.24461e-05
5.24552e-06
2.80481e-05
4.26421e-05
4.02243e-05
3.1117e-05
2.18537e-05
1.89448e-05
2.00462e-05
1.45766e-05
6.54623e-06
7.22319e-06
2.5289e-05
2.53463e-05
1.25396e-06
4.64436e-08
9.24104e-07
1.40404e-05
2.3126e-05
2.29607e-05
1.72299e-05
1.93355e-05
1.11515e-05
1.08989e-05
2.10517e-06
2.13649e-06
1.38757e-06
1.52441e-06
2.03379e-06
2.22061e-05
1.32352e-06
1.21399e-06
5.35665e-06
9.4646e-08
8.80675e-08
9.43418e-07
2.6444e-06
5.08496e-06
9.22984e-06
4.10313e-05
3.77416e-05
1.20943e-05
5.59234e-06
2.70835e-06
2.7632e-07
7.74099e-08
3.39358e-07
1.46348e-05
2.85819e-05
1.06988e-05
1.22889e-06
1.30008e-06
7.66242e-06
9.61046e-07
4.89566e-07
8.42667e-07
4.05609e-07
2.65937e-08
3.92976e-05
5.55038e-05
5.5725e-05
1.89579e-05
4.12625e-06
6.16054e-07
7.54937e-08
7.52885e-08
1.60445e-05
2.83388e-05
2.87738e-05
1.7314e-06
1.33142e-05
2.18034e-05
1.70879e-05
6.1704e-08
2.69142e-07
8.35644e-08
5.05865e-09
9.73566e-06
5.50582e-05
5.2255e-05
5.00652e-05
5.61453e-06
9.41948e-08
7.53216e-08
7.53057e-08
1.59698e-06
2.77049e-05
2.87483e-05
5.88948e-06
2.18888e-05
2.18651e-05
2.14726e-05
9.95856e-08
1.07598e-07
6.38447e-08
5.50135e-09
2.60102e-09
1.80523e-05
4.67356e-05
1.9838e-05
4.8216e-06
7.33904e-06
1.4074e-05
5.46831e-06
1.60964e-07
1.25589e-05
2.87244e-05
8.71176e-06
2.18795e-05
1.80537e-05
1.05573e-05
1.09664e-08
6.07698e-09
1.73252e-08
2.60102e-09
2.602e-09
2.52366e-06
2.43555e-05
2.59122e-05
2.4453e-05
2.47385e-05
2.50118e-05
3.43951e-06
3.64006e-08
3.63235e-06
2.85397e-05
9.46111e-06
9.79848e-06
7.85413e-06
5.90894e-06
3.6242e-09
3.38758e-09
2.80847e-07
2.74983e-06
8.23884e-06
1.45628e-05
1.92193e-05
2.61622e-05
2.61306e-05
2.23758e-05
7.21452e-06
5.93634e-08
3.48784e-08
8.19455e-06
2.26701e-05
7.27013e-06
7.02364e-06
6.97984e-06
7.67668e-06
6.13076e-09
4.57596e-09
1.0789e-08
5.02422e-07
2.33121e-06
2.19175e-06
2.22296e-06
4.14895e-06
4.47026e-06
1.44254e-06
3.1524e-08
3.23307e-08
3.34015e-08
5.7683e-06
3.28991e-06
2.57932e-06
1.23026e-05
7.25706e-06
1.51793e-05
3.53238e-09
5.21444e-09
1.19264e-08
2.28682e-08
2.74807e-09
4.03926e-09
4.05803e-09
4.07689e-09
4.09589e-09
4.11127e-09
3.07347e-08
9.86718e-08
3.02797e-07
1.15334e-07
8.61103e-09
7.8256e-07
1.19147e-05
8.83886e-06
1.44567e-05
1.07155e-09
1.20433e-09
1.48522e-09
1.50867e-09
2.09652e-09
4.02056e-09
4.65451e-09
5.54311e-09
6.69286e-09
1.24618e-08
2.77399e-08
6.84196e-08
2.36205e-07
5.49762e-08
8.40087e-09
1.32364e-07
2.10514e-09
7.47792e-06
1.03718e-05
3.58782e-10
4.23354e-10
5.59109e-10
7.99267e-10
1.38384e-09
2.49666e-09
3.78847e-09
5.02829e-09
6.29759e-09
9.0406e-09
1.69834e-08
3.81142e-08
8.77787e-08
3.32435e-08
9.77944e-09
2.10514e-09
2.09225e-09
1.4652e-06
2.1902e-07
1.61199e-10
2.34515e-10
3.31469e-10
4.78619e-10
7.29327e-10
1.1406e-09
1.76683e-09
2.6653e-09
3.82523e-09
5.93554e-09
1.27639e-08
2.20545e-08
3.27107e-08
1.77691e-08
4.75109e-09
2.09686e-09
1.30467e-08
6.52418e-07
1.92617e-07
8.58194e-11
1.30448e-10
1.91752e-10
2.78207e-10
4.10805e-10
6.11504e-10
9.82197e-10
1.63187e-09
2.71562e-09
4.67262e-09
9.32436e-09
1.41739e-08
2.1677e-08
1.51184e-08
3.52499e-09
2.10578e-09
6.66423e-08
6.9131e-07
1.96403e-07
4.21024e-11
6.80183e-11
1.04772e-10
1.60131e-10
2.46934e-10
3.91269e-10
6.46671e-10
1.09126e-09
1.86652e-09
3.21529e-09
6.34412e-09
1.1536e-08
1.76732e-08
1.9143e-08
3.42407e-09
7.46908e-08
2.5546e-07
2.49828e-07
6.77724e-08
2.03212e-11
3.22773e-11
5.10788e-11
8.06863e-11
1.28226e-10
2.1018e-10
3.59264e-10
6.31559e-10
1.11813e-09
1.9623e-09
3.71642e-09
8.01618e-09
1.3081e-08
1.87382e-08
1.86769e-08
9.83944e-08
2.41299e-07
1.12289e-07
6.75816e-08
8.37548e-12
1.37717e-11
2.18686e-11
3.52014e-11
5.74204e-11
9.70875e-11
1.71315e-10
3.09224e-10
5.62668e-10
1.00839e-09
1.79788e-09
3.60229e-09
6.24778e-09
1.05748e-08
2.81061e-08
6.97313e-08
2.69175e-08
7.16779e-09
4.11053e-07
3.41929e-12
5.50996e-12
8.76578e-12
1.39845e-11
2.27873e-11
3.91741e-11
7.14248e-11
1.33932e-10
2.51772e-10
4.75472e-10
8.40719e-10
1.49298e-09
2.83092e-09
2.81958e-09
1.28611e-08
1.20091e-08
5.78685e-09
4.97601e-09
4.94516e-07
1.25183e-12
2.06687e-12
3.24508e-12
5.14755e-12
8.44098e-12
1.44877e-11
2.63163e-11
5.26253e-11
1.09532e-10
2.19286e-10
4.01593e-10
6.36595e-10
9.88532e-10
7.91816e-10
1.94192e-09
3.5433e-09
3.78682e-09
4.05919e-09
4.93381e-07
4.24195e-13
7.19188e-13
1.11523e-12
1.70747e-12
2.69305e-12
4.5704e-12
8.19335e-12
1.45045e-11
2.32889e-11
3.98232e-11
9.24008e-11
2.17216e-10
3.02735e-10
1.86154e-10
1.85121e-10
2.05947e-09
3.80111e-09
9.95842e-09
1.86296e-07
1.51007e-13
2.37046e-13
3.42619e-13
5.03036e-13
7.73233e-13
1.20799e-12
1.90193e-12
2.81067e-12
3.46924e-12
4.54849e-12
1.29394e-11
4.17485e-11
1.01622e-10
6.55736e-11
1.91667e-10
7.68312e-10
4.74544e-09
1.7847e-08
9.42624e-10
4.49508e-14
6.82573e-14
9.97845e-14
1.43031e-13
2.04805e-13
2.99123e-13
4.32463e-13
5.91229e-13
6.94907e-13
7.05199e-13
1.66055e-12
6.48124e-12
2.15996e-11
3.9109e-11
1.46441e-10
7.28749e-10
3.91382e-09
1.74301e-08
9.42585e-10
1.34873e-14
2.05398e-14
2.86178e-14
3.86515e-14
5.20331e-14
7.09844e-14
9.74551e-14
1.28847e-13
1.55396e-13
1.82302e-13
3.44561e-13
1.39582e-12
5.8399e-12
1.89608e-11
4.42755e-11
3.85163e-10
1.41491e-09
5.38389e-09
9.41858e-10
3.85911e-15
5.61706e-15
7.69561e-15
1.00508e-14
1.30206e-14
1.71914e-14
2.31255e-14
3.05307e-14
3.84273e-14
4.89385e-14
9.19764e-14
3.69966e-13
1.62051e-12
6.26199e-12
1.38316e-11
7.19021e-11
4.67514e-10
5.59072e-10
7.51418e-10
9.57993e-16
1.4549e-15
1.97842e-15
2.55256e-15
3.28167e-15
4.37711e-15
6.10096e-15
8.63679e-15
1.21186e-14
1.78462e-14
3.26648e-14
8.90818e-14
3.9462e-13
1.62742e-12
5.06123e-12
1.24789e-11
4.65812e-11
1.58272e-10
3.41959e-10
2.2869e-16
3.49614e-16
4.8037e-16
6.28459e-16
8.36582e-16
1.18787e-15
1.83908e-15
3.11657e-15
5.54531e-15
1.01219e-14
1.97158e-14
4.48365e-14
1.31092e-13
4.19951e-13
1.2933e-12
3.67551e-12
1.29348e-11
3.86463e-11
1.22891e-10
4.91444e-17
7.76552e-17
1.09081e-16
1.48134e-16
2.0912e-16
3.34837e-16
6.32503e-16
1.3394e-15
2.94947e-15
6.46138e-15
1.38178e-14
2.95265e-14
7.20497e-14
2.08174e-13
5.62772e-13
1.03797e-12
2.96485e-12
1.21239e-11
1.2125e-11
9.69459e-18
1.52927e-17
2.22744e-17
3.23581e-17
5.02614e-17
9.3949e-17
2.17794e-16
5.6949e-16
1.52646e-15
3.89281e-15
9.12987e-15
1.98805e-14
4.38059e-14
1.09205e-13
3.0738e-13
6.26052e-13
8.31177e-13
1.39113e-12
2.87618e-12
1.71336e-18
2.72443e-18
4.13157e-18
6.39539e-18
1.11158e-17
2.46264e-17
7.02029e-17
2.24349e-16
7.06719e-16
2.04248e-15
5.37067e-15
1.29041e-14
2.88456e-14
6.52916e-14
1.62682e-13
3.6821e-13
4.989e-13
5.43338e-13
5.93314e-13
2.53351e-19
4.19233e-19
6.5929e-19
1.09245e-18
2.12181e-18
5.38493e-18
1.79652e-17
6.71634e-17
2.42511e-16
7.99153e-16
2.36975e-15
6.31565e-15
1.53022e-14
3.6137e-14
8.75187e-14
2.03113e-13
3.56746e-13
3.8961e-13
2.61049e-13
3.45045e-20
5.54851e-20
8.90272e-20
1.54182e-19
3.06039e-19
7.71763e-19
2.72926e-18
1.11131e-17
4.41866e-17
1.64721e-16
5.52226e-16
1.7287e-15
4.92909e-15
1.30722e-14
3.43641e-14
9.03429e-14
1.84879e-13
2.27237e-13
1.10147e-13
)
;

boundaryField
{
    leftWall
    {
        type            zeroGradient;
    }
    rightWall
    {
        type            zeroGradient;
    }
    lowerWall
    {
        type            zeroGradient;
    }
    atmosphere
    {
        type            inletOutlet;
        inletValue      uniform 0;
        value           nonuniform List<scalar> 
46
(
7.02759e-08
5.17822e-08
2.58714e-08
8.86281e-09
4.64301e-09
0
0
0
0
0
0
0
0
0
0
0
0
0
0
0
2.43978e-16
1.13e-16
2.44565e-17
6.89279e-19
5.6315e-20
2.37353e-20
2.8114e-20
0
0
0
0
0
0
0
0
0
0
0
0
4.92909e-15
1.30722e-14
3.43641e-14
9.03429e-14
1.84879e-13
2.27237e-13
1.10147e-13
)
;
    }
    defaultFaces
    {
        type            empty;
    }
}


// ************************************************************************* //
