/*--------------------------------*- C++ -*----------------------------------*\
| =========                 |                                                 |
| \\      /  F ield         | OpenFOAM: The Open Source CFD Toolbox           |
|  \\    /   O peration     | Version:  2312                                  |
|   \\  /    A nd           | Website:  www.openfoam.com                      |
|    \\/     M anipulation  |                                                 |
\*---------------------------------------------------------------------------*/
FoamFile
{
    version     2.0;
    format      ascii;
    arch        "LSB;label=32;scalar=64";
    class       volScalarField;
    location    "3.55";
    object      p_rgh;
}
// * * * * * * * * * * * * * * * * * * * * * * * * * * * * * * * * * * * * * //

dimensions      [1 -1 -2 0 0 0 0];

internalField   nonuniform List<scalar> 
2268
(
5333.66
5334.21
5338.51
5350.06
5371.77
5405.06
5449.72
5504.19
5565.91
5632.15
5700.67
5769.62
5837.28
5902.2
5963.49
6021.15
6075.38
6126.03
6172.07
6212.65
6247.51
6275.14
6292.16
5332.51
5332.44
5336.48
5347.49
5368.83
5402.06
5446.94
5501.85
5564.08
5630.76
5699.71
5769.11
5837.22
5902.53
5964.03
6021.85
6076.18
6126.95
6172.8
6212.74
6247.12
6274.64
6291.96
5332.14
5330.83
5333.12
5342.53
5362.95
5396.04
5441.33
5497.12
5560.42
5628.01
5697.84
5768.19
5837.22
5903.29
5965.11
6023.1
6077.61
6128.63
6173.87
6212.08
6245.04
6272.16
6290.69
5331.77
5328.32
5327.9
5334.77
5353.74
5386.66
5432.57
5489.75
5554.77
5623.79
5694.98
5766.81
5837.29
5904.61
5966.84
6025.13
6079.86
6131.47
6175.73
6210.75
6241.18
6267.4
6287.46
5258.48
5246
5237.78
5245.56
5279.86
5338.86
5408.64
5478.8
5547.32
5618.41
5691.38
5765.22
5837.57
5906.56
5969.05
6027.71
6081.56
6135.25
6177.52
6208.34
6234.99
6259.79
6282.18
2972.52
2927.63
2883.91
2887.33
2982.17
3188.58
3496.34
3909.04
4362.92
4748.17
5092.94
5389.9
5627.97
5814.39
5940.66
6018.26
6075
6132.47
6182.68
6195.57
6217.11
6232.98
6240.91
1399.16
1397.6
1395.93
1392.8
1387.13
1378.37
1367.96
1356.69
1402.34
1594.05
1866.42
2223.83
2640.52
3107.78
3544.85
4022.19
4429.3
4852.34
5221.82
5312.43
5366.95
5447.94
5598.04
1400.26
1398.77
1396.77
1393.35
1387
1378.28
1367.31
1355.43
1340.21
1318.77
1295.32
1275.28
1284.1
1305.53
1288.44
1333.26
1554.78
1760.41
1745.37
1717.89
1741.5
1789.55
1998.05
2992.86
2956.88
2909.99
2871.31
2866.02
2897.39
2953.69
3017.07
3069.24
3088.52
3052.15
2960.6
2832.55
2728.14
2694.43
2732.4
2832.31
2921.96
2987.6
2997.83
2964.17
2913.76
2863.26
2855.65
2897.04
2956.99
3021.51
3079.2
3103.15
3065.69
2959.95
2792.47
2636.18
2569.05
2632.7
2779.77
2920.42
2996.51
2575.72
2505.96
2385.69
2264.4
2250.71
2364.34
2517.16
2659.51
2740
2712.89
2553.69
2389.21
2127.51
1920.89
1951.83
2063.78
2179.2
2288.34
2428.49
1394.13
1291.01
1119.9
1009.51
982.731
1022.73
1111.94
1293.41
1546.65
1878.08
1963.49
1572.56
1158.81
1099.73
1083.74
1137.4
1381.53
1715.11
1922.92
978.405
981.073
1024.81
1033.32
1024.55
1017.61
1013.26
1024.59
990.869
999.187
987.355
1023.75
1096.06
1102.75
1090.6
1062.06
1007.53
959.833
956.853
985.347
1046.49
1068.97
1071.1
1071.93
1071.69
1059.92
1062.78
1073.34
913.099
956.263
1028.25
1038.03
1041.04
1049
1035.69
1011.23
992.642
997.884
961.415
1064.44
1064.58
1018.21
1013.65
1025.13
1046.61
1023.44
1086.51
918.627
973.75
1020.77
1033.06
1013.6
1017.84
1011.11
1015.27
1012.39
1022.73
947.724
1020.37
1007.17
991.107
990.671
997.542
1014.11
1019.62
1059.57
943.874
953.654
999.736
1025.94
1005.65
1012.86
1011.89
1035.18
1039.03
1040.79
1400.19
1398.07
1396.78
1393.76
1387.54
1378.28
1366.91
1354.31
1337.82
1311.93
1293.59
1274.94
1260.53
1248.34
1272.08
1247.43
1211.9
1154.58
1131.44
1122.6
1119.68
1107.65
1060.13
1403.33
1400.14
1397.02
1393.48
1388.15
1379.44
1368.08
1354.57
1339.15
1317.03
1296.98
1277.48
1256.53
1249.47
1229.04
1197.69
1160.56
1138.13
1124.26
1107.6
1073.95
1027.41
958.894
1407.45
1403.38
1396.72
1397.44
1393.64
1386.61
1374.27
1357.12
1341.11
1325.71
1323.52
1298.52
1276.86
1235.82
1212.69
1198.25
1153.11
1129.03
1047.96
916.426
863.452
862.532
903.222
1372.51
1325.35
1358.15
1392.98
1402.96
1392.19
1360.79
1327.88
1324.06
1343.56
1332.13
1301.92
1251.55
1218.57
1198.3
1171.54
1035.62
863.21
739.43
724.558
719.491
698.445
683.817
1127.75
1117.71
1164.03
1274.65
1332.3
1333.94
1324.5
1313.42
1308.58
1316.41
1267.85
1177.02
1118.01
1064.99
891.774
788.157
730.699
689.612
688.079
692.13
687.811
682.252
679.908
878.034
902.746
944.787
943.56
1012.92
1066.89
1071.37
1077.93
1058.11
964.077
878.911
787.982
723.935
747.241
724.761
688.488
699.037
693.732
687.501
682.545
677.907
676.613
681.945
882.117
931.25
923.621
888.226
844.01
835.354
834.77
815.455
787.264
760.396
736.869
686.218
677.966
703.463
697.269
693.067
686.234
672.17
641.664
598.029
554.217
524.002
497.43
909.417
945.513
920.315
905.639
890.041
873.009
850.479
821.363
791.13
757.23
636.693
534.457
447.136
370.019
329.316
303.321
267.756
216.804
152.157
98.091
64.89
52.0577
48.6554
943.026
941.697
931.427
921.073
908.434
889.904
864.466
778.428
534.899
256.286
91.0654
40.9815
21.8756
18.0391
12.4525
8.91414
6.61812
4.67875
2.86461
1.2095
0.279628
0.255922
2.00272
955.251
953.741
947.602
939.852
926.869
881.607
725.527
378.014
86.6579
12.9941
16.9517
12.3059
1.93872
0.521702
0.227421
0.210167
0.20764
0.215429
0.223266
0.229841
0.227542
0.214684
0.234184
988.867
1009.36
978.512
964.208
955.55
888.855
587.416
89.0199
4.28408
2.52476
7.18983
1.52506
0.187918
0.179904
0.173296
0.182628
0.195735
0.210158
0.22673
0.241804
0.242821
0.229329
0.209171
1041.36
1028.33
983.492
874.859
686.459
356.489
50.3292
5.88612
1.72956
0.481235
0.101565
0.0825734
0.128356
0.151656
0.158415
0.170043
0.183119
0.194379
0.21297
0.230318
0.241055
0.241693
0.229786
474.253
357.824
214.06
54.5733
37.2081
11.486
0.162969
0.0247744
-0.00471716
0.0183705
0.085478
0.0988153
0.113875
0.131136
0.143309
0.154085
0.16473
0.175811
0.189642
0.238906
0.263111
0.228385
0.196731
-0.557159
-0.583322
-0.584133
-0.505599
-0.599095
-0.667514
-0.601731
-0.410331
-0.200346
-0.0343386
0.0536707
0.0824206
0.101581
0.11912
0.132538
0.143267
0.149343
0.164629
0.23194
0.285718
0.298161
0.234667
0.180116
-0.504262
-0.518464
-0.496049
-0.458744
-0.466564
-0.440657
-0.38324
-0.288828
-0.147007
-0.0432212
0.0249111
0.0639589
0.102417
0.139263
0.158828
0.167867
0.170369
0.230929
0.244965
0.312398
0.263294
0.21475
0.151242
-0.415824
-0.418944
-0.406498
-0.38644
-0.370439
-0.334951
-0.276732
-0.20383
-0.119687
-0.0481787
0.0508544
0.156891
0.206296
0.233352
0.237284
0.264947
0.233031
0.195611
0.179197
0.169399
0.156972
0.125575
0.123257
-0.338218
-0.339884
-0.334198
-0.322128
-0.301005
-0.269693
-0.224678
-0.165473
-0.100897
0.045937
0.130016
0.158832
0.122572
0.123193
0.141076
0.152508
0.134291
0.0988082
0.097747
0.10098
0.104165
0.106417
0.107153
-0.281404
-0.282084
-0.278879
-0.26943
-0.250488
-0.222545
-0.186324
-0.138399
-0.0636148
0.00855026
0.0234957
0.01486
0.0175154
0.0378171
0.0596317
0.0647879
0.0683273
0.0761548
0.0824328
0.0870081
0.0906523
0.0928497
0.0932355
-0.237635
-0.237682
-0.234774
-0.227251
-0.213159
-0.191181
-0.161857
-0.124043
-0.088974
-0.0672686
-0.0404947
-0.0162685
0.00416384
0.0220238
0.0348973
0.0451449
0.0550607
0.0635705
0.0698861
0.0746956
0.0784497
0.0805401
0.0810765
-0.203644
-0.203124
-0.200027
-0.193286
-0.181755
-0.164902
-0.143139
-0.117538
-0.092735
-0.0674968
-0.0438918
-0.0227881
-0.00434998
0.0111354
0.0240841
0.0350702
0.0445412
0.0525236
0.058868
0.0637821
0.0675287
0.0697528
0.0705821
-0.176225
-0.175458
-0.172363
-0.166275
-0.15647
-0.142711
-0.12541
-0.105861
-0.0850338
-0.0642888
-0.0445491
-0.0264195
-0.0102204
0.00392039
0.016094
0.0265515
0.0355293
0.0431148
0.0493123
0.0542275
0.0578907
0.0602823
0.0614438
-0.153545
-0.152724
-0.149818
-0.144427
-0.136087
-0.124713
-0.110668
-0.0947076
-0.0777538
-0.0606089
-0.0439879
-0.0283897
-0.0142116
-0.00144727
0.00973853
0.0194931
0.0279274
0.0351045
0.0410581
0.0458377
0.0494774
0.0519948
0.0534298
-0.134447
-0.133684
-0.131069
-0.126377
-0.119309
-0.10986
-0.0983071
-0.0851488
-0.0710584
-0.0567292
-0.0426261
-0.0291844
-0.0166553
-0.00538442
0.00474867
0.0137236
0.0215649
0.0283012
0.0339587
0.038568
0.0421569
0.0447491
0.0464003
-0.118158
-0.117521
-0.115229
-0.111196
-0.105225
-0.0973334
-0.0877372
-0.0768124
-0.0650394
-0.0529177
-0.0408737
-0.0292586
-0.0183248
-0.00826451
0.000874768
0.00906228
0.0162908
0.0225653
0.0278978
0.0323058
0.0358114
0.0384416
0.0402444
-0.104185
-0.103699
-0.101715
-0.0982683
-0.0932215
-0.0865964
-0.0785565
-0.0693889
-0.0594584
-0.0491519
-0.0388236
-0.0287662
-0.0191988
-0.0102747
-0.00207704
0.00534475
0.011964
0.0177692
0.0227595
0.0269431
0.0303354
0.0329584
0.0348618
-0.092175
-0.0917993
-0.0901067
-0.0871747
-0.0829026
-0.0773155
-0.070531
-0.0627706
-0.054323
-0.0455035
-0.0366067
-0.0278766
-0.0194964
-0.011599
-0.00427311
0.00242308
0.00845213
0.0137919
0.0184325
0.0223739
0.0256256
0.0282086
0.0301597
-0.0816626
-0.0814352
-0.0800521
-0.0775884
-0.0739805
-0.0692536
-0.0634916
-0.0568699
-0.0496268
-0.0420307
-0.0343282
-0.0267229
-0.0193704
-0.0123866
-0.00585477
0.000165977
0.00563372
0.0105207
0.0148109
0.0184988
0.021589
0.0240962
0.0260559
-0.0724171
-0.0723706
-0.0712713
-0.0692568
-0.0662371
-0.0622303
-0.057305
-0.0516066
-0.0453466
-0.0387573
-0.0320502
-0.0253985
-0.0189343
-0.0127569
-0.00694059
-0.00154107
0.00339985
0.00785236
0.0117972
0.0152252
0.018137
0.0205454
0.0224751
-0.0643908
-0.0645362
-0.0636807
-0.0620349
-0.0595117
-0.0560954
-0.0518514
-0.0468995
-0.0414408
-0.035682
-0.0298088
-0.0239685
-0.0182721
-0.0128041
-0.00762881
-0.00279629
0.00165458
0.00569449
0.00930318
0.0124696
0.0151916
0.0174766
0.0193493
-0.0574903
-0.05776
-0.0571122
-0.0557683
-0.0536425
-0.0507052
-0.0470095
-0.0426621
-0.0378574
-0.0327903
-0.0276209
-0.0224751
-0.017445
-0.0126017
-0.00799978
-0.00368263
0.000315077
0.00396616
0.00725086
0.0101572
0.012681
0.0148291
0.0166179
-0.0514355
-0.0518795
-0.0513785
-0.0500779
-0.0476579
-0.0451082
-0.0425291
-0.0388026
-0.0345403
-0.0300567
-0.025488
-0.0209426
-0.0164959
-0.0122056
-0.00811753
-0.00426858
-0.000688744
0.00259756
0.00557187
0.00822248
0.0105443
0.0125406
0.0142287
-0.0461815
-0.0467126
-0.046331
-0.0448495
-0.0421214
-0.0398234
-0.0381041
-0.0351859
-0.0314306
-0.0274507
-0.0234016
-0.0193815
-0.015451
-0.0116557
-0.00803132
-0.00460916
-0.00141506
0.00152945
0.0042076
0.00660835
0.00872636
0.010565
0.0121356
-0.0413798
-0.0420668
-0.0415808
-0.0394279
-0.0374097
-0.0350724
-0.0323303
-0.0309196
-0.028435
-0.0249363
-0.0213438
-0.01779
-0.0143234
-0.0109769
-0.0077764
-0.00474682
-0.00191076
0.000712641
0.00310821
0.00526591
0.00718046
0.00885298
0.0102964
-0.0369659
-0.0377137
-0.0370892
-0.0352078
-0.0330879
-0.0300784
-0.025182
-0.0232857
-0.0255564
-0.022461
-0.0192852
-0.0161561
-0.0131155
-0.0101833
-0.00737605
-0.00471283
-0.00221257
0.000107147
0.00223224
0.00415322
0.00586479
0.00736915
0.00867454
-0.0326493
-0.0333419
-0.0329854
-0.0312797
-0.0298783
-0.0275947
-0.0215666
-0.0192424
-0.02257
-0.0199831
-0.0171924
-0.0144635
-0.0118239
-0.00928182
-0.00684582
-0.00452954
-0.00234849
-0.000318974
0.0015453
0.00323505
0.00474517
0.00607642
0.00723844
-0.0283595
-0.02881
-0.0289513
-0.0278931
-0.0278786
-0.0259981
-0.0182388
-0.0206933
-0.0198231
-0.0174577
-0.0150383
-0.0127014
-0.0104482
-0.0082792
-0.00619795
-0.00421419
-0.00234046
-0.00059147
0.00101909
0.00248166
0.0037909
0.00494838
0.0059611
-0.0239783
-0.0241948
-0.0246354
-0.0248198
-0.02422
-0.0225953
-0.0190562
-0.0185798
-0.0168988
-0.0148479
-0.0128217
-0.0108745
-0.00899763
-0.00718773
-0.00544712
-0.00378363
-0.00220782
-0.000732428
0.000629344
0.00186743
0.00297631
0.00395722
0.0048186
-0.0197238
-0.0196099
-0.0201273
-0.0203409
-0.0196918
-0.0182372
-0.0169376
-0.0155778
-0.0139054
-0.0121949
-0.0105669
-0.00900559
-0.0074939
-0.00602857
-0.00461375
-0.00325788
-0.0019707
-0.000762841
0.000354113
0.00136962
0.00227856
0.00308341
0.0037881
-0.0154655
-0.0151399
-0.0156549
-0.0156449
-0.0149084
-0.0139653
-0.0132047
-0.0120848
-0.0108092
-0.00954225
-0.00831456
-0.00712818
-0.00596722
-0.00482964
-0.00372422
-0.00266158
-0.0016517
-0.00070398
0.000172137
0.00096698
0.0016761
0.00230115
0.00284748
-0.0113102
-0.0111587
-0.0111069
-0.0108185
-0.0102915
-0.00987507
-0.00934003
-0.00858255
-0.00776605
-0.00693766
-0.00610729
-0.00527793
-0.00444764
-0.00361955
-0.00280675
-0.00202201
-0.00127619
-0.000578722
6.22044e-05
0.000639229
0.00114816
0.00159312
0.00197903
-0.00696564
-0.00688013
-0.00661323
-0.00620286
-0.00596313
-0.0058174
-0.00553688
-0.0051906
-0.00481257
-0.00440401
-0.00395448
-0.00346681
-0.00295155
-0.00241926
-0.00188602
-0.00136609
-0.000871461
-0.000412572
1.51876e-06
0.000363595
0.000672152
0.000934702
0.00116239
-0.00220882
-0.00227143
-0.00211017
-0.00202244
-0.00193572
-0.00184154
-0.00184159
-0.00188849
-0.00193128
-0.00192232
-0.00183735
-0.00168237
-0.00147568
-0.00123553
-0.000978945
-0.000720089
-0.000470357
-0.00023993
-3.88919e-05
0.000121613
0.000230612
0.000311007
0.000379446
1032.02
1024.69
930.708
944.267
935.925
931.328
915.841
960.451
888.299
871.175
861.864
878.475
684.706
684.448
690.378
693.69
681.819
691.61
708.086
753.758
683.036
677.617
736.007
740.022
466.779
474.923
396.411
368.134
57.0485
74.4718
98.8913
113.605
4.66597
2.93337
2.94321
3.26446
0.215937
0.217187
0.216511
0.213733
0.204575
0.203223
0.21226
0.210462
0.213592
0.203725
0.197133
0.192034
0.191325
0.188066
0.181546
0.177651
0.166799
0.162386
0.159584
0.156968
0.140791
0.139409
0.137437
0.134983
0.121321
0.119732
0.117643
0.115442
0.105848
0.104509
0.102883
0.100258
0.092131
0.0910114
0.0896326
0.087666
0.0802334
0.0793248
0.0781764
0.0766264
0.0701536
0.0695916
0.0687494
0.0676228
0.061414
0.0611427
0.060637
0.0598579
0.0537306
0.0537073
0.0534707
0.0530174
0.0469583
0.0471305
0.0471248
0.0469234
0.0410029
0.0413277
0.0414914
0.041493
0.0357648
0.0362011
0.0365013
0.0366584
0.031164
0.0316839
0.0320795
0.0323549
0.0271194
0.0276921
0.0281599
0.0285202
0.0235679
0.0241733
0.0246823
0.0251002
0.0204409
0.0210565
0.0215914
0.0220435
0.017687
0.0182998
0.0188382
0.0193064
0.0152546
0.0158487
0.0163811
0.0168493
0.0131055
0.0136724
0.0141824
0.0146383
0.0111965
0.0117253
0.0122076
0.0126406
0.0094966
0.00998259
0.0104261
0.0108287
0.00797376
0.00840965
0.00881176
0.0091774
0.00660585
0.00698925
0.00734197
0.00766585
0.00536698
0.00569314
0.00599609
0.00627377
0.00423692
0.00450457
0.00475229
0.00498197
0.00319351
0.00339943
0.00359261
0.00377219
0.00222203
0.00236623
0.00249941
0.00262432
0.00130307
0.0013852
0.00146254
0.00153525
0.000415004
0.000432119
0.000447264
0.000459889
977.424
1015.85
961.87
894.663
904.464
935.72
968.648
976.117
1019.18
1088.96
1064.97
1086.04
1060.24
1055.79
963.027
909.821
880.338
925.812
924.86
1001.37
931.946
812.735
800.69
805.008
803.028
820.089
832.723
913.567
1001.75
1075.61
1057.71
974.041
857.301
812.933
811.888
809.747
796.632
781.855
875.41
754.444
729.153
746.588
774.4
747.239
741.064
792.09
777.393
784.71
843.727
855.418
820.448
842.026
807.031
868.252
873.925
763.531
764.475
688.019
687.75
693.655
698.643
695.411
668.355
769.156
817.554
817.379
798.6
815.27
840.525
790.368
734.817
805.898
814.857
843.248
766.789
733.799
708.065
690.78
688.514
689.773
690.28
688.278
694.232
665.265
672.674
674.264
713.457
736.271
710.346
705.065
702.451
692.595
752.667
758.105
728.589
750.007
699.518
685.669
685.945
687.172
687.45
687.798
693.626
691.723
698.951
694.785
707.057
706.874
703.317
699.132
701.134
572.009
778.233
719.204
427.185
544.505
595.646
619.054
623.133
627.28
625.599
623.856
638.648
673.711
701.239
717.514
715.435
714.573
677.286
649.024
605.448
629.588
687.034
115.494
122.97
131.927
148.494
150.839
140.407
133.293
141.92
160.01
221.703
312.548
374.327
391.196
334.502
247.281
217.367
265.188
209.599
269.348
4.68056
10.4117
17.7048
12.9813
12.8874
9.60073
9.13064
16.1156
24.077
21.0577
33.3986
68.8115
71.0061
58.212
29.5157
9.09506
14.9678
22.5051
16.8484
0.205778
0.173393
0.150358
0.890526
0.278233
0.329509
0.285903
0.288994
1.25407
1.36671
2.19214
0.648491
0.290099
0.133494
0.223344
0.201814
0.169103
0.155461
3.7447
0.201556
0.176984
0.154695
0.14781
0.239201
0.442605
0.601107
0.517431
0.634484
0.804231
0.825354
0.245431
0.0999354
0.221358
0.339996
0.287552
0.221187
0.140846
0.147543
0.186287
0.203865
0.195689
0.181981
0.286391
0.484986
0.522746
0.315858
0.165001
0.111266
0.172622
0.175804
0.183011
0.257333
0.390093
0.282553
0.278625
0.146362
0.150081
0.196703
0.205688
0.19843
0.187099
0.192737
0.242725
0.171638
0.0947292
0.0438621
0.0263918
0.0149312
0.0137414
0.0376118
0.165213
0.27841
0.184673
0.175409
0.150184
0.15787
0.226266
0.224335
0.217709
0.173687
0.198157
0.161434
0.0887384
0.067125
0.0486398
0.0278312
0.0184686
0.0235086
0.0748492
0.43139
0.150014
0.13971
0.310106
0.608393
0.377615
0.215711
0.240514
0.258054
0.195691
0.244255
0.250256
0.214527
0.106162
0.0519177
0.0463417
0.0408723
0.031163
0.103381
0.468461
0.347087
0.185117
0.973849
1.02939
1.03323
0.12552
0.146696
0.148195
0.156256
0.171058
0.291857
0.224849
0.207442
0.0680767
0.0575234
0.0510765
0.039183
0.0498141
0.453183
0.503799
0.272222
1.0235
1.03245
1.03509
0.0959795
0.0901939
0.0846777
0.0778839
0.127
0.215024
0.270795
0.166871
0.070958
0.08302
0.0939854
0.0569917
0.0490781
0.30171
0.486571
0.198905
0.65773
0.601803
0.653642
0.0844088
0.0793709
0.0730207
0.0701569
0.107212
0.148431
0.217905
0.196241
0.140012
0.131522
0.124463
0.0513091
0.0602786
0.185357
0.495199
0.194574
0.190201
0.184046
0.360075
0.0742816
0.0707877
0.0666823
0.0728565
0.102184
0.120466
0.128027
0.143076
0.142111
0.127008
0.0705098
0.0396244
0.0595069
0.192892
0.491073
0.161438
0.322786
0.232727
0.200861
0.0652783
0.0612021
0.0565415
0.053487
0.0537682
0.0463783
0.042617
0.0483755
0.0541936
0.0460977
0.0365511
0.037389
0.0423873
0.132227
0.2542
0.205658
0.527839
0.291085
0.431628
0.058197
0.0551173
0.0514642
0.0471395
0.0423592
0.0380934
0.0345958
0.0322472
0.0312227
0.0306929
0.0306787
0.0322654
0.0338677
0.0349207
0.0832532
0.448056
0.531448
0.313075
0.487301
0.0519364
0.0497076
0.0468684
0.0435243
0.0400017
0.0367411
0.0339459
0.031734
0.0301886
0.0293057
0.0288592
0.0291921
0.0291941
0.0272751
0.0376196
0.420635
0.144219
0.140061
0.348841
0.0463157
0.0448035
0.0427297
0.0402659
0.0376504
0.0351754
0.0330584
0.0312702
0.0298548
0.028824
0.0280875
0.02767
0.0269577
0.0251857
0.0317405
0.0845285
0.0369546
0.0450571
0.0188817
0.0412605
0.0403345
0.0389071
0.0371439
0.035238
0.0333417
0.031651
0.0302099
0.0290474
0.0281047
0.0273897
0.0268627
0.0262198
0.0251277
0.0261391
0.020952
0.0222718
0.0281321
0.0305862
0.036719
0.0362614
0.0353576
0.0341495
0.0327755
0.0314062
0.0301102
0.0289615
0.0280042
0.0272322
0.0266516
0.0262575
0.0259796
0.0257723
0.0272395
0.0261504
0.0276071
0.033696
0.0371487
0.0326384
0.0325479
0.0320583
0.031289
0.0303551
0.0293735
0.0284143
0.0275325
0.0267693
0.0261613
0.0257234
0.0255043
0.0255321
0.0259436
0.0270478
0.0279545
0.0302316
0.0331825
0.0375462
0.0289688
0.0291591
0.0289905
0.0285624
0.0279682
0.0272949
0.0266081
0.0259533
0.0253718
0.0249024
0.0245884
0.0244777
0.0246398
0.0251519
0.0265462
0.0286354
0.0306534
0.0322979
0.0364392
0.0256638
0.0260624
0.0261375
0.0259713
0.02564
0.0252122
0.0247437
0.0242778
0.0238512
0.0235049
0.0232873
0.0232217
0.0234076
0.0239744
0.0267007
0.0290668
0.0294489
0.0302875
0.0427902
0.0226819
0.0232285
0.0234834
0.0235149
0.0233854
0.0231505
0.022857
0.0225443
0.0222469
0.022
0.0218504
0.0218369
0.0220289
0.0226243
0.0240922
0.0292155
0.0315617
0.0286813
0.0431618
0.019986
0.0206303
0.0210125
0.0211894
0.0212123
0.0211269
0.0209725
0.0207832
0.0205905
0.0204231
0.0203332
0.0203442
0.0205333
0.0210497
0.0220857
0.0258872
0.0334439
0.031882
0.0399955
0.0175427
0.0182431
0.0187092
0.0189885
0.0191233
0.0191513
0.0191055
0.0190154
0.0189099
0.0188229
0.0187658
0.0187941
0.0189443
0.0194875
0.0251561
0.0308022
0.0312467
0.0320083
0.0357653
0.0153222
0.0160441
0.0165584
0.0169048
0.0171181
0.0172294
0.0172659
0.0172525
0.0172136
0.0171755
0.0171641
0.0172065
0.0173353
0.0180342
0.0302169
0.0340797
0.0314528
0.0296846
0.0274492
0.0132973
0.0140127
0.0145459
0.0149302
0.0151943
0.0153636
0.0154602
0.0155044
0.0155167
0.0155205
0.0155424
0.0156006
0.015699
0.0160234
0.0244677
0.0326538
0.0336616
0.0290261
0.0264083
0.0114435
0.0121296
0.012658
0.0130566
0.0133488
0.0135548
0.0136925
0.0137777
0.0138274
0.0138617
0.0139079
0.0139948
0.0141097
0.0142398
0.0154971
0.0292783
0.0314096
0.0326472
0.0229421
0.00973942
0.0103779
0.0108824
0.0112759
0.0115772
0.0118023
0.0119647
0.012077
0.0121518
0.0122048
0.012261
0.0123848
0.0125816
0.0127117
0.012875
0.0152209
0.0261624
0.0229366
0.0153983
0.00816561
0.00874203
0.00920718
0.00957978
0.00987454
0.0101036
0.0102771
0.0104041
0.0104941
0.0105589
0.0106174
0.0107144
0.0109657
0.0111934
0.0111927
0.0112732
0.0117304
0.0126872
0.0116801
0.00670434
0.00720733
0.00762088
0.00795973
0.00823482
0.00845494
0.00862734
0.00875858
0.00885537
0.0089258
0.00898161
0.00904677
0.00920108
0.00954666
0.00972273
0.00951694
0.0095656
0.0096754
0.00992203
0.00533907
0.00575979
0.00611206
0.00640651
0.00665068
0.0068506
0.00701128
0.00713733
0.00723332
0.00730442
0.00735746
0.00740415
0.00748218
0.00771914
0.00811482
0.00816873
0.00785244
0.00793562
0.00839612
0.00405469
0.00438567
0.00466896
0.00490983
0.00511305
0.00528262
0.00542209
0.00553467
0.00562331
0.00569069
0.00573953
0.00577423
0.0058106
0.00591472
0.00630012
0.00660551
0.00654827
0.00640472
0.00668062
0.00281968
0.00307019
0.0032796
0.00345878
0.0036121
0.00374252
0.00385256
0.0039445
0.00402008
0.00407985
0.0041224
0.00414391
0.00414616
0.00422069
0.00438544
0.00480463
0.00493225
0.00494196
0.00471472
0.00165216
0.00180755
0.0019324
0.00204237
0.00213864
0.00222264
0.00229605
0.00236062
0.00241746
0.00246582
0.00250058
0.00250362
0.00241256
0.00254215
0.00260935
0.00278517
0.00315283
0.00316446
0.00261309
0.000478629
0.000545566
0.000604033
0.000645307
0.000677823
0.000706921
0.000735572
0.000765426
0.000797837
0.000834232
0.000876628
0.000933455
0.00103606
0.000924503
0.000876858
0.000840134
0.000869257
0.000892352
0.000757139
)
;

boundaryField
{
    leftWall
    {
        type            fixedFluxPressure;
        gradient        uniform 0;
        value           nonuniform List<scalar> 
50
(
5333.66
5332.51
5332.14
5331.77
5258.48
2972.52
1399.16
1400.26
1400.19
1403.33
1407.45
1372.51
1127.75
878.034
882.117
909.417
943.026
955.251
988.867
1041.36
474.253
-0.557159
-0.504262
-0.415824
-0.338218
-0.281404
-0.237635
-0.203644
-0.176225
-0.153545
-0.134447
-0.118158
-0.104185
-0.092175
-0.0816626
-0.0724171
-0.0643908
-0.0574903
-0.0514355
-0.0461815
-0.0413798
-0.0369659
-0.0326493
-0.0283595
-0.0239783
-0.0197238
-0.0154655
-0.0113102
-0.00696564
-0.00220882
)
;
    }
    rightWall
    {
        type            fixedFluxPressure;
        gradient        uniform 0;
        value           nonuniform List<scalar> 
50
(
2987.6
2996.51
2428.49
1922.92
956.853
997.884
1022.73
1040.79
924.86
781.855
764.475
733.799
728.589
719.204
687.034
269.348
16.8484
3.7447
0.147543
0.150081
0.15787
0.377615
1.03323
1.03509
0.653642
0.360075
0.200861
0.431628
0.487301
0.348841
0.0188817
0.0305862
0.0371487
0.0375462
0.0364392
0.0427902
0.0431618
0.0399955
0.0357653
0.0274492
0.0264083
0.0229421
0.0153983
0.0116801
0.00992203
0.00839612
0.00668062
0.00471472
0.00261309
0.000757139
)
;
    }
    lowerWall
    {
        type            fixedFluxPressure;
        gradient        uniform 0;
        value           nonuniform List<scalar> 
62
(
5333.66
5334.21
5338.51
5350.06
5371.77
5405.06
5449.72
5504.19
5565.91
5632.15
5700.67
5769.62
5837.28
5902.2
5963.49
6021.15
6075.38
6126.03
6172.07
6212.65
6247.51
6275.14
6292.16
6292.16
6291.96
6290.69
6287.46
6282.18
6240.91
5598.04
1998.05
1032.02
1024.69
930.708
944.267
2992.86
2997.83
2575.72
1394.13
978.405
985.347
961.415
947.724
2992.86
2956.88
2909.99
2871.31
2866.02
2897.39
2953.69
3017.07
3069.24
3088.52
3052.15
2960.6
2832.55
2728.14
2694.43
2732.4
2832.31
2921.96
2987.6
)
;
    }
    atmosphere
    {
        type            totalPressure;
        rho             rho;
        psi             none;
        gamma           1;
        p0              uniform 0;
        value           nonuniform List<scalar> 
46
(
0
0
0
0
0
-2.54152e-05
-0.000175048
-0.000387725
-0.000608887
-0.000768355
-0.000839894
-0.000834327
-0.000770798
-0.000670512
-0.000549982
-0.000421722
-0.000295048
-0.000177972
-7.9842e-05
-1.4974e-05
0
0
0
0
0
0
0
0
-5.17142e-06
-1.94813e-05
-3.50423e-05
-4.72067e-05
-5.41721e-05
-5.56477e-05
-5.19534e-05
-4.3596e-05
-3.12781e-05
-1.65708e-05
-3.56613e-06
0
0
0
0
0
0
0
)
;
    }
    defaultFaces
    {
        type            empty;
    }
}


// ************************************************************************* //
