/*--------------------------------*- C++ -*----------------------------------*\
| =========                 |                                                 |
| \\      /  F ield         | OpenFOAM: The Open Source CFD Toolbox           |
|  \\    /   O peration     | Version:  2312                                  |
|   \\  /    A nd           | Website:  www.openfoam.com                      |
|    \\/     M anipulation  |                                                 |
\*---------------------------------------------------------------------------*/
FoamFile
{
    version     2.0;
    format      ascii;
    arch        "LSB;label=32;scalar=64";
    class       surfaceScalarField;
    location    "3.55";
    object      phi;
}
// * * * * * * * * * * * * * * * * * * * * * * * * * * * * * * * * * * * * * //

dimensions      [0 3 -1 0 0 0 0];

oriented        oriented;

internalField   nonuniform List<scalar> 
4432
(
1.07622e-06
-1.07621e-06
1.49985e-06
-4.23629e-07
1.88657e-06
-3.86721e-07
2.3181e-06
-4.31537e-07
2.82938e-06
-5.11289e-07
3.42994e-06
-6.00564e-07
4.1244e-06
-6.94472e-07
4.9035e-06
-7.79117e-07
5.74461e-06
-8.41111e-07
6.61705e-06
-8.72445e-07
7.49195e-06
-8.74901e-07
8.33626e-06
-8.44302e-07
9.10792e-06
-7.71658e-07
9.75223e-06
-6.44299e-07
1.02012e-05
-4.48975e-07
1.03637e-05
-1.62481e-07
1.01491e-05
2.14644e-07
9.49338e-06
6.55681e-07
8.37068e-06
1.1227e-06
6.75852e-06
1.61216e-06
4.69693e-06
2.06158e-06
2.26238e-06
2.43455e-06
2.26238e-06
2.86256e-07
-1.36246e-06
6.45825e-07
-7.83193e-07
1.05052e-06
-7.91416e-07
1.52989e-06
-9.10916e-07
2.10738e-06
-1.08878e-06
2.77816e-06
-1.27136e-06
3.54493e-06
-1.46126e-06
4.39614e-06
-1.63034e-06
5.30398e-06
-1.74897e-06
6.23684e-06
-1.80531e-06
7.16583e-06
-1.80388e-06
8.05927e-06
-1.73773e-06
8.87591e-06
-1.58826e-06
9.56373e-06
-1.3321e-06
1.00565e-05
-9.41751e-07
1.02635e-05
-3.6946e-07
1.0081e-05
3.97153e-07
9.45576e-06
1.28098e-06
8.36408e-06
2.21438e-06
6.77698e-06
3.19926e-06
4.73053e-06
4.10803e-06
2.31367e-06
4.8514e-06
4.57603e-06
-3.34629e-08
-1.32898e-06
2.17325e-07
-1.03398e-06
5.61449e-07
-1.13554e-06
1.01584e-06
-1.36531e-06
1.58321e-06
-1.65616e-06
2.25783e-06
-1.946e-06
3.04846e-06
-2.25189e-06
3.93939e-06
-2.52129e-06
4.89247e-06
-2.70206e-06
5.87035e-06
-2.78319e-06
6.84758e-06
-2.7811e-06
7.79185e-06
-2.682e-06
8.66363e-06
-2.46004e-06
9.41367e-06
-2.08213e-06
9.98018e-06
-1.50826e-06
1.02569e-05
-6.46145e-07
1.01307e-05
5.23281e-07
9.56472e-06
1.847e-06
8.54127e-06
3.23782e-06
7.0097e-06
4.73082e-06
4.98902e-06
6.1287e-06
2.56515e-06
7.27526e-06
7.14117e-06
-1.02164e-07
-1.2268e-06
6.73952e-08
-1.20352e-06
3.51584e-07
-1.41972e-06
7.46717e-07
-1.76044e-06
1.25159e-06
-2.16103e-06
1.88137e-06
-2.57577e-06
2.66401e-06
-3.03453e-06
3.56856e-06
-3.42584e-06
4.53818e-06
-3.67166e-06
5.53057e-06
-3.77558e-06
6.53259e-06
-3.78311e-06
7.51595e-06
-3.66535e-06
8.43696e-06
-3.38103e-06
9.25114e-06
-2.8963e-06
9.91485e-06
-2.17196e-06
1.03015e-05
-1.03278e-06
1.02496e-05
5.75153e-07
9.77217e-06
2.32445e-06
8.85269e-06
4.1573e-06
7.3952e-06
6.18831e-06
5.36982e-06
8.15408e-06
2.81387e-06
9.83121e-06
9.95504e-06
8.89251e-09
-1.23569e-06
2.19699e-07
-1.41432e-06
5.02639e-07
-1.70266e-06
8.38308e-07
-2.09611e-06
1.23662e-06
-2.55935e-06
1.75924e-06
-3.09839e-06
2.48241e-06
-3.75771e-06
3.35347e-06
-4.29689e-06
4.26989e-06
-4.58809e-06
5.17298e-06
-4.67867e-06
6.09797e-06
-4.7081e-06
7.05629e-06
-4.62368e-06
8.01039e-06
-4.33514e-06
8.89422e-06
-3.78013e-06
9.67981e-06
-2.95757e-06
1.01765e-05
-1.52949e-06
1.01886e-05
5.63001e-07
9.80095e-06
2.71215e-06
9.06355e-06
4.89469e-06
7.75346e-06
7.49839e-06
5.78163e-06
1.01259e-05
2.99409e-06
1.26187e-05
1.29491e-05
4.17229e-07
-1.65278e-06
7.68274e-07
-1.76527e-06
1.16433e-06
-2.09862e-06
1.56751e-06
-2.49922e-06
1.95811e-06
-2.94987e-06
2.41062e-06
-3.55084e-06
3.03604e-06
-4.38306e-06
3.7511e-06
-5.01188e-06
4.4691e-06
-5.30603e-06
5.07316e-06
-5.28267e-06
5.61867e-06
-5.25357e-06
6.21646e-06
-5.22144e-06
6.92526e-06
-5.04391e-06
7.71069e-06
-4.56555e-06
8.5678e-06
-3.81467e-06
9.1667e-06
-2.12838e-06
9.3004e-06
4.29303e-07
8.99878e-06
3.01377e-06
8.52848e-06
5.365e-06
7.46425e-06
8.56264e-06
5.72156e-06
1.18686e-05
3.13376e-06
1.52066e-05
1.60829e-05
2.33019e-06
-3.98279e-06
3.55509e-06
-2.98997e-06
4.76666e-06
-3.31001e-06
5.97314e-06
-3.70554e-06
6.83109e-06
-3.80768e-06
6.93995e-06
-3.65954e-06
6.30104e-06
-3.74401e-06
5.40774e-06
-4.11843e-06
5.14667e-06
-5.04483e-06
5.20855e-06
-5.34444e-06
5.30024e-06
-5.34517e-06
5.3256e-06
-5.24671e-06
5.62024e-06
-5.33849e-06
6.17897e-06
-5.12422e-06
6.79291e-06
-4.42857e-06
7.47217e-06
-2.80761e-06
8.3359e-06
-4.34413e-07
8.63073e-06
2.71896e-06
8.02033e-06
5.97541e-06
7.18468e-06
9.39832e-06
5.41196e-06
1.36414e-05
3.00668e-06
1.76119e-05
1.90896e-05
1.93034e-06
-5.91294e-06
3.02026e-06
-4.07974e-06
3.84001e-06
-4.12965e-06
4.52001e-06
-4.38545e-06
5.10121e-06
-4.38879e-06
5.53526e-06
-4.09351e-06
5.24088e-06
-3.44957e-06
4.54966e-06
-3.42715e-06
4.42977e-06
-4.92488e-06
4.40723e-06
-5.32184e-06
4.22445e-06
-5.16234e-06
3.15323e-06
-4.17545e-06
2.24088e-06
-4.42612e-06
2.0865e-06
-4.96983e-06
3.17319e-06
-5.51525e-06
4.7542e-06
-4.38862e-06
7.35483e-06
-3.03504e-06
8.82558e-06
1.24821e-06
7.873e-06
6.92801e-06
6.76491e-06
1.05064e-05
5.64616e-06
1.47602e-05
3.83787e-06
1.94202e-05
2.29275e-05
1.58578e-06
-1.58578e-06
2.31378e-06
-7.2799e-07
2.51564e-06
-2.0185e-07
3.12454e-06
-6.08898e-07
4.17861e-06
-1.05407e-06
5.30814e-06
-1.12953e-06
6.50027e-06
-1.19213e-06
7.59854e-06
-1.09827e-06
8.55168e-06
-9.5314e-07
8.86337e-06
-3.11693e-07
8.54191e-06
3.21456e-07
7.19806e-06
1.34385e-06
4.81471e-06
2.38335e-06
2.57016e-06
2.24454e-06
1.11219e-06
1.45796e-06
-1.83498e-07
1.29569e-06
-1.13284e-06
9.49339e-07
-1.13771e-06
4.86495e-09
-1.13772e-06
2.31623e-06
-3.90201e-06
3.10596e-06
-1.51771e-06
3.60308e-06
-6.98957e-07
4.17646e-06
-1.18227e-06
5.32368e-06
-2.20128e-06
6.82719e-06
-2.63303e-06
8.40452e-06
-2.76944e-06
9.71183e-06
-2.40558e-06
1.06515e-05
-1.89278e-06
1.09392e-05
-5.99453e-07
1.06253e-05
6.35382e-07
8.71879e-06
3.25037e-06
5.50252e-06
5.59963e-06
2.49647e-06
5.2506e-06
5.96253e-07
3.35819e-06
-6.7983e-07
2.57178e-06
-1.32856e-06
1.59807e-06
-1.14829e-06
-1.75412e-07
-2.28601e-06
1.2671e-06
-5.1691e-06
2.33143e-06
-2.58203e-06
3.17121e-06
-1.5387e-06
3.92809e-06
-1.93912e-06
5.04158e-06
-3.31473e-06
6.46205e-06
-4.05349e-06
8.064e-06
-4.37138e-06
9.80333e-06
-4.1449e-06
1.08147e-05
-2.90414e-06
1.1495e-05
-1.27978e-06
1.14707e-05
6.59727e-07
8.92073e-06
5.80032e-06
5.77299e-06
8.74736e-06
3.08348e-06
7.9401e-06
4.68858e-07
5.97279e-06
-1.6806e-06
4.72121e-06
-2.56301e-06
2.48047e-06
-1.80447e-06
-9.33968e-07
-4.09048e-06
-8.81132e-07
-4.28793e-06
-9.08191e-08
-3.37229e-06
2.68129e-06
-4.31075e-06
4.12421e-06
-3.38195e-06
3.91676e-06
-3.10718e-06
4.37457e-06
-4.51121e-06
6.2415e-06
-6.23824e-06
1.03349e-05
-8.23823e-06
1.28659e-05
-5.43511e-06
1.26093e-05
-1.02315e-06
1.06189e-05
2.6502e-06
7.15213e-06
9.2671e-06
7.97264e-06
7.92687e-06
1.05918e-05
5.32094e-06
8.93995e-06
7.62467e-06
4.59937e-06
9.0618e-06
1.60709e-06
5.47275e-06
5.214e-07
1.51714e-07
-3.56909e-06
-9.41506e-06
5.12717e-06
-8.53771e-06
-4.24959e-06
-1.42842e-06
-1.142e-05
2.24383e-06
-7.05416e-06
2.68793e-06
-3.55125e-06
2.9308e-06
-4.75406e-06
3.49798e-06
-6.80541e-06
8.03518e-06
-1.27754e-05
1.40912e-05
-1.14911e-05
5.72286e-06
7.34514e-06
-3.26755e-06
1.16406e-05
-5.66543e-07
6.56605e-06
6.96048e-06
3.99828e-07
1.16872e-05
5.94194e-07
1.49039e-05
4.40796e-06
1.65165e-05
7.44913e-06
1.51006e-05
6.88859e-06
7.42866e-06
7.82362e-06
3.85952e-06
-8.96207e-06
1.40893e-05
-4.44855e-06
-8.76307e-06
9.049e-07
-1.67734e-05
2.10596e-06
-8.25517e-06
1.4937e-06
-2.93893e-06
1.40341e-06
-4.66372e-06
1.92149e-06
-7.32342e-06
2.20878e-06
-1.30627e-05
7.82731e-06
-1.71096e-05
1.39406e-06
1.37785e-05
-1.33264e-06
1.43673e-05
4.10144e-06
1.13201e-06
8.75303e-06
-4.25174e-06
1.04754e-05
-1.12812e-06
1.09451e-05
3.93822e-06
1.03313e-05
8.06292e-06
9.27634e-06
7.94359e-06
5.14067e-06
1.19593e-05
9.00021e-06
-3.83279e-06
1.79222e-05
8.65476e-07
-1.34613e-05
3.69684e-06
-1.96047e-05
3.31153e-06
-7.86979e-06
1.88928e-06
-1.51661e-06
7.48314e-07
-3.52268e-06
4.54592e-07
-7.02963e-06
-1.97203e-06
-1.0636e-05
-3.84076e-07
-1.86975e-05
7.21174e-07
1.26733e-05
3.15028e-06
1.19383e-05
8.26999e-06
-3.98765e-06
9.86331e-06
-5.84504e-06
8.55659e-06
1.78617e-07
5.32073e-06
7.17409e-06
4.00391e-06
9.37975e-06
4.54377e-06
7.40372e-06
3.24904e-06
1.3254e-05
1.22492e-05
1.07756e-06
1.68446e-05
5.17756e-06
-1.75612e-05
5.15106e-06
-1.95782e-05
3.70651e-06
-6.4252e-06
2.09025e-06
9.96965e-08
2.32948e-07
-1.66534e-06
-9.9321e-07
-5.80343e-06
-4.12177e-06
-7.50737e-06
-7.00411e-06
-1.58151e-05
-4.45485e-07
6.11467e-06
4.66275e-06
6.83008e-06
8.59023e-06
-7.91511e-06
7.91611e-06
-5.17091e-06
5.35049e-06
2.74424e-06
1.37292e-06
1.11517e-05
3.46896e-07
1.04058e-05
1.90286e-06
5.84776e-06
1.71177e-06
1.34451e-05
1.3961e-05
2.71839e-07
-6.18468e-06
1.92212e-07
-4e-06
-1.22954e-06
-2.70779e-06
-2.58366e-06
-3.03124e-06
-3.58237e-06
-3.39001e-06
-4.6336e-06
-3.04223e-06
-5.16637e-06
-2.91674e-06
-4.75957e-06
-3.8339e-06
-4.56033e-06
-5.12409e-06
-4.63932e-06
-5.24283e-06
-4.47326e-06
-5.3284e-06
-3.56874e-06
-5.07998e-06
-2.89548e-06
-5.09941e-06
-1.58916e-06
-6.27618e-06
2.4893e-06
-9.59374e-06
7.27053e-06
-9.16988e-06
9.08629e-06
-4.85083e-06
8.85327e-06
1.48122e-06
9.67332e-06
6.10797e-06
1.15669e-05
8.61291e-06
1.59137e-05
1.04133e-05
2.24745e-05
1.28595e-05
1.37716e-05
3.16303e-05
-6.42494e-06
2.404e-07
-8.81351e-06
-1.61134e-06
-8.1827e-06
-3.33852e-06
-6.4321e-06
-4.78178e-06
-4.80664e-06
-5.01542e-06
-3.86848e-06
-3.98035e-06
-3.68529e-06
-3.09991e-06
-4.64553e-06
-2.87365e-06
-5.68051e-06
-4.08912e-06
-5.24396e-06
-5.67941e-06
-3.31804e-06
-7.25436e-06
-1.09689e-06
-7.30119e-06
5.51558e-07
-6.74791e-06
1.86956e-06
-7.59425e-06
2.16327e-06
-9.8875e-06
1.77684e-06
-8.78351e-06
-1.02026e-06
-2.05378e-06
-3.25769e-06
3.7186e-06
-5.11236e-06
7.96259e-06
-7.684e-06
1.11845e-05
-6.84489e-06
9.57419e-06
-9.24298e-07
6.93881e-06
5.13648e-06
7.71083e-06
-5.64928e-06
5.88973e-06
-6.84443e-06
-4.16131e-07
-4.01996e-06
-6.16294e-06
-1.71434e-06
-7.08736e-06
-1.14359e-06
-5.58615e-06
-2.11726e-06
-3.00667e-06
-3.84652e-06
-1.37064e-06
-6.11077e-06
-6.09417e-07
-7.43454e-06
-2.76538e-06
-6.19264e-06
-6.92136e-06
-3.6063e-06
-9.84077e-06
-1.19361e-06
-9.71396e-06
8.14225e-07
-8.75584e-06
1.76575e-06
-8.54587e-06
6.34127e-07
-8.75597e-06
-1.34372e-06
-6.80575e-06
-5.79764e-06
2.40004e-06
-1.14413e-05
9.36214e-06
-1.60763e-05
1.25976e-05
-1.89582e-05
1.40663e-05
-1.92956e-05
9.91143e-06
-1.72554e-05
4.89858e-06
-1.65124e-06
-1.04677e-05
-6.69037e-06
1.25802e-05
-9.56286e-06
2.45642e-06
-8.23613e-06
-7.48962e-06
-8.29922e-06
-7.02423e-06
-9.36972e-06
-4.51563e-06
-1.0654e-05
-1.72235e-06
-1.18724e-05
-1.52336e-07
-1.26228e-05
1.4101e-07
-1.23688e-05
-3.01948e-06
-1.03152e-05
-8.97505e-06
-7.80109e-06
-1.23549e-05
-5.61923e-06
-1.18959e-05
-3.6551e-06
-1.07201e-05
-3.45638e-07
-1.18555e-05
-2.08062e-07
-8.89367e-06
-4.15751e-06
-2.85643e-06
-7.28759e-06
5.52997e-06
-1.21842e-05
1.42586e-05
-1.54851e-05
1.58983e-05
-1.13992e-05
9.98022e-06
-4.0468e-06
2.55889e-06
3.9573e-07
4.55926e-07
-1.57981e-06
3.24145e-07
-3.4309e-06
1.60111e-05
-3.96924e-06
2.9948e-06
-5.34276e-06
-6.11606e-06
-9.64439e-06
-2.72258e-06
-1.39575e-05
-2.02471e-07
-1.68906e-05
1.21072e-06
-1.91996e-05
2.15655e-06
-1.96504e-05
5.91724e-07
-1.82804e-05
-4.38955e-06
-1.68192e-05
-1.04363e-05
-1.56519e-05
-1.35223e-05
-1.47581e-05
-1.27898e-05
-1.3962e-05
-1.15164e-05
-1.18834e-05
-1.39342e-05
-1.13801e-05
-9.3971e-06
-1.48679e-05
6.31146e-07
-1.57229e-05
6.38472e-06
-1.26128e-05
1.11483e-05
-4.87821e-06
8.16351e-06
4.23939e-06
8.62489e-07
1.02774e-05
-3.47926e-06
1.28727e-05
-2.13947e-06
-8.15519e-07
1.21084e-05
5.73634e-06
1.02748e-05
1.16005e-05
-2.86926e-06
1.16747e-05
-6.19027e-06
7.31038e-06
1.64174e-06
9.53466e-07
6.15441e-06
-4.31515e-06
6.47928e-06
-8.66641e-06
6.50772e-06
-1.22996e-05
4.22483e-06
-1.52778e-05
-1.41144e-06
-1.82083e-05
-7.50593e-06
-2.10504e-05
-1.06803e-05
-2.35166e-05
-1.03237e-05
-2.52989e-05
-9.73425e-06
-2.65167e-05
-1.27166e-05
-2.53736e-05
-1.05404e-05
-2.00944e-05
-4.64828e-06
-1.21772e-05
-1.53268e-06
-1.45475e-07
-8.83533e-07
1.31579e-05
-5.13993e-06
2.1696e-05
-7.67574e-06
2.44702e-05
-6.2535e-06
2.58623e-05
-3.53155e-06
-1.05405e-06
2.61008e-05
6.77534e-06
3.49954e-06
1.16155e-05
-7.70933e-06
1.12981e-05
-5.87285e-06
1.16955e-05
1.24435e-06
1.07571e-05
7.09285e-06
7.97827e-06
9.25803e-06
4.35988e-06
1.01261e-05
-8.84114e-07
9.46885e-06
-8.66902e-06
6.37347e-06
-1.75635e-05
1.38852e-06
-2.55906e-05
-2.65323e-06
-3.03716e-05
-5.54281e-06
-3.05659e-05
-9.54006e-06
-2.82694e-05
-1.50131e-05
-2.28337e-05
-1.59762e-05
-1.29066e-05
-1.45754e-05
-6.07078e-07
-1.38322e-05
1.28039e-05
-1.42945e-05
2.28227e-05
-1.51588e-05
2.84697e-05
-1.33226e-05
3.12709e-05
-9.05475e-06
3.19255e-05
-4.18611e-06
3.44342e-07
3.05271e-05
4.60136e-06
-1.10169e-06
6.42072e-06
-9.52861e-06
7.13502e-06
-6.58712e-06
8.79921e-06
-4.19805e-07
1.014e-05
5.75209e-06
8.84272e-06
1.05554e-05
4.52769e-06
1.44412e-05
-3.86942e-06
1.78661e-05
-1.50371e-05
1.75412e-05
-2.58901e-05
1.22416e-05
-3.33316e-05
4.78841e-06
-3.51089e-05
-3.76538e-06
-3.27538e-05
-1.18947e-05
-2.84334e-05
-1.93332e-05
-2.1393e-05
-2.30162e-05
-1.16219e-05
-2.43463e-05
5.31319e-07
-2.59854e-05
1.39015e-05
-2.76647e-05
2.52935e-05
-2.65508e-05
3.38524e-05
-2.18815e-05
3.87645e-05
-1.39665e-05
3.86332e-05
-4.05484e-06
9.70804e-06
2.92693e-05
2.77179e-06
-3.87346e-06
4.5867e-06
-1.13435e-05
6.81505e-06
-8.8154e-06
9.91848e-06
-3.52315e-06
1.17555e-05
3.91523e-06
1.08931e-05
1.14179e-05
6.89398e-06
1.84406e-05
1.05774e-06
2.37027e-05
-6.75372e-06
2.53532e-05
-1.78483e-05
2.33379e-05
-2.35339e-05
1.04748e-05
-2.48104e-05
-2.48877e-06
-2.95761e-05
-7.12904e-06
-2.70533e-05
-2.18562e-05
-2.07299e-05
-2.93401e-05
-1.27081e-05
-3.23685e-05
-6.46871e-06
-3.22251e-05
-1.09746e-06
-3.30363e-05
4.74609e-06
-3.23947e-05
1.02017e-05
-2.73376e-05
1.13561e-05
-1.51217e-05
1.05658e-05
-3.26612e-06
8.03626e-06
1.22364e-05
4.86744e-06
-8.7409e-06
9.6081e-06
-1.60841e-05
1.47209e-05
-1.39281e-05
2.04308e-05
-9.23286e-06
2.72012e-05
-2.85498e-06
3.46432e-05
3.97609e-06
4.31173e-05
9.96673e-06
5.62203e-05
1.06001e-05
3.85609e-05
4.30169e-05
-3.2296e-05
9.41978e-05
-6.1858e-05
4.00386e-05
-6.7723e-05
3.37665e-06
-5.63017e-05
-1.85513e-05
-5.27813e-05
-2.53784e-05
-5.33683e-05
-2.87552e-05
-5.45539e-05
-3.11844e-05
-5.49796e-05
-3.18006e-05
-5.65501e-05
-3.14666e-05
-5.90459e-05
-2.98995e-05
-6.11853e-05
-2.51988e-05
-5.85095e-05
-1.77985e-05
-5.30694e-05
-8.70705e-06
2.18879e-06
-4.72246e-05
1.04111e-05
-1.9152e-05
1.94871e-05
-2.51602e-05
2.99584e-05
-2.43993e-05
4.21726e-05
-2.14469e-05
5.93854e-05
-2.00677e-05
8.45849e-05
-2.12234e-05
0.000128035
-3.34832e-05
0.000134732
3.90411e-06
0.00010058
7.71659e-05
6.18874e-05
0.000132896
2.78664e-05
7.40674e-05
1.06222e-05
2.06222e-05
-4.73216e-06
-3.19725e-06
-1.5934e-05
-1.41778e-05
-2.17928e-05
-2.28977e-05
-2.50863e-05
-2.78922e-05
-2.78003e-05
-2.90876e-05
-3.20823e-05
-2.71853e-05
-3.85864e-05
-2.3396e-05
-4.57654e-05
-1.80197e-05
-5.15449e-05
-1.20191e-05
-5.54052e-05
-4.84736e-06
3.57005e-06
-5.67881e-05
1.63242e-05
-3.5476e-05
3.04204e-05
-3.92563e-05
4.66404e-05
-4.06191e-05
6.50955e-05
-3.99017e-05
9.29432e-05
-4.79149e-05
0.000126007
-5.42867e-05
0.000125141
-3.26174e-05
9.19725e-05
3.70661e-05
6.92412e-05
9.99018e-05
7.70998e-05
0.000125048
6.89762e-05
8.21943e-05
5.65679e-05
3.30319e-05
4.42388e-05
9.132e-06
3.58456e-05
-5.78515e-06
2.80117e-05
-1.50646e-05
2.04184e-05
-2.02997e-05
1.31524e-05
-2.18222e-05
6.24128e-06
-2.02748e-05
-3.31928e-07
-1.68231e-05
-5.96768e-06
-1.23839e-05
-1.17736e-05
-6.21326e-06
-1.75732e-05
9.52075e-07
9.42568e-06
-2.34308e-05
2.37265e-05
-5.9201e-05
4.64754e-05
-6.19956e-05
7.44994e-05
-6.86332e-05
8.60056e-05
-5.14021e-05
0.000114285
-7.61929e-05
9.44219e-05
-3.44203e-05
4.42095e-05
1.75965e-05
9.42346e-06
7.18547e-05
2.27857e-05
8.6546e-05
5.03935e-05
9.74426e-05
6.15972e-05
7.09917e-05
5.81994e-05
3.643e-05
5.50372e-05
1.22938e-05
5.1535e-05
-2.28347e-06
4.70302e-05
-1.05605e-05
4.13628e-05
-1.4633e-05
3.51411e-05
-1.56011e-05
2.93712e-05
-1.45055e-05
2.51469e-05
-1.2599e-05
2.336e-05
-1.0597e-05
2.32065e-05
-6.0598e-06
2.20604e-05
2.09769e-06
1.11978e-05
2.02867e-05
1.86058e-05
-7.77991e-05
2.53807e-05
-6.87639e-05
1.49903e-05
-5.82363e-05
-1.1385e-06
-3.52676e-05
-3.48659e-05
-4.24609e-05
-5.47623e-05
-1.45211e-05
-4.87412e-05
1.15782e-05
-2.65568e-05
4.96743e-05
-4.10448e-06
6.40923e-05
2.54233e-05
6.7914e-05
4.44207e-05
5.19936e-05
5.12924e-05
2.95576e-05
5.22264e-05
1.13592e-05
5.01443e-05
-2.02045e-07
4.62038e-05
-6.6207e-06
4.10552e-05
-9.4849e-06
3.54455e-05
-9.992e-06
3.05981e-05
-9.65863e-06
2.71259e-05
-9.12707e-06
2.59148e-05
-9.38573e-06
2.61947e-05
-6.33989e-06
2.81288e-05
1.63559e-07
7.93371e-06
3.13913e-05
-5.54464e-06
-7.22495e-05
-1.50328e-05
-5.92787e-05
-2.68859e-05
-4.63865e-05
-3.32845e-05
-2.88688e-05
-5.53719e-05
-2.03709e-05
-5.72401e-05
-1.26523e-05
-5.24694e-05
6.80729e-06
-3.49186e-05
3.2123e-05
-1.1341e-05
4.05126e-05
1.33318e-05
4.32391e-05
3.13863e-05
3.39375e-05
4.04995e-05
2.04433e-05
4.24533e-05
9.40456e-06
4.03372e-05
1.91347e-06
3.59714e-05
-2.25548e-06
3.12012e-05
-4.71518e-06
2.6423e-05
-5.21424e-06
2.2197e-05
-5.43302e-06
1.9008e-05
-5.93837e-06
1.715e-05
-7.52768e-06
1.68531e-05
-6.04294e-06
1.92791e-05
-2.26301e-06
2.49799e-06
2.47135e-05
-1.06675e-05
-6.15789e-05
-1.95134e-05
-5.04301e-05
-2.71232e-05
-3.87744e-05
-3.03438e-05
-2.56465e-05
-3.63578e-05
-1.43561e-05
-3.96944e-05
-9.31584e-06
-3.69566e-05
4.0683e-06
-2.43317e-05
1.94965e-05
-9.69877e-06
2.58776e-05
7.39966e-06
2.61387e-05
2.05093e-05
2.08264e-05
2.68496e-05
1.41021e-05
2.70934e-05
9.16007e-06
2.41168e-05
4.88958e-06
2.02551e-05
1.6058e-06
1.64964e-05
-9.56843e-07
1.3068e-05
-1.78615e-06
9.75255e-06
-2.11796e-06
7.58433e-06
-3.77036e-06
5.81817e-06
-5.76146e-06
5.80465e-06
-6.02954e-06
8.34903e-06
-4.80749e-06
-2.93233e-06
1.37778e-05
-1.06247e-05
-5.09543e-05
-1.78541e-05
-4.32008e-05
-2.28571e-05
-3.37716e-05
-2.52706e-05
-2.32333e-05
-2.63692e-05
-1.3258e-05
-2.81399e-05
-7.54591e-06
-2.65263e-05
2.4536e-06
-1.92864e-05
1.22552e-05
-1.00391e-05
1.66288e-05
6.1735e-07
1.54811e-05
8.07566e-06
1.33671e-05
1.07432e-05
1.14339e-05
9.88801e-06
1.00147e-05
7.5539e-06
7.22328e-06
5.28233e-06
3.87703e-06
3.29116e-06
1.03402e-06
1.88617e-06
-3.81458e-07
1.21353e-06
-1.4456e-06
8.42322e-07
-3.39936e-06
4.50461e-07
-5.3695e-06
9.82569e-07
-6.56165e-06
3.17616e-06
-7.00154e-06
-6.66078e-06
6.90326e-06
-8.49374e-06
-4.24634e-05
-1.5421e-05
-3.62758e-05
-2.03901e-05
-2.88043e-05
-2.3035e-05
-2.05899e-05
-2.36203e-05
-1.2674e-05
-2.49157e-05
-6.25149e-06
-2.38397e-05
1.37676e-06
-1.93861e-05
7.80084e-06
-1.32917e-05
1.05335e-05
-8.1724e-06
1.0361e-05
-4.73828e-06
9.93223e-06
-2.85562e-06
9.55068e-06
-1.77191e-06
8.93058e-06
-1.44466e-06
6.89572e-06
-1.44546e-06
3.87757e-06
-1.63755e-06
1.22587e-06
-1.44715e-06
-5.721e-07
-7.67498e-07
-2.1255e-06
-3.41867e-07
-3.82513e-06
-2.46501e-07
-5.46477e-06
-3.88631e-08
-6.76937e-06
7.87083e-07
-7.82755e-06
-8.43473e-06
2.55961e-06
-7.53453e-06
-3.49317e-05
-1.38303e-05
-2.9983e-05
-1.86638e-05
-2.39733e-05
-2.17171e-05
-1.75386e-05
-2.31291e-05
-1.12636e-05
-2.38892e-05
-5.49249e-06
-2.27516e-05
2.38323e-07
-1.95892e-05
4.63777e-06
-1.58364e-05
6.78016e-06
-1.27633e-05
7.28735e-06
-1.01529e-05
7.32133e-06
-7.78274e-06
7.1802e-06
-5.44218e-06
6.58974e-06
-3.50225e-06
4.95558e-06
-2.2227e-06
2.59783e-06
-1.47179e-06
4.74784e-07
-8.16546e-07
-1.22752e-06
-3.19795e-07
-2.62243e-06
-1.40656e-07
-4.0044e-06
-2.73029e-07
-5.33226e-06
-4.93668e-07
-6.5487e-06
-6.06914e-07
-7.71465e-06
-8.70384e-06
-3.38989e-07
-6.49737e-06
-2.84383e-05
-1.21867e-05
-2.42969e-05
-1.67117e-05
-1.9451e-05
-1.97533e-05
-1.44992e-05
-2.13828e-05
-9.63576e-06
-2.18119e-05
-5.06448e-06
-2.06788e-05
-8.9558e-07
-1.82542e-05
2.2126e-06
-1.53936e-05
3.91904e-06
-1.27142e-05
4.60757e-06
-1.02196e-05
4.82644e-06
-7.76058e-06
4.72095e-06
-5.29322e-06
4.12218e-06
-3.15919e-06
2.8214e-06
-1.72596e-06
1.16447e-06
-8.56099e-07
-3.95201e-07
-3.59005e-07
-1.72474e-06
-1.00592e-07
-2.88099e-06
-1.3156e-07
-3.9735e-06
-4.32177e-07
-5.03151e-06
-9.30974e-07
-6.04992e-06
-1.5682e-06
-7.07745e-06
-8.04859e-06
-2.22464e-06
-5.78244e-06
-2.26584e-05
-1.08465e-05
-1.92354e-05
-1.48044e-05
-1.54953e-05
-1.74898e-05
-1.18157e-05
-1.88793e-05
-8.24775e-06
-1.90582e-05
-4.88658e-06
-1.8005e-05
-1.94959e-06
-1.60259e-05
2.32981e-07
-1.36734e-05
1.56622e-06
-1.13167e-05
2.25054e-06
-9.03014e-06
2.53963e-06
-6.77673e-06
2.46736e-06
-4.66457e-06
2.00989e-06
-2.92846e-06
1.08519e-06
-1.74185e-06
-2.2225e-08
-1.02514e-06
-1.11198e-06
-6.40749e-07
-2.10923e-06
-5.05225e-07
-3.0166e-06
-6.10295e-07
-3.86847e-06
-9.53456e-07
-4.68816e-06
-1.5208e-06
-5.4825e-06
-2.32504e-06
-6.27341e-06
-6.99381e-06
-3.38076e-06
-5.15581e-06
-1.75054e-05
-9.66503e-06
-1.47283e-05
-1.31284e-05
-1.20338e-05
-1.54383e-05
-9.5073e-06
-1.66044e-05
-7.08287e-06
-1.6686e-05
-4.80596e-06
-1.58023e-05
-2.83392e-06
-1.42344e-05
-1.33539e-06
-1.23489e-05
-3.19588e-07
-1.03814e-05
2.8281e-07
-8.41819e-06
5.76252e-07
-6.55874e-06
6.07796e-07
-4.84659e-06
2.97671e-07
-3.45465e-06
-3.06798e-07
-2.46464e-06
-1.01227e-06
-1.82418e-06
-1.75246e-06
-1.46466e-06
-2.46878e-06
-1.33427e-06
-3.14704e-06
-1.41535e-06
-3.78738e-06
-1.71597e-06
-4.38736e-06
-2.2292e-06
-4.96918e-06
-2.98198e-06
-5.52057e-06
-5.96556e-06
-4.01106e-06
-4.67618e-06
-1.28302e-05
-8.73817e-06
-1.06677e-05
-1.18535e-05
-8.91969e-06
-1.3924e-05
-7.43792e-06
-1.50002e-05
-6.00751e-06
-1.51419e-05
-4.66499e-06
-1.45105e-05
-3.46579e-06
-1.33278e-05
-2.51847e-06
-1.18413e-05
-1.80635e-06
-1.02303e-05
-1.32836e-06
-8.59649e-06
-1.05765e-06
-6.98344e-06
-1.00531e-06
-5.51608e-06
-1.16971e-06
-4.32818e-06
-1.4947e-06
-3.43121e-06
-1.90923e-06
-2.81409e-06
-2.36957e-06
-2.44047e-06
-2.84239e-06
-2.28185e-06
-3.30566e-06
-2.32215e-06
-3.74704e-06
-2.54818e-06
-4.1611e-06
-2.96602e-06
-4.55119e-06
-3.58756e-06
-4.89905e-06
-5.13516e-06
-4.41866e-06
-4.30104e-06
-8.53047e-06
-8.07793e-06
-6.89173e-06
-1.0939e-05
-6.0594e-06
-1.29049e-05
-5.47282e-06
-1.3989e-05
-4.92393e-06
-1.42705e-05
-4.38406e-06
-1.38867e-05
-3.84988e-06
-1.30085e-05
-3.39698e-06
-1.18115e-05
-3.00347e-06
-1.04151e-05
-2.72491e-06
-8.93346e-06
-2.5393e-06
-7.48339e-06
-2.4554e-06
-6.17512e-06
-2.47795e-06
-5.09636e-06
-2.57341e-06
-4.2629e-06
-2.74263e-06
-3.66969e-06
-2.96271e-06
-3.30046e-06
-3.21157e-06
-3.13023e-06
-3.47587e-06
-3.13837e-06
-3.73883e-06
-3.31068e-06
-3.98858e-06
-3.64546e-06
-4.21627e-06
-4.14036e-06
-4.40418e-06
-4.49138e-06
-4.78477e-06
-4.03822e-06
-4.49237e-06
-7.56722e-06
-3.36307e-06
-1.03075e-05
-3.31957e-06
-1.22149e-05
-3.56584e-06
-1.33379e-05
-3.80126e-06
-1.37521e-05
-3.97021e-06
-1.35517e-05
-4.05041e-06
-1.28582e-05
-4.09064e-06
-1.17958e-05
-4.06592e-06
-1.05004e-05
-4.02036e-06
-9.11161e-06
-3.92808e-06
-7.76602e-06
-3.80093e-06
-6.57184e-06
-3.67204e-06
-5.57828e-06
-3.56688e-06
-4.81414e-06
-3.50666e-06
-4.27479e-06
-3.50196e-06
-3.93628e-06
-3.55001e-06
-3.77918e-06
-3.63291e-06
-3.78187e-06
-3.73606e-06
-3.92753e-06
-3.84272e-06
-4.20531e-06
-3.93841e-06
-4.60832e-06
-4.00107e-06
-3.98638e-06
-5.11397e-06
-3.83808e-06
-6.54515e-07
-7.20471e-06
3.44954e-09
-9.83813e-06
-6.86276e-07
-1.17241e-05
-1.68005e-06
-1.28799e-05
-2.64559e-06
-1.33671e-05
-3.48311e-06
-1.326e-05
-4.15765e-06
-1.26603e-05
-4.69034e-06
-1.16591e-05
-5.06711e-06
-1.03985e-05
-5.28092e-06
-9.05636e-06
-5.27014e-06
-7.77531e-06
-5.08187e-06
-6.66385e-06
-4.78339e-06
-5.76312e-06
-4.46748e-06
-5.08224e-06
-4.18741e-06
-4.60986e-06
-3.97421e-06
-4.32643e-06
-3.83334e-06
-4.20474e-06
-3.75453e-06
-4.22414e-06
-3.71656e-06
-4.365e-06
-3.70167e-06
-4.61529e-06
-3.68797e-06
-4.96139e-06
-3.65506e-06
-3.5671e-06
-5.38104e-06
-3.66443e-06
3.01037e-06
-6.89389e-06
3.23316e-06
-9.46175e-06
1.88171e-06
-1.13389e-05
1.97122e-07
-1.25072e-05
-1.47726e-06
-1.30147e-05
-2.97558e-06
-1.29291e-05
-4.24327e-06
-1.23323e-05
-5.28707e-06
-1.13238e-05
-6.0756e-06
-1.00614e-05
-6.54315e-06
-8.75172e-06
-6.5797e-06
-7.54442e-06
-6.28901e-06
-6.51516e-06
-5.81249e-06
-5.70051e-06
-5.28195e-06
-5.10394e-06
-4.78382e-06
-4.70998e-06
-4.36802e-06
-4.48962e-06
-4.05359e-06
-4.41915e-06
-3.82491e-06
-4.47026e-06
-3.66536e-06
-4.62536e-06
-3.54641e-06
-4.86898e-06
-3.44427e-06
-5.18817e-06
-3.33563e-06
-3.19637e-06
-5.55938e-06
-3.50575e-06
6.51655e-06
-6.62658e-06
6.3544e-06
-9.13057e-06
4.38598e-06
-1.0972e-05
2.03878e-06
-1.21288e-05
-3.2037e-07
-1.26028e-05
-2.50149e-06
-1.2472e-05
-4.37394e-06
-1.18051e-05
-5.95381e-06
-1.07349e-05
-7.1457e-06
-9.48424e-06
-7.79362e-06
-8.23653e-06
-7.82723e-06
-7.11057e-06
-7.41479e-06
-6.16723e-06
-6.75563e-06
-5.43732e-06
-6.01167e-06
-4.92375e-06
-5.29722e-06
-4.60808e-06
-4.68353e-06
-4.46107e-06
-4.20047e-06
-4.44844e-06
-3.83745e-06
-4.54325e-06
-3.57047e-06
-4.72554e-06
-3.36395e-06
-4.9798e-06
-3.18984e-06
-5.29445e-06
-3.02121e-06
-2.84184e-06
-5.64922e-06
-3.34346e-06
9.86067e-06
-6.34892e-06
9.36038e-06
-8.77617e-06
6.81361e-06
-1.05552e-05
3.81806e-06
-1.16407e-05
7.65382e-07
-1.20394e-05
-2.10257e-06
-1.17955e-05
-4.61765e-06
-1.10151e-05
-6.73405e-06
-9.89326e-06
-8.26737e-06
-8.68746e-06
-8.99922e-06
-7.53427e-06
-8.98021e-06
-6.51279e-06
-8.43605e-06
-5.66566e-06
-7.60255e-06
-5.02332e-06
-6.6538e-06
-4.59296e-06
-5.72739e-06
-4.3546e-06
-4.92171e-06
-4.27901e-06
-4.27593e-06
-4.3297e-06
-3.78664e-06
-4.47636e-06
-3.42371e-06
-4.69516e-06
-3.14499e-06
-4.97181e-06
-2.9132e-06
-5.29595e-06
-2.69674e-06
-2.48913e-06
-5.64911e-06
-3.13934e-06
1.30007e-05
-6.00242e-06
1.2224e-05
-8.32963e-06
9.14125e-06
-1.00207e-05
5.5095e-06
-1.09967e-05
1.74158e-06
-1.12553e-05
-1.8437e-06
-1.08736e-05
-4.99913e-06
-9.96959e-06
-7.63786e-06
-8.85116e-06
-9.38559e-06
-7.72276e-06
-1.01274e-05
-6.69529e-06
-1.00075e-05
-5.80214e-06
-9.32898e-06
-5.06761e-06
-8.33686e-06
-4.51563e-06
-7.20558e-06
-4.1601e-06
-6.08273e-06
-3.99443e-06
-5.08722e-06
-3.98713e-06
-4.28309e-06
-4.10091e-06
-3.67275e-06
-4.30132e-06
-3.2232e-06
-4.56171e-06
-2.88445e-06
-4.86678e-06
-2.60789e-06
-5.20809e-06
-2.35566e-06
-2.12271e-06
-5.57446e-06
-2.87018e-06
1.58714e-05
-5.54142e-06
1.48958e-05
-7.7309e-06
1.13312e-05
-9.30714e-06
7.08608e-06
-1.01695e-05
2.60417e-06
-1.02838e-05
-1.72908e-06
-9.72578e-06
-5.55694e-06
-8.75223e-06
-8.61118e-06
-7.68447e-06
-1.04531e-05
-6.67357e-06
-1.11381e-05
-5.79545e-06
-1.08854e-05
-5.05098e-06
-1.00732e-05
-4.43749e-06
-8.95014e-06
-3.97809e-06
-7.66478e-06
-3.69005e-06
-6.37059e-06
-3.57896e-06
-5.19816e-06
-3.62719e-06
-4.23473e-06
-3.79514e-06
-3.50469e-06
-4.04639e-06
-2.97185e-06
-4.3483e-06
-2.5824e-06
-4.68489e-06
-2.27125e-06
-5.0481e-06
-1.99195e-06
-1.74313e-06
-5.42788e-06
-2.50586e-06
1.8378e-05
-4.91494e-06
1.73054e-05
-6.91772e-06
1.33344e-05
-8.3553e-06
8.52399e-06
-9.12736e-06
3.37651e-06
-9.13083e-06
-1.72536e-06
-8.43794e-06
-6.24961e-06
-7.43738e-06
-9.61154e-06
-6.48469e-06
-1.14056e-05
-5.63109e-06
-1.19915e-05
-4.91076e-06
-1.16055e-05
-4.31898e-06
-1.06648e-05
-3.84211e-06
-9.42683e-06
-3.47225e-06
-8.03448e-06
-3.23921e-06
-6.60349e-06
-3.16238e-06
-5.27486e-06
-3.24182e-06
-4.15519e-06
-3.44782e-06
-3.29862e-06
-3.73707e-06
-2.68254e-06
-4.07711e-06
-2.24224e-06
-4.44295e-06
-1.90519e-06
-4.82638e-06
-1.60891e-06
-1.34596e-06
-5.22348e-06
-2.03884e-06
2.04172e-05
-4.09353e-06
1.93605e-05
-5.83455e-06
1.50757e-05
-7.10719e-06
9.7969e-06
-7.80448e-06
4.07403e-06
-7.75683e-06
-1.77282e-06
-6.99515e-06
-7.01111e-06
-6.07442e-06
-1.05321e-05
-5.3233e-06
-1.21566e-05
-4.65712e-06
-1.26575e-05
-4.10514e-06
-1.21573e-05
-3.67036e-06
-1.10995e-05
-3.3267e-06
-9.77036e-06
-3.05667e-06
-8.3044e-06
-2.86539e-06
-6.79467e-06
-2.79877e-06
-5.34141e-06
-2.87696e-06
-4.07695e-06
-3.09084e-06
-3.08471e-06
-3.40107e-06
-2.37229e-06
-3.76561e-06
-1.87767e-06
-4.15346e-06
-1.51753e-06
-4.55253e-06
-1.20942e-06
-9.40461e-07
-4.95844e-06
-1.47091e-06
2.18887e-05
-3.06684e-06
2.09568e-05
-4.44596e-06
1.64551e-05
-5.46521e-06
1.08164e-05
-6.00543e-06
4.61441e-06
-5.95182e-06
-1.82629e-06
-5.32626e-06
-7.63655e-06
-4.68635e-06
-1.11719e-05
-4.1854e-06
-1.26574e-05
-3.74484e-06
-1.3098e-05
-3.39582e-06
-1.25062e-05
-3.13708e-06
-1.13581e-05
-2.93272e-06
-9.97465e-06
-2.75733e-06
-8.47974e-06
-2.61242e-06
-6.93955e-06
-2.53075e-06
-5.42307e-06
-2.57269e-06
-4.03502e-06
-2.7571e-06
-2.90033e-06
-3.05927e-06
-2.07016e-06
-3.42934e-06
-1.50764e-06
-3.8291e-06
-1.11766e-06
-4.2347e-06
-8.04396e-07
-5.30902e-07
-4.6442e-06
-8.56186e-07
2.27449e-05
-1.90206e-06
2.20028e-05
-2.81453e-06
1.73677e-05
-3.44061e-06
1.14426e-05
-3.65564e-06
4.82953e-06
-3.52763e-06
-1.95423e-06
-3.28137e-06
-7.88275e-06
-3.14004e-06
-1.13132e-05
-2.96461e-06
-1.28328e-05
-2.83355e-06
-1.3229e-05
-2.74897e-06
-1.25908e-05
-2.70081e-06
-1.14063e-05
-2.65983e-06
-1.00156e-05
-2.589e-06
-8.55059e-06
-2.48484e-06
-7.04374e-06
-2.38621e-06
-5.52177e-06
-2.36261e-06
-4.05868e-06
-2.47682e-06
-2.78622e-06
-2.7316e-06
-1.81548e-06
-3.08223e-06
-1.15712e-06
-3.4768e-06
-7.23352e-07
-3.87987e-06
-4.00925e-07
-1.29738e-07
-4.28143e-06
-2.70173e-07
2.30155e-05
-7.1828e-07
2.24511e-05
-1.10654e-06
1.77561e-05
-1.22221e-06
1.15583e-05
-1.01273e-06
4.62008e-06
-8.05732e-07
-2.16122e-06
-9.60254e-07
-7.72823e-06
-1.32352e-06
-1.09499e-05
-1.61325e-06
-1.25431e-05
-1.89418e-06
-1.29481e-05
-2.14459e-06
-1.23404e-05
-2.3511e-06
-1.11998e-05
-2.48816e-06
-9.87864e-06
-2.53281e-06
-8.50601e-06
-2.48081e-06
-7.09583e-06
-2.36549e-06
-5.6372e-06
-2.26397e-06
-4.16032e-06
-2.27197e-06
-2.77837e-06
-2.43972e-06
-1.64789e-06
-2.7388e-06
-8.58196e-07
-3.10927e-06
-3.52875e-07
-3.49872e-06
-1.2308e-08
2.55347e-07
-3.88392e-06
2.39689e-07
2.27758e-05
3.65539e-07
2.23253e-05
5.38421e-07
1.75832e-05
9.29819e-07