/*--------------------------------*- C++ -*----------------------------------*\
| =========                 |                                                 |
| \\      /  F ield         | OpenFOAM: The Open Source CFD Toolbox           |
|  \\    /   O peration     | Version:  2312                                  |
|   \\  /    A nd           | Website:  www.openfoam.com                      |
|    \\/     M anipulation  |                                                 |
\*---------------------------------------------------------------------------*/
FoamFile
{
    version     2.0;
    format      ascii;
    arch        "LSB;label=32;scalar=64";
    class       volScalarField;
    location    "3.15";
    object      alpha.galistan;
}
// * * * * * * * * * * * * * * * * * * * * * * * * * * * * * * * * * * * * * //

dimensions      [0 0 0 0 0 0 0];

internalField   nonuniform List<scalar> 
2268
(
1
1
1
1
1
1
1
1
1
1
1
1
1
1
1
1
1
1
1
1
0.999969
0.999947
0.999947
1
1
1
1
1
1
1
1
1
1
1
1
1
1
1
1
1
1
1
1
0.999997
0.99998
0.999972
1
1
1
1
1
1
1
1
1
1
1
1
1
1
1
1
1
1
1
1
1
0.999998
0.999998
1
1
1
1
0.999996
1
1
1
1
1
1
1
1
1
1
1
1
1
1
1
1
1
1
1
1
0.999991
0.999985
0.999998
0.999998
1
1
0.999973
0.99975
0.999342
0.998511
0.990058
0.979462
0.971383
0.968233
0.968449
0.967571
0.965509
0.959882
0.953696
0.946402
0.952207
1
1
1
0.999917
0.999899
0.999739
0.998107
0.974942
0.905399
0.795379
0.66965
0.527383
0.417728
0.356343
0.327499
0.32075
0.325431
0.329085
0.321208
0.303177
0.269892
0.232638
0.271707
0.996936
0.997221
0.999215
0.999391
0.934835
0.742484
0.528188
0.331267
0.183194
0.0785529
0.0148328
0.000473295
1.40327e-24
-4.42979e-10
5.31938e-23
-9.24415e-09
-2.86651e-08
-5.3059e-08
2.03886e-06
0.0013094
0.00404022
0.0148369
0.017081
0.955754
0.900572
0.758417
0.505184
0.238306
0.0788907
0.00565018
8.124e-06
9.49766e-05
9.41084e-05
6.10809e-05
6.08805e-05
2.60789e-05
0.000221363
0.000532614
-1.85935e-10
1.16254e-10
0.000118357
0.00129479
0.0017709
0.0116048
0.0266862
0.0319483
0.953894
0.950266
0.951374
0.953464
0.953384
0.946695
0.94657
0.94754
0.948867
0.951682
0.952521
0.952516
0.952521
0.952516
0.952519
0.952514
0.951026
0.950628
0.950627
0.961676
0.961687
0.96171
0.952491
0.937094
0.935302
0.946084
0.952552
0.952562
0.951317
0.946221
0.930415
0.876208
0.833903
0.805605
0.774787
0.754356
0.766718
0.783409
0.961666
0.913872
0.697204
0.618031
0.582944
0.583633
0.635612
0.69306
0.707643
0.63428
0.583312
0.532739
0.488367
0.399808
0.350189
0.346958
0.336679
0.295294
0.27248
0.808242
0.477149
0.265888
0.100985
0.0349937
0.0170065
0.0373543
0.117685
0.238843
0.313865
0.237039
0.114711
0.0434736
0.0171348
0.0130834
0.0139923
0.0130738
0.00626776
0.00625156
0.218683
0.090492
4.93416e-05
5.4033e-05
0.00186625
0.00122533
0.00123398
0.00122321
0.00123362
0.00122552
0.00220445
0.0132538
0.0146182
0.0133566
0.0127252
0.0107753
0.00894497
0.0082038
0.00651984
0.0607107
0.000100695
0.000108067
0.00311327
0.0053804
0.0049462
0.00370904
0.00313938
0.00317338
0.0031525
0.00700338
0.0204037
0.0243718
0.0243412
0.0229361
0.00490469
0.00730929
0.0106741
0.00803559
0.0246431
0.00015229
0.000101188
0.00368606
0.00894309
0.0156091
0.0168527
0.0176166
0.0123849
0.00453362
0.0098371
0.023457
0.0234507
0.0176378
0.00870533
0.00410745
0.00409935
0.00772888
0.00910289
0.0124118
0.0121
0.0010771
0.00096726
0.0054968
0.0154939
0.028855
0.0291313
0.0291335
0.0207425
0.0160956
0.0110756
0.00646798
0.00646889
0.00882491
0.00777749
0.00469373
0.00482997
0.00972605
0.144203
0.101931
0.0439174
0.00453131
0.000248997
4.63306e-06
1.23425e-05
5.85371e-06
7.78026e-06
1.20742e-05
0.000114309
0.000142906
0.000124451
0.000340224
0.00466867
0.00289952
3.48896e-06
0.000135866
0.000641034
0.00191005
0.0260216
0.0323262
0.0418436
4.9775e-05
4.99513e-05
9.68218e-05
4.63248e-06
4.63206e-06
4.63206e-06
4.63205e-06
4.20855e-05
4.25614e-05
2.76516e-05
1.14587e-05
1.13691e-05
2.65427e-05
2.80445e-05
0.00438399
0.00442297
0.00027109
9.63886e-05
0.000347912
0.00164929
0.00176564
0.00123538
0.00170929
0.000142848
0.000164307
0.000187959
0.000126545
4.71423e-05
4.63205e-06
0.00029167
0.0024921
0.00256388
0.000862653
2.72439e-05
6.13192e-05
5.40397e-05
0.00058185
0.00339239
0.00349314
3.35098e-06
0.00015769
0.00127324
0.00156462
0.00174335
0.00628124
0.00621869
0.000342602
0.000400468
0.000400468
0.000359377
0.000125042
4.63205e-06
0.00251483
0.00386315
0.00343071
0.000448446
0.000143097
0.000309408
0.000391823
0.000494335
0.000420923
0.00025914
2.59488e-06
0.000160703
0.00128778
0.00153144
0.00121422
0.00145727
0.00505894
0.00030017
0.000233604
0.000171253
0.000171669
0.000820698
0.00331814
0.00391296
0.00385531
0.000396181
2.38649e-05
0.000142327
0.000257709
0.000190349
5.62283e-05
1.55932e-06
1.63815e-06
2.19598e-06
3.99471e-05
0.000276527
0.00042575
0.000379531
0.000465931
0.000533883
0.00010768
8.10466e-05
6.59094e-05
0.000205206
0.00141478
0.00354176
0.00391205
0.0011246
1.61737e-05
1.51439e-05
2.96135e-05
3.97661e-05
1.65633e-05
4.30503e-07
1.47138e-06
1.70487e-06
8.38102e-06
1.47957e-05
1.72172e-05
1.41812e-05
1.42265e-05
4.15657e-05
0.00013386
0.000149014
6.70186e-05
2.15862e-05
3.25242e-05
0.000104311
0.000206858
0.000276644
2.05122e-05
7.37277e-05
7.29311e-05
4.11567e-06
3.40452e-06
4.09922e-07
4.18598e-07
1.00931e-05
4.56115e-05
5.70651e-05
3.40644e-05
1.65567e-05
2.32914e-05
3.21331e-05
1.11413e-05
1.19334e-05
0.000148881
0.000101418
2.26843e-05
5.99163e-06
2.47818e-05
3.19854e-05
2.48577e-05
2.05844e-05
3.14527e-05
3.49176e-05
1.16822e-05
1.80035e-06
8.10582e-06
8.84435e-05
0.000125919
0.000127187
0.000104288
2.92953e-05
5.17891e-06
6.20193e-05
9.89585e-05
7.68973e-05
0.000186624
1.71901e-16
1.79655e-16
1.71901e-16
2.89032e-16
2.62645e-16
1.83311e-16
3.98917e-07
9.50853e-07
1.35942e-06
3.1993e-08
4.29394e-06
1.81707e-06
2.19813e-06
6.35667e-05
0.000131636
0.000131143
8.25698e-05
1.55019e-05
5.07334e-06
3.33456e-05
0.000104142
0.000436425
0.000582881
1.33012e-09
1.32942e-09
1.21968e-09
7.56909e-10
1.76064e-14
6.71764e-08
2.94943e-07
4.02801e-07
2.45276e-07
3.34372e-08
1.17691e-08
3.6047e-07
1.06419e-07
3.9719e-06
3.15258e-05
6.87712e-05
2.10571e-05
2.9878e-06
4.94734e-06
6.0818e-07
9.7113e-05
0.000344214
0.000351273
1.86482e-09
1.76766e-09
1.96201e-09
1.65396e-09
1.37668e-10
1.18598e-10
1.40145e-07
2.31217e-07
1.49255e-07
2.32965e-08
1.14703e-08
2.85758e-08
3.98867e-08
1.18898e-08
5.72093e-07
5.31956e-07
8.06141e-08
8.54362e-08
5.19716e-07
5.17873e-07
2.68664e-06
4.12883e-24
-9.52195e-22
1.84594e-09
1.37743e-09
1.92286e-09
6.9098e-09
1.06319e-08
8.96988e-09
4.27294e-09
4.43003e-09
1.10599e-08
1.1049e-08
1.11657e-08
1.13943e-08
1.17027e-08
1.21882e-08
1.2087e-08
1.35749e-08
7.36042e-08
9.76071e-08
1.02825e-06
9.52863e-07
5.28351e-08
3.41411e-08
1.1334e-08
1.67058e-09
1.18771e-09
2.20645e-09
1.29128e-08
3.14833e-08
4.25132e-08
7.53963e-09
2.11447e-09
2.10711e-08
9.67038e-08
2.25663e-07
7.52586e-08
1.51083e-08
1.20838e-08
1.28267e-08
1.34519e-08
1.77614e-08
6.80582e-07
1.49759e-06
1.36438e-06
7.71454e-07
8.6631e-08
6.70914e-09
1.55606e-09
1.06668e-09
2.27942e-09
1.25412e-08
3.32584e-08
1.05802e-07
3.77345e-07
3.44906e-07
3.58336e-07
3.88955e-07
4.01488e-07
3.8938e-07
4.62864e-07
4.52017e-07
2.32015e-07
6.1586e-08
2.25272e-07
1.59618e-06
1.55947e-06
4.60924e-07
3.46484e-07
6.72314e-09
6.7236e-09
1.46448e-09
9.9546e-10
1.40787e-09
1.41401e-09
6.77652e-08
4.30998e-07
1.07874e-06
1.07899e-06
1.07872e-06
9.12943e-07
1.64273e-07
1.45848e-07
3.55494e-07
3.84848e-07
1.21233e-06
3.44276e-06
3.56421e-06
3.5602e-06
2.00501e-06
5.34407e-07
5.16334e-07
1.0302e-06
7.30008e-07
1.39021e-09
8.12309e-10
1.45373e-09
5.50062e-09
1.41912e-07
2.89204e-07
3.74906e-07
1.72619e-07
5.93947e-08
7.88216e-08
4.17875e-08
7.48364e-09
4.2854e-07
3.53798e-06
4.38041e-06
4.38072e-06
3.5708e-06
3.25327e-06
1.338e-06
3.96114e-07
8.2342e-07
1.39124e-06
1.39141e-06
1.35224e-09
7.39874e-10
2.46877e-09
3.57091e-09
1.45653e-09
1.45827e-09
1.76074e-09
1.69518e-09
3.77095e-09
4.1199e-09
4.20001e-09
4.27774e-09
2.74488e-07
1.32679e-06
1.42837e-06
6.12538e-07
1.3593e-09
1.36257e-09
1.3593e-09
2.01749e-08
1.56373e-07
7.58916e-07
1.14933e-06
1.368e-09
6.48402e-10
1.42168e-09
1.84887e-09
1.83417e-09
2.47677e-09
5.49103e-09
8.01893e-09
1.01218e-08
1.00066e-08
7.53143e-09
4.51716e-09
9.31562e-09
1.00094e-09
1.00091e-09
1.00094e-09
2.00482e-09
5.70742e-09
5.73716e-09
3.47834e-09
1.27045e-09
1.44784e-08
8.24238e-08
1.40008e-09
5.2789e-10
1.39122e-09
2.17138e-09
3.04984e-09
4.47607e-09
6.41032e-09
1.09889e-08
1.09862e-08
9.85175e-09
6.51675e-09
1.35382e-09
1.1264e-09
1.00091e-09
1.00087e-09
1.07218e-09
1.54471e-09
2.55291e-09
2.66221e-09
1.97744e-09
1.26438e-09
8.96963e-10
8.97519e-10
1.45208e-09
4.00637e-10
9.32086e-10
1.58976e-09
2.11567e-09
2.60048e-09
3.05464e-09
3.88159e-09
4.87428e-09
5.50136e-09
4.54174e-09
2.6667e-09
1.90828e-09
1.27138e-09
1.00078e-09
1.02147e-09
1.09757e-09
1.11923e-09
1.06886e-09
9.79021e-10
8.8973e-10
9.06088e-10
1.18629e-09
1.52641e-09
3.05101e-10
4.27155e-10
6.69945e-10
7.88543e-10
9.39055e-10
1.11798e-09
1.16453e-09
1.1252e-09
1.23473e-09
1.61216e-09
1.63687e-09
1.35606e-09
9.8854e-10
6.45558e-10
4.49164e-10
4.37457e-10
4.73719e-10
4.88767e-10
4.29449e-10
4.18063e-10
4.43556e-10
5.77046e-10
1.60831e-09
2.38076e-10
1.94098e-10
2.67347e-10
2.87016e-10
3.00826e-10
3.32934e-10
4.03445e-10
4.68803e-10
5.26996e-10
5.98013e-10
6.25233e-10
5.72949e-10
4.66523e-10
3.37008e-10
2.21504e-10
1.75426e-10
1.73389e-10
1.8262e-10
1.85375e-10
1.67239e-10
1.88005e-10
2.35703e-10
1.74509e-09
2.12309e-10
1.09639e-10
1.23412e-10
1.28187e-10
1.29359e-10
1.30456e-10
1.41288e-10
1.6794e-10
2.05764e-10
2.32238e-10
2.35629e-10
2.1471e-10
1.80844e-10
1.35729e-10
9.02423e-11
6.83332e-11
6.56398e-11
6.85709e-11
7.11014e-11
6.73443e-11
6.9134e-11
9.12767e-11
1.80273e-09
2.36833e-10
5.08824e-11
3.81346e-11
3.37367e-11
3.36197e-11
4.27371e-11
5.43356e-11
5.92769e-11
6.219e-11
6.54685e-11
6.65813e-11
6.47958e-11
5.57988e-11
4.21521e-11
2.87026e-11
2.20986e-11
2.10849e-11
2.22195e-11
2.49567e-11
2.69214e-11
3.01644e-11
3.56164e-11
1.91789e-09
2.46027e-10
3.24834e-11
2.0963e-11
1.54274e-11
1.38522e-11
1.32158e-11
1.28232e-11
1.36602e-11
1.57489e-11
1.59187e-11
1.60703e-11
1.59004e-11
1.4841e-11
1.07154e-11
7.73668e-12
6.56631e-12
6.55065e-12
7.05815e-12
8.2761e-12
9.66931e-12
1.09916e-11
1.42099e-11
1.98465e-09
3.32183e-10
3.14632e-11
1.90584e-11
1.41911e-11
1.28834e-11
1.17769e-11
9.3682e-12
6.40379e-12
4.80749e-12
3.8061e-12
3.39563e-12
3.25973e-12
3.04861e-12
2.62406e-12
1.87123e-12
1.74554e-12
1.81993e-12
2.04072e-12
2.58117e-12
3.13781e-12
4.38522e-12
5.49934e-12
2.17469e-09
3.98576e-10
3.05088e-11
2.12282e-11
1.8587e-11
1.99466e-11
2.04805e-11
1.62324e-11
9.88649e-12
6.63611e-12
3.77916e-12
1.93744e-12
1.02621e-12
6.63339e-13
5.36253e-13
4.58699e-13
4.18197e-13
4.55668e-13
5.38092e-13
7.34168e-13
9.8969e-13
1.35977e-12
1.98831e-12
2.23011e-09
5.34977e-10
5.20612e-11
2.80947e-11
3.12782e-11
3.99614e-11
4.40635e-11
3.34403e-11
2.05435e-11
1.43095e-11
7.53251e-12
3.4782e-12
1.37934e-12
5.17364e-13
1.95136e-13
1.07379e-13
9.17216e-14
1.00267e-13
1.27216e-13
1.87365e-13
2.63131e-13
4.55756e-13
6.65862e-13
2.34776e-09
6.44989e-10
6.49809e-11
5.01378e-11
8.80179e-11
1.17582e-10
1.20908e-10
9.73617e-11
6.70897e-11
3.07795e-11
1.48559e-11
6.87751e-12
2.71852e-12
9.82501e-13
2.83465e-13
7.30952e-14
2.5656e-14
1.99566e-14
2.60931e-14
4.23032e-14
7.30992e-14
1.20374e-13
2.08197e-13
2.40448e-09
8.10232e-10
1.08763e-10
1.14236e-10
2.56001e-10
3.57564e-10
3.75314e-10
2.00697e-10
1.26308e-10
5.63377e-11
2.64187e-11
1.23658e-11
4.95757e-12
1.83776e-12
5.47099e-13
1.37305e-13
2.97021e-14
7.37357e-15
5.22974e-15
8.53691e-15
1.53218e-14
3.53204e-14
6.20225e-14
2.50215e-09
1.06128e-09
2.24206e-10
2.55474e-10
5.61823e-10
8.50537e-10
8.60919e-10
4.87688e-10
2.19687e-10
1.05481e-10
4.30812e-11
2.00161e-11
8.10099e-12
3.02687e-12
9.80984e-13
2.62663e-13
5.82053e-14
1.08527e-14
2.26198e-15
1.77193e-15
3.80888e-15
8.36372e-15
1.80809e-14
2.50512e-09
1.34472e-09
3.75007e-10
3.97173e-10
9.24981e-10
1.2485e-09
1.28637e-09
8.75333e-10
4.04723e-10
1.54054e-10
6.5805e-11
2.9841e-11
1.26411e-11
4.82866e-12
1.65544e-12
4.70804e-13
1.09579e-13
2.0917e-14
3.3159e-15
6.21348e-16
6.65857e-16
2.30476e-15
5.2456e-15
2.47401e-09
1.66704e-09
6.01726e-10
4.86268e-10
9.93761e-10
1.41485e-09
1.60682e-09
1.14801e-09
5.40811e-10
2.1396e-10
8.73979e-11
3.76924e-11
1.67886e-11
6.16313e-12
2.20229e-12
7.14451e-13
1.95062e-13
4.01061e-14
6.8881e-15
9.20763e-16
2.74155e-16
5.22308e-16
1.74576e-15
2.1096e-09
1.68346e-09
8.84657e-10
5.52847e-10
8.65652e-10
1.53757e-09
1.95382e-09
1.47275e-09
6.11433e-10
2.38432e-10
9.80087e-11
4.06194e-11
1.76868e-11
7.02417e-12
2.59448e-12
8.77606e-13
2.63379e-13
6.42165e-14
1.18533e-14
1.7358e-15
2.53265e-16
1.66258e-16
5.05258e-16
1.8575e-09
1.48668e-09
8.75803e-10
5.42675e-10
7.23688e-10
1.54124e-09
2.02737e-09
1.60741e-09
6.08219e-10
2.39896e-10
9.60774e-11
3.98613e-11
1.73667e-11
6.87807e-12
2.5628e-12
9.10692e-13
2.97896e-13
8.09703e-14
1.69529e-14
2.72854e-15
3.91874e-16
6.35373e-17
1.66574e-16
1.53544e-09
1.01273e-09
6.81917e-10
4.71825e-10
6.77554e-10
1.42462e-09
1.99675e-09
1.35083e-09
4.20705e-10
1.87298e-10
8.29074e-11
3.46138e-11
1.53152e-11
6.05348e-12
2.20393e-12
7.78632e-13
2.69277e-13
8.17922e-14
1.97477e-14
3.52485e-15
5.02452e-16
4.71757e-17
4.40704e-17
1.71091e-09
7.32118e-10
4.53249e-10
4.34802e-10
6.77724e-10
1.40457e-09
1.71182e-09
8.88566e-10
2.97479e-10
1.42633e-10
6.17009e-11
2.59458e-11
1.18032e-11
4.6569e-12
1.61046e-12
5.43956e-13
1.89205e-13
6.16312e-14
1.70394e-14
3.47274e-15
5.49112e-16
4.62361e-17
1.44369e-17
1.983e-09
7.74831e-10
4.37651e-10
5.34571e-10
8.86569e-10
1.18511e-09
1.05932e-09
5.38285e-10
1.93708e-10
8.21653e-11
3.79012e-11
1.64768e-11
7.78243e-12
3.04698e-12
9.87998e-13
3.03134e-13
9.74137e-14
3.24784e-14
9.80183e-15
2.39067e-15
4.05188e-16
4.55604e-17
4.823e-18
3.94194e-09
1.39318e-09
7.23786e-10
8.73765e-10
9.7684e-10
8.68534e-10
5.98383e-10
2.75957e-10
8.43783e-11
3.66736e-11
1.85859e-11
8.5411e-12
4.21883e-12
1.64904e-12
4.95357e-13
1.30944e-13
3.5828e-14
1.05439e-14
3.42404e-15
1.03809e-15
2.3037e-16
2.43801e-17
2.20962e-18
5.58047e-09
3.26125e-09
1.51463e-09
1.09508e-09
6.94726e-10
3.93882e-10
1.99611e-10
8.2023e-11
1.72191e-11
1.06285e-11
6.79371e-12
3.42161e-12
1.78082e-12
6.97972e-13
1.98385e-13
4.40616e-14
9.11029e-15
2.06682e-15
6.41819e-16
2.79531e-16
6.99453e-17
1.09303e-17
1.24912e-18
5.9158e-09
3.50557e-09
1.39929e-09
6.20498e-10
2.23882e-10
7.99573e-11
3.06273e-11
9.81412e-12
3.00488e-12
2.09631e-12
1.73049e-12
8.99898e-13
5.19841e-13
2.05244e-13
5.52753e-14
1.02462e-14
1.48543e-15
2.08392e-16
6.3546e-17
4.54715e-17
1.58483e-17
4.02552e-18
6.78694e-19
3.71228e-09
1.6816e-09
5.39783e-10
1.53776e-10
3.50417e-11
8.44622e-12
2.3172e-12
6.47933e-13
1.95154e-13
1.57169e-13
2.06421e-13
1.21553e-13
7.62542e-14
3.06514e-14
7.53841e-15
1.14195e-15
1.0701e-16
8.35207e-18
3.19046e-18
4.49347e-18
3.28903e-18
1.16475e-18
3.0126e-19
0.0415841
0.0284641
0.0424381
0.0425666
0.00408636
0.00507894
0.00554847
0.00597561
0.00228401
0.000628411
0.000580866
0.000562951
0.00735333
0.00736167
0.00734844
0.00736188
0.000647051
0.000561451
0.000560609
0.000648726
7.04719e-06
0.000367071
0.000919863
0.00103313
7.11602e-06
7.57649e-06
0.00021901
0.00124017
0.000289118
0.000234288
5.89719e-05
7.60678e-06
0.000582848
0.000582881
0.000313816
7.53381e-06
0.000283061
0.000387933
0.000289613
0.000276559
-4.28031e-11
1.67704e-08
8.21475e-06
6.26751e-05
1.62259e-08
2.56152e-08
3.93393e-08
5.64116e-08
7.88115e-09
1.74258e-08
3.33748e-08
4.41837e-08
6.64476e-09
8.43059e-09
2.75983e-08
3.983e-08
1.82855e-07
1.45081e-07
1.29115e-07
1.26078e-07
1.3864e-06
1.38059e-06
1.30396e-06
4.90758e-07
1.25865e-06
1.37056e-06
9.44352e-07
4.24731e-07
1.67896e-07
1.8761e-07
2.12932e-07
1.93349e-07
2.95991e-09
1.27645e-08
2.60755e-08
3.95534e-08
3.74382e-09
8.68526e-09
9.58683e-09
1.42551e-08
9.60906e-10
1.47162e-09
2.53069e-09
2.98748e-09
3.3038e-10
4.23519e-10
5.3157e-10
6.45604e-10
1.19489e-10
1.25147e-10
1.80788e-10
1.88907e-10
4.49929e-11
5.21651e-11
5.43929e-11
6.86096e-11
1.76566e-11
1.84427e-11
2.40188e-11
2.48685e-11
6.98e-12
8.26069e-12
8.72416e-12
1.07046e-11
2.67702e-12
2.94013e-12
3.83268e-12
4.00534e-12
9.48441e-13
1.18896e-12
1.30942e-12
1.66686e-12
3.23986e-13
3.82362e-13
5.31909e-13
5.84168e-13
1.04567e-13
1.46511e-13
1.73344e-13
2.36475e-13
3.47132e-14
4.604e-14
7.41334e-14
8.92459e-14
1.13405e-14
2.05814e-14
2.69994e-14
4.39682e-14
4.23093e-15
7.02496e-15
1.37448e-14
1.83295e-14
1.65842e-15
3.21197e-15
5.24996e-15
1.03291e-14
5.09733e-16
9.52012e-16
2.23183e-15
3.2658e-15
1.85911e-16
3.66632e-16
7.19646e-16
1.68229e-15
4.6753e-17
9.42245e-17
2.60562e-16
4.92216e-16
1.25174e-17
2.63917e-17
5.86175e-17
1.5791e-16
2.05854e-18
4.86827e-18
1.3953e-17
2.85842e-17
3.99406e-19
9.03378e-19
2.00452e-18
6.59902e-18
7.98382e-20
1.50598e-19
4.29388e-19
1.29015e-18
2.38134e-20
2.47647e-20
7.79208e-20
2.04788e-19
0.0366572
0.00714566
0.000279929
0.000277167
0.00451707
0.0117755
0.0113244
0.0153017
0.0291526
0.029151
0.0218395
0.00649125
0.00647912
0.0106867
0.0125336
0.0125238
0.0125336
0.0121079
0.0132233
0.00485783
0.000814034
0.00027968
0.00221768
0.00275413
0.00138482
0.00138218
0.00138463
0.00742086
0.016394
0.0133543
0.00846224
0.0100294
0.0114997
0.0102067
0.00741146
0.0100509
0.0120905
0.0132233
0.000474719
0.000328513
0.000331855
0.00102219
0.00101656
0.00176402
0.00462001
0.0070077
0.00667418
0.00344139
0.00316056
0.00330993
0.00280705
0.00169408
0.00146938
0.0020147
0.00368006
0.00543983
0.00904512
0.00535713
0.000994864
0.000600206
0.0010055
0.00269687
0.00997839
0.0115174
0.0115146
0.00455814
0.00134961
0.00134941
0.00134913
0.00135003
0.0013522
0.00198203
0.00236758
0.00194125
0.00193617
0.00605646
0.00342307
0.00623154
0.00622036
0.0055018
0.00523652
0.00959159
0.0115164
0.0115174
0.00857484
0.00135033
0.00135051
0.00136141
0.00135182
0.00241876
0.00723797
0.0109717
0.00352481
0.00194124
0.00579035
0.00062133
0.000620903
0.000815902
0.000919555
0.00118124
0.00307703
0.00701411
0.0068971
0.00630817
0.00400252
0.00140494
0.00136089
0.00255572
0.00405753
0.0148481
0.0182563
0.00706761
0.00214873
0.00506735
0.00187338
0.00080837
4.84616e-05
4.222e-05
5.03383e-06
2.92272e-06
2.90239e-06
2.9217e-06
2.88595e-06
3.06516e-06
0.00051611
0.00190761
0.00273524
0.00528213
0.0182563
0.0182555
0.0096865
0.00185437
0.000772208
0.00218946
0.00537533
0.00209921
0.000539858
3.94064e-05
9.63752e-06
6.34601e-06
3.40803e-06
6.36516e-06
6.5822e-05
0.000112699
0.000113714
0.000123427
0.00680156
0.0182555
0.0169892
0.00646958
0.00097755
8.12243e-05
0.00234527
0.00554105
0.00554105
0.00392804
0.000921412
8.07323e-05
4.04191e-06
3.96814e-06
3.81453e-05
0.000830185
0.00222731
0.00252279
0.00353581
0.00878637
0.00768456
0.00160212
0.000315229
0.000152394
8.15557e-05
0.00167855
0.00424243
0.00504784
0.00501638
0.00432799
0.000487133
4.767e-06
0.000499424
0.00358132
0.00684389
0.00688743
0.00687446
0.00602782
0.00215066
2.64677e-06
3.27284e-08
3.27411e-08
3.27008e-08
2.53882e-05
0.000163091
0.000255279
0.00112296
0.00294603
0.00291229
0.000586019
0.00114363
0.00577036
0.00599908
0.00533779
0.00336805
0.00129748
1.53846e-09
3.41321e-08
3.28409e-08
7.25543e-08
3.27006e-08
3.27136e-08
3.2674e-08
-1.50281e-10
-3.36631e-17
-6.02543e-10
9.84891e-06
0.000396894
0.00410165
0.00467991
0.00421699
0.00123998
3.78177e-14
3.72641e-14
-3.03254e-13
9.91434e-09
4.39385e-06
1.45272e-05
1.73496e-05
1.25257e-05
1.54622e-06
1.17507e-07
1.57073e-08
2.76422e-09
9.45495e-08
9.91154e-08
2.5753e-05
0.000469922
0.000742818
2.12689e-11
3.64674e-11
6.78814e-07
1.82886e-06
2.26251e-06
3.23337e-06
1.82724e-05
2.76995e-05
2.76925e-05
2.77058e-05
9.61037e-06
4.44643e-07
4.75601e-08
9.27273e-08
1.53441e-07
1.05918e-07
8.45009e-13
8.53304e-13
8.45009e-13
8.7707e-09
2.57883e-07
2.84576e-06
4.1757e-06
4.08041e-06
4.67038e-06
6.09494e-06
2.08763e-05
2.70635e-05
2.76979e-05
1.33203e-05
6.38111e-07
1.29978e-07
1.37596e-07
1.37472e-07
6.54e-08
3.74495e-09
2.79858e-12
2.36714e-07
5.41514e-07
4.37333e-07
7.4664e-07
1.38404e-06
1.7179e-06
1.70719e-06
1.68334e-06
1.68502e-06
2.63368e-06
1.36174e-05
6.10204e-06
5.32069e-07
1.26549e-07
2.70772e-08
1.40965e-08
1.24352e-08
3.75713e-09
4.407e-07
1.16155e-06
1.18037e-06
6.27429e-07
4.80646e-07
6.23043e-07
1.03837e-06
1.45562e-06
3.92541e-06
2.53913e-06
3.62064e-07
3.52847e-07
3.51084e-07
3.85658e-07
1.24579e-07
1.17567e-07
1.47159e-07
1.69322e-07
8.45198e-07
1.1245e-06
1.18306e-06
7.65686e-07
1.02347e-06
1.15315e-06
6.00412e-07
5.95592e-07
2.61552e-06
4.98479e-06
3.8979e-06
4.62366e-07
3.51379e-07
3.52848e-07
8.93675e-07
1.66133e-07
2.48935e-07
2.49579e-07
4.62138e-07
8.84253e-07
7.4975e-07
1.13273e-07
4.76271e-07
1.3626e-06
1.36022e-06
7.82063e-07
6.02932e-07
1.08128e-06
4.59737e-06
2.86139e-06
9.66589e-07
6.34152e-07
3.08657e-06
1.4042e-05
4.82226e-08
6.56781e-08
1.01002e-07
9.89727e-08
8.81379e-08
2.17325e-08
1.04721e-09
2.09234e-07
1.31809e-06
7.88594e-07
5.46417e-07
1.04397e-06
1.12819e-06
1.81741e-07
1.63629e-06
6.4868e-06
1.46927e-06
1.60888e-05
1.84881e-05
5.95211e-09
4.38156e-09
5.49933e-10
6.79593e-10
7.12287e-10
1.37706e-09
1.06665e-09
7.24764e-08
1.0611e-07
4.48828e-08
1.19091e-07
2.04286e-07
1.24487e-08
1.74755e-10
3.06369e-06
1.00055e-05
1.17542e-05
1.86444e-05
1.87443e-05
9.25575e-10
6.63609e-10
5.54638e-10
6.15393e-10
1.42157e-09
2.0652e-09
1.29166e-09
6.34222e-09
2.29161e-09
1.14916e-08
1.31129e-08
4.50666e-09
1.31366e-09
1.26607e-10
2.00902e-06
1.9143e-05
1.93752e-05
1.93988e-05
6.87776e-06
4.07928e-10
4.10113e-10
3.97414e-10
4.15005e-10
5.70514e-10
5.28747e-10
3.76517e-10
3.21538e-10
3.11313e-10
1.93199e-09
1.86601e-09
1.17439e-09
1.18037e-08
1.35004e-10
9.30965e-08
1.11247e-05
1.69956e-05
4.75568e-06
2.88108e-06
1.83432e-10
1.87463e-10
1.55687e-10
1.285e-10
1.43311e-10
1.70708e-10
2.2099e-10
3.14859e-10
4.37027e-10
7.4017e-10
7.43321e-10
5.66726e-09
2.39272e-08
2.51898e-08
2.0511e-08
1.13131e-06
4.94986e-06
3.84848e-07
2.39406e-06
6.70603e-11
7.45315e-11
6.67155e-11
5.78975e-11
7.31352e-11
1.12991e-10
1.86471e-10
3.09682e-10
4.80992e-10
7.87251e-10
1.2476e-09
5.95984e-09
1.70175e-08
1.62445e-08
1.85385e-08
8.30585e-09
8.30535e-09
3.90014e-07
4.77124e-06
2.81966e-11
3.09547e-11
3.40482e-11
3.64674e-11
4.89767e-11
8.50711e-11
1.53826e-10
2.76617e-10
4.48188e-10
6.90002e-10
1.34264e-09
2.79689e-09
7.00464e-09
1.45802e-08
1.22768e-08
8.30926e-09
8.30181e-09
6.01227e-07
7.97337e-06
1.09826e-11
1.40594e-11
1.70939e-11
2.15568e-11
3.15325e-11
5.55015e-11
1.02346e-10
1.82726e-10
3.05547e-10
4.93808e-10
9.49706e-10
1.90789e-09
3.03979e-09
9.31777e-09
2.77977e-08
1.15049e-08
8.3539e-09
2.17474e-08
7.96993e-06
4.73536e-12
6.12471e-12
8.02094e-12
1.11732e-11
1.74806e-11
3.0297e-11
5.6904e-11
1.02137e-10
1.74918e-10
2.82931e-10
4.74947e-10
8.87771e-10
8.92898e-10
4.08007e-09
4.43752e-08
4.85368e-08
1.05726e-08
8.98617e-09
6.84001e-06
1.81294e-12
2.56487e-12
3.5399e-12
5.21736e-12
8.46313e-12
1.45127e-11
2.72681e-11
5.08608e-11
9.03593e-11
1.4881e-10
2.28194e-10
3.48544e-10
3.4444e-10
3.5209e-10
3.37676e-08
1.58151e-07
1.66887e-07
8.71285e-09
2.09099e-06
7.18509e-13
1.0487e-12
1.52998e-12
2.34399e-12
3.84401e-12
6.78655e-12
1.2802e-11
2.47069e-11
4.43594e-11
7.88412e-11
1.25223e-10
1.81305e-10
2.46073e-10
2.46204e-10
7.44281e-09
1.49464e-07
1.97924e-07
1.4801e-07
1.84831e-07
2.82287e-13
4.43387e-13
7.02883e-13
1.14313e-12
1.94318e-12
3.45116e-12
6.25269e-12
1.19938e-11
2.31165e-11
4.30282e-11
7.7742e-11
1.21224e-10
1.98367e-10
3.39638e-10
6.40533e-10
2.14753e-08
1.88529e-07
2.0551e-07
1.00547e-07
1.21422e-13
2.13729e-13
3.78799e-13
6.69156e-13
1.19629e-12
2.11545e-12
3.80868e-12
6.87663e-12
1.26891e-11
2.2638e-11
3.86576e-11
7.61388e-11
1.39795e-10
2.48357e-10
3.21656e-10
4.15294e-10
4.20104e-08
1.72144e-07
6.55872e-08
5.9065e-14
1.19154e-13
2.38889e-13
4.58211e-13
8.72227e-13
1.60432e-12
2.89879e-12
5.08122e-12
8.74161e-12
1.41606e-11
2.32478e-11
4.26873e-11
9.22803e-11
1.73437e-10
3.74335e-10
1.15801e-09
3.10847e-09
1.43149e-08
2.77989e-08
3.20568e-14
7.05338e-14
1.51216e-13
3.21832e-13
6.53842e-13
1.3075e-12
2.4411e-12
4.47023e-12
7.9242e-12
1.37366e-11
2.2931e-11
3.76265e-11
6.83974e-11
1.53668e-10
3.31571e-10
1.05917e-09
2.17125e-09
1.53633e-09
1.54134e-09
1.56442e-14
3.9902e-14
9.15064e-14
2.09457e-13
4.67325e-13
9.82983e-13
1.98369e-12
3.93128e-12
7.47767e-12
1.3535e-11
2.41141e-11
4.07803e-11
7.07642e-11
1.59253e-10
3.30239e-10
8.03684e-10
1.56056e-09
1.56039e-09
1.50886e-09
7.91137e-15
1.95939e-14
4.90564e-14
1.20815e-13
2.90181e-13
6.5919e-13
1.47681e-12
3.16538e-12
6.38878e-12
1.25157e-11
2.33308e-11
4.5439e-11
8.98085e-11
1.77096e-10
3.48389e-10
7.166e-10
1.36419e-09
1.67821e-09
1.51714e-09
2.97424e-15
8.34229e-15
2.26097e-14
5.91863e-14
1.52011e-13
3.84862e-13
9.39385e-13
2.21885e-12
4.93118e-12
1.03472e-11
2.07332e-11
4.32967e-11
9.78511e-11
2.03863e-10
3.72469e-10
7.12118e-10
1.32027e-09
1.69775e-09
1.45046e-09
1.04174e-15
3.04732e-15
8.67504e-15
2.42192e-14
6.74023e-14
1.90016e-13
5.15795e-13
1.34062e-12
3.32929e-12
7.73918e-12
1.69451e-11
3.64315e-11
8.57014e-11
2.06851e-10
3.97391e-10
6.96195e-10
1.26895e-09
1.64625e-09
1.07312e-09
2.95854e-16
9.36746e-16
2.78723e-15
8.23453e-15
2.55981e-14
7.88312e-14
2.39032e-13
6.99877e-13
1.92443e-12
4.92642e-12
1.18071e-11
2.71501e-11
6.37968e-11
1.63077e-10
3.84688e-10
6.89864e-10
1.07539e-09
1.46001e-09
8.66748e-10
7.66473e-17
2.3491e-16
7.24529e-16
2.35621e-15
7.87049e-15
2.74365e-14
9.25552e-14
3.05793e-13
9.47792e-13
2.77112e-12
7.49072e-12
1.8366e-11
4.27444e-11
1.07237e-10
2.81879e-10
6.06494e-10
9.37054e-10
1.03852e-09
6.66317e-10
1.60691e-17
5.04154e-17
1.62394e-16
5.55095e-16
2.0534e-15
7.94692e-15
3.09081e-14
1.16126e-13
4.0906e-13
1.31857e-12
3.9011e-12
1.04577e-11
2.60294e-11
6.49562e-11
1.6701e-10
3.91109e-10
6.65845e-10
8.24671e-10
4.00312e-10
2.67524e-18
9.03722e-18
2.96373e-17
1.10124e-16
4.58204e-16
1.99854e-15
8.67525e-15
3.76254e-14
1.50492e-13
5.40658e-13
1.76031e-12
5.17234e-12
1.38269e-11
3.44098e-11
8.32239e-11
2.02236e-10
4.10667e-10
5.11902e-10
2.40807e-10
4.38055e-19
1.44463e-18
4.97464e-18
1.94638e-17
8.72963e-17
4.32533e-16
2.17083e-15
1.03884e-14
4.59533e-14
1.83437e-13
6.57521e-13
2.09821e-12
6.02514e-12
1.55961e-11
3.71558e-11
8.51081e-11
1.67535e-10
2.13121e-10
9.21885e-11
)
;

boundaryField
{
    leftWall
    {
        type            zeroGradient;
    }
    rightWall
    {
        type            zeroGradient;
    }
    lowerWall
    {
        type            zeroGradient;
    }
    atmosphere
    {
        type            inletOutlet;
        inletValue      uniform 0;
        value           nonuniform List<scalar> 
46
(
3.71228e-09
1.6816e-09
5.39783e-10
1.53776e-10
3.50417e-11
8.44622e-12
2.3172e-12
0
0
0
0
0
0
0
0
0
0
0
0
4.49347e-18
3.28903e-18
1.16475e-18
3.0126e-19
2.38135e-20
2.47647e-20
7.79209e-20
2.04788e-19
4.38055e-19
1.44463e-18
0
0
0
0
0
0
0
0
0
0
0
0
0
0
1.67535e-10
2.13121e-10
9.21885e-11
)
;
    }
    defaultFaces
    {
        type            empty;
    }
}


// ************************************************************************* //
