/*--------------------------------*- C++ -*----------------------------------*\
| =========                 |                                                 |
| \\      /  F ield         | OpenFOAM: The Open Source CFD Toolbox           |
|  \\    /   O peration     | Version:  2312                                  |
|   \\  /    A nd           | Website:  www.openfoam.com                      |
|    \\/     M anipulation  |                                                 |
\*---------------------------------------------------------------------------*/
FoamFile
{
    version     2.0;
    format      ascii;
    arch        "LSB;label=32;scalar=64";
    class       volScalarField;
    location    "3.15";
    object      alpha.oil;
}
// * * * * * * * * * * * * * * * * * * * * * * * * * * * * * * * * * * * * * //

dimensions      [0 0 0 0 0 0 0];

internalField   nonuniform List<scalar> 
2268
(
7.8117e-10
6.81455e-10
4.38643e-10
2.79804e-10
3.12206e-10
4.77964e-10
5.72517e-10
5.01582e-10
1.77961e-10
1.19876e-10
1.29439e-10
1.5392e-10
2.2007e-10
3.06395e-10
3.4167e-10
5.16372e-10
8.90979e-10
1.32858e-09
1.67667e-09
5.40056e-08
3.06982e-05
5.30284e-05
5.30284e-05
7.03836e-10
3.66849e-10
3.22731e-10
2.67532e-10
2.67587e-10
2.67549e-10
6.92297e-09
5.57307e-09
6.46522e-10
4.05748e-10
8.97736e-10
1.53e-09
2.69538e-09
3.96221e-09
1.21493e-09
7.62338e-10
1.39536e-09
2.25862e-09
4.17415e-09
7.0601e-09
2.67317e-06
1.89183e-05
2.54363e-05
3.9938e-10
5.54349e-10
4.18461e-10
2.19358e-07
4.68735e-07
3.07889e-07
2.73525e-10
6.75775e-10
8.53885e-10
2.52167e-09
6.12529e-09
1.03375e-08
2.08158e-08
4.22267e-08
1.0887e-08
1.12606e-09
1.34228e-09
2.79458e-09
3.32645e-09
2.33136e-09
8.99808e-13
8.92713e-13
1.02571e-08
1.19858e-09
6.67555e-09
2.19874e-09
1.73561e-07
4.39755e-06
1.06672e-07
2.73765e-10
6.28946e-10
7.07302e-10
7.89289e-10
8.40007e-10
8.40236e-10
8.4006e-10
9.2476e-08
4.40229e-08
1.12769e-09
1.12931e-09
1.13093e-09
1.13256e-09
2.9323e-09
3.02427e-10
2.47011e-12
7.0039e-11
1.38679e-09
4.97752e-08
9.00271e-06
1.50736e-05
1.54884e-07
2.72421e-10
2.72851e-10
3.68774e-07
2.42918e-05
0.000233199
0.000633962
0.000763965
0.000531912
3.72983e-08
4.63075e-08
5.30147e-05
0.00561964
0.0106664
0.0127054
0.01356
0.0116586
0.00519453
0.00274047
2.11285e-08
3.87089e-08
4.06239e-07
8.30462e-05
9.55917e-05
0.000259572
0.000272045
0.000172984
0.000731869
0.00258673
0.00325825
0.0032358
0.00464608
0.0139546
0.0158877
0.019462
0.0314632
0.0358329
0.0358316
0.0358319
0.0334312
0.011784
0.00677654
0.00306433
0.00277514
0.000293065
0.000146916
0.000435509
0.000624124
0.000624094
0.000470741
0.000949684
0.00229824
0.00248812
0.00139513
0.00542443
0.0346888
0.0407498
0.0363768
0.0263508
0.0297101
0.0164441
0.0106192
0.0110556
0.0245657
0.0334611
0.00730774
0.0073077
0.0034344
0.000147387
0.000186885
0.000417424
0.00047405
0.000359266
0.00027176
0.000244662
0.000233814
0.000197652
0.000252597
0.0279381
0.0894422
0.0121365
0.00967415
0.0116149
0.0123655
0.0112412
0.0754925
0.175812
0.144358
0.0275894
0.02749
0.02749
0.0276395
0.0275893
0.0275893
0.0275895
0.0275895
0.0275897
0.0275898
0.0276085
0.0280158
0.0313432
0.0346068
0.0354974
0.0350771
0.0344757
0.0344753
0.0347311
0.0274938
0.02749
0.0293065
0.0375414
0.0515145
0.0520766
0.0412884
0.0320607
0.0277989
0.0322243
0.0433849
0.0597393
0.115283
0.158541
0.186634
0.207977
0.223707
0.212013
0.201956
0.0276189
0.0740414
0.265187
0.353996
0.355992
0.294574
0.251873
0.259515
0.283857
0.358141
0.409111
0.455857
0.468506
0.46899
0.471782
0.499322
0.528354
0.528353
0.528354
0.0473892
0.483909
0.515665
0.50662
0.300292
0.213966
0.244874
0.395096
0.544661
0.544633
0.543686
0.519584
0.325798
0.202379
0.185409
0.216625
0.317052
0.342794
0.393704
0.218593
0.520676
0.510283
0.100884
0.0468875
0.046611
0.0696742
0.287993
0.544632
0.496844
0.140501
0.0625443
0.0618465
0.0617705
0.0574783
0.0601491
0.0639937
0.0710403
0.0985767
0.342196
0.45011
0.498858
0.0949616
0.0508468
0.33542
0.534961
0.544321
0.534133
0.283842
0.0602632
0.0600031
0.0594766
0.0592092
0.0533578
0.0533574
0.058768
0.0573018
0.0743899
0.341482
0.219781
0.427738
0.190311
0.16878
0.504624
0.540286
0.544351
0.544329
0.490499
0.115772
0.0606157
0.0707047
0.0651965
0.0533564
0.0533574
0.0533574
0.0572864
0.0580672
0.340762
0.0737007
0.197319
0.340481
0.0306154
0.0206939
0.156888
0.39432
0.506169
0.493096
0.2207
0.0787687
0.166644
0.250801
0.193711
0.0533574
0.0533889
0.06794
0.0957286
0.0064287
0.00500786
0.0020243
0.000146726
3.74792e-05
1.36652e-05
7.77199e-06
1.73202e-05
1.64233e-05
3.58847e-06
1.33304e-06
1.93828e-07
1.9301e-05
0.00465899
0.0963119
0.0540485
0.00790365
0.00744975
0.0104362
0.0361961
0.179673
0.178583
0.116239
0.00034042
0.000123915
7.95285e-05
3.2551e-05
-2.64463e-09
2.67722e-14
2.42915e-24
2.49008e-25
-4.47316e-25
3.35555e-28
-1.94233e-25
-1.05087e-26
-2.52451e-24
7.53355e-06
0.037838
0.128444
0.00746785
0.00733658
0.00733468
0.0222489
0.0958956
0.0278435
0.000601929
2.68748e-05
5.83845e-06
2.29924e-07
2.04102e-07
0.00378506
0.0202644
0.0455416
0.136011
0.20237
0.154293
0.0365447
-1.27675e-20
-1.96546e-11
-7.00898e-20
0.0933174
0.23204
0.153504
0.151389
0.266699
0.366683
0.350067
0.0950284
0.0517281
0.158491
0.200644
0.263922
0.306624
0.41258
0.673393
0.733466
0.608083
0.683214
0.582345
0.365169
0.272784
0.258583
0.431216
0.675095
0.809842
0.822049
0.825628
0.872084
0.893062
0.872168
0.894565
0.946554
0.876288
0.907107
0.90834
0.909238
0.909724
0.909724
0.895142
0.795699
0.943796
0.960911
0.94881
0.916296
0.91444
0.963095
0.989953
0.996173
0.993308
0.984025
0.969677
0.944427
0.932538
0.926935
0.969952
0.416961
0.464035
0.514645
0.536507
0.548012
0.537605
0.56445
0.676723
0.855215
0.990083
0.997919
0.998971
0.999393
0.999411
0.999412
0.999412
0.999412
0.999412
0.999412
0.998423
0.986648
0.955048
0.952268
3.60426e-22
-1.20631e-21
0.00723885
0.0235155
0.0318874
0.0354735
0.0600318
0.135752
0.216994
0.364309
0.567184
0.772643
0.930101
0.999009
0.999412
0.999412
0.999412
0.999412
0.999412
0.999406
0.998029
0.995203
0.98312
4.33271e-16
1.69791e-08
9.4915e-22
2.98589e-26
1.17215e-22
5.30731e-21
-3.34543e-10
3.43411e-06
1.18778e-07
-6.1048e-19
0.0102237
0.0772235
0.242224
0.478357
0.726575
0.894398
0.978856
0.99596
0.996221
0.997754
0.99801
0.997639
0.994576
1.19387e-11
3.11764e-07
7.29243e-07
1.54274e-06
1.7619e-06
1.70046e-06
2.05416e-07
1.78186e-07
1.91786e-05
2.76612e-05
8.02637e-09
4.46548e-09
4.79152e-06
0.00188221
0.0460741
0.16349
0.313703
0.500188
0.652826
0.749693
0.797731
0.805661
0.779888
2.35165e-08
1.21943e-09
1.24862e-09
1.30762e-09
2.59102e-07
8.41e-07
5.36023e-07
3.02143e-07
3.43595e-06
2.56786e-05
4.37652e-05
1.64471e-05
1.00481e-06
7.93322e-09
-5.6249e-11
-1.21116e-19
-2.00232e-16
0.00222211
0.0208829
0.0538776
0.0712304
0.0633644
0.0498113
2.88942e-08
1.35021e-08
2.65335e-09
1.49729e-09
1.41286e-09
1.46694e-09
2.71601e-08
4.09168e-08
2.49941e-07
1.97844e-07
4.8725e-05
4.89832e-05
1.6482e-05
5.06679e-09
2.18521e-08
2.98797e-09
2.0019e-16
3.59806e-21
5.14986e-22
-1.28445e-15
-1.45468e-20
-7.96299e-12
-3.14433e-15
2.83112e-08
1.3218e-08
3.62085e-09
1.53229e-09
2.58569e-06
6.70248e-06
1.95535e-06
8.92915e-08
5.95728e-09
5.92422e-09
7.56777e-06
3.67262e-05
2.26798e-05
6.77119e-07
8.70666e-08
1.02126e-08
1.35688e-09
5.17725e-26
-2.20851e-11
1.2844e-15
-1.23621e-26
-3.91028e-13
3.656e-11
2.66276e-08
8.25913e-09
1.13419e-08
7.76833e-06
2.7921e-05
2.91534e-05
2.16483e-05
3.95026e-06
5.93e-09
5.94003e-09
5.16881e-08
4.91316e-06
6.13249e-06
1.30339e-08
1.48688e-08
4.672e-09
6.20592e-10
1.02875e-23
1.78965e-05
3.11051e-05
4.22441e-05
2.13379e-05
9.14795e-08
2.38495e-08
7.08989e-09
6.231e-07
2.43627e-05
3.0444e-05
2.9788e-05
2.76025e-05
2.44657e-06
9.91817e-08
9.71389e-06
1.37645e-05
4.97061e-06
8.68113e-06
5.25726e-05
8.19135e-05
8.20744e-05
7.45217e-05
7.09081e-05
1.84575e-05
3.56305e-05
4.31368e-05
4.21264e-05
3.52501e-06
2.22087e-08
7.07849e-09
8.41622e-07
2.02914e-05
3.04763e-05
1.12681e-05
7.87628e-07
2.66759e-05
9.41648e-05
9.3853e-05
9.24023e-05
7.46396e-05
4.63403e-05
2.64945e-05
2.96889e-05
2.89501e-05
2.56767e-05
1.85076e-05
6.13933e-06
1.19712e-05
4.24329e-05
3.55936e-05
5.43374e-06
2.24231e-08
7.07957e-09
6.70856e-08
9.7858e-07
3.14155e-06
5.54976e-08
9.42247e-07
6.20605e-05
8.98076e-05
7.59198e-05
1.00227e-05
1.18112e-05
6.08095e-06
1.48591e-06
1.45002e-05
1.95272e-05
2.04114e-05
1.81746e-05
5.88416e-06
2.44252e-06
6.72146e-06
1.68347e-05
1.06732e-05
2.29793e-08
8.81189e-09
8.59445e-09
1.69149e-09
1.67591e-09
1.92347e-07
1.04927e-06
1.68478e-06
2.05832e-06
1.15613e-06
4.8202e-09
4.82074e-09
4.8202e-09
1.4731e-06
4.7273e-06
4.64468e-06
5.78733e-07
1.36519e-08
1.36486e-08
1.36519e-08
1.36525e-08
1.23133e-06
4.98735e-06
2.32887e-08
3.13544e-09
3.45235e-09
8.08706e-09
1.93025e-08
3.13162e-08
2.16903e-08
7.56808e-09
7.56621e-09
7.60514e-09
2.40798e-08
3.81045e-08
4.96099e-08
1.09378e-07
1.36621e-08
1.36558e-08
1.36528e-08
1.36499e-08
1.3648e-08
6.26384e-08
5.605e-07
2.49939e-06
5.75691e-06
2.43673e-08
2.61112e-09
4.24259e-09
1.45171e-08
4.12676e-08
8.17483e-08
9.80816e-08
7.5068e-08
3.67668e-08
1.03058e-08
9.0339e-09
1.69344e-08
2.00368e-08
1.71344e-08
1.9449e-08
1.93427e-08
1.65396e-08
1.49656e-08
1.56097e-08
3.28064e-08
4.89325e-08
1.21684e-07
2.38608e-07
2.52823e-08
2.32575e-09
3.37888e-09
1.13564e-08
3.22347e-08
7.23821e-08
1.07993e-07
1.04739e-07
7.1249e-08
1.99024e-08
4.31938e-09
4.95961e-09
4.88697e-09
4.55774e-09
5.45759e-09
7.40758e-09
9.25076e-09
1.01762e-08
9.81964e-09
8.67166e-09
8.81637e-09
1.05952e-08
1.01293e-08
2.58277e-08
2.09676e-09
2.14654e-09
4.058e-09
7.46266e-09
1.72252e-08
3.63287e-08
4.66592e-08
2.87537e-08
7.44667e-09
3.92323e-09
4.34532e-09
4.02063e-09
3.51345e-09
3.13804e-09
3.19016e-09
3.92936e-09
5.14725e-09
6.16392e-09
6.48609e-09
6.68723e-09
7.30122e-09
9.9861e-09
2.39175e-08
1.94918e-09
1.78241e-09
1.88019e-09
1.53575e-09
1.03034e-09
7.74718e-10
8.29364e-10
1.0899e-09
1.76391e-09
2.841e-09
3.11774e-09
2.64265e-09
2.23223e-09
2.07495e-09
2.06707e-09
2.18537e-09
2.4787e-09
2.99789e-09
3.87865e-09
4.32453e-09
5.32726e-09
6.16438e-09
5.1606e-09
1.92742e-09
1.61774e-09
1.5213e-09
1.26851e-09
1.0176e-09
8.39455e-10
7.70994e-10
8.35008e-10
9.97663e-10
1.14283e-09
1.19139e-09
1.13143e-09
1.05881e-09
1.04622e-09
1.09874e-09
1.21812e-09
1.43978e-09
1.77529e-09
2.30277e-09
2.7255e-09
3.22436e-09
3.84581e-09
2.92299e-09
2.89956e-09
2.12823e-09
1.8997e-09
1.48583e-09
1.16821e-09
9.1327e-10
7.17977e-10
5.81192e-10
4.91268e-10
4.41916e-10
4.24281e-10
4.27326e-10
4.45973e-10
4.81255e-10
5.4115e-10
6.31128e-10
7.67887e-10
9.77072e-10
1.33348e-09
1.58969e-09
2.05168e-09
2.34343e-09
3.50554e-09
3.37696e-09
2.72715e-09
2.41129e-09
1.83759e-09
1.39318e-09
1.03485e-09
7.49895e-10
5.28391e-10
3.73121e-10
2.66689e-10
2.03574e-10
1.77709e-10
1.79543e-10
2.03072e-10
2.42212e-10
2.98657e-10
3.77717e-10
4.91248e-10
6.90026e-10
8.83168e-10
1.10952e-09
1.37761e-09
4.106e-09
3.78639e-09
3.26844e-09
2.94305e-09
2.2445e-09
1.73839e-09
1.32223e-09
9.73574e-10
6.87854e-10
4.72714e-10
3.03992e-10
1.80818e-10
1.1033e-10
8.17565e-11
8.08668e-11
9.68271e-11
1.24165e-10
1.63848e-10
2.22962e-10
3.35635e-10
4.28014e-10
6.16673e-10
7.61757e-10
4.95055e-09
4.28951e-09
3.84758e-09
3.41234e-09
2.47215e-09
1.98314e-09
1.58275e-09
1.17656e-09
8.80066e-10
6.56618e-10
4.49469e-10
2.63805e-10
1.35406e-10
6.54581e-11
3.87301e-11
3.59516e-11
4.48607e-11
6.14656e-11
8.72962e-11
1.41018e-10
1.98928e-10
2.84784e-10
3.94477e-10
5.47466e-09
4.91754e-09
4.6859e-09
3.06711e-09
1.77165e-09
1.76569e-09
1.75978e-09
1.15947e-09
9.52493e-10
8.1304e-10
6.29846e-10
4.04425e-10
2.1662e-10
9.58972e-11
3.73812e-11
1.77209e-11
1.54562e-11
2.07944e-11
3.19487e-11
5.48905e-11
8.02151e-11
1.38314e-10
1.96698e-10
6.07849e-09
6.6105e-09
8.16587e-09
1.724e-08
6.4113e-08
7.98425e-08
7.49906e-10
7.46979e-10
7.94606e-10
8.57504e-10
7.80362e-10
5.60771e-10
3.30777e-10
1.57533e-10
5.88599e-11
1.90145e-11
7.74456e-12
6.87725e-12
1.07647e-11
2.01221e-11
3.6365e-11
6.09054e-11
9.93914e-11
6.15954e-09
7.58352e-09
7.57051e-09
1.75808e-07
6.877e-07
6.31258e-07
7.14203e-08
5.40676e-10
5.55663e-10
7.87541e-10
8.64783e-10
6.9018e-10
4.48153e-10
2.33995e-10
9.36422e-11
3.0233e-11
8.72653e-12
3.53784e-12
3.93786e-12
7.66604e-12
1.43603e-11
3.19865e-11
5.37905e-11
7.06418e-09
8.5365e-09
3.20715e-08
4.66356e-07
8.35136e-07
8.50473e-07
6.79348e-07
5.41135e-10
5.40887e-10
6.65986e-10
8.96663e-10
7.69517e-10
5.34628e-10
3.04553e-10
1.35194e-10
4.69817e-11
1.32633e-11
3.62072e-12
1.95783e-12
3.36397e-12
7.6995e-12
1.62979e-11
3.13793e-11
7.05642e-09
8.28263e-09
6.77311e-08
7.44346e-07
8.54681e-07
8.54215e-07
7.86492e-07
4.0671e-08
5.49797e-10
6.49976e-10
9.26841e-10
8.09912e-10
5.75568e-10
3.53296e-10
1.75132e-10
6.56135e-11
1.9502e-11
4.91831e-12
1.4881e-12
1.47968e-12
3.1036e-12
9.49367e-12
1.83334e-11
1.19259e-08
1.3371e-08
5.7352e-08
5.54774e-07
8.54849e-07
7.59848e-07
2.84063e-07
8.43009e-10
8.49193e-10
7.1348e-10
9.76407e-10
8.2868e-10
5.7011e-10
3.59899e-10
1.87512e-10
7.80677e-11
2.64861e-11
6.85144e-12
1.67581e-12
8.85634e-13
1.81665e-12
4.59629e-12
1.11397e-11
2.58067e-08
1.16964e-08
3.82655e-08
1.5604e-07
4.70113e-07
6.19213e-07
9.80583e-09
1.22533e-09
1.2313e-09
6.52575e-10
9.85331e-10
8.29806e-10
5.4039e-10
3.32606e-10
1.77885e-10
7.93869e-11
2.91787e-11
8.38943e-12
1.95791e-12
5.5435e-13
6.53414e-13
2.43221e-12
5.62765e-12
2.75037e-08
1.0516e-08
1.72595e-08
3.75656e-08
7.31322e-08
5.33591e-08
5.35999e-08
9.71128e-09
1.50142e-09
5.41256e-10
9.18319e-10
7.86725e-10
4.87473e-10
2.82466e-10
1.47732e-10
6.80386e-11
2.69437e-11
8.55945e-12
2.11985e-12
4.95729e-13
3.54355e-13
8.89051e-13
2.88028e-12
2.98707e-08
1.05086e-08
1.05371e-08
1.8809e-08
4.56338e-08
6.88664e-08
7.3375e-08
1.68054e-08
2.59718e-09
5.36533e-10
7.58282e-10
6.79416e-10
4.08589e-10
2.22157e-10
1.08634e-10
4.90069e-11
2.02421e-11
7.04204e-12
1.94872e-12
4.33152e-13
1.66077e-13
3.64481e-13
1.10306e-12
3.52458e-08
2.13891e-08
3.01034e-08
7.63622e-08
2.04713e-07
2.26209e-07
1.13462e-07
1.40715e-08
3.32434e-09
5.93201e-10
5.45388e-10
5.12721e-10
3.07922e-10
1.58139e-10
6.99401e-11
2.93763e-11
1.20387e-11
4.44218e-12
1.39364e-12
3.35079e-13
8.55636e-14
8.88464e-14
4.64941e-13
3.51931e-08
3.49732e-08
1.25584e-07
2.22804e-07
2.29656e-07
1.97892e-07
5.42583e-08
1.17678e-08
3.2164e-09
5.30238e-10
3.34211e-10
3.27631e-10
2.0164e-10
9.8633e-11
3.91635e-11
1.45015e-11
5.42147e-12
2.04312e-12
7.01743e-13
2.00468e-13
4.66865e-14
3.38283e-14
1.26062e-13
3.61682e-08
6.3182e-08
1.65037e-07
1.69287e-07
9.68957e-08
2.52468e-08
6.16716e-09
2.87226e-09
1.24491e-09
2.7916e-10
1.63541e-10
1.68089e-10
1.08789e-10
5.18791e-11
1.8473e-11
5.73279e-12
1.81315e-12
6.10797e-13
2.30619e-13
8.29253e-14
2.28926e-14
9.18035e-15
3.53132e-14
2.26009e-07
2.48593e-07
1.37764e-07
5.31209e-08
1.26041e-08
1.42871e-09
9.19735e-11
6.75648e-11
2.85356e-10
9.43634e-11
5.72165e-11
6.4742e-11
4.54087e-11
2.16144e-11
7.16026e-12
1.829e-12
4.35532e-13
1.17103e-13
4.41649e-14
2.25964e-14
6.86166e-15
2.63328e-15
8.57124e-15
3.28858e-07
2.79395e-07
6.45798e-08
1.51889e-08
2.07736e-09
1.75639e-10
1.30184e-11
8.52321e-13
7.74709e-11
2.03063e-11
1.24357e-11
1.60518e-11
1.2947e-11
6.28738e-12
1.97493e-12
4.19912e-13
7.09938e-14
1.25694e-14
4.85877e-15
3.87134e-15
1.62088e-15
7.11853e-16
1.74124e-15
2.36566e-07
7.51344e-08
1.76116e-08
2.7715e-09
2.61689e-10
2.07986e-11
1.68821e-12
1.15659e-13
1.46801e-11
1.78199e-12
9.59776e-13
2.00357e-12
1.81714e-12
9.19451e-13
2.67184e-13
4.72727e-14
5.47247e-15
6.30993e-16
2.88983e-16
4.13631e-16
3.5273e-16
1.76536e-16
3.44371e-16
0.000484235
0.000485632
0.00356557
0.0430701
0.000632805
0.000900414
0.000887656
0.00116547
0.0528362
0.00343273
0.000828102
0.000828886
0.795791
0.172988
0.0430454
0.0787798
0.997511
0.997574
0.9964
0.978856
0.97546
0.997896
0.997903
0.997911
0.991511
0.996508
0.997897
0.997904
0.986707
0.985743
0.987346
0.991591
0.776756
0.771982
0.768295
0.760835
0.0474023
0.0505889
0.0579424
0.0674056
-4.86241e-12
-5.42661e-10
-1.20667e-20
8.08937e-21
7.48514e-11
-7.38197e-12
-2.50626e-11
-3.345e-11
3.22175e-09
4.88889e-09
1.72582e-08
-7.49959e-10
3.09367e-07
1.06209e-07
1.97524e-08
1.22434e-08
1.20089e-07
5.42976e-08
2.13123e-08
1.55811e-08
1.45717e-06
1.12071e-06
1.83208e-08
5.19034e-07
2.13367e-05
2.17985e-05
2.14341e-05
2.27224e-05
1.13756e-05
1.60623e-05
1.97139e-05
1.7625e-05
1.02708e-07
9.17055e-07
1.45808e-06
1.0983e-06
4.64967e-08
1.621e-07
1.89887e-07
1.98894e-07
1.71539e-08
2.81815e-08
5.02563e-08
4.85614e-08
7.99619e-09
1.12007e-08
1.25434e-08
1.52377e-08
4.48278e-09
4.60865e-09
6.51047e-09
6.6199e-09
2.68229e-09
3.04254e-09
3.06699e-09
3.65568e-09
1.62182e-09
1.70813e-09
2.00033e-09
2.01979e-09
9.26839e-10
1.07627e-09
1.11306e-09
1.25865e-09
5.15436e-10
5.72335e-10
6.88043e-10
7.12101e-10
2.72265e-10
3.39012e-10
3.72968e-10
4.42224e-10
1.52089e-10
1.83385e-10
2.37659e-10
2.6218e-10
8.68182e-11
1.20586e-10
1.42323e-10
1.79319e-10
5.556e-11
7.21075e-11
1.0325e-10
1.20278e-10
3.3729e-11
5.32362e-11
6.52906e-11
8.95312e-11
2.14782e-11
3.06897e-11
4.65336e-11
5.5569e-11
1.27551e-11
1.9464e-11
2.63299e-11
3.90463e-11
6.20629e-12
9.26571e-12
1.5304e-11
1.88729e-11
3.16596e-12
4.81992e-12
7.18271e-12
1.16378e-11
1.21763e-12
1.95723e-12
3.57743e-12
4.98184e-12
4.84307e-13
7.82548e-13
1.27038e-12
2.27052e-12
1.25973e-13
2.31391e-13
4.6483e-13
6.8607e-13
3.43864e-14
6.59021e-14
1.14245e-13
2.37716e-13
7.64582e-15
1.58329e-14
3.36877e-14
6.88711e-14
1.61263e-15
3.53209e-15
8.59636e-15
1.68068e-14
0.0637924
0.0175937
0.233433
0.339781
0.0469934
0.0209132
0.0214194
0.0206955
0.0655205
0.252834
0.380066
0.338003
0.608134
0.730686
0.599072
0.460389
0.462474
0.569417
0.699144
0.000998422
0.0191873
0.176109
0.232519
0.102637
0.0188929
0.0191124
0.0203927
0.0209822
0.265383
0.782949
0.88827
0.89136
0.897724
0.940927
0.941341
0.926076
0.963848
0.981828
0.00110358
0.00339471
0.00774803
0.00956789
0.0139401
0.0179752
0.123292
0.364069
0.421489
0.362926
0.725249
0.832852
0.82118
0.831578
0.981649
0.988938
0.98896
0.98894
0.986483
0.0533306
0.0116246
0.00714111
0.00833864
0.0621892
0.33369
0.734454
0.832519
0.648742
0.312116
0.312127
0.31211
0.409256
0.818903
0.988994
0.988009
0.987302
0.988956
0.988948
0.918434
0.642826
0.500671
0.560992
0.773338
0.897365
0.94313
0.98066
0.956546
0.639741
0.394549
0.49236
0.8648
0.993432
0.989073
0.981649
0.984866
0.988218
0.988948
0.997894
0.983647
0.970757
0.97694
0.969269
0.963938
0.987328
0.991811
0.984181
0.897674
0.864054
0.964739
0.996377
0.994366
0.981165
0.972166
0.987551
0.98894
0.988941
0.997912
0.998766
0.998766
0.998766
0.998766
0.996442
0.995732
0.998755
0.99704
0.983828
0.974905
0.981094
0.996423
0.99175
0.849433
0.448591
0.835457
0.963997
0.89094
0.996217
0.994371
0.997671
0.998766
0.998766
0.998766
0.998765
0.99878
0.998775
0.998788
0.998774
0.998795
0.998781
0.969104
0.260473
1.58392e-08
0.134635
0.315193
0.220523
0.67229
0.67483
0.841193
0.952905
0.997968
0.998766
0.998766
0.998764
0.998364
0.997585
0.979066
0.935081
0.825559
0.352237
2.8147e-11
1.81327e-08
1.40161e-19
-1.51671e-10
-1.88424e-11
0.053932
0.0461192
0.132879
0.33937
0.670834
0.867997
0.91603
0.913579
0.803401
0.5723
0.355351
0.211672
0.066634
2.84281e-11
2.8831e-11
1.79168e-07
1.04951e-09
2.48726e-09
2.49582e-09
-3.48137e-20
-2.99767e-20
-7.80738e-20
0.000888358
0.139632
0.386279
0.409992
0.244291
0.0519738
1.73118e-18
1.94983e-18
2.24069e-18
3.92258e-18
3.48929e-10
4.22702e-11
-7.9054e-11
2.99992e-09
2.43395e-08
2.15916e-08
2.6511e-06
4.39124e-06
-3.87032e-21
-1.76079e-22
3.60501e-20
9.09457e-20
2.56745e-18
4.0895e-18
8.3013e-18
3.68292e-10
2.827e-09
5.96208e-09
2.97765e-09
1.04804e-09
2.04031e-08
1.26983e-06
2.87436e-09
7.53251e-08
8.07316e-08
1.02137e-06
1.67483e-05
7.57312e-06
5.81313e-23
2.66809e-13
6.82378e-10
6.65608e-09
6.92713e-09
3.23639e-09
9.8989e-09
1.32828e-08
1.3143e-08
9.56286e-09
1.08144e-09
1.16306e-05
6.58818e-05
2.11535e-05
7.4719e-08
8.07023e-08
4.19041e-07
2.29586e-05
3.91285e-05
1.42175e-05
1.26587e-07
1.62674e-08
6.52768e-08
2.57058e-08
1.66969e-08
2.03986e-08
1.5355e-08
1.19913e-08
1.82125e-08
2.6481e-07
4.80045e-05
8.96629e-05
6.90187e-05
2.07369e-07
6.48246e-08
1.52497e-08
2.18734e-05
3.93244e-05
3.96194e-05
6.17405e-06
1.94872e-07
1.49352e-07
1.94429e-08
2.29307e-08
3.22145e-08
1.13403e-08
1.12551e-08
1.6371e-08
6.04794e-07
0.000187791
0.000211323
6.23182e-05
5.04803e-08
5.0417e-08
8.78906e-06
1.90625e-05
3.94834e-05
2.665e-05
2.18422e-06
4.54724e-07
1.64043e-08
1.5905e-08
1.60052e-08
1.55278e-08
6.08844e-07
3.02444e-07
1.72282e-08
2.59895e-05
0.000255379
0.00025476
2.9182e-05
5.04237e-08
5.04303e-08
2.34606e-05
2.36852e-05
1.6483e-05
2.52282e-06
9.2431e-07
3.64794e-07
1.21752e-05
6.32689e-05
6.82507e-05
4.88083e-05
2.52408e-05
2.59753e-06
5.82815e-08
0.000208928
0.000252723
9.3076e-05
9.00835e-06
6.21339e-08
4.70368e-06
9.46589e-06
8.85983e-06
8.44966e-06
3.16333e-06
1.05496e-06
5.8842e-06
6.57408e-06
0.000129296
0.00028914
0.000289323
0.000289148
0.000162343
0.000239985
0.000255834
0.000214418
1.25471e-05
2.76033e-06
2.87526e-05
0.000167707
2.83104e-07
1.36956e-07
3.31675e-06
2.12126e-06
9.48462e-07
9.06461e-06
1.73104e-05
2.05956e-05
0.000114139
0.000179507
0.000226082
0.000247739
0.000248767
0.000227914
1.66626e-05
4.12493e-06
2.3332e-06
0.000193084
0.000231347
5.13306e-08
2.75098e-08
1.69452e-08
1.95619e-07
9.37103e-07
1.67602e-06
1.3473e-06
3.28285e-07
7.38609e-06
5.83885e-06
7.03345e-06
2.78219e-05
2.42941e-05
8.55903e-07
4.38662e-06
4.89513e-06
1.18817e-05
0.000228345
0.000231518
2.62393e-08
1.46897e-08
1.71332e-08
6.53983e-08
2.7982e-07
3.10578e-07
2.38569e-07
1.63565e-07
1.50668e-07
7.80961e-08
3.18863e-08
2.50651e-08
2.37282e-08
5.71524e-07
3.63644e-06
2.07308e-05
0.000170711
0.000229406
0.000169978
1.23237e-08
1.17213e-08
1.617e-08
4.50789e-08
1.39542e-07
2.61084e-07
2.67163e-07
2.66515e-07
1.71148e-07
4.87815e-08
3.65418e-08
3.10485e-08
2.39214e-08
4.5048e-07
5.03587e-08
5.11283e-05
0.000198091
0.00022715
5.15876e-05
6.91972e-09
7.70543e-09
8.34589e-09
2.16398e-08
7.70367e-08
1.78918e-07
2.41553e-07
1.82719e-07
7.47689e-08
2.44166e-08
1.76191e-08
1.88484e-08
2.01849e-08
2.75927e-08
2.29305e-08
1.25752e-05
6.88679e-05
2.40641e-05
3.85981e-05
3.64002e-09
4.26717e-09
4.56817e-09
5.62516e-09
7.67646e-09
2.56376e-08
4.83224e-08
3.75747e-08
1.95915e-08
1.00552e-08
9.05424e-09
1.44472e-08
1.03559e-08
2.50391e-09
2.30015e-06
5.29839e-06
2.85657e-08
1.55278e-06
6.17828e-05
2.21151e-09
2.42321e-09
2.73558e-09
2.81426e-09
2.53053e-09
2.67683e-09
5.14514e-09
6.83756e-09
6.87877e-09
6.46434e-09
7.22131e-09
1.21422e-08
8.16758e-09
1.4507e-09
5.49748e-07
2.45923e-07
2.89306e-08
8.85515e-06
0.000170967
1.27869e-09
1.50132e-09
1.69208e-09
1.84642e-09
2.00075e-09
2.41774e-09
3.26148e-09
4.14278e-09
4.88909e-09
5.54798e-09
6.10157e-09
7.34323e-09
1.44282e-08
1.51273e-09
2.02262e-07
3.04649e-07
1.08917e-07
4.16757e-07
0.000171028
7.9466e-10
9.46294e-10
1.10662e-09
1.28532e-09
1.51945e-09
1.87265e-09
2.47663e-09
3.22518e-09
4.10094e-09
4.89318e-09
5.76167e-09
7.79615e-09
8.08522e-09
7.33981e-07
1.27901e-06
1.2777e-06
7.89966e-07
6.09138e-08
0.00016083
4.76848e-10
6.14894e-10
7.62259e-10
9.39655e-10
1.17004e-09
1.46699e-09
1.94715e-09
2.60563e-09
3.41822e-09
4.25918e-09
5.25901e-09
8.10833e-09
8.05572e-09
6.75031e-07
1.34032e-06
1.18253e-06
5.51508e-07
2.82498e-08
7.1362e-05
3.06973e-10
4.19302e-10
5.55374e-10
7.21995e-10
9.30956e-10
1.20714e-09
1.60129e-09
2.16894e-09
2.82972e-09
3.65926e-09
4.58896e-09
7.38811e-09
2.76749e-08
9.46666e-08
4.12198e-07
2.39136e-07
1.95291e-07
2.82323e-08
1.59088e-05
2.09153e-10
3.02648e-10
4.2651e-10
5.82228e-10
7.81188e-10
1.03905e-09
1.37924e-09
1.87131e-09
2.53713e-09
3.26289e-09
4.04105e-09
5.77625e-09
1.64266e-08
6.19117e-08
1.01811e-06
2.21226e-06
4.10029e-08
2.83089e-08
2.82484e-08
1.49634e-10
2.28702e-10
3.37721e-10
4.77762e-10
6.63525e-10
9.00425e-10
1.24118e-09
1.72919e-09
2.46108e-09
3.406e-09
4.38521e-09
5.48938e-09
1.30766e-08
7.19837e-08
3.01577e-06
7.1398e-06
5.57819e-06
2.82035e-08
2.82497e-08
1.08589e-10
1.72661e-10
2.64829e-10
3.8298e-10
5.45772e-10
7.61878e-10
1.08081e-09
1.57748e-09
2.43543e-09
3.83866e-09
5.55871e-09
6.94858e-09
9.0816e-09
4.36989e-08
2.47605e-06
7.28442e-06
7.26869e-06
6.25759e-06
5.42826e-06
7.69657e-11
1.25073e-10
1.92793e-10
2.89001e-10
4.17392e-10
6.04331e-10
8.68591e-10
1.3163e-09
2.14941e-09
3.90131e-09
7.25723e-09
1.1469e-08
1.20609e-08
1.92374e-08
3.94872e-07
5.10973e-06
7.25322e-06
7.15969e-06
3.03702e-06
4.88997e-11
8.46364e-11
1.32685e-10
2.02604e-10
3.01183e-10
4.37346e-10
6.43418e-10
1.00745e-09
1.72404e-09
3.33055e-09
7.67878e-09
1.84867e-08
3.69369e-08
4.19518e-08
6.0137e-08
5.05346e-07
4.82141e-06
4.82731e-06
3.14276e-08
3.05589e-11
5.16258e-11
8.41277e-11
1.31168e-10
1.98278e-10
2.92436e-10
4.45189e-10
7.11722e-10
1.21191e-09
2.33345e-09
5.10128e-09
1.76849e-08
7.28705e-08
1.31126e-07
7.70363e-08
6.95794e-08
2.34207e-07
1.52952e-07
2.02305e-08
1.57714e-11
2.87554e-11
4.84643e-11
7.68909e-11
1.18152e-10
1.80928e-10
2.80488e-10
4.60257e-10
7.99372e-10
1.47895e-09
2.94114e-09
8.34451e-09
5.1189e-08
1.74769e-07
2.02143e-07
4.27779e-08
3.2414e-08
3.28269e-08
2.01308e-08
7.62698e-12
1.43011e-11
2.49439e-11
4.06572e-11
6.43833e-11
1.01785e-10
1.63147e-10
2.73734e-10
4.92094e-10
9.3467e-10
1.85044e-09
3.93786e-09
1.54003e-08
1.02635e-07
2.30895e-07
2.05208e-07
3.46051e-08
2.4024e-08
2.07387e-07
3.18586e-12
6.38057e-12
1.14862e-11
1.93976e-11
3.22156e-11
5.25133e-11
8.70512e-11
1.51337e-10
2.79184e-10
5.40804e-10
1.07557e-09
2.19459e-09
5.37788e-09
2.80448e-08
1.65036e-07
2.47228e-07
1.79495e-07
1.20426e-07
2.3889e-07
1.24347e-12
2.50392e-12
4.66883e-12
8.37781e-12
1.4373e-11
2.47848e-11
4.24971e-11
7.63033e-11
1.45715e-10
2.99548e-10
6.36903e-10
1.31277e-09
2.59596e-09
6.62587e-09
4.72914e-08
2.31104e-07
2.49736e-07
2.23559e-07
2.20278e-07
4.0078e-13
8.43378e-13
1.65306e-12
3.10323e-12
5.74568e-12
1.04563e-11
1.9162e-11
3.58067e-11
7.11022e-11
1.50241e-10
3.32689e-10
7.23757e-10
1.52402e-09
3.63794e-09
1.45649e-08
8.51515e-08
2.49707e-07
2.49739e-07
5.93819e-08
1.08741e-13
2.46937e-13
5.03361e-13
1.00981e-12
2.03031e-12
4.01955e-12
7.81783e-12
1.54836e-11
3.17419e-11
6.90636e-11
1.59147e-10
3.67792e-10
8.14122e-10
1.80201e-09
5.1413e-09
2.46629e-08
1.20057e-07
1.84592e-07
1.42568e-08
2.81566e-14
6.58864e-14
1.43832e-13
3.07605e-13
6.589e-13
1.41116e-12
2.94373e-12
6.08747e-12
1.27734e-11
2.81391e-11
6.65441e-11
1.61404e-10
3.78089e-10
8.15654e-10
1.70746e-09
4.53919e-09
1.3922e-08
1.94185e-08
4.26407e-09
)
;

boundaryField
{
    leftWall
    {
        type            zeroGradient;
    }
    rightWall
    {
        type            zeroGradient;
    }
    lowerWall
    {
        type            zeroGradient;
    }
    atmosphere
    {
        type            inletOutlet;
        inletValue      uniform 0;
        value           nonuniform List<scalar> 
46
(
2.36566e-07
7.51344e-08
1.76116e-08
2.7715e-09
2.61689e-10
2.07986e-11
1.68821e-12
0
0
0
0
0
0
0
0
0
0
0
0
4.13631e-16
3.5273e-16
1.76536e-16
3.44371e-16
1.61264e-15
3.53209e-15
8.59636e-15
1.68068e-14
2.81566e-14
6.58864e-14
0
0
0
0
0
0
0
0
0
0
0
0
0
0
1.3922e-08
1.94185e-08
4.26407e-09
)
;
    }
    defaultFaces
    {
        type            empty;
    }
}


// ************************************************************************* //
