/*--------------------------------*- C++ -*----------------------------------*\
| =========                 |                                                 |
| \\      /  F ield         | OpenFOAM: The Open Source CFD Toolbox           |
|  \\    /   O peration     | Version:  2312                                  |
|   \\  /    A nd           | Website:  www.openfoam.com                      |
|    \\/     M anipulation  |                                                 |
\*---------------------------------------------------------------------------*/
FoamFile
{
    version     2.0;
    format      ascii;
    arch        "LSB;label=32;scalar=64";
    class       volScalarField;
    location    "3.15";
    object      p_rgh;
}
// * * * * * * * * * * * * * * * * * * * * * * * * * * * * * * * * * * * * * //

dimensions      [1 -1 -2 0 0 0 0];

internalField   nonuniform List<scalar> 
2268
(
6672.89
6625.34
6537.5
6415.84
6269.91
6109.62
5946.42
5789.69
5643.15
5507.69
5391.49
5294.71
5218.89
5164.55
5129.49
5109.53
5099.84
5095.22
5092.66
5090.8
5089.11
5088.02
5087.52
6682.82
6632.1
6545.11
6421.41
6273.26
6110.31
5944.94
5787.47
5640.64
5503.29
5387.35
5290.06
5214.01
5160.42
5125.86
5107.22
5098.54
5094.66
5092.45
5090.7
5089.06
5087.9
5087.57
6704.1
6652.18
6560.2
6432.33
6280.15
6112.11
5941.7
5782.22
5634.15
5497.17
5379.26
5280.73
5204.65
5152.15
5119.05
5102.34
5096.01
5093.64
5092.12
5090.52
5088.81
5087.19
5087.12
6735.92
6680.49
6582.88
6447.44
6288.36
6112.2
5937.16
5775.34
5625.13
5486.28
5366.01
5266.06
5191.41
5140.18
5108.8
5094.91
5092.35
5092.03
5091.35
5090.14
5088.75
5086.64
5087.97
6781.21
6719.49
6614.47
6474.39
6301.1
6112.98
5930.75
5766.49
5614.86
5473.13
5348.88
5243.51
5141.44
5059.15
5007.6
4990.82
4993.82
4994.01
4987.95
4970.09
4950.09
4924.24
4942.27
6836.46
6768.35
6651.37
6499.44
6313.62
6109.58
5914.53
5662.37
5250.92
4698.79
4108.96
3479.39
3000.54
2736.8
2616
2590.98
2614.74
2635.16
2608.47
2545.32
2425.23
2286.91
2432.48
6890.18
6815.26
6693.51
6534.68
6045.78
4965.33
3813.64
2800.88
2047.53
1521.86
1209.4
1145.79
1150.71
1153.11
1159.8
1167.83
1176.53
1181.84
1191.1
1211.95
1250.49
1318.62
1294.26
6784.47
6419.67
5539.7
4017.33
2458.85
1537.5
1121.2
1094.4
1101.53
1113.66
1128.22
1140.01
1150.58
1155.18
1152.28
1169.44
1174.52
1181.73
1196.73
1213.19
1272.38
1343.33
1333.04
3903.04
3668.14
3424.38
3254.16
3162.11
3132.81
3156.17
3203.26
3235.2
3213
3127.87
3013.42
2895.22
2781.28
2704.1
2650.76
2613.54
2592.58
2588.65
3938.08
3685.53
3419.73
3239.67
3141.94
3115.61
3151.78
3209.86
3247.29
3220.95
3124.42
2996.43
2833.13
2682.12
2583.62
2509.43
2458.71
2447.46
2457.51
3996.25
3632.27
2990.25
2699.99
2572.24
2555.44
2669.39
2817.77
2889.18
2745.47
2573.59
2384.66
2235.89
2015.44
1888.15
1855.93
1820.1
1730.09
1682.54
3737.25
2650.49
1991.99
1528.37
1359.33
1303.44
1343.12
1532.09
1839.1
2036.12
1804.54
1450.38
1257.62
1184.96
1163.09
1144.09
1126.21
1106.22
1104.54
2024.65
1511.34
1200.48
1272.14
1288.35
1278.47
1259.9
1205.87
1139.68
1117.38
1157.86
1205.71
1203.29
1187.06
1169.44
1143.99
1134.33
1137.12
1139.95
1444.32
1181.61
1187.66
1279.23
1298.7
1245.31
1197.67
1170.36
1145.55
1154.86
1189.39
1236.57
1241.66
1227.92
1206.26
1116.03
1124.27
1143.42
1142.54
1285.2
1214.74
1186.52
1258.55
1289.72
1260.9
1253.04
1240.74
1192.7
1132.98
1200.14
1254.09
1238.8
1192.77
1124.88
1095.29
1105.51
1130.22
1144.91
1225.78
1302.86
1229.33
1201.98
1300.03
1358.45
1394.32
1331.94
1288.48
1207.64
1203.21
1182.22
1132.52
1079.49
1086.46
1109.82
1090.4
1109.67
1138.24
2065.39
1760.37
1354.82
1084.15
1058.93
1065.04
1075.71
1085.1
1096.02
1108.65
1123.29
1135.32
1146.54
1157.13
1172.89
1177.81
1172.17
1178.93
1189.74
1200.5
1328.37
1372.44
1432.54
1014.23
1020.09
1029.26
1037.43
1046.24
1056.97
1067.85
1078.15
1087.37
1099.93
1115.27
1128.85
1136.24
1143.98
1180.76
1160.75
1167.82
1162.62
1156.53
1174.94
1177.88
1190.67
1192.36
1029.42
1032.37
1037.52
1040.98
1044.06
1043.63
1028.5
1027.15
1018.66
1040.9
1074.81
1085.03
1091.86
1107.07
1116.19
1082.74
1065.72
1065.98
1039.9
1008.38
1051.98
1198.37
1195.87
976.555
957.816
916.72
863.454
818.197
751.266
749.696
737.904
775.482
848.932
916.997
965.368
985.361
919.275
826.501
799.385
775.247
771.471
771.596
768.599
777.329
814.23
824.901
543.994
529.422
533.027
538.388
553.797
605.865
618.609
639.619
659.534
657.221
669.21
679.96
689.122
691.736
711.13
730.092
742.594
749.573
753.656
746.371
737.423
743.054
763.761
259.391
287.383
317.723
334.257
363.545
416.851
487.724
520.021
587.046
639.113
655.058
669.545
685.097
701.275
717.289
732.501
746.055
757.123
765.364
769.629
763.77
744.625
745.254
9.79766
7.73104
8.08476
23.0477
30.082
35.1322
62.0704
118.735
161.773
250.802
387.182
530.863
644.581
702.2
718.675
734.953
748.755
759.519
767.572
773.038
776.409
773.682
765.113
9.14488
7.53564
4.89373
2.16921
1.15111
1.12828
1.04754
1.05949
1.36401
2.21469
13.0676
62.45
182.526
353.858
538.632
668.91
742.166
766.041
773.829
779.363
782.889
784.258
789.11
0.341493
0.349491
0.358626
0.367776
0.387909
0.425609
0.507838
0.581702
0.638177
0.614425
1.8688
3.84572
1.73048
3.37802
39.4614
135.835
264.034
411.863
533.933
605.861
641.453
661.615
671.276
0.317893
0.321089
0.327319
0.338402
0.356976
0.373811
0.421256
0.490484
0.501054
0.452054
0.374224
0.31066
0.283456
0.350905
0.855057
1.93367
3.45246
9.25951
26.7851
48.9522
63.4879
73.5442
80.323
0.299865
0.301167
0.303842
0.308606
0.315072
0.319064
0.324718
0.34166
0.358734
0.31785
0.307586
0.27346
0.215111
0.166912
0.121613
0.0773907
0.0452371
0.0149995
0.108251
0.0265092
0.0374946
0.139499
0.0703277
0.278748
0.278151
0.277832
0.27853
0.283295
0.283939
0.27198
0.261341
0.249856
0.238339
0.219731
0.22067
0.175191
0.120619
0.0797067
0.036071
0.00703958
-0.0188868
0.0467183
0.00837668
-0.0419952
-0.0142563
0.029904
0.258016
0.25614
0.253928
0.260402
0.27948
0.27421
0.255866
0.225247
0.210937
0.209155
0.203917
0.178758
0.147781
0.110398
0.0757535
0.0411675
0.0131986
0.0679542
0.141953
0.141532
0.126579
0.0303473
0.0245453
0.239252
0.236659
0.233866
0.256087
0.257678
0.250657
0.245902
0.207302
0.196364
0.203037
0.208632
0.185662
0.168438
0.200224
0.241901
0.243261
0.22761
0.240493
0.158114
0.102283
0.0924646
0.02481
-0.00307814
0.22294
0.220028
0.216854
0.233239
0.240608
0.220222
0.217925
0.241324
0.363625
0.379901
0.345028
0.336432
0.297969
0.260553
0.20751
0.215883
0.190531
0.152228
0.0559543
-0.000551752
0.0373385
0.0402664
-0.00992651
0.208308
0.205376
0.201239
0.196322
0.195918
0.188682
0.183599
0.283507
0.344726
0.312822
0.152485
0.152509
0.152482
0.221036
0.227411
0.211927
0.163047
0.124207
0.0213886
-0.0273784
-0.0100379
0.017556
0.00187074
0.194262
0.191409
0.18733
0.181567
0.174384
0.166703
0.158436
0.147916
0.137425
0.124413
0.110985
0.099641
0.096289
0.119239
0.109822
0.062009
0.0152209
-0.00708361
-0.0272926
-0.0460899
-0.0531751
-0.0352548
-0.0134564
0.180315
0.177557
0.173587
0.168128
0.161459
0.153661
0.144683
0.134503
0.123959
0.113483
0.102822
0.0912125
0.0785395
0.0637966
0.0479996
0.0313413
0.0137888
-0.00423103
-0.0219195
-0.0387388
-0.0525772
-0.0624116
-0.0626373
0.166584
0.163949
0.160164
0.155042
0.14887
0.141734
0.133601
0.124637
0.114968
0.105001
0.0945559
0.0832215
0.0710019
0.0576671
0.0434959
0.0286536
0.0133133
-0.00222475
-0.0174833
-0.0320465
-0.0454386
-0.0574495
-0.0682463
0.153338
0.150846
0.147274
0.14249
0.136763
0.130195
0.122828
0.114661
0.10589
0.0966056
0.0867628
0.0761856
0.064824
0.0526603
0.03987
0.0266354
0.0130858
-0.000514972
-0.013831
-0.0265572
-0.0384578
-0.0494815
-0.0597308
0.140777
0.138434
0.135099
0.13066
0.125364
0.11932
0.112595
0.105206
0.0971803
0.0886178
0.0795252
0.0697907
0.0593818
0.0483516
0.0368106
0.0249776
0.0129415
0.000935578
-0.0107979
-0.0220306
-0.0325952
-0.0424817
-0.0515868
0.128972
0.126773
0.12369
0.11961
0.114759
0.109233
0.103088
0.0963633
0.0890857
0.0812664
0.0728982
0.0639628
0.0544844
0.0445242
0.0341904
0.0235417
0.0128026
0.00213367
-0.00827972
-0.0182503
-0.0277428
-0.0365393
-0.0446461
0.11794
0.115844
0.113004
0.109276
0.104854
0.0998245
0.0942432
0.0881377
0.0815207
0.0743958
0.0667663
0.0586428
0.0500429
0.0410327
0.0317164
0.0221934
0.0126081
0.00310022
-0.00618741
-0.0151339
-0.0235703
-0.0314532
-0.0387218
0.107614
0.10555
0.103012
0.0996056
0.0955661
0.0909891
0.0859273
0.0803998
0.0744074
0.0679479
0.0610269
0.053664
0.0458962
0.0377872
0.029424
0.0209052
0.0123455
0.00386231
-0.00442631
-0.0124118
-0.0199786
-0.0270576
-0.033596
0.098155
0.0960814
0.0936864
0.0905269
0.0868211
0.0826564
0.0780794
0.0731003
0.067709
0.061895
0.0556609
0.0490292
0.0420427
0.0347641
0.027272
0.0196554
0.0120113
0.00443906
-0.00296158
-0.0100978
-0.0168852
-0.0232456
-0.0291296
0.0890919
0.0870934
0.0848353
0.0819095
0.0785213
0.0747484
0.0706356
0.0661877
0.0613809
0.0561939
0.0506232
0.0446901
0.0384376
0.0319266
0.02523
0.0184279
0.0116044
0.00484535
-0.00176328
-0.0081317
-0.014226
-0.0199379
-0.0252297
0.0805961
0.0785112
0.076367
0.0736658
0.0705839
0.067194
0.0635369
0.0596122
0.0553803
0.0508054
0.0458756
0.0406082
0.0350448
0.0292443
0.0232754
0.0172113
0.0111267
0.00509582
-0.000810802
-0.00653317
-0.0119574
-0.0170738
-0.0218268
0.072258
0.0703114
0.0682166
0.06573
0.0629501
0.059943
0.0567425
0.0533394
0.0496762
0.0456995
0.0413872
0.0367527
0.0318356
0.0266933
0.0213916
0.015999
0.0105838
0.00521225
-5.20085e-05
-0.0051476
-0.0100077
-0.0145916
-0.0188555
0.0642218
0.0623775
0.060357
0.0581035
0.0557256
0.0531361
0.0502381
0.0473591
0.0442565
0.0408593
0.0371376
0.0331009
0.0287881
0.0242553
0.0195666
0.0147875
0.00998131
0.00520857
0.000526791
-0.00400928
-0.00834718
-0.012445
-0.0162617
0.0564511
0.0547157
0.0527913
0.0510715
0.0499666
0.0476246
0.0441975
0.0416836
0.0391255
0.036282
0.0331167
0.0296383
0.0258863
0.0219167
0.017792
0.0135751
0.00932567
0.00509927
0.00094788
-0.00308025
-0.00694095
-0.0105901
-0.0139961
0.0490847
0.0476388
0.0456494
0.0446959
0.0436265
0.0419044
0.03973
0.0363515
0.034305
0.0319775
0.0293244
0.026358
0.0231205
0.0196684
0.0160625
0.0123625
0.00862422
0.00489895
0.00123381
-0.00232813
-0.00574735
-0.00898664
-0.0120145
0.0420865
0.041072
0.0391369
0.0387803
0.0376932
0.0366641
0.0348214
0.0315084
0.0298259
0.0279602
0.0257672
0.0232596
0.0204868
0.0175061
0.014376
0.0111518
0.0078848
0.00462148
0.00140443
-0.00172787
-0.00474021
-0.00759898
-0.0102769
0.0357982
0.0349711
0.0332727
0.032409
0.0320747
0.0315443
0.030144
0.0270603
0.0257068
0.0242457
0.0224543
0.020346
0.0179856
0.0154301
0.0127342
0.00994779
0.00711601
0.0042801
0.00147793
-0.00125611
-0.00389123
-0.00639802
-0.00875089
0.0298237
0.0294042
0.0278198
0.0262658
0.0258459
0.027243
0.0300804
0.025317
0.0219664
0.0208428
0.0193994
0.0176191
0.0156198
0.013445
0.0111431
0.00875778
0.00632768
0.00388775
0.0014705
-0.000893662
-0.00317696
-0.00535576
-0.00740623
0.0249254
0.0245177
0.0230807
0.0215781
0.0206015
0.0223065
0.0264821
0.0245827
0.0187342
0.0177647
0.0166322
0.0150652
0.0133906
0.0115581
0.00961215
0.0075922
0.00553122
0.00345775
0.00139876
-0.000619416
-0.00257588
-0.00444898
-0.00621594
0.02063
0.0200839
0.0191273
0.0179041
0.017082
0.0192131
0.0235023
0.0193894
0.0158935
0.0149906
0.0140306
0.0128059
0.0113052
0.00977888
0.00815212
0.00646244
0.00473845
0.00300299
0.00127706
-0.000418924
-0.0020692
-0.00365437
-0.00515422
0.0170016
0.0165374
0.0158353
0.0150368
0.0146794
0.0158024
0.0192851
0.0143013
0.0131744
0.0124856
0.0116607
0.0106392
0.00938223
0.00811178
0.00676751
0.00537632
0.00395979
0.00253521
0.00111818
-0.000277233
-0.00163943
-0.0029537
-0.0042002
0.0137376
0.0133925
0.0131763
0.012802
0.0123495
0.0119941
0.0114619
0.0112327
0.0107338
0.0101544
0.00943731
0.00856919
0.00757808
0.00653436
0.00544875
0.00433323
0.00320096
0.00206389
0.000933019
-0.000180528
-0.00127059
-0.00232701
-0.00333223
0.0109669
0.0105729
0.0105823
0.0102335
0.00974745
0.00931185
0.00904005
0.00876559
0.00839438
0.00790154
0.00729403
0.00659058
0.00581943
0.00501071
0.00417696
0.00332485
0.00246181
0.00159539
0.000733133
-0.000115474
-0.000947033
-0.00175764
-0.00253029
0.0103169
0.00921624
0.00794632
0.0074753
0.00716931
0.00692594
0.00669992
0.00643144
0.00608156
0.00565657
0.0051744
0.00464739
0.00409062
0.00351819
0.00293404
0.00233987
0.00173822
0.00113236
0.000526339
-6.98864e-05
-0.000655023
-0.00122738
-0.00177377
0.00765866
0.00655897
0.00490431
0.00463585
0.0045227
0.00438943
0.00422049
0.00398899
0.00370347
0.00338238
0.00304867
0.00271039
0.00237247
0.00203795
0.00170363
0.00136655
0.00102469
0.000676858
0.000322776
-3.28361e-05
-0.000382801
-0.000724282
-0.00104907
0.00233095
0.00148638
0.00139514
0.0015586
0.00164241
0.00163939
0.00160135
0.00143806
0.00124442
0.00105431
0.000886041
0.000746489
0.000633005
0.000540074
0.000459382
0.0003837
0.000306872
0.000223165
0.000125869
2.62079e-06
-0.000119425
-0.000229705
-0.000333327
1466.39
1376.18
1462.97
1449.57
1219.62
1230.98
1238.75
1251.1
1179.28
1211.99
1218.89
1229.87
891.589
1179.55
1247.45
1240.07
772.354
773.465
776.959
774.135
755.442
776.101
788.071
794.238
771.723
776.724
783.833
804.609
797.275
798.014
795.324
793.644
669.289
666.066
658.351
647.22
77.9948
84.6028
92.1741
100.389
0.123584
0.169425
3.23034
10.6034
0.0772068
0.100889
0.115048
0.141399
0.0539543
0.0691155
0.0798991
0.0932026
0.00617705
0.0126043
0.0176694
0.0231654
-0.0307752
-0.0309705
-0.0318004
-0.0327696
0.0324028
0.0571252
0.0225603
-0.0130919
0.0169388
0.0717762
0.0661799
0.0446656
-0.059128
-0.0486705
-0.0243147
-0.0272821
-0.0764939
-0.0798218
-0.083178
-0.0874938
-0.0666318
-0.0705454
-0.074503
-0.077989
-0.0576788
-0.061397
-0.0648483
-0.0680361
-0.0500562
-0.0533669
-0.0564948
-0.0593855
-0.043576
-0.0465463
-0.0493554
-0.0519881
-0.037968
-0.0406401
-0.0431758
-0.045555
-0.0330681
-0.0354747
-0.0377586
-0.0399068
-0.0287761
-0.0309426
-0.0329981
-0.0349278
-0.0250198
-0.0269731
-0.0288299
-0.0305816
-0.0217268
-0.0234862
-0.0251613
-0.0267446
-0.0188381
-0.0204189
-0.0219258
-0.0233535
-0.0163009
-0.0177173
-0.0190695
-0.0203527
-0.0140691
-0.0153333
-0.0165421
-0.0176925
-0.0120991
-0.0132228
-0.0143001
-0.0153275
-0.0103575
-0.0113505
-0.0123042
-0.0132176
-0.0088112
-0.00968181
-0.0105208
-0.0113261
-0.007432
-0.00818731
-0.00891666
-0.00961987
-0.00619095
-0.0068371
-0.00746347
-0.00806845
-0.00506659
-0.00560823
-0.00613429
-0.0066446
-0.00403476
-0.00447545
-0.00490495
-0.00532177
-0.00307412
-0.00341633
-0.0037501
-0.00407534
-0.00216135
-0.00240669
-0.00264726
-0.002882
-0.00128152
-0.00142987
-0.00157576
-0.00171944
-0.000411103
-0.000462488
-0.000513943
-0.000565443
1435.95
1280.38
1200.19
1181.6
1288.09
1338.57
1325.78
1340.49
1376.66
1282.52
1173.65
1095.43
1028.33
994.9
1004.84
1034.94
1031.99
1005.75
1001.93
1263.64
1257.1
1224.01
1224.87
1262.92
1262.9
1248.26
1231.09
1239.82
1194
1001.01
959.266
964.102
963.482
910.618
870.796
882.264
910.882
934.224
1249.48
1278.81
1300.99
1310.44
1296.45
1262.37
1207.25
1128.4
1103.34
1077.04
904.273
884.335
897.272
869.183
825.531
829.77
833.335
840.156
879.829
1248.2
1273.15
1298.23
1300.96
1260.01
1193.21
1027.65
998.099
982.716
1004.36
1004.9
985.311
930.894
781.989
826.588
827.567
807.63
793.355
837.819
813.022
986.241
1072.34
1039.06
927.612
923.202
962.377
982.281
926.18
839.27
946.878
889.126
763.911
825.623
887.482
928.576
812.761
780.526
826.637
795.437
795.581
799.348
813.026
820.205
851.371
931.356
930.011
916.648
826.661
756.608
804.92
831.829
841.557
991.918
1020.6
843.931
762.531
801.828
821.941
813.646
808.704
817.769
825.198
827.84
828.49
830.089
827.241
815.224
810.437
825.631
833.906
858.858
969.679
688.757
775.467
718.109
646.919
833.756
900.744
852.578
835.563
835.065
839.662
841.889
840.962
837.611
832.767
823.66
808.736
791.557
877.44
574.643
348.819
230.721
252.393
164.946
628.709
690.353
811.987
877.624
864.051
854.156
857.219
855.319
849.788
855.922
858.397
818.1
742.107
474.391
168.081
35.2433
7.48297
3.99375
2.53954
121.117
160.098
252.333
432.453
698.62
778.609
812.045
819.415
787.417
659.592
471.299
344.761
199.481
50.0643
0.38553
0.484436
0.57074
0.580339
1.18875
12.6384
12.4817
39.9402
90.972
215.433
390.452
425.426
382.082
201.676
137.116
85.9009
32.6727
0.224662
0.0599972
0.234475
0.410197
0.521598
0.527396
0.543808
0.200475
0.275124
0.653316
9.66406
27.4628
124.593
140.409
121.504
32.4379
0.159015
-0.174977
-0.117566
-0.0349131
0.157024
0.642161
0.912281
0.813568
0.504943
0.471484
0.12259
0.166058
0.113194
0.132463
12.2974
29.8937
35.568
0.310287
-0.364966
-0.134326
0.0976661
0.0482662
0.0679611
0.549478
1.1931
1.47278
1.49765
0.698643
0.405861
0.0329454
0.0465519
-0.0144745
-0.218011
-0.3261
1.87145
1.57694
0.368407
-0.317814
-0.138951
0.138562
0.346773
0.127966
0.190849
0.879378
1.459
1.54483
0.845378
0.341972
-0.027763
-0.0173183
-0.0839074
-0.254748
-0.52672
-0.671389
-0.5991
-0.420911
-0.285498
-0.181116
-0.0980782
-0.0359016
0.0138159
0.0622839
0.33061
0.645646
1.10537
0.599604
0.283567
0.0177133
-0.00640339
-0.0903225
-0.235165
-0.383927
-0.444719
-0.396323
-0.298982
-0.215207
-0.151228
-0.0924094
-0.0318039
0.0255955
0.181144
0.458962
0.445952
0.37743
0.26692
0.240575
0.0257125
-0.0321247
-0.126195
-0.205285
-0.241206
-0.267865
-0.233041
-0.0817384
-0.00764186
0.00551097
-0.028929
-0.0123659
0.0935222
0.478709
0.526231
0.243373
0.167842
0.206861
0.238787
-0.0703012
-0.096754
-0.118945
-0.146651
-0.162968
-0.176015
-0.178098
0.0542261
0.344157
0.382816
0.401691
0.264535
0.411771
0.560352
0.457474
0.150962
0.170442
0.338966
0.919417
-0.0942532
-0.103109
-0.10887
-0.125098
-0.140027
-0.13858
-0.130816
-0.113845
0.0765623
0.231975
0.32877
0.398178
0.428159
0.355365
0.132365
0.33364
0.186909
1.05837
1.19179
-0.0839079
-0.091894
-0.100391
-0.109293
-0.116357
-0.121116
-0.123039
-0.117865
-0.0961256
-0.074254
-0.041572
0.00800786
0.0105878
0.00258743
0.156174
0.457323
0.620071
1.20861
1.19458
-0.0732078
-0.0800343
-0.0863814
-0.0924803
-0.0972469
-0.100426
-0.101157
-0.0984134
-0.0921686
-0.0810193
-0.0657366
-0.0479417
-0.0283483
-0.00784006
0.0972574
0.857808
1.16175
1.23852
0.588051
-0.0640452
-0.0698467
-0.0749229
-0.0793496
-0.082648
-0.0845138
-0.0846321
-0.0822342
-0.07785
-0.0699345
-0.0586521
-0.0451702
-0.0303439
-0.0165587
-0.0031975
0.58331
1.11207
0.576289
0.228532
-0.0561787
-0.061258
-0.0655214
-0.0690011
-0.07147
-0.0727197
-0.072642
-0.0715706
-0.0674694
-0.0613023
-0.0529225
-0.0427331
-0.0313803
-0.0215823
-0.0149161
0.0844475
0.384238
0.0621575
0.188894
-0.0493263
-0.0538543
-0.0575495
-0.0604541
-0.062486
-0.0634873
-0.0632166
-0.0621285
-0.0590788
-0.0543554
-0.0481042
-0.0405293
-0.0321738
-0.0249784
-0.0154742
0.00878209
-0.000127088
0.0222005
0.359057
-0.0433015
-0.0473978
-0.050662
-0.053174
-0.0549018
-0.0557967
-0.0559545
-0.0546444
-0.0522474
-0.048684
-0.044033
-0.0385569
-0.0325184
-0.0263537
-0.0202232
-0.0176883
-0.0157575
0.0350146
0.730039
-0.0379606
-0.0417665
-0.0446526
-0.0468753
-0.0483953
-0.0492153
-0.0492745
-0.0483698
-0.0465796
-0.0439271
-0.0405019
-0.0364752
-0.0321699
-0.0276235
-0.0231531
-0.0213803
-0.0196548
-0.0180444
0.745232
-0.0333501
-0.0366984
-0.0393505
-0.0413633
-0.0427567
-0.0435371
-0.043656
-0.0430587
-0.0417686
-0.0398309
-0.0373415
-0.0344549
-0.0314533
-0.0270443
-0.021525
-0.0195458
-0.0215378
-0.0238108
0.683099
-0.0292484
-0.0322476
-0.0346671
-0.0365191
-0.0378301
-0.0385989
-0.038814
-0.0384698
-0.0375851
-0.0362066
-0.0344212
-0.0323588
-0.0302129
-0.0268886
-0.0220831
-0.0146268
-0.0148975
-0.0247211
0.249011
-0.025611
-0.0283101
-0.0305146
-0.0322384
-0.0334802
-0.0342535
-0.0345655
-0.0344301
-0.0338696
-0.0329253
-0.0316677
-0.0301971
-0.0286143
-0.0270428
-0.0247707
-0.0164898
-0.013534
-0.0162259
0.0245511
-0.0223832
-0.0248138
-0.0268273
-0.0284206
-0.0295989
-0.0303917
-0.0307851
-0.0308171
-0.0305099
-0.0298997
-0.0290383
-0.028
-0.0268622
-0.0256999
-0.0227732
-0.0184161
-0.0131869
-0.0114348
-0.0176678
-0.0195149
-0.0217067
-0.0235358
-0.0250037
-0.026121
-0.0269073
-0.0273723
-0.0275394
-0.0274273
-0.0270704
-0.0265065
-0.0257855
-0.0249586
-0.0240225
-0.0170138
-0.00760078
-0.00833501
-0.0118645
-0.0179946
-0.0169577
-0.0189266
-0.0205829
-0.0219301
-0.0229796
-0.0237484
-0.024254
-0.0245161
-0.024555
-0.0243908
-0.0240489
-0.0235605
-0.0229687
-0.0222693
-0.0164038
-0.00535954
-0.00505701
-0.00603974
-0.00703188
-0.0146686
-0.0164274
-0.0179192
-0.0191473
-0.0201226
-0.0208612
-0.0213814
-0.0217029
-0.0218436
-0.0218183
-0.0216388
-0.0213221
-0.0209076
-0.0204331
-0.0191778
-0.00818549
-0.00301802
-0.0028702
-0.0121994
-0.0126081
-0.0141678
-0.0155007
-0.0166096
-0.0175041
-0.018199
-0.0187118
-0.0190611
-0.0192638
-0.0193315
-0.0192671
-0.0190676
-0.0187415
-0.0183646
-0.0179958
-0.0167238
-0.00645295
-0.00614933
-0.0171918
-0.0107405
-0.0121097
-0.0132877
-0.0142761
-0.0150834
-0.0157223
-0.0162089
-0.0165605
-0.0167927
-0.0169161
-0.0169333
-0.0168243
-0.0165141
-0.0161228
-0.0159435
-0.0157205
-0.0151508
-0.0151075
-0.0152771
-0.00903443
-0.0102188
-0.0112437
-0.0121099
-0.0128239
-0.0133966
-0.013842
-0.0141755
-0.0144116
-0.0145603
-0.0146247
-0.0145944
-0.0143824
-0.0138848
-0.0135635
-0.0137201
-0.0135563
-0.0133753
-0.0133023
-0.00745963
-0.00846264
-0.0093356
-0.0100774
-0.0106931
-0.0111915
-0.0115843
-0.0118848
-0.0121055
-0.0122557
-0.0123389
-0.0123504
-0.0122617
-0.0119
-0.0113663
-0.0112182
-0.0114661
-0.0113602
-0.0108468
-0.00598862
-0.00681114
-0.00753295
-0.00814856
-0.00866197
-0.00908034
-0.00941294
-0.00967031
-0.00986265
-0.00999784
-0.0100793
-0.0101042
-0.0100617
-0.00989951
-0.00937123
-0.00897202
-0.00899378
-0.00904426
-0.00872119
-0.00459533
-0.00523503
-0.00580873
-0.00629653
-0.00670521
-0.00704041
-0.00730867
-0.00751738
-0.00767377
-0.00778357
-0.00784948
-0.00786972
-0.00783904
-0.00774575
-0.00749821
-0.00684626
-0.00667112
-0.00668439
-0.00668786
-0.00325924
-0.00373358
-0.00414227
-0.00449941
-0.00480334
-0.00505569
-0.00525934
-0.00541806
-0.00553559
-0.00561482
-0.00565677
-0.00565992
-0.00562136
-0.00553654
-0.00538716
-0.00504458
-0.00452213
-0.00449056
-0.00502375
-0.00195121
-0.00224796
-0.00250726
-0.00273773
-0.00293932
-0.00311015
-0.00324967
-0.00335806
-0.00343546
-0.00348162
-0.00349498
-0.00347318
-0.0034164
-0.0033264
-0.00319648
-0.00291457
-0.00271802
-0.0025599
-0.00303968
-0.000649924
-0.00076661
-0.000880547
-0.000982676
-0.00107943
-0.00116651
-0.00124039
-0.00129821
-0.00133731
-0.00135438
-0.00134529
-0.00130655
-0.00123843
-0.00115338
-0.00109563
-0.00119373
-0.00110871
-0.0011029
-0.00114153
)
;

boundaryField
{
    leftWall
    {
        type            fixedFluxPressure;
        gradient        uniform 0;
        value           nonuniform List<scalar> 
50
(
6672.89
6682.82
6704.1
6735.92
6781.21
6836.46
6890.18
6784.47
2065.39
1014.23
1029.42
976.555
543.994
259.391
9.79766
9.14488
0.341493
0.317893
0.299865
0.278748
0.258016
0.239252
0.22294
0.208308
0.194262
0.180315
0.166584
0.153338
0.140777
0.128972
0.11794
0.107614
0.098155
0.0890919
0.0805961
0.072258
0.0642218
0.0564511
0.0490847
0.0420865
0.0357982
0.0298237
0.0249254
0.02063
0.0170016
0.0137376
0.0109669
0.0103169
0.00765866
0.00233095
)
;
    }
    rightWall
    {
        type            fixedFluxPressure;
        gradient        uniform 0;
        value           nonuniform List<scalar> 
50
(
2588.65
2457.51
1682.54
1104.54
1139.95
1142.54
1144.91
1138.24
1001.93
934.224
879.829
837.819
826.637
801.828
646.919
164.946
2.53954
1.18875
0.543808
0.471484
0.405861
0.341972
0.283567
0.240575
0.238787
0.919417
1.19179
1.19458
0.588051
0.228532
0.188894
0.359057
0.730039
0.745232
0.683099
0.249011
0.0245511
-0.0176678
-0.0179946
-0.00703188
-0.0121994
-0.0171918
-0.0152771
-0.0133023
-0.0108468
-0.00872119
-0.00668786
-0.00502375
-0.00303968
-0.00114153
)
;
    }
    lowerWall
    {
        type            fixedFluxPressure;
        gradient        uniform 0;
        value           nonuniform List<scalar> 
62
(
6672.89
6625.34
6537.5
6415.84
6269.91
6109.62
5946.42
5789.69
5643.15
5507.69
5391.49
5294.71
5218.89
5164.55
5129.49
5109.53
5099.84
5095.22
5092.66
5090.8
5089.11
5088.02
5087.52
5087.52
5087.57
5087.12
5087.97
4942.27
2432.48
1294.26
1333.04
1466.39
1376.18
1462.97
1449.57
3903.04
3938.08
3996.25
3737.25
2024.65
1444.32
1285.2
1225.78
3903.04
3668.14
3424.38
3254.16
3162.11
3132.81
3156.17
3203.26
3235.2
3213
3127.87
3013.42
2895.22
2781.28
2704.1
2650.76
2613.54
2592.58
2588.65
)
;
    }
    atmosphere
    {
        type            totalPressure;
        rho             rho;
        psi             none;
        gamma           1;
        p0              uniform 0;
        value           nonuniform List<scalar> 
46
(
0
0
0
0
0
0
0
-2.80928e-05
-0.000121478
-0.000218954
-0.00028503
-0.000310722
-0.000299527
-0.000261999
-0.000209205
-0.00015025
-9.23395e-05
-4.20777e-05
-7.81039e-06
0
0
0
0
0
0
0
0
0
-7.0328e-07
-2.11007e-05
-6.15063e-05
-0.000110863
-0.000161456
-0.000208489
-0.000248743
-0.000279531
-0.000297637
-0.000298404
-0.000275351
-0.000222961
-0.000143186
-5.48869e-05
-1.26332e-06
0
0
0
)
;
    }
    defaultFaces
    {
        type            empty;
    }
}


// ************************************************************************* //
