/*--------------------------------*- C++ -*----------------------------------*\
| =========                 |                                                 |
| \\      /  F ield         | OpenFOAM: The Open Source CFD Toolbox           |
|  \\    /   O peration     | Version:  2312                                  |
|   \\  /    A nd           | Website:  www.openfoam.com                      |
|    \\/     M anipulation  |                                                 |
\*---------------------------------------------------------------------------*/
FoamFile
{
    version     2.0;
    format      ascii;
    arch        "LSB;label=32;scalar=64";
    class       surfaceScalarField;
    location    "3.15";
    object      phi;
}
// * * * * * * * * * * * * * * * * * * * * * * * * * * * * * * * * * * * * * //

dimensions      [0 3 -1 0 0 0 0];

oriented        oriented;

internalField   nonuniform List<scalar> 
4432
(
1.34029e-06
-1.3403e-06
1.48206e-06
-1.41777e-07
1.40492e-06
7.71384e-08
1.29539e-06
1.09531e-07
1.21702e-06
7.83668e-08
1.14455e-06
7.24699e-08
1.01139e-06
1.3317e-07
8.20764e-07
1.90627e-07
6.1104e-07
2.09729e-07
3.80764e-07
2.3028e-07
1.83348e-07
1.9742e-07
5.12733e-08
1.32077e-07
1.57472e-09
4.96997e-08
3.77922e-08
-3.62178e-08
1.60532e-07
-1.22741e-07
3.49968e-07
-1.89438e-07
5.72765e-07
-2.22799e-07
7.20278e-07
-1.47514e-07
7.71556e-07
-5.12796e-08
6.94994e-07
7.6563e-08
4.90223e-07
2.04771e-07
1.24623e-07
3.65603e-07
1.24625e-07
2.75409e-07
-1.61571e-06
4.20815e-07
-2.87182e-07
4.85609e-07
1.23448e-08
5.65317e-07
2.98241e-08
6.5492e-07
-1.12341e-08
6.82071e-07
4.53205e-08
6.1573e-07
1.99513e-07
4.77189e-07
3.29173e-07
2.85162e-07
4.01764e-07
9.81027e-08
4.17346e-07
-8.29803e-08
3.78509e-07
-2.00311e-07
2.49412e-07
-2.32487e-07
8.18798e-08
-1.78768e-07
-8.99332e-08
-3.87738e-08
-2.62734e-07
1.93839e-07
-4.22051e-07
4.46527e-07
-4.7549e-07
6.35088e-07
-3.36076e-07
7.2243e-07
-1.38625e-07
6.88127e-07
1.10864e-07
5.31196e-07
3.61702e-07
2.07926e-07
6.88873e-07
3.32551e-07
-2.73526e-07
-1.34218e-06
-3.06558e-07
-2.54153e-07
-2.20067e-07
-7.41485e-08
-5.89898e-08
-1.31255e-07
1.37263e-07
-2.07488e-07
2.4486e-07
-6.22761e-08
2.36336e-07
2.08038e-07
1.49506e-07
4.16005e-07
1.21178e-08
5.39154e-07
-1.79656e-07
6.09121e-07
-3.55868e-07
5.54723e-07
-4.61547e-07
3.55092e-07
-4.68733e-07
8.90667e-08
-3.82726e-07
-1.75939e-07
-2.04247e-07
-4.41212e-07
1.04022e-07
-7.30321e-07
4.33174e-07
-8.04641e-07
7.0077e-07
-6.03673e-07
8.7218e-07
-3.10036e-07
9.16348e-07
6.66963e-08
8.2194e-07
4.56111e-07
5.54675e-07
9.56138e-07
8.87227e-07
-6.9741e-07
-6.44776e-07
-9.03054e-07
-4.85128e-08
-8.32715e-07
-1.44489e-07
-6.0262e-07
-3.61348e-07
-3.12451e-07
-4.97654e-07
-1.25549e-07
-2.4918e-07
-9.70332e-08
1.79522e-07
-1.45605e-07
4.6458e-07
-2.55849e-07
6.49403e-07
-4.65814e-07
8.19093e-07
-6.85118e-07
7.74033e-07
-8.1452e-07
4.84499e-07
-8.1624e-07
9.07923e-08
-6.99134e-07
-2.93037e-07
-4.67723e-07
-6.72617e-07
-5.91582e-08
-1.13888e-06
4.12556e-07
-1.27635e-06
8.34849e-07
-1.02597e-06
1.11993e-06
-5.95115e-07
1.23572e-06
-4.91044e-08
1.14929e-06
5.42533e-07
8.27251e-07
1.27818e-06
1.71447e-06
-8.95201e-07
2.50418e-07
-1.2482e-06
3.04477e-07
-1.25987e-06
-1.32812e-07
-1.01499e-06
-6.06238e-07
-6.05426e-07
-9.07216e-07
-3.32505e-07
-5.22102e-07
-2.71681e-07
1.18699e-07
-3.24531e-07
5.1743e-07
-4.20494e-07
7.45366e-07
-6.5994e-07
1.05854e-06
-9.75164e-07
1.08926e-06
-1.26678e-06
7.76115e-07
-1.3963e-06
2.20314e-07
-1.2965e-06
-3.92843e-07
-1.02076e-06
-9.48359e-07
-6.01736e-07
-1.55791e-06
-4.95639e-08
-1.82853e-06
5.36093e-07
-1.61163e-06
9.76413e-07
-1.03544e-06
1.18282e-06
-2.55516e-07
1.08392e-06
6.41434e-07
8.79538e-07
1.48256e-06
2.59402e-06
-8.7447e-07
1.12488e-06
-1.24981e-06
6.79807e-07
-1.19812e-06
-1.84506e-07
-8.69172e-07
-9.35187e-07
-3.07341e-07
-1.46905e-06
-1.03039e-08
-8.19142e-07
-1.5613e-07
2.64526e-07
-6.09066e-07
9.70371e-07
-1.05024e-06
1.18655e-06
-1.49302e-06
1.50134e-06
-2.08792e-06
1.68419e-06
-2.44926e-06
1.13749e-06
-2.45059e-06
2.21665e-07
-2.20642e-06
-6.36978e-07
-1.84591e-06
-1.30885e-06
-1.71056e-06
-1.69324e-06
-1.58223e-06
-1.95684e-06
-1.1586e-06
-2.03525e-06
-9.75768e-07
-1.21828e-06
-1.37258e-06
1.41275e-07
-1.33378e-06
6.0262e-07
-1.18171e-08
1.60577e-07
2.58217e-06
-6.45932e-07
1.77081e-06
-9.2226e-07
9.5613e-07
-1.02761e-06
-7.91607e-08
-1.09938e-06
-8.63423e-07
-7.95245e-07
-1.77318e-06
-2.1332e-08
-1.59306e-06
5.13792e-07
-2.70586e-07
8.85763e-07
5.98427e-07
5.84359e-07
1.48799e-06
-1.16007e-06
3.24582e-06
-4.60712e-06
5.1313e-06
-6.39033e-06
2.92076e-06
-6.22077e-06
5.21619e-08
-5.84349e-06
-1.0142e-06
-6.14874e-06
-1.00356e-06
-9.79333e-06
1.95138e-06
-1.4479e-05
2.72885e-06
-1.85169e-05
2.00264e-06
-2.1297e-05
1.56175e-06
-2.20166e-05
8.60837e-07
-1.87752e-05
-2.6388e-06
-1.04018e-05
-8.21286e-06
-7.81962e-06
-4.37561e-07
2.20836e-06
-4.20822e-07
9.39383e-07
2.71539e-07
-7.7153e-07
1.91125e-06
-2.50315e-06
3.43571e-06
-3.29765e-06
3.09578e-06
-1.25312e-06
-1.80225e-07
3.00543e-06
-3.53896e-06
3.95718e-06
-5.68367e-06
3.63272e-06
-6.58107e-06
4.14325e-06
-5.76243e-06
4.31269e-06
-5.44688e-06
2.60524e-06
-6.21921e-06
8.24514e-07
-8.14516e-06
9.11765e-07
-1.02467e-05
1.09797e-06
-1.405e-05
5.75469e-06
-1.72561e-05
5.93497e-06
-2.01325e-05
4.87907e-06
-2.25413e-05
3.97055e-06
-2.38844e-05
2.20388e-06
-2.19781e-05
-4.54509e-06
-1.72419e-05
-1.2949e-05
-2.50616e-05
-3.63783e-06
3.63781e-06
-5.25633e-06
1.61848e-06
-6.78727e-06
1.53094e-06
-7.68726e-06
8.99987e-07
-7.931e-06
2.43737e-07
-7.97804e-06
4.70429e-08
-7.87661e-06
-1.01431e-07
-7.32461e-06
-5.52001e-07
-6.13318e-06
-1.19143e-06
-4.10856e-06
-2.02462e-06
-2.32267e-06
-1.7859e-06
-1.24668e-06
-1.07599e-06
-6.19463e-07
-6.27216e-07
-6.70535e-07
5.1073e-08
-6.47772e-07
-2.27632e-08
-5.87737e-07
-6.00355e-08
-2.99956e-07
-2.87783e-07
-9.00877e-08
-2.09873e-07
-9.00898e-08
-1.68365e-06
5.32145e-06
-2.56641e-06
2.50123e-06
-4.24454e-06
3.20905e-06
-5.37279e-06
2.02824e-06
-5.46799e-06
3.38924e-07
-5.05525e-06
-3.65699e-07
-4.37988e-06
-7.76796e-07
-3.20999e-06
-1.7219e-06
-1.63792e-06
-2.7635e-06
1.64784e-07
-3.82733e-06
1.37491e-06
-2.99602e-06
1.29391e-06
-9.94989e-07
8.41741e-07
-1.7505e-07
-2.94815e-07
1.18763e-06
-1.62642e-06
1.30884e-06
-2.36805e-06
6.81598e-07
-2.13655e-06
-5.19281e-07
-1.23349e-06
-1.11294e-06
-1.32359e-06
-2.06369e-06
7.38514e-06
-3.53054e-06
3.96808e-06
-4.79897e-06
4.47748e-06
-6.17559e-06
3.40486e-06
-6.29529e-06
4.58631e-07
-5.64891e-06
-1.01207e-06
-5.24803e-06
-1.17768e-06
-4.26931e-06
-2.70062e-06
-2.05453e-06
-4.97827e-06
8.17299e-07
-6.69916e-06
3.15948e-06
-5.3382e-06
2.37272e-06
-2.08228e-07
4.5564e-07
1.74203e-06
-1.32642e-06
2.9697e-06
-2.73468e-06
2.7171e-06
-4.0006e-06
1.94751e-06
-3.93354e-06
-5.8634e-07
-2.92781e-06
-2.11869e-06
-4.25142e-06
-2.7426e-06
1.01278e-05
-6.54921e-06
7.7747e-06
-9.15663e-06
7.08487e-06
-9.82084e-06
4.06905e-06
-8.41934e-06
-9.42908e-07
-7.52198e-06
-1.90945e-06
-7.39786e-06
-1.30181e-06
-6.87388e-06
-3.2246e-06
-5.51628e-06
-6.33587e-06
-4.96965e-06
-7.24579e-06
-4.17273e-06
-6.13512e-06
-2.90421e-06
-1.47675e-06
-1.97404e-06
8.11873e-07
-4.60021e-08
1.04165e-06
3.59478e-06
-9.23688e-07
3.90363e-06
1.63867e-06
2.07781e-07
3.10951e-06
-2.03402e-06
1.23108e-07
-6.28544e-06
-2.12116e-06
1.22489e-05
-1.00642e-05
1.57177e-05
-2.08058e-05
1.78265e-05
-2.14617e-05
4.72502e-06
-1.7613e-05
-4.79162e-06
-1.34616e-05
-6.06079e-06
-9.33131e-06
-5.43212e-06
-6.73431e-06
-5.82158e-06
-9.84139e-06
-3.22878e-06
-1.62072e-05
-8.7996e-07
-1.84862e-05
-3.85614e-06
-1.42827e-05
-5.6803e-06
-8.65483e-06
-4.81596e-06
-4.55655e-06
-3.05664e-06
-6.99538e-07
-4.78069e-06
3.2458e-06
-2.30667e-06
4.72059e-06
1.63472e-06
2.36539e-06
2.4783e-06
-3.92006e-06
-3.99127e-06
1.62402e-05
-1.03048e-05
2.20312e-05
-1.69799e-05
2.45016e-05
-2.14261e-05
9.17117e-06
-2.13755e-05
-4.84221e-06
-1.86865e-05
-8.74985e-06
-1.47597e-05
-9.35887e-06
-1.16834e-05
-8.89787e-06
-9.57141e-06
-5.3408e-06
-1.22069e-05
1.75555e-06
-1.34658e-05
-2.59727e-06
-1.11676e-05
-7.97845e-06
-9.84665e-06
-6.13692e-06
-9.55622e-06
-3.34707e-06
-8.50242e-06
-5.83449e-06
-6.1267e-06
-4.68241e-06
-1.52083e-06
-2.97115e-06
1.17099e-06
-2.13522e-07
-2.74905e-06
-4.8628e-06
2.1103e-05
-7.5063e-06
2.46747e-05
-1.49026e-05
3.18979e-05
-2.25396e-05
1.68082e-05
-2.39887e-05
-3.39306e-06
-2.14012e-05
-1.13374e-05
-1.71048e-05
-1.36553e-05
-1.31313e-05
-1.28713e-05
-7.67673e-06
-1.07954e-05
-5.5693e-06
-3.5187e-07
-7.10718e-06
-1.05939e-06
-9.08393e-06
-6.00169e-06
-1.23406e-05
-2.88024e-06
-1.51864e-05
-5.01313e-07
-1.66497e-05
-4.37111e-06
-1.39784e-05
-7.35378e-06
-9.71174e-06
-7.23778e-06
-4.47458e-06
-5.45068e-06
-7.22363e-06
-3.58097e-06
2.46839e-05
-7.30294e-06
2.83967e-05
-1.44119e-05
3.90069e-05
-2.14321e-05
2.38284e-05
-2.29745e-05
-1.85066e-06
-2.03735e-05
-1.39384e-05
-1.74342e-05
-1.65947e-05
-1.41133e-05
-1.61922e-05
-8.27372e-06
-1.66349e-05
-2.38323e-06
-6.24234e-06
-2.79734e-06
-6.45278e-07
-9.52475e-06
7.25729e-07
-1.53773e-05
2.97231e-06
-1.9148e-05
3.26936e-06
-2.05429e-05
-2.97617e-06
-1.82855e-05
-9.61115e-06
-1.49152e-05
-1.06081e-05
-9.53061e-06
-1.08353e-05
-1.67542e-05
4.32091e-06
-2.11257e-06
7.95066e-06
-2.6904e-06
8.70352e-06
-1.52443e-06
5.53754e-06
6.6281e-07
2.36573e-06
-1.25855e-07
5.97877e-07
5.14734e-07
8.79569e-07
2.72374e-06
1.03961e-06
3.79715e-06
4.22087e-07
4.25026e-06
-2.43599e-07
4.80895e-06
-2.47624e-07
4.31674e-06
-7.46202e-07
3.10383e-06
-3.1806e-06
3.25892e-06
-6.40246e-06
4.13365e-06
-9.85134e-06
4.54686e-06
-1.93134e-05
1.52167e-05
-2.75313e-05
1.41529e-05
-3.50904e-05
1.24381e-05
-4.26629e-05
1.15431e-05
-4.84108e-05
7.95174e-06
-5.16805e-05
-1.27531e-06
-5.01581e-05
-1.44714e-05
-2.03535e-05
-5.48662e-05
1.63658e-06
-3.74923e-06
3.66281e-06
-4.71668e-06
5.82669e-06
-3.68835e-06
7.96654e-06
-1.47706e-06
9.12064e-06
-1.27997e-06
8.93067e-06
7.04688e-07
8.66797e-06
2.98643e-06
7.62192e-06
4.84321e-06
6.57636e-06
5.29582e-06
5.73156e-06
5.65375e-06
5.35708e-06
4.69122e-06
4.21779e-06
4.24313e-06
2.20913e-06
5.26759e-06
-6.34111e-07
6.9769e-06
-5.37988e-06
9.29266e-06
-1.09524e-05
2.07893e-05
-1.78453e-05
2.10458e-05
-2.73337e-05
2.19266e-05
-3.95475e-05
2.3757e-05
-5.43911e-05
2.27953e-05
-6.84136e-05
1.27473e-05
-7.74465e-05
-5.43852e-06
-1.34677e-05
-8.43323e-05
4.01835e-06
-7.76762e-06
8.20115e-06
-8.8995e-06
1.22968e-05
-7.78404e-06
1.65112e-05
-5.69143e-06
1.88359e-05
-3.60474e-06
1.67055e-05
2.83499e-06
1.23068e-05
7.38509e-06
6.67939e-06
1.04706e-05
5.03142e-06
6.94375e-06
4.06481e-06
6.62034e-06
2.58744e-06
6.16858e-06
1.46864e-07
6.6837e-06
-2.97443e-06
8.38889e-06
-8.4661e-06
1.24686e-05
-1.67474e-05
1.7574e-05
-2.13192e-05
2.53611e-05
-2.87979e-05
2.85246e-05
-3.73392e-05
3.04679e-05
-4.68681e-05
3.32859e-05
-5.88755e-05
3.48027e-05
-7.21908e-05
2.60626e-05
-8.46143e-05
6.98501e-06
-4.67708e-06
-9.34049e-05
6.12952e-06
-1.38972e-05
1.0143e-05
-1.2913e-05
1.29063e-05
-1.05474e-05
1.40498e-05
-6.83503e-06
1.21816e-05
-1.73662e-06
8.58051e-06
6.43603e-06
2.46764e-06
1.34979e-05
-3.13212e-06
1.60703e-05
-5.57195e-06
9.38353e-06
-9.89202e-06
1.09404e-05
-1.50994e-05
1.1376e-05
-2.05888e-05
1.21731e-05
-2.67756e-05
1.45757e-05
-3.39026e-05
1.95956e-05
-4.04816e-05
2.41529e-05
-4.32333e-05
2.81128e-05
-4.55526e-05
3.0844e-05
-4.76188e-05
3.25341e-05
-4.86075e-05
3.42747e-05
-4.92558e-05
3.5451e-05
-5.38815e-05
3.06883e-05
-6.55456e-05
1.86491e-05
8.58827e-06
-7.88111e-05
2.54178e-07
-1.41514e-05
-9.86865e-07
-1.1672e-05
-3.51738e-06
-8.0169e-06
-6.87426e-06
-3.4782e-06
-1.00184e-05
1.40743e-06
-1.03123e-05
6.72995e-06
-1.16835e-05
1.48691e-05
-1.70014e-05
2.13882e-05
-2.31295e-05
1.55116e-05
-2.98078e-05
1.76188e-05
-3.56578e-05
1.7226e-05
-4.14082e-05
1.79236e-05
-4.70995e-05
2.02669e-05
-5.11337e-05
2.36297e-05
-5.29302e-05
2.59493e-05
-5.28795e-05
2.8062e-05
-5.14972e-05
2.94616e-05
-4.89281e-05
2.99649e-05
-4.47806e-05
3.01272e-05
-3.95526e-05
3.0223e-05
-3.6581e-05
2.77167e-05
-3.90784e-05
2.11465e-05
1.29907e-05
-4.34808e-05
-7.49029e-06
-6.66095e-06
-1.0348e-05
-8.81412e-06
-1.17023e-05
-6.66258e-06
-1.49091e-05
-2.71366e-07
-1.9371e-05
5.86933e-06
-2.07578e-05
8.1167e-06
-1.80617e-05
1.2173e-05
-1.83136e-05
2.16401e-05
-2.43683e-05
2.15664e-05
-2.86449e-05
2.18955e-05
-3.41112e-05
2.26925e-05
-3.93091e-05
2.31215e-05
-4.34917e-05
2.44495e-05
-4.61255e-05
2.62634e-05
-4.74198e-05
2.72435e-05
-4.71626e-05
2.78048e-05
-4.54809e-05
2.77798e-05
-4.25044e-05
2.69884e-05
-3.80494e-05
2.56722e-05
-3.21676e-05
2.43412e-05
-2.66205e-05
2.21696e-05
-2.41162e-05
1.86421e-05
1.34989e-05
-2.46244e-05
-1.55856e-05
8.9249e-06
-2.84245e-05
4.02488e-06
-3.89313e-05
3.84449e-06
-3.55247e-05
-3.67783e-06
-3.05085e-05
8.53139e-07
-2.93996e-05
7.00795e-06
-2.83518e-05
1.11251e-05
-1.56082e-05
8.89655e-06
-2.39195e-05
2.98789e-05
-3.34737e-05
3.14505e-05
-3.74382e-05
2.66571e-05
-3.7986e-05
2.36692e-05
-3.76009e-05
2.40644e-05
-3.73926e-05
2.60552e-05
-3.71868e-05
2.70377e-05
-3.63775e-05
2.69955e-05
-3.46563e-05
2.60587e-05
-3.2063e-05
2.43952e-05
-2.84764e-05
2.20856e-05
-2.39504e-05
1.98153e-05
-1.9026e-05
1.72451e-05
-1.46678e-05
1.42839e-05
1.03599e-05
-1.15288e-05
1.32307e-05
-4.30534e-06
2.93509e-05
-1.20948e-05
4.40066e-05
-1.08107e-05
4.35062e-05
-3.17714e-06
4.03132e-05
4.04651e-06
3.55989e-05
1.17222e-05
2.55576e-05
2.11666e-05
1.12567e-05
2.31996e-05
-4.12801e-06
4.52649e-05
-2.70377e-05
5.43593e-05
-4.50104e-05
4.46289e-05
-5.67417e-05
3.54001e-05
-5.20148e-05
1.93368e-05
-4.34382e-05
1.74782e-05
-3.73911e-05
2.09907e-05
-3.30545e-05
2.2659e-05
-2.93682e-05
2.23725e-05
-2.60099e-05
2.1037e-05
-2.21999e-05
1.82756e-05
-1.76354e-05
1.52508e-05
-1.24865e-05
1.20963e-05
-6.90197e-06
8.69939e-06
5.15622e-06
-1.6983e-06
1.496e-05
-1.92641e-05
2.28627e-05
-1.99963e-05
2.85258e-05
-1.64729e-05
3.38034e-05
-8.45431e-06
3.61983e-05
1.6517e-06
3.75337e-05
1.03865e-05
3.88769e-05
1.98226e-05
3.20984e-05
2.9978e-05
3.24123e-05
4.49518e-05
3.03027e-05
5.64694e-05
1.78913e-05
5.70393e-05
3.70203e-06
4.95892e-05
-2.83178e-05
5.13539e-05
-5.95497e-05
4.87078e-05
-6.13535e-05
2.27944e-05
-5.03393e-05
1.16453e-05
-4.00524e-05
1.20861e-05
-3.27098e-05
1.36944e-05
-2.61735e-05
1.17393e-05
-1.98692e-05
8.94657e-06
-1.31104e-05
5.3374e-06
-6.01729e-06
1.60631e-06
-1.16865e-06
3.076e-07
1.18707e-05
-3.11334e-05
1.88351e-05
-2.69594e-05
2.36015e-05
-2.12383e-05
2.86778e-05
-1.35297e-05
3.47426e-05
-4.41256e-06
4.01983e-05
4.9311e-06
4.47114e-05
1.53094e-05
4.77749e-05
2.69144e-05
5.35829e-05
3.91445e-05
6.04597e-05
4.95937e-05
6.03697e-05
5.71287e-05
4.64192e-05
6.35382e-05
3.51993e-05
6.25757e-05
3.00945e-05
5.38132e-05
1.12792e-05
4.1609e-05
-6.68783e-06
2.96123e-05
-1.92284e-05
2.46263e-05
-2.86875e-05
2.31529e-05
-3.10848e-05
1.41361e-05
-3.05224e-05
8.38317e-06
-2.81287e-05
2.94261e-06
-2.05456e-05
-5.97729e-06
-1.47214e-05
-6.99314e-06
7.16529e-06
-3.82978e-05
1.30667e-05
-3.28598e-05
1.78907e-05
-2.60613e-05
2.29672e-05
-1.86052e-05
2.90513e-05
-1.04958e-05
3.52428e-05
-1.25965e-06
4.11477e-05
9.40477e-06
4.69958e-05
2.1066e-05
5.33281e-05
3.28116e-05
5.94355e-05
4.34854e-05
6.41834e-05
5.23801e-05
6.73044e-05
6.04168e-05
7.21447e-05
5.77371e-05
7.51174e-05
5.08421e-05
7.18792e-05
4.48463e-05
6.68671e-05
3.46239e-05
6.46019e-05
2.68913e-05
6.38683e-05
2.38861e-05
5.86602e-05
1.93436e-05
5.07925e-05
1.62503e-05
4.00276e-05
1.37068e-05
2.58016e-05
8.24833e-06
7.1361e-06
3.94468e-06
3.8922e-06
-4.21887e-05
7.46673e-06
-3.64333e-05
1.05574e-05
-2.91509e-05
1.40931e-05
-2.214e-05
1.86904e-05
-1.50922e-05
2.39137e-05
-6.4821e-06
2.95459e-05
3.77324e-06
3.54195e-05
1.51928e-05
4.23251e-05
2.59061e-05
5.08106e-05
3.49997e-05
6.0087e-05
4.31033e-05
7.04345e-05
5.00692e-05
7.80724e-05
5.00989e-05
8.37562e-05
4.51577e-05
9.02356e-05
3.83672e-05
9.45425e-05
3.03173e-05
9.73108e-05
2.41231e-05
0.000100221
2.09762e-05
0.00010013
1.94338e-05
9.73316e-05
1.90492e-05
9.26411e-05
1.83979e-05
8.24633e-05
1.84265e-05
2.20326e-05
6.75674e-05
1.01999e-06
-4.3208e-05
1.92583e-06
-3.73382e-05
2.72086e-06
-2.99451e-05
4.18814e-06
-2.36064e-05
6.36976e-06
-1.7273e-05
9.07422e-06
-9.18577e-06
1.29431e-05
-9.49341e-08
1.81387e-05
9.99789e-06
2.56606e-05
1.83846e-05
3.52467e-05
2.54139e-05
4.57585e-05
3.25918e-05
5.68928e-05
3.89352e-05
6.77248e-05
3.9267e-05
7.80988e-05
3.47837e-05
8.7626e-05
2.88395e-05
9.54647e-05
2.24781e-05
0.000101917
1.76698e-05
0.000107172
1.57212e-05
0.000109864
1.67421e-05
0.000109713
1.91993e-05
0.000105903
2.22081e-05
9.79373e-05
2.63918e-05
3.20835e-05
8.78868e-05
-1.54713e-06
-4.16598e-05
-3.16811e-06
-3.57165e-05
-4.64226e-06
-2.84702e-05
-5.61421e-06
-2.26338e-05
-6.4514e-06
-1.64351e-05
-6.9432e-06
-8.69331e-06
-6.46023e-06
-5.77272e-07
-3.50052e-06
7.03878e-06
3.55684e-06
1.13279e-05
1.29268e-05
1.60444e-05
2.29936e-05
2.25256e-05
3.36759e-05
2.82534e-05
4.39737e-05
2.89698e-05
5.3759e-05
2.49988e-05
6.32409e-05
1.93578e-05
7.27938e-05
1.29252e-05
8.18431e-05
8.62045e-06
8.95483e-05
8.01582e-06
9.46941e-05
1.15961e-05
9.70543e-05
1.68387e-05
9.68202e-05
2.24418e-05
9.44965e-05
2.87155e-05
3.56834e-05
9.08971e-05
-3.68932e-06
-3.79701e-05
-7.38323e-06
-3.2022e-05
-1.08042e-05
-2.50486e-05
-1.43434e-05
-1.9094e-05
-1.78919e-05
-1.28861e-05
-2.0969e-05
-5.61568e-06
-2.28832e-05
1.33742e-06
-2.12784e-05
5.43449e-06
-1.62753e-05
6.32518e-06
-9.36499e-06
9.13464e-06
-2.28445e-06
1.54456e-05
6.22969e-06
1.97398e-05
1.44248e-05
2.07752e-05
2.2273e-05
1.71512e-05
2.98512e-05
1.17799e-05
3.77238e-05
5.05289e-06
4.61256e-05
2.18757e-07
5.55281e-05
-1.38658e-06
6.35926e-05
3.53151e-06
6.95368e-05
1.08943e-05
7.3795e-05
1.81835e-05
7.66899e-05
2.58204e-05
3.38282e-05
7.85457e-05
-5.15174e-06
-3.28175e-05
-1.01165e-05
-2.70566e-05
-1.4774e-05
-2.03906e-05
-1.95062e-05
-1.43613e-05
-2.39062e-05
-8.48564e-06
-2.69938e-05
-2.52762e-06
-2.79515e-05
2.29553e-06
-2.68257e-05
4.30905e-06
-2.47423e-05
4.24215e-06
-2.17561e-05
6.14887e-06
-1.7566e-05
1.12559e-05
-1.22918e-05
1.44661e-05
-6.6942e-06
1.51781e-05
-1.03173e-06
1.14891e-05
4.53654e-06
6.212e-06
8.79604e-06
7.93698e-07
1.21148e-05
-3.0997e-06
1.76974e-05
-6.96901e-06
2.68644e-05
-5.63529e-06
3.68676e-05
8.91085e-07
4.49461e-05
1.01049e-05
5.16945e-05
1.90722e-05
2.80014e-05
5.7522e-05
-5.68346e-06
-2.71337e-05
-1.08984e-05
-2.18412e-05
-1.55049e-05
-1.57836e-05
-1.95319e-05
-1.03339e-05
-2.26689e-05
-5.34821e-06
-2.42471e-05
-9.49049e-07
-2.42593e-05
2.30809e-06
-2.38064e-05
3.8564e-06
-2.39503e-05
4.38637e-06
-2.35027e-05
5.70162e-06
-2.04627e-05
8.21626e-06
-1.60472e-05
1.00509e-05
-1.09101e-05
1.00413e-05
-6.53927e-06
7.11866e-06
-3.2539e-06
2.92695e-06
-1.60448e-06
-8.55433e-07
-9.73504e-07
-3.73041e-06
-1.44183e-06
-6.50042e-06
3.03647e-07
-7.38058e-06
6.76986e-06
-5.57517e-06
1.58556e-05
1.01922e-06
2.52688e-05
9.65901e-06
1.93135e-05
3.39574e-05
-5.48697e-06
-2.16461e-05
-1.02643e-05
-1.70634e-05
-1.41236e-05
-1.1924e-05
-1.70414e-05
-7.41566e-06
-1.8906e-05
-3.48334e-06
-1.96181e-05
-2.36601e-07
-1.94023e-05
2.09258e-06
-1.89599e-05
3.41431e-06
-1.86752e-05
4.10197e-06
-1.79231e-05
4.94977e-06
-1.58272e-05
6.12056e-06
-1.26234e-05
6.84745e-06
-9.01405e-06
6.43223e-06
-6.40633e-06
4.51119e-06
-5.25315e-06
1.77401e-06
-5.23499e-06
-8.73354e-07
-5.82262e-06
-3.14255e-06
-7.19983e-06
-5.123e-06
-8.42974e-06
-6.1505e-06
-8.30718e-06
-5.69776e-06
-4.45553e-06
-2.8325e-06
2.66391e-06
2.53973e-06
1.02813e-05
1.16969e-05
-5.00064e-06
-1.66453e-05
-9.19404e-06
-1.28697e-05
-1.23354e-05
-8.78236e-06
-1.44205e-05
-5.33024e-06
-1.54893e-05
-2.41424e-06
-1.56511e-05
-7.4546e-08
-1.5143e-05
1.58468e-06
-1.43982e-05
2.66976e-06
-1.36068e-05
3.31088e-06
-1.25313e-05
3.87444e-06
-1.08326e-05
4.42215e-06
-8.60466e-06
4.61971e-06
-6.30903e-06
4.13682e-06
-4.65585e-06
2.85822e-06
-4.01597e-06
1.13434e-06
-4.23325e-06
-6.55874e-07
-5.1801e-06
-2.19551e-06
-6.86082e-06
-3.44207e-06
-8.89233e-06
-4.11886e-06
-1.06562e-05
-3.934e-06
-1.09213e-05
-2.56734e-06
-8.76484e-06
3.83213e-07
4.95352e-06
-3.43621e-06
-4.52418e-06
-1.21206e-05
-8.25634e-06
-9.13711e-06
-1.09422e-05
-6.09624e-06
-1.25843e-05
-3.68782e-06
-1.32757e-05
-1.72264e-06
-1.31753e-05
-1.7473e-07
-1.25449e-05
9.54579e-07
-1.16029e-05
1.72797e-06
-1.05358e-05
2.24401e-06
-9.29918e-06
2.63799e-06
-7.78761e-06
2.91077e-06
-6.09185e-06
2.92414e-06
-4.48536e-06
2.53051e-06
-3.33889e-06
1.71193e-06
-2.8308e-06
6.26433e-07
-2.98287e-06
-5.03629e-07
-3.72826e-06
-1.44995e-06
-5.03983e-06
-2.13034e-06
-6.75696e-06
-2.40161e-06
-8.55027e-06
-2.14076e-06
-9.93353e-06
-1.18416e-06
-1.01816e-05
6.31443e-07
3.38822e-06
-8.61551e-06
-4.16225e-06
-7.95827e-06
-7.59772e-06
-5.70143e-06
-1.00573e-05
-3.63641e-06
-1.15444e-05
-2.20052e-06
-1.21577e-05
-1.10914e-06
-1.20554e-05
-2.76845e-07
-1.14393e-05
3.38657e-07
-1.04949e-05
7.8374e-07
-9.36244e-06
1.11176e-06
-8.09125e-06
1.36698e-06
-6.70514e-06
1.52484e-06
-5.29449e-06
1.51366e-06
-4.02714e-06
1.26333e-06
-3.09165e-06
7.76604e-07
-2.6055e-06
1.40446e-07
-2.60007e-06
-5.08903e-07
-3.03213e-06
-1.01773e-06
-3.85873e-06
-1.30358e-06
-4.98182e-06
-1.27841e-06
-6.24253e-06
-8.80135e-07
-7.41282e-06
-1.38236e-08
-8.09721e-06
1.31581e-06
3.19701e-06
-7.90522e-06
-3.91848e-06
-4.03927e-06
-7.18249e-06
-2.43715e-06
-9.55134e-06
-1.26737e-06
-1.10265e-05
-7.25239e-07
-1.16973e-05
-4.38121e-07
-1.17014e-05
-2.72628e-07
-1.12007e-05
-1.6187e-07
-1.03509e-05
-6.58954e-08
-9.27864e-06
3.96674e-08
-8.06738e-06
1.5588e-07
-6.79127e-06
2.48884e-07
-5.54314e-06
2.65678e-07
-4.43787e-06
1.58215e-07
-3.58623e-06
-7.48848e-08
-3.06422e-06
-3.81424e-07
-2.89621e-06
-6.76759e-07
-3.0487e-06
-8.65084e-07
-3.47752e-06
-8.74623e-07
-4.09428e-06
-6.61531e-07
-4.82019e-06
-1.54275e-07
-5.47645e-06
6.42367e-07
-5.87342e-06
1.71296e-06
3.10755e-06
-5.78324e-06
-3.77072e-06
-2.68705e-07
-6.94559e-06
7.37817e-07
-9.29056e-06
1.07773e-06
-1.08026e-05
7.86925e-07
-1.1561e-05
3.20402e-07
-1.16818e-05
-1.51627e-07
-1.12995e-05
-5.44127e-07
-1.05506e-05
-8.14667e-07
-9.55915e-06
-9.51605e-07
-8.42908e-06
-9.74051e-07
-7.25198e-06
-9.28077e-07
-6.11539e-06
-8.70784e-07
-5.10822e-06
-8.48819e-07
-4.30608e-06
-8.76887e-07
-3.75463e-06
-9.3274e-07
-3.46388e-06
-9.6738e-07
-3.40828e-06
-9.2055e-07
-3.54255e-06
-7.402e-07
-3.80374e-06
-4.00246e-07
-4.10644e-06
1.48355e-07
-4.33745e-06
8.73434e-07
-4.3833e-06
1.75878e-06
2.81681e-06
-4.0919e-06
-3.68894e-06
3.42068e-06
-6.83927e-06
3.88836e-06
-9.18259e-06
3.4212e-06
-1.07387e-05
2.34313e-06
-1.1571e-05
1.15282e-06
-1.17759e-05
5.34583e-08
-1.14695e-05
-8.50432e-07
-1.078e-05
-1.5041e-06
-9.83636e-06
-1.89512e-06
-8.75721e-06
-2.05309e-06
-7.64576e-06
-2.03941e-06
-6.58883e-06
-1.9276e-06
-5.65694e-06
-1.78059e-06
-4.90029e-06
-1.63342e-06
-4.34416e-06
-1.48875e-06
-3.9876e-06
-1.32382e-06
-3.80487e-06
-1.10315e-06
-3.75291e-06
-7.92038e-07
-3.77622e-06
-3.76834e-07
-3.803e-06
1.75086e-07
-3.7586e-06
8.29001e-07
-3.56398e-06
1.56431e-06
2.3775e-06
-3.12401e-06
-3.65934e-06
7.0799e-06
-6.79333e-06
7.0224e-06
-9.15825e-06
5.78621e-06
-1.07594e-05
3.94433e-06
-1.16459e-05
2.03947e-06
-1.1898e-05
3.05651e-07
-1.16204e-05
-1.12798e-06
-1.09407e-05
-2.18369e-06
-9.99801e-06
-2.83769e-06
-8.92554e-06
-3.12545e-06
-7.83763e-06
-3.12723e-06
-6.82256e-06
-2.94257e-06
-5.94059e-06
-2.66245e-06
-5.22477e-06
-2.34914e-06
-4.68386e-06
-2.02955e-06
-4.30593e-06
-1.70164e-06
-4.06179e-06
-1.34718e-06
-3.90893e-06
-9.44766e-07
-3.80471e-06
-4.80981e-07
-3.68041e-06
5.07346e-08
-3.48888e-06
6.37546e-07
-3.17497e-06
1.25045e-06
1.87884e-06
-2.67571e-06
-3.63006e-06
1.07103e-05
-6.76213e-06
1.01546e-05
-9.15371e-06
8.17786e-06
-1.07941e-05
5.58477e-06
-1.17134e-05
2.95892e-06
-1.1979e-05
5.71283e-07
-1.16908e-05
-1.41609e-06
-1.0982e-05
-2.89234e-06
-1.00046e-05
-3.81501e-06
-8.90525e-06
-4.22476e-06
-7.8078e-06
-4.2246e-06
-6.80368e-06
-3.9466e-06
-5.94863e-06
-3.51742e-06
-5.26513e-06
-3.03255e-06
-4.7493e-06
-2.54528e-06
-4.37912e-06
-2.07173e-06
-4.12074e-06
-1.60546e-06
-3.93299e-06
-1.13241e-06
-3.77311e-06
-6.40772e-07
-3.58878e-06
-1.33623e-07
-3.34582e-06
3.94586e-07
-3.004e-06
9.08758e-07
1.40228e-06
-2.52685e-06
-3.57964e-06
1.42897e-05
-6.68569e-06
1.32606e-05
-9.08705e-06
1.05793e-05
-1.07462e-05
7.24393e-06
-1.16695e-05
3.88236e-06
-1.19147e-05
8.16479e-07
-1.15848e-05
-1.74587e-06
-1.08243e-05
-3.65278e-06
-9.79904e-06
-4.84018e-06
-8.66501e-06
-5.35872e-06
-7.55028e-06
-5.33926e-06
-6.54708e-06
-4.94973e-06
-5.7095e-06
-4.35492e-06
-5.05491e-06
-3.68705e-06
-4.57133e-06
-3.02878e-06
-4.22848e-06
-2.4145e-06
-3.98747e-06
-1.84639e-06
-3.8065e-06
-1.31328e-06
-3.64443e-06
-8.02788e-07
-3.46492e-06
-3.13163e-07
-3.232e-06
1.61727e-07
-2.92169e-06
5.98532e-07
9.91383e-07
-2.51031e-06
-3.44845e-06
1.77385e-05
-6.48024e-06
1.62926e-05
-8.85967e-06
1.29588e-05
-1.05036e-05
8.88794e-06
-1.1393e-05
4.77184e-06
-1.15808e-05
1.00433e-06
-1.11858e-05
-2.14081e-06
-1.03672e-05
-4.47137e-06
-9.30484e-06
-5.90244e-06
-8.15742e-06
-6.50609e-06
-7.04785e-06
-6.44876e-06
-6.06241e-06
-5.93512e-06
-5.25274e-06
-5.16454e-06
-4.63523e-06
-4.3045e-06
-4.19492e-06
-3.46903e-06
-3.89646e-06
-2.71289e-06
-3.69666e-06
-2.04611e-06
-3.55257e-06
-1.45729e-06
-3.42486e-06
-9.30429e-07
-3.28429e-06
-4.53756e-07
-3.10003e-06
-2.25026e-08
-2.85721e-06
3.55815e-07
6.78332e-07
-2.54365e-06
-3.2037e-06
2.0942e-05
-6.08457e-06
1.91734e-05
-8.37801e-06
1.52522e-05
-9.96233e-06
1.04723e-05
-1.07787e-05
5.58823e-06
-1.08763e-05
1.10196e-06
-1.04021e-05
-2.6149e-06
-9.53387e-06
-5.33959e-06
-8.46457e-06
-6.9717e-06
-7.34763e-06
-7.62298e-06
-6.28992e-06
-7.50643e-06
-5.3617e-06
-6.86329e-06
-4.60793e-06
-5.91827e-06
-4.04635e-06
-4.86603e-06
-3.66469e-06
-3.85064e-06
-3.42717e-06
-2.95035e-06
-3.28819e-06
-2.18504e-06
-3.20358e-06
-1.54182e-06
-3.13585e-06
-9.98119e-07
-3.05604e-06
-5.3357e-07
-2.94293e-06
-1.35557e-07
-2.78562e-06
1.98637e-07
4.69851e-07
-2.57673e-06
-2.82526e-06
2.37675e-05
-5.44017e-06
2.17883e-05
-7.57102e-06
1.73831e-05
-9.04533e-06
1.19466e-05
-9.7704e-06
6.31332e-06
-9.76803e-06
1.09962e-06
-9.20341e-06
-3.17949e-06
-8.30692e-06
-6.23605e-06
-7.27303e-06
-8.00556e-06
-6.24257e-06
-8.65342e-06
-5.29621e-06
-8.45276e-06
-4.47738e-06
-7.68211e-06
-3.81745e-06
-6.57818e-06
-3.33542e-06
-5.34802e-06
-3.02735e-06
-4.15868e-06
-2.86352e-06
-3.11414e-06
-2.79928e-06
-2.24923e-06
-2.78952e-06
-1.55153e-06
-2.7967e-06
-9.90885e-07
-2.79352e-06
-5.36758e-07
-2.76279e-06
-1.66235e-07
-2.69756e-06
1.33489e-07
3.7007e-07
-2.59734e-06
-2.30951e-06
2.60766e-05
-4.5341e-06
2.40128e-05
-6.40698e-06
1.92559e-05
-7.72169e-06
1.32613e-05
-8.34112e-06
6.93274e-06
-8.26284e-06
1.02132e-06
-7.63162e-06
-3.81071e-06
-6.73656e-06
-7.13112e-06
-5.78865e-06
-8.95347e-06
-4.90266e-06
-9.53941e-06
-4.12749e-06
-9.22794e-06
-3.47162e-06
-8.33798e-06
-2.94506e-06
-7.10474e-06
-2.5647e-06
-5.72838e-06
-2.33887e-06
-4.38449e-06
-2.25218e-06
-3.20082e-06
-2.267e-06
-2.23438e-06
-2.33871e-06
-1.47977e-06
-2.42899e-06
-9.00579e-07
-2.51026e-06
-4.55492e-07
-2.56669e-06
-1.09758e-07
-2.59376e-06
1.60723e-07
3.69993e-07
-2.59338e-06
-1.67834e-06
2.77551e-05
-3.39255e-06
2.5727e-05
-4.90204e-06
2.07653e-05
-6.01037e-06
1.43696e-05
-6.50573e-06
7.42802e-06
-6.37986e-06
8.95399e-07
-5.74991e-06
-4.4407e-06
-4.92201e-06
-7.95906e-06
-4.12312e-06
-9.7524e-06
-3.43639e-06
-1.02262e-05
-2.88203e-06
-9.78234e-06
-2.43345e-06
-8.7866e-06
-2.07394e-06
-7.46428e-06
-1.81207e-06
-5.99028e-06
-1.66794e-06
-4.52864e-06
-1.6483e-06
-3.22047e-06
-1.73206e-06
-2.15062e-06
-1.87954e-06
-1.33228e-06
-2.0508e-06
-7.29302e-07
-2.21602e-06
-2.90294e-07
-2.3583e-06
3.25708e-08
-2.47328e-06
2.75715e-07
4.64307e-07
-2.56726e-06
-9.78718e-07
2.87334e-05
-2.07776e-06
2.68258e-05
-3.11267e-06
2.18001e-05
-3.92639e-06
1.51831e-05
-4.29883e-06
7.80034e-06
-4.16905e-06
7.65509e-07
-3.62806e-06
-4.98179e-06
-2.98351e-06
-8.6037e-06
-2.42106e-06
-1.03149e-05
-1.9838e-06
-1.06635e-05
-1.68239e-06
-1.00838e-05
-1.46724e-06
-9.00182e-06
-1.29563e-06
-7.63595e-06
-1.16191e-06
-6.12406e-06
-1.09132e-06
-4.59927e-06
-1.11552e-06
-3.19631e-06
-1.24133e-06
-2.02484e-06
-1.44333e-06
-1.13028e-06
-1.68205e-06
-4.90606e-07
-1.92188e-06
-5.04853e-08
-2.14232e-06
2.52992e-07
-2.33616e-06
4.69709e-07
6.37258e-07
-2.50894e-06
-2.91235e-07
2.90246e-05
-6.91192e-07
2.72255e-05
-1.15468e-06
2.22633e-05
-1.51127e-06
1.55395e-05
-1.6672e-06
7.95608e-06
-1.60838e-06
7.06529e-07
-1.35675e-06
-5.23357e-06
-1.05595e-06
-8.90464e-06
-8.30323e-07
-1.05407e-05
-6.87158e-07
-1.08068e-05
-6.52183e-07
-1.01189e-05
-6.76203e-07
-8.97792e-06
-6.95288e-07
-7.61698e-06
-6.89953e-07
-6.1295e-06
-6.81359e-07
-4.60795e-06
-7.19587e-07
-3.15816e-06
-8.46459e-07
-1.89803e-06
-1.06466e-06
-9.12125e-07
-1.34124e-06
-2.14066e-07
-1.63815e-06
2.46363e-07
-1.92325e-06
5.3812e-07
-2.184e-06
7.30379e-07
8.75539e-07
-2.42204e-06
3.37119e-07
2.86869e-05
6.43854e-07
2.69184e-05
8.38029e-07
2.20689e-05
1.11106e-06
1.52662e-05
1.29345e-06
7.77347e-06
1.24257e-06
7.57181e-07
1.02446e-06
-5.01567e-06
7.76522e-07
-8.65689e-06
5.56313e-07
-1.03207e-05
3.46799e-07
-1.05975e-05
9.76002e-08
-9.86989e-06
-1.42605e-07
-8.73787e-06
-3.36125e-07
-7.4236e-06
-4.47643e-07
-6.01811e-06
-4.89062e-07
-4.56665e-06
-5.15133e-07
-3.13219e-06
-5.97918e-07
-1.81533e-06
-7.81585e-07
-7.28527e-07
-1.0532e-06
5.74786e-08
-1.37627e-06
5.69379e-07
-1.70584e-06
8.67621e-07
-2.01725e-06
1.04194e-06
1.16149e-06
-2.30312e-06
8.66225e-07
2.78206e-05
1.80341e-06
2.5981e-05
2.70136e-06
2.11706e-05
3.55837e-06
1.44089e-05
4.04899e-06
7.28258e-06
3.89226e-06
9.13656e-07
3.25049e-06
-4.37414e-06
2.42828e-06
-7.8349e-06
1.71849e-06
-9.61108e-06
1.09952e-06
-9.9787e-06
5.57646e-07
-9.32821e-06
9.80305e-08
-8.27844e-06
-2.41662e-07
-7.08408e-06
-4.48661e-07
-5.81127e-06
-5.28535e-07
-4.48693e-06
-5.28188e-07
-3.13267e-06
-5.32462e-07
-1.81117e-06
-6.2583e-07
-6.35254e-07
-8.43344e-07
2.7492e-07
-1.15042e-06
8.76357e-07
-1.49839e-06
1.21562e-06
-1.84258e-06
1.38595e-06
1.48072e-06
-2.16168e-06
1.2948e-06
2.65252e-05
2.75862e-06
2.45168e-05
4.20452e-06
1.97244e-05
5.45441e-06
1.31587e-05
6.10882e-06
6.62789e-06
5.91512e-06
1.10708e-06
4.97931e-06