/*--------------------------------*- C++ -*----------------------------------*\
| =========                 |                                                 |
| \\      /  F ield         | OpenFOAM: The Open Source CFD Toolbox           |
|  \\    /   O peration     | Version:  2312                                  |
|   \\  /    A nd           | Website:  www.openfoam.com                      |
|    \\/     M anipulation  |                                                 |
\*---------------------------------------------------------------------------*/
FoamFile
{
    version     2.0;
    format      ascii;
    arch        "LSB;label=32;scalar=64";
    class       volScalarField;
    location    "0.4";
    object      alphas;
}
// * * * * * * * * * * * * * * * * * * * * * * * * * * * * * * * * * * * * * //

dimensions      [0 0 0 0 0 0 0];

internalField   nonuniform List<scalar> 
2268
(
2
2
2
2
2
2
2
2
2
2
2
2
2
2
2
2
2
2
2
2
2
2
1.99987
2
2
2
2
2
2
2
2
2
2
2
2
2
2
2
2
2
2
2
2
2
2
1.99991
2
2
2
2
2
2
2
2
2
2
2
2
2
2
2
2
2
2
2
2
2
2
1.99987
2
2
2
2
2
2
2
2
2
2
2
2
2
2
2
2
2
2
2
2
2
2
1.99938
2
2
2
2
2
2
2
2
2
2
2
2
2
2
1.99976
2
2
2
2
2
2
2
1.99922
1.986
1.98729
1.98418
1.97686
1.96374
1.94186
1.90731
1.85595
1.7844
1.69141
1.57941
1.45581
1.33415
1.21139
1.14758
1.24027
1.4976
1.91944
2
2
2
2
1.99922
0.892496
0.905945
0.876275
0.819508
0.742233
0.648119
0.541745
0.429367
0.318285
0.21576
0.127841
0.0584151
0.00419405
6.77851e-11
1.08146e-10
7.84241e-05
0.0711628
0.455118
1.56477
2
2
2
1.99922
1.62779e-10
1.67925e-10
1.739e-10
1.71124e-10
1.37097e-09
2.37545e-09
1.04274e-09
2.48926e-10
1.5184e-10
1.47132e-10
1.50925e-10
1.49336e-10
1.40604e-10
1.70201e-10
3.3137e-10
2.20604e-09
5.59393e-10
2.46334e-10
0.270595
1.79665
1.99999
2
1.99986
1.0001
1.00013
1.00013
1.00008
1.00001
1.00002
1.00002
1.00002
1
1
1
1
1
1.0002
1.00063
1.00062
1
1.22998
1.29014
1.00007
1.0001
1.00003
1
1
1
1
1.00023
1.03111
1.20988
1.06063
1.00001
1
1
1.00026
1.00037
1
1.19547
1.29014
1.00001
1
1
1
1
1
1.00006
1.24154
2.22274
2.69577
2.31138
1.23434
1.00001
1
1
1.00003
1
1.10116
1.29014
1
1
1
1
1.00003
1.07075
1.55586
2.56906
2.99531
2.95379
2.80261
2.0522
1.04361
1
1
1
1
1
1.27115
1
1
1
1.00005
1.43153
2.43896
2.88967
2.99841
2.99837
2.81926
2.75717
2.04655
1.14644
1.00147
1
1
1
1
1.06958
1
1
1.00447
1.14608
2.74848
2.99824
2.99933
2.99916
2.9899
2.76382
1.95857
1.32492
1.16984
1.00477
1
1
1
1
1
1
1.00009
1.00001
1.38537
2.74279
2.99917
2.99883
2.99814
2.90065
2.65199
1.38176
1.1917
1.05544
1.00019
1
1
1
1
1
1
1.00009
1.00001
1.2381
1.88578
2.32202
2.77402
2.97732
2.81022
2.05401
1.25582
1.02905
1.00108
1.00002
1
1
1
1
1
2.88223e-10
2.97792e-10
3.04452e-10
2.98127e-10
2.84067e-10
2.65794e-10
2.50878e-10
2.43118e-10
2.4012e-10
2.43254e-10
2.47667e-10
2.439e-10
2.19075e-10
2.82397e-10
7.86109e-10
1.22747e-09
1.42895e-09
6.54012e-10
4.92212e-08
0.416581
1.76503
1.99944
1.99994
6.25955e-10
6.41044e-10
6.47472e-10
6.44649e-10
6.18651e-10
5.78808e-10
5.51161e-10
5.34905e-10
5.29801e-10
5.45951e-10
5.47681e-10
5.30453e-10
4.40643e-10
5.25788e-10
1.90407e-09
6.58162e-09
7.48769e-09
5.18082e-09
3.56168e-09
8.80968e-07
0.350426
1.54402
1.99797
1.22031e-09
1.20921e-09
1.21403e-09
1.24e-09
1.19444e-09
1.06524e-09
1.04174e-09
1.01718e-09
9.68684e-10
1.01077e-09
1.01212e-09
9.42818e-10
7.59988e-10
1.03032e-09
3.26346e-09
7.1267e-09
2.67217e-09
2.21918e-09
2.17101e-09
3.64353e-09
1.5806e-05
0.1484
0.957406
2.21559e-09
2.18749e-09
2.05059e-09
1.98764e-09
1.89243e-09
1.57029e-09
1.76526e-09
1.78134e-09
1.58826e-09
1.67616e-09
1.67499e-09
1.43771e-09
1.17186e-09
4.33982e-09
5.50784e-09
0.000170158
4.04431e-05
1.42547e-05
4.16795e-06
2.27903e-07
2.40652e-06
0.000275078
0.0228155
2.09953e-09
2.05392e-09
2.0315e-09
2.00945e-09
2.01715e-09
3.65465e-09
5.81758e-09
7.60264e-09
8.48525e-09
8.56096e-09
8.15464e-09
6.44037e-09
4.31025e-09
6.35371e-05
0.0240626
0.0645702
0.0576917
0.0109318
1.07388e-06
8.45825e-07
9.92754e-07
6.16281e-07
7.34165e-06
0.449762
0.433126
0.409984
0.375754
0.329657
0.271624
0.202358
0.125547
0.0541335
0.0106953
9.15122e-07
0.000172613
0.0812959
0.31704
0.612284
0.779588
0.83491
0.781571
0.616925
0.327866
0.0154732
1.3132e-06
1.62095e-06
2.65489
2.63799
2.61483
2.57762
2.52201
2.44042
2.31872
2.13017
1.84625
1.47785
1.12133
1.03235
1.19528
1.13765
1.0026
1.00108
1.00042
1.00017
0.9999
0.965034
0.844855
0.662288
0.45803
3
3
3
3
3
2.99997
2.99977
2.99844
2.9906
2.96346
2.80449
2.50632
1.64816
1.22639
1.20913
1.12043
1.04379
1.0064
1.00035
1.00037
1.00001
0.999661
0.985585
3
3
3
3
3
2.99999
2.99999
2.99171
2.95429
2.91755
2.73268
2.61765
2.65828
2.71472
2.65021
2.51464
2.28873
2.00946
1.70233
1.46376
1.25367
1.10703
1.02845
3
3
3
3
3
3
2.99964
2.97288
2.95792
2.96803
2.99215
3
2.99989
2.99971
2.9999
2.99998
2.99999
2.99999
3
2.90923
2.7525
2.52694
2.22666
3
3
3
3
3
2.99979
2.99316
2.99427
3
3
3
3
2.99998
2.99972
2.99977
2.99996
3
3
3
3
3
3
3
3
3
3
3
3
2.99999
2.99986
3
2.99995
3
3
3
3
3
3
3
3
3
3
3
3
3
3
3
3
3
3
3
3
3
3
3
3
3
3
3
3
3
3
3
3
3
3
3
3
2.99976
3
3
3
3
3
3
3
3
3
3
3
3
3
3
3
3
3
3
3
3
2.99997
2.9994
2.99889
3
3
3
3
3
3
3
3
3
3
3
3
3
3
3
3
3
3
3
3
2.99976
2.9989
2.99889
3
3
3
3
3
3
3
3
3
3
3
3
3
3
3
3
3
3
2.99999
2.99999
2.99975
2.99989
2.99988
3
3
3
3
3
3
3
3
3
3
3
3
3
3
3
3
3
3
2.99999
2.99998
3
3
3
3
3
3
3
3
3
3
3
3
3
3
3
3
3
3
3
3
3
3
3
3
3
3
3
3
3
3
3
3
3
3
3
3
3
3
3
3
3
3
3
3
3
3
3
3
3
3
3
3
3
3
3
3
3
3
3
3
3
3
3
3
3
3
3
3
3
3
3
3
3
3
3
3
3
3
3
3
3
3
3
3
3
3
3
3
3
3
3
3
3
3
3
3
3
3
3
3
3
3
3
3
3
3
3
3
3
3
3
3
3
3
3
3
3
3
3
3
3
3
3
3
3
3
3
3
3
3
3
3
3
3
3
3
3
3
3
3
3
3
3
3
3
3
3
3
3
3
3
3
3
3
3
3
3
3
3
3
3
3
3
3
3
3
3
3
3
3
3
3
3
3
3
3
3
3
3
3
3
3
3
3
3
3
3
3
3
3
3
3
3
3
3
3
3
3
3
3
3
3
3
3
3
3
3
3
3
3
3
3
3
3
3
3
3
3
3
3
3
3
3
3
3
3
3
3
3
3
3
3
3
3
3
3
3
3
3
3
3
3
3
3
3
3
3
3
3
3
3
3
3
3
3
3
3
3
3
3
3
3
3
3
3
3
3
3
3
3
3
3
3
3
3
3
3
3
3
3
3
3
3
3
3
3
3
3
3
3
3
3
3
3
3
3
3
3
3
3
3
3
3
3
3
3
3
3
3
3
3
3
3
3
3
3
3
3
3
3
3
3
3
3
3
3
3
3
3
3
3
3
3
3
3
3
3
3
3
3
3
3
3
3
3
3
3
3
3
3
3
3
3
3
3
3
3
3
3
3
3
3
3
3
3
3
3
3
3
3
3
3
3
3
3
3
3
3
3
3
3
3
3
3
3
3
3
3
3
3
3
3
3
3
3
3
3
3
3
3
3
3
3
3
3
3
3
3
3
3
3
3
3
3
3
3
3
3
3
3
3
3
3
3
3
3
3
3
3
3
3
3
3
3
3
3
3
3
3
3
3
3
3
3
3
3
3
3
3
3
3
3
3
3
3
3
3
3
3
3
3
3
3
3
3
3
3
3
3
3
3
3
3
3
3
3
3
3
3
3
3
3
3
3
3
3
3
3
3
3
3
3
3
3
3
3
3
3
3
3
3
3
3
3
3
3
3
3
3
3
3
3
3
3
3
3
3
3
3
3
3
3
3
3
3
3
3
3
3
3
3
3
3
3
3
3
3
3
3
3
3
3
3
3
3
3
3
3
3
3
3
3
3
3
3
3
3
3
3
3
3
3
3
3
3
3
3
3
3
3
3
3
3
3
3
3
3
3
1.99994
2.02352
1.89934
1.51141
1.99935
2.00149
1.97689
2.03539
1.62304
1.99177
1.9961
1.97601
0.108764
0.21569
0.387215
0.492701
2.13786e-05
7.85125e-06
0.000105175
5.21201e-05
1.92173e-06
2.69702e-06
3.06241e-06
4.39574e-06
0.29138
0.172266
0.0678441
0.0318311
0.966442
0.94923
0.919524
0.902036
1.01016
1.0084
1.008
1.00806
2.03957
1.97531
1.89615
1.88328
3
3
3
3
2.99999
2.99999
2.99999
3
2.99922
2.99929
2.9998
3
2.99889
2.99889
2.99967
2.99998
2.99917
2.99981
2.99994
2.99981
3
3
3
3
3
3
3
3
3
3
3
3
3
3
3
3
3
3
3
3
3
3
3
3
3
3
3
3
3
3
3
3
3
3
3
3
3
3
3
3
3
3
3
3
3
3
3
3
3
3
3
3
3
3
3
3
3
3
3
3
3
3
3
3
3
3
3
3
3
3
3
3
3
3
3
3
3
3
3
3
3
3
3
3
3
3
3
3
3
3
3
3
3
3
3
3
3
3
3
3
3
3
3
3
3
3
3
3
1.01872
1.00001
1.00001
1.01316
1.03461
1.12453
1.63964
2.06686
1.91682
1.41666
1.05062
1.00002
1.00017
1.0177
1.01838
1.00662
1
1
1
1.86697
1.38277
1.10587
1.0257
1.03106
1.10044
1.24771
1.2094
1.16866
1.0234
1
0.999999
1
1.00017
1.005
1.00157
1
1
1
1.96718
2.01441
1.80846
1.41806
1.45044
1.47557
1.53035
1.17018
1.00004
1
1
0.999999
1.1763
1.08973
1.00429
1.004
1.00011
1
1
0.595375
0.839952
1.18438
1.20973
1.1112
0.934408
0.821923
0.988942
1
1
1
1.38815
2.32878
2.04916
1.2799
1.01646
1
1
1
0.00551232
0.00524428
1.79408e-05
0.00566816
0.00525808
0.00418586
0.393985
0.985111
1.00004
1.01105
1.74894
2.84908
3
2.87915
1.54157
1.01318
1.00028
1
1
3.86383e-06
5.26788e-06
5.6055e-06
2.85925e-05
0.00828681
0.142633
0.520331
0.981602
1.12546
2.0559
3
3
3
2.95325
1.63126
1
1.00035
1
1
0.0515022
0.0863872
0.139678
0.283343
0.557812
0.951644
1.15914
1.46711
2.44836
2.99999
3
3
3
2.98785
1.92077
1
1.00008
1
1
0.891552
0.867456
0.909522
1.00219
1.10963
1.1968
1.65751
2.72897
3
3
3
3
3
3
2.56201
1.07759
1
1
1
1.0112
1.03438
1.10819
1.30126
1.75557
2.59936
3
3
3
3
3
3
3
3
2.9585
1.75272
1
1
1
1.99729
2.22295
2.51815
2.8726
3
3
3
3
3
3
3
3
3
3
3
2.66349
1.15954
1
1
3
3
3
3
3
3
3
3
3
3
3
3
3
3
3
3
2.31092
1
1
3
2.99997
2.99995
2.99998
3
3
3
3
3
3
3
3
3
3
3
3
2.86946
1
1
2.99996
2.99979
2.99983
2.99999
3
3
3
3
3
3
3
3
3
3
3
3
2.96543
1.01231
1
2.99982
2.99979
2.99999
3
3
3
3
3
3
3
3
3
3
3
3
3
2.99871
1.52455
1.00139
3
3
3
3
3
3
3
3
3
3
3
3
3
3
3
3
3
2.31984
1.00987
3
3
3
3
3
3
3
3
3
3
3
3
3
3
3
3
3
2.15815
1.00939
3
3
3
3
3
3
3
3
3
3
3
3
3
3
3
3
2.98786
1.30683
1.00442
3
3
3
3
3
3
3
3
3
3
3
3
3
3
3
3
2.91019
1.21406
1.00435
3
3
3
3
3
3
3
3
3
3
3
3
3
3
3
3
2.91065
2.25245
1.02448
3
3
3
3
3
3
3
3
3
3
3
3
3
3
3
3
2.94883
2.99375
1.0765
3
3
3
3
3
3
3
3
3
3
3
3
3
3
3
3
2.99984
3
1.13954
3
3
3
3
3
3
3
3
3
3
3
3
3
3
3
3
3
3
1.24855
3
3
3
3
3
3
3
3
3
3
3
3
3
3
3
3
3
3
1.53849
3
3
3
3
3
3
3
3
3
3
3
3
3
3
3
3
3
3
1.65931
3
3
3
3
3
3
3
3
3
3
3
3
3
3
3
3
3
3
1.54325
3
3
3
3
3
3
3
3
3
3
3
3
3
3
3
3
3
3
1.40155
3
3
3
3
3
3
3
3
3
3
3
3
3
3
3
3
3
2.99969
1.40061
3
3
3
3
3
3
3
3
3
3
3
3
3
3
3
3
3
3
1.71944
3
3
3
3
3
3
3
3
3
3
3
3
3
3
3
3
3
3
2.91731
3
3
3
3
3
3
3
3
3
3
3
3
3
3
3
3
3
3
2.59564
3
3
3
3
3
3
3
3
3
3
3
3
3
3
3
3
3
3
1.39057
3
3
3
3
3
3
3
3
3
3
3
3
3
3
3
3
3
2.99809
1.14227
3
3
3
3
3
3
3
3
3
3
3
3
3
3
3
3
3
2.94617
1.14218
3
3
3
3
3
3
3
3
3
3
3
3
3
3
3
3
3
2.78119
1.14154
3
3
3
3
3
3
3
3
3
3
3
3
3
3
3
3
3
2.70659
1.14154
3
3
3
3
3
3
3
3
3
3
3
3
3
3
3
3
3
2.76902
1.14154
3
3
3
3
3
3
3
3
3
3
3
3
3
3
3
3
3
2.93372
1.95922
3
3
3
3
3
3
3
3
3
3
3
3
3
3
3
3
3
2.99962
2.99019
3
3
3
3
3
3
3
3
3
3
3
3
3
3
3
3
3
3
3
3
3
3
3
3
3
3
3
3
3
3
3
3
3
3
3
3
3
3
3
3
3
3
3
3
3
3
3
3
3
3
3
3
3
3
3
3
3
3
3
3
3
3
3
3
3
3
3
3
3
3
3
3
3
3
3
3
)
;

boundaryField
{
    leftWall
    {
        type            calculated;
        value           nonuniform List<scalar> 
50
(
2
2
2
2
2
1.986
0.892496
1.62779e-10
2.88223e-10
6.25955e-10
1.22031e-09
2.21559e-09
2.09953e-09
0.449762
2.65489
3
3
3
3
3
3
3
3
3
3
3
3
3
3
3
3
3
3
3
3
3
3
3
3
3
3
3
3
3
3
3
3
3
3
3
)
;
    }
    rightWall
    {
        type            calculated;
        value           nonuniform List<scalar> 
50
(
1.29014
1.29014
1.29014
1.27115
1.06958
1
1
1
1
1
1
1
1
1
1
1
1
1
1
1
1
1.00139
1.00987
1.00939
1.00442
1.00435
1.02448
1.0765
1.13954
1.24855
1.53849
1.65931
1.54325
1.40155
1.40061
1.71944
2.91731
2.59564
1.39057
1.14227
1.14218
1.14154
1.14154
1.14154
1.95922
2.99019
3
3
3
3
)
;
    }
    lowerWall
    {
        type            calculated;
        value           nonuniform List<scalar> 
62
(
2
2
2
2
2
2
2
2
2
2
2
2
2
2
2
2
2
2
2
2
2
2
1.99987
1.99987
1.99991
1.99987
1.99938
1.99922
1.99922
1.99922
1.99986
1.99994
2.02352
1.89934
1.51141
1.0001
1.00007
1.00001
1
1
1
1
1
1.0001
1.00013
1.00013
1.00008
1.00001
1.00002
1.00002
1.00002
1
1
1
1
1
1.0002
1.00063
1.00062
1
1.22998
1.29014
)
;
    }
    atmosphere
    {
        type            calculated;
        value           nonuniform List<scalar> 
46
(
3
3
3
3
3
3
3
3
3
3
3
3
3
3
3
3
3
3
3
3
3
3
3
3
3
3
3
3
3
3
3
3
3
3
3
3
3
3
3
3
3
3
3
3
3
3
)
;
    }
    defaultFaces
    {
        type            empty;
    }
}


// ************************************************************************* //
