/*--------------------------------*- C++ -*----------------------------------*\
| =========                 |                                                 |
| \\      /  F ield         | OpenFOAM: The Open Source CFD Toolbox           |
|  \\    /   O peration     | Version:  2312                                  |
|   \\  /    A nd           | Website:  www.openfoam.com                      |
|    \\/     M anipulation  |                                                 |
\*---------------------------------------------------------------------------*/
FoamFile
{
    version     2.0;
    format      ascii;
    arch        "LSB;label=32;scalar=64";
    class       volScalarField;
    location    "0.4";
    object      alpha.water;
}
// * * * * * * * * * * * * * * * * * * * * * * * * * * * * * * * * * * * * * //

dimensions      [0 0 0 0 0 0 0];

internalField   nonuniform List<scalar> 
2268
(
1.24131e-12
1.20675e-12
1.1322e-12
1.12922e-12
1.17028e-12
1.32927e-12
1.56589e-12
1.98695e-12
2.50232e-12
3.13979e-12
3.6352e-12
3.91392e-12
4.06172e-12
4.49732e-12
5.74229e-12
9.87488e-12
1.82647e-11
4.5179e-11
8.89528e-11
1.16363e-10
1.3571e-10
2.15077e-10
2.49727e-10
1.26314e-11
1.3214e-11
1.29275e-11
1.31485e-11
1.3464e-11
1.44792e-11
1.61937e-11
1.88391e-11
2.20558e-11
2.50915e-11
2.78835e-11
3.00616e-11
3.19609e-11
3.35824e-11
3.49069e-11
3.81373e-11
5.7954e-11
2.06486e-10
3.61234e-10
2.68835e-10
4.44219e-10
5.29588e-09
1.50875e-09
5.4994e-11
5.6139e-11
5.32289e-11
5.27658e-11
5.18457e-11
5.58607e-11
5.93396e-11
6.48452e-11
6.98435e-11
7.15005e-11
7.2738e-11
7.42022e-11
7.61474e-11
7.95145e-11
8.38493e-11
8.76903e-11
8.34872e-11
1.30217e-10
6.94789e-10
2.87271e-09
2.65274e-09
1.79965e-08
1.50897e-09
1.68045e-10
1.76967e-10
1.7712e-10
1.70355e-10
1.63597e-10
1.87402e-10
1.83487e-10
1.77877e-10
1.67988e-10
1.11994e-10
9.69142e-11
8.74697e-11
8.25944e-11
8.26497e-11
7.81765e-11
7.77348e-11
6.08082e-11
2.25596e-11
5.84128e-09
8.68596e-09
5.28468e-09
3.40401e-08
7.26354e-08
1.31118e-09
1.29956e-09
1.53776e-09
1.53341e-09
1.498e-09
1.43764e-09
1.3435e-09
1.27087e-09
1.17684e-09
1.11846e-09
1.05041e-09
1.09265e-09
1.04893e-09
1.07752e-09
0.000120488
9.92793e-10
1.2553e-10
2.34791e-11
2.87541e-09
8.50831e-09
4.52747e-11
5.542e-08
1.13741e-07
0.00699897
0.00635312
0.00791213
0.0115716
0.0181291
0.0290724
0.0463456
0.0720246
0.107802
0.154296
0.210295
0.272096
0.332924
0.394303
0.426212
0.379864
0.251202
0.0402803
2.06012e-09
2.11627e-09
5.13673e-11
5.31134e-08
1.07904e-07
0.553752
0.547028
0.561863
0.590246
0.628883
0.67594
0.729127
0.785317
0.840858
0.89212
0.93608
0.970792
0.997903
1
1
0.999961
0.964419
0.772441
0.217613
2.08636e-09
2.00113e-08
6.5933e-08
6.66956e-08
1
1
1
1
1
1
1
1
1
1
1
1
1
1
1
1
1
1
0.864703
0.101668
2.08887e-08
1.59933e-07
6.7445e-08
1.54336e-11
1.84353e-11
2.23422e-11
2.72541e-11
3.62587e-11
4.81897e-11
5.80831e-11
8.3992e-11
1.32289e-10
1.65464e-10
1.51522e-10
8.94154e-11
3.23745e-11
9.49275e-12
5.04982e-12
2.77416e-12
6.4531e-13
3.64066e-14
2.07004e-15
1.6328e-11
2.90736e-11
4.69518e-11
6.7414e-11
9.12769e-11
1.20295e-10
1.61024e-10
2.26502e-10
2.68531e-10
2.77312e-10
3.02909e-10
3.11578e-10
1.9347e-10
5.81457e-11
1.5743e-11
5.19536e-12
1.22984e-12
8.00793e-14
2.09775e-15
1.86729e-11
4.90699e-11
8.86633e-11
1.26194e-10
1.74711e-10
2.20842e-10
2.55425e-10
2.54435e-10
1.66266e-10
1.01404e-10
1.63784e-10
3.03407e-10
3.6071e-10
2.06467e-10
4.92561e-11
1.16529e-11
3.40599e-12
3.43135e-13
6.72936e-15
2.19093e-11
7.49638e-11
1.34792e-10
1.79501e-10
2.16662e-10
2.31743e-10
2.31931e-10
1.49885e-10
2.55646e-11
7.01036e-12
8.10293e-12
9.63187e-12
4.09953e-10
4.03982e-10
1.82439e-10
3.60486e-11
7.25744e-12
1.88527e-12
7.83718e-14
2.56687e-11
8.89568e-11
1.62044e-10
2.00234e-10
2.00351e-10
1.54652e-10
1.10377e-10
6.31299e-11
4.55809e-11
3.11979e-12
2.62422e-12
7.12043e-09
3.10048e-09
8.88177e-10
3.20149e-10
9.47362e-11
1.5175e-11
3.33887e-12
3.26081e-13
2.83216e-11
9.34774e-11
1.77914e-10
1.98953e-10
1.30324e-10
6.97832e-11
7.11031e-11
1.10059e-09
1.66982e-10
2.88998e-12
1.74729e-07
1.09898e-07
1.71631e-08
3.27466e-10
3.91486e-10
1.56169e-10
2.59867e-11
8.62195e-12
1.22932e-12
3.23882e-11
8.5272e-11
1.73857e-10
1.75895e-10
1.58004e-10
5.1914e-10
2.00311e-10
2.03864e-09
1.45681e-10
1.2576e-06
1.16195e-06
1.92996e-07
4.16235e-14
2.89863e-10
3.38981e-10
2.32148e-10
5.90803e-11
1.1235e-11
1.35321e-12
3.25006e-11
6.29371e-11
1.26565e-10
7.43472e-10
1.476e-08
1.26844e-08
6.37051e-11
2.64603e-12
7.03933e-07
5.31218e-06
1.74897e-06
3.86852e-15
7.36465e-10
4.66116e-12
2.05642e-10
2.12089e-10
1.28845e-10
2.14901e-11
1.37723e-12
1
1
1
1
1
1
1
1
1
1
1
1
1
1
1
1
1
1
1
0.791703
0.117479
1.69772e-07
7.53241e-07
1
1
1
1
1
1
1
1
1
1
1
1
1
1
1
1
1
1
1
1
0.824705
0.226967
-1.48079e-09
1
1
1
1
1
1
1
1
1
1
1
1
1
1
1
1
1
1
1
1
0.999992
0.924799
0.520151
1
1
1
1
1
1
1
1
1
1
1
1
1
1
1
0.999943
0.999987
0.999995
0.999999
1
0.999999
0.999725
0.987899
1
1
1
1
1
1
1
1
1
1
1
1
1
0.999979
0.981755
0.939877
0.943748
0.989106
0.999999
1
1
1
0.999993
0.850079
0.855625
0.863339
0.874749
0.890114
0.909459
0.932547
0.958151
0.981955
0.996435
1
0.999942
0.972094
0.754516
0.420728
0.224536
0.165099
0.218437
0.383078
0.672136
0.984528
1
0.999999
0.115036
0.12067
0.128388
0.140793
0.159329
0.186525
0.227084
0.289886
0.384198
0.506943
0.626224
0.654257
0.386578
0.0236578
2.15441e-13
7.09846e-19
3.79107e-16
4.13786e-16
0.000129968
0.0349753
0.155146
0.337713
0.54197
9.68052e-13
2.3579e-23
9.43856e-24
9.65448e-26
-7.71259e-32
-7.36293e-15
2.81585e-25
4.82628e-17
4.72318e-17
2.12007e-16
0.0383165
0.0635403
-6.55817e-15
-4.17156e-13
8.72958e-08
2.25572e-17
1.45741e-07
1.47115e-08
2.20197e-13
1.73849e-13
0.000115786
0.000340022
0.0151314
4.58556e-12
1.85711e-11
1.12306e-11
1.195e-12
9.5838e-14
-2.13037e-28
6.67971e-09
8.96852e-08
1.4747e-07
4.46232e-08
1.29457e-10
1.98944e-10
1.94657e-05
6.7481e-05
5.54759e-06
8.50521e-07
2.5321e-06
8.73034e-07
1.63301e-07
7.87572e-08
3.97765e-10
4.04629e-10
1.92859e-17
1.09951e-11
5.24808e-11
7.61228e-11
1.05553e-11
1.25608e-13
2.22548e-15
8.56575e-12
3.21036e-07
7.29087e-07
1.0781e-06
1.34215e-06
1.33037e-06
3.6895e-05
9.60258e-05
3.43897e-05
5.51149e-06
2.98619e-06
1.88904e-06
7.75598e-07
5.1609e-07
2.30059e-07
1.07023e-07
4.84056e-08
1.46714e-11
7.44514e-11
1.17862e-10
3.16278e-11
7.94427e-13
6.99998e-10
6.07199e-08
1.27064e-07
3.03106e-07
5.74391e-07
8.94063e-07
1.07797e-06
5.58302e-06
9.36252e-05
7.73568e-05
1.49901e-05
1.06213e-07
6.60381e-07
7.45818e-07
5.05371e-07
3.48888e-07
2.39075e-07
1.44719e-07
1.44075e-11
7.58328e-11
1.28273e-10
4.91632e-11
4.94769e-12
1.09199e-11
1.80035e-10
3.70374e-13
3.62144e-13
3.6814e-13
1.69312e-11
-3.23608e-19
-1.30212e-14
2.55475e-23
-4.43101e-15
-5.15496e-17
6.2894e-08
5.29218e-09
1.08406e-11
1.24513e-12
9.50577e-19
1.00398e-08
5.28156e-08
1.0134e-11
6.00045e-11
1.19129e-10
4.71493e-11
4.75366e-12
1.2018e-11
2.37879e-11
5.87926e-11
1.37674e-10
2.24357e-10
1.92185e-10
5.0594e-11
1.09302e-11
1.74624e-12
7.13646e-13
7.82152e-14
-4.39438e-17
-8.56537e-31
4.78115e-37
4.56078e-25
6.01428e-19
5.45388e-19
9.20863e-19
6.19301e-12
3.88993e-11
8.4275e-11
3.47092e-11
3.33151e-12
9.90195e-12
3.03375e-11
8.54472e-11
2.41591e-10
3.9431e-10
3.14338e-10
9.42121e-11
1.84746e-11
3.50903e-12
6.6197e-13
1.33918e-13
8.61765e-15
1.10992e-16
3.22375e-18
2.64611e-18
8.92608e-18
1.87382e-17
5.46899e-16
2.44806e-12
1.86079e-11
4.45202e-11
1.9887e-11
2.06176e-12
6.58787e-12
2.39766e-11
6.84213e-11
2.09301e-10
3.58676e-10
2.21054e-10
6.09603e-11
7.77926e-12
1.60786e-12
9.92382e-14
2.06944e-15
1.27752e-17
2.77909e-19
2.55221e-19
3.27551e-18
1.93408e-17
5.49622e-17
1.70479e-15
8.66508e-13
7.3579e-12
1.79005e-11
8.12412e-12
1.0508e-12
3.09836e-12
1.27748e-11
3.56851e-11
9.1052e-11
1.76576e-10
8.08137e-11
1.78452e-11
2.69768e-12
5.97478e-14
1.00516e-16
7.05069e-21
-1.71323e-21
4.372e-21
6.39589e-19
5.21399e-18
2.29096e-17
7.59958e-17
1.69602e-15
1.95569e-13
1.71757e-12
4.65241e-12
2.04467e-12
3.62894e-13
1.30547e-12
2.78467e-12
1.1132e-11
2.83645e-11
4.73835e-11
1.39935e-11
1.21781e-12
1.05546e-14
3.02382e-18
4.02591e-37
-2.88972e-21
-6.23094e-22
1.06969e-20
8.06475e-19
4.71742e-18
1.30229e-17
3.05588e-17
4.9566e-17
2.1505e-14
2.07889e-13
5.17356e-13
2.59674e-13
7.46677e-14
2.72277e-13
7.71556e-13
2.07813e-12
4.35275e-12
5.33135e-12
5.19296e-13
8.55307e-16
1.24012e-20
-1.14898e-21
-9.14731e-22
-3.56726e-22
4.14788e-22
4.5943e-21
4.97409e-20
4.68784e-19
1.7653e-18
3.34215e-18
3.3681e-18
5.80031e-20
3.4048e-18
1.2169e-16
1.21635e-15
6.80917e-15
2.48289e-14
6.51092e-14
1.40642e-13
2.32204e-13
1.89622e-13
2.7726e-15
7.22242e-20
-1.38828e-22
-1.38621e-22
-8.40021e-23
-8.31175e-24
1.61087e-22
1.05333e-21
5.88504e-21
2.59577e-20
1.04442e-19
2.58823e-19
2.85032e-19
1.79768e-43
4.00031e-42
1.56545e-40
5.09697e-39
7.73611e-37
1.50295e-35
2.39255e-34
3.55504e-33
8.51548e-32
1.20733e-30
3.93739e-30
3.22478e-28
5.17142e-27
6.12751e-26
5.61918e-25
3.9012e-24
2.20226e-23
9.88252e-23
2.65652e-22
1.31959e-21
5.49852e-21
1.094e-20
1.18766e-20
1.70634e-43
1.50873e-41
7.03992e-40
2.29545e-38
5.93736e-37
1.27013e-35
2.38022e-34
4.34062e-33
7.33759e-32
9.55253e-31
1.05871e-29
9.64469e-29
7.15312e-28
4.2372e-27
2.21114e-26
9.82907e-26
3.49063e-25
1.21143e-24
4.4031e-24
5.19851e-23
1.95145e-22
3.30687e-22
4.14525e-22
5.99333e-44
5.93511e-42
3.08423e-40
1.11263e-38
3.10885e-37
6.89282e-36
1.32191e-34
2.19562e-33
3.20903e-32
4.09004e-31
3.91288e-30
3.12816e-29
2.04444e-28
1.16325e-27
5.74751e-27
2.44778e-26
8.11546e-26
3.55671e-25
1.31502e-24
3.17181e-24
6.64858e-24
1.54002e-23
1.89363e-23
1.26583e-44
1.40417e-42
8.08279e-41
3.10034e-39
8.89553e-38
1.96149e-36
3.76246e-35
6.06516e-34
8.58644e-33
9.08302e-32
9.78537e-31
8.3298e-30
5.23973e-29
2.77875e-28
1.23053e-27
4.32755e-27
1.30291e-26
3.39392e-26
8.21164e-26
2.47503e-25
7.48915e-25
1.22834e-24
1.61925e-24
2.28917e-45
2.80183e-43
1.72699e-41
7.06021e-40
2.1269e-38
4.87619e-37
8.73832e-36
1.41868e-34
2.10243e-33
2.13585e-32
2.23687e-31
1.69895e-30
1.06548e-29
5.28432e-29
2.21009e-28
7.86778e-28
2.36301e-27
6.06825e-27
1.37926e-26
3.15312e-26
1.07891e-25
1.91736e-25
2.38545e-25
2.31688e-46
2.94591e-44
1.87251e-42
7.77854e-41
2.34692e-39
5.43479e-38
1.02044e-36
1.6323e-35
2.18876e-34
2.54416e-33
2.41274e-32
1.86615e-31
1.18102e-30
6.0565e-30
2.61649e-29
9.5109e-29
2.93002e-28
7.84896e-28
1.90327e-27
4.20343e-27
1.16298e-26
2.77458e-26
4.2056e-26
8.9651e-48
1.20781e-45
7.96129e-44
3.43719e-42
1.09076e-40
2.69521e-39
5.342e-38
8.69653e-37
1.19701e-35
1.26938e-34
1.26115e-33
1.05668e-32
7.33905e-32
4.16103e-31
1.97887e-30
7.93752e-30
2.74405e-29
8.40898e-29
2.34622e-28
6.14586e-28
1.29144e-27
3.94575e-27
7.55344e-27
2.16969e-49
3.03133e-47
2.1052e-45
9.53266e-44
3.1485e-42
8.03124e-41
1.63441e-39
2.72288e-38
3.83777e-37
4.48085e-36
4.34047e-35
4.09812e-34
3.08339e-33
2.01486e-32
1.06904e-31
4.80668e-31
1.86111e-30
6.46696e-30
2.10529e-29
6.28782e-29
1.46046e-28
3.18934e-28
1.0463e-27
3.04526e-51
4.53087e-49
3.31905e-47
1.57446e-45
5.46526e-44
1.49142e-42
3.27311e-41
5.74563e-40
8.73229e-39
1.10784e-37
1.20434e-36
1.1245e-35
9.01126e-35
6.19679e-34
3.66636e-33
1.88115e-32
8.53314e-32
3.52361e-31
1.37821e-30
5.05796e-30
1.51835e-29
3.73989e-29
1.16279e-28
3.16458e-53
5.03645e-51
3.97582e-49
2.04477e-47
7.65328e-46
2.21805e-44
5.29215e-43
1.08249e-41
1.80262e-40
2.56272e-39
3.12408e-38
3.27621e-37
2.96187e-36
2.3095e-35
1.54653e-34
8.80838e-34
4.1615e-33
1.81623e-32
7.37554e-32
2.99974e-31
1.0301e-30
3.24908e-30
9.51435e-30
2.58767e-55
4.46155e-53
3.82492e-51
2.14595e-49
8.80484e-48
2.81491e-46
7.45567e-45
1.69102e-43
3.12039e-42
4.9041e-41
6.6039e-40
7.68569e-39
7.78993e-38
6.87042e-37
5.22125e-36
3.40854e-35
1.93697e-34
9.79619e-34
4.61578e-33
2.04161e-32
7.56704e-32
2.55762e-31
6.8893e-31
1.68756e-57
3.21592e-55
3.03872e-53
1.87762e-51
8.48864e-50
2.99866e-48
8.80632e-47
2.21158e-45
4.52564e-44
7.92224e-43
1.19944e-41
1.58458e-40
1.82463e-39
1.81845e-38
1.57208e-37
1.19191e-36
7.94598e-36
4.68098e-35
2.44323e-34
1.12211e-33
4.50108e-33
1.58464e-32
4.7511e-32
6.26876e-60
1.3801e-57
1.45444e-55
1.00217e-53
5.05679e-52
1.9996e-50
6.60014e-49
1.86662e-47
4.34179e-46
8.74457e-45
1.53528e-43
2.34002e-42
3.07109e-41
3.47783e-40
3.42976e-39
2.95419e-38
2.23502e-37
1.49578e-36
8.91314e-36
4.73712e-35
2.20995e-34
8.75315e-34
2.77901e-33
1.74537e-62
4.31667e-60
5.20649e-58
4.06979e-56
2.33387e-54
1.05347e-52
3.89265e-51
1.20826e-49
3.20433e-48
7.33621e-47
1.45806e-45
2.5213e-44
3.79564e-43
4.97432e-42
5.67208e-41
5.62442e-40
4.86303e-39
3.71238e-38
2.55288e-37
1.57725e-36
8.48384e-36
3.99734e-35
1.50552e-34
3.44513e-65
1.17646e-62
1.57788e-60
1.36775e-58
8.65528e-57
4.27918e-55
1.74206e-53
6.12017e-52
1.86874e-50
4.78232e-49
1.06944e-47
2.0952e-46
3.60096e-45
5.43763e-44
7.24228e-43
8.51253e-42
8.72157e-41
7.74892e-40
6.02045e-39
4.1295e-38
2.51086e-37
1.34742e-36
5.877e-36
7.35128e-68
2.6137e-65
4.26733e-63
4.46542e-61
3.40369e-59
2.02017e-57
9.76051e-56
3.97113e-54
1.37973e-52
4.08123e-51
1.04638e-49
2.33759e-48
4.57835e-47
7.92881e-46
1.2192e-44
1.64898e-43
1.95949e-42
2.11472e-41
2.18987e-40
1.99987e-39
1.67976e-38
1.29055e-37
7.06051e-37
6.4225e-71
3.81534e-68
8.08695e-66
1.03902e-63
9.66199e-62
6.98502e-60
4.09937e-58
2.01002e-56
8.402e-55
3.03699e-53
9.58286e-52
2.65443e-50
6.47247e-49
1.39047e-47
2.63029e-46
4.37293e-45
6.36365e-44
8.05344e-43
9.07325e-42
1.02236e-40
9.46881e-40
7.90239e-39
5.47059e-38
4.34316e-74
2.90809e-71
7.42333e-69
1.16217e-66
1.30986e-64
1.14824e-62
8.18105e-61
4.86673e-59
2.46042e-57
1.07046e-55
4.04442e-54
1.33542e-52
3.86989e-51
9.87239e-50
2.223e-48
4.42734e-47
7.76547e-46
1.17295e-44
1.56498e-43
2.38057e-42
2.76531e-41
2.87947e-40
2.6741e-39
7.31859e-78
1.17879e-74
4.19933e-72
8.44057e-70
1.19969e-67
1.31187e-65
1.15812e-63
8.50702e-62
5.30558e-60
2.84926e-58
1.33099e-56
5.44882e-55
1.96588e-53
6.27807e-52
1.7806e-50
4.49468e-49
1.00903e-47
1.99604e-46
3.37898e-45
4.86065e-44
7.68292e-43
9.08866e-42
9.1185e-41
6.88946e-82
1.66808e-78
7.97827e-76
2.11776e-73
3.8974e-71
5.46253e-69
6.14206e-67
5.72263e-65
4.51483e-63
3.06153e-61
1.80262e-59
9.2769e-58
4.1906e-56
1.66781e-54
5.88007e-53
1.85045e-51
5.20952e-50
1.28172e-48
2.74021e-47
6.90961e-46
1.23355e-44
2.16643e-43
2.886e-42
3.5201e-87
5.61997e-83
4.15201e-80
1.57896e-77
4.05165e-75
7.8108e-73
1.20148e-70
1.52888e-68
1.64636e-66
1.52431e-64
1.22727e-62
8.65943e-61
5.37838e-59
2.9434e-57
1.41512e-55
5.93169e-54
2.14447e-52
6.71357e-51
1.96771e-49
6.08909e-48
1.76326e-46
3.61874e-45
6.43046e-44
6.72791e-95
1.2657e-88
1.64222e-85
9.78499e-83
3.8337e-80
1.11889e-77
2.58457e-75
4.89295e-73
7.76147e-71
1.04734e-68
1.21587e-66
1.22574e-64
1.08256e-62
8.45372e-61
5.90865e-59
3.76955e-57
2.20808e-55
1.1837e-53
5.77571e-52
2.50968e-50
9.3977e-49
2.73977e-47
8.85852e-46
5.23579e-108
5.3876e-97
1.80756e-93
2.27335e-90
1.83366e-87
1.09291e-84
5.14416e-82
1.98641e-79
6.4416e-77
1.7725e-74
4.16192e-72
8.52624e-70
1.56362e-67
2.50642e-65
3.51033e-63
4.32601e-61
4.72819e-59
4.58266e-57
3.9348e-55
2.99588e-53
2.01221e-51
1.17712e-49
5.76599e-48
1.14103e-06
6.742e-07
1.67819e-07
1.17291e-07
-6.55026e-09
-4.13268e-19
-1.91289e-10
9.87797e-10
0.187807
0.00425262
0.000473291
0.000257026
0.945177
0.892135
0.806383
0.745239
0.999979
0.999992
0.999895
0.999976
0.999999
0.999999
0.999999
0.999998
0.708621
0.827735
0.932157
0.968169
0.0340098
0.0512058
0.0809802
0.098582
4.8917e-18
1.75211e-17
3.48345e-18
1.47914e-17
2.4217e-08
1.83691e-08
2.126e-08
2.42578e-08
1.02407e-07
7.71276e-08
7.16394e-08
7.34752e-08
7.30161e-08
4.91563e-08
4.0052e-08
5.99162e-08
1.6007e-28
2.64525e-19
1.25033e-31
2.64525e-19
5.90545e-16
4.41668e-16
1.47899e-16
3.17361e-15
1.48383e-15
1.07476e-15
4.64865e-16
6.99308e-14
2.87758e-16
4.66812e-16
4.07342e-16
2.46036e-16
3.49079e-17
2.55706e-17
1.66702e-17
1.01207e-17
2.65112e-18
1.73268e-18
1.03847e-18
8.82593e-19
1.68551e-19
1.14969e-19
8.00766e-20
6.60864e-20
8.56088e-21
6.0655e-21
4.48148e-21
3.72715e-21
3.43756e-22
2.78183e-22
2.49521e-22
2.05841e-22
1.83963e-23
1.61442e-23
1.43174e-23
1.28277e-23
1.59206e-24
1.44438e-24
1.38947e-24
1.21835e-24
2.41705e-25
2.25e-25
2.10908e-25
1.90678e-25
4.37656e-26
4.21164e-26
4.27576e-26
3.99016e-26
8.71748e-27
8.7398e-27
8.80015e-27
8.6754e-27
1.44654e-27
1.55854e-27
1.67329e-27
1.67593e-27
2.28339e-28
2.65109e-28
2.97582e-28
3.11783e-28
2.70376e-29
3.69989e-29
4.69389e-29
5.1818e-29
2.48851e-30
4.32553e-30
6.03644e-30
7.6671e-30
1.2987e-31
3.62525e-31
6.43014e-31
9.16726e-31
7.49435e-33
2.33708e-32
5.5746e-32
1.00308e-31
4.69614e-34
8.57847e-34
3.48266e-33
8.51261e-33
2.37536e-35
5.30831e-35
1.17916e-34
5.34382e-34
3.0457e-36
6.26942e-36
1.16019e-35
2.16868e-35
3.28074e-37
8.96263e-37
2.19268e-36
4.75964e-36
1.93503e-38
6.72318e-38
2.16359e-37
5.89515e-37
8.92167e-40
3.83402e-39
1.40804e-38
4.56011e-38
3.31667e-41
1.67219e-40
7.42787e-40
2.86003e-39
9.67451e-43
6.17122e-42
3.43527e-41
1.66165e-40
1.93264e-44
1.69783e-43
1.27494e-42
7.71076e-42
2.09235e-46
2.96012e-45
3.44994e-44
3.20094e-43
1.84963e-09
5.12538e-11
5.16428e-11
5.84749e-08
5.37067e-08
2.47781e-08
1.12657e-06
1.48388e-05
1.54925e-05
7.08561e-06
8.10992e-07
5.0569e-09
4.81503e-08
4.49191e-08
2.4435e-08
4.34154e-09
1.85255e-11
1.84375e-11
3.6651e-12
1.13766e-05
0.00015258
-8.36192e-21
-1.31891e-11
-1.23619e-10
-8.73977e-11
1.25048e-05
0.000261618
5.38687e-05
2.38175e-08
4.02466e-07
6.17344e-07
3.38177e-07
1.42438e-07
3.52306e-08
2.13548e-10
2.95919e-11
2.15373e-11
3.50252e-12
0.0138195
0.0095861
0.0136978
0.0250477
0.0784253
0.118801
0.0494229
0.00287314
2.41974e-08
2.4435e-08
3.33433e-07
6.09511e-07
5.72988e-07
4.50253e-08
5.0366e-09
5.69206e-10
5.88297e-11
2.14148e-11
2.99875e-12
0.694137
0.567094
0.391214
0.401529
0.450508
0.540421
0.353049
0.0111244
5.37638e-07
4.34114e-08
8.27436e-11
2.71902e-08
1.60168e-07
8.937e-08
1.95588e-09
2.6733e-10
5.35213e-11
1.71111e-11
2.72562e-12
0.994488
0.994756
0.999982
0.997156
0.997001
0.995815
0.606016
0.0148984
9.64644e-10
7.00508e-11
9.32119e-11
3.98471e-12
2.05916e-12
2.67149e-08
3.54354e-10
1.04974e-10
3.47528e-11
1.13293e-11
2.4989e-12
0.999998
0.999998
0.999998
0.999973
0.991713
0.857425
0.479762
0.01844
0.000682961
7.197e-11
1.3363e-09
7.5939e-10
1.86985e-10
3.06903e-11
9.60318e-11
3.36014e-11
1.81483e-11
7.87818e-12
2.32191e-12
0.948501
0.91362
0.860324
0.716664
0.455114
0.0789127
0.00915579
0.00209875
4.54158e-09
5.13359e-09
4.31624e-09
7.40276e-10
1.5382e-10
2.9223e-11
1.90527e-11
1.28175e-11
8.23951e-12
6.0147e-12
2.13156e-12
0.109467
0.135508
0.102459
0.0352783
1.80561e-12
1.4879e-12
1.64149e-12
1.4879e-12
4.11905e-09
6.52063e-09
3.1985e-09
1.73074e-10
9.88381e-11
3.28288e-11
8.69114e-12
3.36276e-12
4.48477e-12
4.68069e-12
1.94454e-12
1.96257e-19
1.38069e-17
1.8879e-19
1.3802e-17
3.7284e-10
3.63691e-10
1.63178e-10
5.07149e-11
2.88354e-13
2.99557e-13
2.99529e-13
8.63407e-12
4.41249e-11
3.43857e-11
6.18597e-12
1.49128e-12
3.42285e-12
3.73361e-12
1.79335e-12
1.67605e-08
7.90926e-09
4.65857e-09
2.57458e-09
1.1932e-09
6.44347e-10
1.45474e-10
4.83324e-11
8.86075e-12
3.06677e-13
4.71174e-13
3.33799e-12
1.86615e-11
3.35636e-11
6.32262e-12
1.09825e-12
1.90355e-12
2.98217e-12
1.64589e-12
4.88847e-08
2.19038e-08
8.49865e-09
3.42009e-09
1.2947e-09
1.67342e-10
3.90276e-11
4.19782e-12
1.22655e-14
6.42851e-14
2.93997e-13
1.91979e-12
9.56338e-12
2.95474e-11
8.83401e-12
1.57012e-12
7.58247e-13
2.34572e-12
1.39241e-12
5.58168e-08
2.0881e-08
3.932e-09
4.71721e-10
4.07669e-11
4.88575e-12
6.19527e-14
1.23574e-16
1.71506e-15
1.56883e-14
9.10235e-14
9.43818e-13
4.69286e-12
2.00872e-11
9.12563e-12
2.12792e-12
3.22392e-13
1.82179e-12
1.19589e-12
6.01908e-09
2.38106e-09
2.33829e-12
1.97451e-19
2.58877e-19
7.60302e-21
1.69315e-19
4.02685e-18
6.50057e-17
5.97166e-16
7.3094e-15
2.31429e-13
2.30418e-12
1.24786e-11
7.52773e-12
2.0151e-12
2.3651e-13
1.24224e-12
1.09472e-12
-9.21389e-18
-1.92924e-20
3.99177e-13
8.66702e-18
5.56374e-18
2.84429e-20
2.9724e-21
3.4204e-20
5.27754e-19
4.97444e-18
6.92183e-17
9.57812e-15
8.12239e-13
7.63022e-12
5.19669e-12
1.634e-12
1.66148e-13
7.74824e-13
9.52342e-13
1.94201e-14
6.45252e-17
5.6479e-17
3.45461e-18
5.67841e-19
1.84212e-21
1.52826e-21
5.42979e-21
3.14748e-20
1.8456e-19
1.48406e-17
4.96135e-16
2.25985e-13
3.7639e-12
2.91202e-12
1.2323e-12
1.24802e-13
5.0389e-13
7.67475e-13
1.03533e-16
2.08835e-17
3.71157e-18
4.23364e-19
4.81863e-20
4.01119e-22
1.06906e-21
4.00519e-21
1.94733e-20
1.95252e-19
1.42325e-17
3.96197e-16
1.29949e-14
8.26753e-13
1.57036e-12
6.88901e-13
8.70186e-14
3.33885e-13
5.86083e-13
6.99302e-18
2.64437e-18
4.25903e-19
4.48723e-20
3.07626e-21
1.85021e-22
5.41963e-22
1.61095e-21
4.79984e-21
1.23235e-20
7.67791e-19
1.94241e-17
6.25589e-17
2.42419e-14
8.18648e-13
2.98813e-13
6.61124e-14
2.1469e-13
4.70102e-13
7.01698e-19
2.0006e-19
3.80953e-20
4.45288e-21
2.39427e-22
8.7086e-23
2.77312e-22
8.61046e-22
2.43031e-21
6.43469e-21
2.03846e-20
1.12642e-19
3.19309e-19
1.20858e-15
2.85107e-13
1.83361e-13
4.5087e-14
1.0447e-13
3.98922e-13
4.88898e-20
1.50943e-20
3.15114e-21
4.18016e-22
2.80678e-23
4.24413e-23
1.4476e-22
4.84456e-22
1.61545e-21
4.8432e-21
2.08416e-20
6.17732e-20
1.40246e-19
5.80534e-17
7.7568e-14
1.05899e-13
2.99785e-14
2.60782e-14
3.28013e-13
2.70562e-21
1.10145e-21
2.33892e-22
4.12319e-23
8.08862e-24
2.52898e-23
8.99372e-23
3.2956e-22
1.20108e-21
3.83648e-21
2.1306e-20
8.82786e-20
2.31935e-19
1.74716e-18
2.66589e-15
6.04969e-14
2.41585e-14
5.19017e-15
2.56486e-13
1.62414e-22
7.12219e-23
1.82557e-23
4.94099e-24
3.81949e-24
1.63761e-23
6.44768e-23
2.45597e-22
8.98325e-22
3.15119e-21
1.29208e-20
7.93967e-20
3.00484e-19
9.31413e-19
1.12794e-17
3.84889e-14
1.82481e-14
3.99162e-15
1.92479e-13
1.0175e-23
5.32423e-24
1.82373e-24
7.45621e-25
1.28257e-24
5.43935e-24
2.2426e-23
8.42641e-23
2.85118e-22
9.27491e-22
3.73972e-21
2.43591e-20
1.80371e-19
8.55556e-19
4.4472e-18
2.14081e-14
1.42173e-14
3.73878e-15
1.39306e-13
1.05253e-24
5.50879e-25
2.72673e-25
1.73315e-25
4.22502e-25
1.9198e-24
8.76661e-24
3.64791e-23
1.32482e-22
4.88417e-22
2.21219e-21
8.5965e-21
3.60941e-20
3.01098e-19
5.02072e-18
1.16392e-14
8.89745e-15
2.9931e-15
9.71256e-14
1.61477e-25
1.03009e-25
5.94701e-26
5.15102e-26
1.69089e-25
8.88524e-25
4.51141e-24
2.03366e-23
7.88448e-23
3.09666e-22
1.73569e-21
8.28287e-21
5.05177e-20
4.96763e-19
4.7344e-18
5.47369e-15
5.6052e-15
2.33384e-15
6.41273e-14
3.61615e-26
2.40936e-26
1.57096e-26
1.89963e-26
9.13129e-26
6.04074e-25
3.66839e-24
1.87019e-23
9.76281e-23
4.66076e-22
1.71288e-21
6.66104e-21
3.22427e-20
2.19501e-19
4.59753e-18
1.40911e-15
2.99828e-15
1.65135e-15
3.95962e-14
7.90205e-27
5.93933e-27
4.12045e-27
6.34403e-27
3.86794e-26
2.90511e-25
1.91242e-24
1.05865e-23
6.34334e-23
3.00764e-22
1.22296e-21
4.3494e-21
1.64401e-20
6.84258e-20
1.0204e-18
9.93929e-17
1.46876e-15
1.16844e-15
2.87621e-14
1.6334e-27
1.36021e-27
1.00223e-27
1.49919e-27
9.83423e-27
8.20446e-26
6.03575e-25
5.0032e-24
3.11493e-23
1.82181e-22
8.70202e-22
3.96312e-21
1.35706e-20
5.03482e-20
3.47052e-19
1.5417e-18
5.91952e-16
8.39952e-16
2.43573e-14
3.09811e-28
2.87159e-28
2.81935e-28
1.12371e-27
1.18038e-26
1.19176e-25
1.03369e-24
7.60081e-24
4.72058e-23
2.47759e-22
1.01448e-21
4.00838e-21
1.40058e-20
4.01649e-20
1.27477e-19
1.19237e-18
1.62839e-16
5.03119e-16
1.9357e-14
5.44231e-29
5.44496e-29
6.20501e-29
3.12268e-28
3.75849e-27
4.30978e-26
4.32703e-25
3.79415e-24
2.86045e-23
1.75862e-22
7.85005e-22
3.84776e-21
1.47022e-20
4.21475e-20
1.90248e-19
9.59313e-19
2.96308e-17
3.02252e-16
1.38402e-14
8.78376e-30
9.47996e-30
1.09318e-29
4.69826e-29
5.88554e-28
7.54201e-27
8.8634e-26
9.31348e-25
8.2455e-24
5.2983e-23
4.73274e-22
2.78029e-21
1.31455e-20
4.5996e-20
1.62357e-19
5.66799e-19
1.93337e-17
2.33205e-16
9.32587e-15
1.25734e-30
1.54566e-30
1.9472e-30
9.79946e-30
1.5076e-28
2.2882e-27
2.98059e-26
3.18341e-25
2.36525e-24
2.20911e-23
1.37777e-22
8.24289e-22
4.30815e-21
1.61832e-20
7.71663e-20
4.8854e-19
1.86182e-17
2.67002e-16
5.75875e-15
1.64775e-31
2.34888e-31
2.91388e-31
9.98444e-31
1.48516e-29
2.48155e-28
3.63716e-27
4.46556e-26
3.83111e-25
5.18247e-24
4.43212e-23
3.3329e-22
2.28179e-21
1.49383e-20
5.24019e-20
2.58209e-19
1.11412e-17
2.60643e-16
2.65094e-15
1.91353e-32
3.27773e-32
4.46393e-32
1.31176e-31
2.03201e-30
3.97101e-29
7.04334e-28
1.07443e-26
1.12737e-25
2.37644e-24
2.72761e-23
2.49764e-22
1.66993e-21
9.37121e-21
5.50212e-20
2.02335e-19
2.47122e-18
1.89827e-16
1.10346e-15
1.94667e-33
4.15784e-33
6.48534e-33
1.64453e-32
2.56128e-31
5.88133e-30
1.20059e-28
1.62289e-27
5.26528e-26
8.52527e-25
1.25781e-23
1.49093e-22
1.05553e-21
5.43715e-21
2.80944e-20
1.03049e-19
1.34921e-18
9.89685e-17
7.4091e-16
1.60606e-34
4.81239e-34
8.87912e-34
1.87543e-33
2.28399e-32
5.43299e-31
1.24111e-29
2.49555e-28
3.27605e-27
1.11394e-25
1.85886e-24
2.82844e-23
3.8218e-22
4.58823e-21
5.00845e-20
3.26506e-19
1.07998e-18
5.36216e-17
6.2683e-16
9.33928e-36
5.10903e-35
1.14528e-34
2.13109e-34
1.68332e-33
4.49271e-32
1.36634e-30
3.71558e-29
8.85882e-28
1.69677e-26
2.05395e-25
6.3961e-24
1.26096e-22
2.35103e-21
2.88082e-20
2.13343e-19
1.16168e-18
3.49127e-17
4.48944e-16
1.4055e-36
4.86869e-36
1.33049e-35
2.64641e-35
1.39729e-34
3.61852e-33
1.22981e-31
4.22035e-30
1.28572e-28
3.12816e-27
4.63135e-26
1.79441e-24
3.63528e-23
7.86751e-22
1.37541e-20
1.40003e-19
7.055e-19
1.8559e-17
1.8245e-16
1.27266e-37
5.1998e-37
1.51518e-36
3.3277e-36
1.17938e-35
2.72343e-34
9.43326e-33
3.28037e-31
1.09893e-29
3.14925e-28
5.54045e-27
2.59394e-25
5.32595e-24
1.2042e-22
2.90239e-21
4.98243e-20
3.69946e-19
4.0736e-18
2.51367e-17
9.38886e-39
4.69974e-38
1.6299e-37
4.16844e-37
1.06083e-36
1.64962e-35
6.06255e-34
2.22296e-32
7.87103e-31
2.65202e-29
7.79995e-28
1.81258e-26
3.59292e-25
4.43004e-24
2.09896e-22
2.12704e-21
4.15441e-20
3.37005e-19
1.17886e-18
6.7303e-40
4.10354e-39
1.72503e-38
5.21975e-38
1.13168e-37
8.73385e-37
3.16634e-35
1.24426e-33
4.64162e-32
1.64312e-30
5.39802e-29
1.52703e-27
3.47093e-26
5.40213e-25
5.25907e-24
1.74996e-22
1.1919e-21
1.50504e-20
2.31735e-19
4.21704e-41
3.26165e-40
1.7137e-39
6.06449e-39
1.29422e-38
4.64994e-38
1.37279e-36
5.77055e-35
2.28851e-33
8.50046e-32
2.92849e-30
8.96997e-29
2.25724e-27
4.19952e-26
5.36053e-25
1.08648e-23
1.30458e-22
1.5519e-21
5.90227e-21
2.35301e-42
2.47703e-41
1.68153e-40
6.96813e-40
1.58543e-39
3.31964e-39
5.10869e-38
2.23001e-36
9.38546e-35
3.66895e-33
1.30763e-31
3.83679e-30
1.10306e-28
2.42396e-27
3.91763e-26
6.41909e-25
9.04327e-24
1.33148e-22
7.14885e-22
)
;

boundaryField
{
    leftWall
    {
        type            zeroGradient;
    }
    rightWall
    {
        type            zeroGradient;
    }
    lowerWall
    {
        type            zeroGradient;
    }
    atmosphere
    {
        type            inletOutlet;
        inletValue      uniform 0;
        value           nonuniform List<scalar> 
46
(
0
0
0
0
0
0
0
0
0
0
0
0
0
0
0
0
0
0
0
0
0
0
0
0
0
0
0
0
0
1.68153e-40
6.96813e-40
1.58543e-39
3.31964e-39
5.10869e-38
2.23001e-36
9.38546e-35
3.66895e-33
1.30763e-31
3.83679e-30
1.10306e-28
2.42396e-27
3.91763e-26
6.41909e-25
9.04327e-24
1.33148e-22
7.14885e-22
)
;
    }
    defaultFaces
    {
        type            empty;
    }
}


// ************************************************************************* //
