/*--------------------------------*- C++ -*----------------------------------*\
| =========                 |                                                 |
| \\      /  F ield         | OpenFOAM: The Open Source CFD Toolbox           |
|  \\    /   O peration     | Version:  2312                                  |
|   \\  /    A nd           | Website:  www.openfoam.com                      |
|    \\/     M anipulation  |                                                 |
\*---------------------------------------------------------------------------*/
FoamFile
{
    version     2.0;
    format      ascii;
    arch        "LSB;label=32;scalar=64";
    class       volScalarField;
    location    "0.4";
    object      alpha.water_0;
}
// * * * * * * * * * * * * * * * * * * * * * * * * * * * * * * * * * * * * * //

dimensions      [0 0 0 0 0 0 0];

internalField   nonuniform List<scalar> 
2268
(
1.15881e-12
1.1194e-12
1.04616e-12
1.04255e-12
1.08302e-12
1.2411e-12
1.47244e-12
1.89051e-12
2.39822e-12
3.03657e-12
3.51951e-12
3.78758e-12
3.94251e-12
4.44156e-12
5.824e-12
1.02814e-11
1.90637e-11
4.76346e-11
9.24921e-11
1.18156e-10
1.37356e-10
2.18208e-10
2.50445e-10
1.20127e-11
1.25948e-11
1.23429e-11
1.25825e-11
1.29223e-11
1.39277e-11
1.56607e-11
1.83327e-11
2.15907e-11
2.46758e-11
2.75251e-11
2.99098e-11
3.17972e-11
3.34386e-11
3.48893e-11
3.85006e-11
6.20834e-11
2.19695e-10
3.80795e-10
2.86617e-10
4.95948e-10
5.57045e-09
1.50496e-09
5.2918e-11
5.38944e-11
5.09632e-11
5.06809e-11
4.98652e-11
5.35672e-11
5.72244e-11
6.31127e-11
6.84533e-11
7.06354e-11
7.2217e-11
7.37835e-11
7.60351e-11
7.98195e-11
8.47144e-11
8.81701e-11
8.33635e-11
1.32669e-10
8.32771e-10
3.07336e-09
2.7241e-09
1.93004e-08
1.5038e-09
1.31961e-10
1.41332e-10
1.35722e-10
1.29334e-10
1.24221e-10
1.52305e-10
1.50612e-10
1.47699e-10
1.4033e-10
1.2563e-10
1.09882e-10
9.977e-11
9.26777e-11
9.0347e-11
7.94258e-11
7.93165e-11
5.98367e-11
4.58615e-11
6.49068e-09
9.29958e-09
5.45658e-09
3.61299e-08
7.70161e-08
1.53235e-09
1.58056e-09
1.62422e-09
1.55726e-09
1.43522e-09
1.32558e-09
1.18624e-09
1.06128e-09
9.3809e-10
8.48359e-10
7.55626e-10
7.39042e-10
6.791e-10
6.5849e-10
2.7635e-05
5.37207e-10
4.61045e-11
2.16235e-11
2.97413e-09
8.68803e-09
9.43219e-11
5.83534e-08
1.18482e-07
0.00331868
0.00293204
0.00397085
0.00658901
0.0116544
0.0206906
0.0357438
0.059093
0.0927148
0.137533
0.192598
0.254424
0.316451
0.376447
0.413326
0.372256
0.252354
0.0451643
1.94779e-09
1.99961e-09
1.00163e-10
5.64412e-08
1.02347e-07
0.509372
0.502777
0.51864
0.549023
0.590465
0.641074
0.698471
0.759342
0.819753
0.87574
0.923952
0.962239
0.99152
1
1
1
0.965643
0.781799
0.23278
1.97177e-09
2.50725e-08
6.89234e-08
6.96641e-08
1
1
1
1
1
1
1
1
1
1
1
1
1
1
1
1
1
1
0.880329
0.111708
2.62009e-08
2.03746e-07
7.04083e-08
1.52697e-11
1.80664e-11
2.21699e-11
2.64541e-11
3.47529e-11
4.61438e-11
5.56144e-11
7.90884e-11
1.23256e-10
1.55921e-10
1.33401e-10
6.8922e-11
2.51448e-11
8.18539e-12
4.74255e-12
2.55561e-12
5.45705e-13
3.07806e-14
1.97234e-15
1.62156e-11
2.89817e-11
4.65925e-11
6.66061e-11
8.95955e-11
1.14087e-10
1.56659e-10
2.19884e-10
2.6821e-10
2.91146e-10
3.1346e-10
3.04788e-10
1.57157e-10
4.60876e-11
1.42347e-11
4.88942e-12
1.10821e-12
6.92584e-14
1.99442e-15
1.86121e-11
4.90486e-11
8.87837e-11
1.25234e-10
1.71925e-10
2.16448e-10
2.55194e-10
2.59983e-10
1.85101e-10
1.34805e-10
2.27858e-10
3.59826e-10
3.60008e-10
1.70229e-10
3.83901e-11
1.09825e-11
3.30261e-12
3.17305e-13
6.22829e-15
2.19795e-11
7.44781e-11
1.35703e-10
1.7906e-10
2.15497e-10
2.31834e-10
2.34646e-10
1.60608e-10
2.6638e-11
1.06221e-11
1.63756e-11
1.69602e-10
4.74506e-10
4.05491e-10
1.49281e-10
2.70068e-11
7.31194e-12
1.777e-12
7.3588e-14
2.56492e-11
9.02135e-11
1.62423e-10
2.00547e-10
2.00574e-10
1.57053e-10
1.14255e-10
4.11125e-11
1.82583e-11
2.10491e-12
2.03506e-12
1.4102e-09
1.51857e-09
7.27079e-10
3.14835e-10
7.96028e-11
1.25841e-11
2.90241e-12
2.67343e-13
2.90688e-11
9.46244e-11
1.78921e-10
1.98906e-10
1.28266e-10
6.62191e-11
6.6305e-11
8.94563e-10
8.55935e-11
2.40006e-12
9.42089e-08
6.6476e-08
1.22761e-08
6.55218e-10
4.01953e-10
1.36161e-10
2.55546e-11
8.12097e-12
1.07887e-12
3.28271e-11
8.64581e-11
1.75318e-10
1.76934e-10
1.3259e-10
3.27298e-10
1.69535e-10
3.05676e-09
5.40131e-11
8.34674e-07
7.89468e-07
1.37672e-07
2.50809e-10
3.41043e-10
3.44898e-10
2.23422e-10
5.75682e-11
8.40405e-12
1.08069e-12
3.24442e-11
6.89425e-11
1.33019e-10
4.23257e-10
1.34414e-08
1.04776e-08
1.64739e-10
9.13373e-11
1.35576e-06
4.53917e-06
1.29199e-06
-1.69441e-15
1.84345e-10
2.41637e-10
2.35017e-10
2.31194e-10
1.24776e-10
1.88472e-11
1.34623e-12
1
1
1
1
1
1
1
1
1
1
1
1
1
1
1
1
1
1
1
0.809337
0.128282
2.16976e-07
8.56719e-07
1
1
1
1
1
1
1
1
1
1
1
1
1
1
1
1
1
1
1
0.999999
0.838686
0.2388
-1.90014e-09
1
1
1
1
1
1
1
1
1
1
1
1
1
1
1
1
1
1
1
1
0.999992
0.930276
0.523576
1
1
1
1
1
1
1
1
1
1
1
1
1
1
1
0.999951
0.999989
0.999996
0.999999
1
0.999999
0.999715
0.988276
1
1
1
1
1
1
1
1
1
1
1
1
1
0.999998
0.983626
0.943412
0.944736
0.988869
0.999999
1
1
1
0.999997
0.877749
0.882574
0.889143
0.898824
0.911842
0.928199
0.947623
0.968897
0.988022
0.9984
1
1
0.977926
0.766616
0.432931
0.232771
0.169094
0.221007
0.385687
0.677747
0.987246
1
0.999999
0.143621
0.149583
0.157597
0.170408
0.189504
0.217452
0.259003
0.323
0.418039
0.540501
0.653457
0.679634
0.411255
0.031752
5.50275e-14
6.02283e-20
2.08515e-16
2.19075e-16
0.000283559
0.0360429
0.157933
0.347201
0.561422
7.52034e-13
2.34105e-13
6.21902e-24
8.28828e-26
-7.7126e-32
-6.68188e-15
-1.03771e-14
3.96747e-17
-2.22291e-25
2.14649e-20
0.0480431
0.0787146
3.01822e-23
-3.65784e-13
1.0267e-07
3.29861e-18
1.12303e-07
1.19526e-08
8.78063e-14
7.08795e-14
0.000109158
0.000556916
0.0175942
4.17137e-12
1.71282e-11
9.61134e-12
1.16429e-12
1.09945e-13
5.44936e-25
3.83068e-09
6.74957e-08
1.32464e-07
9.69295e-09
4.33695e-24
5.95276e-11
1.81723e-05
6.78121e-05
6.06444e-06
7.09092e-07
2.46398e-06
8.47182e-07
1.53781e-07
6.73624e-08
3.58554e-10
3.67909e-10
2.28486e-17
1.05234e-11
5.08347e-11
7.51682e-11
1.08678e-11
1.40262e-13
2.70224e-16
1.49105e-16
3.14477e-07
6.97597e-07
1.01269e-06
1.38096e-06
1.36969e-06
3.79632e-05
9.72008e-05
3.41818e-05
5.2921e-06
3.13616e-06
1.88993e-06
7.61731e-07
5.10382e-07
2.18137e-07
9.7778e-08
4.24411e-08
1.43252e-11
7.37942e-11
1.18209e-10
3.2058e-11
1.53496e-12
-8.41751e-17
6.02227e-08
1.44624e-07
3.53512e-07
6.37911e-07
1.00195e-06
1.21274e-06
6.45241e-06
9.57102e-05
7.67264e-05
1.42113e-05
3.91936e-07
8.15693e-07
7.9796e-07
5.22038e-07
3.56805e-07
2.37551e-07
1.39817e-07
1.43461e-11
7.6115e-11
1.2899e-10
4.9131e-11
4.93959e-12
5.78267e-12
2.09972e-10
4.13677e-13
4.17033e-13
4.03585e-13
4.10175e-13
1.26979e-28
-9.6789e-20
7.05497e-23
5.01337e-31
-8.55757e-16
7.61091e-08
1.93766e-21
2.81693e-34
1.47515e-21
5.7669e-27
2.21824e-08
6.46354e-08
1.0192e-11
6.06774e-11
1.20311e-10
4.73421e-11
4.69314e-12
1.23082e-11
2.45636e-11
5.98179e-11
1.36783e-10
2.13164e-10
1.83303e-10
4.47261e-11
9.8872e-12
1.43606e-12
6.63916e-13
6.0873e-14
3.69245e-20
1.42991e-18
1.03975e-19
1.30747e-19
3.72747e-19
3.20983e-19
7.92821e-19
6.32247e-12
3.96993e-11
8.57428e-11
3.49109e-11
3.2752e-12
1.01415e-11
3.18034e-11
8.96154e-11
2.47768e-10
4.01954e-10
3.13031e-10
9.11695e-11
1.73536e-11
3.20837e-12
6.53067e-13
1.35055e-13
7.62114e-15
8.79313e-17
2.11752e-18
2.59926e-18
8.80621e-18
1.82942e-17
5.08252e-16
2.50982e-12
1.90718e-11
4.56044e-11
2.01462e-11
2.03899e-12
6.78532e-12
2.48162e-11
7.23596e-11
2.21373e-10
3.722e-10
2.30356e-10
6.03926e-11
8.05656e-12
1.65891e-12
1.02827e-13
2.14026e-15
1.18198e-17
3.1982e-19
2.23603e-19
3.33584e-18
1.99437e-17
5.48506e-17
1.76287e-15
8.93348e-13
7.60154e-12
1.84724e-11
8.30156e-12
1.05753e-12
3.22532e-12
1.3324e-11
3.73382e-11
9.5792e-11
1.86477e-10
8.33274e-11
1.85331e-11
2.7091e-12
5.72704e-14
9.31438e-17
6.02696e-21
-1.95711e-21
4.11344e-21
6.46888e-19
5.34134e-18
2.35475e-17
7.64609e-17
1.79359e-15
2.01857e-13
1.78487e-12
4.83813e-12
2.10592e-12
3.7161e-13
1.36142e-12
2.9987e-12
1.17015e-11
2.99886e-11
5.02645e-11
1.44043e-11
1.27856e-12
1.01436e-14
2.48578e-18
-2.58928e-37
-3.1092e-21
-6.92937e-22
1.04468e-20
8.17981e-19
4.86094e-18
1.37178e-17
3.08345e-17
5.32322e-17
2.32291e-14
2.17368e-13
5.41119e-13
2.70042e-13
7.74234e-14
2.85297e-13
8.14164e-13
2.18951e-12
4.60866e-12
5.65262e-12
5.09457e-13
6.86397e-16
8.74956e-21
-1.24344e-21
-9.80552e-22
-3.89995e-22
3.68362e-22
4.85357e-21
5.15733e-20
4.66742e-19
1.75621e-18
3.60509e-18
3.62941e-18
6.04687e-20
3.56221e-18
1.27417e-16
1.27499e-15
7.14789e-15
2.61102e-14
6.8605e-14
1.48532e-13
2.45731e-13
2.00527e-13
2.40511e-15
3.26281e-20
-1.4838e-22
-1.48931e-22
-9.10675e-23
-1.2268e-23
1.54227e-22
1.0231e-21
5.79331e-21
2.7547e-20
1.06044e-19
2.65789e-19
2.99691e-19
1.80034e-43
3.47881e-42
1.30801e-40
4.25215e-39
7.83223e-37
1.51684e-35
2.3975e-34
3.51987e-33
8.59143e-32
1.2224e-30
2.66357e-30
3.09235e-28
4.94227e-27
5.82903e-26
5.37068e-25
3.70857e-24
2.23938e-23
9.92459e-23
2.55732e-22
1.29695e-21
5.40526e-21
1.16978e-20
1.24146e-20
1.75353e-43
1.55079e-41
7.22362e-40
2.35133e-38
6.07423e-37
1.29905e-35
2.43443e-34
4.42465e-33
7.54296e-32
9.50973e-31
1.04676e-29
9.48091e-29
7.02455e-28
4.12959e-27
2.15027e-26
9.60391e-26
3.55771e-25
1.15269e-24
4.13686e-24
4.99121e-23
1.96577e-22
3.35634e-22
4.30753e-22
6.18704e-44
6.12593e-42
3.17825e-40
1.14409e-38
3.18726e-37
7.03161e-36
1.33895e-34
2.20192e-33
3.31816e-32
4.0139e-31
3.85399e-30
3.06754e-29
1.99369e-28
1.13081e-27
5.58522e-27
2.40524e-26
8.29193e-26
3.5479e-25
1.28341e-24
3.16439e-24
6.61022e-24
1.61818e-23
1.952e-23
1.28376e-44
1.42221e-42
8.17281e-41
3.12707e-39
8.95055e-38
1.96059e-36
3.74292e-35
5.9823e-34
8.44487e-33
9.68773e-32
9.42339e-31
8.14335e-30
5.11691e-29
2.71941e-28
1.21451e-27
4.28414e-27
1.29482e-26
3.36582e-26
8.37788e-26
2.42577e-25
7.54289e-25
1.23449e-24
1.66389e-24
2.28399e-45
2.79455e-43
1.72005e-41
7.0209e-40
2.11311e-38
4.84017e-37
8.59749e-36
1.38056e-34
2.06469e-33
2.20929e-32
2.16813e-31
1.65909e-30
1.04689e-29
5.20379e-29
2.1826e-28
7.80752e-28
2.35593e-27
6.06874e-27
1.37113e-26
3.13761e-26
1.07863e-25
1.99648e-25
2.44272e-25
2.28036e-46
2.89977e-44
1.84226e-42
7.64982e-41
2.30666e-39
5.32907e-38
9.95755e-37
1.58874e-35
2.11154e-34
2.63746e-33
2.32793e-32
1.81934e-31
1.1575e-30
5.95466e-30
2.5838e-29
9.4368e-29
2.91736e-28
7.82328e-28
1.89779e-27
4.26314e-27
1.15393e-26
2.78095e-26
4.29409e-26
8.69658e-48
1.17368e-45
7.73323e-44
3.33601e-42
1.0575e-40
2.61046e-39
5.16789e-38
8.38915e-37
1.16008e-35
1.2793e-34
1.20713e-33
1.02085e-32
7.13314e-32
4.06225e-31
1.94168e-30
7.82051e-30
2.7107e-29
8.31664e-29
2.31736e-28
6.13571e-28
1.29454e-27
3.92486e-27
7.66505e-27
2.08198e-49
2.91085e-47
2.02199e-45
9.15723e-44
3.02475e-42
7.71673e-41
1.57023e-39
2.61114e-38
3.68545e-37
4.30412e-36
4.35483e-35
3.92313e-34
2.96047e-33
1.95162e-32
1.04109e-31
4.70362e-31
1.82501e-30
6.33495e-30
2.06344e-29
6.24839e-29
1.45112e-28
3.14303e-28
1.05118e-27
2.89023e-51
4.30744e-49
3.15902e-47
1.49894e-45
5.19702e-44
1.41793e-42
3.12135e-41
5.45928e-40
8.31045e-39
1.05436e-37
1.14715e-36
1.07316e-35
8.62508e-35
5.95276e-34
3.53545e-33
1.81951e-32
8.2519e-32
3.40653e-31
1.33117e-30
4.94336e-30
1.49837e-29
3.76024e-29
1.14871e-28
2.9756e-53
4.74063e-51
3.74511e-49
1.92807e-47
7.22268e-46
2.08947e-44
4.9635e-43
1.01909e-41
1.69672e-40
2.41358e-39
2.94626e-38
3.09638e-37
2.80778e-36
2.19882e-35
1.48128e-34
8.50227e-34
4.1399e-33
1.75563e-32
7.0774e-32
2.90715e-31
1.00046e-30
3.15794e-30
9.38157e-30
2.41265e-55
4.16246e-53
3.56986e-51
2.0043e-49
8.22794e-48
2.62426e-46
6.92125e-45
1.57711e-43
2.91193e-42
4.58222e-41
6.17923e-40
7.20243e-39
7.3185e-38
6.48386e-37
4.95547e-36
3.25104e-35
1.85399e-34
9.3732e-34
4.41148e-33
1.97242e-32
7.32556e-32
2.50901e-31
6.75115e-31
1.55993e-57
2.97456e-55
2.81193e-53
1.73891e-51
7.86504e-50
2.7709e-48
8.10492e-47
2.04604e-45
4.18925e-44
7.33787e-43
1.11168e-41
1.4713e-40
1.70045e-39
1.70203e-38
1.47696e-37
1.12448e-36
7.52854e-36
4.45509e-35
2.33824e-34
1.08067e-33
4.35839e-33
1.54611e-32
4.64656e-32
5.90286e-60
1.26616e-57
1.33464e-55
9.20302e-54
4.64479e-52
1.83083e-50
6.01778e-49
1.71e-47
3.97487e-46
8.00426e-45
1.40756e-43
2.15368e-42
2.83948e-41
3.22887e-40
3.19859e-39
2.76741e-38
2.10262e-37
1.41291e-36
8.45527e-36
4.52058e-35
2.12706e-34
8.51979e-34
2.77134e-33
1.58718e-62
3.92256e-60
4.73528e-58
3.70289e-56
2.12222e-54
9.57305e-53
3.535e-51
1.09674e-49
2.90863e-48
6.66456e-47
1.32693e-45
2.30097e-44
3.47688e-43
4.57743e-42
5.24711e-41
5.23177e-40
4.54425e-39
3.47838e-38
2.39997e-37
1.49349e-36
8.08078e-36
3.85898e-35
1.46617e-34
3.02946e-65
1.06561e-62
1.42925e-60
1.23964e-58
7.84829e-57
3.87598e-55
1.57114e-53
5.50126e-52
1.68833e-50
4.32157e-49
9.6753e-48
1.89948e-46
3.27379e-45
4.9587e-44
6.62757e-43
7.83439e-42
8.081e-41
7.22261e-40
5.63982e-39
3.88714e-38
2.37512e-37
1.28862e-36
5.75406e-36
6.59488e-68
2.33645e-65
3.81143e-63
3.98903e-61
3.04257e-59
1.80651e-57
8.7222e-56
3.54855e-54
1.23659e-52
3.6645e-51
9.41782e-50
2.10938e-48
4.14054e-47
7.18634e-46
1.10963e-44
1.50838e-43
1.79518e-42
1.92475e-41
2.00572e-40
1.8335e-39
1.54032e-38
1.21936e-37
6.76302e-37
5.45032e-71
3.48323e-68
7.11222e-66
9.13933e-64
8.50279e-62
6.15126e-60
3.6129e-58
1.77301e-56
7.4187e-55
2.68515e-53
8.48875e-52
2.3575e-50
5.7678e-49
1.2442e-47
2.36506e-46
3.95437e-45
5.79443e-44
7.37085e-43
8.19586e-42
9.38194e-41
8.71238e-40
7.36668e-39
5.13181e-38
3.82928e-74
2.53565e-71
6.4553e-69
1.00956e-66
1.13741e-64
9.97313e-63
7.11262e-61
4.23825e-59
2.14757e-57
9.36955e-56
3.55171e-54
1.1772e-52
3.42581e-51
8.77844e-50
1.98556e-48
3.97455e-47
7.0306e-46
1.0705e-44
1.37762e-43
2.157e-42
2.51396e-41
2.62734e-40
2.48931e-39
5.88136e-78
1.05379e-74
3.59123e-72
7.21472e-70
1.02593e-67
1.12309e-65
9.93054e-64
7.30978e-62
4.57066e-60
2.4621e-58
1.15419e-56
4.74357e-55
1.71871e-53
5.5132e-52
1.57085e-50
3.98443e-49
8.99785e-48
1.79722e-46
3.08204e-45
4.30287e-44
7.03634e-43
8.33347e-42
8.72011e-41
6.1134e-82
1.41287e-78
6.72503e-76
1.78414e-73
3.28642e-71
4.61387e-69
5.19907e-67
4.85657e-65
3.84321e-63
2.61551e-61
1.54668e-59
8.00049e-58
3.6346e-56
1.45479e-54
5.15484e-53
1.62979e-51
4.62591e-50
1.1537e-48
2.35365e-47
6.20904e-46
1.09257e-44
1.96801e-43
2.63721e-42
3.64455e-87
4.68704e-83
3.43841e-80
1.30787e-77
3.36252e-75
6.495e-73
1.00114e-70
1.27712e-68
1.3792e-66
1.28115e-64
1.03548e-62
7.34053e-61
4.58604e-59
2.52859e-57
1.22732e-55
5.20548e-54
1.90437e-52
5.96847e-51
1.71308e-49
5.26475e-48
1.58673e-46
3.26945e-45
5.84123e-44
6.96615e-95
1.0495e-88
1.34681e-85
8.01507e-83
3.14471e-80
9.20295e-78
2.13339e-75
4.05583e-73
6.46401e-71
8.76708e-69
1.02315e-66
1.03681e-64
9.20108e-63
7.2133e-61
5.04746e-59
3.22349e-57
1.89339e-55
1.01939e-53
5.01559e-52
2.20671e-50
8.39395e-49
2.67946e-47
7.97133e-46
5.42162e-108
4.42831e-97
1.45836e-93
1.83128e-90
1.47938e-87
8.84248e-85
4.17556e-82
1.61807e-79
5.2739e-77
1.46174e-74
3.44856e-72
7.05974e-70
1.30319e-67
2.10539e-65
2.97002e-63
3.68297e-61
4.05325e-59
3.959e-57
3.42663e-55
2.63226e-53
1.78426e-51
1.052e-49
5.20856e-48
1.18491e-06
6.45375e-07
1.43235e-07
1.21262e-07
-6.95685e-09
-8.85238e-19
-1.60881e-10
1.05462e-08
0.187178
0.00320953
4.98301e-05
1.1647e-08
0.944738
0.888527
0.799317
0.734074
0.999982
0.999993
0.999838
0.999983
0.999999
0.999999
0.999999
0.999998
0.734744
0.853895
0.951291
0.977111
0.0396403
0.0609795
0.0952901
0.110545
8.72567e-18
2.16969e-17
6.26044e-18
1.6726e-17
1.9651e-08
1.50063e-08
1.8422e-08
2.00242e-08
9.84569e-08
7.55742e-08
7.30716e-08
7.46081e-08
7.15487e-08
5.05476e-08
4.91399e-08
6.67561e-08
2.32368e-19
2.64526e-19
2.32376e-19
5.3371e-16
5.3159e-16
3.67171e-16
1.04736e-16
-2.35354e-18
1.50951e-15
1.06219e-15
4.53785e-16
7.37929e-14
2.96074e-16
4.92911e-16
4.2487e-16
2.62509e-16
3.81491e-17
2.73236e-17
1.85201e-17
1.06508e-17
2.76346e-18
1.93927e-18
1.07825e-18
9.22405e-19
1.83999e-19
1.20209e-19
8.69629e-20
6.94372e-20
9.04578e-21
6.58016e-21
4.62657e-21
4.06873e-21
3.60123e-22
2.86106e-22
2.69338e-22
2.11332e-22
1.90788e-23
1.72014e-23
1.46929e-23
1.38041e-23
1.64526e-24
1.47473e-24
1.47374e-24
1.24261e-24
2.48472e-25
2.36239e-25
2.15273e-25
2.01813e-25
4.48805e-26
4.27463e-26
4.46899e-26
4.09939e-26
8.89377e-27
9.08123e-27
8.95521e-27
8.91156e-27
1.46919e-27
1.57237e-27
1.73207e-27
1.71079e-27
2.30043e-28
2.71649e-28
3.0159e-28
3.17692e-28
2.69734e-29
3.69811e-29
4.7368e-29
5.2484e-29
2.44321e-30
4.3052e-30
6.02347e-30
7.72863e-30
1.26741e-31
3.54336e-31
6.37412e-31
9.1517e-31
7.27908e-33
2.25569e-32
5.44231e-32
9.93774e-32
4.59813e-34
8.32899e-34
3.2372e-33
8.42653e-33
2.26059e-35
5.10214e-35
1.13543e-34
5.12164e-34
2.96332e-36
6.13807e-36
1.13215e-35
2.11923e-35
3.13122e-37
8.61578e-37
2.12374e-36
4.63576e-36
1.8179e-38
6.34045e-38
2.06693e-37
5.68059e-37
8.19898e-40
3.60481e-39
1.33483e-38
4.36441e-38
3.07238e-41
1.56262e-40
7.00351e-40
2.7305e-39
8.91688e-43
5.73455e-42
3.2433e-41
1.57438e-40
1.77207e-44
1.5831e-43
1.19637e-42
7.24688e-42
1.91393e-46
2.73045e-45
3.21706e-44
3.01523e-43
1.23428e-09
4.93687e-11
4.96406e-11
6.98846e-08
5.64473e-08
2.36049e-08
4.41813e-07
4.28775e-06
1.07668e-05
6.2325e-06
6.80948e-07
-3.20702e-10
5.42824e-08
4.72497e-08
2.28217e-08
2.72962e-09
1.83641e-11
1.8346e-11
3.26238e-12
7.30987e-06
2.96501e-05
3.89345e-15
-6.12421e-11
-1.01023e-10
-7.70462e-11
5.04989e-05
0.000134896
2.84605e-05
5.00133e-07
5.30916e-07
5.64561e-07
2.99491e-07
1.05004e-07
2.04972e-08
4.21104e-10
4.05213e-11
2.16987e-11
3.04856e-12
0.0100473
0.00600367
0.0106667
0.0171151
0.058537
0.0775583
0.0307434
0.00130651
5.25229e-08
3.23051e-08
4.95279e-07
7.25112e-07
4.62656e-07
8.71354e-09
3.65006e-09
5.56902e-10
5.62285e-11
2.07445e-11
2.7564e-12
0.669971
0.519919
0.340406
0.351113
0.419176
0.491572
0.243839
0.0015245
5.84606e-07
2.16239e-08
5.50105e-11
5.38174e-08
1.73548e-07
7.18655e-08
6.13838e-10
1.88154e-10
4.86735e-11
1.52499e-11
2.63589e-12
0.993133
0.993962
0.999964
0.995385
0.997365
0.995167
0.449411
0.000593082
2.69481e-06
1.45401e-10
6.38146e-11
4.55202e-12
3.25667e-12
1.65026e-08
2.82777e-10
8.54653e-11
3.13473e-11
1.01044e-11
2.46738e-12
0.999998
0.999997
0.999997
0.999933
0.995501
0.859093
0.431385
0.00599681
7.59528e-05
5.98848e-11
1.27294e-09
6.81048e-10
1.74263e-10
3.53811e-11
7.52283e-11
2.93165e-11
1.42581e-11
7.50835e-12
2.27604e-12
0.959132
0.92892
0.879995
0.742039
0.481656
0.0835332
0.018338
0.00210174
5.93319e-09
5.76882e-09
4.06986e-09
5.11999e-10
1.25979e-10
3.39795e-11
1.53139e-11
7.91117e-12
6.19208e-12
5.66165e-12
2.08532e-12
0.128966
0.163592
0.124887
0.0368341
1.81594e-12
1.4879e-12
1.64149e-12
1.4879e-12
5.93973e-09
7.44014e-09
2.70056e-09
8.25866e-11
8.41745e-11
3.65291e-11
9.22282e-12
2.71413e-12
4.36815e-12
4.45422e-12
1.90163e-12
2.02017e-19
1.38134e-17
1.99485e-19
1.38106e-17
3.40105e-10
3.23154e-10
1.43069e-10
3.88452e-11
2.86715e-13
3.00406e-13
3.00521e-13
5.7222e-12
3.33165e-11
3.47118e-11
6.69551e-12
1.35984e-12
3.09761e-12
3.5815e-12
1.76176e-12
1.31228e-08
6.50603e-09
4.13533e-09
2.35158e-09
1.11992e-09
5.86861e-10
1.36226e-10
4.43657e-11
7.90802e-12
3.04911e-13
4.64563e-13
2.50196e-12
1.52438e-11
3.24066e-11
6.85132e-12
1.01477e-12
1.67796e-12
2.86731e-12
1.5943e-12
4.6148e-08
1.93164e-08
7.647e-09
3.18399e-09
1.2301e-09
1.67884e-10
4.14544e-11
4.2863e-12
1.05236e-14
5.36788e-14
2.73365e-13
1.49366e-12
7.48185e-12
2.58662e-11
8.76452e-12
1.63607e-12
6.21365e-13
2.25433e-12
1.34336e-12
5.22087e-08
2.03455e-08
4.21083e-09
5.68769e-10
4.92913e-11
5.78558e-12
6.78534e-14
7.32364e-17
1.15055e-15
1.2213e-14
7.95859e-14
7.38224e-13
3.73337e-12
1.65224e-11
8.52798e-12
2.0236e-12
2.75008e-13
1.74071e-12
1.1712e-12
9.25924e-09
2.49729e-09
3.08116e-13
3.2454e-21
2.91162e-21
3.24537e-21
7.19827e-20
1.96442e-18
4.00443e-17
5.93961e-16
5.57385e-15
1.29242e-13
1.66213e-12
1.06027e-11
6.60479e-12
1.84918e-12
2.19131e-13
1.14265e-12
1.07894e-12
4.00563e-32
7.80265e-21
4.263e-13
8.93308e-18
5.94031e-18
3.14195e-20
2.12891e-21
1.70215e-20
3.10472e-19
4.99479e-18
4.99936e-17
4.14807e-15
5.25528e-13
5.86323e-12
4.26296e-12
1.44398e-12
1.5211e-13
7.3168e-13
9.22079e-13
2.00883e-14
6.59935e-17
5.96785e-17
3.64912e-18
6.08836e-19
1.92025e-21
1.39167e-21
4.38855e-21
2.37992e-20
1.78212e-19
1.92588e-18
1.68752e-16
1.09395e-13
2.47238e-12
2.16376e-12
1.06093e-12
1.17318e-13
4.80375e-13
7.34135e-13
1.10774e-16
2.19762e-17
3.92442e-18
4.49165e-19
5.14838e-20
3.87353e-22
9.64182e-22
3.26644e-21
1.95185e-20
1.76496e-19
3.97722e-18
1.41715e-16
3.57133e-15
2.92485e-13
1.20549e-12
4.67875e-13
8.01534e-14
3.18833e-13
5.5977e-13
7.33055e-18
2.79672e-18
4.50737e-19
4.75025e-20
3.49496e-21
1.72553e-22
5.01082e-22
1.47581e-21
4.47813e-21
1.14766e-20
2.76135e-19
9.1331e-18
2.44832e-17
7.06178e-15
5.34896e-13
2.57806e-13
6.14737e-14
2.01572e-13
4.5604e-13
7.4035e-19
2.10057e-19
4.26086e-20
4.84597e-21
2.59005e-22
8.01337e-23
2.54346e-22
7.96519e-22
2.24169e-21
6.35191e-21
1.84074e-20
7.55046e-20
2.00552e-19
6.92816e-16
2.17308e-13
1.47489e-13
4.21359e-14
9.25523e-14
3.89155e-13
5.11902e-20
1.67421e-20
3.34353e-21
4.4466e-22
2.80553e-23
3.85701e-23
1.31361e-22
4.37052e-22
1.46915e-21
4.6521e-21
1.97207e-20
6.06035e-20
1.36956e-19
1.59901e-17
2.66708e-14
8.36541e-14
2.84229e-14
2.12887e-14
3.16172e-13
2.81411e-21
1.18903e-21
2.47565e-22
4.3584e-23
7.50915e-24
2.28624e-23
8.04808e-23
2.93556e-22
1.08592e-21
3.69006e-21
1.99503e-20
8.23207e-20
2.36255e-19
7.88758e-19
4.88663e-16
4.78344e-14
2.23935e-14
4.67707e-15
2.4436e-13
1.76082e-22
7.51281e-23
1.92223e-23
5.10248e-24
3.38338e-24
1.46765e-23
5.78577e-23
2.21069e-22
8.16098e-22
2.75863e-21
1.23168e-20
7.54259e-20
2.95911e-19
9.31412e-19
4.672e-18
3.05337e-14
1.59115e-14
3.79477e-15
1.82038e-13
1.06142e-23
5.58703e-24
1.906e-24
7.40582e-25
1.14213e-24
4.84084e-24
2.01769e-23
7.68246e-23
2.62063e-22
8.17526e-22
3.65567e-21
2.18564e-20
1.6631e-19
8.36544e-19
4.6295e-18
1.86586e-14
1.28918e-14
3.4532e-15
1.30491e-13
1.101e-24
5.72839e-25
2.81851e-25
1.67301e-25
3.72426e-25
1.6785e-24
7.74826e-24
3.2955e-23
1.18122e-22
4.76372e-22
2.11511e-21
8.29021e-21
3.24704e-20
2.58032e-19
5.27648e-18
9.83704e-15
7.80398e-15
2.71365e-15
8.98857e-14
1.66849e-25
1.06549e-25
6.08629e-26
4.81991e-26
1.45001e-25
7.59999e-25
3.91755e-24
1.81192e-23
6.89323e-23
2.96642e-22
1.65849e-21
6.84262e-21
3.87492e-20
5.11085e-19
4.64285e-18
4.33707e-15
4.61026e-15
2.08222e-15
5.82554e-14
3.72913e-26
2.48217e-26
1.58916e-26
1.68916e-26
7.47451e-26
4.98812e-25
3.1458e-24
1.58372e-23
8.32231e-23
4.13487e-22
1.67991e-21
6.40524e-21
2.78995e-20
1.9821e-19
3.50239e-18
8.83099e-16
2.56201e-15
1.46698e-15
3.59413e-14
8.11815e-27
6.1059e-27
4.1263e-27
5.41913e-27
3.08081e-26
2.36621e-25
1.62585e-24
8.65184e-24
5.47235e-23
2.62432e-22
1.19911e-21
4.16708e-21
1.41654e-20
5.59405e-20
7.42867e-19
4.13728e-17
1.22816e-15
1.00212e-15
2.75137e-14
1.67238e-27
1.39513e-27
1.00455e-27
1.2606e-27
7.52568e-27
6.5305e-26
4.45868e-25
4.03519e-24
2.5215e-23
1.51164e-22
8.36091e-22
3.76721e-21
1.30509e-20
4.63367e-20
2.73135e-19
9.54486e-19
4.50924e-16
7.74645e-16
2.34711e-14
3.16046e-28
2.92381e-28
2.63956e-28
8.34124e-28
8.6768e-27
9.07382e-26
8.15664e-25
6.1981e-24
3.95546e-23
2.14078e-22
9.85533e-22
3.77876e-21
1.33933e-20
3.89433e-20
1.2142e-19
1.18594e-18
1.10265e-16
4.23952e-16
1.8059e-14
5.53572e-29
5.51668e-29
5.66873e-29
2.23656e-28
2.67335e-27
3.16277e-26
3.26834e-25
2.94987e-24
2.31271e-23
1.49677e-22
7.57645e-22
3.38218e-21
1.32241e-20
4.13178e-20
1.66729e-19
8.92408e-19
2.24762e-17
2.86676e-16
1.2613e-14
8.90696e-30
9.57811e-30
1.02233e-29
3.37799e-29
4.07344e-28
5.28518e-27
6.32834e-26
6.89487e-25
6.45425e-24
5.08597e-23
3.65052e-22
2.31384e-21
1.14721e-20
4.49321e-20
1.43225e-19
5.15956e-19
1.87811e-17
2.41766e-16
8.39578e-15
1.26865e-30
1.55425e-30
1.80112e-30
6.60953e-30
9.81254e-29
1.54983e-27
2.11945e-26
2.43015e-25
2.27579e-24
1.72346e-23
1.1047e-22
6.67768e-22
3.66626e-21
1.54617e-20
7.2291e-20
4.17958e-19
1.72402e-17
2.6802e-16
4.89785e-15
1.65208e-31
2.36673e-31
2.79371e-31
7.04974e-31
9.45243e-30
1.62731e-28
2.48264e-27
3.25423e-26
3.67609e-25
3.6853e-24
3.32655e-23
2.54406e-22
1.66914e-21
1.29222e-20
5.21201e-20
2.25315e-19
8.12545e-18
2.45212e-16
2.03686e-15
1.9068e-32
3.28504e-32
4.33311e-32
9.42193e-32
1.23365e-30
2.44328e-29
4.44312e-28
7.23313e-27
1.07732e-25
1.50401e-24
1.89642e-23
1.90984e-22
1.34166e-21
7.03885e-21
4.80452e-20
2.01149e-19
1.62267e-18
1.62261e-16
9.35707e-16
1.92723e-33
4.15468e-33
6.33656e-33
1.22173e-32
1.47992e-31
3.37732e-30
7.4242e-29
1.55059e-27
3.02423e-26
5.07717e-25
7.62111e-24
1.12141e-22
8.34984e-22
5.15989e-21
2.67812e-20
9.74473e-20
1.24406e-18
8.08795e-17
7.22309e-16
1.57534e-34
4.794e-34
8.71643e-34
1.53161e-33
1.35091e-32
3.12879e-31
7.17973e-30
1.52822e-28
3.07261e-27
5.91773e-26
1.01024e-24
1.53688e-23
2.25637e-22
2.57086e-21
3.52438e-20
2.88856e-19
1.02741e-18
4.6341e-17
5.84521e-16
9.139e-36
5.05273e-35
1.12827e-34
1.91508e-34
1.01705e-33
2.29866e-32
6.86481e-31
1.98567e-29
4.76584e-28
1.04383e-26
1.95909e-25
2.9858e-24
4.95962e-23
1.15939e-21
1.81145e-20
1.35379e-19
1.09659e-18
2.9709e-17
3.7197e-16
1.36491e-36
4.76021e-36
1.31435e-35
2.49349e-35
9.08037e-35
1.87958e-33
5.63929e-32
1.90476e-30
6.12143e-29
1.66729e-27
4.14156e-26
8.7537e-25
1.56226e-23
2.88384e-22
6.00513e-21
8.94474e-20
5.7421e-19
1.34867e-17
1.20142e-16
1.23007e-37
5.08337e-37
1.49219e-36
3.22173e-36
8.47136e-36
1.44376e-34
4.62297e-33
1.489e-31
4.7638e-30
1.48002e-28
4.46443e-27
1.16642e-25
2.32507e-24
3.72238e-23
8.06233e-22
2.10303e-20
2.48702e-19
2.00983e-18
1.12492e-17
9.02414e-39
4.57529e-38
1.5988e-37
4.08869e-37
8.76685e-37
8.84054e-36
2.97822e-34
1.03285e-32
3.42739e-31
1.09869e-29
3.43741e-28
9.79423e-27
2.23833e-25
3.83352e-24
6.21724e-23
1.41453e-21
2.71444e-20
2.09585e-19
8.67937e-19
6.44789e-40
3.97994e-39
1.68641e-38
5.14835e-38
1.03557e-37
5.04693e-37
1.556e-35
5.80403e-34
2.05482e-32
6.86127e-31
2.17452e-29
6.34733e-28
1.54683e-26
2.78889e-25
2.69172e-24
4.03188e-23
7.1612e-22
7.50897e-21
1.3617e-19
4.02804e-41
3.15222e-40
1.67247e-39
5.9448e-39
1.22932e-38
3.1477e-38
6.82769e-37
2.71157e-35
1.02324e-33
3.61585e-32
1.18964e-30
3.58551e-29
9.23159e-28
1.82225e-26
2.59271e-25
3.87807e-24
5.74878e-23
6.96013e-22
3.78469e-21
2.24324e-42
2.38933e-41
1.64261e-40
6.7881e-40
1.51903e-39
2.74265e-39
2.65422e-38
1.06418e-36
4.24475e-35
1.58247e-33
5.37308e-32
1.64996e-30
4.6745e-29
1.0389e-27
1.68676e-26
2.41526e-25
2.75018e-24
5.71677e-23
4.13591e-22
)
;

boundaryField
{
    leftWall
    {
        type            zeroGradient;
    }
    rightWall
    {
        type            zeroGradient;
    }
    lowerWall
    {
        type            zeroGradient;
    }
    atmosphere
    {
        type            inletOutlet;
        inletValue      uniform 0;
        value           nonuniform List<scalar> 
46
(
0
0
0
0
0
0
0
0
0
0
0
0
0
0
0
0
0
0
0
0
0
0
0
0
0
0
0
0
0
1.64261e-40
6.7881e-40
1.51903e-39
2.74265e-39
2.65422e-38
1.06418e-36
4.24475e-35
1.58247e-33
5.37308e-32
1.64996e-30
4.6745e-29
1.0389e-27
1.68676e-26
2.41526e-25
2.75018e-24
5.71677e-23
4.13591e-22
)
;
    }
    defaultFaces
    {
        type            empty;
    }
}


// ************************************************************************* //
