/*--------------------------------*- C++ -*----------------------------------*\
| =========                 |                                                 |
| \\      /  F ield         | OpenFOAM: The Open Source CFD Toolbox           |
|  \\    /   O peration     | Version:  2312                                  |
|   \\  /    A nd           | Website:  www.openfoam.com                      |
|    \\/     M anipulation  |                                                 |
\*---------------------------------------------------------------------------*/
FoamFile
{
    version     2.0;
    format      ascii;
    arch        "LSB;label=32;scalar=64";
    class       volScalarField;
    location    "0.4";
    object      p;
}
// * * * * * * * * * * * * * * * * * * * * * * * * * * * * * * * * * * * * * //

dimensions      [1 -1 -2 0 0 0 0];

internalField   nonuniform List<scalar> 
2268
(
5798.56
5806.4
5795.83
5775.62
5747.35
5711.06
5667.51
5618.22
5565.41
5512.24
5463.51
5426.61
5412.87
5439.43
5530.52
5717.06
6031.06
6488.36
7067.95
7704.37
8308.3
8787.06
9165.46
4992.46
5000.21
4989.51
4969.28
4940.87
4904.39
4860.64
4811.13
4758
4704.37
4654.91
4616.78
4600.98
4624.26
4710.44
4890.93
5200.54
5659.55
6248.48
6898.77
7516.06
8001.99
8388.9
4180.82
4188.55
4177.81
4157.64
4129.12
4092.42
4048.38
3998.47
3944.71
3890.07
3838.96
3798.06
3777.61
3793.58
3869.05
4036.06
4335.05
4795.28
5399.54
6072.91
6709.28
7199.4
7582.47
3362.72
3370.4
3359.57
3339.32
3310.5
3273.37
3228.78
3178.09
3123.21
3066.88
3013.12
2967.91
2940.31
2945.24
3004.22
3146.94
3425.47
3886.36
4514.01
5224.11
5888.95
6384.5
6761.12
2536.65
2544.47
2533.6
2513.17
2483.92
2446.19
2400.79
2348.96
2292.42
2233.64
2176.13
2124.93
2087.32
2077.26
2115.62
2231.72
2475.19
2935.67
3594.86
4357.24
5059.72
5560.8
5928.58
1705.98
1713.58
1703.32
1684.05
1656.95
1622.95
1583.47
1540.33
1495.71
1451.99
1411.63
1377.17
1350.55
1343.08
1355.46
1404.83
1546.98
1918.17
2610.15
3463.77
4224.66
4730.56
5079.32
1093.49
1098.05
1094.55
1087.63
1078.09
1066.8
1054.88
1043.66
1034.55
1028.73
1026.98
1029.59
1036.3
1051.02
1070.98
1095.56
1146.07
1272.68
1677.22
2543.41
3388.96
3899.35
4204.85
865.558
867.454
869.676
873.247
878.08
884.32
892.153
901.694
912.944
925.77
939.923
955.137
971.439
987.903
1008.34
1033.19
1059.53
1096.86
1202.9
1708.37
2587.21
3089.28
3298.79
1640.78
1568.81
1503.54
1438.43
1387.58
1354.97
1337.03
1340.03
1419.36
1689.65
2024.42
2080.02
1897.74
1688.33
1584.94
1566.06
1570.98
1574.15
1573.09
1607.93
1536.58
1472.22
1405.43
1353.69
1321.32
1301.52
1294.13
1339.67
1599.72
1980.83
2047.18
1859
1638.43
1540.55
1528.13
1536.87
1544.04
1545.57
1570.11
1503.07
1440.95
1370.96
1317.56
1287.06
1267.94
1252.66
1274.03
1463.32
1885.25
1986.96
1814.33
1567.24
1480.08
1479.33
1494.66
1507.47
1515.04
1534.22
1471.29
1411.11
1335.9
1279.14
1248.92
1232.19
1218.09
1250.76
1335.12
1683.47
1817.78
1685.02
1460.99
1401.84
1418.83
1444.03
1463.95
1480.38
1506.17
1444.5
1384.87
1301.83
1240.88
1220.44
1214.63
1208.17
1230.08
1279.62
1477.02
1541.38
1396.9
1326.06
1310.03
1347.29
1385.11
1413.32
1438.61
1488.09
1425.41
1362.2
1270.92
1225.46
1215.7
1211.27
1207.87
1207.98
1133
1224.1
1238.88
1107.12
1153.44
1207.88
1266.83
1318.62
1356.19
1388.35
1480.66
1414.35
1344.99
1257.72
1221.61
1214.61
1211.16
1208.1
1202.01
939.444
970.924
943.017
885.284
1005.57
1107.03
1181.88
1246.45
1293.1
1331.02
1482.55
1410.49
1333.92
1253.47
1215.05
1208.96
1209.15
1206.75
1066.68
779.518
748.286
747.07
782.574
912.423
1015.46
1096.8
1170.48
1224.74
1267.56
767.376
769.196
771.544
775.196
780.168
786.554
794.492
804.052
815.199
827.785
841.584
856.347
871.953
888.423
907.055
927.74
953.506
982.411
1010.97
1110.22
1528.35
1896.84
1710.03
631.415
633.208
635.694
639.535
644.746
651.41
659.623
669.409
680.666
693.167
706.615
720.65
735.024
749.916
766.129
784.221
804.306
824.78
835.735
815.757
819.402
975.279
1124.97
493.29
495.076
497.647
501.629
507.044
513.988
522.549
532.721
544.321
556.974
570.206
583.345
595.799
607.74
620.133
634.189
649.27
662.724
667.475
644.064
585.534
518.97
562.581
352.734
354.587
357.273
361.427
367.107
374.444
383.556
394.428
406.764
419.904
433.095
445.067
454.59
461.921
468.729
477.721
489.023
499.54
503.131
485.864
435.95
349.979
259.457
208.306
210.247
213.01
217.305
223.281
231.205
241.353
253.813
268.089
282.834
296.903
307.911
313.735
314.686
313.962
316.357
324.872
335.474
345.166
343.637
317.69
260.725
183.085
72.3917
73.8115
75.7245
78.8157
83.3431
89.8037
98.9434
111.596
127.718
145.226
162.748
174.871
180.414
183.602
188.044
193.883
200.005
209.437
221.829
228.579
223.708
200.658
162.141
6.48151
6.84556
7.33663
8.13197
9.31306
11.0413
13.7097
18.2865
26.0173
36.27
52.2482
67.0403
82.9009
96.9662
106.177
115.535
125.486
134.919
141.883
148.048
152.348
152.344
145.294
-0.840066
-0.829258
-0.816966
-0.787314
-0.739727
-0.655
-0.471711
-0.0668819
0.658525
1.73658
4.61856
13.8159
26.5387
36.3139
41.5461
48.2497
57.098
66.8031
76.6025
85.5816
92.4442
95.9101
95.8199
-0.974419
-0.965896
-0.949021
-0.920589
-0.895843
-0.893498
-0.835654
-0.585506
-0.215516
0.258511
2.48053
5.24925
3.98077
3.02724
4.00962
6.10597
9.61972
13.9878
18.9279
25.1204
32.4197
38.9953
44.0069
-1.12329
-1.11756
-1.10626
-1.09593
-1.11791
-1.1716
-1.19267
-1.15945
-0.990607
-1.17505
-1.51315
-1.57409
-1.52813
-1.54118
-1.56966
-1.58137
-1.58775
-1.58055
-1.47105
-0.581115
1.95201
5.401
10.1158
-1.28539
-1.28358
-1.2811
-1.28404
-1.31074
-1.40161
-1.55038
-1.75392
-1.75793
-1.71102
-1.69008
-1.68626
-1.67026
-1.67288
-1.69412
-1.7132
-1.73027
-1.74948
-1.77694
-1.89288
-1.94499
-2.01027
-2.07895
-1.45453
-1.45608
-1.46087
-1.47495
-1.50872
-1.60149
-1.74337
-1.81875
-1.82897
-1.81401
-1.80535
-1.79803
-1.78538
-1.78766
-1.80857
-1.8343
-1.86127
-1.89434
-1.94295
-2.01888
-2.077
-2.12912
-2.17888
-1.62457
-1.62824
-1.63745
-1.65196
-1.68145
-1.73151
-1.80544
-1.87006
-1.90251
-1.90954
-1.91364
-1.91716
-1.91738
-1.92714
-1.94572
-1.9699
-1.9987
-2.03392
-2.07854
-2.13153
-2.17947
-2.22481
-2.27703
-1.79181
-1.7961
-1.80554
-1.82117
-1.84615
-1.88233
-1.92933
-1.97151
-2.00151
-2.01914
-2.03125
-2.04171
-2.0509
-2.06421
-2.08291
-2.10721
-2.13707
-2.17277
-2.21408
-2.25683
-2.29586
-2.3372
-2.38837
-1.95503
-1.95931
-1.96823
-1.98249
-2.00305
-2.03009
-2.06202
-2.09333
-2.11934
-2.13904
-2.15471
-2.16896
-2.18295
-2.19913
-2.21914
-2.24399
-2.27395
-2.30875
-2.34702
-2.38456
-2.42056
-2.46266
-2.5122
-2.11414
-2.11806
-2.12605
-2.13837
-2.15519
-2.17615
-2.19996
-2.22412
-2.24619
-2.26527
-2.28205
-2.29798
-2.3142
-2.33214
-2.35317
-2.3782
-2.4074
-2.44032
-2.47535
-2.50981
-2.54515
-2.58506
-2.61883
-2.26946
-2.27291
-2.27984
-2.29028
-2.3041
-2.32085
-2.33963
-2.35907
-2.37789
-2.39546
-2.412
-2.4283
-2.44524
-2.46379
-2.48498
-2.50939
-2.53691
-2.56701
-2.59814
-2.62883
-2.6609
-2.69184
-2.71764
-2.42142
-2.4244
-2.43032
-2.43913
-2.45059
-2.46431
-2.47965
-2.49581
-2.51205
-2.52796
-2.54363
-2.55953
-2.57626
-2.59455
-2.61505
-2.63805
-2.66331
-2.6901
-2.71746
-2.74476
-2.77178
-2.79711
-2.81864
-2.57045
-2.57301
-2.57805
-2.5855
-2.59512
-2.60657
-2.61943
-2.63316
-2.64733
-2.66169
-2.67625
-2.69134
-2.70737
-2.72485
-2.74409
-2.76517
-2.78787
-2.81162
-2.83578
-2.85987
-2.88335
-2.90521
-2.92439
-2.71697
-2.71916
-2.72347
-2.7298
-2.73795
-2.74768
-2.75864
-2.77052
-2.78301
-2.79597
-2.80939
-2.82351
-2.83857
-2.85485
-2.87254
-2.89166
-2.91199
-2.93312
-2.95459
-2.97597
-2.99673
-3.01618
-3.03369
-2.8613
-2.86321
-2.8669
-2.87233
-2.87932
-2.88767
-2.89716
-2.90756
-2.91867
-2.93039
-2.94272
-2.95577
-2.96969
-2.98467
-3.0008
-3.01806
-3.03628
-3.05515
-3.07432
-3.09341
-3.11199
-3.12955
-3.14568
-3.00372
-3.00548
-3.00862
-3.01332
-3.01936
-3.02662
-3.03492
-3.04411
-3.05404
-3.06465
-3.07591
-3.08789
-3.10067
-3.11436
-3.12901
-3.14457
-3.16092
-3.17782
-3.195
-3.21214
-3.2289
-3.24491
-3.25981
-3.14462
-3.1461
-3.14885
-3.15293
-3.1582
-3.16456
-3.17188
-3.18005
-3.18896
-3.19856
-3.20882
-3.21976
-3.23144
-3.24392
-3.25719
-3.27123
-3.28591
-3.30109
-3.31652
-3.33197
-3.34717
-3.3618
-3.37558
-3.28409
-3.28536
-3.28777
-3.29134
-3.29597
-3.30157
-3.30807
-3.31535
-3.32336
-3.33204
-3.34136
-3.35133
-3.36197
-3.3733
-3.38532
-3.39798
-3.4112
-3.42484
-3.43873
-3.45268
-3.46649
-3.4799
-3.49264
-3.42231
-3.42342
-3.42554
-3.42868
-3.43276
-3.43772
-3.4435
-3.45001
-3.45721
-3.46505
-3.4735
-3.48255
-3.49221
-3.50248
-3.51335
-3.52477
-3.53667
-3.54895
-3.56147
-3.57409
-3.58665
-3.59892
-3.6107
-3.55945
-3.56042
-3.56229
-3.56506
-3.56867
-3.57308
-3.57822
-3.58405
-3.59052
-3.59759
-3.60522
-3.61342
-3.62216
-3.63145
-3.64126
-3.65156
-3.66227
-3.67333
-3.68461
-3.69602
-3.70743
-3.71867
-3.72951
-3.69564
-3.69649
-3.69814
-3.70059
-3.70379
-3.70771
-3.71229
-3.71751
-3.72331
-3.72966
-3.73654
-3.74394
-3.75183
-3.7602
-3.76904
-3.7783
-3.78793
-3.79788
-3.80804
-3.81834
-3.8287
-3.83896
-3.84893
-3.83099
-3.83174
-3.8332
-3.83536
-3.8382
-3.84168
-3.84576
-3.85041
-3.8556
-3.8613
-3.86748
-3.87412
-3.88122
-3.88874
-3.89667
-3.90498
-3.91362
-3.92254
-3.93168
-3.94096
-3.95034
-3.95968
-3.9688
-3.96561
-3.96627
-3.96756
-3.96947
-3.97197
-3.97506
-3.97868
-3.98282
-3.98745
-3.99253
-3.99806
-4.004
-4.01034
-4.01707
-4.02416
-4.03158
-4.03931
-4.04729
-4.05547
-4.06381
-4.07227
-4.08073
-4.08903
-4.09958
-4.10016
-4.10129
-4.10297
-4.10518
-4.1079
-4.11111
-4.11478
-4.11888
-4.1234
-4.12831
-4.13359
-4.13923
-4.14521
-4.15151
-4.15811
-4.16498
-4.17208
-4.17937
-4.18683
-4.19441
-4.20203
-4.20954
-4.23298
-4.23349
-4.23448
-4.23595
-4.23789
-4.24028
-4.2431
-4.24633
-4.24994
-4.25393
-4.25826
-4.26292
-4.2679
-4.27318
-4.27875
-4.28457
-4.29064
-4.29691
-4.30337
-4.30998
-4.31673
-4.32354
-4.33028
-4.36589
-4.36633
-4.36719
-4.36847
-4.37016
-4.37224
-4.3747
-4.37752
-4.38068
-4.38416
-4.38795
-4.39203
-4.39639
-4.40101
-4.40587
-4.41097
-4.41627
-4.42177
-4.42744
-4.43325
-4.4392
-4.44522
-4.45121
-4.49836
-4.49873
-4.49947
-4.50058
-4.50204
-4.50383
-4.50596
-4.50839
-4.51113
-4.51414
-4.51741
-4.52094
-4.52471
-4.5287
-4.53291
-4.53731
-4.5419
-4.54666
-4.55157
-4.55662
-4.5618
-4.56706
-4.57231
-4.63045
-4.63077
-4.6314
-4.63234
-4.63358
-4.63511
-4.63692
-4.639
-4.64132
-4.64389
-4.64668
-4.64969
-4.65289
-4.65629
-4.65987
-4.66362
-4.66752
-4.67158
-4.67577
-4.68008
-4.68452
-4.68904
-4.69357
-4.76222
-4.76249
-4.76301
-4.7638
-4.76484
-4.76612
-4.76763
-4.76937
-4.77131
-4.77346
-4.77579
-4.7783
-4.78097
-4.7838
-4.78678
-4.78991
-4.79316
-4.79654
-4.80003
-4.80364
-4.80736
-4.81116
-4.81499
-4.89372
-4.89394
-4.89436
-4.89501
-4.89585
-4.8969
-4.89813
-4.89954
-4.90113
-4.90287
-4.90476
-4.9068
-4.90896
-4.91126
-4.91367
-4.91619
-4.91882
-4.92155
-4.92438
-4.9273
-4.93033
-4.93343
-4.93656
-5.02499
-5.02517
-5.0255
-5.02601
-5.02667
-5.0275
-5.02846
-5.02957
-5.0308
-5.03216
-5.03364
-5.03522
-5.0369
-5.03868
-5.04054
-5.04249
-5.04452
-5.04662
-5.04881
-5.05107
-5.05342
-5.05584
-5.0583
-5.15608
-5.15622
-5.15647
-5.15685
-5.15735
-5.15796
-5.15867
-5.15948
-5.16038
-5.16137
-5.16244
-5.16359
-5.16481
-5.16609
-5.16743
-5.16882
-5.17027
-5.17178
-5.17334
-5.17496
-5.17665
-5.17841
-5.18022
-5.28701
-5.28714
-5.2873
-5.28757
-5.2879
-5.28831
-5.28878
-5.2893
-5.28989
-5.29052
-5.29121
-5.29193
-5.2927
-5.2935
-5.29434
-5.29521
-5.2961
-5.29703
-5.29799
-5.29898
-5.30003
-5.30115
-5.3023
-5.41781
-5.41794
-5.41803
-5.41819
-5.41837
-5.41857
-5.41881
-5.41907
-5.41934
-5.41964
-5.41995
-5.42027
-5.4206
-5.42094
-5.42129
-5.42165
-5.42201
-5.42238
-5.42276
-5.42316
-5.42359
-5.42406
-5.42459
-5.54855
-5.54868
-5.54871
-5.54877
-5.54881
-5.54883
-5.54883
-5.54882
-5.5488
-5.54876
-5.54871
-5.54864
-5.54855
-5.54844
-5.54831
-5.54817
-5.54801
-5.54785
-5.54767
-5.54748
-5.54731
-5.54716
-5.54705
-5.67945
-5.67968
-5.67965
-5.67961
-5.67949
-5.67931
-5.67909
-5.67881
-5.67848
-5.6781
-5.67767
-5.6772
-5.67668
-5.67611
-5.6755
-5.67486
-5.67418
-5.67347
-5.67274
-5.67199
-5.67121
-5.67043
-5.66966
841.728
1180.13
1346.43
1428.42
1064.66
993.947
869.143
781.221
588.916
568.58
557.197
576.5
206.297
174.193
167.062
188.207
108.511
65.6584
41.7537
36.6784
120.619
93.0612
74.2341
63.6294
130.709
116.431
105.575
94.606
88.5224
81.4129
75.4813
69.6798
42.3295
39.3427
36.6172
33.4284
13.016
13.9316
15.2755
15.4432
-2.12212
-2.14516
-2.16025
-2.16473
-2.21901
-2.24435
-2.26182
-2.26368
-2.32263
-2.35192
-2.37293
-2.38032
-2.42186
-2.43597
-2.44263
-2.44463
-2.53606
-2.54284
-2.54469
-2.54507
-2.63456
-2.64124
-2.64618
-2.65018
-2.72997
-2.73684
-2.74278
-2.74794
-2.83111
-2.8385
-2.84517
-2.85105
-2.93639
-2.94369
-2.95052
-2.95679
-3.04518
-3.05228
-3.05904
-3.06537
-3.15657
-3.16336
-3.16995
-3.17622
-3.27007
-3.27654
-3.28286
-3.28897
-3.38522
-3.39133
-3.39737
-3.40326
-3.50167
-3.50743
-3.51315
-3.51879
-3.61912
-3.62452
-3.62992
-3.63528
-3.73735
-3.7424
-3.74746
-3.75254
-3.85618
-3.86088
-3.86561
-3.87038
-3.97549
-3.97983
-3.98422
-3.98868
-4.09516
-4.09915
-4.1032
-4.10732
-4.21512
-4.21875
-4.22245
-4.22624
-4.33531
-4.33859
-4.34194
-4.34538
-4.4557
-4.45864
-4.46163
-4.46472
-4.57627
-4.57886
-4.5815
-4.58424
-4.69701
-4.69926
-4.70155
-4.70394
-4.81791
-4.81982
-4.82178
-4.82383
-4.93898
-4.94057
-4.94219
-4.9439
-5.06023
-5.0615
-5.0628
-5.06418
-5.18166
-5.18262
-5.18361
-5.18467
-5.30327
-5.30393
-5.30462
-5.30538
-5.42508
-5.42544
-5.42584
-5.4263
-5.54709
-5.54716
-5.54729
-5.54747
-5.66917
-5.66892
-5.66873
-5.66863
1471.97
1401.01
1327.45
1249.71
1204.31
1185.26
1172.06
1082.3
770.314
561.548
562.39
617.367
690.28
791.484
882.149
968.686
1052.92
1117.56
1165.56
951.574
1165.75
1224.89
1191.49
1140.71
1062.87
914.012
663.038
432.81
368.664
406.285
470.635
537.477
610.971
698.059
797.295
893.156
964.389
1015.09
605.12
651.606
660.23
761.474
693.929
542.694
408.796
300.726
246.538
254.331
269.735
286.292
307.653
350.137
466.392
602.53
712.727
786.942
837.361
213.868
336.833
485.772
552.32
528.018
453.453
231.071
158.665
160.656
149.572
119.899
66.538
17.954
62.691
215.783
402.05
527.659
605.701
655.197
48.1217
67.2896
86.737
114.271
132.345
135.894
124.289
105.562
84.3529
55.9632
19.7438
3.59867
4.2143
8.78182
62.5768
255.16
374.482
450.621
496.41
54.5172
52.7008
56.1601
62.4836
67.5135
64.9617
56.6705
43.5503
25.3657
8.05752
0.214022
0.587971
1.63503
3.56243
12.5462
160.111
270.447
333.402
371.42
82.044
76.1848
66.5044
55.9029
45.3292
34.3189
23.7352
11.5178
2.88885
-1.04091
-0.585629
-0.201788
0.209799
0.138944
4.88527
105.914
201.866
247.24
276.728
61.2477
54.4824
43.902
33.1971
22.462
13.3148
11.3047
1.88181
-1.60054
-1.44322
-1.1997
-0.972357
-0.708851
-1.45541
0.706634
57.8377
146.236
179.547
203.068
29.4717
24.9294
18.7423
15.4956
13.7778
3.85604
-1.92699
-1.96056
-1.88395
-1.82855
-1.72565
-1.54163
-1.35308
-1.85579
-0.983113
14.9718
86.9198
121.39
142.883
13.5281
9.99063
5.21167
-0.27142
-2.08695
-2.07522
-2.03598
-2.06652
-2.05906
-2.04812
-2.00524
-1.87374
-2.01482
-2.12497
-1.86274
0.399736
28.0671
71.0228
93.4354
-2.16062
-2.15781
-2.17393
-2.15952
-2.15108
-2.17188
-2.16431
-2.16365
-2.17292
-2.15745
-2.14022
-2.09411
-2.30294
-2.41304
-2.48571
-3.25939
-2.77465
30.2011
55.6218
-2.26185
-2.26156
-2.26253
-2.25704
-2.25188
-2.25697
-2.26313
-2.26733
-2.27022
-2.26866
-2.26633
-2.2682
-2.41844
-2.54148
-2.50474
-2.69852
-2.58859
6.86369
30.8687
-2.37911
-2.37021
-2.36107
-2.35317
-2.35203
-2.35962
-2.36482
-2.36937
-2.37212
-2.37354
-2.37727
-2.39158
-2.46367
-2.41297
-2.51553
-2.55526
-1.96384
0.350283
16.8961
-2.45102
-2.45228
-2.45253
-2.4557
-2.459
-2.46382
-2.46845
-2.47208
-2.47391
-2.47424
-2.47524
-2.48119
-2.49909
-2.39579
-2.50641
-2.57585
-2.4423
-2.35845
8.85661
-2.5487
-2.55483
-2.55822
-2.56152
-2.56542
-2.56962
-2.57336
-2.57581
-2.57612
-2.57388
-2.56931
-2.56329
-2.55352
-2.46169
-2.56155
-2.58097
-2.54034
-3.19757
3.66033
-2.65423
-2.65928
-2.66386
-2.66831
-2.67263
-2.67657
-2.67961
-2.68095
-2.67968
-2.67493
-2.66582
-2.65185
-2.6323
-2.57162
-2.64141
-2.64858
-2.54116
-2.82015
2.31844
-2.75546
-2.76364
-2.77021
-2.77586
-2.78076
-2.78477
-2.78748
-2.78813
-2.78577
-2.77933
-2.76772
-2.75016
-2.72982
-2.70156
-2.75645
-2.75375
-2.64785
-2.06877
2.73358
-2.85975
-2.86958
-2.87763
-2.88438
-2.89
-2.89441
-2.89726
-2.89786
-2.89526
-2.88836
-2.87626
-2.85862
-2.84072
-2.8375
-2.89842
-2.90985
-2.99852
0.0159806
2.78406
-2.9663
-2.97727
-2.98643
-2.99413
-3.00055
-3.00564
-3.0091
-3.01038
-3.00856
-3.00261
-2.99197
-2.97671
-2.96269
-2.9769
-3.02635
-3.03017
-3.00043
3.04045
1.85231
-3.07513
-3.08674
-3.09669
-3.10522
-3.11247
-3.11846
-3.12297
-3.12559
-3.1256
-3.12211
-3.11476
-3.10409
-3.09467
-3.11752
-3.16596
-3.2246
-3.52164
-4.52914
-3.1242
-3.18599
-3.1979
-3.20839
-3.2176
-3.22569
-3.2327
-3.23855
-3.243
-3.24562
-3.24584
-3.24354
-3.24002
-3.23924
-3.27088
-3.32041
-3.47215
-3.84808
-3.87834
-1.84004
-3.29858
-3.31056
-3.32138
-3.33115
-3.34002
-3.34809
-3.35539
-3.36188
-3.36745
-3.37198
-3.37582
-3.38068
-3.39112
-3.43017
-3.46903
-3.56972
-3.70708
-3.8155
-1.21836
-3.4126
-3.42448
-3.43548
-3.44567
-3.45521
-3.46425
-3.47294
-3.4814
-3.4898
-3.49847
-3.50827
-3.521
-3.54109
-3.58159
-3.59589
-3.66116
-3.6801
-3.81193
-1.89595
-3.52779
-3.53945
-3.55048
-3.56094
-3.571
-3.58084
-3.59068
-3.60079
-3.6115
-3.62346
-3.63779
-3.65625
-3.68173
-3.71879
-3.73435
-3.75783
-3.71164
-3.81335
-2.17532
-3.6439
-3.65524
-3.66617
-3.67675
-3.68714
-3.69755
-3.70825
-3.71955
-3.73188
-3.74593
-3.76275
-3.78357
-3.8106
-3.84458
-3.87447
-3.85589
-3.80519
-3.8639
-1.66578
-3.76073
-3.77166
-3.78237
-3.7929
-3.80343
-3.81416
-3.82537
-3.8374
-3.85066
-3.86576
-3.88344
-3.90464
-3.92953
-3.95685
-3.98459
-3.9649
-3.93138
-3.96191
-1.58307
-3.87812
-3.88856
-3.89893
-3.90926
-3.91971
-3.93051
-3.94189
-3.95418
-3.96775
-3.98306
-4.00069
-4.02083
-4.04158
-4.05981
-4.07297
-4.08266
-4.06823
-4.06965
-1.3282
-3.99593
-4.0058
-4.01573
-4.02571
-4.03592
-4.04654
-4.0578
-4.06999
-4.08342
-4.09854
-4.11587
-4.13475
-4.15259
-4.16517
-4.16979
-4.2015
-4.2062
-4.23486
-1.62087
-4.11406
-4.12331
-4.13269
-4.1422
-4.15199
-4.16223
-4.17311
-4.18488
-4.19786
-4.21257
-4.22966
-4.24899
-4.26861
-4.28391
-4.28573
-4.31358
-4.21123
-4.80066
-5.18154
-4.23245
-4.24102
-4.24977
-4.25869
-4.26792
-4.27759
-4.28788
-4.29901
-4.31132
-4.32542
-4.34214
-4.36229
-4.38464
-4.40922
-4.42975
-4.41101
-4.50382
-5.09793
0.358605
-4.35105
-4.35889
-4.36694
-4.37518
-4.38372
-4.39268
-4.40221
-4.41252
-4.42403
-4.4375
-4.45336
-4.47331
-4.49579
-4.52186
-4.56239
-4.56856
-4.66159
-4.75953
-0.348831
-4.46983
-4.47691
-4.4842
-4.49168
-4.49944
-4.50758
-4.51622
-4.52558
-4.53609
-4.54812
-4.56375
-4.58371
-4.60726
-4.62787
-4.64974
-4.70595
-4.57468
-4.27372
-6.15304
-4.58878
-4.59508
-4.60157
-4.60824
-4.61515
-4.62238
-4.63005
-4.63835
-4.64756
-4.65879
-4.67332
-4.69266
-4.71719
-4.7384
-4.762
-4.90762
-4.65201
-4.34385
-9.58301
-4.70791
-4.71341
-4.71908
-4.7249
-4.73091
-4.73717
-4.74384
-4.75081
-4.7588
-4.76862
-4.78154
-4.79912
-4.8235
-4.85189
-4.90009
-5.0534
-4.71875
-5.08688
-4.45829
-4.82722
-4.83192
-4.83677
-4.84173
-4.84681
-4.85205
-4.8574
-4.86323
-4.86976
-4.8777
-4.88808
-4.90203
-4.9229
-4.95903
-5.02538
-5.13493
-4.88618
-5.73038
3.38824
-4.94674
-4.95066
-4.95469
-4.9588
-4.96298
-4.9672
-4.97144
-4.97588
-4.98071
-4.98631
-4.99308
-5.00126
-5.01299
-5.03997
-5.08525
-5.15809
-5.15696
-6.40975
11.4479
-5.06647
-5.06963
-5.07289
-5.07618
-5.07948
-5.08272
-5.08587
-5.08899
-5.09211
-5.09525
-5.09817
-5.10002
-5.09898
-5.10097
-5.10331
-5.15737
-5.2393
-5.30102
10.0093
-5.18644
-5.18888
-5.19139
-5.19392
-5.19641
-5.19874
-5.20091
-5.20287
-5.20452
-5.20564
-5.20561
-5.20303
-5.19542
-5.18036
-5.16868
-5.21248
-5.29281
-5.27732
-4.48458
-5.30665
-5.3084
-5.31022
-5.31205
-5.3138
-5.31538
-5.31674
-5.31779
-5.31838
-5.31822
-5.31674
-5.31284
-5.30509
-5.29299
-5.28161
-5.3132
-5.3551
-5.13737
-4.51916
-5.4271
-5.4282
-5.42942
-5.43064
-5.43174
-5.43269
-5.43343
-5.43386
-5.43383
-5.43312
-5.43134
-5.42793
-5.42235
-5.41512
-5.40909
-5.41142
-5.44025
-5.40955
-5.03343
-5.54782
-5.54834
-5.54902
-5.54973
-5.55024
-5.55068
-5.55098
-5.55104
-5.55077
-5.55005
-5.54868
-5.54648
-5.54343
-5.54009
-5.5379
-5.53731
-5.53709
-5.5255
-5.47452
-5.66853
-5.66842
-5.66848
-5.66875
-5.66902
-5.66918
-5.66922
-5.66915
-5.66893
-5.66856
-5.66799
-5.66726
-5.6665
-5.66611
-5.6666
-5.66738
-5.66294
-5.635
-5.59455
)
;

boundaryField
{
    leftWall
    {
        type            calculated;
        value           nonuniform List<scalar> 
50
(
5798.56
4992.46
4180.82
3362.72
2536.65
1705.98
1093.49
865.558
767.376
631.415
493.29
352.734
208.306
72.3917
6.48151
-0.840066
-0.974419
-1.12329
-1.28539
-1.45453
-1.62457
-1.79181
-1.95503
-2.11414
-2.26946
-2.42142
-2.57045
-2.71697
-2.8613
-3.00372
-3.14462
-3.28409
-3.42231
-3.55945
-3.69564
-3.83099
-3.96561
-4.09958
-4.23298
-4.36589
-4.49836
-4.63045
-4.76222
-4.89372
-5.02499
-5.15608
-5.28701
-5.41781
-5.54855
-5.67945
)
;
    }
    rightWall
    {
        type            calculated;
        value           nonuniform List<scalar> 
50
(
1573.09
1545.57
1515.04
1480.38
1438.61
1388.35
1331.02
1267.56
1165.56
1015.09
837.361
655.197
496.41
371.42
276.728
203.068
142.883
93.4354
55.6218
30.8687
16.8961
8.85661
3.66033
2.31844
2.73358
2.78406
1.85231
-3.1242
-1.84004
-1.21836
-1.89595
-2.17532
-1.66578
-1.58307
-1.3282
-1.62087
-5.18154
0.358605
-0.348831
-6.15304
-9.58301
-4.45829
3.38824
11.4479
10.0093
-4.48458
-4.51916
-5.03343
-5.47452
-5.59455
)
;
    }
    lowerWall
    {
        type            calculated;
        value           nonuniform List<scalar> 
62
(
6196.71
6204.55
6193.98
6173.77
6145.5
6109.21
6065.66
6016.37
5963.56
5910.39
5861.66
5824.76
5811.02
5837.58
5928.67
6115.21
6429.21
6886.51
7466.1
8102.52
8706.45
9185.21
9563.56
9165.46
8388.9
7582.47
6761.12
5928.58
5079.32
4204.85
3298.79
1688.56
2007.1
1778.15
1636.86
1640.78
1607.93
1570.11
1534.22
1506.17
1488.09
1480.66
1482.55
1655.5
1583.52
1518.25
1453.14
1402.29
1369.68
1351.75
1354.74
1434.08
1704.36
2039.14
2094.73
1912.46
1703.04
1599.65
1580.77
1585.69
1587.18
1585.67
)
;
    }
    atmosphere
    {
        type            calculated;
        value           nonuniform List<scalar> 
46
(
-5.74498
-5.74553
-5.74546
-5.74533
-5.74512
-5.74484
-5.74448
-5.74406
-5.74356
-5.743
-5.74238
-5.74169
-5.74094
-5.74013
-5.73928
-5.73837
-5.73742
-5.73644
-5.73543
-5.7344
-5.73335
-5.73227
-5.73121
-5.73038
-5.73001
-5.72972
-5.7295
-5.72935
-5.72912
-5.72904
-5.72904
-5.72904
-5.72904
-5.72904
-5.72904
-5.72904
-5.72904
-5.72904
-5.72904
-5.72904
-5.72904
-5.72904
-5.72904
-5.72904
-5.72904
-5.72904
)
;
    }
    defaultFaces
    {
        type            empty;
    }
}


// ************************************************************************* //
