/*--------------------------------*- C++ -*----------------------------------*\
| =========                 |                                                 |
| \\      /  F ield         | OpenFOAM: The Open Source CFD Toolbox           |
|  \\    /   O peration     | Version:  2312                                  |
|   \\  /    A nd           | Website:  www.openfoam.com                      |
|    \\/     M anipulation  |                                                 |
\*---------------------------------------------------------------------------*/
FoamFile
{
    version     2.0;
    format      ascii;
    arch        "LSB;label=32;scalar=64";
    class       volScalarField;
    location    "0.4";
    object      p_rgh;
}
// * * * * * * * * * * * * * * * * * * * * * * * * * * * * * * * * * * * * * //

dimensions      [1 -1 -2 0 0 0 0];

internalField   nonuniform List<scalar> 
2268
(
6196.71
6204.55
6193.98
6173.77
6145.5
6109.21
6065.66
6016.37
5963.56
5910.39
5861.66
5824.76
5811.02
5837.58
5928.67
6115.21
6429.21
6886.51
7466.1
8102.52
8706.45
9185.21
9563.56
6186.91
6194.66
6183.96
6163.73
6135.32
6098.84
6055.09
6005.58
5952.45
5898.82
5849.36
5811.23
5795.43
5818.71
5904.89
6085.38
6394.99
6854
7442.93
8093.22
8710.51
9196.44
9583.24
6171.57
6179.3
6168.56
6148.39
6119.86
6083.16
6039.13
5989.21
5935.46
5880.82
5829.71
5788.81
5768.36
5784.33
5859.8
6026.81
6325.8
6786.03
7390.29
8063.66
8700.03
9190.14
9572.96
6149.77
6157.45
6146.62
6126.37
6097.55
6060.42
6015.83
5965.14
5910.26
5853.93
5800.17
5754.96
5727.36
5732.29
5791.27
5933.99
6212.52
6673.41
7301.06
8011.16
8675.99
9171.55
9546.51
6120
6127.81
6116.95
6096.52
6067.27
6029.54
5984.14
5932.3
5875.77
5816.99
5759.48
5708.28
5670.67
5660.61
5698.57
5815.07
6058.54
6519.02
7178.21
7940.59
8643.07
9144.15
9509.22
6057.24
6067.46
6050.87
6016.76
5963.06
5884.69
5775.14
5627.85
5438.12
5205.82
4938.34
4653.22
4379.89
4123.47
4006.42
4243.78
4907.77
6134.44
6989.8
7843.42
8604.31
9110.21
9455.66
3615.1
3651.9
3577.29
3434.31
3239.56
3002.72
2735.85
2455.3
2179.96
1928.42
1715.95
1552.17
1428.93
1433.6
1453.56
1478.33
1699.2
2746.03
5810.07
7719.35
8564.91
9075.3
9376.89
1307
1308.89
1311.12
1314.69
1319.52
1325.76
1333.59
1343.13
1354.38
1367.21
1381.36
1396.58
1412.88
1429.34
1449.78
1474.63
1500.97
1538.3
2392.65
7118.24
8559.41
9061.52
9270.26
1655.5
1583.52
1518.25
1453.14
1402.29
1369.68
1351.75
1354.74
1434.08
1704.36
2039.14
2094.73
1912.46
1703.04
1599.65
1580.77
1585.69
1587.18
1585.67
1652.07
1580.72
1516.36
1449.57
1397.83
1365.46
1345.67
1338.54
1386.04
1650.39
2023.64
2091.32
1903.14
1682.57
1584.69
1572.26
1581.01
1583.88
1583.33
1643.69
1576.64
1514.52
1444.53
1391.14
1360.63
1341.58
1324.87
1334.09
1577.14
2103.74
2087.48
1887.9
1640.81
1553.66
1552.9
1568.23
1577.33
1577.96
1637.23
1574.29
1514.12
1438.9
1382.22
1350.45
1314.98
1261.45
1264.04
1464.17
2233.91
2409.26
1865.77
1564
1504.85
1521.84
1547.04
1566.95
1569.44
1638.61
1576.93
1517.31
1434.43
1350.44
1269.11
1233.31
1214.08
1236.09
1927.53
2323.67
2434.87
1973.91
1463.57
1442.47
1479.72
1517.54
1545.75
1566.44
1649.95
1587.27
1523.7
1422.3
1254.99
1223.67
1214.45
1210.34
1252.09
2167.62
2323.55
2389.36
1985.35
1335.4
1369.74
1428.69
1480.48
1518.05
1550.21
1671.96
1605.63
1536.28
1412.84
1249.87
1217.53
1212.41
1208.82
1716.12
2172.6
2325.15
2089.84
1352.29
1197.74
1298.32
1373.17
1437.74
1484.39
1522.32
1703.27
1631.2
1554.64
1448.35
1338.54
1284.27
1234.67
1209.88
2167.43
2268.05
2299.06
1134.89
1003.18
1133.15
1236.18
1317.52
1391.2
1445.46
1488.28
1300.84
1302.66
1305.01
1308.66
1313.63
1320.02
1327.96
1337.52
1348.67
1361.25
1375.05
1389.81
1405.42
1421.89
1440.52
1461.21
1486.97
1515.88
1544.44
3035.81
7960.3
9110.23
8926.88
1290.08
1291.87
1294.36
1298.2
1303.41
1310.07
1318.29
1328.07
1339.33
1351.83
1365.28
1379.31
1393.69
1408.58
1424.79
1442.88
1462.97
1483.44
1494.4
1474.42
2923.25
7995.77
10018.6
1277.15
1278.93
1281.5
1285.48
1290.9
1297.84
1306.41
1316.58
1328.18
1340.83
1354.06
1367.2
1379.66
1391.6
1403.99
1418.04
1433.13
1446.58
1451.33
1427.92
1369.47
2020.93
6035.59
1261.79
1263.64
1266.32
1270.48
1276.16
1283.5
1292.61
1303.48
1315.81
1328.95
1342.15
1354.12
1363.64
1370.97
1377.78
1386.72
1398.06
1408.59
1412.18
1394.92
1345.01
1258.91
1289.91
1242.55
1244.49
1247.26
1251.55
1257.53
1265.45
1275.6
1288.06
1302.33
1317.08
1331.15
1342.16
1347.98
1348.91
1337.27
1318.36
1329.66
1364.08
1379.41
1377.88
1351.94
1294.97
1217.33
1058.18
1066.02
1076.87
1093.18
1115.5
1144.37
1180.25
1222.56
1266.26
1300.54
1322.19
1334.24
1308.23
1180.03
1002.12
902.578
875.434
915.787
1023.63
1197.95
1374.18
1360.1
1321.58
155.398
162.992
173.388
190.103
215.072
251.704
306.432
391.65
520.731
688.564
857.197
909.529
787.03
702.778
747.661
757.505
767.67
777.182
784.274
812.828
894.318
1011.58
1135.74
0.569763
0.580571
0.592864
0.62254
0.670656
0.763954
1.01947
1.89102
5.37415
15.9986
88.3316
211.317
503.461
661.597
672.898
710.801
746.61
769.465
781.393
790.364
797.398
801.064
811.15
0.560604
0.569127
0.586009
0.614538
0.640991
0.64704
0.705032
4.12501
18.8257
33.371
106.395
153.219
136.396
113.848
139.514
193.53
283.564
394.89
517.456
615.018
702.779
765.514
800.624
0.536933
0.542653
0.553959
0.564389
0.543469
0.489815
0.617428
11.7348
18.1005
13.7274
3.3984
0.0884392
0.193278
0.278303
0.147598
0.0879869
0.0774229
0.0828014
0.190459
38.6766
106.133
203.013
332.113
0.500025
0.501837
0.504312
0.501383
0.474673
0.476443
3.28026
2.58238
0.0283284
0.0754727
0.096924
0.1011
0.125392
0.279676
0.229345
0.0989569
0.0553369
0.0371116
0.0098062
-0.106565
-0.158951
-0.224428
-0.293282
0.456076
0.454526
0.449733
0.43566
0.401888
0.313
0.23308
0.0918666
0.103197
0.0973764
0.105266
0.112688
0.125663
0.123394
0.102235
0.0763425
0.0494694
0.0162878
-0.0323288
-0.10826
-0.166387
-0.218481
-0.268168
0.411234
0.407561
0.398357
0.383845
0.354349
0.304298
0.230371
0.165753
0.133296
0.126269
0.12216
0.118717
0.118426
0.108665
0.0900795
0.0659062
0.0371216
0.00191976
-0.042711
-0.0957104
-0.143624
-0.188954
-0.116858
0.369191
0.364897
0.355453
0.339828
0.31485
0.278674
0.231674
0.189496
0.159489
0.14186
0.129746
0.119297
0.110101
0.0967899
0.0780834
0.0537876
0.0239453
-0.0115768
-0.0530439
-0.0958054
-0.116302
0.145519
0.368502
0.331161
0.326882
0.317962
0.303701
0.283141
0.256101
0.224186
0.192872
0.166858
0.14715
0.131481
0.117234
0.103241
0.0870628
0.0670501
0.0422077
0.0122473
-0.0211568
-0.059995
-0.0983064
0.00274035
0.448353
0.404374
0.297242
0.293321
0.285338
0.273011
0.256197
0.235237
0.211421
0.187266
0.165195
0.146119
0.129338
0.113407
0.0971833
0.0792433
0.0582217
0.0331992
0.00400838
-0.0273715
-0.0603162
-0.0933726
0.0194373
-0.109939
-0.134172
0.267115
0.263667
0.256742
0.246295
0.232479
0.215725
0.19695
0.177505
0.158687
0.141117
0.124577
0.108276
0.0913442
0.0727874
0.0516036
0.0272002
-0.000228246
-0.0300494
-0.057676
-0.0793814
-0.124318
-0.155257
-0.181052
0.240356
0.237379
0.231455
0.222644
0.211182
0.19746
0.182119
0.165962
0.149729
0.133813
0.11814
0.102246
0.0855142
0.0672211
0.0467227
0.023732
-0.00151633
-0.0283161
-0.0556755
-0.0829667
-0.109998
-0.135334
-0.156859
0.216514
0.213962
0.208916
0.201467
0.191854
0.180394
0.167542
0.153805
0.139635
0.12528
0.11072
0.0956244
0.0795979
0.0621218
0.042884
0.0218016
-0.000894437
-0.0246432
-0.0488015
-0.0728818
-0.0963713
-0.118242
-0.137416
0.195198
0.193002
0.188696
0.182359
0.174208
0.164486
0.153518
0.141643
0.12915
0.11619
0.102777
0.0886485
0.0735891
0.0573147
0.0396213
0.0205024
0.000177309
-0.0209477
-0.0424149
-0.0637882
-0.0845599
-0.104017
-0.121525
0.176059
0.174143
0.170456
0.165025
0.158042
0.149687
0.140196
0.129799
0.118692
0.10697
0.094636
0.081589
0.0676636
0.0526877
0.0365557
0.0192942
0.0010804
-0.0177892
-0.0369608
-0.0560505
-0.0746336
-0.0921963
-0.108327
0.158836
0.157069
0.15393
0.14923
0.143194
0.135935
0.127634
0.118447
0.10851
0.0979045
0.0866414
0.0746659
0.0618813
0.0481898
0.0335424
0.0179775
0.00163326
-0.015269
-0.0324494
-0.0495883
-0.0663523
-0.0823548
-0.0972544
0.143123
0.14165
0.138892
0.134813
0.129544
0.123184
0.115862
0.107695
0.0987825
0.0891881
0.0789304
0.0679854
0.0563023
0.0438315
0.0305569
0.0165208
0.00183197
-0.0133407
-0.0287764
-0.0442211
-0.0594188
-0.074049
-0.0878355
0.128851
0.127584
0.125169
0.1216
0.116974
0.111366
0.104874
0.0975864
0.0895787
0.0809034
0.0715832
0.0616138
0.0509737
0.0396431
0.0276254
0.0149635
0.0017452
-0.0118974
-0.0257916
-0.0397407
-0.0535505
-0.0669582
-0.0797015
0.115821
0.114717
0.112596
0.109459
0.105378
0.100413
0.0946375
0.0881209
0.0809226
0.0730868
0.0646387
0.0555856
0.0459242
0.0356529
0.0247856
0.013364
0.00146098
-0.010818
-0.023338
-0.0359502
-0.0485103
-0.0607887
-0.0725595
0.103879
0.102908
0.10104
0.0982715
0.0946606
0.0902535
0.0851075
0.0792767
0.0728097
0.0657446
0.0581071
0.0499116
0.0411655
0.0318775
0.0220672
0.0117731
0.00105682
-0.0099965
-0.0212808
-0.0326849
-0.0441018
-0.0553415
-0.0661841
0.0928852
0.0920308
0.0903822
0.0879347
0.084735
0.0808193
0.0762329
0.0710193
0.0652185
0.0588638
0.0519805
0.0445867
0.0366957
0.0283219
0.0194869
0.0102256
0.000589861
-0.00935113
-0.0195139
-0.0298151
-0.040179
-0.0504385
-0.060402
0.0827302
0.0819758
0.0805193
0.0783547
0.0755196
0.0720424
0.0679596
0.0633065
0.0581168
0.0524196
0.0462393
0.0395951
0.0325035
0.0249813
0.0170506
0.00874205
9.8818e-05
-0.00882311
-0.0179576
-0.0272427
-0.0366242
-0.0459651
-0.0550819
0.0733065
0.0726431
0.0713585
0.0694469
0.0669391
0.0638577
0.0602326
0.0560928
0.051467
0.0463808
0.0408569
0.0349146
0.0285713
0.0218449
0.0147561
0.00733183
-0.000392616
-0.00837206
-0.0165546
-0.0248936
-0.0333532
-0.0418136
-0.0501164
0.0645318
0.0639487
0.0628184
0.0611352
0.0589242
0.0562035
0.0529977
0.0493313
0.0452285
0.040712
0.0358026
0.0305188
0.0248779
0.0188971
0.0125957
0.00599661
-0.000871262
-0.00797231
-0.0152656
-0.0227168
-0.0303007
-0.0379217
-0.045432
0.0563212
0.0558137
0.0548249
0.0533501
0.0514108
0.0490214
0.0462027
0.0429752
0.0393597
0.0353764
0.0310439
0.0263794
0.0213992
0.0161195
0.0105574
0.00473247
-0.00133217
-0.00760846
-0.0140651
-0.0206762
-0.0274267
-0.0342348
-0.0409749
0.0486123
0.0481718
0.0473122
0.0460284
0.0443396
0.0422565
0.0397972
0.0369788
0.0338194
0.0303366
0.026547
0.0224664
0.0181096
0.0134913
0.00862636
0.00353114
-0.00177596
-0.0072736
-0.0129377
-0.0187502
-0.0247001
-0.0307248
-0.0367133
0.0413338
0.0409572
0.0402185
0.0391116
0.0376553
0.0358571
0.0337332
0.0312979
0.0285669
0.0255554
0.0222784
0.0187497
0.0149827
0.0109903
0.00678535
0.00238106
-0.00220827
-0.00696644
-0.0118763
-0.016924
-0.0221053
-0.027368
-0.0326199
0.0344355
0.0341158
0.0334888
0.032546
0.0313065
0.0297748
0.0279653
0.0258901
0.0235629
0.0209968
0.0182048
0.0151992
0.0119918
0.00859356
0.00501537
0.00126781
-0.00263827
-0.00669144
-0.0108793
-0.0151941
-0.0196319
-0.0241542
-0.0286867
0.0278576
0.0275925
0.0270712
0.0262814
0.0252452
0.0239636
0.0224503
0.0207151
0.0187698
0.0166257
0.014294
0.0117854
0.00911011
0.00627746
0.00329636
0.000175091
-0.00307849
-0.00645647
-0.00995167
-0.0135589
-0.0172797
-0.0210823
-0.0249075
0.0215581
0.0213395
0.0209164
0.0202692
0.0194241
0.0183788
0.0171456
0.0157329
0.0141504
0.0124077
0.0105143
0.00847944
0.00631154
0.00401857
0.00160771
-0.000914706
-0.00354316
-0.00627311
-0.00910046
-0.0120257
-0.01505
-0.0181525
-0.0212894
0.0154797
0.0153038
0.0149738
0.0144604
0.0137959
0.0129747
0.0120082
0.0109029
0.00966678
0.00830782
0.00683371
0.005252
0.00356971
0.00179334
-7.14169e-05
-0.00201972
-0.00404804
-0.00615389
-0.00833715
-0.0105998
-0.0129504
-0.0153736
-0.0178337
0.0095877
0.00944222
0.00919794
0.00880976
0.00831645
0.00770892
0.00699734
0.00618656
0.00528288
0.0042924
0.00322116
0.00207494
0.000859241
-0.000420956
-0.00176124
-0.00315809
-0.00460912
-0.00611374
-0.00767315
-0.00929437
-0.0109868
-0.0127467
-0.0145515
0.00384901
0.00371889
0.00355605
0.00328571
0.00295459
0.00255099
0.00208341
0.00155524
0.000971058
0.000335155
-0.000348149
-0.00107484
-0.00184111
-0.0026436
-0.00347937
-0.00434613
-0.00524247
-0.00616827
-0.0071262
-0.0081226
-0.00917347
-0.0102863
-0.0114441
-0.00175247
-0.00188439
-0.00197282
-0.00213329
-0.00231186
-0.00252107
-0.00275511
-0.003012
-0.00328911
-0.00358374
-0.00389336
-0.00421557
-0.00454835
-0.00489004
-0.00523944
-0.0055958
-0.00595893
-0.00632952
-0.00670956
-0.00710581
-0.00753224
-0.00800717
-0.00853594
-0.00730561
-0.00743237
-0.00746529
-0.00752425
-0.00755688
-0.00757748
-0.00758392
-0.00757635
-0.0075539
-0.00751561
-0.00746051
-0.00738787
-0.00729732
-0.00718897
-0.00706345
-0.00692188
-0.00676588
-0.0065975
-0.0064197
-0.00623676
-0.00605957
-0.00590938
-0.00580408
-0.0130075
-0.0132324
-0.0132107
-0.0131665
-0.0130461
-0.0128718
-0.0126439
-0.0123649
-0.0120358
-0.0116571
-0.0112297
-0.0107545
-0.0102331
-0.00966761
-0.00906085
-0.00841628
-0.00773793
-0.00703016
-0.00629714
-0.00554244
-0.0047691
-0.00398651
-0.00321257
8058.59
8227.7
5025.71
3204.78
9970.1
9891.7
9379.18
8910.84
9335.5
11128.7
11121.2
10938.9
1729.3
2311.29
3280.89
3799.54
1142.75
1099.9
1075.94
1071.19
1280.06
1252.51
1233.7
1223.1
1228.21
1290.44
1346.64
1358.79
817.254
822.272
837.303
843.869
805.952
803.639
801.064
797.853
412.509
440.041
474.177
479.676
-0.336526
-0.359614
-0.374708
-0.379182
-0.304222
-0.329552
-0.346471
-0.351757
0.111625
0.0442109
-0.236034
-0.343156
0.335151
0.320954
-0.102977
-0.27467
0.225367
-0.145664
-0.225525
-0.149967
-0.223172
-0.229855
-0.234775
-0.238514
-0.193097
-0.199903
-0.2062
-0.211356
-0.169338
-0.176728
-0.183392
-0.189278
-0.149424
-0.156718
-0.163555
-0.169823
-0.133016
-0.140112
-0.146874
-0.153211
-0.119208
-0.126004
-0.132592
-0.138864
-0.107516
-0.113986
-0.120308
-0.12642
-0.0974715
-0.103584
-0.109621
-0.115514
-0.0887276
-0.094489
-0.100204
-0.105846
-0.0809831
-0.0863828
-0.0917819
-0.097148
-0.0740208
-0.0790707
-0.0841338
-0.08921
-0.0676593
-0.0723507
-0.0770855
-0.0818566
-0.0617731
-0.0661151
-0.0705034
-0.0749572
-0.0562478
-0.0602327
-0.0642812
-0.0684062
-0.0510103
-0.0546465
-0.0583426
-0.06213
-0.0460063
-0.0492878
-0.0526361
-0.0560793
-0.0412044
-0.044139
-0.0471324
-0.0502251
-0.0365806
-0.0391668
-0.0418108
-0.0445523
-0.0321225
-0.0343702
-0.036667
-0.0390568
-0.0278316
-0.0297437
-0.0316998
-0.0337441
-0.0237071
-0.0252941
-0.0269183
-0.0286228
-0.0197611
-0.0210297
-0.0223316
-0.0237077
-0.015993
-0.0169544
-0.0179473
-0.019006
-0.0124109
-0.0130705
-0.0137624
-0.0145185
-0.00902593
-0.00938756
-0.00978717
-0.0102502
-0.00584019
-0.00591638
-0.00603763
-0.00622635
-0.00272283
-0.00247694
-0.00229155
-0.00218812
1812.5
1667.75
1594.19
1515.11
1468.16
1448.49
1394.97
1876.69
2360.67
2209.74
1180.96
884.252
957.863
1057.28
1147.82
1234.83
1319.65
1384.29
1432.29
7300.68
3397.63
1998.11
1620.09
1614.47
2045.8
3051.22
2791.63
2210
898.768
735.617
799.966
866.808
941.686
1028.56
1127.56
1222.49
1293.72
1344.42
10694.6
10372
8463.34
5473.81
5486.91
5935.27
5806.42
2399.29
638.858
646.262
661.664
678.22
665.102
724.605
859.655
994.843
1104.64
1178.87
1229.29
4307.05
5799.6
7925.21
8119.18
7539.32
6401.78
2818.82
618.232
615.182
604.097
574.424
433.028
171.102
279.258
607.126
853.19
982.201
1060.23
1109.72
1079.52
1098.82
1120.97
1185.1
1195.48
1167.98
954.8
630.461
601.482
570.234
343.606
43.5759
5.24855
41.0018
439.95
768.886
891.538
967.743
1013.53
1213.98
1212.15
1215.6
1221.91
1222.15
1142.62
915.926
634.601
569.057
282.328
1.37432
1.74742
2.79448
18.247
409.656
739.831
850.066
913.121
951.14
1333.65
1305.45
1261.45
1158.66
977.518
719.733
620.237
505.297
180.982
0.246059
0.699017
1.08285
1.4945
5.31672
352.082
748.231
844.156
889.557
919.045
842.985
854.12
817.167
750.134
688.837
649.006
484.937
98.6259
-0.1907
-0.033371
0.210137
0.437477
0.701402
-0.0455087
156.18
735.46
851.15
884.462
907.982
792.737
779.289
744.819
667.629
491.913
158.831
-0.391964
-0.425533
-0.348921
-0.29352
-0.190618
-0.00660429
0.182453
-0.306716
16.4456
494.199
854.431
888.902
910.394
430.537
333.524
206.467
54.1602
-0.426727
-0.414993
-0.375757
-0.406304
-0.398844
-0.387897
-0.345022
-0.213482
-0.353838
-0.436498
-0.201356
141.449
792.091
901.132
923.544
-0.375118
-0.372361
-0.388498
-0.374098
-0.365548
-0.386449
-0.378894
-0.378237
-0.387511
-0.372037
-0.354803
-0.308651
-0.51681
-0.597644
-0.696015
-1.47356
305.969
922.907
948.328
-0.351073
-0.334894
-0.329392
-0.338462
-0.34101
-0.346363
-0.352519
-0.356717
-0.359607
-0.358053
-0.355721
-0.357549
-0.507424
-0.615197
-0.590355
-0.787216
61.5518
962.167
986.172
-0.322599
-0.226331
-0.237313
-0.310586
-0.316212
-0.323816
-0.329016
-0.333566
-0.336316
-0.337732
-0.341464
-0.355755
-0.427713
-0.375006
-0.477467
-0.518882
17.6302
1012
1034.8
-0.191452
-0.177588
-0.284479
-0.294708
-0.298006
-0.302825
-0.307449
-0.311082
-0.312912
-0.313238
-0.314231
-0.320179
-0.338055
-0.233904
-0.344315
-0.41446
0.413255
795.32
1088.61
-0.26239
-0.26864
-0.27203
-0.275327
-0.279231
-0.283429
-0.28717
-0.289623
-0.289929
-0.287678
-0.283099
-0.277071
-0.2673
-0.175223
-0.274907
-0.294493
-0.25405
387.055
1141.12
-0.242843
-0.247896
-0.25248
-0.256924
-0.261241
-0.265187
-0.268223
-0.269568
-0.268293
-0.263532
-0.254416
-0.240434
-0.220886
-0.160184
-0.229815
-0.237054
-0.129751
506.084
1202.36
-0.218878
-0.227058
-0.233628
-0.239277
-0.244177
-0.248195
-0.250897
-0.251551
-0.249184
-0.242741
-0.231124
-0.213553
-0.193213
-0.164957
-0.219759
-0.217127
7.57294
1072.03
1268.22
-0.197973
-0.207808
-0.215859
-0.222605
-0.228225
-0.232638
-0.235481
-0.236084
-0.23348
-0.226573
-0.214461
-0.196793
-0.178881
-0.17571
-0.236602
-0.247966
59.3062
1188.74
1330.78
-0.179329
-0.190301
-0.199459
-0.207165
-0.213584
-0.21867
-0.222135
-0.223405
-0.221591
-0.215636
-0.204964
-0.189619
-0.175563
-0.189839
-0.239362
-0.243101
61.9162
525.636
1378.31
-0.162971
-0.174581
-0.184527
-0.193055
-0.200312
-0.206293
-0.210808
-0.213426
-0.213437
-0.209941
-0.202569
-0.191833
-0.182325
-0.205176
-0.253763
-0.312355
36.5695
2.92462
1397.37
-0.148635
-0.160546
-0.171027
-0.180242
-0.188332
-0.195343
-0.201195
-0.205645
-0.208264
-0.208477
-0.206172
-0.202626
-0.201778
-0.233381
-0.282978
-0.434733
-0.687485
-0.840887
1411.09
-0.136027
-0.148006
-0.158827
-0.168598
-0.177466
-0.185535
-0.192838
-0.199332
-0.204897
-0.209423
-0.213254
-0.218079
-0.228461
-0.267452
-0.306386
-0.407125
-0.544514
-0.652937
1383.94
-0.124856
-0.136737
-0.147736
-0.157925
-0.167464
-0.176505
-0.185189
-0.193649
-0.202047
-0.21072
-0.220502
-0.2331
-0.252958
-0.29343
-0.308002
-0.37335
-0.392331
-0.524168
1200.26
-0.114849
-0.126507
-0.137542
-0.148002
-0.158059
-0.1679
-0.177743
-0.187846
-0.198561
-0.21051
-0.224824
-0.243157
-0.268235
-0.305313
-0.321092
-0.344825
-0.298656
-0.400401
1142.87
-0.105766
-0.117102
-0.128039
-0.138614
-0.149003
-0.159417
-0.170115
-0.181415
-0.193746
-0.207789
-0.224605
-0.245388
-0.272257
-0.305904
-0.335764
-0.317663
-0.26702
-0.325753
1287.84
-0.0974043
-0.108329
-0.119043
-0.129573
-0.140096
-0.150829
-0.162043
-0.174068
-0.187326
-0.20242
-0.220084
-0.241234
-0.265955
-0.292902
-0.320626
-0.301397
-0.267992
-0.298564
1463.06
-0.0895958
-0.100031
-0.110403
-0.120734
-0.13119
-0.141982
-0.15337
-0.165659
-0.179221
-0.194528
-0.212145
-0.232214
-0.252781
-0.27064
-0.283781
-0.293651
-0.279597
0.00720829
1514.26
-0.0822112
-0.0920839
-0.102006
-0.111993
-0.122199
-0.132818
-0.144082
-0.156266
-0.1697
-0.184819
-0.202132
-0.220991
-0.238748
-0.251131
-0.255423
-0.287096
-0.292292
-0.320794
1252.73
-0.0751504
-0.0843975
-0.0937733
-0.103288
-0.113078
-0.123313
-0.134194
-0.145966
-0.158947
-0.173657
-0.190731
-0.210035
-0.22956
-0.244632
-0.246104
-0.273962
-0.172061
-0.761727
82.1894
-0.0683434
-0.0769102
-0.0856567
-0.0945855
-0.103813
-0.113482
-0.123769
-0.134899
-0.147211
-0.161313
-0.17802
-0.198151
-0.220377
-0.244596
-0.264907
-0.24623
-0.339508
-0.933794
424.632
-0.0617443
-0.0695862
-0.0776321
-0.0858781
-0.0944198
-0.103378
-0.112906
-0.123222
-0.134725
-0.148199
-0.164055
-0.18399
-0.20643
-0.232362
-0.272511
-0.278739
-0.372134
-0.470201
1726.32
-0.0553294
-0.0624106
-0.0696999
-0.0771866
-0.0849472
-0.0930815
-0.101724
-0.111087
-0.121592
-0.133623
-0.149255
-0.169208
-0.192714
-0.213071
-0.234701
-0.290969
-0.160027
2.2453
2044.4
-0.0490872
-0.0553837
-0.0618765
-0.0685486
-0.0754572
-0.0826855
-0.0903613
-0.0986536
-0.107863
-0.1191
-0.133632
-0.15296
-0.177464
-0.198611
-0.222005
-0.367524
-0.112021
61.1654
2099.22
-0.0430206
-0.0485198
-0.0541935
-0.0600161
-0.0660234
-0.0722851
-0.078956
-0.0859248
-0.0939124
-0.103737
-0.11665
-0.134233
-0.15858
-0.186795
-0.234525
-0.387851
-0.0535159
254.245
2163.25
-0.03714
-0.0418425
-0.0466911
-0.0516503
-0.056732
-0.0619665
-0.0673183
-0.0731523
-0.0796754
-0.0876192
-0.0979985
-0.111943
-0.132806
-0.1689
-0.235106
-0.344518
-0.0950057
349.716
2229.27
-0.0314619
-0.0353797
-0.0394169
-0.0435254
-0.0477002
-0.0519208
-0.0561595
-0.0606015
-0.0654319
-0.0710297
-0.0778018
-0.0859799
-0.097715
-0.124679
-0.169813
-0.242439
-0.240739
281.769
2295.51
-0.0260023
-0.0291617
-0.0324157
-0.0357073
-0.0390053
-0.0422477
-0.0453963
-0.0485151
-0.0516397
-0.0547802
-0.057696
-0.0595543
-0.0585136
-0.0604991
-0.0628004
-0.116684
-0.197515
83.0943
1323.93
-0.0207776
-0.0232107
-0.0257243
-0.0282582
-0.0307489
-0.0330761
-0.0352489
-0.0372066
-0.0388573
-0.0399771
-0.0399476
-0.0373688
-0.0297575
-0.0146958
-0.00300422
-0.0466798
-0.125128
0.383333
13.3187
-0.0157877
-0.0175363
-0.019364
-0.0211867
-0.0229456
-0.024521
-0.0258815
-0.0269297
-0.027518
-0.0273637
-0.0258829
-0.0219782
-0.014231
-0.00213076
0.0092525
-0.0223275
-0.0641274
0.153554
0.771703
-0.0110464
-0.0121502
-0.0133615
-0.0145892
-0.0156875
-0.0166407
-0.0173783
-0.0178023
-0.0177731
-0.0170639
-0.0152874
-0.0118754
-0.00629503
0.000937021
0.00696687
0.00463375
-0.0241983
0.00650671
0.382629
-0.00656959
-0.00709147
-0.00777254
-0.00848653
-0.00899066
-0.00943479
-0.00972961
-0.00979186
-0.00952557
-0.00879978
-0.00743386
-0.00523366
-0.00218042
0.00116049
0.00334895
0.00393705
0.00416248
0.015753
0.0667305
-0.00208354
-0.00198089
-0.00204146
-0.00230405
-0.00258061
-0.00273425
-0.0027771
-0.0027034
-0.00249103
-0.00211246
-0.00154662
-0.000815342
-6.2027e-05
0.00033138
-0.000157795
-0.00094097
0.00349866
0.0314391
0.0718933
)
;

boundaryField
{
    leftWall
    {
        type            fixedFluxPressure;
        gradient        uniform 0;
        value           nonuniform List<scalar> 
50
(
6196.71
6186.91
6171.57
6149.77
6120
6057.24
3615.1
1307
1300.84
1290.08
1277.15
1261.79
1242.55
1058.18
155.398
0.569763
0.560604
0.536933
0.500025
0.456076
0.411234
0.369191
0.331161
0.297242
0.267115
0.240356
0.216514
0.195198
0.176059
0.158836
0.143123
0.128851
0.115821
0.103879
0.0928852
0.0827302
0.0733065
0.0645318
0.0563212
0.0486123
0.0413338
0.0344355
0.0278576
0.0215581
0.0154797
0.0095877
0.00384901
-0.00175247
-0.00730561
-0.0130075
)
;
    }
    rightWall
    {
        type            fixedFluxPressure;
        gradient        uniform 0;
        value           nonuniform List<scalar> 
50
(
1585.67
1583.33
1577.96
1569.44
1566.44
1550.21
1522.32
1488.28
1432.29
1344.42
1229.29
1109.72
1013.53
951.14
919.045
907.982
910.394
923.544
948.328
986.172
1034.8
1088.61
1141.12
1202.36
1268.22
1330.78
1378.31
1397.37
1411.09
1383.94
1200.26
1142.87
1287.84
1463.06
1514.26
1252.73
82.1894
424.632
1726.32
2044.4
2099.22
2163.25
2229.27
2295.51
1323.93
13.3187
0.771703
0.382629
0.0667305
0.0718933
)
;
    }
    lowerWall
    {
        type            fixedFluxPressure;
        gradient        uniform 0;
        value           nonuniform List<scalar> 
62
(
6196.71
6204.55
6193.98
6173.77
6145.5
6109.21
6065.66
6016.37
5963.56
5910.39
5861.66
5824.76
5811.02
5837.58
5928.67
6115.21
6429.21
6886.51
7466.1
8102.52
8706.45
9185.21
9563.56
9563.56
9583.24
9572.96
9546.51
9509.22
9455.66
9376.89
9270.26
8058.59
8227.7
5025.71
3204.78
1655.5
1652.07
1643.69
1637.23
1638.61
1649.95
1671.96
1703.27
1655.5
1583.52
1518.25
1453.14
1402.29
1369.68
1351.75
1354.74
1434.08
1704.36
2039.14
2094.73
1912.46
1703.04
1599.65
1580.77
1585.69
1587.18
1585.67
)
;
    }
    atmosphere
    {
        type            totalPressure;
        rho             rho;
        psi             none;
        gamma           1;
        p0              uniform 0;
        value           nonuniform List<scalar> 
46
(
-0.0159429
-0.016488
-0.0164159
-0.0162927
-0.0160813
-0.0157971
-0.0154412
-0.0150157
-0.0145221
-0.0139619
-0.0133365
-0.0126481
-0.0118995
-0.011094
-0.010236
-0.00933065
-0.00838389
-0.00740217
-0.00639201
-0.00535898
-0.00430601
-0.00323205
-0.00217081
-0.001338
-0.00096729
-0.000675262
-0.000456261
-0.000310887
-7.5283e-05
0
0
0
0
0
0
0
0
0
0
0
0
0
0
0
0
0
)
;
    }
    defaultFaces
    {
        type            empty;
    }
}


// ************************************************************************* //
