/*--------------------------------*- C++ -*----------------------------------*\
| =========                 |                                                 |
| \\      /  F ield         | OpenFOAM: The Open Source CFD Toolbox           |
|  \\    /   O peration     | Version:  2312                                  |
|   \\  /    A nd           | Website:  www.openfoam.com                      |
|    \\/     M anipulation  |                                                 |
\*---------------------------------------------------------------------------*/
FoamFile
{
    version     2.0;
    format      ascii;
    arch        "LSB;label=32;scalar=64";
    class       volScalarField;
    location    "2.7";
    object      alpha.oil;
}
// * * * * * * * * * * * * * * * * * * * * * * * * * * * * * * * * * * * * * //

dimensions      [0 0 0 0 0 0 0];

internalField   nonuniform List<scalar> 
2268
(
7.83008e-10
7.21408e-10
5.80806e-10
3.68106e-10
1.98923e-10
2.67236e-10
2.67316e-10
1.19012e-09
9.50268e-10
2.42684e-10
1.01443e-10
8.834e-11
8.75012e-11
8.82154e-11
8.96686e-11
9.48348e-11
1.154e-10
1.79331e-10
4.4332e-10
6.0146e-09
6.1082e-07
3.7341e-05
5.52947e-05
8.71522e-10
3.61087e-10
2.84967e-10
1.96424e-10
1.79217e-10
1.79224e-10
5.71516e-08
6.0618e-08
4.37239e-09
5.60961e-10
4.3915e-10
3.95279e-10
3.00568e-10
2.81381e-10
2.61564e-10
2.35441e-10
2.40527e-10
3.53321e-10
5.45037e-10
1.14931e-09
2.64077e-08
2.09099e-05
5.52888e-05
1.36661e-10
1.3707e-10
1.37052e-10
1.37447e-10
9.37124e-08
2.379e-06
1.66069e-06
6.08429e-10
8.8208e-10
6.16478e-10
6.53082e-10
5.99032e-10
3.10877e-10
4.11207e-10
2.88235e-10
2.445e-10
2.31571e-10
2.63346e-10
2.82709e-10
9.59819e-10
1.0271e-08
1.06431e-06
1.08408e-05
5.79803e-05
0.000855924
0.000223808
0.000288224
0.000154011
2.62692e-05
6.0827e-10
6.08332e-10
6.07924e-10
6.08796e-10
6.08271e-10
2.4618e-09
3.72458e-07
2.10071e-07
4.79391e-07
1.05e-07
7.50189e-11
8.08074e-11
3.96079e-10
9.23132e-09
3.21729e-08
2.98394e-08
9.6356e-08
0.00387696
0.00735065
0.00574116
0.00249446
0.00021675
5.59262e-05
0.000174619
0.000252858
0.000249532
0.000190012
0.000111277
1.13647e-08
3.91682e-07
6.50404e-07
1.43484e-06
1.38078e-06
2.77028e-07
1.52726e-07
4.65359e-08
1.72076e-07
1.06674e-07
9.3873e-07
9.65669e-06
0.00735399
0.00735395
0.00691166
0.00191949
3.92447e-05
0.000234022
0.00067843
0.000678412
0.00067843
0.000678411
0.000518221
0.000235077
3.80445e-07
3.79779e-07
3.80445e-07
3.7978e-07
7.05601e-07
3.43402e-06
4.85976e-08
5.46317e-08
5.38403e-08
2.02116e-06
1.61814e-05
0.00448351
0.00099006
4.04621e-05
6.95425e-07
9.82629e-05
0.000342718
0.00047182
0.000429469
0.000334841
0.000272974
0.000402627
0.00076534
0.0119508
0.0391006
0.0381483
0.0118713
6.92445e-07
3.66924e-05
0.00192996
0.00403078
0.00483429
0.000172665
0.000846076
0.00206266
0.000155879
3.54427e-08
3.63432e-05
6.89127e-05
4.67664e-05
3.50707e-05
2.0232e-05
8.46486e-06
5.28436e-05
0.00022416
0.0051065
0.0112148
0.0529282
0.0981142
0.0752186
0.0232804
0.0117776
0.0427387
0.042812
0.0428101
0.016763
0.00994214
0.040369
0.040374
0.0402988
0.0410702
0.0423862
0.0423422
0.0423035
0.0409979
0.034333
0.0284144
0.027885
0.027885
0.027885
0.0278851
0.0278851
0.0284374
0.0301906
0.0347301
0.0367772
0.0461857
0.0486467
0.058866
0.0839263
0.118751
0.160865
0.192789
0.191839
0.157327
0.0959072
0.0459025
0.027885
0.027885
0.0285859
0.0337477
0.0390597
0.0864697
0.0774146
0.116749
0.0462181
0.161193
0.257171
0.318028
0.388159
0.502377
0.525078
0.525079
0.518511
0.495309
0.426286
0.333044
0.248125
0.26084
0.245598
0.189641
0.262805
0.402552
0.497974
0.215508
0.330252
0.330313
0.330346
0.327821
0.411921
0.525079
0.41213
0.33037
0.527006
0.527119
0.527012
0.526962
0.526965
0.493899
0.24944
0.250834
0.498657
0.531574
0.363257
0.325642
0.222056
0.187239
0.0706572
0.110422
0.508772
0.124985
0.0171705
0.328322
0.527045
0.527125
0.508291
0.510083
0.39997
0.145021
0.119088
0.383988
0.534184
0.363129
0.112997
-8.07938e-23
-5.71306e-11
-1.21331e-13
-3.22458e-09
0.302979
0.0567791
0.0167622
0.240929
0.527172
0.527045
0.527128
0.421609
0.193454
0.0757985
0.0957078
0.307053
0.534098
0.262983
0.013752
-2.5532e-10
4.50593e-07
2.93259e-06
1.00245e-05
0.151466
0.0134808
0.0167232
0.210342
0.448818
0.446823
0.377619
0.189932
0.100169
0.0759532
0.0757492
0.410646
0.534232
2.38802e-06
2.42847e-06
-8.56434e-14
-1.54765e-10
7.13039e-07
2.97198e-06
0.104744
0.00389157
0.0195528
0.0353624
0.11006
0.125844
0.305297
0.204221
0.0895942
0.0757857
0.216907
0.503446
0.534135
0.000819374
7.17677e-06
4.02618e-08
2.20808e-06
2.40093e-07
8.83417e-10
3.76115e-07
2.12764e-06
2.13323e-06
2.13856e-06
2.14465e-06
0.0191768
0.0927941
0.240072
0.267611
0.268184
0.207081
0.0370439
0.0106503
0.023466
0.0410978
0.0388685
0.0126618
0.000156268
4.21694e-06
-5.43148e-12
3.03291e-25
2.02593e-21
-7.94909e-15
-3.04507e-12
2.42268e-20
0.019179
0.0869362
0.134691
0.132515
0.135008
0.317162
0.315426
0.127537
0.0182213
0.00226843
0.00230291
0.00619275
0.0104595
0.0107582
0.012624
2.95696e-05
1.77096e-06
-7.82876e-11
2.34221e-22
0.0159773
0.103653
0.184081
0.32872
0.578441
0.774995
0.840703
0.801853
0.686988
0.544024
0.399016
0.323987
0.295058
0.314124
0.390366
0.412237
0.42158
0.43613
0.503899
0.256743
0.124863
0.0174002
0.0260775
0.134354
0.536544
0.799563
0.948444
0.982876
0.998131
0.999295
0.999276
0.995121
0.984711
0.975962
0.973157
0.961972
0.903795
0.863987
0.870448
0.910758
0.917939
0.944899
0.923028
0.901866
0.815138
0.42898
0.438706
0.690743
0.910751
0.996631
0.999295
0.9993
0.999299
0.999301
0.9993
0.999302
0.9993
0.999302
0.999301
0.999302
0.99561
0.96477
0.968317
0.988943
0.959041
0.922983
0.922978
0.922977
0.753719
0.626968
0.62666
0.664369
0.944352
0.998654
0.984017
0.980246
0.994341
0.99853
0.997484
0.997587
0.998919
0.999293
0.998837
0.998805
0.998808
0.998805
0.998808
0.993531
0.838613
0.907082
0.859688
0.746993
0.674984
0.678989
0.882187
0.962781
0.970027
0.775059
0.497812
0.546956
0.740462
0.840013
0.884815
0.933878
0.979396
0.995277
0.995656
0.996279
0.99733
0.998517
0.998789
0.285819
0.46922
0.628306
0.693865
0.719563
0.720547
0.668721
0.570213
0.508413
0.484716
0.32605
0.120182
0.11017
0.133439
0.173153
0.249888
0.394873
0.535693
0.56256
0.577029
0.650977
0.778862
0.894803
0.145325
0.0231871
0.00953527
0.0275542
0.0402865
0.0330493
4.38019e-10
4.30048e-10
4.38019e-10
4.22816e-10
0.0261856
0.0647776
0.0455006
0.00454762
0.000166933
7.62915e-16
4.42884e-15
3.37763e-19
-8.19278e-32
-1.26657e-36
-1.37969e-09
0.029287
0.120899
0.00058824
7.46262e-23
1.14364e-21
-1.48311e-22
-4.84008e-23
5.27281e-22
5.22194e-09
5.10102e-06
6.76032e-06
1.73756e-06
1.12244e-13
7.33144e-17
2.01057e-24
7.21786e-17
4.23326e-10
9.38771e-07
4.85803e-07
7.71859e-09
2.11426e-19
1.26337e-19
5.6036e-12
2.37752e-08
3.07344e-23
1.41019e-06
0.000121395
0.000290316
0.000169259
3.4508e-05
5.61099e-05
3.60534e-05
2.39969e-05
1.30197e-05
8.87868e-06
5.09118e-06
2.17253e-06
6.23394e-07
1.16035e-07
5.91352e-07
3.96428e-07
8.44475e-07
1.77023e-06
1.76643e-06
1.81006e-06
1.76965e-06
1.00436e-06
2.10098e-06
1.445e-06
0.000115462
0.000289347
8.98706e-06
1.37524e-06
2.10794e-05
0.000123851
8.1024e-05
5.72867e-06
-2.74485e-09
8.24808e-07
1.09143e-06
6.57462e-07
2.92378e-08
8.10511e-08
8.81944e-09
-3.0619e-09
1.02817e-12
7.07993e-06
1.73153e-05
1.74713e-05
4.97157e-06
2.53065e-07
3.93756e-08
5.09803e-05
1.38935e-06
5.21913e-07
1.42219e-06
5.96281e-05
0.00014328
0.000142611
2.36848e-05
-6.34336e-13
-1.00767e-08
9.49888e-08
1.80856e-07
3.70299e-09
4.69449e-09
4.38111e-10
6.9652e-06
3.59531e-05
4.50876e-05
1.89817e-05
9.83555e-07
9.88725e-07
1.4549e-06
3.93685e-08
3.68729e-08
3.72909e-08
4.16387e-08
6.3275e-06
0.000144063
0.000143538
0.000112627
1.17577e-05
2.20658e-07
9.19979e-06
2.85934e-05
3.99629e-05
3.27096e-05
3.30232e-05
1.46663e-05
1.56309e-05
3.31936e-05
4.49686e-05
2.70702e-05
1.66191e-06
6.14741e-06
7.96141e-06
5.98647e-07
6.78561e-07
2.60966e-07
7.22001e-08
6.64787e-05
0.000143662
0.000120882
6.69789e-06
1.82092e-07
2.77906e-06
4.8636e-05
5.66253e-05
5.65339e-05
5.3474e-05
1.34916e-05
3.23551e-05
9.69479e-05
9.72075e-05
5.96792e-05
8.63923e-07
6.37417e-06
3.20666e-05
2.72921e-05
1.06746e-06
5.73131e-07
4.60837e-07
1.04614e-07
4.88199e-05
0.000102488
6.05731e-06
7.25295e-08
1.96855e-07
2.30803e-05
5.66009e-05
5.66185e-05
1.9359e-05
4.81561e-06
1.37403e-05
0.000107836
0.000108015
0.00010666
1.26037e-05
2.19433e-07
2.1992e-05
3.35516e-05
2.61609e-05
3.36065e-06
7.25463e-06
9.77498e-06
1.20997e-05
2.23974e-05
4.48093e-08
1.06042e-07
6.37426e-08
1.03092e-06
4.16248e-05
5.65893e-05
2.24157e-05
5.18355e-08
5.21344e-08
5.08995e-06
6.53476e-05
9.16779e-05
3.15454e-05
9.81622e-08
2.34458e-07
1.08719e-05
1.96968e-05
3.13821e-06
3.02849e-05
3.20264e-05
3.22018e-05
2.62161e-05
1.98693e-06
1.44075e-08
1.47007e-08
3.05852e-07
8.21012e-06
5.36545e-05
5.09789e-05
1.55787e-07
5.39363e-08
5.25266e-08
2.02191e-07
1.08885e-06
2.12151e-06
2.78599e-07
1.00903e-07
3.17294e-07
2.96086e-07
6.16584e-08
8.93186e-08
2.77975e-05
2.77379e-05
1.51149e-05
4.26429e-08
6.22728e-08
4.01481e-08
3.41608e-08
1.91258e-06
1.22289e-05
4.52918e-05
2.03048e-05
1.36093e-07
5.27058e-08
5.2746e-08
5.15798e-08
5.84878e-08
7.50493e-08
3.59578e-08
3.86028e-08
1.49994e-07
1.99588e-07
5.70965e-08
9.96334e-09
2.54318e-08
5.16485e-09
2.69259e-09
2.66019e-09
2.56777e-09
1.96925e-08
1.11087e-07
7.80995e-07
2.49388e-06
3.5204e-06
9.88453e-07
4.56418e-07
4.27268e-07
1.51577e-07
1.2831e-08
1.70273e-08
2.6671e-08
1.84259e-08
1.44868e-08
2.14762e-08
3.47667e-08
3.12873e-08
1.30577e-08
4.05169e-08
1.4189e-08
2.80443e-09
2.98779e-09
9.89983e-09
1.06623e-08
7.31652e-09
1.79453e-08
8.91679e-08
8.83655e-08
9.89213e-08
4.00504e-07
5.01631e-07
2.25459e-07
1.06619e-08
1.12298e-08
1.62903e-08
1.23236e-08
7.37777e-09
6.56953e-09
9.79033e-09
1.16501e-08
8.33398e-09
6.44244e-08
3.45225e-08
2.93652e-09
3.30027e-09
3.23359e-09
4.14828e-09
5.3216e-09
9.33047e-09
1.35758e-08
1.80185e-08
3.2716e-08
7.24366e-08
9.74742e-08
4.75715e-08
1.91353e-08
8.55912e-09
8.00423e-09
6.28174e-09
3.9463e-09
2.9839e-09
3.55457e-09
4.32006e-09
4.05005e-09
5.32357e-08
1.15288e-08
2.91314e-09
2.91922e-09
2.89332e-09
3.5776e-09
5.21154e-09
7.34309e-09
9.10649e-09
1.087e-08
1.18899e-08
1.09045e-08
1.06239e-08
1.00196e-08
9.23906e-09
5.18264e-09
3.89455e-09
2.93382e-09
1.99514e-09
1.62267e-09
1.75396e-09
2.03608e-09
2.16781e-09
2.71457e-08
3.59844e-09
3.13426e-09
3.10776e-09
2.80942e-09
2.73392e-09
3.34661e-09
3.74428e-09
4.36425e-09
4.83063e-09
4.99936e-09
4.88587e-09
4.50419e-09
3.8111e-09
2.93457e-09
2.1256e-09
1.58479e-09
1.25053e-09
9.84687e-10
8.88325e-10
9.52309e-10
1.08224e-09
1.22923e-09
2.95342e-08
6.0546e-09
2.81445e-09
2.90449e-09
2.21839e-09
1.70027e-09
1.58199e-09
1.6559e-09
1.63504e-09
1.60879e-09
1.55629e-09
1.48421e-09
1.34464e-09
1.1346e-09
9.11355e-10
7.19863e-10
6.02731e-10
5.24033e-10
4.71135e-10
4.66243e-10
5.06949e-10
5.72902e-10
6.72003e-10
7.43863e-08
1.26373e-08
2.33517e-09
2.46774e-09
1.94957e-09
1.35189e-09
1.01089e-09
8.38809e-10
7.30333e-10
6.28924e-10
5.26831e-10
4.48443e-10
3.83952e-10
3.29056e-10
2.81102e-10
2.44882e-10
2.22294e-10
2.08465e-10
2.04582e-10
2.1306e-10
2.3649e-10
2.74499e-10
3.26128e-10
8.02686e-08
3.31454e-08
2.33557e-09
2.35213e-09
2.09164e-09
1.33266e-09
9.35964e-10
7.4272e-10
5.97158e-10
4.45953e-10
3.17685e-10
2.28049e-10
1.66812e-10
1.26085e-10
1.02973e-10
8.86928e-11
8.05774e-11
7.73149e-11
7.73391e-11
8.27283e-11
9.39511e-11
1.11289e-10
1.40174e-10
8.03638e-08
4.93283e-08
2.3382e-09
2.35011e-09
2.36432e-09
1.81688e-09
1.38802e-09
1.09721e-09
8.79789e-10
6.52239e-10
4.27273e-10
2.60599e-10
1.51508e-10
8.76955e-11
5.3049e-11
3.67157e-11
2.91738e-11
2.58885e-11
2.50444e-11
2.67346e-11
3.11796e-11
3.9864e-11
5.25413e-11
5.97736e-08
3.22023e-08
2.40444e-09
2.58735e-09
2.8703e-09
2.41533e-09
2.00363e-09
1.80294e-09
1.6764e-09
1.39551e-09
9.64877e-10
5.56053e-10
2.9648e-10
1.44515e-10
6.4271e-11
2.86332e-11
1.45456e-11
9.30927e-12
7.54396e-12
7.59946e-12
8.9039e-12
1.24162e-11
1.80426e-11
1.08246e-08
1.16571e-08
2.86567e-09
3.26952e-09
3.63569e-09
2.94731e-09
2.73974e-09
2.81036e-09
2.80734e-09
2.76497e-09
2.00683e-09
1.19696e-09
6.46103e-10
3.15039e-10
1.32748e-10
4.8763e-11
1.7036e-11
6.32819e-12
2.97535e-12
2.07996e-12
2.37419e-12
3.61672e-12
6.33347e-12
1.08414e-08
1.25349e-08
7.31315e-09
4.41941e-09
4.50794e-09
4.97289e-09
1.0086e-08
1.09773e-08
3.61148e-09
3.73019e-09
3.08384e-09
1.95943e-09
1.14061e-09
5.89307e-10
2.65533e-10
9.70647e-11
3.11457e-11
9.34244e-12
2.63831e-12
9.25887e-13
6.99125e-13
1.11956e-12
2.41471e-12
1.21152e-08
1.0967e-08
1.1142e-08
7.76562e-09
8.32892e-09
2.92595e-08
8.4446e-08
9.09609e-08
1.6763e-08
2.99952e-09
2.86207e-09
2.19684e-09
1.49518e-09
9.05592e-10
4.40172e-10
1.69863e-10
5.38341e-11
1.57753e-11
4.0719e-12
9.34584e-13
3.68445e-13
4.17062e-13
1.1146e-12
3.12766e-08
1.16314e-08
1.27853e-08
1.3325e-08
1.9262e-08
1.87518e-07
7.73544e-07
7.7801e-07
1.65757e-07
3.9631e-09
1.20775e-09
1.49699e-09
1.42669e-09
1.07075e-09
5.91272e-10
2.44211e-10
8.32534e-11
2.38833e-11
5.82442e-12
1.26798e-12
3.23948e-13
1.94759e-13
5.62618e-13
3.37096e-08
1.44282e-08
1.23068e-08
1.70813e-08
3.61012e-08
5.49777e-07
8.10485e-07
8.1052e-07
8.10548e-07
4.82127e-08
9.26334e-10
9.26809e-10
1.1477e-09
1.02673e-09
6.45938e-10
2.87134e-10
1.04139e-10
3.10273e-11
7.60383e-12
1.54696e-12
3.33153e-13
1.1395e-13
2.51103e-13
3.36595e-08
1.45952e-08
1.23034e-08
1.23045e-08
5.5385e-08
6.27933e-07
8.10463e-07
8.10462e-07
8.10383e-07
1.6614e-07
9.26733e-10
9.26817e-10
9.8568e-10
8.81209e-10
5.81131e-10
2.764e-10
1.06993e-10
3.345e-11
8.03214e-12
1.63388e-12
3.53922e-13
6.54465e-14
1.00444e-13
4.28823e-08
4.39181e-08
1.84924e-08
1.2306e-08
3.58176e-08
4.09217e-07
8.10463e-07
8.06846e-07
2.44948e-07
5.23128e-10
9.77795e-10
1.05475e-09
9.01692e-10
7.14984e-10
4.57874e-10
2.22019e-10
8.82996e-11
2.87042e-11
7.4123e-12
1.4722e-12
2.90839e-13
4.94129e-14
4.02455e-14
4.2842e-08
1.12947e-07
1.49388e-07
6.46526e-08
4.02979e-08
1.89661e-07
3.88772e-07
1.68643e-07
5.22726e-10
5.22963e-10
1.34226e-09
1.31795e-09
8.92984e-10
6.00323e-10
3.30474e-10
1.50351e-10
5.84637e-11
1.88542e-11
5.13242e-12
1.10563e-12
2.26151e-13
2.41792e-14
1.42999e-14
7.1397e-08
1.37662e-07
2.56443e-07
2.43323e-07
2.1499e-07
1.61287e-07
7.13653e-08
5.42697e-10
5.44835e-10
5.42304e-10
1.49965e-09
1.45699e-09
8.4728e-10
4.81742e-10
2.2031e-10
8.66096e-11
3.00715e-11
9.25097e-12
2.5944e-12
5.91555e-13
1.0977e-13
1.70756e-14
4.85076e-15
3.45722e-07
1.49124e-07
2.42688e-07
2.67038e-07
2.66968e-07
2.32903e-07
7.8807e-08
7.22891e-09
1.54992e-09
4.79941e-10
1.28219e-09
1.24278e-09
7.00833e-10
3.40088e-10
1.27533e-10
4.02408e-11
1.1496e-11
3.08139e-12
8.06292e-13
2.14987e-13
5.03554e-14
5.6729e-15
1.59801e-15
3.91579e-07
2.01595e-07
2.00042e-08
5.81289e-08
4.70399e-08
7.44481e-08
6.36249e-08
1.25907e-08
2.13779e-09
2.98606e-10
6.91335e-10
7.24329e-10
4.44417e-10
1.9893e-10
6.24025e-11
1.51355e-11
3.13618e-12
6.16416e-13
1.53963e-13
5.0732e-14
1.1179e-14
2.27148e-15
4.80051e-16
3.74842e-07
1.28405e-07
6.08517e-09
-9.60176e-13
-9.1939e-14
3.53253e-30
2.56043e-34
4.80463e-09
1.69049e-09
1.18918e-10
2.30632e-10
2.50769e-10
1.81966e-10
8.10603e-11
2.27085e-11
4.19739e-12
5.65821e-13
6.87028e-14
1.49595e-14
7.70557e-15
2.24557e-15
5.01758e-16
1.34887e-16
1.03459e-08
-5.18899e-28
4.16473e-10
6.32163e-10
5.40691e-11
1.63334e-12
2.35579e-14
9.98741e-17
4.0388e-10
1.00441e-11
2.09263e-11
4.13797e-11
3.52255e-11
1.54373e-11
3.78133e-12
5.14039e-13
4.41066e-14
3.24277e-15
7.76347e-16
7.39385e-16
3.73837e-16
1.09301e-16
3.42936e-17
0.0311646
0.104753
0.109667
0.108541
0.0240215
0.121434
0.138613
0.0581226
0.541825
0.56217
0.642924
0.649452
0.965495
0.966047
0.966056
0.966084
0.943452
0.943451
0.943427
0.943309
0.94545
0.943451
0.968302
0.998604
0.998789
0.998749
0.998758
0.998676
0.957637
0.977996
0.989769
0.997348
0.222512
0.30561
0.406871
0.536514
1.75779e-24
2.03897e-23
4.02779e-13
1.97374e-13
2.39815e-06
3.09326e-06
4.5159e-06
4.7207e-06
2.13484e-07
7.74699e-10
1.26096e-05
1.60878e-05
5.96513e-07
1.18522e-09
9.63897e-10
1.13347e-08
8.9209e-07
9.64382e-10
9.65648e-10
1.23421e-05
3.46358e-06
2.75594e-07
7.61038e-06
5.43451e-05
7.68521e-08
1.33148e-06
6.39549e-06
2.80123e-06
7.88214e-08
6.78062e-08
8.82655e-09
9.04263e-09
2.38258e-08
1.75728e-08
1.34914e-08
1.10909e-08
6.91445e-09
8.0277e-09
1.0157e-08
1.07945e-08
4.97952e-09
6.665e-09
8.2233e-09
8.35796e-09
4.12184e-09
5.11088e-09
5.76605e-09
6.00969e-09
3.12694e-09
3.65014e-09
4.01284e-09
4.04753e-09
2.16179e-09
2.38183e-09
2.53843e-09
2.649e-09
1.35173e-09
1.46256e-09
1.57087e-09
1.61058e-09
7.56553e-10
8.20478e-10
8.80336e-10
9.27272e-10
3.80555e-10
4.18118e-10
4.58042e-10
4.8749e-10
1.71058e-10
1.92656e-10
2.18357e-10
2.39202e-10
6.95065e-11
8.27822e-11
9.85442e-11
1.13135e-10
2.70405e-11
3.39596e-11
4.49069e-11
5.412e-11
1.08245e-11
1.52373e-11
2.12037e-11
2.81012e-11
4.9001e-12
7.36019e-12
1.16335e-11
1.65517e-11
2.64039e-12
4.52386e-12
7.26064e-12
1.05738e-11
1.31432e-12
2.64887e-12
4.38874e-12
6.89699e-12
7.80356e-13
1.44662e-12
2.62977e-12
4.08434e-12
3.40671e-13
6.74235e-13
1.34444e-12
2.23127e-12
1.51309e-13
2.94493e-13
6.05697e-13
1.09762e-12
4.04631e-14
1.08343e-13
2.63822e-13
4.57225e-13
1.55539e-14
3.6395e-14
8.26172e-14
1.76005e-13
3.39612e-15
8.85799e-15
2.62893e-14
5.36076e-14
8.37269e-16
2.19494e-15
5.23696e-15
1.47163e-14
1.60859e-16
4.04149e-16
1.31968e-15
3.6469e-15
2.99458e-17
8.37683e-17
2.66949e-16
7.64542e-16
0.0089563
0.000760203
0.00656207
-2.18834e-21
-1.11949e-25
1.9153e-25
0.00977753
0.00249558
0.0548221
0.0293055
0.029294
0.200708
0.423907
0.297659
0.0808956
0.0771763
0.192323
0.253061
0.534276
0.00340355
0.0035168
0.0852981
0.277787
0.134877
-1.77208e-09
5.24861e-05
4.57602e-05
0.0914546
0.12479
0.114276
0.23326
0.423967
0.131618
0.0971317
0.121368
0.121354
0.126103
0.264986
0.409479
0.212679
0.449314
0.872738
0.826597
0.636953
0.19455
0.00255346
0.00245555
0.310962
0.536396
0.537089
0.407109
0.34035
0.195898
0.246245
0.357519
0.380695
0.174837
0.966096
0.926314
0.886402
0.970892
0.986369
0.972856
0.935532
0.803181
0.374579
0.279297
0.467816
0.541295
0.372641
0.418243
0.568399
0.585261
0.715854
0.758495
0.442924
0.949553
0.994588
0.998276
0.998257
0.998275
0.996434
0.953083
0.870274
0.873481
0.891908
0.827572
0.549805
0.372342
0.372641
0.513127
0.753391
0.805925
0.805021
0.801729
0.998729
0.984228
0.96639
0.966359
0.987864
0.997583
0.968306
0.873635
0.911353
0.986339
0.984724
0.96462
0.91159
0.628209
0.668845
0.800788
0.805588
0.805003
0.804614
0.998732
0.998729
0.996596
0.967364
0.97123
0.997372
0.998384
0.93406
0.936966
0.985766
0.991174
0.99124
0.990956
0.964606
0.728996
0.805361
0.806191
0.805367
0.805386
0.998279
0.997587
0.997986
0.998009
0.997571
0.998385
0.998385
0.989468
0.762969
0.721409
0.892203
0.991261
0.991262
0.968428
0.503831
0.385302
0.735609
0.805397
0.8046
0.647586
0.632172
0.64243
0.755665
0.928893
0.997146
0.99804
0.960342
0.357431
0.0681937
0.311704
0.605022
0.526999
0.260133
0.0310951
4.23393e-05
0.293162
0.70385
0.727629
-1.61192e-07
-9.40848e-25
-2.27602e-24
1.64425e-19
0.0822603
0.454625
0.667154
0.463111
0.0387358
-1.08086e-19
0.00355472
0.015196
0.00804261
4.00183e-05
2.76084e-07
1.15342e-10
0.000665879
0.124663
0.145032
2.79782e-06
1.61947e-06
1.11852e-06
2.66943e-09
1.31759e-09
0.00452775
0.020507
0.00658465
-6.86402e-20
-3.33597e-22
-3.79693e-22
1.13679e-21
-4.65444e-21
2.99171e-06
5.16284e-07
1.02192e-10
8.24907e-08
8.75334e-09
4.5527e-06
1.52861e-05
5.89402e-06
1.10502e-05
9.2181e-06
2.45361e-06
3.47074e-08
-7.97999e-08
-1.52968e-06
-5.6252e-08
-2.51559e-09
-1.63246e-10
-9.32757e-12
-2.24086e-13
2.39974e-07
2.4306e-10
1.89205e-11
2.27623e-09
9.71257e-09
1.5206e-06
1.09062e-05
7.6656e-05
0.00017932
0.000130693
5.40926e-05
1.20506e-05
3.71029e-05
0.000140051
0.000187892
7.05357e-05
6.39233e-05
8.04256e-06
9.96417e-09
1.15871e-08
8.386e-07
-1.89853e-11
-1.07193e-27
-9.31104e-11
1.01541e-06
0.000146297
0.000280151
0.000281537
0.000286645
0.00029413
0.00029381
0.000294975
0.000295758
0.000295753
0.000295913
9.76715e-05
4.41134e-05
4.64131e-06
1.56213e-06
2.26095e-05
0.000142075
0.000197501
0.000111179
1.4711e-06
8.2901e-05
5.81431e-05
7.10218e-05
0.000105345
0.00016395
0.000177129
0.000163337
0.000194117
0.000229117
0.000132118
4.17125e-05
3.06611e-05
2.72283e-05
2.47643e-05
3.77265e-05
0.00024918
0.000307097
0.0003071
1.49241e-06
1.04326e-08
2.39549e-08
3.22593e-08
5.58547e-08
2.89591e-07
1.03807e-06
3.37834e-07
2.56759e-06
7.64788e-06
4.92447e-08
6.26768e-08
8.69824e-07
1.29649e-05
1.98036e-05
2.27079e-05
5.77996e-05
0.000172481
0.000306971
0.00013969
1.06004e-08
2.29339e-08
2.25668e-08
2.11554e-08
2.50291e-08
1.5667e-08
1.85092e-08
1.90261e-08
1.85056e-08
1.76613e-08
1.6769e-08
6.41849e-09
4.4373e-08
1.11026e-06
4.62659e-07
3.78883e-07
3.77474e-06
0.000294972
0.000282383
1.53563e-08
2.00214e-08
1.90853e-08
1.75189e-08
1.52604e-08
1.46129e-08
2.20936e-08
1.13927e-07
2.43083e-07
2.62673e-07
1.14776e-07
6.43888e-09
9.46036e-09
1.7095e-07
2.38804e-07
3.6818e-07
5.87348e-08
5.32137e-05
0.000260083
1.22168e-08
1.38418e-08
1.41048e-08
1.37412e-08
1.19509e-08
1.72333e-08
1.32558e-07
3.81971e-07
3.84054e-07
3.60877e-07
1.07503e-07
6.4185e-09
9.92735e-09
2.31682e-07
3.49821e-07
1.16752e-07
5.89515e-08
7.10361e-09
2.95317e-05
8.543e-09
9.18299e-09
9.59966e-09
9.61395e-09
8.18866e-09
9.04315e-09
7.0894e-08
3.76439e-07
3.86765e-07
2.64722e-07
1.37795e-08
6.43888e-09
1.3399e-08
1.52429e-07
2.57004e-07
8.99553e-09
1.09041e-08
7.08502e-09
7.09322e-09
6.02945e-09
6.15664e-09
6.28926e-09
6.3509e-09
5.81436e-09
5.79769e-09
1.38332e-08
6.8187e-08
1.36439e-07
3.47999e-08
6.62456e-09
6.75636e-09
1.07698e-08
2.22865e-08
4.53323e-08
7.09337e-09
7.08502e-09
7.0896e-09
7.08517e-09
4.13386e-09
4.18858e-09
4.2023e-09
4.20586e-09
4.08487e-09
3.62014e-09
3.38573e-09
5.59909e-09
1.16989e-08
6.23091e-09
6.64745e-09
8.06758e-09
7.79972e-09
7.63016e-09
2.07199e-07
2.28413e-06
2.77857e-06
9.89862e-07
2.73834e-07
2.69199e-09
2.78318e-09
2.81272e-09
2.83001e-09
2.82769e-09
2.60263e-09
2.13137e-09
1.80658e-09
2.45372e-09
3.60597e-09
6.08245e-09
7.59316e-09
7.58332e-09
7.58511e-09
1.68926e-07
2.86794e-06
3.17802e-06
2.9963e-06
1.69918e-06
1.67062e-09
1.76022e-09
1.83314e-09
1.89401e-09
1.94467e-09
1.87973e-09
1.65312e-09
1.55835e-09
1.9298e-09
3.0788e-09
4.92075e-09
6.3828e-09
7.59276e-09
1.11334e-08
5.29369e-08
7.33304e-07
1.85704e-06
1.04354e-06
9.98091e-07
9.63052e-10
1.0502e-09
1.13833e-09
1.2246e-09
1.30569e-09
1.32942e-09
1.28294e-09
1.31736e-09
1.64988e-09
2.46384e-09
3.78892e-09
5.10411e-09
6.64179e-09
1.07505e-08
2.43609e-08
2.63735e-08
3.04542e-08
5.36786e-07
9.65798e-07
5.16676e-10
5.92202e-10
6.6904e-10
7.59268e-10
8.54262e-10
9.32325e-10
9.98136e-10
1.1089e-09
1.39417e-09
1.96241e-09
2.89095e-09
3.94393e-09
4.99246e-09
7.89971e-09
2.21128e-08
5.34743e-07
4.19744e-06
7.35195e-06
7.5966e-06
2.62e-10
3.20337e-10
3.83021e-10
4.66487e-10
5.63883e-10
6.78052e-10
8.00986e-10
9.65632e-10
1.23157e-09
1.65939e-09
2.30704e-09
3.15218e-09
4.08115e-09
6.3496e-09
2.14127e-08
1.21058e-06
7.85042e-06
7.85811e-06
7.8488e-06
1.28651e-10
1.72242e-10
2.23807e-10
2.98136e-10
3.93586e-10
5.21123e-10
6.7327e-10
8.68907e-10
1.13474e-09
1.51137e-09
2.05947e-09
2.84655e-09
3.75633e-09
5.72735e-09
2.05129e-08
4.16338e-07
5.6444e-06
7.84177e-06
3.02118e-06
6.51889e-11
9.76362e-11
1.42503e-10
2.06675e-10
2.98053e-10
4.2592e-10
5.85573e-10
7.90241e-10
1.05663e-09
1.4301e-09
2.02986e-09
3.12616e-09
4.69005e-09
5.69591e-09
9.53749e-09
4.00062e-08
5.20437e-07
6.47645e-06
2.06918e-08
3.62791e-11
6.23401e-11
9.9014e-11
1.55962e-10
2.41212e-10
3.5995e-10
5.12146e-10
7.07696e-10
9.6073e-10
1.32622e-09
2.02807e-09
3.99877e-09
8.34472e-09
1.00767e-08
7.48281e-09
1.26764e-08
4.26695e-08
3.1086e-07
2.08247e-08
2.35486e-11
4.28171e-11
7.40514e-11
1.22892e-10
1.97413e-10
3.01082e-10
4.3583e-10
6.08926e-10
8.35058e-10
1.1616e-09
1.86371e-09
4.26768e-09
1.31569e-08
4.02223e-08
3.49212e-08
1.21647e-08
1.21085e-08
4.73157e-08
1.52291e-08
1.58836e-11
3.05591e-11
5.56433e-11
9.61347e-11
1.57463e-10
2.41992e-10
3.54392e-10
4.96146e-10
6.8275e-10
9.60775e-10
1.53294e-09
3.53801e-09
1.17368e-08
6.5065e-08
1.8633e-07
9.60777e-08
1.21131e-08
1.21095e-08
3.29744e-08
1.06013e-11
2.11702e-11
3.93731e-11
6.9952e-11
1.15439e-10
1.79146e-10
2.63442e-10
3.75127e-10
5.21858e-10
7.45743e-10
1.22397e-09
2.55832e-09
7.98488e-09
4.03005e-08
2.15228e-07
2.68792e-07
2.2797e-08
2.05768e-08
2.2166e-07
6.63196e-12
1.35811e-11
2.61785e-11
4.80211e-11
7.94272e-11
1.24408e-10
1.83672e-10
2.60818e-10
3.69337e-10
5.34524e-10
8.8364e-10
1.84083e-09
4.42322e-09
1.54223e-08
9.67966e-08
2.88599e-07
2.66393e-07
8.48106e-08
2.64831e-07
3.60418e-12
7.97865e-12
1.56261e-11
2.85963e-11
4.88176e-11
7.81999e-11
1.1735e-10
1.70271e-10
2.42826e-10
3.56971e-10
5.60915e-10
1.09641e-09
2.67205e-09
7.00077e-09
2.65147e-08
1.97067e-07
2.88644e-07
2.90624e-07
2.50031e-07
1.78608e-12
4.19808e-12
8.48051e-12
1.59001e-11
2.71689e-11
4.36788e-11
6.66693e-11
9.79895e-11
1.42095e-10
2.1205e-10
3.36807e-10
6.09553e-10
1.36818e-09
3.74222e-09
9.89584e-09
5.10248e-08
2.91189e-07
2.85534e-07
8.3674e-08
7.86296e-13
1.89732e-12
4.04102e-12
7.728e-12
1.36549e-11
2.23022e-11
3.48002e-11
5.3392e-11
8.09236e-11
1.24261e-10
2.02449e-10
3.63077e-10
7.61076e-10
1.85429e-09
4.93105e-09
1.63669e-08
1.23403e-07
2.43708e-07
1.71398e-08
3.02628e-13
7.63436e-13
1.68166e-12
3.33102e-12
5.96285e-12
1.01634e-11
1.69275e-11
2.69137e-11
4.22158e-11
6.58768e-11
1.08354e-10
1.98511e-10
4.02216e-10
9.08576e-10
2.27667e-09
6.05882e-09
1.56784e-08
5.27563e-08
1.55745e-08
1.03435e-13
2.73448e-13
6.20261e-13
1.25108e-12
2.3557e-12
4.24531e-12
7.35631e-12
1.22265e-11
2.0545e-11
3.40156e-11
5.71035e-11
1.0404e-10
2.07888e-10
4.48543e-10
1.13921e-09
2.86673e-09
3.75675e-09
1.9072e-08
8.00402e-09
3.0354e-14
8.43189e-14
1.98233e-13
4.19225e-13
8.27093e-13
1.48206e-12
2.76038e-12
5.01358e-12
8.43193e-12
1.43684e-11
2.47861e-11
4.65734e-11
9.53199e-11
2.0567e-10
4.31341e-10
1.01675e-09
2.53374e-09
1.8911e-09
5.29568e-09
7.84395e-15
2.25487e-14
5.38695e-14
1.19153e-13
2.46575e-13
5.07691e-13
9.52956e-13
1.79987e-12
3.42523e-12
6.22929e-12
1.08489e-11
2.01812e-11
4.18962e-11
9.32067e-11
2.01952e-10
4.70099e-10
7.92348e-10
1.6049e-09
3.57046e-09
1.80345e-15
5.44497e-15
1.38081e-14
3.30017e-14
7.20265e-14
1.48398e-13
3.14125e-13
6.49627e-13
1.30321e-12
2.46698e-12
4.3987e-12
8.04124e-12
1.6701e-11
3.84097e-11
8.7162e-11
2.01396e-10
3.93904e-10
9.32321e-10
1.5902e-09
)
;

boundaryField
{
    leftWall
    {
        type            zeroGradient;
    }
    rightWall
    {
        type            zeroGradient;
    }
    lowerWall
    {
        type            zeroGradient;
    }
    atmosphere
    {
        type            inletOutlet;
        inletValue      uniform 0;
        value           nonuniform List<scalar> 
46
(
0
0
0
0
0
0
0
0
0
0
0
0
0
0
0
0
0
0
0
0
0
1.09301e-16
3.42936e-17
2.99458e-17
8.37683e-17
2.66949e-16
7.64541e-16
1.80345e-15
5.44497e-15
1.38081e-14
3.30017e-14
7.20265e-14
1.48398e-13
3.14125e-13
6.49627e-13
1.30321e-12
2.46698e-12
4.3987e-12
8.04124e-12
1.6701e-11
3.84097e-11
8.7162e-11
2.01396e-10
3.93904e-10
9.32321e-10
1.5902e-09
)
;
    }
    defaultFaces
    {
        type            empty;
    }
}


// ************************************************************************* //
