/*--------------------------------*- C++ -*----------------------------------*\
| =========                 |                                                 |
| \\      /  F ield         | OpenFOAM: The Open Source CFD Toolbox           |
|  \\    /   O peration     | Version:  2312                                  |
|   \\  /    A nd           | Website:  www.openfoam.com                      |
|    \\/     M anipulation  |                                                 |
\*---------------------------------------------------------------------------*/
FoamFile
{
    version     2.0;
    format      ascii;
    arch        "LSB;label=32;scalar=64";
    class       volScalarField;
    location    "2.7";
    object      alpha.water_0;
}
// * * * * * * * * * * * * * * * * * * * * * * * * * * * * * * * * * * * * * //

dimensions      [0 0 0 0 0 0 0];

internalField   nonuniform List<scalar> 
2268
(
1.70086e-07
3.85322e-08
4.11979e-09
7.75843e-10
3.53519e-10
2.19255e-10
1.13918e-10
6.73257e-11
5.00663e-11
3.91845e-11
3.3516e-11
3.19444e-11
3.19732e-11
3.34325e-11
3.7322e-11
4.41542e-11
5.48209e-11
7.94175e-11
1.26173e-10
2.06367e-10
4.16581e-10
7.62711e-10
1.15366e-09
5.90231e-07
2.35329e-07
1.24202e-08
7.78901e-10
3.4325e-10
1.7952e-10
1.76179e-10
1.72261e-10
1.30915e-10
8.52084e-11
6.08621e-11
4.82407e-11
4.41052e-11
4.47332e-11
5.36559e-11
7.45382e-11
8.92336e-11
1.2592e-10
2.14806e-10
4.45916e-10
8.9556e-10
1.60094e-09
1.85104e-09
3.96772e-07
2.75578e-07
8.53629e-09
1.13423e-09
2.31371e-10
1.18126e-10
4.29265e-10
4.97571e-10
4.58223e-10
2.18329e-10
1.10209e-10
6.71281e-11
4.63312e-11
4.88339e-11
6.88613e-11
1.1857e-10
1.98248e-10
2.37102e-10
3.0639e-10
4.97143e-10
1.01316e-09
1.82266e-09
1.82392e-09
-2.3916e-27
-2.15691e-28
4.98871e-30
-6.18109e-22
8.02918e-22
4.42391e-23
5.35321e-12
2.65122e-11
1.88902e-11
7.61079e-12
3.92402e-12
1.80861e-12
1.89254e-12
1.73807e-11
2.56926e-11
6.03049e-11
1.2835e-10
1.76084e-10
2.08657e-10
3.30703e-10
7.33101e-10
1.16319e-09
1.06905e-09
0.112691
0.0941158
0.0784325
0.0586157
0.036399
0.0123819
2.56531e-24
2.679e-24
1.24056e-24
3.15974e-25
1.2194e-25
9.79658e-26
7.41156e-26
9.79739e-26
1.75068e-24
2.88094e-24
5.0547e-12
4.73774e-11
9.83144e-11
1.04672e-10
4.37459e-10
2.74059e-09
5.83415e-10
0.801257
0.806887
0.79164
0.755061
0.695427
0.626947
0.562857
0.519412
0.50313
0.50064
0.492498
0.448807
0.351191
0.241245
0.116762
0.0248558
2.29959e-22
1.3922e-21
4.70154e-08
2.80647e-09
3.76199e-09
4.20601e-08
5.56739e-10
0.994848
0.997347
0.998
0.998601
0.999489
0.999489
0.999052
0.997394
0.996447
0.996286
0.995772
0.993202
0.972393
0.882683
0.774282
0.624601
0.392202
0.162688
0.0358983
0.00286079
1.87787e-19
5.64085e-10
1.31823e-05
0.996926
0.99806
0.998901
0.999489
0.999489
0.999489
0.999489
0.999489
0.999489
0.999489
0.999341
0.994259
0.985937
0.941588
0.897483
0.908327
0.908419
0.837972
0.624949
0.418409
0.265362
0.257448
0.302223
0.0270587
0.0270641
0.0271026
0.0209805
0.0138123
0.0138065
0.0138065
0.0138065
0.0177058
0.0220667
0.0199095
0.0180003
0.0192151
0.0192111
0.0184577
0.0160009
0.014248
0.0102076
0.00865292
0.0209243
0.0182017
0.0181848
0.0195025
0.0207145
0.0183002
0.0149728
0.0138065
0.0138065
0.0138065
0.020706
0.0168487
0.0146177
0.013752
0.0109079
0.00784011
0.0078858
0.00848719
0.00856678
0.236931
0.175486
0.21185
0.307208
0.384806
0.339452
0.278063
0.264307
0.213927
0.0798775
0.0257129
0.00762734
0.00762893
0.00762166
0.00762434
0.0619809
0.065468
0.00958173
0.00856684
0.587533
0.542557
0.597663
0.647136
0.660497
0.582655
0.447047
0.547133
0.623855
0.41131
0.300651
0.155243
0.113638
0.0784559
0.174968
0.540052
0.510051
0.098239
0.00856692
0.587705
0.643417
0.740795
0.782108
0.910157
0.885216
0.461588
0.829333
0.955181
0.643874
0.457968
0.457244
0.438533
0.443461
0.560722
0.818201
0.81448
0.432682
0.0579503
0.59263
0.850587
0.991229
0.998808
0.999674
0.999736
0.671776
0.910353
0.955262
0.713458
0.457609
0.457412
0.443305
0.496015
0.725396
0.839124
0.83861
0.624021
0.26035
0.695495
0.972213
0.999746
0.999747
0.999747
0.999747
0.812875
0.957075
0.968656
0.740239
0.512719
0.522979
0.572791
0.755836
0.839303
0.839395
0.827703
0.492202
0.406071
0.989118
0.994358
0.985847
0.99095
0.999747
0.999747
0.87017
0.968272
0.968643
0.946492
0.863635
0.850532
0.669638
0.754024
0.839438
0.840002
0.667762
0.396621
0.397268
0.998279
0.998895
0.999489
0.999489
0.999489
0.999489
0.999489
0.999487
0.999486
0.998811
0.995138
0.971715
0.887159
0.73028
0.707453
0.714756
0.789134
0.959737
0.985079
0.97443
0.939094
0.908876
0.911026
0.998888
0.998893
0.997324
0.993298
0.993289
0.993646
0.991688
0.987192
0.958577
0.879569
0.813399
0.811603
0.820756
0.645148
0.659462
0.85119
0.959238
0.973355
0.978288
0.985801
0.987384
0.987419
0.986246
0.998887
0.99889
0.998886
0.998746
0.967635
0.863107
0.769812
0.620742
0.37059
0.176591
0.105868
0.137933
0.250791
0.396152
0.545483
0.605505
0.625008
0.6049
0.526877
0.518787
0.553373
0.55559
0.499608
0.671066
0.804998
0.934231
0.968085
0.855277
0.4546
0.177451
0.0216651
5.10253e-19
-5.28449e-19
-3.80444e-09
-2.81923e-09
8.674e-24
6.40349e-23
-2.38594e-23
6.88322e-23
0.00158957
0.0298613
0.0569318
0.0489539
0.00737796
-4.82437e-21
-7.79781e-21
0.00251727
0.0374027
0.126574
0.331517
0.344072
0.241681
0.0688728
1.58024e-06
1.55238e-06
3.43156e-12
1.06446e-05
6.26207e-05
0.000153077
0.000181881
0.000108404
2.49524e-05
1.62554e-06
2.66169e-07
-1.58567e-24
-9.09345e-24
1.62071e-23
-6.94441e-24
1.53146e-24
0.00239703
0.000531002
0.000181034
0.0079294
0.0488357
0.0545534
0.0415361
0.00681681
2.49241e-07
2.38758e-07
2.49241e-07
0.000104362
0.000997585
0.00190674
0.00163907
0.000424774
4.15696e-06
2.5272e-07
2.08211e-05
2.76709e-05
3.35681e-05
3.01715e-05
3.31212e-06
0.00453687
0.000179529
7.63095e-05
7.79396e-05
0.00240291
0.00444565
0.0028632
0.00198205
6.93714e-05
2.50211e-07
2.60188e-07
2.71614e-07
0.00102148
0.016881
0.0210094
0.0152215
0.00589574
0.00233223
0.000356008
0.000106836
0.000214313
0.000216824
0.000208203
0.00476452
0.000905086
0.000994929
0.00256774
0.00273563
0.00252756
0.00239515
0.0024894
0.00400981
0.00376651
0.00232586
0.000164735
3.58572e-05
0.0143628
0.0210089
0.0210089
0.0210085
0.014781
0.00097387
6.12082e-05
0.00128953
0.00214966
0.0018447
0.00477411
0.00101405
0.00668121
0.01052
0.0105091
0.010502
0.00834723
0.00795707
0.015595
0.0163896
0.0163911
0.0108746
0.000874124
4.05209e-06
0.0100712
0.0210085
0.0210085
0.0150788
0.00232895
5.87991e-05
0.00042417
0.00207119
0.00325443
0.00408306
0.00200714
0.00588637
0.00479578
0.00228307
0.00163264
0.00114059
0.00110837
0.00106124
0.00615663
0.0148643
0.0151568
0.00518044
9.41643e-07
0.000270412
0.00170675
0.00547301
0.00649673
0.00215962
1.00879e-05
5.74419e-06
1.82587e-06
7.84348e-05
0.00419413
0.000413498
-1.85988e-12
-3.14127e-25
-7.45944e-11
1.76093e-09
-2.14699e-22
-4.53817e-08
7.21473e-23
-2.68408e-09
-5.54052e-08
9.14296e-08
0.000292207
0.000146438
3.06236e-10
7.92876e-13
2.5839e-10
4.03461e-06
5.31267e-05
4.03517e-05
4.88889e-06
2.67656e-06
9.21007e-07
0.00419752
0.000127204
-7.59095e-27
4.1697e-08
1.73928e-08
6.49285e-06
0.000254193
0.000298778
0.000104197
1.84025e-06
6.98092e-07
1.11046e-07
7.25574e-09
4.0128e-06
4.22664e-07
2.5839e-10
8.78628e-11
6.1461e-08
6.8292e-08
2.28406e-07
3.14731e-06
9.60741e-06
2.00994e-05
0.0022491
0.000131418
1.22671e-08
6.20175e-07
2.49287e-08
0.000168437
0.000516079
0.000515774
0.000294964
2.54175e-06
4.18619e-06
3.79861e-06
3.82259e-07
1.08985e-07
8.65011e-08
9.26242e-07
1.34873e-06
1.11555e-07
7.52292e-08
2.91592e-05
5.19869e-05
5.21087e-05
3.9262e-05
5.5432e-06
1.29555e-05
2.38231e-06
1.2066e-06
2.07745e-08
0.000426327
0.000514493
0.000515975
0.000139657
2.26386e-06
6.59344e-06
5.02699e-06
4.26406e-06
4.49405e-06
4.41046e-06
1.95131e-06
1.36584e-06
4.46777e-05
0.000113233
0.000125065
4.41427e-05
5.29329e-06
2.54308e-06
1.58122e-06
4.03685e-06
1.98667e-06
1.39739e-06
5.61455e-06
0.000498857
0.000514097
0.000104391
1.96836e-06
2.37999e-06
7.57624e-06
8.4222e-06
7.97747e-06
3.50516e-06
4.52663e-07
2.6252e-05
0.000115445
0.000115559
6.45741e-05
2.83883e-08
5.047e-08
4.83127e-06
7.74544e-06
3.59679e-06
2.86787e-06
2.11342e-06
9.85905e-06
7.07247e-05
0.000326521
0.000117511
2.0424e-06
1.88034e-06
2.88972e-06
8.4222e-06
8.42241e-06
4.9764e-06
5.76971e-08
3.41875e-07
6.16184e-05
0.000104047
4.16935e-05
2.40992e-08
2.66349e-08
3.05123e-06
5.21826e-06
3.58921e-06
4.15595e-06
1.0468e-05
2.13473e-06
0.000112975
0.000142243
2.83359e-06
1.82942e-06
2.05226e-06
2.57695e-06
3.05224e-06
8.42259e-06
2.47869e-06
2.22613e-07
5.73246e-08
2.68163e-06
1.03599e-05
9.53959e-06
7.49997e-09
3.70483e-08
1.72624e-07
1.27253e-06
1.54169e-06
1.78736e-07
6.37027e-05
0.000104278
7.86532e-05
8.50335e-05
6.60997e-05
4.3152e-06
1.99672e-06
1.00893e-05
4.40527e-06
5.19744e-10
1.01999e-06
8.65707e-08
1.35294e-07
9.69134e-08
2.18009e-07
2.04492e-09
2.03904e-09
7.66131e-09
4.42707e-08
1.42574e-07
1.09134e-07
5.55892e-10
5.24412e-10
9.81687e-05
9.79583e-05
8.6639e-05
2.06928e-06
1.92975e-06
2.07799e-06
4.50702e-06
1.01253e-05
2.0788e-06
-1.1997e-10
1.42954e-25
7.18085e-08
9.77216e-08
4.96872e-08
8.95263e-09
2.10949e-09
2.57861e-09
4.97688e-09
1.49997e-08
4.64174e-08
5.23842e-08
1.27608e-08
1.11793e-09
4.92426e-08
1.93119e-07
2.09646e-06
3.21167e-06
4.99962e-06
4.78768e-06
8.33629e-06
7.87469e-06
-7.32358e-18
-8.29856e-27
7.32555e-09
3.67133e-08
5.05523e-08
1.9539e-08
2.15278e-09
2.09147e-09
2.14595e-09
1.9706e-09
3.5737e-09
5.56586e-09
7.31801e-09
6.89007e-09
3.54478e-09
4.70695e-08
1.99424e-07
3.39394e-06
9.50063e-06
9.43386e-06
8.33185e-06
3.31425e-07
2.13263e-07
2.97149e-13
6.37356e-10
3.46043e-09
7.58708e-09
1.13723e-08
2.3954e-09
1.83765e-09
1.53623e-09
1.15433e-09
1.03489e-09
1.40351e-09
2.1121e-09
2.546e-09
2.79764e-09
2.13844e-09
4.36906e-08
1.77291e-06
7.82376e-06
7.45266e-06
2.71189e-06
1.10491e-08
8.55552e-08
3.76508e-07
8.96674e-11
4.17769e-10
5.96351e-10
5.61032e-10
6.18044e-10
5.8439e-10
7.77892e-10
7.16126e-10
5.7429e-10
5.36847e-10
6.58249e-10
8.89125e-10
1.01363e-09
1.08091e-09
9.58036e-10
3.3553e-08
6.33697e-07
1.3014e-07
7.89974e-08
3.75973e-09
2.49663e-09
1.16447e-09
4.63256e-10
4.59112e-10
3.45157e-10
3.19152e-10
3.1392e-10
3.12735e-10
3.21597e-10
3.36592e-10
3.18777e-10
2.89555e-10
2.82113e-10
3.26068e-10
3.82036e-10
4.09997e-10
4.24689e-10
3.88996e-10
1.80987e-09
1.14255e-09
2.20429e-09
5.56607e-09
1.34404e-08
8.14759e-09
9.92254e-10
3.85109e-10
3.25494e-10
1.94087e-10
1.73006e-10
1.7044e-10
1.66001e-10
1.60157e-10
1.5458e-10
1.48294e-10
1.40736e-10
1.38867e-10
1.4635e-10
1.51298e-10
1.54499e-10
1.57263e-10
1.35112e-10
2.86284e-09
1.35482e-09
5.99115e-09
1.63505e-08
3.17145e-08
2.10266e-08
2.62758e-09
8.93331e-11
1.84182e-10
1.12421e-10
8.55061e-11
7.85474e-11
7.38462e-11
6.97307e-11
6.6359e-11
6.3285e-11
6.06534e-11
5.86682e-11
5.7233e-11
5.58582e-11
5.30524e-11
5.09503e-11
4.40152e-11
1.29149e-08
1.787e-09
7.5142e-09
1.84868e-08
3.01521e-08
2.49394e-08
6.42897e-09
7.04616e-11
6.77339e-11
5.59678e-11
4.29118e-11
3.59595e-11
3.12708e-11
2.79675e-11
2.55129e-11
2.36202e-11
2.20251e-11
2.04369e-11
1.90757e-11
1.69037e-11
1.54042e-11
1.46085e-11
1.19332e-11
2.68662e-08
2.76354e-09
4.78259e-09
2.76119e-09
7.36759e-10
1.02284e-10
9.33791e-11
8.76634e-11
6.65844e-11
4.73993e-11
3.31733e-11
2.36315e-11
1.70448e-11
1.26144e-11
9.96848e-12
8.2439e-12
7.05289e-12
6.15754e-12
5.33106e-12
4.33318e-12
3.83813e-12
3.62825e-12
3.33604e-12
5.07445e-08
1.82355e-08
7.6102e-09
2.52194e-09
5.72085e-10
2.01112e-10
1.72205e-10
1.37774e-10
9.96685e-11
7.17768e-11
4.81332e-11
3.09262e-11
1.87952e-11
1.09549e-11
6.28096e-12
3.80656e-12
2.51908e-12
1.79284e-12
1.33369e-12
9.4587e-13
8.15426e-13
8.12966e-13
8.06858e-13
7.13689e-08
1.68628e-07
1.34379e-08
1.72079e-09
8.03339e-10
4.10932e-10
2.81591e-10
2.2161e-10
1.75891e-10
1.37777e-10
9.56442e-11
5.9864e-11
3.52955e-11
1.9093e-11
9.30544e-12
4.24801e-12
1.88775e-12
8.74003e-13
4.2881e-13
2.45969e-13
1.67873e-13
1.63531e-13
1.84882e-13
1.07003e-07
2.81082e-07
7.95387e-08
7.81554e-10
7.24314e-10
6.30111e-10
4.19498e-10
3.46535e-10
3.05375e-10
2.78687e-10
1.87239e-10
1.20182e-10
7.17472e-11
3.91369e-11
1.88343e-11
7.9819e-12
3.06449e-12
1.08721e-12
3.7064e-13
1.19368e-13
5.00616e-14
3.31135e-14
3.87169e-14
9.3326e-08
2.81162e-07
2.33072e-07
2.71113e-09
7.60586e-10
8.0792e-10
6.53689e-10
5.47063e-10
4.98408e-10
5.03249e-10
3.14414e-10
2.07971e-10
1.28967e-10
7.19348e-11
3.62366e-11
1.55064e-11
5.88362e-12
1.99099e-12
5.67456e-13
1.4431e-13
4.35533e-14
1.0293e-14
7.60451e-15
5.32968e-08
2.7764e-07
2.77523e-07
5.29259e-08
7.5403e-10
7.5368e-10
7.82244e-10
7.74365e-10
1.18236e-09
8.10354e-10
4.107e-10
2.89603e-10
1.89448e-10
1.15402e-10
6.04011e-11
2.68696e-11
1.02222e-11
3.53551e-12
1.03477e-12
2.37125e-13
5.88e-14
1.00955e-14
1.93723e-15
1.08355e-08
1.24429e-07
2.74993e-07
1.28601e-07
7.53685e-10
7.54032e-10
7.53687e-10
7.54049e-10
4.15858e-09
1.00675e-09
4.01986e-10
3.24269e-10
2.36015e-10
1.51996e-10
8.51992e-11
3.96241e-11
1.60859e-11
5.58168e-12
1.60534e-12
3.87953e-13
8.96215e-14
1.25872e-14
1.02898e-15
5.33434e-09
3.4958e-08
1.46172e-07
4.29853e-08
7.54039e-10
8.10378e-10
3.30702e-09
1.74441e-08
6.44986e-09
5.75274e-10
3.76604e-10
3.17268e-10
2.5492e-10
1.78511e-10
1.0229e-10
4.97234e-11
2.11386e-11
7.68522e-12
2.29367e-12
5.40011e-13
1.1796e-13
1.79185e-14
1.39967e-15
1.43009e-09
7.98705e-10
7.96169e-10
7.9791e-10
1.00933e-09
8.41784e-09
1.14204e-07
1.1656e-07
3.89118e-10
3.89269e-10
3.94486e-10
3.30379e-10
2.75066e-10
1.84082e-10
1.05962e-10
5.29192e-11
2.34282e-11
8.92228e-12
2.67828e-12
6.52096e-13
1.53469e-13
1.63565e-14
2.04945e-15
2.06302e-09
8.03641e-10
8.18642e-10
8.16111e-10
1.09656e-09
3.1426e-08
2.26827e-07
1.35029e-07
3.89095e-10
3.89236e-10
4.34056e-10
3.54473e-10
2.85646e-10
1.79507e-10
9.76225e-11
4.81463e-11
2.14459e-11
8.37434e-12
2.69675e-12
6.57479e-13
1.44848e-13
2.122e-14
2.51503e-15
2.47564e-08
9.17549e-10
8.6271e-10
2.23702e-09
1.64201e-08
1.54561e-07
8.52556e-07
5.24895e-07
3.88939e-10
4.49493e-10
4.65338e-10
3.7626e-10
2.80876e-10
1.62515e-10
8.12988e-11
3.73366e-11
1.59755e-11
6.12458e-12
2.03257e-12
5.31517e-13
1.23278e-13
1.22597e-14
1.99582e-15
2.90575e-07
1.28614e-09
1.2684e-09
4.04717e-09
6.16345e-08
1.06977e-06
1.53866e-06
8.4975e-07
3.89006e-10
5.67044e-10
4.20894e-10
3.49719e-10
2.47878e-10
1.32634e-10
5.95051e-11
2.42505e-11
9.34773e-12
3.3747e-12
1.12251e-12
3.00102e-13
6.23031e-14
9.89235e-15
1.17926e-15
5.27209e-07
4.0298e-08
2.97854e-09
5.05058e-09
7.35878e-08
1.35194e-06
1.51965e-06
4.60254e-07
1.40548e-09
5.60443e-10
3.0921e-10
2.72622e-10
1.84333e-10
9.15641e-11
3.59522e-11
1.2284e-11
3.98127e-12
1.25563e-12
3.828e-13
1.1381e-13
2.90799e-14
3.35418e-15
5.44834e-16
5.19088e-07
1.2954e-07
7.30891e-09
6.76093e-09
2.52401e-08
6.77515e-07
1.05161e-06
1.08052e-08
2.35629e-09
4.02735e-10
1.83931e-10
1.69694e-10
1.10535e-10
5.21648e-11
1.7848e-11
4.89078e-12
1.18939e-12
2.79968e-13
7.87813e-14
2.78041e-14
6.50309e-15
1.34784e-15
2.08292e-16
4.30901e-07
1.33304e-07
8.29068e-09
7.6681e-09
2.18106e-08
7.42572e-14
0
-2.34773e-15
1.60713e-09
1.53456e-10
8.07973e-11
7.00742e-11
4.61893e-11
2.1037e-11
6.40917e-12
1.35803e-12
2.21097e-13
3.2959e-14
8.0374e-15
4.29656e-15
1.30636e-15
2.94441e-16
6.60041e-17
4.04784e-260
3.86828e-09
1.76058e-09
3.90621e-10
2.07272e-15
7.07221e-12
1.81293e-13
7.44221e-11
4.52281e-13
3.11856e-12
1.65244e-11
1.53172e-11
1.06072e-11
4.55733e-12
1.20423e-12
1.90015e-13
1.99381e-14
1.74079e-15
4.22721e-16
4.14002e-16
2.15587e-16
6.33505e-17
1.78575e-17
0.822955
0.719459
0.718754
0.718675
0.960914
0.841169
0.833369
0.916597
0.466358
0.443095
0.339057
0.352798
-4.81262e-21
0.00190549
0.0036797
0.0043765
-2.87098e-20
-4.33147e-20
-2.18111e-21
6.08159e-28
4.60782e-23
5.69494e-24
3.11483e-24
-9.84243e-26
0.000214775
0.000152339
1.08516e-05
-1.60571e-22
0.00125747
0.000754935
0.000116612
3.94346e-05
0.00325926
0.00325655
0.00160185
0.00146676
0.000497776
0.00012932
0.000719991
0.00372467
1.16836e-07
-2.09958e-24
-2.36919e-24
-7.89614e-09
1.31458e-05
8.95283e-06
1.80227e-06
2.73116e-06
7.17969e-06
5.58619e-07
4.97883e-07
4.41947e-07
4.31033e-06
3.10906e-06
4.07961e-07
4.22443e-07
7.7516e-06
5.57277e-06
2.34979e-07
8.97189e-07
-4.25026e-10
2.64441e-07
2.26373e-07
6.06267e-10
5.1613e-10
5.14506e-10
5.13942e-10
6.09928e-10
5.20993e-10
5.20144e-10
5.3932e-10
6.86036e-10
8.52724e-10
7.22751e-10
5.69807e-10
5.88494e-10
1.1028e-09
7.18619e-10
4.7381e-10
4.42082e-10
1.01177e-09
5.19271e-10
3.37885e-10
3.05308e-10
5.85894e-10
3.24976e-10
2.19543e-10
1.89211e-10
2.61438e-10
1.60264e-10
1.1844e-10
1.02987e-10
9.38946e-11
7.17384e-11
5.65277e-11
5.07565e-11
3.234e-11
2.7457e-11
2.42074e-11
2.30905e-11
1.0406e-11
9.84481e-12
9.5145e-12
9.60788e-12
3.0856e-12
3.20424e-12
3.50021e-12
3.68631e-12
8.53971e-13
1.00206e-12
1.16223e-12
1.33894e-12
2.25239e-13
2.80909e-13
3.85909e-13
4.49902e-13
5.61057e-14
7.90693e-14
1.06369e-13
1.39677e-13
1.19815e-14
1.78374e-14
2.92735e-14
3.85868e-14
2.51235e-15
4.2902e-15
6.80161e-15
1.01133e-14
4.2357e-16
7.9715e-16
1.47206e-15
2.29378e-15
1.08534e-16
1.43269e-16
2.83965e-16
4.81336e-16
4.0958e-17
2.65488e-17
4.82357e-17
8.9184e-17
4.48064e-17
7.7678e-18
7.595e-18
1.43566e-17
5.42138e-17
4.72704e-18
1.44247e-18
2.18789e-18
5.23829e-17
3.76735e-18
3.95725e-19
2.95044e-19
3.64071e-17
2.51264e-18
1.99235e-19
3.89233e-20
2.04973e-17
1.53244e-18
8.95389e-20
5.17051e-21
9.00169e-18
6.93918e-19
4.45503e-20
9.84634e-22
3.01166e-18
2.85086e-19
1.80216e-20
2.15826e-22
0.952839
0.994358
0.952859
0.939664
0.970278
0.999747
0.990008
0.982938
0.930838
0.96035
0.95472
0.761727
0.503714
0.565314
0.814769
0.861877
0.707682
0.686536
0.397258
0.989486
0.994357
0.849343
0.594894
0.75215
0.92246
0.991405
0.991334
0.885871
0.860934
0.869279
0.687459
0.437369
0.694538
0.861877
0.861932
0.833781
0.834005
0.694363
0.62017
0.792926
0.492463
0.051084
0.0739488
0.268464
0.727104
0.948716
0.946963
0.643529
0.443929
0.393247
0.408795
0.497964
0.765093
0.735217
0.602539
0.537856
0.79039
0.0186673
0.0822882
0.111739
0.023049
0.000699837
0.000704267
0.0365878
0.116749
0.539961
0.630192
0.47486
0.375521
0.434015
0.436017
0.384745
0.401382
0.261253
0.16969
0.494642
-2.80913e-28
-3.30019e-25
0.000754781
0.00105535
0.000675392
0.00069919
0.00184168
0.0056077
0.0337624
0.0987151
0.120829
0.259807
0.420441
0.433605
0.428494
0.226746
0.187561
0.161631
0.101728
5.27402e-10
9.4048e-07
1.29588e-05
4.25304e-05
7.91557e-07
0.000760653
0.00186648
0.00194864
0.00193892
0.00194022
0.000974943
0.0141076
0.0678491
0.201077
0.215472
0.179893
0.188641
0.185106
0.015754
0.000115546
0.00017996
9.05626e-05
1.54618e-05
7.4832e-07
1.09374e-05
8.16504e-07
0.00364758
0.0034888
0.00119817
0.000963983
0.00204937
0.00253944
0.00296681
0.00538081
0.0137396
0.121977
0.151453
0.0144557
0.000954863
0.00138277
0.00092283
0.000189524
7.48019e-07
7.50311e-07
7.50684e-07
0.00481316
0.00953543
0.00480566
4.39628e-05
0.000280445
0.000498628
8.44089e-05
3.15115e-07
3.29356e-07
0.0045554
0.0108087
0.00728728
0.00431411
0.00437211
0.00355837
0.000537744
7.48054e-07
7.49776e-07
0.00124616
0.00926884
0.0095344
0.00508439
2.74472e-05
-5.41727e-15
4.45469e-23
-2.91666e-10
3.95591e-06
3.44078e-06
1.13306e-09
3.33422e-14
8.81172e-07
0.00433902
0.00308361
0.00198538
0.00204823
0.000460005
7.48755e-07
0.00401444
0.00936863
0.00906039
0.00150322
-8.0783e-21
2.98165e-09
2.62222e-11
6.80552e-06
3.19666e-05
1.92778e-05
7.04563e-07
1.00947e-10
3.33995e-14
3.85483e-18
1.62392e-07
1.02428e-07
3.16097e-06
-3.39933e-08
0.000290024
0.0041911
0.00701361
0.00345853
4.46242e-05
-5.85546e-23
-1.95126e-12
1.06074e-05
5.42268e-05
3.46211e-05
1.33915e-05
9.45219e-07
7.5594e-07
1.77801e-07
2.11707e-06
1.13646e-07
1.02893e-07
0.000162515
0.000664286
0.0006633
0.000394468
0.000289696
8.4352e-05
1.72756e-05
7.88593e-24
1.75318e-05
6.86944e-05
6.06674e-05
7.03795e-06
1.97061e-06
9.05053e-07
1.8736e-06
5.2477e-07
1.43688e-06
6.2022e-06
5.75198e-05
0.000144584
0.000181213
0.000148835
0.000148603
8.22609e-05
6.75215e-05
2.27416e-05
3.07988e-06
5.97495e-05
6.90826e-05
2.47712e-05
1.39752e-06
9.46058e-07
8.97533e-07
2.50528e-06
5.45905e-07
1.02637e-05
5.28126e-05
5.73015e-05
4.79561e-05
5.05039e-05
5.605e-05
6.18609e-05
6.38122e-05
5.8856e-05
1.9777e-05
2.20268e-06
3.79427e-05
6.21274e-05
1.81591e-05
6.64959e-07
6.70114e-07
1.0427e-06
6.13573e-06
2.49565e-06
2.64089e-06
1.27987e-06
4.28536e-06
5.6364e-06
6.74547e-06
8.76291e-06
6.61107e-06
1.66974e-05
3.54891e-05
4.72778e-06
3.22451e-08
4.0127e-06
1.29741e-05
1.00476e-05
6.69038e-07
1.9489e-06
1.06533e-05
1.50355e-05
1.76211e-05
6.05697e-10
8.70007e-10
1.11897e-09
1.51448e-09
1.46018e-09
1.40851e-09
1.43928e-09
1.40333e-09
2.41843e-07
3.32162e-09
2.22872e-09
2.24242e-09
2.24619e-09
2.33621e-06
2.08998e-06
1.28107e-05
1.44519e-05
1.48152e-05
1.77373e-05
8.83829e-10
1.80744e-09
2.31032e-09
2.73798e-09
3.04511e-09
3.60167e-09
4.16484e-09
4.16677e-09
4.46042e-09
7.7316e-09
2.42822e-08
1.06313e-08
2.24392e-09
1.69224e-08
4.30668e-06
1.2204e-05
1.28169e-05
5.73183e-06
1.77372e-05
9.30596e-10
1.42258e-09
2.04325e-09
2.48688e-09
2.75826e-09
3.41606e-09
4.52313e-09
4.91142e-09
8.98038e-09
2.57172e-08
3.33572e-08
1.9949e-08
3.22052e-08
1.73692e-06
4.27806e-06
1.53007e-06
2.91629e-06
3.28979e-08
1.67602e-05
6.67105e-10
9.06139e-10
1.22436e-09
1.48599e-09
1.55183e-09
1.74529e-09
2.64221e-09
5.40422e-09
1.04039e-08
2.13966e-08
3.18601e-08
1.63048e-08
7.15192e-08
2.49936e-06
4.03622e-06
9.45447e-09
6.07402e-09
2.06479e-08
1.88578e-06
4.56278e-10
5.32287e-10
6.74666e-10
7.75888e-10
7.67552e-10
7.32512e-10
9.56302e-10
3.5781e-09
7.28675e-09
1.03352e-08
1.20809e-08
1.35225e-08
7.97264e-08
6.18962e-07
1.01846e-06
7.5581e-09
6.07036e-09
2.41151e-08
2.38473e-08
2.95627e-10
3.09511e-10
3.73157e-10
4.2202e-10
4.30248e-10
4.58717e-10
7.84427e-10
1.76388e-09
2.65907e-09
2.32453e-09
3.31421e-09
9.41621e-09
2.72402e-08
3.55842e-08
3.77517e-08
5.28788e-08
8.38819e-09
4.78668e-08
4.53875e-08
1.75132e-10
1.76218e-10
2.09446e-10
2.33891e-10
2.49212e-10
3.10046e-10
5.71329e-10
8.79083e-10
1.04096e-09
1.09704e-09
1.88618e-09
3.77424e-09
7.26355e-09
2.06456e-08
5.23745e-08
5.99348e-08
6.5742e-09
4.89654e-08
5.69551e-08
9.69623e-11
9.88383e-11
1.12736e-10
1.25275e-10
1.39782e-10
2.04085e-10
3.7589e-10
4.84569e-10
5.16109e-10
6.43598e-10
1.23974e-09
2.5333e-09
5.13649e-09
1.61997e-08
3.53146e-08
4.24975e-08
4.13692e-09
1.6877e-08
5.47077e-08
4.94043e-11
5.17384e-11
5.9648e-11
6.72129e-11
7.45274e-11
1.20546e-10
2.22743e-10
2.76862e-10
2.94197e-10
3.67771e-10
7.18977e-10
1.42664e-09
2.83868e-09
5.71356e-09
5.60236e-09
2.37538e-09
1.92271e-09
6.86141e-09
8.71832e-09
2.3202e-11
2.53217e-11
2.99582e-11
3.48582e-11
4.26731e-11
6.32852e-11
1.12299e-10
1.4181e-10
1.50947e-10
1.85781e-10
3.61605e-10
6.91255e-10
1.15857e-09
1.70666e-09
6.88234e-10
1.57188e-10
4.97213e-10
7.08773e-10
2.24345e-09
1.00064e-11
1.16376e-11
1.40081e-11
1.68257e-11
2.12441e-11
3.06293e-11
4.97142e-11
6.40225e-11
6.82093e-11
8.22489e-11
1.57903e-10
2.97409e-10
4.53167e-10
4.89146e-10
2.18969e-10
1.10887e-10
1.81882e-10
3.43471e-11
1.91463e-10
4.0283e-12
5.00659e-12
6.15117e-12
7.56656e-12
9.57548e-12
1.3492e-11
2.01283e-11
2.6111e-11
2.80013e-11
3.31533e-11
6.17576e-11
1.22673e-10
1.91133e-10
1.82262e-10
8.05896e-11
7.74599e-11
9.65217e-11
1.99024e-11
2.05418e-11
1.5122e-12
2.00604e-12
2.53498e-12
3.17561e-12
4.0049e-12
5.43897e-12
7.62396e-12
9.78007e-12
1.05941e-11
1.24241e-11
2.2777e-11
5.01517e-11
7.46286e-11
7.79295e-11
4.48974e-11
3.26298e-11
3.03419e-11
9.69005e-12
4.23134e-12
5.29997e-13
7.45144e-13
9.84193e-13
1.24931e-12
1.57687e-12
2.06371e-12
2.73846e-12
3.42273e-12
3.71103e-12
4.12091e-12
6.16721e-12
6.72934e-12
8.5659e-12
1.39711e-11
2.34577e-11
1.49127e-11
7.04564e-12
5.55276e-12
1.11035e-12
1.70035e-13
2.58916e-13
3.5297e-13
4.60795e-13
5.86537e-13
7.44827e-13
9.41004e-13
1.13602e-12
1.22241e-12
1.27384e-12
1.48397e-12
2.85641e-13
2.85842e-13
1.10076e-12
6.134e-12
9.13653e-12
4.27739e-12
2.63646e-12
9.05314e-13
5.12847e-14
8.15026e-14
1.1744e-13
1.58371e-13
2.04191e-13
2.54298e-13
3.08355e-13
3.58282e-13
3.79645e-13
3.81415e-13
3.88582e-13
8.05823e-14
3.44678e-14
8.10176e-14
8.12692e-13
2.98176e-12
2.89426e-12
1.71259e-12
7.63693e-13
1.3911e-14
2.36441e-14
3.60308e-14
5.0441e-14
6.5935e-14
8.14564e-14
9.61218e-14
1.07511e-13
1.10861e-13
1.10284e-13
1.06045e-13
4.26818e-14
2.79405e-14
5.35908e-14
1.89893e-13
5.93296e-13
1.44707e-12
1.104e-12
6.71212e-13
3.42649e-15
6.03358e-15
9.65213e-15
1.39468e-14
1.84343e-14
2.27016e-14
2.6177e-14
2.80218e-14
2.78865e-14
2.79419e-14
2.7618e-14
2.13861e-14
2.37742e-14
4.81547e-14
1.25722e-13
3.03524e-13
6.18336e-13
7.90185e-13
5.26059e-13
7.68805e-16
1.46361e-15
2.41841e-15
3.77675e-15
5.05933e-15
6.19162e-15
6.98528e-15
7.24378e-15
7.26083e-15
7.84323e-15
9.58744e-15
1.19683e-14
1.93841e-14
4.29108e-14
1.05142e-13
2.48443e-13
4.17771e-13
6.11475e-13
4.60819e-13
1.41597e-16
3.06209e-16
5.31929e-16
8.10684e-16
1.15894e-15
1.50132e-15
1.67783e-15
1.74884e-15
1.84758e-15
2.37609e-15
3.66643e-15
7.06612e-15
1.49717e-14
3.51036e-14
8.61331e-14
2.07563e-13
3.68173e-13
5.03687e-13
3.8394e-13
2.55181e-17
5.8823e-17
1.11155e-16
1.79213e-16
2.47829e-16
3.00096e-16
3.36831e-16
3.51806e-16
4.39171e-16
7.85401e-16
1.73948e-15
4.13204e-15
1.00919e-14
2.49695e-14
6.21591e-14
1.51705e-13
3.17598e-13
4.12305e-13
2.7556e-13
4.03252e-18
1.00964e-17
2.02935e-17
3.44077e-17
4.97946e-17
6.14877e-17
7.16355e-17
8.62336e-17
1.44697e-16
3.4574e-16
9.44535e-16
2.50918e-15
6.44239e-15
1.58375e-14
3.98939e-14
9.87008e-14
2.15168e-13
3.17863e-13
1.82313e-13
5.71923e-19
1.52918e-18
3.27769e-18
5.79753e-18
8.39393e-18
1.10452e-17
1.4721e-17
2.16934e-17
4.82072e-17
1.41864e-16
4.44667e-16
1.33108e-15
3.6014e-15
9.09264e-15
2.22427e-14
5.49798e-14
1.23462e-13
1.94456e-13
1.21521e-13
7.36023e-20
2.09794e-19
4.66147e-19
8.35286e-19
1.29627e-18
1.89852e-18
2.79149e-18
5.24036e-18
1.57493e-17
5.67538e-17
2.00433e-16
6.47045e-16
1.85382e-15
4.81134e-15
1.25292e-14
3.00201e-14
6.02435e-14
1.12304e-13
6.31085e-14
8.69405e-21
2.61074e-20
6.00967e-20
1.1233e-19
1.88643e-19
2.62898e-19
4.7115e-19
1.19641e-18
4.04973e-18
1.67992e-17
6.80536e-17
2.52715e-16
8.00304e-16
2.22351e-15
5.25033e-15
1.2495e-14
3.22781e-14
4.43524e-14
3.73983e-14
9.52384e-22
2.82271e-21
6.3565e-21
1.25854e-20
2.27713e-20
4.22069e-20
8.11263e-20
2.43618e-19
1.07018e-18
5.13091e-18
2.29466e-17
9.29744e-17
3.20901e-16
9.5779e-16
2.45658e-15
5.97734e-15
1.0501e-14
2.14904e-14
2.1769e-14
9.83826e-23
3.00459e-22
7.44464e-22
1.6553e-21
3.18161e-21
5.78689e-21
1.447e-20
5.20881e-20
2.50638e-19
1.32506e-18
6.61634e-18
2.96888e-17
1.12451e-16
3.6114e-16
9.92618e-16
2.46759e-15
4.7578e-15
9.47931e-15
7.98264e-15
)
;

boundaryField
{
    leftWall
    {
        type            zeroGradient;
    }
    rightWall
    {
        type            zeroGradient;
    }
    lowerWall
    {
        type            zeroGradient;
    }
    atmosphere
    {
        type            inletOutlet;
        inletValue      uniform 0;
        value           nonuniform List<scalar> 
46
(
0
0
0
0
0
0
0
0
0
0
0
0
0
0
0
0
0
0
0
0
0
6.33505e-17
1.78575e-17
3.01166e-18
2.85086e-19
1.80216e-20
2.15826e-22
9.83826e-23
3.00459e-22
7.44464e-22
1.6553e-21
3.18161e-21
5.78689e-21
1.447e-20
5.20881e-20
2.50638e-19
1.32506e-18
6.61634e-18
2.96888e-17
1.12451e-16
3.6114e-16
9.92618e-16
2.46759e-15
4.7578e-15
9.47931e-15
7.98264e-15
)
;
    }
    defaultFaces
    {
        type            empty;
    }
}


// ************************************************************************* //
