/*--------------------------------*- C++ -*----------------------------------*\
| =========                 |                                                 |
| \\      /  F ield         | OpenFOAM: The Open Source CFD Toolbox           |
|  \\    /   O peration     | Version:  2312                                  |
|   \\  /    A nd           | Website:  www.openfoam.com                      |
|    \\/     M anipulation  |                                                 |
\*---------------------------------------------------------------------------*/
FoamFile
{
    version     2.0;
    format      ascii;
    arch        "LSB;label=32;scalar=64";
    class       volScalarField;
    location    "2.7";
    object      alpha.galistan;
}
// * * * * * * * * * * * * * * * * * * * * * * * * * * * * * * * * * * * * * //

dimensions      [0 0 0 0 0 0 0];

internalField   nonuniform List<scalar> 
2268
(
1
1
1
1
1
1
1
1
1
1
1
1
1
1
1
1
1
1
1
1
0.999999
0.999963
0.999945
0.999999
1
1
1
1
1
1
1
1
1
1
1
1
1
1
1
1
1
1
1
1
0.999979
0.999945
1
1
1
1
1
0.999998
0.999998
1
1
1
1
1
1
1
1
1
1
1
1
1
1
0.999999
0.999989
0.999893
0.999144
0.999776
0.999712
0.999846
0.999974
1
1
1
1
1
1
1
1
0.999999
1
1
1
1
1
1
0.999999
0.999991
0.883828
0.898998
0.916123
0.938674
0.963054
0.987705
0.999803
0.999741
0.999746
0.999797
0.999889
1
1
0.999999
0.999999
0.999999
1
1
1
1
1
0.999994
0.999945
0.192213
0.186154
0.201027
0.241345
0.302984
0.373497
0.440001
0.485763
0.503749
0.5072
0.515722
0.559366
0.656929
0.766364
0.889203
0.97786
0.999999
0.999997
1
1
0.999999
0.999991
0.999959
4.57613e-22
-4.9481e-21
2.01989e-21
-1.77833e-08
0.000246149
0.000127861
0.000531744
0.00239309
0.00356955
0.00383609
0.0041392
0.00586283
0.016081
0.0813671
0.193669
0.371518
0.615501
0.840272
0.961279
0.992326
0.995165
0.99976
0.998001
1.14108e-05
9.02234e-05
0.000109477
0.000242826
0.000247403
4.52094e-05
3.05021e-06
3.78396e-06
3.33027e-06
1.19177e-05
1.24442e-05
3.86949e-05
6.90829e-06
6.11573e-06
6.90829e-06
0.0153707
0.0659668
0.148969
0.326528
0.52662
0.675455
0.701587
0.645702
0.932341
0.932341
0.932002
0.932004
0.932043
0.932086
0.932781
0.934505
0.93724
0.94018
0.946543
0.949084
0.947735
0.947884
0.949005
0.949552
0.949552
0.948767
0.948211
0.932341
0.932341
0.92202
0.895806
0.859907
0.819739
0.786599
0.787446
0.823699
0.886404
0.929639
0.94913
0.950645
0.950978
0.950992
0.948323
0.896826
0.897989
0.864827
0.71022
0.660024
0.5278
0.372966
0.227299
0.158437
0.191015
0.185218
0.241626
0.41329
0.54636
0.653908
0.737361
0.72481
0.742337
0.741616
0.662241
0.557621
0.47481
0.196113
0.119582
0.0595853
0.00130269
6.81823e-10
6.817e-10
1.18765e-08
3.33266e-06
0.006621
0.0321026
0.167783
0.319583
0.355827
0.386727
0.321563
0.202118
0.235908
0.385295
0.441555
0.0264813
6.83149e-10
6.82879e-10
6.82899e-10
6.81698e-10
0.000476263
0.000799524
0.00744171
0.0194404
0.009058
0.0078323
0.0120945
0.0490807
0.0323671
0.00672149
0.0172378
0.0607164
0.173883
0.392888
0.00501178
0.000224417
6.83149e-10
2.52856e-07
1.13102e-05
2.44779e-05
0.00107292
0.0249513
0.0232466
0.0235486
0.00783721
0.00673404
0.00671396
0.00671425
0.0067243
0.0103017
0.0173875
0.043317
0.196252
0.000329565
0.000312535
3.05998e-05
3.83678e-05
3.97979e-05
3.15968e-05
0.000590127
0.0249309
0.0104815
0.0143788
0.00765263
0.00671305
0.00671363
0.00853851
0.0168738
0.0124727
0.00653538
0.00655067
0.0175648
0.00410305
0.0012094
0.00101703
0.000428552
4.25493e-05
2.78819e-05
1.0662e-06
0.0249199
0.00589145
0.00439486
0.014481
0.0164745
0.0137874
0.0314322
0.0314289
0.0144311
0.0066945
0.00403324
0.00403465
6.39611e-05
0.000331889
8.76735e-05
8.52724e-05
1.05672e-05
7.35019e-07
7.35271e-07
7.34906e-07
1.06356e-06
1.31417e-05
0.000177761
0.000275528
0.000133886
0.00857883
0.0100027
0.00713674
0.000184336
0.000184491
0.00125389
0.00125819
0.013304
0.039032
0.0422784
0.000221469
0.000333149
1.03148e-05
8.20701e-07
8.30027e-07
4.85692e-06
2.12764e-06
2.90732e-05
8.93106e-05
0.00014488
0.000242631
0.000541683
0.000847837
0.00231927
0.00290741
0.00121726
0.000166805
0.00085157
0.00214599
0.00161398
0.000147094
1.1132e-05
1.10658e-05
0.000347783
0.000327803
0.000300048
0.000161309
0.000169772
0.000358193
0.0002583
0.000277589
0.00029415
0.000294123
0.000287674
0.000111169
2.56052e-05
4.75622e-06
4.68764e-06
4.61868e-06
4.42619e-06
4.05783e-06
0.00236937
0.00369761
0.0037059
0.00226376
0.00137291
0.000624459
0.000309563
0.00016776
0.000167999
0.000379227
0.000521727
0.000521891
0.000359133
0.000183034
0.000121662
8.23967e-05
0.000101464
0.000106235
8.38026e-05
2.66394e-05
1.54851e-05
5.52512e-06
3.99739e-06
1.34931e-06
1.35093e-06
8.51036e-05
7.33019e-05
0.000118449
0.00100631
0.00115749
0.00376605
0.00417369
0.00270294
0.000165381
5.99084e-05
4.29878e-05
4.2168e-06
1.24745e-06
1.23748e-06
1.64426e-06
3.81161e-06
3.09654e-05
9.5406e-05
0.000141994
0.000144429
4.71406e-05
6.1218e-06
1.34904e-06
1.35093e-06
1.34904e-06
1.35093e-06
0.000128897
0.00199737
0.00389826
0.00417173
0.00417538
0.000931478
0.00010834
1.23745e-06
1.23745e-06
1.23745e-06
1.23745e-06
2.75651e-05
6.75606e-05
3.09883e-05
1.42863e-05
1.51398e-05
0.0002463
0.000599816
0.00064062
0.000641584
0.000478469
0.000228356
7.4292e-05
0.000115965
0.000382911
0.00145155
0.00229607
0.00164879
0.000181733
6.88517e-06
7.10993e-06
2.61033e-06
1.23747e-06
1.23745e-06
0.000211944
0.000862393
0.000677148
0.00012279
3.49449e-08
2.70904e-08
0.000380796
0.00306543
0.00311583
0.00201154
0.000785614
0.00041805
0.000115965
0.000123665
0.000123152
0.000165079
0.00018766
0.000108605
0.00013485
0.000166035
0.000108937
1.618e-05
1.23745e-06
0.000405008
0.000939132
0.000939135
0.000620745
2.21991e-05
3.61233e-08
2.34641e-08
0.00297271
0.00622401
0.00623035
0.00584381
0.0026678
0.000174536
0.000326945
0.000290377
0.000216852
0.0002147
0.000202467
0.000239537
0.000244054
0.000198305
8.75117e-05
0.000185092
0.000662825
0.00093914
0.000936187
0.000725313
0.000119319
2.95731e-05
2.39898e-08
3.87684e-05
0.00124676
0.00394792
0.00596967
0.00630042
0.000207851
0.000186883
4.15647e-14
1.11166e-14
4.04361e-14
1.48351e-12
2.49394e-11
9.31269e-06
1.36967e-05
5.45237e-05
3.58316e-05
1.67073e-06
6.56408e-05
0.000387813
0.000372295
6.75085e-05
9.15569e-08
8.78636e-08
9.15533e-08
9.323e-08
1.12269e-07
1.51403e-06
0.000520607
0.000208242
1.05445e-05
1.65355e-10
7.97746e-09
6.36062e-10
1.04086e-07
7.63978e-07
7.20472e-09
4.26809e-24
2.28864e-16
-1.22953e-28
-9.62805e-10
1.86336e-17
1.45247e-17
4.81997e-06
4.56964e-06
9.70599e-07
2.22901e-08
1.57607e-06
4.74481e-06
2.68065e-06
4.1126e-07
1.37723e-10
7.9534e-05
1.25801e-08
1.23447e-06
1.12933e-07
7.21142e-09
6.13135e-07
8.51612e-06
7.78154e-06
1.9954e-06
-3.9453e-13
1.05881e-11
3.02257e-07
4.61963e-07
3.42732e-07
3.49616e-09
2.31774e-09
3.07442e-08
1.74876e-08
1.69396e-08
5.16543e-06
5.61769e-06
5.59472e-06
7.29611e-07
1.25801e-08
1.25799e-08
2.40834e-07
1.851e-07
1.18806e-08
5.77067e-06
9.56328e-06
9.547e-06
4.67541e-06
8.74425e-10
2.58014e-08
3.356e-07
2.76002e-07
1.15707e-07
2.87038e-08
2.35738e-09
2.36244e-09
1.67202e-06
3.01197e-06
2.48895e-06
5.04562e-07
2.66558e-07
2.87021e-07
1.25821e-08
1.25802e-08
1.94729e-07
1.3212e-07
1.1341e-08
9.51814e-06
9.55309e-06
8.0465e-06
1.21223e-06
2.69821e-08
2.1648e-08
1.70059e-07
1.62124e-07
7.62427e-08
6.94983e-08
1.51648e-06
1.62727e-06
5.82518e-07
1.57059e-08
8.53383e-08
8.62188e-08
6.40677e-07
1.58254e-06
1.11423e-07
2.5607e-07
1.2501e-07
8.6888e-08
1.76772e-06
9.5321e-06
8.04032e-06
1.6694e-07
2.55007e-08
2.54587e-08
4.40418e-08
2.02409e-07
8.38811e-07
2.79915e-06
2.5023e-06
2.89924e-07
2.09326e-07
1.56217e-09
1.57033e-09
2.42874e-07
7.60491e-07
4.43881e-06
5.20606e-06
1.89022e-07
2.44518e-07
1.77279e-07
8.8513e-08
1.75406e-06
4.41009e-06
2.69078e-07
2.06154e-08
3.85729e-08
4.39887e-08
4.8213e-08
2.09636e-07
2.23607e-06
2.80154e-06
9.04194e-07
9.79005e-09
1.05053e-08
1.81374e-08
1.22077e-07
1.00853e-06
5.09144e-06
5.07329e-06
4.66519e-06
2.04401e-07
3.47297e-07
1.25608e-06
1.56854e-06
8.86149e-07
1.81187e-08
1.39216e-08
1.95885e-08
1.03409e-07
6.04434e-08
5.11355e-08
2.78331e-07
4.62143e-07
3.90619e-07
4.88065e-08
9.24751e-09
1.07184e-09
6.32688e-09
1.16387e-07
5.66254e-07
3.3416e-06
3.18729e-06
1.15305e-08
1.63914e-06
1.74825e-06
2.28612e-06
2.23965e-06
2.78859e-07
1.68998e-08
1.98678e-08
1.05013e-07
1.27888e-07
8.55661e-08
1.95457e-08
2.11443e-08
3.18584e-08
2.78257e-08
2.83342e-08
1.82114e-08
1.06119e-09
3.14302e-09
3.04536e-08
1.6171e-07
1.54388e-07
5.81363e-08
3.12986e-08
1.99268e-06
1.92553e-06
5.96336e-07
5.15686e-09
4.73705e-08
4.29248e-08
5.81931e-08
1.28493e-07
1.28338e-07
3.86213e-08
4.15973e-09
4.28995e-09
5.51841e-09
1.47445e-08
1.84622e-08
1.4416e-08
5.6867e-09
1.76067e-09
1.18334e-09
1.07233e-09
1.29008e-09
6.69369e-09
7.38356e-09
4.13034e-09
1.89372e-09
1.97418e-09
4.06172e-09
2.88071e-08
6.51665e-08
9.3476e-08
9.00429e-08
2.59469e-08
1.8788e-08
5.33934e-09
3.5704e-09
5.80193e-09
1.37905e-08
1.51418e-08
1.1432e-08
4.87156e-09
2.80946e-09
1.17192e-09
9.14906e-10
1.96474e-09
2.96884e-09
2.63802e-09
2.86372e-09
1.88384e-09
4.16476e-09
3.34741e-08
5.69003e-08
4.30988e-08
1.36813e-08
3.72155e-09
5.98206e-09
9.67487e-09
8.09156e-09
3.56051e-09
5.99226e-09
8.93037e-09
9.52753e-09
7.55783e-09
4.08261e-09
2.14297e-09
9.66384e-10
6.14961e-10
7.78399e-10
1.03449e-09
9.90493e-10
4.0426e-09
2.44711e-09
9.06967e-09
3.47113e-08
3.63648e-08
1.08684e-08
1.20166e-09
2.25164e-09
3.4e-09
4.81035e-09
4.30203e-09
2.91301e-09
3.07227e-09
4.04284e-09
4.39144e-09
3.75226e-09
2.41904e-09
1.24859e-09
5.67593e-10
2.86067e-10
2.71047e-10
3.21374e-10
3.36551e-10
4.17834e-09
2.49119e-09
4.03975e-09
5.29832e-09
1.90582e-09
7.09263e-10
1.21942e-09
1.93363e-09
2.06489e-09
2.26441e-09
1.67606e-09
1.43627e-09
1.41928e-09
1.62039e-09
1.76588e-09
1.53509e-09
1.06773e-09
5.80328e-10
2.59901e-10
1.26633e-10
1.0385e-10
1.06576e-10
1.12222e-10
3.82452e-09
1.43799e-09
5.99507e-10
2.95884e-10
3.3407e-10
5.30964e-10
6.87872e-10
8.71181e-10
9.28655e-10
8.35019e-10
6.43595e-10
6.06248e-10
5.98025e-10
6.09032e-10
6.0505e-10
5.26448e-10
3.64239e-10
2.06146e-10
9.86746e-11
5.0573e-11
3.76093e-11
3.55899e-11
3.51546e-11
3.76857e-09
1.2628e-09
3.12149e-10
2.85556e-10
2.90163e-10
2.81293e-10
2.7644e-10
3.1905e-10
3.09853e-10
2.69199e-10
2.28912e-10
2.05168e-10
1.90054e-10
1.79277e-10
1.65985e-10
1.39456e-10
1.0055e-10
6.0093e-11
3.08921e-11
1.78778e-11
1.26107e-11
1.16018e-11
1.11349e-11
4.22659e-09
1.53582e-09
2.97236e-10
2.78005e-10
2.81053e-10
2.22365e-10
1.2884e-10
9.83179e-11
8.75417e-11
7.16495e-11
5.91779e-11
5.1409e-11
4.55521e-11
4.08763e-11
3.61499e-11
3.00874e-11
2.2227e-11
1.39918e-11
8.51833e-12
4.83418e-12
3.73399e-12
3.43181e-12
3.19978e-12
4.4835e-09
2.24462e-09
2.75898e-10
2.28344e-10
2.24213e-10
1.55919e-10
6.41514e-11
3.099e-11
2.42199e-11
1.71881e-11
1.28712e-11
1.06009e-11
8.94685e-12
7.61711e-12
6.66001e-12
5.56146e-12
4.23087e-12
2.93864e-12
1.89988e-12
1.15548e-12
9.56312e-13
9.19624e-13
9.13203e-13
4.61304e-09
3.02531e-09
2.47747e-10
1.27832e-10
8.37598e-11
4.11871e-11
2.15129e-11
1.05907e-11
5.14267e-12
2.72505e-12
1.81692e-12
1.44696e-12
1.26017e-12
1.12123e-12
9.72666e-13
8.49894e-13
6.89987e-13
5.10521e-13
3.52467e-13
2.30991e-13
2.04491e-13
2.11835e-13
2.2214e-13
4.61646e-09
3.5154e-09
4.09659e-10
1.26139e-10
6.90518e-11
3.39228e-11
1.53728e-11
7.01534e-12
3.4322e-12
2.09199e-12
1.29189e-12
7.5576e-13
4.40015e-13
2.5833e-13
1.60888e-13
1.1263e-13
9.63894e-14
7.5491e-14
5.50157e-14
4.15547e-14
3.75667e-14
4.13494e-14
4.8645e-14
3.86404e-09
3.92119e-09
1.00504e-09
1.47799e-10
6.35067e-11
3.35342e-11
1.54442e-11
8.6245e-12
6.52936e-12
5.59754e-12
3.36624e-12
1.99887e-12
1.10141e-12
5.50905e-13
2.20096e-13
7.44622e-14
2.70977e-14
1.31804e-14
8.21682e-15
5.83511e-15
5.66146e-15
7.07677e-15
9.52497e-15
3.02316e-09
4.07098e-09
1.86841e-09
2.60629e-10
7.41128e-11
4.2449e-11
2.4508e-11
1.90942e-11
1.62145e-11
1.32241e-11
6.97773e-12
4.79756e-12
2.71222e-12
1.46877e-12
6.22557e-13
1.97848e-13
5.51793e-14
1.40968e-14
3.43189e-15
1.12936e-15
7.90349e-16
9.89708e-16
1.58182e-15
2.59262e-09
4.05466e-09
2.11326e-09
6.15544e-10
1.14238e-10
7.61746e-11
6.14592e-11
5.94172e-11
5.80233e-11
3.16443e-11
1.98839e-11
9.78574e-12
5.36354e-12
3.30857e-12
1.50641e-12
4.97567e-13
1.38372e-13
3.44537e-14
7.34914e-15
1.28329e-15
3.05157e-16
1.54693e-16
2.5229e-16
1.79706e-09
2.27567e-09
2.45096e-09
9.35593e-10
2.0844e-10
1.71926e-10
2.15991e-10
2.46573e-10
1.87949e-10
1.03791e-10
5.98705e-11
2.66835e-11
1.29658e-11
6.03102e-12
3.00137e-12
1.04587e-12
3.12768e-13
7.69035e-14
1.57075e-14
2.73793e-15
4.94497e-16
6.61079e-17
4.16307e-17
1.64627e-09
1.33747e-09
2.03498e-09
6.92834e-10
3.77545e-10
3.85758e-10
5.89695e-10
6.68032e-10
4.70878e-10
2.29261e-10
1.01557e-10
4.50834e-11
2.23421e-11
1.1855e-11
4.93931e-12
1.8061e-12
5.76552e-13
1.5028e-13
3.18624e-14
5.40741e-15
9.09908e-16
1.00693e-16
1.52463e-17
1.60046e-09
3.99388e-10
5.37235e-10
6.3092e-10
4.80214e-10
6.49426e-10
1.081e-09
1.12327e-09
7.90666e-10
4.16569e-10
1.67665e-10
6.33581e-11
3.18508e-11
1.56267e-11
6.88472e-12
2.62873e-12
8.48862e-13
2.36607e-13
5.05605e-14
8.69828e-15
1.56159e-15
1.28655e-16
1.44535e-17
2.28518e-09
2.78942e-10
3.18018e-10
3.8116e-10
5.22579e-10
9.38986e-10
1.37026e-09
1.37701e-09
1.02104e-09
5.34946e-10
2.05782e-10
8.08169e-11
3.7742e-11
1.69723e-11
7.14646e-12
2.74673e-12
9.41535e-13
2.77088e-13
6.58982e-14
1.1588e-14
1.91187e-15
2.15296e-16
2.02657e-17
3.83787e-09
2.78974e-10
2.98617e-10
3.73688e-10
6.12479e-10
1.34445e-09
1.87894e-09
1.82789e-09
1.17317e-09
5.73868e-10
2.29316e-10
9.11693e-11
3.91621e-11
1.68184e-11
6.65513e-12
2.41747e-12
8.13579e-13
2.40618e-13
5.97801e-14
1.13861e-14
1.97417e-15
1.459e-16
1.83207e-17
5.90037e-09
6.23495e-10
4.49568e-10
6.68997e-10
1.0294e-09
1.90052e-09
2.35342e-09
1.98366e-09
1.09188e-09
5.04539e-10
2.08087e-10
8.45102e-11
3.64255e-11
1.48074e-11
5.23951e-12
1.69358e-12
5.1672e-13
1.4496e-13
3.65611e-14
7.26115e-15
1.13842e-15
1.37199e-16
1.20882e-17
6.61585e-09
1.8558e-09
8.32556e-10
1.1637e-09
1.45645e-09
2.08043e-09
2.30633e-09
1.37761e-09
6.69062e-10
3.36758e-10
1.4967e-10
6.22883e-11
2.85765e-11
1.09759e-11
3.36675e-12
8.9765e-13
2.2585e-13
5.4387e-14
1.24485e-14
2.79629e-15
5.49432e-16
4.89085e-17
5.85891e-18
6.3495e-09
2.72418e-09
1.20777e-09
1.29946e-09
1.42608e-09
1.87818e-09
1.90547e-09
4.54467e-10
2.40928e-10
1.50178e-10
7.87267e-11
3.78466e-11
1.78703e-11
6.58007e-12
1.75603e-12
3.69063e-13
6.70953e-14
1.13624e-14
2.35075e-15
6.46421e-16
1.18155e-16
1.93958e-17
2.3213e-18
4.95189e-09
2.23641e-09
9.08919e-10
8.00679e-10
5.70838e-10
7.58719e-10
5.82556e-10
9.4139e-11
4.77628e-11
4.43561e-11
2.98745e-11
1.44481e-11
7.40161e-12
2.67648e-12
6.42773e-13
1.03994e-13
1.21523e-14
1.1945e-15
2.0416e-16
9.23121e-17
2.23453e-17
4.07231e-18
7.346e-19
4.62443e-10
1.8765e-10
1.09287e-10
8.41782e-11
4.26707e-11
8.91794e-11
5.59374e-11
6.95159e-12
3.05753e-12
4.28006e-12
5.26187e-12
2.64212e-12
1.51377e-12
5.207e-13
1.07436e-13
1.24975e-14
8.71615e-16
4.376e-17
8.62393e-18
8.14402e-18
3.46746e-18
8.42665e-19
1.95894e-19
0.102121
0.138898
0.138303
0.139352
1.1241e-05
1.13167e-05
1.15209e-05
1.16075e-05
0.00211185
0.00266824
0.00220317
0.00144184
0.00298984
0.00458483
0.00458105
0.00454038
1.34924e-06
1.3688e-06
2.57171e-05
0.000143912
1.05307e-05
1.34467e-06
1.33183e-06
1.33294e-06
0.000157978
1.27074e-05
1.33739e-06
1.33419e-06
0.000826452
0.00021114
1.76263e-06
1.33538e-06
0.00630362
0.00499172
0.000352446
3.65884e-05
0.00307415
0.00426491
0.00259425
0.000713385
9.19409e-16
1.9674e-17
1.07714e-15
2.17723e-16
2.7442e-09
1.87804e-13
1.18695e-08
3.91531e-08
1.58387e-07
4.02782e-11
3.06651e-07
7.07033e-07
1.9873e-06
1.86081e-06
1.6521e-06
6.93817e-07
5.20603e-06
5.20587e-06
1.63628e-06
1.44323e-09
2.04733e-07
1.20297e-07
5.80556e-07
5.8188e-07
1.45749e-08
2.68984e-08
1.79028e-08
2.73501e-08
1.24475e-09
1.17107e-09
1.29047e-09
2.36325e-09
1.32043e-09
6.62901e-10
8.14185e-10
9.13531e-10
1.08035e-09
5.40927e-10
4.5487e-10
4.26968e-10
6.43023e-10
3.55722e-10
2.52044e-10
2.12798e-10
2.7068e-10
1.83619e-10
1.32222e-10
1.05057e-10
9.66291e-11
7.51787e-11
5.86847e-11
4.83645e-11
3.22953e-11
2.9173e-11
2.42074e-11
2.02993e-11
1.03931e-11
9.94352e-12
9.04128e-12
8.05212e-12
3.21143e-12
3.20587e-12
3.10461e-12
3.00383e-12
9.14133e-13
9.66154e-13
1.02393e-12
1.05076e-12
2.40625e-13
2.73151e-13
3.12539e-13
3.42521e-13
5.80095e-14
7.09127e-14
9.0948e-14
1.03554e-13
1.30178e-14
1.7212e-14
2.31016e-14
2.8846e-14
2.45025e-15
3.62033e-15
5.63163e-15
7.54702e-15
4.79701e-16
7.99067e-16
1.34542e-15
1.94087e-15
7.62476e-17
1.75884e-16
3.26088e-16
5.81499e-16
2.05116e-17
4.31698e-17
1.00633e-16
1.79644e-16
4.8981e-18
1.14541e-17
2.90679e-17
6.39408e-17
1.81344e-18
3.17651e-18
8.66229e-18
2.03361e-17
7.30789e-19
7.71508e-19
2.39699e-18
5.67716e-18
4.74718e-19
2.08315e-19
4.82594e-19
1.39652e-18
3.02757e-19
5.11883e-20
9.40614e-20
2.70399e-19
1.73894e-19
1.5949e-20
1.19501e-20
4.39637e-20
7.75105e-20
5.41359e-21
2.13224e-21
6.857e-21
2.61264e-20
2.06017e-21
3.69348e-22
8.47748e-22
0.0403846
0.00291741
0.00529133
0.00509432
0.000710969
2.21298e-06
1.96878e-12
0.013604
0.00962624
0.0043762
0.0115561
0.0314265
0.0314323
0.0314265
0.017091
0.00460719
0.00428817
0.00403381
0.00403428
1.17946e-05
0.000322176
0.00993624
0.0119844
0.00350035
2.4059e-22
1.03871e-23
0.00378327
0.0100178
0.00643327
0.00308008
0.00308123
0.0270444
0.0241135
0.00771203
0.00750975
0.0111593
0.0122473
0.00403474
0.000417896
0.000149987
0.00790532
0.0119913
0.01092
0.00232592
-3.08041e-22
-2.29477e-23
0.00453242
0.00843221
0.00793108
0.0030999
0.0048825
0.0096959
0.0089276
0.0136177
0.0187068
0.0186883
0.00889723
0.00362001
0.000212957
0.000263858
0.00128913
0.00840098
0.0127323
0.0136142
0.00607566
0.00171314
0.00118181
0.00566785
0.00333835
0.00154144
0.00154057
0.00294522
0.0100239
0.0145493
0.0179141
0.0168841
0.00198339
0.000963887
0.000237825
0.000216506
0.000617298
0.00246786
0.0145834
0.0152079
0.0114726
0.000539222
0.000796798
0.00524749
0.00558405
0.00434244
0.00300185
0.00294599
0.00368338
0.0135158
0.0180879
1.56129e-06
3.30221e-05
0.000145692
0.000216243
0.000151884
7.94141e-05
0.00339441
0.0152246
0.00689354
5.05489e-05
2.26678e-05
2.32116e-05
0.00353326
0.0081571
0.00722125
0.00294093
0.00294663
0.00687878
0.0181009
4.87264e-06
1.28386e-05
1.25066e-05
3.7166e-05
4.00104e-05
1.71211e-05
5.03966e-06
0.00387562
0.0133382
0.00545629
0.00133835
0.000257324
0.000244123
0.00549786
0.0116993
0.00949477
0.00370944
0.00424406
0.017426
2.03927e-05
0.000163795
0.000185957
0.000120826
2.82483e-05
5.51366e-06
4.94762e-06
0.00234116
0.0187938
0.0191497
0.00926041
0.000829573
0.00144874
0.00644033
0.0117016
0.0116939
0.00733477
0.00201796
0.0135254
7.50887e-06
0.00108746
0.00392447
0.00361658
0.0013353
2.19549e-05
4.913e-06
0.00363794
0.0189368
0.019151
0.0169382
0.00304871
0.000304209
0.00261243
0.00855687
0.011697
0.00701178
0.00150224
0.00831352
7.07335e-05
0.000216357
0.00452879
0.00583967
0.00582473
0.00191326
5.85642e-06
0.00122718
0.0120505
0.0166296
0.0107817
0.00204899
0.000164926
2.71038e-05
0.000438911
0.0019533
0.00157055
0.0012826
0.000913105
3.24142e-13
1.40811e-07
1.50173e-06
0.0013054
0.00267154
0.00166448
6.3263e-05
7.0904e-05
0.000690498
0.000759965
0.000470478
0.000395886
9.87109e-05
6.84504e-06
5.79486e-07
5.79485e-07
8.75132e-07
9.83072e-05
9.69615e-07
5.4896e-08
5.81738e-07
5.09237e-07
4.48929e-07
3.33444e-06
0.000147024
7.24511e-05
1.27773e-06
1.21826e-06
6.47543e-05
8.67908e-05
7.24489e-05
2.16309e-05
1.69731e-06
5.79485e-07
5.79486e-07
7.52189e-07
7.32153e-07
9.20555e-07
1.40183e-07
3.58961e-06
1.09321e-05
2.56735e-05
6.41012e-05
6.25814e-05
2.69502e-05
1.31655e-06
6.70201e-06
5.25488e-05
4.25598e-05
2.3185e-05
1.23891e-05
1.68959e-06
3.68964e-06
4.62646e-06
1.17773e-06
7.32186e-07
1.06751e-06
2.05889e-06
3.58241e-06
5.00592e-06
1.02141e-05
1.74943e-05
1.19079e-05
4.45989e-06
1.3861e-06
6.40763e-06
6.20839e-06
3.49492e-06
1.97067e-06
4.0574e-06
6.70745e-06
1.38636e-05
2.00943e-05
1.89859e-05
6.4705e-06
1.06612e-06
1.45174e-09
1.44054e-09
4.35628e-07
8.37657e-07
1.29407e-06
8.48021e-07
2.2874e-07
7.73958e-07
2.17496e-06
1.48001e-10
1.52057e-10
1.19273e-08
1.68335e-06
4.84973e-06
1.05528e-05
2.00922e-05
2.00944e-05
2.00908e-05
1.06751e-06
2.68509e-07
1.5384e-09
7.93323e-10
3.20398e-10
1.49062e-10
1.54156e-10
1.51433e-10
7.38824e-09
1.48013e-10
1.48002e-10
1.48013e-10
1.48013e-10
8.31627e-08
9.74786e-07
1.2098e-06
5.74021e-06
1.33652e-05
2.00772e-05
8.00815e-06
2.09436e-08
4.72381e-09
2.20414e-09
2.41364e-09
1.33774e-09
9.29398e-10
9.26367e-10
5.6768e-10
2.60919e-10
2.45472e-10
1.97866e-10
1.62221e-10
-3.16653e-12
-1.59731e-10
-7.37957e-10
3.80837e-24
4.88846e-07
1.60578e-05
1.25717e-05
3.33914e-09
3.65102e-09
2.13361e-09
2.03766e-09
1.37427e-09
1.04493e-09
1.04455e-09
7.27836e-10
3.72536e-10
3.06983e-10
2.58064e-10
2.414e-10
7.58168e-10
2.4275e-08
7.58812e-08
1.09887e-07
4.93061e-08
9.95784e-07
8.18531e-06
1.0404e-09
1.18051e-09
1.03621e-09
1.10467e-09
9.24954e-10
6.54937e-10
6.02881e-10
4.70902e-10
3.09623e-10
2.88368e-10
4.41313e-10
6.32378e-10
2.38774e-09
8.29614e-08
1.9685e-07
1.9736e-07
4.93045e-08
4.93047e-08
2.24214e-07
4.06329e-10
4.05523e-10
4.31426e-10
4.81488e-10
4.54563e-10
2.73074e-10
1.91984e-10
1.8462e-10
2.02551e-10
2.46441e-10
7.76859e-10
1.49919e-09
5.85967e-09
4.57577e-08
1.00572e-07
1.24513e-07
4.93039e-08
4.93037e-08
4.93047e-08
1.82563e-10
1.6851e-10
1.79401e-10
1.99137e-10
1.9157e-10
1.20062e-10
6.11828e-11
5.2735e-11
1.0238e-10
2.41761e-10
6.57354e-10
1.44151e-09
3.33317e-09
4.7804e-09
2.95412e-09
5.54912e-08
1.63285e-07
1.91551e-07
4.93052e-08
8.72886e-11
7.75703e-11
7.9502e-11
8.51264e-11
8.40036e-11
6.22199e-11
3.58066e-11
3.37307e-11
7.0602e-11
1.86613e-10
4.11714e-10
7.26661e-10
9.14945e-10
5.05333e-10
4.76865e-10
2.21157e-08
1.8621e-07
3.44526e-07
3.397e-07
4.08388e-11
3.65698e-11
3.66135e-11
3.79853e-11
3.81225e-11
3.18683e-11
2.4215e-11
2.42004e-11
4.72815e-11
1.0881e-10
2.29613e-10
3.7646e-10
4.55849e-10
4.73815e-10
4.74666e-10
9.39061e-09
1.23674e-07
2.57791e-07
3.50619e-07
1.81283e-11
1.69266e-11
1.71539e-11
1.77301e-11
1.79554e-11
1.623e-11
1.47135e-11
1.63307e-11
2.74841e-11
5.8613e-11
1.20045e-10
1.99022e-10
2.70149e-10
3.94491e-10
5.72169e-10
8.02898e-10
3.15497e-08
1.2575e-07
1.88959e-07
7.59949e-12
7.48767e-12
7.82078e-12
8.24201e-12
8.46189e-12
8.14021e-12
8.1494e-12
9.37667e-12
1.46851e-11
2.90236e-11
5.9394e-11
1.01927e-10
1.48966e-10
2.33773e-10
4.64489e-10
7.30326e-10
7.33189e-10
2.97541e-09
6.92929e-08
2.98703e-12
3.1099e-12
3.37383e-12
3.6388e-12
3.81016e-12
3.86352e-12
4.13688e-12
4.88546e-12
7.25037e-12
1.34657e-11
2.73666e-11
4.87218e-11
7.35793e-11
1.19853e-10
2.53577e-10
6.784e-10
1.14942e-09
1.16287e-09
1.17495e-09
1.08726e-12
1.21149e-12
1.36515e-12
1.51426e-12
1.63726e-12
1.7684e-12
2.00955e-12
2.50855e-12
3.69286e-12
6.48518e-12
1.2644e-11
2.35774e-11
3.84225e-11
5.71561e-11
1.08922e-10
4.16744e-10
1.30755e-09
1.87e-09
1.74258e-09
3.68029e-13
4.40203e-13
5.17705e-13
5.97197e-13
6.79495e-13
8.01554e-13
1.01794e-12
1.4359e-12
2.26853e-12
3.95594e-12
7.35555e-12
1.39711e-11
2.289e-11
3.67252e-11
6.65729e-11
1.74112e-10
1.06798e-09
2.03138e-09
2.12723e-09
1.15937e-13
1.4943e-13
1.87214e-13
2.29717e-13
2.89e-13
3.97497e-13
6.05687e-13
1.01909e-12
1.81475e-12
3.30016e-12
6.00594e-12
1.06938e-11
1.90419e-11
3.34887e-11
6.19378e-11
1.50933e-10
7.2908e-10
1.9632e-09
2.0101e-09
3.38867e-14
4.88172e-14
6.65275e-14
9.24233e-14
1.39491e-13
2.37082e-13
4.39138e-13
8.6003e-13
1.69516e-12
3.26137e-12
6.0667e-12
1.14837e-11
2.12807e-11
3.80143e-11
8.123e-11
1.9681e-10
6.78234e-10
1.85642e-09
1.82308e-09
9.79273e-15
1.583e-14
2.5317e-14
4.25944e-14
7.99737e-14
1.63876e-13
3.4758e-13
7.45621e-13
1.58684e-12
3.24354e-12
6.66102e-12
1.36928e-11
2.62765e-11
5.06427e-11
1.07571e-10
2.55426e-10
7.82609e-10
1.83999e-09
1.59048e-09
2.91964e-15
5.61338e-15
1.10612e-14
2.30714e-14
5.15007e-14
1.17592e-13
2.71917e-13
6.21257e-13
1.39228e-12
3.02975e-12
6.58269e-12
1.50889e-11
3.32481e-11
7.5687e-11
1.71192e-10
3.45539e-10
9.00761e-10
1.82587e-09
1.38414e-09
9.67164e-16
2.23597e-15
5.19363e-15
1.276e-14
3.13549e-14
7.69192e-14
1.87389e-13
4.60321e-13
1.10287e-12
2.59247e-12
6.06204e-12
1.40962e-11
3.32076e-11
8.04175e-11
2.13065e-10
4.7071e-10
9.54708e-10
1.72959e-09
9.48876e-10
3.62557e-16
9.57039e-16
2.55606e-15
6.96319e-15
1.78408e-14
4.60072e-14
1.1646e-13
2.96728e-13
7.721e-13
1.9449e-12
4.91867e-12
1.21138e-11
2.8788e-11
7.49135e-11
2.05555e-10
5.00141e-10
9.43283e-10
1.44631e-09
7.86001e-10
1.27088e-16
3.97111e-16
1.127e-15
3.12787e-15
8.54927e-15
2.35782e-14
6.33903e-14
1.72557e-13
4.71885e-13
1.28882e-12
3.31518e-12
8.74934e-12
2.24937e-11
5.89644e-11
1.67999e-10
4.56978e-10
8.39061e-10
1.07541e-09
5.95556e-10
4.33603e-17
1.47597e-16
4.46629e-16
1.29463e-15
3.59131e-15
1.00227e-14
2.83472e-14
8.16228e-14
2.41065e-13
7.11247e-13
1.99319e-12
5.3436e-12
1.44139e-11
3.97182e-11
1.09698e-10
3.11464e-10
6.54939e-10
7.4087e-10
3.88502e-10
1.28196e-17
4.61461e-17
1.4867e-16
4.45427e-16
1.29828e-15
3.72343e-15
1.10889e-14
3.50826e-14
1.13646e-13
3.64102e-13
1.11117e-12
3.14702e-12
8.6275e-12
2.30985e-11
6.35915e-11
1.70053e-10
3.70935e-10
5.26816e-10
2.19771e-10
3.22207e-18
1.22671e-17
4.14816e-17
1.29973e-16
3.84604e-16
1.16882e-15
3.84736e-15
1.30087e-14
4.56788e-14
1.572e-13
5.18723e-13
1.60415e-12
4.52838e-12
1.21323e-11
3.19142e-11
8.05163e-11
1.77697e-10
2.6851e-10
1.40519e-10
7.02867e-19
2.83317e-18
9.89561e-18
3.169e-17
9.93397e-17
3.251e-16
1.11904e-15
4.05047e-15
1.61933e-14
6.29948e-14
2.27767e-13
7.49037e-13
2.20102e-12
5.96129e-12
1.64117e-11
4.08488e-11
7.70615e-11
1.47777e-10
6.5322e-11
1.29704e-19
5.57472e-19
2.03658e-18
6.85433e-18
2.26641e-17
7.16826e-17
2.67065e-16
1.07159e-15
4.33948e-15
1.86548e-14
7.61283e-14
2.84032e-13
9.09703e-13
2.58416e-12
6.34102e-12
1.57018e-11
4.07043e-11
5.15695e-11
3.74808e-11
2.04484e-20
9.18726e-20
3.42735e-19
1.21314e-18
4.23644e-18
1.56678e-17
5.65144e-17
2.3658e-16
1.14127e-15
5.57001e-15
2.5006e-14
1.01553e-13
3.52114e-13
1.06387e-12
2.77736e-12
6.96981e-12
1.19483e-11
2.43257e-11
2.09865e-11
2.77271e-21
1.35551e-20
5.56277e-20
2.17751e-19
7.92597e-19
2.79887e-18
1.13239e-17
5.15415e-17
2.65522e-16
1.42277e-15
7.0995e-15
3.17704e-14
1.20314e-13
3.87797e-13
1.0774e-12
2.74842e-12
5.2334e-12
1.03983e-11
7.64775e-12
)
;

boundaryField
{
    leftWall
    {
        type            zeroGradient;
    }
    rightWall
    {
        type            zeroGradient;
    }
    lowerWall
    {
        type            zeroGradient;
    }
    atmosphere
    {
        type            inletOutlet;
        inletValue      uniform 0;
        value           nonuniform List<scalar> 
46
(
0
0
0
0
0
0
0
0
0
0
0
0
0
0
0
0
0
0
0
0
0
8.42665e-19
1.95894e-19
2.61264e-20
2.06017e-21
3.69348e-22
8.47748e-22
2.77271e-21
1.35551e-20
5.56277e-20
2.17751e-19
7.92597e-19
2.79887e-18
1.13239e-17
5.15415e-17
2.65522e-16
1.42277e-15
7.0995e-15
3.17704e-14
1.20314e-13
3.87797e-13
1.0774e-12
2.74842e-12
5.2334e-12
1.03983e-11
7.64775e-12
)
;
    }
    defaultFaces
    {
        type            empty;
    }
}


// ************************************************************************* //
