/*--------------------------------*- C++ -*----------------------------------*\
| =========                 |                                                 |
| \\      /  F ield         | OpenFOAM: The Open Source CFD Toolbox           |
|  \\    /   O peration     | Version:  2312                                  |
|   \\  /    A nd           | Website:  www.openfoam.com                      |
|    \\/     M anipulation  |                                                 |
\*---------------------------------------------------------------------------*/
FoamFile
{
    version     2.0;
    format      ascii;
    arch        "LSB;label=32;scalar=64";
    class       volScalarField;
    location    "2.7";
    object      alpha.air;
}
// * * * * * * * * * * * * * * * * * * * * * * * * * * * * * * * * * * * * * //

dimensions      [0 0 0 0 0 0 0];

internalField   nonuniform List<scalar> 
2268
(
6.87066e-10
6.78309e-10
5.26714e-10
3.20596e-10
1.74568e-10
1.14891e-10
5.97885e-11
3.02595e-11
1.84077e-11
1.13222e-11
7.70856e-12
7.9719e-12
8.56436e-12
8.63479e-12
1.11912e-11
1.85526e-11
3.37839e-11
4.24744e-11
4.44929e-11
4.0184e-11
4.01811e-11
7.64645e-10
1.16636e-08
6.87059e-10
1.0038e-09
8.85776e-10
2.44962e-09
1.92105e-09
8.51656e-10
2.69592e-10
8.18879e-11
6.97975e-11
5.8751e-11
5.6628e-11
6.7583e-11
7.46005e-11
4.8314e-11
5.42161e-11
9.81607e-11
2.46606e-10
5.57871e-10
3.93565e-10
1.78191e-10
5.29369e-11
1.83737e-09
1.86855e-08
6.87059e-10
7.71625e-10
1.19171e-08
2.70955e-08
1.67723e-08
2.38317e-09
7.52765e-11
7.22029e-11
1.17197e-10
1.27164e-10
1.48578e-10
2.28115e-10
2.47218e-10
1.02493e-10
8.71099e-11
2.0933e-10
1.51228e-09
6.51486e-09
3.00571e-09
4.64188e-09
3.24909e-09
2.56558e-08
4.43504e-07
4.93682e-05
7.7022e-10
6.17531e-08
6.56724e-11
6.56091e-11
6.56082e-11
6.55449e-11
6.5544e-11
6.54809e-11
6.5544e-11
8.53645e-11
2.30927e-10
1.34431e-09
1.57147e-08
2.27295e-08
5.92715e-09
8.48964e-10
3.08709e-09
3.38415e-08
1.60779e-07
9.06086e-08
5.302e-07
9.34988e-06
0.000552771
0.00029377
2.29295e-06
0.000141437
0.000211197
7.34901e-05
2.25014e-05
5.73556e-06
4.23226e-06
1.33459e-05
6.55451e-11
6.55333e-11
6.58168e-11
5.07329e-08
6.23722e-08
4.74298e-08
4.24951e-11
4.83339e-09
5.78547e-08
1.52801e-07
9.72455e-08
5.22216e-06
4.57006e-05
0.000676675
0.000905346
0.00107107
0.00155004
0.00110997
0.000172734
2.58562e-05
3.34396e-05
6.16519e-05
0.000100906
0.000207485
0.000202577
1.99532e-05
4.24447e-11
4.24383e-11
4.24447e-11
4.24383e-11
4.26444e-11
1.74051e-10
3.87543e-08
1.22692e-06
6.85534e-06
2.45383e-05
0.000676696
0.00169006
0.00196748
0.00140013
0.00016669
4.05435e-05
3.11923e-05
0.000121087
0.000191201
0.000229897
0.00039865
0.00116791
0.00229339
0.00171038
0.00075545
0.000417017
0.000144081
2.67805e-05
2.27813e-05
7.02284e-07
7.61857e-07
6.77615e-05
0.00081608
0.00100155
0.00169033
0.000985368
0.000231944
0.000194783
0.000419145
0.000473002
0.000487134
0.000499361
0.000446425
0.000399154
0.000407378
0.0020389
0.00347202
0.00204158
0.0015694
0.00279463
0.00299447
0.00138729
0.000136569
0.000597856
0.00325728
0.0163879
0.00023116
0.000235245
0.000614488
0.00592406
0.0117648
0.0117651
0.0111085
0.010691
0.0107365
0.00947544
0.00567281
0.00516856
0.00516963
0.00502468
0.00473812
0.00611214
0.00611594
0.0062967
0.00636953
0.000372433
0.000740917
0.000859822
0.00088558
0.00109882
0.00167836
0.00609627
0.00690825
0.00516736
0.00388185
0.00388318
0.00627596
0.00689437
0.00680037
0.00464193
0.00485247
0.00889116
0.0161206
0.00985566
0.000372795
0.00115838
0.00340844
0.00361659
0.00208637
0.00286767
0.00963523
0.0291675
0.0294402
0.015656
0.00388184
0.00543239
0.00689479
0.00673962
0.00445022
0.00352694
0.00820978
0.0304448
0.0186493
0.000412811
0.00393204
0.0114368
0.0215286
0.0124529
0.00846641
0.0277938
0.0387345
0.0318402
0.0319057
0.0128298
0.0035391
0.0035382
0.00355513
0.00391315
0.00340594
0.00341268
0.0209175
0.0183043
0.0221232
0.0300692
0.0316267
0.0316182
0.0200224
0.00595511
0.0368386
0.0335247
0.00735285
0.0122705
0.007333
0.0041121
0.00353869
0.0159817
0.032743
0.0187499
0.00414283
0.0100153
0.0135393
0.0386296
0.0301748
0.00833911
0.00120454
0.000346476
0.000245147
0.0370089
0.00395028
0.00396722
0.0120989
0.00734207
0.00874266
0.022443
0.073561
0.0737745
0.0738546
0.047087
0.0100704
0.0101362
0.038609
0.0125074
0.00022336
0.000213645
0.000209751
0.000210813
0.037031
0.00402766
0.00414066
0.0343747
0.0342007
0.0287479
0.0479108
0.0462375
0.0422076
0.0707316
0.0901555
0.0676943
0.0416773
0.00784781
0.00443332
0.0130928
0.00882727
0.00020967
0.000221608
0.0257924
0.00313848
0.00591246
0.0152222
0.0152712
0.00742798
0.0102104
0.0112744
0.038096
0.0683974
0.0964395
0.0962561
0.0648354
0.000845163
0.000753853
0.000423484
0.000423638
0.000500319
0.000510392
0.000510042
0.000510784
0.000511498
0.00121474
0.00483169
0.00846601
0.0168249
0.0164305
0.0122851
0.00766755
0.00367675
0.00299504
0.00318651
0.000573826
0.00280177
0.0069718
0.02556
0.000722443
0.000757729
0.00267651
0.00672835
0.0067378
0.00643246
0.00840953
0.0128791
0.0226418
0.03489
0.0538959
0.0563063
0.0432404
0.0344639
0.0243846
0.0242041
0.0236823
0.0239746
0.0180868
0.00706318
0.00245482
0.00242011
0.00242521
0.00072256
0.00076852
0.000801058
0.00108888
0.016202
0.0344207
0.0478957
0.0505707
0.0505678
0.0493841
0.054872
0.062386
0.0651929
0.065163
0.0606612
0.0732074
0.0819881
0.0819863
0.0819881
0.0710198
0.0319237
0.0224377
0.0133358
0.0683215
0.0686352
0.0481073
0.00331266
0.00119911
0.0011929
0.0225723
0.0295528
0.0169413
0.00174704
0.000622238
0.000622785
0.00477315
0.0152054
0.0240116
0.0268272
0.0377376
0.0707911
0.0819863
0.0819881
0.0819863
0.0819881
0.0549824
0.0734594
0.0599637
0.0601654
0.238045
0.208999
0.0565394
0.0166692
0.00332444
0.000698853
0.000699101
0.000691206
0.000639232
0.000532227
0.000464744
0.000469011
0.000519933
0.000552156
0.000650077
0.00438362
0.0352282
0.0316816
0.0110556
0.0409576
0.0745312
0.0745029
0.0730457
0.235031
0.321066
0.31772
0.291747
0.0478335
0.0013445
0.015982
0.0197522
0.0055822
0.000450138
0.000465049
0.000447039
0.000465005
0.0004475
0.000563329
0.000536315
0.000521608
0.000680346
0.000928092
0.00638876
0.156739
0.0923871
0.138784
0.250633
0.321095
0.316402
0.114843
0.0351118
0.029888
0.224939
0.502187
0.452832
0.25852
0.143599
0.0940511
0.0494784
0.0138242
0.00176835
0.000797547
0.000496483
0.000441861
0.000434083
0.000568318
0.709347
0.529809
0.370298
0.302954
0.277137
0.276506
0.328471
0.426894
0.48674
0.510686
0.670829
0.878958
0.888812
0.854433
0.805216
0.72908
0.584117
0.44779
0.432928
0.416681
0.341604
0.213238
0.100518
0.849773
0.975382
0.983032
0.961769
0.949076
0.956344
0.991633
0.992605
0.985218
0.983591
0.957208
0.921337
0.951735
0.994512
0.992038
0.978887
0.978961
0.982863
0.997224
0.998686
0.995773
0.962986
0.869576
0.995145
0.99761
0.994467
0.996157
0.998617
0.999034
0.999256
0.999254
0.999748
0.996572
0.986993
0.98612
0.991194
0.999574
0.99949
0.998441
0.995044
0.993157
0.997062
0.999993
0.999996
0.999996
0.999469
0.995602
0.999486
0.99971
0.999831
0.999965
0.999944
0.999963
0.999976
0.999987
0.999991
0.999995
0.999998
0.99981
0.999806
0.99999
0.999995
0.999998
0.999997
0.99993
0.999942
0.999988
0.999996
0.999997
0.995727
0.999765
0.999709
0.999991
0.999999
0.999975
0.999589
0.999549
0.999826
0.999997
0.999998
0.999998
0.999999
0.999993
0.999999
1
1
1
0.999993
0.999977
0.999974
0.999981
0.999978
0.997417
0.999787
0.999998
0.999999
0.999999
0.999761
0.999331
0.999332
0.999603
0.999992
0.999997
0.999996
0.999999
1
1
0.999999
0.999992
0.999962
0.999952
0.999954
0.999947
0.999947
0.999956
0.999974
0.999979
0.999996
0.999998
0.999994
0.999432
0.999332
0.999366
0.999866
0.999995
0.999985
0.999966
0.999956
0.999963
0.999963
0.999982
0.999981
0.999923
0.999844
0.999848
0.999951
0.999988
0.999988
0.999997
0.999995
0.999997
0.999998
0.999932
0.999371
0.999359
0.999927
0.999998
0.999995
0.999943
0.999935
0.999935
0.99994
0.999983
0.99994
0.999789
0.999788
0.999877
0.999999
0.999993
0.999959
0.99996
0.999995
0.999997
0.999997
0.999987
0.99989
0.999687
0.999931
0.999998
0.999998
0.999974
0.999935
0.999935
0.999974
0.999992
0.999985
0.999826
0.999788
0.999854
0.999987
0.999999
0.99997
0.999956
0.999966
0.999991
0.999968
0.999985
0.999872
0.999852
0.999997
0.999998
0.999998
0.999996
0.999955
0.999935
0.999975
0.999999
0.999999
0.999992
0.999923
0.999898
0.999968
1
0.999999
0.999984
0.999976
0.999997
0.999899
0.999866
0.999869
0.99991
0.99994
0.999994
0.999998
0.99999
0.999987
0.999946
0.999948
1
1
1
1
0.999999
0.999998
1
1
0.999999
0.999999
1
1
0.999886
0.999889
0.999913
0.999997
0.999997
0.999997
0.999995
0.999988
0.999986
0.999955
0.99998
1
1
1
1
1
1
1
1
1
1
1
1
1
1
1
0.999996
0.999995
0.999995
0.999992
0.999992
0.999997
0.999996
0.999999
1
1
1
1
1
1
1
1
1
1
1
1
1
1
0.999996
0.99999
0.99999
0.999993
1
1
1
1
1
1
0.999999
1
1
1
1
1
1
1
1
1
1
1
0.999998
0.999993
0.999994
0.999998
1
1
1
1
1
1
1
1
1
1
1
1
1
1
1
1
1
1
1
1
1
1
1
1
1
1
1
1
1
1
1
1
1
1
1
1
1
1
1
1
1
1
1
1
1
1
1
1
1
1
1
1
1
1
1
1
1
1
1
1
1
1
1
1
1
1
1
1
1
1
1
1
1
1
1
1
1
1
1
1
1
1
1
1
1
1
1
1
1
1
1
1
1
1
1
1
1
1
1
1
1
1
1
1
1
1
1
1
1
1
1
1
1
1
1
1
1
1
1
1
1
1
1
1
1
1
1
1
1
1
1
1
1
1
1
1
1
1
1
1
1
1
1
1
1
1
1
1
1
1
1
1
1
1
1
1
1
1
1
1
1
1
1
1
1
1
1
1
1
1
1
1
1
1
1
1
1
1
1
1
1
1
1
1
1
1
1
1
1
1
1
1
1
1
1
1
1
1
1
1
1
1
1
1
1
1
1
1
1
1
1
1
1
1
1
1
1
1
1
1
1
1
1
1
1
1
1
1
1
1
1
1
1
1
1
1
1
1
1
1
1
1
1
1
1
1
1
1
1
1
1
1
1
1
0.999999
0.999999
1
1
1
1
1
1
1
1
1
1
1
1
1
1
1
1
1
1
1
1
0.999999
0.999999
0.999999
0.999999
1
1
1
1
1
1
1
1
1
1
1
1
1
1
1
1
1
1
1
0.999999
0.999999
0.999999
0.999999
1
1
1
1
1
1
1
1
1
1
1
1
1
1
1
1
1
1
1
1
0.999999
0.999999
1
1
1
1
1
1
1
1
1
1
1
1
1
1
1
1
1
1
1
1
1
0.999999
0.999999
1
1
1
1
1
1
1
1
1
1
1
1
1
1
1
1
1
1
1
1
0.999999
0.999998
0.999999
1
1
1
1
1
1
1
1
1
1
1
1
1
1
1
0.999999
1
1
1
1
0.999998
0.999998
1
1
1
1
1
1
1
1
1
1
1
1
1
1
1
1
0.999999
1
1
1
1
0.999999
0.999999
1
1
1
1
1
1
1
1
1
1
1
1
1
1
1
1
0.999999
1
1
1
1
1
1
1
1
1
1
1
1
1
1
1
1
1
1
1
1
1
1
1
1
1
1
1
1
1
1
1
1
1
1
1
1
1
1
1
1
1
1
1
1
1
0.0331059
0.033278
0.0332673
0.0334283
0.0121362
0.0326584
0.0333634
0.0333966
0.00877382
0.00873238
0.0305019
0.0177365
0.0315152
0.0284271
0.0264139
0.0258395
0.0565471
0.0565474
0.0565471
0.056547
0.0545392
0.0565471
0.0316963
0.0013951
0.00081912
0.00104873
0.00121207
0.00132232
0.0400602
0.0208763
0.010026
0.00264183
0.767925
0.686142
0.590907
0.462148
0.996568
0.995584
0.997406
0.99632
0.999998
0.999997
0.999995
0.999995
0.999983
0.999993
0.999985
0.999981
0.999989
1
0.999999
0.999999
0.999993
0.999995
0.999998
0.999987
0.999984
0.99999
0.999991
0.999945
1
0.999998
0.999993
0.999997
1
1
1
1
1
1
1
1
1
1
1
1
1
1
1
1
1
1
1
1
1
1
1
1
1
1
1
1
1
1
1
1
1
1
1
1
1
1
1
1
1
1
1
1
1
1
1
1
1
1
1
1
1
1
1
1
1
1
1
1
1
1
1
1
1
1
1
1
1
1
1
1
1
1
1
1
1
1
1
1
1
1
1
1
1
1
1
1
1
1
1
1
1
1
1
1
1
1
1
1
1
1
1
1
0.00805509
0.00196426
0.0334794
0.0549679
0.0286837
0.000250426
0.00025085
0.000470913
0.00561539
0.00606089
0.0043406
0.00434083
0.0405648
0.105653
0.0866978
0.0563331
0.0964412
0.0610966
0.0646887
0.00800762
0.00180617
0.0464356
0.101871
0.101824
0.0766043
0.0085019
0.00478332
0.00917164
0.00809551
0.0114077
0.0694004
0.111472
0.151316
0.0332732
0.00918958
0.0342101
0.0281576
0.0478133
0.00232684
0.00168385
0.0330225
0.0548932
0.0813184
0.082228
0.0804582
0.0494272
0.0471462
0.0196453
0.0115649
0.0634621
0.183173
0.152836
0.0361022
0.00621982
0.0170669
0.0517496
0.030071
0.0140744
0.001698
0.00161327
0.000807383
0.00454256
0.0137264
0.0134434
0.084848
0.104464
0.0965529
0.03753
0.0823812
0.191614
0.144311
0.0398416
0.00529095
0.00410886
0.051817
0.0255309
0.0484632
0.00444793
0.000760561
0.000419745
0.000420364
0.00041645
0.0306997
0.109436
0.0860255
0.0123829
0.0530849
0.198417
0.201064
0.190928
0.0499442
0.0040541
0.00405409
0.0210926
0.0719608
0.00126898
0.0157393
0.0334529
0.0333777
0.0119831
0.00167099
0.0266247
0.109143
0.0798408
0.0118506
0.0143294
0.0221591
0.0225011
0.16432
0.0988807
0.012872
0.00407086
0.00407285
0.159487
0.00114903
0.00106627
0.00328575
0.032578
0.0287292
0.00259726
0.00161007
0.0589621
0.0461912
0.00739115
0.00657683
0.00658377
0.00657502
0.026881
0.253095
0.170795
0.0647812
0.0298552
0.161176
0.000818752
0.000815205
0.000809388
0.0015814
0.00240049
0.00160911
0.00160926
0.00465273
0.208702
0.253765
0.0983737
0.00765913
0.00676361
0.0250179
0.484467
0.603003
0.250971
0.177245
0.173404
0.34821
0.362411
0.349743
0.23986
0.0697706
0.00283138
0.00160848
0.0273688
0.614097
0.906408
0.671191
0.391929
0.472697
0.737255
0.960346
0.988258
0.699826
0.294648
0.264036
0.995704
0.996509
0.993583
0.992216
0.911203
0.543461
0.330028
0.526221
0.939678
0.980943
0.985664
0.982755
0.991792
0.999931
0.999532
0.998027
0.997763
0.874054
0.854055
0.999997
0.999998
0.999997
0.998683
0.997317
0.993807
0.975915
0.986017
0.994905
0.999096
0.99953
0.999604
0.999896
0.999942
0.999961
0.999984
0.999998
0.999901
0.999994
0.999982
0.999993
0.999988
0.99992
0.99934
0.999194
0.999425
0.99958
0.999912
0.999913
0.999913
0.999913
0.999912
0.999932
0.999991
0.999997
0.999998
0.999998
0.999997
0.999988
0.999914
0.999759
0.999699
0.999699
0.999757
0.999769
0.999766
0.999734
0.999854
0.999891
0.999909
0.99992
0.999973
0.999993
0.999994
0.999998
0.999997
0.999997
0.999841
0.999663
0.999657
0.999657
0.999637
0.999637
0.999637
0.999639
0.999638
0.999678
0.999897
0.999912
0.999926
0.999973
0.999963
0.999837
0.999783
0.999878
0.999997
0.999915
0.999941
0.999924
0.999888
0.999827
0.999812
0.999829
0.999786
0.999732
0.999863
0.999958
0.999964
0.999956
0.99996
0.999951
0.99973
0.999663
0.999657
0.999981
1
1
1
1
1
0.999999
1
0.999997
0.999992
1
1
0.999999
0.999987
0.999977
0.999974
0.999924
0.999799
0.999657
0.999835
1
1
1
1
1
1
1
1
1
1
1
1
1
0.999999
0.999995
0.999987
0.999983
0.999682
0.999687
1
1
1
1
1
1
1
1
1
1
1
1
1
0.999998
0.999995
0.999997
0.999997
0.999946
0.999714
1
1
1
1
1
1
1
1
1
1
1
1
1
0.999997
0.999995
1
1
1
0.999966
1
1
1
1
1
1
1
1
1
1
1
1
1
0.999999
0.999998
1
1
1
1
1
1
1
1
1
1
1
1
1
1
1
1
1
1
1
1
1
1
1
1
1
1
1
1
1
1
1
1
1
1
1
1
1
1
0.999998
0.999997
0.999999
0.999999
1
1
1
1
1
1
1
1
1
1
1
1
1
1
1
0.999997
0.999997
0.999997
0.999998
1
1
1
1
1
1
1
1
1
1
1
1
1
1
1
0.999999
0.999998
0.999999
0.999999
1
1
1
1
1
1
1
1
1
1
1
1
1
1
1
1
1
0.999999
0.999999
1
1
1
1
1
1
1
1
1
1
1
1
1
1
1
0.999999
0.999996
0.999993
0.999992
1
1
1
1
1
1
1
1
1
1
1
1
1
1
1
0.999999
0.999992
0.999992
0.999992
1
1
1
1
1
1
1
1
1
1
1
1
1
1
1
1
0.999994
0.999992
0.999997
1
1
1
1
1
1
1
1
1
1
1
1
1
1
1
1
0.999999
0.999994
1
1
1
1
1
1
1
1
1
1
1
1
1
1
1
1
1
1
1
1
1
1
1
1
1
1
1
1
1
1
1
1
1
1
1
1
1
1
1
1
1
1
1
1
1
1
1
1
1
1
1
1
1
1
1
1
1
1
1
1
1
1
1
1
1
1
1
1
1
1
1
1
1
1
1
1
1
1
1
1
1
1
1
1
1
1
1
1
1
1
1
1
1
1
1
1
1
1
1
1
1
1
1
1
1
1
1
1
1
1
1
1
1
1
1
1
1
1
1
1
1
1
1
1
1
1
1
1
1
1
1
1
1
1
1
1
1
1
1
1
1
1
1
1
1
1
1
1
1
1
1
1
1
1
1
1
1
1
1
1
1
1
1
1
1
1
1
1
1
1
1
1
1
1
1
1
1
1
1
1
1
1
1
1
1
1
1
1
1
1
1
1
1
1
1
1
1
1
1
1
1
1
1
1
1
1
1
1
1
1
1
1
1
1
1
1
1
1
1
1
1
1
1
1
1
1
1
1
1
1
1
1
1
1
1
1
1
1
1
1
1
1
1
1
1
1
1
1
)
;

boundaryField
{
    leftWall
    {
        type            alphaContactAngle;
        thetaProperties 
6
(
(galistan air) 90 0 0 0
(oil galistan) 90 0 0 0
(water oil) 90 0 0 0
(water air) 90 0 0 0
(oil air) 90 0 0 0
(water galistan) 90 0 0 0
);
        value           nonuniform List<scalar> 
50
(
6.87066e-10
6.87059e-10
6.87059e-10
4.93682e-05
0.000552771
0.000676675
0.000676696
0.00100155
0.000845163
0.000722443
0.00072256
0.0683215
0.0734594
0.0745312
0.156739
0.709347
0.849773
0.995145
0.995602
0.995727
0.997417
0.999974
0.999997
0.999995
0.999991
0.999899
0.999886
1
1
1
1
1
1
1
1
1
1
1
1
1
1
1
1
1
1
1
0.999999
0.999999
0.999999
1
)
;
    }
    rightWall
    {
        type            alphaContactAngle;
        thetaProperties 
6
(
(galistan air) 90 0 0 0
(oil galistan) 90 0 0 0
(water oil) 90 0 0 0
(water air) 90 0 0 0
(oil air) 90 0 0 0
(water galistan) 90 0 0 0
);
        value           nonuniform List<scalar> 
50
(
0.00636953
0.00985566
0.0186493
0.0183043
0.0135393
0.0101362
0.0416773
0.0648354
0.0646887
0.0478133
0.030071
0.0255309
0.0719608
0.159487
0.161176
0.173404
0.264036
0.854055
0.999994
0.999997
0.999997
0.999997
0.999981
0.999835
0.999687
0.999714
0.999966
1
1
0.999999
0.999998
0.999999
0.999999
0.999992
0.999992
0.999997
1
1
1
1
1
1
1
1
1
1
1
1
1
1
)
;
    }
    lowerWall
    {
        type            alphaContactAngle;
        thetaProperties 
6
(
(galistan air) 90 0 0 0
(oil galistan) 90 0 0 0
(water oil) 90 0 0 0
(water air) 90 0 0 0
(oil air) 90 0 0 0
(water galistan) 90 0 0 0
);
        value           nonuniform List<scalar> 
62
(
6.87066e-10
6.78309e-10
5.26714e-10
3.20596e-10
1.74568e-10
1.14891e-10
5.97885e-11
3.02595e-11
1.84077e-11
1.13222e-11
7.70856e-12
7.9719e-12
8.56436e-12
8.63479e-12
1.11912e-11
1.85526e-11
3.37839e-11
4.24744e-11
4.44929e-11
4.0184e-11
4.01811e-11
7.64645e-10
1.16636e-08
1.16636e-08
1.86855e-08
4.43504e-07
9.34988e-06
4.57006e-05
2.45383e-05
0.00081608
0.0163879
0.0331059
0.033278
0.0332673
0.0334283
0.00023116
0.000372433
0.000372795
0.000412811
0.0221232
0.0386296
0.038609
0.00784781
0.00023116
0.000235245
0.000614488
0.00592406
0.0117648
0.0117651
0.0111085
0.010691
0.0107365
0.00947544
0.00567281
0.00516856
0.00516963
0.00502468
0.00473812
0.00611214
0.00611594
0.0062967
0.00636953
)
;
    }
    atmosphere
    {
        type            inletOutlet;
        inletValue      uniform 1;
        value           nonuniform List<scalar> 
46
(
1
1
1
1
1
1
1
1
1
1
1
1
1
1
1
1
1
1
1
1
1
1
1
1
1
1
1
1
1
1
1
1
1
1
1
1
1
1
1
1
1
1
1
1
1
1
)
;
    }
    defaultFaces
    {
        type            empty;
    }
}


// ************************************************************************* //
