/*--------------------------------*- C++ -*----------------------------------*\
| =========                 |                                                 |
| \\      /  F ield         | OpenFOAM: The Open Source CFD Toolbox           |
|  \\    /   O peration     | Version:  2312                                  |
|   \\  /    A nd           | Website:  www.openfoam.com                      |
|    \\/     M anipulation  |                                                 |
\*---------------------------------------------------------------------------*/
FoamFile
{
    version     2.0;
    format      ascii;
    arch        "LSB;label=32;scalar=64";
    class       volScalarField;
    location    "0.65";
    object      alphas;
}
// * * * * * * * * * * * * * * * * * * * * * * * * * * * * * * * * * * * * * //

dimensions      [0 0 0 0 0 0 0];

internalField   nonuniform List<scalar> 
2268
(
2
2
2
2
2
2
2
2
2
2
2
2
2
2
2
2
2
2
2
2
2
2
1.99993
2
2
2
2
2
2
2
2
2
2
2
2
2
2
2
2
2
2
2
2
2
2
1.99993
2
2
2
2
2
2
2
2
2
2
2
2
2
2
2
2
2
2
2
2
2
2
1.99996
1.1913
1.20976
1.21509
1.22609
1.24567
1.27845
1.3274
1.39778
1.51092
1.68127
1.91618
2
2
2
2
2
2
2
2
2
2
2
2
3.15832e-10
3.20367e-10
3.22165e-10
3.18478e-10
3.07243e-10
2.89774e-10
0.00719611
0.0336224
0.0861176
0.198358
0.477903
1.20653
1.92584
2
2
2
2
2
2
2
2
2
2
4.15645e-10
4.23086e-10
4.22619e-10
4.15328e-10
3.97098e-10
3.73373e-10
3.45636e-10
3.19289e-10
2.88565e-10
2.52051e-10
2.10469e-10
0.0622868
0.938296
1.93658
2
2
2
2
2
2
2
2
1.99996
5.4636e-10
5.55831e-10
5.47925e-10
5.3736e-10
5.16235e-10
4.93405e-10
4.60686e-10
4.2751e-10
3.95416e-10
4.16396e-10
7.3995e-10
3.79754e-10
0.0739066
1.34877
2
2
2
2
2
2
2
1.99996
1.99973
6.91042e-10
7.00512e-10
6.78464e-10
6.69269e-10
6.52372e-10
6.38229e-10
6.11325e-10
5.75866e-10
5.33937e-10
4.894e-10
4.67877e-10
4.72222e-10
3.42099e-10
0.475892
1.86876
2
2
2
2
2
2
1.99995
1.99973
1.04921
1.34011
1.71342
1.78767
1.77776
1.75816
1.76038
1.89432
1.95876
1.59982
1.04922
1.76522
1.98801
1.77182
1.79094
1.9048
1.98776
1.91773
1.76581
1.02512
1.07172
1.27263
1.93687
1.95067
1.93669
1.94117
1.99362
2.01723
1.62108
1.04949
1.74858
2.52377
2.52355
2.4199
2.12247
1.79198
1.47746
1.40017
1.00017
1.00665
1.27025
1.85893
1.9185
1.83459
1.60244
1.60354
1.64797
1.27265
1.04618
1.58249
2.48553
1.80557
1.72347
1.43132
1.16887
1.1191
1.17797
1.00009
1.23832
1.53419
1.26568
1.02988
0.66394
0.231465
0.394085
0.850644
1.10326
1.06857
1.70534
2.79501
1.92032
1.88942
1.52412
1.30099
1.18733
1.09964
1.00009
1.56839
1.3233
0.540698
0.0153065
0.0152989
0.0153328
0.0872779
0.70646
1.03138
1.07846
2.52277
2.93983
2.69469
2.77968
2.95889
2.44682
1.66022
1.33005
1.59654
1.35306
0.785343
0.088748
0.013962
0.0119744
0.012241
0.0390779
0.775374
1.0076
1.02498
2.69196
2.95507
2.95773
2.96065
2.95891
2.94055
2.1004
1.37492
1.55541
1.19775
0.0521808
0.0114561
0.0076477
0.00764837
0.00810738
0.0168644
0.7466
1.00324
1.00027
1.66941
2.49186
2.9304
2.95782
2.96047
2.95879
1.7369
1.3078
1.27231
0.229172
0.0108336
0.00765549
0.00764326
0.00764081
0.00767396
0.0136345
0.32737
1.08633
1.00025
1.00199
1.14157
1.46592
2.36923
2.95905
2.8803
1.43498
1.04716
8.24957e-10
8.32559e-10
7.93542e-10
7.97009e-10
7.89557e-10
7.79938e-10
7.7532e-10
7.38385e-10
7.27814e-10
7.31811e-10
6.82044e-10
6.32187e-10
1.70327e-09
0.00420836
0.668826
1.7074
1.83726
1.73691
1.60988
1.47517
1.40187
1.34729
1.4299
9.52677e-10
9.51028e-10
9.15647e-10
9.74738e-10
9.35589e-10
8.92685e-10
9.0894e-10
8.40668e-10
8.91086e-10
1.04938e-09
1.01789e-09
7.74435e-10
6.53875e-10
5.09796e-10
4.01498e-10
0.0501132
0.101853
0.173304
0.141937
0.0518392
0.0154492
0.00399383
0.00250806
8.38106e-10
8.43106e-10
8.40394e-10
8.26613e-10
7.71292e-10
2.16364e-08
1.08101e-07
3.24138e-11
3.24139e-11
1.2689e-11
1.64928e-11
1.38386e-11
3.50182e-11
2.26479e-10
8.1267e-10
9.0411e-07
2.1703e-05
0.000177913
0.000413065
0.000522262
0.000571437
0.00420619
0.0296101
8.45332e-10
5.4559e-10
1.67332e-08
2.78147e-07
1.90617e-06
6.25717e-06
5.40237e-06
0.0212303
0.122243
0.174235
0.192097
0.15632
0.0704597
0.0142993
0.0016908
0.00101984
0.00321446
0.0122971
0.0424218
0.104433
0.212587
0.426432
0.837004
1.02203
0.998255
1.00475
1.05331
1.08065
1.07577
1.03794
1.13379
1.37179
1.30765
0.987363
0.945948
0.875122
0.707849
0.575713
0.549226
0.56136
0.717707
0.982507
1.29846
1.68278
1.99834
2.17642
2.85252
2.75278
2.7244
2.77577
2.82829
2.84733
2.82682
2.02552
1.52235
1.44714
1.42256
1.38043
1.35371
1.35835
1.38099
1.46186
1.67993
1.92836
2.15575
2.42374
2.64518
2.8995
3
3
2.99998
2.99477
2.85966
2.8143
2.81461
2.88523
2.9824
2.99999
2.99997
2.92658
2.86923
2.83981
2.83698
2.86944
2.93912
2.99998
2.99998
2.99999
3
3
3
3
3
2.9999
2.99514
2.99304
3
3
3
3
3
2.99999
2.99998
2.99998
2.99998
2.99997
2.99998
2.99997
2.99996
2.99996
2.99998
3
3
3
3
3
2.99991
2.99505
2.99388
3
3
2.99999
2.99999
2.99999
3
3
3
3
3
3
3
2.99997
2.99997
2.99999
3
3
3
3
3
2.99999
2.99828
2.9989
2.99961
2.99996
2.99999
2.99999
2.99999
2.99999
3
3
3
3
3
3
3
3
3
3
3
3
3
3
3
3
3
2.99999
3
3
3
3
3
3
3
3
3
3
3
3
3
3
3
3
2.99999
3
3
3
3
3
2.99999
3
3
3
3
3
3
3
3
3
3
3
3
3
3
3
2.99999
2.99997
2.9999
3
3
3
2.99999
2.99999
3
3
3
3
3
3
3
3
3
3
3
3
3
3
3
2.99997
2.99989
2.99985
3
3
3
3
3
3
3
3
3
3
3
3
3
3
3
3
3
3
3
2.99999
2.99997
2.99997
2.99996
3
3
3
3
3
3
3
3
3
3
3
3
3
3
3
3
3
3
3
3
3
3
3
3
3
3
3
3
3
3
3
3
3
3
3
3
3
3
3
3
3
3
3
3
3
3
3
3
3
3
3
3
3
3
3
3
3
3
3
3
3
3
3
3
3
3
3
3
3
3
3
3
3
3
3
3
3
3
3
3
3
3
3
3
3
3
3
3
3
3
3
3
3
3
3
3
3
3
3
3
3
3
3
3
3
3
3
3
3
3
3
3
3
3
3
3
3
3
3
3
3
3
3
3
3
3
3
3
3
3
3
3
3
3
3
3
3
3
3
3
3
3
3
3
3
3
3
3
3
3
3
3
3
3
3
3
3
3
3
3
3
3
3
3
3
3
3
3
3
3
3
3
3
3
3
3
3
3
3
3
3
3
3
3
3
3
3
3
3
3
3
3
3
3
3
3
3
3
3
3
3
3
3
3
3
3
3
3
3
3
3
3
3
3
3
3
3
3
3
3
3
3
3
3
3
3
3
3
3
3
3
3
3
3
3
3
3
3
3
3
3
3
3
3
3
3
3
3
3
3
3
3
3
3
3
3
3
3
3
3
3
3
3
3
3
3
3
3
3
3
3
3
3
3
3
3
3
3
3
3
3
3
3
3
3
3
3
3
3
3
3
3
3
3
3
3
3
3
3
3
3
3
3
3
3
3
3
3
3
3
3
3
3
3
3
3
3
3
3
3
3
3
3
3
3
3
3
3
3
3
3
3
3
3
3
3
3
3
3
3
3
3
3
3
3
3
3
3
3
3
3
3
3
3
3
3
3
3
3
3
3
3
3
3
3
3
3
3
3
3
3
3
3
3
3
3
3
3
3
3
3
3
3
3
3
3
3
3
3
3
3
3
3
3
3
3
3
3
3
3
3
3
3
3
3
3
3
3
3
3
3
3
3
3
3
3
3
3
3
3
3
3
3
3
3
3
3
3
3
3
3
3
3
3
3
3
3
3
3
3
3
3
3
3
3
3
3
3
3
3
3
3
3
3
3
3
3
3
3
3
3
3
3
3
3
3
3
3
3
3
3
3
3
3
3
3
3
3
3
3
3
3
3
3
3
3
3
3
3
3
3
3
3
3
3
3
3
3
3
3
3
3
3
3
3
3
3
3
3
3
3
3
3
3
3
3
3
3
3
3
3
3
3
3
3
3
3
3
3
3
3
3
3
3
3
3
3
3
3
3
3
3
3
3
3
3
3
3
3
3
3
3
3
3
3
3
3
3
3
3
3
3
3
3
3
3
3
3
3
3
3
3
3
3
3
3
3
3
3
3
3
3
3
3
3
3
3
3
3
3
3
3
3
3
3
3
3
3
3
3
3
3
3
3
3
3
3
3
3
3
3
3
3
3
3
3
3
3
3
3
3
3
3
3
3
3
3
3
3
3
3
3
3
3
3
3
3
3
3
3
3
3
3
3
1.4874
1.48068
1.49171
1.48633
0.0416719
0.0432861
0.0414429
0.0318449
0.0628991
0.104093
0.159287
0.289227
1.13168
1.30711
1.61497
1.98102
2.33264
2.47489
2.60743
2.8195
3
3
3
3
3
2.99995
2.99986
2.99988
3
2.99984
2.99934
2.99934
3
2.99957
2.99934
2.99934
3
2.99967
2.99934
2.99934
3
2.99974
2.99934
2.99934
2.99984
2.99958
2.99934
2.99942
2.99984
2.99986
2.99984
2.99995
2.99999
3
3
3
3
3
3
3
3
3
3
3
3
3
3
3
3
3
3
3
3
3
3
3
3
3
3
3
3
3
3
3
3
3
3
3
3
3
3
3
3
3
3
3
3
3
3
3
3
3
3
3
3
3
3
3
3
3
3
3
3
3
3
3
3
3
3
3
3
3
3
3
3
3
3
3
3
3
3
3
3
3
3
3
3
3
3
3
3
3
3
3
3
3
3
3
3
3
3
3
3
3
3
3
3
3
3
3
3
3
3
3
3
3
3
3
0.35868
0.147137
0.138552
0.190494
0.223355
0.170832
0.0822616
0.0175019
0.0311145
0.459925
0.753325
1.18269
1.09791
1.08187
1.11505
1.51939
1.38144
1.24982
1.01702
0.088048
0.383211
1.01424
1.43991
1.39735
1.21621
0.905273
0.598441
0.27605
0.217802
0.249163
0.4389
0.658726
0.858049
1.02118
1.21755
1.18129
1.16289
0.841752
0.945524
2.05253
2.36747
2.50715
2.37074
2.09209
1.80972
1.70761
1.56969
1.36071
0.844124
0.36929
0.272742
0.307799
0.390279
0.649261
0.920348
0.786413
0.528619
2.2767
2.67292
3
3
3
2.95932
2.8535
2.69794
2.59199
2.40264
1.92099
1.51381
0.805794
0.532149
0.424759
0.235399
0.273445
0.158002
0.431805
3
3
3
3
3
3
3
3
3
2.98852
2.9061
2.61868
2.06186
1.39491
1.01542
0.298186
0.124951
0.136125
0.675363
3
3
3
3
2.99999
2.99998
2.99758
3
3
3
3
2.9953
2.50381
2.14072
1.32676
0.816862
0.10958
0.129733
0.773996
2.99998
3
3
2.99997
2.99565
2.61136
2.02272
2.54558
3
3
3
2.97622
2.16484
1.52617
1.17461
1.02394
0.388343
0.106473
1.09593
2.99993
3
2.99999
2.99993
2.76979
1.27843
0.999997
1.25288
2.51574
2.99999
3
2.9713
1.96441
1.04155
1.00081
1.00059
0.93364
0.279316
1.3199
2.99973
2.99999
2.99998
2.99909
2.09734
1
1
1
1.24066
2.50206
2.98701
2.9899
2.77481
1.31744
0.999979
0.999976
0.999972
0.930492
1.04583
2.99944
2.99999
2.99999
2.98793
1.87795
1
1
1
1
1.07446
1.83342
2.34317
2.4001
1.37269
1.00002
0.999973
0.999985
0.99998
1.00002
2.99946
3
3
3
2.26285
1
1
1
1
1.00006
1.00014
1.00015
1.00007
1.00007
1.00006
0.999992
0.999994
0.999978
1.00002
2.99979
3
3
3
2.90776
1.80389
1
1
1
1.00001
1.00013
1.00017
1.00013
1.00005
1.00008
1.00005
0.999992
1.00104
1.021
3
3
3
3
3
2.64101
1.06092
1
1
1
1.00006
1.00025
1.00064
1.00119
1.00102
1.00006
1.00004
1.01267
1.13357
3
3
3
3
3
2.97467
1.91651
1
1
1.00001
1.00004
1.00003
1.00006
1.00207
1.00953
1.00613
1.00014
1.0329
1.13512
3
3
3
3
3
3
2.72575
1.42016
1
1
1
1
1
1
1.01862
1.0777
1.05523
1.03273
1.13139
3
3
3
3
3
3
3
2.75428
1.65016
1.02829
1
1
1
1
1.0081
1.08554
1.09904
1.08735
1.06502
3
3
3
3
3
3
3
3
2.98391
2.1544
1.28002
1
1
1
1
1.00651
1.08585
1.10627
1.10996
3
3
3
3
3
3
3
3
3
3
2.7554
1.7932
1.10658
1
1
1
1
1.02624
1.0525
3
3
3
3
3
3
3
3
3
3
3
3
2.45273
1.59049
1.15805
1.04769
1.00899
1.00002
1.00002
3
3
3
3
3
3
3
3
3
3
3
3
3
3
2.64271
2.31331
2.0381
1.71022
1.19413
3
3
3
3
3
3
3
3
3
3
3
2.99999
2.99997
3
3
3
3
2.86623
2.24543
3
3
3
3
3
3
3
3
3
3
3
3
3
2.99997
2.99955
2.99944
2.99931
2.95056
2.94358
3
3
3
3
3
3
3
3
3
3
3
3
3
3
3
2.99873
2.99806
2.96655
2.96373
3
3
3
3
3
3
3
3
3
3
3
3
3
3
3
2.99972
2.99981
2.98733
2.31253
3
3
3
3
3
3
3
3
3
3
3
3
3
3
3
3
2.99981
2.99901
1.52024
3
3
3
3
3
3
3
3
3
3
3
3
3
3
3
3
2.99987
2.95818
1.51862
3
3
3
3
3
3
3
3
3
3
3
3
3
3
3
3
3
2.81801
1.60127
3
3
3
3
3
3
3
3
3
3
3
3
3
3
3
3
3
2.72032
2.73381
3
3
3
3
3
3
3
3
3
3
3
3
3
3
3
3
2.99073
2.86147
3
3
3
3
3
3
3
3
3
3
3
3
3
3
3
3
2.99822
2.95449
3
3
3
3
3
3
3
3
3
3
3
3
3
3
3
3
3
2.99267
2.94777
2.99998
3
3
3
3
3
3
3
3
3
3
3
3
3
3
3
3
2.98096
2.9494
2.99984
2.80938
3
3
3
3
3
3
3
3
3
3
3
3
3
3
2.99995
2.97798
2.99569
3
2.02824
3
3
3
3
3
3
3
3
3
3
3
3
3
3
3
2.99096
2.99994
3
1.88237
3
3
3
3
3
3
3
3
3
3
3
3
3
3
3
2.99778
2.99901
3
1.88242
3
3
3
3
3
3
3
3
3
3
3
3
3
3
3
3
2.99997
3
1.8823
3
3
3
3
3
3
3
3
3
3
3
3
3
3
3
3
3
2.99984
2.20003
3
3
3
3
3
3
3
3
3
3
3
3
3
3
3
3
3
2.99018
2.97969
3
3
3
3
3
3
3
3
3
3
3
3
3
3
3
3
3
2.99589
2.99999
3
3
3
3
3
3
3
3
3
3
3
3
3
3
3
3
3
3
2.99999
3
3
3
3
3
3
3
3
3
3
3
3
3
3
3
3
3
3
3
3
3
3
3
3
3
3
3
3
3
3
3
3
3
3
3
3
3
3
)
;

boundaryField
{
    leftWall
    {
        type            calculated;
        value           nonuniform List<scalar> 
50
(
2
2
2
1.1913
3.15832e-10
4.15645e-10
5.4636e-10
6.91042e-10
8.24957e-10
9.52677e-10
8.38106e-10
8.45332e-10
1.02203
2.85252
3
3
3
3
3
3
3
3
3
3
3
3
3
3
3
3
3
3
3
3
3
3
3
3
3
3
3
3
3
3
3
3
3
3
3
3
)
;
    }
    rightWall
    {
        type            calculated;
        value           nonuniform List<scalar> 
50
(
1.76581
1.40017
1.17797
1.09964
1.33005
1.37492
1.3078
1.04716
1.01702
0.841752
0.528619
0.431805
0.675363
0.773996
1.09593
1.3199
1.04583
1.00002
1.00002
1.021
1.13357
1.13512
1.13139
1.06502
1.10996
1.0525
1.00002
1.19413
2.24543
2.94358
2.96373
2.31253
1.52024
1.51862
1.60127
2.73381
3
3
3
2.80938
2.02824
1.88237
1.88242
1.8823
2.20003
2.97969
2.99999
2.99999
3
3
)
;
    }
    lowerWall
    {
        type            calculated;
        value           nonuniform List<scalar> 
62
(
2
2
2
2
2
2
2
2
2
2
2
2
2
2
2
2
2
2
2
2
2
2
1.99993
1.99993
1.99993
1.99996
2
2
1.99996
1.99973
1.99973
1.4874
1.48068
1.49171
1.48633
1.04921
1.02512
1.00017
1.00009
1.00009
1.59654
1.55541
1.27231
1.04921
1.34011
1.71342
1.78767
1.77776
1.75816
1.76038
1.89432
1.95876
1.59982
1.04922
1.76522
1.98801
1.77182
1.79094
1.9048
1.98776
1.91773
1.76581
)
;
    }
    atmosphere
    {
        type            calculated;
        value           nonuniform List<scalar> 
46
(
3
3
3
3
3
3
3
3
3
3
3
3
3
3
3
3
3
3
3
3
3
3
3
3
3
3
3
3
3
3
3
3
3
3
3
3
3
3
3
3
3
3
3
3
3
3
)
;
    }
    defaultFaces
    {
        type            empty;
    }
}


// ************************************************************************* //
