/*--------------------------------*- C++ -*----------------------------------*\
| =========                 |                                                 |
| \\      /  F ield         | OpenFOAM: The Open Source CFD Toolbox           |
|  \\    /   O peration     | Version:  2312                                  |
|   \\  /    A nd           | Website:  www.openfoam.com                      |
|    \\/     M anipulation  |                                                 |
\*---------------------------------------------------------------------------*/
FoamFile
{
    version     2.0;
    format      ascii;
    arch        "LSB;label=32;scalar=64";
    class       volScalarField;
    location    "0.65";
    object      alpha.water;
}
// * * * * * * * * * * * * * * * * * * * * * * * * * * * * * * * * * * * * * //

dimensions      [0 0 0 0 0 0 0];

internalField   nonuniform List<scalar> 
2268
(
2.57612e-11
2.80711e-11
2.67785e-11
2.58257e-11
2.46675e-11
2.36553e-11
2.32114e-11
2.27208e-11
2.14958e-11
1.93774e-11
1.67909e-11
1.40407e-11
1.18567e-11
9.73129e-12
8.07257e-12
6.8998e-12
6.70682e-12
8.86387e-12
1.80236e-11
4.27475e-11
8.38008e-11
1.81936e-10
2.12092e-10
7.85143e-11
8.87238e-11
8.69956e-11
8.59855e-11
8.28934e-11
7.96703e-11
7.98601e-11
8.2018e-11
8.51882e-11
8.60835e-11
7.70869e-11
6.99922e-11
5.62428e-11
4.26442e-11
3.06493e-11
2.62063e-11
2.37475e-11
2.93485e-11
5.2733e-11
1.02367e-10
2.23533e-10
9.92821e-10
9.22273e-10
9.16619e-07
5.65142e-11
5.63166e-11
5.61206e-11
5.59158e-11
5.57127e-11
5.58134e-11
5.57154e-11
5.58164e-11
5.60979e-11
5.46731e-11
5.44651e-11
6.17383e-11
7.18725e-11
6.26274e-11
5.27445e-11
4.94108e-11
5.40679e-11
8.03693e-11
1.64196e-10
4.65429e-10
1.46907e-09
1.48474e-09
0.404352
0.39512
0.392457
0.386956
0.377164
0.360775
0.336299
0.30111
0.244539
0.159365
0.0419102
4.38605e-11
4.36921e-11
4.35248e-11
4.91403e-11
5.13323e-11
5.77325e-11
7.05391e-11
1.15923e-10
4.33022e-10
1.39328e-09
1.93871e-09
1.4885e-09
1
1
1
1
1
1
0.996402
0.983189
0.956941
0.900821
0.761049
0.396734
0.0370819
4.30979e-11
4.32285e-11
4.73551e-11
5.51142e-11
7.71744e-11
1.53488e-10
6.46589e-10
2.22156e-09
7.10794e-09
2.71048e-09
1
1
1
1
1
1
1
1
1
1
1
0.968857
0.530852
0.0317102
4.23311e-11
4.45113e-11
5.61888e-11
8.44882e-11
1.89517e-10
6.26191e-10
2.1484e-09
1.66817e-08
2.35268e-08
1
1
1
1
1
1
1
1
1
1
1
1
0.963047
0.325613
6.82667e-11
4.1954e-11
4.41757e-11
6.31179e-11
1.08929e-10
1.21147e-10
2.78244e-10
7.65156e-09
2.51878e-08
1
1
1
1
1
1
1
1
1
1
1
1
1
0.762054
0.0656199
4.07102e-11
4.08538e-11
4.08898e-11
4.10318e-11
4.10727e-11
4.1219e-11
4.1268e-11
4.13575e-11
8.88791e-12
9.90085e-13
5.04212e-13
5.9768e-06
0.000944468
0.00259994
0.00521941
0.00877785
0.00584389
0.00052037
-2.83579e-14
1.05685e-09
1.03971e-09
1.0044e-09
6.11991e-07
2.04549e-05
8.40243e-05
0.000151346
0.000317106
1.40216e-11
4.72244e-12
1.02859e-12
4.62888e-13
0.020996
0.0349702
0.0342294
0.0168985
0.00933527
0.00279635
-2.14793e-08
2.03245e-06
1.01525e-09
9.98208e-10
1.04442e-09
4.01163e-05
0.00023742
0.000146783
0.000163135
1.9563e-11
3.67893e-13
3.72461e-09
0.00671132
0.0381104
0.0827074
0.198779
0.199587
0.123244
0.00815488
0.000168953
1.73226e-05
6.63444e-08
6.51995e-07
1.1238e-06
4.25843e-07
0.00171425
0.00704933
0.0178388
1.93213e-11
3.31216e-13
0.113087
0.35283
0.485077
0.668029
0.884267
0.808335
0.379771
0.00235143
2.75889e-05
4.42072e-06
5.73929e-08
8.66412e-07
1.04726e-06
4.15074e-07
1.0089e-08
0.0162715
0.116875
1.4554e-11
0.00840629
0.320667
0.729746
0.992347
0.992351
0.992287
0.964031
0.371196
9.06892e-10
4.87799e-07
3.9581e-07
9.55429e-08
4.8036e-07
8.53175e-07
4.33543e-07
1.00176e-08
0.00386792
0.116203
0.0479472
0.290034
0.607335
0.955626
0.99235
0.992354
0.992351
0.983719
0.290057
-2.88257e-20
4.57722e-08
2.07192e-07
5.98569e-08
2.31348e-08
1.04947e-07
1.32188e-07
9.981e-09
2.30167e-14
0.101426
0.222642
0.401126
0.97391
0.992349
0.992353
0.992358
0.992354
0.992351
0.384261
-2.0124e-21
4.836e-07
2.18909e-07
2.23735e-08
4.11802e-09
3.84919e-09
4.84726e-08
1.79654e-08
-1.41945e-19
0.0685942
0.363795
0.883447
0.992349
0.992353
0.992357
0.992359
0.992356
0.992353
0.819715
0.0579475
4.14917e-08
2.37065e-08
2.27209e-08
9.34245e-09
3.82504e-09
4.47838e-09
4.02418e-09
-2.65071e-14
0.112116
1
1
1
1
1
1
1
1
1
1
1
1
1
0.997896
0.665587
0.1463
0.0813677
0.131544
0.195058
0.262414
0.299064
0.326327
0.284971
1
1
1
1
1
1
1
1
1
1
1
1
1
1
1
0.974943
0.949074
0.913344
0.928995
0.973984
0.992122
0.997679
0.997725
1
1
1
1
1
1
1
1
1
1
1
1
1
1
1
1
0.999978
0.999822
0.999587
0.999478
0.999436
0.995794
0.97039
1
1
1
1
0.999998
0.999994
0.999995
0.992923
0.959105
0.930595
0.901465
0.905559
0.954054
0.995234
0.999436
0.998986
0.996786
0.987703
0.957578
0.895567
0.800088
0.667918
0.475981
0.659322
0.667248
0.665083
0.648896
0.639782
0.641411
0.654019
0.614343
0.376341
0.172704
0.126705
0.140588
0.197158
0.360855
0.491059
0.522831
0.545782
0.486376
0.378078
0.236607
0.109594
0.00949594
1.83371e-16
0.0491607
0.0824061
0.0918666
0.0742066
0.0478321
0.0289261
0.016323
0.00501317
1.25226e-24
3.92138e-24
-3.65101e-25
9.15723e-24
4.04129e-24
6.69158e-25
-2.37254e-15
-2.16408e-14
8.35596e-24
2.04751e-13
-1.338e-24
4.74607e-25
2.88111e-41
-3.79904e-10
7.00405e-09
4.2256e-07
6.86443e-06
1.68349e-06
0.000719143
0.000127393
1.81105e-06
3.33702e-08
3.61193e-08
2.72947e-06
8.50279e-06
1.81919e-05
1.81699e-05
1.53398e-05
3.24636e-06
5.58943e-06
6.22545e-06
6.0427e-06
6.61726e-06
3.84375e-06
1.94569e-07
5.41438e-08
3.28953e-08
3.02252e-08
3.4602e-09
9.93983e-07
1.67205e-06
6.28698e-07
3.71561e-08
2.55927e-07
4.79027e-07
8.05955e-07
1.1751e-06
4.66301e-06
6.94549e-06
8.24049e-06
6.13563e-06
8.70208e-06
6.66556e-06
1.07842e-05
1.42376e-05
1.42245e-05
6.22127e-06
1.89295e-08
4.73413e-08
3.05699e-08
1.23354e-08
3.1951e-09
4.47738e-07
8.28639e-07
7.96554e-07
1.50447e-08
1.07281e-10
1.1114e-18
2.59644e-28
-4.33254e-14
1.03614e-28
-1.66594e-29
-3.28331e-16
1.42923e-29
5.02442e-12
1.45773e-13
1.27841e-13
8.43616e-06
9.31114e-06
4.69438e-06
9.32864e-09
8.97758e-09
1.03577e-09
2.16776e-09
2.15421e-09
7.08616e-08
4.85609e-10
4.92112e-08
1.72737e-07
3.90903e-08
3.5005e-10
4.77398e-10
8.48424e-11
3.0186e-11
4.36901e-11
5.33136e-11
3.39221e-11
2.34554e-11
1.33159e-11
1.87148e-12
5.43649e-30
-8.81156e-30
1.12884e-13
7.81787e-08
1.01358e-08
1.41509e-11
6.33971e-11
8.53559e-10
2.87288e-10
2.75884e-10
1.87626e-09
9.1578e-08
5.44496e-08
9.3323e-09
9.99863e-10
1.41453e-10
3.86509e-11
5.04087e-11
7.13879e-11
6.92636e-11
5.25058e-11
3.0673e-11
9.46509e-12
1.53564e-12
6.89786e-12
5.77298e-10
1.23272e-08
1.74409e-08
5.13685e-10
6.9903e-15
3.59745e-10
1.14696e-09
2.55956e-10
1.51922e-09
3.41075e-09
2.40582e-11
2.40323e-11
2.40101e-11
1.99098e-11
1.72472e-11
3.09387e-11
5.77387e-11
5.81991e-11
4.58421e-11
2.49378e-11
7.93969e-12
1.51281e-12
5.14282e-14
1.75105e-16
1.73747e-16
3.93457e-10
6.36947e-11
1.03973e-14
1.52808e-10
3.90446e-10
1.30692e-10
7.89698e-10
3.96246e-10
7.46682e-11
5.2782e-11
4.00257e-11
2.27603e-11
1.36766e-11
2.00719e-11
3.62481e-11
3.84467e-11
2.85738e-11
8.1628e-12
5.61634e-13
1.80687e-14
2.10399e-15
5.27927e-16
1.72402e-16
6.34395e-17
3.6124e-13
7.96006e-14
6.51735e-11
9.02125e-11
8.16679e-11
2.5182e-10
1.04419e-10
6.06414e-11
4.63404e-11
2.90109e-11
1.33016e-11
8.89764e-12
1.61425e-11
2.33556e-11
2.00823e-11
1.15903e-11
1.37532e-12
2.51123e-14
2.53773e-16
1.31733e-17
7.53039e-18
1.34797e-17
6.42124e-17
1.50018e-15
5.30842e-14
2.55614e-11
3.46346e-11
5.45061e-11
5.99186e-11
5.06033e-11
3.71208e-11
2.27717e-11
1.08667e-11
5.1731e-12
5.25584e-12
1.03511e-11
1.10811e-11
7.93442e-12
2.85556e-12
1.22281e-13
4.5018e-16
5.11604e-17
2.53691e-19
1.55439e-18
2.47616e-17
1.52954e-16
6.79241e-16
1.40914e-14
1.183e-11
2.20494e-11
3.17424e-11
3.16369e-11
2.59034e-11
1.53598e-11
6.3658e-12
2.4814e-12
1.58624e-12
2.78574e-12
4.21949e-12
3.71704e-12
1.76802e-12
2.34643e-13
3.34705e-15
4.9048e-18
4.63276e-20
2.56731e-19
2.77903e-18
1.55025e-17
2.59244e-16
2.99064e-15
1.42456e-14
5.07565e-12
1.15719e-11
1.58045e-11
1.447e-11
9.47856e-12
4.08729e-12
1.20957e-12
4.16812e-13
4.41587e-13
9.3336e-13
1.02942e-12
7.21298e-13
1.67877e-13
4.84833e-15
5.18021e-18
5.36439e-22
4.19652e-21
9.89108e-20
7.40386e-19
1.94811e-17
2.24076e-16
1.63296e-15
1.01731e-14
1.6386e-12
4.15029e-12
5.35846e-12
4.25865e-12
2.19065e-12
7.07382e-13
1.65083e-13
6.6603e-14
1.14042e-13
1.53715e-13
1.4043e-13
6.03766e-14
4.69907e-15
1.58118e-17
3.70037e-22
2.28748e-22
1.04023e-21
9.89197e-21
8.11279e-20
1.6094e-18
3.55969e-17
3.8038e-16
4.2448e-15
3.85452e-13
9.97775e-13
1.20544e-12
8.17211e-13
3.3147e-13
8.21593e-14
1.61398e-14
7.97996e-15
9.11918e-15
8.82276e-15
5.99783e-15
1.11237e-15
1.78662e-17
2.94975e-21
7.17103e-24
5.22291e-23
2.25866e-22
1.002e-21
9.51611e-21
1.12865e-19
2.68969e-18
5.00102e-17
9.81381e-16
5.08652e-14
1.64548e-13
1.83251e-13
1.05736e-13
3.4331e-14
6.61387e-15
1.05952e-15
3.76865e-16
2.02702e-16
7.10748e-17
1.24638e-17
3.84335e-19
4.9929e-24
2.05593e-24
1.8803e-24
1.18424e-23
5.24942e-23
1.84686e-22
1.29272e-21
8.06766e-21
1.62183e-19
2.87821e-18
1.54481e-16
6.99546e-15
1.92247e-14
1.94834e-14
9.61855e-15
2.53995e-15
3.90857e-16
5.04333e-17
1.1666e-17
3.19986e-18
5.13719e-19
3.49977e-20
5.13401e-22
3.48906e-27
1.43911e-26
1.14626e-25
8.36947e-25
4.76287e-24
2.05253e-23
1.4739e-22
6.45487e-22
7.80994e-21
1.54904e-19
1.72579e-17
6.65144e-16
1.64194e-15
1.50699e-15
6.41911e-16
1.4003e-16
1.71608e-17
1.8339e-18
2.56688e-19
4.13775e-20
3.33124e-21
9.34778e-23
5.36169e-25
2.20589e-28
2.19108e-27
1.4645e-26
7.99476e-26
4.01521e-25
1.99603e-24
1.27501e-23
5.1954e-23
3.34504e-22
7.22672e-21
1.40482e-18
5.19515e-17
1.02398e-16
8.43954e-17
3.15595e-17
5.93837e-18
5.90584e-19
5.27057e-20
4.44122e-21
4.55697e-22
1.92194e-23
2.19705e-25
2.93958e-28
5.63369e-29
3.83494e-28
1.99022e-27
8.9433e-27
3.76905e-26
1.68081e-25
9.23519e-25
3.80933e-24
1.4655e-23
2.80819e-22
8.67849e-20
3.46378e-18
4.90481e-18
3.62961e-18
1.20388e-18
2.00791e-19
1.6867e-20
1.15527e-21
6.6751e-23
4.36418e-24
9.76569e-26
4.23492e-28
1.35188e-30
1.20256e-29
7.11066e-29
3.30951e-28
1.28869e-27
4.56326e-27
1.62067e-26
6.69097e-26
2.7285e-25
7.6156e-25
9.61464e-24
4.18494e-21
1.93847e-19
1.89981e-19
1.27894e-19
3.77944e-20
5.5851e-21
4.08912e-22
2.03948e-23
8.8032e-25
3.66879e-26
4.33633e-28
6.41589e-31
2.44745e-31
1.92732e-30
1.09828e-29
4.95992e-29
1.89278e-28
6.38572e-28
1.98633e-27
6.34257e-27
2.26158e-26
5.37813e-26
3.21271e-25
1.3195e-22
8.9524e-21
6.10419e-21
3.80863e-21
1.0088e-21
1.3081e-22
8.34514e-24
3.17393e-25
1.02965e-26
2.72369e-28
1.67499e-30
3.56169e-33
3.08505e-32
2.36135e-31
1.3742e-30
6.47462e-30
2.57327e-29
8.70681e-29
2.71068e-28
7.68336e-28
2.30103e-27
5.34741e-27
1.43063e-26
3.04853e-24
3.41965e-22
1.64369e-22
9.64466e-23
2.31119e-23
2.62488e-24
1.39392e-25
4.32552e-27
1.07307e-28
1.79289e-30
5.63347e-33
2.88254e-34
2.95983e-33
2.22736e-32
1.39979e-31
7.04882e-31
3.01186e-30
1.08291e-29
3.51802e-29
9.93657e-29
2.7034e-28
6.55017e-28
1.36372e-27
5.83741e-26
1.09642e-23
3.74354e-24
2.08225e-24
4.55886e-25
4.54788e-26
2.03746e-27
5.20771e-29
9.97729e-31
1.04953e-32
1.80575e-35
2.2171e-35
2.25361e-34
1.73226e-33
1.16526e-32
6.33044e-32
2.85594e-31
1.1584e-30
4.03903e-30
1.21535e-29
3.1099e-29
7.68943e-29
1.14215e-28
1.28068e-27
3.00438e-25
7.30202e-26
3.86168e-26
7.78964e-27
6.85567e-28
2.63442e-29
5.58807e-31
8.28625e-33
5.47772e-35
1.50279e-37
1.41914e-36
1.45201e-35
1.16672e-34
8.01449e-34
4.67836e-33
2.33079e-32
1.04759e-31
3.97803e-31
1.31392e-30
3.63555e-30
8.38819e-30
1.79883e-29
6.72556e-29
7.1547e-27
1.2371e-27
6.22134e-28
1.16431e-28
9.00085e-30
3.03439e-31
5.38055e-33
6.1618e-35
2.55787e-37
6.05724e-39
7.91228e-38
8.30297e-37
7.04517e-36
4.97124e-35
3.10659e-34
1.70784e-33
8.25793e-33
3.41665e-32
1.24347e-31
3.62154e-31
8.83359e-31
1.74179e-30
9.9822e-30
1.50157e-28
1.84481e-29
8.81393e-30
1.53581e-30
1.05355e-31
3.13467e-33
4.67482e-35
4.11759e-37
1.08484e-39
2.89724e-40
3.93593e-39
4.30108e-38
3.87297e-37
2.89261e-36
1.92952e-35
1.13933e-34
5.84177e-34
2.60662e-33
1.03265e-32
3.42462e-32
8.73672e-32
2.65309e-31
1.31184e-30
2.8081e-30
2.45001e-31
1.11058e-31
1.80385e-32
1.10998e-33
2.92447e-35
3.68289e-37
2.4847e-39
4.7457e-42
1.25032e-41
1.75661e-40
2.01603e-39
1.92936e-38
1.54874e-37
1.09964e-36
6.86341e-36
3.71754e-35
1.76994e-34
7.53367e-34
2.39142e-33
7.99775e-33
3.24089e-32
2.20443e-31
4.71997e-32
2.9269e-33
1.25639e-33
1.90484e-34
1.05994e-35
2.47978e-37
2.64276e-39
1.36143e-41
4.0888e-44
4.80397e-43
7.00914e-42
8.46583e-41
8.59978e-40
7.4117e-39
5.5887e-38
3.67945e-37
2.10623e-36
1.06525e-35
4.75635e-35
1.84806e-34
6.94938e-34
4.64689e-33
4.46702e-32
7.14144e-34
3.17254e-35
1.28642e-35
1.82535e-36
9.22769e-38
1.92183e-39
1.73487e-41
6.8152e-44
9.40021e-46
1.63965e-44
2.48886e-43
3.15914e-42
3.39755e-41
3.12289e-40
2.50001e-39
1.74118e-38
1.0559e-37
5.69033e-37
2.26055e-36
1.26509e-35
7.14503e-35
7.9255e-34
1.07422e-32
9.66086e-36
3.14283e-37
1.20072e-37
1.59803e-38
7.36356e-40
1.36802e-41
1.04628e-43
3.14203e-46
2.64289e-47
4.97532e-46
7.85489e-45
1.04552e-43
1.18814e-42
1.15932e-41
9.87426e-41
7.32432e-40
4.74627e-39
2.76307e-38
1.43177e-37
8.89669e-37
8.58877e-36
1.42535e-34
2.4168e-33
1.16243e-37
2.86404e-39
1.02831e-39
1.28575e-40
5.41355e-42
8.98505e-44
5.82098e-46
1.3589e-48
6.89046e-49
1.34766e-47
2.21105e-46
3.08374e-45
3.70413e-44
3.83877e-43
3.506e-42
2.80687e-41
1.9839e-40
1.2899e-39
8.25681e-39
7.72211e-38
1.26364e-36
2.7643e-35
5.72622e-34
1.25619e-39
2.41607e-41
8.12779e-42
9.55882e-43
3.68401e-44
5.46822e-46
2.99937e-48
5.91978e-51
1.62223e-50
3.28326e-49
5.59921e-48
8.1961e-47
1.04483e-45
1.15785e-44
1.14905e-43
1.01252e-42
8.0355e-42
6.09841e-41
5.21026e-40
7.66515e-39
1.80253e-37
4.83707e-36
1.18557e-34
1.25292e-41
1.89912e-43
5.96006e-44
6.59752e-45
2.33089e-46
3.09563e-48
1.43671e-50
3.32784e-53
3.47003e-52
7.27426e-51
1.29266e-49
1.99497e-48
2.7185e-47
3.25825e-46
3.56284e-45
3.51804e-44
3.20608e-43
2.93887e-42
3.53192e-41
7.91535e-40
2.46774e-38
8.23363e-37
2.45512e-35
1.18809e-43
1.39969e-45
4.07313e-46
4.24499e-47
1.37621e-48
1.63568e-50
6.41834e-53
3.31369e-55
6.81725e-54
1.48483e-52
2.76228e-51
4.5268e-50
6.64977e-49
8.71352e-48
1.05874e-46
1.17918e-45
1.24203e-44
1.40901e-43
2.45091e-42
7.86406e-41
3.16606e-39
1.28427e-37
4.56645e-36
1.08126e-45
9.76669e-48
2.60378e-48
2.55446e-49
7.60531e-51
8.08859e-53
2.68152e-55
4.85017e-57
1.2382e-55
2.81336e-54
5.51577e-53
9.66681e-52
1.54017e-50
2.2189e-49
2.99421e-48
3.74494e-47
4.55768e-46
6.57909e-45
1.65197e-43
6.97216e-42
3.58069e-40
1.75114e-38
7.50763e-37
9.30127e-48
1.53156e-50
1.5611e-50
1.44115e-51
3.94243e-53
3.75086e-55
1.05044e-57
7.59217e-59
2.09099e-57
4.97999e-56
1.03588e-54
1.94871e-53
3.3704e-52
5.32592e-51
7.91812e-50
1.10014e-48
1.54378e-47
2.87883e-46
1.00502e-44
5.32585e-43
3.2685e-41
1.82101e-39
9.90932e-38
7.40335e-50
2.57104e-52
8.79496e-53
7.63283e-54
1.91962e-55
1.63315e-57
3.876e-60
1.14088e-60
3.29935e-59
8.2706e-58
1.83132e-56
3.69859e-55
6.91745e-54
1.18937e-52
1.92659e-51
2.93976e-50
4.73328e-49
1.12353e-47
5.10446e-46
3.24459e-44
2.23569e-42
1.46848e-40
9.25895e-39
0.25622
0.259577
0.254058
0.25669
0.975879
0.973671
0.971531
0.968627
0.937101
0.895907
0.848303
0.769055
0.333787
0.245722
0.142807
0.0212854
2.01267e-18
1.43888e-26
-3.31429e-11
3.24956e-23
8.07389e-09
8.35166e-09
8.91377e-09
9.31403e-09
2.43426e-08
1.02807e-08
4.99042e-09
2.99964e-09
3.33859e-10
4.9756e-10
4.33311e-10
5.91748e-10
7.66619e-10
2.79544e-13
2.13415e-13
1.22142e-08
2.61957e-10
1.95816e-12
5.9244e-15
2.71222e-09
8.74411e-12
5.38445e-13
2.61537e-15
1.22201e-10
2.14134e-14
1.15259e-14
5.30817e-15
5.28121e-15
1.97013e-13
1.37399e-13
1.00489e-12
1.85392e-10
3.22509e-13
1.86466e-12
1.17488e-11
9.26059e-11
2.18438e-13
1.82091e-12
8.37475e-12
2.73159e-11
8.54018e-14
5.4049e-13
2.91117e-12
1.16356e-11
6.05984e-14
1.66558e-13
7.88973e-13
1.96491e-12
3.08101e-14
1.01971e-13
3.38799e-13
9.88928e-13
9.35613e-15
3.39274e-14
1.38191e-13
4.45296e-13
1.78007e-15
7.7373e-15
3.39655e-14
1.31624e-13
2.30617e-16
8.97274e-16
5.66507e-15
2.44508e-14
2.25042e-17
9.75708e-17
6.53545e-16
3.24829e-15
1.68992e-18
6.10406e-18
5.68689e-17
3.12193e-16
9.87959e-20
3.89835e-19
3.78013e-18
2.25116e-17
4.52228e-21
2.1472e-20
1.96004e-19
1.19937e-18
1.61907e-22
3.24858e-22
7.90445e-21
4.76786e-20
4.68897e-24
1.49115e-23
1.8379e-22
1.4401e-21
1.11853e-25
2.13671e-25
4.20395e-24
2.48082e-23
1.0599e-27
3.61273e-27
4.509e-26
4.171e-25
6.86805e-29
1.76629e-28
8.50617e-28
1.04965e-26
9.55669e-30
3.68192e-29
1.50616e-28
8.63745e-28
1.96968e-30
9.20741e-30
4.44243e-29
2.14683e-28
4.63274e-31
2.94319e-30
1.63846e-29
9.7125e-29
1.43784e-31
9.79076e-31
5.88612e-30
3.46589e-29
4.03399e-32
3.29769e-31
2.362e-30
1.62764e-29
1.15728e-32
1.04774e-31
9.0387e-31
7.07393e-30
2.66979e-33
3.20207e-32
3.07443e-31
2.72502e-30
6.70422e-34
8.86206e-33
9.80246e-32
1.00061e-30
1.44502e-34
2.22529e-33
2.78867e-32
3.16661e-31
2.81296e-35
4.70497e-34
6.65278e-33
8.35743e-32
4.32809e-36
8.22292e-35
1.31729e-33
1.90972e-32
4.8357e-37
9.39522e-36
1.9494e-34
3.17128e-33
0.804386
0.884006
0.861454
0.811311
0.776935
0.829168
0.917739
0.982729
0.974152
0.75786
0.472791
0.0165039
1.24783e-10
1.26773e-10
-2.9599e-14
-7.65998e-13
2.99269e-24
0.00215575
0.21375
0.912196
0.735667
0.412145
0.164973
0.153415
0.213245
0.315331
0.437368
0.729513
0.809473
0.802217
0.692795
0.495405
0.297411
0.141921
0.0106583
9.56153e-21
9.42356e-21
0.410712
0.430289
0.0620157
9.54275e-17
8.85363e-20
5.75077e-21
-1.60228e-20
0.00686059
0.0303887
0.0763846
0.146725
0.327227
0.646097
0.76973
0.768316
0.727435
0.528579
0.260748
0.357285
0.693792
6.10057e-17
6.69492e-17
1.64129e-09
1.56218e-09
1.76398e-09
5.28239e-09
3.80452e-12
3.28762e-12
3.84327e-12
3.32896e-12
0.0108188
0.0983104
0.334719
0.473484
0.593415
0.840337
0.8367
0.897878
0.761273
3.66885e-09
5.52227e-09
7.39778e-09
6.8907e-09
8.35508e-08
3.53879e-07
4.32199e-08
1.65109e-07
1.06254e-07
8.94386e-08
-6.77575e-15
1.6643e-19
0.0266716
0.0892382
0.147494
0.711929
0.912402
0.912408
0.6395
1.09277e-08
5.6579e-09
1.10265e-08
1.36341e-07
3.07807e-06
7.97756e-06
4.83891e-06
5.81907e-08
5.99052e-08
1.31558e-07
2.34317e-08
-6.43645e-18
-1.29404e-16
-3.55612e-20
-9.10622e-20
0.24529
0.898458
0.912571
0.590165
3.19658e-09
8.90977e-08
3.27976e-07
9.63014e-06
2.50634e-05
2.52271e-05
1.45015e-05
5.93737e-08
6.65881e-08
1.17925e-07
1.13945e-13
1.70487e-17
4.13488e-09
6.4454e-08
-3.54334e-22
-5.86629e-19
0.612247
0.912522
0.267947
4.06114e-07
9.39549e-07
3.84642e-06
2.27085e-05
2.40162e-05
1.96114e-05
3.79826e-06
7.41444e-07
2.27643e-06
2.65311e-06
3.41309e-24
3.99739e-25
2.77887e-12
1.21173e-05
2.64611e-05
4.72354e-15
0.0663606
0.723438
0.0126269
1.0571e-06
2.10464e-06
6.72647e-06
1.47975e-05
-4.93292e-13
-4.00916e-11
-1.71568e-16
1.87075e-07
4.11412e-06
4.51036e-06
2.94293e-06
2.42708e-07
9.92886e-07
4.56111e-06
2.95609e-05
3.36655e-05
2.83778e-05
0.0695252
6.3238e-05
7.39216e-07
1.79034e-06
3.86599e-06
1.64311e-06
6.04514e-14
1.64826e-09
5.02271e-09
5.97085e-09
5.23376e-07
4.18389e-06
5.19112e-06
5.13802e-06
2.88209e-06
2.4066e-08
1.60779e-05
4.13534e-05
2.19041e-05
2.0789e-05
2.32507e-06
1.84345e-07
7.79529e-07
2.0645e-07
9.25511e-09
5.549e-12
1.03029e-10
1.84732e-11
1.72381e-11
1.64532e-11
8.9655e-11
1.53177e-07
2.40666e-07
4.73441e-08
2.36914e-08
4.49096e-06
3.26215e-05
3.58291e-05
2.22754e-05
2.36939e-06
1.63023e-08
1.90325e-07
6.98451e-09
1.12146e-08
9.57526e-11
1.01711e-10
4.81999e-11
3.55727e-11
3.07206e-11
5.94051e-11
8.6262e-13
8.15679e-13
4.94623e-10
2.33292e-08
-1.28651e-10
1.057e-05
3.56841e-05
2.217e-05
2.23025e-06
1.36673e-09
1.53293e-09
6.83841e-09
7.93375e-09
4.12685e-10
1.33993e-10
6.2766e-11
4.77827e-11
7.22854e-11
4.57186e-10
5.23243e-09
1.22438e-08
1.25601e-08
6.38914e-09
-2.83436e-11
1.13635e-06
7.95035e-06
4.03567e-06
1.64574e-06
1.02256e-09
3.63782e-09
9.00551e-09
6.75759e-09
8.5328e-10
1.65586e-10
6.63542e-11
4.26474e-11
4.21369e-11
1.0137e-10
2.97451e-10
8.27694e-10
2.11298e-09
9.49499e-10
9.17712e-10
4.7364e-10
5.25092e-10
2.00944e-09
1.23196e-06
4.14048e-10
3.03057e-09
7.09194e-09
5.32047e-09
1.01833e-09
2.298e-10
1.07001e-10
4.23759e-11
3.05433e-11
3.27187e-11
6.2017e-11
9.79292e-11
2.49858e-10
5.70717e-10
7.95584e-10
8.19915e-10
3.0436e-09
1.8216e-08
4.37477e-07
1.51864e-10
1.29637e-09
3.65493e-09
3.29682e-09
1.12649e-09
3.32876e-10
1.73788e-10
8.46758e-11
3.37081e-11
2.40266e-11
2.71993e-11
5.2452e-11
8.65886e-11
1.36596e-10
2.53943e-10
8.15817e-10
2.01381e-09
4.64345e-09
8.57115e-10
5.05266e-11
4.09953e-10
1.37081e-09
1.58514e-09
8.58724e-10
4.01819e-10
2.24198e-10
1.41759e-10
7.52303e-11
2.62777e-11
1.09169e-11
8.40606e-12
1.35969e-11
1.83913e-11
2.80949e-11
1.09563e-10
5.68555e-10
1.1763e-09
8.55513e-10
1.44063e-11
1.04133e-10
3.94879e-10
6.1287e-10
4.35505e-10
3.0847e-10
2.41246e-10
1.74583e-10
1.19955e-10
7.80581e-11
3.36151e-11
5.49388e-12
2.69974e-12
2.64014e-12
3.68987e-12
5.7737e-12
3.97206e-11
1.89606e-10
3.66433e-10
3.53636e-12
2.27109e-11
9.41672e-11
1.92432e-10
1.85326e-10
1.70127e-10
1.6039e-10
1.44626e-10
1.36856e-10
1.13163e-10
8.26938e-11
3.46315e-11
3.09737e-12
9.22903e-13
8.99763e-13
1.01273e-12
9.47899e-13
3.30619e-13
1.60858e-13
7.1734e-13
4.53632e-12
1.95215e-11
4.92061e-11
6.44262e-11
7.2815e-11
7.751e-11
7.38814e-11
7.60303e-11
1.09643e-10
1.15571e-10
9.60286e-11
2.81113e-11
3.82597e-12
8.85493e-13
8.28967e-13
7.653e-13
4.36556e-13
1.59597e-13
1.18326e-13
7.75194e-13
3.4361e-12
1.02e-11
1.74634e-11
2.36324e-11
2.63556e-11
2.57656e-11
2.48502e-11
3.41845e-11
7.27354e-11
1.33077e-10
9.43858e-11
3.83628e-11
7.0911e-12
4.89432e-12
2.55723e-12
7.42614e-13
1.27585e-13
1.54874e-14
1.06397e-13
4.95287e-13
1.66252e-12
3.49953e-12
5.39604e-12
6.34912e-12
6.42131e-12
6.67017e-12
7.88531e-12
1.85733e-11
7.20117e-11
1.24583e-10
1.0833e-10
3.85688e-11
1.61842e-11
6.64706e-12
1.11301e-12
1.24946e-13
1.59917e-15
1.14046e-14
5.65575e-14
2.07003e-13
4.98808e-13
8.30933e-13
1.02229e-12
1.03098e-12
1.12417e-12
1.45396e-12
3.04237e-12
1.56039e-11
7.97237e-11
1.08184e-10
9.32311e-11
3.9726e-11
1.39572e-11
1.25227e-12
1.29435e-13
1.23351e-16
9.48628e-16
4.99711e-15
1.93496e-14
4.95476e-14
8.46209e-14
1.02364e-13
9.19896e-14
9.82895e-14
2.12498e-13
2.74575e-13
1.91981e-12
1.91803e-11
7.00198e-11
7.41243e-11
5.15566e-11
1.62638e-11
1.25676e-12
1.40054e-13
7.15843e-18
6.1187e-17
3.37394e-16
1.3446e-15
3.38726e-15
5.64291e-15
6.08509e-15
3.69581e-15
4.9707e-15
1.65987e-14
2.16601e-14
6.03714e-13
3.4417e-12
2.35836e-11
4.82842e-11
3.85606e-11
1.51045e-11
1.54134e-12
1.42481e-13
3.13972e-19
3.06811e-18
1.73389e-17
6.91233e-17
1.59498e-16
2.42491e-16
4.10476e-17
4.30501e-18
6.70899e-18
2.3607e-16
3.65344e-16
1.4248e-13
3.46898e-13
4.8285e-12
2.39162e-11
2.43614e-11
1.05857e-11
1.64744e-12
1.10487e-13
1.08378e-20
1.20288e-19
6.79848e-19
2.62773e-18
5.24473e-18
6.60537e-18
6.79013e-19
7.15016e-21
1.09648e-21
2.23582e-20
1.01083e-18
2.59773e-15
7.92932e-15
7.13477e-13
1.00852e-11
1.72721e-11
8.53113e-12
1.32644e-12
3.86006e-14
3.1174e-22
3.708e-21
2.05087e-20
7.44256e-20
1.23793e-19
1.04838e-19
7.39801e-21
4.9754e-22
1.04478e-21
2.93609e-21
7.82494e-21
5.81404e-19
2.74976e-17
1.42334e-13
5.36663e-12
1.1844e-11
6.64087e-12
4.88125e-13
1.06633e-14
7.58084e-24
9.0371e-23
4.81452e-22
1.6012e-21
2.16364e-21
1.14727e-21
1.65361e-22
3.85575e-22
1.16523e-21
3.90523e-21
2.36067e-20
1.22774e-18
3.57861e-15
5.43968e-13
4.89958e-12
9.38801e-12
3.05093e-12
1.09722e-13
6.7481e-15
1.60783e-25
1.82407e-24
9.15323e-24
1.67954e-23
2.49311e-23
3.33264e-23
9.64093e-23
3.28659e-22
1.48605e-21
1.39145e-20
5.8839e-19
2.7646e-16
3.01507e-14
9.41784e-13
5.20335e-12
6.61587e-12
5.81686e-13
1.70012e-14
6.22042e-15
4.91953e-27
3.6815e-26
2.00753e-25
1.04447e-24
3.86953e-24
1.61979e-23
6.59977e-23
2.98494e-22
6.97603e-21
1.49812e-19
2.54554e-17
9.99331e-15
1.89713e-13
1.60855e-12
4.68329e-12
4.32965e-12
1.07089e-13
8.53525e-15
7.02994e-15
1.19899e-27
1.01999e-26
7.16148e-26
4.46966e-25
2.54911e-24
1.38114e-23
8.96006e-23
1.952e-21
6.98021e-20
2.04741e-18
1.60749e-16
1.77283e-14
3.3306e-13
2.01507e-12
4.08799e-12
2.00307e-12
5.08213e-14
2.04853e-14
1.0458e-14
5.71847e-28
6.13589e-27
5.14862e-26
3.92624e-25
2.81986e-24
1.94562e-23
2.7522e-22
1.09976e-20
3.49123e-19
1.28258e-17
7.384e-16
2.60255e-14
2.58792e-13
1.76847e-12
3.25325e-12
1.15163e-12
1.46829e-13
4.51833e-14
1.21596e-14
2.52914e-28
2.73112e-27
2.52794e-26
2.01895e-25
1.47515e-24
1.20775e-23
2.06247e-22
6.57273e-21
1.66051e-19
3.51482e-18
2.04684e-16
1.34127e-14
1.35845e-13
1.13392e-12
2.37264e-12
1.36958e-12
3.37946e-13
5.71154e-14
9.83732e-15
1.08521e-28
1.24892e-27
1.31419e-26
1.31566e-25
1.08866e-24
7.93614e-24
6.74783e-23
1.13286e-21
2.55285e-20
5.8345e-19
1.81854e-17
1.89989e-15
4.6352e-14
4.95485e-13
1.59422e-12
1.05851e-12
3.66281e-13
5.15214e-14
3.45644e-15
5.09563e-29
6.68386e-28
7.70903e-27
8.24979e-26
7.7624e-25
5.97277e-24
3.92681e-23
2.99198e-22
3.05637e-21
5.37414e-20
8.31864e-19
6.83649e-17
1.10764e-14
1.27605e-13
6.97499e-13
5.18902e-13
2.07507e-13
3.24226e-14
2.04481e-15
2.17578e-29
3.16652e-28
4.09309e-27
4.78669e-26
4.839e-25
3.80552e-24
2.72483e-23
1.61959e-22
9.29621e-22
5.82953e-21
9.54248e-20
2.62118e-18
5.21006e-16
2.16766e-14
2.03779e-13
1.59241e-13
6.43103e-14
1.34169e-14
8.97659e-16
9.03798e-30
1.46516e-28
2.12031e-27
2.63734e-26
2.85569e-25
2.30129e-24
1.62597e-23
1.00479e-22
5.17319e-22
2.28644e-21
1.07783e-20
1.52421e-19
1.24441e-17
1.55692e-15
4.13108e-14
2.9374e-14
1.45208e-14
1.8181e-15
4.11503e-16
3.17484e-30
5.56638e-29
8.9545e-28
1.14112e-26
1.28259e-25
1.09185e-24
8.19348e-24
5.39262e-23
2.71733e-22
1.1758e-21
4.5903e-21
1.6265e-20
8.68663e-20
5.82279e-18
1.25413e-15
1.34241e-15
1.18714e-15
5.13916e-16
2.32772e-16
9.25345e-31
1.74159e-29
3.0417e-28
4.39578e-27
4.94493e-26
4.34317e-25
3.05029e-24
1.8735e-23
1.00525e-22
4.26816e-22
1.70635e-21
5.83852e-21
1.77886e-20
3.81894e-20
1.29493e-19
1.50882e-17
9.32515e-17
1.89673e-16
1.28639e-16
2.45763e-31
5.45432e-30
9.57306e-29
1.43568e-27
1.70576e-26
1.72616e-25
1.45325e-24
9.43559e-24
4.87354e-23
2.09834e-22
7.39021e-22
1.98358e-21
5.67781e-21
6.97182e-21
2.36355e-20
6.16832e-20
1.1676e-17
8.12836e-17
7.53996e-17
4.48103e-32
1.03272e-30
1.63121e-29
2.65728e-28
3.50657e-27
3.65366e-26
2.97532e-25
1.75298e-24
7.90526e-24
2.84753e-23
8.12419e-23
1.98371e-22
4.67481e-22
1.82544e-22
6.33533e-22
8.12061e-22
7.2429e-19
1.31208e-17
2.49642e-17
)
;

boundaryField
{
    leftWall
    {
        type            zeroGradient;
    }
    rightWall
    {
        type            zeroGradient;
    }
    lowerWall
    {
        type            zeroGradient;
    }
    atmosphere
    {
        type            inletOutlet;
        inletValue      uniform 0;
        value           nonuniform List<scalar> 
46
(
7.40335e-50
2.57104e-52
8.79496e-53
7.63283e-54
1.91962e-55
1.63315e-57
3.876e-60
1.14088e-60
3.29935e-59
8.27059e-58
1.83132e-56
3.69859e-55
6.91745e-54
1.18937e-52
1.92659e-51
2.93976e-50
4.73328e-49
1.12353e-47
5.10446e-46
3.24459e-44
2.23569e-42
1.46848e-40
9.25895e-39
4.8357e-37
9.39522e-36
1.9494e-34
3.17128e-33
4.48103e-32
1.03272e-30
1.63121e-29
2.65728e-28
3.50657e-27
3.65366e-26
0
0
0
0
0
0
0
0
0
0
0
0
0
)
;
    }
    defaultFaces
    {
        type            empty;
    }
}


// ************************************************************************* //
