/*--------------------------------*- C++ -*----------------------------------*\
| =========                 |                                                 |
| \\      /  F ield         | OpenFOAM: The Open Source CFD Toolbox           |
|  \\    /   O peration     | Version:  2312                                  |
|   \\  /    A nd           | Website:  www.openfoam.com                      |
|    \\/     M anipulation  |                                                 |
\*---------------------------------------------------------------------------*/
FoamFile
{
    version     2.0;
    format      ascii;
    arch        "LSB;label=32;scalar=64";
    class       volScalarField;
    location    "0.65";
    object      p_rgh;
}
// * * * * * * * * * * * * * * * * * * * * * * * * * * * * * * * * * * * * * //

dimensions      [1 -1 -2 0 0 0 0];

internalField   nonuniform List<scalar> 
2268
(
3788.08
3797.06
3801.07
3809.53
3824.33
3849.23
3891.3
3963.02
4085.08
4285.12
4604.84
5065.39
5644.28
6273.05
6798.64
7210.28
7519.99
7740.35
7886.18
7975.31
8027.74
8048.15
8062.71
3783.69
3792.41
3796.23
3804.31
3818.42
3842.15
3882.14
3950.01
4063
4256.16
4570.51
5032.88
5626.12
6279.48
6816.42
7232.09
7540.77
7756.39
7896.89
7981.21
8030.46
8049.2
8065.02
3776.08
3784.3
3787.74
3795.01
3807.71
3829.11
3864.99
3926.67
4036.97
4204.06
4503.5
4964.84
5584.09
6288.04
6848.64
7273.64
7579.85
7787.78
7918.08
7993.14
8036.15
8051.26
8068.45
2872.18
2900.09
2908.75
2926.83
2958.82
3012.4
3094.41
3217.78
3421.06
3753.75
4287.1
4844.73
5510.45
6298.62
6897.1
7337.15
7639.49
7834.81
7949.37
8010.67
8044.52
8054.1
8073.99
1114.31
1114.77
1115.49
1117.09
1119.81
1124.17
1143.21
1199.27
1306.51
1532.49
2079.93
3508.69
5280.65
6304.46
6964.64
7425.23
7720.27
7896.44
7989.26
8032.39
8054.36
8056.45
8080.53
1113.81
1114.11
1114.75
1116.21
1118.72
1122.72
1128.26
1135.58
1145.72
1160.13
1182.46
1359.07
3358.67
6151.21
7049.2
7537.04
7819.12
7969.6
8035.53
8056.79
8064.97
8057.8
8088.3
1112.87
1113
1113.52
1114.8
1117.05
1120.71
1125.93
1133.03
1142.63
1155.88
1176.74
1205.23
1420.47
4810.89
7145.18
7669.68
7935.94
8047.5
8082.86
8079.28
8072.89
8054.91
8098.58
1111.66
1111.64
1112.01
1113.1
1115.03
1118.34
1123.24
1130.03
1139.14
1151.43
1169.44
1192.51
1203.86
2565.9
6895.75
7811.72
8049.47
8122.18
8124.04
8089.39
8065.25
8030.52
8103.9
1951.3
2041.88
3418.58
4857
4532.83
3858.37
3594.46
3868.06
3767.44
2588.91
2046.63
2006.65
1785.76
1393.35
1265.82
1404.68
1658.31
2042.04
2946.21
1908.27
1831
2617.76
4661.97
4431.32
3856.57
3598.28
3728.53
3555.72
2365.5
1773.96
1826.53
1684.49
1342.46
1213.16
1394.45
1653.28
1825.99
2711.2
1876.21
1780.22
2556.92
4238.55
4062.98
3566.82
3105.51
3239.94
3064.9
1687.37
1427.1
1474.46
1473.25
1095.38
1065.85
1128.31
1220.74
1389.11
2243.16
1878.12
2274.48
3389.39
3305.91
2634.91
1980.7
1420.32
1699.32
1665.14
1216.64
1232.88
1214.8
1026.55
986.184
975.207
989.901
1021.18
1117.97
2135.12
1899.86
3464.52
3404.2
2013.39
1013.01
998.862
1061.5
1165.61
1158.79
999.101
1096.81
1078.95
929.449
896.07
912.424
905.484
947.183
1045.9
2494.62
4389.64
4004.56
2562.31
1084.97
947.592
961.747
1016.21
1096.54
1103.79
919.814
1031.09
1066.84
970.425
902.6
906.86
905.943
911.116
982.077
2541.9
4491.12
4008.36
962.367
862.464
885.329
913.034
959.103
1037.7
1428.46
929.386
1027.37
1156.37
1059.2
983.296
924.028
913.002
909.401
1021.06
2409.98
3510.5
1456.34
824.299
815.089
850.501
878.927
917.065
996.827
1588.62
1514.86
1055.94
1185.65
1130.57
1066.83
966.289
907.023
918.497
1084
1994.48
1109.37
1109.09
1109.11
1109.88
1111.21
1113.99
1118.33
1124.51
1132.63
1143.16
1156.27
1169.7
1169.9
1152.02
3428.37
7168.81
7777.82
7478.83
7039.36
6546.73
6276.19
6054.79
6346.88
1104.45
1103.8
1103.16
1102.76
1103.63
1105.87
1109.19
1114.28
1120.68
1128.21
1136.32
1140.66
1130.57
1083.97
982.362
1172.4
1390.81
1698.28
1580.23
1215.02
1067.25
1008.39
976.071
1098.26
1097.38
1096.16
1094.91
1094.41
1095.14
1097.98
1103.07
1107.69
1112
1117.41
1119.7
1111.21
1084.19
1027.71
972.58
969.433
974.582
983.907
994.598
995.786
981.252
946.605
1089.33
1088.72
1087.22
1085.12
1083.54
1083.98
1087.87
1086.12
1056.24
1042.05
1038.16
1051.9
1082.68
1097.96
1084.26
1066.53
1048.9
1031.67
1007.9
971.087
913.677
819.804
665.86
738.352
750.044
748.775
730.939
719.067
720.463
738.584
718.483
602.686
571.971
648.103
666.132
701.022
785.723
846.334
850.9
843.27
776.971
670.104
541.017
398.199
280.98
227.61
61.8989
102.121
115.643
98.7348
75.7203
64.6846
67.6242
301.163
453.114
475.236
485.144
500.006
508.915
506.827
497.871
470.665
403.778
328.039
258.782
177.131
109.646
32.3733
2.40388
1.38131
1.24786
3.20796
47.7153
63.6545
63.5153
39.2716
6.66544
0.865868
0.968162
25.3248
44.7206
54.6478
55.6114
44.6951
21.1887
1.26732
1.27543
1.3784
1.49755
1.66158
1.8842
2.15501
1.04521
0.89587
2.30343
2.90095
0.485357
0.545452
0.611808
0.683944
0.71659
0.732086
0.737792
0.785932
0.815146
0.854492
0.898876
0.978163
1.1469
1.24708
1.34686
1.46807
1.62307
1.81365
2.04198
0.745884
0.612439
2.26891
2.6901
0.423047
0.485722
0.567271
0.655642
0.731654
0.760499
0.726315
0.769042
0.802491
0.842917
0.895451
0.969032
1.08901
1.1939
1.2965
1.41232
1.55085
1.7041
1.87409
0.552862
0.443968
0.991462
0.704909
0.507925
0.445125
0.522564
0.603781
0.667959
0.708362
0.722297
0.75749
0.794214
0.836543
0.888767
0.954789
1.03597
1.12347
1.21745
1.31993
1.43075
1.54167
1.65277
0.516
0.441193
0.323931
0.289223
0.346108
0.423851
0.504658
0.579632
0.639552
0.682214
0.711285
0.744161
0.779824
0.820192
0.867577
0.923626
0.987154
1.05677
1.13021
1.20581
1.27967
1.3576
1.41018
0.543095
0.499352
0.423537
0.389003
0.412186
0.460869
0.520198
0.578765
0.62831
0.66694
0.697787
0.728325
0.760838
0.796721
0.837132
0.882366
0.931694
0.983745
1.03643
1.08729
1.13988
1.18001
1.22242
0.580847
0.557081
0.510128
0.47901
0.481558
0.506469
0.54614
0.58732
0.624199
0.655477
0.68285
0.709619
0.737674
0.767945
0.800801
0.835871
0.872346
0.908766
0.942778
0.971874
1.00772
1.0511
1.04461
0.605079
0.593231
0.563601
0.540024
0.533835
0.545587
0.567757
0.593834
0.619469
0.643194
0.665534
0.687813
0.710979
0.735427
0.76091
0.786836
0.812263
0.835553
0.854274
0.870999
0.88051
0.864481
0.825505
0.611193
0.605996
0.588265
0.571832
0.564639
0.567574
0.578437
0.593392
0.610492
0.627922
0.645372
0.663147
0.681498
0.700366
0.719164
0.73718
0.753496
0.766399
0.774423
0.774395
0.761479
0.732004
0.680988
0.602689
0.600752
0.590748
0.580083
0.573529
0.572635
0.576402
0.58545
0.596861
0.609416
0.622533
0.636093
0.64996
0.663707
0.67663
0.688071
0.697035
0.702089
0.701689
0.693205
0.673824
0.640139
0.587669
0.585284
0.584693
0.579003
0.572269
0.567351
0.565661
0.567282
0.571853
0.579248
0.588024
0.597376
0.607158
0.61699
0.62622
0.634104
0.640124
0.643337
0.64269
0.63641
0.622575
0.598926
0.562863
0.511035
0.56346
0.563299
0.559944
0.55572
0.552327
0.550773
0.551353
0.553921
0.558201
0.56437
0.570334
0.576872
0.583238
0.588487
0.59216
0.593802
0.592668
0.587527
0.576958
0.55943
0.533169
0.496231
0.446149
0.539592
0.539496
0.537406
0.534697
0.532372
0.531087
0.531108
0.532399
0.534674
0.537428
0.541648
0.545715
0.549357
0.551044
0.551271
0.549571
0.544953
0.536357
0.522696
0.502736
0.47511
0.438365
0.390748
0.514734
0.514603
0.513203
0.511369
0.50969
0.508571
0.508209
0.508593
0.509572
0.510914
0.512542
0.513764
0.514179
0.514012
0.51195
0.507561
0.500195
0.489069
0.473294
0.451898
0.423841
0.38807
0.343357
0.489412
0.489232
0.488207
0.486854
0.485514
0.484431
0.483728
0.483402
0.483346
0.483388
0.483314
0.482755
0.481354
0.478753
0.474425
0.467854
0.458446
0.445552
0.428452
0.406388
0.378586
0.344297
0.302681
0.463929
0.463708
0.462878
0.461765
0.460565
0.459415
0.458385
0.45746
0.456549
0.455502
0.454106
0.452091
0.449101
0.444752
0.438715
0.430524
0.419675
0.405632
0.387827
0.365676
0.338614
0.306141
0.267787
0.438471
0.438214
0.437476
0.436462
0.435281
0.434004
0.432661
0.431225
0.429607
0.427668
0.425223
0.422035
0.417799
0.412172
0.404891
0.39556
0.383769
0.369081
0.351049
0.329232
0.30323
0.272834
0.237675
0.413153
0.412868
0.412163
0.411168
0.409941
0.408512
0.406883
0.405014
0.402817
0.400168
0.396902
0.39281
0.387634
0.381106
0.372964
0.362895
0.350566
0.335629
0.317737
0.296553
0.271766
0.243728
0.211454
0.388056
0.387747
0.387044
0.386028
0.384727
0.383145
0.381266
0.379041
0.376389
0.373194
0.369309
0.364541
0.358703
0.351579
0.342896
0.332414
0.31987
0.304996
0.287529
0.267224
0.244081
0.217792
0.188345
0.363239
0.362909
0.362192
0.361141
0.359761
0.358043
0.355959
0.353459
0.350463
0.346867
0.342537
0.337303
0.331012
0.323574
0.31461
0.303972
0.29147
0.276899
0.260071
0.240922
0.219135
0.194785
0.167889
0.338738
0.338391
0.337659
0.336571
0.335125
0.333299
0.331063
0.328363
0.325128
0.32126
0.316636
0.311105
0.304482
0.297101
0.288
0.277405
0.265142
0.251057
0.235153
0.216987
0.19667
0.17421
0.149652
0.314583
0.314224
0.31348
0.312365
0.310871
0.308973
0.306636
0.303811
0.30043
0.296406
0.291637
0.286006
0.279392
0.271723
0.2629
0.252537
0.240676
0.227373
0.212178
0.195176
0.176337
0.155685
0.133283
0.29079
0.290425
0.289677
0.28855
0.287032
0.285097
0.282712
0.279828
0.276386
0.272309
0.26751
0.261896
0.255365
0.247823
0.239159
0.229227
0.217948
0.205262
0.191026
0.175219
0.157834
0.138905
0.118495
0.267371
0.267006
0.266262
0.265139
0.263623
0.261688
0.259303
0.256422
0.252992
0.248948
0.244216
0.238716
0.232364
0.225071
0.216746
0.207298
0.19665
0.184733
0.171483
0.156876
0.140909
0.123615
0.10506
0.244325
0.243967
0.243239
0.242137
0.240648
0.238747
0.236405
0.233582
0.23023
0.226293
0.221709
0.216407
0.210321
0.203375
0.195492
0.186607
0.176654
0.165578
0.153343
0.139932
0.125347
0.109617
0.0927955
0.22165
0.221302
0.2206
0.219537
0.218099
0.216264
0.214006
0.211288
0.208069
0.204303
0.199935
0.194907
0.189161
0.182637
0.175273
0.167015
0.157812
0.147624
0.136426
0.124206
0.110969
0.0967381
0.0815624
0.199329
0.198999
0.198334
0.197325
0.195961
0.19422
0.19208
0.18951
0.186474
0.182932
0.178839
0.174145
0.168803
0.162762
0.155974
0.148395
0.139986
0.130717
0.120569
0.109536
0.0976197
0.0848427
0.0712397
0.177349
0.17704
0.176422
0.17548
0.17421
0.172589
0.170599
0.168213
0.165401
0.162128
0.158358
0.15405
0.149162
0.143656
0.137491
0.130631
0.123048
0.114721
0.105633
0.0957809
0.0851646
0.0737995
0.0617212
0.155683
0.155402
0.154838
0.153978
0.152818
0.151339
0.149526
0.147355
0.144801
0.141835
0.138429
0.134549
0.130159
0.125226
0.119719
0.113611
0.106881
0.0995106
0.0914899
0.0828129
0.07348
0.0635026
0.0529063
0.134309
0.134056
0.133554
0.132786
0.131753
0.130434
0.128821
0.12689
0.124623
0.121996
0.118989
0.11557
0.111712
0.107385
0.102565
0.0972328
0.091372
0.0849708
0.0780216
0.0705183
0.0624571
0.0538444
0.0447103
0.113189
0.11297
0.112536
0.11187
0.110976
0.109834
0.108439
0.10677
0.104812
0.102548
0.0999694
0.0970403
0.0937465
0.0900492
0.0859359
0.0813964
0.0764185
0.0709948
0.0651226
0.0587893
0.0519914
0.0447352
0.0370468
0.0922917
0.0921079
0.0917478
0.0911911
0.0904475
0.0894945
0.0883339
0.0869444
0.0853133
0.0834211
0.0813089
0.0788835
0.0761916
0.07314
0.0697436
0.0660082
0.0619224
0.0574796
0.0526947
0.0475285
0.0419861
0.0360708
0.0298313
0.0715759
0.0714307
0.0711493
0.070709
0.0701238
0.0693684
0.0684593
0.0673659
0.0660864
0.064611
0.0629384
0.0610426
0.0589176
0.0565349
0.0538886
0.0509763
0.0477892
0.0443149
0.0406545
0.0366421
0.0323442
0.0277493
0.0229673
0.0510048
0.0508988
0.0506996
0.0503814
0.0499624
0.0494125
0.0487584
0.0479722
0.0470531
0.0459947
0.04479
0.0434276
0.0418976
0.0401902
0.0382979
0.0362173
0.0339442
0.0314809
0.0288425
0.0259961
0.0229486
0.0197014
0.016307
0.0305387
0.0304779
0.0303627
0.0301698
0.0299197
0.0295842
0.0291896
0.0287161
0.0281627
0.0275255
0.0268
0.025978
0.0250562
0.0240302
0.0228947
0.0216464
0.0202847
0.0188116
0.0172292
0.0155301
0.0137163
0.0117909
0.00978083
0.0101427
0.0101403
0.010108
0.01004
0.00996122
0.00984699
0.00971384
0.00955522
0.00937022
0.00915718
0.00891455
0.00863959
0.00833254
0.00799067
0.0076129
0.00719718
0.00674486
0.00625659
0.00573319
0.00517483
0.00458416
0.00396466
0.00333169
6569.34
6493.87
6431.14
6214.91
1080.68
1036.83
958.996
803.539
901.177
861.557
819.211
756.305
550.233
479.221
375.966
256.833
185.009
146.27
109.947
51.6625
2.53398
2.69671
2.90848
3.06014
2.34692
2.48901
2.61203
2.67424
2.22847
2.41125
2.71125
2.77709
2.00169
2.23912
2.39065
2.39695
1.71498
1.87861
2.02269
1.97804
1.41982
1.52518
1.6666
1.59033
1.22254
1.30944
1.36411
1.23906
0.993009
0.939039
0.882403
0.74861
0.749045
0.696147
0.635624
0.564468
0.623331
0.577893
0.523033
0.459387
0.532722
0.490763
0.4415
0.385468
0.459674
0.421502
0.3777
0.328513
0.398682
0.364219
0.325396
0.282249
0.347171
0.316081
0.281615
0.244531
0.303652
0.275819
0.245712
0.213612
0.266809
0.242057
0.215703
0.187838
0.235426
0.213385
0.190192
0.165948
0.208436
0.188753
0.168291
0.147101
0.185023
0.167418
0.14929
0.130655
0.164499
0.148729
0.132596
0.116108
0.146353
0.132188
0.11777
0.103088
0.130182
0.117424
0.10447
0.0913172
0.115658
0.104138
0.0924634
0.0806124
0.102537
0.0921172
0.0815502
0.0708308
0.0906077
0.081174
0.0716088
0.0618888
0.0797358
0.0712058
0.062537
0.0537241
0.0697949
0.0621037
0.054282
0.0463064
0.0607052
0.0538104
0.0467749
0.0395941
0.052362
0.0462284
0.0399654
0.0335524
0.0446968
0.0393096
0.0337901
0.0281344
0.0376223
0.0329669
0.0281976
0.0232955
0.0310785
0.0271558
0.0231233
0.0189758
0.0249767
0.0217834
0.0185036
0.0151099
0.019226
0.0167653
0.0142301
0.0116045
0.0136741
0.0119384
0.0101526
0.00829055
0.00823127
0.00721024
0.00615257
0.00504398
0.00285041
0.00253432
0.00221073
0.00185673
1689.66
860.04
741.224
726.46
735.246
774.174
831.473
883.008
890.179
2140.9
2319.87
2331.34
1738.28
1335.35
1164.77
1075.29
1099.61
1390.13
2935.79
729.73
652.166
491.424
375.743
393.705
452.601
543.757
633.832
749.825
945.741
1226.47
1956.18
2248.69
2318.05
2361.7
2343.9
2133.16
2403.67
3705.7
527.749
223.864
142.053
111.433
141.053
206.391
279.663
317.324
362.041
428.517
671.514
957.682
1348.07
1772.64
2281.03
2951.23
3020.49
2775.89
4061.7
176.811
82.9423
5.70208
7.13651
8.21197
18.7391
49.3355
90.0201
116.848
163.422
289.909
424.368
673.4
888.756
1154.22
2041.23
2431.85
2049.58
4054.85
3.36333
4.27089
5.19001
6.20868
8.12845
10.5363
13.7789
16.3259
17.1554
20.4798
43.5594
123.399
294.772
526.511
679.991
1099.38
1557.18
1807.36
5708.88
3.21837
3.53615
4.23227
5.16915
7.18512
10.1105
14.6136
16.8532
17.4375
17.8377
18.1112
20.3774
163.94
307.021
568.965
801.373
1250.44
1754.08
6787.38
2.85601
3.04973
3.17046
3.37279
6.25339
130.486
313.045
157.084
17.5653
18.099
18.155
26.3463
290.383
515.52
642.539
688.331
1123.37
1626.7
7128.29
2.53927
2.41731
2.15783
1.84806
80.7451
602.682
700.657
617.511
183.776
18.2293
18.3793
28.6559
384.845
723.63
738.936
726.611
798.189
1300.13
6969.04
2.12734
1.68704
1.45992
2.08295
346.636
763.014
764.012
764.642
675.526
203.192
22.6848
19.4904
97.5521
652.805
774.475
761.25
783.584
819.083
1693.08
1.75855
1.04559
0.609873
5.10383
464.812
826.178
823.762
822.468
821.115
791.85
483.325
274.133
242.713
655.925
809.415
800.095
822.19
810.093
822.171
1.33199
0.593625
-0.0504812
-0.908875
328.063
889.631
883.874
880.067
877.608
876.609
876.176
871.937
863.743
854.877
851.265
848.246
868.566
866.192
875.535
0.874473
0.342892
-0.180311
-0.65667
43.3973
569.273
946.295
939.153
934.911
931.626
930.428
925.365
916.85
907.775
903.883
906.669
927.078
951.01
1421.49
0.561235
0.201792
-0.286282
-0.697341
-0.884314
181.861
980.082
1001.05
994.621
989.466
984.771
981.638
974.902
968.132
966.095
975.295
994.621
1305.91
4328.8
0.422853
0.125607
-0.27093
-0.597684
-0.705537
13.071
582.572
1067.66
1058.31
1052.11
1047.13
1042.09
1038.6
1034.21
1033.58
1049.99
1071.27
1995.83
4689.94
0.334705
0.0993316
-0.196174
-0.438386
-0.649769
-0.651616
156.3
900.687
1129.87
1119.17
1113.67
1109.85
1107.65
1108.7
1105.51
1087.25
1214.94
2151.95
5025.96
0.277578
0.086339
-0.150045
-0.395363
-0.60881
-0.779172
-1.01688
148.7
817.844
1178.41
1185.57
1180.33
1179.96
1184.04
1189.84
1178.11
1286.04
1640.06
3249.26
0.235579
0.0767775
-0.117855
-0.339574
-0.570214
-0.757367
-0.884202
-1.07347
9.26124
540.379
1088.45
1256.23
1253.03
1257.43
1270.47
1291.74
1292.7
1436.45
1613.08
0.202788
0.0707284
-0.0874551
-0.266022
-0.459442
-0.6239
-0.777256
-0.822887
-0.742368
-0.734294
164.968
809.848
1258.34
1329.94
1339.98
1362.67
1408.89
1472.81
1533
0.1771
0.067462
-0.0596396
-0.19882
-0.346748
-0.480053
-0.591089
-0.669865
-0.620429
-0.583944
-0.578625
-0.473232
387.842
994.986
1295.18
1381.49
1438.28
1500.79
1546.78
0.156157
0.0649692
-0.0374202
-0.146703
-0.259157
-0.362257
-0.444846
-0.491763
-0.514472
-0.493277
-0.465219
-0.426622
-0.492754
-0.36786
264.594
509.311
717.214
978.148
1379.02
0.138654
0.0621295
-0.0214305
-0.108625
-0.195941
-0.276361
-0.343044
-0.390186
-0.413778
-0.413586
-0.401454
-0.357267
-0.333807
-0.247747
-0.224749
-0.155778
0.818692
107.949
594.841
0.123597
0.0586999
-0.0106297
-0.0816178
-0.151418
-0.21592
-0.270992
-0.313031
-0.337886
-0.344501
-0.333276
-0.309703
-0.283589
-0.187837
0.165505
0.326271
0.70197
40.2268
54.7651
0.110366
0.0547322
-0.00374028
-0.0628046
-0.120261
-0.173471
-0.219648
-0.255949
-0.2805
-0.289608
-0.283207
-0.263469
-0.231951
-0.188147
-0.151415
0.971013
1.68191
28.4216
36.5708
0.0985313
0.0503266
0.000251663
-0.0498923
-0.098436
-0.143579
-0.183535
-0.216946
-0.239164
-0.249174
-0.245963
-0.229953
-0.201644
-0.161244
-0.117737
0.166476
0.107271
10.7831
586.546
0.0877911
0.0455843
0.00209217
-0.0412541
-0.0832041
-0.122479
-0.157841
-0.187731
-0.209189
-0.220385
-0.220421
-0.20885
-0.18453
-0.146116
-0.103084
-0.0673277
0.165332
0.71803
1308.46
0.0779278
0.0406069
0.00233853
-0.0357558
-0.0727521
-0.107726
-0.139792
-0.167476
-0.188505
-0.201297
-0.204879
-0.198416
-0.178827
-0.140143
-0.0827248
-0.0559321
0.200206
37.902
1352.16
0.0688052
0.0355057
0.00143548
-0.0325511
-0.0657808
-0.0976013
-0.127446
-0.153787
-0.175062
-0.19004
-0.197675
-0.196893
-0.182775
-0.146135
-0.0580991
-0.0291094
0.166379
171.782
1320.72
0.0603376
0.0303999
-0.000243647
-0.0309602
-0.0612748
-0.0907447
-0.11892
-0.144742
-0.166993
-0.184793
-0.197145
-0.202639
-0.195722
-0.170597
-0.0685039
-0.00315043
0.115032
273.066
261.398
0.052491
0.0254138
-0.00236957
-0.0304117
-0.0584
-0.0860651
-0.113093
-0.138849
-0.162548
-0.183676
-0.201406
-0.213809
-0.219002
-0.208916
-0.161737
-0.0614174
9.24531
139.042
-1.26061
0.0452498
0.0206705
-0.00465377
-0.0304245
-0.0564644
-0.0826503
-0.108833
-0.134726
-0.160039
-0.184676
-0.208114
-0.229355
-0.255718
-0.303323
-0.381144
1.49202
46.3172
-1.63609
-1.26224
0.0386267
0.0162857
-0.00684862
-0.0305992
-0.0548951
-0.0797348
-0.105144
-0.131121
-0.157854
-0.185737
-0.214733
-0.24611
-0.295295
-0.401708
-0.595021
7.16497
54.6056
-1.81072
-1.4247
0.0326298
0.0123575
-0.00875154
-0.0306092
-0.0532231
-0.0766823
-0.101152
-0.126878
-0.154398
-0.184644
-0.219211
-0.256357
-0.318529
-0.453521
-0.684845
20.1333
54.4187
-1.82744
207.381
0.0272688
0.00896032
-0.0102063
-0.0302067
-0.0510998
-0.0730222
-0.0962099
-0.121076
-0.148237
-0.178867
-0.215483
-0.258548
-0.317908
-0.460519
-0.625619
23.9797
3.47174
-1.53205
1100.93
0.0225348
0.00614032
-0.011109
-0.0292282
-0.0483006
-0.0684705
-0.0899557
-0.113228
-0.138716
-0.167256
-0.200096
-0.241067
-0.301791
-0.424318
-0.619663
9.5776
-0.93266
-1.08984
1301.84
0.0184109
0.00391425
-0.0114067
-0.027587
-0.0447142
-0.0629212
-0.0824067
-0.103445
-0.12646
-0.151913
-0.18075
-0.216357
-0.265991
-0.358421
-0.500507
1.95247
0.551051
-0.773407
1336.26
0.0148615
0.00227219
-0.011091
-0.0252623
-0.0403204
-0.0563608
-0.0735026
-0.0919924
-0.112117
-0.134141
-0.158567
-0.187069
-0.222383
-0.282373
-0.373088
-0.48813
-0.396645
-0.51406
1372.24
0.011836
0.00118052
-0.010191
-0.0222868
-0.0351785
-0.0489185
-0.0634759
-0.0792529
-0.0962757
-0.11463
-0.134248
-0.156049
-0.180769
-0.215174
-0.265704
-0.323203
-0.270949
-0.0906946
1007.94
0.00925309
0.000597671
-0.00877053
-0.0187355
-0.0293962
-0.0408242
-0.0525353
-0.0656409
-0.079591
-0.094497
-0.110214
-0.127388
-0.145899
-0.167278
-0.198425
-0.236139
-0.198429
12.2665
25.6794
0.00706647
0.000311581
-0.00696595
-0.0147468
-0.0230811
-0.0319799
-0.0413673
-0.0516057
-0.0625142
-0.0743061
-0.086383
-0.100053
-0.115205
-0.13179
-0.15649
-0.194653
-0.18525
5.05968
-0.426344
0.00505874
0.000239611
-0.00495284
-0.0105228
-0.0165099
-0.0229303
-0.0298109
-0.0372697
-0.0453361
-0.0542539
-0.0625055
-0.0730508
-0.0846013
-0.0971877
-0.1161
-0.143291
-0.157899
-0.24046
-0.203845
0.00311748
0.000238425
-0.00287678
-0.00623327
-0.00986769
-0.013819
-0.0181091
-0.0228476
-0.0280797
-0.033863
-0.039661
-0.0471031
-0.0543993
-0.0630661
-0.0745481
-0.0882332
-0.0932931
-0.116859
-0.0680779
0.00122948
0.000294419
-0.000747396
-0.00189398
-0.0031799
-0.00469973
-0.00658604
-0.00868597
-0.0110523
-0.0137287
-0.0164803
-0.0206426
-0.0244876
-0.0307998
-0.0373643
-0.0433129
-0.0409899
-0.0462034
0.0145737
)
;

boundaryField
{
    leftWall
    {
        type            fixedFluxPressure;
        gradient        uniform 0;
        value           nonuniform List<scalar> 
50
(
3788.08
3783.69
3776.08
2872.18
1114.31
1113.81
1112.87
1111.66
1109.37
1104.45
1098.26
1089.33
738.352
61.8989
1.38131
1.04521
0.745884
0.552862
0.516
0.543095
0.580847
0.605079
0.611193
0.602689
0.585284
0.56346
0.539592
0.514734
0.489412
0.463929
0.438471
0.413153
0.388056
0.363239
0.338738
0.314583
0.29079
0.267371
0.244325
0.22165
0.199329
0.177349
0.155683
0.134309
0.113189
0.0922917
0.0715759
0.0510048
0.0305387
0.0101427
)
;
    }
    rightWall
    {
        type            fixedFluxPressure;
        gradient        uniform 0;
        value           nonuniform List<scalar> 
50
(
2946.21
2711.2
2243.16
2135.12
2494.62
2541.9
2409.98
1994.48
2935.79
3705.7
4061.7
4054.85
5708.88
6787.38
7128.29
6969.04
1693.08
822.171
875.535
1421.49
4328.8
4689.94
5025.96
3249.26
1613.08
1533
1546.78
1379.02
594.841
54.7651
36.5708
586.546
1308.46
1352.16
1320.72
261.398
-1.26061
-1.26224
-1.4247
207.381
1100.93
1301.84
1336.26
1372.24
1007.94
25.6794
-0.426344
-0.203845
-0.0680779
0.0145737
)
;
    }
    lowerWall
    {
        type            fixedFluxPressure;
        gradient        uniform 0;
        value           nonuniform List<scalar> 
62
(
3788.08
3797.06
3801.07
3809.53
3824.33
3849.23
3891.3
3963.02
4085.08
4285.12
4604.84
5065.39
5644.28
6273.05
6798.64
7210.28
7519.99
7740.35
7886.18
7975.31
8027.74
8048.15
8062.71
8062.71
8065.02
8068.45
8073.99
8080.53
8088.3
8098.58
8103.9
6569.34
6493.87
6431.14
6214.91
1951.3
1908.27
1876.21
1878.12
1899.86
4389.64
4491.12
3510.5
1951.3
2041.88
3418.58
4857
4532.83
3858.37
3594.46
3868.06
3767.44
2588.91
2046.63
2006.65
1785.76
1393.35
1265.82
1404.68
1658.31
2042.04
2946.21
)
;
    }
    atmosphere
    {
        type            totalPressure;
        rho             rho;
        psi             none;
        gamma           1;
        p0              uniform 0;
        value           nonuniform List<scalar> 
46
(
0
0
0
0
0
0
0
0
0
0
0
0
0
0
0
0
0
0
0
0
0
0
0
0
0
0
0
0
0
0
0
0
0
-2.43468e-05
-0.000261391
-0.000854678
-0.00194267
-0.00361654
-0.00661069
-0.00945979
-0.0175827
-0.0239932
-0.0297826
-0.0284039
-0.0218272
-0.00544225
)
;
    }
    defaultFaces
    {
        type            empty;
    }
}


// ************************************************************************* //
