/*--------------------------------*- C++ -*----------------------------------*\
| =========                 |                                                 |
| \\      /  F ield         | OpenFOAM: The Open Source CFD Toolbox           |
|  \\    /   O peration     | Version:  2312                                  |
|   \\  /    A nd           | Website:  www.openfoam.com                      |
|    \\/     M anipulation  |                                                 |
\*---------------------------------------------------------------------------*/
FoamFile
{
    version     2.0;
    format      ascii;
    arch        "LSB;label=32;scalar=64";
    class       volScalarField;
    location    "0.5";
    object      alphas;
}
// * * * * * * * * * * * * * * * * * * * * * * * * * * * * * * * * * * * * * //

dimensions      [0 0 0 0 0 0 0];

internalField   nonuniform List<scalar> 
2268
(
2
2
2
2
2
2
2
2
2
2
2
2
2
2
2
2
2
2
2
2
2
2
1.99992
2
2
2
2
2
2
2
2
2
2
2
2
2
2
2
2
2
2
2
2
2
2
1.99992
2
2
2
2
2
2
2
2
2
2
2
2
2
2
2
2
2
2
2
2
2
2
1.99997
2
2
2
2
2
2
2
2
2
2
2
2
2
2
2
2
2
2
2
2
2
2
2
1.62311
1.63996
1.63593
1.62689
1.61395
1.59681
1.5758
1.55252
1.53003
1.51314
1.51058
1.53553
1.59995
1.72036
1.92541
2
2
2
2
2
2
2
2
0.159134
0.172215
0.168773
0.162052
0.152704
0.140711
0.126705
0.112049
0.0986946
0.0891582
0.0874508
0.100692
0.13863
0.225203
0.439028
1.04583
1.86418
2
2
2
2
2
2
3.32742e-10
3.3611e-10
3.38923e-10
3.36384e-10
3.20486e-10
2.98445e-10
2.77329e-10
2.62718e-10
2.45629e-10
2.32034e-10
2.21595e-10
2.10715e-10
1.87608e-10
1.61316e-10
3.70978e-10
0.0192338
0.565883
1.77922
2
2
2
2
1.99955
4.73206e-10
4.82917e-10
4.86983e-10
4.79466e-10
4.59214e-10
4.25069e-10
3.94595e-10
3.79753e-10
3.5583e-10
3.41118e-10
3.28546e-10
3.18699e-10
2.85826e-10
2.41665e-10
2.53779e-10
2.3724e-10
7.45582e-10
0.689509
1.97214
2
2
2
1.99938
1.00013
1.00008
1
1
1
1
1.07145
1.91554
2.64584
2.81067
2.83764
2.85762
2.85956
2.82974
2.82606
2.85385
2.71081
1.50553
1.15001
1.00013
1.00008
1
1
1
1
1.19306
2.43295
2.98148
2.99474
2.99933
2.9989
2.99883
2.99901
2.91142
2.74082
2.74075
2.51441
1.22077
1.00013
1.00003
1
1
1
1
1.03104
1.86015
2.88897
2.99338
2.97745
2.94136
2.96896
2.99598
2.96611
2.64466
2.31339
1.89281
1.19063
1.00011
1.00001
1
1
1
1
1.00068
1.21697
1.97138
2.16424
1.90465
1.64035
1.77909
2.25433
2.45138
2.2678
1.59621
1.26842
1.11411
1.00001
1
1
1
1
1
1.00693
1.08255
1.0682
1.00399
1.00534
1.01196
1.0642
1.1074
1.26375
1.38722
1.35103
1.26589
1.08974
1.00001
1.00207
1.00074
1
1
1.00625
1.01144
1.00394
1.00395
1.00259
1.02156
1.13283
1.34457
1.3425
1.23235
1.02667
1.10693
1.26317
1.08641
1.1461
1.24292
1.19813
1.10819
1.02894
1.00755
1.00417
1.00398
1.00394
1.01955
1.1933
1.05994
1.04975
1.21305
1.26064
1.01526
1.00004
1.19399
1.16601
1.87935
1.90304
1.80067
1.61526
1.37723
1.15856
1.11157
1.11079
1.11527
1.15173
0.939077
0.771471
0.755894
1.06755
1.08914
1.00019
1.00001
1.02065
1.20524
6.78303e-10
6.8805e-10
6.92408e-10
6.9288e-10
6.7804e-10
6.47739e-10
6.12354e-10
5.74726e-10
5.53184e-10
5.56157e-10
5.63122e-10
5.47604e-10
4.68879e-10
3.85012e-10
4.25869e-10
6.34245e-10
6.81869e-10
0.00558524
0.925769
1.92688
2
2
1.99978
1.1451e-09
1.28358e-09
1.18747e-09
1.08205e-09
9.81777e-10
9.72783e-10
9.7901e-10
9.42884e-10
8.91777e-10
9.69233e-10
1.13512e-09
1.03577e-09
8.64076e-10
6.8999e-10
8.53727e-10
1.76572e-09
1.92357e-09
1.19561e-09
0.00136814
0.603124
1.52096
1.98153
1.99598
1.50837e-09
1.68959e-09
1.55739e-09
1.39908e-09
1.07111e-09
1.04335e-09
1.07029e-09
9.92558e-10
8.87639e-10
1.0247e-09
1.32237e-09
1.13472e-09
2.84634e-10
2.91246e-10
2.07794e-10
2.23172e-10
2.14894e-10
1.59607e-10
4.29316e-08
9.59782e-07
0.0791489
0.313474
0.742036
0.0454715
0.0351707
0.019526
0.0045292
8.55754e-10
8.70195e-10
8.60616e-10
8.27086e-10
7.93155e-10
8.07884e-10
7.93992e-10
8.31374e-10
6.09215e-05
0.00686177
0.00494733
0.00100662
2.57802e-05
2.27753e-05
2.25223e-05
9.88482e-06
2.05982e-06
1.98132e-05
3.13706e-07
1.82357
1.7582
1.63045
1.4159
1.12378
0.842338
0.555291
0.302463
0.141051
0.0661509
0.0840265
0.22318
0.314175
0.327278
0.298385
0.21611
0.0916912
1.40945e-05
1.10903e-05
5.41851e-06
2.72346e-06
6.3207e-07
3.06974e-07
3
3
3
2.99999
2.98956
2.87323
2.67116
2.3664
2.03799
1.78639
1.68563
1.53169
1.21661
1.04763
1.00397
0.960089
0.879856
0.729841
0.531327
0.376466
0.280434
0.201226
0.242791
3
3
3
2.99996
2.99989
2.99982
2.99972
2.96985
2.92033
2.84402
2.41546
1.72027
1.33884
1.16215
1.0709
1.02868
1.01356
1.00967
0.995813
0.981828
0.979274
1.01436
1.08311
3
3
2.99997
2.99994
2.99994
2.99994
2.99994
2.97731
2.91025
2.81157
2.83046
2.91858
2.87555
2.63084
2.38177
2.17653
2.01068
1.88252
1.77647
1.75656
1.82703
1.96121
2.14901
3
3
2.99998
2.99997
2.99997
2.99722
2.99338
2.99958
3
3
3
2.99998
2.9999
2.99987
2.99994
2.99995
2.99998
3
3
3
3
3
3
3
3
3
3
2.99993
2.99583
2.99526
2.99997
2.99999
3
3
3
3
2.9999
2.99986
2.99986
2.99993
2.99999
3
3
3
3
3
3
3
3
3
2.99998
2.99966
3
2.99976
2.99995
3
3
3
3
3
2.99997
2.99995
2.99995
2.99999
3
3
3
3
3
3
3
3
3
3
3
3
3
3
3
3
3
3
3
3
3
3
3
3
3
3
3
3
3
3
3
3
3
3
3
3
3
3
3
3
3
3
3
3
3
3
3
3
3
3
2.99992
3
3
3
3
3
3
3
3
3
3
3
3
3
3
3
3
3
3
3
3
2.99998
3
2.99972
3
3
3
3
3
3
3
3
3
3
3
3
3
3
3
3
3
3
3
3
2.99995
2.99994
3
3
3
3
3
3
3
3
3
3
3
3
3
3
3
3
3
3
3
3
2.99999
2.99999
3
3
3
3
3
3
3
3
3
3
3
3
3
3
3
3
3
3
3
3
3
3
3
3
3
3
3
3
3
3
3
3
3
3
3
3
3
3
3
3
3
3
3
3
3
3
3
3
3
3
3
3
3
3
3
3
3
3
3
3
3
3
3
3
3
3
3
3
3
3
3
3
3
3
3
3
3
3
3
3
3
3
3
3
3
3
3
3
3
3
3
3
3
3
3
3
3
3
3
3
3
3
3
3
3
3
3
3
3
3
3
3
3
3
3
3
3
3
3
3
3
3
3
3
3
3
3
3
3
3
3
3
3
3
3
3
3
3
3
3
3
3
3
3
3
3
3
3
3
3
3
3
3
3
3
3
3
3
3
3
3
3
3
3
3
3
3
3
3
3
3
3
3
3
3
3
3
3
3
3
3
3
3
3
3
3
3
3
3
3
3
3
3
3
3
3
3
3
3
3
3
3
3
3
3
3
3
3
3
3
3
3
3
3
3
3
3
3
3
3
3
3
3
3
3
3
3
3
3
3
3
3
3
3
3
3
3
3
3
3
3
3
3
3
3
3
3
3
3
3
3
3
3
3
3
3
3
3
3
3
3
3
3
3
3
3
3
3
3
3
3
3
3
3
3
3
3
3
3
3
3
3
3
3
3
3
3
3
3
3
3
3
3
3
3
3
3
3
3
3
3
3
3
3
3
3
3
3
3
3
3
3
3
3
3
3
3
3
3
3
3
3
3
3
3
3
3
3
3
3
3
3
3
3
3
3
3
3
3
3
3
3
3
3
3
3
3
3
3
3
3
3
3
3
3
3
3
3
3
3
3
3
3
3
3
3
3
3
3
3
3
3
3
3
3
3
3
3
3
3
3
3
3
3
3
3
3
3
3
3
3
3
3
3
3
3
3
3
3
3
3
3
3
3
3
3
3
3
3
3
3
3
3
3
3
3
3
3
3
3
3
3
3
3
3
3
3
3
3
3
3
3
3
3
3
3
3
3
3
3
3
3
3
3
3
3
3
3
3
3
3
3
3
3
3
3
3
3
3
3
3
3
3
3
3
3
3
3
3
3
3
3
3
3
3
3
3
3
3
3
3
3
3
3
3
3
3
3
3
3
3
3
3
3
3
3
3
3
3
3
3
3
3
3
3
3
3
3
3
3
3
3
3
3
3
3
3
3
3
3
3
3
3
3
3
3
3
3
3
3
3
3
3
3
3
3
3
3
3
3
3
3
3
3
3
3
3
3
3
3
3
3
3
3
3
3
3
3
3
3
3
3
3
3
3
3
3
3
3
3
3
3
3
3
3
3
3
3
3
3
3
3
3
3
3
3
3
3
3
3
3
3
3
3
3
3
3
3
3
3
1.99993
1.99995
1.99985
2.01126
1.99481
1.99454
1.98773
1.96301
0.963078
0.989927
0.911801
0.73572
2.88983e-07
2.96039e-07
0.000189948
0.000660423
2.893e-07
2.52593e-05
0.00437731
0.0127772
0.307765
0.390592
0.513477
0.617274
1.1296
1.16618
1.2162
1.28052
2.29013
2.41282
2.55231
2.69222
3
3
3
3
3
3
3
3
3
3
3
2.99995
3
2.99979
2.99954
2.99905
2.99987
2.9991
2.99895
2.99895
2.99969
2.99988
2.99992
3
2.99997
3
3
3
3
3
3
3
3
3
3
3
3
3
3
3
3
3
3
3
3
3
3
3
3
3
3
3
3
3
3
3
3
3
3
3
3
3
3
3
3
3
3
3
3
3
3
3
3
3
3
3
3
3
3
3
3
3
3
3
3
3
3
3
3
3
3
3
3
3
3
3
3
3
3
3
3
3
3
3
3
3
3
3
3
3
3
3
3
3
3
3
3
3
3
3
3
3
3
3
3
3
3
3
3
3
3
3
3
3
3
3
2.02327
1.94872
1.75004
1.55134
1.36668
1.19093
1.12689
1.09179
1.09013
0.829765
0.399943
0.326979
0.417345
0.89457
1.00482
1.00002
1.00002
1.00008
1.18697
1.74457
1.1518
0.662288
0.492042
0.571984
0.621537
0.602789
0.572071
0.331863
0.143763
0.116274
0.0871431
0.319366
0.943799
1.00006
1.00003
1.00004
1.00004
1.04608
0.243567
0.00108705
0.0016371
0.00236348
0.00327895
0.00433683
0.00559087
0.0202923
0.0881036
0.264425
0.334232
0.421632
0.750988
1.00259
1.00006
1.00155
1.00059
1.00156
1.00203
0.00109253
0.00107808
0.0117407
0.0406583
0.0851259
0.164788
0.305703
0.583612
0.925595
1.14825
1.55285
1.65367
1.33751
1.00431
1.00006
1.00166
1.0006
1.01005
1.12663
0.0616543
0.254251
0.4733
0.717978
0.929701
1.1288
1.40815
1.55179
1.68004
1.89709
2.2469
2.63824
2.25958
1.22567
0.999987
1.0016
1.00079
1.01901
1.19382
0.858212
1.13823
1.43986
1.49923
1.6203
1.88848
2.1873
2.57394
2.90998
3
3
3
2.99996
1.66725
1.00322
1.00033
1.00212
1.01689
1.19306
1.47243
1.87696
2.25849
2.63387
2.89225
3
3
3
3
3
3
2.99993
2.99992
2.42235
1.10802
1.00032
1.00374
1.00605
1.09165
2.92309
3
3
3
3
3
3
3
3
3
2.99992
2.99986
2.99986
2.50211
1.06946
1.00043
1.00383
1.0007
1
3
3
2.99998
2.99998
2.99999
3
3
3
3
2.99999
2.99995
2.99993
2.99993
2.10244
1.00019
1.00074
1.00384
1.00124
1
2.99995
2.99966
2.99974
2.99994
3
3
3
3
3
3
2.99999
2.93922
2.09357
1.16331
1.00015
1.00068
1.00328
1.00108
1
2.99931
2.99931
2.99972
2.99998
3
3
3
3
3
3
2.73813
1.54568
1.01318
1.00003
1.00006
1.00025
1.00025
1.00012
1
2.99905
2.99962
3
3
3
3
3
3
3
2.95335
1.75846
1
1
1.00001
1.00003
1.00002
1
1
1
2.99979
3
3
3
3
3
3
3
3
2.95174
1.71746
1
1
1.00001
1.00003
1.00003
1.00001
1
1
3
3
3
3
3
3
3
3
3
3
2.67878
1.36495
1
1
1.00001
1.00002
1.00001
1
1
3
3
3
3
3
3
3
3
3
3
3
2.72189
1.42083
1
1
1
1
1
1
3
3
3
3
3
3
3
3
3
3
3
3
2.85923
1.74779
1.01894
1
1
1
1
3
3
3
3
3
3
3
3
3
3
3
3
3
2.97564
2.34259
1.35148
1.01103
1
1
3
3
3
3
3
3
3
3
3
3
3
3
3
3
3
2.7502
1.63854
1
1
3
3
3
3
3
3
3
3
3
3
3
3
3
3
3
3
2.22137
1
1
3
3
3
3
3
3
3
3
3
3
3
3
3
3
3
3
2.68499
1.96239
1
3
3
3
3
3
3
3
3
3
3
3
3
3
3
3
2.99316
2.84021
2.95536
1
3
3
3
3
3
3
3
3
3
3
3
3
3
3
3
2.9968
2.97788
2.98903
1.11048
3
3
3
3
3
3
3
3
3
3
3
3
3
3
3
2.99841
2.99986
3
1.33273
3
3
3
3
3
3
3
3
3
3
3
3
3
3
3
2.99974
2.9999
3
1.45504
3
3
3
3
3
3
3
3
3
3
3
3
3
3
3
3
2.99997
3
1.45997
3
3
3
3
3
3
3
3
3
3
3
3
3
3
3
3
3
3
1.44672
3
3
3
3
3
3
3
3
3
3
3
3
3
3
3
3
3
2.99865
1.57376
3
3
3
3
3
3
3
3
3
3
3
3
3
3
3
3
3
3
2.43465
3
3
3
3
3
3
3
3
3
3
3
3
3
3
3
3
3
3
2.39128
3
3
3
3
3
3
3
3
3
3
3
3
3
3
3
3
3
3
1.68673
3
3
3
3
3
3
3
3
3
3
3
3
3
3
3
3
3
2.99501
1.41544
3
3
3
3
3
3
3
3
3
3
3
3
3
3
3
3
3
2.91646
1.41544
3
3
3
3
3
3
3
3
3
3
3
3
3
3
3
3
3
2.80369
1.6007
3
3
3
3
3
3
3
3
3
3
3
3
3
3
3
3
2.99776
2.87475
2.7968
3
3
3
3
3
3
3
3
3
3
3
3
3
3
3
3
2.99859
2.99659
2.99675
3
3
3
3
3
3
3
3
3
3
3
3
3
3
3
3
2.99993
3
2.89308
3
3
3
3
3
3
3
3
3
3
3
3
3
3
3
3
3
3
2.13727
3
3
3
3
3
3
3
3
3
3
3
3
3
3
3
3
3
3
1.41717
3
3
3
3
3
3
3
3
3
3
3
3
3
3
3
3
3
3
1.31973
3
3
3
3
3
3
3
3
3
3
3
3
3
3
3
3
3
2.94578
1.31806
3
3
3
3
3
3
3
3
3
3
3
3
3
3
3
3
3
3
1.51508
3
3
3
3
3
3
3
3
3
3
3
3
3
3
3
3
3
3
2.64699
)
;

boundaryField
{
    leftWall
    {
        type            calculated;
        value           nonuniform List<scalar> 
50
(
2
2
2
2
1.62311
0.159134
3.32742e-10
4.73206e-10
6.78303e-10
1.1451e-09
1.50837e-09
0.0454715
1.82357
3
3
3
3
3
3
3
3
3
3
3
3
3
3
3
3
3
3
3
3
3
3
3
3
3
3
3
3
3
3
3
3
3
3
3
3
3
)
;
    }
    rightWall
    {
        type            calculated;
        value           nonuniform List<scalar> 
50
(
1.15001
1.22077
1.19063
1.11411
1.08974
1.08641
1.16601
1.20524
1.18697
1.04608
1.00203
1.12663
1.19382
1.19306
1.09165
1
1
1
1
1
1
1
1
1
1
1
1
1
1
1.11048
1.33273
1.45504
1.45997
1.44672
1.57376
2.43465
2.39128
1.68673
1.41544
1.41544
1.6007
2.7968
2.99675
2.89308
2.13727
1.41717
1.31973
1.31806
1.51508
2.64699
)
;
    }
    lowerWall
    {
        type            calculated;
        value           nonuniform List<scalar> 
62
(
2
2
2
2
2
2
2
2
2
2
2
2
2
2
2
2
2
2
2
2
2
2
1.99992
1.99992
1.99992
1.99997
2
2
2
1.99955
1.99938
1.99993
1.99995
1.99985
2.01126
1.00013
1.00013
1.00013
1.00011
1.00001
1.00001
1.1461
1.87935
1.00013
1.00008
1
1
1
1
1.07145
1.91554
2.64584
2.81067
2.83764
2.85762
2.85956
2.82974
2.82606
2.85385
2.71081
1.50553
1.15001
)
;
    }
    atmosphere
    {
        type            calculated;
        value           nonuniform List<scalar> 
46
(
3
3
3
3
3
3
3
3
3
3
3
3
3
3
3
3
3
3
3
3
3
3
3
3
3
3
3
3
3
3
3
3
3
3
3
3
3
3
3
3
3
3
3
3
3
2.64699
)
;
    }
    defaultFaces
    {
        type            empty;
    }
}


// ************************************************************************* //
