/*--------------------------------*- C++ -*----------------------------------*\
| =========                 |                                                 |
| \\      /  F ield         | OpenFOAM: The Open Source CFD Toolbox           |
|  \\    /   O peration     | Version:  2312                                  |
|   \\  /    A nd           | Website:  www.openfoam.com                      |
|    \\/     M anipulation  |                                                 |
\*---------------------------------------------------------------------------*/
FoamFile
{
    version     2.0;
    format      ascii;
    arch        "LSB;label=32;scalar=64";
    class       volScalarField;
    location    "0.5";
    object      alpha.galistan;
}
// * * * * * * * * * * * * * * * * * * * * * * * * * * * * * * * * * * * * * //

dimensions      [0 0 0 0 0 0 0];

internalField   nonuniform List<scalar> 
2268
(
1
1
1
1
1
1
1
1
1
1
1
1
1
1
1
1
1
1
1
1
1
1
0.999921
1
1
1
1
1
1
1
1
1
1
1
1
1
1
1
1
1
1
1
1
1
1
0.999921
1
1
1
1
1
1
1
1
1
1
1
1
1
1
1
1
1
1
1
1
1
1
0.999969
1
1
1
1
1
1
1
1
1
1
1
1
1
1
1
1
1
1
1
1
1
1
1
0.811557
0.819979
0.817966
0.813446
0.806974
0.798404
0.787901
0.77626
0.765013
0.75657
0.755292
0.767765
0.799977
0.860181
0.962704
1
1
1
1
1
1
1
1
0.0795672
0.0861075
0.0843864
0.081026
0.0763522
0.0703557
0.0633525
0.0560244
0.0493473
0.0445791
0.0437254
0.0503461
0.0693152
0.112602
0.219514
0.522917
0.932089
1
1
1
1
1
1
-1.50289e-21
-6.26591e-22
-6.8976e-19
-2.85846e-19
-8.16638e-20
-1.95488e-20
-1.09077e-20
-2.20246e-18
-1.76277e-36
1.14363e-35
2.05188e-34
1.29158e-33
1.66337e-32
1.44053e-27
1.18677e-10
0.0096169
0.282941
0.889609
1
1
1
1
0.99955
-2.74638e-21
-1.15496e-21
-6.21379e-19
-2.73282e-19
-7.84459e-20
-1.82708e-20
-1.13753e-20
-7.66238e-21
5.85467e-18
6.45052e-17
2.18138e-16
4.1252e-16
1.0243e-13
5.26351e-13
2.34973e-12
2.20844e-12
2.98172e-10
0.344754
0.986068
1
1
1
0.999379
4.65861e-10
6.7528e-10
8.07089e-10
7.80947e-10
5.64584e-10
1.34394e-10
0.00273666
0.0360308
0.0434163
0.0426771
0.0328422
0.0248073
0.0250805
0.0530382
0.103277
0.131754
0.19585
0.14712
0.0605615
4.65059e-10
1.33671e-09
4.10645e-09
7.53748e-09
4.71655e-09
1.35133e-10
0.00576276
0.0197006
0.0185165
0.00525869
0.000648693
0.000208388
0.000137464
0.000319357
0.0885791
0.259177
0.259246
0.240892
0.0697123
4.59432e-10
7.15878e-10
9.69505e-10
2.43701e-09
9.74987e-10
1.26784e-10
0.00256224
0.0114184
0.0118476
0.00660661
0.000847976
4.06075e-05
4.06065e-05
4.06075e-05
0.0338071
0.254027
0.260608
0.260655
0.0956077
4.90545e-10
5.83799e-10
5.39341e-10
4.28358e-10
1.77217e-10
1.22053e-10
0.000681599
0.0037976
0.00282
0.00122264
0.000853811
0.00457793
0.0108001
0.000618963
0.0753708
0.231541
0.260655
0.261308
0.0892428
4.83755e-10
3.41584e-10
2.19739e-10
1.646e-10
1.66967e-10
2.42125e-10
0.000456692
0.000148063
1.17104e-06
1.44123e-06
0.0052902
0.01192
0.0641572
0.107365
0.176048
0.225211
0.261308
0.261396
0.0845826
9.74075e-11
9.83336e-11
9.74075e-11
9.83343e-11
3.50593e-10
2.34e-05
5.60132e-06
1.12874e-06
1.08008e-06
0.00134012
0.0204681
0.13285
0.344121
0.344178
0.233892
0.0269443
0.106932
0.262084
0.0854095
0.0838079
0.152723
0.133094
0.0730719
0.0117086
3.44788e-06
2.55492e-06
2.47856e-05
4.94817e-06
0.00935995
0.240213
0.344183
0.344178
0.344183
0.261825
0.0152682
4.4901e-05
0.19399
0.165234
0.749379
0.777641
0.696538
0.539356
0.299393
0.100461
0.0917458
0.103495
0.0995105
0.183427
0.343012
0.344178
0.343586
0.304969
0.0891383
0.000180916
6.602e-06
0.0206455
0.145297
-3.15569e-21
-1.31492e-21
-5.54157e-22
-2.36742e-22
-1.21534e-22
-6.30023e-23
-9.0537e-23
-9.08511e-23
1.7613e-17
1.6787e-16
5.75301e-16
1.15667e-15
2.166e-13
1.88595e-12
4.22428e-12
1.49005e-11
1.12687e-11
0.00279262
0.462884
0.96344
0.999996
1
0.999779
-2.55665e-21
-1.05487e-21
-4.41753e-22
-1.85294e-22
-7.81861e-23
-3.32219e-23
-1.41261e-23
-5.96887e-24
3.39553e-17
2.63366e-16
8.24528e-16
1.89765e-15
5.04003e-15
1.21319e-14
1.20508e-13
3.10877e-12
3.1701e-11
1.50699e-12
0.000684067
0.30156
0.760478
0.990595
0.997562
-7.4977e-22
-3.14681e-22
-1.34396e-22
-5.77486e-23
-2.47427e-23
-1.04937e-23
-4.37821e-24
-1.79785e-24
1.52668e-17
1.3818e-16
3.69811e-16
6.91496e-16
2.17626e-15
6.23186e-15
1.25526e-14
6.898e-14
8.69841e-12
1.56437e-12
2.14041e-08
3.28904e-10
0.0395744
0.156691
0.370255
9.76206e-63
-8.49949e-28
-9.54927e-28
-8.54038e-28
-7.1268e-28
-5.74827e-28
-4.48239e-28
-9.26226e-28
5.68772e-19
5.11367e-18
1.59981e-17
2.74028e-17
5.46873e-17
1.13137e-16
2.44575e-16
3.48458e-15
1.06756e-12
2.12376e-14
1.35679e-09
3.50515e-10
6.88306e-07
3.51941e-14
2.34424e-14
5.06501e-44
2.16058e-42
6.72728e-41
4.02289e-40
2.02964e-38
2.8648e-36
6.95166e-35
3.74217e-33
5.99424e-34
6.62587e-34
6.82916e-34
1.22663e-28
4.78342e-26
4.89382e-24
3.65727e-22
7.58548e-17
6.52078e-14
2.0967e-14
6.95657e-11
1.84411e-12
3.88799e-08
4.40982e-08
3.68974e-08
1.08936e-42
4.69508e-41
1.56106e-39
3.9267e-38
7.53263e-35
1.54662e-32
3.51121e-31
1.10272e-29
2.76598e-28
5.54274e-27
1.43695e-25
3.58055e-24
3.94801e-23
9.16269e-22
4.41521e-20
7.82773e-19
1.51945e-16
2.33416e-15
1.05383e-11
1.90973e-12
2.77314e-10
5.22641e-10
4.6801e-08
2.08542e-41
3.16482e-40
1.41707e-39
1.26349e-36
4.03937e-33
8.96629e-31
2.37106e-29
5.35009e-28
8.65046e-27
1.72821e-25
2.95043e-24
5.14252e-23
7.05198e-22
1.30502e-20
3.49651e-19
9.48877e-18
2.142e-15
1.55258e-13
1.95449e-12
4.61397e-11
5.66028e-10
5.06081e-11
1.15798e-15
8.07182e-40
2.06187e-38
2.86282e-36
1.8249e-33
4.27941e-31
1.13635e-29
5.73979e-29
4.46609e-27
2.04089e-25
5.67779e-24
5.55022e-23
1.03528e-21
1.95957e-20
7.83511e-19
8.46045e-18
9.41518e-17
1.32289e-14
9.05818e-13
9.91499e-12
2.551e-11
1.3549e-12
1.76489e-14
1.80324e-14
5.17956e-41
2.37511e-39
4.56048e-37
5.19661e-34
7.67071e-31
6.63384e-29
5.37542e-28
5.66996e-27
6.9412e-25
9.15158e-24
1.58033e-22
3.04649e-21
5.62051e-20
4.35464e-18
2.66544e-17
1.55198e-16
2.67437e-16
3.00872e-16
1.83482e-16
5.31206e-15
1.17481e-13
1.14846e-13
5.58212e-14
1.12165e-42
1.73325e-41
5.66202e-39
6.95495e-36
5.17062e-32
6.24235e-31
5.2886e-33
3.84144e-37
8.7453e-38
1.76109e-37
7.17442e-36
1.98757e-34
1.98967e-36
1.54881e-35
1.45054e-37
1.56172e-35
3.52085e-46
1.55804e-35
4.56221e-42
1.72598e-18
6.99174e-17
3.92237e-16
1.57199e-15
3.6468e-44
2.94907e-43
6.39167e-41
5.77371e-38
2.00511e-34
2.48438e-35
5.84393e-37
1.29694e-39
3.67203e-40
3.25079e-38
5.01014e-36
3.45677e-34
2.29675e-33
3.19468e-32
1.5749e-30
1.0444e-29
5.46194e-29
2.13061e-28
4.35024e-28
4.2768e-28
3.16451e-28
3.15425e-28
5.47938e-22
1.33216e-45
2.6161e-44
1.64898e-42
1.49672e-40
1.78965e-38
4.38969e-39
4.48631e-40
6.33587e-41
1.68442e-40
7.18703e-38
1.29579e-35
8.22062e-34
1.77369e-32
2.30399e-31
6.11068e-30
4.91963e-29
2.53764e-28
8.15732e-28
2.17391e-27
8.27273e-27
3.99609e-26
2.38058e-25
3.45652e-25
4.88868e-47
1.83674e-45
5.37903e-44
7.38578e-42
2.04145e-40
1.49521e-41
1.16424e-41
5.85961e-41
6.44308e-39
3.8343e-37
5.94501e-35
2.39673e-33
8.10121e-32
1.72757e-30
3.87716e-29
3.2798e-28
1.80221e-27
4.43694e-27
1.47453e-26
5.11668e-26
1.8833e-25
8.93237e-25
2.23335e-24
1.19746e-47
4.83167e-46
7.292e-45
1.91862e-43
1.4116e-42
4.15336e-42
9.36909e-41
4.06089e-39
2.23971e-37
9.2055e-36
3.79905e-34
1.60387e-32
5.73647e-31
8.8322e-30
1.09364e-28
6.95461e-28
3.92626e-27
1.85582e-26
7.10261e-26
2.69789e-25
8.62908e-25
2.31078e-24
6.26224e-24
1.41388e-47
8.48995e-46
2.20107e-44
4.04216e-43
6.21519e-42
8.78868e-41
1.52165e-39
6.03285e-38
2.85519e-36
8.12615e-35
1.96455e-33
6.98697e-32
1.86464e-30
2.44108e-29
1.93396e-28
1.50367e-27
7.76428e-27
4.60154e-26
1.67722e-25
6.56178e-25
1.86552e-24
3.99811e-24
9.93023e-24
1.3718e-47
1.03573e-45
4.14843e-44
1.07894e-42
2.76003e-41
4.49692e-40
7.51881e-39
3.19894e-37
1.40005e-35
3.18717e-34
6.35653e-33
1.95883e-31
3.93541e-30
5.24662e-29
4.86924e-28
3.12471e-27
1.51312e-26
6.56121e-26
2.60241e-25
9.67648e-25
2.51201e-24
5.63643e-24
1.17713e-23
1.16569e-47
1.05526e-45
5.25964e-44
1.75676e-42
5.76769e-41
1.52621e-39
2.41693e-38
8.75408e-37
2.91529e-35
7.14485e-34
1.35302e-32
3.23621e-31
5.9661e-30
7.7858e-29
7.12785e-28
4.79094e-27
1.87282e-26
7.94774e-26
2.93043e-25
1.04785e-24
2.75029e-24
5.34989e-24
8.65168e-24
9.28459e-48
9.79337e-46
5.49447e-44
2.19731e-42
7.77412e-41
2.25215e-39
4.73885e-38
1.52938e-36
3.97872e-35
8.89207e-34
1.82935e-32
3.97991e-31
6.90934e-30
8.9312e-29
8.07587e-28
5.17758e-27
2.12825e-26
6.7613e-26
2.0643e-25
6.647e-25
1.76356e-24
3.10996e-24
4.92534e-24
6.81689e-48
8.13094e-46
5.14838e-44
2.30586e-42
8.2642e-41
2.45808e-39
6.56915e-38
1.70789e-36
4.25901e-35
9.20933e-34
1.91065e-32
4.05351e-31
6.94371e-30
8.73043e-29
7.93378e-28
4.38723e-27
1.65183e-26
3.94348e-26
8.33989e-26
3.28042e-25
8.04925e-25
1.50467e-24
1.9773e-24
4.4829e-48
5.91034e-46
4.163e-44
2.01369e-42
7.53034e-41
2.27848e-39
6.14089e-38
1.58881e-36
3.86735e-35
8.20802e-34
1.69537e-32
3.43659e-31
5.75161e-30
6.80897e-29
4.58654e-28
2.20472e-27
8.04068e-27
2.1843e-26
5.23307e-26
1.76712e-25
3.70108e-25
5.74919e-25
7.85504e-25
2.59964e-48
3.68658e-46
2.79208e-44
1.42562e-42
5.51179e-41
1.67801e-39
4.57313e-38
1.16486e-36
2.73962e-35
5.67704e-34
1.17586e-32
2.16301e-31
3.25607e-30
2.90636e-29
1.7444e-28
7.82919e-28
2.91407e-27
7.47815e-27
1.9574e-26
5.83688e-26
1.11158e-25
1.96717e-25
2.56418e-25
1.29522e-48
1.92649e-46
1.52294e-44
7.98901e-43
3.1131e-41
9.4872e-40
2.6101e-38
6.5215e-37
1.48115e-35
3.06469e-34
5.87334e-33
9.61326e-32
1.09584e-30
8.45107e-30
4.81801e-29
2.28407e-28
8.88877e-28
2.50623e-27
4.94019e-27
1.32908e-26
3.09883e-26
5.44181e-26
7.63971e-26
5.70613e-49
8.84241e-47
7.14994e-45
3.79955e-43
1.48222e-41
4.57306e-40
1.26613e-38
3.21125e-37
7.08561e-36
1.37288e-34
2.38558e-33
2.86392e-32
2.52983e-31
1.55864e-30
7.48631e-30
2.93033e-29
9.62652e-29
2.63704e-28
6.58755e-28
3.02983e-27
7.40636e-27
1.49243e-26
2.09062e-26
2.30808e-49
3.59109e-47
2.95924e-45
1.6066e-43
6.40347e-42
2.02814e-40
5.60914e-39
1.39985e-37
2.89457e-36
5.15276e-35
7.18786e-34
6.84869e-33
5.09801e-32
2.86421e-31
1.29801e-30
5.02266e-30
1.70112e-29
4.77843e-29
1.06552e-28
4.06642e-28
1.44685e-27
3.04234e-27
5.00968e-27
4.53062e-50
7.00246e-48
5.75864e-46
3.21609e-44
1.32432e-42
4.41399e-41
1.24632e-39
2.99518e-38
6.05918e-37
1.00034e-35
1.18013e-34
1.04562e-33
7.56953e-33
4.06973e-32
1.78162e-31
6.8376e-31
2.21372e-30
6.34937e-30
1.54948e-29
3.51617e-29
1.87038e-28
5.92679e-28
1.02267e-27
2.76258e-51
4.57048e-49
3.89382e-47
2.39533e-45
1.05141e-43
3.67594e-42
1.05634e-40
2.56259e-39
5.13271e-38
8.0197e-37
9.59773e-36
8.65032e-35
6.51399e-34
3.8721e-33
1.8532e-32
8.40257e-32
3.10201e-31
9.86296e-31
2.77085e-30
6.86544e-30
1.59834e-29
7.93054e-29
2.04262e-28
1.0491e-52
1.79249e-50
1.64124e-48
1.02173e-46
4.64748e-45
1.68798e-43
5.08962e-42
1.24423e-40
2.436e-39
3.83886e-38
4.77737e-37
4.64608e-36
3.74691e-35
2.48417e-34
1.34984e-33
6.747e-33
2.80078e-32
1.01135e-31
3.19247e-31
8.81439e-31
1.97664e-30
8.49773e-30
3.02335e-29
2.673e-54
4.81301e-52
4.44366e-50
2.83975e-48
1.33714e-46
4.99372e-45
1.49167e-43
3.6119e-42
7.02078e-41
1.10379e-39
1.41511e-38
1.48509e-37
1.26667e-36
9.45688e-36
6.2451e-35
3.70962e-34
1.79799e-33
7.60385e-33
2.83458e-32
8.97598e-32
2.65465e-31
6.49673e-31
3.90214e-30
4.22673e-56
8.45915e-54
8.92394e-52
6.33437e-50
3.27078e-48
1.31951e-46
4.23879e-45
1.09259e-43
2.26687e-42
3.80318e-41
5.19673e-40
5.81403e-39
5.37003e-38
4.14816e-37
2.73358e-36
1.58534e-35
8.40307e-35
4.11755e-34
1.72965e-33
6.99486e-33
2.33306e-32
6.77817e-32
4.50698e-31
4.71004e-58
1.07905e-55
1.25997e-53
9.78587e-52
5.4898e-50
2.37928e-48
8.15746e-47
2.24452e-45
5.00592e-44
9.12777e-43
1.37134e-41
1.70826e-40
1.77973e-39
1.56828e-38
1.18197e-37
7.68673e-37
4.36075e-36
2.15406e-35
9.75954e-35
3.99485e-34
1.73885e-33
6.04841e-33
2.32399e-32
3.23762e-60
8.80017e-58
1.12826e-55
9.36696e-54
5.69029e-52
2.68496e-50
9.93854e-49
2.97462e-47
7.31132e-46
1.48721e-44
2.51126e-43
3.54828e-42
4.2223e-41
4.25585e-40
3.64762e-39
2.66397e-38
1.66211e-37
8.91874e-37
4.15834e-36
1.69417e-35
6.59208e-35
2.87886e-34
1.92435e-33
1.19566e-62
3.56461e-60
5.07208e-58
4.71995e-56
3.19084e-54
1.64129e-52
6.71141e-51
2.22337e-49
6.0095e-48
1.33052e-46
2.43912e-45
3.72643e-44
4.77332e-43
5.15022e-42
4.69271e-41
3.61284e-40
2.351e-39
1.30193e-38
6.29935e-38
2.85378e-37
1.5476e-36
1.75445e-35
4.34909e-34
3.97259e-65
1.3851e-62
2.13011e-60
2.09137e-58
1.49205e-56
8.20908e-55
3.581e-53
1.26229e-51
3.63796e-50
8.65928e-49
1.70963e-47
2.8015e-46
3.81618e-45
4.33967e-44
4.12501e-43
3.29188e-42
2.24225e-41
1.37648e-40
1.13792e-39
3.6439e-38
2.31212e-36
1.39332e-34
6.57548e-33
3.12256e-67
1.15787e-64
1.75721e-62
1.68056e-60
1.17338e-58
6.39075e-57
2.81959e-55
1.02938e-53
3.15573e-52
8.20844e-51
1.8248e-49
3.48872e-48
5.77368e-47
8.32885e-46
1.05535e-44
1.19256e-43
1.29913e-42
2.04597e-41
7.43875e-40
3.57799e-38
1.54045e-36
5.55161e-35
1.67698e-33
2.21766e-69
1.43333e-66
2.97365e-64
3.64209e-62
3.14732e-60
2.07461e-58
1.09121e-56
4.7217e-55
1.72052e-53
5.37892e-52
1.4634e-50
3.49798e-49
7.39047e-48
1.38676e-46
2.31679e-45
3.42108e-44
4.4256e-43
5.44754e-42
9.36782e-41
2.97274e-39
1.22169e-37
4.99651e-36
1.69549e-34
4.1669e-72
5.15341e-69
1.39351e-66
2.12401e-64
2.24866e-62
1.80737e-60
1.15774e-58
6.08574e-57
2.67538e-55
9.96571e-54
3.17665e-52
8.74111e-51
2.09544e-49
4.41722e-48
8.23385e-47
1.35558e-45
1.98479e-44
2.7964e-43
5.17503e-42
1.76839e-40
8.08363e-39
3.57838e-37
1.42511e-35
1.65779e-75
6.05309e-72
2.19144e-69
4.10414e-67
5.17167e-65
4.86303e-63
3.62289e-61
2.22513e-59
1.15058e-57
5.03547e-56
1.88343e-54
6.15378e-53
1.77938e-51
4.61054e-50
1.07921e-48
2.28136e-47
4.36143e-46
8.01066e-45
1.80919e-43
6.78299e-42
3.66186e-40
2.15234e-38
1.13776e-36
2.12588e-79
4.1467e-75
2.17113e-72
5.22864e-70
8.25598e-68
9.65227e-66
8.892e-64
6.6975e-62
4.22558e-60
2.27111e-58
1.05256e-56
4.24553e-55
1.50239e-53
4.70432e-52
1.3156e-50
3.31619e-49
7.66371e-48
1.7626e-46
5.38765e-45
2.86967e-43
1.99187e-41
1.3291e-39
7.88237e-38
3.54464e-84
7.68964e-79
6.53019e-76
2.11461e-73
4.31959e-71
6.4342e-69
7.49268e-67
7.10148e-65
5.62519e-63
3.79687e-61
2.21749e-59
1.13426e-57
5.12328e-56
2.05004e-54
7.259e-53
2.27388e-51
6.3955e-50
1.7521e-48
6.27353e-47
4.03178e-45
3.4744e-43
2.93988e-41
2.32136e-39
5.58497e-90
3.24324e-83
5.8327e-80
2.81015e-77
8.11352e-75
1.67546e-72
2.67447e-70
3.44131e-68
3.66385e-66
3.28877e-64
2.52781e-62
1.6868e-60
9.88881e-59
5.13996e-57
2.38536e-55
9.96515e-54
3.80706e-52
1.39042e-50
5.67927e-49
3.56874e-47
3.44491e-45
3.53846e-43
3.3794e-41
7.62052e-98
3.59549e-89
2.75317e-85
2.1438e-82
9.34522e-80
2.87915e-77
6.8858e-75
1.34383e-72
2.20438e-70
3.09446e-68
3.75591e-66
3.96313e-64
3.64611e-62
2.93057e-60
2.06023e-58
1.26721e-56
6.83655e-55
3.29149e-53
1.54148e-51
9.65396e-50
1.14054e-47
1.88098e-45
2.95119e-43
2.63229e-111
4.52115e-98
4.34544e-93
7.58933e-90
6.87556e-87
4.3056e-84
2.06855e-81
8.01069e-79
2.57195e-76
6.97123e-74
1.61588e-71
3.23542e-69
5.64189e-67
8.61823e-65
1.1566e-62
1.36513e-60
1.4196e-58
1.30775e-56
1.08674e-54
8.89094e-53
9.77809e-51
1.8928e-48
4.52958e-46
0.999929
0.999962
0.999903
0.979184
0.997087
0.997129
0.993517
0.980475
0.480545
0.493936
0.454874
0.367399
4.20576e-11
2.43205e-17
1.57396e-17
9.95952e-18
2.28189e-08
2.41001e-08
2.27968e-08
7.86787e-09
8.42759e-08
8.43302e-08
7.40926e-08
1.57444e-08
1.15804e-15
1.15768e-15
1.15804e-15
3.65857e-10
1.15797e-15
1.78391e-10
9.8284e-10
1.2407e-09
3.02838e-14
3.09424e-15
2.29746e-15
2.69768e-15
3.88955e-15
5.02631e-15
5.46756e-15
5.34253e-15
1.80834e-21
4.5384e-21
1.28738e-20
1.88625e-20
6.77906e-25
9.31365e-25
1.33327e-24
4.73092e-24
4.92903e-24
6.53029e-24
8.84675e-24
4.09396e-23
1.03888e-23
1.78645e-23
2.66637e-23
2.58947e-23
1.8892e-23
5.90353e-23
5.58794e-22
2.56843e-23
1.88396e-23
3.14528e-22
1.87534e-20
2.00022e-18
1.0674e-23
1.12665e-22
8.52017e-21
3.09299e-19
5.24849e-24
4.24551e-24
1.6995e-24
3.04354e-25
2.13891e-24
1.64094e-24
7.66104e-25
7.08904e-25
7.55526e-25
5.46401e-25
8.26997e-24
1.72512e-21
2.53756e-25
1.86887e-25
1.13823e-24
1.70192e-22
6.89318e-26
4.3198e-26
1.78468e-25
1.78699e-23
1.98623e-26
1.4703e-26
1.62058e-25
6.36689e-24
4.66183e-27
4.16624e-27
2.02912e-25
3.69852e-24
1.14677e-27
1.2937e-27
6.39239e-26
1.59328e-24
2.50951e-28
7.0568e-28
4.43885e-26
7.26545e-25
6.36439e-29
2.88869e-27
6.67077e-26
3.41972e-25
1.18564e-29
1.41379e-27
4.00734e-26
2.10343e-25
7.68978e-30
1.0363e-27
1.52236e-26
7.04669e-26
5.05753e-31
1.72594e-28
2.31791e-27
1.35074e-26
1.67498e-31
4.53075e-29
5.03978e-28
2.85495e-27
3.43713e-32
7.16671e-30
8.06103e-29
5.90821e-28
2.31878e-31
2.79574e-30
2.50003e-29
1.99834e-28
4.31786e-32
4.91681e-31
5.02898e-30
4.61002e-29
5.08435e-33
6.7365e-32
7.87738e-31
8.60908e-30
5.06777e-34
8.08263e-33
1.19262e-31
1.62525e-30
4.95017e-35
9.59649e-34
1.68919e-32
2.7203e-31
4.12808e-36
9.46989e-35
1.96384e-33
3.68465e-32
1.66692e-37
5.20077e-36
1.38257e-34
3.31452e-33
3.26818e-39
1.21488e-37
4.11637e-36
1.26451e-34
3.62594e-41
1.91504e-39
1.05333e-37
4.30275e-36
9.38609e-44
8.21515e-42
6.22145e-40
4.01997e-38
0.935155
0.926528
0.847493
0.709145
0.551752
0.367331
0.345517
0.344502
0.343486
0.299553
0.15852
0.136267
0.158709
0.0854556
0.0047325
6.96246e-06
6.4153e-06
7.92721e-05
0.0998041
0.871681
0.575752
0.331006
0.244265
0.260315
0.289583
0.29452
0.285843
0.164667
0.0600775
0.0244823
0.000280175
2.00094e-19
1.86039e-19
3.31927e-06
1.39064e-05
6.92654e-06
3.70471e-05
0.00109059
0.121214
4.29066e-12
6.33138e-20
5.89779e-22
-9.31984e-19
-9.5135e-25
8.88528e-16
9.07074e-25
-6.5656e-25
-3.51024e-25
-3.30872e-28
-4.02584e-24
2.68634e-09
4.04082e-07
4.31271e-07
3.02852e-05
3.04374e-05
2.55805e-05
2.55865e-05
1.09863e-17
3.08928e-09
1.54601e-09
1.80056e-10
4.61612e-22
3.8162e-07
1.33014e-06
1.49103e-06
1.11134e-06
2.23703e-07
8.89492e-09
3.17868e-06
1.2033e-05
3.09739e-06
4.57937e-07
2.86678e-05
2.11353e-05
3.01917e-05
0.000266403
6.76961e-09
4.98947e-08
4.71551e-08
1.3827e-08
1.18462e-11
5.8435e-07
3.3037e-06
3.43499e-06
3.34209e-06
5.55014e-07
5.97092e-09
9.22544e-07
2.14881e-05
1.92712e-05
2.29939e-06
1.51087e-05
1.9313e-06
3.64313e-05
0.000350258
1.42482e-08
7.42297e-08
7.68731e-08
3.96802e-08
6.6269e-08
1.24649e-10
3.46201e-07
2.61281e-06
2.43459e-06
5.09055e-07
1.57526e-07
1.36765e-07
2.12118e-05
2.17753e-05
1.77741e-06
3.45537e-07
3.05751e-07
2.50898e-05
0.000339563
1.25664e-10
3.59324e-08
7.5077e-08
5.59162e-08
8.65658e-09
1.40719e-10
3.75213e-11
1.50471e-10
1.83539e-09
3.48248e-08
8.24217e-08
9.43645e-07
2.21058e-05
7.99883e-06
5.41523e-07
8.16831e-06
3.40616e-06
4.72316e-06
6.64378e-05
1.65601e-10
6.95828e-14
7.92298e-09
5.60975e-09
4.84868e-09
1.9019e-09
2.24832e-10
5.41987e-11
2.88212e-11
2.85429e-11
2.85422e-11
1.9986e-06
7.28128e-06
5.4157e-07
5.67889e-07
0.000125791
7.44464e-05
3.87425e-07
2.19844e-11
1.77069e-17
1.40973e-17
1.12105e-17
2.25221e-10
3.51148e-10
2.24314e-10
4.74768e-11
3.75417e-11
2.85427e-11
2.85424e-11
4.8025e-08
2.04511e-07
3.79242e-08
9.59916e-06
9.53831e-05
0.00015537
0.000127562
5.65688e-06
2.19844e-11
2.90122e-15
3.30719e-16
1.2527e-17
1.03926e-17
1.03852e-17
5.02003e-13
3.39557e-11
9.2665e-11
1.08714e-10
2.45853e-10
4.18513e-09
1.5577e-08
1.44469e-08
5.7496e-05
0.000140565
0.000155362
0.00015537
3.99954e-06
2.1979e-11
1.99183e-19
1.747e-18
1.11182e-17
1.03561e-14
4.80919e-13
1.80972e-11
7.00157e-11
1.4962e-10
1.51393e-10
1.2437e-10
1.10871e-10
1.10763e-10
2.40087e-06
2.28726e-05
5.40585e-05
0.000132641
6.64723e-05
1.90385e-06
2.11476e-11
3.74843e-22
1.7595e-18
3.84255e-16
8.82763e-14
2.59325e-12
2.58363e-11
8.73681e-11
1.72834e-10
1.77079e-10
1.10176e-10
4.46995e-09
3.13772e-07
7.1268e-07
9.75872e-08
2.62482e-06
7.50547e-06
3.99079e-07
5.74804e-07
2.11289e-11
3.34472e-20
7.38727e-17
7.37711e-15
9.46539e-14
3.74839e-12
1.93773e-11
7.41611e-11
1.74707e-10
1.86107e-10
1.10186e-10
5.35887e-08
1.58325e-07
1.21095e-07
1.01003e-07
7.23159e-07
2.39939e-07
2.9412e-09
2.58465e-08
2.1108e-11
7.81704e-19
4.03955e-16
2.03542e-14
2.03628e-13
1.60593e-12
1.03619e-11
4.9429e-11
1.51691e-10
2.83846e-10
9.80774e-10
1.02382e-08
2.41806e-08
1.96919e-08
1.91703e-08
8.01538e-09
3.65846e-08
2.26524e-09
9.01573e-09
2.1086e-11
4.90004e-18
7.83165e-17
6.51728e-15
6.29536e-14
5.59093e-13
3.96192e-12
2.29073e-11
9.90307e-11
2.84238e-10
7.88315e-10
1.28435e-09
1.29296e-09
1.81104e-09
7.81619e-09
8.00956e-09
2.40335e-10
1.15259e-09
3.81752e-10
2.10623e-11
1.897e-17
2.60617e-16
2.70662e-15
2.45942e-14
1.91481e-13
1.30983e-12
7.8466e-12
4.09806e-11
1.79474e-10
5.41794e-10
1.29524e-09
2.00113e-09
1.37169e-09
1.39936e-09
1.71994e-09
2.42939e-10
3.55936e-10
3.12418e-11
2.05727e-11
2.61235e-18
4.4111e-17
4.60149e-16
4.3453e-15
3.61446e-14
2.74257e-13
1.89749e-12
1.20609e-11
5.8127e-11
2.62297e-10
9.36883e-10
2.92943e-09
1.37613e-08
1.4806e-08
8.10266e-11
8.31336e-11
6.10995e-11
1.48306e-11
1.68612e-11
7.46808e-20
1.07183e-18
1.27824e-17
1.38886e-16
1.42159e-15
1.40472e-14
1.3655e-13
1.0015e-12
8.41685e-12
5.55454e-11
3.80631e-10
1.96171e-09
1.38245e-08
7.21061e-08
2.36519e-09
4.84171e-13
1.55009e-11
9.94946e-12
1.2366e-11
5.18955e-20
7.567e-19
8.83196e-18
8.54462e-17
6.78458e-16
4.41034e-15
2.28054e-14
1.13272e-13
5.67292e-13
3.61745e-12
4.57365e-11
8.02587e-10
4.16886e-09
6.90368e-08
3.17794e-07
4.84215e-13
4.84171e-13
1.54421e-12
9.60181e-12
2.18089e-20
3.76247e-19
4.88106e-18
5.38129e-17
5.02359e-16
3.90597e-15
2.41706e-14
1.4882e-13
9.1697e-13
4.10576e-12
1.47417e-11
1.96188e-10
-1.04453e-26
1.56964e-07
4.16367e-07
2.21677e-08
4.84215e-13
1.17676e-12
6.92699e-12
1.92844e-21
3.31616e-20
4.28153e-19
5.03072e-18
5.15242e-17
4.55891e-16
3.55458e-15
2.43948e-14
3.01163e-13
3.32753e-12
1.47307e-11
7.41704e-11
3.16588e-30
4.61153e-07
4.72277e-07
8.9982e-08
4.84171e-13
2.18057e-11
5.03183e-12
1.64015e-22
1.76682e-21
2.07736e-20
2.60166e-19
3.02038e-18
3.15244e-17
3.0783e-16
3.01152e-15
2.28917e-14
5.88379e-13
7.91942e-12
3.96031e-11
-4.02038e-19
3.24942e-07
4.72342e-07
2.30108e-07
3.34202e-10
2.10859e-10
5.29783e-12
3.43303e-23
2.00219e-22
9.80002e-22
4.79848e-21
2.82217e-20
2.36444e-19
2.85689e-18
4.36715e-17
9.24452e-16
1.2759e-14
7.71637e-13
7.29103e-12
-1.08709e-22
6.9191e-08
4.0229e-07
3.11156e-07
1.72816e-08
7.22217e-10
2.02127e-11
1.51027e-23
9.43434e-23
4.89539e-22
2.21745e-21
8.94708e-21
3.20151e-20
1.0986e-19
5.34458e-19
7.04534e-18
6.19336e-17
1.04179e-14
1.17438e-12
-7.4847e-32
3.83093e-08
2.06316e-07
1.91523e-07
1.76917e-08
9.69183e-10
1.48115e-11
7.56857e-24
5.40125e-23
3.16312e-22
1.58892e-21
6.97613e-21
2.61327e-20
8.32293e-20
2.29791e-19
5.41088e-19
6.52053e-18
3.62992e-16
3.47608e-14
-9.41729e-26
2.88784e-09
7.50786e-08
3.92998e-08
4.34885e-09
2.71152e-10
1.48219e-11
3.15034e-24
2.29841e-23
1.35827e-22
7.50143e-22
3.46565e-21
1.37235e-20
4.59054e-20
1.37195e-19
3.59779e-19
1.11059e-18
7.84269e-18
1.88962e-16
6.65889e-15
2.04628e-17
4.23947e-08
1.56504e-08
2.60301e-09
3.18076e-10
1.56864e-11
1.48195e-24
1.2517e-23
8.35423e-23
4.82167e-22
2.43612e-21
1.05351e-20
3.96105e-20
1.23448e-19
3.37909e-19
1.0393e-18
3.4965e-18
2.44075e-17
1.41427e-15
2.05644e-17
1.32834e-09
6.77871e-09
2.33521e-09
2.82337e-10
6.97154e-12
1.05637e-24
9.45675e-24
6.70479e-23
4.08116e-22
2.16945e-21
9.99708e-21
4.06916e-20
1.35069e-19
3.95433e-19
1.18698e-18
3.61767e-18
1.14584e-17
6.42521e-17
2.04628e-17
1.86088e-12
2.48829e-09
1.3607e-09
1.98031e-10
3.90148e-12
3.60334e-25
3.69957e-24
2.95284e-23
2.00572e-22
1.18561e-21
6.07765e-21
2.71972e-20
9.93138e-20
3.32095e-19
1.10703e-18
3.48315e-18
1.14007e-17
6.98577e-17
2.01722e-16
2.05223e-16
6.1908e-10
6.55528e-10
9.48826e-11
2.33057e-12
7.8936e-26
9.2797e-25
8.56052e-24
7.06419e-23
4.94011e-22
2.95585e-21
1.44989e-20
6.43456e-20
2.49396e-19
8.73983e-19
3.19954e-18
3.12602e-17
1.66735e-15
6.66002e-14
7.12851e-13
1.03984e-10
1.69545e-10
3.12446e-11
1.81992e-12
1.69846e-26
2.472e-25
2.57116e-24
2.34384e-23
1.80789e-22
1.1797e-21
6.32195e-21
3.20895e-20
1.29679e-19
4.91386e-19
1.75379e-18
7.30652e-18
3.61205e-15
1.40809e-13
2.85743e-12
5.73435e-11
1.98911e-11
9.60761e-12
7.83393e-13
4.33655e-27
6.82507e-26
8.48139e-25
9.17204e-24
8.31023e-23
6.27121e-22
3.90493e-21
2.30987e-20
9.46006e-20
3.86236e-19
1.34611e-18
4.32581e-18
1.5198e-15
6.01517e-14
1.34472e-12
1.7661e-11
1.10018e-11
8.99745e-13
6.51693e-13
1.5967e-27
3.03711e-26
4.4872e-25
5.47937e-24
5.50778e-23
4.62242e-22
3.35403e-21
2.19505e-20
1.01505e-19
4.65366e-19
1.97611e-18
5.59992e-18
3.84953e-17
1.13255e-14
3.04971e-13
5.12886e-12
3.9491e-12
1.47273e-13
5.77112e-13
4.11621e-28
8.50516e-27
1.34149e-25
1.77184e-24
1.85018e-23
1.58894e-22
1.25641e-21
8.9669e-21
4.43691e-20
2.17002e-19
1.03829e-18
4.16682e-18
1.28519e-17
6.22133e-16
3.00358e-14
6.08673e-13
1.08694e-12
1.21909e-13
4.46541e-13
9.26443e-29
2.15901e-27
4.37549e-26
7.05525e-25
9.27855e-24
9.98673e-23
9.08385e-22
7.31332e-21
4.39663e-20
2.37568e-19
1.07262e-18
3.96262e-18
1.20308e-17
3.08923e-17
1.31056e-15
2.41114e-14
3.18326e-13
1.05838e-13
2.49392e-13
2.09827e-29
5.51382e-28
1.22876e-26
2.28183e-25
3.47292e-24
4.47012e-23
5.04572e-22
4.61453e-21
3.23078e-20
1.9927e-19
1.02663e-18
4.37638e-18
1.46697e-17
3.89886e-17
9.77416e-17
2.90258e-15
6.20526e-14
4.26918e-14
1.15722e-13
4.05319e-30
1.20669e-28
3.02876e-27
6.37796e-26
1.09759e-24
1.61661e-23
2.25697e-22
2.18528e-21
1.96014e-20
1.34989e-19
8.13487e-19
3.92023e-18
1.47161e-17
3.8685e-17
1.02224e-16
4.15663e-16
1.84242e-14
1.61725e-14
1.37871e-13
6.36242e-31
2.18827e-29
6.3293e-28
1.54826e-26
3.18202e-25
5.65526e-24
8.69701e-23
1.00561e-21
1.10754e-20
7.85019e-20
5.18667e-19
2.94557e-18
1.14233e-17
3.76072e-17
9.91667e-17
4.82077e-16
8.0343e-15
8.82538e-15
1.37604e-13
7.11916e-32
2.92618e-30
1.00389e-28
2.86618e-27
6.80998e-26
1.36723e-24
2.30694e-23
2.98064e-22
3.90835e-21
3.30689e-20
2.5622e-19
1.50489e-18
7.36755e-18
3.03978e-17
1.04292e-16
2.84899e-16
3.28914e-15
6.50799e-15
1.18969e-13
3.50648e-33
1.85285e-31
8.07235e-30
2.87905e-28
8.40802e-27
2.04482e-25
4.12574e-24
6.34268e-23
9.95047e-22
8.83538e-21
8.26736e-20
5.24363e-19
2.86389e-18
1.44898e-17
7.09162e-17
1.9082e-16
1.67525e-15
5.19555e-15
9.38061e-14
1.53343e-34
1.00177e-32
5.2438e-31
2.16973e-29
7.48028e-28
2.23685e-26
5.64047e-25
9.53886e-24
1.93166e-22
2.21823e-21
2.00025e-20
1.39107e-19
8.53636e-19
4.37291e-18
2.83911e-17
8.31553e-17
5.85323e-16
2.7279e-15
6.11069e-14
2.19844e-36
2.03313e-34
1.40787e-32
7.55813e-31
3.17237e-29
9.34807e-28
4.21785e-26
1.29526e-24
2.45952e-23
3.44896e-22
3.56205e-21
2.6883e-20
1.50887e-19
7.31838e-19
3.96846e-18
1.68758e-18
1.18939e-16
2.76725e-16
1.5754e-14
)
;

boundaryField
{
    leftWall
    {
        type            zeroGradient;
    }
    rightWall
    {
        type            zeroGradient;
    }
    lowerWall
    {
        type            zeroGradient;
    }
    atmosphere
    {
        type            inletOutlet;
        inletValue      uniform 0;
        value           nonuniform List<scalar> 
46
(
0
0
0
0
0
0
0
0
0
0
0
0
0
0
0
0
0
0
0
0
0
0
0
0
0
0
0
0
0
0
0
3.17237e-29
9.34807e-28
4.21785e-26
1.29526e-24
2.45952e-23
3.44896e-22
3.56205e-21
2.6883e-20
1.50887e-19
0
3.96846e-18
0
0
0
1.5754e-14
)
;
    }
    defaultFaces
    {
        type            empty;
    }
}


// ************************************************************************* //
