/*--------------------------------*- C++ -*----------------------------------*\
| =========                 |                                                 |
| \\      /  F ield         | OpenFOAM: The Open Source CFD Toolbox           |
|  \\    /   O peration     | Version:  2312                                  |
|   \\  /    A nd           | Website:  www.openfoam.com                      |
|    \\/     M anipulation  |                                                 |
\*---------------------------------------------------------------------------*/
FoamFile
{
    version     2.0;
    format      ascii;
    arch        "LSB;label=32;scalar=64";
    class       volScalarField;
    location    "0.5";
    object      alpha.water;
}
// * * * * * * * * * * * * * * * * * * * * * * * * * * * * * * * * * * * * * //

dimensions      [0 0 0 0 0 0 0];

internalField   nonuniform List<scalar> 
2268
(
8.41648e-12
8.30065e-12
7.16648e-12
6.65194e-12
6.40101e-12
6.74506e-12
7.52982e-12
7.98506e-12
8.19916e-12
8.33884e-12
8.31666e-12
8.0351e-12
7.61733e-12
6.94897e-12
6.23899e-12
5.97775e-12
6.39452e-12
8.80383e-12
1.84388e-11
4.58844e-11
8.50296e-11
1.50886e-10
2.07775e-10
6.66258e-11
6.43156e-11
4.77552e-11
4.08103e-11
3.70587e-11
4.1119e-11
5.04342e-11
5.54847e-11
5.55531e-11
5.33798e-11
5.00456e-11
4.61467e-11
4.2646e-11
3.92313e-11
3.69129e-11
3.33393e-11
3.20701e-11
3.36024e-11
6.98542e-11
1.25153e-10
1.11853e-10
1.23915e-09
1.09083e-09
1.72428e-10
1.65311e-10
1.08149e-10
8.7975e-11
7.54155e-11
9.00929e-11
1.17557e-10
1.30515e-10
1.30145e-10
1.20938e-10
1.08952e-10
9.3168e-11
8.13824e-11
7.84684e-11
7.05629e-11
7.07304e-11
6.66644e-11
6.7241e-11
8.45478e-11
1.47258e-10
3.28421e-10
1.81032e-09
1.51537e-09
5.73305e-11
5.67237e-11
5.68671e-11
5.63189e-11
5.66755e-11
5.63203e-11
5.68685e-11
5.67254e-11
5.72727e-11
6.23732e-11
7.88528e-11
1.01608e-10
1.13472e-10
1.07163e-10
7.5162e-11
7.98719e-11
9.86293e-11
9.90361e-11
1.10222e-10
4.32554e-10
1.75224e-09
2.65879e-09
1.4994e-09
0.188443
0.180021
0.182034
0.186554
0.193026
0.201596
0.212099
0.22374
0.234987
0.24343
0.244708
0.232235
0.200023
0.139819
0.0372963
4.58522e-11
4.23009e-11
4.27379e-11
1.02242e-10
9.32885e-10
1.39883e-09
9.5009e-09
1.50017e-09
0.920433
0.913892
0.915614
0.918974
0.923648
0.929644
0.936647
0.943976
0.950653
0.955421
0.956275
0.949654
0.930685
0.887398
0.780486
0.477083
0.0679105
4.26631e-11
8.30822e-11
8.68109e-10
4.93763e-10
1.46541e-08
3.00555e-08
1
1
1
1
1
1
1
1
1
1
1
1
1
1
1
0.990383
0.717059
0.110391
9.09929e-11
8.81577e-11
8.7687e-11
1.66949e-08
8.15906e-08
1
1
1
1
1
1
1
1
1
1
1
1
1
1
1
1
1
0.655246
0.0139322
1.85081e-08
1.34953e-09
1.84347e-08
8.15798e-08
2.13299e-11
3.28123e-11
5.64021e-11
9.16746e-11
1.27937e-10
1.6144e-10
1.61905e-10
1.33877e-10
1.20279e-10
1.91469e-10
1.38231e-09
6.0858e-09
8.5529e-10
7.57253e-10
3.86045e-10
5.29942e-11
3.83431e-11
3.723e-11
3.80475e-11
2.1334e-11
3.94927e-11
6.58392e-11
1.06028e-10
1.53309e-10
1.92743e-10
1.94963e-10
1.41919e-10
7.08872e-11
7.08047e-11
7.08872e-11
7.90527e-08
2.30867e-07
1.01781e-07
1.96224e-09
3.95988e-11
3.72298e-11
3.72326e-11
4.54192e-10
2.07321e-11
4.62024e-11
8.65468e-11
1.36422e-10
1.83753e-10
2.18384e-10
2.17797e-10
1.66722e-10
7.44266e-11
7.6806e-08
1.73637e-07
1.32277e-07
4.77403e-07
3.18591e-07
1.39157e-08
1.52013e-07
5.36187e-08
1.30852e-07
3.02643e-08
2.05851e-11
5.02957e-11
9.41589e-11
1.40147e-10
1.89128e-10
2.18728e-10
1.81553e-10
0
9.38475e-08
1.48675e-06
1.64191e-06
5.7949e-07
1.10023e-06
1.30278e-06
2.52288e-06
2.72213e-06
4.15721e-06
1.64048e-06
2.92505e-08
2.1637e-11
3.61373e-11
8.55784e-11
1.40973e-10
2.1323e-10
2.20374e-10
1.25559e-10
1.59439e-16
1.17066e-06
1.83542e-06
1.63736e-06
-4.50225e-09
-8.46488e-09
-4.06886e-09
8.12635e-05
7.96524e-05
3.98269e-05
9.17104e-08
2.82144e-08
1.7158e-11
1.71595e-11
4.7222e-11
9.94343e-11
3.09255e-10
3.47004e-10
1.31507e-10
1.65952e-16
1.20821e-06
1.41992e-06
1.42957e-06
0.00207995
0.000934757
0.00198252
0.00154161
0.000274101
6.97524e-07
4.49692e-07
8.35391e-08
1.18024e-06
2.92426e-06
3.20956e-12
3.21107e-12
3.20956e-12
2.72065e-10
1.82226e-10
2.64401e-19
3.22319e-08
3.6373e-08
0.0707943
0.31154
0.315588
0.133457
0.00118234
1.12878e-05
4.01055e-06
6.49938e-08
6.79572e-08
0.00559696
0.00995535
0.00658689
0.0126772
0.00307823
1.25615e-19
1.32701e-19
2.55373e-19
-1.64526e-19
0.0663571
0.438592
0.607331
0.612998
0.240558
1.43439e-07
6.30797e-07
3.16661e-06
3.80771e-07
9.22462e-09
1
1
1
1
1
1
1
1
1
1
1
1
1
1
1
1
1
0.997207
0.537116
0.0365577
7.76896e-10
9.52155e-10
-2.55976e-10
1
1
1
1
1
1
1
1
1
1
1
1
1
1
1
1
1
1
0.999316
0.698437
0.239522
0.00906326
0.00158595
1
1
1
1
1
1
1
1
1
1
1
1
1
1
1
1
1
1
1
0.999999
0.960426
0.843217
0.628219
0.984843
0.988276
0.993491
0.99849
1
1
1
1
1
1
1
1
0.99998
0.997713
0.998351
0.999664
0.999991
0.999992
0.999992
0.999997
0.999999
0.99998
1
0.392144
0.413934
0.456518
0.528032
0.625408
0.71922
0.814893
0.899179
0.952983
0.97795
0.971991
0.92328
0.842521
0.759848
0.74268
0.802855
0.913962
0.999994
0.999996
0.999998
0.999999
1
1
1.29353e-27
2.36766e-32
-7.2143e-19
3.04191e-22
0.00346048
0.0422161
0.109519
0.209244
0.315575
0.398194
0.404632
0.277893
0.112785
0.0383517
0.0242771
0.0436407
0.122016
0.270279
0.468676
0.623535
0.719566
0.798774
0.757248
4.70377e-13
8.29252e-14
-2.03969e-17
-8.53425e-17
-1.81416e-26
1.22608e-26
2.20299e-26
9.65122e-27
8.4717e-22
9.97856e-22
-9.6809e-13
-3.32867e-24
-1.48742e-13
-2.48898e-23
-4.13325e-25
1.55377e-24
5.5332e-25
1.0842e-22
0.00458545
0.0182152
0.0294949
0.0286417
0.00671601
3.57058e-12
3.03738e-12
1.18406e-12
4.75078e-12
6.46076e-08
1.66692e-07
1.72338e-07
8.24455e-08
5.33795e-08
7.78928e-08
-4.83461e-11
6.94213e-06
2.55125e-05
2.04248e-05
2.26507e-06
2.45326e-06
6.55696e-07
6.64879e-08
7.42697e-25
1.74246e-26
-7.39719e-26
4.78237e-33
-1.82191e-25
1.59169e-11
1.59442e-11
1.89434e-12
4.86987e-13
4.60469e-08
2.48406e-07
2.59853e-07
2.39566e-07
2.06387e-07
2.73293e-07
9.10756e-07
6.76004e-06
3.40679e-05
4.25744e-05
2.06325e-05
1.57646e-05
5.24949e-06
1.23933e-06
6.88979e-07
4.33198e-07
2.56162e-07
1.80106e-07
1.16793e-07
2.57678e-11
5.22529e-11
1.26984e-11
2.72979e-13
1.31952e-08
6.52964e-08
4.51971e-08
8.08022e-11
2.40494e-08
9.9055e-12
1.00195e-11
3.95875e-11
1.82838e-11
3.45151e-05
4.80091e-05
4.80303e-05
2.20113e-05
2.66229e-06
1.28915e-06
6.49034e-07
2.63485e-07
8.81746e-08
5.54335e-08
2.18115e-11
7.50367e-11
7.07925e-11
1.35289e-11
4.70941e-10
2.17816e-09
1.82407e-11
7.88531e-11
1.12437e-11
1.20405e-11
1.18952e-11
1.35097e-10
2.39822e-11
2.09223e-12
8.90344e-06
1.71607e-05
1.65306e-05
2.4749e-06
7.20226e-09
4.40484e-10
6.34413e-14
2.08883e-29
1.13544e-28
1.56965e-11
6.95133e-11
1.00165e-10
6.35418e-11
3.08045e-11
1.83532e-11
1.82615e-11
1.76838e-11
3.01418e-11
9.86519e-11
1.45989e-10
6.13388e-11
4.8996e-11
8.01252e-12
-2.38205e-14
-4.51086e-15
-7.11991e-16
-2.04452e-16
-2.85946e-26
-2.58351e-29
-5.9117e-35
3.83128e-18
2.18785e-17
9.6324e-12
4.93685e-11
9.41363e-11
8.28356e-11
4.21899e-11
2.0442e-11
1.57169e-11
1.62874e-11
3.41013e-11
1.20759e-10
1.64467e-10
1.33253e-10
7.32721e-11
2.64668e-11
5.35442e-12
9.60663e-13
1.46786e-13
4.13738e-14
8.44939e-15
8.33137e-16
5.54871e-17
2.53478e-17
1.97585e-16
4.70949e-12
2.66155e-11
5.68928e-11
5.16872e-11
2.53054e-11
7.45031e-12
7.4588e-12
1.12152e-11
3.07888e-11
9.74226e-11
1.25909e-10
8.96659e-11
4.94347e-11
1.02376e-11
7.36705e-13
2.72453e-14
4.71225e-15
1.28495e-15
5.05117e-16
8.96717e-17
1.31187e-17
3.72667e-17
3.5764e-16
1.63163e-12
1.03407e-11
2.33722e-11
2.00276e-11
8.10047e-12
3.0086e-12
4.23769e-12
8.34905e-12
2.20404e-11
6.021e-11
6.24324e-11
3.88871e-11
1.66999e-11
2.08629e-12
4.02831e-14
2.24891e-16
2.27094e-18
2.4668e-19
3.40305e-19
2.03313e-18
8.99931e-18
5.99923e-17
3.66877e-16
4.46089e-13
3.11478e-12
7.3489e-12
6.00515e-12
2.05573e-12
1.09846e-12
1.60602e-12
4.68241e-12
1.32876e-11
2.21579e-11
2.0021e-11
1.10133e-11
2.04344e-12
1.00049e-13
8.80084e-16
7.87309e-19
6.66856e-20
1.32783e-20
2.64083e-19
2.41399e-18
9.06436e-18
6.66558e-17
1.52187e-16
7.83596e-14
5.89158e-13
1.50916e-12
1.13403e-12
3.29821e-13
3.30958e-13
4.78637e-13
1.36299e-12
3.64087e-12
5.46239e-12
4.03003e-12
1.07834e-12
5.84477e-14
3.10906e-16
8.90318e-20
2.00776e-23
2.57883e-22
1.25182e-20
2.16967e-19
1.17513e-18
3.07817e-18
3.60456e-18
3.49216e-18
7.3765e-15
5.89783e-14
1.39652e-13
1.03997e-13
3.55598e-14
5.64636e-14
1.05296e-13
3.0158e-13
5.55982e-13
6.97408e-13
3.62559e-13
3.42745e-14
2.54943e-16
6.23525e-20
1.27292e-32
2.01669e-23
3.68273e-22
2.79628e-21
2.43638e-20
1.27691e-19
3.09583e-19
3.78408e-19
4.18986e-19
1.7877e-20
9.08248e-19
2.95065e-17
2.54761e-16
1.34051e-15
4.35891e-15
1.06023e-14
2.08136e-14
3.2361e-14
2.92163e-14
7.5346e-15
1.94878e-16
1.80924e-19
2.16077e-24
-2.98986e-24
2.91213e-23
1.62408e-22
4.98768e-22
1.72346e-21
1.21841e-20
2.6608e-20
3.85034e-20
2.57632e-20
1.31855e-43
7.5068e-42
3.32368e-40
1.05694e-38
5.98521e-38
7.70035e-36
1.33312e-34
2.22213e-33
4.05334e-32
5.90165e-31
4.27688e-30
1.50793e-28
3.50629e-27
7.10015e-26
7.46144e-25
5.01458e-24
2.57809e-23
9.37994e-23
3.18303e-22
1.22836e-21
1.81576e-21
1.67374e-21
1.68867e-21
7.59339e-44
6.1337e-42
2.85549e-40
9.27401e-39
2.36932e-37
4.9426e-36
9.14869e-35
1.58678e-33
2.63794e-32
3.83421e-31
5.12641e-30
5.92776e-29
6.21326e-28
4.77467e-27
2.93887e-26
1.56521e-25
7.9312e-25
2.71593e-24
1.22641e-23
4.36131e-23
6.2214e-23
7.60026e-23
7.30964e-23
2.26479e-44
2.02694e-42
1.05185e-40
3.73734e-39
1.02151e-37
2.22619e-36
4.31198e-35
7.56597e-34
1.24759e-32
1.82791e-31
2.36583e-30
2.56483e-29
2.10826e-28
1.32663e-27
6.69989e-27
3.03564e-26
1.19332e-25
3.47456e-25
7.14571e-25
1.86145e-24
3.33895e-24
4.01357e-24
4.67309e-24
4.67567e-45
4.79482e-43
2.75868e-41
1.06403e-39
3.08838e-38
7.0969e-37
1.4438e-35
2.67615e-34
4.39491e-33
6.26042e-32
8.24757e-31
7.61182e-30
5.32182e-29
2.69843e-28
1.08756e-27
3.64516e-27
1.05593e-26
2.65113e-26
6.25531e-26
2.05367e-25
3.41435e-25
4.5923e-25
4.98199e-25
8.54515e-46
9.63472e-44
5.97652e-42
2.48344e-40
7.68905e-39
1.87892e-37
3.93783e-36
7.61182e-35
1.24606e-33
1.76911e-32
2.00681e-31
1.59692e-30
1.00066e-29
4.86096e-29
1.91453e-28
6.44275e-28
1.89688e-27
4.71016e-27
9.74581e-27
2.73382e-26
5.49898e-26
6.79409e-26
8.38069e-26
9.7229e-47
1.15247e-44
7.42429e-43
3.23811e-41
1.0393e-39
2.67512e-38
5.8615e-37
1.11771e-35
1.8322e-34
2.49719e-33
2.50509e-32
1.93475e-31
1.23238e-30
5.9171e-30
2.32748e-29
7.99973e-29
2.35041e-28
6.21509e-28
1.40416e-27
2.91063e-27
8.27487e-27
1.40611e-26
1.56526e-26
4.75863e-48
6.12498e-46
4.09325e-44
1.96137e-42
6.75571e-41
1.85895e-39
4.22512e-38
8.14416e-37
1.31433e-35
1.71181e-34
1.76895e-33
1.40684e-32
9.42233e-32
4.98665e-31
2.13467e-30
8.58632e-30
2.8267e-29
8.088e-29
2.06986e-28
4.6278e-28
9.28295e-28
2.21055e-27
3.41325e-27
1.57441e-49
2.11129e-47
1.52801e-45
7.53551e-44
2.70708e-42
7.74156e-41
1.83941e-39
3.60105e-38
5.78653e-37
7.71236e-36
8.34149e-35
7.20786e-34
5.16373e-33
3.04117e-32
1.48095e-31
6.55845e-31
2.43574e-30
7.88732e-30
2.23342e-29
5.45738e-29
1.10064e-28
3.1557e-28
6.08923e-28
3.01474e-51
4.45985e-49
3.40433e-47
1.79469e-45
6.96527e-44
2.14088e-42
5.28445e-41
1.07178e-39
1.77334e-38
2.40973e-37
2.70482e-36
2.50156e-35
1.8849e-34
1.23491e-33
7.12861e-33
3.70442e-32
1.58904e-31
6.01576e-31
2.0236e-30
5.7444e-30
1.47226e-29
3.03936e-29
9.74592e-29
4.4743e-53
7.13253e-51
6.0704e-49
3.48274e-47
1.46147e-45
4.85259e-44
1.30623e-42
2.8779e-41
5.20534e-40
7.74892e-39
9.54256e-38
9.73453e-37
8.2523e-36
5.85351e-35
3.5207e-34
1.84277e-33
8.71931e-33
3.77724e-32
1.37968e-31
4.76945e-31
1.35571e-30
3.64399e-30
1.09519e-29
5.29861e-55
9.42323e-53
8.69776e-51
5.42472e-49
2.4793e-47
8.92582e-46
2.59245e-44
6.15356e-43
1.20447e-41
1.9586e-40
2.66241e-39
3.03508e-38
2.91556e-37
2.37845e-36
1.66294e-35
1.00473e-34
5.30033e-34
2.4202e-33
9.98052e-33
3.59261e-32
1.27985e-31
3.52926e-31
1.01779e-30
4.6868e-57
9.78231e-55
9.9726e-53
6.68412e-51
3.33694e-49
1.32244e-47
4.18164e-46
1.08433e-44
2.34101e-43
4.23929e-42
6.43925e-41
8.25441e-40
8.97525e-39
8.32326e-38
6.61103e-37
4.50864e-36
2.64639e-35
1.34381e-34
5.93713e-34
2.26185e-33
7.70178e-33
2.56041e-32
7.08895e-32
2.46352e-59
5.76722e-57
6.58861e-55
5.01068e-53
2.83518e-51
1.24293e-49
4.41479e-48
1.29522e-46
3.15954e-45
6.41225e-44
1.09304e-42
1.57396e-41
1.92717e-40
2.01809e-39
1.81437e-38
1.40267e-37
9.33149e-37
5.36513e-36
2.69314e-35
1.18664e-34
4.65792e-34
1.60911e-33
5.14052e-33
8.62318e-62
2.52835e-59
3.33601e-57
2.83705e-55
1.7761e-53
8.71959e-52
3.45503e-50
1.12712e-48
3.06254e-47
7.00427e-46
1.35499e-44
2.22044e-43
3.09147e-42
3.67925e-41
3.75648e-40
3.31679e-39
2.5756e-38
1.77127e-37
1.04342e-36
5.19601e-36
2.26716e-35
8.80858e-35
3.07989e-34
2.30975e-64
8.41726e-62
1.26926e-59
1.21309e-57
8.48441e-56
4.6273e-54
2.04056e-52
7.42914e-51
2.26656e-49
5.85536e-48
1.28901e-46
2.42716e-45
3.91793e-44
5.42802e-43
6.46159e-42
6.63575e-41
5.91661e-40
4.53398e-39
3.01661e-38
1.7623e-37
9.16122e-37
4.5208e-36
2.54917e-35
4.92408e-67
2.82515e-64
5.36856e-62
6.08852e-60
4.91777e-58
3.05296e-56
1.51957e-54
6.2267e-53
2.13953e-51
6.24679e-50
1.56457e-48
3.38531e-47
6.37255e-46
1.05466e-44
1.55647e-43
2.05813e-42
2.38922e-41
2.36411e-40
1.97296e-39
1.40108e-38
8.4269e-38
4.58382e-37
2.66106e-36
6.37035e-70
6.85464e-67
1.69451e-64
2.38331e-62
2.34237e-60
1.75633e-58
1.05376e-56
5.20402e-55
2.15332e-53
7.55295e-52
2.26429e-50
5.84205e-49
1.30703e-47
2.55814e-46
4.41028e-45
6.6903e-44
8.86274e-43
1.01794e-41
9.98132e-41
8.51211e-40
6.53994e-39
4.5947e-38
3.00336e-37
2.43351e-73
7.31344e-70
2.43457e-67
4.24457e-65
5.01379e-63
4.43837e-61
3.11939e-59
1.80927e-57
8.83997e-56
3.6487e-54
1.27895e-52
3.88039e-51
1.0286e-49
2.40631e-48
5.01186e-47
9.3072e-46
1.52479e-44
2.17208e-43
2.67951e-42
2.86676e-41
2.66975e-40
2.28079e-39
2.27201e-38
3.07788e-77
4.69484e-73
2.27764e-70
5.13758e-68
7.62872e-66
8.40124e-64
7.28923e-62
5.16131e-60
3.05051e-58
1.52808e-56
6.55682e-55
2.42831e-53
7.80857e-52
2.19334e-50
5.41915e-49
1.18486e-47
2.29533e-46
3.93032e-45
5.95549e-44
8.03172e-43
9.71028e-42
1.06723e-40
1.24435e-39
5.74822e-82
8.47491e-77
6.62985e-74
2.00232e-71
3.82356e-69
5.32354e-67
5.78455e-65
5.09853e-63
3.73661e-61
2.31753e-59
1.23337e-57
5.69713e-56
2.30447e-54
8.20434e-53
2.57228e-51
7.08765e-50
1.71616e-48
3.6729e-47
7.03774e-46
1.24001e-44
2.03724e-43
2.74014e-42
4.17964e-41
1.07861e-87
3.34353e-81
5.43943e-78
2.42927e-75
6.52711e-73
1.25648e-70
1.87089e-68
2.24433e-66
2.22257e-64
1.84699e-62
1.30449e-60
7.92028e-59
4.17947e-57
1.93605e-55
7.93741e-54
2.90006e-52
9.51247e-51
2.82075e-49
7.56552e-48
1.81028e-46
3.72909e-45
6.37411e-44
1.02139e-42
2.00613e-95
3.92164e-87
2.59912e-83
1.88221e-80
7.62974e-78
2.17671e-75
4.79175e-73
8.55084e-71
1.27494e-68
1.62007e-66
1.77695e-64
1.69495e-62
1.41138e-60
1.02757e-58
6.53918e-57
3.62767e-55
1.74836e-53
7.31736e-52
2.66409e-50
8.43103e-49
2.34101e-47
5.97276e-46
1.66217e-44
1.59586e-108
5.18789e-96
3.93457e-91
6.41208e-88
5.43664e-85
3.18472e-82
1.42924e-79
5.16018e-77
1.54063e-74
3.87045e-72
8.28125e-70
1.52301e-67
2.42612e-65
3.36667e-63
4.08096e-61
4.32097e-59
3.99437e-57
3.22769e-55
2.28192e-53
1.40536e-51
7.43617e-50
3.28121e-48
1.15779e-46
-3.89744e-11
1.08779e-05
5.3322e-05
0.000265123
0.00227379
0.0025932
0.00611611
0.0174639
0.517468
0.504009
0.543073
0.631679
1
1
0.99981
0.99934
1
0.999975
0.995623
0.987223
0.697374
0.623819
0.514743
0.427641
1.76898e-20
1.25591e-27
8.96513e-27
-2.18169e-26
7.14522e-09
1.11454e-08
1.59795e-08
1.78875e-08
9.67542e-08
9.13058e-08
9.07386e-08
8.29258e-08
4.98211e-08
5.03902e-08
5.67298e-08
6.72409e-08
2.10536e-29
9.52928e-29
2.11163e-29
1.14932e-29
7.78674e-17
1.46355e-16
1.53296e-16
6.54989e-16
3.86539e-16
5.54948e-16
1.17488e-15
5.4095e-15
4.96872e-16
8.77734e-16
3.32138e-15
9.34059e-15
3.69217e-16
1.42682e-15
4.56473e-15
5.57395e-15
3.22006e-17
2.43091e-17
1.92307e-17
1.18207e-17
1.67825e-18
1.20921e-18
1.06749e-18
8.96958e-19
2.19216e-19
1.4286e-19
1.23417e-19
9.75861e-20
1.57021e-20
1.07336e-20
8.8289e-21
7.44576e-21
8.89017e-22
6.45655e-22
6.13502e-22
4.80134e-22
5.54905e-23
4.3604e-23
3.57529e-23
3.24985e-23
3.62965e-24
2.85952e-24
2.9146e-24
2.45474e-24
4.29358e-25
3.58937e-25
3.08571e-25
2.94217e-25
6.9331e-26
6.04212e-26
6.203e-26
5.77135e-26
1.56964e-26
1.46202e-26
1.35467e-26
1.6228e-26
3.4022e-27
3.17982e-27
3.52155e-27
4.31354e-27
6.85887e-28
6.78339e-28
8.05939e-28
1.44778e-27
1.2222e-28
1.28846e-28
2.43455e-28
6.65404e-28
2.02343e-29
2.63355e-29
6.90866e-29
2.33678e-28
2.5825e-30
3.95071e-30
1.16877e-29
4.82776e-29
2.49135e-31
5.95907e-31
2.39293e-30
1.10589e-29
1.49163e-32
7.01036e-32
3.62089e-31
2.22204e-30
1.88781e-33
1.35366e-32
9.50459e-32
7.09282e-31
2.56646e-34
2.26141e-33
2.14804e-32
1.92379e-31
2.91361e-35
3.01476e-34
3.31081e-33
3.52983e-32
3.35776e-36
3.90651e-35
5.40069e-34
7.2031e-33
3.38339e-37
4.9908e-36
8.31494e-35
1.31706e-33
2.74324e-38
5.15119e-37
1.03007e-35
1.91119e-34
1.14756e-39
2.90136e-38
7.45236e-37
1.77142e-35
2.72556e-41
7.114e-40
2.27004e-38
6.89311e-37
4.2664e-43
1.21153e-41
5.91321e-40
2.37977e-38
3.38632e-45
7.4961e-44
3.71748e-42
2.25121e-40
0.0136914
0.0414168
0.133987
0.226661
0.265141
0.256023
0.258047
0.266151
0.27631
0.504194
0.79306
0.825095
0.751676
0.192617
1.40729e-07
2.23122e-07
5.65689e-07
1.75616e-07
7.52534e-09
0.127109
0.423951
0.668718
0.754395
0.722399
0.696127
0.700729
0.71383
0.833752
0.923471
0.924418
0.923471
0.680672
0.0562012
1.37781e-07
1.3485e-07
1.30799e-07
7.52576e-08
4.42237e-09
0.877664
0.998934
0.998373
0.997637
0.996721
0.995663
0.994409
0.979707
0.91189
0.735553
0.693859
0.647355
0.286105
0.00156168
1.18303e-06
2.04005e-07
6.00653e-10
1.05296e-08
7.60198e-10
0.99891
0.998938
0.988259
0.959342
0.914874
0.835213
0.694622
0.493895
0.256457
0.15335
0.0185799
-1.9348e-20
0.0202999
0.00749033
1.46078e-06
9.59213e-07
5.69627e-10
1.86931e-11
2.43591e-11
0.938346
0.745749
0.536107
0.372235
0.261245
0.146805
0.047152
1.56675e-18
3.10996e-22
4.1992e-22
2.68495e-18
9.16069e-20
-1.74648e-20
0.000919055
7.35183e-05
4.76869e-08
1.97576e-11
1.84375e-11
1.09859e-11
0.263604
0.108415
0.00799085
4.26854e-20
1.91911e-26
6.6347e-28
-1.23323e-11
1.75353e-10
5.67693e-11
1.41312e-09
2.20457e-09
-2.71049e-31
6.92033e-37
1.06745e-14
1.23057e-05
3.68464e-07
8.50869e-09
7.6866e-12
1.07878e-11
1.11883e-26
6.90187e-26
-4.47856e-12
2.94122e-09
4.06212e-09
2.89415e-09
1.72192e-09
8.94578e-10
2.96176e-09
4.71546e-08
1.47503e-08
2.39277e-05
2.03517e-05
8.39213e-06
8.27511e-08
2.96227e-07
4.87922e-08
7.68681e-12
1.02829e-11
1.74172e-08
2.36552e-08
2.67874e-08
2.14841e-08
1.18794e-08
4.52186e-09
1.86523e-09
8.80783e-10
1.24613e-08
2.00426e-07
2.6106e-05
4.57316e-05
4.50646e-05
3.11759e-06
8.43365e-08
2.6094e-07
4.51668e-08
7.68585e-12
9.09899e-12
5.05854e-08
4.03442e-08
3.9815e-08
2.20263e-08
3.67184e-09
5.5258e-10
5.27132e-10
3.11793e-09
8.06961e-09
1.68524e-06
1.69704e-05
2.38222e-05
2.21906e-05
1.048e-09
8.61938e-08
2.7074e-07
2.0171e-08
7.68893e-12
8.54215e-12
2.27182e-08
3.78136e-09
2.31635e-09
4.74675e-10
1.39657e-12
2.68007e-11
6.46785e-10
3.33341e-09
2.28965e-08
5.28253e-07
1.87113e-06
4.02181e-06
6.3297e-11
1.20865e-09
1.72038e-08
8.49942e-08
1.43362e-08
7.68178e-12
8.08889e-12
2.11199e-29
1.19971e-21
5.1114e-34
-9.79743e-16
1.46634e-12
9.71616e-11
9.64363e-10
4.60439e-09
1.53232e-08
3.04629e-08
6.69464e-11
6.32182e-11
6.43707e-11
2.1079e-10
3.11725e-11
3.10256e-11
3.5064e-09
1.01119e-11
7.63575e-12
2.29209e-15
1.04043e-15
8.56511e-16
1.42171e-11
6.74221e-12
7.46741e-11
4.13205e-10
1.72668e-09
4.4127e-09
2.65045e-09
3.33486e-10
1.14236e-10
6.54016e-11
1.20942e-10
6.37276e-11
3.11453e-11
7.86402e-11
1.76121e-11
6.89875e-12
6.1332e-15
1.93245e-15
3.97588e-15
2.94803e-14
2.88949e-12
2.34521e-11
1.38044e-10
6.34334e-10
1.70764e-09
1.646e-09
5.40202e-10
9.86862e-11
3.97574e-11
7.54991e-11
7.0484e-11
3.46444e-11
1.33797e-11
1.60513e-11
5.83972e-12
5.82117e-15
1.08653e-15
6.58948e-15
5.92797e-14
7.05883e-13
7.14259e-12
5.41448e-11
2.65422e-10
9.51517e-10
1.38471e-09
6.31223e-10
7.61391e-11
1.23378e-11
2.41754e-11
3.42325e-11
2.75467e-11
1.04849e-11
1.03401e-11
4.21665e-12
8.62709e-16
1.34742e-17
6.9845e-16
1.01441e-14
1.34153e-13
1.40156e-12
1.18317e-11
7.71654e-11
3.58447e-10
9.22889e-10
8.06324e-10
1.44905e-10
6.67639e-12
9.92342e-12
1.45011e-11
1.02552e-11
5.65397e-12
5.12405e-12
2.65519e-12
4.92937e-18
6.74335e-18
9.69224e-17
1.47375e-15
1.92014e-14
2.15793e-13
1.99311e-12
1.48851e-11
9.29208e-11
4.25138e-10
7.59967e-10
3.71103e-10
7.99788e-12
3.57915e-12
3.66119e-12
3.87932e-12
3.0681e-12
2.55002e-12
1.84656e-12
6.26941e-19
5.96697e-19
7.37149e-18
1.22292e-16
1.79764e-15
2.36323e-14
2.71603e-13
2.63317e-12
1.62115e-11
1.11487e-10
5.2934e-10
5.62445e-10
4.20696e-11
4.46788e-12
1.45453e-12
1.38099e-12
1.50952e-12
1.41423e-12
1.37563e-12
7.16893e-20
2.9756e-20
1.92982e-19
3.07284e-18
5.00779e-17
7.76355e-16
1.11292e-14
1.04351e-13
1.34741e-12
1.32628e-11
1.66871e-10
6.02568e-10
1.14782e-10
1.35293e-11
2.0882e-12
5.10883e-13
4.76388e-13
7.87987e-13
1.07078e-12
4.97038e-21
1.91544e-21
6.54443e-21
6.82842e-20
7.02079e-19
8.18517e-18
1.09401e-16
1.16465e-15
2.0547e-14
3.83919e-13
1.2046e-11
4.17061e-10
1.50654e-10
2.63684e-11
6.64252e-12
8.94017e-13
2.90566e-13
2.59906e-13
8.36615e-13
3.79529e-22
3.5515e-22
3.09112e-21
3.31927e-20
3.06826e-19
2.42418e-18
1.60557e-17
1.30595e-16
1.5913e-15
9.14095e-15
1.47466e-13
9.96564e-11
1.05296e-10
3.8319e-11
1.12863e-11
2.29683e-12
8.33608e-14
7.00227e-14
5.96905e-13
2.55894e-23
3.05404e-23
2.80863e-22
3.16032e-21
3.13599e-20
2.68539e-19
2.02404e-18
1.33117e-17
1.58336e-16
3.00664e-15
3.65818e-14
4.51137e-12
3.22597e-11
2.9934e-11
1.63031e-11
4.29017e-12
7.06657e-14
6.3159e-14
4.23765e-13
2.10658e-24
2.23999e-24
1.49651e-23
1.69417e-22
1.87476e-21
1.88141e-20
1.75029e-19
1.60703e-18
1.07902e-17
2.79209e-16
7.87506e-15
5.76366e-14
2.59718e-12
1.73615e-11
1.53508e-11
7.35217e-12
9.56376e-13
1.25436e-13
3.27283e-13
2.63903e-25
3.55972e-25
1.24974e-24
5.52218e-24
2.67853e-23
1.70178e-22
1.68932e-21
2.37864e-20
4.71096e-19
5.0609e-18
2.12806e-16
6.2142e-16
4.56497e-14
9.09129e-12
1.31559e-11
8.89913e-12
2.83824e-12
4.40931e-13
2.69422e-13
6.68451e-26
1.59982e-25
7.2683e-25
3.29928e-24
1.3448e-23
4.78669e-23
1.52283e-22
5.19371e-22
4.20133e-21
2.83389e-20
2.02285e-18
1.5898e-16
2.09305e-16
6.4657e-12
1.0219e-11
8.23098e-12
3.28512e-12
6.40928e-13
2.2061e-13
2.28665e-26
9.6106e-26
5.36331e-25
2.7053e-24
1.19566e-23
4.50198e-23
1.4438e-22
3.98549e-22
9.30247e-22
5.77779e-21
1.73575e-19
9.5352e-18
6.11951e-20
2.73497e-12
6.83167e-12
6.23897e-12
2.96686e-12
3.8517e-13
1.75161e-13
8.80264e-27
4.69742e-26
2.71283e-25
1.50496e-24
6.99383e-24
2.78276e-23
9.36437e-23
2.78916e-22
7.32845e-22
2.29182e-21
1.06808e-20
8.44739e-20
6.12032e-20
3.09895e-13
4.45121e-12
4.09277e-12
1.97848e-12
2.50887e-13
1.32919e-13
3.91575e-27
2.8624e-26
1.88985e-25
1.0903e-24
5.50002e-24
2.37755e-23
8.97126e-23
2.83543e-22
8.07276e-22
3.03247e-21
1.44852e-20
7.36219e-20
2.67929e-19
1.83469e-14
1.79767e-12
2.63361e-12
1.3663e-12
1.55684e-13
1.05352e-13
2.82906e-27
2.42828e-26
1.71576e-25
1.04229e-24
5.52068e-24
2.53068e-23
1.02334e-22
3.37642e-22
9.90324e-22
3.15385e-21
1.16336e-20
4.62025e-20
2.73758e-18
1.89599e-15
3.04352e-13
1.43282e-12
7.48128e-13
8.86075e-14
7.48899e-14
1.08984e-27
1.09464e-26
8.70812e-26
5.89601e-25
3.46861e-24
1.76721e-23
7.85131e-23
2.84627e-22
9.48676e-22
3.3277e-21
1.37417e-20
7.03162e-20
1.84675e-18
1.17008e-16
1.16421e-14
5.06848e-13
3.52083e-13
4.28521e-14
5.17104e-14
2.60722e-28
3.00426e-27
2.75245e-26
2.25443e-25
1.56302e-24
9.26992e-24
4.50868e-23
1.98607e-22
7.67268e-22
2.77959e-21
1.3077e-20
1.36094e-19
3.86995e-18
9.40832e-17
1.06114e-15
8.60658e-14
9.17922e-14
1.77307e-14
3.66573e-14
6.23087e-29
8.90245e-28
9.16639e-27
8.2623e-26
6.29447e-25
4.05716e-24
2.14591e-23
1.07191e-22
4.25435e-22
1.63171e-21
7.81013e-21
5.31099e-20
5.23775e-18
1.40137e-16
2.04767e-15
3.83176e-14
1.57041e-14
7.77991e-15
3.01027e-14
1.55753e-29
2.40317e-28
2.9453e-27
3.14439e-26
2.81561e-25
2.10449e-24
1.30011e-23
7.63398e-23
3.10419e-22
1.23528e-21
4.33241e-21
1.71981e-20
2.69788e-18
7.42719e-17
1.13467e-15
1.24171e-14
1.12081e-14
4.94808e-15
2.65701e-14
5.55529e-30
1.04944e-28
1.55029e-27
1.90388e-26
1.9406e-25
1.67432e-24
1.27779e-23
9.04158e-23
4.5288e-22
2.33652e-21
1.15742e-20
3.7438e-20
2.28528e-19
1.98758e-17
3.12049e-16
4.87929e-15
6.7853e-15
5.3481e-15
2.2408e-14
1.7033e-30
3.50366e-29
5.5121e-28
7.27618e-27
7.61892e-26
6.60965e-25
5.3609e-24
3.99326e-23
2.07243e-22
1.09916e-21
6.07885e-21
2.91613e-20
1.07199e-19
1.84515e-18
4.89492e-17
1.06528e-15
3.89046e-15
5.1727e-15
1.56495e-14
3.72944e-31
8.55262e-30
1.71268e-28
2.73334e-27
3.56166e-26
3.80292e-25
3.43985e-24
2.76637e-23
1.66968e-22
9.14157e-22
4.26911e-21
1.69994e-20
5.95108e-20
1.88443e-19
3.60522e-18
8.50508e-17
2.13915e-15
3.93533e-15
7.51839e-15
9.15412e-32
2.37019e-30
5.21277e-29
9.56296e-28
1.43711e-26
1.82384e-25
2.02981e-24
1.83327e-23
1.27325e-22
7.82482e-22
4.08397e-21
1.83567e-20
6.99684e-20
2.5159e-19
1.1818e-18
2.05252e-17
8.10974e-16
1.29079e-15
3.20206e-15
1.93897e-32
5.70318e-31
1.41435e-29
2.9436e-28
5.00309e-27
7.25733e-26
9.97485e-25
9.50796e-24
8.37487e-23
5.6729e-22
3.36982e-21
1.61326e-20
6.24345e-20
1.93696e-19
1.28903e-18
1.65707e-17
4.11963e-16
5.72015e-16
3.07451e-15
3.27146e-33
1.11486e-31
3.19359e-30
7.73265e-29
1.57073e-27
2.7538e-26
4.17802e-25
4.7627e-24
5.15027e-23
3.59121e-22
2.32044e-21
1.27483e-20
4.70014e-20
1.56285e-19
6.77883e-19
1.86889e-17
2.51339e-16
3.53821e-16
2.5461e-15
3.7833e-34
1.54594e-32
5.27033e-31
1.49435e-29
3.52222e-28
7.00397e-27
1.16914e-25
1.49125e-24
1.92541e-23
1.60526e-22
1.2173e-21
6.95149e-21
3.23573e-20
1.23766e-19
7.08445e-19
6.40496e-18
1.33253e-16
2.41824e-16
1.69391e-15
1.9007e-35
9.99236e-34
4.33221e-32
1.53769e-30
4.46727e-29
1.07976e-27
2.16286e-26
3.29542e-25
5.11942e-24
4.50548e-23
4.15099e-22
2.5819e-21
1.37509e-20
6.61242e-20
3.22202e-19
1.60714e-18
6.5225e-17
1.28084e-16
1.03591e-15
8.44765e-37
5.50217e-35
2.87146e-33
1.18409e-31
4.06577e-30
1.21022e-28
3.03756e-27
5.11593e-26
1.02989e-24
1.17751e-23
1.0565e-22
7.30101e-22
4.44935e-21
2.28204e-20
1.35473e-19
3.73508e-19
1.32101e-17
3.51558e-17
5.8537e-16
1.22084e-38
1.12597e-36
7.77703e-35
4.16311e-33
1.74206e-31
5.11808e-30
2.30004e-28
7.04833e-27
1.33534e-25
1.86955e-24
1.92825e-23
1.4534e-22
8.15444e-22
4.01114e-21
2.20554e-20
9.71691e-21
1.7439e-18
3.28101e-18
1.3161e-16
)
;

boundaryField
{
    leftWall
    {
        type            zeroGradient;
    }
    rightWall
    {
        type            zeroGradient;
    }
    lowerWall
    {
        type            zeroGradient;
    }
    atmosphere
    {
        type            inletOutlet;
        inletValue      uniform 0;
        value           nonuniform List<scalar> 
46
(
0
0
0
0
0
0
0
0
0
0
0
0
0
0
0
0
0
0
0
0
0
0
0
0
0
0
0
0
0
0
0
1.74206e-31
5.11808e-30
2.30004e-28
7.04833e-27
1.33534e-25
1.86955e-24
1.92825e-23
1.4534e-22
8.15444e-22
0
2.20554e-20
0
0
0
1.3161e-16
)
;
    }
    defaultFaces
    {
        type            empty;
    }
}


// ************************************************************************* //
