/*--------------------------------*- C++ -*----------------------------------*\
| =========                 |                                                 |
| \\      /  F ield         | OpenFOAM: The Open Source CFD Toolbox           |
|  \\    /   O peration     | Version:  2312                                  |
|   \\  /    A nd           | Website:  www.openfoam.com                      |
|    \\/     M anipulation  |                                                 |
\*---------------------------------------------------------------------------*/
FoamFile
{
    version     2.0;
    format      ascii;
    arch        "LSB;label=32;scalar=64";
    class       volScalarField;
    location    "0.5";
    object      alpha.air;
}
// * * * * * * * * * * * * * * * * * * * * * * * * * * * * * * * * * * * * * //

dimensions      [0 0 0 0 0 0 0];

internalField   nonuniform List<scalar> 
2268
(
1.23951e-16
1.00625e-16
7.46141e-17
7.68203e-17
8.08142e-17
7.83099e-17
6.67814e-17
5.6302e-17
4.92679e-17
4.56506e-17
3.96177e-17
3.11288e-17
2.34954e-17
1.60719e-17
1.28436e-17
1.34335e-17
1.87606e-17
3.08456e-17
4.84046e-17
6.38791e-17
5.89647e-17
2.3783e-17
5.52551e-18
1.93435e-15
1.57151e-15
9.65889e-16
1.43224e-15
2.02464e-15
2.31514e-15
1.9326e-15
1.52387e-15
1.23348e-15
9.98391e-16
7.96833e-16
6.04405e-16
4.51149e-16
3.08851e-16
2.29773e-16
1.88831e-16
2.24793e-16
2.89715e-16
4.02312e-16
4.87321e-16
3.97615e-16
1.62988e-16
3.15703e-17
1.55848e-14
1.76451e-14
3.01717e-14
5.37318e-14
5.49214e-14
5.21943e-14
3.94352e-14
2.97572e-14
2.21919e-14
1.51786e-14
1.23277e-14
8.45551e-15
5.22913e-15
2.91917e-15
1.61498e-15
1.31796e-15
1.06555e-15
1.29057e-15
1.43675e-15
1.78674e-15
1.91255e-15
8.04197e-16
1.5447e-16
6.06597e-13
5.68786e-13
5.77762e-13
5.53073e-13
5.461e-13
5.3205e-13
5.08334e-13
4.66477e-13
4.2171e-13
3.74655e-13
3.17653e-13
2.44594e-13
1.53974e-13
7.16829e-14
3.54518e-14
1.77371e-14
9.09972e-15
4.81254e-15
6.6431e-15
6.82096e-15
5.52136e-15
2.55304e-15
3.54357e-16
1.53329e-11
1.50204e-11
1.54193e-11
1.53711e-11
1.50717e-11
1.45278e-11
1.37543e-11
1.27982e-11
1.17821e-11
1.07491e-11
9.64428e-12
8.26963e-12
6.41878e-12
3.93338e-12
1.82102e-12
4.29038e-13
1.72854e-13
6.54952e-14
3.40837e-14
2.15191e-14
2.04689e-14
1.53261e-14
2.5518e-15
6.89149e-11
6.90301e-11
7.00591e-11
6.97422e-11
6.7318e-11
6.33812e-11
5.91165e-11
5.55159e-11
5.18153e-11
4.84452e-11
4.54685e-11
4.2093e-11
3.67448e-11
2.88722e-11
1.80631e-11
8.01503e-12
2.5793e-12
5.56783e-13
1.36946e-13
8.73684e-14
6.61292e-14
7.45748e-14
1.37316e-14
1.10914e-10
1.12037e-10
1.12974e-10
1.12128e-10
1.06829e-10
9.94815e-11
9.24426e-11
8.75719e-11
8.18678e-11
7.7301e-11
7.37507e-11
7.00656e-11
6.22567e-11
5.32387e-11
4.40373e-11
2.77922e-11
1.23498e-11
3.63638e-12
8.17591e-13
2.678e-13
1.95027e-13
1.51054e-13
3.9577e-14
1.57735e-10
1.60972e-10
1.62328e-10
1.59822e-10
1.53071e-10
1.41689e-10
1.31531e-10
1.26583e-10
1.18591e-10
1.13615e-10
1.09302e-10
1.05924e-10
9.46262e-11
7.89095e-11
8.1612e-11
7.6465e-11
4.92177e-11
1.25384e-11
2.64746e-12
6.63885e-13
5.30848e-13
6.11425e-13
1.26394e-13
6.53572e-05
4.01669e-05
7.40706e-09
9.09049e-07
1.08125e-06
1.71192e-08
0.0343587
0.439753
0.801212
0.883995
0.902401
0.916405
0.917239
0.888353
0.861392
0.861047
0.757481
0.179207
0.0447231
6.53549e-05
3.78838e-05
3.72501e-09
2.02225e-07
5.90465e-07
1.71741e-08
0.093651
0.706627
0.981483
0.994741
0.999343
0.999345
0.999345
0.999345
0.911421
0.740823
0.740754
0.63676
0.0755298
6.53572e-05
1.36039e-05
5.07556e-09
1.63502e-08
1.50334e-08
1.50061e-08
0.0142365
0.424366
0.938562
0.993387
0.988303
0.970662
0.984462
0.997968
0.966149
0.695315
0.526393
0.316077
0.0475091
5.62454e-05
3.83965e-06
5.85312e-09
6.83726e-08
2.87647e-08
1.6797e-08
1.63931e-08
0.106584
0.48428
0.581511
0.451897
0.317888
0.384147
0.626857
0.688008
0.518131
0.167779
0.00355699
0.0124333
3.24165e-06
5.33008e-09
4.74501e-09
3.35222e-07
2.31579e-07
5.55162e-08
0.00323542
0.0412033
0.0340995
0.00199586
2.57361e-05
2.18002e-05
2.37296e-05
1.72002e-05
0.0438909
0.0810424
0.0448815
0.00224619
0.00258003
3.18953e-06
0.00103529
0.000370991
9.01446e-07
5.75432e-07
0.00311112
0.00571543
0.00196957
0.00197625
0.000628041
0.000546503
0.00102787
0.00069436
0.000154499
-2.15011e-23
3.25621e-17
1.11022e-19
0.000544811
0.000498351
0.0311466
0.0451008
0.0325186
0.0175579
0.0086181
0.00377416
0.00208367
0.00197886
0.00196895
0.00509356
0.0119422
0.0136462
0.0105793
0.00116367
3.26371e-17
4.31713e-07
5.12279e-07
5.42428e-07
0.000385499
0.0677831
0.0676769
0.0553603
0.0442913
0.0404578
0.0290499
0.00991282
0.00364656
0.0078793
0.0173285
0.0173282
0.0173119
0.0126532
0.00156821
1.64927e-13
7.0814e-06
4.84837e-06
1.17842e-06
0.0299695
2.26101e-10
2.2935e-10
2.30803e-10
2.3096e-10
2.26013e-10
2.15912e-10
2.04117e-10
1.91573e-10
1.84356e-10
1.85217e-10
1.8733e-10
1.82001e-10
1.55076e-10
1.24401e-10
1.36025e-10
1.98525e-10
2.17695e-10
1.07008e-10
1.60893e-11
3.89533e-12
3.70675e-12
3.1759e-12
9.96793e-13
3.81701e-10
4.27859e-10
3.95823e-10
3.60683e-10
3.27258e-10
3.2426e-10
3.26334e-10
3.14288e-10
2.97186e-10
3.22798e-10
3.7774e-10
3.44348e-10
2.85842e-10
2.2334e-10
2.74695e-10
5.76385e-10
6.13184e-10
3.975e-10
1.88588e-10
1.16769e-10
9.05602e-11
5.62188e-11
2.92834e-11
5.02788e-10
5.63195e-10
5.19131e-10
4.66361e-10
3.57036e-10
3.47782e-10
3.56762e-10
3.30845e-10
2.95803e-10
3.41242e-10
4.40079e-10
3.7738e-10
9.26547e-11
8.91041e-11
5.28894e-11
5.49266e-11
4.85917e-11
4.13325e-11
4.1167e-11
4.31387e-11
4.29832e-11
5.01173e-11
7.37438e-10
0.0151572
0.0117236
0.00650865
0.00150973
2.85251e-10
2.90065e-10
2.86872e-10
2.75691e-10
2.6436e-10
2.69159e-10
2.6436e-10
2.77125e-10
2.03072e-05
0.00228726
0.00164911
0.000335539
8.59339e-06
7.59177e-06
7.50653e-06
3.24317e-06
2.27737e-07
5.51248e-08
1.84464e-08
0.607856
0.586066
0.543482
0.471968
0.374592
0.280779
0.185092
0.100821
0.047017
0.0220503
0.0280088
0.0732298
0.0783482
0.0435628
0.0205322
0.00948253
0.00282667
3.85446e-06
3.6967e-06
1.80617e-06
8.81899e-07
1.60133e-07
6.48272e-10
1
1
0.999999
0.999994
0.996511
0.957724
0.890339
0.787821
0.67678
0.592294
0.545129
0.404789
0.1647
0.0429911
0.0141234
0.00186487
0.000936314
6.01742e-05
1.21743e-06
2.55684e-07
-1.88554e-22
-2.54727e-14
1.91791e-05
1
1
0.999999
0.999982
0.999945
0.999911
0.999861
0.984926
0.960167
0.92201
0.70773
0.360135
0.169421
0.0810737
0.0354488
0.0143422
0.00677979
0.00483575
0.000198999
2.13893e-05
0.00438459
0.0215005
0.0449148
1
1
0.999987
0.999971
0.999971
0.999971
0.999968
0.988653
0.955124
0.905784
0.915232
0.959294
0.93779
0.815431
0.690888
0.588264
0.50534
0.44126
0.388233
0.378279
0.413515
0.480606
0.574507
1
1
0.999992
0.999985
0.999985
0.998608
0.996693
0.999789
1
1
0.999999
0.999993
0.999966
0.999957
0.999979
0.999984
0.999995
0.999999
0.999999
1
1
1
1
1
1
0.999999
0.999999
0.999965
0.997916
0.99763
0.999985
0.999996
1
1
1
1
0.999965
0.999952
0.999952
0.999978
0.999997
0.999999
0.999999
1
1
1
1
1
1
1
0.999991
0.999828
1
0.999882
0.999977
1
1
1
1
1
0.999991
0.999983
0.999983
0.999998
1
1
1
1
1
1
1
1
1
1
1
1
1
1
1
1
1
1
1
1
1
1
1
1
1
1
1
1
1
1
1
1
1
1
1
1
1
1
1
1
1
1
1
1
1
1
1
1
1
1
0.99996
1
1
1
1
1
1
1
1
1
1
1
1
1
1
1
1
1
1
0.999999
0.999999
0.999989
0.999999
0.999861
1
1
1
1
1
1
1
1
1
1
1
1
1
1
1
1
1
1
0.999999
0.999998
0.999973
0.999971
1
1
1
1
1
1
1
1
1
1
1
1
1
1
1
1
1
1
1
1
0.999997
0.999997
1
1
1
1
1
1
1
1
1
1
1
1
1
1
1
1
1
1
1
1
1
1
1
1
1
1
1
1
1
1
1
1
1
1
1
1
1
1
1
1
1
1
1
1
1
1
1
1
1
1
1
1
1
1
1
1
1
1
1
1
1
1
1
1
1
1
1
1
1
1
1
1
1
1
1
1
1
1
1
1
1
1
1
1
1
1
1
1
1
1
1
1
1
1
1
1
1
1
1
1
1
1
1
1
1
1
1
1
1
1
1
1
1
1
1
1
1
1
1
1
1
1
1
1
1
1
1
1
1
1
1
1
1
1
1
1
1
1
1
1
1
1
1
1
1
1
1
1
1
1
1
1
1
1
1
1
1
1
1
1
1
1
1
1
1
1
1
1
1
1
1
1
1
1
1
1
1
1
1
1
1
1
1
1
1
1
1
1
1
1
1
1
1
1
1
1
1
1
1
1
1
1
1
1
1
1
1
1
1
1
1
1
1
1
1
1
1
1
1
1
1
1
1
1
1
1
1
1
1
1
1
1
1
1
1
1
1
1
1
1
1
1
1
1
1
1
1
1
1
1
1
1
1
1
1
1
1
1
1
1
1
1
1
1
1
1
1
1
1
1
1
1
1
1
1
1
1
1
1
1
1
1
1
1
1
1
1
1
1
1
1
1
1
1
1
1
1
1
1
1
1
1
1
1
1
1
1
1
1
1
1
1
1
1
1
1
1
1
1
1
1
1
1
1
1
1
1
1
1
1
1
1
1
1
1
1
1
1
1
1
1
1
1
1
1
1
1
1
1
1
1
1
1
1
1
1
1
1
1
1
1
1
1
1
1
1
1
1
1
1
1
1
1
1
1
1
1
1
1
1
1
1
1
1
1
1
1
1
1
1
1
1
1
1
1
1
1
1
1
1
1
1
1
1
1
1
1
1
1
1
1
1
1
1
1
1
1
1
1
1
1
1
1
1
1
1
1
1
1
1
1
1
1
1
1
1
1
1
1
1
1
1
1
1
1
1
1
1
1
1
1
1
1
1
1
1
1
1
1
1
1
1
1
1
1
1
1
1
1
1
1
1
1
1
1
1
1
1
1
1
1
1
1
1
1
1
1
1
1
1
1
1
1
1
1
1
1
1
1
1
1
1
1
1
1
1
1
1
1
1
1
1
1
1
1
1
1
1
1
1
1
1
1
1
1
1
1
1
1
1
1
1
1
1
1
1
1
1
1
1
1
1
1
1
1
1
1
1
1
1
1
1
1
1
1
1
1
1
1
1
1
1
1
1
1
1
1
1
1
1
1
1
1
1
1
1
1
1
1
1
1
1
1
1
1
1
1
1
1
1
1
1
1
1
1
1
1
1
1
1
3.90385e-13
7.09192e-13
4.59522e-12
0.0161715
3.67553e-12
8.00889e-11
0.00016548
7.24506e-09
8.67868e-10
1.32641e-09
1.13411e-09
2.84182e-10
1.10132e-08
8.05084e-09
3.05586e-09
2.61995e-10
7.14478e-11
-2.88119e-11
-1.24351e-11
-2.77918e-14
0.0025694
0.00720508
0.0141102
0.0224576
0.0647995
0.0830883
0.108101
0.14026
0.645065
0.706408
0.776157
0.846111
1
1
1
1
1
1
1
1
1
1
0.999999
0.999976
1
0.999897
0.999769
0.999527
0.999936
0.999549
0.999474
0.999475
0.999843
0.99994
0.99996
1
0.999987
1
1
0.999999
1
1
1
1
1
1
1
1
1
1
1
1
1
1
1
1
1
1
1
1
1
1
1
1
1
1
1
1
1
1
1
1
1
1
1
1
1
1
1
1
1
1
1
1
1
1
1
1
1
1
1
1
1
1
1
1
1
1
1
1
1
1
1
1
1
1
1
1
1
1
1
1
1
1
1
1
1
1
1
1
1
1
1
1
1
1
1
1
1
1
1
1
1
1
1
1
1
1
1
1
1
1
1
1
1
1
1
1
0.050902
0.0318048
0.0182683
0.0344265
0.0400321
0.0398088
0.0197105
0.00671718
0.0114771
0.0172026
0.0172415
0.00790328
0.00515579
0.000865841
4.60983e-05
7.44927e-06
7.64191e-06
1.51708e-06
0.0435819
9.87041e-16
3.95683e-23
5.26317e-23
0.00108603
0.0170342
0.0140404
0.00449864
2.93777e-05
0.000473847
0.00357821
0.00810517
0.00516683
1.90956e-05
1.3684e-07
2.74306e-05
7.47004e-06
1.89435e-05
1.44922e-06
0.0224938
8.57695e-06
1.07558e-05
5.27223e-06
2.2218e-24
-3.46471e-22
-3.37318e-21
1.15515e-09
-2.35403e-07
-3.00972e-06
-1.06635e-05
0.0140455
0.0344936
0.0185466
0.00207334
2.97717e-05
0.000758444
0.000280627
0.000765354
0.00100222
1.38692e-06
8.22117e-06
-2.49426e-08
-1.38674e-17
-1.30842e-19
-1.58845e-19
0.00016165
0.038753
0.0910256
0.1508
0.285716
0.326833
0.178897
0.00589707
2.97989e-05
0.000814465
0.000288667
0.00501067
0.0631835
-3.16958e-09
-6.1763e-11
0.00470362
0.0451066
0.0954729
0.137805
0.227647
0.275891
0.34002
0.448544
0.62345
0.819118
0.62978
0.113283
2.92176e-05
0.000793825
0.000393725
0.00948789
0.096736
0.060908
0.123322
0.223925
0.249617
0.310149
0.444241
0.593651
0.786968
0.954986
0.999999
1
1
0.999969
0.333614
0.00161293
0.000164461
0.00105775
0.00843249
0.096361
0.236214
0.438482
0.629244
0.816936
0.946123
1
1
1
1
1
1
0.999975
0.999958
0.711176
0.0540122
0.000156319
0.0018678
0.00302443
0.0457941
0.961547
1
1
1
1
1
1
1
1
1
0.999974
0.999952
0.999948
0.751054
0.0347282
0.000154545
0.00187799
0.000347684
1.27216e-08
1
1
0.999991
0.99999
0.999997
1
1
1
1
0.999998
0.999983
0.999976
0.999976
0.551218
4.66039e-05
0.000293147
0.00185615
0.000616428
1.27217e-08
0.999975
0.99983
0.999871
0.999972
0.999999
1
1
1
1
0.999999
0.999998
0.969613
0.546784
0.0816239
2.96505e-06
0.000261554
0.00156113
0.000540354
1.26919e-08
0.999654
0.999655
0.999858
0.999992
1
1
1
1
1
1
0.869064
0.272839
0.00659012
2.96516e-06
3.24348e-06
5.9853e-05
8.94756e-05
5.71159e-05
1.27712e-08
0.999527
0.999809
0.999998
1
1
1
1
1
1
0.976673
0.379231
2.78673e-07
2.89213e-07
3.66212e-06
1.53257e-05
5.17326e-06
1.40453e-07
1.30838e-12
1.02474e-07
0.999896
1
1
1
1
1
1
1
1
0.975868
0.35873
2.83719e-07
2.93084e-07
4.94105e-06
1.68331e-05
1.66947e-05
5.25911e-06
2.93966e-16
1.11315e-07
1
1
1
1
1
1
1
1
1
1
0.839392
0.182476
3.95576e-07
8.40177e-07
6.73333e-06
1.08632e-05
4.35713e-06
1.25126e-16
4.32778e-08
1
1
1
1
1
1
1
1
1
1
1
0.860947
0.210413
1.50222e-08
8.72856e-09
1.95964e-07
1.47255e-07
9.04854e-11
4.67177e-10
1
1
1
1
1
1
1
1
1
1
1
1
0.929613
0.373897
0.00946941
1.49448e-10
1.48687e-10
2.1062e-10
5.04516e-10
1
1
1
1
1
1
1
1
1
1
1
1
1
0.987821
0.671295
0.17574
0.00551562
2.04845e-10
6.54874e-10
1
1
1
1
1
1
1
1
1
1
1
1
1
1
1
0.875102
0.319271
2.06076e-10
6.64549e-10
1
1
1
1
1
1
1
1
1
1
1
1
1
1
1
0.999999
0.610685
2.04845e-10
6.77838e-10
1
1
1
1
1
1
1
1
1
1
1
1
1
1
1
1
0.842496
0.481197
7.83127e-10
1
1
1
1
1
1
1
1
1
1
1
1
1
1
1
0.996579
0.920107
0.977681
1.03052e-09
1
1
1
1
1
1
1
1
1
1
1
1
1
1
1
0.998398
0.988939
0.994514
0.0552377
1
1
1
1
1
1
1
1
1
1
1
1
1
1
1
0.999206
0.999931
1
0.166364
1
1
1
1
1
1
1
1
1
1
1
1
1
1
1
0.999869
0.99995
1
0.227522
1
1
1
1
1
1
1
1
1
1
1
1
1
1
1
1
0.999983
1
0.229983
1
1
1
1
1
1
1
1
1
1
1
1
1
1
1
1
1
1
0.223361
1
1
1
1
1
1
1
1
1
1
1
1
1
1
1
1
1
0.999326
0.28688
1
1
1
1
1
1
1
1
1
1
1
1
1
1
1
1
1
1
0.717326
1
1
1
1
1
1
1
1
1
1
1
1
1
1
1
1
1
1
0.69564
1
1
1
1
1
1
1
1
1
1
1
1
1
1
1
1
1
1
0.343365
1
1
1
1
1
1
1
1
1
1
1
1
1
1
1
1
1
0.997505
0.20772
1
1
1
1
1
1
1
1
1
1
1
1
1
1
1
1
1
0.958232
0.20772
1
1
1
1
1
1
1
1
1
1
1
1
1
1
1
1
1
0.901843
0.300348
1
1
1
1
1
1
1
1
1
1
1
1
1
1
1
1
0.998878
0.937377
0.898401
1
1
1
1
1
1
1
1
1
1
1
1
1
1
1
1
0.999296
0.998295
0.998373
1
1
1
1
1
1
1
1
1
1
1
1
1
1
1
1
0.999967
1
0.946541
1
1
1
1
1
1
1
1
1
1
1
1
1
1
1
1
1
1
0.568636
1
1
1
1
1
1
1
1
1
1
1
1
1
1
1
1
1
1
0.208586
1
1
1
1
1
1
1
1
1
1
1
1
1
1
1
1
1
1
0.159866
1
1
1
1
1
1
1
1
1
1
1
1
1
1
1
1
1
0.972892
0.15903
1
1
1
1
1
1
1
1
1
1
1
1
1
1
1
1
1
1
0.257538
1
1
1
1
1
1
1
1
1
1
1
1
1
1
1
1
1
1
0.823494
)
;

boundaryField
{
    leftWall
    {
        type            alphaContactAngle;
        thetaProperties 
6
(
(galistan air) 90 0 0 0
(oil galistan) 90 0 0 0
(water oil) 90 0 0 0
(water air) 90 0 0 0
(oil air) 90 0 0 0
(water galistan) 90 0 0 0
);
        value           nonuniform List<scalar> 
50
(
1.23951e-16
1.93435e-15
1.55848e-14
6.06597e-13
1.53329e-11
6.89149e-11
1.10914e-10
1.57735e-10
2.26101e-10
3.81701e-10
5.02788e-10
0.0151572
0.607856
1
1
1
1
1
1
1
1
1
1
1
1
1
1
1
1
1
1
1
1
1
1
1
1
1
1
1
1
1
1
1
1
1
1
1
1
1
)
;
    }
    rightWall
    {
        type            alphaContactAngle;
        thetaProperties 
6
(
(galistan air) 90 0 0 0
(oil galistan) 90 0 0 0
(water oil) 90 0 0 0
(water air) 90 0 0 0
(oil air) 90 0 0 0
(water galistan) 90 0 0 0
);
        value           nonuniform List<scalar> 
50
(
0.0447231
0.0755298
0.0475091
0.0124333
0.00258003
0.000498351
0.000385499
0.0299695
0.0435819
0.0224938
0.00100222
0.0631835
0.096736
0.096361
0.0457941
1.27216e-08
1.27217e-08
1.26919e-08
1.27712e-08
1.02474e-07
1.11315e-07
4.32778e-08
4.67177e-10
5.04516e-10
6.54874e-10
6.64549e-10
6.77838e-10
7.83127e-10
1.03052e-09
0.0552377
0.166364
0.227522
0.229983
0.223361
0.28688
0.717326
0.69564
0.343365
0.20772
0.20772
0.300348
0.898401
0.998373
0.946541
0.568636
0.208586
0.159866
0.15903
0.257538
0.823494
)
;
    }
    lowerWall
    {
        type            alphaContactAngle;
        thetaProperties 
6
(
(galistan air) 90 0 0 0
(oil galistan) 90 0 0 0
(water oil) 90 0 0 0
(water air) 90 0 0 0
(oil air) 90 0 0 0
(water galistan) 90 0 0 0
);
        value           nonuniform List<scalar> 
62
(
1.23951e-16
1.00625e-16
7.46141e-17
7.68203e-17
8.08142e-17
7.83099e-17
6.67814e-17
5.6302e-17
4.92679e-17
4.56506e-17
3.96177e-17
3.11288e-17
2.34954e-17
1.60719e-17
1.28436e-17
1.34335e-17
1.87606e-17
3.08456e-17
4.84046e-17
6.38791e-17
5.89647e-17
2.3783e-17
5.52551e-18
5.52551e-18
3.15703e-17
1.5447e-16
3.54357e-16
2.5518e-15
1.37316e-14
3.9577e-14
1.26394e-13
3.90385e-13
7.09192e-13
4.59522e-12
0.0161715
6.53572e-05
6.53549e-05
6.53572e-05
5.62454e-05
3.24165e-06
3.18953e-06
0.0311466
0.0677831
6.53572e-05
4.01669e-05
7.40706e-09
9.09049e-07
1.08125e-06
1.71192e-08
0.0343587
0.439753
0.801212
0.883995
0.902401
0.916405
0.917239
0.888353
0.861392
0.861047
0.757481
0.179207
0.0447231
)
;
    }
    atmosphere
    {
        type            inletOutlet;
        inletValue      uniform 1;
        value           nonuniform List<scalar> 
46
(
1
1
1
1
1
1
1
1
1
1
1
1
1
1
1
1
1
1
1
1
1
1
1
1
1
1
1
1
1
1
1
1
1
1
1
1
1
1
1
1
1
1
1
1
1
0.823494
)
;
    }
    defaultFaces
    {
        type            empty;
    }
}


// ************************************************************************* //
