/*--------------------------------*- C++ -*----------------------------------*\
| =========                 |                                                 |
| \\      /  F ield         | OpenFOAM: The Open Source CFD Toolbox           |
|  \\    /   O peration     | Version:  2312                                  |
|   \\  /    A nd           | Website:  www.openfoam.com                      |
|    \\/     M anipulation  |                                                 |
\*---------------------------------------------------------------------------*/
FoamFile
{
    version     2.0;
    format      ascii;
    arch        "LSB;label=32;scalar=64";
    class       volScalarField;
    location    "0.5";
    object      p_rgh;
}
// * * * * * * * * * * * * * * * * * * * * * * * * * * * * * * * * * * * * * //

dimensions      [1 -1 -2 0 0 0 0];

internalField   nonuniform List<scalar> 
2268
(
4768.12
4781.99
4784.19
4786.63
4789.24
4791.83
4795.07
4800.65
4811.43
4832.2
4870.76
4939.23
5055.08
5241.28
5522.82
5917.59
6416.67
6975.18
7524.54
7998.44
8365.11
8604.58
8765.67
4759.89
4773.69
4775.96
4778.43
4781.02
4783.53
4786.67
4792.01
4802.31
4822.17
4859.18
4925.16
5037.27
5219.39
5496.75
5891.85
6398.87
6970.24
7532.88
8015.3
8386.26
8627.75
8792.12
4747.13
4760.97
4763.38
4765.97
4768.56
4771
4773.92
4778.76
4788
4805.89
4839.58
4900.32
5004.25
5173.21
5441.8
5836.45
6358.86
6955.32
7544.68
8043.49
8420.61
8663.18
8825.73
4726.91
4740.86
4743.37
4745.97
4748.51
4750.8
4753.34
4757.31
4764.85
4779.66
4808.22
4861.34
4956.39
5118.39
5362.41
5751.02
6295.53
6929.62
7561.51
8085.49
8471.53
8716.88
8880.03
4147.17
4186.05
4182.6
4171.74
4155.04
4131.85
4102.87
4071.27
4043.15
4028.32
4044.56
4119.62
4282.36
4581.44
5117.47
5614.07
6197.98
6890.49
7586.21
8144.47
8540.5
8789.79
8954.92
1441.85
1473.52
1471.3
1464.78
1454.84
1441.34
1425.42
1409.73
1398.19
1396.12
1412.24
1462.41
1569.04
1786.05
2296.81
3697.55
5804.16
6825.84
7619.68
8223.69
8629
8883.57
9051.28
1087.53
1090.47
1095.87
1104.18
1114.93
1127.95
1142.98
1159.65
1177.59
1196.52
1216.31
1237.12
1259.51
1283.84
1311.96
1398.14
2842.6
6252.37
7661.8
8325.11
8737.11
9000.75
9168.57
1084.6
1087.63
1093.04
1101.39
1112.2
1125.28
1140.37
1157.1
1175.06
1193.95
1213.64
1234.25
1256.16
1279.79
1306.36
1337.26
1367.73
3395.73
7645.43
8451.56
8865.68
9146.66
9317.38
2827.83
2815.19
2796.21
2754.07
2693.4
2622.11
2545.77
2469.78
2412.34
2392.81
2382.94
2379.41
2381.96
2404.87
2609.81
3137.4
3823.79
4678.38
5460.29
2828.05
2817.12
2799.16
2756.56
2693.88
2619.38
2539.52
2439.12
2375.96
2357.63
2355.17
2358.26
2360.56
2360.76
2472.9
3206.29
3862.19
4718.98
5492.58
2829.18
2822.79
2805.14
2761.29
2695.71
2617.15
2537.16
2446.68
2374.9
2360.36
2355.51
2359.03
2360.97
2360.16
2425.48
3057.49
3727.94
4662.46
5465.03
2833.19
2831.46
2813.78
2766.31
2695.01
2611.89
2531.62
2460.97
2390.53
2376.1
2401.12
2425.38
2437.55
2393.37
2507.36
2963.8
3532.15
4479.29
5209.03
2837.89
2842.22
2823.51
2770.51
2690.6
2603.15
2527.11
2458.72
2427.28
2425.57
2454.24
2470.17
2627.4
2753.6
2809.52
2713.65
3120.1
4078.85
4786.58
2854.1
2856.45
2832.86
2772.07
2681.68
2589.13
2519.27
2461.2
2417.76
2405.45
2490.23
2901.43
3646.86
3513.34
2767.27
1681.89
2089.78
3494.22
4163.24
3205.06
3574.06
3453.33
3101.26
2711.64
2571.29
2515.31
2460.03
2406.1
2409.63
3462.74
3806.62
3580.75
3338.28
2637.94
1356.61
1401.18
2689.63
3799.96
6617.7
6978.92
6499.81
5579.96
4217.07
3069.03
2979.71
2990.83
2894.95
3269.42
3881.25
3669.76
3506.84
2998.56
1540.86
1107.34
1266.98
1518.39
3027.36
1078.99
1082.14
1087.65
1096.12
1107.11
1120.4
1135.72
1152.66
1170.76
1189.65
1209.18
1229.35
1250.39
1272.56
1296.64
1323.42
1352.93
1373.3
4619.96
8465.39
9097.6
9390.37
9531.71
1068.6
1071.91
1077.69
1086.55
1098
1111.86
1127.86
1145.51
1164.1
1183.11
1202.29
1221.49
1240.9
1260.85
1281.05
1300.44
1316.56
1310.59
1271.55
3808.05
7785.22
10001.8
10235.1
1054.91
1058.47
1064.78
1074.33
1086.56
1101.35
1118.47
1137.43
1156.91
1176.17
1194.74
1212.26
1229.09
1245.84
1262.64
1277.29
1285.49
1276.43
1228.42
1158
1528.41
2708.13
4869.83
1023.97
1030.73
1042.11
1056.91
1071.57
1087.86
1106.93
1128.47
1149.72
1169.7
1187.49
1202.31
1215.29
1226.08
1240.62
1255.11
1264
1260.69
1230.32
1175.3
1099.41
1051.09
1055.06
430.409
454.283
500.937
579.261
686.854
796.079
912.467
1020.54
1097.23
1143.14
1155.21
1121.17
1088.02
1073.29
1086.63
1135.44
1207.18
1259.14
1252.8
1233.19
1208.93
1188.79
1160.63
0.728234
0.733179
0.737834
0.723287
4.83922
51.6737
134.4
260.624
398.125
508.748
557.771
580.999
635.72
673.056
690.675
716.474
769.279
864.557
985.897
1077.1
1123.03
1152.53
1109.99
0.705105
0.707273
0.732242
0.752654
0.731216
0.612145
0.735929
10.9174
28.7324
55.9241
198.619
433.056
563.061
627.832
665.126
686.151
697.435
702.359
710.35
718.753
719.019
699.105
660.137
0.692373
0.678364
0.644531
0.569266
0.432619
0.361002
0.47382
8.64456
33.2831
69.8905
62.6687
30.3818
46.0973
135.786
227.333
302.76
363.687
410.78
449.784
457.094
431.173
381.824
312.791
0.627568
0.6173
0.574818
0.460831
0.284284
1.24962
2.75529
0.359519
0.236821
0.275915
0.312586
0.358481
0.376409
0.32314
0.262468
0.242024
0.211821
0.191259
0.178536
0.167423
0.162743
0.159643
0.153822
0.561694
0.546064
0.497011
0.384069
0.246117
1.76851
2.04972
0.179379
0.224776
0.253275
0.286366
0.309273
0.298623
0.317979
0.319044
0.306172
0.251286
0.207022
0.193859
0.18389
0.177609
0.174866
0.174041
0.504524
0.489305
0.448424
0.36443
0.247488
0.282565
0.12196
0.29036
0.249503
0.258197
0.280075
0.292357
0.289516
0.269992
0.267114
0.267725
0.255579
0.220087
0.205557
0.197168
0.193018
0.193827
0.198226
0.461483
0.450204
0.423453
0.373728
0.303789
0.2364
0.215806
0.230965
0.253442
0.268806
0.277755
0.280747
0.276452
0.264468
0.251526
0.240262
0.23081
0.222488
0.214971
0.209517
0.207963
0.21109
0.218202
0.429487
0.422306
0.406224
0.378763
0.341283
0.300178
0.274586
0.267792
0.271064
0.274582
0.275678
0.273831
0.268581
0.260024
0.250256
0.240853
0.232299
0.224675
0.218626
0.214616
0.213734
0.217149
0.264131
0.403007
0.398307
0.387736
0.370579
0.346212
0.317494
0.296173
0.284621
0.279678
0.276864
0.273695
0.269306
0.263386
0.25602
0.247866
0.239637
0.231802
0.224742
0.219823
0.217073
0.22767
0.218328
0.371702
0.379066
0.375656
0.367859
0.355334
0.33785
0.318813
0.302351
0.290361
0.282268
0.276329
0.270945
0.265286
0.259018
0.252101
0.244732
0.237226
0.22999
0.223447
0.218978
0.216826
0.245646
0.248909
0.21791
0.356596
0.353886
0.347657
0.338034
0.325489
0.311786
0.29895
0.288271
0.279806
0.272883
0.266658
0.260544
0.254244
0.247654
0.240816
0.233896
0.227251
0.221238
0.21653
0.216833
0.215554
0.213081
0.215201
0.335179
0.332864
0.327946
0.320631
0.311397
0.301173
0.291082
0.28195
0.274015
0.267077
0.260738
0.254633
0.248526
0.242301
0.23595
0.229571
0.22349
0.217973
0.213543
0.210637
0.209153
0.209026
0.210634
0.314958
0.313133
0.309268
0.303616
0.296568
0.288684
0.280626
0.272929
0.265842
0.259352
0.253292
0.247457
0.241685
0.235875
0.229986
0.224078
0.218387
0.213326
0.209204
0.206204
0.204317
0.203521
0.204174
0.296024
0.294562
0.291498
0.287058
0.281537
0.275301
0.268765
0.262286
0.256076
0.250191
0.24458
0.239137
0.233763
0.228368
0.222856
0.217327
0.212087
0.207384
0.203408
0.200267
0.197972
0.196542
0.19627
0.278192
0.277007
0.27455
0.271004
0.266589
0.26155
0.256168
0.250687
0.245276
0.240011
0.234893
0.229881
0.224911
0.219855
0.214684
0.209576
0.204721
0.200273
0.196363
0.193063
0.190382
0.188345
0.187169
0.261314
0.260341
0.258344
0.255466
0.251869
0.247725
0.243229
0.238555
0.233834
0.229143
0.224507
0.219915
0.215292
0.210546
0.205747
0.201019
0.19647
0.192209
0.188323
0.18486
0.181819
0.179207
0.177197
0.245255
0.244447
0.242803
0.24043
0.237452
0.23399
0.230184
0.226161
0.222024
0.217841
0.213646
0.209428
0.205107
0.200689
0.196244
0.191834
0.187533
0.183412
0.179529
0.175908
0.172533
0.169403
0.16664
0.229906
0.229226
0.227854
0.22587
0.223368
0.220435
0.217174
0.21368
0.210032
0.20629
0.202484
0.198582
0.194563
0.190471
0.186332
0.182189
0.17809
0.17408
0.170192
0.166428
0.162761
0.159173
0.155757
0.215168
0.21459
0.213431
0.211751
0.209621
0.207105
0.204282
0.201221
0.197981
0.194619
0.191138
0.18753
0.183819
0.180017
0.176145
0.17223
0.168301
0.164385
0.160492
0.156611
0.152699
0.148733
0.144774
0.200961
0.200464
0.199475
0.198035
0.196201
0.19402
0.191555
0.188855
0.185949
0.182905
0.179716
0.1764
0.172967
0.169427
0.165791
0.162076
0.158299
0.154469
0.150584
0.146617
0.142516
0.138249
0.133859
0.187215
0.186785
0.185932
0.184686
0.183092
0.181182
0.179015
0.176639
0.173961
0.171218
0.16831
0.165261
0.162081
0.158777
0.155357
0.151827
0.148192
0.144451
0.140591
0.136576
0.132346
0.127863
0.123156
0.173871
0.173496
0.172756
0.17167
0.170276
0.168576
0.166652
0.164505
0.162143
0.159633
0.156969
0.15416
0.151213
0.148129
0.14491
0.141556
0.138064
0.134423
0.130614
0.126593
0.122295
0.11768
0.112767
0.16088
0.16055
0.159905
0.158953
0.157748
0.156175
0.15448
0.152558
0.15044
0.148157
0.145719
0.143133
0.140402
0.137527
0.134502
0.131324
0.12798
0.124457
0.120728
0.116746
0.112444
0.107782
0.10277
0.148197
0.147904
0.147343
0.146483
0.1454
0.144054
0.142519
0.140789
0.138879
0.136805
0.134578
0.132201
0.129678
0.127003
0.124172
0.121172
0.11799
0.114606
0.11099
0.107093
0.10285
0.0982179
0.0932055
0.135787
0.135516
0.13502
0.134269
0.133302
0.132117
0.130742
0.129188
0.127465
0.125586
0.123557
0.121381
0.119058
0.116583
0.113945
0.111133
0.108127
0.104905
0.101437
0.0976721
0.0935466
0.089021
0.084099
0.123606
0.123371
0.12293
0.12227
0.121413
0.120363
0.119137
0.117746
0.116198
0.114502
0.112662
0.110681
0.108555
0.106279
0.103841
0.101226
0.0984138
0.0953803
0.0920928
0.0885047
0.084554
0.0802022
0.0754538
0.111639
0.111434
0.111046
0.110465
0.109709
0.108781
0.107693
0.106454
0.105071
0.10355
0.101894
0.100104
0.0981752
0.0961007
0.0938687
0.0914628
0.0888624
0.0860418
0.0829693
0.0795997
0.0758758
0.0717621
0.0672595
0.0998571
0.0996804
0.0993423
0.0988333
0.0981703
0.0973545
0.0963963
0.0953016
0.0940766
0.0927252
0.0912494
0.0896483
0.0879176
0.0860492
0.0840312
0.0818471
0.0794761
0.076893
0.0740663
0.0709545
0.0675043
0.0636819
0.0594909
0.0882414
0.0880885
0.0877972
0.0873544
0.0867789
0.0860688
0.0852336
0.0842774
0.083205
0.0820194
0.0807213
0.0793093
0.0777787
0.0761214
0.0743257
0.0723756
0.0702511
0.0679277
0.0653758
0.0625561
0.059421
0.0559409
0.0521128
0.0767686
0.0766366
0.0763905
0.0760096
0.0755169
0.0749075
0.0741904
0.0733683
0.072445
0.0714225
0.0703011
0.0690788
0.0677509
0.0663098
0.0647444
0.0630398
0.0611773
0.0591341
0.0568819
0.0543858
0.0516019
0.0485019
0.0450875
0.0654229
0.0653049
0.0651029
0.0647797
0.0643661
0.0638536
0.0632507
0.0625596
0.0617829
0.0609222
0.0599772
0.0589458
0.0578237
0.0566037
0.055276
0.053827
0.0522401
0.0504943
0.0485645
0.0464178
0.0440163
0.0413358
0.0383691
0.0541741
0.0540764
0.0539146
0.0536447
0.053307
0.0528882
0.052397
0.0518344
0.0512028
0.0505031
0.0497348
0.048896
0.0479826
0.0469885
0.045905
0.0447206
0.0434208
0.0419874
0.0403978
0.038624
0.0366309
0.0343929
0.0319124
0.0430172
0.0429289
0.0428061
0.0425861
0.0423217
0.0419941
0.041612
0.0411762
0.0406883
0.040149
0.0395577
0.0389128
0.0382109
0.0374467
0.0366129
0.0357003
0.0346967
0.0335872
0.0323531
0.0309695
0.0294058
0.0276409
0.0256651
0.0319429
0.0318562
0.0317702
0.0315969
0.0314028
0.0311638
0.0308883
0.0305768
0.0302306
0.0298501
0.0294352
0.0289843
0.0284949
0.0279628
0.0273823
0.0267461
0.0260449
0.025267
0.0243976
0.0234175
0.0223005
0.0210208
0.01958
0.0209535
0.0208605
0.0208058
0.0206764
0.0205494
0.0203962
0.0202245
0.0200346
0.0198275
0.0196038
0.0193632
0.019105
0.0188274
0.0185276
0.0182014
0.0178438
0.017448
0.0170057
0.0165064
0.0159358
0.0152745
0.0145025
0.0136034
0.0100024
0.00990119
0.00986348
0.00977873
0.00971652
0.00964762
0.00957844
0.00950892
0.00943979
0.00937155
0.00930448
0.00923841
0.00917259
0.00910553
0.009035
0.00895791
0.00887035
0.00876743
0.00864287
0.00848867
0.00829312
0.00803371
0.0077015
-0.0010497
-0.00122073
-0.0012403
-0.00128012
-0.00127786
-0.00126126
-0.00122618
-0.00117353
-0.00110276
-0.00101321
-0.000904146
-0.000774991
-0.000625443
-0.000455568
-0.000265839
-5.71377e-05
0.000169325
0.000412088
0.000669659
0.000940598
0.00122294
0.00150983
0.00179003
9385.55
9425.25
9399.68
9102.19
10204.8
10132.9
10010.2
9782.22
5954.26
6059.71
5638.33
4726.13
1045.03
1039.98
1040.77
1045.42
1139.89
1127.25
1117.94
1111.79
1061.18
1008.07
934.767
874.191
635.289
618.369
598.252
574.425
260.896
215.734
164.41
112.898
0.144651
0.143055
0.152364
0.170335
0.174724
0.17651
0.182494
0.194703
0.205487
0.211616
0.219934
0.249695
0.228053
0.332663
0.457683
0.694573
0.292611
0.689869
0.769841
0.772792
0.393959
0.290365
0.270415
0.231423
0.235677
0.223402
0.226109
0.229872
0.218057
0.220336
0.223053
0.225782
0.213022
0.214821
0.216915
0.218928
0.205694
0.206926
0.208355
0.209674
0.19691
0.197514
0.198248
0.198845
0.186941
0.186931
0.186979
0.186879
0.176157
0.175561
0.174976
0.17422
0.164866
0.163749
0.162585
0.16124
0.153345
0.151767
0.150108
0.148248
0.141828
0.139869
0.137787
0.135497
0.130487
0.12822
0.125807
0.123175
0.119465
0.116969
0.114306
0.11142
0.108861
0.106209
0.103381
0.100325
0.0987461
0.0960093
0.0930877
0.0899418
0.0891548
0.0863957
0.0834532
0.0802891
0.0801029
0.07738
0.074476
0.0713599
0.0715842
0.0689473
0.0661383
0.0631253
0.0635806
0.0610736
0.0584025
0.0555419
0.0560547
0.0537133
0.051222
0.0485521
0.0489661
0.0468219
0.0445385
0.0420946
0.0422649
0.0403416
0.0382971
0.0361035
0.0359064
0.0342264
0.0324349
0.0305147
0.0298304
0.0284065
0.026892
0.0252589
0.0239907
0.0228403
0.0216067
0.0202763
0.0183285
0.017459
0.0165277
0.0155064
0.0127961
0.0122212
0.0115866
0.0108815
0.00734035
0.00705616
0.00672955
0.00633563
0.00194006
0.00199664
0.00201777
0.00199069
8214.02
8203.76
7650.09
6703.52
5704.13
4549.75
4413.12
4333.41
4188.54
3689.96
2498.33
2196.02
2240.98
1516.82
924.782
996.51
1113.95
1145.93
2065.19
8679.03
6164.31
4070.78
3345.82
3518.72
3823.34
3861.69
3743.92
2657.93
1692.85
1318.64
1069.91
973.902
782.319
818.296
903.208
982.642
992.179
1057.67
2226.85
1050.88
1090.63
1121.21
1137.93
1141.71
1124.36
1089.02
1041.24
953.554
911.811
883.31
779.51
735.173
797.237
855.297
906.283
902.408
954.866
1058.11
1082.14
1091.87
1088.11
1069.76
1025.98
943.234
811.015
658.768
570.229
436.871
411.924
527.49
687.505
766.213
820.25
860.912
848.539
883.6
1090.37
996.212
886.148
778.588
689.587
597.819
485.772
420.038
370.481
304.048
206.894
99.9588
216.273
568.038
722.207
784.522
829.681
829.187
834.284
749.147
615.96
491.29
464.647
423.226
339.297
248.189
130.197
27.9154
0.610346
0.624611
0.757846
2.35952
402.767
689.536
757.878
807.706
831.618
823.326
509.823
376.919
249.348
123.19
36.5165
0.550244
0.340867
0.291566
0.290706
0.240827
0.304228
0.521373
0.913095
185.843
660.807
757.478
808.642
847.452
855.739
28.3355
0.308647
0.247711
0.283796
0.338008
0.373285
0.322923
0.280261
0.262805
0.292718
0.383144
0.538116
0.911747
175.237
704.515
787.469
836.32
878.479
909.165
0.219833
0.273282
0.279355
0.29838
0.319445
0.330346
0.313565
0.311848
0.328185
0.405005
0.661273
0.663037
1.47732
345.056
789.457
838.002
884.22
924.583
951.841
0.24351
0.403567
0.394735
0.330282
0.323331
0.322263
0.302705
0.287011
0.287309
0.301397
0.411402
25.2851
369.464
761.36
858.397
901.478
946.05
983.183
1006.95
0.552881
0.578466
0.422686
0.324647
0.328219
0.320583
0.294864
0.25381
0.181845
0.137067
115.305
637.386
882.973
901.399
929.539
971.69
1014.42
1049.65
1069.46
0.702545
0.451423
0.297715
0.317211
0.328461
0.330398
0.32341
0.302627
0.261291
22.2106
591.723
953.743
960.207
974.084
1001.68
1041.73
1084.94
1119.06
1135.43
0.35009
0.265398
0.28854
0.308989
0.327565
0.344636
0.367087
0.382559
0.409924
25.4023
655.055
1018.61
1025.57
1042.22
1071.69
1112.3
1155.5
1188
1201.4
0.24012
0.258422
0.278641
0.299266
0.321492
0.347684
0.380373
0.439
0.502403
0.748957
176.606
884.426
1086.08
1104.59
1135.36
1176.74
1220.92
1253.34
1264.38
0.236559
0.251358
0.268177
0.286703
0.307925
0.333674
0.365192
0.396815
0.446868
0.430897
0.116053
160.748
906.158
1161.24
1190.42
1231.53
1278.24
1312.67
1322.07
0.231007
0.242266
0.25546
0.270573
0.28795
0.307787
0.329263
0.34496
0.323668
0.260465
0.0393546
-0.355732
85.5073
765.23
1223.63
1273.62
1325.26
1364.57
1372.64
0.222644
0.230759
0.240407
0.251442
0.263626
0.276104
0.28631
0.287606
0.26134
0.164284
0.0264915
-0.139827
-0.27913
15.7945
425.896
1078.19
1353.34
1408.46
1414.31
0.21205
0.217292
0.223477
0.23028
0.237085
0.242538
0.243835
0.235593
0.208721
0.147911
0.0378363
-0.0763503
-0.0175547
0.291582
0.252896
168.552
956.669
1438.84
1445.23
0.199866
0.202427
0.205333
0.208126
0.210001
0.209553
0.204306
0.190289
0.162482
0.11484
0.0473264
-0.0531801
-0.0846718
-0.0374329
-0.250836
-0.462516
542.791
1444.34
1466.25
0.186617
0.186723
0.186643
0.185852
0.183507
0.178363
0.168637
0.150604
0.122076
0.0791958
0.0240908
-0.0438996
-0.13525
-0.240778
-0.454245
-0.61991
228.067
759.55
1488.34
0.172774
0.170695
0.167994
0.164131
0.15829
0.149314
0.135447
0.115666
0.0866695
0.0461481
-0.00684864
-0.0681957
-0.155576
-0.258171
-0.477099
4.55342
120.672
32.52
1525.2
0.158739
0.154773
0.149851
0.143461
0.13487
0.123139
0.107101
0.0854347
0.0560879
0.017057
-0.0338121
-0.0939279
-0.180167
-0.283036
-0.466568
1.65754
16.3701
8.39491
1493.62
0.144841
0.1393
0.132563
0.124162
0.11346
0.0996932
0.0819829
0.059259
0.0299477
-0.00757762
-0.0553164
-0.112927
-0.189421
-0.305
-0.437039
0.576696
-0.694523
-0.340691
1368.94
0.131339
0.124536
0.116373
0.106436
0.0941741
0.0789573
0.0600834
0.0367556
0.00785971
-0.0280626
-0.0722831
-0.12491
-0.187052
-0.282316
-0.354969
-0.235885
-0.345635
-0.316011
1316.99
0.118428
0.110663
0.101439
0.0903973
0.0770579
0.0608941
0.0413319
0.0177411
-0.0106302
-0.044864
-0.0861161
-0.132569
-0.184371
-0.250953
-0.280603
-0.297395
-0.194107
-0.153999
1361.37
0.106243
0.0977992
0.0878524
0.076093
0.0621047
0.0454387
0.0256143
0.00211485
-0.0256585
-0.0584393
-0.0969478
-0.13809
-0.186591
-0.230116
-0.242707
-0.217446
-0.0977956
0.00359466
1422.45
0.0948674
0.0860073
0.075644
0.0635162
0.049263
0.0325007
0.0128202
-0.0102149
-0.0371028
-0.0683988
-0.104009
-0.141028
-0.192661
-0.221282
-0.235684
-0.192072
-0.0688791
1.26906
1351.33
0.0843438
0.0753034
0.0647968
0.0526078
0.0384281
0.0219323
0.00277358
-0.0194225
-0.0451004
-0.0748256
-0.108946
-0.146627
-0.189599
-0.219055
-0.231887
-0.185022
-0.06675
-0.11265
552.188
0.0746784
0.0656669
0.0552554
0.0432715
0.0294575
0.0135454
-0.00474915
-0.0257351
-0.0497973
-0.0774784
-0.109282
-0.144963
-0.182766
-0.219431
-0.210357
-0.174025
-0.0463029
-0.0345167
613.407
0.0658489
0.0570469
0.0469339
0.0353785
0.0221726
0.007105
-0.0100422
-0.0294991
-0.0515587
-0.076656
-0.105192
-0.136845
-0.169671
-0.203249
-0.182017
-0.153333
-0.0143686
0.0800601
1366.42
0.0578119
0.0493716
0.0397251
0.0287785
0.0163707
0.00234636
-0.0134434
-0.0311413
-0.0509206
-0.0730466
-0.0977416
-0.124564
-0.151065
-0.17326
-0.161274
-0.127173
-0.0132749
5.47197
1698.49
0.0505069
0.0425531
0.0335066
0.0233063
0.0118337
-0.00101557
-0.0153265
-0.0311577
-0.0485571
-0.0676101
-0.0883536
-0.110336
-0.130236
-0.143046
-0.138963
-0.13817
-0.0238762
91.4473
1749.86
0.0438645
0.0364964
0.0281515
0.0187956
0.0083456
-0.00326167
-0.0160604
-0.0300395
-0.0451436
-0.0613016
-0.0783262
-0.095429
-0.110639
-0.116804
-0.108698
-0.0929479
0.0723247
222.438
1596.57
0.0378088
0.0311032
0.0235345
0.0150887
0.00570897
-0.00464063
-0.0159622
-0.0282088
-0.0412773
-0.0550104
-0.0691007
-0.0828874
-0.0947685
-0.0979929
-0.0849034
-0.0786893
2.57651
146.29
240.305
0.0322641
0.0262788
0.0195392
0.0120447
0.00375547
-0.00534906
-0.015261
-0.0259373
-0.0372938
-0.0491869
-0.0614238
-0.0738092
-0.0862026
-0.0948038
-0.0852633
-0.151154
1.28979
3.21723
3.31413
0.0271536
0.0219319
0.0160582
0.00954047
0.00234975
-0.00552832
-0.0140906
-0.0233191
-0.0331782
-0.043631
-0.0547798
-0.0671291
-0.0823173
-0.101839
-0.0982099
-0.192466
-0.341573
-0.606744
130.67
0.0224045
0.0179777
0.0129953
0.0074702
0.00138047
-0.0052875
-0.0125422
-0.020392
-0.0288403
-0.0380031
-0.04814
-0.0600667
-0.0766857
-0.103461
-0.0975712
-0.191214
-0.274686
-0.319552
1085.99
0.0179466
0.0143378
0.010264
0.00574204
0.000755442
-0.00471249
-0.0106779
-0.0171476
-0.0242081
-0.0320538
-0.0409346
-0.0513683
-0.0662406
-0.0947173
-0.0824171
-0.176142
-0.152598
-0.152352
2042.78
0.013717
0.0109413
0.00778683
0.0042744
0.000392586
-0.00387657
-0.00854041
-0.0136324
-0.0192772
-0.0256878
-0.0331395
-0.0415863
-0.0516193
-0.0811848
-0.0596104
-0.141093
-0.146573
-0.18162
2220.7
0.00963475
0.00770442
0.00548615
0.00300426
0.000259179
-0.00275909
-0.00616471
-0.00989085
-0.0140524
-0.0188901
-0.0248293
-0.0319635
-0.0371019
-0.0765718
-0.0505852
-0.150378
-0.187089
72.578
2275.3
0.00562781
0.00450433
0.00317024
0.00164858
-8.97115e-05
-0.00190671
-0.00384682
-0.00603567
-0.00855094
-0.0114976
-0.0149341
-0.0180817
-0.0170543
-0.0306079
-0.0162736
-0.0525159
-0.083677
-0.308646
2047.6
0.00191687
0.00176415
0.00148178
0.00109108
0.000538834
-0.000209101
-0.000950948
-0.00181005
-0.00287175
-0.00431779
-0.00685861
-0.0122032
-0.0145843
-0.0402796
-0.0607012
-0.132581
-0.606515
-0.984927
488.009
)
;

boundaryField
{
    leftWall
    {
        type            fixedFluxPressure;
        gradient        uniform 0;
        value           nonuniform List<scalar> 
50
(
4768.12
4759.89
4747.13
4726.91
4147.17
1441.85
1087.53
1084.6
1078.99
1068.6
1054.91
1023.97
430.409
0.728234
0.705105
0.692373
0.627568
0.561694
0.504524
0.461483
0.429487
0.403007
0.379066
0.356596
0.335179
0.314958
0.296024
0.278192
0.261314
0.245255
0.229906
0.215168
0.200961
0.187215
0.173871
0.16088
0.148197
0.135787
0.123606
0.111639
0.0998571
0.0882414
0.0767686
0.0654229
0.0541741
0.0430172
0.0319429
0.0209535
0.0100024
-0.0010497
)
;
    }
    rightWall
    {
        type            fixedFluxPressure;
        gradient        uniform 0;
        value           nonuniform List<scalar> 
50
(
5460.29
5492.58
5465.03
5209.03
4786.58
4163.24
3799.96
3027.36
2065.19
1057.67
954.866
883.6
834.284
823.326
855.739
909.165
951.841
1006.95
1069.46
1135.43
1201.4
1264.38
1322.07
1372.64
1414.31
1445.23
1466.25
1488.34
1525.2
1493.62
1368.94
1316.99
1361.37
1422.45
1351.33
552.188
613.407
1366.42
1698.49
1749.86
1596.57
240.305
3.31413
130.67
1085.99
2042.78
2220.7
2275.3
2047.6
488.009
)
;
    }
    lowerWall
    {
        type            fixedFluxPressure;
        gradient        uniform 0;
        value           nonuniform List<scalar> 
62
(
4768.12
4781.99
4784.19
4786.63
4789.24
4791.83
4795.07
4800.65
4811.43
4832.2
4870.76
4939.23
5055.08
5241.28
5522.82
5917.59
6416.67
6975.18
7524.54
7998.44
8365.11
8604.58
8765.67
8765.67
8792.12
8825.73
8880.03
8954.92
9051.28
9168.57
9317.38
9385.55
9425.25
9399.68
9102.19
2827.83
2828.05
2829.18
2833.19
2837.89
2854.1
3205.06
6617.7
2827.83
2815.19
2796.21
2754.07
2693.4
2622.11
2545.77
2469.78
2412.34
2392.81
2382.94
2379.41
2381.96
2404.87
2609.81
3137.4
3823.79
4678.38
5460.29
)
;
    }
    atmosphere
    {
        type            totalPressure;
        rho             rho;
        psi             none;
        gamma           1;
        p0              uniform 0;
        value           nonuniform List<scalar> 
46
(
-0.00662692
-0.00701183
-0.00700991
-0.00701112
-0.00697175
-0.00690807
-0.00681813
-0.00670213
-0.00655932
-0.00638871
-0.00618922
-0.00595987
-0.00569985
-0.00540861
-0.00508594
-0.00473196
-0.004347
-0.00393154
-0.00348576
-0.00300886
-0.00249805
-0.00195
-0.00138244
-0.000926569
-0.000716205
-0.00055046
-0.000432167
-0.000351209
-0.000182364
-7.73231e-05
-1.71644e-05
0
0
0
0
0
0
0
0
0
-0.000580431
0
-0.0516804
-0.0089514
-0.0657868
0
)
;
    }
    defaultFaces
    {
        type            empty;
    }
}


// ************************************************************************* //
