/*--------------------------------*- C++ -*----------------------------------*\
| =========                 |                                                 |
| \\      /  F ield         | OpenFOAM: The Open Source CFD Toolbox           |
|  \\    /   O peration     | Version:  2312                                  |
|   \\  /    A nd           | Website:  www.openfoam.com                      |
|    \\/     M anipulation  |                                                 |
\*---------------------------------------------------------------------------*/
FoamFile
{
    version     2.0;
    format      ascii;
    arch        "LSB;label=32;scalar=64";
    class       volVectorField;
    location    "0.5";
    object      U;
}
// * * * * * * * * * * * * * * * * * * * * * * * * * * * * * * * * * * * * * //

dimensions      [0 1 -1 0 0 0 0];

internalField   nonuniform List<vector> 
2268
(
(0.0203617 -0.00920045 0)
(0.0457621 -0.00909743 0)
(0.0784235 -0.00894961 0)
(0.109904 -0.0088744 0)
(0.140847 -0.00877726 0)
(0.171451 -0.00862711 0)
(0.201569 -0.00841901 0)
(0.230894 -0.00812526 0)
(0.258976 -0.00769453 0)
(0.285133 -0.00705137 0)
(0.308328 -0.00609066 0)
(0.327046 -0.00468212 0)
(0.339183 -0.00267705 0)
(0.342097 -8.66996e-06 0)
(0.332957 0.00326962 0)
(0.309891 0.00681085 0)
(0.273658 0.00975019 0)
(0.228228 0.011425 0)
(0.180097 0.0115801 0)
(0.135294 0.0108426 0)
(0.0984575 0.0100421 0)
(0.0564093 0.0110239 0)
(0.0411775 0.0171115 0)
(0.0201761 -0.0218148 0)
(0.0457383 -0.0216306 0)
(0.0784917 -0.0214677 0)
(0.110002 -0.0213986 0)
(0.140986 -0.0212419 0)
(0.171641 -0.0209505 0)
(0.201825 -0.0205003 0)
(0.231252 -0.019808 0)
(0.259497 -0.0187299 0)
(0.285906 -0.0170527 0)
(0.309479 -0.0144711 0)
(0.328735 -0.0105986 0)
(0.341568 -0.00493901 0)
(0.345182 0.0031714 0)
(0.336494 0.0128335 0)
(0.313221 0.0230385 0)
(0.276011 0.0308059 0)
(0.229158 0.0342376 0)
(0.17969 0.0327592 0)
(0.133962 0.0285236 0)
(0.0964544 0.0242762 0)
(0.0525183 0.0234479 0)
(0.0359054 0.0290394 0)
(0.0198416 -0.0371708 0)
(0.0454713 -0.0369091 0)
(0.0782112 -0.0367681 0)
(0.10965 -0.0366406 0)
(0.140579 -0.0363619 0)
(0.17119 -0.0358956 0)
(0.201362 -0.0351778 0)
(0.230843 -0.0340635 0)
(0.259255 -0.032321 0)
(0.286012 -0.0296021 0)
(0.310191 -0.0253994 0)
(0.330412 -0.0190992 0)
(0.344747 -0.0100706 0)
(0.349931 0.00151225 0)
(0.342167 0.0186404 0)
(0.318558 0.0368704 0)
(0.279421 0.0507541 0)
(0.229819 0.0572232 0)
(0.177981 0.0549891 0)
(0.131302 0.0481144 0)
(0.0942473 0.0419389 0)
(0.0510277 0.0413664 0)
(0.0335834 0.0498971 0)
(0.0193973 -0.0526968 0)
(0.0448727 -0.0522739 0)
(0.0773415 -0.052135 0)
(0.10844 -0.0518565 0)
(0.139028 -0.0513777 0)
(0.169303 -0.0506929 0)
(0.199171 -0.0496897 0)
(0.22843 -0.0481601 0)
(0.256774 -0.0457857 0)
(0.283733 -0.0420739 0)
(0.308521 -0.0362399 0)
(0.329878 -0.027214 0)
(0.345573 -0.0133284 0)
(0.35388 0.00684489 0)
(0.349187 0.0310056 0)
(0.325271 0.0564647 0)
(0.283363 0.0750319 0)
(0.229677 0.0827631 0)
(0.174286 0.0778327 0)
(0.126541 0.0669632 0)
(0.0908481 0.0584476 0)
(0.0498912 0.0579937 0)
(0.0326496 0.0689034 0)
(0.018766 -0.0700693 0)
(0.0435715 -0.0695141 0)
(0.0750449 -0.0694278 0)
(0.105124 -0.0689921 0)
(0.134679 -0.0683224 0)
(0.163887 -0.0674518 0)
(0.192694 -0.0662502 0)
(0.220963 -0.0645026 0)
(0.248502 -0.0618963 0)
(0.275034 -0.0579523 0)
(0.300093 -0.0518868 0)
(0.323041 -0.0426189 0)
(0.342668 -0.0281254 0)
(0.355539 -0.00515784 0)
(0.354052 0.0243079 0)
(0.329864 0.0645169 0)
(0.283952 0.0973975 0)
(0.224986 0.111453 0)
(0.165554 0.103605 0)
(0.117729 0.0868126 0)
(0.0852872 0.0746958 0)
(0.0484349 0.0737193 0)
(0.0326489 0.0871202 0)
(0.0161175 -0.0800095 0)
(0.0377751 -0.0795006 0)
(0.0657061 -0.079572 0)
(0.0917097 -0.0789078 0)
(0.116994 -0.0779772 0)
(0.141509 -0.0768096 0)
(0.165149 -0.0752058 0)
(0.187823 -0.072898 0)
(0.209502 -0.0695097 0)
(0.230276 -0.0644624 0)
(0.250375 -0.0567776 0)
(0.270489 -0.0453535 0)
(0.291099 -0.0276965 0)
(0.309285 0.00033698 0)
(0.321155 0.040943 0)
(0.30894 0.0815434 0)
(0.272563 0.113181 0)
(0.210751 0.135339 0)
(0.146779 0.126087 0)
(0.100733 0.103464 0)
(0.0749093 0.0884104 0)
(0.0453188 0.0874119 0)
(0.0332134 0.104777 0)
(0.00799309 -0.0872023 0)
(0.0157755 -0.0866703 0)
(0.0280292 -0.0870694 0)
(0.0383477 -0.0862083 0)
(0.0484232 -0.0850693 0)
(0.0579974 -0.0837233 0)
(0.0672183 -0.0819523 0)
(0.076406 -0.0795034 0)
(0.0858215 -0.0760066 0)
(0.0955992 -0.0709444 0)
(0.105841 -0.0634995 0)
(0.116356 -0.0526864 0)
(0.126871 -0.0366266 0)
(0.137034 -0.0125554 0)
(0.157521 0.0391341 0)
(0.167446 0.112533 0)
(0.199298 0.143662 0)
(0.164451 0.162783 0)
(0.105492 0.148826 0)
(0.0655024 0.116799 0)
(0.0539217 0.0981866 0)
(0.0380656 0.0973224 0)
(0.0338995 0.121044 0)
(0.00517009 -0.0935548 0)
(0.00872035 -0.092811 0)
(0.0164633 -0.0928753 0)
(0.0219412 -0.0918094 0)
(0.0273108 -0.0903547 0)
(0.0323979 -0.0887578 0)
(0.0374365 -0.0869429 0)
(0.042864 -0.0846989 0)
(0.0490443 -0.0815964 0)
(0.0561366 -0.0770536 0)
(0.0641401 -0.0702091 0)
(0.0724706 -0.0596159 0)
(0.0793779 -0.043223 0)
(0.0817417 -0.019774 0)
(0.0815122 0.0137296 0)
(0.102578 0.0829761 0)
(0.0997653 0.160349 0)
(0.0712919 0.185933 0)
(0.0553805 0.16808 0)
(0.0149494 0.124966 0)
(0.0225688 0.101451 0)
(0.0269685 0.104381 0)
(0.0349504 0.144595 0)
(-0.141233 0.0420027 0)
(-0.144037 0.0073701 0)
(-0.148313 -0.00448002 0)
(-0.122042 -0.00123202 0)
(-0.131125 0.00341788 0)
(-0.178172 0.00523028 0)
(-0.267062 -0.000515875 0)
(-0.401662 -0.0241161 0)
(-0.446046 -0.0570794 0)
(-0.40214 -0.094475 0)
(-0.342676 -0.124139 0)
(-0.249094 -0.129991 0)
(0.0664028 -0.112615 0)
(0.218031 -0.0631622 0)
(0.326782 -0.0239663 0)
(0.403785 -0.0326374 0)
(0.530047 -0.0153942 0)
(0.454272 0.0187314 0)
(0.376336 0.0951881 0)
(-0.0909952 0.0691353 0)
(-0.0335974 0.00905139 0)
(0.00179672 -0.0182878 0)
(0.0733466 -0.00638043 0)
(0.102902 0.0183913 0)
(0.107058 0.0460353 0)
(0.0610169 0.0713112 0)
(0.0128811 0.0938498 0)
(0.107856 0.0464439 0)
(0.263311 0.0201984 0)
(0.236091 0.0477317 0)
(0.327259 -0.0369953 0)
(0.299459 -0.0953753 0)
(0.343479 -0.0518196 0)
(0.780275 -0.109213 0)
(0.75809 -0.0497136 0)
(0.711571 0.0188441 0)
(0.608208 0.0976019 0)
(0.427691 0.245592 0)
(-0.0574913 0.0844733 0)
(0.0688358 -0.0192661 0)
(0.148558 -0.056226 0)
(0.250866 -0.0408361 0)
(0.303252 -0.00382736 0)
(0.331174 0.0377608 0)
(0.298382 0.0516697 0)
(0.423336 0.00115885 0)
(0.658848 -0.0886755 0)
(0.73161 -0.0893823 0)
(0.801654 -0.104876 0)
(1.07848 -0.180927 0)
(1.15382 -0.146119 0)
(1.33832 -0.0297092 0)
(1.10661 -0.150956 0)
(1.02882 -0.052993 0)
(0.881709 0.0624736 0)
(0.698457 0.184345 0)
(0.477762 0.430701 0)
(-0.0287043 0.0726726 0)
(0.165613 -0.0715264 0)
(0.296026 -0.103069 0)
(0.418457 -0.0743233 0)
(0.49147 -0.0151622 0)
(0.512245 0.0351364 0)
(0.605629 0.0062874 0)
(0.755447 -0.0671773 0)
(0.875883 -0.0913507 0)
(0.966949 -0.110973 0)
(1.05838 -0.188828 0)
(1.14885 -0.232496 0)
(1.23929 -0.222511 0)
(1.40023 -0.117908 0)
(1.40394 -0.0231439 0)
(1.26878 0.0764787 0)
(1.04389 0.192636 0)
(0.771402 0.332006 0)
(0.491654 0.675152 0)
(0.0028986 0.0181654 0)
(0.240428 -0.152105 0)
(0.415416 -0.171065 0)
(0.569848 -0.121489 0)
(0.679173 -0.0464191 0)
(0.775099 -0.0113046 0)
(0.892652 -0.0550368 0)
(0.984872 -0.112256 0)
(1.02585 -0.128578 0)
(1.04208 -0.145735 0)
(1.08709 -0.209115 0)
(1.16109 -0.248571 0)
(1.23867 -0.251473 0)
(1.34696 -0.171044 0)
(1.44535 -0.0630733 0)
(1.37908 0.0640152 0)
(1.12228 0.231091 0)
(0.801407 0.454482 0)
(0.510912 0.890616 0)
(0.0778323 -0.000356502 0)
(0.286416 -0.247053 0)
(0.455336 -0.255778 0)
(0.63078 -0.185436 0)
(0.800727 -0.0967856 0)
(0.926936 -0.0592773 0)
(1.01234 -0.0921113 0)
(1.0631 -0.127383 0)
(1.07277 -0.120501 0)
(1.06584 -0.127533 0)
(1.09393 -0.223834 0)
(1.13429 -0.282514 0)
(1.19341 -0.286008 0)
(1.26963 -0.213911 0)
(1.35988 -0.065806 0)
(1.38997 0.267615 0)
(1.03389 0.405344 0)
(0.733642 0.607219 0)
(0.484404 1.1428 0)
(0.240381 -0.147014 0)
(0.290568 -0.316376 0)
(0.366253 -0.327027 0)
(0.469571 -0.282732 0)
(0.665858 -0.172442 0)
(0.85863 -0.0747838 0)
(0.949041 -0.0877089 0)
(1.00868 -0.103652 0)
(1.04387 -0.0766337 0)
(1.06296 -0.129503 0)
(1.07248 -0.254255 0)
(1.09497 -0.298059 0)
(1.12978 -0.305523 0)
(1.17543 -0.247408 0)
(1.21923 -0.116834 0)
(1.20433 0.26055 0)
(0.925589 0.581043 0)
(0.624282 0.747141 0)
(0.454645 1.35003 0)
(0.27735 -0.275193 0)
(0.294083 -0.331151 0)
(0.339283 -0.343064 0)
(0.392213 -0.321791 0)
(0.461539 -0.262014 0)
(0.573931 -0.177884 0)
(0.691858 -0.178381 0)
(0.788335 -0.184649 0)
(0.892967 -0.162555 0)
(0.995254 -0.195761 0)
(1.03231 -0.253402 0)
(1.04964 -0.306081 0)
(1.07079 -0.322623 0)
(1.0881 -0.264331 0)
(1.08743 -0.0776394 0)
(0.950926 0.375228 0)
(0.791702 0.649982 0)
(0.458684 0.92255 0)
(0.417334 1.55889 0)
(0.00413316 -0.0959005 0)
(0.00620154 -0.0952805 0)
(0.0124062 -0.0949708 0)
(0.0161479 -0.0936796 0)
(0.0196727 -0.0920428 0)
(0.0229457 -0.0904236 0)
(0.0263276 -0.0889005 0)
(0.0304355 -0.0872785 0)
(0.0358133 -0.0849585 0)
(0.0427843 -0.0812082 0)
(0.0516523 -0.0749501 0)
(0.0621454 -0.0639168 0)
(0.0725095 -0.045077 0)
(0.0797267 -0.0159123 0)
(0.0781904 0.0260684 0)
(0.0717768 0.0818664 0)
(0.0811587 0.16496 0)
(-0.00817333 0.262481 0)
(-0.0368537 0.178056 0)
(-0.0407196 0.134249 0)
(-0.024006 0.0888829 0)
(0.0288162 0.0696031 0)
(0.105489 0.11134 0)
(0.00350603 -0.100923 0)
(0.00449804 -0.100551 0)
(0.00937239 -0.099444 0)
(0.0115851 -0.0975227 0)
(0.0132604 -0.0954022 0)
(0.014461 -0.0937185 0)
(0.015872 -0.0929241 0)
(0.0186487 -0.0929454 0)
(0.0237814 -0.0927604 0)
(0.031896 -0.0915921 0)
(0.0441022 -0.088252 0)
(0.0607077 -0.0788507 0)
(0.0793056 -0.0584731 0)
(0.0957089 -0.0246771 0)
(0.106595 0.0223986 0)
(0.112101 0.0842181 0)
(0.122099 0.168929 0)
(0.139007 0.285331 0)
(0.0984499 0.238746 0)
(-0.0328983 0.112856 0)
(-0.0254441 0.0537536 0)
(0.0258193 0.0247296 0)
(0.105727 0.0120342 0)
(0.00408003 -0.102981 0)
(0.00554059 -0.102271 0)
(0.0105574 -0.100124 0)
(0.0127576 -0.0970521 0)
(0.0138271 -0.0940266 0)
(0.0137557 -0.092272 0)
(0.0135416 -0.0928995 0)
(0.0151991 -0.0961198 0)
(0.0202091 -0.0997009 0)
(0.0291329 -0.103266 0)
(0.0440753 -0.106094 0)
(0.0661991 -0.101733 0)
(0.0934735 -0.0822023 0)
(0.121006 -0.0445942 0)
(0.146219 0.0086029 0)
(0.165373 0.0718507 0)
(0.185627 0.14807 0)
(0.22972 0.245769 0)
(0.274712 0.293843 0)
(0.268673 0.21601 0)
(0.17759 0.0311852 0)
(0.101994 -0.062558 0)
(0.133105 -0.0661936 0)
(0.00483991 -0.114386 0)
(0.00703492 -0.112273 0)
(0.0122454 -0.107758 0)
(0.0140059 -0.101466 0)
(0.0136361 -0.0950961 0)
(0.0108817 -0.0910743 0)
(0.00682811 -0.0918895 0)
(0.00492147 -0.0981775 0)
(0.00739399 -0.105627 0)
(0.0143971 -0.114966 0)
(0.0285234 -0.126966 0)
(0.0511777 -0.131527 0)
(0.0824956 -0.116689 0)
(0.117102 -0.0783107 0)
(0.152932 -0.0197835 0)
(0.189033 0.0503409 0)
(0.222594 0.116694 0)
(0.274594 0.185578 0)
(0.349025 0.234046 0)
(0.422521 0.217412 0)
(0.474334 0.150785 0)
(0.508962 0.0545003 0)
(0.543416 -0.102458 0)
(0.00595103 -0.134938 0)
(0.0096078 -0.132801 0)
(0.0155737 -0.128576 0)
(0.0160982 -0.121986 0)
(0.0114045 -0.112975 0)
(0.00518105 -0.104102 0)
(-0.00419265 -0.0987855 0)
(-0.0131567 -0.101723 0)
(-0.0198741 -0.109561 0)
(-0.0216707 -0.122685 0)
(-0.0174166 -0.142302 0)
(-0.00450669 -0.157672 0)
(0.0220528 -0.153141 0)
(0.0567574 -0.12076 0)
(0.0976638 -0.0664453 0)
(0.14657 -0.00236056 0)
(0.200511 0.0614637 0)
(0.257769 0.110385 0)
(0.33228 0.139532 0)
(0.415384 0.121719 0)
(0.489479 0.0472386 0)
(0.556919 -0.0571461 0)
(0.615905 -0.148288 0)
(-0.00743784 -0.0934908 0)
(-0.0405276 -0.0853143 0)
(-0.0816211 -0.0833966 0)
(-0.140583 -0.0819195 0)
(-0.109075 -0.0828022 0)
(-0.0714223 -0.0774559 0)
(-0.0692042 -0.0805993 0)
(-0.0773705 -0.0926038 0)
(-0.0925045 -0.103461 0)
(-0.104912 -0.118194 0)
(-0.122353 -0.135833 0)
(-0.133869 -0.163922 0)
(-0.121887 -0.174672 0)
(-0.103699 -0.148127 0)
(-0.0732101 -0.0999233 0)
(-0.0307969 -0.0468177 0)
(0.0495933 0.00495326 0)
(0.155748 0.0528469 0)
(0.246342 0.0718353 0)
(0.331364 0.0506388 0)
(0.405985 -0.00914996 0)
(0.467122 -0.0885626 0)
(0.518243 -0.179217 0)
(-0.015369 -0.0903618 0)
(-0.0685757 -0.074431 0)
(-0.184642 -0.038403 0)
(-0.422687 -0.0085432 0)
(-0.741525 -0.0641244 0)
(-1.02484 -0.0640564 0)
(-1.13693 -0.0248055 0)
(-0.872823 -0.115494 0)
(-0.702981 -0.132739 0)
(-0.555195 -0.142036 0)
(-0.379763 -0.166784 0)
(-0.283552 -0.194366 0)
(-0.250959 -0.182948 0)
(-0.241509 -0.153714 0)
(-0.224515 -0.125552 0)
(-0.192557 -0.107757 0)
(-0.145685 -0.0967739 0)
(-0.0888971 -0.0861595 0)
(0.0333379 -0.0559048 0)
(0.129409 -0.0619781 0)
(0.215623 -0.107577 0)
(0.286465 -0.17571 0)
(0.347572 -0.251125 0)
(-0.0611618 0.000729439 0)
(-0.201459 0.0898222 0)
(-0.386483 0.23602 0)
(-0.560661 0.328365 0)
(-0.734022 0.296291 0)
(-0.815109 0.137384 0)
(-0.674359 -0.0883988 0)
(-0.551003 -0.417264 0)
(-0.552856 -0.357905 0)
(-0.439124 -0.296143 0)
(-0.314324 -0.276547 0)
(-0.241197 -0.261551 0)
(-0.294734 -0.203729 0)
(-0.292344 -0.170522 0)
(-0.26292 -0.146704 0)
(-0.228094 -0.131656 0)
(-0.191894 -0.125807 0)
(-0.150029 -0.131271 0)
(-0.0983735 -0.13997 0)
(-0.0302581 -0.147227 0)
(0.0624475 -0.174622 0)
(0.132772 -0.218005 0)
(0.208048 -0.273461 0)
(-0.0417394 0.146218 0)
(-0.107974 0.236667 0)
(-0.18894 0.336851 0)
(-0.282841 0.385614 0)
(-0.368552 0.309274 0)
(-0.317558 0.0180937 0)
(-0.194722 -0.231271 0)
(-0.206388 -0.383016 0)
(-0.160561 -0.35439 0)
(-0.106233 -0.471573 0)
(-0.081254 -0.447722 0)
(-0.0380991 -0.266647 0)
(-0.0617132 -0.124933 0)
(-0.126993 -0.195784 0)
(-0.153494 -0.192568 0)
(-0.164481 -0.171276 0)
(-0.145817 -0.161631 0)
(-0.105141 -0.168834 0)
(-0.0529685 -0.182343 0)
(0.0138738 -0.215046 0)
(0.114118 -0.263118 0)
(0.198094 -0.318206 0)
(0.282997 -0.382915 0)
(-0.0145013 0.181159 0)
(-0.0195159 0.255438 0)
(-0.00363716 0.364578 0)
(0.00405596 0.423956 0)
(0.0199258 0.35607 0)
(0.0101325 -0.00777283 0)
(0.0734098 -0.268392 0)
(0.0476911 -0.385153 0)
(0.0155185 -0.432362 0)
(0.0241697 -0.441492 0)
(0.00743317 -0.402791 0)
(0.0179037 -0.294138 0)
(0.110681 -0.132679 0)
(0.169186 -0.106486 0)
(0.211218 -0.155212 0)
(0.255492 -0.180114 0)
(0.307479 -0.1964 0)
(0.362248 -0.223004 0)
(0.410191 -0.26228 0)
(0.447358 -0.305997 0)
(0.473493 -0.344303 0)
(0.49124 -0.382167 0)
(0.502391 -0.425583 0)
(0.00409649 0.181301 0)
(0.0335285 0.226744 0)
(0.100786 0.314343 0)
(0.186769 0.368064 0)
(0.262484 0.304637 0)
(0.353257 0.0211568 0)
(0.307041 -0.230662 0)
(0.237467 -0.334639 0)
(0.187102 -0.377782 0)
(0.142543 -0.396186 0)
(0.10562 -0.38049 0)
(0.0855284 -0.338382 0)
(0.113732 -0.264376 0)
(0.192218 -0.230785 0)
(0.255605 -0.232107 0)
(0.30681 -0.242415 0)
(0.355444 -0.253074 0)
(0.403255 -0.265981 0)
(0.445795 -0.283288 0)
(0.47831 -0.303618 0)
(0.498477 -0.327891 0)
(0.506159 -0.357301 0)
(0.498628 -0.393984 0)
(0.0144826 0.154142 0)
(0.0588633 0.172975 0)
(0.134735 0.219533 0)
(0.243352 0.2497 0)
(0.348477 0.18651 0)
(0.435446 0.00491793 0)
(0.431945 -0.161016 0)
(0.371248 -0.266866 0)
(0.297661 -0.320318 0)
(0.233026 -0.342881 0)
(0.183531 -0.341936 0)
(0.15437 -0.324159 0)
(0.156346 -0.290401 0)
(0.194788 -0.275626 0)
(0.237535 -0.280652 0)
(0.275834 -0.291607 0)
(0.310874 -0.302204 0)
(0.343366 -0.312566 0)
(0.370648 -0.323718 0)
(0.389649 -0.334745 0)
(0.397907 -0.347073 0)
(0.395313 -0.363035 0)
(0.376697 -0.38734 0)
(0.0177676 0.114039 0)
(0.062418 0.113639 0)
(0.124686 0.126164 0)
(0.21232 0.126338 0)
(0.307236 0.0721123 0)
(0.361394 -0.0477773 0)
(0.367326 -0.154869 0)
(0.33415 -0.228819 0)
(0.284797 -0.271069 0)
(0.237799 -0.294052 0)
(0.20052 -0.304469 0)
(0.17656 -0.306179 0)
(0.171278 -0.300408 0)
(0.185914 -0.299362 0)
(0.208542 -0.306443 0)
(0.231242 -0.316858 0)
(0.251784 -0.326291 0)
(0.269071 -0.333248 0)
(0.280792 -0.337686 0)
(0.285576 -0.339464 0)
(0.281487 -0.342145 0)
(0.269624 -0.347786 0)
(0.243304 -0.365713 0)
(0.0178018 0.0741459 0)
(0.0581553 0.0635226 0)
(0.107218 0.0613146 0)
(0.168896 0.0485813 0)
(0.231047 0.00816552 0)
(0.26842 -0.0569415 0)
(0.276995 -0.128696 0)
(0.261615 -0.190596 0)
(0.234491 -0.233909 0)
(0.206393 -0.26211 0)
(0.183 -0.280485 0)
(0.166686 -0.292971 0)
(0.159858 -0.301339 0)
(0.163215 -0.310361 0)
(0.172048 -0.321435 0)
(0.181318 -0.331813 0)
(0.188355 -0.338825 0)
(0.191513 -0.341182 0)
(0.18896 -0.33914 0)
(0.181433 -0.332922 0)
(0.167392 -0.328777 0)
(0.14837 -0.327417 0)
(0.120922 -0.339179 0)
(0.0164203 0.0378637 0)
(0.0514541 0.0220593 0)
(0.0906297 0.0145027 0)
(0.13321 -0.00123243 0)
(0.173053 -0.032533 0)
(0.201218 -0.0798513 0)
(0.212088 -0.131742 0)
(0.2074 -0.178246 0)
(0.192823 -0.214983 0)
(0.174899 -0.242862 0)
(0.15827 -0.264583 0)
(0.145125 -0.282503 0)
(0.136658 -0.297784 0)
(0.132965 -0.311838 0)
(0.131619 -0.324382 0)
(0.129433 -0.333337 0)
(0.124433 -0.337054 0)
(0.115078 -0.334686 0)
(0.100538 -0.327168 0)
(0.0830298 -0.315254 0)
(0.0603593 -0.306844 0)
(0.0337754 -0.299341 0)
(-0.011702 -0.29347 0)
(0.01438 0.00638575 0)
(0.0438638 -0.0117822 0)
(0.0748222 -0.0207684 0)
(0.106108 -0.0357499 0)
(0.134304 -0.0607229 0)
(0.154881 -0.0947503 0)
(0.164757 -0.132716 0)
(0.164202 -0.169477 0)
(0.156109 -0.2017 0)
(0.14419 -0.228733 0)
(0.131421 -0.251685 0)
(0.119475 -0.271926 0)
(0.109077 -0.290029 0)
(0.100013 -0.305791 0)
(0.0907807 -0.317848 0)
(0.079341 -0.324256 0)
(0.0647574 -0.324091 0)
(0.0457417 -0.317119 0)
(0.0230041 -0.305074 0)
(-0.00144867 -0.28937 0)
(-0.0304455 -0.275304 0)
(-0.067837 -0.257412 0)
(-0.109555 -0.235525 0)
(0.0120241 -0.0198576 0)
(0.0362937 -0.0391421 0)
(0.0607005 -0.0481691 0)
(0.0843052 -0.0615779 0)
(0.104925 -0.0815913 0)
(0.120227 -0.107468 0)
(0.12844 -0.136626 0)
(0.129425 -0.166003 0)
(0.12456 -0.193415 0)
(0.115846 -0.218078 0)
(0.105053 -0.240268 0)
(0.0933186 -0.260529 0)
(0.0810589 -0.278776 0)
(0.0679081 -0.293888 0)
(0.0529735 -0.303917 0)
(0.0350173 -0.307115 0)
(0.0142621 -0.303138 0)
(-0.0103028 -0.292403 0)
(-0.0361058 -0.277389 0)
(-0.0624014 -0.260081 0)
(-0.0906624 -0.241891 0)
(-0.11914 -0.223101 0)
(-0.14283 -0.206769 0)
(0.00978849 -0.0415847 0)
(0.0294343 -0.0613521 0)
(0.0485966 -0.0695214 0)
(0.0666306 -0.080929 0)
(0.0820268 -0.0970597 0)
(0.093483 -0.11734 0)
(0.0999101 -0.140273 0)
(0.101068 -0.164043 0)
(0.0975643 -0.187197 0)
(0.0904142 -0.209004 0)
(0.0805875 -0.229319 0)
(0.0687596 -0.248141 0)
(0.0551143 -0.264873 0)
(0.0393169 -0.277936 0)
(0.0209878 -0.285223 0)
(-0.000362645 -0.285412 0)
(-0.0235303 -0.278675 0)
(-0.0473469 -0.266975 0)
(-0.0709886 -0.252061 0)
(-0.0937383 -0.235585 0)
(-0.115116 -0.219106 0)
(-0.134461 -0.203334 0)
(-0.150261 -0.188974 0)
(0.00783476 -0.0591738 0)
(0.0235375 -0.0789619 0)
(0.0384681 -0.0860218 0)
(0.0522839 -0.0955493 0)
(0.0638421 -0.108638 0)
(0.0723655 -0.124839 0)
(0.0771137 -0.143192 0)
(0.0778326 -0.16256 0)
(0.0747375 -0.181945 0)
(0.0682933 -0.200721 0)
(0.0589822 -0.218548 0)
(0.0471533 -0.235091 0)
(0.0328582 -0.249448 0)
(0.0159559 -0.259916 0)
(-0.00372961 -0.264681 0)
(-0.0247265 -0.263079 0)
(-0.0463454 -0.256008 0)
(-0.0675845 -0.244767 0)
(-0.0876142 -0.231049 0)
(-0.105996 -0.216402 0)
(-0.122641 -0.201915 0)
(-0.137492 -0.188225 0)
(-0.149736 -0.175936 0)
(0.0061835 -0.0731704 0)
(0.0185844 -0.0927628 0)
(0.0300985 -0.0987171 0)
(0.040635 -0.1066 0)
(0.049257 -0.117257 0)
(0.0554789 -0.13033 0)
(0.0587464 -0.145155 0)
(0.0588175 -0.160967 0)
(0.0557132 -0.177049 0)
(0.0496052 -0.192866 0)
(0.0407003 -0.208 0)
(0.0291638 -0.221941 0)
(0.0150243 -0.23369 0)
(-0.00179778 -0.241763 0)
(-0.0202337 -0.244795 0)
(-0.0395611 -0.242653 0)
(-0.0587993 -0.235898 0)
(-0.077104 -0.225757 0)
(-0.0939281 -0.213645 0)
(-0.109086 -0.200785 0)
(-0.122698 -0.18801 0)
(-0.13487 -0.175867 0)
(-0.14507 -0.164962 0)
(0.00481361 -0.0841591 0)
(0.0144801 -0.103444 0)
(0.0232371 -0.108395 0)
(0.0311864 -0.114879 0)
(0.0375138 -0.123564 0)
(0.0419076 -0.134158 0)
(0.0439253 -0.146175 0)
(0.0433452 -0.159062 0)
(0.040102 -0.172281 0)
(0.0342226 -0.185364 0)
(0.0257745 -0.197877 0)
(0.0148524 -0.20926 0)
(0.00141781 -0.218641 0)
(-0.0139839 -0.224744 0)
(-0.0306999 -0.22678 0)
(-0.0478851 -0.224496 0)
(-0.0646835 -0.218405 0)
(-0.0804482 -0.209515 0)
(-0.0948017 -0.198948 0)
(-0.10767 -0.187652 0)
(-0.119228 -0.1763 0)
(-0.129634 -0.165411 0)
(-0.138464 -0.155592 0)
(0.00369078 -0.0926639 0)
(0.0111115 -0.111587 0)
(0.0176501 -0.115667 0)
(0.0235429 -0.120975 0)
(0.0280605 -0.128045 0)
(0.0310015 -0.136631 0)
(0.0319993 -0.146369 0)
(0.0308575 -0.156829 0)
(0.0274775 -0.167589 0)
(0.0218286 -0.178245 0)
(0.0139263 -0.188379 0)
(0.00378642 -0.197504 0)
(-0.0083912 -0.204828 0)
(-0.0221826 -0.209495 0)
(-0.0369882 -0.210819 0)
(-0.0520343 -0.208592 0)
(-0.0666454 -0.203215 0)
(-0.0803264 -0.195482 0)
(-0.0927953 -0.186267 0)
(-0.104005 -0.176296 0)
(-0.11413 -0.166111 0)
(-0.12329 -0.156208 0)
(-0.131112 -0.147222 0)
(0.00277829 -0.099136 0)
(0.00836739 -0.117676 0)
(0.0131294 -0.12102 0)
(0.017384 -0.125346 0)
(0.0204732 -0.13108 0)
(0.0222651 -0.138022 0)
(0.0224521 -0.145881 0)
(0.0208655 -0.154322 0)
(0.0174002 -0.162994 0)
(0.0120162 -0.171555 0)
(0.00469262 -0.179653 0)
(-0.00451974 -0.186832 0)
(-0.0153813 -0.192509 0)
(-0.027585 -0.196038 0)
(-0.0405532 -0.196841 0)
(-0.0536645 -0.194728 0)
(-0.0663866 -0.189979 0)
(-0.0783482 -0.183207 0)
(-0.0893383 -0.175104 0)
(-0.0993134 -0.166237 0)
(-0.108396 -0.157035 0)
(-0.116651 -0.147952 0)
(-0.1237 -0.139642 0)
(0.00204233 -0.103958 0)
(0.00614852 -0.122113 0)
(0.00949459 -0.124845 0)
(0.0124478 -0.12835 0)
(0.014413 -0.132975 0)
(0.015306 -0.138557 0)
(0.0148617 -0.14486 0)
(0.0129451 -0.151616 0)
(0.0094608 -0.158536 0)
(0.00435845 -0.165336 0)
(-0.00238106 -0.17171 0)
(-0.0106489 -0.177273 0)
(-0.0203159 -0.181622 0)
(-0.0310559 -0.184227 0)
(-0.042404 -0.184634 0)
(-0.0538505 -0.182637 0)
(-0.0649712 -0.178396 0)
(-0.0754903 -0.172376 0)
(-0.0852607 -0.165141 0)
(-0.0942501 -0.157162 0)
(-0.102543 -0.148785 0)
(-0.110105 -0.140406 0)
(-0.116534 -0.13268 0)
(0.00145223 -0.10745 0)
(0.00436665 -0.125231 0)
(0.00659396 -0.127459 0)
(0.00851845 -0.130273 0)
(0.00960571 -0.133975 0)
(0.00980249 -0.138429 0)
(0.00888303 -0.143444 0)
(0.00673992 -0.148796 0)
(0.00328599 -0.154254 0)
(-0.00152934 -0.159583 0)
(-0.00767959 -0.164502 0)
(-0.01512 -0.168755 0)
(-0.0237067 -0.171999 0)
(-0.0331781 -0.173849 0)
(-0.0431554 -0.173936 0)
(-0.0532161 -0.172039 0)
(-0.0630061 -0.168207 0)
(-0.0723092 -0.162766 0)
(-0.081034 -0.156186 0)
(-0.0891824 -0.148892 0)
(-0.0968138 -0.141189 0)
(-0.103826 -0.133417 0)
(-0.109759 -0.126207 0)
(0.000984207 -0.10988 0)
(0.00294802 -0.127303 0)
(0.00430202 -0.129119 0)
(0.00542082 -0.131354 0)
(0.00582772 -0.134285 0)
(0.00549324 -0.137798 0)
(0.00422963 -0.141739 0)
(0.00194651 -0.14593 0)
(-0.00144235 -0.150172 0)
(-0.00595228 -0.154259 0)
(-0.0115778 -0.15799 0)
(-0.0182722 -0.161142 0)
(-0.0259184 -0.163468 0)
(-0.0343098 -0.164682 0)
(-0.0431442 -0.16449 0)
(-0.0520692 -0.16267 0)
(-0.0607733 -0.159176 0)
(-0.0690647 -0.154201 0)
(-0.0768836 -0.148119 0)
(-0.0842732 -0.141334 0)
(-0.0913165 -0.134153 0)
(-0.0978505 -0.126885 0)
(-0.103366 -0.120123 0)
(0.000618164 -0.111467 0)
(0.00183275 -0.128559 0)
(0.00251269 -0.130036 0)
(0.0030075 -0.131786 0)
(0.00289776 -0.134071 0)
(0.00217233 -0.136798 0)
(0.000660613 -0.139847 0)
(-0.00170178 -0.143065 0)
(-0.00497678 -0.14629 0)
(-0.0091916 -0.149352 0)
(-0.014338 -0.152087 0)
(-0.020373 -0.154322 0)
(-0.0272047 -0.155873 0)
(-0.0346753 -0.156533 0)
(-0.0425507 -0.156079 0)
(-0.0505406 -0.154304 0)
(-0.0583639 -0.151093 0)
(-0.0658282 -0.146515 0)
(-0.0728765 -0.140837 0)
(-0.079584 -0.13443 0)
(-0.0860699 -0.127629 0)
(-0.0921737 -0.120748 0)
(-0.0973381 -0.114351 0)
(0.000339437 -0.112398 0)
(0.000971881 -0.129184 0)
(0.00113584 -0.130379 0)
(0.00115567 -0.131724 0)
(0.000664692 -0.133465 0)
(-0.000347913 -0.135542 0)
(-0.00202075 -0.137842 0)
(-0.00439808 -0.140243 0)
(-0.00754086 -0.142617 0)
(-0.0114693 -0.144824 0)
(-0.0161769 -0.146729 0)
(-0.0216277 -0.148195 0)
(-0.0277505 -0.149084 0)
(-0.0344279 -0.149252 0)
(-0.0414841 -0.148536 0)
(-0.0486875 -0.146761 0)
(-0.0557875 -0.14378 0)
(-0.0625835 -0.139556 0)
(-0.068994 -0.134234 0)
(-0.0750991 -0.128126 0)
(-0.0810674 -0.121587 0)
(-0.08676 -0.114972 0)
(-0.0916083 -0.108836 0)
(0.000134689 -0.112828 0)
(0.000324771 -0.129332 0)
(9.97645e-05 -0.130291 0)
(-0.00023482 -0.131292 0)
(-0.00100867 -0.132579 0)
(-0.00221615 -0.134109 0)
(-0.00397222 -0.13578 0)
(-0.00632351 -0.1375 0)
(-0.00931491 -0.139161 0)
(-0.0129645 -0.140652 0)
(-0.017268 -0.14186 0)
(-0.0221971 -0.142676 0)
(-0.0276972 -0.142998 0)
(-0.033682 -0.142723 0)
(-0.0400237 -0.141739 0)
(-0.0465453 -0.139913 0)
(-0.0530334 -0.137098 0)
(-0.0592833 -0.133186 0)
(-0.0651787 -0.1282 0)
(-0.0707749 -0.122355 0)
(-0.0762652 -0.116 0)
(-0.0815715 -0.109535 0)
(-0.0861347 -0.103544 0)
(-8.89858e-06 -0.112895 0)
(-0.000144004 -0.129118 0)
(-0.000655316 -0.129889 0)
(-0.00125452 -0.130591 0)
(-0.00222238 -0.1315 0)
(-0.00355275 -0.132564 0)
(-0.00534184 -0.133712 0)
(-0.00762897 -0.134863 0)
(-0.0104523 -0.135928 0)
(-0.013828 -0.136816 0)
(-0.0177545 -0.137435 0)
(-0.0222108 -0.1377 0)
(-0.027156 -0.137531 0)
(-0.0325272 -0.136854 0)
(-0.0382337 -0.135598 0)
(-0.0441469 -0.133672 0)
(-0.0500956 -0.130951 0)
(-0.0558857 -0.127297 0)
(-0.0613664 -0.122631 0)
(-0.0665456 -0.117046 0)
(-0.0716169 -0.110832 0)
(-0.0765544 -0.104423 0)
(-0.0808474 -0.0984574 0)
(-8.8923e-05 -0.112713 0)
(-0.00046424 -0.128637 0)
(-0.00118723 -0.129254 0)
(-0.00196999 -0.129699 0)
(-0.00307241 -0.130291 0)
(-0.00446935 -0.130969 0)
(-0.00625011 -0.131681 0)
(-0.00844412 -0.132356 0)
(-0.0110857 -0.132921 0)
(-0.0141901 -0.133301 0)
(-0.017759 -0.133423 0)
(-0.0217786 -0.133216 0)
(-0.0262196 -0.132619 0)
(-0.0310374 -0.131579 0)
(-0.0361689 -0.13005 0)
(-0.0415254 -0.127978 0)
(-0.0469794 -0.125276 0)
(-0.0523616 -0.12181 0)
(-0.0575029 -0.117436 0)
(-0.0623524 -0.11212 0)
(-0.0670649 -0.106042 0)
(-0.071662 -0.0996217 0)
(-0.0756989 -0.0935673 0)
(-0.000106903 -0.11238 0)
(-0.000652406 -0.127964 0)
(-0.00154152 -0.128446 0)
(-0.002447 -0.128679 0)
(-0.00363919 -0.129006 0)
(-0.00506158 -0.129367 0)
(-0.00680317 -0.129717 0)
(-0.00888313 -0.129997 0)
(-0.0113331 -0.130146 0)
(-0.0141676 -0.1301 0)
(-0.0173921 -0.129799 0)
(-0.0209996 -0.129187 0)
(-0.0249717 -0.128215 0)
(-0.0292785 -0.126844 0)
(-0.0338784 -0.125046 0)
(-0.0387134 -0.122793 0)
(-0.0436969 -0.120038 0)
(-0.0486962 -0.116677 0)
(-0.0535429 -0.112545 0)
(-0.0581334 -0.107501 0)
(-0.0625554 -0.101577 0)
(-0.0668416 -0.0951174 0)
(-0.0706255 -0.0888682 0)
(-6.68634e-05 -0.111987 0)
(-0.000725363 -0.12715 0)
(-0.00175512 -0.127513 0)
(-0.00273933 -0.127571 0)
(-0.00399032 -0.127683 0)
(-0.00541002 -0.127785 0)
(-0.00709216 -0.127841 0)
(-0.0090455 -0.127799 0)
(-0.0112992 -0.127605 0)
(-0.0138671 -0.127205 0)
(-0.0167574 -0.126548 0)
(-0.0199695 -0.125589 0)
(-0.0234951 -0.124289 0)
(-0.0273174 -0.122616 0)
(-0.0314122 -0.120555 0)
(-0.035746 -0.118096 0)
(-0.0402673 -0.115223 0)
(-0.0448843 -0.111876 0)
(-0.0494528 -0.10791 0)
(-0.0538331 -0.103121 0)
(-0.0580317 -0.0973867 0)
(-0.0620491 -0.0908935 0)
(-0.0655834 -0.0843725 0)
(2.66807e-05 -0.111614 0)
(-0.000697744 -0.126224 0)
(-0.00185703 -0.126484 0)
(-0.0028882 -0.126404 0)
(-0.00417772 -0.126345 0)
(-0.00557719 -0.126243 0)
(-0.00718898 -0.126065 0)
(-0.00901181 -0.125766 0)
(-0.011072 -0.125296 0)
(-0.0133817 -0.124609 0)
(-0.0159504 -0.123659 0)
(-0.0187821 -0.122408 0)
(-0.0218765 -0.120821 0)
(-0.0252288 -0.118877 0)
(-0.0288302 -0.116563 0)
(-0.0326675 -0.11388 0)
(-0.0367184 -0.110835 0)
(-0.0409333 -0.107411 0)
(-0.0452072 -0.103514 0)
(-0.0493985 -0.0989322 0)
(-0.0534308 -0.0934142 0)
(-0.0572304 -0.0869358 0)
(-0.0605251 -0.0801044 0)
(0.000166447 -0.111335 0)
(-0.00058359 -0.125208 0)
(-0.00186772 -0.125379 0)
(-0.00292054 -0.125196 0)
(-0.00423369 -0.125005 0)
(-0.00560187 -0.124748 0)
(-0.00713888 -0.12439 0)
(-0.00883451 -0.123892 0)
(-0.0107117 -0.123208 0)
(-0.0127798 -0.122296 0)
(-0.0150472 -0.121114 0)
(-0.0175194 -0.119626 0)
(-0.020201 -0.117801 0)
(-0.0230957 -0.115618 0)
(-0.0262074 -0.113068 0)
(-0.0295408 -0.110155 0)
(-0.0330988 -0.106898 0)
(-0.0368704 -0.103315 0)
(-0.0408035 -0.0993718 0)
(-0.044785 -0.0949061 0)
(-0.0486905 -0.0896024 0)
(-0.0523327 -0.0832044 0)
(-0.055405 -0.0760817 0)
(0.000342284 -0.111213 0)
(-0.000396737 -0.124121 0)
(-0.00179887 -0.124217 0)
(-0.00284793 -0.123965 0)
(-0.00416823 -0.123679 0)
(-0.00549439 -0.123306 0)
(-0.00695298 -0.122815 0)
(-0.0085272 -0.122167 0)
(-0.0102364 -0.121323 0)
(-0.0120867 -0.120243 0)
(-0.0140833 -0.118887 0)
(-0.0162299 -0.117218 0)
(-0.0185306 -0.115207 0)
(-0.0209921 -0.112829 0)
(-0.0236257 -0.110073 0)
(-0.0264487 -0.10694 0)
(-0.0294844 -0.103451 0)
(-0.0327568 -0.0996414 0)
(-0.0362691 -0.0955345 0)
(-0.0399732 -0.0910531 0)
(-0.0437392 -0.0859025 0)
(-0.0472875 -0.0796523 0)
(-0.0501848 -0.0723096 0)
(0.000534301 -0.111308 0)
(-0.000157057 -0.122997 0)
(-0.00165367 -0.123031 0)
(-0.00266894 -0.122744 0)
(-0.00397097 -0.122392 0)
(-0.00523745 -0.121938 0)
(-0.00660695 -0.121348 0)
(-0.00805983 -0.120591 0)
(-0.00961266 -0.119629 0)
(-0.0112688 -0.118426 0)
(-0.0130298 -0.116944 0)
(-0.0148953 -0.115149 0)
(-0.0168651 -0.113005 0)
(-0.018942 -0.110486 0)
(-0.0211357 -0.107571 0)
(-0.0234662 -0.104252 0)
(-0.0259676 -0.100539 0)
(-0.0286878 -0.0964682 0)
(-0.0316819 -0.0920947 0)
(-0.0349811 -0.087434 0)
(-0.0385398 -0.0823045 0)
(-0.0420281 -0.0762121 0)
(-0.0448192 -0.0687764 0)
(0.000715565 -0.111654 0)
(0.000109363 -0.121875 0)
(-0.00143311 -0.121865 0)
(-0.00237772 -0.121572 0)
(-0.0036211 -0.121181 0)
(-0.00479712 -0.120672 0)
(-0.00605254 -0.120011 0)
(-0.00736921 -0.119171 0)
(-0.00876222 -0.11812 0)
(-0.0102342 -0.116826 0)
(-0.0117849 -0.115256 0)
(-0.0134105 -0.113374 0)
(-0.0151054 -0.111146 0)
(-0.0168653 -0.108539 0)
(-0.0186908 -0.105524 0)
(-0.0205925 -0.102078 0)
(-0.0225982 -0.0981906 0)
(-0.0247599 -0.0938756 0)
(-0.0271585 -0.0891832 0)
(-0.0299058 -0.0841889 0)