/*--------------------------------*- C++ -*----------------------------------*\
| =========                 |                                                 |
| \\      /  F ield         | OpenFOAM: The Open Source CFD Toolbox           |
|  \\    /   O peration     | Version:  2312                                  |
|   \\  /    A nd           | Website:  www.openfoam.com                      |
|    \\/     M anipulation  |                                                 |
\*---------------------------------------------------------------------------*/
FoamFile
{
    version     2.0;
    format      ascii;
    arch        "LSB;label=32;scalar=64";
    class       volScalarField;
    location    "2.2";
    object      alpha.oil;
}
// * * * * * * * * * * * * * * * * * * * * * * * * * * * * * * * * * * * * * //

dimensions      [0 0 0 0 0 0 0];

internalField   nonuniform List<scalar> 
2268
(
9.19513e-10
4.88157e-10
1.65595e-10
4.09981e-11
8.54992e-12
3.22433e-12
6.39058e-12
1.59148e-11
3.18211e-11
5.33718e-11
7.12077e-11
7.95213e-11
7.82078e-11
8.61627e-11
1.10666e-10
1.65436e-10
2.63552e-10
4.16873e-10
4.72532e-10
4.52699e-10
5.09526e-07
5.20324e-05
6.09173e-05
1.08426e-09
5.24508e-10
1.31451e-10
2.61748e-11
9.60087e-12
2.58918e-11
8.04146e-11
1.6492e-10
2.79822e-10
3.81577e-10
4.14225e-10
3.66673e-10
2.52966e-10
2.03918e-10
2.09077e-10
3.0272e-10
4.76875e-10
1.09668e-09
2.20282e-09
4.52721e-10
4.35585e-07
2.30826e-05
4.41316e-05
6.67551e-10
3.6432e-10
1.7896e-11
9.47448e-12
4.70923e-11
7.32826e-11
3.21695e-10
6.06055e-10
7.50465e-10
7.3823e-10
6.30037e-10
5.17068e-10
3.40638e-10
2.43622e-10
1.89411e-10
1.66425e-10
1.6219e-10
1.04024e-09
6.33413e-09
8.81748e-08
1.84186e-07
3.95548e-14
3.95548e-14
2.5975e-10
2.54943e-10
9.47804e-12
9.44164e-12
2.96847e-08
2.7494e-09
2.57098e-10
2.78759e-10
8.59403e-11
-2.00606e-13
-6.52082e-13
-5.91026e-13
5.41824e-12
5.8477e-12
5.01252e-12
3.57472e-12
2.80374e-12
2.56104e-12
1.116e-10
4.71731e-10
5.35208e-11
4.33728e-11
3.95548e-14
5.32443e-05
-4.16604e-10
0.000207857
7.62438e-05
2.20732e-06
4.99453e-09
1.25552e-12
1.42949e-12
1.29791e-12
1.59179e-06
3.2936e-06
7.48218e-06
2.24589e-05
1.10881e-05
2.053e-07
3.98155e-06
2.72647e-05
1.82418e-05
1.81243e-12
5.58087e-12
5.04635e-05
1.26309e-05
0.000243236
0.00074165
0.00305598
0.00353205
0.000636118
2.41407e-06
2.50911e-05
0.000148488
0.000245699
0.000353062
0.00022547
0.000110344
0.000134816
0.000135031
6.29622e-05
1.46545e-07
1.20467e-05
9.94494e-05
0.00059029
0.00114125
0.000843811
0.002816
0.00689291
0.00394937
0.000791625
0.0098855
0.00522866
0.00012746
0.000397962
0.0011671
0.0011694
0.00115856
0.000607059
0.000185553
0.00012907
8.34584e-05
2.15636e-05
7.85834e-06
1.46571e-07
1.46597e-07
0.00171388
0.0275268
0.0824496
0.113048
0.114853
0.0592593
0.00407714
0.000807507
0.00988848
0.00136794
8.31106e-11
0.000378276
0.000722364
0.000208208
0.000118982
9.44156e-05
5.41572e-05
5.3417e-05
1.15873e-05
1.50195e-06
4.12267e-06
1.61889e-06
5.48852e-07
0.0897483
0.330207
0.370669
0.371139
0.224814
0.000819374
0.0097144
0.0497299
0.051006
0.0517225
0.050222
0.0438539
0.0415664
0.0388949
0.0388949
0.0388949
0.0403977
0.0451583
0.0384801
0.0325027
0.0278867
0.0250907
0.025088
0.031204
0.0361661
0.047391
0.0559306
0.0721674
0.0709551
0.0793418
0.0898433
0.115775
0.147055
0.109871
0.0389038
0.120305
0.23911
0.213412
0.180684
0.11419
0.101985
0.105883
0.144893
0.240668
0.3614
0.228723
0.247455
0.247804
0.263507
0.348552
0.488502
0.490186
0.488097
0.447337
0.388922
0.243203
0.16613
0.165846
0.270472
0.439126
0.439958
0.439587
0.300681
0.361873
0.240292
0.244879
0.245533
0.289844
0.268569
0.323066
0.416089
0.43701
0.449403
0.428747
0.281792
0.165426
0.169688
0.386668
0.538988
0.538969
0.205976
0.111629
0.32182
0.229443
0.228394
0.306475
0.357681
0.228848
0.178157
0.178222
0.177315
0.180549
0.184432
0.165505
0.165795
0.43012
0.536403
0.538958
0.216934
0.0854398
0.078036
0.274042
0.31062
0.391826
0.495618
0.495551
0.495614
0.450864
0.460612
0.348786
0.369931
0.389484
0.221527
0.371865
0.498035
0.486082
0.159914
0.120966
0.0796371
0.150113
0.302149
0.462303
0.458039
0.457125
0.304788
0.157633
0.143068
0.159742
0.457864
0.725819
0.726954
0.566992
0.562037
0.335814
0.12717
0.120316
0.101379
0.183105
0.186162
0.302087
0.321049
0.104074
0.0282347
6.7224e-06
5.79224e-06
5.62341e-06
0.0412388
0.509291
0.727459
0.727458
0.697184
0.230517
0.0941787
0.0933623
0.0976809
0.174879
0.183834
0.098937
0.118163
0.0405363
0.010064
0.000168964
-1.34923e-13
-1.2154e-10
-1.1383e-25
-1.45009e-22
1.37915e-06
7.91557e-06
3.5016e-06
8.32016e-10
7.71652e-15
4.17806e-13
1.74435e-08
-1.27913e-10
0.0368968
0.32531
0.37095
0.363388
0.0921547
0.000374602
0.000371143
0.0203867
0.186374
0.0790676
0.0406159
0.0963669
0.110104
0.0696323
0.0504042
0.025998
-1.39728e-06
-7.9066e-07
-1.08093e-07
-2.13972e-08
2.74017e-15
-1.30478e-22
1.96017e-20
0.0313251
0.29814
0.315521
0.00686515
0.00114775
0.000952145
0.000364821
0.000360589
0.770063
0.740982
0.57696
0.612522
0.715497
0.722586
0.69706
0.664005
0.480072
0.228846
0.0588628
-1.73591e-10
-8.92547e-17
0
5.93451e-06
0.0575703
0.108557
0.0483303
0.0238881
0.0656499
0.162673
0.192729
0.164748
0.763732
0.865714
0.951406
0.953901
0.973888
0.99784
0.994264
0.991457
0.985149
0.921169
0.752409
0.563915
0.401034
0.24674
0.0426012
0.00964088
0.00963454
0.0101118
0.202671
0.729575
0.913538
0.926726
0.895211
0.705457
0.706605
0.918217
0.99494
0.995069
0.998769
0.999062
0.999058
0.999058
0.999054
0.990486
0.916008
0.870856
0.888339
0.847712
0.453297
0.217928
0.342591
0.827591
0.960378
0.997073
0.997871
0.997871
0.877148
0.749117
0.745624
0.931139
0.999035
0.999065
0.999062
0.999062
0.998782
0.999054
0.990388
0.957203
0.927092
0.979425
0.995747
0.976704
0.91467
0.933275
0.933161
0.982038
0.997871
0.997871
0.997871
0.980597
0.898524
0.458242
0.585685
0.812957
0.988384
0.999062
0.997727
0.908711
0.931125
0.993079
0.985666
0.99719
0.9974
0.997404
0.997375
0.970333
0.933318
0.933854
0.984879
0.99787
0.996814
0.959801
0.98178
0.76287
0.224836
0.224868
0.22964
0.339548
0.611564
0.861484
0.948807
0.978332
0.997393
0.997401
0.997397
0.997405
0.997398
0.9974
0.993963
0.955661
0.944038
0.971904
0.91262
0.680853
0.325612
0.981801
0.874631
0.294028
0.224427
0.22484
0.458679
0.794304
0.967134
0.996892
0.997142
0.997397
0.997395
0.997401
0.9974
0.9974
0.997351
0.996453
0.98264
0.901196
0.566376
0.141619
8.28961e-19
-5.04017e-12
0.981776
0.979834
0.950788
0.868725
0.888885
0.976691
0.997379
0.997385
0.997385
0.997391
0.997391
0.997396
0.996539
0.994206
0.993755
0.986597
0.716973
0.274152
0.0305354
1.04883e-08
1.14105e-08
2.81225e-08
2.2458e-08
0.976237
0.937344
0.695269
0.540214
0.618901
0.815194
0.863051
0.874909
0.875284
0.804305
0.58595
0.355558
0.225051
0.131837
0.0560912
0.00961786
4.34168e-22
-2.53025e-23
1.19708e-05
6.67918e-05
7.80779e-05
4.04236e-07
4.07312e-13
0.971617
0.835217
0.231138
0.00397046
0.0344559
0.0731359
0.0892468
0.0916265
0.0752382
0.0361069
0.00636394
2.94135e-06
7.36274e-07
8.57818e-07
6.55478e-07
7.90358e-07
1.99569e-05
0.000350714
0.000419798
0.000418784
0.000285847
8.93629e-08
9.83451e-08
0.967304
0.892992
0.0943887
5.05035e-11
1.15453e-06
2.59838e-10
1.12618e-07
-6.21774e-08
1.12618e-07
6.92937e-07
3.29271e-05
7.24062e-05
7.31026e-05
6.34073e-05
3.23431e-06
2.91258e-07
3.35806e-06
3.31207e-05
7.50291e-05
0.000327214
0.000321286
0.000164027
9.05508e-08
0.963172
0.825675
0.0424425
3.51763e-11
9.06204e-07
2.15547e-06
7.00586e-06
6.4002e-05
7.37648e-05
7.41944e-05
6.57573e-05
3.57251e-05
3.5878e-05
9.39645e-06
9.54009e-07
3.98143e-08
3.94682e-08
3.90476e-09
3.77364e-09
3.90476e-09
2.75455e-09
2.84947e-09
1.48883e-05
0.963126
0.339604
0.00379325
5.0538e-11
5.42918e-07
1.25455e-06
2.06988e-06
4.38038e-06
3.72075e-07
3.18039e-07
3.35697e-05
0.0001083
0.000109831
9.6157e-05
1.42626e-05
4.03143e-08
5.57586e-08
3.98519e-08
2.29708e-08
1.33359e-08
2.66692e-08
2.9398e-09
4.38699e-10
0.963066
0.0854534
5.66453e-15
4.52766e-10
1.91667e-07
2.69803e-07
2.13018e-06
2.70178e-06
5.38181e-07
1.31145e-07
1.14127e-09
1.14752e-09
5.58873e-05
9.10133e-05
5.53175e-05
9.75436e-07
1.31619e-07
9.20509e-08
5.59143e-08
2.11446e-08
3.76337e-08
2.70239e-08
5.65183e-09
0.959714
0.0631945
5.01316e-15
5.09918e-15
7.51666e-08
2.88995e-07
3.26417e-06
3.34899e-06
1.08817e-06
3.44881e-07
7.77374e-09
5.26977e-09
2.28336e-09
7.50825e-07
2.95753e-06
1.15071e-06
1.43107e-07
1.32667e-07
1.05804e-07
4.17889e-08
1.6193e-08
5.02901e-09
4.01193e-09
0.925145
0.0360733
5.09922e-15
5.0132e-15
7.69946e-08
2.39992e-06
3.35585e-06
1.8569e-06
1.25406e-07
3.38881e-09
1.98654e-08
1.81765e-08
3.25961e-09
1.06888e-09
1.0647e-09
1.06574e-09
4.00925e-08
8.13798e-08
6.67915e-08
2.94317e-08
9.37542e-09
7.48562e-09
4.2661e-09
0.380854
0.00357532
8.96411e-14
8.41763e-08
8.32929e-08
2.98502e-06
3.03364e-06
5.00778e-07
5.74241e-09
2.38144e-09
2.38065e-09
2.20027e-09
2.21361e-09
1.62338e-09
1.13368e-09
1.06164e-09
1.0621e-09
1.10729e-09
1.13046e-09
1.88956e-09
3.09797e-09
2.76233e-09
2.77339e-09
3.46611e-08
1.95711e-05
5.69894e-06
2.60212e-07
3.10754e-07
2.71785e-06
1.05119e-06
3.07815e-07
8.9737e-08
4.32496e-09
2.90186e-09
3.2731e-09
2.99756e-09
2.38113e-09
1.84515e-09
1.37933e-09
1.12734e-09
1.04348e-09
1.0414e-09
1.10439e-09
1.3498e-09
1.83375e-09
2.2743e-09
3.30903e-08
6.1711e-08
7.72831e-06
2.10841e-06
1.27016e-06
5.7857e-07
3.52642e-07
3.2721e-07
1.46414e-07
8.0064e-09
3.66131e-09
3.56253e-09
2.80684e-09
2.19275e-09
1.73684e-09
1.39667e-09
1.16038e-09
1.06008e-09
1.03953e-09
1.11543e-09
1.30053e-09
1.55468e-09
1.96054e-09
1.3331e-08
2.15356e-07
4.18537e-06
1.90018e-06
5.44573e-07
2.35115e-07
3.21705e-07
2.17986e-07
3.3234e-08
3.13783e-09
3.14447e-09
2.67322e-09
2.05728e-09
1.60255e-09
1.27348e-09
1.01273e-09
8.50776e-10
7.70571e-10
7.66484e-10
8.16844e-10
8.90016e-10
1.12513e-09
1.29133e-09
1.21064e-08
7.45379e-08
4.02697e-07
3.10886e-07
2.13209e-07
2.47633e-07
2.45471e-07
4.65411e-08
5.51595e-09
3.58039e-09
2.60107e-09
1.94384e-09
1.46833e-09
1.10363e-09
8.25109e-10
6.46785e-10
5.34387e-10
4.77099e-10
4.47999e-10
4.8628e-10
5.57853e-10
5.9e-10
7.00198e-10
1.31271e-08
2.31396e-08
1.36855e-07
1.16698e-07
2.18044e-07
2.49461e-07
8.73785e-08
1.40038e-08
3.71235e-09
2.70588e-09
1.95027e-09
1.44939e-09
1.05608e-09
7.6107e-10
5.38886e-10
3.87886e-10
3.07729e-10
2.61874e-10
2.42173e-10
2.43757e-10
2.53379e-10
2.7244e-10
3.14334e-10
0.00449537
7.99984e-08
3.6865e-08
7.07233e-08
1.80692e-07
1.06193e-07
3.0808e-08
6.33739e-09
2.99205e-09
2.12533e-09
1.58843e-09
1.17834e-09
8.23063e-10
5.51627e-10
3.6352e-10
2.43104e-10
1.67517e-10
1.29852e-10
1.08208e-10
1.02966e-10
9.83701e-11
9.55995e-11
1.03118e-10
0.00695973
7.98559e-07
3.14427e-08
5.51287e-08
6.70049e-08
2.93808e-08
9.30998e-09
3.98103e-09
2.48192e-09
1.90404e-09
1.4623e-09
1.05276e-09
7.06427e-10
4.37615e-10
2.63627e-10
1.58912e-10
9.74381e-11
6.3404e-11
4.61554e-11
3.54419e-11
3.21783e-11
2.95732e-11
3.41153e-11
0.00699054
0.000154583
1.68242e-07
1.8069e-08
1.97286e-08
1.11277e-08
5.63174e-09
3.12521e-09
2.30239e-09
1.89477e-09
1.47001e-09
1.01606e-09
6.36198e-10
3.70323e-10
2.0803e-10
1.12313e-10
6.12728e-11
3.4095e-11
2.03767e-11
1.37549e-11
9.96804e-12
7.87601e-12
7.94588e-12
0.00441224
0.000217169
4.47544e-09
6.45687e-09
8.12075e-09
6.25317e-09
3.84311e-09
2.72816e-09
2.33916e-09
2.04904e-09
1.55355e-09
1.01768e-09
6.0299e-10
3.32739e-10
1.76241e-10
9.02922e-11
4.3616e-11
2.16724e-11
1.07031e-11
5.68684e-12
3.33747e-12
1.97217e-12
2.09073e-12
0.00100448
0.000153367
4.37301e-09
4.5151e-09
5.53164e-09
4.39417e-09
3.04575e-09
2.57166e-09
2.57403e-09
2.33136e-09
1.73478e-09
1.1055e-09
6.35227e-10
3.45172e-10
1.77649e-10
8.6536e-11
3.92245e-11
1.68569e-11
7.23134e-12
3.22199e-12
1.37455e-12
6.39622e-13
4.77401e-13
0.000503984
3.00223e-05
4.75504e-09
4.47962e-09
4.42652e-09
3.24931e-09
2.69068e-09
2.62094e-09
3.01774e-09
2.82793e-09
2.1073e-09
1.42966e-09
9.24718e-10
5.17217e-10
2.6506e-10
1.21002e-10
5.11803e-11
1.92987e-11
6.79758e-12
2.49611e-12
8.86858e-13
2.62172e-13
1.67829e-13
3.97638e-09
3.90423e-09
4.83734e-09
4.42473e-09
3.19659e-09
3.0666e-09
3.0511e-09
2.91957e-09
3.72937e-09
3.98923e-09
3.33189e-09
2.77611e-09
2.09819e-09
1.24396e-09
5.85325e-10
2.45802e-10
9.36085e-11
3.13855e-11
9.78055e-12
2.87758e-12
8.20234e-13
1.99075e-13
7.21145e-14
4.65925e-09
3.92557e-09
4.80823e-09
4.07563e-09
4.39455e-09
9.37355e-09
5.7929e-09
3.32472e-09
5.12745e-09
6.41058e-09
6.71185e-09
7.22551e-09
5.65379e-09
3.02863e-09
1.29176e-09
5.04015e-10
1.7414e-10
5.55735e-11
1.53895e-11
3.97343e-12
1.02752e-12
1.71049e-13
4.36832e-14
1.10839e-08
7.26871e-09
4.89768e-09
4.89653e-09
1.58473e-08
3.5428e-08
1.19822e-08
3.62024e-09
7.53895e-09
9.25421e-09
1.50205e-08
2.20782e-08
1.35212e-08
5.81137e-09
2.2396e-09
7.97607e-10
2.59329e-10
7.70085e-11
2.00941e-11
5.01938e-12
1.13001e-12
2.1044e-13
2.61617e-14
1.07935e-08
7.38005e-09
4.89644e-09
5.7505e-09
1.62185e-07
7.40656e-08
1.59326e-08
1.46453e-08
2.20709e-08
1.17839e-08
7.97944e-08
7.291e-08
2.7899e-08
8.57398e-09
3.09674e-09
1.06962e-09
3.18674e-10
8.75823e-11
2.23446e-11
4.88006e-12
1.12536e-12
1.52759e-13
2.2606e-14
9.60838e-09
7.18266e-09
6.55197e-09
1.14767e-07
2.69172e-07
9.86704e-08
6.2515e-08
7.67255e-08
4.32088e-08
2.61793e-07
6.57748e-07
1.84791e-07
3.29398e-08
8.82191e-09
3.26586e-09
1.07331e-09
3.03512e-10
7.83625e-11
1.79687e-11
3.68997e-12
8.19158e-13
1.38667e-13
1.15196e-14
4.5585e-08
7.87707e-09
1.97235e-08
2.36606e-07
2.69429e-07
1.16552e-07
3.35333e-07
2.82664e-07
8.17137e-08
7.55769e-07
8.20847e-07
2.45659e-07
2.96206e-08
6.77044e-09
2.50605e-09
8.16743e-10
2.32993e-10
5.56998e-11
1.2441e-11
2.47016e-12
5.11877e-13
7.37197e-14
9.86985e-15
6.74589e-08
1.65059e-08
5.15338e-08
2.16457e-07
1.86532e-07
3.06958e-07
3.60907e-07
2.2992e-07
4.55529e-07
8.50029e-07
7.95783e-07
1.35767e-07
1.90396e-08
4.21708e-09
1.49704e-09
5.14117e-10
1.36058e-10
3.03688e-11
6.46506e-12
1.31421e-12
2.402e-13
3.26824e-14
2.1365e-15
6.98385e-08
3.46764e-08
5.48637e-08
9.46412e-08
4.46885e-08
3.15599e-07
2.98709e-07
5.3462e-08
8.20973e-07
8.5072e-07
5.13581e-07
3.61474e-08
5.96998e-09
2.21748e-09
8.49019e-10
2.47252e-10
6.02947e-11
1.29007e-11
2.64583e-12
4.70688e-13
8.46926e-14
7.86114e-15
9.36957e-16
3.85092e-08
2.16987e-08
1.16115e-08
4.09789e-09
4.19073e-09
2.13443e-07
1.20263e-07
5.3381e-08
6.73755e-07
6.22137e-07
1.03489e-07
1.33224e-08
3.10462e-09
1.1588e-09
3.86777e-10
9.54909e-11
1.9709e-11
3.91603e-12
7.1154e-13
1.10366e-13
1.42904e-14
1.66043e-15
8.73751e-17
1.38347e-09
1.56981e-09
1.04478e-09
1.01882e-09
2.29925e-07
1.92905e-07
4.62436e-08
7.41546e-08
1.84898e-07
9.50217e-08
1.7387e-08
3.97294e-09
1.45402e-09
4.73412e-10
1.2068e-10
2.46132e-11
4.12957e-12
6.67e-13
1.02065e-13
1.485e-14
1.65836e-15
1.43572e-16
1.36158e-17
2.29998e-06
1.04834e-09
1.0187e-09
4.62559e-07
7.72368e-07
6.13595e-08
3.47044e-08
1.22831e-07
8.96604e-08
1.80044e-08
4.02889e-09
2.04158e-09
7.59348e-10
1.83083e-10
3.19313e-11
4.45448e-12
5.65398e-13
7.00365e-14
8.0478e-15
9.82931e-16
9.56671e-17
8.04165e-18
9.25613e-19
2.72013e-05
2.08781e-05
1.45155e-05
7.27565e-06
7.92907e-07
6.232e-07
5.19263e-07
1.51405e-07
1.34781e-08
4.13413e-09
2.09995e-09
8.65413e-10
2.14864e-10
3.57836e-11
4.29354e-12
4.29744e-13
3.9775e-14
3.64266e-15
3.41188e-16
3.02625e-17
2.58659e-18
2.36146e-19
7.29233e-20
0.318377
0.329627
0.329614
0.324529
0.00116468
0.00313718
0.00224492
0.00106877
0.134484
0.135715
0.155392
0.17237
0.875251
0.882886
0.903372
0.911752
0.997871
0.997808
0.997637
0.997235
0.995608
0.992133
0.987766
0.973362
0.855198
0.744381
0.578681
0.439052
0.10969
0.0369768
0.00247065
-9.99676e-09
-1.13161e-10
-2.67387e-25
3.89653e-29
-8.45464e-11
2.86688e-08
1.78366e-08
2.55939e-09
2.19657e-10
-2.07272e-15
-2.52729e-12
1.64692e-10
7.17996e-17
3.72777e-07
0
1.05515e-18
1.08059e-18
1.45719e-05
0.000191398
0.000220357
0.000200977
2.44894e-05
0.000197842
0.000223209
0.000222767
4.54545e-10
4.26155e-10
1.1816e-08
1.23743e-08
2.56378e-09
2.87521e-09
5.54093e-09
1.35911e-08
3.53687e-09
2.87634e-09
5.68687e-09
9.71593e-09
3.45369e-09
3.17406e-09
3.18177e-09
6.05854e-09
2.83858e-09
2.85434e-09
3.4887e-09
4.74002e-09
2.50322e-09
2.85444e-09
3.3006e-09
3.98835e-09
2.08299e-09
2.28414e-09
2.55652e-09
2.84168e-09
1.40494e-09
1.43272e-09
1.55494e-09
1.64901e-09
7.36274e-10
7.64165e-10
7.83922e-10
8.35022e-10
3.3043e-10
3.03737e-10
3.34166e-10
3.45315e-10
1.07934e-10
1.09808e-10
1.05471e-10
1.20982e-10
3.53746e-11
3.16782e-11
3.61106e-11
3.75897e-11
8.3923e-12
8.25373e-12
7.89885e-12
1.03415e-11
2.05446e-12
1.89701e-12
2.30925e-12
2.62436e-12
5.02968e-13
5.29227e-13
5.77776e-13
9.35861e-13
1.69159e-13
1.79785e-13
2.67475e-13
4.29178e-13
6.76916e-14
8.07616e-14
1.26703e-13
2.6786e-13
3.28903e-14
3.84554e-14
7.19243e-14
1.67284e-13
1.58561e-14
1.79157e-14
3.75935e-14
1.00824e-13
8.25805e-15
8.91223e-15
1.89486e-14
5.50776e-14
4.0058e-15
3.49811e-15
9.58468e-15
2.85594e-14
2.22815e-15
1.71851e-15
4.47927e-15
1.39971e-14
5.9624e-16
5.29741e-16
1.92704e-15
5.91579e-15
1.98195e-16
2.36395e-16
6.99032e-16
2.19707e-15
3.34701e-17
6.41378e-17
2.27577e-16
6.45469e-16
6.85845e-18
2.01006e-17
6.11835e-17
1.85873e-16
1.36327e-18
4.79931e-18
1.56932e-17
4.52963e-17
2.81685e-19
9.27871e-19
2.84635e-18
7.53842e-18
0.102169
6.22525e-06
6.19137e-06
6.15523e-06
6.11212e-06
5.77684e-06
0.293575
0.702712
0.727458
0.505306
0.140549
0.147317
0.199806
0.343195
0.361745
0.371038
0.151026
0.0965127
0.0922049
6.28462e-06
6.25487e-06
6.2246e-06
6.19047e-06
1.28657e-05
5.62342e-06
0.183144
0.684262
0.688337
0.314444
0.0156562
0.226996
0.627063
0.628203
0.627064
0.558947
0.434251
0.317437
0.0921789
0.188483
0.196665
0.171384
0.0497158
5.62342e-06
5.77684e-06
0.00706232
0.174505
0.292969
0.0698475
0.0119743
0.0184343
0.15437
0.539689
0.739939
0.789229
0.789235
0.725342
0.217248
0.906172
0.877055
0.853277
0.644513
0.359985
0.191489
0.0756102
0.0303261
0.0301131
0.0416773
0.0693511
0.12809
0.104559
0.32715
0.662871
0.789234
0.789237
0.789231
0.564828
0.996978
0.996959
0.960558
0.935237
0.965928
0.92034
0.696914
0.527637
0.464028
0.493921
0.569475
0.585852
0.574487
0.582007
0.761369
0.789229
0.789242
0.643351
0.309021
0.962992
0.970608
0.99326
0.993748
0.99375
0.976388
0.876131
0.699176
0.541162
0.457416
0.43297
0.48937
0.485133
0.458388
0.345462
0.407586
0.403914
0.304948
0.079503
0.38158
0.483812
0.842322
0.910081
0.705811
0.338862
0.140296
0.051018
0.0017882
5.30269e-14
5.34772e-14
5.70706e-07
1.03007e-08
2.30379e-07
1.01231e-11
5.16801e-12
9.43052e-19
-2.34266e-24
-4.64675e-20
5.03725e-21
0.0255394
0.163687
0.150131
0.0128785
2.03985e-13
1.62733e-13
1.75998e-07
1.86173e-07
6.37246e-07
1.14459e-07
3.81398e-07
2.83436e-07
7.2108e-06
1.51069e-05
1.05695e-05
1.73641e-06
-5.98216e-22
-1.43925e-20
-2.92513e-11
-1.30436e-10
-1.50661e-20
1.71623e-12
1.66709e-12
1.25637e-06
3.28852e-06
4.53804e-06
5.12573e-06
7.49289e-06
4.37624e-06
3.56393e-06
2.13079e-06
2.32367e-05
4.151e-05
5.85697e-05
1.3479e-17
1.31243e-17
-4.36293e-21
-4.97871e-13
1.84674e-24
1.2254e-06
6.23595e-06
9.70379e-06
8.29843e-06
7.06321e-06
5.90545e-06
3.65171e-05
8.16395e-05
2.05568e-05
9.89253e-06
3.77921e-06
2.46436e-05
4.70226e-05
6.6956e-05
2.78585e-05
1.3525e-17
1.33881e-07
1.02926e-06
6.38744e-06
7.98845e-06
1.87921e-05
1.93748e-05
5.59391e-05
0.000105601
0.000195516
0.000330584
0.000358034
0.000281091
1.08561e-05
1.26959e-05
3.64942e-05
4.12266e-05
6.70668e-05
3.29273e-05
6.60744e-08
1.16629e-06
-6.92493e-10
9.9908e-07
8.52425e-06
2.41027e-05
2.87475e-05
0.000198932
0.000354924
0.000359072
0.000358981
0.000357348
0.000357412
0.000163038
7.36869e-05
0.000312659
0.000154953
2.30088e-05
9.68452e-07
5.34402e-07
2.59969e-06
4.22515e-05
3.12409e-05
4.25025e-05
2.93639e-05
2.76287e-05
7.27874e-05
0.000160343
0.000237906
0.000256284
0.000223518
0.000299605
0.000344873
0.000346518
0.000345315
0.000337887
3.00768e-05
1.47107e-08
3.70592e-07
5.75673e-06
0.000179152
7.19967e-05
8.15695e-05
6.03142e-05
4.73866e-06
1.47427e-08
1.49529e-08
1.47427e-08
7.66176e-10
1.52618e-10
3.87897e-10
0.00026692
0.000343893
0.000294427
0.000170182
2.56546e-05
1.06146e-08
2.57587e-07
5.75673e-06
1.2777e-08
1.27409e-08
3.04761e-06
2.17975e-06
6.40936e-07
7.15243e-08
2.49399e-08
1.93703e-08
1.98186e-08
1.40866e-08
1.32813e-08
3.96566e-10
7.7606e-05
3.90831e-11
8.35911e-11
2.99837e-06
1.17257e-08
3.03146e-07
5.75673e-06
1.63812e-08
1.27833e-08
1.14227e-08
1.14693e-08
1.15205e-08
5.39116e-08
5.35191e-08
3.4435e-08
3.15014e-08
5.72193e-08
2.37868e-08
2.2369e-09
1.46678e-10
1.68089e-10
2.74078e-10
2.65723e-10
2.14666e-08
2.51163e-07
5.71949e-06
1.56952e-08
1.58402e-08
1.13647e-08
1.78084e-08
4.33688e-08
5.99935e-08
5.24187e-08
2.40161e-08
7.79115e-08
3.59171e-07
1.73268e-07
1.59089e-08
3.01913e-09
5.40524e-09
5.6654e-09
4.59362e-09
2.97925e-08
3.57327e-07
5.66543e-06
1.17389e-08
1.28158e-08
1.13301e-08
1.50276e-08
3.06457e-08
3.85451e-08
1.63536e-08
1.2145e-08
3.29192e-07
5.78363e-07
4.42456e-07
2.26733e-08
7.89149e-09
1.14411e-08
1.32124e-08
1.39895e-08
3.20164e-08
2.51332e-07
4.66046e-06
7.74194e-09
9.15043e-09
8.96402e-09
6.62598e-09
6.5711e-09
5.39253e-09
5.15456e-09
4.85579e-09
4.41012e-07
5.77865e-07
4.53624e-07
2.89229e-08
1.10672e-08
1.18145e-08
1.31868e-08
1.37167e-08
1.91883e-08
6.78255e-08
2.05486e-07
5.14529e-09
5.78021e-09
6.11265e-09
5.13482e-09
3.94119e-09
3.99104e-09
4.16297e-09
3.83936e-09
2.8403e-08
3.78041e-07
3.57208e-08
2.46877e-08
1.06491e-08
9.59591e-09
9.68456e-09
1.44221e-08
9.42468e-08
3.76094e-07
3.06379e-08
3.33523e-09
3.5715e-09
3.78208e-09
3.80625e-09
3.48711e-09
3.66907e-09
4.01125e-09
3.42006e-09
1.15816e-09
6.22226e-09
1.57023e-09
8.98821e-09
7.57766e-09
6.60983e-09
6.03588e-09
2.35795e-08
5.5615e-07
7.24341e-06
1.84118e-07
1.89363e-09
2.0324e-09
2.18149e-09
2.33663e-09
2.51886e-09
2.83462e-09
3.2491e-09
2.39073e-09
1.07989e-09
1.00116e-09
1.02866e-09
1.82821e-09
3.36821e-09
3.89147e-09
3.7861e-09
1.8928e-08
7.15356e-07
8.60007e-06
5.79564e-06
9.66708e-10
1.08275e-09
1.17833e-09
1.2918e-09
1.45365e-09
1.78324e-09
2.02123e-09
1.53303e-09
1.0288e-09
9.93932e-10
1.05718e-09
1.17342e-09
2.11051e-09
3.25301e-09
3.31703e-09
9.70829e-09
5.47841e-07
8.60282e-06
8.58466e-06
4.13307e-10
5.02089e-10
6.09576e-10
6.8677e-10
7.63958e-10
8.87343e-10
1.00105e-09
1.02061e-09
9.36505e-10
9.83729e-10
1.15156e-09
1.41046e-09
2.03514e-09
3.32558e-09
3.27618e-09
4.02529e-09
2.65764e-07
8.27304e-06
3.21644e-06
1.64133e-10
2.24748e-10
2.77368e-10
3.26888e-10
3.71933e-10
4.61086e-10
5.76011e-10
6.79614e-10
7.69961e-10
9.3777e-10
1.19899e-09
1.53282e-09
2.05992e-09
3.41885e-09
3.40152e-09
2.82275e-09
6.70064e-08
7.32081e-07
2.9994e-09
5.41414e-11
8.37068e-11
1.20244e-10
1.60307e-10
2.00862e-10
2.5163e-10
3.45936e-10
4.75816e-10
6.5195e-10
8.85722e-10
1.18283e-09
1.53726e-09
2.02916e-09
3.30602e-09
3.94218e-09
3.15551e-09
2.14597e-08
2.98103e-09
3.01069e-09
1.79276e-11
3.29809e-11
5.17656e-11
7.51917e-11
1.1308e-10
1.71256e-10
2.60359e-10
3.99528e-10
5.92827e-10
8.48285e-10
1.16287e-09
1.52536e-09
1.9623e-09
2.85314e-09
1.11713e-08
9.31612e-09
3.13769e-09
2.98688e-09
2.97957e-09
6.06039e-12
1.34685e-11
2.52791e-11
4.56187e-11
7.89874e-11
1.35827e-10
2.28183e-10
3.68773e-10
5.6558e-10
8.21751e-10
1.13256e-09
1.48973e-09
1.85675e-09
2.36458e-09
5.33955e-08
6.45899e-08
9.06105e-09
2.98566e-09
7.79494e-08
3.33671e-12
8.12422e-12
1.71877e-11
3.38448e-11
6.46906e-11
1.19352e-10
2.087e-10
3.43977e-10
5.32256e-10
7.71679e-10
1.05766e-09
1.39467e-09
1.72725e-09
2.49248e-09
1.29001e-07
2.59007e-07
6.33256e-08
2.62367e-08
2.30727e-07
2.16483e-12
5.84114e-12
1.30892e-11
2.78805e-11
5.61458e-11
1.05757e-10
1.8745e-10
3.11151e-10
4.79658e-10
6.88232e-10
9.37027e-10
1.24337e-09
1.61615e-09
2.18829e-09
7.49501e-08
2.88129e-07
2.88844e-07
1.30252e-07
2.71386e-07
1.51e-12
4.33861e-12
1.0207e-11
2.24089e-11
4.6492e-11
8.97242e-11
1.58951e-10
2.6156e-10
3.96263e-10
5.61833e-10
7.60319e-10
1.01896e-09
1.43791e-09
1.73221e-09
6.65327e-09
2.38685e-07
2.96823e-07
2.98994e-07
2.63688e-07
1.02771e-12
3.06489e-12
7.35776e-12
1.69549e-11
3.61074e-11
6.88521e-11
1.22078e-10
2.00345e-10
3.05492e-10
4.30297e-10
5.81291e-10
7.86784e-10
1.16749e-09
1.73044e-09
1.94657e-09
5.35004e-08
2.98954e-07
2.98546e-07
1.19325e-07
6.40355e-13
1.90393e-12
4.87675e-12
1.14506e-11
2.46584e-11
4.86521e-11
8.55163e-11
1.38642e-10
2.05712e-10
2.89985e-10
3.9139e-10
5.33633e-10
8.378e-10
1.46138e-09
1.53672e-09
1.48736e-09
2.01094e-07
2.98713e-07
1.75563e-08
3.59522e-13
1.09839e-12
2.97645e-12
7.11941e-12
1.56378e-11
3.02054e-11
5.27252e-11
8.52378e-11
1.2822e-10
1.83111e-10
2.48872e-10
3.412e-10
5.34654e-10
1.00989e-09
1.42684e-09
1.10387e-09
3.03931e-08
1.71474e-07
1.7631e-08
1.71696e-13
5.66902e-13
1.56583e-12
3.91884e-12
8.69948e-12
1.67316e-11
2.92392e-11
4.76426e-11
7.32098e-11
1.07335e-10
1.4996e-10
2.07073e-10
3.2162e-10
6.23621e-10
1.10441e-09
1.10138e-09
6.12004e-10
1.52429e-08
1.4751e-08
7.58706e-14
2.55922e-13
7.25157e-13
1.83347e-12
4.09246e-12
7.87938e-12
1.39179e-11
2.3657e-11
3.77017e-11
5.75582e-11
8.28257e-11
1.15449e-10
1.76876e-10
3.42924e-10
6.7637e-10
8.59771e-10
6.13864e-10
6.12755e-10
6.88815e-09
3.00988e-14
1.00452e-13
2.88302e-13
7.30397e-13
1.59111e-12
3.08307e-12
5.74266e-12
1.01732e-11
1.713e-11
2.76205e-11
4.14101e-11
5.83895e-11
8.75297e-11
1.66784e-10
3.34979e-10
5.44606e-10
6.00208e-10
1.31821e-09
3.84956e-09
9.41823e-15
3.33667e-14
9.50808e-14
2.36195e-13
5.17926e-13
1.03613e-12
2.00915e-12
3.77483e-12
6.86567e-12
1.17277e-11
1.84003e-11
2.63847e-11
3.82149e-11
6.99237e-11
1.48509e-10
2.6831e-10
4.9898e-10
1.36912e-09
2.81603e-09
2.78631e-15
9.13219e-15
2.46678e-14
5.9385e-14
1.33195e-13
2.77329e-13
5.83e-13
1.19676e-12
2.32977e-12
4.37979e-12
7.20672e-12
1.03137e-11
1.43785e-11
2.5899e-11
5.54179e-11
1.19812e-10
2.38264e-10
7.47893e-10
1.7674e-09
6.24368e-16
2.02335e-15
5.42223e-15
1.36546e-14
3.29027e-14
7.77616e-14
1.79275e-13
3.91394e-13
8.13547e-13
1.54482e-12
2.61075e-12
3.8046e-12
5.16617e-12
8.60088e-12
1.92788e-11
4.22819e-11
8.19655e-11
2.31034e-10
6.90331e-10
1.1724e-16
3.46317e-16
9.19386e-16
2.45689e-15
6.50957e-15
1.68131e-14
4.20226e-14
9.62132e-14
2.08043e-13
4.02487e-13
6.92748e-13
9.83326e-13
1.30693e-12
2.02811e-12
4.68866e-12
1.15863e-11
2.2032e-11
6.30585e-11
1.01386e-10
1.50898e-17
4.04159e-17
1.08283e-16
3.09677e-16
8.57992e-16
2.22578e-15
5.51038e-15
1.37878e-14
3.04034e-14
5.74521e-14
9.77897e-14
1.36208e-13
1.79847e-13
2.61348e-13
5.86571e-13
1.50291e-12
3.36726e-12
7.13641e-12
0
)
;

boundaryField
{
    leftWall
    {
        type            zeroGradient;
    }
    rightWall
    {
        type            zeroGradient;
    }
    lowerWall
    {
        type            zeroGradient;
    }
    atmosphere
    {
        type            inletOutlet;
        inletValue      uniform 0;
        value           nonuniform List<scalar> 
46
(
2.72013e-05
2.08781e-05
1.45155e-05
7.27565e-06
7.92907e-07
6.232e-07
5.19263e-07
1.51405e-07
1.34781e-08
4.13413e-09
2.09995e-09
8.65413e-10
0
0
0
0
0
0
0
0
0
0
0
0
0
0
0
0
0
0
0
0
0
0
0
0
0
0
0
0
0
0
0
0
0
0
)
;
    }
    defaultFaces
    {
        type            empty;
    }
}


// ************************************************************************* //
