/*--------------------------------*- C++ -*----------------------------------*\
| =========                 |                                                 |
| \\      /  F ield         | OpenFOAM: The Open Source CFD Toolbox           |
|  \\    /   O peration     | Version:  2312                                  |
|   \\  /    A nd           | Website:  www.openfoam.com                      |
|    \\/     M anipulation  |                                                 |
\*---------------------------------------------------------------------------*/
FoamFile
{
    version     2.0;
    format      ascii;
    arch        "LSB;label=32;scalar=64";
    class       volScalarField;
    location    "2.2";
    object      alpha.galistan;
}
// * * * * * * * * * * * * * * * * * * * * * * * * * * * * * * * * * * * * * //

dimensions      [0 0 0 0 0 0 0];

internalField   nonuniform List<scalar> 
2268
(
1
1
1
1
1
1
1
1
1
1
1
1
1
1
1
1
1
1
1
1
0.999999
0.999948
0.999939
1
1
1
1
1
1
1
1
1
1
1
1
1
1
1
1
1
1
1
1
1
0.999977
0.999956
1
1
1
1
1
1
1
1
1
1
1
1
1
1
1
1
1
1
1
1
1
1
1
0.999999
1
1
1
1
1
1
1
1
1
1
1
1
1
1
1
1
1
0.999999
0.999999
1
1
0.99999
0.99994
0.999999
0.999792
0.999923
0.999998
1
1
1
1
0.999998
0.999997
0.999993
0.999978
0.999989
0.984094
0.956304
0.938891
0.938877
0.951933
0.976298
0.99995
0.999453
0.997038
0.999016
0.996873
0.996456
0.999356
0.999977
0.999919
0.999788
0.999725
0.976545
0.922452
0.842982
0.738273
0.611333
0.468274
0.341497
0.265201
0.227245
0.229664
0.273378
0.345794
0.43947
0.517589
0.551201
0.979064
0.982288
0.981938
0.966923
0.899995
0.771404
0.605139
0.445927
0.309448
0.197871
0.095917
0.0402644
0.0125184
0.0016191
9.95086e-05
1.55893e-10
1.20414e-13
-1.81221e-08
0.000818082
0.0049751
0.00993748
0.0179484
0.0662043
0.507509
0.550763
0.50747
0.347305
0.200746
0.0727681
0.010994
0.000983406
0.000511716
0.000514966
0.00032657
9.11384e-05
8.52123e-06
1.73587e-05
1.09098e-05
0.000621314
0.0059102
0.00835914
0.00633779
0.00778303
0.0082953
0.0110274
0.0138382
0.894643
0.916697
0.916703
0.914353
0.927356
0.927373
0.927369
0.927386
0.927692
0.927732
0.926134
0.931664
0.940019
0.944634
0.94469
0.945607
0.945649
0.945649
0.934437
0.890329
0.898396
0.899644
0.884211
0.85121
0.842468
0.823659
0.862616
0.880047
0.788188
0.731224
0.756796
0.787075
0.855234
0.867065
0.848625
0.814667
0.693341
0.598035
0.512618
0.500062
0.526819
0.578056
0.560504
0.482652
0.482643
0.484651
0.527526
0.540689
0.531364
0.46701
0.449253
0.51531
0.521992
0.484557
0.422881
0.150882
0.162885
0.0838979
0.0898643
0.093536
0.140675
0.22554
0.20853
0.230061
0.284041
0.248359
0.202409
0.180839
0.133802
0.186229
0.308776
0.364931
0.292748
0.0436981
0.0432514
0.0108176
0.0836549
0.0898278
0.0786397
0.0631741
0.123389
0.174747
0.142744
0.0975023
0.10516
0.105525
0.116191
0.115324
0.112909
0.12964
0.140962
0.0242755
0.0232916
0.0331486
0.0108278
0.00166625
0.0178215
0.0410574
0.0295043
0.0154016
0.0430656
0.0668369
0.083551
0.106206
0.11681
0.105015
0.120853
0.111019
0.0801701
0.0209332
0.0217183
0.0354543
0.02465
0.0109806
0.00168618
0.00129022
0.00124851
0.0022516
-7.77107e-08
-1.35325e-09
0.00440383
0.0135981
0.0610858
0.105484
0.102031
0.0227031
0.00884759
0.00668084
0.0257411
0.0309416
0.0295242
0.00296222
0.0135334
0.00156167
0.00152282
0.00121471
0.00010465
8.04601e-05
2.27851e-24
-2.17308e-07
2.84864e-11
0.0501689
0.0819239
0.026126
0.00507074
0.00509478
0.00674856
0.0283403
0.0310183
0.00504889
0.00297245
0.0135802
0.0531333
0.0456639
0.00401376
0.00175113
0.0017318
0.000477771
0.000211877
9.92731e-05
9.25711e-05
4.25652e-05
1.30678e-08
1.30364e-13
1.47927e-13
4.68088e-14
3.60632e-12
0.00455253
0.00993893
0.00988257
0.00915306
0.00103779
0.000729065
0.00135352
0.00464196
7.65077e-08
9.83939e-08
0.00352199
0.00180567
0.00129358
0.000705242
5.40021e-05
5.17988e-05
4.7874e-05
5.10729e-06
1.14101e-08
4.87481e-08
1.17129e-07
8.23067e-11
0.000139029
0.00119127
0.00145843
0.00110337
0.000791514
0.000800356
0.000726243
0.000162736
2.02489e-05
1.47654e-05
8.78554e-06
2.7824e-06
0.000157206
0.000717374
0.000783593
0.000698578
0.000146198
4.31093e-05
5.50635e-05
4.06864e-05
2.98332e-08
3.04694e-08
2.4853e-05
8.54781e-05
0.000134678
0.000140965
0.000780453
0.00249594
0.00478764
0.00529272
0.00290239
2.02615e-05
1.82508e-05
5.38843e-05
5.39934e-05
1.88177e-05
6.98275e-06
0.000401054
0.000395753
0.000210226
2.68958e-05
5.64855e-05
5.64322e-05
5.27603e-06
9.44768e-07
1.35212e-05
5.23386e-05
5.94249e-05
4.64884e-05
0.000945288
0.0041663
0.00530079
0.00530107
0.00484996
0.000800637
1.04567e-05
4.85032e-06
4.82278e-06
3.05189e-06
3.06114e-06
2.09103e-05
8.97181e-05
0.000110423
2.17305e-05
7.93506e-06
1.17802e-05
3.75032e-06
3.65225e-06
1.31163e-05
6.97337e-05
7.88005e-05
4.64831e-05
0.000161552
0.00147502
0.00248573
0.00228479
0.00142912
0.00100476
1.07949e-05
4.82313e-06
8.46259e-06
6.58273e-06
3.16973e-06
3.46783e-06
1.73557e-05
1.64638e-05
7.70357e-06
6.17871e-06
5.49763e-05
0.000123229
3.62196e-05
1.13576e-05
3.53197e-05
4.27559e-05
2.74206e-05
0.000185933
0.000300102
0.000303563
0.000322354
0.000325218
0.000342104
7.80278e-06
5.02557e-06
2.94803e-05
2.95673e-05
6.28844e-06
3.84242e-06
3.09722e-06
2.97237e-06
3.18376e-05
4.66977e-05
0.000199962
0.000200123
7.48054e-05
2.14855e-05
8.92499e-06
1.416e-06
1.4114e-06
0.000138645
0.000433931
0.00030693
0.000310866
0.000829247
0.0053313
8.85455e-06
3.61611e-06
3.63582e-06
7.87327e-06
3.56842e-06
6.00604e-06
9.11717e-05
0.000163208
0.000165117
0.000167966
0.000169081
0.00010403
3.52826e-05
9.97863e-06
1.43783e-06
1.41447e-06
1.41593e-06
0.000156893
0.000672557
0.00138704
0.00342546
0.01003
0.0198005
7.28631e-05
5.1738e-05
3.55086e-06
3.56567e-06
3.55423e-06
1.92834e-05
9.68539e-05
0.000108328
7.88415e-05
6.76251e-05
7.24692e-05
2.56155e-05
1.15923e-05
2.53733e-05
3.36558e-05
4.92501e-05
0.000241028
0.000354198
0.000899911
0.00539551
0.0108505
0.0108155
0.00889413
0.000991162
0.00220096
0.00131981
3.55368e-06
3.56928e-06
3.55597e-06
3.63418e-06
6.3056e-06
2.50401e-05
2.3725e-05
1.59731e-05
6.96034e-06
6.89793e-06
7.41683e-05
0.000370776
0.00038803
0.000446028
0.00240558
0.00418214
0.00357222
0.000691579
0.000126057
1.47303e-07
0.000162804
0.00131692
0.00747023
0.00985353
0.00985338
0.00979785
0.00567431
0.00113741
0.00101286
0.00845889
0.0133024
0.0133071
0.0133097
0.0106795
0.00315612
0.000366517
3.38385e-05
3.20057e-07
3.21188e-07
2.37151e-07
5.93524e-08
4.35919e-08
7.43052e-08
2.51589e-07
0.000266002
0.00471114
0.00688824
0.00388765
0.00288367
0.00184969
0.000966001
0.000560847
0.000698892
0.000464347
0.000137358
2.5166e-05
2.48529e-08
2.49435e-08
3.21578e-08
1.88344e-07
6.74652e-06
9.81153e-06
9.77222e-06
7.70374e-06
4.07574e-06
3.06637e-06
2.42421e-07
3.59708e-06
0.000225546
0.00017985
1.56188e-07
3.74564e-11
1.45259e-10
3.14198e-06
1.15176e-06
6.34094e-11
1.35708e-11
1.26186e-11
4.86804e-07
5.74111e-07
5.74288e-07
5.16629e-07
1.4325e-07
4.05733e-07
3.52545e-07
2.2584e-06
6.80487e-06
1.78487e-05
1.76489e-05
1.72954e-07
1.65743e-07
6.06113e-08
-2.59769e-08
1.49752e-11
2.65231e-10
2.79321e-08
6.1458e-08
6.35271e-08
5.67095e-08
2.37667e-08
9.49073e-09
4.08791e-08
6.51289e-08
8.5047e-08
5.57421e-08
2.17156e-07
1.98992e-07
5.754e-08
1.15329e-10
1.67683e-12
3.04294e-15
1.31965e-12
1.64982e-07
1.64975e-07
1.65494e-07
6.8024e-07
1.40095e-11
3.7582e-11
4.56203e-08
1.4208e-07
2.95532e-07
3.43082e-07
3.61766e-07
1.90473e-07
5.43561e-08
2.29967e-09
2.25041e-09
2.24708e-09
8.24691e-09
1.96709e-09
1.98256e-09
2.12594e-09
1.88457e-09
1.19175e-09
1.04395e-09
1.64984e-07
0.000115312
1.23439e-05
1.7091e-07
1.3134e-07
3.18935e-11
1.19247e-08
9.71543e-09
2.66542e-08
3.63667e-07
3.78625e-07
3.78377e-07
1.99163e-07
3.7928e-08
4.67474e-09
1.71196e-08
2.92539e-08
2.27441e-08
1.0383e-08
4.46949e-09
2.76213e-09
1.96534e-09
1.6201e-09
0.000123651
0.000916738
4.73208e-05
1.12942e-08
4.54731e-07
2.86701e-11
2.39523e-09
1.53327e-09
1.53187e-09
1.08878e-07
3.46456e-07
2.97227e-07
1.46489e-07
6.24124e-08
7.17703e-09
2.92126e-08
3.2146e-08
2.96611e-08
1.45095e-08
4.75282e-09
1.93639e-09
1.27928e-09
1.2129e-09
0.000919641
0.000954014
0.000134229
1.25893e-08
4.87e-07
2.10575e-09
2.2168e-09
1.56032e-09
4.13263e-09
4.08153e-09
2.88729e-08
1.29809e-08
5.53066e-10
3.68334e-09
8.51743e-09
1.326e-08
2.39667e-08
1.2483e-08
5.07112e-09
1.86138e-09
7.41552e-10
6.26515e-10
5.5456e-10
0.000953851
0.000953886
0.000101483
1.04514e-08
4.91325e-07
5.28215e-09
2.21639e-09
1.05429e-08
2.35374e-08
7.95482e-09
5.48882e-10
5.51366e-10
5.5079e-10
7.71759e-10
2.13126e-09
3.2586e-09
2.70276e-09
2.69683e-09
1.46084e-09
7.35551e-10
3.57857e-10
3.13075e-10
3.52915e-10
0.000953886
0.000371212
1.99756e-05
1.19173e-08
2.57957e-07
5.17313e-09
1.54795e-08
3.48226e-08
3.48411e-08
8.91138e-09
1.45591e-09
7.08117e-10
7.97545e-10
1.17141e-09
1.05052e-09
5.83118e-10
2.80228e-10
1.82239e-10
1.78064e-10
1.71557e-10
1.75598e-10
1.83087e-10
1.76126e-10
0.00061281
4.85087e-06
2.62729e-08
1.34255e-08
2.17998e-09
5.80784e-09
3.19267e-08
3.4809e-08
2.76908e-08
6.71066e-09
1.39224e-09
9.14963e-10
8.13679e-10
7.70778e-10
6.39419e-10
4.45511e-10
2.92162e-10
1.99989e-10
1.35208e-10
9.9818e-11
9.00337e-11
7.21129e-11
6.3602e-11
6.20683e-06
2.69535e-09
1.40512e-10
9.63987e-09
2.18617e-09
1.98908e-08
3.32725e-08
3.3179e-08
1.1788e-08
1.4384e-09
8.40444e-10
5.73964e-10
4.6404e-10
3.78021e-10
2.80845e-10
1.84068e-10
1.19181e-10
8.12031e-11
5.78408e-11
4.32101e-11
3.24844e-11
2.69826e-11
2.11892e-11
1.08641e-07
6.69199e-08
1.90952e-10
2.38386e-09
2.49846e-09
2.43177e-08
2.82941e-08
1.29171e-08
3.11149e-09
1.22497e-09
5.41191e-10
3.10499e-10
2.30231e-10
1.64163e-10
1.04039e-10
6.4746e-11
4.12273e-11
2.78247e-11
1.99258e-11
1.53586e-11
1.16638e-11
7.4098e-12
5.80324e-12
2.5104e-07
8.24613e-08
2.73987e-10
2.43381e-09
5.94897e-09
1.50683e-08
1.08094e-08
4.11773e-09
1.34364e-09
5.67741e-10
2.45719e-10
1.44779e-10
9.63599e-11
6.13715e-11
3.53568e-11
1.95873e-11
1.241e-11
8.42518e-12
6.12748e-12
4.58664e-12
2.78282e-12
1.74932e-12
1.38702e-12
1.05631e-07
5.39191e-08
2.67814e-10
2.39483e-09
5.94283e-09
5.90113e-09
3.27443e-09
1.31632e-09
5.34869e-10
2.22746e-10
1.02448e-10
5.82979e-11
3.42563e-11
1.90467e-11
1.00588e-11
5.39383e-12
3.0414e-12
2.02338e-12
1.37394e-12
1.00064e-12
5.83701e-13
3.40089e-13
2.4575e-13
4.80928e-09
8.82265e-09
6.83864e-09
1.96789e-09
3.2112e-09
2.52351e-09
1.33938e-09
6.07697e-10
2.41872e-10
9.66931e-11
4.03003e-11
1.96875e-11
1.01794e-11
4.89048e-12
2.32025e-12
1.16744e-12
6.39628e-13
3.85711e-13
2.53295e-13
1.53767e-13
9.77729e-14
5.63582e-14
4.10763e-14
0.000164598
9.03876e-06
2.44809e-08
1.22192e-09
1.61575e-09
1.28011e-09
6.92204e-10
2.88033e-10
1.0474e-10
2.97236e-11
8.23971e-12
3.38084e-12
1.81715e-12
9.11207e-13
4.34879e-13
2.0689e-13
1.0965e-13
6.11796e-14
3.67673e-14
2.31108e-14
1.30842e-14
6.99455e-15
5.2913e-15
0.000754726
0.000268312
8.38347e-10
1.14994e-09
1.54046e-09
9.0335e-10
3.73529e-10
1.41739e-10
3.93346e-11
9.07478e-12
2.41559e-12
9.76539e-13
4.52563e-13
2.1443e-13
1.01094e-13
4.74866e-14
2.16006e-14
1.06312e-14
5.23721e-15
2.76564e-15
1.46917e-15
6.82146e-16
6.53223e-16
0.000754642
0.000351598
8.57915e-10
1.14019e-09
1.20046e-09
5.59463e-10
1.96157e-10
6.30437e-11
1.56329e-11
4.77134e-12
1.98875e-12
9.08043e-13
4.07342e-13
1.83619e-13
8.11712e-14
3.45356e-14
1.35569e-14
4.92881e-15
1.80651e-15
6.78981e-16
2.42519e-16
8.80589e-17
5.60371e-17
0.000748335
0.000161893
2.59725e-09
9.10259e-10
7.79522e-10
3.29209e-10
1.13229e-10
3.65453e-11
9.92058e-12
4.68819e-12
2.43499e-12
1.30038e-12
6.77226e-13
3.27435e-13
1.55208e-13
6.66761e-14
2.63345e-14
8.95239e-15
2.64236e-15
7.90788e-16
2.12073e-16
3.66634e-17
1.094e-17
8.8427e-05
3.94621e-06
9.01774e-10
8.85347e-10
4.95603e-10
1.5953e-10
6.36463e-11
3.67689e-11
1.49971e-11
7.80152e-12
5.00401e-12
2.95643e-12
1.64364e-12
8.85902e-13
4.20686e-13
1.81403e-13
6.95124e-14
2.27201e-14
6.73032e-15
1.77692e-15
4.21472e-16
8.24013e-17
9.72459e-18
1.42254e-09
9.3873e-10
9.38875e-10
5.5583e-10
2.4839e-10
9.54657e-11
6.78306e-11
5.10538e-11
3.55581e-11
2.29386e-11
1.42585e-11
7.62899e-12
4.29721e-12
2.35675e-12
1.12677e-12
4.8364e-13
1.77565e-13
5.82429e-14
1.61162e-14
3.96117e-15
9.56365e-16
1.37107e-16
1.83334e-17
1.97643e-09
1.17806e-09
7.24768e-10
3.33505e-10
1.29401e-10
1.02802e-10
1.00599e-10
9.20435e-11
8.4557e-11
7.26426e-11
4.44542e-11
1.79891e-11
1.00047e-11
5.49755e-12
2.6553e-12
1.0978e-12
3.89375e-13
1.21937e-13
3.22865e-14
7.48683e-15
1.57867e-15
2.65176e-16
2.46411e-17
3.43816e-09
1.34304e-09
5.44776e-10
1.7099e-10
1.3115e-10
1.35544e-10
1.57832e-10
1.65266e-10
1.8317e-10
1.62221e-10
8.2673e-11
3.3028e-11
1.94758e-11
1.06582e-11
5.11862e-12
2.10358e-12
6.89432e-13
2.08389e-13
5.48247e-14
1.2252e-14
2.76874e-15
3.58521e-16
4.05171e-17
3.63713e-09
1.61109e-09
4.78871e-10
1.40464e-10
1.53879e-10
2.02552e-10
2.30602e-10
2.91196e-10
3.56182e-10
2.95579e-10
1.6864e-10
6.89048e-11
3.50742e-11
1.74396e-11
8.09124e-12
3.19688e-12
1.14602e-12
3.41025e-13
8.38405e-14
1.68502e-14
3.41677e-15
5.16541e-16
3.557e-17
5.50378e-09
2.33746e-09
4.30454e-10
1.37525e-10
1.81462e-10
2.7081e-10
4.15e-10
5.6678e-10
5.96701e-10
5.06024e-10
3.26527e-10
1.23127e-10
5.45742e-11
2.64801e-11
1.18639e-11
4.53661e-12
1.48534e-12
4.01926e-13
9.50155e-14
1.81627e-14
3.40447e-15
4.28369e-16
4.7132e-17
1.03486e-08
3.2835e-09
3.18569e-10
1.37457e-10
3.52034e-10
4.76013e-10
6.9899e-10
9.45217e-10
9.14311e-10
7.3081e-10
4.15269e-10
1.45779e-10
6.67291e-11
3.07807e-11
1.28268e-11
4.79346e-12
1.44402e-12
3.54438e-13
7.54275e-14
1.3951e-14
2.17624e-15
2.49769e-16
1.19088e-17
1.38919e-08
6.44264e-09
8.25126e-10
4.55831e-10
1.90869e-09
1.23347e-09
1.22479e-09
1.40831e-09
1.20908e-09
8.96736e-10
3.87489e-10
1.39928e-10
6.58972e-11
2.92577e-11
1.12198e-11
3.48857e-12
9.03359e-13
1.91412e-13
3.56508e-14
5.30055e-15
7.80477e-16
5.26671e-17
5.13765e-18
1.38919e-08
1.24921e-08
6.20784e-09
6.25908e-09
4.04775e-09
2.60328e-09
2.73367e-09
2.18913e-09
1.62082e-09
8.37829e-10
2.82875e-10
1.3109e-10
5.61743e-11
2.14278e-11
6.97422e-12
1.70982e-12
3.37446e-13
5.94705e-14
8.86605e-15
1.05487e-15
9.9774e-17
9.15833e-18
2.96218e-19
1.14322e-08
1.16617e-08
1.13905e-08
1.1383e-08
8.20396e-09
6.63714e-09
4.26435e-09
2.57919e-09
1.54768e-09
6.5227e-10
2.31972e-10
9.30347e-11
3.42075e-11
1.04725e-11
2.53236e-12
4.77718e-13
6.88887e-14
8.82227e-15
1.00271e-15
1.04653e-16
8.3116e-18
5.14847e-19
3.1529e-20
7.65881e-09
1.00247e-08
1.13373e-08
1.13673e-08
1.02815e-08
7.38228e-09
3.76425e-09
2.49833e-09
1.25493e-09
4.4058e-10
1.51372e-10
5.84995e-11
1.86893e-11
4.1752e-12
6.68966e-13
8.01885e-14
7.88111e-15
6.85147e-16
5.09707e-17
4.13948e-18
2.61313e-19
1.41985e-20
7.02658e-22
1.82301e-09
4.64701e-09
7.20851e-09
8.10389e-09
7.56794e-09
5.36986e-09
3.10486e-09
1.53324e-09
5.72974e-10
2.05292e-10
7.10295e-11
2.32363e-11
5.17109e-12
7.80019e-13
7.96659e-14
6.05891e-15
3.72645e-16
2.02514e-17
1.06898e-18
5.31288e-20
2.4593e-21
9.95417e-23
3.22635e-24
0.00354951
7.71468e-05
2.40028e-05
2.39235e-05
2.02547e-05
2.02427e-05
8.15475e-05
0.000374867
2.02423e-05
2.02514e-05
2.0234e-05
0.00133265
2.02575e-05
2.57016e-05
0.000611039
0.00377882
0.000965111
0.00144344
0.00223721
0.0026385
0.000600449
0.00366519
0.0094956
0.0157868
0.0145265
0.0199036
0.0199037
0.0199036
0.0197882
0.0197718
0.0197325
0.0199037
0.00612573
0.00424884
0.00444453
0.00417617
1.37901e-09
1.0841e-19
2.90476e-08
2.91644e-05
7.37138e-21
1.52904e-24
1.48423e-07
6.98236e-07
1.35737e-07
1.0841e-19
1.50039e-09
2.88063e-10
1.0228e-05
8.80325e-21
2.89361e-12
5.95695e-09
3.04294e-15
1.25204e-12
3.1931e-08
7.78643e-07
1.10011e-09
1.35939e-09
1.54372e-09
6.23013e-10
1.61986e-09
1.72272e-09
1.95803e-09
2.24522e-09
1.15986e-09
1.03476e-09
1.13653e-09
1.1677e-09
5.82438e-10
6.57368e-10
6.12413e-10
6.14734e-10
3.55185e-10
3.16952e-10
3.22462e-10
3.19882e-10
1.69162e-10
1.59093e-10
1.40182e-10
1.26858e-10
5.59075e-11
4.85892e-11
4.41212e-11
4.06229e-11
1.84424e-11
1.53037e-11
1.36124e-11
1.16431e-11
4.84599e-12
4.13553e-12
3.58078e-12
3.29969e-12
1.1219e-12
8.82101e-13
8.43192e-13
8.27584e-13
1.9301e-13
1.7494e-13
1.55821e-13
1.78536e-13
3.56582e-14
2.92036e-14
3.28509e-14
3.46413e-14
4.6988e-15
4.24579e-15
3.95488e-15
5.64287e-15
5.94058e-16
5.06876e-16
6.24721e-16
7.17786e-16
5.90921e-17
5.73601e-17
5.87047e-17
9.89631e-17
8.13407e-18
6.69811e-18
8.34703e-18
1.1423e-17
3.63657e-18
1.48595e-18
1.10321e-18
2.01024e-18
5.12271e-18
1.47991e-18
3.30446e-19
5.96426e-19
6.63603e-18
1.79719e-18
1.76728e-19
2.33915e-19
6.8115e-18
1.83527e-18
1.46516e-19
9.27855e-20
6.92344e-18
1.58601e-18
1.89807e-19
2.9283e-20
7.01051e-18
1.20267e-18
1.28908e-19
7.84482e-21
1.92783e-18
3.01679e-19
2.37927e-20
1.54115e-21
6.00548e-19
8.15844e-20
1.30139e-21
2.13264e-22
3.98569e-20
5.31575e-21
9.32189e-23
2.33037e-23
3.16819e-21
2.37827e-22
1.58955e-24
2.52988e-24
5.49458e-23
2.19582e-24
8.30319e-26
2.88073e-25
1.69983e-25
2.67362e-27
7.52021e-27
2.59825e-26
5.70062e-05
0.000160662
0.000152631
0.000108375
0.000146496
4.20383e-06
0.000152974
0.00273166
0.0161169
0.0145463
0.00925303
0.00881033
0.0163569
0.0269577
0.0262962
0.012693
0.00302386
0.00522035
0.0095584
0.000569941
0.00216717
0.0035933
0.00284949
0.000522967
8.74602e-07
0.00010672
0.000522652
5.84615e-05
0.0147094
0.0336754
0.03457
0.0346482
0.03466
0.0104034
0.00279666
0.00437015
0.01472
0.00999369
0.00579539
0.00776408
0.00776408
0.00748517
0.000124215
6.45484e-07
6.48934e-07
1.01008e-05
6.9716e-05
0.00338578
0.00767654
0.0125644
0.0198771
0.0147604
0.00279569
0.0027968
0.0126438
0.0201241
0.0201323
0.00667072
0.00776346
0.00776352
0.00497336
6.80326e-07
7.83171e-07
8.31279e-06
2.06262e-05
6.02835e-05
0.000493857
3.01912e-05
2.928e-05
0.00117191
0.00553287
0.00422579
0.0027958
0.0137868
0.0195983
0.0201323
0.0028956
0.00287007
0.00684319
6.83319e-05
6.82348e-07
1.92414e-06
0.00204485
0.00722584
0.00940858
0.00775718
0.00712389
0.00534186
0.00260616
0.00260772
0.00720103
0.00491611
0.00956734
0.014879
0.0201323
0.0187691
0.0137319
0.000491434
8.02692e-07
7.06511e-07
0.000308039
0.00538903
0.0130675
0.0130669
0.0130453
0.011137
0.00581073
0.00348319
0.00466279
0.00722591
0.00619037
0.0043774
0.00562605
0.012058
0.0199037
0.0194275
0.00235367
1.05403e-06
0.0010261
0.00624259
0.00704806
0.00647142
0.00509558
0.00236207
0.000448171
0.000167411
0.000216549
5.67969e-05
0.000360431
0.000383173
0.000193765
0.000282284
0.000329297
0.0188095
0.0125838
0.00047063
0.000147067
0.00299197
0.00309947
0.00134993
7.84097e-06
-2.47834e-10
6.57365e-12
5.32246e-12
5.24204e-11
6.72638e-11
6.49569e-09
-6.28794e-28
6.92031e-22
-1.19717e-09
4.86092e-12
9.61071e-07
0.00262734
0.00166085
0.00160863
0.000388078
2.1222e-07
2.11992e-07
7.92443e-07
1.23077e-06
3.03185e-06
2.36747e-06
1.97723e-06
2.80751e-06
9.21049e-07
8.70804e-08
-1.34978e-25
1.34723e-07
9.15076e-07
1.02827e-06
9.56199e-07
3.20542e-05
8.18215e-09
4.11206e-05
1.21065e-07
2.24383e-07
5.29826e-07
1.3685e-06
3.25507e-06
5.76354e-06
7.54257e-06
8.83057e-06
6.08581e-06
1.92492e-06
1.14886e-07
3.0928e-25
8.76913e-08
3.64174e-07
6.3556e-07
7.95187e-07
6.13344e-09
8.21193e-09
8.24282e-09
6.39984e-07
1.42442e-06
2.72429e-06
2.17442e-06
1.81354e-06
5.78777e-06
2.18083e-05
2.1754e-05
3.77521e-06
1.54762e-06
9.23229e-07
3.53723e-07
3.64603e-08
2.15913e-08
1.08301e-07
4.61631e-08
-7.59204e-12
-2.43779e-11
2.74606e-07
3.0479e-06
4.89034e-06
5.01317e-06
4.99372e-06
5.89769e-07
9.86904e-07
1.7724e-05
2.18083e-05
8.66297e-06
4.29604e-06
1.8845e-05
5.31401e-06
1.64987e-07
1.26623e-08
4.5575e-09
2.22067e-09
6.40807e-07
1.94562e-06
3.00918e-06
3.22832e-06
2.80815e-06
3.69935e-06
2.64902e-06
5.74338e-07
4.28684e-08
3.75055e-06
1.93374e-05
2.27345e-05
2.22306e-05
2.36549e-05
2.11649e-05
2.29893e-06
4.92959e-08
1.68194e-09
2.21538e-09
3.34933e-06
5.70156e-06
5.67388e-06
2.03364e-06
4.72577e-13
5.34623e-16
6.77127e-18
1.5073e-16
1.88699e-13
3.7954e-13
5.94132e-07
1.91866e-05
2.30507e-05
2.29323e-05
2.21433e-05
3.60314e-06
2.82399e-10
1.68252e-09
2.45424e-09
6.35294e-10
6.22328e-10
7.50988e-10
3.16633e-10
3.40412e-10
4.45707e-10
7.26563e-10
6.08956e-10
8.60954e-10
7.72743e-10
1.1525e-10
2.37526e-12
7.09707e-06
1.11692e-06
9.20486e-07
1.26701e-06
2.8599e-10
1.13157e-09
2.54244e-09
2.15391e-09
1.73632e-09
1.36271e-09
1.76649e-09
2.22785e-09
2.08566e-09
1.43379e-09
1.0002e-09
1.40357e-09
1.12047e-09
1.26919e-10
4.48189e-12
9.83679e-20
-1.35548e-12
5.84722e-28
-5.91362e-14
2.84595e-10
8.50436e-10
2.91808e-09
1.36201e-09
1.10976e-09
9.4421e-10
1.11016e-09
1.71964e-09
1.68314e-09
1.22227e-09
7.13367e-10
1.17147e-09
8.40259e-10
2.17369e-10
2.98783e-11
4.1571e-10
1.267e-09
3.86628e-10
2.85268e-10
3.20409e-10
1.12347e-09
3.31924e-09
6.23348e-10
5.37628e-10
3.77226e-10
3.03217e-10
4.22006e-10
4.8177e-10
4.05964e-10
2.88399e-10
2.93985e-10
1.45769e-10
4.42493e-11
4.21582e-11
8.30384e-10
2.10377e-09
8.49268e-10
2.92062e-10
3.99e-10
1.20314e-09
3.3955e-09
2.9668e-10
2.15861e-10
1.52039e-10
1.2802e-10
1.26665e-10
1.33695e-10
1.2869e-10
1.0531e-10
4.84853e-11
4.77579e-11
3.96551e-11
4.69614e-11
6.25921e-10
1.73527e-09
5.60464e-10
1.71627e-10
3.16438e-10
1.32661e-09
3.39551e-09
1.09083e-10
8.15685e-11
6.93651e-11
6.54823e-11
6.33242e-11
6.328e-11
6.18355e-11
5.62827e-11
5.06571e-11
4.78863e-11
3.85067e-11
3.33262e-11
5.10143e-11
1.23224e-10
1.11888e-10
1.11358e-10
2.31654e-10
1.41529e-09
3.40018e-09
3.29433e-11
2.9026e-11
3.10823e-11
3.48389e-11
3.64144e-11
3.67767e-11
3.5642e-11
3.38469e-11
3.47381e-11
3.31699e-11
3.03166e-11
2.59308e-11
2.29206e-11
2.26311e-11
3.64208e-11
5.80062e-11
1.76555e-10
1.6944e-09
3.37526e-09
1.06117e-11
1.13881e-11
1.34651e-11
1.56735e-11
1.70773e-11
1.70846e-11
1.65606e-11
1.68341e-11
1.68187e-11
1.77833e-11
1.84521e-11
1.55491e-11
1.41203e-11
1.58763e-11
1.94837e-11
3.94832e-11
1.80194e-10
1.73055e-09
2.71438e-09
3.62047e-12
4.37661e-12
5.26879e-12
6.16494e-12
6.83565e-12
7.15103e-12
7.05873e-12
6.99523e-12
6.99145e-12
6.83009e-12
6.70026e-12
7.0979e-12
6.91831e-12
8.3834e-12
1.34597e-11
3.17807e-11
1.30331e-10
1.81338e-09
2.11204e-09
1.04993e-12
1.45308e-12
1.95082e-12
2.30982e-12
2.49357e-12
2.43652e-12
2.56392e-12
2.66427e-12
2.99255e-12
2.97525e-12
2.34439e-12
2.87918e-12
4.0468e-12
6.32902e-12
1.21469e-11
3.25714e-11
1.28582e-10
1.82084e-09
1.96637e-09
2.87076e-13
4.63481e-13
6.22277e-13
7.50392e-13
8.09052e-13
8.69313e-13
9.14178e-13
9.93309e-13
1.03766e-12
1.23915e-12
1.13553e-12
1.93837e-12
3.22521e-12
6.29422e-12
1.49683e-11
4.62114e-11
2.29876e-10
1.84555e-09
1.84778e-09
6.08304e-14
1.16129e-13
1.80654e-13
2.39728e-13
2.73174e-13
2.86501e-13
3.13067e-13
3.3936e-13
4.17781e-13
6.20919e-13
9.94155e-13
1.89229e-12
3.60803e-12
8.8929e-12
2.137e-11
6.38606e-11
3.98159e-10
1.84887e-09
1.802e-09
1.27351e-14
2.75774e-14
4.44041e-14
5.86228e-14
7.61609e-14
9.2256e-14
1.07025e-13
1.46808e-13
2.43601e-13
4.87614e-13
1.05587e-12
2.48049e-12
5.94693e-12
1.38893e-11
3.5603e-11
1.01037e-10
4.94947e-10
1.89396e-09
1.51654e-09
1.7731e-15
4.60684e-15
8.50863e-15
1.43706e-14
2.06876e-14
3.01006e-14
4.7958e-14
9.17052e-14
2.06766e-13
5.05322e-13
1.27621e-12
3.13909e-12
7.69589e-12
2.05734e-11
6.45977e-11
1.91119e-10
6.80621e-10
1.90111e-09
1.18297e-09
3.56941e-16
8.61808e-16
1.82609e-15
3.41161e-15
6.53776e-15
1.35756e-14
3.09764e-14
7.82594e-14
2.04675e-13
5.29277e-13
1.32913e-12
3.33424e-12
8.27195e-12
2.39322e-11
9.21391e-11
2.75249e-10
8.118e-10
1.86777e-09
8.53735e-10
5.63649e-17
1.83954e-16
4.68362e-16
1.25189e-15
3.37183e-15
9.20629e-15
2.54921e-14
7.13985e-14
1.92898e-13
4.98971e-13
1.26882e-12
3.25108e-12
8.26934e-12
2.42861e-11
1.00195e-10
3.17656e-10
8.63124e-10
1.38341e-09
7.1699e-10
1.69106e-17
6.86128e-17
2.2528e-16
7.3402e-16
2.33823e-15
7.16378e-15
2.07376e-14
5.89243e-14
1.58513e-13
4.13732e-13
1.07407e-12
2.83535e-12
7.64901e-12
2.11567e-11
9.3804e-11
3.36834e-10
8.01787e-10
1.041e-09
5.37582e-10
7.6215e-18
3.55202e-17
1.27885e-16
4.66137e-16
1.58498e-15
4.85991e-15
1.43448e-14
4.12238e-14
1.14249e-13
3.03081e-13
8.10478e-13
2.22589e-12
6.31726e-12
1.74393e-11
5.76529e-11
2.77433e-10
6.61509e-10
7.92151e-10
3.98532e-10
3.36584e-18
1.57696e-17
6.36048e-17
2.39913e-16
8.45883e-16
2.79107e-15
8.29267e-15
2.40009e-14
6.5536e-14
1.80043e-13
5.04559e-13
1.47494e-12
4.55436e-12
1.29689e-11
2.91037e-11
1.3822e-10
4.78661e-10
5.93445e-10
1.98298e-10
1.16986e-18
5.88018e-18
2.62374e-17
1.01984e-16
3.8176e-16
1.26488e-15
3.79499e-15
1.11851e-14
3.18588e-14
9.23423e-14
2.76037e-13
8.72819e-13
2.8444e-12
8.56925e-12
1.90994e-11
5.68077e-11
2.42232e-10
3.63041e-10
1.16415e-10
2.94096e-19
1.69141e-18
8.04382e-18
3.50647e-17
1.37818e-16
4.66986e-16
1.42341e-15
4.2887e-15
1.29061e-14
4.03701e-14
1.33641e-13
4.65123e-13
1.61279e-12
5.03388e-12
1.18863e-11
2.44276e-11
7.08177e-11
1.86926e-10
5.95544e-11
6.30929e-20
3.83566e-19
1.95159e-18
8.96748e-18
3.64789e-17
1.26264e-16
4.02153e-16
1.31855e-15
4.28354e-15
1.47541e-14
5.47419e-14
2.1448e-13
8.03537e-13
2.60153e-12
6.8273e-12
1.37641e-11
2.93292e-11
6.14972e-11
3.43857e-11
1.11621e-20
6.68346e-20
3.60031e-19
1.69924e-18
6.81855e-18
2.40206e-17
8.5183e-17
3.02421e-16
1.08343e-15
4.2633e-15
1.82997e-14
8.31409e-14
3.43748e-13
1.15952e-12
3.09797e-12
7.08001e-12
1.3456e-11
2.59446e-11
1.83532e-11
1.31493e-21
8.78894e-21
4.62449e-20
2.15509e-19
8.95941e-19
3.34712e-18
1.2857e-17
5.03191e-17
2.11214e-16
9.58387e-16
4.81797e-15
2.62837e-14
1.22051e-13
4.28291e-13
1.20971e-12
2.69655e-12
5.40324e-12
7.17499e-12
8.57281e-12
1.54655e-22
8.24095e-22
3.56133e-21
1.43242e-20
5.8384e-20
2.32264e-19
1.0767e-18
5.60816e-18
2.97324e-17
1.71986e-16
1.01401e-15
6.52887e-15
3.44875e-14
1.33595e-13
3.79352e-13
9.18049e-13
1.708e-12
3.0661e-12
3.89997e-12
1.3285e-23
5.81033e-23
2.26237e-22
9.62163e-22
4.65319e-21
2.43276e-20
1.37721e-19
8.19566e-19
5.34802e-18
3.50761e-17
2.32123e-16
1.62602e-15
9.2583e-15
3.70293e-14
1.11434e-13
2.54712e-13
4.45877e-13
9.98193e-13
1.33793e-12
9.7328e-25
3.16698e-24
1.01218e-23
4.40764e-23
2.63362e-22
1.79059e-21
1.30719e-20
9.56226e-20
7.59067e-19
5.84716e-18
4.37789e-17
2.8643e-16
1.69777e-15
7.20255e-15
2.33623e-14
5.78773e-14
9.15916e-14
2.30404e-13
2.07544e-13
5.6484e-26
1.29439e-25
3.34243e-25
1.59675e-24
1.1882e-23
9.71548e-23
8.41639e-22
8.12799e-21
7.44215e-20
5.98776e-19
4.52296e-18
2.83416e-17
1.67448e-16
7.55989e-16
2.56749e-15
6.63037e-15
1.28018e-14
2.13522e-14
1.43885e-15
)
;

boundaryField
{
    leftWall
    {
        type            zeroGradient;
    }
    rightWall
    {
        type            zeroGradient;
    }
    lowerWall
    {
        type            zeroGradient;
    }
    atmosphere
    {
        type            inletOutlet;
        inletValue      uniform 0;
        value           nonuniform List<scalar> 
46
(
1.82301e-09
4.64701e-09
7.20851e-09
8.10389e-09
7.56794e-09
5.36986e-09
3.10486e-09
1.53324e-09
5.72974e-10
2.05292e-10
7.10295e-11
2.32363e-11
0
0
0
0
0
0
0
0
0
0
0
0
0
0
0
0
0
0
0
0
0
0
0
0
0
0
0
0
0
0
0
0
0
0
)
;
    }
    defaultFaces
    {
        type            empty;
    }
}


// ************************************************************************* //
