/*--------------------------------*- C++ -*----------------------------------*\
| =========                 |                                                 |
| \\      /  F ield         | OpenFOAM: The Open Source CFD Toolbox           |
|  \\    /   O peration     | Version:  2312                                  |
|   \\  /    A nd           | Website:  www.openfoam.com                      |
|    \\/     M anipulation  |                                                 |
\*---------------------------------------------------------------------------*/
FoamFile
{
    version     2.0;
    format      ascii;
    arch        "LSB;label=32;scalar=64";
    class       volScalarField;
    location    "2.2";
    object      p;
}
// * * * * * * * * * * * * * * * * * * * * * * * * * * * * * * * * * * * * * //

dimensions      [1 -1 -2 0 0 0 0];

internalField   nonuniform List<scalar> 
2268
(
6395.96
6350.19
6272.41
6171.71
6055.53
5931.14
5804.6
5679.81
5557.88
5438.93
5323.47
5212.74
5107.47
5009.19
4921.91
4851.99
4805.27
4784.98
4789.83
4812.75
4843.18
4867.85
4881.53
5595.94
5553.26
5479.06
5378.42
5261.21
5135.49
5008.05
4882.88
4760.74
4641.52
4525.69
4414.75
4309.11
4209.96
4121.35
4050.2
4002.81
3983.01
3989.47
4014.97
4048.93
4073.9
4087.64
4800.86
4761.82
4689.96
4588.42
4469
4340.65
4211.25
4085.32
3962.85
3843.14
3726.59
3615.15
3508.72
3407.76
3316.27
3242.53
3193.78
3175.03
3184.82
3215.29
3253.24
3282.03
3296.55
4010.01
3975.3
3904.91
3801.87
3678.94
3546.26
3413.9
3286.97
3163.98
3043.41
2925.66
2813.79
2706.48
2603.14
2507.22
2429.39
2378.44
2360.91
2376.19
2414.83
2461.42
2493.84
2507.61
3221.93
3192.75
3123.44
3018.05
2890.82
2752.05
2615.49
2487.61
2364.32
2243.21
2123.56
2011.16
1902.72
1795.33
1697.14
1622.76
1574.6
1559.28
1577.85
1620.44
1671.43
1709.88
1724.8
2437.61
2415.86
2347.92
2238
2102.85
1957.59
1816.46
1687.66
1571.89
1468.87
1375.51
1301.67
1239.05
1181.72
1132.82
1096.42
1068.48
1053.37
1054.73
1069.81
1092.33
1107.7
1103.73
1667.58
1656.98
1588.36
1481.02
1362.64
1246.19
1154.89
1085.65
1032.69
994.383
967.008
955.162
950.859
947.982
943.614
934.872
920.198
904.629
891.831
881.533
870.703
854.902
830.799
1071.5
1061.57
1009.78
951.723
899.873
878.155
874.104
864.261
859.797
862.33
870.002
877.581
883.193
884.766
881.301
873.162
859.174
847.429
836.46
825.304
809.37
785.712
728.431
2599.98
2601.96
2631.69
2661.51
2682.35
2676.84
2657.79
2651.36
2651.24
2602.5
2553.84
2530.44
2564.19
2662.23
2646.28
2515.06
2334.67
2122.09
2015.35
1882.03
1872.97
1895.66
1936.33
1971.67
1957.34
1942.11
1932.99
1938.16
1910.44
1878.48
1839.3
1858.43
1937.17
1926.75
1801.92
1630.6
1440.25
1372.23
1302.66
1298.22
1304.64
1335.91
1389.8
1392.86
1388
1381.94
1382.57
1381.19
1370.71
1332.88
1339.15
1378.75
1358.8
1249.45
1114.16
1047.83
1021.41
1026.36
1024.52
1020.4
1016.77
1050.88
1075.83
1065.01
1050.38
1065.25
1076.02
1071.46
1059.15
1047.54
1034.98
997.006
916.015
886.641
906.497
891.144
908.984
903.599
902.386
886.325
875.271
883.268
868.037
858.408
900.295
930.382
925.616
915.735
890.507
840.708
788.126
763.201
802.039
809.834
815.149
824.833
813.676
813.848
804.578
777.32
755.722
736.768
731.221
780.301
813.509
803.128
780.91
770.64
732.258
696.766
698.74
725.311
725.665
743.084
780.084
763.857
755.33
743.23
719.434
688.455
658.642
639.023
683.712
704.385
695.534
689.873
679.642
658.132
638.336
634.269
648.896
658.31
678.559
735.926
715.101
703.532
687.14
662.411
631.34
592.494
579.089
609.15
615.306
620.307
631.24
625.489
603.232
572.997
565.97
584.492
595.696
616.966
754.546
742.976
736.068
743.415
746.909
754.228
766.407
769.355
769.369
771.188
775.61
780.864
784.983
786.229
782.778
773.729
762.708
754.175
744.722
727.974
709.049
684.006
652.212
606.355
602.904
608.896
612.877
622.118
631.694
638.377
641.209
643.954
646.647
649.552
652.396
656.016
657.36
654.66
647.401
641.71
632.21
617.392
597.574
576.36
554.568
535.623
518.689
513.486
515.664
517.704
521.594
527.462
531.328
532.69
532.825
532.885
532.552
531.25
530.498
530.765
529.011
524.597
520.349
509.582
489.084
464.757
444.786
428.104
413.307
450.1
434.038
427.871
433.442
441.675
448.729
453.094
454.652
452.752
448.808
442.424
433.336
422.347
413.416
407.654
404.47
400.73
388.821
368.539
352.582
340.156
327.821
316.108
378.206
354.183
348.128
353.155
364.747
375.988
384.364
388.753
388.675
384.657
376.348
364.091
348.522
331.282
316.605
306.502
298.209
288.034
278.357
272.936
264.576
254.369
244.746
308.551
268.344
249.596
258.102
279.533
301.115
316.589
325.409
327.674
324.573
316.981
306.466
292.548
274.897
256.967
240.554
228.071
219.777
213.893
206.627
196.941
186.774
177.177
271.728
203.732
186.672
186.556
201.08
228.191
251.221
265.193
271.581
268.849
260.456
250.552
238.508
223.282
207.23
191.856
177.86
165.755
155.113
143.816
131.384
119.268
107.189
276.087
184.968
167.341
161.201
165.984
182.335
203.376
215.284
218.707
214.186
205.08
195.118
183.981
170.706
156.101
141.084
125.904
110.342
96.1159
80.8425
64.8568
52.1593
41.3003
298.239
197.758
162.64
151.143
152.176
155.441
159.096
163.075
163.285
157.962
148.715
138.379
127.636
115.206
101.231
87.0455
69.8352
51.601
37.4043
26.0678
14.5879
8.81937
6.50622
320.642
220.695
154.549
123.886
115.241
112.598
108.229
105.024
102.716
99.0355
89.9587
78.2847
67.7577
55.6715
40.8946
31.1713
21.6158
9.24956
3.29891
1.54048
-0.908091
-1.46934
-1.53247
276.377
191.057
112.82
65.7784
45.0185
43.1854
40.3354
36.2896
33.8471
33.553
28.2718
20.4433
16.397
11.6545
2.75734
-1.21363
-1.66901
-1.55846
-1.56738
-1.60685
-1.61934
-1.63966
-1.66043
171.234
105.341
39.2543
11.5797
2.97407
3.03969
2.56897
1.83885
0.937646
-0.335201
-1.48694
-1.81665
-1.8615
-1.89555
-1.91688
-1.90553
-1.88616
-1.84992
-1.81094
-1.80936
-1.79094
-1.76877
-1.75585
81.7123
31.6283
6.98272
-0.188611
-1.6581
-1.82695
-1.94087
-2.01622
-2.05841
-2.09398
-2.12457
-2.12964
-2.11863
-2.09071
-2.06452
-2.03181
-1.99763
-1.97399
-1.96262
-1.95378
-1.93412
-1.91305
-1.89722
35.8521
3.14946
-1.113
-1.79506
-1.9554
-2.07097
-2.17611
-2.2311
-2.25435
-2.25544
-2.24055
-2.22458
-2.21106
-2.19648
-2.17989
-2.15954
-2.13778
-2.12099
-2.11001
-2.09982
-2.08331
-2.06482
-2.04723
16.8367
-2.64199
-2.15266
-2.08657
-2.20481
-2.30085
-2.37515
-2.40409
-2.4012
-2.39087
-2.37387
-2.35509
-2.33849
-2.32341
-2.30832
-2.29221
-2.27547
-2.25981
-2.2462
-2.23312
-2.21758
-2.20114
-2.18691
8.32139
-2.28038
-2.18273
-2.34917
-2.4636
-2.51033
-2.55671
-2.56551
-2.55028
-2.53194
-2.51316
-2.49549
-2.47866
-2.46134
-2.44394
-2.42735
-2.41113
-2.39576
-2.38163
-2.36794
-2.35356
-2.33913
-2.32637
8.21459
-2.31435
-2.40186
-2.59173
-2.62057
-2.68926
-2.71658
-2.71664
-2.69135
-2.67095
-2.65068
-2.6317
-2.61433
-2.59698
-2.57909
-2.56175
-2.54568
-2.5305
-2.51614
-2.50232
-2.48871
-2.47554
-2.46371
9.12689
-2.87647
-2.89943
-2.79845
-2.78171
-2.85492
-2.85652
-2.85233
-2.83001
-2.80777
-2.78657
-2.76671
-2.74809
-2.73007
-2.71237
-2.69529
-2.67916
-2.66393
-2.6495
-2.63578
-2.62267
-2.61029
-2.59901
2.42122
-2.9381
-3.23801
-2.99623
-2.97758
-3.01073
-2.99472
-2.98529
-2.96464
-2.94216
-2.92059
-2.90028
-2.88107
-2.86268
-2.84495
-2.82795
-2.81182
-2.79658
-2.78219
-2.76863
-2.75585
-2.7439
-2.73293
-1.88413
-3.39404
-3.40175
-3.20278
-3.16889
-3.16748
-3.13589
-3.11926
-3.0979
-3.07515
-3.05321
-3.03252
-3.01295
-2.99434
-2.97659
-2.95967
-2.94364
-2.9285
-2.91426
-2.90089
-2.88837
-2.8767
-2.86595
-2.15322
-3.58115
-3.51582
-3.38098
-3.33445
-3.3253
-3.2804
-3.25538
-3.23113
-3.20722
-3.18462
-3.16348
-3.14363
-3.12491
-3.10719
-3.09042
-3.07457
-3.05966
-3.04565
-3.03252
-3.02026
-3.00883
-2.99827
-3.92737
-3.74273
-3.61997
-3.53742
-3.47494
-3.47445
-3.42504
-3.39181
-3.36378
-3.33819
-3.31474
-3.29314
-3.27308
-3.25434
-3.23674
-3.22019
-3.20462
-3.19001
-3.1763
-3.16347
-3.15149
-3.14032
-3.12997
-3.93991
-3.89693
-3.81578
-3.68702
-3.62294
-3.60511
-3.5609
-3.52497
-3.4944
-3.46739
-3.44324
-3.42132
-3.4012
-3.38257
-3.36521
-3.34897
-3.33376
-3.31951
-3.30617
-3.29369
-3.28203
-3.27115
-3.26105
-4.03083
-4.00342
-3.93732
-3.81676
-3.76821
-3.73317
-3.69095
-3.65404
-3.622
-3.59418
-3.5697
-3.54777
-3.52784
-3.50952
-3.49254
-3.47673
-3.46197
-3.44816
-3.43525
-3.42317
-3.41188
-3.40134
-3.39153
-4.11702
-4.0687
-4.03879
-3.9478
-3.90547
-3.8607
-3.81748
-3.77854
-3.74576
-3.7179
-3.69372
-3.67225
-3.65285
-3.63509
-3.61869
-3.60345
-3.58924
-3.57595
-3.56353
-3.5519
-3.54103
-3.53087
-3.52141
-4.19247
-4.12558
-4.15458
-4.09519
-4.0374
-3.98265
-3.93569
-3.89673
-3.86485
-3.83812
-3.81506
-3.79464
-3.77619
-3.75929
-3.74367
-3.72914
-3.71558
-3.7029
-3.69103
-3.67992
-3.66952
-3.65979
-3.65071
-4.60573
-4.1282
-4.22924
-4.22244
-4.1507
-4.09026
-4.04391
-4.00794
-3.97913
-3.95489
-3.93383
-3.91505
-3.89795
-3.88219
-3.86754
-3.85386
-3.84106
-3.82906
-3.81781
-3.80726
-3.79737
-3.7881
-3.77946
-4.94476
-4.52014
-4.35139
-4.28723
-4.22698
-4.17752
-4.14179
-4.11279
-4.08969
-4.06886
-4.0505
-4.03382
-4.01839
-4.00397
-3.99044
-3.97771
-3.96574
-3.95448
-3.94389
-3.93395
-3.92461
-3.91586
-3.90768
-6.07371
-4.32374
-4.26674
-4.27266
-4.26797
-4.25771
-4.23386
-4.21472
-4.19707
-4.18102
-4.16585
-4.1515
-4.13786
-4.12488
-4.11253
-4.10081
-4.08972
-4.07924
-4.06935
-4.06005
-4.0513
-4.04309
-4.0354
-4.757
-4.22842
-4.1673
-4.25649
-4.32593
-4.33407
-4.32559
-4.31688
-4.30536
-4.2931
-4.28082
-4.2687
-4.25678
-4.24519
-4.234
-4.22328
-4.21308
-4.2034
-4.19425
-4.18561
-4.17748
-4.16983
-4.16267
-3.70916
-4.17233
-4.20455
-4.33783
-4.40804
-4.41391
-4.42166
-4.42078
-4.41448
-4.40575
-4.39608
-4.38587
-4.37546
-4.3651
-4.35499
-4.34524
-4.33591
-4.32704
-4.31863
-4.31069
-4.30319
-4.29614
-4.28952
-4.19502
-4.12063
-4.34081
-4.47001
-4.48535
-4.50957
-4.52432
-4.52807
-4.52562
-4.51981
-4.51197
-4.50324
-4.49405
-4.48475
-4.4756
-4.46675
-4.45828
-4.45022
-4.44257
-4.43533
-4.42849
-4.42205
-4.416
-4.3479
-4.45717
-4.5787
-4.57859
-4.59877
-4.6216
-4.63477
-4.63964
-4.63901
-4.63481
-4.62834
-4.62071
-4.6125
-4.60411
-4.59585
-4.58788
-4.58026
-4.573
-4.56611
-4.55959
-4.55342
-4.5476
-4.54214
-4.71362
-4.76205
-4.7316
-4.72272
-4.73208
-4.74363
-4.75146
-4.75478
-4.75417
-4.75056
-4.74489
-4.73807
-4.73069
-4.72316
-4.71577
-4.70866
-4.70188
-4.69544
-4.68932
-4.68352
-4.67803
-4.67285
-4.66798
-4.95282
-4.91169
-4.88586
-4.871
-4.86729
-4.86883
-4.87105
-4.87172
-4.87019
-4.86655
-4.86132
-4.85514
-4.84853
-4.84186
-4.83535
-4.82913
-4.82321
-4.81759
-4.81225
-4.80717
-4.80237
-4.79783
-4.79357
-5.04871
-5.03449
-5.02057
-5.00575
-4.99668
-4.99253
-4.99056
-4.98877
-4.98614
-4.98229
-4.97738
-4.97181
-4.96599
-4.96021
-4.95464
-4.94934
-4.94431
-4.93952
-4.93495
-4.93061
-4.92649
-4.92259
-4.91894
-5.17428
-5.16138
-5.14663
-5.13149
-5.12031
-5.11312
-5.10846
-5.10492
-5.10144
-5.0975
-5.09298
-5.08808
-5.08311
-5.07829
-5.07371
-5.06937
-5.06523
-5.06128
-5.0575
-5.05388
-5.05044
-5.04718
-5.04413
-5.2903
-5.27927
-5.26537
-5.25094
-5.2391
-5.23043
-5.22431
-5.21978
-5.21593
-5.21216
-5.20821
-5.20405
-5.20002
-5.19621
-5.19265
-5.18928
-5.18606
-5.18294
-5.17993
-5.17703
-5.17425
-5.17162
-5.16916
-5.40024
-5.39154
-5.37944
-5.36598
-5.3542
-5.34508
-5.33839
-5.33353
-5.32975
-5.32644
-5.32332
-5.31994
-5.31688
-5.31411
-5.31157
-5.30917
-5.30683
-5.30454
-5.30228
-5.30008
-5.29796
-5.29594
-5.29406
-5.51058
-5.50301
-5.49174
-5.47855
-5.46699
-5.458
-5.45133
-5.44659
-5.44325
-5.44059
-5.43806
-5.43592
-5.43392
-5.43218
-5.43062
-5.42913
-5.42764
-5.42613
-5.42459
-5.42307
-5.42158
-5.42017
-5.41886
-5.62463
-5.61626
-5.60421
-5.59018
-5.57876
-5.57014
-5.56376
-5.55951
-5.55693
-5.55521
-5.55392
-5.55264
-5.55155
-5.55068
-5.54996
-5.54927
-5.54854
-5.54774
-5.54689
-5.54601
-5.54514
-5.54431
-5.54357
-5.74609
-5.73273
-5.7174
-5.70266
-5.69083
-5.68241
-5.67656
-5.67327
-5.67153
-5.67051
-5.66978
-5.66945
-5.66924
-5.66926
-5.66938
-5.66947
-5.66947
-5.66935
-5.66914
-5.66887
-5.66859
-5.66833
-5.66815
646.446
642.348
639.355
638.01
530.262
526.64
523.408
520.762
405.464
400.615
396.206
392.64
308.398
303.821
299.605
295.381
237.785
233.602
229.481
225.003
169.865
164.724
158.502
151.396
96.4544
89.2339
82.1192
75.7066
32.3502
28.2497
26.1644
23.6934
3.88022
2.4484
2.373
2.05381
-1.48521
-1.45012
-1.44758
-1.44293
-1.67618
-1.66562
-1.64649
-1.62724
-1.74511
-1.74225
-1.73992
-1.73675
-1.88944
-1.88281
-1.87822
-1.87534
-2.03745
-2.03181
-2.02783
-2.02462
-2.17975
-2.17658
-2.17386
-2.17137
-2.31916
-2.31528
-2.3119
-2.30889
-2.45634
-2.45205
-2.44819
-2.44469
-2.59158
-2.58707
-2.58294
-2.57913
-2.72552
-2.72095
-2.71669
-2.71271
-2.8586
-2.85405
-2.84974
-2.84568
-2.99102
-2.98652
-2.98223
-2.97814
-3.12285
-3.11842
-3.11418
-3.11012
-3.25409
-3.24976
-3.2456
-3.24161
-3.38477
-3.38056
-3.37651
-3.37261
-3.51488
-3.51081
-3.50689
-3.50312
-3.64444
-3.64053
-3.63677
-3.63314
-3.77347
-3.76974
-3.76616
-3.76269
-3.90201
-3.89848
-3.89508
-3.89179
-4.03007
-4.02675
-4.02356
-4.02046
-4.1577
-4.15461
-4.15162
-4.14874
-4.28493
-4.28206
-4.27931
-4.27665
-4.4118
-4.40918
-4.40666
-4.40422
-4.53834
-4.53597
-4.5337
-4.5315
-4.6646
-4.66249
-4.66046
-4.6585
-4.7906
-4.78875
-4.78698
-4.78527
-4.91639
-4.91481
-4.91329
-4.91183
-5.042
-5.04068
-5.03942
-5.03821
-5.16746
-5.1664
-5.1654
-5.16443
-5.29277
-5.29198
-5.29123
-5.29052
-5.41799
-5.41746
-5.41696
-5.4165
-5.5431
-5.54283
-5.54259
-5.54238
-5.66809
-5.6681
-5.66813
-5.66818
636.033
623.631
609.784
593.076
569.95
540.72
513.116
512.084
516.515
517.592
530.801
541.212
530.241
504.722
477.924
473.229
493.842
496.407
521.958
513.178
495.665
481.367
467.462
449.798
430.588
420.947
427.507
416.487
402.288
403.048
406.877
399.67
377.435
364.655
363.647
371.624
374.784
398.406
385.469
370.247
355.935
343.499
331.683
321.98
322.514
333.078
323.056
294.965
277.719
275.018
273.55
265.054
268.588
263.841
259.504
263.022
274.938
287.361
273.363
258.024
240.864
227.718
218.162
218.269
227.509
223.561
199.646
173.299
163.119
163.381
166.534
173.397
169.463
160.347
159.615
157.903
216.536
200.936
181.756
165.614
150.635
136.816
129.213
126.009
117.048
100.563
84.1639
75.8206
73.8147
76.9253
80.67
81.3619
75.6014
73.2163
81.1881
139.687
125.084
110.304
100.028
85.2618
70.2069
57.0283
46.7988
36.9599
28.706
23.0047
19.9131
18.0074
17.7205
17.0044
18.055
16.3063
14.6903
17.7573
66.1003
55.0698
45.2843
38.3458
28.3794
19.7846
11.6078
6.16607
3.48638
1.06747
-0.381279
-0.622604
-0.639108
-0.769892
-0.631635
-0.642879
-0.79635
-0.84493
-0.0929467
19.0877
12.5635
7.79479
4.36618
1.93315
1.44418
-0.314845
-1.0267
-0.952326
-0.966307
-0.959974
-0.966275
-0.993262
-1.007
-1.05686
-1.10391
-1.14324
-1.27033
-1.17302
0.980418
0.180156
-0.0493976
-1.01456
-1.20443
-1.23013
-1.25469
-1.19977
-1.15845
-1.1444
-1.12981
-1.1326
-1.14623
-1.15689
-1.18488
-1.22084
-1.2665
-1.3073
-1.24153
-1.41681
-1.41162
-1.43077
-1.43332
-1.41361
-1.41547
-1.40576
-1.35248
-1.31815
-1.29158
-1.277
-1.28372
-1.29101
-1.29425
-1.30973
-1.33323
-1.35433
-1.36667
-1.31492
-1.59946
-1.58671
-1.60723
-1.60266
-1.57743
-1.55948
-1.53803
-1.51121
-1.49089
-1.4659
-1.44454
-1.43813
-1.43888
-1.43395
-1.44258
-1.46426
-1.47708
-1.4742
-1.44832
-1.73396
-1.73973
-1.75074
-1.74676
-1.73297
-1.71664
-1.69727
-1.6798
-1.66964
-1.65626
-1.62871
-1.60046
-1.59208
-1.59142
-1.59209
-1.60867
-1.61279
-1.61032
-1.59592
-1.87505
-1.88227
-1.88567
-1.88475
-1.87871
-1.87209
-1.86158
-1.84791
-1.83864
-1.83374
-1.81669
-1.78251
-1.76835
-1.77434
-1.77087
-1.77184
-1.76322
-1.7581
-1.74973
-2.0215
-2.02377
-2.02445
-2.02098
-2.01629
-2.01174
-2.00423
-1.9952
-1.98765
-1.98267
-1.97823
-1.96701
-1.95741
-1.96401
-1.96063
-1.93654
-1.91767
-1.90751
-1.90074
-2.16791
-2.16526
-2.16261
-2.1558
-2.149
-2.14264
-2.13556
-2.12819
-2.12157
-2.11646
-2.11394
-2.11696
-2.11718
-2.11986
-2.11284
-2.08502
-2.06436
-2.05302
-2.04727
-2.30427
-2.29915
-2.29431
-2.28776
-2.28094
-2.27419
-2.26726
-2.26036
-2.254
-2.24866
-2.24474
-2.24319
-2.24595
-2.24295
-2.23454
-2.2173
-2.20278
-2.19409
-2.1899
-2.43927
-2.43274
-2.4265
-2.41978
-2.41288
-2.40601
-2.39916
-2.39246
-2.38616
-2.38045
-2.37524
-2.37153
-2.36995
-2.36581
-2.35797
-2.34719
-2.33812
-2.33258
-2.32989
-2.57321
-2.56585
-2.55884
-2.55184
-2.54487
-2.53799
-2.53122
-2.52465
-2.51839
-2.51246
-2.50671
-2.50209
-2.49828
-2.49351
-2.48713
-2.47992
-2.47389
-2.47021
-2.46849
-2.70648
-2.69862
-2.69117
-2.68396
-2.67695
-2.6701
-2.66345
-2.65702
-2.65085
-2.64491
-2.63921
-2.63421
-2.62958
-2.62479
-2.6196
-2.61451
-2.61021
-2.60738
-2.60623
-2.83927
-2.83112
-2.82343
-2.81611
-2.8091
-2.80234
-2.79582
-2.78955
-2.78357
-2.7778
-2.77231
-2.76728
-2.76255
-2.758
-2.75363
-2.74972
-2.74655
-2.74431
-2.74336
-2.97166
-2.96336
-2.95558
-2.94823
-2.94127
-2.93463
-2.92827
-2.92221
-2.91644
-2.91093
-2.90572
-2.90086
-2.89631
-2.89209
-2.88829
-2.8851
-2.88261
-2.88077
-2.87993
-3.10364
-3.09533
-3.08755
-3.08026
-3.07339
-3.0669
-3.06074
-3.0549
-3.04938
-3.04416
-3.03925
-3.03465
-3.03037
-3.02649
-3.02313
-3.02042
-3.01838
-3.01691
-3.01612
-3.23521
-3.22697
-3.21928
-3.2121
-3.20539
-3.19907
-3.19313
-3.18754
-3.18228
-3.17735
-3.17273
-3.16843
-3.16446
-3.16092
-3.1579
-3.15553
-3.15379
-3.15264
-3.15199
-3.36635
-3.35827
-3.35073
-3.34372
-3.33719
-3.33108
-3.32537
-3.32003
-3.31504
-3.3104
-3.30607
-3.30207
-3.29842
-3.29519
-3.29248
-3.29037
-3.28876
-3.28793
-3.28734
-3.49704
-3.48918
-3.48186
-3.47506
-3.46875
-3.46287
-3.4574
-3.45232
-3.44761
-3.44324
-3.43921
-3.43551
-3.43215
-3.42922
-3.42676
-3.4249
-3.42321
-3.4227
-3.42194
-3.62728
-3.6197
-3.61264
-3.60611
-3.60004
-3.59442
-3.58921
-3.58439
-3.57994
-3.57585
-3.5721
-3.56868
-3.56561
-3.56293
-3.56068
-3.55894
-3.55743
-3.55678
-3.55612
-3.75709
-3.74984
-3.74308
-3.73683
-3.73105
-3.7257
-3.72076
-3.7162
-3.71203
-3.7082
-3.70472
-3.70156
-3.69876
-3.69632
-3.69425
-3.69262
-3.69124
-3.69052
-3.68995
-3.88648
-3.87959
-3.87318
-3.86725
-3.86177
-3.85671
-3.85205
-3.84777
-3.84386
-3.84029
-3.83706
-3.83416
-3.83159
-3.82937
-3.82748
-3.82596
-3.82466
-3.82396
-3.82343
-4.01546
-4.00898
-4.00294
-3.99736
-3.99221
-3.98746
-3.98309
-3.97909
-3.97545
-3.97213
-3.96913
-3.96646
-3.96412
-3.96209
-3.96036
-3.95893
-3.95775
-3.95705
-3.9566
-4.14407
-4.13802
-4.13238
-4.12717
-4.12237
-4.11794
-4.11389
-4.11018
-4.10679
-4.10371
-4.10095
-4.09849
-4.09634
-4.0945
-4.09292
-4.0916
-4.09052
-4.08982
-4.08944
-4.27234
-4.26674
-4.26152
-4.25671
-4.25227
-4.24819
-4.24445
-4.24102
-4.2379
-4.23506
-4.23252
-4.23027
-4.2283
-4.22662
-4.22517
-4.22397
-4.22297
-4.22232
-4.22199
-4.40028
-4.39516
-4.39039
-4.38599
-4.38193
-4.37821
-4.37479
-4.37165
-4.36879
-4.36619
-4.36386
-4.3618
-4.36
-4.35847
-4.35715
-4.35606
-4.35515
-4.35456
-4.35426
-4.52793
-4.52331
-4.519
-4.51503
-4.51137
-4.50801
-4.50492
-4.50207
-4.49947
-4.49711
-4.49499
-4.49312
-4.49148
-4.49009
-4.48889
-4.48791
-4.48708
-4.48655
-4.48628
-4.65533
-4.65121
-4.64738
-4.64385
-4.6406
-4.63761
-4.63484
-4.6323
-4.62997
-4.62784
-4.62594
-4.62424
-4.62277
-4.6215
-4.62042
-4.61954
-4.61879
-4.61833
-4.61808
-4.78249
-4.7789
-4.77556
-4.77248
-4.76964
-4.76701
-4.76459
-4.76234
-4.76029
-4.75841
-4.75671
-4.7552
-4.75388
-4.75275
-4.75178
-4.75099
-4.75032
-4.74991
-4.74969
-4.90946
-4.90639
-4.90354
-4.90092
-4.89849
-4.89625
-4.89416
-4.89223
-4.89045
-4.88882
-4.88735
-4.88602
-4.88486
-4.88385
-4.88299
-4.88228
-4.88169
-4.88133
-4.88112
-5.03624
-5.03371
-5.03136
-5.0292
-5.02719
-5.02533
-5.02359
-5.02198
-5.02049
-5.01912
-5.01787
-5.01674
-5.01573
-5.01485
-5.01409
-5.01346
-5.01294
-5.01262
-5.01243
-5.16287
-5.16088
-5.15903
-5.15733
-5.15575
-5.15427
-5.1529
-5.15162
-5.15042
-5.14931
-5.1483
-5.14736
-5.14652
-5.14577
-5.14511
-5.14456
-5.1441
-5.14382
-5.14362
-5.28937
-5.28791
-5.28658
-5.28534
-5.28419
-5.28312
-5.28211
-5.28116
-5.28027
-5.27944
-5.27865
-5.27792
-5.27725
-5.27663
-5.27607
-5.2756
-5.2752
-5.27493
-5.27474
-5.41576
-5.41485
-5.41403
-5.41327
-5.41256
-5.41189
-5.41125
-5.41065
-5.41006
-5.4095
-5.40895
-5.40842
-5.40792
-5.40743
-5.40698
-5.40658
-5.40622
-5.40598
-5.4058
-5.54206
-5.5417
-5.5414
-5.54113
-5.54087
-5.54062
-5.54036
-5.5401
-5.53983
-5.53954
-5.53923
-5.53891
-5.53857
-5.53822
-5.53787
-5.53753
-5.53722
-5.53698
-5.5368
-5.66832
-5.66855
-5.66881
-5.66905
-5.66927
-5.66946
-5.6696
-5.6697
-5.66975
-5.66975
-5.66969
-5.66958
-5.66941
-5.66919
-5.66894
-5.66865
-5.66836
-5.66811
-5.66785
)
;

boundaryField
{
    leftWall
    {
        type            calculated;
        value           nonuniform List<scalar> 
50
(
6395.96
5595.94
4800.86
4010.01
3221.93
2437.61
1667.58
1071.5
754.546
606.355
518.689
450.1
378.206
308.551
271.728
276.087
298.239
320.642
276.377
171.234
81.7123
35.8521
16.8367
8.32139
8.21459
9.12689
2.42122
-1.88413
-2.15322
-3.92737
-3.93991
-4.03083
-4.11702
-4.19247
-4.60573
-4.94476
-6.07371
-4.757
-3.70916
-4.19502
-4.3479
-4.71362
-4.95282
-5.04871
-5.17428
-5.2903
-5.40024
-5.51058
-5.62463
-5.74609
)
;
    }
    rightWall
    {
        type            calculated;
        value           nonuniform List<scalar> 
50
(
2015.35
1372.23
1021.41
891.144
815.149
743.084
678.559
616.966
521.958
398.406
274.938
157.903
81.1881
17.7573
-0.0929467
-1.17302
-1.24153
-1.31492
-1.44832
-1.59592
-1.74973
-1.90074
-2.04727
-2.1899
-2.32989
-2.46849
-2.60623
-2.74336
-2.87993
-3.01612
-3.15199
-3.28734
-3.42194
-3.55612
-3.68995
-3.82343
-3.9566
-4.08944
-4.22199
-4.35426
-4.48628
-4.61808
-4.74969
-4.88112
-5.01243
-5.14362
-5.27474
-5.4058
-5.5368
-5.66785
)
;
    }
    lowerWall
    {
        type            calculated;
        value           nonuniform List<scalar> 
62
(
6794.11
6748.34
6670.56
6569.86
6453.68
6329.29
6202.75
6077.96
5956.03
5837.08
5721.62
5610.89
5505.62
5407.34
5320.06
5250.14
5203.42
5183.13
5187.98
5210.9
5241.33
5265.98
5279.66
4881.53
4087.64
3296.55
2507.61
1724.8
1103.73
830.799
728.431
698.535
691.361
688.32
687.413
2599.98
1882.03
1302.66
1026.36
908.984
824.833
780.084
735.926
2958.54
2968.63
2998.35
3027.29
3053
3047.41
3028.21
3021.79
3021.79
2973.09
2923.88
2902.61
2939.57
3039.38
3023.49
2892.61
2712.14
2499.48
2388.44
)
;
    }
    atmosphere
    {
        type            calculated;
        value           nonuniform List<scalar> 
46
(
-5.81304
-5.79318
-5.77248
-5.75752
-5.74321
-5.73647
-5.73166
-5.7296
-5.72913
-5.72907
-5.72905
-5.72905
-5.72911
-5.72933
-5.72962
-5.7299
-5.73011
-5.73024
-5.73028
-5.73028
-5.73025
-5.73024
-5.73031
-5.73043
-5.73059
-5.73079
-5.73102
-5.73144
-5.73202
-5.7326
-5.73313
-5.73361
-5.73403
-5.73439
-5.73468
-5.73491
-5.73506
-5.73514
-5.73514
-5.73507
-5.73492
-5.73469
-5.73441
-5.73409
-5.7338
-5.73333
)
;
    }
    defaultFaces
    {
        type            empty;
    }
}


// ************************************************************************* //
