/*--------------------------------*- C++ -*----------------------------------*\
| =========                 |                                                 |
| \\      /  F ield         | OpenFOAM: The Open Source CFD Toolbox           |
|  \\    /   O peration     | Version:  2312                                  |
|   \\  /    A nd           | Website:  www.openfoam.com                      |
|    \\/     M anipulation  |                                                 |
\*---------------------------------------------------------------------------*/
FoamFile
{
    version     2.0;
    format      ascii;
    arch        "LSB;label=32;scalar=64";
    class       volScalarField;
    location    "2.2";
    object      p_rgh;
}
// * * * * * * * * * * * * * * * * * * * * * * * * * * * * * * * * * * * * * //

dimensions      [1 -1 -2 0 0 0 0];

internalField   nonuniform List<scalar> 
2268
(
6794.11
6748.34
6670.56
6569.86
6453.68
6329.29
6202.75
6077.96
5956.03
5837.08
5721.62
5610.89
5505.62
5407.34
5320.06
5250.14
5203.42
5183.13
5187.98
5210.9
5241.33
5265.98
5279.66
6790.39
6747.71
6673.51
6572.87
6455.66
6329.94
6202.5
6077.33
5955.19
5835.97
5720.14
5609.2
5503.56
5404.41
5315.8
5244.65
5197.26
5177.46
5183.92
5209.42
5243.38
5268.33
5282.04
6791.61
6752.57
6680.71
6579.17
6459.75
6331.4
6202
6076.07
5953.6
5833.89
5717.34
5605.9
5499.47
5398.51
5307.02
5233.28
5184.53
5165.78
5175.57
5206.04
5243.98
5272.78
5287.3
6797.06
6762.35
6691.96
6588.92
6465.99
6333.31
6200.95
6074.01
5951.03
5830.46
5712.71
5600.84
5493.53
5390.19
5294.27
5216.44
5165.49
5147.96
5163.24
5201.88
5248.47
5280.89
5294.63
6805.07
6776.1
6706.07
6601.13
6474.16
6335.4
6198.84
6070.95
5947.67
5826.55
5706.9
5594.48
5485.99
5378.64
5227.7
5061.1
4955.16
4939.79
5001.69
5125.13
5254.6
5291.4
5298.19
6813.07
6782.31
6712.62
6614.93
6482.4
6336.89
6195.2
6066.14
5856.35
5533.93
5118.27
4619.75
4042.27
3404.72
2841.59
2495.67
2313.65
2308.22
2486.88
2795.83
3197.95
3529.53
3662.3
6742.87
6746.02
6676.72
6498.39
6059.14
5326.14
4437.85
3605.43
2898.32
2325.26
1809.3
1530.68
1393.37
1338.25
1326.45
1316.58
1301.21
1279.75
1259.86
1263.83
1277.4
1311.57
1529.73
4319.53
4546.97
4257.61
3313.63
2451.41
1721.87
1376.27
1311.08
1304.02
1306.56
1313.11
1319.27
1324.39
1326.01
1322.51
1316.48
1304.63
1251.94
1221.97
1221.82
1245.27
1284.87
1234.81
2958.54
2968.63
2998.35
3027.29
3053
3047.41
3028.21
3021.79
3021.79
2973.09
2923.88
2902.61
2939.57
3039.38
3023.49
2892.61
2712.14
2499.48
2388.44
2952.65
2951.78
2975.91
2999.15
2996.84
2971.63
2934.26
2970.03
2997.56
2864.5
2764.22
2754.46
2808.71
2965.93
2969.13
2822.99
2612.62
2284.16
2105.31
2376.93
2347.94
2403.83
2528.84
2544.13
2393.37
2387.96
2385.73
2468.72
2495.88
2478.45
2327.06
2301.48
2455.16
2433.38
2248.77
2000.83
1449.83
1441.17
1422.6
1435.71
1441.02
1554.69
1810.25
1785.44
1820.8
1943.34
1865.13
1759.52
1714.27
1591.72
1710.14
1992.5
2077.2
1808.84
1181.46
1211.78
1091.07
1418.2
1434.62
1385.94
1310.36
1511.66
1696.69
1575.51
1417.73
1487.96
1520.01
1553.15
1540.22
1446.96
1435.28
1424.09
1070.59
1127.44
1161.59
1077.95
1098.49
1137.66
1214.4
1154.49
1068.82
1166.67
1245.49
1331.95
1473.7
1546.74
1515.71
1520.94
1427.45
1265.83
1065.23
1075.5
1131.84
1075.77
1058.61
1065.64
1048.33
1040.49
1069.29
1067.8
1039.37
1028.33
997.554
1218.82
1449.6
1456.55
1041.68
997.094
1022.8
1102.91
1119.28
1076.29
994.32
1064.58
1095.9
1129.46
1143.59
1129.09
1104.22
1070.75
1003.72
896.674
1143.13
1335.04
1048.03
1030.51
1057.44
1044.6
1109.82
1065.87
949.314
1031.06
1104.52
1631.14
1576.62
1295.66
1286.65
1290.31
1289.82
1300.41
1303.18
1303.14
1304.6
1308.72
1313.97
1318.09
1319.33
1315.57
1320.05
1262.56
1243.89
1236.35
1241.93
1244.75
1215.96
1182.89
1200.65
1219.22
1279.13
1251.84
1252.47
1269.83
1270.57
1271.07
1276.33
1277.8
1283.39
1309.36
1314.23
1315.58
1309.26
1289.21
1197.78
1187.95
1278.04
1260.16
1238.22
1208.63
1187.7
913.366
943.675
1025.65
1054.44
1028.63
1031.74
1035.74
1032.4
1088.76
1150.54
1206.93
1230.87
1301.47
1314.31
1312.16
1273.9
1243.76
1272.84
1276.84
1253.55
1203.92
1164.51
1132.67
797.675
828.311
861.017
868.183
884.441
907.207
909.884
907.887
903.158
907.634
922.714
973.562
1036.78
1171.55
1293.13
1282.47
1271.39
1268.52
1186.35
946.5
878.648
870.736
827.227
744.819
720.634
823.12
867.708
879.368
892.768
902.258
906.934
905.626
901.411
888.725
837.918
804.356
836.112
908.777
1054.47
1151.61
1078.46
835.001
804.389
812.155
790.434
774.99
819.168
704.323
683.27
798.495
859.003
880.57
896.264
904.95
906.821
903.851
892.172
863.382
830.662
842.891
834.781
813.445
785.145
763.809
759.649
780.717
780.622
770.725
762.278
903.312
781.241
484.851
566.422
723.943
863.457
893.185
906.205
856.032
867.847
902.984
888.311
880.324
864.305
848.039
832.515
801.184
767.742
762.7
782.076
778.351
775.269
824.587
968.379
723.153
327.113
321.57
329.385
423.099
638.491
828.059
892.952
908.375
912.051
900.498
887.737
873.986
859.213
844.197
826.599
788.064
777.246
795.779
778.703
735.402
665.288
1053.57
870.501
392.129
328.729
329.703
510.582
772.534
910.064
932.617
926.918
917.346
905.148
894.037
882.327
868.767
854.923
841.271
814.269
750.469
582.056
362.104
247.085
204.666
1159.77
1086.57
978.643
850.454
857.941
923.684
936.437
934.563
933.287
929.6
920.759
909.248
899.434
890.711
882.435
862.746
629.13
297.412
131.505
89.6564
17.4841
3.02206
0.131078
1153.44
1065.12
919.984
790.435
836.186
1007.97
948.184
845.125
839.991
956.263
878.986
672.236
551.994
400.621
139.258
22.1323
3.32592
0.872452
0.337362
0.247075
0.237105
0.147198
0.126893
1100.51
914.938
389.18
196.249
138.218
149.391
137.585
116.217
89.0934
54.0863
18.6093
3.78329
0.732294
0.0179315
-0.00351297
0.00786239
0.048342
0.569435
0.754271
0.756298
0.597804
0.248987
0.234365
1066.73
942.187
115.415
7.01882
0.383961
0.24697
0.166559
0.207056
0.15128
0.0840287
0.0664941
-0.0136716
0.0169318
0.054618
0.0917977
0.120534
0.125579
0.116548
0.159258
0.486703
0.628797
0.788294
0.624739
1076.64
895.672
46.9914
0.388966
0.207444
0.0926346
-0.00421055
0.00786996
-0.00800051
-0.0114567
-0.00662043
-0.0226592
-0.0080016
-0.0173934
0.00818267
0.0686794
0.13632
0.126271
0.0528533
0.0686039
0.0918196
0.0974128
0.13001
1117.87
387.073
4.4664
0.224193
0.0829205
-0.0129489
-0.0850914
-0.107916
-0.104187
-0.0923337
-0.0335943
0.0674426
0.0819785
0.0748302
-0.00577686
-0.00588469
0.0111167
0.0265607
0.0403471
0.0575501
0.0739645
0.0851672
0.0993859
1169.58
106.717
0.855191
0.0718178
-0.0472054
-0.0983314
-0.14228
-0.150454
-0.135476
-0.10618
-0.0883152
-0.0716984
0.0107161
0.0647158
0.0348508
-0.0142172
0.00149588
0.0165809
0.0302083
0.0436338
0.0579774
0.0725011
0.0852155
1237.78
185.991
5.00999
-0.0547638
-0.0682285
-0.15225
-0.175666
-0.175686
-0.151307
-0.127723
-0.10077
-0.08485
-0.0727179
-0.0573115
-0.0385198
-0.0227063
-0.00781039
0.00727015
0.0210721
0.0344951
0.0479892
0.0610983
0.072928
1371.75
183.667
17.5047
-0.136218
-0.102227
-0.189836
-0.189932
-0.187901
-0.167894
-0.145202
-0.123448
-0.104421
-0.0862911
-0.068159
-0.0502822
-0.0330382
-0.0164731
-0.00159519
0.0125495
0.0261056
0.0391422
0.0515239
0.0628022
679.65
133.787
12.1024
-0.208752
-0.171932
-0.21887
-0.202698
-0.197104
-0.176775
-0.154893
-0.133596
-0.113286
-0.094079
-0.0756809
-0.0578984
-0.0408582
-0.0247501
-0.0095063
0.00483299
0.0183722
0.0311362
0.0430903
0.0540608
152.324
34.8458
2.25267
-0.289767
-0.246063
-0.249943
-0.220718
-0.205253
-0.18423
-0.162625
-0.140986
-0.120322
-0.100752
-0.0821306
-0.0643794
-0.0474816
-0.0314588
-0.0163287
-0.00208775
0.0112811
0.0238001
0.0354728
0.0462259
113.96
0.178923
-0.465601
-0.339805
-0.293959
-0.285534
-0.240817
-0.216074
-0.192399
-0.169574
-0.147199
-0.126076
-0.106234
-0.087514
-0.0698021
-0.0530382
-0.0372031
-0.022289
-0.00828235
0.00484036
0.0171038
0.0285301
0.0390918
2.36421
-0.579133
-0.450737
-0.371371
-0.310158
-0.310125
-0.260457
-0.227445
-0.200659
-0.175566
-0.152142
-0.130554
-0.110505
-0.0917659
-0.0741742
-0.0576278
-0.0420658
-0.0274486
-0.0137425
-0.000914576
0.0110672
0.0222372
0.0325893
-0.644833
-0.605407
-0.526872
-0.398295
-0.334039
-0.315684
-0.271443
-0.236554
-0.206501
-0.179585
-0.15546
-0.133558
-0.113445
-0.0948162
-0.0774565
-0.0612212
-0.0460137
-0.0317655
-0.0184234
-0.00594234
0.00571701
0.0165957
0.0266977
-0.514224
-0.586021
-0.523241
-0.402939
-0.354384
-0.31908
-0.277344
-0.240884
-0.208991
-0.181202
-0.156741
-0.134824
-0.114894
-0.0965717
-0.0795961
-0.0637888
-0.0490266
-0.035221
-0.0223052
-0.0102252
0.00106347
0.0116054
0.0214119
7.41135
-0.527448
-0.499804
-0.409124
-0.366684
-0.322089
-0.279132
-0.240328
-0.20759
-0.179746
-0.155571
-0.134109
-0.114712
-0.0969553
-0.080554
-0.0653132
-0.0510992
-0.037816
-0.0253912
-0.0137677
-0.00289881
0.00726173
0.0167238
12.1936
-0.46027
-0.490257
-0.431579
-0.373767
-0.319122
-0.272272
-0.233364
-0.201504
-0.174784
-0.151726
-0.131306
-0.112856
-0.095958
-0.0803375
-0.0658106
-0.0522522
-0.0395727
-0.027704
-0.0165913
-0.00619037
0.00354149
0.012618
20.8879
0.415805
-0.439116
-0.433485
-0.361959
-0.301619
-0.255328
-0.219392
-0.190599
-0.166355
-0.145301
-0.12652
-0.109425
-0.0936637
-0.079016
-0.0653389
-0.0525351
-0.0405344
-0.0292816
-0.0187308
-0.00884305
0.000420668
0.00906708
184.132
73.3518
0.555554
-0.372908
-0.313065
-0.263706
-0.22804
-0.199051
-0.175964
-0.155134
-0.136782
-0.120102
-0.104668
-0.0902497
-0.0767184
-0.0639939
-0.052022
-0.0407612
-0.0301749
-0.0202294
-0.0108952
-0.00214097
0.00604219
205.526
134.104
0.944151
-0.233231
-0.228924
-0.218737
-0.194925
-0.17579
-0.158151
-0.142104
-0.126927
-0.112585
-0.0989481
-0.0859644
-0.0736155
-0.0618966
-0.0508025
-0.0403228
-0.0304411
-0.0211372
-0.0123902
-0.00417355
0.00350971
212.956
64.7318
-0.00232416
-0.0922255
-0.161718
-0.169923
-0.161465
-0.152761
-0.141242
-0.12898
-0.116707
-0.104585
-0.0926728
-0.0810758
-0.0698875
-0.059173
-0.0489695
-0.0392921
-0.0301403
-0.0215046
-0.0133722
-0.00572581
0.0014362
63.2988
1.88651
0.0848743
-0.0483859
-0.118665
-0.124586
-0.132346
-0.131464
-0.125167
-0.116438
-0.106764
-0.096564
-0.086156
-0.0757986
-0.0656843
-0.0559324
-0.0466075
-0.0377381
-0.0293317
-0.0213852
-0.0138903
-0.00683222
-0.0002217
0.219997
0.293992
0.0738082
-0.0554325
-0.0708147
-0.0950428
-0.109804
-0.113555
-0.111107
-0.105291
-0.097454
-0.0887283
-0.0795378
-0.070241
-0.0610961
-0.0522537
-0.0437869
-0.0357243
-0.028073
-0.0208305
-0.0139917
-0.00754821
-0.00150362
0.192177
0.0827019
-0.0389054
-0.0388465
-0.059027
-0.0818128
-0.0950438
-0.099932
-0.0992885
-0.0950833
-0.0886038
-0.080966
-0.0727713
-0.0644054
-0.0561563
-0.048187
-0.0405649
-0.0333092
-0.0264206
-0.0198946
-0.0137259
-0.00790498
-0.00244961
-0.0480983
-0.0969669
-0.0666334
-0.0578042
-0.0668057
-0.078554
-0.0865263
-0.0898429
-0.0892165
-0.0856285
-0.0798067
-0.0730079
-0.0657334
-0.0582505
-0.0508723
-0.0437693
-0.0369935
-0.0305501
-0.0244316
-0.0186298
-0.01314
-0.00795942
-0.00309603
-0.16226
-0.121416
-0.0957078
-0.0806319
-0.0765537
-0.0784931
-0.0807967
-0.0814294
-0.0799653
-0.0758058
-0.0696362
-0.0646016
-0.0583659
-0.0517509
-0.0452591
-0.0390422
-0.033128
-0.0275067
-0.0221643
-0.0170921
-0.0122865
-0.00774444
-0.0034876
-0.132872
-0.118977
-0.105204
-0.0898776
-0.0807286
-0.07695
-0.0744296
-0.0727641
-0.0705687
-0.0650784
-0.0600411
-0.0559134
-0.0506362
-0.0449171
-0.039356
-0.0340606
-0.0290299
-0.0242412
-0.0196783
-0.0153352
-0.0112135
-0.0073183
-0.00366286
-0.131638
-0.120624
-0.106009
-0.0904664
-0.0793487
-0.0718396
-0.067033
-0.063477
-0.0593824
-0.0547148
-0.0504551
-0.0472485
-0.0425848
-0.0378077
-0.033231
-0.0288928
-0.0247639
-0.0208139
-0.0170292
-0.0134112
-0.00996743
-0.00670584
-0.00365632
-0.117764
-0.110959
-0.0991373
-0.0849879
-0.073183
-0.06386
-0.0546705
-0.0513025
-0.0477429
-0.0441336
-0.0411804
-0.0382809
-0.0343273
-0.0305363
-0.0269784
-0.0236152
-0.0203925
-0.0172778
-0.0142643
-0.0113608
-0.00858421
-0.00595431
-0.00349391
-0.10241
-0.0938488
-0.0866326
-0.0746655
-0.0630339
-0.0421747
-0.0337835
-0.0386333
-0.0365352
-0.0338624
-0.0321661
-0.0290307
-0.0260041
-0.0232432
-0.0207055
-0.0183057
-0.0159741
-0.0136792
-0.0114215
-0.00921914
-0.00709663
-0.00507787
-0.00320386
-0.089565
-0.0823012
-0.073173
-0.0612597
-0.0392495
-0.0250037
-0.0208208
-0.0284987
-0.0265752
-0.0242275
-0.0219377
-0.0198426
-0.0178597
-0.0161261
-0.0145683
-0.01308
-0.0115902
-0.0100743
-0.00854103
-0.00701547
-0.00552927
-0.00411651
-0.00281091
-0.0710178
-0.0725161
-0.0605225
-0.0365544
-0.0196022
-0.0115555
-0.0190368
-0.0172963
-0.0153256
-0.0138677
-0.0126427
-0.011382
-0.0102927
-0.0094313
-0.00870909
-0.00801835
-0.00728691
-0.00649038
-0.00563916
-0.00476055
-0.00388943
-0.00305924
-0.00231956
0.0034356
-0.00285587
-0.0079969
-0.00804226
-0.0103715
-0.00861958
-0.00752769
-0.00626882
-0.00499447
-0.00402916
-0.00331805
-0.00299917
-0.00279814
-0.00281726
-0.00293987
-0.00303123
-0.00302235
-0.00290317
-0.00269468
-0.00242989
-0.00214673
-0.00188656
-0.00170387
1090.36
1060.05
1056.64
1059.03
1186.94
1183.94
1181.01
1180.62
1136.69
1131.36
1119.26
1121.93
819.586
811.664
804.893
831.385
767.532
769.789
776.685
777.614
760.733
802.128
882.181
963.873
912.86
928.049
814.518
706.502
504.195
448.327
418.838
408.534
135.482
92.2143
96.2026
90.342
0.17529
0.647217
0.907302
0.889448
0.140866
0.233878
0.279354
0.337551
0.173175
0.173202
0.175897
0.274705
0.442867
0.351374
0.38948
0.398886
0.149962
0.342551
0.375021
0.399828
0.106514
0.109677
0.112402
0.114851
0.0923491
0.096204
0.0995719
0.102591
0.0802877
0.0845771
0.0884452
0.0919524
0.0702339
0.0747404
0.0788757
0.0826835
0.0614732
0.0660365
0.070305
0.0742844
0.0535724
0.0581242
0.0624306
0.0664932
0.0463394
0.0508432
0.0551375
0.0592198
0.0397097
0.0441378
0.0483794
0.0524334
0.0336575
0.0379888
0.0421463
0.0461358
0.0281754
0.0323851
0.0364348
0.0403288
0.0232589
0.0273282
0.0312427
0.0350162
0.0188914
0.0227969
0.0265603
0.0301895
0.0150526
0.0187799
0.0223673
0.0258343
0.0117092
0.0152379
0.0186413
0.0219281
0.00883993
0.0121607
0.0153562
0.0184493
0.0064057
0.00949975
0.0124844
0.0153685
0.00437549
0.00723824
0.0099894
0.0126551
0.00269838
0.00531419
0.00783643
0.0102733
0.00135203
0.00372068
0.0059924
0.00819511
0.000289723
0.00239706
0.0044265
0.00638626
-0.000516041
0.00133382
0.00310172
0.00481601
-0.00111839
0.000463927
0.00198444
0.00344961
-0.00153091
-0.000208942
0.00104735
0.00226414
-0.00179217
-0.000738703
0.000268772
0.00123423
-0.00191275
-0.00111844
-0.000374586
0.000340893
-0.00193359
-0.00140408
-0.000906742
-0.000442326
-0.00185001
-0.00157801
-0.0013433
-0.00113162
-0.00165018
-0.00165276
-0.00168372
-0.00173944
1139.98
1158.06
1144.19
1127.19
1104.32
1063.22
895.69
803.969
916.685
1011.72
1086.83
1091.3
1116.75
1101.49
1005.76
902.528
956.903
1038.2
1093.89
1173.63
1162.18
1154.68
1143.17
1112.68
1086.09
952.413
762.106
747.635
1009.28
1329.94
1272.38
1131.67
1067.68
805.946
805.639
922.32
1049.36
1108.16
1124.84
1085.99
1081.58
1121.06
1101.87
1098.63
1094.09
975.458
872.156
1008.04
1103.66
1155.32
1108.73
875.977
750.675
762.223
854.617
958.955
1169.08
832.267
802.131
789.626
835.574
898.868
989.677
1003.46
1012.07
1032.46
1039.92
1016.56
953.112
912.072
866.765
783.419
737.82
763.571
814.961
968.666
772.612
756.644
774.268
650.27
650.183
662.324
734.518
840.57
875.544
818.728
722.353
650.44
659.177
670.407
698.593
662.794
639.731
614.454
614.47
992.444
903.182
693.833
676.143
661.377
641.097
649.609
657.437
556.167
499.123
449.346
395.343
354.479
357.221
331.372
352.123
319.996
280.526
264.537
657.887
704.116
627.43
623.101
500.088
346.912
225.363
152.619
94.4781
43.4895
8.83844
3.71648
4.47969
1.56693
6.94331
7.30444
3.85665
5.34639
6.9144
379.251
271.941
133.388
114.61
69.9028
62.404
26.9933
0.534801
0.649689
0.956806
0.965292
0.831633
0.550744
0.5477
0.439978
0.324214
0.272935
0.140848
0.255143
57.0747
36.2129
35.1571
9.02622
0.780378
0.418087
0.307144
0.369615
0.445132
0.446573
0.455982
0.470347
0.421843
0.443825
0.436529
0.374772
0.291558
0.249746
0.313362
0.973637
0.39918
1.5474
0.417282
0.26029
0.264127
0.292268
0.388092
0.50395
0.606893
0.600962
0.52881
0.43815
0.43363
0.432377
0.395734
0.337363
0.309351
0.363277
0.613283
0.628357
0.605088
0.239134
0.260293
0.350114
0.452492
0.583981
0.824634
1.22619
1.12057
0.448136
0.396002
0.437995
0.409534
0.393724
0.338318
0.314547
0.339263
0.468381
0.519598
0.281331
0.287394
0.343337
0.611992
0.823582
0.731729
0.752061
1.1678
1.1976
0.6895
0.49982
1.10435
0.605723
0.329328
0.300878
0.300987
0.31724
0.269196
0.292837
0.305532
0.294464
0.307528
0.46283
0.529834
0.595708
0.610859
0.601461
1.0685
1.22997
1.23171
1.27506
1.22493
0.364394
0.274525
0.278271
0.292012
0.434407
0.396826
0.407335
0.276411
0.179259
0.152447
0.156782
0.181133
0.198845
0.178337
0.200879
1.0433
1.24828
1.19924
1.07636
0.384556
0.24368
0.253937
0.266557
0.118316
0.120968
0.127084
0.132889
0.137929
0.143647
0.150684
0.158046
0.164671
0.169782
0.172284
0.169907
0.477158
0.20619
0.249529
0.273708
0.221944
0.233625
0.245576
0.107206
0.112308
0.117136
0.123699
0.130536
0.137334
0.144242
0.151101
0.157467
0.16283
0.166767
0.168922
0.165811
0.168802
0.181808
0.202045
0.208693
0.21765
0.228463
0.0973735
0.103904
0.110126
0.116866
0.123816
0.130706
0.137532
0.144174
0.150557
0.156615
0.161904
0.165831
0.166848
0.170833
0.178655
0.189494
0.198554
0.204504
0.213979
0.0886014
0.0959622
0.102966
0.109964
0.11696
0.123857
0.130592
0.137149
0.143833
0.150093
0.156074
0.160132
0.163579
0.168359
0.174693
0.181889
0.187957
0.191945
0.199592
0.0805146
0.088373
0.0958213
0.103022
0.110037
0.116878
0.123536
0.129965
0.136732
0.142883
0.148465
0.152807
0.157445
0.162269
0.16741
0.17249
0.176793
0.179735
0.181151
0.072907
0.0810584
0.0887457
0.0960619
0.103074
0.109837
0.116357
0.122617
0.128645
0.134932
0.13991
0.14492
0.149642
0.154187
0.158556
0.162471
0.165762
0.16846
0.168985
0.0657088
0.0740023
0.0817881
0.0891305
0.0960932
0.10274
0.109093
0.115151
0.120925
0.12644
0.131637
0.136508
0.141063
0.145281
0.149078
0.152293
0.155596
0.167637
0.15785
0.0589139
0.0672291
0.0750091
0.0823006
0.0891637
0.0956605
0.10182
0.107652
0.113174
0.118394
0.123309
0.127908
0.132189
0.136065
0.139429
0.142164
0.145306
0.159284
0.155695
0.0525368
0.0607757
0.0684674
0.0756444
0.0823624
0.0886788
0.0946238
0.100214
0.105469
0.110401
0.115019
0.119322
0.123292
0.126835
0.12985
0.13223
0.134864
0.149305
0.149938
0.0465948
0.0546771
0.0622122
0.0692211
0.0757541
0.0818628
0.0875771
0.0929171
0.0979023
0.102547
0.106869
0.11087
0.114527
0.117756
0.120472
0.122583
0.124636
0.139188
0.131169
0.0410983
0.0489572
0.0562783
0.0630727
0.0693857
0.0752629
0.0807326
0.0858158
0.0905319
0.0948943
0.0989274
0.102632
0.105987
0.108925
0.11138
0.113239
0.115058
0.116817
0.116293
0.0360478
0.0436278
0.0506861
0.0572256
0.0632871
0.068911
0.0741233
0.0789448
0.0833929
0.0874806
0.091235
0.0946554
0.097727
0.100404
0.102654
0.104404
0.105963
0.106644
0.107303
0.0314342
0.0386886
0.0454421
0.0516914
0.0574734
0.0628238
0.0677666
0.0723217
0.0764992
0.0803236
0.0838118
0.0869639
0.0897731
0.0922124
0.0942959
0.0959247
0.097314
0.0981048
0.0986558
0.0272421
0.0341307
0.0405433
0.0464712
0.0519485
0.0570068
0.0616685
0.0659474
0.0698596
0.0734275
0.0766628
0.0795647
0.0821327
0.0843531
0.0863437
0.0878935
0.0891148
0.0898699
0.0905081
0.0234506
0.0299385
0.0359785
0.0415575
0.0467074
0.0514569
0.0558235
0.0598203
0.0634697
0.0667881
0.0697831
0.0724532
0.0748019
0.0768262
0.0788158
0.0805182
0.0813344
0.0820219
0.0828224
0.0200354
0.0260922
0.0317317
0.0369375
0.0417398
0.0461639
0.0502216
0.0539338
0.0573219
0.0603963
0.0631623
0.0656174
0.0677673
0.0696131
0.0713497
0.0731233
0.0742382
0.0746324
0.075268
0.0169675
0.0225678
0.0277831
0.0325943
0.0370308
0.0411123
0.0448532
0.0482791
0.0514055
0.0542401
0.0567861
0.0590398
0.0610078
0.0626914
0.0641503
0.0658637
0.0670116
0.0676814
0.0679071
0.0142184
0.0193407
0.024111
0.0285091
0.032563
0.0362889
0.0397088
0.0428448
0.0457088
0.0483062
0.0506382
0.0527005
0.0544984
0.0560347
0.0573547
0.0585722
0.0600481
0.0606431
0.0605253
0.0117585
0.0163846
0.0206924
0.0246617
0.0283188
0.0316821
0.0347765
0.0376188
0.0402186
0.0425793
0.0447001
0.0465766
0.0482123
0.0496102
0.0508085
0.0517984
0.0530977
0.0538579
0.0534623
0.00955863
0.013674
0.0175047
0.0210328
0.0242832
0.0272793
0.0300433
0.0325879
0.0349203
0.037042
0.0389514
0.0406442
0.0421221
0.0433873
0.0444709
0.0453545
0.0461783
0.0469834
0.0468551
0.00758838
0.0111826
0.0145256
0.0176041
0.0204419
0.0230661
0.0254945
0.0277362
0.029796
0.0316744
0.0333695
0.034878
0.0361998
0.0373361
0.0383089
0.0390973
0.0397641
0.0402238
0.0404317
0.00582001
0.00888627
0.011734
0.0143575
0.0167823
0.0190258
0.0211129
0.0230448
0.0248249
0.0264536
0.0279298
0.0292511
0.0304162
0.0314252
0.0322906
0.0329944
0.0335852
0.0339493
0.0341716
0.00422817
0.00676186
0.0091093
0.0112741
0.0132801
0.0151435
0.016879
0.0184909
0.0199824
0.021354
0.0226052
0.0237345
0.0247405
0.0256217
0.0263826
0.0270075
0.0275292
0.0278533
0.0280555
0.00279077
0.00478871
0.00663203
0.0083343
0.00991597
0.0113901
0.0127661
0.0140489
0.0152431
0.0163498
0.0173695
0.0183016
0.0191445
0.0198953
0.020553
0.0211034
0.0215636
0.0218518
0.022052
0.00148652
0.00294484
0.0042804
0.00551476
0.00666421
0.00773942
0.0087479
0.00969519
0.0105857
0.0114222
0.012206
0.0129365
0.0136125
0.01423
0.0147845
0.0152608
0.0156637
0.0159343
0.0161196
0.000290645
0.00120423
0.00202799
0.00278804
0.0034974
0.00416595
0.00480095
0.00540826
0.0059925
0.0065568
0.00710305
0.0076307
0.00813831
0.00862139
0.00907303
0.00947737
0.00982981
0.0100766
0.0102564
-0.000815592
-0.000456565
-0.000154754
0.000118532
0.000376347
0.000628902
0.00088344
0.00114568
0.00142001
0.00170952
0.00201619
0.00233994
0.002679
0.00302877
0.003381
0.00371803
0.00402778
0.0042649
0.0044478
-0.00187309
-0.00210853
-0.00236554
-0.00260991
-0.00282921
-0.00301404
-0.00315827
-0.00325705
-0.00330655
-0.00330392
-0.00324699
-0.00313518
-0.002969
-0.00275226
-0.00249237
-0.00220863
-0.00191312
-0.00166317
-0.00140489
)
;

boundaryField
{
    leftWall
    {
        type            fixedFluxPressure;
        gradient        uniform 0;
        value           nonuniform List<scalar> 
50
(
6794.11
6790.39
6791.61
6797.06
6805.07
6813.07
6742.87
4319.53
1631.14
1200.65
913.366
797.675
744.819
819.168
903.312
968.379
1053.57
1159.77
1153.44
1100.51
1066.73
1076.64
1117.87
1169.58
1237.78
1371.75
679.65
152.324
113.96
2.36421
-0.644833
-0.514224
7.41135
12.1936
20.8879
184.132
205.526
212.956
63.2988
0.219997
0.192177
-0.0480983
-0.16226
-0.132872
-0.131638
-0.117764
-0.10241
-0.089565
-0.0710178
0.0034356
)
;
    }
    rightWall
    {
        type            fixedFluxPressure;
        gradient        uniform 0;
        value           nonuniform List<scalar> 
50
(
2388.44
2105.31
1441.17
1091.07
1077.95
1058.61
1064.58
1104.52
1093.89
1108.16
1169.08
968.666
614.47
264.537
6.9144
0.255143
0.313362
0.363277
0.339263
0.31724
0.292012
0.266557
0.245576
0.228463
0.213979
0.199592
0.181151
0.168985
0.15785
0.155695
0.149938
0.131169
0.116293
0.107303
0.0986558
0.0905081
0.0828224
0.075268
0.0679071
0.0605253
0.0534623
0.0468551
0.0404317
0.0341716
0.0280555
0.022052
0.0161196
0.0102564
0.0044478
-0.00140489
)
;
    }
    lowerWall
    {
        type            fixedFluxPressure;
        gradient        uniform 0;
        value           nonuniform List<scalar> 
62
(
6794.11
6748.34
6670.56
6569.86
6453.68
6329.29
6202.75
6077.96
5956.03
5837.08
5721.62
5610.89
5505.62
5407.34
5320.06
5250.14
5203.42
5183.13
5187.98
5210.9
5241.33
5265.98
5279.66
5279.66
5282.04
5287.3
5294.63
5298.19
3662.3
1529.73
1234.81
1090.36
1060.05
1056.64
1059.03
2958.54
2952.65
2376.93
1422.6
1418.2
1098.49
1065.64
1095.9
2958.54
2968.63
2998.35
3027.29
3053
3047.41
3028.21
3021.79
3021.79
2973.09
2923.88
2902.61
2939.57
3039.38
3023.49
2892.61
2712.14
2499.48
2388.44
)
;
    }
    atmosphere
    {
        type            totalPressure;
        rho             rho;
        psi             none;
        gamma           1;
        p0              uniform 0;
        value           nonuniform List<scalar> 
46
(
0
0
0
0
0
0
0
0
0
0
0
0
-6.90785e-05
-0.000289232
-0.000582301
-0.000862208
-0.00107188
-0.00119553
-0.00124283
-0.0012379
-0.00120918
-0.00119991
-0.00126999
-0.0013893
-0.0015491
-0.00174728
-0.00197613
-0.0024043
-0.00297995
-0.0035576
-0.00408951
-0.00456865
-0.00498978
-0.00534921
-0.00564316
-0.00586814
-0.00602129
-0.00609978
-0.00610248
-0.00602771
-0.00587607
-0.00565199
-0.00537461
-0.00505169
-0.00476096
-0.00429426
)
;
    }
    defaultFaces
    {
        type            empty;
    }
}


// ************************************************************************* //
