/*--------------------------------*- C++ -*----------------------------------*\
| =========                 |                                                 |
| \\      /  F ield         | OpenFOAM: The Open Source CFD Toolbox           |
|  \\    /   O peration     | Version:  2312                                  |
|   \\  /    A nd           | Website:  www.openfoam.com                      |
|    \\/     M anipulation  |                                                 |
\*---------------------------------------------------------------------------*/
FoamFile
{
    version     2.0;
    format      ascii;
    arch        "LSB;label=32;scalar=64";
    class       volScalarField;
    location    "5.15";
    object      alpha.air;
}
// * * * * * * * * * * * * * * * * * * * * * * * * * * * * * * * * * * * * * //

dimensions      [0 0 0 0 0 0 0];

internalField   nonuniform List<scalar> 
2268
(
9.88758e-10
9.64083e-10
9.13903e-10
8.91746e-10
7.55039e-10
4.46136e-10
2.42049e-10
1.41171e-10
1.19299e-10
1.25287e-10
1.42477e-10
1.59339e-10
1.74183e-10
1.86107e-10
2.1744e-10
2.8415e-10
3.30897e-10
3.10133e-10
2.34267e-10
2.34265e-10
1.62143e-07
5.58752e-07
6.29662e-07
1.23606e-09
1.19123e-09
1.93238e-09
2.91776e-09
3.22858e-09
3.08482e-09
8.88179e-10
6.20337e-10
6.58957e-10
6.5497e-10
6.26821e-10
6.45987e-10
7.46635e-10
9.01077e-10
8.02051e-10
8.00684e-10
1.23426e-09
1.31914e-09
4.43445e-10
6.07093e-09
3.95027e-07
6.29771e-07
6.06008e-07
1.86312e-09
1.80618e-09
1.83849e-09
5.28829e-09
1.22893e-08
1.29446e-08
1.18725e-08
3.75468e-09
1.71038e-09
1.5909e-09
1.39477e-09
1.59953e-09
4.95389e-09
3.18358e-08
1.0455e-07
7.15032e-10
7.16141e-10
1.92074e-09
2.6759e-09
3.46583e-08
5.53822e-08
6.78616e-08
5.27224e-08
1.44942e-09
1.44944e-09
1.55979e-09
2.18182e-09
4.57211e-09
6.18284e-09
5.08289e-09
3.00658e-09
1.19305e-09
1.17839e-09
1.18773e-09
1.17538e-09
1.18482e-09
2.48862e-07
2.04716e-06
7.34348e-06
7.23605e-10
7.25075e-10
8.86416e-10
3.37248e-09
7.94111e-09
1.44416e-08
2.7205e-08
1.44933e-09
1.44542e-09
1.44544e-09
1.44542e-09
1.5231e-09
1.47714e-09
1.46964e-09
6.13136e-08
6.74287e-06
2.69678e-05
4.30751e-05
1.87882e-05
1.87441e-07
3.79469e-08
3.80577e-08
5.96388e-05
0.000762824
0.00157981
0.00189771
0.00195892
0.00220297
0.00297751
0.00373617
0.00010237
0.000144121
0.000379062
0.000560271
0.000466072
0.000235739
6.50183e-05
8.94999e-07
4.30567e-05
0.000143883
0.000149393
0.000149273
4.30393e-05
3.79453e-08
3.79543e-08
4.24451e-06
0.00283482
0.00781812
0.00953926
0.00963355
0.00997139
0.00997138
0.0099714
0.00114233
0.00129456
0.00132779
0.00132781
0.00132778
0.00132781
0.00118005
0.000345947
4.23824e-05
8.82155e-05
0.000143041
0.000148039
9.2077e-05
8.55438e-06
3.41343e-05
4.75728e-06
0.000662912
0.00327974
0.00454263
0.00467924
0.00526876
0.00805234
0.0099714
0.000497487
0.000614587
0.00102721
0.00123362
0.00123957
0.000706459
0.000583332
0.000430893
0.000231856
0.000120163
0.000110884
0.000111653
0.000120252
0.000147434
0.000123858
8.71377e-05
6.25424e-05
6.02608e-05
3.54555e-05
3.54569e-05
3.60737e-05
3.52566e-05
0.00790096
0.000252408
0.000739582
0.00542933
0.00683099
0.00658856
0.00659677
0.00511151
0.00287156
0.00248453
0.00217423
0.0020769
0.0020771
0.00207681
0.00207718
0.00207716
0.00207753
0.00295641
0.00331121
0.0033349
0.000231221
0.000229568
0.000299908
0.00139209
0.00176957
0.00208191
0.00607717
0.00982002
0.00936648
0.00620057
0.00240135
0.0020768
0.0020769
0.00207685
0.00207723
0.00207829
0.00317448
0.00424662
0.00428645
0.00424255
0.0058796
0.01112
0.0148708
0.0161335
0.0175154
0.0148919
0.0163177
0.0167181
0.0140748
0.00805822
0.00673097
0.00482661
0.0028743
0.00269335
0.0044841
0.00590118
0.00596718
0.00429079
0.015046
0.0150503
0.0239581
0.0240736
0.0254751
0.0295887
0.0178826
0.0143032
0.018177
0.0379274
0.0403779
0.0275513
0.0149492
0.0168826
0.0163942
0.0242447
0.0195456
0.0058799
0.00586475
0.0115851
0.00468351
0.00782193
0.0130739
0.0108231
0.029603
0.0163557
0.0146712
0.0472584
0.0942154
0.0859004
0.0407175
0.0173068
0.0130383
0.0130371
0.0761567
0.0633891
0.0239488
0.0276005
0.00367176
0.00268282
0.00268295
0.00268184
0.00212435
0.00853607
0.0237825
0.0147447
0.0542224
0.0687657
0.113118
0.112956
0.0251922
0.0138561
0.0449659
0.0761627
0.0642172
0.079057
0.0336613
0.00387679
0.00430724
0.0035735
0.00196436
0.00174768
0.00166893
0.0238852
0.0237308
0.00479879
0.00360603
0.111121
0.068184
0.00807521
0.0146172
0.0638914
0.0338754
0.0206959
0.0790621
0.024879
0.00546884
0.0180358
0.0141518
0.00405113
0.00189181
0.00164277
0.0105522
0.0131496
0.00389816
0.00358964
0.0878592
0.00207152
0.00493555
0.0265735
0.0636647
0.0135554
0.0210046
0.0456321
0.0240213
0.000182468
0.00018246
0.000182469
0.000182967
0.000187498
0.000169511
0.00016925
0.000168869
0.000168436
0.000168184
0.000191823
0.000204701
0.000203408
0.000197624
0.000183514
0.000159085
0.00015542
0.000167907
0.000196543
0.000225416
0.000222811
8.08528e-05
0.000159733
0.0186435
0.00738857
0.000241086
0.000182777
0.000695801
0.00974542
0.0226585
0.0305785
0.0314215
0.0293232
0.0291182
0.0301288
0.0265064
0.015596
0.0118856
0.0141752
0.0194395
0.0209816
0.0203962
0.0239303
0.0241876
0.017981
0.00717719
0.0398085
0.0398057
0.037611
0.0159643
0.00108494
0.00110047
0.0240252
0.0753614
0.0763526
0.0763563
0.0763539
0.0763571
0.0763544
0.0507174
0.0378865
0.0558676
0.0583736
0.0582946
0.0561223
0.0454845
0.0455084
0.0464134
0.0452644
0.0285971
0.0164994
0.0208816
0.0213319
0.0189442
0.00211439
0.00175568
0.00174309
0.0588728
0.0763578
0.0763571
0.0763581
0.0553325
0.0189352
0.0124812
0.0231955
0.0466821
0.0410765
0.0121721
7.78675e-06
0.000209536
0.0277927
0.0451099
0.000210687
0.000210818
0.00109728
0.014638
0.00803127
0.000290779
0.00911916
0.073128
0.0755733
0.0759636
0.0218259
8.67046e-05
5.38425e-05
5.74767e-05
3.18724e-05
5.72487e-05
0.000135176
0.000111608
3.29861e-05
7.75129e-06
7.73045e-06
0.00738725
0.038631
0.000181853
0.000283264
0.000141962
0.000582859
0.000302846
0.000213739
0.000616082
0.00240637
0.0026023
5.94366e-06
6.61798e-06
4.19075e-05
0.000116251
0.000102556
2.75686e-05
3.89855e-06
3.86e-06
9.03777e-06
2.91957e-05
8.46038e-06
7.74117e-06
0.000227164
0.000927187
7.08046e-05
6.96517e-05
7.91529e-05
-3.07573e-19
-5.8305e-16
-6.21741e-07
1.93182e-09
9.6018e-05
0.000750018
0.00162257
0.00297875
0.00456184
0.00399611
0.00193249
0.000382293
4.42145e-06
3.85574e-06
3.81897e-06
3.81772e-06
3.82063e-06
1.37525e-05
4.20672e-08
9.33174e-05
0.299689
0.297248
0.293874
0.293247
0.305225
0.334555
0.380854
0.419183
0.451508
0.480469
0.509067
0.531907
0.527961
0.49067
0.405428
0.315715
0.229444
0.118082
0.0145047
0.0057082
1.70786e-05
3.46196e-08
-4.03319e-08
0.98364
0.983117
0.983707
0.984262
0.987364
0.995226
0.99697
0.996618
0.996783
0.997353
0.998021
0.998205
0.998109
0.998726
0.998243
0.977546
0.943096
0.876858
0.770722
0.622219
0.323832
0.0766582
0.0105411
1
1
0.999991
0.999985
1
1
1
1
1
1
1
0.999998
0.999997
0.999964
0.999794
0.999822
0.999945
0.999213
0.998252
0.995761
0.988024
0.869452
0.625643
1
1
1
1
1
1
1
1
0.999999
0.999999
0.999997
0.999984
0.99998
0.999989
0.999988
0.999983
0.999993
0.999993
0.999943
0.999944
0.999946
0.99996
0.991532
1
1
1
1
1
0.999999
0.999999
0.999998
0.999998
0.999988
0.999961
0.999957
0.999957
0.999971
0.999982
0.999974
0.999956
0.999963
0.999992
0.999999
0.999997
1
1
1
1
1
1
0.999999
0.999999
0.999999
0.999998
0.999997
0.999963
0.999959
0.999959
0.999965
0.999949
0.999946
0.999946
0.999946
0.999951
0.999992
1
1
1
1
1
1
1
1
1
1
1
0.999999
0.999997
0.999984
0.999974
0.999997
0.999998
0.999968
0.99995
0.99995
0.999974
0.999997
0.999999
1
1
1
1
1
1
1
1
1
1
1
1
1
1
1
1
1
0.999997
0.999983
0.99999
1
1
0.999998
0.99999
0.999989
0.999996
0.999994
1
1
1
1
1
1
1
1
1
1
1
1
1
1
1
1
1
0.999999
0.999988
0.999946
0.999943
0.999967
0.999984
1
1
1
1
1
1
1
1
1
1
1
1
1
1
1
1
1
0.999999
0.999984
0.999946
0.999943
0.999943
0.999969
1
1
1
1
1
1
1
1
1
1
1
1
1
1
1
1
1
1
1
0.999993
0.999958
0.999942
0.999944
1
1
1
1
1
1
1
1
1
1
1
1
1
1
1
1
1
1
1
1
0.999998
0.999969
0.999943
1
1
1
1
1
1
1
1
1
1
1
1
1
1
1
1
1
1
1
1
1
0.999997
0.999981
1
1
1
1
1
1
1
1
1
1
1
1
1
1
1
1
1
1
1
1
0.999999
0.999999
0.999999
1
1
1
1
1
1
1
1
1
1
1
1
1
1
1
1
1
1
1
1
1
0.999999
0.999999
1
1
1
1
1
1
1
1
1
1
1
1
1
1
1
1
1
1
1
1
1
1
0.999999
1
1
1
1
1
1
1
1
1
1
1
1
1
1
1
1
1
1
1
1
1
1
1
1
1
1
1
1
1
1
1
1
1
1
1
1
1
1
1
1
1
1
1
1
1
1
1
1
1
1
1
1
1
1
1
1
1
1
1
1
1
1
1
1
1
1
1
1
1
1
1
1
1
1
1
1
1
1
1
1
1
1
1
1
1
1
1
1
1
1
1
1
1
1
1
1
1
1
1
1
1
1
1
1
1
1
1
1
1
1
1
1
1
1
1
1
1
1
1
1
1
1
1
1
1
1
1
1
1
1
1
1
1
1
1
1
1
1
1
1
1
1
0.999999
1
1
1
1
1
1
1
1
1
1
1
1
1
1
1
1
1
1
1
1
1
0.999999
0.999999
1
1
1
1
1
1
1
1
1
1
1
1
1
1
1
1
1
1
1
1
1
0.999999
0.999999
1
1
1
1
1
1
1
1
1
1
1
1
1
1
1
1
1
1
1
1
0.999999
0.999999
1
1
1
1
1
1
1
1
1
1
1
1
1
1
1
1
1
1
1
1
1
0.999999
0.999999
1
1
1
1
1
1
1
1
1
1
1
1
1
1
1
1
1
1
1
1
1
0.999999
0.999999
1
1
1
1
1
1
1
1
1
1
1
1
1
1
1
1
1
1
1
1
1
0.999999
0.999999
1
1
1
1
1
1
1
1
1
1
1
1
1
1
1
1
1
1
1
1
1
0.999999
0.999999
1
1
1
1
1
1
1
1
1
1
1
1
1
1
1
1
1
1
1
1
1
0.999999
0.999999
1
1
1
1
1
1
1
1
1
1
1
1
1
1
1
1
1
1
1
1
1
0.999999
0.999999
1
1
1
1
1
1
1
1
1
1
1
1
1
1
1
1
1
1
1
1
1
0.999999
0.999999
1
1
1
1
1
1
1
1
1
1
1
1
1
1
1
1
1
1
1
1
1
0.999999
1
1
1
1
1
1
1
1
1
1
1
1
1
1
1
1
1
1
1
1
1
1
0.999999
1
1
1
1
1
1
1
1
1
1
1
1
1
1
1
1
1
1
1
1
0.000827826
0.000993985
0.00128757
0.00123092
0.00569755
0.00723681
0.00804537
0.00529925
0.0437215
0.0446061
0.0444265
0.0313467
0.0449484
0.0447804
0.0378762
0.00414582
0.0331463
0.0150369
0.00023402
8.76518e-05
0.00107368
0.000804208
0.000381277
9.55137e-05
0.00027631
0.000444366
0.000366479
0.00022544
-6.49247e-09
-2.51826e-10
-3.11316e-12
0.000265248
2.85971e-19
-5.37607e-20
4.13641e-20
3.64575e-05
0.369715
0.229888
0.211217
0.192404
0.984195
0.980224
0.954963
0.932208
1
0.999999
0.999507
0.989928
0.999999
0.999999
0.999999
0.999999
0.999999
0.999999
1
1
0.999992
0.999998
0.999999
1
1
0.999999
1
1
0.999988
0.999954
0.999956
0.999992
0.999952
0.999954
0.999954
0.999954
0.99997
0.999998
0.999998
0.999982
0.999991
1
1
1
1
1
1
1
1
1
1
1
1
1
1
1
1
1
1
1
1
1
1
1
1
1
1
1
1
1
1
1
1
1
1
1
1
1
1
1
1
1
1
1
1
1
1
1
1
1
1
1
1
1
1
1
1
1
1
1
1
1
1
1
1
1
1
1
1
1
1
1
1
1
1
1
1
1
1
1
1
1
1
1
1
1
1
1
1
1
1
1
0.0012138
0.0236708
0.0175086
0.00333558
0.00246187
0.00165418
0.00277954
0.00228892
0.00317316
0.0190717
0.0742419
0.00164979
0.00676207
0.0309985
0.0345552
0.0124517
0.0271045
0.0272955
0.0574593
0.00466157
0.0232426
0.0185506
0.033599
0.00878953
0.00232368
0.00228908
0.00228995
0.0233509
0.0934388
0.0487791
0.00135153
0.00143437
0.00969457
0.0120977
0.0212545
0.0235093
0.0410739
0.0652174
0.00196136
0.00853444
0.141804
0.158636
0.156604
0.0965472
0.0525591
0.0158457
0.0544006
0.099856
0.0918266
0.000144238
0.000174673
0.00280601
0.00365202
0.00102679
0.012685
0.0292171
0.037471
0.000631885
0.116455
0.165384
0.129373
0.129683
0.0825681
0.0460783
0.0126514
0.0377969
0.0999022
0.099856
0.018701
8.95666e-05
0.00011416
0.000116994
0.000365817
2.57972e-11
2.57972e-11
2.57972e-11
0.0213877
0.136407
0.0998956
0.0111986
0.012622
0.00725061
0.00467581
0.00140983
0.00462544
0.0498927
0.0746376
0.0179269
8.83966e-05
0.000668327
0.000140928
0.000150968
0.000383506
0.000645334
2.57972e-11
0.0107235
0.102835
0.0169625
0.000798741
0.00107842
0.00107922
0.00122939
0.00116154
0.00116206
0.00119333
0.00180594
0.00182438
0.00167472
0.0015382
0.00114187
0.00150732
0.00519614
0.0330454
0.162229
0.00379992
0.0047281
0.000860501
0.000410547
0.000893523
0.00158029
0.00116357
0.00116206
0.0384332
0.0697784
0.0750156
0.0994555
0.187247
0.279289
0.380409
0.429963
0.511585
0.656441
0.697925
0.000759148
0.000401499
0.000419535
0.000404142
0.000405411
0.078559
0.291506
0.555007
0.758862
0.830103
0.882936
0.931076
0.978019
0.995356
0.995269
0.994633
0.994491
0.993191
0.991553
0.000435165
0.000399099
0.0249138
0.158086
0.410042
0.725434
0.940483
0.997606
0.999147
0.999732
0.99992
0.999999
0.999999
0.999974
0.999903
0.999665
0.9998
0.999961
0.999954
0.109108
0.0970055
0.259588
0.707933
0.968433
0.999792
0.999915
0.999927
0.999794
0.999832
0.999973
0.999997
0.999996
0.999923
0.99988
0.999921
0.99996
0.999961
0.999909
0.915583
0.909076
0.919413
0.973561
0.996548
0.999383
0.999932
0.99979
0.999758
0.999757
0.999801
0.999985
1
0.999922
0.999877
0.999877
0.999926
0.999909
0.999895
0.979787
0.979722
0.991386
0.999834
0.999999
0.999889
0.99993
0.999757
0.999757
0.999757
0.999837
0.999995
1
0.999957
0.999877
0.999932
0.999949
0.999971
0.999899
1
1
0.999516
0.999924
1
1
0.999967
0.999854
0.99986
0.999923
0.999988
1
1
1
0.999923
0.999952
0.999953
0.99997
0.999978
1
0.999999
0.999998
0.999995
1
1
0.999996
0.999966
0.999961
0.999997
0.999997
0.999976
0.999948
0.999974
0.999974
0.999957
0.999954
0.999982
0.999992
0.999999
0.999994
0.999992
0.999995
1
1
0.999996
0.999965
0.999944
0.999963
0.999923
0.99991
0.99991
0.999938
0.999974
0.999958
0.999977
0.999992
0.999992
1
0.999996
0.999993
0.999998
1
0.999983
0.999987
0.999977
0.999942
0.999937
0.999936
0.99994
0.999934
0.999959
0.999965
0.999962
0.999977
0.999991
0.999989
0.999999
0.999999
0.999999
0.999996
0.999972
0.999958
0.999964
0.999973
0.999969
0.999966
0.999962
0.999958
0.999961
0.999961
0.999973
0.999993
0.999979
0.999989
0.999989
0.999966
0.999999
0.999999
0.999996
0.999937
0.999946
0.999953
0.999954
0.999953
0.999953
0.999953
0.999953
0.999954
0.999968
0.999991
0.999994
0.999981
0.999981
0.999997
0.999969
0.99995
0.999948
0.999933
0.999936
0.999962
0.999955
0.999956
0.999972
0.999974
0.999974
0.999973
0.999961
0.999962
0.999964
0.999986
0.999985
0.999982
0.999998
0.999992
0.999927
0.999916
0.999916
0.999972
0.999987
0.999974
0.999979
0.999981
0.999983
0.999995
0.999998
0.999998
0.999979
0.999964
0.999964
0.999986
0.999984
0.999997
1
0.999978
0.999936
0.99994
0.999999
0.999998
0.999993
0.999988
0.999987
0.999988
0.999996
1
1
1
0.999991
0.999971
0.999988
0.999993
0.999997
1
1
0.999998
0.999997
1
1
0.999998
0.999995
0.999995
0.999997
0.999999
1
1
1
1
0.999999
0.999999
0.999998
0.999997
1
1
1
1
1
1
1
1
1
1
1
1
1
1
1
1
1
0.999998
0.999998
1
1
1
1
1
1
1
1
1
1
1
1
1
1
1
1
1
0.999998
0.999998
1
1
1
1
1
1
1
1
1
1
1
1
1
1
1
1
0.999999
0.999998
0.999999
1
1
1
1
1
1
1
1
1
1
1
1
1
1
1
1
0.999999
0.999998
0.999999
1
1
1
1
1
1
1
1
1
1
1
1
1
1
1
1
1
1
1
1
1
1
1
1
1
1
1
1
1
1
1
1
1
1
1
1
1
1
1
1
1
1
1
1
1
1
1
1
1
1
1
1
1
1
1
1
1
1
1
1
1
1
1
1
1
1
1
1
1
1
1
1
1
1
1
1
1
1
1
1
1
1
1
1
1
1
1
1
1
1
1
1
1
1
1
1
1
1
1
1
1
1
1
1
1
1
1
1
1
1
1
1
1
1
1
1
1
1
1
1
1
1
1
1
1
1
1
1
1
1
1
1
1
1
1
1
1
1
1
1
1
1
1
1
1
1
1
1
1
1
1
1
1
1
1
1
1
1
1
1
1
1
1
0.999999
0.999998
0.999999
1
1
1
1
0.999999
1
1
1
1
1
1
1
1
1
1
1
0.999999
0.999994
0.999994
1
1
1
0.999999
0.999997
1
1
1
1
1
1
1
1
1
1
1
1
0.999996
0.999994
0.999995
1
1
1
0.999997
1
1
1
1
1
1
1
1
1
1
1
1
0.999999
0.999994
0.999994
0.999997
1
1
0.999997
1
1
1
1
1
1
1
1
1
1
1
1
1
0.999999
0.999994
0.999994
0.999999
1
0.999998
1
1
1
1
1
1
1
1
1
1
1
1
1
1
0.999998
0.999994
0.999994
0.999999
0.999998
1
1
1
1
1
1
1
1
1
1
1
1
1
1
1
0.999998
0.999996
0.999998
0.999998
1
1
1
1
1
1
1
1
1
1
1
1
1
1
1
1
1
0.999999
1
)
;

boundaryField
{
    leftWall
    {
        type            alphaContactAngle;
        thetaProperties 
6
(
(galistan air) 90 0 0 0
(oil galistan) 90 0 0 0
(water oil) 90 0 0 0
(water air) 90 0 0 0
(oil air) 90 0 0 0
(water galistan) 90 0 0 0
);
        value           nonuniform List<scalar> 
50
(
9.88758e-10
1.23606e-09
1.86312e-09
1.44942e-09
1.44933e-09
0.00010237
0.00114233
0.000497487
0.000182468
0.0186435
0.0398085
0.0285971
0.000210687
0.000181853
7.08046e-05
0.299689
0.98364
1
1
1
1
1
1
1
1
1
1
1
1
1
1
1
1
1
1
1
1
1
1
1
1
1
1
1
1
1
1
1
1
1
)
;
    }
    rightWall
    {
        type            alphaContactAngle;
        thetaProperties 
6
(
(galistan air) 90 0 0 0
(oil galistan) 90 0 0 0
(water oil) 90 0 0 0
(water air) 90 0 0 0
(oil air) 90 0 0 0
(water galistan) 90 0 0 0
);
        value           nonuniform List<scalar> 
50
(
0.0033349
0.00428645
0.00429079
0.00586475
0.0276005
0.0336613
0.024879
0.0240213
0.0574593
0.0652174
0.037471
2.57972e-11
2.57972e-11
0.162229
0.697925
0.991553
0.999954
0.999909
0.999895
0.999899
0.999978
0.999992
0.999992
0.999989
0.999989
0.999997
0.999998
0.999997
0.999997
0.999997
0.999998
0.999998
0.999999
0.999999
1
1
1
1
1
1
1
1
0.999999
0.999997
0.999997
0.999997
0.999998
0.999998
0.999998
1
)
;
    }
    lowerWall
    {
        type            alphaContactAngle;
        thetaProperties 
6
(
(galistan air) 90 0 0 0
(oil galistan) 90 0 0 0
(water oil) 90 0 0 0
(water air) 90 0 0 0
(oil air) 90 0 0 0
(water galistan) 90 0 0 0
);
        value           nonuniform List<scalar> 
62
(
9.88758e-10
9.64083e-10
9.13903e-10
8.91746e-10
7.55039e-10
4.46136e-10
2.42049e-10
1.41171e-10
1.19299e-10
1.25287e-10
1.42477e-10
1.59339e-10
1.74183e-10
1.86107e-10
2.1744e-10
2.8415e-10
3.30897e-10
3.10133e-10
2.34267e-10
2.34265e-10
1.62143e-07
5.58752e-07
6.29662e-07
6.29662e-07
6.06008e-07
5.27224e-08
2.7205e-08
0.00373617
0.0099714
0.0099714
0.00790096
0.000827826
0.000993985
0.00128757
0.00123092
0.000252408
0.000231221
0.00424255
0.015046
0.0115851
0.00367176
0.00387679
0.00546884
0.000252408
0.000739582
0.00542933
0.00683099
0.00658856
0.00659677
0.00511151
0.00287156
0.00248453
0.00217423
0.0020769
0.0020771
0.00207681
0.00207718
0.00207716
0.00207753
0.00295641
0.00331121
0.0033349
)
;
    }
    atmosphere
    {
        type            inletOutlet;
        inletValue      uniform 1;
        value           nonuniform List<scalar> 
46
(
1
1
0.999999
1
1
1
1
1
1
1
1
1
1
1
1
1
1
1
1
1
1
1
1
1
1
1
1
1
1
1
1
1
1
1
1
1
1
1
1
1
1
1
1
1
0.999999
1
)
;
    }
    defaultFaces
    {
        type            empty;
    }
}


// ************************************************************************* //
