/*--------------------------------*- C++ -*----------------------------------*\
| =========                 |                                                 |
| \\      /  F ield         | OpenFOAM: The Open Source CFD Toolbox           |
|  \\    /   O peration     | Version:  2312                                  |
|   \\  /    A nd           | Website:  www.openfoam.com                      |
|    \\/     M anipulation  |                                                 |
\*---------------------------------------------------------------------------*/
FoamFile
{
    version     2.0;
    format      ascii;
    arch        "LSB;label=32;scalar=64";
    class       volScalarField;
    location    "5.15";
    object      alphas;
}
// * * * * * * * * * * * * * * * * * * * * * * * * * * * * * * * * * * * * * //

dimensions      [0 0 0 0 0 0 0];

internalField   nonuniform List<scalar> 
2268
(
2
2
2
2
2
2
2
2
2
2
2
2
2
2
2
2
2
2
2
1.99999
1.99996
1.99996
1.99996
2
2
2
2
2
2
2
2
2
2
2
2
2
2
2
2
2
2
2
2
1.99999
1.99998
1.99999
2
2
2
2
2
2
2
2
2
2
2
2
2
2
2
2
2
2
2
2
2
2
2
2
2
2
2
2
2
2
2
2
2
2
2
2
2
1.99999
2.00001
2
2
2
2
2
2
2
2
2
2
2
2
2
2
2
1.99998
1.99999
1.99999
1.99985
1.99973
1.99986
1.99985
1.99677
1.98947
1.98263
1.9812
1.9843
1.98347
1.98728
1.99433
1.99929
1.99889
1.99865
1.9993
2.00042
2.00024
2.00003
1.99648
1.92813
1.82427
1.71048
1.5938
1.4812
1.37189
1.26508
1.17244
1.16779
1.1683
1.13892
1.12055
1.12356
1.10906
1.01542
1.77755
1.75579
1.71627
1.64952
1.53821
1.36055
1.11052
0.820594
0.564616
0.377283
0.240921
0.143228
0.0758843
0.0296638
0.000313902
0.00599938
0.0362053
0.075867
0.0939772
0.0884245
0.0821595
0.0931025
0.0909524
0.351631
0.323931
0.284252
0.227378
0.154148
0.0785179
0.0249482
0.00160685
0.000780984
0.000476644
0.000449951
0.000451122
0.000468082
0.000522448
0.00047574
0.000410728
0.000372841
0.000359444
0.000621734
0.00247508
0.000292875
0.000291134
0.0798622
1.95079
1.95656
1.97049
1.97361
1.97038
1.96773
1.96361
1.96007
1.9591
1.95822
1.95768
1.95768
1.95996
1.96415
1.96561
1.96602
1.96792
1.96932
1.96935
1.95895
1.93597
1.93132
1.93732
1.94006
1.93821
1.94019
1.9449
1.94261
1.943
1.94379
1.94969
1.95362
1.95427
1.96309
1.97256
1.97446
1.97625
1.97545
1.49801
1.45697
1.4032
1.32641
1.25246
1.20715
1.18225
1.19087
1.2293
1.2393
1.29077
1.44562
1.56101
1.60005
1.59456
1.59236
1.66918
1.83914
1.89859
0.360925
0.194212
0.231499
0.245109
0.171915
0.15075
0.109359
0.100426
0.119295
0.157915
0.166375
0.16758
0.274393
0.552571
1.00087
1.26942
1.49027
1.53864
1.6184
0.27039
0.0226408
0.027148
0.0429128
0.0362412
0.0922038
0.0595289
0.058526
0.159742
0.319153
0.282371
0.136669
0.0625769
0.055831
0.451396
0.578061
0.557956
0.60207
1.02832
0.105711
0.0322974
0.014149
0.0140162
0.0128856
0.0288667
0.0767231
0.0600269
0.195263
0.280466
0.419287
0.375799
0.0852299
0.0552962
0.392666
0.290149
0.250036
0.279101
0.496588
0.036825
0.0403658
0.0221075
0.015589
0.0229599
0.0151701
0.076587
0.078609
0.0345231
0.0957299
0.544543
0.270803
0.0430921
0.0539655
0.274056
0.134047
0.0970664
0.29063
0.436704
0.0476373
0.0800365
0.0665343
0.0209258
0.0145147
0.0316147
0.0560941
0.0512742
0.0323713
0.0921854
0.492939
0.126269
0.17059
0.0888886
0.205001
0.118191
0.0973777
0.172921
0.193495
0.00077512
0.000726469
0.000704374
0.000692516
0.000644543
0.00060815
0.000595503
0.000592499
0.000610052
0.00060165
0.000625116
0.00063716
0.000634567
0.00062541
0.000606209
0.00057385
0.000580716
0.000599361
0.000631153
0.000676967
0.000670839
0.000430077
0.00518902
0.0563643
0.0222683
0.000901669
0.00104427
0.0037151
0.0322468
0.0707353
0.0938626
0.0945679
0.0887032
0.0905065
0.0950707
0.0834609
0.0519711
0.0440142
0.055245
0.0699098
0.070143
0.0697295
0.0856092
0.0840108
0.0597565
0.0249857
0.424688
0.469927
0.489492
0.522064
0.614512
0.656062
0.678144
0.711322
0.620801
0.639184
0.696564
0.720638
0.720397
0.667092
0.658215
0.736191
0.730242
0.701717
0.720249
0.737655
0.700625
0.572737
0.401127
1.04059
1.02476
1.03445
1.03946
1.03808
1.0058
1.0057
1.00573
1.11861
1.15327
1.15383
1.15387
1.11172
1.03807
1.02518
1.04755
1.09636
1.08501
1.0274
1.00517
1.00604
1.06121
1.06474
1.00046
1.0006
1.00237
1.02929
1.01603
1.00054
1.01825
1.14638
1.1516
1.15261
1.04433
1.00046
1.00027
1.00024
1.00008
1.00009
1.00024
1.00029
1.00017
1.00022
1.00108
1.01594
1.07837
1.00042
1.00059
1.00026
1.00111
1.00055
1.00031
1.0012
1.00492
1.00555
1.00024
1.00008
1.0001
1.00023
1.00011
0.999741
0.999539
0.999715
0.999903
0.999938
0.997568
0.998718
1.00021
1.002
1.00031
1.00006
1.0001
0.999795
0.999444
0.998977
0.998543
0.998937
1.00053
1.00251
1.00534
1.00867
1.00776
1.00384
1.00069
0.996758
0.991842
0.995751
0.999842
0.997892
0.992165
0.997676
1.00029
1.59956
1.59464
1.58797
1.58664
1.60979
1.66488
1.75783
1.8345
1.89915
1.95716
2.01503
2.06172
2.05471
1.98161
1.8108
1.62915
1.44588
1.22323
1.02238
1.00896
0.989077
0.988
0.998237
2.96736
2.96628
2.96762
2.96872
2.97469
2.98927
2.99147
2.99073
2.99123
2.99275
2.99471
2.99537
2.99517
2.99686
2.99634
2.95493
2.88411
2.74304
2.53074
2.23436
1.63056
1.13495
1.00642
3
3
2.99997
2.99995
3
3
3
3
3
3
3
3
2.99999
2.9999
2.99941
2.99948
2.99984
2.998
2.99564
2.98745
2.96698
2.72134
2.23291
3
3
3
3
3
3
3
3
3
3
2.99999
2.99997
2.99996
2.99998
2.99997
2.99995
2.99998
2.99999
2.99994
2.99994
2.99995
2.99996
2.9746
3
3
3
3
3
3
3
3
2.99999
2.99998
2.99992
2.99991
2.99991
2.99994
2.99996
2.99994
2.9999
2.99992
2.99998
3
3
3
3
3
3
3
3
3
3
3
2.99999
2.99999
2.99992
2.99992
2.99992
2.99993
2.99988
2.99988
2.99988
2.99988
2.99989
2.99998
3
3
3
3
3
3
3
3
3
3
3
3
2.99999
2.99997
2.99995
2.99999
2.99999
2.99992
2.99988
2.99988
2.99993
2.99999
3
3
3
3
3
3
3
3
3
3
3
3
3
3
3
3
3
3
2.99999
2.99995
2.99997
3
3
3
2.99998
2.99997
2.99999
2.99999
3
3
3
3
3
3
3
3
3
3
3
3
3
3
3
3
3
3
2.99997
2.99986
2.99985
2.99992
2.99997
3
3
3
3
3
3
3
3
3
3
3
3
3
3
3
3
3
3
2.99997
2.99986
2.99985
2.99985
2.99993
3
3
3
3
3
3
3
3
3
3
3
3
3
3
3
3
3
3
3
2.99999
2.9999
2.99985
2.99985
3
3
3
3
3
3
3
3
3
3
3
3
3
3
3
3
3
3
3
3
3
2.99992
2.99985
3
3
3
3
3
3
3
3
3
3
3
3
3
3
3
3
3
3
3
3
3
2.99999
2.99995
3
3
3
3
3
3
3
3
3
3
3
3
3
3
3
3
3
3
3
3
3
3
3
3
3
3
3
3
3
3
3
3
3
3
3
3
3
3
3
3
3
3
3
3
3
3
3
3
3
3
3
3
3
3
3
3
3
3
3
3
3
3
3
3
3
3
3
3
3
3
3
3
3
3
3
3
3
3
3
3
3
3
3
3
3
3
3
3
3
3
3
3
3
3
3
3
3
3
3
3
3
3
3
3
3
3
3
3
3
3
3
3
3
3
3
3
3
3
3
3
3
3
3
3
3
3
3
3
3
3
3
3
3
3
3
3
3
3
3
3
3
3
3
3
3
3
3
3
3
3
3
3
3
3
3
3
3
3
3
3
3
3
3
3
3
3
3
3
3
3
3
3
3
3
3
3
3
3
3
3
3
3
3
3
3
3
3
3
3
3
3
3
3
3
3
3
3
3
3
3
3
3
3
3
3
3
3
3
3
3
3
3
3
3
3
3
3
3
3
3
3
3
3
3
3
3
3
3
3
3
3
3
3
3
3
3
3
3
3
3
3
3
3
3
3
3
3
3
3
3
3
3
3
3
3
3
3
3
3
3
3
3
3
3
3
3
3
3
3
3
3
3
3
3
3
3
3
3
3
3
3
3
3
3
3
3
3
3
3
3
3
3
3
3
3
3
3
3
3
3
3
3
3
3
3
3
3
3
3
3
3
3
3
3
3
3
3
3
3
3
3
3
3
3
3
3
3
3
3
3
3
3
3
3
3
3
3
3
3
3
3
3
3
3
3
3
3
3
3
3
3
3
3
3
3
3
3
3
3
3
3
3
3
3
3
3
3
3
3
3
3
3
3
3
3
3
3
3
3
3
3
3
3
3
3
3
3
3
3
3
3
3
3
3
3
3
3
3
3
3
3
3
3
3
3
3
3
3
3
3
3
3
3
3
3
3
3
3
3
3
3
3
3
3
3
3
3
3
3
3
3
3
3
3
3
3
3
3
3
3
3
3
3
3
3
3
3
3
3
3
3
3
3
3
3
3
3
3
3
3
3
3
3
3
3
3
3
3
3
3
3
3
3
3
3
3
3
3
3
3
3
3
3
3
3
3
3
3
3
3
3
3
3
3
3
3
3
3
3
3
3
3
3
3
3
3
0.00745185
0.0070237
0.00658435
0.00646155
0.019154
0.0238356
0.0264312
0.017059
0.281473
0.202603
0.150474
0.09552
0.947196
0.669729
0.526705
0.540805
1.067
1.0303
0.999555
0.999081
1.00232
1.00178
1.00092
1.00064
1.00047
1.00093
1.00094
1.00095
1.00016
0.999891
0.999825
1.00043
0.996016
0.999807
0.999888
1.00027
1.72223
1.44256
1.40771
1.38505
2.95258
2.94251
2.89088
2.84675
3
3
2.99852
2.96978
3
3
3
3
3
3
3
3
2.99998
3
3
3
3
3
3
3
2.99997
2.99987
2.99988
2.99998
2.99987
2.99987
2.99987
2.99988
2.99992
3
2.99999
2.99995
2.99998
3
3
3
3
3
3
3
3
3
3
3
3
3
3
3
3
3
3
3
3
3
3
3
3
3
3
3
3
3
3
3
3
3
3
3
3
3
3
3
3
3
3
3
3
3
3
3
3
3
3
3
3
3
3
3
3
3
3
3
3
3
3
3
3
3
3
3
3
3
3
3
3
3
3
3
3
3
3
3
3
3
3
3
3
3
3
3
3
3
3
3
0.00847631
0.0954615
0.0765913
0.021603
0.0163716
0.0498112
0.0541854
0.031524
0.0311801
0.156878
0.439834
0.15511
0.30751
0.318408
0.215414
0.078862
0.109045
0.109396
0.205375
0.0151644
0.0862474
0.118623
0.153132
0.0520709
0.0318956
0.031081
0.0310228
0.11278
0.478168
0.325931
0.128007
0.185117
0.319275
0.191249
0.0990985
0.104055
0.152378
0.231301
0.100129
0.486977
0.76494
0.632905
0.501484
0.33067
0.229932
0.211008
0.876006
0.988585
0.9728
0.667325
0.361166
0.308657
0.302402
0.533129
0.580839
0.558742
0.566236
0.898668
1.13787
1.19875
1.0737
0.887852
0.877947
0.841277
0.884714
1.09878
1.223
1.22291
1.0496
0.95499
0.919338
0.939289
1.00418
1.00536
1.00576
1.00643
1.05047
1.2671
1.18635
1.02296
1.02564
1.01646
1.0115
1.00659
1.01553
1.11071
1.15698
1.03689
1.00057
1.00161
1.00137
1.00148
1.0017
1.0021
1.00253
1.02403
1.20085
1.02018
1.00122
1.00242
1.00288
1.00301
1.00265
1.0026
1.00275
1.00376
1.00378
1.00335
1.00295
1.0021
1.00244
1.00971
1.06557
1.32903
1.00777
0.985085
0.937742
0.993666
1.00099
1.00331
1.00293
1.00465
1.07993
1.14026
1.14917
1.19826
1.37444
1.55889
1.76106
1.85974
2.02299
2.31678
2.40043
1.00161
0.967968
0.935784
0.972144
0.999107
1.15711
1.58554
2.11337
2.52109
2.66253
2.76735
2.86354
2.95752
2.99169
2.99153
2.98972
2.99144
2.9911
2.98892
1.00096
0.991594
0.985876
1.25416
1.81411
2.45099
2.88229
2.9967
2.99915
2.9997
2.99982
3
3
2.99995
2.99984
2.99944
2.99978
2.99994
2.99991
1.21947
1.19349
1.50033
2.3678
2.92019
2.99974
2.99988
2.99987
2.99959
2.99966
2.99994
2.99999
2.99999
2.99984
2.99976
2.99984
2.99992
2.99992
2.99982
2.81405
2.80105
2.82831
2.94403
2.98984
2.99825
2.99985
2.99958
2.99951
2.9995
2.9996
2.99997
3
2.99984
2.99975
2.99975
2.99982
2.99981
2.99979
2.93936
2.93917
2.97462
2.99983
3
2.99967
2.99985
2.9995
2.9995
2.9995
2.99967
2.99999
3
2.99991
2.99975
2.99983
2.99986
2.99992
2.9998
3
3
2.99867
2.99986
3
3
2.99993
2.99969
2.9997
2.99984
2.99997
3
3
3
2.99984
2.99986
2.99987
2.99992
2.99995
3
3
3
2.99998
3
3
2.99999
2.99991
2.99991
2.99999
2.99999
2.99995
2.9999
2.99995
2.99995
2.99988
2.99987
2.99995
2.99998
3
2.99998
2.99998
2.99999
3
3
2.99999
2.9999
2.99987
2.99992
2.99984
2.99982
2.99982
2.99988
2.99995
2.99988
2.99994
2.99999
2.99998
3
2.99999
2.99998
2.99999
3
2.99997
2.99997
2.99994
2.99988
2.99987
2.99987
2.99988
2.99987
2.99992
2.99991
2.99989
2.99995
2.99998
2.99998
3
3
3
2.99999
2.99994
2.99991
2.9999
2.99993
2.99994
2.99993
2.99991
2.99989
2.9999
2.9999
2.99993
2.99999
2.99996
2.99998
2.99998
2.99991
3
3
2.99999
2.99987
2.99987
2.99986
2.99987
2.99987
2.99987
2.99987
2.99987
2.99989
2.99993
2.99998
2.99999
2.99996
2.99996
3
2.99992
2.99988
2.99988
2.99987
2.99987
2.99989
2.99987
2.99987
2.99992
2.99993
2.99993
2.99993
2.99992
2.99992
2.99993
2.99997
2.99997
2.99996
3
2.99998
2.99983
2.99981
2.99982
2.99995
2.99997
2.99993
2.99994
2.99996
2.99996
2.99999
3
3
2.99996
2.99993
2.99993
2.99997
2.99997
2.99999
3
2.99995
2.99986
2.99987
3
3
2.99999
2.99998
2.99997
2.99998
2.99999
3
3
3
2.99998
2.99994
2.99997
2.99999
2.99999
3
3
3
2.99999
3
3
3
2.99999
2.99999
2.99999
3
3
3
3
3
3
3
3
2.99999
3
3
3
3
3
3
3
3
3
3
3
3
3
3
3
3
3
3
3
3
3
3
3
3
3
3
3
3
3
3
3
3
3
3
3
3
3
3
3
3
3
3
3
3
3
3
3
3
3
3
3
3
3
3
3
3
3
3
3
3
3
3
3
3
3
3
3
3
3
3
3
3
3
3
3
3
3
3
3
3
3
3
3
3
3
3
3
3
3
3
3
3
3
3
3
3
3
3
3
3
3
3
3
3
3
3
3
3
3
3
3
3
3
3
3
3
3
3
3
3
3
3
3
3
3
3
3
3
3
3
3
3
3
3
3
3
3
3
3
3
3
3
3
3
3
3
3
3
3
3
3
3
3
3
3
3
3
3
3
3
3
3
3
3
3
3
3
3
3
3
3
3
3
3
3
3
3
3
3
3
3
3
3
3
3
3
3
3
3
3
3
3
3
3
3
3
3
3
3
3
3
3
3
3
3
3
3
3
3
3
3
3
3
3
3
3
3
3
3
3
3
3
3
3
3
3
3
3
3
3
3
3
3
3
3
3
3
3
3
3
3
3
3
3
3
3
3
3
3
3
3
3
3
3
3
3
3
3
3
2.99999
2.99999
3
3
3
3
2.99999
3
3
3
3
3
3
3
3
3
3
3
3
2.99999
2.99999
2.99999
3
3
3
2.99999
3
3
3
3
3
3
3
3
3
3
3
3
3
2.99999
2.99999
2.99999
3
3
2.99999
3
3
3
3
3
3
3
3
3
3
3
3
3
3
2.99999
2.99999
3
3
2.99999
3
3
3
3
3
3
3
3
3
3
3
3
3
3
3
2.99999
2.99999
3
3
3
3
3
3
3
3
3
3
3
3
3
3
3
3
3
3
2.99999
3
3
3
3
3
3
3
3
3
3
3
3
3
3
3
3
3
3
3
3
3
)
;

boundaryField
{
    leftWall
    {
        type            calculated;
        value           nonuniform List<scalar> 
50
(
2
2
2
2
2
1.99929
1.77755
0.351631
0.00077512
0.0563643
0.424688
1.04059
1.00046
1.00042
1.00031
1.59956
2.96736
3
3
3
3
3
3
3
3
3
3
3
3
3
3
3
3
3
3
3
3
3
3
3
3
3
3
3
3
3
3
3
3
3
)
;
    }
    rightWall
    {
        type            calculated;
        value           nonuniform List<scalar> 
50
(
1.96935
1.97545
1.89859
1.6184
1.02832
0.496588
0.436704
0.193495
0.205375
0.231301
0.566236
1.00643
1.00253
1.32903
2.40043
2.98892
2.99991
2.99982
2.99979
2.9998
2.99995
2.99998
2.99998
2.99998
2.99998
3
3
2.99999
2.99999
2.99999
3
3
3
3
3
3
3
3
3
3
3
3
3
2.99999
2.99999
2.99999
2.99999
3
3
3
)
;
    }
    lowerWall
    {
        type            calculated;
        value           nonuniform List<scalar> 
62
(
2
2
2
2
2
2
2
2
2
2
2
2
2
2
2
2
2
2
2
1.99999
1.99996
1.99996
1.99996
1.99996
1.99999
2
2
1.99433
1.01542
0.0909524
0.0798622
0.00745185
0.0070237
0.00658435
0.00646155
1.95079
1.95895
1.49801
0.360925
0.27039
0.105711
0.036825
0.0476373
1.95079
1.95656
1.97049
1.97361
1.97038
1.96773
1.96361
1.96007
1.9591
1.95822
1.95768
1.95768
1.95996
1.96415
1.96561
1.96602
1.96792
1.96932
1.96935
)
;
    }
    atmosphere
    {
        type            calculated;
        value           nonuniform List<scalar> 
46
(
3
3
3
3
3
3
3
3
3
3
3
3
3
3
3
3
3
3
3
3
3
3
3
3
3
3
3
3
3
3
3
3
3
3
3
3
3
3
3
3
3
3
3
3
3
3
)
;
    }
    defaultFaces
    {
        type            empty;
    }
}


// ************************************************************************* //
