/*--------------------------------*- C++ -*----------------------------------*\
| =========                 |                                                 |
| \\      /  F ield         | OpenFOAM: The Open Source CFD Toolbox           |
|  \\    /   O peration     | Version:  2312                                  |
|   \\  /    A nd           | Website:  www.openfoam.com                      |
|    \\/     M anipulation  |                                                 |
\*---------------------------------------------------------------------------*/
FoamFile
{
    version     2.0;
    format      ascii;
    arch        "LSB;label=32;scalar=64";
    class       surfaceScalarField;
    location    "5.15";
    object      phi;
}
// * * * * * * * * * * * * * * * * * * * * * * * * * * * * * * * * * * * * * //

dimensions      [0 3 -1 0 0 0 0];

oriented        oriented;

internalField   nonuniform List<scalar> 
4432
(
-1.04796e-06
1.04795e-06
-2.46967e-06
1.4217e-06
-3.77784e-06
1.30816e-06
-4.86925e-06
1.09141e-06
-5.69472e-06
8.25464e-07
-6.24237e-06
5.47645e-07
-6.52467e-06
2.82301e-07
-6.57177e-06
4.70965e-08
-6.42843e-06
-1.43341e-07
-6.13006e-06
-2.98368e-07
-5.70319e-06
-4.26872e-07
-5.18532e-06
-5.17873e-07
-4.61964e-06
-5.65682e-07
-4.04805e-06
-5.71599e-07
-3.50238e-06
-5.45671e-07
-3.00947e-06
-4.92915e-07
-2.59953e-06
-4.09945e-07
-2.27283e-06
-3.26706e-07
-2.01081e-06
-2.62034e-07
-1.76556e-06
-2.45246e-07
-1.46908e-06
-2.96487e-07
-1.01911e-06
-4.49977e-07
-1.01911e-06
-1.57898e-06
2.6269e-06
-3.02815e-06
2.87085e-06
-4.32801e-06
2.60801e-06
-5.399e-06
2.16239e-06
-6.1964e-06
1.62285e-06
-6.71037e-06
1.06161e-06
-6.95585e-06
5.27783e-07
-6.96361e-06
5.48596e-08
-6.78419e-06
-3.22747e-07
-6.45479e-06
-6.27759e-07
-5.99952e-06
-8.82135e-07
-5.45256e-06
-1.06483e-06
-4.85841e-06
-1.15984e-06
-4.25797e-06
-1.17204e-06
-3.682e-06
-1.12166e-06
-3.15489e-06
-1.02003e-06
-2.71314e-06
-8.51703e-07
-2.35518e-06
-6.8468e-07
-2.05869e-06
-5.5853e-07
-1.76637e-06
-5.37584e-07
-1.40548e-06
-6.57381e-07
-8.69562e-07
-9.85906e-07
-1.88868e-06
-1.80156e-06
4.42846e-06
-3.3488e-06
4.41808e-06
-4.70162e-06
3.96082e-06
-5.80207e-06
3.26283e-06
-6.60745e-06
2.42824e-06
-7.11087e-06
1.56502e-06
-7.336e-06
7.52915e-07
-7.31358e-06
3.24382e-08
-7.10602e-06
-5.30313e-07
-6.75526e-06
-9.78518e-07
-6.27587e-06
-1.36152e-06
-5.70373e-06
-1.63698e-06
-5.08195e-06
-1.78162e-06
-4.45021e-06
-1.80379e-06
-3.83883e-06
-1.73305e-06
-3.27028e-06
-1.58859e-06
-2.79228e-06
-1.32971e-06
-2.39827e-06
-1.07869e-06
-2.06009e-06
-8.96717e-07
-1.71673e-06
-8.80957e-07
-1.30967e-06
-1.06444e-06
-7.37088e-07
-1.5585e-06
-2.62578e-06
-1.87384e-06
6.30228e-06
-3.50489e-06
6.04912e-06
-4.92577e-06
5.3817e-06
-6.07616e-06
4.41321e-06
-6.90327e-06
3.25534e-06
-7.40406e-06
2.06581e-06
-7.61871e-06
9.67563e-07
-7.56738e-06
-1.88848e-08
-7.33181e-06
-7.65879e-07
-6.9584e-06
-1.35191e-06
-6.45365e-06
-1.86626e-06
-5.86255e-06
-2.22807e-06
-5.2284e-06
-2.41576e-06
-4.57881e-06
-2.45338e-06
-3.94131e-06
-2.37054e-06
-3.33498e-06
-2.19492e-06
-2.82585e-06
-1.83883e-06
-2.39326e-06
-1.51129e-06
-1.99191e-06
-1.29806e-06
-1.55346e-06
-1.31941e-06
-1.08353e-06
-1.53436e-06
-5.21378e-07
-2.12066e-06
-3.14715e-06
-1.7954e-06
8.09768e-06
-3.43889e-06
7.6926e-06
-4.89234e-06
6.83515e-06
-6.08976e-06
5.61063e-06
-6.95712e-06
4.1227e-06
-7.47498e-06
2.58367e-06
-7.68079e-06
1.17337e-06
-7.57916e-06
-1.20516e-07
-7.24056e-06
-1.10448e-06
-6.79238e-06
-1.8001e-06
-6.26022e-06
-2.39842e-06
-5.69682e-06
-2.79147e-06
-5.10637e-06
-3.00621e-06
-4.47535e-06
-3.0844e-06
-3.85039e-06
-2.9955e-06
-3.27535e-06
-2.76997e-06
-2.77679e-06
-2.33739e-06
-2.26487e-06
-2.02321e-06
-1.71038e-06
-1.85255e-06
-1.14958e-06
-1.88021e-06
-5.26587e-07
-2.15736e-06
-5.28503e-09
-2.64196e-06
-3.15245e-06
-1.73322e-06
9.83091e-06
-3.33732e-06
9.29671e-06
-4.70813e-06
8.20597e-06
-5.76405e-06
6.66656e-06
-6.44978e-06
4.80843e-06
-6.73654e-06
2.87044e-06
-6.74472e-06
1.18155e-06
-6.66894e-06
-1.96285e-07
-6.40106e-06
-1.37234e-06
-6.06194e-06
-2.1392e-06
-5.69272e-06
-2.76762e-06
-5.29566e-06
-3.1885e-06
-4.79841e-06
-3.50342e-06
-4.16601e-06
-3.71676e-06
-3.52812e-06
-3.63333e-06
-3.0046e-06
-3.29344e-06
-2.51661e-06
-2.82533e-06
-1.92673e-06
-2.61305e-06
-1.20828e-06
-2.57095e-06
-5.1211e-07
-2.57635e-06
1.99977e-07
-2.86941e-06
5.16443e-07
-2.9584e-06
-2.63595e-06
-1.63923e-06
1.14701e-05
-3.11831e-06
1.07758e-05
-4.36122e-06
9.44889e-06
-5.28161e-06
7.58696e-06
-5.85197e-06
5.37881e-06
-6.03927e-06
3.05776e-06
-5.889e-06
1.03132e-06
-5.63546e-06
-4.49773e-07
-5.18724e-06
-1.8205e-06
-4.63332e-06
-2.69305e-06
-4.13354e-06
-3.26731e-06
-3.58441e-06
-3.73753e-06
-2.8146e-06
-4.27312e-06
-1.81762e-06
-4.71363e-06
-8.40918e-07
-4.60991e-06
-8.71906e-08
-4.04705e-06
5.59537e-07
-3.47195e-06
1.13774e-06
-3.19115e-06
1.67917e-06
-3.11228e-06
2.06758e-06
-2.96467e-06
2.14716e-06
-2.94891e-06
1.77841e-06
-2.58957e-06
-8.57483e-07
-9.93597e-07
1.24637e-05
-1.62728e-06
1.14095e-05
-1.94236e-06
9.76398e-06
-1.89556e-06
7.54017e-06
-1.33981e-06
4.82308e-06
-4.94841e-07
2.21281e-06
2.49763e-07
2.86752e-07
5.13208e-07
-7.13176e-07
8.21476e-07
-2.12872e-06
1.0546e-06
-2.92612e-06
1.31694e-06
-3.52959e-06
1.85061e-06
-4.27115e-06
2.85612e-06
-5.27856e-06
4.25559e-06
-6.11305e-06
5.85847e-06
-6.21273e-06
7.50307e-06
-5.6916e-06
8.85506e-06
-4.82388e-06
9.84209e-06
-4.17813e-06
1.04541e-05
-3.72428e-06
1.05016e-05
-3.01215e-06
9.4575e-06
-1.90472e-06
7.0701e-06
-2.02143e-07
6.21266e-06
-8.33453e-07
8.33452e-07
-9.15298e-07
8.18452e-08
-4.70158e-07
-4.45139e-07
2.54332e-07
-7.24488e-07
1.16824e-06
-9.13904e-07
2.04965e-06
-8.81409e-07
2.84229e-06
-7.92641e-07
3.61612e-06
-7.73833e-07
4.26006e-06
-6.4394e-07
4.65317e-06
-3.93107e-07
4.80133e-06
-1.48163e-07
5.02922e-06
-2.2789e-07
5.31234e-06
-2.83118e-07
5.28634e-06
2.5998e-08
4.25533e-06
1.03101e-06
2.19479e-06
2.06053e-06
4.02702e-07
1.79209e-06
-9.26757e-09
4.11964e-07
-9.2702e-09
3.1759e-07
5.15858e-07
1.70057e-07
2.29377e-07
1.35532e-07
-4.10614e-07
5.58767e-07
-1.14772e-06
1.17826e-06
-1.5334e-06
1.87558e-06
-1.57873e-06
2.70109e-06
-1.61814e-06
3.55756e-06
-1.6303e-06
4.42804e-06
-1.51442e-06
5.04741e-06
-1.01247e-06
5.26841e-06
-3.69166e-07
5.3949e-06
-3.54375e-07
5.37098e-06
-2.59194e-07
5.03636e-06
3.60618e-07
3.95733e-06
2.11003e-06
1.89619e-06
4.12167e-06
-1.31114e-07
3.81939e-06
-8.41476e-07
1.12232e-06
-8.50751e-07
2.58416e-07
2.57442e-07
5.54678e-07
-6.68828e-08
9.1986e-07
-7.75791e-07
7.76839e-07
-1.0047e-06
4.69736e-07
-1.22629e-06
4.97115e-07
-1.6061e-06
9.75014e-07
-2.09603e-06
1.83295e-06
-2.48823e-06
2.77663e-06
-2.45809e-06
4.36181e-06
-2.59764e-06
5.58025e-06
-1.58761e-06
5.55576e-06
-3.29877e-07
4.98281e-06
3.13756e-07
4.20188e-06
1.14155e-06
3.37479e-06
2.93712e-06
2.31712e-06
5.17935e-06
9.30337e-07
5.20617e-06
-8.63222e-08
2.13898e-06
-9.37073e-07
-3.88843e-06
4.14584e-06
-3.83764e-07
-3.57155e-06
3.14419e-06
-4.30374e-06
3.43976e-06
-1.30026e-06
2.10023e-06
1.13261e-07
3.17743e-07
1.76412e-07
-1.17831e-06
-5.99945e-07
-1.65375e-06
-2.01276e-06
-1.53623e-06
-2.57559e-06
4.64832e-06
-8.78217e-06
1.00552e-05
-6.99451e-06
9.41727e-06
3.08116e-07
7.15742e-06
2.57361e-06
6.12723e-06
2.17174e-06
5.25999e-06
3.80436e-06
5.39961e-06
5.03972e-06
4.26655e-06
6.33923e-06
1.16706e-06
5.23847e-06
2.29982e-07
-1.4029e-06
5.54875e-06
3.67332e-06
-8.64777e-06
6.51163e-06
-7.14204e-06
7.33709e-06
-2.12571e-06
5.99879e-06
1.45156e-06
7.55824e-07
5.41939e-06
-4.30863e-06
4.46451e-06
-4.2414e-06
-2.07999e-06
-1.93552e-06
-4.88146e-06
5.07049e-06
-1.57882e-05
1.28593e-05
-1.47833e-05
1.71861e-05
-4.01869e-06
1.64814e-05
3.27824e-06
1.158e-05
7.07319e-06
6.54348e-07
1.473e-05
-1.86866e-06
7.56273e-06
2.10605e-06
2.36453e-06
1.69415e-06
5.65037e-06
1.92413e-06
1.63025e-06
3.9185e-06
7.2368e-06
-1.42543e-05
1.01197e-05
-1.0025e-05
1.0665e-05
-2.67101e-06
9.6822e-06
2.43441e-06
7.49535e-06
7.60625e-06
2.03784e-06
9.92204e-06
-8.1502e-07
7.72884e-07
1.76512e-06
-7.46159e-06
5.15275e-06
-1.91758e-05
9.16814e-06
-1.87987e-05
1.254e-05
-7.39051e-06
1.16406e-05
4.17765e-06
4.08639e-06
1.46274e-05
-4.76731e-06
2.35837e-05
-5.61669e-06
8.41211e-06
1.38703e-06
-4.6392e-06
8.02228e-06
-9.84876e-07
9.94641e-06
7.50388e-06
-3.58538e-06
1.12955e-05
-1.80459e-05
1.39132e-05
-1.26426e-05
1.41543e-05
-2.91212e-06
1.28192e-05
3.7695e-06
1.08286e-05
9.59689e-06
9.31541e-06
1.14352e-05
6.56038e-06
3.52793e-06
6.22592e-06
-7.12713e-06
5.62923e-06
-1.85791e-05
6.08851e-06
-1.92579e-05
7.05111e-06
-8.3531e-06
4.59759e-06
6.63118e-06
-2.12462e-06
2.13496e-05
-6.23688e-06
2.7696e-05
-3.76471e-06
5.93994e-06
2.68481e-07
-8.67239e-06
4.30447e-06
-5.02087e-06
1.42509e-05
1.42361e-05
-1.78215e-05
1.51621e-05
-1.8972e-05
1.60877e-05
-1.35683e-05
1.6002e-05
-2.82633e-06
1.47623e-05
5.00917e-06
1.28456e-05
1.15136e-05
1.14948e-05
1.2786e-05
9.81264e-06
5.21011e-06
9.55513e-06
-6.86961e-06
6.15135e-06
-1.51753e-05
2.81981e-06
-1.59264e-05
1.30806e-06
-6.84134e-06
-1.05176e-06
8.991e-06
-5.86011e-06
2.61579e-05
-6.93442e-06
2.87703e-05
-2.05534e-06
1.06087e-06
7.47485e-07
-1.14752e-05
1.80029e-06
-6.07367e-06
1.60512e-05
1.10251e-06
1.13612e-05
3.30223e-06
9.20976e-06
5.48057e-06
7.58564e-06
7.06224e-06
5.95849e-06
8.57987e-06
3.30546e-06
9.52564e-06
1.26706e-06
9.69454e-06
1.17858e-07
9.64958e-06
-6.68201e-07
9.0652e-06
-1.54432e-06
8.6144e-06
-2.47531e-06
8.61533e-06
-3.53049e-06
9.19575e-06
-4.85154e-06
1.06385e-05
-6.72131e-06
1.30796e-05
-8.55408e-06
1.62239e-05
-9.35705e-06
2.00604e-05
-9.52797e-06
2.40152e-05
-8.77866e-06
2.75166e-05
-7.67954e-06
3.05628e-05
-6.77044e-06
3.2852e-05
-5.30133e-06
3.46174e-05
-3.67009e-06
3.62931e-05
-1.87778e-06
5.83853e-07
4.19219e-05
3.27316e-06
8.08807e-06
5.64865e-06
6.83425e-06
7.52731e-06
5.70696e-06
8.94883e-06
4.53697e-06
8.97738e-06
3.27689e-06
8.50639e-06
1.73803e-06
7.75566e-06
8.68577e-07
7.95861e-06
-8.71167e-07
8.86796e-06
-2.45368e-06
9.28244e-06
-2.88979e-06
9.69672e-06
-3.94478e-06
1.0489e-05
-5.64381e-06
1.18738e-05
-8.10616e-06
1.38799e-05
-1.05601e-05
1.60192e-05
-1.14964e-05
1.86047e-05
-1.21135e-05
2.15564e-05
-1.17303e-05
2.49174e-05
-1.10405e-05
2.89022e-05
-1.07552e-05
3.21955e-05
-8.59463e-06
3.44118e-05
-5.88633e-06
3.61461e-05
-3.61212e-06
-2.86119e-06
3.95912e-05
5.26016e-06
2.82788e-06
1.0392e-05
1.70233e-06
1.39928e-05
2.1062e-06
1.67271e-05
1.80263e-06
1.87946e-05
1.20929e-06
2.10045e-05
-4.71826e-07
2.23007e-05
-4.27682e-07
2.22058e-05
-7.76366e-07
2.06112e-05
-8.59088e-07
1.90424e-05
-1.32102e-06
1.81384e-05
-3.04075e-06
1.76391e-05
-5.1445e-06
1.74572e-05
-7.9243e-06
1.72774e-05
-1.03804e-05
1.70869e-05
-1.13058e-05
1.72246e-05
-1.22512e-05
1.80672e-05
-1.25729e-05
1.95402e-05
-1.25134e-05
2.22941e-05
-1.35092e-05
2.60488e-05
-1.23493e-05
2.87877e-05
-8.62527e-06
2.91508e-05
-3.97512e-06
-2.87817e-06
2.91678e-05
6.4166e-06
-3.58878e-06
1.39394e-05
-5.82054e-06
1.99977e-05
-3.95214e-06
2.44329e-05
-2.63259e-06
2.97367e-05
-4.09459e-06
3.51805e-05
-5.91566e-06
3.93786e-05
-4.62588e-06
4.05334e-05
-1.93118e-06
3.90979e-05
5.76305e-07
3.70716e-05
7.05315e-07
3.55322e-05
-1.50144e-06
3.3407e-05
-3.01926e-06
3.04152e-05
-4.93251e-06
2.66593e-05
-6.62451e-06
2.30679e-05
-7.7144e-06
1.96182e-05
-8.8015e-06
1.67636e-05
-9.71826e-06
1.48392e-05
-1.0589e-05
1.44898e-05
-1.31598e-05
1.78805e-05
-1.574e-05
2.26016e-05
-1.33464e-05
2.49376e-05
-6.3111e-06
-2.60882e-06
2.46683e-05
5.4879e-06
-9.07675e-06
1.03546e-05
-1.06873e-05
1.51101e-05
-8.70766e-06
1.9117e-05
-6.63964e-06
2.28563e-05
-7.83391e-06
2.56802e-05
-8.73961e-06
2.76978e-05
-6.64356e-06
2.95e-05
-3.73342e-06
3.23394e-05
-2.26314e-06
3.4984e-05
-1.9393e-06
3.69194e-05
-3.43686e-06
3.77332e-05
-3.83311e-06
3.6855e-05
-4.05433e-06
3.45714e-05
-4.34083e-06
3.13433e-05
-4.48627e-06
2.71609e-05
-4.61912e-06
2.24253e-05
-4.98261e-06
1.80085e-05
-6.17221e-06
1.38246e-05
-8.97585e-06
1.16807e-05
-1.35962e-05
1.3651e-05
-1.53167e-05
1.79075e-05
-1.05676e-05
-5.13943e-06
2.04381e-05
4.33957e-06
-1.34164e-05
7.37666e-06
-1.37245e-05
1.09257e-05
-1.22568e-05
1.51337e-05
-1.08477e-05
1.84181e-05
-1.11184e-05
2.0707e-05
-1.10285e-05
2.36147e-05
-9.55129e-06
2.75595e-05
-7.67826e-06
3.16158e-05
-6.31944e-06
3.50524e-05
-5.37595e-06
3.65749e-05
-4.95933e-06
3.69599e-05
-4.21808e-06
3.62988e-05
-3.3932e-06
3.45782e-05
-2.6202e-06
3.18927e-05
-1.80074e-06
2.85344e-05
-1.26073e-06
2.47294e-05
-1.17758e-06
2.06087e-05
-2.05153e-06
1.55942e-05
-3.96138e-06
1.03971e-05
-8.39903e-06
9.07473e-06
-1.39944e-05
1.18141e-05
-1.33071e-05
-8.80509e-06
1.54797e-05
3.9766e-06
-1.7393e-05
7.41378e-06
-1.71617e-05
1.14794e-05
-1.63225e-05
1.61091e-05
-1.54774e-05
2.00033e-05
-1.50126e-05
2.32865e-05
-1.43116e-05
2.6875e-05
-1.31398e-05
3.06295e-05
-1.14328e-05
3.41905e-05
-9.88046e-06
3.7188e-05
-8.37342e-06
3.89878e-05
-6.75912e-06
3.94064e-05
-4.63673e-06
3.87712e-05
-2.75795e-06
3.7033e-05
-8.81984e-07
3.43381e-05
8.94229e-07
3.08996e-05
2.17783e-06
2.67942e-05
2.92779e-06
2.23688e-05
2.37394e-06
1.72398e-05
1.16761e-06
1.18221e-05
-2.98142e-06
9.09189e-06
-1.12643e-05
1.03175e-05
-1.45328e-05
-1.20512e-05
1.35636e-05
4.07632e-06
-2.14692e-05
8.24578e-06
-2.13311e-05
1.30311e-05
-2.11077e-05
1.80242e-05
-2.04705e-05
2.23979e-05
-1.93861e-05
2.60827e-05
-1.79963e-05
2.97339e-05
-1.67909e-05
3.33519e-05
-1.50505e-05
3.69601e-05
-1.34885e-05
4.013e-05
-1.15432e-05
4.25898e-05
-9.21878e-06
4.3721e-05
-5.76785e-06
4.48529e-05
-3.88966e-06
4.39409e-05
3.00679e-08
4.08987e-05
3.9365e-06
3.70109e-05
6.06564e-06
3.24758e-05
7.46286e-06
2.7543e-05
7.30675e-06
2.10556e-05
7.65501e-06
1.56043e-05
2.46982e-06
1.46962e-05
-1.03562e-05
1.52256e-05
-1.50623e-05
-1.45267e-05
1.7701e-05
4.69357e-06
-2.61624e-05
1.01355e-05
-2.67724e-05
1.66343e-05
-2.76058e-05
2.34175e-05
-2.72532e-05
2.86168e-05
-2.4585e-05
3.16489e-05
-2.10279e-05
3.49447e-05
-2.00864e-05
4.09488e-05
-2.10546e-05
4.66965e-05
-1.92362e-05
4.80258e-05
-1.28726e-05
4.78187e-05
-9.01185e-06
5.02456e-05
-8.19492e-06
5.57197e-05
-9.36384e-06
4.96961e-05
6.05341e-06
1.96395e-05
3.39931e-05
1.20844e-05
1.36206e-05
1.44738e-05
5.07331e-06
1.72423e-05
4.53825e-06
1.65527e-05
8.34458e-06
1.72833e-05
1.73919e-06
2.33389e-05
-1.64118e-05
2.51409e-05
-1.68643e-05
-1.68002e-05
2.74145e-05
5.69293e-06
-3.18534e-05
9.87996e-06
-3.09579e-05
1.1128e-05
-2.88528e-05
1.22106e-05
-2.8335e-05
1.28427e-05
-2.52166e-05
1.23039e-05
-2.0489e-05
1.46534e-05
-2.24359e-05
1.68263e-05
-2.32277e-05
1.92278e-05
-2.16381e-05
2.47417e-05
-1.8387e-05
3.08403e-05
-1.5111e-05
3.54078e-05
-1.27629e-05
3.5983e-05
-9.93959e-06
4.01878e-05
1.84825e-06
5.75848e-05
1.65957e-05
4.96815e-05
2.15237e-05
2.59851e-05
2.87695e-05
6.88903e-06
2.36342e-05
-1.31313e-05
2.83647e-05
-3.28129e-05
2.14206e-05
-2.29779e-05
-2.62469e-05
4.84199e-06
-4.46839e-05
-3.57779e-05
2.38198e-05
2.09106e-07
-3.20618e-05
3.4031e-07
-3.10885e-05
8.69139e-07
-2.93812e-05
1.0793e-06
-2.85449e-05
2.55621e-06
-2.66935e-05
6.58144e-06
-2.45143e-05
9.02788e-06
-2.48825e-05
1.0965e-05
-2.5165e-05
1.33278e-05
-2.40012e-05
1.73701e-05
-2.24295e-05
2.28125e-05
-2.05536e-05
2.80418e-05
-1.79925e-05
3.24816e-05
-1.43796e-05
4.18001e-05
-7.47047e-06
5.67144e-05
1.68111e-06
6.79045e-05
1.03336e-05
7.52957e-05
2.13783e-05
6.65854e-05
3.23446e-05
6.49455e-05
3.00045e-05
5.93778e-05
2.69882e-05
3.38548e-05
-7.23826e-07
7.79424e-06
-1.86227e-05
-4.44887e-05
1.65055e-05
-6.95538e-07
-3.13659e-05
-8.93142e-07
-3.08908e-05
-8.06747e-07
-2.94675e-05
-8.37565e-07
-2.85141e-05
-2.36391e-07
-2.72947e-05
1.35507e-06
-2.61058e-05
2.45134e-06
-2.59789e-05
3.20077e-06
-2.59145e-05
4.27696e-06
-2.50775e-05
6.67759e-06
-2.48303e-05
9.88555e-06
-2.37618e-05
1.3101e-05
-2.12081e-05
1.67914e-05
-1.80702e-05
2.40343e-05
-1.47134e-05
3.6615e-05
-1.08997e-05
5.33324e-05
-6.38384e-06
7.20953e-05
2.61561e-06
9.11125e-05
1.33276e-05
0.000103465
1.76522e-05
0.000116588
1.38656e-05
0.000109045
6.81996e-06
9.0602e-05
-1.7872e-07
-1.48469e-05
6.09619e-05
-1.22947e-06
-3.01371e-05
-2.03144e-06
-3.00893e-05
-2.6549e-06
-2.88445e-05
-3.37488e-06
-2.77945e-05
-3.7608e-06
-2.69091e-05
-3.6596e-06
-2.62074e-05
-3.64712e-06
-2.59917e-05
-3.71671e-06
-2.58452e-05
-3.49364e-06
-2.53008e-05
-2.68529e-06
-2.56389e-05
-1.57279e-06
-2.48745e-05
-2.99689e-07
-2.24814e-05
1.79729e-06
-2.01673e-05
6.73047e-06
-1.96467e-05
1.46375e-05
-1.88067e-05
2.49757e-05
-1.6722e-05
4.0938e-05
-1.33466e-05
6.18286e-05
-7.56278e-06
8.21636e-05
-2.6825e-06
9.72751e-05
-1.24557e-06
0.000105511
-1.41491e-06
0.000108175
-2.84214e-06
-8.43607e-06
0.000101766
-1.46071e-06
-2.86773e-05
-2.70176e-06
-2.88492e-05
-3.88252e-06
-2.76645e-05
-5.03118e-06
-2.66465e-05
-5.9914e-06
-2.59495e-05
-6.69673e-06
-2.55025e-05
-7.37556e-06
-2.53133e-05
-8.01797e-06
-2.52032e-05
-8.36851e-06
-2.49506e-05
-8.84251e-06
-2.51651e-05
-9.09962e-06
-2.46176e-05
-8.76313e-06
-2.2818e-05
-7.40366e-06
-2.15269e-05
-4.886e-06
-2.21645e-05
-9.25662e-07
-2.27671e-05
4.00068e-06
-2.16484e-05
1.01442e-05
-1.94901e-05
1.95037e-05
-1.69221e-05
3.3157e-05
-1.63356e-05
4.79425e-05
-1.60307e-05
6.0554e-05
-1.40257e-05
7.01123e-05
-1.24e-05
-1.4326e-05
7.60037e-05
-1.54864e-06
-2.71297e-05
-3.02445e-06
-2.73743e-05
-4.43299e-06
-2.62569e-05
-5.74505e-06
-2.53352e-05
-6.92824e-06
-2.4767e-05
-7.97431e-06
-2.44571e-05
-8.95169e-06
-2.43364e-05
-9.86949e-06
-2.42858e-05
-1.0616e-05
-2.42045e-05
-1.1621e-05
-2.41605e-05
-1.25226e-05
-2.37164e-05
-1.26389e-05
-2.27019e-05
-1.2038e-05
-2.2128e-05
-1.16892e-05
-2.25134e-05
-1.12262e-05
-2.32301e-05
-1.03242e-05
-2.25504e-05
-8.83511e-06
-2.09791e-05
-5.54038e-06
-2.02167e-05
-1.81494e-06
-2.00609e-05
2.47169e-06
-2.03172e-05
7.35367e-06
-1.89073e-05
1.14359e-05
-1.64814e-05
-1.55108e-05
1.26212e-05
-1.55245e-06
-2.55784e-05
-3.08904e-06
-2.58387e-05
-4.49955e-06
-2.48473e-05
-5.77424e-06
-2.40613e-05
-6.94497e-06
-2.35969e-05
-8.0339e-06
-2.33687e-05
-9.08112e-06
-2.32897e-05
-1.01105e-05
-2.32569e-05
-1.11211e-05
-2.31943e-05
-1.22357e-05
-2.30461e-05
-1.33112e-05
-2.26412e-05
-1.399e-05
-2.20232e-05
-1.44848e-05
-2.16335e-05
-1.53444e-05
-2.16539e-05
-1.69045e-05
-2.16701e-05
-1.84949e-05
-2.096e-05
-1.96564e-05
-1.98176e-05
-2.04793e-05
-1.93938e-05
-2.15037e-05
-1.90365e-05
-2.28024e-05
-1.90183e-05
-2.41657e-05
-1.75438e-05
-2.51107e-05
-1.55365e-05
-1.36517e-05
-2.69693e-05
-1.53333e-06
-2.40459e-05
-3.0553e-06
-2.43176e-05
-4.40214e-06
-2.35012e-05
-5.58732e-06
-2.28768e-05
-6.668e-06
-2.25168e-05
-7.69431e-06
-2.23429e-05
-8.71114e-06
-2.22733e-05
-9.75068e-06
-2.22178e-05
-1.0832e-05
-2.21134e-05
-1.19754e-05
-2.1903e-05
-1.31011e-05
-2.15158e-05
-1.41152e-05
-2.10094e-05
-1.51858e-05
-2.05629e-05
-1.66236e-05
-2.02163e-05
-1.85828e-05
-1.97109e-05
-2.07793e-05
-1.87636e-05
-2.30105e-05
-1.75864e-05
-2.56862e-05
-1.67182e-05
-2.89069e-05
-1.58158e-05
-3.29789e-05
-1.49464e-05
-3.68688e-05
-1.36539e-05
-3.96762e-05
-1.27287e-05
-1.19483e-05
-4.13797e-05
-1.5289e-06
-2.25179e-05
-3.0396e-06
-2.28077e-05
-4.35144e-06
-2.219e-05
-5.48485e-06
-2.1744e-05
-6.50322e-06
-2.1499e-05
-7.4669e-06
-2.13797e-05
-8.4291e-06
-2.13116e-05
-9.42515e-06
-2.12221e-05
-1.04764e-05
-2.10625e-05
-1.15838e-05
-2.07958e-05
-1.27052e-05
-2.03946e-05
-1.38256e-05
-1.98893e-05
-1.50429e-05
-1.93457e-05
-1.65056e-05
-1.87538e-05
-1.82375e-05
-1.79791e-05
-2.00975e-05
-1.69037e-05
-2.20598e-05
-1.56241e-05
-2.45545e-05
-1.42235e-05
-2.77478e-05
-1.26226e-05
-3.21147e-05
-1.05794e-05
-3.69225e-05
-8.84604e-06
-4.102e-05
-8.63153e-06
-9.94033e-06
-4.30279e-05
-1.55199e-06
-2.09664e-05
-3.07519e-06
-2.1285e-05
-4.39248e-06
-2.08733e-05
-5.52166e-06
-2.06153e-05
-6.52187e-06
-2.04992e-05
-7.45109e-06
-2.04509e-05
-8.36304e-06
-2.04e-05
-9.29692e-06
-2.02885e-05
-1.02776e-05
-2.00821e-05
-1.13107e-05
-1.9763e-05
-1.23805e-05
-1.9325e-05
-1.34851e-05
-1.87848e-05
-1.46678e-05
-1.81633e-05
-1.59841e-05
-1.74376e-05
-1.74259e-05
-1.65374e-05
-1.89228e-05
-1.54068e-05
-2.04812e-05
-1.40658e-05
-2.22094e-05
-1.24953e-05
-2.434e-05
-1.04921e-05
-2.70091e-05
-7.91033e-06
-3.06184e-05
-5.23686e-06
-3.49887e-05
-4.26104e-06
-6.02649e-06
-3.89027e-05
-1.59193e-06
-1.9375e-05
-3.14558e-06
-1.97319e-05
-4.49053e-06
-1.95288e-05
-5.63921e-06
-1.9467e-05
-6.64038e-06
-1.94984e-05
-7.54682e-06
-1.95448e-05
-8.4113e-06
-1.95358e-05
-9.27693e-06
-1.94232e-05
-1.01747e-05
-1.91846e-05
-1.1119e-05
-1.88188e-05
-1.21093e-05
-1.8335e-05
-1.31468e-05
-1.77474e-05
-1.42459e-05
-1.70643e-05
-1.54153e-05
-1.62683e-05
-1.66362e-05
-1.53165e-05
-1.78661e-05
-1.4177e-05
-1.90929e-05
-1.28391e-05
-2.03293e-05
-1.12589e-05
-2.15575e-05
-9.26408e-06
-2.27887e-05
-6.67906e-06
-2.43535e-05
-3.67207e-06
-2.74078e-05
-1.20686e-06
-9.16023e-07
-3.25184e-05
-1.64061e-06
-1.77347e-05
-3.23183e-06
-1.8141e-05
-4.60817e-06
-1.81528e-05
-5.77653e-06
-1.82989e-05
-6.77521e-06
-1.85e-05
-7.65302e-06
-1.86673e-05
-8.46317e-06
-1.87259e-05
-9.2547e-06
-1.86319e-05
-1.00651e-05
-1.83744e-05
-1.0917e-05
-1.79671e-05
-1.18191e-05
-1.7433e-05
-1.27736e-05
-1.6793e-05
-1.37808e-05
-1.60572e-05
-1.48321e-05
-1.52171e-05
-1.59015e-05
-1.42473e-05
-1.6952e-05
-1.31265e-05
-1.79604e-05
-1.18307e-05
-1.88975e-05
-1.03217e-05
-1.96938e-05
-8.46786e-06
-2.0273e-05
-6.09987e-06
-2.07162e-05
-3.22889e-06
-2.18382e-05
-8.46441e-08
2.34953e-06
-2.5104e-05
-1.68931e-06
-1.60457e-05
-3.31813e-06
-1.65125e-05
-4.72156e-06
-1.67496e-05
-5.90031e-06
-1.71204e-05
-6.88468e-06
-1.75159e-05
-7.72181e-06
-1.78304e-05
-8.46894e-06
-1.7979e-05
-9.18201e-06
-1.7919e-05
-9.90549e-06
-1.76511e-05
-1.06682e-05
-1.72046e-05
-1.14832e-05
-1.66181e-05
-1.23529e-05
-1.59234e-05
-1.32725e-05
-1.51377e-05
-1.42283e-05
-1.42614e-05
-1.51938e-05
-1.32819e-05
-1.61372e-05
-1.21831e-05
-1.70244e-05
-1.09435e-05
-1.78138e-05
-9.5324e-06
-1.84306e-05
-7.85099e-06
-1.87758e-05
-5.75463e-06
-1.88327e-05
-3.17189e-06
-1.88263e-05
-9.10461e-08
3.13981e-06
-1.96166e-05
-1.73519e-06
-1.43107e-05
-3.39808e-06
-1.48497e-05
-4.81999e-06
-1.53279e-05
-5.9975e-06
-1.59431e-05
-6.95473e-06
-1.65589e-05
-7.74032e-06
-1.70449e-05
-8.41746e-06
-1.7302e-05
-9.04935e-06
-1.72872e-05
-9.68786e-06
-1.70127e-05
-1.03665e-05
-1.6526e-05
-1.11009e-05
-1.58839e-05
-1.18924e-05
-1.5132e-05
-1.27331e-05
-1.4297e-05
-1.36077e-05
-1.33869e-05
-1.44933e-05
-1.23963e-05
-1.53638e-05
-1.13126e-05
-1.61811e-05
-1.01262e-05
-1.6911e-05
-8.80258e-06
-1.74765e-05
-7.28548e-06
-1.77667e-05
-5.46431e-06
-1.77168e-05
-3.22177e-06
-1.72206e-05
-5.86902e-07
2.50871e-06
-1.65896e-05
-1.77512e-06
-1.25357e-05
-3.46575e-06
-1.31592e-05
-4.89885e-06
-1.38949e-05
-6.06373e-06
-1.47784e-05
-6.98357e-06
-1.56391e-05
-7.70972e-06
-1.63189e-05
-8.3126e-06
-1.66992e-05
-8.86197e-06
-1.6738e-05
-9.4153e-06
-1.64595e-05
-1.00116e-05
-1.59299e-05
-1.06688e-05
-1.52267e-05
-1.1388e-05
-1.44128e-05
-1.21586e-05
-1.35264e-05
-1.29627e-05
-1.25827e-05
-1.37793e-05
-1.15797e-05
-1.45837e-05
-1.05083e-05
-1.53514e-05
-9.35848e-06
-1.6041e-05
-8.11294e-06
-1.65989e-05
-6.72765e-06
-1.69303e-05
-5.13277e-06
-1.68971e-05
-3.25481e-06
-1.6402e-05
-1.08209e-06
1.47283e-06
-1.53661e-05
-1.80962e-06
-1.07261e-05
-3.52122e-06
-1.14477e-05
-4.95595e-06
-1.24602e-05
-6.09922e-06
-1.36352e-05
-6.97411e-06
-1.47643e-05
-7.63834e-06
-1.56548e-05
-8.16845e-06
-1.61692e-05
-8.63652e-06
-1.627e-05
-9.10416e-06
-1.59919e-05
-9.61561e-06
-1.54185e-05
-1.01931e-05
-1.46493e-05
-1.08395e-05
-1.37665e-05
-1.15437e-05
-1.28223e-05
-1.22858e-05
-1.18407e-05
-1.30422e-05
-1.08233e-05
-1.37884e-05
-9.76206e-06
-1.4501e-05
-8.64589e-06
-1.51523e-05
-7.46171e-06
-1.56936e-05
-6.18624e-06
-1.60538e-05
-4.77249e-06
-1.61274e-05
-3.1812e-06
-1.58085e-05
-1.40065e-06
6.00701e-07
-1.49366e-05
-1.83786e-06
-8.88817e-06
-3.56486e-06
-9.72065e-06
-4.99466e-06
-1.10304e-05
-6.11004e-06
-1.25198e-05
-6.93655e-06
-1.39379e-05
-7.54265e-06
-1.50487e-05
-8.00801e-06
-1.57039e-05
-8.40141e-06
-1.58766e-05
-8.78508e-06
-1.56082e-05
-9.20819e-06
-1.49954e-05
-9.69877e-06
-1.41587e-05
-1.02646e-05
-1.32006e-05
-1.08973e-05
-1.21896e-05
-1.15768e-05
-1.11612e-05
-1.2276e-05
-1.0124e-05
-1.29687e-05
-9.06937e-06
-1.3629e-05
-7.98557e-06
-1.42316e-05
-6.85912e-06
-1.47401e-05
-5.6777e-06
-1.51105e-05
-4.402e-06
-1.52729e-05
-3.01864e-06
-1.51246e-05
-1.54907e-06
5.05834e-08
-1.45745e-05
-1.86383e-06
-7.02428e-06
-3.60181e-06
-7.98262e-06
-5.02304e-06
-9.60915e-06
-6.10645e-06
-1.14364e-05
-6.88472e-06
-1.31596e-05
-7.44146e-06
-1.4492e-05
-7.85581e-06
-1.52895e-05
-8.18557e-06
-1.55469e-05
-8.49102e-06
-1.53028e-05
-8.82487e-06
-1.46616e-05
-9.2206e-06
-1.3763e-05
-9.69408e-06
-1.27271e-05
-1.02436e-05
-1.16401e-05
-1.0852e-05
-1.05528e-05
-1.14919e-05
-9.48418e-06
-1.21328e-05
-8.4284e-06
-1.27465e-05
-7.3719e-06
-1.33057e-05
-6.29989e-06
-1.3784e-05
-5.19932e-06
-1.41381e-05
-4.04792e-06
-1.43241e-05
-2.83251e-06
-1.43049e-05
-1.56794e-06
-2.72634e-07
-1.39819e-05
-1.89083e-06
-5.13332e-06
-3.64097e-06
-6.23238e-06
-5.05304e-06
-8.197e-06
-6.10199e-06
-1.03874e-05
-6.83375e-06
-1.24278e-05
-7.35174e-06
-1.3974e-05
-7.72815e-06
-1.49131e-05
-8.00535e-06
-1.52697e-05
-8.24222e-06
-1.50659e-05
-8.49174e-06
-1.4412e-05
-8.79003e-06
-1.34647e-05
-9.16031e-06
-1.23569e-05
-9.61162e-06
-1.11887e-05
-1.01354e-05
-1.0029e-05
-1.07069e-05
-8.91261e-06
-1.1293e-05
-7.84231e-06
-1.18616e-05
-6.80326e-06
-1.23839e-05
-5.77762e-06
-1.2833e-05
-4.75018e-06
-1.3177e-05
-3.70387e-06
-1.33777e-05
-2.63161e-06
-1.34091e-05
-1.53671e-06
-4.54995e-07
-1.32268e-05
-1.92294e-06
-3.21027e-06
-3.68978e-06
-4.46543e-06
-5.09244e-06
-6.79426e-06
-6.10596e-06
-9.37382e-06
-6.79323e-06
-1.17405e-05
-7.28321e-06
-1.34839e-05
-7.62486e-06
-1.45715e-05
-7.85511e-06
-1.50394e-05
-8.03516e-06
-1.48859e-05
-8.21326e-06
-1.42339e-05
-8.42124e-06
-1.32567e-05
-8.68588e-06
-1.20922e-05
-9.0277e-06
-1.08469e-05
-9.45092e-06
-9.60577e-06
-9.94051e-06
-8.423e-06
-1.04636e-05
-7.31916e-06
-1.09852e-05
-6.28165e-06
-1.14734e-05
-5.28942e-06
-1.19005e-05
-4.32302e-06
-1.22343e-05
-3.37007e-06
-1.24538e-05
-2.41207e-06
-1.25265e-05
-1.46368e-06
-5.67141e-07
-1.24146e-05
-1.95542e-06
-1.25468e-06
-3.7375e-06
-2.68322e-06
-5.12628e-06
-5.40538e-06
-6.10245e-06
-8.39757e-06
-6.76825e-06
-1.10746e-05
-7.23207e-06
-1.30201e-05
-7.52387e-06
-1.42796e-05
-7.70481e-06
-1.48585e-05
-7.84093e-06
-1.47497e-05
-7.96816e-06
-1.41067e-05
-8.10544e-06
-1.31194e-05
-8.27503e-06
-1.19226e-05
-8.50517e-06
-1.06167e-05
-8.81691e-06
-9.29401e-06
-9.20877e-06
-8.03111e-06
-9.65755e-06
-6.87035e-06
-1.01255e-05
-5.81368e-06
-1.05779e-05
-4.83697e-06
-1.09827e-05
-3.91829e-06
-1.13173e-05
-3.03535e-06
-1.15501e-05
-2.1791e-06
-1.16508e-05
-1.3632e-06
-6.02418e-07
-1.16154e-05
-1.96806e-06
7.13471e-07
-3.75219e-06
-8.98975e-07
-5.11274e-06
-4.04473e-06
-6.06149e-06
-7.44873e-06
-6.7322e-06
-1.04039e-05
-7.15835e-06
-1.25939e-05
-7.37565e-06
-1.40623e-05
-7.50446e-06
-1.47296e-05
-7.61203e-06
-1.46421e-05
-7.71397e-06
-1.40047e-05
-7.81066e-06
-1.30227e-05
-7.91169e-06
-1.18215e-05
-8.04375e-06
-1.04847e-05
-8.24126e-06
-9.09648e-06
-8.52405e-06
-7.7483e-06
-8.88431e-06
-6.51008e-06
-9.2893e-06
-5.40868e-06
-9.69972e-06
-4.42654e-06
-1.0084e-05
-3.534e-06
-1.04117e-05
-2.70752e-06
-1.06575e-05
-1.93337e-06
-1.07985e-05
-1.22175e-06
-5.89705e-07
-1.08114e-05
-1.9022e-06
2.61584e-06
-3.68401e-06
8.82966e-07
-5.00492e-06
-2.72372e-06
-5.94724e-06
-6.50633e-06
-6.62057e-06
-9.73046e-06
-6.97945e-06
-1.22349e-05
-7.11364e-06
-1.3928e-05
-7.20067e-06
-1.46425e-05
-7.2984e-06
-1.45444e-05
-7.40105e-06
-1.3902e-05
-7.49101e-06
-1.29327e-05
-7.56039e-06
-1.17521e-05
-7.62476e-06
-1.04203e-05
-7.72153e-06
-8.9997e-06
-7.89119e-06
-7.57863e-06
-8.14986e-06
-6.2514e-06
-8.47966e-06
-5.07888e-06
-8.84096e-06
-4.06523e-06
-9.19627e-06
-3.1787e-06
-9.51459e-06
-2.38912e-06
-9.76923e-06
-1.6786e-06
-9.94125e-06
-1.04997e-06
-5.27199e-07
-1.00037e-05
-1.76128e-06
4.37719e-06
-3.479e-06
2.60078e-06
-4.77379e-06
-1.42884e-06
-5.71844e-06
-5.5616e-06
-6.35853e-06
-9.09032e-06
-6.61777e-06
-1.19756e-05
-6.68573e-06
-1.386e-05
-6.75407e-06
-1.45742e-05
-6.86294e-06
-1.44355e-05
-6.99034e-06
-1.37746e-05
-7.10377e-06
-1.28192e-05
-7.1795e-06
-1.16764e-05
-7.21644e-06
-1.03833e-05
-7.24262e-06
-8.97352e-06
-7.30872e-06
-7.51253e-06
-7.45794e-06
-6.10221e-06
-7.69869e-06
-4.83815e-06
-7.99958e-06
-3.76435e-06
-8.31893e-06
-2.85935e-06
-8.62096e-06
-2.08709e-06
-8.87911e-06
-1.42055e-06
-9.0717e-06
-8.57089e-07
-4.2425e-07
-9.17492e-06
-1.58276e-06
5.96008e-06
-3.15745e-06
4.17555e-06
-4.4061e-06
-1.80135e-07
-5.31777e-06
-4.64987e-06
-5.8802e-06
-8.52785e-06
-6.0343e-06
-1.18215e-05
-6.06473e-06
-1.38296e-05
-6.14148e-06
-1.44974e-05
-6.28273e-06
-1.42942e-05
-6.4551e-06
-1.36022e-05
-6.61654e-06
-1.26578e-05
-6.73082e-06
-1.15621e-05
-6.78094e-06
-1.03332e-05
-6.77823e-06
-8.97626e-06
-6.76745e-06
-7.52334e-06
-6.81035e-06
-6.05933e-06
-6.94876e-06
-4.69978e-06
-7.17512e-06
-3.53804e-06
-7.44816e-06
-2.58636e-06
-7.72814e-06
-1.80712e-06
-7.98154e-06
-1.1671e-06
-8.18526e-06
-6.5368e-07
-2.94619e-07
-8.31488e-06
-1.33331e-06
7.29339e-06
-2.72088e-06
5.56316e-06
-3.86134e-06
9.60362e-07
-4.70288e-06
-3.80829e-06
-5.14186e-06
-8.08885e-06
-5.21077e-06
-1.17526e-05
-5.23973e-06
-1.38006e-05
-5.35498e-06
-1.43822e-05
-5.55192e-06
-1.40973e-05
-5.78634e-06
-1.33678e-05
-6.01152e-06
-1.24326e-05
-6.18666e-06
-1.1387e-05
-6.28333e-06
-1.02366e-05
-6.29545e-06
-8.96419e-06
-6.24823e-06
-7.57061e-06
-6.20503e-06
-6.10259e-06
-6.2353e-06
-4.66957e-06
-6.37245e-06
-3.40096e-06
-6.58692e-06
-2.37195e-06
-6.83239e-06
-1.56173e-06
-7.07239e-06
-9.27222e-07
-7.27732e-06
-4.48526e-07
-1.41726e-07
-7.43048e-06
-1.02055e-06
8.31401e-06
-2.18482e-06
6.72748e-06
-3.14809e-06
1.92366e-06
-3.85693e-06
-3.09943e-06
-4.13741e-06
-7.80836e-06
-4.15328e-06
-1.17367e-05
-4.22312e-06
-1.37308e-05
-4.41137e-06
-1.41939e-05
-4.68848e-06
-1.38202e-05
-4.99742e-06
-1.30589e-05
-5.29206e-06
-1.2138e-05
-5.53539e-06
-1.11437e-05
-5.69668e-06
-1.00754e-05
-5.75696e-06
-8.90398e-06
-5.72078e-06
-7.60686e-06
-5.63012e-06
-6.19332e-06
-5.56408e-06
-4.73569e-06
-5.59751e-06
-3.36762e-06
-5.73793e-06
-2.23162e-06
-5.94033e-06