/*--------------------------------*- C++ -*----------------------------------*\
| =========                 |                                                 |
| \\      /  F ield         | OpenFOAM: The Open Source CFD Toolbox           |
|  \\    /   O peration     | Version:  2312                                  |
|   \\  /    A nd           | Website:  www.openfoam.com                      |
|    \\/     M anipulation  |                                                 |
\*---------------------------------------------------------------------------*/
FoamFile
{
    version     2.0;
    format      ascii;
    arch        "LSB;label=32;scalar=64";
    class       volScalarField;
    location    "4.65";
    object      alpha.galistan;
}
// * * * * * * * * * * * * * * * * * * * * * * * * * * * * * * * * * * * * * //

dimensions      [0 0 0 0 0 0 0];

internalField   nonuniform List<scalar> 
2268
(
1
1
1
1
1
1
1
1
1
1
1
1
1
1
1
1
1
1
1
1
0.999982
0.999954
0.999954
1
1
1
1
1
1
1
1
1
1
1
1
1
1
1
1
1
1
1
1
0.999997
0.999968
0.999963
1
1
1
1
1
1
1
1
1
1
1
1
1
1
1
1
1
1
1
1
1
0.999998
0.999997
1
1
1
0.999998
0.999999
1
1
1
1
0.999999
1
1
1
1
1
1
1
1
1
1
1
1
1
0.978965
0.976422
0.972783
0.969941
0.970945
0.975967
0.9836
0.991404
0.997467
0.999795
0.999708
0.999852
0.999915
0.999872
0.999956
0.999997
0.999998
1
1
1
1
1
1
0.355488
0.347895
0.336727
0.32747
0.328456
0.343864
0.377039
0.428569
0.499903
0.593905
0.692887
0.778392
0.854894
0.918155
0.965659
0.992795
0.999836
0.999828
0.99963
0.999047
1
1
1
1.38308e-17
1.13095e-26
3.54666e-27
-8.66259e-12
5.48751e-18
-1.98351e-24
-5.49099e-25
-1.76247e-06
-1.40721e-18
-1.89791e-09
0.0140527
0.0532803
0.10892
0.187613
0.299033
0.450984
0.615414
0.755223
0.846731
0.88652
0.904243
0.950357
0.994014
2.22781e-08
5.85241e-09
7.85093e-09
3.65842e-12
1.96455e-08
1.00656e-05
1.88485e-06
1.53894e-05
1.81545e-05
1.80435e-05
2.04352e-05
2.46838e-05
9.39579e-05
9.87965e-05
-5.11153e-24
-6.78871e-12
0.0281788
0.0782771
0.163786
0.269993
0.387465
0.463408
0.497409
0.958011
0.962066
0.959702
0.957989
0.957378
0.957389
0.959161
0.960952
0.960994
0.960986
0.961144
0.964616
0.9649
0.964899
0.9649
0.9649
0.964808
0.963064
0.962936
0.948287
0.967217
0.967248
0.966152
0.964495
0.963382
0.96378
0.96373
0.963855
0.940325
0.92094
0.915439
0.901945
0.895251
0.888836
0.883537
0.881875
0.886364
0.883831
0.796867
0.832294
0.862003
0.853291
0.81549
0.753795
0.722442
0.684306
0.592486
0.524931
0.498895
0.474092
0.441301
0.411343
0.372705
0.351152
0.331075
0.31443
0.318594
0.55764
0.488362
0.395626
0.325238
0.274614
0.24569
0.208186
0.187169
0.150597
0.109802
0.0828611
0.0580226
0.037638
0.00647444
0.000364893
0.000381713
0.000399243
0.000417391
0.000435428
0.0513513
0.0158352
7.31553e-05
7.20501e-05
7.25388e-05
7.2454e-05
0.0137637
0.00499216
0.00952098
0.010823
0.00535536
1.39817e-05
1.39818e-05
1.42288e-05
0.000348509
0.00121138
0.00347651
0.00247268
0.000788471
7.33835e-05
7.33282e-05
7.32877e-05
0.000171605
0.000224141
0.0012398
9.91227e-05
0.00502167
0.0112624
0.0134781
0.00746007
7.64452e-05
1.39811e-05
1.39816e-05
1.3981e-05
0.00483303
0.00874099
0.00731987
0.00125399
7.4607e-05
0.000135683
0.000277885
0.000933114
0.000480447
0.000131902
9.85648e-05
0.00438454
0.00719414
0.0170734
0.0099723
0.00234229
1.39815e-05
1.39809e-05
1.39814e-05
0.00786195
0.0124944
0.0128204
0.00229866
0.000106574
0.000582056
0.000618461
0.00114104
0.000983757
0.000202089
0.000360387
0.000760039
0.0123147
0.0223181
0.0223181
0.0135258
0.00363295
0.000265571
1.46019e-05
0.0065917
0.0119466
0.0081266
0.00368632
2.1461e-05
2.2373e-08
5.11963e-08
1.16073e-05
4.5361e-05
5.90473e-05
6.78909e-05
6.89477e-05
5.24271e-05
4.22912e-05
4.5339e-05
5.50649e-05
4.87795e-05
1.0883e-05
1.89601e-10
-3.40109e-10
-5.28011e-09
-2.07503e-08
-2.57183e-08
-1.46712e-08
0.000339184
0.00173447
0.00250436
0.000407382
9.46315e-05
0.000116357
0.000518854
0.000851144
0.000908713
0.000495362
0.000102301
3.47107e-05
2.9386e-05
2.10053e-05
8.58358e-06
2.76414e-06
1.75977e-06
8.11698e-08
5.78227e-11
1.19249e-06
7.96277e-05
0.000166613
3.72226e-05
6.16314e-08
9.91207e-08
0.00173827
0.000578512
0.000484971
0.00178602
0.00240271
0.00240271
0.00232732
0.000323301
6.1676e-05
0.000253984
0.000596506
0.000727515
0.000726663
0.000652166
0.000586245
0.000857655
0.00155186
0.00320685
0.00467209
0.00390142
0.00297462
0.00343346
0.0046881
0.00450744
0.000589845
0.0010403
0.00240052
0.0023923
0.0017301
0.000350505
5.67298e-05
6.36577e-05
0.0011137
0.00190082
0.0018973
0.00166988
0.00109644
0.00245967
0.00466844
0.00466088
0.00464571
0.00506837
0.00559714
0.00559775
0.00559761
0.00470589
0.000492093
0.000308881
0.00172043
0.00185832
0.000465886
0.000170982
4.14835e-05
0.000206183
0.00100389
0.000994109
0.000609701
0.000196589
0.000152344
6.72623e-05
4.81531e-05
0.000136319
0.00033548
0.000483693
0.00138036
0.00235664
0.0039016
0.00383389
0.00195837
0.000504828
0.000211403
0.000550858
0.000304273
3.82419e-05
3.8196e-05
3.85681e-05
5.5191e-05
0.00019143
0.000205602
0.000140539
0.000124165
4.50107e-05
1.66519e-05
1.5435e-05
2.28198e-05
3.54209e-05
4.96971e-05
5.32282e-05
0.000284541
0.00238923
0.00338396
0.00152806
0.00119277
0.000165318
0.000158456
3.77016e-05
3.81982e-05
3.86267e-05
4.12841e-05
5.38566e-05
0.000120337
9.32701e-05
2.99835e-05
1.5827e-06
4.57092e-08
3.76162e-08
3.69104e-08
3.87456e-08
7.41079e-05
0.000141577
0.000137991
3.15375e-05
1.67772e-05
0.00100996
0.00383666
0.00382515
0.000186484
0.000209818
4.79704e-05
4.67245e-05
0.000373842
0.000737851
0.000909308
0.000771822
4.62581e-05
1.12977e-06
1.20301e-06
3.57158e-06
1.94409e-06
3.88116e-08
1.77613e-07
2.06859e-05
0.000125106
0.000141283
6.07057e-05
1.22263e-05
0.000961729
0.00383099
0.00383082
0.000378771
0.000246108
5.66086e-05
0.000419183
0.000969402
0.000969258
0.000969407
0.000393683
8.99098e-10
9.29513e-06
1.25985e-05
1.03774e-05
1.69163e-07
6.34782e-08
5.53163e-08
3.83451e-05
0.000100998
8.79189e-05
1.47513e-05
1.70715e-05
0.000687879
0.00289148
0.00362515
0.000437006
0.00048082
0.000363082
0.000357935
0.00091055
0.000969407
0.000724185
0.000141548
9.72755e-10
3.80311e-06
1.14665e-05
7.02161e-06
3.79018e-07
2.54594e-06
7.94086e-06
7.11664e-06
1.30449e-06
1.75091e-06
1.46047e-05
0.000162907
0.000256159
2.04446e-05
2.43778e-08
0.000535157
0.000535157
0.000535157
0.000354208
0.000137115
0.000205529
0.000170535
4.09601e-05
6.97977e-11
8.82348e-10
9.21533e-07
3.15233e-07
4.98887e-08
3.45634e-08
3.60085e-08
3.46134e-08
1.26859e-06
1.49752e-06
8.73281e-07
8.64665e-07
4.83492e-08
3.36369e-08
4.28057e-08
0.000535149
0.000535154
0.000535157
0.000494576
0.000106213
3.40886e-06
4.54676e-06
6.9798e-11
6.9758e-11
5.28585e-14
-9.13749e-10
1.54335e-07
1.78778e-07
9.49196e-08
6.53008e-08
3.1601e-07
1.6843e-07
3.11344e-08
3.2651e-08
3.46006e-08
3.40054e-08
4.17892e-07
1.0076e-06
0.000257716
0.00026872
0.000214889
0.000141044
7.54341e-05
1.66039e-05
-8.93455e-12
3.72007e-11
6.97893e-11
1.23234e-08
1.13572e-07
1.73359e-07
1.01691e-07
3.96969e-09
1.59446e-07
1.05569e-06
1.05454e-06
6.3499e-07
3.46006e-08
2.04217e-07
7.34246e-07
1.24059e-06
1.27428e-06
9.47613e-23
-4.08097e-12
-6.46172e-09
2.80415e-07
4.95796e-06
6.18887e-06
6.66924e-07
5.74375e-08
1.34021e-08
3.85152e-08
1.07768e-07
5.91801e-08
1.65518e-08
3.99908e-09
2.38769e-07
9.53375e-07
8.4725e-07
8.73011e-08
1.07446e-07
1.43907e-06
1.51328e-06
1.30026e-06
9.05337e-07
2.772e-10
1.59358e-09
9.96295e-07
9.97768e-07
1.2351e-06
1.07866e-06
4.47577e-07
1.2404e-07
4.34143e-08
6.3731e-08
3.04688e-08
4.41644e-09
4.43221e-09
5.10006e-08
6.68327e-08
1.13467e-09
1.6912e-09
1.68822e-09
5.19685e-07
1.52036e-06
1.51913e-06
9.69293e-07
1.9821e-07
8.44022e-10
9.14728e-11
3.3662e-07
4.18407e-07
4.07162e-07
3.6134e-07
1.96462e-07
1.13863e-07
4.77187e-08
2.09296e-08
4.581e-09
5.72534e-09
1.42181e-08
1.15601e-08
1.16734e-09
1.06903e-09
3.86078e-09
6.36887e-09
5.5488e-09
4.53837e-07
7.17066e-07
1.14425e-07
4.8118e-08
1.19281e-09
6.33142e-10
5.49803e-08
9.46051e-08
1.01758e-07
1.06412e-07
8.7129e-08
5.06094e-08
2.02806e-08
8.04658e-09
4.09165e-09
4.69577e-09
5.96222e-09
5.22955e-09
2.04776e-09
1.0711e-09
1.34882e-08
2.55279e-08
4.018e-09
2.83377e-10
2.96243e-07
3.27881e-07
7.51218e-08
1.22095e-09
1.69055e-09
1.20365e-08
2.45899e-08
3.09223e-08
3.32716e-08
2.02285e-08
1.23411e-08
5.94011e-09
3.48486e-09
3.42042e-09
3.26417e-09
2.33771e-09
1.42392e-09
1.00838e-09
1.56003e-09
1.53204e-09
1.05099e-09
4.33511e-10
2.75275e-10
1.59345e-07
4.12792e-07
1.85621e-07
1.13964e-09
1.5655e-09
4.27263e-09
7.26617e-09
5.89706e-09
5.59054e-09
4.39863e-09
2.96876e-09
2.31472e-09
2.45935e-09
2.38729e-09
1.83911e-09
1.16638e-09
7.4527e-10
6.53801e-10
6.63727e-10
6.48438e-10
6.08155e-10
5.56558e-10
2.80887e-10
2.72311e-08
3.29235e-07
3.04342e-07
9.58961e-10
1.1696e-09
1.85497e-09
2.14937e-09
2.3239e-09
2.61947e-09
2.12758e-09
1.72335e-09
1.63359e-09
1.626e-09
1.35187e-09
8.79474e-10
5.94248e-10
4.30538e-10
3.60347e-10
3.59201e-10
3.69476e-10
4.17625e-10
4.99401e-10
6.75867e-10
5.24077e-10
7.64919e-08
2.19429e-07
8.44884e-10
8.50651e-10
1.1598e-09
1.26756e-09
1.37051e-09
1.3415e-09
1.19385e-09
1.07061e-09
9.90477e-10
8.46588e-10
6.13136e-10
4.34564e-10
2.96345e-10
2.19757e-10
1.86328e-10
1.87384e-10
2.05403e-10
2.52808e-10
3.52995e-10
5.48508e-10
5.28105e-10
2.67737e-10
4.2647e-08
7.74613e-10
6.08727e-10
7.62456e-10
7.92031e-10
8.77886e-10
8.28624e-10
7.18892e-10
6.06679e-10
4.90761e-10
3.71522e-10
2.67098e-10
1.77256e-10
1.24908e-10
9.30578e-11
7.47009e-11
7.3054e-11
7.87463e-11
9.68682e-11
1.38612e-10
2.20185e-10
3.24774e-10
2.69434e-10
3.60875e-09
7.23325e-10
4.19317e-10
4.82052e-10
4.86734e-10
4.77766e-10
4.415e-10
3.57915e-10
2.75786e-10
1.93321e-10
1.37739e-10
9.24645e-11
6.19365e-11
4.23443e-11
3.10131e-11
2.43408e-11
2.33648e-11
2.50836e-11
3.04382e-11
4.12139e-11
6.50505e-11
1.1588e-10
1.15621e-10
2.46077e-09
6.72876e-10
2.87008e-10
2.9806e-10
2.85962e-10
2.60714e-10
2.13257e-10
1.60567e-10
1.14638e-10
7.87499e-11
5.13353e-11
3.19414e-11
1.98444e-11
1.26023e-11
8.64752e-12
6.9874e-12
6.79865e-12
7.61289e-12
9.50928e-12
1.31452e-11
1.98999e-11
2.72529e-11
5.60446e-11
2.4074e-10
6.32668e-10
1.91896e-10
1.78773e-10
1.62771e-10
1.4407e-10
1.1838e-10
9.16731e-11
6.72058e-11
4.50062e-11
2.77633e-11
1.63431e-11
9.14877e-12
5.01107e-12
2.88332e-12
2.06387e-12
1.95241e-12
2.29948e-12
3.063e-12
4.32392e-12
6.26481e-12
1.01116e-11
1.26729e-11
4.12647e-11
6.01706e-10
1.29751e-10
1.12319e-10
1.08511e-10
1.1085e-10
1.07678e-10
9.40516e-11
7.48462e-11
5.13622e-11
3.15833e-11
1.77721e-11
9.15548e-12
4.35866e-12
1.98254e-12
9.78466e-13
6.70643e-13
7.16991e-13
9.93547e-13
1.48157e-12
2.27294e-12
3.00296e-12
5.53993e-12
7.73704e-12
5.61813e-10
9.45431e-11
8.67152e-11
1.07867e-10
1.37785e-10
1.54939e-10
1.41883e-10
1.07023e-10
7.02952e-11
4.2282e-11
2.33828e-11
1.18093e-11
5.43972e-12
2.29011e-12
9.01916e-13
3.8471e-13
2.62615e-13
3.24818e-13
4.95176e-13
7.68909e-13
1.24831e-12
1.63136e-12
3.08793e-12
5.32556e-10
7.89443e-11
9.31479e-11
1.4597e-10
2.13926e-10
2.50965e-10
2.21476e-10
1.47189e-10
8.92675e-11
5.26053e-11
2.89952e-11
1.46995e-11
6.79504e-12
2.85741e-12
1.07987e-12
3.74705e-13
1.47588e-13
1.14408e-13
1.66534e-13
2.77654e-13
4.08429e-13
7.94908e-13
1.0804e-12
5.19377e-10
7.82781e-11
1.31772e-10
2.2268e-10
3.32944e-10
4.19097e-10
3.07323e-10
1.7985e-10
1.01047e-10
5.87192e-11
3.24967e-11
1.65844e-11
7.79213e-12
3.35564e-12
1.29171e-12
4.36845e-13
1.35405e-13
5.50878e-14
5.64538e-14
8.94564e-14
1.75308e-13
2.51369e-13
5.12999e-13
5.16843e-10
9.15414e-11
1.98573e-10
3.93206e-10
6.53309e-10
7.71263e-10
4.39007e-10
2.04573e-10
1.01429e-10
5.85323e-11
3.27398e-11
1.68513e-11
8.09025e-12
3.59891e-12
1.43631e-12
5.02711e-13
1.51461e-13
4.34861e-14
2.32165e-14
3.3996e-14
5.54584e-14
1.34804e-13
2.09669e-13
5.21412e-10
1.21102e-10
2.9835e-10
7.22974e-10
1.09249e-09
1.0027e-09
6.17459e-10
2.43004e-10
9.37495e-11
5.24664e-11
2.94214e-11
1.51933e-11
7.497e-12
3.45827e-12
1.45726e-12
5.4047e-13
1.70119e-13
4.48009e-14
1.38684e-14
1.33024e-14
2.94392e-14
5.52432e-14
1.24366e-13
5.29229e-10
1.50517e-10
4.72001e-10
1.12305e-09
1.30111e-09
1.12764e-09
6.91228e-10
2.45173e-10
9.49998e-11
4.62402e-11
2.45451e-11
1.23885e-11
6.1925e-12
2.97975e-12
1.32796e-12
5.2512e-13
1.764e-13
4.83299e-14
1.19811e-14
6.10372e-15
1.09943e-14
3.54447e-14
6.82571e-14
5.5359e-10
1.90161e-10
7.45582e-10
1.31238e-09
1.38768e-09
1.20539e-09
6.21459e-10
2.60289e-10
9.88878e-11
3.98845e-11
1.89828e-11
9.25943e-12
4.69389e-12
2.29482e-12
1.06846e-12
4.5447e-13
1.66398e-13
4.99499e-14
1.18547e-14
3.68878e-15
5.81486e-15
1.34445e-14
4.5047e-14
5.73072e-10
2.51199e-10
9.47321e-10
1.37759e-09
1.39581e-09
1.10928e-09
5.69156e-10
2.91918e-10
9.62406e-11
3.25242e-11
1.37474e-11
6.49892e-12
3.27889e-12
1.59004e-12
7.51141e-13
3.43657e-13
1.39212e-13
4.6002e-14
1.12872e-14
2.5884e-15
2.33414e-15
9.69968e-15
2.07978e-14
6.48623e-10
3.19203e-10
9.87559e-10
1.35964e-09
1.24401e-09
8.4965e-10
5.87774e-10
2.91114e-10
8.76136e-11
2.49599e-11
9.4198e-12
4.32378e-12
2.10123e-12
9.91736e-13
4.62947e-13
2.21417e-13
1.00238e-13
3.7191e-14
1.02902e-14
2.1215e-15
9.97351e-16
2.54563e-15
1.0807e-14
6.83356e-10
3.39286e-10
9.62063e-10
1.29022e-09
9.90092e-10
7.94393e-10
5.77175e-10
2.88464e-10
8.17928e-11
1.87935e-11
6.09085e-12
2.64683e-12
1.2518e-12
5.60581e-13
2.48069e-13
1.19682e-13
6.01792e-14
2.59213e-14
8.11955e-15
1.82127e-15
5.26349e-16
1.40103e-15
4.10669e-15
8.09759e-10
3.32827e-10
8.96818e-10
1.15618e-09
8.19028e-10
7.27309e-10
5.4279e-10
2.75857e-10
8.06625e-11
1.47573e-11
3.70351e-12
1.49836e-12
6.91206e-13
2.90557e-13
1.1737e-13
5.30242e-14
2.82143e-14
1.43349e-14
5.4973e-15
1.35969e-15
2.60597e-16
3.00514e-16
1.62553e-15
8.77152e-10
3.33217e-10
7.34927e-10
8.54531e-10
6.72631e-10
6.42464e-10
4.78153e-10
2.44666e-10
7.68147e-11
1.27139e-11
2.11244e-12
7.5532e-13
3.44212e-13
1.39252e-13
5.05493e-14
1.98322e-14
9.96093e-15
5.78438e-15
2.80431e-15
8.91813e-16
1.50888e-16
1.04266e-16
3.37835e-16
1.10162e-09
3.48663e-10
5.29906e-10
5.85488e-10
6.35625e-10
6.02815e-10
4.14922e-10
1.94591e-10
5.84348e-11
9.61669e-12
1.10854e-12
3.26631e-13
1.50331e-13
5.94445e-14
1.95782e-14
6.1822e-15
2.60181e-15
1.57181e-15
1.00642e-15
4.40168e-16
8.95711e-17
2.99214e-17
7.37478e-17
1.25202e-09
3.95994e-10
4.50751e-10
5.56096e-10
6.44622e-10
5.62607e-10
3.27311e-10
1.28683e-10
3.28967e-11
4.64613e-12
4.23542e-13
1.07128e-13
5.25321e-14
2.11543e-14
6.54111e-15
1.7123e-15
5.14137e-16
2.68746e-16
2.21165e-16
1.58834e-16
4.22706e-17
9.07438e-18
1.56333e-17
1.48204e-09
5.38732e-10
4.59906e-10
5.95031e-10
6.55402e-10
4.62787e-10
1.99213e-10
5.56535e-11
1.01844e-11
1.03006e-12
7.51944e-14
2.25849e-14
1.25482e-14
5.30321e-15
1.60346e-15
3.60439e-16
7.28853e-17
2.84449e-17
3.28066e-17
3.80728e-17
1.63216e-17
3.57027e-18
2.95883e-18
1.702e-09
9.19824e-10
6.39577e-10
7.24781e-10
5.54162e-10
2.39811e-10
6.03791e-11
9.62441e-12
9.04186e-13
4.61312e-14
4.53869e-15
2.33185e-15
1.5207e-15
6.93236e-16
2.14413e-16
4.21159e-17
6.07378e-18
1.81774e-18
3.41767e-18
6.85506e-18
5.63018e-18
1.42597e-18
6.7953e-19
8.83523e-05
4.27062e-05
0.000189336
0.000754726
0.00121192
0.000882523
0.00171361
0.00199908
0.00191384
0.000491557
0.000537178
0.00221793
0.000491765
0.000491816
0.00213751
0.00852642
0.000674823
0.000987797
0.00142199
0.00154502
0.000723157
0.000464148
0.000480978
0.000306721
0.0021772
9.22144e-05
7.68395e-05
7.65046e-05
0.00382354
0.00303606
0.000876877
0.0012203
0.00273884
0.00263525
0.00287954
0.00272147
2.79941e-08
2.70552e-08
1.11875e-05
4.62689e-08
8.44187e-08
2.78767e-07
1.20405e-06
1.00204e-07
1.02715e-06
8.45747e-07
3.06947e-07
1.55996e-07
1.26844e-06
1.19062e-06
8.94835e-07
3.2186e-07
9.85353e-07
6.92906e-07
1.50476e-07
1.05541e-07
1.10925e-08
1.09111e-08
2.70779e-08
8.2118e-07
6.50318e-08
1.81281e-07
8.03084e-07
5.74727e-06
2.02664e-07
2.3844e-07
3.53746e-06
5.77346e-06
1.33524e-07
1.57491e-07
1.19318e-07
3.21371e-06
1.70362e-07
7.23527e-08
6.05847e-08
2.36291e-07
1.83514e-07
8.89955e-08
6.02439e-08
6.3553e-08
1.26046e-07
9.37847e-08
7.38109e-08
9.75904e-09
2.28652e-08
5.69294e-08
4.0939e-08
9.50554e-09
3.05066e-09
3.05616e-09
6.8117e-09
5.98839e-09
5.35628e-10
6.62255e-10
4.5665e-10
7.69328e-10
6.23467e-11
5.79761e-11
8.59494e-11
9.47817e-11
1.21695e-11
1.55962e-11
1.62707e-11
2.19849e-11
3.85103e-12
4.47564e-12
6.50193e-12
7.27709e-12
1.67153e-12
2.19589e-12
2.48732e-12
3.43153e-12
7.08919e-13
8.53703e-13
1.25167e-12
1.42323e-12
3.34978e-13
4.94437e-13
6.09843e-13
8.61284e-13
1.97939e-13
2.75031e-13
4.26187e-13
5.33612e-13
1.32138e-13
2.09279e-13
2.85395e-13
4.27384e-13
8.46887e-14
1.26269e-13
2.15558e-13
2.76519e-13
5.82077e-14
8.48671e-14
1.24019e-13
2.06218e-13
2.34753e-14
4.0222e-14
7.22947e-14
1.00702e-13
1.14596e-14
1.87133e-14
3.10707e-14
5.60324e-14
3.80189e-15
7.03101e-15
1.18532e-14
1.97075e-14
1.0214e-15
1.66829e-15
3.21528e-15
6.08427e-15
1.87196e-16
3.34318e-16
5.87764e-16
1.17743e-15
3.51855e-17
6.13369e-17
1.19954e-16
2.25551e-16
6.20634e-18
9.77872e-18
1.55753e-17
2.73081e-17
9.44166e-19
1.17871e-18
1.61041e-18
2.29391e-18
0.000724578
0.000588865
0.000813352
0.00111299
0.00157465
0.000307137
0.000296253
0.0032419
0.0221454
0.0223191
0.0223184
0.0223182
0.00733382
0.00247715
4.19961e-05
0.00514817
0.00579456
0.00531046
0.00283768
0.0014821
0.000593332
0.000639737
0.00268002
0.00191479
0.000303163
0.0026711
0.0221114
0.0223191
0.0223195
0.0223194
0.0223186
0.012693
0.00663071
0.00583269
0.00757862
0.00729268
0.00227125
0.00196929
0.00352655
0.00314847
0.00834667
0.00977537
0.00586796
0.00567451
0.0155181
0.0144639
0.0101675
0.0107319
0.0116808
0.0119726
0.0155367
0.0155602
0.0132121
0.0117677
0.00774879
0.00348451
0.00194754
0.0100151
0.0100152
0.010015
0.0100155
0.00709975
0.00578292
0.00566757
0.00190948
0.00185987
0.0010002
7.41987e-05
0.000102685
0.00236476
0.0050095
0.00566212
0.00465693
0.00305003
0.00297751
0.00713269
0.0012021
0.00294561
0.00609309
0.00722869
0.00233985
0.00103821
0.00152994
0.00150293
0.00109684
0.000536084
7.03562e-05
7.03596e-05
7.96235e-05
0.00043465
0.00121001
0.00174836
0.00171943
0.00450523
0.0073738
0.000125751
4.18655e-05
4.17727e-05
0.000419927
0.00045327
0.000400257
6.84465e-05
4.91397e-05
0.000475799
0.000883043
0.000223867
7.10161e-05
7.08249e-05
7.26699e-05
7.95025e-05
0.000660976
0.00142028
0.00453914
0.0073738
0.000156109
0.000106115
6.41944e-05
6.19676e-05
7.20215e-05
7.01223e-05
7.25422e-05
4.93888e-05
0.000561084
0.00306731
0.00361296
0.00207469
0.0013656
0.0011313
0.00105795
0.00118582
0.00423427
0.0073738
0.0073738
0.00118869
0.000640496
0.000398581
0.000388589
0.000399972
0.0004003
0.000387609
8.06262e-05
0.000865409
0.00460615
0.00479367
0.00479338
0.00479271
0.00420256
0.00246951
0.00279678
0.00562834
0.0073738
0.0073738
0.000964242
0.000367151
0.000310481
0.000335578
0.000321747
0.000279221
0.000330573
0.000307973
0.00047837
0.00121929
0.00247572
0.00269397
0.00235405
0.0012251
0.000544417
0.00108604
0.00172921
0.00194474
0.0022826
4.4242e-08
3.82709e-08
3.91805e-08
3.38372e-08
4.24968e-08
4.33457e-08
4.41132e-06
-1.52979e-11
5.62701e-06
3.72116e-12
1.31498e-21
1.07463e-15
8.37601e-24
4.71324e-09
6.70905e-07
1.34282e-06
2.07582e-06
1.90865e-06
1.57719e-06
2.27791e-07
1.43917e-07
1.58088e-07
3.51697e-07
7.81011e-07
1.6886e-07
9.70498e-26
-2.3437e-24
3.36736e-25
6.41637e-11
5.60492e-11
2.57802e-10
2.4126e-14
3.41181e-24
4.26236e-07
1.05346e-06
1.76173e-06
2.34803e-06
2.42456e-06
2.12531e-07
1.93415e-07
1.12106e-07
2.75558e-07
1.96043e-06
1.01477e-06
4.92633e-08
7.75173e-07
1.43362e-10
1.08782e-08
5.00532e-13
1.03795e-12
-5.90047e-15
-4.33533e-24
7.11376e-07
1.46498e-06
1.35871e-06
1.88348e-06
2.15018e-06
2.63203e-08
2.6124e-08
2.6267e-08
1.77674e-07
2.41929e-06
2.46326e-06
3.59047e-06
6.54992e-06
2.98541e-06
2.02396e-07
5.38766e-07
2.07389e-06
1.48959e-06
3.78065e-07
6.95037e-08
2.89168e-07
3.29416e-09
1.4561e-10
4.32054e-07
1.87028e-07
5.28104e-07
1.79124e-07
9.34929e-07
2.11391e-06
3.84921e-06
6.67208e-06
7.28233e-06
7.28787e-06
4.26679e-06
3.41954e-06
4.93243e-06
4.67289e-06
2.62188e-09
3.86096e-09
3.11214e-09
1.36687e-08
1.63992e-10
2.74169e-10
4.42844e-06
5.54386e-06
3.33638e-06
2.09896e-06
1.48998e-06
4.99264e-06
8.19194e-06
6.11132e-06
4.32682e-06
4.44293e-06
3.39679e-06
1.31286e-07
4.7317e-07
2.76314e-08
2.56203e-09
5.87563e-08
4.52111e-08
6.92089e-08
2.2078e-08
6.00852e-06
6.00853e-06
3.83945e-06
1.09689e-06
2.00518e-06
7.62748e-06
7.24903e-06
8.48718e-09
8.25901e-09
1.00768e-08
4.42576e-08
9.88825e-08
1.14167e-07
3.40026e-07
5.29923e-07
9.92104e-07
2.72622e-07
1.91281e-06
6.07434e-08
6.00708e-06
2.144e-06
1.34845e-07
1.34974e-07
1.83478e-06
7.63183e-06
2.72528e-06
8.25905e-09
8.14028e-09
8.05306e-09
5.90892e-07
1.43829e-06
1.74572e-06
1.69665e-06
2.03371e-06
2.13869e-06
2.19465e-06
3.47206e-06
2.52012e-07
2.17476e-06
8.23241e-08
3.54391e-07
1.34912e-07
7.20976e-07
3.88777e-06
1.35237e-06
8.95866e-09
2.33625e-08
7.93247e-09
7.63845e-07
1.66601e-06
2.40846e-06
2.40856e-06
2.40898e-06
1.94648e-06
3.43205e-06
3.48635e-06
1.55208e-06
3.47943e-08
8.36187e-08
9.55486e-07
9.5696e-07
2.57406e-07
1.50884e-06
6.68706e-07
8.77743e-07
3.27889e-07
1.56774e-07
1.55197e-07
2.51196e-07
5.34189e-07
1.34264e-06
1.33479e-06
2.37482e-08
7.14994e-07
3.4887e-06
2.45959e-06
3.49707e-08
7.95788e-09
6.09612e-09
5.14774e-07
7.56162e-07
7.81052e-07
6.30622e-07
6.3351e-07
6.32882e-07
3.21835e-07
2.10763e-07
1.5777e-07
1.26179e-08
2.31484e-09
1.52193e-07
2.4314e-08
1.10239e-08
2.5244e-06
1.44528e-06
7.00477e-09
5.66601e-09
6.06672e-09
4.63061e-09
7.74106e-08
2.28616e-07
1.83771e-07
6.1274e-08
4.39588e-08
3.41751e-07
3.92007e-07
3.73636e-07
6.15764e-08
1.59951e-08
1.06914e-10
5.56097e-11
2.57362e-08
2.57113e-08
4.87459e-07
3.91333e-09
4.45385e-09
5.03706e-09
4.61425e-09
1.82247e-09
9.98183e-10
9.98394e-10
9.94338e-10
9.94445e-10
9.9429e-10
7.77158e-09
4.29711e-09
4.13953e-08
3.0008e-08
2.75587e-09
5.525e-10
5.29332e-08
3.42423e-08
1.96894e-07
3.25303e-09
2.95726e-09
2.70716e-09
2.04603e-09
1.52239e-09
1.20554e-09
1.01581e-09
1.03552e-09
1.00458e-09
9.98311e-10
9.98957e-10
1.00372e-09
1.00325e-09
3.32034e-09
5.02128e-09
5.4333e-10
2.86899e-08
3.45028e-08
7.60952e-08
7.9064e-10
7.7712e-10
7.02114e-10
6.49306e-10
5.94788e-10
6.06389e-10
6.45561e-10
7.88421e-10
9.38372e-10
1.17867e-09
1.69666e-09
2.44607e-09
3.40976e-09
5.30971e-09
5.44107e-09
1.94536e-09
6.97931e-09
3.39736e-08
4.90294e-08
1.28111e-10
1.26145e-10
1.34973e-10
1.587e-10
2.0094e-10
2.72512e-10
3.75228e-10
5.00723e-10
7.39759e-10
1.23106e-09
1.99588e-09
2.72557e-09
3.46205e-09
4.03018e-09
3.54129e-09
1.26219e-09
1.40546e-08
3.62269e-08
1.28081e-08
2.45151e-11
3.05607e-11
3.97309e-11
5.29124e-11
7.31079e-11
1.05207e-10
1.5197e-10
2.30529e-10
3.46029e-10
5.47309e-10
8.75336e-10
1.21221e-09
1.50364e-09
2.13815e-09
2.43479e-09
1.26632e-09
1.87227e-09
3.31853e-08
1.20372e-08
9.76745e-12
1.27655e-11
1.78503e-11
2.54475e-11
3.72986e-11
5.46222e-11
8.05826e-11
1.23395e-10
1.95217e-10
3.24876e-10
5.44741e-10
8.74816e-10
1.42439e-09
2.46423e-09
2.40768e-09
1.26194e-09
4.14168e-09
2.47139e-08
1.15411e-08
3.97564e-12
5.95016e-12
8.95035e-12
1.35859e-11
2.11219e-11
3.34387e-11
5.33944e-11
8.74262e-11
1.53112e-10
2.82507e-10
5.36413e-10
9.86742e-10
1.76526e-09
3.08846e-09
1.30073e-09
1.45939e-09
6.30058e-08
3.49803e-08
8.8892e-09
2.02791e-12
3.03414e-12
4.74579e-12
7.4674e-12
1.20604e-11
2.01561e-11
3.53912e-11
6.30816e-11
1.18796e-10
2.34475e-10
4.91369e-10
9.85422e-10
1.83177e-09
3.47624e-09
6.41449e-10
2.19299e-08
7.01522e-08
4.28955e-08
8.88486e-09
1.09203e-12
1.79255e-12
2.87959e-12
4.63963e-12
7.68501e-12
1.31378e-11
2.11793e-11
3.75239e-11
7.73954e-11
1.82818e-10
4.25393e-10
9.33934e-10
1.63862e-09
3.08657e-09
6.42017e-10
5.76477e-08
6.6827e-08
3.73091e-08
8.16841e-09
7.79497e-13
1.27296e-12
2.10462e-12
3.50155e-12
5.80669e-12
9.15146e-12
1.47296e-11
2.48992e-11
4.53021e-11
9.80154e-11
2.49284e-10
6.50225e-10
1.43162e-09
2.65612e-09
2.15525e-09
5.24736e-08
6.57051e-08
2.20412e-08
6.9101e-09
5.82611e-13
1.0055e-12
1.72918e-12
2.96297e-12
5.12209e-12
8.54623e-12
1.4187e-11
2.35585e-11
3.91382e-11
6.76108e-11
1.39201e-10
3.69292e-10
1.22827e-09
2.58803e-09
5.84883e-09
2.69653e-08
2.33927e-08
9.69341e-09
6.40332e-09
4.41282e-13
7.82705e-13
1.42658e-12
2.58322e-12
4.68963e-12
8.32569e-12
1.45364e-11
2.47241e-11
4.04259e-11
6.44155e-11
1.08066e-10
1.92306e-10
7.33094e-10
3.02298e-09
8.24311e-09
4.99769e-09
4.97513e-09
5.07791e-09
8.32115e-09
2.87225e-13
5.70481e-13
1.10524e-12
2.13544e-12
4.15142e-12
7.91523e-12
1.47347e-11
2.63706e-11
4.41095e-11
6.84815e-11
1.03535e-10
1.49834e-10
2.52068e-10
3.26882e-09
1.25103e-08
1.95552e-08
4.95927e-09
4.94936e-09
4.95073e-09
1.76885e-13
3.59714e-13
7.56446e-13
1.60764e-12
3.39864e-12
7.04791e-12
1.41555e-11
2.69471e-11
4.74594e-11
7.6471e-11
1.12651e-10
1.43391e-10
1.44777e-10
5.0904e-10
2.6785e-08
7.14836e-08
5.09337e-08
4.97487e-09
5.01898e-08
8.5289e-14
1.9599e-13
4.52633e-13
1.06377e-12
2.50592e-12
5.729e-12
1.25293e-11
2.55751e-11
4.80593e-11
8.25527e-11
1.2941e-10
1.7631e-10
1.57259e-10
2.76865e-09
3.01363e-08
9.26666e-08
1.38163e-07
3.21993e-08
1.3045e-07
3.425e-14
8.70312e-14
2.26585e-13
6.06492e-13
1.61717e-12
4.1288e-12
9.92663e-12
2.19864e-11
4.45149e-11
8.27341e-11
1.41496e-10
2.27369e-10
3.61783e-10
7.42011e-10
2.27863e-08
8.9753e-08
1.56826e-07
1.1312e-07
1.56249e-07
1.09918e-14
3.08865e-14
9.23192e-14
2.85542e-13
8.67618e-13
2.52066e-12
6.7865e-12
1.65712e-11
3.65817e-11
7.36388e-11
1.3761e-10
2.40044e-10
3.82616e-10
8.43324e-10
9.43085e-09
4.68486e-08
1.15315e-07
1.48935e-07
1.41518e-07
2.5765e-15
8.35818e-15
2.8498e-14
1.02019e-13
3.63736e-13
1.22918e-12
3.8028e-12
1.04832e-11
2.575e-11
5.65621e-11
1.1588e-10
2.20729e-10
3.89222e-10
5.87537e-10
6.13829e-10
8.56479e-09
6.6102e-08
1.38276e-07
6.15728e-08
4.38964e-16
1.44757e-15
5.9202e-15
2.55912e-14
1.11707e-13
4.54815e-13
1.66066e-12
5.3481e-12
1.51705e-11
3.78745e-11
8.51337e-11
1.76336e-10
3.44204e-10
6.06344e-10
9.24857e-10
1.56831e-09
9.74498e-09
3.06831e-08
2.09272e-09
4.77737e-17
1.55893e-16
6.54373e-16
3.26874e-15
1.79759e-14
9.41109e-14
4.33302e-13
1.72902e-12
5.90056e-12
1.74956e-11
4.61561e-11
1.09398e-10
2.38465e-10
4.84922e-10
8.48528e-10
1.24417e-09
2.19951e-09
3.36817e-09
1.13402e-09
3.31975e-18
8.30443e-18
3.08218e-17
1.67699e-16
1.10391e-15
7.4054e-15
4.53569e-14
2.38377e-13
1.0576e-12
3.85214e-12
1.16551e-11
3.20945e-11
8.18899e-11
2.12253e-10
5.54118e-10
1.0614e-09
1.25111e-09
1.20395e-09
9.25083e-10
)
;

boundaryField
{
    leftWall
    {
        type            zeroGradient;
    }
    rightWall
    {
        type            zeroGradient;
    }
    lowerWall
    {
        type            zeroGradient;
    }
    atmosphere
    {
        type            inletOutlet;
        inletValue      uniform 0;
        value           nonuniform List<scalar> 
46
(
1.702e-09
9.19824e-10
6.39577e-10
7.24781e-10
5.54162e-10
2.39811e-10
6.03792e-11
9.62442e-12
0
0
0
0
0
0
0
0
0
0
0
6.85507e-18
5.63018e-18
1.42597e-18
0
0
0
0
0
0
0
0
0
0
0
0
0
0
0
0
0
0
0
0
1.0614e-09
1.25111e-09
1.20395e-09
9.25083e-10
)
;
    }
    defaultFaces
    {
        type            empty;
    }
}


// ************************************************************************* //
