/*--------------------------------*- C++ -*----------------------------------*\
| =========                 |                                                 |
| \\      /  F ield         | OpenFOAM: The Open Source CFD Toolbox           |
|  \\    /   O peration     | Version:  2312                                  |
|   \\  /    A nd           | Website:  www.openfoam.com                      |
|    \\/     M anipulation  |                                                 |
\*---------------------------------------------------------------------------*/
FoamFile
{
    version     2.0;
    format      ascii;
    arch        "LSB;label=32;scalar=64";
    class       volScalarField;
    location    "4.65";
    object      alpha.air;
}
// * * * * * * * * * * * * * * * * * * * * * * * * * * * * * * * * * * * * * //

dimensions      [0 0 0 0 0 0 0];

internalField   nonuniform List<scalar> 
2268
(
9.64209e-10
9.93251e-10
9.57046e-10
9.19353e-10
9.45975e-10
9.94735e-10
7.49051e-10
4.23364e-10
2.0762e-10
1.16984e-10
9.94505e-11
9.85367e-11
9.89739e-11
1.02769e-10
1.14633e-10
1.40029e-10
1.84881e-10
2.18859e-10
2.1881e-10
1.68996e-10
1.36035e-10
2.12784e-07
5.15837e-07
1.10904e-09
1.42184e-09
1.54098e-09
2.21445e-09
3.73978e-09
6.14308e-09
6.09335e-09
3.53999e-09
2.16394e-09
1.22797e-09
5.18513e-10
5.01838e-10
4.95072e-10
4.9407e-10
4.99027e-10
5.30168e-10
6.63713e-10
1.06769e-09
1.30452e-09
5.97707e-10
1.37488e-10
6.72551e-07
7.77694e-07
3.28645e-09
2.94909e-09
3.44824e-09
2.58278e-08
1.67219e-08
1.76829e-08
2.18537e-08
1.93439e-08
2.28775e-08
2.87144e-08
3.8109e-09
2.34327e-09
1.73759e-09
1.63615e-09
1.59455e-09
1.0642e-09
1.84186e-09
3.31728e-09
3.45356e-09
4.68291e-10
5.17081e-08
3.82038e-07
5.36679e-07
3.66941e-09
3.35608e-09
4.26841e-09
1.53348e-06
1.31964e-06
2.02971e-08
2.22832e-08
2.04608e-08
9.73213e-08
5.01148e-07
6.88051e-09
8.14632e-09
1.60302e-09
1.60035e-09
1.59753e-09
7.25836e-08
1.02017e-08
1.59694e-09
1.31873e-09
4.12897e-10
3.80652e-08
2.90301e-08
3.21814e-08
0.000308047
0.000356976
0.000556852
0.000741075
0.000736448
0.000552872
0.000298133
9.19277e-05
1.47053e-06
6.8329e-06
3.12851e-05
5.35806e-05
3.04375e-05
6.04528e-06
1.56272e-07
2.80282e-06
1.77885e-06
9.3689e-15
5.03902e-18
-3.78032e-13
1.77932e-09
-8.02975e-26
7.2381e-10
0.0012526
0.00132741
0.00132741
0.00132741
0.00132741
0.00132741
0.00132741
0.000794325
9.18105e-05
7.05628e-06
0.000118074
0.000163159
0.000163108
0.000112358
2.58791e-05
2.84101e-06
2.49503e-06
0.000171588
0.000369813
4.15186e-08
4.8887e-09
8.01375e-26
-3.22237e-10
0.000636543
0.000559156
0.000736349
0.00119179
0.00132725
0.0011212
0.000851343
0.000650865
0.000274186
2.43017e-05
9.04027e-05
0.000154277
0.000153983
0.000147728
8.94037e-05
1.41649e-05
3.22935e-06
0.000274032
0.0051149
0.010231
0.00957016
0.00781062
0.00598626
0.000272906
0.0002715
0.000271209
0.000271509
0.000416864
0.000261533
0.000207989
0.000207729
0.000217279
0.000165526
8.77775e-05
7.32076e-05
4.37748e-05
2.53977e-05
1.92009e-05
9.44723e-05
0.000433312
0.00165623
0.00567405
0.0119604
0.0119569
0.0119603
0.009468
0.000235109
0.00232562
0.00814687
0.00851815
0.0068146
0.00485975
0.00308717
0.00256002
0.00229295
0.00229295
0.00229295
0.00229348
0.00231702
0.00229619
0.00235592
0.00341051
0.00481689
0.00571132
0.00571492
0.000235141
0.000236228
0.00299179
0.00522397
0.00480551
0.00699081
0.00839398
0.00500491
0.00232825
0.00229295
0.00229262
0.0022926
0.00229228
0.00229315
0.00332967
0.00772513
0.0106211
0.00829967
0.00657694
0.000338788
0.000880412
0.000872535
0.000989072
0.00096082
0.009667
0.0154783
0.015362
0.011014
0.00806847
0.00986628
0.0112032
0.0112705
0.0131944
0.0198758
0.0252386
0.0218584
0.0137953
0.0147165
0.00638401
0.00904969
0.0136194
0.0160737
0.0141219
0.0134111
0.0129364
0.0211447
0.021701
0.021768
0.0241539
0.0245325
0.0251978
0.0257147
0.0257149
0.0257128
0.0208964
0.0160962
0.0198101
0.00898083
0.0153138
0.0336845
0.0321047
0.0282271
0.0418469
0.041822
0.0152942
0.00633876
0.00632554
0.0116431
0.0214987
0.0206012
0.0257473
0.0247971
0.0246564
0.0464223
0.0476825
0.0259548
0.00759497
0.00494873
0.0074658
0.00304961
0.0034954
0.0366424
0.0312825
0.00804034
0.00669007
0.00737601
0.00481763
0.00410713
0.00395068
0.00865404
0.00310075
0.0491137
0.0705268
0.0674442
0.0243524
0.0079446
0.00387252
0.0023817
0.00193243
0.00193081
0.0112217
0.0111885
0.00847002
0.0135468
0.0173437
0.0159536
0.00832217
0.00309981
0.00308323
0.0030805
0.0498859
0.0836176
0.0874342
0.0245539
0.00512676
0.00229447
0.00196351
0.00228215
0.00193213
0.00229479
0.0101203
0.0108881
0.0231013
0.0854024
0.0887766
0.0579517
0.0149795
0.00331894
0.00307177
0.0353245
0.0784023
0.0583087
0.0412685
0.00439407
0.000271015
0.000269313
0.000259427
0.000226153
0.00021131
0.000205287
0.000205189
0.000219514
0.000229736
0.000201096
0.000165071
0.000172833
0.000116175
4.84156e-05
6.59029e-05
8.45503e-05
0.000104945
0.000244368
0.00269982
0.00640923
0.00489811
0.0017587
0.035605
0.0103672
0.00334344
0.00308828
0.00539708
0.00792723
0.00979044
0.00806518
0.00426408
0.00285463
0.00264282
0.00281252
0.00297736
0.00155336
0.000647934
0.000920892
3.52555e-05
3.52304e-05
3.52282e-05
3.5378e-05
3.53725e-05
3.54354e-05
0.0160107
0.0398065
0.0299321
0.00836004
0.00740501
0.0340611
0.0683673
0.0737778
0.0581182
0.0508416
0.0517001
0.0526474
0.0519464
0.0435184
0.0203283
0.0191844
0.0536434
0.0650428
0.0533526
0.0390108
0.0312221
0.0290289
0.0379588
0.0390825
0.0398138
0.0232686
0.00446703
0.0310171
0.0752843
0.0752636
0.0749719
0.0656527
0.0674525
0.0674585
0.0674143
0.0459164
0.017697
0.017767
0.0601902
0.0671112
0.0671336
0.0631558
0.0353739
0.0310232
0.0399178
0.0400309
0.0396911
0.0331757
0.00245086
0.0149401
0.0566472
0.0525945
0.00209002
0.030289
0.0663456
0.0632549
0.00434266
0.00012733
0.000168758
0.000279104
0.00128467
0.00471468
0.00661273
0.00608434
0.00285007
0.00144142
0.00355688
0.0307553
0.0400091
0.0351884
0.00471625
0.00133347
0.00963111
0.0222323
0.00619408
0.000423094
0.0103004
0.0225074
0.011604
0.000140324
0.000110761
0.000111136
0.000129643
8.2847e-05
-1.67529e-15
-2.00114e-14
8.14641e-22
4.77195e-12
1.87892e-07
0.0056796
0.0239858
0.0203928
1.93414e-06
0.00131517
0.0013764
0.00190106
0.000349436
0.000276244
0.000148009
0.000174159
5.42801e-05
4.813e-05
0.000207856
0.00027457
9.47981e-05
-1.69273e-07
-1.26309e-07
1.30173e-19
-1.86409e-19
7.25974e-20
6.9168e-15
7.92251e-05
-3.25291e-06
6.8573e-06
8.31674e-12
9.07686e-06
0.00126517
0.000947432
0.000477325
7.64407e-05
6.01333e-05
6.51967e-05
0.0326262
0.110557
0.179974
0.238726
0.268246
0.268646
0.254188
0.234126
0.19832
0.163317
0.135576
0.118831
0.114382
0.122133
0.188119
0.276845
0.302554
0.00101243
0.0003665
0.000104655
9.00303e-05
0.136735
0.444566
0.716283
0.847493
0.921383
0.964879
0.980844
0.976
0.965033
0.949114
0.929645
0.904806
0.877534
0.85854
0.852327
0.860724
0.912868
0.953025
0.958599
0.000966378
0.000195652
0.130114
0.417005
0.792165
0.979263
0.999141
0.999858
0.999993
0.999967
0.999688
0.999729
0.999991
0.99999
0.99999
0.99999
0.99999
0.99961
0.998319
0.997859
0.999023
0.99998
1
0.388371
0.605979
0.84183
0.976863
0.993016
0.992964
0.996545
0.999959
0.999997
0.999995
0.999962
0.999982
0.999982
0.999971
0.999968
0.999976
0.999991
0.999997
0.999999
0.999999
1
0.999998
0.999995
0.986518
0.998776
0.999225
0.998363
0.994594
0.994242
0.997171
0.999999
1
1
1
0.999974
0.999934
0.999934
0.999934
0.999935
0.999962
0.999994
0.999999
1
0.999999
0.999991
0.999975
0.999084
0.999205
0.999747
0.999859
0.999604
0.99973
0.999743
0.999988
1
1
0.999993
0.999935
0.999933
0.999934
0.999937
0.999938
0.999954
0.99998
0.999996
0.999992
0.999973
0.999965
0.999964
0.999609
0.999864
0.999999
1
0.999995
0.999994
0.999999
0.999998
0.999999
0.999998
0.99999
0.999939
0.999939
0.999965
0.999991
0.99998
0.999979
0.999981
1
0.999974
0.999965
0.999964
0.999964
0.999987
0.999998
0.999998
0.999999
0.999999
0.999999
0.999999
0.999999
0.999998
0.999997
0.999991
0.999991
0.999997
1
1
0.999999
0.999985
0.999994
0.999999
0.999997
0.999968
0.999965
0.999978
0.999997
0.999999
0.999999
0.999999
0.999999
0.999999
0.999999
0.999999
0.999999
0.999998
0.999999
1
1
1
1
1
1
1
1
1
0.999995
0.999994
0.999999
0.999999
1
1
1
1
1
1
1
1
1
1
1
1
1
1
1
1
1
1
1
1
0.999997
0.999999
1
1
1
1
1
1
1
1
1
1
1
1
1
1
1
1
1
1
1
1
1
0.999998
0.999999
1
1
1
1
1
1
1
1
1
1
1
1
1
1
1
1
1
1
1
1
1
1
0.999999
1
1
1
1
1
1
1
1
1
1
1
1
1
1
1
1
1
1
1
1
1
1
0.999999
1
1
1
1
1
1
1
1
1
1
1
1
1
1
1
1
1
1
1
1
1
1
1
1
1
1
1
1
1
1
1
1
1
1
1
1
1
1
1
1
1
1
1
1
1
1
1
1
1
1
1
1
1
1
1
1
1
1
1
1
1
1
1
1
1
1
1
1
1
1
1
1
1
1
1
1
1
1
1
1
1
1
1
1
1
1
1
1
1
1
1
1
1
1
1
1
1
1
1
1
1
1
1
1
1
1
1
1
1
1
1
1
1
1
1
1
1
1
1
1
1
1
1
1
1
1
1
1
1
1
1
1
1
1
1
1
1
1
1
1
1
1
1
1
1
1
1
1
1
1
1
1
1
1
1
1
1
1
1
1
1
1
1
1
1
1
1
1
1
1
1
1
1
1
1
1
1
1
1
1
1
1
1
1
1
1
1
1
1
1
1
1
1
1
1
1
1
1
1
1
1
1
1
1
1
1
1
1
1
1
1
1
1
1
1
1
1
1
1
1
1
1
1
1
1
1
1
1
1
1
1
1
1
1
0.999999
0.999999
1
1
1
1
1
1
1
1
1
1
1
1
1
1
1
1
1
1
1
1
0.999999
0.999999
0.999999
1
1
1
1
1
1
1
1
1
1
1
1
1
1
1
1
1
1
1
1
0.999999
0.999999
0.999999
1
1
1
1
1
1
1
1
1
1
1
1
1
1
1
1
1
1
1
0.999999
0.999999
0.999999
1
1
1
1
1
1
1
1
1
1
1
1
1
1
1
1
1
1
1
1
0.999999
0.999999
1
1
1
1
1
1
1
1
1
1
1
1
1
1
1
1
1
1
1
1
1
0.999999
0.999999
1
1
1
1
1
1
1
1
1
1
1
1
1
1
1
1
1
1
1
1
1
0.999999
0.999999
1
1
1
1
1
1
1
1
1
1
1
1
1
1
1
1
1
1
1
1
1
0.999999
0.999999
1
1
1
1
1
1
1
1
1
1
1
1
1
1
1
1
1
1
1
1
1
0.999999
0.999999
1
1
1
1
1
1
1
1
1
1
1
1
1
1
1
1
1
1
1
1
1
0.999999
1
1
1
1
1
1
1
1
1
1
1
1
1
1
1
1
1
1
1
1
1
1
1
1
1
1
1
1
1
1
1
1
1
1
1
1
1
1
1
1
1
1
1
1
1
1
1
1
1
1
1
1
1
1
1
1
1
1
1
1
1
1
1
1
1
1
0.00130358
0.00130619
0.00869033
0.0116927
0.0363344
0.0363775
0.0364119
0.0124954
0.0265254
0.00598604
0.00590246
0.00415718
0.034028
0.0280181
0.0124611
0.00215984
0.00285159
5.69016e-05
6.00901e-05
8.02284e-05
2.15312e-05
5.3787e-05
0.000295575
0.000575358
1.93497e-06
7.08922e-05
0.000708674
0.000554176
0.277594
0.257383
0.239681
0.24386
0.952991
0.953584
0.950867
0.956272
1
1
0.999989
1
0.999996
0.999999
0.999998
1
0.999967
0.999975
0.999988
0.999998
0.999964
0.999964
0.999965
0.999979
0.999966
0.999965
0.99997
0.999985
0.999995
0.999999
0.999999
0.999988
0.999999
0.999998
0.999988
0.999936
0.999999
0.999999
0.999962
0.999936
0.999999
0.999999
0.999999
0.999967
0.999999
1
0.999999
0.999998
1
1
1
0.999999
1
1
1
1
1
1
1
1
1
1
1
1
1
1
1
1
1
1
1
1
1
1
1
1
1
1
1
1
1
1
1
1
1
1
1
1
1
1
1
1
1
1
1
1
1
1
1
1
1
1
1
1
1
1
1
1
1
1
1
1
1
1
1
1
1
1
1
1
1
1
1
1
1
1
1
1
1
1
1
1
1
1
1
1
1
1
1
1
0.00623704
0.00262471
0.00196361
0.00359099
0.00337135
0.00231038
0.00342211
0.0155504
0.0367631
0.0937561
0.0937561
0.0937561
0.0336473
0.0119395
0.0110961
0.0563348
0.0454957
0.0253512
0.0423301
0.00241654
0.00196303
0.001963
0.0277604
0.0421787
0.014826
0.0704393
0.0497865
0.0100374
0.0705879
0.0937561
0.0937561
0.0843517
0.0684356
0.048629
0.0377276
0.0146698
0.0140258
0.0424095
0.00274922
0.0115141
0.0517582
0.173092
0.187673
0.175433
0.129011
0.00131361
0.000451848
0.00180664
0.0804024
0.0937524
0.0732378
0.0360348
0.0119108
0.00505448
0.00871178
0.00761706
0.0082525
0.00111147
0.0505401
0.178959
0.187673
0.187673
0.0978477
0.000437627
0.000444168
0.000453193
0.00118337
0.015128
0.0258115
0.00464364
0.00294491
0.00115322
0.00115115
0.00311353
0.000582098
5.51782e-07
7.90421e-05
0.00496923
0.127535
0.187673
0.174454
0.0138136
0.000438048
0.000743735
0.00117989
0.00137531
0.00184599
0.00276481
0.00716668
0.00679007
0.00180375
0.000283746
0.000274634
1.01942e-06
7.4343e-08
0.000711427
0.000859306
0.0628431
0.187648
0.175231
0.0458891
0.000437111
0.00122835
0.00178401
0.00113107
0.000894926
0.000900878
0.00122698
0.00180064
0.0018606
0.00110572
0.000332292
1.04266e-06
0.0187102
0.000536695
0.000701689
0.00602359
0.104257
0.136479
0.0754504
0.00794055
0.00773588
0.0131461
0.0495316
0.0604073
0.0441576
0.0408411
0.0367585
0.035241
0.0538471
0.163745
0.362549
0.344274
0.251012
0.251107
0.263283
0.260789
0.316251
0.44501
0.545951
0.559656
0.586578
0.682555
0.717578
0.725085
0.736961
0.754084
0.769044
0.822637
0.931563
0.963122
0.945787
0.958367
0.96134
0.971785
0.986305
0.998725
0.999589
0.999648
0.998343
0.99634
0.998029
0.997517
0.997299
0.997588
0.998337
0.998918
0.998131
0.997539
0.998053
0.997715
0.999999
0.999893
0.999666
1
1
0.99998
0.999975
1
0.999993
0.999992
0.999978
1
0.999999
0.999999
0.999999
0.999998
0.999997
0.999947
0.999948
1
1
1
1
0.999999
1
1
1
0.999997
0.999985
0.999989
1
1
0.999985
0.999917
0.999901
0.999907
0.999869
0.999909
1
1
1
1
0.999998
0.999998
0.999983
0.99993
0.999971
0.999978
0.999994
1
1
0.999998
0.999914
0.999872
0.999872
0.999871
0.999895
1
1
1
1
0.999997
0.999958
0.99982
0.999764
0.999835
0.999974
0.999963
0.999909
0.999945
0.999991
0.999988
0.99994
0.999871
0.999882
0.999986
0.999999
0.999998
1
0.999984
0.999947
0.999854
0.999763
0.999763
0.999764
0.999869
0.999873
0.999799
0.999801
0.99997
0.999988
0.999904
0.999874
0.999917
0.999988
0.999953
0.99996
0.999967
0.999911
0.99989
0.99978
0.99977
0.999786
0.999831
0.999803
0.999809
0.999939
0.999944
0.999965
0.999963
0.999885
0.999894
0.999983
0.999988
0.999936
0.999945
0.999904
0.999904
0.999886
0.999791
0.999818
0.999978
0.999972
0.999978
0.999984
0.999984
0.999981
0.99996
0.999952
0.99995
0.999957
0.999969
0.999987
0.999944
0.999996
0.999988
0.999947
0.99993
0.999917
0.999989
0.999977
0.99995
0.999965
0.999979
0.999969
0.999953
0.999948
0.999948
0.999948
0.999949
0.999965
0.999987
0.999981
0.999997
0.999995
0.999994
0.999992
0.99999
0.999993
0.999976
0.999947
0.999946
0.999946
0.999946
0.999952
0.999976
0.999974
0.999948
0.999947
0.999968
0.999995
0.999999
0.999998
0.999993
0.999992
0.999994
0.999993
0.999992
0.999992
0.999992
0.999966
0.999952
0.999952
0.999971
0.999998
0.999998
0.999977
0.999947
0.999986
0.999997
1
1
1
0.999996
0.999985
0.999984
0.999984
0.999988
0.999995
0.999991
0.999972
0.999961
0.999962
0.999976
0.999997
0.999999
0.999965
0.999986
0.999998
1
1
1
1
0.999999
0.999992
0.999994
0.999999
1
0.999994
0.999973
0.999966
0.999962
0.999963
0.999987
1
0.999975
0.999982
0.999999
1
1
1
1
1
1
1
1
1
1
1
1
0.999986
0.999984
0.999997
1
0.999979
0.999985
0.999999
1
1
1
1
1
1
1
1
1
1
1
1
1
1
1
0.999999
0.99999
0.999992
0.999999
1
1
1
1
1
1
1
1
1
1
1
1
1
1
1
1
0.999996
0.999997
1
1
1
1
1
1
1
1
1
1
1
1
1
1
1
1
0.999999
0.999999
1
1
1
1
1
1
1
1
1
1
1
1
1
1
1
1
1
0.999999
1
1
1
1
1
1
1
1
1
1
1
1
1
1
1
1
1
1
1
1
1
1
1
1
1
1
1
1
1
1
1
1
1
1
1
1
1
1
1
1
1
1
1
1
1
1
1
1
1
1
1
1
1
1
1
1
1
1
1
1
1
1
1
1
1
1
1
1
1
1
1
1
1
1
1
1
1
1
1
1
1
1
1
1
1
1
1
1
1
1
1
1
1
1
1
1
1
1
1
1
1
1
1
1
1
1
1
1
1
1
1
1
1
1
1
1
1
1
1
1
1
1
1
1
1
1
1
1
1
1
1
1
1
1
1
0.999998
1
1
1
1
1
1
1
1
1
1
1
1
0.999999
0.999999
1
1
1
1
0.999997
1
1
1
1
1
1
1
1
1
1
1
1
0.999998
0.999993
0.999997
1
1
1
0.999997
1
1
1
1
1
1
1
1
1
1
1
1
0.999999
0.999993
0.999993
0.999998
1
1
0.999997
1
1
1
1
1
1
1
1
1
1
1
1
1
0.999997
0.999993
0.999994
1
1
0.999999
1
1
1
1
1
1
1
1
1
1
1
1
1
0.999999
0.999996
0.999993
0.999995
0.999999
0.999998
1
1
1
1
1
1
1
1
1
1
1
1
1
1
1
0.999995
0.999994
0.999997
0.999997
1
1
1
1
1
1
1
1
1
1
1
1
1
1
1
0.999999
0.999998
0.999998
0.999999
1
1
1
1
1
1
1
1
1
1
1
1
1
1
1
1
1
1
1
1
1
1
1
1
1
1
1
1
1
1
1
1
1
1
1
1
1
1
)
;

boundaryField
{
    leftWall
    {
        type            alphaContactAngle;
        thetaProperties 
6
(
(galistan air) 90 0 0 0
(oil galistan) 90 0 0 0
(water oil) 90 0 0 0
(water air) 90 0 0 0
(oil air) 90 0 0 0
(water galistan) 90 0 0 0
);
        value           nonuniform List<scalar> 
50
(
9.64209e-10
1.10904e-09
3.28645e-09
3.66941e-09
0.000308047
0.0012526
0.000636543
0.000272906
0.00439407
0.035605
0.0398065
0.0398138
0.0331757
0.00471625
0.00131517
0.00126517
0.00101243
0.000966378
0.388371
0.986518
0.999084
0.999609
0.999987
0.999997
0.999999
1
1
1
1
1
1
1
1
1
1
1
1
1
1
1
1
1
1
1
1
1
1
1
1
1
)
;
    }
    rightWall
    {
        type            alphaContactAngle;
        thetaProperties 
6
(
(galistan air) 90 0 0 0
(oil galistan) 90 0 0 0
(water oil) 90 0 0 0
(water air) 90 0 0 0
(oil air) 90 0 0 0
(water galistan) 90 0 0 0
);
        value           nonuniform List<scalar> 
50
(
0.00571492
0.00657694
0.0147165
0.0198101
0.0259548
0.0243524
0.0245539
0.0412685
0.0423301
0.0424095
0.0082525
5.51782e-07
7.4343e-08
0.0187102
0.344274
0.945787
0.997715
0.999948
0.999909
0.999895
0.999986
0.999988
0.999988
0.999987
0.999987
0.999995
0.999997
0.999998
0.999999
0.999999
0.999999
1
1
1
1
1
1
1
1
1
0.999998
0.999997
0.999997
0.999997
0.999999
0.999998
0.999997
0.999999
1
1
)
;
    }
    lowerWall
    {
        type            alphaContactAngle;
        thetaProperties 
6
(
(galistan air) 90 0 0 0
(oil galistan) 90 0 0 0
(water oil) 90 0 0 0
(water air) 90 0 0 0
(oil air) 90 0 0 0
(water galistan) 90 0 0 0
);
        value           nonuniform List<scalar> 
62
(
9.64209e-10
9.93251e-10
9.57046e-10
9.19353e-10
9.45975e-10
9.94735e-10
7.49051e-10
4.23364e-10
2.0762e-10
1.16984e-10
9.94505e-11
9.85367e-11
9.89739e-11
1.02769e-10
1.14633e-10
1.40029e-10
1.84881e-10
2.18859e-10
2.1881e-10
1.68996e-10
1.36035e-10
2.12784e-07
5.15837e-07
5.15837e-07
7.77694e-07
5.36679e-07
3.21814e-08
7.2381e-10
-3.22237e-10
0.00598626
0.009468
0.00130358
0.00130619
0.00869033
0.0116927
0.000235109
0.000235141
0.000338788
0.00638401
0.00898083
0.00759497
0.0079446
0.00512676
0.000235109
0.00232562
0.00814687
0.00851815
0.0068146
0.00485975
0.00308717
0.00256002
0.00229295
0.00229295
0.00229295
0.00229348
0.00231702
0.00229619
0.00235592
0.00341051
0.00481689
0.00571132
0.00571492
)
;
    }
    atmosphere
    {
        type            inletOutlet;
        inletValue      uniform 1;
        value           nonuniform List<scalar> 
46
(
1
1
1
1
1
1
1
1
1
1
1
1
1
1
1
1
1
1
1
1
1
1
1
1
1
1
1
1
1
1
1
1
1
1
1
1
1
1
1
1
1
1
1
1
1
1
)
;
    }
    defaultFaces
    {
        type            empty;
    }
}


// ************************************************************************* //
