/*--------------------------------*- C++ -*----------------------------------*\
| =========                 |                                                 |
| \\      /  F ield         | OpenFOAM: The Open Source CFD Toolbox           |
|  \\    /   O peration     | Version:  2312                                  |
|   \\  /    A nd           | Website:  www.openfoam.com                      |
|    \\/     M anipulation  |                                                 |
\*---------------------------------------------------------------------------*/
FoamFile
{
    version     2.0;
    format      ascii;
    arch        "LSB;label=32;scalar=64";
    class       volScalarField;
    location    "4.65";
    object      p;
}
// * * * * * * * * * * * * * * * * * * * * * * * * * * * * * * * * * * * * * //

dimensions      [1 -1 -2 0 0 0 0];

internalField   nonuniform List<scalar> 
2268
(
4754.45
4753.13
4752.25
4754.76
4763.74
4781.76
4810.56
4851.1
4903.63
4967.74
5042.35
5126.35
5218.95
5319.58
5427.33
5540.17
5654.65
5766.04
5870.56
5963.98
6042.19
6100.35
6132.38
3957.94
3956.27
3954.95
3956.84
3965.28
3982.92
4011.5
4051.92
4104.47
4168.74
4243.58
4327.76
4420.54
4521.46
4629.75
4743.44
4859.04
4971.28
5076.66
5170.77
5249.74
5308.85
5341.83
3162.14
3159.74
3157.08
3157.5
3164.75
3181.58
3209.69
3249.87
3302.42
3367.04
3442.35
3526.92
3620.07
3721.53
3830.9
3946.28
4063.5
4177.97
4284.99
4380.27
4460.62
4521.58
4556.69
2366.73
2363.17
2358.44
2356.53
2361.96
2377.57
2405.01
2444.81
2497.34
2562.53
2638.63
2723.83
2817.5
2919.74
3030.75
3148.84
3269.47
3386.43
3495.83
3592.66
3675.06
3738.96
3777.24
1579.81
1575.45
1568.92
1564.26
1566.47
1578.55
1602.53
1639.16
1689.55
1754.92
1832.42
1918.42
2012.72
2115.84
2228.95
2350.82
2476.19
2596.55
2709.2
2807.81
2893.18
2961.54
3004.11
1030.26
1027.9
1023.75
1020.09
1019.08
1021.89
1029.77
1043.86
1065.52
1096.46
1139.01
1193.88
1260.07
1340.22
1438.07
1554.87
1684.02
1808.12
1925.34
2025.61
2114.31
2189.27
2237.42
841.039
841.125
840.622
839.669
837.735
834.484
830.009
825.092
820.461
816.849
817.404
825.731
842.206
868.69
907.678
961.681
1035.8
1117.07
1202.29
1288.77
1373.64
1439.96
1478.82
782.475
782.411
781.738
780.686
778.629
775.103
770.315
765.149
760.294
756.026
751.1
745.654
741.774
739.294
737.619
736.259
741.747
755.065
780.342
815.626
854.368
881.193
892.996
3122
3111.21
3069.34
3010.97
2945.53
2879.56
2823.35
2766.67
2692.81
2602.69
2523.51
2458.06
2400.58
2356.7
2326.37
2311.98
2305.29
2301.54
2299.04
2367.26
2344.38
2301.29
2243.46
2178.81
2111.76
2056.38
2001.34
1925.78
1840.62
1768.46
1705.96
1652.68
1610.94
1582.58
1571.78
1566.54
1562.2
1560.5
1675.12
1631.09
1572.15
1516.64
1466.3
1420.01
1379.83
1343.17
1297.15
1242.94
1189.76
1140.29
1102.9
1073.16
1063.61
1065.39
1069.01
1068.56
1066.15
1137.21
1099.77
1057.9
1030.9
1012.08
996.375
983.398
972.714
972.637
957.171
927.017
899.46
883.074
877.467
881.005
888.934
899.07
903.57
902.46
867.239
863.001
858.702
856.978
856.07
851.304
847.231
846.806
855.855
855.62
842.632
830.764
826.103
828.509
831.142
837.504
845.187
848.979
852.071
799.21
801.757
801.198
798.81
797.787
794.177
786.378
784.764
787.322
786.89
780.04
774.998
775.131
779.517
780.156
781.612
787.52
790.96
795.728
746.896
745.028
743.092
739.8
738.675
735.744
728.328
722.148
719.961
716.313
715.736
716.451
717.05
723.956
724.866
724.715
728.351
730.225
734.897
692.156
688.363
685.335
682.32
679.848
676.512
669.992
661.314
653.791
645.352
648.075
653.657
656.171
663.58
666.536
666.791
668.559
668.363
672.544
690.988
690.482
689.401
688.054
685.746
681.746
676.568
671.261
666.132
661.079
655.834
650.998
647.624
645.572
644.174
642.886
640.91
638.844
636.147
633.843
631.757
630.054
626.142
569.036
567.072
565.352
563.451
560.461
555.474
549.36
543.698
538.145
532.067
525.721
520.953
518.658
517.568
516.768
516.434
516.551
516.41
516.322
516.138
516.051
514.539
510.837
461.692
459.323
456.28
451.401
446.225
439.21
431.408
424.305
417.514
409.612
401.12
395.299
392.724
392.438
392.336
392.712
393.806
394.841
396.058
397.117
397.943
397.583
391.796
383.478
381.031
376.066
368.479
360.402
351.381
342.184
333.315
324.529
315.81
308.115
302.822
299.162
296.023
293.376
292.107
291.877
292.213
293.103
294.17
294.213
292.342
288.25
327.105
323.157
315.508
306.972
297.003
285.927
274.971
264.483
253.922
244.402
237.545
232.969
229.485
226.039
222.808
220.532
219.138
218.265
217.771
218.282
218.049
216.017
213.85
271.492
266.048
257.936
248.151
236.011
222.138
208.558
195.792
184.079
174.069
167.38
163.455
160.721
158.654
157.224
156.379
155.824
155.114
154.405
153.866
153.92
153.887
152.401
216.562
210.613
201.21
188.74
173.437
156.407
139.486
123.797
110.285
100.257
94.5199
92.6442
90.9038
90.2901
90.5863
91.2767
91.8083
91.9058
91.4854
90.3154
89.283
88.8236
87.4359
162.714
155.786
144.403
128.906
109.114
86.1578
64.0653
46.6712
34.3059
26.8874
23.9019
24.4144
26.1515
27.5978
29.2164
30.857
32.1353
32.9558
33.3332
33.0993
31.6702
30.954
30.5326
110.178
101.803
87.7841
68.5754
45.0278
23.892
10.9758
4.41519
1.3319
-0.033227
-0.562678
-0.427774
-0.0536311
0.405843
0.937444
1.59685
2.19761
2.66122
3.08339
3.3119
2.69533
2.77884
3.13691
60.5527
50.1347
35.5984
20.3001
7.39252
1.86126
-0.256305
-1.09526
-1.29841
-1.38481
-1.46957
-1.57578
-1.62927
-1.63
-1.60682
-1.59452
-1.6327
-1.69393
-1.6512
-1.48033
-1.44356
-1.60809
-1.64295
19.0333
11.3348
3.96874
0.639494
-0.261772
-0.576318
-1.21534
-1.46859
-1.50197
-1.59235
-1.6723
-1.71388
-1.72214
-1.72624
-1.72565
-1.72685
-1.75483
-1.7986
-1.81834
-1.80439
-1.78256
-1.76099
-1.75645
-1.39955
-1.38225
-1.22076
-1.12754
-1.31228
-1.55332
-1.74854
-1.7722
-1.75371
-1.79728
-1.82804
-1.84899
-1.86786
-1.88188
-1.89004
-1.89817
-1.91671
-1.93944
-1.9476
-1.93288
-1.91123
-1.89464
-1.8876
-1.89799
-1.93044
-2.01727
-2.05955
-2.07096
-2.08481
-2.05372
-1.99066
-1.97636
-1.96869
-1.97182
-1.98288
-1.99305
-2.00038
-2.00576
-2.01223
-2.02199
-2.03217
-2.03641
-2.03149
-2.02242
-2.01432
-2.00916
-2.37301
-2.39484
-2.40107
-2.35796
-2.29828
-2.24246
-2.19822
-2.14925
-2.12997
-2.11811
-2.11689
-2.12108
-2.12528
-2.12899
-2.13246
-2.13668
-2.14144
-2.14568
-2.14697
-2.14494
-2.14091
-2.13678
-2.13261
-2.54657
-2.52302
-2.4809
-2.43924
-2.40445
-2.37047
-2.33489
-2.29972
-2.27879
-2.26556
-2.25994
-2.25863
-2.25829
-2.25848
-2.25952
-2.26166
-2.26398
-2.26569
-2.26598
-2.2654
-2.26359
-2.26127
-2.25795
-2.58485
-2.57433
-2.55718
-2.53924
-2.51907
-2.49426
-2.46667
-2.43927
-2.42001
-2.40652
-2.39798
-2.39287
-2.38971
-2.3879
-2.38728
-2.38764
-2.38858
-2.38902
-2.38894
-2.38854
-2.38782
-2.38628
-2.38372
-2.68728
-2.68123
-2.66989
-2.65493
-2.63693
-2.61586
-2.59352
-2.57206
-2.55503
-2.54185
-2.53222
-2.52552
-2.52089
-2.51781
-2.51595
-2.51503
-2.51467
-2.51433
-2.51382
-2.51326
-2.51267
-2.51176
-2.51091
-2.79713
-2.79204
-2.78235
-2.76932
-2.75382
-2.73642
-2.71828
-2.70089
-2.6859
-2.67361
-2.66399
-2.65676
-2.65148
-2.64759
-2.64487
-2.64306
-2.64185
-2.6409
-2.64006
-2.63933
-2.63884
-2.63845
-2.63816
-2.9066
-2.90247
-2.89468
-2.88394
-2.87101
-2.85662
-2.84165
-2.82714
-2.81412
-2.80301
-2.79391
-2.78671
-2.78115
-2.77689
-2.77368
-2.7713
-2.76952
-2.76815
-2.76706
-2.76623
-2.76573
-2.76551
-2.76514
-3.0171
-3.01387
-3.00768
-2.99893
-2.98826
-2.97635
-2.96393
-2.95177
-2.94059
-2.93075
-2.92241
-2.91554
-2.91002
-2.90563
-2.90216
-2.89945
-2.89733
-2.89567
-2.89438
-2.89343
-2.89283
-2.89254
-2.89206
-3.12926
-3.12668
-3.12166
-3.11452
-3.10575
-3.09593
-3.08563
-3.07545
-3.0659
-3.0573
-3.04979
-3.04342
-3.03813
-3.0338
-3.03025
-3.02738
-3.02507
-3.02323
-3.02178
-3.02069
-3.01994
-3.01946
-3.01892
-3.243
-3.2409
-3.23679
-3.23095
-3.22375
-3.21565
-3.2071
-3.19858
-3.19045
-3.18298
-3.17632
-3.17053
-3.16558
-3.16141
-3.15792
-3.15501
-3.15262
-3.15066
-3.14911
-3.1479
-3.147
-3.14634
-3.14572
-3.3582
-3.35648
-3.35309
-3.34829
-3.34236
-3.33566
-3.32856
-3.32141
-3.31451
-3.30807
-3.30221
-3.297
-3.29245
-3.28853
-3.28518
-3.28232
-3.27992
-3.27792
-3.27629
-3.27499
-3.27397
-3.27318
-3.27249
-3.47472
-3.4733
-3.47047
-3.46651
-3.46159
-3.45603
-3.45012
-3.44413
-3.43828
-3.43274
-3.42763
-3.42299
-3.41886
-3.41522
-3.41205
-3.4093
-3.40695
-3.40495
-3.40329
-3.40193
-3.40083
-3.39995
-3.3992
-3.59237
-3.59121
-3.58879
-3.58553
-3.58144
-3.57681
-3.57187
-3.56684
-3.56188
-3.55714
-3.55269
-3.54859
-3.54487
-3.54154
-3.53858
-3.53598
-3.53371
-3.53175
-3.5301
-3.52871
-3.52757
-3.52662
-3.52583
-3.71098
-3.70999
-3.70802
-3.70528
-3.70186
-3.69798
-3.69385
-3.68961
-3.68542
-3.68136
-3.6775
-3.6739
-3.67057
-3.66754
-3.66481
-3.66237
-3.66021
-3.65833
-3.65671
-3.65533
-3.65416
-3.65319
-3.65237
-3.83044
-3.82961
-3.82796
-3.82566
-3.82282
-3.81953
-3.81607
-3.8125
-3.80895
-3.80548
-3.80214
-3.79898
-3.79602
-3.79328
-3.79078
-3.78852
-3.78649
-3.7847
-3.78313
-3.78178
-3.78062
-3.77963
-3.7788
-3.95062
-3.94993
-3.94854
-3.9466
-3.94419
-3.94147
-3.93855
-3.93554
-3.93251
-3.92954
-3.92666
-3.92389
-3.92127
-3.91881
-3.91654
-3.91445
-3.91256
-3.91087
-3.90938
-3.90807
-3.90693
-3.90596
-3.90513
-4.07143
-4.07086
-4.06969
-4.06805
-4.06601
-4.06371
-4.06126
-4.05872
-4.05614
-4.05359
-4.0511
-4.04868
-4.04636
-4.04417
-4.04211
-4.04021
-4.03846
-4.03688
-4.03547
-4.03422
-4.03312
-4.03218
-4.03136
-4.19279
-4.19232
-4.19134
-4.18995
-4.18821
-4.18626
-4.1842
-4.18206
-4.17986
-4.17766
-4.1755
-4.17339
-4.17134
-4.16939
-4.16753
-4.1658
-4.1642
-4.16274
-4.16142
-4.16024
-4.1592
-4.15829
-4.1575
-4.31464
-4.31426
-4.31344
-4.31226
-4.31079
-4.30914
-4.30738
-4.30555
-4.30367
-4.30178
-4.29989
-4.29804
-4.29623
-4.29449
-4.29283
-4.29127
-4.28981
-4.28847
-4.28724
-4.28614
-4.28516
-4.2843
-4.28355
-4.43691
-4.43662
-4.43595
-4.43496
-4.43372
-4.43232
-4.43079
-4.4292
-4.42758
-4.42593
-4.42428
-4.42264
-4.42105
-4.4195
-4.41803
-4.41662
-4.4153
-4.41408
-4.41296
-4.41194
-4.41103
-4.41023
-4.40952
-4.55955
-4.55933
-4.5588
-4.55799
-4.55696
-4.55575
-4.55439
-4.553
-4.55157
-4.55011
-4.54865
-4.54721
-4.5458
-4.54444
-4.54313
-4.54188
-4.5407
-4.5396
-4.53858
-4.53765
-4.53682
-4.53608
-4.53542
-4.68248
-4.68234
-4.68193
-4.68129
-4.68042
-4.67934
-4.67813
-4.67688
-4.6756
-4.6743
-4.67301
-4.67174
-4.6705
-4.6693
-4.66815
-4.66705
-4.66601
-4.66503
-4.66412
-4.66328
-4.66253
-4.66185
-4.66126
-4.80561
-4.80554
-4.80524
-4.80475
-4.80402
-4.80303
-4.80193
-4.80081
-4.79964
-4.79848
-4.79735
-4.79623
-4.79515
-4.79411
-4.79311
-4.79215
-4.79124
-4.79038
-4.78958
-4.78884
-4.78817
-4.78757
-4.78704
-4.92886
-4.92884
-4.92865
-4.92827
-4.92765
-4.92678
-4.92579
-4.92474
-4.92368
-4.92265
-4.92166
-4.92069
-4.91976
-4.91887
-4.91801
-4.91719
-4.91641
-4.91567
-4.91497
-4.91433
-4.91375
-4.91323
-4.91277
-5.05213
-5.05214
-5.05203
-5.05175
-5.05122
-5.05048
-5.04956
-5.04861
-5.04768
-5.04678
-5.04594
-5.04512
-5.04433
-5.04358
-5.04286
-5.04217
-5.04152
-5.0409
-5.04031
-5.03977
-5.03928
-5.03884
-5.03845
-5.17537
-5.17538
-5.17533
-5.17513
-5.17468
-5.17405
-5.17325
-5.17242
-5.17163
-5.17088
-5.17018
-5.16952
-5.16887
-5.16826
-5.16767
-5.16711
-5.16658
-5.16608
-5.1656
-5.16516
-5.16476
-5.1644
-5.16409
-5.29857
-5.29857
-5.29853
-5.29837
-5.298
-5.29747
-5.29682
-5.29615
-5.29552
-5.29494
-5.29439
-5.29388
-5.29339
-5.29291
-5.29246
-5.29202
-5.29161
-5.29122
-5.29085
-5.29051
-5.2902
-5.28993
-5.28969
-5.42178
-5.42175
-5.42168
-5.42151
-5.4212
-5.42079
-5.42031
-5.41983
-5.41938
-5.41897
-5.41859
-5.41823
-5.41788
-5.41754
-5.41722
-5.41691
-5.41661
-5.41633
-5.41607
-5.41583
-5.41561
-5.41542
-5.41526
-5.54503
-5.54494
-5.54483
-5.54463
-5.54436
-5.54407
-5.54377
-5.54349
-5.54324
-5.543
-5.54279
-5.54257
-5.54236
-5.54216
-5.54197
-5.54178
-5.5416
-5.54143
-5.54127
-5.54113
-5.541
-5.54089
-5.5408
-5.66838
-5.66818
-5.66805
-5.66785
-5.6676
-5.66739
-5.66724
-5.66715
-5.66709
-5.66703
-5.66697
-5.6669
-5.66684
-5.66677
-5.6667
-5.66663
-5.66657
-5.66651
-5.66645
-5.6664
-5.66636
-5.66634
-5.66633
619.718
618.21
616.711
614.259
505.424
501.088
497.709
494.103
383.852
379.609
377.221
375.112
284.502
283
281.861
280.241
213.253
213.034
211.934
210.006
150.404
149.138
147.769
146.311
86.2991
85.5036
84.4625
83.3628
30.1732
29.7491
29.0078
28.3321
2.60619
2.23005
2.11051
1.86379
-1.66946
-1.67385
-1.66943
-1.6759
-1.77691
-1.79021
-1.7939
-1.79211
-1.88608
-1.88618
-1.89379
-1.89789
-2.00713
-2.00665
-2.00675
-2.00612
-2.1286
-2.12582
-2.12326
-2.12076
-2.25421
-2.25122
-2.24742
-2.24549
-2.38141
-2.38163
-2.3814
-2.38036
-2.51069
-2.51195
-2.51534
-2.51573
-2.63884
-2.64067
-2.64385
-2.64484
-2.76543
-2.76619
-2.76766
-2.76877
-2.89191
-2.89207
-2.89261
-2.89324
-3.01865
-3.01857
-3.01868
-3.01898
-3.14541
-3.14528
-3.14522
-3.14527
-3.27213
-3.27197
-3.27185
-3.27178
-3.39879
-3.39859
-3.39843
-3.3983
-3.52538
-3.52514
-3.52495
-3.52478
-3.65189
-3.65162
-3.6514
-3.6512
-3.7783
-3.77802
-3.77778
-3.77756
-3.90463
-3.90434
-3.90408
-3.90385
-4.03086
-4.03057
-4.03031
-4.03007
-4.15701
-4.15672
-4.15646
-4.15622
-4.28308
-4.2828
-4.28255
-4.28231
-4.40907
-4.40881
-4.40856
-4.40834
-4.535
-4.53475
-4.53453
-4.53432
-4.66088
-4.66065
-4.66044
-4.66026
-4.7867
-4.7865
-4.78632
-4.78615
-4.91248
-4.9123
-4.91214
-4.912
-5.03821
-5.03806
-5.03793
-5.03781
-5.1639
-5.16378
-5.16368
-5.16358
-5.28955
-5.28946
-5.28939
-5.28932
-5.41516
-5.41511
-5.41507
-5.41503
-5.54075
-5.54073
-5.54072
-5.54071
-5.66634
-5.66635
-5.66636
-5.66638
606.971
600.729
597.343
594.14
588.765
583.719
577.428
567.904
556.302
549.308
547.134
550.562
559.266
568.352
574.824
577.031
577.039
573.845
577.006
487.121
479.537
477.769
474.337
467.141
460.582
455.903
447.203
439.309
435.173
431.024
429.108
435.197
442.635
449.494
452.15
451.573
447.385
452.813
370.41
364.599
363.117
360.516
354.637
349.978
349.22
344.22
342.959
339.973
335.925
332.899
330.519
330.406
331.557
332.45
333.182
335.654
342.467
276.861
273.349
269.963
267.195
263.853
263.826
264.535
264.494
265.076
262.952
260.35
258.438
251.75
246.678
243.337
242.577
244.137
248.458
254.138
206.766
202.972
199.169
194.06
193.036
194.643
195.272
196.044
196.502
196.186
195.025
192.862
186.779
182.149
178.438
176.155
174.925
175.528
179.471
143.747
140.168
137.247
133.617
131.418
129.789
129.364
129.097
129.282
129.971
129.78
127.48
123.534
119.712
115.802
112.003
108.485
105.851
108.363
81.4056
78.948
77.8427
75.9556
71.8258
66.6107
63.5846
62.5321
62.2407
62.8421
63.1293
61.8569
59.3544
56.0352
52.0727
48.7209
46.048
44.0902
45.6814
26.5697
24.9795
23.9793
23.4028
20.9889
16.8313
14.1913
13.7852
13.9096
14.6823
15.6029
15.8203
14.8161
12.3841
9.70316
9.07426
9.29795
9.64129
10.3651
0.572817
0.0365687
-0.300297
-0.757867
-1.12357
-1.16813
-1.09835
-1.01266
-0.801507
-0.375008
0.591871
0.787808
0.34451
-0.461346
-0.732676
-0.300708
0.134802
0.299251
0.586924
-1.67344
-1.64578
-1.6214
-1.6073
-1.58671
-1.5679
-1.55347
-1.55552
-1.57782
-1.59141
-1.59084
-1.6066
-1.66642
-1.64614
-1.53069
-1.49367
-1.51269
-1.49996
-1.48938
-1.78479
-1.77282
-1.75872
-1.73784
-1.71705
-1.69987
-1.68986
-1.68973
-1.70086
-1.71438
-1.72992
-1.74693
-1.76328
-1.73573
-1.68577
-1.6514
-1.64046
-1.6414
-1.64315
-1.89614
-1.88583
-1.87163
-1.85556
-1.83971
-1.82629
-1.81781
-1.81646
-1.82299
-1.8312
-1.83714
-1.84302
-1.85414
-1.84248
-1.82255
-1.80131
-1.78265
-1.78984
-1.78533
-2.00354
-1.99778
-1.98865
-1.9765
-1.96437
-1.95437
-1.9496
-1.95082
-1.95405
-1.95923
-1.96458
-1.96702
-1.96632
-1.9637
-1.95642
-1.94778
-1.93717
-1.93538
-1.93456
-2.11754
-2.1158
-2.11107
-2.10221
-2.09406
-2.0889
-2.09095
-2.0964
-2.09802
-2.09823
-2.10058
-2.1034
-2.09979
-2.09262
-2.08598
-2.08018
-2.0752
-2.07356
-2.07214
-2.24389
-2.24481
-2.2419
-2.2362
-2.23093
-2.22956
-2.23529
-2.24254
-2.24372
-2.24109
-2.24022
-2.24088
-2.23541
-2.22393
-2.21705
-2.21236
-2.21049
-2.20758
-2.20746
-2.37966
-2.38283
-2.38022
-2.37556
-2.37361
-2.37342
-2.37704
-2.37803
-2.37696
-2.37526
-2.37194
-2.36612
-2.3596
-2.35239
-2.34822
-2.34653
-2.34406
-2.34092
-2.34188
-2.51427
-2.51561
-2.51382
-2.51096
-2.51214
-2.51352
-2.51129
-2.50699
-2.50505
-2.50213
-2.49768
-2.49221
-2.48737
-2.4845
-2.48297
-2.48205
-2.47878
-2.47688
-2.47586
-2.64294
-2.64036
-2.63883
-2.63871
-2.64265
-2.64561
-2.64044
-2.63736
-2.63673
-2.63348
-2.62912
-2.62488
-2.62182
-2.62053
-2.61987
-2.61923
-2.6156
-2.6127
-2.60976
-2.76836
-2.76537
-2.76486
-2.76487
-2.76791
-2.77208
-2.76869
-2.76644
-2.76678
-2.76485
-2.76152
-2.75781
-2.75472
-2.75262
-2.75247
-2.75262
-2.7501
-2.74621
-2.74321
-2.8938
-2.89241
-2.89198
-2.89225
-2.8935
-2.89691
-2.89626
-2.89468
-2.8941
-2.89309
-2.89067
-2.88736
-2.88407
-2.88185
-2.88128
-2.88105
-2.87988
-2.87698
-2.87489
-3.01941
-3.01897
-3.0189
-3.0194
-3.02032
-3.02217
-3.02235
-3.02147
-3.02059
-3.01966
-3.01813
-3.01586
-3.01305
-3.01066
-3.00932
-3.00824
-3.00703
-3.00534
-3.00393
-3.14536
-3.14512
-3.14514
-3.14549
-3.14614
-3.14709
-3.14735
-3.14692
-3.14631
-3.14575
-3.1449
-3.14338
-3.14138
-3.13931
-3.13732
-3.13559
-3.13404
-3.13252
-3.13174
-3.27164
-3.27136
-3.27133
-3.27151
-3.27184
-3.27225
-3.27245
-3.27232
-3.272
-3.27159
-3.27096
-3.26993
-3.2686
-3.26691
-3.26493
-3.26307
-3.26144
-3.26006
-3.25947
-3.39807
-3.39773
-3.39761
-3.39764
-3.39776
-3.39793
-3.39805
-3.39804
-3.39791
-3.39768
-3.39727
-3.39658
-3.39555
-3.39415
-3.39244
-3.39062
-3.38903
-3.38777
-3.38722
-3.5245
-3.52414
-3.52393
-3.52385
-3.52386
-3.52392
-3.52398
-3.52401
-3.52398
-3.52387
-3.52365
-3.5232
-3.52244
-3.52131
-3.51983
-3.51811
-3.51647
-3.51534
-3.51489
-3.65089
-3.6505
-3.65024
-3.6501
-3.65003
-3.65003
-3.65006
-3.6501
-3.65011
-3.65009
-3.64998
-3.6497
-3.64915
-3.64827
-3.64704
-3.6455
-3.64391
-3.64286
-3.64245
-3.77722
-3.77681
-3.77651
-3.77633
-3.77622
-3.77619
-3.7762
-3.77623
-3.77627
-3.7763
-3.77626
-3.7761
-3.77571
-3.77501
-3.77398
-3.77264
-3.7712
-3.77029
-3.76989
-3.90349
-3.90307
-3.90275
-3.90253
-3.9024
-3.90235
-3.90235
-3.90238
-3.90243
-3.90247
-3.90248
-3.90239
-3.90211
-3.90156
-3.90068
-3.89949
-3.89826
-3.8975
-3.89712
-4.0297
-4.02927
-4.02894
-4.02871
-4.02857
-4.0285
-4.02849
-4.02852
-4.02857
-4.02862
-4.02864
-4.0286
-4.02839
-4.02792
-4.02716
-4.02608
-4.02509
-4.02448
-4.02412
-4.15586
-4.15542
-4.15509
-4.15486
-4.15471
-4.15463
-4.15461
-4.15463
-4.15468
-4.15472
-4.15474
-4.15471
-4.15455
-4.15413
-4.15343
-4.1525
-4.15172
-4.15124
-4.15091
-4.28196
-4.28152
-4.28121
-4.28098
-4.28082
-4.28074
-4.28071
-4.28072
-4.28076
-4.28078
-4.28079
-4.28074
-4.28056
-4.28015
-4.27953
-4.27885
-4.27817
-4.2778
-4.27751
-4.408
-4.4076
-4.40729
-4.40706
-4.40691
-4.40682
-4.40678
-4.40678
-4.40679
-4.40679
-4.40675
-4.40666
-4.40646
-4.40607
-4.40553
-4.405
-4.40452
-4.40423
-4.40394
-4.534
-4.53362
-4.53333
-4.53311
-4.53296
-4.53286
-4.53281
-4.53279
-4.53278
-4.53274
-4.53266
-4.53252
-4.53229
-4.53192
-4.53147
-4.53107
-4.53073
-4.53054
-4.53029
-4.65996
-4.65962
-4.65934
-4.65913
-4.65898
-4.65888
-4.65882
-4.65878
-4.65874
-4.65868
-4.65856
-4.65839
-4.65812
-4.65775
-4.65739
-4.65712
-4.65688
-4.65678
-4.65659
-4.78589
-4.78557
-4.78532
-4.78512
-4.78498
-4.78487
-4.7848
-4.78475
-4.78469
-4.78461
-4.78449
-4.78431
-4.78407
-4.78372
-4.78341
-4.78321
-4.78305
-4.78299
-4.78286
-4.91177
-4.9115
-4.91127
-4.91109
-4.91095
-4.91084
-4.91076
-4.9107
-4.91064
-4.91056
-4.91044
-4.91028
-4.91012
-4.90991
-4.90962
-4.9094
-4.90928
-4.9092
-4.90916
-5.03762
-5.03739
-5.0372
-5.03704
-5.03691
-5.0368
-5.03672
-5.03665
-5.03658
-5.0365
-5.0364
-5.03628
-5.03617
-5.03609
-5.03588
-5.03568
-5.03553
-5.03543
-5.03548
-5.16343
-5.16325
-5.1631
-5.16297
-5.16286
-5.16276
-5.16267
-5.1626
-5.16253
-5.16245
-5.16236
-5.16227
-5.16219
-5.16215
-5.16208
-5.16197
-5.16181
-5.1617
-5.16178
-5.28921
-5.28909
-5.28898
-5.28888
-5.28879
-5.28871
-5.28863
-5.28855
-5.28848
-5.2884
-5.28832
-5.28825
-5.28819
-5.28816
-5.28818
-5.2882
-5.28812
-5.288
-5.28807
-5.41497
-5.4149
-5.41484
-5.41478
-5.41472
-5.41466
-5.41459
-5.41452
-5.41444
-5.41436
-5.41428
-5.41421
-5.41416
-5.41415
-5.41421
-5.4143
-5.41432
-5.41422
-5.41423
-5.54069
-5.54068
-5.54067
-5.54066
-5.54064
-5.54061
-5.54056
-5.5405
-5.54043
-5.54035
-5.54026
-5.54018
-5.54012
-5.5401
-5.54014
-5.54029
-5.54035
-5.54031
-5.54028
-5.6664
-5.66646
-5.66651
-5.66655
-5.66658
-5.66659
-5.66658
-5.66655
-5.66649
-5.66642
-5.66633
-5.66622
-5.66613
-5.66607
-5.66609
-5.66633
-5.6664
-5.66641
-5.66642
)
;

boundaryField
{
    leftWall
    {
        type            calculated;
        value           nonuniform List<scalar> 
50
(
4754.45
3957.94
3162.14
2366.73
1579.81
1030.26
841.039
782.475
690.988
569.036
461.692
383.478
327.105
271.492
216.562
162.714
110.178
60.5527
19.0333
-1.39955
-1.89799
-2.37301
-2.54657
-2.58485
-2.68728
-2.79713
-2.9066
-3.0171
-3.12926
-3.243
-3.3582
-3.47472
-3.59237
-3.71098
-3.83044
-3.95062
-4.07143
-4.19279
-4.31464
-4.43691
-4.55955
-4.68248
-4.80561
-4.92886
-5.05213
-5.17537
-5.29857
-5.42178
-5.54503
-5.66838
)
;
    }
    rightWall
    {
        type            calculated;
        value           nonuniform List<scalar> 
50
(
2299.04
1560.5
1066.15
902.46
852.071
795.728
734.897
672.544
577.006
452.813
342.467
254.138
179.471
108.363
45.6814
10.3651
0.586924
-1.48938
-1.64315
-1.78533
-1.93456
-2.07214
-2.20746
-2.34188
-2.47586
-2.60976
-2.74321
-2.87489
-3.00393
-3.13174
-3.25947
-3.38722
-3.51489
-3.64245
-3.76989
-3.89712
-4.02412
-4.15091
-4.27751
-4.40394
-4.53029
-4.65659
-4.78286
-4.90916
-5.03548
-5.16178
-5.28807
-5.41423
-5.54028
-5.66642
)
;
    }
    lowerWall
    {
        type            calculated;
        value           nonuniform List<scalar> 
62
(
5152.6
5151.28
5150.4
5152.91
5161.89
5179.91
5208.71
5249.25
5301.78
5365.89
5440.5
5524.49
5617.1
5717.73
5825.48
5938.32
6052.8
6164.19
6268.71
6362.13
6440.33
6498.48
6530.51
6132.38
5341.83
4556.69
3777.24
3004.11
2237.42
1478.82
892.996
681.596
680.236
678.628
676.541
3122
2367.26
1675.12
1137.21
867.239
799.21
746.896
692.156
3504.27
3494.92
3452
3392.99
3327.38
3261.46
3205.96
3149.95
3076.12
2985.99
2906.87
2842.7
2785.32
2741.42
2711.1
2696.69
2689.93
2685.51
2682.96
)
;
    }
    atmosphere
    {
        type            calculated;
        value           nonuniform List<scalar> 
46
(
-5.73
-5.72964
-5.72967
-5.72953
-5.72931
-5.72913
-5.72906
-5.72904
-5.72905
-5.72906
-5.72907
-5.72907
-5.72908
-5.72908
-5.72907
-5.72907
-5.72906
-5.72905
-5.72904
-5.72904
-5.72904
-5.72904
-5.72904
-5.72906
-5.72909
-5.72913
-5.72917
-5.72923
-5.72934
-5.72944
-5.72952
-5.72958
-5.72962
-5.72964
-5.72963
-5.7296
-5.72954
-5.72945
-5.72934
-5.72923
-5.72911
-5.72904
-5.72954
-5.72948
-5.72944
-5.72941
)
;
    }
    defaultFaces
    {
        type            empty;
    }
}


// ************************************************************************* //
