/*--------------------------------*- C++ -*----------------------------------*\
| =========                 |                                                 |
| \\      /  F ield         | OpenFOAM: The Open Source CFD Toolbox           |
|  \\    /   O peration     | Version:  2312                                  |
|   \\  /    A nd           | Website:  www.openfoam.com                      |
|    \\/     M anipulation  |                                                 |
\*---------------------------------------------------------------------------*/
FoamFile
{
    version     2.0;
    format      ascii;
    arch        "LSB;label=32;scalar=64";
    class       volScalarField;
    location    "5.5";
    object      alpha.water_0;
}
// * * * * * * * * * * * * * * * * * * * * * * * * * * * * * * * * * * * * * //

dimensions      [0 0 0 0 0 0 0];

internalField   nonuniform List<scalar> 
2268
(
3.16063e-07
3.12007e-07
2.70215e-07
8.17972e-08
5.58863e-10
5.55277e-10
5.43863e-10
3.97147e-10
2.59343e-10
1.72042e-10
1.2649e-10
1.04295e-10
9.89649e-11
9.89497e-11
1.04107e-10
1.21142e-10
1.60856e-10
2.2252e-10
3.24117e-10
6.62125e-10
1.15786e-09
1.36409e-09
1.37554e-09
2.37699e-07
2.02437e-07
7.037e-08
1.07908e-08
7.64427e-10
8.91494e-10
6.88695e-10
4.2791e-10
3.12513e-10
2.78696e-10
2.73225e-10
2.83812e-10
2.96205e-10
2.819e-10
2.46058e-10
2.471e-10
3.12207e-10
4.35368e-10
6.15335e-10
9.06177e-10
1.1939e-09
1.28969e-09
1.24319e-09
3.54304e-08
5.21587e-09
1.36857e-09
2.90106e-09
4.14493e-09
4.27963e-09
3.72716e-09
1.87163e-09
8.69973e-10
6.77443e-10
7.31022e-10
9.82054e-10
1.04677e-09
1.02219e-09
8.11419e-10
6.19705e-10
5.2592e-10
5.51732e-10
5.78499e-10
8.5305e-10
9.40055e-10
8.40069e-10
9.10588e-10
4.97243e-10
1.72163e-09
1.27183e-09
1.27041e-09
1.95041e-09
2.33e-09
4.44304e-09
1.17246e-09
6.66423e-10
6.3963e-10
8.38351e-10
9.95481e-10
8.31292e-10
5.74967e-10
4.75077e-10
3.83577e-10
3.66486e-10
4.88814e-10
5.1314e-10
5.55027e-10
5.38143e-10
5.20705e-10
5.18847e-10
6.73227e-11
-1.79925e-20
6.10645e-11
-8.90571e-14
5.76743e-11
-2.71063e-12
5.09064e-08
-7.39377e-13
-2.08307e-13
-5.81275e-22
1.71891e-22
-6.24894e-23
1.36528e-28
2.73705e-29
-1.05071e-28
1.85119e-29
5.31003e-28
-1.29584e-28
-1.5328e-28
-1.75725e-29
-5.44886e-37
1.11536e-16
0.00852397
0.0783431
0.0694251
0.054927
0.0390645
0.0247904
0.0142318
0.00803727
0.00512764
0.00352793
0.00207489
0.000669288
0.00473095
0.0204838
0.0439342
0.0835923
0.131062
0.162127
0.220526
0.295493
0.37048
0.435912
0.482365
0.537575
0.796269
0.781153
0.750973
0.708939
0.659586
0.608957
0.56572
0.536399
0.513903
0.503578
0.513284
0.551579
0.607253
0.683074
0.772225
0.833411
0.842689
0.870767
0.901578
0.931267
0.943546
0.938819
0.935636
0.998261
0.999058
0.998691
0.997163
0.99679
0.996929
0.998453
0.999608
0.999762
0.999728
0.999612
0.998952
0.99957
0.999789
0.999513
0.997085
0.993782
0.991828
0.993763
0.998372
0.999222
0.998603
0.976481
0.00906728
0.00719875
0.0036204
0.00196238
0.00325302
0.00484303
0.00549356
0.00689081
0.00764846
0.00792048
0.00821216
0.00820831
0.00750905
0.00406603
0.00382276
0.00398583
0.00349651
0.0026946
0.00269744
0.00316477
0.00208444
0.00062461
-3.53915e-07
-9.69331e-07
3.76464e-19
7.38739e-21
3.02612e-21
0.000260835
0.000684811
0.000591183
0.000524493
0.000524607
0.000585285
0.000600114
0.000666203
0.000424332
0.000239969
0.000157177
0.421726
0.446859
0.430694
0.392779
0.341474
0.276518
0.189036
0.102745
0.0379053
0.0071446
0.00182686
0.004113
0.0096977
0.0124763
0.00637617
2.7145e-05
2.5984e-05
2.60796e-05
2.5984e-05
0.828921
0.988993
0.955275
0.916068
0.882261
0.845501
0.805569
0.721696
0.611989
0.552857
0.500904
0.49715
0.482517
0.491302
0.404503
0.255627
0.259007
0.228984
0.171674
0.945706
0.991198
0.991159
0.991716
0.991692
0.974071
0.970525
0.965816
0.946994
0.956872
0.919691
0.906519
0.883012
0.881956
0.881926
0.583309
0.734428
0.869002
0.587515
0.856164
0.983444
0.984306
0.985018
0.988484
0.989068
0.989006
0.974172
0.962892
0.979924
0.985461
0.97322
0.913383
0.849447
0.823168
0.687928
0.856191
0.950891
0.706922
0.843033
0.977516
0.991611
0.985008
0.985812
0.98764
0.990896
0.988525
0.978579
0.984689
0.988044
0.987933
0.959819
0.863258
0.807995
0.778457
0.904967
0.950872
0.787932
0.845223
0.981794
0.995517
0.989103
0.983801
0.988099
0.990898
0.990887
0.988527
0.988293
0.988155
0.987917
0.914339
0.854187
0.874467
0.943158
0.950903
0.950907
0.84605
0.996941
0.999213
0.999451
0.999454
0.999451
0.998792
0.998909
0.999772
0.99979
0.999789
0.99979
0.999789
0.99979
0.999789
0.999789
0.999789
0.999789
0.999789
0.999789
0.999789
0.999789
0.999095
0.998252
0.871938
0.906086
0.939674
0.957514
0.965095
0.975165
0.971809
0.975912
0.977373
0.969165
0.965836
0.966839
0.970396
0.980454
0.968615
0.920272
0.850544
0.827251
0.817238
0.824768
0.83842
0.853533
0.85379
0.195748
0.220597
0.275422
0.320879
0.338481
0.410238
0.477704
0.500179
0.511166
0.528953
0.57412
0.52751
0.466767
0.343279
0.207049
0.135021
0.102191
0.0853635
0.0744484
0.0703557
0.0732814
0.0836376
0.111813
-9.98638e-13
-1.52735e-08
3.37392e-21
5.34164e-20
3.03591e-25
4.42248e-24
3.34862e-12
3.22106e-14
-5.02244e-09
0.00110547
0.0122311
0.00116529
1.82849e-14
3.60595e-21
-4.5495e-20
-6.27125e-20
-1.02527e-10
-7.09227e-09
-1.15905e-08
-2.96598e-09
2.33361e-05
1.6986e-08
1.8783e-11
6.10048e-09
8.18817e-06
2.68149e-06
3.24504e-06
9.55079e-06
2.1492e-05
2.68148e-05
5.5582e-06
5.19216e-05
6.43828e-05
1.97144e-13
4.51251e-13
1.42666e-06
3.48807e-07
3.43627e-05
9.86806e-05
0.000106822
7.19962e-05
0.000111397
0.000804623
0.000901383
0.000273356
0.000278966
4.7325e-05
8.73249e-05
4.77978e-05
9.70397e-05
0.000186942
0.000214268
0.000217699
0.000115671
7.5375e-07
4.72107e-07
4.03815e-07
1.44472e-05
7.13956e-05
7.6869e-05
0.000121774
0.000235252
0.000260833
0.000208143
0.000201481
0.000535271
0.00428031
0.00804628
0.00372414
0.000272638
0.000273064
0.00015015
9.90386e-06
1.20326e-05
0.00149571
0.00366431
0.00346331
0.00109626
0.000836304
0.000938327
0.000990907
0.00078091
0.000280075
0.000119829
0.00014745
0.00129073
0.00640004
0.00707316
0.00256352
0.00255287
0.017825
0.019832
0.000273432
0.000273432
2.76204e-05
0.000302599
0.00375858
0.00459194
0.00459043
0.00459196
0.00458234
0.00450695
0.00427008
0.00324859
0.00163242
0.000344513
0.00014916
0.000735561
0.00255631
0.010921
0.0109705
0.00909798
0.00508725
0.0157947
0.0198321
0.000148101
0.000119366
6.94076e-07
7.21802e-05
0.000545076
0.00107656
0.00218804
0.00197386
0.000861676
0.000413785
0.000131864
5.93939e-07
3.5244e-06
0.000157184
0.000453752
0.0013949
0.00250936
0.00204262
0.00342194
0.00342368
0.00373903
0.00466822
0.00700743
3.73707e-08
2.2357e-08
2.19177e-08
4.02434e-06
4.9798e-21
-3.09299e-10
1.57457e-06
3.45268e-07
6.6952e-08
2.14789e-07
4.05344e-07
7.01302e-07
3.24589e-06
5.72507e-05
0.000218543
2.03383e-06
1.95332e-06
1.94682e-06
2.27908e-06
1.89796e-06
1.19755e-07
1.01214e-07
2.83659e-08
4.70598e-08
2.18923e-08
2.14068e-08
1.47676e-08
2.74175e-08
6.25616e-08
4.05097e-08
4.09296e-08
1.74147e-07
5.71737e-07
9.91581e-07
1.1522e-06
2.28363e-07
2.67363e-08
2.69653e-08
1.78524e-07
2.90418e-06
1.97076e-06
1.82566e-06
1.8264e-06
3.99964e-06
9.53574e-06
1.20999e-05
2.11368e-07
1.68902e-07
6.64418e-08
1.48779e-08
1.58645e-08
2.20304e-08
1.23842e-07
2.37841e-07
1.58344e-06
1.77474e-06
1.76956e-06
1.19776e-06
7.18413e-08
2.65182e-08
3.59455e-06
8.18704e-06
9.28597e-06
6.61814e-06
1.8264e-06
6.37312e-06
3.53111e-05
3.98931e-05
3.08907e-05
2.17815e-07
1.44747e-07
4.49228e-08
1.43009e-08
1.12159e-08
1.1268e-08
1.59195e-07
5.58451e-07
8.32149e-07
5.56944e-07
2.71431e-07
1.8847e-08
2.62073e-08
2.59764e-08
7.86386e-06
1.56391e-05
1.5665e-05
3.13342e-06
4.28835e-06
3.91542e-05
4.0004e-05
4.00878e-05
3.58233e-05
1.37014e-07
6.80845e-08
2.35535e-08
1.37069e-08
1.11775e-08
3.1007e-08
1.01308e-07
6.91943e-08
1.70824e-08
2.85925e-09
5.73773e-09
1.638e-08
2.63549e-08
1.12655e-07
7.26974e-07
4.28916e-06
2.07816e-06
7.85282e-07
1.6471e-05
4.0003e-05
4.00804e-05
4.01009e-05
1.0478e-05
4.17196e-08
1.81144e-08
1.04884e-08
1.00756e-08
1.11261e-08
2.10511e-08
2.12463e-08
1.23175e-08
5.1776e-09
2.82183e-09
4.04384e-09
8.10567e-09
1.11722e-08
7.28684e-09
1.74552e-09
1.74162e-09
1.74543e-09
3.20254e-09
2.01109e-05
4.00773e-05
4.00612e-05
2.22062e-05
1.0711e-06
1.65305e-08
7.54517e-09
7.03355e-09
7.92935e-09
8.29968e-09
6.3e-09
2.72141e-09
1.54714e-09
1.48386e-09
2.20588e-09
2.62451e-09
2.34206e-09
2.94212e-09
2.94338e-09
3.37844e-09
4.07288e-09
2.81172e-09
2.38865e-09
3.90118e-06
1.45461e-05
2.19045e-05
1.08474e-06
1.1024e-06
1.08376e-08
4.21127e-09
4.51537e-09
5.34296e-09
4.97487e-09
3.24726e-09
2.00448e-09
1.45031e-09
1.36407e-09
1.56739e-09
1.86775e-09
2.28649e-09
2.9408e-09
4.04808e-09
5.08148e-09
5.86113e-09
4.71644e-09
6.92228e-09
6.95289e-09
6.98186e-09
6.95391e-09
5.09148e-06
6.57519e-06
1.26594e-08
2.95025e-09
2.87273e-09
3.33368e-09
2.95296e-09
2.23225e-09
1.60722e-09
1.15984e-09
9.51992e-10
9.80055e-10
1.20147e-09
1.61448e-09
2.2471e-09
3.27084e-09
4.24124e-09
4.68075e-09
3.43357e-09
2.52127e-09
1.11374e-08
5.14936e-08
2.88597e-07
8.98575e-06
1.9605e-05
1.29054e-08
2.16269e-09
1.79697e-09
2.01591e-09
1.74715e-09
1.3698e-09
1.01459e-09
7.3712e-10
5.8211e-10
5.60569e-10
6.62589e-10
8.66426e-10
1.17568e-09
1.62767e-09
2.15717e-09
2.41457e-09
1.89533e-09
2.2895e-09
1.26991e-08
4.09456e-08
6.63777e-08
1.62854e-06
2.15356e-05
1.25262e-08
1.44489e-09
1.09566e-09
1.18763e-09
9.88315e-10
7.52772e-10
5.5673e-10
4.14572e-10
3.24924e-10
2.89514e-10
3.16712e-10
3.72036e-10
4.74046e-10
6.52827e-10
8.6413e-10
1.05317e-09
1.21417e-09
1.83257e-09
1.06725e-08
5.54842e-08
4.91043e-08
3.09158e-08
2.30705e-08
1.19357e-08
9.49154e-10
6.43455e-10
6.72592e-10
5.62613e-10
4.46169e-10
3.40965e-10
2.43079e-10
1.84414e-10
1.52314e-10
1.47191e-10
1.57743e-10
1.95118e-10
2.60655e-10
3.56432e-10
4.7919e-10
6.14542e-10
1.17309e-09
7.79848e-09
5.29902e-08
8.2701e-08
4.89295e-08
2.30781e-08
1.14873e-08
6.46045e-10
4.49059e-10
4.66442e-10
4.44909e-10
4.2935e-10
3.39804e-10
2.05192e-10
1.42116e-10
1.00531e-10
7.61588e-11
7.19151e-11
8.57433e-11
1.13388e-10
1.58698e-10
2.22657e-10
3.1708e-10
4.94742e-10
1.36084e-09
1.07581e-08
7.26551e-08
7.4601e-08
3.76151e-08
1.11145e-08
4.56174e-10
3.9241e-10
5.10891e-10
7.97447e-10
8.51474e-10
5.6949e-10
2.62484e-10
1.66783e-10
9.95198e-11
6.01183e-11
4.15258e-11
3.68908e-11
4.29028e-11
6.0999e-11
9.55598e-11
1.60601e-10
2.59757e-10
2.92077e-10
4.41971e-10
5.71594e-09
3.82942e-08
2.34397e-08
1.08998e-08
4.09429e-10
4.29571e-10
9.36697e-10
1.30566e-09
1.33565e-09
8.22153e-10
3.11119e-10
2.0218e-10
1.194e-10
6.43365e-11
3.53539e-11
2.23213e-11
1.93866e-11
2.48649e-11
4.16643e-11
7.82743e-11
1.44403e-10
2.52424e-10
3.38508e-10
3.41149e-10
3.57095e-10
5.04881e-09
1.06788e-08
4.0614e-10
6.22511e-10
1.31987e-09
1.89822e-09
2.14463e-09
1.12853e-09
3.57072e-10
2.44555e-10
1.44069e-10
7.47311e-11
3.90089e-11
1.99908e-11
1.20583e-11
1.0942e-11
1.63574e-11
3.08936e-11
6.25033e-11
1.23727e-10
2.30265e-10
3.93143e-10
7.62777e-10
2.62374e-09
1.05565e-08
4.5294e-10
9.43254e-10
1.71375e-09
2.84326e-09
4.56479e-09
1.30382e-09
3.92535e-10
2.86785e-10
1.68149e-10
8.51809e-11
4.38911e-11
2.30332e-11
1.08991e-11
6.46353e-12
6.55649e-12
1.0859e-11
2.14603e-11
4.3674e-11
9.08851e-11
2.1633e-10
5.19307e-10
1.11321e-09
1.04817e-08
6.46208e-10
1.36975e-09
2.7909e-09
8.94538e-09
1.44949e-08
8.83493e-10
4.14806e-10
3.36336e-10
1.86677e-10
9.12601e-11
4.74423e-11
2.50367e-11
1.25963e-11
5.65871e-12
3.42308e-12
3.95175e-12
7.12842e-12
1.40849e-11
2.93283e-11
6.27632e-11
1.54511e-10
3.52332e-10
1.05283e-08
9.71243e-10
3.18107e-09
1.6671e-08
5.74036e-08
3.22749e-08
4.32768e-10
4.31503e-10
3.86236e-10
1.88587e-10
9.01051e-11
4.76877e-11
2.64542e-11
1.37835e-11
6.51733e-12
2.7081e-12
1.7201e-12
2.33297e-12
4.26069e-12
8.42184e-12
1.88211e-11
4.00019e-11
8.19097e-11
1.06242e-08
2.51503e-09
2.23122e-08
1.6251e-07
3.21601e-07
2.49643e-08
4.33118e-10
4.94651e-10
3.8987e-10
1.73267e-10
8.03825e-11
4.40213e-11
2.57298e-11
1.41382e-11
7.02327e-12
3.05748e-12
1.09536e-12
8.59855e-13
1.33583e-12
2.51941e-12
4.65765e-12
9.61906e-12
1.86373e-11
1.10082e-08
1.00103e-08
1.24886e-07
7.0118e-07
5.39122e-07
4.5343e-10
4.46896e-10
5.79882e-10
3.6777e-10
1.46258e-10
6.55656e-11
3.65547e-11
2.27974e-11
1.35406e-11
7.10633e-12
3.25971e-12
1.15322e-12
4.22974e-13
4.45321e-13
7.56546e-13
1.42972e-12
2.58343e-12
4.40166e-12
1.20167e-08
3.42059e-08
3.15202e-07
7.0521e-07
4.26208e-07
4.49198e-10
5.45591e-10
6.59105e-10
3.24181e-10
1.14058e-10
4.83519e-11
2.77833e-11
1.85109e-11
1.17884e-11
6.72935e-12
3.23787e-12
1.34658e-12
2.99061e-13
1.67957e-13
2.39952e-13
4.15488e-13
7.15157e-13
1.15057e-12
1.28166e-08
6.09683e-08
4.3088e-07
6.94367e-07
6.9966e-08
4.46769e-10
8.68466e-10
6.58581e-10
2.58007e-10
8.25617e-11
3.36827e-11
1.94481e-11
1.34132e-11
9.21713e-12
5.74933e-12
3.04882e-12
1.38851e-12
3.5768e-13
8.39107e-14
7.68641e-14
1.27485e-13
2.13844e-13
3.10272e-13
1.44626e-08
9.45433e-08
6.17861e-07
4.55228e-07
4.66672e-10
5.78046e-10
1.14794e-09
5.54157e-10
1.62987e-10
5.82793e-11
2.21852e-11
1.28598e-11
9.08945e-12
6.3894e-12
4.32851e-12
2.60109e-12
1.3024e-12
4.24315e-13
6.6301e-14
2.88958e-14
3.37396e-14
5.59485e-14
8.23507e-14
1.78097e-08
1.42691e-07
6.32419e-07
3.87897e-07
4.74643e-10
9.29301e-10
1.586e-09
5.2113e-10
1.39142e-10
4.12438e-11
1.41365e-11
7.81107e-12
5.51317e-12
3.96641e-12
2.87443e-12
1.91164e-12
1.07087e-12
4.65262e-13
7.74519e-14
1.27556e-14
1.01341e-14
1.65299e-14
2.03975e-14
2.036e-08
2.07255e-07
6.35972e-07
3.31941e-07
4.57888e-10
1.58256e-09
2.10646e-09
5.76122e-10
1.37438e-10
2.94152e-11
8.30995e-12
4.59628e-12
3.10693e-12
2.22024e-12
1.64216e-12
1.20329e-12
7.81496e-13
4.04621e-13
8.8178e-14
9.72157e-15
3.18112e-15
4.03704e-15
5.61409e-15
2.20377e-08
2.02028e-07
6.36042e-07
1.31291e-07
4.56369e-10
2.84406e-09
2.62381e-09
6.52695e-10
1.41877e-10
2.34652e-11
4.96779e-12
2.55061e-12
1.66108e-12
1.1075e-12
8.01272e-13
6.3282e-13
4.75269e-13
2.98593e-13
9.08669e-14
1.12707e-14
1.518e-15
1.2222e-15
1.50162e-15
2.12601e-08
1.53746e-07
3.60274e-07
2.85277e-08
4.00665e-09
8.59654e-09
2.95036e-09
6.89017e-10
1.41002e-10
1.93844e-11
2.75775e-12
1.27056e-12
8.37743e-13
5.11556e-13
3.39604e-13
2.67687e-13
2.26825e-13
1.74891e-13
7.76556e-14
1.29663e-14
1.23223e-15
3.43945e-16
4.22726e-16
2.10601e-08
1.22772e-07
3.11091e-07
2.29519e-08
6.37509e-09
1.14075e-08
3.06928e-09
6.31203e-10
1.18292e-10
1.48813e-11
1.4448e-12
5.98994e-13
3.85969e-13
2.18465e-13
1.25939e-13
9.06049e-14
8.18391e-14
7.60909e-14
4.87179e-14
1.24315e-14
1.31898e-15
1.31355e-16
9.99486e-17
2.2241e-08
1.1893e-07
2.76947e-07
3.24747e-09
1.40731e-08
1.13522e-08
2.56356e-09
4.79759e-10
7.95075e-11
8.94713e-12
6.72733e-13
2.33408e-13
1.5582e-13
8.49829e-14
4.21187e-14
2.47299e-14
2.14328e-14
2.34301e-14
2.22132e-14
9.25427e-15
1.36749e-15
8.18778e-17
2.51314e-17
2.37002e-08
7.64627e-08
5.85831e-08
2.06443e-09
1.50946e-08
6.72705e-09
1.37781e-09
2.76557e-10
3.49409e-11
3.541e-12
2.22519e-13
7.03541e-14
4.99172e-14
2.78123e-14
1.25848e-14
5.72142e-15
4.01111e-15
4.84871e-15
6.44416e-15
5.12867e-15
1.02029e-15
8.06806e-17
7.5458e-18
2.45874e-08
7.85029e-09
3.18585e-09
7.76159e-09
1.30507e-08
2.25726e-09
5.38288e-10
1.09254e-10
1.03437e-11
8.07859e-13
3.96071e-14
1.37053e-14
1.09482e-14
6.55257e-15
2.94088e-15
1.0897e-15
5.32792e-16
6.83325e-16
1.27487e-15
1.83535e-15
6.5221e-16
7.4517e-17
5.37264e-18
5.4208e-08
7.9809e-09
3.18374e-09
1.66848e-08
2.23718e-09
3.2899e-10
9.88431e-11
1.66874e-11
1.06937e-12
4.36415e-14
1.69028e-15
1.2994e-15
1.21099e-15
8.11284e-16
3.79575e-16
1.28923e-16
4.52852e-17
5.73727e-17
1.76696e-16
4.27968e-16
3.44719e-16
5.73371e-17
4.22763e-18
0.997692
0.99806
0.998519
0.998519
0.833537
0.832871
0.863975
0.874662
0.113566
0.10969
0.141091
0.185319
2.12358e-11
1.17289e-24
-4.53576e-08
-3.15802e-21
0.000180226
3.33131e-05
2.80124e-23
-7.13231e-22
0.000645735
0.000376507
0.000271694
0.000124086
0.0169247
0.00771763
0.00360861
0.00309202
0.0198321
0.0198321
0.019832
0.019832
0.0114218
0.0161774
0.0197647
0.0144338
9.53795e-08
8.10396e-08
5.81202e-09
2.21627e-05
1.16028e-05
5.05942e-06
-9.01919e-20
5.16031e-14
2.83941e-05
8.99914e-06
2.81047e-12
2.97447e-17
6.82309e-06
5.21253e-07
1.9749e-07
4.41661e-07
8.24592e-07
7.0435e-07
1.30561e-06
1.82991e-06
1.05496e-06
1.63715e-06
2.56233e-06
2.5468e-06
1.2983e-06
2.04733e-06
2.25086e-06
1.24668e-06
4.66605e-07
4.66451e-07
4.67992e-07
4.67991e-07
7.7899e-06
4.90049e-07
4.67991e-07
4.67992e-07
2.13774e-05
1.51558e-05
5.12683e-06
4.62954e-06
9.60749e-06
2.04717e-05
2.04624e-05
1.84847e-05
2.30705e-08
1.30704e-07
1.00322e-06
4.46946e-06
6.21917e-08
7.31177e-08
5.01036e-08
1.78124e-09
1.68336e-08
9.05604e-08
1.05579e-07
9.8789e-08
7.8297e-09
1.77241e-08
7.6075e-08
9.57288e-08
4.64813e-09
8.47379e-09
2.71472e-08
3.18568e-08
2.38199e-09
3.36853e-09
4.16761e-09
3.06406e-09
5.85608e-10
7.35801e-10
7.74702e-10
7.87827e-10
1.44415e-10
1.58121e-10
1.91486e-10
2.01994e-10
2.89578e-11
3.52989e-11
3.89962e-11
4.30752e-11
6.73768e-12
7.67079e-12
9.32745e-12
1.03162e-11
1.68188e-12
1.98231e-12
2.22283e-12
2.55876e-12
4.08051e-13
4.5187e-13
5.35854e-13
5.75889e-13
9.32047e-14
1.05003e-13
1.11539e-13
1.24631e-13
2.42293e-14
2.40125e-14
2.58886e-14
2.62505e-14
5.67352e-15
5.75818e-15
5.89299e-15
6.09784e-15
1.57364e-15
1.48016e-15
1.50987e-15
1.57461e-15
4.10092e-16
3.88264e-16
4.0398e-16
4.14837e-16
1.06485e-16
9.45396e-17
9.53514e-17
1.07143e-16
2.15491e-17
2.08134e-17
2.2028e-17
2.23912e-17
4.84905e-18
4.14211e-18
3.88087e-18
4.27214e-18
8.43129e-19
7.0171e-19
7.35163e-19
6.87039e-19
1.74435e-19
1.18284e-19
1.05186e-19
8.78812e-20
0.991306
0.99541
0.995521
0.990199
0.970735
0.986995
0.99031
0.98448
0.977849
0.986134
0.945993
0.963858
0.830238
0.853661
0.949971
0.950895
0.950899
0.950904
0.869495
0.904624
0.844693
0.881416
0.939621
0.814864
0.942066
0.984279
0.976366
0.977286
0.897092
0.682024
0.617463
0.790997
0.921941
0.938957
0.94702
0.950891
0.941613
0.921729
0.227225
0.107795
0.234344
0.599136
0.721441
0.829868
0.922176
0.896145
0.634293
0.271277
0.149514
0.205982
0.812264
0.934377
0.934432
0.949117
0.950891
0.928795
0.929307
2.18188e-20
-1.8007e-20
-2.38021e-19
0.0507029
0.0947954
0.251745
0.427199
0.206649
2.79754e-30
-4.83717e-22
-1.40534e-38
1.43739e-19
0.163093
0.791875
0.931476
0.899526
0.741377
0.665875
0.717768
-1.37541e-38
-1.14643e-11
0.0129068
0.0120974
0.000794967
0.000863497
0.000947356
-7.53908e-07
4.25785e-08
-4.94452e-30
-5.16815e-24
-5.36389e-23
2.08654e-08
0.116152
0.392792
0.295744
0.0946534
0.0468386
0.0539123
8.31674e-05
1.68385e-18
0.0135859
0.0370169
0.0165371
0.00100345
0.000823139
0.000804777
0.000301447
0.000114772
5.38881e-05
1.98029e-05
6.39519e-06
6.21218e-06
6.19643e-06
0.000174481
4.18041e-05
3.70096e-05
0.000103936
0.000915337
0.000326775
0.00190767
0.0391569
0.0393722
0.0329018
0.0135063
0.00399055
0.00168869
0.00101444
0.000299234
0.000171198
0.000128205
1.32022e-05
0.000263895
0.00071058
0.000174186
0.000226217
0.00061437
0.0172908
0.00489114
0.00211171
0.00884024
0.0355058
0.0352098
0.0345307
0.028056
0.017815
0.0114154
0.0083299
0.00372952
0.000537178
0.000136509
0.000395122
0.000760753
0.000897994
0.000855547
0.00117035
0.0120382
0.0113642
0.00274241
0.000267552
0.00366448
0.00622881
0.00415785
0.00438982
0.00913543
0.0159673
0.0159601
0.0159038
0.0133728
0.00438534
0.000847661
0.000717494
0.000893897
0.000956189
0.00254197
1.04586e-06
0.00123247
0.00161217
0.000264155
8.45246e-08
8.08798e-08
7.79789e-08
7.96141e-08
8.138e-06
0.00151313
0.00105162
0.00562763
0.0143778
0.0145186
0.00957679
0.00146785
0.00139886
0.00226665
0.00254197
2.71428e-15
1.7526e-15
7.21051e-05
6.5302e-05
4.19782e-06
7.79584e-08
7.52867e-08
7.5397e-08
-1.02856e-10
5.40237e-09
3.4552e-11
4.47452e-07
6.91324e-07
0.00156861
0.00214299
0.00163581
0.00254105
0.00254105
0.00254105
1.7526e-15
6.11118e-18
3.29487e-08
1.98783e-07
4.36876e-07
1.61147e-07
7.79583e-08
7.80874e-08
3.44402e-06
6.29705e-06
5.94888e-06
2.77925e-06
7.33367e-07
4.42945e-08
8.32645e-05
0.000217842
0.00254033
0.00254105
0.00254105
5.96157e-07
4.95202e-07
9.744e-07
1.13569e-06
8.45469e-07
1.83221e-07
8.55562e-06
1.44048e-05
1.4491e-05
1.13864e-05
5.03909e-06
1.79994e-06
2.06147e-07
4.29059e-08
4.36711e-08
3.59882e-05
0.000746222
0.00125889
0.00174503
2.2608e-06
3.26863e-06
2.9341e-06
1.57854e-06
7.31229e-06
1.52833e-05
1.59683e-05
9.11962e-06
2.04733e-06
2.03536e-06
1.16071e-06
3.6058e-07
4.29084e-08
4.29562e-08
4.29743e-08
1.74099e-06
5.31093e-06
2.30005e-06
2.4949e-06
2.23086e-06
6.19343e-07
8.06817e-07
5.53238e-06
1.02302e-05
7.92127e-06
1.8426e-07
1.1627e-07
7.05671e-07
1.07276e-06
4.36542e-08
4.2907e-08
4.29545e-08
4.28643e-08
4.28406e-08
4.28643e-08
4.36448e-08
2.24287e-06
2.62779e-06
2.44354e-07
2.51666e-07
2.5921e-07
5.56434e-07
9.71508e-08
7.61877e-08
7.60165e-08
1.13864e-07
2.35438e-07
1.47084e-07
2.33962e-07
5.64667e-06
7.33379e-06
4.29562e-08
4.15746e-06
1.65551e-05
2.62086e-05
1.48736e-05
5.23533e-06
7.53688e-07
1.15506e-05
2.15445e-05
2.0041e-05
5.90338e-06
4.1918e-07
1.96928e-07
7.12513e-08
5.91596e-08
3.20264e-08
5.12476e-08
9.80322e-06
1.69811e-05
3.65963e-05
3.98576e-05
3.97959e-05
3.59905e-05
1.58846e-05
5.23905e-06
2.20444e-06
2.05882e-05
4.27083e-05
4.27053e-05
4.17575e-05
2.3649e-05
1.08332e-05
4.64834e-06
1.36117e-06
2.48703e-07
1.98187e-07
1.98535e-06
1.4855e-05
4.02253e-05
4.02247e-05
2.99121e-05
7.28694e-06
2.25417e-06
5.51399e-06
6.15627e-06
1.32344e-05
4.25549e-05
4.27069e-05
4.27054e-05
4.27056e-05
4.27038e-05
4.05341e-05
4.41905e-06
1.80741e-06
1.51637e-06
2.12608e-06
8.26374e-06
1.09185e-05
1.11425e-05
3.17443e-06
1.01035e-06
6.65266e-07
1.28733e-06
8.95429e-06
9.09989e-06
1.69698e-05
3.80087e-05
4.25362e-05
2.25651e-05
9.99184e-06
1.40982e-05
2.00493e-05
1.03228e-05
2.43341e-06
4.30542e-06
7.01797e-06
4.90635e-06
3.98749e-06
1.09553e-07
1.08959e-07
1.08867e-07
4.67405e-07
7.37841e-06
2.05034e-06
1.79834e-07
5.49808e-06
9.93919e-06
6.05479e-06
5.05714e-06
7.27932e-07
1.5779e-06
2.77628e-06
1.6723e-06
2.90026e-06
4.29013e-06
3.74043e-06
3.26653e-07
1.10814e-07
1.81376e-07
1.07586e-07
9.99245e-08
1.73239e-09
1.78115e-09
1.86852e-09
8.90918e-09
9.23265e-10
9.24056e-10
9.32444e-10
9.32585e-10
2.07453e-08
2.19964e-07
2.38491e-07
7.22128e-08
5.56259e-07
5.24083e-07
3.15368e-07
4.22388e-07
4.38982e-07
2.52381e-07
7.94548e-08
7.25507e-08
1.09916e-08
8.13988e-09
8.30913e-09
8.00823e-09
1.79732e-09
1.03408e-09
9.43384e-10
9.43332e-10
8.38475e-09
2.82731e-08
6.83581e-09
3.1082e-09
3.92472e-08
5.69565e-08
4.27502e-07
4.45403e-07
2.31837e-07
7.82415e-08
7.18762e-08
2.70774e-08
1.042e-08
8.31146e-09
1.04531e-08
5.40988e-09
2.31392e-09
1.85404e-09
1.73888e-09
1.99336e-09
3.19261e-09
4.61952e-09
3.09205e-09
1.92836e-09
1.92645e-09
1.2209e-07
4.45476e-07
1.86046e-07
7.82414e-08
1.98939e-08
7.01911e-09
6.51939e-09
6.44477e-09
5.92649e-09
3.1236e-09
2.14536e-09
2.00939e-09
2.48668e-09
3.42952e-09
4.22408e-09
5.87206e-09
6.94639e-09
8.05412e-09
3.46775e-09
7.33431e-09
1.44688e-07
2.00337e-07
8.00142e-08
2.31515e-09
2.41496e-09
3.02938e-09
2.4762e-09
2.02103e-09
1.42543e-09
1.30702e-09
1.53562e-09
2.06166e-09
3.0791e-09
4.83127e-09
8.07129e-09
1.08929e-08
1.29254e-08
4.57895e-09
4.56815e-09
8.79471e-08
2.0349e-07
1.36441e-07
8.00391e-10
8.25144e-10
7.84403e-10
6.75753e-10
6.23686e-10
6.15478e-10
7.04675e-10
9.2942e-10
1.3689e-09
2.1925e-09
3.76055e-09
6.80671e-09
1.01507e-08
1.29192e-08
4.81082e-09
9.49883e-08
1.71831e-07
2.0317e-07
2.0349e-07
2.08035e-10
2.12758e-10
2.0361e-10
2.07333e-10
2.25761e-10
2.81204e-10
3.94636e-10
6.1053e-10
1.01434e-09
1.70348e-09
2.93723e-09
5.11409e-09
8.16322e-09
1.05098e-08
1.10561e-08
1.52806e-07
1.90112e-07
1.13534e-07
2.03119e-07
4.59055e-11
5.15473e-11
5.89175e-11
7.06772e-11
9.70929e-11
1.45111e-10
2.40303e-10
4.38999e-10
8.58558e-10
1.66498e-09
2.95787e-09
4.6037e-09
6.18962e-09
8.82183e-09
1.40482e-08
8.98655e-08
1.76125e-07
7.98159e-08
2.02532e-07
1.14567e-11
1.38887e-11
1.72419e-11
2.22128e-11
2.54735e-11
3.6472e-11
7.33658e-11
2.00673e-10
5.73229e-10
1.50754e-09
3.37338e-09
6.12273e-09
8.46825e-09
7.07449e-09
9.88741e-09
1.75081e-08
2.92704e-08
4.02483e-08
1.46321e-07
2.83937e-12
3.50415e-12
4.12104e-12
4.05562e-12
4.33204e-12
7.26497e-12
2.19785e-11
8.30161e-11
3.18584e-10
1.12812e-09
3.22965e-09
7.18323e-09
1.24728e-08
1.34018e-08
1.24946e-08
4.49154e-09
4.49482e-09
1.53222e-08
6.22588e-08
6.35363e-13
7.6886e-13
8.31743e-13
7.6872e-13
9.6396e-13
2.20595e-12
7.78041e-12
3.1697e-11
1.32662e-10
4.82544e-10
3.43578e-09
8.14825e-09
2.32412e-08
3.12129e-08
1.17697e-08
4.49156e-09
4.49154e-09
1.71391e-08
9.85239e-08
1.31563e-13
1.37307e-13
1.49488e-13
1.90064e-13
3.41213e-13
1.05343e-12
3.6879e-12
1.29779e-11
4.17071e-11
1.43649e-10
2.26345e-09
1.05718e-08
2.80408e-08
4.52009e-08
3.78541e-08
4.49067e-09
4.49993e-09
1.96733e-08
1.18882e-07
2.73351e-14
2.85113e-14
3.72147e-14
7.18572e-14
1.94975e-13
6.3171e-13
1.98545e-12
6.89497e-12
2.56195e-11
1.29342e-10
2.35772e-09
9.371e-09
2.53097e-08
4.71465e-08
4.78867e-08
2.59752e-08
4.49129e-09
1.27678e-08
1.18855e-07
6.19885e-15
7.607e-15
1.40422e-14
3.77452e-14
1.23062e-13
4.16767e-13
1.26552e-12
3.60643e-12
1.5704e-11
8.35969e-11
8.9362e-10
5.2944e-09
1.41669e-08
3.70013e-08
4.78896e-08
4.78798e-08
2.71477e-08
3.80708e-08
8.16459e-08
1.71065e-15
2.55834e-15
6.3681e-15
2.11718e-14
7.64762e-14
2.7018e-13
9.43794e-13
3.08832e-12
8.96451e-12
3.0226e-11
1.11802e-10
1.05042e-09
6.76184e-09
1.57048e-08
4.52758e-08
4.78872e-08
4.0111e-08
9.40985e-08
9.21571e-08
4.83603e-16
8.68256e-16
2.59908e-15
9.8335e-15
3.87979e-14
1.49377e-13
5.4814e-13
1.8773e-12
5.71943e-12
2.09928e-11
1.10463e-10
5.99784e-10
1.60732e-09
6.36402e-09
1.64228e-08
3.8817e-08
5.6259e-08
1.40372e-07
1.43852e-07
1.23714e-16
2.47783e-16
8.37983e-16
3.51449e-15
1.52396e-14
6.55608e-14
2.68839e-13
1.08427e-12
3.79988e-12
1.1725e-11
5.4554e-11
3.74775e-10
1.12661e-09
1.85766e-09
5.98132e-09
1.37176e-08
4.7413e-08
1.15951e-07
3.7397e-07
2.68082e-17
5.03827e-17
1.74181e-16
8.06009e-16
4.02354e-15
1.91287e-14
8.81465e-14
3.74774e-13
1.62079e-12
5.89053e-12
2.03526e-11
1.12009e-10
7.82284e-10
1.7914e-09
2.69114e-09
5.85369e-09
2.96615e-08
8.07924e-08
3.83321e-07
4.51501e-18
6.99582e-18
2.34661e-17
1.17985e-16
7.17874e-16
4.51204e-15
2.57344e-14
1.37268e-13
6.66646e-13
2.88007e-12
1.07471e-11
4.12398e-11
2.52311e-10
1.41385e-09
2.72065e-09
4.23096e-09
9.91568e-09
5.22408e-08
3.83321e-07
6.29881e-19
6.74659e-19
1.54937e-18
7.65858e-18
5.50943e-17
4.48873e-16
3.59e-15
2.59447e-14
1.62923e-13
9.03548e-13
4.51526e-12
1.76515e-11
7.75918e-11
4.74634e-10
2.10188e-09
3.72017e-09
7.3815e-09
4.87049e-08
3.82182e-07
6.97301e-20
5.64467e-20
7.32792e-20
2.28734e-19
1.68447e-18
1.73841e-17
1.88164e-16
1.93096e-15
1.71346e-14
1.34564e-13
8.24115e-13
4.26629e-12
1.81708e-11
7.88998e-11
5.20106e-10
2.12424e-09
5.27547e-09
3.56621e-08
1.20703e-07
)
;

boundaryField
{
    leftWall
    {
        type            zeroGradient;
    }
    rightWall
    {
        type            zeroGradient;
    }
    lowerWall
    {
        type            zeroGradient;
    }
    atmosphere
    {
        type            inletOutlet;
        inletValue      uniform 0;
        value           nonuniform List<scalar> 
46
(
5.4208e-08
7.9809e-09
3.18374e-09
1.66848e-08
0
0
0
0
0
0
0
0
0
0
0
0
0
0
0
0
0
0
0
0
0
0
0
0
0
0
0
0
0
0
0
0
0
0
0
0
0
0
2.12424e-09
5.27547e-09
3.56621e-08
1.20703e-07
)
;
    }
    defaultFaces
    {
        type            empty;
    }
}


// ************************************************************************* //
