/*--------------------------------*- C++ -*----------------------------------*\
| =========                 |                                                 |
| \\      /  F ield         | OpenFOAM: The Open Source CFD Toolbox           |
|  \\    /   O peration     | Version:  2312                                  |
|   \\  /    A nd           | Website:  www.openfoam.com                      |
|    \\/     M anipulation  |                                                 |
\*---------------------------------------------------------------------------*/
FoamFile
{
    version     2.0;
    format      ascii;
    arch        "LSB;label=32;scalar=64";
    class       volScalarField;
    location    "5.5";
    object      alpha.oil;
}
// * * * * * * * * * * * * * * * * * * * * * * * * * * * * * * * * * * * * * //

dimensions      [0 0 0 0 0 0 0];

internalField   nonuniform List<scalar> 
2268
(
1.36683e-09
9.99726e-10
1.45471e-09
5.04535e-09
1.20024e-08
1.16014e-08
7.63898e-09
4.51125e-09
3.04594e-09
2.25421e-09
1.72406e-09
1.45676e-09
1.40694e-09
1.62798e-09
2.51699e-09
3.41502e-09
3.74547e-09
3.80808e-09
3.87231e-09
1.69287e-05
4.1176e-05
4.1176e-05
4.1137e-05
2.92719e-09
9.99283e-10
6.63349e-09
3.63767e-08
5.63291e-08
5.89382e-08
4.09218e-08
1.7238e-08
7.53997e-09
4.89643e-09
3.83031e-09
3.19787e-09
2.911e-09
3.29649e-09
5.71068e-09
2.92535e-08
6.89271e-08
4.93714e-08
3.94911e-09
2.57171e-06
1.36818e-05
2.04485e-05
7.22545e-06
4.49666e-09
1.48193e-09
9.01432e-09
3.8661e-08
5.03342e-08
5.48853e-08
4.19657e-08
1.23607e-08
4.53284e-09
3.73253e-09
3.61939e-09
3.13364e-09
2.54128e-09
1.91929e-09
1.69668e-09
4.45031e-08
1.55549e-07
1.59425e-07
7.95428e-08
1.7166e-09
1.72154e-09
1.71659e-09
1.72178e-09
1.50663e-09
1.4942e-09
1.50663e-09
1.51922e-09
1.53209e-09
9.76363e-09
6.58153e-09
2.30412e-08
6.20452e-09
1.77975e-09
1.76514e-09
1.76283e-09
1.65679e-09
1.65507e-09
1.56671e-09
1.5669e-09
1.56809e-09
1.65922e-09
1.66028e-09
1.70566e-09
1.70072e-09
1.7059e-09
1.70358e-09
4.06609e-05
5.48735e-05
0.000148788
0.000146637
4.2137e-05
2.46902e-08
7.19243e-09
3.07919e-06
1.68637e-05
8.08592e-06
1.01171e-06
3.32489e-06
1.38083e-06
4.92776e-06
0.000123752
0.000148185
2.23836e-07
0.00469921
0.0112167
0.0157245
0.0209743
0.0245691
0.00900311
0.00296095
0.00312031
0.00362657
0.00372109
0.00315269
0.00139415
0.000133339
1.69098e-05
0.000243006
0.000407766
0.000438658
0.000629874
0.00073006
0.00032175
0.000126587
0.0133168
0.0630817
0.0841826
0.0860998
0.0863757
0.0863894
0.0863882
0.0649594
0.00447173
0.0045751
0.00474654
0.00482796
0.00482617
0.00426972
0.00115454
4.97947e-05
0.000124397
0.000517065
0.000767648
0.000768031
0.00076802
0.00039348
0.000129684
0.0160785
0.0634733
0.0805857
0.0757462
0.0601581
0.052736
0.0547129
0.0546208
0.000162786
0.000308441
0.000626319
0.001608
0.00213217
0.00197627
0.000884946
0.00018341
0.000156481
0.000199492
0.000315823
0.000477431
0.000399771
0.000113681
0.000446794
0.00321923
0.00748833
0.00971341
0.00733658
0.00203952
0.000880504
0.00121551
0.0198708
0.0298039
0.0298075
0.0297233
0.0292915
0.027998
0.0264905
0.0264897
0.0264896
0.0264895
0.0264892
0.0264892
0.0264891
0.0264891
0.0264891
0.0265744
0.0264905
0.0264905
0.0264925
0.0265576
0.103915
0.0854756
0.0825297
0.0854803
0.0773176
0.0649548
0.0523784
0.0327109
0.0282057
0.0286432
0.0315394
0.0380315
0.0405451
0.0332646
0.0326099
0.0311609
0.0293014
0.0303682
0.0428513
0.231833
0.215729
0.218195
0.221321
0.221335
0.214156
0.213766
0.212255
0.187274
0.167249
0.18579
0.244157
0.262379
0.276832
0.324536
0.350185
0.296074
0.321543
0.388277
0.156619
0.00153864
0.0318664
0.0662755
0.0946006
0.121473
0.139864
0.166046
0.167894
0.145057
0.156639
0.194767
0.25316
0.302015
0.418804
0.497125
0.497128
0.491594
0.492033
0.0298247
0.00153347
0.00152852
0.00155746
0.00311304
0.00380379
0.00533837
0.0133092
0.0191417
0.0118683
0.0214882
0.0340885
0.0345624
0.0346914
0.0476046
0.352385
0.203018
0.0696966
0.343107
0.122894
0.00766214
0.00175779
0.00153925
0.00262294
0.00388773
0.00308635
0.00308655
0.00308695
0.00308708
0.00655021
0.0180623
0.0444462
0.0346809
0.0587022
0.209023
0.102921
0.0260193
0.234902
0.144955
0.0201312
0.00300563
0.00168251
0.00285854
0.00454944
0.00308716
0.00308695
0.00308708
0.00308732
0.00644646
0.00658701
0.0285064
0.102988
0.0887159
0.127074
0.0679818
0.0238035
0.152678
0.146135
0.0188312
0.00204517
0.00167492
0.0016798
0.00185576
0.00374395
0.0030871
0.00308731
0.00660908
0.00649646
0.0065691
0.0719987
0.125321
0.0896755
0.0242684
0.023836
0.0237529
0.0925994
-1.97247e-07
-1.20608e-06
4.35261e-05
0.000187049
0.000160231
2.73269e-05
2.59292e-05
2.43809e-05
1.74637e-05
2.01531e-05
2.71952e-05
4.13036e-05
3.5854e-05
1.80639e-05
6.6193e-05
8.26936e-05
0.000119349
0.000121353
0.000113819
5.61569e-05
2.25079e-05
4.46781e-21
-1.59032e-21
0.0951752
0.0728935
0.0486534
0.0387598
0.036267
0.0171835
0.00596727
0.00140633
0.000225149
0.000246364
2.76172e-05
0.000554374
0.0022845
7.49393e-05
0.0130987
0.0535408
0.102379
0.11682
0.126522
0.126961
0.120545
0.107584
0.103731
0.760588
0.737173
0.684629
0.646105
0.663156
0.596252
0.535466
0.472192
0.427399
0.4087
0.365337
0.412915
0.468769
0.607827
0.756597
0.802454
0.828086
0.843527
0.883709
0.895377
0.897565
0.889588
0.840916
0.991016
0.998022
0.991945
0.980274
0.980315
0.987054
0.999091
0.997891
0.983635
0.936076
0.913719
0.919768
0.942528
0.997555
0.99831
0.987229
0.982765
0.994422
0.999386
0.999579
0.999594
0.99936
0.999111
0.999658
0.999658
0.999649
0.997074
0.995353
0.999436
0.999603
0.986834
0.920538
0.919823
0.919656
0.960436
0.999793
0.999738
0.999803
0.999803
0.999803
0.999803
0.999803
0.999175
0.998955
0.99932
0.999319
0.999647
0.999644
0.99966
0.99966
0.99965
0.999627
0.999602
0.9989
0.978376
0.970228
0.98766
0.999803
0.999803
0.999803
0.999803
0.99976
0.99973
0.999776
0.999783
0.999542
0.995592
0.991346
0.99556
0.90859
0.898576
0.885849
0.881877
0.90056
0.928299
0.946433
0.961955
0.974504
0.980896
0.98437
0.985006
0.984183
0.984491
0.985905
0.98766
0.989099
0.984948
0.986253
0.993431
0.994701
0.982006
0.977816
0.232169
0.226246
0.238073
0.243442
0.239572
0.242726
0.262725
0.294543
0.328376
0.358429
0.373351
0.375937
0.374499
0.375489
0.382769
0.393305
0.408105
0.410993
0.428812
0.459206
0.513509
0.53976
0.558602
2.30821e-20
1.24153e-19
1.72291e-19
-9.28479e-20
1.17449e-20
-2.2168e-20
-3.68692e-14
6.08104e-26
-2.58417e-09
-1.83963e-08
-1.55548e-08
8.33589e-30
1.0484e-12
9.05416e-13
7.14687e-13
6.07387e-13
3.743e-12
5.03172e-13
3.95373e-22
-2.79808e-25
1.80164e-16
1.81932e-16
0.00758219
1.10677e-19
3.0236e-20
5.27138e-37
-2.83831e-20
-2.8616e-21
3.05327e-34
4.34351e-23
3.45352e-08
3.28496e-08
2.82716e-09
9.50329e-08
2.32907e-06
3.89777e-06
5.5795e-06
7.13876e-06
9.42429e-06
9.46553e-06
4.37411e-06
1.187e-06
4.99976e-07
9.50133e-07
1.38682e-07
5.97803e-09
9.10519e-09
2.5896e-09
8.89278e-11
1.30867e-27
2.57191e-14
5.93002e-08
1.91018e-07
2.17577e-07
1.45171e-07
8.08339e-08
6.19948e-08
7.4331e-06
1.86696e-05
1.8512e-05
1.93776e-05
2.69324e-05
2.83255e-05
1.45481e-05
2.38658e-06
1.82178e-06
4.21664e-06
1.00782e-05
1.31216e-05
1.78091e-08
1.2481e-08
2.20114e-08
8.77084e-08
1.50865e-07
2.80812e-07
2.93238e-07
1.53443e-07
4.16558e-08
8.99497e-07
8.54993e-07
2.9963e-05
3.26208e-05
3.38628e-05
3.34991e-05
2.99722e-05
2.96385e-05
2.01775e-05
2.39362e-06
7.72822e-06
1.92389e-05
1.73544e-05
2.4593e-05
1.77106e-08
2.39479e-08
7.35785e-08
1.59245e-07
2.52712e-07
2.68644e-07
1.45432e-07
2.86074e-08
2.82294e-08
3.34699e-06
8.50105e-06
3.70624e-06
3.17401e-06
4.34834e-10
3.92621e-10
4.92709e-06
8.17653e-06
1.43253e-06
4.1693e-06
2.10853e-05
2.02947e-05
1.00745e-05
1.8232e-06
1.29083e-08
3.5847e-08
7.18106e-08
1.21969e-07
1.56506e-07
1.225e-07
4.50194e-08
7.18299e-08
1.10979e-07
1.51841e-08
3.54592e-08
1.90644e-09
1.86904e-09
2.26846e-09
1.02726e-09
7.10163e-12
5.3957e-12
1.47155e-06
1.6876e-05
2.08359e-05
1.68047e-05
5.64213e-08
5.52079e-08
1.1593e-08
2.93719e-08
4.60057e-08
5.06465e-08
5.1223e-08
3.79636e-08
3.63282e-08
3.54243e-08
2.77604e-08
1.51622e-08
1.08648e-08
1.09291e-08
1.18297e-08
1.04444e-08
6.42811e-09
3.52825e-09
4.55739e-08
3.46982e-06
1.95651e-05
1.92269e-05
2.99944e-07
8.86299e-08
9.09765e-08
9.8895e-09
1.98156e-08
2.65923e-08
2.30038e-08
1.97391e-08
1.85812e-08
2.12796e-08
1.78779e-08
1.11325e-08
7.66465e-09
8.69677e-09
1.28915e-08
1.42071e-08
1.28237e-08
1.02568e-08
7.1248e-09
4.45329e-08
1.21577e-06
6.75976e-06
1.52768e-06
9.19045e-08
3.90552e-07
3.59466e-07
7.23848e-09
1.38924e-08
1.62112e-08
1.4257e-08
1.24761e-08
1.11875e-08
9.3797e-09
6.77183e-09
4.85255e-09
4.82121e-09
6.52124e-09
8.97949e-09
1.02845e-08
9.43062e-09
8.83662e-09
8.52765e-09
7.92017e-09
2.978e-08
1.39649e-08
1.41075e-08
9.71361e-08
2.9497e-06
4.49556e-06
4.61364e-09
1.09158e-08
1.26178e-08
1.16113e-08
9.50682e-09
6.96795e-09
4.60256e-09
3.36986e-09
2.96737e-09
3.12966e-09
3.73972e-09
4.58814e-09
5.26951e-09
5.6812e-09
6.47683e-09
7.32411e-09
8.01201e-09
1.05435e-08
1.38257e-08
1.4368e-08
1.47707e-08
4.27715e-06
1.41823e-05
3.86416e-09
8.91655e-09
1.02133e-08
9.25541e-09
7.25123e-09
5.1481e-09
3.52103e-09
2.60908e-09
2.11991e-09
1.88488e-09
1.83084e-09
1.99346e-09
2.37351e-09
3.14663e-09
4.16405e-09
4.87456e-09
5.50041e-09
6.53197e-09
1.32398e-08
4.6512e-08
8.43387e-08
8.44216e-08
1.59127e-05
3.58398e-09
7.18975e-09
7.8648e-09
6.73683e-09
5.12477e-09
3.59666e-09
2.45566e-09
1.77038e-09
1.36536e-09
1.14507e-09
1.06278e-09
1.09135e-09
1.29114e-09
1.72487e-09
2.26782e-09
2.77874e-09
3.16651e-09
4.19735e-09
1.77355e-08
1.00789e-07
1.81856e-07
1.36575e-07
5.60846e-08
3.26551e-09
5.44887e-09
5.40462e-09
4.4083e-09
3.23436e-09
2.19432e-09
1.4937e-09
1.07015e-09
8.2198e-10
6.89056e-10
6.37786e-10
6.64018e-10
7.96661e-10
1.04153e-09
1.39666e-09
1.83859e-09
2.26296e-09
3.273e-09
1.5936e-08
1.24054e-07
1.86857e-07
1.84904e-07
5.59191e-08
3.04433e-09
4.14618e-09
3.74294e-09
2.84135e-09
1.98916e-09
1.34231e-09
9.34857e-10
6.9284e-10
5.36258e-10
4.32894e-10
3.79282e-10
3.94267e-10
4.88974e-10
6.61596e-10
9.22584e-10
1.25752e-09
1.6571e-09
2.14581e-09
4.14989e-09
2.25194e-08
1.49935e-07
1.75751e-07
1.2209e-07
2.80456e-09
3.20503e-09
2.73457e-09
2.01281e-09
1.25931e-09
8.30158e-10
6.66591e-10
5.46662e-10
4.31627e-10
3.40627e-10
2.76361e-10
2.50124e-10
2.79334e-10
3.68808e-10
5.34303e-10
7.81251e-10
1.14786e-09
1.60639e-09
1.70569e-09
2.26674e-09
2.1612e-08
1.33226e-07
1.13885e-07
2.65787e-09
2.6959e-09
2.28277e-09
1.50706e-09
9.73548e-10
7.43735e-10
6.60105e-10
5.43654e-10
4.24267e-10
3.27369e-10
2.44389e-10
1.89187e-10
1.74181e-10
2.12872e-10
3.0825e-10
4.77839e-10
7.4761e-10
1.11916e-09
1.59153e-09
1.80906e-09
1.94018e-09
5.38376e-09
3.47338e-08
2.50565e-09
2.32348e-09
2.02126e-09
1.44799e-09
9.64025e-10
7.70536e-10
7.22891e-10
5.75732e-10
4.42907e-10
3.42005e-10
2.46985e-10
1.71901e-10
1.29297e-10
1.26982e-10
1.7072e-10
2.66356e-10
4.2201e-10
6.6228e-10
1.01199e-09
1.46522e-09
1.85314e-09
2.57447e-09
1.04809e-08
2.43534e-09
2.19445e-09
2.0015e-09
1.66572e-09
1.04553e-09
8.30384e-10
8.08916e-10
5.93036e-10
4.53404e-10
3.51651e-10
2.56596e-10
1.73766e-10
1.13063e-10
8.66019e-11
9.54897e-11
1.41422e-10
2.24358e-10
3.51876e-10
5.37999e-10
8.13085e-10
1.33566e-09
2.33076e-09
3.52144e-09
2.40068e-09
2.15661e-09
2.17078e-09
2.01031e-09
1.25852e-09
9.88823e-10
1.23664e-09
5.54726e-10
4.256e-10
3.39401e-10
2.56396e-10
1.7636e-10
1.1126e-10
7.02877e-11
5.90111e-11
7.55444e-11
1.19359e-10
1.90841e-10
2.9243e-10
4.4085e-10
6.55972e-10
1.03657e-09
1.59264e-09
2.41469e-09
2.21952e-09
2.35367e-09
2.31262e-09
1.91461e-09
1.3532e-09
1.91486e-09
4.5621e-10
3.62669e-10
3.07511e-10
2.39617e-10
1.7085e-10
1.10435e-10
6.54355e-11
4.30274e-11
4.34739e-11
6.51468e-11
1.06182e-10
1.67687e-10
2.54387e-10
3.85971e-10
5.61401e-10
7.93023e-10
2.45909e-09
2.29568e-09
2.29589e-09
2.45938e-09
3.47886e-09
4.09099e-09
3.15875e-09
3.36966e-10
3.14459e-10
2.63382e-10
2.06773e-10
1.54557e-10
1.03685e-10
6.25593e-11
3.68321e-11
2.87416e-11
3.81654e-11
6.25776e-11
1.02707e-10
1.63875e-10
2.46721e-10
3.60717e-10
5.00207e-10
2.54821e-09
2.455e-09
3.34178e-09
1.14694e-08
7.33572e-09
1.19002e-08
3.88887e-09
3.20253e-10
2.73439e-10
2.14083e-10
1.67008e-10
1.27726e-10
8.98147e-11
5.70169e-11
3.32252e-11
2.16467e-11
2.39611e-11
3.93191e-11
6.69884e-11
1.10198e-10
1.74964e-10
2.64084e-10
3.61762e-10
3.17304e-09
6.52766e-09
1.86866e-08
3.49054e-08
1.08115e-08
1.51798e-08
3.16563e-09
4.01464e-10
2.47913e-10
1.66344e-10
1.23973e-10
9.7344e-11
7.15524e-11
4.76826e-11
2.89421e-11
1.75352e-11
1.56823e-11
2.46407e-11
4.42239e-11
7.69646e-11
1.26488e-10
1.94775e-10
2.74679e-10
4.97081e-09
3.05798e-08
9.75993e-08
3.89565e-08
1.93638e-08
1.75226e-08
2.2583e-09
6.0552e-10
2.75774e-10
1.26708e-10
8.71587e-11
6.84256e-11
5.08861e-11
3.58613e-11
2.30606e-11
1.38391e-11
1.06162e-11
1.50849e-11
2.8187e-11
5.02304e-11
8.87021e-11
1.44893e-10
2.03189e-10
6.51016e-09
5.26241e-08
1.02118e-07
7.00674e-08
5.50967e-08
1.84655e-08
2.67374e-09
1.07201e-09
3.77264e-10
1.00549e-10
5.81011e-11
4.53702e-11
3.38376e-11
2.39174e-11
1.63473e-11
1.045e-11
7.21329e-12
8.77948e-12
1.61718e-11
3.18991e-11
5.59205e-11
9.38483e-11
1.43331e-10
5.78195e-09
3.24298e-08
7.90659e-08
1.32783e-07
8.69811e-08
2.21017e-08
6.46004e-09
1.8007e-09
4.72847e-10
8.7382e-11
3.75301e-11
2.76707e-11
2.01746e-11
1.43016e-11
1.02348e-11
6.94682e-12
4.7734e-12
4.91157e-12
8.77118e-12
1.73579e-11
3.30666e-11
6.26188e-11
8.64673e-11
5.75979e-09
1.82792e-08
1.40064e-07
1.76936e-07
7.59801e-08
3.51441e-08
1.30646e-08
2.8413e-09
5.724e-10
8.34297e-11
2.27711e-11
1.63291e-11
1.12366e-11
7.73957e-12
5.51521e-12
3.99469e-12
2.88346e-12
2.65596e-12
4.43512e-12
9.16014e-12
1.7074e-11
3.121e-11
5.15729e-11
6.55242e-09
3.1466e-08
2.45959e-07
2.08967e-07
5.89834e-08
4.54717e-08
1.69726e-08
3.66657e-09
6.70195e-10
8.44073e-11
1.42011e-11
9.11124e-12
5.97956e-12
3.76457e-12
2.54891e-12
1.93082e-12
1.51511e-12
1.37251e-12
2.15811e-12
4.47637e-12
9.23601e-12
1.73463e-11
2.56563e-11
1.06572e-08
8.17834e-08
7.2826e-07
4.8041e-07
4.5475e-08
3.89015e-08
1.74446e-08
4.15989e-09
7.15485e-10
7.68239e-11
8.32983e-12
4.55327e-12
3.02282e-12
1.72168e-12
1.03668e-12
7.54265e-13
6.33634e-13
5.89134e-13
8.20393e-13
1.69881e-12
3.5792e-12
6.96166e-12
1.32341e-11
1.61362e-08
2.15844e-07
8.3825e-07
8.3786e-07
6.67662e-08
3.7801e-08
1.38709e-08
3.66978e-09
6.12433e-10
6.13751e-11
4.5458e-12
2.13419e-12
1.39898e-12
7.39586e-13
3.78508e-13
2.40236e-13
2.05189e-13
2.10876e-13
3.07976e-13
6.41531e-13
1.43126e-12
3.08796e-12
4.77799e-12
1.72974e-08
5.17281e-07
8.3825e-07
8.3825e-07
1.20612e-07
3.12366e-08
9.33151e-09
2.52551e-09
4.07632e-10
3.70905e-11
2.12746e-12
8.15634e-13
5.65054e-13
2.91251e-13
1.28106e-13
6.37308e-14
4.95834e-14
5.77438e-14
8.86299e-14
1.8725e-13
4.18834e-13
8.82555e-13
1.86372e-12
1.68779e-08
5.12179e-07
8.3825e-07
5.97477e-07
9.2839e-08
1.26728e-08
4.28025e-09
1.33117e-09
1.73613e-10
1.42961e-11
6.80129e-13
2.37021e-13
1.79472e-13
9.59667e-14
3.91083e-14
1.49657e-14
8.89697e-15
1.10565e-14
2.03218e-14
4.41987e-14
1.14358e-13
3.39992e-13
5.62718e-13
1.47796e-08
3.12989e-07
8.38221e-07
2.8982e-07
1.8456e-08
2.69411e-09
1.69673e-09
4.88052e-10
4.8138e-11
3.0764e-12
1.13315e-13
4.383e-14
3.85396e-14
2.24825e-14
9.20828e-15
2.91901e-15
1.17211e-15
1.53767e-15
3.89962e-15
1.10712e-14
3.13686e-14
7.75132e-14
1.73477e-13
7.25074e-09
9.15157e-08
6.55229e-07
3.65808e-08
8.42438e-11
2.37068e-10
3.12484e-10
7.17124e-11
4.20256e-12
1.24289e-13
3.67324e-15
3.84815e-15
4.10644e-15
2.72498e-15
1.16771e-15
3.39098e-16
9.68207e-17
1.24742e-16
5.11698e-16
2.17812e-15
7.81613e-15
2.14001e-14
4.27366e-14
-1.72103e-22
-6.13761e-22
0.00025934
0.000355776
0.12034
0.129469
0.116166
0.0973017
0.833796
0.839295
0.80867
0.754887
0.988691
0.947055
0.946182
0.951841
0.992479
0.982769
0.983977
0.991731
0.998914
0.99931
0.999311
0.999311
0.976935
0.98715
0.994644
0.996448
0.528134
0.505155
0.533525
0.565642
0.00947284
0.013753
0.0213875
0.0204748
3.3098e-08
1.53825e-08
2.7724e-07
2.40693e-07
9.51492e-06
6.96239e-06
2.06416e-05
3.4275e-05
2.61305e-05
2.3734e-05
1.68236e-06
5.83808e-06
2.21407e-07
1.87758e-07
9.82057e-07
6.24956e-07
7.16777e-08
4.16485e-07
1.47113e-07
7.98212e-08
1.20481e-07
9.48078e-08
1.41e-07
2.67378e-07
2.32395e-07
3.99318e-07
6.29641e-07
1.5272e-06
6.26742e-07
1.10403e-06
1.56997e-06
3.91098e-06
1.28807e-05
4.89965e-06
1.43076e-05
3.57663e-05
5.47847e-05
6.76512e-05
6.87632e-05
6.8719e-05
2.29955e-05
5.94033e-05
5.7537e-05
5.89817e-05
1.115e-08
3.83697e-08
2.58511e-06
2.29931e-05
1.11461e-08
1.11437e-08
1.11373e-08
1.11397e-08
3.11046e-08
1.45065e-08
1.34124e-08
1.11385e-08
4.81991e-08
3.94769e-08
1.19086e-08
1.12067e-08
2.14061e-08
2.16928e-08
1.18131e-08
8.81134e-09
6.96499e-09
6.10237e-09
6.05816e-09
6.08708e-09
2.04541e-09
2.4197e-09
2.71615e-09
2.93272e-09
1.06441e-09
1.12739e-09
1.30526e-09
1.39777e-09
6.18869e-10
6.90629e-10
7.50115e-10
8.19574e-10
4.56933e-10
5.04043e-10
5.66967e-10
6.21709e-10
3.56088e-10
3.9878e-10
4.44626e-10
5.08859e-10
2.60545e-10
2.95879e-10
3.45933e-10
3.95797e-10
1.75223e-10
2.09546e-10
2.43215e-10
3.0418e-10
1.18332e-10
1.35822e-10
1.66403e-10
2.00649e-10
6.34775e-11
7.62356e-11
9.37865e-11
1.18543e-10
3.49818e-11
4.015e-11
4.98035e-11
6.40125e-11
1.5755e-11
1.85389e-11
2.30745e-11
2.76068e-11
6.72734e-12
7.31487e-12
8.52925e-12
1.10154e-11
2.17996e-12
2.49878e-12
2.99735e-12
3.33982e-12
7.42121e-13
7.66443e-13
8.04131e-13
9.63804e-13
1.96874e-13
1.88395e-13
2.10971e-13
2.22032e-13
4.62438e-14
3.98927e-14
4.04741e-14
3.71258e-14
0.0154517
0.00106552
0.00142937
0.00143745
0.00198796
0.00272665
0.0054074
0.0119995
0.0194055
0.0108212
0.00657048
0.00669481
0.149192
0.1347
0.0369417
0.024627
0.022547
0.0224406
0.0890499
0.057127
0.116391
0.100942
0.0387538
0.0720918
0.0197597
0.0123009
0.0209739
0.0194991
0.072561
0.225408
0.341159
0.201052
0.0598818
0.0233691
0.0203649
0.0203649
0.0203646
0.039992
0.71795
0.844521
0.680383
0.227655
0.10452
0.0198115
0.0203345
0.0862439
0.372108
0.658816
0.753146
0.710867
0.167629
0.0422726
0.026987
0.0210378
0.0204946
0.0203648
0.0280202
0.991207
0.949664
0.888725
0.779132
0.733293
0.579324
0.419144
0.726449
0.982213
0.936643
0.887987
0.889302
0.776775
0.196693
0.0605737
0.104643
0.237333
0.270394
0.214801
0.999312
0.984787
0.981278
0.946092
0.921449
0.930795
0.961606
0.980036
0.99372
0.99829
0.996609
0.961439
0.946804
0.866325
0.645846
0.736394
0.897327
0.922388
0.918566
0.999313
0.999258
0.987695
0.962367
0.98365
0.998212
0.998244
0.99826
0.998255
0.998302
0.998301
0.998302
0.989467
0.992221
0.998143
0.998301
0.996193
0.997031
0.99822
0.998787
0.999259
0.998505
0.961484
0.961186
0.967876
0.987298
0.996307
0.998304
0.998301
0.998302
0.998301
0.998301
0.998301
0.998301
0.998301
0.998247
0.998226
0.998222
0.607513
0.687734
0.70043
0.627208
0.485077
0.442006
0.460515
0.524062
0.622759
0.7566
0.862442
0.944749
0.983315
0.99822
0.9983
0.998301
0.9983
0.998298
0.997657
0.00992121
0.0223325
0.041381
0.0342579
0.00617445
0.000764564
0.00113177
0.00545059
0.0153775
0.0404629
0.10285
0.171967
0.337933
0.719725
0.972987
0.998276
0.9983
0.998121
0.991326
2.48e-06
-2.6008e-23
-1.00333e-20
-4.12555e-20
1.02596e-20
-4.464e-11
4.20525e-20
-5.68667e-21
2.64388e-20
9.49401e-21
-9.70819e-21
3.64244e-21
2.29058e-09
0.0124678
0.26024
0.619252
0.922327
0.991402
0.990406
3.29871e-05
1.62078e-05
2.79576e-06
6.14334e-08
1.06474e-09
6.54801e-08
1.2037e-07
1.02505e-07
4.55913e-08
6.3443e-09
1.85654e-10
1.25055e-21
1.94838e-06
2.61516e-07
2.44878e-07
0.00114377
0.181481
0.576003
0.807003
2.86179e-05
8.52401e-06
7.06458e-07
2.32273e-07
1.74787e-07
7.4155e-08
1.18038e-07
8.11739e-07
5.75351e-11
-3.11453e-21
7.18618e-28
5.29337e-05
0.000207546
0.000202016
4.69583e-05
5.36648e-12
2.92866e-12
0.00322863
0.0986913
1.93947e-07
8.74375e-07
4.33652e-07
2.11472e-07
1.84552e-07
4.15843e-06
8.0334e-07
8.46742e-07
4.45589e-05
0.000205259
0.000230211
0.000236625
0.00023904
0.000196188
2.78081e-05
2.95314e-06
9.41077e-10
2.8109e-09
2.25274e-09
7.95725e-08
1.28765e-07
1.38597e-07
4.0082e-07
6.53495e-06
2.28416e-05
1.99991e-05
1.84289e-05
0.000128705
0.000141055
0.000102777
7.49132e-05
5.44382e-05
1.37134e-05
3.97482e-06
1.45757e-06
5.96445e-07
2.02778e-05
2.10547e-05
5.23122e-07
7.6871e-07
5.67857e-07
4.0729e-07
7.13599e-06
2.37509e-05
5.4792e-05
3.14783e-05
7.87237e-06
8.33392e-06
8.14519e-06
2.61371e-05
7.30918e-06
1.04837e-06
1.04015e-06
1.58177e-06
6.3044e-07
5.09335e-05
7.82564e-05
1.52863e-06
1.57527e-06
1.55073e-06
7.72355e-07
2.54586e-05
6.65154e-05
6.59638e-05
3.80832e-05
3.28203e-06
3.28159e-06
5.09966e-05
0.000104179
9.12531e-05
7.47163e-06
1.31134e-06
1.35139e-06
2.45682e-06
4.84331e-05
8.17672e-05
1.31856e-05
2.08969e-05
1.11688e-05
1.4923e-06
4.00999e-05
6.54851e-05
6.48606e-05
3.16562e-05
3.28159e-06
3.28203e-06
3.86169e-05
0.000104052
9.71936e-05
6.19248e-05
2.61988e-06
1.69209e-06
2.63014e-06
4.62242e-06
7.84676e-05
5.37236e-05
3.91494e-05
9.37664e-06
6.17156e-06
3.11294e-06
1.51987e-05
2.84102e-05
4.6621e-05
5.09491e-05
3.36419e-05
2.02362e-05
4.64568e-05
6.47044e-05
3.0781e-05
7.09653e-06
2.12929e-06
2.16668e-06
2.20302e-06
5.10051e-05
6.87632e-05
5.54612e-05
4.45793e-07
1.03011e-06
3.02431e-06
7.4668e-06
9.56536e-06
1.48753e-05
5.44033e-05
5.66511e-05
4.85014e-05
1.00588e-05
4.58556e-06
4.47627e-06
4.47617e-06
8.43324e-06
1.24558e-05
4.13003e-06
5.24994e-06
6.70296e-05
5.10588e-05
1.68482e-07
4.13914e-07
2.7332e-06
5.01817e-06
5.26271e-06
5.6937e-06
1.61258e-05
4.55486e-05
5.87271e-05
5.40744e-05
5.36776e-06
4.47633e-06
5.37505e-06
1.14627e-05
2.79036e-05
7.08437e-06
1.71276e-06
3.66213e-05
1.00314e-05
1.64909e-07
4.68148e-07
7.54359e-06
1.08743e-05
1.08733e-05
1.06844e-05
2.53388e-06
2.68831e-06
2.27837e-05
3.23825e-05
2.6953e-05
1.26426e-05
1.97015e-05
2.82517e-05
2.85783e-05
1.48396e-05
1.57248e-06
1.11338e-08
1.12231e-08
1.12554e-06
6.35611e-08
2.89502e-07
5.21892e-06
1.04497e-05
1.078e-05
6.6677e-06
1.14813e-07
1.13857e-07
4.17711e-07
1.05198e-05
2.74686e-05
2.8118e-05
2.86303e-05
2.73947e-05
1.11824e-05
1.57239e-06
1.11494e-08
1.12294e-08
1.46726e-08
2.94667e-08
7.56991e-08
1.20676e-08
1.20576e-08
5.06037e-07
1.26013e-06
9.06996e-07
1.21618e-07
5.43959e-08
1.64846e-07
9.64462e-06
2.14142e-05
2.83366e-05
9.06561e-06
1.89135e-06
1.57239e-06
1.72294e-08
1.96677e-08
2.11236e-08
2.78942e-08
2.83669e-08
1.28773e-08
1.20475e-08
1.20251e-08
1.20369e-08
1.3899e-07
9.21431e-08
3.34368e-08
5.93471e-08
1.72834e-07
9.59238e-07
7.54594e-06
2.61749e-07
1.21032e-07
2.69152e-06
1.3522e-08
2.07206e-08
2.45095e-08
2.48457e-08
2.38606e-08
1.69072e-08
1.48146e-08
1.26106e-08
1.2122e-08
1.49113e-08
2.68139e-08
2.26175e-08
2.83744e-08
4.74868e-08
6.04976e-08
7.13783e-08
2.05855e-08
2.23186e-08
2.75127e-06
6.94239e-09
9.46553e-09
1.21883e-08
1.3016e-08
1.20046e-08
1.05027e-08
1.01733e-08
1.01018e-08
1.06134e-08
1.13614e-08
1.33382e-08
1.88161e-08
2.46388e-08
2.91435e-08
2.36973e-08
3.60411e-08
1.57458e-08
2.2738e-07
2.74815e-06
3.16366e-09
3.99203e-09
4.53054e-09
4.76054e-09
4.74343e-09
4.95182e-09
5.20986e-09
5.82703e-09
6.97338e-09
8.7638e-09
1.13138e-08
1.65697e-08
2.42831e-08
2.91596e-08
2.38589e-08
1.15911e-08
2.62488e-08
1.3999e-06
2.60081e-06
1.5034e-09
1.76091e-09
1.9949e-09
2.21105e-09
2.46414e-09
2.88291e-09
3.45466e-09
4.22046e-09
5.34132e-09
7.00726e-09
9.72219e-09
1.42255e-08
2.17147e-08
2.73606e-08
1.84222e-08
1.07899e-08
3.7813e-07
1.87866e-06
4.62319e-07
8.87534e-10
1.07247e-09
1.31377e-09
1.61594e-09
2.03628e-09
2.63716e-09
3.4009e-09
4.29646e-09
5.30972e-09
6.67413e-09
8.84832e-09
1.25493e-08
1.90631e-08
2.15195e-08
1.71234e-08
1.07525e-08
6.98952e-07
1.87742e-06
9.35431e-08
6.98088e-10
8.90488e-10
1.16634e-09
1.57201e-09
2.19662e-09
3.11853e-09
4.28068e-09
5.58763e-09
6.69962e-09
7.52949e-09
8.59086e-09
1.02736e-08
1.32606e-08
1.52097e-08
2.61338e-08
1.00091e-07
5.91871e-07
1.46931e-06
5.62309e-08
5.8349e-10
7.97263e-10
1.11e-09
1.6423e-09
2.55656e-09
3.9435e-09
5.87202e-09
8.12112e-09
1.00468e-08
1.03221e-08
9.64718e-09
9.87087e-09
1.40426e-08
3.31256e-08
8.10617e-08
1.51134e-07
1.59009e-07
2.91693e-07
5.68465e-08
4.74102e-10
7.00189e-10
1.0505e-09
1.70807e-09
2.96143e-09
4.92279e-09
7.89778e-09
1.19734e-08
1.67613e-08
1.74781e-08
1.27665e-08
1.11784e-08
2.68874e-08
6.91327e-08
1.27293e-07
1.61602e-07
5.87705e-08
1.00526e-07
4.2188e-08
3.73412e-10
5.598e-10
9.50228e-10
1.71024e-09
3.2409e-09
5.94339e-09
1.03361e-08
1.77996e-08
3.19668e-08
3.88823e-08
2.45883e-08
1.43054e-08
2.85656e-08
7.43893e-08
1.23115e-07
1.6221e-07
5.92027e-08
2.52516e-08
3.77568e-08
2.54812e-10
4.25051e-10
7.86554e-10
1.58474e-09
3.24592e-09
6.46875e-09
1.09646e-08
2.01605e-08
5.757e-08
1.13117e-07
7.71212e-08
1.4263e-08
1.53078e-08
4.67259e-08
8.48458e-08
1.01325e-07
4.42045e-08
2.52258e-08
3.4566e-08
1.59515e-10
2.81671e-10
5.848e-10
1.29045e-09
2.86454e-09
6.06688e-09
1.10119e-08
1.65779e-08
4.82963e-08
2.18768e-07
3.25515e-07
1.42633e-08
1.45582e-08
2.3406e-08
3.80299e-08
2.63071e-08
2.87306e-08
2.51901e-08
2.72484e-08
8.27221e-11
1.61192e-10
3.6754e-10
8.94573e-10
2.14734e-09
4.85065e-09
1.03063e-08
2.06827e-08
3.35347e-08
6.63866e-08
9.08054e-07
3.53772e-06
1.84007e-06
2.49219e-08
2.50462e-08
2.45997e-08
2.45763e-08
2.5164e-08
2.495e-08
3.7635e-11
7.61258e-11
1.8796e-10
5.05323e-10
1.32353e-09
3.25819e-09
7.34937e-09
1.55069e-08
2.79482e-08
5.63911e-08
4.69897e-07
4.48037e-06
5.49712e-06
1.36144e-06
2.50922e-08
4.63453e-08
6.40227e-08
1.29093e-07
7.76262e-07
1.38359e-11
2.82292e-11
7.49979e-11
2.24285e-10
6.62543e-10
1.82418e-09
4.48872e-09
1.07124e-08
2.31336e-08
4.15144e-08
1.31662e-07
2.35153e-06
5.49648e-06
5.19283e-06
2.4259e-07
5.36338e-08
1.17739e-07
4.75241e-07
2.51583e-06
4.31938e-12
7.75154e-12
2.04354e-11
6.86692e-11
2.40057e-10
7.63392e-10
2.16115e-09
5.32785e-09
1.30915e-08
2.81983e-08
5.14497e-08
1.66684e-07
3.11149e-06
5.46255e-06
4.76308e-06
5.33304e-08
1.05845e-07
5.0913e-07
2.6573e-06
1.07682e-12
1.62662e-12
3.85069e-12
1.35257e-11
5.86736e-11
2.5125e-10
9.04952e-10
2.82511e-09
7.55025e-09
1.76753e-08
3.56325e-08
6.04254e-08
2.3194e-07
3.93205e-06
5.4861e-06
3.72058e-06
1.05201e-07
2.90629e-07
2.6573e-06
2.27776e-13
2.81325e-13
4.86964e-13
1.38727e-12
6.47785e-12
3.70848e-11
1.96938e-10
8.62457e-10
3.02591e-09
8.78221e-09
2.25412e-08
4.53532e-08
8.62985e-08
3.36616e-07
4.32091e-06
5.17103e-06
2.20143e-06
2.78165e-07
2.65729e-06
3.48388e-14
3.65882e-14
5.11316e-14
1.03671e-13
3.54032e-13
2.14866e-12
1.63212e-11
1.10628e-10
5.71791e-10
2.33832e-09
7.28928e-09
1.91868e-08
3.51489e-08
3.69693e-08
1.28909e-07
2.71714e-06
3.36762e-06
1.02064e-06
1.43682e-06
)
;

boundaryField
{
    leftWall
    {
        type            zeroGradient;
    }
    rightWall
    {
        type            zeroGradient;
    }
    lowerWall
    {
        type            zeroGradient;
    }
    atmosphere
    {
        type            inletOutlet;
        inletValue      uniform 0;
        value           nonuniform List<scalar> 
46
(
7.25075e-09
9.15157e-08
6.55229e-07
3.65808e-08
0
0
0
0
0
0
0
0
0
0
0
0
0
0
0
0
0
0
0
0
0
0
0
0
0
0
0
0
0
0
0
0
0
0
0
0
0
0
2.71714e-06
3.36762e-06
1.02064e-06
1.43682e-06
)
;
    }
    defaultFaces
    {
        type            empty;
    }
}


// ************************************************************************* //
