/*--------------------------------*- C++ -*----------------------------------*\
| =========                 |                                                 |
| \\      /  F ield         | OpenFOAM: The Open Source CFD Toolbox           |
|  \\    /   O peration     | Version:  2312                                  |
|   \\  /    A nd           | Website:  www.openfoam.com                      |
|    \\/     M anipulation  |                                                 |
\*---------------------------------------------------------------------------*/
FoamFile
{
    version     2.0;
    format      ascii;
    arch        "LSB;label=32;scalar=64";
    class       volScalarField;
    location    "5.5";
    object      alpha.water;
}
// * * * * * * * * * * * * * * * * * * * * * * * * * * * * * * * * * * * * * //

dimensions      [0 0 0 0 0 0 0];

internalField   nonuniform List<scalar> 
2268
(
3.15253e-07
3.1124e-07
2.69548e-07
8.88315e-08
5.46397e-10
5.45072e-10
5.45059e-10
4.04664e-10
2.67234e-10
1.77626e-10
1.29659e-10
1.06163e-10
9.90407e-11
9.89523e-11
1.03773e-10
1.2013e-10
1.58726e-10
2.18058e-10
3.19031e-10
6.50116e-10
1.15259e-09
1.36165e-09
1.37549e-09
2.34244e-07
1.99803e-07
7.15679e-08
1.16903e-08
7.90495e-10
9.27502e-10
7.32044e-10
4.55557e-10
3.23749e-10
2.83102e-10
2.74921e-10
2.83607e-10
2.95661e-10
2.82223e-10
2.46065e-10
2.45191e-10
3.04651e-10
4.25783e-10
6.05423e-10
8.96182e-10
1.19076e-09
1.29214e-09
1.24535e-09
3.46985e-08
5.42091e-09
1.39506e-09
2.82921e-09
4.09777e-09
4.23694e-09
3.76765e-09
1.95477e-09
9.22085e-10
6.89173e-10
7.26114e-10
9.70131e-10
1.04164e-09
1.02349e-09
8.2355e-10
6.26884e-10
5.25916e-10
5.50333e-10
5.78222e-10
8.48698e-10
9.47068e-10
8.51526e-10
9.117e-10
4.02254e-10
1.57392e-09
1.19965e-09
1.18488e-09
1.81576e-09
2.2287e-09
5.57014e-09
1.29606e-09
6.7614e-10
6.26339e-10
8.17672e-10
9.81695e-10
8.40837e-10
5.92734e-10
4.86958e-10
3.88793e-10
3.68163e-10
4.78908e-10
5.06418e-10
5.5625e-10
5.41906e-10
5.21035e-10
5.18854e-10
5.76743e-11
-3.87806e-20
5.76742e-11
-1.21841e-20
5.70122e-11
1.70456e-21
6.07967e-08
1.53294e-18
-8.53118e-14
-1.03306e-23
6.07424e-22
1.61969e-22
-4.81939e-29
2.73705e-29
-1.05071e-28
1.85119e-29
1.61559e-28
-1.29584e-28
-1.5328e-28
-7.56462e-28
-5.44886e-37
1.3881e-17
0.00143962
0.0957933
0.0861793
0.0700065
0.0517551
0.034845
0.0215465
0.0128721
0.008276
0.00550545
0.00333389
0.00143538
0.00459183
0.0183842
0.0384484
0.0721204
0.114336
0.140458
0.192039
0.262466
0.334595
0.398912
0.44672
0.508162
0.823125
0.809612
0.781769
0.74236
0.695988
0.646945
0.602119
0.568048
0.539059
0.520925
0.521746
0.549565
0.599069
0.667329
0.751213
0.813693
0.822713
0.85322
0.889241
0.922815
0.937942
0.935539
0.93516
0.998433
0.999188
0.998873
0.997446
0.997104
0.997159
0.998505
0.99962
0.999767
0.999733
0.999616
0.999341
0.999562
0.999789
0.999523
0.996698
0.992268
0.990152
0.992562
0.997854
0.99901
0.99813
0.976436
0.00903089
0.00718377
0.00365438
0.00195677
0.00324921
0.00482948
0.00547108
0.00688662
0.00759895
0.00795219
0.00820277
0.00820127
0.007355
0.00395025
0.00380446
0.00396309
0.0034787
0.00268268
0.00268568
0.00364718
0.00238618
0.000638954
-4.86496e-07
-1.21866e-06
-3.2565e-06
3.08969e-18
-5.47931e-06
0.000372339
0.000717049
0.000583294
0.000531406
0.000531021
0.000529496
0.000550242
0.000656025
0.000410816
0.000221522
0.000145015
0.427239
0.450451
0.432824
0.390871
0.332982
0.261281
0.169844
0.0847336
0.0263362
0.00300808
0.00196331
0.00596948
0.0125189
0.0164241
0.00872655
7.7657e-05
2.5984e-05
2.60796e-05
2.5984e-05
0.830415
0.989022
0.954052
0.914905
0.878893
0.836764
0.786264
0.692721
0.58272
0.535214
0.50208
0.512913
0.501064
0.512041
0.422269
0.266132
0.266516
0.239588
0.181054
0.956838
0.991157
0.991036
0.991534
0.991482
0.973241
0.969093
0.962112
0.943425
0.954378
0.922549
0.91265
0.884135
0.879849
0.880863
0.591944
0.738162
0.875088
0.597111
0.86453
0.984802
0.984613
0.985146
0.988571
0.988823
0.988757
0.973684
0.96339
0.979933
0.986507
0.976659
0.926165
0.854368
0.825155
0.686037
0.853106
0.950911
0.709641
0.844671
0.977499
0.991743
0.985088
0.985802
0.987904
0.990896
0.98843
0.978564
0.985165
0.98846
0.988363
0.966005
0.870865
0.806823
0.773936
0.90278
0.95089
0.786527
0.844786
0.978944
0.995511
0.989159
0.984321
0.988132
0.990898
0.990888
0.988696
0.988655
0.988553
0.988354
0.919396
0.852422
0.876265
0.94232
0.950924
0.95093
0.846339
0.996877
0.999219
0.999452
0.999455
0.999452
0.998625
0.998772
0.999773
0.99979
0.999789
0.99979
0.999789
0.99979
0.999789
0.999789
0.999789
0.999789
0.999789
0.999789
0.999789
0.999789
0.999323
0.998386
0.875273
0.908472
0.939991
0.956077
0.962228
0.972347
0.969908
0.97474
0.97613
0.967201
0.96381
0.964929
0.969222
0.980478
0.971509
0.925511
0.860248
0.840029
0.83071
0.837936
0.849486
0.860259
0.85633
0.203635
0.227049
0.279882
0.320306
0.332313
0.399392
0.460128
0.480625
0.491618
0.511171
0.555082
0.506883
0.45158
0.334556
0.207794
0.1401
0.110833
0.0954136
0.0848766
0.0805718
0.0818216
0.0893306
0.114188
-1.06798e-12
-1.20518e-08
-2.94567e-20
9.03359e-21
3.03591e-25
-1.26899e-24
9.37439e-13
4.33148e-14
-5.52281e-09
-5.84168e-10
0.00577579
2.20741e-14
2.16725e-14
-6.42278e-21
8.57162e-20
-6.10545e-17
-4.51282e-09
-1.2153e-08
-2.87808e-08
-4.67085e-08
4.12121e-05
9.06419e-08
1.87784e-11
6.08527e-09
6.53075e-06
1.45652e-06
2.1843e-06
9.76515e-06
2.22818e-05
2.55187e-05
7.00652e-06
5.32044e-05
5.50087e-05
1.73939e-10
1.30886e-10
1.62468e-06
5.77718e-07
3.91619e-05
0.000101438
0.000106031
7.15252e-05
0.000111491
0.000800064
0.000931682
0.000266771
0.000301695
3.21672e-05
6.80418e-05
4.87086e-05
0.000103704
0.000184219
0.000207298
0.000224958
0.000117521
6.01334e-07
5.32859e-07
8.13323e-08
2.07344e-05
7.24864e-05
8.10608e-05
0.000121507
0.00023405
0.000264244
0.000218
0.000211054
0.00045247
0.00413447
0.00825033
0.00405158
0.000269096
0.00027263
0.000123405
1.56117e-05
2.62651e-05
0.00177899
0.00383921
0.00330897
0.00108983
0.000955873
0.00109053
0.00111031
0.000816457
0.000266384
0.000121215
0.00015531
0.00129451
0.00647456
0.00730213
0.00273007
0.00266099
0.017078
0.0198321
0.000273331
0.00027225
1.16597e-05
0.00062261
0.00422764
0.00459199
0.00459047
0.00459199
0.00452232
0.00439396
0.00404617
0.00292275
0.00139468
0.000311823
0.000167696
0.00078669
0.00243926
0.0107108
0.0107663
0.00928643
0.00493306
0.0150684
0.0198321
0.000195998
0.00013658
3.05972e-06
0.000154547
0.000824146
0.00153896
0.0022211
0.00135068
0.00050311
0.000196142
8.53417e-07
6.98147e-07
9.12236e-07
0.000162597
0.000491069
0.00129369
0.00225058
0.00166439
0.00304268
0.00300228
0.00355842
0.00491272
0.00712722
3.76811e-06
2.22264e-07
1.92211e-08
2.52722e-06
2.3848e-08
4.93557e-07
1.44811e-06
4.44415e-07
9.83852e-08
2.53661e-07
4.84623e-07
7.75946e-07
3.76689e-06
4.86077e-05
0.000173686
1.0008e-06
1.24856e-06
1.58677e-06
2.18558e-06
1.7719e-06
1.93733e-08
4.28013e-09
8.71693e-09
1.59633e-08
1.64715e-08
1.81855e-08
1.4117e-08
2.29702e-08
5.02953e-08
4.24819e-08
4.31687e-08
2.04522e-07
5.85289e-07
9.91759e-07
1.18322e-06
2.50287e-07
2.62892e-08
2.65369e-08
7.08886e-07
3.25872e-06
2.02986e-06
1.80333e-06
1.78753e-06
4.48329e-06
1.03572e-05
1.37765e-05
1.9095e-07
1.55672e-07
7.10361e-08
1.43282e-08
1.51304e-08
1.2931e-08
1.11887e-07
2.33047e-07
1.38687e-06
1.71416e-06
1.72267e-06
1.1875e-06
6.83284e-08
2.61892e-08
3.47711e-06
8.42151e-06
9.50761e-06
6.90322e-06
1.81687e-06
8.22448e-06
3.68864e-05
4.0009e-05
3.16947e-05
2.16379e-07
1.59877e-07
5.21602e-08
1.33994e-08
1.09748e-08
1.10506e-08
1.33295e-07
4.78047e-07
8.30104e-07
5.30686e-07
2.77029e-07
1.96699e-08
2.61565e-08
2.5912e-08
7.10224e-06
1.56273e-05
1.56054e-05
2.90743e-06
5.15749e-06
4.00699e-05
3.99755e-05
4.02163e-05
3.64671e-05
1.45131e-07
7.28533e-08
2.49596e-08
1.32951e-08
1.08983e-08
2.49541e-08
1.00486e-07
7.07696e-08
7.51541e-09
2.82361e-09
5.65511e-09
1.39716e-08
2.55942e-08
9.86974e-08
4.9368e-07
3.56207e-06
1.38463e-06
6.02772e-07
1.80565e-05
4.00084e-05
4.01813e-05
4.02176e-05
7.72809e-06
4.92795e-08
2.23813e-08
1.13616e-08
9.94314e-09
1.08197e-08
2.08567e-08
2.17445e-08
1.28309e-08
5.2807e-09
2.82593e-09
3.66658e-09
7.48226e-09
1.01711e-08
7.02983e-09
1.72534e-09
1.72041e-09
1.72959e-09
8.68761e-09
2.02095e-05
4.01912e-05
4.01554e-05
1.59312e-05
1.01997e-06
1.8246e-08
8.34406e-09
7.1887e-09
7.98482e-09
8.37733e-09
6.68398e-09
2.99973e-09
1.61429e-09
1.48299e-09
2.15891e-09
2.58243e-09
2.27841e-09
2.92412e-09
2.9262e-09
3.36815e-09
4.06792e-09
2.77282e-09
2.78206e-09
3.24571e-06
1.18019e-05
1.64698e-05
1.05947e-06
1.04898e-06
1.11574e-08
4.42385e-09
4.59526e-09
5.4186e-09
5.07105e-09
3.36265e-09
2.06158e-09
1.47339e-09
1.36158e-09
1.54774e-09
1.83951e-09
2.25299e-09
2.89813e-09
3.99616e-09
5.06224e-09
5.81785e-09
4.69702e-09
6.81114e-09
6.83854e-09
6.86615e-09
6.89398e-09
5.48932e-06
6.39745e-06
1.26077e-08
3.0604e-09
2.91777e-09
3.37984e-09
3.00397e-09
2.26683e-09
1.62952e-09
1.17317e-09
9.54743e-10
9.7166e-10
1.18279e-09
1.58429e-09
2.2032e-09
3.20539e-09
4.16833e-09
4.61448e-09
3.39632e-09
2.54801e-09
1.15253e-08
4.37707e-08
2.38379e-07
9.62522e-06
2.12695e-05
1.28969e-08
2.2501e-09
1.82068e-09
2.04126e-09
1.77156e-09
1.38633e-09
1.02475e-09
7.42833e-10
5.83506e-10
5.56709e-10
6.53406e-10
8.50826e-10
1.15276e-09
1.59602e-09
2.11795e-09
2.37851e-09
1.88131e-09
2.293e-09
1.28916e-08
4.02786e-08
4.04291e-08
2.54018e-06
2.13355e-05
1.25393e-08
1.50363e-09
1.10854e-09
1.20101e-09
1.00036e-09
7.60668e-10
5.60251e-10
4.16444e-10
3.25323e-10
2.8824e-10
3.13057e-10
3.66856e-10
4.66401e-10
6.41655e-10
8.50364e-10
1.03881e-09
1.20045e-09
1.81789e-09
1.0699e-08
5.53877e-08
4.91253e-08
2.97339e-08
4.8094e-08
1.19503e-08
9.84148e-10
6.52299e-10
6.7956e-10
5.67568e-10
4.48761e-10
3.42452e-10
2.44336e-10
1.8492e-10
1.52123e-10
1.46109e-10
1.56026e-10
1.92502e-10
2.56956e-10
3.51528e-10
4.73145e-10
6.08042e-10
1.15918e-09
7.68562e-09
5.24537e-08
8.24023e-08
4.85694e-08
2.30986e-08
1.14968e-08
6.6423e-10
4.52512e-10
4.68688e-10
4.45754e-10
4.29554e-10
3.41594e-10
2.07052e-10
1.43006e-10
1.01044e-10
7.62171e-11
7.14462e-11
8.47311e-11
1.11847e-10
1.5655e-10
2.19946e-10
3.1389e-10
4.90324e-10
1.3433e-09
1.06319e-08
7.19324e-08
7.43193e-08
3.7532e-08
1.11219e-08
4.61862e-10
3.9323e-10
5.09582e-10
7.94405e-10
8.5235e-10
5.72855e-10
2.65404e-10
1.68197e-10
1.00406e-10
6.05259e-11
4.15968e-11
3.66791e-11
4.24635e-11
6.02853e-11
9.45102e-11
1.59076e-10
2.57834e-10
2.91627e-10
4.45041e-10
5.65539e-09
3.79596e-08
2.33366e-08
1.08986e-08
4.10236e-10
4.28771e-10
9.33374e-10
1.30474e-09
1.33841e-09
8.26087e-10
3.13968e-10
2.03358e-10
1.20292e-10
6.48802e-11
3.55882e-11
2.23623e-11
1.9281e-11
2.46257e-11
4.123e-11
7.75901e-11
1.43352e-10
2.50706e-10
3.36978e-10
3.41784e-10
3.648e-10
5.02981e-09
1.06712e-08
4.06657e-10
6.21163e-10
1.31907e-09
1.89775e-09
2.15609e-09
1.13069e-09
3.59007e-10
2.45483e-10
1.4482e-10
7.51934e-11
3.92438e-11
2.0091e-11
1.20659e-11
1.08772e-11
1.62263e-11
3.06729e-11
6.21165e-11
1.23036e-10
2.29095e-10
3.92431e-10
7.62889e-10
2.61116e-09
1.05414e-08
4.53145e-10
9.41946e-10
1.71549e-09
2.84945e-09
4.61814e-09
1.30165e-09
3.92687e-10
2.87304e-10
1.68611e-10
8.54699e-11
4.40481e-11
2.31189e-11
1.09319e-11
6.45518e-12
6.52318e-12
1.08015e-11
2.13685e-11
4.35407e-11
9.08541e-11
2.14958e-10
5.20986e-10
1.11105e-09
1.04608e-08
6.45514e-10
1.37066e-09
2.81571e-09
9.01462e-09
1.45666e-08
8.74877e-10
4.14874e-10
3.37279e-10
1.86732e-10
9.12861e-11
4.74825e-11
2.50808e-11
1.26183e-11
5.66184e-12
3.41587e-12
3.93769e-12
7.10714e-12
1.40631e-11
2.93191e-11
6.29547e-11
1.53593e-10
3.51063e-10
1.05007e-08
9.7586e-10
3.24115e-09
1.62366e-08
5.7604e-08
3.20642e-08
4.32762e-10
4.32237e-10
3.85897e-10
1.88191e-10
8.99155e-11
4.76207e-11
2.6434e-11
1.37808e-11
6.51826e-12
2.70604e-12
1.71617e-12
2.32832e-12
4.25802e-12
8.44008e-12
1.87238e-11
4.02411e-11
8.17819e-11
1.05951e-08
2.59576e-09
2.13883e-08
1.64325e-07
3.1962e-07
2.45679e-08
4.33678e-10
4.95762e-10
3.88571e-10
1.72491e-10
8.00465e-11
4.38716e-11
2.56676e-11
1.41146e-11
7.01293e-12
3.05386e-12
1.09342e-12
8.58643e-13
1.33601e-12
2.52014e-12
4.67109e-12
9.51317e-12
1.86739e-11
1.09917e-08
9.54216e-09
1.2702e-07
6.95849e-07
5.33901e-07
4.56924e-10
4.44497e-10
5.79796e-10
3.65661e-10
1.4527e-10
6.51499e-11
3.63702e-11
2.27097e-11
1.34994e-11
7.08847e-12
3.25254e-12
1.14862e-12
4.22057e-13
4.45351e-13
7.57913e-13
1.42464e-12
2.59502e-12
4.36386e-12
1.20671e-08
3.25738e-08
3.2049e-07
7.02276e-07
4.2128e-07
4.54255e-10
5.47419e-10
6.56372e-10
3.21808e-10
1.13042e-10
4.7975e-11
2.76033e-11
1.84099e-11
1.17371e-11
6.70479e-12
3.22718e-12
1.34192e-12
2.97719e-13
1.67893e-13
2.40259e-13
4.16072e-13
7.11371e-13
1.14828e-12
1.26263e-08
6.29148e-08
4.30646e-07
6.88352e-07
6.91126e-08
4.51849e-10
8.72145e-10
6.53582e-10
2.54679e-10
8.17262e-11
3.3375e-11
1.9301e-11
1.33269e-11
9.16502e-12
5.72203e-12
3.03669e-12
1.38321e-12
3.5515e-13
8.36965e-14
7.69906e-14
1.27207e-13
2.14303e-13
3.09279e-13
1.42765e-08
9.72285e-08
6.12019e-07
4.53973e-07
4.56471e-10
5.83433e-10
1.14987e-09
5.49519e-10
1.61265e-10
5.76549e-11
2.1964e-11
1.27465e-11
9.01784e-12
6.34628e-12
4.30406e-12
2.58849e-12
1.29727e-12
4.2115e-13
6.58307e-14
2.88118e-14
3.38722e-14
5.5584e-14
8.2147e-14
1.73811e-08
1.4419e-07
6.30063e-07
3.83839e-07
4.53684e-10
9.33356e-10
1.57989e-09
5.18385e-10
1.3829e-10
4.07934e-11
1.39771e-11
7.73769e-12
5.46471e-12
3.93592e-12
2.85526e-12
1.90094e-12
1.06621e-12
4.62231e-13
7.67377e-14
1.27023e-14
1.01006e-14
1.65256e-14
2.0225e-14
2.08766e-08
2.08928e-07
6.35972e-07
3.29005e-07
4.55189e-10
1.60892e-09
2.11139e-09
5.75332e-10
1.36766e-10
2.91427e-11
8.21907e-12
4.54935e-12
3.07758e-12
2.20087e-12
1.62971e-12
1.19572e-12
7.77363e-13
4.02621e-13
8.73605e-14
9.63687e-15
3.18214e-15
4.02217e-15
5.58722e-15
2.1841e-08
2.05864e-07
6.36042e-07
1.31876e-07
4.76722e-10
2.88847e-09
2.61904e-09
6.5061e-10
1.41172e-10
2.32678e-11
4.91039e-12
2.52224e-12
1.64415e-12
1.09701e-12
7.94649e-13
6.28391e-13
4.72543e-13
2.97167e-13
9.00907e-14
1.11654e-14
1.51191e-15
1.22132e-15
1.49589e-15
2.14783e-08
1.57294e-07
3.66483e-07
2.79993e-08
4.03149e-09
8.65091e-09
2.94499e-09
6.85705e-10
1.39988e-10
1.92125e-11
2.7255e-12
1.25655e-12
8.28596e-13
5.06309e-13
3.36533e-13
2.65661e-13
2.25436e-13
1.74075e-13
7.70731e-14
1.28503e-14
1.22185e-15
3.43114e-16
4.21024e-16
2.11175e-08
1.23329e-07
3.15511e-07
2.23219e-08
6.40526e-09
1.13999e-08
3.05639e-09
6.27055e-10
1.1722e-10
1.47195e-11
1.42749e-12
5.91949e-13
3.81547e-13
2.16074e-13
1.24703e-13
8.98735e-14
8.134e-14
7.57059e-14
4.84178e-14
1.23353e-14
1.30752e-15
1.30851e-16
9.96651e-17
2.21735e-08
1.20242e-07
2.79524e-07
3.36578e-09
1.40753e-08
1.12882e-08
2.55506e-09
4.76668e-10
7.85569e-11
8.82949e-12
6.63723e-13
2.30549e-13
1.53952e-13
8.40017e-14
4.16719e-14
2.45156e-14
2.12958e-14
2.33127e-14
2.21105e-14
9.19557e-15
1.3566e-15
8.13554e-17
2.50239e-17
2.35857e-08
7.64876e-08
6.22143e-08
2.08052e-09
1.50519e-08
6.694e-09
1.37908e-09
2.75306e-10
3.45188e-11
3.48928e-12
2.19229e-13
6.94433e-14
4.92933e-14
2.74775e-14
1.24427e-14
5.66652e-15
3.98549e-15
4.82822e-15
6.41985e-15
5.1041e-15
1.01352e-15
8.01149e-17
7.51351e-18
2.44684e-08
1.1471e-08
3.18374e-09
7.63263e-09
1.29666e-08
2.27401e-09
5.36679e-10
1.08449e-10
1.02264e-11
7.94726e-13
3.89809e-14
1.35193e-14
1.08049e-14
6.4705e-15
2.90612e-15
1.07828e-15
5.29294e-16
6.81393e-16
1.27178e-15
1.82891e-15
6.48655e-16
7.40271e-17
5.35013e-18
5.2797e-08
8.10969e-09
3.18374e-09
1.66776e-08
2.22729e-09
3.29607e-10
9.77088e-11
1.65061e-11
1.05554e-12
4.29335e-14
1.66459e-15
1.2807e-15
1.19426e-15
8.00628e-16
3.74927e-16
1.27509e-16
4.4944e-17
5.72911e-17
1.76537e-16
4.26813e-16
3.4341e-16
5.69876e-17
4.19021e-18
0.997708
0.998049
0.998519
0.998519
0.833102
0.830583
0.861537
0.876534
0.112423
0.106917
0.13752
0.19131
2.10587e-11
1.13092e-24
-4.31295e-08
1.08895e-19
0.000189816
3.32911e-05
-2.01599e-23
-1.17605e-21
0.000739062
0.000369386
0.000253351
8.95681e-05
0.0179806
0.00838612
0.00341385
0.00291479
0.0198321
0.0198321
0.019832
0.0198319
0.0112917
0.0143903
0.0194915
0.0158705
1.44803e-09
9.52652e-09
2.85082e-09
6.49215e-05
1.36904e-05
7.1482e-06
2.51857e-07
7.12803e-10
2.92731e-05
1.55076e-05
-9.08901e-14
1.88009e-11
8.68183e-06
3.17774e-07
2.06337e-07
4.27723e-07
7.31461e-07
7.44757e-07
1.34886e-06
1.87595e-06
1.01316e-06
1.80682e-06
2.55322e-06
2.50849e-06
1.33878e-06
2.16469e-06
2.11878e-06
8.39625e-07
4.64272e-07
4.64177e-07
4.65213e-07
4.65124e-07
5.15478e-06
4.88589e-07
4.65125e-07
4.66549e-07
2.11374e-05
1.16215e-05
5.39679e-06
5.09687e-06
1.13322e-05
2.02854e-05
2.0268e-05
1.81554e-05
2.30877e-08
1.127e-07
1.10368e-06
4.58049e-06
6.20354e-08
7.27189e-08
4.5311e-08
1.75009e-09
1.65288e-08
9.00244e-08
1.0487e-07
9.82629e-08
7.72045e-09
1.72698e-08
7.55562e-08
9.52958e-08
4.63095e-09
8.36402e-09
2.69195e-08
3.16476e-08
2.36649e-09
3.36421e-09
4.13197e-09
3.03913e-09
5.83278e-10
7.22012e-10
7.68698e-10
7.8136e-10
1.43231e-10
1.57833e-10
1.8993e-10
2.00155e-10
2.88489e-11
3.47543e-11
3.88352e-11
4.27134e-11
6.69054e-12
7.67112e-12
9.19405e-12
1.02404e-11
1.67544e-12
1.95402e-12
2.21759e-12
2.53939e-12
4.05209e-13
4.51504e-13
5.27686e-13
5.71474e-13
9.2815e-14
1.03494e-13
1.11157e-13
1.23545e-13
2.40862e-14
2.39033e-14
2.54836e-14
2.60789e-14
5.61143e-15
5.68833e-15
5.86114e-15
5.99871e-15
1.56298e-15
1.47192e-15
1.49121e-15
1.56559e-15
4.07524e-16
3.85499e-16
4.01741e-16
4.12999e-16
1.0578e-16
9.40122e-17
9.44723e-17
1.06796e-16
2.14378e-17
2.07031e-17
2.18838e-17
2.20754e-17
4.81699e-18
4.11358e-18
3.85422e-18
4.23953e-18
8.37182e-19
6.97541e-19
7.29326e-19
6.80464e-19
1.73061e-19
1.17303e-19
1.04119e-19
8.69245e-20
0.983124
0.995255
0.995514
0.990369
0.970139
0.987101
0.990562
0.985193
0.978034
0.986626
0.941323
0.961473
0.832086
0.851992
0.949733
0.950914
0.95092
0.950925
0.870105
0.914207
0.859225
0.89429
0.94328
0.815406
0.946077
0.984923
0.976369
0.977297
0.888648
0.661332
0.593179
0.797119
0.926221
0.939737
0.947082
0.95091
0.941714
0.923048
0.247687
0.122238
0.257634
0.620594
0.733245
0.833075
0.92464
0.89156
0.610891
0.252043
0.133628
0.214277
0.825387
0.934665
0.934766
0.950231
0.95091
0.928772
0.929263
3.56571e-19
-1.76238e-20
2.6556e-19
0.0586325
0.104467
0.260487
0.43058
0.19628
-2.08783e-30
-4.54871e-22
-8.21363e-37
1.46336e-19
0.169015
0.786104
0.927753
0.889294
0.740443
0.678725
0.734597
-1.37541e-38
-1.08805e-11
0.0122904
0.0110943
0.000791713
0.000797197
0.00130468
-8.91465e-07
4.84056e-09
-5.91458e-32
-5.65584e-24
-2.15496e-23
1.81767e-08
0.106514
0.353527
0.260075
0.091963
0.0523017
0.0604178
7.77178e-05
2.13411e-18
0.0120724
0.0371316
0.0161198
0.000767803
0.000747205
0.000726605
0.000259706
0.000108955
5.44058e-05
1.87677e-05
5.14911e-06
5.44238e-06
5.27263e-06
4.18148e-05
4.18041e-05
3.70096e-05
0.00011606
0.000804217
0.000327342
0.00111562
0.0380571
0.0383709
0.0317515
0.012387
0.00346649
0.0014651
0.000994595
0.000296836
0.000178583
0.000127526
1.60336e-05
0.000293953
0.000685467
0.000185651
0.000240797
0.000632383
0.0176615
0.00535276
0.00171644
0.00906467
0.0367067
0.036418
0.0349922
0.0279314
0.017723
0.0112035
0.00827374
0.00360577
0.000561256
0.000136518
0.000393287
0.000786503
0.000886166
0.000842248
0.00125436
0.0117443
0.0117661
0.0033174
0.000406612
0.00477207
0.00814211
0.00583257
0.005484
0.0101052
0.0159673
0.0159601
0.0158637
0.0135231
0.00502966
0.00111412
0.000759869
0.000856149
0.000978402
0.00254272
5.05842e-06
0.00100736
0.0017428
0.000393833
7.23664e-08
6.95563e-08
6.63423e-08
7.23145e-08
4.2567e-05
0.00211861
0.00153042
0.00669613
0.0139422
0.0140517
0.00858184
0.00136592
0.00154964
0.00236147
0.00254275
6.11118e-18
1.92038e-30
6.47307e-05
8.60744e-05
1.18499e-05
6.63931e-08
6.3401e-08
6.27591e-08
-6.07252e-11
6.07261e-11
1.20218e-15
-4.64723e-08
7.61175e-15
0.00141393
0.00147509
0.00160807
0.00254197
0.00254237
0.00254236
5.16988e-26
6.11117e-18
-8.44215e-10
4.16728e-08
8.3824e-07
1.98968e-07
6.63326e-08
6.53002e-08
1.98515e-06
4.54087e-06
5.05834e-06
4.01277e-06
6.03542e-07
6.83504e-08
6.4459e-05
0.000238779
0.00254199
0.00254198
0.00254237
6.20712e-07
5.00407e-07
9.03796e-07
1.00694e-06
6.80958e-07
1.96684e-07
6.28397e-06
1.37678e-05
1.39532e-05
1.40096e-05
5.89135e-06
1.71116e-06
4.40108e-07
8.2072e-08
4.27042e-08
3.9036e-05
0.000412539
0.000929954
0.00148235
2.38452e-06
3.25666e-06
2.84665e-06
1.57835e-06
7.28531e-06
1.47929e-05
1.5572e-05
1.02873e-05
2.7142e-06
2.29699e-06
1.57029e-06
5.00423e-07
5.4802e-08
4.28169e-08
4.27872e-08
2.27885e-06
1.26911e-06
1.90197e-06
2.13599e-06
2.02011e-06
5.75325e-07
8.39032e-07
6.13945e-06
1.0054e-05
7.72573e-06
4.28547e-07
1.66174e-07
7.17592e-07
1.0618e-06
4.28351e-08
4.28394e-08
4.27945e-08
4.27653e-08
4.26988e-08
4.27653e-08
4.27945e-08
2.07187e-06
2.66141e-06
2.55552e-07
2.59556e-07
2.93108e-07
6.19679e-07
1.55846e-07
7.77133e-08
7.74337e-08
1.17021e-07
2.22876e-07
1.32214e-07
3.07864e-07
5.35894e-06
6.44173e-06
4.27945e-08
4.27108e-07
1.3154e-05
2.55803e-05
1.6129e-05
5.52224e-06
1.17385e-06
1.27195e-05
2.24714e-05
1.9506e-05
5.12805e-06
3.43038e-07
1.58197e-07
6.86943e-08
5.04741e-08
4.96553e-08
5.74977e-07
9.88687e-06
1.60154e-05
3.28957e-05
3.80409e-05
3.8132e-05
3.74117e-05
1.69306e-05
5.33741e-06
2.39105e-06
2.36883e-05
4.27092e-05
4.27087e-05
4.19395e-05
2.27224e-05
1.01988e-05
4.21712e-06
1.16252e-06
2.04246e-07
3.02949e-07
2.63891e-06
1.65807e-05
4.02254e-05
4.02248e-05
3.20349e-05
8.27143e-06
2.07795e-06
5.30371e-06
6.57679e-06
1.46636e-05
4.27091e-05
4.27092e-05
4.27087e-05
4.27088e-05
4.27068e-05
3.89335e-05
2.63237e-06
1.71665e-06
1.38329e-06
2.23608e-06
8.96989e-06
1.34843e-05
1.3155e-05
3.63929e-06
1.0679e-06
6.61487e-07
1.31764e-06
8.31555e-06
9.01551e-06
1.72547e-05
3.91264e-05
4.24322e-05
2.13339e-05
9.60054e-06
1.44105e-05
1.93434e-05
9.81611e-06
2.45703e-06
4.2193e-06
7.08636e-06
4.5225e-06
3.95194e-06
1.1144e-07
1.0766e-07
1.07689e-07
4.63039e-07
7.19497e-06
1.67409e-06
2.21672e-07
5.85209e-06
9.88923e-06
5.93587e-06
4.80967e-06
7.00103e-07
1.76155e-06
2.88097e-06
1.72602e-06
2.99784e-06
4.29503e-06
3.85056e-06
3.28601e-07
1.1092e-07
1.80018e-07
1.05625e-07
9.64301e-08
1.70443e-09
1.74811e-09
1.58915e-09
9.24061e-10
9.23269e-10
9.24061e-10
9.41492e-10
9.52325e-10
2.35207e-08
2.09463e-07
2.43819e-07
9.17993e-08
5.73395e-07
5.41633e-07
3.10831e-07
4.17596e-07
4.3567e-07
2.50974e-07
7.95707e-08
7.19248e-08
1.11373e-08
8.11862e-09
8.28799e-09
7.99975e-09
1.8317e-09
1.03795e-09
9.43966e-10
9.43666e-10
8.86232e-09
2.67109e-08
6.09016e-09
3.05412e-09
5.13959e-08
6.29019e-08
4.21709e-07
4.45404e-07
2.3466e-07
7.82415e-08
7.15252e-08
2.70286e-08
1.04511e-08
8.28936e-09
1.0405e-08
5.45861e-09
2.35941e-09
1.86231e-09
1.74074e-09
2.04453e-09
2.97546e-09
4.64517e-09
3.04167e-09
1.92777e-09
1.92592e-09
1.27555e-07
4.45477e-07
1.88329e-07
7.82417e-08
1.97814e-08
6.99327e-09
6.4767e-09
6.40528e-09
5.89243e-09
3.13549e-09
2.14918e-09
2.00633e-09
2.4789e-09
3.40169e-09
4.18655e-09
5.78964e-09
6.76781e-09
7.71812e-09
3.43451e-09
6.21768e-09
1.53114e-07
1.99724e-07
7.91419e-08
2.29831e-09
2.39656e-09
3.00187e-09
2.45619e-09
2.00639e-09
1.4201e-09
1.30061e-09
1.52739e-09
2.05095e-09
3.0646e-09
4.79815e-09
7.98571e-09
1.08133e-08
1.28796e-08
4.73099e-09
4.62988e-09
8.15066e-08
2.03194e-07
1.3327e-07
7.93253e-10
8.17208e-10
7.76435e-10
6.69211e-10
6.18057e-10
6.1071e-10
7.00011e-10
9.24224e-10
1.36226e-09
2.18188e-09
3.74498e-09
6.76943e-09
1.00979e-08
1.28734e-08
4.8692e-09
8.62637e-08
1.70456e-07
2.03018e-07
2.03375e-07
2.05933e-10
2.10442e-10
2.0146e-10
2.05231e-10
2.23703e-10
2.79018e-10
3.92094e-10
6.07979e-10
1.01064e-09
1.69824e-09
2.92699e-09
5.10255e-09
8.15152e-09
1.0423e-08
1.03942e-08
1.51115e-07
1.88741e-07
1.22631e-07
2.03335e-07
4.54748e-11
5.10331e-11
5.83117e-11
6.99626e-11
9.62492e-11
1.43705e-10
2.38168e-10
4.36051e-10
8.55913e-10
1.66148e-09
2.95091e-09
4.59167e-09
6.19003e-09
8.79331e-09
1.35099e-08
9.26412e-08
1.82375e-07
7.77617e-08
2.03397e-07
1.13566e-11
1.37535e-11
1.70537e-11
2.19498e-11
2.48845e-11
3.57015e-11
7.21756e-11
1.98222e-10
5.69475e-10
1.50455e-09
3.3684e-09
6.10406e-09
8.43801e-09
7.127e-09
9.9898e-09
1.97765e-08
3.32134e-08
4.40976e-08
1.48278e-07
2.81427e-12
3.46558e-12
4.0612e-12
3.95247e-12
4.23891e-12
7.18065e-12
2.18273e-11
8.25295e-11
3.17112e-10
1.12427e-09
3.23407e-09
7.18236e-09
1.24161e-08
1.32374e-08
1.23912e-08
4.49049e-09
4.934e-09
1.53486e-08
6.6616e-08
6.29516e-13
7.59079e-13
8.18504e-13
7.49609e-13
9.53698e-13
2.21331e-12
7.83034e-12
3.18433e-11
1.32646e-10
4.80709e-10
3.469e-09
8.22225e-09
2.30166e-08
3.03046e-08
1.16065e-08
4.49027e-09
4.49013e-09
1.71625e-08
9.61413e-08
1.30141e-13
1.35543e-13
1.47959e-13
1.8931e-13
3.43107e-13
1.06746e-12
3.729e-12
1.28805e-11
4.16244e-11
1.45986e-10
2.33564e-09
1.05741e-08
2.83495e-08
4.52119e-08
3.60464e-08
4.49423e-09
4.50541e-09
1.98274e-08
1.18781e-07
2.70439e-14
2.82842e-14
3.71945e-14
7.26279e-14
1.98626e-13
6.40238e-13
2.02407e-12
7.03113e-12
2.67232e-11
1.32783e-10
2.41794e-09
9.58731e-09
2.57513e-08
4.73126e-08
4.7885e-08
2.34352e-08
4.49523e-09
1.29797e-08
1.18757e-07
6.15617e-15
7.60112e-15
1.41867e-14
3.84733e-14
1.25848e-13
4.24912e-13
1.28709e-12
3.7732e-12
1.66743e-11
9.57938e-11
9.57732e-10
5.44051e-09
1.45844e-08
3.76933e-08
4.78894e-08
4.78774e-08
2.59087e-08
3.37859e-08
8.33605e-08
1.70383e-15
2.57434e-15
6.47451e-15
2.16382e-14
7.82605e-14
2.77054e-13
9.67121e-13
3.15463e-12
9.25403e-12
3.14544e-11
1.12533e-10
1.08425e-09
6.80981e-09
1.63932e-08
4.57406e-08
4.78854e-08
3.89094e-08
9.40832e-08
8.73729e-08
4.82821e-16
8.76446e-16
2.64753e-15
1.0057e-14
3.97527e-14
1.53219e-13
5.62225e-13
1.92223e-12
5.93044e-12
2.22728e-11
1.12448e-10
6.05706e-10
1.66379e-09
6.42003e-09
1.74672e-08
4.01287e-08
5.64978e-08
1.38906e-07
1.46219e-07
1.23566e-16
2.50018e-16
8.52213e-16
3.58849e-15
1.5616e-14
6.73068e-14
2.76876e-13
1.11196e-12
3.88718e-12
1.22846e-11
5.86752e-11
3.79389e-10
1.14497e-09
1.86953e-09
6.12977e-09
1.43888e-08
4.7886e-08
1.18652e-07
3.64943e-07
2.6729e-17
5.0598e-17
1.76401e-16
8.20932e-16
4.10975e-15
1.96269e-14
9.06068e-14
3.87438e-13
1.66533e-12
6.04844e-12
2.13815e-11
1.19259e-10
7.92819e-10
1.79635e-09
2.68417e-09
5.83285e-09
3.10665e-08
8.09344e-08
3.83319e-07
4.48108e-18
6.97975e-18
2.35779e-17
1.19515e-16
7.32183e-16
4.61668e-15
2.64496e-14
1.41368e-13
6.8568e-13
2.94923e-12
1.10172e-11
4.2942e-11
2.62107e-10
1.4232e-09
2.72012e-09
4.22379e-09
1.00428e-08
5.41855e-08
3.83319e-07
6.23439e-19
6.6802e-19
1.54107e-18
7.67437e-18
5.56671e-17
4.56902e-16
3.67387e-15
2.66298e-14
1.67499e-13
9.28362e-13
4.59909e-12
1.79926e-11
7.94634e-11
4.81504e-10
2.11211e-09
3.72298e-09
7.49476e-09
4.89048e-08
3.83319e-07
6.88827e-20
5.56939e-20
7.23166e-20
2.26576e-19
1.67915e-18
1.74464e-17
1.9017e-16
1.96192e-15
1.74945e-14
1.3711e-13
8.37219e-13
4.30381e-12
1.8172e-11
7.9813e-11
5.10715e-10
2.1016e-09
5.27977e-09
3.62498e-08
1.29128e-07
)
;

boundaryField
{
    leftWall
    {
        type            zeroGradient;
    }
    rightWall
    {
        type            zeroGradient;
    }
    lowerWall
    {
        type            zeroGradient;
    }
    atmosphere
    {
        type            inletOutlet;
        inletValue      uniform 0;
        value           nonuniform List<scalar> 
46
(
5.2797e-08
8.10969e-09
3.18374e-09
1.66776e-08
0
0
0
0
0
0
0
0
0
0
0
0
0
0
0
0
0
0
0
0
0
0
0
0
0
0
0
0
0
0
0
0
0
0
0
0
0
0
2.1016e-09
5.27977e-09
3.62498e-08
1.29128e-07
)
;
    }
    defaultFaces
    {
        type            empty;
    }
}


// ************************************************************************* //
