/*--------------------------------*- C++ -*----------------------------------*\
| =========                 |                                                 |
| \\      /  F ield         | OpenFOAM: The Open Source CFD Toolbox           |
|  \\    /   O peration     | Version:  2312                                  |
|   \\  /    A nd           | Website:  www.openfoam.com                      |
|    \\/     M anipulation  |                                                 |
\*---------------------------------------------------------------------------*/
FoamFile
{
    version     2.0;
    format      ascii;
    arch        "LSB;label=32;scalar=64";
    class       volScalarField;
    location    "5.5";
    object      alpha.air;
}
// * * * * * * * * * * * * * * * * * * * * * * * * * * * * * * * * * * * * * //

dimensions      [0 0 0 0 0 0 0];

internalField   nonuniform List<scalar> 
2268
(
1.07733e-09
1.01927e-09
1.03967e-09
1.0654e-09
1.06435e-09
8.41897e-10
4.85361e-10
2.70276e-10
1.81752e-10
1.47931e-10
1.43443e-10
1.59104e-10
1.76341e-10
1.90861e-10
2.102e-10
2.61661e-10
3.26427e-10
3.11826e-10
2.34161e-10
2.34144e-10
2.19703e-07
5.96822e-07
6.23109e-07
1.39098e-09
1.3215e-09
1.59536e-09
2.79479e-09
3.93569e-09
4.04895e-09
2.94024e-09
1.55799e-09
8.80073e-10
6.86849e-10
6.30064e-10
6.43515e-10
8.41646e-10
1.91032e-10
1.91158e-10
4.42261e-10
9.39439e-10
9.64623e-10
2.62505e-10
2.34147e-10
4.30483e-07
6.04663e-07
4.86841e-07
1.63973e-09
1.5715e-09
1.58116e-09
2.46564e-09
6.37006e-09
1.00024e-08
1.05917e-08
6.97252e-09
3.07888e-09
1.7302e-09
1.25063e-09
9.91904e-10
3.56947e-09
2.78625e-08
2.54278e-08
9.28817e-09
6.93154e-10
9.08283e-10
1.95858e-09
2.93456e-08
6.07683e-08
7.80665e-08
5.12772e-08
1.5881e-09
1.57981e-09
1.5881e-09
1.59632e-09
1.60431e-09
1.61087e-09
8.53429e-09
3.49081e-09
1.16628e-09
1.00071e-09
9.97349e-10
9.94298e-10
9.97364e-10
2.54593e-07
2.38665e-06
1.17066e-10
9.45103e-18
2.72085e-27
1.72329e-27
-9.21755e-11
1.60641e-25
7.20745e-26
5.66706e-27
1.59699e-09
1.43529e-06
7.99812e-06
5.04971e-05
3.83478e-05
9.27549e-06
1.39951e-08
3.46912e-09
4.47293e-07
5.1192e-06
6.1531e-06
1.05059e-06
1.64434e-09
1.021e-07
4.99606e-08
5.77477e-05
0.0001562
0.000321401
0.000819482
0.00145498
0.00222137
0.00368911
0.00629557
0.000547049
0.000598819
0.00075941
0.00106168
0.0010221
0.00085336
0.000478653
0.000195264
4.34599e-05
5.97781e-05
0.000126319
0.000131849
5.78142e-05
1.09395e-06
4.99517e-08
5.1161e-08
0.0023995
0.00769886
0.00982973
0.0099628
0.00997168
0.00997231
0.00997202
0.00136756
0.00109939
0.00118246
0.0013215
0.00132155
0.0013215
0.00132155
0.00108237
0.000331079
6.63769e-05
0.000116165
0.000138276
0.000104729
7.37804e-06
5.40808e-08
2.53211e-05
0.00244723
0.0049425
0.00472023
0.00420059
0.00505523
0.00848611
0.00997243
0.00140447
0.000503867
0.000500586
0.000945769
0.000763833
0.00086443
0.000609804
0.000196361
7.61385e-05
6.79413e-05
6.82631e-05
6.82918e-05
2.39937e-05
8.95638e-06
3.03261e-05
8.25333e-05
0.000243463
0.000134586
0.000101593
0.000106138
0.000109465
0.000654763
0.00369306
0.000266077
0.000266027
0.00387877
0.00600819
0.0060089
0.00593624
0.00561647
0.00273634
0.00201137
0.00200933
0.00200792
0.00188452
0.00170068
0.00170163
0.00175154
0.0020017
0.00258506
0.00323488
0.0031707
0.000813765
0.000915554
0.000902159
0.0018118
0.00243793
0.00244452
0.00322528
0.00470527
0.00406025
0.00327626
0.00199368
0.00170007
0.00170118
0.00170396
0.00170701
0.00180692
0.00309709
0.00359266
0.00310231
0.00999902
0.00936512
0.0131303
0.0172463
0.0192772
0.0198219
0.0161257
0.0167613
0.0115979
0.00647603
0.00170728
0.00170228
0.00180274
0.00172562
0.00179238
0.00493881
0.00587949
0.00433028
0.00310783
0.0129661
0.00944241
0.014081
0.0187443
0.0241596
0.026051
0.0260384
0.0229958
0.045279
0.0470787
0.041849
0.0104013
0.0165661
0.0122187
0.00974566
0.0452731
0.0494724
0.0355454
0.025484
0.0128986
0.00389665
0.00335733
0.00340548
0.00463883
0.0226439
0.0252487
0.0242674
0.0371117
0.0334412
0.0549878
0.0531094
0.0811355
0.0853071
0.071252
0.0555451
0.058692
0.0550872
0.0488556
0.0122927
0.00245541
0.00509755
0.004784
0.00328667
0.00691103
0.00784523
0.0214994
0.0314502
0.0149383
0.005354
0.00465762
0.0269254
0.0940069
0.0976591
0.0976726
0.0438461
0.0222256
0.0549105
0.0102741
0.00210646
0.00515438
0.00819526
0.00328496
0.00328667
0.0054893
0.00780173
0.0167636
0.011375
0.00469232
0.00462699
0.00467085
0.0219906
0.0942891
0.0930915
0.0284524
0.0220313
0.0602429
0.00902022
0.00216817
0.00234824
0.00855731
0.00594065
0.00331365
0.0028333
0.00545448
0.00797549
0.00449735
0.00444828
0.0045204
0.00709959
0.0198343
0.0313434
0.0320146
0.0230135
0.0220413
0.0602884
0.00310913
0.000781806
0.000501128
0.000324959
0.000328118
0.00132108
0.00119058
0.000112358
9.77268e-05
0.000159319
0.00017569
0.00016244
0.000167497
0.000178194
0.000105264
8.53631e-05
8.84776e-05
8.95645e-05
9.70509e-05
0.000154581
0.000188263
0.000676639
0.00153127
0.0292004
0.0184867
0.0113328
0.00482938
0.000321178
0.00886126
0.0234607
0.0236381
0.0235012
0.0324695
0.036089
0.0343003
0.0283204
0.0193542
0.0151655
0.0198233
0.0346188
0.040438
0.040077
0.032462
0.0274061
0.0291474
0.0351656
0.0353588
0.0353623
0.0353588
0.0332738
0.00286436
0.00197048
0.00202058
0.0447973
0.078722
0.0789777
0.0789775
0.0789777
0.0789655
0.0575363
0.0341519
0.0531248
0.0566133
0.0565921
0.0269911
0.0189915
0.0153275
0.0154686
0.0390273
0.00869369
0.00174993
0.00784525
0.0195729
0.0194568
0.0126195
0.000351271
0.000563631
0.0141299
0.0621427
0.0789777
0.0789719
0.0569943
0.00236531
0.00148626
0.012351
0.0167468
0.00522873
0.000309895
0.000137878
3.27338e-05
2.22428e-06
1.63675e-06
0.000278897
0.000272904
0.000309733
0.00290258
0.00461913
0.000522929
0.000352899
0.0131403
0.0789682
0.0789786
0.0789719
0.0388815
6.6872e-05
0.000183446
5.17585e-05
3.30664e-05
4.76471e-05
6.93616e-05
4.26492e-05
3.14075e-06
1.70803e-06
-7.50474e-11
0.000227514
0.000225384
0.000225895
0.000229097
0.00020135
0.00015295
0.000152519
0.000152429
0.000960649
0.0215153
0.0294735
0.0120882
8.16539e-05
6.77804e-05
6.07088e-05
5.32514e-05
1.13955e-20
8.82818e-22
-2.99818e-08
-1.37778e-08
-3.72702e-11
1.24328e-05
2.35691e-13
-1.234e-08
0.0907413
0.10076
0.113738
0.118075
0.0994003
0.0699049
0.0494739
0.0342211
0.0239299
0.017961
0.0143516
0.0136761
0.0147271
0.0149735
0.0138003
0.012116
0.0095874
0.00853067
0.00634952
0.00376742
0.00258256
0.000832806
0.000888908
0.767157
0.773081
0.76167
0.755931
0.756053
0.751978
0.731974
0.700155
0.666412
0.636515
0.621954
0.620478
0.623443
0.623576
0.61668
0.605761
0.589325
0.578024
0.560088
0.531174
0.481378
0.445151
0.421546
0.999497
0.999577
0.999895
0.999842
0.999112
0.998216
0.997519
0.99854
0.999433
0.99974
0.999896
0.999879
0.999878
0.999773
0.999466
0.998638
0.997648
0.99819
0.996774
0.996794
0.996278
0.995062
0.985271
0.999987
0.999991
1
0.999994
0.999993
0.999999
0.999998
0.999999
1
1
0.999999
0.999997
0.999992
0.999946
0.999819
0.99999
0.999989
0.999994
0.999996
0.999996
0.999993
0.999986
0.99998
1
1
1
1
1
1
1
1
1
0.999999
0.999999
0.999991
0.999981
0.999981
0.999981
0.999972
0.999968
0.999983
0.999996
0.999996
0.999991
0.999979
0.999973
1
1
1
1
1
1
1
1
0.999999
0.999997
0.999997
0.999969
0.999967
0.999966
0.999963
0.999962
0.999961
0.999973
0.999996
0.999984
0.999943
0.999942
0.999943
1
1
1
1
1
1
1
0.999999
0.999999
0.999996
0.999991
0.999996
0.999997
1
0.999993
0.999979
0.999976
0.999995
0.99999
0.999937
0.999936
0.999944
0.999957
1
1
1
1
1
1
1
1
1
1
1
1
1
1
0.999999
0.999996
0.999998
0.999997
0.999963
0.999935
0.999937
0.999954
0.999988
1
1
1
1
1
1
1
1
1
1
1
1
1
1
1
1
1
0.999995
0.999959
0.999937
0.999954
0.999979
0.999999
1
1
1
1
1
1
1
1
1
1
1
1
1
1
1
1
1
0.999999
0.99999
0.999986
0.99998
0.999997
0.999999
1
1
1
1
1
1
1
1
1
1
1
1
1
1
1
1
1
1
1
1
1
0.999991
0.999988
1
1
1
1
1
1
1
1
1
1
1
1
1
1
1
1
1
1
1
1
1
0.999985
0.999961
1
1
1
1
1
1
1
1
1
1
1
1
1
1
1
1
1
1
1
1
1
0.999997
0.999959
1
1
1
1
1
1
1
1
1
1
1
1
1
1
1
1
1
1
1
1
1
1
1
1
1
1
1
1
1
1
1
1
1
1
1
1
1
1
1
1
1
1
1
1
1
1
1
1
1
1
1
1
1
1
1
1
1
1
1
1
1
1
1
1
1
1
1
1
1
1
1
1
1
1
1
1
1
1
1
1
1
1
1
1
1
1
1
1
1
1
1
1
1
1
1
1
1
1
1
1
1
1
1
1
1
1
1
1
1
1
1
1
1
1
1
1
1
1
1
1
1
1
1
1
1
1
1
1
1
1
1
1
1
1
1
1
1
1
1
1
1
1
1
1
1
1
1
1
1
1
1
1
1
1
1
1
1
1
1
1
1
1
1
1
1
1
1
1
1
1
1
1
1
1
1
1
1
1
1
1
1
1
1
1
1
1
1
1
1
1
1
1
1
1
1
1
1
1
1
1
1
1
1
1
1
1
1
1
1
1
1
1
1
1
1
1
1
1
1
1
1
1
1
1
1
1
1
1
1
1
1
1
1
0.999999
0.999999
1
1
1
1
1
1
1
1
1
1
1
1
1
1
1
1
1
1
1
1
1
0.999999
1
1
1
1
1
1
1
1
1
1
1
1
1
1
1
1
1
1
1
1
1
0.999999
0.999999
1
1
1
1
1
1
1
1
1
1
1
1
1
1
1
1
1
1
1
1
1
0.999999
0.999999
1
1
1
1
1
1
1
1
1
1
1
1
1
1
1
1
1
1
1
1
1
0.999999
0.999999
1
1
1
1
1
1
1
1
1
1
1
1
1
1
1
1
1
1
1
1
1
0.999999
0.999999
1
1
1
1
1
1
1
1
1
1
1
1
1
1
1
1
1
1
1
1
1
0.999999
1
1
1
1
1
1
1
1
1
1
1
1
1
1
1
1
1
1
1
1
1
1
0.999999
0.999999
1
1
1
1
1
1
1
1
1
1
1
1
1
1
1
1
1
1
1
1
1
0.999999
0.999999
1
1
1
1
1
1
1
1
1
1
1
1
1
1
1
1
1
1
1
1
0.999999
0.999999
0.999999
1
1
1
1
1
1
1
1
1
1
1
1
1
1
1
1
1
1
1
1
0.999999
0.999999
0.999999
1
1
1
1
1
1
1
1
1
1
1
1
1
1
1
1
1
1
1
1
1
0.999999
1
1
1
1
1
1
1
1
1
1
1
1
1
1
1
1
1
1
1
1
1
1
0.999999
1
1
1
1
1
1
1
1
1
1
1
1
1
1
1
1
1
1
1
1
0.00193159
0.00161012
0.00100345
0.000926686
0.0406895
0.0345581
0.0194491
0.0233163
0.0479104
0.0479104
0.0479104
0.0479104
0.00724584
0.0470613
0.0479104
0.0461321
0.00720164
0.0170534
0.0155515
0.00807064
3.81301e-22
4.51422e-05
0.000237234
0.000402194
0.00294951
0.00204531
0.000123697
0.000122746
0.450622
0.472594
0.444224
0.412108
0.979207
0.97177
0.959043
0.963345
0.999981
0.999987
0.999983
0.999916
0.999977
0.999986
0.999979
0.999965
0.999944
0.99996
0.999998
0.999994
0.99999
0.999999
0.999999
0.999999
0.999999
0.999999
0.999998
0.999998
0.999999
0.999998
0.999997
0.999997
0.999998
0.999997
0.999997
0.999998
0.999999
0.999998
0.999998
0.999996
0.999981
0.999995
0.999985
0.999963
0.999921
0.99992
0.999925
0.999924
0.999965
0.99992
0.999921
0.999921
1
1
0.999996
0.999972
1
1
1
1
1
1
1
1
1
1
1
1
1
1
1
1
1
1
1
1
1
1
1
1
1
1
1
1
1
1
1
1
1
1
1
1
1
1
1
1
1
1
1
1
1
1
1
1
1
1
1
1
1
1
1
1
1
1
1
1
1
1
1
1
1
1
1
1
1
1
1
1
1
1
1
1
1
1
1
1
1
1
1
1
0.00128673
0.0033308
0.00283801
0.00802226
0.0226065
0.00659159
0.00235379
0.00255779
0.00232203
0.00231415
0.0398433
0.0214587
0.0144533
0.0130913
0.0130928
0.0242726
0.0246754
0.0246353
0.0390888
0.0256606
0.0217827
0.00333328
0.0166084
0.103068
0.0308196
0.00234414
0.00233472
0.00216632
0.0266554
0.0894527
0.0423073
0.00179765
0.0138668
0.036853
0.03252
0.0264617
0.0359562
0.0351992
0.0307367
0.0250392
0.0517852
0.141553
0.152034
0.141687
0.0542588
0.0188771
0.00325476
0.065334
0.0894192
0.0515472
0.00180191
0.0228197
0.0382143
0.0281181
0.0242042
0.0441443
0.039238
0.00696124
0.0427058
0.102037
0.152034
0.152038
0.152034
0.146784
0.0706575
0.00440918
0.0432818
0.0894527
0.0883855
0.0317827
0.0127517
0.0115268
0.00232434
0.0154938
0.0441502
0.0440908
0.000288419
0.014728
0.00536949
0.0388573
0.0727871
0.0657938
0.0361491
0.0191047
0.00579629
0.000930007
0.00163935
0.0327935
0.0438727
0.0183356
4.87486e-08
3.89575e-12
0.00397914
0.0185796
0.0163544
0.000277935
0.000657042
0.000147453
0.000373741
0.000131143
0.000918133
0.00088817
0.000735868
0.00105352
0.000844591
0.000660814
0.000887806
0.0099745
0.00690921
0.000704273
3.43869e-12
2.15032e-07
1.30859e-07
0.000318151
0.000122149
0.000126387
0.000115305
0.000115051
0.000114846
0.000115402
0.000114846
0.00011578
0.000119291
0.000506058
0.00055075
0.00062968
0.00101721
0.00125208
0.000973989
0.000134435
0.000101618
0.000114086
7.98299e-05
0.372969
0.305824
0.296617
0.362441
0.47693
0.52029
0.503327
0.447372
0.359415
0.232094
0.127927
0.0495935
0.0142902
0.000802654
0.000810912
0.000213706
3.56763e-05
8.45411e-05
1.25957e-05
0.976963
0.964412
0.954096
0.964209
0.988051
0.990454
0.992566
0.988611
0.974147
0.943448
0.881033
0.811015
0.646622
0.273323
0.0246988
1.23403e-05
2.4653e-05
3.22344e-06
3.33509e-06
0.999969
0.998912
0.998139
0.999493
0.999932
0.999998
1
0.99999
0.999923
0.997845
0.998435
0.993303
0.986057
0.973133
0.72993
0.376821
0.0716869
0.000541214
4.04863e-06
0.999966
0.999984
0.999932
0.999914
0.999988
1
1
1
1
1
1
0.999998
0.999996
0.998586
0.998525
0.994244
0.80893
0.414407
0.183407
0.999971
0.999991
0.999999
0.999999
0.999999
1
1
0.999999
0.999998
0.999994
0.999993
0.999941
0.99979
0.999798
0.999889
0.999761
0.995927
0.987182
0.891719
0.999999
0.999999
0.999999
0.999999
0.999999
0.999996
0.999993
0.999983
0.999939
0.999778
0.999761
0.999761
0.99976
0.999804
0.999972
0.999958
0.999587
0.997438
0.992943
0.999997
0.999997
0.999997
0.999998
0.999986
0.999962
0.999964
0.999971
0.999867
0.999856
0.999895
0.999924
0.999944
0.999985
0.999996
0.999996
0.999998
0.999978
0.999977
0.999997
0.999999
0.999999
0.999993
0.999982
0.999968
0.999945
0.999968
0.999991
0.999991
0.999991
0.999972
0.999991
0.999998
0.999999
0.999998
0.999999
0.999947
0.999919
0.999998
0.999998
0.999998
0.999998
0.999973
0.999932
0.999933
0.999962
0.999996
0.999997
0.999948
0.999889
0.9999
0.999992
0.999998
0.999985
0.99997
0.999933
0.999912
0.999986
0.999966
0.999966
0.999978
0.999953
0.999933
0.999933
0.999968
0.999997
0.999997
0.999961
0.999886
0.999887
0.999904
0.999958
0.999958
0.999957
0.999976
0.999914
0.999943
0.999936
0.999947
0.999951
0.999954
0.99996
0.99996
0.999948
0.999947
0.999966
0.999979
0.999951
0.999919
0.999928
0.99995
0.999964
0.999988
0.999994
0.999942
0.999922
0.999927
0.999956
0.999956
0.999954
0.999948
0.999946
0.999945
0.999942
0.99994
0.999949
0.999987
0.999986
0.999982
0.999982
0.999987
0.999986
0.999994
0.999993
0.999921
0.999937
0.99998
0.99996
0.999955
0.999973
0.999984
0.999979
0.999964
0.999944
0.999937
0.99994
0.999986
0.99999
0.99999
0.999988
0.999972
0.999993
0.999998
0.999955
0.999986
0.999998
0.999994
0.999982
0.999982
0.999983
0.999988
0.999996
0.999994
0.999975
0.999963
0.999967
0.999982
0.99998
0.999972
0.999971
0.999984
0.999997
1
1
0.999999
1
0.999999
0.999994
0.999989
0.999989
0.999993
1
1
0.999999
0.999989
0.999972
0.999971
0.999971
0.999972
0.999988
0.999997
1
1
1
1
1
1
1
0.999999
0.999999
0.999999
1
1
1
0.99999
0.999979
0.999971
0.99999
0.999998
0.999997
1
1
1
1
1
1
1
1
1
1
1
1
1
1
0.999999
0.999992
0.999999
1
0.999997
1
1
1
1
1
1
1
1
1
1
1
1
1
1
1
1
1
1
0.999997
1
1
1
1
1
1
1
1
1
1
1
1
1
1
1
1
1
1
0.999997
1
1
1
1
1
1
1
1
1
1
1
1
1
1
1
1
1
0.999998
0.999997
1
1
1
1
1
1
1
1
1
1
1
1
1
1
1
1
0.999999
0.999998
0.999999
1
1
1
1
1
1
1
1
1
1
1
1
1
1
1
1
0.999999
0.999998
1
1
1
1
1
1
1
1
1
1
1
1
1
1
1
1
1
0.999999
0.999998
1
1
1
1
1
1
1
1
1
1
1
1
1
1
1
1
1
1
1
1
1
1
1
1
1
1
1
1
1
1
1
1
1
1
1
1
1
1
1
1
1
1
1
1
1
1
1
1
1
1
1
1
1
1
1
1
1
1
1
1
1
1
1
1
1
1
1
1
1
1
1
1
1
1
1
1
1
1
1
1
1
1
1
1
1
1
1
1
1
1
1
1
1
1
1
1
1
1
1
1
1
1
1
1
1
1
0.999999
0.999996
0.999998
1
1
1
1
1
1
1
1
1
1
1
1
1
1
1
1
1
0.999996
0.999994
0.999999
1
1
1
1
0.999999
1
1
1
1
1
1
1
1
1
1
1
0.999998
0.999994
0.999995
1
1
1
0.999999
0.999997
1
1
1
1
1
1
1
1
1
1
1
1
0.999997
0.999994
0.999995
1
1
0.999999
0.999997
1
1
1
1
1
1
1
1
1
1
1
1
1
0.999996
0.999994
0.999996
1
1
0.999997
1
1
1
1
1
1
1
1
1
1
1
1
1
1
0.999996
0.999995
0.999998
1
0.999997
1
1
1
1
1
1
1
1
1
1
1
1
1
1
1
0.999997
0.999997
0.999999
0.999998
)
;

boundaryField
{
    leftWall
    {
        type            alphaContactAngle;
        thetaProperties 
6
(
(galistan air) 90 0 0 0
(oil galistan) 90 0 0 0
(water oil) 90 0 0 0
(water air) 90 0 0 0
(oil air) 90 0 0 0
(water galistan) 90 0 0 0
);
        value           nonuniform List<scalar> 
50
(
1.07733e-09
1.39098e-09
1.63973e-09
1.5881e-09
1.59699e-09
0.000547049
0.00136756
0.00140447
0.00310913
0.0292004
0.0353588
0.00869369
0.000278897
0.000225384
0.0907413
0.767157
0.999497
0.999987
1
1
1
1
1
1
1
1
1
1
1
1
1
1
1
1
1
1
1
1
1
1
1
1
1
1
1
1
1
1
1
1
)
;
    }
    rightWall
    {
        type            alphaContactAngle;
        thetaProperties 
6
(
(galistan air) 90 0 0 0
(oil galistan) 90 0 0 0
(water oil) 90 0 0 0
(water air) 90 0 0 0
(oil air) 90 0 0 0
(water galistan) 90 0 0 0
);
        value           nonuniform List<scalar> 
50
(
0.0031707
0.00310231
0.00310783
0.025484
0.0488556
0.0549105
0.0602429
0.0602884
0.0390888
0.0351992
0.039238
0.0440908
0.0163544
0.000318151
7.98299e-05
1.25957e-05
3.33509e-06
4.04863e-06
0.183407
0.891719
0.992943
0.999977
0.999919
0.999912
0.999914
0.999942
0.999993
0.999998
0.999997
0.999997
0.999997
0.999997
0.999997
0.999997
0.999997
0.999999
1
1
1
1
1
1
1
1
0.999999
0.999997
0.999997
0.999997
0.999997
0.999998
)
;
    }
    lowerWall
    {
        type            alphaContactAngle;
        thetaProperties 
6
(
(galistan air) 90 0 0 0
(oil galistan) 90 0 0 0
(water oil) 90 0 0 0
(water air) 90 0 0 0
(oil air) 90 0 0 0
(water galistan) 90 0 0 0
);
        value           nonuniform List<scalar> 
62
(
1.07733e-09
1.01927e-09
1.03967e-09
1.0654e-09
1.06435e-09
8.41897e-10
4.85361e-10
2.70276e-10
1.81752e-10
1.47931e-10
1.43443e-10
1.59104e-10
1.76341e-10
1.90861e-10
2.102e-10
2.61661e-10
3.26427e-10
3.11826e-10
2.34161e-10
2.34144e-10
2.19703e-07
5.96822e-07
6.23109e-07
6.23109e-07
4.86841e-07
5.12772e-08
5.66706e-27
0.00629557
0.00997202
0.00997243
0.00369306
0.00193159
0.00161012
0.00100345
0.000926686
0.000266077
0.000813765
0.00999902
0.0129661
0.0128986
0.0122927
0.0102741
0.00902022
0.000266077
0.000266027
0.00387877
0.00600819
0.0060089
0.00593624
0.00561647
0.00273634
0.00201137
0.00200933
0.00200792
0.00188452
0.00170068
0.00170163
0.00175154
0.0020017
0.00258506
0.00323488
0.0031707
)
;
    }
    atmosphere
    {
        type            inletOutlet;
        inletValue      uniform 1;
        value           nonuniform List<scalar> 
46
(
1
1
1
1
1
1
1
1
1
1
1
1
1
1
1
1
1
1
1
1
1
1
1
1
1
1
1
1
1
1
1
1
1
1
1
1
1
1
1
1
1
1
0.999997
0.999997
0.999999
0.999998
)
;
    }
    defaultFaces
    {
        type            empty;
    }
}


// ************************************************************************* //
