/*--------------------------------*- C++ -*----------------------------------*\
| =========                 |                                                 |
| \\      /  F ield         | OpenFOAM: The Open Source CFD Toolbox           |
|  \\    /   O peration     | Version:  2312                                  |
|   \\  /    A nd           | Website:  www.openfoam.com                      |
|    \\/     M anipulation  |                                                 |
\*---------------------------------------------------------------------------*/
FoamFile
{
    version     2.0;
    format      ascii;
    arch        "LSB;label=32;scalar=64";
    class       volScalarField;
    location    "5.5";
    object      p;
}
// * * * * * * * * * * * * * * * * * * * * * * * * * * * * * * * * * * * * * //

dimensions      [1 -1 -2 0 0 0 0];

internalField   nonuniform List<scalar> 
2268
(
5211.18
5221.78
5240.87
5266.24
5294.76
5323.15
5348.4
5367.95
5379.61
5381.14
5370.41
5345.86
5307.17
5255.61
5192.75
5121.84
5047.39
4974.26
4906.93
4848.6
4801.8
4768.93
4752.01
4411.16
4422.18
4442.06
4468.18
4497.47
4526.63
4552.58
4572.77
4585.09
4587.27
4577.04
4552.63
4513.69
4461.74
4398.11
4326.12
4250.44
4176.17
4107.97
4049
4001.64
3968.39
3951.54
3608.49
3620.17
3641.17
3668.7
3699.51
3730.17
3757.49
3778.88
3792.47
3795.9
3786.68
3762.62
3723.13
3670.44
3605.24
3531.03
3452.84
3376.19
3306.26
3246
3197.51
3163.47
3146.85
2803.01
2815.64
2838.35
2868.13
2901.4
2934.4
2963.78
2986.86
3002.24
3007.51
2999.73
2975.95
2935.2
2881.66
2814.05
2736.47
2654.49
2574.28
2501.96
2439.98
2389.79
2354.43
2338.05
1994.25
2008.32
2033.61
2066.73
2103.47
2139.78
2172.1
2197.37
2214.98
2222.47
2216.54
2193.09
2150.18
2095.71
2024.63
1942.33
1855.06
1771.72
1699.08
1636.99
1586.64
1550.98
1530.24
1219.53
1232
1255.18
1286.35
1321.38
1356.33
1388.35
1414.08
1433.58
1443.36
1439.43
1417.52
1378.67
1327.77
1263.49
1194.88
1129.44
1071.47
1027.27
993.215
967.978
951.386
939.92
758.512
763.235
772.264
785.062
800.083
815.069
829.238
841.833
851.496
856.515
854.356
843.782
825.805
801.518
774.825
751.783
735.571
724.543
719.971
719.17
720.644
722.979
725.567
635.034
634.851
634.24
633.33
631.97
629.378
626.851
626.999
626.292
624.471
622.914
621.908
622.144
622.917
625.945
630.651
636.003
642.471
648.692
654.087
658.819
662.702
666.16
2360.8
2373.41
2397.08
2432.38
2491.63
2573.24
2678.32
2796.63
2906.26
2981.1
3003.14
2979.83
2943.68
2913.14
2888.92
2890.05
2913.15
2928.13
2925.25
1617.79
1622.48
1643.07
1679.37
1734.81
1812.48
1914.04
2028.84
2141.83
2220.2
2241.11
2214.71
2175.66
2140.65
2112.91
2115.01
2142.72
2159.65
2157.77
1107.33
1110.31
1124.51
1147.13
1177.08
1219.89
1282.07
1363.47
1452.84
1521.35
1546.83
1534
1498.97
1467.03
1448.73
1458.93
1477.32
1505.81
1527.12
936.246
935.205
945.287
955.742
964.681
973.212
987.55
1012.46
1043.82
1075.83
1099.31
1106.61
1095.65
1090.07
1094.46
1099.99
1105.57
1128.25
1148.06
875.227
873.05
884.966
896.699
907.245
910.853
913.041
913.713
916.087
924.489
938.52
950.656
959.49
973.723
987.343
985.533
990.226
994.621
990.593
810.121
808.161
820.628
832.809
845.465
851.621
854.008
855.572
859.378
868.083
883.533
894.708
902.345
914.185
927.305
933.677
938.876
941.087
938.412
749.595
744.86
758.082
768.452
781.464
790.421
794.184
796.539
801.789
811.157
826.478
836.662
842.305
851.626
865.156
877.486
884.811
885.118
886.089
691.937
684.937
698.105
707.242
717.365
726.867
733.359
737.936
744.517
754.626
769.796
778.212
781.857
794.058
807.418
820.444
829.108
828.441
832.031
540.899
540.852
540.878
540.888
540.569
539.385
537.749
536.729
535.697
534.635
533.822
533.112
532.903
533.857
536.11
539.481
543.524
548.345
553.53
558.623
563.433
567.946
572.563
414.463
414.799
415.345
415.949
416.71
417.422
417.856
417.182
416.053
415.097
414.564
413.51
412.508
412.536
414.123
416.576
419.623
423.466
427.912
432.417
437.081
441.346
445.681
315.222
314.56
313.705
312.835
312.2
312.116
312.328
312.062
311.512
311.012
310.879
310.813
311.604
313.442
315.703
318.696
322.177
326.012
329.836
333.481
337.218
340.597
343.974
243.925
242.981
241.503
239.918
238.326
236.887
235.885
235.294
235.099
235.739
236.428
237.789
240.214
243.42
246.778
249.828
253.037
256.228
259.196
261.995
265.127
268.277
271.166
179.104
178.17
177.036
176.029
175.127
174.369
173.829
173.504
173.985
175.411
176.743
178.318
180.161
181.963
184.172
186.538
189.031
191.593
194.181
196.446
199.262
202.279
204.95
113.746
112.681
111.475
110.658
110.53
110.696
111.073
112.163
113.787
114.958
116.001
116.646
117.384
118.54
120.092
121.944
124.027
126.413
128.808
131.078
133.499
136.555
139.952
48.3591
47.4557
46.7014
46.3088
46.8958
47.9746
48.9
49.9566
51.328
52.5123
53.1763
53.5034
53.8581
54.5134
55.4379
56.6613
58.3715
60.3847
62.4362
64.6712
67.2432
70.1886
73.3863
7.32092
6.98593
6.7414
6.61367
7.04816
7.60846
7.94812
8.6084
9.61265
10.5801
11.1198
11.2342
11.1528
11.0723
11.1427
11.4793
12.2234
12.9812
13.818
14.7523
16.0298
17.3191
18.948
-1.04602
-1.11887
-1.24054
-1.27652
-1.27309
-1.31497
-1.35234
-1.45378
-1.49664
-1.48561
-1.4488
-1.41315
-1.3903
-1.38191
-1.35072
-1.29411
-1.21435
-1.18215
-1.08999
-1.05303
-1.03884
-0.985663
-0.695704
-1.49574
-1.51439
-1.51037
-1.50975
-1.60604
-1.70251
-1.72391
-1.69742
-1.67252
-1.65425
-1.63975
-1.62552
-1.61153
-1.59222
-1.57671
-1.57104
-1.56678
-1.55345
-1.553
-1.54482
-1.53867
-1.53397
-1.54539
-1.6738
-1.67995
-1.68612
-1.70308
-1.75004
-1.78594
-1.8043
-1.80253
-1.78913
-1.7747
-1.7618
-1.74899
-1.73624
-1.72377
-1.71387
-1.7033
-1.69616
-1.68867
-1.68537
-1.68
-1.67315
-1.67226
-1.69004
-1.83373
-1.83578
-1.84562
-1.8632
-1.87115
-1.88634
-1.89735
-1.89832
-1.89222
-1.88361
-1.87496
-1.86644
-1.85787
-1.84929
-1.84149
-1.83435
-1.82836
-1.82269
-1.81771
-1.81323
-1.81183
-1.81765
-1.83349
-1.96182
-1.96312
-1.96918
-1.97976
-1.99006
-2.00064
-2.00799
-2.00899
-2.00607
-2.00111
-1.9955
-1.98991
-1.9839
-1.9777
-1.9719
-1.96655
-1.96192
-1.95712
-1.95262
-1.95067
-1.95403
-1.96372
-1.97845
-2.09409
-2.09556
-2.10016
-2.10762
-2.11504
-2.12153
-2.1257
-2.12653
-2.1251
-2.12218
-2.11852
-2.11445
-2.11015
-2.10574
-2.10168
-2.09813
-2.09503
-2.09211
-2.09013
-2.09107
-2.09671
-2.10739
-2.1187
-2.22644
-2.22776
-2.23112
-2.23591
-2.24056
-2.24447
-2.247
-2.24779
-2.24715
-2.24543
-2.24302
-2.24021
-2.23715
-2.23402
-2.23112
-2.2288
-2.22719
-2.22665
-2.22739
-2.22987
-2.23501
-2.24318
-2.24843
-2.3571
-2.35808
-2.36029
-2.3633
-2.36631
-2.36886
-2.37057
-2.37125
-2.37102
-2.37004
-2.36851
-2.36661
-2.3645
-2.36237
-2.36046
-2.35904
-2.35843
-2.35886
-2.36046
-2.36319
-2.36705
-2.37067
-2.3722
-2.48646
-2.48715
-2.48861
-2.49055
-2.49254
-2.49427
-2.49546
-2.49604
-2.49604
-2.49554
-2.49462
-2.49341
-2.49204
-2.49068
-2.48952
-2.48874
-2.48851
-2.48898
-2.49003
-2.49172
-2.49438
-2.49572
-2.4965
-2.6151
-2.61558
-2.61654
-2.61782
-2.61915
-2.62033
-2.62119
-2.62168
-2.62184
-2.62165
-2.62117
-2.62047
-2.61967
-2.61889
-2.61826
-2.61793
-2.61795
-2.61841
-2.61919
-2.62025
-2.62182
-2.62396
-2.62476
-2.74327
-2.7436
-2.74425
-2.74509
-2.74599
-2.74682
-2.74744
-2.7479
-2.74815
-2.74818
-2.74801
-2.74769
-2.74732
-2.74697
-2.74676
-2.74677
-2.74706
-2.74766
-2.74855
-2.7497
-2.75142
-2.75461
-2.75751
-2.87112
-2.87135
-2.87179
-2.87236
-2.87299
-2.87359
-2.87411
-2.87451
-2.87482
-2.875
-2.87505
-2.87501
-2.87495
-2.87493
-2.87504
-2.87533
-2.87587
-2.8767
-2.87785
-2.87933
-2.8814
-2.88469
-2.88877
-2.99874
-2.9989
-2.99921
-2.99961
-3.00006
-3.00051
-3.00095
-3.00135
-3.00171
-3.00199
-3.00221
-3.00238
-3.00255
-3.00278
-3.00312
-3.00365
-3.0044
-3.00543
-3.0068
-3.00851
-3.01068
-3.01368
-3.01747
-3.12619
-3.12631
-3.12653
-3.12684
-3.12718
-3.12755
-3.12793
-3.12834
-3.12873
-3.1291
-3.12943
-3.12975
-3.1301
-3.13051
-3.13103
-3.13173
-3.13264
-3.1338
-3.13528
-3.13713
-3.13933
-3.14197
-3.14518
-3.25351
-3.25362
-3.25379
-3.25403
-3.25431
-3.25463
-3.255
-3.25541
-3.25584
-3.25626
-3.25668
-3.25711
-3.25758
-3.25812
-3.25878
-3.2596
-3.26062
-3.26183
-3.26337
-3.26521
-3.2674
-3.26982
-3.27267
-3.38075
-3.38084
-3.38099
-3.38121
-3.38146
-3.38175
-3.38211
-3.38253
-3.38298
-3.38345
-3.38393
-3.38443
-3.38499
-3.38562
-3.38636
-3.38725
-3.38832
-3.38959
-3.39112
-3.39291
-3.39496
-3.39727
-3.39988
-3.50792
-3.50801
-3.50815
-3.50835
-3.50859
-3.50889
-3.50925
-3.50967
-3.51013
-3.51063
-3.51115
-3.51171
-3.51231
-3.513
-3.51379
-3.51472
-3.51582
-3.5171
-3.51859
-3.5203
-3.52224
-3.5244
-3.52677
-3.63505
-3.63514
-3.63527
-3.63547
-3.63571
-3.636
-3.63637
-3.63681
-3.63728
-3.63779
-3.63833
-3.63892
-3.63956
-3.64027
-3.64109
-3.64203
-3.64312
-3.64438
-3.64582
-3.64745
-3.64927
-3.65128
-3.65347
-3.76214
-3.76223
-3.76237
-3.76256
-3.7628
-3.76311
-3.76348
-3.76392
-3.7644
-3.76492
-3.76547
-3.76607
-3.76672
-3.76744
-3.76826
-3.76919
-3.77026
-3.77148
-3.77286
-3.7744
-3.77611
-3.77798
-3.78
-3.88921
-3.8893
-3.88944
-3.88964
-3.88988
-3.89019
-3.89057
-3.891
-3.89148
-3.892
-3.89255
-3.89314
-3.89379
-3.89451
-3.89531
-3.89622
-3.89725
-3.89842
-3.89972
-3.90117
-3.90277
-3.90451
-3.90639
-4.01626
-4.01637
-4.01651
-4.0167
-4.01695
-4.01727
-4.01764
-4.01806
-4.01852
-4.01903
-4.01957
-4.02015
-4.02078
-4.02148
-4.02226
-4.02313
-4.02411
-4.02521
-4.02644
-4.0278
-4.02928
-4.0309
-4.03264
-4.14332
-4.14344
-4.14359
-4.14379
-4.14404
-4.14434
-4.14468
-4.14508
-4.14552
-4.146
-4.14652
-4.14708
-4.14769
-4.14836
-4.1491
-4.14993
-4.15085
-4.15188
-4.15303
-4.15429
-4.15567
-4.15716
-4.15877
-4.2704
-4.27052
-4.27068
-4.27089
-4.27114
-4.2714
-4.27171
-4.27208
-4.27248
-4.27292
-4.27341
-4.27394
-4.27452
-4.27515
-4.27585
-4.27662
-4.27748
-4.27844
-4.2795
-4.28067
-4.28194
-4.28331
-4.28479
-4.39749
-4.39762
-4.39778
-4.398
-4.39822
-4.39845
-4.39872
-4.39904
-4.39939
-4.39979
-4.40024
-4.40073
-4.40127
-4.40186
-4.4025
-4.40322
-4.40402
-4.4049
-4.40588
-4.40694
-4.40811
-4.40936
-4.41071
-4.52459
-4.52473
-4.52489
-4.5251
-4.52528
-4.52548
-4.5257
-4.52596
-4.52626
-4.52661
-4.52701
-4.52745
-4.52794
-4.52848
-4.52908
-4.52974
-4.53047
-4.53127
-4.53216
-4.53313
-4.53418
-4.53532
-4.53654
-4.6517
-4.65184
-4.652
-4.65219
-4.65234
-4.65249
-4.65265
-4.65284
-4.65308
-4.65337
-4.65372
-4.65411
-4.65455
-4.65504
-4.65559
-4.65618
-4.65684
-4.65756
-4.65836
-4.65923
-4.66018
-4.6612
-4.66229
-4.77879
-4.77893
-4.77909
-4.77927
-4.7794
-4.77947
-4.77954
-4.77967
-4.77985
-4.78009
-4.78038
-4.78072
-4.78111
-4.78154
-4.78202
-4.78255
-4.78314
-4.78378
-4.78449
-4.78526
-4.7861
-4.787
-4.78797
-4.90583
-4.90597
-4.90613
-4.90629
-4.90637
-4.90637
-4.90637
-4.90644
-4.90656
-4.90675
-4.90699
-4.90727
-4.90761
-4.90798
-4.9084
-4.90887
-4.90938
-4.90994
-4.91055
-4.91123
-4.91196
-4.91274
-4.91358
-5.03279
-5.03293
-5.03307
-5.03319
-5.03323
-5.03317
-5.03313
-5.03314
-5.03322
-5.03336
-5.03355
-5.03379
-5.03406
-5.03438
-5.03474
-5.03513
-5.03556
-5.03604
-5.03657
-5.03714
-5.03776
-5.03843
-5.03915
-5.15966
-5.15978
-5.15992
-5.15998
-5.15996
-5.15988
-5.15981
-5.15979
-5.15984
-5.15994
-5.16008
-5.16027
-5.16049
-5.16074
-5.16103
-5.16135
-5.16171
-5.1621
-5.16253
-5.163
-5.16352
-5.16407
-5.16466
-5.28643
-5.2865
-5.28668
-5.28661
-5.28661
-5.28649
-5.28642
-5.28639
-5.28641
-5.28648
-5.28658
-5.28672
-5.28688
-5.28707
-5.28729
-5.28754
-5.28782
-5.28812
-5.28846
-5.28883
-5.28923
-5.28967
-5.29014
-5.41311
-5.41312
-5.41337
-5.41312
-5.41315
-5.41301
-5.41296
-5.41293
-5.41295
-5.41299
-5.41306
-5.41315
-5.41326
-5.41338
-5.41353
-5.41371
-5.4139
-5.41412
-5.41436
-5.41463
-5.41492
-5.41523
-5.41558
-5.53974
-5.53968
-5.54002
-5.53956
-5.5396
-5.53947
-5.53946
-5.53945
-5.53946
-5.53948
-5.53952
-5.53956
-5.53962
-5.53968
-5.53976
-5.53986
-5.53997
-5.54009
-5.54024
-5.5404
-5.54058
-5.54078
-5.54099
-5.66633
-5.66622
-5.66678
-5.66603
-5.66608
-5.66595
-5.66597
-5.66598
-5.66599
-5.66599
-5.66599
-5.66599
-5.66599
-5.666
-5.66601
-5.66602
-5.66604
-5.66607
-5.66611
-5.66616
-5.66622
-5.6663
-5.66639
575.665
578.279
581.309
584.692
449.07
451.427
454.452
457.9
347.208
349.316
351.282
352.984
273.275
274.679
276.003
276.894
206.428
207.419
208.441
209.57
141.779
142.847
143.712
144.329
75.2674
76.376
77.5539
78.5822
19.9231
21.0533
22.5427
23.6949
-0.453864
-0.0533704
0.427461
0.516965
-1.55905
-1.56024
-1.55827
-1.54914
-1.70865
-1.7198
-1.72507
-1.722
-1.84687
-1.85322
-1.85609
-1.85685
-1.98725
-1.99022
-1.99143
-1.99206
-2.12175
-2.12252
-2.12295
-2.1232
-2.24911
-2.24911
-2.24892
-2.24878
-2.37318
-2.37356
-2.37364
-2.37351
-2.4979
-2.4987
-2.49917
-2.49927
-2.62547
-2.62624
-2.62701
-2.62741
-2.75763
-2.75798
-2.75875
-2.75945
-2.89093
-2.89193
-2.89312
-2.89417
-3.02049
-3.02237
-3.02413
-3.02576
-3.1479
-3.14966
-3.15138
-3.15308
-3.27494
-3.27643
-3.27793
-3.27943
-3.40188
-3.40318
-3.40452
-3.40587
-3.52861
-3.52979
-3.53101
-3.53225
-3.65516
-3.65626
-3.65739
-3.65853
-3.78157
-3.7826
-3.78365
-3.78473
-3.90785
-3.9088
-3.90979
-3.91079
-4.03399
-4.03488
-4.03579
-4.03673
-4.16002
-4.16084
-4.16168
-4.16255
-4.28594
-4.28669
-4.28747
-4.28826
-4.41176
-4.41244
-4.41315
-4.41387
-4.53749
-4.53811
-4.53875
-4.5394
-4.66314
-4.66369
-4.66426
-4.66485
-4.78872
-4.78921
-4.78971
-4.79023
-4.91423
-4.91466
-4.9151
-4.91555
-5.0397
-5.04006
-5.04043
-5.04081
-5.16512
-5.16542
-5.16572
-5.16604
-5.2905
-5.29074
-5.29097
-5.29122
-5.41584
-5.41601
-5.41619
-5.41637
-5.54116
-5.54127
-5.54138
-5.5415
-5.66646
-5.6665
-5.66655
-5.66661
596.079
593.482
604.432
614.675
621.346
629.019
638.161
646.549
655.151
665.326
675.088
681.519
688.987
707.462
719.758
731.294
740.229
740.748
745.064
464.705
468.242
478.022
489.224
495.564
502.294
511.732
521.429
529.987
536.909
543.643
554.233
571.859
589.453
603.044
614.7
621.872
623.509
628.15
356.393
361.817
366.767
372.095
376.085
381.477
388.648
395.892
404.068
413.073
423.003
435.28
456.989
475.058
489.14
499.462
504.887
507.331
512.04
278.368
279.673
281.289
280.16
279.348
281.435
285.888
290.664
297.725
307.048
318.092
330.521
345.255
362.219
376.308
384.46
391.742
396.942
400.87
210.373
209.37
210.257
209.506
207.776
207.236
209.411
214.696
220.259
226.705
235.743
246.424
256.665
268.108
280.279
290.391
301.044
309.709
314.376
144.935
145.002
144.672
143.782
142.249
142.132
143.603
147.052
152.795
159.84
169.271
179.454
189.315
200.107
212.036
224.488
236.988
246.786
252.452
79.9129
81.1609
80.9205
78.8753
75.8405
73.9686
74.6222
77.7558
83.6127
92.2172
103.193
114.476
126.694
139.989
154.306
168.655
181.503
191.457
197.879
25.023
26.8418
27.0321
24.6921
21.0301
18.8922
18.6518
20.0675
23.5178
29.5815
37.9551
48.6954
61.9785
78.9898
97.3608
114.191
129.007
140.093
147.803
0.792058
1.43774
1.44265
0.96272
0.302378
-0.0784655
-0.319307
-0.189483
0.373965
1.52253
3.31169
6.93758
13.1988
24.9559
43.0877
61.8472
79.743
92.4812
101.146
-1.53765
-1.4791
-1.39528
-1.38765
-1.37625
-1.37943
-1.35605
-1.33851
-1.32466
-1.27799
-1.33357
-1.1747
-0.850717
0.177204
7.1278
19.4853
35.5499
49.0644
57.6521
-1.71972
-1.72199
-1.71049
-1.67327
-1.63002
-1.58906
-1.56811
-1.56968
-1.59371
-1.6472
-1.70316
-1.77801
-1.7728
-1.70262
-1.84944
-0.222608
6.47599
16.7794
26.2768
-1.85842
-1.86128
-1.85176
-1.82961
-1.80194
-1.77741
-1.76782
-1.77253
-1.79182
-1.8279
-1.87479
-1.9269
-1.96937
-2.04511
-2.10242
-2.21236
-1.83741
-0.107883
2.93628
-1.99306
-1.99271
-1.98683
-1.97292
-1.95552
-1.942
-1.93833
-1.94665
-1.96589
-1.99928
-2.04325
-2.08698
-2.1339
-2.18491
-2.24077
-2.33779
-2.46174
-1.44098
1.96578
-2.12356
-2.12342
-2.11781
-2.10778
-2.09721
-2.09147
-2.0949
-2.10836
-2.13078
-2.16586
-2.20322
-2.23823
-2.27405
-2.31285
-2.35869
-2.43766
-2.55453
-2.59917
-2.60016
-2.24886
-2.24814
-2.24509
-2.23899
-2.23385
-2.23455
-2.24325
-2.25842
-2.28138
-2.31036
-2.33902
-2.36676
-2.39573
-2.42383
-2.45245
-2.49879
-2.54933
-2.5959
-2.61403
-2.37339
-2.37276
-2.37172
-2.37019
-2.37004
-2.3742
-2.38421
-2.39943
-2.41861
-2.44096
-2.46416
-2.48737
-2.51019
-2.52812
-2.54331
-2.56937
-2.60268
-2.63023
-2.64821
-2.49946
-2.50011
-2.50137
-2.50321
-2.50647
-2.51267
-2.52208
-2.53466
-2.5497
-2.5676
-2.58739
-2.60702
-2.62387
-2.63589
-2.64528
-2.66166
-2.6851
-2.70314
-2.70956
-2.62808
-2.6303
-2.63375
-2.63783
-2.64285
-2.64909
-2.65706
-2.6668
-2.67926
-2.69352
-2.70945
-2.72647
-2.74063
-2.7516
-2.76016
-2.77282
-2.78752
-2.79831
-2.80211
-2.7606
-2.76379
-2.76794
-2.77284
-2.77834
-2.78451
-2.79129
-2.79963
-2.80952
-2.82032
-2.83258
-2.84581
-2.85869
-2.86967
-2.87899
-2.88966
-2.9014
-2.91319
-2.91967
-2.89561
-2.89859
-2.90217
-2.90698
-2.91228
-2.91803
-2.92388
-2.93083
-2.93884
-2.94815
-2.95776
-2.96799
-2.97847
-2.98831
-2.99758
-3.00624
-3.015
-3.02311
-3.02698
-3.02807
-3.03085
-3.03373
-3.03801
-3.04313
-3.048
-3.05315
-3.05885
-3.06583
-3.07423
-3.08331
-3.09235
-3.10087
-3.10902
-3.1168
-3.12373
-3.13052
-3.13615
-3.13854
-3.1558
-3.1588
-3.16172
-3.16572
-3.17083
-3.17581
-3.1806
-3.18542
-3.19123
-3.1985
-3.20681
-3.21527
-3.22316
-3.23014
-3.23652
-3.2422
-3.24746
-3.2515
-3.25334
-3.28188
-3.28508
-3.28835
-3.29229
-3.29701
-3.3018
-3.30645
-3.31115
-3.31641
-3.32264
-3.32972
-3.33707
-3.34423
-3.35084
-3.35647
-3.3611
-3.36509
-3.36804
-3.36963
-3.40815
-3.41138
-3.41473
-3.41848
-3.4227
-3.42714
-3.43166
-3.43631
-3.44131
-3.44683
-3.4529
-3.45919
-3.46534
-3.47111
-3.47609
-3.48005
-3.48299
-3.48523
-3.48666
-3.53439
-3.53755
-3.54083
-3.54439
-3.54826
-3.55238
-3.55668
-3.56116
-3.56587
-3.5709
-3.57619
-3.58158
-3.58681
-3.59164
-3.59579
-3.59911
-3.60153
-3.60328
-3.60436
-3.66052
-3.6636
-3.66671
-3.67006
-3.67367
-3.6775
-3.68152
-3.68573
-3.69013
-3.6947
-3.6994
-3.7041
-3.7086
-3.71269
-3.71616
-3.71889
-3.72089
-3.72224
-3.72304
-3.7866
-3.78943
-3.7924
-3.79554
-3.7989
-3.80246
-3.8062
-3.8101
-3.81414
-3.8183
-3.82253
-3.82668
-3.83062
-3.83415
-3.83708
-3.83935
-3.84098
-3.84201
-3.84263
-3.91254
-3.91516
-3.91793
-3.92088
-3.924
-3.92729
-3.93073
-3.93432
-3.93802
-3.9418
-3.94559
-3.94931
-3.9528
-3.95588
-3.9584
-3.96031
-3.96163
-3.96243
-3.96292
-4.03834
-4.04078
-4.04335
-4.04607
-4.04895
-4.05198
-4.05515
-4.05843
-4.0618
-4.06522
-4.06864
-4.07197
-4.07507
-4.07778
-4.07997
-4.08158
-4.08267
-4.0833
-4.08369
-4.16404
-4.16628
-4.16865
-4.17116
-4.1738
-4.17657
-4.17946
-4.18245
-4.1855
-4.18859
-4.19166
-4.19463
-4.19741
-4.19979
-4.20168
-4.20305
-4.20396
-4.20447
-4.20483
-4.28963
-4.29168
-4.29384
-4.29613
-4.29854
-4.30106
-4.30369
-4.30639
-4.30914
-4.31191
-4.31465
-4.31726
-4.31981
-4.32187
-4.32348
-4.32464
-4.32542
-4.32589
-4.32616
-4.41512
-4.41698
-4.41895
-4.42102
-4.42319
-4.42547
-4.42783
-4.43025
-4.43271
-4.43518
-4.43762
-4.43996
-4.44212
-4.44391
-4.44531
-4.44633
-4.44703
-4.44747
-4.44773
-4.54052
-4.5422
-4.54396
-4.54582
-4.54776
-4.54979
-4.55189
-4.55404
-4.55621
-4.55839
-4.56052
-4.56257
-4.56442
-4.56598
-4.56721
-4.56815
-4.56882
-4.56928
-4.56954
-4.66585
-4.66734
-4.66891
-4.67055
-4.67226
-4.67405
-4.67589
-4.67776
-4.67966
-4.68154
-4.68337
-4.68513
-4.68672
-4.6881
-4.68922
-4.69012
-4.69083
-4.69133
-4.69159
-4.79111
-4.79242
-4.79379
-4.79522
-4.79671
-4.79825
-4.79984
-4.80145
-4.80307
-4.80467
-4.80622
-4.80768
-4.80906
-4.8103
-4.81138
-4.81231
-4.81307
-4.81362
-4.81386
-4.91631
-4.91744
-4.91861
-4.91983
-4.9211
-4.92241
-4.92376
-4.92512
-4.92648
-4.92782
-4.92912
-4.93033
-4.9315
-4.93262
-4.93369
-4.93469
-4.93554
-4.93614
-4.93637
-5.04146
-5.04241
-5.04339
-5.04441
-5.04547
-5.04655
-5.04766
-5.04879
-5.04991
-5.05102
-5.05213
-5.05317
-5.05413
-5.0551
-5.05615
-5.05726
-5.05824
-5.05892
-5.05912
-5.16657
-5.16734
-5.16814
-5.16896
-5.16981
-5.17068
-5.17156
-5.17246
-5.17337
-5.17427
-5.17519
-5.17611
-5.17695
-5.17777
-5.17875
-5.18003
-5.18121
-5.18198
-5.18218
-5.29164
-5.29224
-5.29286
-5.29349
-5.29413
-5.2948
-5.29547
-5.29616
-5.29685
-5.29755
-5.29827
-5.29903
-5.29981
-5.30058
-5.30154
-5.30309
-5.30447
-5.30537
-5.30561
-5.41667
-5.41711
-5.41755
-5.418
-5.41846
-5.41892
-5.41939
-5.41987
-5.42035
-5.42085
-5.42138
-5.42196
-5.42256
-5.42334
-5.42432
-5.42654
-5.42826
-5.4291
-5.4295
-5.54169
-5.54196
-5.54224
-5.54251
-5.54278
-5.54305
-5.54332
-5.5436
-5.54388
-5.54417
-5.54449
-5.54483
-5.5451
-5.5458
-5.54687
-5.55028
-5.55302
-5.55324
-5.55378
-5.66669
-5.66681
-5.66692
-5.66702
-5.66711
-5.66719
-5.66726
-5.66733
-5.6674
-5.66749
-5.66761
-5.66783
-5.6684
-5.66923
-5.67076
-5.67532
-5.67916
-5.67768
-5.67861
)
;

boundaryField
{
    leftWall
    {
        type            calculated;
        value           nonuniform List<scalar> 
50
(
5211.18
4411.16
3608.49
2803.01
1994.25
1219.53
758.512
635.034
540.899
414.463
315.222
243.925
179.104
113.746
48.3591
7.32092
-1.04602
-1.49574
-1.6738
-1.83373
-1.96182
-2.09409
-2.22644
-2.3571
-2.48646
-2.6151
-2.74327
-2.87112
-2.99874
-3.12619
-3.25351
-3.38075
-3.50792
-3.63505
-3.76214
-3.88921
-4.01626
-4.14332
-4.2704
-4.39749
-4.52459
-4.6517
-4.77879
-4.90583
-5.03279
-5.15966
-5.28643
-5.41311
-5.53974
-5.66633
)
;
    }
    rightWall
    {
        type            calculated;
        value           nonuniform List<scalar> 
50
(
2925.25
2157.77
1527.12
1148.06
990.593
938.412
886.089
832.031
745.064
628.15
512.04
400.87
314.376
252.452
197.879
147.803
101.146
57.6521
26.2768
2.93628
1.96578
-2.60016
-2.61403
-2.64821
-2.70956
-2.80211
-2.91967
-3.02698
-3.13854
-3.25334
-3.36963
-3.48666
-3.60436
-3.72304
-3.84263
-3.96292
-4.08369
-4.20483
-4.32616
-4.44773
-4.56954
-4.69159
-4.81386
-4.93637
-5.05912
-5.18218
-5.30561
-5.4295
-5.55378
-5.67861
)
;
    }
    lowerWall
    {
        type            calculated;
        value           nonuniform List<scalar> 
62
(
5609.33
5619.93
5639.02
5664.39
5692.91
5721.3
5746.55
5766.1
5777.76
5779.29
5768.56
5744.01
5705.32
5653.76
5590.9
5519.99
5445.54
5372.41
5305.08
5246.75
5199.93
5167.06
5150.15
4752.01
3951.54
3146.85
2338.05
1530.24
939.92
725.567
666.16
638.424
641.043
644.007
647.376
2360.8
1617.79
1107.33
936.246
875.227
810.121
749.595
691.937
2744.08
2757.37
2780.94
2816.19
2875.46
2957.08
3062.06
3181
3290.65
3365.37
3387.31
3364.05
3328.29
3299
3274.78
3275.78
3298.83
3313.84
3310.97
)
;
    }
    atmosphere
    {
        type            calculated;
        value           nonuniform List<scalar> 
46
(
-5.72943
-5.72938
-5.73097
-5.72927
-5.72912
-5.72921
-5.72927
-5.7293
-5.7293
-5.72929
-5.72927
-5.72924
-5.72921
-5.72918
-5.72915
-5.72912
-5.7291
-5.72907
-5.72905
-5.72904
-5.72904
-5.72904
-5.72905
-5.72908
-5.7291
-5.72913
-5.72916
-5.72919
-5.72924
-5.72927
-5.72928
-5.72928
-5.72926
-5.72924
-5.72921
-5.72917
-5.72914
-5.72911
-5.72908
-5.72906
-5.72907
-5.72911
-5.7391
-5.74684
-5.74043
-5.74138
)
;
    }
    defaultFaces
    {
        type            empty;
    }
}


// ************************************************************************* //
