/*--------------------------------*- C++ -*----------------------------------*\
| =========                 |                                                 |
| \\      /  F ield         | OpenFOAM: The Open Source CFD Toolbox           |
|  \\    /   O peration     | Version:  2312                                  |
|   \\  /    A nd           | Website:  www.openfoam.com                      |
|    \\/     M anipulation  |                                                 |
\*---------------------------------------------------------------------------*/
FoamFile
{
    version     2.0;
    format      ascii;
    arch        "LSB;label=32;scalar=64";
    class       volScalarField;
    location    "5.5";
    object      p_rgh;
}
// * * * * * * * * * * * * * * * * * * * * * * * * * * * * * * * * * * * * * //

dimensions      [1 -1 -2 0 0 0 0];

internalField   nonuniform List<scalar> 
2268
(
5609.33
5619.93
5639.02
5664.39
5692.91
5721.3
5746.55
5766.1
5777.76
5779.29
5768.56
5744.01
5705.32
5653.76
5590.9
5519.99
5445.54
5372.41
5305.08
5246.75
5199.93
5167.06
5150.15
5605.61
5616.63
5636.51
5662.63
5691.92
5721.08
5747.03
5767.21
5779.54
5781.72
5771.49
5747.08
5708.14
5656.19
5592.56
5520.57
5444.89
5370.61
5302.42
5243.45
5196.08
5162.81
5145.98
5599.24
5610.92
5631.92
5659.45
5690.26
5720.92
5748.24
5769.63
5783.22
5786.65
5777.43
5753.37
5713.88
5661.19
5595.99
5521.78
5443.59
5366.94
5297.01
5236.75
5188.26
5154.22
5137.6
5590.06
5602.69
5625.4
5655.18
5688.45
5721.45
5750.83
5773.91
5789.29
5794.56
5786.78
5763
5722.25
5668.71
5601.09
5523.52
5441.54
5361.32
5289.01
5227.03
5176.84
5141.48
5125.09
5577.46
5591.47
5616.41
5649.39
5686.54
5723.09
5755.44
5780.71
5798.27
5805.77
5799.86
5776.42
5733.53
5679.04
5607.55
5524.96
5437.85
5337.71
5240.79
5160.86
5089.65
5036.32
5055.18
5195.76
5246.33
5332.26
5435.74
5541.92
5638.97
5713.13
5759.23
5789.69
5807.5
5810.85
5775.31
5680.43
5550.11
5350.09
5054.62
4662.83
4283.44
3936.17
3607.83
3321.63
3111.13
2940.85
1959.55
2029.92
2171.13
2371.7
2609.01
2861.85
3106.41
3289.07
3441.21
3532.56
3524.96
3380.92
3125.82
2776.71
2349.29
1947.13
1638.89
1383.42
1231.46
1150.12
1111.66
1097.9
1095.07
1075.82
1076
1075.32
1074
1072.6
1070
1067.83
1068.31
1067.66
1065.84
1064.25
1063.84
1063.56
1064.81
1067.27
1071.34
1075.68
1081.71
1088.47
1095.03
1100.02
1103.59
1101.59
2744.08
2757.37
2780.94
2816.19
2875.46
2957.08
3062.06
3181
3290.65
3365.37
3387.31
3364.05
3328.29
3299
3274.78
3275.78
3298.83
3313.84
3310.97
2687.7
2714.87
2740.8
2773.32
2837.42
2929.3
3044.38
3180.05
3298.57
3377
3396.25
3362.79
3320.85
3294.21
3267.2
3270.73
3299.31
3314.63
3299.06
1846.05
1838.37
1872.85
1958.63
2091.24
2278.91
2517.77
2757.71
3012.91
3173.01
3174.37
3042.26
2960.03
2893.33
2797.63
2768.34
2888.69
2871.44
2767.24
1123.45
1139.1
1145.11
1151.26
1162.03
1201.9
1297.25
1501.81
1750.02
1960.92
2053.41
2018.06
1863.77
1710.85
1640.37
1739.66
1732.55
1878.4
2076.14
1134.18
1148.01
1162.27
1172.08
1173.01
1170.25
1171.58
1171.43
1169.66
1179.97
1189.22
1197.46
1198.86
1211.93
1227.98
1189.45
1213.1
1236.11
1233.35
1111.13
1150.45
1177.02
1189.33
1190.09
1174.01
1175.96
1178.86
1180.84
1194.76
1210.91
1216.52
1220.16
1270.62
1284.91
1221.46
1232.28
1256.84
1208.57
1101
1124.05
1138.58
1171.71
1200.85
1191.3
1176.6
1178.81
1184.97
1190.59
1207.96
1218.24
1221.57
1226.02
1243.49
1228.46
1247.28
1270.42
1219.08
1097.47
1121.58
1138.59
1147.9
1200.39
1203.49
1186.69
1179.44
1183.1
1193.94
1210.62
1219.29
1212.6
1212.49
1230.26
1250.14
1267.46
1273.04
1230.72
1072.8
1073.9
1074.09
1074.35
1074.21
1072.32
1070.65
1070.73
1069.74
1068.22
1067.24
1066.53
1066.32
1067.32
1069.77
1073.17
1076.93
1081.73
1086.91
1091.99
1096.79
1101.05
1105.77
1025.47
1038.51
1050.71
1061.43
1072.98
1077.86
1064.6
1061.61
1060.36
1053
1050.07
1051.2
1053.21
1059.21
1060.37
1053.84
1044.52
1039.43
1040.74
1049.7
1059.16
1070.24
1086.43
777.402
785.892
802.823
820.499
850.266
884.168
908.166
899.199
888.417
884.149
895.633
883.015
856.64
814.818
790.599
788.879
781.028
778.823
789.647
801.231
809.208
818.813
825.326
697.941
699.416
694.955
687.375
686.73
689.552
696.859
707.868
709.686
683.178
675.842
671.416
674.547
697.817
703.043
703.729
705.749
712.515
717.185
719.812
723.588
730.348
736.203
696.929
695.995
694.541
691.939
690.113
691.482
691.036
684.107
656.32
667.211
671.603
684.569
699.113
700.044
702.71
704.534
706.765
709.468
711.912
714.28
718.37
725.107
724.156
694.789
693.246
692.031
690.856
690.469
690.648
691.152
691.718
682.693
682.133
692.532
697.764
697.964
699.103
700.181
701.886
703.986
706.345
708.736
711.146
719.559
727.151
727.886
639.362
631.915
621.033
613.492
625.733
646.915
666.21
681.079
686.983
687.063
690.141
691.239
691.834
691.901
691.895
692.455
695.699
702.171
706.977
707.523
710.541
724.338
752.362
180.091
175.588
180.334
180.25
185.758
199.668
214.202
237.241
261.558
282.964
293.255
293.863
290.642
288.973
289.367
293.494
306.665
323.803
338.421
358.648
389.091
420.074
441.642
7.17224
6.57831
2.40844
0.573121
2.84744
7.65909
8.99043
4.42902
2.12685
1.67537
2.21953
2.62824
2.66121
1.73603
1.83583
3.64704
5.87156
5.92783
8.91213
9.31848
9.33982
8.6041
17.9834
0.382131
0.332739
0.150414
0.235592
0.219587
-0.0391697
-0.0593613
-0.0355381
-0.0118474
0.00672597
0.0223093
0.0387992
0.0581643
0.153234
0.377486
0.0986597
0.103352
0.113028
0.134087
0.162189
0.268972
0.448203
0.55416
0.111918
0.105763
0.0998455
0.0868751
0.0359393
0.000157016
-0.0180969
-0.0164243
-0.00289412
0.0125879
0.0272833
0.0468743
0.0667515
0.0782531
0.0891437
0.107791
0.120646
0.113365
0.105427
0.110681
0.124917
0.144686
0.132538
0.0775565
0.0754876
0.0677739
0.0505513
0.0425469
0.0268892
0.0147982
0.0129957
0.0213566
0.0333324
0.0421837
0.0768002
0.0842952
0.0937862
0.109121
0.122469
0.129842
0.120858
0.0986878
0.120828
0.204726
0.20225
0.177655
0.0746671
0.0736119
0.0692121
0.0587551
0.0478276
0.0366976
0.028692
0.0279331
0.0316682
0.0392089
0.0496293
0.0497673
0.0552429
0.058216
0.0801407
0.109675
0.118731
0.0969439
0.122687
0.249736
0.292233
0.316434
0.250684
0.0673381
0.0661621
0.0621931
0.0547286
0.0467641
0.0399906
0.0356738
0.0347385
0.036078
0.0388765
0.0425973
0.0466627
0.050983
0.0558279
0.0608047
0.0710609
0.0743657
0.103038
0.193532
0.293078
0.3307
0.301786
0.171807
0.0599451
0.0587596
0.0555188
0.0506348
0.0459016
0.0419568
0.0393881
0.0385418
0.0391477
0.0408506
0.04327
0.0461011
0.0491485
0.0522499
0.0552241
0.0580859
0.0680533
0.0954367
0.164975
0.272099
0.314038
0.24106
0.0461801
0.0543937
0.0534557
0.0512746
0.0482655
0.0452642
0.0426968
0.0409468
0.0402316
0.0404416
0.0414163
0.0429556
0.0448526
0.0469631
0.0490874
0.0510097
0.0528984
0.0598061
0.063013
0.06829
0.0956552
0.202878
0.0884661
0.0440007
0.0501948
0.049515
0.0480789
0.0461548
0.0441634
0.0424228
0.0412066
0.0406132
0.0405944
0.0410922
0.0420142
0.0432298
0.0446021
0.045972
0.0471543
0.0481092
0.0487294
0.0496347
0.0480718
0.0492547
0.0446085
0.0880496
0.085401
0.0467443
0.0462574
0.0453082
0.0440447
0.0427056
0.0415119
0.0406428
0.0401359
0.039977
0.0401611
0.0406454
0.0413447
0.042153
0.0429466
0.0435827
0.0439265
0.0438992
0.0434532
0.0434486
0.043898
0.0429126
0.117054
0.230869
0.0437638
0.0434138
0.0427798
0.0419355
0.0410273
0.0401943
0.0395598
0.0390954
0.0388415
0.0388113
0.0389815
0.0392977
0.0396799
0.0400332
0.0402543
0.0402535
0.0399848
0.0395117
0.0394835
0.0400281
0.0382802
0.0617867
0.235367
0.0411099
0.0408493
0.0404185
0.0398417
0.0392106
0.0386054
0.0380755
0.0376692
0.0373592
0.0371802
0.0371266
0.0371614
0.0372261
0.037248
0.0371499
0.0368652
0.036354
0.0356713
0.0355243
0.0380625
0.036024
0.0288979
0.0244721
0.0386843
0.0384824
0.0381799
0.0377723
0.0373173
0.036861
0.0364251
0.0360176
0.0356584
0.0353711
0.0351547
0.0349838
0.0348139
0.0345877
0.0342447
0.0337284
0.0329914
0.0320232
0.0312171
0.0329392
0.0324954
0.0286026
0.0209367
0.0364269
0.0362609
0.036038
0.0357331
0.0353864
0.0350174
0.0346302
0.0342216
0.0338235
0.0334559
0.0331208
0.0327997
0.0324575
0.0320487
0.0315234
0.030832
0.029929
0.028778
0.0273425
0.0258226
0.0279632
0.0266719
0.0223172
0.0342939
0.0341471
0.0339717
0.0337253
0.0334445
0.0331285
0.0327542
0.0323406
0.031912
0.0314855
0.0310644
0.0306347
0.0301683
0.0296283
0.0289723
0.0281565
0.0271358
0.0259373
0.0244
0.0225788
0.0211328
0.022997
0.0202127
0.0322565
0.0321125
0.031966
0.0317468
0.0314966
0.0311987
0.0308341
0.0304149
0.0299638
0.0294953
0.0290134
0.0285074
0.0279551
0.0273255
0.026583
0.0256905
0.0246294
0.0233589
0.0218421
0.0200625
0.0180179
0.0161111
0.0154181
0.0302776
0.0301385
0.0300026
0.0298031
0.0295622
0.0292644
0.0288971
0.0284717
0.0280057
0.0275096
0.0269872
0.026431
0.0258228
0.0251369
0.0243439
0.0234136
0.0223222
0.021044
0.0195571
0.0178523
0.0159253
0.0137928
0.0117694
0.0283462
0.028207
0.0280753
0.027885
0.0276487
0.0273526
0.0269672
0.0265291
0.0260558
0.0255445
0.0249991
0.0244137
0.0237737
0.0230578
0.0222409
0.0212981
0.020208
0.018951
0.0175121
0.0158853
0.0140768
0.0121033
0.00996629
0.0264498
0.0263085
0.0261782
0.0259953
0.0257828
0.0254866
0.0250532
0.0246122
0.0241314
0.023611
0.0230577
0.0224606
0.0218082
0.0210833
0.0202643
0.0193303
0.018263
0.0170467
0.01567
0.0141284
0.0124227
0.0105592
0.00854994
0.0245767
0.0244323
0.0243084
0.0241754
0.0240964
0.0236679
0.0231611
0.0227224
0.0222428
0.0217248
0.0211714
0.0205758
0.0199268
0.0192093
0.0184051
0.0174963
0.0164669
0.0153041
0.013999
0.0125481
0.0109515
0.00921247
0.00733762
0.0227165
0.0225723
0.0225168
0.0229173
0.0232917
0.0217696
0.0212921
0.0208625
0.0203955
0.0198901
0.0193482
0.0187647
0.0181304
0.0174326
0.0166557
0.0157839
0.0148033
0.0137028
0.0124753
0.011118
0.00963059
0.00801408
0.00627641
0.0208558
0.0207325
0.0210943
0.0232923
0.0223423
0.0198159
0.0194402
0.0190331
0.01859
0.0181087
0.0175894
0.0170282
0.0164182
0.0157492
0.0150085
0.0141823
0.0132582
0.0122264
0.0110807
0.00981862
0.00843954
0.00694543
0.00533999
0.0189873
0.0189594
0.0200879
0.0215555
0.0200376
0.0179548
0.0176047
0.0172346
0.0168269
0.0163805
0.0158941
0.0153645
0.014787
0.0141542
0.0134564
0.0126819
0.0118199
0.0108613
0.00980034
0.00863476
0.00736398
0.00598848
0.00451497
0.0170997
0.0172517
0.0188901
0.0196861
0.0166708
0.0161059
0.0157935
0.0154696
0.0151077
0.0147054
0.0142605
0.0137705
0.0132326
0.0126422
0.0119925
0.0112744
0.0104782
0.00959585
0.00862182
0.00755367
0.00639073
0.00513479
0.00378939
0.0152039
0.015555
0.0178726
0.0168769
0.0145836
0.0142758
0.0140133
0.0137428
0.0134344
0.0130833
0.0126864
0.0122423
0.0117499
0.0112072
0.0106099
0.00995149
0.00922395
0.00841994
0.00753422
0.00656427
0.00550948
0.00437015
0.0031539
0.0133087
0.0138313
0.0160749
0.0148602
0.0127983
0.0124768
0.0122778
0.0120607
0.0118102
0.0115139
0.011169
0.0107752
0.0103331
0.00984234
0.00930107
0.00870507
0.00804823
0.00732411
0.00652777
0.00565649
0.00470932
0.00368844
0.00259784
0.0114368
0.0122351
0.0144416
0.0128744
0.0109049
0.010735
0.0105969
0.0104308
0.0102377
0.0099966
0.00970494
0.00936391
0.00897531
0.00854011
0.00805799
0.00752685
0.00694242
0.00629938
0.00559313
0.00482096
0.00398199
0.00307686
0.00211349
0.00960075
0.0104346
0.012952
0.0102194
0.00909644
0.00906556
0.00897519
0.00885899
0.00871863
0.00852954
0.00828998
0.0080023
0.00766922
0.00729234
0.00687225
0.00640824
0.00589785
0.00533698
0.00472157
0.00404893
0.00331804
0.00253109
0.00169163
0.00784567
0.00858274
0.0111502
0.00869747
0.00742369
0.00747109
0.00741882
0.00734735
0.00725138
0.0071087
0.00691831
0.00668329
0.00640671
0.00609029
0.00573487
0.0053404
0.00490572
0.0044282
0.00390439
0.00333188
0.0027099
0.00203817
0.00132484
0.00619109
0.00712568
0.0096114
0.00803275
0.00594972
0.00597117
0.00592466
0.00589161
0.00583093
0.00572791
0.00558287
0.00539897
0.00517911
0.00492471
0.00463635
0.004314
0.00395712
0.00356429
0.00313314
0.0026614
0.00214809
0.00159489
0.00100405
0.00463358
0.00639965
0.00794415
0.00654144
0.00468593
0.00453702
0.00449148
0.00448605
0.00445113
0.00438082
0.00427684
0.00414186
0.00397815
0.00378655
0.00356713
0.00331943
0.00304288
0.00273664
0.00239935
0.00202933
0.00162608
0.00118887
0.000723493
0.00315926
0.00476315
0.00535829
0.00460356
0.00327745
0.00313064
0.00312079
0.00312712
0.0031083
0.00306384
0.00299642
0.0029076
0.00279855
0.0026694
0.00251965
0.00234837
0.00215455
0.00193724
0.0016955
0.00142847
0.00113581
0.000819146
0.000477141
0.00173769
0.00252949
0.0036119
0.00257544
0.00179784
0.00180543
0.0018019
0.00180183
0.00179032
0.00176702
0.00173294
0.00168814
0.00163239
0.001565
0.00148504
0.00139129
0.00128232
0.00115668
0.00101311
0.000851039
0.000670957
0.000473207
0.000258288
0.00049349
0.000565452
0.0015729
0.000642915
0.000383754
0.000498955
0.000473769
0.000462338
0.0004541
0.00045055
0.000449809
0.000449578
0.000448152
0.000444038
0.000435964
0.000422689
0.000402803
0.000374617
0.000335617
0.000283319
0.000218202
0.000142836
5.71981e-05
1110.51
1113.17
1115.63
1118.9
1089.75
1089.19
1085.56
1092.68
824.423
824.439
838.612
861.332
772.64
777.542
778.768
734.499
721.672
717.706
723.89
725.197
727.167
726.911
726.434
726.845
762.97
763.246
752.417
731.312
447.752
451.898
473.346
497.092
26.2515
35.8818
49.8497
48.4987
0.533889
0.384834
0.469001
0.631604
0.109662
0.0845867
0.079182
0.109515
0.163568
0.125165
0.0581249
0.0593845
0.102848
0.0582369
0.0534974
0.0514349
0.0551578
0.0446926
0.0441169
0.0440136
0.0412773
0.0430594
0.0450446
0.0452778
0.0435634
0.0457908
0.0450269
0.0430184
0.0452548
0.0428613
0.0418966
0.0447422
0.104323
0.0461254
0.059123
0.106476
0.279412
0.174356
0.153236
0.20582
0.0954342
0.187215
0.196435
0.223623
0.0172973
0.0157369
0.0208541
0.0612403
0.0156538
0.013653
0.0119853
0.00978799
0.0158715
0.0124853
0.0111348
0.00928771
0.0140777
0.012229
0.00907927
0.00774218
0.01057
0.00943766
0.00770364
0.0061819
0.00843477
0.00724549
0.00608575
0.00490768
0.00698946
0.00596466
0.00490839
0.0038178
0.00588195
0.00492359
0.00394014
0.00293311
0.00492266
0.00403273
0.00312218
0.00218778
0.00409018
0.00326903
0.00242615
0.00156314
0.0033661
0.00261065
0.00183838
0.00104585
0.00274251
0.00205476
0.00134885
0.000626369
0.00220639
0.00158321
0.000947149
0.00029396
0.0017506
0.00119437
0.000623743
3.97869e-05
0.00136372
0.000871167
0.000369718
-0.000145711
0.00104111
0.000614632
0.000177071
-0.000269887
0.000770591
0.000406369
3.70781e-05
-0.000342572
0.000547324
0.000248318
-5.85625e-05
-0.000370516
0.000361277
0.000123561
-0.000115823
-0.000361157
0.000212258
3.91111e-05
-0.000139164
-0.000317871
8.8798e-05
-2.3136e-05
-0.000134295
-0.000247654
-1.42949e-05
-6.15811e-05
-0.000111629
-0.000162556
1125.66
1127.22
1137.47
1144.63
1177.44
1182.18
1180.14
1177.12
1183.8
1196.27
1267.53
1271.1
1203.49
1199.47
1237.95
1246.5
1266.95
1268.46
1245.69
1112.47
1095.71
1113.09
1135.4
1140.52
1161.77
1168.36
1174.31
1189.36
1254.28
1265.68
1265.44
1163.38
1219.52
1230.09
1245.53
1275.09
1268.02
1265.01
870.409
875.614
943.558
1056.04
1100.1
1099.91
1129.57
1163.76
1174.53
1121.36
1075.47
1129.08
1224.63
1226.86
1232.82
1259.08
1304.88
1314.62
1288.36
751.437
805.203
798.94
813.197
833.218
881.978
910.897
880.677
908.702
979.715
999.247
1009.23
1127.81
1220.98
1249.03
1286.41
1255.5
1219.66
1246.42
732.726
725.428
745.279
765.62
754.743
726.042
721.216
733.554
740.903
753.864
775.624
824.339
876.781
949.776
988.671
989.592
954.367
934.986
917.124
729.547
725.626
732.587
746.746
732.74
723.315
725.059
730.954
738.581
750.388
763.495
770.633
771.627
788.887
808.688
829.271
873.61
870.811
852.382
727.467
728.408
728.307
751.32
748.22
740.907
728.173
724.08
728.665
738.163
759.589
771.409
777.716
788.731
803.406
826.048
848.404
857.608
858.396
514.104
540.394
547.204
504.639
439.918
407.074
415.56
441.585
489.956
580.995
683.644
758.955
790.917
798.886
811.084
832.353
848.808
859.788
873.366
56.4134
69.0599
64.7945
52.7636
34.707
27.8075
20.7866
23.3665
36.8777
61.0548
111.364
188.503
334.221
625.42
816.529
848.965
864.277
878.692
993.163
0.651739
3.66731
5.80094
3.46611
1.80437
0.32145
0.304803
0.543822
1.17181
4.71289
3.64207
11.6078
23.9452
43.2718
266.646
593.935
903.523
1003.87
1042.31
0.128063
0.0778691
0.192871
0.26572
0.176537
0.197009
0.217911
0.216121
0.192017
0.138393
0.0826045
0.0484063
0.0538651
2.6052
2.56735
78.0104
344.688
706.484
921.784
0.079541
0.0574598
0.0666631
0.0923476
0.121396
0.138678
0.144109
0.139228
0.131463
0.129236
0.0991654
0.101365
0.18449
0.0621329
-0.0238666
0.154163
44.4976
191.879
285.938
0.0459522
0.0460792
0.0536688
0.0690707
0.0843454
0.100518
0.121456
0.177841
0.21167
0.341583
0.306448
0.224476
0.154636
0.0545289
-0.17362
-0.219277
0.413077
47.4305
160.533
0.0445822
0.0467225
0.0512592
0.0596976
0.0930028
0.131353
0.127056
0.115239
0.216471
0.177799
0.093599
0.0256255
-0.0133079
-0.108839
-0.188412
-0.269299
-0.390132
-0.412203
-0.411848
0.0445462
0.0423631
0.0463585
0.0686781
0.0958075
0.101929
0.10823
0.0644429
0.0168075
-0.0118804
-0.0233858
0.00944928
-0.0408159
-0.111297
-0.16324
-0.210679
-0.262318
-0.243636
-0.227007
0.0415867
0.0422864
0.0434281
0.0559224
0.105032
0.157304
0.130009
0.0584533
-0.00235897
-0.0249254
0.0296686
0.125121
0.0874266
-0.100072
-0.128357
-0.115855
-0.074591
-0.0557891
-0.0911907
0.0580779
0.096965
0.110607
0.111948
0.14814
0.161738
0.148696
0.0616537
-0.00795399
-0.0263387
0.0023297
0.0930688
0.08292
0.0992192
0.0525274
0.0621525
0.0433453
-0.0236772
0.0102772
0.143238
0.179017
0.176053
0.164358
0.17013
0.150162
0.126442
0.124296
0.0971111
0.0268494
-0.0193031
0.0047771
0.0520232
0.0860024
0.0995682
0.0485744
-0.0336619
-0.0504882
-0.000421327
0.231978
0.25438
0.174637
0.148895
0.145089
0.188277
0.187386
0.175917
0.105621
0.0943462
0.0541187
-0.0256052
-0.035835
-0.0286301
-0.0170907
-0.0641242
-0.0788012
-0.0767481
-0.0987531
0.267013
0.243044
0.166208
0.123522
0.131224
0.07424
0.0754216
0.0680496
0.0668082
0.0864774
0.100175
0.0885692
0.015525
-0.010288
-0.0318955
-0.075823
-0.059645
-0.0962126
-0.102977
0.127446
0.127143
0.0737196
0.0219019
0.0397378
0.0536369
0.0650814
0.020922
-0.0186912
-0.022787
0.0215216
0.0547679
0.0436945
0.00155107
-0.0354934
-0.0426771
-0.0461297
-0.0521094
-0.0535204
0.00680371
0.00380062
0.0026564
0.00251004
0.00645696
0.0101469
0.00834358
0.00120067
-0.0152288
-0.0349273
-0.0428669
-0.0460514
-0.0300779
-0.0127712
-0.0228662
-0.0325827
-0.0389993
-0.0407081
-0.039364
0.00629413
0.00277051
-0.000524077
-0.00442803
-0.00906447
-0.0140077
-0.0186607
-0.0225507
-0.0265582
-0.0331822
-0.0416137
-0.0488343
-0.0561486
-0.0460892
-0.032602
-0.0246619
-0.0605545
-0.0672712
-0.0362389
0.0053365
0.00182821
-0.0016586
-0.0054053
-0.00962072
-0.014134
-0.0186697
-0.0233263
-0.0283203
-0.0336007
-0.0397597
-0.0460837
-0.0522347
-0.0578291
-0.0614688
-0.0529695
-0.0676981
-0.070437
-0.0602758
0.00403131
0.000708817
-0.00257734
-0.00612804
-0.0100174
-0.0141744
-0.018486
-0.0229686
-0.027683
-0.0326966
-0.0379605
-0.0433426
-0.0485598
-0.0533504
-0.0574888
-0.0604113
-0.062588
-0.0641881
-0.056768
0.00287881
-0.000220202
-0.00331714
-0.00667214
-0.0102857
-0.0141264
-0.0181558
-0.0223636
-0.0267535
-0.0313184
-0.0360001
-0.0406674
-0.0451412
-0.0492041
-0.0527002
-0.0553191
-0.0571235
-0.0575441
-0.0523534
0.0019447
-0.000889624
-0.0038513
-0.00700132
-0.0103622
-0.0139188
-0.0176557
-0.0215513
-0.0255867
-0.0297388
-0.0339427
-0.0380669
-0.0419652
-0.0454537
-0.0484006
-0.0503722
-0.0516664
-0.0498726
-0.0458937
0.00119022
-0.00143623
-0.00420892
-0.0071494
-0.0102688
-0.0135571
-0.0170021
-0.020583
-0.0242747
-0.028045
-0.0318233
-0.0355094
-0.0389529
-0.0419937
-0.0444868
-0.0458585
-0.0463374
-0.0441503
-0.0448498
0.000571964
-0.00185869
-0.00443142
-0.00715562
-0.0100349
-0.0130627
-0.016225
-0.019499
-0.0228604
-0.0262707
-0.029672
-0.0329728
-0.0360391
-0.0387073
-0.0408397
-0.0421489
-0.0414858
-0.0394652
-0.0419304
7.19179e-05
-0.00216711
-0.00453712
-0.00704285
-0.00968466
-0.0124561
-0.015343
-0.0183236
-0.0213705
-0.0244443
-0.0274912
-0.0304263
-0.0331641
-0.0355163
-0.0373509
-0.0385385
-0.0383213
-0.0362932
-0.0391628
-0.000321929
-0.00237124
-0.00453833
-0.00682555
-0.00923176
-0.0117506
-0.0143684
-0.0170643
-0.0198097
-0.022567
-0.0252772
-0.0278486
-0.0303234
-0.0323154
-0.0338396
-0.0349022
-0.0356357
-0.0355506
-0.0357636
-0.000619584
-0.00248073
-0.00444558
-0.00651518
-0.00868759
-0.0109565
-0.0133084
-0.0157229
-0.0181729
-0.0206347
-0.0230425
-0.0253305
-0.0273405
-0.0290032
-0.0303916
-0.0313672
-0.0322936
-0.0321965
-0.0321503
-0.00083069
-0.00250507
-0.00426889
-0.00612223
-0.0080626
-0.0100831
-0.0121704
-0.0143019
-0.0164435
-0.0185957
-0.0207257
-0.0227034
-0.0243997
-0.0257653
-0.0269894
-0.0279739
-0.0284365
-0.027501
-0.0286445
-0.000964671
-0.00245392
-0.00401842
-0.00565739
-0.00736806
-0.009143
-0.0109713
-0.0128261
-0.0146287
-0.0163733
-0.0182427
-0.0200291
-0.0214748
-0.0225003
-0.0230373
-0.0237869
-0.0223181
-0.0228432
-0.0255281
-0.00103036
-0.00233664
-0.00370417
-0.00513178
-0.00661657
-0.0081514
-0.00972517
-0.0113231
-0.0128627
-0.0140508
-0.0153146
-0.0174019
-0.0185988
-0.0194526
-0.0192937
-0.0180153
-0.0186281
-0.020403
-0.0229135
-0.00103655
-0.00216259
-0.00333627
-0.00455652
-0.00582099
-0.00712355
-0.00845182
-0.00978534
-0.0111122
-0.0123734
-0.0115991
-0.00622246
-0.0112884
-0.0166831
-0.0169036
-0.0157418
-0.0157406
-0.019013
-0.0202786
-0.000991707
-0.00194034
-0.00292388
-0.00394175
-0.00499256
-0.00607186
-0.00717046
-0.00827223
-0.00936254
-0.0104018
-0.0104491
-0.00113148
0.00100133
-0.00998684
-0.0143292
-0.0150299
-0.0147085
-0.0168967
-0.0156253
-0.000903506
-0.00167789
-0.00247541
-0.00329651
-0.00414081
-0.00500575
-0.00588555
-0.00676804
-0.00763751
-0.00849043
-0.00916248
-0.0041949
0.0040283
0.00390633
-0.00912092
-0.0127067
-0.014688
-0.0141782
-0.00728136
-0.000778391
-0.00138199
-0.00199858
-0.00262946
-0.00327488
-0.00393391
-0.00460375
-0.00527955
-0.00595018
-0.00660791
-0.00726188
-0.00769998
4.40222e-07
0.00747927
0.00741651
-0.00693382
-0.0128527
-0.012435
-0.00099072
-0.000621168
-0.00105846
-0.00150074
-0.00194926
-0.00240405
-0.00286502
-0.00333174
-0.00380278
-0.00427508
-0.00474451
-0.00521445
-0.00571431
-0.00581215
0.00496391
0.0112555
0.00757733
-0.00582264
-0.0116358
0.00424149
-0.000440059
-0.00071647
-0.000991095
-0.00126446
-0.00153576
-0.00180531
-0.00207436
-0.00234503
-0.00261885
-0.00289519
-0.00316838
-0.00343587
-0.00357532
-0.0035149
0.00855105
0.0120531
0.00348591
-0.00756228
0.00662142
-0.000247541
-0.000367693
-0.000478192
-0.000578891
-0.000668781
-0.000748727
-0.000820694
-0.000888487
-0.000957878
-0.00103675
-0.00114016
-0.00132205
-0.00183587
-0.00264848
-0.00394823
0.0010759
0.00489384
3.3899e-05
3.72163e-05
)
;

boundaryField
{
    leftWall
    {
        type            fixedFluxPressure;
        gradient        uniform 0;
        value           nonuniform List<scalar> 
50
(
5609.33
5605.61
5599.24
5590.06
5577.46
5195.76
1959.55
1075.82
1072.8
1025.47
777.402
697.941
696.929
694.789
639.362
180.091
7.17224
0.382131
0.111918
0.0775565
0.0746671
0.0673381
0.0599451
0.0543937
0.0501948
0.0467443
0.0437638
0.0411099
0.0386843
0.0364269
0.0342939
0.0322565
0.0302776
0.0283462
0.0264498
0.0245767
0.0227165
0.0208558
0.0189873
0.0170997
0.0152039
0.0133087
0.0114368
0.00960075
0.00784567
0.00619109
0.00463358
0.00315926
0.00173769
0.00049349
)
;
    }
    rightWall
    {
        type            fixedFluxPressure;
        gradient        uniform 0;
        value           nonuniform List<scalar> 
50
(
3310.97
3299.06
2767.24
2076.14
1233.35
1208.57
1219.08
1230.72
1245.69
1265.01
1288.36
1246.42
917.124
852.382
858.396
873.366
993.163
1042.31
921.784
285.938
160.533
-0.411848
-0.227007
-0.0911907
0.0102772
-0.000421327
-0.0987531
-0.102977
-0.0535204
-0.039364
-0.0362389
-0.0602758
-0.056768
-0.0523534
-0.0458937
-0.0448498
-0.0419304
-0.0391628
-0.0357636
-0.0321503
-0.0286445
-0.0255281
-0.0229135
-0.0202786
-0.0156253
-0.00728136
-0.00099072
0.00424149
0.00662142
3.72163e-05
)
;
    }
    lowerWall
    {
        type            fixedFluxPressure;
        gradient        uniform 0;
        value           nonuniform List<scalar> 
62
(
5609.33
5619.93
5639.02
5664.39
5692.91
5721.3
5746.55
5766.1
5777.76
5779.29
5768.56
5744.01
5705.32
5653.76
5590.9
5519.99
5445.54
5372.41
5305.08
5246.75
5199.93
5167.06
5150.15
5150.15
5145.98
5137.6
5125.09
5055.18
2940.85
1095.07
1101.59
1110.51
1113.17
1115.63
1118.9
2744.08
2687.7
1846.05
1123.45
1134.18
1111.13
1101
1097.47
2744.08
2757.37
2780.94
2816.19
2875.46
2957.08
3062.06
3181
3290.65
3365.37
3387.31
3364.05
3328.29
3299
3274.78
3275.78
3298.83
3313.84
3310.97
)
;
    }
    atmosphere
    {
        type            totalPressure;
        rho             rho;
        psi             none;
        gamma           1;
        p0              uniform 0;
        value           nonuniform List<scalar> 
46
(
0
0
0
0
-8.12545e-05
-0.000167173
-0.000231043
-0.000256064
-0.00025796
-0.000246914
-0.000227038
-0.000201661
-0.000172985
-0.000142745
-0.000112275
-8.27251e-05
-5.52187e-05
-3.11173e-05
-1.24543e-05
-2.26854e-06
-1.21427e-07
-9.77109e-07
-1.11067e-05
-3.77118e-05
-6.19546e-05
-8.92003e-05
-0.000115286
-0.000149596
-0.000196466
-0.000226921
-0.000240783
-0.000239253
-0.000224484
-0.000199177
-0.000166914
-0.000132292
-9.90151e-05
-6.90255e-05
-4.26294e-05
-2.44208e-05
-2.89466e-05
-6.56264e-05
0
0
0
0
)
;
    }
    defaultFaces
    {
        type            empty;
    }
}


// ************************************************************************* //
