/*--------------------------------*- C++ -*----------------------------------*\
| =========                 |                                                 |
| \\      /  F ield         | OpenFOAM: The Open Source CFD Toolbox           |
|  \\    /   O peration     | Version:  2312                                  |
|   \\  /    A nd           | Website:  www.openfoam.com                      |
|    \\/     M anipulation  |                                                 |
\*---------------------------------------------------------------------------*/
FoamFile
{
    version     2.0;
    format      ascii;
    arch        "LSB;label=32;scalar=64";
    class       surfaceScalarField;
    location    "5.5";
    object      phi;
}
// * * * * * * * * * * * * * * * * * * * * * * * * * * * * * * * * * * * * * //

dimensions      [0 3 -1 0 0 0 0];

oriented        oriented;

internalField   nonuniform List<scalar> 
4432
(
1.30902e-06
-1.30897e-06
2.24626e-06
-9.37195e-07
3.17854e-06
-9.32247e-07
4.10729e-06
-9.28729e-07
5.01515e-06
-9.07834e-07
5.87087e-06
-8.55704e-07
6.65328e-06
-7.82398e-07
7.35045e-06
-6.97159e-07
7.93894e-06
-5.88481e-07
8.39286e-06
-4.53912e-07
8.69363e-06
-3.00774e-07
8.83259e-06
-1.3897e-07
8.79956e-06
3.30218e-08
8.56798e-06
2.31567e-07
8.11191e-06
4.56063e-07
7.42049e-06
6.91407e-07
6.49733e-06
9.23146e-07
5.38644e-06
1.11088e-06
4.18014e-06
1.20629e-06
2.94554e-06
1.23459e-06
1.72768e-06
1.21786e-06
5.86778e-07
1.14089e-06
5.8678e-07
8.76789e-07
-2.18563e-06
1.82272e-06
-1.88304e-06
2.76512e-06
-1.87458e-06
3.70696e-06
-1.87052e-06
4.63108e-06
-1.83191e-06
5.50681e-06
-1.73142e-06
6.30539e-06
-1.58096e-06
7.02752e-06
-1.41929e-06
7.64268e-06
-1.20364e-06
8.12163e-06
-9.32869e-07
8.44797e-06
-6.27109e-07
8.60977e-06
-3.00774e-07
8.6019e-06
4.08888e-08
8.39469e-06
4.3878e-07
7.96385e-06
8.86894e-07
7.29864e-06
1.3566e-06
6.39689e-06
1.82487e-06
5.3115e-06
2.19624e-06
4.13784e-06
2.37991e-06
2.96039e-06
2.41199e-06
1.81733e-06
2.36088e-06
7.62293e-07
2.19587e-06
1.34903e-06
7.64097e-07
-2.9497e-06
1.67845e-06
-2.79737e-06
2.6e-06
-2.79612e-06
3.52605e-06
-2.79656e-06
4.43773e-06
-2.74361e-06
5.30628e-06
-2.59998e-06
6.10005e-06
-2.37475e-06
6.82728e-06
-2.14653e-06
7.45227e-06
-1.82865e-06
7.94107e-06
-1.42167e-06
8.27962e-06
-9.65663e-07
8.45783e-06
-4.78996e-07
8.47303e-06
2.56861e-08
8.29078e-06
6.21037e-07
7.88233e-06
1.29533e-06
7.24312e-06
1.9958e-06
6.35623e-06
2.71174e-06
5.27751e-06
3.27493e-06
4.14554e-06
3.51184e-06
3.03269e-06
3.52479e-06
1.9473e-06
3.44623e-06
9.52346e-07
3.19078e-06
2.30135e-06
8.03998e-07
-3.75371e-06
1.71629e-06
-3.70969e-06
2.63943e-06
-3.7193e-06
3.56375e-06
-3.72095e-06
4.46836e-06
-3.6483e-06
5.32158e-06
-3.45329e-06
6.0981e-06
-3.15137e-06
6.81076e-06
-2.85927e-06
7.44122e-06
-2.45918e-06
7.94242e-06
-1.92292e-06
8.28148e-06
-1.30475e-06
8.4528e-06
-6.50327e-07
8.47701e-06
1.49713e-09
8.30652e-06
7.91552e-07
7.90365e-06
1.69824e-06
7.27359e-06
2.62591e-06
6.38169e-06
3.60366e-06
5.30302e-06
4.3536e-06
4.22697e-06
4.58788e-06
3.22023e-06
4.5315e-06
2.21714e-06
4.44927e-06
1.20321e-06
4.20467e-06
3.50452e-06
8.83768e-07
-4.63749e-06
1.82306e-06
-4.64901e-06
2.77517e-06
-4.67145e-06
3.72998e-06
-4.67581e-06
4.68951e-06
-4.60788e-06
5.60165e-06
-4.36547e-06
6.40597e-06
-3.95573e-06
7.10089e-06
-3.55423e-06
7.7134e-06
-3.07172e-06
8.22139e-06
-2.43093e-06
8.58032e-06
-1.66368e-06
8.74562e-06
-8.15623e-07
8.7514e-06
-4.26713e-09
8.51413e-06
1.02884e-06
7.93513e-06
2.27726e-06
7.14281e-06
3.41824e-06
6.14857e-06
4.59792e-06
5.16731e-06
5.33488e-06
4.24053e-06
5.51466e-06
3.32241e-06
5.44963e-06
2.4211e-06
5.35058e-06
1.48636e-06
5.13942e-06
4.99091e-06
8.96575e-07
-5.5341e-06
1.83919e-06
-5.59165e-06
2.79951e-06
-5.63181e-06
3.76833e-06
-5.64467e-06
4.8096e-06
-5.64921e-06
5.90323e-06
-5.45915e-06
6.87918e-06
-4.93175e-06
7.53912e-06
-4.21422e-06
7.87301e-06
-3.40567e-06
8.02438e-06
-2.58234e-06
8.08079e-06
-1.72013e-06
8.07844e-06
-8.13284e-07
8.00369e-06
7.04927e-08
7.73802e-06
1.29452e-06
7.11709e-06
2.89823e-06
6.3901e-06
4.14529e-06
5.60728e-06
5.3808e-06
4.91911e-06
6.0231e-06
4.21727e-06
6.21653e-06
3.2916e-06
6.37531e-06
2.25015e-06
6.392e-06
1.27566e-06
6.11391e-06
6.2665e-06
6.7481e-07
-6.20895e-06
1.47953e-06
-6.39635e-06
2.35598e-06
-6.50827e-06
3.24762e-06
-6.53635e-06
4.23054e-06
-6.63221e-06
5.3459e-06
-6.57461e-06
6.52533e-06
-6.11128e-06
7.55094e-06
-5.23992e-06
8.35432e-06
-4.20913e-06
8.96088e-06
-3.18897e-06
9.28342e-06
-2.04273e-06
9.32859e-06
-8.58502e-07
9.01142e-06
3.87633e-07
8.32705e-06
1.97889e-06
7.05026e-06
4.17502e-06
5.33662e-06
5.85893e-06
3.40744e-06
7.30996e-06
1.02645e-06
8.40403e-06
-1.14177e-06
8.38465e-06
-2.68301e-06
7.91644e-06
-3.13029e-06
6.83919e-06
-2.26722e-06
5.25072e-06
3.99916e-06
-5.78636e-07
-5.63012e-06
-9.27196e-07
-6.04765e-06
-9.89916e-07
-6.44545e-06
-6.16886e-07
-6.90931e-06
3.19474e-07
-7.56853e-06
1.36032e-06
-7.61544e-06
9.65018e-07
-5.71598e-06
-1.30283e-06
-2.97209e-06
-2.95708e-06
-2.55491e-06
-2.88764e-06
-3.25846e-06
-1.91554e-06
-3.01488e-06
-1.08035e-06
-1.69377e-06
-9.83019e-07
2.90212e-07
-9.6317e-07
1.95893e-06
-7.3851e-07
3.95025e-06
-6.51769e-07
5.77206e-06
-7.58387e-07
7.41645e-06
-8.40921e-07
8.48644e-06
-1.08337e-06
8.627e-06
-1.43392e-06
8.26693e-06
-1.88183e-06
7.28706e-06
-1.3365e-06
4.70535e-06
2.66259e-06
4.03234e-07
-4.03237e-07
7.95747e-07
-3.92516e-07
7.25301e-07
7.04482e-08
3.4368e-07
3.81628e-07
-2.12512e-07
5.56202e-07
-1.2282e-06
1.0157e-06
-2.86697e-06
1.63878e-06
-4.92794e-06
2.06098e-06
-6.72961e-06
1.80166e-06
-7.42698e-06
6.97369e-07
-7.02323e-06
-4.03741e-07
-6.15908e-06
-8.64133e-07
-5.44354e-06
-7.15519e-07
-4.41191e-06
-1.03161e-06
-3.44987e-06
-9.62029e-07
-3.04334e-06
-4.06522e-07
-2.28198e-06
-7.6135e-07
-1.11668e-06
-1.16529e-06
-1.11667e-06
9.93629e-07
-1.39688e-06
1.23005e-06
-6.28949e-07
1.20532e-06
9.51816e-08
8.43916e-07
7.43037e-07
3.49446e-08
1.36519e-06
-1.27345e-06
2.32411e-06
-3.01666e-06
3.38201e-06
-4.97533e-06
4.01965e-06
-6.53455e-06
3.36087e-06
-7.10636e-06
1.26918e-06
-6.72591e-06
-7.84197e-07
-5.95123e-06
-1.6388e-06
-5.29662e-06
-1.37012e-06
-4.50185e-06
-1.82636e-06
-3.62449e-06
-1.83939e-06
-3.11603e-06
-9.14979e-07
-2.10694e-06
-1.77043e-06
-1.01607e-06
-2.25616e-06
-2.13276e-06
-9.54527e-07
-4.42365e-07
-1.24281e-06
-3.40671e-07
-5.32514e-07
-6.15119e-07
-1.43968e-07
3.54491e-07
-1.01449e-06
2.23573e-06
-2.66731e-06
3.97693e-06
-4.58054e-06
5.29523e-06
-6.35745e-06
5.79656e-06
-7.66048e-06
4.6639e-06
-8.38299e-06
1.99169e-06
-8.46899e-06
-6.98189e-07
-7.62223e-06
-2.48555e-06
-6.18749e-06
-2.80485e-06
-4.5446e-06
-3.46923e-06
-3.4205e-06
-2.96348e-06
-1.77352e-06
-2.56194e-06
-1.32872e-06
-2.21523e-06
-1.03616e-06
-2.54871e-06
-3.1689e-06
-1.2754e-05
1.23117e-05
-1.45557e-05
1.46094e-06
-1.16989e-05
-3.47191e-06
-8.78844e-06
-2.55601e-06
-6.5206e-06
-3.21234e-08
-7.45288e-06
4.90919e-06
-9.3723e-06
7.21461e-06
-1.03311e-05
6.75528e-06
-1.13125e-05
5.64528e-06
-1.10573e-05
1.73647e-06
-9.87896e-06
-1.8765e-06
-6.88106e-06
-5.48347e-06
-4.30987e-06
-5.37607e-06
-2.03569e-06
-5.74343e-06
-1.16199e-06
-3.83721e-06
-4.39198e-07
-3.28476e-06
-8.48376e-07
-1.8061e-06
-7.90786e-07
-2.60634e-06
-3.95977e-06
-9.16427e-06
2.14759e-05
-1.09882e-05
3.28487e-06
-9.10097e-06
-5.35918e-06
-6.8317e-06
-4.82528e-06
-3.78335e-06
-3.08048e-06
-4.84319e-06
5.96902e-06
-7.15102e-06
9.52243e-06
-8.42294e-06
8.02718e-06
-8.51077e-06
5.7331e-06
-5.46487e-06
-1.30942e-06
-5.80331e-07
-6.76104e-06
2.90154e-06
-8.96536e-06
2.89673e-06
-5.37127e-06
4.24931e-06
-7.09602e-06
5.11924e-06
-4.70714e-06
-1.28677e-06
3.12126e-06
-1.08801e-06
-2.00484e-06
3.35057e-06
-7.04494e-06
-6.0915e-07
-4.58007e-06
2.60559e-05
-5.2646e-06
3.96934e-06
-6.24307e-06
-4.38075e-06
-5.66682e-06
-5.40157e-06
-2.56887e-06
-6.17846e-06
-1.76351e-06
5.16364e-06
-3.52392e-06
1.12828e-05
-5.05508e-06
9.55838e-06
-3.50652e-06
4.18456e-06
3.31211e-07
-5.14717e-06
5.22439e-06
-1.16542e-05
8.37266e-06
-1.21136e-05
8.7729e-06
-5.77156e-06
8.35484e-06
-6.67801e-06
8.35476e-06
-4.70711e-06
4.64116e-06
6.8348e-06
3.56177e-06
-9.25508e-07
6.14567e-06
-9.62889e-06
5.53641e-06
-9.29349e-07
2.69852e-05
2.26558e-07
2.81338e-06
-2.7606e-06
-1.39365e-06
-4.23658e-06
-3.92563e-06
-2.03853e-06
-8.37654e-06
7.41203e-08
3.05098e-06
-3.90411e-07
1.17474e-05
-7.77961e-07
9.94594e-06
3.36384e-07
3.07021e-06
1.98385e-06
-6.79464e-06
5.77766e-06
-1.5448e-05
9.50733e-06
-1.58433e-05
9.89197e-06
-6.15623e-06
7.73206e-06
-4.51815e-06
5.50351e-06
-2.47862e-06
4.44448e-06
7.89378e-06
4.33861e-06
-8.19692e-07
4.45336e-06
-9.7437e-06
9.98977e-06
2.38885e-06
2.45964e-05
2.54767e-06
2.65454e-06
6.58099e-07
4.95898e-07
-2.09461e-06
-1.17293e-06
-1.8607e-06
-8.61048e-06
2.67526e-07
9.22734e-07
1.2099e-06
1.0805e-05
1.61194e-06
9.5439e-06
1.90375e-06
2.7784e-06
2.02233e-06
-6.91323e-06
4.47815e-06
-1.79039e-05
7.59466e-06
-1.89598e-05
7.22812e-06
-5.7897e-06
5.38542e-06
-2.67547e-06
3.04244e-06
-1.35667e-07
2.76245e-06
8.17374e-06
3.73147e-06
-1.78874e-06
3.20076e-06
-9.21298e-06
1.31905e-05
-4.83312e-06
-7.96868e-07
-9.19289e-06
-1.68773e-06
-1.26229e-05
-3.01529e-06
-1.46872e-05
-4.84492e-06
-1.52923e-05
-6.96333e-06
-1.52895e-05
-7.6182e-06
-1.58874e-05
-5.11814e-06
-1.58267e-05
-3.03275e-06
-1.45039e-05
-3.87779e-06
-1.23931e-05
-5.3693e-06
-9.84129e-06
-5.56678e-06
-7.47472e-06
-4.06046e-06
-5.56249e-06
-1.62215e-06
-3.89796e-06
2.94251e-07
-2.30378e-06
2.35592e-06
-7.99376e-07
4.26752e-06
4.4329e-07
6.17367e-06
1.44242e-06
7.48723e-06
2.07369e-06
7.9957e-06
2.13064e-06
8.20999e-06
1.9139e-06
7.50383e-06
1.66791e-06
4.9513e-06
2.28974e-06
2.04064e-06
-4.74063e-06
3.94391e-06
-8.95555e-06
2.5273e-06
-1.2367e-05
3.96243e-07
-1.54761e-05
-1.73579e-06
-1.78732e-05
-4.56619e-06
-1.89045e-05
-6.58679e-06
-1.75582e-05
-6.46444e-06
-1.50763e-05
-5.5147e-06
-1.33713e-05
-5.58281e-06
-1.15853e-05
-7.15542e-06
-8.50706e-06
-8.64511e-06
-5.13983e-06
-7.4278e-06
-2.38418e-06
-4.37793e-06
-1.82736e-06
-2.62709e-07
-2.32886e-06
2.85728e-06
-2.24059e-06
4.17914e-06
-2.06597e-06
5.99894e-06
-1.94261e-06
7.36379e-06
-1.48604e-06
7.53907e-06
-4.62971e-07
7.18689e-06
7.93152e-07
6.24766e-06
1.45104e-06
4.29341e-06
1.83089e-06
1.90972e-06
-2.49076e-06
6.43471e-06
-4.80427e-06
4.84084e-06
-7.55618e-06
3.14818e-06
-1.1354e-05
2.06199e-06
-1.52086e-05
-7.11592e-07
-1.75982e-05
-4.19719e-06
-1.6674e-05
-7.38865e-06
-1.41922e-05
-7.99651e-06
-1.26841e-05
-7.09094e-06
-1.27585e-05
-7.08112e-06
-1.38685e-05
-7.53519e-06
-1.50137e-05
-6.28274e-06
-1.61642e-05
-3.22752e-06
-1.64587e-05
3.1749e-08
-1.58073e-05
2.20574e-06
-1.45375e-05
2.90919e-06
-1.27504e-05
4.21171e-06
-1.06853e-05
5.29856e-06
-8.085e-06
4.93872e-06
-5.13079e-06
4.23263e-06
-7.50528e-07
1.86736e-06
2.69158e-06
8.51162e-07
1.90792e-06
2.61439e-06
-3.30088e-06
9.73557e-06
-6.52182e-06
8.06173e-06
-1.03896e-05
7.01593e-06
-1.42549e-05
5.92722e-06
-1.73919e-05
2.42534e-06
-1.88939e-05
-2.69525e-06
-1.90876e-05
-7.19502e-06
-1.84122e-05
-8.67187e-06
-1.97307e-05
-5.77247e-06
-2.36654e-05
-3.14649e-06
-2.83457e-05
-2.85492e-06
-3.07554e-05
-3.87301e-06
-2.95992e-05
-4.38366e-06
-2.5777e-05
-3.79048e-06
-2.08205e-05
-2.75081e-06
-1.69883e-05
-9.23075e-07
-1.36222e-05
8.45605e-07
-9.93237e-06
1.6087e-06
-6.44078e-06
1.44709e-06
-3.21929e-06
1.01112e-06
1.09775e-06
-2.44974e-06
5.71385e-06
-3.76493e-06
9.14675e-08
7.53008e-06
-5.67163e-06
1.54071e-05
-1.16117e-05
1.40016e-05
-1.69239e-05
1.23281e-05
-2.0766e-05
9.76925e-06
-2.3603e-05
5.26226e-06
-2.60613e-05
-2.37087e-07
-2.82389e-05
-5.01745e-06
-2.98835e-05
-7.02726e-06
-3.07349e-05
-4.92095e-06
-3.01099e-05
-3.77144e-06
-2.82323e-05
-4.73238e-06
-2.49927e-05
-7.11243e-06
-2.03128e-05
-9.06345e-06
-1.58229e-05
-8.28017e-06
-1.17582e-05
-6.81542e-06
-8.26393e-06
-4.41729e-06
-5.17545e-06
-2.24282e-06
-2.45863e-06
-1.1081e-06
-5.60198e-07
-4.51323e-07
9.24728e-07
-4.73785e-07
2.50977e-06
-4.03478e-06
4.83013e-06
-6.08543e-06
-2.03239e-06
6.95387e-06
-8.16773e-06
2.35747e-05
-1.60873e-05
2.19211e-05
-2.27203e-05
1.89609e-05
-2.78609e-05
1.49097e-05
-3.17571e-05
9.15845e-06
-3.45774e-05
2.58314e-06
-3.61664e-05
-3.42848e-06
-3.59353e-05
-7.25825e-06
-3.28144e-05
-8.04183e-06
-2.83645e-05
-8.22113e-06
-2.3523e-05
-9.57368e-06
-1.90588e-05
-1.15765e-05
-1.54584e-05
-1.26636e-05
-1.16395e-05
-1.2099e-05
-7.91143e-06
-1.05433e-05
-4.10694e-06
-8.2217e-06
-4.6713e-07
-5.88258e-06
3.10871e-06
-4.68392e-06
5.81979e-06
-3.16241e-06
7.34592e-06
-1.99995e-06
7.00713e-06
-3.6961e-06
6.18986e-06
-5.26817e-06
-3.1309e-06
7.28823e-06
-9.85746e-06
3.34321e-05
-1.88178e-05
3.08814e-05
-2.54359e-05
2.55789e-05
-2.99649e-05
1.94387e-05
-3.29863e-05
1.21799e-05
-3.49285e-05
4.52532e-06
-3.62913e-05
-2.06572e-06
-3.62715e-05
-7.27791e-06
-3.34828e-05
-1.08304e-05
-2.86006e-05
-1.31031e-05
-2.30618e-05
-1.51123e-05
-1.80317e-05
-1.66063e-05
-1.35391e-05
-1.71561e-05
-8.99488e-06
-1.6643e-05
-4.33602e-06
-1.52021e-05
4.53041e-07
-1.30107e-05
5.08049e-06
-1.051e-05
9.22901e-06
-8.83242e-06
1.27338e-05
-6.66717e-06
1.54147e-05
-4.68092e-06
1.56849e-05
-3.9663e-06
1.41409e-05
-3.7242e-06
-1.97323e-06
1.29832e-05
-1.43597e-05
4.77908e-05
-2.8829e-05
4.53494e-05
-4.32516e-05
3.99984e-05
-5.5093e-05
3.12762e-05
-6.21992e-05
1.92847e-05
-6.25843e-05
4.9109e-06
-5.82929e-05
-6.35528e-06
-5.09705e-05
-1.45973e-05
-4.25412e-05
-1.92546e-05
-3.38072e-05
-2.18314e-05
-2.55399e-05
-2.33743e-05
-1.84492e-05
-2.36932e-05
-1.24267e-05
-2.31755e-05
-7.19215e-06
-2.18751e-05
-2.18161e-06
-2.02107e-05
2.7789e-06
-1.79707e-05
8.22455e-06
-1.59557e-05
1.28032e-05
-1.34108e-05
1.68668e-05
-1.07304e-05
2.05729e-05
-8.38629e-06
2.23436e-05
-5.73609e-06
2.13564e-05
-2.73621e-06
3.38807e-07
1.90443e-05
-8.18474e-06
5.59687e-05
-8.80653e-06
4.59657e-05
-2.17396e-05
5.29235e-05
-4.99148e-05
5.94397e-05
-6.82941e-05
3.76608e-05
-7.88423e-05
1.54587e-05
-7.72648e-05
-7.93344e-06
-6.84339e-05
-2.34285e-05
-5.88377e-05
-2.88513e-05
-5.0404e-05
-3.02657e-05
-4.08786e-05
-3.29002e-05
-3.07627e-05
-3.38096e-05
-2.12019e-05
-3.2737e-05
-1.72241e-05
-2.58533e-05
-1.51738e-05
-2.22614e-05
-8.70288e-06
-2.44419e-05
2.5689e-06
-2.72279e-05
8.04948e-06
-1.88918e-05
2.04061e-05
-2.30873e-05
3.07662e-05
-1.87465e-05
2.59233e-05
-8.92947e-07
1.26333e-06
2.19242e-05
5.77442e-06
-4.17216e-06
2.65856e-06
5.33112e-05
-1.73509e-06
5.03605e-05
1.29172e-06
4.99007e-05
2.00466e-05
4.06891e-05
3.23285e-05
2.53801e-05
3.36877e-05
1.40982e-05
2.53496e-05
4.02699e-07
1.69449e-05
-1.50271e-05
1.25527e-05
-2.44648e-05
9.80144e-06
-2.75207e-05
4.22395e-06
-2.73286e-05
-3.46608e-06
-2.61239e-05
-1.00813e-05
-2.61251e-05
-1.06573e-05
-2.52801e-05
-5.5194e-06
-2.74016e-05
-1.50745e-06
-2.84547e-05
-1.47212e-06
-2.72635e-05
2.35706e-06
-2.27216e-05
2.80518e-07
-2.10114e-05
-6.1679e-08
-1.84051e-05
7.41024e-06
-8.36557e-06
2.4769e-05
4.5652e-06
-3.92522e-06
3.44685e-05
7.68814e-06
4.56309e-05
1.12353e-05
4.68203e-05
2.08038e-05
4.0341e-05
3.77057e-05
2.38e-05
4.22854e-05
2.08043e-05
4.40512e-05
1.23336e-05
4.34124e-05
1.04239e-06
3.85636e-05
-1.01782e-05
3.2419e-05
-1.83205e-05
2.77406e-05
-2.28423e-05
2.43774e-05
-2.39654e-05
2.1615e-05
-2.33615e-05
1.84931e-05
-2.30033e-05
1.67142e-05
-2.35012e-05
1.36712e-05
-2.43585e-05
9.78423e-06
-2.45676e-05
6.62515e-06
-2.41042e-05
5.51682e-06
-2.1613e-05
4.62987e-06
-2.01243e-05
7.05194e-06
-2.08271e-05
1.79475e-05
-1.92611e-05
3.74858e-05
-1.49734e-05
-1.42123e-05
4.77732e-05
8.89915e-06
3.67338e-05
1.9594e-05
3.61273e-05
2.84774e-05
3.14594e-05
3.02524e-05
2.20264e-05
3.5104e-05
1.59537e-05
3.86045e-05
8.83378e-06
3.88918e-05
7.55456e-07
3.57867e-05
-7.0728e-06
3.07559e-05
-1.32894e-05
2.56566e-05
-1.77429e-05
2.19749e-05
-2.02835e-05
1.97751e-05
-2.11615e-05
1.75237e-05
-2.07518e-05
1.48195e-05
-2.0797e-05
1.23223e-05
-2.18611e-05
9.9564e-06
-2.22014e-05
7.36523e-06
-2.15127e-05
4.72743e-06
-1.89749e-05
3.51366e-06
-1.89103e-05
7.05267e-06
-2.4366e-05
1.62142e-05
-2.84225e-05
2.81687e-05
-2.69278e-05
-2.2247e-05
3.62035e-05
7.72889e-06
2.90054e-05
1.62684e-05
2.75884e-05
2.34462e-05
2.42822e-05
2.70971e-05
1.83759e-05
3.00397e-05
1.30114e-05
3.16724e-05
7.20119e-06
3.1272e-05
1.15611e-06
2.89466e-05
-4.74726e-06
2.54049e-05
-9.74749e-06
2.15075e-05
-1.38453e-05
1.79392e-05
-1.6715e-05
1.45875e-05
-1.78096e-05
1.15718e-05
-1.77359e-05
8.76572e-06
-1.79907e-05
6.21865e-06
-1.93138e-05
3.6187e-06
-1.96012e-05
1.57557e-07
-1.80513e-05
-2.80997e-06
-1.60071e-05
-2.84727e-06
-1.88729e-05
7.85977e-07
-2.79992e-05
6.79614e-06
-3.44326e-05
1.32312e-05
-3.33628e-05
-2.60103e-05
1.69946e-05
6.1817e-06
2.28237e-05
1.25271e-05
2.1243e-05
1.7981e-05
1.88284e-05
2.13779e-05
1.4979e-05
2.35638e-05
1.08256e-05
2.45275e-05
6.23759e-06
2.42106e-05
1.47309e-06
2.27128e-05
-3.24926e-06
2.03961e-05
-7.43056e-06
1.74577e-05
-1.09067e-05
1.41611e-05
-1.34182e-05
1.10471e-05
-1.46954e-05
8.39165e-06
-1.50803e-05
5.93587e-06
-1.55348e-05
2.94164e-06
-1.63194e-05
-7.8264e-07
-1.58767e-05
-4.7095e-06
-1.41243e-05
-6.91455e-06
-1.38019e-05
-6.55556e-06
-1.92317e-05
-5.12957e-06
-2.94251e-05
-3.22712e-06
-3.6335e-05
-2.66016e-06
-3.39296e-05
-2.46304e-05
-4.03978e-06
4.8071e-06
1.80163e-05
9.50563e-06
1.65443e-05
1.3494e-05
1.484e-05
1.62807e-05
1.21923e-05
1.81266e-05
8.97979e-06
1.90374e-05
5.32681e-06
1.90158e-05
1.49474e-06
1.81091e-05
-2.34238e-06
1.64716e-05
-5.79288e-06
1.42553e-05
-8.69023e-06
1.16913e-05
-1.0854e-05
9.16027e-06
-1.21642e-05
6.88718e-06
-1.2807e-05
4.55439e-06
-1.32018e-05
1.61886e-06
-1.33837e-05
-1.80803e-06
-1.24497e-05
-4.70236e-06
-1.12298e-05
-6.34657e-06
-1.21576e-05
-7.85422e-06
-1.7724e-05
-1.01546e-05
-2.71246e-05
-1.25611e-05
-3.39284e-05
-1.66998e-05
-2.97909e-05
-1.97973e-05
-2.15328e-05
3.68106e-06
1.43352e-05
7.18689e-06
1.30385e-05
1.02125e-05
1.18144e-05
1.25349e-05
9.86988e-06
1.41743e-05
7.34038e-06
1.50972e-05
4.40396e-06
1.52957e-05
1.29629e-06
1.47614e-05
-1.80793e-06
1.35965e-05
-4.62789e-06
1.19321e-05
-7.0257e-06
9.94245e-06
-8.86426e-06
7.86613e-06
-1.00877e-05
5.83343e-06
-1.07742e-05
3.71754e-06
-1.10858e-05
1.32231e-06
-1.09884e-05
-9.90818e-07
-1.01364e-05
-2.89156e-06
-9.32892e-06
-4.73795e-06
-1.03111e-05
-8.14938e-06
-1.43125e-05
-1.33957e-05
-2.18783e-05
-1.99321e-05
-2.7392e-05
-2.62017e-05
-2.35213e-05
-1.58602e-05
-3.01387e-05
2.80181e-06
1.15333e-05
5.44426e-06
1.0396e-05
7.79716e-06
9.46155e-06
9.72369e-06
7.94342e-06
1.11647e-05
5.89941e-06
1.20463e-05
3.52246e-06
1.23651e-05
9.77512e-07
1.20865e-05
-1.5293e-06
1.12879e-05
-3.82912e-06
1.0061e-05
-5.79874e-06
8.54148e-06
-7.34462e-06
6.88269e-06
-8.42882e-06
5.18831e-06
-9.07965e-06
3.45755e-06
-9.3549e-06
1.70727e-06
-9.23798e-06
2.15579e-07
-8.64463e-06
-1.18776e-06
-7.92549e-06
-3.34665e-06
-8.1521e-06
-7.20618e-06
-1.04529e-05
-1.34418e-05
-1.56426e-05
-2.18162e-05
-1.90176e-05
-2.78162e-05
-1.75211e-05
-1.42638e-05
-2.94125e-05
2.09987e-06
9.43367e-06
4.08241e-06
8.41361e-06
5.90412e-06
7.63995e-06
7.46925e-06
6.3784e-06
8.69208e-06
4.67666e-06
9.51304e-06
2.70157e-06
9.88512e-06
6.055e-07
9.79467e-06
-1.43878e-06
9.27889e-06
-3.31326e-06
8.40635e-06
-4.92611e-06
7.27591e-06
-6.21407e-06
5.99825e-06
-7.15106e-06
4.66304e-06
-7.74434e-06
3.32164e-06
-8.01338e-06
2.03876e-06
-7.955e-06
9.57537e-07
-7.56331e-06
8.836e-09
-6.9767e-06
-1.60918e-06
-6.53402e-06
-4.91989e-06
-7.14213e-06
-1.07581e-05
-9.80437e-06
-1.81067e-05
-1.16689e-05
-2.43054e-05
-1.13224e-05
-1.21711e-05
-2.63978e-05
1.52964e-06
7.90399e-06
2.97555e-06
6.9678e-06
4.35541e-06
6.2602e-06
5.59627e-06
5.13765e-06
6.61818e-06
3.65483e-06
7.34974e-06
1.9701e-06
7.75657e-06
1.98744e-07
7.80195e-06
-1.48409e-06
7.50611e-06
-3.01734e-06
6.91292e-06
-4.33283e-06
6.09464e-06
-5.3957e-06
5.13232e-06
-6.18863e-06
4.10353e-06
-6.71544e-06
3.07215e-06
-6.9819e-06
2.10542e-06
-6.98817e-06
1.28175e-06
-6.73956e-06
5.87083e-07
-6.28195e-06
-2.71014e-07
-5.67585e-06
-2.17353e-06
-5.23956e-06
-6.13122e-06
-5.84663e-06
-1.1466e-05
-6.33405e-06
-1.6945e-05
-5.84324e-06
-7.32173e-06
-2.17943e-05
1.05667e-06
6.84762e-06
2.06633e-06
5.95832e-06
3.0753e-06
5.25137e-06
4.03667e-06
4.1764e-06
4.87633e-06
2.81526e-06
5.53433e-06
1.31218e-06
5.94862e-06
-2.15472e-07
6.09721e-06
-1.6326e-06
5.97087e-06
-2.89093e-06
5.59419e-06
-3.95606e-06
5.01538e-06
-4.81679e-06
4.2994e-06
-5.47254e-06
3.51013e-06
-5.92607e-06
2.7091e-06
-6.18077e-06
1.95902e-06
-6.238e-06
1.31728e-06
-6.09772e-06
7.98917e-07
-5.76351e-06
3.39138e-07
-5.216e-06
-3.95445e-07
-4.50491e-06
-2.12688e-06
-4.11513e-06
-4.80776e-06
-3.65301e-06
-7.93794e-06
-2.71317e-06
-2.39172e-06
-1.28677e-05
6.7204e-07
6.17559e-06
1.31903e-06
5.31143e-06
2.02302e-06
4.54749e-06
2.74965e-06
3.44986e-06
3.43785e-06
2.12714e-06
4.0295e-06
7.20602e-07
4.45312e-06
-6.39024e-07
4.67293e-06
-1.85233e-06
4.66958e-06
-2.8875e-06
4.45356e-06
-3.73995e-06
4.05599e-06
-4.41913e-06
3.52498e-06
-4.94144e-06
2.91278e-06
-5.31377e-06
2.2783e-06
-5.54619e-06
1.67391e-06
-5.63351e-06
1.15113e-06
-5.57484e-06
7.44273e-07
-5.35657e-06
4.70316e-07
-4.94196e-06
2.52921e-07
-4.28745e-06
-2.83726e-07
-3.57841e-06
-1.17636e-06
-2.76036e-06
-2.19796e-06
-1.69124e-06
-8.53738e-07
-3.73593e-06
3.50581e-07
5.82528e-06
6.97742e-07
4.9644e-06
1.15776e-06
4.08756e-06
1.69397e-06
2.91373e-06
2.25776e-06
1.56341e-06
2.79024e-06
1.88187e-07
3.21635e-06
-1.06507e-06
3.4885e-06
-2.12441e-06
3.57739e-06
-2.97631e-06
3.47933e-06
-3.6418e-06
3.21467e-06
-4.15438e-06
2.81848e-06
-4.54515e-06
2.3405e-06
-4.83568e-06
1.82152e-06
-5.02711e-06
1.31218e-06
-5.12407e-06
8.57671e-07
-5.12024e-06
5.01589e-07
-5.0004e-06
2.85775e-07
-4.72606e-06
2.39853e-07
-4.24144e-06
2.10701e-07
-3.54918e-06
1.93963e-07
-2.74344e-06
2.66051e-07
-1.76346e-06
-7.61484e-07
1.74124e-07
7.72492e-08
5.74792e-06
1.92465e-07
4.84922e-06
4.44303e-07
3.83577e-06
8.27018e-07
2.53107e-06
1.28647e-06
1.10402e-06
1.77086e-06
-2.96149e-07
2.19353e-06
-1.48769e-06
2.50258e-06
-2.4334e-06
2.65955e-06
-3.1332e-06
2.651e-06
-3.63316e-06
2.48657e-06
-3.98986e-06
2.1922e-06
-4.25069e-06
1.80613e-06
-4.44951e-06
1.36964e-06
-4.59053e-06
9.23568e-07
-4.6779e-06
5.0659e-07
-4.70317e-06
1.59708e-07
-4.65343e-06
-7.48983e-08
-4.49136e-06
-1.29348e-07
-4.18691e-06
1.76288e-08
-3.69608e-06
2.96414e-07
-3.02218e-06
7.8458e-07
-2.25121e-06
-1.28778e-06
1.31095e-06
-1.37476e-07
5.88564e-06
-2.35527e-07
4.94737e-06
-1.48419e-07
3.74872e-06
1.08803e-07
2.27389e-06
4.94582e-07
7.18289e-07
9.25098e-07
-7.26615e-07
1.33695e-06
-1.89948e-06
1.66889e-06
-2.76528e-06
1.87807e-06
-3.3423e-06
1.93757e-06
-3.69258e-06
1.85168e-06
-3.90389e-06
1.63946e-06
-4.03838e-06
1.32463e-06
-4.13459e-06
9.50166e-07
-4.21598e-06
5.47713e-07
-4.27536e-06
1.5258e-07
-4.30795e-06
-2.0404e-07
-4.29672e-06
-4.70678e-07
-4.22464e-06
-5.98045e-07
-4.05946e-06
-5.27796e-07
-3.76623e-06
-2.24337e-07
-3.32545e-06
2.66659e-07
-2.74245e-06
-2.02544e-06
1.00459e-06
-3.26911e-07
6.21246e-06
-5.90822e-07
5.2113e-06
-6.40474e-07
3.79841e-06
-4.83542e-07
2.117e-06
-1.74166e-07
4.08955e-07
2.04329e-07
-1.10506e-06
5.97402e-07
-2.2925e-06
9.43596e-07
-3.11141e-06
1.19343e-06
-3.59206e-06
1.31603e-06
-3.81511e-06
1.30009e-06
-3.88787e-06
1.15419e-06
-3.89239e-06
9.02984e-07
-3.8833e-06
5.76043e-07
-3.88895e-06
2.0886e-07
-3.90809e-06
-1.70197e-07
-3.92881e-06
-5.27271e-07
-3.93956e-06
-8.29906e-07
-3.92193e-06
-1.03669e-06
-3.85261e-06
-1.09752e-06
-3.70534e-06
-9.60972e-07
-3.46207e-06
-6.01276e-07
-3.10177e-06
-2.60998e-06
-1.68545e-08
-4.91434e-07
6.7041e-06
-9.01364e-07
5.62129e-06
-1.06969e-06
3.96677e-06
-1.00025e-06
2.0476e-06
-7.51591e-07
1.60338e-07
-4.166e-07
-1.44001e-06
-5.78582e-08
-2.65119e-06
2.84448e-07
-3.45366e-06
5.61343e-07
-3.86889e-06
7.39202e-07
-3.99289e-06
7.90563e-07
-3.93916e-06
7.14991e-07
-3.81674e-06
5.25549e-07
-3.69378e-06
2.46769e-07
-3.61009e-06
-8.86238e-08
-3.57262e-06
-4.4751e-07
-3.56985e-06
-8.02698e-07
-3.5843e-06
-1.12774e-06
-3.59683e-06
-1.39238e-06
-3.58793e-06
-1.56071e-06
-3.53697e-06
-1.59221e-06
-3.43042e-06
-1.44598e-06
-3.24833e-06
-2.94567e-06
-1.11005e-06
-6.41462e-07
7.34539e-06
-1.18503e-06
6.16484e-06
-1.45344e-06
4.2352e-06
-1.45931e-06
2.05351e-06
-1.26825e-06
-3.06869e-08
-9.92711e-07
-1.7155e-06
-6.66117e-07
-2.97773e-06
-3.29853e-07
-3.78986e-06
-3.35387e-08
-4.16514e-06
1.83264e-07
-4.20963e-06
3.01379e-07
-4.0572e-06
2.99647e-07
-3.81494e-06
1.7893e-07
-3.57299e-06
-4.53967e-08
-3.3857e-06
-3.42742e-07
-3.27521e-06
-6.80072e-07
-3.23245e-06
-1.02882e-06
-3.2355e-06
-1.36436e-06
-3.26124e-06
-1.66323e-06
-3.28901e-06
-1.89909e-06
-3.30111e-06
-2.04273e-06
-3.28684e-06
-2.06349e-06
-3.22718e-06
-3.07581e-06
-1.93346e-06
-7.84601e-07
8.13019e-06
-1.44726e-06
6.82758e-06
-1.81622e-06
4.60421e-06
-1.88101e-06
2.11834e-06
-1.7412e-06
-1.70449e-07
-1.53291e-06
-1.92373e-06
-1.23994e-06
-3.27065e-06
-9.14358e-07
-4.11539e-06
-6.08377e-07
-4.47106e-06
-3.55739e-07
-4.46221e-06
-1.82736e-07
-4.23014e-06
-1.10231e-07
-3.88739e-06
-1.54749e-07
-3.52842e-06
-3.12965e-07
-3.22743e-06
-5.62722e-07
-3.0254e-06
-8.71434e-07
-2.92369e-06
-1.20778e-06
-2.89911e-06
-1.54576e-06
-2.92323e-06
-1.86303e-06
-2.97173e-06
-2.1374e-06
-3.02671e-06
-2.34495e-06
-3.07916e-06
-2.45972e-06
-3.11284e-06
-3.08614e-06
-2.44924e-06
-9.20954e-07
9.05103e-06
-1.70235e-06
7.60897e-06
-2.15681e-06
5.05869e-06
-2.26527e-06
2.22683e-06
-2.19613e-06
-2.3955e-07
-2.04346e-06
-2.07635e-06
-1.76843e-06
-3.54564e-06
-1.45184e-06
-4.43192e-06
-1.14658e-06
-4.77627e-06
-8.77316e-07
-4.73141e-06
-6.61809e-07
-4.4456e-06
-5.22832e-07
-4.02631e-06
-4.86668e-07
-3.56453e-06
-5.67718e-07
-3.14633e-06
-7.57471e-07
-2.83561e-06
-1.0273e-06
-2.65383e-06
-1.34336e-06
-2.58302e-06
-1.67622e-06
-2.59035e-06
-2.00183e-06
-2.6461e-06
-2.29788e-06
-2.73066e-06
-2.54333e-06
-2.83387e-06
-2.7113e-06
-2.94449e-06
-3.02623e-06
-2.77145e-06
-1.04291e-06
1.00941e-05
-1.92378e-06
8.48987e-06
-2.43269e-06
5.56762e-06
-2.61591e-06
2.41008e-06
-2.645e-06
-2.10422e-07
-2.50264e-06
-2.21868e-06
-2.22313e-06
-3.8251e-06
-1.91211e-06
-4.7429e-06
-1.61743e-06
-5.07091e-06
-1.35007e-06
-4.99873e-06
-1.11501e-06
-4.68062e-06
-9.28167e-07
-4.21313e-06
-8.19133e-07
-3.67354e-06
-8.18005e-07
-3.14744e-06
-9.35223e-07
-2.71837e-06
-1.15356e-06
-2.43548e-06
-1.43924e-06
-2.29732e-06
-1.75886e-06
-2.27073e-06
-2.08458e-06
-2.32038e-06
-2.39364e-06
-2.42159e-06
-2.66307e-06
-2.56429e-06
-2.86727e-06
-2.7407e-06
-2.91421e-06
-2.97905e-06
-1.13227e-06
1.12262e-05
-2.0861e-06
9.44365e-06
-2.62888e-06
6.11039e-06
-2.91342e-06
2.69463e-06
-3.03046e-06
-9.33606e-08
-2.85835e-06
-2.39077e-06
-2.56118e-06
-4.12224e-06
-2.25767e-06
-5.04639e-06
-1.9855e-06
-5.34305e-06
-1.74051e-06
-5.2437e-06
-1.51297e-06
-4.90814e-06
-1.30623e-06
-4.41985e-06
-1.14448e-06
-3.83529e-06
-1.06623e-06
-3.22568e-06
-1.10272e-06
-2.68188e-06
-1.25615e-06
-2.28205e-06
-1.49947e-06
-2.054e-06
-1.79594e-06
-1.97426e-06
-2.11395e-06
-2.00236e-06
-2.42739e-06
-2.10815e-06
-2.71294e-06
-2.27884e-06
-2.94568e-06
-2.50749e-06
-2.75991e-06
-3.10008e-06
-1.1619e-06
1.23882e-05
-2.16763e-06
1.04494e-05
-2.75869e-06
6.70145e-06
-3.12684e-06
3.06276e-06
-3.25963e-06
3.94254e-08
-3.05231e-06
-2.59808e-06
-2.74089e-06
-4.43367e-06
-2.45452e-06
-5.33275e-06
-2.21903e-06
-5.57855e-06
-2.01658e-06
-5.44615e-06
-1.82376e-06
-5.10097e-06
-1.62932e-06
-4.61431e-06
-1.44519e-06
-4.01943e-06
-1.30792e-06
-3.36298e-06
-1.26403e-06
-2.7258e-06
-1.34085e-06
-2.20526e-06
-1.5282e-06
-1.86668e-06
-1.79069e-06
-1.7118e-06
-2.09166e-06
-1.70143e-06
-2.40147e-06
-1.79833e-06
-2.69526e-06
-1.98494e-06
-2.94974e-06
-2.25348e-06
-2.57131e-06
-3.13818e-06
-1.12047e-06
1.35085e-05
-2.13896e-06
1.14678e-05
-2.79149e-06
7.35391e-06
-3.20132e-06
3.47255e-06
-3.28568e-06
1.23751e-07
-3.04766e-06
-2.83613e-06
-2.73474e-06
-4.74663e-06
-2.48024e-06
-5.58727e-06
-2.29702e-06
-5.76181e-06
-2.1554e-06
-5.58782e-06
-2.02093e-06
-5.23548e-06
-1.86947e-06
-4.76582e-06
-1.69788e-06
-4.19108e-06
-1.53133e-06
-3.5296e-06
-1.4199e-06
-2.8373e-06
-1.41421e-06
-2.21102e-06
-1.53149e-06
-1.74948e-06
-1.74709e-06
-1.49627e-06
-2.02083e-06
-1.42774e-06
-2.3183e-06
-1.50093e-06
-2.61291e-06
-1.69056e-06
-2.88045e-06
-1.9856e-06
-2.35496e-06
-3.09711e-06
-1.01862e-06
1.45272e-05
-2.0051e-06
1.24542e-05
-2.68766e-06
8.03639e-06
-3.08515e-06
3.86996e-06
-3.106e-06
1.44531e-07
-2.83095e-06
-3.11126e-06
-2.53203e-06
-5.04562e-06
-2.32797e-06
-5.7914e-06
-2.21361e-06
-5.87624e-06
-2.1478e-06
-5.65371e-06
-2.08902e-06
-5.29434e-06
-2.00462e-06
-4.85032e-06
-1.87808e-06
-4.31771e-06
-1.71829e-06
-3.68949e-06
-1.56579e-06
-2.98991e-06
-1.48286e-06
-2.29406e-06
-1.51814e-06
-1.7143e-06
-1.67207e-06
-1.34245e-06
-1.90724e-06
-1.19268e-06
-2.18357e-06
-1.22471e-06
-2.47009e-06
-1.40403e-06
-2.7429e-06
-1.71334e-06
-2.12081e-06
-2.97697e-06
-8.59201e-07
1.5386e-05
-1.76197e-06
1.33568e-05
-2.40247e-06
8.67675e-06
-2.76114e-06
4.22852e-06
-2.71016e-06
9.34399e-08
-2.39931e-06
-3.42221e-06
-2.14019e-06
-5.30484e-06
-2.0108e-06
-5.9209e-06
-1.98208e-06
-5.90507e-06
-2.00208e-06
-5.63383e-06
-2.02732e-06
-5.26923e-06
-2.02337e-06
-4.8544e-06
-1.9656e-06
-4.37562e-06
-1.84714e-06
-3.80809e-06
-1.68983e-06
-3.14737e-06
-1.55053e-06
-2.4335e-06
-1.50011e-06
-1.76487e-06
-1.57663e-06
-1.26608e-06
-1.75935e-06
-1.0101e-06
-2.00376e-06
-9.80466e-07
-2.27385e-06
-1.13421e-06
-2.5422e-06
-1.44471e-06
-1.87682e-06
-2.7865e-06
-6.46059e-07
1.60321e-05
-1.41618e-06
1.41268e-05
-1.96985e-06
9.23029e-06
-2.22814e-06
4.48667e-06
-2.08469e-06
-5.01511e-08
-1.77072e-06
-3.73631e-06
-1.5937e-06
-5.482e-06
-1.56731e-06
-5.94743e-06
-1.63755e-06
-5.83497e-06
-1.74548e-06
-5.52605e-06
-1.85191e-06
-5.16295e-06
-1.9281e-06
-4.77838e-06
-1.94878e-06
-4.35511e-06
-1.89626e-06
-3.86079e-06
-1.77215e-06
-3.27166e-06
-1.61223e-06
-2.5936e-06
-1.48894e-06
-1.88834e-06
-1.47619e-06
-1.279e-06
-1.59059e-06
-8.95884e-07
-1.79207e-06
-7.79154e-07
-2.03575e-06
-8.90603e-07
-2.29058e-06
-1.19054e-06
-1.63597e-06
-2.53153e-06
-3.93835e-07
1.64257e-05
-9.90106e-07
1.47229e-05
-1.44349e-06
9.68352e-06
-1.53101e-06
4.57404e-06
-1.26639e-06
-3.14928e-07
-1.00785e-06
-3.995e-06
-9.63314e-07
-5.52669e-06
-1.06299e-06