/*--------------------------------*- C++ -*----------------------------------*\
| =========                 |                                                 |
| \\      /  F ield         | OpenFOAM: The Open Source CFD Toolbox           |
|  \\    /   O peration     | Version:  2312                                  |
|   \\  /    A nd           | Website:  www.openfoam.com                      |
|    \\/     M anipulation  |                                                 |
\*---------------------------------------------------------------------------*/
FoamFile
{
    version     2.0;
    format      ascii;
    arch        "LSB;label=32;scalar=64";
    class       volScalarField;
    location    "2.5";
    object      alpha.water;
}
// * * * * * * * * * * * * * * * * * * * * * * * * * * * * * * * * * * * * * //

dimensions      [0 0 0 0 0 0 0];

internalField   nonuniform List<scalar> 
2268
(
3.69623e-08
1.07761e-08
2.19819e-09
6.04274e-10
2.73657e-10
1.67964e-10
8.71701e-11
6.06026e-11
4.4633e-11
3.54421e-11
3.12593e-11
3.02996e-11
3.08115e-11
3.32657e-11
3.86402e-11
4.71055e-11
6.15802e-11
9.48317e-11
1.56487e-10
2.6165e-10
4.94775e-10
8.1372e-10
1.14032e-09
5.99072e-07
1.43922e-07
7.60135e-09
7.60416e-10
2.97826e-10
1.6912e-10
1.78616e-10
1.6321e-10
1.09413e-10
6.50555e-11
4.95937e-11
4.35323e-11
4.25105e-11
4.46052e-11
5.82683e-11
8.16483e-11
9.99512e-11
1.68767e-10
3.1399e-10
5.95782e-10
1.19062e-09
1.85283e-09
1.99226e-09
7.16641e-07
3.49188e-07
6.04014e-09
4.62041e-10
1.96541e-10
1.13188e-10
5.50748e-10
5.95558e-10
4.37872e-10
1.92561e-10
9.35042e-11
5.38442e-11
4.78443e-11
5.60687e-11
9.29781e-11
1.65219e-10
2.37756e-10
2.65882e-10
3.60375e-10
5.97206e-10
1.20877e-09
1.89348e-09
1.90835e-09
1.08308e-20
1.14934e-21
-1.68004e-21
-9.76595e-22
3.36094e-22
-3.25319e-21
-4.91512e-14
3.91415e-09
3.17039e-09
3.09363e-10
9.52461e-11
4.54836e-11
3.16759e-11
3.62533e-11
5.96911e-11
1.15144e-10
1.51934e-10
1.81527e-10
2.03665e-10
3.15296e-10
5.38568e-10
1.06511e-09
8.97891e-10
0.0275316
0.0209973
0.0225252
0.0316707
0.0398359
0.0386768
0.0275574
0.0121797
0.00130867
-4.32964e-15
-4.30266e-15
-7.40973e-15
-1.66707e-14
-1.58092e-14
7.61586e-12
1.39555e-11
2.7337e-11
3.77999e-11
3.79473e-11
3.55315e-11
3.70079e-11
9.8238e-11
2.08358e-10
0.643783
0.632873
0.64649
0.684112
0.710479
0.709083
0.672307
0.59626
0.472657
0.320279
0.189622
0.0823925
0.0219342
0.00211438
6.47118e-20
3.11708e-20
4.952e-22
-4.67965e-30
-2.58686e-29
1.38942e-07
1.55478e-19
1.86753e-20
1.64907e-20
0.99396
0.996188
0.997626
0.997765
0.999287
0.999462
0.999462
0.999407
0.999409
0.985259
0.917638
0.799617
0.640428
0.475915
0.358814
0.321683
0.321107
0.321371
0.308442
0.278168
0.192075
0.143826
0.12621
0.997685
0.997685
0.997648
0.998958
0.999462
0.999462
0.999462
0.999462
0.999462
0.999462
0.999167
0.997957
0.991022
0.970362
0.959052
0.904607
0.891207
0.891149
0.766351
0.727369
0.771056
0.810321
0.782903
0.0279248
0.0272661
0.0273837
0.0273126
0.0198364
0.0162
0.0161885
0.0168324
0.0191955
0.0257808
0.022917
0.0205511
0.0199062
0.0196567
0.0196507
0.019646
0.01964
0.0140909
0.00879751
0.0274771
0.0226562
0.0225909
0.0227789
0.0214994
0.0157271
0.0149232
0.0150716
0.0213844
0.0342429
0.0373757
0.0260444
0.0244992
0.0231114
0.0171915
0.0171477
0.0171946
0.00879093
0.00879638
0.542202
0.433575
0.2721
0.228278
0.195893
0.139991
0.118098
0.118847
0.111011
0.092048
0.0662681
0.0489928
0.0415517
0.0443014
0.14817
0.053286
0.00878972
0.00879612
0.00879093
0.631276
0.582191
0.639091
0.639332
0.571043
0.494442
0.491911
0.470966
0.452668
0.456372
0.441865
0.41718
0.413677
0.496188
0.631509
0.539805
0.115267
0.0108325
0.0319022
0.595325
0.605711
0.581875
0.581336
0.623587
0.658162
0.679684
0.696425
0.472552
0.483283
0.567267
0.602269
0.609527
0.6403
0.640301
0.639988
0.249055
0.153777
0.376733
0.591096
0.858938
0.871303
0.899977
0.945833
0.894688
0.687455
0.740614
0.437284
0.411837
0.403136
0.394578
0.458973
0.611431
0.580296
0.467875
0.329133
0.340907
0.527904
0.75554
0.989943
0.999743
0.999743
0.999743
0.999743
0.791096
0.761556
0.81358
0.854771
0.799151
0.646865
0.824023
0.831836
0.796698
0.361962
0.362566
0.524383
0.614512
0.985798
0.994832
0.999686
0.999707
0.999742
0.999742
0.954856
0.827763
0.939415
0.94971
0.934789
0.767112
0.771005
0.831864
0.831918
0.649603
0.516136
0.773828
0.659673
0.9976
0.99722
0.998539
0.999417
0.999462
0.999462
0.999462
0.999463
0.999462
0.999463
0.99435
0.909608
0.794991
0.687587
0.696076
0.726991
0.782585
0.982894
0.975915
0.945543
0.887707
0.879937
0.881635
0.858937
0.981096
0.998354
0.998506
0.995044
0.996311
0.999463
0.999462
0.999463
0.999462
0.984963
0.803462
0.67816
0.67494
0.759286
0.989289
0.991242
0.993448
0.99347
0.990938
0.967235
0.87337
0.876654
0.306482
0.490444
0.760631
0.997833
0.98807
0.97248
0.971051
0.97768
0.972057
0.988094
0.983192
0.955085
0.891764
0.825294
0.807089
0.767466
0.71068
0.75247
0.792881
0.849792
0.889248
0.862174
0.852914
0.0207455
0.0156895
0.0981296
0.246211
0.644381
0.741614
0.708363
0.720492
0.78639
0.775328
0.685656
0.529276
0.437348
0.385151
0.306271
0.172571
0.0665772
0.0688572
0.0906076
0.118259
0.142319
0.195401
0.220783
0.00100057
0.00195208
0.00242048
0.0881794
0.115024
0.0525431
0.00779843
0.0212246
0.0906155
0.0953807
0.0706049
0.019241
-3.0019e-12
7.68716e-15
-2.38972e-28
7.68716e-15
5.85159e-14
3.12312e-32
1.15199e-21
5.32305e-22
-1.92832e-20
-1.74402e-11
0.000968573
0.000490925
0.00128819
9.15401e-06
1.54701e-06
0.00214055
4.52038e-09
4.27613e-09
3.04581e-06
6.5437e-06
8.17072e-07
1.49339e-12
7.39131e-11
1.46117e-09
3.89499e-09
3.66486e-10
1.20187e-11
3.29894e-12
-1.07907e-29
-2.19359e-48
-6.42081e-16
-7.50052e-17
4.18732e-08
7.11912e-06
0.000490952
0.000641805
1.74681e-06
1.54553e-06
1.78262e-06
3.16429e-05
5.69079e-05
6.00741e-05
6.36293e-05
3.03373e-05
7.17954e-13
1.11114e-08
4.89797e-08
1.18667e-07
1.45719e-11
-5.28136e-24
-2.43828e-16
2.73514e-06
2.85475e-05
2.7318e-05
5.03103e-06
3.02906e-07
1.20942e-07
0.000490902
0.000828863
0.000332178
0.000343694
0.000572479
0.000811579
0.000630863
0.000207221
0.000162163
0.000182622
0.000155368
2.65604e-06
8.24133e-08
7.34798e-08
2.0666e-05
0.000144718
0.000324901
0.000367286
0.000368636
0.000309851
0.000228836
0.000103508
3.64947e-05
0.000490943
0.00132448
0.00132829
0.00122092
0.000986885
0.000962545
0.000724061
0.000351551
0.000595347
0.00119088
0.00116847
0.000641438
0.000312766
0.00034983
0.000430279
0.000919305
0.00186117
0.00206335
0.00206415
0.00150692
0.000229108
0.000236208
0.00327473
0.0015847
0.000679272
0.000663109
0.000370211
0.000365708
0.00052336
0.000567296
0.00116425
0.00130085
0.00210835
0.00373187
0.00465009
0.00422381
0.0038824
0.00322431
0.0030256
0.00286183
0.00186898
0.0017655
0.0017797
0.00178407
0.000503949
6.4883e-05
0.00425906
0.00292136
0.00190674
0.00208356
0.00386927
0.00742553
0.0125889
0.0173399
0.0171289
0.00924081
0.0023578
0.00467524
0.00511801
0.0051021
0.00406345
0.00121798
0.000440478
0.000184479
0.000189345
0.000259197
0.000128054
5.45883e-05
6.41431e-05
0.00858233
0.00862313
0.00864991
0.0112238
0.0166669
0.0224389
0.0223042
0.0225072
0.0222427
0.0124522
0.000321075
6.908e-06
3.63491e-09
3.94567e-11
5.14942e-11
1.30538e-07
1.71051e-07
4.26842e-06
3.99138e-06
2.17897e-05
0.000195639
0.000200362
1.74444e-05
0.0015351
0.00190788
0.00299825
0.00528347
0.00714453
0.00661496
0.00733044
0.0058925
0.000996255
0.000217308
0.000685309
0.00049453
0.000193468
6.38188e-05
2.33266e-05
6.17073e-06
1.80311e-07
6.22796e-07
7.3987e-06
0.000168109
0.000225556
0.000158586
1.31129e-06
1.9858e-06
3.66897e-07
4.48484e-07
8.76321e-08
2.30622e-12
5.47177e-13
3.1792e-13
-1.06619e-09
5.24298e-11
4.06196e-10
2.49709e-07
1.47979e-06
1.47924e-06
9.53072e-06
1.35496e-05
1.71608e-06
6.47367e-09
6.42166e-09
2.20131e-05
0.000143472
0.000133163
0.000101106
9.54787e-08
5.35056e-06
1.5707e-05
6.31721e-06
9.04077e-08
2.14645e-07
6.51957e-07
4.75978e-07
5.10518e-07
1.79984e-06
3.48024e-06
3.81755e-06
3.30502e-06
5.17046e-06
1.1267e-05
1.01225e-05
6.57175e-09
6.42166e-09
6.47598e-09
9.4453e-06
3.40337e-05
4.8251e-05
1.35033e-05
4.38943e-06
2.33104e-05
2.51423e-05
1.04587e-05
9.87861e-08
1.14358e-06
1.36042e-06
1.32478e-06
8.90172e-07
7.93344e-06
1.14034e-05
1.14019e-05
7.88561e-06
1.15577e-06
8.4368e-06
6.8826e-06
6.61633e-09
8.08876e-09
2.95637e-08
3.79872e-08
2.11618e-09
2.35545e-09
2.11052e-09
1.01237e-06
5.61727e-06
2.38848e-05
2.09791e-06
8.11205e-09
6.62396e-07
9.21386e-07
1.72106e-07
2.04473e-07
3.56615e-06
6.55554e-06
6.01227e-06
3.69409e-06
5.98872e-07
1.12393e-06
1.18228e-06
1.1368e-07
7.78422e-09
2.37255e-08
7.73919e-09
2.55772e-09
5.43038e-09
7.41916e-09
1.91917e-08
1.01009e-08
8.62845e-07
8.07516e-09
9.66348e-09
7.57721e-09
2.83534e-08
8.36685e-09
6.17542e-09
5.86758e-09
3.53779e-07
8.33108e-07
3.09541e-07
6.44886e-08
9.69052e-09
1.84352e-07
3.65855e-08
7.49647e-09
6.87473e-09
3.91499e-09
1.96176e-09
4.18116e-09
4.96017e-09
4.91394e-09
1.06076e-08
1.06386e-08
5.33833e-08
9.38481e-08
4.39116e-09
4.96856e-09
6.3151e-09
9.41949e-09
5.86455e-09
1.00319e-09
5.84341e-10
5.72193e-10
5.72537e-10
1.19681e-09
1.38067e-08
3.38531e-09
3.14249e-09
1.45348e-09
1.10727e-09
8.54748e-10
1.63254e-09
1.98974e-09
1.79746e-09
1.49564e-08
3.84919e-08
2.20076e-07
2.50332e-07
7.83732e-09
7.19047e-09
4.77609e-09
3.47968e-09
3.85514e-09
3.1799e-09
9.20493e-10
5.72989e-10
5.76223e-10
5.86522e-10
7.26407e-10
4.66697e-10
8.67029e-10
4.83534e-10
4.26709e-10
4.46165e-10
7.01912e-10
8.36041e-10
9.95109e-10
2.0756e-08
4.66515e-08
2.39291e-07
2.50927e-07
4.38042e-08
1.1145e-08
4.21028e-09
8.80329e-10
6.9325e-10
6.88608e-10
5.54611e-10
3.38468e-10
3.29986e-10
3.4597e-10
3.04754e-10
3.0522e-10
3.23182e-10
2.75611e-10
2.61588e-10
2.96951e-10
3.80086e-10
4.50412e-10
4.77897e-10
4.17221e-08
8.11951e-08
4.43661e-08
6.63321e-08
4.34217e-08
1.52504e-08
4.15169e-09
8.02728e-10
4.04652e-10
2.68223e-10
1.83562e-10
1.60882e-10
1.65289e-10
1.77155e-10
1.76389e-10
1.76869e-10
1.73504e-10
1.65599e-10
1.68333e-10
1.87651e-10
2.02924e-10
1.90988e-10
1.78169e-10
1.31992e-07
1.09391e-07
1.48372e-08
6.99121e-05
1.36847e-08
2.32113e-08
6.9859e-09
1.35244e-09
3.66244e-10
1.79368e-10
1.10961e-10
8.98606e-11
8.61782e-11
8.91056e-11
9.16073e-11
9.12132e-11
8.94467e-11
8.8417e-11
9.15178e-11
8.59011e-11
8.01953e-11
6.21729e-11
5.47734e-11
4.38265e-07
1.24539e-07
0.00332438
0.011922
0.0029375
2.51848e-07
2.99547e-08
1.00507e-09
3.86823e-10
1.53182e-10
8.6771e-11
6.43119e-11
5.27529e-11
4.63632e-11
4.27799e-11
4.12425e-11
4.03885e-11
3.88102e-11
3.4138e-11
3.33916e-11
2.55478e-11
1.61327e-11
1.41845e-11
5.25569e-07
8.26085e-05
0.0172183
0.0184008
0.017144
0.00118233
-4.90588e-13
3.16533e-09
8.32565e-10
1.78509e-10
8.65845e-11
5.85276e-11
4.14172e-11
3.02602e-11
2.29039e-11
1.85167e-11
1.57795e-11
1.38033e-11
1.27208e-11
1.02672e-11
7.16225e-12
3.61379e-12
3.26549e-12
8.64843e-07
0.00590593
0.0183353
0.0184718
0.018474
0.00425155
3.43464e-11
2.74941e-09
9.5241e-10
2.2548e-10
1.03313e-10
6.73779e-11
4.23819e-11
2.63186e-11
1.64984e-11
1.0851e-11
7.39776e-12
5.39437e-12
4.05642e-12
2.71492e-12
1.60784e-12
6.76909e-13
5.67853e-13
0.000363339
0.00842873
0.00797745
0.0102673
0.0115748
0.00363378
-6.72695e-21
1.42904e-09
1.00417e-09
2.50798e-10
1.29198e-10
8.56179e-11
5.27938e-11
3.02658e-11
1.6823e-11
9.05555e-12
4.85002e-12
2.71222e-12
1.55987e-12
8.22044e-13
4.01915e-13
1.71734e-13
1.26784e-13
0.00293472
0.000456069
1.43605e-06
1.35743e-06
1.3609e-06
0.000970109
4.1801e-11
3.76296e-09
1.29418e-09
2.63633e-10
1.63759e-10
1.14165e-10
7.22709e-11
4.26689e-11
2.26647e-11
1.12355e-11
5.14515e-12
2.30567e-12
9.97683e-13
4.16158e-13
1.67065e-13
5.91971e-14
3.22949e-14
0.00290441
1.38842e-06
1.35551e-06
1.35456e-06
9.39398e-06
7.23624e-05
-2.37032e-11
3.83592e-09
1.01848e-09
2.81877e-10
2.19083e-10
1.64859e-10
1.12497e-10
6.87315e-11
3.68208e-11
1.7917e-11
7.71068e-12
3.06557e-12
1.11612e-12
3.8372e-13
1.23595e-13
3.50224e-14
1.0828e-14
0.000460443
9.03728e-05
3.16241e-06
1.35551e-06
1.87134e-05
5.54414e-05
4.1801e-11
2.01519e-09
1.28038e-09
3.49317e-10
3.0199e-10
2.49103e-10
1.84577e-10
1.17593e-10
6.48204e-11
3.12963e-11
1.32554e-11
5.05241e-12
1.68819e-12
5.06505e-13
1.43669e-13
3.14183e-14
7.54188e-15
2.1304e-07
5.03303e-06
1.24309e-05
7.79247e-06
2.56442e-09
8.07871e-08
2.13449e-09
3.8414e-09
5.5281e-09
7.23307e-10
3.37328e-10
3.93605e-10
3.12166e-10
1.96595e-10
1.09317e-10
5.28941e-11
2.24295e-11
8.43911e-12
2.71219e-12
7.76731e-13
1.99064e-13
3.85065e-14
6.98327e-15
1.87845e-07
2.96089e-07
1.24561e-05
1.17445e-05
2.43024e-09
7.12754e-09
3.52514e-09
1.50326e-08
4.68143e-09
5.63492e-10
5.61565e-10
6.33227e-10
4.96943e-10
3.03955e-10
1.65416e-10
8.1012e-11
3.45112e-11
1.31915e-11
4.13777e-12
1.16665e-12
2.92607e-13
5.01686e-14
7.28127e-15
1.80772e-07
1.52919e-06
6.65985e-06
3.71373e-06
2.62258e-09
2.81879e-08
8.14619e-08
8.33982e-08
1.68914e-09
5.65432e-10
1.12988e-09
1.09369e-09
6.93944e-10
4.35979e-10
2.22819e-10
1.11935e-10
4.83031e-11
1.82348e-11
5.7707e-12
1.56678e-12
3.69979e-13
6.16919e-14
7.95632e-15
1.60872e-07
2.12645e-07
5.15902e-08
5.2645e-08
4.50425e-07
5.05356e-07
3.90972e-07
9.11251e-10
9.31027e-10
1.35089e-09
2.10613e-09
1.72683e-09
8.54711e-10
4.46237e-10
2.6942e-10
1.345e-10
5.89281e-11
2.23157e-11
7.08387e-12
1.83694e-12
4.38477e-13
6.88226e-14
8.0791e-15
1.59907e-09
1.58625e-09
5.14378e-08
1.89615e-07
4.58854e-07
4.90141e-07
2.62185e-07
9.19389e-10
9.68387e-10
3.25889e-09
3.73383e-09
2.21323e-09
7.66415e-10
4.3349e-10
2.74226e-10
1.40284e-10
6.31529e-11
2.39634e-11
7.51744e-12
1.85597e-12
4.36424e-13
6.65347e-14
7.60984e-15
1.72116e-09
1.56435e-09
1.55245e-09
1.82899e-08
7.12466e-08
8.4771e-08
2.58071e-08
1.10547e-09
2.88238e-09
6.9534e-09
7.14672e-09
2.45772e-09
5.28735e-10
3.8577e-10
2.46016e-10
1.29209e-10
5.61168e-11
2.16205e-11
6.68635e-12
1.60027e-12
3.58236e-13
5.44619e-14
5.90472e-15
4.47349e-09
1.78971e-09
1.5492e-09
1.05664e-09
1.04993e-09
1.05693e-09
2.11526e-09
5.98459e-09
2.31006e-08
2.71007e-08
1.25843e-08
1.21354e-09
4.2057e-10
3.49089e-10
2.12881e-10
1.03807e-10
4.36892e-11
1.52663e-11
4.61722e-12
1.08748e-12
2.3331e-13
2.86377e-14
3.1816e-15
1.125e-08
2.61714e-09
1.75497e-09
1.39322e-09
1.06007e-09
1.07464e-09
1.07475e-09
1.38344e-08
6.54655e-08
4.23738e-08
1.13743e-08
5.02103e-10
4.96711e-10
3.2305e-10
1.71971e-10
7.33088e-11
2.65727e-11
8.50527e-12
2.3296e-12
5.46959e-13
9.47767e-14
1.29581e-14
1.20715e-15
1.2604e-07
5.40102e-09
1.22892e-09
1.23442e-09
2.05853e-09
1.5857e-08
1.13596e-07
4.25372e-07
1.79808e-07
1.41222e-08
1.85155e-09
5.13513e-10
4.74961e-10
2.73475e-10
1.20186e-10
4.21742e-11
1.27655e-11
3.26215e-12
7.83118e-13
1.61736e-13
3.06869e-14
3.28062e-15
3.41686e-16
5.53683e-07
2.55422e-08
2.06823e-09
2.09169e-09
1.9016e-08
4.56612e-07
1.40874e-06
1.37316e-06
1.16987e-07
8.12617e-10
6.13996e-10
5.9399e-10
3.8687e-10
1.85323e-10
6.51966e-11
1.76866e-11
3.82269e-12
7.09432e-13
1.3965e-13
3.11636e-14
4.3398e-15
7.03287e-16
7.23946e-17
6.14968e-07
1.25984e-07
1.42137e-08
1.91571e-08
9.21523e-08
9.81683e-07
1.82378e-06
1.11871e-06
4.63526e-08
2.49857e-09
5.51683e-10
4.08985e-10
2.45972e-10
1.03175e-10
2.86597e-11
5.34986e-12
7.19703e-13
8.13056e-14
1.26726e-14
3.52928e-15
5.89897e-16
7.18727e-17
1.19354e-17
4.42212e-07
1.8177e-07
1.87503e-08
2.14819e-08
1.48736e-07
1.03402e-06
1.3169e-06
0
-2.44047e-28
1.33497e-10
2.34254e-10
1.84132e-10
9.72902e-11
3.23276e-11
6.52392e-12
7.777e-13
6.09179e-14
3.86811e-15
5.83902e-16
2.41768e-16
5.71994e-17
8.86433e-18
1.51574e-18
0.9265
0.994411
0.99733
0.997326
0.936503
0.994033
0.99115
0.899549
0.844826
0.720106
0.387856
0.163557
0.197252
0.113095
0.0117464
0.000112775
0.00078963
0.000387313
0.000523833
0.000567837
2.24922e-06
2.31266e-06
2.55809e-06
0.000276137
1.24827e-07
0.000329792
0.00125645
0.000750061
2.77639e-05
2.95049e-05
0.00265267
0.0116267
0.00403872
0.00402222
0.00314665
0.00106494
0.000151139
0.000355089
0.000211447
1.12745e-05
1.15563e-05
1.71506e-06
2.3545e-06
6.15469e-06
5.00603e-07
1.12601e-06
3.26659e-06
8.38275e-06
9.48063e-08
4.0989e-07
2.68243e-06
6.37805e-06
9.2991e-08
5.16481e-07
2.75051e-06
4.33634e-06
6.27803e-08
4.98232e-07
1.7596e-06
8.63404e-07
6.11535e-08
7.01235e-08
7.36826e-08
1.52393e-08
2.0793e-08
2.82147e-09
5.48429e-09
1.89192e-09
4.96752e-09
2.84213e-09
3.0689e-09
2.90975e-09
1.90106e-09
2.02333e-09
2.1126e-09
1.98822e-09
1.03149e-09
1.01312e-09
1.04397e-09
9.37778e-10
4.53881e-10
3.76074e-10
3.76762e-10
2.98723e-10
1.53006e-10
1.10495e-10
9.94481e-11
8.35865e-11
4.37628e-11
2.67161e-11
2.6509e-11
2.16079e-11
8.27503e-12
6.39352e-12
6.33667e-12
5.89947e-12
2.09754e-12
1.22451e-12
1.63927e-12
1.70677e-12
3.24637e-13
3.00039e-13
3.83811e-13
4.97946e-13
8.07939e-14
5.83317e-14
9.70021e-14
1.3325e-13
1.67591e-14
1.43504e-14
2.128e-14
3.43093e-14
4.19901e-15
2.63346e-15
4.69986e-15
7.77261e-15
1.72882e-15
7.36783e-16
7.71775e-16
1.59117e-15
1.27897e-15
2.76299e-16
1.64855e-16
2.85509e-16
1.38809e-15
2.14773e-16
3.79744e-17
4.3891e-17
1.50585e-15
1.9757e-16
1.91674e-17
6.08493e-18
1.39652e-15
1.98994e-16
1.7832e-17
1.06287e-18
1.19403e-15
1.70132e-16
1.71233e-17
3.68651e-19
9.11073e-16
1.29945e-16
1.19656e-17
1.883e-19
4.46947e-16
5.95154e-17
5.48677e-18
6.25355e-20
1.77193e-16
2.27853e-17
1.77803e-18
1.67935e-20
4.41013e-17
6.08904e-18
4.08034e-19
2.61375e-21
1.0072e-17
1.30862e-18
6.95206e-20
3.90512e-22
1.68649e-18
2.09511e-19
9.33827e-21
4.23259e-23
2.20999e-19
2.72453e-20
9.81335e-22
3.65922e-24
0.985487
0.938322
0.96028
0.993012
0.98883
0.999315
0.993192
0.971981
0.950006
0.949859
0.941974
0.72402
0.478217
0.705153
0.829668
0.856697
0.853804
0.85493
0.793932
0.693619
0.436804
0.55838
0.777232
0.826152
0.795536
0.985403
0.892368
0.853481
0.879783
0.853743
0.707129
0.401311
0.647425
0.858957
0.859156
0.750026
0.668873
0.706655
0.0157582
1.04241e-06
9.96124e-07
0.0879416
0.220809
0.497799
0.931619
0.662665
0.375795
0.423531
0.447023
0.54998
0.401431
0.530724
0.851967
0.543162
0.171389
0.0689522
0.0691604
0.00011051
4.85745e-05
2.97987e-05
0.000545928
-1.28517e-06
0.145307
0.580462
0.441278
0.354517
0.38272
0.435447
0.489374
0.41618
0.281818
0.394398
0.200263
0.199549
0.0380306
0.000555872
0.00125166
0.00503356
0.00329174
9.86107e-05
-7.68903e-10
-7.33955e-07
0.0193156
0.0813173
0.312201
0.375003
0.152514
0.183685
0.279615
0.208435
0.204345
0.191009
0.0874858
0.0277903
0.000555966
0.00121222
0.00983391
0.00612042
0.000132684
1.80166e-08
3.64709e-06
0.000569656
0.000923052
0.0530029
0.0852262
0.00863699
0.0330384
0.0797421
0.0716305
0.0312383
1.91109e-07
1.76632e-07
0.000465685
0.000555891
0.00501936
0.00999804
0.00906643
0.00140163
2.70074e-08
2.20923e-05
0.000146374
0.000606459
0.000177818
2.33308e-08
5.36883e-12
1.54964e-12
1.66665e-12
-5.69625e-22
-3.94948e-09
1.45546e-06
9.73063e-06
1.36086e-05
0.000104261
0.0117182
0.00970701
0.0026197
0.000182157
6.67666e-08
7.98693e-08
4.4345e-05
0.000134368
3.60644e-05
5.27832e-08
3.65059e-11
9.04981e-07
1.71311e-05
1.59658e-05
1.73322e-06
9.75575e-06
1.91007e-05
1.91154e-05
1.33656e-05
0.00295156
0.00441553
0.00187828
9.50835e-05
7.33792e-05
7.00267e-05
4.70423e-05
7.97511e-05
4.70524e-05
7.90874e-06
1.83638e-11
5.95111e-05
8.09207e-05
6.69404e-05
1.71119e-05
3.73859e-06
4.72807e-06
1.80329e-05
1.80969e-05
1.87019e-06
1.25425e-05
0.00011763
9.30855e-05
6.86634e-05
4.17066e-05
3.07131e-05
3.0606e-05
4.96083e-05
3.42101e-05
5.11109e-05
8.09467e-05
8.09331e-05
4.59749e-05
1.96765e-05
2.48397e-06
2.48657e-06
8.55822e-06
1.27138e-05
2.03282e-05
3.09621e-05
6.84325e-05
7.35756e-05
7.30439e-05
7.21336e-05
6.45466e-05
4.92854e-05
2.46803e-05
8.25096e-06
2.13941e-05
4.54527e-05
3.6183e-05
2.35055e-05
6.96523e-06
4.87719e-06
5.56673e-06
4.83445e-06
2.12329e-06
9.90246e-06
6.99372e-06
3.29621e-05
7.32731e-05
7.28435e-05
5.22741e-05
5.07185e-05
4.959e-05
1.0949e-05
3.94287e-08
1.73916e-06
1.05045e-05
1.15446e-05
1.72695e-06
3.82012e-06
1.23271e-05
1.12979e-05
1.24087e-06
1.63272e-07
7.65364e-06
6.94986e-06
1.07185e-05
1.72747e-05
1.84981e-05
4.06457e-06
5.4157e-06
7.98539e-06
4.18685e-06
1.24778e-08
7.95267e-08
7.3798e-08
7.55945e-07
2.66074e-08
4.43978e-06
1.22742e-05
8.08444e-06
2.46388e-07
1.61061e-07
3.34504e-06
2.46995e-06
6.64056e-07
1.2295e-09
1.48953e-09
7.26327e-09
5.00271e-09
9.73434e-10
4.54069e-09
1.9581e-09
4.96426e-08
7.3603e-08
2.64969e-08
2.65804e-08
8.33237e-06
8.60478e-06
1.27866e-06
1.33208e-07
8.57536e-08
1.88913e-08
3.78243e-10
3.69869e-10
1.66155e-09
1.02541e-08
1.81812e-09
1.56565e-09
7.99897e-10
3.81262e-09
7.32047e-10
2.39586e-08
7.62076e-08
2.63614e-08
2.00726e-06
8.96874e-06
7.88827e-07
1.20866e-07
1.16317e-07
8.10883e-08
5.08666e-10
4.86462e-10
5.97019e-10
9.82089e-10
2.72208e-09
8.9205e-10
9.36406e-10
6.02788e-10
7.16132e-10
7.60377e-10
6.85103e-08
5.28881e-08
2.83535e-08
9.92023e-07
4.0545e-06
4.01486e-08
2.62899e-08
7.68256e-08
1.42697e-08
1.28112e-09
7.11137e-10
6.34265e-10
7.67182e-10
7.93439e-10
7.89541e-10
6.96705e-10
4.82205e-10
5.11015e-10
4.62266e-09
4.95235e-08
3.917e-09
1.38947e-08
1.17649e-07
2.54056e-07
2.33889e-07
9.1647e-10
3.97826e-08
8.59081e-09
1.53604e-09
5.35823e-10
4.52508e-10
5.25743e-10
5.95009e-10
5.72463e-10
4.80184e-10
3.52133e-10
1.2962e-09
5.16914e-09
4.28439e-09
1.80634e-09
5.4741e-09
2.16645e-08
1.33199e-07
2.73777e-07
9.38408e-10
2.38324e-09
4.95421e-09
1.0487e-09
3.23671e-10
2.69707e-10
3.16711e-10
3.5159e-10
3.36579e-10
3.01688e-10
3.30977e-10
1.58169e-09
3.30075e-09
4.61872e-10
1.8094e-09
3.27487e-09
6.23992e-09
4.51044e-08
1.659e-07
7.23303e-10
7.1426e-10
3.14392e-09
4.45904e-10
1.67031e-10
1.49349e-10
1.75533e-10
1.92167e-10
1.83902e-10
1.73408e-10
3.47601e-10
1.08575e-09
1.29555e-09
3.21303e-10
1.10198e-09
1.73277e-09
2.16047e-09
7.7131e-09
1.39266e-08
8.67826e-10
3.56027e-10
1.22556e-09
1.52328e-10
7.74463e-11
8.37973e-11
9.33424e-11
9.86254e-11
9.80915e-11
9.9771e-11
2.59822e-10
5.61225e-10
2.62271e-10
1.49505e-10
4.33548e-10
7.59801e-10
7.61745e-10
6.47078e-10
2.64459e-10
8.09612e-10
7.51478e-11
1.69499e-10
4.8398e-11
3.6686e-11
4.06844e-11
4.77767e-11
5.03773e-11
4.99565e-11
5.67258e-11
1.49034e-10
2.59303e-10
9.19015e-11
6.78919e-11
1.3946e-10
2.71163e-10
2.97605e-10
2.36968e-10
8.05935e-11
3.78828e-10
3.25351e-11
2.65957e-11
1.62072e-11
1.63448e-11
1.90531e-11
2.2289e-11
2.41275e-11
2.51461e-11
2.89114e-11
6.24439e-11
9.08834e-11
4.19644e-11
3.46982e-11
5.03611e-11
9.01935e-11
1.18302e-10
8.49593e-11
5.91803e-11
6.6712e-11
1.44013e-11
7.94199e-12
5.58056e-12
6.752e-12
8.40481e-12
9.87818e-12
1.0867e-11
1.16347e-11
1.32e-11
1.98599e-11
2.59746e-11
1.78905e-11
1.47318e-11
2.01496e-11
3.29554e-11
4.80715e-11
4.45189e-11
4.16772e-11
2.65626e-11
1.05648e-11
2.21871e-12
1.94087e-12
2.64343e-12
3.41108e-12
4.05528e-12
4.61733e-12
5.1413e-12
5.82566e-12
6.94967e-12
7.50189e-12
6.95356e-12
5.48443e-12
7.53956e-12
1.26704e-11
1.99518e-11
2.50975e-11
2.48627e-11
1.58706e-11
7.18423e-12
1.35935e-12
6.37715e-13
9.50755e-13
1.28157e-12
1.61171e-12
1.911e-12
2.19418e-12
2.48662e-12
2.75175e-12
2.88368e-12
2.77269e-12
2.1866e-12
2.71754e-12
5.00949e-12
3.32253e-12
6.23113e-12
1.1852e-11
7.68652e-12
4.10567e-12
9.48573e-13
1.87202e-13
3.07045e-13
4.48295e-13
5.93892e-13
7.37618e-13
8.73813e-13
9.95061e-13
1.08219e-12
1.1164e-12
1.06703e-12
8.52707e-13
8.10432e-13
8.36958e-13
3.90485e-13
7.94469e-13
2.91965e-12
4.1039e-12
1.69708e-12
8.57969e-13
4.92602e-14
9.08549e-14
1.41072e-13
1.98771e-13
2.57296e-13
3.1334e-13
3.57654e-13
3.81346e-13
3.72272e-13
3.2632e-13
2.49607e-13
2.03634e-13
8.36788e-14
7.32439e-14
1.53275e-13
9.94681e-13
1.30615e-12
1.22163e-12
7.25553e-13
1.23053e-14
2.38559e-14
3.92995e-14
5.81737e-14
7.94053e-14
9.9038e-14
1.12119e-13
1.15178e-13
1.00518e-13
7.55204e-14
5.24061e-14
4.21723e-14
3.18046e-14
3.54823e-14
8.49142e-14
2.67619e-13
6.79816e-13
7.79978e-13
6.3347e-13
2.71243e-15
5.54444e-15
9.65683e-15
1.49933e-14
2.11887e-14
2.67121e-14
2.96784e-14
2.86229e-14
2.14307e-14
1.37257e-14
9.60859e-15
1.00544e-14
1.41137e-14
3.01087e-14
8.61011e-14
1.81706e-13
3.80708e-13
6.8656e-13
4.95407e-13
5.14417e-16
1.07586e-15
1.96453e-15
3.1904e-15
4.81076e-15
6.06007e-15
6.52576e-15
5.71614e-15
3.75601e-15
2.43774e-15
2.65697e-15
4.96377e-15
1.05254e-14
2.56628e-14
8.32644e-14
1.84208e-13
3.48611e-13
5.87883e-13
4.51681e-13
8.59121e-17
1.87189e-16
3.56927e-16
5.98316e-16
8.7713e-16
1.08396e-15
1.11919e-15
9.6101e-16
6.74162e-16
7.09526e-16
1.47279e-15
3.67362e-15
9.09178e-15
2.16245e-14
6.7802e-14
1.83696e-13
3.36014e-13
5.23757e-13
3.75964e-13
1.13462e-17
2.87743e-17
5.6874e-17
9.88379e-17
1.42601e-16
1.70848e-16
1.70711e-16
1.441e-16
1.62357e-16
3.38811e-16
9.32999e-16
2.59511e-15
6.9092e-15
1.66351e-14
4.7576e-14
1.49409e-13
3.13894e-13
4.41864e-13
2.96078e-13
1.4524e-18
3.92822e-18
7.94759e-18
1.34321e-17
1.93739e-17
2.32653e-17
2.50724e-17
3.08346e-17
6.2965e-17
1.80352e-16
5.60387e-16
1.69418e-15
4.69997e-15
1.18472e-14
2.99473e-14
9.30574e-14
2.28741e-13
3.68151e-13
1.84498e-13
1.76426e-19
4.54579e-19
9.53202e-19
1.71543e-18
2.50725e-18
3.28921e-18
4.54724e-18
9.03137e-18
2.53285e-17
8.40661e-17
2.90376e-16
9.58271e-16
2.84581e-15
7.4525e-15
1.81675e-14
4.98304e-14
1.42094e-13
2.25313e-13
1.25468e-13
2.17447e-20
5.17461e-20
1.12972e-19
2.16393e-19
3.39595e-19
5.37538e-19
1.02478e-18
2.7037e-18
8.8798e-18
3.31875e-17
1.28406e-16
4.66824e-16
1.51819e-15
4.17463e-15
1.0256e-14
2.51934e-14
5.99399e-14
1.33736e-13
6.35795e-14
3.54318e-21
6.04511e-21
1.38013e-20
2.76308e-20
4.92022e-20
9.58884e-20
2.31927e-19
7.13659e-19
2.63146e-18
1.11233e-17
4.87751e-17
1.99413e-16
6.95388e-16
2.0307e-15
5.12756e-15
1.22064e-14
2.82037e-14
4.6309e-14
3.97898e-14
5.38145e-22
7.02517e-22
1.68047e-21
3.50634e-21
7.08363e-21
1.6116e-20
4.50036e-20
1.53938e-19
6.31356e-19
3.05255e-18
1.53862e-17
7.13974e-17
2.732e-16
8.53759e-16
2.23618e-15
5.09352e-15
9.51682e-15
2.04341e-14
1.70108e-14
7.6248e-23
7.77841e-23
1.749e-22
4.13985e-22
9.16239e-22
2.2753e-21
7.10699e-21
2.68403e-20
1.22834e-19
6.69518e-19
3.88542e-18
2.05979e-17
8.8539e-17
2.9872e-16
8.21786e-16
1.9196e-15
3.76604e-15
5.31357e-15
7.98944e-15
8.95794e-24
8.0081e-24
1.81184e-23
4.25202e-23
1.004e-22
2.65442e-22
9.4499e-22
3.99379e-21
2.07033e-20
1.27527e-19
8.48035e-19
5.13245e-18
2.4329e-17
8.87012e-17
2.56388e-16
6.11504e-16
9.28308e-16
1.9474e-15
3.44135e-15
8.5495e-25
7.39898e-25
1.68058e-24
3.81332e-24
9.52829e-24
2.72311e-23
1.10814e-22
5.31894e-22
3.15025e-21
2.17919e-20
1.61592e-19
1.08916e-18
5.69117e-18
2.2471e-17
6.89266e-17
1.69243e-16
2.59828e-16
6.51854e-16
1.36149e-15
6.87102e-26
6.16367e-26
1.36469e-25
3.09319e-25
8.1883e-25
2.60217e-24
1.19465e-23
6.56497e-23
4.41458e-22
3.34646e-21
2.67274e-20
1.93581e-19
1.10826e-18
4.7396e-18
1.55783e-17
4.0156e-17
6.5988e-17
1.78351e-16
1.83836e-16
)
;

boundaryField
{
    leftWall
    {
        type            zeroGradient;
    }
    rightWall
    {
        type            zeroGradient;
    }
    lowerWall
    {
        type            zeroGradient;
    }
    atmosphere
    {
        type            inletOutlet;
        inletValue      uniform 0;
        value           nonuniform List<scalar> 
46
(
0
0
0
0
0
0
0
0
0
0
0
0
0
0
0
0
0
0
5.83902e-16
2.41768e-16
5.71994e-17
8.86433e-18
1.51574e-18
2.20999e-19
2.72453e-20
9.81335e-22
3.65922e-24
6.87102e-26
6.16367e-26
1.36469e-25
3.09319e-25
8.1883e-25
2.60217e-24
1.19465e-23
6.56497e-23
4.41458e-22
3.34646e-21
2.67274e-20
1.93581e-19
1.10826e-18
4.7396e-18
1.55783e-17
4.0156e-17
6.5988e-17
1.78351e-16
1.83836e-16
)
;
    }
    defaultFaces
    {
        type            empty;
    }
}


// ************************************************************************* //
