/*--------------------------------*- C++ -*----------------------------------*\
| =========                 |                                                 |
| \\      /  F ield         | OpenFOAM: The Open Source CFD Toolbox           |
|  \\    /   O peration     | Version:  2312                                  |
|   \\  /    A nd           | Website:  www.openfoam.com                      |
|    \\/     M anipulation  |                                                 |
\*---------------------------------------------------------------------------*/
FoamFile
{
    version     2.0;
    format      ascii;
    arch        "LSB;label=32;scalar=64";
    class       volScalarField;
    location    "2.5";
    object      alpha.galistan;
}
// * * * * * * * * * * * * * * * * * * * * * * * * * * * * * * * * * * * * * //

dimensions      [0 0 0 0 0 0 0];

internalField   nonuniform List<scalar> 
2268
(
1
1
1
1
1
1
1
1
1
1
1
1
1
1
1
1
1
1
1
1
1
0.999959
0.999943
0.999999
1
1
1
1
1
1
1
1
1
1
1
1
1
1
1
1
1
1
1
1
0.999979
0.999945
0.999999
1
1
1
0.999999
0.999996
0.999999
1
1
1
1
1
1
1
1
1
1
1
1
1
1
1
0.999994
0.999993
0.999814
0.999979
0.999802
0.99985
0.999967
1
1
1
1
1
1
1
1
1
1
1
1
1
1
1
1
0.999999
0.970299
0.972331
0.972549
0.965819
0.959713
0.961177
0.9722
0.987537
0.998457
0.999862
0.999946
0.999986
0.999999
0.999998
0.999998
1
1
0.999999
0.999998
0.999999
1
1
0.999904
0.349314
0.357996
0.344481
0.311998
0.288343
0.29049
0.326995
0.403012
0.526581
0.678911
0.809837
0.917412
0.978025
0.997841
0.999965
0.999987
0.999993
0.999995
0.999998
0.999999
0.999993
0.999992
0.999495
-7.06146e-09
1.96798e-24
-2.17878e-23
-2.49712e-16
-3.20316e-07
0.000194858
9.14848e-05
1.80551e-06
1.81183e-06
0.0141881
0.0816447
0.199718
0.358511
0.523341
0.641181
0.678317
0.678863
0.678461
0.691558
0.721832
0.807924
0.856172
0.873021
7.35517e-06
7.0519e-05
0.000116404
8.45303e-05
0.00024316
0.000273996
0.000186269
1.79576e-06
1.58372e-05
5.47985e-05
2.12548e-06
2.12909e-06
2.12548e-06
2.12909e-06
0.0183673
0.0494993
0.0836959
0.0927008
0.12502
0.165277
0.160794
0.185119
0.216401
0.931051
0.931758
0.931724
0.931394
0.931357
0.931359
0.931339
0.93134
0.929586
0.926695
0.928509
0.930734
0.933619
0.946794
0.946801
0.946805
0.946811
0.946814
0.946806
0.901
0.884744
0.898793
0.907835
0.919693
0.921726
0.899176
0.865591
0.852547
0.838592
0.814997
0.754674
0.745141
0.822567
0.894554
0.942942
0.946822
0.943936
0.917125
0.34038
0.400947
0.469294
0.504947
0.51461
0.501858
0.458022
0.400719
0.403514
0.443038
0.485965
0.504715
0.509217
0.535067
0.620037
0.780877
0.783829
0.621554
0.517541
0.049026
0.0527677
0.072112
0.0873297
0.0785801
0.0467324
0.0152479
0.00495585
0.0138042
0.038132
0.0685076
0.107912
0.134103
0.154822
0.209563
0.305845
0.499916
0.413924
0.423497
0.000389421
8.18695e-05
0.00337018
0.0107937
0.0109948
0.00878824
0.00424434
0.00488292
0.0110344
0.00926303
0.00926287
0.0260277
0.0621674
0.0794222
0.16459
0.205535
0.277372
0.278666
0.072867
0.000467095
8.30809e-05
5.25989e-06
5.22377e-06
5.26355e-06
5.21474e-06
7.64376e-05
0.00711423
0.0303024
0.0187721
0.0123038
0.00966817
0.0225134
0.038608
0.0470795
0.097204
0.0861224
0.0467941
0.00420841
0.000877774
0.000196689
3.77936e-05
4.94894e-05
4.99103e-05
2.15323e-05
2.04868e-06
0.0203542
0.0303021
0.00681227
0.00681363
0.00683793
0.00684176
0.015592
0.0156193
0.0189909
0.00670827
0.00420841
0.00420841
0.000518877
0.000122894
4.80591e-05
8.54617e-05
3.91988e-05
1.57174e-05
2.10856e-06
0.0256105
0.0238428
0.00700751
0.00802883
0.0188066
0.0165468
0.0171066
0.0175678
0.00739172
0.00522359
0.00420841
0.00420841
0.000124693
0.000352845
0.000480271
0.000249817
0.000203306
0.000139816
9.25077e-07
1.78339e-06
1.86846e-06
1.90716e-06
4.4811e-05
0.000893846
0.00605687
0.012702
0.0140661
0.00689956
0.000311419
0.000283535
0.000152611
1.60588e-05
0.00344315
0.011948
0.0357385
0.000143715
0.000717412
0.000655368
9.24859e-07
9.26331e-07
9.24859e-07
9.26471e-07
1.77131e-06
1.77847e-06
1.92746e-06
0.000286291
0.0019011
0.00247949
0.00251413
0.00149382
0.000482539
0.00129149
0.00120425
0.0005409
1.60236e-05
1.6012e-05
3.31356e-05
2.92281e-05
1.97388e-05
0.000337381
0.000762722
0.000695698
6.18548e-05
0.000119936
5.08784e-06
3.94323e-06
2.48428e-05
2.31628e-05
9.41786e-06
5.71785e-06
5.71876e-06
5.72059e-06
3.13042e-05
0.000120181
0.00448028
0.00513587
0.00513781
0.00134919
1.70346e-05
1.59979e-05
1.59924e-05
6.02078e-06
4.84277e-06
0.00032833
0.000574558
0.000574275
0.000574095
0.000297457
0.00024847
0.000177309
7.81282e-05
1.02375e-05
5.75154e-06
5.72886e-06
1.58997e-05
1.86932e-05
1.36992e-05
8.08528e-06
0.00280682
0.00466428
0.00503513
0.00503068
0.00112669
1.59903e-05
0.00309153
0.000594861
4.00196e-05
0.000216961
0.000161362
0.000197352
0.000417454
0.000435891
0.000435857
0.000252477
9.98979e-05
1.89063e-05
5.7335e-06
7.1857e-06
3.38662e-05
1.55406e-05
8.99828e-06
3.69785e-06
0.000539016
0.001223
0.00239254
0.00219957
0.000809821
0.00550505
0.00185297
1.79617e-06
1.77769e-06
5.55995e-06
1.73841e-06
1.77328e-06
3.94512e-05
7.36182e-05
0.000100007
0.000128519
0.000107898
3.56029e-05
9.0578e-06
4.42912e-05
5.29295e-05
3.83202e-05
3.8269e-06
3.69261e-06
2.95574e-05
0.000131548
0.000148207
0.000129694
0.00550505
0.00144617
1.77769e-06
1.77591e-06
1.73908e-06
1.73407e-06
6.05184e-06
2.0319e-05
3.34041e-05
2.47749e-05
7.22301e-06
6.28743e-06
6.32104e-06
6.86322e-05
0.000157258
0.000156396
2.65778e-05
3.50647e-06
5.8209e-06
7.05206e-06
1.17187e-05
1.22868e-05
9.51386e-06
0.00550505
0.000468772
2.54638e-06
4.87822e-06
3.73813e-06
1.70285e-06
2.92945e-05
9.91669e-05
0.000256874
0.000291518
0.000278613
1.11999e-05
6.3873e-06
0.000119021
0.000156836
0.000152413
1.79564e-05
3.56555e-06
1.12046e-05
6.58064e-05
8.13895e-05
4.85496e-05
1.66693e-05
0.00427701
9.3572e-05
2.4888e-06
2.53572e-06
3.40377e-06
1.70273e-06
3.29267e-05
4.46248e-05
0.000567772
0.00285054
0.00240185
0.00114939
0.000179879
0.000125241
0.000134868
0.000100288
1.5291e-05
0.000113161
0.000244679
0.000244983
9.61531e-05
4.72549e-05
0.00255431
0.0014509
0.00070274
0.00033056
0.000155745
3.55607e-05
4.15251e-05
3.77085e-05
3.25627e-05
-6.58244e-08
0.00252573
0.0084004
0.00962878
0.00713467
0.00366474
0.00129347
0.000240953
4.05587e-05
1.25262e-05
5.47506e-06
0.000150327
0.000336461
0.00033524
0.000250307
3.33356e-05
0.00148636
0.00152003
0.0013104
0.000937895
0.000648743
0.000413747
9.24354e-05
1.23305e-07
1.13827e-07
0.00108266
0.00936382
0.0107704
0.0107562
0.010769
0.00828249
0.000368591
1.44665e-06
4.65376e-06
2.10264e-05
1.49354e-05
3.62528e-06
1.33549e-07
3.26457e-05
4.49069e-07
0.000315247
0.00115372
0.00118292
0.00118619
0.000785596
0.000176374
1.34576e-07
7.51837e-07
2.81887e-12
7.83266e-14
0.00199874
0.00464489
0.00285955
0.000454872
1.93854e-05
1.56524e-06
1.96718e-06
2.97872e-09
9.47638e-09
5.60517e-07
1.70282e-07
1.31688e-05
5.82753e-07
2.94025e-07
2.0576e-07
7.78305e-05
7.34529e-05
0.000126086
0.000146
2.63701e-05
7.11142e-06
2.75879e-06
1.64152e-07
1.06623e-07
6.59872e-08
2.3762e-06
2.41985e-06
4.56335e-06
2.50129e-06
1.36599e-06
2.37029e-09
1.79082e-07
1.52947e-07
1.85585e-07
7.61285e-07
2.21271e-06
1.77834e-06
1.5676e-06
4.91416e-07
4.94658e-07
4.69375e-07
4.71718e-07
6.67292e-06
9.30405e-06
4.91681e-06
2.01482e-06
1.80726e-06
1.92118e-06
2.34752e-06
5.36239e-06
5.24977e-06
3.81734e-06
2.02488e-07
2.95021e-09
2.28227e-08
1.27349e-07
3.88936e-07
3.98286e-07
1.12869e-06
1.37202e-06
7.0807e-07
2.03628e-06
2.7225e-06
1.59845e-06
8.49956e-07
3.92037e-08
4.57457e-07
7.49164e-07
5.21301e-07
9.48372e-07
1.19561e-06
2.85009e-06
4.34745e-06
3.97404e-06
1.51218e-06
1.70694e-07
2.90908e-09
9.07513e-09
2.05469e-09
3.3313e-07
5.94728e-07
1.72178e-06
5.76607e-07
5.51975e-07
3.88829e-06
3.84183e-06
1.70375e-06
9.49249e-07
3.72847e-08
1.06023e-07
2.15004e-07
3.03593e-08
3.30955e-08
1.29819e-07
3.83923e-07
3.08313e-07
2.93473e-07
1.50027e-07
5.11252e-08
4.4416e-09
3.2942e-09
1.20942e-09
4.32629e-08
8.59023e-07
2.01448e-06
1.26676e-06
5.24431e-07
1.15046e-06
4.75745e-07
3.21219e-09
2.86e-09
4.68208e-08
1.3441e-07
9.08573e-08
2.93882e-08
2.6686e-09
2.66192e-09
2.64681e-09
3.00801e-08
3.47256e-08
3.68873e-08
1.48594e-08
4.20327e-09
1.83242e-09
1.2105e-09
1.67236e-09
1.08694e-07
1.23114e-06
1.24102e-07
5.35791e-09
4.36471e-09
5.09477e-09
7.16284e-09
2.0476e-08
9.24059e-08
1.77209e-07
1.74988e-07
5.64707e-08
2.69822e-09
2.67525e-09
8.30894e-09
1.81193e-08
2.03515e-08
2.09334e-08
1.22178e-08
4.13896e-09
1.56224e-09
9.18239e-10
7.62387e-10
3.50686e-09
2.77472e-09
2.96702e-09
8.31515e-09
6.72774e-09
8.94417e-09
1.07993e-08
1.25166e-08
2.02837e-08
3.45574e-08
4.56385e-08
3.42867e-08
6.10184e-09
5.66328e-09
8.12976e-09
1.50932e-08
1.812e-08
1.43189e-08
8.30475e-09
2.84412e-09
9.93817e-10
5.45967e-10
4.04339e-10
7.7147e-09
9.16935e-09
1.30688e-08
2.50568e-08
1.50672e-08
1.57468e-08
1.15069e-08
5.41627e-09
2.44034e-09
2.41064e-09
4.16807e-09
5.16674e-09
4.30411e-09
4.02729e-09
3.75674e-09
5.24396e-09
7.56416e-09
6.21757e-09
3.64975e-09
1.20635e-09
4.78088e-10
2.61876e-10
2.20365e-10
2.61186e-08
2.67495e-08
1.93044e-08
2.3074e-08
1.79619e-08
1.61664e-08
9.72045e-09
4.49474e-09
2.37169e-09
1.37953e-09
1.05835e-09
1.2423e-09
1.54151e-09
1.67379e-09
1.42768e-09
1.62052e-09
2.15093e-09
2.06761e-09
1.18446e-09
3.7327e-10
1.85667e-10
1.25303e-10
1.03752e-10
4.56116e-08
5.65172e-08
6.54674e-09
5.8695e-09
5.5649e-09
7.76028e-09
6.62595e-09
3.03311e-09
1.28616e-09
7.58275e-10
5.24324e-10
4.94371e-10
5.73549e-10
6.18116e-10
5.4366e-10
5.29098e-10
5.92266e-10
5.33747e-10
3.0563e-10
1.20381e-10
7.33503e-11
4.75364e-11
3.99044e-11
5.25017e-08
5.06286e-08
7.4549e-09
3.18013e-06
3.10477e-09
3.2779e-09
3.45655e-09
2.04152e-09
7.23995e-10
3.51117e-10
2.28261e-10
1.98008e-10
2.03143e-10
2.10075e-10
1.91871e-10
1.67813e-10
1.54688e-10
1.28273e-10
8.03709e-11
3.3748e-11
2.31239e-11
1.5165e-11
1.31529e-11
2.85531e-08
2.90801e-08
8.5996e-05
0.000224531
5.44046e-05
5.65625e-09
2.91521e-09
1.47134e-09
4.80717e-10
1.81575e-10
9.18013e-11
7.20484e-11
6.56133e-11
5.97426e-11
5.06258e-11
4.34996e-11
3.75099e-11
2.90356e-11
1.58029e-11
1.11205e-11
6.77048e-12
4.05225e-12
3.70693e-12
2.70668e-08
2.94473e-06
0.000315077
0.000314883
0.00028852
1.76681e-05
7.67231e-10
1.01573e-09
4.5641e-10
1.17625e-10
3.86449e-11
2.42893e-11
2.01445e-11
1.66608e-11
1.26234e-11
9.94724e-12
7.98823e-12
6.08065e-12
4.65735e-12
2.92818e-12
1.81119e-12
9.23576e-13
9.14726e-13
3.24259e-08
0.000169795
0.000313648
0.000315119
0.000315057
4.47434e-05
8.23858e-10
1.03957e-09
4.5528e-10
7.59081e-11
1.70642e-11
9.4844e-12
6.19708e-12
4.13906e-12
3.14365e-12
2.3431e-12
1.80051e-12
1.36054e-12
1.00805e-12
6.20875e-13
3.54792e-13
1.58085e-13
1.61546e-13
8.6001e-06
0.000240819
0.000215911
0.000149123
6.50553e-05
1.52251e-05
7.65211e-10
1.12969e-09
5.06147e-10
4.50811e-11
3.62815e-12
1.52105e-12
1.06036e-12
9.99882e-13
6.6579e-13
4.58379e-13
3.31253e-13
2.47051e-13
1.79408e-13
1.09105e-13
5.61121e-14
2.81371e-14
3.07179e-14
7.27043e-05
3.49868e-07
3.10992e-09
2.71453e-09
2.72827e-09
4.31092e-07
8.1462e-10
1.30729e-09
4.5664e-10
2.41367e-11
1.53117e-12
7.76825e-13
4.22334e-13
2.39444e-13
1.18775e-13
8.9623e-14
5.92182e-14
3.87795e-14
2.63674e-14
1.62202e-14
7.60989e-15
3.60771e-15
4.69836e-15
6.91106e-05
2.02677e-07
2.64431e-09
2.66168e-09
2.75256e-09
1.37493e-09
1.35152e-09
1.33608e-09
3.39792e-10
9.10962e-12
1.79937e-12
1.14456e-12
7.35952e-13
4.29655e-13
2.10099e-13
9.14702e-14
3.45508e-14
1.34851e-14
5.5546e-15
2.62046e-15
9.89211e-16
4.50244e-16
4.85845e-16
2.14059e-06
1.10521e-06
2.662e-09
2.91549e-09
8.03905e-09
1.46499e-08
1.18333e-09
8.73821e-10
1.3922e-10
4.96538e-12
2.83948e-12
2.22531e-12
1.65823e-12
1.04961e-12
5.41624e-13
2.26665e-13
7.92604e-14
2.48324e-14
6.8335e-15
1.73365e-15
4.26462e-16
1.01472e-16
7.02629e-17
1.33766e-09
1.71997e-08
1.01907e-08
3.08391e-09
3.15787e-09
4.50468e-09
5.3039e-10
5.11078e-10
1.12475e-10
9.08849e-12
5.27577e-12
4.54309e-12
3.85402e-12
2.46301e-12
1.3073e-12
5.5009e-13
1.91667e-13
5.82103e-14
1.5068e-14
3.4125e-15
7.04788e-16
1.1429e-16
2.0436e-17
1.18974e-09
1.15364e-09
1.02176e-08
6.92729e-09
1.50547e-09
1.02106e-09
7.26373e-10
5.20919e-10
1.07932e-10
1.29554e-11
1.11171e-11
9.32092e-12
8.07865e-12
5.15259e-12
2.75782e-12
1.1804e-12
4.12815e-13
1.27021e-13
3.15573e-14
7.00906e-15
1.41401e-15
2.03108e-16
2.36378e-17
1.63581e-09
5.06679e-09
1.43567e-08
1.41534e-08
4.10636e-09
2.23786e-09
1.25047e-09
4.37734e-10
7.22916e-11
2.62223e-11
2.78322e-11
1.97161e-11
1.5466e-11
1.02982e-11
5.19803e-12
2.26964e-12
8.04674e-13
2.42156e-13
5.99796e-14
1.22738e-14
2.30639e-15
3.24448e-16
3.76579e-17
2.01181e-09
4.74566e-09
1.35842e-08
1.46359e-08
1.15715e-08
4.89907e-09
3.16109e-09
2.74723e-10
6.71262e-11
6.76591e-11
7.16394e-11
4.855e-11
3.46363e-11
1.80054e-11
9.40544e-12
3.95767e-12
1.3852e-12
4.10887e-13
1.01237e-13
2.07863e-14
3.95599e-15
4.92723e-16
5.00376e-17
1.97008e-09
8.66552e-10
5.08431e-09
1.30217e-08
1.17257e-08
4.38364e-09
1.95679e-09
1.91932e-10
1.19342e-10
1.8759e-10
1.93249e-10
1.27976e-10
6.14146e-11
2.90069e-11
1.51717e-11
6.38115e-12
2.25827e-12
6.47863e-13
1.51246e-13
2.78493e-14
5.12475e-15
6.2153e-16
5.84993e-17
2.23088e-09
4.74021e-10
7.6453e-10
1.80674e-09
3.04884e-09
1.84274e-09
3.01143e-10
2.60611e-10
3.12609e-10
3.87285e-10
3.66242e-10
2.23721e-10
8.56422e-11
3.45531e-11
1.7278e-11
7.20824e-12
2.47018e-12
7.32895e-13
1.72124e-13
3.08817e-14
5.30225e-15
6.23026e-16
5.50592e-17
2.86702e-09
3.09954e-10
3.38378e-10
2.94868e-10
3.43929e-10
3.93666e-10
3.43269e-10
4.44606e-10
6.55262e-10
6.89153e-10
5.4503e-10
2.56812e-10
9.38425e-11
3.64514e-11
1.76411e-11
6.92275e-12
2.31957e-12
6.36351e-13
1.46014e-13
2.56739e-14
4.19262e-15
4.10946e-16
3.4239e-17
4.12701e-09
2.87786e-10
2.64665e-10
2.71429e-10
2.74645e-10
3.39301e-10
5.32043e-10
8.48201e-10
9.82049e-10
9.9077e-10
6.46553e-10
2.56431e-10
8.93159e-11
3.59829e-11
1.54703e-11
5.37845e-12
1.57007e-12
3.93447e-13
8.17788e-14
1.43196e-14
1.89499e-15
1.98027e-16
1.41606e-17
6.51956e-09
5.86452e-10
2.51068e-10
2.51825e-10
2.88168e-10
4.75824e-10
9.93183e-10
1.55651e-09
1.67291e-09
1.26958e-09
5.9565e-10
2.08224e-10
7.17889e-11
3.13401e-11
1.13137e-11
3.21896e-12
7.7302e-13
1.5168e-13
2.71044e-14
4.14867e-15
5.95892e-16
4.88016e-17
3.96029e-18
7.89514e-09
1.61396e-09
4.87497e-10
5.58247e-10
7.59222e-10
1.03118e-09
1.95536e-09
2.5401e-09
2.10702e-09
1.20049e-09
4.62504e-10
1.59633e-10
6.22203e-11
2.33826e-11
6.5179e-12
1.3845e-12
2.27269e-13
3.04719e-14
4.35429e-15
7.24574e-16
7.52248e-17
9.66194e-18
7.91002e-19
7.70482e-09
3.06386e-09
1.39571e-09
1.68544e-09
1.71798e-09
2.31564e-09
3.2103e-09
2.73523e-09
1.54854e-09
6.80319e-10
2.53727e-10
1.06016e-10
4.55037e-11
1.45735e-11
3.11804e-12
4.37553e-13
4.1795e-14
3.09081e-15
3.29186e-16
7.26608e-17
9.21723e-18
8.76738e-19
1.20843e-19
5.23786e-09
3.08569e-09
1.63547e-09
1.97296e-09
2.19909e-09
3.15375e-09
2.97606e-09
7.59277e-10
3.30081e-10
1.47469e-10
7.98888e-11
3.34078e-11
1.44955e-11
3.83894e-12
6.02229e-13
5.27019e-14
2.73381e-15
9.94415e-17
1.17596e-17
4.41342e-18
8.02663e-19
1.00239e-19
1.42111e-20
0.0165912
0.000390204
0.000359707
0.000382018
0.000990769
0.000376109
0.00141013
0.00615902
1.59953e-05
0.000824192
0.00683676
0.00719213
1.59912e-05
1.59875e-05
0.00132631
0.00155721
0.000134843
2.88873e-05
0.00040455
0.000868394
9.66755e-05
6.82244e-05
6.98337e-05
0.000217957
9.34937e-06
0.000176613
0.00127373
0.000642726
1.02324e-05
1.10403e-05
0.00377018
0.00871781
0.00263044
0.00231125
0.00104978
0.00182763
0.000349688
0.000391326
0.000150731
8.80561e-07
1.28075e-07
6.95802e-07
6.77948e-07
1.00635e-07
1.22583e-07
9.47706e-08
9.59206e-08
1.55265e-07
9.25371e-08
9.39651e-08
1.24912e-06
4.6198e-06
1.88261e-06
3.21949e-06
4.61873e-06
4.62288e-06
1.81698e-06
2.3413e-06
2.42161e-06
2.21722e-06
2.18129e-07
4.39298e-08
3.50936e-08
4.71264e-08
5.14764e-10
5.15138e-10
2.1333e-09
7.73573e-10
5.70326e-10
5.34855e-10
7.593e-10
7.69828e-10
3.60958e-10
3.5299e-10
3.95111e-10
3.6931e-10
2.01336e-10
1.81146e-10
1.8226e-10
1.6873e-10
9.14832e-11
7.51955e-11
7.3599e-11
6.44527e-11
3.38165e-11
2.62605e-11
2.41535e-11
2.26492e-11
1.09529e-11
7.63073e-12
7.79434e-12
6.90907e-12
2.43771e-12
2.06763e-12
2.06971e-12
1.94871e-12
6.54336e-13
4.08027e-13
5.2944e-13
5.18689e-13
9.93604e-14
8.97891e-14
1.09781e-13
1.29988e-13
2.18161e-14
1.40802e-14
2.31392e-14
2.87577e-14
3.28172e-15
2.71235e-15
4.09107e-15
6.12195e-15
4.39893e-16
3.17139e-16
7.26558e-16
1.15312e-15
5.68666e-17
5.25789e-17
9.54883e-17
2.11087e-16
8.69199e-18
8.05265e-18
1.95292e-17
4.42308e-17
4.46367e-18
2.30565e-18
4.50011e-18
1.29249e-17
5.72749e-18
1.19725e-18
1.63715e-18
4.77719e-18
7.00997e-18
9.99224e-19
5.58764e-19
1.77757e-18
7.57541e-18
9.26762e-19
2.54827e-19
3.71022e-19
7.04865e-18
8.37358e-19
1.09361e-19
1.25383e-19
3.92934e-18
4.36557e-19
4.29419e-20
2.0924e-20
1.65246e-18
1.7417e-19
1.30814e-20
4.31807e-21
4.04929e-19
4.54926e-20
2.86889e-21
5.05499e-22
8.71345e-20
9.20054e-21
4.66192e-22
7.295e-23
1.35332e-20
1.36314e-21
5.96136e-23
7.7684e-24
1.64188e-21
1.64588e-22
5.95681e-24
7.23038e-25
0.00203346
0.00557038
0.0027831
0.000118823
1.72818e-06
1.68186e-06
0.00132684
0.0213692
0.0149143
0.00785886
0.0167546
0.0309377
0.0309382
0.0304933
0.00832337
0.006583
0.00652599
0.00916566
0.00420841
0.00970942
0.012535
0.00717346
0.000206231
0.000105711
1.68283e-06
1.10246e-05
0.0203834
0.0112713
0.00168823
0.00162567
0.00890439
0.0309188
0.0261445
0.00826418
0.00810591
0.016858
0.0199384
0.0154966
0.00567187
0.0125238
0.0107346
0.00179544
0.000241816
0.000472688
2.65813e-05
0.0133983
0.0136946
0.00309899
0.00108359
0.00191698
0.0159297
0.0265449
0.0105833
0.013374
0.0195617
0.0199401
0.0199216
0.000911508
0.0092694
0.0207518
0.0137048
0.000289402
0.00070237
0.000594095
0.00314395
0.00434052
0.0035026
0.00107908
0.00118494
0.0056683
0.0102171
0.00884786
0.00679411
0.00524356
0.0136897
0.0192014
0.000221347
0.014904
0.0207581
0.013012
0.000286477
6.44088e-05
1.51954e-05
0.00128612
0.00973344
0.0116845
0.011209
0.0028162
0.00199722
0.00237498
0.00543738
0.00315302
0.00204091
0.00204482
0.013734
0.000222288
0.0116757
0.0207628
0.00746784
2.77824e-06
2.07334e-06
5.16087e-07
6.03515e-07
0.0073038
0.0116848
0.0116785
0.00584209
0.00196483
0.00397637
0.0039752
0.00352376
0.00222952
0.00204967
0.00802164
0.00234209
0.0202698
0.0207594
0.0128577
0.000243034
1.60296e-06
0.000421764
0.000610169
0.00531192
0.0116851
0.0116853
0.00653409
0.00170471
0.00123024
0.000314203
2.98357e-05
0.000264588
0.000230622
0.000339054
0.0087312
0.0112624
0.0204972
0.0205756
0.00943256
0.00038356
4.44211e-05
0.000212933
0.000897621
0.00764653
0.0091563
0.00300131
0.000556977
2.78296e-06
1.72769e-05
8.32012e-06
2.7888e-08
2.86284e-08
1.01024e-05
0.00467149
0.00351611
0.000578418
3.29033e-05
0.000688487
0.000352226
4.48692e-05
1.15776e-05
3.12535e-05
0.000233075
0.000340474
3.54568e-05
6.14857e-06
2.68785e-06
3.15698e-06
3.09766e-06
4.51804e-06
2.51556e-06
1.80836e-07
1.12552e-07
1.10091e-07
2.8832e-06
2.4555e-05
3.81725e-05
3.67126e-05
1.54267e-05
1.11955e-05
2.1058e-05
5.32211e-05
3.72215e-05
9.19114e-06
1.15261e-06
6.69932e-07
1.45407e-06
1.68895e-05
2.00231e-05
1.29076e-05
1.6528e-07
1.00784e-07
1.53874e-06
6.36744e-06
2.19445e-06
3.34091e-08
3.01701e-08
4.65964e-06
1.15402e-05
1.15336e-05
9.09163e-06
1.08274e-05
3.0015e-06
6.61039e-07
2.8607e-06
1.54776e-05
1.99722e-05
2.00302e-05
1.31891e-05
9.84082e-08
1.96345e-06
4.53035e-06
6.31676e-06
1.56128e-06
3.02852e-08
3.1612e-08
6.90348e-07
1.51367e-06
1.0729e-06
4.06925e-07
6.792e-06
6.79052e-06
6.48362e-06
5.06191e-06
4.37124e-06
1.78648e-05
1.70888e-05
6.39036e-06
8.26899e-08
4.62288e-06
4.61955e-06
3.63715e-06
1.46437e-06
6.50551e-08
9.91701e-10
9.86989e-10
9.86997e-10
9.87244e-10
1.02405e-09
4.23536e-07
2.4582e-06
2.01507e-06
5.85934e-07
1.43452e-07
1.24582e-06
4.0056e-06
7.60558e-07
8.58469e-08
4.50681e-06
2.82368e-06
5.74413e-07
4.58341e-08
4.21369e-08
6.66491e-09
1.49985e-09
7.94582e-09
1.70267e-09
9.58336e-10
4.59551e-11
6.05979e-11
4.5687e-11
6.19453e-10
1.16805e-09
1.82269e-06
3.82189e-08
1.39036e-07
4.61026e-07
8.19482e-07
1.27144e-07
6.58729e-10
6.58122e-10
5.67059e-09
2.38246e-09
1.20308e-09
1.88049e-09
1.17186e-09
8.59559e-10
4.08425e-10
2.59648e-10
2.2805e-10
2.83731e-09
2.43685e-07
7.59824e-07
3.71539e-08
1.87691e-07
4.67518e-07
2.1276e-09
2.99564e-09
6.54985e-10
7.65353e-10
1.2909e-09
1.19606e-09
9.55861e-10
6.90631e-10
6.40722e-10
4.75478e-10
1.83199e-10
2.47808e-10
2.07559e-09
3.73805e-08
2.0412e-07
2.15794e-08
3.2742e-08
1.91802e-07
4.35804e-07
1.43058e-09
1.04764e-09
5.0709e-10
4.36387e-10
5.12646e-10
6.32937e-10
5.2461e-10
3.23677e-10
2.14053e-10
1.36519e-10
9.64983e-11
5.37287e-10
1.71069e-09
1.15225e-08
2.67432e-08
2.11146e-08
4.46486e-09
1.18598e-07
3.5276e-07
7.14481e-10
4.25328e-10
2.92167e-10
2.09583e-10
2.18724e-10
2.38362e-10
2.06427e-10
1.15358e-10
5.93144e-11
5.70115e-11
1.2673e-10
6.03386e-10
1.02688e-09
1.23468e-09
1.99305e-09
1.47449e-08
8.93185e-10
9.01209e-09
2.74287e-08
3.12796e-10
2.08579e-10
1.35241e-10
1.03023e-10
9.06208e-11
9.11185e-11
8.52583e-11
4.81307e-11
3.89206e-11
3.88755e-11
8.50535e-11
4.05336e-10
6.4681e-10
5.90461e-10
6.27201e-10
1.95005e-09
8.94419e-10
1.33974e-09
7.16873e-09
1.31703e-10
8.99789e-11
5.89512e-11
5.02956e-11
4.68078e-11
4.44918e-11
4.14955e-11
3.12813e-11
2.80966e-11
2.98173e-11
4.38475e-11
1.56913e-10
3.02656e-10
3.2132e-10
3.34967e-10
5.69131e-10
1.07426e-09
2.15226e-09
3.71088e-09
5.09714e-11
3.30825e-11
2.77163e-11
2.49568e-11
2.46058e-11
2.39871e-11
2.22973e-11
1.95195e-11
1.7838e-11
1.77223e-11
2.36295e-11
5.19609e-11
1.10909e-10
1.57925e-10
1.83749e-10
3.60866e-10
1.0505e-09
2.32536e-09
3.36066e-09
1.74375e-11
1.29789e-11
1.16066e-11
1.22767e-11
1.24021e-11
1.18608e-11
1.12892e-11
1.05601e-11
1.03082e-11
1.0565e-11
1.2854e-11
1.91317e-11
3.77706e-11
6.43586e-11
9.75193e-11
2.12453e-10
8.86088e-10
2.29652e-09
3.34657e-09
5.66233e-12
4.93143e-12
4.95558e-12
5.41201e-12
5.57401e-12
5.4095e-12
5.13298e-12
5.10946e-12
5.12088e-12
5.18988e-12
5.99562e-12
8.60639e-12
1.45714e-11
2.61735e-11
4.3348e-11
1.22686e-10
6.80217e-10
2.07047e-09
3.13185e-09
1.75476e-12
1.78815e-12
2.00107e-12
2.19929e-12
2.25405e-12
2.17562e-12
2.09362e-12
2.15842e-12
2.3275e-12
2.4042e-12
2.78961e-12
4.46271e-12
7.4455e-12
1.33706e-11
2.28301e-11
6.61441e-11
4.691e-10
1.93364e-09
2.41664e-09
5.28947e-13
6.17178e-13
7.28038e-13
7.98409e-13
8.26574e-13
8.18876e-13
8.36754e-13
9.06021e-13
1.03548e-12
1.31135e-12
1.81559e-12
3.21575e-12
5.72395e-12
1.07304e-11
2.03196e-11
5.46346e-11
2.85672e-10
1.8563e-09
2.03417e-09
1.48357e-13
1.9333e-13
2.38532e-13
2.73129e-13
2.9109e-13
3.00841e-13
3.29223e-13
4.05076e-13
5.89669e-13
9.9346e-13
1.81014e-12
3.55617e-12
7.02588e-12
1.34232e-11
2.51974e-11
6.08926e-11
2.72706e-10
1.83942e-09
1.83423e-09
3.65462e-14
5.33556e-14
7.15637e-14
8.66171e-14
9.84844e-14
1.12932e-13
1.4774e-13
2.40261e-13
4.73155e-13
1.01792e-12
2.24258e-12
4.78502e-12
9.94598e-12
1.95742e-11
3.81785e-11
8.55142e-11
3.90915e-10
1.85239e-09
1.79322e-09
8.03068e-15
1.35118e-14
1.95655e-14
2.60946e-14
3.41338e-14
4.98052e-14
8.99082e-14
1.95979e-13
4.60793e-13
1.09847e-12
2.56493e-12
5.75559e-12
1.23177e-11
2.89333e-11
6.60702e-11
1.60156e-10
5.12037e-10
1.86676e-09
1.57501e-09
1.71912e-15
3.16538e-15
5.16974e-15
8.27551e-15
1.46111e-14
3.00811e-14
7.1252e-14
1.78665e-13
4.44962e-13
1.08211e-12
2.58394e-12
5.82148e-12
1.34596e-11
4.09015e-11
1.01718e-10
2.54387e-10
7.54397e-10
1.86665e-09
1.30479e-09
3.61613e-16
7.78801e-16
1.6107e-15
3.52045e-15
8.63259e-15
2.24416e-14
5.95016e-14
1.55637e-13
3.95445e-13
9.96046e-13
2.47662e-12
5.83154e-12
1.39407e-11
4.54e-11
1.55555e-10
3.45948e-10
8.78499e-10
1.82125e-09
8.45449e-10
9.01223e-17
2.49943e-16
7.02975e-16
1.99257e-15
5.93243e-15
1.66931e-14
4.55613e-14
1.21083e-13
3.13798e-13
8.12522e-13
2.13438e-12
5.47375e-12
1.36563e-11
4.01595e-11
1.56828e-10
4.06593e-10
8.87944e-10
1.45981e-09
7.35113e-10
3.22909e-17
1.1312e-16
3.90573e-16
1.23649e-15
3.78992e-15
1.082e-14
2.95755e-14
8.11392e-14
2.17246e-13
5.84685e-13
1.6363e-12
4.48173e-12
1.20405e-11
3.20303e-11
1.21328e-10
3.98782e-10
7.95355e-10
1.07127e-09
5.57726e-10
1.23773e-17
5.50725e-17
2.00467e-16
6.68228e-16
2.08141e-15
5.74908e-15
1.64536e-14
4.44248e-14
1.24028e-13
3.58913e-13
1.06661e-12
3.11175e-12
8.76578e-12
2.28026e-11
7.5752e-11
2.84713e-10
6.60528e-10
7.54114e-10
3.9832e-10
4.94804e-18
2.37479e-17
8.64974e-17
2.84975e-16
9.07685e-16
2.62805e-15
7.36595e-15
2.09398e-14
6.1984e-14
1.94138e-13
6.25686e-13
1.95713e-12
5.63729e-12
1.49458e-11
4.16382e-11
1.4907e-10
3.83069e-10
5.78e-10
2.11443e-10
1.68921e-18
7.97339e-18
3.02043e-17
1.06799e-16
3.29099e-16
9.58353e-16
2.70863e-15
8.10752e-15
2.57333e-14
8.8536e-14
3.1368e-13
1.06035e-12
3.22174e-12
8.66183e-12
2.21863e-11
6.72577e-11
2.05976e-10
2.98401e-10
1.3276e-10
4.43376e-19
2.25008e-18
8.84042e-18
3.15903e-17
9.76323e-17
2.86276e-16
8.28789e-16
2.58192e-15
8.8887e-15
3.39549e-14
1.338e-13
4.9433e-13
1.6285e-12
4.51951e-12
1.12674e-11
2.90717e-11
7.04935e-11
1.60839e-10
6.03406e-11
1.03564e-19
5.10273e-19
2.06677e-18
7.29854e-18
2.28121e-17
6.79065e-17
2.05267e-16
6.79935e-16
2.57062e-15
1.10418e-14
4.90507e-14
2.02534e-13
7.10774e-13
2.07548e-12
5.22042e-12
1.25806e-11
2.96364e-11
4.77431e-11
3.64204e-11
1.70669e-20
9.26405e-20
3.80584e-19
1.32193e-18
4.1729e-18
1.26947e-17
4.0365e-17
1.43932e-16
6.0081e-16
2.94034e-15
1.49523e-14
6.98122e-14
2.67858e-13
8.34085e-13
2.16186e-12
4.89562e-12
8.96278e-12
1.97986e-11
1.48898e-11
2.52458e-21
1.34049e-20
5.05034e-20
1.8786e-19
5.98928e-19
1.84726e-18
6.30598e-18
2.45145e-17
1.13757e-16
6.25815e-16
3.65356e-15
1.94477e-14
8.37086e-14
2.81315e-13
7.64979e-13
1.764e-12
3.40655e-12
4.7508e-12
6.88392e-12
3.09631e-22
1.59934e-21
5.92892e-21
2.09581e-20
6.81077e-20
2.15162e-19
8.20494e-19
3.54761e-18
1.86111e-17
1.1552e-16
7.72103e-16
4.69164e-15
2.22901e-14
8.10786e-14
2.31996e-13
5.46234e-13
8.09342e-13
1.70593e-12
2.9303e-12
3.19509e-23
1.57939e-22
5.73485e-22
1.92905e-21
6.47883e-21
2.16437e-20
9.34507e-20
4.57782e-19
2.74591e-18
1.91621e-17
1.4301e-16
9.69576e-16
5.08525e-15
2.00795e-14
6.11015e-14
1.48249e-13
2.23791e-13
5.63992e-13
1.15023e-12
2.90597e-24
1.34e-23
4.65582e-23
1.55061e-22
5.46002e-22
2.00569e-21
9.74144e-21
5.46943e-20
3.73932e-19
2.86952e-18
2.31188e-17
1.68818e-16
9.71929e-16
4.16715e-15
1.36197e-14
3.47065e-14
5.62402e-14
1.53442e-13
1.53854e-13
)
;

boundaryField
{
    leftWall
    {
        type            zeroGradient;
    }
    rightWall
    {
        type            zeroGradient;
    }
    lowerWall
    {
        type            zeroGradient;
    }
    atmosphere
    {
        type            inletOutlet;
        inletValue      uniform 0;
        value           nonuniform List<scalar> 
46
(
0
0
0
0
0
0
0
0
0
0
0
0
0
0
0
0
0
0
1.17596e-17
4.41342e-18
8.02663e-19
1.00239e-19
1.42111e-20
1.64188e-21
1.64588e-22
5.95681e-24
7.23038e-25
2.90597e-24
1.34e-23
4.65582e-23
1.55061e-22
5.46002e-22
2.00569e-21
9.74144e-21
5.46943e-20
3.73932e-19
2.86952e-18
2.31188e-17
1.68818e-16
9.71929e-16
4.16715e-15
1.36197e-14
3.47065e-14
5.62402e-14
1.53442e-13
1.53854e-13
)
;
    }
    defaultFaces
    {
        type            empty;
    }
}


// ************************************************************************* //
