/*--------------------------------*- C++ -*----------------------------------*\
| =========                 |                                                 |
| \\      /  F ield         | OpenFOAM: The Open Source CFD Toolbox           |
|  \\    /   O peration     | Version:  2312                                  |
|   \\  /    A nd           | Website:  www.openfoam.com                      |
|    \\/     M anipulation  |                                                 |
\*---------------------------------------------------------------------------*/
FoamFile
{
    version     2.0;
    format      ascii;
    arch        "LSB;label=32;scalar=64";
    class       volScalarField;
    location    "2.5";
    object      p;
}
// * * * * * * * * * * * * * * * * * * * * * * * * * * * * * * * * * * * * * //

dimensions      [1 -1 -2 0 0 0 0];

internalField   nonuniform List<scalar> 
2268
(
4868.8
4864.18
4861.15
4861.95
4872.49
4898.89
4945.43
5013.24
5100.19
5201.54
5311.1
5422.17
5527.85
5622.08
5701.12
5764.9
5817.39
5864.45
5911.24
5959.48
6006.7
6047
6072.47
4070.45
4066.11
4063.57
4063.25
4072.58
4097.97
4144.12
4212.14
4299.89
4402.44
4513.48
4626.2
4733.36
4828.56
4907.81
4970.92
5022.33
5068.12
5114.23
5162.46
5210.18
5251.26
5277.46
3273.37
3269.98
3266.48
3263
3269.28
3292.41
3337.6
3406
3495.39
3600.46
3714.53
3830.68
3940.91
4038.07
4117.65
4179.2
4228.06
4271.19
4315.67
4363.59
4412.15
4454.65
4482.76
2476.75
2474.2
2469.03
2461.3
2462.84
2481.84
2525.14
2593.98
2685.98
2795.07
2913.94
3035.61
3150.79
3251.14
3331.25
3390.07
3435
3473.64
3515.45
3562.76
3612.49
3656.94
3688.45
1691.98
1690.02
1682.01
1668.18
1662.95
1676.11
1713.97
1778.65
1870.98
1985.77
2111.56
2241.31
2363.46
2468.26
2549.24
2603.97
2643.24
2674.72
2712.54
2759.02
2810.88
2858.04
2893.72
1145.78
1141.92
1136.49
1129.46
1128.2
1135.95
1154.28
1185.21
1230.63
1294.78
1379.39
1480.06
1589.48
1692.94
1773.61
1821.09
1848.61
1873.76
1906.3
1951.15
2005.83
2055.6
2095.93
959.325
952.636
951.341
954.544
960.209
966.028
970.752
973.85
974.205
977.448
990.413
1013.42
1052.4
1099.61
1141.52
1165.35
1179.51
1191.95
1212.02
1240.94
1266.73
1299
1333.82
900.316
893.314
891.863
894.617
899.673
904.992
909.437
912.418
912.903
909.767
898.855
880.767
864.739
853.341
846.871
844.506
843.015
847.299
849.05
849.695
839.43
840.535
852.144
2376.15
2388.16
2431.45
2459.04
2471.94
2461.3
2422.52
2372.46
2361.18
2373.15
2397.25
2420.45
2484.45
2621.6
2781.17
2928.59
2966.89
2894.74
2830.52
1629.47
1654.54
1701.44
1730.22
1738.06
1721.03
1680.14
1639.94
1637.04
1659.59
1697.71
1735.22
1794.39
1900.91
2047.08
2194.38
2230.38
2131.79
2053.41
1100.84
1117.62
1145.67
1163.83
1163.86
1146.99
1120.99
1108.87
1110.71
1126.04
1159.56
1205.14
1256.84
1323.5
1424.63
1523.3
1576.69
1501.38
1438.88
896.937
896.908
897.559
901.104
900.86
899.849
900.081
912.703
909.952
901.427
908.015
928.969
962.623
1001.64
1054.74
1082.15
1104.89
1087.09
1014.42
828.829
829.894
824.372
821.552
823.757
833.027
843.772
863.293
855.952
837.163
832.022
831.438
839.391
856.843
859.675
851.072
828.454
816.118
773.525
781.211
779.812
774.357
769.645
769.671
776.782
789.151
810.607
798.229
781.06
778.385
771.559
761.773
761.541
730.556
700.696
676.421
675.848
693.667
730.366
723.576
718.458
713.914
712.716
717.831
733.505
752.525
731.065
721.786
722.779
718.721
703.872
689.363
654.96
622.356
612.588
621.213
639.528
673.255
664.837
659.436
655.172
653.43
656.297
673.905
685.836
660.659
657.722
659.826
656.619
640.374
625.11
589.801
570.286
571.732
575.259
582.877
805.953
797.457
795.787
798.183
802.773
808.134
812.8
816.084
817.027
814.226
805.431
790.805
776.002
762.33
748.793
740.065
728.848
721.336
709.376
694.367
679.664
662.654
637.455
666.068
655.465
652.775
660.94
668.982
676.298
681.881
685.992
688.168
687.819
683.452
675.241
663.842
649.18
633.425
620.668
610.158
598.222
586.309
571.742
555.827
536.605
514.181
550.113
531.205
524.114
527.211
534.99
546.824
554.447
559.587
563.935
565.859
564.861
561.82
553.704
540.115
522.898
505.355
491.496
479.214
467.095
454.193
440.013
423.738
405.26
483.558
459.635
436.628
426.662
430.2
436.643
443.264
449.539
455.213
458.025
458.975
457.912
453.386
443.631
428.772
413.614
399.91
386.454
372.371
358.143
343.924
329.139
313.187
421.86
393.089
372.376
362.145
357.746
360.628
367.649
373.295
377.115
379.75
381.816
382.596
379.837
372.452
360.988
347.848
334.547
319.761
304.113
287.664
271.845
257.514
243.842
339.233
310.556
309.241
306.337
307.104
310.021
314.221
317.956
320.197
321.983
322.742
321.798
317.721
309.79
298.191
284.485
270.035
254.881
239.357
223.079
207.033
192.838
179.961
264.026
237.677
253.504
251.686
253.53
253.051
258.083
262.218
263.899
264.385
263.65
260.843
255.112
245.991
233.644
218.714
202.379
186.523
171.445
156.977
142.613
129.324
116.356
203.465
197.657
202.45
192.239
188.453
191.452
198.99
204.062
205.396
205.738
205.296
202.581
195.349
184.136
170.145
153.749
135.704
118.255
103.12
89.2345
76.4877
64.473
52.4837
160.311
174.566
165.133
157.696
154.418
152.488
149.292
147.748
146.028
145.379
146.632
146.382
138.908
124.438
107.983
89.4757
66.0841
46.9162
35.4519
26.5464
19.7792
14.5587
9.7523
113.775
133.194
133.319
132.411
126.161
113.017
98.6707
90.3487
84.8729
81.4597
82.4614
84.839
80.929
69.3098
55.9903
41.0083
16.4543
4.92824
2.45896
0.784301
-0.337352
-0.738102
-0.938043
49.4608
62.4914
73.437
77.2537
70.7258
55.2176
41.6693
33.9973
28.5485
24.4604
24.3942
29.0269
22.6321
19.5045
16.0267
5.29736
0.21695
-0.758134
-0.847085
-1.00497
-1.13261
-1.21471
-1.30749
7.14411
10.3244
14.0205
15.9193
15.4033
11.6417
7.26346
3.79227
1.30718
-0.371917
-1.23796
-1.47283
-0.0836869
1.1711
-1.02808
-2.36908
-1.72387
-1.31008
-1.27825
-1.32234
-1.36949
-1.43002
-1.49136
-1.14258
-1.16996
-1.18943
-1.17529
-1.17166
-1.34372
-1.42923
-1.62159
-2.02722
-2.22296
-2.34601
-2.51663
-2.66162
-2.69074
-2.89513
-2.81544
-2.29361
-1.86499
-1.67633
-1.59575
-1.60761
-1.64144
-1.67143
-1.45732
-1.49541
-1.56468
-1.657
-1.76303
-1.87261
-1.98951
-2.09753
-2.1955
-2.33286
-2.47454
-2.56313
-2.64123
-2.74249
-2.75711
-2.65767
-2.4012
-2.13706
-1.9557
-1.87466
-1.8537
-1.85194
-1.85647
-1.63465
-1.66704
-1.72146
-1.79357
-1.87956
-1.97861
-2.08359
-2.18868
-2.29043
-2.3962
-2.51204
-2.62208
-2.67769
-2.70362
-2.67596
-2.57584
-2.42756
-2.27342
-2.1667
-2.10599
-2.0707
-2.04962
-2.03723
-1.7887
-1.8179
-1.85957
-1.91527
-1.98234
-2.06525
-2.15305
-2.24446
-2.33894
-2.42881
-2.50573
-2.56567
-2.62932
-2.66124
-2.64546
-2.5792
-2.48826
-2.39951
-2.33014
-2.28332
-2.24911
-2.22289
-2.20487
-1.91812
-1.94418
-1.97794
-2.02398
-2.07917
-2.14501
-2.21765
-2.29598
-2.37819
-2.4595
-2.53316
-2.59819
-2.63755
-2.66013
-2.65451
-2.61994
-2.56914
-2.51511
-2.4679
-2.43134
-2.40188
-2.37787
-2.36001
-2.0283
-2.05382
-2.08281
-2.12157
-2.16505
-2.21789
-2.28165
-2.35484
-2.43281
-2.50963
-2.57949
-2.63798
-2.67909
-2.70246
-2.70576
-2.69006
-2.66182
-2.62854
-2.59645
-2.56858
-2.54442
-2.52385
-2.5074
-2.12913
-2.15702
-2.18041
-2.20979
-2.24093
-2.28872
-2.35133
-2.42649
-2.5068
-2.5846
-2.65387
-2.71042
-2.75112
-2.77639
-2.78573
-2.7808
-2.76561
-2.74486
-2.72266
-2.70145
-2.68192
-2.66455
-2.64983
-2.22426
-2.25307
-2.26333
-2.27745
-2.30071
-2.35167
-2.42641
-2.51266
-2.60084
-2.68231
-2.752
-2.80734
-2.84753
-2.87326
-2.88562
-2.88642
-2.87855
-2.86523
-2.84935
-2.83293
-2.81703
-2.80228
-2.7892
-2.30355
-2.30755
-2.24666
-2.22258
-2.30673
-2.40848
-2.5106
-2.61893
-2.71812
-2.80306
-2.87202
-2.92482
-2.96253
-2.98695
-2.99975
-3.00289
-2.99869
-2.98953
-2.97758
-2.96444
-2.95116
-2.93842
-2.9267
-2.36829
-2.34493
-2.20027
-2.13898
-2.22749
-2.46056
-2.63624
-2.76277
-2.86888
-2.95101
-3.01402
-3.06044
-3.09283
-3.11361
-3.12456
-3.12758
-3.12457
-3.11736
-3.10759
-3.0965
-3.085
-3.07369
-3.06302
-2.46861
-2.42778
-2.29065
-2.17926
-2.24887
-2.57691
-2.83687
-2.9815
-3.06683
-3.13054
-3.17775
-3.21253
-3.23628
-3.25079
-3.25772
-3.25865
-3.25502
-3.24818
-3.23927
-3.22926
-3.21882
-3.20845
-3.19853
-2.66079
-2.62657
-2.69518
-2.88761
-2.87239
-2.94047
-3.18637
-3.28899
-3.32033
-3.33986
-3.3619
-3.37904
-3.39032
-3.39605
-3.39713
-3.39447
-3.38891
-3.38128
-3.37231
-3.36262
-3.35269
-3.34286
-3.33344
-2.84378
-2.93448
-3.67463
-4.51978
-4.33345
-3.75647
-3.79657
-3.69578
-3.61099
-3.57422
-3.56078
-3.55531
-3.55111
-3.54636
-3.54045
-3.53328
-3.52499
-3.51587
-3.50622
-3.49635
-3.48653
-3.47695
-3.46783
-3.07131
-3.45879
-4.45262
-4.91381
-4.94991
-4.89665
-4.39248
-4.09323
-3.90427
-3.80943
-3.76205
-3.73323
-3.71336
-3.69808
-3.68509
-3.67324
-3.66198
-3.65106
-3.64042
-3.63011
-3.62016
-3.61066
-3.6017
-3.55253
-3.95078
-4.52333
-4.59472
-4.73095
-5.0559
-4.69938
-4.37528
-4.14793
-4.02298
-3.95106
-3.90418
-3.87171
-3.84765
-3.8286
-3.81263
-3.79864
-3.78601
-3.77437
-3.76354
-3.75339
-3.74388
-3.73503
-4.57142
-4.72279
-4.97126
-5.13273
-5.25678
-5.20265
-4.83418
-4.54546
-4.33058
-4.202
-4.11904
-4.06247
-4.02228
-3.99237
-3.96903
-3.95003
-3.93398
-3.92001
-3.90757
-3.8963
-3.88599
-3.87649
-3.86775
-4.78166
-4.8186
-4.9292
-5.07221
-5.18391
-5.13698
-4.87053
-4.63518
-4.45978
-4.34491
-4.26406
-4.20603
-4.16325
-4.13073
-4.1052
-4.08453
-4.06729
-4.05253
-4.03963
-4.02815
-4.0178
-4.00839
-3.9998
-4.86925
-4.87655
-4.94019
-5.03141
-5.08016
-5.01487
-4.84803
-4.68082
-4.55343
-4.46035
-4.38967
-4.33603
-4.29478
-4.2625
-4.23674
-4.21572
-4.1982
-4.18328
-4.17033
-4.15891
-4.1487
-4.13949
-4.13116
-4.86926
-4.89826
-4.93673
-4.98383
-4.9838
-4.92488
-4.82058
-4.7161
-4.62973
-4.55934
-4.50181
-4.45557
-4.4184
-4.38838
-4.36391
-4.34367
-4.32668
-4.31216
-4.29957
-4.2885
-4.27864
-4.26977
-4.26178
-4.84739
-4.87457
-4.90266
-4.9281
-4.92199
-4.88353
-4.82116
-4.75822
-4.70157
-4.65073
-4.60612
-4.56813
-4.53622
-4.50961
-4.48742
-4.46877
-4.45293
-4.43929
-4.42741
-4.41694
-4.40761
-4.39924
-4.3917
-4.81263
-4.84452
-4.87101
-4.89218
-4.89407
-4.87737
-4.84677
-4.81186
-4.77606
-4.74056
-4.70698
-4.67677
-4.65032
-4.6276
-4.60819
-4.59161
-4.57733
-4.56491
-4.554
-4.54433
-4.5357
-4.52794
-4.52094
-4.81027
-4.84494
-4.8734
-4.89669
-4.90702
-4.90489
-4.89442
-4.87765
-4.85623
-4.83227
-4.80762
-4.7842
-4.76289
-4.74394
-4.72733
-4.71289
-4.70034
-4.68931
-4.67953
-4.67081
-4.66299
-4.65593
-4.64956
-4.85501
-4.88746
-4.91598
-4.94068
-4.9564
-4.96312
-4.96155
-4.95561
-4.94359
-4.9275
-4.91
-4.89228
-4.87534
-4.85975
-4.84578
-4.83338
-4.82246
-4.81283
-4.80425
-4.79655
-4.78961
-4.78333
-4.77764
-4.9393
-4.96583
-4.99112
-5.01439
-5.0318
-5.04267
-5.04718
-5.04492
-5.03814
-5.02766
-5.01495
-5.00134
-4.9879
-4.97526
-4.96371
-4.95332
-4.94402
-4.93575
-4.92836
-4.9217
-4.91568
-4.91022
-4.90526
-5.04895
-5.06849
-5.08878
-5.10854
-5.12471
-5.13613
-5.14216
-5.14263
-5.13871
-5.13144
-5.12202
-5.11157
-5.10101
-5.09089
-5.0815
-5.07296
-5.06523
-5.05828
-5.05204
-5.04642
-5.04133
-5.03671
-5.03251
-5.17148
-5.1848
-5.19983
-5.21523
-5.2286
-5.23873
-5.24455
-5.24577
-5.24336
-5.23814
-5.23108
-5.22308
-5.21485
-5.20686
-5.19937
-5.19249
-5.18622
-5.18054
-5.17543
-5.17083
-5.16667
-5.16289
-5.15946
-5.29839
-5.30702
-5.31745
-5.32854
-5.33855
-5.34667
-5.35162
-5.35275
-5.35111
-5.34728
-5.34199
-5.33588
-5.32952
-5.3233
-5.31744
-5.31203
-5.30709
-5.30262
-5.29861
-5.29502
-5.29178
-5.28885
-5.28619
-5.42504
-5.43039
-5.43716
-5.44453
-5.4513
-5.4574
-5.46147
-5.46247
-5.46137
-5.45857
-5.45462
-5.44995
-5.44503
-5.44023
-5.43573
-5.43161
-5.42789
-5.42458
-5.42165
-5.41906
-5.41675
-5.41467
-5.41278
-5.54968
-5.55281
-5.55688
-5.56136
-5.5654
-5.56932
-5.57251
-5.57402
-5.57352
-5.57153
-5.56859
-5.56497
-5.56113
-5.55748
-5.55415
-5.5512
-5.54865
-5.54646
-5.54461
-5.54303
-5.54164
-5.54041
-5.5393
-5.67282
-5.67417
-5.67619
-5.67836
-5.68012
-5.68085
-5.68293
-5.6866
-5.68677
-5.68524
-5.68289
-5.68005
-5.67717
-5.67457
-5.67242
-5.67068
-5.66932
-5.6683
-5.66756
-5.66701
-5.66655
-5.66615
-5.66579
606.642
601.943
598.599
593.232
499.15
490.145
480.671
471.488
389.25
378.819
370.569
364.576
301.432
294.837
289.984
285.978
234.013
228.142
222.725
217.188
170.117
163.67
157.593
151.635
106.641
100.36
94.4348
88.0683
42.4283
36.5231
33.3211
30.6126
4.75334
2.83608
1.99744
1.23271
-1.02097
-1.04769
-1.10014
-1.11527
-1.35862
-1.38154
-1.37409
-1.35374
-1.51343
-1.52049
-1.52444
-1.52955
-1.68584
-1.69316
-1.69877
-1.70659
-1.86331
-1.86869
-1.87399
-1.8795
-2.03644
-2.03761
-2.03948
-2.04128
-2.19878
-2.19642
-2.19489
-2.19365
-2.35161
-2.34737
-2.34394
-2.34104
-2.49843
-2.49347
-2.48916
-2.48537
-2.64106
-2.63597
-2.63135
-2.62717
-2.7809
-2.77595
-2.77134
-2.76705
-2.91894
-2.91421
-2.90972
-2.90547
-3.05574
-3.05124
-3.04691
-3.04275
-3.19165
-3.18734
-3.18317
-3.17913
-3.32684
-3.3227
-3.31867
-3.31474
-3.46144
-3.45742
-3.45351
-3.44968
-3.59546
-3.59155
-3.58773
-3.584
-3.72891
-3.72509
-3.72137
-3.71773
-3.86176
-3.85802
-3.85441
-3.85088
-3.99397
-3.99034
-3.98684
-3.98343
-4.12552
-4.12203
-4.11866
-4.11539
-4.25641
-4.25308
-4.24987
-4.24677
-4.38663
-4.3835
-4.3805
-4.37758
-4.51624
-4.51334
-4.51056
-4.50786
-4.64528
-4.64264
-4.6401
-4.63765
-4.77382
-4.77146
-4.76919
-4.767
-4.90192
-4.89986
-4.89788
-4.89597
-5.02967
-5.02792
-5.02624
-5.02462
-5.15714
-5.15571
-5.15434
-5.15301
-5.2844
-5.2833
-5.28223
-5.28121
-5.41151
-5.41073
-5.40998
-5.40926
-5.53855
-5.53809
-5.53764
-5.53721
-5.66556
-5.66541
-5.66527
-5.66513
582.882
572.018
566.698
562.346
559.45
559.264
575.466
572.192
555.451
550.542
547.854
540.76
533.967
521.74
497.436
487.177
491.075
483.327
487.6
457.531
453.014
450.715
444.171
437.255
437.277
444.891
430.414
417.496
414.062
409.282
404.576
401.344
391.081
379.418
365.499
357.562
345.716
348.572
357.031
357.13
360.507
356.172
343.516
336.433
330.106
312.489
305.66
307.359
305.801
299.825
289.692
274.951
261.641
241.934
232.031
222.209
225.724
280.239
277.311
277.594
273.783
263.275
251.526
237.244
220.877
218.919
220.287
220.027
212.102
196.649
173.559
158.124
139.622
131.658
129.596
130.15
209.082
199.989
190.798
185.786
184.034
174.342
159.704
147.025
142.468
141.413
141.438
132.493
112.608
93.3421
73.6394
58.6175
51.9365
51.3116
52.9125
142.201
129.297
117.091
110.337
110.191
103.746
93.1024
81.807
73.9624
72.6736
77.5086
68.4302
47.4008
29.8319
15.8651
8.04419
7.05302
8.43098
10.5918
74.6981
63.7972
60.7624
57.5681
51.0091
38.9448
31.6228
25.1205
21.9384
29.1645
32.0074
23.4821
9.80064
2.10073
-0.2946
-0.439002
-0.349017
-0.393589
-0.311125
21.7156
18.0332
17.4894
16.6237
10.1022
3.73985
1.89887
0.509624
0.582015
5.99286
6.76667
2.59936
-0.457192
-0.878181
-0.809132
-0.772699
-0.776736
-0.75563
-0.754118
2.89892
1.98926
-0.695076
-0.994149
-0.716537
-0.774365
-0.997181
-1.03539
-0.988673
-0.981923
-1.17234
-1.24599
-1.2492
-1.16586
-1.04457
-0.983654
-0.962428
-0.941754
-0.925752
-1.15325
-1.17452
-1.26665
-1.30739
-1.35556
-1.31136
-1.2664
-1.23543
-1.20986
-1.28661
-1.37572
-1.39581
-1.35649
-1.29119
-1.21877
-1.17161
-1.14775
-1.13002
-1.11127
-1.38662
-1.44751
-1.42944
-1.45363
-1.48833
-1.48465
-1.45389
-1.42954
-1.40284
-1.45216
-1.49498
-1.50096
-1.47826
-1.44326
-1.40627
-1.38105
-1.36633
-1.35369
-1.32388
-1.54916
-1.59058
-1.60489
-1.62061
-1.63203
-1.62858
-1.61738
-1.60725
-1.59108
-1.61086
-1.62863
-1.62881
-1.61587
-1.60001
-1.58956
-1.58097
-1.57273
-1.56461
-1.53147
-1.72276
-1.74637
-1.76274
-1.77172
-1.77473
-1.77127
-1.76444
-1.75678
-1.74707
-1.7561
-1.76442
-1.76529
-1.75842
-1.74994
-1.74478
-1.74722
-1.74958
-1.74133
-1.71327
-1.8891
-1.90029
-1.90721
-1.91032
-1.91024
-1.90686
-1.90175
-1.8962
-1.89072
-1.89369
-1.89717
-1.89827
-1.89518
-1.89146
-1.88993
-1.89401
-1.89764
-1.88918
-1.87084
-2.04433
-2.04738
-2.04832
-2.0482
-2.04668
-2.04341
-2.03918
-2.0349
-2.03066
-2.0306
-2.03136
-2.03162
-2.03111
-2.03107
-2.03204
-2.03588
-2.03358
-2.02511
-2.01271
-2.19189
-2.19053
-2.18864
-2.18667
-2.18406
-2.18063
-2.17678
-2.17307
-2.16928
-2.16777
-2.16702
-2.16676
-2.16707
-2.16803
-2.16934
-2.16948
-2.16471
-2.15742
-2.14855
-2.33679
-2.33264
-2.32882
-2.3254
-2.3219
-2.31815
-2.31431
-2.31066
-2.30729
-2.305
-2.30334
-2.30246
-2.30239
-2.30249
-2.30241
-2.30047
-2.29554
-2.2895
-2.28331
-2.47972
-2.47371
-2.46856
-2.46406
-2.45984
-2.45572
-2.45175
-2.44804
-2.44469
-2.44198
-2.43981
-2.43822
-2.43714
-2.43615
-2.43482
-2.43224
-2.42789
-2.42292
-2.41871
-2.62082
-2.61371
-2.60766
-2.6024
-2.59762
-2.59316
-2.589
-2.58517
-2.58172
-2.57873
-2.57615
-2.57394
-2.57204
-2.57021
-2.56815
-2.56546
-2.56197
-2.55819
-2.55528
-2.76043
-2.75271
-2.74609
-2.74031
-2.73511
-2.73037
-2.72602
-2.72205
-2.71846
-2.71525
-2.71236
-2.70974
-2.70732
-2.70499
-2.70262
-2.70007
-2.69737
-2.69472
-2.69278
-2.8988
-2.89081
-2.88386
-2.87773
-2.87225
-2.86729
-2.86277
-2.85867
-2.85496
-2.85158
-2.84848
-2.84561
-2.84293
-2.84038
-2.83796
-2.83568
-2.83353
-2.83162
-2.83043
-3.03616
-3.02809
-3.02097
-3.01465
-3.00898
-3.00386
-2.99923
-2.99503
-2.99121
-2.98772
-2.9845
-2.98151
-2.97871
-2.97612
-2.97379
-2.97179
-2.97005
-2.96853
-2.96774
-3.17265
-3.16463
-3.15746
-3.15105
-3.14528
-3.14007
-3.13536
-3.1311
-3.12722
-3.12367
-3.1204
-3.11736
-3.11456
-3.11203
-3.10983
-3.10807
-3.10668
-3.10544
-3.10485
-3.30841
-3.30049
-3.29335
-3.28693
-3.28113
-3.27589
-3.27115
-3.26686
-3.26296
-3.2594
-3.25613
-3.25312
-3.25038
-3.24795
-3.24589
-3.24433
-3.24324
-3.24228
-3.2418
-3.4435
-3.43572
-3.42867
-3.4223
-3.41652
-3.4113
-3.40658
-3.4023
-3.39842
-3.39489
-3.39167
-3.38873
-3.38609
-3.38378
-3.38186
-3.38044
-3.37951
-3.3788
-3.37843
-3.57797
-3.57037
-3.56345
-3.55717
-3.55147
-3.54632
-3.54165
-3.53742
-3.53359
-3.53012
-3.52698
-3.52414
-3.52162
-3.51945
-3.51765
-3.51633
-3.51542
-3.51489
-3.51446
-3.71185
-3.70445
-3.6977
-3.69156
-3.68598
-3.68093
-3.67636
-3.67222
-3.66847
-3.6651
-3.66205
-3.65934
-3.65695
-3.6549
-3.65322
-3.65196
-3.65102
-3.65049
-3.6501
-3.84517
-3.83799
-3.83144
-3.82548
-3.82007
-3.81516
-3.81071
-3.80669
-3.80306
-3.7998
-3.79688
-3.79429
-3.79203
-3.79011
-3.78852
-3.78731
-3.78636
-3.78581
-3.78546
-3.97792
-3.971
-3.96469
-3.95895
-3.95374
-3.94901
-3.94472
-3.94085
-3.93736
-3.93423
-3.93144
-3.92899
-3.92686
-3.92506
-3.92356
-3.92239
-3.92146
-3.9209
-3.92058
-4.11011
-4.10349
-4.09746
-4.09199
-4.08701
-4.08249
-4.0784
-4.07471
-4.07138
-4.0684
-4.06575
-4.06343
-4.06143
-4.05974
-4.05833
-4.05721
-4.0563
-4.05576
-4.05545
-4.24177
-4.23549
-4.22979
-4.2246
-4.2199
-4.21563
-4.21176
-4.20826
-4.20512
-4.2023
-4.19981
-4.19762
-4.19575
-4.19416
-4.19284
-4.19177
-4.1909
-4.19038
-4.1901
-4.37289
-4.36701
-4.36167
-4.35682
-4.35242
-4.34842
-4.34481
-4.34154
-4.33859
-4.33596
-4.33362
-4.33158
-4.32982
-4.32834
-4.3271
-4.32609
-4.32528
-4.32479
-4.32454
-4.50353
-4.49809
-4.49315
-4.48867
-4.4846
-4.48091
-4.47756
-4.47453
-4.47181
-4.46937
-4.4672
-4.46531
-4.46368
-4.4623
-4.46114
-4.4602
-4.45945
-4.45901
-4.45879
-4.63371
-4.62876
-4.62426
-4.62018
-4.61647
-4.6131
-4.61004
-4.60728
-4.60479
-4.60255
-4.60057
-4.59883
-4.59734
-4.59606
-4.595
-4.59414
-4.59345
-4.59305
-4.59286
-4.76349
-4.75905
-4.75502
-4.75137
-4.74804
-4.74502
-4.74228
-4.73979
-4.73755
-4.73554
-4.73375
-4.73218
-4.73082
-4.72967
-4.7287
-4.72792
-4.7273
-4.72696
-4.72679
-4.8929
-4.88902
-4.88549
-4.88228
-4.87936
-4.8767
-4.87429
-4.87209
-4.87012
-4.86834
-4.86676
-4.86537
-4.86416
-4.86313
-4.86228
-4.86159
-4.86104
-4.86074
-4.8606
-5.02201
-5.01871
-5.0157
-5.01295
-5.01045
-5.00817
-5.0061
-5.00422
-5.00252
-5.00099
-4.99963
-4.99842
-4.99738
-4.99649
-4.99575
-4.99516
-4.99469
-4.99443
-4.99431
-5.15088
-5.14816
-5.14569
-5.14342
-5.14136
-5.13947
-5.13775
-5.13619
-5.13478
-5.13351
-5.13238
-5.13138
-5.13051
-5.12977
-5.12915
-5.12866
-5.12827
-5.12806
-5.12795
-5.27955
-5.27744
-5.2755
-5.27373
-5.27211
-5.27063
-5.26928
-5.26805
-5.26694
-5.26594
-5.26505
-5.26426
-5.26357
-5.26298
-5.2625
-5.26211
-5.26181
-5.26165
-5.26156
-5.40808
-5.40657
-5.40518
-5.40391
-5.40274
-5.40168
-5.4007
-5.39982
-5.39902
-5.3983
-5.39765
-5.39708
-5.39659
-5.39616
-5.39581
-5.39554
-5.39533
-5.39521
-5.39515
-5.53651
-5.53561
-5.53478
-5.53401
-5.5333
-5.53265
-5.53207
-5.53153
-5.53105
-5.53061
-5.53022
-5.52987
-5.52957
-5.52931
-5.5291
-5.52895
-5.52883
-5.52878
-5.52876
-5.6649
-5.6646
-5.66431
-5.66405
-5.6638
-5.66358
-5.66338
-5.6632
-5.66304
-5.66289
-5.66276
-5.66264
-5.66253
-5.66245
-5.66238
-5.66234
-5.66233
-5.66234
-5.66238
)
;

boundaryField
{
    leftWall
    {
        type            calculated;
        value           nonuniform List<scalar> 
50
(
4868.8
4070.45
3273.37
2476.75
1691.98
1145.78
959.325
900.316
805.953
666.068
550.113
483.558
421.86
339.233
264.026
203.465
160.311
113.775
49.4608
7.14411
-1.14258
-1.45732
-1.63465
-1.7887
-1.91812
-2.0283
-2.12913
-2.22426
-2.30355
-2.36829
-2.46861
-2.66079
-2.84378
-3.07131
-3.55253
-4.57142
-4.78166
-4.86925
-4.86926
-4.84739
-4.81263
-4.81027
-4.85501
-4.9393
-5.04895
-5.17148
-5.29839
-5.42504
-5.54968
-5.67282
)
;
    }
    rightWall
    {
        type            calculated;
        value           nonuniform List<scalar> 
50
(
2830.52
2053.41
1438.88
1014.42
773.525
693.667
639.528
582.877
487.6
348.572
225.724
130.15
52.9125
10.5918
-0.311125
-0.754118
-0.925752
-1.11127
-1.32388
-1.53147
-1.71327
-1.87084
-2.01271
-2.14855
-2.28331
-2.41871
-2.55528
-2.69278
-2.83043
-2.96774
-3.10485
-3.2418
-3.37843
-3.51446
-3.6501
-3.78546
-3.92058
-4.05545
-4.1901
-4.32454
-4.45879
-4.59286
-4.72679
-4.8606
-4.99431
-5.12795
-5.26156
-5.39515
-5.52876
-5.66238
)
;
    }
    lowerWall
    {
        type            calculated;
        value           nonuniform List<scalar> 
62
(
5266.95
5262.33
5259.3
5260.1
5270.64
5297.04
5343.58
5411.39
5498.34
5599.69
5709.25
5820.32
5926
6020.23
6099.27
6163.05
6215.54
6262.6
6309.39
6357.63
6404.85
6445.13
6470.6
6072.47
5277.46
4482.76
3688.45
2893.72
2095.93
1333.82
852.144
680.026
664.656
661.364
655.987
2376.15
1629.47
1100.84
896.937
828.829
781.211
730.366
673.255
2748.27
2760.54
2803.82
2831.27
2843.93
2833.18
2794.39
2744.35
2732.44
2743.44
2768.24
2792.25
2857.36
2999.56
3159.13
3306.55
3344.86
3272.61
3208.3
)
;
    }
    atmosphere
    {
        type            calculated;
        value           nonuniform List<scalar> 
46
(
-5.73427
-5.73455
-5.73583
-5.73689
-5.73773
-5.73531
-5.7374
-5.7441
-5.74436
-5.74251
-5.74002
-5.73729
-5.73475
-5.73269
-5.73119
-5.73015
-5.72947
-5.72911
-5.72904
-5.72904
-5.72904
-5.72904
-5.72904
-5.72904
-5.72904
-5.72904
-5.72904
-5.72904
-5.72904
-5.72904
-5.72904
-5.72904
-5.72904
-5.72904
-5.72904
-5.72904
-5.72904
-5.72904
-5.72904
-5.72904
-5.72904
-5.72904
-5.72904
-5.72904
-5.72904
-5.72904
)
;
    }
    defaultFaces
    {
        type            empty;
    }
}


// ************************************************************************* //
