/*--------------------------------*- C++ -*----------------------------------*\
| =========                 |                                                 |
| \\      /  F ield         | OpenFOAM: The Open Source CFD Toolbox           |
|  \\    /   O peration     | Version:  2312                                  |
|   \\  /    A nd           | Website:  www.openfoam.com                      |
|    \\/     M anipulation  |                                                 |
\*---------------------------------------------------------------------------*/
FoamFile
{
    version     2.0;
    format      ascii;
    arch        "LSB;label=32;scalar=64";
    class       volScalarField;
    location    "3.45";
    object      alpha.oil;
}
// * * * * * * * * * * * * * * * * * * * * * * * * * * * * * * * * * * * * * //

dimensions      [0 0 0 0 0 0 0];

internalField   nonuniform List<scalar> 
2268
(
7.40603e-10
6.99759e-10
1.1862e-09
1.19035e-09
1.84041e-09
2.07143e-09
1.0964e-09
7.91903e-10
6.83633e-10
4.83837e-10
3.13463e-10
2.07878e-10
1.65735e-10
1.67547e-10
2.1423e-10
3.17198e-10
5.60513e-10
9.69525e-10
1.03212e-09
1.04345e-09
2.26427e-05
5.2567e-05
5.2567e-05
1.08134e-09
6.99722e-10
1.55134e-08
1.28917e-08
3.34434e-08
7.12542e-08
6.36741e-08
2.536e-08
5.73223e-09
3.49231e-09
2.02917e-09
1.22565e-09
1.00214e-09
8.2064e-10
4.86494e-10
4.71135e-10
7.88554e-10
1.55992e-09
2.46387e-09
1.24245e-09
3.4374e-06
2.5615e-05
2.70646e-05
4.51203e-09
3.88599e-09
6.54378e-08
2.48343e-08
1.914e-07
5.09639e-07
5.3531e-07
2.38542e-07
8.83956e-10
8.74885e-10
1.22693e-09
1.89903e-09
4.05978e-09
1.45117e-08
1.69102e-08
9.61789e-09
2.70076e-09
1.57176e-09
2.49583e-09
2.00505e-09
2.42829e-08
1.98061e-14
3.20391e-09
7.77309e-08
5.88807e-08
5.10143e-08
1.56784e-08
2.05943e-09
5.8965e-13
-5.81724e-10
-2.26208e-10
1.42214e-08
2.49913e-09
1.98294e-09
1.90203e-09
1.00233e-08
1.68388e-08
2.72715e-08
1.78643e-08
6.28508e-09
1.54967e-09
4.31919e-10
2.49948e-10
8.68165e-10
4.49022e-23
-4.5968e-11
0.00298734
0.00274801
0.0012783
0.000362474
5.78737e-05
3.35763e-05
3.3505e-05
1.37026e-05
2.58779e-08
2.61328e-09
9.21275e-06
5.31667e-05
6.64592e-06
6.30589e-09
6.29856e-09
6.26075e-09
0.00120381
0.000928409
0.00179327
0.000342393
0.00228634
0.000994611
0.000952774
0.00723966
0.00723956
0.00723966
0.00340637
0.000284809
0.000178377
0.000426971
0.000400544
0.00017511
0.000237111
0.00126272
0.0015661
0.000920544
0.000136775
1.04059e-06
0.00385469
0.00728843
0.00408056
0.00184455
0.0191717
0.0208318
0.0108336
0.00350882
0.00551734
0.00670029
0.00590538
0.00321866
0.000344975
0.000165911
0.000560353
0.000561966
0.000516221
0.00123336
0.00268632
0.00118105
0.000488143
0.000468456
0.00428108
0.00396537
0.00407923
0.0161937
0.0538173
0.0476873
0.0173115
0.00859904
0.00705579
3.32035e-05
0.000180307
2.99852e-05
2.99865e-05
0.000132117
0.000140504
0.000362562
0.00053627
0.000639593
0.00196095
0.012707
0.0324856
0.0228976
0.00376523
0.0087393
0.0606493
0.0980705
0.103017
0.0926152
0.00281986
0.00138772
0.00128342
0.00709621
0.0269548
0.0269514
0.0269485
0.0269455
0.0269431
0.0269403
0.0269722
0.0269778
0.0269809
0.0282422
0.0296112
0.0304331
0.0319451
0.0349662
0.0368812
0.0361522
0.0344755
0.0344755
0.0344755
0.0271384
0.0282064
0.0278561
0.0269431
0.0269404
0.0269385
0.0275053
0.0281913
0.0307041
0.0561249
0.10458
0.125835
0.159341
0.177584
0.182303
0.169384
0.117189
0.0648951
0.0369738
0.0334298
0.269454
0.282568
0.217623
0.165692
0.160524
0.178579
0.263922
0.358332
0.479865
0.482815
0.468137
0.454723
0.477743
0.503375
0.503404
0.499343
0.481621
0.453175
0.253131
0.471002
0.470992
0.471002
0.455536
0.371031
0.225817
0.217795
0.4847
0.554453
0.446479
0.109287
0.0807384
0.104223
0.19819
0.303865
0.495664
0.515039
0.514772
0.449341
0.423491
0.262963
0.264342
0.25021
0.244194
0.228401
0.214268
0.481038
0.553701
0.294954
0.0511301
0.0499629
0.0494443
0.0494104
0.0567758
0.168937
0.446529
0.294728
0.444304
0.0275236
0.017225
0.034622
0.0897017
0.125153
0.152563
0.0565268
0.379922
0.555233
0.289951
0.0647092
0.0541675
0.0493911
0.0493843
0.0494147
0.0720316
0.108958
0.0857338
0.447191
0.0179793
0.0141142
0.0135631
0.0135567
0.015381
0.0156256
0.0139197
0.208988
0.554215
0.270173
0.0838288
0.0670478
0.0493447
0.0493834
0.049389
0.0495298
0.0564127
0.058112
0.395744
0.0210182
0.0152838
0.0134123
0.0134393
0.0134381
0.01378
0.0138189
0.0139364
0.289086
0.332405
0.319682
0.0977595
0.049353
0.049345
0.0493687
0.0830482
0.174698
0.255025
3.3088e-05
3.29482e-05
3.28539e-05
2.97936e-05
6.33774e-05
0.000102617
9.39862e-05
0.000124981
0.000279133
0.0179309
0.0491553
0.0491666
0.0237124
0.0168031
0.110249
0.136948
0.137052
0.101714
0.00113476
0.000686621
0.000615636
0.000614491
0.00773717
3.32128e-05
3.42992e-05
3.14312e-05
-1.55868e-13
-3.29055e-13
-8.15569e-16
3.26813e-24
2.07945e-06
0.000308758
0.00198171
0.0362789
0.0491596
0.0491598
0.024837
0.0176745
0.0322447
0.0156715
0.005963
0.00314194
0.00388507
0.0116138
0.0332328
0.256532
0.00903623
5.71801e-07
2.35073e-09
-1.20759e-22
-1.31216e-11
-4.7446e-14
4.04844e-25
0.000159917
0.00041272
0.0005053
0.00613055
0.0258384
0.0303914
0.00902791
0.00257497
0.00236465
0.00237431
0.00236346
0.110801
0.484311
0.663161
0.653281
0.389929
0.277302
0.214215
0.0909929
0.0255498
-1.3303e-10
-9.22723e-09
-5.99219e-08
-2.47479e-07
-2.1124e-14
1.50126e-05
0.000778111
0.00222686
0.00241634
0.00111876
0.00112959
0.00712532
0.294219
0.675348
0.874029
0.963336
0.98017
0.97602
0.985108
0.820567
0.678973
0.522815
0.392052
0.300771
0.214322
0.13642
0.0627589
0.00945784
1.84153e-08
1.38589e-13
9.77855e-09
-2.22688e-11
5.48948e-05
0.0350812
0.524276
0.935743
0.99444
0.995164
0.998445
0.998859
0.99886
0.998793
0.932958
0.976821
0.978316
0.950266
0.888257
0.831181
0.814129
0.815643
0.743144
0.540477
0.35362
0.272197
0.26705
0.474043
0.809021
0.908006
0.921601
0.992771
0.99879
0.99881
0.998832
0.997207
0.98833
0.943373
0.997751
0.998866
0.998674
0.992194
0.987869
0.996145
0.999432
0.99845
0.992786
0.98066
0.958728
0.929835
0.917573
0.932005
0.968866
0.977089
0.987395
0.998482
0.998428
0.994096
0.9427
0.842929
0.982574
0.998198
0.999493
0.999494
0.999494
0.999494
0.999494
0.999428
0.999327
0.996439
0.985518
0.977392
0.974398
0.976622
0.980175
0.980828
0.973671
0.943623
0.871733
0.746052
0.520563
0.280223
0.122323
0.995784
0.999222
0.999494
0.99947
0.999179
0.907009
0.761761
0.627204
0.507389
0.415778
0.3677
0.348073
0.360196
0.391707
0.407398
0.404296
0.343162
0.234737
0.125004
0.032701
1.89578e-13
1.67612e-13
2.95587e-13
0.993905
0.997909
0.999447
0.900045
0.501024
0.169661
0.0610815
0.0170106
0.00182866
-2.16674e-10
-2.45645e-10
9.7316e-25
-5.67022e-09
-4.58378e-09
-4.33196e-10
1.078e-23
1.21357e-24
7.96807e-23
1.85608e-13
4.13147e-12
2.8032e-07
7.57552e-07
8.14405e-07
0.984381
0.969581
0.922993
0.438614
0.0224571
-2.94865e-19
3.7044e-20
2.61614e-20
-5.56537e-11
-1.65335e-19
1.57642e-07
8.55151e-07
1.81288e-08
5.3185e-12
7.03724e-08
2.91866e-06
5.08278e-06
5.8841e-06
6.22835e-06
2.70099e-06
1.10541e-06
2.58016e-06
3.95506e-06
0.982612
0.930075
0.415848
0.00665605
2.96831e-05
1.07643e-10
4.73833e-12
1.63701e-08
2.65278e-08
1.6997e-08
1.7223e-08
9.00379e-08
1.02484e-08
8.27585e-09
3.19861e-09
1.28377e-06
2.86903e-06
6.93399e-06
1.25521e-05
1.16485e-05
6.18952e-06
2.49846e-06
4.62944e-06
0.808123
0.377132
0.00841576
3.20351e-07
1.76439e-07
1.60196e-07
1.06766e-07
2.78635e-08
2.18614e-08
1.7223e-08
4.96131e-07
1.00407e-06
1.34767e-06
7.86524e-07
1.83051e-08
1.72734e-08
4.1707e-08
8.90264e-07
1.37049e-05
1.86545e-05
1.65405e-05
2.34515e-06
2.06692e-06
0.0594184
0.00308131
1.41876e-06
1.84585e-06
1.47991e-06
5.88113e-07
3.23306e-07
6.41845e-08
4.69094e-07
3.20816e-06
1.63161e-05
7.37686e-06
1.7565e-06
8.73377e-07
2.84392e-07
2.80335e-07
2.87338e-06
4.52936e-06
4.96345e-06
1.79748e-05
6.86466e-06
9.8558e-09
8.45421e-07
2.02888e-08
2.02479e-08
1.38691e-06
1.91684e-06
1.09195e-06
5.07697e-07
4.34739e-07
8.11186e-07
1.7059e-05
2.55738e-05
2.2569e-05
1.47531e-05
8.81629e-06
2.25379e-06
7.0645e-07
1.32915e-05
2.44449e-05
2.45053e-05
2.43244e-05
8.09165e-06
1.1027e-06
9.79719e-09
4.1286e-07
2.02728e-08
7.4115e-08
4.90967e-07
6.60875e-07
5.7535e-07
4.21513e-06
4.65665e-06
3.21155e-06
7.61752e-06
6.98457e-05
7.34525e-05
7.35282e-05
7.3453e-05
7.35282e-05
5.13893e-05
3.53144e-05
5.43012e-06
4.27674e-06
7.59295e-06
9.35157e-06
4.8083e-06
9.85453e-09
1.05113e-08
2.05435e-08
2.81241e-08
1.49098e-07
2.15649e-08
3.39995e-06
7.43866e-06
5.25872e-06
3.33504e-06
2.90838e-05
7.2979e-05
7.34199e-05
4.4286e-05
2.5882e-05
1.95827e-05
1.19259e-05
4.81114e-06
2.04687e-06
8.26005e-08
6.9918e-08
3.34065e-08
1.63217e-08
1.00072e-08
5.39781e-08
1.99325e-08
7.27201e-09
7.15826e-09
7.22049e-09
2.28564e-06
3.82535e-06
7.3854e-07
4.17005e-06
1.86115e-05
1.57587e-05
5.52793e-06
3.01505e-07
6.38973e-08
8.44203e-09
8.41832e-09
8.7874e-09
1.02428e-08
1.03477e-08
1.00645e-08
1.05942e-08
9.94447e-09
8.25215e-09
6.4725e-08
2.04129e-08
5.87559e-09
8.54748e-09
5.15896e-08
5.15357e-08
2.9495e-08
3.97704e-07
2.242e-06
1.39583e-07
1.91117e-08
5.23434e-08
1.50402e-08
1.31001e-08
1.12199e-08
1.08016e-08
1.18611e-08
1.13996e-08
9.7e-09
8.95276e-09
9.16458e-09
8.96096e-09
6.91024e-09
5.31602e-09
2.11216e-08
4.78218e-09
8.20395e-09
3.06552e-08
2.19275e-08
2.91022e-08
2.09188e-07
2.515e-08
2.24623e-08
1.90145e-08
1.36208e-08
1.10608e-08
1.08601e-08
8.89567e-09
6.80569e-09
5.5051e-09
5.38682e-09
5.44244e-09
5.64095e-09
5.31533e-09
5.1114e-09
4.89105e-09
5.21933e-09
2.18802e-08
3.62943e-09
6.62544e-09
1.74066e-08
2.83603e-08
4.8391e-08
8.01744e-08
4.09267e-08
4.4627e-08
2.94255e-08
1.53803e-08
8.90769e-09
6.53921e-09
5.1003e-09
4.05706e-09
3.27752e-09
2.85144e-09
2.84951e-09
3.01126e-09
3.31235e-09
3.52427e-09
3.98527e-09
4.65902e-09
2.21563e-08
2.74924e-09
4.7827e-09
1.11426e-08
2.22895e-08
3.81685e-08
4.27082e-08
4.06541e-08
3.23502e-08
1.72048e-08
8.29972e-09
4.96619e-09
3.709e-09
2.96127e-09
2.38727e-09
1.95645e-09
1.71603e-09
1.63956e-09
1.72735e-09
1.98115e-09
2.22644e-09
2.73142e-09
3.29468e-09
2.21683e-08
2.2204e-09
3.21387e-09
6.46598e-09
1.19162e-08
1.89041e-08
2.00041e-08
1.77769e-08
1.15376e-08
5.64106e-09
2.93794e-09
2.04532e-09
1.61438e-09
1.28914e-09
1.05692e-09
9.25378e-10
8.78727e-10
9.18028e-10
1.03266e-09
1.24473e-09
1.51772e-09
1.7818e-09
2.26707e-09
1.04282e-08
2.05536e-09
2.30371e-09
3.50818e-09
5.06705e-09
6.49121e-09
6.12273e-09
4.77601e-09
2.85777e-09
1.47528e-09
9.19579e-10
6.83554e-10
5.44267e-10
4.54238e-10
4.10286e-10
4.03701e-10
4.29147e-10
4.80413e-10
5.69248e-10
7.26167e-10
8.96016e-10
1.10145e-09
1.40972e-09
3.0864e-09
2.28808e-09
2.02681e-09
2.27336e-09
2.37721e-09
2.29772e-09
1.84034e-09
1.33643e-09
8.5115e-10
5.33028e-10
3.66495e-10
2.64735e-10
2.02606e-10
1.69782e-10
1.61778e-10
1.71718e-10
1.95356e-10
2.32262e-10
2.88401e-10
3.8526e-10
5.14668e-10
6.5083e-10
8.47651e-10
2.80095e-09
2.66231e-09
2.19306e-09
2.07524e-09
1.77029e-09
1.46526e-09
1.13662e-09
8.61879e-10
6.29465e-10
4.58991e-10
3.28947e-10
2.2292e-10
1.46177e-10
9.81957e-11
7.55221e-11
7.16059e-11
8.09735e-11
1.00168e-10
1.3195e-10
1.91615e-10
2.4085e-10
3.50991e-10
4.72686e-10
3.30813e-09
3.06813e-09
2.66241e-09
2.26999e-09
1.8385e-09
1.50181e-09
1.21196e-09
9.6837e-10
7.72518e-10
6.20651e-10
4.79233e-10
3.27526e-10
2.00133e-10
1.10206e-10
5.86148e-11
3.61747e-11
3.22143e-11
3.86305e-11
5.31644e-11
8.24289e-11
1.23669e-10
1.73413e-10
2.71552e-10
3.77904e-09
3.35993e-09
2.81751e-09
2.15998e-09
1.60616e-09
1.44792e-09
1.34605e-09
1.03055e-09
8.80577e-10
7.8229e-10
6.63257e-10
4.81801e-10
3.0386e-10
1.6445e-10
7.64566e-11
3.23844e-11
1.6564e-11
1.46583e-11
2.01438e-11
3.4152e-11
5.10034e-11
8.87141e-11
1.41591e-10
4.32351e-09
3.6359e-09
2.81862e-09
1.33225e-09
9.45455e-10
8.78345e-10
8.41079e-10
7.52886e-10
7.69945e-10
8.15313e-10
7.98023e-10
6.30211e-10
4.23856e-10
2.41419e-10
1.13251e-10
4.43461e-11
1.54698e-11
7.20229e-12
7.53318e-12
1.32701e-11
2.43188e-11
4.3953e-11
7.86572e-11
4.71842e-09
4.0701e-09
5.33002e-09
1.23733e-08
8.69984e-09
3.74334e-09
5.5289e-10
5.35662e-10
5.77468e-10
7.6192e-10
8.71682e-10
7.37737e-10
5.25397e-10
3.17786e-10
1.57381e-10
6.34228e-11
2.06453e-11
6.43229e-12
3.56257e-12
5.64843e-12
1.07417e-11
2.46434e-11
4.63092e-11
5.2425e-09
6.20029e-09
1.65306e-08
1.08066e-07
5.33769e-07
5.30684e-07
1.11473e-07
5.31483e-10
5.52884e-10
6.95778e-10
9.09089e-10
8.00637e-10
5.88261e-10
3.75063e-10
1.98963e-10
8.48163e-11
2.84599e-11
7.96301e-12
2.53831e-12
2.71105e-12
6.01173e-12
1.38928e-11
2.93463e-11
5.45362e-09
1.4074e-08
6.60253e-08
3.3385e-07
8.59119e-07
8.60101e-07
4.4619e-07
5.45968e-10
7.14192e-10
6.93068e-10
9.30913e-10
8.29479e-10
6.07553e-10
3.98137e-10
2.23568e-10
1.01883e-10
3.64842e-11
1.01977e-11
2.58123e-12
1.41914e-12
2.77447e-12
8.23649e-12
1.85135e-11
5.59068e-09
2.36405e-08
1.671e-07
8.18337e-07
8.60101e-07
8.60098e-07
5.55149e-08
5.446e-10
1.16933e-09
7.07578e-10
9.26925e-10
8.30161e-10
5.92149e-10
3.86686e-10
2.20473e-10
1.06226e-10
4.09934e-11
1.22419e-11
2.91023e-12
9.6705e-13
1.53471e-12
4.50847e-12
1.1367e-11
5.94807e-09
2.53394e-08
2.25612e-07
8.6003e-07
8.601e-07
6.22434e-07
9.61856e-09
4.46889e-09
1.61389e-09
7.31717e-10
8.47957e-10
7.83449e-10
5.46249e-10
3.37575e-10
1.90402e-10
9.42308e-11
3.95122e-11
1.28322e-11
3.21501e-12
7.30473e-13
6.70469e-13
2.34737e-12
6.31804e-12
5.99399e-09
1.8959e-08
2.12099e-07
8.15153e-07
7.68408e-07
2.03975e-07
6.12854e-08
2.62976e-08
2.53685e-09
8.18402e-10
7.1353e-10
6.74128e-10
4.62671e-10
2.74027e-10
1.48749e-10
7.30128e-11
3.17578e-11
1.13621e-11
3.03536e-12
6.61885e-13
3.49891e-13
9.89521e-13
3.22812e-12
6.54659e-09
1.37753e-08
1.09926e-07
1.96494e-07
1.62757e-07
8.10228e-08
8.49788e-08
4.24021e-08
4.21935e-09
1.04268e-09
6.15844e-10
5.38232e-10
3.63607e-10
2.04467e-10
1.00922e-10
4.73477e-11
2.09193e-11
8.08197e-12
2.44694e-12
5.42734e-13
1.8175e-13
4.43052e-13
1.43929e-12
7.59247e-09
1.14992e-08
1.52857e-08
2.38401e-08
2.76423e-08
1.61696e-07
1.78856e-07
5.31827e-08
4.74822e-09
1.12817e-09
4.93742e-10
3.80441e-10
2.49632e-10
1.31639e-10
5.90059e-11
2.5241e-11
1.09721e-11
4.44913e-12
1.52031e-12
3.81607e-13
9.27149e-14
1.27565e-13
6.23235e-13
2.74503e-08
1.13975e-08
1.11813e-08
1.85432e-08
1.17842e-07
1.95648e-07
1.70051e-07
3.41489e-08
3.89299e-09
1.17747e-09
3.40403e-10
2.27536e-10
1.51431e-10
7.47463e-11
2.94913e-11
1.10333e-11
4.34781e-12
1.78903e-12
6.84277e-13
2.0815e-13
4.93348e-14
4.92945e-14
2.00387e-13
2.9207e-08
1.11929e-08
1.11786e-08
8.45138e-08
1.66638e-07
1.7218e-07
4.93021e-08
4.38983e-09
1.75143e-09
5.00442e-10
1.57144e-10
1.12821e-10
7.51311e-11
3.51553e-11
1.24371e-11
3.92757e-12
1.30602e-12
4.82905e-13
2.06394e-13
8.26765e-14
2.34028e-14
1.36071e-14
5.95396e-14
2.2812e-08
1.1894e-08
5.37736e-08
1.30319e-07
1.49204e-07
5.89441e-08
5.38646e-09
9.41108e-10
2.3711e-10
9.92557e-11
4.49281e-11
4.15171e-11
2.93807e-11
1.35779e-11
4.51681e-12
1.1628e-12
2.90357e-13
8.60025e-14
3.74517e-14
2.28665e-14
7.53391e-15
4.25386e-15
1.62294e-14
1.22605e-08
1.2096e-08
8.71185e-08
1.31115e-07
6.45879e-08
1.19123e-08
1.69783e-09
2.02319e-10
6.04811e-11
2.30711e-11
9.5447e-12
1.00559e-11
7.84872e-12
3.73595e-12
1.15402e-12
2.50296e-13
4.40366e-14
8.70424e-15
4.03923e-15
3.96319e-15
1.90187e-15
1.15772e-15
4.15169e-15
1.17879e-07
1.34061e-07
1.31038e-07
5.77836e-08
1.45533e-08
2.15786e-09
2.5061e-10
1.80211e-11
1.1247e-11
2.45822e-12
7.12397e-13
1.21951e-12
1.08908e-12
5.33745e-13
1.56923e-13
2.81e-14
3.41623e-15
4.4812e-16
2.60685e-16
4.488e-16
4.40821e-16
3.09585e-16
9.96611e-16
0.395178
0.457233
0.458883
0.449904
0.457754
0.457873
0.458949
0.436939
0.285511
0.286315
0.305393
0.311833
0.991772
0.978034
0.961134
0.96098
0.998764
0.998548
0.997241
0.997302
0.993973
0.992606
0.987097
0.983106
0.72701
0.604522
0.492267
0.433198
0.0407072
0.00240593
2.6822e-20
1.96708e-20
2.75954e-13
1.09449e-08
2.94462e-08
6.29929e-10
3.40144e-07
3.36796e-07
3.09489e-07
2.24486e-07
3.91169e-06
3.11981e-06
7.64186e-07
5.9044e-07
1.48406e-05
2.02753e-05
1.25544e-05
3.17029e-06
3.31608e-06
3.61917e-06
5.59223e-05
6.34732e-05
4.32496e-05
6.34706e-05
6.34734e-05
6.34738e-05
3.71192e-05
6.32184e-05
6.34165e-05
5.85248e-05
6.26569e-08
9.2714e-08
1.48912e-07
1.48622e-07
1.65894e-07
3.50596e-07
3.80709e-07
3.26401e-07
2.62868e-07
2.56124e-07
2.71272e-07
1.43801e-07
1.49993e-08
2.48129e-08
5.65229e-08
7.98116e-08
5.30355e-09
5.28254e-09
4.45539e-08
8.00334e-08
5.64429e-09
1.11217e-08
1.74637e-08
1.52843e-08
4.22485e-09
3.79404e-09
4.50707e-09
5.5378e-09
2.52524e-09
2.85544e-09
3.7831e-09
3.78758e-09
1.70841e-09
1.75361e-09
2.09846e-09
2.46589e-09
1.05536e-09
1.15698e-09
1.29227e-09
1.4228e-09
6.38494e-10
6.88002e-10
8.00624e-10
9.04196e-10
3.52986e-10
4.15454e-10
4.86313e-10
5.44423e-10
2.12163e-10
2.47812e-10
3.00081e-10
3.37792e-10
1.20219e-10
1.57858e-10
1.93694e-10
2.32148e-10
8.12763e-11
1.04403e-10
1.35237e-10
1.59525e-10
5.30269e-11
7.23244e-11
9.58487e-11
1.20387e-10
3.61003e-11
5.10433e-11
6.8491e-11
8.57556e-11
2.17995e-11
3.35111e-11
4.61565e-11
6.14782e-11
1.43723e-11
2.03469e-11
2.93729e-11
4.02197e-11
7.0437e-12
1.0829e-11
1.66393e-11
2.30168e-11
3.8136e-12
5.76302e-12
8.72164e-12
1.30872e-11
1.49002e-12
2.59431e-12
4.35882e-12
6.03316e-12
6.57534e-13
1.03973e-12
1.6639e-12
2.67819e-12
1.87715e-13
3.37833e-13
6.06549e-13
9.04154e-13
5.61157e-14
9.86455e-14
1.70717e-13
3.1133e-13
1.45016e-14
2.71107e-14
5.22942e-14
8.71943e-14
3.7099e-15
7.07721e-15
1.34675e-14
2.1517e-14
0.0952203
0.0267989
0.0364971
0.224617
0.266766
0.181651
0.0835292
0.0250845
0.175952
0.284828
0.377669
0.133465
0.0734563
0.109491
0.459679
0.775797
0.925657
0.927564
0.956569
0.267848
0.216995
0.552693
0.87923
0.915993
0.839142
0.604404
0.344291
0.661114
0.776159
0.510063
0.262369
0.40356
0.781697
0.957915
0.99083
0.990897
0.990898
0.990897
0.391785
0.680049
0.956288
0.992353
0.990982
0.977674
0.744732
0.466103
0.780276
0.920002
0.913683
0.826851
0.868206
0.933627
0.989908
0.977539
0.983484
0.990687
0.990898
0.961776
0.969325
0.998994
0.998994
0.998994
0.992095
0.780562
0.404425
0.364116
0.36427
0.675677
0.971883
0.970491
0.993279
0.989851
0.958153
0.918345
0.984369
0.988945
0.998873
0.998994
0.998994
0.998994
0.998994
0.998993
0.994546
0.94651
0.743009
0.640064
0.646031
0.957324
0.995412
0.997303
0.996855
0.977009
0.769792
0.985637
0.989865
0.984064
0.994064
0.998878
0.998654
0.998994
0.998911
0.99891
0.998809
0.995429
0.995613
0.955711
0.948081
0.987439
0.997303
0.997303
0.997303
0.736112
0.977474
0.989865
0.421755
0.481397
0.60403
0.613475
0.612685
0.606293
0.619758
0.625142
0.669274
0.734762
0.842181
0.923913
0.979416
0.995693
0.997201
0.98636
0.725545
0.879617
0.989865
3.6453e-20
-2.05536e-12
1.3935e-26
-3.66441e-16
-1.09422e-11
-7.17454e-10
-3.01286e-11
1.23039e-21
-2.99637e-07
0.0175503
0.0804851
0.180583
0.275495
0.389574
0.536383
0.645477
0.328724
0.429846
0.742512
3.10446e-09
-3.05993e-16
1.12981e-09
-8.41935e-14
-1.42594e-10
6.53567e-10
1.81276e-08
1.7642e-07
9.90065e-07
-4.84637e-10
-5.78542e-09
-9.81695e-10
-5.78461e-19
0.00400395
0.0403508
0.0407081
0.000877994
0.00307846
0.0155459
1.99241e-07
1.7597e-07
1.33232e-07
1.2886e-08
4.5355e-08
3.99001e-08
-9.90151e-10
1.08966e-06
7.731e-05
0.000117643
2.38227e-05
9.81695e-10
-4.00729e-13
-1.88669e-21
1.225e-07
7.98142e-10
-1.81439e-08
-2.84855e-11
-5.28557e-28
4.49067e-07
8.42729e-07
1.74429e-06
4.57613e-07
5.47917e-12
-2.19941e-10
-5.69663e-12
2.09726e-11
7.10189e-05
0.00014475
0.00014558
0.000120947
1.20944e-05
3.87418e-06
4.38481e-05
3.15175e-05
2.00454e-06
-3.8716e-24
2.20246e-09
3.76962e-07
5.81256e-07
3.28038e-06
4.54332e-06
2.72156e-06
7.9888e-07
1.67012e-09
5.36191e-08
2.06391e-07
1.79277e-06
5.1744e-05
0.000166056
0.000193512
0.000195417
0.000210651
0.000120393
2.84965e-07
7.99837e-10
3.50937e-09
4.20306e-05
1.54563e-05
3.74677e-06
4.67424e-06
5.28094e-06
8.86412e-06
1.00272e-05
7.12051e-06
2.8249e-06
1.48008e-06
8.99749e-07
1.54446e-06
3.3317e-05
0.000149139
0.000216921
7.48683e-05
3.04986e-09
3.07654e-09
1.36659e-08
6.34732e-05
4.50722e-05
1.93447e-05
1.19572e-05
1.22602e-05
9.01179e-06
9.99618e-06
1.66398e-05
1.66821e-05
8.21244e-06
1.76771e-06
2.63831e-06
2.62746e-06
2.48847e-05
0.000214237
3.30476e-06
1.08619e-07
6.40067e-07
1.0401e-06
5.37036e-06
1.89502e-06
4.37381e-07
2.24761e-05
3.32284e-05
3.69954e-05
8.09861e-06
4.6795e-06
1.91877e-05
2.82098e-05
9.61517e-06
7.11841e-06
6.86697e-05
0.000265874
9.61568e-05
7.40527e-07
5.70165e-06
4.07255e-05
3.72838e-05
6.38798e-08
7.63297e-08
9.79749e-08
3.60645e-05
3.98292e-05
3.98954e-05
9.71423e-06
3.7507e-06
1.1035e-05
2.8184e-05
1.15394e-05
1.02532e-06
0.000195659
0.00028562
0.000139145
2.06218e-06
9.30758e-05
0.000237933
0.000237913
4.25661e-07
4.04994e-07
2.3897e-06
2.3335e-05
2.9127e-05
1.42264e-05
3.38587e-06
2.79494e-06
1.27139e-05
2.39728e-05
1.03822e-05
1.02379e-06
0.000165716
0.000285621
0.000230628
7.2417e-06
0.000164191
0.00023793
0.000237933
8.49168e-07
1.264e-06
1.27173e-06
4.73097e-06
1.57375e-05
2.12614e-05
2.10839e-05
2.10738e-05
2.10461e-05
1.27991e-05
1.9163e-06
8.22793e-07
6.07087e-05
0.00028562
0.000234027
6.60463e-06
0.000102384
0.000237933
0.000237905
1.08382e-06
2.4919e-06
2.5695e-06
3.62788e-06
7.17834e-06
1.03696e-05
1.05769e-05
9.55195e-06
6.24115e-06
3.30069e-06
1.58922e-06
7.26342e-07
2.74844e-08
0.000259036
0.000176403
2.37917e-06
3.81092e-06
8.34673e-05
0.000236641
8.89029e-09
9.14923e-09
9.66497e-09
9.9506e-09
1.0641e-07
2.68628e-07
4.07397e-07
6.78422e-07
6.7913e-07
9.10794e-07
8.48722e-07
3.30464e-07
2.41951e-08
6.76591e-05
2.99184e-05
1.91057e-06
5.16353e-05
3.04804e-05
7.3082e-05
8.55534e-09
9.29998e-09
1.21604e-08
2.00603e-08
5.86223e-08
2.34781e-07
3.98751e-07
4.51028e-07
3.90096e-07
3.89986e-07
2.96859e-07
1.07032e-07
3.13047e-08
7.19419e-07
3.07683e-08
3.24625e-06
5.38394e-05
3.08706e-05
5.5802e-05
7.32821e-09
8.58734e-09
1.20589e-08
2.70837e-08
7.23765e-08
1.5554e-07
2.77083e-07
2.83534e-07
2.29235e-07
1.62026e-07
9.06484e-08
4.41019e-08
2.91853e-08
2.48051e-07
3.1513e-08
3.06848e-08
1.86813e-05
4.58052e-05
0.000163162
4.5552e-09
5.45269e-09
7.37667e-09
1.34978e-08
2.99837e-08
6.7713e-08
1.29838e-07
1.48474e-07
1.08911e-07
6.33861e-08
3.4787e-08
2.54707e-08
2.47138e-08
7.36357e-08
3.29535e-08
2.28611e-07
2.44034e-07
4.53762e-05
0.000163029
2.50581e-09
3.05853e-09
3.45803e-09
3.919e-09
4.29086e-09
5.82904e-09
7.72263e-09
1.34019e-08
1.7551e-08
1.62173e-08
1.36348e-08
1.61671e-08
1.5289e-08
2.94733e-08
2.98507e-08
5.97306e-07
4.74094e-07
8.80008e-06
5.86922e-05
1.59417e-09
1.82875e-09
2.05223e-09
2.14986e-09
2.04112e-09
2.0936e-09
2.21971e-09
3.16457e-09
4.809e-09
6.23029e-09
7.45341e-09
1.16161e-08
1.08824e-08
8.35319e-09
1.83973e-08
6.6585e-07
3.65724e-07
7.49986e-27
3.96094e-25
9.50107e-10
1.14653e-09
1.32231e-09
1.50311e-09
1.74227e-09
2.13129e-09
2.73505e-09
3.45049e-09
4.27072e-09
5.09362e-09
5.904e-09
8.09921e-09
1.00184e-08
3.25181e-09
4.51573e-09
1.49346e-07
7.0733e-08
2.42907e-10
5.93453e-08
6.17851e-10
7.61525e-10
9.18499e-10
1.11047e-09
1.36047e-09
1.71381e-09
2.23684e-09
2.91652e-09
3.7249e-09
4.55471e-09
5.455e-09
6.8363e-09
7.24833e-09
2.07174e-08
1.10174e-07
8.67901e-07
3.00089e-07
1.09971e-07
2.88191e-07
3.96946e-10
5.2327e-10
6.67713e-10
8.51222e-10
1.08939e-09
1.40626e-09
1.85934e-09
2.46503e-09
3.20418e-09
4.04608e-09
5.11782e-09
7.0148e-09
6.73585e-09
2.27935e-07
1.06424e-06
1.14323e-06
9.93565e-07
1.08259e-07
4.1044e-06
2.77374e-10
3.84605e-10
5.21327e-10
6.92843e-10
9.09103e-10
1.19768e-09
1.60093e-09
2.14878e-09
2.83906e-09
3.66124e-09
4.61791e-09
6.60026e-09
2.1958e-08
1.34138e-07
4.68334e-07
6.46351e-07
4.37454e-07
2.14032e-07
4.62183e-06
2.02798e-10
2.97593e-10
4.21692e-10
5.80436e-10
7.89424e-10
1.06314e-09
1.43148e-09
1.99114e-09
2.76056e-09
3.64004e-09
4.52812e-09
5.55629e-09
1.57113e-08
9.77507e-08
5.9014e-07
2.59242e-07
1.42949e-07
6.89049e-08
2.86606e-06
1.48299e-10
2.35051e-10
3.43898e-10
4.83905e-10
6.66989e-10
9.24506e-10
1.30743e-09
1.91015e-09
2.85263e-09
4.12475e-09
5.34779e-09
5.74097e-09
8.66497e-09
1.10284e-07
3.35259e-06
6.29259e-06
3.797e-07
6.94379e-08
6.99175e-08
1.15905e-10
1.81052e-10
2.6694e-10
3.83656e-10
5.44388e-10
7.76162e-10
1.13653e-09
1.76447e-09
2.88714e-09
4.75264e-09
7.18255e-09
8.28628e-09
8.30056e-09
1.40914e-07
4.6525e-06
7.17823e-06
6.25946e-06
5.85192e-08
3.15764e-07
8.00084e-11
1.2843e-10
1.95566e-10
2.87925e-10
4.1467e-10
6.0286e-10
9.14483e-10
1.49927e-09
2.66896e-09
5.06452e-09
9.57563e-09
1.50537e-08
1.31812e-08
3.7604e-08
2.32415e-06
7.24066e-06
7.08681e-06
5.28669e-06
4.32162e-06
5.32404e-11
8.78846e-11
1.34563e-10
1.99677e-10
2.91453e-10
4.31088e-10
6.74274e-10
1.14834e-09
2.1495e-09
4.48811e-09
1.09385e-08
2.64903e-08
4.40975e-08
4.1574e-08
1.60961e-07
4.27327e-06
7.22063e-06
6.75738e-06
2.50313e-06
3.30188e-11
5.40051e-11
8.44376e-11
1.26836e-10
1.88058e-10
2.84439e-10
4.55014e-10
7.83873e-10
1.47699e-09
3.19615e-09
8.67005e-09
3.18626e-08
9.21028e-08
1.20151e-07
8.73204e-08
3.07814e-07
3.22099e-06
2.7105e-06
7.54502e-08
1.75872e-11
3.01462e-11
4.79308e-11
7.32624e-11
1.10732e-10
1.71876e-10
2.82632e-10
4.97526e-10
9.37819e-10
1.90755e-09
4.83353e-09
1.98721e-08
8.673e-08
1.72941e-07
1.4397e-07
3.24222e-08
2.61781e-08
2.60051e-08
4.21418e-08
8.58562e-12
1.50301e-11
2.44735e-11
3.82005e-11
5.95824e-11
9.55287e-11
1.61958e-10
2.95933e-10
5.75153e-10
1.16006e-09
2.54408e-09
7.75593e-09
3.62217e-08
1.47968e-07
2.01682e-07
1.07552e-07
2.62147e-08
2.95851e-08
1.08357e-07
3.65058e-12
6.67379e-12
1.11477e-11
1.80087e-11
2.91967e-11
4.85211e-11
8.53283e-11
1.62121e-10
3.25939e-10
6.72209e-10
1.3991e-09
3.22989e-09
1.18303e-08
5.82426e-08
2.00121e-07
2.20778e-07
8.00863e-08
3.60364e-08
2.26685e-07
1.41977e-12
2.58758e-12
4.47598e-12
7.57305e-12
1.28149e-11
2.23072e-11
4.08695e-11
8.02186e-11
1.68915e-10
3.72515e-10
7.90976e-10
1.62234e-09
3.81482e-09
1.55146e-08
1.08304e-07
2.45581e-07
2.16474e-07
1.84982e-07
2.26685e-07
4.54731e-13
8.62855e-13
1.55842e-12
2.79293e-12
5.06597e-12
9.39612e-12
1.80846e-11
3.70185e-11
8.21749e-11
1.89927e-10
4.39155e-10
9.91533e-10
2.2531e-09
6.33545e-09
3.24595e-08
1.63035e-07
2.45205e-07
2.37712e-07
1.15547e-07
1.25303e-13
2.47331e-13
4.6513e-13
8.83793e-13
1.72322e-12
3.40912e-12
6.82186e-12
1.44703e-11
3.28726e-11
7.90711e-11
1.9417e-10
4.63141e-10
1.0753e-09
2.64676e-09
1.02165e-08
5.67123e-08
1.95893e-07
2.25285e-07
1.76904e-08
3.06317e-14
6.02066e-14
1.15959e-13
2.27777e-13
4.56361e-13
9.09388e-13
1.89959e-12
4.03987e-12
8.84776e-12
2.12106e-11
5.31489e-11
1.35725e-10
3.30345e-10
7.53097e-10
1.8083e-09
7.31377e-09
3.59116e-08
5.57121e-08
4.33677e-09
)
;

boundaryField
{
    leftWall
    {
        type            zeroGradient;
    }
    rightWall
    {
        type            zeroGradient;
    }
    lowerWall
    {
        type            zeroGradient;
    }
    atmosphere
    {
        type            inletOutlet;
        inletValue      uniform 0;
        value           nonuniform List<scalar> 
46
(
1.17879e-07
1.34061e-07
1.31038e-07
5.77836e-08
1.45533e-08
2.15786e-09
2.5061e-10
0
0
0
0
0
0
0
0
0
0
0
0
0
0
3.09584e-16
9.96611e-16
3.7099e-15
7.0772e-15
0
0
0
0
0
0
0
0
0
0
0
0
0
0
0
0
1.8083e-09
7.31377e-09
3.59116e-08
5.57121e-08
4.33677e-09
)
;
    }
    defaultFaces
    {
        type            empty;
    }
}


// ************************************************************************* //
