/*--------------------------------*- C++ -*----------------------------------*\
| =========                 |                                                 |
| \\      /  F ield         | OpenFOAM: The Open Source CFD Toolbox           |
|  \\    /   O peration     | Version:  2312                                  |
|   \\  /    A nd           | Website:  www.openfoam.com                      |
|    \\/     M anipulation  |                                                 |
\*---------------------------------------------------------------------------*/
FoamFile
{
    version     2.0;
    format      ascii;
    arch        "LSB;label=32;scalar=64";
    class       volScalarField;
    location    "3.45";
    object      alpha.air;
}
// * * * * * * * * * * * * * * * * * * * * * * * * * * * * * * * * * * * * * //

dimensions      [0 0 0 0 0 0 0];

internalField   nonuniform List<scalar> 
2268
(
7.73927e-10
7.3061e-10
7.2183e-10
5.91334e-10
3.51254e-10
1.99579e-10
1.00952e-10
5.43363e-11
3.06258e-11
2.22445e-11
1.93111e-11
2.11883e-11
2.81898e-11
4.27478e-11
7.09316e-11
1.19034e-10
1.44492e-10
1.32956e-10
1.32547e-10
1.19744e-10
3.05517e-09
2.54663e-08
2.02212e-07
9.96543e-10
1.82556e-09
2.49243e-09
2.66108e-09
1.93176e-09
7.9085e-10
4.15517e-10
1.18514e-10
9.27226e-11
7.49481e-11
7.75113e-11
1.16695e-10
1.79555e-10
2.21795e-10
3.55608e-10
6.42147e-10
1.48743e-09
2.09142e-09
4.65918e-10
1.20224e-10
2.20033e-11
8.08577e-07
2.06869e-06
1.10055e-09
2.77525e-09
2.72548e-09
4.65139e-09
5.04135e-09
1.51276e-09
3.64107e-09
2.49562e-09
1.53033e-09
3.57098e-10
2.45251e-10
4.85076e-10
6.8341e-10
6.2927e-10
5.26531e-10
3.02546e-10
6.24527e-09
1.40579e-08
1.51077e-08
1.18207e-08
1.9088e-11
1.32303e-06
1.55231e-06
4.50865e-09
6.30423e-09
1.1874e-08
1.08355e-08
3.37082e-09
1.49463e-09
3.49775e-07
2.19783e-07
2.99508e-08
7.39392e-10
3.99001e-10
3.88105e-10
6.49654e-10
2.59392e-10
2.40038e-10
2.38772e-10
2.26862e-09
9.03174e-09
1.04034e-08
1.05576e-08
2.56905e-09
1.00329e-07
9.32429e-08
0.000141085
0.000179337
0.000325472
0.000200851
5.57058e-05
8.63536e-06
2.48004e-06
6.74776e-07
2.70461e-09
9.0372e-10
2.12723e-06
1.81373e-06
2.51467e-07
1.62578e-06
2.25939e-08
6.44653e-06
3.85425e-06
3.78395e-06
1.31674e-06
9.98693e-11
-1.22643e-11
-1.23028e-08
0.00626661
0.000963856
0.0012826
0.00132591
0.00132591
0.000810017
0.000100116
3.70916e-07
3.70984e-07
5.59459e-06
6.08912e-05
0.000164556
0.000157718
4.90401e-05
7.94767e-06
4.18269e-05
0.000137548
2.57228e-05
6.71178e-10
4.44989e-10
5.45562e-05
0.00360604
0.0138701
0.014872
0.000959936
0.00132591
0.0013259
0.00131889
0.000913189
0.000146499
3.70952e-07
1.10859e-06
2.71388e-05
0.000210086
0.000233082
0.000202674
1.80625e-05
3.02584e-06
2.38042e-06
2.25177e-06
2.38042e-06
0.00739143
0.0110201
0.0109956
0.00993505
0.0122937
0.0122123
0.000467392
0.00102638
0.00120662
0.000436845
0.000268527
7.32519e-05
1.83751e-05
2.14019e-05
7.1832e-05
0.000101257
0.000172259
0.000415588
0.000267176
5.7359e-06
0.000735429
0.00845736
0.0102893
0.0122282
0.0101569
0.00297076
0.00292792
0.00865865
0.0297381
0.000582196
0.00317524
0.0052546
0.00986398
0.0102986
0.0080524
0.00594824
0.00374041
0.00368821
0.00391584
0.00395685
0.00385118
0.00336123
0.00336123
0.00336123
0.00677411
0.00802081
0.00659155
0.00659155
0.000188768
0.00023435
0.00129684
0.00260863
0.0038596
0.00523076
0.00498365
0.00410861
0.00368774
0.00362493
0.00362765
0.00398579
0.00383838
0.00336123
0.00336123
0.00563183
0.0148151
0.0151584
0.0080403
0.000188749
0.000228384
0.000527069
0.000502665
0.000651531
0.00495498
0.0159403
0.0152673
0.00617371
0.0048837
0.00961865
0.017726
0.0199359
0.0169184
0.00837351
0.0106135
0.0165524
0.0165525
0.0126033
0.00043086
0.00346726
0.00744435
0.00777309
0.00720293
0.020817
0.0244114
0.0244075
0.0228453
0.0336961
0.0350378
0.0310817
0.02937
0.0336858
0.0410293
0.0200886
0.00961361
0.0112719
0.0105175
0.00184905
0.00536367
0.00950486
0.0101922
0.0101855
0.00810623
0.0122074
0.00760843
0.0118006
0.0419472
0.0419812
0.0332319
0.0296575
0.0299675
0.0410861
0.0354956
0.0095965
0.00959669
0.0095965
0.00432353
0.00325786
0.00420187
0.00419342
0.00432967
0.00452144
0.00468764
0.00608067
0.00614244
0.041832
0.041984
0.0312451
0.035027
0.0404892
0.0433054
0.0499004
0.0278112
0.00959256
0.0137352
0.00433397
0.003248
0.00458624
0.00646969
0.00895566
0.00614466
0.00604343
0.0133852
0.0174328
0.016053
0.0256075
0.0147941
0.0315422
0.0923147
0.0495624
0.049639
0.0469782
0.0373778
0.0341231
0.00342796
0.00335295
0.00919189
0.0195878
0.0270088
0.0219451
0.0181563
0.0180838
0.0699834
0.0144788
0.0146604
0.014643
0.0490437
0.0959628
0.0813761
0.0490442
0.0453755
0.0435437
0.0373859
0.00046261
0.000459289
0.000376531
0.000276066
0.000199277
0.000201237
0.000287348
0.000236197
3.06747e-05
3.40981e-05
0.000414683
0.000589208
0.00211631
0.0083791
0.0121862
0.012181
0.0121851
0.00355315
0.00170685
0.00170831
0.00440618
0.016771
0.0511927
0.000543349
0.000614249
0.00166358
0.00180834
0.000819319
0.000403164
0.000403418
0.000395244
8.22079e-05
1.33855e-05
3.49274e-05
0.000187129
0.000424688
0.00334823
0.0084589
0.0121853
0.0041384
0.00403401
0.00460337
0.00410698
0.00962026
0.0476964
0.0515193
0.000545177
0.000710407
0.00330328
0.0018026
0.000858202
0.000123892
5.68966e-05
5.53741e-05
1.33593e-05
1.34655e-05
0.000719803
0.000431712
0.000421358
0.00492899
0.0119851
0.0117081
0.0144874
0.0299502
0.0287211
0.0177824
0.0276493
0.0470581
0.0419862
0.0553898
0.0313498
0.0358332
0.0252735
0.0127888
0.0240337
0.025082
0.0317718
0.0532945
0.0246003
0.00260836
0.00239535
0.00275357
0.00731153
0.0347099
0.0466945
0.0314556
0.0305144
0.0303636
0.0278671
0.0166636
0.02089
0.0140737
0.0658818
0.042558
0.0197948
0.048359
0.0698837
0.071113
0.0711197
0.0711245
0.071129
0.0699992
0.0377212
0.0247799
0.0448665
0.0809234
0.0811395
0.081142
0.033077
0.00482438
0.00483483
0.00118219
0.000278635
6.31184e-13
-4.89471e-41
0.0660124
0.0214994
0.00157877
0.0252259
0.0620098
0.0711121
0.0564979
0.0331533
0.0480051
0.0807987
0.0808077
0.0808109
0.0811419
0.0811418
0.081144
0.0811375
0.0768805
0.00721854
0.00110381
0.000661417
0.000206148
2.28907e-20
1.19391e-20
0.0554834
0.000268211
0.000283432
0.00125657
0.00780214
0.0121273
0.00385098
0.000516781
0.00142597
0.00639984
0.0157319
0.0403521
0.0690897
0.081143
0.0671101
0.0310033
0.0229099
0.0124954
0.00121984
0.000678279
0.00179072
0.0405549
0.135359
0.0167115
0.000264092
0.000274111
0.000426628
0.000486101
0.000426357
0.000360915
0.00035173
0.000351418
0.00273303
0.013265
0.0215288
0.0247137
0.0227347
0.0197444
0.0190514
0.0259747
0.054838
0.124591
0.246784
0.466044
0.699411
0.857012
0.00363309
0.00026346
0.000283976
0.000259372
0.000271277
0.0928237
0.238093
0.372639
0.48869
0.57688
0.624935
0.644819
0.633556
0.60194
0.581796
0.581861
0.645171
0.756563
0.86675
0.958835
0.993386
0.996958
0.999601
0.00317475
0.000267656
0.000350809
0.0997266
0.498027
0.829395
0.938638
0.982779
0.996599
0.998263
0.998905
0.999322
0.99853
0.989494
0.980281
0.979671
0.989476
0.999247
0.999624
0.999875
0.999917
0.999999
0.999999
0.000734982
0.000271273
0.0679018
0.558333
0.977146
0.99962
0.99966
0.999896
0.999941
0.999993
0.999997
0.999996
0.999997
0.999995
0.999949
0.999552
0.999995
0.999994
0.999993
0.999993
0.999989
0.999979
0.999992
0.000754896
0.0373034
0.552277
0.977206
0.999959
1
0.999985
0.99999
0.999998
0.999998
0.999999
0.999999
0.999998
0.999995
0.999999
0.999998
0.999997
0.999993
0.999987
0.999988
0.999991
0.999979
0.999979
0.180884
0.596073
0.968957
0.994122
1
1
1
0.999998
0.999999
0.999999
0.999999
0.999999
0.999998
0.999998
0.999996
0.999996
0.999997
0.999997
0.999984
0.999976
0.999981
0.999998
0.999998
0.939405
0.995685
0.999607
0.999996
0.999998
0.999999
0.999999
0.999999
0.999999
0.999996
0.999983
0.999992
0.999998
0.999999
0.999999
0.999999
0.999996
0.999989
0.99998
0.999968
0.999984
0.999998
0.999999
1
1
0.999998
0.999996
0.999998
0.999999
0.999999
0.999999
0.999982
0.999974
0.999977
0.999984
0.99999
0.999997
0.999999
0.999985
0.999947
0.999942
0.999941
0.999959
0.999991
0.999999
0.999999
1
0.999999
0.999997
0.999997
0.999999
0.999996
0.999995
0.999997
0.999992
0.999926
0.999909
0.999908
0.99991
0.999908
0.999911
0.999925
0.999955
0.999978
0.999986
0.999987
0.999994
1
1
1
1
0.999999
1
0.999997
0.999992
0.999995
0.999996
0.999964
0.999907
0.999906
0.999945
0.999965
0.99996
0.999966
0.999985
0.999996
1
1
1
1
1
1
1
1
1
1
0.999998
0.999996
0.999999
0.999995
0.999975
0.999978
0.999991
1
1
0.999999
1
1
1
1
1
1
1
1
1
1
1
1
1
1
1
1
0.999997
1
1
1
1
1
1
1
1
1
1
1
1
1
1
1
1
1
1
1
1
1
1
1
1
1
1
1
1
1
1
1
1
1
1
1
1
1
1
1
1
1
1
1
1
1
1
1
1
1
1
1
1
1
1
1
1
1
1
1
1
1
1
1
1
1
1
1
1
1
1
1
1
1
1
1
1
1
1
1
1
1
1
1
1
1
1
1
1
1
1
1
1
1
1
1
1
1
1
1
1
1
1
1
1
1
1
1
1
1
1
1
1
1
1
1
1
1
1
1
1
1
1
1
1
1
1
1
1
1
1
1
1
1
1
1
1
1
1
1
1
1
1
1
1
1
1
1
1
1
1
1
1
1
1
1
1
1
1
1
1
1
1
1
1
1
1
1
1
1
1
1
1
1
1
1
1
1
1
1
1
1
1
1
1
1
1
1
1
1
1
1
1
1
1
1
1
1
1
1
1
1
1
1
1
1
1
1
1
1
1
1
1
1
1
1
1
1
1
1
1
1
1
1
1
1
1
1
1
1
1
1
1
1
1
1
1
1
1
1
1
1
1
1
1
1
1
1
1
1
1
1
1
1
1
1
1
1
1
1
1
1
1
1
1
1
1
1
1
1
1
1
1
0.999999
0.999999
1
1
1
1
1
1
1
1
1
1
1
1
1
1
1
1
1
1
1
1
1
0.999999
0.999999
1
1
1
1
1
1
1
1
1
1
1
1
1
1
1
1
1
1
1
1
0.999999
0.999999
0.999999
1
1
1
1
1
1
1
1
1
1
1
1
1
1
1
1
1
1
1
1
0.999999
0.999999
0.999999
0.999999
0.999999
1
1
1
1
1
1
1
1
1
1
1
1
1
1
1
1
1
1
0.999999
0.999999
0.999999
0.999999
0.999999
1
1
1
1
1
1
1
1
1
1
1
1
1
1
1
1
1
1
1
1
1
0.999999
0.999999
1
1
1
1
1
1
1
1
1
1
1
1
1
1
1
1
1
1
1
1
1
0.999999
1
1
1
1
1
1
1
1
1
1
1
1
1
1
1
1
1
1
1
1
1
1
1
1
1
1
1
1
1
1
1
1
1
1
1
1
1
1
1
1
1
1
1
1
1
1
1
1
1
1
1
1
1
1
1
1
1
1
1
1
1
1
1
1
1
1
1
1
1
1
1
1
1
1
1
1
1
1
1
1
1
1
1
1
1
1
1
1
1
1
1
1
1
1
1
1
1
1
1
1
1
1
1
1
1
1
1
1
1
1
1
1
1
1
1
1
1
1
1
1
1
1
1
1
1
1
1
1
1
1
1
0.0515497
0.049885
0.0381592
0.00322265
0.0515374
0.0514536
0.0497537
0.0251283
0.00878855
0.0128774
0.0312559
0.0475684
0.00800465
0.0214597
0.0378617
0.0377077
-3.38995e-38
2.52912e-37
4.00024e-21
2.57075e-23
1.01075e-19
8.67751e-20
0.00307055
0.00819093
0.248923
0.369746
0.482154
0.542932
0.939771
0.979225
0.979252
0.977984
0.999996
0.999999
1
0.999999
1
1
1
1
0.999996
0.999997
0.999999
0.999999
0.999985
0.999979
0.999986
0.999995
0.999997
0.999996
0.999938
0.99993
0.999957
0.999937
0.999935
0.999931
0.999963
0.999937
0.999936
0.99994
1
1
1
1
1
1
1
1
1
1
1
1
1
1
1
1
1
1
1
1
1
1
1
1
1
1
1
1
1
1
1
1
1
1
1
1
1
1
1
1
1
1
1
1
1
1
1
1
1
1
1
1
1
1
1
1
1
1
1
1
1
1
1
1
1
1
1
1
1
1
1
1
1
1
1
1
1
1
1
1
1
1
1
1
1
1
1
1
1
1
1
1
1
1
1
1
1
1
1
1
1
1
1
1
1
1
1
1
0.00322357
0.00506591
0.0178896
0.0503663
0.0655247
0.0661101
0.0533831
0.0589508
0.112569
0.0941352
0.0693689
0.0381464
0.0929114
0.0961013
0.0960996
0.0587428
0.00318508
0.00916249
0.00773169
0.0119143
0.0230587
0.0483677
0.052029
0.0540976
0.0764422
0.12622
0.18244
0.101066
0.0427998
0.0224652
0.0493432
0.0961001
0.0961007
0.0346191
0.00235737
0.00232865
0.0023423
0.0025634
0.0499653
0.0500661
0.0366152
0.000350791
0.000346603
0.0141697
0.160826
0.18595
0.077402
0.0128712
0.0124421
0.0306467
0.0960997
0.0555654
0.0014893
0.00358522
0.00209854
0.00210868
0.00274708
0.0367463
0.0290545
0.000773563
0.000356517
0.000599576
0.00764584
0.141542
0.18594
0.185938
0.185693
0.0898276
0.0187887
0.0207802
0.0048898
0.000924159
0.0242426
0.0574796
0.00276731
0.00274015
1.45573e-20
0.000463546
0.000603702
0.000456026
0.000501484
0.000471352
0.00325798
0.0510616
0.172962
0.185755
0.183511
0.0343374
0.00335815
0.00167636
0.000923615
0.0222478
0.210555
0.00280698
0.0036011
0.0103773
0.00405338
4.036e-06
1.13877e-05
0.000125339
0.000134405
0.000196431
0.000383855
0.00367947
0.00374577
0.0373224
0.0343073
0.00798529
0.00153746
0.00148313
0.00195074
0.253789
0.0178288
0.0069848
0.566023
0.511452
0.390442
0.381499
0.382046
0.388432
0.374565
0.369443
0.326286
0.261176
0.154459
0.0720111
0.0165028
0.00146348
0.0014701
0.0129297
0.262456
0.109749
0.00974586
0.98761
0.995218
0.995752
0.994855
0.994914
0.995746
0.995839
0.996131
0.996258
0.978563
0.915554
0.815624
0.720066
0.606059
0.460462
0.350102
0.654284
0.558219
0.257286
0.999044
0.999762
0.999949
0.999594
0.999899
1
1
0.999999
0.999998
0.999978
0.999862
0.999812
0.999206
0.993671
0.952561
0.947366
0.987978
0.995592
0.984254
0.999999
0.999999
0.999999
0.999998
0.999999
0.999999
0.999998
0.99994
0.999821
0.999788
0.999946
0.99995
0.999928
0.998795
0.99827
0.999613
0.999998
0.999998
0.999953
0.999999
0.999999
0.999977
0.999969
0.999998
0.999998
0.999984
0.999913
0.999814
0.999754
0.999757
0.99982
0.999955
0.999941
0.999935
0.999962
0.999991
1
1
0.999998
0.999998
0.99999
0.999956
0.999956
0.999957
0.999958
0.999991
0.999996
0.999996
0.999941
0.999807
0.999757
0.999755
0.999751
0.999831
0.999949
0.999997
1
0.999953
0.999965
0.999983
0.999988
0.999988
0.999974
0.999964
0.999973
0.999989
0.999998
0.999998
0.999997
0.999966
0.999845
0.999769
0.999909
0.999953
0.999996
0.999999
0.999933
0.999953
0.999949
0.999928
0.999953
0.999987
0.999988
0.999983
0.999983
0.999992
0.999997
0.999991
0.999987
0.999966
0.999782
0.999994
0.999994
0.999998
0.999999
0.999992
0.999995
0.999977
0.999915
0.999911
0.999917
0.999988
0.999995
0.99998
0.999971
0.99999
0.999981
0.999902
0.999703
0.999893
0.999996
0.999991
0.999953
0.999959
1
0.999999
0.999999
0.999935
0.999911
0.999935
0.999989
0.999995
0.999984
0.999964
0.999987
0.999993
0.999774
0.999685
0.999835
0.999995
0.999892
0.999722
0.999727
0.999999
0.999999
0.999997
0.999974
0.999967
0.999982
0.999991
0.999978
0.999965
0.999961
0.999985
0.999998
0.999819
0.999685
0.999742
0.99999
0.999805
0.999721
0.999721
0.999999
0.999999
0.999998
0.999986
0.999956
0.999949
0.99995
0.99995
0.999957
0.999983
0.999998
0.999998
0.999935
0.999685
0.999743
0.999991
0.99987
0.999721
0.999725
0.999999
0.999998
0.999994
0.999984
0.999979
0.999977
0.999977
0.999981
0.99999
0.999996
0.999998
0.999999
0.999996
0.999717
0.999813
0.999995
0.999978
0.999899
0.999756
1
1
1
1
1
0.999999
0.999999
0.999999
0.999999
0.999999
0.999999
0.999999
0.999999
0.99993
0.999967
0.999985
0.99992
0.999962
0.99992
1
1
1
1
1
1
1
0.999999
1
1
1
1
1
0.999999
0.999997
0.999979
0.999921
0.999962
0.999929
1
1
1
1
1
1
1
1
1
1
1
1
1
1
0.999999
0.999992
0.999971
0.999943
0.999814
1
1
1
1
1
1
1
1
1
1
1
1
1
1
1
0.999999
0.999999
0.999944
0.999814
1
1
1
1
1
1
1
1
1
1
1
1
1
1
1
0.999999
0.999999
0.999988
0.999934
1
1
1
1
1
1
1
1
1
1
1
1
1
1
1
0.999999
0.999999
0.999999
1
1
1
1
1
1
1
1
1
1
1
1
1
1
1
1
1
1
1
1
1
1
1
1
1
1
1
1
1
1
1
1
1
1
1
0.999999
1
1
1
1
1
1
1
1
1
1
1
1
1
1
1
1
1
0.999999
0.999999
0.999999
1
0.999995
1
1
1
1
1
1
1
1
1
1
1
1
1
1
1
0.999999
0.999999
1
0.999995
1
1
1
1
1
1
1
1
1
1
1
1
1
1
0.999999
1
1
1
0.999997
1
1
1
1
1
1
1
1
1
1
1
1
1
1
0.999997
0.999994
0.999999
1
1
1
1
1
1
1
1
1
1
1
1
1
1
1
1
0.999995
0.999993
0.999994
1
1
1
1
1
1
1
1
1
1
1
1
1
1
1
1
0.999998
0.999993
0.999993
0.999995
0.999996
1
1
1
1
1
1
1
1
1
1
1
1
1
1
1
0.999996
0.999993
0.999993
0.999997
1
1
1
1
1
1
1
1
1
1
1
1
1
1
1
1
0.999997
0.999997
1
1
1
1
1
1
1
1
1
1
1
1
1
1
1
1
1
1
1
1
1
1
1
1
1
1
1
1
1
1
1
1
1
1
1
1
1
1
1
1
1
1
1
1
1
1
1
1
1
1
1
1
1
1
1
1
1
1
1
1
1
1
1
1
1
1
1
1
1
1
1
1
1
1
1
1
1
1
1
1
1
1
1
1
1
1
1
1
1
1
1
1
1
1
1
1
1
1
1
1
1
1
1
1
1
1
1
1
1
1
1
1
1
1
1
1
1
1
1
1
1
1
1
1
1
1
1
1
1
1
1
1
1
1
)
;

boundaryField
{
    leftWall
    {
        type            alphaContactAngle;
        thetaProperties 
6
(
(galistan air) 90 0 0 0
(oil galistan) 90 0 0 0
(water oil) 90 0 0 0
(water air) 90 0 0 0
(oil air) 90 0 0 0
(water galistan) 90 0 0 0
);
        value           nonuniform List<scalar> 
50
(
7.73927e-10
9.96543e-10
1.10055e-09
4.50865e-09
0.000141085
0.000963856
0.000959936
0.000467392
0.00046261
0.000543349
0.000545177
0.0553898
0.0658818
0.0660124
0.0554834
0.0167115
0.00363309
0.00317475
0.000734982
0.000754896
0.180884
0.939405
1
1
1
1
1
1
1
1
1
1
1
1
1
1
1
1
1
1
1
1
1
1
1
1
1
1
1
1
)
;
    }
    rightWall
    {
        type            alphaContactAngle;
        thetaProperties 
6
(
(galistan air) 90 0 0 0
(oil galistan) 90 0 0 0
(water oil) 90 0 0 0
(water air) 90 0 0 0
(oil air) 90 0 0 0
(water galistan) 90 0 0 0
);
        value           nonuniform List<scalar> 
50
(
0.00659155
0.0080403
0.0126033
0.0105175
0.0095965
0.0137352
0.0341231
0.0373859
0.00773169
0.0025634
0.00274708
0.00274015
0.0036011
0.0069848
0.00974586
0.257286
0.984254
0.999953
1
1
0.999999
0.999999
0.999959
0.999727
0.999721
0.999725
0.999756
0.99992
0.999929
0.999814
0.999814
0.999934
1
1
1
0.999995
0.999995
0.999997
1
1
0.999996
0.999997
1
1
1
1
1
1
1
1
)
;
    }
    lowerWall
    {
        type            alphaContactAngle;
        thetaProperties 
6
(
(galistan air) 90 0 0 0
(oil galistan) 90 0 0 0
(water oil) 90 0 0 0
(water air) 90 0 0 0
(oil air) 90 0 0 0
(water galistan) 90 0 0 0
);
        value           nonuniform List<scalar> 
62
(
7.73927e-10
7.3061e-10
7.2183e-10
5.91334e-10
3.51254e-10
1.99579e-10
1.00952e-10
5.43363e-11
3.06258e-11
2.22445e-11
1.93111e-11
2.11883e-11
2.81898e-11
4.27478e-11
7.09316e-11
1.19034e-10
1.44492e-10
1.32956e-10
1.32547e-10
1.19744e-10
3.05517e-09
2.54663e-08
2.02212e-07
2.02212e-07
2.06869e-06
1.55231e-06
9.32429e-08
0.00626661
0.014872
0.0122123
0.0297381
0.0515497
0.049885
0.0381592
0.00322265
0.000582196
0.000188768
0.000188749
0.00043086
0.00184905
0.00432353
0.00433397
0.00342796
0.000582196
0.00317524
0.0052546
0.00986398
0.0102986
0.0080524
0.00594824
0.00374041
0.00368821
0.00391584
0.00395685
0.00385118
0.00336123
0.00336123
0.00336123
0.00677411
0.00802081
0.00659155
0.00659155
)
;
    }
    atmosphere
    {
        type            inletOutlet;
        inletValue      uniform 1;
        value           nonuniform List<scalar> 
46
(
1
1
1
1
1
1
1
1
1
1
1
1
1
1
1
1
1
1
1
1
1
1
1
0.999999
0.999998
1
1
1
1
1
1
1
1
1
1
1
1
1
1
1
1
1
1
1
1
1
)
;
    }
    defaultFaces
    {
        type            empty;
    }
}


// ************************************************************************* //
