/*--------------------------------*- C++ -*----------------------------------*\
| =========                 |                                                 |
| \\      /  F ield         | OpenFOAM: The Open Source CFD Toolbox           |
|  \\    /   O peration     | Version:  2312                                  |
|   \\  /    A nd           | Website:  www.openfoam.com                      |
|    \\/     M anipulation  |                                                 |
\*---------------------------------------------------------------------------*/
FoamFile
{
    version     2.0;
    format      ascii;
    arch        "LSB;label=32;scalar=64";
    class       volScalarField;
    location    "3.45";
    object      p;
}
// * * * * * * * * * * * * * * * * * * * * * * * * * * * * * * * * * * * * * //

dimensions      [1 -1 -2 0 0 0 0];

internalField   nonuniform List<scalar> 
2268
(
5125.6
5144.46
5178.82
5225.48
5280.36
5339.6
5399.87
5458.05
5511.14
5556.34
5590.99
5612.78
5619.94
5610.94
5584.48
5539.38
5477.39
5403.38
5323.59
5243.77
5170.75
5113.75
5081.51
4322.97
4342.62
4378.35
4425.88
4481.5
4541.5
4602.65
4661.71
4715.65
4761.69
4797.11
4819.54
4827.2
4818.53
4792.29
4746.62
4683.29
4607.61
4526.25
4444.67
4369.51
4310.48
4276.96
3516.57
3537.46
3574.4
3623.22
3680.13
3741.6
3804.51
3865.41
3921.05
3968.78
4005.75
4029.44
4038.14
4030.08
4004.27
3957.3
3891.03
3811.95
3727.51
3642.48
3562.93
3499.81
3463.94
2705.48
2727.83
2766.35
2817.15
2876.04
2939.81
3005.7
3069.55
3127.85
3178.21
3217.49
3242.86
3252.92
3245.68
3220.91
3171.79
3100.63
3016.38
2927.6
2837.65
2751.32
2681.7
2641.74
1890.73
1914.15
1954.41
2008.09
2069.74
2136.69
2206.97
2275.08
2336.9
2390.71
2432.95
2460.28
2471.94
2465.36
2442.74
2390.18
2311.84
2220.33
2126.52
2029.99
1934.8
1855.42
1811.4
1250.17
1261.98
1282.82
1314.6
1353.98
1399.4
1452.34
1508.17
1562.35
1613.61
1656.57
1684.43
1696.68
1689.71
1671.67
1615.28
1528.34
1443.33
1365.12
1282.35
1207.41
1153.12
1119.55
999.502
997.359
994.991
994.577
996.893
1001.81
1012.23
1026.96
1043.01
1060.2
1075.29
1084.09
1087.54
1079.7
1064.28
1028.28
979.45
932.678
888.631
852.053
822.053
812.278
788.814
939.112
937.056
934.548
929.008
920.182
909.2
898.501
887.512
873.902
859.38
844.972
831.892
819.788
808.269
797
787.451
778.443
760.792
741.177
728.382
713.331
704.967
680.143
2758.12
2717.48
2722.72
2762.52
2796.82
2804.14
2780.65
2716.24
2618.08
2489.57
2362.74
2271.97
2228.91
2225.64
2254.91
2310.03
2387.56
2472.25
2532.52
1995.78
1950.92
1950.59
1992.82
2032.65
2043.43
2024.11
1958.7
1858.73
1732.8
1618.38
1534.87
1504.2
1509.71
1542.05
1594.08
1659.12
1729.86
1781.33
1316.27
1271.52
1263.85
1290.21
1319.24
1332.17
1333.06
1294.1
1223.01
1143.34
1064.62
1029.05
1024.89
1028.19
1041.71
1075.55
1116.96
1163.12
1194.24
904.11
889.3
888.042
887.054
888.189
892.226
901.07
898.64
869.478
849.478
834.471
848.373
854.138
851.195
844.556
846.328
855.435
868.281
878.175
766.892
774.776
778.883
771.283
759.405
754.55
752.972
756.167
749.007
748.423
767.078
780.842
788.892
786.621
777.165
768.242
761.316
753.277
750.802
716.961
720.493
718.288
709.652
699.242
695.004
691.767
691.607
696.555
701.424
713.754
715.748
721.161
718.188
710.229
706
704.536
700.802
697.552
664.227
655.771
649.485
639.253
631.371
627.947
626.776
627.656
636.636
651
663.039
662.736
663.456
659.846
651.549
648.354
647.033
642.011
638.282
611.037
591.304
582.716
573.385
566.889
564.84
564.687
568.325
570.303
597.106
611.64
612.751
610.479
606.191
595.596
591.054
587.243
580.018
575.727
844.291
842.249
840.311
835.944
828.677
818.993
808.217
796.613
784.082
770.911
757.421
742.523
726.742
712.874
700.157
685.601
668.919
653.421
640.314
625.397
608.911
590.793
564.448
718.489
716.657
713.807
709.348
703.054
694.983
685.573
675.003
663.797
652.449
640.876
628.243
612.611
596.238
579.298
561.41
542.26
524.493
507.821
491.23
477.337
463.391
447.562
589.866
589.597
588.504
584.907
579.197
571.295
561.887
551.817
541.803
532.403
522.444
510.579
496.354
479.942
462.365
443.513
422.599
400.703
381.568
367.404
357.417
349.756
342.436
471.739
471.901
470.313
465.056
457.543
449.085
440.119
431.005
422.535
414.165
404.93
393.503
379.936
365.296
349.292
330.069
311.727
296.435
285.473
278.365
272.289
265.24
256.427
382.916
379.282
372.883
361.252
348.535
337.034
325.965
315.567
306.659
298.658
289.855
280.03
269.258
257.515
244.799
232.909
225.321
221.189
215.938
209.399
201.997
194.464
186.709
317.639
310.315
298
282.884
267.469
252.23
237.275
223.409
211.051
200.239
190.349
180.922
173.777
167.323
162.639
161.503
160.84
158.003
151.827
143.855
135.134
125.742
115.88
261.08
252.202
238.546
222.141
204.674
186.534
169.061
153.294
139.418
126.943
116.283
108.417
103.676
102.293
103.078
104.326
103.457
98.4884
90.6941
80.9538
70.0648
58.3907
47.5287
207.475
197.229
182.786
163.618
141.901
119.631
99.7072
83.5619
71.0591
61.5661
54.2107
50.0035
48.4706
48.9384
49.9353
49.9888
47.3758
41.7196
34.6316
27.1777
19.8355
12.7967
7.25686
156.061
145.884
130.012
105.18
75.3724
47.4295
29.7474
20.046
14.7977
11.6457
10.1089
9.50941
9.82503
11.216
12.2506
12.3525
10.2469
6.91778
3.78915
1.32656
0.235201
-0.395716
-1.09403
107.159
97.7651
80.4167
47.5978
18.7841
4.21231
0.583407
-0.816751
-1.33264
-1.49649
-1.53334
-1.57552
-1.66142
-1.40585
-0.886432
-0.385647
-0.713671
-1.20896
-1.37946
-1.4979
-1.51765
-1.52433
-1.49811
64.9905
55.5165
38.5191
8.49443
-0.394163
-1.32893
-1.45842
-1.57378
-1.64793
-1.70129
-1.74389
-1.80522
-1.89312
-1.9929
-2.0326
-2.01454
-1.93317
-1.83405
-1.76793
-1.71565
-1.68059
-1.63591
-1.59878
34.4586
23.1908
5.41634
-0.838399
-1.43434
-1.52873
-1.67917
-1.77842
-1.81131
-1.86834
-1.91527
-1.95525
-2.01473
-2.09315
-2.11039
-2.07471
-2.00987
-1.94345
-1.88702
-1.84047
-1.79919
-1.75913
-1.72476
18.962
10.9328
0.341878
-1.624
-1.74615
-1.85885
-1.95215
-1.95352
-1.97382
-2.00763
-2.03617
-2.06436
-2.09753
-2.1262
-2.13263
-2.12178
-2.09176
-2.04935
-2.00604
-1.96676
-1.93296
-1.90289
-1.87677
-0.694426
-2.15931
-2.28554
-2.27414
-2.17309
-2.16428
-2.13014
-2.12085
-2.13074
-2.1464
-2.16253
-2.17934
-2.19579
-2.20707
-2.20904
-2.19927
-2.17849
-2.15092
-2.12096
-2.09309
-2.06913
-2.04801
-2.02983
-2.65209
-2.62678
-2.5899
-2.49817
-2.40091
-2.33853
-2.30395
-2.29056
-2.28689
-2.28858
-2.29459
-2.3024
-2.30927
-2.31258
-2.30835
-2.29851
-2.28359
-2.26496
-2.24474
-2.22512
-2.20759
-2.19227
-2.17976
-2.78364
-2.74702
-2.70106
-2.62077
-2.54868
-2.49884
-2.46739
-2.44716
-2.43496
-2.42916
-2.4291
-2.43148
-2.43245
-2.43005
-2.42375
-2.41462
-2.40349
-2.39033
-2.37559
-2.36054
-2.3459
-2.33321
-2.32376
-2.81748
-2.79442
-2.76967
-2.72626
-2.67951
-2.64151
-2.61222
-2.59067
-2.57621
-2.56846
-2.5653
-2.56352
-2.56048
-2.55535
-2.54836
-2.53956
-2.52918
-2.5178
-2.50578
-2.49344
-2.48125
-2.47073
-2.46314
-2.89051
-2.87617
-2.85849
-2.83013
-2.79906
-2.77029
-2.74559
-2.72606
-2.71202
-2.70325
-2.69714
-2.69176
-2.68614
-2.67995
-2.67275
-2.66433
-2.65474
-2.64436
-2.63386
-2.62349
-2.61368
-2.60531
-2.59915
-2.98334
-2.97534
-2.9591
-2.9382
-2.91489
-2.89254
-2.87238
-2.85538
-2.8422
-2.83225
-2.82437
-2.81747
-2.81083
-2.80402
-2.79675
-2.78876
-2.7801
-2.77106
-2.76198
-2.75316
-2.74501
-2.73805
-2.73282
-3.07691
-3.0727
-3.06205
-3.0469
-3.02951
-3.01172
-2.99531
-2.98078
-2.96863
-2.95868
-2.95029
-2.94279
-2.93565
-2.92856
-2.92131
-2.91376
-2.90592
-2.89793
-2.89002
-2.88243
-2.87547
-2.8695
-2.86486
-3.17991
-3.1762
-3.16829
-3.157
-3.14369
-3.12979
-3.11627
-3.10392
-3.09306
-3.08361
-3.07528
-3.06767
-3.06042
-3.05336
-3.04634
-3.03926
-3.0321
-3.02496
-3.01798
-3.01136
-3.0053
-3.00004
-2.99582
-3.28654
-3.28358
-3.27751
-3.26886
-3.25849
-3.24747
-3.23617
-3.22576
-3.21617
-3.20747
-3.19953
-3.19214
-3.1851
-3.17831
-3.17164
-3.16504
-3.15849
-3.15206
-3.14584
-3.13998
-3.13462
-3.12992
-3.12606
-3.39617
-3.39385
-3.3891
-3.38233
-3.37408
-3.36508
-3.35586
-3.34696
-3.33855
-3.33068
-3.32331
-3.31635
-3.30971
-3.30331
-3.29707
-3.29095
-3.28496
-3.27913
-3.27354
-3.2683
-3.2635
-3.25927
-3.25573
-3.50818
-3.50637
-3.50261
-3.49722
-3.49056
-3.48317
-3.47548
-3.46788
-3.46056
-3.45352
-3.44681
-3.4404
-3.43425
-3.4283
-3.42251
-3.41687
-3.41139
-3.40609
-3.40104
-3.39631
-3.39198
-3.38814
-3.38488
-3.62212
-3.6207
-3.61769
-3.61336
-3.60794
-3.60182
-3.59535
-3.58883
-3.58242
-3.57619
-3.57016
-3.56434
-3.5587
-3.55323
-3.54791
-3.54273
-3.53771
-3.53289
-3.5283
-3.52401
-3.52009
-3.51659
-3.51357
-3.73764
-3.73652
-3.73411
-3.7306
-3.72615
-3.72106
-3.71559
-3.70997
-3.70436
-3.69884
-3.69347
-3.68821
-3.68309
-3.67809
-3.67321
-3.66848
-3.6639
-3.6595
-3.65532
-3.65142
-3.64784
-3.64465
-3.64186
-3.85449
-3.85362
-3.85168
-3.84882
-3.84515
-3.84089
-3.83624
-3.83139
-3.82648
-3.82159
-3.81678
-3.81205
-3.80741
-3.80286
-3.79842
-3.7941
-3.78992
-3.78591
-3.78211
-3.77855
-3.77529
-3.77236
-3.76978
-3.97248
-3.97182
-3.97026
-3.96793
-3.96489
-3.9613
-3.95733
-3.95312
-3.94882
-3.94447
-3.94015
-3.93588
-3.93169
-3.92756
-3.92352
-3.91959
-3.91578
-3.91213
-3.90867
-3.90543
-3.90245
-3.89977
-3.89739
-4.09146
-4.09097
-4.08973
-4.08783
-4.0853
-4.08227
-4.07886
-4.07521
-4.07138
-4.06748
-4.06358
-4.05972
-4.05593
-4.05218
-4.04852
-4.04495
-4.04149
-4.03818
-4.03503
-4.03208
-4.02937
-4.02692
-4.02472
-4.2113
-4.21095
-4.20997
-4.20844
-4.20633
-4.20373
-4.20077
-4.19754
-4.19412
-4.1906
-4.18707
-4.18357
-4.18014
-4.17675
-4.17343
-4.1702
-4.16706
-4.16406
-4.1612
-4.15853
-4.15606
-4.15383
-4.15181
-4.33186
-4.33163
-4.33088
-4.32966
-4.32788
-4.32563
-4.32296
-4.32011
-4.31701
-4.31381
-4.3106
-4.30741
-4.30435
-4.30127
-4.29826
-4.29534
-4.29251
-4.28979
-4.28721
-4.28479
-4.28256
-4.28053
-4.27869
-4.45299
-4.45287
-4.45232
-4.45136
-4.44989
-4.44795
-4.44564
-4.4429
-4.44003
-4.43709
-4.43417
-4.43129
-4.42849
-4.42572
-4.42302
-4.42039
-4.41785
-4.4154
-4.41308
-4.4109
-4.40889
-4.40705
-4.40538
-4.57451
-4.57448
-4.57412
-4.57341
-4.57219
-4.57048
-4.56829
-4.56577
-4.5631
-4.5604
-4.55773
-4.55514
-4.5526
-4.55013
-4.54771
-4.54536
-4.54309
-4.5409
-4.53882
-4.53687
-4.53507
-4.53342
-4.53192
-4.69624
-4.69629
-4.6961
-4.69561
-4.69464
-4.69314
-4.69108
-4.6887
-4.6862
-4.6837
-4.68128
-4.67894
-4.67668
-4.67448
-4.67234
-4.67025
-4.66824
-4.66629
-4.66445
-4.66272
-4.66111
-4.65965
-4.65831
-4.818
-4.8181
-4.81804
-4.81776
-4.81699
-4.8157
-4.81383
-4.81159
-4.80922
-4.80694
-4.80476
-4.80268
-4.80069
-4.79876
-4.79689
-4.79507
-4.7933
-4.79159
-4.78997
-4.78845
-4.78705
-4.78576
-4.78459
-4.93967
-4.93977
-4.93978
-4.93965
-4.93905
-4.93794
-4.93629
-4.93424
-4.9321
-4.93006
-4.92815
-4.92635
-4.92463
-4.92298
-4.92137
-4.9198
-4.91828
-4.91681
-4.91541
-4.91409
-4.91287
-4.91176
-4.91075
-5.06124
-5.0613
-5.06132
-5.06123
-5.06073
-5.05977
-5.05836
-5.0566
-5.05478
-5.05305
-5.05144
-5.04994
-5.04851
-5.04713
-5.04577
-5.04446
-5.04317
-5.04194
-5.04075
-5.03964
-5.03861
-5.03767
-5.03682
-5.18273
-5.18275
-5.18271
-5.18259
-5.18214
-5.18132
-5.18015
-5.17874
-5.17731
-5.17595
-5.17467
-5.17348
-5.17234
-5.17122
-5.17012
-5.16905
-5.16801
-5.16699
-5.16603
-5.16512
-5.16427
-5.1635
-5.16281
-5.30423
-5.30418
-5.30403
-5.30385
-5.30344
-5.30276
-5.30186
-5.30083
-5.2998
-5.29882
-5.29789
-5.29701
-5.29614
-5.29529
-5.29444
-5.2936
-5.29279
-5.29199
-5.29123
-5.29052
-5.28986
-5.28927
-5.28872
-5.42581
-5.42568
-5.42541
-5.42516
-5.42479
-5.42428
-5.42366
-5.423
-5.42236
-5.42174
-5.42115
-5.42056
-5.41996
-5.41935
-5.41874
-5.41813
-5.41753
-5.41695
-5.41639
-5.41587
-5.41539
-5.41496
-5.41458
-5.54757
-5.54737
-5.54696
-5.54663
-5.5463
-5.54598
-5.54565
-5.5453
-5.54502
-5.54475
-5.54446
-5.54414
-5.54379
-5.54342
-5.54304
-5.54264
-5.54225
-5.54187
-5.5415
-5.54117
-5.54087
-5.54061
-5.54039
-5.66958
-5.66934
-5.66886
-5.66842
-5.66809
-5.66785
-5.66768
-5.66771
-5.66776
-5.6678
-5.66779
-5.66774
-5.66763
-5.66749
-5.66733
-5.66715
-5.66696
-5.66677
-5.66659
-5.66644
-5.66632
-5.66623
-5.66616
544.776
538.529
531.723
524.08
440.305
438.829
435.178
428.694
339.829
336.672
332.222
326.803
250.775
247.54
244.507
241.03
181.329
178.255
175.198
171.931
108.766
104.259
99.8701
96.143
40.6595
36.6591
33.7631
31.5889
4.69225
3.76443
3.7826
3.60395
-1.24301
-1.27652
-1.30226
-1.31154
-1.46786
-1.45503
-1.44935
-1.44684
-1.58133
-1.57287
-1.56705
-1.56432
-1.70855
-1.7016
-1.69744
-1.69627
-1.8617
-1.85461
-1.849
-1.84486
-2.02016
-2.0153
-2.01133
-2.00769
-2.17467
-2.17217
-2.17011
-2.16827
-2.32046
-2.31911
-2.31795
-2.31702
-2.46022
-2.45895
-2.45801
-2.45738
-2.59651
-2.59532
-2.59453
-2.59405
-2.7304
-2.72929
-2.72856
-2.72815
-2.86256
-2.86146
-2.86071
-2.86027
-2.9936
-2.99246
-2.9916
-2.99105
-3.12392
-3.12276
-3.12183
-3.12117
-3.25368
-3.25255
-3.25159
-3.25084
-3.38294
-3.38184
-3.38089
-3.3801
-3.51174
-3.51069
-3.50976
-3.50896
-3.64013
-3.63913
-3.63823
-3.63745
-3.76817
-3.76722
-3.76636
-3.7656
-3.89588
-3.89499
-3.89418
-3.89345
-4.02332
-4.02249
-4.02173
-4.02104
-4.15052
-4.14975
-4.14904
-4.1484
-4.2775
-4.2768
-4.27614
-4.27554
-4.4043
-4.40366
-4.40306
-4.40251
-4.53094
-4.53036
-4.52982
-4.52932
-4.65744
-4.65692
-4.65644
-4.65599
-4.78382
-4.78336
-4.78294
-4.78254
-4.91009
-4.9097
-4.90933
-4.90899
-5.03627
-5.03593
-5.03562
-5.03534
-5.16236
-5.16209
-5.16184
-5.1616
-5.28838
-5.28817
-5.28798
-5.2878
-5.41433
-5.41419
-5.41405
-5.41393
-5.54024
-5.54016
-5.54008
-5.54001
-5.66613
-5.66611
-5.66611
-5.66609
520.955
501.291
490.548
483.478
478.081
474.804
474.652
480.608
479.337
504.803
520.231
525.962
523.47
516.295
513.641
516.163
515.263
508.733
506.848
415.843
394.879
384.926
381.608
378.287
374.491
371.379
376.894
379.13
388.834
397.6
405.934
409.377
410.818
418.632
430.967
434.971
428.339
427.782
316.269
302.488
298.67
297.828
295.855
293.697
292.576
297.415
300.207
302.488
304.828
309.574
316.94
322.554
332.376
346.632
354.387
353.912
354.23
234.92
226.893
225.4
223.479
222.091
221.771
222.707
222.993
225.626
227.489
229.345
233.877
240.658
243.215
247.898
257.573
271.794
279.309
280.596
166.012
159.156
156.507
154.866
154.197
154.237
154.332
151.901
153.083
156.371
161.853
167.487
173.56
176.274
178.381
186.797
198.246
205.981
209.658
91.2215
87.3317
86.0699
85.3278
85.4717
85.8541
86.766
87.4127
90.1869
94.5184
101.281
107.901
113.822
118.304
122.457
131
137.258
140.763
144.017
28.1415
24.3484
22.0466
20.8506
21.4515
23.0557
24.5626
25.6367
28.0828
31.5543
38.6254
46.343
53.8722
61.8056
71.1821
78.7553
80.8227
78.5305
80.1322
2.58431
0.989163
0.0720372
-0.266263
-0.144357
0.21463
0.531249
0.764251
1.04544
1.84592
3.94769
7.18709
11.5198
18.1793
28.3794
33.9396
31.1834
23.642
24.4523
-1.282
-1.24793
-1.23654
-1.23385
-1.23612
-1.24872
-1.24506
-1.2367
-1.232
-1.21674
-1.13468
-0.969425
-0.404619
1.35955
4.62632
8.23643
6.44573
-0.206029
-0.533845
-1.44535
-1.41971
-1.4094
-1.41018
-1.41134
-1.40835
-1.40441
-1.39854
-1.39251
-1.3868
-1.37818
-1.35848
-1.3271
-0.992787
-0.786327
-1.50165
-1.65663
-1.5796
-1.54081
-1.56163
-1.55697
-1.55606
-1.55834
-1.56381
-1.57196
-1.58025
-1.58692
-1.58632
-1.58204
-1.5809
-1.58711
-1.64378
-1.76933
-1.79343
-1.76344
-1.7546
-1.71781
-1.6922
-1.69695
-1.69664
-1.69863
-1.70462
-1.71645
-1.73379
-1.75182
-1.76146
-1.76282
-1.75967
-1.76022
-1.77078
-1.80568
-1.85969
-1.88132
-1.87168
-1.85903
-1.83528
-1.81419
-1.84255
-1.84092
-1.84258
-1.84958
-1.86523
-1.88674
-1.90428
-1.91114
-1.91075
-1.91004
-1.91532
-1.92836
-1.94907
-1.97387
-1.98199
-1.98153
-1.97458
-1.95786
-1.93912
-2.00189
-1.99812
-1.99841
-2.00324
-2.0154
-2.03151
-2.04493
-2.04929
-2.04967
-2.05179
-2.05619
-2.06467
-2.07495
-2.08485
-2.08802
-2.08968
-2.08571
-2.06771
-2.05545
-2.1638
-2.15829
-2.15692
-2.15804
-2.16277
-2.17123
-2.18018
-2.18524
-2.18649
-2.18492
-2.18788
-2.1946
-2.19907
-2.20113
-2.19932
-2.20379
-2.20159
-2.18407
-2.17396
-2.31446
-2.3103
-2.30836
-2.30893
-2.31061
-2.3139
-2.31616
-2.31761
-2.31867
-2.31949
-2.32209
-2.3256
-2.32789
-2.32795
-2.32315
-2.33504
-2.33992
-2.3274
-2.31846
-2.45593
-2.45372
-2.45259
-2.45344
-2.45437
-2.45409
-2.45269
-2.45237
-2.45342
-2.45521
-2.45675
-2.45906
-2.46336
-2.46274
-2.46298
-2.47592
-2.49281
-2.48872
-2.47769
-2.59331
-2.59274
-2.59296
-2.59412
-2.59473
-2.59346
-2.59099
-2.58988
-2.59046
-2.59149
-2.5923
-2.59419
-2.59909
-2.60105
-2.60643
-2.61627
-2.63624
-2.64171
-2.63039
-2.72774
-2.7279
-2.72894
-2.73075
-2.73188
-2.73062
-2.72828
-2.72669
-2.7263
-2.72641
-2.72712
-2.72884
-2.73273
-2.73829
-2.74549
-2.74789
-2.76098
-2.77255
-2.76806
-2.85989
-2.86001
-2.86086
-2.86233
-2.8631
-2.86216
-2.86053
-2.85929
-2.85886
-2.85924
-2.86032
-2.86228
-2.8659
-2.87283
-2.87857
-2.8788
-2.89071
-2.89556
-2.8941
-2.99052
-2.99027
-2.99058
-2.99114
-2.9914
-2.99097
-2.99002
-2.9894
-2.98946
-2.9903
-2.99192
-2.99441
-2.99817
-3.00401
-3.0128
-3.02067
-3.02911
-3.0261
-3.0236
-3.12039
-3.11974
-3.11956
-3.11958
-3.11952
-3.11919
-3.11876
-3.11864
-3.11908
-3.12024
-3.12219
-3.12504
-3.12912
-3.13486
-3.1457
-3.15986
-3.16389
-3.162
-3.15981
-3.24986
-3.24889
-3.24835
-3.24803
-3.24777
-3.24748
-3.2473
-3.24746
-3.24811
-3.24938
-3.25137
-3.25416
-3.25805
-3.26326
-3.27192
-3.28435
-3.28831
-3.29174
-3.29383
-3.379
-3.37783
-3.37705
-3.37652
-3.37613
-3.37586
-3.37578
-3.37604
-3.37674
-3.37794
-3.37972
-3.38213
-3.3853
-3.38925
-3.39473
-3.40275
-3.40712
-3.41136
-3.4132
-3.50781
-3.50652
-3.50559
-3.50493
-3.50447
-3.5042
-3.50415
-3.50441
-3.50506
-3.5061
-3.50759
-3.5095
-3.51186
-3.51458
-3.51783
-3.52257
-3.52547
-3.52619
-3.52382
-3.63628
-3.63494
-3.63394
-3.63321
-3.6327
-3.6324
-3.63234
-3.63256
-3.63311
-3.63399
-3.63518
-3.63665
-3.63835
-3.64017
-3.64205
-3.6445
-3.64558
-3.64439
-3.64034
-3.76445
-3.7631
-3.76207
-3.7613
-3.76076
-3.76044
-3.76035
-3.76051
-3.76095
-3.76167
-3.76261
-3.76373
-3.76496
-3.76618
-3.76727
-3.76842
-3.76854
-3.76695
-3.76306
-3.89234
-3.89102
-3.88999
-3.8892
-3.88864
-3.88829
-3.88817
-3.88827
-3.88861
-3.88915
-3.88991
-3.89076
-3.89167
-3.89253
-3.8932
-3.89372
-3.89348
-3.89209
-3.88912
-4.01998
-4.01871
-4.0177
-4.01691
-4.01635
-4.01598
-4.01582
-4.01586
-4.0161
-4.01653
-4.0171
-4.01777
-4.01845
-4.01907
-4.01952
-4.01978
-4.01951
-4.01836
-4.01595
-4.1474
-4.14618
-4.14521
-4.14445
-4.14388
-4.1435
-4.14331
-4.1433
-4.14346
-4.14377
-4.14421
-4.14472
-4.14524
-4.14569
-4.14599
-4.14614
-4.14605
-4.14522
-4.14343
-4.27461
-4.27347
-4.27255
-4.27182
-4.27126
-4.27088
-4.27066
-4.2706
-4.27069
-4.27092
-4.27124
-4.27163
-4.27201
-4.27236
-4.27256
-4.27266
-4.27276
-4.27224
-4.27107
-4.40165
-4.4006
-4.39973
-4.39904
-4.3985
-4.39812
-4.39788
-4.39779
-4.39782
-4.39797
-4.39821
-4.39848
-4.39877
-4.39904
-4.39927
-4.3994
-4.39943
-4.39911
-4.39847
-4.52854
-4.52757
-4.52677
-4.52612
-4.52561
-4.52524
-4.52499
-4.52487
-4.52486
-4.52495
-4.52511
-4.52531
-4.52553
-4.52574
-4.52597
-4.52611
-4.52613
-4.52586
-4.5256
-4.65529
-4.65442
-4.65369
-4.65309
-4.65261
-4.65225
-4.652
-4.65186
-4.65182
-4.65186
-4.65197
-4.65211
-4.65227
-4.65242
-4.6526
-4.65277
-4.65278
-4.65259
-4.65247
-4.78192
-4.78115
-4.78049
-4.77995
-4.77951
-4.77917
-4.77892
-4.77877
-4.7787
-4.77871
-4.77878
-4.77888
-4.77899
-4.77909
-4.77921
-4.77934
-4.7794
-4.77926
-4.77912
-4.90845
-4.90777
-4.9072
-4.90672
-4.90632
-4.906
-4.90577
-4.90561
-4.90553
-4.90551
-4.90554
-4.9056
-4.90567
-4.90574
-4.90581
-4.90588
-4.90593
-4.90583
-4.90571
-5.03488
-5.03431
-5.03382
-5.0334
-5.03305
-5.03277
-5.03255
-5.0324
-5.0323
-5.03226
-5.03227
-5.0323
-5.03235
-5.03239
-5.03242
-5.03245
-5.03247
-5.03242
-5.03235
-5.16123
-5.16076
-5.16036
-5.16001
-5.15972
-5.15947
-5.15928
-5.15914
-5.15904
-5.15899
-5.15897
-5.15898
-5.159
-5.15902
-5.15904
-5.15905
-5.15907
-5.15907
-5.15902
-5.28751
-5.28715
-5.28684
-5.28656
-5.28633
-5.28613
-5.28597
-5.28584
-5.28575
-5.28569
-5.28566
-5.28564
-5.28565
-5.28565
-5.28567
-5.28568
-5.2857
-5.28572
-5.28571
-5.41373
-5.41348
-5.41326
-5.41307
-5.4129
-5.41275
-5.41263
-5.41253
-5.41244
-5.41238
-5.41234
-5.4123
-5.41229
-5.41229
-5.4123
-5.41233
-5.41236
-5.4124
-5.41239
-5.5399
-5.53976
-5.53964
-5.53953
-5.53944
-5.53935
-5.53927
-5.5392
-5.53913
-5.53907
-5.53902
-5.53897
-5.53894
-5.53893
-5.53894
-5.53899
-5.53905
-5.53909
-5.53908
-5.66605
-5.66602
-5.666
-5.66598
-5.66597
-5.66594
-5.66592
-5.66588
-5.66585
-5.6658
-5.66575
-5.66569
-5.66563
-5.66558
-5.66561
-5.6657
-5.6658
-5.66585
-5.66579
)
;

boundaryField
{
    leftWall
    {
        type            calculated;
        value           nonuniform List<scalar> 
50
(
5125.6
4322.97
3516.57
2705.48
1890.73
1250.17
999.502
939.112
844.291
718.489
589.866
471.739
382.916
317.639
261.08
207.475
156.061
107.159
64.9905
34.4586
18.962
-0.694426
-2.65209
-2.78364
-2.81748
-2.89051
-2.98334
-3.07691
-3.17991
-3.28654
-3.39617
-3.50818
-3.62212
-3.73764
-3.85449
-3.97248
-4.09146
-4.2113
-4.33186
-4.45299
-4.57451
-4.69624
-4.818
-4.93967
-5.06124
-5.18273
-5.30423
-5.42581
-5.54757
-5.66958
)
;
    }
    rightWall
    {
        type            calculated;
        value           nonuniform List<scalar> 
50
(
2532.52
1781.33
1194.24
878.175
750.802
697.552
638.282
575.727
506.848
427.782
354.23
280.596
209.658
144.017
80.1322
24.4523
-0.533845
-1.54081
-1.6922
-1.81419
-1.93912
-2.05545
-2.17396
-2.31846
-2.47769
-2.63039
-2.76806
-2.8941
-3.0236
-3.15981
-3.29383
-3.4132
-3.52382
-3.64034
-3.76306
-3.88912
-4.01595
-4.14343
-4.27107
-4.39847
-4.5256
-4.65247
-4.77912
-4.90571
-5.03235
-5.15902
-5.28571
-5.41239
-5.53908
-5.66579
)
;
    }
    lowerWall
    {
        type            calculated;
        value           nonuniform List<scalar> 
62
(
5523.75
5542.61
5576.97
5623.63
5678.51
5737.75
5798.02
5856.2
5909.29
5954.49
5989.14
6010.93
6018.09
6009.09
5982.63
5937.53
5875.54
5801.53
5721.74
5641.92
5568.89
5511.88
5479.64
5081.51
4276.96
3463.94
2641.74
1811.4
1119.55
788.814
680.143
596.465
586.365
580.16
575.437
2758.12
1995.78
1316.27
904.11
766.892
716.961
664.227
611.037
3140.21
3098.22
3103.2
3143.92
3177.03
3182.88
3159.46
3096.05
2998.54
2870.01
2743.16
2652.28
2609.12
2605.8
2635.02
2690.05
2767.56
2852.25
2912.39
)
;
    }
    atmosphere
    {
        type            calculated;
        value           nonuniform List<scalar> 
46
(
-5.73061
-5.73021
-5.72971
-5.72932
-5.72914
-5.72907
-5.72905
-5.7291
-5.72924
-5.7294
-5.7295
-5.72956
-5.72957
-5.72954
-5.72949
-5.72941
-5.72933
-5.72924
-5.72915
-5.72908
-5.72904
-5.72904
-5.72904
-5.72904
-5.72903
-5.72904
-5.72905
-5.72907
-5.72911
-5.72915
-5.7292
-5.72923
-5.72925
-5.72926
-5.72926
-5.72924
-5.72922
-5.72918
-5.72914
-5.72909
-5.72905
-5.72905
-5.72907
-5.72916
-5.72922
-5.72906
)
;
    }
    defaultFaces
    {
        type            empty;
    }
}


// ************************************************************************* //
