/*--------------------------------*- C++ -*----------------------------------*\
| =========                 |                                                 |
| \\      /  F ield         | OpenFOAM: The Open Source CFD Toolbox           |
|  \\    /   O peration     | Version:  2312                                  |
|   \\  /    A nd           | Website:  www.openfoam.com                      |
|    \\/     M anipulation  |                                                 |
\*---------------------------------------------------------------------------*/
FoamFile
{
    version     2.0;
    format      ascii;
    arch        "LSB;label=32;scalar=64";
    class       volScalarField;
    location    "0.1";
    object      alpha.galistan;
}
// * * * * * * * * * * * * * * * * * * * * * * * * * * * * * * * * * * * * * //

dimensions      [0 0 0 0 0 0 0];

internalField   nonuniform List<scalar> 
2268
(
1
1
1
1
1
1
1
1
1
1
1
1
1
1
1
1
1
0.9029
0.196101
5.26254e-11
8.75955e-11
4.00684e-11
5.39018e-12
1
1
1
1
1
1
1
1
1
1
1
1
1
1
1
1
0.959802
0.495565
0.0265722
5.15859e-11
5.0544e-11
2.75317e-11
5.06497e-12
1
1
1
1
1
1
1
1
1
1
1
1
1
1
1
0.998471
0.649685
0.0830207
2.75088e-10
2.82875e-10
1.55826e-10
4.07092e-11
6.07188e-12
1
1
1
1
1
1
1
1
1
1
1
1
1
0.999996
0.999996
0.789003
0.189681
5.86702e-10
5.94342e-10
3.23366e-10
1.38821e-10
4.40135e-11
6.74937e-12
1
1
1
1
1
1
1
1
1
1
1
1
0.999971
0.999959
0.909311
0.325766
0.00427945
2.4247e-09
5.90026e-10
2.96948e-10
1.3267e-10
4.46133e-11
7.07169e-12
1
1
1
1
1
1
1
1
1
1
1
0.999988
0.999934
0.999933
0.536289
0.0310777
5.19327e-10
8.18303e-10
5.16721e-10
2.90598e-10
1.2612e-10
4.25879e-11
6.44651e-12
1
1
1
1
1
1
1
1
1
1
1
0.999982
0.999873
0.859254
0.161275
2.99738e-10
5.20499e-10
7.10714e-10
4.74939e-10
2.58197e-10
1.14364e-10
4.03947e-11
6.55109e-12
1
1
1
1
1
1
1
1
1
1
1
1
0.99945
0.604626
0.0318807
3.0085e-10
5.17817e-10
6.75049e-10
4.53209e-10
2.3823e-10
1.02181e-10
3.89706e-11
7.22531e-12
2.50063e-27
4.88452e-26
5.6569e-25
3.81081e-24
2.01454e-25
1.20983e-26
3.35444e-28
2.18263e-29
1.04376e-30
8.58235e-33
6.11704e-34
1.9697e-35
3.61196e-37
4.99441e-39
7.37322e-41
1.16194e-42
1.39794e-44
1.0008e-46
3.16659e-49
1.10839e-25
2.21633e-24
2.17965e-23
8.8672e-23
4.204e-24
2.39322e-25
2.06883e-26
1.40873e-27
6.7068e-29
2.42228e-30
6.9827e-32
1.64118e-33
3.18707e-35
5.20144e-37
7.11485e-39
7.96947e-41
7.05631e-43
4.43484e-45
1.42392e-47
2.20032e-24
4.05255e-23
5.78401e-22
1.89059e-21
4.02313e-22
5.38358e-24
1.36784e-25
9.92722e-27
1.1232e-27
6.29321e-30
5.2853e-31
2.7573e-32
8.73472e-34
2.36652e-35
5.3071e-37
7.9737e-39
7.54925e-41
4.38896e-43
1.26628e-45
1.43921e-23
5.9806e-22
9.57286e-21
2.30463e-20
3.76413e-21
1.7321e-22
8.40539e-25
9.13069e-28
1.50841e-28
2.50454e-29
2.28743e-30
1.3715e-31
5.84734e-33
1.83751e-34
4.10301e-36
6.35116e-38
6.56793e-40
4.21102e-42
1.32316e-44
2.00802e-21
1.74215e-20
1.48787e-19
2.2238e-19
2.69961e-20
1.6773e-21
9.14546e-23
8.39603e-25
5.05208e-26
6.28896e-27
3.65191e-28
1.42754e-29
4.75264e-31
3.41785e-33
1.34302e-34
2.19841e-36
2.48205e-38
2.09248e-40
7.95502e-43
3.51479e-20
2.44611e-17
5.70269e-17
2.70887e-17
2.83943e-18
2.01716e-20
3.1135e-22
8.26171e-24
2.24848e-26
1.21636e-27
5.17217e-29
2.17367e-30
8.78574e-32
2.72989e-33
6.27341e-35
9.79485e-37
1.02794e-38
6.59737e-41
1.95335e-43
1.8499e-20
2.91162e-15
1.87425e-15
4.83795e-16
5.32327e-17
9.05325e-19
7.24149e-22
9.25145e-24
1.32181e-24
1.14942e-25
4.56992e-27
1.07406e-28
1.65078e-30
2.12979e-32
3.56528e-34
6.99368e-36
1.02283e-37
9.04795e-40
3.64012e-42
6.16509e-14
3.9174e-14
1.09447e-14
2.03376e-15
1.99935e-16
4.36426e-18
1.09123e-20
2.27635e-22
5.49676e-23
5.52819e-24
2.89455e-25
8.95524e-27
1.84135e-28
3.05116e-30
5.03302e-32
7.87413e-34
9.33897e-36
6.94043e-38
2.42171e-40
1
1
1
1
1
1
1
1
1
1
1
0.968251
0.880216
0.292146
4.19981e-10
2.99738e-10
4.80509e-10
4.56535e-10
3.08673e-10
1.49074e-10
7.56817e-11
2.98791e-11
8.88134e-12
1
1
1
1
1
1
1
1
0.995794
0.952139
0.814509
0.341885
0.168505
0.0315312
2.73914e-07
4.56409e-10
5.40408e-10
2.5966e-10
1.47544e-10
7.22236e-11
3.72854e-11
1.6394e-11
6.41678e-12
0.973334
0.969177
0.959724
0.942528
0.913454
0.866321
0.792588
0.680471
0.490807
0.273048
0.0752613
0.000283313
1.06262e-08
0.00423793
0.00259392
3.47641e-06
7.91878e-10
3.96564e-10
1.22652e-10
3.87928e-11
1.62473e-11
7.38294e-12
2.22596e-12
0.337791
0.322495
0.292519
0.249265
0.195184
0.134308
0.0724771
0.0144094
4.63316e-10
1.577e-11
-1.06473e-29
4.57625e-11
9.09909e-29
0.001431
0.00266108
0.00033285
8.43631e-10
4.16155e-10
1.11586e-10
2.61284e-11
7.98873e-12
2.61879e-12
8.80076e-13
4.87347e-140
-7.22358e-137
-9.27747e-134
-1.9462e-128
2.97474e-133
-1.59359e-124
-6.53354e-121
1.37016e-114
-1.71273e-115
-8.52833e-111
4.58333e-88
-2.16966e-92
1.12026e-83
2.79299e-105
-3.25962e-94
-9.21967e-26
8.2815e-10
4.13632e-10
1.459e-10
3.881e-11
7.6632e-12
1.60587e-12
3.60423e-13
3.80916e-121
5.50107e-118
4.95261e-113
6.71636e-110
5.7103e-108
2.91535e-106
3.41709e-100
8.59877e-96
2.91983e-96
1.16861e-90
7.42852e-88
1.10134e-81
1.98855e-83
5.35183e-87
3.67741e-92
9.12157e-94
-9.12157e-94
2.35599e-104
1.20523e-101
9.12159e-104
1.03732e-91
4.24052e-87
2.08051e-86
2.21602e-119
5.98308e-116
5.99474e-111
4.98628e-108
5.61636e-105
7.16072e-104
5.65869e-96
2.84034e-93
3.5263e-94
4.0031e-88
4.3872e-86
3.78434e-80
6.69067e-82
1.79125e-85
1.68147e-89
6.70413e-87
2.96766e-85
4.40568e-86
2.67425e-83
2.24221e-74
4.6701e-70
2.41211e-69
2.02086e-67
1.16523e-117
4.82633e-114
5.26735e-109
3.84224e-106
6.88342e-103
4.96989e-102
4.2981e-94
4.01288e-91
3.73242e-92
5.13135e-86
3.6438e-84
1.21674e-78
2.11272e-80
5.39973e-84
9.61615e-86
1.03197e-83
3.98864e-84
3.73944e-84
4.6594e-78
1.01784e-69
2.18178e-66
1.36033e-65
7.29814e-66
5.73176e-116
2.66985e-112
3.1749e-107
3.19526e-104
5.91765e-101
1.90792e-100
1.59463e-92
2.7163e-89
3.81744e-90
3.14281e-84
1.7353e-82
3.56357e-77
6.12763e-79
1.47345e-82
5.26793e-81
2.32776e-80
3.77551e-83
7.91288e-81
9.99215e-74
1.04864e-66
1.47611e-64
1.84585e-63
2.4889e-63
2.29206e-114
1.02911e-110
1.307e-105
1.88311e-102
3.24888e-99
3.58261e-99
2.86409e-91
7.39383e-88
3.50614e-88
9.86866e-83
5.31303e-81
9.26089e-76
1.58667e-77
3.60803e-81
3.95232e-77
5.53681e-78
2.53754e-80
5.957e-75
6.78595e-71
4.51343e-65
3.1917e-63
1.15361e-61
5.41115e-62
6.61039e-113
3.17166e-109
3.66288e-104
6.56126e-101
1.16682e-97
1.12694e-96
9.91572e-89
1.67791e-86
1.82964e-84
1.86609e-81
9.55284e-78
2.1171e-74
3.57196e-76
7.63005e-80
1.53641e-74
3.47142e-76
1.15305e-75
1.52935e-69
1.59067e-67
7.33459e-64
3.76755e-62
3.1327e-60
7.05726e-61
1.25333e-109
2.39708e-105
2.38898e-102
4.46962e-99
6.65644e-96
2.48251e-95
2.49553e-87
4.95505e-84
1.0659e-82
1.44345e-78
3.63157e-76
4.95418e-73
6.86184e-75
1.28809e-78
8.42959e-72
2.47836e-72
1.11541e-71
7.37806e-67
3.38601e-65
6.43239e-63
2.82975e-60
3.57755e-59
9.91634e-59
3.08577e-107
5.26545e-103
4.1339e-100
3.83507e-97
9.18777e-94
3.69949e-94
4.75005e-86
8.54868e-83
4.05682e-81
4.4841e-77
7.99493e-75
1.89134e-71
1.26391e-73
1.49161e-77
1.58942e-69
3.1588e-69
1.9798e-69
4.74611e-65
1.5126e-62
1.44554e-61
2.20009e-59
8.7554e-57
1.26063e-57
3.66928e-105
4.39062e-101
4.07787e-98
1.07993e-95
8.28685e-92
5.0462e-93
5.76616e-85
7.4208e-82
7.68402e-80
9.99204e-76
7.78877e-74
1.03217e-69
3.42322e-72
2.91152e-75
1.32455e-67
2.26058e-66
5.28126e-68
9.66509e-64
4.77206e-61
8.86804e-61
4.82586e-58
1.42669e-55
8.40697e-56
4.12327e-103
1.8755e-99
2.59153e-96
4.27388e-93
4.79845e-90
1.00766e-91
2.51162e-82
9.11777e-80
3.57374e-77
1.1397e-74
1.87086e-72
5.03841e-68
1.30026e-70
1.54083e-70
5.47301e-66
2.22413e-64
1.41893e-65
2.28063e-62
2.17359e-59
1.34067e-59
1.60492e-56
4.47423e-54
1.1673e-54
9.92744e-98
9.88542e-95
2.65518e-91
3.96558e-88
5.64044e-85
5.1369e-87
6.19464e-80
2.58729e-77
5.92223e-75
1.08839e-72
7.61928e-70
4.36105e-66
1.72346e-68
5.83235e-66
3.30477e-64
8.57352e-63
4.64875e-62
2.29505e-59
3.45634e-57
1.46817e-54
1.77663e-53
9.68152e-52
6.90645e-51
3.46401e-93
1.02873e-90
1.7242e-86
2.24454e-83
2.69791e-80
3.4648e-82
1.29616e-75
3.82988e-73
8.87063e-71
1.21557e-68
7.30779e-66
6.39431e-64
4.53231e-65
8.56547e-62
2.55363e-60
8.87204e-59
9.29162e-58
9.96138e-56
4.43199e-54
1.06459e-51
2.97609e-51
1.29944e-49
1.67764e-46
1.36529e-90
6.8218e-88
2.54023e-83
2.98138e-80
1.60596e-77
2.22493e-77
7.77064e-73
1.7778e-70
4.16627e-68
3.82707e-66
2.79371e-64
4.7634e-63
1.40574e-61
6.22449e-59
1.03578e-57
3.1553e-56
5.37432e-55
1.7875e-53
4.10912e-52
1.33818e-50
1.87855e-49
2.67716e-48
1.24944e-43
1.85061e-89
2.83098e-86
9.7444e-82
1.04441e-78
2.57632e-76
6.18433e-74
1.65115e-71
3.42283e-69
8.53558e-67
4.65912e-65
5.21938e-63
8.82503e-61
6.24777e-59
1.36787e-57
2.0436e-56
5.44108e-55
4.05581e-53
5.55583e-52
1.79554e-50
3.98867e-49
2.10275e-47
2.18351e-45
2.77046e-42
6.132e-87
2.07938e-83
3.7249e-80
3.48824e-77
1.85995e-74
5.78009e-72
1.04993e-69
1.28892e-67
1.81649e-65
3.14578e-63
3.45222e-61
2.41577e-59
1.16185e-57
3.55816e-56
9.71824e-55
2.43659e-53
5.86337e-52
1.35172e-50
2.5778e-49
7.75372e-48
7.54791e-46
6.3568e-44
5.01748e-41
1.12709e-85
2.98427e-82
3.80208e-79
2.58764e-76
1.0654e-73
2.96852e-71
6.05836e-69
9.60256e-67
1.19074e-64
1.1078e-62
7.38402e-61
3.66812e-59
1.54429e-57
6.53041e-56
2.50556e-54
7.13672e-53
1.87034e-51
4.12409e-50
6.84144e-49
7.14522e-48
3.50044e-47
1.47464e-45
1.07193e-43
2.87056e-86
5.66907e-83
5.29633e-80
2.96852e-77
1.10423e-74
2.87536e-72
5.42479e-70
7.63618e-68
8.23884e-66
7.01582e-64
4.8832e-62
2.84912e-60
1.35921e-58
5.16054e-57
1.65748e-55
4.77179e-54
1.34933e-52
3.95472e-51
1.03324e-49
2.01864e-48
2.50344e-47
1.71903e-46
1.36659e-44
7.19217e-88
1.08189e-84
7.92978e-82
3.76354e-79
1.30852e-76
3.56046e-74
7.80983e-72
1.38678e-69
1.97748e-67
2.24844e-65
2.04023e-63
1.47847e-61
8.45464e-60
3.78499e-58
1.34375e-56
3.9111e-55
1.06796e-53
3.59737e-52
1.3202e-50
3.78675e-49
7.21842e-48
8.91763e-47
1.1278e-45
9.90742e-90
1.3419e-86
9.16101e-84
4.18602e-81
1.42036e-78
3.72198e-76
7.61091e-74
1.21446e-71
1.51598e-69
1.49859e-67
1.19725e-65
7.93425e-64
4.51356e-62
2.29237e-60
1.06008e-58
4.33665e-57
1.53523e-55
4.08873e-54
8.27981e-53
1.62653e-51
3.89365e-50
8.00671e-49
1.17649e-47
1.15358e-91
1.71669e-88
1.30326e-85
6.47169e-83
2.28953e-80
6.0349e-78
1.22484e-75
1.96966e-73
2.57194e-71
2.77601e-69
2.49688e-67
1.86723e-65
1.15077e-63
5.79363e-62
2.37016e-60
7.87598e-59
2.14932e-57
4.98826e-56
1.04909e-54
2.09978e-53
3.81658e-52
5.4754e-51
5.98423e-50
3.9098e-94
5.3165e-91
3.67225e-88
1.69772e-85
5.76793e-83
1.49154e-80
2.97732e-78
4.62326e-76
5.62603e-74
5.42319e-72
4.21996e-70
2.74397e-68
1.57531e-66
8.43483e-65
4.2339e-63
1.88045e-61
6.82796e-60
1.8893e-58
3.86928e-57
6.95104e-56
1.58766e-54
3.79522e-53
7.1506e-52
1.39675e-96
1.83587e-93
1.17485e-90
4.87163e-88
1.4738e-85
3.48806e-83
6.77951e-81
1.11718e-78
1.58112e-76
1.91362e-74
1.95472e-72
1.66279e-70
1.16721e-68
6.73191e-67
3.18667e-65
1.23858e-63
3.95716e-62
1.04277e-60
2.29539e-59
4.39905e-58
8.08854e-57
1.59607e-55
3.34857e-54
1.48049e-99
2.18304e-96
1.59624e-93
7.67218e-91
2.69659e-88
7.30268e-86
1.57158e-83
2.74618e-81
3.96037e-79
4.7713e-77
4.84164e-75
4.15651e-73
3.02247e-71
1.85911e-69
9.63988e-68
4.18988e-66
1.51379e-64
4.51304e-63
1.12014e-61
2.41492e-60
4.76928e-59
8.90259e-58
1.6732e-56
1.55837e-102
2.40115e-99
1.78648e-96
8.50532e-94
2.89311e-91
7.455e-89
1.51475e-86
2.51778e-84
3.56134e-82
4.44471e-80
4.97858e-78
4.95384e-76
4.26847e-74
3.11294e-72
1.89845e-70
9.65884e-69
4.10893e-67
1.46368e-65
4.45925e-64
1.79849e-62
2.48915e-60
4.18229e-58
4.92249e-56
7.4103e-106
1.24435e-102
1.01575e-99
5.36554e-97
2.05925e-94
6.11345e-92
1.45931e-89
2.87247e-87
4.74066e-85
6.6302e-83
7.90336e-81
8.02703e-79
6.89365e-77
4.99841e-75
3.29641e-73
2.58194e-71
2.84817e-69
3.37518e-67
3.44627e-65
2.936e-63
2.19347e-61
1.52597e-59
1.02164e-57
3.58614e-109
6.45062e-106
5.62679e-103
3.19042e-100
1.33535e-97
4.46674e-95
1.26509e-92
3.15356e-90
7.03493e-88
1.40134e-85
2.46648e-83
3.80138e-81
5.11395e-79
6.02187e-77
6.2556e-75
5.81922e-73
4.99092e-71
4.1277e-69
3.09472e-67
1.60151e-65
3.9094e-64
1.5171e-61
9.70785e-60
8.72901e-113
1.95892e-109
2.23504e-106
1.72157e-103
9.95949e-101
4.55539e-98
1.69718e-95
5.26009e-93
1.37877e-90
3.09132e-88
5.94e-86
9.66729e-84
1.3061e-81
1.46055e-79
1.43473e-77
1.41342e-75
1.46923e-73
1.39418e-71
1.06656e-69
7.86201e-68
7.66024e-66
7.57867e-64
6.02646e-62
3.18329e-116
8.87049e-113
1.23971e-109
1.14569e-106
7.76446e-104
4.05609e-101
1.67882e-98
5.60759e-96
1.538e-93
3.53798e-91
6.98239e-89
1.1949e-86
1.75278e-84
2.16929e-82
2.31119e-80
2.30101e-78
2.42402e-76
2.90311e-74
3.60205e-72
3.98981e-70
3.77844e-68
3.22678e-66
2.63957e-64
5.32593e-120
1.70461e-116
2.62519e-113
2.58307e-110
1.84679e-107
1.04883e-104
5.03822e-102
2.09679e-99
7.46123e-97
2.21151e-94
5.37321e-92
1.07662e-89
1.84071e-87
2.8331e-85
4.07975e-83
5.54272e-81
7.17773e-79
8.92191e-77
1.03371e-74
1.08686e-72
1.05753e-70
9.88267e-69
8.97544e-67
4.51001e-124
1.76527e-120
3.44871e-117
4.41023e-114
4.08715e-111
2.89067e-108
1.61072e-105
7.24753e-103
2.70115e-100
8.59542e-98
2.4109e-95
6.08408e-93
1.37526e-90
2.70288e-88
4.43523e-86
5.9467e-84
6.94025e-82
8.63609e-80
1.25875e-77
1.78624e-75
2.19868e-73
2.43461e-71
2.58258e-69
3.35432e-128
1.64047e-124
3.93606e-121
6.10498e-118
6.82482e-115
5.8316e-112
3.95311e-109
2.18128e-106
9.97702e-104
3.82961e-101
1.24286e-98
3.42586e-96
8.06478e-94
1.6425e-91
2.97455e-89
4.99406e-87
8.07183e-85
1.26715e-82
1.90136e-80
2.69348e-78
3.62462e-76
4.71191e-74
5.9965e-72
8.1819e-133
5.04888e-129
1.51363e-125
2.91066e-122
4.00374e-119
4.17077e-116
3.40356e-113
2.22249e-110
1.17794e-107
5.12738e-105
1.85983e-102
5.75835e-100
1.5828e-97
4.05636e-95
1.00069e-92
2.34943e-90
5.02145e-88
9.31675e-86
1.45048e-83
1.87115e-81
2.0571e-79
2.58353e-77
5.99874e-75
7.62729e-138
5.77192e-134
2.14394e-130
5.17166e-127
9.0597e-124
1.22261e-120
1.31554e-117
1.15273e-114
8.34198e-112
5.04096e-109
2.57105e-106
1.12065e-103
4.23888e-101
1.41619e-98
4.2502e-96
1.1593e-93
2.88628e-91
6.55459e-89
1.3581e-86
2.58944e-84
4.65423e-82
8.21632e-80
1.50609e-77
2.01114e-143
1.99231e-139
9.61248e-136
2.98157e-132
6.65174e-129
1.14033e-125
1.57359e-122
1.80674e-119
1.76215e-116
1.47453e-113
1.06208e-110
6.59513e-108
3.54185e-105
1.65402e-102
6.76263e-100
2.44121e-97
7.88178e-95
2.32069e-92
6.35932e-90
1.63999e-87
3.99618e-85
9.33104e-83
2.15899e-80
5.01689e-150
6.41033e-146
4.18396e-142
1.86464e-138
6.19611e-135
1.59633e-131
3.29958e-128
5.66866e-125
8.2995e-122
1.03936e-118
1.09757e-115
9.60252e-113
6.91362e-110
4.16278e-107
2.20445e-104
1.11317e-101
5.69072e-99
2.89042e-96
1.36656e-93
5.74351e-91
2.13098e-88
7.15952e-86
2.28211e-83
5.43722e-158
1.32949e-153
1.53139e-149
1.1555e-145
6.37253e-142
2.70541e-138
9.0998e-135
2.46329e-131
5.4026e-128
9.60805e-125
1.38239e-121
1.60763e-118
1.53333e-115
1.29343e-112
1.16843e-109
1.29093e-106
1.4923e-103
1.50722e-100
1.26121e-97
8.87903e-95
5.46463e-92
3.06226e-89
1.6162e-86
2.42147e-170
1.60953e-165
4.17276e-161
6.94685e-157
8.43246e-153
7.89698e-149
5.92312e-145
3.67264e-141
1.93968e-137
8.96818e-134
3.70469e-130
1.37915e-126
4.6137e-123
1.37495e-119
3.61809e-116
8.35175e-113
1.68715e-109
3.00634e-106
4.82084e-103
7.07196e-100
1.03427e-96
1.57977e-93
2.02281e-90
6.90425e-12
4.00969e-12
2.14506e-12
1.2035e-12
3.96609e-12
2.51937e-12
1.50468e-12
8.4459e-13
1.59368e-12
1.03504e-12
6.46726e-13
4.27646e-13
4.87243e-13
2.84077e-13
1.78896e-13
7.32984e-14
1.50218e-13
7.05306e-14
1.60419e-14
2.35791e-15
-2.7216e-89
8.35954e-65
2.37083e-60
3.17925e-55
3.94595e-67
5.90155e-47
9.47307e-42
7.9493e-37
2.36936e-65
1.94726e-51
1.25336e-42
1.23115e-37
7.1478e-64
1.42064e-54
3.98912e-44
3.98312e-38
1.06856e-62
6.15142e-59
1.78903e-46
2.11564e-38
1.07421e-61
2.18052e-62
4.2055e-48
2.06849e-38
2.42417e-59
4.72929e-61
4.45693e-48
3.40858e-38
2.22137e-58
6.0144e-58
5.17256e-48
4.09747e-38
7.26773e-57
1.00419e-52
7.18771e-48
7.30438e-48
1.56756e-54
1.05621e-47
5.04976e-45
7.3423e-48
2.2124e-50
1.74102e-43
3.82202e-41
2.34259e-37
3.57734e-46
7.25603e-41
6.33083e-39
5.13538e-38
3.62455e-43
1.51202e-39
5.8724e-38
4.673e-38
3.31222e-41
3.37528e-39
1.35063e-37
2.12436e-37
7.7686e-40
6.13836e-39
1.35867e-37
2.74111e-37
5.45132e-42
6.25673e-40
1.15166e-38
1.45953e-37
3.87503e-43
2.07358e-41
4.94127e-40
9.51106e-40
5.32653e-44
3.53662e-43
1.26613e-42
1.0252e-41
1.32849e-46
4.13338e-45
3.02225e-44
6.26511e-58
2.45846e-48
4.10635e-47
4.58463e-47
2.41697e-58
1.14743e-50
9.77406e-50
9.13231e-49
-3.53419e-61
7.2796e-53
6.66495e-52
6.94302e-52
-5.36297e-63
3.24917e-55
1.18848e-54
9.47916e-54
1.49447e-62
4.08267e-54
1.21411e-52
2.8617e-51
5.70948e-50
6.66608e-56
1.91367e-54
4.53552e-53
8.2793e-52
6.05934e-58
1.70464e-56
4.16172e-55
7.76696e-54
4.18721e-60
1.2266e-58
3.01183e-57
5.82129e-56
2.10185e-62
6.90762e-61
1.80618e-59
3.58658e-58
7.87104e-65
2.78628e-63
7.83365e-62
1.77879e-60
2.66188e-67
1.07946e-65
3.28349e-64
8.09095e-63
7.49279e-70
3.68686e-68
1.34041e-66
3.669e-65
1.47315e-72
1.03808e-70
4.58783e-69
1.48553e-67
2.99083e-75
2.42485e-73
1.29919e-71
5.06526e-70
5.14035e-78
4.79771e-76
3.1214e-74
1.47296e-72
7.25866e-81
8.26987e-79
6.5198e-77
3.72176e-75
8.24107e-84
1.2639e-81
1.22545e-79
8.3781e-78
6.24261e-87
1.62358e-84
2.1146e-82
1.74997e-80
3.88374e-13
1.17176e-13
2.7237e-14
4.28779e-15
3.00634e-16
3.02623e-18
2.41865e-20
2.98596e-21
1.32803e-22
5.84388e-25
6.21731e-26
4.26183e-27
2.33445e-28
1.02461e-29
3.31836e-31
7.56463e-33
1.15597e-34
1.06744e-36
4.49354e-39
3.01284e-13
8.49208e-14
1.90838e-14
1.70089e-15
3.62882e-17
8.23502e-20
2.66537e-21
4.03507e-22
2.03566e-23
1.09502e-25
1.27007e-26
1.2193e-27
8.65847e-29
4.06491e-30
1.29245e-31
2.81855e-33
4.10478e-35
3.63171e-37
1.48091e-39
1.29874e-13
3.67222e-14
3.95111e-15
2.55182e-16
5.53148e-18
1.58199e-20
2.61319e-22
3.38267e-23
3.49389e-24
4.4824e-25
5.41296e-26
4.29542e-27
2.74074e-28
1.34221e-29
4.38777e-31
9.3982e-33
1.3041e-34
1.08221e-36
4.12185e-39
1.8918e-14
7.08192e-15
1.41316e-15
3.12628e-17
1.25296e-19
9.1237e-22
1.15322e-22
1.85883e-23
3.06433e-24
3.73847e-25
4.89025e-26
3.716e-27
1.57082e-28
5.81068e-30
1.83039e-31
3.89197e-33
5.19067e-35
4.06461e-37
1.45684e-39
6.04497e-16
8.74139e-17
6.43292e-18
8.53872e-20
1.15971e-21
4.82766e-22
7.32076e-23
1.17025e-23
1.53889e-24
2.15385e-25
1.95206e-26
1.26987e-27
4.56599e-29
1.52945e-30
4.48357e-32
8.81239e-34
1.08947e-35
7.97838e-38
2.74092e-40
6.76457e-32
9.93303e-37
1.61884e-24
8.78722e-23
3.37804e-22
1.94375e-22
3.09264e-23
4.81246e-24
6.43838e-25
6.50763e-26
4.89588e-27
2.78769e-28
1.06737e-29
3.39566e-31
8.06998e-33
1.33367e-34
1.49941e-36
1.04304e-38
2.95896e-41
2.7409e-30
2.09781e-28
1.73898e-24
5.68888e-23
1.45898e-22
4.95395e-23
1.04081e-23
1.44624e-24
1.59783e-25
1.36502e-26
8.99916e-28
4.56865e-29
1.71144e-30
4.96194e-32
1.0388e-33
1.55816e-35
1.63018e-37
1.06626e-39
3.22971e-42
2.88065e-30
1.75768e-28
1.52344e-24
3.66975e-23
5.13157e-23
1.48415e-23
2.33503e-24
3.0258e-25
2.92822e-26
2.20708e-27
1.30144e-28
5.95934e-30
2.07223e-31
5.45214e-33
1.04614e-34
1.46063e-36
1.42885e-38
8.80424e-41
2.56608e-43
1.99682e-30
1.68372e-28
1.04783e-24
1.63232e-23
1.3654e-23
3.15375e-24
4.44654e-25
4.97017e-26
4.28122e-27
2.89569e-28
1.54302e-29
6.40424e-31
2.03209e-32
4.86631e-34
8.63613e-36
1.12735e-37
1.03877e-39
6.08615e-42
1.68527e-44
1.32543e-30
1.38522e-28
5.45232e-25
5.21698e-24
2.8652e-24
5.41843e-25
6.76044e-26
6.70522e-27
5.19279e-28
3.17821e-29
1.53712e-30
5.78802e-32
1.66934e-33
3.65294e-35
6.02035e-37
7.39326e-39
6.47535e-41
3.62608e-43
9.49782e-46
8.80706e-31
2.01238e-27
2.34345e-25
1.24598e-24
4.93641e-25
7.91682e-26
8.62778e-27
7.65297e-28
5.35123e-29
2.97443e-30
1.30681e-31
4.46326e-33
1.17147e-34
2.35778e-36
3.63576e-38
4.23519e-40
3.54317e-42
1.89316e-44
4.66608e-47
8.10832e-31
9.69969e-28
5.49314e-26
2.51106e-25
7.18426e-26
1.00666e-26
9.7252e-28
7.59301e-29
4.76128e-30
2.40578e-31
9.59576e-33
2.9748e-34
7.14141e-36
1.33469e-37
1.94344e-39
2.15833e-41
1.7218e-43
8.72304e-46
2.01482e-48
2.65331e-31
2.11211e-28
7.50957e-27
2.20238e-26
9.59837e-27
1.13314e-27
9.79497e-29
6.80146e-30
3.81576e-31
1.72226e-32
6.15296e-34
1.73682e-35
3.84545e-37
6.74272e-39
9.32739e-41
9.86339e-43
7.45365e-45
3.55433e-47
7.67347e-50
7.44128e-32
3.27674e-29
1.78701e-27
4.23281e-27
4.95352e-28
1.14531e-28
8.94851e-30
5.55722e-31
2.79703e-32
1.13658e-33
3.66134e-35
9.315e-37
1.88879e-38
3.08686e-40
4.0401e-42
4.04147e-44
2.87072e-46
1.2815e-48
2.58437e-51
1.59118e-32
6.9074e-30
2.82169e-28
5.40066e-28
8.36386e-29
1.05144e-29
7.50332e-31
4.18648e-32
1.89566e-33
6.96766e-35
2.03283e-36
4.72044e-38
8.88036e-40
1.3625e-41
1.66562e-43
1.54668e-45
1.0178e-47
4.21931e-50
7.93981e-53
2.71328e-33
1.02921e-30
3.49423e-29
5.61159e-29
9.05016e-30
8.83787e-31
5.81057e-32
2.92986e-33
1.19817e-34
3.99158e-36
1.05935e-37
2.26769e-39
3.98279e-41
5.71385e-43
6.48499e-45
5.56773e-47
3.39029e-49
1.30758e-51
2.30351e-54
7.36684e-34
1.39119e-31
3.7219e-30
5.2054e-30
7.84116e-31
6.82653e-32
4.15892e-33
1.90841e-34
7.0797e-36
2.14118e-37
5.19794e-39
1.03113e-40
1.68819e-42
2.24727e-44
2.35595e-46
1.86817e-48
1.05428e-50
3.79569e-53
6.27537e-56
1.25035e-34
1.67102e-32
3.33113e-31
4.18025e-31
6.02516e-32
4.8404e-33
2.74127e-34
1.15259e-35
3.89619e-37
1.07274e-38
2.39292e-40
4.40126e-42
6.68297e-44
8.21257e-46
7.93967e-48
5.82505e-50
3.05715e-52
1.03145e-54
1.60386e-57
2.32529e-35
1.58455e-33
2.3691e-32
2.7563e-32
4.00171e-33
3.13318e-34
1.65263e-35
6.40411e-37
1.98159e-38
4.98601e-40
1.02477e-41
1.74442e-43
2.44645e-45
2.77181e-47
2.4753e-49
1.68629e-51
8.26764e-54
2.62398e-56
3.84673e-59
4.74315e-36
1.16766e-34
1.35643e-33
1.54163e-33
2.15784e-34
1.83388e-35
9.03418e-37
3.24265e-38
9.22655e-40
2.13084e-41
4.04226e-43
6.35919e-45
8.2298e-47
8.61204e-49
7.13147e-51
4.53116e-53
2.08525e-55
6.24928e-58
8.66242e-61
6.36e-37
7.35067e-36
6.86021e-35
8.0331e-35
9.5473e-36
9.58398e-37
4.43615e-38
1.4823e-39
3.89737e-41
8.30013e-43
1.45624e-44
2.1185e-46
2.53544e-48
2.46021e-50
1.89851e-52
1.13033e-54
4.90544e-57
1.394e-59
1.83394e-62
4.68232e-38
4.27976e-37
3.19039e-36
3.86058e-36
3.78216e-37
4.40828e-38
1.9391e-39
6.06785e-41
1.48234e-42
2.92627e-44
4.76329e-46
6.42682e-48
7.14385e-50
6.46132e-52
4.67166e-54
2.61908e-56
1.07693e-58
2.91611e-61
3.65806e-64
2.56374e-39
2.47282e-38
1.28404e-37
1.51554e-37
1.38687e-38
1.75982e-39
7.48745e-41
2.21034e-42
5.04914e-44
9.29399e-46
1.41003e-47
1.77306e-49
1.8408e-51
1.56106e-53
1.06336e-55
5.64342e-58
2.20994e-60
5.73332e-63
6.89449e-66
1.41953e-40
7.34235e-40
4.79802e-39
4.5933e-39
4.41919e-40
6.03144e-41
2.53951e-42
7.13459e-44
1.53519e-45
2.65257e-47
3.77295e-49
4.44896e-51
4.3416e-53
3.47367e-55
2.24224e-57
1.13316e-59
4.25076e-62
1.06296e-64
1.23226e-67
7.19968e-42
5.87139e-41
8.0947e-41
1.17901e-40
1.22196e-41
1.76569e-42
7.5392e-44
2.03609e-45
4.16091e-47
6.79875e-49
9.12896e-51
1.01649e-52
9.38771e-55
7.13304e-57
4.39093e-59
2.12705e-61
7.69359e-64
1.86611e-66
2.09643e-69
2.22737e-43
2.76837e-42
6.10896e-42
3.1053e-42
3.30558e-43
4.42784e-44
1.956e-45
5.13505e-47
1.00557e-48
1.56626e-50
2.00042e-52
2.11909e-54
1.86553e-56
1.35565e-58
8.01473e-61
3.74845e-63
1.31634e-65
3.11575e-68
3.40447e-71
5.27711e-45
8.70338e-44
2.48375e-43
8.71009e-44
9.32468e-45
9.62198e-46
4.43562e-47
1.14579e-48
2.17046e-50
3.2502e-52
3.9804e-54
4.04311e-56
3.41898e-58
2.39436e-60
1.37011e-62
6.2332e-65
2.13919e-67
4.96612e-70
5.28082e-73
8.38246e-47
2.03888e-45
6.963e-45
2.2393e-45
2.48177e-46
1.84451e-47
8.80829e-49
2.26792e-50
4.1967e-52
6.09594e-54
7.21909e-56
7.08971e-58
5.80634e-60
3.95099e-62
2.20591e-64
9.83156e-67
3.3153e-69
7.57328e-72
7.80581e-75
1.03618e-48
3.71523e-47
1.50275e-46
4.77422e-47
5.62594e-48
3.1757e-49
1.53729e-50
3.99903e-52
7.30082e-54
1.03826e-55
1.1995e-57
1.1489e-59
9.19188e-62
6.12881e-64
3.36426e-66
1.47757e-68
4.91198e-71
1.10521e-73
1.09379e-76
1.07233e-50
5.46229e-49
2.61879e-48
8.31839e-49
1.05556e-49
4.96714e-51
2.37115e-52
6.32573e-54
1.14942e-55
1.61577e-57
1.83776e-59
1.73225e-61
1.36574e-63
8.99415e-66
4.88487e-68
2.12206e-70
6.95999e-73
1.54063e-75
1.44435e-78
9.46042e-53
6.70371e-51
3.81002e-50
1.20818e-50
1.49789e-51
7.08141e-53
3.2576e-54
8.34599e-56
1.65144e-57
2.31743e-59
2.6188e-61
2.45079e-63
1.91787e-65
1.25676e-67
6.77601e-70
2.91482e-72
9.41609e-75
2.04613e-77
1.68751e-80
7.52839e-55
6.95765e-53
4.28328e-52
1.51248e-52
1.83445e-53
9.20132e-55
4.02969e-56
9.64019e-58
2.02435e-59
2.85236e-61
3.25707e-63
3.05567e-65
2.56092e-67
1.56841e-69
8.95797e-72
3.82485e-74
1.21272e-76
2.4261e-79
1.68518e-82
4.77579e-57
5.8852e-55
4.42956e-54
1.68763e-54
2.29259e-55
1.09246e-56
4.55283e-58
1.20431e-59
2.19371e-61
2.99479e-63
3.61009e-65
3.40481e-67
3.26536e-69
1.74896e-71
1.1054e-73
4.78317e-76
1.48187e-78
2.49971e-81
1.77204e-84
2.83339e-59
4.71039e-57
4.62948e-56
1.72243e-56
2.61104e-57
1.19435e-58
4.78149e-60
1.51105e-61
2.61327e-63
3.20655e-65
4.43762e-67
4.21392e-69
3.98348e-71
2.15716e-73
1.22297e-75
5.68469e-78
1.71289e-80
2.75087e-83
2.1229e-86
1.60876e-61
3.73551e-59
4.25337e-58
1.6366e-58
2.54974e-59
1.21599e-60
4.75738e-62
1.65984e-63
3.21886e-65
3.5016e-67
5.76778e-69
5.55728e-71
4.64886e-73
2.86411e-75
1.19238e-77
6.40582e-80
1.86903e-82
3.34856e-85
2.2931e-88
8.04032e-64
2.63982e-61
3.37979e-60
1.45954e-60
2.26316e-61
1.16609e-62
4.55323e-64
1.66794e-65
3.50453e-67
3.62335e-69
6.65144e-71
6.49933e-73
5.18361e-75
3.35959e-77
1.10934e-79
6.83377e-82
1.9234e-84
3.57886e-87
2.21355e-90
3.53589e-66
1.64748e-63
2.47802e-62
1.22152e-62
1.89604e-63
1.06206e-64
4.2131e-66
1.5997e-67
3.48979e-69
4.01324e-71
7.00347e-73
6.91116e-75
5.51421e-77
3.54531e-79
1.14948e-81
6.89607e-84
1.86711e-86
3.33672e-89
2.07836e-92
1.38186e-68
9.362e-66
1.72033e-64
9.55089e-65
1.51468e-65
9.22608e-67
3.74284e-68
1.45803e-69
3.30394e-71
4.65723e-73
7.05693e-75
7.02026e-77
5.59036e-79
3.55866e-81
1.32447e-83
6.57626e-86
1.71154e-88
2.93721e-91
1.89838e-94
4.79889e-71
4.85734e-68
1.12138e-66
6.93724e-67
1.16124e-67
7.65517e-69
3.1544e-70
1.25275e-71
2.94791e-73
5.00423e-75
6.78927e-77
6.80229e-79
5.39804e-81
3.39861e-83
1.46243e-85
5.91315e-88
1.48397e-90
2.45397e-93
1.52437e-97
1.48308e-73
2.28958e-70
6.79621e-69
4.66107e-69
8.57269e-70
6.07487e-71
2.50936e-72
1.01028e-73
2.46259e-75
4.84681e-77
6.21573e-79
6.27521e-81
4.96075e-83
3.08909e-85
1.43823e-87
4.9921e-90
1.21923e-92
1.96033e-95
5.1963e-99
4.11768e-76
9.8125e-73
3.83939e-71
2.89816e-71
6.10446e-72
4.62744e-73
1.90632e-74
7.71008e-76
1.93319e-77
4.33749e-79
5.39083e-81
5.49478e-83
4.33113e-85
2.6705e-87
1.27715e-89
3.93693e-92
9.51433e-95
1.51079e-97
7.4566e-101
1.06228e-78
3.83851e-75
2.04724e-73
1.68326e-73
4.1999e-74
3.40677e-75
1.42358e-76
5.71569e-78
1.45621e-79
3.67965e-81
4.40561e-83
4.54725e-85
3.58057e-87
2.19057e-89
1.06075e-91
2.89508e-94
7.0815e-97
1.13384e-99
5.61699e-103
)
;

boundaryField
{
    leftWall
    {
        type            zeroGradient;
    }
    rightWall
    {
        type            zeroGradient;
    }
    lowerWall
    {
        type            zeroGradient;
    }
    atmosphere
    {
        type            inletOutlet;
        inletValue      uniform 0;
        value           nonuniform List<scalar> 
46
(
0
0
0
0
0
0
0
0
0
0
0
0
0
0
0
0
0
0
0
0
0
0
0
6.24261e-87
1.62358e-84
2.1146e-82
1.74997e-80
1.06228e-78
3.83851e-75
2.04724e-73
1.68326e-73
4.1999e-74
3.40677e-75
1.42358e-76
5.71569e-78
1.45621e-79
3.67965e-81
4.40561e-83
4.54725e-85
3.58057e-87
2.19057e-89
1.06075e-91
2.89508e-94
7.0815e-97
1.13384e-99
5.61699e-103
)
;
    }
    defaultFaces
    {
        type            empty;
    }
}


// ************************************************************************* //
