/*--------------------------------*- C++ -*----------------------------------*\
| =========                 |                                                 |
| \\      /  F ield         | OpenFOAM: The Open Source CFD Toolbox           |
|  \\    /   O peration     | Version:  2312                                  |
|   \\  /    A nd           | Website:  www.openfoam.com                      |
|    \\/     M anipulation  |                                                 |
\*---------------------------------------------------------------------------*/
FoamFile
{
    version     2.0;
    format      ascii;
    arch        "LSB;label=32;scalar=64";
    class       volVectorField;
    location    "0.1";
    object      U;
}
// * * * * * * * * * * * * * * * * * * * * * * * * * * * * * * * * * * * * * //

dimensions      [0 1 -1 0 0 0 0];

internalField   nonuniform List<vector> 
2268
(
(0.0134207 -0.00636971 0)
(0.0388497 -0.00656185 0)
(0.0660548 -0.00695552 0)
(0.0951645 -0.00758222 0)
(0.12714 -0.00848542 0)
(0.163129 -0.00973454 0)
(0.204558 -0.0114333 0)
(0.253257 -0.0137342 0)
(0.311858 -0.0168948 0)
(0.382909 -0.0211604 0)
(0.473791 -0.0276208 0)
(0.589959 -0.0374642 0)
(0.73453 -0.0452721 0)
(0.892105 -0.0444594 0)
(1.03412 -0.035996 0)
(1.13836 -0.0257218 0)
(1.20133 -0.0181266 0)
(1.2379 -0.0117687 0)
(1.26217 0.00739059 0)
(1.00914 0.0607529 0)
(0.681599 0.0774354 0)
(0.398783 0.077405 0)
(0.159795 0.0752792 0)
(0.0133379 -0.0182088 0)
(0.0386288 -0.0187336 0)
(0.0656679 -0.0198034 0)
(0.09458 -0.0214936 0)
(0.126315 -0.0239093 0)
(0.161998 -0.027217 0)
(0.203031 -0.0316617 0)
(0.251195 -0.0375964 0)
(0.309124 -0.0456011 0)
(0.379074 -0.0562185 0)
(0.468456 -0.0714063 0)
(0.580439 -0.0930657 0)
(0.718116 -0.110223 0)
(0.867253 -0.106956 0)
(1.00052 -0.084455 0)
(1.09803 -0.056581 0)
(1.15961 -0.0338165 0)
(1.19974 -0.00917949 0)
(1.14286 0.10679 0)
(0.847814 0.183408 0)
(0.60584 0.194091 0)
(0.3733 0.188691 0)
(0.155613 0.18542 0)
(0.0131565 -0.0302527 0)
(0.0381396 -0.0311194 0)
(0.0648181 -0.0328961 0)
(0.0933087 -0.0356983 0)
(0.124532 -0.039703 0)
(0.15957 -0.0451865 0)
(0.199766 -0.052557 0)
(0.246795 -0.062401 0)
(0.303234 -0.0756509 0)
(0.370834 -0.0932892 0)
(0.457094 -0.118065 0)
(0.563918 -0.152662 0)
(0.694739 -0.180903 0)
(0.835245 -0.176608 0)
(0.957882 -0.142772 0)
(1.04666 -0.10285 0)
(1.11264 -0.0648368 0)
(1.14809 0.01488 0)
(0.919888 0.210939 0)
(0.715609 0.280759 0)
(0.546941 0.294579 0)
(0.354191 0.295508 0)
(0.154444 0.302728 0)
(0.0128872 -0.0421131 0)
(0.0374078 -0.0433035 0)
(0.0635469 -0.0457573 0)
(0.0914119 -0.0496226 0)
(0.121879 -0.0551418 0)
(0.155963 -0.0626908 0)
(0.194918 -0.0728199 0)
(0.240265 -0.0863221 0)
(0.294465 -0.104411 0)
(0.358602 -0.128483 0)
(0.440396 -0.161872 0)
(0.540749 -0.20801 0)
(0.663822 -0.246336 0)
(0.794691 -0.240133 0)
(0.905386 -0.197504 0)
(0.991037 -0.148378 0)
(1.07006 -0.0739751 0)
(0.958745 0.139203 0)
(0.756576 0.274922 0)
(0.626083 0.350905 0)
(0.507292 0.372153 0)
(0.346196 0.39012 0)
(0.159341 0.418752 0)
(0.0125327 -0.0537167 0)
(0.0364376 -0.0552141 0)
(0.0618606 -0.0583096 0)
(0.0888969 -0.0631788 0)
(0.118359 -0.0701205 0)
(0.151172 -0.0795961 0)
(0.188464 -0.0922774 0)
(0.231554 -0.10913 0)
(0.282717 -0.131575 0)
(0.34226 -0.161447 0)
(0.418338 -0.202495 0)
(0.510441 -0.259188 0)
(0.623333 -0.308165 0)
(0.742074 -0.30176 0)
(0.844965 -0.255858 0)
(0.944894 -0.188961 0)
(0.9861 0.0334176 0)
(0.779724 0.190425 0)
(0.641817 0.325299 0)
(0.56662 0.398632 0)
(0.486294 0.430561 0)
(0.353064 0.474239 0)
(0.173408 0.537235 0)
(0.0120899 -0.0648228 0)
(0.0352171 -0.0666017 0)
(0.0597369 -0.0702787 0)
(0.0857268 -0.0760474 0)
(0.113915 -0.084253 0)
(0.145113 -0.0954235 0)
(0.180293 -0.110327 0)
(0.220555 -0.130064 0)
(0.267941 -0.156203 0)
(0.322005 -0.191047 0)
(0.391535 -0.238482 0)
(0.47356 -0.304311 0)
(0.572069 -0.366003 0)
(0.675102 -0.364007 0)
(0.784985 -0.315885 0)
(0.936319 -0.155561 0)
(0.794671 0.0758912 0)
(0.634502 0.236296 0)
(0.562181 0.361552 0)
(0.529367 0.42582 0)
(0.484665 0.472696 0)
(0.379273 0.549318 0)
(0.201093 0.666161 0)
(0.0115412 -0.0753606 0)
(0.0336974 -0.0773842 0)
(0.0570982 -0.081578 0)
(0.0817964 -0.0881474 0)
(0.108422 -0.0974755 0)
(0.137667 -0.110148 0)
(0.170349 -0.127013 0)
(0.207388 -0.149293 0)
(0.250579 -0.178656 0)
(0.298948 -0.217906 0)
(0.361871 -0.270426 0)
(0.432156 -0.343717 0)
(0.510415 -0.42138 0)
(0.598214 -0.42921 0)
(0.734224 -0.365256 0)
(0.782526 -0.0744363 0)
(0.612553 0.114298 0)
(0.525717 0.273481 0)
(0.50721 0.374756 0)
(0.512545 0.434534 0)
(0.50306 0.498886 0)
(0.431677 0.613888 0)
(0.249624 0.81662 0)
(0.0108689 -0.0868615 0)
(0.0318211 -0.0891579 0)
(0.0538545 -0.0939076 0)
(0.0770184 -0.101332 0)
(0.101849 -0.111848 0)
(0.128932 -0.126094 0)
(0.158959 -0.145007 0)
(0.192747 -0.169914 0)
(0.231828 -0.202606 0)
(0.275123 -0.246186 0)
(0.331839 -0.303286 0)
(0.389477 -0.381628 0)
(0.444019 -0.476108 0)
(0.522886 -0.494713 0)
(0.684674 -0.345658 0)
(0.598077 -0.0519463 0)
(0.480149 0.150122 0)
(0.452894 0.288306 0)
(0.4757 0.369839 0)
(0.514201 0.429256 0)
(0.541371 0.51154 0)
(0.521702 0.670384 0)
(0.330918 1.0312 0)
(-0.185325 0.064852 0)
(-0.380362 0.0300355 0)
(-0.420053 -0.0116251 0)
(-0.266708 -0.0590679 0)
(0.0657544 -0.0764185 0)
(0.346982 -0.0564633 0)
(0.536112 -0.0278566 0)
(0.612993 -0.00568482 0)
(0.609892 0.0064177 0)
(0.564113 0.0120119 0)
(0.50173 0.0140659 0)
(0.434849 0.0144647 0)
(0.368458 0.0141155 0)
(0.304612 0.0134656 0)
(0.243923 0.0127862 0)
(0.186237 0.0121759 0)
(0.131044 0.0117004 0)
(0.0776942 0.0113677 0)
(0.0266185 0.0112321 0)
(-0.191459 0.179462 0)
(-0.392117 0.0925314 0)
(-0.415875 -0.0291135 0)
(-0.22226 -0.17263 0)
(0.115358 -0.212164 0)
(0.397287 -0.157371 0)
(0.580459 -0.0786293 0)
(0.649139 -0.0167209 0)
(0.63855 0.0192302 0)
(0.586556 0.0358617 0)
(0.519543 0.0419707 0)
(0.449263 0.0431245 0)
(0.38021 0.0420437 0)
(0.314165 0.0401297 0)
(0.251552 0.038122 0)
(0.192098 0.036341 0)
(0.135227 0.0349445 0)
(0.0802242 0.0339759 0)
(0.0274747 0.033234 0)
(-0.208643 0.307803 0)
(-0.418106 0.147655 0)
(-0.401451 -0.0696468 0)
(-0.14484 -0.296486 0)
(0.186591 -0.366506 0)
(0.459446 -0.265032 0)
(0.62967 -0.125712 0)
(0.680635 -0.0212585 0)
(0.656232 0.0371175 0)
(0.594954 0.063035 0)
(0.522973 0.0720145 0)
(0.45023 0.0732001 0)
(0.380026 0.0709546 0)
(0.313538 0.0675169 0)
(0.250841 0.0640234 0)
(0.191473 0.0609749 0)
(0.134762 0.058598 0)
(0.0799425 0.0569672 0)
(0.0273729 0.0557809 0)
(-0.241873 0.442934 0)
(-0.451506 0.170887 0)
(-0.25322 -0.130477 0)
(0.0444497 -0.43713 0)
(0.32357 -0.474907 0)
(0.567445 -0.370278 0)
(0.709771 -0.163188 0)
(0.728751 -0.0179709 0)
(0.679956 0.0602908 0)
(0.604405 0.0931966 0)
(0.525449 0.103609 0)
(0.449602 0.104015 0)
(0.378163 0.100168 0)
(0.311389 0.0949856 0)
(0.248861 0.0899089 0)
(0.189861 0.0855528 0)
(0.133598 0.0821875 0)
(0.0792371 0.0798954 0)
(0.0271232 0.0782605 0)
(-0.292416 0.585925 0)
(-0.48865 0.223392 0)
(0.265886 -0.349507 0)
(0.435266 -0.591092 0)
(0.576032 -0.67023 0)
(0.727578 -0.42212 0)
(0.828812 -0.178316 0)
(0.794999 0.00174988 0)
(0.710066 0.0930173 0)
(0.615458 0.128359 0)
(0.527807 0.137543 0)
(0.448259 0.135828 0)
(0.375442 0.129692 0)
(0.308439 0.12245 0)
(0.246207 0.115639 0)
(0.187724 0.109921 0)
(0.13206 0.105545 0)
(0.0783153 0.102591 0)
(0.0268009 0.100505 0)
(-0.309639 0.688027 0)
(0.532156 -0.164943 0)
(1.16887 -0.472473 0)
(1.17174 -0.53064 0)
(1.1184 -0.614417 0)
(0.936888 -0.468038 0)
(0.967701 -0.145141 0)
(0.87837 0.0491361 0)
(0.74362 0.139941 0)
(0.626012 0.170433 0)
(0.528871 0.174439 0)
(0.44568 0.16881 0)
(0.371665 0.159573 0)
(0.304634 0.14989 0)
(0.242884 0.141182 0)
(0.185088 0.134029 0)
(0.130178 0.128621 0)
(0.0771869 0.124996 0)
(0.0264044 0.122472 0)
(0.411413 0.683657 0)
(1.20716 -0.403203 0)
(1.19739 -0.455471 0)
(1.19573 -0.498101 0)
(1.18813 -0.534425 0)
(1.10449 -0.516897 0)
(1.06102 -0.108869 0)
(0.933842 0.106389 0)
(0.769645 0.195276 0)
(0.632889 0.218333 0)
(0.52749 0.213822 0)
(0.44142 0.20266 0)
(0.366644 0.18961 0)
(0.299893 0.177178 0)
(0.238862 0.166448 0)
(0.181943 0.157815 0)
(0.12795 0.151364 0)
(0.0758707 0.147071 0)
(0.0259528 0.144113 0)
(1.21336 -0.286963 0)
(1.22709 -0.380984 0)
(1.23724 -0.454043 0)
(1.24869 -0.499111 0)
(1.2568 -0.529698 0)
(1.25013 -0.536424 0)
(1.14922 -0.0218153 0)
(0.972671 0.188892 0)
(0.77528 0.260554 0)
(0.632464 0.269907 0)
(0.522182 0.254358 0)
(0.434964 0.236351 0)
(0.36021 0.218956 0)
(0.294177 0.203586 0)
(0.234148 0.19079 0)
(0.178311 0.180689 0)
(0.125399 0.173226 0)
(0.0743596 0.168284 0)
(0.0254266 0.164931 0)
(0.0101096 -0.100367 0)
(0.0296985 -0.102949 0)
(0.0502279 -0.108252 0)
(0.0717639 -0.116525 0)
(0.0947561 -0.128212 0)
(0.119691 -0.144006 0)
(0.147164 -0.16493 0)
(0.177927 -0.192459 0)
(0.213286 -0.228427 0)
(0.252354 -0.275946 0)
(0.30333 -0.337869 0)
(0.350716 -0.41682 0)
(0.385356 -0.521863 0)
(0.459103 -0.541555 0)
(0.533014 -0.24081 0)
(0.395519 0.0038541 0)
(0.361009 0.170831 0)
(0.397102 0.26565 0)
(0.465904 0.324437 0)
(0.552806 0.379086 0)
(0.659549 0.4619 0)
(0.858205 0.611092 0)
(1.10496 0.927931 0)
(0.00862299 -0.12261 0)
(0.0254741 -0.125634 0)
(0.04298 -0.13179 0)
(0.0611969 -0.141314 0)
(0.0804265 -0.154609 0)
(0.10101 -0.172337 0)
(0.123444 -0.195595 0)
(0.148701 -0.226189 0)
(0.177703 -0.266032 0)
(0.209591 -0.317509 0)
(0.250635 -0.384698 0)
(0.299595 -0.456218 0)
(0.330025 -0.581377 0)
(0.380172 -0.569848 0)
(0.310911 -0.201114 0)
(0.285629 0.0243321 0)
(0.323451 0.135272 0)
(0.394582 0.195097 0)
(0.486014 0.235502 0)
(0.595312 0.272901 0)
(0.726977 0.319393 0)
(0.910498 0.379547 0)
(1.17352 0.3982 0)
(0.00707811 -0.137505 0)
(0.0210699 -0.140554 0)
(0.035681 -0.146669 0)
(0.0511374 -0.156099 0)
(0.0678998 -0.169277 0)
(0.0865246 -0.186946 0)
(0.107731 -0.21039 0)
(0.132994 -0.241769 0)
(0.162124 -0.282658 0)
(0.201695 -0.340234 0)
(0.261806 -0.428939 0)
(0.349996 -0.510083 0)
(0.372129 -0.642294 0)
(0.319411 -0.480861 0)
(0.257015 -0.190548 0)
(0.274902 -0.0158149 0)
(0.333539 0.0628853 0)
(0.411831 0.103877 0)
(0.50558 0.129358 0)
(0.614305 0.14705 0)
(0.741534 0.158376 0)
(0.897893 0.160834 0)
(1.13697 0.134525 0)
(0.00703289 -0.126683 0)
(0.0214549 -0.130636 0)
(0.0378949 -0.138633 0)
(0.0574591 -0.15128 0)
(0.0820347 -0.169623 0)
(0.114024 -0.195347 0)
(0.155951 -0.230984 0)
(0.21013 -0.279099 0)
(0.27445 -0.34323 0)
(0.328745 -0.427639 0)
(0.366229 -0.517138 0)
(0.380065 -0.574281 0)
(0.369308 -0.595361 0)
(0.311403 -0.414531 0)
(0.264127 -0.18769 0)
(0.291196 -0.0635592 0)
(0.35121 -0.00808278 0)
(0.427703 0.0172698 0)
(0.516833 0.0280969 0)
(0.618475 0.0288144 0)
(0.734607 0.0188785 0)
(0.868919 -0.00625186 0)
(1.03917 -0.057674 0)
(0.0242632 -0.199507 0)
(0.068674 -0.204612 0)
(0.114806 -0.214794 0)
(0.160968 -0.230846 0)
(0.206698 -0.253597 0)
(0.250898 -0.283644 0)
(0.2917 -0.320496 0)
(0.327453 -0.360975 0)
(0.357153 -0.404509 0)
(0.376381 -0.454683 0)
(0.385356 -0.507368 0)
(0.369405 -0.556116 0)
(0.344636 -0.542655 0)
(0.296403 -0.351742 0)
(0.265962 -0.179246 0)
(0.299027 -0.107771 0)
(0.358842 -0.0792553 0)
(0.431989 -0.0682775 0)
(0.515179 -0.0682294 0)
(0.608423 -0.0779868 0)
(0.712553 -0.0986105 0)
(0.828092 -0.133284 0)
(0.964893 -0.188159 0)
(0.0219676 -0.218469 0)
(0.0623512 -0.223154 0)
(0.103686 -0.232473 0)
(0.144466 -0.246893 0)
(0.184194 -0.266866 0)
(0.221977 -0.292771 0)
(0.256555 -0.32464 0)
(0.286609 -0.361856 0)
(0.311033 -0.403725 0)
(0.327232 -0.44935 0)
(0.337859 -0.495329 0)
(0.327575 -0.537918 0)
(0.31434 -0.499582 0)
(0.302519 -0.325343 0)
(0.296251 -0.202459 0)
(0.325672 -0.157365 0)
(0.374285 -0.141033 0)
(0.435377 -0.139495 0)
(0.507187 -0.148927 0)
(0.58888 -0.16865 0)
(0.679653 -0.199578 0)
(0.778747 -0.243934 0)
(0.89363 -0.304573 0)
(0.0192366 -0.263606 0)
(0.0550357 -0.268362 0)
(0.09145 -0.277581 0)
(0.127103 -0.291534 0)
(0.161528 -0.310371 0)
(0.194039 -0.334138 0)
(0.223769 -0.362618 0)
(0.249782 -0.395212 0)
(0.271313 -0.431025 0)
(0.286553 -0.46877 0)
(0.299304 -0.506192 0)
(0.294962 -0.540762 0)
(0.293394 -0.491611 0)
(0.298615 -0.322413 0)
(0.300795 -0.216432 0)
(0.327236 -0.189609 0)
(0.369873 -0.189394 0)
(0.423581 -0.200748 0)
(0.486889 -0.220808 0)
(0.558824 -0.24983 0)
(0.638084 -0.288935 0)
(0.724138 -0.339835 0)
(0.82325 -0.403864 0)
(0.0168257 -0.297795 0)
(0.0483998 -0.302203 0)
(0.0803002 -0.310717 0)
(0.111385 -0.323545 0)
(0.141248 -0.340702 0)
(0.169359 -0.362099 0)
(0.195106 -0.387457 0)
(0.217853 -0.416249 0)
(0.237187 -0.447675 0)
(0.251755 -0.48059 0)
(0.266142 -0.513376 0)
(0.265587 -0.544207 0)
(0.27121 -0.487488 0)
(0.280936 -0.322647 0)
(0.285996 -0.236415 0)
(0.313078 -0.224369 0)
(0.353236 -0.235599 0)
(0.401759 -0.256376 0)
(0.457854 -0.284596 0)
(0.521011 -0.320924 0)
(0.589881 -0.366465 0)
(0.664729 -0.422703 0)
(0.750123 -0.490498 0)
(0.0145898 -0.328161 0)
(0.042192 -0.332315 0)
(0.0699387 -0.340234 0)
(0.0969007 -0.352094 0)
(0.12274 -0.367843 0)
(0.147049 -0.387326 0)
(0.169397 -0.410258 0)
(0.189368 -0.436174 0)
(0.206814 -0.464412 0)
(0.220625 -0.494083 0)
(0.235939 -0.524048 0)
(0.237201 -0.55317 0)
(0.247237 -0.48824 0)
(0.25698 -0.326341 0)
(0.263227 -0.258767 0)
(0.290719 -0.258172 0)
(0.328471 -0.27789 0)
(0.372285 -0.305902 0)
(0.421798 -0.340589 0)
(0.476889 -0.382767 0)
(0.536184 -0.433507 0)
(0.600907 -0.494175 0)
(0.673829 -0.565491 0)
(0.0125409 -0.354504 0)
(0.036437 -0.358407 0)
(0.0603555 -0.365753 0)
(0.0835661 -0.376719 0)
(0.105789 -0.391221 0)
(0.12671 -0.409093 0)
(0.146027 -0.430074 0)
(0.163473 -0.453778 0)
(0.179068 -0.479696 0)
(0.191822 -0.507207 0)
(0.207214 -0.535499 0)
(0.208704 -0.56413 0)
(0.221126 -0.489 0)
(0.228444 -0.330746 0)
(0.235891 -0.281594 0)
(0.263139 -0.290637 0)
(0.298067 -0.316671 0)
(0.337199 -0.349943 0)
(0.380408 -0.389449 0)
(0.427856 -0.436098 0)
(0.478079 -0.490943 0)
(0.533535 -0.55532 0)
(0.594947 -0.629623 0)
(0.0106483 -0.377145 0)
(0.0310815 -0.380819 0)
(0.0514674 -0.38765 0)
(0.0712306 -0.397829 0)
(0.0901435 -0.411269 0)
(0.107962 -0.427811 0)
(0.124471 -0.447236 0)
(0.139498 -0.469243 0)
(0.15314 -0.493464 0)
(0.164485 -0.51953 0)
(0.179119 -0.546828 0)
(0.179705 -0.575578 0)
(0.193111 -0.488044 0)
(0.196555 -0.336015 0)
(0.20581 -0.304356 0)
(0.232218 -0.321173 0)
(0.26385 -0.351633 0)
(0.298134 -0.388485 0)
(0.335084 -0.431368 0)
(0.375068 -0.481271 0)
(0.416393 -0.539288 0)
(0.463208 -0.606599 0)
(0.513661 -0.684318 0)
(0.00890466 -0.396281 0)
(0.0260953 -0.399749 0)
(0.0431909 -0.40613 0)
(0.0597504 -0.415626 0)
(0.0755871 -0.428166 0)
(0.0905047 -0.443599 0)
(0.104341 -0.461764 0)
(0.116978 -0.482428 0)
(0.12851 -0.505354 0)
(0.1381 -0.530401 0)
(0.151222 -0.557031 0)
(0.150044 -0.586278 0)
(0.163206 -0.484161 0)
(0.162317 -0.342554 0)
(0.174273 -0.326642 0)
(0.199297 -0.349234 0)
(0.227236 -0.382409 0)
(0.256476 -0.421372 0)
(0.287109 -0.466334 0)
(0.319618 -0.518326 0)
(0.352228 -0.578477 0)
(0.390191 -0.64794 0)
(0.429889 -0.729019 0)
(0.00728064 -0.411888 0)
(0.0214194 -0.415168 0)
(0.0354466 -0.421148 0)
(0.0490108 -0.430049 0)
(0.0619623 -0.441823 0)
(0.0741372 -0.456317 0)
(0.0854 -0.473437 0)
(0.0956604 -0.492978 0)
(0.104927 -0.514832 0)
(0.112501 -0.539022 0)
(0.123302 -0.564988 0)
(0.119607 -0.594805 0)
(0.131231 -0.476841 0)
(0.126987 -0.350909 0)
(0.142484 -0.348075 0)
(0.16561 -0.374206 0)
(0.189547 -0.408473 0)
(0.213551 -0.448253 0)
(0.237807 -0.494121 0)
(0.262929 -0.547114 0)
(0.286905 -0.608534 0)
(0.316306 -0.679046 0)
(0.344046 -0.763729 0)
(0.00579196 -0.424632 0)
(0.0170728 -0.427781 0)
(0.028219 -0.433438 0)
(0.0389656 -0.441862 0)
(0.0492042 -0.453049 0)
(0.0587865 -0.466805 0)
(0.0675922 -0.483122 0)
(0.0755389 -0.501747 0)
(0.0824901 -0.522654 0)
(0.0879497 -0.545897 0)
(0.0957083 -0.570936 0)
(0.0886493 -0.600859 0)
(0.0965151 -0.467805 0)
(0.0926304 -0.362576 0)
(0.111936 -0.368915 0)
(0.132567 -0.396151 0)
(0.152175 -0.430101 0)
(0.170788 -0.469624 0)
(0.188722 -0.515599 0)
(0.206485 -0.568995 0)
(0.222728 -0.630997 0)
(0.243595 -0.702059 0)
(0.25834 -0.791232 0)
(0.00439487 -0.436763 0)
(0.0129824 -0.439825 0)
(0.0214492 -0.445227 0)
(0.0295472 -0.453261 0)
(0.0372312 -0.464001 0)
(0.0443818 -0.47715 0)
(0.050884 -0.492843 0)
(0.0567291 -0.510676 0)
(0.0616237 -0.530691 0)
(0.0651197 -0.552696 0)
(0.0692706 -0.575515 0)
(0.0595375 -0.601428 0)
(0.0617777 -0.461936 0)
(0.0628964 -0.38038 0)
(0.0846575 -0.390625 0)
(0.101716 -0.416268 0)
(0.116568 -0.448576 0)
(0.129605 -0.487057 0)
(0.141178 -0.532249 0)
(0.152256 -0.584813 0)
(0.162172 -0.645649 0)
(0.176129 -0.714562 0)
(0.186179 -0.802998 0)
(0.0031519 -0.444846 0)
(0.00924271 -0.447683 0)
(0.0152353 -0.452639 0)
(0.0209211 -0.46 0)
(0.0262664 -0.469958 0)
(0.0312242 -0.48196 0)
(0.0356847 -0.496399 0)
(0.0397844 -0.512537 0)
(0.0433121 -0.530406 0)
(0.0462564 -0.549078 0)
(0.0495545 -0.566872 0)
(0.036923 -0.583092 0)
(0.0345808 -0.459599 0)
(0.042625 -0.402534 0)
(0.0634054 -0.409449 0)
(0.0751845 -0.430218 0)
(0.0845772 -0.459074 0)
(0.0925378 -0.494182 0)
(0.099272 -0.535808 0)
(0.105881 -0.585856 0)
(0.113684 -0.644374 0)
(0.12654 -0.711452 0)
(0.145362 -0.803098 0)
(0.00225295 -0.437305 0)
(0.00635583 -0.439895 0)
(0.010388 -0.44432 0)
(0.0143009 -0.450935 0)
(0.0179632 -0.460183 0)
(0.0214479 -0.471128 0)
(0.0246567 -0.484706 0)
(0.0277945 -0.50001 0)
(0.0302168 -0.517797 0)
(0.0335681 -0.53535 0)
(0.040341 -0.549868 0)
(0.0246169 -0.562738 0)
(0.0214965 -0.450293 0)
(0.0343154 -0.411265 0)
(0.051468 -0.411016 0)
(0.056763 -0.427026 0)
(0.0612843 -0.453973 0)
(0.0653176 -0.487418 0)
(0.0701766 -0.527854 0)
(0.078905 -0.578661 0)
(0.0956639 -0.64249 0)
(0.130716 -0.727039 0)
(0.213753 -0.827842 0)
(0.00216467 -0.429633 0)
(0.00571548 -0.432747 0)
(0.00925557 -0.437965 0)
(0.0129956 -0.445765 0)
(0.0168288 -0.456429 0)
(0.0208795 -0.469828 0)
(0.0254013 -0.48638 0)
(0.0308397 -0.506232 0)
(0.036757 -0.530423 0)
(0.0414389 -0.557229 0)
(0.031315 -0.555943 0)
(-0.197693 -0.505919 0)
(0.00306133 -0.447869 0)
(0.0320523 -0.407265 0)
(0.0530963 -0.404794 0)
(0.0569513 -0.422048 0)
(0.0638146 -0.454253 0)
(0.0765134 -0.497128 0)
(0.108504 -0.545768 0)
(0.150803 -0.621255 0)
(0.214792 -0.731817 0)
(0.247607 -0.876709 0)
(0.240913 -0.842809 0)
(0.00472465 -0.483114 0)
(3.05082e-07 -0.48494 0)
(0.00297443 -0.490751 0)
(0.00184208 -0.498827 0)
(-0.000389314 -0.509157 0)
(-0.00522859 -0.522688 0)
(-0.0119615 -0.538002 0)
(-0.0242996 -0.55659 0)
(-0.0453375 -0.569786 0)
(-0.0871177 -0.569859 0)
(-0.0921405 -0.488179 0)
(-0.0998628 -0.4645 0)
(-0.0329177 -0.754074 0)
(-0.0542396 -0.487335 0)
(-0.0650052 -0.452557 0)
(-0.0579782 -0.464002 0)
(-0.0539691 -0.509853 0)
(-0.0437476 -0.566351 0)
(-0.0221936 -0.627746 0)
(0.0176337 -0.721705 0)
(0.0477014 -0.824269 0)
(0.0344499 -0.878409 0)
(-0.0152172 -0.785104 0)
(-0.000495432 -0.467913 0)
(-0.00635637 -0.468755 0)
(-0.00953344 -0.472352 0)
(-0.0167986 -0.476455 0)
(-0.0252405 -0.48212 0)
(-0.0362378 -0.490262 0)
(-0.0501224 -0.498092 0)
(-0.0694901 -0.507505 0)
(-0.0974926 -0.512308 0)
(-0.129647 -0.507312 0)
(-0.142071 -0.480326 0)
(-0.144825 -0.527617 0)
(-0.211618 -0.615195 0)
(-0.267477 -0.503244 0)
(-0.250395 -0.450642 0)
(-0.227284 -0.465454 0)
(-0.214466 -0.502653 0)
(-0.210348 -0.55189 0)
(-0.209464 -0.617528 0)
(-0.21705 -0.700445 0)
(-0.256407 -0.769179 0)
(-0.354891 -0.746535 0)
(-0.501283 -0.510915 0)
(-0.00383174 -0.441559 0)
(-0.0109443 -0.442385 0)
(-0.0185645 -0.444015 0)
(-0.0280159 -0.446653 0)
(-0.0390197 -0.450629 0)
(-0.0520683 -0.455781 0)
(-0.0675864 -0.46131 0)
(-0.0870355 -0.466627 0)
(-0.111123 -0.46903 0)
(-0.135161 -0.465877 0)
(-0.15123 -0.459116 0)
(-0.17029 -0.4656 0)
(-0.214198 -0.480786 0)
(-0.24814 -0.457372 0)
(-0.253735 -0.446396 0)
(-0.257282 -0.455616 0)
(-0.268236 -0.482169 0)
(-0.290939 -0.522957 0)
(-0.330083 -0.575793 0)
(-0.397817 -0.629264 0)
(-0.515048 -0.646351 0)
(-0.683474 -0.568792 0)
(-0.853029 -0.347111 0)
(-0.00504091 -0.441459 0)
(-0.0148282 -0.443034 0)
(-0.0251359 -0.443284 0)
(-0.0365074 -0.444635 0)
(-0.0491782 -0.446894 0)
(-0.0634211 -0.449735 0)
(-0.0796129 -0.452642 0)
(-0.098607 -0.455034 0)
(-0.120276 -0.455579 0)
(-0.141681 -0.453571 0)
(-0.161072 -0.451558 0)
(-0.183611 -0.455395 0)
(-0.213538 -0.458533 0)
(-0.240525 -0.446896 0)
(-0.259522 -0.441895 0)
(-0.278659 -0.447007 0)
(-0.304877 -0.46169 0)
(-0.343965 -0.484107 0)
(-0.402591 -0.510729 0)
(-0.490695 -0.531134 0)
(-0.615886 -0.520699 0)
(-0.764953 -0.440254 0)
(-0.892444 -0.255034 0)
(-0.00599909 -0.429653 0)
(-0.0176255 -0.431361 0)
(-0.0294723 -0.430876 0)
(-0.0420697 -0.431186 0)
(-0.0556862 -0.432041 0)
(-0.070537 -0.433138 0)
(-0.0869008 -0.434151 0)
(-0.105201 -0.434634 0)
(-0.125223 -0.433872 0)
(-0.145633 -0.431732 0)
(-0.166036 -0.429804 0)
(-0.188559 -0.429391 0)
(-0.214107 -0.427765 0)
(-0.239587 -0.422209 0)
(-0.264001 -0.41859 0)
(-0.29071 -0.419268 0)
(-0.32393 -0.423991 0)
(-0.367901 -0.430637 0)
(-0.427253 -0.434918 0)
(-0.507383 -0.428301 0)
(-0.610628 -0.394786 0)
(-0.723195 -0.312206 0)
(-0.812743 -0.164545 0)
(-0.00645841 -0.41704 0)
(-0.0190998 -0.418853 0)
(-0.0319738 -0.417937 0)
(-0.0453319 -0.41749 0)
(-0.0594471 -0.417302 0)
(-0.0745121 -0.417138 0)
(-0.0907369 -0.416751 0)
(-0.108393 -0.415836 0)
(-0.127354 -0.41402 0)
(-0.147014 -0.411305 0)
(-0.167384 -0.408346 0)
(-0.189376 -0.405472 0)
(-0.213275 -0.401633 0)
(-0.238314 -0.39639 0)
(-0.264644 -0.391425 0)
(-0.294093 -0.387572 0)
(-0.329176 -0.384278 0)
(-0.372496 -0.37964 0)
(-0.426488 -0.370173 0)
(-0.493106 -0.349902 0)
(-0.570706 -0.308662 0)
(-0.648292 -0.232675 0)
(-0.705154 -0.113963 0)
(-0.00676175 -0.403603 0)
(-0.0199497 -0.405552 0)
(-0.0332623 -0.40437 0)
(-0.0469381 -0.403356 0)
(-0.0611968 -0.402364 0)
(-0.0762065 -0.401216 0)
(-0.0921369 -0.399738 0)
(-0.109164 -0.397721 0)
(-0.127267 -0.394928 0)
(-0.146231 -0.391346 0)
(-0.166122 -0.387238 0)
(-0.187372 -0.382611 0)
(-0.210213 -0.377062 0)
(-0.234608 -0.370465 0)
(-0.260937 -0.363213 0)
(-0.290266 -0.355307 0)
(-0.323997 -0.345948 0)
(-0.363492 -0.333408 0)
(-0.409741 -0.314942 0)
(-0.462854 -0.286448 0)
(-0.520491 -0.241748 0)
(-0.574233 -0.173425 0)
(-0.610781 -0.0779322 0)
(-0.00676765 -0.389999 0)
(-0.0200828 -0.392021 0)
(-0.0335691 -0.390639 0)
(-0.0472944 -0.389189 0)
(-0.0614616 -0.387568 0)
(-0.0762238 -0.385645 0)
(-0.0917277 -0.383285 0)
(-0.108117 -0.380335 0)
(-0.125427 -0.376636 0)
(-0.143606 -0.372134 0)
(-0.162741 -0.366878 0)
(-0.183085 -0.360808 0)
(-0.204839 -0.353698 0)
(-0.228154 -0.345397 0)
(-0.25337 -0.33583 0)
(-0.2811 -0.324664 0)
(-0.312059 -0.311077 0)
(-0.346818 -0.293678 0)
(-0.38551 -0.27049 0)
(-0.427461 -0.238905 0)
(-0.47005 -0.195479 0)
(-0.507667 -0.136234 0)
(-0.531817 -0.0593441 0)
(-0.00671901 -0.376394 0)
(-0.0199199 -0.378498 0)
(-0.0332391 -0.37699 0)
(-0.0467547 -0.375212 0)
(-0.0606222 -0.373097 0)
(-0.0749753 -0.370547 0)
(-0.0899394 -0.367459 0)
(-0.105632 -0.363712 0)
(-0.122117 -0.359179 0)
(-0.139418 -0.353781 0)
(-0.157618 -0.347479 0)
(-0.176879 -0.340166 0)
(-0.197364 -0.33166 0)
(-0.219231 -0.321761 0)
(-0.242707 -0.310225 0)
(-0.268102 -0.296618 0)
(-0.295703 -0.280201 0)
(-0.325614 -0.259893 0)
(-0.357521 -0.234311 0)
(-0.39042 -0.201856 0)
(-0.422289 -0.16076 0)
(-0.449275 -0.109363 0)
(-0.466035 -0.046629 0)
(-0.00650898 -0.363133 0)
(-0.0193648 -0.365252 0)
(-0.0323638 -0.363639 0)
(-0.045505 -0.361599 0)
(-0.0589234 -0.359085 0)
(-0.0727375 -0.356022 0)
(-0.0870568 -0.352324 0)
(-0.101983 -0.347893 0)
(-0.117587 -0.34262 0)
(-0.133915 -0.336412 0)
(-0.151042 -0.329184 0)
(-0.169077 -0.320814 0)
(-0.188134 -0.311125 0)
(-0.208321 -0.299897 0)
(-0.229756 -0.286844 0)
(-0.252554 -0.271545 0)
(-0.27675 -0.253394 0)
(-0.302196 -0.231594 0)
(-0.328394 -0.205216 0)
(-0.354372 -0.173344 0)
(-0.378439 -0.135239 0)
(-0.398278 -0.0903825 0)
(-0.410435 -0.0383527 0)
(-0.00626241 -0.35028 0)
(-0.0186334 -0.352415 0)
(-0.0311163 -0.350733 0)
(-0.0437225 -0.348487 0)
(-0.0565572 -0.34565 0)
(-0.069719 -0.342164 0)
(-0.0833005 -0.337958 0)
(-0.0973863 -0.332945 0)
(-0.112043 -0.327031 0)
(-0.127323 -0.320117 0)
(-0.143282 -0.312104 0)
(-0.159991 -0.302861 0)
(-0.177517 -0.29222 0)
(-0.195914 -0.279967 0)
(-0.215214 -0.265828 0)
(-0.235408 -0.249441 0)
(-0.256393 -0.230337 0)
(-0.277903 -0.207952 0)
(-0.299398 -0.181688 0)
(-0.319982 -0.151055 0)
(-0.338498 -0.115862 0)
(-0.353385 -0.0762834 0)
(-0.362433 -0.0321909 0)
(-0.00592499 -0.338044 0)
(-0.0176748 -0.340159 0)
(-0.0295441 -0.338412 0)
(-0.041509 -0.335998 0)
(-0.0536589 -0.332897 0)
(-0.0660772 -0.329062 0)
(-0.0788416 -0.324431 0)
(-0.0920224 -0.318931 0)
(-0.105676 -0.312475 0)
(-0.119848 -0.30497 0)
(-0.134578 -0.296312 0)
(-0.149905 -0.286376 0)
(-0.165859 -0.275005 0)
(-0.182447 -0.262008 0)
(-0.199643 -0.24715 0)
(-0.217366 -0.230139 0)
(-0.235446 -0.210631 0)
(-0.253578 -0.188241 0)
(-0.271255 -0.162604 0)
(-0.287757 -0.133497 0)
(-0.302161 -0.101031 0)
(-0.313572 -0.0656519 0)
(-0.320548 -0.0275986 0)
(-0.00556462 -0.326482 0)
(-0.016606 -0.328573 0)
(-0.0277432 -0.326777 0)
(-0.0389668 -0.324228 0)
(-0.0503439 -0.320911 0)
(-0.0619421 -0.316789 0)
(-0.0738239 -0.31181 0)
(-0.0860453 -0.305908 0)
(-0.0986515 -0.299006 0)
(-0.111676 -0.291019 0)
(-0.125144 -0.281849 0)
(-0.139071 -0.271382 0)
(-0.153458 -0.25948 0)
(-0.168278 -0.24598 0)
(-0.18347 -0.230692 0)
(-0.198914 -0.213395 0)
(-0.214418 -0.193846 0)
(-0.229683 -0.171797 0)
(-0.244262 -0.147041 0)
(-0.257561 -0.119515 0)
(-0.26896 -0.0894443 0)
(-0.277842 -0.0574483 0)
(-0.283278 -0.0239622 0)
(-0.00515155 -0.315719 0)
(-0.0154025 -0.317762 0)
(-0.025746 -0.315921 0)
(-0.0361603 -0.313258 0)
(-0.046699 -0.309765 0)
(-0.0574172 -0.305409 0)
(-0.0683649 -0.300145 0)
(-0.0795853 -0.293918 0)
(-0.0911123 -0.286659 0)
(-0.102969 -0.278292 0)
(-0.115165 -0.268729 0)
(-0.127701 -0.257871 0)
(-0.140556 -0.245603 0)
(-0.153685 -0.231793 0)
(-0.167004 -0.216294 0)
(-0.180383 -0.198946 0)
(-0.193629 -0.179587 0)
(-0.20647 -0.158068 0)
(-0.218531 -0.134289 0)
(-0.229357 -0.108276 0)
(-0.23845 -0.0803071 0)
(-0.245473 -0.0510146 0)
(-0.249817 -0.0210693 0)
(-0.00472121 -0.305785 0)
(-0.0141277 -0.307782 0)
(-0.0236089 -0.305904 0)
(-0.0331525 -0.30315 0)
(-0.0427984 -0.299514 0)
(-0.0525891 -0.29497 0)
(-0.062563 -0.289479 0)
(-0.0727523 -0.282993 0)
(-0.0831805 -0.275453 0)
(-0.0938605 -0.266795 0)
(-0.104793 -0.256942 0)
(-0.115965 -0.245812 0)
(-0.127344 -0.233311 0)
(-0.138872 -0.219337 0)
(-0.150461 -0.203783 0)
(-0.161981 -0.186539 0)
(-0.173251 -0.167503 0)
(-0.184036 -0.1466 0)
(-0.194029 -0.123798 0)
(-0.202863 -0.0991691 0)
(-0.210202 -0.0729892 0)
(-0.215809 -0.0458908 0)
(-0.219285 -0.0186639 0)
(-0.00426225 -0.296752 0)
(-0.0127755 -0.298695 0)
(-0.0213551 -0.296783 0)
(-0.0299861 -0.293954 0)
(-0.0386991 -0.290204 0)
(-0.0475269 -0.28551 0)
(-0.0564983 -0.279839 0)
(-0.0656363 -0.273152 0)
(-0.0749561 -0.265399 0)
(-0.0844626 -0.256524 0)
(-0.094149 -0.246466 0)
(-0.103995 -0.235157 0)
(-0.113961 -0.222525 0)
(-0.123986 -0.208495 0)
(-0.133984 -0.19299 0)
(-0.143831 -0.175944 0)
(-0.15337 -0.1573 0)
(-0.162402 -0.13703 0)
(-0.170678 -0.11515 0)
(-0.177923 -0.0917556 0)
(-0.183863 -0.067109 0)
(-0.18838 -0.0417824 0)
(-0.19123 -0.0166846 0)
(-0.0037927 -0.288644 0)
(-0.0113789 -0.290536 0)
(-0.0190172 -0.288596 0)
(-0.0267001 -0.285707 0)
(-0.0344486 -0.281866 0)
(-0.0422869 -0.277055 0)
(-0.0502356 -0.271246 0)
(-0.0583104 -0.264406 0)
(-0.0665196 -0.256494 0)
(-0.0748623 -0.247465 0)
(-0.0833271 -0.237269 0)
(-0.0918893 -0.225854 0)
(-0.100508 -0.213165 0)
(-0.109125 -0.199151 0)
(-0.117657 -0.183763 0)
(-0.125996 -0.166963 0)
(-0.134008 -0.14873 0)
(-0.141526 -0.12907 0)
(-0.148357 -0.108026 0)
(-0.154281 -0.0857079 0)
(-0.159112 -0.0623451 0)
(-0.162764 -0.0384599 0)
(-0.165092 -0.0150082 0)
(-0.00330678 -0.281503 0)
(-0.00993668 -0.283342 0)
(-0.0166109 -0.281377 0)
(-0.0233216 -0.278439 0)
(-0.0300833 -0.274528 0)
(-0.0369136 -0.269627 0)
(-0.0438267 -0.263714 0)
(-0.0508323 -0.256761 0)
(-0.0579339 -0.248735 0)
(-0.0651271 -0.2396 0)
(-0.0723976 -0.229317 0)
(-0.07972 -0.217848 0)
(-0.087055 -0.205155 0)
(-0.094348 -0.191203 0)
(-0.101526 -0.175966 0)
(-0.108497 -0.159429 0)
(-0.115147 -0.141595 0)
(-0.121345 -0.122494 0)
(-0.126939 -0.102186 0)
(-0.131766 -0.0807828 0)
(-0.135673 -0.0584911 0)
(-0.13863 -0.0357605 0)
(-0.140566 -0.0135788 0)
(-0.00281234 -0.275331 0)
(-0.00846479 -0.277121 0)
(-0.0141548 -0.275136 0)
(-0.0198744 -0.27216 0)
(-0.0256334 -0.268196 0)
(-0.031443 -0.263229 0)
(-0.0373124 -0.25724 0)
(-0.0432473 -0.250207 0)
(-0.0492478 -0.242104 0)
(-0.0553073 -0.232901 0)
(-0.0614111 -0.222572 0)
(-0.0675347 -0.211087 0)
(-0.0736428 -0.198422 0)
(-0.0796871 -0.184557 0)
(-0.0856059 -0.169484 0)
(-0.0913223 -0.153203 0)
(-0.0967459 -0.135735 0)
(-0.101773 -0.117125 0)
(-0.106286 -0.097443 0)
(-0.110162 -0.0768011 0)
(-0.113301 -0.0553798 0)
(-0.11568 -0.0335656 0)
(-0.117276 -0.0123307 0)
(-0.00230554 -0.270108 0)
(-0.00696275 -0.271844 0)
(-0.0116612 -0.26984 0)
(-0.0163795 -0.266837 0)
(-0.0211264 -0.262837 0)
(-0.0259081 -0.257826 0)
(-0.0307304 -0.251788 0)
(-0.035596 -0.244705 0)
(-0.0405033 -0.236555 0)
(-0.0454449 -0.227318 0)
(-0.0504071 -0.216973 0)
(-0.0553682 -0.2055 0)
(-0.060298 -0.192886 0)
(-0.0651562 -0.179122 0)
(-0.0698926 -0.164211 0)
(-0.0744462 -0.148166 0)
(-0.0787467 -0.131021 0)
(-0.0827153 -0.112827 0)
(-0.0862661 -0.0936621 0)
(-0.0893137 -0.0736345 0)
(-0.0917764 -0.0529055 0)
(-0.0936643 -0.0317948 0)
(-0.0950013 -0.0112339 0)
(-0.00178796 -0.265925 0)
(-0.0054397 -0.26759 0)
(-0.00915033 -0.265569 0)
(-0.0128656 -0.262546 0)
(-0.0165986 -0.258519 0)
(-0.0203518 -0.253477 0)
(-0.0241287 -0.247406 0)
(-0.0279302 -0.240289 0)
(-0.0317539 -0.232111 0)
(-0.0355931 -0.222857 0)
(-0.0394358 -0.21251 0)
(-0.0432642 -0.201061 0)
(-0.047054 -0.188502 0)
(-0.0507739 -0.174835 0)
(-0.0543854 -0.16007 0)
(-0.0578428 -0.144229 0)
(-0.0610947 -0.127352 0)
(-0.0640847 -0.109496 0)
(-0.0667537 -0.0907405 0)
(-0.0690421 -0.0711893 0)
(-0.0709063 -0.0509851 0)
(-0.0723567 -0.0303897 0)
(-0.0734556 -0.0102519 0)
(-0.00125385 -0.26328 0)