/*--------------------------------*- C++ -*----------------------------------*\
| =========                 |                                                 |
| \\      /  F ield         | OpenFOAM: The Open Source CFD Toolbox           |
|  \\    /   O peration     | Version:  2312                                  |
|   \\  /    A nd           | Website:  www.openfoam.com                      |
|    \\/     M anipulation  |                                                 |
\*---------------------------------------------------------------------------*/
FoamFile
{
    version     2.0;
    format      ascii;
    arch        "LSB;label=32;scalar=64";
    class       volScalarField;
    location    "4.6";
    object      alpha.galistan;
}
// * * * * * * * * * * * * * * * * * * * * * * * * * * * * * * * * * * * * * //

dimensions      [0 0 0 0 0 0 0];

internalField   nonuniform List<scalar> 
2268
(
1
1
1
1
1
1
1
1
1
1
1
1
1
1
1
1
1
1
1
1
0.999976
0.999954
0.999954
1
1
1
1
1
1
1
1
1
1
1
1
1
1
1
1
1
1
1
1
0.999996
0.999969
0.999968
1
1
1
1
1
1
1
1
1
1
1
1
1
1
1
1
1
1
0.999999
1
1
0.999998
0.999999
1
1
1
1
1
1
1
1
1
1
1
1
1
1
1
1
1
1
1
1
1
1
1
0.989202
0.987438
0.985473
0.984961
0.987295
0.991886
0.99689
0.999794
0.999947
0.999834
0.999797
0.99993
0.999949
0.999911
0.999985
0.999995
0.999999
1
1
1
1
1
0.999988
0.419653
0.410656
0.401512
0.399035
0.409117
0.438757
0.491205
0.568988
0.663932
0.744606
0.819345
0.883397
0.935921
0.972106
0.992756
0.999187
0.99988
0.999698
0.993713
0.97304
0.974645
0.999105
0.997178
5.12924e-18
2.81162e-20
0
-1.08653e-11
-6.23667e-13
-1.98361e-24
-7.11117e-12
-4.68594e-06
0.00461193
0.036389
0.0806463
0.139097
0.218369
0.321622
0.447935
0.568903
0.660425
0.721281
0.74312
0.763085
0.762334
0.753336
0.744801
1.6545e-08
2.58463e-09
2.83422e-09
-9.50378e-25
5.86956e-24
4.27689e-06
-1.41359e-10
9.97121e-06
1.28675e-05
1.12261e-05
1.18473e-05
1.58755e-05
9.53773e-05
0.000103226
4.81497e-09
0.0120534
0.035064
0.057432
0.0821932
0.100093
0.099782
0.0822867
0.0768765
0.958146
0.96126
0.958967
0.957644
0.95719
0.957608
0.959008
0.960757
0.960808
0.960823
0.960835
0.964131
0.964884
0.964884
0.964887
0.964886
0.964638
0.962886
0.962745
0.947932
0.966114
0.966111
0.965347
0.964886
0.963777
0.955665
0.954154
0.934075
0.903797
0.900097
0.90455
0.901046
0.903197
0.902304
0.897239
0.893432
0.897181
0.897134
0.8
0.855389
0.878507
0.857879
0.809307
0.740772
0.675634
0.599148
0.503226
0.455434
0.440338
0.438541
0.435551
0.432471
0.417958
0.402161
0.382415
0.3619
0.359275
0.596936
0.568174
0.525219
0.444385
0.339529
0.2415
0.162164
0.115517
0.0592639
0.0370997
0.0359971
0.0252238
0.0142703
0.00589697
0.000707488
0.000703265
0.000706695
0.000703441
0.000706439
0.0974559
0.0528678
0.0153557
7.96033e-05
8.00016e-05
0.00568536
0.0161487
0.00477274
0.0108073
0.009599
0.00400733
1.54222e-05
1.40098e-05
1.46228e-05
0.000743525
0.00179075
0.00289847
0.00189236
0.000705511
8.03367e-05
8.03526e-05
8.00412e-05
8.04227e-05
0.00017383
0.00146926
0.000103401
0.00479213
0.011297
0.0119561
0.00476405
1.40098e-05
1.40098e-05
1.40103e-05
0.000674382
0.00618576
0.00834506
0.00598506
0.00118818
8.08005e-05
8.27956e-05
0.000285854
0.000731669
0.000469931
0.000111563
0.000102839
0.00482111
0.00851068
0.0124604
0.00453273
0.000967012
1.40098e-05
1.40098e-05
1.59397e-05
0.0125872
0.0135282
0.0114969
0.0020057
8.13614e-05
0.000730869
0.000563393
0.00126623
0.0007619
0.000120966
0.000485305
0.00157802
0.00974819
0.0223107
0.0171178
0.00618821
0.00298985
0.000573095
0.000505661
0.0120627
0.0101285
0.00719376
0.00354509
1.52729e-05
1.309e-08
3.36005e-08
1.09787e-05
4.22249e-05
5.35333e-05
5.21538e-05
6.62211e-05
5.55367e-05
4.74944e-05
5.05234e-05
6.35369e-05
6.47938e-05
2.27275e-05
5.36433e-09
-1.20408e-11
-1.92182e-12
-1.44644e-07
-1.03602e-20
-5.69128e-07
8.12262e-20
5.5532e-20
8.89904e-15
0.000396328
9.00656e-05
7.73226e-05
0.000446345
0.000804472
0.000879809
0.000517334
0.000164758
5.29244e-05
4.17743e-05
3.45618e-05
1.6311e-05
2.1002e-06
2.10281e-06
8.31844e-06
-5.46808e-23
2.31554e-08
0.000144043
0.000372381
0.000301233
1.18194e-20
4.42786e-23
0.00205522
0.000569661
0.000454912
0.00159951
0.00240277
0.00240277
0.00240275
0.000743012
0.000133843
0.000183487
0.000344156
0.000393753
0.000489833
0.00056724
0.000509174
0.000595855
0.00119389
0.00273782
0.00458078
0.00443362
0.00340578
0.00379407
0.00488997
0.00507027
0.000589412
0.000880216
0.00239999
0.00240096
0.00194697
0.000532172
0.000127958
0.000129285
0.000463384
0.000935433
0.00189105
0.00196589
0.00192083
0.00166242
0.00256183
0.00459932
0.00464396
0.00465156
0.00495308
0.00560068
0.00559797
0.00560099
0.00219011
0.00025224
0.00129041
0.00193824
0.000446814
0.000222194
0.000213192
7.70155e-05
5.41337e-05
0.000824106
0.0011042
0.000976615
0.00027058
0.000192883
0.000115915
9.50565e-05
0.000231859
0.000423243
0.000618267
0.00138368
0.00216767
0.00367702
0.00288124
0.00124488
0.00016968
0.000383508
0.00025625
4.35396e-05
4.26679e-05
4.26866e-05
4.19295e-05
3.56216e-05
6.21337e-05
0.000122349
0.000124098
0.000131414
9.18162e-05
6.42357e-05
2.54095e-05
2.9407e-05
4.27031e-05
4.30025e-05
4.30801e-05
0.00080498
0.00276655
0.00258126
0.00122827
0.000164291
0.000185986
0.000152893
8.00728e-05
4.43858e-05
4.12569e-05
4.13525e-05
0.000169051
0.000325087
0.000245872
1.63074e-05
1.23407e-06
1.20756e-06
1.01105e-06
7.76598e-07
9.63025e-06
6.28982e-05
0.000168489
0.000167971
6.81506e-05
2.52396e-05
0.00184035
0.00380074
0.000261564
0.00033569
0.000112488
0.000105422
0.000603349
0.000922175
0.000968819
0.000971276
0.000971566
0.000806631
1.04437e-05
1.23689e-06
2.07166e-06
2.44543e-06
3.2056e-07
1.29242e-07
5.03811e-06
8.50062e-05
0.000167471
6.75465e-05
2.34928e-05
0.00141651
0.00379817
0.000473851
0.000511886
0.000456342
0.000138947
0.000543005
0.0009692
0.000969373
0.000890225
0.000111801
2.89803e-05
2.31071e-06
1.11476e-05
1.46468e-05
6.83262e-06
2.35741e-08
3.74442e-08
1.61563e-05
0.000122836
0.000155907
2.77789e-05
2.53731e-05
0.00146252
0.00379354
0.000534968
0.000534934
0.000534823
0.000223385
8.13179e-05
0.000181412
0.000367058
0.000174739
8.03881e-11
1.87767e-09
2.75753e-06
1.46322e-05
1.41342e-05
1.26838e-06
2.87858e-08
1.06043e-05
2.7457e-05
2.11375e-05
2.29515e-06
2.82958e-06
0.00023073
0.0010177
0.00121155
0.000502125
0.000535003
0.000534949
0.000459148
6.64492e-05
8.35995e-11
7.58092e-11
7.59639e-11
7.58092e-11
7.99597e-09
1.56172e-07
5.30604e-08
3.86583e-08
3.12229e-08
2.48723e-08
1.47994e-06
2.63674e-06
1.81065e-06
1.01072e-06
2.50613e-06
1.14275e-06
2.94635e-07
6.0155e-08
5.06842e-05
0.000199648
0.000280011
0.000246444
8.21111e-05
5.56749e-06
8.19718e-11
7.99408e-11
7.69085e-11
1.89385e-08
1.7242e-07
1.81204e-07
1.81312e-07
4.50076e-08
9.73314e-08
3.35334e-07
5.4216e-08
5.93681e-08
6.00583e-08
6.52284e-08
6.61802e-08
5.75174e-07
8.77162e-07
-7.6388e-23
-4.40231e-22
-2.017e-09
2.13834e-07
1.94506e-05
5.74747e-06
8.32559e-11
7.96986e-11
2.06004e-10
1.26372e-07
1.76364e-07
1.65522e-07
2.36117e-08
2.15743e-08
5.50302e-07
1.06107e-06
1.00726e-06
2.06651e-07
6.54223e-08
1.90704e-07
2.84983e-07
1.06213e-06
1.40793e-06
4.98292e-10
1.51732e-27
7.69996e-08
3.84435e-07
1.08477e-06
8.27375e-07
1.77264e-07
3.44019e-08
5.12973e-08
1.08471e-07
6.014e-08
2.12386e-08
4.42859e-09
7.8719e-08
1.00871e-06
1.06371e-06
6.81051e-07
8.36431e-08
1.96788e-07
1.44086e-06
1.45216e-06
1.39109e-06
1.13389e-06
9.00493e-10
-1.26188e-28
8.21822e-08
2.76983e-07
3.01198e-07
1.64485e-07
1.02749e-07
9.43846e-08
9.02624e-08
2.6916e-08
3.75341e-09
3.75265e-09
4.32969e-09
1.38866e-07
2.1606e-07
1.36344e-07
2.01972e-09
1.7042e-09
1.35378e-06
1.54949e-06
1.53517e-06
1.01656e-06
1.84436e-07
1.13931e-09
1.2808e-09
3.01515e-08
7.30302e-08
6.72597e-08
6.69421e-08
8.80641e-08
6.88052e-08
2.66442e-08
3.8874e-09
3.75262e-09
7.02705e-09
2.42287e-08
1.16015e-08
1.05084e-09
1.0502e-09
3.26849e-09
1.65011e-09
3.24178e-07
1.22815e-06
7.87483e-07
3.68896e-08
3.67514e-08
1.25629e-09
2.09185e-09
9.07638e-09
1.64204e-08
1.99654e-08
3.73348e-08
3.09393e-08
1.59739e-08
5.09672e-09
3.43349e-09
3.80083e-09
5.80728e-09
6.05249e-09
4.06304e-09
1.21244e-09
1.05584e-09
2.45471e-08
3.88553e-08
2.65451e-10
2.29776e-10
4.5527e-07
2.47636e-07
5.97627e-08
1.22231e-09
1.90948e-09
4.39821e-09
5.61686e-09
7.693e-09
7.19319e-09
4.06612e-09
2.33897e-09
2.40803e-09
3.12677e-09
3.45594e-09
2.87339e-09
1.85175e-09
1.05351e-09
9.02003e-10
2.15207e-09
1.96899e-09
8.40805e-10
2.51061e-10
2.37084e-10
4.22266e-07
4.63675e-07
1.34197e-07
1.05207e-09
1.30974e-09
1.89957e-09
1.99447e-09
2.18875e-09
1.73964e-09
1.55642e-09
1.63584e-09
2.00763e-09
2.38133e-09
2.09106e-09
1.41074e-09
8.67879e-10
6.60683e-10
6.67612e-10
7.15847e-10
6.68756e-10
6.34943e-10
5.79348e-10
2.8472e-10
6.47019e-08
4.26725e-07
2.79104e-07
8.74939e-10
9.9351e-10
1.40597e-09
1.49528e-09
1.63859e-09
1.59064e-09
1.44487e-09
1.39588e-09
1.45847e-09
1.39146e-09
1.06537e-09
7.0565e-10
4.76714e-10
3.77806e-10
3.69326e-10
3.78979e-10
4.03724e-10
4.5494e-10
5.52274e-10
7.74368e-10
5.30311e-10
1.31329e-07
2.51209e-07
8.05424e-10
7.20895e-10
9.54808e-10
1.00836e-09
1.10806e-09
1.10008e-09
9.92335e-10
8.95785e-10
8.18318e-10
6.78692e-10
4.8987e-10
3.41499e-10
2.51075e-10
1.97125e-10
1.9087e-10
1.98717e-10
2.27715e-10
2.98942e-10
4.21995e-10
6.54531e-10
5.29528e-10
2.57958e-10
5.94175e-08
7.48298e-10
5.07623e-10
6.23646e-10
6.52739e-10
6.8919e-10
6.51938e-10
5.56825e-10
4.60566e-10
3.72623e-10
2.80418e-10
1.98537e-10
1.42906e-10
1.07427e-10
8.29821e-11
7.50789e-11
7.66552e-11
8.61219e-11
1.11694e-10
1.62666e-10
2.72096e-10
4.07012e-10
2.608e-10
1.01245e-08
7.04067e-10
3.48593e-10
3.89506e-10
3.91932e-10
3.80626e-10
3.31257e-10
2.61165e-10
1.96929e-10
1.43576e-10
1.00206e-10
6.91534e-11
4.89195e-11
3.59611e-11
2.79228e-11
2.40199e-11
2.43114e-11
2.70533e-11
3.40656e-11
4.85647e-11
7.79279e-11
1.34996e-10
1.59726e-10
3.0829e-09
6.52245e-10
2.33975e-10
2.3295e-10
2.18349e-10
1.94081e-10
1.5749e-10
1.17833e-10
8.41051e-11
5.71948e-11
3.74039e-11
2.37369e-11
1.54284e-11
1.04961e-11
7.8626e-12
6.81523e-12
7.03836e-12
8.18689e-12
1.05091e-11
1.48435e-11
2.32168e-11
3.40848e-11
6.43136e-11
3.76925e-10
6.18102e-10
1.56492e-10
1.3886e-10
1.25372e-10
1.13113e-10
9.71557e-11
7.822e-11
5.85578e-11
3.86507e-11
2.32182e-11
1.34934e-11
7.4254e-12
4.10222e-12
2.50437e-12
1.94576e-12
1.99723e-12
2.46723e-12
3.36624e-12
4.80728e-12
7.17524e-12
1.11868e-11
1.53104e-11
4.82082e-11
5.8404e-10
1.08331e-10
9.18934e-11
9.48516e-11
1.05389e-10
1.0795e-10
9.56067e-11
7.52528e-11
4.98776e-11
2.94473e-11
1.58551e-11
7.7996e-12
3.56659e-12
1.59783e-12
8.23522e-13
6.37661e-13
7.52071e-13
1.08315e-12
1.63353e-12
2.52286e-12
3.50346e-12
6.1116e-12
9.33974e-12
5.51541e-10
8.29049e-11
7.98358e-11
1.10324e-10
1.47357e-10
1.67289e-10
1.50133e-10
1.09225e-10
6.89989e-11
4.00452e-11
2.13171e-11
1.03208e-11
4.55181e-12
1.83916e-12
7.0588e-13
3.17023e-13
2.54021e-13
3.46447e-13
5.42594e-13
8.47773e-13
1.35022e-12
1.87463e-12
3.35085e-12
5.32261e-10
7.3804e-11
9.6383e-11
1.57799e-10
2.34241e-10
2.71315e-10
2.33105e-10
1.4846e-10
8.70122e-11
5.00759e-11
2.67963e-11
1.31263e-11
5.84203e-12
2.3631e-12
8.5734e-13
2.89781e-13
1.23184e-13
1.14599e-13
1.78975e-13
3.04334e-13
4.62783e-13
8.58134e-13
1.2301e-12
5.25633e-10
7.81861e-11
1.42848e-10
2.43693e-10
3.66455e-10
4.56355e-10
3.17586e-10
1.80093e-10
9.82994e-11
5.62757e-11
3.04567e-11
1.51037e-11
6.88549e-12
2.87368e-12
1.06516e-12
3.45454e-13
1.05458e-13
4.84397e-14
5.84926e-14
9.76304e-14
1.86599e-13
2.79592e-13
5.45636e-13
5.25617e-10
9.69026e-11
2.111e-10
4.45685e-10
7.22147e-10
8.29233e-10
4.55035e-10
2.04793e-10
9.89042e-11
5.66955e-11
3.12015e-11
1.56743e-11
7.34792e-12
3.18769e-12
1.23191e-12
4.15604e-13
1.20195e-13
3.48408e-14
2.22409e-14
3.58299e-14
6.09609e-14
1.42564e-13
2.28602e-13
5.33401e-10
1.26127e-10
3.28651e-10
8.10089e-10
1.19228e-09
1.05002e-09
6.38823e-10
2.44763e-10
9.23943e-11
5.14889e-11
2.85501e-11
1.44509e-11
7.00345e-12
3.1612e-12
1.29962e-12
4.67324e-13
1.41503e-13
3.59037e-14
1.20272e-14
1.3628e-14
3.09505e-14
5.94011e-14
1.28806e-13
5.42539e-10
1.51698e-10
5.43064e-10
1.22258e-09
1.34849e-09
1.15859e-09
7.04819e-10
2.47753e-10
9.48769e-11
4.58299e-11
2.41529e-11
1.201e-11
5.92445e-12
2.80629e-12
1.22539e-12
4.72233e-13
1.53674e-13
4.04944e-14
9.90477e-15
6.05069e-15
1.17496e-14
3.70804e-14
7.20824e-14
5.7654e-10
2.0951e-10
7.85027e-10
1.35554e-09
1.41184e-09
1.23496e-09
6.26947e-10
2.64046e-10
9.89394e-11
3.99871e-11
1.89038e-11
9.1285e-12
4.58812e-12
2.21289e-12
1.01449e-12
4.23146e-13
1.51084e-13
4.40271e-14
1.01215e-14
3.40447e-15
5.96542e-15
1.40146e-14
4.63503e-14
6.02188e-10
2.69136e-10
9.72412e-10
1.38697e-09
1.41182e-09
1.10188e-09
5.85559e-10
2.94343e-10
9.67578e-11
3.28817e-11
1.38432e-11
6.50125e-12
3.26149e-12
1.56407e-12
7.29748e-13
3.29485e-13
1.30913e-13
4.21858e-14
9.99172e-15
2.32215e-15
2.38372e-15
1.00465e-14
2.16924e-14
6.86592e-10
3.23464e-10
9.75762e-10
1.35169e-09
1.1995e-09
8.42846e-10
5.97433e-10
2.93262e-10
8.81044e-11
2.5294e-11
9.5557e-12
4.37743e-12
2.11767e-12
9.92312e-13
4.58854e-13
2.17198e-13
9.69919e-14
3.52489e-14
9.50426e-15
1.90506e-15
1.00037e-15
2.59889e-15
1.09982e-14
7.27936e-10
3.29915e-10
9.37767e-10
1.27583e-09
9.56578e-10
7.97437e-10
5.78799e-10
2.89015e-10
8.17316e-11
1.88955e-11
6.19182e-12
2.69746e-12
1.27383e-12
5.68601e-13
2.50057e-13
1.19651e-13
5.95274e-14
2.5233e-14
7.74274e-15
1.69243e-15
5.24743e-16
1.41928e-15
4.11162e-15
8.69117e-10
3.27307e-10
8.29593e-10
1.06677e-09
7.82485e-10
7.20643e-10
5.41498e-10
2.74653e-10
7.86943e-11
1.435e-11
3.73859e-12
1.53237e-12
7.07763e-13
2.97154e-13
1.19737e-13
5.38189e-14
2.83716e-14
1.42334e-14
5.3769e-15
1.30862e-15
2.51394e-16
3.00652e-16
1.62361e-15
9.59499e-10
3.32322e-10
6.48444e-10
7.55224e-10
6.54727e-10
6.37594e-10
4.73429e-10
2.39933e-10
7.40377e-11
1.18664e-11
2.07212e-12
7.72171e-13
3.53703e-13
1.43101e-13
5.18735e-14
2.02754e-14
1.01097e-14
5.81833e-15
2.78226e-15
8.78178e-16
1.47746e-16
1.03022e-16
3.38072e-16
1.18754e-09
3.57603e-10
4.75662e-10
5.62576e-10
6.32351e-10
5.98789e-10
4.05911e-10
1.87015e-10
5.49991e-11
8.78035e-12
1.03899e-12
3.32651e-13
1.54705e-13
6.12514e-14
2.01783e-14
6.35457e-15
2.65753e-15
1.59113e-15
1.00468e-15
4.36956e-16
8.93577e-17
2.95998e-17
7.28124e-17
1.35997e-09
4.34866e-10
4.50788e-10
5.57649e-10
6.48588e-10
5.55166e-10
3.13482e-10
1.20201e-10
3.01585e-11
4.13606e-12
3.8571e-13
1.08761e-13
5.4083e-14
2.18263e-14
6.75792e-15
1.76749e-15
5.2762e-16
2.72911e-16
2.22385e-16
1.57727e-16
4.2289e-17
8.95815e-18
1.54295e-17
1.58446e-09
6.61254e-10
4.74983e-10
6.26284e-10
6.5936e-10
4.44891e-10
1.83903e-10
4.98931e-11
9.04826e-12
8.9786e-13
6.89702e-14
2.30505e-14
1.29197e-14
5.4733e-15
1.65737e-15
3.72623e-16
7.49912e-17
2.87831e-17
3.29389e-17
3.76395e-17
1.63071e-17
3.55623e-18
2.91016e-18
1.81215e-09
1.03101e-09
7.15307e-10
7.49514e-10
5.305e-10
2.13196e-10
5.18141e-11
8.39101e-12
7.79771e-13
3.93617e-14
4.4679e-15
2.3924e-15
1.56632e-15
7.15492e-16
2.21503e-16
4.34844e-17
6.2438e-18
1.82063e-18
3.38752e-18
6.76352e-18
5.59413e-18
1.43283e-18
6.77383e-19
-2.73164e-15
0.000204891
0.000370561
0.00061366
0.00109029
0.000837505
0.00231059
0.00236192
0.00350053
0.000492257
0.000492395
0.000905975
0.0004922
0.000492411
0.000559876
0.00565542
0.000493709
0.000496137
0.00141013
0.00243466
0.00102508
0.000741448
0.000565104
0.000566365
0.00380555
0.00205887
0.000189844
0.00018467
0.00380057
0.00379819
0.00262439
0.000608881
0.00379782
0.00374164
0.00370769
0.00371461
0.00104727
0.000484978
0.000295955
0.000261518
5.09648e-08
6.01578e-08
4.54583e-07
1.00412e-07
7.68736e-07
4.22382e-07
7.76623e-08
2.34803e-07
1.41095e-06
1.33399e-06
5.43484e-07
1.79224e-08
1.23268e-06
5.46831e-07
2.21037e-07
1.88821e-08
8.45286e-09
8.55058e-09
1.84123e-08
1.53607e-07
7.78879e-08
1.60055e-07
1.42309e-07
3.86126e-06
2.05097e-07
2.3103e-07
3.32195e-06
5.97892e-06
1.09175e-07
1.56689e-07
2.26799e-07
4.60397e-06
1.1152e-07
4.94618e-08
4.45132e-08
6.75971e-07
1.39481e-07
8.05227e-08
3.95156e-08
7.13509e-08
1.31096e-07
9.91903e-08
3.15254e-08
7.63423e-09
3.18643e-08
5.74684e-08
2.71957e-08
7.71387e-09
5.00877e-09
6.2208e-09
7.74774e-09
5.08126e-09
6.50199e-10
7.5365e-10
7.26393e-10
9.16093e-10
7.41409e-11
7.4651e-11
9.97703e-11
1.22771e-10
1.3885e-11
1.72727e-11
1.9249e-11
2.4443e-11
4.44e-12
5.1924e-12
7.08778e-12
8.34871e-12
1.82299e-12
2.37986e-12
2.82306e-12
3.70872e-12
7.65161e-13
9.51249e-13
1.33e-12
1.57842e-12
3.52474e-13
5.20587e-13
6.57835e-13
8.99146e-13
2.10625e-13
2.90805e-13
4.39197e-13
5.59685e-13
1.36798e-13
2.16023e-13
2.97381e-13
4.37723e-13
8.6781e-14
1.30662e-13
2.20104e-13
2.87833e-13
5.96701e-14
8.69351e-14
1.2887e-13
2.1174e-13
2.3948e-14
4.07988e-14
7.39699e-14
1.02279e-13
1.15886e-14
1.88985e-14
3.15491e-14
5.72608e-14
3.80162e-15
7.09975e-15
1.20042e-14
1.99385e-14
1.02035e-15
1.66357e-15
3.23779e-15
6.15956e-15
1.86121e-16
3.34757e-16
5.85876e-16
1.17144e-15
3.49148e-17
6.08213e-17
1.20493e-16
2.28376e-16
6.17633e-18
9.84227e-18
1.57988e-17
2.8117e-17
9.58569e-19
1.2103e-18
1.67846e-18
2.42576e-18
0.00075698
0.000722696
0.000788611
0.00126031
0.00145335
0.000159803
0.000681129
0.00451995
0.0223107
0.0223109
0.0223107
0.0213925
0.00440139
0.0016719
0.00127619
0.0075334
0.00490633
0.00440657
0.00205772
0.00114907
0.000514382
0.000516978
0.00243354
0.00173068
0.000203572
0.00437324
0.0223106
0.0223109
0.0223109
0.0223109
0.0223107
0.0114153
0.00763533
0.00805573
0.009022
0.00855149
0.00272431
0.00164797
0.00163292
0.00238567
0.00811264
0.00972319
0.00592176
0.00584187
0.0163285
0.0176177
0.0158006
0.0164337
0.0134073
0.0131391
0.0161527
0.0154399
0.0117773
0.0100405
0.00721841
0.00399073
0.00283928
0.0100134
0.0100091
0.0100151
0.0100155
0.00777731
0.00575014
0.00618718
0.00185332
0.00182761
0.00111683
7.04004e-05
7.03882e-05
0.00174182
0.00396297
0.00373312
0.00310455
0.00213147
0.00292087
0.00640097
0.00258393
0.00384644
0.00586407
0.00695509
0.00367717
0.00124484
0.00165468
0.00176914
0.00134473
0.000525141
7.05841e-05
7.05013e-05
8.07236e-05
0.000284529
0.00106248
0.00143675
0.0019888
0.0046635
0.0073738
0.000300056
4.18669e-05
4.17736e-05
0.000287091
0.00046052
0.000584314
0.000367634
0.000283955
0.000635
0.000822847
0.000170748
7.04654e-05
7.67212e-05
8.05557e-05
8.98784e-05
0.000672555
0.00142166
0.00624404
0.0073738
0.000133993
4.57228e-05
4.18669e-05
4.17736e-05
4.1867e-05
4.32966e-05
4.48585e-05
4.46793e-05
0.000743497
0.0029397
0.00336085
0.00207708
0.00164268
0.00162378
0.00177112
0.0020647
0.00575935
0.0073738
0.0073738
0.000816078
0.000620462
0.000389692
0.000290393
0.000313845
0.000292135
0.000251419
5.77949e-05
0.00176481
0.00479341
0.00479394
0.00479365
0.004443
0.00340603
0.00245185
0.00263147
0.00400573
0.00653038
0.0073738
0.00298356
0.00116603
0.000698387
0.000694323
0.000663532
0.000550734
0.000539557
0.000412913
0.000707817
0.00342102
0.00394111
0.00262689
0.000749829
6.44966e-05
2.51595e-05
0.000267391
0.000216436
0.000900612
0.00169984
0.000176238
0.000187665
6.58655e-05
1.85832e-06
2.47613e-07
2.65989e-07
6.33722e-05
0.000179018
7.45359e-05
3.9555e-23
-9.73515e-25
-1.36394e-31
5.45304e-21
-3.98553e-21
4.38024e-07
3.61031e-07
3.49232e-06
2.03799e-06
2.07122e-06
1.8123e-07
1.77716e-07
1.10442e-07
1.62491e-07
5.44918e-07
4.35918e-07
-1.64004e-14
-7.38852e-13
-8.61617e-12
3.63186e-12
9.80177e-13
7.44773e-10
9.85933e-10
4.77325e-19
3.9589e-07
1.88166e-06
2.41562e-06
2.68684e-06
2.69492e-06
3.64145e-07
3.54202e-07
1.91574e-07
1.42188e-07
1.35619e-06
1.33244e-06
2.91579e-25
-4.8309e-24
4.33462e-11
1.28863e-08
3.16875e-08
9.28963e-28
5.48893e-17
2.24464e-25
9.31248e-08
1.16186e-06
1.81836e-06
2.48569e-06
2.3287e-06
3.33054e-08
2.7944e-08
3.27601e-08
1.4275e-07
2.53457e-06
2.5205e-06
5.41132e-07
2.7088e-06
2.06267e-06
3.86368e-07
3.16772e-07
2.14205e-06
2.46325e-06
9.92537e-07
1.04881e-10
4.79241e-09
1.12059e-09
1.33949e-10
5.82634e-07
1.79182e-08
5.32686e-08
3.72661e-08
9.31354e-07
2.53444e-06
2.20743e-06
3.71217e-06
7.13227e-06
7.13322e-06
4.47545e-06
3.59284e-06
5.04681e-06
4.86525e-06
6.85971e-07
7.26959e-11
8.67336e-11
1.00375e-08
1.27984e-10
1.33267e-10
2.1936e-06
4.0258e-06
2.38382e-06
1.91867e-06
1.3435e-06
2.5114e-06
8.23228e-06
7.96692e-06
6.55591e-06
6.59341e-06
4.57039e-06
8.01772e-07
2.0521e-07
1.00651e-07
7.278e-11
7.27606e-11
3.3029e-08
1.75981e-09
2.24664e-08
6.21084e-06
6.22236e-06
4.24707e-06
1.47197e-06
5.58139e-07
6.55612e-06
8.13009e-06
2.6397e-06
9.74169e-09
9.72771e-09
2.02934e-08
8.12277e-08
1.12925e-07
3.58024e-07
5.91871e-07
7.97063e-07
2.50604e-07
7.21839e-07
5.67189e-08
6.22236e-06
4.31365e-06
2.99183e-07
1.3585e-07
4.84192e-07
6.90917e-06
7.53663e-06
9.73972e-09
9.72803e-09
9.62046e-09
3.29147e-07
9.71992e-07
1.49473e-06
1.6455e-06
1.97947e-06
2.24643e-06
8.51113e-07
3.47336e-06
2.54863e-07
4.64433e-06
6.08879e-08
4.2349e-07
1.22193e-07
2.80213e-07
3.97571e-06
3.85117e-06
1.00536e-08
1.08455e-08
9.60475e-09
6.47544e-07
1.4017e-06
2.40843e-06
2.40855e-06
2.40896e-06
2.2212e-06
3.47029e-06
3.47032e-06
1.53782e-06
3.06796e-08
5.24314e-08
1.01127e-06
1.01177e-06
2.0918e-07
1.57279e-06
8.07784e-07
9.53663e-07
2.89549e-07
1.28385e-07
1.1296e-07
4.06165e-07
7.40395e-07
1.53692e-06
1.59719e-06
8.4165e-08
1.88744e-06
3.47105e-06
2.40972e-06
3.11144e-08
7.06587e-09
1.42126e-08
6.02687e-07
7.91685e-07
7.97264e-07
6.40977e-07
6.22616e-07
5.90809e-07
2.69639e-07
2.074e-07
8.99571e-08
1.19399e-09
1.6455e-10
2.0932e-07
7.31841e-09
4.10053e-09
3.3865e-06
1.6069e-06
7.69016e-09
5.53585e-09
6.76364e-09
4.85051e-09
1.2868e-07
2.61088e-07
2.052e-07
9.92978e-08
1.60795e-07
4.67778e-07
4.70903e-07
3.00991e-07
4.90443e-08
7.24708e-09
1.69151e-11
9.35146e-12
2.35527e-08
7.41565e-07
5.10412e-07
3.98322e-09
4.90163e-09
5.29862e-09
4.84508e-09
3.18111e-09
1.05457e-09
1.05097e-09
1.04847e-09
1.04578e-09
1.04846e-09
1.63914e-08
3.78213e-08
5.3352e-08
1.90392e-08
1.10406e-09
3.79779e-10
7.49195e-08
3.59868e-08
2.4608e-07
3.23391e-09
3.23631e-09
2.84609e-09
2.08699e-09
1.6331e-09
1.28002e-09
1.09428e-09
1.19279e-09
1.04346e-09
1.04642e-09
1.04892e-09
1.05114e-09
1.26141e-09
4.84308e-09
5.42492e-09
3.70775e-10
3.81912e-08
3.59255e-08
7.72471e-08
9.53144e-10
8.80012e-10
7.8628e-10
7.27289e-10
6.57844e-10
6.63713e-10
7.1252e-10
8.7025e-10
1.01563e-09
1.23235e-09
1.84804e-09
2.72743e-09
4.12577e-09
5.76798e-09
5.42096e-09
1.47478e-09
1.05505e-08
3.58627e-08
5.14734e-08
1.43953e-10
1.40423e-10
1.51787e-10
1.80596e-10
2.31288e-10
3.18047e-10
4.41266e-10
5.83059e-10
8.80648e-10
1.49938e-09
2.397e-09
3.1045e-09
3.77883e-09
4.1109e-09
3.31276e-09
1.0518e-09
1.65151e-08
3.84641e-08
1.16351e-08
2.82878e-11
3.3833e-11
4.42949e-11
5.92042e-11
8.22029e-11
1.19449e-10
1.7353e-10
2.65897e-10
3.97612e-10
6.28885e-10
9.9606e-10
1.31806e-09
1.61331e-09
2.23041e-09
2.42975e-09
1.16391e-09
1.22941e-09
3.33714e-08
1.16472e-08
1.05325e-11
1.40465e-11
1.97311e-11
2.81941e-11
4.14113e-11
6.04579e-11
8.87862e-11
1.35547e-10
2.11879e-10
3.48117e-10
5.72481e-10
9.01737e-10
1.48072e-09
2.59926e-09
2.38409e-09
1.15912e-09
1.18833e-08
2.60486e-08
1.11055e-08
4.46864e-12
6.50467e-12
9.82895e-12
1.49809e-11
2.33739e-11
3.70062e-11
5.86734e-11
9.51639e-11
1.65476e-10
3.01958e-10
5.64039e-10
1.02329e-09
1.82138e-09
3.20118e-09
1.02811e-09
4.0055e-09
6.96885e-08
3.5448e-08
8.79831e-09
2.1448e-12
3.26053e-12
5.12365e-12
8.09507e-12
1.31178e-11
2.19753e-11
3.78964e-11
6.7576e-11
1.25299e-10
2.49207e-10
5.13356e-10
1.01262e-09
1.87747e-09
3.55079e-09
6.53526e-10
3.17121e-08
7.18774e-08
4.08572e-08
8.80327e-09
1.16705e-12
1.88335e-12
3.03016e-12
4.88214e-12
8.11818e-12
1.39923e-11
2.38428e-11
4.26118e-11
8.81834e-11
1.96408e-10
4.44791e-10
9.5276e-10
1.65537e-09
3.08007e-09
6.56011e-10
5.76759e-08
6.50038e-08
3.46019e-08
7.92292e-09
8.03556e-13
1.31243e-12
2.16444e-12
3.59565e-12
5.93813e-12
9.39786e-12
1.50242e-11
2.55927e-11
4.78126e-11
1.06699e-10
2.68212e-10
6.70954e-10
1.40629e-09
2.65068e-09
2.18143e-09
5.03695e-08
6.13267e-08
2.02151e-08
6.88701e-09
5.9863e-13
1.02975e-12
1.75762e-12
2.99398e-12
5.14492e-12
8.48654e-12
1.39318e-11
2.2991e-11
3.82349e-11
6.6616e-11
1.39946e-10
3.62086e-10
1.17367e-09
2.58908e-09
5.97965e-09
2.06684e-08
1.67127e-08
7.43266e-09
6.32689e-09
4.52205e-13
7.97699e-13
1.44748e-12
2.60181e-12
4.67974e-12
8.20156e-12
1.41318e-11
2.37796e-11
3.86439e-11
6.15595e-11
1.04066e-10
1.95909e-10
7.15531e-10
2.5939e-09
8.43448e-09
5.2307e-09
5.21418e-09
5.31021e-09
8.60946e-09
2.92684e-13
5.82914e-13
1.12453e-12
2.15084e-12
4.13778e-12
7.78081e-12
1.4283e-11
2.5316e-11
4.20929e-11
6.49233e-11
9.90577e-11
1.44017e-10
2.47428e-10
2.4622e-09
1.25614e-08
2.13065e-08
5.19996e-09
5.19248e-09
5.19256e-09
1.80968e-13
3.67174e-13
7.68714e-13
1.62097e-12
3.38472e-12
6.9206e-12
1.3721e-11
2.5906e-11
4.53812e-11
7.29373e-11
1.08529e-10
1.41892e-10
1.50581e-10
1.52459e-10
2.33431e-08
7.74321e-08
6.07198e-08
5.21227e-09
5.59969e-08
8.6948e-14
2.00048e-13
4.59901e-13
1.07025e-12
2.49171e-12
5.62165e-12
1.21652e-11
2.4646e-11
4.61025e-11
7.88459e-11
1.23828e-10
1.72056e-10
1.76498e-10
2.89359e-09
2.60444e-08
8.95351e-08
1.49723e-07
3.73977e-08
1.41503e-07
3.48004e-14
8.85905e-14
2.29469e-13
6.08445e-13
1.60723e-12
4.05569e-12
9.66211e-12
2.12621e-11
4.28326e-11
7.94183e-11
1.35356e-10
2.16023e-10
3.25257e-10
9.66925e-10
1.71533e-08
8.63282e-08
1.59372e-07
1.29427e-07
1.5909e-07
1.11573e-14
3.13507e-14
9.33189e-14
2.86818e-13
8.62475e-13
2.48097e-12
6.62915e-12
1.60983e-11
3.53727e-11
7.09857e-11
1.32264e-10
2.3218e-10
3.61736e-10
5.43406e-10
7.09324e-09
4.17736e-08
1.09523e-07
1.54282e-07
1.28934e-07
2.60699e-15
8.51798e-15
2.89489e-14
1.02819e-13
3.62696e-13
1.21297e-12
3.72868e-12
1.02209e-11
2.50125e-11
5.44455e-11
1.11419e-10
2.1291e-10
3.79766e-10
5.83345e-10
6.85302e-10
6.09953e-09
5.55778e-08
1.32992e-07
5.65053e-08
4.49333e-16
1.48404e-15
6.09077e-15
2.61897e-14
1.13512e-13
4.58384e-13
1.66095e-12
5.31024e-12
1.50046e-11
3.72654e-11
8.32262e-11
1.71377e-10
3.36147e-10
5.95684e-10
9.01854e-10
1.28709e-09
7.34619e-09
2.15561e-08
1.93493e-09
4.98082e-17
1.64818e-16
6.95616e-16
3.45315e-15
1.88517e-14
9.81048e-14
4.48344e-13
1.77893e-12
6.03005e-12
1.77496e-11
4.66528e-11
1.09961e-10
2.38029e-10
4.82943e-10
8.37884e-10
1.20623e-09
1.7787e-09
1.89422e-09
1.049e-09
3.57024e-18
9.11476e-18
3.42446e-17
1.86844e-16
1.2251e-15
8.16799e-15
4.97475e-14
2.60017e-13
1.14994e-12
4.17421e-12
1.24845e-11
3.39077e-11
8.44626e-11
2.13265e-10
5.51809e-10
1.05121e-09
1.22767e-09
1.19728e-09
9.25076e-10
)
;

boundaryField
{
    leftWall
    {
        type            zeroGradient;
    }
    rightWall
    {
        type            zeroGradient;
    }
    lowerWall
    {
        type            zeroGradient;
    }
    atmosphere
    {
        type            inletOutlet;
        inletValue      uniform 0;
        value           nonuniform List<scalar> 
46
(
1.81215e-09
1.03101e-09
7.15307e-10
7.49514e-10
5.305e-10
2.13196e-10
5.18141e-11
8.39101e-12
7.79771e-13
0
0
0
0
0
0
0
0
0
0
6.76352e-18
5.59414e-18
1.43283e-18
0
0
0
0
0
0
0
0
0
0
0
0
0
0
0
0
0
0
0
0
1.05121e-09
1.22767e-09
1.19728e-09
9.25076e-10
)
;
    }
    defaultFaces
    {
        type            empty;
    }
}


// ************************************************************************* //
