/*--------------------------------*- C++ -*----------------------------------*\
| =========                 |                                                 |
| \\      /  F ield         | OpenFOAM: The Open Source CFD Toolbox           |
|  \\    /   O peration     | Version:  2312                                  |
|   \\  /    A nd           | Website:  www.openfoam.com                      |
|    \\/     M anipulation  |                                                 |
\*---------------------------------------------------------------------------*/
FoamFile
{
    version     2.0;
    format      ascii;
    arch        "LSB;label=32;scalar=64";
    class       volScalarField;
    location    "4.6";
    object      alpha.air;
}
// * * * * * * * * * * * * * * * * * * * * * * * * * * * * * * * * * * * * * //

dimensions      [0 0 0 0 0 0 0];

internalField   nonuniform List<scalar> 
2268
(
9.59736e-10
9.88634e-10
9.55945e-10
8.95815e-10
8.98851e-10
8.90846e-10
6.03506e-10
3.12113e-10
1.4655e-10
1.00464e-10
9.16536e-11
8.98455e-11
8.94236e-11
9.63862e-11
1.13652e-10
1.49302e-10
2.0226e-10
2.30259e-10
2.2053e-10
1.77788e-10
1.39861e-10
2.63183e-07
5.37099e-07
1.08416e-09
1.42129e-09
1.53477e-09
2.11897e-09
3.56334e-09
5.88744e-09
5.39881e-09
2.36896e-09
9.95957e-10
3.819e-10
3.72587e-10
4.11061e-10
4.42851e-10
4.4064e-10
4.69822e-10
5.54358e-10
7.78087e-10
1.26376e-09
1.34759e-09
4.02228e-10
1.41488e-10
7.51148e-07
8.0342e-07
3.11803e-09
2.82567e-09
3.27161e-09
3.86667e-09
7.78836e-09
1.81881e-08
2.23383e-08
1.93281e-08
1.4769e-08
2.70933e-09
1.20953e-09
1.92454e-09
1.91854e-09
1.74277e-09
1.59975e-09
1.65201e-09
2.28071e-09
3.59181e-09
3.66915e-09
3.72146e-10
9.46867e-08
3.38521e-07
3.8741e-07
2.83519e-09
2.82649e-09
2.82154e-09
2.81697e-09
3.01302e-09
3.73791e-09
4.90031e-09
1.21728e-08
1.54369e-07
1.19173e-07
1.24891e-09
1.2561e-09
1.2609e-09
3.43124e-09
2.24824e-09
1.85444e-08
1.37925e-09
1.38762e-09
1.22037e-09
1.98109e-09
4.04791e-08
2.84977e-08
2.89167e-08
0.000251031
0.000296437
0.000488627
0.000647536
0.000622073
0.000409694
0.00016603
2.46767e-05
5.8118e-07
8.8916e-06
2.62965e-05
3.37672e-05
1.20877e-05
2.17891e-07
6.94006e-09
3.87526e-06
1.18551e-06
1.91175e-18
2.00993e-18
-8.71811e-12
1.28103e-26
6.2463e-14
1.21441e-05
0.00120873
0.00130036
0.00132741
0.00132741
0.00132741
0.00132741
0.00123561
0.000586445
2.8449e-05
1.28397e-05
0.000130951
0.000169575
0.000147345
7.09133e-05
9.10538e-06
3.64275e-06
2.61972e-05
0.000301407
0.0014428
0.00237297
0.00195135
0.000895273
0.00282184
0.000760601
0.000673046
0.000855602
0.00129809
0.00132741
0.00121657
0.00102384
0.000733309
0.000193041
1.3343e-05
0.000119511
0.00016905
0.000168866
0.000155678
6.32471e-05
3.93984e-06
3.69837e-06
0.00129975
0.00811948
0.0118859
0.0118374
0.0117176
0.0088873
0.000273536
0.000272143
0.00027169
0.000274378
0.000575788
0.000267
0.000212038
0.000217363
0.000221201
0.000135022
9.90213e-05
9.53648e-05
5.95845e-05
2.58964e-05
1.5028e-05
0.000116002
0.000530747
0.00195538
0.00511364
0.0119543
0.0119516
0.0119574
0.00495798
0.000234844
0.00268578
0.00849597
0.00863332
0.00636939
0.00445676
0.00322758
0.00278036
0.00239363
0.00231137
0.00231249
0.00232064
0.00232803
0.00232491
0.00233379
0.00330848
0.00487968
0.00578619
0.00578953
0.000234846
0.000350796
0.00383237
0.00579642
0.00553948
0.00668809
0.00860266
0.00503461
0.00230568
0.00231174
0.00230906
0.00231344
0.00232405
0.00232434
0.00285286
0.00682153
0.0100963
0.00814243
0.00639399
0.000245757
0.000788952
0.000789362
0.000790915
0.00112233
0.011536
0.0173546
0.0173088
0.0139468
0.0109496
0.0126066
0.0133182
0.011794
0.0121938
0.0176212
0.0235959
0.0224849
0.014054
0.0141914
0.00592129
0.00693315
0.00693524
0.00898413
0.00891454
0.0118859
0.0117536
0.0214943
0.0215271
0.0228093
0.0235185
0.0235632
0.0245346
0.0250728
0.025068
0.0258789
0.0223187
0.0153412
0.0193588
0.00837504
0.015509
0.0370556
0.0369629
0.0346135
0.0420154
0.0419938
0.0192969
0.00557765
0.007052
0.0191286
0.0168619
0.018665
0.0250968
0.0246735
0.0247027
0.0418311
0.0437612
0.0205963
0.00830352
0.00630509
0.00796561
0.00476262
0.00402672
0.0396688
0.0281569
0.00768174
0.00533025
0.00539754
0.00505373
0.00374748
0.00339429
0.00573534
0.0137913
0.0555774
0.0678478
0.0605587
0.0204467
0.00830443
0.00376161
0.00286073
0.00215902
0.00202168
0.0125518
0.0129129
0.00865893
0.012318
0.00920621
0.00784061
0.00460325
0.00333958
0.0033229
0.00327547
0.0785881
0.0904119
0.0901641
0.0209347
0.00448827
0.00221692
0.00206284
0.00205178
0.00202052
0.00237291
0.0105366
0.0127861
0.0194532
0.0580868
0.055125
0.0265352
0.0113167
0.00355934
0.00326327
0.0764144
0.0688666
0.0458372
0.0432035
0.00347407
0.000271657
0.00027039
0.000259971
0.000229163
0.00021659
0.000211865
0.000211257
0.000217594
0.000226559
0.000183877
0.000136324
0.000140665
0.000106173
4.26637e-05
6.10679e-05
8.06335e-05
7.70915e-05
5.64581e-05
0.000994323
0.0049018
0.00248628
0.0013273
0.0341769
0.00958758
0.00334079
0.00299626
0.00506562
0.00649194
0.00771629
0.00674142
0.00348129
0.00145249
0.00104985
0.0012408
0.00164091
0.000844606
0.000543306
0.000575043
3.51674e-05
3.51675e-05
3.50934e-05
3.51894e-05
3.58283e-05
3.62991e-05
0.0213187
0.0398013
0.0301758
0.00938949
0.00814425
0.0289964
0.0615569
0.0708333
0.0603681
0.0493694
0.0458725
0.045457
0.0462418
0.0459602
0.0276324
0.0139851
0.0437058
0.0643539
0.0588756
0.0469833
0.0410455
0.0349602
0.0387368
0.043166
0.0398137
0.0252664
0.00202493
0.018259
0.0752843
0.0752483
0.0739879
0.0637245
0.0656004
0.0675316
0.067531
0.067347
0.0518957
0.0282035
0.0231976
0.0596692
0.0671351
0.0671116
0.0528428
0.0319243
0.0359472
0.0405083
0.0381889
0.0307172
0.00603243
0.00191057
0.0336253
0.0710964
0.00892982
0.00161826
0.0134979
0.0628992
0.0675316
0.0282152
0.000106347
0.000130316
0.000212898
0.00113559
0.00562155
0.00820311
0.00786779
0.00342001
0.00166556
0.0044572
0.0321922
0.0403623
0.00243879
0.00127878
0.00234559
0.00729906
0.00669084
0.00153292
0.00151216
0.00493717
0.0190625
0.0179222
0.0015049
0.000101919
0.000103242
0.00012574
0.000237979
0.000177194
3.82989e-05
5.57459e-06
5.57292e-06
7.3533e-06
0.0135669
0.0301281
0.0253691
0.00134761
0.00131492
0.00130914
0.00100192
0.000144457
2.6696e-05
1.84408e-05
2.6568e-05
2.27342e-05
3.24822e-05
0.000199269
0.00031505
0.000190891
7.22417e-05
3.20911e-06
2.35242e-06
3.97066e-06
4.62901e-06
0.000228074
0.000381386
0.0012428
0.000306517
9.61951e-05
0.00123607
0.000958663
0.000742236
0.000783376
0.0102689
0.140349
0.263611
0.318522
0.330623
0.291029
0.257377
0.222671
0.171474
0.124189
0.0811784
0.047661
0.0243742
0.0114312
0.00523223
0.00361577
0.00475362
0.0277136
0.06846
0.09291
0.116638
0.159195
0.308751
0.599656
0.835461
0.94068
0.980835
0.995902
0.999953
0.985262
0.95943
0.92546
0.870719
0.809308
0.733217
0.655667
0.587466
0.538776
0.516351
0.525922
0.656002
0.766591
0.813602
0.847426
0.886313
0.950443
0.993266
0.993242
0.99776
0.999825
0.999989
0.999999
0.999948
0.99954
0.999215
0.998687
0.995718
0.994939
0.997184
0.998524
0.998096
0.99367
0.987282
0.98779
0.995204
0.998839
0.998807
0.999038
0.99691
0.993357
0.99352
0.99879
1
0.999999
0.999999
0.99999
0.999985
0.999984
0.999984
0.999985
0.999988
0.999996
0.999998
0.999999
0.999997
0.999999
0.999998
0.999997
0.99929
0.999249
0.99972
0.999753
0.997699
0.998796
0.99992
1
1
0.999999
0.999977
0.999936
0.999936
0.999941
0.999941
0.999955
0.99999
0.999999
0.999999
0.999999
1
0.999998
0.999989
0.999547
0.999901
1
1
0.999981
0.999994
1
1
1
0.999992
0.99994
0.999931
0.999931
0.999931
0.999931
0.999932
0.999972
0.999991
0.999998
0.999991
0.999985
0.999975
0.999963
0.999993
0.999999
0.999999
0.999999
0.999999
0.999999
0.999999
0.999999
0.999997
0.999993
0.999944
0.999939
0.999944
0.999972
0.999974
0.999975
0.999979
0.999989
0.999998
0.999964
0.999963
0.999963
0.999963
0.999999
0.999999
1
1
0.999999
0.999999
0.999999
0.999999
0.999997
0.999995
0.999991
0.999992
0.999999
1
1
0.999985
0.999981
0.999996
0.999998
0.999974
0.999963
0.999963
0.999974
1
1
1
1
1
1
1
0.999999
0.999999
0.999999
1
1
1
1
1
1
0.999999
0.999999
1
0.999999
0.999974
0.999992
0.999999
1
1
1
1
1
1
1
1
1
1
1
1
1
1
1
1
1
1
1
1
0.999998
0.999995
0.999999
1
1
1
1
1
1
1
1
1
1
1
1
1
1
1
1
1
1
1
1
0.999999
0.999997
0.999999
1
1
1
1
1
1
1
1
1
1
1
1
1
1
1
1
1
1
1
1
1
0.999999
0.999999
1
1
1
1
1
1
1
1
1
1
1
1
1
1
1
1
1
1
1
1
1
1
0.999999
1
1
1
1
1
1
1
1
1
1
1
1
1
1
1
1
1
1
1
1
1
1
1
1
1
1
1
1
1
1
1
1
1
1
1
1
1
1
1
1
1
1
1
1
1
1
1
1
1
1
1
1
1
1
1
1
1
1
1
1
1
1
1
1
1
1
1
1
1
1
1
1
1
1
1
1
1
1
1
1
1
1
1
1
1
1
1
1
1
1
1
1
1
1
1
1
1
1
1
1
1
1
1
1
1
1
1
1
1
1
1
1
1
1
1
1
1
1
1
1
1
1
1
1
1
1
1
1
1
1
1
1
1
1
1
1
1
1
1
1
1
1
1
1
1
1
1
1
1
1
1
1
1
1
1
1
1
1
1
1
1
1
1
1
1
1
1
1
1
1
1
1
1
1
1
1
1
1
1
1
1
1
1
1
1
1
1
1
1
1
1
1
1
1
1
1
1
1
1
1
1
1
1
1
1
1
1
1
1
1
1
1
1
1
1
1
1
1
1
1
1
1
1
1
1
1
1
1
1
1
1
1
1
1
0.999999
0.999999
1
1
1
1
1
1
1
1
1
1
1
1
1
1
1
1
1
1
1
1
0.999999
0.999999
0.999999
1
1
1
1
1
1
1
1
1
1
1
1
1
1
1
1
1
1
1
1
0.999999
0.999999
0.999999
1
1
1
1
1
1
1
1
1
1
1
1
1
1
1
1
1
1
1
0.999999
0.999999
0.999999
1
1
1
1
1
1
1
1
1
1
1
1
1
1
1
1
1
1
1
1
0.999999
0.999999
1
1
1
1
1
1
1
1
1
1
1
1
1
1
1
1
1
1
1
1
1
0.999999
0.999999
1
1
1
1
1
1
1
1
1
1
1
1
1
1
1
1
1
1
1
1
1
0.999999
0.999999
1
1
1
1
1
1
1
1
1
1
1
1
1
1
1
1
1
1
1
1
1
0.999999
0.999999
1
1
1
1
1
1
1
1
1
1
1
1
1
1
1
1
1
1
1
1
1
0.999999
1
1
1
1
1
1
1
1
1
1
1
1
1
1
1
1
1
1
1
1
1
1
1
1
1
1
1
1
1
1
1
1
1
1
1
1
1
1
1
1
1
1
1
1
1
1
1
1
1
1
1
1
1
1
1
1
1
1
1
1
1
1
1
1
1
1
1
1
1
1
1
1
1
1
1
1
1
1
1
1
1
1
1
1
1
1
1
1
1
0.00129013
0.00198941
0.0122196
0.012421
0.0359256
0.0381263
0.0317192
0.00628199
0.0313513
0.00444771
0.00450429
0.0041318
0.0286589
0.0298172
0.0298921
0.0173282
0.0402942
0.022359
0.000874481
0.000235178
9.59414e-05
9.60605e-05
0.000101327
0.000269482
9.60537e-05
9.48172e-05
9.49192e-05
0.000459757
0.0686465
0.0555705
0.0557493
0.0544398
0.744729
0.723845
0.741948
0.750456
0.99867
0.999154
0.999704
0.999738
0.999997
0.999999
1
1
0.999984
0.99999
0.999998
1
0.999963
0.999965
0.999973
0.999998
0.999965
0.999965
0.999966
0.999988
0.99999
0.999999
0.999999
0.999998
0.999999
0.999999
0.999997
0.999952
0.999999
0.999999
0.999964
0.999932
0.999999
0.999999
0.999999
0.99995
0.999999
1
0.999999
0.999995
1
1
1
0.999999
1
1
1
1
1
1
1
1
1
1
1
1
1
1
1
1
1
1
1
1
1
1
1
1
1
1
1
1
1
1
1
1
1
1
1
1
1
1
1
1
1
1
1
1
1
1
1
1
1
1
1
1
1
1
1
1
1
1
1
1
1
1
1
1
1
1
1
1
1
1
1
1
1
1
1
1
1
1
1
1
1
1
1
1
1
1
1
1
0.00437173
0.00196396
0.0020734
0.00369755
0.00240237
0.00231395
0.00954226
0.021113
0.0375325
0.093756
0.0937561
0.0930269
0.0202035
0.0118137
0.0211544
0.079179
0.0322529
0.0166815
0.0430835
0.00196624
0.00196388
0.00196392
0.0245938
0.0317217
0.0300423
0.0871231
0.044346
0.018204
0.09115
0.093756
0.093756
0.0793901
0.070177
0.0444225
0.0251288
0.0100642
0.0117081
0.0326839
0.00262819
0.00862307
0.0489012
0.156347
0.187617
0.184595
0.127286
0.00050205
0.000500854
0.0249896
0.0924633
0.0937303
0.0776479
0.0363432
0.00495034
0.00350834
0.00893534
0.00750987
0.00252047
0.00677171
0.0350831
0.157704
0.187618
0.187621
0.12503
0.00107046
0.000504186
0.000504924
0.00119165
0.0197124
0.0226569
0.00435435
0.00280825
0.00111693
0.00111422
0.00284729
0.000453995
9.6897e-10
0.000229757
0.00045057
0.0865836
0.187621
0.187588
0.0514695
0.000501743
0.000560651
0.000939205
0.00137864
0.00185999
0.00329697
0.00880384
0.00866913
0.00490452
0.000761373
0.000131103
2.9346e-07
1.31854e-09
0.000581045
0.000861077
0.0317801
0.180791
0.187621
0.0667934
0.000465219
0.00146641
0.0016833
0.0010923
0.000870739
0.000871555
0.0012682
0.00175458
0.00186846
0.00118982
0.000425357
0.0204718
0.0529894
0.000576475
0.000754577
0.00684359
0.100828
0.146003
0.0772682
0.000466791
0.000454784
0.00151893
0.0255917
0.0559771
0.0668339
0.0847156
0.108517
0.138392
0.17577
0.338693
0.543273
0.522964
0.054186
0.0451304
0.0441586
0.0534402
0.0822145
0.126842
0.212357
0.254529
0.361447
0.577647
0.703267
0.762182
0.82225
0.885441
0.931066
0.96935
0.98979
0.990731
0.987897
0.751126
0.729879
0.729295
0.758799
0.821736
0.887546
0.940311
0.960831
0.974032
0.996426
0.996041
0.997336
0.999184
0.999922
0.999966
0.999582
0.999616
0.999097
0.998298
0.999818
0.999084
0.998424
0.998643
0.999185
0.999544
0.999761
0.999821
0.999925
0.999966
0.999974
0.999999
0.999999
1
0.999978
0.999953
0.999949
0.999946
0.999956
1
1
1
1
0.999999
0.999999
0.999999
0.999999
0.999996
0.999985
0.999978
1
1
1
0.999932
0.99987
0.999869
0.999868
0.999916
0.999999
0.999999
1
1
0.999999
0.999999
0.999999
0.999999
0.999989
0.999975
0.999981
0.999991
1
1
0.999985
0.999904
0.999868
0.999869
0.999892
1
1
1
1
0.999997
0.99998
0.999961
0.999867
0.99986
0.99995
0.999961
0.999913
0.999902
0.999965
0.999996
0.999974
0.99987
0.999881
0.999988
1
0.999999
1
0.999991
0.999965
0.999917
0.999807
0.999763
0.999763
0.999867
0.999892
0.999796
0.999796
0.999922
0.999996
0.999901
0.999873
0.9999
0.999988
0.999978
0.999972
0.99998
0.999916
0.999893
0.999858
0.999768
0.999763
0.99977
0.999769
0.999789
0.999902
0.999938
0.999971
0.999973
0.99988
0.999877
0.999976
0.999988
0.999934
0.999941
0.999902
0.999899
0.999911
0.999825
0.999774
0.999835
0.999968
0.999973
0.999982
0.999982
0.999981
0.99996
0.999952
0.999952
0.999948
0.999967
0.999987
0.999936
0.999985
0.999986
0.99995
0.999954
0.999893
0.999897
0.999987
0.999964
0.999962
0.999977
0.999976
0.999958
0.999949
0.999948
0.999948
0.999951
0.999964
0.999987
0.999958
0.999997
0.999994
0.999994
0.999994
0.999986
0.999991
0.999987
0.999947
0.999946
0.999945
0.999946
0.999951
0.999971
0.999972
0.999948
0.999946
0.999967
0.999995
0.999999
0.999997
0.999993
0.999992
0.999994
0.999993
0.999993
0.999993
0.999991
0.999962
0.999949
0.999949
0.999971
0.999998
0.999998
0.999968
0.999946
0.999979
0.999997
1
1
1
0.999995
0.999985
0.999984
0.999984
0.999989
0.999993
0.999989
0.999973
0.99996
0.999963
0.999985
0.999998
0.999998
0.999954
0.999985
0.999998
1
1
1
1
0.999998
0.999991
0.999995
0.999999
0.999998
0.999979
0.999964
0.999962
0.999962
0.999963
0.999994
0.999999
0.99997
0.999984
0.999999
1
1
1
1
1
1
1
1
1
1
1
0.999998
0.999975
0.999985
1
1
0.999974
0.999985
0.999999
1
1
1
1
1
1
1
1
1
1
1
1
1
1
1
0.999999
0.999985
0.999991
0.999999
1
1
1
1
1
1
1
1
1
1
1
1
1
1
1
1
0.999995
0.999997
1
1
1
1
1
1
1
1
1
1
1
1
1
1
1
1
0.999999
1
1
1
1
1
1
1
1
1
1
1
1
1
1
1
1
1
1
0.999999
1
1
1
1
1
1
1
1
1
1
1
1
1
1
1
1
1
1
1
1
1
1
1
1
1
1
1
1
1
1
1
1
1
1
1
1
1
1
1
1
1
1
1
1
1
1
1
1
1
1
1
1
1
1
1
1
1
1
1
1
1
1
1
1
1
1
1
1
1
1
1
1
1
1
1
1
1
1
1
1
1
1
1
1
1
1
1
1
1
1
1
1
1
1
1
1
1
1
1
1
1
1
1
1
1
1
1
1
1
1
1
1
1
1
1
1
1
1
1
1
1
1
1
1
1
1
1
1
1
1
1
1
1
1
1
0.999998
1
1
1
1
1
1
1
1
1
1
1
1
0.999999
0.999999
1
1
1
1
0.999997
1
1
1
1
1
1
1
1
1
1
1
1
0.999998
0.999993
0.999996
1
1
1
0.999997
1
1
1
1
1
1
1
1
1
1
1
1
0.999999
0.999993
0.999993
0.999997
1
1
0.999997
1
1
1
1
1
1
1
1
1
1
1
1
1
0.999998
0.999993
0.999993
0.999999
1
0.999999
1
1
1
1
1
1
1
1
1
1
1
1
1
1
0.999996
0.999993
0.999994
0.999999
0.999998
1
1
1
1
1
1
1
1
1
1
1
1
1
1
1
0.999996
0.999994
0.999997
0.999998
1
1
1
1
1
1
1
1
1
1
1
1
1
1
1
0.999999
0.999999
0.999998
0.999999
1
1
1
1
1
1
1
1
1
1
1
1
1
1
1
1
1
1
1
1
1
1
1
1
1
1
1
1
1
1
1
1
1
1
1
1
1
1
)
;

boundaryField
{
    leftWall
    {
        type            alphaContactAngle;
        thetaProperties 
6
(
(galistan air) 90 0 0 0
(oil galistan) 90 0 0 0
(water oil) 90 0 0 0
(water air) 90 0 0 0
(oil air) 90 0 0 0
(water galistan) 90 0 0 0
);
        value           nonuniform List<scalar> 
50
(
9.59736e-10
1.08416e-09
3.11803e-09
2.83519e-09
0.000251031
0.00120873
0.000760601
0.000273536
0.00347407
0.0341769
0.0398013
0.0398137
0.0307172
0.00243879
0.00134761
0.00123607
0.09291
0.813602
0.998839
0.99929
0.999547
0.999993
0.999999
1
1
1
1
1
1
1
1
1
1
1
1
1
1
1
1
1
1
1
1
1
1
1
1
1
1
1
)
;
    }
    rightWall
    {
        type            alphaContactAngle;
        thetaProperties 
6
(
(galistan air) 90 0 0 0
(oil galistan) 90 0 0 0
(water oil) 90 0 0 0
(water air) 90 0 0 0
(oil air) 90 0 0 0
(water galistan) 90 0 0 0
);
        value           nonuniform List<scalar> 
50
(
0.00578953
0.00639399
0.0141914
0.0193588
0.0205963
0.0204467
0.0209347
0.0432035
0.0430835
0.0326839
0.00252047
9.6897e-10
1.31854e-09
0.0529894
0.522964
0.987897
0.998298
0.999956
0.999916
0.999892
0.999988
0.999988
0.999988
0.999987
0.999987
0.999995
0.999997
0.999998
0.999999
0.999999
0.999999
1
1
1
1
1
1
1
1
1
0.999998
0.999997
0.999997
0.999997
0.999999
0.999998
0.999998
0.999999
1
1
)
;
    }
    lowerWall
    {
        type            alphaContactAngle;
        thetaProperties 
6
(
(galistan air) 90 0 0 0
(oil galistan) 90 0 0 0
(water oil) 90 0 0 0
(water air) 90 0 0 0
(oil air) 90 0 0 0
(water galistan) 90 0 0 0
);
        value           nonuniform List<scalar> 
62
(
9.59736e-10
9.88634e-10
9.55945e-10
8.95815e-10
8.98851e-10
8.90846e-10
6.03506e-10
3.12113e-10
1.4655e-10
1.00464e-10
9.16536e-11
8.98455e-11
8.94236e-11
9.63862e-11
1.13652e-10
1.49302e-10
2.0226e-10
2.30259e-10
2.2053e-10
1.77788e-10
1.39861e-10
2.63183e-07
5.37099e-07
5.37099e-07
8.0342e-07
3.8741e-07
2.89167e-08
1.21441e-05
0.00282184
0.0088873
0.00495798
0.00129013
0.00198941
0.0122196
0.012421
0.000234844
0.000234846
0.000245757
0.00592129
0.00837504
0.00830352
0.00830443
0.00448827
0.000234844
0.00268578
0.00849597
0.00863332
0.00636939
0.00445676
0.00322758
0.00278036
0.00239363
0.00231137
0.00231249
0.00232064
0.00232803
0.00232491
0.00233379
0.00330848
0.00487968
0.00578619
0.00578953
)
;
    }
    atmosphere
    {
        type            inletOutlet;
        inletValue      uniform 1;
        value           nonuniform List<scalar> 
46
(
1
1
1
1
1
1
1
1
1
1
1
1
1
1
1
1
1
1
1
1
1
1
1
1
1
1
1
1
1
1
1
1
1
1
1
1
1
1
1
1
1
1
1
1
1
1
)
;
    }
    defaultFaces
    {
        type            empty;
    }
}


// ************************************************************************* //
