/*--------------------------------*- C++ -*----------------------------------*\
| =========                 |                                                 |
| \\      /  F ield         | OpenFOAM: The Open Source CFD Toolbox           |
|  \\    /   O peration     | Version:  2312                                  |
|   \\  /    A nd           | Website:  www.openfoam.com                      |
|    \\/     M anipulation  |                                                 |
\*---------------------------------------------------------------------------*/
FoamFile
{
    version     2.0;
    format      ascii;
    arch        "LSB;label=32;scalar=64";
    class       volScalarField;
    location    "4.6";
    object      p_rgh;
}
// * * * * * * * * * * * * * * * * * * * * * * * * * * * * * * * * * * * * * //

dimensions      [1 -1 -2 0 0 0 0];

internalField   nonuniform List<scalar> 
2268
(
5192.46
5193.34
5196.76
5205.9
5223.59
5252
5292.28
5344.32
5406.73
5477.34
5554.15
5635.57
5720.17
5806
5890.28
5969.64
6041.19
6103.25
6154.97
6196.72
6229.4
6253.2
6266.58
5191.65
5192.12
5195.13
5203.66
5220.8
5248.9
5289.14
5341.42
5404.25
5475.27
5552.48
5634.3
5719.46
5806.04
5891.22
5971.36
6043.29
6105.42
6156.76
6197.87
6230.02
6253.59
6267.07
5191.35
5190.89
5192.36
5199.36
5215.3
5242.74
5282.9
5335.66
5399.36
5471.22
5549.21
5631.83
5718.1
5806.21
5893.21
5974.84
6047.49
6109.68
6160
6199.51
6230.41
6253.47
6267.23
5191.12
5189.09
5188.2
5192.77
5206.8
5233.24
5273.28
5326.84
5391.95
5465.13
5544.34
5628.13
5716.06
5806.51
5896.45
5980.55
6054.19
6116.47
6165.01
6201.76
6230.59
6252.79
6266.35
5159.06
5149.45
5139.12
5138.5
5156.68
5195.45
5250.31
5313.81
5381.8
5456.54
5537.35
5622.95
5713.09
5806.49
5900.83
5988.48
6063.35
6126
6171.7
6204.33
6230.28
6251.59
6263.47
3056.93
3018.04
2978.06
2967.45
3011.86
3141.91
3371.52
3712.39
4132.92
4507.27
4865.39
5187.8
5474
5704.61
5880.45
5996.45
6074.83
6137.84
6155.92
6102.44
6130.15
6244.85
6243.91
1201.43
1201.74
1201.35
1200.76
1200.11
1198.46
1195.77
1192.63
1213.69
1371.82
1595.11
1892.51
2297.94
2827.78
3476.66
4106.01
4592.33
4916.77
5039.2
5159.93
5169.67
5132.16
5108.55
1202.22
1202.39
1201.98
1201.43
1200.25
1198.22
1194.91
1191.38
1187.81
1182.93
1178.28
1174.04
1170.98
1168.5
1165.81
1232.16
1360.9
1486.97
1632.53
1738.71
1746.12
1654.53
1646.99
3604.14
3603.92
3559.57
3479.76
3377.71
3266.51
3159.5
3061.36
2957.61
2871.09
2816.22
2784.13
2761.64
2749.3
2740.29
2730.43
2719.79
2710.83
2706.02
3600.81
3612.3
3569.85
3489
3385.22
3270.11
3154.33
3054.92
2931.71
2820.05
2764.45
2736.21
2711.45
2700.53
2691.57
2677.7
2663.7
2658.94
2654.1
3375.47
3452.02
3445.84
3331
3149.89
2926.15
2721.72
2508.62
2262.75
2125.56
2055.9
2020.23
1994.5
1981.12
1954.32
1924.97
1888.05
1848.01
1838.98
2928.64
2818.57
2667.44
2418.55
2112.37
1827.25
1596.85
1453.09
1302.78
1221.85
1163.57
1102.96
1061.86
1035.36
1040
1045.47
1057.54
1068.41
1049.34
1459.95
1316.8
1178.56
1126.81
1128.72
1140.65
1171.26
1142.24
1174.97
1161.7
1104.24
1060.31
1022.3
1015.39
1062.25
1083.79
1088.63
1085.61
1067.24
1108.48
1143.79
1140.51
1139.15
1139.07
1124.82
1112.97
1143.74
1172.7
1168.76
1120.58
1089.33
1068.73
1048.71
1064.38
1095.7
1102.64
1095.76
1086.05
1123.94
1147.24
1144.05
1141.16
1140.82
1128.78
1112.51
1141.72
1155.62
1169.4
1124.58
1102.12
1092.65
1091.93
1087.3
1112.6
1115.59
1108.9
1088.24
1154.99
1152.91
1135.13
1128.62
1138.06
1130.26
1113.42
1121.51
1156.89
1199.65
1171.65
1122.33
1104.16
1092.46
1090.14
1112.61
1105.86
1103.4
1086.89
1200.68
1202.05
1201.1
1200.3
1199.28
1196.79
1193.17
1189.44
1185.67
1181.46
1177.18
1173.25
1170.1
1167.97
1166.94
1163.72
1160.85
1166.34
1172.69
1176.5
1174.81
1181.87
1182.87
1185.58
1197.23
1198.72
1200.82
1200.73
1197.29
1189.19
1182.79
1180.55
1178.34
1174.39
1169.9
1166.68
1166.47
1167.09
1168.41
1171.81
1177.59
1184.84
1189.97
1193.45
1197.98
1201.88
1052.5
1033.49
1033.52
1057.26
1079.99
1087.59
1082.03
1084.72
1094.68
1112.05
1119.27
1114.58
1105.5
1117.75
1139.51
1140.76
1148.59
1171.86
1190.61
1194.22
1207.64
1217.91
1215.26
815.139
813.317
832.966
823.014
820.574
827.29
810.133
797.658
807.105
836.575
848.227
810.931
779.036
783.183
812.555
855.947
880.82
896.825
922.205
951.945
952.112
972.299
1035.8
805.247
827.859
831.385
786.618
755.866
777.934
770.23
755.216
732.524
727.483
741.554
744.781
743.768
742.972
742.336
742.484
745.482
750.802
766.245
780.993
803.23
779.039
752.154
822.978
821.397
810.599
794.818
784.07
774.347
762.607
751.214
736.635
733.379
739.61
739.545
739.725
740.906
742.188
744.714
747.788
750.526
753.366
767.363
790.99
780.181
761.218
825.753
820.315
810.769
797.99
784.06
769.183
754.528
744.606
740.826
737.195
731.307
731.623
734.416
738.235
742.415
747.116
751.739
755.843
757.817
757.427
759.733
799.763
829.504
826.85
822.525
809.629
796.909
782.815
678.154
577.337
529.329
512.891
536.717
547.307
574.438
614.333
655.634
695.761
726.858
747.337
755.202
758.71
759.354
761.665
778.172
791.353
756.996
734.672
696.104
566.392
338.374
159.031
71.5821
34.1962
5.92387
0.876584
11.7885
32.5012
61.8138
114.944
165.1
225.828
288.023
344.422
381.062
394.132
390.681
321.554
281.74
174.981
145.535
113.297
54.2214
14.4572
16.2548
11.8981
4.03445
0.086453
0.0622509
0.15308
1.06015
1.56602
2.15441
7.17168
8.80141
5.38839
2.97257
3.27368
10.7873
26.6676
42.8092
34.2672
13.9034
14.6581
14.3097
16.3706
13.9764
11.8847
2.19088
-0.0243402
0.00631441
0.0011306
-0.0201571
-0.0516498
-0.0601691
-0.064537
-0.0662696
-0.0163782
0.0238998
0.00373059
-0.0362357
-0.0309136
-0.0799423
-0.0785512
-0.0515983
2.85508
6.44571
7.3857
6.45249
6.40956
2.37969
0.100017
-0.031765
-0.0223329
-0.0228535
-0.00815127
0.016116
0.00360408
-0.0105053
-0.00694525
-0.00828548
-0.0422522
-0.0498736
-0.0581048
-0.0727939
-0.0818742
-0.0564116
-0.0150386
0.96802
0.18976
-0.0685402
-0.0906013
0.428143
0.0721218
-0.0539648
-0.041733
-0.0370171
-0.023046
0.0276918
0.0368882
0.0273072
0.0300812
0.0444709
0.0603379
0.0232808
-0.0254927
-0.0472322
-0.0377007
-0.0264682
0.0115333
0.0530992
-0.0574159
-0.063808
-0.0579584
-0.053211
-0.0405903
-0.0400187
-0.0455694
-0.0433716
-0.0319123
-0.0234113
0.025065
0.0241116
0.0157194
-0.00613216
0.0261393
0.0280826
0.0154973
-0.018348
-0.0361585
0.0537157
0.0562952
0.0585336
0.0588762
-0.0131368
-0.0147
-0.0253406
-0.0332924
-0.0426019
-0.0464371
-0.0424325
-0.0354003
-0.0267984
-0.0253131
-0.0257778
-0.0291123
-0.0401793
-0.0386381
-0.0372082
-0.00613717
0.00152703
-0.0317947
0.00389323
0.0510844
0.0711451
0.0587996
0.0232655
-0.0136228
-0.0193326
-0.0262998
-0.0329397
-0.0388231
-0.0391307
-0.0347597
-0.0312871
-0.0294361
-0.0310582
-0.0325324
-0.0334521
-0.0340671
-0.0357345
-0.0369302
-0.0363803
-0.0342238
-0.0334781
-0.0240848
0.00591952
0.0364775
-0.0158137
-0.0224483
-0.0188799
-0.0212862
-0.0251289
-0.0290574
-0.0317166
-0.0315007
-0.0302497
-0.0291367
-0.02848
-0.0281782
-0.0284287
-0.0290661
-0.0299082
-0.0307723
-0.0314881
-0.0318566
-0.0308223
-0.0296442
-0.0301257
-0.0292877
-0.0109262
-0.00892128
-0.0182601
-0.0210419
-0.0221661
-0.024063
-0.0259115
-0.02709
-0.0273279
-0.0267112
-0.0258648
-0.0251427
-0.0248137
-0.0249546
-0.0254758
-0.0261341
-0.0267719
-0.0272614
-0.0274517
-0.0273176
-0.0268156
-0.0260239
-0.0250655
-0.00810347
-0.000363765
-0.0129522
-0.0215729
-0.022154
-0.0230473
-0.0237782
-0.0241453
-0.0240136
-0.0234423
-0.0227574
-0.0222446
-0.0220396
-0.0221676
-0.0225462
-0.0229996
-0.0234709
-0.023802
-0.0239252
-0.0237717
-0.0233213
-0.0226364
-0.0218098
-0.0185008
-0.00296622
-0.00570405
-0.0212594
-0.0214971
-0.0217652
-0.0218617
-0.0217349
-0.0213608
-0.0208204
-0.0202881
-0.0199168
-0.0197789
-0.0198713
-0.0201365
-0.0205022
-0.0207755
-0.0209602
-0.0209876
-0.020805
-0.0204012
-0.0198086
-0.019077
-0.0182869
-0.0118621
-0.00517537
-0.0203979
-0.020453
-0.0203826
-0.0201607
-0.019786
-0.0192925
-0.0187612
-0.0183011
-0.0179957
-0.0178755
-0.0179231
-0.0180904
-0.0183155
-0.018496
-0.0185818
-0.0185352
-0.0183243
-0.0179418
-0.0174059
-0.0167422
-0.0159899
-0.0151082
-0.0111416
-0.0192478
-0.019215
-0.0189741
-0.0185992
-0.018109
-0.0175661
-0.0170468
-0.0166269
-0.0163538
-0.0162344
-0.0162435
-0.0163377
-0.0164657
-0.01656
-0.01657
-0.0164659
-0.0162282
-0.0158525
-0.0153474
-0.0147229
-0.013981
-0.0131015
-0.0114096
-0.0179672
-0.017898
-0.0175784
-0.0171387
-0.016606
-0.0160552
-0.015557
-0.0151688
-0.0149182
-0.0147989
-0.0147805
-0.0148213
-0.0148774
-0.014899
-0.0148499
-0.0146996
-0.0144359
-0.014056
-0.0135627
-0.0129582
-0.0122335
-0.0113623
-0.0100947
-0.0166461
-0.0165669
-0.0162185
-0.0157634
-0.0152293
-0.014696
-0.0142282
-0.0138723
-0.0136441
-0.0135288
-0.0134927
-0.0134953
-0.0134979
-0.0134641
-0.0133659
-0.0131762
-0.012888
-0.0124987
-0.012008
-0.0114138
-0.0107063
-0.00986151
-0.00881256
-0.0153328
-0.0152606
-0.0149117
-0.0144702
-0.0139582
-0.0134575
-0.0130269
-0.0127054
-0.0125006
-0.0123925
-0.0123456
-0.0123213
-0.0122857
-0.0122137
-0.0120709
-0.0118478
-0.0115381
-0.0111389
-0.0106484
-0.010063
-0.0093736
-0.00856436
-0.00760581
-0.014058
-0.0140061
-0.0136718
-0.013262
-0.0127855
-0.0123253
-0.0119354
-0.0116484
-0.0114661
-0.0113661
-0.0113125
-0.0112686
-0.0112039
-0.0110967
-0.0109246
-0.0106769
-0.0103504
-0.0099433
-0.00945412
-0.00887915
-0.00821135
-0.00744034
-0.00655024
-0.0128607
-0.0128138
-0.0125081
-0.0121376
-0.0117107
-0.0112926
-0.0109432
-0.0106894
-0.0105268
-0.0104333
-0.0103745
-0.0103159
-0.0102294
-0.0100964
-0.00990169
-0.00963597
-0.00929756
-0.00888624
-0.00840117
-0.00783964
-0.00719659
-0.00646562
-0.0056381
-0.0117455
-0.0117182
-0.0114387
-0.0110986
-0.0107218
-0.0103583
-0.0100432
-0.00982202
-0.00967421
-0.00958365
-0.00951921
-0.00944813
-0.00934484
-0.00919266
-0.00898176
-0.00870373
-0.00835836
-0.00794693
-0.00746962
-0.00692483
-0.00630958
-0.00562061
-0.00485235
-0.010728
-0.0107284
-0.0104761
-0.0101642
-0.00980618
-0.00950757
-0.00923347
-0.00904326
-0.00890324
-0.00881019
-0.00873727
-0.00865431
-0.00853746
-0.00837083
-0.00814882
-0.00786346
-0.00751577
-0.00710838
-0.00664259
-0.006118
-0.00553306
-0.0048863
-0.0041756
-0.00982234
-0.00985077
-0.00962917
-0.00934001
-0.00897507
-0.00814469
-0.00825305
-0.00834842
-0.0082095
-0.00810675
-0.00802255
-0.00792713
-0.00779889
-0.00762462
-0.00739157
-0.00710188
-0.00675581
-0.00635628
-0.00590557
-0.00540422
-0.0048519
-0.00424879
-0.00359301
-0.00903232
-0.00909266
-0.00886775
-0.00828529
-0.00563194
-0.00467201
-0.0065382
-0.00773628
-0.00758687
-0.00747523
-0.00737531
-0.00726057
-0.00711607
-0.00693023
-0.00669375
-0.0064049
-0.00606478
-0.00567736
-0.00524545
-0.00477051
-0.00425298
-0.00369366
-0.00309241
-0.00836476
-0.00846277
-0.00818678
-0.00578122
-0.00362915
-0.00343862
-0.006689
-0.00721
-0.00705902
-0.00691304
-0.0067792
-0.00663733
-0.00647433
-0.00627906
-0.00604221
-0.00575895
-0.00543002
-0.00505925
-0.00465003
-0.00420451
-0.00372409
-0.00321032
-0.00266237
-0.00779572
-0.00788872
-0.00733316
-0.00308263
-0.00284178
-0.00433712
-0.00681713
-0.00673412
-0.00655264
-0.00637637
-0.00620826
-0.00604019
-0.00586073
-0.00565894
-0.00542508
-0.00515254
-0.00483977
-0.00449032
-0.00410787
-0.00369502
-0.00325385
-0.0027861
-0.00229222
-0.00731442
-0.00728299
-0.00472647
-0.00223639
-0.0026046
-0.00656195
-0.00639779
-0.00626938
-0.00605843
-0.00584483
-0.00564464
-0.00545402
-0.00526231
-0.00505821
-0.00483172
-0.00457503
-0.0042845
-0.00396052
-0.00360826
-0.00323126
-0.00283144
-0.00241173
-0.00197152
-0.00669401
-0.00660251
-0.00385945
-0.0026551
-0.0056349
-0.00615598
-0.00597113
-0.00580282
-0.00554773
-0.00529709
-0.00507164
-0.00486573
-0.00466818
-0.00446716
-0.00425267
-0.00401646
-0.00375311
-0.00346056
-0.00314248
-0.00280366
-0.00244703
-0.00207605
-0.00169132
-0.00611547
-0.00601114
-0.00335387
-0.00307865
-0.00581408
-0.00568346
-0.00551474
-0.00528617
-0.0049918
-0.0047146
-0.00447549
-0.00426469
-0.00407022
-0.00387897
-0.00368126
-0.00346895
-0.00323583
-0.00297858
-0.00269871
-0.00240157
-0.00209111
-0.00177088
-0.00144278
-0.00543307
-0.0053891
-0.00330014
-0.0036981
-0.00540472
-0.00511273
-0.00493261
-0.00466849
-0.00436308
-0.0040827
-0.00384739
-0.00364501
-0.00346355
-0.00328942
-0.00311324
-0.00292785
-0.00272799
-0.00250901
-0.00227077
-0.00201771
-0.00175506
-0.00148621
-0.00121601
-0.00469953
-0.00468295
-0.00296984
-0.00301849
-0.00462794
-0.00448054
-0.00422404
-0.00393624
-0.00365089
-0.00339662
-0.00318545
-0.00300541
-0.00284747
-0.00269711
-0.00254692
-0.00239113
-0.00222621
-0.00204667
-0.00185255
-0.00164548
-0.0014312
-0.00121536
-0.00100166
-0.00365932
-0.00380934
-0.00199602
-0.0031648
-0.00370348
-0.00358864
-0.0033624
-0.00311046
-0.0028725
-0.00266615
-0.00249572
-0.00235013
-0.00222433
-0.00210248
-0.00198182
-0.00185803
-0.00172798
-0.0015888
-0.00143929
-0.00127947
-0.00111397
-0.000951293
-0.000792999
-0.00259523
-0.00285596
-0.0020175
-0.00256674
-0.00258865
-0.00251316
-0.00238911
-0.00222296
-0.00205284
-0.00190794
-0.00178899
-0.00168646
-0.00159534
-0.00150659
-0.00141808
-0.00132747
-0.00123303
-0.00113339
-0.00102722
-0.000915597
-0.000799818
-0.000688274
-0.000584067
-0.00143588
-0.00186239
-0.00152336
-0.00150523
-0.00144025
-0.00143402
-0.00140161
-0.00132487
-0.00122238
-0.00114065
-0.00107543
-0.00101763
-0.000963602
-0.000910239
-0.000855921
-0.000799605
-0.000740867
-0.00068015
-0.000617921
-0.000554689
-0.000486527
-0.000424253
-0.000371442
-0.000491541
-0.000590067
-0.000554645
-0.000462831
-0.000463348
-0.000453827
-0.000424183
-0.000391667
-0.000377599
-0.000364587
-0.000352594
-0.000339849
-0.000325683
-0.000309339
-0.000290809
-0.000270111
-0.000247357
-0.000222452
-0.000196644
-0.000175643
-0.000162678
-0.000155533
-0.000162564
1179.63
1179.59
1175.65
1173.57
1180.73
1173.44
1185.26
1196.84
1200.68
1182.36
1172.13
1165.45
1047.79
966.698
849.404
865.613
738.353
746.88
769.897
782.894
769.887
764.247
760.047
758.332
820.729
790.465
756.112
754.063
790.154
798.735
767.497
726.362
298.191
313.132
294.757
283.798
24.6668
11.9062
6.97064
6.12063
-0.0365846
-0.027901
-0.0136024
-0.018146
0.00818079
0.00331697
-0.0112868
-0.00952932
0.0645827
0.0677796
0.0382032
-0.00886691
0.0694709
0.0563158
0.0503363
0.0122028
-0.00190863
-0.0140974
-0.0078869
0.00378704
-0.0152943
-0.00933091
-0.00465908
0.203287
-0.0116639
-0.00960995
0.165907
0.322556
-0.0142989
-0.0130885
-0.010444
0.249594
-0.0118916
-0.01465
-0.0150506
0.019571
-0.00866157
-0.0102474
-0.0112069
-0.00828681
-0.00701327
-0.00767678
-0.00889244
-0.00918848
-0.0094205
-0.00757245
-0.00795829
-0.0079456
-0.00904065
-0.00833226
-0.00751389
-0.00687258
-0.00791098
-0.0073016
-0.00665723
-0.0059579
-0.00678396
-0.00623014
-0.00564709
-0.00503285
-0.00579512
-0.00528768
-0.0047604
-0.00420859
-0.00494511
-0.00448113
-0.00400242
-0.0035045
-0.00421815
-0.00379511
-0.00335953
-0.00290918
-0.00359586
-0.00321045
-0.00281589
-0.00240889
-0.00306523
-0.00271601
-0.00235857
-0.0019918
-0.00261346
-0.00229798
-0.00197668
-0.0016475
-0.00223148
-0.0019488
-0.0016603
-0.0013662
-0.0019075
-0.00165596
-0.00140056
-0.001141
-0.00163326
-0.00141371
-0.00119013
-0.00096454
-0.00139972
-0.00121068
-0.00101909
-0.000825941
-0.00119751
-0.00103861
-0.000877339
-0.000715916
-0.00101524
-0.000885704
-0.000755522
-0.000625186
-0.000845378
-0.000745544
-0.00064534
-0.000546013
-0.000680151
-0.000609391
-0.000540013
-0.000471635
-0.00051443
-0.000472942
-0.000433549
-0.000396098
-0.000343746
-0.000331662
-0.000323702
-0.00031747
-0.000179763
-0.000194859
-0.00021309
-0.000233049
1169.46
1150.07
1130.44
1128.9
1136.48
1128.81
1122.37
1124.31
1126.07
1099.67
1150.42
1173.92
1105.2
1094.48
1083.41
1088.87
1094.95
1091.74
1071.67
1179.59
1152.09
1130.26
1146.06
1129.44
1110.44
1103.64
1066.55
967.635
934.136
955.287
1023.91
1090.44
1094.58
1113.24
1119.25
1116.06
1077.24
1067.19
1146.71
1086.65
1101.69
1076.03
1042.57
1006.47
966.312
929.862
907.53
896.113
829.195
818.186
901.153
966.054
965.119
939.816
884.78
850.099
876.544
902.402
879.111
838.401
897.845
895.23
823.365
809.095
753.66
749.741
734.405
707.42
699.02
718.302
737.818
731.782
723.466
712.49
727.31
772.884
782.125
795.43
774.724
755.568
739.626
747.841
752.398
751.126
741.557
725.785
713.895
705.655
694.366
689.834
697.152
701.375
707.238
743.836
783.546
751.556
743.919
722.811
649.991
694.468
737.722
734.948
728.744
729.893
729.407
714.436
705.535
696.941
689.369
683.389
687.973
696.035
755.364
755.631
751.051
746.914
741.223
688.758
687.126
726.349
743.777
725.584
730.941
747.219
728.922
694.867
668.816
645.939
623.334
600.782
556.678
452.387
466.905
730.396
730.503
725.684
718.123
695.101
663.112
601.384
558.971
507.447
407.785
316.487
271.695
219.716
152.101
99.7369
75.6819
87.186
134.447
152.75
265.001
241.182
232.294
209.315
157.998
102.673
59.9705
44.3651
38.9428
74.2106
85.2132
56.7508
16.3113
1.71691
0.923523
6.33234
5.36145
19.6614
36.9141
4.12179
5.58812
4.10482
2.37413
1.42892
0.842355
1.84159
4.19785
1.7922
0.121717
0.125792
0.078404
0.0649247
0.164593
0.264275
0.290328
0.369867
0.293739
0.292959
-0.00943057
-0.0114455
-0.0101273
0.00351771
0.0314336
0.049642
0.0522201
0.0502032
0.0573904
0.0813304
0.0884108
0.0586832
0.093623
0.139042
0.250995
0.370771
0.394729
0.373892
0.325028
-0.00478015
-0.00143526
0.00236534
0.014097
0.0624221
0.0784186
0.0569684
0.0628416
0.0774684
0.101766
0.106694
0.0996496
0.11115
0.131904
0.165528
0.291103
0.357093
0.360674
0.326274
-0.00585194
-8.82441e-05
0.00814297
0.0232956
0.104618
0.141242
0.127174
0.286494
0.275277
0.142065
0.134285
0.242437
0.275428
0.183374
0.135881
0.168034
0.290517
0.265806
0.16978
0.00103517
0.00752967
0.0133795
0.0612002
0.156505
0.218776
0.38607
0.531448
0.534316
0.342651
0.301481
0.4626
0.468742
0.215881
0.123174
0.234776
0.275763
0.235579
0.140748
0.109061
0.177234
0.114335
0.197841
0.216184
0.297525
0.558769
0.562599
0.521106
0.533429
0.45537
0.222563
0.17581
0.132465
0.138255
0.25238
0.260383
0.142769
0.129562
0.325232
0.316978
0.291876
0.20985
0.160304
0.440903
0.553664
0.312337
0.0958047
0.0976069
0.0846337
0.0952225
0.109595
0.156436
0.189398
0.221471
0.204086
0.174415
0.120386
0.330641
0.161179
0.0228399
0.0772505
0.0816682
0.369689
0.3921
0.048304
0.114654
0.125867
0.108164
0.139586
0.19885
0.230961
0.258632
0.273211
0.226202
0.280226
0.11644
0.247873
-0.00342903
0.0175831
0.0114509
0.0177319
0.154917
0.151499
0.044092
0.156788
0.165999
0.198108
0.232777
0.260253
0.201749
0.217219
0.265839
0.317002
0.279028
0.138799
-0.0136148
0.00106187
0.0454009
0.049726
0.0188762
0.0680287
0.0449766
0.0601645
0.0435801
0.119552
0.164566
0.174138
0.132454
0.107756
0.11297
0.135665
0.257049
0.241882
0.157666
-0.0101766
-0.00707276
-0.00259328
0.0308069
0.0571954
0.057941
0.0538466
0.0513198
0.0473881
0.0440593
0.0714523
0.0961316
0.0921492
0.0653179
0.0558031
0.050509
0.153963
0.208816
0.120233
-0.00860211
-0.00591135
-0.00295837
-0.000498952
0.00997841
0.0269706
0.021255
0.0134349
0.021356
0.0667093
0.0945844
0.0970107
0.0936734
0.0965579
0.0497189
0.0441657
0.0981099
0.104103
0.0712189
-0.00692668
-0.00458111
-0.00223194
-8.7069e-05
0.00179047
0.00308845
0.00537808
0.00887096
0.01175
0.0149949
0.0193421
0.0274616
0.0695281
0.0560652
0.0363428
0.0399332
0.0871678
0.0683118
0.0560275
-0.00563081
-0.00357065
-0.00153828
0.000411423
0.00228601
0.00411565
0.00618289
0.00868064
0.0114526
0.0142984
0.017337
0.0206705
0.0242366
0.0284998
0.0322871
0.0369937
0.0629482
0.0547054
0.044814
-0.0047332
-0.00289263
-0.00104957
0.000792034
0.00263504
0.00449915
0.00646135
0.00859888
0.0108945
0.013307
0.0158837
0.0188219
0.0220942
0.0254293
0.0285026
0.0309746
0.0426703
0.0420349
0.0393246
-0.00394436
-0.00231168
-0.000646424
0.00104633
0.00277023
0.00452526
0.00633068
0.00820259
0.010154
0.0122332
0.0144846
0.0168008
0.0192852
0.021938
0.0246465
0.0292968
0.0309933
0.032938
0.0332345
-0.00324139
-0.0017883
-0.0002877
0.00124694
0.00281237
0.00440197
0.00601562
0.00765946
0.00932639
0.0110243
0.0127918
0.0146592
0.016658
0.0188849
0.02136
0.0247411
0.0264328
0.0291866
0.0291798
-0.00263838
-0.0013397
9.89901e-06
0.00139353
0.00280154
0.00422329
0.00565274
0.00708621
0.00851996
0.00995735
0.0114186
0.0129534
0.0146471
0.0165861
0.0187475
0.0212257
0.0237035
0.0255204
0.0258323
-0.00213076
-0.000967546
0.000243119
0.00148349
0.00274114
0.00400443
0.00526472
0.00651649
0.00775818
0.00899328
0.0102396
0.0115342
0.0129789
0.0146974
0.0165151
0.0186387
0.0237175
0.0231212
0.0226135
-0.00170881
-0.00066682
0.00041527
0.00152127
0.00263828
0.0037547
0.00486174
0.0059545
0.0070319
0.00809807
0.00916871
0.0102753
0.0115251
0.0131179
0.0146172
0.0179953
0.0215118
0.0208115
0.0199991
-0.00136339
-0.000431648
0.000531482
0.00151299
0.00250059
0.00348359
0.00445393
0.0054079
0.00634592
0.0072727
0.00820574
0.00917064
0.010243
0.0116679
0.0129631
0.0175755
0.0190779
0.0183983
0.0176525
-0.00108558
-0.000255124
0.000597648
0.00146462
0.00233424
0.00319712
0.00404677
0.00488121
0.00570174
0.00651257
0.00733536
0.0081928
0.00914411
0.0103453
0.0115902
0.0155147
0.0171146
0.0157852
0.0155901
-0.000866604
-0.000132543
0.000618745
0.00138119
0.00214463
0.00290091
0.00364541
0.00437826
0.00510449
0.00583173
0.00657946
0.00737104
0.00820599
0.00925106
0.0105334
0.0124728
0.0130875
0.0137408
0.013765
-0.000701657
-5.82392e-05
0.000600162
0.00126811
0.00193686
0.00259942
0.00325277
0.00389963
0.00454833
0.0052108
0.00591572
0.00674542
0.00749148
0.00834704
0.00957955
0.0103411
0.01143
0.0120454
0.0175037
-0.000582683
-2.3472e-05
0.000548707
0.00113009
0.00171336
0.00229259
0.00286577
0.00343741
0.00401902
0.00462283
0.00528849
0.00625822
0.00814129
0.00899347
0.00887114
0.0101502
0.0100828
0.010664
0.0180977
-0.000499426
-2.05774e-05
0.000470288
0.000971038
0.0014757
0.00197911
0.00247953
0.00298176
0.00349844
0.00404651
0.00465059
0.00554272
0.00952664
0.0224483
0.0177487
0.0126263
0.0122711
0.00929107
0.020532
-0.000442906
-4.19578e-05
0.000370798
0.000794815
0.00122542
0.00165798
0.0020904
0.00252615
0.00297649
0.0034578
0.00399403
0.00472405
0.0073191
0.0221454
0.0245513
0.0190372
0.0169275
0.00997024
0.0240604
-0.000404955
-8.07768e-05
0.00025547
0.000604791
0.000963822
0.00132846
0.001696
0.00206787
0.00245165
0.00286145
0.00331693
0.00389385
0.00484868
0.0102683
0.023263
0.0272916
0.0171212
0.0150584
0.0197002
-0.000378413
-0.000130932
0.000129048
0.000404012
0.000691949
0.000989554
0.00129389
0.00160441
0.00192467
0.00226302
0.00263223
0.00306666
0.00358673
0.00451847
0.0150331
0.0247069
0.0266756
0.0178051
0.0192321
-0.000356899
-0.000186707
-3.8813e-06
0.000195366
0.000410503
0.000639442
0.000879784
0.00112996
0.00139022
0.00166253
0.00195301
0.00226825
0.00263791
0.00304168
0.00370583
0.0148257
0.023334
0.019726
0.0135185
-0.000334185
-0.000242726
-0.000138606
-1.73304e-05
0.000121951
0.000278702
0.000451938
0.000640643
0.00084428
0.00106307
0.00129759
0.00154981
0.00183877
0.00217776
0.00258053
0.00331125
0.00614202
0.00769149
0.003693
-0.000307448
-0.000294177
-0.000268789
-0.000227329
-0.000167232
-8.70412e-05
1.41383e-05
0.000136689
0.000280513
0.000444801
0.000628617
0.0008316
0.00105987
0.00133548
0.00156642
0.00160468
0.00188527
0.00201125
0.00155605
-0.000268413
-0.00033416
-0.000393711
-0.000439955
-0.000466992
-0.000471698
-0.000451982
-0.000406088
-0.000332436
-0.000230459
-0.000102144
4.63511e-05
0.00020354
0.000368325
0.000594468
0.000603046
0.000486411
0.000448618
0.000420999
)
;

boundaryField
{
    leftWall
    {
        type            fixedFluxPressure;
        gradient        uniform 0;
        value           nonuniform List<scalar> 
50
(
5192.46
5191.65
5191.35
5191.12
5159.06
3056.93
1201.43
1202.22
1200.68
1185.58
1052.5
815.139
805.247
822.978
825.753
826.85
756.996
174.981
13.9034
2.85508
0.96802
-0.0574159
-0.0131368
-0.0136228
-0.0188799
-0.0210419
-0.0215729
-0.0212594
-0.0203979
-0.0192478
-0.0179672
-0.0166461
-0.0153328
-0.014058
-0.0128607
-0.0117455
-0.010728
-0.00982234
-0.00903232
-0.00836476
-0.00779572
-0.00731442
-0.00669401
-0.00611547
-0.00543307
-0.00469953
-0.00365932
-0.00259523
-0.00143588
-0.000491541
)
;
    }
    rightWall
    {
        type            fixedFluxPressure;
        gradient        uniform 0;
        value           nonuniform List<scalar> 
50
(
2706.02
2654.1
1838.98
1049.34
1067.24
1086.05
1088.24
1086.89
1071.67
1067.19
876.544
772.884
783.546
755.631
466.905
152.75
36.9141
0.292959
0.325028
0.326274
0.16978
0.140748
0.129562
0.120386
0.11644
0.138799
0.157666
0.120233
0.0712189
0.0560275
0.044814
0.0393246
0.0332345
0.0291798
0.0258323
0.0226135
0.0199991
0.0176525
0.0155901
0.013765
0.0175037
0.0180977
0.020532
0.0240604
0.0197002
0.0192321
0.0135185
0.003693
0.00155605
0.000420999
)
;
    }
    lowerWall
    {
        type            fixedFluxPressure;
        gradient        uniform 0;
        value           nonuniform List<scalar> 
62
(
5192.46
5193.34
5196.76
5205.9
5223.59
5252
5292.28
5344.32
5406.73
5477.34
5554.15
5635.57
5720.17
5806
5890.28
5969.64
6041.19
6103.25
6154.97
6196.72
6229.4
6253.2
6266.58
6266.58
6267.07
6267.23
6266.35
6263.47
6243.91
5108.55
1646.99
1179.63
1179.59
1175.65
1173.57
3604.14
3600.81
3375.47
2928.64
1459.95
1108.48
1123.94
1154.99
3604.14
3603.92
3559.57
3479.76
3377.71
3266.51
3159.5
3061.36
2957.61
2871.09
2816.22
2784.13
2761.64
2749.3
2740.29
2730.43
2719.79
2710.83
2706.02
)
;
    }
    atmosphere
    {
        type            totalPressure;
        rho             rho;
        psi             none;
        gamma           1;
        p0              uniform 0;
        value           nonuniform List<scalar> 
46
(
0
0
0
0
0
0
0
0
0
-2.31344e-06
-7.64506e-06
-1.24617e-05
-1.54946e-05
-1.64609e-05
-1.54348e-05
-1.27204e-05
-8.65621e-06
-4.18992e-06
-5.85907e-07
0
0
0
-4.81988e-07
-1.85803e-05
-4.66713e-05
-8.99217e-05
-0.000141003
-0.000213101
-0.000338579
-0.000457184
-0.000557849
-0.000636164
-0.000690484
-0.000720018
-0.000723499
-0.000698747
-0.000642935
-0.000553936
-0.000433613
-0.000290488
-0.000142388
-2.60922e-05
0
0
0
0
)
;
    }
    defaultFaces
    {
        type            empty;
    }
}


// ************************************************************************* //
