/*--------------------------------*- C++ -*----------------------------------*\
| =========                 |                                                 |
| \\      /  F ield         | OpenFOAM: The Open Source CFD Toolbox           |
|  \\    /   O peration     | Version:  2312                                  |
|   \\  /    A nd           | Website:  www.openfoam.com                      |
|    \\/     M anipulation  |                                                 |
\*---------------------------------------------------------------------------*/
FoamFile
{
    version     2.0;
    format      ascii;
    arch        "LSB;label=32;scalar=64";
    class       surfaceScalarField;
    location    "4.6";
    object      phi;
}
// * * * * * * * * * * * * * * * * * * * * * * * * * * * * * * * * * * * * * //

dimensions      [0 3 -1 0 0 0 0];

oriented        oriented;

internalField   nonuniform List<scalar> 
4432
(
7.43166e-07
-7.4319e-07
1.0888e-06
-3.45664e-07
1.46373e-06
-3.74952e-07
1.91989e-06
-4.5617e-07
2.45316e-06
-5.33287e-07
3.03864e-06
-5.85484e-07
3.66499e-06
-6.26356e-07
4.33683e-06
-6.71847e-07
5.05226e-06
-7.15428e-07
5.78665e-06
-7.34393e-07
6.50759e-06
-7.20934e-07
7.18788e-06
-6.80289e-07
7.79977e-06
-6.11884e-07
8.29856e-06
-4.98786e-07
8.62196e-06
-3.23392e-07
8.70078e-06
-7.88196e-08
8.46757e-06
2.33214e-07
7.86439e-06
6.03183e-07
6.847e-06
1.01739e-06
5.43139e-06
1.41561e-06
3.726e-06
1.70539e-06
1.78002e-06
1.94598e-06
1.78003e-06
1.97219e-07
-9.40457e-07
5.20741e-07
-6.69228e-07
9.08692e-07
-7.62942e-07
1.3883e-06
-9.35819e-07
1.94763e-06
-1.09265e-06
2.55664e-06
-1.19453e-06
3.20846e-06
-1.2782e-06
3.91309e-06
-1.3765e-06
4.66488e-06
-1.46724e-06
5.43626e-06
-1.50579e-06
6.19316e-06
-1.47783e-06
6.90779e-06
-1.39491e-06
7.55556e-06
-1.25964e-06
8.09283e-06
-1.03604e-06
8.45695e-06
-6.87504e-07
8.57586e-06
-1.97716e-07
8.38237e-06
4.26713e-07
7.82029e-06
1.16525e-06
6.83389e-06
2.00378e-06
5.44831e-06
2.80117e-06
3.79323e-06
3.36045e-06
1.91985e-06
3.81934e-06
3.69984e-06
3.79818e-08
-9.78465e-07
3.07443e-07
-9.38716e-07
6.64608e-07
-1.12013e-06
1.12861e-06
-1.39984e-06
1.67435e-06
-1.63841e-06
2.26875e-06
-1.78895e-06
2.90836e-06
-1.91784e-06
3.60833e-06
-2.07649e-06
4.36699e-06
-2.22591e-06
5.15151e-06
-2.29032e-06
5.92227e-06
-2.24859e-06
6.65396e-06
-2.1266e-06
7.32965e-06
-1.93533e-06
7.90803e-06
-1.61442e-06
8.32714e-06
-1.10661e-06
8.50429e-06
-3.74865e-07
8.37674e-06
5.54258e-07
7.88203e-06
1.65997e-06
6.93892e-06
2.9469e-06
5.57422e-06
4.16587e-06
3.96249e-06
4.97218e-06
2.15047e-06
5.63137e-06
5.85033e-06
8.1329e-08
-1.05982e-06
3.38896e-07
-1.19631e-06
6.8422e-07
-1.46548e-06
1.1239e-06
-1.83955e-06
1.63537e-06
-2.1499e-06
2.19689e-06
-2.3505e-06
2.81123e-06
-2.53219e-06
3.49402e-06
-2.75929e-06
4.2387e-06
-2.97061e-06
5.00614e-06
-3.05777e-06
5.75763e-06
-3.00008e-06
6.47342e-06
-2.8424e-06
7.15205e-06
-2.61397e-06
7.75832e-06
-2.22069e-06
8.23194e-06
-1.58023e-06
8.48372e-06
-6.26642e-07
8.44585e-06
5.92142e-07
8.06045e-06
2.04537e-06
7.18409e-06
3.82326e-06
5.83501e-06
5.51496e-06
4.24897e-06
6.55821e-06
2.46116e-06
7.41919e-06
8.31148e-06
2.64366e-07
-1.32419e-06
5.73938e-07
-1.50589e-06
9.42039e-07
-1.83359e-06
1.36004e-06
-2.25756e-06
1.82196e-06
-2.61182e-06
2.34392e-06
-2.87246e-06
2.93436e-06
-3.12263e-06
3.60089e-06
-3.42582e-06
4.32011e-06
-3.68982e-06
5.03747e-06
-3.77513e-06
5.72601e-06
-3.68861e-06
6.37942e-06
-3.4958e-06
7.02616e-06
-3.26071e-06
7.6393e-06
-2.83382e-06
8.15418e-06
-2.09511e-06
8.43966e-06
-9.12133e-07
8.47599e-06
5.55815e-07
8.22635e-06
2.29502e-06
7.43194e-06
4.61767e-06
6.14923e-06
6.79768e-06
4.52975e-06
8.17771e-06
2.75151e-06
9.19744e-06
1.1063e-05
4.98556e-07
-1.8228e-06
9.3063e-07
-1.938e-06
1.32654e-06
-2.22954e-06
1.72544e-06
-2.65649e-06
2.17133e-06
-3.05773e-06
2.73234e-06
-3.43348e-06
3.38744e-06
-3.77773e-06
4.04507e-06
-4.08345e-06
4.71317e-06
-4.3579e-06
5.3777e-06
-4.43964e-06
5.95848e-06
-4.26937e-06
6.43633e-06
-3.97364e-06
6.88385e-06
-3.70821e-06
7.37066e-06
-3.32062e-06
7.8775e-06
-2.60194e-06
8.23146e-06
-1.26608e-06
8.35457e-06
4.32712e-07
8.17305e-06
2.47655e-06
7.48321e-06
5.30753e-06
6.5154e-06
7.76551e-06
4.94112e-06
9.752e-06
2.69376e-06
1.14448e-05
1.37568e-05
6.31561e-07
-2.45443e-06
1.32637e-06
-2.6329e-06
1.55603e-06
-2.45929e-06
1.60274e-06
-2.70326e-06
1.89067e-06
-3.34573e-06
2.49445e-06
-4.0373e-06
3.06054e-06
-4.34385e-06
3.19029e-06
-4.21323e-06
3.412e-06
-4.57961e-06
4.21226e-06
-5.2399e-06
5.28617e-06
-5.34327e-06
6.34452e-06
-5.03197e-06
7.21955e-06
-4.58321e-06
7.8963e-06
-3.99734e-06
8.33728e-06
-3.04288e-06
8.66306e-06
-1.59182e-06
8.4023e-06
6.93508e-07
7.86233e-06
3.01655e-06
7.23665e-06
5.93323e-06
6.41013e-06
8.59204e-06
4.88314e-06
1.1279e-05
2.08418e-06
1.42438e-05
1.5841e-05
9.03812e-07
-3.35832e-06
1.92757e-06
-3.65672e-06
2.33695e-06
-2.86872e-06
2.0738e-06
-2.44017e-06
1.59327e-06
-2.86524e-06
1.47558e-06
-3.91964e-06
1.73858e-06
-4.60688e-06
2.0607e-06
-4.53537e-06
1.66731e-06
-4.18624e-06
7.05808e-07
-4.27841e-06
1.48591e-07
-4.78606e-06
2.05232e-07
-5.08861e-06
4.12894e-07
-4.79085e-06
5.94014e-07
-4.17843e-06
8.1553e-07
-3.26436e-06
1.55383e-06
-2.33008e-06
2.06171e-06
1.85668e-07
2.53264e-06
2.54564e-06
3.14258e-06
5.32331e-06
3.26822e-06
8.46642e-06
2.04096e-06
1.25063e-05
5.28439e-07
1.57563e-05
1.63694e-05
-7.7597e-07
7.75953e-07
8.14424e-07
-1.5904e-06
2.30869e-06
-1.49427e-06
2.83989e-06
-5.3121e-07
3.2092e-06
-3.69311e-07
3.364e-06
-1.54797e-07
2.45629e-06
9.07718e-07
6.63243e-07
1.79305e-06
-1.32393e-06
1.98718e-06
-2.84348e-06
1.51954e-06
-3.44863e-06
6.05149e-07
-3.77135e-06
3.22715e-07
-3.67826e-06
-9.30978e-08
-3.07777e-06
-6.00501e-07
-2.23409e-06
-8.43686e-07
-1.47642e-06
-7.57679e-07
-9.28485e-07
-5.47941e-07
-4.63004e-07
-4.65491e-07
-4.63011e-07
4.92483e-07
2.83447e-07
1.73758e-06
-2.83552e-06
3.20877e-06
-2.96547e-06
3.86828e-06
-1.19072e-06
4.0859e-06
-5.86931e-07
4.05128e-06
-1.20178e-07
3.19509e-06
1.7639e-06
1.48737e-06
3.50076e-06
-6.65722e-07
4.14027e-06
-2.21521e-06
3.06904e-06
-3.20465e-06
1.59458e-06
-3.88691e-06
1.00498e-06
-3.93882e-06
-4.11946e-08
-3.53936e-06
-9.99965e-07
-2.88612e-06
-1.49692e-06
-2.24161e-06
-1.4022e-06
-1.51565e-06
-1.27391e-06
-7.39431e-07
-1.24172e-06
-1.20245e-06
1.14391e-06
-8.60459e-07
1.5066e-06
-3.19821e-06
2.53244e-06
-3.99131e-06
3.87905e-06
-2.53733e-06
4.59669e-06
-1.30456e-06
4.49483e-06
-1.83105e-08
3.9268e-06
2.33193e-06
3.3897e-06
4.03786e-06
2.28922e-06
5.24075e-06
1.69689e-07
5.18855e-06
-2.39025e-06
4.1545e-06
-3.87682e-06
2.49151e-06
-4.32613e-06
4.08086e-07
-4.10892e-06
-1.21722e-06
-3.70767e-06
-1.89821e-06
-3.01215e-06
-2.09777e-06
-2.07373e-06
-2.21237e-06
-9.99569e-07
-2.31592e-06
-2.20207e-06
9.00646e-07
-1.76116e-06
4.85841e-07
-2.78344e-06
3.32915e-07
-3.83841e-06
2.0169e-06
-4.22133e-06
4.35452e-06
-3.6422e-06
6.3597e-06
-2.02351e-06
7.11524e-06
1.57638e-06
6.99428e-06
4.15881e-06
1.22339e-05
1.16568e-09
1.64121e-05
1.0103e-06
1.58415e-05
4.72504e-06
1.4508e-05
3.82504e-06
9.1494e-06
5.7666e-06
1.75266e-06
6.17947e-06
-8.04574e-08
-6.51442e-08
1.30096e-06
-3.47925e-06
3.09313e-06
-4.0046e-06
3.23209e-06
-2.45494e-06
1.02997e-06
2.32595e-07
-1.99373e-06
-1.73101e-07
-2.37772e-06
-2.31715e-06
-1.69433e-06
-3.44105e-06
-3.0974e-06
-2.35933e-06
-4.72388e-06
-2.92604e-06
-1.45678e-06
-2.81104e-06
1.4614e-06
9.25945e-08
1.25518e-06
7.76668e-06
-7.67291e-06
1.59699e-05
-7.19296e-06
1.84213e-05
2.27369e-06
1.83285e-05
3.91774e-06
1.45263e-05
9.56879e-06
8.94696e-06
1.17588e-05
6.70283e-06
2.17894e-06
8.08254e-06
-4.85901e-06
9.36555e-06
-5.28765e-06
7.69945e-06
-7.88906e-07
8.72938e-06
-3.14065e-06
1.14683e-06
-3.72415e-06
-1.79426e-06
-3.54357e-06
-1.87496e-06
-3.90037e-08
-6.60199e-06
2.46947e-06
-7.23238e-06
-1.37992e-08
1.02648e-06
-3.07528e-06
4.52287e-06
-1.05552e-06
-7.64592e-07
3.03142e-06
-1.17599e-05
9.44439e-06
-1.3606e-05
1.46838e-05
-2.96576e-06
1.64798e-05
2.12178e-06
1.56346e-05
1.04139e-05
1.39003e-05
1.3493e-05
1.10924e-05
4.98684e-06
1.00354e-05
-3.80207e-06
9.79028e-06
-5.04258e-06
7.21893e-06
1.78241e-06
1.59483e-05
-8.99114e-07
2.04589e-06
-1.56638e-06
-1.12703e-06
7.28795e-08
-3.51423e-06
2.89757e-06
-9.4267e-06
4.53036e-06
-8.86518e-06
2.8101e-06
2.74672e-06
9.72708e-08
7.23568e-06
4.46343e-07
-1.11368e-06
6.89739e-07
-1.20033e-05
3.2966e-06
-1.62128e-05
9.87669e-06
-9.54588e-06
1.43539e-05
-2.35546e-06
1.51168e-05
9.65095e-06
1.50339e-05
1.35759e-05
1.26334e-05
7.38738e-06
1.00805e-05
-1.24925e-06
8.25566e-06
-3.21775e-06
5.71618e-06
4.32186e-06
2.16645e-05
1.65228e-06
3.93597e-07
2.19912e-06
-1.67385e-06
3.6485e-06
-4.9636e-06
5.06944e-06
-1.08476e-05
4.91843e-06
-8.71415e-06
2.69456e-06
4.97059e-06
1.91424e-06
8.016e-06
2.0991e-06
-1.29855e-06
1.33811e-06
-1.12423e-05
7.21725e-07
-1.55964e-05
4.80865e-06
-1.36328e-05
1.08814e-05
-8.4282e-06
1.33115e-05
7.2208e-06
1.42325e-05
1.26549e-05
1.26836e-05
8.9363e-06
9.08507e-06
2.34921e-06
5.69319e-06
1.74107e-07
3.37855e-06
6.63647e-06
2.5043e-05
9.10635e-09
-3.36748e-06
6.24723e-07
-4.2724e-06
6.64541e-07
-2.9086e-06
-5.37386e-07
-1.23829e-06
-2.22791e-06
-1.17476e-06
-3.41207e-06
-2.73551e-06
-4.13385e-06
-3.88513e-06
-4.48003e-06
-4.1892e-06
-4.47325e-06
-4.19301e-06
-4.06416e-06
-4.6875e-06
-3.56343e-06
-5.28677e-06
-3.64972e-06
-5.00229e-06
-4.27847e-06
-4.16207e-06
-4.89137e-06
-3.56549e-06
-5.01272e-06
-3.14296e-06
-5.6997e-06
-1.64306e-06
-6.8882e-06
1.37423e-06
-6.97023e-06
2.62772e-06
-6.00018e-06
4.35331e-06
-4.77435e-06
7.24062e-06
-2.84707e-06
1.0579e-05
2.43706e-06
1.04722e-05
6.4652e-06
1.23413e-05
-1.9603e-06
-1.40729e-06
-3.94001e-06
-2.29278e-06
-5.29174e-06
-1.55695e-06
-6.28691e-06
-2.43189e-07
-7.74531e-06
2.8359e-07
-8.91782e-06
-1.56304e-06
-9.46937e-06
-3.33361e-06
-9.46584e-06
-4.19275e-06
-8.45238e-06
-5.20649e-06
-6.56618e-06
-6.5737e-06
-4.74779e-06
-7.10514e-06
-3.82363e-06
-5.92644e-06
-3.96689e-06
-4.01878e-06
-4.12414e-06
-3.4082e-06
-3.2549e-06
-4.01216e-06
-3.27483e-06
-1.62307e-06
-4.2788e-06
2.37825e-06
-5.25687e-06
3.60587e-06
-5.8999e-06
4.9964e-06
-5.84577e-06
7.18656e-06
-3.90478e-06
8.6381e-06
-4.253e-07
6.99282e-06
2.46735e-06
3.57273e-06
-2.0597e-06
6.5229e-07
-4.5465e-06
1.93871e-07
-5.55227e-06
-5.5132e-07
-8.00689e-06
2.2113e-06
-1.14901e-05
3.76667e-06
-1.43001e-05
1.24687e-06
-1.67165e-05
-9.1727e-07
-1.86539e-05
-2.25536e-06
-1.97251e-05
-4.13533e-06
-1.92425e-05
-7.05624e-06
-1.75832e-05
-8.7645e-06
-1.53652e-05
-8.14439e-06
-1.3815e-05
-5.56899e-06
-1.32932e-05
-3.92993e-06
-1.40888e-05
-3.21651e-06
-1.48384e-05
-8.73434e-07
-1.52786e-05
2.81853e-06
-1.5808e-05
4.13537e-06
-1.61146e-05
5.3031e-06
-1.54474e-05
6.51938e-06
-1.45578e-05
7.74863e-06
-1.4152e-05
6.58716e-06
1.13778e-07
-1.17984e-05
-3.62297e-06
4.27494e-06
-7.14206e-06
3.71271e-06
-1.13721e-05
3.67849e-06
-1.75357e-05
8.37474e-06
-2.38955e-05
1.01263e-05
-2.93037e-05
6.65499e-06
-3.4343e-05
4.12195e-06
-3.89353e-05
2.33685e-06
-4.30922e-05
2.14892e-08
-4.66185e-05
-3.52993e-06
-4.93245e-05
-6.05843e-06
-5.11156e-05
-6.35326e-06
-5.1772e-05
-4.91256e-06
-5.11694e-05
-4.53257e-06
-4.95845e-05
-4.80128e-06
-4.6304e-05
-4.15392e-06
-4.20957e-05
-1.38966e-06
-3.90204e-05
1.06014e-06
-3.64155e-05
2.69828e-06
-3.32912e-05
3.39508e-06
-2.95877e-05
4.0453e-06
-2.63442e-05
3.34364e-06
-2.57188e-06
-2.36584e-05
-1.14582e-05
1.5733e-05
-2.22167e-05
1.44711e-05
-3.35022e-05
1.49639e-05
-4.32632e-05
1.81357e-05
-5.16096e-05
1.84726e-05
-5.9226e-05
1.42712e-05
-6.51116e-05
1.00074e-05
-6.92684e-05
6.49358e-06
-7.26215e-05
3.37452e-06
-7.59249e-05
-2.26639e-07
-7.82917e-05
-3.69168e-06
-7.87979e-05
-5.84712e-06
-7.70419e-05
-6.66848e-06
-7.4243e-05
-7.33147e-06
-7.13372e-05
-7.70707e-06
-6.83657e-05
-7.1254e-06
-6.41452e-05
-5.61008e-06
-5.91902e-05
-3.89481e-06
-5.38012e-05
-2.69076e-06
-4.81259e-05
-2.28011e-06
-4.09783e-05
-3.10222e-06
-3.34585e-05
-4.17601e-06
-6.55876e-06
-2.94716e-05
-1.36419e-05
2.93747e-05
-2.72009e-05
2.803e-05
-4.01264e-05
2.78894e-05
-5.04077e-05
2.84169e-05
-5.83842e-05
2.64491e-05
-6.59455e-05
2.18324e-05
-7.24086e-05
1.64704e-05
-7.69179e-05
1.10027e-05
-7.92664e-05
5.72291e-06
-8.03628e-05
8.69643e-07
-8.11037e-05
-2.95084e-06
-8.11354e-05
-5.8155e-06
-8.00583e-05
-7.74558e-06
-7.824e-05
-9.14976e-06
-7.59997e-05
-9.9474e-06
-7.31721e-05
-9.95296e-06
-6.94888e-05
-9.29338e-06
-6.50009e-05
-8.38271e-06
-5.99844e-05
-7.70732e-06
-5.45434e-05
-7.72107e-06
-4.86442e-05
-9.00135e-06
-4.16629e-05
-1.11574e-05
-1.43617e-05
-3.38598e-05
-1.42381e-05
4.36129e-05
-2.80596e-05
4.18517e-05
-4.03289e-05
4.01589e-05
-5.02804e-05
3.83685e-05
-5.8769e-05
3.49377e-05
-6.69405e-05
3.00039e-05
-7.42244e-05
2.37543e-05
-7.93584e-05
1.61366e-05
-8.17278e-05
8.09229e-06
-8.15888e-05
7.30634e-07
-8.12161e-05
-3.32356e-06
-8.00116e-05
-7.02003e-06
-7.80733e-05
-9.68389e-06
-7.55836e-05
-1.16394e-05
-7.26561e-05
-1.28749e-05
-6.92103e-05
-1.33988e-05
-6.51934e-05
-1.33103e-05
-6.07176e-05
-1.28587e-05
-5.60109e-05
-1.24141e-05
-5.11931e-05
-1.25389e-05
-4.67631e-05
-1.34315e-05
-4.24222e-05
-1.54983e-05
-1.88741e-05
-3.79097e-05
-1.53216e-05
5.89349e-05
-2.99879e-05
5.65182e-05
-4.29133e-05
5.30846e-05
-5.49859e-05
5.04413e-05
-6.69321e-05
4.68839e-05
-7.74485e-05
4.05202e-05
-8.5787e-05
3.20925e-05
-9.02137e-05
2.05628e-05
-9.13648e-05
9.24346e-06
-8.90334e-05
-1.60002e-06
-8.64495e-05
-5.90713e-06
-8.24244e-05
-1.1045e-05
-7.8564e-05
-1.35441e-05
-7.42612e-05
-1.59422e-05
-6.99172e-05
-1.72188e-05
-6.5406e-05
-1.791e-05
-6.06219e-05
-1.80944e-05
-5.55951e-05
-1.78853e-05
-5.04129e-05
-1.75962e-05
-4.52965e-05
-1.76553e-05
-4.04616e-05
-1.82663e-05
-3.79799e-05
-1.79799e-05
-1.75794e-05
-3.92747e-05
-1.65138e-05
7.5449e-05
-3.06754e-05
7.06802e-05
-4.01371e-05
6.25464e-05
-4.85416e-05
5.88457e-05
-6.05743e-05
5.89169e-05
-6.91904e-05
4.91364e-05
-7.73517e-05
4.02535e-05
-8.28808e-05
2.6092e-05
-0.000103211
2.9574e-05
-0.000119768
1.49566e-05
-0.000115606
-1.00675e-05
-0.000101301
-2.53479e-05
-9.21176e-05
-2.27258e-05
-8.25746e-05
-2.54829e-05
-7.51476e-05
-2.46438e-05
-6.81349e-05
-2.49202e-05
-6.15913e-05
-2.46352e-05
-5.56243e-05
-2.38482e-05
-5.02632e-05
-2.29539e-05
-4.55895e-05
-2.23271e-05
-4.00078e-05
-2.38469e-05
-3.64068e-05
-2.15805e-05
-1.56554e-05
-3.83307e-05
-1.52835e-05
9.07332e-05
-2.41874e-05
7.95847e-05
-2.57399e-05
6.40997e-05
-2.39637e-05
5.70696e-05
-2.63458e-05
6.12978e-05
-2.64666e-05
4.92572e-05
-3.42625e-05
4.80503e-05
-3.56355e-05
2.74666e-05
-3.30207e-05
2.69608e-05
-3.91748e-05
2.11112e-05
-6.22673e-05
1.30253e-05
-8.1436e-05
-6.17904e-06
-9.1941e-05
-1.22209e-05
-9.69879e-05
-2.04361e-05
-8.84013e-05
-3.32301e-05
-7.44994e-05
-3.88217e-05
-6.6021e-05
-3.31133e-05
-7.05598e-05
-1.93096e-05
-8.08913e-05
-1.26231e-05
-8.0804e-05
-2.24145e-05
-6.55202e-05
-3.913e-05
-4.27065e-05
-4.43928e-05
-4.17901e-05
-1.65706e-05
-6.28373e-06
9.70094e-05
-5.34886e-06
7.86441e-05
-1.84008e-06
6.05883e-05
5.23634e-06
4.99933e-05
2.29272e-05
4.3609e-05
3.43767e-05
3.78098e-05
2.94819e-05
5.29464e-05
2.02146e-05
3.67354e-05
2.31127e-05
2.40641e-05
2.69736e-05
1.72514e-05
3.2293e-05
7.70528e-06
3.00619e-05
-3.94865e-06
2.91675e-05
-1.13277e-05
2.59931e-05
-1.72636e-05
1.66127e-05
-2.38512e-05
5.26331e-06
-2.74744e-05
-8.6493e-07
-2.69874e-05
-4.90007e-07
-1.96884e-05
1.62468e-06
-1.47408e-05
-2.70491e-06
-1.80865e-05
-1.31334e-05
-2.87021e-05
-2.09637e-05
-3.65621e-05
-4.03836e-05
-2.23704e-05
7.44345e-06
8.9569e-05
1.34826e-05
7.2608e-05
1.68201e-05
5.72533e-05
2.13915e-05
4.54243e-05
3.38652e-05
3.11393e-05
3.24196e-05
3.92569e-05
3.53004e-05
5.00665e-05
3.45566e-05
3.74808e-05
3.43288e-05
2.4293e-05
3.80072e-05
1.35736e-05
4.21581e-05
3.55491e-06
4.31701e-05
-4.96002e-06
4.30589e-05
-1.12159e-05
4.20135e-05
-1.62177e-05
3.87943e-05
-2.06316e-05
3.39808e-05
-2.26603e-05
2.8345e-05
-2.13512e-05
2.70153e-05
-1.83581e-05
2.99635e-05
-1.76884e-05
3.22713e-05
-2.03935e-05
2.79179e-05
-2.43483e-05
1.85939e-05
-2.72392e-05
-2.88534e-05
7.06316e-06
1.98446e-05
6.97359e-05
2.99101e-05
6.25508e-05
3.29332e-05
5.42353e-05
2.96299e-05
4.87297e-05
2.4399e-05
3.63708e-05
2.43118e-05
3.93443e-05
3.2135e-05
4.22443e-05
3.68585e-05
3.27581e-05
3.97933e-05
2.13585e-05
4.24126e-05
1.09545e-05
4.34517e-05
2.51615e-06
4.29948e-05
-4.50278e-06
4.16369e-05
-9.85756e-06
3.98412e-05
-1.44215e-05
3.75129e-05
-1.83027e-05
3.48219e-05
-1.99687e-05
3.23182e-05
-1.88469e-05
3.05955e-05
-1.66348e-05
3.02816e-05
-1.73737e-05
3.15114e-05
-2.16225e-05
3.14363e-05
-2.42728e-05
2.90115e-05
-2.48134e-05
-2.37608e-05
2.39188e-05
1.30974e-05
5.66395e-05
2.1205e-05
5.44429e-05
2.66997e-05
4.87408e-05
2.91208e-05
4.63089e-05
2.62831e-05
3.92082e-05
2.81637e-05
3.74636e-05
3.44509e-05
3.59572e-05
3.89093e-05
2.82995e-05
4.14143e-05
1.88533e-05
4.21141e-05
1.02546e-05
4.17672e-05
2.86304e-06
4.04553e-05
-3.19059e-06
3.86265e-05
-8.02847e-06
3.64288e-05
-1.22235e-05
3.37064e-05
-1.55798e-05
3.08531e-05
-1.71149e-05
2.83024e-05
-1.62956e-05
2.64042e-05
-1.4736e-05
2.61432e-05
-1.71121e-05
2.71444e-05
-2.26231e-05
2.78126e-05
-2.49401e-05
2.62003e-05
-2.32013e-05
-1.91394e-05
2.15795e-05
8.04744e-06
4.85901e-05
1.73701e-05
4.51194e-05
2.35573e-05
4.25526e-05
2.69403e-05
4.29248e-05
2.78254e-05
3.83222e-05
3.01895e-05
3.50989e-05
3.46689e-05
3.14771e-05
3.83277e-05
2.46401e-05
4.02675e-05
1.69131e-05
4.0681e-05
9.84087e-06
3.98748e-05
3.66906e-06
3.82248e-05
-1.54053e-06
3.60728e-05
-5.87625e-06
3.33988e-05
-9.54927e-06
3.01677e-05
-1.23483e-05
2.6888e-05
-1.38348e-05
2.41971e-05
-1.36043e-05
2.27831e-05
-1.33216e-05
2.23408e-05
-1.66694e-05
2.18516e-05
-2.21334e-05
2.13392e-05
-2.44275e-05
1.87364e-05
-2.05975e-05
-1.38321e-05
1.34292e-05
7.49134e-06
4.10956e-05
1.35838e-05
3.90241e-05
1.83216e-05
3.78124e-05
2.26919e-05
3.85527e-05
2.56246e-05
3.5388e-05
2.88427e-05
3.18797e-05
3.27125e-05
2.76064e-05
3.55742e-05
2.17776e-05
3.69787e-05
1.55082e-05
3.71375e-05
9.68173e-06
3.62987e-05
4.5077e-06
3.48308e-05
-7.27374e-08
3.29288e-05
-3.97414e-06
3.05246e-05
-7.14495e-06
2.76659e-05
-9.48937e-06
2.46897e-05
-1.08583e-05
2.2431e-05
-1.13453e-05
2.1292e-05
-1.21823e-05
1.96914e-05
-1.50685e-05
1.72863e-05
-1.9728e-05
1.48525e-05
-2.19933e-05
1.08266e-05
-1.65721e-05
-6.97444e-06
3.96921e-06
5.59384e-06
3.54991e-05
1.03002e-05
3.43153e-05
1.44005e-05
3.371e-05
1.89127e-05
3.40388e-05
2.26372e-05
3.16623e-05
2.60891e-05
2.84268e-05
2.92643e-05
2.44303e-05
3.14977e-05
1.95436e-05
3.25844e-05
1.4421e-05
3.26826e-05
9.58327e-06
3.20186e-05
5.17152e-06
3.07676e-05
1.17814e-06
2.9101e-05
-2.30749e-06
2.71051e-05
-5.14893e-06
2.49113e-05
-7.29541e-06
2.28123e-05
-8.75913e-06
2.12645e-05
-9.79723e-06
2.00731e-05
-1.09907e-05
1.80518e-05
-1.3047e-05
1.45743e-05
-1.62504e-05
1.10058e-05
-1.84251e-05
7.54534e-06
-1.31111e-05
-2.58114e-06
3.15173e-06
4.36159e-06
3.11355e-05
8.06255e-06
3.06127e-05
1.15635e-05
3.02076e-05
1.5625e-05
2.99762e-05
1.92478e-05
2.80385e-05
2.24231e-05
2.52506e-05
2.50935e-05
2.17593e-05
2.69541e-05
1.76826e-05
2.79215e-05
1.34532e-05
2.81182e-05
9.3864e-06
2.77016e-05
5.58792e-06
2.67784e-05
2.10136e-06
2.54692e-05
-9.98252e-07
2.39024e-05
-3.58201e-06
2.22571e-05
-5.64999e-06
2.07484e-05
-7.25026e-06
1.95182e-05
-8.5668e-06
1.8391e-05
-9.86336e-06
1.66832e-05
-1.13391e-05
1.36397e-05
-1.32069e-05
9.91997e-06
-1.47052e-05
7.51862e-06
-1.07104e-05
-1.31517e-06
6.25275e-06
3.41298e-06
2.77216e-05
6.41996e-06
2.76048e-05
9.39082e-06
2.7236e-05
1.2757e-05
2.66093e-05
1.58987e-05
2.48962e-05
1.86803e-05
2.24685e-05
2.09881e-05
1.94512e-05
2.26475e-05
1.60228e-05
2.36258e-05
1.24747e-05
2.40016e-05
9.01046e-06
2.38635e-05
5.72587e-06
2.32786e-05
2.6863e-06
2.23364e-05
-5.59863e-08
2.11633e-05
-2.40874e-06
1.98946e-05
-4.38113e-06
1.86681e-05
-6.0236e-06
1.75482e-05
-7.44679e-06
1.64388e-05
-8.75377e-06
1.50745e-05
-9.9747e-06
1.29305e-05
-1.10629e-05
9.88794e-06
-1.16628e-05
8.31973e-06
-9.14184e-06
-1.86286e-06
8.8672e-06
2.63072e-06
2.50906e-05
5.07144e-06
2.51638e-05
7.56274e-06
2.47444e-05
1.02965e-05
2.38753e-05
1.29356e-05
2.22568e-05
1.53356e-05
2.00682e-05
1.73673e-05
1.74192e-05
1.89134e-05
1.44765e-05
1.99465e-05
1.14416e-05
2.0499e-05
8.45783e-06
2.06096e-05
5.61532e-06
2.03258e-05
2.97022e-06
1.96986e-05
5.71283e-07
1.88364e-05
-1.54644e-06
1.78322e-05
-3.37673e-06
1.67687e-05
-4.95986e-06
1.56867e-05
-6.36462e-06
1.45611e-05
-7.62804e-06
1.33113e-05
-8.72483e-06
1.1783e-05
-9.53455e-06
9.82038e-06
-9.69998e-06
8.78522e-06
-8.10733e-06
-3.05943e-06
9.9819e-06
1.99075e-06
2.30999e-05
3.9278e-06
2.32269e-05
5.98108e-06
2.26911e-05
8.20457e-06
2.16518e-05
1.04088e-05
2.00525e-05
1.24753e-05
1.80017e-05
1.42872e-05
1.56073e-05
1.57511e-05
1.30125e-05
1.68269e-05
1.03658e-05
1.75069e-05
7.7778e-06
1.78056e-05
5.31678e-06
1.77476e-05
3.02832e-06
1.73779e-05
9.41115e-07
1.67652e-05
-9.33557e-07
1.59747e-05
-2.58601e-06
1.50656e-05
-4.05063e-06
1.40662e-05
-5.36504e-06
1.29797e-05
-6.54139e-06
1.18038e-05
-7.54879e-06
1.05457e-05
-8.27641e-06
9.31198e-06
-8.46645e-06
8.73525e-06
-7.53016e-06
-4.34135e-06
1.00169e-05
1.46146e-06
2.1639e-05
2.94565e-06
2.1743e-05
4.59078e-06
2.10463e-05
6.39014e-06
1.98527e-05
8.23182e-06
1.8211e-05
1.00174e-05
1.62162e-05
1.1648e-05
1.39768e-05
1.30384e-05
1.16222e-05
1.41316e-05
9.27267e-06
1.4897e-05
7.0126e-06
1.53246e-05
4.88928e-06
1.54292e-05
2.92387e-06
1.52456e-05
1.12485e-06
1.4826e-05
-5.13732e-07
1.42175e-05
-1.97728e-06
1.34643e-05
-3.29726e-06
1.25899e-05
-4.49044e-06
1.16088e-05
-5.56006e-06
1.05412e-05
-6.48104e-06
9.44785e-06
-7.18302e-06
8.48122e-06
-7.49957e-06
8.08437e-06
-7.13382e-06
-5.42878e-06
9.17219e-06
1.00958e-06
2.06298e-05
2.08125e-06
2.06718e-05
3.35092e-06
1.9777e-05
4.79153e-06
1.84124e-05
6.32654e-06
1.66762e-05
7.87968e-06
1.46632e-05
9.36368e-06
1.2493e-05
1.06918e-05
1.02943e-05
1.17913e-05
8.17335e-06
1.26119e-05
6.19219e-06
1.31306e-05
4.3707e-06
1.33521e-05
2.70265e-06
1.33022e-05
1.17494e-06
1.30206e-05
-2.31892e-07
1.25563e-05
-1.51278e-06
1.19416e-05
-2.68229e-06
1.12003e-05
-3.74892e-06
1.03519e-05
-4.71154e-06
9.42597e-06
-5.55491e-06
8.46952e-06
-6.22645e-06
7.61885e-06
-6.64895e-06
7.16016e-06
-6.67445e-06
-5.9757e-06
7.70709e-06
6.13211e-07
2.00174e-05
1.31526e-06
1.99704e-05
2.2468e-06
1.8846e-05
3.37676e-06
1.72828e-05
4.65764e-06
1.53957e-05
6.02593e-06
1.32953e-05
7.39843e-06
1.11208e-05
8.68005e-06
9.0129e-06
9.78321e-06
7.07045e-06
1.06441e-05
5.33158e-06
1.12283e-05
3.78667e-06
1.1533e-05
2.39826e-06
1.1578e-05
1.13013e-06
1.13981e-05
-5.17406e-08
1.10381e-05
-1.15247e-06
1.0532e-05
-2.17604e-06
9.90573e-06
-3.12239e-06
9.18406e-06
-3.98966e-06
8.39123e-06
-4.76194e-06
7.57787e-06
-5.41294e-06
6.82935e-06
-5.90014e-06
6.29572e-06
-6.14138e-06
-5.99816e-06
6.3186e-06
2.62444e-07
1.97556e-05
6.39762e-07
1.95937e-05
1.27167e-06
1.82146e-05
2.13986e-06
1.64151e-05
3.21498e-06
1.43209e-05
4.44117e-06
1.20694e-05
5.73168e-06
9.83061e-06
6.97877e-06
7.76613e-06
8.08379e-06
5.96573e-06
8.97232e-06
4.44335e-06
9.60419e-06
3.15509e-06
9.96968e-06
2.03305e-06
1.00851e-05
1.01503e-06
9.97879e-06
5.47786e-08
9.69254e-06
-8.65975e-07
9.26643e-06
-1.7497e-06
8.72796e-06
-2.58371e-06
8.10538e-06
-3.36688e-06
7.42772e-06
-4.0841e-06
6.73426e-06
-4.71939e-06
6.0839e-06
-5.24994e-06
5.56596e-06
-5.62278e-06
-5.75965e-06
5.32722e-06
-4.38488e-08
1.98003e-05
5.80462e-08
1.94926e-05
4.22562e-07
1.78507e-05
1.0755e-06
1.57627e-05
1.9867e-06
1.34102e-05
3.10409e-06
1.09525e-05
4.33137e-06
8.60372e-06
5.54694e-06
6.55093e-06
6.64536e-06
4.86766e-06
7.5493e-06
3.53974e-06
8.2149e-06
2.4898e-06
8.62752e-06
1.62073e-06
8.79574e-06
8.47082e-07
8.74723e-06
1.03555e-07
8.51899e-06
-6.37484e-07
8.15034e-06
-1.38081e-06
7.67664e-06
-2.10979e-06
7.1271e-06
-2.81716e-06
6.53087e-06
-3.48775e-06
5.92351e-06
-4.11195e-06
5.34997e-06
-4.67614e-06
4.86811e-06
-5.14154e-06
-5.43805e-06
4.54698e-06
-3.10047e-07
2.01109e-05
-4.67861e-07
1.9651e-05
-3.05458e-07
1.76889e-05
1.73119e-07
1.52847e-05
9.51832e-07
1.2632e-05
1.98314e-06
9.92162e-06
3.15403e-06
7.43326e-06
4.32836e-06
5.377e-06
5.40745e-06
3.78896e-06
6.31275e-06
2.63479e-06
7.00101e-06
1.80188e-06
7.45174e-06
1.17031e-06
7.66929e-06
6.29824e-07
7.67121e-06
1.01892e-07
7.4915e-06
-4.57525e-07
7.17024e-06
-1.05933e-06
6.74551e-06
-1.68486e-06
6.24767e-06
-2.31916e-06
5.70821e-06
-2.94816e-06
5.15575e-06
-3.55945e-06
4.62781e-06
-4.14833e-06
4.16751e-06
-4.68047e-06
-5.08432e-06
3.81365e-06
-5.45146e-07
2.0657e-05
-9.14743e-07
2.00214e-05
-9.38595e-07
1.77134e-05
-6.01476e-07
1.49481e-05
8.09384e-08
1.19501e-05
1.03887e-06
8.96418e-06
2.14846e-06
6.32412e-06
3.26569e-06
4.2602e-06
4.30769e-06
2.74736e-06
5.20468e-06
1.73818e-06
5.90568e-06
1.10122e-06
6.39066e-06
6.85642e-07
6.65553e-06
3.65232e-07
6.70836e-06
4.93212e-08
6.57956e-06
-3.28494e-07
6.30117e-06
-7.80725e-07
5.91659e-06
-1.3001e-06
5.45987e-06
-1.86229e-06
4.95785e-06
-2.44606e-06
4.44052e-06
-3.04203e-06
3.9374e-06
-3.64495e-06
3.48257e-06
-4.22642e-06
-4.70784e-06
3.10645e-06
-7.48612e-07
2.14061e-05
-1.30503e-06
2.05784e-05
-1.49177e-06
1.79008e-05
-1.27655e-06
1.47335e-05
-6.68662e-07
1.13428e-05
2.48166e-07
8.04785e-06
1.28171e-06
5.29104e-06
2.31439e-06
3.22794e-06
3.30359e-06
1.75855e-06
4.17567e-06
8.66457e-07
4.88085e-06
3.96358e-07
5.39614e-06
1.70657e-07
5.71011e-06
5.15206e-08
5.82408e-06
-6.44052e-08
5.74766e-06
-2.51864e-07
5.51678e-06
-5.49663e-07
5.17141e-06
-9.54579e-07
4.74835e-06
-1.4391e-06
4.27756e-06
-1.97517e-06
3.7832e-06
-2.54764e-06
3.29157e-06
-3.15359e-06
2.83266e-06
-3.76675e-06
-4.31169e-06
2.43617e-06
-9.19755e-07
2.23267e-05
-1.63976e-06
2.12991e-05
-1.97323e-06
1.82348e-05
-1.8674e-06
1.46282e-05
-1.31367e-06
1.07895e-05
-4.39308e-07
7.17395e-06
5.08598e-07
4.34357e-06
1.44525e-06
2.2917e-06
2.37253e-06
8.31646e-07
3.20534e-06
3.39933e-08
3.89966e-06
-2.9766e-07
4.4362e-06
-3.65616e-07
4.79914e-06
-3.11187e-07
4.97668e-06
-2.4174e-07
4.96832e-06
-2.43323e-07
4.79477e-06
-3.75959e-07
4.49395e-06
-6.53636e-07
4.10448e-06
-1.04952e-06
3.65987e-06
-1.53051e-06
3.184e-06
-2.07173e-06
2.70089e-06
-2.67017e-06
2.2369e-06
-3.30347e-06
-3.89471e-06
1.82047e-06
-1.04338e-06
2.33704e-05
-1.89573e-06
2.21519e-05
-2.35021e-06
1.86898e-05
-2.32479e-06
1.46033e-05
-1.85213e-06
1.03173e-05
-1.08318e-06
6.40542e-06
-2.25866e-07
3.48667e-06
6.61255e-07
1.40495e-06
1.5329e-06
-3.96664e-08
2.29927e-06
-7.32078e-07
2.95408e-06
-9.5222e-07
3.49312e-06
-9.04434e-07
3.90055e-06
-7.18425e-07
4.14664e-06
-4.87677e-07
4.21582e-06
-3.12366e-07
4.11489e-06
-2.74923e-07
3.86564e-06
-4.043e-07
3.51564e-06
-6.99459e-07
3.10019e-06
-1.11499e-06
2.64425e-06
-1.61578e-06
2.16929e-06
-2.19536e-06
1.70233e-06
-2.83559e-06
-3.46253e-06
1.27011e-06
-1.09341e-06
2.44645e-05
-2.02765e-06
2.30867e-05
-2.55679e-06
1.92194e-05
-2.5949e-06
1.46418e-05
-2.24161e-06
9.96442e-06
-1.62723e-06
5.79141e-06
-8.3091e-07
2.69069e-06
5.00151e-08
5.2433e-07
8.47444e-07
-8.36828e-07
1.53366e-06
-1.41807e-06
2.11228e-06
-1.53065e-06
2.60948e-06
-1.40147e-06
3.0239e-06
-1.13273e-06
3.32609e-06
-7.89776e-07
3.47712e-06
-4.63327e-07
3.45657e-06
-2.5433e-07
3.27704e-06
-2.24744e-07
2.97519e-06
-3.97593e-07
2.59301e-06
-7.3282e-07
2.16099e-06
-1.18373e-06
1.70084e-06
-1.73495e-06
1.23646e-06
-2.37204e-06
-3.02362e-06
7.97975e-07
-1.04374e-06
2.55085e-05
-1.99061e-06
2.40339e-05
-2.53832e-06
1.97675e-05
-2.65655e-06
1.47603e-05
-2.43156e-06
9.73974e-06
-1.91742e-06
5.27755e-06
-1.12427e-06
1.89779e-06
-2.95767e-07
-3.03954e-07
3.84625e-07
-1.51704e-06
9.4133e-07
-1.97463e-06
1.4108e-06
-2.00002e-06
1.82477e-06
-1.81537e-06
2.20046e-06
-1.50838e-06
2.52372e-06
-1.11302e-06
2.74395e-06
-6.83577e-07
2.81193e-06
-3.22347e-07
2.71512e-06
-1.27988e-07
2.4752e-06
-1.57732e-07
2.13724e-06
-3.94918e-07
1.73527e-06
-7.81872e-07
1.29596e-06
-1.29604e-06
8.41072e-07
-1.91645e-06
-2.5862e-06
4.0319e-07
-8.80401e-07
2.63894e-05
-1.75402e-06
2.49078e-05
-2.27659e-06
2.02903e-05
-2.45259e-06
1.49366e-05
-2.33547e-06
9.62283e-06
-1.82181e-06
4.76408e-06
-1.06203e-06
1.13816e-06
-3.77098e-07
-9.88771e-07
1.45181e-07
-2.03924e-06
5.40272e-07
-2.36968e-06
8.64199e-07
-2.32394e-06
1.16417e-06
-2.11536e-06
1.46268e-06
-1.80695e-06
1.76256e-06
-1.41299e-06
2.02105e-06
-9.42176e-07
2.17387e-06
-4.75301e-07
2.17257e-06
-1.26827e-07
2.01026e-06
4.4274e-09
1.72463e-06
-1.09461e-07
1.36373e-06
-4.21154e-07
9.52674e-07
-8.84918e-07
5.17467e-07
-1.48223e-06
-2.15851e-06
9.00311e-08
-6.11323e-07
2.70006e-05
-1.32498e-06
2.56216e-05
-1.77652e-06
2.0742e-05
-1.95395e-06
1.51141e-05
-1.84074e-06
9.50972e-06
-1.30833e-06
4.23174e-06
-6.88969e-07
5.18842e-07
-2.05697e-07
-1.47203e-06
1.18918e-07
-2.36388e-06
3.3216e-07
-2.58298e-06
4.91665e-07
-2.48354e-06
6.49019e-07
-2.27284e-06
8.37473e-07
-1.99556e-06
1.06846e-06
-1.64416e-06
1.32641e-06
-1.20033e-06
1.53949e-06
-6.88602e-07
1.63622e-06
-2.23787e-07
1.5695e-06
7.09129e-08
1.35373e-06
1.06074e-07
1.04172e-06
-1.09439e-07
6.67363e-07
-5.11046e-07
2.60071e-07
-1.07435e-06
-1.7519e-06
-1.47049e-07
-2.70695e-07
2.72716e-05
-7.43892e-07
2.60949e-05
-1.06106e-06
2.10592e-05
-1.16304e-06
1.52161e-05
-9.00938e-07
9.24762e-06
-4.27475e-07
3.75825e-06
-6.99181e-08
1.61233e-07
1.60928e-07
-1.70296e-06
2.6504e-07
-2.46811e-06
2.90756e-07
-2.60884e-06
2.86028e-07
-2.47898e-06
2.97624e-07
-2.28464e-06
3.58013e-07
-2.05618e-06
4.88219e-07
-1.77462e-06
6.90011e-07
-1.4024e-06
9.22826e-07
-9.21709e-07
1.10135e-06
-4.0261e-07
1.14038e-06
3.15858e-08
1.01449e-06
2.31623e-07
7.58619e-07
1.46136e-07
4.31152e-07
-1.83683e-07
6.04789e-08
-7.04913e-07
-1.37571e-06
-3.15789e-07
9.45771e-08
2.71769e-05
-8.71213e-08
2.62766e-05
-2.11889e-07
2.1184e-05
-1.06132e-07
1.51103e-05
2.8654e-07
8.85489e-06
6.04101e-07
3.4406e-06
6.97471e-07
6.77418e-08
6.73408e-07
-1.67905e-06
5.45482e-07
-2.34035e-06
3.79697e-07
-2.44326e-06
2.19891e-07
-2.31941e-06
9.30561e-08
-2.15806e-06
2.67487e-08
-1.99016e-06
4.21134e-08
-1.79029e-06
1.52349e-07
-1.51295e-06
3.51008e-07
-1.12069e-06
5.70346e-07
-6.22277e-07
7.09673e-07
-1.0807e-07
6.89215e-07
2.51762e-07
5.11558e-07
3.23403e-07
2.34581e-07
9.25859e-08
-9.03522e-08
-3.79588e-07
-1.03714e-06
-4.29811e-07
4.2711e-07