/*--------------------------------*- C++ -*----------------------------------*\
| =========                 |                                                 |
| \\      /  F ield         | OpenFOAM: The Open Source CFD Toolbox           |
|  \\    /   O peration     | Version:  2312                                  |
|   \\  /    A nd           | Website:  www.openfoam.com                      |
|    \\/     M anipulation  |                                                 |
\*---------------------------------------------------------------------------*/
FoamFile
{
    version     2.0;
    format      ascii;
    arch        "LSB;label=32;scalar=64";
    class       volScalarField;
    location    "6";
    object      alpha.air;
}
// * * * * * * * * * * * * * * * * * * * * * * * * * * * * * * * * * * * * * //

dimensions      [0 0 0 0 0 0 0];

internalField   nonuniform List<scalar> 
2268
(
1.0981e-09
1.06939e-09
1.06939e-09
1.14073e-09
1.30936e-09
1.31541e-09
1.06836e-09
7.05456e-10
4.23037e-10
2.99585e-10
2.49411e-10
2.26384e-10
2.15202e-10
2.15843e-10
2.20516e-10
2.3543e-10
2.67298e-10
2.86857e-10
2.27e-10
2.28958e-10
1.49436e-07
6.47442e-07
6.47534e-07
1.53345e-09
1.27861e-09
1.41515e-09
2.28621e-09
3.60218e-09
5.58593e-09
4.93955e-09
3.30595e-09
2.14023e-09
1.65013e-09
1.54812e-09
1.2705e-09
1.12399e-09
1.00351e-09
5.26425e-10
3.22154e-10
4.83828e-10
7.8005e-10
3.10474e-10
2.19576e-10
1.94192e-07
6.41481e-07
5.76124e-07
3.59859e-09
3.15731e-09
2.93295e-09
4.01614e-09
7.77707e-09
1.58506e-08
1.67982e-08
1.35611e-08
5.55892e-09
4.74239e-09
6.06968e-09
5.75573e-09
6.36653e-09
8.23186e-09
1.62043e-08
2.35776e-08
2.71833e-09
4.96266e-09
3.95457e-10
2.31704e-08
8.55927e-08
1.02836e-07
7.87095e-08
2.9619e-09
2.98804e-09
3.07667e-09
3.01169e-09
3.09532e-09
3.51407e-09
3.79014e-09
2.89654e-09
2.90281e-09
2.93505e-09
2.95326e-09
2.97063e-09
2.98766e-09
9.43822e-08
8.39537e-07
8.81227e-07
1.93942e-08
1.8866e-08
1.71278e-08
2.33836e-07
1.59663e-07
4.57952e-07
4.42198e-07
0.000292159
0.000220793
0.000241488
0.000420516
0.000479897
0.000340716
0.000133349
3.46334e-09
2.89667e-09
6.81334e-09
1.63026e-06
2.31742e-06
7.8635e-06
4.08337e-06
4.3048e-06
3.95263e-06
2.34506e-08
5.17476e-08
5.55958e-06
3.78676e-05
1.04699e-05
5.18477e-05
0.000616631
0.00116279
0.00116415
0.00119893
0.00132156
0.00132161
0.0013216
0.00131704
0.00115161
0.000468123
3.45293e-05
2.67669e-05
0.000107514
0.000108359
4.55666e-05
4.6158e-07
1.02879e-05
0.000657257
0.00274196
0.00442815
0.00488647
0.0044402
0.00494745
0.00698577
0.000968402
0.000646577
0.000553267
0.00100678
0.00132162
0.00132164
0.00132163
0.00108485
0.000587728
0.00017268
5.47769e-05
0.000109761
0.000106856
2.13968e-05
3.552e-07
0.000215477
0.00390316
0.00797391
0.00815789
0.00816465
0.00814122
0.00802955
0.00806003
0.00047926
0.000478805
0.00047853
0.000482066
0.000381261
0.000264834
0.000253242
0.000168944
0.00016532
0.000129343
3.80966e-05
1.43694e-05
1.34527e-05
2.87101e-06
3.47622e-07
0.00130022
0.00288188
0.00351839
0.00406961
0.00369903
0.00225026
0.00142836
0.00219138
0.000401094
0.00147166
0.00560731
0.00607301
0.00504222
0.00243397
0.00182222
0.0018198
0.00176656
0.00160856
0.00160827
0.00160797
0.00160524
0.00160392
0.00160346
0.00164034
0.00261351
0.00295197
0.00289991
0.000379176
0.00038409
0.000656284
0.000810835
0.000817904
0.000850963
0.000854604
0.00176637
0.00186254
0.00160885
0.00160856
0.00164975
0.00169856
0.00160296
0.00160289
0.00160245
0.00160258
0.00178659
0.00181053
0.00514906
0.00435183
0.00241616
0.00275391
0.00729005
0.0195229
0.0267272
0.0277673
0.0187141
0.00908883
0.0061045
0.0078438
0.0130082
0.0077334
0.00868725
0.0229707
0.0235594
0.0161316
0.0144172
0.0229505
0.0242659
0.0301501
0.0346169
0.0450503
0.0457699
0.0457703
0.0457699
0.0306478
0.00843264
0.0226853
0.0167132
0.0141204
0.0422974
0.0597883
0.0597104
0.0522381
0.0458266
0.0458749
0.0215553
0.0160658
0.0180388
0.0157601
0.0301401
0.0457703
0.0457698
0.0177385
0.00709093
0.00692836
0.0510973
0.0508533
0.0137523
0.027575
0.0596725
0.0413087
0.0386204
0.0245452
0.0406741
0.0122887
0.00412268
0.00290583
0.00281009
0.00663279
0.0457699
0.0269116
0.00646339
0.00531978
0.0409409
0.0483412
0.0368733
0.0102487
0.00579334
0.00998579
0.0209979
0.0670191
0.0245262
0.0244548
0.00733538
0.00264385
0.00261169
0.00286045
0.00372072
0.0134793
0.00658087
0.00594727
0.00498058
0.065381
0.0382006
0.00447302
0.00455766
0.00458199
0.00719109
0.0925206
0.0371362
0.0244848
0.0244401
0.00310389
0.00323685
0.00264224
0.00255908
0.00332595
0.00605162
0.00647878
0.00397323
0.00399206
0.063369
0.00461686
0.00447347
0.00447464
0.00519396
0.0581241
0.0948626
0.0251617
0.0254192
0.0244519
0.000490508
0.000478497
0.000478567
0.000638067
0.00187443
0.000206257
0.000206508
0.000205941
0.000201178
0.00020094
0.000167433
8.2894e-05
2.38752e-05
3.10787e-06
1.8184e-05
0.000398008
0.00183375
0.00293397
0.00352258
0.00303501
0.00117945
0.000783529
0.00130378
0.0254008
0.0111826
0.00390758
0.000635213
0.00427427
0.0182595
0.0184498
0.0222282
0.0273646
0.00487216
0.000169007
0.00118339
0.00566138
0.00882516
0.00853107
0.00683815
0.010868
0.0166934
0.0182334
0.00795336
0.00127556
0.000779986
0.00100436
0.0338683
0.0338537
0.0338124
0.0192974
0.00421076
0.0101127
0.0612497
0.083142
0.0832767
0.0770697
0.0438745
0.0322062
0.0447451
0.0481616
0.0404383
0.000881114
0.0215417
0.0482667
0.0482654
0.0457438
0.0129618
0.00223228
0.000258239
0.0190587
0.0144853
0.0279138
0.0274055
0.00717139
0.00319107
0.0206426
0.0814695
0.0832728
0.0832773
0.0586901
0.0392456
0.0458702
0.0438577
0.00594922
6.05979e-05
0.0138778
0.0450879
0.0482661
0.048264
0.0482562
0.0103674
0.000258908
0.000252325
0.000243795
0.00620829
0.0182098
0.00581456
0.00326921
0.0207599
0.0831422
0.0833798
0.0438121
0.00107988
0.0116631
0.020392
0.0118238
1.23162e-05
2.39362e-05
0.000311095
0.00159035
0.0060125
0.0218631
0.0253662
0.00421399
0.000564558
0.000242235
0.00025102
0.000284071
0.000818318
0.000369504
0.0060888
0.0675214
0.083468
0.0542576
0.000167665
0.000135613
0.000134418
0.000160359
0.000156752
8.6784e-05
3.49382e-06
1.91642e-06
-5.1939e-10
0.000112389
1.34396e-08
1.33572e-08
4.4875e-05
0.00039639
9.40321e-05
0.000148772
0.000179026
0.000255489
0.000303315
0.00673293
0.0351358
0.036253
0.00414004
9.06181e-05
1.11879e-05
2.12787e-05
4.09954e-05
3.47054e-05
1.66493e-05
1.81952e-06
1.65365e-24
-1.10881e-15
6.79099e-08
1.34202e-08
2.46964e-06
0.014121
0.0478083
5.42196e-06
7.5953e-06
1.9454e-06
3.7914e-22
3.17982e-18
8.32833e-11
7.95161e-05
7.9671e-05
6.2753e-05
-1.56358e-08
-1.85354e-08
-7.75963e-08
-2.51682e-07
-2.55491e-19
-2.87527e-08
-2.28185e-09
-3.08016e-12
2.66016e-19
0.00359647
0.0996401
0.320642
0.558529
0.71576
-2.00593e-07
1.88249e-07
-3.15365e-08
0.0141317
0.0637505
0.103336
0.127805
0.14303
0.157803
0.174968
0.189963
0.178159
0.147422
0.118393
0.109068
0.127988
0.177129
0.28962
0.492111
0.734076
0.92127
0.987126
0.999048
0.246217
0.309513
0.434708
0.621029
0.759206
0.833881
0.874224
0.902179
0.929558
0.947456
0.956489
0.949199
0.925562
0.889863
0.854031
0.847909
0.863813
0.911676
0.960702
0.990167
0.996187
0.999662
0.999991
0.945282
0.96773
0.991063
0.998196
0.998796
0.999076
0.999205
0.999404
0.999887
0.999988
0.999999
0.999994
0.999971
0.999818
0.999417
0.99996
0.999754
0.999998
0.999084
0.999999
1
0.999999
0.999994
0.99969
0.999905
0.99997
1
1
1
1
1
1
1
1
1
0.999986
0.999902
0.999991
0.999993
0.999994
0.999998
0.999999
1
1
0.999986
0.999965
1
0.999999
1
1
1
1
1
1
0.999999
0.999999
0.999999
0.999999
0.999998
0.999985
0.999978
0.999976
0.999978
0.99998
0.999993
0.999991
0.999974
0.999974
0.99998
1
1
1
1
1
1
1
1
0.999999
0.999999
0.999999
0.999999
0.999998
0.99999
0.999984
0.99998
0.999974
0.999974
0.999974
0.999973
0.999973
0.999992
0.999998
1
1
1
1
1
1
1
1
1
0.999999
0.999999
0.999999
0.999997
0.999999
0.999999
0.999996
0.999989
0.999988
0.999977
0.99998
0.999995
0.999995
0.999998
1
1
1
1
1
1
1
1
1
1
1
0.999999
0.999999
1
1
0.999999
0.999996
0.999999
0.999995
0.999998
0.999995
0.999978
0.999998
1
1
1
1
1
1
1
1
1
1
1
1
1
1
1
1
1
1
1
1
0.999988
0.999978
0.999991
1
1
1
1
1
1
1
1
1
1
1
1
1
1
1
1
1
1
1
1
0.999997
0.999979
0.999968
1
1
1
1
1
1
1
1
1
1
1
1
1
1
1
1
1
1
1
1
1
0.999999
0.999991
1
1
1
1
1
1
1
1
1
1
1
1
1
1
1
1
1
1
1
1
1
1
1
1
1
1
1
1
1
1
1
1
1
1
1
1
1
1
1
1
1
1
1
1
1
1
1
1
1
1
1
1
1
1
1
1
1
1
1
1
1
1
1
1
1
1
1
1
1
1
1
1
1
1
1
1
1
1
1
1
1
1
1
1
1
1
1
1
1
1
1
1
1
1
1
1
1
1
1
1
1
1
1
1
1
1
1
1
1
1
1
1
1
1
1
1
1
1
1
1
1
1
1
1
1
1
1
1
1
1
1
1
1
1
1
1
1
1
1
1
1
1
1
1
1
1
1
1
1
1
1
1
1
1
1
1
1
1
1
1
1
1
1
1
1
1
1
1
1
1
1
1
1
1
1
1
1
1
1
1
1
1
1
1
1
1
1
1
1
1
1
1
1
1
1
1
1
1
1
1
1
1
1
1
1
1
1
1
1
1
1
1
1
1
1
1
1
1
1
1
1
1
1
1
1
1
1
1
1
1
1
1
1
1
1
1
1
1
1
1
1
1
1
1
1
1
1
1
1
1
1
1
1
1
1
1
0.999999
1
1
1
1
1
1
1
1
1
1
1
1
1
1
1
1
1
1
1
1
1
1
0.999999
1
1
1
1
1
1
1
1
1
1
1
1
1
1
1
1
1
1
1
1
1
1
0.999999
1
1
1
1
1
1
1
1
1
1
1
1
1
1
1
1
1
1
1
1
1
0.999999
1
1
1
1
1
1
1
1
1
1
1
1
1
1
1
1
1
1
1
1
1
1
0.999999
1
1
1
1
1
1
1
1
1
1
1
1
1
1
1
1
1
1
1
1
1
1
0.999999
1
1
1
1
1
1
1
1
1
1
1
1
1
1
1
1
1
1
1
1
1
1
0.999999
1
1
1
1
1
1
1
1
1
1
1
1
1
1
1
1
1
1
1
1
1
1
0.999999
1
1
1
1
1
1
1
1
1
1
1
1
1
1
1
1
1
1
1
1
1
1
0.999999
0.999999
1
1
1
1
1
1
1
1
1
1
1
1
1
1
1
1
1
1
1
1
1
0.999999
0.999999
1
1
1
1
1
1
1
1
1
1
1
1
1
1
1
1
1
1
1
1
1
0.999999
0.999999
1
1
1
1
1
1
1
1
1
1
1
1
1
1
1
1
1
1
1
1
1
0.999999
1
1
1
1
1
1
1
1
1
1
1
1
1
1
1
1
1
1
1
1
0.00286457
0.00398083
0.00317929
0.00315966
0.00748041
0.0181451
0.0305575
0.0356552
0.0310567
0.143712
0.151952
0.151941
0.0529462
0.123907
0.133298
0.102645
0.000353844
9.2113e-05
0.000240678
0.000326342
8.46742e-05
9.87974e-05
0.000245037
0.000374944
0.0841948
0.120419
0.162694
0.209655
0.783724
0.839388
0.901757
0.950005
0.999559
0.999094
0.99906
0.999917
0.999988
0.99998
0.999973
0.999985
0.999979
0.999977
0.999967
0.999965
0.999964
0.999964
0.999971
0.999972
0.999987
0.999996
0.999997
0.999999
0.999999
0.999994
0.999983
0.999993
0.999995
0.999943
0.999914
0.999936
0.999951
0.999914
0.99991
0.99991
0.999945
0.999912
0.999909
0.999911
0.999932
0.999909
0.99991
0.999925
0.999973
0.999931
0.99995
0.999985
1
1
1
0.999998
1
1
1
1
1
1
1
1
1
1
1
1
1
1
1
1
1
1
1
1
1
1
1
1
1
1
1
1
1
1
1
1
1
1
1
1
1
1
1
1
1
1
1
1
1
1
1
1
1
1
1
1
1
1
1
1
1
1
1
1
1
1
1
1
1
1
1
1
1
1
1
1
1
1
1
1
1
1
1
1
1
1
1
1
1
1
1
1
0.00318264
0.00636147
0.0126433
0.0112191
0.00201978
0.00247651
0.00265102
0.00244991
0.0217886
0.0545143
0.00490013
0.00561564
0.00945162
0.033417
0.0894963
0.0895168
0.0253066
0.0300929
0.0244287
0.0547714
0.096288
0.0876091
0.0376602
0.00198533
0.00178555
0.00832102
0.0492711
0.0776164
0.0364963
0.00692833
0.0285191
0.0322654
0.0321445
0.0194906
0.0194028
0.0444955
0.0467821
0.0404076
0.151953
0.151941
0.151952
0.146248
0.0330101
0.00093917
0.0119111
0.0670868
0.0776093
0.0587207
0.00361735
0.0056559
0.0213031
0.0121708
5.2143e-05
0.0201083
0.0467821
0.046737
0.0451624
0.088097
0.0869497
0.121369
0.146436
0.0757027
0.00093925
0.00100469
0.00130504
0.0242543
0.038888
0.0175695
0.0012848
0.00133602
0.000383324
4.01322e-05
0.00178246
0.025755
0.0206175
0.00789764
4.09879e-20
-6.22745e-25
4.78455e-20
0.020668
0.0367093
0.00239936
0.000589109
0.000446328
0.000284477
0.000751756
0.00198625
0.00135761
0.00134409
0.00114955
0.00013288
0.000135661
0.000138904
0.000216555
0.000219286
5.8621e-10
0.000109549
0.00315723
0.00355077
0.00136466
0.000575615
0.000214341
-3.64698e-07
-2.18317e-08
3.23656e-09
5.02329e-08
-6.72666e-07
0.000387813
0.000691694
0.000493391
0.000258486
0.000272565
0.00021924
0.000219295
0.295214
0.418776
0.506213
0.51242
0.481473
0.461449
0.438594
0.396241
0.354414
0.332757
0.322762
0.269477
0.17965
0.0949964
0.0427668
0.0245888
0.031086
0.0312025
0.0164859
0.982309
0.991644
0.982999
0.984066
0.989496
0.990422
0.991526
0.991773
0.989604
0.977677
0.973965
0.959273
0.910758
0.825137
0.734202
0.697321
0.678871
0.63346
0.553021
0.999988
1
1
0.999999
0.999998
0.999999
1
0.99997
0.999823
0.999611
0.999566
0.999324
0.998951
0.99938
0.999538
0.997171
0.993318
0.990811
0.990798
0.999993
0.999998
0.999998
0.999993
0.999989
0.999995
1
1
1
1
1
1
0.999998
0.999824
0.999973
0.999974
0.999992
0.999863
0.999253
0.999974
0.999997
0.999993
0.999988
0.999985
0.999986
0.999996
1
1
0.999999
0.999986
0.999967
0.99997
0.999929
0.999943
0.999966
0.99999
0.999988
0.999981
0.99999
0.999999
0.999996
0.99999
0.999988
0.999987
0.999992
1
0.999999
0.999993
0.999992
0.999966
0.999952
0.99993
0.999843
0.999843
0.999868
0.999945
0.999962
0.999999
0.999999
1
1
0.999998
0.999994
0.999997
0.999997
0.999988
0.999977
0.999987
0.999995
0.999989
0.999974
0.999956
0.999844
0.999819
0.99982
0.999945
0.999997
0.999997
0.999999
0.999994
0.999982
0.999959
0.999956
0.99995
0.999938
0.999942
0.999984
0.999996
0.99998
0.999985
0.999985
0.999962
0.999819
0.99982
0.999952
0.99996
0.999963
0.999983
0.999965
0.999934
0.999933
0.999933
0.999935
0.999937
0.999975
0.999987
0.99996
0.999906
0.999909
0.999977
0.999967
0.999849
0.99993
0.999961
0.999915
0.999944
0.999951
0.999941
0.999942
0.999944
0.999935
0.999941
0.99999
0.99999
0.999961
0.999901
0.999901
0.999914
0.999981
0.999989
0.999981
0.999979
0.999962
0.999917
0.999951
0.999948
0.99995
0.999952
0.99997
0.999986
0.999969
0.99999
0.99999
0.999931
0.999901
0.999934
0.999973
0.999992
0.999993
0.999984
0.999977
0.999974
0.999978
0.999991
0.999957
0.999955
0.999963
0.999994
0.999992
0.999962
0.999952
0.99996
0.999967
0.99997
0.99996
0.99996
0.99996
0.999973
0.999989
0.999986
0.999996
0.999999
0.999999
0.999995
0.999967
0.999993
0.999994
0.999992
0.999963
0.99995
0.99995
0.999951
0.999991
0.999992
0.999987
0.999984
0.999976
0.999983
0.999996
0.999997
0.999999
1
0.999999
1
0.999995
0.999994
0.999994
0.999997
0.999989
0.999971
0.999974
0.999986
0.99999
0.999989
0.99998
0.999971
0.999972
0.999988
0.999998
1
1
1
1
1
0.999998
0.999999
0.999999
1
1
1
0.999999
0.999987
0.999971
0.999971
0.999971
0.999971
0.99999
0.999998
1
1
1
1
1
1
1
1
1
1
1
1
1
0.999989
0.999973
0.999971
0.999976
0.999997
0.999997
1
1
1
1
1
1
1
1
1
1
1
1
1
1
1
0.999982
0.99999
0.999999
0.999997
1
1
1
1
1
1
1
1
1
1
1
1
1
1
1
1
1
0.999999
0.999998
1
1
1
1
1
1
1
1
1
1
1
1
1
1
1
1
1
1
0.999998
1
1
1
1
1
1
1
1
1
1
1
1
1
1
1
1
1
1
0.999998
1
1
1
1
1
1
1
1
1
1
1
1
1
1
1
1
1
1
0.999998
1
1
1
1
1
1
1
1
1
1
1
1
1
1
1
1
1
1
0.999998
1
1
1
1
1
1
1
1
1
1
1
1
1
1
1
1
1
0.999999
0.999998
1
1
1
1
1
1
1
1
1
1
1
1
1
1
1
1
1
0.999998
0.999999
1
1
1
1
1
1
1
1
1
1
1
1
1
1
1
1
0.999999
0.999998
1
1
1
1
1
1
1
1
1
1
1
1
1
1
1
1
1
0.999999
0.999998
1
1
1
1
1
1
1
1
1
1
1
1
1
1
1
1
1
1
0.999999
1
1
1
1
1
1
1
1
1
1
1
1
1
1
1
1
1
1
1
1
1
1
1
1
1
1
1
1
1
1
0.999998
0.999997
1
1
1
1
1
1
1
1
1
1
1
1
1
1
1
1
1
0.999997
0.999995
0.999998
1
1
1
1
1
1
1
1
1
1
1
1
1
1
1
1
0.999999
0.999995
0.999995
0.999999
1
1
1
1
1
1
1
1
1
1
1
1
1
1
1
1
0.999999
0.999995
0.999996
1
1
1
1
1
1
1
1
1
1
1
1
1
1
1
1
1
0.999998
0.999996
0.999996
1
1
1
0.999998
1
1
1
1
1
1
1
1
1
1
1
1
1
0.999998
0.999996
0.999997
1
1
0.999998
1
1
1
1
1
1
1
1
1
1
1
1
1
1
1
0.999997
0.999999
1
0.999998
1
1
1
1
1
1
1
1
1
1
1
1
1
1
1
1
0.999999
0.999999
0.999998
)
;

boundaryField
{
    leftWall
    {
        type            alphaContactAngle;
        thetaProperties 
6
(
(galistan air) 90 0 0 0
(oil galistan) 90 0 0 0
(water oil) 90 0 0 0
(water air) 90 0 0 0
(oil air) 90 0 0 0
(water galistan) 90 0 0 0
);
        value           nonuniform List<scalar> 
50
(
1.0981e-09
1.53345e-09
3.59859e-09
2.9619e-09
0.000292159
0.00116279
0.000968402
0.00047926
0.000490508
0.0254008
0.0338683
0.0190587
0.000252325
0.000242235
9.40321e-05
5.42196e-06
-2.00593e-07
0.246217
0.945282
0.99969
1
1
1
1
1
1
1
1
1
1
1
1
1
1
1
1
1
1
1
1
1
1
1
1
1
1
1
1
1
1
)
;
    }
    rightWall
    {
        type            alphaContactAngle;
        thetaProperties 
6
(
(galistan air) 90 0 0 0
(oil galistan) 90 0 0 0
(water oil) 90 0 0 0
(water air) 90 0 0 0
(oil air) 90 0 0 0
(water galistan) 90 0 0 0
);
        value           nonuniform List<scalar> 
50
(
0.00289991
0.00181053
0.0144172
0.0458749
0.0406741
0.0244548
0.0244401
0.0244519
0.0244287
0.0404076
0.0451624
0.00789764
0.000219286
0.000219295
0.0164859
0.553021
0.990798
0.999253
0.999981
0.999962
0.999945
0.999952
0.999961
0.999962
0.999974
0.999996
0.999997
0.999998
0.999998
0.999997
0.999997
0.999998
0.999998
0.999998
0.999998
0.999998
0.999998
0.999999
1
1
1
1
1
1
1
1
0.999998
0.999998
0.999998
0.999998
)
;
    }
    lowerWall
    {
        type            alphaContactAngle;
        thetaProperties 
6
(
(galistan air) 90 0 0 0
(oil galistan) 90 0 0 0
(water oil) 90 0 0 0
(water air) 90 0 0 0
(oil air) 90 0 0 0
(water galistan) 90 0 0 0
);
        value           nonuniform List<scalar> 
62
(
1.0981e-09
1.06939e-09
1.06939e-09
1.14073e-09
1.30936e-09
1.31541e-09
1.06836e-09
7.05456e-10
4.23037e-10
2.99585e-10
2.49411e-10
2.26384e-10
2.15202e-10
2.15843e-10
2.20516e-10
2.3543e-10
2.67298e-10
2.86857e-10
2.27e-10
2.28958e-10
1.49436e-07
6.47442e-07
6.47534e-07
6.47534e-07
5.76124e-07
7.87095e-08
4.42198e-07
0.000616631
0.00698577
0.00806003
0.00219138
0.00286457
0.00398083
0.00317929
0.00315966
0.000401094
0.000379176
0.00514906
0.0229505
0.0215553
0.0122887
0.00733538
0.00310389
0.000401094
0.00147166
0.00560731
0.00607301
0.00504222
0.00243397
0.00182222
0.0018198
0.00176656
0.00160856
0.00160827
0.00160797
0.00160524
0.00160392
0.00160346
0.00164034
0.00261351
0.00295197
0.00289991
)
;
    }
    atmosphere
    {
        type            inletOutlet;
        inletValue      uniform 1;
        value           nonuniform List<scalar> 
46
(
1
1
0.999999
1
1
1
1
1
1
1
1
1
1
1
1
1
1
1
1
1
1
1
1
1
1
1
1
1
1
1
1
1
1
1
1
1
1
1
1
1
1
1
1
0.999999
0.999999
0.999998
)
;
    }
    defaultFaces
    {
        type            empty;
    }
}


// ************************************************************************* //
