/*--------------------------------*- C++ -*----------------------------------*\
| =========                 |                                                 |
| \\      /  F ield         | OpenFOAM: The Open Source CFD Toolbox           |
|  \\    /   O peration     | Version:  2312                                  |
|   \\  /    A nd           | Website:  www.openfoam.com                      |
|    \\/     M anipulation  |                                                 |
\*---------------------------------------------------------------------------*/
FoamFile
{
    version     2.0;
    format      ascii;
    arch        "LSB;label=32;scalar=64";
    class       volScalarField;
    location    "6";
    object      alphas;
}
// * * * * * * * * * * * * * * * * * * * * * * * * * * * * * * * * * * * * * //

dimensions      [0 0 0 0 0 0 0];

internalField   nonuniform List<scalar> 
2268
(
2
2
2
2
2
2
2
2
2
2
2
2
2
2
2
2
2
2
2
1.99999
1.99996
1.99996
1.99996
2
2
2
2
2
2
2
2
2
2
2
2
2
2
2
2
2
2
2
2
1.99999
1.99997
1.99999
2
2
2
2
2
2
2
2
2
2
2
2
2
2
2
2
2
2
2
2
2
2
2
2
2
2
2
2
2
2
2
2
2
2
2
2
2
2
2
2
2
2
2
2
2
2
1.99919
1.99906
1.99881
1.99878
1.99911
1.99973
2.00009
2
1.99999
1.99998
2
2
1.99998
1.99997
1.99999
2
2
1.99998
1.99988
1.99995
2.00001
2.00005
2.00062
0.894186
0.924676
0.995011
1.10523
1.24741
1.40463
1.56024
1.69832
1.80627
1.88177
1.93607
1.97708
1.99407
1.99361
1.98222
1.97504
1.96438
1.94727
1.93707
1.92899
1.92463
1.92112
1.91988
0.00499435
0.00506749
0.00866286
0.0206354
0.04663
0.0979495
0.182148
0.296805
0.437086
0.582513
0.715626
0.820797
0.891193
0.917782
0.902752
0.895323
0.892904
0.847162
0.78108
0.726483
0.683592
0.654877
0.645756
0.00145045
0.00145025
0.00145432
0.00145331
0.00126979
0.00113052
0.00104299
0.000643065
0.000549715
0.000620112
0.000509179
0.000486732
0.00157004
0.00201312
0.0430943
0.0539521
0.0511234
0.0395916
0.0338477
0.0284775
0.0217584
0.0229965
0.0282963
1.96222
1.965
1.97391
1.97426
1.97152
1.96474
1.96378
1.96344
1.96247
1.96149
1.96139
1.96352
1.96779
1.96808
1.96805
1.96816
1.97088
1.9717
1.97147
1.95319
1.96891
1.97356
1.97394
1.97395
1.97425
1.97004
1.96039
1.95015
1.94601
1.94028
1.92954
1.92548
1.92662
1.92562
1.90088
1.90493
1.91694
1.92635
1.76743
1.81822
1.85158
1.85666
1.85445
1.85439
1.74182
1.60054
1.43191
1.23473
1.13026
1.14695
1.25785
1.3134
1.38857
1.47031
1.48742
1.47359
1.48107
0.875366
1.04652
1.2213
1.25075
1.18633
0.923604
0.620188
0.368036
0.1685
0.035157
0.102559
0.08205
0.100812
0.297874
0.44344
0.707258
0.587005
0.316445
0.604003
0.284813
0.168338
0.135717
0.102503
0.162624
0.210627
0.161403
0.0567163
0.0225678
0.0280958
0.262976
0.221168
0.0568655
0.0879269
0.182837
0.512087
0.205416
0.0968041
0.328792
0.104213
0.0189534
0.0178908
0.0184701
0.0225359
0.13873
0.0821835
0.0213122
0.0200992
0.162296
0.347552
0.262226
0.0504988
0.0236463
0.0388813
0.274658
0.349172
0.0982771
0.0960225
0.0995615
0.0182974
0.0210927
0.0219837
0.0204194
0.0418587
0.0214494
0.020814
0.0195707
0.361343
0.318656
0.104974
0.0221448
0.0216993
0.0674053
0.374492
0.145103
0.10047
0.0970031
0.030088
0.0186054
0.0180193
0.0210902
0.0219711
0.0209234
0.0213469
0.0168513
0.017707
0.554345
0.192583
0.0519108
0.0445163
0.0496497
0.317163
0.423527
0.103236
0.100457
0.096956
0.00147205
0.00146513
0.00162625
0.00216267
0.0056233
0.000623511
0.000621508
0.000619279
0.000611153
0.000612948
0.000553107
0.000385689
0.000259825
0.000953878
0.00407203
0.00634471
0.00889285
0.0111822
0.0124071
0.0114239
0.00761011
0.00679408
0.0086409
0.0767452
0.033602
0.0122442
0.00584831
0.0163293
0.055087
0.0553492
0.0666847
0.0820937
0.0147703
0.000659361
0.00363426
0.0173635
0.0268825
0.0258109
0.0207836
0.0336536
0.0527137
0.0574113
0.0249473
0.00799247
0.00944408
0.0208603
0.558979
0.526805
0.469132
0.43082
0.386647
0.321365
0.353256
0.320721
0.269238
0.243595
0.182192
0.22833
0.286414
0.274512
0.241642
0.129169
0.193348
0.260384
0.27631
0.304973
0.319977
0.506599
0.611741
1.03414
1.02189
1.0358
1.02824
0.993625
0.967237
0.958697
0.988183
0.854277
0.804681
0.850342
0.922219
0.964763
0.948339
0.836139
0.807348
0.837968
0.924569
0.973211
1.01916
1.06751
1.02373
1.00607
1.0006
1.00055
1.01245
1.03643
1.01168
1.00477
1.04259
1.16852
1.1683
1.08766
1.00232
1.02425
1.04193
1.02446
1.00033
1.00031
1.00093
1.00385
1.01372
1.04607
1.05156
1.00852
1.00121
1.00053
1.00054
1.00058
1.00164
1.00074
1.01213
1.13609
1.16918
1.10916
1.00037
1.0003
1.0003
1.00033
1.00033
1.00023
1.00003
0.999884
0.999172
0.998774
0.995942
0.997974
1.00021
1.00067
1.0003
1.00028
1.00026
1.00049
1.00061
1.01347
1.07062
1.07311
1.00837
1.00024
1.00003
0.999968
0.999969
0.999938
0.999893
0.999849
0.999846
0.999847
0.991925
0.981124
0.98316
1.0267
1.09556
1.0002
0.999921
0.99973
0.999478
0.998728
1.0001
1.00025
1.00025
1.0002
1.00001
0.999951
1.00003
0.999888
0.999624
0.998598
0.996669
0.997101
0.999016
0.995044
1.17962
1.62331
2.10227
2.43307
1.00024
0.99995
0.998156
1.02418
1.1236
1.20319
1.25347
1.28393
1.31327
1.34793
1.37983
1.35683
1.2951
1.23661
1.21333
1.24607
1.34437
1.56938
1.96884
2.44869
2.82372
2.96394
2.99885
1.49263
1.61938
1.86722
2.23794
2.51451
2.66386
2.74462
2.80188
2.85881
2.895
2.91321
2.8987
2.85144
2.7798
2.70693
2.68991
2.71844
2.81446
2.91053
2.97081
2.9888
2.99905
2.99998
2.89076
2.93582
2.98153
2.9947
2.99664
2.99753
2.99776
2.99828
2.99967
2.99997
3
2.99998
2.99991
2.99952
2.99834
2.99996
2.99932
2.99999
2.99727
3
3
3
2.99998
2.99951
2.99987
2.99997
3
3
3
3
3
3
3
3
3
2.99996
2.99971
2.99998
2.99999
2.99999
3
3
3
3
2.99996
2.99991
3
3
3
3
3
3
3
3
3
3
3
3
3
2.99997
2.99995
2.99995
2.99995
2.99996
2.99999
2.99998
2.99993
2.99993
2.99994
3
3
3
3
3
3
3
3
3
3
3
3
3
2.99998
2.99997
2.99996
2.99994
2.99994
2.99994
2.99994
2.99993
2.99998
3
3
3
3
3
3
3
3
3
3
3
3
3
2.99999
3
3
2.99999
2.99997
2.99997
2.99995
2.99995
2.99999
2.99999
2.99999
3
3
3
3
3
3
3
3
3
3
3
3
3
3
3
3
2.99999
3
2.99999
3
2.99999
2.99995
2.99999
3
3
3
3
3
3
3
3
3
3
3
3
3
3
3
3
3
3
3
3
2.99997
2.99995
2.99998
3
3
3
3
3
3
3
3
3
3
3
3
3
3
3
3
3
3
3
3
2.99999
2.99995
2.99993
3
3
3
3
3
3
3
3
3
3
3
3
3
3
3
3
3
3
3
3
3
3
2.99998
3
3
3
3
3
3
3
3
3
3
3
3
3
3
3
3
3
3
3
3
3
3
3
3
3
3
3
3
3
3
3
3
3
3
3
3
3
3
3
3
3
3
3
3
3
3
3
3
3
3
3
3
3
3
3
3
3
3
3
3
3
3
3
3
3
3
3
3
3
3
3
3
3
3
3
3
3
3
3
3
3
3
3
3
3
3
3
3
3
3
3
3
3
3
3
3
3
3
3
3
3
3
3
3
3
3
3
3
3
3
3
3
3
3
3
3
3
3
3
3
3
3
3
3
3
3
3
3
3
3
3
3
3
3
3
3
3
3
3
3
3
3
3
3
3
3
3
3
3
3
3
3
3
3
3
3
3
3
3
3
3
3
3
3
3
3
3
3
3
3
3
3
3
3
3
3
3
3
3
3
3
3
3
3
3
3
3
3
3
3
3
3
3
3
3
3
3
3
3
3
3
3
3
3
3
3
3
3
3
3
3
3
3
3
3
3
3
3
3
3
3
3
3
3
3
3
3
3
3
3
3
3
3
3
3
3
3
3
3
3
3
3
3
3
3
3
3
3
3
3
3
3
3
3
3
3
3
3
3
3
3
3
3
3
3
3
3
3
3
3
3
3
3
3
3
3
3
3
3
3
3
3
3
3
3
3
3
3
3
3
3
3
3
3
3
3
3
3
3
3
3
3
3
3
3
3
3
3
3
3
3
3
3
3
3
3
3
3
3
3
3
3
3
3
3
3
3
3
3
3
3
3
3
3
3
3
3
3
3
3
3
3
3
3
3
3
3
3
3
3
3
3
3
3
3
3
3
3
3
3
3
3
3
3
3
3
3
3
3
3
3
3
3
3
3
3
3
3
3
3
3
3
3
3
3
3
3
3
3
3
3
3
3
3
3
3
3
3
3
3
3
3
3
3
3
3
3
3
3
3
3
3
3
3
3
3
3
3
3
3
3
3
3
3
3
3
3
3
3
3
3
3
3
3
3
3
3
3
3
3
3
3
3
3
3
3
3
3
3
3
3
3
3
3
3
3
3
3
3
3
3
3
3
3
3
3
3
3
3
3
3
3
3
3
3
3
3
3
3
3
3
3
3
3
3
3
3
3
3
3
3
3
3
3
3
3
3
3
3
3
3
3
3
3
3
3
3
3
3
3
3
3
3
3
3
3
3
3
3
3
3
3
3
3
3
3
3
3
3
0.0137952
0.0193552
0.0143086
0.0136527
0.0436158
0.0679583
0.101193
0.1157
0.647356
0.825479
0.809337
0.772932
1.11635
1.25827
1.2752
1.21032
1.00213
1.003
1.00069
1.0004
0.999648
0.999491
1.00014
1.0006
1.16756
1.23842
1.32426
1.42012
2.56666
2.67684
2.80231
2.90019
2.99955
2.99751
2.99727
2.99975
2.99997
2.99995
2.99992
2.99996
2.99995
2.99994
2.99992
2.99992
2.9999
2.99991
2.99993
2.99993
2.99996
2.99999
3
3
3
2.99999
2.99996
2.99998
2.99999
2.99989
2.99982
2.99986
2.9999
2.99982
2.99981
2.99981
2.99989
2.99982
2.99981
2.99981
2.99986
2.99981
2.99981
2.99984
2.99993
2.99985
2.99989
2.99996
3
3
3
3
3
3
3
3
3
3
3
3
3
3
3
3
3
3
3
3
3
3
3
3
3
3
3
3
3
3
3
3
3
3
3
3
3
3
3
3
3
3
3
3
3
3
3
3
3
3
3
3
3
3
3
3
3
3
3
3
3
3
3
3
3
3
3
3
3
3
3
3
3
3
3
3
3
3
3
3
3
3
3
3
3
3
3
3
3
3
3
3
0.0136761
0.022543
0.0462135
0.0461565
0.0139649
0.0146652
0.0148029
0.0146311
0.153524
0.528952
0.0981332
0.0480245
0.0554936
0.129488
0.335372
0.364879
0.10327
0.111952
0.141923
0.173692
0.305579
0.289755
0.137985
0.101618
0.414276
0.709765
0.893239
0.974508
0.437936
0.0689897
0.11246
0.123995
0.125417
0.102995
0.112695
0.176769
0.164589
0.222654
0.79864
0.837536
0.753867
0.723405
0.900928
1.01731
1.03847
1.15412
1.16427
0.803828
0.558338
0.567655
0.464759
0.476956
0.579887
0.63016
0.679007
0.405831
0.266386
1.18109
1.18009
1.24937
1.29951
1.15312
1.00246
1.00238
1.00301
1.05027
1.07889
1.03566
1.00279
0.992877
1.00072
1.00326
1.0103
1.05812
0.974891
0.836454
0.999263
0.997518
0.996231
1.03958
1.07399
1.00478
1.00047
1.001
1.00123
1.00223
1.00491
1.00329
1.00314
1.00296
1.00155
1.00174
1.0027
1.00179
1.00217
0.997885
0.97585
0.970611
0.988939
0.996376
0.997857
0.998171
0.997809
0.997625
0.996971
0.998125
0.999961
1.00093
1.00173
1.0013
1.00093
1.00103
1.00116
1.00325
1.58811
1.80945
1.97712
1.98952
1.9306
1.90443
1.86323
1.78015
1.69498
1.64868
1.63
1.52666
1.35862
1.1908
1.08623
1.04947
1.06257
1.06607
1.03724
2.96342
2.97681
2.95039
2.95306
2.96927
2.97175
2.97487
2.9754
2.96884
2.93938
2.93142
2.90552
2.82034
2.65141
2.46993
2.39756
2.36201
2.27118
2.1103
2.99996
3
3
3
3
3
3
2.99993
2.9995
2.99883
2.9987
2.99803
2.99706
2.9986
2.99954
2.99551
2.98894
2.98583
2.98589
2.99999
3
2.99999
2.99998
2.99998
2.99999
3
3
3
3
3
3
3
2.99947
2.99997
2.99992
2.99998
2.99983
2.99906
2.99994
2.99999
2.99998
2.99997
2.99997
2.99997
2.99999
3
3
3
2.99996
2.9999
2.99993
2.99984
2.9999
2.99993
2.99998
2.99998
2.99996
2.99998
3
2.99999
2.99997
2.99997
2.99997
2.99998
3
3
2.99998
2.99998
2.9999
2.99987
2.99985
2.99969
2.99969
2.99973
2.99989
2.99992
3
3
3
3
3
2.99999
2.99999
2.99999
2.99997
2.99995
2.99997
2.99999
2.99997
2.99993
2.99991
2.99969
2.99964
2.99964
2.99987
2.99999
2.99999
3
2.99999
2.99997
2.99992
2.99991
2.9999
2.99987
2.99988
2.99996
2.99999
2.99996
2.99996
2.99996
2.99992
2.99964
2.99964
2.99989
2.99989
2.99989
2.99995
2.99992
2.99986
2.99986
2.99986
2.99987
2.99987
2.99995
2.99997
2.99992
2.9998
2.99982
2.99995
2.99993
2.9997
2.99986
2.99991
2.99979
2.99985
2.99986
2.99984
2.99985
2.99987
2.99987
2.99988
2.99998
2.99998
2.99992
2.99979
2.99979
2.99982
2.99996
2.99998
2.99996
2.99995
2.99991
2.99983
2.99986
2.99985
2.99986
2.99986
2.99991
2.99997
2.99994
2.99998
2.99998
2.99986
2.99978
2.99983
2.99992
2.99998
2.99998
2.99996
2.99994
2.99994
2.99996
2.99998
2.99987
2.99987
2.99989
2.99999
2.99998
2.99992
2.9999
2.99992
2.99993
2.99992
2.99988
2.99989
2.99989
2.99992
2.99997
2.99996
2.99999
3
3
2.99999
2.9999
2.99998
2.99999
2.99998
2.99992
2.9999
2.9999
2.9999
2.99998
2.99998
2.99997
2.99996
2.99995
2.99996
2.99999
2.99999
3
3
3
3
2.99999
2.99999
2.99999
2.99999
2.99997
2.99994
2.99995
2.99997
2.99998
2.99998
2.99996
2.99994
2.99994
2.99998
3
3
3
3
3
3
3
3
3
3
3
3
3
2.99997
2.99994
2.99994
2.99994
2.99994
2.99998
3
3
3
3
3
3
3
3
3
3
3
3
3
3
2.99998
2.99995
2.99994
2.99995
3
3
3
3
3
3
3
3
3
3
3
3
3
3
3
3
3
2.99996
2.99998
3
3
3
3
3
3
3
3
3
3
3
3
3
3
3
3
3
3
3
3
3
3
3
3
3
3
3
3
3
3
3
3
3
3
3
3
3
3
3
3
3
3
3
3
3
3
3
3
3
3
3
3
3
3
3
3
3
3
3
3
3
3
3
3
3
3
3
3
3
3
3
3
3
3
3
3
3
3
3
3
3
3
3
3
3
3
3
3
3
3
3
3
3
3
3
3
3
3
3
3
3
3
3
3
3
3
3
3
3
3
3
3
3
3
3
3
3
3
3
3
3
3
3
3
3
3
3
3
3
3
3
3
3
3
3
3
3
3
3
3
3
3
3
3
3
3
3
3
3
3
3
3
3
3
3
3
3
3
3
3
3
3
3
3
3
3
3
3
3
3
3
3
3
3
3
3
3
3
3
3
3
3
3
3
3
3
3
3
3
3
3
3
3
3
3
3
3
3
3
3
3
3
3
3
3
3
3
3
3
3
3
3
3
3
3
3
3
3
3
3
3
3
2.99999
3
3
3
3
3
3
3
3
3
3
3
3
3
3
3
3
3
2.99999
2.99999
3
3
3
3
3
3
3
3
3
3
3
3
3
3
3
3
3
3
2.99999
2.99999
3
3
3
3
3
3
3
3
3
3
3
3
3
3
3
3
3
3
2.99999
2.99999
3
3
3
3
3
3
3
3
3
3
3
3
3
3
3
3
3
3
2.99999
2.99999
3
3
3
3
3
3
3
3
3
3
3
3
3
3
3
3
3
3
2.99999
2.99999
3
3
2.99999
3
3
3
3
3
3
3
3
3
3
3
3
3
3
3
2.99999
3
3
2.99999
3
3
3
3
3
3
3
3
3
3
3
3
3
3
3
3
3
3
3
)
;

boundaryField
{
    leftWall
    {
        type            calculated;
        value           nonuniform List<scalar> 
50
(
2
2
2
2
1.99919
0.894186
0.00499435
0.00145045
0.00147205
0.0767452
0.558979
1.03414
1.0006
1.00053
1.0003
1.0002
1.00024
1.49263
2.89076
2.99951
3
3
3
3
3
3
3
3
3
3
3
3
3
3
3
3
3
3
3
3
3
3
3
3
3
3
3
3
3
3
)
;
    }
    rightWall
    {
        type            calculated;
        value           nonuniform List<scalar> 
50
(
1.97147
1.92635
1.48107
0.604003
0.328792
0.0960225
0.0970031
0.096956
0.141923
0.222654
0.266386
0.836454
1.00217
1.00325
1.03724
2.1103
2.98589
2.99906
2.99996
2.99992
2.99987
2.99989
2.99991
2.99991
2.99994
2.99999
2.99999
3
3
3
3
3
3
3
3
3
3
3
3
3
3
3
3
3
3
3
3
2.99999
2.99999
3
)
;
    }
    lowerWall
    {
        type            calculated;
        value           nonuniform List<scalar> 
62
(
2
2
2
2
2
2
2
2
2
2
2
2
2
2
2
2
2
2
2
1.99999
1.99996
1.99996
1.99996
1.99996
1.99999
2
2
2.00062
1.91988
0.645756
0.0282963
0.0137952
0.0193552
0.0143086
0.0136527
1.96222
1.95319
1.76743
0.875366
0.284813
0.104213
0.0995615
0.030088
1.96222
1.965
1.97391
1.97426
1.97152
1.96474
1.96378
1.96344
1.96247
1.96149
1.96139
1.96352
1.96779
1.96808
1.96805
1.96816
1.97088
1.9717
1.97147
)
;
    }
    atmosphere
    {
        type            calculated;
        value           nonuniform List<scalar> 
46
(
3
3
3
3
3
3
3
3
3
3
3
3
3
3
3
3
3
3
3
3
3
3
3
3
3
3
3
3
3
3
3
3
3
3
3
3
3
3
3
3
3
3
3
3
3
3
)
;
    }
    defaultFaces
    {
        type            empty;
    }
}


// ************************************************************************* //
