/*--------------------------------*- C++ -*----------------------------------*\
| =========                 |                                                 |
| \\      /  F ield         | OpenFOAM: The Open Source CFD Toolbox           |
|  \\    /   O peration     | Version:  2312                                  |
|   \\  /    A nd           | Website:  www.openfoam.com                      |
|    \\/     M anipulation  |                                                 |
\*---------------------------------------------------------------------------*/
FoamFile
{
    version     2.0;
    format      ascii;
    arch        "LSB;label=32;scalar=64";
    class       volScalarField;
    location    "6";
    object      alpha.oil;
}
// * * * * * * * * * * * * * * * * * * * * * * * * * * * * * * * * * * * * * //

dimensions      [0 0 0 0 0 0 0];

internalField   nonuniform List<scalar> 
2268
(
1.40366e-09
1.09342e-09
1.11786e-09
3.70891e-09
1.24555e-08
1.7702e-08
1.45946e-08
9.6127e-09
5.1483e-09
3.3125e-09
2.50599e-09
2.0755e-09
1.83272e-09
1.85418e-09
2.24732e-09
3.35495e-09
5.55831e-09
7.10729e-09
7.14689e-09
7.02038e-06
4.00745e-05
4.00664e-05
4.00897e-05
3.82459e-09
1.12566e-09
2.02361e-09
2.57281e-08
4.85682e-08
4.93329e-08
4.37688e-08
2.86026e-08
1.43623e-08
8.82754e-09
5.2779e-09
4.11559e-09
3.63682e-09
4.04705e-09
6.98221e-09
1.43977e-08
2.55245e-08
2.96421e-08
7.18662e-09
7.34742e-07
1.39365e-05
2.96665e-05
1.27318e-05
1.83594e-08
1.27121e-08
1.48928e-08
2.71671e-08
4.3541e-08
4.52514e-08
3.89538e-08
2.9857e-08
2.05017e-08
2.42765e-08
1.53792e-08
9.77794e-09
6.03966e-09
2.51486e-09
5.51623e-09
2.7953e-08
5.90948e-08
7.98974e-08
7.29292e-08
4.22188e-08
5.74192e-09
5.29879e-09
4.7404e-09
3.26841e-09
3.28286e-09
3.85004e-09
3.95819e-09
4.30686e-09
4.19793e-09
4.20824e-09
1.3683e-09
1.50341e-09
1.3683e-09
1.86447e-09
1.81512e-09
1.82108e-09
1.81512e-09
1.99731e-09
1.73203e-08
7.36559e-08
1.27621e-07
4.18433e-07
1.86721e-07
2.41996e-08
1.31156e-08
4.40793e-09
0.00110437
0.00115919
0.00143323
0.00164192
0.0013692
0.000608673
4.25678e-05
4.30882e-06
1.46255e-05
1.60157e-05
1.84506e-09
7.15793e-08
2.37526e-05
3.26014e-05
1.05858e-05
1.9045e-08
1.95789e-07
2.05916e-05
0.000127474
9.04377e-05
2.9455e-09
4.18451e-09
3.0468e-09
0.00444887
0.00449985
0.00449976
0.00449986
0.00449974
0.00449671
0.00296935
0.000314157
1.28367e-05
0.000110157
0.000493121
0.000692786
0.000636783
0.000313057
0.000151317
0.00495273
0.026184
0.0422746
0.0454156
0.0442826
0.0388837
0.0355947
0.0336522
0.00117279
0.00130975
0.00173757
0.00246978
0.00328155
0.00375965
0.00242356
0.000251587
1.43893e-05
0.000517792
0.000757318
0.000757365
0.000583224
0.00033554
0.00489713
0.0469388
0.0810025
0.0810185
0.0809923
0.0807199
0.0801281
0.0803628
0.0802335
1.14488e-05
1.03063e-05
7.64122e-06
7.10858e-06
0.000126004
0.000336021
0.000283267
0.000136234
5.37546e-05
0.000232093
0.000394919
0.000313874
0.000179021
0.0020039
0.0430935
0.0500534
0.0424973
0.0290365
0.0216389
0.0173804
0.0150077
0.0187114
0.0217222
0.026902
0.0264294
0.0264294
0.0264293
0.0264293
0.0264293
0.0264294
0.0264877
0.0264878
0.0264878
0.0264878
0.0264878
0.0271345
0.0274294
0.0274005
0.0273994
0.0271995
0.0269947
0.0269295
0.0457447
0.0302184
0.0264407
0.0264294
0.0264293
0.0264463
0.0308185
0.0413768
0.0517161
0.0556017
0.0613252
0.0721146
0.0762217
0.0749818
0.0759846
0.100727
0.0966763
0.0848492
0.0754614
0.222306
0.185829
0.150784
0.146037
0.152785
0.164721
0.171036
0.172713
0.197046
0.215439
0.21708
0.251202
0.311631
0.355575
0.405965
0.436656
0.436655
0.425704
0.416603
0.222305
0.222306
0.222302
0.221955
0.222299
0.222302
0.172063
0.112088
0.0503711
0.0095567
0.0343254
0.0293071
0.0584419
0.170972
0.261365
0.436656
0.369946
0.147289
0.410737
0.219371
0.119344
0.0808364
0.0530724
0.0696624
0.0733136
0.0240933
0.00350356
0.00130217
0.00130448
0.0820159
0.0409055
0.00461451
0.00459299
0.00380781
0.388159
0.0895521
0.0231466
0.206748
0.0664329
0.00176065
0.00166824
0.00137832
0.00139249
0.00139249
0.00139274
0.00141266
0.00148137
0.00159088
0.168335
0.117203
0.00536153
0.00381192
0.00380415
0.211184
0.144578
0.0211138
0.0224239
0.0737406
0.00143888
0.00142529
0.00142475
0.00139381
0.00139274
0.00139274
0.00139469
0.00167148
0.123914
0.179815
0.0913208
0.00437028
0.00452496
0.0365553
0.0964469
0.0246395
0.0188497
0.0213347
0.0183267
0.00144446
0.00144916
0.00141081
0.00206889
0.00139274
0.00139273
0.00338389
0.00254885
0.324137
0.178161
0.0383412
0.0294295
0.0291816
0.1329
0.134431
0.0189078
0.0188679
0.0213995
1.23737e-07
9.88829e-07
1.03616e-07
7.59296e-11
1.20417e-10
4.74084e-06
1.90783e-06
7.95313e-07
4.95214e-06
2.18241e-06
2.95193e-05
0.000111981
0.000180019
0.00094425
0.0040173
0.00515069
0.00332124
0.00212842
0.00147315
0.00196984
0.00392641
0.00434863
0.00302066
2.10835e-14
2.0988e-10
3.46376e-10
0.000764428
-2.74849e-09
2.95372e-13
-1.72931e-07
1.41172e-24
-5.19052e-26
8.49151e-22
-7.50104e-11
-1.45196e-08
-4.7339e-08
6.95845e-14
-1.46501e-06
-1.63652e-13
-1.36948e-05
-8.89829e-06
-5.88595e-06
-1.1227e-05
0.00364239
0.00579642
0.0114593
0.4566
0.424503
0.367176
0.369391
0.369775
0.286805
0.165694
0.0677146
0.0182936
0.0123026
0.0492587
0.123402
0.142852
0.120823
0.113268
0.119204
0.116899
0.103558
0.11949
0.161354
0.276291
0.490687
0.59154
0.97619
0.977892
0.95165
0.944302
0.969016
0.955505
0.893244
0.739297
0.600709
0.554776
0.673028
0.796228
0.817825
0.807578
0.812245
0.802093
0.786493
0.777281
0.816387
0.862342
0.913005
0.986636
0.994193
0.999652
0.999696
0.993758
0.981782
0.994131
0.9942
0.978168
0.914618
0.915082
0.956153
0.998758
0.98741
0.978457
0.987359
0.999679
0.999711
0.999381
0.997738
0.992294
0.97579
0.973803
0.995683
0.999313
0.999708
0.999708
0.999708
0.999174
0.99962
0.99381
0.931433
0.914293
0.945099
0.999797
0.999827
0.999827
0.999827
0.999827
0.999827
0.999827
0.999827
0.999099
0.99799
0.995311
0.99729
0.999312
0.999303
0.999708
0.999708
0.999708
0.999708
0.999689
0.99326
0.964512
0.96314
0.99577
0.999827
0.999827
0.999827
0.999827
0.999818
0.999827
0.999827
0.999827
0.999826
0.991905
0.979174
0.979517
0.980653
0.951305
0.999707
0.999707
0.999708
0.999413
0.998389
0.999618
0.999826
0.999826
0.999826
0.999816
0.999682
0.99979
0.999826
0.999609
0.99855
0.996496
0.996847
0.998795
0.98416
0.880316
0.657634
0.422802
0.282647
0.999459
0.999576
0.998024
0.98085
0.931036
0.891864
0.868916
0.853968
0.838983
0.821973
0.808836
0.821246
0.852241
0.881371
0.885961
0.861481
0.81236
0.700206
0.492407
0.24568
0.0578497
2.62761e-19
-4.62972e-23
0.753175
0.690031
0.562723
0.373972
0.235579
0.160905
0.120812
0.0947283
0.0696672
0.0520952
0.0430085
0.0503387
0.0740583
0.109985
0.144729
0.145714
0.126378
0.0789208
0.0282845
6.29171e-12
7.53091e-12
1.67197e-07
2.39432e-06
0.0541075
0.0318579
0.008046
2.53864e-18
-2.54229e-19
-6.4463e-19
4.56535e-19
1.57886e-19
3.90697e-20
1.17735e-19
3.75368e-10
2.14831e-20
4.03605e-20
5.15644e-13
5.51313e-13
5.11301e-12
9.54694e-12
5.12376e-09
-4.31467e-26
5.78807e-08
2.395e-07
1.19215e-07
1.17094e-06
-2.88742e-19
4.01629e-20
-8.10837e-22
7.71862e-18
4.93039e-34
1.82525e-09
3.02714e-09
2.17439e-12
2.22107e-09
1.95203e-08
1.38527e-08
3.1838e-09
3.63455e-07
5.36067e-06
2.61691e-06
6.78834e-06
5.70108e-06
2.41559e-06
-1.19682e-10
-9.08784e-10
1.94047e-07
4.81476e-06
9.08322e-06
1.39349e-09
2.02831e-09
-5.61593e-24
-4.08135e-18
-1.63847e-14
2.20624e-26
-9.65614e-21
1.13947e-07
2.58388e-07
2.54106e-07
9.31174e-08
1.82367e-08
1.5424e-06
1.45635e-05
1.83039e-05
2.04781e-05
2.04993e-05
1.97098e-05
6.79413e-06
6.29575e-06
9.34781e-06
7.45457e-06
1.69148e-06
1.05477e-08
1.0696e-08
2.01544e-08
2.96692e-08
4.9526e-08
1.04902e-07
1.35766e-07
1.79673e-07
3.01669e-07
4.84401e-07
5.23186e-07
3.61939e-07
1.60913e-06
1.04277e-05
1.61963e-05
1.70314e-05
1.99992e-05
2.0819e-05
2.08189e-05
1.60645e-05
9.90396e-06
1.58509e-06
7.36769e-07
1.11894e-08
1.08931e-08
8.54564e-08
1.43969e-07
1.70004e-07
1.7077e-07
1.71207e-07
1.19512e-07
1.68424e-07
3.58562e-07
4.45717e-07
1.04685e-06
2.57243e-06
9.36504e-07
1.46249e-06
1.04935e-06
4.99322e-06
7.58321e-06
1.43402e-05
1.22537e-05
2.66556e-06
1.62837e-06
1.11493e-06
9.55655e-09
1.42863e-08
7.13584e-08
9.747e-08
1.19289e-07
1.25239e-07
9.78894e-08
6.25371e-08
8.05742e-08
1.61399e-07
3.02234e-07
4.38133e-07
5.09091e-07
3.6396e-07
3.95524e-07
6.26779e-09
6.27722e-09
4.66846e-08
2.00526e-06
1.51787e-06
2.44286e-06
8.63913e-06
1.4455e-06
9.0149e-09
1.85016e-08
4.91197e-08
6.09552e-08
7.29419e-08
7.23847e-08
5.0935e-08
3.24557e-08
3.65476e-08
5.81178e-08
8.75118e-08
1.03053e-07
1.01755e-07
1.25897e-07
1.40236e-07
3.2618e-08
6.26184e-09
1.36211e-07
2.06651e-07
1.26759e-07
4.02101e-06
8.90837e-06
6.6068e-06
7.81531e-09
1.57975e-08
2.0671e-08
2.07551e-08
2.23356e-08
2.14638e-08
1.80584e-08
1.54236e-08
1.42544e-08
1.62115e-08
2.26236e-08
2.5471e-08
3.25637e-08
4.58881e-08
6.51673e-08
2.3909e-08
7.15164e-09
1.19041e-07
9.87085e-08
7.02024e-08
1.57258e-07
7.20914e-06
2.11064e-05
6.37194e-09
1.28488e-08
1.5763e-08
1.48176e-08
1.44709e-08
1.29271e-08
1.06744e-08
8.69669e-09
7.10894e-09
6.79843e-09
7.29067e-09
7.87193e-09
9.65347e-09
1.31278e-08
1.96363e-08
1.1509e-08
6.69723e-09
5.26737e-08
4.85349e-08
1.8915e-08
4.77514e-08
4.64482e-08
3.56443e-06
5.15233e-09
1.02329e-08
1.23076e-08
1.11811e-08
9.92029e-09
8.11791e-09
6.31808e-09
4.86383e-09
3.75201e-09
3.28936e-09
3.14788e-09
3.40565e-09
3.93716e-09
4.86574e-09
6.4062e-09
5.90543e-09
5.54685e-09
1.68097e-08
1.64486e-08
1.01675e-08
9.24914e-09
8.72185e-08
6.55728e-08
4.14346e-09
8.2618e-09
8.9617e-09
7.84828e-09
6.39986e-09
4.88239e-09
3.62243e-09
2.72233e-09
2.16302e-09
1.7533e-09
1.65836e-09
1.78371e-09
2.02081e-09
2.38906e-09
3.06037e-09
3.48171e-09
3.87015e-09
5.83625e-09
5.60764e-09
4.43352e-09
4.90931e-09
2.91979e-08
1.55225e-07
3.70655e-09
6.38176e-09
6.77304e-09
5.66996e-09
4.34845e-09
3.1409e-09
2.22798e-09
1.60095e-09
1.22767e-09
1.03888e-09
9.56168e-10
9.91308e-10
1.11175e-09
1.33312e-09
1.62637e-09
1.98549e-09
2.42481e-09
2.86176e-09
2.69899e-09
3.03615e-09
7.0059e-09
1.25315e-08
8.89872e-08
3.33111e-09
5.09107e-09
4.87916e-09
3.85102e-09
2.78095e-09
1.93116e-09
1.3445e-09
9.85807e-10
7.64767e-10
6.29207e-10
5.56452e-10
5.45299e-10
5.95918e-10
7.1586e-10
9.05068e-10
1.15001e-09
1.41216e-09
1.68015e-09
1.81356e-09
2.60174e-09
5.59897e-09
9.88944e-09
5.42646e-08
3.05007e-09
4.00354e-09
3.54287e-09
2.65809e-09
1.83384e-09
1.22459e-09
8.87051e-10
6.90798e-10
5.49214e-10
4.44781e-10
3.71712e-10
3.32925e-10
3.36615e-10
3.89086e-10
4.92956e-10
6.46386e-10
8.45077e-10
1.0882e-09
1.32748e-09
1.82146e-09
2.15529e-09
3.42651e-09
1.01586e-08
2.84444e-09
3.22485e-09
2.74396e-09
1.91654e-09
1.11999e-09
7.93149e-10
7.05575e-10
5.94763e-10
4.81284e-10
3.86685e-10
3.06905e-10
2.47238e-10
2.17537e-10
2.2426e-10
2.70824e-10
3.59207e-10
4.90248e-10
6.6996e-10
8.83158e-10
1.14789e-09
1.46143e-09
1.47234e-09
3.42209e-09
2.66499e-09
2.72015e-09
2.31382e-09
1.43354e-09
9.34769e-10
7.87415e-10
7.43028e-10
5.95913e-10
4.7276e-10
3.75435e-10
2.91669e-10
2.19642e-10
1.68723e-10
1.45755e-10
1.54756e-10
1.96986e-10
2.71674e-10
3.80967e-10
5.16664e-10
6.88854e-10
8.37459e-10
1.18502e-09
1.84687e-09
2.53233e-09
2.46709e-09
2.03147e-09
1.49448e-09
1.00797e-09
9.04563e-10
9.39063e-10
5.89164e-10
4.54563e-10
3.61794e-10
2.81021e-10
2.0901e-10
1.49175e-10
1.10399e-10
9.67101e-11
1.09361e-10
1.46297e-10
2.06641e-10
2.82187e-10
3.7789e-10
5.12836e-10
6.46322e-10
1.00894e-09
2.45151e-09
2.28149e-09
2.08785e-09
1.7193e-09
1.2476e-09
1.0784e-09
1.45586e-09
5.27402e-10
3.8525e-10
3.24633e-10
2.60214e-10
1.95984e-10
1.3768e-10
9.37273e-11
6.88492e-11
6.46804e-11
8.01844e-11
1.13222e-10
1.59134e-10
2.20114e-10
2.8736e-10
4.0588e-10
5.58417e-10
2.41273e-09
2.21794e-09
2.16012e-09
1.93449e-09
2.06649e-09
1.7924e-09
2.20261e-09
4.05766e-10
3.24836e-10
2.75976e-10
2.23794e-10
1.72902e-10
1.2353e-10
8.25328e-11
5.46958e-11
4.28122e-11
4.68493e-11
6.58041e-11
9.59095e-11
1.36611e-10
2.00529e-10
2.74445e-10
3.98256e-10
2.39074e-09
2.2324e-09
2.31751e-09
2.39528e-09
4.35178e-09
7.07568e-09
2.46369e-09
3.23487e-10
2.73491e-10
2.19982e-10
1.7707e-10
1.40388e-10
1.03699e-10
7.05868e-11
4.54496e-11
3.13587e-11
2.98226e-11
4.06553e-11
6.26525e-11
9.62327e-11
1.39889e-10
2.12771e-10
2.9596e-10
2.41342e-09
2.28822e-09
2.58465e-09
9.13178e-09
7.3433e-09
9.6895e-09
1.99058e-09
3.73922e-10
2.39087e-10
1.65115e-10
1.28535e-10
1.04196e-10
8.00721e-11
5.62015e-11
3.67817e-11
2.39743e-11
2.01598e-11
2.63451e-11
4.22531e-11
6.77892e-11
1.09252e-10
1.62024e-10
2.36403e-10
2.62174e-09
2.91458e-09
4.86236e-09
1.71624e-08
7.56427e-09
1.04194e-08
1.65978e-09
5.40268e-10
2.57557e-10
1.19501e-10
8.62348e-11
7.0433e-11
5.53848e-11
4.09965e-11
2.793e-11
1.80988e-11
1.39199e-11
1.69796e-11
2.81843e-11
4.74261e-11
7.68014e-11
1.24303e-10
1.74961e-10
3.73865e-09
5.14234e-09
1.88224e-08
1.71733e-08
2.1903e-08
9.41938e-09
2.19729e-09
9.2031e-10
3.22343e-10
9.06818e-11
5.50793e-11
4.49377e-11
3.55117e-11
2.69359e-11
1.92511e-11
1.29276e-11
9.41642e-12
1.05415e-11
1.75827e-11
3.06973e-11
5.15238e-11
8.41708e-11
1.22384e-10
5.58207e-09
1.56564e-08
3.81099e-08
4.82538e-08
3.98665e-08
9.56495e-09
4.30882e-09
1.49852e-09
3.89014e-10
7.48159e-11
3.31273e-11
2.56449e-11
1.98996e-11
1.51586e-11
1.15395e-11
8.23566e-12
5.97083e-12
6.11364e-12
1.00013e-11
1.78517e-11
3.20245e-11
5.56063e-11
7.74236e-11
9.20303e-09
5.02643e-08
6.34782e-08
7.40923e-08
5.531e-08
1.58185e-08
8.83519e-09
2.2113e-09
4.62529e-10
6.99777e-11
1.98474e-11
1.45685e-11
1.05131e-11
7.85725e-12
6.12743e-12
4.70606e-12
3.56987e-12
3.45247e-12
5.44784e-12
1.01396e-11
1.71363e-11
2.98523e-11
4.41104e-11
9.11857e-09
6.03585e-08
1.00808e-07
7.19838e-08
4.8902e-08
2.61644e-08
1.26657e-08
2.89497e-09
5.35372e-10
6.83297e-11
1.18033e-11
7.76666e-12
5.36842e-12
3.65371e-12
2.74439e-12
2.25836e-12
1.86768e-12
1.80119e-12
2.76177e-12
5.28273e-12
9.82875e-12
1.63145e-11
2.3915e-11
9.15971e-09
4.62998e-08
1.36727e-07
4.37061e-08
4.02536e-08
2.99733e-08
1.40972e-08
3.31144e-09
5.6968e-10
6.121e-11
6.80978e-12
3.84091e-12
2.60722e-12
1.58526e-12
1.06705e-12
8.82191e-13
8.06117e-13
8.11284e-13
1.19564e-12
2.28533e-12
4.09458e-12
7.17064e-12
1.14797e-11
8.59204e-09
4.405e-08
1.38516e-07
1.82068e-07
3.57044e-08
3.17692e-08
1.16357e-08
2.9789e-09
4.91241e-10
4.82787e-11
3.68212e-12
1.7959e-12
1.1918e-12
6.56982e-13
3.71801e-13
2.75791e-13
2.69308e-13
3.00299e-13
4.61169e-13
8.98151e-13
1.78718e-12
3.09667e-12
4.50955e-12
8.61015e-09
5.79232e-08
4.99424e-07
7.16967e-07
6.37798e-08
2.99693e-08
8.52652e-09
2.21111e-09
3.28112e-10
2.90992e-11
1.71756e-12
6.98409e-13
4.83942e-13
2.54661e-13
1.20614e-13
7.13341e-14
6.80987e-14
8.83293e-14
1.48317e-13
3.03123e-13
5.85142e-13
9.89328e-13
1.65063e-12
9.7942e-09
5.2153e-08
8.38021e-07
8.37854e-07
1.09683e-07
1.36584e-08
3.76276e-09
1.23968e-09
1.49149e-10
1.11486e-11
5.486e-13
2.05593e-13
1.56227e-13
8.46077e-14
3.61218e-14
1.60612e-14
1.26524e-14
1.90457e-14
3.69208e-14
8.18647e-14
1.6975e-13
3.68811e-13
5.26007e-13
1.14688e-08
8.3494e-08
8.38034e-07
7.84213e-07
5.46825e-08
3.18849e-09
1.50114e-09
4.81375e-10
4.84455e-11
2.53427e-12
9.9358e-14
4.11177e-14
3.57897e-14
2.09899e-14
8.85372e-15
3.15362e-15
1.85174e-15
3.0854e-15
7.84711e-15
2.06647e-14
4.75732e-14
9.66073e-14
1.54113e-13
1.16362e-08
3.62383e-07
7.89778e-07
2.04708e-07
4.4328e-09
3.94183e-10
3.05583e-10
7.5946e-11
4.85607e-12
1.55541e-13
5.52635e-15
4.36129e-15
4.55116e-15
3.03209e-15
1.34564e-15
4.40612e-16
1.95081e-16
3.75123e-16
1.36357e-15
4.82548e-15
1.33261e-14
2.49516e-14
3.52e-14
0.00136139
0.00136317
0.00148113
0.00213184
0.00901868
0.0017965
0.00135885
0.00135651
0.533262
0.373415
0.332554
0.296179
0.936592
0.865632
0.858099
0.892332
0.997978
0.996813
0.999279
0.999279
0.999273
0.999074
0.999279
0.999267
0.914856
0.876989
0.834941
0.789027
0.215368
0.15753
0.0944338
0.0475719
1.38696e-23
-5.30943e-09
-4.28104e-09
-4.56478e-24
5.63248e-06
1.02187e-06
5.77854e-07
3.73146e-06
1.07515e-05
1.1891e-05
1.23489e-05
1.22935e-05
9.78463e-06
7.64607e-06
7.60257e-06
7.18377e-06
5.71899e-07
4.95599e-07
7.46659e-08
7.46667e-08
7.67751e-07
5.54417e-06
1.62436e-05
4.00234e-06
4.33992e-06
5.61719e-05
7.66403e-05
4.9016e-05
4.81852e-05
7.73635e-05
7.66474e-05
7.3919e-05
5.3047e-05
7.75056e-05
7.60716e-05
7.62519e-05
6.3054e-05
7.70124e-05
7.41374e-05
6.09323e-05
1.53486e-05
5.51825e-05
3.56111e-05
1.28245e-06
2.17169e-08
1.83182e-08
2.67672e-09
2.86089e-09
1.72003e-07
1.63455e-07
1.65173e-07
7.46431e-08
1.76964e-07
1.76515e-07
1.66717e-07
1.46948e-07
6.45735e-08
1.02034e-07
1.0906e-07
7.19467e-08
1.53464e-08
1.46903e-08
1.60088e-08
2.83743e-08
4.44037e-09
4.46195e-09
6.57588e-09
9.16217e-09
2.22886e-09
2.48503e-09
2.90089e-09
3.43108e-09
1.12318e-09
1.20445e-09
1.35933e-09
1.5318e-09
6.58258e-10
7.25531e-10
8.06764e-10
8.80141e-10
4.51722e-10
4.93186e-10
5.6028e-10
6.13897e-10
3.44465e-10
3.9383e-10
4.43004e-10
4.86002e-10
2.74909e-10
3.11447e-10
3.5343e-10
4.00736e-10
2.07068e-10
2.34998e-10
2.6901e-10
3.07906e-10
1.44603e-10
1.63293e-10
1.91545e-10
2.24749e-10
9.51969e-11
1.04989e-10
1.22906e-10
1.45409e-10
5.39778e-11
5.97534e-11
6.96661e-11
8.46388e-11
2.76777e-11
3.03643e-11
3.68302e-11
4.33955e-11
1.31015e-11
1.44067e-11
1.55993e-11
1.9617e-11
5.46984e-12
5.28095e-12
6.10209e-12
6.95428e-12
1.82962e-12
1.88373e-12
1.83484e-12
2.1618e-12
5.66896e-13
5.17862e-13
5.2818e-13
5.25228e-13
1.49935e-13
1.28966e-13
1.1481e-13
1.22543e-13
3.04679e-14
2.04559e-14
2.15486e-14
1.82099e-14
0.00210636
0.001445
0.00626939
0.00910998
0.00433706
0.00407378
0.0041102
0.00408128
0.0670417
0.331104
0.0832884
0.0310246
0.0267588
0.0267803
0.0580831
0.0854297
0.0190195
0.0188925
0.0666348
0.00135898
0.00801952
0.0216807
0.0215169
0.0896138
0.38061
0.639984
0.700711
0.696787
0.311777
0.0480587
0.0267581
0.0267806
0.0281206
0.0395425
0.0428823
0.029916
0.0189606
0.099429
0.321854
0.360785
0.288264
0.279548
0.778228
0.983631
0.97344
0.912967
0.88736
0.608583
0.547102
0.550182
0.400436
0.432679
0.566256
0.556361
0.525186
0.258407
0.128898
0.907011
0.906857
0.871994
0.846926
0.922585
0.998417
0.998559
0.998294
0.973984
0.953397
0.97679
0.995858
0.988086
0.996596
0.996779
0.99148
0.967638
0.905164
0.806715
0.999128
0.997382
0.996095
0.977395
0.962628
0.997431
0.998559
0.998559
0.998559
0.998395
0.997073
0.998064
0.998205
0.998175
0.998581
0.998398
0.997435
0.998425
0.998049
0.997523
0.974746
0.960264
0.977763
0.992017
0.995925
0.997352
0.997739
0.997593
0.996386
0.996733
0.998497
0.998635
0.998635
0.998635
0.998635
0.998635
0.998443
0.995029
0.6999
0.550554
0.455913
0.449693
0.484778
0.519224
0.546877
0.591355
0.631709
0.649697
0.658368
0.714869
0.816558
0.9042
0.956537
0.973561
0.964156
0.960168
0.974175
0.0145026
1.3119e-16
1.13651e-16
3.45277e-14
2.51915e-13
6.06988e-14
-3.71988e-09
-1.2014e-09
-8.22506e-11
0.00614904
0.00812031
0.0250812
0.085156
0.173725
0.264273
0.297496
0.31179
0.357201
0.43764
2.82204e-12
1.67361e-07
7.2287e-08
9.24267e-07
2.33375e-06
1.02951e-06
4.71172e-08
-1.39037e-11
3.9464e-12
3.91209e-21
2.70382e-22
8.01147e-21
3.77273e-20
2.882e-20
-2.44539e-22
3.56042e-26
-1.6467e-26
-8.13604e-24
2.22501e-19
5.03945e-06
1.84887e-06
1.51925e-07
2.93298e-06
8.93714e-06
4.45766e-06
1.96485e-07
-1.84296e-13
6.03237e-10
1.14113e-10
5.83277e-10
4.09016e-07
2.26304e-06
3.82744e-25
1.32093e-24
-1.37691e-24
4.86716e-08
1.56965e-06
3.26297e-06
1.23821e-05
2.7462e-06
1.21589e-07
1.8192e-06
9.04232e-06
1.19222e-05
4.41319e-06
4.65532e-27
5.08078e-10
1.19781e-10
2.34328e-08
1.1494e-06
1.69485e-05
5.03071e-05
4.62003e-05
2.55537e-05
4.30336e-06
1.04346e-05
1.78192e-05
1.39041e-06
8.96429e-08
7.93974e-08
7.90447e-08
5.37645e-06
1.08952e-05
7.65573e-06
3.35597e-07
9.95391e-10
1.29654e-10
8.35036e-07
6.72255e-07
1.40307e-05
5.9935e-05
0.000156034
0.000154992
0.000131346
5.37526e-05
2.89986e-05
7.46659e-08
7.46672e-08
1.75834e-07
9.1027e-08
2.24722e-06
5.82817e-06
2.94101e-06
2.74556e-06
8.10247e-06
1.48107e-05
7.42561e-06
6.9113e-07
9.55113e-07
1.09414e-05
3.85892e-05
0.00015259
0.000178806
0.000178863
3.50727e-05
7.46667e-08
7.6461e-08
3.65147e-07
5.64747e-06
1.67049e-05
3.80531e-05
4.11691e-05
4.83058e-05
5.8876e-05
5.03596e-05
7.74858e-06
1.22768e-06
1.66666e-05
5.35447e-06
5.13421e-06
2.98162e-05
0.000178489
0.000178796
2.82725e-05
6.03255e-06
2.6762e-06
3.68265e-07
1.93301e-05
5.36814e-05
6.09364e-05
6.18547e-05
6.21788e-05
6.21693e-05
2.35712e-05
9.19967e-06
3.54749e-05
8.64927e-05
8.64882e-05
1.88507e-05
2.97519e-05
0.000149326
6.89098e-05
1.98014e-05
4.38341e-05
1.1333e-05
4.1669e-06
1.61436e-05
1.90431e-05
3.21775e-05
6.19995e-05
5.81757e-05
1.03139e-05
1.03204e-05
3.73195e-05
8.99134e-05
8.36813e-05
7.564e-05
1.64006e-05
9.19117e-06
1.8081e-05
7.3619e-06
1.74119e-05
7.47498e-05
7.50542e-06
7.07106e-06
5.4024e-06
2.8465e-06
1.72389e-06
1.21667e-05
3.12048e-05
1.03324e-05
1.03111e-05
6.5215e-05
8.22561e-05
2.91866e-05
2.44962e-06
2.58062e-06
3.11831e-06
3.30254e-06
2.89941e-06
8.25768e-06
1.91325e-05
3.97689e-06
2.06456e-07
1.11046e-06
1.58688e-06
1.66296e-06
2.73968e-06
3.51265e-05
4.63426e-05
3.95836e-05
3.11148e-05
1.484e-05
3.0557e-06
3.02803e-06
3.15582e-06
7.95807e-07
7.98333e-07
7.95421e-07
8.16994e-07
4.40866e-09
1.74707e-07
1.5664e-07
1.92898e-07
4.56985e-06
5.44276e-06
5.91709e-06
3.24389e-05
4.62021e-05
4.68619e-05
4.56476e-05
3.32917e-06
3.35053e-06
4.7071e-06
1.03932e-05
1.91001e-05
1.34988e-05
2.75066e-06
1.45822e-06
4.57639e-09
4.20969e-09
1.55152e-07
3.32057e-07
4.45908e-06
5.87195e-06
5.70287e-06
5.91994e-07
7.89648e-06
2.59368e-05
2.44606e-05
1.09947e-05
6.42117e-06
1.03456e-05
2.01039e-05
2.85087e-05
2.77596e-05
1.21094e-05
1.97734e-06
2.38082e-08
8.18075e-09
9.11755e-08
1.96766e-07
2.32862e-08
1.80547e-06
1.29108e-06
5.78794e-07
1.28196e-07
1.28151e-07
1.282e-07
1.76891e-07
1.14217e-05
2.81255e-05
2.85079e-05
2.85063e-05
2.8103e-05
9.26889e-06
1.5903e-06
5.42375e-08
1.8899e-08
6.03419e-08
7.85903e-08
2.32311e-08
8.48722e-09
8.48591e-09
8.49387e-09
3.17402e-07
3.0591e-07
1.35129e-07
9.28257e-08
7.56808e-08
1.14117e-05
2.64775e-05
2.83565e-05
2.37508e-05
1.71455e-06
1.46707e-06
4.72541e-08
2.35057e-08
1.07551e-08
1.04885e-08
1.6536e-08
1.28743e-08
8.48618e-09
8.48694e-09
9.18783e-09
3.51431e-08
1.14038e-07
1.27689e-07
7.59835e-08
3.38306e-08
3.38287e-08
1.78558e-05
9.71668e-06
7.26168e-07
1.46434e-06
2.83572e-08
1.33473e-08
9.94358e-09
1.3621e-08
1.64391e-08
1.56279e-08
1.23145e-08
9.88135e-09
8.01927e-09
7.96897e-09
2.20818e-08
3.36207e-08
3.92932e-08
4.33503e-08
3.50695e-08
3.30662e-08
1.52554e-07
2.96548e-07
2.13226e-06
1.06366e-08
7.64301e-09
8.44459e-09
1.15297e-08
1.12015e-08
1.01991e-08
9.16147e-09
8.53259e-09
8.4234e-09
7.99869e-09
7.99164e-09
1.0557e-08
1.66282e-08
2.51368e-08
3.78311e-08
3.65658e-08
2.72701e-08
2.37286e-08
2.13364e-06
3.46922e-09
3.91023e-09
4.48825e-09
4.76321e-09
4.8218e-09
4.81825e-09
4.92928e-09
5.31927e-09
6.03371e-09
6.98156e-09
8.18766e-09
1.05262e-08
1.44852e-08
1.96394e-08
2.54723e-08
3.38679e-08
1.83679e-08
2.39043e-08
1.93279e-06
1.76055e-09
1.95399e-09
2.10895e-09
2.27247e-09
2.49446e-09
2.8753e-09
3.51757e-09
4.40957e-09
5.41503e-09
6.39923e-09
7.6246e-09
9.91845e-09
1.42239e-08
2.00377e-08
2.49439e-08
2.81558e-08
1.44727e-08
1.43272e-08
1.965e-06
9.8334e-10
1.09496e-09
1.27784e-09
1.53698e-09
1.98786e-09
2.71809e-09
3.81853e-09
5.23791e-09
6.72542e-09
7.59993e-09
8.19224e-09
9.71825e-09
1.37783e-08
2.02154e-08
2.43627e-08
1.5782e-08
1.25795e-08
1.79214e-07
2.0107e-06
6.94509e-10
8.19339e-10
1.04434e-09
1.42774e-09
2.13974e-09
3.33472e-09
4.9832e-09
7.06511e-09
9.46674e-09
1.04643e-08
1.00222e-08
9.88756e-09
1.28495e-08
1.91562e-08
1.88342e-08
1.1027e-08
1.33344e-08
6.96101e-07
2.03142e-06
5.65931e-10
7.19042e-10
9.85476e-10
1.49161e-09
2.47202e-09
4.14654e-09
6.84635e-09
1.07449e-08
1.53816e-08
1.4703e-08
1.29744e-08
1.03286e-08
1.24608e-08
1.47087e-08
1.51787e-08
1.10057e-08
1.92616e-07
1.59773e-06
4.72695e-07
4.66569e-10
6.38101e-10
9.41017e-10
1.56202e-09
2.82723e-09
5.1272e-09
8.77759e-09
1.483e-08
2.55111e-08
2.31144e-08
1.63589e-08
1.13413e-08
1.62367e-08
2.39863e-08
2.35852e-08
1.46242e-08
4.42971e-07
1.59773e-06
1.6692e-07
3.79099e-10
5.41355e-10
8.69869e-10
1.56974e-09
3.06439e-09
5.99316e-09
1.06107e-08
1.98859e-08
4.84156e-08
6.68546e-08
2.0869e-08
1.39706e-08
2.63872e-08
5.5375e-08
6.87514e-08
9.58436e-08
4.69728e-07
1.59815e-06
6.96615e-08
2.73346e-10
4.19261e-10
7.45805e-10
1.47283e-09
3.07135e-09
6.30004e-09
1.14458e-08
2.33641e-08
7.46949e-08
1.65038e-07
7.30635e-08
4.40034e-08
3.09546e-08
8.01594e-08
1.38742e-07
1.43218e-07
3.13143e-07
5.90394e-07
6.2107e-08
1.87171e-10
3.02932e-10
5.75641e-10
1.26471e-09
2.82254e-09
6.1157e-09
1.14932e-08
2.27954e-08
7.739e-08
2.76408e-07
3.91775e-07
3.29991e-07
4.37811e-08
6.83005e-08
1.31343e-07
1.4265e-07
5.3082e-08
1.6121e-07
3.98907e-08
1.0912e-10
1.92962e-10
4.14238e-10
9.8256e-10
2.31993e-09
5.2583e-09
1.05182e-08
1.80463e-08
5.13701e-08
3.67688e-07
1.99381e-06
2.55806e-06
2.6884e-07
3.37286e-08
8.31165e-08
1.3605e-07
5.36706e-08
2.35385e-08
3.35801e-08
5.79404e-11
1.06934e-10
2.4837e-10
6.36184e-10
1.64826e-09
3.94218e-09
8.51364e-09
1.54503e-08
3.51727e-08
2.6242e-07
2.86435e-06
4.58827e-06
2.36122e-06
5.31581e-08
3.47692e-08
6.34185e-08
2.96196e-08
2.35132e-08
2.3485e-08
2.39326e-11
4.70596e-11
1.1933e-10
3.35921e-10
9.39735e-10
2.47895e-09
5.7883e-09
1.1514e-08
2.23067e-08
1.06787e-07
8.868e-07
4.5892e-06
4.58827e-06
9.16234e-07
2.58908e-08
2.84973e-08
2.50456e-08
2.3574e-08
2.39678e-08
8.74115e-12
1.59462e-11
4.17001e-11
1.31324e-10
4.24159e-10
1.27258e-09
3.38536e-09
7.68564e-09
1.55189e-08
3.3024e-08
1.55013e-07
1.38765e-06
4.5892e-06
4.25316e-06
7.61116e-08
2.3929e-08
2.39589e-08
4.96582e-08
2.36864e-08
2.32537e-12
3.88529e-12
9.69363e-12
3.45653e-11
1.34387e-10
4.8714e-10
1.5039e-09
4.06651e-09
8.99089e-09
1.58012e-08
2.36905e-08
1.07247e-07
1.68146e-06
4.26498e-06
4.22445e-06
2.14966e-07
4.06565e-08
4.7312e-08
1.44151e-06
5.7059e-13
6.74721e-13
1.3622e-12
4.71492e-12
2.32229e-11
1.16788e-10
4.72405e-10
1.55948e-09
4.16732e-09
9.03044e-09
1.48874e-08
2.81543e-08
2.80328e-08
1.52716e-06
4.22437e-06
3.19049e-06
1.99834e-07
1.38743e-07
2.06359e-06
1.09552e-13
1.14169e-13
1.74576e-13
4.58431e-13
2.24621e-12
1.48665e-11
8.72481e-11
3.9796e-10
1.39011e-09
3.90082e-09
8.91238e-09
1.66076e-08
2.13581e-08
2.4604e-09
4.32218e-07
2.95553e-06
9.0489e-07
2.64689e-07
2.06042e-06
1.4948e-14
1.32966e-14
1.56084e-14
3.00541e-14
1.0168e-13
6.64609e-13
5.98771e-12
4.12223e-11
1.94264e-10
6.7254e-10
1.78462e-09
3.35957e-09
3.52503e-09
1.55343e-09
1.05367e-10
8.03027e-12
1.17825e-06
5.79707e-07
2.05115e-06
)
;

boundaryField
{
    leftWall
    {
        type            zeroGradient;
    }
    rightWall
    {
        type            zeroGradient;
    }
    lowerWall
    {
        type            zeroGradient;
    }
    atmosphere
    {
        type            inletOutlet;
        inletValue      uniform 0;
        value           nonuniform List<scalar> 
46
(
1.16362e-08
3.62383e-07
7.89778e-07
2.04708e-07
4.4328e-09
0
0
0
0
0
0
0
0
0
0
0
0
3.75123e-16
1.36357e-15
4.82548e-15
1.33261e-14
0
0
0
0
0
0
0
0
0
0
0
0
0
0
0
0
0
0
0
0
0
0
1.17825e-06
5.79707e-07
2.05115e-06
)
;
    }
    defaultFaces
    {
        type            empty;
    }
}


// ************************************************************************* //
