/*--------------------------------*- C++ -*----------------------------------*\
| =========                 |                                                 |
| \\      /  F ield         | OpenFOAM: The Open Source CFD Toolbox           |
|  \\    /   O peration     | Version:  2312                                  |
|   \\  /    A nd           | Website:  www.openfoam.com                      |
|    \\/     M anipulation  |                                                 |
\*---------------------------------------------------------------------------*/
FoamFile
{
    version     2.0;
    format      ascii;
    arch        "LSB;label=32;scalar=64";
    class       volScalarField;
    location    "6";
    object      alpha.galistan;
}
// * * * * * * * * * * * * * * * * * * * * * * * * * * * * * * * * * * * * * //

dimensions      [0 0 0 0 0 0 0];

internalField   nonuniform List<scalar> 
2268
(
1
1
1
1
1
1
1
1
1
1
1
1
1
1
1
1
1
1
1
0.999993
0.99996
0.999959
0.999959
1
1
1
1
1
1
1
1
1
1
1
1
1
1
1
1
1
1
1
0.999999
0.999986
0.99997
0.999987
1
1
1
1
1
1
1
1
1
1
1
1
1
1
1
1
1
1
1
1
1
1
1
1
1
1
1
1
1
1
1
1
1
1
1
1
1
0.999999
0.999999
1
1
1
1
1
1
1
0.998603
0.99862
0.998325
0.997938
0.998151
0.999051
0.999824
0.999996
0.999985
0.999984
0.999998
0.999998
0.999968
0.999963
0.999985
0.999996
1
0.999979
0.999867
0.999872
0.99999
0.999948
0.999383
0.443124
0.458342
0.493457
0.548385
0.619474
0.698086
0.77666
0.847278
0.902424
0.940778
0.967748
0.988032
0.996552
0.996582
0.991034
0.985026
0.968111
0.948385
0.939184
0.935026
0.936215
0.935343
0.932635
0.000458177
0.000909002
0.00263274
0.00757263
0.0196918
0.0451125
0.0878799
0.146649
0.217654
0.290738
0.357352
0.409855
0.445145
0.458691
0.448927
0.423869
0.400096
0.371111
0.337807
0.310635
0.28952
0.275213
0.270671
6.12645e-07
1.76236e-06
5.54416e-06
1.02441e-09
9.46229e-14
-6.0886e-19
-9.2254e-11
-1.2223e-19
-7.24499e-20
-5.26065e-09
-1.51947e-08
6.48749e-05
0.000675329
3.04976e-07
-1.27048e-07
-9.92706e-07
-9.76861e-06
0
-7.36728e-22
2.73777e-23
-8.44592e-23
6.29511e-23
1.7439e-22
0.967056
0.96708
0.96533
0.964804
0.964983
0.965506
0.96594
0.965746
0.965343
0.96509
0.965039
0.966102
0.96792
0.967921
0.967921
0.967922
0.967922
0.967923
0.967923
0.953154
0.968771
0.972573
0.972538
0.972536
0.972626
0.968327
0.956857
0.946421
0.942789
0.937066
0.926236
0.92208
0.923416
0.922413
0.897671
0.901721
0.913365
0.92273
0.764839
0.80967
0.846773
0.851182
0.839898
0.81555
0.7453
0.672265
0.589358
0.496012
0.447433
0.436106
0.453599
0.467311
0.478272
0.482369
0.490042
0.499747
0.510609
0.292105
0.375707
0.454274
0.462472
0.414441
0.281996
0.155407
0.059319
0.0130929
0.000151166
8.89754e-05
0.00130168
4.62442e-06
5.0788e-06
0.00135499
0.0457354
0.0301721
0.015838
0.0278209
0.00038808
0.000398249
0.000381848
0.00107508
0.00127071
1.52279e-06
-2.04975e-21
-1.46762e-06
-3.5949e-06
0.00300312
0.0138343
0.0138514
0.00549703
0.000304401
5.77619e-06
9.06216e-07
1.2194e-06
1.09485e-05
1.06553e-05
0.00045683
0.00241234
0.00375253
0.00433074
0.000622533
1.39564e-05
2.79229e-05
0.000254661
0.00132924
0.0189413
0.0170967
0.0172016
0.00719562
0.00122716
0.00255991
0.000240137
0.00176794
0.00179234
0.000117158
0.00190734
0.0044635
0.00591617
0.00598881
0.0039317
1.40327e-05
0.000157022
0.000788771
0.00147875
0.0206427
0.0121195
0.000117187
0.00205079
0.00171419
0.00463841
0.000241537
0.00452732
0.0040828
0.00117413
0.00122482
0.00372518
0.00432169
0.0060011
0.00496218
0.000687919
0.000258922
0.000773868
0.00159098
0.0200506
0.000285913
7.45832e-05
0.000831435
0.00244314
0.00494507
0.00225405
0.00442154
0.00266599
0.00110037
2.02791e-07
1.43225e-05
9.52227e-05
0.000124235
-7.38426e-17
1.5658e-19
3.75043e-08
3.30204e-07
1.33356e-06
3.97368e-06
1.06444e-05
1.25129e-05
4.09019e-06
1.52188e-07
8.92004e-08
-5.87157e-11
3.51842e-05
0.000125953
0.000183108
0.000174533
7.26772e-05
4.74288e-05
0.000854457
0.000271331
2.71193e-05
0.000260738
0.00158912
0.00175326
0.000154198
-2.0719e-19
-1.77662e-09
-5.92398e-09
7.6912e-05
7.61695e-05
4.20479e-05
0.000189714
0.000203513
0.000109604
0.000134548
0.000531704
0.0013212
0.0013585
0.000549219
0.000261707
0.000653852
0.00319396
0.000387223
0.000370475
0.00025926
0.00176819
0.00212016
0.00211058
0.00190636
0.00179015
0.000557259
4.17684e-05
0.000655068
0.00415474
0.00466318
0.00460219
0.00352956
0.00366052
0.00591199
0.006013
0.00601149
0.00319405
0.00240039
0.00460757
0.00971354
0.000385861
0.000272919
0.000205662
0.000861361
0.00154739
0.00107933
0.00176286
0.00223887
0.00187448
3.62467e-05
0.000621574
0.00412721
0.00466358
0.0045942
0.00302365
0.00253685
0.00492083
0.00601234
0.00601312
0.00601243
0.00486842
0.00299652
0.00554829
9.56558e-05
6.0308e-05
3.38982e-05
8.04526e-06
5.44107e-05
0.000382137
0.00107204
0.0022401
0.00153793
3.53591e-05
0.000162214
0.000927067
0.0011507
0.000817234
0.000308955
0.000265319
0.00030839
0.000671409
0.00169357
0.00234453
0.000827963
9.9625e-05
0.000101229
4.51199e-05
4.05135e-05
7.52219e-06
7.41781e-06
7.42714e-06
2.71683e-05
0.00104539
0.00223944
0.000643151
3.52069e-05
3.53137e-05
3.34512e-05
9.76632e-06
1.406e-05
7.21492e-05
9.66545e-05
2.53899e-05
3.63923e-05
0.00022344
0.000315038
0.000341852
0.000379638
9.08628e-05
0.000154014
6.05702e-05
7.41931e-06
7.41782e-06
7.4132e-06
7.41325e-06
0.000351834
0.000607078
9.04116e-05
7.13369e-05
8.25647e-05
3.86273e-05
9.36867e-06
7.87535e-06
7.92039e-06
8.36811e-06
9.68575e-06
1.01158e-05
1.01863e-05
0.000975096
0.00181797
0.00184085
0.000416137
0.000240646
9.54628e-05
8.2944e-06
3.246e-05
0.000169277
0.000239466
9.45034e-05
9.40734e-05
9.38046e-05
9.5571e-05
0.000134137
0.000120665
3.13206e-05
7.87729e-06
2.3966e-05
8.63634e-05
0.000127078
0.000110335
4.70909e-05
0.0001927
0.00187227
0.00194084
0.00157249
0.00038816
0.00018656
6.60421e-05
0.000466318
0.000656771
0.000657158
0.000570207
0.000435501
0.000440251
0.00052801
0.000552579
0.000552123
0.00029672
3.06708e-05
8.37848e-05
0.000311842
0.000311855
0.000154907
4.79979e-05
0.000392883
0.00102881
0.00127942
0.000851251
0.000402599
0.000402599
0.000183768
0.000441726
0.000657206
0.000656718
0.000565976
0.000307506
0.000236684
0.000270239
0.000366985
0.000381731
0.000349994
0.000112791
5.34383e-05
0.000234654
0.000310878
0.000257189
6.72092e-05
0.000156208
0.000119229
3.14681e-05
3.87986e-06
0.000402589
0.000388107
0.000147484
5.59937e-05
0.00012661
0.000149204
7.3747e-05
3.30908e-05
4.79593e-06
3.32259e-08
8.73668e-09
5.60304e-09
5.76494e-09
3.19233e-05
4.306e-05
3.9518e-05
2.89126e-05
4.88924e-08
9.23479e-06
1.14659e-09
1.9919e-09
5.62423e-08
3.37654e-07
0.000219824
7.84455e-05
2.9692e-05
2.02879e-07
1.07639e-10
1.46732e-09
1.83718e-17
1.25068e-09
-1.06166e-14
1.26383e-08
3.67928e-08
2.3879e-08
9.8673e-09
4.37031e-09
1.20366e-06
1.98174e-23
-9.48147e-09
2.46795e-10
5.21913e-09
1.13348e-09
1.02421e-09
4.17461e-08
1.41917e-06
7.5194e-08
5.78697e-09
7.9271e-09
1.2934e-08
2.26251e-08
2.1836e-08
3.06275e-08
3.1243e-08
6.70771e-09
9.60194e-09
3.57274e-08
4.34773e-08
1.98341e-08
4.44047e-09
5.58297e-07
1.41297e-06
5.25552e-07
2.12902e-12
5.6059e-10
4.64137e-09
4.46383e-08
5.37874e-07
8.94149e-07
4.01554e-08
7.23982e-08
8.31247e-08
7.27427e-08
7.76713e-08
7.9241e-08
6.7639e-08
1.63527e-08
4.23431e-09
1.03988e-08
2.04896e-08
3.53036e-08
2.34779e-08
4.71995e-09
1.91499e-09
1.28985e-07
4.27219e-08
7.70572e-08
2.38611e-07
8.86603e-07
1.04436e-06
3.89503e-07
6.60521e-08
2.49043e-08
5.23948e-08
6.51439e-08
7.43039e-08
6.19463e-08
5.7598e-08
3.66622e-08
8.30718e-09
3.27724e-09
6.09904e-09
1.24399e-08
1.54946e-08
1.25412e-08
5.84217e-09
1.91187e-09
1.90703e-09
3.77326e-09
3.74764e-08
7.12255e-07
8.85449e-07
3.26534e-07
3.49508e-07
8.91728e-08
8.32391e-09
2.01515e-08
3.44379e-08
3.98433e-08
3.07575e-08
2.39674e-08
1.62467e-08
6.03076e-09
2.61104e-09
3.21201e-09
5.54453e-09
5.51593e-09
4.85168e-09
3.81787e-09
3.03733e-09
1.90363e-09
3.81116e-09
1.92854e-07
6.37441e-07
1.67726e-07
3.95393e-07
1.58231e-06
9.31149e-08
3.13204e-09
8.2194e-09
1.74518e-08
2.00858e-08
1.51783e-08
1.12974e-08
7.56462e-09
4.19367e-09
2.22195e-09
2.21505e-09
2.64898e-09
2.79663e-09
2.61111e-09
2.65256e-09
2.52896e-09
1.90096e-09
2.09706e-08
2.35055e-07
2.03458e-07
3.57118e-08
9.99082e-07
1.63835e-06
3.05438e-07
1.60009e-09
3.43645e-09
5.42491e-09
5.71757e-09
5.14673e-09
4.31556e-09
3.38561e-09
2.51489e-09
1.91025e-09
1.57015e-09
1.5822e-09
1.62034e-09
1.65284e-09
1.76403e-09
1.75448e-09
1.8385e-09
2.50995e-08
1.2486e-07
5.98564e-08
1.11035e-08
5.02703e-07
1.67901e-06
1.30275e-06
1.16681e-09
2.11198e-09
2.88372e-09
3.09131e-09
2.94464e-09
2.57372e-09
2.09437e-09
1.63954e-09
1.31128e-09
1.12509e-09
1.02592e-09
1.03504e-09
1.0821e-09
1.18628e-09
1.28546e-09
1.85905e-09
1.35198e-08
4.31814e-08
2.87147e-08
1.0266e-08
2.23929e-08
4.83133e-07
1.30711e-06
8.98691e-10
1.29559e-09
1.64828e-09
1.80272e-09
1.72915e-09
1.5134e-09
1.24727e-09
1.00763e-09
8.28133e-10
7.27895e-10
6.61463e-10
6.59804e-10
6.99647e-10
7.88636e-10
9.15517e-10
1.38644e-09
5.25413e-09
1.15169e-08
9.90666e-09
5.85088e-09
6.70006e-09
8.96551e-08
1.13391e-07
7.14423e-10
8.5669e-10
9.64867e-10
1.02122e-09
9.53437e-10
8.20221e-10
6.77554e-10
5.61316e-10
4.81131e-10
4.12698e-10
3.7863e-10
3.69724e-10
3.94043e-10
4.53555e-10
5.66264e-10
8.3976e-10
1.88549e-09
2.96315e-09
3.14283e-09
2.85132e-09
9.30796e-09
4.79448e-08
1.15189e-07
6.24328e-10
5.78414e-10
6.4068e-10
6.34277e-10
5.62002e-10
4.63349e-10
3.7051e-10
2.94584e-10
2.43427e-10
2.14377e-10
1.93925e-10
1.8372e-10
1.95025e-10
2.28931e-10
2.86889e-10
4.10976e-10
7.45455e-10
1.06204e-09
1.3395e-09
2.70949e-09
7.50015e-09
2.21313e-08
6.14149e-08
5.4907e-10
4.19699e-10
4.23888e-10
3.90772e-10
3.28256e-10
2.59319e-10
1.97965e-10
1.5182e-10
1.19811e-10
9.88394e-11
8.56099e-11
7.91163e-11
8.26583e-11
9.785e-11
1.27669e-10
1.85122e-10
2.93499e-10
4.42648e-10
6.93904e-10
1.63364e-09
3.6902e-09
5.55157e-09
3.9397e-08
4.92029e-10
3.06243e-10
2.91307e-10
2.58787e-10
2.1226e-10
1.62397e-10
1.19388e-10
8.65294e-11
6.26705e-11
4.66876e-11
3.66613e-11
3.13932e-11
3.12088e-11
3.64582e-11
4.86276e-11
7.26651e-11
1.19791e-10
2.0048e-10
3.37193e-10
6.43183e-10
7.71817e-10
1.33813e-09
9.10982e-09
4.49027e-10
2.31281e-10
2.19437e-10
2.01141e-10
1.70602e-10
1.31239e-10
9.33071e-11
6.40931e-11
4.27794e-11
2.86486e-11
1.93837e-11
1.39583e-11
1.18098e-11
1.25104e-11
1.64054e-11
2.54748e-11
4.46497e-11
8.18118e-11
1.44549e-10
2.41181e-10
3.69834e-10
4.00534e-10
2.13227e-09
4.11337e-10
1.86036e-10
1.91231e-10
1.9903e-10
1.89574e-10
1.42861e-10
9.79539e-11
6.34624e-11
3.99178e-11
2.43307e-11
1.48858e-11
9.03522e-12
5.88862e-12
4.72359e-12
5.26817e-12
7.99021e-12
1.45266e-11
2.80337e-11
5.11304e-11
9.20784e-11
1.486e-10
3.24503e-10
7.28103e-10
3.80884e-10
1.65079e-10
1.97003e-10
2.33881e-10
2.43425e-10
1.65162e-10
1.05176e-10
6.41683e-11
4.01215e-11
2.4104e-11
1.4016e-11
7.98829e-12
4.43342e-12
2.60795e-12
1.98227e-12
2.38284e-12
4.04618e-12
7.69659e-12
1.3664e-11
2.45108e-11
4.8634e-11
8.57528e-11
2.0254e-10
3.61085e-10
1.64178e-10
2.33714e-10
3.09457e-10
3.34079e-10
1.96147e-10
1.08107e-10
6.09369e-11
3.80137e-11
2.25956e-11
1.31331e-11
7.43444e-12
3.9983e-12
2.08414e-12
1.13741e-12
8.42389e-13
1.05455e-12
1.76978e-12
2.94561e-12
4.92566e-12
8.17146e-12
1.67205e-11
3.37108e-11
3.44463e-10
1.84195e-10
3.06753e-10
4.39309e-10
4.3606e-10
2.29781e-10
1.04197e-10
5.61609e-11
3.36511e-11
1.94082e-11
1.13007e-11
6.50107e-12
3.5583e-12
1.84197e-12
9.02793e-13
4.63252e-13
3.35784e-13
4.02491e-13
5.74481e-13
8.261e-13
1.29051e-12
2.08364e-12
4.63452e-12
3.28333e-10
2.22562e-10
4.12969e-10
5.97307e-10
4.8754e-10
2.47486e-10
9.89174e-11
5.4926e-11
2.85736e-11
1.53907e-11
8.84591e-12
5.18595e-12
2.94463e-12
1.56899e-12
7.72153e-13
3.5323e-13
1.74782e-13
1.18854e-13
1.38929e-13
1.92316e-13
2.70285e-13
4.6285e-13
8.11153e-13
3.30361e-10
2.84154e-10
5.6039e-10
7.52483e-10
5.04158e-10
2.34766e-10
1.0295e-10
5.60177e-11
2.41112e-11
1.14552e-11
6.34473e-12
3.77108e-12
2.23605e-12
1.23389e-12
6.34376e-13
2.90581e-13
1.23912e-13
6.00271e-14
5.21291e-14
7.39959e-14
1.27614e-13
2.25357e-13
4.18753e-13
3.39366e-10
3.47555e-10
7.28446e-10
8.53701e-10
5.15082e-10
2.32256e-10
1.24723e-10
5.67831e-11
2.11024e-11
8.24229e-12
4.25073e-12
2.51461e-12
1.52505e-12
8.94774e-13
4.85121e-13
2.3297e-13
9.89836e-14
4.17392e-14
2.55108e-14
3.8193e-14
7.20668e-14
1.51202e-13
2.82211e-13
3.56555e-10
4.4064e-10
8.66582e-10
8.9008e-10
5.35651e-10
2.5103e-10
1.47447e-10
5.96004e-11
1.92967e-11
6.12857e-12
2.76935e-12
1.60642e-12
9.77159e-13
5.88404e-13
3.36976e-13
1.74626e-13
7.84403e-14
3.20074e-14
1.39288e-14
2.0552e-14
4.0936e-14
9.49907e-14
1.93584e-13
3.72254e-10
5.27351e-10
9.68088e-10
9.1978e-10
5.25095e-10
2.92688e-10
1.70855e-10
6.62674e-11
1.8839e-11
4.62131e-12
1.74719e-12
9.36801e-13
5.57302e-13
3.35934e-13
2.06064e-13
1.16618e-13
5.73459e-14
2.44681e-14
8.44172e-15
1.0649e-14
2.37307e-14
5.96914e-14
1.18363e-13
3.98634e-10
6.11628e-10
1.05814e-09
9.12735e-10
5.29813e-10
3.37343e-10
1.99091e-10
7.30622e-11
1.87374e-11
3.66529e-12
1.09991e-12
5.54415e-13
3.03715e-13
1.8015e-13
1.12838e-13
6.97115e-14
3.83524e-14
1.71648e-14
6.37606e-15
5.47393e-15
1.00135e-14
2.62916e-14
5.92546e-14
4.15033e-10
6.91195e-10
1.10907e-09
9.11411e-10
5.54658e-10
3.81196e-10
2.19149e-10
7.51195e-11
1.73098e-11
3.02473e-12
6.79664e-13
3.08918e-13
1.62654e-13
8.82855e-14
5.30354e-14
3.53234e-14
2.22526e-14
1.1537e-14
4.30103e-15
2.64154e-15
5.14938e-15
1.21647e-14
2.7733e-14
4.41017e-10
7.51522e-10
1.12782e-09
9.17816e-10
5.92294e-10
4.25665e-10
2.09417e-10
6.27616e-11
1.46263e-11
2.3669e-12
3.96818e-13
1.60097e-13
8.31169e-14
4.08916e-14
2.20482e-14
1.47002e-14
1.05829e-14
6.66278e-15
2.69183e-15
1.10267e-15
1.50449e-15
3.51421e-15
9.68557e-15
4.49134e-10
7.72401e-10
1.12895e-09
9.18534e-10
6.07298e-10
4.5489e-10
1.87851e-10
5.30061e-11
1.16156e-11
1.64894e-12
2.08812e-13
7.85497e-14
3.97218e-14
1.80611e-14
8.32857e-15
4.94275e-15
3.87742e-15
2.97322e-15
1.44098e-15
5.12409e-16
5.16241e-16
1.06847e-15
2.38016e-15
4.62927e-10
7.66625e-10
1.12563e-09
9.06776e-10
6.14956e-10
4.10762e-10
1.48582e-10
3.8874e-11
7.25828e-12
8.92974e-13
9.26412e-14
3.19992e-14
1.67607e-14
7.3712e-15
2.91835e-15
1.38174e-15
1.04911e-15
9.59831e-16
6.42491e-16
2.48339e-16
1.36646e-16
1.86884e-16
4.70254e-16
4.88404e-10
7.4476e-10
1.09885e-09
8.69875e-10
5.95091e-10
2.89513e-10
8.77734e-11
2.26029e-11
3.0666e-12
3.1567e-13
2.84231e-14
9.89342e-15
5.60639e-15
2.54317e-15
9.25977e-16
3.34359e-16
1.97399e-16
2.09733e-16
2.12014e-16
1.12964e-16
4.07611e-17
4.40428e-17
8.03957e-17
5.04805e-10
7.1535e-10
1.06655e-09
7.23709e-10
4.33946e-10
1.28603e-10
3.84153e-11
9.06986e-12
9.76689e-13
6.96752e-14
5.39725e-15
2.0873e-15
1.33278e-15
6.50011e-16
2.3544e-16
6.96792e-17
2.88347e-17
3.13913e-17
4.66131e-17
4.36649e-17
1.38893e-17
8.44217e-18
1.2912e-17
5.45156e-10
6.05078e-10
9.23565e-10
4.78776e-10
1.24487e-10
2.56905e-11
7.40421e-12
1.46965e-12
1.11289e-13
5.12187e-15
4.30075e-16
2.3407e-16
1.76493e-16
9.63757e-17
3.66102e-17
1.00746e-17
3.09113e-18
3.54229e-18
7.85493e-18
1.23388e-17
5.77977e-18
2.09117e-18
1.83067e-18
0.00192006
0.0030248
0.00164483
0.00102096
0.00607795
0.00586321
0.00408074
0.00368911
0.0104618
0.0104633
0.0104633
0.0104647
0.0104618
0.0104616
0.00860281
0.00502514
0.00154707
0.00295385
0.000346274
7.12862e-05
6.05154e-05
6.04213e-05
6.11936e-05
0.000103493
6.04874e-05
8.44323e-05
0.000619044
0.00106637
6.0667e-05
0.000575059
0.00130215
0.00129964
0.000435612
0.000113518
4.50222e-05
1.82162e-11
5.50898e-07
3.3435e-06
1.33113e-06
9.5998e-07
5.46119e-07
9.63888e-07
2.97175e-06
3.62991e-06
8.21819e-07
4.03425e-06
4.48746e-06
4.45274e-06
5.12163e-07
2.33703e-06
2.76716e-06
5.51471e-07
3.93876e-08
1.82897e-08
1.89496e-08
1.57765e-08
4.569e-08
5.39128e-07
1.23526e-06
1.08878e-06
2.2987e-07
2.5134e-06
2.62501e-06
2.48443e-06
3.22067e-07
2.02387e-06
2.48505e-06
2.95248e-06
1.8693e-07
4.14399e-07
9.67876e-07
1.51332e-06
7.64335e-07
9.54912e-08
6.85517e-09
7.05047e-09
1.32175e-07
1.12589e-07
4.12459e-08
1.23334e-08
1.12697e-07
8.07161e-08
8.59854e-08
5.08261e-08
8.91078e-08
1.03693e-07
1.03305e-07
1.03521e-07
4.77514e-08
4.16265e-08
8.4923e-08
1.02475e-07
1.40236e-08
1.36067e-08
2.11433e-08
4.0872e-08
3.16677e-09
3.64549e-09
5.0087e-09
6.85364e-09
1.00616e-09
1.21139e-09
1.40159e-09
1.49567e-09
2.3978e-10
2.55936e-10
2.67446e-10
2.66242e-10
4.72975e-11
5.22848e-11
5.12316e-11
4.58999e-11
5.95148e-12
6.23052e-12
6.46427e-12
6.00326e-12
1.0726e-12
1.31211e-12
1.51073e-12
1.71468e-12
5.60825e-13
7.09497e-13
9.04763e-13
1.14866e-12
3.99969e-13
5.295e-13
7.12114e-13
9.28696e-13
2.85256e-13
3.91383e-13
5.50567e-13
7.50879e-13
1.94538e-13
2.62094e-13
3.81694e-13
5.28348e-13
1.02552e-13
1.46684e-13
2.2202e-13
3.26757e-13
4.76296e-14
6.97318e-14
1.15898e-13
1.6987e-13
1.65566e-14
2.79727e-14
4.23482e-14
7.23045e-14
4.82583e-15
6.53768e-15
1.2043e-14
2.03799e-14
8.16171e-16
1.30888e-15
2.00423e-15
3.87213e-15
1.26017e-16
1.56041e-16
2.55017e-16
4.29397e-16
1.55899e-17
1.63765e-17
2.08966e-17
3.33439e-17
1.75915e-18
1.22199e-18
1.70832e-18
1.84159e-18
0.00101089
0.00100682
0.00100717
0.0016946
0.00178427
0.00158094
0.0013698
0.00160002
0.0105581
0.0171526
7.22047e-05
7.65037e-05
0.000189963
0.00122828
0.00440008
0.00544963
0.00416526
0.00139047
0.00100122
0.00400967
0.00434795
0.0026237
0.00174366
0.0030239
0.0141546
0.0224087
0.0223573
0.0224361
0.00833533
7.29802e-05
7.22695e-05
0.000209184
0.000431675
0.00249039
0.00580203
0.00668334
0.00264131
0.00100082
0.0104638
0.0104642
0.00487381
0.00255733
0.011835
0.01543
0.0146487
0.0199465
0.0220405
0.00954169
0.000191887
0.000252429
0.000206859
0.00388186
0.00673722
0.00673722
0.00673722
0.00360642
0.00100082
0.00489249
0.00619359
0.00663734
0.0066378
0.00171139
0.000611851
0.000402719
0.000400991
0.00176092
0.00441561
0.00308108
0.00153625
0.000391434
0.0014895
0.00318112
0.00673722
0.00660659
0.00393732
0.00302285
6.79119e-05
6.80702e-05
6.79118e-05
8.88224e-05
0.000614959
7.3181e-05
7.21154e-05
0.000550978
0.000908732
0.00079201
0.000939797
0.00057816
0.000449967
0.000670858
0.00128623
0.0014662
0.00242584
0.00135799
0.00173156
0.000181239
0.000387765
0.000437535
0.000261903
0.000132636
0.000102387
8.7753e-05
3.56172e-05
1.61027e-05
0.000292068
0.000696264
0.000733224
0.000564484
0.000511548
0.000592536
0.000759969
0.00078999
0.00103077
0.00378265
0.00128168
0.00128311
0.00128172
0.00128288
0.000701278
0.000428907
0.000284287
3.7007e-05
1.60476e-05
0.00035869
0.00167234
0.00167833
0.00155695
0.000803815
0.000695639
0.00106895
0.00257869
0.00614699
0.00680147
0.000993279
0.000936706
0.000694417
0.00043204
0.00039129
0.000239907
0.000145616
3.94298e-05
1.5994e-05
0.000102363
0.000702619
0.00130865
0.00145536
0.00113738
0.00152356
0.00404975
0.00680147
0.00680147
0.00680147
2.14591e-12
1.18683e-08
1.53051e-12
1.33344e-12
3.60685e-13
2.91423e-13
6.22591e-08
7.38786e-06
1.59397e-05
1.22703e-08
1.43133e-08
2.94453e-05
0.000104955
0.000229704
0.000461159
0.00199614
0.00449304
0.00669739
0.00674789
6.02662e-07
1.39776e-07
1.26897e-07
2.14533e-07
5.74029e-08
2.38001e-09
7.18219e-11
8.40923e-11
9.59881e-08
1.91524e-08
2.75226e-07
6.84255e-08
7.05329e-08
6.70769e-08
2.56564e-05
7.34307e-07
2.89191e-06
0.000119773
0.000646526
3.33373e-06
5.36011e-07
5.14184e-07
6.4639e-07
2.07336e-07
2.64974e-08
2.0906e-09
1.50093e-09
2.12698e-10
3.57337e-09
8.46111e-07
1.35846e-06
8.97933e-07
2.2749e-07
1.01017e-05
2.04179e-06
7.36218e-07
3.13727e-07
3.15599e-07
2.37324e-06
3.37099e-07
3.92198e-07
6.34568e-07
2.59292e-07
8.7216e-09
1.53099e-09
1.50625e-09
5.74903e-09
1.68515e-08
3.50351e-08
8.93175e-08
3.75304e-07
2.34126e-07
6.87971e-07
1.13455e-06
4.35306e-07
3.15599e-07
1.062e-06
1.41586e-08
1.41468e-08
1.41588e-08
2.81814e-08
6.70259e-08
8.49419e-08
1.03211e-07
2.26439e-08
7.09161e-08
8.43998e-08
4.3059e-08
1.17676e-08
1.16881e-08
1.57329e-07
1.10669e-06
2.45765e-06
1.89541e-06
3.78407e-07
2.26267e-06
1.41503e-08
1.42695e-08
4.96654e-08
2.37422e-07
1.02541e-06
1.36777e-06
1.45352e-06
7.94085e-07
2.0367e-07
9.34872e-08
6.68323e-08
3.03703e-08
1.17676e-08
2.98514e-07
1.83495e-06
2.46515e-06
2.46398e-06
6.78945e-07
2.25648e-06
3.01083e-07
2.806e-08
3.64434e-07
1.47138e-06
1.65621e-06
1.65626e-06
1.62571e-06
1.50109e-06
1.3229e-07
2.48902e-08
8.52601e-08
1.14504e-07
2.48332e-07
1.80525e-06
2.45998e-06
2.46423e-06
1.40544e-06
5.04516e-07
2.20401e-06
2.13724e-06
1.66456e-06
1.17437e-06
1.54043e-06
1.65609e-06
1.65666e-06
1.65666e-06
1.11232e-06
2.41315e-08
2.4051e-08
9.64741e-08
3.47712e-07
3.97281e-07
9.15515e-07
2.00259e-06
1.4144e-06
8.65871e-07
8.48132e-07
2.59675e-06
2.95055e-06
2.62638e-06
1.50338e-06
1.04036e-06
1.59656e-06
1.65479e-06
1.62048e-06
1.23664e-07
2.40509e-08
3.36714e-08
7.71942e-08
7.71588e-08
3.17832e-07
4.50587e-07
7.48142e-07
1.11469e-06
1.45758e-06
2.61638e-06
2.61434e-06
2.46944e-06
2.55776e-06
6.96567e-07
3.0398e-07
2.71537e-07
1.54642e-06
7.07501e-07
1.38244e-07
3.75148e-07
1.94115e-07
9.48034e-08
1.06886e-07
8.1927e-07
1.61289e-06
1.61591e-06
1.33238e-06
8.68509e-07
1.5729e-06
1.6284e-06
4.80516e-09
3.35807e-07
8.55981e-07
1.06979e-07
1.04252e-07
3.24373e-07
7.49734e-08
1.29025e-07
5.68063e-07
9.75822e-07
9.74832e-07
8.90814e-07
8.6335e-07
1.175e-06
6.98583e-07
2.14536e-07
2.29289e-07
1.80248e-07
3.99716e-07
4.74175e-09
4.62792e-09
4.69431e-07
1.53559e-07
7.2756e-08
2.74307e-08
2.25101e-08
2.20784e-08
9.006e-08
6.31952e-07
1.18918e-06
1.18923e-06
1.18935e-06
5.49697e-07
3.79705e-08
4.99894e-08
6.69607e-08
6.71839e-08
6.74088e-08
2.23939e-08
1.23928e-08
2.25936e-09
6.23991e-08
7.25212e-08
3.45496e-08
2.28323e-08
1.72096e-08
3.2884e-09
1.95526e-09
8.46299e-08
6.0217e-07
8.47579e-07
1.27506e-07
3.81532e-08
5.09745e-08
1.76291e-07
7.48862e-07
7.39837e-07
6.8343e-08
2.91778e-08
2.93767e-09
1.64759e-09
1.36523e-08
1.0186e-08
3.46436e-10
3.46698e-10
1.96198e-09
1.93237e-09
5.37958e-10
5.42014e-10
1.34076e-08
8.3983e-10
3.51973e-08
1.82522e-08
6.98273e-08
9.44636e-07
1.02591e-06
6.30562e-08
2.50511e-08
8.73608e-09
2.14533e-09
3.99129e-10
3.98056e-10
3.98025e-10
3.5114e-10
3.3147e-10
3.77597e-10
5.33972e-10
7.418e-10
7.45574e-10
8.37377e-10
8.3983e-10
6.09495e-09
6.27823e-09
2.66855e-07
9.79646e-07
3.56195e-08
1.0137e-08
3.85083e-09
1.52402e-09
8.02519e-10
5.27321e-10
4.67035e-10
3.91871e-10
3.3097e-10
3.51025e-10
4.33681e-10
6.62144e-10
9.03699e-10
1.0256e-09
9.15165e-10
2.60377e-09
5.607e-09
2.48899e-08
2.53178e-07
8.03182e-09
3.98988e-09
1.68446e-09
5.81733e-10
4.52819e-10
3.81533e-10
3.08396e-10
2.54632e-10
2.42336e-10
2.69156e-10
3.42382e-10
4.69172e-10
6.36141e-10
7.42681e-10
9.0797e-10
1.93979e-09
4.75213e-09
3.38404e-09
6.89388e-08
1.05726e-09
6.23483e-10
2.89731e-10
1.86425e-10
1.56403e-10
1.33486e-10
1.1712e-10
1.10625e-10
1.33362e-10
1.85974e-10
2.77167e-10
4.08895e-10
5.79036e-10
7.69874e-10
9.25574e-10
1.53983e-09
3.07122e-09
3.10553e-09
2.23743e-08
2.06776e-10
1.00037e-10
6.48382e-11
5.24544e-11
4.52178e-11
4.12136e-11
4.63102e-11
6.08045e-11
9.25711e-11
1.53017e-10
2.58647e-10
3.93276e-10
5.72551e-10
7.9889e-10
9.89374e-10
1.57226e-09
2.14274e-09
1.97559e-09
2.35204e-08
2.86225e-11
1.9033e-11
1.59556e-11
1.50881e-11
1.66964e-11
2.05437e-11
2.76703e-11
4.25767e-11
7.56405e-11
1.46506e-10
2.89332e-10
4.86773e-10
6.51463e-10
8.32699e-10
1.12938e-09
1.79464e-09
1.81067e-09
1.9615e-09
3.41637e-08
5.27303e-12
5.20086e-12
5.95497e-12
7.6677e-12
1.06457e-11
1.60173e-11
2.49124e-11
4.07606e-11
7.40913e-11
1.47485e-10
3.46277e-10
6.42989e-10
9.27439e-10
1.0082e-09
1.51846e-09
1.94817e-09
1.87497e-09
2.37212e-09
3.90448e-08
2.10709e-12
2.8669e-12
4.15986e-12
6.41782e-12
1.04605e-11
1.71547e-11
2.79377e-11
4.49972e-11
7.80318e-11
1.45272e-10
4.22331e-10
8.6009e-10
1.24117e-09
1.53867e-09
1.88947e-09
2.03098e-09
1.92774e-09
5.36808e-09
3.90229e-08
1.52802e-12
2.41213e-12
3.87378e-12
6.57274e-12
1.1551e-11
1.99925e-11
3.30671e-11
5.21096e-11
8.4863e-11
1.62201e-10
5.61505e-10
1.16315e-09
1.57938e-09
1.89526e-09
2.02972e-09
2.04537e-09
2.14602e-09
1.17776e-08
3.40457e-08
1.31637e-12
2.17442e-12
3.75706e-12
6.80755e-12
1.27202e-11
2.32151e-11
3.92256e-11
6.16589e-11
9.80689e-11
2.05979e-10
8.12788e-10
1.59675e-09
2.00118e-09
2.03574e-09
1.82096e-09
1.84286e-09
2.19306e-09
1.12995e-08
1.47491e-08
1.05185e-12
1.84556e-12
3.45751e-12
6.73546e-12
1.32478e-11
2.54227e-11
4.4287e-11
7.16455e-11
1.17418e-10
2.58582e-10
1.09405e-09
2.21469e-09
2.72228e-09
1.96604e-09
1.46942e-09
1.50798e-09
1.60526e-09
3.1082e-09
1.13481e-08
7.79802e-13
1.45422e-12
2.90006e-12
6.1805e-12
1.30387e-11
2.63841e-11
4.79392e-11
8.05704e-11
1.33683e-10
2.95256e-10
1.22544e-09
3.1259e-09
4.59434e-09
4.61179e-09
1.45329e-09
1.45416e-09
1.45545e-09
5.74321e-09
8.63386e-09
4.93494e-13
1.013e-12
2.25957e-12
5.2047e-12
1.17234e-11
2.5087e-11
4.82518e-11
8.22627e-11
1.38018e-10
3.16005e-10
1.36354e-09
4.41125e-09
7.46653e-09
1.14474e-08
1.15023e-08
1.45524e-09
1.11371e-08
3.31949e-08
8.4995e-09
2.73675e-13
6.10942e-13
1.49709e-12
3.75485e-12
9.26562e-12
2.11778e-11
4.38145e-11
7.9628e-11
1.38646e-10
3.51331e-10
1.88926e-09
7.57707e-09
1.04305e-08
1.08593e-08
3.16404e-08
3.95495e-08
5.41435e-08
5.41821e-08
6.55513e-09
1.12907e-13
2.90388e-13
8.00746e-13
2.23708e-12
6.057e-12
1.53539e-11
3.47805e-11
6.9157e-11
1.26477e-10
3.10439e-10
1.4061e-09
8.58464e-09
2.134e-08
2.16383e-08
1.96421e-08
5.21023e-08
6.20065e-08
4.63324e-08
5.4908e-09
3.71204e-14
1.0051e-13
3.09064e-13
9.93297e-13
3.12113e-12
9.02352e-12
2.31499e-11
5.15063e-11
1.00398e-10
1.83951e-10
6.03164e-10
4.19946e-09
2.42547e-08
3.8886e-08
3.84566e-08
3.55733e-08
5.98387e-08
2.73059e-08
4.99095e-09
6.76949e-15
2.14271e-14
7.45663e-14
2.91115e-13
1.1153e-12
3.89835e-12
1.16805e-11
3.0588e-11
6.75072e-11
1.25874e-10
2.28371e-10
8.10578e-10
7.14937e-09
3.31417e-08
6.36698e-08
4.86858e-08
3.6751e-08
6.67372e-09
4.99768e-09
7.82733e-16
2.15474e-15
8.41028e-15
3.95159e-14
2.06653e-13
1.00791e-12
3.94798e-12
1.28204e-11
3.44713e-11
7.77771e-11
1.44649e-10
2.18594e-10
2.34272e-10
7.31136e-09
3.75909e-08
6.3129e-08
3.12366e-08
6.6432e-09
1.70305e-08
4.44269e-17
1.11327e-16
4.87247e-16
2.88207e-15
1.98833e-14
1.36077e-13
7.60272e-13
3.32295e-12
1.13758e-11
3.15617e-11
7.1668e-11
1.3527e-10
1.92288e-10
7.75366e-11
1.87153e-09
4.66169e-08
3.36912e-08
9.41983e-09
1.54764e-08
1.88929e-18
2.86323e-18
8.66725e-18
6.1463e-17
6.07505e-16
6.17343e-15
5.68627e-14
3.66709e-13
1.66944e-12
5.86326e-12
1.60914e-11
3.43427e-11
6.17838e-11
5.79866e-11
4.01434e-12
3.0798e-13
2.76586e-08
2.03134e-08
7.6428e-08
)
;

boundaryField
{
    leftWall
    {
        type            zeroGradient;
    }
    rightWall
    {
        type            zeroGradient;
    }
    lowerWall
    {
        type            zeroGradient;
    }
    atmosphere
    {
        type            inletOutlet;
        inletValue      uniform 0;
        value           nonuniform List<scalar> 
46
(
5.45156e-10
6.05078e-10
9.23566e-10
4.78776e-10
1.24487e-10
0
0
0
0
0
0
0
0
0
0
0
0
3.54229e-18
7.85493e-18
1.23388e-17
5.77977e-18
0
0
0
0
0
0
0
0
0
0
0
0
0
0
0
0
0
0
0
0
0
0
2.76586e-08
2.03134e-08
7.6428e-08
)
;
    }
    defaultFaces
    {
        type            empty;
    }
}


// ************************************************************************* //
