/*--------------------------------*- C++ -*----------------------------------*\
| =========                 |                                                 |
| \\      /  F ield         | OpenFOAM: The Open Source CFD Toolbox           |
|  \\    /   O peration     | Version:  2312                                  |
|   \\  /    A nd           | Website:  www.openfoam.com                      |
|    \\/     M anipulation  |                                                 |
\*---------------------------------------------------------------------------*/
FoamFile
{
    version     2.0;
    format      ascii;
    arch        "LSB;label=32;scalar=64";
    class       volScalarField;
    location    "6";
    object      alpha.water_0;
}
// * * * * * * * * * * * * * * * * * * * * * * * * * * * * * * * * * * * * * //

dimensions      [0 0 0 0 0 0 0];

internalField   nonuniform List<scalar> 
2268
(
2.93806e-07
2.96411e-07
2.79033e-07
1.66756e-07
3.19869e-08
2.45111e-09
8.73335e-10
5.44917e-10
3.95298e-10
2.86581e-10
2.13385e-10
1.68721e-10
1.37864e-10
1.21232e-10
1.1641e-10
1.21893e-10
1.42901e-10
1.75023e-10
2.44606e-10
4.47177e-10
9.42194e-10
1.30801e-09
1.35631e-09
1.81771e-07
1.64601e-07
8.59245e-08
2.59413e-08
2.83767e-09
1.70587e-09
1.45986e-09
1.08964e-09
7.4028e-10
5.04258e-10
4.01012e-10
3.69491e-10
3.65922e-10
3.54586e-10
3.13941e-10
2.8875e-10
2.90118e-10
3.30507e-10
4.3148e-10
6.20386e-10
1.03121e-09
1.29521e-09
1.28244e-09
2.94001e-08
1.70555e-08
1.10164e-08
9.03789e-09
7.94926e-09
7.90813e-09
7.85789e-09
6.02847e-09
2.04681e-09
9.40813e-10
7.79867e-10
7.81488e-10
8.69869e-10
8.93924e-10
8.8511e-10
7.51035e-10
5.80546e-10
5.24012e-10
5.31628e-10
6.86954e-10
9.13894e-10
9.85219e-10
8.5866e-10
2.99436e-10
2.99482e-10
3.18249e-10
3.08429e-10
8.36735e-10
1.11256e-09
1.49511e-09
1.26412e-09
6.55549e-10
4.46986e-10
4.21929e-10
4.75427e-10
5.4559e-10
5.59984e-10
4.97732e-10
4.11258e-10
6.00608e-10
4.45678e-10
4.5924e-10
5.2413e-10
1.31854e-09
6.3275e-10
4.50153e-10
0.000804337
-4.62593e-20
-4.25828e-11
2.43606e-28
1.32858e-27
-2.31532e-28
8.58686e-21
8.4072e-21
9.08365e-21
7.83134e-22
-8.28858e-29
-4.83962e-29
1.24337e-29
-6.59738e-23
7.99403e-19
5.83983e-17
1.74668e-08
7.63321e-09
3.77083e-10
4.51855e-10
7.175e-11
4.44972e-10
4.19226e-10
0.588898
0.576265
0.544325
0.492164
0.422403
0.342174
0.260168
0.184926
0.122001
0.0760205
0.0427945
0.0169458
0.0028993
0.00111144
0.00526518
0.0065317
0.00160089
0.00195215
0.00396922
0.00692591
0.00983416
0.012105
0.0133855
0.99799
0.998132
0.997232
0.993555
0.984645
0.965699
0.932416
0.883482
0.817475
0.743663
0.671902
0.609472
0.55939
0.527484
0.517419
0.488662
0.459565
0.478184
0.512488
0.542651
0.564996
0.57919
0.582557
0.999502
0.999506
0.999514
0.999518
0.99954
0.999538
0.999553
0.999703
0.999783
0.99966
0.999577
0.999652
0.999174
0.995943
0.957148
0.943933
0.949181
0.961427
0.968765
0.973438
0.977725
0.974665
0.970268
0.005756
0.00500302
0.00263123
0.00269756
0.0036713
0.00566825
0.00583259
0.00596653
0.00642535
0.006834
0.0068883
0.00582647
0.00336305
0.00306289
0.00310013
0.00305069
0.00226769
0.00212925
0.00224903
0.000840727
0.000664411
0.000322573
0.000219829
0.000182409
3.60496e-06
-9.00116e-06
-6.18321e-06
-2.25372e-21
1.72327e-22
-9.90634e-23
-4.20321e-20
-8.61664e-07
-7.7451e-07
-3.32492e-08
-7.14793e-07
-2.16113e-07
-3.86069e-07
-1.7003e-06
0.0018761
2.75779e-05
2.75772e-05
2.7578e-05
2.75774e-05
0.0115176
0.0746038
0.143241
0.203242
0.280081
0.325147
0.29833
0.214768
0.165987
0.105939
0.0565776
0.049866
0.0587891
0.0584922
0.399969
0.317318
0.260015
0.281691
0.355041
0.497464
0.669344
0.807544
0.912988
0.980623
0.945793
0.955446
0.918622
0.781862
0.680367
0.458805
0.537446
0.786748
0.514828
0.756213
0.846583
0.892174
0.925501
0.907453
0.897028
0.936916
0.982163
0.991726
0.989337
0.860443
0.903092
0.979664
0.965515
0.936436
0.580863
0.867995
0.949945
0.757774
0.905918
0.991654
0.991625
0.991179
0.991133
0.952872
0.97436
0.991867
0.991868
0.943504
0.761524
0.835881
0.979192
0.989171
0.982999
0.772871
0.780197
0.950267
0.953004
0.910053
0.991444
0.989989
0.989681
0.990956
0.988501
0.991867
0.991867
0.991867
0.821176
0.764974
0.900483
0.989112
0.98918
0.94361
0.793824
0.926194
0.952742
0.953051
0.976918
0.991602
0.991441
0.989842
0.989471
0.991865
0.991868
0.991868
0.991868
0.581223
0.810685
0.95071
0.962541
0.964698
0.808325
0.755878
0.951402
0.953042
0.953048
0.999502
0.999505
0.999421
0.999194
0.99783
0.999793
0.999792
0.999792
0.999792
0.999792
0.999792
0.999792
0.999792
0.999259
0.995895
0.994285
0.994783
0.994786
0.994797
0.9948
0.99481
0.9948
0.994797
0.973055
0.987407
0.994553
0.984852
0.994015
0.98079
0.977976
0.975315
0.968237
0.991933
0.99974
0.999091
0.994961
0.991737
0.991646
0.992814
0.989619
0.984292
0.981448
0.99079
0.994811
0.994767
0.991558
0.46117
0.485471
0.536999
0.553523
0.550124
0.628236
0.711412
0.808391
0.884746
0.903876
0.904831
0.846505
0.81295
0.829976
0.846605
0.8819
0.87046
0.853505
0.846524
0.821854
0.770877
0.595594
0.475167
0.00133287
0.00244905
0.00992184
0.0155313
0.00940343
0.0202512
0.0516421
0.130713
0.274593
0.339864
0.271235
0.16848
0.137104
0.150619
0.186066
0.205709
0.210842
0.190423
0.154155
0.113563
0.0666486
1.95218e-08
7.905e-11
5.42285e-07
5.13063e-07
-2.26025e-20
-8.39632e-21
-1.46823e-21
0.00106918
1.00147e-11
-3.12494e-16
3.66325e-16
-4.83272e-19
-1.52224e-09
1.04813e-20
6.03555e-25
-7.97029e-25
1.11033e-23
9.15693e-20
-1.02172e-07
1.58786e-22
5.81746e-09
9.49246e-07
1.11832e-06
8.52905e-07
1.07417e-05
7.82397e-06
7.30229e-09
-1.67785e-23
-1.79637e-23
1.03191e-06
1.93719e-05
-4.14998e-11
1.32875e-11
1.80177e-09
2.28311e-07
1.696e-06
3.98379e-06
1.27853e-06
7.92641e-07
1.06132e-05
6.95989e-05
0.00014489
0.000910602
0.00162876
0.00369224
0.00202055
0.000238122
0.000191274
4.67542e-05
0.0001027
0.000133814
5.98857e-05
2.78097e-14
1.74309e-17
1.72698e-14
-1.34632e-29
-6.21091e-15
9.19339e-06
7.56494e-05
0.00011035
0.00011764
0.000127332
0.000145149
0.000162604
0.000164895
0.000164893
0.00842198
0.0198512
0.0179437
0.00297051
0.00052146
4.66734e-05
0.000180263
0.00034866
0.000956225
0.00210893
0.000525821
3.87523e-11
9.29577e-09
1.02744e-05
8.45658e-05
0.000174103
9.47545e-05
0.000144412
0.000375717
0.00119897
0.00297581
0.00252569
0.00101755
0.0125467
0.0198513
0.0198512
0.0168222
2.46432e-06
0.000187317
9.44349e-05
0.00208061
0.00455727
0.00455727
0.00446572
0.00320279
0.00280275
0.00292018
0.00259662
0.000826997
4.91378e-05
4.75372e-05
0.000231148
0.0051625
0.01022
0.0101984
0.00987179
0.0154056
0.0198512
0.0198513
0.00906229
3.56128e-06
0.00020573
2.24139e-05
0.00189568
0.00449709
0.00434522
0.00422158
0.00410767
0.00337695
0.000916903
0.000261401
0.000177578
9.65136e-05
3.41488e-05
3.49934e-05
0.00155285
0.00764272
0.0101612
0.0100607
0.0117536
0.00930399
0.00284523
0.000103121
1.35813e-06
0.000207795
2.30364e-05
0.000329236
0.000729626
0.000471769
0.000409737
0.000547482
0.000430339
6.12706e-05
1.96725e-06
3.48293e-07
1.47643e-05
3.32828e-05
0.000155327
0.000792804
0.000553575
0.00134708
0.000744926
0.00107044
1.08751e-06
7.82994e-10
-5.2825e-08
4.71995e-06
5.22566e-05
9.76851e-06
7.44328e-08
7.71833e-08
8.02494e-08
8.40702e-08
8.83627e-08
9.30447e-08
2.23796e-07
2.79674e-07
3.53437e-07
3.7375e-07
2.14685e-05
0.000114743
1.16569e-06
5.5277e-09
3.84472e-09
5.35468e-09
3.58641e-09
5.35423e-09
7.92551e-08
9.32896e-06
2.56583e-05
7.98114e-08
1.3621e-07
7.35119e-08
2.22742e-07
3.46586e-07
3.50403e-07
3.37688e-07
2.61384e-07
3.10934e-07
4.1912e-07
4.51342e-07
7.05262e-07
9.90871e-08
5.3502e-09
3.76944e-06
1.69021e-06
1.30279e-06
5.48255e-07
3.49196e-08
1.54389e-06
1.74544e-05
1.85427e-05
1.81179e-05
1.52804e-07
1.05646e-07
7.34702e-08
2.10325e-07
2.58282e-07
2.14862e-07
1.84974e-07
2.14398e-07
2.80482e-07
3.93499e-07
5.56057e-07
5.63528e-07
2.68221e-08
5.35025e-09
3.62564e-07
2.93655e-06
5.59694e-06
5.08283e-06
4.5114e-06
9.97183e-06
1.5634e-05
6.7641e-06
1.30372e-06
1.54788e-07
1.24334e-07
2.89702e-08
3.3707e-08
5.53246e-08
5.9591e-08
7.05873e-08
1.39668e-07
1.70826e-07
2.0682e-07
3.77211e-07
3.40563e-07
5.32724e-08
7.70285e-09
5.241e-09
2.68819e-06
5.65694e-06
4.05567e-06
7.6048e-06
7.5737e-06
1.47695e-06
2.66938e-06
1.06104e-06
9.94669e-08
8.67364e-08
1.93982e-08
1.01666e-08
1.28772e-08
1.3984e-08
3.55872e-08
6.96078e-08
7.43242e-08
7.20987e-08
9.84119e-08
8.93535e-08
2.84318e-08
5.2835e-09
5.23503e-09
1.05169e-06
3.52997e-06
9.2026e-07
2.42032e-06
2.60725e-07
2.02595e-06
1.16302e-05
1.20945e-06
6.30134e-08
4.86326e-08
1.30514e-08
6.5771e-09
6.977e-09
9.05733e-09
2.11325e-08
2.61861e-08
2.47767e-08
1.98195e-08
1.95645e-08
2.08707e-08
1.32799e-08
4.73751e-09
5.81232e-09
2.01486e-07
3.62146e-07
7.57188e-08
2.4989e-08
2.85212e-09
6.42503e-06
1.16526e-05
2.19194e-06
1.93126e-08
1.16215e-08
6.17976e-09
5.33159e-09
5.48796e-09
6.16145e-09
7.29716e-09
7.93787e-09
7.16342e-09
5.3265e-09
5.10205e-09
5.76233e-09
4.9707e-09
4.0411e-09
5.95055e-09
7.05267e-08
6.11278e-08
3.04388e-08
6.31005e-09
2.12052e-09
2.57788e-06
1.18146e-05
9.37666e-06
1.54029e-08
7.4277e-09
4.15026e-09
4.21796e-09
4.24415e-09
4.0408e-09
3.87553e-09
3.48379e-09
2.78799e-09
2.17498e-09
1.86386e-09
2.09289e-09
2.26521e-09
2.66487e-09
4.09468e-09
2.25129e-08
3.10267e-08
1.20334e-08
4.76878e-09
2.11883e-09
9.25944e-08
5.77953e-07
4.54495e-06
1.27439e-08
4.33894e-09
2.6129e-09
2.86624e-09
2.73896e-09
2.33321e-09
1.91366e-09
1.51805e-09
1.17353e-09
9.5772e-10
8.98182e-10
1.0392e-09
1.29329e-09
1.71385e-09
2.39846e-09
6.13122e-09
8.26356e-09
4.43745e-09
2.71626e-09
2.19406e-09
2.15242e-09
1.21836e-07
1.68441e-07
1.19443e-08
2.8034e-09
1.62295e-09
1.78655e-09
1.6136e-09
1.2956e-09
9.94584e-10
7.48284e-10
5.75761e-10
4.86282e-10
4.84025e-10
5.66556e-10
7.19908e-10
9.68949e-10
1.30364e-09
2.02665e-09
2.41708e-09
1.94802e-09
1.53718e-09
1.8417e-09
6.92934e-09
1.54367e-08
6.14878e-08
1.1539e-08
1.84553e-09
1.03861e-09
1.08041e-09
9.37499e-10
7.47825e-10
5.70623e-10
4.19057e-10
3.17133e-10
2.62876e-10
2.52675e-10
2.82262e-10
3.48554e-10
4.61765e-10
6.15615e-10
8.15138e-10
9.38153e-10
9.31548e-10
9.18723e-10
1.71276e-09
5.90966e-09
1.15656e-08
3.92502e-08
1.11086e-08
1.19973e-09
6.93509e-10
7.15353e-10
6.71788e-10
5.94102e-10
4.68449e-10
3.18648e-10
2.24794e-10
1.6814e-10
1.3954e-10
1.35246e-10
1.5224e-10
1.91527e-10
2.50409e-10
3.21718e-10
3.82512e-10
4.33358e-10
5.17534e-10
1.06889e-09
3.02407e-09
8.40585e-09
2.24329e-08
1.06264e-08
7.8974e-10
5.36079e-10
6.31793e-10
7.61123e-10
8.37407e-10
6.32321e-10
3.46259e-10
2.19906e-10
1.4683e-10
1.01248e-10
7.7012e-11
6.96371e-11
7.5781e-11
9.29633e-11
1.18563e-10
1.49946e-10
1.9292e-10
2.62087e-10
4.84048e-10
7.9971e-10
1.50282e-09
3.10212e-09
1.02988e-08
5.58431e-10
5.04246e-10
9.00454e-10
1.40791e-09
1.49094e-09
9.38504e-10
4.18916e-10
2.53828e-10
1.6023e-10
9.89604e-11
6.18866e-11
4.25481e-11
3.48165e-11
3.54918e-11
4.30414e-11
5.75804e-11
8.26932e-11
1.2167e-10
1.9195e-10
2.90617e-10
3.47166e-10
8.69811e-10
9.93681e-09
4.85143e-10
6.45765e-10
1.48658e-09
2.1899e-09
2.72089e-09
1.18988e-09
4.52371e-10
2.86977e-10
1.82879e-10
1.07516e-10
6.18358e-11
3.66556e-11
2.315e-11
1.71425e-11
1.69952e-11
2.18603e-11
3.26597e-11
5.00146e-11
7.87669e-11
1.13649e-10
2.03893e-10
4.5907e-10
9.62229e-09
4.93841e-10
1.08571e-09
2.13688e-09
4.20929e-09
7.41508e-09
1.24445e-09
4.49022e-10
3.20822e-10
2.0184e-10
1.14356e-10
6.45832e-11
3.65306e-11
2.07479e-11
1.22113e-11
8.53333e-12
8.64998e-12
1.18878e-11
1.77888e-11
2.72663e-11
4.56791e-11
7.25961e-11
1.65852e-10
9.35824e-09
7.33313e-10
1.86496e-09
4.13471e-09
1.46475e-08
1.68293e-08
8.7073e-10
4.34184e-10
3.67741e-10
2.09327e-10
1.10789e-10
6.19043e-11
3.55639e-11
2.0278e-11
1.112e-11
6.15019e-12
4.12657e-12
4.32795e-12
5.85568e-12
8.69529e-12
1.29477e-11
2.28207e-11
4.17765e-11
9.27756e-09
2.12699e-09
7.20119e-09
2.05124e-08
8.43419e-08
1.54213e-08
4.56437e-10
4.66287e-10
3.68988e-10
1.89009e-10
9.61295e-11
5.42542e-11
3.23541e-11
1.90948e-11
1.06004e-11
5.47547e-12
2.98419e-12
1.67834e-12
1.92364e-12
2.61659e-12
3.92052e-12
5.96408e-12
1.12074e-11
9.40507e-09
8.54404e-09
5.15383e-08
2.25398e-07
2.19403e-07
3.66898e-09
4.42775e-10
5.29636e-10
3.37542e-10
1.51757e-10
7.42083e-11
4.29619e-11
2.71689e-11
1.68845e-11
9.74376e-12
5.08427e-12
2.49659e-12
9.93619e-13
6.92247e-13
8.49946e-13
1.15382e-12
1.7959e-12
2.77589e-12
1.05943e-08
2.507e-08
1.49398e-07
5.29333e-07
2.72465e-07
5.16722e-10
5.00598e-10
5.58591e-10
2.84013e-10
1.09357e-10
5.14692e-11
3.08467e-11
2.09557e-11
1.37991e-11
8.43862e-12
4.55695e-12
2.17419e-12
8.90064e-13
2.83553e-13
2.87161e-13
3.82399e-13
5.36775e-13
8.2643e-13
1.27538e-08
3.71994e-08
2.02189e-07
5.72193e-07
1.50103e-07
4.6482e-10
7.24418e-10
5.24881e-10
2.092e-10
7.28708e-11
3.28612e-11
2.02615e-11
1.45596e-11
1.03703e-11
6.78124e-12
3.8848e-12
1.94288e-12
8.07335e-13
1.60076e-13
1.01918e-13
1.21136e-13
1.68891e-13
2.262e-13
1.61442e-08
7.74499e-08
4.04829e-07
4.98796e-07
2.74342e-08
4.63312e-10
9.30113e-10
4.22638e-10
1.31728e-10
4.88955e-11
2.02455e-11
1.2697e-11
9.45364e-12
7.04865e-12
4.93902e-12
3.08111e-12
1.6559e-12
7.27709e-13
1.26653e-13
3.76794e-14
3.70013e-14
4.73645e-14
6.0976e-14
1.81039e-08
1.28437e-07
5.89845e-07
2.22777e-07
5.47583e-10
9.11799e-10
1.24672e-09
4.08997e-10
1.1155e-10
3.253e-11
1.19231e-11
7.17143e-12
5.39413e-12
4.13211e-12
3.14726e-12
2.16653e-12
1.27905e-12
6.29875e-13
1.29272e-13
1.8737e-14
1.12913e-14
1.41896e-14
1.64607e-14
2.37285e-08
1.65531e-07
6.13816e-07
2.00203e-07
5.42573e-10
1.44873e-09
1.70401e-09
4.60277e-10
1.10321e-10
2.33315e-11
6.93624e-12
4.06283e-12
2.89222e-12
2.22654e-12
1.7738e-12
1.35115e-12
8.94869e-13
4.77023e-13
1.47999e-13
1.52819e-14
3.7399e-15
3.87517e-15
4.38712e-15
2.53308e-08
2.03947e-07
6.15019e-07
1.85293e-07
5.48986e-10
2.47541e-09
2.17511e-09
5.3251e-10
1.14357e-10
1.87186e-11
3.97225e-12
2.15732e-12
1.48846e-12
1.0687e-12
8.45176e-13
7.08146e-13
5.40779e-13
3.38181e-13
1.22957e-13
1.50186e-14
1.83188e-15
1.19985e-15
1.30259e-15
3.3105e-08
3.01028e-07
6.2039e-07
1.12303e-07
6.8186e-10
6.59972e-09
2.55005e-09
5.68629e-10
1.13422e-10
1.53672e-11
2.19678e-12
1.06461e-12
7.22439e-13
4.70975e-13
3.45964e-13
3.01431e-13
2.66592e-13
2.02481e-13
9.10433e-14
1.54897e-14
1.43381e-15
3.58662e-16
3.51277e-16
3.34635e-08
4.34848e-07
6.2057e-07
1.60998e-08
3.36959e-09
1.03425e-08
2.75866e-09
5.29524e-10
9.51761e-11
1.16735e-11
1.15312e-12
5.00338e-13
3.28649e-13
1.94683e-13
1.23738e-13
1.01625e-13
1.0061e-13
9.36608e-14
5.53442e-14
1.37331e-14
1.4491e-15
1.40164e-16
9.06387e-17
3.45198e-08
3.80322e-07
3.81531e-07
4.13331e-09
9.90633e-09
1.11022e-08
2.5763e-09
4.36002e-10
6.39699e-11
7.00653e-12
5.38e-13
1.97944e-13
1.33136e-13
7.44934e-14
3.99427e-14
2.74804e-14
2.78466e-14
3.17667e-14
2.68727e-14
9.93981e-15
1.41329e-15
8.72892e-17
2.19634e-17
2.86974e-08
2.04956e-07
2.34134e-07
4.12935e-09
1.34189e-08
7.62948e-09
1.54235e-09
2.93147e-10
3.03455e-11
2.74896e-12
1.77528e-13
6.01874e-14
4.32293e-14
2.451e-14
1.16992e-14
6.19376e-15
5.48598e-15
7.44262e-15
9.01231e-15
5.61765e-15
1.03163e-15
7.64566e-17
7.03025e-18
2.42663e-08
1.88601e-07
2.36614e-07
4.12714e-09
1.35705e-08
3.51956e-09
6.94649e-10
1.2539e-10
1.06459e-11
6.58521e-13
3.40924e-14
1.25888e-14
1.00709e-14
6.09038e-15
2.83008e-15
1.19013e-15
8.19359e-16
1.22912e-15
2.09261e-15
2.25847e-15
6.19356e-16
6.50073e-17
4.64408e-18
2.32839e-08
6.04567e-08
1.3951e-07
6.20998e-09
4.28567e-09
5.93611e-10
1.17059e-10
1.87662e-11
1.18286e-12
4.88643e-14
2.21657e-15
1.41485e-15
1.31622e-15
8.91878e-16
4.33534e-16
1.66616e-16
8.80113e-17
1.50877e-16
3.74715e-16
6.45983e-16
3.4567e-16
4.89026e-17
3.18169e-18
0.993905
0.99139
0.993737
0.99373
0.985348
0.982609
0.972002
0.964794
0.49814
0.538049
0.553597
0.582367
3.51714e-10
4.06752e-10
1.34028e-17
-1.05498e-05
8.24595e-05
9.5097e-05
8.35223e-05
0.000238028
0.000552819
0.000695244
0.000455718
0.000260627
0.000711089
0.00249438
0.00189436
0.0002696
0.000756808
0.00250739
0.00249445
0.00140754
4.35945e-05
0.000637839
0.000781551
0.000172526
4.91675e-06
1.59189e-05
4.27045e-05
8.1681e-06
1.02924e-05
1.03301e-05
1.96892e-05
1.70928e-05
2.59505e-05
2.32912e-05
1.74474e-05
1.67721e-05
1.20521e-05
1.74673e-06
6.8079e-07
6.99315e-07
6.342e-07
6.68793e-07
6.58078e-07
2.38258e-06
2.35741e-07
2.35742e-07
5.13864e-06
1.31675e-05
2.35741e-07
3.89398e-06
1.1103e-05
1.3531e-05
1.03315e-06
7.50602e-06
1.13461e-05
1.08449e-05
4.38625e-06
1.26224e-05
1.49652e-05
1.23263e-05
1.20511e-05
1.40301e-05
1.49256e-05
1.42499e-05
1.04222e-07
1.05064e-07
3.50029e-08
2.58378e-06
1.15356e-07
1.02815e-07
3.73268e-08
2.69758e-08
5.76974e-08
5.93528e-08
3.34055e-08
2.80067e-08
3.09722e-08
2.74143e-08
1.13625e-08
2.9327e-09
4.11595e-09
4.73542e-09
3.64694e-09
2.13092e-09
1.14543e-09
1.26393e-09
1.6184e-09
1.8434e-09
5.87107e-10
7.26657e-10
1.11724e-09
1.57856e-09
2.11219e-10
2.54658e-10
3.08621e-10
3.67971e-10
5.77868e-11
6.78643e-11
8.09495e-11
8.70125e-11
1.42066e-11
1.58239e-11
1.82402e-11
2.0331e-11
3.4318e-12
4.02156e-12
4.45507e-12
4.71153e-12
9.79685e-13
1.05097e-12
1.12838e-12
1.26192e-12
2.59399e-13
2.59918e-13
2.68335e-13
2.70178e-13
6.50907e-14
6.12596e-14
6.02642e-14
6.08608e-14
1.6968e-14
1.49728e-14
1.3915e-14
1.3274e-14
4.30437e-15
3.76056e-15
3.34367e-15
3.26627e-15
1.12969e-15
9.53796e-16
9.33496e-16
9.02189e-16
3.20755e-16
2.7064e-16
2.36859e-16
2.62296e-16
8.18463e-17
6.22944e-17
6.1761e-17
6.26384e-17
1.69761e-17
1.47227e-17
1.23205e-17
1.34887e-17
3.46854e-18
2.6316e-18
2.42865e-18
2.19553e-18
6.19197e-19
4.69423e-19
3.85193e-19
3.72973e-19
1.18521e-19
6.05885e-20
5.66646e-20
4.35633e-20
0.993742
0.991458
0.980266
0.977578
0.991856
0.991868
0.991868
0.984856
0.886668
0.578334
0.907241
0.958461
0.961804
0.946602
0.856954
0.824194
0.95143
0.949904
0.898716
0.944584
0.895092
0.888864
0.940147
0.915261
0.616043
0.322628
0.208484
0.182041
0.606436
0.942822
0.943712
0.94064
0.939898
0.939891
0.936133
0.924184
0.931337
0.860059
0.555976
0.509526
0.567948
0.581593
0.193607
7.66773e-20
-7.63804e-24
1.19152e-19
0.0102107
0.288748
0.413051
0.404933
0.565528
0.55767
0.434842
0.436342
0.449211
0.718511
0.838553
1.97994e-12
1.38947e-07
5.2234e-07
1.73388e-05
1.11568e-05
3.25987e-05
3.62521e-05
7.83868e-24
2.22044e-18
0.00146652
0.000800802
0.00020051
0.00733012
0.00119182
9.89025e-22
9.7917e-22
0.00432978
0.09275
0.236822
0.000645899
0.00211351
0.00326588
0.00181696
6.3712e-05
9.58824e-05
0.000772563
0.000428931
0.000248141
0.00012756
4.20652e-05
1.81151e-08
7.46742e-07
1.162e-05
5.95151e-12
-6.40265e-29
1.15978e-22
2.73293e-09
2.58384e-08
0.00186491
0.0226201
0.0349689
0.0186606
0.00621551
0.00310885
0.00220924
0.00217488
0.0024007
0.0034691
0.00268823
0.000916379
0.000414128
0.000161036
0.000288067
0.000345659
0.00028108
0.00026661
0.000814473
0.00287196
0.0280004
0.036592
0.0366034
0.0331867
0.0184161
0.014043
0.0123887
0.0140561
0.017194
0.0171973
0.0137142
0.00197996
1.3422e-07
1.33883e-07
0.000830851
0.00217685
0.00238314
0.0025379
0.00201361
0.0080429
0.0183988
0.0182541
0.012287
0.0109911
0.00912461
0.00831456
0.0101137
0.0159533
0.0172133
0.0140851
0.00262324
2.02761e-07
1.75474e-07
0.00106259
0.0025379
0.0025379
0.0025379
7.43225e-05
-1.82657e-10
1.82263e-12
8.07945e-12
2.43448e-12
2.28433e-13
3.02662e-13
4.15542e-13
4.59429e-05
0.000239857
0.000130673
0.000283673
0.000797269
0.000447781
1.62687e-07
0.000601407
0.00213358
0.0025379
0.00253201
3.08485e-06
1.71778e-08
1.89697e-06
3.19962e-06
1.76078e-06
1.32281e-07
5.85452e-09
5.84918e-09
3.56038e-09
3.43982e-09
8.71371e-07
9.61843e-07
1.007e-06
0.00013174
9.02538e-07
2.40966e-05
0.000124631
0.000265034
0.000365724
9.70986e-06
1.12244e-08
6.03904e-06
9.38497e-06
5.04784e-06
1.4649e-06
6.86901e-08
2.98045e-08
8.66628e-08
1.23291e-06
1.23673e-05
3.25059e-05
1.43797e-05
1.62555e-05
3.19217e-07
4.61001e-06
4.71122e-06
1.10009e-06
2.10346e-06
6.517e-06
9.66213e-09
4.802e-06
9.26796e-06
6.33961e-06
1.61423e-06
2.66234e-07
2.72169e-08
1.56637e-06
7.22487e-06
7.15571e-06
3.34583e-05
3.34684e-05
1.13725e-05
2.99671e-07
9.35319e-07
8.40453e-07
1.01182e-06
7.3573e-06
5.9128e-07
5.63912e-07
1.39074e-07
1.39086e-07
1.92967e-07
9.52824e-08
2.7369e-08
2.70372e-08
4.5903e-06
7.83073e-06
5.56438e-06
3.54812e-06
9.44743e-06
1.55518e-05
2.98371e-06
7.45703e-07
4.95908e-07
1.28307e-06
1.79856e-05
1.73398e-06
2.47744e-06
1.39609e-07
1.39074e-07
1.79847e-07
1.02004e-06
1.36347e-06
9.23608e-07
3.66925e-06
7.84319e-06
7.83412e-06
2.82663e-06
2.80298e-06
8.83241e-06
7.65826e-06
5.17301e-06
3.84559e-07
3.37018e-07
1.79276e-05
2.98745e-05
3.13917e-05
1.3428e-05
1.15038e-05
9.8574e-06
4.16648e-06
3.84565e-06
1.74099e-06
4.24683e-07
1.62623e-06
3.82152e-06
4.55848e-06
7.57723e-06
2.39594e-06
1.81728e-06
1.13092e-06
3.33838e-07
3.35142e-07
1.77587e-05
3.90086e-05
4.31999e-05
4.32073e-05
4.07412e-05
3.49319e-05
2.23595e-05
2.4966e-06
5.72802e-08
5.72624e-08
5.72391e-08
1.47909e-06
8.98057e-06
1.44362e-05
9.04542e-06
2.46883e-07
2.07967e-07
2.07941e-07
1.34642e-05
1.8315e-05
6.95391e-06
4.03246e-05
4.32017e-05
4.32036e-05
4.32017e-05
3.0447e-05
6.23907e-08
5.81878e-08
5.72792e-08
5.72984e-08
3.33591e-06
1.61768e-05
3.70012e-05
2.36348e-05
4.50008e-06
3.04008e-06
1.23009e-05
1.77061e-05
1.48533e-05
6.54518e-07
3.17686e-06
4.26067e-05
4.32017e-05
3.87894e-05
4.02783e-06
5.18948e-06
2.17749e-06
1.63458e-06
1.1215e-07
1.50295e-06
1.51009e-05
3.70068e-05
3.52932e-05
3.52069e-05
2.54205e-05
9.2323e-06
1.1133e-05
1.79453e-06
6.69819e-07
3.59556e-08
5.67805e-06
3.63771e-05
5.07833e-06
3.91215e-07
1.71306e-06
4.35698e-06
3.69244e-06
2.55363e-06
2.6258e-06
4.48755e-06
4.00112e-06
7.19681e-06
5.58041e-06
4.79734e-06
2.82724e-06
9.88072e-07
6.65754e-07
1.31281e-06
4.06548e-08
1.9288e-09
1.95344e-09
1.92877e-09
6.03954e-08
1.72715e-07
2.35605e-06
3.33788e-06
2.45299e-06
6.92718e-07
1.80255e-06
2.38241e-06
5.16348e-07
1.33518e-07
1.37982e-07
1.37532e-07
9.07916e-08
2.68964e-07
2.68441e-08
5.69697e-08
1.05969e-08
1.92922e-09
1.99988e-09
1.52619e-07
9.78885e-08
4.1625e-10
4.1918e-10
4.1625e-10
4.19191e-10
2.20529e-07
9.3598e-07
3.15198e-07
1.66975e-07
3.04093e-07
2.74575e-07
9.07239e-08
1.25659e-07
2.59649e-08
4.09318e-08
3.37573e-08
1.08977e-08
5.88184e-09
5.21168e-09
1.73895e-09
1.7494e-09
6.97237e-10
4.63234e-10
4.35054e-10
4.08859e-10
4.03173e-10
9.11845e-10
1.58944e-07
3.78235e-07
4.25347e-07
1.83003e-07
7.92426e-08
2.54212e-08
4.77922e-08
4.68803e-08
2.42861e-08
1.08203e-08
5.80162e-09
4.03776e-09
3.17737e-09
2.35331e-09
1.70268e-09
1.60906e-09
3.2772e-09
2.69707e-09
2.33662e-09
2.34045e-09
9.3297e-08
4.25452e-07
2.74844e-07
7.83901e-08
6.72414e-09
3.61188e-08
2.82218e-08
1.42518e-08
7.20357e-09
4.82212e-09
3.66152e-09
2.76641e-09
2.23639e-09
2.08419e-09
2.38887e-09
3.02661e-09
3.67867e-09
3.67824e-09
2.49865e-09
2.28169e-09
2.53313e-07
2.81986e-07
8.51876e-08
6.26948e-09
9.69804e-09
6.9536e-09
2.96105e-09
2.37296e-09
2.03383e-09
1.61628e-09
1.35557e-09
1.3512e-09
1.73366e-09
2.49947e-09
3.65316e-09
5.19547e-09
6.59755e-09
6.00441e-09
2.28994e-09
4.96939e-08
2.23746e-07
8.70003e-08
1.46209e-09
1.01716e-09
9.86317e-10
9.52559e-10
8.18958e-10
6.92665e-10
6.10951e-10
6.58252e-10
8.77302e-10
1.32779e-09
2.13696e-09
3.56952e-09
5.89533e-09
8.4472e-09
8.7932e-09
3.50374e-09
8.27345e-09
1.16289e-07
1.00905e-07
3.77092e-10
3.5362e-10
3.22598e-10
2.78773e-10
2.31556e-10
2.22668e-10
2.6853e-10
3.91162e-10
6.50211e-10
1.12969e-09
1.89916e-09
3.19726e-09
5.29651e-09
7.94612e-09
7.76934e-09
5.98733e-09
1.7451e-08
1.40516e-07
1.99435e-07
9.55556e-11
9.19953e-11
8.27459e-11
7.43852e-11
7.94703e-11
9.13947e-11
1.11577e-10
1.76555e-10
3.96084e-10
9.42013e-10
1.92146e-09
3.35695e-09
4.85244e-09
6.38497e-09
5.51439e-09
1.81431e-08
5.58285e-08
2.02585e-07
2.02449e-07
2.14097e-11
2.10774e-11
2.11013e-11
2.31959e-11
1.89445e-11
1.6287e-11
2.46922e-11
6.45128e-11
2.18237e-10
6.85064e-10
2.05061e-09
4.32216e-09
6.00116e-09
5.54688e-09
5.51519e-09
3.28092e-08
1.44384e-07
2.02561e-07
2.02775e-07
5.3782e-12
5.51049e-12
5.58076e-12
3.44885e-12
2.41546e-12
3.18893e-12
8.00253e-12
2.87167e-11
1.15581e-10
3.27738e-10
2.05448e-09
5.83339e-09
8.98883e-09
7.96083e-09
5.54184e-09
4.86144e-08
1.4752e-07
1.22665e-07
2.01986e-07
1.24666e-12
1.33963e-12
1.29787e-12
5.67561e-13
5.6061e-13
1.2177e-12
3.92221e-12
1.47595e-11
5.78418e-11
1.81536e-10
2.19869e-09
8.02854e-09
1.33678e-08
1.22302e-08
8.72714e-09
3.90986e-08
1.40311e-07
8.13396e-08
2.0279e-07
2.95252e-13
2.91835e-13
2.6946e-13
1.53057e-13
2.50573e-13
7.43371e-13
2.48088e-12
9.19967e-12
3.83249e-11
1.71277e-10
2.88973e-09
1.13029e-08
2.39898e-08
2.5499e-08
1.10484e-08
9.0362e-09
2.8404e-08
5.19294e-08
1.17283e-07
5.59852e-14
5.21489e-14
5.42456e-14
8.17828e-14
1.78079e-13
5.7582e-13
1.94948e-12
7.56373e-12
3.73912e-11
1.90223e-10
3.37504e-09
1.45714e-08
3.34594e-08
4.0081e-08
8.09263e-09
4.30651e-09
9.78855e-09
1.99622e-08
7.61223e-08
1.34592e-14
1.28009e-14
1.80735e-14
4.68072e-14
1.55107e-13
5.26548e-13
1.74405e-12
6.88903e-12
3.72972e-11
2.10706e-10
1.78434e-09
1.08783e-08
3.56265e-08
4.59948e-08
2.16304e-08
4.30124e-09
4.30368e-09
2.42535e-08
1.09419e-07
3.20208e-15
4.13448e-15
9.38508e-15
3.15732e-14
1.1859e-13
4.49663e-13
1.57467e-12
5.17925e-12
2.08347e-11
8.46567e-11
3.14367e-10
2.6841e-09
2.1464e-08
4.59927e-08
4.64391e-08
4.30104e-09
4.31946e-09
2.28448e-08
1.14339e-07
1.0156e-15
1.62324e-15
4.80576e-15
1.88197e-14
7.92755e-14
3.14518e-13
1.14214e-12
3.71034e-12
1.27099e-11
5.88447e-11
2.68645e-10
1.44178e-09
4.63504e-09
3.02867e-08
4.7801e-08
3.37621e-08
4.33272e-09
1.20471e-08
9.02985e-08
2.78462e-16
5.58108e-16
1.98024e-15
8.72482e-15
4.00009e-14
1.76118e-13
6.90308e-13
2.42245e-12
8.66898e-12
4.29422e-11
1.93597e-10
5.71214e-10
1.84336e-09
1.1848e-08
3.73979e-08
4.55116e-08
3.11735e-08
1.65714e-08
6.49266e-08
7.43344e-17
1.48375e-16
5.56648e-16
2.75538e-15
1.47065e-14
7.43744e-14
3.30743e-13
1.25429e-12
4.36841e-12
1.60008e-11
8.47753e-11
4.12664e-10
1.03777e-09
1.6878e-09
1.30231e-08
4.22455e-08
4.10836e-08
9.3327e-08
6.26596e-08
1.36984e-17
2.59652e-17
9.31187e-17
5.21217e-16
3.34348e-15
2.0705e-14
1.1004e-13
4.993e-13
1.85476e-12
6.07173e-12
2.39125e-11
1.24301e-10
6.10576e-10
1.46881e-09
2.25172e-09
9.71298e-09
4.0735e-08
1.14104e-07
3.06378e-07
2.29785e-18
2.82457e-18
8.52742e-18
4.67382e-17
3.90332e-16
3.45261e-15
2.47373e-14
1.41719e-13
6.4972e-13
2.44293e-12
7.9807e-12
2.65722e-11
1.24576e-10
7.27367e-10
1.68112e-09
8.00596e-10
1.40539e-08
1.19148e-07
3.40504e-07
2.96506e-19
2.6927e-19
5.51472e-19
2.665e-18
2.23176e-17
2.59557e-16
2.74481e-15
2.23294e-14
1.36903e-13
6.4603e-13
2.39877e-12
7.27283e-12
2.13721e-11
9.72457e-11
4.60945e-10
7.92868e-10
2.26389e-10
7.28957e-08
3.40178e-07
3.04153e-20
2.10327e-20
2.2792e-20
6.94721e-20
5.32069e-19
6.38769e-18
9.46252e-17
1.11599e-15
9.45987e-15
6.04605e-14
2.83482e-13
9.58396e-13
2.65097e-12
3.80825e-12
7.26099e-12
2.0879e-10
2.2368e-10
2.26389e-10
2.43264e-07
)
;

boundaryField
{
    leftWall
    {
        type            zeroGradient;
    }
    rightWall
    {
        type            zeroGradient;
    }
    lowerWall
    {
        type            zeroGradient;
    }
    atmosphere
    {
        type            inletOutlet;
        inletValue      uniform 0;
        value           nonuniform List<scalar> 
46
(
2.32839e-08
6.04567e-08
1.3951e-07
6.20998e-09
4.28567e-09
0
0
0
0
0
0
0
0
0
0
0
8.80114e-17
1.50877e-16
3.74715e-16
6.45983e-16
3.4567e-16
0
0
0
0
0
0
0
0
0
0
0
0
0
0
0
0
0
0
0
0
0
0
2.2368e-10
2.2639e-10
2.43264e-07
)
;
    }
    defaultFaces
    {
        type            empty;
    }
}


// ************************************************************************* //
