/*--------------------------------*- C++ -*----------------------------------*\
| =========                 |                                                 |
| \\      /  F ield         | OpenFOAM: The Open Source CFD Toolbox           |
|  \\    /   O peration     | Version:  2312                                  |
|   \\  /    A nd           | Website:  www.openfoam.com                      |
|    \\/     M anipulation  |                                                 |
\*---------------------------------------------------------------------------*/
FoamFile
{
    version     2.0;
    format      ascii;
    arch        "LSB;label=32;scalar=64";
    class       volScalarField;
    location    "6";
    object      alpha.water;
}
// * * * * * * * * * * * * * * * * * * * * * * * * * * * * * * * * * * * * * //

dimensions      [0 0 0 0 0 0 0];

internalField   nonuniform List<scalar> 
2268
(
2.93849e-07
2.96184e-07
2.80004e-07
1.62314e-07
2.87993e-08
1.8638e-09
8.14329e-10
5.30213e-10
3.85692e-10
2.79464e-10
2.07399e-10
1.66111e-10
1.36763e-10
1.21656e-10
1.18078e-10
1.24653e-10
1.46071e-10
1.77197e-10
2.50498e-10
4.63255e-10
9.59601e-10
1.30862e-09
1.35509e-09
1.82078e-07
1.6444e-07
8.65955e-08
2.60985e-08
2.84921e-09
1.68876e-09
1.40045e-09
1.05215e-09
7.20033e-10
4.96793e-10
3.95292e-10
3.68843e-10
3.66674e-10
3.55809e-10
3.1763e-10
2.95808e-10
2.94331e-10
3.35759e-10
4.39428e-10
6.35578e-10
1.04069e-09
1.28954e-09
1.27003e-09
3.14165e-08
1.94664e-08
1.24311e-08
9.45776e-09
7.88239e-09
7.83158e-09
7.82131e-09
5.63709e-09
1.86776e-09
8.98316e-10
7.77197e-10
7.86645e-10
8.73477e-10
8.89126e-10
8.78026e-10
7.32922e-10
5.82868e-10
5.25575e-10
5.33425e-10
6.97555e-10
9.27062e-10
9.79514e-10
8.41651e-10
7.09385e-10
4.52115e-10
2.92197e-10
3.27002e-10
1.00643e-09
1.28778e-09
1.63819e-09
1.31409e-09
6.58781e-10
4.51192e-10
4.27832e-10
4.84932e-10
5.44174e-10
5.43832e-10
4.63684e-10
4.15983e-10
1.27709e-09
5.90365e-10
4.45727e-10
5.30411e-10
1.26094e-09
5.97724e-10
4.36239e-10
-1.4046e-10
-5.92715e-28
-3.02731e-11
2.43606e-28
1.46353e-28
-2.59598e-27
1.34429e-27
4.31146e-20
8.51636e-21
1.34193e-22
-8.28858e-29
-4.83962e-29
4.3032e-23
-3.34215e-22
1.09225e-18
1.28345e-16
2.6541e-08
2.9844e-10
5.80233e-11
3.00881e-10
4.96632e-11
4.28601e-10
5.81691e-11
0.551264
0.535994
0.500844
0.445794
0.374705
0.296096
0.219053
0.151256
0.0970948
0.0590777
0.0317318
0.0111682
0.00270258
0.00305932
0.0088143
0.0100105
0.00504778
0.00659822
0.0109721
0.0158048
0.0204614
0.0241152
0.0267275
0.997401
0.997135
0.995076
0.988951
0.975705
0.949806
0.908375
0.852014
0.781744
0.708571
0.641836
0.589278
0.554165
0.540952
0.546176
0.528977
0.514998
0.539897
0.573043
0.600481
0.622211
0.636395
0.641035
0.999509
0.999509
0.999508
0.999511
0.999493
0.999399
0.999463
0.999695
0.999781
0.999639
0.999567
0.999607
0.999132
0.997993
0.956906
0.948647
0.954631
0.967445
0.974292
0.978921
0.982742
0.97986
0.976086
0.00564075
0.00501888
0.00263347
0.00269322
0.00354526
0.00563081
0.00580824
0.00594616
0.00640266
0.0068141
0.00686526
0.00580238
0.00333978
0.00304573
0.00307476
0.00303842
0.00226491
0.00213019
0.00224782
0.000722219
0.000627021
0.00032991
0.000221803
0.000216858
7.67305e-05
1.70727e-10
1.69108e-21
2.20934e-21
1.72327e-22
-9.90634e-23
-1.31617e-20
-7.75651e-07
-7.55078e-07
-1.95786e-07
-6.20245e-07
-1.88776e-07
-3.18865e-07
-1.52624e-06
0.00770619
0.000148997
2.75772e-05
2.75779e-05
2.75774e-05
0.000206201
0.0569364
0.127255
0.194881
0.279461
0.329382
0.304848
0.221762
0.16938
0.107076
0.058004
0.0497435
0.058417
0.0583705
0.46264
0.377721
0.293274
0.280956
0.31821
0.449932
0.626759
0.782823
0.905888
0.981859
0.9429
0.952678
0.927433
0.786726
0.677491
0.457898
0.547643
0.791046
0.515568
0.758685
0.864192
0.900743
0.930092
0.898927
0.880915
0.930137
0.978759
0.99161
0.988764
0.853053
0.89439
0.976136
0.967528
0.936514
0.570531
0.871826
0.952297
0.752567
0.920822
0.991704
0.991673
0.991481
0.991352
0.952824
0.971668
0.991869
0.99187
0.938527
0.766227
0.828722
0.977194
0.989168
0.98365
0.767578
0.786635
0.952568
0.953004
0.917017
0.991454
0.990047
0.989726
0.990954
0.985114
0.991869
0.991869
0.991869
0.790062
0.769865
0.904089
0.989021
0.989179
0.951615
0.810791
0.933697
0.952583
0.953051
0.977345
0.991594
0.991587
0.990029
0.989643
0.991868
0.99187
0.991869
0.991868
0.592444
0.816936
0.957111
0.965264
0.963181
0.804031
0.768452
0.951509
0.953047
0.953048
0.999509
0.999506
0.999426
0.999238
0.998126
0.999789
0.999792
0.999793
0.999793
0.999793
0.999792
0.999793
0.999792
0.999052
0.995964
0.994451
0.99481
0.994812
0.994821
0.994821
0.994821
0.99482
0.994821
0.974328
0.98879
0.995832
0.997011
0.993972
0.981586
0.98155
0.977772
0.972635
0.995051
0.999755
0.998775
0.994149
0.990971
0.991361
0.993027
0.988614
0.981994
0.980414
0.991509
0.99482
0.99277
0.984342
0.509144
0.541273
0.598752
0.609543
0.623894
0.700971
0.77115
0.847353
0.897873
0.910586
0.906212
0.840237
0.80774
0.826413
0.842764
0.876254
0.855647
0.842163
0.826233
0.789708
0.708347
0.502474
0.398489
0.0043659
0.00734938
0.0202307
0.0274316
0.0222649
0.0402249
0.0843509
0.176995
0.314143
0.36191
0.26766
0.160399
0.131641
0.14397
0.178783
0.19531
0.194708
0.171619
0.129334
0.0833812
0.0338704
3.53065e-10
8.13669e-11
-4.52778e-08
6.98133e-15
-2.7656e-20
6.19702e-21
7.62801e-08
0.00214869
-8.48542e-20
-1.84983e-19
-1.08393e-19
-4.76945e-19
-1.06927e-09
2.10963e-24
-1.67304e-24
-7.97029e-25
-7.10938e-24
1.09028e-18
-3.23674e-07
-3.60551e-14
1.90014e-08
1.85909e-06
2.61935e-06
2.95079e-06
2.08024e-05
4.15298e-06
1.72823e-18
-1.61761e-37
-2.02403e-23
3.2746e-06
7.4304e-05
-3.25278e-11
2.74361e-11
1.90179e-09
1.48931e-07
1.97354e-06
4.91501e-06
2.43177e-06
1.81921e-06
1.37251e-05
7.26417e-05
0.000145701
0.0008646
0.00167425
0.00437355
0.00236788
0.000263904
0.000210226
4.40876e-05
8.27793e-05
0.000105298
2.90024e-05
2.13851e-22
7.15924e-23
-3.81581e-12
-1.41118e-14
-3.26832e-14
1.11635e-05
7.91565e-05
0.0001127
0.000122337
0.000139641
0.000148078
0.000162565
0.000163414
0.000163402
0.00808495
0.0198513
0.0186626
0.0033852
0.00047029
4.71829e-05
0.000189561
0.000281814
0.000554064
0.00144163
0.000142661
2.00371e-11
8.60712e-09
1.69431e-05
8.85459e-05
0.00018344
8.97739e-05
0.000142666
0.000383542
0.00142566
0.00341785
0.00302615
0.00109439
0.0121964
0.0198513
0.0198513
0.0167281
2.0083e-05
0.000152751
0.000237127
0.00191005
0.00455233
0.00455727
0.00414319
0.0027085
0.00256712
0.0027729
0.00253055
0.000649054
4.22011e-05
4.05751e-05
0.000204832
0.00488651
0.0102191
0.0101985
0.010019
0.0154339
0.0198513
0.0198513
0.0115949
0.000100338
0.000205944
5.25325e-05
0.00238488
0.00455726
0.00455725
0.00455723
0.00439758
0.00278515
0.00053811
0.000178343
0.000135005
8.08935e-05
3.00923e-05
3.99596e-05
0.00118612
0.00614272
0.00949891
0.00914651
0.0109459
0.00967631
0.00369404
0.000306173
2.6713e-06
0.000207785
2.40044e-05
0.000743021
0.00174756
0.00107719
0.000774379
0.000721373
0.000563069
0.000108339
1.14853e-05
1.09118e-06
5.60187e-06
2.89576e-05
0.000150248
0.000540244
2.59117e-08
0.000217436
2.02727e-06
0.000906996
9.06383e-07
1.27115e-07
5.37694e-07
4.49609e-06
9.03546e-05
1.69048e-05
1.59525e-07
7.19185e-08
7.28569e-08
7.25677e-08
7.44472e-08
7.65453e-08
7.95571e-08
2.1792e-07
3.51056e-07
3.84401e-07
1.31827e-05
9.23923e-05
5.63343e-06
5.35466e-09
3.58982e-09
5.43577e-09
5.36531e-07
8.719e-08
1.25003e-07
9.2328e-06
2.48586e-05
1.38415e-07
8.5211e-07
8.01182e-08
1.74699e-07
3.11759e-07
2.90427e-07
2.94856e-07
2.2275e-07
2.58929e-07
4.25971e-07
4.57209e-07
6.67525e-07
1.25963e-07
5.35118e-09
3.01569e-06
1.66931e-06
1.47192e-06
4.86887e-07
3.26244e-07
2.98249e-06
1.68979e-05
1.80208e-05
1.7871e-05
1.34396e-07
8.49753e-08
7.70656e-08
2.13686e-07
2.7457e-07
2.30544e-07
1.93602e-07
2.04068e-07
2.91895e-07
3.81219e-07
5.58782e-07
5.67699e-07
4.9543e-08
5.35119e-09
2.63769e-07
3.21653e-06
5.55578e-06
5.01861e-06
4.66111e-06
9.86577e-06
1.57498e-05
6.24314e-06
8.45769e-07
1.53701e-07
1.23518e-07
3.11305e-08
3.8981e-08
6.764e-08
7.32945e-08
7.31977e-08
1.42293e-07
1.73108e-07
2.06392e-07
3.68873e-07
3.37226e-07
7.24251e-08
9.38125e-09
5.241e-09
2.71507e-06
5.56937e-06
4.51751e-06
7.51166e-06
7.2582e-06
1.65343e-06
2.5987e-06
9.02502e-07
1.04865e-07
9.12588e-08
2.09008e-08
1.18715e-08
1.67398e-08
1.77504e-08
3.56523e-08
7.36039e-08
7.77505e-08
7.47214e-08
9.96793e-08
9.24663e-08
3.09393e-08
5.37437e-09
5.23503e-09
1.07674e-06
3.55221e-06
1.0176e-06
2.5411e-06
2.34498e-07
2.64868e-06
1.15706e-05
7.84361e-07
6.64153e-08
5.21918e-08
1.39372e-08
6.80206e-09
7.41751e-09
9.21918e-09
2.14341e-08
2.86064e-08
2.685e-08
2.11891e-08
2.07197e-08
2.17062e-08
1.38237e-08
4.76552e-09
5.2545e-09
1.97875e-07
3.6061e-07
6.9783e-08
9.99104e-09
2.77628e-08
6.89424e-06
1.14316e-05
1.71562e-06
2.27897e-08
1.45698e-08
6.70901e-09
5.42187e-09
5.57923e-09
6.3064e-09
8.03162e-09
8.82124e-09
7.89706e-09
5.77641e-09
5.37882e-09
5.98334e-09
5.11103e-09
4.06177e-09
5.52768e-09
7.21611e-08
7.07331e-08
2.90625e-08
7.05559e-09
2.63881e-09
2.70851e-06
1.17074e-05
9.28131e-06
1.5783e-08
7.86196e-09
4.29472e-09
4.28479e-09
4.3209e-09
4.16794e-09
4.06511e-09
3.70032e-09
2.97579e-09
2.29478e-09
1.94634e-09
2.15484e-09
2.30317e-09
2.67123e-09
4.03153e-09
2.3255e-08
3.21026e-08
1.31492e-08
5.0464e-09
2.24113e-09
1.70217e-07
5.05051e-07
4.05094e-06
1.30323e-08
4.59256e-09
2.75228e-09
2.98838e-09
2.87001e-09
2.4701e-09
2.04925e-09
1.63462e-09
1.2412e-09
1.01071e-09
9.31676e-10
1.06452e-09
1.31123e-09
1.72675e-09
2.41058e-09
6.43677e-09
8.94922e-09
4.88184e-09
2.86512e-09
2.22178e-09
6.43581e-09
1.20197e-07
1.43404e-07
1.18988e-08
2.97974e-09
1.63333e-09
1.80044e-09
1.63089e-09
1.31241e-09
1.00842e-09
7.6578e-10
6.07737e-10
4.89916e-10
4.86297e-10
5.66095e-10
7.17784e-10
9.58642e-10
1.33142e-09
2.12881e-09
2.57579e-09
2.06173e-09
1.58125e-09
1.84461e-09
6.51271e-09
1.23165e-08
5.94548e-08
1.15947e-08
1.87838e-09
1.07107e-09
1.11597e-09
9.7068e-10
7.73717e-10
5.89768e-10
4.2697e-10
3.2173e-10
2.70043e-10
2.58275e-10
2.87346e-10
3.53768e-10
4.67812e-10
6.14671e-10
8.05924e-10
9.81205e-10
9.65644e-10
9.40493e-10
1.6716e-09
5.16626e-09
1.16315e-08
3.38627e-08
1.11045e-08
1.24696e-09
7.12961e-10
7.33177e-10
6.83667e-10
6.00568e-10
4.73666e-10
3.24355e-10
2.29236e-10
1.71792e-10
1.42773e-10
1.38342e-10
1.55483e-10
1.95305e-10
2.55173e-10
3.28383e-10
3.82436e-10
4.31854e-10
5.13013e-10
1.05872e-09
2.93558e-09
7.33375e-09
2.20272e-08
1.06517e-08
8.15253e-10
5.44366e-10
6.34572e-10
7.52822e-10
8.21781e-10
6.26585e-10
3.49164e-10
2.22293e-10
1.48831e-10
1.03091e-10
7.87335e-11
7.13069e-11
7.7583e-11
9.50471e-11
1.20997e-10
1.52372e-10
1.94624e-10
2.6029e-10
4.75949e-10
7.69768e-10
1.47396e-09
2.81825e-09
1.03115e-08
5.70892e-10
5.05928e-10
8.79685e-10
1.38254e-09
1.47794e-09
9.37923e-10
4.23566e-10
2.55437e-10
1.61529e-10
1.00271e-10
6.29981e-11
4.34765e-11
3.56554e-11
3.63212e-11
4.38541e-11
5.82579e-11
8.29812e-11
1.21305e-10
1.88542e-10
2.87821e-10
3.38257e-10
8.46821e-10
9.94449e-09
4.89541e-10
6.33317e-10
1.47298e-09
2.16815e-09
2.68595e-09
1.19178e-09
4.57935e-10
2.88458e-10
1.84127e-10
1.08679e-10
6.27614e-11
3.73023e-11
2.36398e-11
1.75369e-11
1.73046e-11
2.20862e-11
3.27307e-11
4.98157e-11
7.7903e-11
1.1105e-10
2.00807e-10
4.3904e-10
9.62204e-09
4.93105e-10
1.07466e-09
2.11704e-09
4.14626e-09
7.29818e-09
1.2586e-09
4.535e-10
3.21401e-10
2.03037e-10
1.15611e-10
6.54104e-11
3.70758e-11
2.11098e-11
1.2463e-11
8.70553e-12
8.76181e-12
1.19351e-11
1.76408e-11
2.70949e-11
4.50553e-11
7.04803e-11
1.62221e-10
9.35101e-09
7.22743e-10
1.83936e-09
4.10332e-09
1.43445e-08
1.66172e-08
8.79557e-10
4.35519e-10
3.67782e-10
2.10675e-10
1.11968e-10
6.26278e-11
3.60057e-11
2.05591e-11
1.13084e-11
6.27573e-12
4.20177e-12
4.36429e-12
5.85075e-12
8.62155e-12
1.2713e-11
2.25528e-11
4.09879e-11
9.25787e-09
2.07972e-09
7.03641e-09
2.02806e-08
8.21001e-08
1.54394e-08
4.59313e-10
4.6583e-10
3.69226e-10
1.9012e-10
9.70056e-11
5.47761e-11
3.26727e-11
1.93049e-11
1.07438e-11
5.56966e-12
3.05148e-12
1.69981e-12
1.92789e-12
2.59563e-12
3.89653e-12
5.84405e-12
1.10637e-11
9.3949e-09
8.44763e-09
4.75142e-08
2.17849e-07
2.14356e-07
3.84043e-09
4.4322e-10
5.29238e-10
3.37696e-10
1.52314e-10
7.46951e-11
4.32674e-11
2.73642e-11
1.70248e-11
9.84604e-12
5.15372e-12
2.53859e-12
1.02235e-12
6.95953e-13
8.47708e-13
1.14194e-12
1.78329e-12
2.7181e-12
1.05764e-08
2.36719e-08
1.47624e-07
5.15756e-07
2.68589e-07
5.58465e-10
5.00013e-10
5.57545e-10
2.8396e-10
1.09421e-10
5.16232e-11
3.09815e-11
2.10561e-11
1.38828e-11
8.50405e-12
4.60527e-12
2.20503e-12
9.10633e-13
2.87017e-13
2.87114e-13
3.80947e-13
5.30139e-13
8.19904e-13
1.25275e-08
3.44181e-08
2.04948e-07
5.65651e-07
1.53497e-07
4.60867e-10
7.21705e-10
5.23178e-10
2.08596e-10
7.27597e-11
3.28447e-11
2.02923e-11
1.46026e-11
1.04124e-11
6.81899e-12
3.91487e-12
1.96278e-12
8.22384e-13
1.63151e-13
1.0209e-13
1.20605e-13
1.68158e-13
2.22857e-13
1.59138e-08
7.53558e-08
4.01372e-07
4.95891e-07
2.82329e-08
4.59365e-10
9.2456e-10
4.20595e-10
1.31192e-10
4.87301e-11
2.02043e-11
1.26846e-11
9.46232e-12
7.06738e-12
4.95888e-12
3.09779e-12
1.66792e-12
7.37652e-13
1.29007e-13
3.78621e-14
3.69907e-14
4.7023e-14
6.06505e-14
1.75028e-08
1.29412e-07
5.6039e-07
2.31012e-07
5.4339e-10
9.01212e-10
1.23809e-09
4.06874e-10
1.11073e-10
3.23837e-11
1.18831e-11
7.15675e-12
5.38891e-12
4.13763e-12
3.15645e-12
2.17536e-12
1.28583e-12
6.3481e-13
1.31673e-13
1.89136e-14
1.12902e-14
1.4154e-14
1.62864e-14
2.41297e-08
1.64302e-07
6.20098e-07
1.95687e-07
5.38365e-10
1.44918e-09
1.69406e-09
4.58369e-10
1.09832e-10
2.32181e-11
6.90692e-12
4.05003e-12
2.88622e-12
2.22466e-12
1.77708e-12
1.35541e-12
8.98432e-13
4.79544e-13
1.49587e-13
1.54683e-14
3.74636e-15
3.86354e-15
4.36687e-15
2.4774e-08
1.99686e-07
6.20264e-07
1.81233e-07
5.7153e-10
2.46435e-09
2.16444e-09
5.30221e-10
1.13838e-10
1.86222e-11
3.953e-12
2.14888e-12
1.48394e-12
1.06663e-12
8.45356e-13
7.10111e-13
5.42695e-13
3.39436e-13
1.23883e-13
1.5144e-14
1.83861e-15
1.19904e-15
1.29727e-15
3.35596e-08
2.89566e-07
6.19784e-07
1.15528e-07
7.29197e-10
6.54772e-09
2.54027e-09
5.66186e-10
1.12843e-10
1.52837e-11
2.18538e-12
1.06014e-12
7.19712e-13
4.69653e-13
3.45463e-13
3.02019e-13
2.67622e-13
2.03242e-13
9.14692e-14
1.55626e-14
1.43914e-15
3.58492e-16
3.5004e-16
3.36114e-08
4.42623e-07
6.1995e-07
1.71776e-08
3.36217e-09
1.02993e-08
2.75026e-09
5.2739e-10
9.46589e-11
1.16043e-11
1.14698e-12
4.98093e-13
3.27255e-13
1.93992e-13
1.23467e-13
1.01584e-13
1.01001e-13
9.41268e-14
5.55602e-14
1.37713e-14
1.45256e-15
1.40248e-16
9.03521e-17
3.51634e-08
3.99468e-07
3.99859e-07
4.09556e-09
9.78019e-09
1.10882e-08
2.56665e-09
4.34229e-10
6.35972e-11
6.96184e-12
5.34936e-13
1.97056e-13
1.32549e-13
7.4193e-14
3.98261e-14
2.74522e-14
2.79316e-14
3.19574e-14
2.69982e-14
9.9586e-15
1.41432e-15
8.7308e-17
2.19032e-17
2.95419e-08
2.0475e-07
2.32259e-07
4.09764e-09
1.33602e-08
7.62391e-09
1.54275e-09
2.922e-10
3.01774e-11
2.73167e-12
1.76507e-13
5.9928e-14
4.30452e-14
2.44092e-14
1.16588e-14
6.18403e-15
5.49279e-15
7.49264e-15
9.07515e-15
5.63097e-15
1.0318e-15
7.63847e-17
7.01652e-18
2.46596e-08
1.97388e-07
2.34807e-07
4.12179e-09
1.35684e-08
3.52468e-09
6.9699e-10
1.25365e-10
1.05834e-11
6.54421e-13
3.39026e-14
1.25375e-14
1.00306e-14
6.06681e-15
2.82018e-15
1.18766e-15
8.20464e-16
1.23853e-15
2.11163e-15
2.26845e-15
6.18854e-16
6.48349e-17
4.63204e-18
2.33811e-08
6.50063e-08
1.45653e-07
5.40571e-09
4.34503e-09
5.91447e-10
1.16498e-10
1.86988e-11
1.17598e-12
4.85841e-14
2.20586e-15
1.40926e-15
1.31126e-15
8.88735e-16
4.32181e-16
1.66265e-16
8.8167e-17
1.52407e-16
3.79256e-16
6.50876e-16
3.45508e-16
4.87088e-17
3.16089e-18
0.993854
0.991631
0.993695
0.993688
0.977423
0.974195
0.964003
0.959299
0.425219
0.472409
0.505031
0.541415
4.13945e-10
8.6356e-10
3.35101e-19
-1.7962e-06
0.000121042
0.000140687
0.000134093
0.00032364
0.00058148
0.000766902
0.000415007
0.000254974
0.000888284
0.00250704
0.00174585
0.00025164
0.000847033
0.00250742
0.00250705
0.00112358
5.17183e-06
0.000792094
0.00089544
8.32592e-05
5.35927e-06
1.57432e-05
2.55016e-05
1.03994e-05
1.01138e-05
1.01464e-05
1.76271e-05
1.88994e-05
2.541e-05
2.46181e-05
1.70057e-05
1.5865e-05
1.1651e-05
1.3834e-06
5.327e-07
5.02558e-07
4.53563e-07
5.29862e-07
9.60476e-07
3.07646e-06
2.35761e-07
3.04493e-07
7.88775e-06
1.41852e-05
2.48379e-07
6.09543e-06
1.08649e-05
1.40326e-05
1.19073e-06
8.96047e-06
1.21299e-05
1.01975e-05
4.72314e-06
1.30823e-05
1.48077e-05
1.2101e-05
1.13324e-05
1.36086e-05
1.42394e-05
1.35545e-05
1.12126e-07
1.07588e-07
4.44657e-08
1.51674e-06
1.08842e-07
9.81303e-08
4.73615e-08
2.47845e-08
6.00865e-08
6.38095e-08
3.23619e-08
2.86755e-08
2.95395e-08
2.70786e-08
1.29213e-08
2.54102e-09
4.053e-09
4.66906e-09
3.67794e-09
2.2116e-09
1.11022e-09
1.1959e-09
1.59486e-09
1.7231e-09
5.81722e-10
7.10594e-10
1.0425e-09
1.54248e-09
2.04336e-10
2.44583e-10
3.03368e-10
3.51042e-10
5.64494e-11
6.6683e-11
7.78498e-11
8.5642e-11
1.39552e-11
1.53717e-11
1.79645e-11
1.95988e-11
3.40046e-12
3.96768e-12
4.3243e-12
4.64787e-12
9.5997e-13
1.02754e-12
1.11426e-12
1.22128e-12
2.56851e-13
2.57354e-13
2.61335e-13
2.66488e-13
6.44975e-14
6.00398e-14
5.95862e-14
5.90519e-14
1.68534e-14
1.4841e-14
1.35888e-14
1.30742e-14
4.24588e-15
3.69961e-15
3.31077e-15
3.2207e-15
1.12171e-15
9.46515e-16
9.1635e-16
8.90873e-16
3.18571e-16
2.66762e-16
2.34343e-16
2.58804e-16
8.12653e-17
6.17638e-17
6.10438e-17
6.18041e-17
1.68597e-17
1.45592e-17
1.21779e-17
1.32886e-17
3.44196e-18
2.60483e-18
2.39408e-18
2.16219e-18
6.13987e-19
4.63943e-19
3.79929e-19
3.66703e-19
1.17646e-19
5.97879e-20
5.57044e-20
4.27444e-20
0.9937
0.991187
0.98008
0.977976
0.991859
0.991869
0.991869
0.991869
0.900612
0.59723
0.911739
0.963283
0.9636
0.938574
0.848021
0.819604
0.951509
0.949624
0.907935
0.93986
0.891345
0.888086
0.939079
0.905377
0.60345
0.329286
0.227661
0.20316
0.643392
0.94494
0.944651
0.940745
0.939303
0.938477
0.931913
0.918905
0.931616
0.859163
0.515729
0.47681
0.554911
0.571647
0.176927
8.95764e-25
-7.68679e-10
4.2642e-17
0.0129902
0.323155
0.449089
0.443909
0.578054
0.551268
0.426955
0.416794
0.421295
0.69125
0.824939
4.92949e-09
1.83558e-07
4.40257e-07
4.00406e-07
4.01553e-07
3.17055e-05
3.39954e-05
-1.56587e-12
1.28374e-06
0.00329984
0.00255983
0.00132066
0.0101861
0.00153128
9.92215e-22
7.64755e-23
1.15648e-20
0.0702811
0.182365
0.0008045
0.00254963
0.00383664
0.00184864
4.74325e-05
9.6438e-05
0.000780062
0.000443931
0.000247923
6.10812e-05
8.16173e-07
3.06178e-07
8.16176e-07
5.08964e-06
8.51348e-14
4.65963e-22
1.76229e-23
9.81245e-09
3.9698e-08
0.00229575
0.0247571
0.0361408
0.0184245
0.00648587
0.00339701
0.00234568
0.00222594
0.0023906
0.00332156
0.00257104
0.000770473
0.000413043
0.000161931
0.000279116
0.000346429
0.000302303
0.00030669
0.000969229
0.00360403
0.0293867
0.0365921
0.0366034
0.0330481
0.0188981
0.0142444
0.0123679
0.0138609
0.0171877
0.0171976
0.0139761
0.00223466
1.3422e-07
1.33883e-07
0.000780825
0.00217923
0.00248211
0.0025379
0.00219532
0.00741929
0.0163068
0.0155021
0.0101132
0.00933807
0.00832865
0.00818757
0.0103803
0.0160718
0.017212
0.0143369
0.00263026
1.33923e-07
7.46122e-07
0.00113354
0.0025379
0.0025379
0.0025379
1.1985e-05
2.18295e-09
9.97649e-12
9.86058e-12
4.9441e-12
4.5778e-12
8.70653e-08
2.21963e-05
0.000161356
0.000389366
0.000434304
0.000646214
0.000943561
0.000390173
5.06465e-07
0.000832605
0.00218887
0.00249132
0.00245373
1.14315e-06
8.12732e-09
2.0028e-06
3.73177e-06
1.9713e-06
1.54582e-07
3.53459e-09
3.36539e-09
3.54381e-09
3.41102e-09
3.56046e-09
3.44103e-09
4.8827e-09
0.000176257
1.11774e-06
2.49626e-05
5.27228e-06
1.61483e-05
9.72928e-05
1.02761e-05
1.2754e-08
5.94582e-06
9.10369e-06
5.34179e-06
1.61494e-06
7.00016e-08
2.92632e-08
7.49694e-08
1.13972e-06
1.29065e-05
3.05637e-05
1.19348e-05
2.05654e-05
6.53657e-07
6.27908e-06
4.51819e-06
8.30757e-07
8.86338e-07
5.95302e-06
1.20058e-07
3.70928e-06
8.85648e-06
6.58533e-06
1.64663e-06
2.43975e-07
2.68099e-08
1.28153e-06
6.88075e-06
7.55371e-06
3.34584e-05
3.34684e-05
1.01427e-05
5.64179e-07
7.67699e-07
7.00217e-07
7.73931e-07
7.62213e-06
4.69308e-07
4.28719e-07
1.25236e-07
9.12722e-08
7.83269e-08
7.22959e-08
2.69584e-08
2.66246e-08
4.1787e-06
7.83345e-06
5.67332e-06
4.48315e-06
1.03106e-05
1.45778e-05
4.01986e-06
7.09268e-07
4.16918e-07
1.12254e-06
1.76599e-05
2.7055e-06
3.1996e-06
1.39074e-07
1.25236e-07
1.86212e-07
1.22747e-06
1.54412e-06
8.86463e-07
3.41542e-06
7.84243e-06
7.80816e-06
3.09102e-06
3.00742e-06
9.22684e-06
8.23296e-06
5.7724e-06
4.07452e-07
3.41099e-07
1.76455e-05
3.3717e-05
3.43408e-05
1.6135e-05
1.4072e-05
1.02045e-05
4.45026e-06
3.6899e-06
1.7032e-06
4.33666e-07
1.78551e-06
4.04496e-06
4.42433e-06
7.63011e-06
2.73486e-06
1.88687e-06
1.2241e-06
3.33927e-07
3.33048e-07
1.74102e-05
3.92642e-05
4.32424e-05
4.32539e-05
4.16957e-05
3.75551e-05
2.25371e-05
1.77341e-06
5.72247e-08
5.71968e-08
5.7138e-08
1.63239e-06
9.05919e-06
1.52166e-05
9.82779e-06
3.31466e-07
2.07633e-07
2.08245e-07
1.27099e-05
1.81131e-05
5.39439e-06
3.92563e-05
4.3185e-05
4.32073e-05
4.32072e-05
2.70018e-05
6.09381e-08
5.98434e-08
5.72174e-08
5.72019e-08
3.40642e-06
1.69773e-05
3.6831e-05
2.37216e-05
4.2958e-06
2.92214e-06
1.15709e-05
1.74106e-05
1.50811e-05
7.05472e-07
2.13808e-06
4.20694e-05
4.32072e-05
3.55654e-05
2.77259e-06
4.61696e-06
2.30637e-06
1.60767e-06
8.04178e-08
1.58512e-06
1.54791e-05
3.62651e-05
3.54888e-05
3.50472e-05
2.44656e-05
9.67535e-06
1.15834e-05
2.04243e-06
7.13599e-07
3.94782e-08
4.3119e-06
3.28649e-05
2.82551e-06
2.38159e-07
1.8795e-06
4.2363e-06
3.68735e-06
2.55388e-06
2.65625e-06
4.34834e-06
4.13358e-06
6.66093e-06
5.11275e-06
4.83338e-06
2.97143e-06
1.04999e-06
6.66089e-07
1.27833e-06
3.97173e-08
1.92808e-09
1.95251e-09
1.92806e-09
7.02852e-08
1.79344e-07
2.28028e-06
3.21885e-06
2.30683e-06
6.14488e-07
1.76153e-06
2.2721e-06
3.8923e-07
1.34763e-07
1.38969e-07
1.30949e-07
9.06425e-08
2.566e-07
2.44132e-08
5.48444e-08
1.20807e-08
1.97325e-09
2.00218e-09
1.42868e-07
8.5788e-08
4.16235e-10
4.19081e-10
4.16235e-10
4.19087e-10
1.95655e-07
8.66129e-07
2.94389e-07
1.69329e-07
3.0304e-07
2.71225e-07
9.0541e-08
1.27368e-07
2.39054e-08
4.12823e-08
3.57929e-08
1.23008e-08
6.18027e-09
5.44167e-09
1.78155e-09
1.79256e-09
7.70559e-10
4.78627e-10
4.40592e-10
4.08859e-10
4.03173e-10
4.08859e-10
1.56152e-07
3.79207e-07
4.25347e-07
1.78749e-07
7.92715e-08
2.2588e-08
4.70884e-08
4.71866e-08
2.53706e-08
1.1013e-08
5.59302e-09
3.91675e-09
3.19333e-09
2.393e-09
1.73439e-09
1.63309e-09
3.19081e-09
2.70912e-09
2.32357e-09
2.32648e-09
8.79664e-08
4.25452e-07
2.72875e-07
7.8405e-08
5.82656e-09
3.44389e-08
2.76637e-08
1.36826e-08
6.9728e-09
4.67857e-09
3.58205e-09
2.70808e-09
2.22228e-09
2.075e-09
2.37075e-09
3.02147e-09
3.65783e-09
3.68045e-09
2.48304e-09
2.25225e-09
2.49225e-07
2.81562e-07
8.56864e-08
5.99652e-09
9.41926e-09
6.86411e-09
2.97211e-09
2.31695e-09
1.98283e-09
1.5831e-09
1.33285e-09
1.33012e-09
1.70433e-09
2.46142e-09
3.60538e-09
5.13479e-09
6.52177e-09
6.0057e-09
2.26007e-09
5.33994e-08
2.22346e-07
8.73093e-08
1.38748e-09
8.88857e-10
9.60292e-10
9.25852e-10
7.95479e-10
6.74993e-10
5.9594e-10
6.44605e-10
8.61173e-10
1.30651e-09
2.10321e-09
3.5109e-09
5.80216e-09
8.34604e-09
8.74166e-09
3.50068e-09
7.02879e-09
1.18536e-07
9.75139e-08
3.70779e-10
3.47705e-10
3.1426e-10
2.71178e-10
2.25321e-10
2.16447e-10
2.62667e-10
3.81786e-10
6.37541e-10
1.11453e-09
1.87777e-09
3.15758e-09
5.22263e-09
7.85548e-09
7.79043e-09
5.62801e-09
1.70215e-08
1.32313e-07
2.01155e-07
9.14017e-11
8.76905e-11
8.05625e-11
7.22744e-11
7.71926e-11
8.8108e-11
1.04863e-10
1.67597e-10
3.81582e-10
9.21186e-10
1.90206e-09
3.34471e-09
4.81074e-09
6.34772e-09
5.5093e-09
1.67937e-08
4.87164e-08
2.02701e-07
2.02351e-07
2.10449e-11
2.0569e-11
2.05085e-11
2.24319e-11
1.77283e-11
1.51971e-11
2.32078e-11
6.13136e-11
2.09632e-10
6.59969e-10
2.02476e-09
4.31291e-09
6.00814e-09
5.51526e-09
5.51499e-09
3.01279e-08
1.43311e-07
2.02657e-07
2.02755e-07
5.16814e-12
5.37377e-12
5.41657e-12
3.25595e-12
2.26621e-12
3.01941e-12
7.63999e-12
2.75092e-11
1.10822e-10
3.10278e-10
2.01674e-09
5.86226e-09
8.99371e-09
7.96618e-09
5.50644e-09
4.80401e-08
1.4593e-07
1.28879e-07
2.01976e-07
1.22129e-12
1.30524e-12
1.25905e-12
5.37481e-13
5.36373e-13
1.17811e-12
3.80088e-12
1.42881e-11
5.58127e-11
1.78073e-10
2.19309e-09
8.09664e-09
1.34519e-08
1.2212e-08
8.6769e-09
3.95483e-08
1.45206e-07
8.22043e-08
2.02763e-07
2.8896e-13
2.84202e-13
2.6139e-13
1.50114e-13
2.45132e-13
7.30394e-13
2.44091e-12
9.07884e-12
3.83268e-11
1.72346e-10
2.91204e-09
1.13981e-08
2.4108e-08
2.54122e-08
1.09603e-08
1.00537e-08
3.27085e-08
5.61702e-08
1.22219e-07
5.49181e-14
5.09201e-14
5.2933e-14
8.04734e-14
1.77191e-13
5.76026e-13
1.95779e-12
7.66486e-12
3.83748e-11
1.92389e-10
3.37037e-09
1.48067e-08
3.35309e-08
3.9838e-08
8.10356e-09
4.30469e-09
9.38216e-09
2.0234e-08
7.78936e-08
1.32092e-14
1.25492e-14
1.78485e-14
4.66289e-14
1.55437e-13
5.30932e-13
1.77443e-12
7.09696e-12
3.84759e-11
2.07388e-10
1.71344e-09
1.07764e-08
3.59845e-08
4.59848e-08
2.03727e-08
4.29979e-09
4.3124e-09
2.42971e-08
1.08476e-07
3.15313e-15
4.07767e-15
9.32165e-15
3.15644e-14
1.19287e-13
4.53499e-13
1.59286e-12
5.30503e-12
2.13733e-11
8.33065e-11
3.09962e-10
2.64657e-09
2.16232e-08
4.59817e-08
4.60855e-08
4.2991e-09
4.3205e-09
2.32815e-08
1.14074e-07
1.00058e-15
1.60421e-15
4.77694e-15
1.88152e-14
7.95502e-14
3.16744e-13
1.15251e-12
3.77696e-12
1.32206e-11
5.83328e-11
2.73304e-10
1.4782e-09
4.54997e-09
3.07495e-08
4.76898e-08
3.24074e-08
4.30925e-09
1.22544e-08
9.14651e-08
2.74614e-16
5.51097e-16
1.96221e-15
8.68821e-15
4.00546e-14
1.76942e-13
6.95509e-13
2.4579e-12
8.99011e-12
4.41578e-11
1.89692e-10
5.66499e-10
1.94226e-09
1.19813e-08
3.76103e-08
4.50081e-08
2.97864e-08
1.37295e-08
6.61019e-08
7.31221e-17
1.4581e-16
5.48253e-16
2.72905e-15
1.46537e-14
7.44216e-14
3.3156e-13
1.26192e-12
4.42404e-12
1.6538e-11
8.69466e-11
4.04874e-10
1.03032e-09
1.66194e-09
1.33631e-08
4.28785e-08
4.03321e-08
9.0024e-08
6.29442e-08
1.34512e-17
2.5361e-17
9.09439e-17
5.11736e-16
3.30804e-15
2.06061e-14
1.09969e-13
4.99054e-13
1.85577e-12
6.13672e-12
2.43601e-11
1.2554e-10
5.94509e-10
1.46533e-09
2.22288e-09
9.90549e-09
4.07546e-08
1.10548e-07
2.90179e-07
2.25348e-18
2.75555e-18
8.27869e-18
4.53969e-17
3.83044e-16
3.41165e-15
2.45478e-14
1.4083e-13
6.45312e-13
2.42355e-12
7.91679e-12
2.63499e-11
1.21782e-10
6.98391e-10
1.64935e-09
7.74493e-10
1.33397e-08
1.19812e-07
3.38127e-07
2.90652e-19
2.62657e-19
5.35141e-19
2.57818e-18
2.16013e-17
2.53819e-16
2.69853e-15
2.1983e-14
1.34605e-13
6.33183e-13
2.34115e-12
7.05298e-12
2.07318e-11
9.35153e-11
4.26899e-10
7.68319e-10
2.1572e-10
7.5691e-08
3.37842e-07
2.97459e-20
2.04913e-20
2.21163e-20
6.7201e-20
5.13818e-19
6.16849e-18
9.18585e-17
1.08494e-15
9.19221e-15
5.85951e-14
2.73667e-13
9.22992e-13
2.54291e-12
3.63425e-12
6.87215e-12
1.9678e-10
2.13137e-10
2.1572e-10
2.41351e-07
)
;

boundaryField
{
    leftWall
    {
        type            zeroGradient;
    }
    rightWall
    {
        type            zeroGradient;
    }
    lowerWall
    {
        type            zeroGradient;
    }
    atmosphere
    {
        type            inletOutlet;
        inletValue      uniform 0;
        value           nonuniform List<scalar> 
46
(
2.33811e-08
6.50063e-08
1.45653e-07
5.40571e-09
4.34503e-09
0
0
0
0
0
0
0
0
0
0
0
0
1.52407e-16
3.79256e-16
6.50876e-16
3.45508e-16
0
0
0
0
0
0
0
0
0
0
0
0
0
0
0
0
0
0
0
0
0
0
2.13137e-10
2.1572e-10
2.41351e-07
)
;
    }
    defaultFaces
    {
        type            empty;
    }
}


// ************************************************************************* //
