/*--------------------------------*- C++ -*----------------------------------*\
| =========                 |                                                 |
| \\      /  F ield         | OpenFOAM: The Open Source CFD Toolbox           |
|  \\    /   O peration     | Version:  2312                                  |
|   \\  /    A nd           | Website:  www.openfoam.com                      |
|    \\/     M anipulation  |                                                 |
\*---------------------------------------------------------------------------*/
FoamFile
{
    version     2.0;
    format      ascii;
    arch        "LSB;label=32;scalar=64";
    class       volScalarField;
    location    "6";
    object      p;
}
// * * * * * * * * * * * * * * * * * * * * * * * * * * * * * * * * * * * * * //

dimensions      [1 -1 -2 0 0 0 0];

internalField   nonuniform List<scalar> 
2268
(
4892.61
4906.3
4934.01
4975.58
5029.86
5094.45
5165.61
5238.5
5307.99
5369.52
5419.78
5456.6
5478.84
5486.76
5481.59
5466.09
5443.68
5418.01
5392.41
5369.26
5350.19
5336.54
5329.14
4093.09
4106.62
4134.39
4176.22
4231.07
4296.53
4368.81
4442.88
4513.4
4575.7
4626.44
4663.44
4685.49
4692.91
4686.86
4670.4
4647.12
4620.75
4594.69
4571.22
4551.87
4537.71
4529.76
3290.33
3303.69
3331.59
3374.01
3430.03
3497.26
3571.76
3648.17
3720.73
3784.51
3836.14
3873.45
3895.01
3901.46
3893.69
3875.44
3850.5
3822.76
3795.75
3771.63
3751.78
3736.88
3728.37
2484.37
2497.69
2525.89
2569.22
2626.97
2696.74
2774.42
2854.13
2929.58
2995.47
3048.53
3086.57
3107.6
3113.11
3103.15
3082.55
3055.3
3025.43
2996.83
2971.56
2950.86
2934.97
2925.54
1675.37
1688.53
1717.19
1761.89
1821.87
1894.56
1976.02
2059.92
2139.21
2208.05
2263.41
2303.15
2323.72
2329.05
2316.67
2293.43
2263.14
2229.9
2198.81
2171.78
2149.91
2132.65
2121.7
1074.22
1081.04
1096.29
1120.81
1155.47
1201.16
1257.42
1320.4
1384.62
1443.53
1492.67
1528.66
1548.4
1552.25
1538.44
1514.76
1487.5
1457.39
1426.53
1398.63
1374.77
1355.77
1343.81
849.554
850.444
852.052
854.472
858.274
865.201
876.829
893.35
913.686
934.768
953.256
966.626
974.441
973.043
963.79
950.492
937.039
921.218
902.195
883.143
864.939
849.646
838.048
789.122
789.755
790.613
791.009
790.056
787.516
783.684
779.071
774.112
769.227
764.182
759.277
755.337
749.837
744.675
740.327
735.627
729.569
721.625
711.741
700.767
690.355
679.954
2923.35
2970.84
3010.93
3007.94
2960.22
2868.76
2752.97
2639.51
2545.08
2476.38
2432.79
2411.81
2407.8
2411.77
2417.79
2420.46
2431.98
2446.85
2457.85
2144.74
2196.53
2243.74
2244.48
2196.1
2100.95
1981.27
1868.87
1777.34
1710.46
1669.37
1651.82
1651.79
1656.53
1663.48
1674
1684.65
1696.56
1705.32
1434.01
1481.48
1527.64
1530.66
1486.62
1393.57
1290.71
1204.96
1147.04
1118.29
1098.66
1089.88
1089.25
1090.43
1095.02
1112.89
1120.9
1126.28
1127.96
974.677
993.612
1012.19
1010.5
986.168
939.677
902.68
878.625
868.676
876.768
875.899
872.93
869.913
869.379
871.897
875.93
883.955
887.088
885.71
811.443
802.856
795.74
790.401
785.063
785.11
791.085
798.179
802.978
814.73
813.125
810.448
809.935
813.796
818.915
813.627
824.287
827.058
827.4
755.199
746.231
739.074
733.163
730.281
730.165
733.957
737.713
741.242
747.234
746.726
743.49
746.293
754.393
760.253
759.711
772.254
769.922
772.693
696.534
686.144
678.868
673.384
672.034
672.093
674.806
676.66
680.475
680.685
682.936
681.01
685.025
694.368
698.182
703.6
716.817
711.872
714.101
638.186
625.486
617.829
612.693
611.261
612.881
614.898
615.918
620.439
621.266
624.437
623.88
627.238
634.595
640
650.612
657.705
652.915
655.194
694.509
695.158
696.006
696.403
695.357
692.692
689.41
685.583
681.522
677.697
673.585
669.178
664.4
660.339
656.762
652.739
647.331
640.198
631.213
620.486
608.883
597.711
587.167
565.791
566.369
567.16
567.554
566.92
565.392
562.844
560.332
557.506
554.21
550.889
547.412
543.21
539.466
535.693
531.774
526.074
518.08
508.116
495.974
483.019
469.994
458.629
453.003
452.494
451.576
450.242
448.617
446.542
443.852
441.484
439.751
436.321
432.361
428.712
424.707
421.263
417.517
412.877
406.877
398.553
388.468
377.172
364.798
352.428
341.411
371.959
370.544
368.058
364.888
361.412
357.316
352.842
348.103
344.226
340.544
336.862
333.459
330.204
326.537
322.093
316.268
309.52
301.76
293.173
284.416
274.625
264.799
253.845
307.89
306.342
303.808
300.36
296.125
291.374
286.036
280.991
275.686
271.846
268.77
265.599
262.741
259.174
254.64
248.991
242.063
234.529
226.417
217.801
208.493
197.796
185.605
245.069
243.323
240.696
237.386
233.162
228.351
223.851
219.849
215.621
211.731
208.127
205.192
202.55
199.55
195.741
190.73
184.309
176.413
167.191
157.421
146.567
133.707
120.406
183.955
181.819
178.798
175.14
170.763
166.131
162.017
157.957
154.179
150.352
147.257
144.828
142.847
140.689
137.814
133.66
127.82
119.966
110.128
98.0512
83.9574
68.4382
54.8067
125.441
122.806
119.004
114.229
108.609
103.216
98.7274
94.5655
90.6933
87.4632
85.0602
83.8032
83.2631
82.5816
81.2139
78.1831
73.0928
65.4615
55.2601
42.8533
29.6412
18.44
10.4351
70.6933
67.3507
61.7366
54.2514
46.7694
40.8261
36.6166
33.2413
30.5656
28.7888
27.6169
27.7973
28.8492
29.9711
30.6767
29.8772
26.979
21.7789
14.9342
8.03531
2.95316
0.615572
-0.518145
25.2254
22.5545
17.5756
11.7849
7.6888
4.96176
3.26609
1.93779
0.851651
0.208624
-0.0622306
0.0984389
0.764719
1.68202
2.75605
3.17148
2.73034
1.15887
-0.422827
-1.10461
-1.3507
-1.43686
-1.43197
0.435205
-0.18693
-0.843713
-0.916079
-0.937794
-1.30672
-1.55916
-1.72991
-1.82085
-1.85721
-1.87965
-1.90514
-1.92396
-1.92665
-1.93649
-1.96291
-1.97278
-2.00718
-1.9426
-1.88308
-1.82535
-1.71871
-1.63866
-1.58759
-1.61657
-1.58529
-1.63554
-1.75399
-1.84631
-1.90923
-1.94821
-1.97224
-1.99352
-2.01215
-2.02909
-2.04744
-2.06424
-2.07419
-2.06842
-2.07158
-2.07167
-2.04012
-1.98479
-1.9306
-1.8657
-1.81042
-2.02823
-2.01794
-2.03854
-2.09797
-2.15616
-2.13778
-2.12961
-2.11828
-2.1104
-2.11397
-2.12373
-2.1396
-2.15251
-2.16059
-2.16006
-2.15422
-2.15177
-2.14279
-2.12076
-2.08724
-2.04439
-2.00118
-1.96227
-2.26365
-2.25691
-2.27785
-2.26201
-2.23741
-2.24106
-2.24233
-2.23833
-2.23715
-2.24084
-2.24681
-2.25185
-2.25642
-2.25845
-2.25688
-2.25228
-2.24624
-2.23616
-2.21854
-2.1938
-2.16389
-2.1327
-2.10328
-2.33818
-2.33685
-2.32959
-2.33473
-2.33922
-2.3508
-2.3571
-2.35993
-2.36159
-2.36336
-2.36531
-2.36673
-2.36734
-2.36654
-2.36432
-2.35994
-2.35365
-2.34398
-2.32935
-2.31044
-2.28809
-2.26338
-2.24016
-2.46997
-2.46878
-2.46675
-2.46797
-2.47016
-2.47577
-2.4798
-2.48198
-2.48308
-2.48374
-2.4842
-2.48416
-2.48304
-2.48096
-2.47822
-2.47433
-2.46735
-2.45798
-2.44599
-2.43114
-2.41334
-2.39411
-2.37669
-2.6015
-2.60071
-2.59922
-2.59848
-2.59859
-2.60034
-2.60189
-2.60279
-2.60316
-2.60315
-2.60277
-2.60188
-2.60024
-2.59779
-2.5947
-2.59017
-2.58355
-2.57514
-2.56521
-2.55348
-2.54037
-2.52536
-2.51194
-2.72693
-2.72621
-2.72484
-2.72365
-2.72297
-2.72304
-2.72324
-2.72325
-2.723
-2.72246
-2.72157
-2.72021
-2.7183
-2.71568
-2.71226
-2.70762
-2.70155
-2.69423
-2.68589
-2.6767
-2.66728
-2.6565
-2.64565
-2.84975
-2.84912
-2.84798
-2.84678
-2.84577
-2.84508
-2.8445
-2.84387
-2.84309
-2.84211
-2.84082
-2.83914
-2.83699
-2.83422
-2.83066
-2.82615
-2.82063
-2.81425
-2.80719
-2.79975
-2.79259
-2.78517
-2.77667
-2.97168
-2.97116
-2.97022
-2.96908
-2.96793
-2.96687
-2.96584
-2.96477
-2.96359
-2.96225
-2.96066
-2.95874
-2.95639
-2.95351
-2.94996
-2.94567
-2.94063
-2.93496
-2.92881
-2.92242
-2.91617
-2.90995
-2.90338
-3.0933
-3.09286
-3.09204
-3.09098
-3.08979
-3.08856
-3.08729
-3.08595
-3.08451
-3.08291
-3.0811
-3.079
-3.07653
-3.07361
-3.07015
-3.0661
-3.06148
-3.05637
-3.0509
-3.04519
-3.03948
-3.03374
-3.02778
-3.21479
-3.21441
-3.21368
-3.2127
-3.21153
-3.21024
-3.20886
-3.20738
-3.20579
-3.20405
-3.2021
-3.19991
-3.19739
-3.1945
-3.19116
-3.18737
-3.18313
-3.1785
-3.17357
-3.16846
-3.16327
-3.15808
-3.1528
-3.33627
-3.33594
-3.33528
-3.33437
-3.33325
-3.33198
-3.33057
-3.32904
-3.32739
-3.32558
-3.32359
-3.32137
-3.31887
-3.31605
-3.31289
-3.30935
-3.30546
-3.30127
-3.29683
-3.29223
-3.28757
-3.28291
-3.27821
-3.45782
-3.45752
-3.45692
-3.45608
-3.45502
-3.4538
-3.45242
-3.45091
-3.44926
-3.44746
-3.44548
-3.44329
-3.44086
-3.43817
-3.43519
-3.43191
-3.42835
-3.42455
-3.42056
-3.41643
-3.41225
-3.40807
-3.40389
-3.57947
-3.5792
-3.57864
-3.57788
-3.57689
-3.57573
-3.57442
-3.57297
-3.57137
-3.56962
-3.5677
-3.56559
-3.56327
-3.56072
-3.55794
-3.55492
-3.55167
-3.54823
-3.54464
-3.54094
-3.5372
-3.53345
-3.52973
-3.70126
-3.70101
-3.70051
-3.69979
-3.69888
-3.69781
-3.69658
-3.69521
-3.69369
-3.69202
-3.69019
-3.68819
-3.686
-3.68362
-3.68104
-3.67827
-3.67532
-3.6722
-3.66897
-3.66566
-3.66231
-3.65896
-3.65564
-3.8232
-3.82297
-3.82251
-3.82185
-3.82102
-3.82003
-3.81889
-3.81761
-3.8162
-3.81463
-3.81292
-3.81104
-3.809
-3.80679
-3.80442
-3.80188
-3.7992
-3.79639
-3.79348
-3.79051
-3.78751
-3.78452
-3.78157
-3.9453
-3.94509
-3.94467
-3.94407
-3.94331
-3.94241
-3.94136
-3.94019
-3.93887
-3.93743
-3.93583
-3.9341
-3.93221
-3.93018
-3.928
-3.92569
-3.92326
-3.92073
-3.91811
-3.91545
-3.91278
-3.91011
-3.90749
-4.06756
-4.06737
-4.06699
-4.06644
-4.06575
-4.06494
-4.06399
-4.06292
-4.06171
-4.06038
-4.05892
-4.05732
-4.0556
-4.05374
-4.05175
-4.04966
-4.04746
-4.04518
-4.04284
-4.04046
-4.03807
-4.0357
-4.03337
-4.18998
-4.18982
-4.18948
-4.18898
-4.18837
-4.18763
-4.18677
-4.18579
-4.1847
-4.18349
-4.18215
-4.1807
-4.17912
-4.17744
-4.17564
-4.17375
-4.17177
-4.16972
-4.16763
-4.16551
-4.16338
-4.16128
-4.15922
-4.31256
-4.31242
-4.31212
-4.31169
-4.31114
-4.31047
-4.30969
-4.30881
-4.30782
-4.30672
-4.30551
-4.3042
-4.30277
-4.30125
-4.29963
-4.29793
-4.29616
-4.29433
-4.29247
-4.29058
-4.2887
-4.28683
-4.28501
-4.43531
-4.43519
-4.43493
-4.43456
-4.43407
-4.43347
-4.43276
-4.43196
-4.43107
-4.43008
-4.42899
-4.4278
-4.42652
-4.42516
-4.42371
-4.42219
-4.42062
-4.41899
-4.41734
-4.41567
-4.41401
-4.41237
-4.41077
-4.5582
-4.55811
-4.55789
-4.55758
-4.55714
-4.55659
-4.55596
-4.55524
-4.55443
-4.55354
-4.55256
-4.5515
-4.55036
-4.54915
-4.54786
-4.54652
-4.54513
-4.54369
-4.54224
-4.54077
-4.53932
-4.53788
-4.53648
-4.68124
-4.68117
-4.68098
-4.68072
-4.68033
-4.67984
-4.67926
-4.67862
-4.67789
-4.67709
-4.67622
-4.67528
-4.67427
-4.6732
-4.67207
-4.67089
-4.66967
-4.66842
-4.66715
-4.66588
-4.66461
-4.66336
-4.66215
-4.8044
-4.80435
-4.8042
-4.80397
-4.80363
-4.80319
-4.80267
-4.80208
-4.80143
-4.80072
-4.79995
-4.79912
-4.79824
-4.79731
-4.79633
-4.79531
-4.79425
-4.79317
-4.79208
-4.79098
-4.78989
-4.78882
-4.78779
-4.92767
-4.92764
-4.92752
-4.92733
-4.92702
-4.92661
-4.92614
-4.92561
-4.92503
-4.9244
-4.92373
-4.92302
-4.92226
-4.92146
-4.92062
-4.91975
-4.91886
-4.91794
-4.91701
-4.91608
-4.91516
-4.91425
-4.91338
-5.05102
-5.051
-5.05091
-5.05074
-5.05046
-5.05009
-5.04966
-5.04918
-5.04868
-5.04814
-5.04757
-5.04696
-5.04632
-5.04565
-5.04495
-5.04422
-5.04348
-5.04271
-5.04194
-5.04117
-5.04041
-5.03966
-5.03894
-5.17442
-5.17442
-5.17434
-5.17418
-5.17393
-5.17359
-5.1732
-5.17279
-5.17236
-5.17191
-5.17144
-5.17094
-5.17042
-5.16987
-5.1693
-5.16871
-5.16811
-5.16749
-5.16687
-5.16625
-5.16564
-5.16504
-5.16447
-5.29785
-5.29787
-5.2978
-5.29764
-5.29739
-5.29708
-5.29675
-5.29641
-5.29606
-5.2957
-5.29533
-5.29494
-5.29453
-5.29411
-5.29367
-5.29322
-5.29275
-5.29228
-5.2918
-5.29133
-5.29086
-5.2904
-5.28997
-5.42128
-5.42135
-5.42129
-5.42108
-5.42081
-5.42056
-5.4203
-5.42003
-5.41978
-5.41951
-5.41924
-5.41896
-5.41867
-5.41837
-5.41805
-5.41773
-5.4174
-5.41707
-5.41673
-5.41639
-5.41606
-5.41575
-5.41545
-5.54468
-5.54485
-5.5449
-5.54453
-5.54419
-5.544
-5.54383
-5.54365
-5.5435
-5.54334
-5.54317
-5.543
-5.54282
-5.54263
-5.54244
-5.54225
-5.54205
-5.54185
-5.54165
-5.54146
-5.54126
-5.54107
-5.54091
-5.66799
-5.66839
-5.66889
-5.66806
-5.66765
-5.66745
-5.66736
-5.66727
-5.66721
-5.66715
-5.66709
-5.66703
-5.66697
-5.66691
-5.66684
-5.66677
-5.6667
-5.66664
-5.66658
-5.66652
-5.66646
-5.66641
-5.66636
578.802
572.654
565.96
559.68
450.234
444.303
438.558
433.032
332.823
327.252
321.765
316.5
245.548
240.494
234.904
229.812
177.065
171.912
167.155
162.827
111.338
105.854
100.696
95.7335
46.1849
41.1944
36.4185
31.9791
6.57303
4.61006
2.88255
1.63692
-0.954185
-1.10455
-1.18589
-1.23421
-1.44556
-1.43918
-1.44362
-1.45283
-1.61492
-1.59758
-1.59504
-1.60308
-1.783
-1.76826
-1.75721
-1.75325
-1.93817
-1.92499
-1.91429
-1.90646
-2.0829
-2.07134
-2.06157
-2.05336
-2.22371
-2.21379
-2.20459
-2.19682
-2.36501
-2.35723
-2.34927
-2.34181
-2.50445
-2.49866
-2.49193
-2.48535
-2.63946
-2.6349
-2.62966
-2.62441
-2.77099
-2.76689
-2.76259
-2.75785
-2.89801
-2.8944
-2.8905
-2.88641
-3.023
-3.01985
-3.01668
-3.0135
-3.14863
-3.14592
-3.14326
-3.14064
-3.27462
-3.27231
-3.27004
-3.26784
-3.40076
-3.39877
-3.39683
-3.39495
-3.52699
-3.52525
-3.52356
-3.52194
-3.65323
-3.65171
-3.65023
-3.6488
-3.77945
-3.7781
-3.7768
-3.77555
-3.90561
-3.90443
-3.90328
-3.90217
-4.03171
-4.03067
-4.02965
-4.02867
-4.15775
-4.15682
-4.15593
-4.15506
-4.28372
-4.2829
-4.28212
-4.28135
-4.40963
-4.40892
-4.40822
-4.40755
-4.53549
-4.53486
-4.53426
-4.53367
-4.66129
-4.66075
-4.66023
-4.65972
-4.78705
-4.78659
-4.78614
-4.7857
-4.91276
-4.91238
-4.912
-4.91163
-5.03844
-5.03812
-5.03781
-5.03751
-5.16407
-5.16382
-5.16358
-5.16334
-5.28967
-5.28948
-5.2893
-5.28912
-5.41525
-5.41512
-5.415
-5.41488
-5.5408
-5.54073
-5.54067
-5.54061
-5.66635
-5.66634
-5.66634
-5.66634
549.298
533.94
525.781
520.716
518.078
519.462
520.12
520.446
524.19
530.902
535.29
535.038
538.284
545.02
554.594
565.588
565.277
562.142
566.6
423.752
411.25
403.866
397.838
393.569
392.994
393.761
396.54
400.855
406.341
411.005
412.514
417.77
425.345
434.045
442.987
441.872
444.824
454.364
308.586
300.305
294.026
288.771
284.819
285.041
286.673
290.513
295.312
298.417
300.495
303.113
307.235
313.535
321.094
328.288
331.473
338.132
348.013
222.781
215.703
210.707
207.318
205.788
206.387
208.041
210.961
213.252
215.793
219.05
222.186
225.24
230.527
237.178
243.555
248.393
251.642
256.881
155.987
148.904
144.471
141.935
140.996
140.553
142.242
144.089
146.028
148.575
151.918
156.157
160.797
166.007
171.675
177.246
182.748
186.62
190.454
88.1791
80.7998
76.2176
74.5188
74.1248
73.5458
75.0012
77.2055
79.5603
81.967
85.5373
90.3542
96.2566
102.83
109.659
116.25
122.434
127.785
131.228
26.3226
22.2907
20.515
19.6899
19.1441
18.6672
18.7508
19.5556
21.2384
23.6408
26.4219
30.094
35.222
41.8381
49.2064
56.8002
63.5298
68.4181
71.6999
0.397758
0.167204
0.431999
0.171722
-0.206196
-0.390015
-0.533546
-0.592876
-0.42656
0.135365
0.808019
1.78879
3.19806
5.68813
9.27206
14.6905
20.1701
23.427
25.6116
-1.2665
-1.28244
-1.30765
-1.31121
-1.3131
-1.31664
-1.31692
-1.3094
-1.29756
-1.30282
-1.29248
-1.26147
-1.18881
-1.09466
-0.893272
0.118268
2.0503
3.3906
3.6842
-1.44134
-1.43837
-1.44697
-1.4501
-1.4505
-1.45304
-1.45434
-1.45408
-1.45899
-1.46888
-1.47537
-1.48497
-1.50153
-1.50832
-1.55307
-1.69133
-1.76917
-1.67081
-1.29042
-1.6002
-1.593
-1.59296
-1.59327
-1.59292
-1.59389
-1.59637
-1.60019
-1.60743
-1.61612
-1.62514
-1.63773
-1.65716
-1.68957
-1.73932
-1.81868
-1.87422
-1.85994
-1.85721
-1.74839
-1.74232
-1.73983
-1.73831
-1.73714
-1.73754
-1.73972
-1.744
-1.75052
-1.75915
-1.77092
-1.78675
-1.80662
-1.8393
-1.88068
-1.92207
-1.94787
-1.96034
-1.96491
-1.89729
-1.88921
-1.88462
-1.88124
-1.87904
-1.87914
-1.88164
-1.88643
-1.89325
-1.90196
-1.91334
-1.92798
-1.94629
-1.97359
-2.00638
-2.03645
-2.05226
-2.06088
-2.06456
-2.04236
-2.03293
-2.02679
-2.02226
-2.02022
-2.02119
-2.02453
-2.02996
-2.0369
-2.04484
-2.0535
-2.06415
-2.07916
-2.10118
-2.12822
-2.152
-2.16466
-2.1713
-2.17264
-2.18548
-2.17551
-2.16874
-2.16459
-2.16343
-2.16526
-2.16921
-2.17482
-2.18116
-2.18605
-2.191
-2.19855
-2.2116
-2.22993
-2.25127
-2.26878
-2.28081
-2.28783
-2.28788
-2.3307
-2.32005
-2.31287
-2.30926
-2.30812
-2.30938
-2.31257
-2.31658
-2.31996
-2.32293
-2.32678
-2.33405
-2.34672
-2.36269
-2.37792
-2.38993
-2.39995
-2.40528
-2.40685
-2.47554
-2.4651
-2.45737
-2.45307
-2.45106
-2.45084
-2.45195
-2.45324
-2.4542
-2.45718
-2.4624
-2.47084
-2.4811
-2.49311
-2.5033
-2.51205
-2.5201
-2.52544
-2.52826
-2.61593
-2.6061
-2.59851
-2.59328
-2.59073
-2.58885
-2.58788
-2.58769
-2.58832
-2.59117
-2.59689
-2.60516
-2.61344
-2.62183
-2.62948
-2.63666
-2.6429
-2.64787
-2.65023
-2.74979
-2.74103
-2.73457
-2.72979
-2.72631
-2.72371
-2.72226
-2.72237
-2.72363
-2.72602
-2.73058
-2.73689
-2.7439
-2.75096
-2.75716
-2.76211
-2.76607
-2.76996
-2.77171
-2.87969
-2.87223
-2.8667
-2.86272
-2.85901
-2.85662
-2.85529
-2.85577
-2.85752
-2.86026
-2.86386
-2.86794
-2.87282
-2.87803
-2.88261
-2.88646
-2.88954
-2.89228
-2.89343
-3.00834
-3.00216
-2.99726
-2.99343
-2.99045
-2.98843
-2.98714
-2.9873
-2.98878
-2.99139
-2.99466
-2.99789
-3.00164
-3.00519
-3.00855
-3.01156
-3.01407
-3.01596
-3.01648
-3.13647
-3.13135
-3.12702
-3.1236
-3.12099
-3.11918
-3.11813
-3.11805
-3.11903
-3.12092
-3.12345
-3.12633
-3.1295
-3.13249
-3.13526
-3.13741
-3.13939
-3.14079
-3.14101
-3.26434
-3.25998
-3.25623
-3.25318
-3.25085
-3.24922
-3.24829
-3.24813
-3.24878
-3.25014
-3.25204
-3.25429
-3.25675
-3.25922
-3.26159
-3.26347
-3.26488
-3.26602
-3.26644
-3.39194
-3.38818
-3.38491
-3.38222
-3.38014
-3.37867
-3.37782
-3.37762
-3.37804
-3.37903
-3.38046
-3.38217
-3.38405
-3.38597
-3.38773
-3.38924
-3.39025
-3.39117
-3.39185
-3.51933
-3.51605
-3.51318
-3.51081
-3.50895
-3.50763
-3.50684
-3.50659
-3.50685
-3.50756
-3.50864
-3.50995
-3.51137
-3.51277
-3.51401
-3.51505
-3.51584
-3.51652
-3.51704
-3.64651
-3.64364
-3.64112
-3.63901
-3.63735
-3.63615
-3.63541
-3.63513
-3.63527
-3.63578
-3.63658
-3.63758
-3.63867
-3.63971
-3.64059
-3.64128
-3.64181
-3.64221
-3.64249
-3.77353
-3.77099
-3.76876
-3.76689
-3.7654
-3.76431
-3.76362
-3.76331
-3.76335
-3.76371
-3.76432
-3.76509
-3.76593
-3.76671
-3.76734
-3.76778
-3.76807
-3.76825
-3.76835
-3.90039
-3.89813
-3.89615
-3.89448
-3.89315
-3.89216
-3.8915
-3.89118
-3.89117
-3.89141
-3.89187
-3.89247
-3.89312
-3.89372
-3.89417
-3.89443
-3.89455
-3.89456
-3.89457
-4.02709
-4.02509
-4.02333
-4.02184
-4.02064
-4.01973
-4.01912
-4.0188
-4.01874
-4.0189
-4.01925
-4.01972
-4.02023
-4.02069
-4.021
-4.02113
-4.02113
-4.02104
-4.02104
-4.15366
-4.15189
-4.15032
-4.14899
-4.14791
-4.14708
-4.14651
-4.14619
-4.14609
-4.14619
-4.14645
-4.14682
-4.14722
-4.14757
-4.14778
-4.14782
-4.14774
-4.14759
-4.14759
-4.28012
-4.27854
-4.27715
-4.27596
-4.27499
-4.27423
-4.2737
-4.27339
-4.27326
-4.2733
-4.27347
-4.27375
-4.27407
-4.27432
-4.27445
-4.27443
-4.2743
-4.27413
-4.27413
-4.40646
-4.40507
-4.40384
-4.40278
-4.4019
-4.40122
-4.40072
-4.40041
-4.40025
-4.40023
-4.40032
-4.4005
-4.40075
-4.40092
-4.40098
-4.4009
-4.40077
-4.40063
-4.4006
-4.53272
-4.53149
-4.53041
-4.52947
-4.52868
-4.52806
-4.5276
-4.52728
-4.52709
-4.527
-4.52701
-4.52711
-4.52724
-4.52734
-4.52734
-4.52725
-4.52714
-4.52707
-4.52703
-4.65889
-4.65783
-4.65688
-4.65605
-4.65535
-4.65478
-4.65435
-4.65403
-4.65381
-4.65366
-4.65358
-4.65356
-4.6536
-4.65362
-4.65358
-4.65351
-4.65345
-4.65344
-4.65344
-4.78499
-4.78408
-4.78326
-4.78254
-4.78192
-4.78141
-4.781
-4.78069
-4.78045
-4.78026
-4.7801
-4.77998
-4.7799
-4.77984
-4.77977
-4.77972
-4.77973
-4.77981
-4.77986
-4.91104
-4.91026
-4.90956
-4.90894
-4.9084
-4.90795
-4.90758
-4.90728
-4.90704
-4.90684
-4.90667
-4.90645
-4.90624
-4.90607
-4.90597
-4.90596
-4.90603
-4.90621
-4.90632
-5.03702
-5.03638
-5.0358
-5.03528
-5.03482
-5.03443
-5.0341
-5.03383
-5.0336
-5.03341
-5.03325
-5.03303
-5.03269
-5.03238
-5.03223
-5.03224
-5.03238
-5.03266
-5.03284
-5.16295
-5.16245
-5.16198
-5.16156
-5.16119
-5.16086
-5.16058
-5.16035
-5.16014
-5.15996
-5.1598
-5.15962
-5.15928
-5.15888
-5.15854
-5.15856
-5.1588
-5.1592
-5.15945
-5.28883
-5.28846
-5.28811
-5.2878
-5.28751
-5.28726
-5.28704
-5.28685
-5.28667
-5.28651
-5.28636
-5.28619
-5.28595
-5.28558
-5.28506
-5.28497
-5.28536
-5.28591
-5.28627
-5.41468
-5.41444
-5.4142
-5.41399
-5.4138
-5.41363
-5.41347
-5.41333
-5.4132
-5.41308
-5.41295
-5.41281
-5.41263
-5.41238
-5.4119
-5.41167
-5.41224
-5.41298
-5.41351
-5.54051
-5.54039
-5.54027
-5.54016
-5.54007
-5.53997
-5.53989
-5.53981
-5.53973
-5.53966
-5.53958
-5.5395
-5.53941
-5.53927
-5.53909
-5.53859
-5.53972
-5.5406
-5.54162
-5.66634
-5.66635
-5.66636
-5.66636
-5.66636
-5.66635
-5.66634
-5.66632
-5.66631
-5.66629
-5.66628
-5.66628
-5.66631
-5.66637
-5.66674
-5.66695
-5.66892
-5.66876
-5.67155
)
;

boundaryField
{
    leftWall
    {
        type            calculated;
        value           nonuniform List<scalar> 
50
(
4892.61
4093.09
3290.33
2484.37
1675.37
1074.22
849.554
789.122
694.509
565.791
453.003
371.959
307.89
245.069
183.955
125.441
70.6933
25.2254
0.435205
-1.58759
-2.02823
-2.26365
-2.33818
-2.46997
-2.6015
-2.72693
-2.84975
-2.97168
-3.0933
-3.21479
-3.33627
-3.45782
-3.57947
-3.70126
-3.8232
-3.9453
-4.06756
-4.18998
-4.31256
-4.43531
-4.5582
-4.68124
-4.8044
-4.92767
-5.05102
-5.17442
-5.29785
-5.42128
-5.54468
-5.66799
)
;
    }
    rightWall
    {
        type            calculated;
        value           nonuniform List<scalar> 
50
(
2457.85
1705.32
1127.96
885.71
827.4
772.693
714.101
655.194
566.6
454.364
348.013
256.881
190.454
131.228
71.6999
25.6116
3.6842
-1.29042
-1.85721
-1.96491
-2.06456
-2.17264
-2.28788
-2.40685
-2.52826
-2.65023
-2.77171
-2.89343
-3.01648
-3.14101
-3.26644
-3.39185
-3.51704
-3.64249
-3.76835
-3.89457
-4.02104
-4.14759
-4.27413
-4.4006
-4.52703
-4.65344
-4.77986
-4.90632
-5.03284
-5.15945
-5.28627
-5.41351
-5.54162
-5.67155
)
;
    }
    lowerWall
    {
        type            calculated;
        value           nonuniform List<scalar> 
62
(
5290.76
5304.45
5332.16
5373.73
5428.01
5492.6
5563.76
5636.65
5706.14
5767.67
5817.93
5854.75
5876.99
5884.91
5879.74
5864.24
5841.83
5816.16
5790.56
5767.41
5748.33
5734.68
5727.28
5329.14
4529.76
3728.37
2925.54
2121.7
1343.81
838.048
679.954
642.684
637.332
629.602
622.814
2923.35
2144.74
1434.01
974.677
811.443
755.199
696.534
638.186
3308.95
3356.42
3395.74
3392.54
3344.92
3253.73
3138.12
3024.58
2930.01
2861.22
2817.61
2797.02
2793.67
2797.64
2803.66
2806.33
2817.83
2832.69
2843.69
)
;
    }
    atmosphere
    {
        type            calculated;
        value           nonuniform List<scalar> 
46
(
-5.72925
-5.7305
-5.7322
-5.72969
-5.72909
-5.72905
-5.72906
-5.72906
-5.72906
-5.72906
-5.72905
-5.72905
-5.72905
-5.72905
-5.72904
-5.72904
-5.72904
-5.72904
-5.72904
-5.72904
-5.72904
-5.72904
-5.72906
-5.7291
-5.72913
-5.72917
-5.72921
-5.72927
-5.72935
-5.72943
-5.72949
-5.72955
-5.72959
-5.72961
-5.72962
-5.72963
-5.72964
-5.72965
-5.72967
-5.72973
-5.72987
-5.73015
-5.72952
-5.73455
-5.73227
-5.74221
)
;
    }
    defaultFaces
    {
        type            empty;
    }
}


// ************************************************************************* //
