/*--------------------------------*- C++ -*----------------------------------*\
| =========                 |                                                 |
| \\      /  F ield         | OpenFOAM: The Open Source CFD Toolbox           |
|  \\    /   O peration     | Version:  2312                                  |
|   \\  /    A nd           | Website:  www.openfoam.com                      |
|    \\/     M anipulation  |                                                 |
\*---------------------------------------------------------------------------*/
FoamFile
{
    version     2.0;
    format      ascii;
    arch        "LSB;label=32;scalar=64";
    class       volScalarField;
    location    "6";
    object      p_rgh;
}
// * * * * * * * * * * * * * * * * * * * * * * * * * * * * * * * * * * * * * //

dimensions      [1 -1 -2 0 0 0 0];

internalField   nonuniform List<scalar> 
2268
(
5290.76
5304.45
5332.16
5373.73
5428.01
5492.6
5563.76
5636.65
5706.14
5767.67
5817.93
5854.75
5876.99
5884.91
5879.74
5864.24
5841.83
5816.16
5790.56
5767.41
5748.33
5734.68
5727.28
5287.54
5301.06
5328.84
5370.67
5425.52
5490.98
5563.25
5637.33
5707.85
5770.15
5820.89
5857.89
5879.94
5887.36
5881.31
5864.85
5841.57
5815.2
5789.14
5765.67
5746.31
5732.13
5724.2
5281.08
5294.44
5322.34
5364.76
5420.78
5488.01
5562.51
5638.92
5711.47
5775.26
5826.89
5864.2
5885.76
5892.21
5884.44
5866.19
5841.25
5813.5
5786.5
5762.38
5742.53
5727.63
5719.12
5271.42
5284.74
5312.93
5356.27
5414.02
5483.79
5561.47
5641.18
5716.63
5782.52
5835.58
5873.62
5894.65
5900.16
5890.19
5869.6
5842.35
5812.47
5783.88
5758.61
5737.91
5722.02
5712.59
5253.86
5267.08
5294.72
5338.07
5398.78
5474.59
5558.75
5643.26
5722.51
5791.34
5846.75
5886.49
5906.96
5912.27
5899.97
5876.76
5846.49
5813.18
5781.69
5754.68
5733.22
5715.81
5702.84
3194.13
3262.66
3420.32
3667.58
3990.58
4355.11
4730.31
5080.2
5368.35
5582.95
5741.41
5859.62
5913.93
5917.97
5881.7
5832.87
5733.36
5619.97
5550.73
5506
5487.98
5465.81
5442.53
1233.74
1236.89
1246.71
1272.49
1334.11
1462.8
1679.68
1978.41
2339.34
2710.8
3048.59
3313.61
3490.61
3554.23
3497.31
3355.77
3220.44
3064.12
2885.4
2736.15
2616.86
2532.98
2499.63
1230.35
1230.99
1231.87
1232.24
1231.3
1228.77
1224.95
1220.41
1215.47
1210.56
1205.52
1201
1200.47
1190.84
1176.6
1170.14
1166.36
1163.05
1156.49
1147.71
1137.9
1127.04
1115.63
3308.95
3356.42
3395.74
3392.54
3344.92
3253.73
3138.12
3024.58
2930.01
2861.22
2817.61
2797.02
2793.67
2797.64
2803.66
2806.33
2817.83
2832.69
2843.69
3285.32
3355.06
3406.62
3407.32
3358.93
3263.88
3139.24
3013.62
2910.07
2839.03
2791.35
2761.35
2756.54
2762.82
2768.61
2750.66
2765.98
2791.28
2810.8
2974.1
3107.02
3224.45
3235.9
3169.89
3029.27
2795.38
2574.71
2363.48
2162.7
2053.83
2021.4
2047.81
2071.81
2092.77
2113.83
2135.9
2161.07
2183.69
1907
2141.44
2361.59
2380.18
2229.69
1841.21
1482.66
1216.77
1096.98
1080.44
1073.93
1075.84
1067.01
1049.08
1042.17
1142.71
1118.98
1109.37
1111.77
1042.84
1048.99
1046.39
1047.63
1036.94
1028.16
1040.65
1057.88
1065.78
1087.55
1099.52
1102.41
1088.79
1071.77
1067.5
1016.16
1067.08
1082.4
1054.16
1066.05
1078.12
1076.81
1073.32
1054.16
1038.92
1048.86
1060.15
1068.4
1134.28
1096.91
1106.09
1095.02
1080.6
1090.51
1043.44
1058.07
1089.57
1085.35
1071.35
1088.84
1088.54
1083.31
1071.77
1049.32
1055.36
1060.48
1067.92
1113.52
1074.61
1044.98
1074.86
1082.55
1093.26
1033.53
1102.19
1101.06
1088.89
1080.99
1085.78
1081.69
1085.88
1078.22
1055.15
1054.61
1059.14
1068.36
1074.11
1026.1
1055.3
1064.81
1080.82
1053.82
1033.01
1108.33
1093.73
1087.21
1227.72
1228.47
1229.85
1230.36
1227.83
1226.05
1222.77
1218.94
1214.89
1211.08
1207.03
1202.66
1197.83
1193.55
1189.15
1184.62
1179.17
1172.38
1163.63
1152.98
1141.16
1129.92
1124.84
1209.98
1217.9
1225.4
1238.66
1237.24
1213.31
1209.37
1204.37
1198.16
1210.3
1210.07
1205.64
1199.71
1194
1189.65
1187.05
1181.98
1176.66
1165.99
1153.94
1141.8
1131.63
1139.21
1035.19
1047.1
1067.59
1091.58
1105.07
1130.8
1133.53
1151.28
1156.7
1155.41
1168.99
1179.79
1163.33
1165.25
1159.98
1185.27
1186.11
1163.08
1146.74
1093.34
1053.79
987.473
988.62
824.393
825.071
821.552
829.652
841.132
841.46
857.223
872.638
925.965
922.22
893.785
891.97
878.992
881.02
890.993
889.585
904.532
885.048
855.809
826.158
780.317
750.112
773.967
826.172
824.152
818.184
808.193
810.98
813.07
806.891
785.39
770.502
766.834
787.521
789.194
784.846
781.206
775.919
769.676
763.181
759.878
763.258
755.234
723.683
714.088
703.811
825.333
823.509
820.365
816.744
812.782
805.002
780.298
785.107
773.665
791.886
788.303
785.342
782.326
779.393
776.508
771.95
764.495
757.184
751.192
744.435
732.823
719.289
701.391
828.818
825.107
821.192
817.436
813.009
804.256
787.699
787.196
795.355
793.812
791
787.85
785.373
783.205
780.349
776.22
770.405
762.557
757.809
769.44
768.689
734.689
673.744
834.805
829.602
824.268
820.131
817.649
812.629
805.322
801.152
797.299
794.196
792.568
790.997
788.854
787.911
787.574
787.093
782.475
773.174
767.107
695.204
557.367
377.869
240.708
846.085
838.775
832.035
823.759
782.083
745.508
719.716
701.876
688.137
674.781
661.171
669.918
689.404
707.567
720.071
713.433
672.878
578.237
418.306
236.355
100.606
46.4993
18.8477
660.236
605
493.506
340.742
226.833
162.232
125.018
93.6013
66.4358
51.3922
45.6945
52.1693
71.689
97.0584
127.485
141.006
131.824
89.1472
44.3336
20.1127
9.11412
1.43806
0.321799
60.5205
39.3981
12.9975
5.33875
5.82694
5.46362
3.29413
1.85905
0.273634
-0.0505069
-0.0920786
-0.109604
-0.0867626
0.897796
1.85254
0.777026
0.898784
-0.216971
1.6836
-0.095973
-0.0394524
0.0691227
0.163967
6.1772
2.35386
1.09306
0.280443
0.156757
0.0644722
0.00152282
-0.0374211
-0.061475
-0.0821544
-0.0999125
-0.117131
-0.111074
0.0279345
-0.119222
-0.151335
-0.155772
-0.158742
-0.128356
-0.0739845
-0.0195431
0.0681948
0.192978
0.00992558
0.0197557
-0.00236121
-0.0614564
-0.119102
-0.100782
-0.0923636
-0.0810542
-0.0736233
-0.0767834
-0.0859182
-0.101225
-0.114339
-0.109866
-0.084153
-0.0553106
-0.0776789
-0.0859803
-0.077375
-0.0388462
0.0365066
0.0936535
0.136216
-0.101174
-0.0936005
-0.114232
-0.0983991
-0.0734991
-0.0771336
-0.0787967
-0.0762194
-0.0750785
-0.0781957
-0.0834494
-0.0882043
-0.0929003
-0.0860632
-0.0777917
-0.0622028
-0.0504379
-0.0396248
-0.0180598
0.0317317
0.0723138
0.0548732
0.0622701
-0.0508551
-0.0487457
-0.0412117
-0.0459928
-0.050766
-0.0624671
-0.0694085
-0.0730244
-0.0747128
-0.0760967
-0.0773862
-0.0780962
-0.0776604
-0.0790777
-0.0763949
-0.0662885
-0.0489301
-0.0376601
0.0123859
0.0336901
0.0150181
0.0414144
0.0521212
-0.0580451
-0.0564995
-0.0541063
-0.0551416
-0.0575872
-0.0634143
-0.0676842
-0.0701429
-0.0713227
-0.071877
-0.0720291
-0.0718501
-0.0708138
-0.0690044
-0.0662455
-0.0602795
-0.0472806
-0.037798
-0.00527936
-0.0118949
0.0202608
0.107161
0.0413586
-0.0646366
-0.0636882
-0.0619396
-0.061113
-0.0613815
-0.063257
-0.0649332
-0.065949
-0.0663874
-0.0663697
-0.0659399
-0.0650171
-0.063408
-0.0609446
-0.0578407
-0.0529871
-0.0453335
-0.0301498
-0.0213604
-0.0154407
0.0530533
0.107679
0.0478262
-0.0650281
-0.0642508
-0.0628209
-0.0616286
-0.0609619
-0.0610687
-0.0613035
-0.0613421
-0.0611156
-0.0605949
-0.0596923
-0.0583298
-0.0564104
-0.0537725
-0.0503228
-0.0455522
-0.0386715
-0.0277212
-0.0218108
-0.0144257
0.0200065
0.106442
0.115752
-0.0626812
-0.0620293
-0.0608714
-0.0596636
-0.0586583
-0.0579853
-0.0574298
-0.0568166
-0.0560579
-0.055082
-0.0538013
-0.0521202
-0.0499575
-0.0471775
-0.0436053
-0.0390303
-0.0330566
-0.0255443
-0.0190593
-0.0123598
-0.00423886
0.0214885
0.0758201
-0.0594404
-0.0589222
-0.0579636
-0.0568232
-0.0556807
-0.0546279
-0.0536112
-0.0525523
-0.0513888
-0.0500537
-0.0484667
-0.0465387
-0.0441868
-0.0412991
-0.037744
-0.0334209
-0.0282244
-0.0223041
-0.0162289
-0.0100002
-0.00370664
0.00622018
0.0137651
-0.0558659
-0.0554436
-0.0546232
-0.0535618
-0.0523831
-0.051159
-0.0498932
-0.0485596
-0.0471228
-0.0455348
-0.0437273
-0.041626
-0.0391555
-0.0362297
-0.0327601
-0.0286965
-0.0240321
-0.0188793
-0.0133963
-0.00770785
-0.00170802
0.00566432
0.0147305
-0.0521663
-0.0518168
-0.0510889
-0.0501047
-0.0489444
-0.0476653
-0.0462887
-0.0448136
-0.0432224
-0.0414815
-0.0395419
-0.0373444
-0.0348281
-0.0319303
-0.0285947
-0.0247934
-0.0205369
-0.0158952
-0.010957
-0.00577705
-0.000373312
0.00547376
0.0126286
-0.0484609
-0.048161
-0.0475064
-0.0465958
-0.0454821
-0.0442126
-0.0428121
-0.0412888
-0.0396353
-0.0378299
-0.0358376
-0.0336152
-0.031118
-0.0283021
-0.0251321
-0.0215934
-0.0177001
-0.0134967
-0.00904708
-0.00440538
0.000359883
0.00512317
0.0114455
-0.0448151
-0.0445532
-0.0439571
-0.0431181
-0.0420655
-0.0408425
-0.0394724
-0.037965
-0.0363171
-0.0345149
-0.0325345
-0.0303463
-0.0279194
-0.0252252
-0.0222424
-0.0189649
-0.0154062
-0.0115999
-0.00759641
-0.00345447
0.000732286
0.00494404
0.00949741
-0.0412758
-0.0410406
-0.0404897
-0.0397285
-0.0387411
-0.037585
-0.0362787
-0.0348285
-0.0332324
-0.0314821
-0.0295617
-0.0274517
-0.0251326
-0.0225869
-0.0198034
-0.0167819
-0.0135357
-0.0100923
-0.00649228
-0.00278663
0.000959896
0.00470835
0.00852049
-0.0378713
-0.0376625
-0.0371588
-0.0364446
-0.0355354
-0.0344591
-0.033238
-0.03187
-0.0303553
-0.0286895
-0.0268618
-0.0248604
-0.0226738
-0.0202928
-0.0177135
-0.0149396
-0.0119845
-0.00887221
-0.00563641
-0.00232093
0.00103253
0.00439392
0.00773121
-0.0346169
-0.034432
-0.0339685
-0.0333059
-0.0324649
-0.0314683
-0.0303553
-0.0290828
-0.0276665
-0.0261049
-0.0243905
-0.0225164
-0.020477
-0.018269
-0.0158934
-0.0133567
-0.0106725
-0.00786208
-0.00495409
-0.00198419
0.00101564
0.00400966
0.00696441
-0.0315196
-0.0313563
-0.0309291
-0.0303154
-0.0295121
-0.0286092
-0.0276322
-0.0264604
-0.0251509
-0.0237038
-0.0221138
-0.0203772
-0.0184923
-0.0164597
-0.0142838
-0.011973
-0.00954088
-0.00700669
-0.00439512
-0.00173482
0.000944824
0.00361154
0.00623187
-0.0285829
-0.0284353
-0.0280287
-0.027421
-0.0264816
-0.0259448
-0.0250632
-0.023996
-0.0227955
-0.0214665
-0.020005
-0.0184097
-0.0166813
-0.0148229
-0.0128407
-0.0107443
-0.00854725
-0.00626714
-0.00392558
-0.00154655
0.000843573
0.00321613
0.00554123
-0.0258085
-0.0256555
-0.025141
-0.023928
-0.0233292
-0.0234743
-0.0226461
-0.0216786
-0.0205882
-0.0193762
-0.0180428
-0.0165881
-0.0150146
-0.0133265
-0.0115309
-0.00963786
-0.00766061
-0.00561543
-0.00352154
-0.00139972
0.000726982
0.00283327
0.00489353
-0.0231912
-0.0229984
-0.0221509
-0.0201122
-0.0206441
-0.0211331
-0.0203794
-0.0195028
-0.0185162
-0.0174182
-0.0162091
-0.0148916
-0.0134688
-0.0119456
-0.0103289
-0.00862872
-0.00685767
-0.00503083
-0.00316541
-0.00128027
0.000605407
0.00246975
0.00429005
-0.0207284
-0.0205145
-0.0194761
-0.0174778
-0.0188514
-0.0189293
-0.0182511
-0.0174604
-0.0165709
-0.0155797
-0.0144892
-0.0133028
-0.0120251
-0.0106602
-0.00921455
-0.00769737
-0.0061204
-0.00449747
-0.00284411
-0.00117721
0.000486709
0.00212884
0.00373009
-0.0184074
-0.0180363
-0.0162791
-0.0155412
-0.0172363
-0.0168618
-0.0162486
-0.0155411
-0.0147397
-0.013847
-0.012868
-0.011807
-0.0106675
-0.00945442
-0.00817162
-0.00682818
-0.00543446
-0.00400286
-0.00254737
-0.00108293
0.000375694
0.00181297
0.00321248
-0.0162336
-0.0156085
-0.0133348
-0.0145854
-0.0153133
-0.0149071
-0.014351
-0.0137223
-0.0130032
-0.0122042
-0.0113316
-0.0103895
-0.00938086
-0.00831503
-0.00718674
-0.00600843
-0.00478829
-0.00353705
-0.0022671
-0.000991664
0.000275881
0.0015226
0.00273521
-0.0141562
-0.0133243
-0.010932
-0.0127198
-0.0133784
-0.0130396
-0.0125479
-0.0119885
-0.0113458
-0.0106362
-0.00986623
-0.00903933
-0.00815833
-0.00722726
-0.0062486
-0.00522772
-0.0041726
-0.00309212
-0.00199706
-0.000899074
0.000189805
0.00125861
0.00229526
-0.0122209
-0.0111868
-0.00887591
-0.0109228
-0.0115818
-0.0112348
-0.0108074
-0.010318
-0.00975051
-0.00912842
-0.00845852
-0.0077434
-0.00698495
-0.00618588
-0.00534863
-0.00447823
-0.00358007
-0.00266189
-0.00173247
-0.000801926
0.00011931
0.00102118
0.00189444
-0.0103237
-0.00890399
-0.0068952
-0.00951685
-0.00984738
-0.00947975
-0.00912353
-0.00869626
-0.00820286
-0.00766781
-0.00709671
-0.00649102
-0.00585174
-0.0051806
-0.00448008
-0.00375339
-0.0030052
-0.00224166
-0.00146986
-0.000698109
6.45041e-05
0.000809203
0.0015271
-0.00852733
-0.00630298
-0.00504043
-0.0078981
-0.00811361
-0.00775422
-0.00747712
-0.0071073
-0.00668966
-0.00624274
-0.00577045
-0.00527299
-0.00475045
-0.004204
-0.00363548
-0.00304742
-0.00244363
-0.00182817
-0.00120691
-0.000586504
2.55279e-05
0.000621017
0.001192
-0.00674904
-0.00469624
-0.00342722
-0.004797
-0.00626297
-0.00605737
-0.00584456
-0.00553681
-0.00519935
-0.00484319
-0.00447074
-0.00408112
-0.00367389
-0.00324962
-0.0028097
-0.00235623
-0.00189165
-0.00141896
-0.000942401
-0.000466981
1.19923e-06
0.000455738
0.000885792
-0.00500458
-0.00399161
-0.00163212
-0.00267968
-0.00434622
-0.00440969
-0.00421966
-0.003972
-0.00372282
-0.00346078
-0.0031897
-0.00290827
-0.00261561
-0.00231181
-0.00199783
-0.00167538
-0.0013463
-0.00101214
-0.000675508
-0.000339871
-9.81519e-06
0.000307725
0.000603945
-0.00322476
-0.0022226
4.41565e-05
-0.00103437
-0.00268039
-0.00271468
-0.00257427
-0.00240289
-0.0022558
-0.00208825
-0.00192018
-0.00174771
-0.00156957
-0.0013853
-0.00119563
-0.00100175
-0.000806036
-0.000606475
-0.000406574
-0.000207418
-1.14798e-05
0.00017989
0.000341187
-0.00134408
-0.000504631
0.00068425
-0.000968149
-0.00116008
-0.00100369
-0.00091809
-0.000828888
-0.000770934
-0.000710239
-0.000650128
-0.000589254
-0.000526695
-0.000462495
-0.000396609
-0.000329386
-0.000261623
-0.000198213
-0.00013531
-7.26014e-05
-1.52703e-05
3.17516e-05
8.00735e-05
1123.21
1123.85
1108.33
1097.72
1151.16
1138.82
1110.34
1098.23
986.103
954.978
959.054
968.067
799.966
762.72
730.855
697.293
714.915
728.863
688.889
680.909
692.26
686.874
681.439
676.948
636.113
609.342
585.926
557.911
161.845
131.342
99.0928
62.8832
9.63461
4.00244
2.6572
0.428487
0.240589
0.323085
0.289272
0.249283
0.2113
0.239808
0.304596
0.314672
0.206675
0.300896
0.309087
0.309578
0.136015
0.178495
0.198878
0.145625
0.0810579
0.0973118
0.119573
0.119051
0.069388
0.153847
0.225255
0.211355
0.112448
0.243922
0.266151
0.273373
0.113346
0.228179
0.256954
0.274901
0.125352
0.178875
0.204817
0.204962
0.0976938
0.138311
0.113808
0.0689098
0.0197176
0.0225407
0.0234219
0.0306602
0.0195836
0.0213718
0.0246007
0.0261354
0.0182006
0.0215437
0.0240796
0.0266643
0.0154535
0.0175483
0.0217024
0.0245869
0.0128657
0.014841
0.0171271
0.0199331
0.0113121
0.0130719
0.0148291
0.0165504
0.0101579
0.011691
0.0131799
0.0146139
0.00909468
0.0104362
0.0117376
0.0129939
0.00811319
0.00929589
0.0104437
0.0115528
0.0072041
0.00824875
0.00926271
0.0102435
0.00636316
0.00728536
0.00818114
0.00904813
0.00558615
0.00639908
0.00718869
0.00795368
0.00486847
0.00558197
0.00627594
0.00694849
0.00420658
0.00482955
0.00543553
0.00602334
0.00359645
0.00413548
0.00466074
0.00517061
0.00303505
0.00349475
0.00394321
0.00437946
0.00251268
0.00289969
0.0032774
0.0036445
0.00203375
0.00235131
0.00266084
0.00296212
0.00159328
0.00184435
0.0020894
0.00232774
0.00118681
0.00137473
0.00155775
0.00173628
0.000808023
0.000934053
0.001057
0.00117638
0.000449287
0.000515854
0.000579408
0.000640612
9.70273e-05
0.00010402
0.000106942
0.000107295
1087.26
1070.36
1057.57
1057.1
1061.24
1061.09
1060.23
1062.21
1098.73
1061.65
1044.41
1057.75
1060.85
1061.74
1054.28
1064.99
1108.02
1083.83
1075.97
1079.02
1039.79
1019.39
1039.02
1046.37
1041.94
1021.11
976.516
964.122
1007.1
1049.88
1044.19
1048.11
1057.16
1087.41
1122.64
1116.56
1088.26
1061.95
950.072
926.546
893.78
873.657
854.047
834.186
823.548
859.912
887.071
891.478
868.978
869.388
919.499
956.405
949.144
944.511
939.026
1019.53
1055.81
695.291
704.143
688.791
674.036
646.243
667.747
666.896
669.644
677.632
706.477
703.262
694.924
688.425
703.216
729.363
777.068
769.484
775.393
826.516
674.441
668.262
664.492
650.544
647.484
657.473
660.436
668.635
675.378
676.014
680.68
680.369
683.29
691.579
706.061
714.055
732.488
721.93
730.797
671.968
680.666
681.672
666.822
658.819
656.449
657.283
658.754
660.909
668.024
677.266
681.597
684.519
689.971
698.207
707.501
714.105
723.127
768.525
503.165
436.511
383.29
378.512
385.786
384.498
393.823
416.433
445.536
469.694
500.875
536.736
589.872
636.713
675.752
701.748
730.48
795.213
818.919
34.0461
29.8915
38.0527
31.655
22.91
18.7473
15.3837
13.1005
15.9081
30.4592
45.5727
65.9945
95.9768
151.007
225.658
304.224
374.219
409.423
468.196
0.286902
0.252958
0.227425
0.224518
0.223714
0.219174
0.219567
0.413073
0.815906
0.829543
0.908839
1.87597
3.97263
5.80867
10.2189
44.3814
100.243
147.823
149.107
0.238485
0.226535
0.21955
0.223558
0.221679
0.21118
0.206045
0.206148
0.203391
0.191769
0.191033
0.177132
0.162153
0.445734
0.68523
0.026786
-0.03522
2.70753
15.0545
0.295094
0.20783
0.215583
0.225611
0.215081
0.205667
0.193152
0.18531
0.178121
0.171407
0.203747
0.23603
0.186329
0.182839
0.332407
0.0500143
-0.0591314
-0.056174
-0.0467188
0.236248
0.177313
0.188067
0.205682
0.197863
0.186827
0.178693
0.167013
0.162685
0.165031
0.15581
0.190663
0.190949
0.153863
0.197551
0.167094
0.10055
0.0111447
0.0153452
0.139935
0.147927
0.152
0.155619
0.161047
0.16507
0.160044
0.152843
0.161238
0.167146
0.142727
0.117965
0.111768
0.107307
0.107279
0.223489
0.218229
0.16933
0.1051
0.124971
0.135476
0.136354
0.152037
0.189168
0.223475
0.226684
0.208256
0.200908
0.190121
0.134666
0.105732
0.106643
0.094234
0.109731
0.125674
0.26172
0.203087
0.122906
0.193915
0.193037
0.165995
0.221294
0.258533
0.251833
0.246251
0.232622
0.181038
0.131876
0.117563
0.141752
0.198369
0.217009
0.136814
0.130356
0.219965
0.0933366
0.128825
0.297738
0.263444
0.24604
0.272249
0.27067
0.249052
0.231731
0.201229
0.104762
0.101796
0.136587
0.218697
0.214976
0.193251
0.11932
0.079151
0.0619348
0.0732442
0.153832
0.270573
0.270585
0.249181
0.235534
0.253392
0.213132
0.155794
0.127233
0.0964308
0.0937544
0.168011
0.215522
0.196664
0.122147
0.0731034
0.0741285
0.0999998
0.148708
0.146699
0.162053
0.158738
0.200484
0.195813
0.177506
0.138191
0.115282
0.131851
0.152786
0.130382
0.113835
0.121333
0.178323
0.196409
0.187871
0.139208
0.0769344
0.102404
0.0766928
0.0393526
0.0589507
0.0968921
0.152979
0.0788063
0.0837186
0.0809955
0.126371
0.159279
0.170016
0.164021
0.100404
0.0917822
0.105402
0.0848323
0.0729639
0.0565843
0.0305535
0.0342158
0.0363861
0.0402405
0.0641846
0.0559846
0.0625005
0.0653591
0.0665701
0.0647588
0.0790261
0.121204
0.132488
0.112174
0.102136
0.071956
0.0606562
0.0695
0.0659825
0.0403956
0.0250074
0.0300443
0.0358812
0.0403664
0.0467939
0.0499267
0.0535171
0.0533714
0.0516463
0.0489075
0.0462405
0.046374
0.0650761
0.0904846
0.0809297
0.0740995
0.0720124
0.0739436
0.0664924
0.0540738
0.0291638
0.0326119
0.0358636
0.0391853
0.0422023
0.0438339
0.0444607
0.0445387
0.0441105
0.0422034
0.0393389
0.0363899
0.0337424
0.0481057
0.0710762
0.0718723
0.0649786
0.0654427
0.0680002
0.0263649
0.0290703
0.0320813
0.0347608
0.0369762
0.0385848
0.039505
0.0396575
0.0390029
0.0376867
0.0359224
0.0337094
0.0311617
0.0286306
0.0262611
0.0541348
0.0404843
0.0356801
0.0675388
0.02271
0.0253648
0.0283161
0.0308578
0.0328879
0.0343344
0.0351711
0.0353685
0.0349351
0.0339481
0.0325509
0.0308655
0.0290096
0.0271011
0.0253178
0.023883
0.0240631
0.0243829
0.0367048
0.0192342
0.0223271
0.0250719
0.0273867
0.0292339
0.0305516
0.031332
0.0315784
0.0313159
0.0306038
0.0295388
0.0282429
0.0268456
0.0254727
0.0242529
0.0232535
0.0227625
0.0226076
0.0284738
0.0168806
0.0197365
0.0222413
0.0243413
0.0259984
0.0271962
0.027933
0.0282192
0.0280844
0.0275808
0.0267856
0.025799
0.0247387
0.0237299
0.0228646
0.0222
0.0217353
0.0217489
0.025844
0.0150093
0.0175463
0.0197741
0.021645
0.023132
0.0242231
0.0249182
0.0252302
0.0251878
0.0248369
0.024242
0.0234861
0.0226742
0.0219234
0.0213108
0.0208967
0.0206533
0.0209041
0.0258611
0.0133367
0.0155896
0.0175691
0.0192385
0.0205758
0.0215707
0.022224
0.0225489
0.0225723
0.022334
0.0218892
0.0213087
0.0206784
0.020109
0.01968
0.0194803
0.0194849
0.0204041
0.0256746
0.0118231
0.0138237
0.015585
0.0170767
0.0182807
0.0191884
0.0198006
0.02013
0.0202011
0.0200461
0.0197157
0.0192712
0.0187859
0.0183443
0.0180567
0.0180302
0.018492
0.0202201
0.0249224
0.010446
0.0122223
0.0137897
0.0151232
0.0162078
0.0170361
0.01761
0.0179414
0.0180515
0.0179577
0.0177197
0.0173876
0.0170199
0.0166907
0.0164897
0.0166255
0.0174866
0.0206723
0.0205423
0.00918827
0.0107634
0.0121564
0.0133474
0.0143241
0.0150806
0.0156189
0.015952
0.0161047
0.0160667
0.0159067
0.01568
0.0154181
0.0151937
0.0150562
0.0151966
0.0166981
0.0196291
0.0183788
0.00803524
0.00942855
0.0106624
0.0117235
0.0126016
0.0132927
0.0137993
0.0141389
0.0143611
0.0144314
0.0142819
0.0141694
0.0140307
0.0139374
0.0138298
0.0139625
0.0150382
0.0183066
0.0154678
0.00697256
0.00820161
0.00928665
0.0102278
0.0110153
0.0116461
0.0121236
0.0124706
0.012781
0.0130787
0.0129256
0.0128885
0.0128373
0.0128397
0.0127954
0.0128774
0.0133976
0.0142463
0.0138487
0.00599562
0.00705981
0.00801069
0.00884131
0.00954472
0.0101194
0.0105696
0.0109168
0.0112678
0.0118852
0.0123057
0.0123394
0.0118425
0.0119303
0.0117978
0.0118202
0.011669
0.0123009
0.0125877
0.00508679
0.00600015
0.00682297
0.00754829
0.00817079
0.00868959
0.00910999
0.0094436
0.00976516
0.0107163
0.014835
0.0165148
0.0114088
0.0112833
0.0114789
0.0108001
0.0112216
0.012593
0.0113967
0.00424066
0.00501178
0.00571168
0.00633486
0.00687691
0.00733717
0.00772106
0.00803865
0.00833104
0.00909814
0.0157579
0.0205881
0.015542
0.0102126
0.0117277
0.0122647
0.0129371
0.0127819
0.00989835
0.00345196
0.00408669
0.00466757
0.00518983
0.00564967
0.00604668
0.00638531
0.00667464
0.00693352
0.00735017
0.00954825
0.0195758
0.020785
0.0119288
0.00983055
0.0120781
0.0125266
0.0110953
0.0083988
0.00271599
0.00321776
0.00368225
0.00410321
0.00447788
0.00480581
0.00509097
0.00534141
0.00556974
0.00580116
0.00630877
0.00991974
0.0199122
0.0204787
0.0100771
0.00986984
0.0113128
0.00896978
0.00695117
0.00202823
0.002395
0.00274593
0.00306425
0.00334988
0.00360283
0.00382627
0.00402696
0.0042141
0.00439496
0.00457871
0.00501091
0.00986561
0.0189215
0.0215208
0.00999121
0.00845022
0.0061354
0.0102896
0.00137044
0.00161746
0.00184952
0.00206243
0.00225539
0.00242884
0.00258476
0.0027274
0.00286374
0.003003
0.00315115
0.00333498
0.00351726
0.0083362
0.0183339
0.0176328
0.00671465
0.00458078
0.0111965
0.000738843
0.000862511
0.000977516
0.00108395
0.00118263
0.00127422
0.0013596
0.00144019
0.0015188
0.00160069
0.00169355
0.00180054
0.00191618
0.00199212
0.00349685
0.0143284
0.00656033
0.00250615
0.0083516
0.000104853
9.57676e-05
8.74728e-05
8.25066e-05
8.28404e-05
8.89712e-05
0.000101244
0.000118046
0.00013744
0.000156691
0.000173179
0.000178217
0.000150938
8.23873e-05
-0.000298489
-0.000511098
0.00297778
0.00088295
0.00791248
)
;

boundaryField
{
    leftWall
    {
        type            fixedFluxPressure;
        gradient        uniform 0;
        value           nonuniform List<scalar> 
50
(
5290.76
5287.54
5281.08
5271.42
5253.86
3194.13
1233.74
1230.35
1227.72
1209.98
1035.19
824.393
826.172
825.333
828.818
834.805
846.085
660.236
60.5205
6.1772
0.00992558
-0.101174
-0.0508551
-0.0580451
-0.0646366
-0.0650281
-0.0626812
-0.0594404
-0.0558659
-0.0521663
-0.0484609
-0.0448151
-0.0412758
-0.0378713
-0.0346169
-0.0315196
-0.0285829
-0.0258085
-0.0231912
-0.0207284
-0.0184074
-0.0162336
-0.0141562
-0.0122209
-0.0103237
-0.00852733
-0.00674904
-0.00500458
-0.00322476
-0.00134408
)
;
    }
    rightWall
    {
        type            fixedFluxPressure;
        gradient        uniform 0;
        value           nonuniform List<scalar> 
50
(
2843.69
2810.8
2183.69
1111.77
1054.16
1085.35
1088.89
1087.21
1075.97
1061.95
1055.81
826.516
730.797
768.525
818.919
468.196
149.107
15.0545
-0.0467188
0.0153452
0.1051
0.122906
0.128825
0.153832
0.146699
0.0766928
0.0342158
0.0250074
0.0540738
0.0680002
0.0675388
0.0367048
0.0284738
0.025844
0.0258611
0.0256746
0.0249224
0.0205423
0.0183788
0.0154678
0.0138487
0.0125877
0.0113967
0.00989835
0.0083988
0.00695117
0.0102896
0.0111965
0.0083516
0.00791248
)
;
    }
    lowerWall
    {
        type            fixedFluxPressure;
        gradient        uniform 0;
        value           nonuniform List<scalar> 
62
(
5290.76
5304.45
5332.16
5373.73
5428.01
5492.6
5563.76
5636.65
5706.14
5767.67
5817.93
5854.75
5876.99
5884.91
5879.74
5864.24
5841.83
5816.16
5790.56
5767.41
5748.33
5734.68
5727.28
5727.28
5724.2
5719.12
5712.59
5702.84
5442.53
2499.63
1115.63
1123.21
1123.85
1108.33
1097.72
3308.95
3285.32
2974.1
1907
1042.84
1066.05
1071.35
1080.99
3308.95
3356.42
3395.74
3392.54
3344.92
3253.73
3138.12
3024.58
2930.01
2861.22
2817.61
2797.02
2793.67
2797.64
2803.66
2806.33
2817.83
2832.69
2843.69
)
;
    }
    atmosphere
    {
        type            totalPressure;
        rho             rho;
        psi             none;
        gamma           1;
        p0              uniform 0;
        value           nonuniform List<scalar> 
46
(
0
0
0
0
-4.12325e-07
-1.12399e-05
-2.19418e-05
-2.1583e-05
-1.99034e-05
-1.7111e-05
-1.40444e-05
-1.0963e-05
-8.01292e-06
-5.31299e-06
-2.99687e-06
-1.19822e-06
-1.37752e-07
0
0
0
0
-1.91011e-07
-1.76651e-05
-5.97766e-05
-9.40185e-05
-0.000131121
-0.000168267
-0.000227794
-0.000312865
-0.000389571
-0.000454809
-0.000506739
-0.000545071
-0.000570129
-0.000583879
-0.000590626
-0.000595728
-0.000605119
-0.000631539
-0.000689469
-0.000831228
-0.00110954
-0.000480451
0
0
0
)
;
    }
    defaultFaces
    {
        type            empty;
    }
}


// ************************************************************************* //
