/*--------------------------------*- C++ -*----------------------------------*\
| =========                 |                                                 |
| \\      /  F ield         | OpenFOAM: The Open Source CFD Toolbox           |
|  \\    /   O peration     | Version:  2312                                  |
|   \\  /    A nd           | Website:  www.openfoam.com                      |
|    \\/     M anipulation  |                                                 |
\*---------------------------------------------------------------------------*/
FoamFile
{
    version     2.0;
    format      ascii;
    arch        "LSB;label=32;scalar=64";
    class       surfaceScalarField;
    location    "6";
    object      phi;
}
// * * * * * * * * * * * * * * * * * * * * * * * * * * * * * * * * * * * * * //

dimensions      [0 3 -1 0 0 0 0];

oriented        oriented;

internalField   nonuniform List<scalar> 
4432
(
-4.4129e-07
4.41249e-07
-1.19283e-06
7.5151e-07
-1.99686e-06
8.04008e-07
-2.84188e-06
8.45018e-07
-3.70576e-06
8.63872e-07
-4.56106e-06
8.553e-07
-5.36706e-06
8.05997e-07
-6.07032e-06
7.03251e-07
-6.64405e-06
5.73733e-07
-7.05769e-06
4.13638e-07
-7.29717e-06
2.39481e-07
-7.33968e-06
4.25118e-08
-7.15867e-06
-1.81004e-07
-6.75026e-06
-4.08397e-07
-6.15831e-06
-5.91928e-07
-5.45258e-06
-7.05698e-07
-4.70051e-06
-7.52035e-07
-3.98603e-06
-7.14445e-07
-3.30147e-06
-6.84514e-07
-2.62796e-06
-6.73474e-07
-1.94894e-06
-6.78977e-07
-1.24609e-06
-7.02806e-07
-1.24609e-06
-8.00271e-07
1.24143e-06
-1.54699e-06
1.49815e-06
-2.33978e-06
1.59672e-06
-3.17625e-06
1.68142e-06
-4.04245e-06
1.73001e-06
-4.89721e-06
1.71e-06
-5.69947e-06
1.60822e-06
-6.40674e-06
1.4105e-06
-6.97061e-06
1.13759e-06
-7.37586e-06
8.18891e-07
-7.60695e-06
4.70582e-07
-7.64021e-06
7.57885e-08
-7.44288e-06
-3.78315e-07
-7.01412e-06
-8.3714e-07
-6.39213e-06
-1.21389e-06
-5.64151e-06
-1.4563e-06
-4.8609e-06
-1.53262e-06
-4.10424e-06
-1.47107e-06
-3.38616e-06
-1.40254e-06
-2.65364e-06
-1.40595e-06
-1.89628e-06
-1.43628e-06
-1.08582e-06
-1.51321e-06
-2.33178e-06
-8.51304e-07
2.09267e-06
-1.60931e-06
2.25609e-06
-2.41761e-06
2.40497e-06
-3.27728e-06
2.54103e-06
-4.17117e-06
2.62385e-06
-5.0589e-06
2.5977e-06
-5.89133e-06
2.44063e-06
-6.62022e-06
2.13938e-06
-7.20868e-06
1.72606e-06
-7.63075e-06
1.24097e-06
-7.87744e-06
7.17283e-07
-7.92571e-06
1.24067e-07
-7.73417e-06
-5.69856e-07
-7.28366e-06
-1.28765e-06
-6.62309e-06
-1.87448e-06
-5.8333e-06
-2.2461e-06
-4.99693e-06
-2.36901e-06
-4.2012e-06
-2.26682e-06
-3.4383e-06
-2.16546e-06
-2.65027e-06
-2.194e-06
-1.82218e-06
-2.26439e-06
-9.51589e-07
-2.38379e-06
-3.2834e-06
-7.77261e-07
2.86982e-06
-1.52525e-06
3.00398e-06
-2.32737e-06
3.207e-06
-3.19908e-06
3.41267e-06
-4.11267e-06
3.53739e-06
-5.02962e-06
3.51464e-06
-5.89623e-06
3.30726e-06
-6.66829e-06
2.91149e-06
-7.30167e-06
2.35952e-06
-7.76903e-06
1.70842e-06
-8.0614e-06
1.00973e-06
-8.1555e-06
2.18229e-07
-7.98941e-06
-7.35925e-07
-7.52748e-06
-1.7496e-06
-6.84326e-06
-2.55876e-06
-6.01032e-06
-3.07917e-06
-5.13816e-06
-3.24131e-06
-4.31432e-06
-3.09081e-06
-3.50125e-06
-2.97869e-06
-2.65443e-06
-3.04096e-06
-1.74988e-06
-3.16908e-06
-8.16715e-07
-3.31709e-06
-4.10025e-06
-6.31856e-07
3.50169e-06
-1.3081e-06
3.68023e-06
-2.06323e-06
3.96216e-06
-2.90786e-06
4.25733e-06
-3.81425e-06
4.44382e-06
-4.7463e-06
4.44673e-06
-5.67053e-06
4.23154e-06
-6.52775e-06
3.76877e-06
-7.25991e-06
3.09173e-06
-7.81767e-06
2.26623e-06
-8.19084e-06
1.38293e-06
-8.3597e-06
3.87093e-07
-8.23451e-06
-8.61128e-07
-7.78415e-06
-2.2e-06
-7.14972e-06
-3.19325e-06
-6.38058e-06
-3.84837e-06
-5.52501e-06
-4.09696e-06
-4.65011e-06
-3.96578e-06
-3.73297e-06
-3.8959e-06
-2.7952e-06
-3.97881e-06
-1.80606e-06
-4.15828e-06
-7.90721e-07
-4.33251e-06
-4.89097e-06
-7.02202e-07
4.20361e-06
-1.44687e-06
4.42473e-06
-2.2294e-06
4.74458e-06
-2.99013e-06
5.01799e-06
-3.78249e-06
5.23618e-06
-4.60086e-06
5.26514e-06
-5.35805e-06
4.98881e-06
-6.03223e-06
4.44305e-06
-6.6014e-06
3.66099e-06
-7.07524e-06
2.74015e-06
-7.45827e-06
1.76603e-06
-7.71202e-06
6.4089e-07
-7.8745e-06
-6.98634e-07
-7.91973e-06
-2.15476e-06
-7.76133e-06
-3.35168e-06
-7.30714e-06
-4.30264e-06
-6.51327e-06
-4.8909e-06
-5.38378e-06
-5.09536e-06
-4.16635e-06
-5.11343e-06
-3.04129e-06
-5.10395e-06
-1.96305e-06
-5.23662e-06
-8.76639e-07
-5.41899e-06
-5.76774e-06
-3.18953e-07
4.52228e-06
-7.74804e-07
4.88021e-06
-1.48414e-06
5.45362e-06
-2.41268e-06
5.94634e-06
-3.97907e-06
6.80247e-06
-5.97313e-06
7.25916e-06
-7.63501e-06
6.6507e-06
-8.8146e-06
5.62266e-06
-9.65701e-06
4.50344e-06
-1.02296e-05
3.31282e-06
-1.05675e-05
2.10397e-06
-1.05688e-05
6.42196e-07
-1.03805e-05
-8.86801e-07
-9.95267e-06
-2.58255e-06
-9.2714e-06
-4.03288e-06
-8.40449e-06
-5.16954e-06
-7.27041e-06
-6.02498e-06
-5.86461e-06
-6.5012e-06
-4.48219e-06
-6.49591e-06
-3.15986e-06
-6.42637e-06
-1.86736e-06
-6.52923e-06
-7.02475e-07
-6.58406e-06
-6.47039e-06
-6.4873e-07
5.17078e-06
-1.27569e-06
5.50705e-06
-1.96597e-06
6.14385e-06
-2.35151e-06
6.33186e-06
-2.97095e-06
7.42191e-06
-4.21813e-06
8.50634e-06
-5.57849e-06
8.01103e-06
-6.68626e-06
6.73037e-06
-7.46617e-06
5.28328e-06
-7.76972e-06
3.61633e-06
-7.63126e-06
1.96548e-06
-7.66816e-06
6.79087e-07
-8.28142e-06
-2.73523e-07
-9.2985e-06
-1.56543e-06
-9.84027e-06
-3.49106e-06
-9.16237e-06
-5.84738e-06
-7.75684e-06
-7.43044e-06
-6.24957e-06
-8.00839e-06
-4.61794e-06
-8.12747e-06
-2.87952e-06
-8.16471e-06
-1.29936e-06
-8.10936e-06
-5.10633e-07
-7.3728e-06
-6.98097e-06
1.86577e-06
-1.86567e-06
3.71516e-06
-1.8493e-06
4.92749e-06
-1.21228e-06
5.26569e-06
-3.38201e-07
4.66438e-06
6.01282e-07
3.4337e-06
1.23066e-06
2.12692e-06
1.30676e-06
1.02509e-06
1.10183e-06
1.79462e-07
8.45627e-07
-5.6804e-07
7.47502e-07
-9.64549e-07
3.96503e-07
-1.0126e-06
4.80446e-08
-7.30894e-07
-2.81712e-07
-3.85612e-07
-3.45288e-07
1.29634e-07
-5.15253e-07
4.33363e-07
-3.03733e-07
5.64322e-07
-1.30962e-07
4.80784e-07
8.35382e-08
4.80787e-07
2.4094e-06
-4.27498e-06
4.15355e-06
-3.59337e-06
5.25214e-06
-2.31083e-06
5.36245e-06
-4.48504e-07
4.53238e-06
1.43134e-06
3.05969e-06
2.70332e-06
1.54671e-06
2.81973e-06
4.26042e-07
2.2225e-06
-2.28533e-07
1.50021e-06
-7.8153e-07
1.3005e-06
-1.008e-06
6.22967e-07
-8.67033e-07
-9.29414e-08
-5.46109e-07
-6.02658e-07
-3.8618e-07
-5.05235e-07
-2.89635e-07
-6.11813e-07
-3.73947e-08
-5.55993e-07
-1.33636e-08
-1.55007e-07
-8.39419e-08
1.54099e-07
3.96827e-07
2.30307e-06
-6.578e-06
4.32787e-06
-5.61815e-06
5.53949e-06
-3.52244e-06
5.48248e-06
-3.91502e-07
4.36256e-06
2.55125e-06
2.36261e-06
4.70328e-06
1.55305e-07
5.02702e-06
-1.64865e-06
4.02646e-06
-2.63305e-06
2.4846e-06
-1.73573e-06
4.0317e-07
-5.26262e-07
-5.86529e-07
-1.13831e-07
-5.05393e-07
2.571e-08
-7.42219e-07
-1.05503e-07
-3.74032e-07
-5.89554e-07
-1.27789e-07
-5.75285e-07
-5.70267e-07
-7.96117e-07
6.58142e-08
-6.10562e-07
-3.14591e-08
-2.13714e-07
1.37928e-06
-7.95726e-06
3.54023e-06
-7.77906e-06
5.48058e-06
-5.46272e-06
7.20956e-06
-2.12043e-06
7.77174e-06
1.98915e-06
6.4515e-06
6.02352e-06
3.96423e-06
7.51429e-06
-7.99423e-07
8.7901e-06
-5.06591e-06
6.75107e-06
1.65362e-06
-6.31641e-06
8.34738e-06
-7.28034e-06
1.06203e-05
-2.77836e-06
8.19737e-06
1.6806e-06
4.31797e-06
3.50528e-06
7.94021e-07
3.39608e-06
-4.79233e-06
5.01601e-06
-2.44956e-06
-2.27705e-06
2.25939e-06
-4.74049e-06
2.04555e-06
2.20701e-07
-8.17804e-06
7.58651e-07
-8.31708e-06
-1.47114e-07
-4.557e-06
2.21756e-06
-4.4851e-06
2.56831e-06
1.63839e-06
-8.27256e-07
9.41899e-06
-3.31751e-06
1.00045e-05
-4.30167e-06
9.77423e-06
-3.29646e-06
5.74584e-06
3.33079e-06
-1.29437e-05
6.57024e-06
-1.05198e-05
9.26113e-06
-5.46926e-06
8.55642e-06
2.3853e-06
7.51321e-06
4.54848e-06
6.99646e-06
3.91282e-06
-4.96755e-06
1.698e-05
-2.76524e-06
-4.47935e-06
3.04929e-06
-1.0555e-05
5.09493e-06
-4.28615e-06
-3.89179e-06
-4.22671e-06
-8.37644e-06
-2.6646e-06
-6.11901e-06
3.28623e-07
-7.4782e-06
2.02052e-06
-5.33613e-08
-7.5135e-07
1.2191e-05
-2.34842e-06
1.16017e-05
-2.723e-06
1.01489e-05
-1.80702e-08
3.04093e-06
3.56783e-06
-1.65296e-05
2.97048e-06
-9.92248e-06
3.68389e-06
-6.1827e-06
3.87618e-06
2.19296e-06
4.13774e-06
4.28685e-06
3.93763e-06
4.11288e-06
-1.21778e-06
2.21354e-05
1.30353e-06
-7.00071e-06
2.86478e-06
-1.21163e-05
7.95959e-06
-2.30293e-06
-1.5888e-06
-2.76856e-06
-7.91071e-06
-2.46343e-06
-6.42403e-06
-1.82998e-06
-8.11152e-06
7.71003e-07
-2.65418e-06
9.22906e-07
1.20393e-05
5.25922e-07
1.19988e-05
1.36955e-06
9.3053e-06
3.81078e-06
5.99699e-07
1.32846e-06
-1.40473e-05
-1.87014e-06
-6.7239e-06
-1.43571e-06
-6.61716e-06
4.94219e-07
2.62978e-07
1.03562e-06
3.74538e-06
-4.04404e-07
5.55282e-06
-1.28553e-06
2.30164e-05
2.76303e-06
-1.10493e-05
2.97669e-06
-1.233e-05
1.09363e-05
-4.27017e-07
-1.16174e-06
-7.94201e-07
-7.54347e-06
-1.90626e-06
-5.3119e-06
-2.83127e-06
-7.18643e-06
-5.42312e-07
-4.94307e-06
2.18864e-06
9.30843e-06
3.02203e-06
1.11654e-05
3.87303e-06
8.45433e-06
5.096e-06
-6.23262e-07
-1.68757e-06
-7.26369e-06
-5.08035e-06
-3.33112e-06
-4.84e-06
-6.85751e-06
-4.13131e-06
-4.45735e-07
-4.49738e-06
4.11142e-06
-5.42847e-06
6.48386e-06
-1.55963e-06
1.91475e-05
2.03874e-06
-1.46477e-05
2.07793e-06
-1.23692e-05
1.30141e-05
-2.74619e-06
7.91714e-06
-5.12159e-06
7.88262e-06
-7.51527e-06
8.53772e-06
-9.65703e-06
8.47382e-06
-1.18475e-05
9.61254e-06
-1.4442e-05
1.1101e-05
-1.69502e-05
1.05194e-05
-1.84929e-05
8.27305e-06
-1.95292e-05
6.31969e-06
-1.95347e-05
3.6219e-06
-1.85083e-05
9.39092e-07
-1.68463e-05
-9.82915e-07
-1.51529e-05
-1.96695e-06
-1.41433e-05
-2.57509e-06
-1.40822e-05
-3.55236e-06
-1.42607e-05
-5.66892e-06
-1.43649e-05
-7.32636e-06
-1.42407e-05
-8.13258e-06
-1.36519e-05
-8.71624e-06
-1.26571e-05
-9.15939e-06
-1.13557e-05
-9.41072e-06
-9.8839e-06
-8.84446e-06
-7.98671e-06
-8.87804e-06
-1.94781e-06
9.86519e-06
-4.68319e-06
1.06182e-05
-7.74096e-06
1.15957e-05
-1.117e-05
1.19031e-05
-1.47802e-05
1.32228e-05
-1.77325e-05
1.40534e-05
-2.03996e-05
1.31866e-05
-2.18266e-05
9.70004e-06
-2.13173e-05
5.81034e-06
-2.07512e-05
3.05583e-06
-2.03959e-05
5.83685e-07
-1.97183e-05
-1.66054e-06
-1.90738e-05
-2.61146e-06
-1.84828e-05
-3.16605e-06
-1.84888e-05
-3.54623e-06
-1.89572e-05
-5.20044e-06
-1.98823e-05
-6.40113e-06
-2.1353e-05
-6.66178e-06
-2.22314e-05
-7.83766e-06
-2.23257e-05
-9.06499e-06
-2.11284e-05
-1.06079e-05
-1.93487e-05
-1.06242e-05
-1.22099e-05
-1.51253e-05
-9.1651e-07
1.0782e-05
-2.88542e-06
1.25874e-05
-6.13213e-06
1.48427e-05
-1.0252e-05
1.60231e-05
-1.36817e-05
1.66528e-05
-1.6082e-05
1.64538e-05
-1.81614e-05
1.5266e-05
-2.02825e-05
1.18211e-05
-2.01388e-05
5.66671e-06
-2.06428e-05
3.55979e-06
-2.20397e-05
1.9805e-06
-2.26588e-05
-1.04141e-06
-2.28643e-05
-2.40603e-06
-2.26452e-05
-3.38513e-06
-2.25578e-05
-3.63372e-06
-2.31551e-05
-4.60309e-06
-2.35115e-05
-6.0447e-06
-2.37697e-05
-6.40353e-06
-2.31963e-05
-8.41104e-06
-2.13925e-05
-1.08687e-05
-1.90008e-05
-1.29995e-05
-1.73497e-05
-1.2275e-05
-1.52077e-05
-1.43517e-05
-1.28715e-06
1.20696e-05
-2.42076e-06
1.37214e-05
-4.46522e-06
1.68874e-05
-7.23765e-06
1.87957e-05
-8.03743e-06
1.74527e-05
-8.27538e-06
1.66919e-05
-9.57036e-06
1.65611e-05
-1.26765e-05
1.49273e-05
-1.61477e-05
9.13803e-06
-1.85288e-05
5.94082e-06
-1.84334e-05
1.88507e-06
-1.80031e-05
-1.47174e-06
-1.71189e-05
-3.29037e-06
-1.61447e-05
-4.35937e-06
-1.49336e-05
-4.84487e-06
-1.47385e-05
-4.79831e-06
-1.47903e-05
-5.99286e-06
-1.42484e-05
-6.94549e-06
-1.3286e-05
-9.37343e-06
-1.14073e-05
-1.27473e-05
-1.06473e-05
-1.37594e-05
-1.07928e-05
-1.21295e-05
-1.46846e-05
-1.13158e-05
-2.1264e-06
1.41962e-05
-4.31577e-06
1.59109e-05
-5.6503e-06
1.82221e-05
-6.11096e-06
1.92565e-05
-6.17523e-06
1.75171e-05
-6.22826e-06
1.6745e-05
-8.22095e-06
1.85539e-05
-1.0313e-05
1.70194e-05
-1.35332e-05
1.23583e-05
-1.4315e-05
6.72262e-06
-1.27724e-05
3.42472e-07
-1.13134e-05
-2.93078e-06
-9.61516e-06
-4.98868e-06
-7.81012e-06
-6.16446e-06
-5.81706e-06
-6.83797e-06
-3.64701e-06
-6.96838e-06
-2.41975e-06
-7.22013e-06
-1.33956e-06
-8.02566e-06
-9.75044e-08
-1.06154e-05
4.71857e-07
-1.33166e-05
-8.73552e-07
-1.24139e-05
-3.05415e-06
-9.94868e-06
-9.85102e-06
-7.88758e-06
-3.29748e-06
1.74938e-05
-6.59237e-06
1.92059e-05
-8.88827e-06
2.0518e-05
-9.85452e-06
2.02228e-05
-1.06902e-05
1.83528e-05
-1.16733e-05
1.77282e-05
-1.29674e-05
1.9848e-05
-1.37149e-05
1.7767e-05
-1.36339e-05
1.22773e-05
-1.15679e-05
4.65669e-06
-1.0093e-05
-1.13252e-06
-8.30154e-06
-4.72231e-06
-6.33893e-06
-6.95134e-06
-4.15984e-06
-8.34358e-06
-1.82752e-06
-9.17027e-06
6.32709e-07
-9.42857e-06
2.60776e-06
-9.19512e-06
4.04525e-06
-9.4631e-06
4.59646e-06
-1.11666e-05
4.2942e-06
-1.30142e-05
3.86015e-06
-1.19796e-05
2.43882e-06
-8.52725e-06
-6.09471e-06
-1.31739e-06
-4.44951e-06
2.1943e-05
-8.73907e-06
2.34949e-05
-1.21616e-05
2.39402e-05
-1.46836e-05
2.27445e-05
-1.69017e-05
2.05709e-05
-1.84186e-05
1.92451e-05
-1.77304e-05
1.91597e-05
-1.62472e-05
1.62838e-05
-1.39283e-05
9.95839e-06
-1.20608e-05
2.78911e-06
-9.70188e-06
-3.49162e-06
-7.0258e-06
-7.39852e-06
-3.9998e-06
-9.97739e-06
-6.50698e-07
-1.16926e-05
2.82897e-06
-1.26498e-05
6.17125e-06
-1.27707e-05
8.92817e-06
-1.1952e-05
1.05795e-05
-1.11144e-05
1.07393e-05
-1.13262e-05
8.2206e-06
-1.04954e-05
5.12344e-06
-8.88229e-06
2.10055e-06
-5.50425e-06
-3.19855e-06
-7.95484e-07
-5.11312e-06
2.70556e-05
-9.83908e-06
2.82205e-05
-1.39091e-05
2.80098e-05
-1.74108e-05
2.6246e-05
-2.06575e-05
2.38174e-05
-2.23278e-05
2.09154e-05
-2.12669e-05
1.80988e-05
-1.86896e-05
1.37065e-05
-1.59638e-05
7.23254e-06
-1.36285e-05
4.53619e-07
-1.14895e-05
-5.6306e-06
-8.3346e-06
-1.05534e-05
-4.3276e-06
-1.39842e-05
2.74767e-07
-1.62947e-05
5.00511e-06
-1.73798e-05
9.18512e-06
-1.69505e-05
1.28829e-05
-1.56496e-05
1.54557e-05
-1.36871e-05
1.6011e-05
-1.18815e-05
1.30127e-05
-7.49709e-06
8.48236e-06
-4.3519e-06
4.78506e-06
-1.80673e-06
-1.47772e-06
3.0646e-06
-5.49242e-06
3.25481e-05
-1.09107e-05
3.36388e-05
-1.64278e-05
3.3527e-05
-2.16949e-05
3.1513e-05
-2.54458e-05
2.75682e-05
-2.61841e-05
2.16536e-05
-2.38959e-05
1.58105e-05
-2.04246e-05
1.0235e-05
-1.7648e-05
4.45599e-06
-1.54212e-05
-1.77282e-06
-1.32064e-05
-7.84492e-06
-9.45664e-06
-1.43027e-05
-4.60903e-06
-1.88314e-05
4.62028e-07
-2.13652e-05
5.59454e-06
-2.25117e-05
1.09402e-05
-2.22952e-05
1.65996e-05
-2.13083e-05
2.35645e-05
-2.06514e-05
3.17156e-05
-2.00322e-05
4.09848e-05
-1.67662e-05
4.35359e-05
-6.90309e-06
3.32695e-05
8.45981e-06
7.68828e-06
2.41037e-05
-2.86336e-06
3.54121e-05
-5.89581e-06
3.6672e-05
-1.13587e-05
3.89885e-05
-2.0011e-05
4.01635e-05
-2.64317e-05
3.39886e-05
-3.22366e-05
2.74551e-05
-3.44213e-05
1.79911e-05
-3.6429e-05
1.22378e-05
-3.83935e-05
6.41514e-06
-3.42822e-05
-5.88641e-06
-2.72771e-05
-1.48473e-05
-1.88131e-05
-2.27626e-05
-7.94117e-06
-2.96989e-05
2.17643e-06
-3.14804e-05
1.31576e-05
-3.34916e-05
2.5143e-05
-3.42807e-05
4.04913e-05
-3.66552e-05
5.90673e-05
-3.92228e-05
5.8129e-05
-1.90927e-05
4.87886e-05
-7.42647e-06
3.75121e-05
4.37264e-06
-1.34625e-06
4.73155e-05
2.40423e-05
-1.77006e-05
6.14029e-07
3.47961e-05
4.58435e-06
3.26933e-05
-9.47442e-06
5.30258e-05
-1.50593e-05
4.57317e-05
1.07626e-05
8.16248e-06
1.59625e-05
2.22499e-05
2.70088e-05
6.9411e-06
3.77543e-05
1.49058e-06
4.13918e-05
2.77656e-06
3.66177e-05
-1.11345e-06
2.54958e-05
-3.72673e-06
1.69594e-05
-1.42276e-05
9.98647e-06
-2.2728e-05
3.16418e-06
-2.46601e-05
-8.20093e-07
-2.95094e-05
6.36114e-06
-4.14645e-05
1.50198e-05
-4.53156e-05
7.79209e-06
-3.19961e-05
-1.06915e-05
-6.09378e-07
-3.43087e-05
1.61901e-05
-3.7978e-05
8.04133e-06
-1.56828e-05
2.50199e-05
1.41133e-05
-5.75338e-06
1.09015e-05
2.38907e-05
7.42361e-06
3.61631e-05
3.26536e-05
2.77961e-05
6.76288e-05
1.07614e-05
7.8207e-05
-2.41344e-06
7.62291e-05
2.42313e-05
6.69842e-05
1.61901e-05
5.38844e-05
1.45949e-05
4.41214e-05
1.25441e-05
3.55968e-05
7.41245e-06
2.94507e-05
2.41532e-06
2.22365e-05
-7.0194e-06
1.55269e-05
-1.60246e-05
1.44712e-05
-2.36088e-05
7.63047e-06
-2.26722e-05
-4.53004e-06
-2.93053e-05
-2.10219e-05
-2.8826e-05
-3.58001e-05
-1.72227e-05
-4.0226e-05
3.81512e-06
-3.62718e-05
1.22363e-05
-3.42513e-05
6.02113e-06
-1.57104e-05
6.48102e-06
4.22935e-07
-2.01951e-06
-1.68306e-06
2.55763e-05
9.33212e-06
2.51569e-05
3.78529e-05
-7.01901e-07
4.67986e-05
1.83561e-06
1.94738e-05
2.49181e-05
2.33318e-05
2.03796e-05
2.21967e-05
1.73292e-05
2.08342e-05
1.59588e-05
2.20406e-05
1.13379e-05
2.47255e-05
4.72692e-06
2.64728e-05
6.66922e-07
2.16101e-05
-2.15802e-06
1.42602e-05
-8.67583e-06
9.0252e-06
-1.83746e-05
4.12093e-06
-1.77682e-05
-8.78768e-06
-1.63969e-05
-2.46971e-05
-1.29168e-05
-3.52209e-05
-6.69901e-06
-3.38122e-05
2.40597e-06
-2.76848e-05
6.10878e-06
-2.01974e-05
-1.46584e-06
-1.12042e-05
-2.51158e-06
-3.35586e-06
-7.42514e-06
3.75442e-06
2.18241e-05
1.44366e-05
1.4481e-05
2.80312e-06
1.09361e-05
-3.48637e-06
8.12763e-06
3.29421e-06
1.81384e-05
7.31283e-06
1.63622e-05
1.00633e-05
1.45793e-05
1.38587e-05
1.21634e-05
1.7173e-05
8.02323e-06
1.85375e-05
3.36179e-06
1.82625e-05
9.4114e-07
1.68692e-05
-7.65537e-07
1.32135e-05
-5.02075e-06
5.8937e-06
-1.10551e-05
-1.76759e-06
-1.01069e-05
-1.00297e-05
-8.13436e-06
-1.78415e-05
-5.10466e-06
-2.42188e-05
-3.21528e-07
-2.42645e-05
2.45177e-06
-1.90348e-05
8.79183e-07
-1.62735e-05
-4.22696e-06
-1.38543e-05
-4.93085e-06
-2.35294e-06
-1.48566e-05
4.65712e-06
1.71665e-05
4.73363e-06
1.44046e-05
3.91505e-06
1.17546e-05
1.03261e-06
1.10101e-05
4.67871e-06
1.44923e-05
7.37012e-06
1.36706e-05
9.83814e-06
1.21109e-05
1.2127e-05
9.87411e-06
1.34074e-05
6.74224e-06
1.33987e-05
3.36991e-06
1.28682e-05
1.47116e-06
1.15414e-05
5.60727e-07
8.73433e-06
-2.21397e-06
3.48244e-06
-5.80336e-06
-1.69835e-06
-4.926e-06
-6.84276e-06
-2.98972e-06
-1.17784e-05
-1.68754e-07
-1.53007e-05
3.20098e-06
-1.55904e-05
2.74166e-06
-1.56896e-05
9.78391e-07
-1.75654e-05
-2.35104e-06
-1.69322e-05
-5.56354e-06
5.49158e-07
-1.98342e-05
2.38504e-06
1.47796e-05
3.61709e-06
1.31713e-05
3.71509e-06
1.16557e-05
3.39342e-06
1.13311e-05
5.50583e-06
1.23793e-05
7.38838e-06
1.17874e-05
9.05486e-06
1.04438e-05
1.0377e-05
8.5514e-06
1.09473e-05
6.17143e-06
1.06205e-05
3.6963e-06
9.91511e-06
2.17623e-06
9.00951e-06
1.46609e-06
6.99414e-06
-1.98756e-07
3.2166e-06
-2.02588e-06
-4.17449e-07
-1.2919e-06
-3.79108e-06
3.84057e-07
-6.7092e-06
2.74956e-06
-8.54887e-06
5.0408e-06
-1.05391e-05
4.73195e-06
-1.39861e-05
4.42549e-06
-1.62107e-05
-1.26315e-07
-1.6461e-05
-5.31341e-06
2.35624e-06
-1.82679e-05
1.86501e-06
1.29133e-05
2.96564e-06
1.20695e-05
3.37876e-06
1.12417e-05
3.79454e-06
1.09146e-05
5.20324e-06
1.097e-05
6.64827e-06
1.03418e-05
7.92167e-06
9.16986e-06
8.85448e-06
7.61809e-06
9.21445e-06
5.81107e-06
8.88842e-06
4.02204e-06
8.25436e-06
2.81009e-06
7.55081e-06
2.16951e-06
6.14641e-06
1.20556e-06
3.80454e-06
3.15973e-07
1.51312e-06
9.99545e-07
-6.06522e-07
2.50377e-06
-2.31551e-06
4.45864e-06
-3.40474e-06
6.13011e-06
-5.32017e-06
6.64739e-06
-8.38222e-06
7.48753e-06
-1.18422e-05
3.33351e-06
-1.34443e-05
-3.71087e-06
6.08169e-07
-1.16965e-05
1.37063e-06
1.15414e-05
2.31518e-06
1.11241e-05
2.96108e-06
1.05952e-05
3.64167e-06
1.02335e-05
4.72045e-06
9.89075e-06
5.86019e-06
9.20158e-06
6.86675e-06
8.16287e-06
7.59514e-06
6.88931e-06
7.89625e-06
5.50967e-06
7.71807e-06
4.20002e-06
7.26571e-06
3.26234e-06
6.74228e-06
2.69288e-06
5.83813e-06
2.10968e-06
4.41903e-06
1.73506e-06
3.09273e-06
2.32584e-06
2.02953e-06
3.56699e-06
1.35039e-06
5.13781e-06
9.83699e-07
6.4968e-06
2.85818e-07
7.34525e-06
-4.91125e-07
8.26443e-06
-3.75894e-06
6.60139e-06
-7.29673e-06
-1.73504e-07
-2.11491e-06
-4.57359e-06
1.03549e-06
1.05055e-05
1.84924e-06
1.03099e-05
2.53144e-06
9.91271e-06
3.25741e-06
9.50732e-06
4.14888e-06
8.99905e-06
5.08142e-06
8.26879e-06
5.91133e-06
7.3327e-06
6.5271e-06
6.27333e-06
6.83636e-06
5.20024e-06
6.80927e-06
4.227e-06
6.56969e-06
3.50188e-06
6.2407e-06
3.02186e-06
5.71122e-06
2.63916e-06
4.94396e-06
2.50233e-06
4.31441e-06
2.9554e-06
3.99767e-06
3.88373e-06
4.08153e-06
5.05394e-06
4.46669e-06
6.1116e-06
4.94452e-06
6.86735e-06
5.85622e-06
7.35265e-06
6.17594e-06
6.28152e-06
3.58735e-06
2.41535e-06
-1.92786e-06
3.39995e-06
7.67975e-07
9.73707e-06
1.43021e-06
9.64742e-06
2.05886e-06
9.28398e-06
2.73783e-06
8.82831e-06
3.50964e-06
8.22718e-06
4.30428e-06
7.47406e-06
5.02876e-06
6.60811e-06
5.59561e-06
5.70638e-06
5.94195e-06
4.85382e-06
6.05298e-06
4.11593e-06
6.00387e-06
3.55098e-06
5.87166e-06
3.15409e-06
5.6298e-06
2.88105e-06
5.31012e-06
2.82204e-06
5.1446e-06
3.12093e-06
5.29634e-06
3.73199e-06
5.84807e-06
4.50221e-06
6.7489e-06
5.21071e-06
7.94008e-06
5.6761e-06
9.59098e-06
5.70171e-06
1.13656e-05
4.50698e-06
1.20426e-05
1.73775e-06
-1.55325e-06
1.16679e-05
5.52815e-07
9.18433e-06
1.04731e-06
9.15298e-06
1.566e-06
8.76535e-06
2.16384e-06
8.23054e-06
2.84097e-06
7.5501e-06
3.55001e-06
6.76505e-06
4.21612e-06
5.94198e-06
4.76869e-06
5.1538e-06
5.16306e-06
4.45944e-06
5.39181e-06
3.8872e-06
5.49628e-06
3.44655e-06
5.52639e-06
3.12404e-06
5.49579e-06
2.9117e-06
5.46224e-06
2.85565e-06
5.57526e-06
3.00794e-06
5.96806e-06
3.33921e-06
6.71795e-06
3.7523e-06
7.81837e-06
4.11027e-06
9.23271e-06
4.26171e-06
1.09523e-05
3.98207e-06
1.26133e-05
2.84582e-06
1.36257e-05
7.25593e-07
-1.74051e-06
1.38124e-05
3.49511e-07
8.8349e-06
6.7649e-07
8.82613e-06
1.0804e-06
8.3616e-06
1.58823e-06
7.72285e-06
2.19055e-06
6.9479e-06
2.84242e-06
6.11327e-06
3.47864e-06
5.30582e-06
4.03597e-06
4.59651e-06
4.47692e-06
4.01854e-06
4.79532e-06
3.56885e-06
5.01099e-06
3.23095e-06
5.15989e-06
2.9752e-06
5.2698e-06
2.80187e-06
5.39938e-06
2.72613e-06
5.64975e-06
2.75762e-06
6.11907e-06
2.86992e-06
6.87218e-06
2.99921e-06
7.92264e-06
3.05977e-06
9.23826e-06
2.94606e-06
1.07263e-05
2.49405e-06
1.20809e-05
1.49125e-06
1.28841e-05
-7.80478e-08
-1.87564e-06
1.30192e-05
1.72813e-07
8.66236e-06
3.43535e-07
8.65565e-06
6.28385e-07
8.07696e-06
1.04934e-06
7.30208e-06
1.58884e-06
6.40855e-06
2.20127e-06
5.50097e-06
2.82134e-06
4.68584e-06
3.3902e-06
4.02773e-06
3.86981e-06
3.539e-06
4.24872e-06
3.19003e-06
4.5412e-06
2.93857e-06
4.76662e-06
2.74987e-06
4.9565e-06
2.61207e-06
5.16214e-06
2.52057e-06
5.45314e-06
2.46669e-06
5.89701e-06
2.42609e-06
6.54109e-06
2.35515e-06
7.40142e-06
2.19945e-06
8.45375e-06
1.89372e-06
9.60098e-06
1.34684e-06
1.06195e-05
4.72653e-07
1.12551e-05
-7.13368e-07
-2.04918e-06
1.14283e-05
9.41402e-09
8.65328e-06
3.89674e-08
8.62641e-06
2.20599e-07
7.89559e-06
5.64835e-07
6.95807e-06
1.05297e-06
5.9206e-06
1.63313e-06
4.92096e-06
2.23948e-06
4.07962e-06
2.81646e-06
3.45086e-06
3.32545e-06
3.03012e-06
3.7469e-06
2.76868e-06
4.08468e-06
2.60089e-06
4.35323e-06
2.48143e-06
4.57992e-06
2.38547e-06
4.80656e-06
2.29403e-06
5.08145e-06
2.19188e-06
5.44961e-06
2.05799e-06
5.94147e-06
1.86333e-06
6.56653e-06
1.5744e-06
7.30599e-06
1.15428e-06
8.09096e-06
5.61928e-07
8.79563e-06
-2.31922e-07
9.26161e-06
-1.1798e-06
-2.21125e-06
9.42349e-06
-1.35338e-07
8.78898e-06
-2.27129e-07
8.71853e-06
-1.42495e-07
7.81123e-06
1.37781e-07
6.67803e-06
5.8063e-07
5.47795e-06
1.12752e-06
4.37425e-06
1.71521e-06
3.49208e-06
2.29201e-06
2.87421e-06
2.81967e-06
2.50259e-06
3.26873e-06
2.31976e-06
3.63466e-06
2.23508e-06
3.92592e-06
2.19028e-06
4.16499e-06
2.14652e-06
4.3836e-06
2.07552e-06
4.61703e-06
1.95853e-06
4.89537e-06
1.77972e-06
5.23705e-06
1.52169e-06
5.64742e-06
1.16406e-06
6.11035e-06
6.91361e-07
6.58478e-06
8.75314e-08
6.99432e-06
-6.41618e-07
7.2814e-06
-1.46663e-06
-2.31632e-06
7.38593e-06
-2.63593e-07
9.05304e-06
-4.67462e-07
8.92276e-06
-4.62197e-07
7.80627e-06
-2.40316e-07
6.4564e-06
1.57915e-07
5.07995e-06
6.65112e-07
3.86724e-06
1.22092e-06
2.93645e-06
1.78734e-06
2.30795e-06
2.32161e-06
1.96847e-06
2.78946e-06
1.85204e-06
3.17592e-06
1.84876e-06
3.48316e-06
1.88318e-06
3.72609e-06
1.90371e-06
3.92811e-06
1.8736e-06
4.11578e-06
1.77096e-06
4.31198e-06
1.58358e-06
4.53058e-06
1.30315e-06
4.77313e-06
9.21529e-07
5.02863e-06
4.35878e-07
5.27377e-06
-1.57572e-07
5.46732e-06
-8.35098e-07
5.58276e-06
-1.58251e-06
-2.33274e-06
5.59902e-06
-3.81332e-07
9.43468e-06
-6.84853e-07
9.22663e-06
-7.5007e-07
7.8718e-06
-5.82461e-07
6.28906e-06
-2.30914e-07
4.72863e-06
2.20017e-07
3.41652e-06
7.34057e-07
2.4226e-06
1.27518e-06
1.767e-06
1.80391e-06
1.4399e-06
2.28449e-06
1.37162e-06
2.69087e-06
1.44253e-06
3.01619e-06
1.558e-06
3.2668e-06
1.65323e-06
3.45738e-06
1.68314e-06
3.60844e-06
1.62001e-06
3.7397e-06
1.45241e-06
3.86384e-06
1.17906e-06
3.98577e-06
7.99631e-07
4.09887e-06
3.22785e-07
4.18807e-06
-2.46758e-07
4.23759e-06
-8.84731e-07
4.23201e-06
-1.57664e-06
-2.27581e-06
4.17464e-06
-4.94217e-07
9.92944e-06
-8.92432e-07
9.62526e-06
-1.03039e-06
8.01009e-06
-9.05912e-07
6.16486e-06
-5.99572e-07
4.42254e-06
-2.23222e-07
3.04039e-06
2.37201e-07
1.96238e-06
7.4607e-07
1.25832e-06
1.25605e-06
9.30097e-07
1.73992e-06
8.87914e-07
2.16486e-06
1.01774e-06
2.5149e-06
1.2081e-06
2.78354e-06
1.38472e-06
2.97635e-06
1.49045e-06
3.10699e-06
1.48947e-06
3.19392e-06
1.36555e-06
3.25263e-06
1.12041e-06
3.28946e-06
7.62818e-07
3.306e-06
3.06258e-07
3.29478e-06
-2.35483e-07
3.2524e-06
-8.42278e-07
3.17553e-06
-1.50025e-06
-2.17639e-06
3.07591e-06
-6.04465e-07
1.05342e-05
-1.09671e-06
1.01179e-05
-1.30578e-06
8.21947e-06
-1.20643e-06
6.06578e-06
-9.62044e-07
4.1784e-06
-6.71151e-07
2.74972e-06
-2.65545e-07
1.55698e-06
2.03701e-07
7.89271e-07
6.88743e-07
4.45235e-07
1.16025e-06
4.16574e-07
1.59984e-06
5.78314e-07
1.97658e-06
8.31511e-07
2.27425e-06
1.08719e-06
2.48558e-06
1.27925e-06
2.6165e-06
1.35865e-06
2.68163e-06
1.30051e-06
2.69855e-06
1.10354e-06
2.67896e-06
7.82448e-07
2.62993e-06
3.55312e-07
2.55339e-06
-1.58915e-07
2.45115e-06
-7.40186e-07
2.32917e-06
-1.37797e-06
-2.05292e-06
2.20519e-06
-7.10496e-07
1.12452e-05
-1.29094e-06
1.06987e-05
-1.56117e-06
8.49e-06
-1.51247e-06
6.01734e-06
-1.36982e-06
4.03597e-06
-1.127e-06
2.50711e-06
-7.54775e-07
1.18495e-06
-3.20285e-07
3.54967e-07
1.31717e-07
-6.59024e-09
5.81452e-07
-3.29955e-08
1.01689e-06
1.43036e-07
1.41519e-06
4.33349e-07
1.74625e-06
7.56259e-07
1.9891e-06
1.03652e-06
2.13862e-06
1.20924e-06
2.20385e-06
1.23535e-06
2.20132e-06
1.10614e-06
2.14846e-06
8.35338e-07
2.05688e-06
4.46923e-07
1.937e-06
-3.89579e-08
1.79436e-06
-5.97396e-07
1.64323e-06
-1.22724e-06
-1.91324e-06
1.50357e-06
-8.02706e-07
1.20481e-05
-1.45585e-06
1.1352e-05
-1.77647e-06
8.81086e-06
-1.83272e-06
6.0738e-06
-1.80006e-06
4.0035e-06
-1.55803e-06
2.26528e-06
-1.19195e-06
8.19045e-07
-7.86673e-07
-5.01409e-08
-3.73731e-07
-4.19373e-07
4.01089e-08
-4.46684e-07
4.53008e-07
-2.69721e-07
8.54015e-07
3.24727e-08
1.21145e-06
3.98945e-07
1.49291e-06
7.55164e-07
1.67665e-06
1.02558e-06
1.76092e-06
1.15117e-06
1.75965e-06
1.10746e-06
1.69331e-06
9.01733e-07
1.58003e-06
5.60254e-07
1.4317e-06
1.09431e-07
1.26667e-06
-4.32402e-07
1.09662e-06
-1.05676e-06
-1.75639e-06
9.39534e-07
-8.76014e-07
1.29245e-05
-1.58909e-06
1.20654e-05
-1.95155e-06
9.17353e-06
-2.14182e-06
6.26426e-06
-2.16528e-06
4.02712e-06
-1.90698e-06
2.00713e-06
-1.53525e-06
4.47463e-07
-1.15101e-06
-4.34242e-07
-7.85262e-07
-7.84988e-07
-4.22272e-07
-8.09549e-07
-5.18124e-08
-6.40063e-07
3.25184e-07
-3.44416e-07
6.91769e-07
3.24596e-08
1.00634e-06
4.40683e-07
1.23236e-06
7.99633e-07
1.35179e-06
1.0318e-06
1.37058e-06
1.08872e-06
1.30847e-06
9.63877e-07
1.18828e-06
6.80474e-07
1.02963e-06
2.68168e-07
8.51839e-07
-2.54461e-07
6.67918e-07
-8.73247e-07
-1.58817e-06
4.9971e-07
-9.23136e-07
1.38477e-05
-1.68092e-06
1.28233e-05
-2.09143e-06
9.58417e-06
-2.38121e-06
6.55416e-06
-2.39952e-06
4.04554e-06
-2.1221e-06
1.72982e-06
-1.74226e-06
6.77232e-08
-1.38064e-06
-7.95765e-07
-1.06315e-06
-1.10239e-06
-7.67486e-07
-1.10512e-06
-4.62549e-07
-9.44918e-07
-1.33483e-07
-6.73408e-07
2.12417e-07
-3.13374e-07
5.41712e-07
1.11445e-07
8.08234e-07
5.33155e-07
9.74091e-07
8.65978e-07
1.02879e-06
1.03403e-06
9.87374e-07
1.00532e-06
8.75589e-07
7.92279e-07
7.18508e-07
4.25269e-07
5.36413e-07
-7.25244e-08
3.48454e-07
-6.8498e-07
-1.41204e-06
1.71943e-07
-9.35217e-07
1.47832e-05
-1.71964e-06
1.36078e-05
-2.18744e-06
1.0052e-05
-2.50257e-06
6.86936e-06
-2.48921e-06
4.03224e-06
-2.17984e-06
1.42051e-06
-1.79099e-06
-3.21075e-07
-1.45903e-06
-1.12767e-06
-1.19688e-06
-1.36449e-06
-9.73537e-07
-1.32842e-06
-7.51017e-07
-1.1674e-06
-4.95042e-07
-9.29347e-07
-2.01538e-07
-6.06848e-07
1.155e-07
-2.05573e-07
4.07978e-07
2.40691e-07
6.22855e-07
6.51103e-07
7.27104e-07
9.29788e-07
7.2188e-07
1.01052e-06
6.3217e-07
8.81978e-07
4.86812e-07
5.70611e-07
3.10279e-07
1.04066e-07
1.25432e-07
-5.00591e-07
-1.23435e-06
-5.23102e-08
-9.06684e-07
1.56897e-05
-1.69678e-06
1.43979e-05
-2.19823e-06
1.05535e-05
-2.49164e-06
7.16277e-06
-2.42751e-06
3.96811e-06
-2.07138e-06
1.06438e-06
-1.67957e-06
-7.12882e-07
-1.3897e-06
-1.41754e-06
-1.19338e-06
-1.5608e-06
-1.0454e-06
-1.4764e-06
-9.0457e-07
-1.30822e-06
-7.38352e-07
-1.09557e-06
-5.20751e-07
-8.24456e-07
-2.51618e-07
-4.74719e-07
3.9181e-08
-5.01267e-08
2.93301e-07
3.96959e-07
4.54406e-07
7.68644e-07
4.99891e-07
9.6501e-07
4.4586e-07
9.3596e-07
3.23356e-07
6.93057e-07
1.63212e-07
2.64013e-07
-1.12713e-08
-3.25896e-07
-1.06238e-06
-1.83543e-07
-8.35257e-07
1.65251e-05
-1.60107e-06
1.51637e-05
-2.09293e-06
1.10453e-05
-2.33999e-06
7.40979e-06
-2.2009e-06
3.82898e-06
-1.78839e-06
6.51833e-07
-1.42483e-06
-1.07647e-06
-1.19697e-06
-1.64543e-06
-1.07501e-06
-1.6828e-06
-1.00298e-06
-1.54846e-06
-9.40218e-07
-1.37102e-06
-8.57952e-07
-1.17787e-06
-7.3e-07
-9.52446e-07
-5.35806e-07
-6.68957e-07
-2.83567e-07
-3.02413e-07
-1.60443e-08
1.29381e-07
1.9789e-07
5.54657e-07
3.0548e-07
8.57341e-07
2.99593e-07
9.41776e-07
2.12277e-07
7.80286e-07
7.65399e-08
3.99703e-07
-8.0076e-08
-1.69792e-07
-9.04405e-07
-2.38237e-07
-7.22328e-07
1.72472e-05
-1.43827e-06
1.58796e-05
-1.88713e-06
1.14941e-05
-2.03552e-06
7.5581e-06
-1.7968e-06
3.59018e-06
-1.35446e-06
2.09418e-07
-1.06178e-06
-1.36922e-06
-9.23134e-07
-1.78415e-06
-8.81575e-07
-1.72442e-06
-8.78844e-07
-1.55125e-06
-8.82689e-07
-1.36723e-06
-8.7149e-07
-1.18913e-06
-8.24511e-07
-9.9949e-07
-7.1933e-07
-7.74205e-07
-5.38044e-07
-4.83771e-07
-2.95946e-07
-1.12789e-07
-5.1235e-08
3.0986e-07
1.19641e-07
6.86391e-07
1.75206e-07
8.86109e-07
1.3088e-07
8.24495e-07
2.69634e-08
5.03325e-07
-1.01282e-07
-4.14939e-08