/*--------------------------------*- C++ -*----------------------------------*\
| =========                 |                                                 |
| \\      /  F ield         | OpenFOAM: The Open Source CFD Toolbox           |
|  \\    /   O peration     | Version:  2312                                  |
|   \\  /    A nd           | Website:  www.openfoam.com                      |
|    \\/     M anipulation  |                                                 |
\*---------------------------------------------------------------------------*/
FoamFile
{
    version     2.0;
    format      ascii;
    arch        "LSB;label=32;scalar=64";
    class       volVectorField;
    location    "6";
    object      U;
}
// * * * * * * * * * * * * * * * * * * * * * * * * * * * * * * * * * * * * * //

dimensions      [0 1 -1 0 0 0 0];

internalField   nonuniform List<vector> 
2268
(
(-0.000817266 -4.13777e-05 0)
(-0.00926727 0.00168607 0)
(-0.018136 0.00205818 0)
(-0.0275084 0.00223576 0)
(-0.0372237 0.00231136 0)
(-0.0470348 0.00230446 0)
(-0.0565106 0.00219124 0)
(-0.065188 0.00193369 0)
(-0.0725938 0.0016093 0)
(-0.0783098 0.00119061 0)
(-0.0821193 0.000728498 0)
(-0.0838065 0.000203542 0)
(-0.0830477 -0.000400246 0)
(-0.0796607 -0.00102096 0)
(-0.0739042 -0.00151484 0)
(-0.066424 -0.00182555 0)
(-0.0580422 -0.00195056 0)
(-0.0495831 -0.00178914 0)
(-0.0416181 -0.00166595 0)
(-0.0339537 -0.00153821 0)
(-0.0261807 -0.0015246 0)
(-0.0183392 -0.00170019 0)
(-0.00985187 -0.00396009 0)
(-0.0051107 0.00475313 0)
(-0.0132371 0.00629738 0)
(-0.0221541 0.00654483 0)
(-0.0313771 0.00681271 0)
(-0.0410519 0.00696 0)
(-0.0508652 0.00685916 0)
(-0.0603606 0.00645089 0)
(-0.0690226 0.00564484 0)
(-0.0763644 0.00456324 0)
(-0.0820038 0.00328078 0)
(-0.0857188 0.00188019 0)
(-0.0873172 0.000299649 0)
(-0.0864316 -0.00150578 0)
(-0.0828253 -0.00333626 0)
(-0.0767498 -0.00483207 0)
(-0.0688982 -0.00581151 0)
(-0.0600526 -0.00617701 0)
(-0.0511659 -0.00596965 0)
(-0.0427984 -0.00574849 0)
(-0.0346151 -0.00573513 0)
(-0.0260551 -0.00584182 0)
(-0.0173657 -0.00613529 0)
(-0.00736924 -0.0100894 0)
(-0.00559093 0.00873963 0)
(-0.0139382 0.00983693 0)
(-0.0229595 0.0105872 0)
(-0.0323845 0.0112138 0)
(-0.0423664 0.011606 0)
(-0.0525333 0.0115281 0)
(-0.0623834 0.0108794 0)
(-0.0713677 0.00958758 0)
(-0.0789819 0.00780057 0)
(-0.0848283 0.00568417 0)
(-0.088734 0.00334926 0)
(-0.0905317 0.000655022 0)
(-0.0897525 -0.00251484 0)
(-0.0860536 -0.00578862 0)
(-0.079681 -0.00845792 0)
(-0.0713422 -0.0101668 0)
(-0.0619235 -0.0107537 0)
(-0.0525075 -0.0103296 0)
(-0.0436967 -0.00981225 0)
(-0.0349678 -0.00984136 0)
(-0.0255936 -0.0100547 0)
(-0.0163583 -0.0106518 0)
(-0.0053512 -0.0154056 0)
(-0.00483143 0.0141794 0)
(-0.0131135 0.014895 0)
(-0.0219261 0.0157993 0)
(-0.031383 0.0166504 0)
(-0.0415554 0.0171062 0)
(-0.0520004 0.0168555 0)
(-0.0621946 0.0157691 0)
(-0.0716175 0.0137875 0)
(-0.0797652 0.0110568 0)
(-0.0861499 0.00782403 0)
(-0.0905894 0.00437427 0)
(-0.0929565 0.000579223 0)
(-0.0925944 -0.00377943 0)
(-0.0889518 -0.00828858 0)
(-0.0823319 -0.0119553 0)
(-0.0736678 -0.0143729 0)
(-0.0638468 -0.0151808 0)
(-0.0540018 -0.0144274 0)
(-0.0447997 -0.0137547 0)
(-0.0354587 -0.0139057 0)
(-0.0252044 -0.0144155 0)
(-0.0152412 -0.0151345 0)
(-0.00348303 -0.019975 0)
(-0.00365341 0.0142306 0)
(-0.0111065 0.0150518 0)
(-0.0191714 0.0164929 0)
(-0.0282216 0.0181917 0)
(-0.038183 0.0196105 0)
(-0.0485878 0.0202501 0)
(-0.0591115 0.019737 0)
(-0.0693839 0.0178987 0)
(-0.0786983 0.0149847 0)
(-0.0862046 0.0112971 0)
(-0.0916334 0.00714741 0)
(-0.0949594 0.00219117 0)
(-0.0952685 -0.0043357 0)
(-0.0917453 -0.0111246 0)
(-0.0854179 -0.0161883 0)
(-0.0775668 -0.0193148 0)
(-0.0683953 -0.0201771 0)
(-0.0583949 -0.0191376 0)
(-0.0481432 -0.0185754 0)
(-0.0375089 -0.0192097 0)
(-0.0262524 -0.0201583 0)
(-0.0153847 -0.0210718 0)
(-0.00291037 -0.0249245 0)
(-0.00397545 0.0187077 0)
(-0.0124436 0.0195058 0)
(-0.021223 0.0207304 0)
(-0.0300246 0.0219724 0)
(-0.0387435 0.0226837 0)
(-0.0476887 0.0226839 0)
(-0.0565909 0.0219551 0)
(-0.0647575 0.0201936 0)
(-0.0718905 0.0171787 0)
(-0.077886 0.0131043 0)
(-0.082952 0.00858312 0)
(-0.0867084 0.00348379 0)
(-0.0887499 -0.00355851 0)
(-0.0900658 -0.0106981 0)
(-0.0899171 -0.0164278 0)
(-0.0869194 -0.0207233 0)
(-0.0799002 -0.0231629 0)
(-0.0684932 -0.0238802 0)
(-0.0547315 -0.0241194 0)
(-0.0412669 -0.024403 0)
(-0.0288006 -0.0250459 0)
(-0.0162912 -0.0260794 0)
(-0.00378112 -0.0282195 0)
(-0.00164634 0.029186 0)
(-0.00537967 0.0309637 0)
(-0.0122337 0.0333952 0)
(-0.0218689 0.0356113 0)
(-0.0358635 0.0376843 0)
(-0.057796 0.0372118 0)
(-0.0793552 0.0333909 0)
(-0.0944328 0.0279721 0)
(-0.105224 0.0219915 0)
(-0.113594 0.0161844 0)
(-0.118818 0.0107595 0)
(-0.120215 0.00477087 0)
(-0.119976 -0.00235177 0)
(-0.116398 -0.00929768 0)
(-0.109735 -0.015348 0)
(-0.101209 -0.0205168 0)
(-0.0899997 -0.0240527 0)
(-0.0752459 -0.0261744 0)
(-0.0590771 -0.0274089 0)
(-0.0438551 -0.0285226 0)
(-0.0290348 -0.0305705 0)
(-0.0136008 -0.0327235 0)
(-0.00489966 -0.0355951 0)
(-0.00432829 0.0246048 0)
(-0.0101668 0.026713 0)
(-0.0183077 0.0301776 0)
(-0.0245938 0.0318862 0)
(-0.0286911 0.0372399 0)
(-0.0397669 0.042267 0)
(-0.0564581 0.0398319 0)
(-0.0708181 0.0337731 0)
(-0.0819187 0.0267763 0)
(-0.0876754 0.0186013 0)
(-0.0886276 0.0100121 0)
(-0.0864313 0.00136219 0)
(-0.0890066 -0.00579892 0)
(-0.100861 -0.0148816 0)
(-0.113239 -0.0257068 0)
(-0.110992 -0.0350489 0)
(-0.0970299 -0.0412925 0)
(-0.079741 -0.0434945 0)
(-0.061819 -0.0422238 0)
(-0.0431168 -0.0406245 0)
(-0.0240721 -0.039758 0)
(-0.00357036 -0.0374753 0)
(-0.0169034 -0.0374063 0)
(0.00974609 -0.00352373 0)
(0.0356489 -0.00451126 0)
(0.050652 -0.00304933 0)
(0.0593836 -0.000999134 0)
(0.0571839 0.0013816 0)
(0.0458352 0.00274196 0)
(0.0306133 0.00277968 0)
(0.0170392 0.0021678 0)
(0.00667408 0.00174987 0)
(-0.00231016 0.00180255 0)
(-0.00919016 0.000569976 0)
(-0.0117564 -0.000949135 0)
(-0.0100686 -0.00202454 0)
(-0.00632159 -0.00209214 0)
(-0.0015177 -0.00212454 0)
(0.00331233 -0.00121256 0)
(0.00621682 -0.000421268 0)
(0.00734457 0.000216376 0)
(0.00489455 0.00159269 0)
(0.0165334 -0.0154733 0)
(0.0415113 -0.0133174 0)
(0.055456 -0.00867848 0)
(0.0617259 -0.00207342 0)
(0.0569424 0.00544395 0)
(0.0428992 0.0103412 0)
(0.0249194 0.0108591 0)
(0.0100215 0.00886695 0)
(0.00053571 0.00623077 0)
(-0.00598326 0.00472547 0)
(-0.0106283 0.00263163 0)
(-0.0107526 0.00112015 0)
(-0.00769685 -0.000981652 0)
(-0.00511709 -0.00128568 0)
(-0.00389455 -0.00232744 0)
(-0.00214304 -0.00173925 0)
(0.000968281 -0.0011534 0)
(-0.00100191 0.000468756 0)
(-0.0005414 0.00387916 0)
(0.0122272 -0.0307886 0)
(0.0429963 -0.0241385 0)
(0.0592573 -0.0137041 0)
(0.064135 -0.00149646 0)
(0.0564789 0.008927 0)
(0.0386617 0.0145823 0)
(0.0138397 0.0133838 0)
(-0.0101238 0.00898869 0)
(-0.026942 0.00519742 0)
(-0.0271924 0.00597191 0)
(-0.0110322 0.00293194 0)
(-0.00215319 -0.00355941 0)
(0.000716752 -0.00675366 0)
(-0.000443017 -0.00489636 0)
(-0.00264094 -0.00437932 0)
(-0.00735178 -0.00549427 0)
(-0.00754693 -0.000586446 0)
(-0.0112097 0.00192435 0)
(-0.00312128 -0.000150398 0)
(0.000765278 -0.0349427 0)
(0.033203 -0.0252352 0)
(0.0499992 -0.0143587 0)
(0.0725129 0.000936951 0)
(0.0850761 0.0145317 0)
(0.0831752 0.0259572 0)
(0.0629422 0.0314473 0)
(0.022161 0.032965 0)
(-0.0497438 0.0248775 0)
(-0.0339516 -0.00265952 0)
(0.0654479 -0.0125663 0)
(0.114114 -0.000221609 0)
(0.119641 0.00361768 0)
(0.0704957 0.00486794 0)
(0.0353121 0.00604312 0)
(-0.0222944 0.00405383 0)
(-0.0718658 0.000307661 0)
(0.0140424 -0.0030934 0)
(0.028136 -0.000260752 0)
(-0.0240459 -0.0400685 0)
(0.0242158 -0.0498478 0)
(-0.00599241 -0.0334968 0)
(0.00538123 -0.0200535 0)
(0.041764 0.00772527 0)
(0.0134489 0.0391588 0)
(-0.0266291 0.0465091 0)
(-0.0447867 0.0486469 0)
(-0.0695163 0.0308063 0)
(0.0146393 -0.0564015 0)
(0.0501958 -0.0506643 0)
(0.0884684 -0.0260888 0)
(0.114689 0.00761594 0)
(0.0927508 0.0212906 0)
(0.100151 0.0199132 0)
(0.021627 0.0530137 0)
(-0.103879 -0.0212072 0)
(0.0294177 -0.0461373 0)
(0.0399966 0.015526 0)
(-0.0638162 -0.0315219 0)
(-0.0491501 -0.034599 0)
(-0.0417956 -0.0185992 0)
(-0.0215208 -0.0306727 0)
(0.0289815 0.00864251 0)
(0.0121654 0.0533389 0)
(-0.0257696 0.0527784 0)
(-0.0296931 0.0485031 0)
(-0.0391853 0.0245144 0)
(0.0423326 -0.0793106 0)
(0.030407 -0.0535049 0)
(0.0265541 -0.029783 0)
(0.0575839 0.0103054 0)
(0.0455462 0.0226941 0)
(0.053968 0.0195568 0)
(0.0132694 0.0925351 0)
(-0.0249267 -0.0213472 0)
(0.0366181 -0.054173 0)
(0.0413863 0.0317779 0)
(-0.0458671 -0.0130807 0)
(-0.0257936 -0.0429298 0)
(-0.0326678 -0.035148 0)
(-0.0268042 -0.0393598 0)
(-0.00787596 -0.00801787 0)
(0.0224006 0.0595845 0)
(0.00289984 0.0575741 0)
(0.00450698 0.0473395 0)
(0.0353974 0.00676753 0)
(0.0447267 -0.0744578 0)
(-0.00978953 -0.041404 0)
(-0.0420798 -0.032433 0)
(0.0108448 0.0123777 0)
(0.00965743 0.01852 0)
(0.00425249 0.0165475 0)
(-0.0172404 0.11551 0)
(0.00366123 -0.0436397 0)
(0.0347599 -0.0576924 0)
(0.0460696 0.0445744 0)
(-0.0244223 -0.0023663 0)
(0.00265569 -0.0356863 0)
(-0.0160025 -0.0287208 0)
(-0.0280179 -0.0376501 0)
(-0.0332707 -0.0213647 0)
(0.0238941 0.0573058 0)
(0.0268408 0.0600247 0)
(0.0339965 0.0456984 0)
(0.0684651 -0.00159824 0)
(0.0310365 -0.0486854 0)
(-0.0605048 -0.0213449 0)
(-0.0720321 -0.0338666 0)
(-0.0334559 -0.00660434 0)
(-0.0489865 0.0188095 0)
(-0.068073 0.0352071 0)
(-0.0432046 0.112338 0)
(0.0161999 -0.0674831 0)
(0.012069 -0.0620761 0)
(0.046538 0.0555912 0)
(-0.00883935 0.0337629 0)
(-0.0206226 0.0349922 0)
(-0.0338195 0.039346 0)
(-0.0455862 0.0403769 0)
(-0.0576164 0.0477904 0)
(-0.0707204 0.0559629 0)
(-0.0851226 0.0535989 0)
(-0.0957342 0.0442939 0)
(-0.102652 0.0345901 0)
(-0.105464 0.0220305 0)
(-0.102863 0.0100018 0)
(-0.0953224 0.00177569 0)
(-0.0857171 -0.000913415 0)
(-0.0780469 -0.00344712 0)
(-0.074947 -0.0135767 0)
(-0.0753695 -0.0326014 0)
(-0.0764707 -0.0469796 0)
(-0.0767628 -0.0524368 0)
(-0.0752634 -0.0544546 0)
(-0.0715179 -0.0544523 0)
(-0.0656471 -0.0523716 0)
(-0.0583206 -0.0428801 0)
(-0.0523816 -0.0246429 0)
(-0.00479937 0.0480785 0)
(-0.0163015 0.0480658 0)
(-0.032243 0.0507517 0)
(-0.049967 0.0507742 0)
(-0.0706125 0.0580439 0)
(-0.0880777 0.0646025 0)
(-0.103895 0.0607304 0)
(-0.114717 0.0464577 0)
(-0.115846 0.031135 0)
(-0.11274 0.0157339 0)
(-0.110681 0.00067844 0)
(-0.10793 -0.0117333 0)
(-0.10415 -0.0174235 0)
(-0.100373 -0.0212376 0)
(-0.0981417 -0.0239877 0)
(-0.0991275 -0.0308101 0)
(-0.103157 -0.0358687 0)
(-0.110492 -0.0371322 0)
(-0.118251 -0.040602 0)
(-0.121992 -0.0444933 0)
(-0.119003 -0.0501258 0)
(-0.111035 -0.0521169 0)
(-0.0977296 -0.0623928 0)
(-0.00166516 0.0535542 0)
(-0.0088061 0.0619094 0)
(-0.0219533 0.0708199 0)
(-0.0438759 0.0754128 0)
(-0.065648 0.0809467 0)
(-0.0808913 0.0827205 0)
(-0.0930545 0.0760912 0)
(-0.103823 0.0551664 0)
(-0.107294 0.0295929 0)
(-0.108817 0.0185928 0)
(-0.114913 0.00862813 0)
(-0.121103 -0.0045718 0)
(-0.122808 -0.0103 0)
(-0.12185 -0.0137769 0)
(-0.120377 -0.015942 0)
(-0.121788 -0.0236089 0)
(-0.124974 -0.0309377 0)
(-0.127895 -0.0338361 0)
(-0.128842 -0.0429492 0)
(-0.121233 -0.0539904 0)
(-0.10842 -0.0644837 0)
(-0.0980038 -0.0634359 0)
(-0.0869158 -0.0734346 0)
(-0.00474908 0.0630326 0)
(-0.0101613 0.0731352 0)
(-0.0172459 0.0894693 0)
(-0.0319157 0.0986689 0)
(-0.0425907 0.097205 0)
(-0.0436586 0.0936187 0)
(-0.0454405 0.0880821 0)
(-0.0584084 0.0727458 0)
(-0.0793081 0.0387107 0)
(-0.0950871 0.0248974 0)
(-0.0996426 0.0106515 0)
(-0.0980398 -0.0066454 0)
(-0.0939623 -0.0165106 0)
(-0.0887635 -0.022191 0)
(-0.0829119 -0.0226899 0)
(-0.079143 -0.0244092 0)
(-0.0799685 -0.031263 0)
(-0.079794 -0.0348826 0)
(-0.0756822 -0.048626 0)
(-0.0659255 -0.0659509 0)
(-0.0578577 -0.075976 0)
(-0.0559337 -0.0704724 0)
(-0.0597416 -0.0871614 0)
(-0.00686645 0.0694306 0)
(-0.0188283 0.0787549 0)
(-0.0274462 0.0944491 0)
(-0.0319604 0.103017 0)
(-0.0337204 0.0939594 0)
(-0.0321788 0.0888501 0)
(-0.0366386 0.0952759 0)
(-0.0491262 0.0889493 0)
(-0.0664399 0.0600797 0)
(-0.0769555 0.0347687 0)
(-0.0732213 0.0068359 0)
(-0.0638564 -0.0108705 0)
(-0.0550017 -0.0220479 0)
(-0.0464201 -0.0290409 0)
(-0.0367379 -0.0326004 0)
(-0.0256959 -0.0320771 0)
(-0.0172274 -0.0364039 0)
(-0.0112258 -0.0409603 0)
(-0.00387843 -0.0527648 0)
(0.00272906 -0.0688871 0)
(0.00157997 -0.0706171 0)
(-0.00967447 -0.0600796 0)
(-0.0286721 -0.0680855 0)
(-0.0107629 0.0852176 0)
(-0.0283214 0.0943331 0)
(-0.0431354 0.10418 0)
(-0.0502707 0.106199 0)
(-0.0558377 0.096516 0)
(-0.0610271 0.0942933 0)
(-0.0648752 0.106506 0)
(-0.0718591 0.0971968 0)
(-0.0751671 0.0695489 0)
(-0.0693055 0.0339374 0)
(-0.0573431 -0.00111612 0)
(-0.0482077 -0.0189835 0)
(-0.0381745 -0.0299019 0)
(-0.0276889 -0.0369599 0)
(-0.0161192 -0.0417195 0)
(-0.00357403 -0.0436494 0)
(0.00840094 -0.0447881 0)
(0.017954 -0.0489465 0)
(0.0239125 -0.0625223 0)
(0.0252484 -0.0745418 0)
(0.0219785 -0.0656576 0)
(0.0164751 -0.0460173 0)
(0.00593012 -0.0382679 0)
(-0.015395 0.104834 0)
(-0.0370863 0.114715 0)
(-0.0575854 0.120214 0)
(-0.0721798 0.116218 0)
(-0.0862686 0.105649 0)
(-0.0973898 0.101689 0)
(-0.0974928 0.108401 0)
(-0.0916005 0.0954886 0)
(-0.0823232 0.0633906 0)
(-0.0695742 0.0234079 0)
(-0.057102 -0.00923089 0)
(-0.0440814 -0.030335 0)
(-0.0288339 -0.0437343 0)
(-0.0119846 -0.0525879 0)
(0.00621363 -0.0579414 0)
(0.0245009 -0.0593457 0)
(0.0405779 -0.0571056 0)
(0.0529069 -0.0558726 0)
(0.0602388 -0.0632408 0)
(0.0512982 -0.0652238 0)
(0.0335384 -0.0578577 0)
(0.0175398 -0.0422363 0)
(0.0056418 -0.0330042 0)
(-0.0186707 0.126313 0)
(-0.0418614 0.134468 0)
(-0.0652148 0.13566 0)
(-0.0846515 0.128594 0)
(-0.104126 0.117552 0)
(-0.118264 0.107016 0)
(-0.11858 0.0994035 0)
(-0.107914 0.0795685 0)
(-0.0931193 0.0434061 0)
(-0.0785987 0.00213846 0)
(-0.065899 -0.0313512 0)
(-0.0526437 -0.0540746 0)
(-0.0334298 -0.0694697 0)
(-0.0106108 -0.0796064 0)
(0.01532 -0.0856955 0)
(0.0390819 -0.0855416 0)
(0.0598561 -0.0781855 0)
(0.0773496 -0.0647847 0)
(0.0859755 -0.0509595 0)
(0.0802967 -0.0346722 0)
(0.0524021 -0.0322615 0)
(0.0320506 -0.029541 0)
(0.0211692 -0.0260614 0)
(-0.0199399 0.154551 0)
(-0.0458837 0.159533 0)
(-0.0775798 0.155726 0)
(-0.105145 0.142312 0)
(-0.128115 0.123747 0)
(-0.140345 0.10213 0)
(-0.135354 0.0816661 0)
(-0.118759 0.0584507 0)
(-0.100542 0.0305726 0)
(-0.0876416 0.00124245 0)
(-0.0766824 -0.0252197 0)
(-0.0609295 -0.0492716 0)
(-0.0366427 -0.0661106 0)
(-0.0103914 -0.0773793 0)
(0.0177666 -0.0805745 0)
(0.0456406 -0.0745036 0)
(0.0726 -0.0672737 0)
(0.102595 -0.0607077 0)
(0.138545 -0.0570164 0)
(0.176686 -0.0384106 0)
(0.224034 -0.0123816 0)
(0.229671 0.00880515 0)
(0.141329 0.0295032 0)
(-0.0123116 0.188061 0)
(-0.0258878 0.192725 0)
(-0.0531935 0.186357 0)
(-0.0870914 0.169976 0)
(-0.124676 0.144631 0)
(-0.156776 0.108062 0)
(-0.17885 0.0731687 0)
(-0.193449 0.0419282 0)
(-0.207034 0.0102352 0)
(-0.200368 -0.0287392 0)
(-0.165554 -0.0611079 0)
(-0.123168 -0.0924635 0)
(-0.0705364 -0.110061 0)
(-0.0120454 -0.115941 0)
(0.0420209 -0.118517 0)
(0.0988786 -0.120667 0)
(0.163426 -0.115361 0)
(0.243802 -0.115206 0)
(0.345568 -0.118742 0)
(0.287636 -0.107043 0)
(0.221557 -0.0516867 0)
(0.154379 0.123379 0)
(-0.110298 0.0551392 0)
(-0.00212567 0.210363 0)
(0.00389017 0.231425 0)
(0.00765884 0.26886 0)
(-0.0613317 0.361219 0)
(-0.0260084 0.329455 0)
(0.0475278 0.240723 0)
(0.112763 0.129639 0)
(0.153956 0.0595309 0)
(0.250067 0.0161094 0)
(0.235751 -0.0648155 0)
(0.156118 -0.0992166 0)
(0.108163 -0.146718 0)
(0.066976 -0.198864 0)
(0.0572811 -0.218227 0)
(-0.0238369 -0.235651 0)
(0.0146488 -0.242078 0)
(0.0643929 -0.264997 0)
(0.0524762 -0.285587 0)
(0.0750201 -0.0776818 0)
(-0.184681 0.0239823 0)
(-0.22645 0.0577798 0)
(-0.114244 0.271334 0)
(-0.051694 0.153471 0)
(0.0400878 0.299787 0)
(0.051787 0.254472 0)
(0.0937735 0.403131 0)
(0.263452 0.0616859 0)
(0.404616 -0.371761 0)
(0.421551 -0.0623568 0)
(0.395533 -0.057198 0)
(0.326929 -0.0248215 0)
(0.263661 0.0547733 0)
(0.211057 0.0783871 0)
(0.172396 0.0504128 0)
(0.144109 -0.0442269 0)
(0.0920641 -0.106848 0)
(0.0694443 -0.0949737 0)
(0.0724591 -0.121384 0)
(0.026433 -0.237693 0)
(-0.088715 -0.256497 0)
(-0.170984 -0.125557 0)
(-0.181739 0.0354201 0)
(-0.214724 0.0806171 0)
(-0.196875 0.0505375 0)
(-0.147216 0.0646955 0)
(-0.0269482 0.0164479 0)
(-0.00833256 -0.158557 0)
(0.0129988 -0.0458104 0)
(0.110603 -0.285812 0)
(0.269404 -0.0609052 0)
(0.154032 0.298483 0)
(0.12169 0.230113 0)
(0.125553 0.168685 0)
(0.113123 0.133454 0)
(0.113153 0.0770338 0)
(0.123714 0.0183224 0)
(0.138565 -0.0100855 0)
(0.134903 -0.0185366 0)
(0.0932632 -0.055635 0)
(0.0552497 -0.138026 0)
(0.0465896 -0.126247 0)
(-0.00214124 -0.107195 0)
(-0.0997699 -0.0880413 0)
(-0.174026 -0.0589315 0)
(-0.183475 0.00379912 0)
(-0.171507 0.0604683 0)
(-0.124712 0.00949974 0)
(-0.082373 0.00628747 0)
(-0.0442833 -0.0126624 0)
(-0.000292744 0.31921 0)
(0.056368 0.237086 0)
(0.0573723 0.248006 0)
(-0.0062934 0.177359 0)
(-0.0138721 0.163036 0)
(0.0282899 0.121803 0)
(0.0462637 0.0965109 0)
(0.0639656 0.0721685 0)
(0.084434 0.0461739 0)
(0.0962451 0.022804 0)
(0.0997486 0.0099557 0)
(0.095035 -0.00570996 0)
(0.0832113 -0.0319385 0)
(0.0541322 -0.067793 0)
(0.0101421 -0.0663489 0)
(-0.0304456 -0.0641603 0)
(-0.07652 -0.0483034 0)
(-0.117529 -0.0175227 0)
(-0.135345 0.0172089 0)
(-0.116259 0.0158858 0)
(-0.0882308 -0.0243878 0)
(-0.0808664 -0.025773 0)
(-0.0734899 -0.0203505 0)
(0.0147621 0.0462664 0)
(0.0330716 0.0370257 0)
(0.0276667 -0.000690413 0)
(0.00929848 0.00754536 0)
(0.00810267 0.055835 0)
(0.0318748 0.0648729 0)
(0.0461191 0.0635835 0)
(0.0597023 0.0559793 0)
(0.0701343 0.0389179 0)
(0.0723657 0.0165306 0)
(0.0701738 0.00355142 0)
(0.0655263 -0.00293981 0)
(0.0575505 -0.0221821 0)
(0.0350185 -0.0512284 0)
(0.00244262 -0.0445027 0)
(-0.0223201 -0.0300312 0)
(-0.0507779 -0.0138519 0)
(-0.0753063 0.00635102 0)
(-0.0848244 0.0105506 0)
(-0.07817 -0.00341302 0)
(-0.0888438 -0.020499 0)
(-0.0917338 -0.0304557 0)
(-0.0940274 -0.00577067 0)
(0.00749837 0.0775024 0)
(0.0193673 0.0644552 0)
(0.0209733 0.0566602 0)
(0.0178045 0.0573166 0)
(0.02114 0.0693599 0)
(0.0337734 0.0671759 0)
(0.0439899 0.060544 0)
(0.0525819 0.0500402 0)
(0.0581437 0.0354182 0)
(0.0582385 0.0195079 0)
(0.0543584 0.00989433 0)
(0.0505111 0.00554379 0)
(0.0452998 -0.00570656 0)
(0.0287188 -0.0187645 0)
(0.00507815 -0.015205 0)
(-0.0113877 -0.00692297 0)
(-0.0284048 0.00631844 0)
(-0.0422083 0.0219982 0)
(-0.048964 0.0177942 0)
(-0.06205 0.0113005 0)
(-0.0837989 -0.00841177 0)
(-0.0855214 -0.0300089 0)
(-0.0919895 0.00908152 0)
(0.00549544 0.0761501 0)
(0.014632 0.0708225 0)
(0.0176765 0.0660836 0)
(0.0187145 0.0640077 0)
(0.023025 0.0651183 0)
(0.0312003 0.0608168 0)
(0.0389387 0.0534725 0)
(0.0452204 0.0439446 0)
(0.048986 0.0326882 0)
(0.048851 0.0213578 0)
(0.0454364 0.0138795 0)
(0.0420385 0.0100419 0)
(0.0381658 0.00323594 0)
(0.0272795 -0.0037712 0)
(0.0130535 0.000253366 0)
(0.00229755 0.00839653 0)
(-0.0080759 0.0194859 0)
(-0.0155632 0.0298586 0)
(-0.0210029 0.0298269 0)
(-0.0338011 0.0322627 0)
(-0.0560425 0.00630864 0)
(-0.068264 -0.0255701 0)
(-0.0694353 0.0132222 0)
(0.00391644 0.0678465 0)
(0.0107643 0.0647278 0)
(0.0145367 0.0610406 0)
(0.0174852 0.0587797 0)
(0.021937 0.0572228 0)
(0.0280346 0.0531749 0)
(0.0340404 0.0469279 0)
(0.0388957 0.0392001 0)
(0.0418023 0.0306436 0)
(0.0420222 0.022412 0)
(0.0398477 0.0166271 0)
(0.0373345 0.0132528 0)
(0.0344038 0.0093405 0)
(0.0277639 0.00630922 0)
(0.0196499 0.00972529 0)
(0.0136078 0.0170011 0)
(0.00897899 0.0264369 0)
(0.00651446 0.0342317 0)
(0.00510708 0.0384387 0)
(0.000371389 0.0443988 0)
(-0.00749498 0.0304861 0)
(-0.0333382 -0.0152191 0)
(-0.0384217 -0.00732476 0)
(0.00291814 0.0601163 0)
(0.0082275 0.0585647 0)
(0.0119119 0.0561008 0)
(0.0153811 0.0539033 0)
(0.0196082 0.0513512 0)
(0.0245434 0.0473194 0)
(0.0293944 0.0418632 0)
(0.0333933 0.0355245 0)
(0.0359375 0.0289404 0)
(0.0366355 0.022851 0)
(0.0356713 0.018354 0)
(0.0342273 0.0154399 0)
(0.0322991 0.012939 0)
(0.0286368 0.011817 0)
(0.0245658 0.0145957 0)
(0.0221099 0.0204349 0)
(0.0215702 0.0279021 0)
(0.0231251 0.0345925 0)
(0.0260314 0.0397182 0)
(0.0292339 0.0443561 0)
(0.0323599 0.0380966 0)
(0.0290898 0.0125392 0)
(0.0160505 -0.0132693 0)
(0.00208902 0.0548654 0)
(0.00612614 0.0541428 0)
(0.00937782 0.0521408 0)
(0.0127651 0.0497989 0)
(0.0165904 0.0467025 0)
(0.0208077 0.0425894 0)
(0.0249648 0.0376617 0)
(0.0284973 0.0323473 0)
(0.0309636 0.0271708 0)
(0.0321546 0.0225934 0)
(0.032217 0.0191129 0)
(0.0317901 0.0167087 0)
(0.0309078 0.0149909 0)
(0.0293032 0.0145847 0)
(0.0278378 0.0166025 0)
(0.0277775 0.0207403 0)
(0.0297288 0.0260382 0)
(0.0337968 0.0310584 0)
(0.0395803 0.0348597 0)
(0.0470708 0.0366758 0)
(0.0557357 0.0312077 0)
(0.0637917 0.0147058 0)
(0.0647412 -0.00446734 0)
(0.00147026 0.0511169 0)
(0.00440823 0.0508451 0)
(0.0069187 0.0488802 0)
(0.00991054 0.0462157 0)
(0.0132801 0.0427169 0)
(0.0170215 0.0385071 0)
(0.020773 0.0339156 0)
(0.0240798 0.0293363 0)
(0.0266273 0.0251646 0)
(0.0282629 0.0216485 0)
(0.0291307 0.0189293 0)
(0.0295325 0.0169663 0)
(0.0295543 0.015671 0)
(0.0293173 0.0153995 0)
(0.0294313 0.016598 0)
(0.0307377 0.0191002 0)
(0.0338234 0.0222865 0)
(0.0388702 0.0252591 0)
(0.0456714 0.0270981 0)
(0.0541347 0.026437 0)
(0.0633315 0.0200598 0)
(0.0711142 0.00640921 0)
(0.0742562 -0.00901099 0)
(0.00088775 0.0486436 0)
(0.0027974 0.0485557 0)
(0.00453397 0.0463043 0)
(0.00703989 0.0431575 0)
(0.00998091 0.0392201 0)
(0.0133886 0.0348313 0)
(0.0168956 0.0304058 0)
(0.0201234 0.0263449 0)
(0.0228115 0.0229031 0)
(0.0248155 0.0201457 0)
(0.0262603 0.018023 0)
(0.0272683 0.016436 0)
(0.0279523 0.0153856 0)
(0.0285462 0.0150239 0)
(0.0295016 0.0154833 0)
(0.0313876 0.016616 0)
(0.0346614 0.0180115 0)
(0.0395362 0.0190997 0)
(0.045953 0.0191768 0)
(0.0536285 0.0170971 0)
(0.0615332 0.011191 0)
(0.0675794 0.00132071 0)
(0.0699587 -0.0100861 0)
(0.00039974 0.0471845 0)
(0.00138587 0.0471651 0)
(0.00234855 0.0443987 0)
(0.00435037 0.0406043 0)
(0.00689846 0.0361087 0)
(0.0100534 0.0314063 0)
(0.0134042 0.0270126 0)
(0.0166206 0.0233064 0)
(0.0194459 0.0204127 0)
(0.0217488 0.0182398 0)
(0.023577 0.0166236 0)
(0.0249736 0.0153946 0)
(0.026069 0.014531 0)
(0.0270955 0.0140521 0)
(0.0283872 0.0139445 0)
(0.0303288 0.0140658 0)
(0.0332375 0.0141333 0)
(0.0372922 0.0137814 0)
(0.0424955 0.0125582 0)
(0.0485463 0.0097783 0)
(0.0546038 0.00472105 0)
(0.0590446 -0.00250456 0)
(0.0612098 -0.0107329 0)
(-5.30887e-05 0.0466826 0)
(9.63342e-05 0.0466113 0)
(0.000383864 0.0431144 0)
(0.00192767 0.0385137 0)
(0.00414357 0.0333094 0)
(0.00708932 0.028164 0)
(0.0103092 0.0236898 0)
(0.013519 0.0202094 0)
(0.0164482 0.0177417 0)
(0.01897 0.0160713 0)
(0.0210373 0.0149136 0)
(0.0226629 0.014051 0)
(0.023974 0.0133895 0)
(0.0251663 0.0128608 0)
(0.0264859 0.0123914 0)
(0.0281947 0.011855 0)
(0.0304988 0.0110562 0)
(0.0335103 0.00975988 0)
(0.037224 0.00770338 0)
(0.0414284 0.00456493 0)
(0.0455279 0.000104659 0)
(0.0486633 -0.00553345 0)
(0.0503949 -0.0117926 0)
(-0.000448495 0.0470029 0)
(-0.00103513 0.0467764 0)
(-0.00133409 0.0423872 0)
(-0.00020438 0.0368167 0)
(0.00171647 0.0307905 0)
(0.00446435 0.0251029 0)
(0.00753951 0.0204448 0)
(0.0107009 0.0170814 0)
(0.0136845 0.0149413 0)
(0.0163492 0.0137254 0)
(0.0185677 0.0130184 0)
(0.0203312 0.0125468 0)
(0.0217423 0.0121385 0)
(0.0229529 0.0116641 0)
(0.0241481 0.0110289 0)
(0.0255124 0.0101323 0)
(0.0271803 0.00884695 0)
(0.0292144 0.00703057 0)
(0.0315893 0.00454697 0)
(0.0341814 0.0012737 0)
(0.036536 -0.00282151 0)
(0.0384398 -0.00756951 0)
(0.0395279 -0.0125562 0)
(-0.00083366 0.048072 0)
(-0.00207382 0.0475511 0)
(-0.00286742 0.0421314 0)
(-0.0021088 0.0354543 0)
(-0.000433671 0.0284995 0)
(0.00208633 0.0222387 0)
(0.0049656 0.0173397 0)
(0.00801699 0.0139784 0)
(0.0109896 0.0120645 0)
(0.0137372 0.0112554 0)
(0.0160655 0.0110015 0)
(0.0179343 0.0109512 0)
(0.0194053 0.0108602 0)
(0.0205862 0.0105528 0)
(0.0216179 0.00992188 0)
(0.022641 0.00889298 0)
(0.023756 0.00739608 0)
(0.0250045 0.00536195 0)
(0.0263638 0.00273582 0)
(0.0277275 -0.000507656 0)
(0.0289008 -0.00431994 0)
(0.0297389 -0.00855849 0)
(0.0300932 -0.0128272 0)
(-0.00118072 0.0498026 0)
(-0.00300916 0.0489101 0)
(-0.00427463 0.042273 0)
(-0.00385103 0.0343976 0)
(-0.00237852 0.0264569 0)
(-0.000135384 0.0196217 0)
(0.00245028 0.0144377 0)
(0.0053193 0.01098 0)
(0.00821889 0.00918355 0)
(0.0109909 0.0086912 0)
(0.013414 0.00887441 0)
(0.0153957 0.00926713 0)
(0.0169452 0.00955804 0)
(0.0181209 0.00952716 0)
(0.0190246 0.00904654 0)
(0.0197722 0.00805582 0)
(0.0204556 0.00652798 0)
(0.0211198 0.00445333 0)
(0.0217591 0.00183382 0)
(0.0222965 -0.00129879 0)
(0.0226763 -0.00486504 0)
(0.0227834 -0.00874236 0)
(0.0225788 -0.0126198 0)
(-0.0015147 0.0521603 0)
(-0.00390273 0.0508004 0)
(-0.00561327 0.0428201 0)
(-0.00548348 0.0335871 0)
(-0.00419475 0.0246824 0)
(-0.00229092 0.0173683 0)
(-8.94281e-05 0.0117985 0)
(0.00255336 0.0081428 0)
(0.00531912 0.00637243 0)
(0.00802051 0.00608636 0)
(0.0105218 0.00663937 0)
(0.0126451 0.00746312 0)
(0.0143219 0.0081847 0)
(0.0155591 0.00852848 0)
(0.0164155 0.00832698 0)
(0.016986 0.00751175 0)
(0.0173671 0.00608414 0)
(0.0176185 0.00408017 0)
(0.0177572 0.00154743 0)
(0.0177605 -0.00144553 0)
(0.0176188 -0.00480992 0)
(0.0172691 -0.00844272 0)
(0.0167481 -0.0121239 0)
(-0.00183944 0.0551151 0)
(-0.0047779 0.0531945 0)
(-0.00692921 0.0437452 0)
(-0.00703392 0.0329786 0)
(-0.00596786 0.0231576 0)
(-0.00451225 0.0155989 0)
(-0.0026641 0.00947316 0)
(-0.000241104 0.00549299 0)
(0.00234886 0.00367705 0)
(0.00493597 0.00349162 0)
(0.00742497 0.00430429 0)
(0.00966909 0.00551546 0)
(0.0115169 0.00668142 0)
(0.0128966 0.00747153 0)
(0.0138081 0.00765945 0)
(0.0143165 0.00714182 0)
(0.0145205 0.00592543 0)
(0.0144997 0.00407599 0)
(0.0142998 0.00168201 0)
(0.013947 -0.00116573 0)
(0.0134664 -0.00437512 0)
(0.0128237 -0.0078674 0)
(0.0121186 -0.0114894 0)
(-0.00215646 0.0586593 0)
(-0.00561794 0.0560809 0)
(-0.00816405 0.0450186 0)
(-0.00851645 0.0325463 0)
(-0.0078767 0.0220891 0)
(-0.00687063 0.0141732 0)
(-0.00520865 0.0074082 0)
(-0.00294851 0.00304957 0)
(-0.000539574 0.00113574 0)
(0.00188341 0.000984299 0)
(0.00428066 0.00192223 0)
(0.00656911 0.00341901 0)
(0.00857699 0.00499606 0)
(0.0101538 0.00627014 0)
(0.0112168 0.00693486 0)
(0.0117772 0.00682524 0)
(0.011921 0.005922 0)
(0.0117507 0.0043056 0)
(0.0113403 0.00209597 0)
(0.0107481 -0.000595594 0)
(0.0100462 -0.00368551 0)
(0.00922257 -0.00711125 0)
(0.00839185 -0.0107655 0)
(-0.00243832 0.0627444 0)
(-0.0063431 0.0594103 0)
(-0.00918539 0.046604 0)
(-0.00991691 0.0325204 0)
(-0.0099405 0.0216137 0)
(-0.0092371 0.0128835 0)
(-0.00750598 0.00540158 0)
(-0.00535279 0.000790306 0)
(-0.00313041 -0.00121708 0)
(-0.000919974 -0.00136357 0)
(0.00129635 -0.000396842 0)
(0.00350907 0.00123413 0)
(0.00560586 0.00312896 0)
(0.00738182 0.00486608 0)
(0.00865892 0.00605982 0)
(0.009372 0.00645169 0)
(0.00956753 0.00596081 0)
(0.00935633 0.00465693 0)
(0.00884608 0.00267524 0)
(0.00810824 0.000150693 0)
(0.00726512 -0.00283204 0)
(0.00631422 -0.00622301 0)
(0.00540218 -0.00995567 0)
(-0.00266366 0.0672889 0)
(-0.00692791 0.0631007 0)
(-0.00997051 0.0484476 0)
(-0.011195 0.0331672 0)
(-0.0118532 0.0216068 0)
(-0.0111818 0.0115277 0)
(-0.00930701 0.00339447 0)
(-0.00719505 -0.00136288 0)
(-0.00519228 -0.00333203 0)
(-0.00325082 -0.0034892 0)
(-0.00130818 -0.00254286 0)
(0.000702592 -0.000909928 0)
(0.00274798 0.00114621 0)
(0.00464952 0.00325042 0)
(0.00615656 0.00496668 0)
(0.00709842 0.00592602 0)
(0.00744696 0.00594042 0)
(0.00729385 0.00502879 0)
(0.0067693 0.00332688 0)
(0.00598348 0.000987717 0)
(0.00506824 -0.00188815 0)
(0.00404675 -0.00525726 0)
(0.00307433 -0.00907175 0)
(-0.00279639 0.0721677 0)
(-0.00732112 0.0670729 0)
(-0.0105433 0.0505326 0)
(-0.0122388 0.0344752 0)
(-0.0132171 0.0217487 0)
(-0.0123564 0.010067 0)
(-0.0103696 0.00134929 0)
(-0.00831073 -0.00339373 0)
(-0.00652011 -0.00519716 0)
(-0.00492398 -0.00528354 0)
(-0.00333935 -0.00439391 0)
(-0.00165635 -0.00285567 0)
(0.000180153 -0.000815884 0)
(0.00206143 0.00148366 0)
(0.00374181 0.00363459 0)
(0.00494932 0.00517306 0)
(0.00553613 0.0057687 0)
(0.00553419 0.00533304 0)
(0.00508155 0.00397427 0)
(0.0043213 0.00185895 0)
(0.00338802 -0.000900384 0)
(0.0023424 -0.00424123 0)
(0.0013497 -0.00813377 0)
(-0.00280147 0.0772159 0)
(-0.00745837 0.071244 0)
(-0.0108858 0.0528901 0)
(-0.0129062 0.0361406 0)
(-0.0138446 0.0217796 0)
(-0.012683 0.00848912 0)
(-0.0105791 -0.000727067 0)
(-0.00859292 -0.00528097 0)
(-0.00706618 -0.0067713 0)
(-0.00582367 -0.00669288 0)
(-0.00467014 -0.00583753 0)
(-0.00340844 -0.00445296 0)
(-0.00193739 -0.00258169 0)
(-0.000250662 -0.000300269 0)
(0.00146846 0.00210412 0)
(0.00291207 0.00414924 0)
(0.00379629 0.00536008 0)
(0.00403421 0.0054823 0)
(0.00373246 0.00453857 0)
(0.00305911 0.00269123 0)
(0.00216914 8.50695e-05 0)
(0.00114936 -0.00321934 0)
(0.000161739 -0.00716788 0)
(-0.0026598 0.0822287 0)
(-0.00730191 0.075513 0)
(-0.0108669 0.0555109 0)
(-0.0129939 0.0378131 0)
(-0.013674 0.0215655 0)
(-0.0121279 0.00668705 0)
(-0.00990142 -0.00283557 0)
(-0.00805922 -0.00697938 0)
(-0.00686315 -0.00801759 0)
(-0.00600486 -0.00769842 0)
(-0.00527424 -0.00682056 0)
(-0.00447728 -0.00560258 0)
(-0.00346252 -0.00399506 0)
(-0.00214939 -0.00192628 0)
(-0.000578275 0.000488987 0)
(0.000986146 0.00286776 0)
(0.00217332 0.00465394 0)
(0.00272761 0.00539487 0)
(0.00265845 0.00494693 0)
(0.0021418 0.00342944 0)
(0.00134316 0.00100663 0)
(0.00038593 -0.00223714 0)
(-0.000549433 -0.0062121 0)
(-0.00236729 0.0869803 0)
(-0.00682841 0.0797452 0)
(-0.0103532 0.0582361 0)
(-0.0123784 0.0392899 0)
(-0.0126672 0.021009 0)
(-0.010617 0.00458642 0)
(-0.00836406 -0.0049284 0)
(-0.00684076 -0.00840283 0)
(-0.00604108 -0.00888233 0)
(-0.00557936 -0.00828081 0)
(-0.00525443 -0.00734756 0)
(-0.00489475 -0.00625434 0)
(-0.00434803 -0.00492716 0)
(-0.0034911 -0.00320658 0)
(-0.00227226 -0.00103003 0)
(-0.000786525 0.0014184 0)