/*--------------------------------*- C++ -*----------------------------------*\
| =========                 |                                                 |
| \\      /  F ield         | OpenFOAM: The Open Source CFD Toolbox           |
|  \\    /   O peration     | Version:  2312                                  |
|   \\  /    A nd           | Website:  www.openfoam.com                      |
|    \\/     M anipulation  |                                                 |
\*---------------------------------------------------------------------------*/
FoamFile
{
    version     2.0;
    format      ascii;
    arch        "LSB;label=32;scalar=64";
    class       volScalarField;
    location    "1.4";
    object      alphas;
}
// * * * * * * * * * * * * * * * * * * * * * * * * * * * * * * * * * * * * * //

dimensions      [0 0 0 0 0 0 0];

internalField   nonuniform List<scalar> 
2268
(
2
2
2
2
2
2
2
2
2
2
2
2
2
2
2
2
2
2
2
2
2
1.99996
1.99993
2
2
2
2
2
2
2
2
2
2
2
2
2
2
2
2
2
2
2
2
2
1.99999
1.99994
2
2
2
2
2
2
2
2
2
2
2
2
2
2
2
2
2
2
2
2
2
2
2
2
2
2
2
2
2
2
2
2
2
2
2
2
2
2
2
2
2
2
2.00001
2.00003
1.99997
2
2
2
2
1.99993
1.99797
1.99956
2
2
2
2
2
2
2
2
2
2
2
2
2
1.99995
1.97715
1.77163
1.62264
1.94976
1.73031
1.43843
1.18819
1.07836
1.14136
1.34745
1.55738
1.75887
1.91364
1.99183
2
2
2
2
2
2
1.99994
1.99959
1.67441
0.884495
0.375581
0.231528
0.615516
0.323616
0.121614
0.0379997
0.0237765
0.0203442
0.0212905
0.114869
0.280604
0.55159
0.961221
1.41776
1.75064
1.93448
1.99081
1.99826
1.99996
1.88233
1.22109
0.297427
0.00353988
5.3295e-05
0.0271193
0.319542
0.306806
0.265155
0.225497
0.163621
0.0549821
0.0127821
0.0125633
0.0102103
0.00424559
0.00332069
0.0795333
0.34624
0.742405
1.11018
1.2328
1.05786
0.521814
0.0540759
0.000238133
3.0719e-05
3.9226e-06
0.00672221
1.38343
1.48051
1.58693
1.58651
1.69722
1.8143
1.84577
1.85837
1.86853
1.87616
1.87443
1.87839
1.88543
1.88194
1.88481
1.90288
1.92526
1.93126
1.90997
1.3722
1.22396
1.23121
1.17244
1.04
0.778527
0.770821
1.20446
1.5403
1.59567
1.71153
1.82099
1.86902
1.90902
1.95838
1.96877
1.95829
1.93463
1.9351
1.2953
1.20471
1.11593
1.323
1.3026
0.937193
0.668883
0.621537
0.644527
1.28904
1.46398
1.45989
1.68295
1.86511
1.87248
1.76623
1.494
1.24441
1.23501
1.34604
1.22061
0.882272
1.19452
1.45393
1.68388
1.46706
1.34562
1.39841
1.53368
1.57044
1.43116
1.44839
1.42238
1.15708
0.688772
0.276036
0.231567
0.508745
1.28654
1.00785
0.567752
1.01583
1.07883
1.23545
1.63761
1.33953
1.3859
1.67469
1.39038
0.804595
0.800069
0.675327
0.548632
0.316118
0.12614
0.122695
0.601219
1.22198
0.591187
0.565212
0.722174
0.9923
1.07395
1.17025
1.25911
0.988665
1.32808
0.818455
0.474033
0.187164
0.14204
0.139503
0.139464
0.139464
0.188832
0.746997
1.11102
0.56539
0.651723
0.619031
0.602977
0.872251
1.11516
1.0632
0.391584
0.61373
0.478366
0.19635
0.192583
0.218194
0.157775
0.13633
0.13098
0.476283
0.842628
1.04912
0.73761
0.723606
0.608157
0.621995
0.694721
1.12943
1.00613
0.266312
0.18443
0.161547
0.249401
0.879478
0.999523
0.599015
0.47322
0.507078
0.731763
0.883541
0.994975
0.992909
1.0942
1.16665
0.967317
0.543028
0.122488
0.020941
0.0110897
0.00540022
0.00336273
0.00239053
0.00173698
0.00080248
0.000958019
0.00896657
0.0106089
9.89407e-05
4.4441e-07
1.26206e-08
1.12246e-08
3.51629e-06
1.10504e-06
1.00009
1.039
1.00521
1.00517
1.00476
1.18198
1.23168
0.753324
0.142688
0.0323056
0.0544977
0.052107
0.0319426
0.0140303
0.00112469
0.00177821
0.000666548
3.0368e-07
3.34804e-07
2.68833e-08
1.64304e-08
1.97062e-08
1.27786e-05
1.00009
1.20133
1.34426
1.26905
1.19262
1.06392
1.00414
1.08
1.17142
0.578085
0.323653
0.528758
0.607022
0.54935
0.322465
0.0351008
1.63075e-07
1.68861e-07
8.35081e-05
0.000240511
0.000199822
0.000111038
5.67247e-05
1.00009
1.14234
2.09391
2.12881
2.05106
1.25451
1.00394
1.00396
1.00403
0.933027
1.02762
1.29316
1.51511
1.44075
0.766342
0.100113
7.16367e-06
3.32455e-06
5.58671e-05
0.00156275
0.00231037
0.0012815
0.000147302
1.00009
1.06876
2.09385
2.08249
1.53403
1.13072
1.00359
1.01564
1.00417
1.39192
2.34465
2.26365
1.65261
1.55797
0.628333
0.0339366
3.84404e-06
1.20209e-05
4.73344e-05
4.8408e-05
0.0068692
0.00685341
0.017512
1.0001
1.03307
1.58244
1.08241
1.00457
1.03823
1.11583
1.56696
2.18039
2.48305
2.48367
2.51569
1.84714
1.49152
0.335776
0.0112994
0.0117857
0.0222829
0.047346
0.0611724
0.166156
0.323275
0.351091
1.00038
1.00109
0.999995
1.01503
1.00539
1.05269
1.19078
1.88453
2.53785
2.5202
2.49812
2.52601
2.1261
1.76217
0.585416
0.251702
0.254603
0.297222
0.428413
0.424779
0.416093
0.304778
0.207661
1.00012
1.00002
0.999996
1.15106
1.1297
1.0244
1.01565
1.08633
1.6052
2.53737
2.53744
2.53791
2.4596
1.91755
0.846358
0.879972
0.952523
0.987032
1.01418
0.963997
0.864938
0.859973
0.866374
1.00003
1.00002
1
1.13124
1.14312
1.03955
1.00108
1.00053
1.00015
1.35798
1.9936
2.1952
1.95486
1.55453
1.20105
1.04076
1.01823
1.01834
1.01845
1.03622
1.06121
1.07439
1.0745
1.21043
1.21182
1.07217
1.06572
1.07486
1.06138
1.0091
1.0049
1.0024
1.00315
1.02787
1.54989
1.67077
1.23555
0.993951
1.01279
1.01698
1.05307
1.09449
1.16712
1.30749
1.57566
2.02069
2.65906
2.6477
2.35697
1.74925
1.36941
1.11627
1.00917
1.02934
1.03691
1.02232
1.12609
1.32885
1.20931
1.02566
1.02426
1.02146
1.037
1.08337
1.14925
1.15858
1.1588
1.15889
1.85832
2.99999
2.99997
2.99994
2.96809
2.7357
2.30986
1.69258
1.24237
1.07812
1.07994
1.10777
1.15972
1.28738
1.4461
1.5513
1.52661
1.43979
1.45727
1.57109
1.82916
2.00955
2.06366
2.35173
2.99999
2.99989
2.99995
3
3
2.99994
2.96644
2.66796
2.10909
1.54137
1.28557
1.21656
1.21604
1.59249
2.30042
2.64857
2.7073
2.76866
2.86127
2.99203
2.99987
2.99981
2.99972
2.99977
2.9974
2.99762
2.99936
3
3
3
2.99993
2.9999
2.94037
2.67527
2.39679
2.2871
2.17902
2.24706
2.82712
2.99958
2.99965
2.99978
2.9999
2.99997
2.99997
2.99999
2.99913
2.99666
2.99666
2.99829
3
3
3
3
3
2.99999
2.99999
2.99998
2.99999
2.99997
2.99993
2.97947
2.98309
2.99973
2.99996
2.99996
2.99997
3
3
2.99916
2.99681
2.99757
2.99949
3
3
3
3
3
3
3
3
3
3
3
2.99998
2.99997
3
3
2.99999
2.99999
3
3
2.99994
2.99981
3
3
3
3
2.99999
2.99999
2.99999
3
3
3
2.99999
2.99999
2.99999
3
3
3
3
3
3
3
3
2.99999
2.99999
3
3
3
2.99999
2.99999
2.99999
3
3
3
3
3
3
3
3
3
3
3
3
3
3
3
3
2.99999
3
3
3
2.99999
3
3
3
3
3
3
3
3
3
3
3
3
3
3
3
3
3
3
2.99999
3
3
3
3
3
3
3
3
3
3
3
3
3
3
3
3
3
3
3
3
3
3
3
2.99999
3
3
3
3
3
3
3
3
3
3
3
3
3
3
3
3
3
3
3
3
3
3
2.99999
3
3
3
3
3
3
3
3
3
3
3
3
3
3
3
3
3
3
3
3
3
3
2.99999
2.99999
3
3
3
3
3
3
3
3
3
3
3
3
3
3
3
3
3
3
3
3
3
2.99999
2.99999
3
3
3
3
3
3
3
3
3
3
3
3
3
3
3
3
3
3
3
3
2.99998
2.99999
2.99999
2.99999
3
3
3
3
3
3
3
3
3
3
3
3
3
3
3
3
3
3
3
2.99998
2.99998
2.99999
3
3
3
3
3
3
3
3
3
3
3
3
3
3
3
3
3
3
3
2.99997
2.99998
2.99998
2.99999
3
3
3
3
3
3
3
3
3
3
3
3
3
3
3
3
3
3
3
2.99994
3
3
3
3
3
3
3
3
3
3
3
3
3
3
3
3
3
3
3
3
3
3
2.99994
3
3
3
3
3
3
3
3
3
3
3
3
3
3
3
3
3
3
3
3
3
3
2.99994
3
3
3
3
3
3
3
3
3
3
3
3
3
3
3
3
3
3
3
3
3
3
2.99994
3
3
3
3
3
3
3
3
3
3
3
3
3
3
3
3
3
3
3
3
3
3
2.99994
3
3
3
3
3
3
3
3
3
3
3
3
3
3
3
3
3
3
3
3
3
3
2.99994
3
3
3
3
3
3
3
3
3
3
3
3
3
3
3
3
3
3
3
3
3
3
2.99994
2.99995
3
3
3
3
3
3
3
3
3
3
3
3
3
3
3
3
3
3
3
3
3
2.99996
2.99988
3
3
2.99999
3
3
3
3
3
3
3
3
3
3
3
3
3
3
3
3
3
3
3
2.99988
2.99989
2.99999
2.99999
3
3
3
3
3
3
3
3
3
3
3
3
3
3
3
3
3
3
3
2.99995
2.99994
2.99998
3
3
3
3
3
3
3
3
3
3
3
3
3
3
3
3
3
3
3
3
3
3
3
3
3
3
3
3
3
3
3
3
3
3
3
3
3
3
3
3
3
3
3
3
3
3
3
3
3
3
3
3
3
3
3
3
3
3
3
3
3
3
3
3
3
3
3
3
3
3
3
3
3
3
3
3
3
3
3
3
3
3
3
3
3
3
3
3
3
3
3
3
3
3
3
3
3
3
3
3
3
3
3
3
3
3
3
3
3
3
3
3
3
3
3
3
3
3
3
3
3
3
3
3
3
3
3
3
3
3
3
3
3
3
1.03111e-06
9.8897e-07
9.6608e-07
9.62328e-07
6.42345e-05
6.51235e-05
6.51288e-05
5.30184e-05
2.2711e-05
3.4637e-05
2.44339e-05
6.49149e-06
4.25273e-05
5.16299e-05
5.46155e-06
6.21402e-06
0.0626898
0.261193
0.373136
0.508266
0.345989
0.33161
0.248589
0.151366
0.192694
0.176797
0.145969
0.12788
0.869118
0.855059
0.798755
0.841399
1.08653
1.15417
1.27761
1.41071
2.37456
2.6395
2.87523
2.99992
2.88229
2.99967
2.99981
2.99983
2.84828
2.99954
2.99975
2.99998
2.99882
2.99978
2.99998
2.99999
3
2.99999
3
2.99999
3
3
3
3
3
3
3
3
3
3
3
3
3
3
3
3
3
3
3
3
3
3
3
3
3
3
3
3
3
3
3
3
3
3
3
3
3
3
3
3
3
3
3
3
3
3
3
3
3
3
3
3
3
3
3
3
3
3
3
3
3
3
3
3
3
3
3
3
3
3
3
3
3
3
3
3
3
3
3
3
3
3
3
3
3
3
3
3
3
3
3
3
3
3
3
3
3
3
3
3
3
3
3
3
3
3
3
3
3
3
3
3
0.0905574
0.348777
0.637176
0.634965
0.659142
0.700887
1.01266
1.06464
0.9165
0.276958
0.245875
0.722711
1.25145
1.49037
1.04571
0.971681
1.04775
1.08254
1.15739
4.10368e-05
3.98754e-05
0.0344688
0.461535
0.571835
0.64864
0.72715
0.973053
1.02046
0.893624
0.616724
0.800303
1.32255
1.3737
1.21181
1.21062
1.37497
1.68905
1.26286
0.000118841
0.000199601
0.0490613
0.330583
0.527972
0.467207
0.538983
0.656298
0.853547
1.25063
1.11365
1.11559
1.23203
1.21013
1.21227
1.26625
2.1686
2.86455
1.94465
0.128736
0.247157
0.214451
0.231548
0.435473
0.582929
0.483255
0.599367
0.838673
1.14634
1.16941
1.18599
1.20952
1.38115
1.60666
2.09938
2.87449
2.98813
2.92791
0.544001
0.42724
0.169771
0.164675
0.201971
0.734171
1.62622
1.72275
1.45572
1.1839
1.184
1.29436
1.91297
2.53933
2.86445
2.97393
2.99978
2.99968
2.99949
0.20876
0.570426
0.867463
0.854641
1.37982
2.12185
2.39047
2.28401
2.03443
1.98367
2.18199
2.65305
2.9349
2.98586
2.99957
2.99977
2.99975
2.99992
2.99998
0.567707
1.12203
1.40959
1.60843
1.9559
2.78961
2.99986
2.82407
2.82545
2.94848
2.96398
2.9654
2.98681
2.99907
2.99957
2.9996
2.99979
2.99994
2.99998
1.0683
1.38147
1.66475
2.60609
2.99995
2.99995
2.99995
2.99994
2.99309
2.98359
2.98499
2.99722
2.99924
2.99968
2.99993
2.99991
2.99999
2.99999
2.99999
1.78906
2.6488
2.99993
2.99993
2.99992
2.99994
2.99994
2.99693
2.98893
2.99049
2.99881
2.99986
2.99993
3
3
2.99998
2.99992
2.9999
2.99998
2.99997
2.99996
2.99994
2.99992
2.99994
2.99993
2.99944
2.99502
2.99434
2.99896
2.99991
3
3
3
3
2.99997
2.99975
2.99975
2.99975
2.99997
2.99995
2.99991
2.99997
2.99999
2.9998
2.99743
2.99704
2.99986
2.99997
2.99999
3
3
3
3
2.99999
2.99987
2.99975
2.9999
2.99995
2.9999
2.99993
3
2.99998
2.99961
2.999
2.99971
2.99993
2.9999
2.99969
2.99973
2.99998
3
3
3
2.99999
2.99996
3
2.99991
2.9999
3
3
2.99996
2.99983
2.99983
2.99978
2.99961
2.99955
2.99954
2.99955
2.99955
2.99991
3
3
2.99999
3
3
2.99998
2.99998
3
3
2.99999
2.99992
2.9997
2.9996
2.9996
2.99963
2.99969
2.99972
2.99974
2.99989
3
3
2.99999
3
3
3
3
3
3
3
2.99992
2.99975
2.99973
2.99991
2.99996
2.99999
3
3
2.99999
3
3
2.99999
3
3
3
3
3
3
3
2.99998
2.99999
2.99999
3
3
2.99999
3
3
3
3
3
3
3
3
3
3
3
3
3
3
3
3
3
2.99999
2.99999
3
3
3
3
3
3
3
3
3
3
3
3
3
3
3
3
3
2.99999
2.99999
3
3
3
3
3
3
3
3
3
3
3
3
3
3
3
3
3
3
3
3
3
3
3
3
3
3
2.99999
3
3
3
3
3
3
3
3
3
3
3
3
3
3
3
3
3
3
2.99998
3
3
3
3
3
3
3
3
3
3
3
3
3
3
3
3
3
2.99998
2.99998
3
3
3
3
3
3
3
3
3
3
3
3
3
3
3
3
3
2.99998
2.99999
3
3
3
3
3
3
3
3
3
3
3
3
3
3
3
3
2.99998
2.99998
3
3
3
3
3
3
3
3
3
3
3
3
3
3
3
3
3
2.99999
2.99998
3
3
3
3
3
3
3
3
3
3
3
3
3
3
3
3
3
3
3
3
3
3
3
3
3
3
3
3
3
3
3
3
3
3
3
3
3
3
3
3
3
3
3
3
3
3
3
3
3
3
3
3
3
3
3
3
3
3
3
3
3
3
3
3
3
3
3
3
3
3
3
3
3
3
3
3
3
3
3
3
3
3
3
3
3
3
3
3
3
3
3
3
3
3
3
3
3
3
3
3
3
3
3
3
3
3
3
3
3
3
3
3
3
3
3
3
3
3
3
3
3
3
3
3
3
3
3
3
3
3
3
3
3
3
3
3
3
3
3
3
3
3
3
3
3
3
3
3
3
3
3
3
3
3
3
3
3
3
3
3
3
3
3
3
3
3
3
3
3
3
3
3
3
3
3
3
3
3
3
3
3
3
3
3
3
3
3
3
3
3
3
3
3
3
3
3
3
3
3
3
3
3
3
3
3
3
3
3
3
3
3
3
3
3
3
3
3
3
3
3
3
3
3
3
3
3
3
3
3
3
3
3
3
3
3
3
3
3
3
3
3
3
3
3
3
3
3
3
3
3
3
3
3
3
3
3
3
3
3
3
3
3
3
3
3
3
3
3
3
3
3
3
3
3
3
3
3
3
3
3
3
3
3
3
3
3
3
3
3
3
3
3
3
3
3
3
3
3
3
3
3
3
3
3
3
3
3
3
3
3
3
3
3
3
3
3
3
3
3
3
3
3
3
3
3
3
3
3
3
3
3
3
3
3
3
3
3
3
3
3
3
3
3
)
;

boundaryField
{
    leftWall
    {
        type            calculated;
        value           nonuniform List<scalar> 
50
(
2
2
2
2
2
1.94976
0.615516
0.319542
0.994975
1.00009
1.00009
1.00009
1.00009
1.0001
1.00038
1.00012
1.00003
1.21043
2.65906
2.99999
2.99999
2.99977
2.99913
2.99916
2.99994
2.99999
3
3
3
3
3
3
3
3
2.99997
2.99994
2.99994
2.99994
2.99994
2.99994
2.99994
2.99994
2.99996
3
3
3
3
3
3
3
)
;
    }
    rightWall
    {
        type            calculated;
        value           nonuniform List<scalar> 
50
(
1.90997
1.9351
1.23501
0.508745
0.601219
0.746997
0.842628
0.883541
1.15739
1.26286
1.94465
2.92791
2.99949
2.99998
2.99998
2.99999
2.99998
2.99975
2.9999
3
3
3
3
3
3
3
2.99999
2.99998
2.99998
2.99999
3
3
3
3
3
3
3
3
3
3
3
3
3
3
3
3
3
3
3
3
)
;
    }
    lowerWall
    {
        type            calculated;
        value           nonuniform List<scalar> 
62
(
2
2
2
2
2
2
2
2
2
2
2
2
2
2
2
2
2
2
2
2
2
1.99996
1.99993
1.99993
1.99994
2
2
1.62264
0.231528
0.0271193
0.00672221
1.03111e-06
9.8897e-07
9.6608e-07
9.62328e-07
1.38343
1.3722
1.2953
1.34604
1.28654
1.22198
1.11102
1.04912
1.38343
1.48051
1.58693
1.58651
1.69722
1.8143
1.84577
1.85837
1.86853
1.87616
1.87443
1.87839
1.88543
1.88194
1.88481
1.90288
1.92526
1.93126
1.90997
)
;
    }
    atmosphere
    {
        type            calculated;
        value           nonuniform List<scalar> 
46
(
3
3
3
3
3
3
3
3
3
3
3
3
3
3
3
3
3
3
3
3
3
3
3
3
3
3
3
3
3
3
3
3
3
3
3
3
3
3
3
3
3
3
3
3
3
3
)
;
    }
    defaultFaces
    {
        type            empty;
    }
}


// ************************************************************************* //
