/*--------------------------------*- C++ -*----------------------------------*\
| =========                 |                                                 |
| \\      /  F ield         | OpenFOAM: The Open Source CFD Toolbox           |
|  \\    /   O peration     | Version:  2312                                  |
|   \\  /    A nd           | Website:  www.openfoam.com                      |
|    \\/     M anipulation  |                                                 |
\*---------------------------------------------------------------------------*/
FoamFile
{
    version     2.0;
    format      ascii;
    arch        "LSB;label=32;scalar=64";
    class       volScalarField;
    location    "1.4";
    object      alpha.air;
}
// * * * * * * * * * * * * * * * * * * * * * * * * * * * * * * * * * * * * * //

dimensions      [0 0 0 0 0 0 0];

internalField   nonuniform List<scalar> 
2268
(
3.89083e-12
1.71057e-12
1.08778e-12
1.09052e-12
2.41191e-12
3.61988e-12
2.30943e-12
9.41324e-13
3.82066e-13
1.22909e-13
8.14088e-14
7.97497e-14
9.68614e-14
1.38599e-13
1.75868e-13
2.59965e-13
7.64868e-13
2.23604e-12
2.06775e-12
6.2119e-13
4.70995e-13
2.28326e-12
1.36246e-12
9.17321e-12
5.54711e-12
1.12256e-12
1.92937e-11
1.55041e-10
9.98574e-11
3.16813e-11
1.35202e-11
4.88746e-12
1.68243e-12
8.14222e-13
6.47165e-13
9.53125e-13
1.02121e-12
1.2523e-12
2.11506e-12
3.15079e-11
2.19875e-11
1.65192e-13
1.64717e-13
2.1986e-13
4.65753e-13
3.8923e-13
5.52794e-12
5.52795e-12
2.91945e-10
2.62284e-09
3.59394e-09
7.31275e-10
1.39943e-10
5.88249e-11
2.26039e-11
1.04672e-11
3.36798e-12
2.09621e-12
1.22911e-11
6.01714e-12
4.98404e-12
7.62866e-12
8.46828e-11
5.16743e-09
2.24616e-09
1.80098e-10
7.96105e-14
7.95428e-14
7.96109e-14
1.46779e-09
2.50286e-08
1.21709e-07
6.07251e-08
9.64993e-09
9.51688e-10
2.11686e-10
1.03603e-10
4.45357e-11
3.78117e-11
2.00948e-12
2.01296e-12
2.47327e-10
7.08141e-11
1.42377e-11
6.09722e-12
1.1343e-11
3.33109e-10
1.9421e-10
1.01178e-05
3.11942e-05
4.98075e-12
9.69696e-14
2.05073e-08
8.77336e-08
1.74684e-07
1.21277e-07
5.21074e-11
5.19508e-11
4.74048e-11
4.71116e-11
2.82852e-11
2.84509e-11
1.28211e-08
6.50346e-09
2.23372e-09
6.83552e-10
2.93941e-10
1.32833e-10
1.53997e-11
3.95667e-09
1.38997e-08
1.40687e-08
0.000224455
0.00225889
0.00599687
5.66762e-27
3.86468e-26
-6.32441e-28
7.2525e-09
0.000111209
5.21074e-11
2.77022e-05
5.75043e-15
5.02411e-15
5.87962e-07
2.41294e-07
3.11232e-08
2.31993e-09
1.36795e-09
4.67148e-09
8.94681e-09
2.30317e-08
2.55213e-08
1.40422e-08
1.02652e-06
2.5384e-05
0.00200231
0.00639988
0.000139345
0.00103215
0.0066901
0.00993782
0.00790912
0.00458844
0.00286225
0.00192032
0.00072094
3.18594e-05
3.71739e-07
2.55774e-07
1.62158e-08
2.4188e-09
2.33727e-09
1.09794e-07
1.53146e-07
1.51116e-07
1.03713e-07
1.73244e-06
1.2036e-08
1.46157e-05
0.00630131
0.0169377
0.0290789
0.0585858
0.0667352
0.0533544
0.0183271
0.00426049
0.00418753
0.00306643
0.000222529
2.01483e-05
2.43784e-06
2.19406e-08
2.88928e-08
4.4254e-07
8.80198e-08
8.81679e-08
1.53367e-07
1.03183e-07
1.77301e-07
1.06041e-08
9.40091e-09
0.00129812
0.012161
0.00340069
0.000296868
0.000300324
0.00027731
4.86345e-05
1.04039e-06
1.44543e-07
8.78716e-05
0.00132475
0.00357086
0.00510027
0.00742294
0.00677622
0.00635729
0.00594148
0.00584756
0.00584891
0.00527427
0.00606565
0.0031132
0.00598006
0.055323
0.0448652
0.00979826
0.000475931
1.55234e-07
0.000314987
0.0037731
0.0107172
0.0216272
0.0205846
0.0200485
0.0211441
0.0189394
0.0137386
0.00722006
0.00758895
0.00304143
0.00311664
0.0323679
0.125115
0.163581
0.123355
0.037463
0.0098007
0.000311802
0.0279793
0.0455547
0.0250313
0.0293305
0.053624
0.0536225
0.039082
0.0177425
0.0158046
0.0158109
0.00501259
0.0266082
0.0539333
0.00905562
0.116047
0.220246
0.220828
0.191975
0.180887
0.188248
0.15206
0.0234982
0.0357624
0.0536233
0.0536231
0.0434915
0.00845093
0.0042501
0.00749746
0.0144217
0.0272964
0.0091805
0.00905536
0.010108
0.0556007
0.250321
0.27175
0.271674
0.27163
0.16637
0.0100909
0.0160255
0.0295679
0.0349471
0.0082721
0.00115107
7.44774e-06
2.58637e-06
0.0139746
0.0244463
0.0467415
0.00911748
0.00909449
0.0141362
0.0465282
0.178931
0.250604
0.238901
0.0788641
0.00125958
0.00119404
0.00119392
0.00119949
0.00120522
0.00120977
0.000413648
2.57073e-06
0.0178955
0.0800787
0.0913267
0.0353029
0.0280658
0.0171623
0.0658006
0.131274
0.0782005
0.0397721
0.00272014
0.00121537
0.00121685
0.00640822
0.00391984
0.00122428
0.000386074
2.06201e-05
4.49882e-06
0.033252
0.0909722
0.0913339
0.054299
0.0603933
0.108286
0.102652
0.0934331
0.0359008
0.00298068
0.00277907
0.024691
0.135037
0.123404
0.0250871
0.000132854
0.000136518
0.00200662
4.53766e-06
0.0179746
0.0232646
0.0902484
0.147529
0.147529
0.131697
0.0372655
0.00696795
0.00347859
0.000612581
6.60104e-05
5.84803e-22
3.57795e-07
4.50332e-25
1.70416e-05
3.66957e-05
8.37588e-06
1.19144e-07
3.28425e-09
3.27882e-09
3.28962e-09
1.13533e-08
3.25602e-09
4.75007e-05
0.0194991
0.00260311
0.00258249
0.00253558
0.091905
0.124442
0.124442
0.0460653
0.00469751
1.27277e-21
1.69849e-21
-3.37206e-21
-6.1888e-21
-2.37835e-08
0.000542253
0.000221225
9.05675e-08
9.73171e-08
3.27573e-09
3.27485e-09
3.30721e-09
3.60883e-09
4.73094e-05
0.100667
0.17213
0.134547
0.0964639
0.0321478
0.00208937
0.0400191
0.134163
0.134398
0.0525561
0.0235684
0.0318075
0.0291115
0.0121864
0.00227067
2.32255e-08
2.03772e-08
2.75445e-05
7.97788e-05
6.63838e-05
3.70121e-05
1.79907e-05
4.73094e-05
0.0711679
0.54697
0.564506
0.525627
0.127289
0.00197715
0.00199951
0.00205806
0.0593068
0.256293
0.24178
0.273736
0.24895
0.0442101
2.4225e-06
2.36129e-06
2.0343e-08
9.62212e-06
0.000505924
0.000755814
0.000419958
4.83005e-05
4.73174e-05
0.0343818
0.54692
0.54125
0.267009
0.0655067
0.00198182
0.00785147
0.00210501
0.235226
0.718957
0.648036
0.326296
0.288027
0.0685632
1.91751e-05
2.2527e-08
2.0386e-08
2.0346e-08
2.08772e-07
0.00210406
0.00208926
0.00583633
4.84072e-05
0.0165357
0.291227
0.0412065
0.00228707
0.0193332
0.0586304
0.283672
0.590217
0.756259
0.767807
0.769526
0.423565
0.29697
0.079433
0.00357233
0.00379803
0.00645729
0.0144192
0.0194798
0.0520119
0.0968077
0.102119
0.000190581
0.000545316
3.46701e-06
0.00751578
0.00269554
0.0264147
0.0961065
0.443069
0.768944
0.769299
0.769648
0.769299
0.563052
0.483204
0.180165
0.0684678
0.0320144
0.0257468
0.0794459
0.0871
0.087221
0.0462667
0.00832302
5.83864e-05
1.23313e-05
3.69685e-06
0.075531
0.0648474
0.0122075
0.00807261
0.0442663
0.303832
0.769035
0.769299
0.769094
0.729802
0.579796
0.223797
0.121313
0.0334161
0.0251259
0.0437364
0.0359187
0.00733039
0.00278202
0.00266191
1.41038e-05
1.076e-05
5.27128e-06
0.0656182
0.0715589
0.019773
0.000537432
0.000349408
0.000328719
0.179265
0.496804
0.597605
0.546594
0.445055
0.241147
0.02715
0.00912808
0.00917117
0.00922236
0.0181106
0.0306017
0.0371891
0.0372491
0.105225
0.105925
0.0361041
0.0328686
0.0374289
0.0306912
0.0045503
0.00249541
0.00104452
0.00103565
0.0136271
0.274249
0.407912
0.196124
0.00824802
0.00743188
0.00868658
0.0266356
0.047316
0.0835403
0.153714
0.287823
0.510357
0.829541
0.82387
0.678504
0.374644
0.184717
0.0581445
0.00458755
0.0146974
0.0185135
0.0106772
0.062635
0.175264
0.117323
0.0168511
0.0124754
0.0107333
0.0185088
0.0417057
0.0746383
0.0792829
0.0793298
0.079407
0.429149
0.999995
0.99999
0.999978
0.984057
0.867868
0.654949
0.346311
0.121195
0.039066
0.0399744
0.0544
0.0803918
0.143456
0.222642
0.275618
0.263305
0.219899
0.228665
0.285601
0.414611
0.504782
0.531824
0.675863
0.999995
0.999947
0.999977
0.999998
0.999998
0.99998
0.983244
0.834007
0.55457
0.270701
0.142786
0.10828
0.108021
0.296244
0.650219
0.824286
0.853697
0.884418
0.93072
0.996092
0.999942
0.999928
0.999907
0.999886
0.998698
0.998809
0.999679
1
1
1
0.999975
0.999966
0.970204
0.837648
0.698395
0.643553
0.589511
0.623575
0.913631
0.999859
0.999882
0.999912
0.999949
0.999979
0.99999
0.999997
0.999565
0.998329
0.998329
0.999145
1
1
1
1
1
0.999997
0.999996
0.999994
0.999997
0.999991
0.999977
0.989764
0.991562
0.999848
0.99996
0.99997
0.999986
0.999999
1
0.999582
0.998407
0.998784
0.999746
0.999999
1
1
1
0.999999
0.999999
1
0.999999
0.999998
0.999997
0.999997
0.999979
0.999972
0.999997
0.999999
0.999994
0.999995
1
1
0.999971
0.999905
1
1
1
0.999998
0.999997
0.999997
0.999997
0.999999
1
1
0.999995
0.999992
0.999995
1
1
1
1
1
1
1
1
0.999997
0.999997
1
1
0.999999
0.999996
0.999996
0.999997
1
1
1
1
1
1
1
1
1
1
1
1
1
1
1
0.999999
0.999997
1
1
0.999999
0.999997
0.999999
1
1
1
1
1
1
1
1
1
1
1
1
1
1
1
1
0.999999
0.999998
1
1
1
1
1
1
1
1
1
1
1
1
1
1
1
1
1
1
1
1
1
0.999999
0.999999
0.999998
1
1
1
1
1
1
1
1
1
1
1
1
1
1
1
1
1
1
1
1
0.999999
0.999999
0.999997
1
1
1
1
1
1
1
1
1
1
1
1
1
1
1
1
1
1
1
1
0.999999
0.999998
0.999997
0.999998
1
1
1
1
1
1
1
1
1
1
1
1
1
1
1
1
1
1
1
0.999999
0.999999
0.999997
0.999997
1
1
1
1
1
1
1
1
1
1
1
1
1
1
1
1
1
1
1
0.999998
0.999992
0.999996
0.999997
0.999998
1
1
1
1
1
1
1
1
1
1
1
1
1
1
1
1
1
1
0.999998
0.999989
0.999991
0.999997
0.999999
1
1
1
1
1
1
1
1
1
1
1
1
1
1
1
1
1
1
0.999986
0.999992
0.999992
0.999998
0.999999
1
1
1
1
1
1
1
1
1
1
1
1
1
1
1
1
1
1
0.999971
1
0.999999
1
1
1
1
1
1
1
1
1
1
1
1
1
1
1
1
1
1
1
1
0.999971
1
1
1
1
1
1
1
1
1
1
1
1
1
1
1
1
1
1
1
1
1
1
0.999972
1
1
1
1
1
1
1
1
1
1
1
1
1
1
1
1
1
1
1
1
1
1
0.999972
1
1
1
1
1
1
1
1
1
1
1
1
1
1
1
1
1
1
1
1
1
1
0.999971
1
1
1
1
1
1
1
1
1
1
1
1
1
1
1
1
1
1
1
1
1
1
0.999969
1
1
1
1
1
1
1
1
1
1
1
1
1
1
1
1
1
1
1
1
1
1
0.999969
0.999976
1
1
0.999999
1
1
1
1
1
1
1
1
1
1
1
1
1
1
1
1
1
1
0.99998
0.99994
0.999998
1
0.999997
0.999998
1
1
1
1
1
1
1
1
1
1
1
1
1
1
1
1
1
0.999998
0.99994
0.999944
0.999994
0.999997
0.999999
1
1
1
1
1
1
1
1
1
1
1
1
1
1
1
1
1
1
0.999978
0.999969
0.999991
1
1
1
1
1
1
1
1
1
1
1
1
1
1
1
1
1
1
1
1
1
1
0.999999
1
1
1
1
1
1
1
1
1
1
1
1
1
1
1
1
1
1
1
1
1
1
1
1
1
1
1
1
1
1
1
1
1
1
1
1
1
1
1
1
1
1
1
1
1
1
1
1
1
1
1
1
1
1
1
1
1
1
1
1
1
1
1
1
1
1
1
1
1
1
1
1
1
1
1
1
1
1
1
1
1
1
1
1
1
1
1
1
1
1
1
1
1
1
1
1
1
1
1
1
1
1
1
1
1
1
1
1
1
1
1
3.25622e-09
3.25621e-09
3.25667e-09
8.18674e-09
4.96115e-07
7.75058e-07
7.74449e-07
3.90211e-07
1.69681e-06
2.08735e-08
2.11936e-08
1.53024e-08
1.1834e-05
1.43646e-05
1.56049e-07
1.26183e-07
0.0186318
0.0799334
0.117232
0.117836
0.101914
0.102095
0.0607616
0.0145436
0.00334678
0.000705835
0.000646569
0.000652789
0.00324337
0.0073332
0.0162062
0.0179633
0.0432626
0.0770819
0.138799
0.205345
0.687294
0.819755
0.937606
0.999946
0.941133
0.999779
0.999825
0.999832
0.924162
0.999835
0.999907
0.999976
0.99945
0.999913
0.999993
0.999995
0.999999
0.999996
0.999999
0.999993
1
0.999999
0.999999
0.999999
1
1
1
1
1
1
1
1
1
1
1
1
1
1
1
1
1
1
1
1
1
1
1
1
1
1
1
1
1
1
1
1
1
1
1
1
1
1
1
1
1
1
1
1
1
1
1
1
1
1
1
1
1
1
1
1
1
1
1
1
1
1
1
1
1
1
1
1
1
1
1
1
1
1
1
1
1
1
1
1
1
1
1
1
1
1
1
1
1
1
1
1
1
1
1
1
1
1
1
1
1
1
1
1
1
1
1
1
0.0014367
0.00283591
0.0651755
0.0705981
0.0976437
0.138622
0.164363
0.124514
0.0912046
0.0422634
0.0460731
0.201662
0.252605
0.25245
0.0508915
0.0254537
0.0537277
0.0598117
0.0867529
5.96266e-07
5.97172e-08
0.00281359
0.0755757
0.066528
0.113693
0.163722
0.166276
0.138647
0.123534
0.0702145
0.08978
0.233729
0.189513
0.103819
0.100875
0.180004
0.335908
0.125377
1.91356e-09
1.99999e-09
0.0162932
0.0763122
0.0536633
0.0198468
0.0735253
0.128693
0.184406
0.160324
0.0706763
0.0710824
0.119309
0.104052
0.103754
0.127839
0.575685
0.923658
0.463708
0.0269336
0.0654861
0.0656023
0.0307208
0.0198476
0.0198827
0.0197595
0.103237
0.183288
0.103419
0.0857638
0.0892261
0.10218
0.185217
0.296211
0.546722
0.933592
0.98815
0.957692
0.106409
0.0747582
0.030138
0.0281383
0.019892
0.0709603
0.366182
0.42088
0.302238
0.10622
0.087064
0.142074
0.453787
0.765952
0.927788
0.986779
0.999871
0.9997
0.999502
0.0167228
0.136732
0.221348
0.142657
0.27781
0.559163
0.69457
0.641876
0.512906
0.485154
0.58499
0.822828
0.963782
0.991037
0.999766
0.999871
0.999873
0.999959
0.999989
0.130328
0.154613
0.220685
0.294638
0.477714
0.894807
0.999932
0.912035
0.909927
0.966229
0.976709
0.979142
0.993781
0.999548
0.999781
0.9998
0.999896
0.999971
0.999991
0.0868485
0.190674
0.332342
0.803046
0.999974
0.999975
0.999975
0.999936
0.996393
0.990077
0.99142
0.998575
0.999619
0.99984
0.999964
0.999955
0.999996
0.999997
0.999997
0.394532
0.8244
0.999966
0.999965
0.999958
0.999971
0.999975
0.998845
0.995581
0.996622
0.999404
0.999931
0.999966
1
1
0.999991
0.999959
0.999951
0.999992
0.999974
0.999975
0.999967
0.999959
0.99997
0.99997
0.999798
0.998223
0.997872
0.999523
0.999954
0.999999
1
1
1
0.999985
0.999877
0.999877
0.999877
0.999967
0.999967
0.999951
0.999985
0.999994
0.999932
0.999128
0.99898
0.999928
0.999979
0.999991
1
1
1
1
0.999997
0.999933
0.999877
0.999951
0.999965
0.999949
0.999962
0.999999
0.999994
0.999868
0.999666
0.999899
0.99996
0.999943
0.999843
0.999863
0.999988
1
1
1
0.999995
0.999978
1
0.999956
0.999951
0.999998
0.999999
0.999985
0.999941
0.999942
0.999899
0.999802
0.999772
0.999772
0.999773
0.999776
0.999957
1
1
0.999995
1
1
0.999988
0.999991
1
0.999999
0.999995
0.999964
0.999848
0.999798
0.999798
0.999814
0.999845
0.999862
0.999869
0.999946
1
1
0.999994
0.999999
1
1
1
1
0.999999
0.999999
0.999962
0.999877
0.999867
0.999953
0.99998
0.999997
0.999999
0.999999
0.999993
0.999999
1
0.999996
0.999999
1
1
1
1
1
0.999998
0.99999
0.999994
0.999995
1
0.999998
0.999997
0.999999
1
1
1
1
1
1
1
1
1
1
1
0.999999
1
1
1
1
0.999995
0.999995
0.999999
1
1
1
1
1
1
1
1
1
1
1
1
1
1
1
0.999999
0.999997
0.999997
0.999999
1
1
1
1
1
1
1
1
1
1
1
1
1
1
1
1
1
1
1
1
1
1
1
1
1
0.999996
1
1
1
1
1
1
1
1
1
1
1
1
1
1
1
1
1
1
0.99999
1
1
1
1
1
1
1
1
1
1
1
1
1
1
1
1
1
0.99999
0.99999
1
1
1
1
1
1
1
1
1
1
1
1
1
1
1
1
0.999999
0.999988
0.999996
1
1
1
1
1
1
1
1
1
1
1
1
1
1
1
1
0.999991
0.999988
0.999999
1
1
1
1
1
1
1
1
1
1
1
1
1
1
1
1
0.999993
0.999989
1
1
1
1
1
1
1
1
1
1
1
1
1
1
1
1
1
1
0.999999
1
1
1
1
1
1
1
1
1
1
1
1
1
1
1
1
1
1
1
1
1
1
1
1
1
1
1
1
1
1
1
1
1
1
1
1
1
1
1
1
1
1
1
1
1
1
1
1
1
1
1
1
1
1
1
1
1
1
1
1
1
1
1
1
1
1
1
1
1
1
1
1
1
1
1
1
1
1
1
1
1
1
1
1
1
1
1
1
1
1
1
1
1
1
1
1
1
1
1
1
1
1
1
1
1
1
1
1
1
1
1
1
1
1
1
1
1
1
1
1
1
1
1
1
1
1
1
1
1
1
1
1
1
1
1
1
1
1
1
1
1
1
1
1
1
1
1
1
1
1
1
1
1
1
1
1
1
1
1
1
1
1
1
1
1
1
1
1
1
1
1
1
1
1
1
1
1
1
1
1
1
1
1
1
1
1
1
1
1
1
1
1
1
1
1
1
1
1
1
1
1
1
1
1
1
1
1
1
1
1
1
1
1
1
1
1
1
1
1
1
1
1
1
1
1
1
1
1
1
1
1
1
1
1
1
1
1
1
1
1
1
1
1
1
1
1
1
1
1
1
1
1
1
1
1
1
1
1
1
1
1
1
1
1
1
1
1
1
1
1
1
1
1
1
1
1
1
1
1
1
1
1
1
1
1
1
1
1
1
1
1
1
1
1
1
1
1
1
1
1
1
1
1
1
1
1
1
1
1
1
1
1
1
1
1
1
1
1
1
1
1
1
1
1
)
;

boundaryField
{
    leftWall
    {
        type            alphaContactAngle;
        thetaProperties 
6
(
(galistan air) 90 0 0 0
(oil galistan) 90 0 0 0
(water oil) 90 0 0 0
(water air) 90 0 0 0
(oil air) 90 0 0 0
(water galistan) 90 0 0 0
);
        value           nonuniform List<scalar> 
50
(
3.89083e-12
9.17321e-12
5.52794e-12
1.46779e-09
2.05073e-08
5.66762e-27
0.000139345
0.0169377
0.0179746
4.75007e-05
4.73094e-05
4.73094e-05
4.73174e-05
4.84072e-05
0.000190581
5.83864e-05
1.41038e-05
0.105225
0.829541
0.999995
0.999995
0.999886
0.999565
0.999582
0.999971
0.999997
0.999999
0.999999
0.999999
0.999999
0.999999
0.999999
0.999998
0.999998
0.999986
0.999971
0.999971
0.999972
0.999972
0.999971
0.999969
0.999969
0.99998
0.999998
1
1
1
1
1
1
)
;
    }
    rightWall
    {
        type            alphaContactAngle;
        thetaProperties 
6
(
(galistan air) 90 0 0 0
(oil galistan) 90 0 0 0
(water oil) 90 0 0 0
(water air) 90 0 0 0
(oil air) 90 0 0 0
(water galistan) 90 0 0 0
);
        value           nonuniform List<scalar> 
50
(
0.00527427
0.00758895
0.0158109
0.00749746
2.58637e-06
2.57073e-06
4.49882e-06
4.53766e-06
0.0867529
0.125377
0.463708
0.957692
0.999502
0.999989
0.999991
0.999997
0.999992
0.999877
0.999951
1
1
1
1
1
1
1
0.999996
0.99999
0.99999
0.999996
0.999999
1
1
1
1
1
1
1
1
1
1
1
1
1
1
1
1
1
1
1
)
;
    }
    lowerWall
    {
        type            alphaContactAngle;
        thetaProperties 
6
(
(galistan air) 90 0 0 0
(oil galistan) 90 0 0 0
(water oil) 90 0 0 0
(water air) 90 0 0 0
(oil air) 90 0 0 0
(water galistan) 90 0 0 0
);
        value           nonuniform List<scalar> 
62
(
3.89083e-12
1.71057e-12
1.08778e-12
1.09052e-12
2.41191e-12
3.61988e-12
2.30943e-12
9.41324e-13
3.82066e-13
1.22909e-13
8.14088e-14
7.97497e-14
9.68614e-14
1.38599e-13
1.75868e-13
2.59965e-13
7.64868e-13
2.23604e-12
2.06775e-12
6.2119e-13
4.70995e-13
2.28326e-12
1.36246e-12
1.36246e-12
3.8923e-13
7.96109e-14
9.69696e-14
0.00599687
0.00639988
0.00630131
0.00129812
3.25622e-09
3.25621e-09
3.25667e-09
8.18674e-09
0.012161
0.00606565
0.00304143
0.00501259
0.0144217
0.0139746
0.0178955
0.033252
0.012161
0.00340069
0.000296868
0.000300324
0.00027731
4.86345e-05
1.04039e-06
1.44543e-07
8.78716e-05
0.00132475
0.00357086
0.00510027
0.00742294
0.00677622
0.00635729
0.00594148
0.00584756
0.00584891
0.00527427
)
;
    }
    atmosphere
    {
        type            inletOutlet;
        inletValue      uniform 1;
        value           nonuniform List<scalar> 
46
(
1
1
1
1
1
1
1
1
1
1
1
1
1
1
1
1
1
1
1
1
1
1
1
1
1
1
1
1
1
1
1
1
1
1
1
1
1
1
1
1
1
1
1
1
1
1
)
;
    }
    defaultFaces
    {
        type            empty;
    }
}


// ************************************************************************* //
