/*--------------------------------*- C++ -*----------------------------------*\
| =========                 |                                                 |
| \\      /  F ield         | OpenFOAM: The Open Source CFD Toolbox           |
|  \\    /   O peration     | Version:  2312                                  |
|   \\  /    A nd           | Website:  www.openfoam.com                      |
|    \\/     M anipulation  |                                                 |
\*---------------------------------------------------------------------------*/
FoamFile
{
    version     2.0;
    format      ascii;
    arch        "LSB;label=32;scalar=64";
    class       volScalarField;
    location    "1.4";
    object      alpha.water_0;
}
// * * * * * * * * * * * * * * * * * * * * * * * * * * * * * * * * * * * * * //

dimensions      [0 0 0 0 0 0 0];

internalField   nonuniform List<scalar> 
2268
(
2.44224e-10
8.72658e-11
4.51626e-11
3.39276e-11
2.90974e-11
2.71212e-11
2.62501e-11
2.54094e-11
2.46879e-11
2.34751e-11
2.22786e-11
2.1956e-11
2.21074e-11
2.40943e-11
2.80157e-11
3.99235e-11
6.31944e-11
1.03544e-10
1.7221e-10
2.87119e-10
3.24398e-10
3.86942e-10
5.2062e-10
9.55228e-10
3.54123e-10
1.74573e-10
1.06608e-10
7.03802e-11
5.21783e-11
4.41492e-11
4.10915e-11
4.08172e-11
4.04558e-11
4.00671e-11
4.01771e-11
4.14367e-11
4.50218e-11
5.37175e-11
7.11158e-11
1.25524e-10
2.39151e-10
5.25584e-10
9.76481e-10
3.20088e-09
5.76207e-09
2.66769e-09
1.461e-09
9.91849e-10
5.28106e-10
3.00658e-10
1.6176e-10
1.72812e-10
9.60467e-11
6.57251e-11
5.92577e-11
5.87448e-11
5.46126e-11
5.18228e-11
5.18644e-11
5.74728e-11
6.91126e-11
9.66761e-11
1.57321e-10
2.67495e-10
5.40679e-10
1.38658e-09
2.80796e-09
3.27937e-09
2.32264e-09
1.36882e-09
1.19955e-09
4.68346e-10
1.6193e-10
1.61845e-10
1.6193e-10
1.67964e-10
2.05112e-10
8.85098e-11
2.55485e-10
8.50571e-11
7.04475e-11
5.76964e-11
4.60125e-11
5.00917e-11
7.0217e-11
9.35508e-11
1.22355e-10
1.66553e-10
1.92664e-10
1.05365e-22
7.31956e-23
5.23929e-12
4.37657e-11
4.36909e-11
4.37657e-11
3.26103e-05
0.000865594
0.0001038
1.68328e-10
1.68683e-10
9.85221e-10
3.60302e-09
8.47832e-11
2.12339e-10
7.60229e-11
3.99601e-11
2.36946e-11
2.23673e-11
2.31419e-11
1.51755e-11
1.81155e-20
2.01141e-20
0.0175259
0.126226
0.200538
0.0253484
0.135982
0.283069
0.405467
0.455887
0.419804
0.316433
0.211278
0.112033
0.0377471
0.00264947
5.12921e-08
1.48346e-10
-2.12532e-20
1.44895e-21
-5.91554e-15
6.5734e-14
5.98036e-14
0.00157123
0.18468
0.585082
0.827218
0.892619
0.692689
0.841048
0.944089
0.985921
0.992135
0.992219
0.987475
0.937334
0.849601
0.707841
0.496883
0.273169
0.112724
0.0275433
0.00347637
0.000661639
5.98036e-14
0.069339
0.423602
0.872809
0.999156
0.999983
0.985582
0.773702
0.789999
0.861897
0.908079
0.944359
0.983053
0.99568
0.995734
0.995855
0.996147
0.996688
0.950914
0.809849
0.606873
0.427089
0.379336
0.480487
0.759144
0.979663
0.999786
0.999975
0.999996
0.996202
0.0151405
0.013782
0.120337
0.174461
0.124679
0.0651307
0.042306
0.0294803
0.029472
0.0348332
0.0435931
0.0426907
0.0402882
0.0417295
0.0417285
0.0412414
0.0304383
0.0250389
0.0168489
0.0127245
0.0127681
0.054846
0.249781
0.324478
0.454716
0.45099
0.251943
0.0412537
0.00584712
0.00921818
0.0271783
0.0411462
0.0408765
0.0197846
0.0130238
0.0130153
0.0129725
0.0130153
0.0127338
0.0220311
0.17692
0.192155
0.290676
0.522888
0.612039
0.612513
0.56378
0.104938
0.00790241
0.00790237
0.0107948
0.0116456
0.0151172
0.0581154
0.167253
0.262018
0.232752
0.0127619
0.0627954
0.518899
0.0154177
0.0138138
0.0804445
0.29958
0.354962
0.256346
0.0424536
0.0079201
0.0171976
0.0107929
0.0316996
0.182036
0.488659
0.755608
0.77798
0.508869
0.0970965
0.400005
0.655688
0.0882464
0.0363397
0.015559
0.0980399
0.377673
0.325526
0.044079
0.118599
0.32717
0.345464
0.433188
0.525529
0.701024
0.881478
0.881479
0.39787
0.159103
0.671461
0.671806
0.374106
0.103109
0.0405395
0.0184113
0.194658
0.54076
0.186688
0.357123
0.55455
0.828727
0.879745
0.881373
0.881474
0.881477
0.817818
0.250306
0.151427
0.711682
0.567124
0.579814
0.570455
0.196041
0.0483641
0.237357
0.780826
0.476159
0.552064
0.820224
0.835469
0.823419
0.872429
0.881474
0.881479
0.529839
0.159262
0.151392
0.471222
0.47657
0.62008
0.633395
0.579442
0.0751666
0.197583
0.819397
0.829661
0.853633
0.820324
0.406886
0.277583
0.468969
0.538607
0.498502
0.272432
0.122163
0.0451876
0.0577338
0.0894717
0.132868
0.343597
0.735375
0.955894
0.993362
0.995815
0.995791
0.996706
0.997435
0.998125
0.999235
0.999484
0.994312
0.994764
0.999992
1
1
1
0.999996
0.999999
4.84889e-07
-6.68719e-26
2.02121e-13
6.51846e-09
0.000470487
0.00134811
0.0261368
0.531246
0.957035
0.976047
0.945071
0.949089
0.969972
0.987619
0.999198
0.999371
0.999788
1
1
1
1
1
0.999981
9.79339e-07
4.45987e-20
8.24861e-06
7.32543e-05
0.000330301
0.000388693
4.30962e-05
4.30622e-05
0.115539
0.710973
0.773008
0.507201
0.460077
0.518558
0.717293
0.973606
1
1
0.999968
0.99992
0.999934
0.999965
0.999979
1.51164e-06
5.90634e-24
6.38977e-05
0.000235649
0.000229854
0.000102874
4.30859e-05
4.30775e-05
9.03552e-05
0.20826
0.472452
0.171649
0.0299722
0.0613208
0.334768
0.90806
0.999997
0.999996
0.999944
0.999408
0.99921
0.999585
0.999958
1.72243e-06
3.7826e-06
4.72572e-06
2.57241e-05
3.80523e-07
0.000302664
0.000345703
6.05339e-05
4.43505e-05
0.0815708
0.0870464
0.0300853
3.48211e-20
0.0218643
0.515539
0.967742
0.999996
0.999986
0.999951
0.999951
0.997618
0.998027
0.993375
6.38645e-07
4.63152e-06
1.19429e-05
3.83409e-07
3.80501e-07
0.000458579
0.00144522
0.00036251
4.33209e-05
0.0315219
0.053991
0.0222847
1.92179e-20
0.115798
0.840503
0.996584
0.996493
0.992429
0.98434
0.979618
0.940415
0.879791
0.864132
4.17634e-07
1.65448e-06
1.19177e-05
4.63133e-06
3.71485e-07
0.000159
0.00144406
0.00156773
4.41302e-05
0.0185733
0.0383199
0.0110152
-4.54568e-22
0.22777
0.792498
0.892462
0.823642
0.773882
0.751421
0.76742
0.773636
0.798697
0.814959
4.17244e-07
2.27651e-06
1.1099e-05
5.2539e-07
3.67038e-07
2.09753e-05
0.000551038
0.0022706
0.00254981
0.000576813
0.000673283
0.000161623
1.60172e-20
0.270001
0.611846
0.368147
0.125856
0.074801
0.085153
0.119639
0.15904
0.151938
0.144163
5.17512e-07
3.85027e-06
9.525e-06
9.93563e-07
9.08268e-08
6.77801e-09
6.12105e-08
0.000192473
0.000915708
0.000588596
1.06557e-05
1.19573e-05
0.148274
0.352287
0.281662
0.0108329
5.84837e-06
1.37724e-10
4.36208e-22
-5.48196e-22
-6.11157e-23
-4.32724e-23
-1.46153e-11
1.516e-05
2.86353e-05
3.48046e-05
1.43522e-05
1.37833e-06
6.76531e-09
6.78977e-09
9.89191e-05
0.000154672
0.000109412
1.19936e-05
0.00268573
0.153963
0.156246
0.018362
0.00226264
0.000324034
0.000216898
0.000185492
5.24417e-05
9.57723e-05
0.00012432
0.000126152
2.50481e-05
4.26913e-05
4.26709e-05
4.26913e-05
2.60122e-05
1.36471e-05
1.50646e-06
6.21139e-05
0.000129022
1.20445e-05
0.00249014
0.0251319
0.0273912
0.00782098
0.000786304
5.37337e-05
2.50257e-05
4.486e-05
2.94803e-05
2.29201e-05
2.30958e-05
9.86025e-05
0.000147842
4.42057e-06
1.2385e-05
2.33005e-05
2.68316e-05
3.52971e-05
4.12857e-05
4.56063e-05
1.60471e-05
1.20445e-05
1.21765e-05
0.00115339
0.00162386
0.000557673
7.20179e-07
7.25065e-07
7.20188e-07
7.50827e-06
5.76447e-05
0.00010624
5.43527e-05
4.32341e-05
0.000138601
0.000148192
1.00169e-07
1.0017e-07
1.00169e-07
1.01708e-07
2.52783e-06
2.24067e-05
4.89551e-05
5.10742e-05
5.10971e-05
2.71564e-05
1.98897e-06
1.95447e-06
1.91969e-06
1.88397e-06
1.4982e-05
5.40066e-06
0.000107771
0.000175884
0.000176612
0.000153571
3.6841e-05
6.87859e-05
9.82955e-05
1.0017e-07
1.00169e-07
1.00176e-07
1.42507e-07
4.52381e-08
4.60094e-08
4.45128e-07
2.7858e-05
3.59912e-05
3.90941e-05
2.59482e-05
3.42374e-06
1.95447e-06
1.92018e-06
9.74007e-05
0.000144116
0.000143473
0.000118834
6.36548e-05
2.74834e-05
4.53702e-06
1.11884e-05
2.15477e-06
1.33504e-07
1.01394e-07
1.51105e-07
4.32478e-07
4.0734e-07
1.22384e-07
6.21918e-10
6.50676e-10
6.2193e-10
3.31589e-06
4.49178e-06
5.98309e-06
2.83054e-06
9.88709e-06
2.77124e-05
7.54002e-05
3.29421e-05
1.27043e-13
4.96907e-15
1.21524e-11
3.66633e-06
1.34126e-09
1.50952e-09
2.14719e-06
1.99044e-06
6.10964e-07
5.73537e-07
6.06717e-07
3.42791e-07
3.07277e-08
2.71568e-08
1.53128e-08
1.91775e-12
1.58543e-12
1.33272e-06
1.03572e-06
-1.35529e-13
-1.43871e-12
-1.00351e-24
1.29206e-16
2.89289e-10
1.10145e-09
3.74836e-09
3.45465e-08
2.82461e-09
7.52472e-09
3.68392e-06
3.68918e-06
3.8262e-07
3.54593e-08
3.00929e-07
3.14017e-07
3.80031e-07
3.74406e-07
1.62419e-07
2.73644e-09
9.68146e-11
1.91061e-12
7.42832e-12
1.27071e-09
1.44046e-09
1.40154e-09
1.10482e-09
9.79795e-10
7.24993e-10
6.1234e-10
6.10186e-10
1.76628e-09
3.84313e-09
3.28306e-06
3.35944e-06
1.33256e-07
6.18252e-09
1.78625e-08
4.9032e-07
5.14294e-07
5.02883e-07
8.87871e-08
7.41112e-10
1.55929e-09
2.61491e-09
2.57548e-09
2.43402e-09
1.89418e-09
1.5082e-09
1.21918e-09
1.00021e-09
8.54014e-10
7.64281e-10
7.82896e-10
1.01692e-09
1.27335e-09
9.08499e-07
3.02162e-06
8.43333e-08
6.15352e-09
1.46221e-07
4.84462e-07
4.78791e-07
3.986e-08
2.01732e-09
2.82945e-09
4.52686e-09
4.12773e-09
2.90921e-09
2.05541e-09
1.33072e-09
1.08377e-09
9.27578e-10
7.63083e-10
6.03133e-10
4.59849e-10
4.14485e-10
4.12112e-10
4.14319e-10
8.81127e-07
1.88976e-06
8.09912e-08
8.20099e-09
4.73212e-08
1.15266e-07
5.59163e-08
8.1967e-09
7.12611e-09
7.86108e-09
6.89082e-09
4.76914e-09
3.13736e-09
1.90867e-09
1.19755e-09
7.82309e-10
5.32145e-10
3.68076e-10
2.79248e-10
2.13632e-10
1.67753e-10
1.47758e-10
1.1307e-10
7.75055e-07
1.03063e-06
1.74396e-06
1.34814e-08
7.01808e-09
1.10187e-08
1.44067e-08
1.54825e-08
1.55932e-08
1.03551e-08
7.42329e-09
4.66442e-09
2.59008e-09
1.2129e-09
6.56881e-10
3.93396e-10
2.26936e-10
1.39932e-10
9.15544e-11
6.78353e-11
5.22442e-11
3.43783e-11
2.46307e-11
2.53001e-07
1.26651e-06
3.407e-06
1.34139e-07
8.22028e-09
1.79443e-08
2.62997e-08
2.58918e-08
1.50901e-08
5.66996e-09
3.40097e-09
2.03713e-09
9.29551e-10
4.38316e-10
2.34677e-10
1.3734e-10
7.72748e-11
4.22252e-11
2.42679e-11
1.54915e-11
1.19448e-11
6.4829e-12
3.66793e-12
9.22662e-08
1.44885e-06
3.40968e-06
1.83026e-06
1.21062e-08
1.66661e-08
2.59692e-08
1.78871e-08
1.81288e-09
2.94374e-10
2.93771e-10
3.5291e-10
2.53292e-10
1.55832e-10
8.55114e-11
4.85987e-11
2.63237e-11
1.4003e-11
7.01725e-12
3.86344e-12
2.3138e-12
9.67727e-13
4.35505e-13
7.14402e-08
3.76635e-07
3.16082e-06
3.33999e-06
3.16694e-07
5.01364e-14
5.88123e-10
1.86325e-09
4.54277e-10
3.78475e-10
2.93288e-10
2.00318e-10
1.23363e-10
7.49823e-11
4.39541e-11
2.62439e-11
1.44652e-11
7.60614e-12
3.78482e-12
1.65179e-12
7.79196e-13
2.134e-13
5.10556e-14
7.14147e-08
1.38639e-07
2.37168e-06
3.37153e-06
1.77124e-06
4.56733e-14
4.02323e-13
2.36223e-10
7.61351e-10
6.44367e-10
3.38288e-10
1.97606e-10
1.13459e-10
6.95858e-11
4.12004e-11
2.34876e-11
1.24727e-11
6.06545e-12
2.78443e-12
1.02435e-12
4.13501e-13
9.72494e-14
9.37749e-15
1.95234e-07
3.47702e-07
1.5226e-06
3.3696e-06
1.43769e-06
5.63823e-13
7.46105e-10
2.53945e-09
1.38426e-09
7.65493e-10
3.27094e-10
2.17704e-10
1.2485e-10
7.07942e-11
4.054e-11
2.14361e-11
1.06354e-11
4.83024e-12
1.91476e-12
6.95889e-13
2.12987e-13
5.99605e-14
6.25891e-15
7.26571e-07
8.04799e-08
5.40555e-07
1.00008e-06
1.03408e-06
1.90848e-07
6.90541e-09
5.76597e-09
9.2282e-10
6.24401e-10
3.26225e-10
2.19811e-10
1.25874e-10
6.87517e-11
3.62681e-11
1.81627e-11
8.18789e-12
3.48508e-12
1.32859e-12
3.87025e-13
1.25687e-13
2.85244e-14
5.69173e-15
7.48481e-07
8.05238e-08
9.56803e-08
1.57693e-07
1.69945e-07
4.44426e-08
2.88131e-08
7.61107e-09
6.04857e-10
5.75077e-10
3.70437e-10
2.10241e-10
1.1396e-10
5.91298e-11
2.91657e-11
1.3364e-11
5.6526e-12
2.24545e-12
7.81402e-13
2.43011e-13
6.4599e-14
1.03846e-14
2.44297e-15
7.48348e-07
7.40928e-08
6.09896e-08
6.05861e-08
1.61495e-08
7.11997e-09
6.90286e-09
1.8553e-09
1.27124e-09
6.49394e-10
3.56397e-10
1.84558e-10
9.27311e-11
4.49068e-11
2.07508e-11
8.95176e-12
3.54855e-12
1.28977e-12
4.26249e-13
1.07507e-13
2.53141e-14
5.3045e-15
5.4086e-16
7.17899e-07
6.09846e-08
2.9348e-08
1.24269e-08
5.58903e-09
6.07384e-09
2.85e-09
2.04448e-09
1.31939e-09
5.80781e-10
2.95834e-10
1.48231e-10
6.95189e-11
3.10323e-11
1.32999e-11
5.45902e-12
1.98769e-12
6.78668e-13
1.94104e-13
4.96816e-14
1.11163e-14
1.36626e-15
3.13564e-16
7.58895e-07
7.80831e-08
2.88954e-08
2.85261e-09
2.84733e-09
2.84366e-09
2.43056e-09
2.06076e-09
1.05607e-09
4.93091e-10
2.38133e-10
1.10174e-10
4.86338e-11
1.99991e-11
8.01534e-12
2.99563e-12
9.68027e-13
3.03944e-13
8.43973e-14
1.87424e-14
3.65901e-15
6.30805e-16
5.83328e-17
7.80394e-07
9.53619e-08
5.52326e-08
1.55105e-08
1.01249e-08
2.21348e-09
1.86424e-09
1.35504e-09
8.26534e-10
4.06828e-10
1.87771e-10
8.07586e-11
3.30788e-11
1.26246e-11
4.4175e-12
1.49035e-12
4.66252e-13
1.29959e-13
3.12867e-14
6.6812e-15
1.21736e-15
1.06182e-16
2.25079e-17
9.89232e-07
5.92461e-08
5.21128e-08
4.88507e-08
3.30043e-08
7.60443e-09
1.90587e-09
1.14743e-09
6.9481e-10
3.53507e-10
1.49611e-10
5.74241e-11
2.08658e-11
7.21755e-12
2.28046e-12
6.90512e-13
1.92811e-13
4.6441e-14
1.02352e-14
1.77022e-15
2.32172e-16
4.00146e-17
2.93408e-18
1.18288e-06
9.57644e-07
3.58624e-08
2.15816e-08
2.01957e-08
5.19899e-09
1.54575e-09
1.04563e-09
6.2868e-10
3.11165e-10
1.24362e-10
4.06345e-11
1.2732e-11
3.84937e-12
1.06871e-12
2.76833e-13
6.80887e-14
1.3915e-14
2.65009e-15
4.78387e-16
7.03868e-17
5.97291e-18
8.53575e-19
9.48784e-07
1.48177e-06
2.80661e-07
9.89486e-09
9.88336e-09
3.52879e-09
1.38396e-09
1.04896e-09
6.05966e-10
2.71791e-10
9.7408e-11
2.88449e-11
7.13594e-12
1.81657e-12
4.3939e-13
1.05394e-13
2.21223e-14
4.14975e-15
7.40451e-16
9.59431e-17
1.17723e-17
1.50621e-18
1.01334e-19
3.57388e-07
1.48179e-06
1.48194e-06
1.71905e-07
2.08302e-09
1.92294e-09
1.92314e-09
1.23629e-09
5.75071e-10
2.1793e-10
6.91899e-11
1.7878e-11
4.04128e-12
8.46412e-13
1.86547e-13
3.81528e-14
7.32949e-15
1.19133e-15
1.76957e-16
2.44774e-17
2.66326e-18
2.42752e-19
2.0642e-20
9.55413e-08
4.57198e-07
6.14065e-07
1.6596e-07
6.68445e-09
4.00823e-09
2.2516e-09
1.14518e-09
4.50787e-10
1.56661e-10
4.51314e-11
1.13414e-11
2.50412e-12
4.7354e-13
8.07381e-14
1.34531e-14
2.28347e-15
3.27781e-16
4.50151e-17
4.56696e-18
4.36674e-19
3.62462e-20
2.39951e-21
5.86032e-08
1.26444e-08
1.26399e-08
2.2202e-08
1.27215e-08
4.50536e-09
1.61033e-09
7.39488e-10
2.80314e-10
9.10765e-11
2.51326e-11
5.96104e-12
1.24399e-12
2.23007e-13
3.56609e-14
4.92605e-15
6.91148e-16
8.57153e-17
9.65399e-18
9.33653e-19
7.34735e-20
4.71465e-21
2.83857e-22
1.61677e-08
1.54551e-08
1.26353e-08
1.08327e-08
5.64814e-09
2.11412e-09
9.74865e-10
4.00118e-10
1.47743e-10
4.41257e-11
1.14794e-11
2.56189e-12
5.13452e-13
9.26286e-14
1.4854e-14
2.11969e-15
2.39453e-16
2.45095e-17
2.41902e-18
1.95227e-19
1.2543e-20
6.48493e-22
3.02177e-23
6.10679e-09
1.08821e-08
9.8878e-09
5.85342e-09
2.23773e-09
9.12536e-10
3.6502e-10
1.34079e-10
4.40977e-11
1.25989e-11
3.24716e-12
7.87762e-13
1.68337e-13
3.19516e-14
5.26921e-15
7.70781e-16
9.50729e-17
9.43488e-18
6.96351e-19
4.57007e-20
2.43898e-21
1.0547e-22
4.22574e-24
1.65047e-09
2.55107e-09
2.45883e-09
1.37118e-09
6.40488e-10
2.75292e-10
1.07379e-10
3.64985e-11
1.12579e-11
3.1272e-12
7.89908e-13
1.91233e-13
4.28003e-14
8.73743e-15
1.51791e-15
2.51062e-16
3.44263e-17
3.89263e-18
3.52303e-19
2.31195e-20
9.07224e-22
2.41696e-23
6.4013e-25
4.51172e-10
6.89981e-10
5.94262e-10
3.15863e-10
1.33907e-10
5.14501e-11
1.67271e-11
5.20779e-12
1.45995e-12
3.83657e-13
9.4412e-14
2.14856e-14
4.76667e-15
1.02785e-15
2.03645e-16
3.56497e-17
5.42078e-18
7.40411e-19
8.38361e-20
7.54694e-21
5.00599e-22
2.13969e-23
4.35605e-25
0.999999
0.999999
0.999999
0.999999
0.999937
0.999936
0.999936
0.99995
0.999979
0.999967
0.999979
0.999994
0.999996
0.999996
0.999996
0.999996
0.970314
0.899383
0.874345
0.721333
0.868929
0.883582
0.883649
0.883646
0.819371
0.830641
0.859778
0.874754
0.143127
0.168341
0.241048
0.194291
-2.73661e-12
5.99612e-24
-1.20935e-23
-7.06318e-24
0.00011229
0.000110911
8.3481e-05
1.24687e-05
0.00010847
3.41413e-05
6.28996e-06
1.71625e-08
0.000148037
0.000148418
5.06779e-05
1.6626e-08
7.50909e-05
3.63092e-05
3.2308e-06
3.48972e-08
3.24357e-07
4.99917e-08
1.27375e-07
5.89622e-08
1.10192e-08
4.93471e-08
6.17423e-08
5.5766e-08
1.36069e-08
3.18325e-08
3.37558e-08
2.03468e-08
5.2087e-09
6.49019e-09
6.83704e-09
5.83982e-09
1.2837e-09
1.28329e-09
2.07529e-09
2.28018e-09
3.57617e-10
5.50104e-10
7.06369e-10
8.51696e-10
1.04279e-10
1.2974e-10
1.96233e-10
2.18511e-10
1.93109e-11
2.58902e-11
3.56225e-11
4.41787e-11
3.24885e-12
3.21215e-12
5.46078e-12
7.00228e-12
3.77775e-13
4.14697e-13
6.19505e-13
8.61432e-13
4.2317e-14
4.72085e-14
7.72649e-14
8.556e-14
4.57374e-15
6.04063e-15
8.83709e-15
1.33737e-14
7.93801e-16
7.76103e-16
1.23925e-15
1.47055e-15
4.86525e-16
1.68088e-16
1.30105e-16
1.62706e-16
2.11004e-16
7.409e-17
2.71984e-17
2.35378e-17
1.00302e-16
2.14319e-17
6.20579e-18
4.45092e-18
2.85182e-17
4.91203e-18
1.82232e-18
1.15815e-18
8.47033e-18
1.68994e-18
3.46334e-19
1.96886e-19
1.94228e-18
3.232e-19
7.37258e-20
2.4375e-20
4.31153e-19
6.93716e-20
9.58445e-21
2.93845e-21
7.21308e-20
1.15717e-20
1.85502e-21
2.94834e-22
1.12529e-20
1.68744e-21
1.71352e-22
3.03511e-23
1.70154e-21
2.40279e-22
2.27167e-23
2.80917e-24
2.17856e-22
2.97114e-23
2.59827e-24
2.95708e-25
2.50114e-23
3.05445e-24
2.59366e-25
2.72268e-26
2.85397e-24
2.98255e-25
2.32471e-26
2.31773e-27
3.21453e-25
2.79199e-26
2.02306e-27
1.87912e-28
3.63741e-26
2.66736e-27
1.70612e-28
1.56212e-29
5.96733e-27
2.63988e-28
1.4072e-29
1.35337e-30
0.910348
0.642538
0.501774
0.548749
0.63372
0.633805
0.306981
0.197563
0.273581
0.819147
0.853667
0.686166
0.252897
0.0315413
0.0622274
0.0821294
0.0630835
0.0481113
0.023716
0.999962
0.99996
0.957842
0.67156
0.573832
0.633769
0.62353
0.362534
0.257942
0.355603
0.51566
0.367813
0.143499
0.0105381
0.000786695
-4.77203e-23
7.31735e-21
8.8159e-21
9.45873e-21
0.999923
0.999899
0.979929
0.793546
0.575015
0.60966
0.643771
0.61833
0.507098
0.0620643
0.0323759
0.0298588
0.0181968
0.00748238
0.000462163
-5.41556e-11
3.04048e-07
2.90975e-07
2.10778e-08
0.921217
0.888683
0.918129
0.806596
0.602295
0.486554
0.593612
0.626699
0.509629
0.0501
0.0103422
0.00669104
0.0110649
0.00543231
1.58061e-05
3.69803e-23
2.79383e-07
7.38204e-07
1.25152e-07
0.674782
0.738573
0.895285
0.895785
0.831188
0.430102
0.12873
0.137505
0.145778
0.0350297
0.00536233
0.00655433
0.0110783
0.00860643
0.000589679
-1.58084e-10
1.46041e-07
7.41009e-07
2.05568e-07
0.820692
0.7097
0.605499
0.452746
0.200054
0.00578595
2.49912e-10
2.74437e-10
1.35597e-05
0.00266068
0.00446379
0.00890508
0.00893716
0.00227459
9.77812e-05
1.04438e-05
1.59771e-07
7.41773e-07
1.62361e-07
0.683741
0.198701
0.0596031
2.26456e-10
2.32271e-10
2.26457e-10
2.33415e-10
2.51381e-10
1.00666e-08
0.0005176
0.00590009
0.00662947
0.00303782
1.62223e-05
9.02521e-06
2.20724e-06
1.58864e-08
3.04552e-07
5.59048e-08
0.1044
0.00261821
2.26454e-10
2.32259e-10
5.02557e-07
1.91299e-07
2.87665e-06
2.67099e-06
0.00172154
0.00334087
0.00292218
0.000319207
2.16146e-11
2.15078e-11
2.16071e-11
1.064e-07
3.20082e-11
3.40609e-10
1.10585e-09
-2.22218e-24
-4.75574e-09
4.04184e-10
7.89302e-10
6.84952e-07
2.86986e-06
9.38031e-06
0.00097051
0.00317506
0.0027186
2.60342e-08
2.5384e-08
2.47511e-08
2.16142e-11
2.84701e-11
2.89768e-11
3.17809e-11
1.20942e-11
1.10116e-11
3.80438e-06
1.04338e-06
3.53066e-08
8.74344e-10
1.27275e-06
1.34403e-05
0.000189255
0.00148302
0.00149571
7.32896e-05
2.67024e-08
3.05667e-08
3.10154e-08
3.63972e-11
1.69817e-10
1.74768e-10
9.5066e-11
3.59952e-11
1.08333e-11
1.70744e-08
1.71622e-08
2.39473e-08
8.58438e-10
2.09035e-06
5.93785e-05
0.000820319
0.000921457
1.90635e-07
1.90673e-07
3.51008e-07
4.47205e-08
1.19318e-08
9.59291e-11
3.96879e-10
3.90227e-10
2.32208e-10
8.66288e-11
1.13233e-11
1.82218e-08
2.82416e-08
3.93881e-08
1.46849e-07
5.72015e-06
0.000123965
0.000312281
9.54522e-05
1.90715e-07
3.976e-07
3.59038e-07
2.64242e-09
3.12744e-09
5.31584e-10
7.35546e-10
6.02272e-10
3.61771e-10
1.24499e-10
1.08284e-11
5.00728e-08
5.08521e-08
4.3043e-08
4.9381e-07
1.35892e-05
5.18313e-05
4.66082e-05
1.94447e-05
1.90711e-07
4.23145e-07
1.25005e-07
2.63987e-09
3.05128e-09
2.12016e-09
1.16977e-09
7.15564e-10
4.01805e-10
1.33807e-10
8.81309e-12
5.80027e-08
3.32954e-08
2.6128e-08
4.44404e-07
3.64891e-06
3.62366e-06
5.97248e-09
2.23991e-08
2.22028e-07
3.81375e-07
2.88273e-09
4.48244e-09
3.55602e-09
2.27602e-09
1.20562e-09
7.00008e-10
3.75074e-10
1.08136e-10
6.77851e-12
3.30404e-08
1.31932e-08
2.66418e-08
8.81321e-08
2.91811e-10
2.91809e-10
5.24402e-10
4.12441e-09
3.05375e-08
2.05915e-08
7.83411e-10
2.70835e-09
1.96055e-09
1.20467e-09
8.42611e-10
5.38475e-10
2.88333e-10
6.8683e-11
6.11224e-12
1.02921e-08
6.97915e-09
3.74246e-09
2.91811e-10
2.91809e-10
2.91811e-10
8.71792e-10
4.29325e-09
7.21996e-10
7.04018e-10
7.83341e-10
1.12429e-09
8.79318e-10
5.90341e-10
4.21931e-10
2.95727e-10
1.49349e-10
4.7352e-11
4.25498e-12
3.73684e-09
3.67372e-09
1.13569e-09
3.04464e-10
2.91985e-10
3.64032e-10
7.73875e-10
2.75365e-09
7.19302e-10
7.02442e-10
8.19953e-10
7.86091e-10
5.82304e-10
3.80692e-10
2.38476e-10
1.64565e-10
9.36156e-11
2.83658e-11
2.91815e-12
2.10985e-09
1.30746e-09
5.02933e-10
2.61603e-10
2.59955e-10
3.09789e-10
5.54087e-10
1.41827e-09
6.586e-10
6.42454e-10
6.59765e-10
4.77473e-10
3.32638e-10
2.18486e-10
1.38941e-10
9.75043e-11
5.64318e-11
1.43121e-11
1.94944e-12
6.75292e-10
3.05873e-10
8.13211e-11
9.49936e-11
1.22911e-10
1.67572e-10
2.84334e-10
4.56775e-10
3.61059e-10
3.59781e-10
3.04909e-10
1.99626e-10
1.37693e-10
1.05736e-10
7.41808e-11
5.34996e-11
3.19108e-11
5.09641e-12
1.66987e-12
1.6271e-10
6.22264e-11
1.54622e-11
2.33217e-11
3.25725e-11
6.46109e-11
1.25766e-10
1.67993e-10
1.40022e-10
1.39111e-10
1.14336e-10
8.02697e-11
6.36633e-11
4.93424e-11
3.68704e-11
2.92211e-11
1.64675e-11
3.06097e-12
1.50327e-12
3.17459e-11
9.954e-12
3.1993e-12
5.65322e-12
1.05275e-11
2.45433e-11
5.16141e-11
6.93831e-11
6.24297e-11
6.09641e-11
4.7981e-11
3.52396e-11
2.9308e-11
2.32344e-11
1.81159e-11
1.31914e-11
4.43323e-12
1.72403e-12
1.41155e-12
5.06215e-12
1.74627e-12
1.15781e-12
2.23939e-12
3.97374e-12
9.45967e-12
1.85918e-11
2.56822e-11
2.46088e-11
2.43538e-11
1.99636e-11
1.51921e-11
1.2416e-11
9.89705e-12
8.47102e-12
5.8186e-12
1.49006e-12
1.4344e-12
1.29423e-12
6.80496e-13
3.98283e-13
4.58048e-13
8.55982e-13
1.42654e-12
3.03897e-12
5.93908e-12
8.06223e-12
8.73053e-12
8.4032e-12
7.15663e-12
5.91021e-12
4.68131e-12
3.46947e-12
1.63297e-12
2.09915e-12
5.20305e-13
1.28385e-12
1.15779e-12
1.07694e-13
1.03206e-13
1.68503e-13
3.14142e-13
5.31616e-13
1.02441e-12
1.89289e-12
2.51778e-12
2.66637e-12
2.76662e-12
2.39051e-12
1.86388e-12
1.18442e-12
3.84264e-13
6.00618e-14
5.51343e-13
3.23257e-13
1.16002e-12
1.01109e-12
1.45075e-14
2.57472e-14
5.28266e-14
1.03361e-13
1.76291e-13
3.14483e-13
5.39584e-13
7.44945e-13
8.04249e-13
8.49465e-13
5.19903e-13
1.39187e-13
4.27895e-14
4.94045e-15
1.01497e-14
8.96254e-14
3.15902e-13
1.02584e-12
8.98791e-13
2.4526e-15
6.1268e-15
1.51457e-14
2.99544e-14
5.19775e-14
8.87633e-14
1.43606e-13
1.94054e-13
2.23109e-13
6.79116e-14
1.1261e-14
8.29711e-16
5.79249e-16
2.04336e-15
1.10276e-14
7.2035e-14
3.37037e-13
9.67727e-13
8.07293e-13
3.68044e-16
1.44225e-15
3.80384e-15
7.69354e-15
1.35505e-14
2.24139e-14
3.40845e-14
4.51217e-14
1.04224e-14
4.62542e-16
3.45545e-17
9.93392e-17
5.43526e-16
2.93751e-15
1.39015e-14
8.0229e-14
3.71726e-13
9.07607e-13
6.64287e-13
6.84932e-17
3.08359e-16
8.28529e-16
1.72992e-15
3.06829e-15
4.91602e-15
7.00719e-15
1.70477e-15
5.18997e-17
5.74003e-18
2.54706e-17
1.45202e-16
8.51427e-16
4.842e-15
2.06947e-14
1.00706e-13
4.0388e-13
7.88765e-13
4.67168e-13
1.48939e-17
5.57537e-17
1.54317e-16
3.29746e-16
5.7566e-16
8.15268e-16
3.50422e-16
7.23324e-18
1.09748e-18
5.77559e-18
3.96141e-17
2.50148e-16
1.47732e-15
7.82751e-15
3.58373e-14
1.56736e-13
4.49504e-13
6.63923e-13
3.56217e-13
2.28605e-18
8.46333e-18
2.39729e-17
5.21894e-17
8.92458e-17
1.10598e-16
1.76997e-18
1.73387e-19
1.1052e-18
8.51569e-18
6.34129e-17
4.05233e-16
2.41022e-15
1.30803e-14
5.11216e-14
1.90779e-13
4.52071e-13
5.92801e-13
2.41137e-13
2.77448e-19
1.053e-18
3.0659e-18
6.82638e-18
1.15719e-17
1.331e-17
3.41596e-19
1.45367e-19
1.08784e-18
8.97516e-18
6.9051e-17
4.50373e-16
2.6464e-15
1.32495e-14
4.88423e-14
1.7297e-13
3.9663e-13
4.40638e-13
1.50203e-13
2.98111e-20
1.05788e-19
3.23982e-19
7.45344e-19
1.27027e-18
1.41794e-18
8.53693e-20
8.63601e-20
6.68413e-19
5.32588e-18
4.0571e-17
2.73576e-16
1.76132e-15
9.52181e-15
3.36068e-14
1.09533e-13
2.47197e-13
2.58898e-13
9.66806e-14
2.46044e-21
8.89258e-21
2.83919e-20
6.63865e-20
1.18313e-19
1.31488e-19
1.7909e-20
3.74055e-20
2.82977e-19
2.07496e-18
1.42265e-17
9.69477e-17
7.34914e-16
4.68973e-15
1.74854e-14
4.64161e-14
9.9838e-14
1.21383e-13
5.08211e-14
1.96564e-22
5.6164e-22
1.79939e-21
4.50947e-21
8.80449e-21
1.00746e-20
3.10369e-21
1.16431e-20
9.06266e-20
6.67365e-19
4.26959e-18
2.57648e-17
1.49953e-16
1.80206e-15
6.61663e-15
1.87553e-14
3.62914e-14
5.35193e-14
2.84436e-14
9.87038e-24
2.58004e-23
9.35431e-23
2.60213e-22
4.94137e-22
6.13986e-22
4.77361e-22
2.7112e-21
2.23043e-20
1.61274e-19
1.00352e-18
5.33525e-18
2.59463e-17
3.98451e-16
1.99655e-15
5.08318e-15
1.15526e-14
2.15248e-14
1.13354e-14
7.79367e-25
1.16504e-24
4.35319e-24
1.16686e-23
2.19767e-23
3.37668e-23
6.57173e-23
4.34147e-22
3.57112e-21
2.68454e-20
1.64061e-19
9.45016e-19
4.38048e-18
8.00424e-17
4.7511e-16
1.33944e-15
3.3601e-15
5.43169e-15
4.73732e-15
5.52455e-26
6.89651e-26
2.67999e-25
8.06971e-25
1.75225e-24
3.71092e-24
1.15023e-23
6.459e-23
4.80298e-22
3.62537e-21
2.60928e-20
1.58699e-19
7.53771e-19
1.52746e-17
1.04237e-16
2.78983e-16
5.99062e-16
1.35811e-15
1.39754e-15
4.37103e-27
4.77068e-27
2.10074e-26
7.98689e-26
2.61356e-25
8.53516e-25
2.92183e-24
1.22236e-23
6.37855e-23
4.26888e-22
3.37914e-21
2.23406e-20
1.15559e-19
2.50562e-18
1.80291e-17
5.11318e-17
1.14531e-16
1.93991e-16
4.2879e-16
3.7183e-28
7.23238e-28
4.08268e-27
1.96628e-26
8.22771e-26
3.10203e-25
1.01301e-24
3.20157e-24
1.09537e-23
5.21836e-23
3.74698e-22
2.66617e-21
1.53541e-20
3.74008e-19
2.88117e-18
8.45461e-18
1.2288e-17
3.38161e-17
9.17737e-17
4.69412e-29
2.24886e-28
1.38862e-27
6.86517e-27
2.83013e-26
9.80244e-26
3.10915e-25
8.42545e-25
2.16033e-24
6.73886e-24
3.32187e-23
2.24297e-22
1.44336e-21
4.20208e-20
3.49625e-19
1.12114e-18
1.58439e-18
3.63591e-18
2.0648e-17
1.06315e-29
7.86825e-29
4.86485e-28
2.31727e-27
8.95377e-27
2.9299e-26
8.33522e-26
2.16546e-25
5.10885e-25
1.15555e-24
3.59188e-24
1.80575e-23
1.13462e-22
3.95931e-21
3.72194e-20
1.25066e-19
1.25434e-19
6.59305e-19
4.99082e-18
3.12238e-30
2.49739e-29
1.44207e-28
6.26672e-28
2.23264e-27
6.89942e-27
1.92754e-26
4.66034e-26
1.07875e-25
2.37864e-25
5.48852e-25
1.87006e-24
1.06298e-23
4.24771e-22
4.44897e-21
1.5666e-20
1.78639e-20
1.35172e-19
7.58862e-19
)
;

boundaryField
{
    leftWall
    {
        type            zeroGradient;
    }
    rightWall
    {
        type            zeroGradient;
    }
    lowerWall
    {
        type            zeroGradient;
    }
    atmosphere
    {
        type            inletOutlet;
        inletValue      uniform 0;
        value           nonuniform List<scalar> 
46
(
0
0
0
0
0
0
0
0
0
0
0
0
0
0
0
0
0
0
0
0
0
0
4.35605e-25
5.96733e-27
2.63988e-28
1.4072e-29
1.35337e-30
3.12238e-30
2.49739e-29
1.44207e-28
6.26672e-28
2.23264e-27
6.89942e-27
1.92754e-26
4.66034e-26
1.07875e-25
2.37864e-25
5.48852e-25
1.87006e-24
1.06298e-23
4.24771e-22
4.44897e-21
1.5666e-20
1.78639e-20
1.35172e-19
7.58862e-19
)
;
    }
    defaultFaces
    {
        type            empty;
    }
}


// ************************************************************************* //
