/*--------------------------------*- C++ -*----------------------------------*\
| =========                 |                                                 |
| \\      /  F ield         | OpenFOAM: The Open Source CFD Toolbox           |
|  \\    /   O peration     | Version:  2312                                  |
|   \\  /    A nd           | Website:  www.openfoam.com                      |
|    \\/     M anipulation  |                                                 |
\*---------------------------------------------------------------------------*/
FoamFile
{
    version     2.0;
    format      ascii;
    arch        "LSB;label=32;scalar=64";
    class       volScalarField;
    location    "1.4";
    object      alpha.water;
}
// * * * * * * * * * * * * * * * * * * * * * * * * * * * * * * * * * * * * * //

dimensions      [0 0 0 0 0 0 0];

internalField   nonuniform List<scalar> 
2268
(
2.45392e-10
8.77755e-11
4.52736e-11
3.39488e-11
2.91274e-11
2.71572e-11
2.62876e-11
2.54508e-11
2.47392e-11
2.35372e-11
2.23382e-11
2.20122e-11
2.21368e-11
2.40492e-11
2.79892e-11
3.96417e-11
6.2615e-11
1.02003e-10
1.70417e-10
2.85176e-10
3.24038e-10
3.86587e-10
5.19943e-10
9.58972e-10
3.55116e-10
1.74752e-10
1.06658e-10
7.04983e-11
5.25464e-11
4.43607e-11
4.11237e-11
4.08565e-11
4.04628e-11
4.0156e-11
4.02418e-11
4.14853e-11
4.50156e-11
5.35583e-11
7.0706e-11
1.24116e-10
2.36025e-10
5.17708e-10
9.55108e-10
3.16555e-09
5.71449e-09
2.67188e-09
1.4605e-09
9.91016e-10
5.27521e-10
3.00251e-10
1.61442e-10
1.72049e-10
9.65912e-11
6.69824e-11
5.92941e-11
5.86996e-11
5.49247e-11
5.20222e-11
5.19116e-11
5.73063e-11
6.87985e-11
9.5971e-11
1.55749e-10
2.64743e-10
5.34228e-10
1.36973e-09
2.77929e-09
3.29451e-09
2.31684e-09
1.36109e-09
1.1968e-09
4.66383e-10
1.61601e-10
1.61522e-10
1.61601e-10
1.6654e-10
2.02807e-10
8.53078e-11
2.62993e-10
8.61774e-11
6.91134e-11
5.79505e-11
4.60774e-11
4.98836e-11
6.96427e-11
9.32431e-11
1.23206e-10
1.69255e-10
2.06839e-10
1.05367e-22
7.31977e-23
3.2899e-11
4.37657e-11
4.36909e-11
4.37657e-11
3.65223e-05
0.00101616
0.000221181
1.66895e-10
1.67248e-10
1.90719e-09
3.90643e-09
8.58895e-11
3.76133e-10
7.86857e-11
3.96057e-11
2.34518e-11
2.23416e-11
2.33255e-11
1.58475e-11
1.23581e-12
6.17086e-13
0.0115061
0.114778
0.187986
0.0251195
0.134838
0.280779
0.405904
0.460872
0.429321
0.32629
0.221303
0.120563
0.0431816
0.00408342
5.14039e-08
1.61132e-10
1.11127e-20
1.24203e-21
-7.16394e-15
8.64539e-14
1.86947e-20
1.90996e-23
0.162529
0.557591
0.812639
0.883324
0.692159
0.838612
0.942537
0.985968
0.992042
0.992118
0.990786
0.943509
0.859801
0.723839
0.519228
0.291107
0.124682
0.032756
0.00458998
0.000867625
8.12999e-14
0.0586051
0.389174
0.851007
0.998086
0.999976
0.985483
0.764116
0.782416
0.859426
0.907998
0.943088
0.981672
0.995739
0.995812
0.995923
0.996199
0.99672
0.959437
0.826664
0.628767
0.4449
0.383575
0.471
0.738928
0.972782
0.999762
0.999969
0.999996
0.995874
0.0151198
0.0141239
0.123099
0.174837
0.123182
0.0645093
0.0422186
0.0294802
0.0294721
0.0349154
0.0435819
0.0426744
0.0403167
0.0417284
0.0417275
0.0411769
0.0303168
0.0249987
0.0168483
0.0127365
0.0127795
0.0562153
0.2502
0.322531
0.45478
0.451418
0.253518
0.0412034
0.00588723
0.00934826
0.0276663
0.0411313
0.0407612
0.0193189
0.012996
0.0129843
0.0129414
0.0129843
0.0127461
0.0223993
0.178969
0.186493
0.283116
0.519395
0.610682
0.611216
0.568068
0.110551
0.00790369
0.00790368
0.010799
0.0114731
0.0152323
0.0608651
0.172033
0.26787
0.236684
0.0127689
0.0603363
0.521253
0.0164271
0.0143001
0.0769884
0.297989
0.35496
0.264367
0.0445181
0.00792431
0.0132814
0.0107981
0.0332789
0.187123
0.493458
0.759074
0.780653
0.509977
0.0971188
0.394269
0.656174
0.0907901
0.0381556
0.0162391
0.0955431
0.370987
0.325175
0.0451554
0.105107
0.319862
0.341314
0.438247
0.533361
0.705682
0.881485
0.881486
0.402515
0.160827
0.670066
0.670418
0.390569
0.11604
0.0447074
0.0194511
0.17967
0.534523
0.184271
0.347319
0.53623
0.825005
0.880193
0.881463
0.88148
0.881483
0.821239
0.256743
0.151487
0.710778
0.570508
0.585967
0.587551
0.213261
0.0547395
0.222041
0.769505
0.470254
0.531514
0.814482
0.834985
0.821725
0.870584
0.88148
0.881487
0.536319
0.161477
0.15148
0.465431
0.473067
0.623529
0.633187
0.596074
0.0873308
0.185178
0.809927
0.825968
0.853077
0.828546
0.42083
0.273531
0.456508
0.52956
0.495711
0.276672
0.121148
0.0409738
0.0536201
0.0863009
0.128405
0.327741
0.720366
0.952043
0.992995
0.995867
0.995825
0.996769
0.997609
0.998264
0.999198
0.999474
0.995528
0.994693
0.999947
1
1
1
0.999997
0.999999
5.16885e-07
1.83004e-24
2.62797e-14
6.19946e-09
0.000309878
0.0018336
0.017201
0.495559
0.949443
0.977089
0.945502
0.947893
0.968057
0.98597
0.998875
0.999306
0.999776
1
1
1
1
1
0.999987
1.01139e-06
4.45907e-20
7.69979e-06
6.55307e-05
0.000329355
0.000386738
4.30813e-05
4.30462e-05
0.0969045
0.690713
0.78146
0.518381
0.456602
0.508883
0.70191
0.969441
1
1
0.999972
0.999919
0.999933
0.999963
0.999979
1.54391e-06
-2.03118e-24
6.22646e-05
0.000229884
0.000223018
0.000101992
4.30681e-05
4.30639e-05
8.58888e-05
0.185588
0.484963
0.1904
0.0323851
0.0571712
0.322082
0.899892
0.999998
0.999997
0.999963
0.999449
0.999201
0.999558
0.999949
1.65756e-06
3.8419e-06
4.95791e-06
2.51021e-05
3.80061e-07
0.00030499
0.000385425
6.95443e-05
4.42891e-05
0.0785342
0.0932671
0.0324174
1.03319e-20
0.0180993
0.508798
0.966117
0.999996
0.999988
0.999953
0.999952
0.997616
0.997618
0.994162
5.80384e-07
4.57923e-06
1.184e-05
3.82639e-07
3.79852e-07
0.000435195
0.00143785
0.000403949
4.332e-05
0.0294721
0.0519441
0.0233571
1.93219e-20
0.102429
0.823351
0.996087
0.996006
0.992087
0.983536
0.979154
0.942928
0.880943
0.863753
4.17634e-07
1.68528e-06
1.18144e-05
4.45295e-06
3.5425e-07
0.000140998
0.00143485
0.00162124
4.4129e-05
0.0184029
0.0411796
0.0125848
-1.68471e-20
0.204419
0.776872
0.887436
0.810997
0.75766
0.738452
0.757453
0.76638
0.792469
0.811028
4.17244e-07
2.45218e-06
1.10147e-05
5.21047e-07
3.50141e-07
1.79844e-05
0.00049287
0.00221309
0.00252863
0.000715512
0.00116609
0.000284054
1.57632e-20
0.243204
0.603799
0.365218
0.116208
0.0645416
0.0753326
0.109308
0.149724
0.145591
0.13895
6.88317e-07
4.02974e-06
9.46981e-06
9.3981e-07
6.47179e-08
6.77873e-09
4.25926e-08
0.000181797
0.000911061
0.000588056
1.06557e-05
1.12355e-05
0.13857
0.337686
0.283804
0.0144588
3.01276e-05
5.22945e-10
1.82208e-22
2.33031e-23
6.58842e-23
-4.32724e-23
1.18721e-23
1.63383e-05
3.05811e-05
3.64137e-05
1.60091e-05
1.91446e-06
6.76595e-09
6.7787e-09
9.6136e-05
0.000145711
0.000108593
1.11863e-05
1.06557e-05
0.14767
0.159053
0.0229806
0.00214219
0.000400177
0.000211052
0.000178273
5.00204e-05
8.6216e-05
0.000123574
0.000129466
2.39203e-05
4.26775e-05
4.26709e-05
4.26901e-05
2.72958e-05
1.51677e-05
2.59168e-06
5.80591e-05
0.000121819
1.20445e-05
0.00197536
0.0244787
0.0279902
0.00881807
0.000822764
5.02225e-05
2.37022e-05
4.18937e-05
3.08569e-05
2.29209e-05
2.30957e-05
9.07194e-05
0.000148239
4.15492e-06
1.03909e-05
2.14237e-05
2.47189e-05
3.4162e-05
4.19059e-05
4.68756e-05
1.70894e-05
1.20445e-05
1.21765e-05
0.00108299
0.00162303
0.000629062
7.22046e-07
7.25077e-07
7.2021e-07
5.3264e-06
5.55525e-05
0.000116373
6.71351e-05
3.79373e-05
0.000130665
0.000148644
1.00169e-07
1.00248e-07
1.00178e-07
1.00875e-07
1.50787e-06
1.99575e-05
4.57459e-05
5.10742e-05
5.10971e-05
2.85552e-05
1.84754e-06
1.81e-06
1.7713e-06
1.73137e-06
1.50613e-05
6.31982e-06
9.71483e-05
0.000175884
0.000176612
0.000162375
3.798e-05
5.88604e-05
9.25527e-05
1.0017e-07
1.00169e-07
1.00178e-07
1.33842e-07
4.54124e-08
4.59902e-08
2.28599e-07
2.48751e-05
3.39493e-05
3.68016e-05
2.66101e-05
3.81317e-06
1.81e-06
1.77181e-06
8.68964e-05
0.000141444
0.000140745
0.000115387
6.34064e-05
2.486e-05
4.12851e-06
8.64658e-06
1.30462e-06
1.56705e-07
1.13125e-07
1.72178e-07
4.57772e-07
4.23672e-07
1.36267e-07
6.2203e-10
6.50786e-10
6.22037e-10
2.97776e-06
3.65923e-06
5.67214e-06
2.97546e-06
8.90659e-06
2.23877e-05
6.82659e-05
3.17155e-05
1.29082e-13
6.44046e-15
1.13756e-11
3.46431e-06
1.34501e-09
1.51194e-09
2.44541e-06
2.32611e-06
6.33143e-07
5.33283e-07
5.84489e-07
3.50814e-07
3.72578e-08
4.01971e-08
1.99356e-08
3.96593e-12
3.3094e-12
1.23266e-06
8.83869e-07
-5.78402e-13
-1.49433e-12
-7.64458e-24
1.49694e-16
3.26788e-10
1.03009e-09
6.03582e-09
4.42111e-08
2.97165e-09
6.86561e-09
3.69209e-06
3.69492e-06
3.48517e-07
3.45867e-08
2.89595e-07
3.2371e-07
3.98083e-07
3.79238e-07
1.63092e-07
2.5389e-09
1.03384e-10
5.95643e-13
4.86855e-12
1.31695e-09
1.44316e-09
1.37036e-09
1.09048e-09
9.62751e-10
7.13032e-10
6.16083e-10
6.14832e-10
1.88905e-09
4.07933e-09
3.10411e-06
3.45995e-06
1.27151e-07
6.37567e-09
2.61244e-08
5.12661e-07
5.11932e-07
4.88614e-07
6.74721e-08
8.59873e-10
1.66214e-09
2.63172e-09
2.54098e-09
2.38629e-09
1.85225e-09
1.48429e-09
1.19589e-09
9.83766e-10
8.42093e-10
7.6449e-10
7.83546e-10
1.0689e-09
1.35903e-09
8.89572e-07
2.90497e-06
8.12836e-08
6.31763e-09
1.51246e-07
4.95309e-07
4.4831e-07
2.18343e-08
2.21339e-09
3.0386e-09
4.59371e-09
4.11944e-09
2.84014e-09
1.99133e-09
1.28466e-09
1.06479e-09
9.08304e-10
7.50453e-10
5.90088e-10
4.55647e-10
4.1858e-10
4.17345e-10
4.37507e-10
8.65995e-07
1.69201e-06
6.1955e-08
8.38736e-09
4.72889e-08
9.71971e-08
4.15102e-08
8.30693e-09
7.3818e-09
7.87377e-09
6.79007e-09
4.66581e-09
3.05175e-09
1.87047e-09
1.13445e-09
7.55572e-10
5.15137e-10
3.59036e-10
2.75261e-10
2.09905e-10
1.68493e-10
1.49306e-10
1.13721e-10
7.24862e-07
9.80357e-07
1.79314e-06
7.16925e-09
7.26929e-09
1.16767e-08
1.4861e-08
1.56687e-08
1.51577e-08
1.0123e-08
7.1904e-09
4.47227e-09
2.44869e-09
1.14588e-09
6.22967e-10
3.76607e-10
2.18547e-10
1.3555e-10
8.95253e-11
6.71961e-11
5.16813e-11
3.48453e-11
2.53982e-11
2.20134e-07
1.33514e-06
3.35802e-06
1.1483e-07
7.16344e-09
1.80493e-08
2.61982e-08
2.61987e-08
1.36888e-08
4.89083e-09
3.13562e-09
1.86984e-09
8.56974e-10
4.10427e-10
2.23237e-10
1.31701e-10
7.42704e-11
4.07995e-11
2.36162e-11
1.52534e-11
1.17813e-11
6.4511e-12
3.82833e-12
8.88149e-08
1.49137e-06
3.3561e-06
1.79394e-06
7.17395e-09
1.63843e-08
2.57715e-08
1.61402e-08
1.34048e-09
2.90594e-10
2.89239e-10
3.42231e-10
2.43776e-10
1.49651e-10
8.24326e-11
4.6917e-11
2.54639e-11
1.35584e-11
6.82914e-12
3.7758e-12
2.26635e-12
9.47583e-13
4.51408e-13
7.14402e-08
3.83695e-07
3.19971e-06
3.31212e-06
2.58418e-07
5.16545e-14
4.7825e-10
1.63544e-09
4.45476e-10
3.83093e-10
2.8788e-10
1.96928e-10
1.20963e-10
7.34699e-11
4.31063e-11
2.56617e-11
1.41246e-11
7.41503e-12
3.68195e-12
1.61222e-12
7.60484e-13
2.02717e-13
5.18756e-14
7.14147e-08
1.46204e-07
2.39955e-06
3.3639e-06
1.69164e-06
4.73201e-14
2.23967e-12
3.08912e-10
7.84259e-10
6.37338e-10
3.29002e-10
1.95301e-10
1.12839e-10
6.79401e-11
4.05317e-11
2.30477e-11
1.22101e-11
5.92961e-12
2.72732e-12
9.79957e-13
4.02725e-13
9.19418e-14
9.10293e-15
2.00458e-07
3.62138e-07
1.55449e-06
3.36197e-06
1.36597e-06
5.05495e-13
8.85759e-10
2.56818e-09
1.36829e-09
7.41554e-10
3.2076e-10
2.14991e-10
1.23245e-10
6.97626e-11
3.97734e-11
2.09595e-11
1.03634e-11
4.69622e-12
1.86076e-12
6.76738e-13
2.08682e-13
5.70445e-14
5.89383e-15
7.31208e-07
8.09342e-08
5.5349e-07
1.01061e-06
1.02667e-06
1.74013e-07
7.23571e-09
5.67774e-09
8.97266e-10
6.11878e-10
3.23224e-10
2.17125e-10
1.23981e-10
6.75681e-11
3.55584e-11
1.77556e-11
7.99555e-12
3.39902e-12
1.29286e-12
3.77749e-13
1.2241e-13
2.79459e-14
5.39809e-15
7.45862e-07
8.09928e-08
9.57897e-08
1.57724e-07
1.69497e-07
4.37194e-08
2.76541e-08
7.41112e-09
5.90905e-10
5.71885e-10
3.66888e-10
2.07391e-10
1.12078e-10
5.80153e-11
2.85584e-11
1.30666e-11
5.52208e-12
2.19086e-12
7.62306e-13
2.3688e-13
6.28892e-14
1.01561e-14
2.38587e-15
7.46028e-07
7.44695e-08
6.04805e-08
5.973e-08
1.57412e-08
7.11267e-09
6.789e-09
1.8499e-09
1.25991e-09
6.43199e-10
3.51788e-10
1.81856e-10
9.11564e-11
4.40466e-11
2.03185e-11
8.75675e-12
3.46778e-12
1.26e-12
4.15755e-13
1.04986e-13
2.47401e-14
5.17521e-15
5.29815e-16
7.17191e-07
6.00247e-08
2.90278e-08
1.25218e-08
5.63314e-09
6.03605e-09
2.8506e-09
2.03363e-09
1.30245e-09
5.75283e-10
2.92321e-10
1.46028e-10
6.83492e-11
3.04526e-11
1.30367e-11
5.34274e-12
1.94369e-12
6.63187e-13
1.89762e-13
4.85758e-14
1.08593e-14
1.34084e-15
3.07034e-16
7.57925e-07
7.692e-08
2.84179e-08
2.84974e-09
2.8438e-09
2.84006e-09
2.4154e-09
2.04403e-09
1.04583e-09
4.88924e-10
2.3558e-10
1.08706e-10
4.78759e-11
1.96565e-11
7.86133e-12
2.93396e-12
9.48364e-13
2.97604e-13
8.25891e-14
1.83538e-14
3.58613e-15
6.17748e-16
5.73202e-17
7.7904e-07
9.42791e-08
5.47641e-08
1.50799e-08
1.00155e-08
2.23445e-09
1.86353e-09
1.34635e-09
8.2256e-10
4.04634e-10
1.8613e-10
7.97769e-11
3.25823e-11
1.24112e-11
4.33748e-12
1.46202e-12
4.57103e-13
1.2735e-13
3.0669e-14
6.55051e-15
1.19284e-15
1.04516e-16
2.21199e-17
9.89238e-07
5.52969e-08
5.20682e-08
4.88685e-08
3.29715e-08
7.61545e-09
1.90168e-09
1.14457e-09
6.94456e-10
3.52818e-10
1.48695e-10
5.68207e-11
2.05811e-11
7.10332e-12
2.24134e-12
6.77948e-13
1.89207e-13
4.55693e-14
1.00433e-14
1.73834e-15
2.28457e-16
3.93389e-17
2.89374e-18
1.18176e-06
9.49449e-07
3.53522e-08
2.17407e-08
2.02613e-08
5.24552e-09
1.54203e-09
1.04643e-09
6.28976e-10
3.11337e-10
1.23978e-10
4.02818e-11
1.25678e-11
3.79105e-12
1.05127e-12
2.72251e-13
6.69209e-14
1.36808e-14
2.60716e-15
4.70643e-16
6.92679e-17
5.89473e-18
8.42036e-19
9.53589e-07
1.48031e-06
2.75296e-07
9.85098e-09
9.8399e-09
3.56123e-09
1.39462e-09
1.05248e-09
6.08457e-10
2.72348e-10
9.73567e-11
2.86886e-11
7.05873e-12
1.79254e-12
4.33249e-13
1.03826e-13
2.17915e-14
4.08806e-15
7.29411e-16
9.46104e-17
1.16189e-17
1.48407e-18
1.002e-19
3.58123e-07
1.48032e-06
1.48043e-06
1.75429e-07
1.92818e-09
1.92932e-09
1.93002e-09
1.24069e-09
5.78102e-10
2.19037e-10
6.94002e-11
1.7893e-11
4.02411e-12
8.38342e-13
1.84327e-13
3.76578e-14
7.23256e-15
1.17573e-15
1.7473e-16
2.41731e-17
2.63209e-18
2.40137e-19
2.04386e-20
9.51933e-08
4.6595e-07
6.24266e-07
1.69539e-07
6.4352e-09
3.97187e-09
2.25668e-09
1.14967e-09
4.54018e-10
1.57634e-10
4.53963e-11
1.13772e-11
2.5024e-12
4.70774e-13
7.99407e-14
1.33072e-14
2.25753e-15
3.24093e-16
4.45297e-17
4.50481e-18
4.3241e-19
3.59173e-20
2.38035e-21
5.85386e-08
1.26261e-08
1.26216e-08
2.24104e-08
1.28784e-08
4.52913e-09
1.61445e-09
7.34487e-10
2.82389e-10
9.17711e-11
2.53178e-11
5.9963e-12
1.24804e-12
2.23075e-13
3.55044e-14
4.89679e-15
6.84936e-16
8.49296e-17
9.56819e-18
9.25727e-19
7.28906e-20
4.68159e-21
2.82087e-22
1.61444e-08
1.53908e-08
1.2617e-08
1.08493e-08
5.66805e-09
2.11289e-09
9.61393e-10
4.01987e-10
1.48415e-10
4.44371e-11
1.15634e-11
2.58183e-12
5.16764e-13
9.30406e-14
1.4882e-14
2.1053e-15
2.37982e-16
2.43502e-17
2.40255e-18
1.93952e-19
1.24676e-20
6.44096e-22
3.00833e-23
6.06413e-09
1.08764e-08
9.89709e-09
5.85289e-09
2.22815e-09
9.04353e-10
3.6437e-10
1.33779e-10
4.39662e-11
1.2508e-11
3.26864e-12
7.92127e-13
1.69329e-13
3.21391e-14
5.29926e-15
7.74439e-16
9.53964e-17
9.44244e-18
6.93765e-19
4.55398e-20
2.42994e-21
1.05102e-22
4.21393e-24
1.64407e-09
2.54348e-09
2.45173e-09
1.37122e-09
6.4149e-10
2.75727e-10
1.0753e-10
3.65758e-11
1.12791e-11
3.1332e-12
7.91439e-13
1.91441e-13
4.28552e-14
8.75501e-15
1.5241e-15
2.52079e-16
3.46294e-17
3.92038e-18
3.54873e-19
2.32578e-20
9.0644e-22
2.41404e-23
6.39119e-25
4.48257e-10
6.86397e-10
5.91392e-10
3.14723e-10
1.33507e-10
5.12593e-11
1.66648e-11
5.18031e-12
1.45136e-12
3.81104e-13
9.37506e-14
2.13399e-14
4.73523e-15
1.02177e-15
2.02764e-16
3.55781e-17
5.42523e-18
7.4295e-19
8.44182e-20
7.62675e-21
5.0758e-22
2.17406e-23
4.40915e-25
0.999999
0.999999
0.999999
0.999999
0.999937
0.999936
0.999936
0.999948
0.999981
0.999965
0.999976
0.999994
0.999983
0.999979
0.999996
0.999996
0.977971
0.90937
0.872048
0.738132
0.868222
0.883281
0.883649
0.883644
0.815303
0.825626
0.855654
0.873426
0.137369
0.159607
0.233657
0.194528
-1.95794e-12
5.99612e-24
-1.20935e-23
9.22493e-24
0.000115289
0.000111137
8.39954e-05
1.2988e-05
0.000148644
5.31293e-05
5.51524e-06
1.86266e-08
0.000148442
0.000148931
8.04319e-05
1.68217e-07
8.06121e-05
4.49064e-05
7.37705e-06
3.01079e-08
5.585e-07
4.77065e-08
1.24168e-07
6.0917e-08
2.03335e-09
4.70996e-08
6.34156e-08
5.7434e-08
1.48618e-08
3.48887e-08
3.39523e-08
2.01454e-08
5.8787e-09
7.07296e-09
7.04192e-09
5.46998e-09
1.31633e-09
1.34923e-09
2.04369e-09
2.41685e-09
3.78682e-10
5.64778e-10
7.60811e-10
8.98356e-10
1.12504e-10
1.45503e-10
2.11458e-10
2.35115e-10
2.13674e-11
2.87746e-11
3.96828e-11
4.79642e-11
3.46645e-12
3.74338e-12
6.10298e-12
7.67324e-12
4.09358e-13
4.65704e-13
7.05199e-13
9.54202e-13
4.52135e-14
5.28474e-14
8.4098e-14
9.70247e-14
4.87706e-15
6.53367e-15
9.73584e-15
1.42335e-14
8.06776e-16
8.32827e-16
1.30839e-15
1.63009e-15
4.54495e-16
1.6662e-16
1.37792e-16
1.70631e-16
1.98296e-16
7.2065e-17
2.73301e-17
2.58902e-17
9.65822e-17
2.08067e-17
6.18727e-18
4.52155e-18
2.75002e-17
4.79634e-18
1.80494e-18
1.21733e-18
8.2055e-18
1.64044e-18
3.43042e-19
2.02689e-19
1.88577e-18
3.14764e-19
7.23709e-20
2.49475e-20
4.18044e-19
6.75789e-20
9.44344e-21
2.9573e-21
7.04895e-20
1.13418e-20
1.79464e-21
2.95088e-22
1.10299e-20
1.65593e-21
1.66498e-22
3.00288e-23
1.67285e-21
2.36457e-22
2.21011e-23
2.78804e-24
2.14838e-22
2.93161e-23
2.54518e-24
2.93513e-25
2.47658e-23
2.99953e-24
2.56096e-25
2.72166e-26
2.83363e-24
2.95276e-25
2.31624e-26
2.3354e-27
3.20959e-25
2.78894e-26
2.03351e-27
1.91078e-28
3.6534e-26
2.68707e-27
1.73084e-28
1.60219e-29
6.00535e-27
2.68055e-28
1.4403e-29
1.39371e-30
0.916078
0.656895
0.503831
0.54481
0.633211
0.633102
0.328536
0.188829
0.272162
0.813137
0.85332
0.692985
0.278362
0.0308452
0.0592692
0.0817611
0.0634293
0.049232
0.0254399
0.999962
0.99996
0.971158
0.689616
0.578345
0.633273
0.622482
0.375628
0.264639
0.360552
0.529759
0.387003
0.152957
0.011444
0.000880282
3.48791e-06
1.3206e-20
1.18527e-20
3.08249e-21
0.99994
0.9999
0.983615
0.822087
0.579715
0.598856
0.640784
0.61934
0.52642
0.0760769
0.0337593
0.0326341
0.0192118
0.00808504
0.000625523
-5.21088e-11
2.75158e-07
2.62089e-07
2.11569e-08
0.929969
0.889811
0.918652
0.829946
0.609763
0.491655
0.584479
0.623749
0.535787
0.0668006
0.0130514
0.00647539
0.011002
0.00567684
3.7486e-05
6.61071e-24
2.39428e-07
7.36505e-07
1.24291e-07
0.678745
0.727231
0.892568
0.893323
0.847868
0.442347
0.140853
0.142327
0.156979
0.0415998
0.00640541
0.00615419
0.0109975
0.0089711
0.000792925
-8.48619e-11
1.31955e-07
7.3942e-07
2.12901e-07
0.826757
0.712258
0.605759
0.461244
0.205059
0.00783526
2.26452e-10
2.26576e-10
6.41543e-05
0.00303203
0.0043851
0.00899401
0.00905238
0.00259099
9.56736e-05
1.10248e-05
2.6714e-07
7.40066e-07
1.7369e-07
0.694881
0.21064
0.0623753
2.26455e-10
2.26576e-10
2.26455e-10
2.26457e-10
2.2646e-10
1.04909e-07
0.000366076
0.00583065
0.00664137
0.00325722
3.04245e-05
9.37914e-06
2.59209e-06
2.06722e-08
3.49179e-07
6.43925e-08
0.107384
0.00293807
2.26455e-10
2.32257e-10
4.49624e-07
1.82195e-07
2.54769e-06
2.15154e-10
0.00165095
0.00324243
0.00294935
0.000406379
2.15931e-11
2.14844e-11
4.45308e-10
8.12475e-08
1.27184e-11
5.54264e-11
1.35196e-09
-9.36642e-24
-5.76804e-09
7.72667e-10
7.99263e-10
6.62836e-07
2.62019e-06
9.53538e-06
0.000941023
0.00312777
0.00275273
2.35752e-08
2.30127e-08
2.24632e-08
2.15638e-11
2.6651e-11
2.70841e-11
3.03964e-11
1.11542e-11
1.66666e-11
4.20478e-06
1.25587e-06
5.13653e-08
9.81162e-10
1.28513e-06
1.33227e-05
0.000173884
0.00153215
0.00154431
8.68452e-05
2.41527e-08
2.87333e-08
2.91799e-08
2.1472e-11
1.60823e-10
1.5905e-10
8.7781e-11
3.30634e-11
1.12659e-11
1.5953e-08
1.64497e-08
2.32807e-08
9.26841e-10
1.53028e-06
6.34384e-05
0.000837913
0.000925864
1.90546e-07
1.90555e-07
3.28686e-07
4.23571e-08
1.12103e-08
2.1565e-11
3.81682e-10
3.77701e-10
2.21535e-10
8.26017e-11
1.13022e-11
1.6876e-08
2.66803e-08
3.75338e-08
1.54708e-07
5.16213e-06
0.000130715
0.000329298
9.39748e-05
1.9063e-07
3.82011e-07
3.44406e-07
2.65876e-09
3.34189e-09
4.9944e-10
7.18958e-10
5.91994e-10
3.54607e-10
1.22127e-10
1.08545e-11
4.70405e-08
5.01258e-08
5.23186e-08
5.27348e-07
1.42836e-05
5.68299e-05
5.33867e-05
2.07645e-05
1.90633e-07
4.07298e-07
1.27936e-07
2.65659e-09
2.99163e-09
2.05921e-09
1.15056e-09
7.12966e-10
3.99248e-10
1.32775e-10
8.86897e-12
5.90663e-08
3.37647e-08
2.83904e-08
5.29482e-07
4.21467e-06
3.96395e-06
1.77847e-07
2.59821e-08
2.23699e-07
3.86363e-07
1.54006e-09
4.38347e-09
3.54158e-09
2.26577e-09
1.19827e-09
6.99762e-10
3.75436e-10
1.08977e-10
6.84155e-12
3.26254e-08
1.2953e-08
2.90244e-08
1.03543e-07
1.12419e-09
2.91809e-10
2.97623e-10
3.93749e-09
3.78846e-08
2.5463e-08
7.83518e-10
2.77244e-09
2.01087e-09
1.24382e-09
8.59849e-10
5.45829e-10
2.92479e-10
6.9702e-11
6.12913e-12
9.757e-09
6.93151e-09
4.62144e-09
2.91811e-10
2.91808e-10
2.91811e-10
8.68087e-10
4.22322e-09
6.99199e-10
6.97327e-10
7.83645e-10
1.14668e-09
8.93803e-10
5.99957e-10
4.32743e-10
3.03022e-10
1.53314e-10
4.7838e-11
4.3057e-12
4.04023e-09
3.71612e-09
1.08773e-09
2.93789e-10
2.92129e-10
3.62862e-10
7.94014e-10
2.84564e-09
7.08377e-10
6.95502e-10
8.18981e-10
7.90946e-10
5.86575e-10
3.81383e-10
2.42068e-10
1.67379e-10
9.48071e-11
2.88412e-11
2.94881e-12
2.15984e-09
1.33003e-09
5.03237e-10
2.62797e-10
2.622e-10
3.13026e-10
5.65356e-10
1.45299e-09
6.61872e-10
6.45464e-10
6.67247e-10
4.84922e-10
3.38677e-10
2.25018e-10
1.39879e-10
9.81829e-11
5.68888e-11
1.46724e-11
1.96014e-12
7.13475e-10
3.03953e-10
8.71806e-11
1.01283e-10
1.26987e-10
1.7315e-10
2.95624e-10
4.76039e-10
3.72236e-10
3.6973e-10
3.14598e-10
2.05271e-10
1.41615e-10
1.07005e-10
7.61188e-11
5.48677e-11
3.27563e-11
5.24424e-12
1.67915e-12
1.74358e-10
6.7443e-11
1.77198e-11
2.56892e-11
3.58021e-11
6.87198e-11
1.31598e-10
1.69614e-10
1.44394e-10
1.43341e-10
1.1733e-10
8.20549e-11
6.41666e-11
5.09408e-11
3.79869e-11
2.99802e-11
1.7047e-11
3.10039e-12
1.50557e-12
3.41784e-11
1.10265e-11
3.57266e-12
6.30897e-12
1.13431e-11
2.61242e-11
5.4183e-11
7.22033e-11
6.29709e-11
6.14296e-11
4.83744e-11
3.55472e-11
3.02267e-11
2.39685e-11
1.86658e-11
1.3683e-11
4.65965e-12
1.75191e-12
1.41404e-12
5.48299e-12
1.90601e-12
1.2333e-12
2.28977e-12
4.18669e-12
1.00104e-11
1.9649e-11
2.68754e-11
2.56107e-11
2.52788e-11
2.06639e-11
1.57009e-11
1.28595e-11
1.02611e-11
8.74656e-12
6.08107e-12
1.58801e-12
1.43949e-12
1.29776e-12
7.43877e-13
4.26392e-13
4.82151e-13
8.98463e-13
1.49789e-12
3.24247e-12
6.29982e-12
8.52315e-12
9.13141e-12
8.79631e-12
7.46794e-12
6.13647e-12
4.8744e-12
3.63406e-12
1.85856e-12
2.19549e-12
5.33015e-13
1.2858e-12
1.16143e-12
1.15872e-13
1.09757e-13
1.77131e-13
3.29406e-13
5.59175e-13
1.07802e-12
1.99884e-12
2.65122e-12
2.80955e-12
2.89793e-12
2.49938e-12
1.95611e-12
1.28474e-12
4.68949e-13
7.03053e-14
5.79034e-13
3.24503e-13
1.16513e-12
1.01466e-12
1.5908e-14
2.74893e-14
5.57778e-14
1.08521e-13
1.8549e-13
3.32245e-13
5.70659e-13
7.836e-13
8.45125e-13
8.93966e-13
5.65494e-13
1.7899e-13
4.99668e-14
6.148e-15
1.02091e-14
9.90579e-14
3.15864e-13
1.02846e-12
9.01353e-13
2.66163e-15
6.56582e-15
1.59788e-14
3.15156e-14
5.47165e-14
9.36905e-14
1.51803e-13
2.05152e-13
2.36409e-13
7.99446e-14
1.35905e-14
1.09026e-15
6.19347e-16
2.06266e-15
1.1051e-14
7.20797e-14
3.36079e-13
9.69527e-13
8.09783e-13
4.12348e-16
1.54228e-15
4.01778e-15
8.10601e-15
1.42792e-14
2.36705e-14
3.61177e-14
4.80268e-14
1.14511e-14
5.70419e-16
4.01426e-17
1.0179e-16
5.45192e-16
2.91918e-15
1.38474e-14
8.00066e-14
3.70849e-13
9.0964e-13
6.68663e-13
7.55472e-17
3.28718e-16
8.76642e-16
1.82566e-15
3.23996e-15
5.20432e-15
7.43177e-15
1.85651e-15
6.00229e-17
6.02657e-18
2.63216e-17
1.48468e-16
8.49565e-16
4.81824e-15
2.0568e-14
1.00621e-13
4.03301e-13
7.92716e-13
4.70267e-13
1.61821e-17
5.94362e-17
1.63601e-16
3.48962e-16
6.09874e-16
8.67047e-16
3.9427e-16
8.16734e-18
1.16793e-18
6.06361e-18
4.09472e-17
2.56088e-16
1.47302e-15
7.80978e-15
3.58932e-14
1.55627e-13
4.49141e-13
6.65729e-13
3.6036e-13
2.45086e-18
9.02896e-18
2.54955e-17
5.54658e-17
9.49802e-17
1.1793e-16
1.97055e-18
1.8369e-19
1.17609e-18
8.94164e-18
6.56107e-17
4.15738e-16
2.40647e-15
1.31062e-14
5.1597e-14
1.90522e-13
4.52138e-13
5.95971e-13
2.43936e-13
2.97314e-19
1.12578e-18
3.27512e-18
7.29594e-18
1.23896e-17
1.42614e-17
3.55061e-19
1.5539e-19
1.16227e-18
9.48927e-18
7.2002e-17
4.65453e-16
2.66069e-15
1.33413e-14
4.9244e-14
1.7443e-13
3.99164e-13
4.43394e-13
1.52081e-13
3.16978e-20
1.13591e-19
3.47962e-19
8.01736e-19
1.3696e-18
1.52848e-18
8.8289e-20
9.27955e-20
7.16176e-19
5.66905e-18
4.27406e-17
2.86281e-16
1.78531e-15
9.64654e-15
3.40553e-14
1.11723e-13
2.51618e-13
2.65526e-13
9.71873e-14
2.62006e-21
9.57979e-21
3.06771e-20
7.21535e-20
1.2867e-19
1.43052e-19
1.88184e-20
4.02442e-20
3.02817e-19
2.12769e-18
1.52535e-17
1.03519e-16
7.72544e-16
4.82714e-15
1.78741e-14
4.71753e-14
1.02555e-13
1.229e-13
5.2347e-14
2.06562e-22
6.10987e-22
1.98309e-21
4.99954e-21
9.73686e-21
1.11495e-20
3.2613e-21
1.26718e-20
9.74044e-20
7.10018e-19
4.53537e-18
2.74158e-17
1.59762e-16
1.87282e-15
6.8349e-15
1.93043e-14
3.67299e-14
5.56427e-14
2.8636e-14
1.0484e-23
2.86484e-23
1.03719e-22
2.9281e-22
5.6225e-22
6.98172e-22
5.2112e-22
2.95505e-21
2.40306e-20
1.72386e-19
1.06673e-18
5.68865e-18
2.7823e-17
4.20785e-16
2.08121e-15
5.33213e-15
1.20577e-14
2.17663e-14
1.18805e-14
8.0163e-25
1.29459e-24
4.90033e-24
1.34267e-23
2.5772e-23
3.90754e-23
7.22207e-23
4.7756e-22
3.90469e-21
2.90277e-20
1.77164e-19
1.01075e-18
4.69054e-18
8.48651e-17
5.00693e-16
1.40502e-15
3.51809e-15
5.84617e-15
4.78539e-15
5.71203e-26
7.48378e-26
2.93921e-25
8.85462e-25
1.92042e-24
4.01415e-24
1.23019e-23
7.03262e-23
5.26065e-22
3.9611e-21
2.80994e-20
1.69653e-19
8.03578e-19
1.62328e-17
1.10089e-16
2.95988e-16
6.56395e-16
1.37608e-15
1.49633e-15
4.50598e-27
5.13029e-27
2.26678e-26
8.5506e-26
2.75232e-25
8.86178e-25
3.03571e-24
1.29008e-23
6.90294e-23
4.68317e-22
3.6733e-21
2.41015e-20
1.23868e-19
2.68417e-18
1.93135e-17
5.46536e-17
1.15865e-16
2.1923e-16
4.34263e-16
3.84732e-28
7.56212e-28
4.24369e-27
2.03011e-26
8.43846e-26
3.16637e-25
1.03477e-24
3.29869e-24
1.15333e-23
5.65574e-23
4.10644e-22
2.90824e-21
1.66157e-20
4.03046e-19
3.10258e-18
9.08195e-18
1.41158e-17
3.4293e-17
9.9264e-17
4.8541e-29
2.30925e-28
1.41949e-27
6.99872e-27
2.88115e-26
9.99197e-26
3.1706e-25
8.63457e-25
2.24335e-24
7.20689e-24
3.69859e-23
2.52813e-22
1.61319e-21
4.63825e-20
3.85607e-19
1.22741e-18
1.60263e-18
4.18323e-18
2.21765e-17
1.08845e-29
8.00406e-29
4.93736e-28
2.35054e-27
9.09077e-27
2.9796e-26
8.50773e-26
2.21624e-25
5.25363e-25
1.20956e-24
3.9089e-24
2.04416e-23
1.29705e-22
4.45775e-21
4.16402e-20
1.39508e-19
1.4852e-19
7.17132e-19
5.36452e-18
3.1582e-30
2.52353e-29
1.45889e-28
6.35547e-28
2.27131e-27
7.0419e-27
1.97256e-26
4.7917e-26
1.11293e-25
2.46429e-25
5.80393e-25
2.05552e-24
1.18972e-23
4.72875e-22
4.91228e-21
1.72751e-20
1.97316e-20
1.44427e-19
7.7577e-19
)
;

boundaryField
{
    leftWall
    {
        type            zeroGradient;
    }
    rightWall
    {
        type            zeroGradient;
    }
    lowerWall
    {
        type            zeroGradient;
    }
    atmosphere
    {
        type            inletOutlet;
        inletValue      uniform 0;
        value           nonuniform List<scalar> 
46
(
0
0
0
0
0
0
0
0
0
0
0
0
0
0
0
0
0
0
0
0
0
0
4.40915e-25
6.00535e-27
2.68055e-28
1.4403e-29
1.39371e-30
3.1582e-30
2.52353e-29
1.45889e-28
6.35547e-28
2.27131e-27
7.0419e-27
1.97256e-26
4.7917e-26
1.11293e-25
2.46429e-25
5.80393e-25
2.05552e-24
1.18972e-23
4.72875e-22
4.91228e-21
1.72751e-20
1.97316e-20
1.44427e-19
7.7577e-19
)
;
    }
    defaultFaces
    {
        type            empty;
    }
}


// ************************************************************************* //
