/*--------------------------------*- C++ -*----------------------------------*\
| =========                 |                                                 |
| \\      /  F ield         | OpenFOAM: The Open Source CFD Toolbox           |
|  \\    /   O peration     | Version:  2312                                  |
|   \\  /    A nd           | Website:  www.openfoam.com                      |
|    \\/     M anipulation  |                                                 |
\*---------------------------------------------------------------------------*/
FoamFile
{
    version     2.0;
    format      ascii;
    arch        "LSB;label=32;scalar=64";
    class       volScalarField;
    location    "1.4";
    object      alpha.oil;
}
// * * * * * * * * * * * * * * * * * * * * * * * * * * * * * * * * * * * * * //

dimensions      [0 0 0 0 0 0 0];

internalField   nonuniform List<scalar> 
2268
(
5.9493e-11
9.85577e-12
1.37938e-12
3.79444e-13
1.91802e-13
2.02797e-13
2.69695e-13
4.06304e-13
1.63917e-12
2.82102e-12
3.82907e-12
5.53465e-12
9.63682e-12
1.85323e-11
3.25734e-11
6.62438e-11
1.21243e-10
2.11104e-10
3.60794e-10
3.61295e-10
3.61794e-10
4.47666e-05
6.87626e-05
5.15876e-10
7.42456e-11
1.29787e-11
3.47216e-12
1.8964e-12
2.89831e-12
2.46272e-12
8.76343e-12
5.09715e-11
8.34893e-11
3.95037e-11
2.24831e-11
2.61818e-11
4.35941e-11
8.05354e-11
1.44908e-10
2.8067e-10
6.13359e-10
1.60281e-09
8.24496e-10
3.61856e-10
1.40115e-05
5.65465e-05
1.8874e-09
2.97435e-10
4.49211e-11
1.66679e-11
1.43843e-11
2.76426e-11
2.60871e-12
2.16317e-10
5.91068e-10
8.75312e-10
3.1046e-10
1.57527e-10
5.30401e-11
6.65217e-11
1.06153e-10
1.92495e-10
3.08757e-10
4.66135e-10
9.00034e-10
6.15872e-10
3.61647e-10
3.619e-10
1.3541e-06
2.63304e-09
5.29566e-10
4.72713e-11
1.66709e-11
3.08081e-11
8.18855e-11
2.6046e-12
1.10007e-09
2.20033e-09
2.51121e-09
8.86722e-09
4.82347e-09
5.25351e-11
6.32393e-11
6.62193e-11
9.63655e-11
1.06315e-10
1.09183e-10
6.01592e-11
2.17499e-11
2.10966e-11
2.54035e-05
1.31992e-06
4.75266e-11
4.74413e-11
4.73562e-11
5.54782e-09
3.08089e-11
3.08764e-11
1.53566e-07
1.26987e-08
1.13046e-09
2.18796e-22
3.54457e-08
7.51842e-08
5.66216e-08
6.32423e-11
6.3688e-11
6.79148e-11
4.38476e-11
2.73735e-11
2.72783e-11
5.16942e-05
5.84442e-05
0.00107697
0.00738279
3.37406e-06
1.14754e-05
7.21572e-06
1.75301e-06
4.3728e-06
1.83517e-06
6.60775e-07
1.55081e-05
2.81335e-07
9.2961e-22
-3.58454e-20
-6.38729e-11
6.55032e-07
1.37395e-06
3.06369e-07
6.79022e-11
8.79059e-07
5.57833e-05
0.000408862
0.000534565
0.000347951
0.00114204
0.00822436
0.000305211
0.00019161
1.74837e-06
1.74837e-06
4.91426e-05
8.60351e-06
6.63642e-07
3.29498e-05
0.000515538
0.000763233
0.000324565
2.67663e-05
6.61423e-07
7.95738e-06
1.33085e-05
2.02533e-06
3.61574e-05
0.000464281
0.00056196
0.000561682
0.000288977
9.44796e-06
0.00821537
0.169164
0.15744
0.0745797
0.0252432
0.00355763
6.52619e-07
6.54136e-07
6.6504e-07
0.00101102
0.003578
0.00326024
0.00159476
0.000431932
6.17175e-05
2.15447e-05
4.98511e-05
0.000137759
0.000329171
0.000360812
0.000237601
3.06872e-05
3.38721e-06
0.00282761
0.59849
0.494642
0.167173
0.0641184
0.0566985
0.0567253
0.0697943
0.0826706
0.0726155
0.055329
0.0419722
0.0413568
0.0413547
0.0413843
0.038094
0.0207071
0.0199579
0.0245899
0.0616064
0.608392
0.753595
0.662341
0.382481
0.359801
0.321712
0.326819
0.288499
0.377611
0.396326
0.280487
0.145306
0.0692997
0.0295052
0.024122
0.0241738
0.0294794
0.0467023
0.0465217
0.682252
0.753612
0.558501
0.429131
0.294754
0.147372
0.147217
0.165832
0.219649
0.517841
0.565766
0.54933
0.32478
0.165565
0.150675
0.15112
0.179682
0.235659
0.307433
0.633434
0.685327
0.129156
0.781684
0.633519
0.382389
0.15779
0.136432
0.253739
0.565529
0.565772
0.565772
0.565772
0.564685
0.522297
0.367804
0.214268
0.211378
0.478799
0.533648
0.230904
0.12908
0.811648
0.854965
0.787669
0.42163
0.190241
0.235428
0.506629
0.565772
0.565772
0.533329
0.477746
0.419593
0.280791
0.112041
0.114341
0.593754
0.470338
0.0931282
0.140694
0.505805
0.784714
0.850772
0.837381
0.560483
0.192891
0.54228
0.565772
0.454766
0.164021
0.0987689
0.0987712
0.0987807
0.0987784
0.169104
0.739519
0.6039
0.0931334
0.298588
0.244337
0.249987
0.718389
0.84116
0.623996
0.147608
0.485535
0.461325
0.175902
0.138664
0.144765
0.104977
0.101935
0.106432
0.451099
0.834422
0.681174
0.4225
0.421593
0.199083
0.172025
0.221417
0.798564
0.716944
0.149735
0.166615
0.135079
0.118198
0.413899
0.57682
0.513056
0.467792
0.501636
0.716901
0.874167
0.941052
0.923115
0.823451
0.724066
0.524731
0.147936
0.0106917
3.71447e-05
0.000653944
0.00356248
0.0031647
0.00239053
0.00173591
0.00080248
0.000110126
1.45247e-05
1.36234e-05
6.95752e-06
4.32147e-07
3.93306e-10
1.35379e-09
3.34337e-06
9.31406e-07
0.999952
0.980501
0.997396
0.997417
0.997154
0.906261
0.858357
0.379999
0.00449129
0.018213
0.0544977
0.0521069
0.0319426
0.0140303
0.00112476
0.00015145
2.87319e-06
1.30562e-09
2.63258e-11
2.20121e-11
3.05967e-11
1.45497e-09
1.27654e-05
0.999952
0.899333
0.827852
0.865367
0.903187
0.96745
0.99786
0.959935
0.768929
0.174886
0.165983
0.458048
0.511581
0.461996
0.285902
0.0282888
9.16253e-08
9.92381e-08
8.65247e-07
1.16837e-06
6.68635e-07
1.23448e-09
2.75234e-06
0.999951
0.928832
0.45294
0.435234
0.474118
0.872578
0.997955
0.99795
0.997855
0.755104
0.258744
0.567817
0.693854
0.693854
0.633703
0.100106
7.81538e-08
3.25312e-06
2.69869e-05
4.49699e-05
4.29294e-05
2.16281e-05
2.40039e-06
0.999951
0.965614
0.453059
0.458708
0.73298
0.934181
0.997622
0.992076
0.997851
0.686239
0.187776
0.319546
0.673684
0.693854
0.422635
0.0338486
3.77638e-06
1.19598e-05
4.72734e-05
4.77131e-05
3.7806e-06
7.72901e-07
7.70935e-07
0.999951
0.983459
0.708761
0.958793
0.997713
0.980232
0.939926
0.715909
0.409736
0.214269
0.180249
0.207117
0.576426
0.600592
0.0969553
9.91481e-05
2.50919e-07
1.96852e-07
2.18892e-07
1.96856e-07
2.18888e-07
0.011647
0.0235221
0.999809
0.999453
0.999985
0.992479
0.997304
0.973444
0.902453
0.555293
0.231002
0.212292
0.189168
0.218115
0.436947
0.312193
0.041005
0.0418926
0.155417
0.213205
0.174129
0.147415
0.138367
0.156551
0.178606
0.999941
0.999985
0.999985
0.924467
0.93515
0.987774
0.991434
0.953508
0.693574
0.230237
0.229526
0.23062
0.270197
0.17584
0.16984
0.510904
0.848477
0.909011
0.878893
0.853305
0.842945
0.851627
0.858388
0.999985
0.999985
0.999985
0.93438
0.928439
0.980225
0.999461
0.99946
0.998357
0.820111
0.503184
0.402383
0.314591
0.215149
0.472485
0.957475
0.990837
0.990828
0.990777
0.981889
0.969389
0.962802
0.962746
0.894758
0.894045
0.963859
0.967115
0.962567
0.969307
0.995448
0.997407
0.998357
0.99767
0.985737
0.724335
0.441799
0.64247
0.968336
0.990361
0.990904
0.973143
0.952474
0.916321
0.846054
0.711914
0.489411
0.170435
0.176088
0.321453
0.625313
0.815256
0.941839
0.995409
0.985243
0.981363
0.988332
0.932593
0.797458
0.852028
0.973553
0.986572
0.989175
0.981461
0.95825
0.92533
0.920659
0.920487
0.920333
0.570533
5.6563e-07
8.28977e-09
9.7846e-09
0.0159186
0.132098
0.345009
0.653642
0.878786
0.96092
0.960013
0.944464
0.917421
0.854817
0.776537
0.724319
0.736694
0.780095
0.771279
0.714282
0.585321
0.495156
0.467903
0.323833
4.61525e-06
5.26623e-05
2.33141e-05
1.72659e-06
-1.2851e-11
1.54854e-14
0.0167105
0.165942
0.445378
0.72927
0.857212
0.891718
0.891978
0.703754
0.349766
0.175707
0.146206
0.115405
0.0690978
0.00373724
2.04727e-11
7.97403e-19
4.17137e-19
0.000114329
0.00130227
0.00119114
0.000320987
9.27359e-08
1.39658e-08
1.43011e-09
3.44115e-16
6.56217e-15
0.0297588
0.162325
0.301601
0.356445
0.410485
0.376336
0.0862252
-2.3405e-07
-1.905e-22
-1.43025e-24
3.74533e-15
9.83877e-07
1.62015e-07
2.04435e-06
0.000434775
0.00167108
0.00167116
0.000854166
4.54835e-08
9.30192e-09
2.46772e-08
2.83992e-08
3.65451e-08
8.46752e-17
1.69733e-16
1.61646e-16
2.45937e-16
2.01552e-14
1.09082e-11
0.0101615
0.00840471
0.000119329
6.93475e-07
7.4989e-06
8.50712e-06
5.21223e-07
2.39511e-07
0.000415609
0.00159029
0.00121486
0.000252983
7.32363e-09
6.51974e-09
1.95608e-07
3.59688e-07
9.32866e-07
8.72767e-07
1.81745e-07
9.89257e-08
6.74327e-07
8.51437e-07
3.2459e-07
5.1298e-15
1.04678e-13
1.94572e-07
1.13587e-06
6.16862e-06
4.90353e-06
3.9062e-08
3.87564e-08
2.55005e-05
9.08149e-05
7.77347e-09
5.80512e-08
1.36637e-07
1.33376e-06
2.52865e-06
2.65447e-06
2.53736e-06
8.73308e-07
1.74222e-07
2.32387e-07
3.24525e-06
4.98656e-06
3.39849e-06
1.13244e-14
2.55601e-09
9.7039e-09
3.68632e-08
1.11632e-07
1.47136e-07
4.44146e-08
4.36941e-08
-1.25033e-12
1.632e-27
8.69138e-09
1.25999e-07
8.54952e-07
3.03063e-06
3.01936e-06
2.46003e-06
2.94516e-07
1.57246e-08
2.0095e-07
2.47797e-07
2.29027e-09
2.54841e-09
2.25635e-09
2.5674e-09
3.12632e-09
3.66357e-09
5.03963e-09
9.06751e-09
1.43282e-08
1.83539e-08
1.71965e-08
-1.15649e-12
7.71379e-27
2.28096e-08
9.69279e-08
9.99549e-07
2.25498e-06
6.98464e-07
3.31951e-09
3.6596e-09
4.18668e-09
3.9967e-09
2.71806e-09
2.27285e-09
2.25716e-09
2.24138e-09
2.28509e-09
2.02249e-09
1.97118e-09
2.35097e-09
2.7701e-09
3.55985e-09
4.29987e-09
4.90428e-09
5.38545e-14
8.82141e-10
1.98056e-08
4.55813e-08
2.68966e-09
2.67637e-09
2.70268e-09
3.82448e-09
4.08767e-09
3.79712e-09
3.3447e-09
3.327e-09
3.09329e-09
2.74515e-09
2.20429e-09
1.82747e-09
1.40896e-09
1.14801e-09
1.06858e-09
1.18876e-09
1.37886e-09
1.60741e-09
1.48544e-09
6.19684e-08
2.34588e-09
6.76783e-09
4.03882e-09
4.04114e-09
3.81785e-09
4.78855e-09
6.46809e-09
7.72139e-09
7.76821e-09
7.06495e-09
6.01194e-09
4.99712e-09
3.80037e-09
2.71462e-09
1.73662e-09
1.13697e-09
7.8001e-10
5.96586e-10
5.38928e-10
5.84074e-10
6.70916e-10
8.53917e-10
5.72184e-07
2.32625e-09
1.04496e-08
5.52893e-09
4.06384e-09
4.88409e-09
7.40647e-09
9.02759e-09
1.61461e-08
1.96793e-08
1.40952e-08
9.94066e-09
7.00737e-09
4.68857e-09
3.02868e-09
1.84407e-09
1.07005e-09
6.09033e-10
3.93292e-10
3.14969e-10
3.17129e-10
3.83533e-10
5.07396e-10
6.9677e-07
4.58345e-08
1.24396e-08
1.44117e-08
5.1123e-09
9.09318e-09
1.12886e-08
2.3517e-08
3.84905e-08
3.30133e-08
1.49232e-08
8.53277e-09
6.3074e-09
4.24466e-09
2.68597e-09
1.62316e-09
8.99383e-10
4.8726e-10
2.62031e-10
1.87466e-10
1.76932e-10
2.05831e-10
2.64795e-10
8.95523e-07
7.66279e-07
1.25911e-08
2.95064e-08
7.08433e-09
2.27422e-08
3.65889e-08
6.47358e-08
7.18776e-08
1.69971e-08
6.16737e-09
4.35425e-09
3.57471e-09
2.70686e-09
1.8521e-09
1.09637e-09
5.98247e-10
3.05809e-10
1.60521e-10
1.00052e-10
9.02248e-11
9.9733e-11
1.29629e-10
1.53514e-06
8.1822e-06
1.81488e-06
8.44932e-09
1.27086e-08
3.8367e-08
1.66975e-07
3.6641e-07
1.52829e-07
3.01857e-09
3.2362e-09
3.08757e-09
2.61368e-09
1.92545e-09
1.34768e-09
7.78953e-10
3.81519e-10
1.71004e-10
8.48181e-11
4.81099e-11
4.19488e-11
4.54687e-11
5.27962e-11
2.19667e-06
1.02392e-05
7.62805e-06
8.42322e-09
3.48007e-08
1.1548e-07
4.13088e-07
4.15055e-07
2.02005e-07
3.0442e-09
4.83281e-09
3.8315e-09
2.60177e-09
1.59046e-09
9.2752e-10
4.63508e-10
2.10557e-10
9.05758e-11
4.00018e-11
2.27347e-11
1.82011e-11
1.8697e-11
2.14368e-11
1.34323e-05
7.71095e-06
7.91866e-06
1.13383e-06
3.43302e-08
2.69279e-07
4.27496e-07
4.12502e-07
3.55674e-08
6.26148e-09
5.9078e-09
3.83084e-09
2.33328e-09
1.25389e-09
6.2646e-10
2.91305e-10
1.2202e-10
5.06842e-11
2.14148e-11
1.00861e-11
7.8203e-12
7.63238e-12
7.93045e-12
2.79313e-05
5.13806e-08
8.53516e-07
2.52994e-07
1.42729e-07
3.72376e-07
4.05871e-07
2.30257e-07
1.04179e-08
1.03533e-08
5.94406e-09
3.23065e-09
1.7639e-09
8.68711e-10
3.94685e-10
1.66648e-10
6.75242e-11
2.72533e-11
1.06609e-11
4.83566e-12
3.07899e-12
2.72469e-12
2.73705e-12
2.79553e-05
9.75946e-09
3.66123e-08
9.99118e-08
3.28275e-07
4.28299e-07
4.10799e-07
2.83392e-08
1.50014e-08
9.76083e-09
4.97496e-09
2.49147e-09
1.18407e-09
5.33088e-10
2.31101e-10
9.54284e-11
3.74894e-11
1.41236e-11
5.27148e-12
1.98665e-12
1.15917e-12
9.90078e-13
8.922e-13
2.76312e-05
8.12869e-09
6.95237e-08
2.1844e-07
4.26763e-07
4.21843e-07
2.00905e-07
2.3676e-08
1.44391e-08
7.28488e-09
3.58275e-09
1.75044e-09
7.65905e-10
3.1885e-10
1.32152e-10
5.35771e-11
1.97219e-11
7.06282e-12
2.30097e-12
8.42534e-13
4.36708e-13
3.12017e-13
2.90763e-13
2.70234e-05
8.12657e-09
6.89886e-08
1.89619e-07
3.24502e-07
3.1152e-07
4.34995e-08
2.63528e-08
1.17006e-08
5.38889e-09
2.58936e-09
1.15151e-09
4.83439e-10
1.90359e-10
7.53484e-11
2.81954e-11
9.32169e-12
3.08925e-12
9.75667e-13
3.17214e-13
1.53431e-13
1.13087e-13
8.63202e-14
2.81544e-05
8.12864e-09
2.84859e-08
1.05059e-07
1.19116e-07
8.85407e-08
3.0706e-08
1.62986e-08
7.94365e-09
3.86664e-09
1.78524e-09
7.54828e-10
3.04177e-10
1.13784e-10
3.96793e-11
1.35977e-11
4.39798e-12
1.30341e-12
3.61486e-13
1.14069e-13
5.16579e-14
2.86743e-14
2.42346e-14
3.00775e-05
8.12656e-09
1.7414e-08
3.81863e-08
3.82425e-08
4.23567e-08
2.41369e-08
1.20915e-08
5.93484e-09
2.84831e-09
1.19043e-09
4.64367e-10
1.7111e-10
6.00602e-11
1.93978e-11
6.0785e-12
1.78177e-12
4.63722e-13
1.20281e-13
3.30997e-14
1.37557e-14
9.8371e-15
6.00043e-15
3.00744e-05
2.26643e-05
3.35837e-08
1.12742e-07
7.70482e-07
3.96471e-07
3.21174e-08
1.15107e-08
4.89114e-09
2.06148e-09
8.0175e-10
2.75045e-10
9.18569e-11
2.9363e-11
8.60457e-12
2.36618e-12
6.21516e-13
1.39892e-13
3.26684e-14
1.01609e-14
4.64947e-15
2.34992e-15
1.63628e-15
1.89764e-05
5.82719e-05
2.0719e-06
1.44789e-07
3.29106e-06
1.66978e-06
1.31744e-08
9.78013e-09
4.33891e-09
1.49618e-09
4.97835e-10
1.60978e-10
4.50126e-11
1.27863e-11
3.39091e-12
8.84905e-13
2.02266e-13
4.26609e-14
9.70585e-15
2.54072e-15
1.12952e-15
7.00119e-16
3.52742e-16
1.852e-06
5.82767e-05
5.44067e-05
5.94496e-06
3.30834e-06
8.25085e-07
3.8373e-09
4.18645e-09
2.19761e-09
7.82764e-10
2.64591e-10
8.06793e-11
2.23682e-11
5.61857e-12
1.40917e-12
3.20203e-13
6.78934e-14
1.26662e-14
2.54017e-15
7.62249e-16
3.33466e-16
1.6379e-16
8.41341e-17
8.4823e-09
2.18334e-05
3.05821e-05
9.02355e-06
1.22901e-09
1.22659e-09
3.81944e-09
2.06851e-09
9.00903e-10
3.77397e-10
1.35818e-10
4.39444e-11
1.25416e-11
2.97037e-12
6.01549e-13
1.13846e-13
2.16293e-14
3.63485e-15
7.14115e-16
1.91794e-16
8.19156e-17
3.7903e-17
1.67423e-17
8.48211e-09
8.48235e-09
7.46432e-08
8.09058e-07
2.50157e-07
1.22413e-09
1.22167e-09
9.07506e-10
4.45681e-10
1.84035e-10
6.67087e-11
2.10243e-11
5.75977e-12
1.31774e-12
2.5799e-13
4.19883e-14
6.68507e-15
1.00307e-15
1.79292e-16
5.11643e-17
2.03361e-17
8.11735e-18
3.25033e-18
7.6957e-09
1.21454e-08
1.13776e-08
9.44177e-09
1.94072e-09
2.14336e-09
1.29543e-09
5.84676e-10
2.52798e-10
9.36345e-11
3.10786e-11
9.01623e-12
2.33779e-12
5.31704e-13
1.04181e-13
1.73963e-14
2.31061e-15
2.9634e-16
5.12263e-17
1.40206e-17
4.87484e-18
1.68623e-18
5.75191e-19
5.64783e-09
8.63723e-09
7.87369e-09
4.51023e-09
1.93866e-09
1.03613e-09
4.9685e-10
2.18585e-10
8.68326e-11
3.07199e-11
1.00422e-11
3.03791e-12
8.02773e-13
1.84441e-13
3.62247e-14
6.17314e-15
8.86271e-16
1.10061e-16
1.56806e-17
4.07245e-18
1.25265e-18
3.60166e-19
1.0874e-19
2.4351e-09
3.51478e-09
2.97504e-09
1.70833e-09
8.84207e-10
4.20244e-10
1.85374e-10
7.35212e-11
2.70488e-11
9.1321e-12
2.82954e-12
8.29893e-13
2.22483e-13
5.33481e-14
1.0778e-14
2.01925e-15
3.15272e-16
4.30791e-17
6.34133e-18
1.36972e-18
3.55016e-19
8.24161e-20
1.98962e-20
8.01858e-10
1.18646e-09
9.33328e-10
5.00006e-10
2.27679e-10
9.73663e-11
3.65218e-11
1.33556e-11
4.48127e-12
1.41628e-12
4.16978e-13
1.12571e-13
2.90586e-14
7.17072e-15
1.58906e-15
3.09605e-16
5.29776e-17
8.79624e-18
1.62568e-18
4.00211e-19
1.069e-19
2.33217e-20
4.33026e-21
9.31399e-07
9.31526e-07
9.31526e-07
9.31974e-07
6.2742e-05
6.27948e-05
6.28038e-05
5.18469e-05
1.76206e-05
3.45744e-05
2.43703e-05
6.44558e-06
3.26056e-06
4.03107e-06
3.51229e-06
2.72366e-06
7.72649e-07
7.70935e-07
7.72901e-07
0.133307
0.0194815
0.00392338
0.0448755
0.0958904
0.180047
0.172656
0.14337
0.125921
0.859388
0.83306
0.750137
0.787509
0.956732
0.92291
0.861191
0.794633
0.312501
0.18003
0.0622122
-1.01229e-19
0.0585485
-3.87364e-19
-5.59518e-09
-5.33348e-09
0.0755889
3.563e-11
-1.60925e-10
-1.52108e-10
0.00046892
4.25884e-05
4.68591e-11
4.39999e-06
1.69244e-07
3.59732e-06
1.03125e-06
6.59192e-06
1.66611e-07
5.78511e-07
1.14874e-06
1.24885e-06
2.50506e-07
4.06867e-07
1.22521e-07
3.87437e-09
1.00591e-07
3.95359e-08
3.22558e-09
4.64193e-09
5.86136e-09
2.266e-09
3.2214e-09
3.71134e-09
1.6987e-09
2.25991e-09
2.54054e-09
2.94813e-09
1.39826e-09
1.73548e-09
2.2124e-09
2.72652e-09
1.01123e-09
1.31507e-09
1.63893e-09
2.00408e-09
6.81527e-10
8.19176e-10
1.00719e-09
1.17382e-09
3.54042e-10
4.15709e-10
4.9215e-10
5.62823e-10
1.61232e-10
1.83836e-10
2.09868e-10
2.24219e-10
6.17071e-11
6.89374e-11
7.70767e-11
8.58175e-11
2.34872e-11
2.49603e-11
2.7499e-11
2.77404e-11
8.12022e-12
8.28448e-12
8.51379e-12
9.03897e-12
2.57531e-12
2.56432e-12
2.65521e-12
2.59477e-12
8.29002e-13
7.72558e-13
7.36807e-13
7.45784e-13
2.39085e-13
2.13899e-13
2.07226e-13
1.95116e-13
7.08883e-14
6.07152e-14
5.29209e-14
5.24324e-14
1.72936e-14
1.4545e-14
1.33595e-14
1.3554e-14
4.41922e-15
3.4525e-15
3.08651e-15
4.18975e-15
1.02227e-15
8.11034e-16
8.2248e-16
1.31557e-15
2.24955e-16
1.83842e-16
2.24216e-16
4.96431e-16
4.6132e-17
4.00245e-17
6.37371e-17
1.67075e-16
9.40394e-18
9.0477e-18
2.0464e-17
7.10121e-17
1.75851e-18
1.96938e-18
6.1587e-18
2.66359e-17
3.2255e-19
4.41788e-19
1.87892e-18
9.52815e-18
5.83203e-20
9.73808e-20
5.50876e-19
3.25954e-18
1.00222e-20
1.91097e-20
1.42712e-19
1.00723e-18
1.61945e-21
2.35494e-21
2.37032e-20
2.42084e-19
0.0787236
0.340269
0.420337
0.346014
0.172081
0.171532
0.494629
0.682214
0.630381
0.13903
0.0935568
0.0929822
0.444427
0.700387
0.886645
0.890251
0.879123
0.878806
0.878482
3.6167e-05
3.96528e-05
0.026028
0.234808
0.338002
0.198508
0.191607
0.441967
0.588906
0.508805
0.393972
0.51547
0.605267
0.792925
0.890251
0.890251
0.80503
0.646861
0.862517
1.16089e-06
1.17852e-06
1.16045e-06
0.101555
0.366262
0.354927
0.252975
0.233716
0.278019
0.757539
0.889511
0.890229
0.848859
0.87775
0.890228
0.861587
0.407081
0.059108
0.519058
0.0382589
0.0387069
0.013848
0.139281
0.364848
0.453644
0.367546
0.256373
0.27304
0.82348
0.890255
0.890283
0.870652
0.792713
0.689474
0.447337
0.0591018
1.62876e-05
0.0297795
0.204918
0.193056
0.075232
0.0768182
0.122185
0.452095
0.458251
0.413472
0.532557
0.839125
0.890258
0.835409
0.518822
0.208684
0.0617479
0.0128495
9.46511e-05
1.66765e-05
1.10298e-05
0.154449
0.14179
0.142367
0.365529
0.48787
0.421639
0.304102
0.357862
0.478351
0.495422
0.394233
0.151785
0.0107737
-7.07541e-14
-7.30459e-08
7.81522e-05
0.000126565
3.98356e-05
1.08178e-05
0.172859
0.611307
0.686345
0.68621
0.521813
0.105193
6.83533e-05
0.0879648
0.0844797
0.0170131
0.00106761
0.000460136
0.000453781
0.00042125
0.000187752
0.000190712
0.000103841
2.84377e-05
8.72413e-06
0.80378
0.803332
0.667593
0.196954
2.57057e-05
2.51163e-05
2.19079e-05
-7.90909e-09
-1.58042e-06
5.11023e-08
0.000535324
0.000542178
0.000381427
0.000160371
3.62149e-05
4.44355e-05
4.08607e-06
2.981e-06
2.90703e-06
0.605468
0.1756
3.39157e-05
3.43219e-05
4.0283e-05
2.54377e-05
1.17611e-05
3.05641e-05
0.000394069
0.00062559
0.000595904
6.85426e-05
3.42527e-05
9.33051e-09
9.52214e-09
8.83843e-06
4.05454e-05
4.92157e-05
8.04933e-06
-4.28816e-11
1.23979e-05
2.93283e-05
3.86667e-05
2.78934e-05
1.31895e-05
1.17052e-05
0.00013594
0.000444161
0.000386619
4.26961e-05
9.0747e-09
9.08025e-09
9.14711e-09
9.33339e-09
1.53281e-05
0.000123361
0.000123065
0.000123206
-1.28818e-09
1.89704e-05
4.49978e-05
1.43179e-05
4.10225e-06
8.37609e-07
2.25654e-05
8.70632e-05
6.4818e-05
8.76923e-06
9.02741e-09
9.03221e-09
9.02741e-09
9.18088e-09
9.33397e-09
2.64689e-06
6.70684e-05
0.000123353
4.85334e-05
1.858e-05
4.5668e-05
3.68525e-05
1.24668e-06
8.6414e-07
8.33111e-07
4.3442e-06
4.31371e-06
2.93824e-05
4.43242e-05
0.000151899
0.000137069
1.24498e-05
9.33397e-09
1.77354e-08
1.37867e-07
5.09879e-06
2.21441e-05
1.2154e-07
4.34459e-05
4.62697e-05
2.15317e-06
8.50133e-07
9.72896e-07
2.12527e-06
4.36581e-06
7.79039e-05
0.000192771
0.000222845
0.000227356
0.000227355
0.000223695
4.31981e-05
1.80967e-08
2.26693e-07
4.53488e-06
1.2154e-07
1.20615e-07
1.18569e-05
9.31825e-06
3.14175e-07
8.4016e-07
8.47122e-07
3.21402e-05
0.000151918
0.000201653
0.000201671
0.000185214
0.000155249
0.000138239
0.00013096
5.4235e-05
1.84603e-08
2.49267e-07
6.01327e-06
1.46878e-06
5.8613e-08
3.86365e-09
3.89557e-09
1.99613e-07
7.67321e-07
8.53487e-07
3.82967e-05
0.000123121
0.000132844
4.64885e-05
1.96153e-05
3.4868e-06
9.19212e-07
9.12196e-07
7.43899e-06
7.78264e-07
1.25208e-07
3.99741e-06
9.66807e-07
1.38886e-08
3.90046e-09
6.67671e-09
3.66307e-08
2.29488e-07
2.066e-06
1.01434e-05
5.83597e-06
4.61678e-06
2.47298e-07
2.15595e-06
2.66151e-06
5.17627e-07
2.90967e-08
1.72444e-08
3.24473e-07
5.09219e-08
4.86521e-08
7.23535e-08
6.01392e-09
4.86644e-09
9.88738e-09
1.729e-08
6.98503e-08
5.26637e-07
2.19642e-08
2.20139e-08
2.19693e-08
2.45237e-07
4.65491e-06
4.89333e-06
1.18017e-06
3.70882e-08
1.71032e-08
1.62014e-08
1.38764e-08
5.7357e-09
5.87152e-09
1.18553e-08
5.04829e-09
1.3763e-08
3.34098e-08
4.68392e-08
2.99833e-08
2.96374e-08
2.68626e-08
2.20172e-08
5.81861e-07
2.90685e-06
3.27557e-06
6.29245e-07
4.0614e-08
1.73619e-08
7.97369e-09
5.24377e-09
3.9578e-09
2.29259e-09
2.30554e-09
4.50598e-09
1.59557e-08
4.02777e-08
5.43089e-08
4.23145e-08
3.38459e-08
2.16013e-08
2.26347e-08
2.86692e-07
4.17854e-08
5.48237e-08
5.43333e-08
2.65016e-08
1.06012e-08
5.34625e-09
2.81899e-09
2.10523e-09
2.14421e-09
3.63013e-06
4.1331e-09
1.08303e-08
2.67033e-08
4.05171e-08
2.92311e-08
2.05592e-08
1.30705e-08
1.18432e-08
1.57433e-08
1.10731e-08
1.21078e-08
1.10356e-08
9.97929e-09
5.13444e-09
2.84882e-09
1.76124e-09
1.27085e-09
1.26429e-09
9.9406e-06
2.61963e-09
5.36589e-09
9.84751e-09
1.30871e-08
1.12749e-08
8.39729e-09
6.44724e-09
5.55199e-09
5.99329e-09
6.78338e-09
6.57082e-09
5.37093e-09
4.32867e-09
2.53224e-09
1.67828e-09
1.22206e-09
1.21809e-09
1.00578e-05
1.02136e-05
1.37283e-09
2.14627e-09
3.16876e-09
3.60543e-09
4.09626e-09
3.42514e-09
2.72746e-09
2.41301e-09
2.73903e-09
2.89956e-09
2.80792e-09
2.36633e-09
1.82646e-09
1.4269e-09
1.18815e-09
1.27912e-09
5.50003e-07
1.2298e-05
4.18016e-06
6.28333e-10
8.11145e-10
1.03429e-09
1.17515e-09
1.30036e-09
1.1162e-09
1.03151e-09
8.92653e-10
9.92257e-10
9.70267e-10
9.94787e-10
1.03613e-09
1.04387e-09
1.13543e-09
1.19024e-09
1.48228e-09
8.80205e-06
1.22977e-05
1.43375e-06
2.55143e-10
2.92664e-10
3.38985e-10
3.5678e-10
3.8991e-10
3.87753e-10
3.86827e-10
3.35206e-10
3.4934e-10
4.0661e-10
5.33294e-10
7.24042e-10
9.25167e-10
1.18035e-09
1.86458e-09
1.0208e-09
6.66457e-06
1.06838e-05
4.36257e-07
8.72554e-11
9.7283e-11
1.03348e-10
1.09467e-10
1.19359e-10
1.25139e-10
1.34794e-10
1.41943e-10
1.85062e-10
2.95514e-10
5.08026e-10
7.79311e-10
1.01078e-09
1.32797e-09
4.84683e-09
7.68627e-09
3.83332e-07
8.3271e-07
1.1144e-07
2.93768e-11
3.02243e-11
3.11025e-11
3.28361e-11
3.66886e-11
4.24495e-11
5.56811e-11
8.54755e-11
1.6153e-10
3.25369e-10
6.03305e-10
9.35591e-10
1.15027e-09
1.52355e-09
8.53003e-09
1.45365e-08
1.46819e-08
2.55205e-08
3.44063e-08
9.03465e-12
8.78005e-12
8.87769e-12
9.75764e-12
1.24504e-11
1.9119e-11
3.63005e-11
7.98111e-11
1.83036e-10
3.95591e-10
7.40489e-10
1.12352e-09
1.33586e-09
2.37317e-09
1.66344e-08
1.82517e-08
2.26478e-08
2.77064e-08
3.92581e-08
2.61813e-12
2.44554e-12
2.5673e-12
3.39881e-12
6.10002e-12
1.37225e-11
3.46223e-11
8.93221e-11
2.17311e-10
4.75653e-10
8.84526e-10
1.34084e-09
1.81122e-09
7.60156e-09
7.85116e-08
1.05964e-07
4.64178e-08
8.00291e-08
1.36595e-07
7.26043e-13
6.96925e-13
9.01445e-13
1.76246e-12
4.5483e-12
1.29078e-11
3.68984e-11
1.00744e-10
2.49693e-10
5.46732e-10
1.01357e-09
1.56528e-09
2.41271e-09
1.05472e-08
9.66261e-08
3.02058e-07
2.93977e-07
2.92418e-07
2.95565e-07
1.98576e-13
2.31244e-13
4.53779e-13
1.28608e-12
4.04399e-12
1.26827e-11
3.8252e-11
1.07612e-10
2.69877e-10
5.91212e-10
1.09261e-09
1.68851e-09
2.50528e-09
8.50696e-09
6.27232e-08
3.07337e-07
3.07047e-07
3.07206e-07
2.57617e-07
5.65684e-14
1.01243e-13
2.98047e-13
1.03901e-12
3.61408e-12
1.20044e-11
3.73651e-11
1.06503e-10
2.68787e-10
5.88349e-10
1.08743e-09
1.65884e-09
2.21235e-09
4.68575e-09
1.99954e-08
1.34317e-07
3.0739e-07
3.07182e-07
6.94064e-08
1.96581e-14
5.52215e-14
2.09418e-13
8.1269e-13
3.0098e-12
1.04341e-11
3.32998e-11
9.59832e-11
2.44203e-10
5.34408e-10
9.84714e-10
1.48178e-09
1.79056e-09
2.41728e-09
6.58519e-09
2.79356e-08
2.49185e-07
2.52073e-07
3.03426e-08
7.52014e-15
3.22728e-14
1.38519e-13
5.7682e-13
2.28458e-12
8.13153e-12
2.64466e-11
7.67695e-11
1.95459e-10
4.25344e-10
7.91491e-10
1.19114e-09
1.37901e-09
1.33922e-09
2.69506e-09
7.25505e-09
3.82643e-08
4.72476e-08
1.62191e-08
3.53365e-15
1.7501e-14
8.15858e-14
3.58308e-13
1.53012e-12
5.59817e-12
1.81652e-11
5.34198e-11
1.36934e-10
3.06974e-10
5.65542e-10
8.59109e-10
9.94411e-10
8.31889e-10
8.96112e-10
2.51045e-09
3.92652e-09
1.14482e-08
9.8441e-09
1.46028e-15
8.61222e-15
4.25383e-14
2.09397e-13
8.70438e-13
3.23834e-12
1.10943e-11
3.22228e-11
8.36426e-11
1.8284e-10
3.37978e-10
5.09337e-10
6.0548e-10
4.78694e-10
3.85356e-10
6.09441e-10
1.55658e-09
2.81112e-09
6.26426e-09
6.55115e-16
4.06176e-15
2.22302e-14
1.08774e-13
4.67174e-13
1.77215e-12
5.93187e-12
1.69298e-11
4.3251e-11
9.35273e-11
1.71619e-10
2.66457e-10
3.23393e-10
2.63793e-10
1.91052e-10
2.16354e-10
6.27035e-10
1.39368e-09
5.1162e-09
2.69145e-16
1.81438e-15
1.03398e-14
5.32372e-14
2.3079e-13
8.64509e-13
2.8492e-12
8.13503e-12
2.00621e-11
4.32511e-11
8.02776e-11
1.24802e-10
1.56973e-10
1.2637e-10
9.63107e-11
9.67827e-11
2.59509e-10
9.76134e-10
3.53409e-09
1.09018e-16
7.76545e-16
4.564e-15
2.34918e-14
1.00768e-13
3.71694e-13
1.19541e-12
3.42914e-12
8.29116e-12
1.73732e-11
3.26534e-11
5.03706e-11
6.46537e-11
5.18399e-11
3.77053e-11
4.26901e-11
1.53129e-10
5.55531e-10
2.3056e-09
4.20332e-17
3.23622e-16
1.95032e-15
9.68541e-15
4.09161e-14
1.50724e-13
4.67229e-13
1.29657e-12
3.10823e-12
6.49916e-12
1.2148e-11
1.87415e-11
2.45086e-11
1.88415e-11
1.33895e-11
1.74934e-11
6.05032e-11
3.03962e-10
9.97672e-10
1.58283e-17
1.22678e-16
7.41385e-16
3.56535e-15
1.42899e-14
4.80432e-14
1.46512e-13
3.76394e-13
8.668e-13
1.80242e-12
3.26271e-12
4.91344e-12
6.58113e-12
4.85847e-12
3.22413e-12
5.21111e-12
2.48068e-11
9.82722e-11
4.14766e-10
5.41314e-18
4.32443e-17
2.5936e-16
1.19829e-15
4.50372e-15
1.43334e-14
3.96315e-14
9.92598e-14
2.21444e-13
4.40939e-13
8.15974e-13
1.23358e-12
1.61608e-12
1.09356e-12
6.6689e-13
1.29495e-12
5.78472e-12
3.43077e-11
1.64876e-10
1.73035e-18
1.36166e-17
7.66127e-17
3.24896e-16
1.13106e-15
3.41355e-15
9.28305e-15
2.18094e-14
4.84152e-14
9.89952e-14
1.81979e-13
2.8283e-13
3.75144e-13
2.33617e-13
1.30764e-13
2.96681e-13
1.48317e-12
1.0283e-11
3.90765e-11
)
;

boundaryField
{
    leftWall
    {
        type            zeroGradient;
    }
    rightWall
    {
        type            zeroGradient;
    }
    lowerWall
    {
        type            zeroGradient;
    }
    atmosphere
    {
        type            inletOutlet;
        inletValue      uniform 0;
        value           nonuniform List<scalar> 
46
(
0
0
0
0
0
0
0
0
0
0
0
0
0
0
0
0
0
0
0
0
0
0
4.33026e-21
1.61945e-21
2.35494e-21
2.37032e-20
2.42084e-19
1.73035e-18
1.36166e-17
7.66127e-17
3.24896e-16
1.13106e-15
3.41355e-15
9.28305e-15
2.18094e-14
4.84152e-14
9.89952e-14
1.81979e-13
2.8283e-13
3.75144e-13
2.33617e-13
1.30764e-13
2.96681e-13
1.48317e-12
1.0283e-11
3.90765e-11
)
;
    }
    defaultFaces
    {
        type            empty;
    }
}


// ************************************************************************* //
