/*--------------------------------*- C++ -*----------------------------------*\
| =========                 |                                                 |
| \\      /  F ield         | OpenFOAM: The Open Source CFD Toolbox           |
|  \\    /   O peration     | Version:  2312                                  |
|   \\  /    A nd           | Website:  www.openfoam.com                      |
|    \\/     M anipulation  |                                                 |
\*---------------------------------------------------------------------------*/
FoamFile
{
    version     2.0;
    format      ascii;
    arch        "LSB;label=32;scalar=64";
    class       volScalarField;
    location    "1.4";
    object      p;
}
// * * * * * * * * * * * * * * * * * * * * * * * * * * * * * * * * * * * * * //

dimensions      [1 -1 -2 0 0 0 0];

internalField   nonuniform List<scalar> 
2268
(
5307.24
5244.99
5179.19
5124.87
5108.58
5139.33
5214.13
5322.41
5455.99
5606.32
5764.12
5918.57
6057.03
6165.49
6230.39
6240.64
6189.23
6073.75
5897.81
5679.29
5456.07
5275.73
5183.32
4517.37
4448.45
4379.72
4320.47
4302.09
4332.13
4407.99
4517.21
4651.99
4803.86
4963.78
5121.13
5263.29
5375.91
5444.73
5457.77
5407.29
5289.92
5108.2
4879.61
4644.36
4453.88
4355.52
3741.81
3662.74
3579.01
3509.27
3485.46
3513.72
3592.18
3703.61
3841
3996.05
4160.23
4323.29
4472.69
4593.37
4669.63
4687.67
4638.22
4516.9
4322.79
4073.11
3813.17
3602.44
3492.56
2980.65
2874.95
2769.37
2682.62
2655.91
2682.78
2765.46
2880.67
3022.35
3182.34
3353
3524.61
3684.95
3818.03
3905.99
3932.23
3884.75
3757.7
3544.53
3261.72
2963.48
2720.39
2594.03
2235.21
2103.74
1962.74
1858.95
1811.93
1838.05
1924.25
2046.22
2194.23
2361.2
2540.76
2723.78
2898.75
3048.82
3153.25
3191.69
3147.41
3013.81
2774.41
2443.34
2088.03
1831.21
1714.84
1534.83
1387
1236.9
1124.87
1106.78
1131.37
1190.93
1283.84
1402.83
1549.14
1724.59
1919.89
2112.74
2283.6
2408.74
2463.06
2422.32
2283.43
2008.5
1661.92
1403.65
1297.71
1261.17
1038.91
958.572
887.591
849.574
841.082
852.729
873.408
906.393
953.478
1018.63
1106.72
1225.7
1375.68
1536.65
1674.48
1746.88
1723.47
1588.52
1372.48
1204.02
1155.72
1144.35
1140.25
873.807
843.207
806.219
783.207
778.105
790.952
809.634
825.55
842.174
857.752
870.834
891.455
939.581
1020.63
1112.97
1172.25
1182.01
1116.26
1074.73
1076.19
1082.39
1071.32
1064.31
2435.98
2248.59
2256.01
2393.23
2388.87
2312.8
2253.89
2320.5
2345.95
2378.36
2427.07
2482.93
2537.49
2555.28
2501.57
2406.25
2303.98
2171.6
2120.67
2106.71
1899.83
1839.08
1890.26
1893.64
1843.95
1817.68
1781.26
1720.05
1750.23
1769.81
1791
1828.29
1830.94
1764.37
1659.52
1544.9
1417.14
1374.21
1840.83
1665.29
1627.29
1596.65
1652.96
1638.28
1580.12
1454.53
1394.81
1368.2
1343.03
1291.54
1226.02
1168.65
1084.3
982.271
894.864
819.774
777.784
1594.96
1433.79
1376.82
1353.96
1426.23
1400.37
1340.79
1221.15
1140.11
1084.81
1035.64
927.123
797.665
721.888
665.656
619.371
598.545
585.964
567.77
1344.23
1151.44
1105
1184.65
1259.08
1207.61
1098.78
984.941
919.401
880.89
797.744
682.659
581.615
539.352
533.041
533.923
535.847
528.767
516.569
1093.73
893.207
863.539
1042.46
1138.09
1077.77
938.817
850.993
804.508
754.461
680.782
595.785
513.234
480.616
475.889
472.79
469.856
465.255
465.335
885.307
726.519
713.753
874.131
996.627
959.827
840.251
773.143
743.982
691.934
627.085
543.689
459.935
417.503
406.395
403.091
401.119
402.49
415.799
759.145
634.381
645.795
725.218
841.377
840.727
772.515
721.434
684.02
633.565
564.721
475.346
398.162
360.314
347.722
344.174
343.571
349.781
367.77
781.854
763.934
733.426
715.004
710.426
712.24
717.887
729.65
747.371
764.109
775.908
782.26
791.08
809.23
840.272
876.582
908.965
934.61
958.38
971.98
968.719
940.563
853.189
683.03
666
637.435
628.245
628.084
627.269
624.781
624.331
629.21
641.337
649.271
650.773
659.342
677.792
715.805
760.056
797.885
826.835
842.196
843.325
831.113
805.642
766.27
586.061
569.372
540.156
542.769
555.187
562.837
555.704
537.83
525.32
526.016
534.539
537.568
540.084
555.209
596.394
645.301
683.009
704.329
712.646
709.873
696.618
672.731
635.317
504.495
490.807
476.361
488.644
497.158
494.673
479.526
456.385
440.461
431.307
430.083
435.323
449.015
460.543
490.296
531.518
562.887
576.747
579.448
574.384
562.183
541.979
514.792
435.062
428.039
434.327
445.497
443.938
426.006
396.606
361.738
339.345
336.812
349.392
362.143
378.275
390.058
408.719
435.274
453.942
460.118
458.696
452.645
442.378
426.206
403.257
367.341
365.37
383.213
381.221
374.83
355.817
325.067
290.832
280.226
289.321
305.614
314.525
320.306
329.757
338.31
351.924
358.957
357.745
352.954
346.244
336.745
321.944
300.895
294.8
295.113
309.091
302.359
301.743
292.99
276.828
260.172
261.907
269.229
279.257
282.482
277.941
279.686
277.519
277.991
275.744
269.351
262.902
256.87
248.582
234.266
212.359
217.66
219.635
228.51
227.798
232.254
233.253
232.202
232.509
247.412
256.878
261.868
260.866
253.538
244.108
227.172
215.613
207.691
198.679
191.224
186.038
180.166
168.205
144.985
135.196
139.392
148.138
156.193
164.979
172.499
181.844
193.03
211.038
230.17
239.25
237.141
226.715
204.076
180.21
165.644
154.808
144.996
138.85
136.827
136.184
130.092
104.918
50.2916
54.6003
65.9137
81.4968
95.775
110.161
126.161
143.914
163.101
186.058
197.803
197.201
183.051
157.525
135.132
116.979
100.84
89.2726
85.5072
87.9614
93.9563
100.351
87.8413
4.45379
4.77854
9.12752
19.8612
32.3245
48.3052
67.2134
88.1812
110.135
132.768
147.489
149.324
136.033
110.882
81.9973
60.2139
48.3555
43.57
43.5998
46.4063
50.9595
57.71
42.9337
-1.03923
-0.9255
-1.02552
-0.812746
2.24297
8.81227
18.6176
32.7718
52.1872
73.1864
90.8991
98.3443
89.2318
71.1436
50.4901
32.6452
22.4697
18.2211
16.2317
13.4843
12.0518
11.7342
7.3863
-1.23155
-1.18245
-1.295
-1.47256
-1.65802
-1.81413
-1.59119
2.70199
11.5636
21.1625
32.7126
41.7566
42.6477
33.4923
19.1791
7.35763
2.00729
0.530173
-0.987267
-2.77809
-3.12564
-3.35586
-3.62965
-1.47842
-1.4667
-1.58845
-1.79034
-1.94034
-2.02527
-2.09523
-2.1978
-2.268
-1.78009
2.5091
6.95193
8.59072
10.4605
9.45653
-0.46294
-2.36102
-2.84185
-2.91504
-3.03785
-3.2331
-3.22812
-3.55968
-1.77496
-1.81291
-1.9397
-2.0848
-2.16641
-2.23295
-2.32204
-2.39435
-2.43982
-2.50713
-2.5629
-2.62112
-2.71428
-2.86045
-3.07727
-3.20062
-2.95926
-2.94331
-2.9778
-3.06015
-3.23585
-3.36541
-3.29659
-2.07178
-2.13647
-2.24697
-2.32251
-2.36817
-2.41688
-2.47264
-2.52289
-2.57035
-2.64084
-2.69112
-2.74852
-2.83249
-2.94471
-3.08533
-3.20827
-3.18927
-3.14612
-3.1663
-3.21134
-3.21609
-3.22909
-3.19144
-2.29547
-2.35828
-2.43488
-2.48715
-2.53249
-2.57826
-2.63079
-2.67007
-2.70752
-2.75042
-2.7959
-2.85283
-2.9277
-3.02295
-3.12964
-3.19129
-3.18579
-3.17775
-3.18788
-3.19906
-3.20972
-3.19558
-3.15924
-2.44743
-2.49467
-2.55079
-2.60606
-2.65864
-2.7087
-2.75521
-2.79352
-2.82857
-2.86685
-2.91081
-2.96179
-3.01953
-3.08538
-3.15105
-3.19522
-3.21027
-3.21524
-3.22049
-3.22201
-3.21724
-3.19871
-3.16681
-2.56617
-2.60217
-2.64888
-2.70353
-2.75807
-2.80974
-2.85713
-2.89964
-2.93808
-2.97493
-3.01438
-3.05829
-3.10527
-3.15257
-3.19455
-3.2246
-3.24157
-3.25076
-3.25501
-3.25319
-3.24467
-3.22732
-3.20184
-2.67339
-2.7045
-2.74699
-2.80052
-2.85651
-2.91073
-2.96046
-3.00508
-3.04548
-3.08298
-3.11902
-3.15478
-3.19042
-3.2245
-3.25408
-3.27656
-3.29151
-3.30027
-3.30356
-3.30104
-3.29182
-3.27702
-3.25686
-2.7886
-2.81773
-2.85859
-2.91131
-2.96768
-3.02299
-3.07395
-3.11893
-3.15795
-3.19219
-3.22314
-3.25187
-3.27882
-3.30359
-3.32506
-3.34216
-3.35448
-3.36206
-3.36482
-3.36232
-3.35433
-3.34224
-3.32609
-2.92033
-2.94758
-2.98672
-3.03751
-3.09234
-3.14615
-3.19535
-3.23804
-3.2738
-3.30351
-3.32874
-3.35099
-3.37119
-3.38948
-3.40548
-3.41863
-3.42848
-3.43472
-3.43706
-3.4351
-3.4288
-3.41863
-3.40552
-3.06756
-3.09233
-3.1288
-3.17626
-3.2277
-3.27801
-3.32344
-3.36184
-3.39269
-3.41694
-3.43642
-3.45299
-3.46783
-3.48135
-3.49337
-3.5035
-3.51129
-3.51635
-3.5183
-3.51677
-3.5116
-3.50332
-3.49264
-3.22485
-3.24673
-3.2797
-3.32266
-3.36913
-3.41432
-3.45455
-3.48761
-3.51297
-3.53172
-3.54598
-3.55781
-3.56847
-3.57837
-3.58739
-3.59515
-3.60126
-3.6053
-3.60689
-3.60568
-3.60153
-3.59483
-3.58587
-3.38604
-3.4052
-3.43421
-3.47191
-3.51245
-3.55171
-3.58614
-3.6136
-3.63357
-3.64731
-3.65714
-3.66519
-3.67263
-3.67977
-3.68645
-3.69235
-3.69708
-3.70025
-3.7015
-3.70051
-3.69715
-3.69161
-3.68413
-3.54623
-3.56332
-3.58825
-3.62029
-3.65452
-3.68775
-3.71652
-3.73872
-3.75389
-3.76338
-3.76965
-3.77479
-3.77978
-3.78479
-3.78966
-3.79407
-3.79768
-3.80012
-3.80107
-3.80023
-3.79746
-3.79289
-3.78661
-3.70272
-3.71763
-3.73795
-3.76495
-3.79375
-3.82145
-3.84515
-3.86271
-3.87376
-3.8798
-3.88335
-3.88631
-3.88944
-3.89283
-3.89628
-3.89951
-3.90221
-3.90405
-3.90472
-3.90397
-3.90167
-3.89787
-3.89258
-3.8549
-3.86692
-3.88342
-3.9061
-3.93004
-3.95287
-3.97212
-3.98565
-3.99324
-3.99655
-3.99808
-3.99946
-4.00123
-4.00338
-4.00573
-4.00804
-4.01
-4.01132
-4.01175
-4.01105
-4.0091
-4.00592
-4.00147
-4.00204
-4.01153
-4.02504
-4.04391
-4.06371
-4.08242
-4.09772
-4.10772
-4.11242
-4.11365
-4.11376
-4.11402
-4.11479
-4.11602
-4.11753
-4.11911
-4.12047
-4.12137
-4.12159
-4.12091
-4.11924
-4.11656
-4.1128
-4.14426
-4.15183
-4.16294
-4.17869
-4.19498
-4.21018
-4.22207
-4.22903
-4.23139
-4.23111
-4.23028
-4.22979
-4.22984
-4.23039
-4.23128
-4.23228
-4.23317
-4.23372
-4.23375
-4.23309
-4.23163
-4.22935
-4.22617
-4.28209
-4.28817
-4.29742
-4.31063
-4.32402
-4.33629
-4.34522
-4.3497
-4.35028
-4.349
-4.34757
-4.34658
-4.34615
-4.34622
-4.34663
-4.34719
-4.3477
-4.34798
-4.34786
-4.3472
-4.34591
-4.34396
-4.34126
-4.41632
-4.42103
-4.42891
-4.44
-4.45103
-4.46071
-4.46724
-4.46983
-4.46928
-4.46736
-4.46553
-4.46425
-4.46352
-4.46326
-4.46333
-4.46356
-4.46377
-4.46383
-4.46358
-4.46292
-4.46178
-4.4601
-4.4578
-4.54761
-4.55069
-4.55773
-4.56697
-4.57633
-4.58371
-4.58821
-4.58947
-4.58823
-4.5861
-4.58403
-4.58263
-4.58178
-4.58133
-4.58116
-4.58114
-4.58113
-4.581
-4.58066
-4.58
-4.57897
-4.57751
-4.57555
-4.67673
-4.67818
-4.6842
-4.69197
-4.69963
-4.70556
-4.70832
-4.7085
-4.70708
-4.70511
-4.70315
-4.70168
-4.7008
-4.70027
-4.69995
-4.69975
-4.69956
-4.6993
-4.69887
-4.69822
-4.69728
-4.69601
-4.69434
-4.80377
-4.80445
-4.80868
-4.81546
-4.82144
-4.82601
-4.82758
-4.82735
-4.82612
-4.82448
-4.82284
-4.82146
-4.82054
-4.81998
-4.81957
-4.81924
-4.81892
-4.81854
-4.81805
-4.8174
-4.81654
-4.81544
-4.81401
-4.92893
-4.9301
-4.93243
-4.93779
-4.94222
-4.94537
-4.94653
-4.94637
-4.94551
-4.94432
-4.94307
-4.94194
-4.94103
-4.94039
-4.93992
-4.93949
-4.93906
-4.93859
-4.93805
-4.93739
-4.9366
-4.93564
-4.93443
-5.05277
-5.05439
-5.05601
-5.05917
-5.06231
-5.06452
-5.06563
-5.06581
-5.06541
-5.06471
-5.06387
-5.06302
-5.06221
-5.06151
-5.06093
-5.0604
-5.05987
-5.05932
-5.05873
-5.05808
-5.05735
-5.05651
-5.0555
-5.17569
-5.17678
-5.1778
-5.17975
-5.18211
-5.18402
-5.18526
-5.18585
-5.18595
-5.18571
-5.18525
-5.18465
-5.18397
-5.18326
-5.18256
-5.1819
-5.18127
-5.18064
-5.18
-5.17935
-5.17867
-5.17794
-5.17711
-5.29849
-5.29862
-5.29898
-5.30055
-5.30253
-5.30432
-5.30573
-5.30668
-5.30721
-5.30736
-5.30721
-5.30682
-5.30624
-5.30553
-5.30475
-5.30395
-5.30316
-5.30244
-5.30175
-5.3011
-5.30047
-5.29986
-5.2992
-5.42148
-5.42107
-5.42114
-5.42237
-5.42397
-5.42563
-5.42711
-5.42831
-5.42915
-5.42961
-5.4297
-5.42946
-5.42895
-5.42824
-5.4274
-5.42649
-5.42557
-5.42471
-5.42393
-5.42325
-5.42266
-5.42214
-5.42164
-5.54485
-5.54426
-5.54433
-5.54512
-5.54636
-5.54784
-5.54934
-5.55067
-5.55169
-5.55233
-5.55256
-5.55241
-5.55194
-5.55122
-5.55032
-5.54934
-5.54834
-5.54738
-5.54652
-5.54579
-5.54523
-5.54481
-5.5445
-5.6687
-5.66826
-5.66825
-5.66871
-5.66972
-5.67108
-5.67256
-5.6739
-5.67494
-5.67556
-5.67575
-5.67552
-5.67496
-5.67415
-5.67318
-5.67214
-5.6711
-5.67013
-5.66928
-5.66856
-5.66801
-5.66761
-5.66728
689.035
679.348
709.855
731.888
712.102
681.045
660.379
641.75
589.656
560.476
540.139
524.968
487.148
468.785
452.813
436.141
379.554
362.442
345.687
331.907
279.53
264.998
251.03
237.748
190.481
175.757
162.075
148.814
120.424
103.683
88.1437
74.244
71.9843
48.7734
32.0803
23.159
48.3625
10.6955
-0.272856
-1.23028
2.84159
-1.57157
-1.84401
-1.60169
-2.8379
-2.94711
-2.53949
-2.23854
-3.66425
-3.43357
-3.13738
-2.84064
-3.53698
-3.36719
-3.15161
-2.94283
-3.21948
-3.1375
-3.03986
-2.93431
-3.12082
-3.06591
-3.00757
-2.94209
-3.10667
-3.06737
-3.02541
-2.97821
-3.12835
-3.09967
-3.06877
-3.03366
-3.17342
-3.15215
-3.12903
-3.1025
-3.23535
-3.21927
-3.20158
-3.18115
-3.30937
-3.29691
-3.28311
-3.26714
-3.39224
-3.38241
-3.37148
-3.35883
-3.48194
-3.47407
-3.46531
-3.45521
-3.57716
-3.5708
-3.56372
-3.55558
-3.67697
-3.67179
-3.66601
-3.65942
-3.78065
-3.77639
-3.77166
-3.76628
-3.88759
-3.88406
-3.88015
-3.87574
-3.99727
-3.99433
-3.99108
-3.98745
-4.10925
-4.10678
-4.10408
-4.10107
-4.22317
-4.22108
-4.21882
-4.21633
-4.33871
-4.33695
-4.33506
-4.33299
-4.45567
-4.4542
-4.45258
-4.45086
-4.57374
-4.5725
-4.57115
-4.56972
-4.69281
-4.69177
-4.69065
-4.68946
-4.81273
-4.81186
-4.81092
-4.80995
-4.93336
-4.93264
-4.93187
-4.93108
-5.05462
-5.05403
-5.0534
-5.05276
-5.1764
-5.17593
-5.17543
-5.17493
-5.29865
-5.29827
-5.29789
-5.29751
-5.42123
-5.42097
-5.42071
-5.42044
-5.54421
-5.54403
-5.54385
-5.54368
-5.66721
-5.66718
-5.66715
-5.66712
725.08
616.365
592.227
598.82
649.319
688.457
678.1
647.071
595.746
532.942
459.577
382.999
329.1
302.182
287.824
280.315
279.2
281.695
297.976
602.176
536.573
503.304
494.41
498.287
532.445
552.368
535.788
479.654
405.83
340.882
286.983
252.799
232.541
216.071
202.893
191.577
183.163
203.016
500.259
462.982
436.699
416.139
399.195
398.185
407.775
394.667
351.338
300.916
258.146
221.321
191.46
164.108
137.476
109.208
90.87
92.0695
103.543
408.481
377.964
355.922
330.408
302.698
268.473
247.405
237.908
219.233
208.448
187.334
156.116
120.266
87.2217
55.9199
24.4302
10.2421
16.958
20.5153
311.019
286.877
263.003
230.23
184.267
127.288
93.9729
90.8998
104.971
119.247
110.141
84.5711
53.732
25.3847
8.41267
1.07342
0.568719
1.08728
1.49339
218.07
196.119
165.866
122.945
71.1632
28.8251
10.2311
17.0432
36.2812
51.4649
48.3506
33.2193
14.4273
3.6772
-0.055895
-0.292138
-0.204667
-0.160756
-0.0506451
128.751
104.446
73.4446
38.9578
13.6586
1.26795
0.19453
1.43476
7.68528
18.6243
15.8218
7.36054
0.568366
-0.495877
-0.487087
-0.615287
-0.496527
-0.370059
-0.287917
56.3775
33.9592
17.9789
4.43262
-0.931802
-1.37016
-0.616692
-0.90609
-0.534793
4.62795
3.0999
-0.644188
-1.02846
-0.893031
-0.790662
-0.759902
-0.657846
-0.538657
-0.481553
17.6161
3.98329
-1.05649
-1.39413
-1.30912
-1.39705
-1.05962
-1.14189
-0.876245
-1.01214
-1.16141
-1.23654
-1.18969
-1.06886
-0.980907
-0.913034
-0.822642
-0.733071
-0.699244
-1.43058
-1.35307
-1.35376
-1.44977
-1.48608
-1.49925
-1.34029
-1.46445
-1.42082
-1.4284
-1.45293
-1.38498
-1.32104
-1.22875
-1.15361
-1.08626
-1.01087
-0.939721
-0.916012
-1.74319
-1.49192
-1.44202
-1.54307
-1.61444
-1.63921
-1.59684
-1.67288
-1.66841
-1.60599
-1.56615
-1.50602
-1.44968
-1.38381
-1.32214
-1.26591
-1.21088
-1.15734
-1.13664
-2.11158
-1.8882
-1.77702
-1.7787
-1.79786
-1.81057
-1.81481
-1.82662
-1.8009
-1.75183
-1.70243
-1.64304
-1.5885
-1.538
-1.48876
-1.44349
-1.40281
-1.36544
-1.346
-2.42783
-2.18681
-2.05991
-2.01199
-1.99195
-1.9842
-1.97978
-1.97309
-1.94563
-1.90137
-1.85234
-1.7963
-1.74149
-1.69587
-1.65492
-1.61771
-1.58514
-1.55804
-1.54222
-2.64519
-2.42511
-2.28848
-2.21491
-2.17146
-2.14607
-2.13024
-2.11831
-2.09076
-2.05017
-2.00325
-1.95308
-1.90322
-1.85802
-1.82044
-1.78845
-1.76132
-1.74058
-1.72836
-2.76111
-2.59197
-2.46871
-2.38809
-2.33378
-2.29831
-2.27562
-2.25743
-2.22826
-2.18943
-2.14584
-2.10079
-2.05714
-2.01689
-1.98286
-1.95491
-1.93205
-1.91538
-1.9058
-2.83226
-2.71147
-2.61168
-2.53676
-2.48105
-2.4411
-2.41272
-2.38838
-2.35804
-2.32129
-2.28205
-2.24251
-2.20481
-2.1705
-2.14104
-2.11678
-2.09732
-2.08356
-2.07587
-2.90001
-2.81156
-2.73298
-2.66832
-2.61632
-2.57551
-2.54335
-2.51519
-2.48601
-2.45227
-2.41742
-2.38335
-2.35097
-2.32138
-2.29574
-2.27458
-2.2578
-2.2462
-2.23986
-2.97535
-2.90761
-2.84487
-2.79015
-2.7435
-2.70442
-2.67165
-2.64217
-2.6138
-2.58361
-2.55332
-2.52354
-2.49543
-2.46971
-2.44729
-2.42878
-2.41418
-2.40425
-2.39882
-3.05811
-3.00471
-2.95369
-2.90736
-2.86611
-2.82998
-2.79837
-2.76955
-2.74258
-2.71542
-2.68864
-2.66252
-2.63794
-2.61548
-2.59587
-2.57968
-2.56695
-2.55837
-2.55364
-3.14679
-3.10396
-3.06193
-3.02255
-2.98638
-2.95364
-2.92416
-2.89707
-2.87186
-2.84719
-2.82325
-2.80017
-2.77857
-2.75892
-2.74178
-2.72765
-2.71653
-2.7091
-2.70502
-3.24015
-3.20541
-3.17051
-3.13699
-3.10543
-3.07618
-3.04927
-3.02432
-3.00102
-2.97859
-2.95707
-2.93658
-2.91754
-2.90032
-2.88533
-2.87302
-2.86324
-2.85699
-2.85364
-3.33739
-3.30896
-3.27984
-3.25131
-3.2239
-3.198
-3.17376
-3.15106
-3.12974
-3.10941
-3.09007
-3.07185
-3.05504
-3.03995
-3.02684
-3.01612
-3.00725
-3.00261
-2.99941
-3.43802
-3.41459
-3.39022
-3.36592
-3.34219
-3.31941
-3.29777
-3.27731
-3.25798
-3.23963
-3.22229
-3.20609
-3.19127
-3.17806
-3.16666
-3.15742
-3.14936
-3.14562
-3.14258
-3.54168
-3.52228
-3.50182
-3.48113
-3.46063
-3.44068
-3.4215
-3.4032
-3.38581
-3.36933
-3.35383
-3.33946
-3.32639
-3.31486
-3.30503
-3.29738
-3.28939
-3.28656
-3.28367
-3.64811
-3.63196
-3.61475
-3.59712
-3.57945
-3.56204
-3.54513
-3.52887
-3.51334
-3.49861
-3.4848
-3.47206
-3.46056
-3.45046
-3.44187
-3.4351
-3.42822
-3.42576
-3.42303
-3.75701
-3.74352
-3.72901
-3.71399
-3.69877
-3.68364
-3.6688
-3.65442
-3.64063
-3.62753
-3.61527
-3.604
-3.59388
-3.58502
-3.57744
-3.57121
-3.5657
-3.56329
-3.56081
-3.86811
-3.8568
-3.84455
-3.83175
-3.81867
-3.80554
-3.79257
-3.77992
-3.76773
-3.75614
-3.74529
-3.73534
-3.72644
-3.71868
-3.71199
-3.70645
-3.70178
-3.69927
-3.69721
-3.98114
-3.97164
-3.96128
-3.95037
-3.93913
-3.92777
-3.91648
-3.9054
-3.89468
-3.88446
-3.87489
-3.86612
-3.8583
-3.85148
-3.84557
-3.84064
-3.83649
-3.83408
-3.83253
-4.09584
-4.08784
-4.07907
-4.06978
-4.06015
-4.05034
-4.04054
-4.03087
-4.02149
-4.01251
-4.00408
-3.99636
-3.98947
-3.98345
-3.9782
-3.9738
-3.97009
-3.96797
-3.96671
-4.21198
-4.20523
-4.19782
-4.18991
-4.18167
-4.17323
-4.16474
-4.15634
-4.14815
-4.14029
-4.13289
-4.12609
-4.11999
-4.11464
-4.10994
-4.10602
-4.10275
-4.10097
-4.09993
-4.32937
-4.32368
-4.3174
-4.31069
-4.30364
-4.29641
-4.28909
-4.28181
-4.27469
-4.26783
-4.26135
-4.25535
-4.24993
-4.24514
-4.24092
-4.23747
-4.23462
-4.23319
-4.23234
-4.44783
-4.44303
-4.43773
-4.43203
-4.42604
-4.41985
-4.41356
-4.40729
-4.40112
-4.39516
-4.3895
-4.38423
-4.37942
-4.37513
-4.37135
-4.36836
-4.36589
-4.36478
-4.36409
-4.56721
-4.56317
-4.55871
-4.5539
-4.54881
-4.54354
-4.53817
-4.53278
-4.52748
-4.52233
-4.51741
-4.51281
-4.50858
-4.50478
-4.50145
-4.49888
-4.49674
-4.4959
-4.49532
-4.68738
-4.684
-4.68026
-4.67621
-4.67192
-4.66746
-4.6629
-4.65832
-4.65378
-4.64937
-4.64515
-4.64117
-4.6375
-4.6342
-4.63132
-4.62916
-4.62728
-4.62663
-4.62612
-4.80824
-4.80542
-4.80231
-4.79894
-4.79535
-4.79161
-4.78777
-4.78391
-4.78008
-4.77635
-4.77276
-4.76938
-4.76625
-4.76344
-4.76099
-4.7592
-4.75756
-4.75707
-4.75657
-4.92968
-4.92737
-4.92481
-4.92204
-4.91907
-4.91597
-4.91279
-4.90958
-4.90639
-4.90328
-4.90028
-4.89745
-4.89484
-4.8925
-4.89047
-4.88899
-4.88758
-4.88724
-4.88672
-5.05165
-5.04978
-5.04772
-5.04547
-5.04307
-5.04055
-5.03796
-5.03534
-5.03274
-5.0302
-5.02775
-5.02544
-5.0233
-5.02139
-5.01975
-5.01853
-5.01734
-5.01715
-5.01657
-5.17406
-5.1726
-5.17098
-5.16921
-5.16731
-5.16533
-5.16328
-5.16122
-5.15916
-5.15714
-5.15519
-5.15335
-5.15166
-5.15014
-5.14884
-5.14786
-5.1469
-5.14679
-5.14619
-5.29687
-5.29577
-5.29456
-5.29323
-5.2918
-5.2903
-5.28876
-5.2872
-5.28565
-5.28412
-5.28264
-5.28124
-5.27995
-5.27879
-5.2778
-5.27705
-5.27631
-5.27619
-5.27568
-5.42
-5.41925
-5.41842
-5.4175
-5.41651
-5.41547
-5.4144
-5.41331
-5.41222
-5.41115
-5.4101
-5.40912
-5.40821
-5.4074
-5.4067
-5.40616
-5.40565
-5.40551
-5.40518
-5.54343
-5.543
-5.54252
-5.54198
-5.54141
-5.54079
-5.54016
-5.53952
-5.53887
-5.53824
-5.53761
-5.53703
-5.53648
-5.536
-5.53558
-5.53526
-5.53499
-5.53491
-5.53479
-5.66707
-5.66696
-5.66682
-5.66665
-5.66645
-5.66625
-5.66604
-5.66582
-5.6656
-5.66538
-5.66517
-5.66497
-5.66479
-5.66462
-5.66449
-5.66441
-5.66437
-5.66444
-5.66463
)
;

boundaryField
{
    leftWall
    {
        type            calculated;
        value           nonuniform List<scalar> 
50
(
5307.24
4517.37
3741.81
2980.65
2235.21
1534.83
1038.91
873.807
781.854
683.03
586.061
504.495
435.062
367.341
294.8
217.66
135.196
50.2916
4.45379
-1.03923
-1.23155
-1.47842
-1.77496
-2.07178
-2.29547
-2.44743
-2.56617
-2.67339
-2.7886
-2.92033
-3.06756
-3.22485
-3.38604
-3.54623
-3.70272
-3.8549
-4.00204
-4.14426
-4.28209
-4.41632
-4.54761
-4.67673
-4.80377
-4.92893
-5.05277
-5.17569
-5.29849
-5.42148
-5.54485
-5.6687
)
;
    }
    rightWall
    {
        type            calculated;
        value           nonuniform List<scalar> 
50
(
2120.67
1374.21
777.784
567.77
516.569
465.335
415.799
367.77
297.976
203.016
103.543
20.5153
1.49339
-0.0506451
-0.287917
-0.481553
-0.699244
-0.916012
-1.13664
-1.346
-1.54222
-1.72836
-1.9058
-2.07587
-2.23986
-2.39882
-2.55364
-2.70502
-2.85364
-2.99941
-3.14258
-3.28367
-3.42303
-3.56081
-3.69721
-3.83253
-3.96671
-4.09993
-4.23234
-4.36409
-4.49532
-4.62612
-4.75657
-4.88672
-5.01657
-5.14619
-5.27568
-5.40518
-5.53479
-5.66463
)
;
    }
    lowerWall
    {
        type            calculated;
        value           nonuniform List<scalar> 
62
(
5705.39
5643.14
5577.34
5523.02
5506.73
5537.48
5612.28
5720.56
5854.14
6004.47
6162.27
6316.72
6455.18
6563.64
6628.54
6638.79
6587.38
6471.89
6295.96
6077.44
5854.22
5673.86
5581.44
5183.32
4355.52
3492.56
2594.03
1714.84
1261.17
1140.25
1064.31
751.632
741.946
772.452
794.485
2435.98
2106.71
1840.83
1594.96
1344.23
1093.73
885.307
759.145
2594.23
2450.52
2544.55
2702.21
2719.75
2665.39
2609.71
2676.08
2705.35
2741.89
2791.64
2847.46
2901.96
2919.48
2867.2
2778.91
2680.97
2548.77
2486.89
)
;
    }
    atmosphere
    {
        type            calculated;
        value           nonuniform List<scalar> 
46
(
-5.73066
-5.72994
-5.73011
-5.73093
-5.7322
-5.7337
-5.73519
-5.73646
-5.73734
-5.73776
-5.73772
-5.73727
-5.73649
-5.73547
-5.73433
-5.73315
-5.73202
-5.73101
-5.73018
-5.72957
-5.7292
-5.72905
-5.72904
-5.72904
-5.72904
-5.72904
-5.72904
-5.72904
-5.72904
-5.72904
-5.72904
-5.72904
-5.72904
-5.72904
-5.72904
-5.72904
-5.72904
-5.72904
-5.72904
-5.72904
-5.72904
-5.72904
-5.72904
-5.72904
-5.72904
-5.72904
)
;
    }
    defaultFaces
    {
        type            empty;
    }
}


// ************************************************************************* //
