/*--------------------------------*- C++ -*----------------------------------*\
| =========                 |                                                 |
| \\      /  F ield         | OpenFOAM: The Open Source CFD Toolbox           |
|  \\    /   O peration     | Version:  2312                                  |
|   \\  /    A nd           | Website:  www.openfoam.com                      |
|    \\/     M anipulation  |                                                 |
\*---------------------------------------------------------------------------*/
FoamFile
{
    version     2.0;
    format      ascii;
    arch        "LSB;label=32;scalar=64";
    class       surfaceScalarField;
    location    "1.4";
    object      phi;
}
// * * * * * * * * * * * * * * * * * * * * * * * * * * * * * * * * * * * * * //

dimensions      [0 3 -1 0 0 0 0];

oriented        oriented;

internalField   nonuniform List<scalar> 
4432
(
2.51461e-06
-2.51461e-06
2.06054e-06
4.54069e-07
1.47877e-06
5.81777e-07
1.20569e-06
2.73081e-07
1.56529e-06
-3.59605e-07
2.53668e-06
-9.71393e-07
3.9776e-06
-1.44091e-06
5.73724e-06
-1.75964e-06
7.71258e-06
-1.97534e-06
9.82722e-06
-2.11464e-06
1.20086e-05
-2.18138e-06
1.41611e-05
-2.1525e-06
1.61463e-05
-1.98524e-06
1.77817e-05
-1.63535e-06
1.88565e-05
-1.07485e-06
1.91575e-05
-3.00923e-07
1.85222e-05
6.35252e-07
1.68714e-05
1.65087e-06
1.42918e-05
2.57956e-06
1.10608e-05
3.23103e-06
7.49387e-06
3.5669e-06
3.97614e-06
3.51773e-06
3.97614e-06
1.50538e-06
-4.01999e-06
1.22303e-06
7.36417e-07
7.4024e-07
1.06457e-06
5.95423e-07
4.17899e-07
1.02482e-06
-7.89003e-07
2.06862e-06
-2.01519e-06
3.58131e-06
-2.95361e-06
5.4009e-06
-3.57923e-06
7.42681e-06
-4.00125e-06
9.58706e-06
-4.27488e-06
1.18129e-05
-4.40725e-06
1.40119e-05
-4.35151e-06
1.6048e-05
-4.02126e-06
1.77314e-05
-3.31874e-06
1.88449e-05
-2.18841e-06
1.91814e-05
-6.37372e-07
1.8536e-05
1.28061e-06
1.68461e-05
3.34078e-06
1.41913e-05
5.2343e-06
1.08651e-05
6.55727e-06
7.22063e-06
7.21137e-06
3.60624e-06
7.13212e-06
7.58238e-06
1.65019e-07
-4.18501e-06
-6.10283e-08
9.62464e-07
-5.89054e-07
1.5926e-06
-6.42761e-07
4.71605e-07
-5.10421e-08
-1.38072e-06
1.11105e-06
-3.17728e-06
2.76436e-06
-4.60692e-06
4.6998e-06
-5.51467e-06
6.82101e-06
-6.12246e-06
9.06568e-06
-6.51955e-06
1.13782e-05
-6.71978e-06
1.36757e-05
-6.64897e-06
1.5823e-05
-6.16861e-06
1.76234e-05
-5.11909e-06
1.88414e-05
-3.40646e-06
1.92351e-05
-1.03108e-06
1.86258e-05
1.88994e-06
1.68992e-05
5.06733e-06
1.41462e-05
7.98736e-06
1.07026e-05
1.00009e-05
6.99594e-06
1.0918e-05
3.39998e-06
1.07281e-05
1.09824e-05
-1.09681e-06
-3.0882e-06
-1.68555e-06
1.5512e-06
-2.27435e-06
2.1814e-06
-2.24369e-06
4.40948e-07
-1.38087e-06
-2.24354e-06
7.86099e-08
-4.63675e-06
1.89435e-06
-6.42266e-06
3.95343e-06
-7.57375e-06
6.16551e-06
-8.33455e-06
8.48889e-06
-8.84294e-06
1.089e-05
-9.12093e-06
1.33028e-05
-9.0617e-06
1.56005e-05
-8.46631e-06
1.75732e-05
-7.09186e-06
1.89652e-05
-4.79838e-06
1.95037e-05
-1.56961e-06
1.89854e-05
2.40828e-06
1.72647e-05
6.78802e-06
1.44225e-05
1.08295e-05
1.086e-05
1.35634e-05
7.06212e-06
1.47159e-05
3.4039e-06
1.43863e-05
1.43863e-05
-2.13844e-06
-9.49759e-07
-2.66973e-06
2.0825e-06
-3.16241e-06
2.67408e-06
-2.79547e-06
7.40117e-08
-1.8647e-06
-3.17432e-06
-2.24904e-07
-6.27655e-06
1.69214e-06
-8.3397e-06
3.81518e-06
-9.6968e-06
6.05403e-06
-1.05734e-05
8.39213e-06
-1.1181e-05
1.08282e-05
-1.1557e-05
1.33149e-05
-1.15484e-05
1.57398e-05
-1.08912e-05
1.78717e-05
-9.22377e-06
1.94309e-05
-6.35754e-06
2.01634e-05
-2.30213e-06
1.98048e-05
2.76688e-06
1.81835e-05
8.40927e-06
1.5297e-05
1.3716e-05
1.15e-05
1.73604e-05
7.21253e-06
1.90034e-05
3.18045e-06
1.84184e-05
1.75667e-05
-1.66543e-06
7.15668e-07
-1.66732e-06
2.08439e-06
-2.15105e-06
3.15782e-06
-2.13692e-06
5.98851e-08
-1.11112e-06
-4.20012e-06
5.63443e-07
-7.95111e-06
2.55589e-06
-1.03322e-05
4.70507e-06
-1.1846e-05
6.91755e-06
-1.27859e-05
9.19793e-06
-1.34614e-05
1.16105e-05
-1.39695e-05
1.41584e-05
-1.40963e-05
1.6748e-05
-1.34808e-05
1.91374e-05
-1.16132e-05
2.1028e-05
-8.24807e-06
2.20844e-05
-3.35853e-06
2.22015e-05
2.6497e-06
2.1119e-05
9.49179e-06
1.87556e-05
1.60794e-05
1.51608e-05
2.09551e-05
1.02754e-05
2.38888e-05
4.6309e-06
2.40629e-05
2.21976e-05
3.91612e-06
-3.20045e-06
8.39926e-06
-2.39875e-06
8.35053e-06
3.20654e-06
5.88425e-06
2.52618e-06
4.14554e-06
-2.46142e-06
3.76305e-06
-7.56862e-06
4.30163e-06
-1.08707e-05
5.88808e-06
-1.34324e-05
8.09336e-06
-1.49912e-05
1.0558e-05
-1.5926e-05
1.30498e-05
-1.64614e-05
1.56538e-05
-1.67004e-05
1.8412e-05
-1.6239e-05
2.11675e-05
-1.43687e-05
2.35874e-05
-1.06679e-05
2.52423e-05
-5.01343e-06
2.59986e-05
1.89343e-06
2.5798e-05
9.69234e-06
2.41365e-05
1.7741e-05
2.08298e-05
2.42618e-05
1.78367e-05
2.68819e-05
1.29257e-05
2.89739e-05
3.51233e-05
1.30561e-05
-1.62565e-05
2.21138e-05
-1.14565e-05
2.53284e-05
-7.97529e-09
2.45554e-05
3.29916e-06
2.22507e-05
-1.56714e-07
2.03298e-05
-5.64769e-06
1.83367e-05
-8.87768e-06
1.64316e-05
-1.15274e-05
1.50773e-05
-1.36368e-05
1.42922e-05
-1.5141e-05
1.4261e-05
-1.64301e-05
1.60551e-05
-1.84945e-05
1.8976e-05
-1.91599e-05
2.21313e-05
-1.75239e-05
2.51626e-05
-1.36993e-05
2.76759e-05
-7.52671e-06
2.88624e-05
7.06925e-07
2.79141e-05
1.06406e-05
2.6288e-05
1.93671e-05
2.65982e-05
2.39517e-05
2.63772e-05
2.71029e-05
2.19065e-05
3.34446e-05
5.70298e-05
-1.19309e-06
1.19309e-06
-1.75673e-05
1.63742e-05
-2.18813e-05
4.31397e-06
-1.68113e-05
-5.06992e-06
-1.60784e-05
-7.32897e-07
-1.60401e-05
-3.83048e-08
-1.52582e-05
-7.81951e-07
-1.09832e-05
-4.27499e-06
-8.49805e-06
-2.48514e-06
-7.42237e-06
-1.07569e-06
-8.92481e-06
1.50245e-06
-1.12699e-05
2.34514e-06
-1.14263e-05
1.56326e-07
-9.13732e-06
-2.28896e-06
-6.20828e-06
-2.92904e-06
-3.78109e-06
-2.42719e-06
-2.69426e-06
-1.08683e-06
1.18594e-07
-2.81286e-06
1.18593e-07
-2.16006e-06
3.35315e-06
-9.3341e-06
2.35482e-05
-5.99247e-06
9.7234e-07
8.292e-06
-1.93544e-05
1.56574e-05
-8.09834e-06
1.43626e-05
1.25655e-06
4.96642e-06
8.61421e-06
-1.84881e-06
2.54023e-06
-4.09819e-06
-2.35762e-07
-6.59738e-06
1.42351e-06
-9.93185e-06
4.83692e-06
-1.36105e-05
6.02384e-06
-1.50573e-05
1.60304e-06
-1.38063e-05
-3.53989e-06
-1.14575e-05
-5.27782e-06
-9.26806e-06
-4.61668e-06
-6.9763e-06
-3.37859e-06
-4.22013e-06
-5.56902e-06
-4.10154e-06
-5.42473e-06
8.77788e-06
-7.54263e-06
2.56661e-05
-1.01934e-06
-5.55095e-06
7.92528e-06
-2.8299e-05
1.3509e-05
-1.36821e-05
1.79855e-05
-3.21991e-06
2.38055e-05
2.79418e-06
2.36166e-05
2.72911e-06
1.66607e-05
6.72014e-06
3.68332e-06
1.44009e-05
-7.75107e-06
1.62713e-05
-1.48625e-05
1.31353e-05
-1.76794e-05
4.41987e-06
-1.67703e-05
-4.449e-06
-1.38433e-05
-8.20474e-06
-1.06086e-05
-7.85141e-06
-7.22598e-06
-6.76121e-06
-4.53905e-06
-8.25595e-06
-8.6406e-06
-7.87538e-06
1.66533e-05
-6.53081e-06
2.43216e-05
1.00024e-06
-1.3082e-05
7.90865e-06
-3.52074e-05
1.16868e-05
-1.74602e-05
1.33261e-05
-4.85925e-06
1.78743e-05
-1.75402e-06
1.90097e-05
1.59378e-06
1.78168e-05
7.91304e-06
1.0328e-05
2.18896e-05
-2.38955e-06
2.89889e-05
-1.11222e-05
2.1868e-05
-1.27838e-05
6.0815e-06
-1.09354e-05
-6.29745e-06
-7.34846e-06
-1.17917e-05
-2.76888e-06
-1.2431e-05
2.43334e-06
-1.19634e-05
4.2911e-06
-1.01137e-05
-4.3495e-06
-8.51126e-06
2.51645e-05
-4.06514e-06
1.98754e-05
2.51122e-06
-1.96584e-05
9.85523e-06
-4.25514e-05
2.05944e-05
-2.81994e-05
2.15276e-05
-5.79249e-06
2.03436e-05
-5.70002e-07
1.85727e-05
3.36472e-06
1.64052e-05
1.00806e-05
1.31601e-05
2.51347e-05
6.28435e-06
3.58646e-05
1.86238e-06
2.62899e-05
3.81979e-06
4.12409e-06
7.76435e-06
-1.0242e-05
8.94086e-06
-1.29682e-05
9.76294e-06
-1.32531e-05
1.11244e-05
-1.33249e-05
9.28015e-06
-8.26949e-06
4.93065e-06
-6.84344e-06
3.2008e-05
-4.89136e-07
1.35211e-05
5.70961e-06
-2.58571e-05
1.36133e-05
-5.04551e-05
2.86582e-05
-4.32443e-05
3.82608e-05
-1.53952e-05
3.61482e-05
1.54264e-06
3.01637e-05
9.34918e-06
2.36766e-05
1.65677e-05
1.85682e-05
3.02431e-05
1.64036e-05
3.80293e-05
1.8063e-05
2.46305e-05
1.78581e-05
4.32904e-06
1.6589e-05
-8.97291e-06
1.56809e-05
-1.20601e-05
1.51965e-05
-1.27687e-05
1.4214e-05
-1.23423e-05
9.89114e-06
-3.94668e-06
1.48218e-05
-2.27731e-06
3.42853e-05
6.70559e-06
4.53821e-06
1.23397e-05
-3.14913e-05
1.83145e-05
-5.64299e-05
2.9102e-05
-5.40318e-05
4.17286e-05
-2.80217e-05
3.94372e-05
3.834e-06
2.86926e-05
2.00938e-05
2.04025e-05
2.48577e-05
1.73622e-05
3.32834e-05
1.79437e-05
3.74478e-05
2.03918e-05
2.21824e-05
1.97381e-05
4.98267e-06
1.76332e-05
-6.86792e-06
1.67818e-05
-1.12087e-05
1.60543e-05
-1.20412e-05
1.36934e-05
-9.98145e-06
7.66699e-06
2.07971e-06
2.24888e-05
1.19886e-05
2.22967e-05
2.21677e-05
-5.64094e-06
2.4863e-05
-3.41865e-05
2.49528e-05
-5.65197e-05
2.94217e-05
-5.85007e-05
4.07352e-05
-3.93352e-05
4.29334e-05
1.63585e-06
3.34413e-05
2.95859e-05
2.16036e-05
3.66954e-05
1.75957e-05
3.72912e-05
1.99698e-05
3.50737e-05
2.39817e-05
1.81705e-05
2.49416e-05
4.02281e-06
2.26683e-05
-4.59457e-06
2.04636e-05
-9.00405e-06
1.77325e-05
-9.31008e-06
1.17998e-05
-4.04871e-06
5.57246e-06
8.30701e-06
2.80612e-05
4.89277e-05
-6.51842e-05
7.51529e-05
-3.76817e-05
8.59421e-05
-1.07971e-05
8.58619e-05
3.37934e-06
7.94422e-05
6.26301e-06
6.97083e-05
4.08621e-06
5.96343e-05
1.19629e-06
5.18161e-05
-3.70914e-06
4.5696e-05
-7.51677e-06
4.08871e-05
-1.0332e-05
3.67258e-05
-1.22688e-05
3.27954e-05
-1.45641e-05
3.03343e-05
-1.66988e-05
3.05029e-05
-1.76925e-05
3.51878e-05
-1.83841e-05
4.25093e-05
-1.48483e-05
5.01003e-05
-6.88403e-06
5.83524e-05
2.38847e-06
6.83056e-05
9.41388e-06
7.8089e-05
1.41683e-05
8.77015e-05
1.74903e-05
0.000100253
2.08931e-05
2.69568e-05
0.000130326
3.55924e-05
-0.000100777
6.44396e-05
-6.65289e-05
7.83833e-05
-2.47409e-05
8.90056e-05
-7.24291e-06
9.81871e-05
-2.91844e-06
0.000103014
-7.40732e-07
9.84269e-05
5.78335e-06
8.48523e-05
9.86548e-06
6.60516e-05
1.1284e-05
4.79172e-05
7.80232e-06
3.24817e-05
3.16665e-06
2.18042e-05
-3.88651e-06
1.64872e-05
-1.13818e-05
1.70947e-05
-1.83001e-05
2.65959e-05
-2.78853e-05
4.14417e-05
-2.96941e-05
5.73195e-05
-2.27618e-05
7.27023e-05
-1.29943e-05
8.6514e-05
-4.39789e-06
9.86874e-05
1.99491e-06
0.00010957
6.60805e-06
0.000120076
1.03866e-05
1.37583e-05
0.000133275
2.15722e-05
-0.000122349
4.83269e-05
-9.32836e-05
5.46094e-05
-3.10234e-05
6.0987e-05
-1.36205e-05
7.72562e-05
-1.91876e-05
0.000101578
-2.50624e-05
0.000120467
-1.31062e-05
0.00012297
7.36291e-06
0.000111178
2.30756e-05
8.98736e-05
2.91071e-05
6.17586e-05
3.12816e-05
3.42994e-05
2.35727e-05
1.9319e-05
3.59857e-06
1.86097e-05
-1.75907e-05
3.13315e-05
-4.06071e-05
4.91069e-05
-4.74695e-05
6.677e-05
-4.04249e-05
8.33103e-05
-2.95346e-05
9.80043e-05
-1.90918e-05
0.000110489
-1.04902e-05
0.000121121
-4.02314e-06
0.000130701
8.05966e-07
3.99459e-06
0.000140465
6.64743e-06
-0.000128996
2.44003e-05
-0.000111037
2.49326e-05
-3.15557e-05
3.45965e-05
-2.32844e-05
5.87034e-05
-4.32945e-05
8.50838e-05
-5.14427e-05
0.00011003
-3.80525e-05
0.00012696
-9.56722e-06
0.000129342
2.06938e-05
0.000114198
4.42512e-05
8.09343e-05
6.45452e-05
4.49503e-05
5.95566e-05
2.49955e-05
2.35534e-05
2.48364e-05
-1.74316e-05
3.83782e-05
-5.4149e-05
5.23687e-05
-6.146e-05
6.54988e-05
-5.35551e-05
7.80349e-05
-4.20706e-05
8.96077e-05
-3.06647e-05
9.99054e-05
-2.07879e-05
0.000108912
-1.30301e-05
0.000116777
-7.05901e-06
-2.57546e-06
0.000123347
-4.93181e-06
-0.000124064
-3.47711e-06
-0.000112491
6.32663e-06
-4.13594e-05
2.69443e-05
-4.39021e-05
4.80004e-05
-6.43507e-05
6.72824e-05
-7.07247e-05
8.97436e-05
-6.05136e-05
0.000108406
-2.82297e-05
0.000111981
1.71186e-05
9.80989e-05
5.81336e-05
7.10443e-05
9.15998e-05
4.51972e-05
8.54037e-05
3.9952e-05
2.87987e-05
4.46496e-05
-2.21292e-05
4.99943e-05
-5.94938e-05
5.41648e-05
-6.56305e-05
5.94284e-05
-5.88186e-05
6.55537e-05
-4.81959e-05
7.19007e-05
-3.70117e-05
7.78117e-05
-2.66988e-05
8.35043e-05
-1.87227e-05
8.90282e-05
-1.25829e-05
-7.85737e-06
9.43101e-05
-9.00603e-06
-0.000115058
-1.35558e-05
-0.000107941
6.47232e-06
-6.13874e-05
2.16605e-05
-5.90903e-05
3.05888e-05
-7.3279e-05
4.04778e-05
-8.06137e-05
5.61611e-05
-7.6197e-05
7.14697e-05
-4.35383e-05
7.33086e-05
1.52797e-05
6.53886e-05
6.60536e-05
6.04371e-05
9.65514e-05
5.54689e-05
9.0372e-05
5.51486e-05
2.91189e-05
5.89836e-05
-2.59642e-05
5.55675e-05
-5.60777e-05
5.17523e-05
-6.18153e-05
4.96697e-05
-5.67359e-05
4.99049e-05
-4.84311e-05
5.1879e-05
-3.89858e-05
5.51179e-05
-2.99377e-05
5.91923e-05
-2.27971e-05
6.36037e-05
-1.69942e-05
-1.23489e-05
6.80953e-05
-8.12001e-06
-0.000106938
-1.08364e-05
-0.000105225
5.60416e-06
-7.7828e-05
1.12632e-05
-6.47493e-05
1.11681e-05
-7.31839e-05
1.07767e-05
-8.02222e-05
1.25139e-05
-7.79342e-05
2.04397e-05
-5.14641e-05
3.74258e-05
-1.70648e-06
5.03384e-05
5.31409e-05
6.08456e-05
8.60442e-05
7.1091e-05
8.01265e-05
7.00271e-05
3.01828e-05
6.81931e-05
-2.41301e-05
5.89627e-05
-4.68474e-05
4.97126e-05
-5.25652e-05
4.26163e-05
-4.96396e-05
3.91381e-05
-4.49529e-05
3.90825e-05
-3.89302e-05
4.20377e-05
-3.2893e-05
4.65351e-05
-2.72945e-05
5.11878e-05
-2.1647e-05
-1.68027e-05
5.56416e-05
-5.57577e-06
-0.000101363
-7.93892e-06
-0.000102862
1.24577e-06
-8.70127e-05
4.11207e-06
-6.76156e-05
8.56549e-07
-6.99284e-05
-3.97559e-06
-7.53901e-05
-8.74688e-06
-7.31629e-05
-3.58211e-06
-5.66289e-05
1.7088e-05
-2.23766e-05
4.34899e-05
2.67391e-05
6.79906e-05
6.15435e-05
8.51099e-05
6.30071e-05
8.94273e-05
2.58654e-05
8.04947e-05
-1.51975e-05
6.68987e-05
-3.32513e-05
5.38562e-05
-3.95227e-05
4.38818e-05
-3.96653e-05
3.80879e-05
-3.9159e-05
3.74476e-05
-3.82899e-05
4.14965e-05
-3.69418e-05
4.82744e-05
-3.40724e-05
5.53502e-05
-2.87228e-05
-2.22662e-05
6.08137e-05
-3.13209e-06
-9.82305e-05
-6.59426e-06
-9.93998e-05
-3.28589e-06
-9.03211e-05
1.24132e-06
-7.21428e-05
1.22496e-06
-6.9912e-05
-2.25372e-06
-7.19114e-05
-6.35493e-06
-6.90616e-05
-5.5597e-06
-5.74241e-05
1.02106e-05
-3.81469e-05
3.61002e-05
8.49479e-07
6.3952e-05
3.36917e-05
8.33653e-05
4.35938e-05
9.00653e-05
1.91654e-05
8.3457e-05
-8.58919e-06
7.20107e-05
-2.1805e-05
5.88464e-05
-2.63584e-05
4.71891e-05
-2.8008e-05
4.07061e-05
-3.2676e-05
4.10196e-05
-3.86034e-05
4.64066e-05
-4.23288e-05
5.45229e-05
-4.21888e-05
6.26769e-05
-3.68767e-05
-2.70139e-05
6.74246e-05
-7.07793e-07
-9.75227e-05
-5.94052e-06
-9.4167e-05
-6.74057e-06
-8.95211e-05
8.32819e-08
-7.89666e-05
4.82137e-06
-7.46501e-05
5.39751e-06
-7.24875e-05
4.11133e-06
-6.77755e-05
3.5383e-06
-5.68511e-05
1.01198e-05
-4.47285e-05
3.13768e-05
-2.04075e-05
5.60474e-05
9.02107e-06
7.86798e-05
2.09614e-05
8.74667e-05
1.03786e-05
8.14047e-05
-2.52719e-06
6.97087e-05
-1.0109e-05
5.98696e-05
-1.65193e-05
5.8196e-05
-2.63345e-05
6.48043e-05
-3.92842e-05
7.65104e-05
-5.03096e-05
9.06948e-05
-5.65131e-05
0.000106363
-5.7857e-05
0.000123042
-5.35552e-05
-4.05984e-05
0.000136626
1.94003e-06
-9.94631e-05
-5.48699e-06
-8.67405e-05
-8.56923e-06
-8.6439e-05
-3.99167e-07
-8.71367e-05
7.38991e-06
-8.24392e-05
1.2453e-05
-7.75506e-05
1.52063e-05
-7.05287e-05
1.7332e-05
-5.89768e-05
1.88668e-05
-4.62633e-05
2.95012e-05
-3.1042e-05
4.87643e-05
-1.0242e-05
6.81607e-05
1.56498e-06
7.82527e-05
2.86636e-07
8.24896e-05
-6.76402e-06
8.94228e-05
-1.70422e-05
0.000103828
-3.09246e-05
0.000124235
-4.67417e-05
0.00014622
-6.1269e-05
0.000168341
-7.24306e-05
0.000191532
-7.97042e-05
0.000218413
-8.47382e-05
0.000254614
-8.97557e-05
-9.53339e-05
0.00030935
-9.06318e-07
-9.85573e-05
-3.23872e-06
-8.44083e-05
-1.45922e-05
-7.50854e-05
-3.90156e-06
-9.78271e-05
8.12785e-06
-9.44687e-05
1.70017e-05
-8.64245e-05
2.36636e-05
-7.71906e-05
3.08189e-05
-6.6132e-05
3.87114e-05
-5.41559e-05
4.89277e-05
-4.12582e-05
6.71064e-05
-2.84206e-05
8.95968e-05
-2.09254e-05
0.000111751
-2.18673e-05
0.000132339
-2.7352e-05
0.000150558
-3.52611e-05
0.000165103
-4.54703e-05
0.000177403
-5.9041e-05
0.000189075
-7.29412e-05
0.000200937
-8.42925e-05
0.000212392
-9.11595e-05
0.000224234
-9.65801e-05
0.000241737
-0.000107258
-0.000129423
0.000275827
1.58017e-05
-0.000114358
5.49019e-05
-0.000123508
7.98932e-05
-0.000100076
6.00962e-05
-7.80303e-05
2.66571e-05
-6.10293e-05
5.31781e-06
-6.50854e-05
2.01913e-05
-9.20642e-05
3.62391e-05
-8.21803e-05
5.02916e-05
-6.82086e-05
6.55792e-05
-5.65459e-05
8.62249e-05
-4.90663e-05
0.000110449
-4.51494e-05
0.000135923
-4.73409e-05
0.000162822
-5.42516e-05
0.000186574
-5.9013e-05
0.000196689
-5.55849e-05
0.000200918
-6.32706e-05
0.000207345
-7.93681e-05
0.000216846
-9.37934e-05
0.000220387
-9.47006e-05
0.000219211
-9.54037e-05
0.000194984
-8.30311e-05
-2.82605e-05
9.38217e-05
1.78324e-05
-0.00013219
4.70607e-05
-0.000152736
7.94353e-05
-0.00013245
9.60442e-05
-9.46389e-05
0.000100513
-6.54985e-05
9.24156e-05
-5.69877e-05
6.06063e-05
-6.02558e-05
3.3111e-05
-5.46856e-05
2.53778e-05
-6.04755e-05
5.78461e-05
-8.90143e-05
8.02402e-05
-7.14602e-05
0.000100565
-6.54737e-05
0.000121617
-6.83923e-05
0.000145061
-7.7696e-05
0.000171476
-8.54267e-05
0.000187649
-7.17584e-05
0.000189073
-6.4695e-05
0.000179936
-7.02316e-05
0.000166385
-8.02423e-05
0.000146125
-7.44404e-05
9.03923e-05
-3.96715e-05
1.87416e-06
5.48643e-06
5.53454e-05
-8.17324e-05
1.70453e-05
-0.000149235
3.21505e-05
-0.000167841
4.95965e-05
-0.000149896
6.62312e-05
-0.000111273
8.32085e-05
-8.24756e-05
9.52924e-05
-6.90712e-05
9.68009e-05
-6.1764e-05
9.79392e-05
-5.58239e-05
9.79798e-05
-6.05161e-05
8.25705e-05
-7.36048e-05
8.5135e-05
-7.40247e-05
9.53264e-05
-7.56651e-05
0.000111473
-8.45389e-05
0.000125577
-9.18005e-05
0.00013908
-9.89297e-05
0.000145923
-7.86007e-05
0.00012411
-4.28825e-05
8.71313e-05
-3.32527e-05
4.17293e-05
-3.48405e-05
-1.59717e-05
-1.67395e-05
-7.15073e-05
1.58639e-05
-0.000102548
3.65272e-05
6.59913e-05
-0.000113194
1.32124e-05
-0.000162447
1.76976e-05
-0.000172326
2.14282e-05
-0.000153627
2.76521e-05
-0.000117497
3.93982e-05
-9.42216e-05
5.04821e-05
-8.01548e-05
5.87006e-05
-6.99822e-05
6.58528e-05
-6.29759e-05
6.71061e-05
-6.17693e-05
5.87427e-05
-6.52414e-05
5.26956e-05
-6.79777e-05
4.86282e-05
-7.15981e-05
3.69854e-05
-7.28965e-05
1.8086e-05
-7.29015e-05
-7.77606e-06
-7.3068e-05
-3.45814e-05
-5.17952e-05
-4.90317e-05
-2.84321e-05
-6.23104e-05
-1.99737e-05
-8.29834e-05
-1.41675e-05
-0.000101333
1.60992e-06
-0.000108582
2.31135e-05
-0.000116858
4.48027e-05
6.17025e-05
-0.000112569
6.95501e-06
-0.000169402
9.12465e-07
-0.000166283
-7.54923e-06
-0.000145165
-8.90845e-06
-0.000116138
-5.30111e-06
-9.78288e-05
-1.66587e-06
-8.37899e-05
5.92213e-07
-7.22401e-05
8.9317e-07
-6.32767e-05
-3.2783e-06
-5.75977e-05
-1.46771e-05
-5.38425e-05
-2.99489e-05
-5.27059e-05
-4.63169e-05
-5.52302e-05
-6.28058e-05
-5.64076e-05
-7.89478e-05
-5.67595e-05
-9.8003e-05
-5.40127e-05
-0.000106573
-4.32256e-05
-0.000105093
-2.99118e-05
-0.000105866
-1.92007e-05
-0.000111771
-8.26182e-06
-0.000116702
6.54105e-06
-0.000117271
2.36824e-05
-0.0001125
4.0032e-05
5.08092e-05
-0.000101607
-3.90155e-06
-0.0001655
-1.81064e-05
-0.000152078
-3.3309e-05
-0.000129962
-4.12957e-05
-0.000108151
-4.73739e-05
-9.17505e-05
-5.38349e-05
-7.73288e-05
-6.13777e-05
-6.46973e-05
-7.02087e-05
-5.44456e-05
-8.04145e-05
-4.73918e-05
-9.02232e-05
-4.40339e-05
-9.76891e-05
-4.52401e-05
-0.000103585
-4.93343e-05
-0.000107336
-5.26563e-05
-0.00011145
-5.26458e-05
-0.000117111
-4.83519e-05
-0.000120233
-4.01032e-05
-0.000120057
-3.00876e-05
-0.000119325
-1.99329e-05
-0.000118779
-8.8078e-06
-0.000116705
4.46702e-06
-0.000111754
1.87311e-05
-0.000102817
3.10954e-05
3.90553e-05
-9.1063e-05
-1.39588e-05
-0.000151542
-3.41384e-05
-0.000131899
-5.33348e-05
-0.000110766
-6.87126e-05
-9.27734e-05
-8.28485e-05
-7.76146e-05
-9.59808e-05
-6.41966e-05
-0.000107323
-5.33551e-05
-0.000115574
-4.61946e-05
-0.000119742
-4.32239e-05
-0.000119951
-4.38249e-05
-0.000118517
-4.66737e-05
-0.000117823
-5.00289e-05
-0.000118336
-5.21425e-05
-0.000119416
-5.15659e-05
-0.000120207
-4.75607e-05
-0.000119692
-4.0619e-05
-0.000117908
-3.18715e-05
-0.000115703
-2.21379e-05
-0.000113077
-1.1433e-05
-0.00010887
2.5954e-07
-0.00010222
1.20812e-05
-9.31614e-05
2.2037e-05
2.88898e-05
-8.29959e-05
-2.07101e-05
-0.000130832
-4.41555e-05
-0.000108453
-6.58323e-05
-8.90892e-05
-8.44926e-05
-7.41131e-05
-0.000100187
-6.19205e-05
-0.00011214
-5.22435e-05
-0.000119739
-4.57559e-05
-0.000123186
-4.27474e-05
-0.000123482
-4.29276e-05
-0.000121796
-4.55116e-05
-0.000119231
-4.92384e-05
-0.000116747
-5.25129e-05
-0.000114927
-5.39623e-05
-0.000113775
-5.27178e-05
-0.000112739
-4.85964e-05
-0.000111276
-4.20829e-05
-0.000109239
-3.39081e-05
-0.000106732
-2.46453e-05
-0.000103544
-1.46208e-05
-9.90247e-05
-4.25937e-06
-9.28435e-05
5.90006e-06
-8.52281e-05
1.44216e-05
2.07897e-05
-7.71281e-05
-2.33458e-05
-0.000107486
-4.72333e-05
-8.45658e-05
-6.86878e-05
-6.76347e-05
-8.6671e-05
-5.61299e-05
-0.000100696
-4.78951e-05
-0.000110506
-4.24338e-05
-0.000116219
-4.00431e-05
-0.000118264
-4.0702e-05
-0.000117369
-4.38234e-05
-0.000114576
-4.83042e-05
-0.00011106
-5.27548e-05
-0.000107768
-5.58044e-05
-0.000105216
-5.65143e-05
-0.000103404
-5.453e-05
-0.000101969
-5.00317e-05
-0.000100509
-4.35423e-05
-9.87792e-05
-3.56383e-05
-9.66108e-05
-2.68137e-05
-9.37576e-05
-1.7474e-05
-8.98733e-05
-8.14363e-06
-8.47689e-05
7.95714e-07
-7.87757e-05
8.42841e-06
1.44939e-05
-7.24801e-05
-2.27334e-05
-8.47526e-05
-4.50453e-05
-6.2254e-05
-6.48863e-05
-4.77938e-05
-8.12057e-05
-3.98106e-05
-9.35098e-05
-3.55911e-05
-0.00010167
-3.42731e-05
-0.000105941
-3.57728e-05
-0.000106878
-3.97644e-05
-0.000105298
-4.54042e-05
-0.000102204
-5.13976e-05
-9.8673e-05
-5.62859e-05
-9.55634e-05
-5.8914e-05
-9.32993e-05
-5.87784e-05
-9.18299e-05
-5.59993e-05
-9.08132e-05
-5.10484e-05
-8.98684e-05
-4.44871e-05
-8.86923e-05
-3.68145e-05
-8.70645e-05
-2.84415e-05
-8.4784e-05
-1.97545e-05
-8.17346e-05
-1.1193e-05
-7.77229e-05
-3.21596e-06
-7.30899e-05
3.79544e-06
9.61341e-06
-6.82095e-05
-2.02431e-05
-6.45097e-05
-3.97923e-05
-4.2705e-05
-5.72723e-05
-3.03138e-05
-7.15197e-05
-2.55632e-05
-8.20414e-05
-2.50694e-05
-8.87967e-05
-2.75179e-05
-9.208e-05
-3.24895e-05
-9.24473e-05
-3.93971e-05
-9.06984e-05
-4.71532e-05
-8.78343e-05
-5.42616e-05
-8.48718e-05
-5.92485e-05
-8.25536e-05
-6.12322e-05
-8.11376e-05
-6.01944e-05
-8.04568e-05
-5.66801e-05
-8.01487e-05
-5.13565e-05
-7.98541e-05
-4.47817e-05
-7.92918e-05
-3.73767e-05
-7.82538e-05
-2.94795e-05
-7.65945e-05
-2.14138e-05
-7.42577e-05
-1.35298e-05
-7.12342e-05
-6.23946e-06
-6.76719e-05
2.33137e-07
5.79586e-06
-6.38544e-05
-1.69568e-05
-4.7553e-05
-3.30977e-05
-2.65642e-05
-4.77249e-05
-1.56868e-05
-5.97364e-05
-1.35518e-05
-6.85345e-05
-1.62714e-05
-7.41374e-05
-2.19151e-05
-7.67965e-05
-2.98304e-05
-7.70169e-05
-3.91767e-05
-7.55464e-05
-4.86237e-05
-7.33294e-05
-5.64787e-05
-7.13039e-05
-6.1274e-05
-7.00567e-05
-6.24794e-05
-6.96603e-05
-6.05908e-05
-6.9838e-05
-5.65024e-05
-7.02307e-05
-5.09639e-05
-7.0539e-05
-4.44733e-05
-7.05369e-05
-3.73788e-05
-7.00522e-05
-2.99642e-05
-6.89778e-05
-2.24883e-05
-6.72866e-05
-1.52209e-05
-6.50547e-05
-8.4713e-06
-6.23413e-05
-2.48033e-06
2.81388e-06
-5.93594e-05
-1.37019e-05
-3.38512e-05
-2.63904e-05
-1.38759e-05
-3.79286e-05
-4.14865e-06
-4.76444e-05
-3.83612e-06
-5.4843e-05
-9.07277e-06
-5.95232e-05
-1.72349e-05
-6.18596e-05
-2.74941e-05
-6.22342e-05
-3.88022e-05
-6.12934e-05
-4.95645e-05
-5.99157e-05
-5.78564e-05
-5.89423e-05
-6.22474e-05
-5.87781e-05
-6.26435e-05
-5.93152e-05
-6.00537e-05
-6.02199e-05
-5.55977e-05
-6.11828e-05
-5.0001e-05
-6.19823e-05
-4.36739e-05
-6.2445e-05
-3.69161e-05
-6.24372e-05
-2.9972e-05
-6.18801e-05
-2.30455e-05
-6.07574e-05
-1.63436e-05
-5.91333e-05
-1.00955e-05
-5.71048e-05
-4.50886e-06
4.78537e-07
-5.47695e-05
-1.08504e-05
-2.30009e-05
-2.06145e-05
-4.11199e-06
-2.92746e-05
4.5114e-06
-3.67589e-05
3.64807e-06
-4.24627e-05
-3.36899e-06
-4.63058e-05
-1.33919e-05
-4.84254e-05
-2.53744e-05
-4.90244e-05
-3.82032e-05
-4.8637e-05
-4.9952e-05
-4.80843e-05
-5.84091e-05
-4.80995e-05
-6.22323e-05
-4.88742e-05
-6.18688e-05
-5.01568e-05
-5.87711e-05
-5.16194e-05
-5.41351e-05
-5.30242e-05
-4.85963e-05
-5.42051e-05
-4.24929e-05
-5.50328e-05
-3.60885e-05
-5.54088e-05
-2.9596e-05
-5.52716e-05
-2.31827e-05
-5.46185e-05
-1.69966e-05
-5.35051e-05
-1.12089e-05
-5.20174e-05
-5.99656e-06
-1.32145e-06
-5.02175e-05
-8.45223e-06
-1.45488e-05
-1.58469e-05
3.28256e-06
-2.22014e-05
1.08659e-05
-2.77099e-05
9.15647e-06
-3.21345e-05
1.05554e-06
-3.51964e-05
-1.03301e-05
-3.70056e-05
-2.35653e-05
-3.7673e-05
-3.75359e-05
-3.76746e-05
-4.99504e-05
-3.7821e-05
-5.82628e-05
-3.86851e-05
-6.13682e-05
-4.02092e-05
-6.03447e-05
-4.20501e-05
-5.69302e-05
-4.39319e-05
-5.22533e-05
-4.56794e-05
-4.68487e-05
-4.71629e-05
-4.10095e-05
-4.82792e-05
-3.49722e-05
-4.89575e-05
-2.89177e-05
-4.91604e-05
-2.29797e-05
-4.88859e-05
-1.72711e-05
-4.8183e-05
-1.19118e-05
-4.71298e-05
-7.04986e-06
-2.68364e-06
-4.57676e-05
-6.28332e-06
-8.26565e-06
-1.19447e-05
8.94378e-06
-1.66161e-05
1.55372e-05
-2.05548e-05
1.30952e-05
-2.3838e-05
4.33866e-06
-2.61777e-05
-7.99046e-06
-2.75114e-05
-2.22316e-05
-2.8003e-05
-3.70443e-05
-2.82053e-05
-4.97482e-05
-2.89371e-05
-5.7531e-05
-3.05134e-05
-5.97919e-05
-3.26118e-05
-5.82463e-05
-3.48627e-05
-5.46794e-05
-3.70597e-05
-5.00564e-05
-3.90706e-05
-4.48378e-05
-4.07865e-05
-3.92936e-05
-4.21258e-05
-3.36329e-05
-4.30383e-05
-2.80052e-05
-4.3505e-05
-2.25131e-05
-4.3537e-05
-1.72391e-05
-4.31707e-05
-1.22781e-05
-4.24794e-05
-7.74118e-06
-3.66259e-06
-4.15005e-05
-5.28556e-06
-2.98018e-06
-9.71895e-06
1.33771e-05
-1.29876e-05
1.88057e-05
-1.55372e-05
1.56447e-05
-1.75521e-05
6.35348e-06
-1.88981e-05
-6.64451e-06
-1.95335e-05
-2.15963e-05
-1.96622e-05
-3.69156e-05
-1.998e-05
-4.94304e-05
-2.12662e-05
-5.62449e-05
-2.34376e-05
-5.76205e-05
-2.59644e-05
-5.57195e-05
-2.85166e-05
-5.21271e-05
-3.09463e-05
-4.76267e-05
-3.31467e-05
-4.26374e-05
-3.50293e-05
-3.74111e-05
-3.65326e-05
-3.21296e-05
-3.76239e-05
-2.6914e-05
-3.82975e-05
-2.18395e-05
-3.85721e-05
-1.69645e-05
-3.84845e-05
-1.23657e-05
-3.80914e-05
-8.13435e-06
-4.32948e-06
-3.74245e-05
-4.35187e-06
1.37156e-06
-7.72536e-06
1.67505e-05
-9.88754e-06
2.09678e-05
-1.13394e-05
1.70965e-05
-1.22981e-05
7.31205e-06
-1.27104e-05
-6.2322e-06
-1.25691e-05
-2.17377e-05
-1.22766e-05
-3.72081e-05
-1.28236e-05
-4.88835e-05
-1.46964e-05
-5.43721e-05
-1.73437e-05
-5.49733e-05
-2.01758e-05
-5.28874e-05
-2.29428e-05
-4.93601e-05
-2.55288e-05
-4.50407e-05
-2.78473e-05
-4.0319e-05
-2.98335e-05
-3.54249e-05
-3.14453e-05
-3.05178e-05
-3.26654e-05
-2.56939e-05
-3.34959e-05
-2.1009e-05
-3.39583e-05
-1.65021e-05
-3.4095e-05
-1.2229e-05
-3.39481e-05
-8.28123e-06
-4.71794e-06
-3.35597e-05
-3.39638e-06
4.7679e-06
-5.74794e-06
1.9102e-05
-7.04093e-06
2.22608e-05
-7.62744e-06
1.76829e-05
-7.69338e-06
7.37794e-06
-7.17471e-06
-6.75092e-06
-6.14862e-06
-2.27638e-05
-5.60962e-06
-3.77472e-05
-6.67282e-06
-4.78203e-05
-9.13869e-06
-5.19062e-05
-1.21218e-05
-5.19902e-05
-1.5154e-05
-4.98552e-05
-1.80578e-05
-4.64563e-05
-2.0731e-05
-4.23676e-05
-2.31064e-05
-3.79436e-05
-2.51403e-05
-3.3391e-05
-2.68127e-05
-2.88454e-05
-2.81201e-05
-2.43866e-05
-2.90714e-05
-2.00577e-05
-2.96879e-05
-1.58855e-05
-3.00061e-05
-1.19108e-05
-3.00705e-05
-8.21684e-06
-4.88042e-06
-2.99081e-05
-2.33943e-06
7.10723e-06
-3.42748e-06
2.01899e-05
-4.16057e-06
2.29938e-05
-4.08907e-06
1.76114e-05
-3.38898e-06
6.67781e-06
-1.82679e-06
-8.31315e-06
6.7524e-08
-2.46582e-05
4.32973e-07
-3.81126e-05
-1.49894e-06
-4.58884e-05
-4.4705e-06
-4.89347e-05
-7.65219e-06
-4.88086e-05
-1.07958e-05
-4.67116e-05
-1.37666e-05
-4.34855e-05
-1.6469e-05
-3.96653e-05
-1.88513e-05
-3.55613e-05
-2.08905e-05
-3.13517e-05
-2.25854e-05
-2.71505e-05
-2.39463e-05
-2.30257e-05
-2.49862e-05
-1.90178e-05
-2.57241e-05
-1.51477e-05
-2.61898e-05
-1.14452e-05
-2.6427e-05
-7.97959e-06
-4.84272e-06
-2.64647e-05
-1.66914e-06
8.77635e-06
-9.18602e-07
1.94393e-05
-1.03528e-06
2.31104e-05
-4.6002e-07
1.70361e-05
1.09555e-06
5.12221e-06
3.81878e-06
-1.10364e-05
5.73325e-06
-2.65727e-05
5.13686e-06
-3.75163e-05
2.71386e-06
-4.34654e-05
-4.74933e-07
-4.57459e-05
-3.79371e-06
-4.54898e-05
-6.99219e-06
-4.35131e-05
-9.97572e-06
-4.0502e-05
-1.26637e-05
-3.69773e-05
-1.50176e-05
-3.32074e-05
-1.7031e-05
-2.93383e-05
-1.87208e-05
-2.54607e-05
-2.01071e-05
-2.16394e-05
-2.12087e-05
-1.79163e-05
-2.20417e-05
-1.43146e-05
-2.26314e-05
-1.08554e-05
-2.30164e-05
-7.59471e-06
-4.63915e-06
-2.32199e-05
-5.26717e-07
9.30299e-06
1.42245e-06
1.74901e-05
2.36624e-06
2.21666e-05
3.57278e-06
1.58295e-05
6.41942e-06
2.27554e-06
9.47338e-06
-1.40904e-05
1.0291e-05
-2.73903e-05
8.85681e-06
-3.60821e-05
6.17704e-06
-4.07857e-05
2.95022e-06
-4.25191e-05
-4.19309e-07
-4.21203e-05
-3.65348e-06
-4.0279e-05
-6.61275e-06
-3.75427e-05
-9.24994e-06
-3.43401e-05
-1.15493e-05
-3.09081e-05
-1.35175e-05
-2.73701e-05
-1.518e-05
-2.37982e-05
-1.6569e-05
-2.02504e-05
-1.77088e-05
-1.67765e-05
-1.86147e-05
-1.34087e-05
-1.93036e-05
-1.01665e-05
-1.9807e-05
-7.09125e-06
-4.28743e-06
-2.01588e-05
8.77973e-07
8.42504e-06
3.11917e-06
1.52489e-05
5.52275e-06
1.9763e-05
7.90816e-06
1.34441e-05
1.15361e-05
-1.3524e-06
1.38739e-05
-1.64282e-05
1.36833e-05
-2.71996e-05
1.1821e-05
-3.42198e-05
9.03423e-06
-3.79989e-05
5.79653e-06
-3.92814e-05
2.45655e-06
-3.87803e-05
-7.32555e-07
-3.70899e-05
-3.62803e-06
-3.46473e-05
-6.18497e-06
-3.17832e-05
-8.40476e-06
-2.86883e-05
-1.03094e-05
-2.54654e-05
-1.19305e-05
-2.21771e-05
-1.33035e-05
-1.88773e-05
-1.44603e-05
-1.56197e-05
-1.54181e-05
-1.24509e-05
-1.61879e-05
-9.39667e-06
-1.67932e-05
-6.48599e-06
-3.81102e-06
-1.72696e-05
2.54782e-06
5.87718e-06
4.62825e-06
1.31685e-05
7.85217e-06
1.65391e-05
1.20503e-05
9.24602e-06
1.56409e-05
-4.94307e-06
1.6806e-05
-1.75933e-05
1.61306e-05
-2.65242e-05
1.4085e-05
-3.21741e-05
1.12463e-05
-3.51602e-05
8.05398e-06
-3.6089e-05
4.82528e-06
-3.55516e-05
1.76764e-06
-3.40322e-05
-9.92499e-07
-3.18871e-05
-3.42877e-06
-2.93469e-05
-5.54568e-06
-2.65714e-05
-7.37208e-06
-2.3639e-05
-8.93941e-06
-2.06098e-05
-1.02841e-05
-1.75327e-05
-1.14383e-05
-1.44654e-05
-1.24281e-05
-1.14611e-05
-1.32611e-05
-8.56368e-06
-1.39506e-05
-5.79639e-06
-3.23206e-06
-1.45296e-05
3.60716e-06
2.27005e-06
6.22452e-06
1.05511e-05
9.90538e-06
1.28582e-05
1.49269e-05
4.22447e-06
1.80948e-05
-8.11096e-06
1.87604e-05