/*--------------------------------*- C++ -*----------------------------------*\
| =========                 |                                                 |
| \\      /  F ield         | OpenFOAM: The Open Source CFD Toolbox           |
|  \\    /   O peration     | Version:  2312                                  |
|   \\  /    A nd           | Website:  www.openfoam.com                      |
|    \\/     M anipulation  |                                                 |
\*---------------------------------------------------------------------------*/
FoamFile
{
    version     2.0;
    format      ascii;
    arch        "LSB;label=32;scalar=64";
    class       volVectorField;
    location    "1.4";
    object      U;
}
// * * * * * * * * * * * * * * * * * * * * * * * * * * * * * * * * * * * * * //

dimensions      [0 1 -1 0 0 0 0];

internalField   nonuniform List<vector> 
2268
(
(0.0265427 -0.00991978 0)
(0.0271188 0.000551355 0)
(0.0187629 0.00138401 0)
(0.0136774 0.000741571 0)
(0.0144446 -0.00105252 0)
(0.0227274 -0.00279672 0)
(0.0369853 -0.00410692 0)
(0.0555385 -0.00494817 0)
(0.0770677 -0.00547382 0)
(0.10061 -0.00577989 0)
(0.125329 -0.00587697 0)
(0.150273 -0.0057105 0)
(0.174111 -0.00517709 0)
(0.195004 -0.00417992 0)
(0.210712 -0.00266301 0)
(0.21876 -0.000628551 0)
(0.21687 0.00205837 0)
(0.203379 0.00488067 0)
(0.17827 0.0073835 0)
(0.14394 0.00904472 0)
(0.105113 0.00987188 0)
(0.0634619 0.00952256 0)
(0.0272104 0.0120979 0)
(0.0133623 -0.0185056 0)
(0.0179044 0.00364843 0)
(0.00937836 0.00462664 0)
(0.00623124 0.00204992 0)
(0.00769946 -0.00274015 0)
(0.0168687 -0.00773492 0)
(0.0320135 -0.0116401 0)
(0.0513449 -0.0142861 0)
(0.073509 -0.0160721 0)
(0.0976012 -0.0172269 0)
(0.122844 -0.0177882 0)
(0.148335 -0.0175739 0)
(0.172756 -0.0162315 0)
(0.194234 -0.013377 0)
(0.210463 -0.00878984 0)
(0.218969 -0.00248578 0)
(0.217271 0.00518114 0)
(0.203498 0.0134682 0)
(0.17767 0.0211027 0)
(0.14229 0.0264958 0)
(0.102208 0.0292363 0)
(0.0602913 0.028852 0)
(0.0218748 0.0310589 0)
(-0.00134629 -0.0236703 0)
(0.00432417 0.00514729 0)
(-0.00621736 0.00769423 0)
(-0.00874361 0.00291918 0)
(-0.006066 -0.00523506 0)
(0.0049447 -0.013352 0)
(0.0218486 -0.0198491 0)
(0.0426954 -0.0241336 0)
(0.0660588 -0.026999 0)
(0.0911678 -0.0288464 0)
(0.117389 -0.0297583 0)
(0.143959 -0.0294415 0)
(0.169622 -0.0273093 0)
(0.192441 -0.0226796 0)
(0.209962 -0.0151339 0)
(0.21943 -0.00462097 0)
(0.218317 0.00818788 0)
(0.204553 0.0222106 0)
(0.177829 0.0351432 0)
(0.14103 0.0441641 0)
(0.0996477 0.0486507 0)
(0.0580397 0.0483805 0)
(0.0193177 0.0513658 0)
(-0.0153939 -0.0231977 0)
(-0.0133085 0.00394614 0)
(-0.0261103 0.00824369 0)
(-0.0277946 0.00134723 0)
(-0.022495 -0.00878562 0)
(-0.00846366 -0.0201993 0)
(0.01094 -0.0290947 0)
(0.0335197 -0.0348094 0)
(0.0580692 -0.0386243 0)
(0.0841144 -0.04113 0)
(0.111282 -0.0424232 0)
(0.139036 -0.0420147 0)
(0.166263 -0.0390361 0)
(0.190976 -0.0324171 0)
(0.210516 -0.021532 0)
(0.221879 -0.00641607 0)
(0.222227 0.0124814 0)
(0.208993 0.033038 0)
(0.181539 0.0520766 0)
(0.143334 0.065446 0)
(0.100641 0.0714643 0)
(0.0589287 0.068891 0)
(0.0185467 0.0667731 0)
(-0.0287351 -0.012338 0)
(-0.0255277 0.014336 0)
(-0.0370972 0.017585 0)
(-0.035722 0.00476186 0)
(-0.0280573 -0.0140773 0)
(-0.012889 -0.0301581 0)
(0.00812665 -0.0406708 0)
(0.0316308 -0.0471562 0)
(0.0566435 -0.0512568 0)
(0.0828732 -0.0540297 0)
(0.110298 -0.0556383 0)
(0.138702 -0.0553797 0)
(0.167155 -0.0519203 0)
(0.193582 -0.0436884 0)
(0.215001 -0.0298068 0)
(0.228352 -0.0101039 0)
(0.230867 0.0138996 0)
(0.219117 0.0402917 0)
(0.191724 0.0645006 0)
(0.151669 0.07903 0)
(0.106059 0.0805989 0)
(0.0590799 0.0749335 0)
(0.015469 0.0747651 0)
(-0.0281239 0.00430428 0)
(-0.0155665 0.00911502 0)
(-0.0250624 0.00742619 0)
(-0.0249315 -0.0058022 0)
(-0.0204107 -0.0274251 0)
(-0.00395602 -0.0459132 0)
(0.0178616 -0.0567289 0)
(0.0415857 -0.0629904 0)
(0.066698 -0.0664905 0)
(0.0925155 -0.0687313 0)
(0.119377 -0.0700598 0)
(0.14778 -0.0696772 0)
(0.177516 -0.0659132 0)
(0.20637 -0.0560965 0)
(0.231109 -0.0391291 0)
(0.247976 -0.0152666 0)
(0.25479 0.0145288 0)
(0.248002 0.0493217 0)
(0.225168 0.0805125 0)
(0.191918 0.0991351 0)
(0.151088 0.109972 0)
(0.0879897 0.113824 0)
(0.0232201 0.106196 0)
(0.000164993 0.00106955 0)
(0.0793461 0.00989471 0)
(0.102793 0.0285312 0)
(0.085877 0.00916526 0)
(0.0557018 -0.0136925 0)
(0.0436833 -0.0404212 0)
(0.0436207 -0.0575492 0)
(0.0564602 -0.0692574 0)
(0.0791946 -0.075884 0)
(0.10671 -0.079746 0)
(0.135547 -0.081865 0)
(0.164567 -0.081965 0)
(0.195306 -0.0786056 0)
(0.226783 -0.0687393 0)
(0.256329 -0.0493378 0)
(0.279381 -0.0198001 0)
(0.291705 0.0179136 0)
(0.29137 0.05649 0)
(0.280505 0.090126 0)
(0.260746 0.124799 0)
(0.23346 0.153432 0)
(0.175477 0.156435 0)
(0.128144 0.147315 0)
(0.0699576 -0.0281158 0)
(0.211153 -0.0299344 0)
(0.281222 0.0100206 0)
(0.295955 0.0128688 0)
(0.272262 -0.0106786 0)
(0.245219 -0.036062 0)
(0.220659 -0.0534709 0)
(0.196822 -0.0681426 0)
(0.177071 -0.0790207 0)
(0.163458 -0.0862669 0)
(0.156533 -0.0910826 0)
(0.170156 -0.0956458 0)
(0.200832 -0.0923843 0)
(0.235629 -0.0795724 0)
(0.269779 -0.0585416 0)
(0.301636 -0.0296579 0)
(0.321792 0.00723703 0)
(0.324529 0.0518079 0)
(0.314511 0.105999 0)
(0.301808 0.142493 0)
(0.30684 0.150471 0)
(0.283389 0.17514 0)
(0.223114 0.275322 0)
(0.0839556 -0.00402599 0)
(-0.120404 0.0415112 0)
(-0.262572 0.0112987 0)
(-0.211891 0.00168835 0)
(-0.185498 -0.00487723 0)
(-0.190112 -0.020673 0)
(-0.186362 -0.0283512 0)
(-0.147422 -0.0186251 0)
(-0.108 -0.00836818 0)
(-0.0870382 -0.00552331 0)
(-0.0873993 0.000877041 0)
(-0.117524 0.00191687 0)
(-0.134364 -0.00387126 0)
(-0.118865 -0.00931542 0)
(-0.0886066 -0.0104181 0)
(-0.0570677 -0.00900448 0)
(-0.0284303 -0.00303031 0)
(-0.038829 -0.0071793 0)
(0.0418797 0.00890211 0)
(-0.0182282 0.012106 0)
(-0.0456511 0.10624 0)
(-0.155129 0.0249006 0)
(0.0350014 -0.057257 0)
(0.145359 -0.00535951 0)
(0.200266 0.0200028 0)
(0.138983 0.0248994 0)
(-0.027835 -0.0174132 0)
(-0.0200618 -0.0204601 0)
(-0.0658767 -0.00754429 0)
(-0.0905113 0.0114111 0)
(-0.137592 0.0196773 0)
(-0.16787 0.00571683 0)
(-0.167554 -0.0131792 0)
(-0.145971 -0.0186293 0)
(-0.118946 -0.0137004 0)
(-0.0947809 -0.00681033 0)
(-0.0726694 -0.0180176 0)
(-0.019001 -0.00734239 0)
(-0.089286 0.0250419 0)
(-0.0570978 0.129024 0)
(-0.0962925 -0.01146 0)
(0.0687929 -0.124692 0)
(0.122381 -0.0641782 0)
(0.187529 -0.00826261 0)
(0.232954 0.0425887 0)
(0.283377 0.035447 0)
(0.268483 0.0204837 0)
(0.123564 0.0259456 0)
(-0.0405744 0.0432351 0)
(-0.138937 0.043607 0)
(-0.19488 0.0113021 0)
(-0.203082 -0.0199327 0)
(-0.176681 -0.0307469 0)
(-0.142356 -0.0297982 0)
(-0.103777 -0.0286158 0)
(-0.0664127 -0.041036 0)
(-0.0356068 -0.0390256 0)
(-0.124122 0.0624837 0)
(-0.0785683 0.119553 0)
(-0.0562327 -0.0455131 0)
(0.0745027 -0.15501 0)
(0.123386 -0.0713155 0)
(0.135048 -0.0248602 0)
(0.178445 -0.00948 0)
(0.211017 -0.00198765 0)
(0.225982 0.0357575 0)
(0.190215 0.0994743 0)
(0.0456522 0.105493 0)
(-0.103314 0.0755449 0)
(-0.148785 0.0268283 0)
(-0.141822 -0.0223622 0)
(-0.104581 -0.0471007 0)
(-0.0695865 -0.0476978 0)
(0.0054713 -0.0414025 0)
(0.0527747 -0.0422378 0)
(0.036332 -0.034394 0)
(-0.125213 0.100406 0)
(-0.0942148 0.105906 0)
(0.00791814 -0.0828028 0)
(0.0588235 -0.181961 0)
(0.188603 -0.0974946 0)
(0.257494 -0.015397 0)
(0.220761 -0.00761636 0)
(0.224977 0.0135179 0)
(0.212845 0.0435763 0)
(0.177863 0.109866 0)
(0.114155 0.155842 0)
(0.0282362 0.126149 0)
(0.00782878 0.031067 0)
(0.0811348 -0.0438283 0)
(0.104146 -0.0681312 0)
(0.103214 -0.0705804 0)
(0.128815 -0.0678081 0)
(0.117048 -0.0483878 0)
(0.0839867 -0.00483719 0)
(-0.110468 0.139164 0)
(-0.0721013 0.0848605 0)
(0.0598213 -0.12401 0)
(0.0961594 -0.233357 0)
(0.232319 -0.177379 0)
(0.388746 -0.0417281 0)
(0.448424 0.00336529 0)
(0.394515 0.0222056 0)
(0.309752 0.0588494 0)
(0.232167 0.139329 0)
(0.194291 0.197465 0)
(0.176699 0.13651 0)
(0.21158 0.0179321 0)
(0.20208 -0.0480384 0)
(0.188393 -0.0590337 0)
(0.176142 -0.0614404 0)
(0.173774 -0.0622024 0)
(0.142205 -0.031246 0)
(0.0892795 0.0495308 0)
(-0.0764262 0.163265 0)
(0.00732359 0.0522506 0)
(0.134633 -0.142545 0)
(0.183514 -0.269801 0)
(0.253034 -0.248762 0)
(0.392227 -0.111524 0)
(0.50938 0.010903 0)
(0.421009 0.0722616 0)
(0.25096 0.100539 0)
(0.212846 0.159091 0)
(0.188149 0.189002 0)
(0.211866 0.113672 0)
(0.234518 0.0224018 0)
(0.216157 -0.03832 0)
(0.198995 -0.0558843 0)
(0.188199 -0.0597774 0)
(0.174793 -0.0557847 0)
(0.128063 -0.00802112 0)
(0.0630609 0.0916952 0)
(-0.0122213 0.156152 0)
(0.235525 -0.0218847 0)
(0.30253 -0.16462 0)
(0.292556 -0.275298 0)
(0.29616 -0.280009 0)
(0.364441 -0.17517 0)
(0.526409 0.0227568 0)
(0.47643 0.128747 0)
(0.290569 0.147527 0)
(0.207119 0.164372 0)
(0.195037 0.16879 0)
(0.245886 0.0926801 0)
(0.287947 0.021622 0)
(0.280767 -0.0261582 0)
(0.249489 -0.0498637 0)
(0.219813 -0.0535755 0)
(0.177194 -0.0362204 0)
(0.0920432 0.0271983 0)
(0.0514109 0.121775 0)
(0.17938 -0.243822 0)
(0.332325 -0.134854 0)
(0.444718 -0.0205794 0)
(0.477581 0.0357978 0)
(0.45374 0.0244633 0)
(0.402426 -0.0106481 0)
(0.346587 -0.037701 0)
(0.298563 -0.0570016 0)
(0.260267 -0.0689418 0)
(0.229736 -0.0778214 0)
(0.205062 -0.0876948 0)
(0.183271 -0.106122 0)
(0.166663 -0.122795 0)
(0.160669 -0.124534 0)
(0.174517 -0.109376 0)
(0.208284 -0.0692829 0)
(0.248032 -0.0105756 0)
(0.290797 0.0504948 0)
(0.339722 0.089977 0)
(0.393637 0.107548 0)
(0.448721 0.123649 0)
(0.514872 0.155081 0)
(0.597874 0.251333 0)
(0.103024 -0.481184 0)
(0.268228 -0.293202 0)
(0.391815 -0.106436 0)
(0.459042 -0.004902 0)
(0.509669 0.0364145 0)
(0.548057 0.0525973 0)
(0.553586 0.0521327 0)
(0.500935 0.0246317 0)
(0.411783 -0.00291558 0)
(0.302619 -0.0319145 0)
(0.205949 -0.0494584 0)
(0.137418 -0.0574075 0)
(0.0951677 -0.067411 0)
(0.0816993 -0.0795569 0)
(0.112724 -0.102157 0)
(0.181816 -0.0993885 0)
(0.265502 -0.0638593 0)
(0.349759 -0.0179397 0)
(0.428225 0.0236449 0)
(0.498932 0.0520338 0)
(0.560722 0.0707903 0)
(0.616744 0.0856214 0)
(0.68349 0.0905021 0)
(0.0483435 -0.628048 0)
(0.177001 -0.448372 0)
(0.299918 -0.179867 0)
(0.315111 -0.0811475 0)
(0.363416 -0.0638115 0)
(0.474516 -0.0587673 0)
(0.603193 0.00571115 0)
(0.67226 0.0799261 0)
(0.646711 0.12638 0)
(0.554923 0.119761 0)
(0.414111 0.0886349 0)
(0.240403 0.02348 0)
(0.120856 -0.0503192 0)
(0.0842456 -0.11119 0)
(0.131043 -0.192208 0)
(0.216379 -0.219236 0)
(0.309836 -0.182527 0)
(0.403239 -0.126397 0)
(0.488723 -0.0735558 0)
(0.562295 -0.0301906 0)
(0.62428 0.00253209 0)
(0.677404 0.0259925 0)
(0.731986 0.0420717 0)
(0.00948658 -0.692811 0)
(0.0545894 -0.568354 0)
(0.167651 -0.168129 0)
(0.142952 -0.0645004 0)
(0.245342 -0.151341 0)
(0.379272 -0.211592 0)
(0.517747 -0.143725 0)
(0.650028 -0.000245712 0)
(0.710455 0.125706 0)
(0.679175 0.200247 0)
(0.544839 0.240547 0)
(0.33233 0.220828 0)
(0.147569 0.0864609 0)
(0.106099 -0.0942424 0)
(0.17783 -0.267918 0)
(0.247 -0.306507 0)
(0.313953 -0.264566 0)
(0.384457 -0.201922 0)
(0.450884 -0.140761 0)
(0.5105 -0.0895134 0)
(0.562315 -0.0500824 0)
(0.607232 -0.0200656 0)
(0.648312 0.000814106 0)
(-0.0164425 -0.686264 0)
(-0.044454 -0.610579 0)
(0.00363552 -0.151349 0)
(0.0828956 -0.175414 0)
(0.19843 -0.313477 0)
(0.30115 -0.349575 0)
(0.405694 -0.283632 0)
(0.535764 -0.115542 0)
(0.618349 0.0726395 0)
(0.603249 0.240382 0)
(0.465873 0.429971 0)
(0.284655 0.406109 0)
(0.208809 0.158989 0)
(0.219828 -0.104265 0)
(0.263495 -0.318524 0)
(0.279542 -0.355344 0)
(0.301798 -0.315871 0)
(0.333147 -0.255102 0)
(0.368653 -0.192363 0)
(0.403073 -0.135459 0)
(0.433922 -0.0901873 0)
(0.462669 -0.0551813 0)
(0.49434 -0.0286262 0)
(-0.0280218 -0.643472 0)
(-0.0806415 -0.589954 0)
(-0.0417652 -0.276802 0)
(0.0996937 -0.301676 0)
(0.135777 -0.385747 0)
(0.185759 -0.422042 0)
(0.233522 -0.380519 0)
(0.330387 -0.206262 0)
(0.434533 0.0962617 0)
(0.392148 0.376259 0)
(0.34027 0.539948 0)
(0.291288 0.499478 0)
(0.292702 0.156305 0)
(0.313048 -0.130317 0)
(0.312447 -0.312886 0)
(0.287514 -0.347524 0)
(0.268607 -0.314824 0)
(0.262711 -0.262368 0)
(0.271168 -0.205665 0)
(0.287175 -0.152798 0)
(0.30682 -0.111045 0)
(0.328218 -0.0796512 0)
(0.355036 -0.0556998 0)
(-0.0269349 -0.595982 0)
(-0.0698129 -0.572956 0)
(-0.0277915 -0.389297 0)
(0.0751259 -0.340101 0)
(0.0572073 -0.399542 0)
(0.0603641 -0.438277 0)
(0.0462573 -0.420497 0)
(0.0676414 -0.248 0)
(0.166551 0.048508 0)
(0.255156 0.357066 0)
(0.303562 0.517048 0)
(0.350746 0.476725 0)
(0.383776 0.158097 0)
(0.377983 -0.14742 0)
(0.34526 -0.281064 0)
(0.291093 -0.307515 0)
(0.242599 -0.283179 0)
(0.212946 -0.244885 0)
(0.206734 -0.20009 0)
(0.216188 -0.156937 0)
(0.237146 -0.123294 0)
(0.261577 -0.0940395 0)
(0.288728 -0.0696029 0)
(-0.0198499 -0.557489 0)
(-0.0449754 -0.561284 0)
(-0.0293517 -0.451475 0)
(0.0372641 -0.352164 0)
(0.0133 -0.382856 0)
(-0.00497135 -0.416671 0)
(-0.0419438 -0.402146 0)
(-0.061765 -0.280377 0)
(0.031656 -0.059629 0)
(0.161932 0.221588 0)
(0.30851 0.427246 0)
(0.415748 0.406588 0)
(0.493367 0.169812 0)
(0.455169 -0.102181 0)
(0.398197 -0.21218 0)
(0.323983 -0.250004 0)
(0.255413 -0.245664 0)
(0.212889 -0.234264 0)
(0.198184 -0.2154 0)
(0.209002 -0.19476 0)
(0.239892 -0.1713 0)
(0.277981 -0.141788 0)
(0.314952 -0.111939 0)
(-0.00980608 -0.534742 0)
(-0.0253212 -0.545126 0)
(-0.0404698 -0.481251 0)
(0.00420936 -0.369938 0)
(0.0109363 -0.368951 0)
(0.000267296 -0.391788 0)
(-0.0255235 -0.380864 0)
(-0.046903 -0.312337 0)
(-0.00728933 -0.176109 0)
(0.127062 0.0740472 0)
(0.271101 0.237162 0)
(0.413883 0.280007 0)
(0.47841 0.115085 0)
(0.464214 -0.0606478 0)
(0.426185 -0.147457 0)
(0.354209 -0.180949 0)
(0.277817 -0.186657 0)
(0.227287 -0.194331 0)
(0.213331 -0.205872 0)
(0.232617 -0.213377 0)
(0.272059 -0.205796 0)
(0.31428 -0.177972 0)
(0.350228 -0.134526 0)
(0.00232094 -0.537284 0)
(-0.0109008 -0.534669 0)
(-0.0503354 -0.493346 0)
(-0.0183721 -0.409925 0)
(0.0178403 -0.386241 0)
(0.0311801 -0.383297 0)
(0.0280435 -0.364567 0)
(0.0183654 -0.306095 0)
(0.0197809 -0.234584 0)
(0.100757 -0.0602239 0)
(0.241205 0.121419 0)
(0.370694 0.17741 0)
(0.457876 0.0838886 0)
(0.462928 -0.0304636 0)
(0.413186 -0.086565 0)
(0.33771 -0.0975104 0)
(0.299614 -0.113746 0)
(0.322895 -0.159901 0)
(0.379919 -0.206244 0)
(0.451455 -0.230347 0)
(0.536774 -0.227497 0)
(0.621508 -0.186968 0)
(0.678993 -0.109051 0)
(0.0152939 -0.546628 0)
(-0.000213025 -0.524543 0)
(-0.0572192 -0.502568 0)
(-0.0275557 -0.456477 0)
(0.022174 -0.427474 0)
(0.0565943 -0.40417 0)
(0.0783531 -0.36874 0)
(0.0898361 -0.305718 0)
(0.0976164 -0.237603 0)
(0.114929 -0.149166 0)
(0.205522 -0.0121985 0)
(0.321966 0.05787 0)
(0.399672 0.0363507 0)
(0.426194 0.000211075 0)
(0.445677 -0.0376689 0)
(0.507916 -0.101398 0)
(0.611824 -0.19042 0)
(0.729053 -0.278536 0)
(0.845805 -0.347438 0)
(0.961961 -0.391707 0)
(1.08466 -0.418335 0)
(1.21641 -0.43022 0)
(1.33918 -0.40243 0)
(-0.00195991 -0.494799 0)
(0.0097555 -0.386707 0)
(-0.0777327 -0.417919 0)
(-0.0501888 -0.48989 0)
(0.0191584 -0.463937 0)
(0.0722154 -0.433952 0)
(0.110874 -0.395458 0)
(0.148149 -0.33654 0)
(0.188311 -0.266079 0)
(0.234504 -0.184176 0)
(0.30568 -0.0956624 0)
(0.410937 -0.035697 0)
(0.533172 -0.0308589 0)
(0.654793 -0.0650657 0)
(0.760729 -0.122893 0)
(0.85215 -0.201348 0)
(0.921929 -0.284855 0)
(0.984003 -0.360234 0)
(1.0459 -0.417973 0)
(1.10767 -0.455648 0)
(1.16782 -0.479865 0)
(1.23153 -0.500675 0)
(1.29441 -0.517737 0)
(0.0271089 -0.556916 0)
(0.18083 -0.526725 0)
(0.383064 -0.40327 0)
(0.41344 -0.489616 0)
(0.225356 -0.453184 0)
(-0.0102667 -0.435463 0)
(0.080663 -0.43321 0)
(0.163227 -0.373859 0)
(0.233672 -0.321527 0)
(0.308814 -0.272101 0)
(0.404482 -0.225041 0)
(0.524241 -0.199078 0)
(0.656349 -0.209997 0)
(0.794188 -0.246338 0)
(0.941742 -0.280328 0)
(1.04541 -0.283881 0)
(1.07444 -0.33187 0)
(1.092 -0.398203 0)
(1.13349 -0.462892 0)
(1.17954 -0.506627 0)
(1.18941 -0.534526 0)
(1.17003 -0.634075 0)
(0.82362 -0.734451 0)
(0.0517325 -0.666059 0)
(0.166095 -0.771229 0)
(0.319979 -0.652629 0)
(0.485544 -0.448552 0)
(0.552819 -0.310541 0)
(0.535486 -0.327186 0)
(0.419632 -0.480873 0)
(0.196682 -0.423845 0)
(0.0700911 -0.360212 0)
(0.268608 -0.33004 0)
(0.37907 -0.295327 0)
(0.483168 -0.283107 0)
(0.593366 -0.295537 0)
(0.714365 -0.32359 0)
(0.825599 -0.346808 0)
(0.902656 -0.34302 0)
(1.02473 -0.34558 0)
(1.08547 -0.444157 0)
(0.925614 -0.536638 0)
(0.834164 -0.544562 0)
(0.719913 -0.538081 0)
(0.3058 -0.23195 0)
(-0.322833 0.369127 0)
(0.0632386 -0.772538 0)
(0.128409 -0.883481 0)
(0.199806 -0.785157 0)
(0.311111 -0.581055 0)
(0.413282 -0.403565 0)
(0.485719 -0.31684 0)
(0.521229 -0.274673 0)
(0.53002 -0.266258 0)
(0.529082 -0.354679 0)
(0.477948 -0.544231 0)
(0.436292 -0.447538 0)
(0.47028 -0.410274 0)
(0.555968 -0.435832 0)
(0.638492 -0.496201 0)
(0.688377 -0.543311 0)
(0.805723 -0.426862 0)
(0.78867 -0.385231 0)
(0.565154 -0.346806 0)
(0.367162 -0.360949 0)
(0.0915289 -0.22497 0)
(-0.300128 0.0977402 0)
(-0.475991 0.236942 0)
(-0.595179 0.343021 0)
(0.0563427 -0.855489 0)
(0.0808824 -0.932035 0)
(0.0927801 -0.838554 0)
(0.132959 -0.632132 0)
(0.179145 -0.491304 0)
(0.242024 -0.417648 0)
(0.294893 -0.367522 0)
(0.33937 -0.323829 0)
(0.363442 -0.315647 0)
(0.347477 -0.358635 0)
(0.300573 -0.391066 0)
(0.274975 -0.426579 0)
(0.235607 -0.481645 0)
(0.165707 -0.516468 0)
(0.0125087 -0.547325 0)
(-0.114171 -0.35163 0)
(-0.216132 -0.0909594 0)
(-0.297806 -0.0663356 0)
(-0.403984 -0.0716883 0)
(-0.514707 -0.000549911 0)
(-0.568242 0.0982701 0)
(-0.613245 0.232329 0)
(-0.630452 0.348073 0)
(0.0351401 -0.907731 0)
(0.0293198 -0.928872 0)
(-0.0246904 -0.819082 0)
(-0.0513715 -0.638689 0)
(-0.0405514 -0.535412 0)
(-0.0174163 -0.464137 0)
(-0.0015546 -0.407424 0)
(0.0092385 -0.365856 0)
(0.000338004 -0.349222 0)
(-0.0355352 -0.348975 0)
(-0.11825 -0.349107 0)
(-0.198432 -0.356263 0)
(-0.299159 -0.330546 0)
(-0.387362 -0.303314 0)
(-0.487658 -0.286393 0)
(-0.552421 -0.258964 0)
(-0.564804 -0.190275 0)
(-0.565504 -0.117101 0)
(-0.591138 -0.0533985 0)
(-0.622038 0.0316562 0)
(-0.631431 0.135405 0)
(-0.620544 0.230054 0)
(-0.585609 0.300617 0)
(0.00141026 -0.914659 0)
(-0.0508268 -0.864823 0)
(-0.147537 -0.744139 0)
(-0.204452 -0.613007 0)
(-0.23997 -0.52303 0)
(-0.27278 -0.447257 0)
(-0.308569 -0.381775 0)
(-0.349554 -0.326441 0)
(-0.399971 -0.280728 0)
(-0.456702 -0.244237 0)
(-0.510014 -0.232467 0)
(-0.544456 -0.254651 0)
(-0.566493 -0.285279 0)
(-0.588896 -0.295441 0)
(-0.616592 -0.272297 0)
(-0.638602 -0.213591 0)
(-0.645518 -0.148211 0)
(-0.644413 -0.0935702 0)
(-0.643138 -0.0373973 0)
(-0.636052 0.034723 0)
(-0.615727 0.117011 0)
(-0.577712 0.190586 0)
(-0.527318 0.238484 0)
(-0.0349237 -0.861275 0)
(-0.124773 -0.76775 0)
(-0.241964 -0.649506 0)
(-0.330669 -0.54303 0)
(-0.409429 -0.454682 0)
(-0.482621 -0.373443 0)
(-0.548618 -0.302216 0)
(-0.602818 -0.249629 0)
(-0.63673 -0.22526 0)
(-0.645692 -0.228661 0)
(-0.639601 -0.24748 0)
(-0.633687 -0.266466 0)
(-0.634149 -0.27648 0)
(-0.639206 -0.274582 0)
(-0.644425 -0.255822 0)
(-0.644709 -0.21809 0)
(-0.638433 -0.168359 0)
(-0.628576 -0.11359 0)
(-0.616591 -0.0535057 0)
(-0.598373 0.0131606 0)
(-0.56783 0.0810954 0)
(-0.524586 0.139496 0)
(-0.477776 0.178862 0)
(-0.0602 -0.762854 0)
(-0.171314 -0.647025 0)
(-0.301566 -0.537156 0)
(-0.408221 -0.447261 0)
(-0.501446 -0.371853 0)
(-0.576361 -0.309576 0)
(-0.628342 -0.265422 0)
(-0.656397 -0.241192 0)
(-0.664684 -0.234197 0)
(-0.659587 -0.240704 0)
(-0.647193 -0.256952 0)
(-0.633006 -0.275048 0)
(-0.621363 -0.28495 0)
(-0.613752 -0.280124 0)
(-0.608239 -0.258694 0)
(-0.601714 -0.222968 0)
(-0.59257 -0.177754 0)
(-0.580842 -0.126806 0)
(-0.565926 -0.0711933 0)
(-0.545342 -0.0122866 0)
(-0.515438 0.0452303 0)
(-0.477534 0.0942558 0)
(-0.439673 0.130099 0)
(-0.0719009 -0.641451 0)
(-0.187561 -0.518284 0)
(-0.318113 -0.420439 0)
(-0.423551 -0.348763 0)
(-0.509843 -0.293433 0)
(-0.573384 -0.252395 0)
(-0.614092 -0.228103 0)
(-0.633589 -0.221807 0)
(-0.63513 -0.231562 0)
(-0.623711 -0.251664 0)
(-0.605535 -0.274273 0)
(-0.586508 -0.291656 0)
(-0.570657 -0.297863 0)
(-0.559246 -0.289687 0)
(-0.551 -0.267008 0)
(-0.543659 -0.232313 0)
(-0.535476 -0.189105 0)
(-0.525363 -0.140353 0)
(-0.512066 -0.0881903 0)
(-0.493746 -0.0351902 0)
(-0.468888 0.0152015 0)
(-0.438517 0.058381 0)
(-0.40922 0.0922496 0)
(-0.0726616 -0.516447 0)
(-0.180119 -0.393755 0)
(-0.30227 -0.309578 0)
(-0.399205 -0.257192 0)
(-0.476079 -0.223882 0)
(-0.530311 -0.206116 0)
(-0.562533 -0.204325 0)
(-0.575073 -0.217264 0)
(-0.571764 -0.241048 0)
(-0.557649 -0.269433 0)
(-0.538573 -0.294838 0)
(-0.520029 -0.310423 0)
(-0.505564 -0.312207 0)
(-0.495981 -0.299545 0)
(-0.489895 -0.27421 0)
(-0.485137 -0.239104 0)
(-0.479816 -0.197158 0)
(-0.472528 -0.150813 0)
(-0.462127 -0.102222 0)
(-0.447502 -0.0538568 0)
(-0.427995 -0.00854579 0)
(-0.404499 0.0305707 0)
(-0.381964 0.0628973 0)
(-0.0669857 -0.400666 0)
(-0.158881 -0.28121 0)
(-0.267507 -0.209292 0)
(-0.352798 -0.17532 0)
(-0.419074 -0.162938 0)
(-0.464638 -0.166325 0)
(-0.490396 -0.184141 0)
(-0.498689 -0.213924 0)
(-0.493293 -0.25043 0)
(-0.479261 -0.286105 0)
(-0.462384 -0.313037 0)
(-0.447722 -0.325698 0)
(-0.437929 -0.322612 0)
(-0.432903 -0.305603 0)
(-0.43086 -0.277833 0)
(-0.429708 -0.242378 0)
(-0.427725 -0.201736 0)
(-0.423606 -0.157909 0)
(-0.416381 -0.11277 0)
(-0.405376 -0.0683767 0)
(-0.390394 -0.0270453 0)
(-0.372788 0.00911668 0)
(-0.355374 0.0399942 0)
(-0.0585924 -0.300691 0)
(-0.131662 -0.185162 0)
(-0.22333 -0.122759 0)
(-0.295176 -0.104742 0)
(-0.350706 -0.11128 0)
(-0.388517 -0.133645 0)
(-0.409523 -0.168853 0)
(-0.41572 -0.213009 0)
(-0.410609 -0.259651 0)
(-0.399034 -0.30024 0)
(-0.386574 -0.326831 0)
(-0.377643 -0.335527 0)
(-0.373754 -0.327542 0)
(-0.373852 -0.306853 0)
(-0.375919 -0.277421 0)
(-0.378167 -0.242134 0)
(-0.379234 -0.203047 0)
(-0.378065 -0.161802 0)
(-0.37387 -0.119926 0)
(-0.366184 -0.079051 0)
(-0.355136 -0.0410103 0)
(-0.342033 -0.00735081 0)
(-0.328701 0.0220614 0)
(-0.0499014 -0.21821 0)
(-0.105104 -0.107429 0)
(-0.178368 -0.0515959 0)
(-0.23564 -0.0456028 0)
(-0.280845 -0.0678259 0)
(-0.31187 -0.1058 0)
(-0.329666 -0.155346 0)
(-0.335445 -0.211386 0)
(-0.33211 -0.266136 0)
(-0.324216 -0.309912 0)
(-0.3171 -0.33486 0)
(-0.3143 -0.339184 0)
(-0.316037 -0.326924 0)
(-0.320553 -0.303674 0)
(-0.325972 -0.273527 0)
(-0.330969 -0.238929 0)
(-0.334535 -0.201587 0)
(-0.335862 -0.162903 0)
(-0.334348 -0.124091 0)
(-0.329625 -0.0864074 0)
(-0.321811 -0.0512759 0)
(-0.312135 -0.0199203 0)
(-0.302147 0.00793228 0)
(-0.0415507 -0.151949 0)
(-0.082677 -0.0470666 0)
(-0.139453 0.00330097 0)
(-0.182004 0.00143422 0)
(-0.217645 -0.0326167 0)
(-0.242433 -0.0823409 0)
(-0.257646 -0.142866 0)
(-0.263494 -0.208335 0)
(-0.262141 -0.269375 0)
(-0.257974 -0.314859 0)
(-0.25611 -0.337207 0)
(-0.258882 -0.337249 0)
(-0.26522 -0.321702 0)
(-0.273106 -0.297011 0)
(-0.281088 -0.266889 0)
(-0.288237 -0.233326 0)
(-0.293766 -0.197834 0)
(-0.297052 -0.161644 0)
(-0.29768 -0.125724 0)
(-0.295405 -0.0909751 0)
(-0.290327 -0.0584738 0)
(-0.283427 -0.0292371 0)
(-0.276027 -0.00305393 0)
(-0.0337778 -0.0998481 0)
(-0.0641386 0.000379257 0)
(-0.107925 0.0449391 0)
(-0.137174 0.0375485 0)
(-0.164742 -0.00477271 0)
(-0.184584 -0.0632076 0)
(-0.196774 -0.131711 0)
(-0.201932 -0.2044 0)
(-0.201612 -0.270005 0)
(-0.200486 -0.315686 0)
(-0.203311 -0.334602 0)
(-0.210703 -0.330769 0)
(-0.220488 -0.313013 0)
(-0.230849 -0.287785 0)
(-0.240805 -0.258214 0)
(-0.249647 -0.225971 0)
(-0.25673 -0.192401 0)
(-0.261589 -0.158568 0)
(-0.263919 -0.125295 0)
(-0.263585 -0.0932632 0)
(-0.260717 -0.0632137 0)
(-0.256097 -0.0359639 0)
(-0.250726 -0.0114828 0)
(-0.0268268 -0.0614666 0)
(-0.0467742 0.0345851 0)
(-0.0817526 0.0724512 0)
(-0.102856 0.0613494 0)
(-0.122326 0.0160085 0)
(-0.138013 -0.0484133 0)
(-0.146768 -0.122901 0)
(-0.14995 -0.200903 0)
(-0.149417 -0.269192 0)
(-0.150751 -0.313181 0)
(-0.157727 -0.327847 0)
(-0.168731 -0.320769 0)
(-0.180998 -0.301788 0)
(-0.193202 -0.276632 0)
(-0.20467 -0.247941 0)
(-0.214813 -0.217221 0)
(-0.223089 -0.185663 0)
(-0.229158 -0.154152 0)
(-0.232824 -0.123327 0)
(-0.234016 -0.0937247 0)
(-0.232918 -0.065925 0)
(-0.230204 -0.0405529 0)
(-0.226536 -0.0176918 0)
(-0.0231304 -0.0297776 0)
(-0.038505 0.0622837 0)
(-0.0656716 0.0942429 0)
(-0.0792353 0.0786068 0)
(-0.0917811 0.0299405 0)
(-0.100977 -0.0383184 0)
(-0.105476 -0.117397 0)
(-0.105392 -0.199091 0)
(-0.103922 -0.267793 0)
(-0.107838 -0.307758 0)
(-0.118521 -0.317592 0)
(-0.13219 -0.308107 0)
(-0.146248 -0.28869 0)
(-0.159832 -0.264016 0)
(-0.1724 -0.236444 0)
(-0.18347 -0.207375 0)
(-0.192608 -0.17786 0)
(-0.199577 -0.148622 0)
(-0.204273 -0.120129 0)
(-0.206695 -0.0927613 0)
(-0.207014 -0.0669976 0)
(-0.205838 -0.0433956 0)
(-0.203648 -0.0220874 0)
(-0.0197018 -0.00348085 0)
(-0.0309059 0.0825528 0)
(-0.0517161 0.108289 0)
(-0.0593 0.0891984 0)
(-0.0661254 0.0377861 0)
(-0.0698923 -0.0336362 0)
(-0.0698208 -0.116013 0)
(-0.0656807 -0.199544 0)
(-0.0638939 -0.265728 0)
(-0.0712013 -0.299299 0)
(-0.0849989 -0.304431 0)
(-0.100496 -0.293504 0)
(-0.115846 -0.274218 0)
(-0.130398 -0.250367 0)
(-0.143668 -0.224135 0)
(-0.1553 -0.196822 0)
(-0.16498 -0.169345 0)
(-0.172571 -0.142282 0)
(-0.178034 -0.115976 0)
(-0.181403 -0.0906852 0)
(-0.182853 -0.0667664 0)
(-0.182917 -0.0447455 0)
(-0.181991 -0.0248719 0)
(-0.0161121 0.0181714 0)
(-0.0231634 0.0980732 0)
(-0.0384663 0.117248 0)
(-0.0413167 0.0944365 0)
(-0.0436096 0.0403651 0)
(-0.0424871 -0.0339214 0)
(-0.0370191 -0.11902 0)
(-0.0288145 -0.202116 0)
(-0.0291355 -0.261848 0)
(-0.0404715 -0.287569 0)
(-0.05648 -0.289081 0)
(-0.0731321 -0.277571 0)
(-0.0893362 -0.258817 0)
(-0.104467 -0.236079 0)
(-0.118086 -0.211373 0)
(-0.12996 -0.18588 0)
(-0.139911 -0.160394 0)
(-0.147888 -0.135376 0)
(-0.153909 -0.111085 0)
(-0.158036 -0.0876873 0)
(-0.16042 -0.0654475 0)
(-0.161524 -0.0448575 0)
(-0.16165 -0.026311 0)
(-0.0131934 0.033908 0)
(-0.0136826 0.107919 0)
(-0.0241862 0.122385 0)
(-0.0236537 0.095516 0)
(-0.0225199 0.038376 0)
(-0.016413 -0.0390006 0)
(-0.00431832 -0.126878 0)
(0.00526734 -0.20581 0)
(-0.000184191 -0.254287 0)
(-0.0149336 -0.272812 0)
(-0.0322367 -0.272326 0)
(-0.0495565 -0.260817 0)
(-0.0661876 -0.242885 0)
(-0.0815534 -0.221495 0)
(-0.0952449 -0.19846 0)
(-0.107111 -0.174817 0)
(-0.117115 -0.151235 0)
(-0.125287 -0.128106 0)
(-0.131691 -0.105645 0)
(-0.136396 -0.0839707 0)
(-0.139535 -0.0632729 0)
(-0.141492 -0.0439753 0)
(-0.14248 -0.0265799 0)
(-0.0137828 0.0444751 0)
(-0.00361336 0.108818 0)
(-0.00751806 0.124834 0)
(-0.00507556 0.0938173 0)
(-0.000902834 0.0329006 0)
(0.0121982 -0.0508632 0)
(0.0288897 -0.13984 0)
(0.0335575 -0.205709 0)
(0.0232762 -0.241692 0)
(0.0067536 -0.255876 0)
(-0.0114197 -0.254705 0)
(-0.0291635 -0.243596 0)
(-0.0458779 -0.226738 0)
(-0.0611908 -0.206882 0)
(-0.0747482 -0.185621 0)
(-0.0864381 -0.163825 0)
(-0.0963357 -0.142045 0)
(-0.104552 -0.120636 0)
(-0.111195 -0.099809 0)
(-0.11634 -0.0796768 0)
(-0.120083 -0.0603715 0)
(-0.122752 -0.0422388 0)
(-0.124511 -0.0258606 0)
(-0.00949629 0.052138 0)
(0.0049227 0.101214 0)
(0.00909103 0.123584 0)
(0.0151402 0.0895877 0)
(0.0218632 0.0212563 0)
(0.0451555 -0.0681809 0)
(0.0574009 -0.147035 0)
(0.0546676 -0.199218 0)
(0.0419771 -0.227436 0)
(0.0252504 -0.23818 0)
(0.00703155 -0.236572 0)
(-0.0113797 -0.226133 0)
(-0.0280212 -0.210602 0)
(-0.0430251 -0.192449 0)
(-0.0562685 -0.173016 0)
(-0.0676706 -0.153041 0)
(-0.0773554 -0.132959 0)
(-0.0854974 -0.1131 0)
(-0.0922538 -0.0937127 0)
(-0.0977077 -0.0749375 0)
(-0.101937 -0.0568768 0)
(-0.1052 -0.0398015 0)
(-0.107599 -0.0243154 0)
(-0.00229801 0.0493045 0)
(0.0126737 0.0895248 0)
(0.0206425 0.114989 0)
(0.0355343 0.0812383 0)
(0.0476797 0.00325498 0)
(0.0735585 -0.0839821 0)
(0.0775794 -0.147732 0)
(0.0706927 -0.18969 0)
(0.0572871 -0.212553 0)
(0.0404207 -0.220659 0)
(0.022299 -0.218232 0)
(0.00442433 -0.208837 0)
(-0.0123322 -0.194703 0)
(-0.0268319 -0.178369 0)
(-0.0395645 -0.160785 0)
(-0.0505876 -0.142563 0)
(-0.0599896 -0.124072 0)
(-0.0679633 -0.105612 0)
(-0.0747177 -0.0874753 0)
(-0.0803672 -0.0698697 0)
(-0.0849699 -0.0529066 0)
(-0.0887341 -0.036778 0)
(-0.0917066 -0.0220573 0)
(0.00368247 0.0404821 0)
(0.0229024 0.0777 0)
(0.0282966 0.100212 0)
(0.0524006 0.0636659 0)
(0.074954 -0.0173288 0)
(0.090851 -0.0916412 0)
(0.0913983 -0.145026 0)
(0.0828747 -0.179141 0)
(0.0690042 -0.197311 0)
(0.0522376 -0.203215 0)
(0.034583 -0.20037 0)
(0.0174895 -0.191764 0)
(0.00168124 -0.179503 0)
(-0.0124213 -0.164829 0)
(-0.024481 -0.149048 0)
(-0.0349939 -0.132476 0)
(-0.0440574 -0.115451 0)
(-0.0518063 -0.0982597 0)
(-0.0584604 -0.0812055 0)
(-0.064188 -0.0645781 0)
(-0.0690659 -0.0485497 0)
(-0.0732218 -0.0332583 0)
(-0.0766722 -0.0191873 0)
(0.00601995 0.0233548 0)
(0.0309853 0.0653344 0)
(0.0368196 0.0814192 0)
(0.066764 0.0375516 0)
(0.0916869 -0.035241 0)
(0.10188 -0.0965629 0)
(0.100234 -0.140258 0)
(0.0906952 -0.167669 0)
(0.0766727 -0.181954 0)
(0.0605213 -0.186247 0)
(0.0439642 -0.183395 0)
(0.0281256 -0.175735 0)
(0.0136424 -0.165005 0)
(0.000612529 -0.152207 0)
(-0.0108567 -0.137915 0)
(-0.0207336 -0.122848 0)
(-0.0293724 -0.107151 0)
(-0.0368653 -0.091113 0)
(-0.0433661 -0.0750048 0)
(-0.0490694 -0.0591762 0)
(-0.0541235 -0.0439121 0)
(-0.0585956 -0.0293327 0)
(-0.0624598 -0.0158124 0)
(0.00448002 0.00235665 0)
(0.0309909 0.0490313 0)
(0.0455057 0.0587953 0)
(0.0781485 0.00980435 0)
(0.0992216 -0.0508629 0)
(0.106001 -0.0993743 0)
(0.102843 -0.134044 0)
(0.0931429 -0.155877 0)
(0.0798843 -0.167203 0)
(0.0652026 -0.170481 0)
(0.0504713 -0.167909 0)
(0.0364985 -0.161254 0)
(0.0236607 -0.151794 0)
(0.0120699 -0.140433 0)
(0.00166291 -0.127677 0)
(-0.00765983 -0.113715 0)
(-0.015771 -0.0992061 0)
(-0.0229648 -0.0842071 0)
(-0.0293044 -0.0689623 0)
(-0.0349325 -0.0537882 0)
(-0.0400429 -0.0390958 0)
(-0.0447339 -0.0250461 0)
(-0.048949 -0.0119393 0)
(0.00386105 -0.0140885 0)
(0.0266111 0.02724 0)
(0.0509263 0.030316 0)
(0.0816624 -0.0161667 0)
(0.0979631 -0.0628508 0)
(0.10225 -0.100402 0)
(0.0985438 -0.127556 0)
(0.0897862 -0.14496 0)
(0.0783755 -0.154132 0)