/*--------------------------------*- C++ -*----------------------------------*\
| =========                 |                                                 |
| \\      /  F ield         | OpenFOAM: The Open Source CFD Toolbox           |
|  \\    /   O peration     | Version:  2312                                  |
|   \\  /    A nd           | Website:  www.openfoam.com                      |
|    \\/     M anipulation  |                                                 |
\*---------------------------------------------------------------------------*/
FoamFile
{
    version     2.0;
    format      ascii;
    arch        "LSB;label=32;scalar=64";
    class       volScalarField;
    location    "2.75";
    object      alpha.water_0;
}
// * * * * * * * * * * * * * * * * * * * * * * * * * * * * * * * * * * * * * //

dimensions      [0 0 0 0 0 0 0];

internalField   nonuniform List<scalar> 
2268
(
1.89301e-07
4.50738e-08
4.21915e-09
7.50514e-10
3.54414e-10
2.20768e-10
1.14911e-10
6.72308e-11
4.9344e-11
3.85272e-11
3.32952e-11
3.19741e-11
3.23257e-11
3.4327e-11
3.98042e-11
4.83409e-11
6.38327e-11
9.6049e-11
1.53657e-10
2.46673e-10
4.92674e-10
8.84649e-10
1.2202e-09
5.81063e-07
2.34612e-07
1.14977e-08
6.98112e-10
3.36899e-10
1.79859e-10
1.73823e-10
1.67826e-10
1.23767e-10
7.95608e-11
5.70592e-11
4.61935e-11
4.35112e-11
4.63749e-11
6.00948e-11
8.0426e-11
1.04101e-10
1.61585e-10
2.94042e-10
5.48788e-10
1.0273e-09
1.69203e-09
1.82828e-09
3.88809e-07
2.60122e-07
6.33109e-09
1.084e-09
2.22319e-10
1.30303e-10
4.299e-10
4.81089e-10
4.26541e-10
1.9485e-10
9.89018e-11
6.18893e-11
4.72213e-11
5.52368e-11
8.54752e-11
1.41411e-10
2.09143e-10
2.53343e-10
3.48394e-10
5.80449e-10
1.16162e-09
1.70979e-09
1.62591e-09
1.48218e-26
1.46716e-26
-1.11318e-28
1.68711e-29
1.50853e-29
1.00887e-21
1.99852e-11
5.17007e-11
4.99033e-11
2.62706e-11
1.4885e-11
9.33837e-12
9.40504e-12
2.32432e-11
3.80679e-11
8.74579e-11
1.50729e-10
1.72408e-10
2.03175e-10
3.76459e-10
8.54482e-10
1.3992e-09
9.82227e-10
0.08794
0.0711796
0.0617559
0.050812
0.0334164
0.00906437
6.82104e-23
6.98055e-23
6.76306e-23
6.20969e-23
6.13925e-23
2.48256e-14
7.46393e-26
9.85768e-26
1.19568e-23
1.05232e-19
1.28335e-11
1.45408e-11
1.65093e-10
1.61063e-10
8.03641e-10
2.05162e-09
9.82227e-10
0.762897
0.766495
0.758081
0.737321
0.689012
0.612687
0.518422
0.436034
0.376774
0.33489
0.29546
0.239802
0.159168
0.0836687
0.0183884
3.69066e-07
1.28357e-11
1.13483e-08
9.41965e-09
8.35059e-09
7.91124e-10
8.63641e-09
9.82227e-10
0.994691
0.996626
0.997685
0.998432
0.999492
0.999492
0.997598
0.989859
0.979188
0.968512
0.955352
0.929547
0.852853
0.719123
0.593199
0.44431
0.284056
0.159083
0.0939442
0.0632893
0.0583637
0.0884632
0.133291
0.996917
0.998124
0.998915
0.999492
0.999492
0.999492
0.999492
0.999492
0.999492
0.999492
0.999491
0.998097
0.995111
0.97094
0.939607
0.905149
0.905204
0.849272
0.765331
0.699523
0.678778
0.732973
0.79035
0.0269944
0.0267986
0.026809
0.021515
0.0135252
0.0135052
0.0134966
0.013538
0.0182046
0.0201089
0.020014
0.0169182
0.0189796
0.0185596
0.0170483
0.0142389
0.0127502
0.0100144
0.00854435
0.0267836
0.0189191
0.0176362
0.0168805
0.0135045
0.0134959
0.0134652
0.0134535
0.0134399
0.0134808
0.0191767
0.0151702
0.013629
0.0105378
0.00699873
0.00697007
0.00699469
0.00834767
0.00854245
0.367745
0.23484
0.22647
0.274447
0.307879
0.243138
0.162072
0.155053
0.110565
0.0166875
0.00755336
0.00753855
0.00754912
0.0075938
0.0112183
0.107424
0.0704018
0.00834771
0.00834774
0.600392
0.604425
0.61693
0.623632
0.637052
0.513461
0.448339
0.594225
0.678713
0.339437
0.162521
0.128543
0.156323
0.210363
0.300284
0.572934
0.403702
0.0413801
0.00836606
0.599242
0.694604
0.844652
0.778928
0.888381
0.795582
0.447203
0.909034
0.964216
0.710321
0.454853
0.455834
0.456214
0.43393
0.524455
0.805697
0.821711
0.393605
0.0956792
0.613451
0.936833
0.997775
0.996751
0.998453
0.996614
0.45248
0.959238
0.964853
0.886426
0.459496
0.457725
0.451672
0.524917
0.765681
0.84757
0.847501
0.801129
0.383841
0.744094
0.970957
0.99951
0.999748
0.999751
0.999742
0.627865
0.96038
0.964886
0.7626
0.488199
0.478189
0.509983
0.752337
0.86119
0.862897
0.838042
0.837824
0.463609
0.941681
0.98687
0.986108
0.990106
0.999751
0.999751
0.839026
0.966014
0.956631
0.914092
0.809129
0.814329
0.676105
0.753606
0.861033
0.863047
0.820399
0.56806
0.404493
0.998201
0.999045
0.999488
0.999492
0.999492
0.999492
0.999492
0.999492
0.999492
0.998881
0.995248
0.985047
0.945896
0.827831
0.775421
0.755948
0.791107
0.961694
0.98189
0.981906
0.966361
0.965609
0.965035
0.999042
0.999044
0.997321
0.992807
0.992625
0.992185
0.990249
0.986756
0.96371
0.893945
0.831613
0.837858
0.84637
0.68706
0.636605
0.784333
0.936263
0.963641
0.963345
0.961478
0.960155
0.949067
0.925014
0.998968
0.999008
0.999007
0.998948
0.975475
0.853331
0.742646
0.642952
0.426242
0.212964
0.130986
0.155074
0.254409
0.345355
0.46698
0.562882
0.555937
0.534733
0.480237
0.412454
0.377301
0.321226
0.247942
0.718614
0.808971
0.917006
0.960683
0.958205
0.643625
0.207274
0.0292472
0.000903823
-1.4222e-20
-4.03576e-13
-1.36034e-20
-3.8409e-09
0.00172544
0.00148525
1.49678e-08
1.425e-09
1.19943e-09
-5.55123e-07
0.00673322
6.30255e-15
5.43557e-15
1.21543e-15
0.00188265
0.0270715
0.0461902
0.126534
0.329263
0.384945
0.20232
0.000847143
1.2411e-07
1.23131e-07
2.05385e-08
1.10293e-14
7.1525e-05
0.000270843
0.000293946
0.000230164
0.000144417
8.65825e-05
9.63082e-06
2.90174e-07
2.69897e-07
1.17346e-06
6.43204e-07
0.00187774
8.58981e-05
0.000129123
0.000127936
0.0146952
0.0552883
0.0659083
0.0398216
0.000803826
2.46265e-07
-9.28524e-14
-1.35534e-19
-6.49829e-11
0.000205772
0.00322549
0.00444543
0.00373695
0.00094739
7.43091e-05
1.49305e-07
1.7753e-05
5.49986e-05
9.48025e-05
0.00406378
8.55367e-05
0.00148623
0.00190527
0.00270035
0.00453721
0.0048242
0.00430342
0.00225354
0.00210793
0.00237342
0.00132848
7.87272e-05
8.56641e-06
0.00302649
0.0202818
0.0209858
0.0178361
0.00564942
0.00213176
0.000349362
0.000130686
0.000496977
0.00411113
0.0016257
0.00669967
0.00670175
0.00574001
0.00550569
0.00458486
0.0024452
0.00163471
0.00536816
0.0121595
0.0124653
0.00897072
0.000667449
0.0001041
0.00636668
0.0208868
0.0210116
0.0210116
0.012682
0.000370859
1.04484e-06
0.00131168
0.00444647
0.00305136
0.00581123
0.00358559
0.00193266
0.00273526
0.0031716
0.00239355
0.00122237
0.000891977
0.00138438
0.00902906
0.014155
0.0142029
0.0083806
0.00361419
0.00327621
0.0184365
0.0210116
0.0178905
0.00202192
5.49141e-07
3.77032e-06
0.00444637
0.00248728
2.25274e-13
2.37059e-13
8.73682e-22
-1.98796e-25
-2.88512e-22
-1.42069e-06
6.58997e-05
4.92172e-05
1.76285e-08
1.85807e-08
7.70683e-07
0.00497817
0.00861323
0.00774785
0.000637823
0.000756086
0.00546102
0.0118076
0.00470532
5.66898e-07
5.57076e-08
0.00383824
0.000361538
1.502e-08
2.06058e-08
2.46978e-08
4.93967e-08
0.000125041
0.000331699
0.000482475
0.000486883
0.000207394
1.22616e-06
1.28125e-06
7.73951e-07
4.01288e-05
0.000315913
0.000188598
1.25722e-06
3.72295e-07
0.000161849
0.000481147
0.000360019
1.92905e-05
0.00391897
0.000108266
1.50646e-08
6.43676e-08
6.4333e-07
4.65914e-07
0.000155213
0.000500565
0.000500968
0.000486467
0.000199211
1.27095e-06
1.07726e-06
5.17854e-07
5.15221e-07
5.12964e-07
3.61798e-06
3.01919e-06
3.89528e-07
1.14703e-06
1.94572e-06
5.84109e-06
6.47753e-06
0.00395963
0.00108812
1.74036e-08
3.45364e-07
1.22445e-06
1.27192e-06
1.28045e-06
9.19373e-05
0.000150185
2.57675e-06
2.45894e-06
5.17068e-06
4.17455e-06
1.51432e-06
5.50276e-07
7.51015e-07
8.58437e-07
5.99352e-07
2.08428e-07
3.45482e-07
7.22309e-07
3.14134e-05
4.69657e-05
0.00144926
0.000555841
1.38621e-06
1.13983e-06
5.85157e-06
3.59317e-05
1.31488e-05
3.17388e-06
2.64357e-06
2.51439e-06
2.45352e-06
8.30119e-06
8.19879e-06
4.51379e-06
1.94601e-06
4.13053e-07
4.16112e-07
4.15059e-07
8.57194e-05
0.000106053
9.10619e-05
9.62573e-06
3.66835e-06
1.03733e-06
1.0385e-06
2.14306e-06
1.03335e-05
5.47909e-05
6.07544e-05
3.72916e-05
3.19796e-06
2.74458e-06
2.47055e-06
8.0867e-06
8.25416e-06
6.17325e-06
1.30939e-06
3.45981e-06
3.76197e-05
8.86454e-05
8.86891e-05
4.09867e-05
9.70083e-06
6.48289e-06
6.09658e-06
7.04458e-06
1.63498e-05
2.53291e-05
5.38348e-05
6.90428e-05
6.90104e-05
5.87267e-05
1.55854e-05
3.26317e-06
2.67865e-06
4.18367e-06
8.09127e-06
5.79577e-06
6.92708e-08
1.00598e-06
6.34747e-05
9.32828e-05
9.19447e-05
7.03503e-06
5.46261e-08
1.05389e-06
5.23815e-06
5.13054e-06
3.35257e-07
4.15727e-05
6.60106e-05
6.76485e-05
6.23603e-05
3.22713e-05
1.6013e-06
3.7435e-06
6.34415e-06
3.80075e-06
5.47831e-06
4.76059e-06
6.9046e-08
6.92665e-08
3.83641e-06
2.47265e-05
2.73596e-05
6.72053e-06
2.38551e-08
5.68473e-08
1.09318e-06
1.52886e-06
4.28647e-07
1.77304e-09
1.00547e-07
2.14222e-07
8.01095e-06
1.03837e-06
1.00463e-06
1.51188e-06
5.04828e-06
6.83782e-06
1.74551e-06
6.16088e-07
6.66956e-07
9.59248e-08
1.56587e-07
5.93051e-07
3.98449e-07
2.03693e-09
2.09889e-09
2.4339e-08
1.3647e-07
1.48702e-07
1.76049e-08
5.33425e-10
5.2989e-10
5.79956e-08
1.83368e-07
2.58067e-07
1.00281e-06
1.4608e-06
3.4364e-06
5.5693e-06
4.43304e-06
1.18807e-10
9.64246e-10
6.54054e-08
9.60003e-08
7.2642e-08
1.38531e-08
4.05879e-09
2.05e-09
5.9286e-09
1.3565e-08
4.11058e-08
5.05871e-08
2.11354e-08
3.97748e-09
8.74503e-10
5.78997e-08
5.27786e-07
1.79883e-06
3.56984e-06
3.57865e-06
4.88614e-07
1.88945e-06
1.29964e-07
1.06992e-10
2.49014e-09
4.11762e-08
6.41918e-08
2.19974e-08
3.86736e-09
2.32375e-09
2.02501e-09
2.3223e-09
3.60739e-09
5.0284e-09
6.40609e-09
6.69824e-09
4.1347e-09
2.0439e-09
5.2646e-08
4.98102e-07
1.78926e-06
1.59356e-06
3.19337e-07
2.94164e-08
3.88139e-08
1.33802e-08
7.87038e-10
3.90756e-09
1.08826e-08
1.19337e-08
5.9018e-09
1.58081e-09
1.59377e-09
1.3384e-09
1.12585e-09
1.23102e-09
1.95052e-09
2.31708e-09
2.47671e-09
2.29776e-09
1.35924e-09
1.75459e-08
4.02538e-08
3.89263e-08
3.27288e-08
1.7084e-08
4.11542e-08
6.83751e-08
5.02879e-08
3.15024e-10
4.82629e-10
6.01858e-10
5.84306e-10
5.83067e-10
7.21702e-10
7.30669e-10
6.36021e-10
5.59914e-10
5.84706e-10
8.04847e-10
9.64071e-10
1.00583e-09
9.23745e-10
6.96743e-10
5.42937e-09
7.63953e-09
1.21985e-08
1.21493e-08
7.59671e-09
1.5967e-09
4.04201e-10
3.54109e-10
3.13712e-10
2.90887e-10
2.90642e-10
2.95083e-10
3.04708e-10
3.11789e-10
3.0855e-10
2.90967e-10
2.78564e-10
2.94689e-10
3.54554e-10
3.91746e-10
4.03266e-10
4.04802e-10
2.7914e-10
5.60052e-09
5.54786e-09
1.25872e-08
1.56153e-08
1.25203e-08
4.04858e-09
3.19048e-10
1.72404e-10
1.81301e-10
1.47633e-10
1.45529e-10
1.45279e-10
1.4323e-10
1.40944e-10
1.37588e-10
1.33987e-10
1.31816e-10
1.34943e-10
1.43365e-10
1.48512e-10
1.50527e-10
1.43166e-10
1.01578e-10
8.91024e-09
7.30786e-09
1.18972e-08
1.5765e-08
1.34352e-08
5.66106e-09
6.79153e-10
8.6886e-11
9.62627e-11
7.39877e-11
6.55927e-11
6.23136e-11
6.01347e-11
5.81379e-11
5.64795e-11
5.49202e-11
5.38802e-11
5.32393e-11
5.27835e-11
5.13902e-11
4.93964e-11
4.63537e-11
3.51153e-11
3.674e-08
9.8715e-09
6.9165e-09
7.96925e-09
7.56068e-09
3.33013e-09
5.77682e-10
6.50805e-11
5.56916e-11
4.28584e-11
3.39712e-11
2.81002e-11
2.43971e-11
2.21504e-11
2.06689e-11
1.95613e-11
1.86053e-11
1.77813e-11
1.64499e-11
1.4865e-11
1.41244e-11
1.26075e-11
1.07839e-11
5.15595e-08
2.02463e-08
4.56004e-09
5.93153e-10
1.12823e-10
1.1289e-10
1.18372e-10
9.81524e-11
7.24612e-11
5.08495e-11
3.33675e-11
2.19637e-11
1.46423e-11
1.03213e-11
7.85204e-12
6.47951e-12
5.65128e-12
5.09074e-12
4.22232e-12
3.68325e-12
3.4632e-12
3.37794e-12
3.28353e-12
1.02302e-07
5.98926e-08
7.56069e-09
6.14641e-10
3.91108e-10
2.71655e-10
2.04608e-10
1.62891e-10
1.2806e-10
9.23323e-11
5.85956e-11
3.51823e-11
2.01312e-11
1.07745e-11
5.64529e-12
3.1471e-12
1.95416e-12
1.39633e-12
9.92384e-13
7.90164e-13
7.70386e-13
7.7308e-13
8.94659e-13
1.88305e-07
2.37218e-07
1.72823e-08
6.36134e-10
5.32678e-10
4.26412e-10
3.30037e-10
2.79841e-10
2.41384e-10
1.80826e-10
1.14412e-10
7.02533e-11
3.98469e-11
2.04842e-11
9.31262e-12
3.83577e-12
1.60236e-12
6.87061e-13
3.38727e-13
1.81943e-13
1.52229e-13
1.77937e-13
2.18993e-13
1.37159e-07
2.73676e-07
4.83951e-08
9.75322e-10
5.3421e-10
6.0303e-10
4.96546e-10
4.73745e-10
4.60683e-10
3.18809e-10
1.99649e-10
1.2934e-10
7.66787e-11
3.97388e-11
1.83075e-11
7.56074e-12
2.73551e-12
9.09607e-13
2.84994e-13
9.21064e-14
3.91628e-14
3.36292e-14
5.47908e-14
8.53606e-08
2.73869e-07
1.96499e-07
3.14597e-09
5.35745e-10
6.88439e-10
6.75225e-10
7.33728e-10
9.61982e-10
4.75433e-10
2.89561e-10
1.98924e-10
1.21436e-10
6.94992e-11
3.43123e-11
1.42709e-11
5.18697e-12
1.66907e-12
4.55883e-13
1.13067e-13
3.11121e-14
9.4313e-15
1.06551e-14
5.93011e-08
2.73611e-07
2.66563e-07
1.20308e-08
5.3729e-10
6.16276e-10
6.27825e-10
8.97899e-10
1.87202e-09
5.94758e-10
3.32675e-10
2.50373e-10
1.69586e-10
1.05361e-10
5.38601e-11
2.35263e-11
8.92241e-12
2.94524e-12
8.15839e-13
1.85251e-13
4.36767e-14
5.61336e-15
2.51668e-15
9.81585e-09
1.03858e-07
2.48822e-07
3.37115e-08
5.38869e-10
5.4349e-10
5.44646e-10
7.72059e-09
2.12341e-09
4.92343e-10
3.42755e-10
2.85746e-10
2.1332e-10
1.34642e-10
7.37247e-11
3.39106e-11
1.35446e-11
4.59175e-12
1.28472e-12
3.0642e-13
5.80805e-14
8.26955e-15
7.85429e-16
5.8073e-09
2.35092e-08
5.54123e-08
1.31926e-08
5.40504e-10
1.04797e-08
6.37808e-08
6.78704e-08
3.61068e-10
3.6132e-10
3.64711e-10
3.01982e-10
2.38927e-10
1.55688e-10
8.58989e-11
4.13322e-11
1.74057e-11
6.23136e-12
1.80982e-12
4.21151e-13
9.00242e-14
1.30167e-14
6.86975e-16
1.20118e-09
5.65495e-10
5.60976e-10
5.46174e-10
5.44543e-10
3.99727e-08
2.51237e-07
7.6617e-08
3.61226e-10
3.61119e-10
4.10653e-10
3.2058e-10
2.53429e-10
1.58388e-10
8.73944e-11
4.2995e-11
1.88649e-11
7.10352e-12
2.12757e-12
5.15561e-13
1.14342e-13
1.28296e-14
1.02937e-15
2.44786e-09
7.71144e-10
7.6745e-10
1.00114e-09
3.66247e-09
1.18374e-07
3.62687e-07
3.08509e-07
3.60843e-10
3.94637e-10
4.24352e-10
3.42464e-10
2.55059e-10
1.5128e-10
7.91351e-11
3.82083e-11
1.6906e-11
6.58407e-12
2.11995e-12
5.22543e-13
1.15064e-13
1.54926e-14
1.54179e-15
2.4273e-08
8.98843e-10
8.89695e-10
3.13665e-09
2.88912e-08
4.75983e-07
1.51867e-06
6.79437e-07
3.61121e-10
4.89637e-10
4.12419e-10
3.36677e-10
2.39699e-10
1.32555e-10
6.40411e-11
2.88312e-11
1.2289e-11
4.7571e-12
1.59948e-12
4.26931e-13
9.59471e-14
9.94838e-15
1.58192e-15
3.02371e-07
3.25396e-09
1.46927e-09
3.69714e-09
3.30186e-08
1.33522e-06
1.5186e-06
7.74911e-07
4.58377e-10
5.21176e-10
3.41376e-10
2.88428e-10
2.00317e-10
1.02916e-10
4.50598e-11
1.80594e-11
6.98705e-12
2.57639e-12
8.78102e-13
2.41307e-13
5.21222e-14
7.83573e-15
9.88795e-16
5.26427e-07
6.32487e-08
4.18502e-09
3.69745e-09
3.69901e-09
1.16668e-06
1.5112e-06
1.4061e-07
4.49493e-10
4.47846e-10
2.34183e-10
2.0881e-10
1.37819e-10
6.78703e-11
2.6322e-11
8.90257e-12
2.9042e-12
9.41838e-13
3.01358e-13
9.4068e-14
2.41183e-14
2.93827e-15
4.73335e-16
5.10925e-07
1.54317e-07
5.97903e-09
5.56978e-09
1.07043e-08
1.23329e-07
2.79055e-07
4.94774e-09
1.79818e-09
2.67089e-10
1.24207e-10
1.14015e-10
7.50727e-11
3.62091e-11
1.2468e-11
3.42398e-12
8.44728e-13
2.08109e-13
6.24999e-14
2.33133e-14
5.76098e-15
1.16301e-15
1.98003e-16
3.92127e-07
1.25284e-07
6.45543e-09
5.29269e-09
1.33063e-08
1.6821e-13
1.01699e-13
1.02756e-13
6.41313e-10
9.15767e-11
4.93569e-11
4.36783e-11
2.94072e-11
1.36299e-11
4.23774e-12
9.19659e-13
1.54569e-13
2.44761e-14
6.50458e-15
3.67554e-15
1.14011e-15
2.78784e-16
6.74208e-17
3.11261e-322
-1.00721e-30
9.1067e-10
2.05381e-10
1.23597e-11
3.8493e-12
2.54244e-13
3.97688e-11
1.28956e-12
1.65342e-12
9.13105e-12
8.62056e-12
6.12261e-12
2.72718e-12
7.53188e-13
1.25117e-13
1.38743e-14
1.30206e-15
3.48003e-16
3.59294e-16
1.98366e-16
6.20895e-17
1.94248e-17
0.914158
0.830889
0.723955
0.723584
0.907889
0.866662
0.735718
0.742707
0.197166
0.179408
0.155382
0.107484
2.36959e-25
-1.14022e-10
-2.37584e-10
-1.2857e-10
1.21029e-06
-8.5556e-23
2.54627e-23
1.46303e-09
0.000129711
0.000141789
8.36287e-05
3.1486e-06
0.000740315
0.000914036
0.00101909
0.000805783
0.00317684
0.00317688
0.00317684
0.00317688
0.000219766
0.00220106
0.00316907
0.00280721
3.75829e-08
3.11737e-08
1.26525e-07
2.74364e-08
3.11737e-08
3.63846e-08
8.74044e-07
5.96225e-06
7.82742e-06
1.10887e-05
3.12115e-05
3.55531e-05
4.69278e-05
4.69657e-05
3.22073e-05
1.03498e-05
3.66903e-06
2.35234e-06
3.23935e-07
2.51504e-07
4.35675e-06
8.60947e-08
4.09001e-07
1.11062e-06
7.12059e-08
8.45354e-08
1.50179e-08
5.75008e-10
8.7786e-10
5.5029e-10
5.45863e-10
9.88949e-10
5.47001e-10
6.48422e-10
8.8384e-10
9.5637e-10
6.8611e-10
5.98297e-10
6.24656e-10
7.41048e-10
6.94458e-10
4.33593e-10
4.48812e-10
4.62869e-10
5.50011e-10
3.03802e-10
2.97474e-10
3.0376e-10
3.39641e-10
1.97099e-10
1.82551e-10
1.79349e-10
1.43213e-10
1.1113e-10
1.02233e-10
1.00994e-10
6.52398e-11
5.54164e-11
5.2463e-11
5.21372e-11
2.67782e-11
2.49722e-11
2.46253e-11
2.56284e-11
1.00901e-11
1.00952e-11
1.06282e-11
1.09248e-11
3.52263e-12
3.80504e-12
4.09421e-12
4.75004e-12
1.08385e-12
1.25753e-12
1.58945e-12
1.7137e-12
3.29605e-13
4.28633e-13
5.09827e-13
6.56744e-13
8.72194e-14
1.16124e-13
1.78584e-13
2.03842e-13
2.28027e-14
3.27355e-14
4.5256e-14
6.64198e-14
4.65957e-15
7.14293e-15
1.28051e-14
1.60606e-14
8.24697e-16
1.8213e-15
2.60488e-15
4.61846e-15
1.69216e-16
2.78189e-16
6.27829e-16
8.52959e-16
4.09366e-17
5.64e-17
9.55684e-17
1.91538e-16
1.93936e-17
9.37488e-18
1.89714e-17
2.99375e-17
2.20227e-17
3.19534e-18
2.51582e-18
5.70164e-18
2.46968e-17
1.90274e-18
5.32249e-19
7.37447e-19
2.06593e-17
1.46347e-18
1.4453e-19
1.07834e-19
1.40725e-17
1.01724e-18
6.46889e-20
1.07094e-20
7.45534e-18
5.69826e-19
3.44768e-20
1.6583e-21
3.14232e-18
2.73499e-19
1.73491e-20
3.1744e-22
0.825688
0.988428
0.978395
0.95382
0.981821
0.999751
0.987021
0.988718
0.925271
0.957154
0.953875
0.783095
0.510513
0.5773
0.824768
0.86299
0.711026
0.592589
0.404311
0.893323
0.988567
0.949787
0.780557
0.876486
0.952817
0.991648
0.991649
0.933848
0.869405
0.882479
0.789405
0.455431
0.674205
0.862849
0.863241
0.828868
0.825584
0.551259
0.18474
0.499382
0.578977
0.27412
0.292508
0.53686
0.806255
0.947388
0.919253
0.84554
0.52303
0.438971
0.394439
0.474882
0.694563
0.671023
0.622905
0.647997
0.701918
-3.90699e-11
0.00795572
0.0488066
0.0554141
0.00305819
0.0132669
0.102753
0.0840136
0.125866
0.473053
0.565434
0.429001
0.394194
0.466842
0.422645
0.34048
0.295894
0.216794
0.697285
3.41733e-10
5.42936e-12
3.74133e-13
0.0012465
0.00118005
0.000396244
0.000135816
0.000149406
0.00291147
0.0145542
0.0533676
0.106608
0.313177
0.44928
0.448841
0.427162
0.192106
0.164666
0.228646
3.13191e-09
1.06936e-07
3.75881e-07
6.0754e-05
9.49467e-05
3.11661e-05
0.000123424
0.000586279
0.00190779
0.0015793
0.00122662
0.00123223
0.018398
0.0892621
0.311145
0.350265
0.237544
0.171206
0.0492461
0.000182293
9.93128e-05
0.000159085
0.000163968
8.41388e-05
3.22107e-05
2.18987e-05
6.87433e-07
8.30777e-05
0.00241622
0.00176428
0.00122263
0.00152916
0.000912918
0.0161593
0.0367189
0.116575
0.171207
0.0496504
0.000820983
0.000769808
0.00192422
0.00200644
0.00121232
0.00012537
6.64078e-07
6.64033e-07
6.64308e-07
0.00255262
0.00870522
0.00376467
0.000483456
0.000498145
0.000231298
3.60825e-08
0.018371
0.148313
0.0481321
0.000945958
0.00301107
0.00425251
0.00425118
0.00408814
0.00112352
6.86553e-07
6.64032e-07
6.64129e-07
0.00562085
0.00939192
0.00766459
0.000792625
2.3349e-05
7.58055e-06
7.78387e-08
2.06133e-10
0.0258387
0.0145882
1.77924e-09
0.000260085
0.00244059
0.00248048
0.00144396
0.000687054
0.000437337
4.15879e-07
0.00148841
0.00872883
0.00938488
0.00679921
0.000327886
7.46479e-10
6.09519e-07
4.92853e-09
1.73686e-10
1.542e-10
1.5403e-10
4.4553e-06
4.69218e-07
8.5007e-08
7.10775e-07
1.00723e-07
1.32558e-07
1.00677e-07
7.63042e-08
0.00111753
0.00882732
0.00789254
0.00121802
-7.09793e-11
2.12412e-10
2.35877e-10
9.02805e-06
4.88912e-06
1.46885e-07
1.54203e-10
1.64855e-05
6.15787e-07
3.61049e-07
1.64095e-06
8.79109e-06
9.70114e-06
2.06586e-05
0.000524416
0.00200698
0.0019677
0.000520071
1.88817e-05
1.34103e-06
2.33268e-10
1.72711e-05
2.60409e-05
1.11956e-05
8.31687e-07
1.54047e-10
3.25419e-06
5.45522e-06
4.7427e-06
1.13453e-05
0.000145697
0.000227608
0.000227608
0.000203951
0.00014048
4.34613e-05
1.20627e-05
3.17278e-05
5.76487e-05
5.72406e-05
3.39859e-05
2.65989e-05
7.67532e-06
6.50678e-07
6.38251e-08
1.11396e-05
4.55153e-05
4.55697e-05
3.73164e-05
4.76915e-05
6.03825e-05
0.0001071
8.77509e-05
4.30033e-05
1.74234e-05
1.20333e-05
6.53753e-05
6.54197e-05
3.40797e-05
6.58115e-06
3.19317e-06
8.52193e-07
2.97309e-07
1.63979e-07
8.78456e-07
1.03622e-09
1.03132e-09
1.03517e-09
6.47712e-06
1.91176e-05
3.06071e-05
4.04847e-05
3.69297e-05
1.14526e-06
1.23435e-05
6.45758e-05
6.14358e-05
1.1617e-05
9.60974e-07
7.55024e-07
3.99106e-07
3.4938e-07
1.66316e-07
6.35125e-10
1.13442e-09
1.14544e-09
1.1427e-09
1.04177e-09
1.04203e-09
6.6474e-07
8.12951e-06
6.17399e-06
5.20942e-09
2.07978e-06
9.62636e-06
1.35699e-05
4.32321e-06
6.88209e-07
6.86167e-07
1.70199e-06
6.69392e-06
1.67918e-07
1.52038e-09
2.24526e-09
2.60688e-09
2.94461e-09
2.96591e-09
2.64184e-09
3.02599e-09
4.6809e-09
5.50801e-09
4.64388e-09
4.68e-09
3.52592e-09
3.526e-09
1.30968e-07
1.17458e-06
9.27542e-06
1.59226e-05
1.59879e-05
4.01207e-06
1.30189e-09
1.68896e-09
2.39305e-09
3.00455e-09
3.55784e-09
4.00541e-09
4.03078e-09
4.53264e-09
1.05915e-08
1.9222e-08
1.17157e-08
3.526e-09
3.5277e-09
1.59546e-07
7.60973e-06
1.62543e-05
1.62625e-05
1.60526e-05
1.7721e-05
8.27393e-10
1.09653e-09
1.42852e-09
1.72101e-09
2.0821e-09
2.71606e-09
4.23329e-09
9.0422e-09
1.91043e-08
2.9731e-08
3.09233e-08
3.91998e-08
6.1336e-08
2.86563e-06
7.61088e-06
6.61452e-06
6.85071e-06
3.97765e-06
1.77344e-05
5.21864e-10
6.2932e-10
7.47417e-10
8.47992e-10
9.72405e-10
1.23916e-09
3.40348e-09
9.78933e-09
1.54352e-08
1.97964e-08
2.55742e-08
4.83158e-08
6.50575e-07
2.95888e-06
3.22372e-06
6.26268e-09
6.81258e-09
5.20579e-07
1.77345e-05
3.12158e-10
3.56247e-10
4.16642e-10
4.84382e-10
5.78741e-10
8.6858e-10
1.83332e-09
4.2337e-09
5.0207e-09
7.00468e-09
1.63026e-08
3.9072e-08
3.19348e-07
9.53246e-07
6.26268e-09
6.26268e-09
6.26268e-09
2.23295e-07
1.34684e-05
1.83485e-10
2.02229e-10
2.37253e-10
2.81342e-10
3.77811e-10
5.9048e-10
9.7315e-10
1.43016e-09
1.65617e-09
3.28967e-09
7.78117e-09
1.6471e-08
2.97646e-08
1.46624e-08
1.41657e-08
2.26742e-08
1.18447e-08
7.7776e-08
4.88702e-07
1.02303e-10
1.13987e-10
1.30727e-10
1.46939e-10
2.27246e-10
3.82829e-10
5.62968e-10
7.46331e-10
1.0103e-09
1.77082e-09
3.62393e-09
7.09133e-09
1.31258e-08
2.05838e-08
4.60693e-08
4.59987e-08
1.26775e-08
5.56023e-08
8.78168e-08
5.45954e-11
6.13473e-11
7.26037e-11
8.69568e-11
1.16614e-10
2.38251e-10
3.33943e-10
4.21321e-10
5.81348e-10
9.98134e-10
1.93749e-09
3.86259e-09
8.22481e-09
1.91257e-08
4.01248e-08
3.76222e-08
6.83157e-09
3.82607e-08
5.15861e-08
2.66401e-11
3.13061e-11
3.89448e-11
4.98633e-11
7.2396e-11
1.20723e-10
1.79229e-10
2.27771e-10
3.09151e-10
5.27787e-10
1.03168e-09
2.01955e-09
3.80809e-09
6.41738e-09
5.74759e-09
5.45718e-09
4.80789e-09
1.73079e-08
2.75547e-08
1.23868e-11
1.50141e-11
1.88449e-11
2.53424e-11
3.64982e-11
5.78597e-11
8.64307e-11
1.1106e-10
1.51309e-10
2.57564e-10
4.9568e-10
9.01829e-10
1.46207e-09
1.27447e-09
1.9807e-10
1.08181e-10
1.34618e-09
2.60894e-09
1.01872e-08
5.17262e-12
6.63266e-12
8.71786e-12
1.14452e-11
1.67445e-11
2.56373e-11
3.75798e-11
4.91204e-11
6.55233e-11
1.11231e-10
2.11781e-10
3.73777e-10
5.36789e-10
4.44072e-10
1.22819e-10
1.08276e-10
1.69908e-10
7.59679e-11
8.71821e-10
2.09169e-12
2.77708e-12
3.64231e-12
4.92909e-12
7.05644e-12
1.03859e-11
1.49914e-11
1.985e-11
2.63168e-11
4.4402e-11
8.79081e-11
1.70553e-10
2.336e-10
1.87701e-10
8.02774e-11
8.26322e-11
8.10777e-11
1.45106e-11
8.83e-11
7.5693e-13
1.07823e-12
1.46165e-12
1.99459e-12
2.70543e-12
3.96344e-12
5.55591e-12
7.13603e-12
9.42336e-12
1.46681e-11
2.69986e-11
5.02283e-11
7.33426e-11
7.80448e-11
4.57893e-11
3.73142e-11
3.25958e-11
1.09912e-11
4.27537e-12
2.61969e-13
3.91178e-13
5.48982e-13
7.36282e-13
1.03015e-12
1.39005e-12
1.91829e-12
2.50255e-12
3.0931e-12
4.27799e-12
6.21745e-12
3.64594e-12
6.85965e-12
1.55794e-11
2.23147e-11
1.49249e-11
9.30684e-12
5.65289e-12
1.70674e-12
8.08472e-14
1.29214e-13
1.88754e-13
2.69107e-13
3.61323e-13
4.87819e-13
6.09139e-13
7.52755e-13
8.68059e-13
1.02534e-12
1.10132e-12
1.18548e-13
1.80837e-13
2.03625e-12
5.87968e-12
7.42221e-12
3.66312e-12
2.80198e-12
9.06138e-13
2.4348e-14
4.05724e-14
6.24031e-14
8.67508e-14
1.15304e-13
1.49333e-13
1.91874e-13
2.27195e-13
2.56756e-13
2.86458e-13
2.32206e-13
4.70116e-14
3.25879e-14
1.33012e-13
1.52351e-12
2.77114e-12
2.70296e-12
1.45047e-12
7.78066e-13
6.09758e-15
1.05704e-14
1.62798e-14
2.35399e-14
3.20392e-14
4.01869e-14
5.13177e-14
6.00911e-14
6.56709e-14
6.93207e-14
6.09878e-14
2.79551e-14
2.82957e-14
7.24705e-14
2.58527e-13
9.69356e-13
1.25705e-12
1.14415e-12
6.37118e-13
1.51068e-15
2.59838e-15
4.41486e-15
6.66038e-15
9.28457e-15
1.18048e-14
1.34599e-14
1.51989e-14
1.66827e-14
1.91904e-14
1.937e-14
1.66388e-14
2.44648e-14
5.71765e-14
1.50287e-13
3.14344e-13
7.70012e-13
7.53077e-13
5.20649e-13
2.67547e-16
5.96943e-16
1.06486e-15
1.6873e-15
2.39562e-15
3.07521e-15
3.5755e-15
3.99955e-15
4.54098e-15
5.67723e-15
7.62909e-15
1.09355e-14
1.88353e-14
4.70787e-14
1.22079e-13
2.55611e-13
4.26696e-13
6.20265e-13
4.43466e-13
5.64875e-17
1.29257e-16
2.42511e-16
3.9591e-16
5.69802e-16
7.36748e-16
8.73705e-16
1.0072e-15
1.27171e-15
1.96159e-15
3.55479e-15
7.07584e-15
1.49843e-14
3.27517e-14
9.10586e-14
2.22066e-13
3.64402e-13
4.59104e-13
3.75647e-13
9.87586e-18
2.42907e-17
4.92155e-17
8.35812e-17
1.23085e-16
1.61158e-16
1.97712e-16
2.47688e-16
3.84194e-16
7.83965e-16
1.8339e-15
4.40748e-15
1.04276e-14
2.2752e-14
5.88163e-14
1.56502e-13
3.03892e-13
4.02434e-13
2.39949e-13
1.52063e-18
4.10183e-18
8.81201e-18
1.56749e-17
2.37989e-17
3.23983e-17
4.29105e-17
6.25298e-17
1.25597e-16
3.27416e-16
9.16332e-16
2.48724e-15
6.36257e-15
1.50849e-14
3.21942e-14
8.96902e-14
2.10022e-13
2.74409e-13
1.83499e-13
2.08917e-19
6.13426e-19
1.39161e-18
2.59455e-18
4.13798e-18
6.04975e-18
8.95173e-18
1.6013e-17
4.18866e-17
1.33093e-16
4.25582e-16
1.26794e-15
3.45405e-15
8.71427e-15
2.07074e-14
4.26382e-14
9.6011e-14
1.82856e-13
1.03805e-13
2.64095e-20
8.19133e-20
1.96109e-19
3.84668e-19
6.54535e-19
1.02327e-18
1.74513e-18
3.90078e-18
1.25397e-17
4.68412e-17
1.70001e-16
5.62039e-16
1.64871e-15
4.37906e-15
1.07171e-14
2.3918e-14
5.94155e-14
8.29174e-14
5.19407e-14
2.92453e-21
9.7188e-21
2.43552e-20
5.08569e-20
9.40186e-20
1.61851e-19
3.17414e-19
8.76317e-19
3.39072e-18
1.46601e-17
6.00492e-17
2.21078e-16
7.05935e-16
1.99068e-15
5.0263e-15
1.17423e-14
2.03841e-14
3.49337e-14
3.31992e-14
3.0222e-22
1.05346e-21
2.79128e-21
6.31927e-21
1.27112e-20
2.42283e-20
5.47041e-20
1.80136e-19
8.14227e-19
4.02329e-18
1.86347e-17
7.67711e-17
2.69449e-16
8.18181e-16
2.17195e-15
5.2804e-15
9.76071e-15
1.8638e-14
1.66967e-14
)
;

boundaryField
{
    leftWall
    {
        type            zeroGradient;
    }
    rightWall
    {
        type            zeroGradient;
    }
    lowerWall
    {
        type            zeroGradient;
    }
    atmosphere
    {
        type            inletOutlet;
        inletValue      uniform 0;
        value           nonuniform List<scalar> 
46
(
0
0
0
0
0
0
0
0
0
0
0
0
0
0
0
0
0
0
0
0
0
0
1.94248e-17
3.14232e-18
2.73499e-19
1.73491e-20
3.1744e-22
3.0222e-22
1.05346e-21
2.79128e-21
6.31927e-21
1.27112e-20
2.42283e-20
5.47041e-20
1.80136e-19
8.14227e-19
4.02329e-18
1.86347e-17
7.67711e-17
2.69449e-16
8.18181e-16
2.17195e-15
5.2804e-15
9.76071e-15
1.8638e-14
1.66967e-14
)
;
    }
    defaultFaces
    {
        type            empty;
    }
}


// ************************************************************************* //
