/*--------------------------------*- C++ -*----------------------------------*\
| =========                 |                                                 |
| \\      /  F ield         | OpenFOAM: The Open Source CFD Toolbox           |
|  \\    /   O peration     | Version:  2312                                  |
|   \\  /    A nd           | Website:  www.openfoam.com                      |
|    \\/     M anipulation  |                                                 |
\*---------------------------------------------------------------------------*/
FoamFile
{
    version     2.0;
    format      ascii;
    arch        "LSB;label=32;scalar=64";
    class       volScalarField;
    location    "2.75";
    object      alphas;
}
// * * * * * * * * * * * * * * * * * * * * * * * * * * * * * * * * * * * * * //

dimensions      [0 0 0 0 0 0 0];

internalField   nonuniform List<scalar> 
2268
(
2
2
2
2
2
2
2
2
2
2
2
2
2
2
2
2
2
2
2
2
2
1.99995
1.99994
2
2
2
2
2
2
2
2
2
2
2
2
2
2
2
2
2
2
2
2
2
1.99998
1.99995
2
2
2
2
2
2
2
2
2
2
2
2
2
2
2
2
2
2
2
2
2
2
2
2
1.99938
1.99987
1.99974
1.99986
1.99998
2
2
2
2
2
2
2
2
2
2
2
2
2
2
2
2
2.00002
1.82424
1.85392
1.87397
1.89831
1.93438
1.98239
1.99985
1.99978
1.99982
1.9999
1.99997
2
2
2
2
2
2
2
2
2
2
2
2.00002
0.47315
0.466803
0.484041
0.529787
0.625888
0.776763
0.966303
1.1348
1.25889
1.34854
1.43262
1.54607
1.70354
1.84833
1.97011
2
2
2
2
2
1.99999
1.99999
2.00012
0.00667302
0.00676718
0.0060982
0.00462704
0.00119791
0.000710762
0.00446643
0.020832
0.0442885
0.0685639
0.0987961
0.157244
0.309053
0.562752
0.827055
1.12837
1.43678
1.67344
1.78636
1.83872
1.84255
1.78889
1.7066
0.00505827
0.00530048
0.00315032
0.00121744
0.0011589
0.00137354
0.00137697
0.00141464
0.00145094
0.00135638
0.00119008
0.00241085
0.00541764
0.0303178
0.0632032
0.136269
0.181499
0.276155
0.40908
0.524641
0.558023
0.466354
0.390106
1.90594
1.90616
1.9067
1.92178
1.9454
1.94705
1.94793
1.94987
1.94465
1.94095
1.93659
1.94305
1.93924
1.93982
1.9428
1.94895
1.95042
1.95152
1.95297
1.90487
1.91479
1.90838
1.89352
1.8769
1.84753
1.80998
1.82678
1.88042
1.93616
1.9377
1.94846
1.9506
1.95235
1.94983
1.94152
1.89836
1.92411
1.87203
1.19418
1.33036
1.28871
1.16121
1.03165
1.02969
1.17171
1.20777
1.31668
1.54293
1.63796
1.69823
1.70903
1.63332
1.62443
1.54782
1.59166
1.61743
1.5077
0.483303
0.45451
0.439085
0.42855
0.390347
0.508245
0.603401
0.477051
0.40101
0.835353
1.168
1.21534
1.15099
1.0458
0.875612
0.567565
0.914861
1.42217
1.46682
0.482943
0.367204
0.205029
0.279822
0.15412
0.230507
0.624812
0.14359
0.0605099
0.333687
0.571914
0.563622
0.562445
0.6385
0.585845
0.252727
0.230235
0.816723
1.2751
0.461833
0.116116
0.00593317
0.00847332
0.00493689
0.00903571
0.627343
0.0710122
0.0597407
0.140503
0.561388
0.56456
0.582219
0.615868
0.37745
0.298664
0.276031
0.244021
0.711821
0.329195
0.0505946
0.00148324
0.000720912
0.000715301
0.000746043
0.463424
0.0725813
0.054978
0.312697
0.57824
0.581234
0.576524
0.314285
0.240561
0.239782
0.320723
0.311217
0.591232
0.134352
0.0320184
0.0396205
0.0287276
0.000717908
0.000716924
0.242078
0.0641259
0.061465
0.12866
0.245258
0.220962
0.357204
0.315014
0.232884
0.244442
0.379285
0.604516
0.736867
0.00369846
0.00258474
0.00145138
0.00144139
0.00151395
0.00152329
0.00152311
0.00152046
0.0015199
0.0031562
0.0136065
0.0239086
0.0672799
0.189286
0.241127
0.262864
0.215317
0.0451289
0.0335203
0.0202706
0.0368632
0.0453069
0.0714535
0.00247411
0.00258847
0.00803382
0.0216007
0.021997
0.0236234
0.0294068
0.039533
0.0779991
0.170885
0.272981
0.268174
0.236745
0.379763
0.41456
0.266613
0.113464
0.0991621
0.0998593
0.0912781
0.0695783
0.0643543
0.0853081
0.00275285
0.00266628
0.0026992
0.00292836
0.0475369
0.193937
0.35542
0.456011
0.669454
0.883404
0.975294
0.966814
0.871405
0.783599
0.64996
0.561451
0.606799
0.635346
0.690203
0.760191
0.799219
0.810932
0.838975
0.382662
0.300237
0.193237
0.0884702
0.0782275
0.372196
0.817175
1.02921
1.04631
1.01255
1.00598
1.00575
1.00747
1.01263
1.02945
1.03657
1.0328
1.04181
1.10014
1.15564
1.1635
1.16335
1.16322
1.14106
1.07881
1.06367
1.00909
1.18588
1.01727
0.85868
1.00651
1.00149
1.00139
1.00139
1.00139
1.0012
1.00061
1.0005
1.00061
1.00078
1.00089
1.00115
1.00122
1.02026
1.02855
1.00642
1.14199
1.14545
1.14451
1.14254
1.48677
1.69003
1.65549
1.4341
1.01839
1.0014
1.01363
1.04451
1.03653
1.01733
0.998923
0.996302
0.996737
0.999589
1.00091
1.00178
1.00188
1.00161
1.00141
1.51916
1.41496
1.50868
1.51359
1.62754
1.73774
1.49054
1.18877
1.19388
1.20111
1.19381
1.45726
2.10399
2.08247
1.71958
1.3509
1.22009
1.1408
1.0776
1.07876
1.09246
1.08753
1.05677
2.48983
2.70052
2.79734
2.68912
2.50909
2.34524
2.36583
2.47577
2.63656
2.73834
2.70499
2.54756
2.47903
2.68076
2.83166
2.808
2.68947
2.54498
2.32472
2.32831
2.4139
2.42495
2.34841
2.71254
2.98221
2.98289
2.99032
2.99507
2.99267
2.99128
2.993
2.99637
2.99766
2.99741
2.97839
2.95776
2.93618
2.92554
2.94611
2.97191
2.94553
2.93672
2.94105
2.99177
2.99909
2.99846
2.98645
2.99266
2.99992
2.99999
2.99999
2.99998
2.99991
2.99981
2.99953
2.99962
2.99994
2.99999
3
2.99009
2.97354
2.97482
2.99569
2.99739
2.98718
2.96342
2.98205
3
3
2.98835
2.99878
2.99964
3
3
3
2.99943
2.99874
2.99824
2.99825
2.99903
2.99999
2.99999
3
3
2.99906
2.99925
2.99986
2.99994
2.9996
2.99845
2.99872
2.99988
2.9881
2.99925
2.99959
2.99994
3
3
2.99961
2.99827
2.99825
2.99842
2.99936
2.99999
3
3
3
3
2.99999
2.99999
3
3
2.99999
2.99996
2.99995
2.98804
2.99635
2.99995
3
3
2.99999
2.99999
2.99983
2.99966
2.99999
2.99999
2.99997
2.99995
2.99998
3
3
3
3
2.99998
2.99993
2.99993
2.99989
2.99985
2.99574
2.99824
2.99999
2.99999
2.99998
2.99987
2.99995
2.99999
2.99999
2.99999
2.99998
2.99986
2.99986
2.99991
2.99996
3
3
2.99998
2.99968
2.99962
2.99969
2.99996
2.99997
2.99999
2.99999
2.99998
2.99994
2.9998
2.9998
2.99987
2.99999
2.99999
2.99999
2.99986
2.99986
2.99987
2.99992
2.99996
2.9998
2.99956
2.99956
2.99983
2.99995
2.99995
2.99991
2.99994
2.99994
2.9999
2.99978
2.99974
2.99974
2.99981
2.99996
2.99999
2.99999
2.99992
2.99986
2.99992
3
2.99996
2.99958
2.99951
2.99952
2.99989
3
2.99997
2.99992
2.99992
2.99998
2.99986
2.99978
2.99978
2.9998
2.99991
3
2.99999
2.99998
2.99996
2.99989
2.99991
3
3
2.99997
2.99974
2.99971
2.99989
3
3
2.99998
2.99995
2.99998
3
3
3
2.99998
3
3
3
2.99998
2.99997
2.99992
2.9999
2.99997
3
3
2.99999
2.99998
2.99998
3
3
3
3
3
3
3
3
3
3
3
3
2.99999
2.99998
2.99996
2.99992
2.99994
3
3
3
3
3
3
3
3
3
3
3
3
3
3
3
2.99999
2.99999
2.99999
3
2.99999
2.99999
2.99999
2.99999
3
3
3
3
3
3
3
3
3
3
3
3
3
3
3
3
3
3
3
3
3
3
3
3
3
3
3
3
3
3
3
3
3
3
3
3
3
3
3
3
3
3
3
3
3
3
3
3
3
3
3
3
3
3
3
3
3
3
3
3
3
3
3
3
3
3
3
3
3
3
3
3
3
3
3
3
3
3
3
3
3
3
3
3
3
3
3
3
3
3
3
3
3
3
3
3
3
3
3
3
3
3
3
3
3
3
3
3
3
3
3
3
3
3
3
3
3
3
3
3
3
3
3
3
3
3
3
3
3
3
3
3
3
3
3
3
3
3
3
3
3
3
3
3
3
3
3
3
3
3
3
3
3
3
3
3
3
3
3
3
3
3
3
3
3
3
3
3
3
3
3
3
3
3
3
3
3
3
3
3
3
3
3
3
3
3
3
3
3
3
3
3
3
3
3
3
3
3
3
3
3
3
3
3
3
3
3
3
3
3
3
3
3
3
3
3
3
3
3
3
3
3
3
3
3
3
3
3
3
3
3
3
3
3
3
3
3
3
3
3
3
3
3
3
3
3
3
3
3
3
3
3
3
3
3
3
3
3
3
3
3
3
3
3
3
3
3
3
3
3
3
3
3
3
3
3
3
3
3
3
3
3
3
3
3
3
3
3
3
3
3
3
3
3
3
3
3
3
3
3
3
3
3
3
3
3
3
3
3
3
3
3
3
3
3
3
3
3
3
3
3
3
3
3
3
3
3
3
3
3
3
3
3
3
3
3
3
3
3
3
3
3
3
3
3
3
3
3
3
3
3
3
3
3
3
3
3
3
3
3
3
3
3
3
3
3
3
3
3
3
3
3
3
3
3
3
3
3
3
3
3
3
3
3
3
3
3
3
3
3
3
3
3
3
3
3
3
3
3
3
3
3
3
3
3
3
3
3
3
3
3
3
3
3
3
3
3
3
3
3
3
3
3
3
3
3
3
3
3
3
3
3
3
3
3
3
3
3
3
3
3
3
3
3
3
3
3
3
3
3
3
3
3
3
3
3
3
3
3
3
3
3
3
3
3
3
3
3
3
3
3
3
3
3
3
3
3
3
3
3
3
3
3
3
3
3
3
3
3
3
3
3
3
3
3
3
3
3
3
3
3
3
3
3
3
3
3
3
3
3
3
3
3
3
3
3
3
3
3
0.176392
0.305986
0.445853
0.445766
0.103198
0.151357
0.331032
0.343834
0.842857
0.851712
0.88748
0.97982
1.09224
1.04851
1.06068
1.09181
1.00236
1.01594
1.11
1.11257
1.00141
1.00163
1.002
1.03086
1.02553
1.00798
1.0008
1.00021
2.20855
2.0321
1.81599
1.66935
2.99753
2.99069
2.9844
2.9851
3
3
3
3
2.99999
2.99998
2.99999
2.99998
2.99994
2.99994
2.9999
2.99989
2.99985
2.99985
2.99988
2.99996
2.99998
2.99999
3
2.99996
2.99998
2.99999
2.99993
2.99989
3
2.99999
3
3
3
3
3
3
3
3
3
3
3
3
3
3
3
3
3
3
3
3
3
3
3
3
3
3
3
3
3
3
3
3
3
3
3
3
3
3
3
3
3
3
3
3
3
3
3
3
3
3
3
3
3
3
3
3
3
3
3
3
3
3
3
3
3
3
3
3
3
3
3
3
3
3
3
3
3
3
3
3
3
3
3
3
3
3
3
3
3
3
3
3
3
3
3
3
3
3
3
3
3
3
3
3
3
3
0.313101
0.0264965
0.0521639
0.131073
0.0505489
0.000721462
0.0348128
0.020347
0.0956829
0.0612698
0.0653825
0.257202
0.598592
0.682531
0.359098
0.248598
0.485117
0.566574
0.737588
0.138854
0.0160692
0.0651606
0.415921
0.323341
0.136374
0.0249902
0.0226901
0.0950629
0.148073
0.129861
0.305856
0.78932
0.671303
0.185347
0.155543
0.255054
0.258315
0.573977
0.857122
0.523354
0.442474
0.85498
0.902123
0.648603
0.334049
0.14817
0.202595
0.25929
0.49686
0.589731
0.881836
0.873368
0.391795
0.359117
0.435683
0.467073
0.391007
1.06583
1.03057
0.962243
0.953175
1.04614
1.06622
0.94826
0.974363
1.0825
0.748278
0.575812
0.620108
0.954133
0.904393
0.771539
0.678263
0.730945
0.896761
0.372119
1.11258
1.0993
1.01013
1.00092
1.00107
1.00261
1.00331
1.03489
1.20704
1.15042
1.01567
1.03024
1.09345
0.947119
0.91647
0.612288
0.819135
0.892168
0.838899
1.07119
1.01238
1.00792
1.05483
1.05551
1.0397
1.00603
1.00303
1.15681
1.19703
1.09663
1.03059
1.04247
1.13649
1.02599
0.725313
0.768795
0.843164
1.19222
1.00169
1.00211
1.00204
1.00203
1.03939
1.05148
1.02927
1.00329
1.05674
1.10342
1.02991
1.01463
1.01241
1.01463
1.05403
1.11239
0.930786
0.844435
1.19242
1.40785
1.13377
1.03701
1.01693
1.01027
1.00927
1.00571
1.00331
1.00329
1.04757
1.16386
1.08971
1.01645
1.01446
1.01478
1.10085
1.08633
0.866297
1.1531
2.96462
2.65827
2.26319
2.18349
2.15017
1.89143
1.35287
1.0442
1.00345
0.999313
1.47641
2.14645
1.8306
1.13479
1.01645
1.3919
1.39813
1.22537
1.25583
2.9993
2.99864
2.99334
2.99242
2.99423
2.99318
2.99355
2.82099
1.77017
1.45287
2.14952
2.93085
2.92294
2.5157
2.10292
2.57067
2.496
1.38942
1.31646
2.99998
2.99999
2.99999
2.99999
2.99999
2.99999
2.99947
2.99852
2.97194
2.89088
2.91366
2.98111
2.99549
2.9981
2.99818
2.99766
2.9886
2.0584
1.43165
2.99993
2.99999
2.99999
2.99997
2.99993
2.99993
2.99992
2.99899
2.994
2.99378
2.99782
2.99982
2.99992
2.99988
2.99992
2.99991
2.99823
2.94841
2.61322
2.99997
2.99992
2.9997
2.99946
2.99922
2.99913
2.99925
2.99937
2.99953
2.99984
2.99988
2.99986
2.99982
2.99983
2.99988
2.99991
2.99997
3
3
2.99964
2.9993
2.99928
2.99929
2.99926
2.99923
2.9992
2.99931
2.99941
2.99951
2.99984
2.99978
2.99979
2.99989
2.99997
2.99998
3
3
3
2.9999
3
2.99997
2.99982
2.99963
2.99947
2.99933
2.99931
2.99931
2.99957
2.99987
2.99978
2.99981
2.99996
2.99999
2.99999
3
3
3
3
3
3
3
3
2.99998
2.99987
2.99972
2.99976
2.99995
2.99996
2.99993
2.99994
2.99995
2.99977
2.99963
2.99968
2.99989
3
3
3
3
3
3
3
3
3
3
3
3
3
2.99998
2.99995
2.99977
2.9994
2.99937
2.99937
2.99999
3
3
3
3
3
3
3
3
3
3
3
3
2.99999
2.99998
2.99995
2.99984
2.99956
2.99936
2.99989
3
3
3
3
3
3
3
3
3
3
3
3
3
2.99999
2.99998
2.99998
2.99995
2.99942
2.99946
3
3
3
3
3
3
3
3
3
3
3
3
3
2.99999
2.99999
3
3
2.99988
2.99945
3
3
3
3
3
3
3
3
3
3
3
3
3
3
3
3
3
3
2.99961
3
3
3
3
3
3
3
3
3
3
3
3
3
3
3
3
3
3
2.99999
3
3
3
3
3
3
3
3
3
3
3
3
3
3
3
3
3
3
3
3
3
3
3
3
3
3
3
3
3
3
3
3
3
3
2.99999
2.99999
3
3
3
3
3
3
3
3
3
3
3
3
3
3
3
3
3
3
3
3
3
3
3
3
3
3
3
3
3
3
3
3
3
3
3
3
3
3
3
3
3
3
3
3
3
3
3
3
3
3
3
3
3
3
3
3
2.99999
2.99999
2.99999
3
3
3
3
3
3
3
3
3
3
3
3
3
3
3
2.99999
2.99998
2.99998
2.99998
3
3
3
3
3
3
3
3
3
3
3
3
3
3
3
3
2.99999
2.99998
2.99999
3
3
3
3
3
3
3
3
3
3
3
3
3
3
3
3
3
2.99999
3
3
3
3
3
3
3
3
3
3
3
3
3
3
3
3
3
3
3
3
3
3
3
3
3
3
3
3
3
3
3
3
3
3
3
3
3
3
3
3
3
3
3
3
3
3
3
3
3
3
3
3
3
3
3
3
3
3
3
3
3
3
3
3
3
3
3
3
3
3
3
3
3
3
3
3
3
3
3
3
3
3
3
3
3
3
3
3
3
3
3
3
3
3
3
3
3
3
3
3
3
3
3
3
3
3
3
3
3
3
3
3
3
3
3
3
3
3
3
3
3
3
3
3
3
3
3
3
3
3
3
3
3
3
3
3
3
3
3
3
3
3
3
3
3
3
3
3
3
3
3
3
3
3
3
3
3
3
3
3
3
3
3
3
3
3
3
3
3
3
3
3
3
3
3
3
3
3
3
3
3
3
3
3
3
3
3
3
3
3
3
3
3
3
3
3
3
3
3
3
3
3
3
3
3
3
3
3
3
3
3
3
3
3
3
3
3
3
3
3
3
3
3
3
3
3
3
3
3
)
;

boundaryField
{
    leftWall
    {
        type            calculated;
        value           nonuniform List<scalar> 
50
(
2
2
2
2
1.82424
0.47315
0.00667302
0.00505827
0.00369846
0.00247411
0.00275285
0.382662
1.14106
1.14199
1.51916
2.48983
2.71254
2.98645
2.98835
2.9881
2.98804
2.99574
2.99999
2.99994
2.99986
3
3
3
3
3
3
3
3
3
3
3
3
3
3
3
3
3
3
3
3
3
3
3
3
3
)
;
    }
    rightWall
    {
        type            calculated;
        value           nonuniform List<scalar> 
50
(
1.95297
1.87203
1.5077
1.46682
1.2751
0.711821
0.591232
0.736867
0.737588
0.573977
0.391007
0.372119
0.838899
1.19222
1.19242
1.1531
1.25583
1.31646
1.43165
2.61322
3
3
3
3
2.99999
2.99989
2.99946
2.99945
2.99961
2.99999
3
3
3
3
2.99999
2.99998
2.99999
3
3
3
3
3
3
3
3
3
3
3
3
3
)
;
    }
    lowerWall
    {
        type            calculated;
        value           nonuniform List<scalar> 
62
(
2
2
2
2
2
2
2
2
2
2
2
2
2
2
2
2
2
2
2
2
2
1.99995
1.99994
1.99994
1.99995
2
2.00002
2.00002
2.00012
1.7066
0.390106
0.176392
0.305986
0.445853
0.445766
1.90594
1.90487
1.19418
0.483303
0.482943
0.461833
0.329195
0.134352
1.90594
1.90616
1.9067
1.92178
1.9454
1.94705
1.94793
1.94987
1.94465
1.94095
1.93659
1.94305
1.93924
1.93982
1.9428
1.94895
1.95042
1.95152
1.95297
)
;
    }
    atmosphere
    {
        type            calculated;
        value           nonuniform List<scalar> 
46
(
3
3
3
3
3
3
3
3
3
3
3
3
3
3
3
3
3
3
3
3
3
3
3
3
3
3
3
3
3
3
3
3
3
3
3
3
3
3
3
3
3
3
3
3
3
3
)
;
    }
    defaultFaces
    {
        type            empty;
    }
}


// ************************************************************************* //
