/*--------------------------------*- C++ -*----------------------------------*\
| =========                 |                                                 |
| \\      /  F ield         | OpenFOAM: The Open Source CFD Toolbox           |
|  \\    /   O peration     | Version:  2312                                  |
|   \\  /    A nd           | Website:  www.openfoam.com                      |
|    \\/     M anipulation  |                                                 |
\*---------------------------------------------------------------------------*/
FoamFile
{
    version     2.0;
    format      ascii;
    arch        "LSB;label=32;scalar=64";
    class       volScalarField;
    location    "2.75";
    object      alpha.air;
}
// * * * * * * * * * * * * * * * * * * * * * * * * * * * * * * * * * * * * * //

dimensions      [0 0 0 0 0 0 0];

internalField   nonuniform List<scalar> 
2268
(
6.8716e-10
6.79414e-10
5.34165e-10
3.19268e-10
1.72551e-10
1.14715e-10
6.00943e-11
3.01281e-11
1.79407e-11
1.08858e-11
7.75022e-12
8.07695e-12
8.64037e-12
9.25018e-12
1.39541e-11
2.32727e-11
3.69753e-11
4.92044e-11
5.39082e-11
4.11801e-11
4.12963e-11
1.8894e-09
1.08509e-08
6.88074e-10
1.00156e-09
8.43637e-10
2.4344e-09
1.84021e-09
8.24054e-10
2.60393e-10
8.00753e-11
6.65969e-11
5.60253e-11
5.43348e-11
6.27898e-11
6.31108e-11
4.69881e-11
7.20701e-11
1.54455e-10
3.44459e-10
6.47622e-10
6.71625e-10
9.67194e-10
5.39625e-10
1.0667e-10
9.35139e-11
6.87766e-10
8.95523e-10
1.20838e-08
2.60721e-08
1.6079e-08
2.09522e-09
6.34278e-11
7.16084e-11
1.1295e-10
1.15006e-10
1.56042e-10
2.17784e-10
2.02666e-10
1.07437e-10
1.99329e-10
8.02736e-10
2.8499e-09
5.93566e-09
8.14306e-09
2.00276e-08
1.16771e-08
2.16282e-07
1.54778e-06
3.95921e-05
8.93651e-10
5.24865e-08
6.34854e-11
6.34251e-11
6.34271e-11
6.3367e-11
6.33691e-11
6.33091e-11
6.33689e-11
8.55369e-11
2.36334e-10
3.2084e-09
1.252e-08
1.67222e-08
2.61958e-09
2.32317e-09
7.65499e-09
7.6652e-08
1.1349e-07
9.0093e-09
3.62075e-06
1.96259e-05
0.000532243
0.000216934
5.28452e-08
0.00014355
0.00020341
6.72805e-05
1.83029e-05
3.12094e-06
1.13485e-06
4.04246e-06
7.83824e-11
7.90863e-11
7.90934e-11
4.65082e-08
4.75094e-08
3.11471e-08
1.04558e-11
1.54412e-08
7.42718e-08
8.42874e-08
1.07778e-08
5.96696e-06
2.13491e-05
0.000677201
0.000823221
0.00106635
0.00151688
0.00105874
0.000138063
2.04569e-05
2.45165e-05
3.89065e-05
7.29469e-05
0.000137909
8.46209e-05
1.0422e-05
3.07016e-11
3.04937e-11
1.21266e-09
1.07103e-11
1.2519e-11
1.85078e-15
-2.59038e-12
1.92247e-10
1.22055e-07
0.000122154
0.000676452
0.00167138
0.00187775
0.00152439
0.00025709
3.27481e-05
2.05381e-05
7.70432e-05
0.000124216
0.000150218
0.000328146
0.000944526
0.00115938
0.000688351
0.000199526
0.000158999
0.000146833
0.000183589
1.91248e-09
1.86841e-05
0.000367544
0.00235932
0.0123467
0.000982477
0.00167154
0.000977491
0.000240208
0.000212836
0.000414975
0.00042078
0.000442999
0.000459788
0.000400825
0.000329597
0.000331206
0.000331324
0.00116639
0.000696283
0.000929874
0.00252574
0.00288401
1.47348e-07
0.000266457
0.00190125
0.00651851
0.0209333
0.000233839
0.000233882
0.000498872
0.00528084
0.0117547
0.0117548
0.011298
0.0102447
0.00998234
0.00903859
0.00440208
0.00482869
0.00502312
0.00469571
0.00469761
0.00635699
0.00636014
0.00629929
0.00629981
0.000315421
0.00061554
0.000734397
0.000871791
0.00119276
0.00189497
0.00555212
0.00559978
0.00389356
0.00390115
0.00392993
0.00663447
0.00687968
0.00628486
0.00352973
0.00434891
0.00902292
0.0160132
0.010156
0.000316574
0.000610162
0.00299721
0.00362123
0.00153649
0.00156131
0.00550466
0.0276356
0.0253268
0.00983749
0.00392987
0.00575278
0.00687936
0.00579629
0.00352892
0.00353036
0.00969258
0.0287558
0.0187286
0.00396695
0.00924144
0.015646
0.022093
0.012379
0.00823543
0.0233568
0.0345005
0.0306261
0.0306199
0.0117711
0.00354851
0.00354891
0.0105319
0.014586
0.00367944
0.00520578
0.0225348
0.017503
0.0355492
0.0326814
0.0273042
0.0294357
0.0203336
0.00852768
0.0350587
0.0210012
0.00389318
0.0176893
0.00840089
0.00496224
0.00448693
0.0324434
0.0513345
0.025036
0.00516657
0.00806905
0.00893154
0.0376307
0.0279473
0.00197769
0.002529
0.00164324
0.00215507
0.0369227
0.00335571
0.00337475
0.00916075
0.00778223
0.00778938
0.0136827
0.0680779
0.0698569
0.0697537
0.0518023
0.00882542
0.00940463
0.0376263
0.0094176
0.000398961
0.00021768
0.000217897
0.000228586
0.0369205
0.00394569
0.00540793
0.0301331
0.0284233
0.0259399
0.0388647
0.0269298
0.0383294
0.0413617
0.0765776
0.0714819
0.0259754
0.0171395
0.00393269
0.011891
0.00924121
0.000219115
0.000218975
0.0369243
0.00254114
0.00591214
0.017836
0.019256
0.00854993
0.0101927
0.0187335
0.0314971
0.0462849
0.0961298
0.0959315
0.0689547
0.000913012
0.000687886
0.000427821
0.00042786
0.000498833
0.00050726
0.000507153
0.000505813
0.000505503
0.00104227
0.0044258
0.00491795
0.00809744
0.00851185
0.00670283
0.00485419
0.002735
0.00338477
0.00756297
0.00107857
0.00192241
0.00579004
0.0185725
0.000691267
0.000690534
0.00267707
0.00719856
0.007296
0.00786628
0.00979909
0.0131588
0.021327
0.033764
0.0540181
0.0544567
0.0426451
0.0334957
0.0230531
0.0232069
0.0243542
0.0305319
0.0301301
0.0245954
0.0128321
0.00459604
0.00239681
0.000691313
0.000690785
0.000721932
0.000875033
0.0118711
0.0238754
0.0483646
0.0505835
0.0506169
0.0506514
0.0551679
0.0627598
0.0643548
0.0643542
0.0566902
0.0611439
0.0790385
0.0819933
0.0820098
0.0820079
0.0820098
0.0594793
0.0384085
0.051395
0.0540943
0.0541784
0.0226489
0.0182523
0.0143276
0.0140544
0.0295047
0.0235926
0.00620907
0.00294534
0.00283351
0.0036853
0.00719635
0.0155939
0.0182748
0.0163855
0.0208963
0.0500699
0.0799928
0.081745
0.0816757
0.0816116
0.0711985
0.0524766
0.0524527
0.0599914
0.250799
0.199569
0.0358815
0.00402809
0.000733777
0.0006934
0.000693633
0.000692994
0.000628693
0.000430845
0.000399077
0.000397892
0.000397915
0.000425025
0.000510244
0.000550036
0.0101002
0.0142646
0.00320585
0.071867
0.072217
0.0709257
0.0692941
0.247827
0.370193
0.360717
0.238116
0.00979899
0.000697767
0.00681697
0.0222563
0.0182563
0.00864093
0.000925126
0.000398554
0.000396744
0.000397418
0.000396744
0.000398585
0.000397877
0.000399784
0.000400701
0.261547
0.20744
0.254987
0.257278
0.314283
0.370711
0.247677
0.0965551
0.098097
0.101597
0.0981728
0.229429
0.552062
0.541063
0.360263
0.184946
0.120461
0.0798212
0.0421328
0.0401666
0.0441368
0.0412792
0.0270578
0.746899
0.851094
0.90201
0.847901
0.757406
0.675358
0.685178
0.739035
0.818914
0.871414
0.858381
0.779937
0.744577
0.840946
0.915533
0.905755
0.854586
0.782966
0.672862
0.671214
0.70543
0.709369
0.671632
0.858398
0.992535
0.994237
0.996762
0.998343
0.997537
0.997069
0.997622
0.998717
0.99917
0.999133
0.992797
0.985901
0.975059
0.967572
0.974325
0.986787
0.9809
0.978746
0.980351
0.997174
0.999086
0.998461
0.995348
0.997496
0.999962
0.999996
0.999996
0.99999
0.999954
0.999904
0.999805
0.999846
0.999973
0.999992
0.999998
0.996698
0.99118
0.991605
0.998064
0.998707
0.995696
0.987808
0.994015
0.999999
1
0.995982
0.999555
0.999821
0.999998
0.999998
0.999998
0.999764
0.999527
0.999359
0.999363
0.999654
0.999997
0.999998
0.999998
0.999998
0.999686
0.999717
0.999882
0.999944
0.999859
0.999483
0.999574
0.999956
0.995931
0.999681
0.999794
0.999972
0.999998
0.999998
0.999849
0.999369
0.999361
0.999444
0.999785
0.999998
0.999998
0.999998
0.999998
0.999999
0.999998
0.999997
0.999997
0.999998
0.999998
0.999985
0.999974
0.995955
0.99875
0.999973
0.999998
0.999998
0.999998
0.999998
0.999931
0.999883
0.999997
0.999996
0.999986
0.999975
0.999988
0.999999
0.999999
0.999999
0.999999
0.999992
0.999964
0.999963
0.999959
0.99995
0.998578
0.999412
0.999998
0.999998
0.999993
0.999954
0.999982
0.999997
0.999997
0.999997
0.999989
0.999935
0.999935
0.999959
0.999981
0.999999
0.999999
0.99999
0.999881
0.999861
0.999891
0.999983
0.999987
0.999996
0.999996
0.999993
0.999976
0.999926
0.999931
0.999955
0.999997
0.999997
0.999997
0.999936
0.999936
0.999936
0.99996
0.999979
0.999918
0.999826
0.999826
0.999934
0.999981
0.999976
0.999958
0.999973
0.999976
0.999965
0.999918
0.999905
0.999905
0.999935
0.999985
0.999997
0.999997
0.999963
0.999936
0.999962
0.999997
0.99998
0.999827
0.999803
0.999805
0.999949
0.999999
0.999984
0.999958
0.999958
0.999992
0.999946
0.99992
0.999918
0.999928
0.999969
0.999998
0.999997
0.999993
0.999983
0.999947
0.999955
0.999999
0.999999
0.999986
0.999882
0.999868
0.99995
1
1
0.999987
0.999976
0.999992
1
1
1
0.999994
0.999999
0.999999
0.999999
0.999995
0.999987
0.999962
0.999952
0.999987
1
1
0.999998
0.999992
0.99999
0.999998
1
0.999999
0.999999
1
1
1
1
1
1
0.999999
0.999999
0.999996
0.999994
0.99998
0.999962
0.99997
1
1
1
1
1
1
1
1
1
1
1
1
1
1
0.999999
0.999998
0.999996
0.999996
1
0.999998
0.999996
0.999994
0.999997
1
1
1
1
1
1
1
1
1
1
1
1
1
1
1
0.999998
0.999999
1
1
1
1
1
1
1
1
1
1
1
1
1
1
1
1
1
1
1
1
1
1
1
1
1
1
1
1
1
1
1
1
1
1
1
1
1
1
1
1
1
1
1
1
1
1
1
1
1
1
1
1
1
1
1
1
1
1
1
1
1
1
1
1
1
1
1
1
1
1
1
1
1
1
1
1
1
1
1
1
1
1
1
1
1
1
1
1
1
1
1
1
1
1
1
1
1
1
1
1
1
1
1
1
1
1
1
1
1
1
1
1
1
1
1
1
1
1
1
1
1
1
1
1
1
1
1
1
1
1
1
1
1
1
1
1
1
1
1
1
1
1
1
1
1
1
1
1
1
1
1
1
1
1
1
1
1
1
1
1
1
1
1
1
1
1
1
1
1
1
1
1
1
1
1
1
1
1
1
1
1
1
1
1
1
1
1
1
1
1
1
1
1
1
1
1
1
1
1
1
1
1
1
1
1
1
1
1
1
1
1
1
1
1
1
1
1
1
1
1
1
1
1
1
1
1
1
1
1
1
1
1
1
1
1
1
1
1
1
1
1
1
1
1
1
1
1
1
1
1
1
1
1
1
1
0.999999
1
1
1
1
1
1
1
1
1
1
1
1
1
1
1
1
1
1
1
1
1
0.999999
0.999999
0.999999
1
1
1
1
1
1
1
1
1
1
1
1
1
1
1
1
1
1
1
1
0.999999
0.999999
0.999999
0.999999
1
1
1
1
1
1
1
1
1
1
1
1
1
1
1
1
1
1
1
0.999999
0.999999
0.999999
1
1
1
1
1
1
1
1
1
1
1
1
1
1
1
1
1
1
1
1
1
0.999999
0.999999
1
1
1
1
1
1
1
1
1
1
1
1
1
1
1
1
1
1
1
1
0.999999
0.999998
0.999999
1
1
1
1
1
1
1
1
1
1
1
1
1
1
1
1
1
1
1
1
0.999998
0.999998
0.999999
1
1
1
1
1
1
1
1
1
1
1
1
1
1
1
0.999999
1
1
1
1
0.999999
0.999998
1
1
1
1
1
1
1
1
1
1
1
1
1
1
1
1
0.999999
1
1
1
1
1
1
1
1
1
1
1
1
1
1
1
1
1
1
1
1
1
1
0.999999
1
1
1
1
1
1
1
1
1
1
1
1
1
1
1
1
1
1
1
1
1
1
1
1
1
1
1
1
1
1
1
1
1
1
1
1
1
1
1
1
1
1
1
1
1
0.0237823
0.0313411
0.0344177
0.0344324
0.00238883
0.00698049
0.0308689
0.0383234
0.0149571
0.00954066
0.0156742
0.0384037
0.0461195
0.0242566
0.0300821
0.0440395
0.00117594
0.00796798
0.054998
0.0562828
0.00048772
0.000745863
0.00103448
0.0154345
0.0123118
0.0038029
0.000476376
0.000419241
0.602745
0.514535
0.40648
0.334018
0.997638
0.994199
0.990729
0.990968
1
1
1
1
0.999991
0.999989
0.999992
0.999994
0.999972
0.999971
0.99996
0.999958
0.99995
0.99995
0.999961
0.999987
0.999992
0.999995
0.999998
0.999979
0.999991
0.999997
0.999967
0.999948
1
0.999997
0.999998
1
1
1
1
1
1
1
1
1
1
1
1
1
1
1
1
1
1
1
1
1
1
1
1
1
1
1
1
1
1
1
1
1
1
1
1
1
1
1
1
1
1
1
1
1
1
1
1
1
1
1
1
1
1
1
1
1
1
1
1
1
1
1
1
1
1
1
1
1
1
1
1
1
1
1
1
1
1
1
1
1
1
1
1
1
1
1
1
1
1
1
1
1
1
1
1
1
1
1
1
1
1
1
1
1
0.0208863
0.00170301
0.0133092
0.0410866
0.0162931
0.00022366
0.0107546
0.0014082
0.00608071
0.00677319
0.00441534
0.00464218
0.038846
0.114806
0.085211
0.053389
0.0963622
0.0759099
0.0692904
0.0111227
0.00169924
0.00623607
0.0959518
0.0995608
0.0454581
0.00831903
0.00604576
0.0109732
0.00576451
0.00441278
0.0472543
0.10975
0.162377
0.0204795
0.00562363
0.0361981
0.0364657
0.057688
0.0130324
0.00170301
0.00732339
0.0644069
0.0995414
0.0996373
0.0747036
0.0482922
0.0596523
0.0508972
0.00873946
0.0149919
0.134652
0.171465
0.0380958
0.00461657
0.0196014
0.0497406
0.0413571
0.0309503
0.0178056
0.00333441
0.00338045
0.0217603
0.0372085
0.0239145
0.0254491
0.0972486
0.100457
0.0658453
0.0255405
0.172529
0.184591
0.0969756
0.0046927
0.00450411
0.049721
0.0289631
0.0562501
0.0492548
0.00463816
0.000918081
0.00094993
0.000918267
0.000908774
0.0109677
0.0974197
0.0740807
0.0303119
0.0650453
0.19648
0.196747
0.181531
0.0211328
0.00427221
0.0220712
0.0281442
0.0355931
0.00618849
0.00395465
0.0274008
0.0277338
0.0198178
0.00300225
0.00165071
0.073398
0.0941284
0.0476379
0.0158246
0.0297642
0.108223
0.164453
0.0405422
0.004268
0.0042809
0.112554
0.000945567
0.00110132
0.00109053
0.00108865
0.0197216
0.0257388
0.0146365
0.00164288
0.0283841
0.05026
0.0121186
0.00678109
0.00679548
0.00753287
0.0345096
0.0716671
0.0220322
0.0054626
0.11292
0.204271
0.0672599
0.0193991
0.00930328
0.00559686
0.00458278
0.00281334
0.00165071
0.0016438
0.0246378
0.0777078
0.0385077
0.00674694
0.00674806
0.00696124
0.0455441
0.0468561
0.00601509
0.0930877
0.980759
0.830473
0.633718
0.593389
0.575256
0.444018
0.175039
0.0219879
0.00172279
0.00172197
0.234321
0.567828
0.406846
0.0652277
0.00776299
0.190301
0.193288
0.125793
0.127418
0.999302
0.998962
0.997669
0.997475
0.997367
0.994517
0.99447
0.908288
0.385294
0.23046
0.573365
0.959738
0.952484
0.755396
0.551449
0.780672
0.74222
0.191526
0.153943
0.999994
0.999997
0.999997
0.999994
0.999995
0.999995
0.999473
0.998517
0.985714
0.94925
0.960045
0.989089
0.995485
0.998104
0.999081
0.997671
0.988605
0.526554
0.21582
0.999976
0.999997
0.999994
0.999985
0.999968
0.999969
0.999969
0.999643
0.997942
0.997886
0.99925
0.999905
0.999928
0.999884
0.999951
0.99997
0.998248
0.973672
0.806603
0.999987
0.999963
0.999852
0.999732
0.999658
0.999653
0.999712
0.999787
0.99984
0.99993
0.99993
0.99993
0.999929
0.999939
0.999951
0.99997
0.999991
0.999999
0.999997
0.999827
0.99967
0.999661
0.999661
0.999644
0.999639
0.99965
0.999697
0.999724
0.999752
0.999916
0.999916
0.999923
0.999963
0.999991
0.999994
0.999998
0.999999
0.999999
0.999951
1
0.999983
0.99991
0.999819
0.999745
0.999681
0.999672
0.999673
0.999785
0.999943
0.999924
0.999934
0.999982
0.999993
0.999997
0.999999
0.999999
0.999999
1
1
1
1
1
0.999989
0.999937
0.999862
0.999884
0.999974
0.99998
0.999972
0.999976
0.999968
0.999873
0.999804
0.999837
0.999947
0.999997
1
1
1
1
1
1
1
1
1
1
1
0.999998
0.999989
0.999972
0.999878
0.999694
0.999682
0.999684
0.999995
1
1
1
1
1
1
1
1
1
1
1
1
0.999997
0.999991
0.999977
0.999923
0.999781
0.99968
0.999952
1
1
1
1
1
1
1
1
1
1
1
1
1
0.999997
0.999992
0.999992
0.99998
0.999706
0.999733
1
1
1
1
1
1
1
1
1
1
1
1
0.999999
0.999997
0.999996
1
1
0.999942
0.99973
1
1
1
1
1
1
1
1
1
1
1
1
1
0.999999
1
1
1
1
0.999811
1
1
1
1
1
1
1
1
1
1
1
1
1
1
1
1
1
1
0.999996
1
1
1
1
1
1
1
1
1
1
1
1
1
1
0.999999
0.999998
0.999998
0.999999
1
1
1
1
1
1
1
1
1
1
1
1
1
1
1
0.999999
0.999997
0.999997
0.999998
0.999999
1
1
1
1
1
1
1
1
1
1
1
1
1
1
1
0.999998
0.999999
0.999999
0.999999
1
1
1
1
1
1
1
1
1
1
1
1
1
1
1
1
1
1
0.999999
1
1
1
1
1
1
1
1
1
1
1
1
1
1
1
0.999999
0.999994
0.999993
0.999993
1
1
1
1
1
1
1
1
1
1
1
1
1
1
1
0.999997
0.999992
0.999992
0.999992
1
1
1
1
1
1
1
1
1
1
1
1
1
1
1
0.999999
0.999993
0.999992
0.999997
1
1
1
1
1
1
1
1
1
1
1
1
1
1
1
1
0.999999
0.999994
1
1
1
1
1
1
1
1
1
1
1
1
1
1
1
1
1
1
1
1
1
1
1
1
1
1
1
1
1
1
1
1
1
1
1
1
1
1
1
1
1
1
1
1
1
1
1
1
1
1
1
1
1
1
1
1
1
1
1
1
1
1
1
1
1
1
1
1
1
1
1
1
1
1
1
1
1
1
1
1
1
1
1
1
1
1
1
1
1
1
1
1
1
1
1
1
1
1
1
1
1
1
1
1
1
1
1
1
1
1
1
1
1
1
1
1
1
1
1
1
1
1
1
1
1
1
1
1
1
1
1
1
1
1
1
1
1
1
1
1
1
1
1
1
1
1
1
1
1
1
1
1
1
1
1
1
1
1
1
1
1
1
1
1
1
1
1
1
1
1
1
1
1
1
1
1
1
1
1
1
1
1
1
1
1
1
1
1
1
1
1
1
1
1
1
1
1
1
1
1
1
1
1
1
1
1
1
1
1
1
1
1
1
1
1
1
1
1
1
1
1
1
1
1
1
1
1
1
1
)
;

boundaryField
{
    leftWall
    {
        type            alphaContactAngle;
        thetaProperties 
6
(
(galistan air) 90 0 0 0
(oil galistan) 90 0 0 0
(water oil) 90 0 0 0
(water air) 90 0 0 0
(oil air) 90 0 0 0
(water galistan) 90 0 0 0
);
        value           nonuniform List<scalar> 
50
(
6.8716e-10
6.88074e-10
6.87766e-10
3.95921e-05
0.000532243
0.000677201
0.000676452
0.000982477
0.000913012
0.000691267
0.000691313
0.051395
0.0711985
0.071867
0.261547
0.746899
0.858398
0.995348
0.995982
0.995931
0.995955
0.998578
0.999996
0.999976
0.999946
1
1
1
1
1
1
1
1
1
1
1
1
1
1
1
1
1
1
1
1
1
0.999999
0.999999
0.999999
1
)
;
    }
    rightWall
    {
        type            alphaContactAngle;
        thetaProperties 
6
(
(galistan air) 90 0 0 0
(oil galistan) 90 0 0 0
(water oil) 90 0 0 0
(water air) 90 0 0 0
(oil air) 90 0 0 0
(water galistan) 90 0 0 0
);
        value           nonuniform List<scalar> 
50
(
0.00629981
0.010156
0.0187286
0.017503
0.00893154
0.00940463
0.0259754
0.0689547
0.0692904
0.057688
0.0413571
0.0289631
0.0281442
0.112554
0.11292
0.0930877
0.127418
0.153943
0.21582
0.806603
0.999997
0.999999
0.999999
0.999997
0.999995
0.999952
0.999733
0.99973
0.999811
0.999996
1
0.999999
0.999999
0.999999
0.999993
0.999992
0.999997
1
1
1
1
1
1
1
1
1
1
1
1
1
)
;
    }
    lowerWall
    {
        type            alphaContactAngle;
        thetaProperties 
6
(
(galistan air) 90 0 0 0
(oil galistan) 90 0 0 0
(water oil) 90 0 0 0
(water air) 90 0 0 0
(oil air) 90 0 0 0
(water galistan) 90 0 0 0
);
        value           nonuniform List<scalar> 
62
(
6.8716e-10
6.79414e-10
5.34165e-10
3.19268e-10
1.72551e-10
1.14715e-10
6.00943e-11
3.01281e-11
1.79407e-11
1.08858e-11
7.75022e-12
8.07695e-12
8.64037e-12
9.25018e-12
1.39541e-11
2.32727e-11
3.69753e-11
4.92044e-11
5.39082e-11
4.11801e-11
4.12963e-11
1.8894e-09
1.08509e-08
1.08509e-08
9.35139e-11
1.54778e-06
1.96259e-05
2.13491e-05
0.000122154
0.0123467
0.0209333
0.0237823
0.0313411
0.0344177
0.0344324
0.000233839
0.000315421
0.000316574
0.00396695
0.0355492
0.0376307
0.0376263
0.0171395
0.000233839
0.000233882
0.000498872
0.00528084
0.0117547
0.0117548
0.011298
0.0102447
0.00998234
0.00903859
0.00440208
0.00482869
0.00502312
0.00469571
0.00469761
0.00635699
0.00636014
0.00629929
0.00629981
)
;
    }
    atmosphere
    {
        type            inletOutlet;
        inletValue      uniform 1;
        value           nonuniform List<scalar> 
46
(
1
1
1
1
1
1
1
1
1
1
1
1
1
1
1
1
1
1
1
1
1
1
1
1
1
1
1
1
1
1
1
1
1
1
1
1
1
1
1
1
1
1
1
1
1
1
)
;
    }
    defaultFaces
    {
        type            empty;
    }
}


// ************************************************************************* //
