/*--------------------------------*- C++ -*----------------------------------*\
| =========                 |                                                 |
| \\      /  F ield         | OpenFOAM: The Open Source CFD Toolbox           |
|  \\    /   O peration     | Version:  2312                                  |
|   \\  /    A nd           | Website:  www.openfoam.com                      |
|    \\/     M anipulation  |                                                 |
\*---------------------------------------------------------------------------*/
FoamFile
{
    version     2.0;
    format      ascii;
    arch        "LSB;label=32;scalar=64";
    class       volScalarField;
    location    "2.75";
    object      p;
}
// * * * * * * * * * * * * * * * * * * * * * * * * * * * * * * * * * * * * * //

dimensions      [1 -1 -2 0 0 0 0];

internalField   nonuniform List<scalar> 
2268
(
4559.52
4566.86
4585.04
4613.13
4653.79
4702.44
4756.54
4812.72
4869.89
4929.56
4996.16
5074.65
5167.13
5271.66
5383.31
5495.83
5603.77
5702.08
5785.81
5851.47
5897.42
5923.8
5932.93
3760.93
3768.51
3786.36
3814.53
3855.12
3904.91
3959.74
4015.99
4072.51
4131.12
4196.59
4274.55
4367.53
4473.38
4586.62
4700.48
4809.53
4908.51
4992.37
5057.55
5102.33
5126.79
5133.9
2960.93
2968.43
2985.41
3013.2
3054.27
3105.97
3162.17
3218.67
3274.04
3330.43
3393.44
3470.15
3564.17
3672.84
3789.4
3905.94
4017.05
4117.66
4201.93
4266.33
4308.97
4329.56
4332.78
2160.9
2166.54
2182.31
2209.3
2251.21
2306.2
2364.88
2421.74
2475.1
2527.71
2586.5
2660.8
2756.38
2869.51
2991.52
3112.35
3226.99
3329.76
3414.67
3477.92
3517.3
3531.87
3528.71
1388.76
1389.63
1399.22
1419.95
1456.82
1508.77
1568.2
1625.52
1676.02
1723.05
1775.58
1846.24
1944.4
2063.83
2193.03
2319.29
2438.35
2544.54
2630.05
2691.97
2726.89
2733.04
2720.42
904.358
901.194
902.077
906.956
918.671
937.537
963.067
989.871
1013.26
1034.62
1061.04
1103.34
1176.32
1279.46
1399.44
1528.23
1651.2
1761.14
1848.3
1909.38
1938.39
1933.59
1907.16
759.054
756.832
754.107
749.46
743.125
734.929
726.652
719.626
714.416
712.007
713.317
718.827
733.446
766.911
817.378
892.244
969.428
1046.94
1117.16
1167.77
1190.61
1180.9
1153.93
700.026
697.587
695.121
690.351
683.702
675.271
665.671
655.765
646.27
638.025
631.957
625.715
615.553
608.819
608.624
614.705
617.926
640.688
673.967
702.558
719.263
724.039
723.415
2678.95
2649.96
2601.24
2527.92
2458.58
2415.44
2421.82
2481.41
2600.59
2762.38
2905.34
2989.01
3012.23
2998.49
2999.5
3023.96
3071.1
3133.07
3166.59
1936.5
1906.8
1859.19
1790.52
1723.48
1685.4
1704.7
1754.6
1857.3
2011.51
2158.9
2242.8
2262.19
2234.28
2226.65
2255.14
2330.83
2395.17
2451.41
1328.62
1302.2
1276.51
1238.62
1209.8
1205.02
1223.07
1270.21
1327.54
1414.24
1540.7
1609.13
1618.44
1594.34
1575.07
1596.78
1713.06
1819.17
1909.02
1038.18
1025.93
1029.85
1031.78
1037.7
1059.86
1056.49
1108.25
1133.93
1134.53
1173.69
1205.97
1215.97
1225.44
1231.09
1244.56
1309.02
1399.75
1535.02
960.257
961.436
969.092
978.241
984.614
1009.76
1000.72
1048.08
1060.77
1042.06
1025.94
1043.6
1060.67
1090.08
1123.2
1133.85
1133.67
1143.25
1222.93
907.896
908.662
913.257
924.419
926.446
951.012
941.766
971.077
980.24
977.793
979.358
995.101
1010.42
1043.08
1067.11
1071.43
1052.3
1028.56
1042.13
857.81
852.234
853.147
862.366
865.711
886.863
882.101
893.303
909.09
913.089
931.966
954.374
963.848
989.873
1000.85
997.175
982.009
966.569
969.431
786.603
786.537
790.152
799.303
804.294
820.878
823.365
818.759
846.768
855.04
877.068
898.493
908.834
924.036
926.814
924.334
918.895
913.932
920.688
608.255
604.906
601.748
596.96
591.203
583.263
573.387
562.62
551.919
542.102
534.052
528.095
521.875
516.106
512.421
507.631
504.521
511.851
522.953
533.136
543.18
558.308
574.5
484.667
481.035
477.533
473.493
467.8
459.614
448.55
436.365
424.309
413.603
405.785
401.234
398.921
396.261
395.366
394.208
395.681
396.92
402.658
410.919
420.558
432.139
443.246
357.869
353.966
351.411
347.725
345.36
341.028
331.778
321.775
315.021
310.626
307.043
303.19
299.864
297.464
295.109
293.542
295.116
299.039
305.013
312.568
321.193
330.75
341.101
248.987
245.728
240.484
237.081
237.197
239.046
239.15
236.292
235.866
236.065
234.763
231.225
226.592
222.577
220.028
219.815
222.665
227.593
234.061
241.509
250.168
260.016
271.205
164.618
160.419
155.803
150.765
148.113
151.855
159.625
165.952
168.867
168.672
167.433
163.921
159.524
156.34
156.001
158.262
162.295
167.749
174.609
182.406
190.743
199.449
208.731
100.786
94.738
90.1244
86.0551
85.2228
90.329
96.6602
101.952
103.405
103.113
102.335
99.4376
91.5657
87.3594
89.8447
95.3693
100.849
106.464
112.796
119.361
127.04
134.821
142.728
44.7654
37.1632
32.6971
32.4229
36.2337
40.9571
45.2808
46.4757
42.2457
39.2447
39.7179
40.0421
37.4986
34.0147
33.1817
37.0041
41.7589
46.44
51.9017
55.7718
60.4638
66.2758
72.7813
10.5378
4.72968
3.64769
4.17106
6.73519
9.66365
9.77254
8.11225
5.66663
4.0078
4.2379
6.93215
9.37878
8.22878
7.25427
7.49788
8.50754
9.81109
11.6576
12.5141
12.7712
14.9691
17.832
3.19144
-0.50308
-0.783036
-1.10955
-1.15627
-1.06408
-0.83206
-0.687448
-0.652138
-0.740021
-0.885542
-0.844929
-0.488534
0.34732
1.25289
1.21295
0.918432
0.846104
0.621921
0.587896
0.286987
-0.252478
-0.186692
-1.02153
-1.34876
-1.46837
-1.51766
-1.49578
-1.44079
-1.31023
-1.16412
-1.10137
-1.1556
-1.29265
-1.4563
-1.51105
-1.44107
-1.20052
-1.18545
-1.08476
-1.08743
-1.24101
-1.10589
-1.25601
-1.42964
-1.51147
-1.67424
-1.70155
-1.70562
-1.72899
-1.69522
-1.64782
-1.57352
-1.47259
-1.44059
-1.492
-1.60326
-1.72039
-1.80782
-1.89936
-1.93989
-1.91762
-1.88691
-1.83682
-1.78688
-1.7754
-1.71474
-1.65523
-1.68728
-1.70825
-1.82507
-1.86965
-1.88958
-1.86831
-1.83974
-1.81921
-1.78907
-1.79289
-1.84286
-1.90872
-1.96974
-2.03176
-2.08758
-2.11712
-2.10295
-2.06666
-2.01932
-1.95156
-1.90739
-1.86906
-1.82723
-1.80096
-1.83692
-1.90441
-1.96819
-1.99516
-1.99821
-1.99601
-2.00462
-2.02031
-2.04291
-2.08103
-2.12307
-2.16742
-2.21556
-2.257
-2.27354
-2.2467
-2.19229
-2.13162
-2.07196
-2.02787
-1.99622
-1.97303
-1.96812
-1.88209
-1.94853
-2.0269
-2.08094
-2.11305
-2.13579
-2.15805
-2.1837
-2.21155
-2.24276
-2.27741
-2.31658
-2.34944
-2.37397
-2.37698
-2.34884
-2.29805
-2.24606
-2.19944
-2.16377
-2.13667
-2.11646
-2.10649
-2.05363
-2.06858
-2.13258
-2.19962
-2.25056
-2.28862
-2.31821
-2.34335
-2.36714
-2.38866
-2.40847
-2.42987
-2.45814
-2.47418
-2.46537
-2.44139
-2.40646
-2.37028
-2.33754
-2.30852
-2.28589
-2.27043
-2.26621
-2.21205
-2.22954
-2.28877
-2.35559
-2.41285
-2.45598
-2.48628
-2.508
-2.52218
-2.52642
-2.53313
-2.54717
-2.55882
-2.56444
-2.56006
-2.54393
-2.5233
-2.49878
-2.47188
-2.44781
-2.43087
-2.42165
-2.41709
-2.3972
-2.41912
-2.47001
-2.52871
-2.58122
-2.62345
-2.65193
-2.66695
-2.66351
-2.65823
-2.6574
-2.6626
-2.6687
-2.66907
-2.66514
-2.65466
-2.63936
-2.6194
-2.60022
-2.58469
-2.57283
-2.5646
-2.5593
-2.5755
-2.59997
-2.64242
-2.69209
-2.73812
-2.77603
-2.79682
-2.80006
-2.79154
-2.77834
-2.77444
-2.77456
-2.77592
-2.77549
-2.77251
-2.76457
-2.75207
-2.7378
-2.72487
-2.71464
-2.70601
-2.69886
-2.69557
-2.73253
-2.7558
-2.79092
-2.83227
-2.86943
-2.89746
-2.91107
-2.90719
-2.8983
-2.89011
-2.88593
-2.88474
-2.88448
-2.88341
-2.88047
-2.87449
-2.86582
-2.85624
-2.84741
-2.84003
-2.83384
-2.82915
-2.82692
-2.86507
-2.88596
-2.91398
-2.94708
-2.97611
-2.99579
-3.00292
-2.99993
-2.99496
-2.99369
-2.99325
-2.99347
-2.9936
-2.99296
-2.99089
-2.98691
-2.98129
-2.97504
-2.9691
-2.96399
-2.9599
-2.95717
-2.95637
-2.97646
-2.99533
-3.01823
-3.04511
-3.06852
-3.08487
-3.09333
-3.09631
-3.09753
-3.09917
-3.10095
-3.10264
-3.10382
-3.10412
-3.10326
-3.10109
-3.09782
-3.09403
-3.09031
-3.08709
-3.08467
-3.08335
-3.0835
-3.07783
-3.09566
-3.11603
-3.13981
-3.16119
-3.17784
-3.18914
-3.19652
-3.20195
-3.20651
-3.21033
-3.21341
-3.21566
-3.217
-3.21732
-3.21665
-3.21515
-3.2132
-3.2112
-3.20949
-3.20839
-3.20813
-3.20896
-3.18052
-3.19782
-3.21718
-3.23976
-3.26075
-3.27831
-3.2918
-3.30194
-3.30988
-3.31635
-3.32161
-3.32582
-3.32904
-3.33132
-3.33269
-3.33322
-3.33308
-3.33253
-3.33187
-3.33137
-3.33128
-3.33182
-3.33317
-3.29047
-3.30708
-3.32573
-3.34744
-3.36801
-3.38587
-3.40039
-3.41193
-3.42121
-3.42878
-3.43495
-3.43994
-3.44391
-3.44695
-3.44917
-3.45065
-3.45155
-3.45208
-3.45245
-3.45288
-3.45358
-3.45472
-3.45645
-3.40883
-3.42431
-3.44193
-3.46243
-3.48206
-3.49946
-3.51403
-3.52595
-3.5357
-3.54372
-3.55033
-3.55577
-3.56022
-3.56382
-3.56667
-3.56887
-3.57056
-3.5719
-3.57305
-3.57418
-3.57547
-3.57706
-3.57906
-3.53431
-3.5483
-3.56449
-3.58336
-3.60159
-3.61794
-3.63186
-3.64345
-3.65305
-3.66102
-3.66767
-3.67326
-3.67795
-3.68187
-3.68514
-3.68784
-3.6901
-3.69202
-3.69374
-3.6954
-3.69712
-3.69903
-3.70121
-3.66499
-3.67731
-3.6918
-3.70876
-3.72526
-3.74019
-3.75304
-3.76384
-3.77286
-3.78042
-3.78682
-3.79228
-3.79698
-3.80104
-3.80453
-3.80755
-3.81018
-3.8125
-3.81463
-3.81664
-3.81867
-3.82079
-3.82309
-3.79916
-3.80979
-3.82246
-3.83739
-3.85201
-3.86532
-3.87684
-3.88657
-3.89474
-3.90165
-3.90756
-3.9127
-3.91722
-3.92123
-3.92479
-3.92797
-3.93081
-3.93339
-3.93576
-3.93802
-3.94024
-3.9425
-3.94484
-3.93552
-3.94454
-3.95541
-3.96833
-3.98105
-3.99266
-4.00272
-4.01121
-4.01836
-4.02443
-4.02969
-4.03435
-4.03855
-4.04237
-4.04587
-4.04907
-4.05199
-4.0547
-4.05721
-4.0596
-4.06193
-4.06424
-4.06658
-4.07307
-4.08063
-4.08984
-4.10087
-4.11175
-4.12166
-4.13021
-4.13738
-4.14339
-4.14852
-4.15301
-4.15709
-4.16086
-4.16439
-4.16771
-4.17082
-4.17373
-4.17646
-4.17902
-4.18145
-4.1838
-4.18612
-4.18841
-4.21104
-4.21733
-4.22505
-4.23437
-4.24353
-4.25183
-4.25888
-4.2647
-4.26953
-4.27366
-4.27735
-4.28077
-4.28405
-4.28722
-4.29029
-4.29323
-4.29603
-4.29868
-4.3012
-4.3036
-4.30592
-4.30818
-4.31038
-4.34883
-4.35402
-4.36044
-4.36824
-4.37586
-4.38265
-4.38828
-4.39279
-4.39648
-4.39963
-4.40251
-4.40528
-4.40804
-4.4108
-4.41355
-4.41625
-4.41887
-4.42138
-4.42379
-4.42609
-4.42832
-4.43047
-4.43256
-4.48593
-4.49017
-4.49548
-4.50195
-4.50819
-4.51363
-4.51797
-4.52129
-4.52391
-4.52618
-4.52832
-4.53048
-4.53274
-4.53507
-4.53747
-4.53987
-4.54224
-4.54455
-4.54678
-4.54893
-4.55101
-4.55303
-4.55497
-4.62194
-4.62536
-4.6297
-4.63503
-4.64005
-4.64432
-4.64755
-4.64984
-4.65157
-4.65309
-4.65461
-4.65625
-4.65804
-4.65996
-4.66199
-4.66406
-4.66613
-4.66818
-4.67018
-4.67213
-4.67402
-4.67586
-4.67762
-4.7566
-4.7593
-4.76277
-4.76712
-4.7711
-4.77439
-4.77671
-4.77819
-4.77926
-4.78021
-4.78125
-4.78246
-4.78385
-4.78539
-4.78704
-4.78876
-4.7905
-4.79224
-4.79397
-4.79567
-4.79733
-4.79896
-4.80053
-4.88974
-4.89179
-4.89449
-4.89802
-4.9011
-4.90363
-4.90531
-4.90624
-4.90685
-4.90745
-4.90816
-4.90904
-4.91009
-4.91127
-4.91255
-4.9139
-4.91528
-4.91669
-4.9181
-4.91952
-4.92094
-4.92234
-4.92369
-5.02123
-5.02278
-5.02479
-5.02765
-5.03003
-5.03205
-5.03337
-5.03403
-5.03438
-5.03479
-5.0353
-5.03593
-5.03667
-5.03751
-5.03843
-5.03941
-5.04042
-5.04146
-5.04254
-5.04366
-5.0448
-5.04596
-5.04709
-5.15144
-5.1525
-5.15408
-5.15619
-5.15812
-5.15974
-5.16094
-5.1616
-5.1619
-5.16224
-5.16264
-5.16306
-5.16353
-5.16404
-5.16459
-5.16518
-5.16582
-5.1665
-5.16723
-5.16804
-5.1689
-5.16981
-5.17071
-5.28066
-5.28136
-5.28254
-5.28414
-5.28571
-5.28712
-5.28825
-5.28903
-5.28946
-5.28983
-5.29015
-5.2904
-5.29059
-5.29076
-5.29095
-5.29116
-5.29141
-5.29173
-5.29212
-5.29261
-5.29319
-5.29384
-5.29451
-5.40922
-5.40971
-5.4106
-5.41184
-5.4132
-5.4145
-5.41563
-5.41655
-5.41717
-5.41759
-5.41782
-5.41787
-5.41779
-5.41763
-5.41744
-5.41727
-5.41715
-5.4171
-5.41716
-5.41733
-5.41763
-5.41803
-5.41849
-5.53749
-5.53786
-5.53857
-5.53961
-5.54087
-5.54214
-5.54334
-5.54441
-5.54519
-5.54562
-5.54572
-5.54553
-5.54513
-5.54462
-5.54405
-5.54351
-5.54301
-5.54261
-5.54232
-5.54218
-5.5422
-5.54236
-5.54261
-5.66563
-5.66594
-5.66661
-5.66763
-5.66893
-5.67025
-5.67163
-5.67296
-5.67385
-5.67423
-5.67412
-5.6736
-5.67282
-5.67187
-5.67088
-5.66992
-5.66902
-5.66824
-5.66759
-5.66712
-5.66685
-5.66678
-5.66683
603.348
625.3
642.109
647.769
448.787
453.03
457.902
462.836
349.244
354.93
361.072
367.313
279.512
285.041
290.399
295.955
215.941
220.611
225.428
230.206
149.72
154.537
159.611
164.293
79.8063
84.9781
90.3061
95.0882
22.1079
26.0766
30.2186
32.9066
0.570802
1.83511
3.55304
3.76772
-1.50172
-1.49901
-1.49755
-1.47269
-1.7193
-1.73907
-1.74835
-1.73619
-1.80564
-1.81368
-1.8199
-1.82516
-1.96596
-1.96641
-1.96642
-1.96569
-2.10757
-2.10996
-2.11347
-2.11808
-2.2667
-2.26762
-2.26985
-2.27467
-2.41594
-2.41611
-2.41828
-2.4228
-2.55862
-2.55933
-2.5614
-2.56477
-2.69547
-2.69627
-2.69819
-2.70111
-2.82782
-2.82894
-2.83082
-2.83347
-2.95744
-2.9586
-2.96037
-2.96277
-3.0848
-3.086
-3.08767
-3.08985
-3.21044
-3.21166
-3.21324
-3.21523
-3.33479
-3.33602
-3.33753
-3.33933
-3.45817
-3.4594
-3.46082
-3.46247
-3.58084
-3.58206
-3.58342
-3.58493
-3.70302
-3.70422
-3.70552
-3.70693
-3.82489
-3.82608
-3.82732
-3.82863
-3.94662
-3.94777
-3.94896
-3.95019
-4.06832
-4.06943
-4.07056
-4.07172
-4.19008
-4.19115
-4.19221
-4.1933
-4.31198
-4.31299
-4.31399
-4.31501
-4.43405
-4.435
-4.43593
-4.43688
-4.55635
-4.55722
-4.55808
-4.55896
-4.67888
-4.67967
-4.68046
-4.68125
-4.80165
-4.80236
-4.80307
-4.80378
-4.92467
-4.92529
-4.92591
-4.92653
-5.04791
-5.04844
-5.04897
-5.0495
-5.17138
-5.17181
-5.17224
-5.17268
-5.29503
-5.29537
-5.2957
-5.29605
-5.41885
-5.41909
-5.41934
-5.41958
-5.54282
-5.54297
-5.54311
-5.54326
-5.6669
-5.66695
-5.66701
-5.66706
639.197
666.209
685.426
697.657
707.061
718.144
727.023
716.135
748.889
763.355
780.454
788.712
806.216
815.6
824.51
832.869
838.786
840.78
847.21
471.641
513.325
539.419
557.293
570.956
581.511
591.618
584.837
611.309
637.639
651.38
659.911
671.52
677.698
698.704
718.252
734.305
736.846
749.567
376.998
401.336
422.286
438.53
451.623
459.85
466.279
467.311
485.627
516.43
539.661
552.375
557.712
565.601
582.678
604.939
624.419
633.275
652.188
304.644
319.878
336.251
351.049
360.73
364.662
366.96
374.396
392.092
416.602
441.291
458.254
468.782
477.306
488.694
509.358
526.551
538.264
552.494
238.303
252.429
267.797
281.302
288.587
290.437
290.715
297.917
318.095
338.964
360.276
376.211
386.994
395.213
409.055
427.913
444.786
455.582
460.885
172.051
184.921
198.521
211.088
218.871
222.269
225.038
230.661
246.977
269.015
292.09
307.045
312.967
317.625
330.049
351.009
370.732
381.192
387.583
102.628
115.336
128.611
140.216
148.989
155.786
162.3
171.094
183.461
201.234
223.937
238.98
243.85
247.849
256.815
275.782
296.615
311.584
320.656
35.9839
45.3039
58.3694
68.4238
78.1375
88.5732
99.2799
110.308
124.215
137.337
151.342
160.005
167.346
173.211
182.477
199.505
221.112
238.469
250.107
3.91986
6.33893
11.2611
12.8875
18.2389
28.5065
36.6827
46.5981
62.8398
75.0568
79.869
81.1824
85.3309
87.1941
94.5957
110.507
135.879
159.581
172.776
-1.28029
-0.823982
-1.16628
-1.24323
-0.665337
2.40245
3.64488
7.46176
18.7273
26.8181
26.4403
26.615
25.6245
20.0407
16.8652
29.0094
58.1091
83.0851
97.264
-1.76192
-1.7164
-1.69394
-1.68233
-1.70742
-1.73967
-1.53991
-0.768079
-0.585337
0.438897
1.24392
2.40671
1.77629
-0.148481
-0.113074
1.27364
12.9396
24.7339
38.148
-1.84892
-1.86608
-1.85322
-1.84635
-1.88684
-1.9534
-2.03554
-2.0993
-2.10402
-2.13754
-2.12884
-2.14317
-2.1955
-2.17355
-1.67647
-1.54066
-0.885566
-0.0255008
4.22217
-1.97183
-1.99325
-2.00985
-2.02406
-2.06119
-2.14123
-2.24792
-2.31903
-2.35785
-2.3582
-2.35791
-2.36307
-2.41377
-2.38602
-2.12653
-2.02477
-2.18046
-2.09359
-2.12555
-2.13106
-2.15637
-2.18439
-2.21608
-2.27442
-2.3413
-2.40107
-2.44619
-2.46934
-2.48145
-2.49239
-2.50731
-2.52871
-2.48041
-2.34429
-2.2123
-2.21052
-2.18812
-2.18858
-2.28746
-2.31456
-2.34479
-2.38199
-2.43299
-2.48512
-2.52813
-2.55566
-2.57574
-2.59319
-2.60209
-2.60761
-2.60393
-2.55196
-2.44896
-2.36173
-2.3406
-2.31841
-2.33268
-2.43274
-2.45402
-2.48133
-2.51574
-2.55723
-2.59846
-2.63477
-2.65929
-2.6766
-2.6878
-2.69255
-2.69216
-2.67941
-2.64012
-2.57285
-2.51372
-2.50431
-2.48578
-2.51819
-2.57243
-2.58983
-2.61276
-2.64105
-2.67338
-2.70646
-2.73436
-2.75558
-2.76966
-2.77768
-2.78021
-2.77665
-2.76414
-2.74208
-2.70828
-2.6718
-2.64779
-2.62314
-2.6325
-2.70755
-2.72184
-2.74056
-2.76309
-2.78802
-2.81299
-2.83498
-2.85218
-2.86399
-2.87057
-2.87198
-2.86795
-2.85797
-2.8438
-2.82816
-2.81415
-2.79927
-2.78035
-2.76508
-2.83907
-2.85087
-2.86608
-2.88395
-2.90329
-2.92247
-2.9396
-2.95344
-2.96326
-2.96879
-2.96997
-2.96678
-2.95958
-2.94995
-2.94057
-2.93573
-2.93128
-2.9295
-2.90757
-2.9677
-2.97753
-2.98991
-3.00415
-3.01936
-3.03432
-3.04786
-3.05902
-3.06718
-3.07201
-3.07341
-3.0715
-3.06686
-3.06094
-3.05566
-3.05393
-3.0511
-3.05893
-3.04718
-3.0942
-3.10245
-3.11257
-3.12403
-3.13607
-3.14792
-3.15873
-3.16779
-3.17461
-3.1789
-3.1806
-3.1799
-3.17735
-3.17401
-3.17121
-3.17111
-3.16972
-3.17534
-3.17406
-3.21908
-3.22606
-3.23439
-3.24365
-3.25332
-3.26279
-3.27147
-3.27884
-3.28451
-3.28828
-3.29015
-3.29029
-3.28917
-3.28749
-3.28612
-3.28642
-3.28577
-3.28934
-3.28927
-3.34275
-3.3487
-3.35562
-3.36319
-3.37101
-3.37863
-3.38561
-3.39157
-3.39624
-3.39947
-3.40128
-3.40185
-3.4015
-3.40072
-3.40003
-3.40006
-3.39926
-3.40046
-3.3985
-3.46554
-3.47066
-3.47647
-3.48272
-3.48908
-3.49524
-3.50087
-3.50567
-3.50946
-3.51213
-3.5137
-3.51434
-3.51427
-3.51381
-3.51324
-3.51273
-3.51126
-3.51027
-3.50804
-3.5877
-3.59217
-3.5971
-3.60229
-3.60752
-3.61253
-3.61707
-3.62092
-3.62394
-3.62606
-3.62731
-3.6278
-3.62771
-3.62722
-3.62646
-3.62538
-3.62325
-3.62067
-3.6186
-3.70945
-3.71338
-3.71761
-3.72198
-3.72631
-3.73041
-3.73408
-3.73716
-3.73953
-3.74116
-3.74207
-3.74234
-3.74209
-3.74145
-3.74046
-3.73899
-3.7365
-3.73328
-3.73152
-3.83095
-3.83445
-3.83811
-3.84182
-3.84544
-3.84882
-3.8518
-3.85426
-3.85612
-3.85733
-3.85793
-3.85798
-3.85758
-3.85682
-3.85575
-3.85422
-3.85187
-3.84884
-3.8475
-3.95233
-3.95547
-3.95868
-3.96186
-3.96492
-3.96772
-3.97016
-3.97214
-3.97358
-3.97447
-3.97483
-3.97471
-3.97422
-3.97344
-3.97244
-3.97117
-3.96937
-3.96703
-3.96608
-4.07371
-4.07654
-4.07937
-4.08213
-4.08473
-4.08709
-4.0891
-4.0907
-4.09183
-4.09247
-4.09266
-4.09245
-4.09194
-4.09121
-4.09038
-4.08949
-4.08834
-4.08674
-4.08612
-4.19515
-4.19771
-4.20023
-4.20264
-4.20488
-4.20687
-4.20855
-4.20986
-4.21075
-4.21123
-4.21132
-4.21108
-4.21059
-4.20998
-4.20933
-4.20875
-4.20815
-4.20721
-4.20673
-4.31672
-4.31905
-4.32129
-4.32341
-4.32535
-4.32706
-4.32847
-4.32955
-4.33028
-4.33065
-4.33069
-4.33045
-4.33004
-4.32954
-4.32906
-4.32869
-4.3284
-4.32797
-4.32764
-4.43846
-4.44057
-4.44257
-4.44444
-4.44613
-4.4476
-4.44881
-4.44972
-4.45032
-4.45062
-4.45064
-4.45045
-4.45011
-4.44973
-4.44939
-4.44917
-4.44904
-4.44888
-4.44872
-4.56041
-4.5623
-4.56409
-4.56574
-4.56722
-4.56848
-4.56952
-4.57029
-4.57081
-4.57106
-4.5711
-4.57095
-4.57069
-4.5704
-4.57016
-4.57004
-4.57001
-4.57002
-4.56997
-4.68257
-4.68426
-4.68585
-4.68729
-4.68858
-4.68967
-4.69056
-4.69123
-4.69167
-4.69191
-4.69195
-4.69185
-4.69167
-4.69146
-4.6913
-4.69123
-4.69125
-4.69135
-4.69137
-4.80495
-4.80645
-4.80784
-4.8091
-4.8102
-4.81115
-4.81191
-4.81248
-4.81287
-4.81308
-4.81315
-4.81309
-4.81296
-4.81282
-4.81271
-4.81268
-4.81273
-4.81287
-4.81294
-4.92755
-4.92885
-4.93005
-4.93113
-4.93208
-4.93287
-4.93352
-4.93401
-4.93435
-4.93455
-4.93462
-4.9346
-4.93452
-4.93442
-4.93435
-4.93435
-4.93441
-4.93458
-4.93467
-5.05037
-5.05148
-5.05249
-5.05339
-5.05418
-5.05484
-5.05537
-5.05579
-5.05608
-5.05625
-5.05633
-5.05634
-5.05629
-5.05623
-5.05619
-5.05621
-5.05628
-5.05645
-5.05656
-5.1734
-5.1743
-5.17513
-5.17586
-5.17649
-5.17702
-5.17745
-5.17778
-5.17802
-5.17818
-5.17826
-5.17828
-5.17826
-5.17823
-5.17822
-5.17825
-5.17832
-5.17849
-5.1786
-5.29661
-5.29731
-5.29795
-5.29851
-5.29899
-5.2994
-5.29972
-5.29998
-5.30017
-5.3003
-5.30037
-5.3004
-5.3004
-5.3004
-5.30041
-5.30045
-5.30053
-5.30068
-5.3008
-5.41999
-5.42049
-5.42094
-5.42133
-5.42167
-5.42195
-5.42218
-5.42236
-5.42249
-5.42259
-5.42264
-5.42268
-5.42269
-5.42271
-5.42274
-5.4228
-5.42288
-5.42302
-5.42313
-5.54351
-5.54381
-5.54408
-5.54431
-5.5445
-5.54467
-5.5448
-5.5449
-5.54498
-5.54503
-5.54507
-5.5451
-5.54512
-5.54515
-5.5452
-5.54528
-5.54537
-5.5455
-5.54558
-5.66715
-5.66725
-5.66734
-5.66741
-5.66747
-5.66751
-5.66755
-5.66758
-5.6676
-5.66761
-5.66762
-5.66764
-5.66766
-5.6677
-5.66777
-5.66788
-5.668
-5.66813
-5.66819
)
;

boundaryField
{
    leftWall
    {
        type            calculated;
        value           nonuniform List<scalar> 
50
(
4559.52
3760.93
2960.93
2160.9
1388.76
904.358
759.054
700.026
608.255
484.667
357.869
248.987
164.618
100.786
44.7654
10.5378
3.19144
-1.02153
-1.67424
-1.70825
-1.83692
-1.88209
-2.05363
-2.21205
-2.3972
-2.5755
-2.73253
-2.86507
-2.97646
-3.07783
-3.18052
-3.29047
-3.40883
-3.53431
-3.66499
-3.79916
-3.93552
-4.07307
-4.21104
-4.34883
-4.48593
-4.62194
-4.7566
-4.88974
-5.02123
-5.15144
-5.28066
-5.40922
-5.53749
-5.66563
)
;
    }
    rightWall
    {
        type            calculated;
        value           nonuniform List<scalar> 
50
(
3166.59
2451.41
1909.02
1535.02
1222.93
1042.13
969.431
920.688
847.21
749.567
652.188
552.494
460.885
387.583
320.656
250.107
172.776
97.264
38.148
4.22217
-2.12555
-2.18858
-2.33268
-2.51819
-2.6325
-2.76508
-2.90757
-3.04718
-3.17406
-3.28927
-3.3985
-3.50804
-3.6186
-3.73152
-3.8475
-3.96608
-4.08612
-4.20673
-4.32764
-4.44872
-4.56997
-4.69137
-4.81294
-4.93467
-5.05656
-5.1786
-5.3008
-5.42313
-5.54558
-5.66819
)
;
    }
    lowerWall
    {
        type            calculated;
        value           nonuniform List<scalar> 
62
(
4957.67
4965.01
4983.19
5011.28
5051.94
5100.59
5154.69
5210.87
5268.04
5327.71
5394.31
5472.8
5565.28
5669.81
5781.46
5893.98
6001.92
6100.23
6183.96
6249.62
6295.57
6321.93
6331.06
5932.93
5133.9
4332.78
3528.71
2720.42
1907.16
1153.93
723.415
697.561
747.1
778.654
783.889
2678.95
1936.5
1328.62
1038.18
960.257
907.896
857.81
786.603
3051.58
3022.6
2973.88
2900.57
2831.97
2789.45
2796.51
2857.74
2976.99
3138.82
3283.68
3368.29
3390.7
3377.26
3378.81
3403.21
3450.32
3511.69
3545.19
)
;
    }
    atmosphere
    {
        type            calculated;
        value           nonuniform List<scalar> 
46
(
-5.72937
-5.72977
-5.73059
-5.73181
-5.7333
-5.73464
-5.7363
-5.73808
-5.73906
-5.73932
-5.73897
-5.73817
-5.73706
-5.7358
-5.73452
-5.73329
-5.73215
-5.73113
-5.73026
-5.72959
-5.72918
-5.72904
-5.72904
-5.72904
-5.72904
-5.72904
-5.72904
-5.72904
-5.72904
-5.72904
-5.72904
-5.72904
-5.72904
-5.72904
-5.72904
-5.72904
-5.72904
-5.72904
-5.72904
-5.72904
-5.72904
-5.72904
-5.72904
-5.72904
-5.72905
-5.72905
)
;
    }
    defaultFaces
    {
        type            empty;
    }
}


// ************************************************************************* //
