/*--------------------------------*- C++ -*----------------------------------*\
| =========                 |                                                 |
| \\      /  F ield         | OpenFOAM: The Open Source CFD Toolbox           |
|  \\    /   O peration     | Version:  2312                                  |
|   \\  /    A nd           | Website:  www.openfoam.com                      |
|    \\/     M anipulation  |                                                 |
\*---------------------------------------------------------------------------*/
FoamFile
{
    version     2.0;
    format      ascii;
    arch        "LSB;label=32;scalar=64";
    class       surfaceScalarField;
    location    "2.75";
    object      phi;
}
// * * * * * * * * * * * * * * * * * * * * * * * * * * * * * * * * * * * * * //

dimensions      [0 3 -1 0 0 0 0];

oriented        oriented;

internalField   nonuniform List<scalar> 
4432
(
8.41659e-07
-8.41652e-07
6.91829e-07
1.49835e-07
4.2723e-07
2.64603e-07
9.00603e-08
3.37173e-07
-1.90388e-07
2.8045e-07
-4.67693e-07
2.77306e-07
-8.13636e-07
3.45944e-07
-1.32497e-06
5.11334e-07
-2.05536e-06
7.30391e-07
-3.03341e-06
9.78052e-07
-4.22185e-06
1.18844e-06
-5.49985e-06
1.278e-06
-6.73233e-06
1.23248e-06
-7.78117e-06
1.04884e-06
-8.51692e-06
7.35756e-07
-8.86649e-06
3.49559e-07
-8.80839e-06
-5.8102e-08
-8.32679e-06
-4.816e-07
-7.41587e-06
-9.10932e-07
-6.11918e-06
-1.2967e-06
-4.44663e-06
-1.67255e-06
-2.46659e-06
-1.98004e-06
-2.46659e-06
-1.83897e-07
-6.57744e-07
-4.27235e-07
3.93182e-07
-7.15234e-07
5.52609e-07
-9.29034e-07
5.50977e-07
-1.05478e-06
4.06196e-07
-1.15702e-06
3.79555e-07
-1.35803e-06
5.46956e-07
-1.75914e-06
9.12453e-07
-2.41679e-06
1.38805e-06
-3.34858e-06
1.90984e-06
-4.51985e-06
2.35972e-06
-5.79652e-06
2.55467e-06
-7.02642e-06
2.46239e-06
-8.08007e-06
2.10248e-06
-8.81648e-06
1.47216e-06
-9.16309e-06
6.96164e-07
-9.09971e-06
-1.21496e-07
-8.60435e-06
-9.76978e-07
-7.67571e-06
-1.83959e-06
-6.35433e-06
-2.61809e-06
-4.64025e-06
-3.38665e-06
-2.60815e-06
-4.01215e-06
-5.07477e-06
-7.12186e-07
5.44466e-08
-1.1385e-06
8.19496e-07
-1.48264e-06
8.96755e-07
-1.68612e-06
7.54456e-07
-1.76494e-06
4.85024e-07
-1.78312e-06
3.97733e-07
-1.8741e-06
6.37937e-07
-2.17747e-06
1.21583e-06
-2.75755e-06
1.96813e-06
-3.64583e-06
2.79812e-06
-4.81299e-06
3.52687e-06
-6.10633e-06
3.848e-06
-7.34794e-06
3.70399e-06
-8.41581e-06
3.17034e-06
-9.15099e-06
2.20734e-06
-9.48797e-06
1.03314e-06
-9.41827e-06
-1.91196e-07
-8.89459e-06
-1.50066e-06
-7.90924e-06
-2.82495e-06
-6.52406e-06
-4.00327e-06
-4.7256e-06
-5.18511e-06
-2.57554e-06
-6.16221e-06
-7.6503e-06
-1.03278e-06
1.08724e-06
-1.63846e-06
1.42518e-06
-2.07712e-06
1.33542e-06
-2.32521e-06
1.00255e-06
-2.39459e-06
5.5441e-07
-2.31302e-06
3.16173e-07
-2.27702e-06
6.01937e-07
-2.47484e-06
1.41365e-06
-3.00156e-06
2.49486e-06
-3.89106e-06
3.68762e-06
-5.10858e-06
4.74439e-06
-6.47022e-06
5.20963e-06
-7.76629e-06
5.00007e-06
-8.88152e-06
4.28556e-06
-9.60504e-06
2.93086e-06
-9.8887e-06
1.31679e-06
-9.76276e-06
-3.17147e-07
-9.19431e-06
-2.06912e-06
-8.12236e-06
-3.89691e-06
-6.64822e-06
-5.47742e-06
-4.75004e-06
-7.0833e-06
-2.46649e-06
-8.44578e-06
-1.01168e-05
-9.27578e-07
2.01482e-06
-1.50084e-06
1.99845e-06
-1.98161e-06
1.81618e-06
-2.27894e-06
1.29989e-06
-2.41617e-06
6.91632e-07
-2.43952e-06
3.39519e-07
-2.43891e-06
6.01325e-07
-2.58797e-06
1.5627e-06
-3.11795e-06
3.02484e-06
-4.07775e-06
4.64742e-06
-5.43794e-06
6.10458e-06
-7.01622e-06
6.78791e-06
-8.46251e-06
6.44635e-06
-9.67891e-06
5.50195e-06
-1.03843e-05
3.63621e-06
-1.05856e-05
1.51812e-06
-1.04198e-05
-4.82938e-07
-9.71705e-06
-2.77187e-06
-8.47195e-06
-5.14201e-06
-6.83029e-06
-7.11909e-06
-4.76872e-06
-9.14487e-06
-2.31985e-06
-1.08947e-05
-1.24367e-05
-1.88437e-07
2.20329e-06
-8.52045e-07
2.66208e-06
-1.61623e-06
2.58038e-06
-2.08302e-06
1.7667e-06
-2.30054e-06
9.09165e-07
-2.42679e-06
4.65781e-07
-2.46763e-06
6.42166e-07
-2.53216e-06
1.62724e-06
-2.90751e-06
3.40019e-06
-3.68803e-06
5.42793e-06
-4.9173e-06
7.33385e-06
-6.61905e-06
8.48966e-06
-8.50686e-06
8.33415e-06
-9.84242e-06
6.83752e-06
-1.0867e-05
4.66082e-06
-1.15056e-05
2.15665e-06
-1.13836e-05
-6.04929e-07
-1.04431e-05
-3.71233e-06
-8.85491e-06
-6.73022e-06
-6.88482e-06
-9.08918e-06
-4.60241e-06
-1.14273e-05
-1.98071e-06
-1.35164e-05
-1.44174e-05
1.45649e-06
7.46846e-07
2.55679e-06
1.56183e-06
3.25098e-06
1.88624e-06
3.61526e-06
1.40246e-06
3.47027e-06
1.05419e-06
2.64431e-06
1.29176e-06
1.15754e-06
2.12895e-06
-3.73072e-07
3.15786e-06
-1.50411e-06
4.53122e-06
-2.32126e-06
6.24507e-06
-3.44609e-06
8.45866e-06
-6.66771e-06
1.17113e-05
-1.08927e-05
1.25591e-05
-1.26197e-05
8.56452e-06
-1.32587e-05
5.29982e-06
-1.26134e-05
1.51137e-06
-1.12168e-05
-2.00156e-06
-9.85597e-06
-5.07317e-06
-8.23968e-06
-8.34652e-06
-6.23809e-06
-1.10908e-05
-4.00597e-06
-1.36594e-05
-1.54021e-06
-1.59821e-05
-1.59576e-05
-4.29301e-07
1.17619e-06
-5.37007e-07
1.66957e-06
-9.63366e-07
2.31262e-06
-1.21013e-06
1.64925e-06
-1.27212e-06
1.11619e-06
-1.13154e-06
1.15119e-06
-1.09087e-06
2.08828e-06
-1.22444e-06
3.29142e-06
-1.15287e-06
4.45965e-06
-7.78537e-08
5.17004e-06
1.78069e-06
6.6001e-06
2.22958e-06
1.12624e-05
6.82703e-07
1.4106e-05
-1.84131e-06
1.10885e-05
-6.67633e-06
1.01348e-05
-1.06836e-05
5.51861e-06
-1.34255e-05
7.40371e-07
-1.1627e-05
-6.87168e-06
-8.24091e-06
-1.17326e-05
-5.50935e-06
-1.38223e-05
-3.52752e-06
-1.56412e-05
-1.66341e-06
-1.78462e-05
-1.7621e-05
1.17753e-06
-1.17753e-06
3.01694e-06
-1.83941e-06
3.65749e-06
-6.40558e-07
3.23644e-06
4.21059e-07
1.74215e-06
1.49429e-06
-3.63515e-07
2.10566e-06
-2.69764e-06
2.33412e-06
-5.79577e-06
3.09813e-06
-9.41985e-06
3.62409e-06
-1.2295e-05
2.87513e-06
-1.39766e-05
1.68164e-06
-1.40411e-05
6.44642e-08
-1.24091e-05
-1.63199e-06
-9.81668e-06
-2.59242e-06
-6.37541e-06
-3.44126e-06
-3.01288e-06
-3.36254e-06
-1.36222e-06
-1.65066e-06
-1.21686e-06
-1.45351e-07
-1.21686e-06
3.87177e-06
-5.0493e-06
6.34875e-06
-4.31639e-06
7.54032e-06
-1.83213e-06
7.36727e-06
5.94107e-07
5.87157e-06
2.98999e-06
3.45386e-06
4.52337e-06
1.07094e-06
4.71704e-06
-2.02903e-06
6.1981e-06
-5.17241e-06
6.76746e-06
-7.12481e-06
4.82753e-06
-7.68411e-06
2.24094e-06
-7.07375e-06
-5.45894e-07
-5.72765e-06
-2.97809e-06
-4.01401e-06
-4.30606e-06
-2.01514e-06
-5.44014e-06
-8.07272e-07
-4.5704e-06
-2.34633e-07
-2.2233e-06
-3.34869e-07
-4.51178e-08
-1.55173e-06
4.3625e-06
-9.4118e-06
6.46302e-06
-6.41691e-06
8.90614e-06
-4.27526e-06
9.62935e-06
-1.29101e-07
7.79011e-06
4.82923e-06
4.13111e-06
8.18237e-06
-2.02686e-06
1.0875e-05
-4.28106e-06
8.4523e-06
-4.59548e-06
7.08187e-06
-6.66896e-06
6.90101e-06
-6.40039e-06
1.97237e-06
-4.38996e-06
-2.55632e-06
-2.08351e-06
-5.28454e-06
8.68473e-07
-7.25804e-06
1.94097e-06
-6.51263e-06
-5.08411e-07
-2.12103e-06
-3.98069e-06
1.24898e-06
-5.08381e-06
1.058e-06
-6.63554e-06
3.69952e-06
-1.31113e-05
4.06424e-06
-6.78162e-06
4.73731e-06
-4.94833e-06
1.26431e-06
3.34389e-06
-3.40681e-07
6.43421e-06
-3.8165e-06
1.16582e-05
-1.66527e-05
2.37111e-05
-7.23519e-06
-9.65185e-07
2.12228e-06
-2.27561e-06
-2.31641e-06
1.13397e-05
-5.14579e-06
4.80175e-06
-4.17091e-06
-3.53121e-06
-1.04993e-06
-8.40553e-06
2.73712e-06
-1.10451e-05
2.88174e-06
-6.65726e-06
-2.61549e-06
3.37619e-06
-7.54412e-06
6.17761e-06
-6.93175e-06
4.45618e-07
-1.35673e-05
-5.35779e-06
-7.75354e-06
-5.79684e-06
-6.34258e-06
-3.13181e-06
-7.61336e-06
-1.59953e-06
1.8116e-06
8.86612e-08
4.74601e-06
-2.98664e-06
1.47335e-05
-1.1511e-05
3.22355e-05
-1.50977e-06
-1.09664e-05
9.05296e-06
-1.28383e-05
1.2642e-05
7.75062e-06
7.16475e-06
1.0279e-05
2.65809e-06
9.75446e-07
-1.19707e-06
-4.55037e-06
6.68692e-08
-1.2309e-05
4.11957e-06
-1.071e-05
5.01138e-06
2.48438e-06
5.04815e-07
1.06842e-05
-6.85543e-07
1.63598e-06
-1.42528e-05
-4.39738e-06
-3.35617e-06
-4.54838e-07
-1.02851e-05
9.42234e-07
-9.01044e-06
1.95263e-06
8.01201e-07
1.92079e-06
4.77784e-06
-1.16098e-06
1.78152e-05
-5.68909e-06
3.67636e-05
-2.74686e-07
-1.63808e-05
5.51687e-06
-1.86299e-05
1.02495e-05
3.01801e-06
8.82246e-06
1.17061e-05
7.6741e-06
2.12379e-06
3.33068e-06
-2.06963e-07
5.64187e-06
-1.46202e-05
1.23504e-05
-1.74184e-05
1.70969e-05
-2.26217e-06
1.66099e-05
1.11712e-05
1.01415e-05
8.1044e-06
-4.11134e-06
5.99417e-06
-9.35034e-06
6.18923e-06
-1.04802e-05
4.46785e-06
-7.28906e-06
3.76198e-06
1.50707e-06
2.25617e-06
6.28365e-06
-8.5547e-08
2.01569e-05
-2.52417e-06
3.92022e-05
-1.66535e-06
-1.72396e-05
-1.48627e-06
-1.8809e-05
7.77426e-07
7.54306e-07
3.74942e-06
8.73404e-06
6.5334e-06
-6.60194e-07
4.68126e-06
1.64517e-06
7.39285e-06
-1.73318e-05
1.22486e-05
-2.22742e-05
1.82859e-05
-8.29947e-06
2.1151e-05
8.30601e-06
1.67248e-05
1.25306e-05
1.26135e-05
1.56383e-05
-2.49887e-05
1.22844e-05
-7.1263e-06
8.78082e-06
-3.78544e-06
6.21314e-06
4.07474e-06
2.62706e-06
9.86972e-06
5.74457e-07
2.22095e-05
-4.70001e-07
4.02467e-05
-3.3849e-06
-1.43247e-05
-5.98394e-06
-1.62099e-05
-6.97161e-06
1.74197e-06
-2.33346e-06
4.09589e-06
3.00946e-06
-6.00312e-06
3.95559e-06
6.9903e-07
4.51797e-06
-1.78942e-05
5.8465e-06
-2.36027e-05
1.09287e-05
-1.33817e-05
1.53375e-05
3.89718e-06
1.41728e-05
1.36953e-05
2.67863e-05
-6.65328e-06
7.8295e-06
-1.00483e-05
5.06464e-06
-1.11886e-05
3.45288e-06
-1.13741e-05
1.83482e-06
-1.00139e-05
-2.44032e-07
-7.356e-06
-1.50672e-06
-4.89144e-06
-3.76285e-07
-2.81818e-06
1.21816e-06
-9.47242e-07
2.58871e-06
5.37889e-07
3.6849e-06
2.72129e-06
4.41668e-06
6.26934e-06
7.71429e-06
7.83704e-06
1.25383e-05
4.69306e-06
1.42325e-05
2.96074e-06
1.18671e-05
2.25547e-06
6.22387e-06
3.99137e-07
2.5967e-06
2.85529e-07
-6.75807e-06
-7.53112e-07
-1.0694e-05
-3.57745e-06
-1.0998e-05
-6.48482e-06
-1.27338e-05
-8.43705e-06
-1.5894e-05
-1.62648e-05
-9.79331e-06
-6.91602e-06
1.47455e-05
-1.1038e-05
9.1866e-06
-1.14639e-05
3.87879e-06
-7.77161e-06
-1.85742e-06
-2.14978e-06
-5.86586e-06
2.61457e-06
-6.27108e-06
5.40108e-06
-3.16281e-06
6.84456e-06
-2.25331e-07
6.70783e-06
2.72543e-06
4.20094e-06
6.19178e-06
2.07048e-07
8.41057e-06
-4.08328e-07
8.32966e-06
2.94903e-06
9.1809e-06
4.41321e-06
1.27683e-05
7.20993e-06
9.07039e-06
1.21486e-05
1.28518e-06
1.84897e-05
-3.7444e-06
2.00089e-05
-8.27726e-06
1.94212e-05
-1.01063e-05
1.942e-05
-1.09968e-05
1.97197e-05
-1.30336e-05
1.93965e-05
-1.55708e-05
-1.62656e-05
1.93973e-05
7.6493e-07
1.39806e-05
4.94081e-07
9.45745e-06
4.19283e-07
3.95359e-06
2.97413e-06
-4.41228e-06
8.0628e-06
-1.09545e-05
1.27908e-05
-1.09991e-05
1.39698e-05
-4.34181e-06
1.23389e-05
1.40555e-06
9.97277e-06
5.09155e-06
8.11499e-06
8.04954e-06
7.26913e-06
9.25642e-06
7.35656e-06
8.24222e-06
1.00669e-05
6.47058e-06
1.66493e-05
6.18585e-06
2.38682e-05
1.85151e-06
2.87612e-05
-3.60787e-06
3.16928e-05
-6.67593e-06
3.18853e-05
-8.46982e-06
3.10453e-05
-9.26625e-06
3.07199e-05
-1.06714e-05
2.99797e-05
-1.22934e-05
2.82496e-05
-1.38407e-05
-1.37835e-05
2.57675e-05
1.6263e-05
-2.28241e-06
2.44872e-05
1.23329e-06
2.95584e-05
-1.11762e-06
3.02821e-05
-5.13606e-06
2.70599e-05
-7.73229e-06
2.32564e-05
-7.19566e-06
1.90707e-05
-1.56124e-07
1.47508e-05
5.72537e-06
1.43351e-05
5.50724e-06
1.76919e-05
4.69279e-06
2.30575e-05
3.89076e-06
2.83945e-05
2.90519e-06
3.3129e-05
1.73609e-06
3.92123e-05
1.02626e-07
4.39949e-05
-2.93114e-06
4.65599e-05
-6.17283e-06
4.82879e-05
-8.40401e-06
4.96322e-05
-9.81405e-06
5.10982e-05
-1.07323e-05
5.17579e-05
-1.13311e-05
5.08938e-05
-1.14293e-05
4.8686e-05
-1.16329e-05
-1.16082e-05
4.65107e-05
1.81195e-05
-2.0402e-05
3.39135e-05
-1.45607e-05
4.6366e-05
-1.35701e-05
5.19195e-05
-1.06897e-05
4.85389e-05
-4.35164e-06
4.13229e-05
2.02722e-08
3.4521e-05
6.64575e-06
3.31934e-05
7.05298e-06
3.64152e-05
2.28543e-06
4.07023e-05
4.0565e-07
4.49287e-05
-3.35598e-07
4.76045e-05
2.29366e-07
4.9153e-05
1.87612e-07
5.12844e-05
-2.02883e-06
5.39072e-05
-5.55395e-06
5.61345e-05
-8.40008e-06
5.77367e-05
-1.00063e-05
5.90987e-05
-1.11761e-05
6.07086e-05
-1.23423e-05
6.25121e-05
-1.31346e-05
6.439e-05
-1.33073e-05
6.58379e-05
-1.30808e-05
-1.25727e-05
6.68024e-05
1.91026e-07
-2.0593e-05
1.08535e-05
-2.52232e-05
2.31624e-05
-2.5879e-05
3.18597e-05
-1.9387e-05
3.45898e-05
-7.08178e-06
3.45951e-05
1.50024e-08
3.93527e-05
1.88811e-06
4.95624e-05
-3.15679e-06
5.83716e-05
-6.52378e-06
6.60976e-05
-7.32032e-06
7.21995e-05
-6.43743e-06
7.42832e-05
-1.85437e-06
7.05138e-05
3.95704e-06
6.69937e-05
1.49129e-06
6.56041e-05
-4.16441e-06
6.52475e-05
-8.04351e-06
6.48433e-05
-9.60204e-06
6.4873e-05
-1.12058e-05
6.56066e-05
-1.30758e-05
6.68128e-05
-1.43408e-05
6.8681e-05
-1.51755e-05
7.01892e-05
-1.45891e-05
-1.35555e-05
7.11721e-05
-1.17715e-05
-8.82153e-06
-1.43033e-05
-2.26914e-05
-9.13269e-06
-3.10496e-05
3.53578e-06
-3.20555e-05
1.72193e-05
-2.07653e-05
3.16536e-05
-1.44194e-05
4.85924e-05
-1.50507e-05
6.28757e-05
-1.74401e-05
7.27149e-05
-1.6363e-05
8.21058e-05
-1.67112e-05
9.23264e-05
-1.6658e-05
0.000100669
-1.01971e-05
0.000102418
2.20847e-06
9.50118e-05
8.89713e-06
8.68125e-05
4.03488e-06
8.0618e-05
-1.84898e-06
7.54169e-05
-4.4009e-06
7.25748e-05
-8.36375e-06
7.19279e-05
-1.24289e-05
7.11177e-05
-1.35306e-05
7.08018e-05
-1.48595e-05
7.03425e-05
-1.41298e-05
-1.35563e-05
7.03432e-05
-9.04277e-06
2.2122e-07
-2.17833e-05
-9.95085e-06
-2.35927e-05
-2.92402e-05
-8.07964e-06
-4.75685e-05
1.34122e-05
-4.22571e-05
3.37886e-05
-3.47959e-05
5.11863e-05
-3.24484e-05
6.66504e-05
-3.29041e-05
7.71581e-05
-2.68706e-05
8.53494e-05
-2.49025e-05
9.50004e-05
-2.63088e-05
0.000109323
-2.45199e-05
0.000121956
-1.04239e-05
0.000127042
3.81113e-06
0.000121989
9.08763e-06
0.000109544
1.05956e-05
9.51293e-05
1.00141e-05
8.46265e-05
2.13905e-06
8.04916e-05
-8.29392e-06
7.60168e-05
-9.05581e-06
7.19854e-05
-1.08281e-05
6.92463e-05
-1.13905e-05
-1.29866e-05
6.86765e-05
2.00041e-05
-1.97829e-05
6.15703e-06
3.89612e-06
-1.32574e-05
-9.82592e-06
-1.67097e-05
-4.41164e-05
-1.25924e-05
-4.63745e-05
3.00228e-06
-5.03906e-05
2.58419e-05
-5.52881e-05
5.17664e-05
-5.88285e-05
7.86576e-05
-5.37619e-05
9.4233e-05
-4.04778e-05
9.66467e-05
-2.87228e-05
0.000105465
-3.33385e-05
0.000120985
-2.5943e-05
0.00014221
-1.74144e-05
0.000157326
-6.02829e-06
0.000160787
7.13453e-06
0.000156049
1.4752e-05
0.000145618
1.25705e-05
0.000131817
5.50759e-06
0.000116709
6.05188e-06
8.33093e-05
2.25715e-05
5.86614e-05
1.32575e-05
-1.06069e-05
5.6282e-05
-1.29515e-05
-6.83141e-06
-2.69258e-05
1.78702e-05
-3.99526e-05
3.20048e-06
-5.09163e-05
-3.3153e-05
-4.08733e-05
-5.64177e-05
-1.75003e-05
-7.37636e-05
2.41289e-05
-9.69172e-05
6.83695e-05
-0.000103069
0.000109886
-9.52781e-05
0.000146866
-7.74582e-05
0.000170451
-5.23085e-05
0.00016997
-3.28576e-05
0.00016442
-2.03926e-05
0.000170676
-2.36706e-05
0.000175982
-1.13337e-05
0.000175987
7.12951e-06
0.000174748
1.59904e-05
0.00016405
2.3269e-05
0.000151472
1.80849e-05
0.000151878
5.64604e-06
0.000157568
1.68823e-05
0.000146938
2.38875e-05
1.01646e-05
0.000126167
-1.90974e-05
1.22659e-05
-3.39297e-05
3.27022e-05
-2.26632e-05
-8.06626e-06
-5.41875e-06
-5.03978e-05
1.63577e-05
-7.81944e-05
4.05504e-05
-9.79564e-05
6.44046e-05
-0.000120771
8.75629e-05
-0.000126228
0.000111252
-0.000118968
0.000135796
-0.000102002
0.00015957
-7.60819e-05
0.000179159
-5.24471e-05
0.000194829
-3.60629e-05
0.000194294
-2.31354e-05
0.000188609
-5.64958e-06
0.000181647
1.40918e-05
0.000175412
2.2225e-05
0.00017369
2.49915e-05
0.000167497
2.42779e-05
0.000158782
1.43614e-05
0.000162699
1.29652e-05
0.00017588
1.07079e-05
3.10754e-06
0.000182937
1.24406e-06
1.10217e-05
1.17564e-05
2.21896e-05
3.14012e-05
-2.77114e-05
5.24308e-05
-7.14277e-05
7.05572e-05
-9.6321e-05
8.57871e-05
-0.000113186
9.46225e-05
-0.000129607
0.000103609
-0.000135215
0.00011251
-0.000127868
0.000120257
-0.00010975
0.000128808
-8.46329e-05
0.000137337
-6.09756e-05
0.000143649
-4.23758e-05
0.000145015
-2.45012e-05
0.000142929
-3.5641e-06
0.000140373
1.66479e-05
0.000136552
2.60466e-05
0.000134675
2.68685e-05
0.000136927
2.20257e-05
0.000136733
1.45549e-05
0.000139808
9.89055e-06
0.000145105
5.41139e-06
-1.14053e-06
0.000149353
1.29554e-05
-1.93377e-06
4.82156e-05
-1.30709e-05
7.77743e-05
-5.72704e-05
9.41948e-05
-8.78486e-05
0.000105744
-0.00010787
0.000113575
-0.000121018
0.000113685
-0.000129718
0.000110706
-0.000132235
0.000106247
-0.000123409
0.000100173
-0.000103676
9.51929e-05
-7.96534e-05
9.11482e-05
-5.69311e-05
8.73937e-05
-3.86213e-05
8.06854e-05
-1.7793e-05
7.38175e-05
3.30372e-06
7.27389e-05
1.77265e-05
7.49457e-05
2.38397e-05
7.83176e-05
2.34966e-05
8.28337e-05
1.75096e-05
8.60061e-05
1.13824e-05
8.80986e-05
7.79801e-06
8.86008e-05
4.90924e-06
5.54462e-07
8.69057e-05
3.2178e-05
-3.4112e-05
7.54283e-05
-5.63215e-05
0.000100313
-8.21558e-05
0.000113669
-0.000101205
0.000120157
-0.000114358
0.000121241
-0.000122102
0.000115925
-0.000124402
0.000104494
-0.000120805
8.9575e-05
-0.000108491
7.30736e-05
-8.71748e-05
5.62127e-05
-6.27928e-05
3.75014e-05
-3.822e-05
2.13169e-05
-2.2437e-05
9.67908e-06
-6.15525e-06
6.32132e-06
6.66141e-06
8.88938e-06
1.51584e-05
1.52715e-05
1.74576e-05
2.09458e-05
1.78221e-05
2.33079e-05
1.51474e-05
2.22955e-05
1.23947e-05
2.01229e-05
9.97055e-06
1.76603e-05
7.37162e-06
5.2144e-06
1.3e-05
4.71619e-05
-8.12743e-05
8.12795e-05
-9.04395e-05
0.000100748
-0.000101624
0.000110972
-0.000111429
0.000114409
-0.000117796
0.000111467
-0.000119159
0.000101793
-0.000114728
8.56237e-05
-0.000104636
6.42465e-05
-8.71138e-05
3.79883e-05
-6.09168e-05
5.76836e-06
-3.05731e-05
-1.86692e-05
-1.37826e-05
-3.30415e-05
-8.06493e-06
-3.88996e-05
-2.97259e-07
-3.88084e-05
6.57021e-06
-3.39837e-05
1.03337e-05
-2.69628e-05
1.04366e-05
-2.27989e-05
1.36581e-05
-2.31507e-05
1.54992e-05
-2.44654e-05
1.37093e-05
-2.37419e-05
9.24692e-06
-2.24831e-05
6.11255e-06
5.85042e-06
-2.31193e-05
3.96004e-05
-0.000120875
6.68663e-05
-0.000117706
8.41309e-05
-0.000118889
9.30624e-05
-0.000120361
9.45229e-05
-0.000119257
8.86843e-05
-0.000113321
7.58835e-05
-0.000101928
5.60161e-05
-8.47688e-05
2.81245e-05
-5.92224e-05
-1.02601e-05
-2.25325e-05
-3.70817e-05
-3.75167e-06
-4.8136e-05
-2.72851e-06
-5.56857e-05
-5.15395e-07
-5.93875e-05
3.40448e-06
-5.85127e-05
5.69526e-06
-5.43439e-05
6.16485e-06
-5.10342e-05
7.12682e-06
-4.85575e-05
1.11813e-05
-4.5913e-05
1.28546e-05
-4.2119e-05
9.91527e-06
-3.83502e-05
5.47791e-06
-3.62666e-05
4.02895e-06
4.56443e-06
-3.4981e-05
2.77046e-05
-0.00014858
4.84422e-05
-0.000138444
6.16638e-05
-0.000132111
6.7207e-05
-0.000125904
6.54061e-05
-0.000117456
5.64089e-05
-0.000104324
4.05945e-05
-8.61138e-05
1.48116e-05
-5.89862e-05
-2.1098e-05
-2.3313e-05
-4.65168e-05
2.88613e-06
-5.32645e-05
2.99587e-06
-5.86114e-05
2.61821e-06
-6.2267e-05
3.14007e-06
-6.33836e-05
4.52094e-06
-6.24442e-05
4.75575e-06
-6.04824e-05
4.20292e-06
-5.83344e-05
4.97874e-06
-5.43874e-05
7.23426e-06
-4.93047e-05
7.77175e-06
-4.4981e-05
5.59151e-06
-4.22243e-05
2.72116e-06
-4.04191e-05
2.22355e-06
2.39708e-06
-3.8252e-05
1.64156e-05
-0.000164996
2.89831e-05
-0.000151012
3.56505e-05
-0.000138779
3.5956e-05
-0.00012621
3.00317e-05
-0.000111532
1.72753e-05
-9.15675e-05
-4.1625e-06
-6.46762e-05
-3.23304e-05
-3.08185e-05
-5.35103e-05
-2.13329e-06
-5.63129e-05
5.68853e-06
-5.80215e-05
4.70432e-06
-5.93655e-05
3.96208e-06
-5.98867e-05
3.6611e-06
-5.91105e-05
3.74462e-06
-5.76981e-05
3.3433e-06
-5.60893e-05
2.59402e-06
-5.37523e-05
2.64164e-06
-4.99693e-05
3.45115e-06
-4.57393e-05
3.54165e-06
-4.25519e-05
2.40411e-06
-4.0819e-05
9.88176e-07
-3.90659e-05
4.70458e-07
3.25485e-07
-3.69947e-05
6.15268e-06
-0.000171149
9.91353e-06
-0.000154773
9.2992e-06
-0.000138165
3.66598e-06
-0.000120577
-8.09609e-06
-9.97704e-05
-2.59263e-05
-7.37375e-05
-4.69019e-05
-4.37008e-05
-6.16418e-05
-1.60788e-05
-6.35309e-05
-2.44379e-07
-6.02516e-05
2.40911e-06
-5.81072e-05
2.55974e-06
-5.63212e-05
2.17596e-06
-5.45118e-05
1.85154e-06
-5.24026e-05
1.63538e-06
-5.02478e-05
1.1884e-06
-4.82494e-05
5.95461e-07
-4.60322e-05
4.24418e-07
-4.32501e-05
6.68894e-07
-4.03925e-05
6.84018e-07
-3.81908e-05
2.02425e-07
-3.67489e-05
-4.53785e-07
-3.55004e-05
-7.78269e-07
-8.88806e-07
-3.42863e-05
-2.88581e-06
-0.000168263
-7.32369e-06
-0.000150335
-1.50246e-05
-0.000130464
-2.64302e-05
-0.000109172
-4.11125e-05
-8.50884e-05
-5.60144e-05
-5.88359e-05
-6.59685e-05
-3.37469e-05
-6.73902e-05
-1.46572e-05
-6.30477e-05
-4.58701e-06
-5.89556e-05
-1.68318e-06
-5.52201e-05
-1.1759e-06
-5.18692e-05
-1.17508e-06
-4.88734e-05
-1.14438e-06
-4.6135e-05
-1.1031e-06
-4.37067e-05
-1.23998e-06
-4.16447e-05
-1.46666e-06
-3.97314e-05
-1.48894e-06
-3.77459e-05
-1.31667e-06
-3.58655e-05
-1.19646e-06
-3.43701e-05
-1.29299e-06
-3.33496e-05
-1.47433e-06
-3.26023e-05
-1.52546e-06
-1.41312e-06
-3.20783e-05
-9.97822e-06
-0.000158285
-2.10112e-05
-0.000139302
-3.34816e-05
-0.000117994
-4.68698e-05
-9.57838e-05
-5.91806e-05
-7.27777e-05
-6.74996e-05
-5.0517e-05
-6.98761e-05
-3.13706e-05
-6.69456e-05
-1.75878e-05
-6.16217e-05
-9.91104e-06
-5.64352e-05
-6.86979e-06
-5.18543e-05
-5.75688e-06
-4.79639e-05
-5.06567e-06
-4.46682e-05
-4.44011e-06
-4.18557e-05
-3.91571e-06
-3.94947e-05
-3.60104e-06
-3.75599e-05
-3.40158e-06
-3.58971e-05
-3.15183e-06
-3.4373e-05
-2.8408e-06
-3.3028e-05
-2.54159e-06
-3.19877e-05
-2.33329e-06
-3.12887e-05
-2.17325e-06
-3.08744e-05
-1.93993e-06
-1.57202e-06
-3.07156e-05
-1.48288e-05
-0.000143457
-2.94519e-05
-0.000124679
-4.34292e-05
-0.000104017
-5.56466e-05
-8.35667e-05
-6.44983e-05
-6.39261e-05
-6.87414e-05
-4.62741e-05
-6.82885e-05
-3.18237e-05
-6.44151e-05
-2.14614e-05
-5.91381e-05
-1.51882e-05
-5.40176e-05
-1.19904e-05
-4.95411e-05
-1.02334e-05
-4.57663e-05
-8.84058e-06
-4.25595e-05
-7.647e-06
-3.98321e-05
-6.64317e-06
-3.75576e-05
-5.87569e-06
-3.56896e-05
-5.26959e-06
-3.41402e-05
-4.7013e-06
-3.28216e-05
-4.15946e-06
-3.17284e-05
-3.63482e-06
-3.0897e-05
-3.16475e-06
-3.03561e-05
-2.71416e-06
-3.0087e-05
-2.20901e-06
-1.59652e-06
-3.00627e-05
-1.71016e-05
-0.000126355
-3.27827e-05
-0.000108999
-4.62686e-05
-9.05309e-05
-5.66669e-05
-7.31685e-05
-6.32341e-05
-5.73591e-05
-6.57594e-05
-4.37488e-05
-6.47307e-05
-3.28525e-05
-6.12759e-05
-2.49162e-05
-5.67566e-05
-1.97077e-05
-5.22887e-05
-1.64584e-05
-4.83173e-05
-1.42049e-05
-4.48493e-05
-1.23086e-05
-4.18188e-05
-1.06776e-05
-3.918e-05
-9.282e-06
-3.69367e-05
-8.1191e-06
-3.50764e-05
-7.12989e-06
-3.35387e-05
-6.23909e-06
-3.2274e-05
-5.42424e-06
-3.12612e-05
-4.64764e-06
-3.05111e-05
-3.91486e-06
-3.00287e-05
-3.19647e-06
-2.97937e-05
-2.44419e-06
-1.61405e-06
-2.97764e-05
-1.74118e-05
-0.000108944
-3.26869e-05
-9.37237e-05
-4.50685e-05
-7.81494e-05
-5.40377e-05
-6.41995e-05
-5.94019e-05
-5.19951e-05
-6.13748e-05
-4.1776e-05
-6.05651e-05
-3.36624e-05
-5.78857e-05
-2.75957e-05
-5.43241e-05
-2.32694e-05
-5.06542e-05
-2.01284e-05
-4.72376e-05
-1.76216e-05
-4.4113e-05
-1.54333e-05
-4.12955e-05
-1.34952e-05
-3.87925e-05
-1.17851e-05
-3.66177e-05
-1.0294e-05
-3.4784e-05
-8.96366e-06
-3.32532e-05
-7.76989e-06
-3.20141e-05
-6.66344e-06
-3.10383e-05
-5.62341e-06
-3.03223e-05
-4.63088e-06
-2.98534e-05
-3.66546e-06
-2.96058e-05
-2.69169e-06
-1.67146e-06
-2.95486e-05
-1.65936e-05
-9.23503e-05
-3.08153e-05
-7.95021e-05
-4.20194e-05
-6.69454e-05
-4.99356e-05
-5.62834e-05
-5.46322e-05
-4.72986e-05
-5.64767e-05
-3.99316e-05
-5.60716e-05
-3.40676e-05
-5.41571e-05
-2.95103e-05
-5.14622e-05
-2.59644e-05
-4.85266e-05
-2.3064e-05
-4.56321e-05
-2.05162e-05
-4.28775e-05
-1.8188e-05
-4.03208e-05
-1.60519e-05
-3.80056e-05
-1.41003e-05
-3.59741e-05
-1.23255e-05
-3.4231e-05
-1.07068e-05
-3.2778e-05
-9.22292e-06
-3.1599e-05
-7.8425e-06
-3.06752e-05
-6.54727e-06
-2.99944e-05
-5.31169e-06
-2.95378e-05
-4.12202e-06
-2.92775e-05
-2.95206e-06
-1.76935e-06
-2.91797e-05
-1.52749e-05
-7.70756e-05
-2.82384e-05
-6.65388e-05
-3.83553e-05
-5.68286e-05
-4.54805e-05
-4.91583e-05
-4.97809e-05
-4.29984e-05
-5.16539e-05
-3.80587e-05
-5.16436e-05
-3.4078e-05
-5.03482e-05
-3.08057e-05
-4.83185e-05
-2.79943e-05
-4.59547e-05
-2.54279e-05
-4.34934e-05
-2.29775e-05
-4.10697e-05
-2.06117e-05
-3.87781e-05
-1.83435e-05
-3.66861e-05
-1.61924e-05
-3.4836e-05
-1.41757e-05
-3.32452e-05
-1.22976e-05
-3.19148e-05
-1.05533e-05
-3.08346e-05
-8.92278e-06
-2.99911e-05
-7.39072e-06
-2.93669e-05
-5.93589e-06
-2.89416e-05
-4.54734e-06
-2.86839e-05
-3.20968e-06
-1.88342e-06
-2.857e-05
-1.38181e-05
-6.32576e-05
-2.55291e-05
-5.48279e-05
-3.4698e-05
-4.76598e-05
-4.12256e-05
-4.26308e-05
-4.52864e-05
-3.89376e-05
-4.72452e-05
-3.61e-05
-4.75663e-05
-3.37569e-05
-4.67332e-05
-3.16388e-05
-4.51738e-05
-2.95538e-05
-4.32105e-05
-2.73912e-05
-4.10646e-05
-2.51235e-05
-3.88959e-05
-2.27804e-05
-3.68246e-05
-2.04149e-05
-3.49307e-05
-1.80863e-05
-3.32613e-05
-1.58451e-05
-3.18333e-05
-1.37257e-05
-3.06493e-05
-1.17373e-05
-2.96929e-05
-9.87918e-06
-2.89505e-05
-8.13313e-06
-2.84034e-05
-6.48297e-06
-2.80269e-05
-4.9238e-06
-2.77978e-05
-3.43884e-06
-1.98939e-06
-2.7692e-05
-1.23802e-05
-5.08776e-05
-2.2908e-05
-4.43002e-05
-3.12489e-05
-3.9319e-05
-3.73087e-05
-3.65711e-05
-4.12194e-05
-3.50269e-05
-4.32776e-05
-3.40419e-05
-4.3861e-05
-3.31736e-05
-4.33589e-05
-3.2141e-05
-4.21186e-05
-3.07941e-05
-4.04208e-05
-2.9089e-05
-3.8487e-05
-2.70573e-05
-3.64976e-05
-2.47699e-05
-3.4591e-05
-2.23214e-05
-3.28583e-05
-1.98191e-05
-3.13497e-05
-1.73537e-05
-3.00792e-05
-1.49962e-05
-2.90407e-05
-1.27758e-05
-2.82173e-05
-1.07026e-05
-2.75883e-05
-8.76209e-06
-2.71303e-05
-6.94094e-06
-2.68225e-05
-5.23161e-06
-2.66407e-05
-3.62054e-06
-2.06387e-06
-2.65664e-05
-1.09982e-05
-3.98794e-05
-2.03944e-05
-3.49041e-05
-2.79589e-05
-3.17546e-05
-3.35992e-05
-3.09308e-05
-3.7381e-05
-3.12452e-05
-3.95148e-05
-3.19082e-05
-4.029e-05
-3.23984e-05
-4.00201e-05
-3.2411e-05
-3.9001e-05
-3.18132e-05
-3.74921e-05
-3.05979e-05
-3.57191e-05
-2.88303e-05
-3.38746e-05
-2.66144e-05
-3.21075e-05
-2.40885e-05
-3.05185e-05
-2.1408e-05
-2.91587e-05
-1.87135e-05
-2.80408e-05
-1.61142e-05
-2.71507e-05
-1.36659e-05
-2.64661e-05
-1.13872e-05
-2.596e-05
-9.26817e-06
-2.5604e-05
-7.29693e-06
-2.53777e-05
-5.45792e-06
-2.52594e-05
-3.73889e-06
-2.09027e-06
-2.5233e-05
-9.66971e-06
-3.02098e-05
-1.79508e-05
-2.66231e-05
-2.47202e-05
-2.49852e-05
-2.99078e-05
-2.57433e-05
-3.35093e-05
-2.76437e-05
-3.56459e-05
-2.97716e-05
-3.65265e-05
-3.15179e-05
-3.64076e-05
-3.25299e-05
-3.55553e-05
-3.26655e-05
-3.42165e-05
-3.19367e-05
-3.26134e-05
-3.04334e-05
-3.09358e-05
-2.8292e-05
-2.93339e-05
-2.56904e-05
-2.79093e-05
-2.28327e-05
-2.67142e-05
-1.99085e-05
-2.57602e-05
-1.70682e-05
-2.50296e-05
-1.43965e-05
-2.44931e-05
-1.19237e-05
-2.41178e-05
-9.64349e-06
-2.38753e-05
-7.5394e-06
-2.37438e-05
-5.58944e-06
-2.37014e-05
-3.78116e-06
-2.05708e-06
-2.37347e-05
-8.38633e-06
-2.18234e-05
-1.55402e-05
-1.94692e-05
-2.14463e-05
-1.90791e-05
-2.60773e-05
-2.11124e-05
-2.93844e-05
-2.43365e-05
-3.14109e-05
-2.77452e-05
-3.22973e-05
-3.06315e-05
-3.22622e-05
-3.2565e-05
-3.15566e-05
-3.33711e-05
-3.04148e-05
-3.30785e-05
-2.904e-05
-3.18083e-05
-2.76013e-05
-2.97307e-05
-2.62319e-05
-2.70598e-05
-2.50262e-05
-2.40384e-05
-2.40349e-05
-2.08997e-05
-2.32706e-05
-1.78325e-05
-2.27177e-05
-1.49494e-05
-2.2342e-05
-1.22993e-05
-2.21089e-05
-9.87666e-06
-2.19921e-05
-7.65608e-06
-2.19628e-05
-5.61874e-06
-2.20072e-05
-3.73681e-06
-1.95363e-06
-2.21107e-05
-7.13432e-06
-1.46892e-05
-1.31419e-05
-1.34617e-05
-1.80989e-05
-1.41221e-05
-2.20378e-05
-1.71735e-05
-2.49068e-05
-2.14675e-05
-2.66958e-05
-2.59562e-05
-2.74966e-05
-2.98307e-05
-2.7495e-05
-3.25666e-05
-2.69418e-05
-3.39243e-05
-2.60517e-05
-3.39686e-05
-2.49897e-05
-3.28703e-05
-2.38829e-05
-3.08374e-05
-2.28309e-05
-2.81118e-05
-2.19101e-05
-2.49592e-05
-2.11685e-05
-2.16413e-05
-2.06236e-05
-1.83774e-05
-2.02634e-05
-1.53095e-05
-2.00604e-05
-1.25024e-05
-1.99804e-05
-9.95663e-06
-1.9992e-05
-7.64448e-06
-2.00748e-05
-5.53594e-06
-2.02112e-05
-3.60032e-06
-1.77635e-06
-2.03886e-05
-5.88823e-06
-8.80088e-06
-1.07331e-05
-8.61671e-06
-1.46731e-05
-1.01821e-05
-1.78031e-05
-1.40435e-05
-2.01028e-05
-1.91678e-05
-2.1553e-05
-2.45059e-05
-2.22059e-05
-2.91778e-05
-2.22173e-05
-3.25552e-05
-2.18406e-05
-3.4301e-05
-2.12677e-05
-3.45415e-05
-2.06042e-05
-3.35337e-05
-1.99161e-05
-3.15255e-05
-1.92556e-05
-2.87722e-05
-1.86733e-05
-2.55414e-05
-1.82132e-05
-2.21014e-05
-1.79013e-05
-1.86893e-05
-1.77381e-05
-1.54726e-05
-1.77062e-05
-1.25343e-05
-1.77755e-05
-9.88723e-06
-1.79172e-05
-7.50277e-06
-1.81108e-05
-5.34225e-06
-1.83406e-05
-3.37058e-06
-1.52388e-06
-1.85931e-05
-4.61641e-06
-4.18452e-06
-8.28424e-06
-4.94885e-06
-1.11723e-05
-7.29397e-06
-1.34267e-05
-1.1789e-05
-1.50813e-05
-1.75132e-05
-1.61547e-05
-2.34325e-05
-1.66469e-05
-2.86856e-05
-1.66805e-05
-3.25216e-05
-1.65263e-05
-3.44552e-05
-1.63258e-05
-3.4742e-05
-1.61242e-05
-3.37352e-05
-1.59154e-05
-3.17342e-05
-1.5695e-05
-2.89926e-05
-1.54809e-05
-2.57554e-05
-1.53101e-05
-2.22722e-05
-1.52202e-05
-1.87792e-05
-1.52337e-05
-1.54591e-05
-1.53493e-05
-1.24187e-05
-1.55484e-05
-9.68809e-06
-1.58069e-05
-7.24418e-06
-1.61025e-05
-5.04671e-06
-1.64194e-05
-3.05354e-06
-1.20085e-06
-1.67425e-05
-3.28463e-06
-8.99708e-07
-5.76821e-06
-2.46518e-06
-7.59604e-06
-5.46607e-06
-8.96699e-06
-1.0418e-05
-9.9812e-06
-1.6499e-05
-1.07302e-05
-2.26834e-05
-1.11295e-05
-2.82862e-05
-1.12288e-05
-3.24222e-05
-1.13454e-05
-3.43385e-05
-1.15496e-05
-3.45378e-05
-1.18284e-05
-3.34563e-05
-1.21122e-05
-3.14504e-05
-1.23436e-05
-2.87612e-05
-1.25021e-05
-2.55968e-05
-1.26082e-05
-2.2166e-05
-1.27092e-05
-1.86781e-05
-1.28534e-05
-1.5315e-05
-1.30702e-05
-1.22018e-05
-1.33597e-05
-9.3986e-06
-1.37026e-05
-6.90122e-06
-1.4079e-05
-4.67022e-06
-1.44703e-05
-2.66236e-06
-8.16909e-07
-1.48542e-05
-1.88451e-06
9.84786e-07
-3.20319e-06
-1.14644e-06
-4.00254e-06
-4.66664e-06
-4.52567e-06
-9.89477e-06
-4.96843e-06
-1.60561e-05
-5.53202e-06
-2.21197e-05
-5.99819e-06
-2.782e-05
-6.27224e-06
-3.2148e-05
-6.69866e-06
-3.3912e-05
-7.30608e-06
-3.39303e-05
-8.02285e-06
-3.27395e-05
-8.74513e-06
-3.0728e-05
-9.38328e-06
-2.8123e-05
-9.88154e-06
-2.50985e-05
-1.0233e-05
-2.18145e-05
-1.04814e-05
-1.84296e-05
-1.0698e-05
-1.50983e-05
-1.09482e-05
-1.19516e-05
-1.12655e-05
-9.08119e-06
-1.16477e-05
-6.51901e-06
-1.20714e-05
-4.24648e-06
-1.25129e-05
-2.22081e-06
-3.87729e-07
-1.29421e-05
-5.10454e-07
1.49541e-06