/*--------------------------------*- C++ -*----------------------------------*\
| =========                 |                                                 |
| \\      /  F ield         | OpenFOAM: The Open Source CFD Toolbox           |
|  \\    /   O peration     | Version:  2312                                  |
|   \\  /    A nd           | Website:  www.openfoam.com                      |
|    \\/     M anipulation  |                                                 |
\*---------------------------------------------------------------------------*/
FoamFile
{
    version     2.0;
    format      ascii;
    arch        "LSB;label=32;scalar=64";
    class       volVectorField;
    location    "2.75";
    object      U;
}
// * * * * * * * * * * * * * * * * * * * * * * * * * * * * * * * * * * * * * //

dimensions      [0 1 -1 0 0 0 0];

internalField   nonuniform List<vector> 
2268
(
(0.00883019 -0.0055967 0)
(0.00964472 -0.000969479 0)
(0.00673827 2.44159e-05 0)
(0.00315017 0.000685632 0)
(-0.000627425 0.000634702 0)
(-0.003596 0.000736404 0)
(-0.00691425 0.000975839 0)
(-0.0116966 0.00144928 0)
(-0.0190161 0.00205819 0)
(-0.0290286 0.00273835 0)
(-0.041627 0.00331793 0)
(-0.0557916 0.00358679 0)
(-0.0699857 0.00348723 0)
(-0.0829819 0.00298413 0)
(-0.0932643 0.00211553 0)
(-0.0994862 0.00103044 0)
(-0.10116 -0.000111814 0)
(-0.0981474 -0.00123412 0)
(-0.090268 -0.00237753 0)
(-0.0778505 -0.00341211 0)
(-0.0607917 -0.00447083 0)
(-0.0400824 -0.00533332 0)
(-0.016074 -0.00647235 0)
(-0.00194611 -0.00393659 0)
(-0.0024823 0.00251261 0)
(-0.00711074 0.00279181 0)
(-0.00939456 0.00295513 0)
(-0.0113331 0.00248414 0)
(-0.0121973 0.00235063 0)
(-0.0138267 0.00288296 0)
(-0.0173004 0.00417927 0)
(-0.0235889 0.00590723 0)
(-0.0328592 0.00786446 0)
(-0.0451119 0.00959615 0)
(-0.0591571 0.0103186 0)
(-0.0733302 0.00991528 0)
(-0.0863673 0.00842034 0)
(-0.096685 0.00588623 0)
(-0.102897 0.0027971 0)
(-0.104516 -0.000479797 0)
(-0.101407 -0.00393342 0)
(-0.0933575 -0.00743373 0)
(-0.0806927 -0.0105811 0)
(-0.0633331 -0.0136154 0)
(-0.0421131 -0.0160561 0)
(-0.0174618 -0.0202986 0)
(-0.00661709 -0.0032338 0)
(-0.0101161 0.0018755 0)
(-0.0156897 0.00322208 0)
(-0.0179971 0.00298819 0)
(-0.0196544 0.00181359 0)
(-0.0197258 0.00153435 0)
(-0.0203061 0.00267629 0)
(-0.0227142 0.00527855 0)
(-0.0279415 0.00874851 0)
(-0.036464 0.0126035 0)
(-0.0484737 0.015948 0)
(-0.0626214 0.0174654 0)
(-0.0769306 0.0169216 0)
(-0.0901214 0.0145601 0)
(-0.100509 0.0101847 0)
(-0.106643 0.00474909 0)
(-0.108189 -0.000922719 0)
(-0.1049 -0.00670254 0)
(-0.096388 -0.0125654 0)
(-0.0830454 -0.0178162 0)
(-0.0648358 -0.0230365 0)
(-0.0428265 -0.0273083 0)
(-0.0163366 -0.0343739 0)
(-0.00925362 0.00395324 0)
(-0.0151536 0.00722792 0)
(-0.0219885 0.00688397 0)
(-0.0250419 0.00551255 0)
(-0.0269898 0.00361905 0)
(-0.0262716 0.0028189 0)
(-0.0256972 0.00430064 0)
(-0.0266871 0.00799787 0)
(-0.0309392 0.012682 0)
(-0.0392021 0.0178254 0)
(-0.0515888 0.0223436 0)
(-0.0664569 0.0241314 0)
(-0.081444 0.022805 0)
(-0.0952296 0.0193071 0)
(-0.105854 0.013374 0)
(-0.111535 0.00640773 0)
(-0.11236 -0.000995945 0)
(-0.108607 -0.00942039 0)
(-0.0993971 -0.0179036 0)
(-0.0850224 -0.02532 0)
(-0.0657116 -0.0328416 0)
(-0.0428755 -0.0391134 0)
(-0.0143796 -0.0479092 0)
(-0.00893121 0.00647251 0)
(-0.0135002 0.00686556 0)
(-0.020777 0.00624231 0)
(-0.0240851 0.00427005 0)
(-0.0268009 0.00181554 0)
(-0.0270882 0.000611422 0)
(-0.0274417 0.00246112 0)
(-0.0282181 0.0073538 0)
(-0.0321362 0.0140147 0)
(-0.0408565 0.0217697 0)
(-0.054522 0.0290405 0)
(-0.0714521 0.0331631 0)
(-0.0886199 0.0326345 0)
(-0.103885 0.0283542 0)
(-0.115015 0.0189157 0)
(-0.12011 0.00767034 0)
(-0.120036 -0.00262088 0)
(-0.115414 -0.0127272 0)
(-0.104498 -0.0238971 0)
(-0.0880886 -0.0337427 0)
(-0.0667857 -0.0435747 0)
(-0.0426619 -0.0520985 0)
(-0.0120694 -0.0611643 0)
(-0.00220592 0.013815 0)
(-0.0030135 0.0131515 0)
(-0.0160775 0.0117143 0)
(-0.0208335 0.00823022 0)
(-0.0253789 0.00457735 0)
(-0.026396 0.00266815 0)
(-0.0276777 0.0045528 0)
(-0.0283059 0.0100176 0)
(-0.0308306 0.0171463 0)
(-0.0375483 0.0249063 0)
(-0.0490237 0.0316169 0)
(-0.0661184 0.0341184 0)
(-0.0870676 0.0319981 0)
(-0.105192 0.0277249 0)
(-0.11809 0.0195401 0)
(-0.127806 0.0099405 0)
(-0.131512 -0.00234437 0)
(-0.125595 -0.0181661 0)
(-0.110621 -0.0331116 0)
(-0.0906085 -0.0442363 0)
(-0.0656159 -0.0562956 0)
(-0.0401608 -0.0668921 0)
(-0.00783394 -0.0737615 0)
(0.00186525 0.0102211 0)
(0.0293514 0.0149661 0)
(0.0313848 0.0146512 0)
(0.0411903 0.00976591 0)
(0.0406716 0.00516186 0)
(0.0362761 0.00311789 0)
(0.0224775 0.00433434 0)
(0.00337829 0.0104971 0)
(-0.0118988 0.0226188 0)
(-0.0237204 0.0369845 0)
(-0.027904 0.0508874 0)
(-0.0526025 0.0588809 0)
(-0.106282 0.055104 0)
(-0.136407 0.0402688 0)
(-0.149504 0.0259394 0)
(-0.14838 0.0108658 0)
(-0.134304 -0.00364974 0)
(-0.118362 -0.0187631 0)
(-0.102924 -0.035605 0)
(-0.083326 -0.0516067 0)
(-0.0572827 -0.0673733 0)
(-0.0350501 -0.0794061 0)
(-0.00308491 -0.0827615 0)
(-0.0116933 -0.00149044 0)
(0.000173531 0.00348472 0)
(-0.0104478 0.00872048 0)
(-0.0132933 0.00799379 0)
(-0.0158943 0.00750605 0)
(-0.0142471 0.00912203 0)
(-0.0125735 0.0145108 0)
(-0.0138489 0.0193988 0)
(-0.0146755 0.0253941 0)
(-0.0121574 0.0320116 0)
(0.0114267 0.0432847 0)
(0.0328979 0.0701598 0)
(0.0126332 0.0815167 0)
(-6.92941e-05 0.0584546 0)
(-0.0413472 0.0391279 0)
(-0.105065 0.00879866 0)
(-0.152224 -0.0175614 0)
(-0.148254 -0.03721 0)
(-0.108722 -0.0524053 0)
(-0.0761847 -0.0622123 0)
(-0.0481887 -0.0727844 0)
(-0.0328998 -0.0868963 0)
(-0.00664304 -0.087928 0)
(-0.0052584 0.00436143 0)
(0.030763 -0.00286036 0)
(0.0381372 -0.00150553 0)
(0.0415193 -0.000346423 0)
(0.0295788 0.00408736 0)
(0.00856372 0.0072951 0)
(-0.0168786 0.00734745 0)
(-0.045875 0.00944247 0)
(-0.0852108 0.0112207 0)
(-0.123543 0.0089634 0)
(-0.151387 0.00503963 0)
(-0.164625 -0.00193919 0)
(-0.157338 -0.00858684 0)
(-0.129977 -0.0119275 0)
(-0.0923633 -0.0131909 0)
(-0.0528536 -0.0124857 0)
(-0.0186698 -0.00646852 0)
(-0.00980111 0.000427379 0)
(-0.0160244 -0.0040138 0)
(0.0217024 -0.0153627 0)
(0.0633548 -0.0152289 0)
(0.0799562 -0.00463837 0)
(0.0869828 0.00490279 0)
(0.0766719 0.00984672 0)
(0.0549163 0.0117377 0)
(0.026968 0.0132326 0)
(-0.0044809 0.0180815 0)
(-0.0421281 0.0218009 0)
(-0.0708539 0.0192329 0)
(-0.0861782 0.0120337 0)
(-0.0863215 0.00226438 0)
(-0.0766133 -0.00814334 0)
(-0.0588732 -0.0147902 0)
(-0.032616 -0.0227436 0)
(-0.015752 -0.0227457 0)
(-0.000615826 -0.0112798 0)
(-0.00504028 -0.0023716 0)
(-0.00123611 -0.00598155 0)
(0.0308789 -0.0315107 0)
(0.0636027 -0.024228 0)
(0.0853544 -0.0127761 0)
(0.109981 -0.00055538 0)
(0.105384 0.0154657 0)
(0.0776949 0.0267889 0)
(0.0110187 0.0281702 0)
(-0.0533178 0.0369178 0)
(-0.0458313 0.0392075 0)
(-0.0619657 0.0247759 0)
(-0.0795693 0.00937323 0)
(-0.0631628 -0.00680915 0)
(-0.0397618 -0.0182984 0)
(-0.00990133 -0.0262419 0)
(0.0272987 -0.0305668 0)
(0.0120275 -0.0224805 0)
(-0.0213298 -0.00858285 0)
(-0.068128 0.00298808 0)
(-0.0371259 -0.0113106 0)
(0.0212467 -0.0600328 0)
(0.0529548 -0.0374223 0)
(0.0490147 -0.0256941 0)
(0.050693 0.00040263 0)
(-0.0281309 0.0347904 0)
(0.0251959 0.0568097 0)
(-0.139001 0.0913503 0)
(-0.189763 0.0400637 0)
(0.0276447 0.0323749 0)
(0.00482181 0.0495841 0)
(-0.0499297 0.0143291 0)
(-0.0614979 -0.0154126 0)
(-0.0351206 -0.0290256 0)
(0.0128431 -0.0407622 0)
(0.0447124 -0.0318784 0)
(0.0108384 8.29503e-05 0)
(-0.0638588 0.0182164 0)
(-0.111075 0.00288511 0)
(-0.027911 -0.0566712 0)
(-0.05356 -0.0574683 0)
(-0.0736142 -0.0252571 0)
(-0.0512303 -0.0262868 0)
(-0.0149935 0.0247873 0)
(-0.0292788 0.0288387 0)
(0.0366928 0.0643104 0)
(-0.12899 0.130028 0)
(-0.090704 -0.0453077 0)
(0.0532335 -0.0527101 0)
(0.137477 0.050033 0)
(0.124251 0.0388103 0)
(0.0602308 -0.0132933 0)
(-0.00295368 -0.0467053 0)
(-0.0216797 -0.0641558 0)
(0.0277277 -0.0356363 0)
(0.057722 0.029751 0)
(0.0488927 0.0492095 0)
(-0.042739 0.0034739 0)
(0.0336292 -0.0684893 0)
(-0.0761151 -0.0271594 0)
(-0.0185467 -0.0420649 0)
(0.00630361 -0.0435573 0)
(0.02111 -0.00176787 0)
(0.0111438 0.0194735 0)
(0.0483821 0.0768663 0)
(-0.087744 0.168282 0)
(-0.0193991 -0.0698283 0)
(0.0124892 -0.0817141 0)
(0.106816 0.0208563 0)
(0.116579 0.0501276 0)
(0.0972873 0.0156837 0)
(0.0589237 -0.00614753 0)
(0.0333397 -0.0621878 0)
(0.101625 -0.0698409 0)
(0.181928 0.00025713 0)
(0.195789 0.0549882 0)
(0.154926 0.0193339 0)
(0.100375 -0.0570315 0)
(0.0485144 -0.000152191 0)
(0.0810146 -0.0490834 0)
(0.0625437 -0.0414441 0)
(0.0486103 0.00749938 0)
(0.0240787 0.0261108 0)
(0.0416078 0.0919014 0)
(-0.0476633 0.188485 0)
(-0.00533631 -0.0858633 0)
(-0.0273947 -0.0943068 0)
(-0.0136711 0.00920841 0)
(0.0351937 0.058677 0)
(0.0620332 0.0137296 0)
(0.0649852 0.00590769 0)
(0.0605436 -0.0771611 0)
(0.102899 -0.0992167 0)
(0.172647 -0.029167 0)
(0.240079 0.0467295 0)
(0.226156 0.050233 0)
(0.171656 0.0194354 0)
(0.197338 -0.107111 0)
(0.160826 -0.0469655 0)
(0.120597 -0.0280858 0)
(0.0857885 0.00857078 0)
(0.0434708 0.036567 0)
(0.027475 0.102531 0)
(-0.0138383 0.197434 0)
(-0.00145769 -0.0768478 0)
(-0.0606205 -0.0803389 0)
(-0.093107 0.00145783 0)
(-0.053233 0.0311426 0)
(0.00342105 -0.0230833 0)
(0.056097 0.00667066 0)
(0.0446809 -0.0855859 0)
(0.0517225 -0.112663 0)
(0.0800652 -0.0563597 0)
(0.166167 0.0253208 0)
(0.181959 0.0653442 0)
(0.148676 0.0938689 0)
(-0.0329965 0.0245108 0)
(-0.0435257 0.0191732 0)
(-0.0602742 0.0162834 0)
(-0.062829 0.00713981 0)
(-0.059539 0.00155866 0)
(-0.0472702 0.00211714 0)
(-0.0332595 0.00805662 0)
(-0.0214615 0.0147974 0)
(-0.01058 0.0197763 0)
(0.000233856 0.0214652 0)
(0.00526836 0.0225183 0)
(0.0259389 0.0480849 0)
(0.0423764 0.077293 0)
(0.0379769 0.0700682 0)
(0.0165481 0.0700017 0)
(0.0137035 0.0607166 0)
(0.00541039 0.0461034 0)
(0.00109087 -0.0376993 0)
(0.00354316 -0.0814379 0)
(-0.0120619 -0.0946144 0)
(-0.0303364 -0.105864 0)
(-0.0349984 -0.116685 0)
(-0.0685671 -0.103246 0)
(-0.0302909 0.0658046 0)
(-0.0491704 0.0407775 0)
(-0.0665832 0.0246899 0)
(-0.0547141 0.0159735 0)
(-0.0276237 -0.00368833 0)
(0.00402797 -0.0168906 0)
(0.0227866 -0.0113121 0)
(0.03409 -0.00165829 0)
(0.0374361 0.007255 0)
(0.0325196 0.0162769 0)
(0.0118143 0.023164 0)
(-0.00935764 0.0328172 0)
(0.0066566 0.0564568 0)
(0.0228889 0.0811724 0)
(0.0266866 0.0647883 0)
(0.0511902 0.0153191 0)
(0.0818687 -0.0133447 0)
(0.108206 -0.0400922 0)
(0.108779 -0.0451068 0)
(0.102612 -0.0379693 0)
(0.104197 -0.0454389 0)
(0.107023 -0.0683147 0)
(0.105329 -0.0846505 0)
(-0.0028142 0.0805092 0)
(0.00891926 0.0464661 0)
(-0.00245122 0.00999244 0)
(0.00626499 -0.0414307 0)
(0.0281878 -0.0684916 0)
(0.0609522 -0.0570188 0)
(0.0712973 -0.0227207 0)
(0.0725306 0.000130689 0)
(0.059554 0.0214978 0)
(0.0489777 0.047543 0)
(0.0404757 0.0638463 0)
(0.0368468 0.0575615 0)
(0.0442352 0.0465401 0)
(0.0686364 0.0535592 0)
(0.105949 0.0285237 0)
(0.144463 -0.00438236 0)
(0.165957 -0.0257613 0)
(0.173045 -0.0427001 0)
(0.170127 -0.0541915 0)
(0.165235 -0.0695849 0)
(0.162648 -0.0845076 0)
(0.15756 -0.0923471 0)
(0.144878 -0.0867978 0)
(0.0601112 0.0869917 0)
(0.108803 0.0702748 0)
(0.145176 0.0404034 0)
(0.167971 0.00131614 0)
(0.161971 -0.0368726 0)
(0.137572 -0.053736 0)
(0.108279 -0.0236156 0)
(0.0875302 0.0166347 0)
(0.074562 0.0319184 0)
(0.0837155 0.0370532 0)
(0.108208 0.0358154 0)
(0.137766 0.0297391 0)
(0.165356 0.0223186 0)
(0.192467 0.0154654 0)
(0.224012 -0.00559299 0)
(0.245093 -0.029005 0)
(0.256198 -0.0427603 0)
(0.263346 -0.0504342 0)
(0.270443 -0.0513751 0)
(0.27675 -0.0524752 0)
(0.276851 -0.0542433 0)
(0.269426 -0.0591221 0)
(0.25511 -0.061247 0)
(0.0367066 -0.115347 0)
(0.145384 -0.0559741 0)
(0.219815 -0.0501087 0)
(0.270064 -0.0509024 0)
(0.279793 -0.03889 0)
(0.250645 -0.0210247 0)
(0.204351 0.0211094 0)
(0.17184 0.0406721 0)
(0.179968 0.024887 0)
(0.20528 0.0144577 0)
(0.230474 0.00729179 0)
(0.2491 0.00238336 0)
(0.259946 -0.00208841 0)
(0.269177 -0.0129627 0)
(0.281872 -0.0284681 0)
(0.295762 -0.0426486 0)
(0.306437 -0.0519175 0)
(0.313937 -0.0583607 0)
(0.321401 -0.0637014 0)
(0.330434 -0.0675942 0)
(0.340473 -0.0677099 0)
(0.350116 -0.0660084 0)
(0.357254 -0.0628096 0)
(-0.0388909 -0.11812 0)
(0.0389804 -0.115115 0)
(0.0827951 -0.108301 0)
(0.155018 -0.0729267 0)
(0.190452 -0.014651 0)
(0.190134 0.0228278 0)
(0.191612 0.049447 0)
(0.235081 0.028414 0)
(0.289314 0.000261331 0)
(0.335428 -0.00949203 0)
(0.374259 -0.00945809 0)
(0.396359 0.000945973 0)
(0.391751 0.00411678 0)
(0.369512 -0.00992559 0)
(0.355064 -0.0312847 0)
(0.350241 -0.0471112 0)
(0.348616 -0.0550828 0)
(0.347428 -0.0626164 0)
(0.34934 -0.070568 0)
(0.354718 -0.0757948 0)
(0.363183 -0.0781331 0)
(0.37267 -0.0751642 0)
(0.380493 -0.0702768 0)
(-0.0731749 -0.0956356 0)
(-0.0704059 -0.143301 0)
(-0.0848934 -0.163053 0)
(-0.0154907 -0.129425 0)
(0.0600957 -0.0637611 0)
(0.129264 -0.0255467 0)
(0.21657 -0.0329647 0)
(0.299667 -0.0568919 0)
(0.364921 -0.0667771 0)
(0.41674 -0.070422 0)
(0.469182 -0.0629824 0)
(0.519992 -0.0251336 0)
(0.554308 0.030934 0)
(0.537473 0.0239467 0)
(0.48836 -0.0196267 0)
(0.448196 -0.0436537 0)
(0.416341 -0.0508565 0)
(0.394569 -0.0589546 0)
(0.385901 -0.0703165 0)
(0.383051 -0.0772374 0)
(0.380522 -0.0833084 0)
(0.378058 -0.0811271 0)
(0.377818 -0.0765566 0)
(-0.0616979 -0.0214025 0)
(-0.0679601 -0.124055 0)
(-0.145244 -0.18097 0)
(-0.103679 -0.206347 0)
(0.0247652 -0.151364 0)
(0.128956 -0.126326 0)
(0.227298 -0.124654 0)
(0.316277 -0.130555 0)
(0.387879 -0.121388 0)
(0.437459 -0.121078 0)
(0.481881 -0.122294 0)
(0.551398 -0.0875347 0)
(0.620336 -0.0145957 0)
(0.673823 0.0555421 0)
(0.686713 0.0625896 0)
(0.628136 0.0311344 0)
(0.548428 0.00528443 0)
(0.474848 -0.0345432 0)
(0.439154 -0.0671958 0)
(0.418535 -0.0758406 0)
(0.395768 -0.0834457 0)
(0.375868 -0.0809416 0)
(0.368519 -0.0809901 0)
(-0.0902722 0.036236 0)
(0.217636 0.029521 0)
(-0.106235 -0.142858 0)
(-0.066484 -0.295584 0)
(-0.100359 -0.274788 0)
(-0.0274077 -0.226887 0)
(0.0749399 -0.207441 0)
(0.201657 -0.207408 0)
(0.357359 -0.167574 0)
(0.472229 -0.139547 0)
(0.514333 -0.148652 0)
(0.534119 -0.167143 0)
(0.602051 -0.0925102 0)
(0.71751 -0.0138943 0)
(0.809972 0.0277547 0)
(0.863353 0.0674146 0)
(0.863792 0.0918116 0)
(0.813133 0.0583911 0)
(0.744352 -0.00340622 0)
(0.691541 -0.0101854 0)
(0.535462 0.00819522 0)
(0.339752 -0.048084 0)
(0.302114 -0.0727298 0)
(-0.0716911 -0.209583 0)
(-0.106281 0.0161644 0)
(-0.182735 0.0329799 0)
(-0.25355 -0.171245 0)
(-0.263744 -0.250126 0)
(-0.188951 -0.324501 0)
(0.0310777 -0.418683 0)
(0.261787 -0.454716 0)
(0.474694 -0.414751 0)
(0.682622 -0.30676 0)
(0.85986 -0.176837 0)
(0.931027 -0.153261 0)
(0.895072 -0.136411 0)
(0.904721 -0.155764 0)
(0.932296 -0.0909466 0)
(0.949418 0.00699734 0)
(0.947697 0.0753499 0)
(0.918958 0.0804212 0)
(0.838294 0.0532007 0)
(0.79678 0.0645174 0)
(0.796833 0.154952 0)
(0.848183 0.165059 0)
(0.747965 0.00643631 0)
(-0.0764612 0.106537 0)
(-0.13747 0.145653 0)
(-0.208813 -0.00581577 0)
(-0.0617425 -0.22922 0)
(0.0219591 -0.380796 0)
(0.146024 -0.491828 0)
(0.306251 -0.621128 0)
(0.411868 -0.648343 0)
(0.526147 -0.608756 0)
(0.655534 -0.518932 0)
(0.786982 -0.383413 0)
(0.916633 -0.245964 0)
(1.01029 -0.139729 0)
(1.05637 -0.10012 0)
(1.04467 -0.0222393 0)
(0.994001 0.0785997 0)
(0.955324 0.107223 0)
(0.934905 0.145431 0)
(0.921622 0.135761 0)
(0.873231 0.0273222 0)
(0.849192 0.0818914 0)
(0.899529 0.102565 0)
(0.969872 0.0695639 0)
(-0.0435594 0.0704589 0)
(0.0499522 0.186452 0)
(0.0791192 -0.0849862 0)
(0.250128 -0.338845 0)
(0.335081 -0.482883 0)
(0.42457 -0.580901 0)
(0.494778 -0.690734 0)
(0.535969 -0.722985 0)
(0.57525 -0.687256 0)
(0.620543 -0.596914 0)
(0.667118 -0.458568 0)
(0.713956 -0.327888 0)
(0.753189 -0.234813 0)
(0.776738 -0.154059 0)
(0.781564 -0.0460771 0)
(0.76723 0.0649927 0)
(0.744898 0.124619 0)
(0.726234 0.142602 0)
(0.729064 0.124605 0)
(0.730128 0.0874352 0)
(0.7405 0.0588404 0)
(0.766044 0.0269692 0)
(0.792527 -0.0262616 0)
(-0.00814398 0.0708247 0)
(0.130909 0.0893665 0)
(0.365018 -0.194517 0)
(0.478329 -0.408445 0)
(0.545787 -0.545547 0)
(0.596051 -0.634683 0)
(0.618684 -0.701796 0)
(0.605915 -0.732823 0)
(0.582786 -0.692199 0)
(0.55333 -0.588668 0)
(0.522233 -0.454243 0)
(0.496499 -0.333513 0)
(0.471035 -0.233373 0)
(0.452232 -0.12786 0)
(0.415206 0.00136697 0)
(0.399046 0.103885 0)
(0.399089 0.145147 0)
(0.411077 0.142245 0)
(0.431053 0.111386 0)
(0.451929 0.0726878 0)
(0.469331 0.0480802 0)
(0.477514 0.0286057 0)
(0.469551 0.00133677 0)
(0.0558062 -0.0759273 0)
(0.285427 -0.201241 0)
(0.488896 -0.37813 0)
(0.589898 -0.510987 0)
(0.638394 -0.601539 0)
(0.655993 -0.659292 0)
(0.645112 -0.689443 0)
(0.598934 -0.686078 0)
(0.524375 -0.630463 0)
(0.437755 -0.521857 0)
(0.345633 -0.393675 0)
(0.246346 -0.27235 0)
(0.149685 -0.165509 0)
(0.0645787 -0.0487369 0)
(0.0356222 0.0481299 0)
(0.0422515 0.105614 0)
(0.0668902 0.118334 0)
(0.0992569 0.1103 0)
(0.118497 0.077158 0)
(0.122546 0.0482682 0)
(0.119608 0.0381321 0)
(0.103101 0.0282619 0)
(0.078811 0.00946237 0)
(0.182757 -0.336528 0)
(0.347871 -0.42133 0)
(0.493665 -0.502359 0)
(0.579297 -0.576521 0)
(0.615481 -0.628622 0)
(0.615 -0.653857 0)
(0.582244 -0.649134 0)
(0.511673 -0.61292 0)
(0.40821 -0.534715 0)
(0.280731 -0.41031 0)
(0.127634 -0.267293 0)
(-0.064872 -0.111129 0)
(-0.152455 -0.0605011 0)
(-0.201912 -0.0113531 0)
(-0.208066 0.0374106 0)
(-0.191568 0.0672174 0)
(-0.162368 0.0678629 0)
(-0.128065 0.0754728 0)
(-0.122544 0.0794235 0)
(-0.127305 0.0776786 0)
(-0.129804 0.061187 0)
(-0.126772 0.0434841 0)
(-0.124473 0.0393077 0)
(0.153034 -0.577333 0)
(0.287384 -0.57988 0)
(0.409549 -0.605746 0)
(0.485257 -0.632055 0)
(0.513334 -0.6448 0)
(0.501931 -0.632814 0)
(0.451719 -0.590618 0)
(0.363314 -0.519079 0)
(0.237412 -0.408705 0)
(0.0691279 -0.24378 0)
(-0.173918 -0.0509679 0)
(-0.236633 -0.0350452 0)
(-0.286864 -0.0180012 0)
(-0.314526 0.0106872 0)
(-0.315902 0.0342991 0)
(-0.300278 0.0432067 0)
(-0.282064 0.0469339 0)
(-0.267212 0.070186 0)
(-0.253536 0.0818964 0)
(-0.235239 0.0656756 0)
(-0.216478 0.0389432 0)
(-0.201315 0.0257051 0)
(-0.192346 0.0273825 0)
(0.0957143 -0.750744 0)
(0.207602 -0.708248 0)
(0.299854 -0.69022 0)
(0.354502 -0.674637 0)
(0.365542 -0.647618 0)
(0.335723 -0.596092 0)
(0.269608 -0.518352 0)
(0.162942 -0.407045 0)
(0.00526392 -0.233127 0)
(-0.223995 0.00115661 0)
(-0.275083 0.00743936 0)
(-0.304725 0.00529634 0)
(-0.328574 0.0112243 0)
(-0.339697 0.0221629 0)
(-0.337579 0.0268445 0)
(-0.328818 0.025697 0)
(-0.31956 0.0310099 0)
(-0.303132 0.049487 0)
(-0.277646 0.0555436 0)
(-0.251874 0.040625 0)
(-0.233889 0.0208358 0)
(-0.222477 0.0173024 0)
(-0.211695 0.0199719 0)
(0.0481008 -0.864562 0)
(0.126588 -0.79633 0)
(0.177487 -0.744142 0)
(0.199019 -0.691967 0)
(0.184635 -0.629105 0)
(0.134226 -0.542058 0)
(0.0479137 -0.423814 0)
(-0.0905256 -0.239309 0)
(-0.248794 -0.0309062 0)
(-0.306403 0.0322588 0)
(-0.308498 0.0251424 0)
(-0.317798 0.0212961 0)
(-0.322218 0.0208255 0)
(-0.320426 0.0234896 0)
(-0.313472 0.0219657 0)
(-0.304988 0.0183153 0)
(-0.29487 0.0209295 0)
(-0.278453 0.0287611 0)
(-0.256142 0.0300198 0)
(-0.236037 0.0211321 0)
(-0.223646 0.00974885 0)
(-0.214711 0.00675811 0)
(-0.204392 0.006304 0)
(0.0124089 -0.921017 0)
(0.0489617 -0.838091 0)
(0.053478 -0.759202 0)
(0.0406532 -0.677169 0)
(-0.00446719 -0.580496 0)
(-0.0844317 -0.448389 0)
(-0.195776 -0.271804 0)
(-0.301883 -0.0875457 0)
(-0.345357 0.0125462 0)
(-0.33079 0.0270106 0)
(-0.318378 0.0238106 0)
(-0.308357 0.0196898 0)
(-0.298333 0.0166836 0)
(-0.287211 0.0152174 0)
(-0.275155 0.0123476 0)
(-0.263727 0.00844394 0)
(-0.252616 0.00764576 0)
(-0.239316 0.00982986 0)
(-0.223931 0.00992505 0)
(-0.210351 0.00597092 0)
(-0.200972 0.000990924 0)
(-0.19402 -0.00139996 0)
(-0.187163 -0.0024977 0)
(-0.0139686 -0.925529 0)
(-0.0204672 -0.832029 0)
(-0.0589894 -0.731266 0)
(-0.106728 -0.622286 0)
(-0.1802 -0.492775 0)
(-0.265057 -0.340746 0)
(-0.335285 -0.18841 0)
(-0.363004 -0.0732907 0)
(-0.351086 -0.0134686 0)
(-0.327452 0.00408038 0)
(-0.306599 0.00616315 0)
(-0.287574 0.0044858 0)
(-0.27037 0.00290341 0)
(-0.2547 0.0017905 0)
(-0.240548 -5.66377e-05 0)
(-0.228349 -0.00234589 0)
(-0.217796 -0.00310185 0)
(-0.207487 -0.00225627 0)
(-0.197113 -0.00199287 0)
(-0.188051 -0.00342315 0)
(-0.181598 -0.00542366 0)
(-0.177018 -0.0064685 0)
(-0.173305 -0.00653296 0)
(-0.0350966 -0.885889 0)
(-0.0782017 -0.784513 0)
(-0.147664 -0.670209 0)
(-0.216417 -0.548002 0)
(-0.289642 -0.415868 0)
(-0.347389 -0.283161 0)
(-0.374626 -0.16669 0)
(-0.369366 -0.0822478 0)
(-0.344625 -0.0369542 0)
(-0.316295 -0.0217465 0)
(-0.290295 -0.01817 0)
(-0.267478 -0.0165522 0)
(-0.248168 -0.0148943 0)
(-0.231663 -0.0135504 0)
(-0.21767 -0.0131386 0)
(-0.206111 -0.0132867 0)
(-0.196561 -0.0128653 0)
(-0.188126 -0.0116637 0)
(-0.180476 -0.0105185 0)
(-0.174126 -0.00999682 0)
(-0.169646 -0.00987819 0)
(-0.166799 -0.00936156 0)
(-0.164958 -0.00806442 0)
(-0.0503163 -0.815493 0)
(-0.116019 -0.711825 0)
(-0.199885 -0.596089 0)
(-0.270298 -0.478628 0)
(-0.329044 -0.362739 0)
(-0.364026 -0.256378 0)
(-0.37202 -0.168227 0)
(-0.357557 -0.105142 0)
(-0.331165 -0.0683931 0)
(-0.302942 -0.0514717 0)
(-0.277241 -0.0436222 0)
(-0.255163 -0.0378786 0)
(-0.236483 -0.0327877 0)
(-0.220513 -0.0286687 0)
(-0.207053 -0.0256869 0)
(-0.195951 -0.0234306 0)
(-0.186866 -0.02123 0)
(-0.179265 -0.0188735 0)
(-0.172847 -0.0166415 0)
(-0.167716 -0.0147641 0)
(-0.16417 -0.0130644 0)
(-0.162145 -0.0110514 0)
(-0.16114 -0.0083893 0)
(-0.0584757 -0.727468 0)
(-0.13296 -0.628833 0)
(-0.218305 -0.522152 0)
(-0.28186 -0.419696 0)
(-0.327973 -0.324664 0)
(-0.351342 -0.241716 0)
(-0.353445 -0.174815 0)
(-0.339353 -0.126381 0)
(-0.316598 -0.0956786 0)
(-0.292023 -0.0780083 0)
(-0.269332 -0.0666947 0)
(-0.24945 -0.0575498 0)
(-0.232046 -0.0496755 0)
(-0.216801 -0.043139 0)
(-0.203684 -0.0378374 0)
(-0.192693 -0.0334163 0)
(-0.183633 -0.0294592 0)
(-0.17618 -0.0257279 0)
(-0.170113 -0.0222218 0)
(-0.165413 -0.018945 0)
(-0.162223 -0.0157607 0)
(-0.160453 -0.012348 0)
(-0.159648 -0.00844768 0)
(-0.0605713 -0.633621 0)
(-0.134655 -0.545253 0)
(-0.215482 -0.453174 0)
(-0.271582 -0.368906 0)
(-0.309854 -0.293981 0)
(-0.328318 -0.230586 0)
(-0.329855 -0.180145 0)
(-0.318958 -0.142922 0)
(-0.301179 -0.11732 0)
(-0.281347 -0.0998577 0)
(-0.262226 -0.0866053 0)
(-0.244682 -0.0753291 0)
(-0.228729 -0.0655119 0)
(-0.214418 -0.0570398 0)
(-0.201851 -0.0497678 0)
(-0.1911 -0.0434384 0)
(-0.182104 -0.0377512 0)
(-0.174721 -0.032502 0)
(-0.168818 -0.0275776 0)
(-0.164308 -0.0228958 0)
(-0.161224 -0.0183265 0)
(-0.15946 -0.0136485 0)
(-0.158615 -0.00865862 0)
(-0.0587486 -0.541738 0)
(-0.127862 -0.465956 0)
(-0.202262 -0.390239 0)
(-0.252008 -0.324262 0)
(-0.285326 -0.267704 0)
(-0.30165 -0.220907 0)
(-0.304189 -0.183713 0)
(-0.296801 -0.155321 0)
(-0.283657 -0.134046 0)
(-0.268175 -0.117517 0)
(-0.25239 -0.103591 0)
(-0.237173 -0.0912001 0)
(-0.222868 -0.0800802 0)
(-0.209756 -0.070114 0)
(-0.198069 -0.0611945 0)
(-0.187937 -0.0531742 0)
(-0.179383 -0.0458655 0)
(-0.172358 -0.039108 0)
(-0.166751 -0.032755 0)
(-0.162469 -0.0267076 0)
(-0.159493 -0.0208617 0)
(-0.157725 -0.0150631 0)
(-0.156803 -0.00911883 0)
(-0.0549408 -0.455843 0)
(-0.117404 -0.39291 0)
(-0.185195 -0.333175 0)
(-0.229743 -0.28416 0)
(-0.25975 -0.243788 0)
(-0.27516 -0.211033 0)
(-0.279047 -0.184793 0)
(-0.274637 -0.163799 0)
(-0.26512 -0.146567 0)
(-0.253003 -0.131621 0)
(-0.239881 -0.117937 0)
(-0.226665 -0.105127 0)
(-0.213935 -0.0931428 0)
(-0.202125 -0.0819991 0)
(-0.191523 -0.0717018 0)
(-0.182287 -0.062209 0)
(-0.174463 -0.0534388 0)
(-0.168026 -0.0452685 0)
(-0.162898 -0.0375772 0)
(-0.158979 -0.0302767 0)
(-0.156216 -0.0232929 0)
(-0.154531 -0.0165113 0)
(-0.153626 -0.00973582 0)
(-0.0503964 -0.377479 0)
(-0.105987 -0.326548 0)
(-0.167656 -0.281401 0)
(-0.208039 -0.247564 0)
(-0.235787 -0.221376 0)
(-0.250889 -0.200704 0)
(-0.256076 -0.183826 0)
(-0.25398 -0.16932 0)
(-0.247077 -0.156017 0)
(-0.237319 -0.143101 0)
(-0.226091 -0.130228 0)
(-0.214371 -0.11742 0)
(-0.202897 -0.10485 0)
(-0.192202 -0.0927157 0)
(-0.182617 -0.0811876 0)
(-0.174307 -0.0703633 0)
(-0.167315 -0.0602509 0)
(-0.161603 -0.050793 0)
(-0.157082 -0.0418983 0)
(-0.153633 -0.0334865 0)
(-0.15119 -0.0255048 0)
(-0.149705 -0.0178722 0)
(-0.148917 -0.0103809 0)
(-0.0457342 -0.306919 0)
(-0.0947432 -0.266667 0)
(-0.15085 -0.234264 0)
(-0.187827 -0.213664 0)
(-0.213976 -0.199857 0)
(-0.229063 -0.189773 0)
(-0.23537 -0.181224 0)
(-0.234995 -0.172723 0)
(-0.229904 -0.16338 0)
(-0.221722 -0.152832 0)
(-0.21175 -0.14113 0)
(-0.201054 -0.128563 0)
(-0.190486 -0.11553 0)
(-0.180661 -0.102461 0)
(-0.171944 -0.0897413 0)
(-0.164492 -0.0776355 0)
(-0.158319 -0.0662593 0)
(-0.153361 -0.0556113 0)
(-0.149501 -0.0456283 0)
(-0.146594 -0.0362361 0)
(-0.144561 -0.0273895 0)
(-0.143378 -0.019025 0)
(-0.142811 -0.0109113 0)
(-0.0411754 -0.243956 0)
(-0.0839095 -0.212986 0)
(-0.134739 -0.191397 0)
(-0.168618 -0.182119 0)
(-0.193398 -0.179082 0)
(-0.208467 -0.178387 0)
(-0.215614 -0.177436 0)
(-0.216465 -0.174671 0)
(-0.212628 -0.169365 0)
(-0.205548 -0.161417 0)
(-0.196502 -0.151102 0)
(-0.186611 -0.138902 0)
(-0.176796 -0.125446 0)
(-0.167727 -0.111431 0)
(-0.159797 -0.0974932 0)
(-0.153159 -0.0840935 0)
(-0.147801 -0.071477 0)
(-0.14362 -0.0597055 0)
(-0.140465 -0.0487264 0)
(-0.138159 -0.0384627 0)
(-0.13661 -0.0288669 0)
(-0.135807 -0.0198702 0)
(-0.135526 -0.0112184 0)
(-0.0367783 -0.188287 0)
(-0.0734423 -0.165315 0)
(-0.118972 -0.152685 0)
(-0.149615 -0.152828 0)
(-0.172814 -0.15906 0)
(-0.187523 -0.166749 0)
(-0.195052 -0.172852 0)
(-0.196643 -0.175629 0)
(-0.193682 -0.174373 0)
(-0.187516 -0.169113 0)
(-0.179389 -0.160263 0)
(-0.170407 -0.148475 0)
(-0.161487 -0.134603 0)
(-0.153301 -0.119619 0)
(-0.146255 -0.104429 0)
(-0.140504 -0.0897204 0)
(-0.136019 -0.0758814 0)
(-0.132664 -0.0630405 0)
(-0.130257 -0.05115 0)
(-0.128609 -0.040116 0)
(-0.127613 -0.0298747 0)
(-0.127258 -0.0203368 0)
(-0.127324 -0.0112277 0)
(-0.0325394 -0.139636 0)
(-0.0632713 -0.123662 0)
(-0.103263 -0.118398 0)
(-0.130167 -0.126203 0)
(-0.151192 -0.140274 0)
(-0.164905 -0.155381 0)
(-0.172211 -0.167979 0)
(-0.174069 -0.175989 0)
(-0.171745 -0.178587 0)
(-0.16653 -0.175878 0)
(-0.159579 -0.16841 0)
(-0.151883 -0.157006 0)
(-0.144249 -0.142735 0)
(-0.137282 -0.126812 0)
(-0.131369 -0.110402 0)
(-0.126673 -0.0944133 0)
(-0.123173 -0.079389 0)
(-0.120722 -0.0655351 0)
(-0.11913 -0.0528203 0)
(-0.1182 -0.0411237 0)
(-0.11781 -0.0303419 0)
(-0.117954 -0.0203621 0)
(-0.11841 -0.0108848 0)
(-0.0283894 -0.0977914 0)
(-0.0533224 -0.0881224 0)
(-0.0874819 -0.0889723 0)
(-0.10999 -0.102912 0)
(-0.128058 -0.123437 0)
(-0.140014 -0.144946 0)
(-0.146484 -0.163333 0)
(-0.148204 -0.176053 0)
(-0.146405 -0.182022 0)
(-0.142327 -0.181459 0)
(-0.136958 -0.175121 0)
(-0.131053 -0.16402 0)
(-0.125198 -0.149398 0)
(-0.119862 -0.132655 0)
(-0.115382 -0.115154 0)
(-0.111935 -0.0980004 0)
(-0.109532 -0.0818934 0)
(-0.108058 -0.067123 0)
(-0.107335 -0.0536851 0)
(-0.107158 -0.0414331 0)
(-0.107412 -0.0302163 0)
(-0.108093 -0.0198975 0)
(-0.108964 -0.0101482 0)
(-0.0241962 -0.0626277 0)
(-0.0434391 -0.0587998 0)
(-0.0715516 -0.0648836 0)
(-0.0891057 -0.0837025 0)
(-0.103505 -0.109342 0)
(-0.113049 -0.136093 0)
(-0.118237 -0.159341 0)
(-0.119574 -0.175998 0)
(-0.11832 -0.184566 0)
(-0.115655 -0.185486 0)
(-0.112298 -0.179887 0)
(-0.108667 -0.168982 0)
(-0.105036 -0.154127 0)
(-0.101677 -0.136796 0)
(-0.098854 -0.118451 0)
(-0.0967716 -0.100346 0)
(-0.0955078 -0.0833237 0)
(-0.0950105 -0.0677765 0)
(-0.0951394 -0.0537321 0)
(-0.0957116 -0.0410305 0)
(-0.0966123 -0.0294879 0)
(-0.0978298 -0.0189266 0)
(-0.0991165 -0.00900112 0)
(-0.019806 -0.0341438 0)
(-0.0334191 -0.0357412 0)
(-0.0553577 -0.0463803 0)
(-0.0676361 -0.0690842 0)
(-0.0779503 -0.0985839 0)
(-0.0847638 -0.129238 0)
(-0.0885607 -0.15623 0)
(-0.0894746 -0.175853 0)
(-0.0889383 -0.186005 0)
(-0.087977 -0.187602 0)
(-0.0869628 -0.18226 0)
(-0.085948 -0.17145 0)
(-0.0848399 -0.156557 0)
(-0.0836748 -0.13899 0)
(-0.0826066 -0.12018 0)
(-0.0818699 -0.101434 0)
(-0.0816512 -0.0837166 0)
(-0.0820071 -0.0675395 0)
(-0.0828708 -0.0530042 0)
(-0.0841064 -0.0399551 0)
(-0.0855958 -0.0281744 0)
(-0.0873121 -0.0174585 0)
(-0.0889897 -0.00745421 0)
(-0.0150534 -0.0125155 0)
(-0.0230554 -0.0189889 0)
(-0.0387377 -0.0335681 0)
(-0.0456705 -0.05925 0)
(-0.0518838 -0.0913571 0)
(-0.0561422 -0.124363 0)
(-0.058966 -0.153885 0)
(-0.059722 -0.17549 0)
(-0.0601672 -0.186082 0)
(-0.0611328 -0.18755 0)
(-0.0625813 -0.181999 0)
(-0.0642544 -0.171203 0)
(-0.0657325 -0.156507 0)
(-0.0668185 -0.139137 0)
(-0.0674936 -0.12035 0)
(-0.0679784 -0.101385 0)
(-0.0685813 -0.0832575 0)
(-0.0695365 -0.066603 0)
(-0.070899 -0.051653 0)
(-0.0726059 -0.0383123 0)
(-0.0745487 -0.0263518 0)
(-0.0766762 -0.0155434 0)
(-0.0786813 -0.00554135 0)
(-0.00983367 0.00194156 0)
(-0.0123504 -0.00857942 0)
(-0.021799 -0.0264043 0)
(-0.0235681 -0.054064 0)
(-0.0259596 -0.0873946 0)
(-0.028279 -0.120923 0)
(-0.0311147 -0.15169 0)
(-0.0324227 -0.174548 0)
(-0.0342613 -0.184595 0)
(-0.0372306 -0.18527 0)
(-0.0409742 -0.179174 0)
(-0.0450383 -0.168349 0)
(-0.0488151 -0.154057 0)
(-0.051953 -0.137305 0)
(-0.0542191 -0.119083 0)
(-0.0557414 -0.10041 0)
(-0.0568839 -0.0822343 0)
(-0.058073 -0.0652875 0)
(-0.0595831 -0.049957 0)
(-0.0614732 -0.0363073 0)
(-0.0636603 -0.0241625 0)
(-0.0660526 -0.0132765 0)
(-0.0682891 -0.00332287 0)
(-0.00441443 0.00866891 0)
(-0.00195584 -0.00425019 0)
(-0.00534534 -0.0242851 0)
(-0.00248901 -0.0531528 0)
(-0.00148002 -0.0860763 0)
(-0.00264215 -0.118051 0)
(-0.00666614 -0.148634 0)
(-0.00962849 -0.172349 0)
(-0.0134796 -0.181354 0)
(-0.0184182 -0.180915 0)
(-0.0240106 -0.174212 0)
(-0.0298035 -0.163388 0)
(-0.0351841 -0.149624 0)
(-0.0398042 -0.133785 0)
(-0.0432582 -0.116602 0)
(-0.0455268 -0.0987639 0)
(-0.0469265 -0.0809864 0)
(-0.0479954 -0.0639767 0)
(-0.0492548 -0.0482911 0)
(-0.0509504 -0.034247 0)
(-0.0530931 -0.0218215 0)
(-0.0555513 -0.0108083 0)
(-0.0578866 -0.000909496 0)
(0.000405166 0.00773583 0)
(0.00682475 -0.00558184 0)