/*--------------------------------*- C++ -*----------------------------------*\
| =========                 |                                                 |
| \\      /  F ield         | OpenFOAM: The Open Source CFD Toolbox           |
|  \\    /   O peration     | Version:  2312                                  |
|   \\  /    A nd           | Website:  www.openfoam.com                      |
|    \\/     M anipulation  |                                                 |
\*---------------------------------------------------------------------------*/
FoamFile
{
    version     2.0;
    format      ascii;
    arch        "LSB;label=32;scalar=64";
    class       volScalarField;
    location    "1.6";
    object      alpha.water;
}
// * * * * * * * * * * * * * * * * * * * * * * * * * * * * * * * * * * * * * //

dimensions      [0 0 0 0 0 0 0];

internalField   nonuniform List<scalar> 
2268
(
5.91065e-10
2.66953e-10
9.88892e-11
4.81485e-11
3.39131e-11
2.87244e-11
2.74333e-11
2.69506e-11
2.66089e-11
2.6078e-11
2.56857e-11
2.5797e-11
2.60398e-11
2.67999e-11
2.84255e-11
3.19676e-11
3.78675e-11
4.89072e-11
7.08458e-11
1.11097e-10
1.98469e-10
2.46136e-10
3.27448e-10
1.07107e-09
6.89937e-10
3.0307e-10
1.3656e-10
9.15543e-11
5.83757e-11
4.89558e-11
4.53416e-11
4.35834e-11
4.72525e-11
4.55457e-11
4.49928e-11
4.5389e-11
4.56039e-11
4.87616e-11
5.47122e-11
6.61971e-11
8.9265e-11
1.59204e-10
2.34361e-10
6.40059e-10
1.7703e-09
1.93365e-09
7.95427e-10
8.28107e-10
5.35227e-10
3.1775e-10
1.81825e-10
1.50562e-10
9.43319e-11
7.79884e-11
7.18684e-11
8.6293e-11
6.19321e-11
4.86219e-11
5.62944e-11
4.45673e-11
5.20779e-11
6.13211e-11
7.77384e-11
1.17709e-10
1.96087e-10
3.89758e-10
9.30036e-10
2.40508e-09
2.56542e-09
2.09823e-09
2.78663e-09
6.41617e-11
6.40781e-11
6.3995e-11
6.39121e-11
4.01589e-11
3.46911e-11
3.33448e-11
3.37197e-11
3.31336e-11
3.31281e-11
3.31329e-11
3.31281e-11
3.31336e-11
5.30333e-11
7.14059e-11
6.50107e-11
9.83822e-11
1.96237e-10
6.08162e-10
2.25644e-09
2.54355e-09
0.0691319
0.0389726
0.0143729
0.00116824
1.24141e-09
3.36794e-11
3.24733e-11
3.23977e-11
3.24135e-11
0.0218541
0.0451914
0.0518468
0.0409752
0.0196773
0.00232647
5.30505e-11
5.78159e-10
2.84889e-11
2.85013e-11
5.32342e-11
6.7176e-10
1.29221e-09
2.00485e-09
0.32844
0.336186
0.385674
0.402693
0.368414
0.314624
0.311282
0.396983
0.550178
0.675872
0.739909
0.756745
0.729052
0.65144
0.503765
0.304048
0.118473
0.000999947
2.84543e-11
1.4007e-07
1.6859e-08
3.57396e-11
1.18267e-09
0.090217
0.155267
0.478274
0.82542
0.93409
0.934804
0.96083
0.985911
0.997178
0.997945
0.998266
0.999308
0.999308
0.9993
0.999049
0.969783
0.864787
0.651833
0.255346
1.35573e-19
7.69855e-20
1.36307e-19
2.20844e-10
3.57518e-08
3.57779e-08
0.00973849
0.00727004
0.558372
0.979128
0.995988
0.996285
0.996303
0.998962
0.998966
0.9993
0.999255
0.9993
0.999312
0.999415
0.999674
0.999917
0.948814
0.588091
0.0905443
0.00248598
2.21758e-10
0.0816773
0.142272
0.11885
0.0645553
0.0418184
0.0330924
0.0329734
0.0329306
0.0326237
0.0390014
0.0404057
0.0424741
0.0424295
0.0379496
0.0328081
0.0280284
0.0280719
0.0226535
0.0170039
0.0170601
0.0405298
0.0924118
0.143141
0.210031
0.337051
0.267646
0.0442702
0.0215256
0.036003
0.0267657
0.0259181
0.00940521
0.0087504
0.014539
0.0171509
0.0172637
0.0243702
0.0190141
0.0121175
0.0121102
0.0511984
0.121339
0.149668
0.245776
0.461043
0.487031
0.49367
0.384222
0.135964
0.0233288
0.00875149
0.00874999
0.0718984
0.338142
0.513095
0.503894
0.409728
0.0121139
0.0121123
0.183924
0.209182
0.114895
0.114626
0.122999
0.118575
0.341657
0.430279
0.430677
0.131132
0.012238
0.056362
0.152202
0.371741
0.816351
0.896109
0.653751
0.221401
0.159092
0.377805
0.3451
0.137892
0.148555
0.204333
0.325355
0.294186
0.334221
0.377336
0.146362
0.0121013
0.110806
0.35472
0.601499
0.895436
0.896107
0.695737
0.5663
0.81056
0.794883
0.644076
0.415788
0.271717
0.559655
0.692386
0.65603
0.530401
0.430054
0.224699
0.0436831
0.0396286
0.519203
0.891628
0.894018
0.890483
0.887799
0.866766
0.99525
0.974881
0.794789
0.685215
0.595299
0.58711
0.670655
0.80483
0.844325
0.861427
0.571837
0.177777
0.066314
0.563339
0.89072
0.887131
0.890132
0.890155
0.940922
0.994398
0.999846
0.995879
0.949709
0.888046
0.726794
0.702294
0.711741
0.902614
0.998338
0.914527
0.333419
0.0659147
0.338199
0.561332
0.609806
0.846272
0.890141
2.94349e-07
3.57841e-08
7.36447e-06
3.62869e-08
0.0169365
0.332078
0.760357
0.847558
0.896751
0.951476
0.998963
0.998276
0.997315
0.999693
0.999695
0.999697
0.999791
0.999995
0.99999
0.999934
0.878436
0.623764
0.325823
1.26473e-06
2.32897e-06
2.6755e-07
3.61236e-08
0.0127374
0.0150874
0.066001
0.112871
0.192206
0.331989
0.699167
0.949379
0.9973
0.966191
0.936132
0.933144
0.999951
0.999948
0.999907
0.999899
0.999789
0.999113
0.997897
2.43788e-06
4.19575e-05
1.53952e-05
3.62869e-08
0.000557068
0.00440852
0.00201719
0.00186365
1.59843e-05
1.4446e-05
0.0394188
0.242123
0.69248
0.926685
0.887738
0.704443
0.923668
0.922105
0.781577
0.733553
0.71999
0.743906
0.775654
6.45721e-06
6.47935e-05
6.20925e-05
4.01845e-05
9.35085e-08
1.33704e-07
8.37499e-08
3.89502e-08
0.000101309
0.000352039
0.000356281
0.0003588
0.0286204
0.319124
0.778335
0.730663
0.615219
0.5005
0.220171
0.0523759
0.0454915
0.0360313
0.047609
5.19306e-06
1.93678e-05
5.30666e-05
2.24173e-05
2.62462e-07
2.62574e-06
1.00841e-05
3.85796e-08
0.000188786
0.000685881
0.000548888
0.000369522
3.06358e-05
3.08275e-05
0.266046
0.531052
0.519223
0.322854
0.0444548
0.00268092
0.0030713
0.00540936
0.00219992
1.07418e-05
2.55022e-06
1.63984e-06
1.30595e-06
2.52236e-06
1.02868e-05
8.96336e-06
0.000152286
0.00121107
0.00068947
0.00115058
0.00040337
5.34806e-05
3.06064e-05
0.0279496
0.0912543
0.135952
0.153691
0.0966013
0.0398912
0.0539106
0.0599155
0.0378661
1.38381e-05
1.30474e-05
3.20337e-06
2.43176e-06
2.25433e-05
2.01125e-05
4.43086e-06
0.000621421
0.00410975
0.00416639
0.00182863
9.83342e-05
3.0689e-05
3.08292e-05
0.00150675
0.0184782
0.0297702
0.031045
0.0360552
0.0395211
0.0542798
0.0600921
0.0568525
4.03564e-05
3.92247e-05
2.07449e-05
2.09287e-05
3.0426e-05
1.65705e-05
5.11381e-06
0.00018534
0.00328625
0.00666048
0.00847585
0.0085671
0.0184323
0.0407061
0.0408194
0.0337158
0.00925085
0.000844453
0.00067197
0.00430838
0.0231897
0.0245175
0.0104968
4.23392e-05
4.23413e-05
2.90826e-05
1.68321e-05
3.04365e-05
1.29308e-05
2.07605e-08
2.06825e-08
2.07478e-08
8.71727e-05
0.00362293
0.0116689
0.0145168
0.0169716
0.0137707
0.00419439
0.0018743
0.00186644
0.00066455
2.99112e-06
3.14108e-09
2.89278e-09
3.14091e-09
4.23413e-05
3.19001e-05
3.46426e-06
4.18636e-06
1.56557e-05
1.02782e-05
6.85336e-06
1.07479e-06
2.2777e-08
-2.14688e-09
-9.79958e-09
-3.51548e-24
7.83651e-24
2.96589e-22
3.21609e-21
0.000699059
0.00165867
0.000951699
4.88923e-05
6.51245e-09
6.37514e-09
1.16928e-08
6.71526e-08
3.26984e-05
7.77467e-06
2.63333e-06
1.44293e-06
1.77862e-06
2.5157e-06
1.98451e-06
8.45008e-07
2.14858e-07
1.6965e-15
1.08663e-06
3.01403e-06
2.83132e-06
0.000103961
0.00031121
0.000400183
6.58378e-05
2.525e-08
3.23897e-09
6.96524e-09
1.9965e-08
8.75351e-08
8.83864e-08
8.77439e-06
4.89059e-06
4.1258e-06
2.70537e-06
1.21737e-06
1.69131e-06
1.94658e-06
6.40649e-07
1.74796e-07
2.76094e-08
8.0711e-10
8.58662e-07
1.20395e-06
2.81371e-08
1.44818e-09
2.31448e-10
2.86093e-10
4.74493e-10
3.09129e-09
1.21394e-08
1.34826e-08
4.13778e-08
2.64589e-08
1.6535e-06
1.45436e-06
9.12702e-07
8.64828e-07
6.33837e-07
6.63622e-07
8.96365e-07
9.26766e-07
6.3409e-07
1.22185e-07
1.78147e-09
2.26835e-17
2.78343e-22
1.1589e-16
4.50619e-10
2.57342e-09
3.46563e-09
3.91293e-09
4.00742e-09
1.30214e-08
6.62297e-09
3.09052e-09
4.1727e-09
1.69786e-07
4.02062e-08
4.45644e-08
3.92038e-08
3.94211e-08
5.25511e-08
2.04741e-07
3.96728e-07
3.19981e-07
1.60676e-07
2.57775e-08
-4.48478e-13
3.36905e-10
2.89566e-10
2.03422e-10
2.8162e-10
8.51081e-10
2.38929e-09
3.735e-09
5.57686e-09
6.81364e-09
8.33557e-09
7.48861e-09
4.68918e-08
4.01334e-08
4.02062e-08
6.82196e-08
9.67909e-08
9.01602e-08
2.86611e-08
1.38228e-08
6.81764e-10
6.7756e-10
6.81634e-10
7.26913e-10
5.81823e-10
4.16664e-10
4.16256e-10
7.48173e-10
1.48224e-09
2.74888e-09
3.80926e-09
4.34835e-09
4.61406e-09
5.60371e-09
5.60169e-09
7.16718e-08
4.00735e-08
6.14968e-08
1.30175e-07
1.01759e-07
1.32409e-09
1.33346e-09
1.27493e-09
1.2711e-09
1.05958e-09
7.65365e-10
5.70008e-10
4.19007e-10
3.4397e-10
3.86298e-10
6.36694e-10
1.07155e-09
1.58256e-09
1.98652e-09
2.11751e-09
2.81112e-09
5.20073e-09
5.448e-09
1.38783e-07
3.06832e-08
2.69046e-08
3.81365e-08
4.45256e-09
2.70768e-09
2.4545e-09
1.95506e-09
1.30441e-09
8.59188e-10
5.41326e-10
3.43968e-10
2.54375e-10
2.15679e-10
2.18128e-10
2.63113e-10
4.09867e-10
6.64725e-10
1.16837e-09
1.69015e-09
2.31854e-09
2.80228e-09
3.28303e-09
9.74735e-07
4.90804e-09
4.85611e-09
4.80318e-09
4.55693e-09
3.34344e-09
2.14249e-09
1.40853e-09
8.44451e-10
4.8499e-10
2.75699e-10
1.87688e-10
1.44902e-10
1.23287e-10
1.15387e-10
1.29033e-10
1.75078e-10
2.64407e-10
4.06724e-10
5.88584e-10
8.54175e-10
9.2013e-10
1.65032e-10
1.26716e-06
5.32669e-09
5.30244e-09
5.9876e-09
5.54218e-09
2.35309e-09
7.74906e-10
4.94401e-10
3.96843e-10
2.34909e-10
1.27303e-10
9.37782e-11
7.68592e-11
5.92015e-11
4.86841e-11
4.713e-11
5.72884e-11
8.60449e-11
1.39951e-10
1.9539e-10
1.77929e-10
6.84301e-11
6.8302e-11
1.3155e-06
6.19495e-07
6.11411e-12
5.40871e-09
5.78343e-09
2.40263e-09
3.53621e-10
2.9965e-10
2.32898e-10
1.52021e-10
9.89357e-11
6.52904e-11
4.33092e-11
2.85838e-11
2.02147e-11
1.70882e-11
1.89951e-11
2.67093e-11
4.10091e-11
5.54909e-11
7.62043e-11
6.95227e-11
5.45189e-11
1.36563e-06
9.10339e-07
5.84716e-12
3.39964e-09
5.10214e-09
9.87589e-10
3.56879e-10
3.29287e-10
2.25835e-10
1.55177e-10
9.42797e-11
5.50734e-11
3.10386e-11
1.74409e-11
1.0049e-11
6.45793e-12
5.35779e-12
6.28485e-12
9.44954e-12
1.42124e-11
1.83512e-11
1.91947e-11
2.3804e-11
1.36937e-06
1.6398e-06
6.11412e-12
9.06253e-11
1.5027e-09
6.76147e-10
5.17067e-10
4.94831e-10
2.64498e-10
1.72268e-10
1.00457e-10
5.45222e-11
2.83382e-11
1.43412e-11
7.13207e-12
3.58181e-12
1.93716e-12
1.36452e-12
1.56108e-12
2.0748e-12
3.99379e-12
5.66919e-12
7.20936e-12
8.84819e-07
1.72073e-06
1.03901e-07
3.24093e-14
3.3518e-10
8.42611e-10
9.31347e-10
5.86272e-10
3.06952e-10
2.00422e-10
1.14982e-10
5.84625e-11
2.84375e-11
1.3667e-11
6.35122e-12
2.85764e-12
1.28155e-12
4.78393e-13
3.05547e-13
3.93388e-13
6.46344e-13
8.42841e-13
1.95025e-12
4.04632e-07
1.73311e-06
7.06116e-07
6.90246e-14
4.98359e-10
1.47787e-09
1.9555e-09
6.91285e-10
3.60983e-10
2.29462e-10
1.23178e-10
5.96423e-11
2.84125e-11
1.32019e-11
5.92263e-12
2.53979e-12
1.03226e-12
3.98492e-13
9.72823e-14
5.76006e-14
1.08297e-13
2.64528e-13
4.739e-13
1.62361e-07
1.57556e-06
2.98711e-06
3.2406e-14
1.24051e-10
2.29458e-09
3.6376e-09
7.66676e-10
4.20565e-10
2.55574e-10
1.28183e-10
5.91889e-11
2.72637e-11
1.23002e-11
5.34634e-12
2.21455e-12
8.66414e-13
3.24614e-13
7.54249e-14
1.93134e-14
1.86746e-14
3.31388e-14
1.1454e-13
1.41756e-07
1.53361e-06
3.05073e-06
7.09543e-07
9.89355e-11
2.81199e-09
4.63249e-09
9.5061e-10
4.89157e-10
2.81417e-10
1.28965e-10
5.71277e-11
2.51203e-11
1.08102e-11
4.59653e-12
1.83866e-12
6.93272e-13
2.4122e-13
7.34253e-14
1.19311e-14
4.78273e-15
9.54094e-15
2.47985e-14
2.13645e-07
1.25497e-06
3.05041e-06
2.75536e-06
2.09047e-08
2.80779e-09
4.6225e-09
1.17425e-09
5.81258e-10
3.02377e-10
1.28253e-10
5.24574e-11
2.19008e-11
9.25426e-12
3.68276e-12
1.4431e-12
5.24112e-13
1.76354e-13
5.06287e-14
1.07134e-14
1.71247e-15
1.29411e-15
4.51963e-15
6.96788e-07
7.71221e-07
2.72134e-06
1.82529e-06
1.65619e-07
5.71649e-09
3.14116e-09
1.35991e-09
6.74531e-10
3.16526e-10
1.2592e-10
4.82177e-11
1.86292e-11
7.1588e-12
2.81994e-12
1.03917e-12
3.67194e-13
1.19243e-13
3.17491e-14
7.84395e-15
1.16732e-15
3.6985e-16
7.27606e-16
7.11631e-07
1.72044e-07
5.40917e-07
1.24537e-07
9.08044e-08
8.27249e-09
1.88939e-09
1.44412e-09
7.59814e-10
3.42455e-10
1.25861e-10
4.32946e-11
1.5373e-11
5.60429e-12
1.997e-12
7.33651e-13
2.38785e-13
7.38358e-14
1.94448e-14
4.02574e-15
8.93624e-16
1.12495e-16
1.02106e-16
7.11675e-07
8.16624e-08
5.35644e-09
1.59858e-08
4.9227e-09
4.30157e-09
2.30563e-09
1.34892e-09
8.10997e-10
3.93315e-10
1.31567e-10
3.95356e-11
1.23498e-11
4.13547e-12
1.39162e-12
4.46918e-13
1.449e-13
4.17692e-14
1.09003e-14
2.20942e-15
4.17907e-16
4.06636e-17
1.73338e-17
6.26186e-07
8.74179e-08
5.25166e-09
3.29076e-09
3.84265e-09
2.91461e-09
2.47095e-09
1.35437e-09
8.21727e-10
4.38664e-10
1.59504e-10
3.82435e-11
9.75052e-12
2.90364e-12
9.03696e-13
2.75202e-13
8.04061e-14
2.20213e-14
5.28946e-15
9.07756e-16
1.87903e-16
1.87017e-17
2.58615e-18
5.99372e-07
9.56196e-08
1.00062e-08
3.28942e-09
3.28834e-09
5.34848e-09
3.46207e-09
1.37906e-09
8.48411e-10
4.61197e-10
1.90999e-10
4.6055e-11
8.33903e-12
1.96763e-12
5.3512e-13
1.53722e-13
4.13681e-14
1.03036e-14
2.23792e-15
4.06818e-16
6.10801e-17
6.97047e-18
7.46191e-19
1.01434e-06
8.70465e-08
3.95632e-08
1.68287e-08
2.03987e-08
1.81303e-08
4.59193e-09
1.31444e-09
9.08247e-10
5.00414e-10
2.1211e-10
5.64644e-11
9.09422e-12
1.38079e-12
3.16076e-13
7.94393e-14
1.86127e-14
4.17515e-15
8.77039e-16
1.19395e-16
2.08385e-17
2.28794e-18
1.29189e-19
1.09826e-06
2.82041e-08
2.8195e-08
1.87817e-08
2.53818e-08
1.8669e-08
5.13563e-09
2.04516e-09
1.02806e-09
5.14183e-10
2.20404e-10
6.09088e-11
1.09224e-11
1.28092e-12
1.78624e-13
3.80531e-14
8.34445e-15
1.54918e-15
2.81525e-16
4.93384e-17
6.13052e-18
6.38268e-19
5.33892e-20
1.23047e-06
7.49967e-07
1.26408e-08
1.26075e-08
1.6044e-08
8.12814e-09
4.63967e-09
2.0951e-09
1.06742e-09
5.25378e-10
2.14961e-10
6.0216e-11
1.15222e-11
1.44427e-12
1.32599e-13
1.83392e-14
3.3841e-15
6.02453e-16
9.89882e-17
1.27477e-17
1.6733e-18
2.03808e-19
1.03107e-20
8.14155e-07
1.1702e-06
8.85251e-07
2.03859e-07
1.59385e-09
1.58741e-09
1.95243e-09
1.71517e-09
1.02979e-09
5.02597e-10
1.85535e-10
5.16535e-11
1.05037e-11
1.46747e-12
1.34226e-13
1.04469e-14
1.45846e-15
2.1999e-16
3.25827e-17
4.33417e-18
4.56524e-19
4.57628e-20
2.87628e-21
6.24877e-08
1.12686e-06
1.12585e-06
1.06286e-06
1.434e-07
1.38791e-09
1.49899e-09
1.32619e-09
7.88389e-10
3.51324e-10
1.25083e-10
3.48857e-11
7.39176e-12
1.14486e-12
1.22234e-13
8.79639e-15
6.47246e-16
7.91476e-17
1.03329e-17
1.059e-18
1.04572e-19
9.0393e-21
5.12925e-22
4.67105e-08
2.03389e-07
6.31074e-07
3.96889e-07
6.47807e-08
1.3677e-09
1.30285e-09
9.06021e-10
4.49393e-10
1.84356e-10
6.279e-11
1.72862e-11
3.7379e-12
6.21061e-13
7.75464e-14
6.90877e-15
4.37044e-16
2.88117e-17
2.93896e-18
2.8473e-19
2.2513e-20
1.52863e-21
8.20971e-23
1.31008e-08
8.00182e-09
8.11797e-09
6.11497e-09
6.71879e-09
3.19818e-09
1.19944e-09
4.87694e-10
1.90077e-10
6.81412e-11
2.10647e-11
5.5088e-12
1.18797e-12
2.11371e-13
2.99424e-14
3.47926e-15
2.9745e-16
1.77242e-17
1.05027e-18
7.97391e-20
5.06549e-21
2.67683e-22
1.22998e-23
2.55693e-09
8.10122e-09
8.11369e-09
6.12058e-09
2.44495e-09
9.96582e-10
4.04741e-10
1.64135e-10
5.93131e-11
1.84168e-11
4.79345e-12
1.11095e-12
2.24284e-13
4.12243e-14
6.84927e-15
1.00421e-15
1.23943e-16
1.14401e-17
6.416e-19
3.24407e-20
1.41044e-21
5.82405e-23
2.40493e-24
8.08251e-10
1.86033e-09
1.90032e-09
1.12916e-09
5.34608e-10
2.34977e-10
9.51018e-11
3.35532e-11
9.93197e-12
2.52866e-12
5.7003e-13
1.18225e-13
2.3584e-14
4.64324e-15
8.74635e-16
1.57173e-16
2.58249e-17
3.60099e-18
3.9003e-19
2.74979e-20
7.91767e-22
2.52489e-23
5.23192e-25
1.78634e-10
2.81224e-10
2.50594e-10
1.44725e-10
7.21179e-11
2.80276e-11
8.62759e-12
2.32504e-12
5.60129e-13
1.23836e-13
2.60528e-14
5.3496e-15
1.11375e-15
2.33512e-16
5.15366e-17
1.06613e-17
2.02134e-18
3.55277e-19
5.51042e-20
7.11844e-21
6.90436e-22
4.0244e-23
5.81209e-25
0.306824
0.320215
0.303649
0.301503
0.996904
0.995884
0.994634
0.993314
0.811121
0.834224
0.850552
0.872404
0.0669422
0.0779117
0.0937495
0.153578
0.00156936
0.0011627
0.000457944
1.40833e-21
0.00576767
0.00217444
0.00044372
-3.72496e-21
0.0199114
0.00352104
1.27161e-20
-2.65751e-16
0.000346788
6.01687e-08
6.04734e-08
-2.80897e-15
3.03225e-09
5.47316e-08
1.4967e-07
4.35468e-07
1.05916e-07
1.0551e-07
1.94292e-08
2.01006e-08
7.53017e-08
9.23639e-09
9.64909e-09
2.99254e-06
8.0596e-09
7.86241e-09
6.8306e-06
1.80624e-05
1.91626e-08
4.52781e-07
4.95415e-05
0.000279714
1.88151e-09
4.4029e-07
0.000202109
0.000354042
1.82085e-09
1.07671e-09
6.05919e-05
0.000290408
3.03276e-09
9.78452e-10
8.29238e-11
8.31408e-11
7.26486e-10
1.86126e-10
9.94403e-11
8.30479e-11
1.10695e-10
1.19774e-10
1.19471e-10
1.02587e-10
1.15021e-10
1.37025e-10
1.50207e-10
1.5428e-10
5.80926e-11
7.3427e-11
8.58378e-11
9.48966e-11
2.51523e-11
2.80195e-11
3.94905e-11
4.60056e-11
1.15247e-11
1.57177e-11
2.14578e-11
3.34041e-11
3.19894e-12
4.76192e-12
8.8892e-12
1.11898e-11
1.04665e-12
1.6142e-12
2.37804e-12
3.77178e-12
2.28596e-13
3.53507e-13
7.12101e-13
8.82617e-13
6.31913e-14
1.02183e-13
1.49328e-13
2.61123e-13
1.13427e-14
1.86257e-14
3.60816e-14
5.12281e-14
2.12575e-15
3.84748e-15
6.51317e-15
1.35048e-14
2.86971e-16
5.22515e-16
1.21413e-15
1.73129e-15
3.63065e-17
7.39603e-17
1.35464e-16
3.17362e-16
3.34777e-18
7.19563e-18
1.92284e-17
2.96574e-17
2.99048e-19
7.12858e-19
1.46139e-18
4.27001e-18
2.30444e-20
4.93401e-20
1.78729e-19
3.89636e-19
2.42165e-21
4.52907e-21
1.13504e-20
3.43016e-20
2.22996e-22
1.9414e-22
8.25793e-22
2.05041e-21
4.20869e-23
1.76537e-23
4.21443e-23
1.46585e-22
9.01024e-24
1.61312e-24
2.3857e-24
8.31747e-24
1.88892e-24
1.72416e-25
1.03238e-25
4.56113e-25
3.98898e-25
3.05305e-26
7.65565e-27
1.58648e-26
8.46996e-26
6.17801e-27
8.10014e-28
9.22441e-28
1.8894e-26
1.33549e-27
1.29841e-28
6.65847e-29
6.0355e-27
3.18395e-28
2.48465e-29
6.30775e-30
0.717021
0.999179
0.999908
0.999983
0.999989
0.999989
0.996897
0.994686
0.989307
0.990176
0.998951
0.97963
0.336446
0.118478
0.261379
0.623034
0.557678
0.377306
0.743724
0.992157
0.989944
0.99664
0.999851
0.99997
0.999989
0.999976
0.999965
0.999963
0.999963
0.999963
0.999212
0.726199
0.159407
0.37184
0.665796
0.667498
0.18724
0.152054
0.928429
0.968385
0.974361
0.966848
0.972395
0.993316
0.999967
0.998366
0.99441
0.994904
0.999958
0.999958
0.971722
0.444681
0.377992
0.602534
0.70403
0.252588
0.079305
0.264555
0.335212
0.39194
0.466372
0.606601
0.807217
0.97242
0.992368
0.944179
0.872792
0.885517
0.978621
0.988792
0.780913
0.397333
0.537893
0.726397
0.3591
0.0770996
-6.27431e-08
-3.41442e-08
-9.79753e-09
4.66694e-25
1.33815e-15
0.0366193
0.297625
0.599203
0.552285
0.519586
0.665273
0.949347
0.988796
0.988317
0.599725
0.66496
0.726162
0.410193
0.0640649
1.0884e-11
2.39442e-16
-1.42064e-09
2.76768e-07
1.14031e-06
4.26372e-17
5.23266e-17
0.00633707
0.0390042
0.0579463
0.0895172
0.304547
0.712085
0.84316
0.821074
0.818572
0.721392
0.421493
0.0197125
1.58558e-07
4.0808e-07
3.16753e-08
1.56156e-09
3.6373e-05
7.1336e-05
2.57936e-05
2.46601e-05
0.00109952
0.00409
0.023054
0.0371604
0.0688134
0.212673
0.692714
0.779834
0.686547
0.316049
0.00302404
1.0416e-06
6.59073e-06
2.90957e-06
2.49407e-09
2.98565e-05
0.000108099
0.000108405
7.61541e-05
3.07661e-08
3.06272e-08
2.35822e-08
0.00416177
1.76992e-08
0.0083185
0.367862
0.710842
0.530293
0.0679344
3.57915e-05
3.23325e-06
6.45784e-06
6.94648e-06
6.65881e-06
5.13961e-06
1.16287e-05
4.18764e-05
6.68882e-05
6.22124e-05
2.63401e-05
5.49826e-09
-1.66745e-17
1.69517e-08
4.15932e-12
0.0505814
0.168403
0.055366
2.27721e-05
2.27106e-05
1.9477e-06
2.76479e-06
1.06074e-06
5.06873e-07
2.2936e-10
1.07077e-13
2.62511e-09
9.67249e-06
2.67127e-05
2.38944e-05
6.98354e-09
-1.4952e-17
1.39279e-09
7.65728e-12
0.0118288
0.00101419
0.000808798
0.000754615
2.28174e-05
2.14596e-06
7.00981e-06
5.54602e-07
1.9442e-07
6.40542e-08
1.12933e-08
1.46169e-09
4.29212e-06
1.1741e-05
1.14825e-05
0.000416343
0.000173495
1.09664e-09
6.86417e-08
0.00139495
0.00695133
0.00186692
0.00130118
0.000154178
0.000115718
0.000255866
8.76044e-05
1.67713e-06
9.52446e-10
4.94155e-10
4.59562e-07
1.4873e-06
1.42305e-06
0.000524793
0.000967199
0.000986446
0.000541453
-2.36294e-07
0.00313798
0.0151336
0.0141229
0.00168239
0.000345715
0.000353948
0.000352626
0.000210281
-1.10204e-10
-2.60449e-11
5.66856e-10
7.55505e-08
6.38126e-08
0.000251734
0.000704511
0.000913892
0.000989519
0.000798741
-3.41708e-09
0.00244951
0.0151341
0.0151341
0.00530382
0.000590274
0.000353694
0.000348207
0.000283976
6.36838e-05
0.000191097
0.000192682
0.000146428
9.74728e-05
0.000226829
9.06271e-05
0.000336919
0.000751928
0.000230486
1.41717e-07
9.86664e-05
0.00560152
0.0135739
0.00560172
0.000814261
0.000338897
0.000291963
0.000200179
0.000134477
0.000197562
0.000237871
0.000196948
1.31777e-08
8.32561e-06
1.32612e-07
2.71871e-08
2.1582e-05
1.54462e-06
1.47827e-06
2.24693e-07
6.96651e-07
0.00192819
0.00304158
0.000563474
5.23318e-05
9.09615e-05
3.87741e-05
3.92014e-05
7.23914e-05
8.91137e-05
2.34615e-05
1.29616e-08
3.89811e-09
3.7716e-09
5.07188e-08
1.82844e-06
1.35417e-06
4.67508e-07
-5.35234e-11
-6.33388e-16
-6.78209e-21
2.34956e-05
4.64159e-05
8.3275e-11
1.5086e-05
3.92235e-05
2.59794e-05
3.03708e-06
9.09048e-06
3.85363e-06
1.33161e-08
1.77094e-08
3.47669e-09
1.53022e-09
9.82215e-10
1.11615e-07
2.20797e-07
2.68151e-08
2.81902e-09
-1.5541e-16
3.50482e-23
-3.54475e-23
8.32245e-11
8.34176e-11
9.56918e-07
1.08661e-06
2.56576e-06
3.01561e-07
3.85116e-07
1.25075e-07
2.09362e-09
2.03435e-09
7.71659e-10
2.45349e-09
1.32782e-08
2.42544e-08
4.27109e-08
2.23676e-08
2.49898e-23
2.57946e-11
1.11267e-11
1.59649e-10
1.58339e-10
4.28315e-11
4.31075e-11
1.15533e-07
1.10352e-07
7.71002e-10
2.51928e-08
2.18126e-09
1.2356e-09
8.79105e-10
1.24603e-09
2.79968e-09
1.38264e-08
3.32427e-08
1.83303e-08
7.0312e-10
1.18601e-11
1.18596e-11
2.02145e-10
6.9552e-10
1.51132e-09
4.34922e-09
8.75998e-09
1.05144e-08
7.71984e-10
7.72147e-10
1.67514e-09
1.09524e-09
9.55966e-10
8.00431e-10
4.45862e-10
1.579e-09
6.18246e-09
3.04104e-09
1.08177e-09
1.45095e-11
9.89771e-12
1.30086e-10
2.95188e-10
4.44488e-10
5.60894e-10
6.48527e-10
6.75882e-10
7.77825e-10
7.97198e-10
9.69086e-10
8.92353e-10
8.87505e-10
6.73105e-10
4.16985e-10
2.20384e-10
1.67071e-10
1.65643e-10
7.89044e-10
2.6835e-11
7.27422e-12
4.89403e-11
1.36011e-10
2.22511e-10
3.6077e-10
4.12656e-10
4.39254e-10
5.16604e-10
5.00187e-10
4.92237e-10
5.31355e-10
5.71997e-10
5.0339e-10
3.64964e-10
2.58793e-10
1.87926e-10
1.45197e-10
2.84603e-10
2.3341e-11
4.04312e-12
2.23528e-11
5.43314e-11
9.87189e-11
1.55797e-10
2.05161e-10
2.20442e-10
2.22302e-10
2.33674e-10
2.34336e-10
2.33238e-10
2.26848e-10
2.29306e-10
2.45119e-10
2.14393e-10
1.65693e-10
1.10433e-10
8.15441e-11
1.74393e-11
2.98724e-12
6.20869e-12
1.8981e-11
3.472e-11
5.79581e-11
8.19025e-11
9.0377e-11
8.73524e-11
8.79321e-11
9.19258e-11
9.62963e-11
1.27006e-10
1.26166e-10
1.32723e-10
1.38193e-10
1.16611e-10
8.29377e-11
3.87686e-11
8.45714e-12
1.95111e-12
2.30095e-12
5.37728e-12
1.08031e-11
1.99336e-11
3.13998e-11
3.92126e-11
4.05391e-11
4.05119e-11
4.18007e-11
5.20717e-11
6.51975e-11
7.16259e-11
7.36916e-11
7.82594e-11
7.28805e-11
4.23582e-11
1.77676e-11
4.50498e-12
1.65141e-12
5.40913e-13
1.47946e-12
3.12266e-12
6.26618e-12
1.10889e-11
1.59365e-11
1.93536e-11
2.15618e-11
2.35669e-11
2.63802e-11
3.15642e-11
3.64911e-11
3.91784e-11
4.2584e-11
4.77618e-11
2.83769e-11
1.08178e-11
1.93908e-12
1.47639e-12
1.42706e-13
3.53807e-13
8.1048e-13
1.75491e-12
3.44107e-12
5.57439e-12
7.64767e-12
9.41086e-12
1.08887e-11
1.22153e-11
1.43699e-11
1.73576e-11
2.00814e-11
2.13582e-11
1.60587e-11
1.11618e-11
3.15287e-12
1.32651e-12
1.23868e-12
2.65172e-14
7.67831e-14
1.86874e-13
4.36167e-13
9.36279e-13
1.67721e-12
2.54972e-12
3.43604e-12
4.28634e-12
5.10538e-12
6.34389e-12
7.57902e-12
8.60502e-12
8.7322e-12
4.42906e-12
1.85114e-12
8.98684e-13
1.24727e-12
1.00933e-12
4.89635e-15
1.41833e-14
3.71286e-14
9.30544e-14
2.17045e-13
4.23724e-13
7.00907e-13
1.00648e-12
1.30011e-12
1.25654e-12
8.42728e-13
9.04975e-13
9.57506e-13
1.37067e-12
1.16298e-12
2.31904e-13
5.23609e-13
1.13946e-12
9.24007e-13
7.03508e-16
2.201e-15
6.04424e-15
1.60014e-14
3.91202e-14
7.75353e-14
1.22016e-13
1.49738e-13
7.20163e-14
3.90078e-14
1.90665e-14
1.68899e-14
2.31751e-14
1.61949e-13
9.70878e-14
1.83524e-13
4.91539e-13
1.01588e-12
7.53837e-13
9.0408e-17
2.93579e-16
8.3667e-16
2.31253e-15
5.75027e-15
1.09641e-14
1.39704e-14
1.5732e-15
6.72878e-16
7.9773e-16
1.63897e-15
4.08941e-15
7.68449e-15
2.41897e-14
6.9988e-14
1.99681e-13
4.91734e-13
8.79142e-13
6.41928e-13
9.8438e-18
3.45668e-17
1.03142e-16
2.96003e-16
7.37812e-16
1.35957e-15
1.53769e-15
1.8572e-16
3.23956e-16
8.41592e-16
1.95512e-15
4.19468e-15
1.12982e-14
3.19531e-14
8.96847e-14
2.30486e-13
5.00716e-13
7.97972e-13
4.42877e-13
9.43683e-19
3.76545e-18
1.17185e-17
3.50158e-17
8.67474e-17
1.56088e-16
1.73309e-16
8.62949e-17
2.75055e-16
8.27382e-16
2.22451e-15
5.26534e-15
1.40523e-14
3.74471e-14
1.1488e-13
2.57695e-13
4.85293e-13
6.29245e-13
3.66145e-13
8.71625e-20
3.71525e-19
1.24397e-18
3.93677e-18
9.80188e-18
1.80405e-17
2.54901e-17
4.74754e-17
1.75604e-16
5.92961e-16
1.76439e-15
4.83128e-15
1.25937e-14
3.56017e-14
9.92987e-14
2.51545e-13
4.21145e-13
5.44979e-13
2.18806e-13
7.17867e-21
3.28545e-20
1.3139e-19
4.38183e-19
1.12497e-18
2.37105e-18
5.54761e-18
1.96842e-17
8.06189e-17
3.02437e-16
1.03423e-15
3.19586e-15
8.92271e-15
2.41981e-14
6.73262e-14
1.78517e-13
3.5064e-13
3.75266e-13
1.53729e-13
5.16643e-22
2.86445e-21
1.34113e-20
4.99224e-20
1.38203e-19
3.64358e-19
1.30155e-18
6.01003e-18
2.71707e-17
1.13183e-16
4.33352e-16
1.52162e-15
4.71785e-15
1.34318e-14
3.62029e-14
8.97853e-14
1.71376e-13
2.53601e-13
7.72283e-14
3.52187e-23
2.27533e-22
1.24284e-21
5.14522e-21
1.64132e-20
5.51901e-20
2.54513e-19
1.38364e-18
6.93889e-18
3.2515e-17
1.40924e-16
5.57824e-16
1.95684e-15
6.03212e-15
1.65461e-14
4.18812e-14
8.91564e-14
9.71924e-14
5.4389e-14
1.99375e-24
1.57877e-23
1.04965e-22
4.72889e-22
1.75442e-21
7.21429e-21
3.96932e-20
2.42707e-19
1.38017e-18
7.37572e-18
3.64869e-17
1.65616e-16
6.64873e-16
2.31007e-15
6.61523e-15
1.66671e-14
2.8009e-14
5.65636e-14
2.37329e-14
1.06699e-25
9.43159e-25
6.87921e-24
3.52119e-23
1.46821e-22
7.08797e-22
4.55609e-21
3.10578e-20
1.98785e-19
1.24226e-18
7.26992e-18
3.87683e-17
1.83188e-16
7.24248e-16
2.28283e-15
6.05354e-15
1.27045e-14
1.62135e-14
1.26176e-14
4.63891e-27
5.41386e-26
4.26049e-25
2.44434e-24
1.12219e-23
6.04848e-23
4.42687e-22
3.40862e-21
2.4872e-20
1.78476e-19
1.21658e-18
7.6209e-18
4.41385e-17
2.04129e-16
6.95151e-16
1.89861e-15
2.65837e-15
6.4017e-15
6.00305e-15
2.49237e-28
2.91913e-27
2.48765e-26
1.57929e-25
8.01525e-25
4.68683e-24
3.83175e-23
3.38929e-22
2.83503e-21
2.30184e-20
1.80729e-19
1.31877e-18
9.19903e-18
5.10937e-17
1.87437e-16
5.34942e-16
9.0853e-16
2.22646e-15
2.97588e-15
1.78358e-29
1.83832e-28
1.58465e-27
1.07302e-26
5.86761e-26
3.53447e-25
3.05571e-24
3.08272e-23
2.955e-22
2.70056e-21
2.40289e-20
2.03109e-19
1.70989e-18
1.17146e-17
4.67707e-17
1.3964e-16
2.67697e-16
6.81403e-16
5.93654e-16
)
;

boundaryField
{
    leftWall
    {
        type            zeroGradient;
    }
    rightWall
    {
        type            zeroGradient;
    }
    lowerWall
    {
        type            zeroGradient;
    }
    atmosphere
    {
        type            inletOutlet;
        inletValue      uniform 0;
        value           nonuniform List<scalar> 
46
(
0
0
0
0
0
0
0
0
0
0
0
0
0
0
0
0
0
0
0
0
0
0
0
0
0
0
6.30775e-30
1.78358e-29
1.83832e-28
1.58465e-27
1.07302e-26
5.86761e-26
3.53447e-25
3.05571e-24
3.08272e-23
2.955e-22
2.70056e-21
2.40289e-20
2.03109e-19
1.70989e-18
1.17146e-17
4.67707e-17
1.3964e-16
2.67697e-16
6.81403e-16
5.93654e-16
)
;
    }
    defaultFaces
    {
        type            empty;
    }
}


// ************************************************************************* //
