/*--------------------------------*- C++ -*----------------------------------*\
| =========                 |                                                 |
| \\      /  F ield         | OpenFOAM: The Open Source CFD Toolbox           |
|  \\    /   O peration     | Version:  2312                                  |
|   \\  /    A nd           | Website:  www.openfoam.com                      |
|    \\/     M anipulation  |                                                 |
\*---------------------------------------------------------------------------*/
FoamFile
{
    version     2.0;
    format      ascii;
    arch        "LSB;label=32;scalar=64";
    class       volScalarField;
    location    "2.65";
    object      alpha.water_0;
}
// * * * * * * * * * * * * * * * * * * * * * * * * * * * * * * * * * * * * * //

dimensions      [0 0 0 0 0 0 0];

internalField   nonuniform List<scalar> 
2268
(
1.44719e-07
3.01546e-08
3.89065e-09
7.75901e-10
3.42957e-10
2.14131e-10
1.09005e-10
6.58679e-11
5.0113e-11
3.94457e-11
3.36357e-11
3.19466e-11
3.18568e-11
3.31122e-11
3.66931e-11
4.29528e-11
5.19603e-11
7.3548e-11
1.16608e-10
1.88166e-10
3.85342e-10
7.0051e-10
1.10973e-09
6.02185e-07
2.26421e-07
1.23384e-08
8.41538e-10
3.43417e-10
1.77216e-10
1.79281e-10
1.75063e-10
1.36863e-10
8.90024e-11
6.28999e-11
4.9131e-11
4.42693e-11
4.46329e-11
5.10598e-11
7.31306e-11
8.53844e-11
1.22592e-10
1.86187e-10
3.84256e-10
8.31843e-10
1.52639e-09
1.8497e-09
4.26024e-07
2.87757e-07
1.04708e-08
1.15497e-09
2.34176e-10
1.15959e-10
4.42923e-10
5.13907e-10
4.85051e-10
2.35387e-10
1.16585e-10
7.15781e-11
4.64933e-11
4.77328e-11
6.37164e-11
1.07405e-10
1.94857e-10
2.29252e-10
2.83352e-10
4.52637e-10
9.05117e-10
1.82519e-09
1.90144e-09
1.00095e-20
-1.86769e-21
1.04752e-21
2.56534e-21
9.43075e-23
7.37454e-30
8.114e-30
-2.08866e-13
-8.44013e-14
-3.26592e-21
-1.06268e-30
-6.1281e-18
1.66765e-11
1.60317e-11
2.23251e-11
5.00191e-11
1.14541e-10
1.68813e-10
2.05153e-10
3.06209e-10
6.88592e-10
1.43597e-09
1.26984e-09
0.117294
0.093129
0.071961
0.0509802
0.0336406
0.0193449
0.0121686
0.00947622
0.00974768
0.0102157
0.00790398
0.00275961
8.12768e-11
-2.87971e-20
-1.60375e-21
2.91619e-21
-5.06156e-19
3.44025e-11
8.26189e-11
1.36648e-10
2.13354e-10
4.57807e-10
5.74018e-10
0.813252
0.808104
0.781608
0.737798
0.686983
0.65221
0.632325
0.624137
0.617429
0.601281
0.567548
0.499161
0.392476
0.287326
0.168076
0.0589296
0.00210601
8.4847e-20
7.56093e-20
3.81841e-19
4.93659e-12
1.48831e-09
1.45593e-10
0.994943
0.99747
0.998007
0.998546
0.999488
0.999488
0.999488
0.999449
0.999474
0.999487
0.999212
0.997251
0.986106
0.9121
0.8274
0.703434
0.491732
0.226287
0.0448515
1.22356e-06
3.90908e-12
2.9128e-06
1.45593e-10
0.996981
0.997971
0.998757
0.999488
0.999488
0.999488
0.999488
0.999488
0.999486
0.999487
0.998967
0.990757
0.972038
0.913262
0.87494
0.909352
0.909379
0.874493
0.628291
0.35212
0.132537
0.0506269
0.0308911
0.027073
0.027204
0.0272014
0.0214293
0.0138042
0.0138038
0.0138039
0.0141491
0.0175236
0.0240315
0.0206069
0.0193937
0.0194495
0.0194535
0.0191917
0.0186158
0.0164989
0.0103798
0.00871813
0.0196516
0.0174757
0.0173963
0.0200701
0.0216894
0.0207832
0.0165999
0.0146464
0.0145021
0.0177566
0.0263623
0.019671
0.0159093
0.0141503
0.0150425
0.00996375
0.00858508
0.00859424
0.00868096
0.187902
0.158243
0.220324
0.320042
0.387798
0.357841
0.305367
0.283112
0.228462
0.133348
0.0717923
0.0164562
0.0078281
0.00781602
0.00782447
0.0207871
0.0346488
0.00932937
0.00868282
0.580233
0.506453
0.589554
0.646176
0.65735
0.609553
0.476224
0.535971
0.472796
0.434232
0.401195
0.286451
0.162034
0.0437893
0.116863
0.421215
0.431319
0.105162
0.00868467
0.58031
0.636904
0.686284
0.782487
0.913623
0.891568
0.60922
0.776128
0.908241
0.516334
0.458318
0.463268
0.474324
0.479042
0.544189
0.776789
0.740808
0.362639
0.0867224
0.588665
0.784363
0.970694
0.998217
0.999747
0.999747
0.773264
0.835765
0.950665
0.581262
0.456993
0.46922
0.469205
0.482068
0.713361
0.833207
0.770147
0.391627
0.348306
0.649818
0.949334
0.999743
0.999747
0.999747
0.999747
0.815888
0.925069
0.958756
0.757406
0.603602
0.618239
0.629573
0.776077
0.833207
0.833156
0.614723
0.388974
0.399359
0.987054
0.988303
0.987047
0.995286
0.999702
0.999747
0.872842
0.967596
0.967457
0.959843
0.902794
0.823886
0.663102
0.778299
0.833156
0.820973
0.511022
0.387795
0.395242
0.998307
0.998677
0.999456
0.999488
0.999488
0.999488
0.999488
0.999488
0.999488
0.999481
0.998512
0.960374
0.847543
0.683915
0.687435
0.697676
0.792128
0.959329
0.98874
0.964537
0.897211
0.820336
0.739927
0.998873
0.998874
0.997885
0.993367
0.993369
0.99485
0.993549
0.989598
0.978147
0.94233
0.903427
0.868506
0.818941
0.651198
0.701583
0.909857
0.976092
0.979873
0.988632
0.989128
0.989104
0.988141
0.967003
0.998874
0.998873
0.998875
0.998621
0.970899
0.900826
0.818244
0.665764
0.446658
0.285201
0.221087
0.261663
0.375802
0.521577
0.637178
0.650495
0.651623
0.593575
0.560949
0.626205
0.736805
0.80103
0.77037
0.595757
0.754909
0.870326
0.858263
0.685267
0.40603
0.197843
0.0321211
1.00894e-15
9.96593e-16
4.07328e-24
6.24531e-25
1.66685e-13
-5.82357e-25
2.04925e-24
0.0212849
0.069324
0.0871612
0.0717188
0.0391638
0.0177068
0.015875
0.0367272
0.00132887
0.0366905
0.187168
0.223053
0.187596
0.134937
0.0318495
9.26727e-07
1.77101e-08
8.41795e-07
5.63066e-07
2.67954e-06
4.43435e-06
1.28752e-06
7.36736e-08
5.31929e-09
1.71724e-08
-4.28766e-25
4.04713e-26
-1.15307e-42
-5.90643e-19
-1.51346e-19
1.41537e-15
0.00260794
0.000415909
0.00011412
0.0334962
0.0380226
0.0290748
0.0145436
0.000278687
2.31366e-05
1.98296e-05
2.36687e-05
8.2682e-06
1.50396e-05
-2.88905e-09
-1.39429e-10
7.99293e-13
4.90143e-07
6.0283e-06
1.1675e-06
7.10434e-09
-5.46274e-24
2.64368e-24
1.53384e-26
0.00389436
0.000373559
0.000114485
0.000113536
0.00442434
0.00271591
0.00111627
0.000527361
7.67097e-05
1.99704e-05
0.00201588
0.00744456
0.0100847
0.00852941
0.00379058
0.00112398
0.000310919
0.000117468
5.25025e-05
6.4286e-05
5.55801e-05
1.78462e-05
4.07335e-08
0.00517642
0.00165384
0.000385706
0.000165972
5.68259e-05
5.5592e-05
6.05786e-05
9.42886e-05
6.6888e-05
2.01009e-05
0.00312935
0.0203302
0.021006
0.0210064
0.021006
0.0136044
0.0012143
0.000284583
0.00106275
0.00117983
0.000687723
0.00021495
0.000157292
0.00517443
0.00255412
0.00239282
0.0022114
0.00118506
0.000597609
0.000315832
0.000561931
0.000711968
2.02743e-05
0.00251686
0.00755689
0.0172402
0.0210065
0.0210064
0.0188203
0.00301562
0.000158716
0.00154421
0.00313642
0.00314241
0.00278117
0.00161467
0.00496984
0.000344674
0.000900199
0.00543507
0.0111561
0.011075
0.0123456
0.0126943
0.00840524
0.00168545
9.38802e-21
-1.38518e-10
7.08037e-19
0.00303044
0.00964933
0.0061682
0.000652818
0.000164158
6.34986e-06
5.13334e-05
0.00185789
0.00424382
0.00476773
0.00365524
5.34079e-07
4.79653e-05
0.00963733
0.017096
0.017727
0.017984
0.018
0.0158923
0.00100756
1.14166e-06
3.01372e-07
1.87932e-07
8.34825e-14
7.53985e-14
9.64468e-14
3.19835e-06
5.72973e-06
3.25103e-06
1.05394e-06
7.89866e-07
7.54897e-07
2.13951e-06
0.00114937
1.96552e-07
9.00911e-05
0.000476514
4.90629e-08
0.00244886
0.0127316
0.0154712
0.00724872
2.01695e-05
6.88979e-08
7.66136e-08
2.02189e-08
5.57546e-13
8.62151e-08
2.26241e-07
1.08066e-07
8.49897e-08
8.4473e-08
1.62212e-07
5.89484e-06
5.80405e-06
4.47532e-07
4.50167e-07
1.53809e-07
1.58475e-06
4.69629e-08
4.54292e-08
4.90507e-08
4.11512e-08
4.46086e-08
1.2879e-08
4.91401e-05
2.57397e-09
1.52236e-09
3.90676e-07
3.8816e-06
3.95593e-06
2.69711e-06
2.02918e-07
6.71953e-07
2.02711e-05
5.14098e-05
5.13402e-05
2.67204e-05
2.8375e-06
3.84244e-07
1.56807e-06
9.4639e-07
2.65807e-07
2.14984e-06
2.55948e-06
8.03294e-07
6.59931e-08
8.27577e-08
3.44041e-05
1.00505e-06
3.55765e-06
8.52013e-06
8.56972e-06
3.15073e-06
1.04162e-06
4.85103e-06
7.18216e-05
0.000144785
0.0001448
1.84999e-05
1.47469e-07
6.21018e-07
5.77767e-06
6.01485e-06
3.42096e-06
4.0566e-07
1.80227e-05
3.39615e-05
1.03311e-05
3.116e-07
4.21087e-05
1.70957e-05
5.68579e-06
8.71455e-06
8.68612e-06
5.61036e-06
1.38067e-08
7.13508e-06
0.000112528
0.000130501
0.000119871
1.16986e-06
5.1497e-08
9.12503e-07
7.24262e-06
7.05045e-06
5.47263e-06
1.14779e-06
3.2133e-07
0.000371161
0.000480801
0.000104921
1.06007e-07
1.90069e-05
4.25933e-06
8.50062e-06
8.71778e-06
7.42388e-06
7.85161e-08
9.32427e-09
2.69771e-06
7.67564e-05
0.0001076
3.4669e-06
4.82139e-08
4.82481e-08
3.13332e-06
6.88298e-06
1.10023e-06
4.7336e-07
4.83665e-07
0.000204599
0.000528603
0.000530349
0.000150272
6.84654e-08
6.90516e-06
1.11098e-06
6.34388e-06
2.77987e-06
1.08024e-06
1.64913e-07
9.9883e-09
6.14362e-07
1.30073e-06
2.58729e-09
2.62923e-09
1.37536e-07
9.12397e-08
1.46706e-06
2.06868e-06
1.0867e-06
1.08699e-06
3.49512e-05
0.000528563
0.000529671
0.000392893
3.66614e-05
6.39874e-06
6.33119e-06
-5.70196e-10
2.75889e-07
9.2471e-09
2.28665e-07
1.35094e-07
4.3178e-08
3.92875e-08
3.15097e-09
2.81077e-09
7.54484e-09
6.95791e-08
1.51954e-07
1.34255e-07
2.20618e-08
2.88295e-05
7.92174e-05
0.000357392
0.000529332
0.000352325
7.18872e-07
1.68828e-06
1.87529e-05
6.33751e-06
-8.89452e-11
3.99833e-25
9.54708e-09
8.43971e-08
1.09425e-07
2.16032e-08
2.81155e-09
3.47376e-09
2.46184e-09
3.24944e-09
2.00433e-08
5.41738e-08
5.10922e-08
5.03614e-09
0.000228846
0.000355233
0.000353116
0.00012347
5.0459e-07
5.15172e-07
2.17796e-06
1.87038e-05
1.23923e-07
1.05043e-15
4.10858e-10
4.71585e-09
2.09059e-08
2.1459e-08
5.8811e-09
2.79202e-09
2.41644e-09
1.73869e-09
1.85942e-09
4.07088e-09
6.1425e-09
8.26045e-09
7.32606e-09
0.000109829
5.36857e-05
2.83808e-07
2.20242e-07
5.9373e-07
5.62933e-06
7.16426e-06
1.10924e-05
3.62614e-10
3.389e-10
4.60641e-10
9.6417e-10
2.73387e-09
1.28427e-09
1.35964e-09
1.6737e-09
1.15967e-09
9.47677e-10
9.56437e-10
1.59959e-09
2.01019e-09
2.91037e-09
3.0658e-09
1.84058e-07
1.95116e-07
3.59804e-07
2.96398e-06
8.62995e-06
8.52468e-06
2.47268e-06
2.83768e-06
3.73672e-10
8.07643e-10
4.26895e-10
4.78889e-10
5.0804e-10
5.07743e-10
5.85382e-10
6.39986e-10
5.52371e-10
4.89848e-10
5.00365e-10
7.01919e-10
8.83631e-10
9.97614e-10
1.1166e-09
1.81101e-07
3.92653e-06
8.82116e-06
1.17485e-05
1.17044e-05
5.96145e-06
3.54724e-10
3.5006e-10
1.31658e-09
7.30108e-10
2.95811e-10
2.99259e-10
2.95284e-10
2.8656e-10
2.94378e-10
3.03772e-10
2.73695e-10
2.55226e-10
2.75751e-10
3.23114e-10
3.61622e-10
3.92844e-10
4.08573e-10
1.79614e-07
7.07988e-06
1.16159e-05
1.15017e-05
6.35526e-06
4.08911e-10
4.10485e-10
1.12588e-09
8.85778e-10
3.95425e-10
1.77368e-10
1.67801e-10
1.62557e-10
1.55815e-10
1.48865e-10
1.43542e-10
1.35435e-10
1.29535e-10
1.34415e-10
1.39472e-10
1.40037e-10
1.43309e-10
1.37559e-10
6.77557e-08
4.84155e-07
2.70899e-06
2.37982e-07
5.92922e-09
8.3873e-09
7.28857e-09
3.08571e-10
4.2613e-10
2.0257e-10
1.03491e-10
8.77447e-11
8.02331e-11
7.39356e-11
6.86813e-11
6.46696e-11
6.09943e-11
5.79766e-11
5.58365e-11
5.36371e-11
4.94741e-11
4.71023e-11
4.36197e-11
1.30794e-09
8.27701e-10
8.4252e-10
8.27701e-10
2.67306e-08
1.19131e-07
8.52636e-08
8.6617e-11
1.22892e-10
8.89462e-11
5.69225e-11
4.55137e-11
3.8187e-11
3.30039e-11
2.91551e-11
2.62994e-11
2.40769e-11
2.18127e-11
1.99977e-11
1.71813e-11
1.47703e-11
1.38753e-11
1.14648e-11
1.49452e-09
8.41252e-10
1.88877e-09
2.95145e-09
1.71881e-09
3.02183e-09
3.10482e-09
8.62102e-11
8.58727e-11
6.04773e-11
4.092e-11
2.97479e-11
2.17465e-11
1.6142e-11
1.24489e-11
1.00695e-11
8.33091e-12
7.11164e-12
5.95466e-12
4.67647e-12
3.66105e-12
3.29721e-12
3.07395e-12
1.30102e-08
8.28619e-10
5.48104e-09
7.67239e-09
2.13059e-09
1.52997e-10
1.50429e-10
1.4987e-10
1.02659e-10
7.04216e-11
4.85722e-11
3.30238e-11
2.10072e-11
1.30315e-11
7.74492e-12
4.85029e-12
3.21346e-12
2.2823e-12
1.60545e-12
1.12009e-12
8.02949e-13
7.18455e-13
6.58468e-13
2.72288e-08
1.68406e-08
1.11785e-08
1.31438e-08
4.25797e-09
5.34691e-10
2.80375e-10
2.12742e-10
1.5107e-10
1.12456e-10
8.1971e-11
5.53171e-11
3.48176e-11
1.99544e-11
1.04045e-11
5.10614e-12
2.41689e-12
1.17419e-12
5.81158e-13
2.98587e-13
1.82644e-13
1.4291e-13
1.47197e-13
3.85877e-08
1.37583e-07
6.06871e-08
1.31715e-08
3.44378e-09
7.73815e-10
3.79457e-10
3.26333e-10
2.51311e-10
2.09426e-10
1.66011e-10
1.11258e-10
7.00352e-11
4.01297e-11
2.03905e-11
9.19579e-12
3.76066e-12
1.40426e-12
5.17879e-13
1.62247e-13
6.94099e-14
3.09852e-14
2.56109e-14
4.45063e-08
2.5313e-07
2.60332e-07
3.11132e-09
1.51384e-09
1.36296e-09
5.81221e-10
4.74895e-10
3.92531e-10
3.85403e-10
3.14291e-10
2.13289e-10
1.35642e-10
7.82031e-11
3.99117e-11
1.78596e-11
7.12755e-12
2.53684e-12
7.89947e-13
2.00929e-13
6.10969e-14
1.5744e-14
5.32145e-15
3.21752e-08
2.98062e-07
3.07656e-07
9.7166e-08
7.92676e-10
7.92545e-10
8.79824e-10
7.21234e-10
6.85504e-10
7.00346e-10
5.07549e-10
3.41262e-10
2.18616e-10
1.31916e-10
6.9331e-11
3.15598e-11
1.25208e-11
4.47525e-12
1.37754e-12
3.38161e-13
8.30489e-14
1.62559e-14
1.99071e-15
1.70605e-08
1.60207e-07
3.10504e-07
2.50483e-07
7.92544e-10
7.92676e-10
7.93595e-10
9.17403e-10
1.41516e-09
1.71668e-09
6.30026e-10
4.02871e-10
2.79865e-10
1.79032e-10
1.01841e-10
4.81496e-11
1.98159e-11
7.01703e-12
2.16904e-12
5.18453e-13
1.29795e-13
1.77407e-14
2.09695e-15
5.97406e-09
4.32902e-08
2.40728e-07
2.06444e-07
3.89229e-09
7.92683e-10
7.92779e-10
1.18892e-09
6.98362e-09
2.58638e-09
6.21848e-10
3.91595e-10
2.83968e-10
2.07777e-10
1.2497e-10
6.13e-11
2.63048e-11
9.72244e-12
2.97423e-12
7.24715e-13
1.67539e-13
2.42621e-14
3.16304e-15
1.93548e-09
8.47054e-10
8.46905e-10
1.25384e-08
1.60897e-09
7.93018e-10
6.24063e-09
4.52297e-08
1.91786e-08
1.47709e-09
4.49191e-10
3.5154e-10
2.94612e-10
2.15179e-10
1.31363e-10
6.65769e-11
2.99147e-11
1.14052e-11
3.47169e-12
8.49803e-13
2.05486e-13
2.29408e-14
3.54362e-15
1.9073e-09
8.47319e-10
8.47262e-10
8.47319e-10
8.596e-10
2.33863e-09
8.36593e-08
1.29885e-07
1.56986e-08
4.07236e-10
4.07497e-10
3.53082e-10
3.1273e-10
2.12992e-10
1.2272e-10
6.14759e-11
2.75477e-11
1.07945e-11
3.46926e-12
8.40165e-13
1.90001e-13
2.77553e-14
3.31665e-15
1.78978e-08
9.77725e-10
8.64033e-10
1.23653e-09
3.6122e-09
6.95843e-09
1.8777e-07
1.99576e-07
8.36673e-09
4.27328e-10
5.03818e-10
3.91287e-10
3.23721e-10
1.9876e-10
1.03732e-10
4.87246e-11
2.09532e-11
7.94505e-12
2.59877e-12
6.61644e-13
1.53722e-13
1.67114e-14
2.46546e-15
2.37121e-07
9.27938e-10
9.26285e-10
3.39627e-09
3.72189e-08
4.81061e-07
1.44897e-06
7.98626e-07
5.58627e-10
5.61404e-10
5.0013e-10
4.07811e-10
3.04472e-10
1.69509e-10
7.92408e-11
3.28734e-11
1.25957e-11
4.43456e-12
1.42839e-12
3.73951e-13
7.60701e-14
1.17864e-14
1.3617e-15
5.27879e-07
2.26446e-08
2.11177e-09
6.68172e-09
1.03616e-07
1.38457e-06
1.57234e-06
8.77533e-07
5.58223e-10
6.26902e-10
4.02978e-10
3.5635e-10
2.43585e-10
1.23292e-10
4.92409e-11
1.70425e-11
5.47717e-12
1.67366e-12
4.86008e-13
1.37543e-13
3.36933e-14
4.01639e-15
5.83091e-16
5.27319e-07
1.09347e-07
7.71786e-09
8.66191e-09
8.02543e-08
1.28663e-06
1.56843e-06
1.35639e-07
2.664e-09
6.02514e-10
2.70254e-10
2.47012e-10
1.59048e-10
7.47699e-11
2.56108e-11
6.98533e-12
1.66931e-12
3.74919e-13
9.83336e-14
3.26255e-14
7.44597e-15
1.43393e-15
2.08185e-16
4.90442e-07
1.40807e-07
9.7213e-09
1.1238e-08
4.15999e-08
1.00254e-07
2.7834e-07
1.65738e-10
3.49952e-09
2.93432e-10
1.35041e-10
1.1398e-10
7.31466e-11
3.26255e-11
9.72216e-12
2.00705e-12
3.13964e-13
4.39656e-14
9.79089e-15
4.93779e-15
1.41762e-15
3.01153e-16
5.94808e-17
9.41691e-09
1.65853e-08
2.87449e-09
1.1374e-09
2.55897e-09
2.27881e-17
-9.03939e-37
1.63667e-10
5.55836e-12
7.53502e-12
3.12951e-11
2.82647e-11
1.8914e-11
7.76264e-12
1.94421e-12
2.88955e-13
2.84012e-14
2.29749e-15
5.05264e-16
4.66582e-16
2.28129e-16
5.88341e-17
1.48388e-17
0.696611
0.694554
0.817277
0.994316
0.812536
0.824434
0.920882
0.963642
0.741933
0.672612
0.678042
0.793457
0.0476625
0.043732
0.0351652
0.0568368
1.14082e-32
-5.82648e-29
-5.75048e-20
-1.49058e-20
6.89278e-30
-2.84735e-26
3.15108e-24
3.50803e-24
2.09535e-08
9.59497e-08
1.81946e-05
2.75357e-05
0.000169827
0.000265903
0.000522238
0.000545367
0.00123745
0.00375773
0.00478142
0.00478197
0.00478328
0.00478254
0.00478231
0.00433851
8.60046e-05
0.000452109
0.00217898
0.00212702
2.16882e-11
1.76036e-11
7.82033e-08
7.0936e-08
1.68587e-06
1.26452e-06
1.30301e-06
3.30231e-06
2.35604e-06
2.87254e-06
2.05787e-06
1.94551e-06
7.7989e-06
7.79772e-06
7.66695e-06
1.87702e-06
4.61562e-06
3.01744e-09
8.25007e-07
7.42842e-07
1.14153e-07
5.21434e-10
5.21613e-10
5.21407e-10
5.21421e-10
5.21527e-10
5.23318e-10
5.30799e-10
5.80382e-10
1.26533e-09
9.15416e-10
6.04167e-10
1.23195e-09
1.36012e-09
9.95762e-10
5.46834e-10
1.32603e-09
1.20347e-09
6.51156e-10
4.04464e-10
7.20664e-10
6.2718e-10
3.73221e-10
2.45586e-10
3.14562e-10
2.63956e-10
1.72308e-10
1.1863e-10
1.02337e-10
8.75521e-11
6.99507e-11
5.11876e-11
3.0747e-11
2.83691e-11
2.45916e-11
1.96684e-11
8.66345e-12
8.31169e-12
8.15376e-12
7.31199e-12
2.14416e-12
2.26036e-12
2.50328e-12
2.51781e-12
5.28107e-13
6.06819e-13
7.46059e-13
8.38118e-13
1.24485e-13
1.52178e-13
2.17472e-13
2.59215e-13
2.70621e-14
3.8697e-14
5.58038e-14
7.35253e-14
5.36742e-15
7.88902e-15
1.36118e-14
1.89165e-14
1.00325e-15
1.72802e-15
2.89247e-15
4.56277e-15
2.30636e-16
2.62844e-16
5.96133e-16
9.45379e-16
9.65007e-17
6.00582e-17
9.3945e-17
1.86944e-16
9.84485e-17
1.74377e-17
1.68893e-17
2.96946e-17
1.3094e-16
1.22162e-17
3.0284e-18
4.7373e-18
1.35777e-16
1.06295e-17
1.14499e-18
5.68651e-19
1.08863e-16
7.6378e-18
5.66474e-19
9.84459e-20
6.10627e-17
4.28031e-18
3.25046e-19
1.24906e-20
2.65807e-17
2.11135e-18
1.27449e-19
2.67612e-21
9.05877e-18
8.05623e-19
5.15125e-20
6.15498e-22
2.48623e-18
2.62971e-19
1.6368e-20
1.44944e-22
0.997009
0.990409
0.920741
0.938965
0.968616
0.999747
0.994878
0.976298
0.95361
0.961133
0.952252
0.737134
0.492678
0.595312
0.817487
0.84591
0.725272
0.778298
0.522108
0.996408
0.964497
0.59411
0.392164
0.675083
0.908996
0.994957
0.985019
0.830344
0.861299
0.822948
0.589137
0.431351
0.720535
0.861858
0.861864
0.844405
0.836331
0.835457
0.946322
0.682326
0.0976306
0.000494198
0.0123831
0.224189
0.839224
0.958746
0.839347
0.45794
0.393853
0.41356
0.456224
0.507387
0.834486
0.7367
0.472781
0.322709
0.720207
0.262793
0.183488
0.0104859
0.000504029
0.000278806
0.000266214
0.0778417
0.50877
0.716034
0.489486
0.38078
0.431717
0.463374
0.386777
0.374315
0.402944
0.202963
0.149069
0.185277
1.56859e-24
0.000297913
0.000658999
0.000796422
0.00216931
0.00145997
0.00471503
0.0476746
0.11085
0.12448
0.223121
0.387503
0.436334
0.393528
0.208636
0.198225
0.19716
0.156838
0.00686607
4.71894e-06
2.34733e-05
5.93847e-06
7.26222e-07
0.00169338
0.00448183
0.00171975
0.000867249
0.000913073
0.000527952
0.0158318
0.0915659
0.136969
0.126555
0.11152
0.147992
0.174518
0.115195
0.00229565
1.72892e-05
4.81378e-06
3.45636e-07
3.29281e-07
9.11635e-05
0.00390073
0.00794525
0.00259108
0.000109575
0.000521495
0.00216563
0.00546487
0.00347254
1.04966e-05
0.000645781
0.00981974
0.0208981
0.0108113
0.00145129
0.000405962
5.6077e-05
3.29281e-07
0.000141443
0.000572794
0.00873654
0.00953597
0.00571132
0.000133207
0.000183708
0.000439458
0.000128561
1.49878e-06
9.64737e-06
4.7694e-21
-1.77973e-21
5.92714e-20
3.0404e-09
0.00068175
0.000846498
0.000157596
1.46689e-05
1.13838e-05
0.00468003
0.00953566
0.00953162
0.00356224
2.22522e-06
2.14586e-09
4.1909e-18
1.22718e-21
1.24371e-06
3.86891e-05
2.90577e-05
2.32423e-06
1.01944e-16
5.02942e-13
5.69083e-06
0.00155024
0.00208625
0.00231413
0.000631703
0.00241907
0.00808364
0.0058224
0.000586268
9.62178e-22
8.81497e-28
-5.82781e-15
-2.15693e-12
4.91475e-05
5.88442e-05
1.76376e-05
1.43888e-06
5.27988e-07
5.02081e-06
2.53445e-06
0.000165907
0.000704835
0.00230557
0.00105301
0.000172851
0.000558942
0.000204316
7.79236e-05
2.87115e-06
5.98615e-24
-2.71743e-15
3.12442e-05
7.36574e-05
5.08307e-05
3.82332e-06
6.47927e-07
1.72825e-06
7.06782e-06
2.44149e-06
3.37949e-06
0.000324812
0.000696984
0.000282274
0.000128498
0.000173785
0.000100575
6.22794e-05
3.48329e-05
1.06439e-05
3.82901e-06
5.3802e-05
7.40603e-05
3.60927e-05
6.36525e-07
6.35666e-07
2.07966e-06
6.06635e-06
1.30672e-05
4.10453e-06
6.96756e-06
9.50033e-05
0.000103307
8.05806e-05
6.41689e-05
6.38813e-05
6.54078e-05
6.49963e-05
2.35702e-05
4.42492e-06
2.11219e-05
4.84812e-05
3.49193e-05
2.41635e-06
6.38721e-07
6.04807e-06
5.98696e-06
1.77483e-05
7.32354e-06
2.63405e-05
5.88529e-05
4.39716e-05
2.87917e-05
1.36139e-05
2.27518e-05
2.36764e-05
4.60377e-05
1.09207e-05
5.83409e-07
1.20726e-06
8.6221e-06
9.86846e-06
3.63464e-06
7.48592e-06
1.10363e-05
9.25206e-06
1.77493e-05
3.10983e-06
4.2678e-06
1.27049e-06
7.20758e-10
2.25281e-09
2.2733e-09
2.25281e-09
2.2733e-09
1.17958e-06
1.74588e-07
2.87892e-09
3.5801e-09
2.97375e-09
8.04673e-07
1.49251e-06
1.10381e-05
1.10285e-05
1.00694e-05
1.74216e-05
7.14269e-08
7.26575e-10
7.18191e-10
7.28133e-10
2.74741e-09
2.57669e-09
4.16583e-09
4.60969e-09
3.38436e-09
3.39798e-09
1.79953e-08
1.92423e-08
3.47368e-09
1.46401e-07
3.37575e-06
9.17085e-06
1.04108e-05
2.98226e-06
5.16978e-06
5.21684e-10
7.51441e-10
2.00027e-09
2.78344e-09
3.33659e-09
3.16215e-09
5.01896e-09
6.99284e-09
5.22175e-09
1.0968e-08
4.32944e-08
3.81809e-08
3.36555e-09
1.26611e-06
4.68944e-06
5.80334e-07
1.14173e-06
3.40706e-08
3.41869e-08
5.41934e-10
7.61298e-10
1.39634e-09
2.10891e-09
2.24956e-09
1.82917e-09
2.89136e-09
4.27877e-09
6.19872e-09
1.45966e-08
4.3244e-08
1.78665e-08
1.45032e-08
1.56485e-06
4.43222e-06
3.95844e-09
3.9232e-09
3.48225e-08
3.51359e-08
5.50266e-10
5.93849e-10
8.16714e-10
1.11386e-09
1.17457e-09
8.85083e-10
8.2381e-10
1.55852e-09
4.28715e-09
9.79096e-09
1.86869e-08
5.30854e-09
5.25262e-08
3.61723e-07
4.53425e-07
2.75174e-08
4.09835e-09
4.33168e-08
6.38512e-08
4.39527e-10
4.06067e-10
4.78337e-10
5.96205e-10
6.13029e-10
4.87164e-10
4.23131e-10
1.05025e-09
3.07993e-09
4.34264e-09
1.27587e-09
5.39077e-09
1.77902e-08
1.41701e-08
3.92514e-08
9.19444e-08
3.60453e-09
3.91584e-08
6.3881e-08
3.01831e-10
2.51619e-10
2.8271e-10
3.27665e-10
3.3205e-10
2.95707e-10
3.69188e-10
9.14214e-10
1.56882e-09
1.34604e-09
1.06906e-09
3.01985e-09
3.52252e-09
1.41923e-08
7.51243e-08
9.29465e-08
3.10718e-09
2.03559e-08
5.53024e-08
1.77558e-10
1.44419e-10
1.6068e-10
1.79351e-10
1.82651e-10
1.78997e-10
2.98525e-10
5.57647e-10
6.10235e-10
4.71363e-10
8.08651e-10
1.9631e-09
3.08314e-09
1.2103e-08
3.61943e-08
4.88201e-08
9.62742e-10
8.97249e-09
1.01359e-08
8.93686e-11
7.74679e-11
8.5513e-11
9.46662e-11
9.84411e-11
1.04845e-10
1.98387e-10
3.38941e-10
3.60768e-10
2.8589e-10
4.71115e-10
1.05988e-09
1.86051e-09
4.46122e-09
6.33124e-09
5.24465e-10
4.55253e-10
2.12745e-09
3.82343e-09
4.18743e-11
3.87857e-11
4.35291e-11
4.81023e-11
5.1318e-11
5.72918e-11
1.12188e-10
1.79053e-10
1.85077e-10
1.44259e-10
2.31521e-10
4.93185e-10
8.32137e-10
8.90376e-10
8.43191e-10
9.60755e-11
3.08506e-10
2.21359e-10
8.38188e-10
1.81552e-11
1.81125e-11
2.07346e-11
2.33363e-11
2.586e-11
3.16196e-11
5.26475e-11
8.14456e-11
8.37547e-11
6.48453e-11
1.00697e-10
2.06057e-10
3.39688e-10
2.98377e-10
1.61964e-10
9.65143e-11
2.30115e-10
2.43241e-11
1.28187e-10
7.17853e-12
7.90592e-12
9.32382e-12
1.06718e-11
1.21114e-11
1.50372e-11
2.24718e-11
3.29883e-11
3.40475e-11
2.70204e-11
4.03833e-11
8.04029e-11
1.35131e-10
1.48203e-10
8.32481e-11
6.41608e-11
1.0388e-10
1.50028e-11
1.38898e-11
2.66992e-12
3.2452e-12
3.93404e-12
4.59399e-12
5.30612e-12
6.48963e-12
8.91832e-12
1.22371e-11
1.27469e-11
1.07064e-11
1.56453e-11
3.20992e-11
5.85933e-11
7.04038e-11
4.20444e-11
3.15008e-11
2.57775e-11
8.67272e-12
3.00682e-12
9.44911e-13
1.23215e-12
1.55438e-12
1.86418e-12
2.19032e-12
2.63201e-12
3.36441e-12
4.2951e-12
4.49819e-12
3.9544e-12
5.09328e-12
8.58174e-12
9.77999e-12
1.4491e-11
2.14391e-11
1.55452e-11
6.8938e-12
6.11209e-12
9.27758e-13
3.06782e-13
4.36224e-13
5.71907e-13
7.09397e-13
8.50418e-13
1.01187e-12
1.22214e-12
1.45819e-12
1.519e-12
1.3686e-12
1.47141e-12
7.01062e-13
4.87784e-13
1.03381e-12
5.00014e-12
8.96949e-12
4.76684e-12
2.5514e-12
8.7382e-13
9.30931e-14
1.42696e-13
1.94632e-13
2.51031e-13
3.07746e-13
3.65345e-13
4.24079e-13
4.77946e-13
4.87204e-13
4.42221e-13
4.33216e-13
1.49225e-13
3.99732e-14
6.21099e-14
7.50225e-13
2.60652e-12
2.7713e-12
1.73629e-12
7.60908e-13
2.53907e-14
4.16455e-14
6.08681e-14
8.16823e-14
1.03032e-13
1.22279e-13
1.37662e-13
1.48091e-13
1.43719e-13
1.30292e-13
1.24398e-13
6.76399e-14
2.80228e-14
4.57304e-14
1.34522e-13
6.19593e-13
1.41616e-12
1.0032e-12
6.89988e-13
6.43429e-15
1.11982e-14
1.73855e-14
2.41262e-14
3.06986e-14
3.67075e-14
4.10843e-14
4.21731e-14
3.83921e-14
3.47886e-14
3.38933e-14
2.80975e-14
2.19617e-14
4.2269e-14
1.10299e-13
2.56969e-13
5.80412e-13
8.27772e-13
5.33978e-13
1.44482e-15
2.72885e-15
4.31597e-15
6.26004e-15
8.20661e-15
9.81676e-15
1.0796e-14
1.05208e-14
9.4704e-15
8.84358e-15
9.73435e-15
1.19233e-14
1.74865e-14
3.8573e-14
9.99032e-14
2.29181e-13
3.9294e-13
6.26399e-13
4.71208e-13
2.98002e-16
5.9077e-16
9.92674e-16
1.50932e-15
2.01574e-15
2.41246e-15
2.60446e-15
2.42432e-15
2.20272e-15
2.43447e-15
3.5935e-15
6.62436e-15
1.35174e-14
3.21358e-14
8.33412e-14
2.02823e-13
3.63971e-13
5.24097e-13
3.93544e-13
5.1294e-17
1.16298e-16
2.0501e-16
3.21701e-16
4.41575e-16
5.30453e-16
5.67179e-16
5.36176e-16
5.46041e-16
8.14464e-16
1.74641e-15
4.11544e-15
9.86539e-15
2.40655e-14
6.21606e-14
1.585e-13
3.27169e-13
4.37338e-13
3.02085e-13
8.1077e-18
2.01447e-17
3.7728e-17
6.12748e-17
8.54127e-17
1.03768e-16
1.1297e-16
1.17486e-16
1.57599e-16
3.35172e-16
9.13332e-16
2.51827e-15
6.48227e-15
1.61301e-14
4.07846e-14
1.04932e-13
2.34697e-13
3.6108e-13
1.9523e-13
1.2026e-18
2.90729e-18
6.07192e-18
1.01471e-17
1.43955e-17
1.78989e-17
2.0525e-17
2.61945e-17
5.09559e-17
1.46075e-16
4.57733e-16
1.37239e-15
3.83785e-15
9.84433e-15
2.48177e-14
6.10504e-14
1.41396e-13
2.1415e-13
1.35017e-13
1.46698e-19
3.9757e-19
8.44119e-19
1.45081e-18
2.09654e-18
2.77984e-18
3.71202e-18
6.25987e-18
1.68356e-17
5.89094e-17
2.07852e-16
6.79223e-16
1.99511e-15
5.34251e-15
1.34315e-14
3.27602e-14
7.16455e-14
1.30907e-13
7.52725e-14
1.89746e-20
5.12944e-20
1.04391e-19
1.79083e-19
2.88728e-19
3.78601e-19
6.59842e-19
1.50498e-18
5.07707e-18
2.09541e-17
8.34368e-17
2.99473e-16
9.45643e-16
2.65021e-15
6.57999e-15
1.61463e-14
3.65508e-14
5.75851e-14
4.19716e-14
2.09977e-21
6.08233e-21
1.29314e-20
2.31616e-20
3.67343e-20
5.67028e-20
1.13051e-19
3.30126e-19
1.30374e-18
5.99825e-18
2.70021e-17
1.07009e-16
3.6853e-16
1.09618e-15
2.74158e-15
6.79506e-15
1.38359e-14
2.49871e-14
2.15257e-14
2.23705e-22
6.58363e-22
1.48211e-21
2.86422e-21
4.76868e-21
8.75067e-21
2.02422e-20
6.87402e-20
3.0613e-19
1.55627e-18
7.44253e-18
3.35757e-17
1.2681e-16
4.03872e-16
1.10281e-15
2.68462e-15
5.17659e-15
1.05435e-14
1.19061e-14
2.3814e-23
6.6526e-23
1.6177e-22
3.39799e-22
6.33823e-22
1.3566e-21
3.61364e-21
1.3638e-20
6.66759e-20
3.58056e-19
2.01032e-18
9.98093e-18
4.1377e-17
1.41127e-16
4.02143e-16
9.927e-16
1.88209e-15
3.48682e-15
3.51297e-15
)
;

boundaryField
{
    leftWall
    {
        type            zeroGradient;
    }
    rightWall
    {
        type            zeroGradient;
    }
    lowerWall
    {
        type            zeroGradient;
    }
    atmosphere
    {
        type            inletOutlet;
        inletValue      uniform 0;
        value           nonuniform List<scalar> 
46
(
0
0
0
0
0
0
0
0
0
0
0
0
0
0
0
0
0
0
0
0
0
5.88341e-17
1.48388e-17
2.48623e-18
2.62971e-19
1.6368e-20
1.44944e-22
2.3814e-23
6.6526e-23
1.6177e-22
3.39799e-22
6.33823e-22
1.3566e-21
3.61364e-21
1.3638e-20
6.66759e-20
3.58056e-19
2.01032e-18
9.98093e-18
4.1377e-17
1.41127e-16
4.02143e-16
9.927e-16
1.88209e-15
3.48682e-15
3.51297e-15
)
;
    }
    defaultFaces
    {
        type            empty;
    }
}


// ************************************************************************* //
