/*--------------------------------*- C++ -*----------------------------------*\
| =========                 |                                                 |
| \\      /  F ield         | OpenFOAM: The Open Source CFD Toolbox           |
|  \\    /   O peration     | Version:  2312                                  |
|   \\  /    A nd           | Website:  www.openfoam.com                      |
|    \\/     M anipulation  |                                                 |
\*---------------------------------------------------------------------------*/
FoamFile
{
    version     2.0;
    format      ascii;
    arch        "LSB;label=32;scalar=64";
    class       volScalarField;
    location    "2.65";
    object      alpha.galistan;
}
// * * * * * * * * * * * * * * * * * * * * * * * * * * * * * * * * * * * * * //

dimensions      [0 0 0 0 0 0 0];

internalField   nonuniform List<scalar> 
2268
(
1
1
1
1
1
1
1
1
1
1
1
1
1
1
1
1
1
1
1
1
1
0.999968
0.999945
0.999999
1
1
1
1
1
1
1
1
1
1
1
1
1
1
1
1
1
1
1
1
0.999981
0.999945
1
1
1
1
1
0.999997
0.999998
1
1
1
1
1
1
1
1
1
1
1
1
1
1
0.999999
0.999982
0.999927
0.999166
0.999808
0.999733
0.999843
0.99997
1
1
1
1
1
1
1
1
0.999999
1
1
1
1
1
1
1
1
0.878093
0.89856
0.921508
0.945728
0.965821
0.981066
0.98867
0.991506
0.991157
0.990348
0.99218
0.997158
0.999999
0.999999
0.999998
0.999998
1
1
1
1
1
0.999999
0.999953
0.178715
0.182771
0.20892
0.257115
0.311689
0.349261
0.370794
0.379884
0.386205
0.400838
0.432505
0.498975
0.605033
0.711142
0.831729
0.941487
0.998301
0.999996
0.999997
0.999999
0.999998
0.999994
0.999863
4.38675e-14
4.33369e-14
5.77521e-21
-2.8313e-09
0.000258908
0.0001319
2.22351e-05
4.88329e-08
4.57232e-08
1.58451e-05
1.26505e-05
5.65831e-08
5.52279e-08
0.0424124
0.121909
0.269523
0.509709
0.776701
0.956516
0.999999
0.99994
0.999994
0.999904
1.02814e-05
9.10557e-05
0.000106925
0.00022118
0.0002591
9.73923e-05
7.21953e-07
1.13568e-06
8.62541e-06
1.55901e-05
3.96322e-05
1.98087e-05
2.52306e-07
7.35563e-12
-1.65004e-07
5.15666e-05
0.0344765
0.118082
0.328362
0.605481
0.825644
0.941204
0.957027
0.932295
0.932294
0.931945
0.93196
0.931957
0.931957
0.931957
0.931957
0.931956
0.93129
0.942326
0.947245
0.947261
0.94725
0.947571
0.948037
0.948024
0.948011
0.947815
0.932294
0.932295
0.920437
0.890869
0.85276
0.80665
0.783558
0.777647
0.803929
0.848096
0.875642
0.911809
0.947831
0.949593
0.949615
0.949623
0.915
0.898859
0.846813
0.764439
0.683652
0.512804
0.348911
0.202504
0.136727
0.157032
0.161385
0.216174
0.339627
0.460664
0.576339
0.665626
0.742347
0.799416
0.82912
0.698563
0.541652
0.458569
0.263931
0.164089
0.0695772
7.96589e-10
7.94962e-10
7.96506e-10
7.99467e-10
7.34351e-08
0.00275825
0.00843685
0.0667349
0.191139
0.313938
0.42696
0.47305
0.36397
0.303436
0.36515
0.440272
0.0433159
1.09042e-08
1.08818e-08
1.07797e-07
7.91925e-10
0.000901141
0.00180811
0.00266096
0.01877
0.0101122
0.00983938
0.0117166
0.0567088
0.0774148
0.0815613
0.0715754
0.109452
0.177821
0.368702
0.00798498
0.000378894
1.09042e-08
3.40769e-06
1.51019e-05
1.51741e-05
0.000956617
0.0207673
0.0245562
0.0245668
0.00982746
0.00691638
0.00695193
0.0119093
0.0119482
0.0206624
0.0255458
0.0666758
0.108021
0.000340491
0.000303881
4.434e-05
4.05322e-05
4.07714e-05
3.40251e-05
6.9893e-05
0.024628
0.0163741
0.0114073
0.00704446
0.00691637
0.00691638
0.00702817
0.0140658
0.0097089
0.00521065
0.00871424
0.0174617
0.000419162
0.000725971
0.000672525
0.000137812
3.81507e-05
2.12048e-05
-1.65626e-09
0.024628
0.00872803
0.00437397
0.0147744
0.0183706
0.0158423
0.0291899
0.029159
0.0126537
0.00453071
0.00425387
0.00403932
6.28315e-05
0.00038642
0.0001364
0.00010503
2.0653e-05
1.40417e-06
7.19985e-07
7.34836e-07
1.6624e-06
8.92591e-06
0.000172983
0.000312248
0.000846893
0.01014
0.0114037
0.00700408
0.000191071
0.000191726
0.0014548
0.00763644
0.0509895
0.11977
0.194286
0.000275068
0.000387444
5.69188e-05
7.23151e-07
7.22603e-07
9.60175e-07
8.95898e-07
1.73339e-05
6.2774e-05
0.000104794
0.000205132
0.000579056
0.000932502
0.00138467
0.00169266
0.000602689
0.000435721
0.00138752
0.00209946
0.00101373
6.12117e-05
1.34447e-05
1.35118e-05
0.000312393
0.000330398
0.000356572
0.000207493
0.000157932
0.00030102
0.00020908
0.000261824
0.000294372
0.000294303
0.000264744
6.48251e-05
5.52165e-06
5.55827e-06
5.38199e-06
5.38199e-06
5.38261e-06
0.00115515
0.00392371
0.00438979
0.00380362
0.00130492
0.00108687
0.000606383
0.000250991
0.00025084
0.000270993
0.000538864
0.000566353
0.000477983
0.000321616
0.000201794
0.000180377
0.000170874
0.000174844
9.25228e-05
2.93321e-05
9.94394e-06
5.52336e-06
8.75125e-06
5.6387e-06
5.64512e-06
0.000125539
0.00074275
0.00255061
0.00462302
0.00205712
0.0035002
0.00437872
0.00263995
0.000255977
0.000147147
0.000123042
9.94428e-06
1.29755e-06
1.29529e-06
1.29529e-06
1.32386e-06
4.06688e-05
0.000134634
0.00014759
6.02639e-05
5.63854e-06
5.64476e-06
7.80724e-06
1.12551e-05
1.14029e-05
9.36315e-06
4.54212e-06
0.000788894
0.00311433
0.004378
0.00438015
0.00108286
9.55269e-05
1.35148e-06
1.53353e-06
1.32366e-06
1.29523e-06
1.29527e-06
1.65271e-06
1.63325e-06
2.35897e-05
0.000262969
0.00042893
0.000174193
0.000133118
4.53041e-05
3.11895e-05
6.64502e-05
5.53709e-05
4.91409e-06
0.000115247
0.00113198
0.00233297
0.00198136
0.000383809
1.31819e-06
1.34767e-06
1.29378e-06
1.29866e-06
3.863e-05
0.000367199
0.000339551
9.0752e-05
4.95396e-06
2.771e-07
0.00052624
0.00226695
0.00192405
0.000766332
0.00041648
0.000283894
8.32143e-05
2.69257e-06
0.000115298
0.000176608
0.000118919
0.000119864
2.02437e-05
1.30929e-06
1.30057e-06
1.29867e-06
1.30344e-06
0.000387234
0.000938948
0.000938625
0.000458365
2.16032e-06
2.80706e-07
2.57647e-07
0.00240428
0.0059281
0.00605693
0.00325272
0.000606609
6.10629e-05
2.50806e-05
0.000151703
0.000288181
0.000349058
0.000363121
0.000280273
7.58166e-05
0.000202084
0.000138644
0.000289459
0.000938977
0.000938801
0.000888012
0.000262516
2.88387e-05
6.88029e-06
2.57307e-07
2.5776e-07
0.00278953
0.00663642
0.00666492
0.00627283
0.00240501
0.000430373
0.00016534
0.000171445
0.000295778
0.000388482
0.000388845
0.000274112
0.00066755
0.000669292
0.000669272
0.000501795
0.000217191
1.41012e-05
1.98255e-05
1.55753e-05
2.08582e-06
6.99394e-07
4.91656e-07
4.9624e-07
0.000107623
0.00228033
0.00467742
0.00475641
0.00343791
4.80797e-05
1.9547e-06
2.32304e-05
0.00018505
0.000237759
0.000258098
0.000140646
0.000203725
7.24541e-05
1.206e-22
1.85982e-24
2.28384e-07
6.33621e-08
2.03739e-09
1.26894e-06
3.67916e-06
5.82426e-06
2.46649e-06
9.44394e-08
1.04622e-07
1.72132e-10
2.31209e-10
5.49004e-11
2.10909e-08
5.18008e-07
1.03073e-05
2.12687e-08
3.9487e-08
4.95157e-06
1.59848e-12
3.02046e-11
1.1444e-05
3.48969e-06
1.39152e-09
5.79277e-09
3.41353e-09
3.02053e-09
1.13219e-09
2.5074e-07
5.76589e-06
5.99252e-06
5.68376e-06
1.55411e-06
1.43892e-07
1.36608e-08
4.29306e-10
2.08855e-08
2.08846e-08
4.1116e-07
2.43563e-08
5.84927e-08
1.86446e-09
2.25457e-09
2.36265e-10
3.1316e-09
8.17373e-07
1.9671e-07
2.17931e-07
2.00567e-07
2.72166e-08
1.1178e-09
9.90821e-07
3.76889e-06
3.17781e-06
1.47611e-06
4.41885e-08
1.04467e-08
1.44147e-08
4.95373e-10
2.96416e-08
4.32499e-07
1.9378e-07
4.45194e-08
2.5419e-07
7.00397e-08
9.3414e-09
1.23969e-09
4.16241e-08
2.18545e-07
3.45794e-07
3.19681e-07
9.32971e-08
1.50044e-08
1.97148e-06
2.96797e-06
1.158e-06
1.36855e-09
1.98122e-07
1.21487e-07
1.79239e-08
1.40442e-07
5.87902e-07
4.84166e-07
6.62385e-07
4.6498e-07
4.78453e-08
1.6508e-06
1.98167e-06
4.31911e-07
2.38856e-09
2.71928e-07
1.49314e-07
1.33849e-07
6.87862e-08
4.97833e-07
3.51382e-06
3.52264e-06
1.87566e-07
1.02637e-09
1.43249e-09
1.50112e-09
3.77395e-08
2.4469e-07
1.03795e-06
4.96336e-06
3.26624e-07
4.76077e-07
1.02558e-07
3.98693e-07
9.38674e-06
9.91246e-06
1.72074e-06
2.92419e-09
2.30398e-07
8.06759e-08
3.81761e-08
3.91361e-08
7.77042e-07
1.6089e-06
1.00463e-06
4.37305e-08
1.02255e-09
3.58255e-09
2.19247e-09
1.55169e-07
1.04666e-06
5.15868e-06
5.15809e-06
2.96246e-08
2.594e-08
3.55874e-08
7.28968e-06
9.91613e-06
9.91289e-06
1.79369e-06
1.57999e-08
4.26021e-08
7.80317e-08
6.80668e-08
2.1303e-08
1.10177e-07
3.03992e-08
7.93543e-08
7.19329e-08
9.95153e-10
9.95955e-10
2.29264e-08
1.21419e-07
8.66207e-07
3.72868e-06
2.9189e-06
1.71209e-08
1.81097e-08
2.56303e-06
9.92255e-06
9.94233e-06
3.26334e-06
2.10486e-08
1.50794e-07
1.03457e-07
1.02237e-07
7.06641e-08
2.91624e-09
6.77265e-09
8.02076e-09
3.11153e-08
3.21503e-08
1.00017e-08
9.95269e-10
9.95662e-10
3.65467e-08
1.85593e-07
2.34956e-07
1.84867e-07
9.40209e-07
9.77542e-07
8.28614e-06
9.84379e-06
3.67463e-06
4.45562e-09
1.988e-08
1.66582e-07
1.1623e-07
8.3411e-08
5.12766e-08
2.93351e-09
2.99447e-09
8.83783e-09
1.69797e-08
1.80437e-08
1.1048e-08
4.98728e-09
1.57547e-09
8.62088e-10
1.02845e-09
2.55373e-09
1.41602e-08
5.36619e-06
5.21751e-06
3.85034e-06
3.1431e-07
3.03633e-09
3.27019e-09
4.01595e-08
1.65461e-07
2.68704e-08
2.36523e-08
2.80204e-08
4.27899e-09
3.69788e-09
8.3532e-09
1.33267e-08
1.39683e-08
8.76592e-09
4.8694e-09
1.91058e-09
8.0726e-10
8.72804e-10
2.44693e-09
3.97316e-09
1.65024e-06
2.02059e-06
1.67302e-09
1.3814e-09
6.3371e-09
4.93662e-08
8.22667e-08
7.11415e-08
1.44079e-09
6.77996e-09
1.02069e-08
5.80024e-09
3.40935e-09
6.16953e-09
8.17621e-09
8.48181e-09
5.81264e-09
3.39713e-09
1.45756e-09
5.98798e-10
5.28951e-10
9.09015e-10
1.12679e-09
1.3087e-09
6.77802e-10
6.43242e-10
6.78256e-09
5.3947e-08
6.92535e-08
6.06937e-08
2.23053e-08
1.34452e-09
3.61199e-09
4.40922e-09
3.18582e-09
2.49696e-09
2.79567e-09
3.53637e-09
3.76799e-09
3.11388e-09
1.84337e-09
7.98282e-10
3.28548e-10
2.38434e-10
2.53517e-10
3.32782e-10
3.91223e-09
3.79037e-09
1.63456e-09
2.61187e-08
6.22081e-08
5.36792e-08
1.03544e-09
2.93466e-09
1.29303e-09
2.05693e-09
1.86872e-09
1.39651e-09
1.20748e-09
1.19293e-09
1.50656e-09
1.64965e-09
1.30807e-09
7.87716e-10
3.64748e-10
1.51147e-10
9.81411e-11
9.3324e-11
1.02717e-10
6.17602e-09
6.15963e-09
2.60511e-09
2.7573e-08
5.46278e-08
7.66324e-09
3.08317e-10
8.51116e-10
8.8577e-10
1.00152e-09
7.60793e-10
6.23413e-10
5.59098e-10
5.49229e-10
5.81177e-10
5.7495e-10
4.56638e-10
2.77883e-10
1.31608e-10
5.94886e-11
3.94775e-11
3.22414e-11
3.14218e-11
5.7371e-09
4.32839e-09
2.00617e-09
5.90577e-09
6.50163e-09
7.18016e-10
2.55976e-10
3.48565e-10
4.32753e-10
3.92941e-10
2.95074e-10
2.43821e-10
2.10691e-10
1.90817e-10
1.8045e-10
1.65528e-10
1.29123e-10
8.10383e-11
4.09194e-11
2.01246e-11
1.30058e-11
1.10142e-11
1.00146e-11
4.30916e-09
2.51091e-09
7.88647e-10
3.38201e-10
3.36619e-10
4.47763e-10
2.51938e-10
1.5718e-10
1.6096e-10
1.25621e-10
8.95602e-11
7.23417e-11
6.01813e-11
5.15128e-11
4.47856e-11
3.85912e-11
3.03406e-11
1.91395e-11
1.08662e-11
5.74182e-12
3.85176e-12
3.30371e-12
2.85116e-12
4.25428e-09
2.35547e-09
7.09335e-10
3.29945e-10
4.06663e-10
5.48709e-10
4.12197e-10
6.59499e-11
5.23788e-11
3.46778e-11
2.19771e-11
1.65763e-11
1.31719e-11
1.06273e-11
9.00981e-12
7.633e-12
5.86364e-12
4.0434e-12
2.44529e-12
1.38964e-12
9.44923e-13
8.44231e-13
8.03353e-13
4.7898e-09
3.32182e-09
7.18254e-10
2.65131e-10
1.85458e-10
1.08801e-10
6.64084e-11
3.30152e-11
1.78027e-11
7.20876e-12
3.63323e-12
2.69829e-12
2.05733e-12
1.6336e-12
1.32837e-12
1.15026e-12
9.49306e-13
7.07932e-13
4.52937e-13
2.81367e-13
1.98114e-13
1.84117e-13
1.80777e-13
4.88028e-09
4.81653e-09
7.08866e-10
2.18119e-10
1.8203e-10
8.82586e-11
4.27053e-11
1.75875e-11
5.47384e-12
1.51206e-12
7.93316e-13
5.22955e-13
3.37023e-13
2.34864e-13
1.83328e-13
1.50902e-13
1.28551e-13
1.01979e-13
7.24067e-14
4.73622e-14
3.61396e-14
3.50739e-14
3.85374e-14
4.77219e-09
5.42767e-09
1.07512e-09
1.98087e-10
1.31876e-10
6.18583e-11
2.68446e-11
1.13667e-11
4.87525e-12
2.82988e-12
2.13277e-12
1.27527e-12
7.71035e-13
4.08748e-13
1.78579e-13
6.9668e-14
2.94183e-14
1.63538e-14
1.06738e-14
6.71779e-15
5.21118e-15
5.55091e-15
6.51033e-15
3.6188e-09
5.50229e-09
2.5381e-09
3.26554e-10
1.19766e-10
6.09865e-11
2.50169e-11
1.14826e-11
7.82147e-12
7.63262e-12
5.88371e-12
3.51322e-12
2.15275e-12
1.21818e-12
5.27732e-13
1.84402e-13
5.68512e-14
1.60941e-14
4.39928e-15
1.36485e-15
7.64552e-16
7.02124e-16
1.05883e-15
2.91442e-09
5.46504e-09
3.16838e-09
9.32587e-10
1.49858e-10
7.96714e-11
4.35608e-11
3.10591e-11
2.64149e-11
2.01876e-11
1.37326e-11
7.56958e-12
4.76601e-12
3.01136e-12
1.3992e-12
4.89954e-13
1.45957e-13
3.93317e-14
9.20525e-15
1.76512e-15
3.91541e-16
1.2935e-16
1.43523e-16
2.03304e-09
2.75456e-09
3.60279e-09
1.56977e-09
2.5929e-10
1.18692e-10
9.2972e-11
9.70919e-11
9.85011e-11
6.94075e-11
4.44083e-11
2.25982e-11
1.16547e-11
5.73873e-12
3.05634e-12
1.10168e-12
3.39984e-13
8.80344e-14
2.01106e-14
3.52934e-15
7.07089e-16
8.25129e-17
2.74078e-17
1.72945e-09
1.66235e-09
3.08771e-09
1.17408e-09
4.16479e-10
2.46097e-10
2.60915e-10
3.27773e-10
3.21557e-10
1.80047e-10
8.99988e-11
4.67908e-11
2.06558e-11
1.17158e-11
5.36573e-12
2.01651e-12
6.61076e-13
1.76819e-13
3.92716e-14
7.11742e-15
1.28641e-15
1.39188e-16
1.76854e-17
1.68254e-09
4.85102e-10
7.22437e-10
8.87681e-10
4.67823e-10
4.17739e-10
6.09643e-10
7.86861e-10
6.70435e-10
3.75959e-10
1.85354e-10
7.18589e-11
3.14053e-11
1.69513e-11
8.19449e-12
3.19398e-12
1.05335e-12
2.94005e-13
6.39061e-14
1.11799e-14
2.08919e-15
1.83596e-16
2.36366e-17
2.26259e-09
2.75725e-10
3.24339e-10
3.88807e-10
4.68632e-10
6.1247e-10
1.09965e-09
1.1848e-09
9.31376e-10
5.74622e-10
2.39231e-10
8.93108e-11
4.0624e-11
1.97732e-11
8.82468e-12
3.45434e-12
1.19463e-12
3.53709e-13
8.42925e-14
1.48278e-14
2.51756e-15
2.84461e-16
2.68019e-17
3.72945e-09
2.75665e-10
2.77873e-10
3.18092e-10
4.71116e-10
9.4862e-10
1.46638e-09
1.54746e-09
1.22277e-09
6.87668e-10
2.71872e-10
1.05111e-10
4.53439e-11
2.02887e-11
8.44987e-12
3.15694e-12
1.07224e-12
3.147e-13
7.70572e-14
1.42973e-14
2.48214e-15
2.02929e-16
2.30052e-17
5.77046e-09
5.13367e-10
3.60541e-10
5.12603e-10
7.56043e-10
1.54542e-09
2.22287e-09
2.02602e-09
1.32942e-09
6.82673e-10
2.6395e-10
1.07067e-10
4.45436e-11
1.86989e-11
6.96122e-12
2.31227e-12
7.05689e-13
1.93656e-13
4.7268e-14
9.15683e-15
1.4041e-15
1.65376e-16
1.41888e-17
6.6388e-09
1.60311e-09
7.31717e-10
1.06345e-09
1.37525e-09
2.10118e-09
2.44791e-09
2.00138e-09
1.0769e-09
4.91044e-10
2.12769e-10
8.44592e-11
3.74972e-11
1.46686e-11
4.61022e-12
1.25503e-12
3.15167e-13
7.37651e-14
1.60661e-14
3.42413e-15
6.4214e-16
5.93748e-17
6.44731e-18
6.51879e-09
2.57605e-09
1.20353e-09
1.35307e-09
1.5965e-09
2.23982e-09
2.35895e-09
9.25856e-10
4.93883e-10
2.58695e-10
1.24463e-10
5.72427e-11
2.60275e-11
9.49906e-12
2.53446e-12
5.31259e-13
9.53077e-14
1.54367e-14
2.9752e-15
7.66083e-16
1.36542e-16
2.08024e-17
2.34646e-18
5.3944e-09
2.50992e-09
1.1175e-09
1.16074e-09
1.03275e-09
1.35809e-09
1.25347e-09
2.02184e-10
1.13505e-10
8.89858e-11
5.18678e-11
2.43772e-11
1.20272e-11
4.23672e-12
9.92108e-13
1.56039e-13
1.7492e-14
1.61408e-15
2.51387e-16
1.06912e-16
2.44577e-17
4.20033e-18
6.66268e-19
8.30251e-10
3.5628e-10
2.06053e-10
1.71539e-10
9.81106e-11
2.35722e-10
1.66675e-10
1.37785e-11
6.66712e-12
1.00881e-11
1.01108e-11
4.91404e-12
2.71903e-12
8.9273e-13
1.74486e-13
1.91122e-14
1.24847e-15
5.80697e-17
1.03519e-17
9.23224e-18
3.68032e-18
7.86197e-19
1.62984e-19
0.201855
0.194744
0.125256
0.00187703
5.76981e-05
5.04998e-05
0.00141839
0.00284165
0.00114476
0.000999972
0.000424036
4.67427e-05
0.00462465
0.00459731
0.00463888
0.00173709
0.00116992
0.00315956
0.00435054
0.00173741
2.68345e-06
2.51946e-06
3.06004e-06
3.27157e-06
2.52046e-06
2.45776e-06
3.36394e-06
5.80441e-06
1.09578e-05
2.44247e-06
5.71713e-06
5.59753e-06
2.55305e-05
1.12973e-07
7.4691e-13
0.000961665
0.000595385
6.44433e-11
-1.25032e-10
0.00422391
4.70568e-11
9.68141e-09
-2.54605e-10
0.000314823
4.34117e-08
2.81882e-07
2.45756e-07
3.21264e-12
8.61106e-07
1.62774e-06
1.38964e-06
4.03494e-07
1.11611e-06
1.04274e-06
1.03603e-06
1.35913e-06
5.15853e-06
5.15873e-06
5.15869e-06
5.15872e-06
5.15869e-06
4.24957e-06
7.99391e-07
1.29165e-06
1.49255e-09
1.61374e-07
6.77816e-09
6.8783e-09
7.67519e-10
7.71254e-10
1.34065e-09
8.12409e-10
5.59012e-09
7.84279e-10
7.51269e-10
8.11447e-10
2.26322e-09
9.52085e-10
7.01806e-10
5.24145e-10
8.89113e-10
6.52531e-10
4.43351e-10
2.87674e-10
2.93313e-10
2.40717e-10
2.12708e-10
1.36585e-10
9.55827e-11
8.67046e-11
7.58082e-11
5.47575e-11
2.77113e-11
2.63003e-11
2.6894e-11
2.06132e-11
8.50232e-12
8.53357e-12
8.35418e-12
7.12561e-12
2.45264e-12
2.46997e-12
2.61594e-12
2.38123e-12
6.34208e-13
6.82357e-13
7.51717e-13
7.44744e-13
1.48527e-13
1.69186e-13
2.06618e-13
2.22343e-13
3.29005e-14
3.98531e-14
5.38869e-14
6.11341e-14
6.46756e-15
8.56983e-15
1.22723e-14
1.54256e-14
1.108e-15
1.59241e-15
2.67043e-15
3.6213e-15
1.69255e-16
3.13766e-16
5.51759e-16
8.78657e-16
3.09635e-17
5.46219e-17
1.33259e-16
2.27449e-16
6.96392e-18
1.50954e-17
3.40251e-17
7.444e-17
2.281e-18
3.42054e-18
1.10526e-17
2.23231e-17
1.35171e-18
1.21057e-18
2.73247e-18
7.74892e-18
1.062e-18
3.26426e-19
8.53988e-19
1.86873e-18
8.64651e-19
1.23046e-19
1.49636e-19
5.14345e-19
5.14138e-19
4.19684e-20
3.36852e-20
7.69595e-20
2.33044e-19
1.66875e-20
4.63222e-21
1.48806e-20
7.97576e-20
5.87773e-21
9.96005e-22
2.07245e-21
2.1696e-20
1.87325e-21
1.93542e-22
2.54114e-22
0.000394622
0.00190723
0.00717976
0.00416399
0.000144236
7.85313e-08
2.9589e-16
0.0197638
0.00930028
0.00437741
0.0137581
0.0314297
0.0314296
0.0314247
0.0143773
0.00429578
0.00429591
0.00464482
0.004039
0.000135322
0.00520008
0.012618
0.0106667
0.000880344
3.926e-17
3.93912e-17
0.00817725
0.0127714
0.00456996
0.00187781
0.00358455
0.0285109
0.023339
0.00880504
0.00759679
0.0121209
0.0154704
0.00403898
2.54251e-05
0.00289134
0.0126087
0.012619
0.00649704
0.000929258
2.19152e-07
0.000345874
0.00930195
0.0108863
0.00574658
0.00154286
0.00780562
0.0166003
0.00994709
0.0133541
0.0192745
0.0192776
0.0148256
9.09557e-05
0.000544973
0.000331502
0.00466084
0.0157845
0.0161672
0.00761121
0.0011023
9.64403e-05
0.00413353
0.00473232
0.00155726
0.00146197
0.0017013
0.00895993
0.0105263
0.0107888
0.0177108
0.0178828
0.00026139
0.000303642
0.000121951
7.13015e-05
0.00580839
0.0160803
0.0165462
0.00393987
1.03842e-07
2.98048e-08
0.00591307
0.00790617
0.00478358
0.00271956
0.00258412
0.00374136
0.00489403
0.0121159
0.0178931
0.000120393
0.000265037
0.000273257
7.70501e-05
8.72702e-06
0.00509653
0.0167063
0.00423543
9.06252e-06
8.33713e-08
2.97951e-07
0.00474811
0.0116549
0.00834899
0.00258717
0.00355564
0.00330921
0.00337425
0.0157183
6.09598e-06
3.1993e-05
4.70462e-05
2.04634e-05
8.70675e-06
0.0015339
0.0190186
0.012942
0.00104999
0.000286983
3.75241e-07
0.00238515
0.0116221
0.011701
0.0111443
0.00485159
0.00201258
0.00214079
0.0140453
1.04032e-05
2.46257e-05
1.6917e-05
8.91379e-06
7.14356e-06
0.00565599
0.0192151
0.0191855
0.0157762
0.00197473
5.433e-05
0.00476894
0.011701
0.0116984
0.00906798
0.00235769
0.00200416
0.00242264
0.00615568
0.00178701
0.000824375
4.74142e-05
6.66348e-06
6.52155e-06
0.00300561
0.0179728
0.0192045
0.016631
0.00244949
0.000712766
0.00403195
0.00393699
0.00195004
0.000565987
4.99271e-05
0.000613115
0.000731012
1.14716e-05
0.00822634
0.00641495
0.000569255
6.52424e-06
0.000145663
0.00191541
0.0037813
0.00531759
0.00427227
0.00246867
0.000418481
0.000102324
1.39486e-05
1.19586e-06
1.17597e-06
4.37087e-06
5.3669e-06
1.30613e-06
2.55533e-06
0.00746831
0.00591517
0.000459078
7.2186e-06
0.000244126
6.9802e-05
3.32653e-06
3.46736e-05
0.000115754
0.000356084
0.000178058
5.49475e-05
8.14237e-06
1.08096e-06
1.87124e-06
5.57762e-06
4.41131e-06
1.08856e-06
1.10506e-06
1.12741e-12
1.92869e-12
3.80016e-05
9.03045e-05
0.000112692
2.20932e-05
2.71188e-06
6.813e-06
6.84416e-05
7.58738e-05
6.82348e-05
2.24161e-05
5.28533e-06
1.08778e-06
5.46857e-06
1.63125e-05
1.51383e-05
7.79773e-06
1.08729e-06
3.33316e-06
1.43438e-05
1.92727e-05
3.05843e-05
2.003e-05
4.65889e-06
2.69496e-06
1.1111e-06
1.24736e-05
2.60321e-05
2.53004e-06
5.77302e-06
5.56636e-06
3.73435e-06
8.52879e-06
1.99162e-05
1.99155e-05
1.99144e-05
1.08628e-06
2.17991e-06
2.40767e-06
5.01222e-06
2.17179e-06
6.80236e-07
7.64652e-07
9.81924e-07
2.99635e-07
2.4669e-06
1.04016e-06
2.24449e-09
1.4161e-06
4.0493e-06
2.45653e-06
3.72311e-06
8.4168e-06
1.86693e-05
1.99164e-05
8.03977e-06
1.07846e-06
4.28268e-09
2.43965e-07
1.12514e-09
1.12289e-09
1.12933e-09
1.13248e-09
5.80837e-08
1.98594e-10
1.99688e-10
1.98687e-10
1.98759e-10
2.23268e-07
6.2631e-07
5.1954e-08
1.13653e-07
3.28717e-06
1.93551e-05
1.40235e-05
1.12909e-06
4.25845e-09
4.28588e-09
8.91467e-09
2.18875e-09
1.16081e-09
1.17455e-09
3.19196e-09
3.13043e-10
3.61799e-10
3.16695e-10
2.09014e-10
8.19244e-10
8.28407e-10
5.06885e-08
2.55109e-07
5.17222e-08
3.38924e-06
6.03287e-06
4.33782e-08
1.21859e-08
4.06592e-09
4.55084e-09
2.74934e-09
1.24563e-09
1.25916e-09
1.35813e-09
6.02825e-10
4.65438e-10
2.72885e-10
2.43217e-10
5.85671e-10
1.80766e-08
1.31654e-07
3.72336e-07
5.17783e-08
5.17479e-08
5.17667e-08
1.7831e-09
5.3342e-09
2.03487e-09
1.97936e-09
1.89483e-09
9.52038e-10
8.86197e-10
8.18358e-10
4.32273e-10
3.18037e-10
2.69223e-10
4.58061e-10
2.62669e-09
5.56236e-08
1.76495e-07
2.30747e-07
5.17909e-08
5.18661e-08
5.17886e-08
7.83563e-10
1.20606e-09
7.49431e-10
8.21382e-10
8.78491e-10
5.25638e-10
3.75049e-10
2.64656e-10
2.15608e-10
1.87849e-10
3.39843e-10
9.15823e-10
5.41113e-09
3.04718e-08
4.93216e-08
6.34504e-08
8.00862e-08
1.04078e-07
8.19199e-08
4.08195e-10
3.57885e-10
2.95129e-10
3.27486e-10
3.54774e-10
2.41168e-10
1.17364e-10
6.83151e-11
8.78152e-11
1.17505e-10
3.43711e-10
1.03845e-09
2.41392e-09
2.79468e-09
3.70746e-09
1.67293e-08
1.29104e-07
3.76194e-07
3.63751e-07
2.01486e-10
1.464e-10
1.32784e-10
1.35576e-10
1.41708e-10
1.06036e-10
5.68003e-11
3.37837e-11
3.83661e-11
1.01192e-10
2.6423e-10
5.87788e-10
7.59623e-10
5.04384e-10
6.75074e-10
2.59795e-09
9.08144e-08
2.90009e-07
3.97444e-07
9.49293e-11
6.77755e-11
6.01306e-11
5.77462e-11
5.83424e-11
5.03775e-11
3.51471e-11
2.31942e-11
2.71344e-11
6.03888e-11
1.57807e-10
3.24736e-10
4.10464e-10
4.37578e-10
8.38412e-10
1.22462e-09
2.54378e-08
1.52168e-07
2.478e-07
4.0194e-11
3.08054e-11
2.80543e-11
2.70017e-11
2.63867e-11
2.38125e-11
2.01065e-11
1.59976e-11
1.90552e-11
3.5177e-11
8.25666e-11
1.64931e-10
2.2895e-10
3.20921e-10
6.23898e-10
8.53743e-10
8.48642e-10
1.8515e-08
8.49112e-08
1.62842e-11
1.34099e-11
1.27684e-11
1.25931e-11
1.26069e-11
1.1645e-11
1.04355e-11
9.78949e-12
1.12454e-11
1.84619e-11
3.92699e-11
7.78432e-11
1.16158e-10
1.57903e-10
3.27691e-10
6.40626e-10
1.12979e-09
1.13746e-09
1.18461e-09
6.1976e-12
5.5704e-12
5.55382e-12
5.67394e-12
5.70643e-12
5.45202e-12
5.25406e-12
5.14572e-12
6.10678e-12
9.06403e-12
1.76057e-11
3.4758e-11
5.6114e-11
6.98773e-11
1.36282e-10
4.26162e-10
1.34755e-09
1.80306e-09
1.8331e-09
2.21096e-12
2.1717e-12
2.28421e-12
2.39565e-12
2.43802e-12
2.42159e-12
2.45681e-12
2.61771e-12
3.05853e-12
4.55629e-12
8.17598e-12
1.58162e-11
2.72991e-11
3.93351e-11
6.89389e-11
2.1755e-10
1.15647e-09
2.19254e-09
2.46404e-09
7.44615e-13
7.94886e-13
8.77703e-13
9.439e-13
9.84759e-13
1.02401e-12
1.1185e-12
1.32975e-12
1.76539e-12
2.76035e-12
4.81954e-12
9.03235e-12
1.63159e-11
2.58339e-11
4.27982e-11
1.08554e-10
7.41472e-10
2.04281e-09
2.41337e-09
2.3494e-13
2.70512e-13
3.14115e-13
3.50124e-13
3.8371e-13
4.35452e-13
5.48571e-13
7.91491e-13
1.28754e-12
2.23322e-12
4.17277e-12
7.66908e-12
1.35398e-11
2.42192e-11
4.40234e-11
1.00391e-10
5.24467e-10
1.91478e-09
1.90509e-09
6.78099e-14
8.61492e-14
1.05866e-13
1.26216e-13
1.54013e-13
2.08316e-13
3.29627e-13
5.96258e-13
1.15809e-12
2.26863e-12
4.35748e-12
8.27516e-12
1.58096e-11
3.02149e-11
5.65941e-11
1.36632e-10
5.42117e-10
1.85136e-09
1.80553e-09
1.84326e-14
2.60757e-14
3.49821e-14
4.77809e-14
7.12545e-14
1.23443e-13
2.43855e-13
5.16081e-13
1.11092e-12
2.34387e-12
4.71451e-12
9.76061e-12
1.99962e-11
3.94306e-11
8.17799e-11
2.05597e-10
6.26945e-10
1.84972e-09
1.58654e-09
4.72566e-15
7.70421e-15
1.24048e-14
2.10801e-14
4.03363e-14
8.46759e-14
1.9259e-13
4.48092e-13
1.00168e-12
2.22632e-12
4.90977e-12
1.11039e-11
2.52624e-11
6.0524e-11
1.32261e-10
2.8138e-10
8.23447e-10
1.82782e-09
1.44343e-09
1.28056e-15
2.52572e-15
5.17677e-15
1.0983e-14
2.50983e-14
6.04075e-14
1.45099e-13
3.54846e-13
8.52704e-13
1.97479e-12
4.68333e-12
1.10769e-11
2.66758e-11
6.83111e-11
1.87519e-10
4.1144e-10
9.14235e-10
1.79536e-09
9.81523e-10
3.93328e-16
9.93554e-16
2.40475e-15
5.93739e-15
1.53153e-14
3.92447e-14
9.84085e-14
2.42289e-13
6.27389e-13
1.58551e-12
3.89065e-12
9.79473e-12
2.44142e-11
6.56549e-11
1.87944e-10
4.70449e-10
9.16527e-10
1.51345e-09
8.02082e-10
1.41854e-16
4.09637e-16
1.13782e-15
3.19468e-15
8.42459e-15
2.19719e-14
5.83018e-14
1.5018e-13
4.08792e-13
1.08939e-12
2.89228e-12
7.61083e-12
1.94949e-11
5.36254e-11
1.5815e-10
4.40877e-10
8.54941e-10
1.14828e-09
6.16864e-10
4.94314e-17
1.69859e-16
5.01174e-16
1.425e-15
3.98451e-15
1.07091e-14
2.8833e-14
8.09054e-14
2.25055e-13
6.61254e-13
1.88616e-12
5.12228e-12
1.37599e-11
3.77135e-11
1.10776e-10
3.24134e-10
6.99261e-10
8.06312e-10
4.25375e-10
1.61078e-17
6.15334e-17
1.89037e-16
5.64332e-16
1.58517e-15
4.36037e-15
1.25169e-14
3.67621e-14
1.09868e-13
3.45394e-13
1.05828e-12
3.10017e-12
8.53058e-12
2.32263e-11
6.54564e-11
1.81829e-10
4.11687e-10
6.06791e-10
2.38379e-10
4.80085e-18
1.75739e-17
6.03561e-17
1.82795e-16
5.2258e-16
1.51354e-15
4.42402e-15
1.38853e-14
4.72089e-14
1.59911e-13
5.27084e-13
1.63027e-12
4.74422e-12
1.29845e-11
3.56712e-11
9.35074e-11
2.06621e-10
2.95518e-10
1.55855e-10
1.13209e-18
4.57439e-18
1.58753e-17
4.97183e-17
1.45737e-16
4.44693e-16
1.40022e-15
4.65177e-15
1.74081e-14
6.48399e-14
2.33667e-13
7.74818e-13
2.32964e-12
6.5006e-12
1.73801e-11
4.48958e-11
9.62828e-11
1.69893e-10
7.82641e-11
2.54418e-19
1.0371e-18
3.62473e-18
1.14081e-17
3.66659e-17
1.0821e-16
3.75025e-16
1.35112e-15
5.12232e-15
2.28855e-14
9.15432e-14
3.30324e-13
1.05338e-12
3.01696e-12
7.78727e-12
2.00646e-11
4.60762e-11
6.73183e-11
4.18507e-11
4.42824e-20
1.98225e-19
7.17246e-19
2.35148e-18
7.42792e-18
2.36215e-17
8.21592e-17
3.20943e-16
1.37928e-15
6.46571e-15
2.91187e-14
1.15306e-13
3.97479e-13
1.19118e-12
3.03548e-12
7.80246e-12
1.54696e-11
2.83084e-11
2.05766e-11
6.74168e-21
3.22382e-20
1.22799e-19
4.30482e-19
1.40565e-18
4.72325e-18
1.68118e-17
6.87635e-17
3.21338e-16
1.64735e-15
7.88794e-15
3.53366e-14
1.32868e-13
4.22749e-13
1.158e-12
2.88476e-12
5.60653e-12
1.13047e-11
1.10932e-11
8.90886e-22
4.58426e-21
1.85485e-20
6.94036e-20
2.40687e-19
8.60615e-19
3.20338e-18
1.37099e-17
6.90691e-17
3.73759e-16
2.08118e-15
1.02717e-14
4.22967e-14
1.43499e-13
4.08312e-13
1.0191e-12
1.93396e-12
3.59645e-12
3.14407e-12
)
;

boundaryField
{
    leftWall
    {
        type            zeroGradient;
    }
    rightWall
    {
        type            zeroGradient;
    }
    lowerWall
    {
        type            zeroGradient;
    }
    atmosphere
    {
        type            inletOutlet;
        inletValue      uniform 0;
        value           nonuniform List<scalar> 
46
(
0
0
0
0
0
0
0
0
0
0
0
0
0
0
0
0
0
0
0
0
0
7.86197e-19
1.62984e-19
2.1696e-20
1.87325e-21
1.93542e-22
2.54114e-22
8.90886e-22
4.58426e-21
1.85485e-20
6.94036e-20
2.40687e-19
8.60615e-19
3.20338e-18
1.37099e-17
6.90691e-17
3.73759e-16
2.08118e-15
1.02717e-14
4.22967e-14
1.43499e-13
4.08312e-13
1.0191e-12
1.93396e-12
3.59645e-12
3.14407e-12
)
;
    }
    defaultFaces
    {
        type            empty;
    }
}


// ************************************************************************* //
