/*--------------------------------*- C++ -*----------------------------------*\
| =========                 |                                                 |
| \\      /  F ield         | OpenFOAM: The Open Source CFD Toolbox           |
|  \\    /   O peration     | Version:  2312                                  |
|   \\  /    A nd           | Website:  www.openfoam.com                      |
|    \\/     M anipulation  |                                                 |
\*---------------------------------------------------------------------------*/
FoamFile
{
    version     2.0;
    format      ascii;
    arch        "LSB;label=32;scalar=64";
    class       volScalarField;
    location    "2.65";
    object      alpha.oil;
}
// * * * * * * * * * * * * * * * * * * * * * * * * * * * * * * * * * * * * * //

dimensions      [0 0 0 0 0 0 0];

internalField   nonuniform List<scalar> 
2268
(
7.76376e-10
7.1682e-10
5.70353e-10
3.53832e-10
1.93146e-10
2.74505e-10
2.74631e-10
1.67504e-09
9.61304e-10
2.50883e-10
1.02681e-10
8.84408e-11
8.73821e-11
8.80839e-11
8.9236e-11
9.25142e-11
1.07408e-10
1.62881e-10
2.45568e-10
2.45638e-10
4.04724e-08
3.24897e-05
5.52953e-05
9.19216e-10
3.64283e-10
2.88051e-10
1.96031e-10
1.79149e-10
1.79143e-10
8.67258e-08
6.19798e-08
4.812e-09
6.35068e-10
4.51172e-10
4.12376e-10
3.13812e-10
2.90339e-10
2.70676e-10
2.39599e-10
2.27746e-10
3.24084e-10
5.49184e-10
4.2148e-10
4.21831e-10
1.9018e-05
5.52752e-05
1.53188e-10
1.53934e-10
1.53704e-10
1.54451e-10
5.3265e-10
2.72148e-06
1.75362e-06
4.20083e-09
7.71804e-10
6.49527e-10
6.97717e-10
6.48364e-10
3.3592e-10
8.42959e-10
8.02183e-10
4.66363e-10
2.39486e-10
2.63938e-10
2.29622e-10
1.79467e-10
2.13688e-08
9.65394e-07
1.75029e-05
2.65072e-05
0.000834432
0.000191772
0.000267084
0.000156898
3.01792e-05
6.63355e-10
6.50012e-10
6.49851e-10
6.49774e-10
6.49487e-10
6.49206e-10
4.29624e-07
1.93906e-07
5.29764e-07
1.90896e-07
3.73416e-09
5.18674e-10
5.80438e-11
5.90928e-11
2.58002e-08
3.24776e-08
2.83251e-08
0.00373837
0.00735626
0.00574894
0.00262274
0.000258411
5.86861e-05
0.000194213
0.00029494
0.000303772
0.000249317
0.000164662
1.08038e-05
6.86641e-07
6.71662e-07
1.55076e-06
1.4819e-06
4.7891e-07
2.19095e-07
4.58469e-08
2.05886e-07
1.40908e-07
3.52502e-08
1.12012e-06
0.00731012
0.00735589
0.00708034
0.00213987
3.16224e-05
0.000219449
0.00067842
0.000678412
0.00067843
0.000678412
0.000513003
0.000340265
0.000154825
3.0234e-05
4.73795e-07
4.73783e-07
4.73795e-07
4.09203e-06
3.06982e-06
1.28278e-06
2.29104e-07
9.84876e-07
6.39789e-05
0.00438045
0.000830137
-3.94109e-10
-4.54968e-10
8.9559e-05
0.000325255
0.000435642
0.000384961
0.000286511
0.000238207
0.000392148
0.00146681
0.0111127
0.0427625
0.0497716
0.0274559
0.0007332
2.47815e-22
6.93132e-24
2.06078e-07
5.8527e-05
1.14757e-06
8.7176e-05
0.0020236
0.000177991
-4.5909e-09
3.55457e-05
6.11661e-05
3.9277e-05
1.52639e-05
6.67223e-06
3.39185e-06
4.11355e-05
0.000565529
0.0085804
0.023206
0.0808975
0.121962
0.088301
0.0527588
0.00552028
0.0440412
0.044051
0.0405443
0.00353166
0.00258919
0.0404009
0.0402729
0.0402729
0.0410071
0.0424436
0.0424435
0.0430239
0.0431132
0.039309
0.0349951
0.0308052
0.0278909
0.0278909
0.0278909
0.0278909
0.0278909
0.0297255
0.0352592
0.0370734
0.0476342
0.0494237
0.0612646
0.0881744
0.124257
0.170271
0.193486
0.200467
0.17608
0.13064
0.0945898
0.0619771
0.0296502
0.0294096
0.0300893
0.0353705
0.0676359
0.0765885
0.134573
0.0476218
0.156334
0.263369
0.32734
0.406545
0.500315
0.525212
0.525224
0.525212
0.51211
0.466063
0.404208
0.319673
0.242934
0.187317
0.144259
0.256011
0.416873
0.514301
0.155202
0.327166
0.33171
0.331629
0.329784
0.38254
0.498212
0.423975
0.481661
0.525685
0.525698
0.525663
0.525669
0.525635
0.405276
0.205028
0.255584
0.507401
0.533132
0.363889
0.335342
0.279158
0.184873
0.0669
0.101676
0.357361
0.179967
0.056228
0.459086
0.525663
0.525676
0.468799
0.439107
0.361612
0.14091
0.140954
0.437104
0.533172
0.363886
0.184379
0.0144172
1.48574e-06
1.53263e-06
2.9575e-05
0.191549
0.128216
0.0201034
0.372666
0.517276
0.512435
0.477844
0.434018
0.202291
0.0853321
0.170817
0.51485
0.533158
0.30834
0.0357429
3.30473e-07
1.46278e-06
3.21758e-06
1.10747e-05
0.152893
0.0435823
0.0200377
0.196376
0.357962
0.339864
0.303581
0.156725
0.0955218
0.0845326
0.283434
0.514015
0.533199
-1.88326e-06
4.53926e-08
4.89698e-08
5.27433e-08
1.49227e-06
2.91454e-06
0.115089
0.00336969
0.0181868
0.0242474
0.0740755
0.150442
0.311929
0.184253
0.0918373
0.0842019
0.380693
0.513463
0.53317
0.000857474
7.08775e-05
-3.9714e-09
1.67252e-06
3.68751e-07
7.98198e-10
1.97832e-07
2.08906e-06
3.20044e-06
2.78649e-06
2.76389e-06
0.0303384
0.129792
0.284366
0.285673
0.285591
0.203553
0.0374538
0.00797026
0.0268839
0.0474119
0.0472629
0.0263346
0.000136388
6.70242e-06
-3.68763e-10
3.57135e-26
2.97078e-23
-7.68812e-18
-4.00579e-12
-9.44279e-11
0.00505605
0.0339757
0.0563175
0.0835852
0.139463
0.316277
0.274605
0.0680713
0.00205144
0.00100563
0.00101562
0.00711733
0.00855406
0.00803661
0.00803857
9.78453e-05
5.50713e-05
-1.82344e-11
-2.93917e-21
0.0130281
0.0647201
0.137993
0.288879
0.507791
0.67157
0.722739
0.677698
0.562638
0.42056
0.303074
0.270811
0.267466
0.321962
0.365769
0.350191
0.260485
0.202877
0.236932
0.301916
0.143124
0.0819831
0.1314
0.303911
0.590781
0.770099
0.939001
0.985155
0.99467
0.997169
0.99212
0.97645
0.964512
0.957428
0.927761
0.856982
0.831914
0.845258
0.877551
0.900962
0.937152
0.943208
0.922981
0.863768
0.60308
0.517537
0.708185
0.839665
0.952198
0.999273
0.999283
0.999283
0.999283
0.999283
0.999258
0.999172
0.99916
0.999161
0.999157
0.972561
0.939459
0.968521
0.974506
0.943403
0.943205
0.922981
0.922894
0.81133
0.645195
0.645345
0.6707
0.922179
0.998928
0.991316
0.997416
0.999241
0.999282
0.999283
0.999281
0.999048
0.998868
0.99866
0.998702
0.998702
0.998702
0.996753
0.947375
0.958471
0.922385
0.880588
0.766061
0.681232
0.678573
0.820803
0.925891
0.865089
0.631752
0.709894
0.944912
0.981929
0.982359
0.988244
0.994692
0.997403
0.996704
0.997274
0.998498
0.998702
0.998701
0.998702
0.997388
0.551241
0.633849
0.858615
0.862185
0.882846
0.883003
0.849434
0.596235
0.342108
0.342791
0.431317
0.429484
0.442596
0.510125
0.633934
0.748145
0.81571
0.858614
0.916465
0.973537
0.997206
0.998582
0.9987
0.111991
0.268289
0.428308
0.53407
0.540514
0.435339
0.284506
0.314842
0.340413
0.199993
0.0183797
-4.48738e-20
6.97958e-20
3.33714e-17
0.00575153
0.0420841
0.0888022
0.118773
0.181782
0.332058
0.571623
0.769627
0.86953
0.0037593
-9.17278e-10
1.67438e-06
0.008545
0.0133135
0.00967646
0.0182394
0.0238828
0.021515
0.00478877
1.91009e-20
-4.92799e-22
1.41501e-08
1.31529e-07
1.14712e-13
8.40252e-14
-3.11997e-26
-4.24443e-27
2.76944e-26
-1.07026e-08
1.1e-13
1.09022e-13
0.0306042
-1.9057e-22
-2.01775e-07
5.45915e-07
1.21031e-17
4.87028e-18
2.51856e-20
4.87738e-18
3.03849e-14
-7.79187e-07
-1.34946e-06
-1.18673e-06
-5.97796e-07
-7.44322e-08
2.55959e-06
3.10119e-06
2.40902e-06
1.89597e-06
1.90386e-06
1.28405e-06
1.74433e-06
2.47683e-06
1.84122e-06
9.64331e-07
6.05915e-08
4.28529e-10
0.000234416
0.00108271
0.00110762
0.00096204
0.000509661
0.000155666
1.19498e-07
1.44045e-15
-1.49851e-08
-3.39214e-08
1.96132e-09
9.40145e-07
2.34162e-06
5.10578e-06
2.10723e-05
1.92546e-05
2.065e-06
9.27679e-07
1.43789e-05
1.87006e-05
1.86018e-05
5.77172e-08
3.59889e-07
5.03518e-06
0.000299541
0.000192229
4.46467e-05
5.37424e-07
1.61783e-08
4.49961e-08
2.96632e-09
3.12935e-11
-3.12934e-11
1.46719e-05
1.96579e-05
2.79812e-05
3.43447e-05
3.42866e-05
2.06628e-05
4.58726e-06
9.80039e-07
1.13907e-07
6.21199e-08
2.65243e-10
3.66248e-07
3.09127e-07
1.21837e-06
9.03163e-08
4.3684e-08
3.56416e-08
2.41621e-09
4.23101e-09
2.30869e-08
2.1404e-09
3.73658e-08
3.48777e-05
5.65707e-05
5.65002e-05
4.75871e-05
1.21264e-05
9.8869e-06
4.0763e-05
4.53568e-05
1.20686e-05
9.96295e-08
1.70818e-06
3.34123e-06
1.93402e-06
1.33029e-06
7.93332e-07
8.35425e-08
2.97395e-05
1.41069e-05
1.07479e-06
1.62222e-08
8.22496e-08
8.32073e-07
2.74279e-05
5.61773e-05
5.58023e-05
4.68377e-05
3.94181e-06
1.13865e-05
9.60278e-05
0.000101009
9.26862e-05
4.75756e-06
1.25819e-06
1.41805e-05
3.62276e-05
1.93449e-06
1.22394e-06
8.05887e-07
5.67934e-05
0.000159073
0.000109642
2.53815e-06
3.82164e-14
9.786e-08
1.4346e-05
5.61599e-05
5.6173e-05
2.89948e-05
3.09144e-06
1.51616e-07
3.42358e-05
0.000109222
0.000109219
9.95197e-05
3.18122e-07
4.63998e-07
2.67421e-05
3.62323e-05
1.50777e-06
1.31683e-06
1.18845e-06
0.000155177
0.000159392
0.00012201
3.4137e-06
1.10145e-13
1.09003e-06
2.62753e-05
5.61559e-05
5.02527e-05
8.30689e-08
1.08281e-07
1.51179e-07
5.56442e-06
4.07858e-05
6.71192e-05
3.25475e-05
1.30608e-07
1.73544e-07
1.32099e-05
2.45322e-05
1.2733e-06
1.26775e-06
0.000100788
0.000158905
0.000158732
2.79289e-05
4.29256e-11
5.00961e-14
1.57442e-06
2.67026e-05
5.61429e-05
2.9766e-05
8.27922e-08
8.30733e-08
8.82847e-08
8.14355e-08
1.49345e-07
2.87673e-07
8.47142e-08
1.30593e-07
4.02318e-07
4.72517e-07
6.12133e-07
2.01671e-05
1.08549e-05
0.000155874
0.000152676
2.62444e-05
2.58261e-08
1.69846e-08
5.84228e-09
1.9289e-06
1.29131e-05
3.23414e-05
4.7953e-06
2.57674e-07
8.08575e-08
8.07423e-08
3.67038e-08
4.49808e-08
4.07517e-08
2.76904e-08
4.67462e-08
1.89001e-07
1.96577e-07
2.37733e-08
7.60035e-05
7.4375e-05
3.29858e-05
3.09782e-09
1.72235e-08
1.89262e-08
5.20309e-08
2.68169e-08
1.15885e-07
9.35192e-08
1.52832e-07
7.7011e-08
9.45904e-07
7.29981e-07
6.05966e-08
1.54749e-08
2.93935e-08
2.41974e-08
1.44912e-08
1.24931e-08
2.71541e-08
4.09257e-08
2.9504e-08
3.09499e-05
3.9144e-05
6.23981e-08
3.2893e-09
1.66929e-08
4.76643e-08
4.95495e-08
7.43077e-09
9.78284e-09
9.28234e-09
1.47862e-08
5.96845e-08
3.83563e-07
4.09978e-07
7.67623e-08
1.22471e-08
1.57615e-08
1.57898e-08
9.04919e-09
5.54143e-09
6.41677e-09
1.25171e-08
1.31062e-08
2.30192e-08
5.67482e-09
5.08525e-09
3.18727e-09
3.85478e-08
3.20435e-08
3.37344e-09
3.78495e-09
6.35399e-09
1.06744e-08
1.72187e-08
2.5775e-08
3.18061e-08
3.6764e-08
3.91417e-08
1.18769e-08
8.9325e-09
7.88685e-09
4.67096e-09
2.92266e-09
2.87335e-09
3.70597e-09
4.75585e-09
1.04612e-07
8.80462e-08
1.66312e-08
3.18557e-09
4.05644e-09
3.21366e-09
3.38567e-09
3.91034e-09
5.66899e-09
8.08927e-09
9.96297e-09
1.09552e-08
9.96542e-09
9.663e-09
8.9714e-09
6.54294e-09
4.27917e-09
3.41064e-09
2.30094e-09
1.55861e-09
1.48322e-09
1.82639e-09
2.09996e-09
1.66773e-07
1.66707e-07
9.29532e-09
3.16403e-09
3.16418e-09
3.19767e-09
3.37694e-09
3.32742e-09
3.46653e-09
4.15992e-09
4.42829e-09
4.78591e-09
4.87541e-09
4.44286e-09
3.47448e-09
2.41244e-09
1.74387e-09
1.3941e-09
1.04344e-09
8.46465e-10
8.45393e-10
9.49666e-10
1.0815e-09
1.5746e-07
4.80979e-08
3.29824e-09
3.3267e-09
3.98111e-09
3.44367e-09
2.54145e-09
2.15235e-09
1.93805e-09
1.86763e-09
1.73741e-09
1.6781e-09
1.57856e-09
1.37409e-09
1.09505e-09
8.19963e-10
6.54284e-10
5.5891e-10
4.74941e-10
4.36203e-10
4.52762e-10
5.00142e-10
5.66008e-10
2.27481e-08
4.15901e-09
3.83074e-09
3.76729e-09
3.5767e-09
2.53833e-09
1.76267e-09
1.31043e-09
1.02915e-09
9.00632e-10
7.2037e-10
6.00612e-10
5.02412e-10
4.20981e-10
3.42922e-10
2.82193e-10
2.45006e-10
2.18269e-10
2.03672e-10
1.97007e-10
2.1031e-10
2.35806e-10
2.6626e-10
2.38823e-08
7.41655e-09
3.80999e-09
3.35425e-09
3.27847e-09
2.32681e-09
1.36959e-09
8.89127e-10
7.39482e-10
5.75489e-10
4.1198e-10
3.00814e-10
2.22239e-10
1.64824e-10
1.29707e-10
1.06419e-10
9.10622e-11
8.28592e-11
7.8112e-11
7.66146e-11
8.16334e-11
9.22985e-11
1.09943e-10
8.76314e-08
3.22237e-08
2.6935e-09
2.67024e-09
2.83267e-09
2.2077e-09
1.5303e-09
1.01516e-09
7.96739e-10
5.69824e-10
3.922e-10
2.65344e-10
1.64191e-10
1.04218e-10
6.54239e-11
4.54496e-11
3.47238e-11
2.91794e-11
2.60278e-11
2.52164e-11
2.69911e-11
3.16255e-11
3.85749e-11
8.74981e-08
8.01832e-08
2.68697e-09
2.67132e-09
2.69484e-09
2.47019e-09
1.96349e-09
1.55294e-09
1.26331e-09
1.00914e-09
7.28373e-10
4.73906e-10
2.7076e-10
1.4475e-10
7.04817e-11
3.43675e-11
1.81156e-11
1.12625e-11
8.3074e-12
7.31402e-12
7.70355e-12
9.25976e-12
1.26831e-11
8.25897e-08
8.0486e-08
2.6649e-09
2.69643e-09
3.08929e-09
3.21574e-09
2.74106e-09
2.5438e-09
2.4069e-09
2.31278e-09
1.87443e-09
1.12421e-09
6.37279e-10
3.24739e-10
1.42765e-10
5.59768e-11
2.09745e-11
8.06565e-12
3.71823e-12
2.15372e-12
1.97885e-12
2.51402e-12
3.78609e-12
1.65863e-08
3.53095e-08
6.13919e-09
3.02202e-09
4.50374e-09
4.23017e-09
3.13007e-09
3.11243e-09
3.47653e-09
4.46066e-09
3.92621e-09
2.44576e-09
1.33854e-09
6.86975e-10
3.02594e-10
1.14048e-10
3.84244e-11
1.2097e-11
3.63272e-12
1.1224e-12
6.23904e-13
6.36426e-13
1.32562e-12
1.11817e-08
9.90314e-09
9.96636e-09
6.16252e-09
5.84396e-09
6.22025e-09
7.22964e-09
1.46001e-08
7.91431e-09
5.44964e-09
5.2762e-09
3.4316e-09
1.98442e-09
1.1387e-09
5.35344e-10
2.0829e-10
6.81976e-11
2.05566e-11
5.53447e-12
1.29656e-12
3.89899e-13
2.4835e-13
5.27703e-13
2.10713e-08
1.17196e-08
1.40178e-08
1.31974e-08
8.13915e-09
2.01234e-08
1.29456e-07
3.48174e-07
1.42024e-07
3.73082e-09
2.60034e-09
2.27949e-09
1.93642e-09
1.39504e-09
7.61581e-10
3.16163e-10
1.07323e-10
3.11458e-11
8.10308e-12
1.71682e-12
4.24229e-13
1.21915e-13
2.51699e-13
3.41757e-08
1.30437e-08
1.36054e-08
1.34572e-08
1.43155e-08
6.00162e-08
6.57992e-07
8.06707e-07
7.82727e-07
1.09054e-07
9.36592e-10
9.37772e-10
1.29917e-09
1.31679e-09
8.60762e-10
3.78601e-10
1.36511e-10
4.09219e-11
1.02116e-11
2.12595e-12
4.57592e-13
9.23667e-14
1.09642e-13
3.43543e-08
1.67144e-08
1.17988e-08
1.18647e-08
2.31256e-08
2.58005e-07
8.06836e-07
8.06704e-07
8.06707e-07
5.78462e-07
9.37421e-10
9.36609e-10
1.07495e-09
1.11365e-09
7.78939e-10
3.71713e-10
1.44499e-10
4.45752e-11
1.07385e-11
2.17335e-12
4.73972e-13
6.3084e-14
4.86832e-14
4.27922e-08
3.66807e-08
1.6829e-08
1.23747e-08
2.28054e-08
3.23592e-07
8.06695e-07
8.06707e-07
8.05629e-07
2.10942e-07
9.36608e-10
9.38284e-10
9.40992e-10
8.54359e-10
6.11942e-10
3.00187e-10
1.18971e-10
3.8451e-11
9.78219e-12
1.91241e-12
3.82846e-13
5.6583e-14
2.1245e-14
4.29681e-08
1.01166e-07
1.02792e-07
3.74209e-08
2.70326e-08
1.93216e-07
7.69822e-07
7.45048e-07
2.6538e-07
5.28103e-10
1.14784e-09
1.19592e-09
9.59862e-10
7.30917e-10
4.37532e-10
2.04692e-10
7.98144e-11
2.52327e-11
6.70105e-12
1.39279e-12
2.83795e-13
3.00445e-14
8.68216e-15
6.0356e-08
1.33417e-07
2.58518e-07
2.16993e-07
1.56638e-07
1.50896e-07
6.99364e-08
5.07076e-08
5.28236e-10
5.27818e-10
1.5377e-09
1.58776e-09
9.70414e-10
6.08829e-10
2.9836e-10
1.20572e-10
4.16198e-11
1.24261e-11
3.353e-12
7.44219e-13
1.3462e-13
1.99339e-14
3.51368e-15
3.14791e-07
1.3424e-07
2.58468e-07
2.67039e-07
2.66967e-07
2.6703e-07
9.92607e-08
8.11492e-10
8.1641e-10
5.31199e-10
1.67188e-09
1.65488e-09
9.00311e-10
4.55057e-10
1.76347e-10
5.68107e-11
1.61091e-11
4.16917e-12
1.03418e-12
2.61612e-13
5.85994e-14
6.72599e-15
1.2804e-15
3.92772e-07
1.84489e-07
5.99284e-08
1.31317e-07
1.27412e-07
1.67086e-07
9.42296e-08
1.15172e-08
2.15379e-09
4.33898e-10
1.10158e-09
1.10885e-09
6.44218e-10
2.85502e-10
8.98201e-11
2.17652e-11
4.4427e-12
8.32321e-13
1.93403e-13
5.98072e-14
1.28374e-14
2.41712e-15
4.1388e-16
3.89162e-07
1.61729e-07
1.32585e-08
1.95801e-35
-1.98837e-29
5.98461e-37
1.67312e-08
1.22433e-08
2.43953e-09
2.06186e-10
4.16305e-10
4.22873e-10
2.95923e-10
1.28221e-10
3.49963e-11
6.28333e-12
8.11372e-13
9.22781e-14
1.83074e-14
8.88757e-15
2.44927e-15
5.15377e-16
1.13088e-16
5.25394e-08
2.05917e-10
1.14859e-09
9.85945e-10
4.06932e-11
3.3713e-13
-2.10573e-32
-6.67403e-36
8.89989e-10
2.04372e-11
3.8595e-11
7.61535e-11
6.30168e-11
2.64201e-11
6.13562e-12
7.85533e-13
6.31137e-14
4.29618e-15
9.31681e-16
8.36114e-16
3.96199e-16
1.02383e-16
2.77742e-17
0.0658808
0.0777737
0.0631471
0.00493431
0.145522
0.145064
0.0486402
0.000743918
0.25644
0.305157
0.317929
0.227553
0.943801
0.947963
0.954301
0.952652
0.942054
0.94005
0.939359
0.98273
0.98931
0.998691
0.998758
0.985666
0.995376
0.998331
0.998757
0.998758
0.9987
0.998692
0.998432
0.998313
0.92996
0.948913
0.941434
0.919787
0.124808
0.28064
0.275294
0.162262
-4.2009e-23
-3.36046e-24
-3.25432e-24
-1.15767e-24
1.0884e-05
1.86322e-06
2.81193e-06
4.13351e-06
2.65018e-10
2.65335e-10
7.12481e-08
7.26122e-06
4.41045e-07
2.64702e-10
2.03622e-09
1.47982e-09
3.24091e-05
4.24508e-06
1.68309e-06
2.15228e-05
3.62338e-05
1.71653e-05
5.03671e-07
6.62916e-06
1.16581e-06
7.20799e-07
4.79207e-07
8.17623e-09
1.563e-07
4.60613e-09
3.74891e-08
8.23572e-09
9.65751e-09
4.77411e-09
6.22243e-09
9.55866e-09
3.4414e-09
3.771e-09
6.79702e-09
7.56679e-09
3.44372e-09
3.55358e-09
4.90024e-09
5.43298e-09
2.84238e-09
2.75945e-09
3.42923e-09
3.69327e-09
1.89052e-09
1.97074e-09
2.1731e-09
2.33129e-09
1.13747e-09
1.1999e-09
1.33532e-09
1.40478e-09
6.1618e-10
6.71182e-10
7.21642e-10
7.65938e-10
3.01092e-10
3.27774e-10
3.62494e-10
3.87775e-10
1.236e-10
1.42467e-10
1.6254e-10
1.77376e-10
4.62515e-11
5.60733e-11
6.7848e-11
7.84232e-11
1.62456e-11
2.13643e-11
2.84669e-11
3.45537e-11
5.94699e-12
8.73214e-12
1.24021e-11
1.67579e-11
2.53114e-12
4.08717e-12
6.63998e-12
9.59387e-12
1.21631e-12
2.42871e-12
3.9718e-12
6.27448e-12
6.85835e-13
1.29845e-12
2.52916e-12
3.92332e-12
3.47071e-13
7.4722e-13
1.39117e-12
2.44552e-12
1.49762e-13
3.11669e-13
7.57767e-13
1.22268e-12
6.21714e-14
1.4741e-13
3.06764e-13
6.33952e-13
1.93897e-14
4.57832e-14
1.41487e-13
2.44627e-13
6.87596e-15
1.71612e-14
4.04055e-14
1.00004e-13
1.62767e-15
4.33654e-15
1.31811e-14
2.66112e-14
3.96989e-16
1.09838e-15
2.61058e-15
7.93609e-15
8.64505e-17
2.25065e-16
6.69045e-16
1.88371e-15
1.65696e-17
4.38254e-17
1.37341e-16
4.00438e-16
0.000939715
0.000629334
0.0121242
0.00250266
1.2264e-06
1.22704e-06
0.00520354
0.00216822
0.0329699
0.0295427
0.0295409
0.226103
0.433151
0.279616
0.0862032
0.0851632
0.174958
0.175136
0.423986
0.000736348
0.00604301
0.286791
0.489285
0.221327
1.22552e-06
2.7466e-05
0.00440493
0.145122
0.121126
0.148733
0.31102
0.428864
0.118856
0.0896357
0.119148
0.119137
0.126167
0.132935
0.0588143
0.272638
0.829086
0.96429
0.910077
0.686513
0.087697
0.00442804
0.116954
0.5118
0.562195
0.441114
0.371336
0.339213
0.123416
0.242843
0.485918
0.588313
0.233719
0.756537
0.808197
0.983311
0.993739
0.981671
0.98124
0.84165
0.405325
0.173362
0.438734
0.567858
0.428189
0.372132
0.549154
0.58328
0.577978
0.780559
0.774604
0.726149
0.998116
0.998819
0.998815
0.998748
0.987421
0.9112
0.873434
0.883347
0.869228
0.833062
0.573295
0.387541
0.373125
0.533025
0.780807
0.794016
0.794011
0.793937
0.793938
0.960364
0.960192
0.976412
0.998682
0.997239
0.92062
0.829153
0.963157
0.990798
0.988712
0.977495
0.898897
0.629791
0.639963
0.778363
0.794011
0.793937
0.793938
0.79389
0.998757
0.971676
0.96592
0.990498
0.997902
0.959991
0.818145
0.89711
0.990706
0.991107
0.991038
0.985321
0.737793
0.539529
0.58727
0.685221
0.751166
0.793881
0.722989
0.99851
0.998455
0.997546
0.997902
0.997905
0.966391
0.475099
0.264002
0.538926
0.95928
0.991005
0.905706
0.425472
0.0301856
0.0292158
0.13972
0.213079
0.320368
0.172066
0.946899
0.980154
0.99073
0.992213
0.891146
0.410449
0.01358
2.10626e-19
0.0474656
0.342845
0.347672
0.159613
0.012837
2.88709e-20
-1.54823e-19
-5.13995e-11
-6.40296e-13
-3.44792e-13
-6.46513e-09
0.213841
0.391895
0.392304
0.254005
0.106372
0.00478462
-2.2642e-20
-4.94535e-23
-2.03719e-20
-8.69624e-20
1.44073e-20
1.8452e-38
4.07106e-10
6.60865e-08
-5.52983e-13
9.11826e-09
3.19324e-10
2.28217e-09
7.4089e-07
3.72201e-24
1.46429e-13
5.79076e-20
3.09844e-20
2.02923e-15
-1.64425e-07
-3.30244e-08
-3.99356e-09
-4.47103e-10
-1.76369e-11
-7.05893e-13
-1.86021e-14
5.02777e-08
2.10761e-07
4.33462e-07
2.4987e-09
1.98861e-10
1.89567e-10
2.32138e-06
6.38257e-06
2.16425e-06
1.38992e-11
7.0566e-29
1.68232e-33
2.17886e-05
0.000182225
0.000248121
5.108e-05
-2.84933e-09
1.36686e-05
8.3921e-06
6.50601e-08
9.28938e-08
3.82534e-06
4.93339e-05
0.000128874
0.000135506
2.53705e-06
9.42614e-06
4.61382e-05
0.000185385
0.000237657
0.000279012
0.000315762
0.000317935
0.000318086
0.000307626
0.000199567
0.000121531
6.72515e-05
2.56608e-05
1.5624e-06
2.76037e-05
0.000188328
0.00030885
0.000308852
2.52305e-06
4.67725e-05
0.000250888
0.000249967
0.000250222
0.000228262
0.000226859
0.000195929
0.000160831
0.000219113
0.000191864
6.76167e-05
3.9059e-05
3.83747e-05
3.75041e-05
2.91685e-05
8.53456e-05
0.000252792
0.000308867
0.000234077
6.00133e-05
8.10924e-05
7.91032e-05
2.63374e-05
1.10344e-05
7.15525e-06
1.28506e-06
2.12909e-08
8.22503e-06
1.72736e-05
1.45669e-06
2.776e-07
1.1532e-05
1.76714e-05
5.35297e-06
5.76902e-06
3.18329e-05
0.000308394
0.00030631
9.50286e-06
7.01439e-08
9.6413e-08
1.02343e-07
1.05893e-07
9.1966e-08
4.19427e-08
9.46322e-09
4.75684e-08
9.924e-08
7.4421e-08
4.60998e-08
7.60274e-08
6.15342e-08
4.7459e-07
4.17294e-06
1.23089e-07
0.000112683
0.000172801
8.16848e-09
2.22771e-08
2.45846e-08
2.03677e-08
2.08046e-08
2.12936e-08
1.52083e-08
1.03526e-08
6.705e-08
2.25487e-07
2.19556e-07
3.86279e-08
8.97437e-09
6.01216e-08
5.20957e-07
2.42908e-06
1.25164e-07
9.72865e-09
2.79417e-07
1.07291e-08
1.95118e-08
1.94179e-08
1.77383e-08
1.93493e-08
1.83484e-08
1.86037e-08
1.49252e-07
3.99033e-07
4.03474e-07
3.3979e-07
9.19765e-09
8.64764e-09
1.93857e-07
5.19742e-07
3.59455e-08
4.70152e-08
9.74979e-09
9.73822e-09
9.94993e-09
1.27745e-08
1.27112e-08
1.32351e-08
1.38189e-08
1.13958e-08
1.33578e-08
2.08334e-07
4.2087e-07
4.05355e-07
1.05366e-07
6.69986e-09
9.44939e-09
9.43745e-08
1.94253e-07
1.08528e-08
1.21331e-08
9.73816e-09
9.73827e-09
7.83769e-09
8.54885e-09
8.47299e-09
8.78043e-09
8.80647e-09
7.07884e-09
6.38113e-09
7.69839e-08
2.53334e-07
2.24897e-07
9.44177e-09
6.64471e-09
8.60723e-09
1.22437e-08
3.12601e-08
2.69143e-07
1.27889e-07
9.73813e-09
9.73808e-09
5.66522e-09
5.79828e-09
5.77141e-09
5.69455e-09
5.57718e-09
4.88277e-09
3.70899e-09
4.55016e-09
1.12107e-08
1.61642e-08
5.64011e-09
8.24315e-09
8.87446e-09
7.9679e-09
7.94817e-09
1.53208e-06
3.68055e-06
2.60612e-06
4.06751e-07
3.84758e-09
3.9136e-09
3.81626e-09
3.67512e-09
3.6104e-09
3.44449e-09
2.90668e-09
1.90567e-09
1.63108e-09
2.04301e-09
5.51591e-09
7.90927e-09
8.87789e-09
8.0836e-09
3.10854e-08
1.11732e-06
4.12279e-06
4.1243e-06
4.01267e-06
2.40892e-09
2.50129e-09
2.51535e-09
2.45673e-09
2.44789e-09
2.40205e-09
2.1621e-09
1.67793e-09
1.53535e-09
2.26873e-09
4.44829e-09
6.32173e-09
7.22352e-09
1.08996e-08
2.92534e-08
1.74865e-07
9.69708e-07
1.90803e-06
1.84373e-06
1.44744e-09
1.51557e-09
1.5632e-09
1.59227e-09
1.65382e-09
1.67853e-09
1.53223e-09
1.3356e-09
1.37257e-09
1.97588e-09
3.28191e-09
4.76153e-09
5.8558e-09
9.29071e-09
2.89267e-08
6.19171e-08
1.00666e-07
3.54041e-07
9.97322e-07
8.0166e-10
8.62743e-10
9.15712e-10
9.79493e-10
1.05757e-09
1.12229e-09
1.11179e-09
1.06528e-09
1.20219e-09
1.63191e-09
2.4475e-09
3.55601e-09
4.73289e-09
5.71044e-09
1.07371e-08
2.24523e-07
2.86904e-06
7.06888e-06
7.12315e-06
4.07106e-10
4.59627e-10
5.12144e-10
5.7613e-10
6.56405e-10
7.46131e-10
8.20781e-10
9.01622e-10
1.07133e-09
1.42771e-09
1.98038e-09
2.78561e-09
3.76254e-09
4.57933e-09
1.13017e-08
3.27874e-07
7.3552e-06
7.97756e-06
7.96755e-06
1.93795e-10
2.35089e-10
2.79206e-10
3.36831e-10
4.15763e-10
5.18137e-10
6.3963e-10
7.8992e-10
1.00036e-09
1.32283e-09
1.76515e-09
2.41315e-09
3.2643e-09
4.12903e-09
7.76399e-09
9.89381e-08
4.0762e-06
7.97216e-06
3.60352e-06
8.9962e-11
1.18969e-10
1.56594e-10
2.08697e-10
2.85066e-10
3.92018e-10
5.32974e-10
7.13392e-10
9.47374e-10
1.25034e-09
1.70782e-09
2.39732e-09
3.39966e-09
4.26789e-09
5.86347e-09
1.45463e-08
4.0271e-07
6.59028e-06
1.47712e-08
4.23824e-11
6.50838e-11
9.62966e-11
1.44116e-10
2.16918e-10
3.22102e-10
4.6492e-10
6.48948e-10
8.81394e-10
1.18371e-09
1.6465e-09
2.67923e-09
5.5213e-09
8.16658e-09
5.79266e-09
1.01962e-08
3.23091e-08
3.20063e-07
1.11099e-08
2.27741e-11
4.03851e-11
6.67792e-11
1.10225e-10
1.77105e-10
2.74695e-10
4.07765e-10
5.79042e-10
7.93732e-10
1.07255e-09
1.483e-09
2.82771e-09
9.27848e-09
2.64899e-08
1.99428e-08
1.06408e-08
1.16545e-08
3.86141e-08
1.06013e-08
1.40982e-11
2.76513e-11
5.03077e-11
8.75922e-11
1.46252e-10
2.29955e-10
3.45757e-10
4.94917e-10
6.75476e-10
9.16718e-10
1.32999e-09
2.53197e-09
7.6662e-09
4.99869e-08
1.53192e-07
6.2466e-08
1.18949e-08
1.19e-08
2.63754e-08
9.51698e-12
1.97055e-11
3.80641e-11
6.80525e-11
1.15213e-10
1.84033e-10
2.76329e-10
3.95896e-10
5.44941e-10
7.41481e-10
1.10254e-09
2.15359e-09
6.4034e-09
3.21513e-08
2.02508e-07
2.78818e-07
2.28209e-08
1.73771e-08
1.91177e-07
6.31784e-12
1.38238e-11
2.68533e-11
4.91097e-11
8.48128e-11
1.35846e-10
2.03867e-10
2.89918e-10
4.06051e-10
5.60867e-10
8.20409e-10
1.53389e-09
4.15935e-09
1.59003e-08
1.04365e-07
2.80573e-07
2.32163e-07
4.39957e-08
2.68516e-07
3.94509e-12
8.73178e-12
1.75403e-11
3.32815e-11
5.7105e-11
9.13791e-11
1.38562e-10
1.97606e-10
2.7709e-10
3.89493e-10
5.76698e-10
1.01506e-09
2.38954e-09
7.72195e-09
3.1155e-08
2.21305e-07
2.89544e-07
2.86488e-07
2.69557e-07
2.12558e-12
5.11473e-12
1.04162e-11
1.97198e-11
3.46085e-11
5.5721e-11
8.4652e-11
1.23373e-10
1.73849e-10
2.49456e-10
3.7905e-10
6.41385e-10
1.37486e-09
3.99451e-09
1.37229e-08
6.84128e-08
2.89759e-07
2.87879e-07
1.13738e-07
1.03436e-12
2.65429e-12
5.51196e-12
1.07013e-11
1.87688e-11
3.05492e-11
4.73438e-11
7.03931e-11
1.0156e-10
1.48466e-10
2.28924e-10
3.93418e-10
7.78871e-10
1.96947e-09
6.07042e-09
2.02789e-08
1.66173e-07
2.88644e-07
2.20386e-08
4.60986e-13
1.13975e-12
2.557e-12
4.99996e-12
8.91267e-12
1.49352e-11
2.34373e-11
3.62019e-11
5.50421e-11
8.27775e-11
1.29673e-10
2.23422e-10
4.36439e-10
9.86566e-10
2.79562e-09
8.79488e-09
2.96492e-08
8.133e-08
1.90653e-08
1.71514e-13
4.55573e-13
1.02922e-12
2.06259e-12
3.74757e-12
6.53517e-12
1.08547e-11
1.73691e-11
2.76795e-11
4.30787e-11
6.89038e-11
1.19928e-10
2.31358e-10
4.88886e-10
1.1962e-09
3.50053e-09
7.43053e-09
2.25901e-08
1.01724e-08
5.95068e-14
1.59625e-13
3.68494e-13
7.47678e-13
1.4493e-12
2.51313e-12
4.47719e-12
7.57038e-12
1.23474e-11
2.08382e-11
3.40946e-11
5.97865e-11
1.16997e-10
2.43597e-10
5.20437e-10
1.34999e-09
3.2673e-09
3.90803e-09
6.04754e-09
1.69332e-14
4.81583e-14
1.12206e-13
2.37205e-13
4.58321e-13
8.53283e-13
1.56701e-12
2.86398e-12
5.058e-12
8.7319e-12
1.47348e-11
2.56176e-11
5.0816e-11
1.08661e-10
2.20754e-10
5.12058e-10
9.99715e-10
2.14766e-09
3.5453e-09
4.35551e-15
1.27367e-14
3.05035e-14
6.74708e-14
1.36796e-13
2.71848e-13
5.30139e-13
1.02322e-12
1.9355e-12
3.51318e-12
5.85439e-12
1.01766e-11
2.00783e-11
4.45644e-11
9.72093e-11
2.11116e-10
4.26012e-10
1.09297e-09
2.37008e-09
9.99654e-16
3.03061e-15
7.49647e-15
1.72906e-14
3.72934e-14
7.92343e-14
1.6688e-13
3.4445e-13
6.96228e-13
1.30206e-12
2.30759e-12
3.91992e-12
7.59413e-12
1.73398e-11
3.9922e-11
8.80035e-11
1.82626e-10
4.75338e-10
8.77307e-10
)
;

boundaryField
{
    leftWall
    {
        type            zeroGradient;
    }
    rightWall
    {
        type            zeroGradient;
    }
    lowerWall
    {
        type            zeroGradient;
    }
    atmosphere
    {
        type            inletOutlet;
        inletValue      uniform 0;
        value           nonuniform List<scalar> 
46
(
0
0
0
0
0
0
0
0
0
0
0
0
0
0
0
0
0
0
0
0
0
1.02383e-16
2.77742e-17
1.65696e-17
4.38254e-17
1.37341e-16
4.00438e-16
9.99654e-16
3.03061e-15
7.49647e-15
1.72906e-14
3.72934e-14
7.92343e-14
1.6688e-13
3.4445e-13
6.96228e-13
1.30206e-12
2.30759e-12
3.91992e-12
7.59413e-12
1.73398e-11
3.9922e-11
8.80035e-11
1.82626e-10
4.75338e-10
8.77307e-10
)
;
    }
    defaultFaces
    {
        type            empty;
    }
}


// ************************************************************************* //
