/*--------------------------------*- C++ -*----------------------------------*\
| =========                 |                                                 |
| \\      /  F ield         | OpenFOAM: The Open Source CFD Toolbox           |
|  \\    /   O peration     | Version:  2312                                  |
|   \\  /    A nd           | Website:  www.openfoam.com                      |
|    \\/     M anipulation  |                                                 |
\*---------------------------------------------------------------------------*/
FoamFile
{
    version     2.0;
    format      ascii;
    arch        "LSB;label=32;scalar=64";
    class       volScalarField;
    location    "2.65";
    object      alphas;
}
// * * * * * * * * * * * * * * * * * * * * * * * * * * * * * * * * * * * * * //

dimensions      [0 0 0 0 0 0 0];

internalField   nonuniform List<scalar> 
2268
(
2
2
2
2
2
2
2
2
2
2
2
2
2
2
2
2
2
2
2
2
2
1.99997
1.99994
2
2
2
2
2
2
2
2
2
2
2
2
2
2
2
2
2
2
2
2
2
1.99998
1.99994
2
2
2
2
2
2
2
2
2
2
2
2
2
2
2
2
2
2
2
2
2
2
1.99998
2.00002
1.99917
1.99981
1.99973
1.99984
1.99997
2
2
2
2
2
2
2
2
2
2
2
2
2
2
2
2
2
1.76158
1.80542
1.84877
1.89437
1.9325
1.96243
1.97761
1.98334
1.98264
1.98102
1.98453
1.99433
2
2
2
2
2
2
2
2
2
2
2.00004
0.366779
0.375649
0.427947
0.521076
0.626827
0.699318
0.742362
0.760592
0.773364
0.802728
0.866205
0.999041
1.21044
1.42231
1.66346
1.88298
1.9966
2
2
2
2
2
2.00001
0.0064186
0.00591329
0.00597234
0.00433771
0.00109899
0.000754484
0.000643419
0.000882906
0.00100517
0.00105906
0.00160157
0.00529814
0.0197026
0.134713
0.297186
0.568791
1.02097
1.5534
1.91303
2
1.99994
1.99999
1.99992
0.00501458
0.00562015
0.0035905
0.00124473
0.00115539
0.00136088
0.00150537
0.00152235
0.00152922
0.00144621
0.00182911
0.00980451
0.0355335
0.0957085
0.130335
0.0952915
0.131867
0.251855
0.706692
1.2557
1.69188
1.88684
1.9255
1.90568
1.90556
1.90591
1.92195
1.94174
1.94174
1.94058
1.93939
1.93682
1.92684
1.93461
1.93872
1.93864
1.93861
1.93916
1.94051
1.94341
1.95037
1.9519
1.9134
1.91637
1.90481
1.87258
1.83325
1.79006
1.77936
1.77744
1.80039
1.83827
1.85729
1.90572
1.94561
1.94907
1.94544
1.95072
1.92402
1.92223
1.85802
1.57766
1.52838
1.30047
1.0349
0.817749
0.786884
0.876569
0.937178
1.04694
1.24155
1.3989
1.57018
1.67159
1.74838
1.80252
1.81616
1.68017
1.59618
1.4868
0.684225
0.660218
0.500155
0.395967
0.364959
0.406934
0.587263
0.543669
0.598824
0.639805
0.687877
0.917693
1.16364
1.39007
1.36147
0.943053
0.872542
1.29913
1.46743
0.487219
0.419164
0.376076
0.281788
0.123228
0.119191
0.469138
0.304385
0.119338
0.506295
0.564227
0.558902
0.591961
0.612014
0.561535
0.304451
0.369946
0.839726
1.31872
0.497962
0.273476
0.0545405
0.00512895
0.000741425
0.000685294
0.301397
0.204392
0.082223
0.469939
0.584989
0.565161
0.630208
0.677043
0.445329
0.309046
0.294108
0.709536
0.79756
0.427133
0.0777782
0.000725933
0.000716121
0.000712385
0.000703426
0.245362
0.104731
0.0657783
0.329871
0.48256
0.461191
0.504235
0.357179
0.295271
0.321757
0.542465
0.802558
0.716785
0.0370954
0.0335928
0.0387455
0.0146978
0.000892384
0.000732624
0.151709
0.0643278
0.0509492
0.0686596
0.131758
0.201842
0.373268
0.272248
0.287698
0.353495
0.678383
0.810581
0.742506
0.00330626
0.003403
0.00148854
0.00142861
0.0015156
0.0015354
0.00153577
0.00153175
0.00152886
0.00157249
0.00468585
0.0553408
0.191752
0.366727
0.354316
0.328191
0.217769
0.0467955
0.0171461
0.0438179
0.159219
0.315138
0.508213
0.00283105
0.00297364
0.00645604
0.0198589
0.0198543
0.0156018
0.0196651
0.0316853
0.0590149
0.117078
0.19434
0.237613
0.261144
0.417063
0.350261
0.140408
0.0687677
0.05793
0.0309333
0.0175116
0.0156486
0.0172751
0.078014
0.00286682
0.00293777
0.00301721
0.0038896
0.0618395
0.174218
0.278223
0.437695
0.668978
0.832526
0.923717
0.892475
0.777559
0.616925
0.497223
0.514022
0.513289
0.570105
0.589269
0.434662
0.2916
0.216212
0.249621
0.592499
0.435357
0.202422
0.135638
0.308691
0.600509
0.871276
1.02884
1.02949
1.01048
1.00549
1.01559
1.04701
1.07095
1.08513
1.09204
1.09206
1.07774
1.0911
1.1236
1.14828
1.0859
1.00751
1.14781
1.15671
1.22768
1.26474
0.999088
0.906908
0.994601
1.00144
1.00143
1.00143
1.00143
1.00143
1.00143
1.00152
1.00153
1.00162
1.00168
1.05487
1.12107
1.06295
1.05098
1.11319
1.11358
1.14527
1.14985
1.37262
1.60496
1.59235
1.56738
1.10946
1.00107
1.01729
1.00511
1.00135
1.0014
1.00137
1.00141
1.00164
1.00184
1.00251
1.00244
1.00254
1.00257
1.00643
1.1052
1.08305
1.14333
1.23659
1.4652
1.63521
1.62834
1.34993
1.14448
1.26813
1.73629
1.58012
1.10496
1.01317
1.00269
0.995131
0.996761
1.0005
1.00329
1.00314
1.00207
1.00197
1.00212
1.00243
1.00522
1.88188
1.7271
1.28141
1.27505
1.23412
1.23383
1.30096
1.80728
2.31561
2.31397
2.1312
2.08179
2.05133
1.91673
1.66911
1.45735
1.36077
1.27622
1.15803
1.04593
1.00254
1.00203
1.00209
2.76035
2.45581
2.13599
1.92476
1.9148
2.12718
2.42935
2.36803
2.31666
2.59902
2.95616
2.9815
2.9524
2.93695
2.92547
2.8562
2.81077
2.75912
2.62606
2.31997
1.84116
1.44942
1.25524
2.9775
2.99895
2.99739
2.96263
2.9335
2.94278
2.92217
2.90737
2.92349
2.98334
2.99978
2.99999
2.99998
2.994
2.97294
2.97997
2.99718
2.99944
2.99986
2.99772
2.9913
2.98361
2.92118
2.98889
3
2.9992
2.97114
2.95626
2.95008
2.94673
2.94646
2.94653
2.98939
3
3
3
2.99999
2.99999
2.99999
2.99998
2.99998
2.99999
2.99999
2.99999
2.99999
2.99999
2.99623
3
2.99923
2.99783
2.99778
2.99779
2.97383
2.9631
2.98337
2.99968
3
3
3
3
3
2.99999
2.99995
2.99996
2.99999
2.99999
2.99995
2.99994
2.99996
3
3
2.99998
2.9994
2.99961
2.99991
3
3
3
2.99987
2.99999
3
2.99997
2.99995
2.99993
2.99992
2.99993
2.99995
2.99993
2.99984
2.99985
2.99991
2.99999
3
3
2.99999
3
2.99999
3
3
3
2.99998
2.99991
2.99999
2.99992
2.99986
2.99986
2.99989
2.99997
2.99996
2.99971
2.99948
2.99954
2.99994
3
2.99999
2.99998
2.99998
2.99999
3
2.99983
2.99961
2.99989
3
2.99989
2.99995
2.99993
2.99986
2.99986
2.99989
2.99999
2.99995
2.99947
2.99941
2.99947
2.99999
3
2.99997
2.9999
2.99997
2.99998
2.99999
2.99988
2.99848
2.99818
2.99948
3
2.99995
2.99996
2.99986
2.99986
2.99992
2.99999
3
2.99992
2.99954
2.99947
2.9998
3
3
2.99993
2.9999
2.99999
3
3
2.99904
2.99809
2.99816
2.99944
3
2.99998
2.99994
2.99987
2.99989
3
3
3
2.99999
2.99991
2.99987
2.99993
3
3
2.99997
2.99994
2.99999
2.99999
2.99969
2.99809
2.99809
2.99888
2.99991
2.99998
2.99998
2.99995
2.99989
2.99994
3
3
3
3
3
3
3
3
3
3
3
2.99984
2.99967
2.99866
2.9981
2.99906
3
3
2.99994
2.99998
2.99997
2.99994
2.99999
3
3
3
3
3
3
3
3
3
3
3
2.99908
2.99895
2.99907
2.99981
3
3
2.99999
2.99994
3
3
3
3
3
3
3
3
3
3
3
3
3
3
3
2.99977
2.99978
3
3
3
2.99998
2.99998
2.99997
3
3
3
3
3
3
3
3
3
3
3
3
3
3
3
3
3
3
2.99999
2.99997
2.99997
2.99999
2.99999
3
3
3
3
3
3
3
3
3
3
3
3
3
3
3
3
2.99999
2.99997
2.99996
2.99996
2.99999
3
3
3
3
3
3
3
3
3
3
3
3
3
3
3
3
3
3
2.99998
2.99997
2.99997
2.99999
3
3
3
3
3
3
3
3
3
3
3
3
3
3
3
3
3
3
3
3
2.99999
3
3
3
3
3
3
3
3
3
3
3
3
3
3
3
3
3
3
3
3
3
3
3
3
3
3
3
3
3
3
3
3
3
3
3
3
3
3
3
3
3
3
3
3
3
3
3
3
3
3
3
3
3
3
3
3
3
3
3
3
3
3
3
3
3
3
3
3
3
3
3
3
3
3
3
3
3
3
3
3
3
3
3
3
3
3
3
3
3
3
3
3
3
3
3
3
3
3
3
3
3
3
3
3
3
3
3
3
3
3
3
3
3
3
3
3
3
3
3
3
3
3
3
3
3
3
3
3
3
3
3
3
3
3
3
3
3
3
3
3
3
3
3
3
3
3
3
3
3
3
3
3
3
3
3
3
3
3
3
3
3
3
3
3
3
3
3
3
3
3
3
3
3
3
3
3
3
3
3
3
3
3
3
3
3
3
3
3
3
3
3
3
3
3
3
3
3
3
3
3
3
3
3
3
3
3
3
3
3
3
3
3
3
3
3
3
3
3
3
3
3
3
3
3
3
3
3
3
3
3
3
3
3
3
3
3
3
3
3
3
3
3
3
3
3
3
3
3
3
3
3
3
3
3
3
3
3
3
3
3
3
3
3
3
3
3
3
3
3
3
3
3
3
3
3
3
3
3
3
3
3
3
3
3
3
3
3
3
3
3
3
3
3
3
3
3
3
3
3
3
3
3
3
3
3
3
3
3
3
3
3
3
3
3
3
3
3
3
3
3
3
3
3
3
3
3
3
3
3
3
3
3
3
3
3
3
3
3
3
3
3
3
3
3
3
3
3
3
3
3
3
3
3
3
3
3
3
3
3
3
3
3
3
3
3
3
3
3
3
3
3
3
3
3
3
3
3
3
3
3
3
3
3
3
3
3
3
3
3
3
3
3
3
3
3
3
3
3
3
3
3
3
3
3
3
3
3
3
3
3
3
0.567614
0.556654
0.372806
0.0146677
0.243609
0.243204
0.149449
0.104477
0.284484
0.405123
0.385189
0.231225
0.979113
0.979395
0.981097
0.958988
1.11472
1.11674
1.11693
1.0328
1.02138
1.00262
1.00248
1.02867
1.00925
1.00334
1.00243
1.00238
1.0021
1.00184
1.00156
1.00145
1.13683
1.09214
1.10279
1.14512
2.73544
2.42437
2.43506
2.65762
2.99993
2.9993
2.9955
2.99319
2.99998
3
2.99999
2.99999
2.99999
2.99999
3
2.99998
2.99999
2.99999
2.99999
2.99999
2.99991
2.99996
2.99997
2.99995
2.99991
2.99996
3
2.99998
3
3
3
3
3
3
3
3
3
3
3
3
3
3
3
3
3
3
3
3
3
3
3
3
3
3
3
3
3
3
3
3
3
3
3
3
3
3
3
3
3
3
3
3
3
3
3
3
3
3
3
3
3
3
3
3
3
3
3
3
3
3
3
3
3
3
3
3
3
3
3
3
3
3
3
3
3
3
3
3
3
3
3
3
3
3
3
3
3
3
3
3
3
3
3
3
3
3
3
3
3
3
3
3
0.00720386
0.0222314
0.203427
0.172899
0.0940119
0.000757251
0.00595978
0.0462748
0.069181
0.053168
0.0699825
0.301892
0.622705
0.631168
0.361877
0.284326
0.472216
0.324458
0.631225
0.009977
0.0727401
0.580776
0.816683
0.52875
0.271258
0.0160728
0.0268876
0.197261
0.169083
0.222621
0.597363
0.817941
0.581133
0.22635
0.168516
0.218096
0.212722
0.213461
0.0592439
0.346212
0.989065
1.05728
1.13092
0.96349
0.32648
0.116377
0.209346
0.572597
0.688433
0.885714
0.880577
0.788602
0.246462
0.288073
0.563243
0.818892
0.329797
0.757372
0.813613
0.987375
1.00638
1.02004
1.02056
1.09161
0.732446
0.498721
0.609162
0.734432
0.844405
0.868386
0.728343
0.706831
0.619534
0.815329
0.973115
0.937048
1.00351
1.00134
1.00023
1.00006
1.01338
1.1572
1.22481
1.09874
0.932899
0.962896
1.21009
1.05534
0.940637
0.720018
0.798146
0.813672
0.815972
0.924033
1.3666
1.07914
1.07929
1.04687
1.00256
1.00089
1.14119
1.31921
1.06631
1.01508
1.02109
1.00429
0.941393
1.31164
1.31846
1.10213
0.962221
0.868466
1.04233
1.38878
1.00241
1.0566
1.06811
1.01898
1.00407
1.06926
1.32055
1.18408
1.01686
1.01602
1.01232
1.01129
1.50197
1.90921
1.81238
1.59385
1.42305
1.36892
1.53524
1.00166
1.0028
1.00489
1.00389
1.00295
1.03833
2.00198
2.43344
1.90557
1.07895
1.01662
1.18334
2.13735
2.9279
2.9325
2.7182
2.57184
2.35684
2.6475
1.10009
1.03839
1.01844
1.01552
1.20651
2.14749
2.92627
2.96737
2.88837
2.31186
2.30394
2.67674
2.97039
2.99794
2.99934
2.99994
2.99939
2.99927
2.99996
2.55836
2.20394
2.20788
2.48995
2.78101
2.96397
2.97633
2.99208
2.99573
2.99753
2.99958
2.9999
2.99985
2.99983
2.99994
2.99999
2.99999
2.99999
2.99999
2.99163
2.99276
2.99262
2.99625
2.9991
2.9979
2.99909
2.9997
2.99987
2.99964
2.99982
2.99986
2.99977
2.99984
2.99998
2.99999
2.99999
2.99998
2.99999
2.99999
2.99927
2.99777
2.99886
2.99951
2.99936
2.99929
2.9993
2.99973
2.99989
2.99989
2.9998
2.99977
2.99989
2.99998
2.99988
2.99972
2.9997
2.99996
2.99997
2.99987
2.99933
2.99916
2.99916
2.99917
2.99917
2.99917
2.99918
2.9995
2.99974
2.99979
2.99979
2.99989
2.99993
2.9996
2.99935
2.99934
2.99994
2.99988
2.99941
2.99932
2.99935
2.99945
2.9995
2.99953
2.9996
2.99941
2.99958
2.99986
2.99992
2.99989
2.99989
2.99993
2.9998
2.99944
2.99933
2.99947
2.99987
2.99982
2.99983
2.99995
2.99998
2.99999
3
3
2.99998
2.99996
3
3
2.99998
2.99996
2.99998
2.99996
2.9999
2.99933
2.99932
2.99998
3
3
3
3
3
3
3
3
3
3
3
3
3
2.99999
2.99996
2.99997
2.99976
2.99963
3
3
3
3
3
3
3
3
3
3
3
3
3
3
2.99999
2.99999
3
3
3
3
3
3
3
3
3
3
3
3
3
3
3
3
2.99999
2.99999
3
3
3
3
3
3
3
3
3
3
3
3
3
3
3
3
3
3
3
3
3
3
3
3
3
3
3
3
3
3
3
3
3
3
3
3
3
3
3
3
3
3
3
3
3
3
3
3
3
3
3
3
3
3
3
3
3
3
2.99999
2.99999
3
3
3
3
3
3
3
3
3
3
3
3
3
3
3
3
3
2.99999
2.99999
2.99999
3
3
3
3
3
3
3
3
3
3
3
3
3
3
3
3
3
3
3
3
3
3
3
3
3
3
3
3
3
3
3
3
3
3
3
3
3
3
3
3
3
3
3
3
3
3
3
3
3
3
3
3
3
3
2.99999
2.99999
2.99999
3
3
3
3
3
3
3
3
3
3
3
3
3
3
3
3
2.99999
2.99998
2.99998
3
3
3
3
3
3
3
3
3
3
3
3
3
3
3
3
2.99999
2.99998
2.99999
3
3
3
3
3
3
3
3
3
3
3
3
3
3
3
3
3
2.99999
3
3
3
3
3
3
3
3
3
3
3
3
3
3
3
3
3
3
3
3
3
3
3
3
3
3
3
3
3
3
3
3
3
3
3
3
3
3
3
3
3
3
3
3
3
3
3
3
3
3
3
3
3
3
3
3
3
3
3
3
3
3
3
3
3
3
3
3
3
3
3
3
3
3
3
3
3
3
3
3
3
3
3
3
3
3
3
3
3
3
3
3
3
3
3
3
3
3
3
3
3
3
3
3
3
3
3
3
3
3
3
3
3
3
3
3
3
3
3
3
3
3
3
3
3
3
3
3
3
3
3
3
3
3
3
3
3
3
3
3
3
3
3
3
3
3
3
3
3
3
3
3
3
3
3
3
3
3
3
3
3
3
3
3
3
3
3
3
3
3
3
3
3
3
3
3
3
3
3
3
3
3
3
3
3
3
3
3
3
3
3
3
3
3
3
3
3
3
3
3
3
3
3
3
3
3
3
3
3
3
3
3
3
3
3
3
3
3
3
3
3
3
3
3
3
3
3
3
3
3
3
3
3
3
3
3
3
3
3
3
3
3
3
3
3
3
3
3
3
3
3
3
3
3
3
3
3
3
3
3
3
3
3
3
3
3
3
)
;

boundaryField
{
    leftWall
    {
        type            calculated;
        value           nonuniform List<scalar> 
50
(
2
2
2
2.00002
1.76158
0.366779
0.0064186
0.00501458
0.00330626
0.00283105
0.00286682
0.592499
1.14781
1.14527
1.14333
1.88188
2.76035
2.9775
2.98889
2.99623
3
3
2.99998
2.99997
2.99999
2.99999
2.99984
2.99908
2.99977
3
3
3
3
3
3
3
3
3
3
3
3
3
3
3
3
3
3
3
3
3
)
;
    }
    rightWall
    {
        type            calculated;
        value           nonuniform List<scalar> 
50
(
1.9519
1.85802
1.4868
1.46743
1.31872
0.79756
0.716785
0.742506
0.631225
0.213461
0.329797
0.937048
1.3666
1.38878
1.53524
2.6475
2.99996
2.99999
2.99999
2.99996
2.99994
2.99947
2.99932
2.99963
3
3
3
3
3
2.99999
3
3
2.99999
2.99998
2.99999
3
3
3
3
3
3
3
3
3
3
3
3
3
3
3
)
;
    }
    lowerWall
    {
        type            calculated;
        value           nonuniform List<scalar> 
62
(
2
2
2
2
2
2
2
2
2
2
2
2
2
2
2
2
2
2
2
2
2
1.99997
1.99994
1.99994
1.99994
1.99998
2
2.00004
2.00001
1.99992
1.9255
0.567614
0.556654
0.372806
0.0146677
1.90568
1.9134
1.57766
0.684225
0.487219
0.497962
0.427133
0.0370954
1.90568
1.90556
1.90591
1.92195
1.94174
1.94174
1.94058
1.93939
1.93682
1.92684
1.93461
1.93872
1.93864
1.93861
1.93916
1.94051
1.94341
1.95037
1.9519
)
;
    }
    atmosphere
    {
        type            calculated;
        value           nonuniform List<scalar> 
46
(
3
3
3
3
3
3
3
3
3
3
3
3
3
3
3
3
3
3
3
3
3
3
3
3
3
3
3
3
3
3
3
3
3
3
3
3
3
3
3
3
3
3
3
3
3
3
)
;
    }
    defaultFaces
    {
        type            empty;
    }
}


// ************************************************************************* //
