/*--------------------------------*- C++ -*----------------------------------*\
| =========                 |                                                 |
| \\      /  F ield         | OpenFOAM: The Open Source CFD Toolbox           |
|  \\    /   O peration     | Version:  2312                                  |
|   \\  /    A nd           | Website:  www.openfoam.com                      |
|    \\/     M anipulation  |                                                 |
\*---------------------------------------------------------------------------*/
FoamFile
{
    version     2.0;
    format      ascii;
    arch        "LSB;label=32;scalar=64";
    class       volScalarField;
    location    "2.65";
    object      alpha.water;
}
// * * * * * * * * * * * * * * * * * * * * * * * * * * * * * * * * * * * * * //

dimensions      [0 0 0 0 0 0 0];

internalField   nonuniform List<scalar> 
2268
(
1.46189e-07
3.06083e-08
3.90753e-09
7.7486e-10
3.43243e-10
2.14379e-10
1.09355e-10
6.59681e-11
5.0125e-11
3.94407e-11
3.36338e-11
3.1947e-11
3.18608e-11
3.31171e-11
3.66976e-11
4.29599e-11
5.19859e-11
7.36243e-11
1.16648e-10
1.8848e-10
3.8606e-10
7.02066e-10
1.11098e-09
6.01505e-07
2.27168e-07
1.23447e-08
8.36028e-10
3.43444e-10
1.77325e-10
1.79097e-10
1.74938e-10
1.36628e-10
8.89181e-11
6.28486e-11
4.91246e-11
4.42707e-11
4.46367e-11
5.1088e-11
7.31367e-11
8.53703e-11
1.22633e-10
1.8652e-10
3.849e-10
8.34072e-10
1.52844e-09
1.84996e-09
4.23925e-07
2.86938e-07
1.04265e-08
1.15561e-09
2.34206e-10
1.16035e-10
4.41766e-10
5.13094e-10
4.83675e-10
2.34467e-10
1.16395e-10
7.14131e-11
4.6461e-11
4.77196e-11
6.3742e-11
1.07537e-10
1.94881e-10
2.29228e-10
2.83778e-10
4.53124e-10
9.08799e-10
1.82601e-09
1.89756e-09
-7.69665e-22
2.4205e-21
-7.97049e-23
4.45666e-22
-3.98514e-22
4.16526e-31
8.114e-30
-2.1021e-13
-8.63372e-14
-1.39381e-17
-7.33914e-22
-5.18988e-18
1.65738e-11
1.5981e-11
2.23198e-11
5.01337e-11
1.14733e-10
1.69176e-10
2.05379e-10
3.07424e-10
6.91282e-10
1.43106e-09
1.26635e-09
0.117616
0.0937696
0.0727429
0.0515518
0.0337201
0.0187968
0.0111097
0.00818883
0.00853055
0.00937958
0.00765477
0.00283103
9.3411e-11
2.84827e-21
-3.66001e-21
-1.58772e-24
-5.65898e-19
3.4756e-11
8.29895e-11
1.37059e-10
2.13811e-10
4.54394e-10
5.67173e-10
0.813295
0.808956
0.782991
0.739177
0.68714
0.650327
0.628496
0.619389
0.613025
0.598359
0.566755
0.500434
0.394739
0.288828
0.16827
0.058512
0.00169824
8.48524e-20
7.56146e-20
1.43942e-18
1.48893e-11
3.15734e-09
1.45593e-10
0.99494
0.997475
0.998009
0.998554
0.999488
0.999488
0.999488
0.999449
0.999474
0.999483
0.9992
0.997256
0.986024
0.91245
0.827121
0.702258
0.489285
0.223299
0.0434837
1.07708e-06
1.16906e-11
3.21748e-06
1.45593e-10
0.996976
0.997978
0.998768
0.999488
0.999488
0.999488
0.999488
0.999488
0.999485
0.999485
0.999
0.991005
0.972685
0.914166
0.875247
0.909352
0.90938
0.873008
0.625621
0.35024
0.133797
0.0549635
0.0374315
0.0270728
0.0272016
0.0271995
0.0213582
0.0138048
0.0138045
0.0138046
0.0141428
0.0175363
0.0239587
0.0204843
0.0194187
0.0194405
0.0194529
0.019161
0.0185565
0.0163726
0.0103663
0.00871414
0.0196798
0.0174946
0.0174086
0.0200664
0.0218237
0.0209172
0.0167019
0.0146597
0.0145071
0.0174511
0.0259614
0.0195047
0.0157532
0.014171
0.0149219
0.0096372
0.00856877
0.00857812
0.0086736
0.187553
0.158435
0.219997
0.320502
0.388885
0.358587
0.305325
0.283663
0.228819
0.131535
0.0694362
0.0150208
0.00781402
0.00780216
0.00781031
0.0220686
0.0364143
0.00947349
0.00867546
0.58048
0.50712
0.588949
0.646925
0.658491
0.609329
0.472104
0.536127
0.478365
0.433462
0.397997
0.279947
0.157027
0.0438989
0.11831
0.427641
0.437618
0.106973
0.00867731
0.580562
0.636718
0.688536
0.782822
0.914324
0.892185
0.604777
0.777674
0.916479
0.521807
0.458202
0.459343
0.471244
0.477452
0.54456
0.780718
0.746232
0.369415
0.0820786
0.58876
0.785796
0.972208
0.998288
0.999747
0.999747
0.771516
0.839469
0.951005
0.586721
0.456877
0.467684
0.469051
0.481004
0.712714
0.833209
0.779571
0.39803
0.342701
0.651949
0.950144
0.999743
0.999747
0.999747
0.999747
0.816261
0.927825
0.959257
0.755323
0.598157
0.617388
0.627229
0.774114
0.833207
0.833156
0.628486
0.386899
0.399785
0.987496
0.98856
0.986861
0.995055
0.999689
0.999747
0.872704
0.968102
0.967983
0.959491
0.901772
0.826301
0.662344
0.776685
0.833156
0.821816
0.518566
0.386079
0.395705
0.998305
0.99869
0.999458
0.999488
0.999488
0.999488
0.999488
0.999488
0.999488
0.999471
0.998379
0.961223
0.849272
0.6848
0.687645
0.697874
0.791645
0.959368
0.988486
0.964926
0.898322
0.823522
0.748277
0.998874
0.998875
0.997829
0.99338
0.993382
0.994799
0.993445
0.989432
0.976937
0.938289
0.897607
0.864879
0.819666
0.649666
0.699612
0.907615
0.975565
0.979557
0.988312
0.98908
0.989061
0.988879
0.968632
0.998875
0.998874
0.998875
0.998634
0.970649
0.89868
0.815194
0.661428
0.438382
0.27468
0.210181
0.250688
0.36572
0.513983
0.632208
0.648117
0.650591
0.594938
0.558423
0.620188
0.727875
0.792243
0.758476
0.601021
0.759382
0.877787
0.867097
0.694316
0.405787
0.196016
0.0309452
3.52822e-16
-1.43312e-24
4.07328e-24
2.3396e-24
2.6545e-13
2.75176e-25
2.80589e-25
0.017477
0.0646562
0.0861435
0.0727911
0.0403919
0.0163505
0.0124149
0.0338163
0.00139049
0.0374163
0.187259
0.232516
0.194762
0.137871
0.0336268
8.65934e-07
5.88051e-08
1.04058e-06
1.66596e-06
2.49917e-06
4.20219e-06
1.46e-06
5.54593e-08
8.04654e-09
1.11591e-08
-4.28767e-25
4.04713e-26
3.34974e-27
-5.30683e-19
-1.89743e-19
0
0.00265814
0.000416875
0.000114271
0.0334221
0.0386245
0.0303756
0.015394
0.000355648
2.39845e-05
1.91303e-05
5.61956e-05
1.23542e-05
2.2345e-05
2.41528e-06
-1.11407e-10
2.38279e-12
6.62659e-12
7.25165e-06
2.55422e-06
2.91547e-08
1.74294e-23
1.09738e-25
1.01432e-26
0.0039286
0.000368308
0.000115011
0.000113938
0.00471109
0.00282014
0.00124658
0.000564503
6.91658e-05
1.93155e-05
0.00161758
0.00754233
0.0108331
0.00945858
0.00461848
0.0013893
0.000346254
0.000128331
5.67995e-05
6.85708e-05
6.44317e-05
2.65566e-05
7.8526e-08
0.00517266
0.00167678
0.000414981
0.000155084
5.68427e-05
5.56253e-05
5.68427e-05
8.30702e-05
5.63897e-05
1.9492e-05
0.00174183
0.019435
0.0210071
0.0210075
0.0210071
0.0154521
0.00180091
0.000208738
0.000996181
0.00124691
0.000812568
0.000246708
0.000161595
0.0051714
0.00244136
0.0023493
0.002244
0.0012967
0.000687266
0.000478161
0.000717024
0.000742105
1.96908e-05
0.0020468
0.00587042
0.0157786
0.0210076
0.0210075
0.0198773
0.00387365
0.000181559
0.00124551
0.00308166
0.00310705
0.00297295
0.00175648
0.00493735
0.000294465
0.00076974
0.00663029
0.0131604
0.0125313
0.0135616
0.0147304
0.0109363
0.00219335
1.87e-20
-9.89408e-10
-1.68748e-10
0.0019956
0.00901941
0.00667505
0.000938283
0.000187657
9.79506e-06
1.2685e-06
0.00134223
0.00387929
0.00472328
0.00368834
2.1691e-07
0.000257079
0.0095593
0.0145009
0.0165541
0.0177114
0.01778
0.0177992
0.0035362
1.00873e-06
5.53236e-07
1.74862e-07
2.77956e-11
8.2001e-14
8.90562e-14
2.32816e-06
5.9156e-06
3.59946e-06
1.35828e-06
8.23313e-07
8.46915e-07
1.83945e-06
0.00125692
1.24206e-07
9.79674e-05
6.95309e-08
6.39603e-08
9.20553e-05
0.00838493
0.0121955
0.00553999
0.000106161
1.23689e-07
9.70588e-08
3.70642e-08
3.73079e-11
6.15995e-08
2.18448e-07
1.12489e-07
8.76621e-08
8.69595e-08
6.41204e-07
6.03346e-06
6.65711e-06
1.34873e-06
4.69405e-07
1.6084e-07
2.29336e-06
9.05601e-08
4.57688e-07
1.823e-08
1.28852e-08
1.76463e-08
7.59407e-08
4.46765e-05
3.41447e-06
8.99526e-08
7.64564e-08
3.46505e-06
3.87366e-06
3.01294e-06
2.67543e-07
1.01977e-06
1.97419e-05
5.11896e-05
5.12504e-05
3.01578e-05
2.72274e-06
3.96313e-07
1.3082e-06
9.55384e-07
3.72574e-07
3.18216e-06
1.4216e-06
1.76454e-08
9.18923e-08
6.16357e-06
3.05361e-05
1.98245e-06
3.07253e-06
8.26829e-06
8.39137e-06
3.43056e-06
1.14157e-06
4.73405e-06
7.01746e-05
0.000144659
0.000144529
1.85311e-05
1.64139e-07
6.93414e-07
5.25336e-06
5.67188e-06
3.41985e-06
5.27312e-07
3.69213e-05
0.000121235
3.56733e-05
5.02282e-07
3.57578e-05
1.72714e-05
5.68661e-06
8.69231e-06
8.64964e-06
5.77289e-06
2.09196e-08
7.9006e-06
0.000114102
0.000130075
0.000115946
4.8049e-08
6.65523e-08
1.13887e-06
7.40268e-06
6.95722e-06
5.71977e-06
1.25496e-06
5.49193e-07
0.000398962
0.000528734
0.000170945
1.06574e-07
1.74139e-05
4.06434e-06
8.51484e-06
8.69901e-06
7.44889e-06
4.32848e-08
1.90162e-08
3.70572e-06
8.03239e-05
0.000104774
1.29325e-06
4.80388e-08
4.83042e-08
3.29811e-06
7.25897e-06
1.22322e-06
5.3762e-07
6.77933e-07
0.000215458
0.000526979
0.000530214
0.000185211
7.38544e-08
5.31298e-06
1.24753e-06
6.49121e-06
2.96061e-06
1.07394e-06
1.47708e-07
2.15269e-08
6.89632e-07
1.42341e-06
2.61812e-09
4.54658e-09
1.3098e-07
1.20504e-07
1.55411e-06
1.96565e-06
1.17053e-06
1.13745e-06
3.68286e-05
0.00052639
0.000528168
0.000352337
3.12596e-05
6.40651e-06
5.73042e-06
-6.70479e-10
3.11394e-07
1.06212e-08
2.41928e-07
1.30858e-07
4.23543e-08
3.87905e-08
3.20968e-09
2.84158e-09
7.6449e-09
7.67489e-08
1.50949e-07
1.29046e-07
1.99629e-08
4.00402e-05
0.000102599
0.000338484
0.000528189
0.000295621
6.87202e-07
7.08642e-07
1.8646e-05
6.01696e-06
-1.02245e-10
1.04009e-25
1.09685e-08
8.73875e-08
1.07968e-07
2.13166e-08
3.54442e-09
3.44768e-09
2.43123e-09
4.03565e-09
2.1114e-08
5.50938e-08
4.87595e-08
4.87644e-09
0.000254747
0.000298582
0.000285643
6.27497e-05
5.26358e-07
5.36176e-07
2.47242e-06
1.86131e-05
6.72011e-08
6.25189e-15
4.35972e-10
5.85056e-09
2.29747e-08
2.21791e-08
6.16549e-09
2.78387e-09
2.40701e-09
1.74234e-09
1.93561e-09
4.11287e-09
6.2691e-09
8.19072e-09
7.10048e-09
5.39134e-05
4.51744e-05
3.40689e-07
2.90703e-07
7.54378e-07
5.72702e-06
7.56949e-06
1.01008e-05
3.18581e-10
3.10621e-10
4.9115e-10
1.09618e-09
3.18376e-09
1.24046e-09
1.42678e-09
1.67434e-09
1.16821e-09
9.54617e-10
9.79066e-10
1.61954e-09
2.02463e-09
2.96831e-09
3.0196e-09
1.84641e-07
2.07508e-07
8.55217e-07
4.25992e-06
9.53977e-06
9.30231e-06
1.91043e-06
2.54908e-06
3.8405e-10
7.26609e-10
4.31415e-10
4.95044e-10
5.56724e-10
5.04147e-10
5.90876e-10
6.51545e-10
5.57244e-10
4.94032e-10
5.0509e-10
7.15347e-10
9.00084e-10
1.00286e-09
1.11693e-09
1.72795e-07
4.25557e-06
1.0207e-05
1.16918e-05
1.16718e-05
4.57365e-06
3.796e-10
6.72078e-10
1.25022e-09
7.03466e-10
2.9816e-10
3.0259e-10
2.98958e-10
2.9017e-10
2.98967e-10
3.06652e-10
2.75848e-10
2.57458e-10
2.79476e-10
3.2721e-10
3.63976e-10
3.99743e-10
4.11222e-10
1.70271e-07
6.53933e-06
1.07371e-05
1.04008e-05
4.58305e-06
5.61123e-10
6.20875e-10
1.09997e-09
8.65667e-10
3.73547e-10
1.77843e-10
1.69206e-10
1.63708e-10
1.56978e-10
1.50135e-10
1.44686e-10
1.36345e-10
1.30545e-10
1.35026e-10
1.40755e-10
1.42164e-10
1.43812e-10
1.38888e-10
4.6382e-08
1.4645e-08
1.84643e-06
1.26114e-09
5.69877e-09
1.3152e-08
8.13913e-09
3.13958e-10
4.09828e-10
1.9698e-10
1.03062e-10
8.78961e-11
8.0479e-11
7.42364e-11
6.90929e-11
6.50841e-11
6.14026e-11
5.84046e-11
5.63333e-11
5.40523e-11
4.9571e-11
4.79536e-11
4.39812e-11
8.40804e-10
8.60533e-10
1.04141e-09
3.18558e-09
3.18198e-08
1.10854e-07
7.56487e-08
8.95505e-11
1.19821e-10
8.64785e-11
5.61092e-11
4.50559e-11
3.79267e-11
3.29522e-11
2.90215e-11
2.61873e-11
2.40297e-11
2.1791e-11
1.99484e-11
1.73114e-11
1.49493e-11
1.38843e-11
1.16074e-11
1.68862e-09
8.42364e-10
2.35581e-09
3.2449e-09
1.84658e-09
2.90208e-09
2.76982e-09
8.7457e-11
8.42475e-11
5.92396e-11
4.02874e-11
2.93014e-11
2.15598e-11
1.58262e-11
1.23175e-11
9.98204e-12
8.29053e-12
7.09689e-12
5.95122e-12
4.70197e-12
3.70452e-12
3.37413e-12
3.10671e-12
1.40038e-08
8.51842e-10
6.23975e-09
7.6354e-09
2.07727e-09
1.67582e-10
1.51126e-10
1.48053e-10
1.01572e-10
6.99339e-11
4.82802e-11
3.29916e-11
2.05229e-11
1.28596e-11
7.64267e-12
4.7857e-12
3.17536e-12
2.25606e-12
1.59486e-12
1.12217e-12
8.11578e-13
7.20056e-13
6.74237e-13
3.05987e-08
1.86913e-08
1.46632e-08
1.25364e-08
3.97333e-09
5.25472e-10
2.78884e-10
2.11934e-10
1.51325e-10
1.13026e-10
8.23592e-11
5.57705e-11
3.42516e-11
1.98182e-11
1.03015e-11
5.04019e-12
2.38074e-12
1.15493e-12
5.71922e-13
2.97209e-13
1.82697e-13
1.46393e-13
1.47206e-13
4.0378e-08
1.43267e-07
5.87455e-08
1.21947e-08
3.2019e-09
7.67977e-10
3.82939e-10
3.26509e-10
2.53246e-10
2.1206e-10
1.68262e-10
1.09883e-10
6.91964e-11
3.99812e-11
2.02418e-11
9.0989e-12
3.70936e-12
1.38227e-12
5.07859e-13
1.59605e-13
6.87181e-14
3.08004e-14
2.64117e-14
4.54222e-08
2.71299e-07
2.5695e-07
6.70997e-09
1.44753e-09
1.29856e-09
5.85199e-10
4.79375e-10
4.02031e-10
3.91535e-10
3.17327e-10
2.13847e-10
1.33758e-10
7.78538e-11
3.96356e-11
1.76911e-11
7.03979e-12
2.49895e-12
7.7578e-13
1.97332e-13
5.99568e-14
1.5483e-14
5.43964e-15
3.59839e-08
2.98533e-07
3.09206e-07
9.17127e-08
7.94149e-10
7.96188e-10
8.69019e-10
7.26717e-10
7.12276e-10
7.30369e-10
5.02688e-10
3.34898e-10
2.16916e-10
1.30876e-10
6.87609e-11
3.12497e-11
1.23801e-11
4.41326e-12
1.35485e-12
3.32221e-13
8.14062e-14
1.59425e-14
1.95663e-15
1.8088e-08
1.51132e-07
3.10504e-07
2.43043e-07
8.78426e-10
7.92525e-10
7.92502e-10
9.12917e-10
1.44597e-09
1.71214e-09
6.12297e-10
3.98336e-10
2.76795e-10
1.77299e-10
1.00833e-10
4.76284e-11
1.95805e-11
6.92606e-12
2.13565e-12
5.10315e-13
1.27335e-13
1.74429e-14
2.01017e-15
5.96621e-09
4.58992e-08
2.33801e-07
1.91943e-07
3.54467e-09
7.92525e-10
7.92527e-10
1.31688e-09
7.4041e-09
2.45844e-09
5.97013e-10
3.84598e-10
2.81634e-10
2.06038e-10
1.23591e-10
6.06011e-11
2.59947e-11
9.59779e-12
2.9316e-12
7.14013e-13
1.6475e-13
2.39079e-14
3.03313e-15
1.88954e-09
8.4702e-10
1.07518e-09
1.20734e-08
1.53574e-09
7.92963e-10
7.51388e-09
4.99817e-08
1.85561e-08
1.21685e-09
4.35863e-10
3.49304e-10
2.9336e-10
2.13378e-10
1.29871e-10
6.57789e-11
2.9538e-11
1.12561e-11
3.42548e-12
8.38569e-13
2.02333e-13
2.26116e-14
3.48587e-15
2.13434e-09
8.46984e-10
8.47e-10
8.47008e-10
8.63133e-10
2.77899e-09
9.09725e-08
1.31565e-07
1.40379e-08
4.07903e-10
4.08632e-10
3.53328e-10
3.11625e-10
2.11093e-10
1.21275e-10
6.06936e-11
2.7191e-11
1.0653e-11
3.42394e-12
8.29874e-13
1.87576e-13
2.73867e-14
3.27205e-15
1.76342e-08
9.72979e-10
8.61489e-10
1.26358e-09
4.31988e-09
8.71013e-09
2.00911e-07
2.0723e-07
7.20226e-09
4.08074e-10
5.01624e-10
3.91026e-10
3.21539e-10
1.96727e-10
1.02443e-10
4.80619e-11
2.06631e-11
7.84008e-12
2.56653e-12
6.54314e-13
1.51971e-13
1.65532e-14
2.44102e-15
2.41765e-07
1.02884e-09
9.49619e-10
3.45116e-09
3.8654e-08
5.08394e-07
1.48615e-06
8.06655e-07
5.58174e-10
5.61991e-10
4.95859e-10
4.05141e-10
3.0138e-10
1.67383e-10
7.80772e-11
3.23627e-11
1.24053e-11
4.37382e-12
1.41108e-12
3.70109e-13
7.53997e-14
1.169e-14
1.35423e-15
5.27759e-07
2.32288e-08
2.15961e-09
6.69287e-09
1.028e-07
1.40488e-06
1.57188e-06
8.61513e-07
5.57801e-10
6.24552e-10
3.98003e-10
3.52102e-10
2.40301e-10
1.21486e-10
4.84574e-11
1.67602e-11
5.38939e-12
1.64975e-12
4.8044e-13
1.36344e-13
3.34482e-14
4.00477e-15
5.82609e-16
5.26986e-07
1.10375e-07
7.73103e-09
8.55521e-09
7.6709e-08
1.26015e-06
1.56238e-06
1.21905e-07
2.63182e-09
5.9066e-10
2.6549e-10
2.42407e-10
1.5617e-10
7.34296e-11
2.51508e-11
6.86045e-12
1.6411e-12
3.69529e-13
9.72833e-14
3.23753e-14
7.40885e-15
1.43256e-15
2.08815e-16
4.88346e-07
1.40456e-07
9.62927e-09
1.10061e-08
4.03185e-08
8.05194e-08
2.3756e-07
1.57622e-10
3.36733e-09
2.84614e-10
1.31511e-10
1.11175e-10
7.14615e-11
3.19081e-11
9.51953e-12
1.96799e-12
3.08527e-13
4.33487e-14
9.69953e-15
4.90662e-15
1.41364e-15
3.02387e-16
5.99965e-17
6.96824e-09
1.56577e-08
2.79118e-09
1.04592e-09
2.05764e-09
2.96523e-17
-1.64478e-36
1.55651e-10
5.54707e-12
7.2962e-12
3.02618e-11
2.73747e-11
1.83557e-11
7.55333e-12
1.89747e-12
2.82938e-13
2.79085e-14
2.26679e-15
5.01072e-16
4.64174e-16
2.27477e-16
5.93417e-17
1.50365e-17
0.69959
0.697685
0.791881
0.991196
0.821763
0.822206
0.917284
0.963731
0.73383
0.661188
0.65951
0.771207
0.0428872
0.0400274
0.0352204
0.0446573
2.44232e-33
-7.66051e-29
-4.63523e-20
-2.16349e-20
9.27957e-27
2.72636e-13
1.01817e-23
3.50803e-24
1.96457e-08
8.89996e-08
1.72554e-05
3.41604e-05
0.000164499
0.000259222
0.000523151
0.000637867
0.00107641
0.00334591
0.00478153
0.00478269
0.0047832
0.00478243
0.00478252
0.00454365
2.39126e-05
0.000234695
0.00149965
0.00216568
3.29572e-11
3.07118e-11
3.29572e-11
3.37073e-11
1.53537e-06
1.28828e-06
1.13337e-06
3.08534e-06
2.49308e-06
2.94188e-06
1.90693e-06
1.69108e-06
7.79791e-06
7.79759e-06
7.49774e-06
1.60496e-06
3.58131e-06
2.77029e-09
8.26854e-07
6.87543e-07
5.18267e-08
5.19091e-10
5.19213e-10
5.19085e-10
5.19725e-10
5.20343e-10
5.23305e-10
5.24739e-10
6.47445e-10
1.24107e-09
8.67465e-10
5.92916e-10
1.1744e-09
1.30597e-09
9.64322e-10
5.32452e-10
1.31532e-09
1.17949e-09
6.21289e-10
3.95088e-10
7.22999e-10
6.1509e-10
3.62761e-10
2.41333e-10
3.17459e-10
2.62099e-10
1.67598e-10
1.17685e-10
1.03305e-10
8.69295e-11
6.97883e-11
5.1238e-11
3.14502e-11
2.89301e-11
2.43156e-11
1.99103e-11
8.67842e-12
8.35925e-12
8.28115e-12
7.45278e-12
2.22615e-12
2.35115e-12
2.56757e-12
2.58589e-12
5.36268e-13
6.19581e-13
7.70815e-13
8.64464e-13
1.28505e-13
1.62372e-13
2.25439e-13
2.68553e-13
2.85029e-14
3.99108e-14
5.8395e-14
7.66223e-14
5.69687e-15
8.4921e-15
1.42901e-14
1.98213e-14
1.04474e-15
1.79614e-15
3.07069e-15
4.79709e-15
2.37548e-16
2.89047e-16
6.3193e-16
1.00262e-15
9.45628e-17
6.3036e-17
1.01953e-16
1.98608e-16
9.28528e-17
1.77275e-17
1.80039e-17
3.19341e-17
1.23875e-16
1.17128e-17
3.19683e-18
5.07445e-18
1.29689e-16
1.01733e-17
1.13174e-18
6.23726e-19
1.0503e-16
7.37059e-18
5.51349e-19
1.03876e-19
5.96245e-17
4.17771e-18
3.16614e-19
1.33764e-20
2.64987e-17
2.09684e-18
1.25977e-19
2.7538e-21
9.11181e-18
8.02543e-19
5.13371e-20
6.2868e-22
2.52187e-18
2.65253e-19
1.65325e-20
1.48309e-22
0.996841
0.991534
0.921715
0.939311
0.968614
0.999747
0.994544
0.976542
0.95186
0.961123
0.952393
0.738158
0.493188
0.592725
0.817113
0.847017
0.724524
0.773542
0.505588
0.996138
0.969991
0.611008
0.398026
0.675905
0.90958
0.994624
0.985375
0.833242
0.861365
0.826011
0.592338
0.43194
0.719272
0.861858
0.861864
0.843836
0.839824
0.838876
0.941034
0.701873
0.113385
0.000508784
0.0141417
0.220852
0.832708
0.95814
0.849148
0.464306
0.39381
0.410172
0.456315
0.505457
0.832253
0.737629
0.481882
0.328402
0.729313
0.243154
0.189816
0.0152237
0.000492241
0.00027763
0.000265372
0.0724924
0.485267
0.718153
0.503079
0.37504
0.432553
0.461963
0.390549
0.37255
0.404661
0.204255
0.153322
0.19759
2.49262e-26
0.000238793
0.000674095
0.000791912
0.00198901
0.00143847
0.0039244
0.0435415
0.109549
0.12366
0.212468
0.387224
0.43611
0.403738
0.212552
0.198185
0.197037
0.158659
0.0092098
4.20887e-06
2.16521e-05
1.07578e-05
4.26616e-07
0.00154092
0.00415855
0.00192713
0.00104727
0.00110317
0.000496116
0.0135728
0.0853547
0.139041
0.13109
0.112851
0.148734
0.180117
0.122141
0.002574
2.32474e-05
6.11109e-06
3.77628e-07
3.47807e-07
3.89113e-05
0.00307393
0.00804769
0.00291798
0.000224663
0.000491479
0.00186835
0.00522577
0.00360725
9.50734e-06
0.000644562
0.010284
0.0242014
0.0137254
0.0015788
0.000436932
8.69428e-05
3.63698e-07
0.000100385
0.000411943
0.00774376
0.0095366
0.00645814
0.000267968
0.000171008
0.000439212
0.000159222
5.95281e-07
8.51844e-06
-2.69134e-22
-1.13165e-20
3.99175e-17
2.76941e-09
0.000735927
0.00144293
0.000158473
1.68734e-05
1.46948e-05
0.00373001
0.00953622
0.00953235
0.00447501
2.20939e-05
2.89569e-09
2.14446e-12
5.36365e-21
3.7704e-07
3.58717e-05
2.98074e-05
2.86338e-06
3.17626e-21
-3.2088e-21
8.60947e-06
0.00191076
0.00195191
0.00231297
0.000676875
0.00203281
0.00818203
0.00662867
0.00086893
5.3439e-22
-2.77543e-24
5.76639e-31
-1.94574e-12
4.54247e-05
5.78362e-05
1.99901e-05
1.6265e-06
4.04307e-07
4.54793e-06
2.79666e-06
0.000299389
0.000441494
0.0023059
0.00124916
0.000217804
0.000677874
0.000303413
8.69423e-05
5.40526e-06
-6.36319e-24
-2.53433e-15
2.70416e-05
7.36399e-05
5.1599e-05
4.18853e-06
7.20086e-07
1.71191e-06
6.81733e-06
2.55759e-06
3.34792e-07
0.000240287
0.000729728
0.000350989
0.000124674
0.000192674
0.000115375
6.42671e-05
3.3117e-05
9.89057e-06
3.46766e-06
5.44334e-05
7.37334e-05
3.59041e-05
6.36569e-07
6.35819e-07
1.78111e-06
6.14689e-06
1.10757e-05
4.12746e-06
8.29427e-06
9.35117e-05
0.000110593
8.70622e-05
6.54837e-05
6.51172e-05
6.5497e-05
6.50675e-05
2.3899e-05
4.48179e-06
2.30451e-05
5.16205e-05
3.47983e-05
1.75179e-06
6.39022e-07
5.59996e-06
5.91588e-06
1.77454e-05
7.23336e-06
2.94486e-05
5.8876e-05
4.81617e-05
3.06665e-05
1.53468e-05
2.45064e-05
2.68308e-05
4.83247e-05
1.16322e-05
6.71169e-07
1.70607e-06
1.00356e-05
1.10598e-05
3.57708e-06
6.78704e-06
1.10244e-05
9.17456e-06
1.77465e-05
3.13682e-06
4.50197e-06
3.01839e-06
6.70256e-10
7.00665e-10
6.35849e-10
6.89118e-10
6.15307e-10
1.69991e-06
2.55747e-07
2.36498e-09
3.08194e-09
2.58785e-09
8.44112e-07
1.60035e-06
1.10464e-05
1.10405e-05
1.02963e-05
1.77071e-05
5.1739e-08
3.52358e-09
3.15915e-09
8.06962e-10
2.59792e-09
2.50431e-09
4.04927e-09
4.66761e-09
1.23744e-08
1.11517e-08
1.63541e-08
1.75838e-08
3.41873e-09
1.11287e-07
3.22841e-06
9.61586e-06
1.09146e-05
3.59456e-06
7.28777e-06
5.19397e-10
8.34262e-10
2.04896e-09
2.77198e-09
3.29666e-09
3.19313e-09
5.11995e-09
6.83775e-09
5.47299e-09
1.07438e-08
4.32059e-08
3.73831e-08
1.44008e-08
1.20482e-06
4.60048e-06
7.80746e-07
1.44154e-06
3.36056e-08
3.41954e-08
5.54677e-10
7.92193e-10
1.43829e-09
2.14422e-09
2.27229e-09
1.9177e-09
3.01959e-09
4.42686e-09
6.13987e-09
1.5425e-08
4.32195e-08
1.87214e-08
3.59542e-08
1.6068e-06
4.57834e-06
2.4748e-08
5.13911e-08
3.47388e-08
3.40463e-08
5.49906e-10
6.08784e-10
8.42641e-10
1.1435e-09
1.19779e-09
9.16472e-10
9.20175e-10
1.62051e-09
4.61435e-09
1.02741e-08
1.903e-08
6.8793e-09
5.73701e-08
4.01655e-07
5.29797e-07
2.45334e-08
6.70181e-09
4.2532e-08
6.09419e-08
4.38036e-10
4.13549e-10
4.90048e-10
6.09816e-10
6.2462e-10
4.97779e-10
4.56135e-10
1.07917e-09
3.1424e-09
4.30657e-09
1.99529e-09
5.75621e-09
1.94419e-08
3.26104e-08
6.72289e-08
8.83012e-08
3.30007e-09
3.99579e-08
6.37593e-08
3.00286e-10
2.53136e-10
2.90258e-10
3.36458e-10
3.40705e-10
3.01355e-10
3.88789e-10
9.38193e-10
1.61825e-09
1.44025e-09
1.13573e-09
3.13127e-09
4.42955e-09
1.593e-08
7.1648e-08
9.09059e-08
3.27375e-09
2.25371e-08
5.92443e-08
1.7725e-10
1.46382e-10
1.62341e-10
1.80675e-10
1.85063e-10
1.84428e-10
3.09184e-10
5.71822e-10
6.3827e-10
5.11137e-10
8.47926e-10
2.03535e-09
3.33772e-09
1.28293e-08
3.86967e-08
5.29335e-08
1.2635e-09
1.02151e-08
1.23482e-08
8.98986e-11
7.87891e-11
8.71353e-11
9.65578e-11
9.91996e-11
1.06873e-10
2.07452e-10
3.46597e-10
3.67023e-10
2.97302e-10
4.98141e-10
1.1155e-09
1.97847e-09
4.87384e-09
7.67897e-09
1.00461e-09
4.75368e-10
2.31375e-09
3.97416e-09
4.23596e-11
3.95481e-11
4.44327e-11
4.91528e-11
5.25197e-11
5.91792e-11
1.15782e-10
1.85619e-10
1.89474e-10
1.51132e-10
2.46371e-10
5.23321e-10
8.79872e-10
1.06577e-09
1.12111e-09
9.77991e-11
3.19064e-10
2.49144e-10
9.0223e-10
1.84782e-11
1.85138e-11
2.12144e-11
2.39003e-11
2.6577e-11
3.26293e-11
5.50877e-11
8.25369e-11
8.72862e-11
6.82611e-11
1.07653e-10
2.19989e-10
3.60736e-10
3.26653e-10
1.99324e-10
9.82207e-11
2.3247e-10
2.5838e-11
1.40519e-10
7.34669e-12
8.10207e-12
9.55812e-12
1.09548e-11
1.24814e-11
1.56129e-11
2.34886e-11
3.42841e-11
3.43739e-11
2.85019e-11
4.32722e-11
8.61732e-11
1.43881e-10
1.54619e-10
8.73113e-11
6.71817e-11
1.10116e-10
1.57131e-11
1.51679e-11
2.74456e-12
3.33309e-12
4.04176e-12
4.72577e-12
5.47585e-12
6.74068e-12
9.32374e-12
1.27835e-11
1.32851e-11
1.14368e-11
1.67719e-11
3.43095e-11
6.29772e-11
7.49308e-11
4.38895e-11
3.2857e-11
2.81637e-11
8.8936e-12
3.34412e-12
9.74215e-13
1.26943e-12
1.60081e-12
1.92149e-12
2.26272e-12
2.73229e-12
3.51423e-12
4.49638e-12
4.70526e-12
4.0191e-12
5.58657e-12
9.60228e-12
1.08535e-11
1.59973e-11
2.278e-11
1.5774e-11
7.15724e-12
6.21136e-12
9.46596e-13
3.17756e-13
4.50632e-13
5.9065e-13
7.32875e-13
8.79754e-13
1.05015e-12
1.27493e-12
1.52689e-12
1.59178e-12
1.43948e-12
1.51313e-12
7.78536e-13
5.64867e-13
1.21786e-12
5.50212e-12
9.41381e-12
4.8006e-12
2.64876e-12
8.78658e-13
9.67591e-14
1.47855e-13
2.01665e-13
2.6005e-13
3.19034e-13
3.79498e-13
4.42245e-13
5.00452e-13
5.11599e-13
4.66022e-13
4.36121e-13
1.49738e-13
4.13624e-14
6.72172e-14
8.27961e-13
2.82287e-12
2.86899e-12
1.7926e-12
7.64506e-13
2.65129e-14
4.33836e-14
6.3295e-14
8.49125e-14
1.07093e-13
1.27271e-13
1.43751e-13
1.55265e-13
1.51443e-13
1.37901e-13
1.31779e-13
6.77895e-14
2.80649e-14
4.61292e-14
1.40646e-13
6.60386e-13
1.50035e-12
1.02255e-12
6.95436e-13
6.73899e-15
1.17109e-14
1.81478e-14
2.51758e-14
3.20708e-14
3.83832e-14
4.30169e-14
4.43573e-14
4.0645e-14
3.70187e-14
3.61141e-14
2.83274e-14
2.23509e-14
4.24774e-14
1.1132e-13
2.60983e-13
6.03644e-13
8.36405e-13
5.39912e-13
1.52196e-15
2.86381e-15
4.53607e-15
6.57383e-15
8.61545e-15
1.03194e-14
1.1374e-14
1.11446e-14
1.00695e-14
9.43947e-15
1.03231e-14
1.24151e-14
1.78288e-14
3.92112e-14
1.00613e-13
2.32081e-13
3.95429e-13
6.33963e-13
4.74358e-13
3.14937e-16
6.23641e-16
1.04728e-15
1.59008e-15
2.12406e-15
2.54537e-15
2.75503e-15
2.57763e-15
2.35471e-15
2.57755e-15
3.75692e-15
6.8562e-15
1.38077e-14
3.27585e-14
8.40239e-14
2.04758e-13
3.66424e-13
5.27446e-13
3.97048e-13
5.48087e-17
1.23336e-16
2.17438e-16
3.41137e-16
4.68079e-16
5.63032e-16
6.03398e-16
5.72007e-16
5.79804e-16
8.61614e-16
1.81335e-15
4.2342e-15
1.00928e-14
2.46078e-14
6.34684e-14
1.60797e-13
3.29609e-13
4.38844e-13
3.06057e-13
8.70716e-18
2.15153e-17
4.02622e-17
6.53734e-17
9.12032e-17
1.10955e-16
1.20974e-16
1.25641e-16
1.65589e-16
3.52335e-16
9.4711e-16
2.59226e-15
6.65085e-15
1.65401e-14
4.18496e-14
1.06257e-13
2.39491e-13
3.65802e-13
1.97532e-13
1.29176e-18
3.14428e-18
6.53037e-18
1.09194e-17
1.55134e-17
1.93147e-17
2.21614e-17
2.78943e-17
5.40131e-17
1.52625e-16
4.75273e-16
1.41879e-15
3.94968e-15
1.01194e-14
2.55099e-14
6.28367e-14
1.43322e-13
2.17804e-13
1.38434e-13
1.59609e-19
4.30704e-19
9.16462e-19
1.57709e-18
2.28511e-18
3.02682e-18
4.01465e-18
6.63091e-18
1.80159e-17
6.17282e-17
2.16521e-16
7.04119e-16
2.0623e-15
5.51124e-15
1.38631e-14
3.38159e-14
7.41774e-14
1.35245e-13
7.64082e-14
2.04852e-20
5.56041e-20
1.14169e-19
1.97038e-19
3.15647e-19
4.17693e-19
7.15483e-19
1.60865e-18
5.1536e-18
2.21391e-17
8.73036e-17
3.11694e-16
9.80359e-16
2.74041e-15
6.8163e-15
1.67282e-14
3.81886e-14
5.87947e-14
4.31688e-14
2.28629e-21
6.61896e-21
1.40996e-20
2.52958e-20
4.0357e-20
6.19773e-20
1.22959e-19
3.54797e-19
1.39244e-18
6.38561e-18
2.85405e-17
1.12468e-16
3.85457e-16
1.14258e-15
2.86189e-15
7.09093e-15
1.41503e-14
2.60696e-14
2.22413e-14
2.43321e-22
7.1986e-22
1.62262e-21
3.13282e-21
5.23037e-21
9.51174e-21
2.18942e-20
7.39716e-20
3.28337e-19
1.66226e-18
7.93661e-18
3.552e-17
1.33458e-16
4.23585e-16
1.15171e-15
2.80882e-15
5.44846e-15
1.10143e-14
1.23769e-14
2.57844e-23
7.29762e-23
1.77489e-22
3.72531e-22
6.9261e-22
1.47156e-21
3.89923e-21
1.46831e-20
7.1638e-20
3.84885e-19
2.14094e-18
1.05761e-17
4.36272e-17
1.48324e-16
4.2206e-16
1.0421e-15
1.98316e-15
3.70816e-15
3.64136e-15
)
;

boundaryField
{
    leftWall
    {
        type            zeroGradient;
    }
    rightWall
    {
        type            zeroGradient;
    }
    lowerWall
    {
        type            zeroGradient;
    }
    atmosphere
    {
        type            inletOutlet;
        inletValue      uniform 0;
        value           nonuniform List<scalar> 
46
(
0
0
0
0
0
0
0
0
0
0
0
0
0
0
0
0
0
0
0
0
0
5.93417e-17
1.50365e-17
2.52187e-18
2.65253e-19
1.65325e-20
1.48309e-22
2.57844e-23
7.29762e-23
1.7749e-22
3.72531e-22
6.9261e-22
1.47156e-21
3.89923e-21
1.46831e-20
7.1638e-20
3.84885e-19
2.14094e-18
1.05761e-17
4.36272e-17
1.48324e-16
4.2206e-16
1.0421e-15
1.98316e-15
3.70816e-15
3.64136e-15
)
;
    }
    defaultFaces
    {
        type            empty;
    }
}


// ************************************************************************* //
