/*--------------------------------*- C++ -*----------------------------------*\
| =========                 |                                                 |
| \\      /  F ield         | OpenFOAM: The Open Source CFD Toolbox           |
|  \\    /   O peration     | Version:  2312                                  |
|   \\  /    A nd           | Website:  www.openfoam.com                      |
|    \\/     M anipulation  |                                                 |
\*---------------------------------------------------------------------------*/
FoamFile
{
    version     2.0;
    format      ascii;
    arch        "LSB;label=32;scalar=64";
    class       volScalarField;
    location    "2.65";
    object      p;
}
// * * * * * * * * * * * * * * * * * * * * * * * * * * * * * * * * * * * * * //

dimensions      [1 -1 -2 0 0 0 0];

internalField   nonuniform List<scalar> 
2268
(
4570.99
4580.1
4599.93
4625.99
4654.48
4680.61
4703.48
4724.94
4747.69
4780.45
4828.72
4898.24
4992.09
5112.43
5259.61
5431.22
5619.65
5814.01
6002.43
6171.19
6310.66
6410.7
6464.66
3771.21
3780.49
3801.98
3829.12
3858.84
3885.13
3907.55
3928.38
3948.96
3980.63
4027.65
4096.34
4189.81
4310.13
4457.99
4631.31
4821.98
5019.16
5210.53
5381.88
5523.23
5624.63
5679.7
2970.57
2980.81
3002.82
3031.85
3062.96
3089.97
3111.54
3130.02
3148.92
3177.26
3221.68
3289.18
3381.6
3501.69
3650.74
3827.62
4022.84
4225.51
4422.7
4598.63
4744.14
4848.59
4906.14
2167.31
2178.02
2201.65
2234.38
2268.94
2296.94
2317.13
2332.05
2346.95
2370.32
2410.48
2476.76
2567.32
2686.96
2837.25
3019.74
3222.05
3433.31
3639.48
3822.42
3974.12
4083.08
4144.36
1404.59
1409.38
1427.65
1456.69
1488.78
1512.36
1527.28
1536.11
1545.12
1562.2
1596.05
1659.06
1746.07
1866
2024.31
2208.6
2419.21
2642.34
2861.04
3053.18
3213.3
3328.35
3395.26
949.208
945.365
947.307
953.361
961.915
966.658
968.448
968.317
969.509
975.01
988.791
1009.79
1052.7
1129.22
1245.05
1406.79
1616.08
1852.78
2088.05
2290.03
2462.48
2585.01
2659.07
823.788
817.727
810.398
799.733
789.556
780.573
773.885
769.369
767.081
766.315
768.804
770.291
770.135
784.925
815.956
874.224
983.953
1144.55
1343.35
1540.11
1719.35
1849.49
1936.17
765.151
758.861
751.081
740.724
730.483
722.009
715.102
709.977
707.225
705.716
705.39
705.062
706.601
710.534
716.961
723.644
731.388
760.609
831.313
933.23
1059.59
1164.84
1262.08
2865.53
2762.57
2611.61
2449.9
2325.83
2248.94
2229
2253.13
2319.51
2429.34
2575.11
2744.22
2891.47
3006.03
3096.28
3124.36
3082.64
3031.95
3042.34
2133.37
2024.49
1872.18
1715.68
1599.21
1536.25
1528.11
1552.52
1611.94
1707.56
1838.76
2000.81
2142.02
2259.19
2346.3
2362.63
2322.88
2286.69
2322.04
1488.54
1396.79
1291.79
1195.42
1148.14
1129.15
1126.03
1153.62
1181.23
1206.37
1278.93
1396.63
1509.87
1607.52
1673.77
1662.91
1657.72
1691.61
1792.4
1087.37
1044.86
1029.47
1019.71
1023.82
1032.46
1023.06
1046.43
1051.21
1034.18
1036.25
1067.71
1118.59
1167.92
1192.95
1181.85
1219.92
1295.34
1427.95
935.02
939.965
954.888
965.012
969.74
978.178
972.407
996.848
991.203
975.444
959.317
950.186
948.284
953.408
956.287
968.92
999.004
1037.18
1109.26
871.849
889.97
901.417
908.092
910.13
916.933
914.434
935.038
917.807
907.639
904.416
899.129
884.02
882.864
880.89
880.892
884.287
890.446
900.693
824.36
836.943
844.301
847.233
848.416
853.645
854.133
864.89
848.681
843.341
850.562
849.43
837.793
836.275
826.092
816.06
813.74
813.863
810.96
765.038
781.679
786.566
786.316
786.312
790.57
793.448
792.183
786.658
784.411
790.334
789.053
782.123
777.605
763.108
755.776
760.288
764.699
758.185
675.375
667.187
658.747
648.641
638.747
630.188
622.368
615.339
609.987
607.522
606.912
609.041
612.357
615.654
619.622
623.544
623.767
628.014
636.399
649.442
665.44
690.797
741.34
552.663
543.375
534.549
525.057
515.373
505.714
495.815
485.49
477.342
473.689
474.65
480.319
488.806
494.85
498.406
502.34
503.705
499.374
496.08
493.59
494.731
499.263
509.136
425.142
416.053
409.28
398.14
387.388
382.1
375.93
366.786
362.536
363.635
368.73
375.648
382.419
387.318
389.237
389.147
390.336
391.197
391.984
392.817
393.076
396.055
403.942
329.296
314.734
297.343
285.158
282.076
282.192
281.443
279.397
279.075
282.844
290.32
297.689
302.789
305.305
306.098
307.028
308.573
309.859
309.941
310.342
312.052
316.2
324.939
241.469
227.25
214.488
206.735
204.841
208.674
213.891
213.273
209.035
209.71
217.102
225.65
231.982
235.773
238.213
240.591
243.523
246.863
250.057
252.988
256.002
259.294
265.119
160.43
146.996
145.312
149.588
153.899
156.832
155.711
149.849
138.617
135.571
143.525
152.658
159.034
163.166
166.778
170.994
176.286
182.209
187.909
192.764
197.803
203.441
209.769
95.3295
87.2795
97.6885
105.199
112.612
113.736
108.653
96.1788
81.8135
72.957
73.5642
78.6039
83.0847
87.4738
92.9668
99.0922
106.029
114.708
123.202
130.63
137.712
144.85
151.711
40.2013
41.65
52.5659
65.5993
73.4285
70.8979
64.3794
54.9101
46.1482
34.7469
22.7625
19.3033
19.3572
21.2063
25.5407
30.9718
35.7888
45.0444
55.67
65.92
76.4529
84.4505
91.2444
7.15708
8.77474
15.1996
24.9256
33.9246
32.4253
31.0958
29.6965
24.6108
10.9222
2.28247
0.229627
0.139225
0.566094
1.26446
1.947
1.96865
4.49876
9.87197
16.9085
25.7772
30.6003
33.4974
0.634871
-0.446965
0.661847
4.11571
8.83171
11.1938
14.9313
15.8529
10.4967
2.93238
-0.857416
-1.38269
-1.42071
-1.50687
-1.3796
-1.37996
-1.49486
-1.53691
-1.5424
-0.417742
2.04059
2.27765
2.2435
-0.941879
-1.62843
-1.62921
-0.715789
0.472419
2.3333
5.84873
7.40935
3.9517
-1.44229
-2.48791
-2.1061
-1.87017
-1.86643
-1.86471
-1.8438
-1.81981
-1.86377
-1.92717
-2.03464
-2.01428
-1.99949
-2.00328
-2.09826
-2.43301
-2.94368
-2.5697
-1.88295
-1.59375
-1.02727
-0.803749
-2.02352
-2.82799
-2.8828
-2.54392
-2.23522
-2.08772
-2.04483
-2.00022
-1.96685
-1.96868
-2.02925
-2.12311
-2.17208
-2.1855
-2.21415
-2.48705
-2.68263
-3.03487
-2.95386
-2.43195
-2.20151
-2.15323
-2.23168
-2.559
-2.88601
-2.91832
-2.72784
-2.45708
-2.26352
-2.16697
-2.12794
-2.11555
-2.1192
-2.15926
-2.22334
-2.27999
-2.3211
-2.37041
-2.51218
-2.61631
-2.79137
-2.90632
-2.65971
-2.45736
-2.4047
-2.47193
-2.66159
-2.84948
-2.89062
-2.77197
-2.58376
-2.42153
-2.32476
-2.27838
-2.25908
-2.26872
-2.30559
-2.3603
-2.40761
-2.44914
-2.50459
-2.42128
-2.4792
-2.59546
-2.71434
-2.68645
-2.58255
-2.54571
-2.59844
-2.72862
-2.8534
-2.86849
-2.80241
-2.68202
-2.56984
-2.49285
-2.44782
-2.42826
-2.43896
-2.46894
-2.50347
-2.53519
-2.57095
-2.61614
-2.3439
-2.36979
-2.48419
-2.59941
-2.67056
-2.66
-2.65406
-2.69609
-2.79029
-2.87538
-2.87965
-2.84468
-2.77412
-2.70349
-2.64813
-2.6121
-2.59838
-2.60275
-2.61822
-2.63675
-2.66018
-2.68933
-2.72451
-2.32098
-2.33382
-2.45938
-2.60412
-2.72656
-2.7713
-2.78266
-2.81655
-2.88705
-2.92166
-2.93078
-2.90985
-2.86818
-2.82349
-2.78554
-2.75989
-2.74949
-2.74845
-2.75381
-2.76482
-2.7818
-2.80395
-2.82909
-2.36595
-2.40062
-2.53057
-2.71278
-2.85366
-2.91903
-2.93825
-2.97204
-3.0228
-3.00987
-3.01074
-2.99426
-2.96665
-2.9369
-2.91071
-2.89211
-2.88268
-2.87975
-2.88148
-2.8885
-2.90111
-2.91764
-2.9324
-2.51249
-2.55991
-2.70994
-2.89562
-3.01559
-3.07431
-3.10692
-3.14184
-3.14513
-3.12471
-3.10908
-3.09022
-3.06859
-3.04708
-3.02824
-3.01426
-3.00595
-3.00229
-3.00263
-3.00696
-3.01495
-3.02511
-3.0345
-2.76035
-2.80983
-2.93873
-3.07162
-3.16966
-3.23047
-3.27376
-3.29149
-3.25535
-3.22985
-3.20854
-3.18926
-3.17122
-3.15481
-3.14088
-3.13038
-3.12367
-3.12029
-3.11991
-3.12229
-3.12698
-3.13292
-3.13832
-3.0001
-3.04139
-3.13391
-3.2328
-3.31615
-3.37367
-3.40777
-3.39784
-3.35827
-3.32754
-3.30509
-3.28775
-3.27313
-3.26065
-3.25039
-3.24267
-3.23756
-3.23482
-3.23417
-3.23535
-3.23792
-3.24115
-3.24385
-3.18116
-3.22377
-3.2944
-3.37246
-3.43682
-3.47986
-3.48813
-3.46812
-3.44154
-3.4167
-3.39855
-3.38502
-3.37414
-3.36519
-3.35801
-3.35265
-3.34908
-3.3471
-3.3465
-3.34701
-3.34828
-3.34979
-3.35073
-3.32111
-3.35884
-3.4167
-3.47508
-3.52251
-3.54691
-3.54758
-3.53409
-3.51716
-3.50187
-3.4904
-3.48169
-3.47473
-3.46909
-3.46465
-3.46139
-3.45924
-3.45807
-3.4577
-3.45791
-3.45843
-3.4589
-3.45876
-3.42197
-3.4562
-3.49934
-3.5459
-3.58211
-3.60198
-3.60669
-3.60226
-3.59481
-3.58803
-3.58289
-3.57886
-3.57559
-3.57296
-3.57096
-3.56956
-3.56872
-3.56834
-3.56833
-3.5685
-3.56864
-3.56855
-3.56781
-3.49629
-3.52842
-3.56521
-3.60565
-3.63876
-3.66069
-3.67212
-3.6763
-3.67708
-3.67731
-3.67751
-3.67741
-3.67734
-3.67733
-3.67744
-3.67771
-3.678
-3.6784
-3.6788
-3.6791
-3.67914
-3.67879
-3.67781
-3.56697
-3.59837
-3.63302
-3.67169
-3.70543
-3.73106
-3.74837
-3.75924
-3.76616
-3.77103
-3.7748
-3.77804
-3.78061
-3.78272
-3.78455
-3.7863
-3.78748
-3.78859
-3.78944
-3.78997
-3.79009
-3.78971
-3.78869
-3.6501
-3.68074
-3.71453
-3.75264
-3.78717
-3.81521
-3.83617
-3.85126
-3.86224
-3.87047
-3.87684
-3.882
-3.88622
-3.88973
-3.89266
-3.895
-3.89735
-3.89923
-3.90051
-3.90133
-3.90162
-3.90136
-3.90046
-3.75134
-3.78014
-3.81244
-3.84908
-3.88309
-3.9117
-3.93415
-3.95125
-3.96427
-3.9743
-3.98221
-3.98864
-3.99398
-3.99847
-4.00228
-4.00548
-4.00822
-4.01038
-4.01218
-4.01333
-4.01387
-4.0138
-4.01309
-3.86938
-3.89529
-3.92492
-3.95879
-3.99078
-4.01834
-4.0406
-4.05804
-4.07163
-4.0823
-4.09086
-4.09791
-4.10384
-4.10892
-4.11328
-4.11701
-4.12016
-4.12271
-4.1247
-4.12613
-4.12691
-4.12707
-4.1266
-4.00007
-4.02251
-4.04867
-4.07883
-4.10774
-4.13308
-4.15393
-4.17054
-4.18366
-4.19412
-4.20263
-4.20973
-4.21582
-4.22113
-4.22576
-4.22978
-4.23319
-4.23601
-4.23822
-4.23982
-4.24082
-4.2412
-4.24096
-4.13892
-4.15779
-4.18016
-4.2062
-4.23148
-4.25394
-4.27264
-4.28768
-4.29967
-4.30931
-4.31726
-4.324
-4.32989
-4.33511
-4.33977
-4.34387
-4.34741
-4.35036
-4.35272
-4.35447
-4.35562
-4.3562
-4.35618
-4.28227
-4.29777
-4.31643
-4.33836
-4.35989
-4.37921
-4.39541
-4.40849
-4.41893
-4.42739
-4.43444
-4.44052
-4.44594
-4.45086
-4.45533
-4.45934
-4.46285
-4.46582
-4.46823
-4.47007
-4.47134
-4.47206
-4.47223
-4.4275
-4.43997
-4.45521
-4.47333
-4.49126
-4.50746
-4.52107
-4.53202
-4.54076
-4.54785
-4.55382
-4.55907
-4.56386
-4.5683
-4.57242
-4.57618
-4.57952
-4.5824
-4.58477
-4.58662
-4.58795
-4.58877
-4.58908
-4.57282
-4.58262
-4.59484
-4.60955
-4.62418
-4.63746
-4.64857
-4.65744
-4.66445
-4.67015
-4.67502
-4.67938
-4.68345
-4.68731
-4.69096
-4.69435
-4.69741
-4.70008
-4.70232
-4.70411
-4.70543
-4.70629
-4.70669
-4.71697
-4.72449
-4.73409
-4.74584
-4.75756
-4.7682
-4.77704
-4.78397
-4.78939
-4.7938
-4.79763
-4.80113
-4.80448
-4.80771
-4.81083
-4.81376
-4.81644
-4.81881
-4.82083
-4.82247
-4.82372
-4.82458
-4.82503
-4.8591
-4.86472
-4.87212
-4.88135
-4.89054
-4.89891
-4.90579
-4.91103
-4.9151
-4.91842
-4.92135
-4.92408
-4.92673
-4.92934
-4.93187
-4.93428
-4.9365
-4.93849
-4.94022
-4.94165
-4.94277
-4.94357
-4.94402
-4.99868
-5.00281
-5.00839
-5.01555
-5.0226
-5.02908
-5.03437
-5.03828
-5.04129
-5.04377
-5.04596
-5.04801
-5.05002
-5.05199
-5.05392
-5.05576
-5.05747
-5.05902
-5.06039
-5.06155
-5.06249
-5.06319
-5.06361
-5.13558
-5.13859
-5.14268
-5.14823
-5.15353
-5.15852
-5.16267
-5.16563
-5.16788
-5.16974
-5.17134
-5.17279
-5.17416
-5.17549
-5.17678
-5.17801
-5.17917
-5.18025
-5.18122
-5.18208
-5.18281
-5.18337
-5.18374
-5.27013
-5.27229
-5.27513
-5.27957
-5.28348
-5.2873
-5.29072
-5.29311
-5.29486
-5.29627
-5.29738
-5.29826
-5.29899
-5.29965
-5.30027
-5.30087
-5.30145
-5.30203
-5.30259
-5.30312
-5.30362
-5.30403
-5.30432
-5.40304
-5.40438
-5.40657
-5.40962
-5.41274
-5.41574
-5.41853
-5.42075
-5.4222
-5.42326
-5.42391
-5.42423
-5.42431
-5.42428
-5.42422
-5.42417
-5.42417
-5.42423
-5.42437
-5.42457
-5.42483
-5.42508
-5.42529
-5.53463
-5.53554
-5.53714
-5.53934
-5.54181
-5.54422
-5.54655
-5.54858
-5.54991
-5.55065
-5.55082
-5.55053
-5.54995
-5.54922
-5.54847
-5.54779
-5.5472
-5.54675
-5.54646
-5.54634
-5.54635
-5.54646
-5.54658
-5.66547
-5.66614
-5.66741
-5.66914
-5.67118
-5.67307
-5.67521
-5.67738
-5.67857
-5.67888
-5.67842
-5.67737
-5.67598
-5.67445
-5.67297
-5.67162
-5.67045
-5.66949
-5.66877
-5.66831
-5.66811
-5.66808
-5.66811
766.129
758.145
729.609
708.043
524.696
533.205
540.433
550.857
414.96
422.635
430.043
437.405
335.503
342.677
348.791
353.672
272.624
278.16
283.625
288.763
215.667
219.791
224.262
228.85
156.82
160.261
164.173
168.254
96.5312
100.118
104.046
108.045
37.3809
41.2932
44.5562
48.1153
3.01749
7.05758
6.91936
8.09665
-1.99579
-2.01085
-1.9896
-1.74052
-2.29581
-2.39049
-2.48636
-2.5561
-2.42802
-2.47536
-2.53657
-2.60782
-2.56176
-2.60168
-2.64405
-2.68565
-2.65678
-2.68441
-2.71242
-2.74502
-2.75257
-2.77066
-2.78808
-2.80625
-2.84707
-2.858
-2.86825
-2.87838
-2.94245
-2.94864
-2.95427
-2.95949
-3.04025
-3.04356
-3.04631
-3.04859
-3.14124
-3.14269
-3.14358
-3.14405
-3.24484
-3.24507
-3.24482
-3.24419
-3.3505
-3.34998
-3.34904
-3.34777
-3.4578
-3.45684
-3.45553
-3.45391
-3.56647
-3.5653
-3.56381
-3.56205
-3.67632
-3.67507
-3.67355
-3.67179
-3.78723
-3.78601
-3.78455
-3.78286
-3.89911
-3.89799
-3.89665
-3.8951
-4.01193
-4.01095
-4.00976
-4.00838
-4.12565
-4.12482
-4.1238
-4.1226
-4.24023
-4.23956
-4.23871
-4.23771
-4.35565
-4.35513
-4.35445
-4.35363
-4.47188
-4.4715
-4.47097
-4.47032
-4.58888
-4.58862
-4.58823
-4.58772
-4.70662
-4.70645
-4.70617
-4.7058
-4.82504
-4.82495
-4.82476
-4.8245
-4.94409
-4.94406
-4.94394
-4.94376
-5.06372
-5.06372
-5.06366
-5.06355
-5.18385
-5.18388
-5.18386
-5.1838
-5.30443
-5.30448
-5.30448
-5.30445
-5.42538
-5.42542
-5.42544
-5.42543
-5.54664
-5.54668
-5.5467
-5.5467
-5.66814
-5.66816
-5.66818
-5.66819
693.669
695.338
694.67
690.484
689.764
692.288
695.276
682.28
691.356
687.669
681.091
671.025
676.262
672.798
668.604
669.277
677.25
679.825
679.794
562.565
568.915
567.602
567.504
566.522
564.898
565.372
547.222
559.525
559.262
547.259
536.715
537.868
537.366
548.043
552.698
561.158
556.428
569.446
450.855
460.497
463.416
467.683
469.649
464.229
452.436
434.231
437.284
441.814
437.941
432.192
422.821
418.293
427.905
434.378
438.293
435.47
444.553
361.4
373.41
380.927
382.454
382.947
378.726
361.634
342.105
337.98
340.041
340.782
339.884
330.112
320.327
318.86
324.026
330.369
333.016
331.438
295.814
305.703
312.15
308.396
299.809
293.715
285.921
269.055
257.738
255.046
254.336
252.448
243.288
231.36
226.316
229.864
237.643
238.611
240.629
236.157
244.548
247.08
241.696
230.766
221.053
215.257
204.757
193.981
187.044
180.082
171.538
159.578
145.24
141.431
143.633
149.715
152.42
156.977
175.646
182.863
183.639
177.388
167.032
155.807
144.429
134.857
129.501
122.697
113.891
101.988
85.7992
68.2765
60.8368
59.7175
66.4032
73.1684
73.6446
116.305
124.401
121.73
114.158
102.663
86.7523
74.8932
70.5448
66.6868
60.1912
52.7103
42.2209
28.5806
16.8896
10.3665
7.12348
10.825
14.2705
10.4179
58.2969
70.1025
68.1834
53.7021
39.3146
26.2248
25.03
24.9492
20.7099
15.5868
11.312
7.15191
2.56069
0.475634
-0.685315
-0.629283
-0.305453
-0.43223
-0.670105
16.6086
24.1527
17.8406
6.3369
2.51949
1.81413
2.33672
3.09508
2.14647
0.403736
-0.845614
-1.24788
-1.31512
-1.35996
-1.38515
-1.25732
-1.15636
-1.16398
-1.01176
3.29216
1.86827
-1.42657
-1.95577
-1.77841
-1.55939
-1.55631
-1.5549
-1.54891
-1.48764
-1.42547
-1.47264
-1.50714
-1.5261
-1.51703
-1.4116
-1.32398
-1.30095
-1.25414
-2.6839
-2.75574
-2.71746
-2.38243
-2.17154
-1.96588
-1.80959
-1.77979
-1.78913
-1.79927
-1.75324
-1.7057
-1.6813
-1.66852
-1.6416
-1.56465
-1.50239
-1.47361
-1.4722
-2.75374
-2.92132
-2.87005
-2.65013
-2.39989
-2.17362
-2.04233
-2.00119
-1.99234
-1.97526
-1.94616
-1.89823
-1.8561
-1.82686
-1.80122
-1.75969
-1.71232
-1.67498
-1.65316
-2.75598
-2.82928
-2.80242
-2.68441
-2.51633
-2.34798
-2.24541
-2.19656
-2.16546
-2.13609
-2.098
-2.06035
-2.02436
-1.99335
-1.97275
-1.95488
-1.92978
-1.8849
-1.85244
-2.79646
-2.81995
-2.7896
-2.70745
-2.59635
-2.48443
-2.40542
-2.35502
-2.31778
-2.28179
-2.24414
-2.21005
-2.17996
-2.15351
-2.13554
-2.12319
-2.11398
-2.09355
-2.06522
-2.83451
-2.8434
-2.81639
-2.75719
-2.67978
-2.60169
-2.53991
-2.49302
-2.45417
-2.41853
-2.38454
-2.35428
-2.32808
-2.30619
-2.28986
-2.27999
-2.27482
-2.27744
-2.2621
-2.89276
-2.89254
-2.86978
-2.82674
-2.77153
-2.71472
-2.66499
-2.6229
-2.58608
-2.55286
-2.52268
-2.49639
-2.47385
-2.45515
-2.44102
-2.43358
-2.42813
-2.43293
-2.42285
-2.96613
-2.96146
-2.94216
-2.90978
-2.86898
-2.82592
-2.78537
-2.74862
-2.7154
-2.68553
-2.65884
-2.63584
-2.61631
-2.60017
-2.58787
-2.58056
-2.57411
-2.5744
-2.56459
-3.05083
-3.04415
-3.02759
-3.00223
-2.97083
-2.93699
-2.90362
-2.87206
-2.8428
-2.81628
-2.79254
-2.77196
-2.75442
-2.7399
-2.72855
-2.72039
-2.71292
-2.70923
-2.70028
-3.14366
-3.13617
-3.12176
-3.10119
-3.07613
-3.04876
-3.02099
-2.99399
-2.96846
-2.94495
-2.92367
-2.90489
-2.88864
-2.87494
-2.86372
-2.85467
-2.84609
-2.83993
-2.83199
-3.24226
-3.23455
-3.22186
-3.20469
-3.1841
-3.16146
-3.13808
-3.1149
-3.09262
-3.07176
-3.05256
-3.03531
-3.02007
-3.00687
-2.99561
-2.9859
-2.97664
-2.96899
-2.96226
-3.34497
-3.33739
-3.32611
-3.31147
-3.29418
-3.27512
-3.25521
-3.2352
-3.21568
-3.19712
-3.17978
-3.16392
-3.14963
-3.13695
-3.12583
-3.116
-3.10674
-3.09856
-3.09307
-3.45069
-3.44344
-3.43337
-3.42072
-3.40595
-3.38969
-3.37258
-3.35519
-3.33803
-3.32149
-3.30584
-3.2913
-3.27801
-3.26602
-3.25535
-3.24589
-3.23722
-3.22952
-3.2251
-3.55869
-3.5519
-3.5429
-3.53187
-3.51912
-3.50511
-3.49028
-3.47511
-3.45998
-3.44524
-3.43115
-3.4179
-3.40567
-3.39455
-3.38463
-3.37592
-3.36816
-3.36146
-3.35794
-3.66849
-3.66224
-3.65421
-3.64454
-3.63347
-3.6213
-3.6084
-3.59511
-3.58176
-3.56864
-3.55599
-3.54401
-3.53288
-3.52275
-3.51377
-3.50604
-3.4994
-3.49392
-3.49115
-3.77975
-3.77409
-3.76695
-3.75847
-3.74881
-3.73822
-3.72695
-3.71529
-3.70351
-3.69186
-3.68055
-3.6698
-3.65979
-3.65071
-3.64274
-3.63606
-3.63059
-3.62626
-3.62414
-3.89226
-3.8872
-3.8809
-3.87346
-3.86503
-3.85579
-3.84594
-3.83571
-3.82533
-3.81501
-3.80496
-3.79539
-3.78647
-3.77843
-3.77145
-3.76574
-3.76133
-3.75787
-3.75623
-4.00585
-4.00139
-3.99586
-3.98937
-3.98202
-3.97396
-3.96535
-3.95639
-3.94727
-3.93817
-3.92929
-3.92081
-3.91294
-3.90587
-3.89979
-3.8949
-3.89126
-3.88857
-3.88714
-4.12041
-4.11653
-4.11172
-4.10608
-4.09969
-4.09267
-4.08517
-4.07734
-4.06935
-4.06136
-4.05355
-4.0461
-4.03919
-4.03302
-4.02774
-4.02353
-4.02042
-4.01829
-4.01706
-4.23584
-4.23251
-4.22837
-4.22349
-4.21796
-4.21188
-4.20536
-4.19854
-4.19157
-4.18459
-4.17777
-4.17126
-4.16523
-4.15986
-4.15528
-4.15164
-4.14894
-4.14716
-4.14616
-4.35208
-4.34927
-4.34573
-4.34154
-4.33678
-4.33153
-4.3259
-4.31999
-4.31394
-4.30787
-4.30194
-4.29628
-4.29105
-4.28639
-4.28243
-4.27928
-4.27692
-4.27542
-4.27459
-4.46906
-4.46672
-4.46373
-4.46017
-4.4561
-4.45159
-4.44674
-4.44166
-4.43644
-4.4312
-4.42607
-4.42118
-4.41666
-4.41264
-4.40921
-4.40647
-4.40442
-4.40314
-4.40246
-4.58673
-4.58481
-4.58231
-4.57931
-4.57585
-4.57202
-4.56788
-4.56353
-4.55905
-4.55456
-4.55016
-4.54596
-4.54207
-4.53861
-4.53565
-4.53329
-4.5315
-4.53042
-4.52985
-4.70504
-4.70348
-4.70142
-4.69892
-4.69602
-4.69278
-4.68927
-4.68558
-4.68178
-4.67796
-4.67421
-4.67063
-4.66731
-4.66435
-4.66181
-4.65978
-4.65824
-4.65732
-4.65687
-4.82393
-4.8227
-4.82102
-4.81896
-4.81655
-4.81384
-4.8109
-4.8078
-4.80461
-4.80139
-4.79823
-4.79521
-4.7924
-4.78989
-4.78773
-4.786
-4.78469
-4.78393
-4.78356
-4.94336
-4.9424
-4.94106
-4.93938
-4.93741
-4.93518
-4.93275
-4.93018
-4.92753
-4.92486
-4.92224
-4.91972
-4.91738
-4.91528
-4.91347
-4.91202
-4.91092
-4.9103
-4.91001
-5.06327
-5.06254
-5.0615
-5.06016
-5.05857
-5.05677
-5.0548
-5.05271
-5.05056
-5.04838
-5.04624
-5.04419
-5.04228
-5.04056
-5.03907
-5.03788
-5.03698
-5.03648
-5.03626
-5.18362
-5.18308
-5.18229
-5.18125
-5.18001
-5.17859
-5.17704
-5.17539
-5.17368
-5.17196
-5.17027
-5.16864
-5.16712
-5.16576
-5.16458
-5.16363
-5.16292
-5.16253
-5.16237
-5.30434
-5.30397
-5.30339
-5.30262
-5.30169
-5.30062
-5.29945
-5.2982
-5.29691
-5.29561
-5.29432
-5.29309
-5.29195
-5.29091
-5.29003
-5.28932
-5.28878
-5.28851
-5.28839
-5.42538
-5.42514
-5.42475
-5.42422
-5.42358
-5.42283
-5.42201
-5.42114
-5.42024
-5.41933
-5.41843
-5.41757
-5.41677
-5.41606
-5.41545
-5.41497
-5.41461
-5.41444
-5.41438
-5.54669
-5.54656
-5.54634
-5.54603
-5.54565
-5.54521
-5.54472
-5.54421
-5.54367
-5.54313
-5.5426
-5.54209
-5.54162
-5.54121
-5.54087
-5.54061
-5.54044
-5.54038
-5.54037
-5.6682
-5.66816
-5.66809
-5.66799
-5.66786
-5.66771
-5.66755
-5.66737
-5.66719
-5.66701
-5.66683
-5.66666
-5.66651
-5.66639
-5.66631
-5.66628
-5.66629
-5.66636
-5.66642
)
;

boundaryField
{
    leftWall
    {
        type            calculated;
        value           nonuniform List<scalar> 
50
(
4570.99
3771.21
2970.57
2167.31
1404.59
949.208
823.788
765.151
675.375
552.663
425.142
329.296
241.469
160.43
95.3295
40.2013
7.15708
0.634871
-0.941879
-2.09826
-2.48705
-2.51218
-2.42128
-2.3439
-2.32098
-2.36595
-2.51249
-2.76035
-3.0001
-3.18116
-3.32111
-3.42197
-3.49629
-3.56697
-3.6501
-3.75134
-3.86938
-4.00007
-4.13892
-4.28227
-4.4275
-4.57282
-4.71697
-4.8591
-4.99868
-5.13558
-5.27013
-5.40304
-5.53463
-5.66547
)
;
    }
    rightWall
    {
        type            calculated;
        value           nonuniform List<scalar> 
50
(
3042.34
2322.04
1792.4
1427.95
1109.26
900.693
810.96
758.185
679.794
569.446
444.553
331.438
240.629
156.977
73.6446
10.4179
-0.670105
-1.01176
-1.25414
-1.4722
-1.65316
-1.85244
-2.06522
-2.2621
-2.42285
-2.56459
-2.70028
-2.83199
-2.96226
-3.09307
-3.2251
-3.35794
-3.49115
-3.62414
-3.75623
-3.88714
-4.01706
-4.14616
-4.27459
-4.40246
-4.52985
-4.65687
-4.78356
-4.91001
-5.03626
-5.16237
-5.28839
-5.41438
-5.54037
-5.66642
)
;
    }
    lowerWall
    {
        type            calculated;
        value           nonuniform List<scalar> 
62
(
4969.14
4978.25
4998.08
5024.14
5052.63
5078.76
5101.63
5123.09
5145.84
5178.6
5226.87
5296.39
5390.24
5510.58
5657.76
5829.37
6017.8
6212.16
6400.58
6569.34
6708.81
6808.84
6862.79
6464.66
5679.7
4906.14
4144.36
3395.26
2659.07
1936.17
1262.08
982.932
969.179
887.233
771.833
2865.53
2133.37
1488.54
1087.37
935.02
871.849
824.36
765.038
3238.12
3135.15
2984.06
2822.19
2697.92
2621.03
2601.1
2625.24
2691.66
2801.36
2951.35
3122.35
3269.61
3384.17
3474.53
3502.78
3461.01
3410.23
3420.51
)
;
    }
    atmosphere
    {
        type            calculated;
        value           nonuniform List<scalar> 
46
(
-5.7303
-5.73104
-5.73239
-5.73422
-5.73628
-5.73766
-5.74015
-5.7432
-5.74432
-5.74415
-5.74311
-5.74143
-5.7394
-5.7373
-5.73534
-5.7336
-5.7321
-5.73086
-5.7299
-5.72929
-5.72905
-5.72904
-5.72904
-5.72904
-5.72904
-5.72904
-5.72904
-5.72904
-5.72904
-5.72904
-5.72904
-5.72904
-5.72904
-5.72904
-5.72904
-5.72904
-5.72904
-5.72904
-5.72904
-5.72904
-5.72904
-5.72904
-5.72904
-5.72904
-5.72904
-5.72904
)
;
    }
    defaultFaces
    {
        type            empty;
    }
}


// ************************************************************************* //
