/*--------------------------------*- C++ -*----------------------------------*\
| =========                 |                                                 |
| \\      /  F ield         | OpenFOAM: The Open Source CFD Toolbox           |
|  \\    /   O peration     | Version:  2312                                  |
|   \\  /    A nd           | Website:  www.openfoam.com                      |
|    \\/     M anipulation  |                                                 |
\*---------------------------------------------------------------------------*/
FoamFile
{
    version     2.0;
    format      ascii;
    arch        "LSB;label=32;scalar=64";
    class       surfaceScalarField;
    location    "2.65";
    object      phi;
}
// * * * * * * * * * * * * * * * * * * * * * * * * * * * * * * * * * * * * * //

dimensions      [0 3 -1 0 0 0 0];

oriented        oriented;

internalField   nonuniform List<scalar> 
4432
(
1.36363e-06
-1.36363e-06
1.68796e-06
-3.24326e-07
1.89307e-06
-2.05115e-07
1.91366e-06
-2.0585e-08
1.7928e-06
1.20854e-07
1.48118e-06
3.1162e-07
1.01365e-06
4.67531e-07
4.71755e-07
5.41896e-07
-3.3028e-08
5.04783e-07
-3.99812e-07
3.66784e-07
-5.92871e-07
1.93058e-07
-6.11549e-07
1.86778e-08
-5.41765e-07
-6.97841e-08
-4.75494e-07
-6.6272e-08
-4.8333e-07
7.83603e-09
-5.85443e-07
1.02113e-07
-7.73799e-07
1.88355e-07
-1.03226e-06
2.58459e-07
-1.25006e-06
2.17801e-07
-1.35464e-06
1.04579e-07
-1.21725e-06
-1.37394e-07
-8.14772e-07
-4.02474e-07
-8.14773e-07
3.10882e-07
-1.67451e-06
5.54113e-07
-5.67555e-07
7.84008e-07
-4.35009e-07
9.34867e-07
-1.71443e-07
9.86045e-07
6.96772e-08
8.14534e-07
4.83132e-07
4.46671e-07
8.35395e-07
-3.71808e-08
1.02575e-06
-4.76173e-07
9.43775e-07
-7.99426e-07
6.90036e-07
-9.55418e-07
3.4905e-07
-9.2815e-07
-8.59147e-09
-8.01817e-07
-1.96118e-07
-6.95923e-07
-1.72167e-07
-6.83106e-07
-4.98166e-09
-7.73795e-07
1.92801e-07
-9.65218e-07
3.79778e-07
-1.2259e-06
5.19145e-07
-1.47408e-06
4.65975e-07
-1.60142e-06
2.31925e-07
-1.45175e-06
-2.8707e-07
-1.02654e-06
-8.27685e-07
-1.84131e-06
-2.39092e-07
-1.43541e-06
-1.2422e-07
-6.82426e-07
4.87792e-08
-6.08007e-07
2.66208e-07
-3.88871e-07
3.5677e-07
-2.08844e-08
2.26992e-07
6.1291e-07
-1.24589e-07
1.18698e-06
-5.6123e-07
1.46239e-06
-9.83347e-07
1.36589e-06
-1.28108e-06
9.87769e-07
-1.38057e-06
4.48544e-07
-1.27291e-06
-1.16259e-07
-1.05594e-06
-4.13089e-07
-8.74141e-07
-3.53964e-07
-8.20776e-07
-5.83472e-08
-8.92737e-07
2.64762e-07
-1.08803e-06
5.75067e-07
-1.38038e-06
8.11498e-07
-1.63233e-06
7.17927e-07
-1.76512e-06
3.64712e-07
-1.59785e-06
-4.54342e-07
-1.09085e-06
-1.33468e-06
-2.93216e-06
-6.19991e-07
-8.15421e-07
-6.38621e-07
-6.63795e-07
-4.87473e-07
-7.59153e-07
-2.53294e-07
-6.23049e-07
-1.37722e-07
-1.36456e-07
-2.42627e-07
7.17816e-07
-5.74833e-07
1.51918e-06
-1.03546e-06
1.92302e-06
-1.4906e-06
1.82103e-06
-1.80746e-06
1.30463e-06
-1.88118e-06
5.22266e-07
-1.68685e-06
-3.10593e-07
-1.37721e-06
-7.22727e-07
-1.10399e-06
-6.27185e-07
-9.78394e-07
-1.83944e-07
-9.77753e-07
2.64121e-07
-1.13175e-06
7.29061e-07
-1.43063e-06
1.11038e-06
-1.68809e-06
9.7538e-07
-1.83071e-06
5.07335e-07
-1.65547e-06
-6.29583e-07
-1.05428e-06
-1.93587e-06
-3.98644e-06
-7.17933e-07
-9.74872e-08
-7.33949e-07
-6.47779e-07
-5.50967e-07
-9.42135e-07
-3.08669e-07
-8.65348e-07
-2.47346e-07
-1.97779e-07
-4.25357e-07
8.95827e-07
-8.3447e-07
1.9283e-06
-1.38105e-06
2.4696e-06
-1.95093e-06
2.3909e-06
-2.35682e-06
1.71052e-06
-2.44097e-06
6.06418e-07
-2.23755e-06
-5.14009e-07
-1.90664e-06
-1.05364e-06
-1.63097e-06
-9.02851e-07
-1.46098e-06
-3.53934e-07
-1.33188e-06
1.35022e-07
-1.37566e-06
7.72842e-07
-1.61713e-06
1.35186e-06
-1.8397e-06
1.19795e-06
-1.94765e-06
6.15279e-07
-1.75261e-06
-8.24625e-07
-1.09869e-06
-2.58979e-06
-5.08513e-06
-3.91493e-07
2.94017e-07
-5.84015e-07
-4.55249e-07
-5.43491e-07
-9.82654e-07
-4.25056e-07
-9.83778e-07
-5.31216e-07
-9.16166e-08
-8.79463e-07
1.24408e-06
-1.42541e-06
2.47424e-06
-1.98862e-06
3.03281e-06
-2.37467e-06
2.77695e-06
-2.45011e-06
1.78597e-06
-2.24815e-06
4.0445e-07
-2.04312e-06
-7.19043e-07
-1.96677e-06
-1.13e-06
-1.75117e-06
-1.11845e-06
-1.77744e-06
-3.27662e-07
-1.89332e-06
2.50903e-07
-2.11251e-06
9.92029e-07
-2.3587e-06
1.59804e-06
-2.4302e-06
1.26945e-06
-2.4296e-06
6.14682e-07
-2.14081e-06
-1.11342e-06
-1.28464e-06
-3.44596e-06
-6.36977e-06
-3.41949e-07
6.35975e-07
-7.34191e-07
-6.29938e-08
-1.57339e-06
-1.43448e-07
-2.51941e-06
-3.77423e-08
-3.2645e-06
6.53479e-07
-3.73982e-06
1.7194e-06
-4.00067e-06
2.73509e-06
-3.92305e-06
2.95518e-06
-3.16363e-06
2.01753e-06
-1.57951e-06
2.01852e-07
2.42175e-07
-1.41724e-06
-8.21342e-07
3.44472e-07
-3.48213e-06
1.53079e-06
-3.97315e-06
-6.27441e-07
-3.75562e-06
-5.45194e-07
-3.66538e-06
1.60666e-07
-2.7385e-06
6.5145e-08
-1.96465e-06
8.24198e-07
-1.92533e-06
1.23013e-06
-2.00956e-06
6.98909e-07
-1.8995e-06
-1.22347e-06
-1.23722e-06
-4.10824e-06
-7.60699e-06
-2.34727e-06
2.98325e-06
-4.16922e-06
1.75897e-06
-5.97554e-06
1.66288e-06
-7.56232e-06
1.54904e-06
-8.40409e-06
1.49525e-06
-8.51426e-06
1.82958e-06
-8.15163e-06
2.37246e-06
-7.30774e-06
2.1113e-06
-5.43092e-06
1.40708e-07
-2.07728e-06
-3.15179e-06
2.82331e-06
-6.31783e-06
6.01845e-06
-2.85067e-06
5.85264e-06
1.6966e-06
4.04342e-06
1.18178e-06
1.85279e-06
1.64543e-06
-2.10856e-06
4.12201e-06
-5.93051e-06
3.8871e-06
-5.12961e-06
2.32949e-08
-2.71245e-06
-1.18703e-06
-1.36813e-06
-6.45414e-07
-8.4942e-07
-1.74218e-06
-5.62226e-07
-4.39543e-06
-8.16921e-06
-1.92563e-06
1.92563e-06
-2.17639e-06
2.5076e-07
-2.2819e-06
1.05502e-07
-2.00944e-06
-2.72452e-07
-1.45408e-06
-5.55368e-07
-9.61821e-07
-4.92256e-07
-4.18672e-07
-5.43149e-07
-2.53058e-07
-1.65614e-07
-8.58895e-07
6.05837e-07
-2.54886e-06
1.68996e-06
-5.50932e-06
2.96047e-06
-9.33971e-06
3.83039e-06
-1.25004e-05
3.16069e-06
-1.26539e-05
1.5351e-07
-9.5701e-06
-3.08382e-06
-4.6163e-06
-4.95379e-06
-5.24187e-07
-4.09211e-06
1.31319e-07
-6.55505e-07
1.31319e-07
9.84168e-07
9.4146e-07
1.64552e-06
-4.10595e-07
1.78035e-06
-2.9325e-08
2.3077e-06
-7.99812e-07
2.94804e-06
-1.19571e-06
3.21519e-06
-7.5941e-07
3.26921e-06
-5.97173e-07
3.21886e-06
-1.15268e-07
2.93077e-06
8.93927e-07
2.02415e-06
2.59657e-06
4.1778e-07
4.56684e-06
-1.79039e-06
6.03856e-06
-4.17932e-06
5.54962e-06
-5.55453e-06
1.52873e-06
-4.64769e-06
-3.99066e-06
-1.36013e-06
-8.24136e-06
1.54635e-06
-6.99858e-06
1.78859e-06
-8.9774e-07
1.91991e-06
1.32124e-06
-3.79784e-07
1.95591e-06
-1.04527e-06
3.48399e-06
-1.55741e-06
4.91824e-06
-2.23407e-06
5.53033e-06
-1.80781e-06
4.64677e-06
1.24153e-07
1.59839e-06
2.4512e-06
2.51079e-06
-1.02767e-06
4.4179e-06
-1.01319e-06
2.95849e-06
4.05597e-06
1.48569e-06
6.03964e-06
5.83691e-07
6.94056e-06
-1.85904e-07
6.31922e-06
2.77138e-08
1.31511e-06
1.0054e-06
-4.96834e-06
2.07264e-06
-9.3086e-06
2.47168e-06
-7.39762e-06
1.57139e-06
2.54658e-09
3.49131e-06
3.01124e-06
-3.39103e-06
3.73187e-06
-1.76591e-06
5.54165e-06
-3.3672e-06
4.05777e-06
-7.50209e-07
3.80554e-06
-1.5556e-06
2.17937e-06
1.7503e-06
-5.68732e-06
1.03179e-05
1.33037e-06
-8.04538e-06
1.19479e-05
-1.16307e-05
7.38237e-06
8.6215e-06
6.64435e-07
1.27576e-05
-1.13451e-06
8.7395e-06
5.94939e-07
4.58977e-06
2.63002e-06
-7.19968e-07
4.54031e-06
-6.87863e-06
5.01679e-06
-9.78507e-06
4.06694e-06
-6.44777e-06
2.06502e-06
2.00448e-06
5.55633e-06
-4.83694e-07
-2.90734e-06
6.6885e-07
-2.91847e-06
3.09675e-06
-5.79511e-06
5.54661e-06
-3.20008e-06
6.37014e-06
-2.37913e-06
5.09788e-06
3.02256e-06
-1.65285e-06
1.70686e-05
2.58971e-06
-1.2288e-05
1.04642e-05
-1.95052e-05
1.30469e-05
6.03878e-06
1.04005e-05
1.5404e-05
6.78357e-06
1.23564e-05
5.22719e-06
6.14615e-06
7.58348e-06
-3.07625e-06
9.63356e-06
-8.92871e-06
1.0589e-05
-1.07405e-05
9.90388e-06
-5.7627e-06
7.20014e-06
4.70822e-06
1.27565e-05
-2.05637e-06
-8.50989e-07
3.37111e-06
-8.34595e-06
5.89321e-06
-8.31722e-06
7.33203e-06
-4.63891e-06
7.53451e-06
-2.58163e-06
6.17969e-06
4.37738e-06
1.57561e-06
2.16727e-05
4.20425e-06
-1.49166e-05
6.62303e-06
-2.1924e-05
8.59285e-06
4.06895e-06
1.01925e-05
1.38044e-05
1.2541e-05
1.00079e-05
1.27766e-05
5.91052e-06
1.72231e-05
-7.52276e-06
1.92011e-05
-1.09067e-05
1.90883e-05
-1.06276e-05
1.60226e-05
-2.69699e-06
1.20292e-05
8.70165e-06
2.47856e-05
2.96576e-06
-3.81676e-06
6.83868e-06
-1.22189e-05
7.5189e-06
-8.99746e-06
7.11499e-06
-4.23501e-06
6.22398e-06
-1.69063e-06
4.65303e-06
5.94832e-06
1.67991e-06
2.46458e-05
2.72108e-06
-1.59578e-05
-2.1338e-07
-1.89895e-05
-1.53876e-06
5.39433e-06
4.34323e-06
7.92237e-06
1.13268e-05
3.02432e-06
1.32429e-05
3.99449e-06
1.87586e-05
-1.30385e-05
2.21763e-05
-1.43244e-05
2.17664e-05
-1.02178e-05
1.66773e-05
2.39211e-06
1.05359e-05
1.48432e-05
3.53215e-05
9.56788e-06
-1.33847e-05
1.06741e-05
-1.33251e-05
9.64098e-06
-7.9643e-06
7.53203e-06
-2.12607e-06
5.1798e-06
6.61591e-07
3.04208e-06
8.08603e-06
1.341e-06
2.63469e-05
4.20995e-07
-1.50378e-05
-3.38465e-06
-1.51839e-05
-5.38528e-06
7.39495e-06
-3.56031e-07
2.89312e-06
6.68327e-06
-4.01498e-06
1.0612e-05
6.57377e-08
1.37558e-05
-1.61823e-05
1.52921e-05
-1.58607e-05
1.33073e-05
-8.23301e-06
8.38636e-06
7.31307e-06
6.42356e-06
1.6806e-05
4.17451e-05
-1.05636e-05
1.35469e-05
-1.73311e-05
8.52639e-06
-2.17699e-05
6.10171e-06
-2.46047e-05
4.38389e-06
-2.55239e-05
2.41439e-06
-2.40307e-05
3.36444e-07
-2.11804e-05
-4.77897e-07
-1.7601e-05
-1.46808e-06
-1.28763e-05
-4.58395e-06
-6.88055e-06
-9.14759e-06
-4.09354e-07
-1.2789e-05
5.45631e-06
-8.71634e-06
7.70167e-06
-5.48765e-07
5.56646e-06
3.31698e-06
3.89102e-06
3.32087e-06
5.81197e-06
2.20107e-06
6.4431e-06
3.25596e-06
7.88152e-06
-1.41513e-06
8.70595e-06
-2.01146e-06
6.99187e-06
1.06866e-06
5.34821e-06
-9.8522e-08
7.68546e-06
-6.73269e-06
-2.07151e-05
2.02314e-05
-1.02319e-05
2.37788e-05
-1.8555e-05
1.68495e-05
-2.27935e-05
1.03402e-05
-2.29301e-05
4.52047e-06
-2.02278e-05
-2.87852e-07
-1.64198e-05
-3.47152e-06
-1.30388e-05
-3.85894e-06
-1.01264e-05
-4.38053e-06
-6.82632e-06
-7.884e-06
-3.29589e-06
-1.2678e-05
-1.33112e-06
-1.47538e-05
1.63506e-06
-1.16825e-05
6.51039e-06
-5.4241e-06
9.5652e-06
2.62169e-07
1.21899e-05
6.96173e-07
1.60217e-05
-1.63073e-06
2.06748e-05
-1.39714e-06
2.17006e-05
-2.44092e-06
2.32665e-05
-3.57743e-06
2.7562e-05
-3.22679e-06
3.26169e-05
-5.15349e-06
3.51136e-05
-9.22929e-06
-1.70135e-05
3.14119e-05
1.76981e-06
2.20089e-05
-1.24969e-06
1.9869e-05
-6.56975e-06
1.56603e-05
-1.03623e-05
8.31303e-06
-1.00095e-05
-6.40652e-07
-4.80395e-06
-8.67707e-06
-1.85348e-06
-6.80942e-06
-5.77356e-07
-5.65665e-06
1.13762e-06
-9.59897e-06
3.64975e-06
-1.51902e-05
6.29652e-06
-1.74006e-05
1.01143e-05
-1.55003e-05
1.58762e-05
-1.1186e-05
2.36012e-05
-7.46283e-06
3.04862e-05
-6.18882e-06
3.42658e-05
-5.41039e-06
3.66015e-05
-3.73279e-06
3.59799e-05
-1.81932e-06
3.41128e-05
-1.71037e-06
3.45382e-05
-3.65216e-06
3.69846e-05
-7.59996e-06
4.01151e-05
-1.23597e-05
-1.63276e-05
3.94292e-05
2.64328e-05
-4.42388e-06
3.30409e-05
1.32609e-05
3.16575e-05
1.70437e-05
2.50704e-05
1.49001e-05
1.75218e-05
6.90801e-06
1.14836e-05
-2.63896e-06
1.01716e-05
-5.49736e-06
1.0347e-05
-5.83204e-06
1.18184e-05
-1.10704e-05
1.60638e-05
-1.94356e-05
2.27786e-05
-2.41153e-05
3.04734e-05
-2.31951e-05
3.82776e-05
-1.89902e-05
4.54229e-05
-1.46081e-05
5.10445e-05
-1.18104e-05
5.58033e-05
-1.01692e-05
6.05986e-05
-8.5281e-06
6.49648e-05
-6.18553e-06
6.78161e-05
-4.56165e-06
6.8915e-05
-4.751e-06
6.73985e-05
-6.08353e-06
6.41657e-05
-9.12695e-06
-1.23563e-05
6.01944e-05
3.61235e-05
-4.05474e-05
5.51654e-05
-5.78094e-06
5.8653e-05
1.35561e-05
5.48741e-05
1.8679e-05
4.84051e-05
1.3377e-05
3.90034e-05
6.76281e-06
3.33505e-05
1.55469e-07
3.03111e-05
-2.7926e-06
2.92932e-05
-1.00526e-05
3.27039e-05
-2.28462e-05
3.94903e-05
-3.09017e-05
4.72643e-05
-3.09692e-05
5.48217e-05
-2.65476e-05
6.17026e-05
-2.1489e-05
6.75983e-05
-1.77062e-05
7.26645e-05
-1.52354e-05
7.74208e-05
-1.32844e-05
8.22828e-05
-1.10475e-05
8.70217e-05
-9.30061e-06
9.09652e-05
-8.6945e-06
9.32424e-05
-8.36067e-06
9.27531e-05
-8.63768e-06
-1.01953e-05
9.05921e-05
1.48741e-05
-5.54215e-05
3.44933e-05
-2.54001e-05
4.6474e-05
1.57531e-06
5.04075e-05
1.47455e-05
4.97014e-05
1.40831e-05
4.99312e-05
6.53298e-06
5.05053e-05
-4.18633e-07
4.95149e-05
-1.80215e-06
4.81668e-05
-8.7045e-06
5.1494e-05
-2.61734e-05
5.76701e-05
-3.70778e-05
6.35512e-05
-3.68503e-05
6.83013e-05
-3.12978e-05
7.21452e-05
-2.53329e-05
7.55914e-05
-2.11524e-05
7.93048e-05
-1.89488e-05
8.39196e-05
-1.78993e-05
8.96008e-05
-1.67287e-05
9.53707e-05
-1.50705e-05
0.000100258
-1.35814e-05
0.000104126
-1.22287e-05
0.000106665
-1.11766e-05
-1.13882e-05
0.000107857
-8.2315e-06
-4.719e-05
5.85922e-07
-3.42175e-05
1.55928e-05
-1.34316e-05
3.04719e-05
-1.33522e-07
4.40609e-05
4.94028e-07
5.56024e-05
-5.00856e-06
6.4383e-05
-9.19922e-06
7.14994e-05
-8.9185e-06
7.61518e-05
-1.3357e-05
7.99239e-05
-2.99455e-05
8.24445e-05
-3.95984e-05
8.34987e-05
-3.79046e-05
8.3337e-05
-3.11361e-05
8.29083e-05
-2.49041e-05
8.3061e-05
-2.13052e-05
8.39099e-05
-1.97977e-05
8.63038e-05
-2.02932e-05
9.04839e-05
-2.09088e-05
9.54488e-05
-2.00353e-05
0.000100201
-1.83339e-05
0.000104472
-1.64993e-05
0.00010815
-1.48545e-05
-1.41988e-05
0.00011096
-2.77562e-05
-1.94338e-05
-2.76447e-05
-3.4329e-05
-8.45799e-06
-3.26183e-05
1.64485e-05
-2.504e-05
3.88154e-05
-2.18729e-05
5.84886e-05
-2.46818e-05
7.84852e-05
-2.91958e-05
0.000100243
-3.06766e-05
0.000116418
-2.95315e-05
0.000117224
-3.07516e-05
0.00010975
-3.21249e-05
0.000103291
-3.14454e-05
9.73825e-05
-2.52274e-05
9.30423e-05
-2.05638e-05
9.09945e-05
-1.92573e-05
8.96253e-05
-1.84285e-05
8.87756e-05
-1.94434e-05
9.07477e-05
-2.2881e-05
9.37671e-05
-2.30547e-05
9.75974e-05
-2.21642e-05
0.000101685
-2.05873e-05
0.000105009
-1.81782e-05
-1.7228e-05
0.000108038
-3.92399e-05
1.9806e-05
-3.19873e-05
-4.15815e-05
-2.11465e-05
-4.34591e-05
-1.72014e-06
-4.44664e-05
2.72477e-05
-5.08407e-05
5.75492e-05
-5.49834e-05
9.04538e-05
-6.21004e-05
0.000119886
-6.01089e-05
0.000141967
-5.16128e-05
0.000153723
-4.25074e-05
0.000142757
-2.11591e-05
0.000125784
-1.44715e-05
0.000108469
-7.91269e-06
0.000101255
-1.33499e-05
9.91112e-05
-1.71137e-05
9.64163e-05
-1.57336e-05
8.84852e-05
-1.15123e-05
8.90895e-05
-2.34853e-05
9.176e-05
-2.57252e-05
9.69556e-05
-2.73597e-05
0.000101982
-2.56141e-05
0.000105423
-2.16185e-05
-2.04895e-05
0.000108684
-3.11243e-05
5.09302e-05
-9.36108e-05
2.09048e-05
-0.000116599
-2.04707e-05
-7.7912e-05
-8.31536e-05
-1.92758e-05
-0.000109477
3.79547e-05
-0.000112214
9.95669e-05
-0.000123713
0.000158728
-0.00011927
0.000210293
-0.000103178
0.000229828
-6.20426e-05
0.000206711
1.95737e-06
0.000167584
2.46557e-05
0.00013553
2.41411e-05
0.000124841
-2.66099e-06
0.00013304
-2.53124e-05
0.000135397
-1.80908e-05
0.000120601
3.28423e-06
9.1254e-05
5.86101e-06
8.00215e-05
-1.44928e-05
9.96642e-05
-4.70024e-05
0.000108952
-3.49016e-05
0.000115619
-2.82856e-05
-2.5348e-05
0.000120477
-7.05942e-05
0.000121524
-0.000162267
0.000112577
-0.000171444
-1.12942e-05
-0.000102078
-0.00015252
-3.39252e-05
-0.00017763
2.71813e-05
-0.00017332
9.82284e-05
-0.00019476
0.000174833
-0.000195874
0.000246875
-0.000175221
0.000285119
-0.000100286
0.000300302
-1.32262e-05
0.000283559
4.1399e-05
0.000255942
5.17577e-05
0.000222665
3.06163e-05
0.000194314
3.0385e-06
0.000181327
-5.10363e-06
0.000186775
-2.16398e-06
0.000194623
-1.98737e-06
0.000194499
-1.43687e-05
0.000174816
-2.73206e-05
0.000162792
-2.28774e-05
0.000151714
-1.72081e-05
-1.92995e-05
0.000145665
-3.18031e-05
0.000153327
-4.42813e-05
0.000125055
-6.29047e-05
7.32898e-06
-3.60332e-05
-0.000179391
-3.33677e-06
-0.000210326
3.22659e-05
-0.000208923
7.39266e-05
-0.00023642
0.000115252
-0.000237199
0.000157705
-0.000217674
0.000178853
-0.000121434
0.000187011
-2.1384e-05
0.00019158
3.683e-05
0.00019062
5.27171e-05
0.000181945
3.92916e-05
0.000166896
1.80878e-05
0.00015822
3.57162e-06
0.000160088
-4.0314e-06
0.000168495
-1.03944e-05
0.000173127
-1.90007e-05
0.000170852
-2.50454e-05
0.000172838
-2.48642e-05
0.000180961
-2.53309e-05
-3.04324e-05
0.000192093
1.57262e-05
0.000137601
2.78209e-05
0.000112961
1.87967e-05
1.63532e-05
1.27536e-05
-0.000173348
2.60388e-05
-0.000223612
5.47593e-05
-0.000237644
7.64101e-05
-0.000258071
9.76428e-05
-0.000258432
9.43395e-05
-0.000214371
8.67606e-05
-0.000113855
8.61394e-05
-2.07628e-05
9.50914e-05
2.7878e-05
0.000104098
4.37109e-05
0.000107293
3.6096e-05
0.000104589
2.07914e-05
9.94467e-05
8.71438e-06
9.55585e-05
-1.43175e-07
9.44745e-05
-9.31034e-06
9.27857e-05
-1.73119e-05
8.95658e-05
-2.18253e-05
8.62857e-05
-2.15839e-05
8.20818e-05
-2.1127e-05
-2.08834e-05
7.25329e-05
3.68668e-05
0.000100734
6.92972e-05
8.053e-05
9.18167e-05
-6.16638e-06
7.15853e-05
-0.000153117
7.20881e-05
-0.000224114
8.4451e-05
-0.000250007
8.96799e-05
-0.0002633
8.63098e-05
-0.000255062
6.13157e-05
-0.000189377
3.5943e-05
-8.84826e-05
2.67486e-05
-1.15683e-05
3.02455e-05
2.4381e-05
3.65111e-05
3.74453e-05
3.92297e-05
3.33774e-05
3.54293e-05
2.45917e-05
2.71379e-05
1.70058e-05
2.2286e-05
4.70872e-06
1.84968e-05
-5.52102e-06
1.43989e-05
-1.32139e-05
7.69518e-06
-1.51213e-05
-7.29881e-07
-1.31585e-05
-9.93732e-06
-1.19192e-05
-1.08859e-05
-1.99346e-05
4.27443e-05
5.79896e-05
8.19405e-05
4.13337e-05
0.000123341
-4.75665e-05
0.000121082
-0.000150858
0.000113237
-0.000216269
0.000106074
-0.000242845
9.33841e-05
-0.00025061
7.19118e-05
-0.00023359
3.91736e-05
-0.000156639
4.2723e-06
-5.35814e-05
-1.15424e-05
4.2463e-06
-1.46286e-05
2.74672e-05
-1.36205e-05
3.64371e-05
-1.33453e-05
3.31022e-05
-1.62931e-05
2.75394e-05
-2.0705e-05
2.14178e-05
-2.23265e-05
6.33021e-06
-2.3351e-05
-4.49645e-06
-2.75633e-05
-9.00157e-06
-3.47512e-05
-7.93319e-06
-4.12256e-05
-6.68385e-06
-4.70177e-05
-6.1269e-06
-4.79539e-06
-5.31081e-05
3.88833e-05
1.91061e-05
8.66956e-05
-6.4788e-06
0.000129271
-9.01424e-05
0.000139781
-0.000161368
0.000131163
-0.000207651
0.00011609
-0.000227772
9.31946e-05
-0.000227714
6.04399e-05
-0.000200835
1.79666e-05
-0.000114165
-2.11859e-05
-1.44289e-05
-3.45026e-05
1.7563e-05
-3.74352e-05
3.03997e-05
-3.63541e-05
3.5356e-05
-3.58182e-05
3.25663e-05
-3.62828e-05
2.8004e-05
-3.62799e-05
2.14149e-05
-3.87543e-05
8.80469e-06
-4.19635e-05
-1.28723e-06
-4.65089e-05
-4.45611e-06
-5.08236e-05
-3.6184e-06
-5.4788e-05
-2.71924e-06
-5.8048e-05
-2.86683e-06
-1.86114e-06
-6.09821e-05
3.93181e-05
-2.02121e-05
9.46242e-05
-6.17851e-05
0.000128853
-0.000124371
0.000139269
-0.000171784
0.000131141
-0.000199523
0.000113921
-0.000210553
8.59796e-05
-0.000199773
4.67e-05
-0.000161555
-3.49024e-06
-6.39751e-05
-3.28829e-05
1.49638e-05
-4.31524e-05
2.78324e-05
-4.5648e-05
3.28953e-05
-4.43482e-05
3.40561e-05
-4.22919e-05
3.051e-05
-4.02698e-05
2.59818e-05
-3.87459e-05
1.98909e-05
-4.08736e-05
1.09324e-05
-4.51876e-05
3.02679e-06
-4.90039e-05
-6.3977e-07
-5.17503e-05
-8.71939e-07
-5.40455e-05
-4.23984e-07
-5.64525e-05
-4.59703e-07
4.41225e-07
-5.87549e-05
5.17681e-05
-7.19804e-05
0.000100201
-0.000110218
0.000124531
-0.000148701
0.000129301
-0.000176554
0.000121574
-0.000191796
0.000101245
-0.000190224
6.99356e-05
-0.000168463
2.68478e-05
-0.000118467
-2.24095e-05
-1.47179e-05
-3.88561e-05
3.14103e-05
-4.55166e-05
3.44929e-05
-4.64314e-05
3.38101e-05
-4.41507e-05
3.17753e-05
-4.14036e-05
2.77629e-05
-3.88526e-05
2.34308e-05
-3.72125e-05
1.82509e-05
-3.80747e-05
1.17946e-05
-4.10643e-05
6.01635e-06
-4.43017e-05
2.59756e-06
-4.66309e-05
1.45731e-06
-4.85062e-05
1.45135e-06
-5.06358e-05
1.66998e-06
2.51779e-06
-5.27124e-05
5.48816e-05
-0.000126862
9.13235e-05
-0.00014666
0.000108935
-0.000166313
0.000111855
-0.000179473
0.000101608
-0.000181549
7.79506e-05
-0.000166567
4.44445e-05
-0.000134957
-5.74529e-06
-6.82778e-05
-3.95909e-05
1.91276e-05
-4.51127e-05
3.6932e-05
-4.66551e-05
3.60353e-05
-4.50767e-05
3.22316e-05
-4.18877e-05
2.85863e-05
-3.88532e-05
2.47283e-05
-3.63307e-05
2.09083e-05
-3.47382e-05
1.66583e-05
-3.48218e-05
1.18782e-05
-3.63856e-05
7.58005e-06
-3.85053e-05
4.71725e-06
-4.04819e-05
3.43395e-06
-4.22338e-05
3.20322e-06
-4.40065e-05
3.44265e-06
4.21166e-06
-4.57004e-05
4.56924e-05
-0.000172555
7.3774e-05
-0.000174742
8.65601e-05
-0.000179099
8.4984e-05
-0.000177897
6.95082e-05
-0.000166073
4.46121e-05
-0.000141671
4.87101e-06
-9.52162e-05
-3.92818e-05
-2.4125e-05
-4.96402e-05
2.9486e-05
-5.02483e-05
3.75401e-05
-4.79993e-05
3.37862e-05
-4.44577e-05
2.869e-05
-4.06759e-05
2.48045e-05
-3.74138e-05
2.14662e-05
-3.48042e-05
1.82986e-05
-3.30751e-05
1.49291e-05
-3.258e-05
1.13832e-05
-3.32265e-05
8.22648e-06
-3.45146e-05
6.0054e-06
-3.5955e-05
4.87432e-06
-3.73536e-05
4.60177e-06
-3.87639e-05
4.85293e-06
5.60716e-06
-4.01595e-05
3.14258e-05
-0.00020398
4.98214e-05
-0.000193137
5.49557e-05
-0.000184234
4.7768e-05
-0.00017071
3.00454e-05
-0.000148351
-3.8533e-07
-0.00011124
-3.89669e-05
-5.66347e-05
-6.29314e-05
-1.60562e-07
-6.10844e-05
2.76389e-05
-5.59439e-05
3.23996e-05
-5.05953e-05
2.84375e-05
-4.57284e-05
2.3823e-05
-4.14783e-05
2.05542e-05
-3.79343e-05
1.79222e-05
-3.51038e-05
1.54681e-05
-3.31178e-05
1.29431e-05
-3.21383e-05
1.04036e-05
-3.20892e-05
8.17734e-06
-3.26626e-05
6.57885e-06
-3.35241e-05
5.73579e-06
-3.44867e-05
5.56428e-06
-3.55268e-05
5.89297e-06
6.68952e-06
-3.66092e-05
1.49108e-05
-0.000218891
2.25982e-05
-0.000200825
2.04221e-05
-0.000182058
7.59882e-06
-0.000157887
-1.61484e-05
-0.000124603
-4.72776e-05
-8.01109e-05
-7.18401e-05
-3.20723e-05
-7.6269e-05
4.26831e-06
-6.94732e-05
2.0843e-05
-6.13025e-05
2.42288e-05
-5.42059e-05
2.13409e-05
-4.85121e-05
1.81292e-05
-4.38393e-05
1.58814e-05
-3.99731e-05
1.40559e-05
-3.68606e-05
1.23555e-05
-3.45589e-05
1.06413e-05
-3.31248e-05
8.96951e-06
-3.2481e-05
7.53349e-06
-3.2424e-05
6.5219e-06
-3.27249e-05
6.03668e-06
-3.32279e-05
6.06725e-06
-3.38727e-05
6.53771e-06
7.41518e-06
-3.45985e-05
1.18314e-06
-0.000220074
-2.29029e-06
-0.000197351
-1.31639e-05
-0.000171184
-3.18869e-05
-0.000139164
-5.57931e-05
-0.000100697
-7.64567e-05
-5.94474e-05
-8.54507e-05
-2.30784e-05
-8.23123e-05
1.12983e-06
-7.41929e-05
1.27236e-05
-6.52505e-05
1.52864e-05
-5.76721e-05
1.37624e-05
-5.16261e-05
1.20832e-05
-4.66553e-05
1.09105e-05
-4.2521e-05
9.9216e-06
-3.91495e-05
8.98396e-06
-3.65463e-05
8.03809e-06
-3.4711e-05
7.13413e-06
-3.35699e-05
6.39236e-06
-3.29826e-05
5.93453e-06
-3.2789e-05
5.84305e-06
-3.28615e-05
6.13971e-06
-3.31205e-05
6.79674e-06
7.77927e-06
-3.34847e-05
-9.95539e-06
-0.000210119
-2.29635e-05
-0.000184343
-4.043e-05
-0.000153718
-6.04239e-05
-0.00011917
-7.84151e-05
-8.2706e-05
-8.91914e-05
-4.86711e-05
-9.04892e-05
-2.17807e-05
-8.491e-05
-4.4494e-06
-7.62453e-05
4.05883e-06
-6.74659e-05
6.50696e-06
-6.00572e-05
6.35365e-06
-5.3989e-05
6.01495e-06
-4.89045e-05
5.82591e-06
-4.46305e-05
5.64755e-06
-4.10948e-05
5.44822e-06
-3.82756e-05
5.21892e-06
-3.61451e-05
5.00351e-06
-3.46378e-05
4.88504e-06
-3.36512e-05
4.94795e-06
-3.30675e-05
5.25935e-06
-3.27801e-05
5.85222e-06
-3.27021e-05
6.71877e-06
7.82004e-06
-3.2743e-05
-1.82056e-05
-0.000191914
-3.74688e-05
-0.00016508
-5.72511e-05
-0.000133935
-7.49232e-05
-0.000101498
-8.72871e-05
-7.03422e-05
-9.23469e-05
-4.36114e-05
-9.05192e-05
-2.36084e-05
-8.41539e-05
-1.08148e-05
-7.59223e-05
-4.17285e-06
-6.78347e-05
-1.58064e-06
-6.09014e-05
-5.79763e-07
-5.50374e-05
1.50963e-07
-5.00279e-05
8.16371e-07
-4.57659e-05
1.38549e-06
-4.21938e-05
1.87603e-06
-3.92816e-05
2.30668e-06
-3.69879e-05
2.70979e-06
-3.5258e-05
3.15508e-06
-3.4011e-05
3.70095e-06
-3.31547e-05
4.40307e-06
-3.2598e-05
5.29542e-06
-3.22556e-05
6.37632e-06
7.60323e-06
-3.20388e-05
-2.29122e-05
-0.000169001
-4.46801e-05
-0.000143312
-6.39811e-05
-0.000114634
-7.87168e-05
-8.6762e-05
-8.73579e-05
-6.17011e-05
-8.96949e-05
-4.12744e-05
-8.69108e-05
-2.63925e-05
-8.08815e-05
-1.68442e-05
-7.35745e-05
-1.14798e-05
-6.64723e-05
-8.68294e-06
-6.01968e-05
-6.85531e-06
-5.47292e-05
-5.31666e-06
-4.99542e-05
-3.95869e-06
-4.58343e-05
-2.73443e-06
-4.23375e-05
-1.62089e-06
-3.94466e-05
-5.84215e-07
-3.71034e-05
3.66534e-07
-3.52739e-05
1.32551e-06
-3.38856e-05
2.31261e-06
-3.28625e-05
3.37997e-06
-3.21255e-05
4.55838e-06
-3.15959e-05
5.84676e-06
7.20101e-06
-3.11938e-05
-2.44038e-05
-0.000144598
-4.60889e-05
-0.000121627
-6.37109e-05
-9.70124e-05
-7.60049e-05
-7.4468e-05
-8.25295e-05
-5.51765e-05
-8.3823e-05
-3.9981e-05
-8.11419e-05
-2.90737e-05
-7.60253e-05
-2.19608e-05
-6.99138e-05
-1.75913e-05
-6.3891e-05
-1.47058e-05
-5.83557e-05
-1.23907e-05
-5.33541e-05
-1.03183e-05
-4.89006e-05
-8.41226e-06
-4.49946e-05
-6.64042e-06
-4.16438e-05
-4.97179e-06
-3.882e-05
-3.40802e-06
-3.65321e-05
-1.92143e-06
-3.46942e-05
-5.12442e-07
-3.32518e-05
8.70225e-07
-3.21458e-05
2.27392e-06
-3.13052e-05
3.71782e-06
-3.06598e-05
5.20123e-06
6.68191e-06
-3.01407e-05
-2.37032e-05
-0.000120895
-4.39603e-05
-0.00010137
-5.97214e-05
-8.12513e-05
-7.03329e-05
-6.38566e-05
-7.58405e-05
-4.9669e-05
-7.69501e-05
-3.88714e-05
-7.48049e-05
-3.12189e-05
-7.06846e-05
-2.60812e-05
-6.57268e-05
-2.25491e-05
-6.06796e-05
-1.9753e-05
-5.58243e-05
-1.7246e-05
-5.1282e-05
-1.48607e-05
-4.71462e-05
-1.25481e-05
-4.34672e-05
-1.03195e-05
-4.02894e-05
-8.14961e-06
-3.76003e-05
-6.09713e-06
-3.53791e-05
-4.1427e-06
-3.35818e-05
-2.30974e-06
-3.21573e-05
-5.54298e-07
-3.10334e-05
1.15002e-06
-3.01523e-05
2.8366e-06
-2.94515e-05
4.5005e-06
6.10405e-06
-2.88737e-05
-2.17887e-05
-9.91058e-05
-4.00163e-05
-8.31428e-05
-5.39778e-05
-6.72898e-05
-6.33763e-05
-5.44582e-05
-6.84078e-05
-4.46375e-05
-6.97444e-05
-3.75349e-05
-6.83501e-05
-3.26133e-05
-6.52583e-05
-2.91731e-05
-6.13325e-05
-2.64749e-05
-5.71027e-05
-2.39828e-05
-5.28337e-05
-2.15151e-05
-4.87066e-05
-1.89879e-05
-4.48571e-05
-1.63975e-05
-4.14024e-05
-1.37742e-05
-3.83966e-05
-1.11555e-05
-3.58529e-05
-8.6408e-06
-3.37422e-05
-6.25343e-06
-3.20331e-05
-4.01891e-06
-3.067e-05
-1.91738e-06
-2.95791e-05
5.90295e-08
-2.87089e-05
1.96645e-06
-2.80042e-05
3.79575e-06
5.51681e-06
-2.7417e-05
-1.93533e-05
-7.97526e-05
-3.53411e-05
-6.7155e-05
-4.75662e-05
-5.50648e-05
-5.59719e-05
-4.60525e-05
-6.07726e-05
-3.98368e-05
-6.24958e-05
-3.58117e-05
-6.18849e-05
-3.32242e-05
-5.97308e-05
-3.13272e-05
-5.6678e-05
-2.95277e-05
-5.31314e-05
-2.75295e-05
-4.93716e-05
-2.52748e-05
-4.56114e-05
-2.27482e-05
-4.20505e-05
-1.99585e-05
-3.88267e-05
-1.6998e-05
-3.60179e-05
-1.39643e-05
-3.36486e-05
-1.10101e-05
-3.16939e-05
-8.20818e-06
-3.01135e-05
-5.59938e-06
-2.88451e-05
-3.18577e-06
-2.78348e-05
-9.51268e-07
-2.70208e-05
1.15245e-06
-2.6356e-05
3.13094e-06
4.96028e-06
-2.57995e-05
-1.68379e-05
-6.29147e-05
-3.06124e-05
-5.33805e-05
-4.11583e-05
-4.45189e-05
-4.85978e-05
-3.86131e-05
-5.31511e-05
-3.52835e-05
-5.51897e-05
-3.37731e-05
-5.52333e-05
-3.31806e-05
-5.38446e-05
-3.2716e-05
-5.14958e-05
-3.18765e-05
-4.85367e-05
-3.04887e-05
-4.52499e-05
-2.85616e-05
-4.18877e-05
-2.61103e-05
-3.86585e-05
-2.31876e-05
-3.5726e-05
-1.99306e-05
-3.31715e-05
-1.65188e-05
-3.10261e-05
-1.31554e-05
-2.92773e-05
-9.95708e-06
-2.78651e-05
-7.01154e-06
-2.67356e-05
-4.31529e-06
-2.58466e-05
-1.84029e-06
-2.51281e-05
4.33909e-07
-2.45401e-05
2.54285e-06
4.46858e-06
-2.40484e-05
-1.44436e-05
-4.84711e-05
-2.6146e-05
-4.16781e-05
-3.50798e-05
-3.55851e-05
-4.1486e-05
-3.22069e-05
-4.56187e-05
-3.11509e-05
-4.77429e-05
-3.16489e-05
-4.81916e-05
-3.27319e-05
-4.73367e-05
-3.35708e-05
-4.55354e-05
-3.36778e-05
-4.30945e-05
-3.29296e-05
-4.03034e-05
-3.13528e-05
-3.74144e-05
-2.89994e-05
-3.46264e-05
-2.59757e-05
-3.20876e-05
-2.24694e-05
-2.98783e-05
-1.87281e-05
-2.80333e-05
-1.50005e-05
-2.65327e-05
-1.14577e-05
-2.53404e-05
-8.20383e-06
-2.4402e-05
-5.25366e-06
-2.36576e-05
-2.58472e-06
-2.3068e-05
-1.55764e-07
-2.25864e-05
2.06132e-06
4.06716e-06
-2.2185e-05
-1.21854e-05
-3.62857e-05
-2.19633e-05
-3.19002e-05
-2.93617e-05
-2.81867e-05
-3.46735e-05
-2.68951e-05
-3.81849e-05
-2.76394e-05
-4.01205e-05
-2.97133e-05
-4.06893e-05
-3.21631e-05
-4.01376e-05
-3.41224e-05
-3.87475e-05
-3.5068e-05
-3.6802e-05
-3.4875e-05
-3.45661e-05
-3.35887e-05
-3.22517e-05
-3.13137e-05
-3.00251e-05
-2.82023e-05
-2.79937e-05
-2.45008e-05
-2.62223e-05
-2.04995e-05
-2.4743e-05
-1.64799e-05
-2.35471e-05
-1.26535e-05
-2.26103e-05
-9.1407e-06
-2.18842e-05
-5.97969e-06
-2.13196e-05
-3.14933e-06
-2.08773e-05
-5.98054e-07
-2.05224e-05
1.70631e-06
3.77442e-06
-2.02296e-05
-1.00108e-05
-2.62749e-05
-1.79695e-05
-2.39414e-05
-2.39102e-05
-2.2246e-05
-2.81118e-05
-2.26935e-05
-3.08613e-05
-2.489e-05
-3.23902e-05
-2.81843e-05
-3.28523e-05
-3.1701e-05
-3.24281e-05
-3.45466e-05
-3.13747e-05
-3.61214e-05
-2.99384e-05
-3.63114e-05
-2.8335e-05
-3.51921e-05
-2.67014e-05
-3.29472e-05
-2.51255e-05
-2.97783e-05
-2.36718e-05
-2.59544e-05
-2.2389e-05
-2.17823e-05
-2.13073e-05
-1.75616e-05
-2.04369e-05
-1.35238e-05
-1.97628e-05
-9.81482e-06
-1.92552e-05
-6.48728e-06
-1.88793e-05
-3.52524e-06
-1.85948e-05
-8.82573e-07
-1.8376e-05
1.4876e-06
3.59892e-06
-1.82005e-05
-7.85634e-06
-1.84185e-05
-1.40489e-05
-1.77488e-05
-1.85725e-05
-1.77223e-05
-2.16761e-05
-1.95899e-05
-2.36284e-05
-2.29377e-05
-2.4675e-05
-2.71377e-05
-2.49358e-05
-3.14402e-05
-2.45562e-05
-3.49261e-05
-2.38238e-05
-3.68538e-05
-2.2937e-05
-3.71982e-05
-2.20261e-05
-3.6103e-05
-2.11288e-05
-3.38445e-05
-2.02477e-05
-3.06594e-05
-1.93951e-05
-2.6807e-05
-1.86025e-05
-2.25749e-05
-1.79081e-05
-1.8256e-05
-1.73376e-05
-1.40943e-05
-1.69076e-05
-1.02448e-05
-1.66024e-05
-6.79249e-06
-1.6395e-05
-3.7326e-06
-1.6261e-05
-1.0165e-06
-1.61756e-05
1.40212e-06
3.54075e-06
-1.61174e-05
-5.67752e-06
-1.27409e-05
-1.01365e-05
-1.32898e-05
-1.32693e-05
-1.45895e-05
-1.53115e-05
-1.75476e-05
-1.65177e-05
-2.17315e-05
-1.71592e-05
-2.64962e-05
-1.72715e-05
-3.13279e-05
-1.69324e-05
-3.52651e-05
-1.65312e-05
-3.72549e-05
-1.62117e-05
-3.75177e-05
-1.59937e-05
-3.63209e-05
-1.58229e-05
-3.40153e-05
-1.56277e-05
-3.08545e-05
-1.53711e-05
-2.70636e-05
-1.50558e-05
-2.28902e-05
-1.47168e-05
-1.8595e-05
-1.44028e-05
-1.44083e-05
-1.4156e-05
-1.04916e-05
-1.39993e-05
-6.94921e-06
-1.39295e-05
-3.80237e-06
-1.39206e-05
-1.02542e-06
-1.39518e-05
1.43345e-06
3.5878e-06
-1.39989e-05
-3.5098e-06
-9.23106e-06
-6.29963e-06
-1.04999e-05
-8.10193e-06
-1.27871e-05
-9.15362e-06
-1.64959e-05
-9.71905e-06
-2.1166e-05
-1.01449e-05
-2.60703e-05