/*--------------------------------*- C++ -*----------------------------------*\
| =========                 |                                                 |
| \\      /  F ield         | OpenFOAM: The Open Source CFD Toolbox           |
|  \\    /   O peration     | Version:  2312                                  |
|   \\  /    A nd           | Website:  www.openfoam.com                      |
|    \\/     M anipulation  |                                                 |
\*---------------------------------------------------------------------------*/
FoamFile
{
    version     2.0;
    format      ascii;
    arch        "LSB;label=32;scalar=64";
    class       volVectorField;
    location    "2.65";
    object      U;
}
// * * * * * * * * * * * * * * * * * * * * * * * * * * * * * * * * * * * * * //

dimensions      [0 1 -1 0 0 0 0];

internalField   nonuniform List<vector> 
2268
(
(0.0123362 -0.00738465 0)
(0.0182964 -0.00255083 0)
(0.0210164 -0.00125393 0)
(0.0221863 -0.000246773 0)
(0.0214039 0.000306467 0)
(0.0188464 0.000923305 0)
(0.0142721 0.00136931 0)
(0.00833286 0.00154411 0)
(0.00216207 0.00142459 0)
(-0.00299246 0.00103902 0)
(-0.00624375 0.000564518 0)
(-0.00730306 0.000114555 0)
(-0.00664107 -0.000101851 0)
(-0.00557809 -7.56904e-05 0)
(-0.00514392 0.000136515 0)
(-0.00564608 0.000364588 0)
(-0.00723448 0.000567213 0)
(-0.009924 0.000787518 0)
(-0.0128319 0.000745739 0)
(-0.0153002 0.000515491 0)
(-0.0150648 -0.000180159 0)
(-0.0124228 -0.000918234 0)
(-0.00551529 -0.00162107 0)
(0.000792668 -0.00814406 0)
(0.00601746 -0.00138701 0)
(0.00756626 -0.00110554 0)
(0.0101089 -4.64356e-06 0)
(0.0112606 0.00112429 0)
(0.0105877 0.00260334 0)
(0.00735009 0.00385133 0)
(0.00232736 0.00450348 0)
(-0.00325899 0.00410698 0)
(-0.00789851 0.00295688 0)
(-0.0106569 0.00152119 0)
(-0.0111719 5.60952e-05 0)
(-0.00990246 -0.0007144 0)
(-0.00830447 -0.000663271 0)
(-0.00751015 -1.37598e-05 0)
(-0.00783878 0.000766169 0)
(-0.00935843 0.0015266 0)
(-0.0121009 0.00208826 0)
(-0.0151808 0.00178809 0)
(-0.0178849 0.000807719 0)
(-0.0178781 -0.00120012 0)
(-0.0150402 -0.0032991 0)
(-0.00753462 -0.00714203 0)
(-0.0039051 -0.00919333 0)
(-0.00159346 -0.00417382 0)
(-0.00106609 -0.00328498 0)
(0.00223423 -0.00192511 0)
(0.00391103 -0.000555825 0)
(0.00378873 0.00221062 0)
(0.000941759 0.00474488 0)
(-0.00395346 0.00613155 0)
(-0.00936657 0.00587268 0)
(-0.013627 0.00443622 0)
(-0.0158977 0.00223066 0)
(-0.0156541 -7.12042e-05 0)
(-0.0133365 -0.0013394 0)
(-0.0107537 -0.00114809 0)
(-0.00926186 2.98067e-05 0)
(-0.00919095 0.0013742 0)
(-0.0106274 0.00262704 0)
(-0.0135397 0.0035237 0)
(-0.0168545 0.00308628 0)
(-0.0197295 0.00150768 0)
(-0.0196255 -0.00204196 0)
(-0.0166078 -0.00583248 0)
(-0.00721879 -0.0129874 0)
(-0.00688072 -0.00598425 0)
(-0.0069636 -0.00345829 0)
(-0.00702555 -0.00350726 0)
(-0.00362912 -0.00222473 0)
(-0.0018024 0.000360195 0)
(-0.00136496 0.00476907 0)
(-0.00438968 0.00861219 0)
(-0.00939162 0.0103133 0)
(-0.0149524 0.00939848 0)
(-0.0195545 0.00652528 0)
(-0.0218958 0.00275986 0)
(-0.0210528 -0.00091438 0)
(-0.0176445 -0.00285047 0)
(-0.0139015 -0.00245855 0)
(-0.0114992 -0.000730637 0)
(-0.0105588 0.00132361 0)
(-0.0111721 0.00362442 0)
(-0.0140079 0.00544876 0)
(-0.0174598 0.00486733 0)
(-0.0205133 0.00259622 0)
(-0.020341 -0.00284602 0)
(-0.0173069 -0.00861629 0)
(-0.00558421 -0.018716 0)
(-0.00827779 -0.00400664 0)
(-0.0082079 -0.00452017 0)
(-0.00797879 -0.00503072 0)
(-0.003913 -0.00430993 0)
(-0.00263793 -0.00174754 0)
(-0.00312566 0.00291261 0)
(-0.00707041 0.00726606 0)
(-0.0128676 0.00955172 0)
(-0.0195452 0.00925645 0)
(-0.0254069 0.00676781 0)
(-0.028435 0.00288333 0)
(-0.0274096 -0.00225494 0)
(-0.0239073 -0.00491601 0)
(-0.0199427 -0.00345928 0)
(-0.0173645 2.02581e-06 0)
(-0.0156387 0.00191831 0)
(-0.0143867 0.00408235 0)
(-0.0163659 0.00657178 0)
(-0.0194081 0.00572905 0)
(-0.0220295 0.00306814 0)
(-0.021376 -0.00395895 0)
(-0.018823 -0.0126644 0)
(-0.00479618 -0.0249563 0)
(-0.00593503 0.00219786 0)
(-0.00459698 -0.00397509 0)
(-0.0079556 -0.00645909 0)
(-0.00369358 -0.00523707 0)
(-0.00514919 -0.000157083 0)
(-0.00756722 0.00672072 0)
(-0.0134709 0.0123968 0)
(-0.0203239 0.0150635 0)
(-0.0258587 0.0139505 0)
(-0.0286383 0.00906021 0)
(-0.0274945 0.00187667 0)
(-0.0245804 -0.00654289 0)
(-0.023384 -0.0106297 0)
(-0.021203 -0.0100538 0)
(-0.0196701 -0.00612829 0)
(-0.0205923 -0.00064032 0)
(-0.0218278 0.0051601 0)
(-0.0249788 0.00860453 0)
(-0.027051 0.00688653 0)
(-0.0281874 0.00283111 0)
(-0.0261467 -0.00448299 0)
(-0.0226491 -0.0141401 0)
(-0.0048831 -0.0283529 0)
(-0.0116808 0.00159862 0)
(0.00151837 -0.000350732 0)
(-0.0163531 -0.00314301 0)
(-0.0235713 -0.00431195 0)
(-0.0338595 -0.00045754 0)
(-0.0395184 0.00832686 0)
(-0.0438384 0.0164955 0)
(-0.0458786 0.0201894 0)
(-0.0415294 0.018572 0)
(-0.0317906 0.0128917 0)
(-0.00100612 0.00433685 0)
(0.00597312 0.00438313 0)
(-0.0298671 0.00379041 0)
(-0.0445003 -0.00312106 0)
(-0.0453476 -0.000171144 0)
(-0.043239 0.00174014 0)
(-0.0364395 0.00282013 0)
(-0.0233857 0.00782847 0)
(-0.0194895 0.00925991 0)
(-0.0230165 0.00550777 0)
(-0.0220751 -0.00867795 0)
(-0.0214099 -0.0259687 0)
(-0.0044676 -0.0445062 0)
(-0.027548 0.00450935 0)
(-0.0318084 0.000130917 0)
(-0.0610143 0.00165253 0)
(-0.0799098 0.00374301 0)
(-0.0928112 0.00579606 0)
(-0.0972878 0.00920182 0)
(-0.0956328 0.0137417 0)
(-0.0894195 0.0138123 0)
(-0.0744041 0.00613726 0)
(-0.0488039 -0.0101899 0)
(0.00423433 -0.0237095 0)
(0.0565879 -0.00336558 0)
(0.0757167 0.00983342 0)
(0.0611008 0.000198476 0)
(0.0346097 -0.000379164 0)
(0.00633677 0.00481115 0)
(-0.0614245 0.000428963 0)
(-0.071431 0.00266117 0)
(-0.0383735 0.00374139 0)
(-0.0208317 0.00440532 0)
(-0.00778604 -0.00163817 0)
(-0.0121407 -0.0119972 0)
(0.0017695 -0.028469 0)
(-0.0272046 0.0103334 0)
(-0.0218541 0.0019692 0)
(-0.0297256 -0.000456151 0)
(-0.0262602 -0.00186639 0)
(-0.0208212 -0.0017676 0)
(-0.0138387 -0.000627757 0)
(-0.00753284 -0.00183782 0)
(-0.00188645 -0.00139047 0)
(-0.00376019 0.0013491 0)
(-0.0160731 0.005284 0)
(-0.0414974 0.0101036 0)
(-0.0808747 0.0119611 0)
(-0.130513 0.00565454 0)
(-0.151604 -0.00544458 0)
(-0.131491 -0.0129241 0)
(-0.0828924 -0.0159828 0)
(-0.0230601 -0.0133814 0)
(0.00836111 -0.00271416 0)
(-0.0042005 0.000327373 0)
(-0.000486488 0.00703968 0)
(0.0202329 -0.000417991 0)
(0.0157411 0.00150345 0)
(0.0225739 -0.0010178 0)
(0.0287558 -0.00482273 0)
(0.0373337 -0.00560538 0)
(0.0379408 -0.0048085 0)
(0.0373679 -0.00116898 0)
(0.0365961 0.00341807 0)
(0.0298486 0.0106683 0)
(0.0166122 0.0190304 0)
(-0.00473346 0.0259626 0)
(-0.0361294 0.0243725 0)
(-0.0574416 0.0067718 0)
(-0.0646532 -0.0189925 0)
(-0.0399657 -0.0357327 0)
(0.00684548 -0.0290076 0)
(0.0244982 -0.00408126 0)
(0.0206969 0.000653753 0)
(0.00791335 0.0047046 0)
(0.0185554 -0.00248508 0)
(0.0244364 -0.00174845 0)
(0.0493618 -0.00890338 0)
(0.0626711 -0.00943252 0)
(0.0670343 -0.00427904 0)
(0.0326384 -0.00256677 0)
(0.0103319 0.000152782 0)
(0.0457778 0.00584461 0)
(0.0456562 0.0109882 0)
(0.0252303 0.0206499 0)
(0.0137357 0.0292173 0)
(0.00125366 0.0288383 0)
(-0.00537362 0.00779619 0)
(0.00680793 -0.0196776 0)
(0.0129169 -0.0405232 0)
(0.0314953 -0.0382768 0)
(0.0198314 -0.00395375 0)
(0.0252733 0.01651 0)
(0.017841 -0.00737518 0)
(0.0410143 -0.00660084 0)
(0.0496677 -0.0114859 0)
(0.0652673 -0.00611142 0)
(0.0373287 -0.00487199 0)
(0.0636368 0.00682172 0)
(-0.0311216 0.0311641 0)
(-0.0728122 -0.0135138 0)
(0.103353 -0.0192343 0)
(0.138052 0.0372015 0)
(0.0374376 0.0435543 0)
(-0.0177126 0.0361081 0)
(-0.00507278 0.0311169 0)
(0.0210993 0.00903932 0)
(0.0423103 -0.0228738 0)
(0.0521514 -0.0443348 0)
(0.0652769 -0.0341095 0)
(0.0236809 0.00331533 0)
(0.0355795 0.0168381 0)
(-0.0104481 -0.0220557 0)
(-0.0028682 -0.0080451 0)
(0.0238093 -0.0234669 0)
(0.0516312 -0.00583908 0)
(0.066273 -0.00915351 0)
(0.093502 0.0106235 0)
(0.00100527 0.0666559 0)
(-0.0245734 -0.0579632 0)
(0.0728512 -0.0878709 0)
(0.155887 0.036095 0)
(0.141894 0.0743858 0)
(0.0985994 0.0542279 0)
(0.0552572 0.019878 0)
(0.0695452 -0.0148555 0)
(0.0965692 -0.0418855 0)
(0.120712 -0.0533165 0)
(0.127968 -0.0316939 0)
(0.0962567 0.0148774 0)
(0.0778765 0.0413305 0)
(-0.049179 -0.0124115 0)
(0.0125528 -0.0268162 0)
(0.0574065 -0.0354943 0)
(0.0776075 -0.0212219 0)
(0.0819064 -0.0136188 0)
(0.101931 0.016876 0)
(0.0204227 0.0927489 0)
(0.0289209 -0.0650812 0)
(0.0502407 -0.105051 0)
(0.0993426 0.0144854 0)
(0.107102 0.0724848 0)
(0.130054 0.0596233 0)
(0.136796 0.0322222 0)
(0.170571 -0.020772 0)
(0.211373 -0.0483161 0)
(0.227585 -0.0510814 0)
(0.208012 -0.0209562 0)
(0.165986 0.0276216 0)
(0.111825 0.0828376 0)
(0.0094352 0.00816499 0)
(0.0686374 -0.0510045 0)
(0.084035 -0.0433377 0)
(0.0847018 -0.0229998 0)
(0.0736374 -0.011683 0)
(0.0749777 0.0243397 0)
(0.0206359 0.112969 0)
(0.0276621 -0.0747946 0)
(0.0224066 -0.10057 0)
(-0.0269726 0.0303046 0)
(0.000502036 0.0624935 0)
(0.101222 0.0441101 0)
(0.139851 0.0300997 0)
(0.17926 -0.0508066 0)
(0.23561 -0.0626172 0)
(0.257656 -0.0523068 0)
(0.24876 -0.0073875 0)
(0.14101 0.0589898 0)
(0.0994055 0.148015 0)
(0.114469 -0.0598938 0)
(0.119657 -0.0665554 0)
(0.11661 -0.0428651 0)
(0.0989567 -0.0166143 0)
(0.0714329 -0.00349025 0)
(0.050239 0.0341208 0)
(0.0215769 0.125848 0)
(0.0109481 -0.0774198 0)
(-0.00332752 -0.0781039 0)
(-0.0722067 0.0290465 0)
(-0.0394324 0.0207616 0)
(0.0300248 -0.0159413 0)
(0.118359 0.0088934 0)
(0.132469 -0.0731564 0)
(0.166052 -0.0771294 0)
(0.17463 -0.0506093 0)
(0.141289 0.0283723 0)
(0.061509 0.087744 0)
(0.0754718 0.195023 0)
(-0.049184 0.0466427 0)
(-0.073742 0.0319733 0)
(-0.109381 0.0259628 0)
(-0.127521 0.0178119 0)
(-0.13691 0.0116499 0)
(-0.134501 0.00933779 0)
(-0.122593 0.00846945 0)
(-0.105505 0.00337672 0)
(-0.0826295 -0.0115525 0)
(-0.052262 -0.0363171 0)
(-0.0208838 -0.0566041 0)
(0.016983 -0.0329046 0)
(0.0406342 0.0084458 0)
(0.0406411 0.0164132 0)
(0.0203382 0.0193854 0)
(0.0251648 0.0360263 0)
(0.0308837 0.0467436 0)
(0.0388563 -0.00506694 0)
(0.0453508 -0.0214456 0)
(0.0434709 -0.0146525 0)
(0.0330892 -0.0205788 0)
(0.0220428 -0.0475417 0)
(0.0722874 -0.0805365 0)
(-0.0412218 0.104428 0)
(-0.0784246 0.0648151 0)
(-0.119139 0.0426071 0)
(-0.125711 0.0336265 0)
(-0.117686 0.0185091 0)
(-0.0975458 -0.00463031 0)
(-0.0802781 -0.0135549 0)
(-0.0636767 -0.0204854 0)
(-0.0462122 -0.0399653 0)
(-0.0248329 -0.0663518 0)
(-0.0115427 -0.0807595 0)
(-0.00139718 -0.0594511 0)
(0.0224343 -0.0146607 0)
(0.0442869 0.0211997 0)
(0.0558623 0.0205829 0)
(0.0780978 -0.00651603 0)
(0.0977313 -0.00614806 0)
(0.115604 -0.0150448 0)
(0.120587 -0.0111871 0)
(0.13306 0.0141955 0)
(0.159157 0.0133243 0)
(0.18356 -0.0324627 0)
(0.182662 -0.127194 0)
(0.00166397 0.130647 0)
(0.0127552 0.0998256 0)
(-0.023261 0.0594348 0)
(-0.0531397 0.00721746 0)
(-0.0641596 -0.0238879 0)
(-0.0339102 -0.0385132 0)
(-0.0187201 -0.0305308 0)
(-0.00616003 -0.0301539 0)
(-0.000650467 -0.0497543 0)
(0.014128 -0.074633 0)
(0.02775 -0.0814823 0)
(0.0439008 -0.0685976 0)
(0.0679559 -0.0431579 0)
(0.103776 -0.0191693 0)
(0.145121 -0.0141579 0)
(0.177049 -0.0136362 0)
(0.194211 -0.00781398 0)
(0.197302 -0.00588492 0)
(0.188507 -0.0165259 0)
(0.180677 -0.0358115 0)
(0.187914 -0.0559656 0)
(0.206628 -0.0698198 0)
(0.215693 -0.0769184 0)
(0.101102 0.139093 0)
(0.163181 0.14002 0)
(0.177807 0.119506 0)
(0.156053 0.0861517 0)
(0.124897 0.0194175 0)
(0.0704494 -0.052123 0)
(0.0510812 -0.0491415 0)
(0.0510354 -0.0350578 0)
(0.0574628 -0.0544428 0)
(0.074682 -0.0893402 0)
(0.105468 -0.10709 0)
(0.143822 -0.0992139 0)
(0.184239 -0.0759774 0)
(0.223912 -0.0547466 0)
(0.259143 -0.0456966 0)
(0.288021 -0.0399599 0)
(0.313292 -0.0311267 0)
(0.33733 -0.0165878 0)
(0.35742 -0.00677074 0)
(0.368904 -0.0111428 0)
(0.367419 -0.0304553 0)
(0.353834 -0.0595538 0)
(0.333041 -0.0877534 0)
(0.0961687 -0.193395 0)
(0.26195 0.0097327 0)
(0.318404 0.0835078 0)
(0.311104 0.091853 0)
(0.285109 0.0629983 0)
(0.244209 0.0273166 0)
(0.187799 -0.00764072 0)
(0.159545 -0.0244357 0)
(0.153741 -0.0591152 0)
(0.165675 -0.115606 0)
(0.194696 -0.149719 0)
(0.233508 -0.14807 0)
(0.273895 -0.126431 0)
(0.312393 -0.101908 0)
(0.347201 -0.0831883 0)
(0.377312 -0.0700677 0)
(0.403767 -0.0590507 0)
(0.428741 -0.0465255 0)
(0.454548 -0.0379297 0)
(0.478398 -0.0363298 0)
(0.495702 -0.0370819 0)
(0.501472 -0.0432065 0)
(0.49262 -0.0539431 0)
(-0.018125 -0.284303 0)
(0.15104 -0.0891346 0)
(0.239111 0.036483 0)
(0.270429 0.0913279 0)
(0.272789 0.0808198 0)
(0.267249 0.0436841 0)
(0.267053 0.00763468 0)
(0.260847 -0.00742284 0)
(0.255572 -0.0523943 0)
(0.269856 -0.136321 0)
(0.295407 -0.187021 0)
(0.326222 -0.185387 0)
(0.354006 -0.15832 0)
(0.376699 -0.129136 0)
(0.39613 -0.107991 0)
(0.415205 -0.0950535 0)
(0.437274 -0.0861471 0)
(0.465063 -0.0758891 0)
(0.496421 -0.0655298 0)
(0.52595 -0.0589424 0)
(0.549677 -0.0538173 0)
(0.566831 -0.0508948 0)
(0.577154 -0.054654 0)
(-0.0885452 -0.287929 0)
(-0.0189894 -0.163287 0)
(0.0334431 -0.0108853 0)
(0.136587 0.0600417 0)
(0.200801 0.055235 0)
(0.266422 0.0183678 0)
(0.318777 -0.0105494 0)
(0.356687 -0.00900134 0)
(0.39612 -0.046608 0)
(0.428563 -0.152961 0)
(0.440616 -0.214306 0)
(0.446212 -0.210752 0)
(0.447731 -0.176455 0)
(0.44566 -0.14107 0)
(0.444443 -0.117695 0)
(0.446862 -0.106858 0)
(0.455322 -0.105056 0)
(0.472931 -0.10355 0)
(0.498219 -0.0967562 0)
(0.52533 -0.0878239 0)
(0.549981 -0.0787815 0)
(0.571224 -0.07096 0)
(0.589829 -0.0688531 0)
(-0.152819 -0.201451 0)
(-0.160644 -0.179988 0)
(-0.118545 -0.124612 0)
(0.035058 -0.0575779 0)
(0.148131 -0.0445065 0)
(0.255944 -0.0638998 0)
(0.357633 -0.0786827 0)
(0.478 -0.090723 0)
(0.601415 -0.103696 0)
(0.642373 -0.160585 0)
(0.611899 -0.212494 0)
(0.571103 -0.21529 0)
(0.537269 -0.185161 0)
(0.509096 -0.152192 0)
(0.492555 -0.131061 0)
(0.483398 -0.12047 0)
(0.477055 -0.12146 0)
(0.480144 -0.124644 0)
(0.494235 -0.120274 0)
(0.513215 -0.11192 0)
(0.534869 -0.101666 0)
(0.554772 -0.0902935 0)
(0.573421 -0.085138 0)
(-0.211188 -0.0617073 0)
(-0.197447 -0.217871 0)
(-0.14441 -0.22256 0)
(-0.0725883 -0.199017 0)
(0.0574322 -0.178854 0)
(0.220369 -0.204301 0)
(0.401386 -0.241509 0)
(0.573437 -0.238513 0)
(0.702109 -0.212146 0)
(0.785308 -0.193515 0)
(0.829116 -0.163567 0)
(0.737946 -0.149967 0)
(0.622595 -0.109771 0)
(0.555051 -0.0805329 0)
(0.535616 -0.0847118 0)
(0.527084 -0.0900063 0)
(0.488614 -0.103261 0)
(0.474538 -0.128685 0)
(0.483077 -0.130518 0)
(0.507276 -0.12662 0)
(0.534973 -0.116979 0)
(0.555895 -0.103792 0)
(0.576236 -0.10049 0)
(-0.119611 0.256974 0)
(-0.347455 -0.179942 0)
(-0.657205 -0.18894 0)
(-0.496631 -0.258789 0)
(-0.283333 -0.341222 0)
(0.0511339 -0.359136 0)
(0.387249 -0.399881 0)
(0.682809 -0.369236 0)
(0.949272 -0.308005 0)
(1.18483 -0.211549 0)
(1.27892 -0.0548494 0)
(1.06543 0.0281919 0)
(0.784658 0.0433587 0)
(0.666514 -0.0713043 0)
(0.682933 -0.100055 0)
(0.714388 -0.0767546 0)
(0.711928 -0.00503239 0)
(0.535706 -0.0510824 0)
(0.410478 -0.135808 0)
(0.5132 -0.155161 0)
(0.558571 -0.141547 0)
(0.60132 -0.120452 0)
(0.634403 -0.117903 0)
(-0.118957 0.38676 0)
(-0.836221 0.370527 0)
(-1.03509 -0.128593 0)
(-0.632188 -0.723862 0)
(-0.333325 -0.923542 0)
(-0.016201 -0.904442 0)
(0.332741 -0.968402 0)
(0.683872 -0.960009 0)
(0.986066 -0.869041 0)
(1.4018 -0.601212 0)
(1.86795 -0.00104024 0)
(1.61949 0.19403 0)
(1.4143 0.21309 0)
(1.2798 0.0735376 0)
(1.11212 -0.101968 0)
(0.988904 -0.0865798 0)
(0.968473 0.027353 0)
(1.01859 0.0690656 0)
(1.05726 -0.0447234 0)
(1.00612 -0.267091 0)
(0.90052 -0.201529 0)
(0.821944 -0.138624 0)
(0.773879 -0.125363 0)
(-0.03941 0.761538 0)
(-0.287152 0.675666 0)
(-0.367729 -0.0377122 0)
(-0.194315 -0.929961 0)
(-0.128231 -1.05928 0)
(0.0666042 -1.0551 0)
(0.299353 -1.21272 0)
(0.47856 -1.22394 0)
(0.6724 -1.10124 0)
(0.962903 -0.536541 0)
(1.06987 -0.0914539 0)
(1.04473 0.211528 0)
(1.02176 0.304534 0)
(0.996702 0.228133 0)
(0.935179 0.108788 0)
(0.864685 0.0122343 0)
(0.842751 -0.0351096 0)
(0.87479 -0.0656803 0)
(0.916342 -0.0898532 0)
(0.926643 -0.105724 0)
(0.922053 -0.0919159 0)
(0.950932 -0.0975119 0)
(1.00907 -0.127028 0)
(0.0664332 0.852598 0)
(0.108335 0.729241 0)
(0.0746078 0.197827 0)
(0.155754 -1.00476 0)
(0.0506989 -1.16957 0)
(0.214915 -1.17729 0)
(0.360571 -1.33527 0)
(0.4729 -1.33574 0)
(0.516704 -1.18394 0)
(0.488455 -0.61133 0)
(0.486291 -0.104373 0)
(0.508204 0.199515 0)
(0.540047 0.276884 0)
(0.566343 0.211905 0)
(0.565701 0.10779 0)
(0.545358 0.0318016 0)
(0.522748 -0.0148558 0)
(0.508634 -0.055707 0)
(0.4978 -0.107713 0)
(0.485807 -0.144041 0)
(0.476091 -0.147323 0)
(0.459946 -0.15263 0)
(0.418035 -0.171757 0)
(0.119678 0.695722 0)
(0.273429 0.568085 0)
(0.401506 0.0622337 0)
(0.480012 -0.825861 0)
(0.391547 -1.21117 0)
(0.416255 -1.3284 0)
(0.470796 -1.41221 0)
(0.489879 -1.40463 0)
(0.386801 -1.09491 0)
(0.251362 -0.539674 0)
(0.166682 -0.101407 0)
(0.164265 0.142788 0)
(0.18719 0.21242 0)
(0.204551 0.17913 0)
(0.198449 0.115655 0)
(0.165198 0.0664028 0)
(0.131849 0.0194283 0)
(0.104517 -0.0381049 0)
(0.0835746 -0.0880847 0)
(0.058836 -0.10294 0)
(0.0273292 -0.0908828 0)
(-0.0299778 -0.0815535 0)
(-0.0836104 -0.0703425 0)
(0.138931 0.447308 0)
(0.312072 0.349675 0)
(0.562788 -0.122351 0)
(0.682133 -0.772151 0)
(0.655453 -1.17125 0)
(0.598129 -1.33366 0)
(0.540614 -1.39756 0)
(0.455174 -1.33189 0)
(0.283895 -0.939991 0)
(0.101371 -0.398212 0)
(-0.0460636 -0.0173615 0)
(-0.0682778 0.143729 0)
(-0.0697584 0.198882 0)
(-0.070118 0.171726 0)
(-0.080692 0.133922 0)
(-0.100579 0.101799 0)
(-0.120672 0.0234746 0)
(-0.124735 -0.0338376 0)
(-0.138819 -0.0657479 0)
(-0.165232 -0.0647795 0)
(-0.203777 -0.0533424 0)
(-0.240718 -0.0452385 0)
(-0.272989 -0.0353497 0)
(0.137211 0.210507 0)
(0.301382 0.125244 0)
(0.605956 -0.386859 0)
(0.750447 -0.843784 0)
(0.750094 -1.13616 0)
(0.679488 -1.26379 0)
(0.577898 -1.29206 0)
(0.421374 -1.17873 0)
(0.199785 -0.736549 0)
(-0.0300943 -0.169373 0)
(-0.166307 0.069811 0)
(-0.191898 0.159487 0)
(-0.194889 0.195577 0)
(-0.19526 0.181493 0)
(-0.195193 0.157693 0)
(-0.19458 0.121581 0)
(-0.203439 0.0451557 0)
(-0.219324 -0.0123036 0)
(-0.238486 -0.029536 0)
(-0.261814 -0.0237452 0)
(-0.284857 -0.0188626 0)
(-0.306393 -0.019051 0)
(-0.322682 -0.014089 0)
(0.131429 0.0145862 0)
(0.3417 -0.188523 0)
(0.624621 -0.590892 0)
(0.743934 -0.912731 0)
(0.742668 -1.09702 0)
(0.674929 -1.18068 0)
(0.55989 -1.15739 0)
(0.365554 -0.98341 0)
(0.103003 -0.486302 0)
(-0.131521 0.0215315 0)
(-0.211173 0.127039 0)
(-0.239819 0.173227 0)
(-0.241743 0.18877 0)
(-0.233608 0.171783 0)
(-0.222201 0.14667 0)
(-0.210898 0.111305 0)
(-0.212771 0.051525 0)
(-0.232442 0.00100258 0)
(-0.255073 -0.0161649 0)
(-0.271763 -0.0130037 0)
(-0.284987 -0.00866644 0)
(-0.299271 -0.00886751 0)
(-0.312279 -0.00406481 0)
(0.168998 -0.219282 0)
(0.425111 -0.478113 0)
(0.621221 -0.752906 0)
(0.693592 -0.945149 0)
(0.688994 -1.05466 0)
(0.620981 -1.08639 0)
(0.4798 -0.998504 0)
(0.267679 -0.766672 0)
(-0.0121929 -0.226765 0)
(-0.192556 0.13098 0)
(-0.232233 0.171066 0)
(-0.249003 0.181789 0)
(-0.243996 0.179261 0)
(-0.229602 0.158861 0)
(-0.215369 0.134578 0)
(-0.203205 0.104493 0)
(-0.20104 0.0643418 0)
(-0.212698 0.0286049 0)
(-0.230419 0.00851412 0)
(-0.245367 0.00299923 0)
(-0.256476 0.00344325 0)
(-0.2681 0.0031977 0)
(-0.279794 0.00677853 0)
(0.208448 -0.552823 0)
(0.404379 -0.719941 0)
(0.547059 -0.862146 0)
(0.603324 -0.961876 0)
(0.595061 -1.01577 0)
(0.501662 -0.968291 0)
(0.346365 -0.827057 0)
(0.110014 -0.529403 0)
(-0.16927 0.0636719 0)
(-0.231915 0.189749 0)
(-0.250658 0.193559 0)
(-0.247754 0.179979 0)
(-0.233774 0.164305 0)
(-0.216222 0.142905 0)
(-0.201551 0.120702 0)
(-0.190137 0.0951998 0)
(-0.185959 0.0651184 0)
(-0.190998 0.037717 0)
(-0.201543 0.020256 0)
(-0.212883 0.0132842 0)
(-0.223009 0.0123731 0)
(-0.232934 0.0135418 0)
(-0.242464 0.0175572 0)
(0.173558 -0.851158 0)
(0.326903 -0.886426 0)
(0.440351 -0.940956 0)
(0.479322 -0.975459 0)
(0.431314 -0.945168 0)
(0.32276 -0.841279 0)
(0.155033 -0.645141 0)
(-0.117757 -0.231413 0)
(-0.265707 0.140322 0)
(-0.269624 0.206976 0)
(-0.266836 0.192062 0)
(-0.248524 0.166355 0)
(-0.228548 0.145161 0)
(-0.20907 0.125674 0)
(-0.193503 0.106811 0)
(-0.181692 0.0862491 0)
(-0.175643 0.0638928 0)
(-0.176363 0.0437525 0)
(-0.182017 0.0297835 0)
(-0.189692 0.0228599 0)
(-0.197427 0.0210991 0)
(-0.205248 0.0221277 0)
(-0.212975 0.0259659 0)
(0.114142 -1.0354 0)
(0.227186 -1.00778 0)
(0.291629 -0.993877 0)
(0.289816 -0.952375 0)
(0.223503 -0.861512 0)
(0.100097 -0.701785 0)
(-0.112789 -0.402459 0)
(-0.303683 -0.0302387 0)
(-0.338648 0.164131 0)
(-0.313842 0.194451 0)
(-0.287417 0.171176 0)
(-0.258153 0.14339 0)
(-0.233956 0.123448 0)
(-0.212645 0.107359 0)
(-0.195633 0.0921965 0)
(-0.18261 0.0762733 0)
(-0.174638 0.0598816 0)
(-0.172087 0.0453313 0)
(-0.173824 0.0348532 0)
(-0.17794 0.0292347 0)
(-0.182898 0.0277132 0)
(-0.188464 0.0290053 0)
(-0.194417 0.0329746 0)
(0.0453692 -1.16646 0)
(0.109979 -1.08224 0)
(0.123046 -1.00441 0)
(0.0873104 -0.901632 0)
(-0.00765723 -0.748821 0)
(-0.169983 -0.504057 0)
(-0.34102 -0.200021 0)
(-0.412934 0.0320381 0)
(-0.388656 0.138835 0)
(-0.350376 0.157002 0)
(-0.309786 0.136461 0)
(-0.274853 0.114467 0)
(-0.247509 0.0993594 0)
(-0.224422 0.0872976 0)
(-0.205748 0.0760503 0)
(-0.191168 0.06459 0)
(-0.181177 0.0532406 0)
(-0.17576 0.0433442 0)
(-0.174109 0.0361948 0)
(-0.174941 0.0324107 0)
(-0.177122 0.0317914 0)
(-0.180372 0.033742 0)
(-0.184408 0.0381065 0)
(-0.0008943 -1.20124 0)
(0.00819561 -1.08913 0)
(-0.0343704 -0.964645 0)
(-0.111842 -0.805359 0)
(-0.235195 -0.596364 0)
(-0.36712 -0.35399 0)
(-0.448707 -0.131342 0)
(-0.455745 0.0198457 0)
(-0.418273 0.0938463 0)
(-0.373539 0.108232 0)
(-0.328757 0.095663 0)
(-0.292327 0.0823774 0)
(-0.263182 0.0731417 0)
(-0.238753 0.0655008 0)
(-0.21866 0.0583496 0)
(-0.202625 0.0511683 0)
(-0.19077 0.0442356 0)
(-0.182904 0.0383521 0)
(-0.178425 0.0343183 0)
(-0.176447 0.0326293 0)
(-0.176128 0.0333507 0)
(-0.177182 0.036252 0)
(-0.179317 0.0411667 0)
(-0.0347935 -1.1705 0)
(-0.0795101 -1.03671 0)
(-0.169557 -0.87752 0)
(-0.271452 -0.689643 0)
(-0.380979 -0.480627 0)
(-0.461459 -0.276852 0)
(-0.490416 -0.111911 0)
(-0.473073 -0.00593004 0)
(-0.431323 0.0461812 0)
(-0.384818 0.058865 0)
(-0.340896 0.0544825 0)
(-0.305059 0.0493024 0)
(-0.275423 0.0457159 0)
(-0.250392 0.0425684 0)
(-0.229493 0.0394975 0)
(-0.212474 0.0363369 0)
(-0.199252 0.0333327 0)
(-0.189584 0.0310067 0)
(-0.18301 0.0298973 0)
(-0.178879 0.0304082 0)
(-0.176535 0.0327089 0)
(-0.175715 0.0367313 0)
(-0.176167 0.0422824 0)
(-0.0608289 -1.08852 0)
(-0.14418 -0.943493 0)
(-0.259071 -0.772093 0)
(-0.361428 -0.58693 0)
(-0.445569 -0.402893 0)
(-0.491256 -0.241075 0)
(-0.49595 -0.118404 0)
(-0.469986 -0.0405953 0)
(-0.428871 -0.000376245 0)
(-0.38483 0.012879 0)
(-0.344233 0.0154467 0)
(-0.310197 0.0168427 0)
(-0.28121 0.018241 0)
(-0.256424 0.019331 0)
(-0.235467 0.0201303 0)
(-0.218118 0.0206884 0)
(-0.204209 0.0212111 0)
(-0.19349 0.0220927 0)
(-0.185596 0.0237108 0)
(-0.180015 0.0263986 0)
(-0.176209 0.0303486 0)
(-0.173943 0.035549 0)
(-0.173057 0.0417809 0)
(-0.0773619 -0.973927 0)
(-0.179542 -0.82984 0)
(-0.300032 -0.665864 0)
(-0.391838 -0.501783 0)
(-0.455257 -0.350623 0)
(-0.482472 -0.225333 0)
(-0.477738 -0.133716 0)
(-0.45106 -0.0755786 0)
(-0.414025 -0.043814 0)
(-0.374943 -0.0289754 0)
(-0.338894 -0.0207794 0)
(-0.307585 -0.0141637 0)
(-0.28021 -0.00846035 0)
(-0.256417 -0.00352717 0)
(-0.236039 0.000841909 0)
(-0.218952 0.00479153 0)
(-0.204965 0.00856144 0)
(-0.193837 0.0123516 0)
(-0.185284 0.0164767 0)
(-0.178865 0.0212249 0)
(-0.174118 0.0267784 0)
(-0.170852 0.0331363 0)
(-0.169003 0.0400633 0)
(-0.0843131 -0.844512 0)
(-0.189608 -0.711989 0)
(-0.304585 -0.5675 0)
(-0.384052 -0.431912 0)
(-0.433819 -0.313688 0)
(-0.452241 -0.219257 0)
(-0.445655 -0.15089 0)
(-0.422546 -0.106515 0)
(-0.391349 -0.0803789 0)
(-0.358353 -0.064642 0)
(-0.32726 -0.0529421 0)
(-0.29908 -0.042797 0)
(-0.273755 -0.0337303 0)
(-0.251367 -0.0254832 0)
(-0.231941 -0.017869 0)
(-0.215423 -0.0107986 0)
(-0.201764 -0.00411126 0)
(-0.190755 0.00232062 0)
(-0.182023 0.00874794 0)
(-0.17523 0.0153997 0)
(-0.169977 0.0224527 0)
(-0.166104 0.0299063 0)
(-0.163641 0.0375257 0)
(-0.0838898 -0.71417 0)
(-0.183033 -0.599095 0)
(-0.288212 -0.478556 0)
(-0.357497 -0.371502 0)
(-0.399565 -0.282179 0)
(-0.414902 -0.213152 0)
(-0.409721 -0.164038 0)
(-0.391196 -0.13145 0)
(-0.365968 -0.110058 0)
(-0.338748 -0.0943414 0)
(-0.312081 -0.0808521 0)
(-0.286857 -0.0684792 0)
(-0.263555 -0.056917 0)
(-0.242593 -0.0459441 0)
(-0.224227 -0.0355243 0)
(-0.208526 -0.0256876 0)
(-0.195405 -0.0164373 0)
(-0.184686 -0.00759986 0)
(-0.176112 0.000933962 0)
(-0.169307 0.00931664 0)
(-0.163892 0.0177468 0)
(-0.159749 0.0262194 0)
(-0.156971 0.0345179 0)
(-0.0788935 -0.591491 0)
(-0.167472 -0.495772 0)
(-0.261532 -0.399291 0)
(-0.322471 -0.318677 0)
(-0.359972 -0.254888 0)
(-0.374919 -0.207384 0)
(-0.372771 -0.173964 0)
(-0.359374 -0.150926 0)
(-0.339826 -0.133873 0)
(-0.317617 -0.119239 0)
(-0.294674 -0.105387 0)
(-0.272043 -0.091858 0)
(-0.250566 -0.0784678 0)
(-0.230942 -0.0652052 0)
(-0.213621 -0.0522575 0)
(-0.198765 -0.0398501 0)
(-0.186331 -0.0281331 0)
(-0.176147 -0.0171185 0)
(-0.167977 -0.0067076 0)
(-0.161426 0.00327813 0)
(-0.156121 0.0129654 0)
(-0.151984 0.0223768 0)
(-0.149142 0.0313308 0)
(-0.0716235 -0.480759 0)
(-0.148143 -0.403909 0)
(-0.230807 -0.329151 0)
(-0.284325 -0.271105 0)
(-0.318691 -0.228717 0)
(-0.334409 -0.199343 0)
(-0.335783 -0.179398 0)
(-0.327291 -0.164954 0)
(-0.31273 -0.152527 0)
(-0.294713 -0.140081 0)
(-0.2749 -0.127017 0)
(-0.254549 -0.113175 0)
(-0.23479 -0.0985091 0)
(-0.216529 -0.083293 0)
(-0.200344 -0.0680045 0)
(-0.186482 -0.0531671 0)
(-0.174936 -0.0391372 0)
(-0.165516 -0.02608 0)
(-0.15794 -0.0139171 0)
(-0.151872 -0.0024639 0)
(-0.146925 0.00836746 0)
(-0.143033 0.0186345 0)
(-0.140339 0.0282058 0)
(-0.0636281 -0.383373 0)
(-0.128355 -0.3239 0)
(-0.199961 -0.267906 0)
(-0.246306 -0.228387 0)
(-0.277584 -0.20337 0)
(-0.293842 -0.188977 0)
(-0.298171 -0.180643 0)
(-0.293718 -0.174239 0)
(-0.283198 -0.16691 0)
(-0.268641 -0.157538 0)
(-0.251625 -0.14604 0)
(-0.233571 -0.132448 0)
(-0.215749 -0.116926 0)
(-0.19915 -0.10003 0)
(-0.184419 -0.0825935 0)
(-0.171844 -0.0654643 0)
(-0.161451 -0.0492414 0)
(-0.153026 -0.0342275 0)
(-0.146273 -0.0204247 0)
(-0.1409 -0.00768569 0)
(-0.136544 0.00418019 0)
(-0.133094 0.0152101 0)
(-0.130723 0.0253422 0)
(-0.0556443 -0.299165 0)
(-0.109625 -0.255319 0)
(-0.170858 -0.21534 0)
(-0.210039 -0.190796 0)
(-0.237524 -0.179542 0)
(-0.25317 -0.177299 0)
(-0.259098 -0.178889 0)
(-0.257339 -0.179959 0)
(-0.249786 -0.17793 0)
(-0.238085 -0.172089 0)
(-0.223779 -0.162551 0)
(-0.20833 -0.149503 0)
(-0.192974 -0.133353 0)
(-0.17863 -0.114993 0)
(-0.165893 -0.0956102 0)
(-0.155043 -0.076373 0)
(-0.146114 -0.0581297 0)
(-0.138941 -0.0413154 0)
(-0.133278 -0.0260361 0)
(-0.128797 -0.0121468 0)
(-0.125186 0.000602754 0)
(-0.122347 0.0122868 0)
(-0.120437 0.0229034 0)
(-0.047781 -0.227453 0)
(-0.0920613 -0.197508 0)
(-0.143632 -0.171364 0)
(-0.175748 -0.159114 0)
(-0.198676 -0.158655 0)
(-0.212336 -0.165957 0)
(-0.218262 -0.175744 0)
(-0.217732 -0.183443 0)
(-0.212141 -0.186392 0)
(-0.202897 -0.183935 0)
(-0.191439 -0.176265 0)
(-0.179081 -0.163766 0)
(-0.166832 -0.147115 0)
(-0.155387 -0.127525 0)
(-0.145196 -0.106495 0)
(-0.136503 -0.0854581 0)
(-0.129363 -0.0654763 0)
(-0.123677 -0.0471382 0)
(-0.119253 -0.0305907 0)
(-0.115811 -0.0156955 0)
(-0.113083 -0.00221911 0)
(-0.110964 0.0100009 0)
(-0.109606 0.0210086 0)
(-0.039914 -0.167602 0)
(-0.0752566 -0.149694 0)
(-0.117711 -0.135394 0)
(-0.143005 -0.1334 0)
(-0.160936 -0.141614 0)
(-0.171553 -0.15638 0)
(-0.176189 -0.172716 0)
(-0.175734 -0.185884 0)
(-0.171408 -0.192919 0)
(-0.164491 -0.193114 0)
(-0.156198 -0.186756 0)
(-0.147471 -0.17457 0)
(-0.13887 -0.157529 0)
(-0.13076 -0.137061 0)
(-0.12343 -0.114833 0)
(-0.117106 -0.0924343 0)
(-0.111901 -0.071085 0)
(-0.107773 -0.0515164 0)
(-0.10462 -0.0339447 0)
(-0.10226 -0.0182622 0)
(-0.10046 -0.00420012 0)
(-0.0991202 0.00843761 0)
(-0.0983614 0.0197336 0)
(-0.0318703 -0.119307 0)
(-0.0587481 -0.11146 0)
(-0.0922925 -0.107094 0)
(-0.11095 -0.113637 0)
(-0.123834 -0.128881 0)
(-0.131089 -0.149383 0)
(-0.133942 -0.170688 0)
(-0.133002 -0.187949 0)
(-0.129671 -0.197685 0)
(-0.125197 -0.19937 0)
(-0.12037 -0.193533 0)
(-0.11561 -0.181381 0)
(-0.110927 -0.164132 0)
(-0.106337 -0.143266 0)
(-0.101943 -0.120418 0)
(-0.0979368 -0.0972196 0)
(-0.094539 -0.0749758 0)
(-0.0918792 -0.054485 0)
(-0.0898932 -0.0361261 0)
(-0.0885199 -0.019829 0)
(-0.0875784 -0.00532582 0)
(-0.0869938 0.00761733 0)
(-0.0868285 0.0191027 0)
(-0.0235147 -0.0825726 0)
(-0.0422454 -0.0826379 0)
(-0.066947 -0.0863929 0)
(-0.0791169 -0.0997407 0)
(-0.0871796 -0.12039 0)
(-0.0914955 -0.144936 0)
(-0.0929822 -0.169759 0)
(-0.0916054 -0.189841 0)
(-0.0892852 -0.200683 0)
(-0.0873641 -0.202553 0)
(-0.0860469 -0.196488 0)
(-0.0852115 -0.184186 0)
(-0.0843793 -0.167013 0)
(-0.0832831 -0.146271 0)
(-0.0817898 -0.123414 0)
(-0.0800023 -0.0999797 0)
(-0.0781909 -0.0772982 0)
(-0.0766642 -0.0562716 0)
(-0.0755605 -0.037325 0)
(-0.0749487 -0.020527 0)
(-0.0747155 -0.00568077 0)
(-0.0747768 0.0074891 0)
(-0.075145 0.0190854 0)
(-0.0150236 -0.0574878 0)
(-0.0260158 -0.0629198 0)
(-0.042072 -0.0729636 0)
(-0.0481204 -0.0913297 0)
(-0.0517207 -0.115625 0)
(-0.0540362 -0.14225 0)
(-0.0553241 -0.169278 0)
(-0.0540826 -0.191363 0)
(-0.0530439 -0.201795 0)
(-0.0536677 -0.202672 0)
(-0.0555008 -0.195757 0)
(-0.0580899 -0.183153 0)
(-0.0606421 -0.166233 0)
(-0.0627055 -0.146077 0)
(-0.0638493 -0.123892 0)
(-0.0640219 -0.10096 0)
(-0.0634889 -0.0784353 0)
(-0.062705 -0.0572298 0)
(-0.0621188 -0.0378709 0)
(-0.0619177 -0.0206375 0)
(-0.0621192 -0.00544881 0)
(-0.0626405 0.00792916 0)
(-0.0634306 0.0195951 0)
(-0.00724615 -0.0437956 0)
(-0.0113355 -0.0518822 0)
(-0.0191384 -0.0664262 0)
(-0.019819 -0.0879155 0)
(-0.0192863 -0.113843 0)
(-0.0206314 -0.140046 0)
(-0.0232706 -0.168026 0)
(-0.0232448 -0.192024 0)
(-0.0240365 -0.201007 0)