/*--------------------------------*- C++ -*----------------------------------*\
| =========                 |                                                 |
| \\      /  F ield         | OpenFOAM: The Open Source CFD Toolbox           |
|  \\    /   O peration     | Version:  2312                                  |
|   \\  /    A nd           | Website:  www.openfoam.com                      |
|    \\/     M anipulation  |                                                 |
\*---------------------------------------------------------------------------*/
FoamFile
{
    version     2.0;
    format      ascii;
    arch        "LSB;label=32;scalar=64";
    class       surfaceScalarField;
    location    "5.25";
    object      phi;
}
// * * * * * * * * * * * * * * * * * * * * * * * * * * * * * * * * * * * * * //

dimensions      [0 3 -1 0 0 0 0];

oriented        oriented;

internalField   nonuniform List<scalar> 
4432
(
3.36995e-07
-3.36994e-07
2.21941e-07
1.15051e-07
7.74604e-08
1.44476e-07
-5.71409e-08
1.34597e-07
-1.92465e-07
1.3532e-07
-3.47294e-07
1.54827e-07
-5.25715e-07
1.78421e-07
-7.20642e-07
1.94927e-07
-9.46541e-07
2.259e-07
-1.16771e-06
2.21174e-07
-1.34908e-06
1.81371e-07
-1.48017e-06
1.31091e-07
-1.57073e-06
9.05582e-08
-1.63306e-06
6.23303e-08
-1.65618e-06
2.31165e-08
-1.64924e-06
-6.9401e-09
-1.62746e-06
-2.17807e-08
-1.5899e-06
-3.75675e-08
-1.52264e-06
-6.72621e-08
-1.40282e-06
-1.19826e-07
-1.21696e-06
-1.85861e-07
-8.94648e-07
-3.22318e-07
-8.94648e-07
-1.6344e-07
-1.7354e-07
-2.81506e-07
2.33125e-07
-4.0135e-07
2.64325e-07
-5.08154e-07
2.41404e-07
-6.12286e-07
2.39451e-07
-7.38057e-07
2.80595e-07
-8.90192e-07
3.3055e-07
-1.0547e-06
3.5943e-07
-1.26097e-06
4.32164e-07
-1.46622e-06
4.26423e-07
-1.62986e-06
3.45008e-07
-1.74062e-06
2.4184e-07
-1.80959e-06
1.59529e-07
-1.85312e-06
1.05864e-07
-1.85056e-06
2.05515e-08
-1.8125e-06
-4.50014e-08
-1.75792e-06
-7.63627e-08
-1.68519e-06
-1.10312e-07
-1.57453e-06
-1.77928e-07
-1.39393e-06
-3.00438e-07
-1.13526e-06
-4.44551e-07
-7.27386e-07
-7.30201e-07
-1.62205e-06
-3.57095e-07
1.83558e-07
-5.5157e-07
4.27603e-07
-6.91195e-07
4.0395e-07
-7.97044e-07
3.47251e-07
-8.90971e-07
3.33375e-07
-1.00726e-06
3.96876e-07
-1.15511e-06
4.78396e-07
-1.30357e-06
5.07886e-07
-1.51111e-06
6.397e-07
-1.71884e-06
6.34156e-07
-1.87762e-06
5.0378e-07
-1.977e-06
3.41218e-07
-2.03069e-06
2.13215e-07
-2.06462e-06
1.39796e-07
-2.03574e-06
-8.33067e-09
-1.96367e-06
-1.17072e-07
-1.87131e-06
-1.68731e-07
-1.75627e-06
-2.2535e-07
-1.58782e-06
-3.46386e-07
-1.32947e-06
-5.58786e-07
-1.00675e-06
-7.67274e-07
-5.61615e-07
-1.17534e-06
-2.18367e-06
-4.03585e-07
5.87168e-07
-6.40005e-07
6.64042e-07
-8.00189e-07
5.64146e-07
-9.10478e-07
4.57547e-07
-9.98405e-07
4.21304e-07
-1.11457e-06
5.13041e-07
-1.2807e-06
6.44515e-07
-1.39972e-06
6.26897e-07
-1.61776e-06
8.57728e-07
-1.83603e-06
8.52419e-07
-2.00261e-06
6.70353e-07
-2.10874e-06
4.47342e-07
-2.16444e-06
2.68916e-07
-2.21876e-06
1.94107e-07
-2.1794e-06
-4.76868e-08
-2.08901e-06
-2.07469e-07
-1.96194e-06
-2.95807e-07
-1.79108e-06
-3.96214e-07
-1.52562e-06
-6.1185e-07
-1.12666e-06
-9.57743e-07
-7.09065e-07
-1.18488e-06
-2.81027e-07
-1.60339e-06
-2.4647e-06
-2.95063e-07
8.82238e-07
-4.97798e-07
8.66783e-07
-6.34812e-07
7.01163e-07
-7.31684e-07
5.54418e-07
-8.11746e-07
5.01363e-07
-9.33028e-07
6.34321e-07
-1.11828e-06
8.29765e-07
-1.17642e-06
6.8504e-07
-1.38204e-06
1.06334e-06
-1.59792e-06
1.0683e-06
-1.78569e-06
8.58128e-07
-1.93836e-06
6.00007e-07
-2.05553e-06
3.86095e-07
-2.21947e-06
3.58042e-07
-2.29819e-06
3.10369e-08
-2.29645e-06
-2.09211e-07
-2.12796e-06
-4.64295e-07
-1.75739e-06
-7.66789e-07
-1.28359e-06
-1.08564e-06
-7.49705e-07
-1.49163e-06
-1.76165e-07
-1.75841e-06
2.38655e-07
-2.0182e-06
-2.22604e-06
-1.47565e-07
1.02982e-06
-2.32665e-07
9.51892e-07
-2.09295e-07
6.77797e-07
-1.12372e-07
4.57498e-07
3.92244e-09
3.85069e-07
2.56037e-08
6.12636e-07
-2.33127e-07
1.08849e-06
-7.12875e-07
1.16478e-06
-1.16901e-06
1.51946e-06
-1.49515e-06
1.39442e-06
-1.74698e-06
1.10995e-06
-2.01712e-06
8.70124e-07
-2.35599e-06
7.24959e-07
-2.51137e-06
5.13415e-07
-2.56557e-06
8.523e-08
-2.58344e-06
-1.91338e-07
-2.36313e-06
-6.84601e-07
-1.84829e-06
-1.28161e-06
-1.24904e-06
-1.68488e-06
-6.54879e-07
-2.08577e-06
-2.35199e-08
-2.38976e-06
3.25726e-07
-2.36744e-06
-1.90032e-06
-4.46529e-08
1.07447e-06
-8.10841e-08
9.88327e-07
-1.7526e-07
7.71974e-07
-1.85079e-07
4.67317e-07
6.97818e-09
1.93006e-07
4.2633e-07
1.93269e-07
9.73741e-07
5.41052e-07
1.1562e-06
9.82284e-07
1.3188e-06
1.35682e-06
1.32652e-06
1.38666e-06
8.07832e-07
1.6286e-06
-6.75251e-07
2.35317e-06
-2.75351e-06
2.80319e-06
-3.26094e-06
1.02083e-06
-2.92668e-06
-2.49041e-07
-2.40629e-06
-7.11721e-07
-1.97889e-06
-1.11199e-06
-1.79534e-06
-1.46513e-06
-1.73595e-06
-1.74424e-06
-1.693e-06
-2.12868e-06
-1.579e-06
-2.50374e-06
-9.62618e-07
-2.98382e-06
-2.86289e-06
2.60204e-07
8.14269e-07
7.63876e-07
4.84653e-07
1.49858e-06
3.72645e-08
2.47132e-06
-5.05428e-07
3.38528e-06
-7.20967e-07
3.24791e-06
3.3062e-07
1.47873e-06
2.3102e-06
-4.47371e-07
2.90835e-06
-1.12653e-06
2.03594e-06
-1.19239e-06
1.45249e-06
-1.17907e-06
1.61526e-06
-7.71037e-07
1.94512e-06
1.60081e-07
1.87205e-06
1.10106e-06
7.98394e-08
2.08054e-06
-1.22851e-06
3.19754e-06
-1.82872e-06
4.25434e-06
-2.16878e-06
5.02596e-06
-2.23674e-06
5.51581e-06
-2.23407e-06
5.422e-06
-2.03485e-06
4.54959e-06
-1.63132e-06
3.05651e-06
-1.49071e-06
1.93596e-07
1.07371e-07
-1.07383e-07
5.38781e-07
-4.31419e-07
9.28277e-07
-3.89503e-07
1.60405e-06
-6.75776e-07
2.36495e-06
-7.60905e-07
2.93029e-06
-5.65335e-07
3.20821e-06
-2.77925e-07
3.30646e-06
-9.82468e-08
3.22242e-06
8.40437e-08
2.79084e-06
4.31577e-07
2.27004e-06
5.20808e-07
1.95771e-06
3.12333e-07
1.50152e-06
4.56188e-07
3.97911e-07
1.10361e-06
-9.31615e-07
1.32953e-06
-2.63003e-06
1.69842e-06
-3.48371e-06
8.53692e-07
-2.27072e-06
-1.21298e-06
-2.27072e-06
1.18733e-06
-1.29473e-06
1.4603e-06
-7.0441e-07
1.63872e-06
-5.6795e-07
2.00224e-06
-1.03931e-06
2.38379e-06
-1.14247e-06
2.69564e-06
-8.77193e-07
2.97149e-06
-5.53792e-07
3.11493e-06
-2.41705e-07
3.36849e-06
-1.6953e-07
3.16513e-06
6.34932e-07
2.69816e-06
9.87768e-07
2.46058e-06
5.49912e-07
1.79748e-06
1.11928e-06
3.99173e-07
2.5019e-06
-1.28161e-06
3.0103e-06
-3.18235e-06
3.59917e-06
-4.21179e-06
1.88314e-06
-2.86076e-06
-2.56401e-06
-5.13146e-06
5.72576e-07
-1.86735e-06
1.20547e-06
-1.33735e-06
2.20883e-06
-1.57135e-06
2.35689e-06
-1.18739e-06
2.02135e-06
-8.06944e-07
1.75373e-06
-6.09579e-07
1.76255e-06
-5.6262e-07
1.89526e-06
-3.74418e-07
1.90675e-06
-1.81017e-07
2.75915e-06
-2.17465e-07
3.43131e-06
3.15625e-07
2.54935e-06
1.43189e-06
5.37265e-07
3.13138e-06
-1.40445e-06
4.44364e-06
-3.09362e-06
4.69948e-06
-3.34949e-06
3.85506e-06
-2.9844e-06
1.51806e-06
-1.7732e-06
-3.7752e-06
-6.90466e-06
-5.88697e-06
4.01939e-06
-3.44032e-06
-3.78419e-06
2.26394e-06
-7.27577e-06
4.95963e-06
-3.88321e-06
5.31468e-06
-1.16212e-06
4.01427e-06
6.90712e-07
2.83389e-06
6.17647e-07
1.89644e-06
5.62934e-07
1.45247e-06
2.62859e-07
6.50034e-06
-5.26541e-06
1.11549e-05
-4.33896e-06
8.2739e-06
4.31278e-06
2.59485e-06
8.8104e-06
-1.39773e-08
7.05243e-06
-1.55954e-06
6.24503e-06
-5.75633e-07
2.87115e-06
5.38384e-07
4.04042e-07
7.73986e-07
-4.0108e-06
-6.13068e-06
-4.74385e-06
8.76321e-06
1.76527e-07
-8.7046e-06
4.95596e-06
-1.20552e-05
8.08907e-06
-7.01632e-06
8.87298e-06
-1.94603e-06
6.10066e-06
3.46304e-06
1.58226e-06
5.13606e-06
3.63427e-07
1.78179e-06
3.07817e-06
-2.45185e-06
8.57818e-06
-1.07654e-05
1.44274e-05
-1.01881e-05
1.8327e-05
4.13259e-07
1.75308e-05
9.60663e-06
1.39954e-05
1.05879e-05
4.07297e-06
1.61675e-05
-7.6655e-07
7.7107e-06
1.98451e-06
-2.34699e-06
3.10712e-06
-5.13339e-06
-3.02354e-06
-5.62752e-07
9.32578e-06
4.77123e-06
-1.40387e-05
8.35894e-06
-1.5643e-05
1.10428e-05
-9.70027e-06
1.19652e-05
-2.86852e-06
1.12652e-05
4.16296e-06
8.38991e-06
8.01129e-06
6.66172e-06
3.50992e-06
8.27534e-06
-4.06554e-06
1.08977e-05
-1.33878e-05
1.39858e-05
-1.32763e-05
1.75615e-05
-3.16254e-06
1.8353e-05
8.81517e-06
1.52834e-05
1.36574e-05
7.73809e-06
2.37128e-05
3.08904e-06
1.23597e-05
6.88919e-06
-6.14716e-06
9.08303e-06
-7.32722e-06
6.05948e-06
5.8699e-06
3.45574e-06
9.23661e-06
-1.74055e-05
1.13902e-05
-1.77967e-05
1.36588e-05
-1.19689e-05
1.47904e-05
-4.00025e-06
1.45982e-05
4.35514e-06
1.4208e-05
8.40144e-06
1.34066e-05
4.31124e-06
1.37388e-05
-4.39789e-06
1.40085e-05
-1.36575e-05
1.45948e-05
-1.38627e-05
1.55015e-05
-4.06933e-06
1.48807e-05
9.43591e-06
1.11259e-05
1.74122e-05
4.78485e-06
3.00538e-05
3.94888e-06
1.31957e-05
5.44427e-06
-7.64256e-06
5.78162e-06
-7.66459e-06
1.18411e-05
1.53595e-05
-1.19039e-05
1.45774e-05
-1.66235e-05
1.40018e-05
-1.72211e-05
1.50352e-05
-1.30024e-05
1.60426e-05
-5.00773e-06
1.637e-05
4.02772e-06
1.6375e-05
8.3964e-06
1.58479e-05
4.8384e-06
1.54776e-05
-4.02762e-06
1.53691e-05
-1.3549e-05
1.40085e-05
-1.25021e-05
1.30055e-05
-3.06637e-06
1.05892e-05
1.18523e-05
6.20511e-06
2.17963e-05
1.94704e-06
3.43119e-05
4.02743e-06
1.11153e-05
4.74078e-06
-8.35591e-06
3.46259e-06
-6.38639e-06
1.53037e-05
8.94628e-07
-8.03682e-08
1.75621e-06
-3.76941e-07
2.1858e-06
-3.9234e-07
2.44485e-06
-7.64492e-07
2.74252e-06
-1.01866e-06
3.16993e-06
-9.68147e-08
4.01615e-06
1.46395e-06
4.3593e-06
2.56517e-06
4.21128e-06
2.18394e-06
3.86396e-06
1.79979e-06
3.48503e-06
1.99418e-06
3.44566e-06
1.98447e-06
4.19031e-06
1.1274e-06
5.04853e-06
-7.78367e-07
6.49993e-06
-2.6799e-06
8.48702e-06
-3.81579e-06
1.10535e-05
-4.73521e-06
1.35351e-05
-4.71837e-06
1.58903e-05
-4.58917e-06
1.77142e-05
-3.85878e-06
1.90341e-05
-2.95118e-06
2.02802e-05
-2.73677e-06
-2.56183e-06
2.30357e-05
2.09188e-06
-2.17226e-06
3.57417e-06
-1.85925e-06
4.82437e-06
-1.64256e-06
5.54343e-06
-1.48357e-06
5.34162e-06
-8.16869e-07
4.32984e-06
9.14941e-07
3.90644e-06
1.88734e-06
3.61511e-06
2.85648e-06
4.45089e-06
1.34815e-06
5.21638e-06
1.0343e-06
5.50332e-06
1.70724e-06
5.58118e-06
1.90661e-06
5.74441e-06
9.64189e-07
5.70171e-06
-7.35647e-07
5.98895e-06
-2.96711e-06
6.43378e-06
-4.26059e-06
7.6356e-06
-5.93701e-06
9.53418e-06
-6.61691e-06
1.19846e-05
-7.0396e-06
1.44957e-05
-6.3698e-06
1.64224e-05
-4.87794e-06
1.75278e-05
-3.84213e-06
-4.60664e-06
1.95727e-05
3.84155e-06
-6.01383e-06
7.5742e-06
-5.59192e-06
1.04095e-05
-4.47792e-06
1.21593e-05
-3.23341e-06
1.29818e-05
-1.63936e-06
1.3371e-05
5.25667e-07
1.46515e-05
6.06884e-07
1.60948e-05
1.41311e-06
1.63434e-05
1.09959e-06
1.44282e-05
2.94953e-06
1.15712e-05
4.56416e-06
9.16535e-06
4.31252e-06
6.86459e-06
3.26496e-06
4.75493e-06
1.37404e-06
3.34319e-06
-1.55533e-06
2.14937e-06
-3.06674e-06
1.63143e-06
-5.41903e-06
1.59281e-06
-6.57826e-06
2.53296e-06
-7.97973e-06
5.57655e-06
-9.41338e-06
9.9567e-06
-9.25805e-06
1.33079e-05
-7.19337e-06
-6.14506e-06
1.48464e-05
3.41089e-06
-9.42475e-06
7.92196e-06
-1.0103e-05
1.1818e-05
-8.37396e-06
1.43267e-05
-5.74214e-06
1.69097e-05
-4.22244e-06
2.1265e-05
-3.82967e-06
2.58611e-05
-3.98924e-06
2.9706e-05
-2.4318e-06
2.94014e-05
1.4042e-06
2.58911e-05
6.45986e-06
2.1772e-05
8.68321e-06
1.86152e-05
7.46934e-06
1.5414e-05
6.46618e-06
1.21276e-05
4.66048e-06
8.19652e-06
2.37572e-06
4.54564e-06
5.84153e-07
1.12431e-06
-1.9977e-06
-1.36484e-06
-4.08911e-06
-2.15306e-06
-7.19149e-06
-3.16588e-07
-1.12498e-05
4.62008e-06
-1.41947e-05
1.00171e-05
-1.25903e-05
-8.25918e-06
1.21313e-05
3.0065e-06
-1.24313e-05
5.72528e-06
-1.28218e-05
8.52657e-06
-1.11753e-05
1.11849e-05
-8.40054e-06
1.41011e-05
-7.13859e-06
1.69686e-05
-6.69719e-06
1.87592e-05
-5.77982e-06
1.94213e-05
-3.09391e-06
1.92985e-05
1.52701e-06
2.03787e-05
5.37966e-06
2.13718e-05
7.69011e-06
2.1592e-05
7.24912e-06
2.09777e-05
7.08041e-06
1.88679e-05
6.77017e-06
1.53762e-05
5.8674e-06
1.14506e-05
4.5097e-06
7.05408e-06
2.39879e-06
3.19499e-06
-2.3003e-07
-4.42103e-07
-3.55441e-06
-3.10507e-06
-8.58684e-06
-2.63462e-06
-1.46651e-05
6.9577e-07
-1.59206e-05
-1.25159e-05
4.95265e-06
2.74922e-06
-1.51805e-05
4.8007e-06
-1.48733e-05
7.09599e-06
-1.34706e-05
1.02126e-05
-1.15172e-05
1.31338e-05
-1.00598e-05
1.51404e-05
-8.70378e-06
1.61867e-05
-6.82617e-06
1.72039e-05
-4.11114e-06
1.93967e-05
-6.65789e-07
2.19929e-05
2.78352e-06
2.38154e-05
5.86761e-06
2.34553e-05
7.60914e-06
2.15898e-05
8.9458e-06
1.85671e-05
9.79279e-06
1.48069e-05
9.62744e-06
1.08983e-05
8.41825e-06
7.07628e-06
6.22082e-06
3.50383e-06
3.3424e-06
2.49978e-07
-3.00545e-07
-3.67975e-06
-4.65705e-06
-5.95316e-06
-1.23915e-05
-4.93208e-06
-1.69416e-05
-1.67156e-05
-7.32257e-07
2.95062e-06
-1.81311e-05
5.6153e-06
-1.7538e-05
8.74551e-06
-1.66008e-05
1.24019e-05
-1.51736e-05
1.5743e-05
-1.34009e-05
1.84026e-05
-1.13633e-05
2.04301e-05
-8.8537e-06
2.2431e-05
-6.11207e-06
2.43732e-05
-2.60793e-06
2.63981e-05
7.58537e-07
2.71106e-05
5.15515e-06
2.60586e-05
8.6611e-06
2.32989e-05
1.17055e-05
1.92085e-05
1.38831e-05
1.48387e-05
1.39972e-05
1.08531e-05
1.24038e-05
7.33828e-06
9.73569e-06
4.41326e-06
6.26743e-06
2.33133e-06
1.7814e-06
-1.00773e-06
-1.31793e-06
-4.76758e-06
-8.63169e-06
-6.03618e-06
-1.56729e-05
-1.99879e-05
-2.76381e-06
2.77606e-06
-2.09068e-05
5.69791e-06
-2.04594e-05
9.09979e-06
-2.00022e-05
1.29657e-05
-1.90391e-05
1.65209e-05
-1.69558e-05
1.95043e-05
-1.43465e-05
2.1574e-05
-1.09232e-05
2.43988e-05
-8.93678e-06
2.72732e-05
-5.48233e-06
2.97189e-05
-1.6871e-06
3.06245e-05
4.24955e-06
2.92767e-05
1.00089e-05
2.61343e-05
1.48479e-05
2.17508e-05
1.82666e-05
1.74719e-05
1.82761e-05
1.43915e-05
1.54843e-05
1.18345e-05
1.22927e-05
9.19511e-06
8.90685e-06
7.41607e-06
3.56044e-06
5.47999e-06
6.1814e-07
2.54273e-07
-3.40598e-06
-3.43948e-06
-1.19791e-05
-2.17115e-05
-1.7159e-06
4.27713e-06
-2.51829e-05
8.57186e-06
-2.4753e-05
9.96331e-06
-2.13927e-05
1.33193e-05
-2.23944e-05
1.40695e-05
-1.77056e-05
1.10185e-05
-1.12952e-05
6.2195e-06
-6.12414e-06
9.49309e-06
-1.22105e-05
2.05328e-05
-1.65222e-05
2.91271e-05
-1.02817e-05
2.92564e-05
4.11974e-06
1.94358e-05
1.98292e-05
1.0854e-05
2.34293e-05
8.90766e-06
2.02127e-05
4.09337e-06
2.30904e-05
3.67482e-07
1.92101e-05
-2.38584e-06
1.50459e-05
-3.38256e-06
9.90352e-06
-8.87455e-07
1.06533e-06
4.93923e-06
-5.20849e-06
3.6347e-06
-2.10123e-06
-1.99409e-06
-6.35021e-06
-2.18389e-05
-1.8664e-06
3.82465e-07
-2.55639e-05
6.35676e-07
-2.50051e-05
1.72075e-06
-2.24769e-05
1.38225e-06
-2.20552e-05
1.2349e-06
-1.75577e-05
2.97037e-06
-1.30304e-05
8.0271e-06
-1.11809e-05
9.31883e-06
-1.35024e-05
7.31608e-06
-1.45201e-05
6.84988e-06
-9.81652e-06
9.87111e-06
1.09738e-06
1.49768e-05
1.47223e-05
1.46986e-05
2.37062e-05
1.67829e-05
1.81277e-05
1.91906e-05
2.06821e-05
1.29337e-06
3.71062e-05
-1.88025e-05
3.5141e-05
-1.76431e-05
8.74377e-06
-1.86643e-05
2.08639e-06
-2.25863e-05
-1.28618e-06
-2.13055e-05
-3.38168e-06
-1.52049e-05
-1.24505e-05
-2.29873e-05
-1.40553e-05
-1.17397e-06
-2.43892e-05
-2.099e-06
-2.40792e-05
-2.31161e-06
-2.22634e-05
-3.37528e-06
-2.09908e-05
-2.77791e-06
-1.81545e-05
-3.14074e-07
-1.54939e-05
2.6033e-06
-1.40982e-05
3.31098e-06
-1.42103e-05
1.94513e-06
-1.31547e-05
2.56737e-06
-1.04395e-05
7.90445e-06
-4.24067e-06
1.78145e-05
4.81116e-06
2.90059e-05
1.25135e-05
3.20635e-05
1.50687e-05
3.1194e-05
2.15504e-05
4.06484e-05
2.7651e-05
4.95491e-05
2.62395e-05
4.46457e-05
1.36464e-05
4.6114e-05
6.17997e-07
5.21847e-05
-7.35645e-06
6.51898e-05
-1.63861e-05
7.45419e-05
-2.18009e-05
-2.68927e-05
7.84475e-05
-1.41765e-06
-2.29708e-05
-2.49334e-06
-2.30029e-05
-3.25091e-06
-2.15053e-05
-4.229e-06
-2.00122e-05
-4.30443e-06
-1.80788e-05
-3.52204e-06
-1.62761e-05
-2.4688e-06
-1.51515e-05
-2.26824e-06
-1.4411e-05
-2.46383e-06
-1.29594e-05
-1.03746e-06
-1.18663e-05
2.89239e-06
-8.17103e-06
9.68538e-06
-1.9825e-06
1.87836e-05
3.41444e-06
2.86073e-05
5.24417e-06
4.07855e-05
9.3714e-06
5.61184e-05
1.23177e-05
7.05562e-05
1.18012e-05
8.04546e-05
3.74757e-06
8.69922e-05
-5.91985e-06
9.47542e-05
-1.51181e-05
0.000101149
-2.27803e-05
0.000107283
-2.79354e-05
-3.15402e-05
0.00011193
-1.50094e-06
-2.14697e-05
-2.80168e-06
-2.17019e-05
-3.96693e-06
-2.03398e-05
-5.06465e-06
-1.89143e-05
-5.65326e-06
-1.74901e-05
-5.70511e-06
-1.62243e-05
-5.58065e-06
-1.5276e-05
-5.5927e-06
-1.43992e-05
-5.34937e-06
-1.3203e-05
-4.71941e-06
-1.24965e-05
-2.98258e-06
-9.90819e-06
5.54071e-07
-5.51955e-06
6.1886e-06
-2.22055e-06
1.45456e-05
-3.1134e-06
2.65097e-05
-2.59324e-06
4.01907e-05
-1.36379e-06
5.39108e-05
-1.91946e-06
6.42408e-05
-6.58284e-06
7.20628e-05
-1.3742e-05
7.82007e-05
-2.12561e-05
8.259e-05
-2.71701e-05
8.55441e-05
-3.0889e-05
-3.35069e-05
8.75096e-05
-1.49116e-06
-1.99784e-05
-2.9034e-06
-2.02896e-05
-4.22624e-06
-1.9017e-05
-5.37505e-06
-1.77655e-05
-6.18674e-06
-1.66784e-05
-6.65041e-06
-1.57607e-05
-6.92656e-06
-1.5e-05
-7.07541e-06
-1.42505e-05
-6.89409e-06
-1.33845e-05
-6.90376e-06
-1.24871e-05
-6.1101e-06
-1.07021e-05
-3.65e-06
-7.97988e-06
3.97814e-07
-6.26861e-06
4.62311e-06
-7.33896e-06
1.04643e-05
-8.43467e-06
1.72384e-05
-8.13814e-06
2.43169e-05
-8.99831e-06
3.03976e-05
-1.26639e-05
3.5429e-05
-1.87737e-05
4.00556e-05
-2.58829e-05
4.37912e-05
-3.09058e-05
4.61573e-05
-3.32562e-05
-3.488e-05
4.75291e-05
-1.43069e-06
-1.85478e-05
-2.83e-06
-1.88904e-05
-4.09857e-06
-1.77485e-05
-5.16665e-06
-1.66975e-05
-5.99317e-06
-1.5852e-05
-6.58997e-06
-1.51641e-05
-7.01595e-06
-1.45742e-05
-7.28776e-06
-1.39789e-05
-7.36603e-06
-1.33065e-05
-7.36405e-06
-1.24893e-05
-6.81019e-06
-1.12561e-05
-4.99766e-06
-9.79261e-06
-2.24094e-06
-9.0255e-06
-1.08312e-07
-9.47176e-06
2.02663e-06
-1.05698e-05
4.47868e-06
-1.05904e-05
7.17215e-06
-1.1692e-05
9.70045e-06
-1.51925e-05
1.15764e-05
-2.06499e-05
1.27861e-05
-2.70928e-05
1.33194e-05
-3.14397e-05
1.32777e-05
-3.32146e-05
-3.44014e-05
1.27978e-05
-1.33609e-06
-1.72119e-05
-2.64718e-06
-1.75795e-05
-3.77896e-06
-1.66168e-05
-4.70455e-06
-1.57721e-05
-5.43763e-06
-1.51191e-05
-6.00208e-06
-1.45998e-05
-6.43242e-06
-1.4144e-05
-6.73887e-06
-1.36726e-05
-6.91154e-06
-1.3134e-05
-6.9275e-06
-1.24735e-05
-6.55573e-06
-1.16281e-05
-5.56703e-06
-1.07815e-05
-4.24513e-06
-1.03476e-05
-3.21065e-06
-1.05064e-05
-2.88403e-06
-1.08966e-05
-2.42395e-06
-1.10507e-05
-2.06314e-06
-1.2053e-05
-2.27548e-06
-1.49804e-05
-3.49059e-06
-1.9435e-05
-5.8917e-06
-2.46918e-05
-8.58991e-06
-2.87417e-05
-1.0124e-05
-3.16813e-05
-3.216e-05
-1.23665e-05
-1.25355e-06
-1.59586e-05
-2.47331e-06
-1.63599e-05
-3.48546e-06
-1.56049e-05
-4.28747e-06
-1.49702e-05
-4.91383e-06
-1.44929e-05
-5.40118e-06
-1.41126e-05
-5.78095e-06
-1.37644e-05
-6.06583e-06
-1.33879e-05
-6.24974e-06
-1.29503e-05
-6.29512e-06
-1.24283e-05
-6.09817e-06
-1.18253e-05
-5.61793e-06
-1.12619e-05
-5.04128e-06
-1.09244e-05
-4.67888e-06
-1.0869e-05
-4.65754e-06
-1.09181e-05
-4.73175e-06
-1.09767e-05
-5.23551e-06
-1.15495e-05
-6.95911e-06
-1.3257e-05
-1.03468e-05
-1.60476e-05
-1.50719e-05
-1.99668e-05
-1.89519e-05
-2.48622e-05
-2.13509e-05
-2.92825e-05
-2.87201e-05
-2.47919e-05
-1.20312e-06
-1.47556e-05
-2.36757e-06
-1.51957e-05
-3.31487e-06
-1.46577e-05
-4.04856e-06
-1.42367e-05
-4.60787e-06
-1.39337e-05
-5.03371e-06
-1.36869e-05
-5.36057e-06
-1.34377e-05
-5.6061e-06
-1.31425e-05
-5.77181e-06
-1.27847e-05
-5.83534e-06
-1.2365e-05
-5.75315e-06
-1.19076e-05
-5.5287e-06
-1.14866e-05
-5.26305e-06
-1.11903e-05
-5.09362e-06
-1.10386e-05
-5.04951e-06
-1.09624e-05
-5.07495e-06
-1.09514e-05
-5.44017e-06
-1.11845e-05
-6.90993e-06
-1.17875e-05
-1.00779e-05
-1.28797e-05
-1.50359e-05
-1.5009e-05
-2.00248e-05
-1.98735e-05
-2.41248e-05
-2.51831e-05
-2.37347e-05
-2.9111e-05
-1.19031e-06
-1.35655e-05
-2.33589e-06
-1.40502e-05
-3.26256e-06
-1.37312e-05
-3.97343e-06
-1.3526e-05
-4.50418e-06
-1.34031e-05
-4.89442e-06
-1.32968e-05
-5.1811e-06
-1.31511e-05
-5.38971e-06
-1.29341e-05
-5.53244e-06
-1.26421e-05
-5.60496e-06
-1.22926e-05
-5.59372e-06
-1.1919e-05
-5.5078e-06
-1.15726e-05
-5.39659e-06
-1.13016e-05
-5.31922e-06
-1.11162e-05
-5.28923e-06
-1.09926e-05
-5.30973e-06
-1.09311e-05
-5.52419e-06
-1.09702e-05
-6.22518e-06
-1.10867e-05
-7.84936e-06
-1.12558e-05
-1.08525e-05
-1.20059e-05
-1.60163e-05
-1.471e-05
-2.21655e-05
-1.9034e-05
-1.78669e-05
-2.80342e-05
-1.20147e-06
-1.23641e-05
-2.35347e-06
-1.28983e-05
-3.28555e-06
-1.27992e-05
-3.99713e-06
-1.28145e-05
-4.51765e-06
-1.28827e-05
-4.88542e-06
-1.29291e-05
-5.141e-06
-1.28956e-05
-5.31847e-06
-1.27567e-05
-5.44116e-06
-1.25195e-05
-5.51927e-06
-1.22146e-05
-5.55507e-06
-1.18833e-05
-5.55816e-06
-1.15697e-05
-5.55242e-06
-1.13075e-05
-5.56171e-06
-1.1107e-05
-5.59447e-06
-1.096e-05
-5.66177e-06
-1.0864e-05
-5.82078e-06
-1.08114e-05
-6.16934e-06
-1.07383e-05
-6.87328e-06
-1.0552e-05
-8.397e-06
-1.04823e-05
-1.18997e-05
-1.12074e-05
-1.82497e-05
-1.26845e-05
-1.21791e-05
-2.39382e-05
-1.22963e-06
-1.11345e-05
-2.40192e-06
-1.17261e-05
-3.34916e-06
-1.18521e-05
-4.06728e-06
-1.20964e-05
-4.58034e-06
-1.23697e-05
-4.92711e-06
-1.25824e-05
-5.1535e-06
-1.26693e-05
-5.30278e-06
-1.26075e-05
-5.40834e-06
-1.24141e-05
-5.49086e-06
-1.21322e-05
-5.56163e-06
-1.18126e-05
-5.63036e-06
-1.1501e-05
-5.70919e-06
-1.12288e-05
-5.80805e-06
-1.10083e-05
-5.93074e-06
-1.08374e-05
-6.0847e-06
-1.07101e-05
-6.29427e-06
-1.06019e-05
-6.58824e-06
-1.04445e-05
-7.01769e-06
-1.01227e-05
-7.83645e-06
-9.66355e-06
-9.82558e-06
-9.21851e-06
-1.3807e-05
-8.7031e-06
-7.7201e-06
-1.82667e-05
-1.26484e-06
-9.86973e-06
-2.46454e-06
-1.05265e-05
-3.43039e-06
-1.08862e-05
-4.15411e-06
-1.13727e-05
-4.65668e-06
-1.18672e-05
-4.97959e-06
-1.22595e-05
-5.17599e-06
-1.2473e-05
-5.29818e-06
-1.24853e-05
-5.38831e-06
-1.2324e-05
-5.47471e-06
-1.20458e-05
-5.57336e-06
-1.1714e-05
-5.69378e-06
-1.13807e-05
-5.84325e-06
-1.10794e-05
-6.02658e-06
-1.08251e-05
-6.24548e-06
-1.06186e-05
-6.50384e-06
-1.04519e-05
-6.80772e-06
-1.02982e-05
-7.15668e-06
-1.00957e-05
-7.54476e-06
-9.73467e-06
-8.0859e-06
-9.12242e-06
-9.06731e-06
-8.23709e-06
-1.08113e-05
-6.95943e-06
-5.30712e-06
-1.32247e-05
-1.30496e-06
-8.56475e-06
-2.53483e-06
-9.29657e-06
-3.51789e-06
-9.90318e-06
-4.24341e-06
-1.06472e-05
-4.73106e-06
-1.13795e-05
-5.02721e-06
-1.19634e-05
-5.19261e-06
-1.23076e-05
-5.28735e-06
-1.23906e-05
-5.36136e-06
-1.225e-05
-5.44893e-06
-1.19583e-05
-5.56917e-06
-1.15938e-05
-5.73093e-06
-1.1219e-05
-5.93805e-06
-1.08723e-05
-6.19231e-06
-1.05709e-05
-6.49511e-06
-1.03159e-05
-6.84902e-06
-1.00981e-05
-7.25114e-06
-9.89612e-06
-7.69108e-06
-9.6558e-06
-8.13567e-06
-9.29013e-06
-8.57026e-06
-8.6878e-06
-9.07099e-06
-7.73644e-06
-9.63104e-06
-6.39922e-06
-4.60715e-06
-1.03315e-05
-1.34529e-06
-7.21936e-06
-2.60543e-06
-8.03635e-06
-3.60465e-06
-8.90392e-06
-4.32825e-06
-9.9236e-06
-4.79797e-06
-1.09098e-05
-5.06641e-06
-1.1695e-05
-5.20124e-06
-1.21728e-05
-5.26772e-06
-1.23242e-05
-5.32156e-06
-1.21962e-05
-5.403e-06
-1.18769e-05
-5.53461e-06
-1.14623e-05
-5.72529e-06
-1.10283e-05
-5.97598e-06
-1.06217e-05
-6.28474e-06
-1.02621e-05
-6.65049e-06
-9.95018e-06
-7.07323e-06
-9.67536e-06
-7.55183e-06
-9.41757e-06
-8.0697e-06
-9.13797e-06
-8.5914e-06
-8.76848e-06
-9.05957e-06
-8.21957e-06
-9.39627e-06
-7.39967e-06
-9.55266e-06
-6.24314e-06
-4.6902e-06
-9.46985e-06
-1.38664e-06
-5.83262e-06
-2.67616e-06
-6.74674e-06
-3.68861e-06
-7.89138e-06
-4.40748e-06
-9.20468e-06
-4.85817e-06
-1.04591e-05
-5.1019e-06
-1.14512e-05
-5.21044e-06
-1.20642e-05
-5.24932e-06
-1.22853e-05
-5.27795e-06
-1.21675e-05
-5.34229e-06
-1.18125e-05
-5.46986e-06
-1.13347e-05
-5.67205e-06
-1.08261e-05
-5.9489e-06
-1.03448e-05
-6.29455e-06
-9.91652e-06
-6.70266e-06
-9.5421e-06
-7.16891e-06
-9.20914e-06
-7.68935e-06
-8.89716e-06
-8.25199e-06
-8.57537e-06
-8.82428e-06
-8.1962e-06
-9.34969e-06
-7.69413e-06
-9.73811e-06
-7.01137e-06
-9.8841e-06
-6.09696e-06
-4.88253e-06
-9.69222e-06
-1.42783e-06
-4.40461e-06
-2.74701e-06
-5.42741e-06
-3.77204e-06
-6.86624e-06
-4.48519e-06
-8.49145e-06
-4.91828e-06
-1.00259e-05
-5.14464e-06
-1.12248e-05
-5.23523e-06
-1.19736e-05
-5.25037e-06
-1.22701e-05
-5.25055e-06
-1.21673e-05
-5.28655e-06
-1.17765e-05
-5.39185e-06
-1.12294e-05
-5.58332e-06
-1.06346e-05
-5.86349e-06
-1.00647e-05
-6.2247e-06
-9.55533e-06
-6.65478e-06
-9.11204e-06
-7.14316e-06
-8.72077e-06
-7.68074e-06
-8.3596e-06
-8.25583e-06
-8.0003e-06
-8.84392e-06
-7.60814e-06
-9.40403e-06
-7.13399e-06
-9.86942e-06
-6.5459e-06
-1.01436e-05
-5.8231e-06
-4.89042e-06
-1.01358e-05
-1.47317e-06
-2.93132e-06
-2.82363e-06
-4.0768e-06
-3.86223e-06
-5.82751e-06
-4.56909e-06
-7.78448e-06
-4.98747e-06
-9.60743e-06
-5.20609e-06
-1.10061e-05
-5.28874e-06
-1.18909e-05
-5.28603e-06
-1.22728e-05
-5.25818e-06
-1.21951e-05
-5.25842e-06
-1.17762e-05
-5.32498e-06
-1.11628e-05
-5.48242e-06
-1.04772e-05
-5.74007e-06
-9.807e-06
-6.09227e-06
-9.20312e-06
-6.52364e-06
-8.68067e-06
-7.01682e-06
-8.22759e-06
-7.5564e-06
-7.82004e-06
-8.12683e-06
-7.42989e-06
-8.70848e-06
-7.02649e-06
-9.26812e-06
-6.57435e-06
-9.76302e-06
-6.05108e-06
-1.01395e-05
-5.44637e-06
-4.70749e-06
-1.03227e-05
-1.5256e-06
-1.40546e-06
-2.91244e-06
-2.68975e-06
-3.96745e-06
-4.77235e-06
-4.66746e-06
-7.08434e-06
-5.07276e-06
-9.20202e-06
-5.29313e-06
-1.07856e-05
-5.3737e-06
-1.18102e-05
-5.35764e-06
-1.22888e-05
-5.30601e-06
-1.22467e-05
-5.27017e-06
-1.1812e-05
-5.28898e-06
-1.1144e-05
-5.39346e-06
-1.03727e-05
-5.60318e-06
-9.59728e-06
-5.92025e-06
-8.88605e-06
-6.33032e-06
-8.2706e-06
-6.81084e-06
-7.74707e-06
-7.34002e-06
-7.29087e-06
-7.89807e-06
-6.87185e-06
-8.46457e-06
-6.46003e-06
-9.01279e-06
-6.02609e-06
-9.5099e-06
-5.55388e-06
-9.92138e-06
-5.03527e-06
-4.43963e-06
-1.01893e-05
-1.59027e-06
1.84976e-07
-3.01709e-06
-1.26275e-06
-4.08848e-06
-3.70079e-06
-4.77874e-06
-6.39394e-06
-5.17546e-06
-8.80519e-06
-5.40498e-06
-1.0556e-05
-5.47665e-06
-1.17385e-05
-5.4468e-06
-1.23186e-05
-5.37836e-06
-1.23151e-05
-5.31472e-06
-1.18756e-05
-5.28822e-06
-1.11704e-05
-5.33154e-06
-1.03293e-05
-5.47447e-06
-9.45433e-06
-5.73171e-06
-8.6288e-06
-6.09694e-06
-7.90536e-06
-6.54656e-06
-7.29745e-06
-7.05329e-06
-6.78414e-06
-7.5923e-06
-6.33285e-06
-8.14072e-06
-5.9116e-06
-8.67242e-06
-5.4944e-06
-9.16439e-06
-5.06203e-06
-9.58303e-06
-4.61634e-06
-4.14062e-06
-9.88236e-06
-1.6546e-06
1.83984e-06
-3.12225e-06
2.051e-07
-4.19645e-06
-2.62643e-06
-4.87826e-06
-5.71199e-06
-5.29678e-06
-8.38655e-06
-5.5203e-06
-1.03324e-05
-5.56333e-06
-1.16954e-05
-5.51563e-06
-1.23662e-05
-5.43968e-06
-1.2391e-05
-5.36411e-06
-1.19511e-05
-5.30743e-06
-1.12271e-05
-5.29603e-06
-1.03407e-05
-5.36522e-06
-9.38512e-06
-5.54489e-06
-8.44913e-06
-5.84274e-06
-7.6075e-06
-6.24237e-06
-6.89783e-06
-6.71308e-06
-6.31343e-06
-7.22522e-06
-5.82071e-06
-7.7515e-06
-5.38533e-06
-8.26895e-06
-4.97693e-06
-8.75044e-06
-4.58042e-06
-9.16652e-06
-4.20057e-06
-3.8207e-06
-9.48631e-06
-1.69081e-06
3.53075e-06
-3.19179e-06
1.70624e-06
-4.2453e-06
-1.57277e-06
-4.94046e-06
-5.0167e-06
-5.39569e-06
-7.9312e-06
-5.58391e-06
-1.01441e-05
-5.57981e-06
-1.16994e-05
-5.51406e-06
-1.24319e-05
-5.44294e-06
-1.2462e-05
-5.37597e-06
-1.20181e-05
-5.31377e-06
-1.12893e-05
-5.26922e-06
-1.03852e-05
-5.27416e-06
-9.38018e-06
-5.36956e-06
-8.35374e-06
-5.58312e-06
-7.39394e-06
-5.91355e-06
-6.56741e-06
-6.33369e-06
-5.8933e-06
-6.80866e-06
-5.34575e-06
-7.30867e-06
-4.88531e-06
-7.80616e-06
-4.47942e-06
-8.27617e-06
-4.11046e-06
-8.69307e-06
-3.78328e-06
-3.48863e-06
-9.02523e-06
-1.64084e-06
5.17182e-06
-3.16277e-06
3.22833e-06
-4.20353e-06
-5.31875e-07
-4.92657e-06
-4.29354e-06
-5.39245e-06
-7.46523e-06
-5.52012e-06
-1.00163e-05
-5.46769e-06
-1.17518e-05
-5.39404e-06
-1.25055e-05
-5.34293e-06
-1.25131e-05
-5.30578e-06
-1.20552e-05
-5.26609e-06
-1.13289e-05
-5.21939e-06
-1.04319e-05
-5.18536e-06
-9.41421e-06
-5.2061e-06
-8.33302e-06
-5.32759e-06
-7.27247e-06
-5.57189e-06
-6.32313e-06
-5.92541e-06
-5.5398e-06
-6.35248e-06
-4.91869e-06
-6.81767e-06
-4.42013e-06
-7.29084e-06
-4.00621e-06
-7.74568e-06
-3.6555e-06
-8.16004e-06
-3.36925e-06
-3.14816e-06
-8.50037e-06
-1.52037e-06
6.69225e-06
-2.9932e-06
4.70125e-06
-4.04973e-06
5.24756e-07
-4.78642e-06
-3.55676e-06
-5.21513e-06
-7.03645e-06
-5.26893e-06
-9.96246e-06
-5.18402e-06
-1.18366e-05
-5.12063e-06
-1.25688e-05
-5.10653e-06
-1.25272e-05
-5.11886e-06
-1.20429e-05
-5.12707e-06
-1.13207e-05
-5.11071e-06
-1.04483e-05
-5.07247e-06
-9.45249e-06
-5.04425e-06
-8.36128e-06
-5.08001e-06
-7.23675e-06
-5.22724e-06
-6.17595e-06
-5.49769e-06
-5.26938e-06
-5.86355e-06
-4.55287e-06
-6.28471e-06
-3.99898e-06
-6.72659e-06
-3.56437e-06
-7.16187e-06
-3.22036e-06
-7.56656e-06
-2.96425e-06
-2.80109e-06
-7.91385e-06
-1.35429e-06
8.04669e-06
-2.71024e-06
6.05729e-06
-3.75749e-06
1.57207e-06
-4.46817e-06
-2.84603e-06
-4.81569e-06
-6.68888e-06
-4.79941e-06
-9.97872e-06
-4.70522e-06
-1.19308e-05
-4.6744e-06
-1.25997e-05
-4.71558e-06
-1.2486e-05
-4.79413e-06
-1.19643e-05
-4.87017e-06
-1.12447e-05
-4.91142e-06
-1.04071e-05
-4.90442e-06
-9.45954e-06
-4.8639e-06
-8.40186e-06
-4.83697e-06
-7.26374e-06
-4.88768e-06
-6.12531e-06
-5.0602e-06
-5.09692e-06
-5.34947e-06
-4.26366e-06
-5.71611e-06
-3.63241e-06
-6.12009e-06
-3.16042e-06
-6.52874e-06
-2.81167e-06
-6.91836e-06
-2.575e-06
-2.45837e-06
-7.26097e-06
-1.1258e-06
9.17244e-06
-2.31907e-06
7.25057e-06
-3.27801e-06
2.53104e-06
-3.93074e-06
-2.19327e-06
-4.17029e-06
-6.44932e-06
-4.09829e-06
-1.00507e-05
-4.02563e-06
-1.20035e-05
-4.05461e-06
-1.25707e-05
-4.17124e-06
-1.23694e-05
-4.3292e-06
-1.18064e-05
-4.48441e-06
-1.10896e-05
-4.60046e-06
-1.02911e-05
-4.6529e-06
-9.40718e-06
-4.63863e-06
-8.41623e-06
-4.58563e-06
-7.31683e-06
-4.55755e-06
-6.15349e-06
-4.62505e-06
-5.02951e-06
-4.82153e-06
-4.06726e-06
-5.12029e-06
-3.33372e-06
-5.47567e-06
-2.80513e-06
-5.85096e-06
-2.43654e-06
-6.21737e-06
-2.20835e-06
-2.12164e-06
-6.55429e-06
-8.39869e-07
1.00124e-05
-1.83332e-06
8.24405e-06
-2.64029e-06
3.33802e-06
-3.16912e-06
-1.66445e-06
-3.27899e-06
-6.33947e-06
-3.17938e-06
-1.01504e-05
-3.16818e-06
-1.20147e-05
-3.28854e-06
-1.24504e-05
-3.49971e-06
-1.21583e-05
-3.74399e-06
-1.15622e-05
-3.97893e-06
-1.08547e-05
-4.17246e-06
-1.00977e-05
-4.29792e-06
-9.28183e-06
-4.33917e-06
-8.37509e-06
-4.30265e-06
-7.35345e-06
-4.23139e-06
-6.22486e-06
-4.20376e-06
-5.05725e-06
-4.29302e-06
-3.9781e-06
-4.50868e-06
-3.11818e-06
-4.80655e-06
-2.50734e-06
-5.14017e-06
-2.10296e-06
-5.47744e-06
-1.87152e-06
-1.80448e-06
-5.79461e-06