/*--------------------------------*- C++ -*----------------------------------*\
| =========                 |                                                 |
| \\      /  F ield         | OpenFOAM: The Open Source CFD Toolbox           |
|  \\    /   O peration     | Version:  2312                                  |
|   \\  /    A nd           | Website:  www.openfoam.com                      |
|    \\/     M anipulation  |                                                 |
\*---------------------------------------------------------------------------*/
FoamFile
{
    version     2.0;
    format      ascii;
    arch        "LSB;label=32;scalar=64";
    class       volVectorField;
    location    "5.25";
    object      U;
}
// * * * * * * * * * * * * * * * * * * * * * * * * * * * * * * * * * * * * * //

dimensions      [0 1 -1 0 0 0 0];

internalField   nonuniform List<vector> 
2268
(
(0.00400784 -0.00220077 0)
(0.00334271 0.000402377 0)
(0.00139636 0.000640098 0)
(-0.000317192 0.000596828 0)
(-0.00190942 0.000559082 0)
(-0.00355981 0.000581801 0)
(-0.00543802 0.000624388 0)
(-0.00751852 0.000655611 0)
(-0.0098904 0.000729621 0)
(-0.0124087 0.000695166 0)
(-0.0146298 0.000552796 0)
(-0.0163254 0.000389972 0)
(-0.0175284 0.000258655 0)
(-0.0183652 0.000172548 0)
(-0.0188201 6.41195e-05 0)
(-0.0188798 -1.83036e-05 0)
(-0.0186853 -5.13337e-05 0)
(-0.0183345 -7.5094e-05 0)
(-0.017759 -0.000122334 0)
(-0.0167845 -0.000239003 0)
(-0.0151631 -0.000448541 0)
(-0.0121925 -0.000969905 0)
(-0.00784932 -0.00318253 0)
(-0.00210619 -0.00143862 0)
(-0.00242347 0.00102969 0)
(-0.00439566 0.00113989 0)
(-0.00573579 0.00105316 0)
(-0.0069474 0.00104958 0)
(-0.00823544 0.00120106 0)
(-0.00977661 0.00138683 0)
(-0.0115126 0.00150061 0)
(-0.0135937 0.00174434 0)
(-0.0159113 0.00170997 0)
(-0.0179393 0.00140687 0)
(-0.0194139 0.00102146 0)
(-0.0203754 0.000707256 0)
(-0.0209786 0.000495337 0)
(-0.0211815 0.000173229 0)
(-0.0209255 -7.8556e-05 0)
(-0.0203734 -0.000209594 0)
(-0.0196362 -0.000353769 0)
(-0.0186007 -0.00062581 0)
(-0.0170291 -0.00109147 0)
(-0.0146643 -0.0016282 0)
(-0.0110534 -0.00270192 0)
(-0.00519242 -0.00684561 0)
(-0.00410953 -0.000308245 0)
(-0.00517872 0.00161065 0)
(-0.00767597 0.0016466 0)
(-0.00909692 0.00145926 0)
(-0.0102363 0.00145543 0)
(-0.0113987 0.00177472 0)
(-0.0128469 0.00215961 0)
(-0.0144522 0.00232153 0)
(-0.0164475 0.00292696 0)
(-0.0187932 0.00294875 0)
(-0.0208044 0.00243671 0)
(-0.0221774 0.00170659 0)
(-0.0229834 0.0010822 0)
(-0.0234531 0.000698233 0)
(-0.0234572 8.14484e-05 0)
(-0.0228504 -0.000373685 0)
(-0.0218794 -0.000599502 0)
(-0.0206884 -0.000842438 0)
(-0.0190795 -0.00134387 0)
(-0.0167137 -0.00223455 0)
(-0.0135307 -0.00323676 0)
(-0.00962063 -0.0051844 0)
(-0.00280329 -0.0105635 0)
(-0.00442717 0.00230314 0)
(-0.00598546 0.00308512 0)
(-0.00886279 0.00270922 0)
(-0.0104248 0.00223657 0)
(-0.0115349 0.00209509 0)
(-0.0126464 0.00253019 0)
(-0.0141973 0.00314853 0)
(-0.0157239 0.00327454 0)
(-0.017615 0.00402779 0)
(-0.0200959 0.00367445 0)
(-0.0221701 0.00265086 0)
(-0.0236028 0.00159679 0)
(-0.0244766 0.000919123 0)
(-0.0251066 0.000696808 0)
(-0.0251766 -5.37998e-05 0)
(-0.0244073 -0.000749241 0)
(-0.0231755 -0.00107946 0)
(-0.0214795 -0.00141107 0)
(-0.0189777 -0.00224967 0)
(-0.0152159 -0.00370349 0)
(-0.0104832 -0.00492939 0)
(-0.00623046 -0.00740638 0)
(0.000200604 -0.0130114 0)
(-0.00336065 0.00414081 0)
(-0.00449942 0.00429637 0)
(-0.00708083 0.00366119 0)
(-0.00845308 0.00305845 0)
(-0.00945628 0.00280887 0)
(-0.0105607 0.0031405 0)
(-0.0123217 0.00376362 0)
(-0.0136135 0.00339191 0)
(-0.014952 0.00562875 0)
(-0.0172734 0.00618973 0)
(-0.0194103 0.00527317 0)
(-0.021315 0.0038949 0)
(-0.022888 0.00262724 0)
(-0.0245483 0.00178155 0)
(-0.0259244 -6.57847e-06 0)
(-0.026299 -0.00135666 0)
(-0.0254634 -0.00216944 0)
(-0.0223525 -0.00306672 0)
(-0.0174626 -0.00437872 0)
(-0.0118779 -0.00643437 0)
(-0.0048446 -0.00793806 0)
(0.000655468 -0.0102846 0)
(0.00455792 -0.0139477 0)
(-0.002122 0.00439512 0)
(-0.00221199 0.00399046 0)
(-0.00324632 0.00236287 0)
(-0.00257578 0.00108266 0)
(-0.00123405 0.00103976 0)
(0.000105737 0.00303307 0)
(-0.00107088 0.00512741 0)
(-0.00603922 0.00417624 0)
(-0.011194 0.00463409 0)
(-0.0153321 0.00351551 0)
(-0.0184744 0.00205556 0)
(-0.0215582 0.000753462 0)
(-0.0250649 -9.2898e-05 0)
(-0.0278077 0.000485244 0)
(-0.0289022 -0.000915314 0)
(-0.0292415 -0.00258944 0)
(-0.0285731 -0.00460174 0)
(-0.0242452 -0.00686984 0)
(-0.0177817 -0.00868885 0)
(-0.0114894 -0.0109279 0)
(-0.00297535 -0.0125369 0)
(0.0023811 -0.0129939 0)
(0.00570012 -0.00874297 0)
(-0.00122412 0.00761014 0)
(-0.000611768 0.00789048 0)
(-0.00230323 0.00765591 0)
(-0.00328526 0.00682803 0)
(-0.00260114 0.0054923 0)
(0.00113739 0.00478168 0)
(0.00775583 0.00504378 0)
(0.0133641 0.005967 0)
(0.0139854 0.0094266 0)
(0.0158786 0.0101471 0)
(0.0140773 0.0105148 0)
(0.00351138 0.0108652 0)
(-0.0201098 0.0110321 0)
(-0.0365296 0.00712054 0)
(-0.0353816 0.00335016 0)
(-0.0294812 0.00229544 0)
(-0.0252828 -0.000656933 0)
(-0.021088 -0.00453823 0)
(-0.0201447 -0.00719485 0)
(-0.0194383 -0.0100061 0)
(-0.0175245 -0.0134374 0)
(-0.0172813 -0.0161627 0)
(-0.00087783 -0.0184684 0)
(0.000349043 0.0113905 0)
(0.00524199 0.00954865 0)
(0.0110846 0.00575912 0)
(0.0205552 0.000987941 0)
(0.0324132 -0.00238029 0)
(0.0414215 -0.00102238 0)
(0.0334374 0.00423311 0)
(0.00388703 0.00836753 0)
(-0.0120216 0.00794416 0)
(-0.0127405 0.0066037 0)
(-0.0137292 0.00824519 0)
(-0.0124559 0.0113485 0)
(-0.00512591 0.0129129 0)
(0.00733449 0.00176521 0)
(0.0183197 -0.00599289 0)
(0.0304947 -0.00876498 0)
(0.0426219 -0.0100414 0)
(0.0532518 -0.0104863 0)
(0.0611438 -0.0110554 0)
(0.0642779 -0.0113776 0)
(0.0606136 -0.0106186 0)
(0.041083 -0.0107281 0)
(0.0406586 -0.00252212 0)
(-0.00435664 -7.42494e-05 0)
(0.0063271 -0.0025618 0)
(0.00628837 -0.00181451 0)
(0.0142926 -0.00199377 0)
(0.0224316 -0.002186 0)
(0.0303703 -0.0015572 0)
(0.0353463 -0.000601327 0)
(0.0374928 -0.000323113 0)
(0.0375855 0.000218761 0)
(0.0347164 0.000971624 0)
(0.0291139 0.000551643 0)
(0.0241531 -0.00118548 0)
(0.0201345 -0.00109953 0)
(0.0119775 0.000928253 0)
(-0.000579709 0.00187486 0)
(-0.0199798 0.00366059 0)
(-0.03924 0.00211472 0)
(-0.0387765 -0.00243984 0)
(-0.0123773 -0.00356029 0)
(0.00700627 -0.000897959 0)
(0.0180226 -0.00173275 0)
(0.015613 -0.0025038 0)
(0.0207852 -0.00471284 0)
(0.0246279 -0.00547664 0)
(0.0286865 -0.00435891 0)
(0.0321323 -0.00241062 0)
(0.0348058 -0.00069809 0)
(0.0370192 0.00064169 0)
(0.0377294 0.00285232 0)
(0.0341187 0.00426112 0)
(0.0299603 0.0043513 0)
(0.025166 0.00569286 0)
(0.0136696 0.00931784 0)
(-0.00280168 0.0106984 0)
(-0.024973 0.0130207 0)
(-0.0467389 0.00679282 0)
(-0.0468145 -0.00916401 0)
(-0.0183217 -0.0189073 0)
(0.00318747 -0.0101563 0)
(0.00897374 -0.00399109 0)
(0.0203049 -0.001957 0)
(0.0278675 -0.00532369 0)
(0.0247549 -0.00635885 0)
(0.0206453 -0.00516906 0)
(0.0187996 -0.00418987 0)
(0.0210863 -0.00291233 0)
(0.0203957 -0.00357989 0)
(0.0248479 0.00225905 0)
(0.0370419 0.0038189 0)
(0.0371796 -0.000294879 0)
(0.0200189 0.0037092 0)
(-0.00476275 0.013401 0)
(-0.0268734 0.0194782 0)
(-0.0386812 0.0203553 0)
(-0.0391255 0.00970293 0)
(-0.0298866 -0.0169007 0)
(-0.0113283 -0.0312425 0)
(-0.0619167 -0.00325595 0)
(-0.0680343 -0.0064569 0)
(0.00113611 -0.0161043 0)
(0.0454043 -0.00811572 0)
(0.0619147 -0.00281767 0)
(0.0564997 -0.00206625 0)
(0.0351473 -0.00215992 0)
(0.0340115 0.000907658 0)
(0.00167718 0.00415682 0)
(0.0375393 -0.00382113 0)
(0.111797 8.86675e-05 0)
(0.122665 0.0192662 0)
(0.0596751 0.0303227 0)
(0.0113898 0.0262088 0)
(-0.0140305 0.0224664 0)
(-0.0167733 0.0161024 0)
(0.00405372 0.00649275 0)
(0.00665924 -0.0170251 0)
(0.00736199 -0.0323416 0)
(-0.076248 0.0359261 0)
(-0.0219559 -0.031496 0)
(0.0301464 -0.0494343 0)
(0.0757595 -0.0263597 0)
(0.101761 -0.00666219 0)
(0.103437 0.0108297 0)
(0.0324245 0.0102729 0)
(0.00438328 0.00439179 0)
(0.00178494 -0.00385912 0)
(0.0768531 -0.0482125 0)
(0.126511 -0.0430469 0)
(0.194826 0.0150546 0)
(0.211413 0.0505606 0)
(0.189038 0.046814 0)
(0.123335 0.0495557 0)
(-0.0233954 0.0188303 0)
(0.0120717 0.00132057 0)
(0.0278716 -0.0172649 0)
(0.0350768 -0.0256386 0)
(-0.0662488 0.0396906 0)
(0.0513459 -0.0630151 0)
(0.0738614 -0.069728 0)
(0.110413 -0.0407958 0)
(0.135079 -0.0115666 0)
(0.140574 0.0200731 0)
(0.113852 0.0353244 0)
(0.0722833 0.0105746 0)
(0.0756708 -0.0212678 0)
(0.119567 -0.0622834 0)
(0.137027 -0.0614357 0)
(0.175679 -0.0116982 0)
(0.213034 0.0411913 0)
(0.207119 0.056751 0)
(0.153208 0.0951009 0)
(0.0150193 0.0499887 0)
(0.0582296 -0.0268905 0)
(0.091527 -0.034002 0)
(0.112008 0.00267276 0)
(0.0155916 0.0661667 0)
(0.109996 -0.0721009 0)
(0.118296 -0.0833517 0)
(0.140423 -0.0545316 0)
(0.165499 -0.0169394 0)
(0.172901 0.0211223 0)
(0.160896 0.0409465 0)
(0.155709 0.0228428 0)
(0.152929 -0.0185236 0)
(0.165935 -0.0644163 0)
(0.158524 -0.0674825 0)
(0.165731 -0.0210987 0)
(0.179317 0.0414163 0)
(0.159762 0.0728707 0)
(0.104944 0.13119 0)
(0.00503569 0.0652408 0)
(0.0757995 -0.0361183 0)
(0.0477828 -0.0412873 0)
(0.0855487 0.0476688 0)
(0.184809 -0.0435566 0)
(0.175557 -0.0858827 0)
(0.161579 -0.0870552 0)
(0.161253 -0.0636429 0)
(0.178136 -0.0231418 0)
(0.188315 0.0199171 0)
(0.185208 0.0412689 0)
(0.183579 0.0221333 0)
(0.179676 -0.0203664 0)
(0.18193 -0.0665654 0)
(0.165842 -0.0634471 0)
(0.14814 -0.017558 0)
(0.138752 0.0496897 0)
(0.103675 0.0943819 0)
(0.0453635 0.159662 0)
(0.00149066 0.0652238 0)
(0.0787898 -0.0407603 0)
(0.0248473 -0.0350894 0)
(0.0644444 0.0689309 0)
(0.00100326 -0.0113107 0)
(0.00665411 -0.0125161 0)
(0.0105921 -0.011136 0)
(0.0121704 -0.0112317 0)
(0.0138425 -0.00910064 0)
(0.0161607 0.00340855 0)
(0.0201208 0.0174988 0)
(0.0229483 0.0207971 0)
(0.023448 0.0165362 0)
(0.0218294 0.0125736 0)
(0.0193609 0.0121726 0)
(0.0178554 0.012249 0)
(0.0197351 0.00899936 0)
(0.0244583 -0.000764332 0)
(0.0306668 -0.00985281 0)
(0.0398139 -0.01498 0)
(0.0519905 -0.0181063 0)
(0.0658961 -0.0173436 0)
(0.0792243 -0.0157179 0)
(0.0908386 -0.0120174 0)
(0.0993834 -0.00738322 0)
(0.107358 -0.00554271 0)
(0.115923 0.00445203 0)
(0.00564651 0.00334707 0)
(0.0157973 0.00193324 0)
(0.0223764 0.00111993 0)
(0.0283661 -0.00174602 0)
(0.0305994 -0.0051354 0)
(0.0267436 -0.00301708 0)
(0.0214746 0.00212724 0)
(0.018601 0.00934997 0)
(0.0217337 0.00548071 0)
(0.0260164 0.00484455 0)
(0.0288293 0.00773912 0)
(0.0294315 0.0079306 0)
(0.0303455 0.00250062 0)
(0.0310343 -0.00902393 0)
(0.0313876 -0.0211381 0)
(0.0330801 -0.0281802 0)
(0.0372015 -0.0346614 0)
(0.0454893 -0.0359439 0)
(0.0566603 -0.0359988 0)
(0.0703526 -0.0309314 0)
(0.0837517 -0.0235318 0)
(0.0922723 -0.0213773 0)
(0.101466 -0.0278605 0)
(0.0121915 -0.0190833 0)
(0.0310896 -0.0149624 0)
(0.0483057 -0.0124061 0)
(0.0613546 -0.00942315 0)
(0.068751 -0.0012331 0)
(0.0707931 0.0137842 0)
(0.0754367 0.0172908 0)
(0.0823643 0.0200891 0)
(0.089047 0.0089562 0)
(0.0840164 0.00785353 0)
(0.0699009 0.0118334 0)
(0.0549193 0.0119992 0)
(0.0430172 0.00712752 0)
(0.0312469 -0.00209971 0)
(0.0219758 -0.0156039 0)
(0.0142052 -0.0222269 0)
(0.00967359 -0.033247 0)
(0.00788815 -0.0379766 0)
(0.00959247 -0.042089 0)
(0.0190121 -0.041476 0)
(0.0405169 -0.0334501 0)
(0.0641618 -0.0243166 0)
(0.077704 -0.0255826 0)
(0.0112875 -0.04873 0)
(0.0294363 -0.050317 0)
(0.052692 -0.0404837 0)
(0.0711319 -0.0281326 0)
(0.0843867 -0.017922 0)
(0.10181 -0.00926971 0)
(0.125746 -0.0113596 0)
(0.149914 -0.00600441 0)
(0.163907 0.00434627 0)
(0.152024 0.0265947 0)
(0.127955 0.0407957 0)
(0.107675 0.0375786 0)
(0.0914405 0.0308694 0)
(0.0753115 0.0183156 0)
(0.0556089 0.00237184 0)
(0.0338738 -0.0082664 0)
(0.0149194 -0.0224229 0)
(-0.00228774 -0.0312829 0)
(-0.0123945 -0.0446447 0)
(-0.0103953 -0.0610337 0)
(0.00768023 -0.0675117 0)
(0.0399111 -0.0545853 0)
(0.0620649 -0.0382372 0)
(0.0115679 -0.0600448 0)
(0.0229155 -0.0639197 0)
(0.0374089 -0.0537878 0)
(0.0533844 -0.0374013 0)
(0.068347 -0.03015 0)
(0.0833908 -0.0294034 0)
(0.096268 -0.0282558 0)
(0.103386 -0.0161251 0)
(0.103604 0.0115949 0)
(0.107262 0.038478 0)
(0.111645 0.0491372 0)
(0.116164 0.0418774 0)
(0.115743 0.0374744 0)
(0.109114 0.0320021 0)
(0.094295 0.0237718 0)
(0.0736912 0.0151407 0)
(0.0505634 0.00328345 0)
(0.0273235 -0.00987338 0)
(0.00714145 -0.0295269 0)
(-0.012155 -0.0559543 0)
(-0.0213163 -0.0810777 0)
(-0.00861619 -0.0781534 0)
(0.0170926 -0.0533698 0)
(0.00925667 -0.0763198 0)
(0.0204792 -0.0757044 0)
(0.0310073 -0.0667114 0)
(0.0464031 -0.0536176 0)
(0.0629376 -0.0461297 0)
(0.0764626 -0.0406864 0)
(0.0846622 -0.031902 0)
(0.0895833 -0.0160627 0)
(0.0976865 0.00559939 0)
(0.110829 0.0234018 0)
(0.123513 0.0365141 0)
(0.128681 0.039327 0)
(0.123057 0.0419597 0)
(0.109787 0.0428809 0)
(0.0913199 0.0391719 0)
(0.0701612 0.0317587 0)
(0.0487346 0.0204193 0)
(0.02862 0.00637083 0)
(0.0113571 -0.0110134 0)
(-0.00998618 -0.0364894 0)
(-0.03092 -0.075474 0)
(-0.0350382 -0.0909745 0)
(-0.0164231 -0.0789327 0)
(0.0089397 -0.0921216 0)
(0.0229084 -0.0897177 0)
(0.0377383 -0.0842104 0)
(0.0567174 -0.0766462 0)
(0.075861 -0.0691037 0)
(0.0921371 -0.0605285 0)
(0.104547 -0.0493059 0)
(0.11509 -0.0349377 0)
(0.125743 -0.0159053 0)
(0.136552 0.00455569 0)
(0.144249 0.0246549 0)
(0.144344 0.0409929 0)
(0.1347 0.0553174 0)
(0.116351 0.0660544 0)
(0.092994 0.0685063 0)
(0.0695467 0.0627135 0)
(0.0490883 0.0499089 0)
(0.0314498 0.0315908 0)
(0.0184724 0.00664272 0)
(0.00485752 -0.0173401 0)
(-0.0180549 -0.0595906 0)
(-0.0346621 -0.0910535 0)
(-0.0268 -0.102656 0)
(0.00819772 -0.102802 0)
(0.0222326 -0.0996339 0)
(0.0388464 -0.0956274 0)
(0.0592178 -0.0891931 0)
(0.0796547 -0.0804618 0)
(0.0973646 -0.0702078 0)
(0.110294 -0.0570767 0)
(0.123102 -0.0422748 0)
(0.138472 -0.0221109 0)
(0.153473 -0.000528503 0)
(0.162874 0.0188994 0)
(0.162155 0.0373597 0)
(0.150496 0.0551885 0)
(0.130103 0.0696736 0)
(0.106988 0.0729234 0)
(0.0865325 0.0655945 0)
(0.0707436 0.0527843 0)
(0.0566025 0.0372144 0)
(0.0466639 0.0166099 0)
(0.0365235 0.00328997 0)
(0.0157959 -0.0294404 0)
(-0.0149925 -0.0804311 0)
(-0.0174124 -0.118295 0)
(0.013044 -0.123627 0)
(0.0346705 -0.121491 0)
(0.0496671 -0.11405 0)
(0.0617902 -0.113235 0)
(0.08134 -0.0976793 0)
(0.0708583 -0.0730406 0)
(0.0334263 -0.0432509 0)
(0.0314204 -0.0457737 0)
(0.0837868 -0.0384825 0)
(0.135945 -0.0143687 0)
(0.1629 0.0249586 0)
(0.122892 0.066743 0)
(0.0742828 0.0906438 0)
(0.0589065 0.105653 0)
(0.0409418 0.104611 0)
(0.0140967 0.0887514 0)
(-0.0074197 0.0730638 0)
(-0.0190335 0.0562078 0)
(-0.0166056 0.027449 0)
(0.0115899 0.00954246 0)
(0.0323328 -0.00977439 0)
(-0.00212927 -0.0595268 0)
(-0.0150925 -0.120328 0)
(0.00161883 -0.142963 0)
(0.00142479 -0.140359 0)
(0.00788919 -0.122328 0)
(0.00774454 -0.125251 0)
(0.00302232 -0.0883781 0)
(0.0105872 -0.0543937 0)
(0.0304893 -0.0372337 0)
(0.0489056 -0.0788545 0)
(0.0444861 -0.110843 0)
(0.03452 -0.072695 0)
(0.0385509 0.0290751 0)
(0.073298 0.138006 0)
(0.0745636 0.170787 0)
(0.092454 0.131603 0)
(0.0998519 0.146887 0)
(0.0809161 0.163085 0)
(-0.0779338 0.120953 0)
(-0.0900801 0.0461271 0)
(-0.0820252 -0.0116792 0)
(-0.128922 -0.0509604 0)
(-0.138951 -0.0152885 0)
(-0.103495 -0.0392963 0)
(-0.076095 -0.131828 0)
(-0.00388906 -0.136269 0)
(-0.00895928 -0.133207 0)
(-0.0114583 -0.120482 0)
(-0.0159234 -0.114755 0)
(-0.019948 -0.0972367 0)
(-0.00936769 -0.0781572 0)
(0.00727181 -0.0710707 0)
(0.0176876 -0.0731321 0)
(0.0135043 -0.0672082 0)
(0.00813062 -0.0502694 0)
(0.0230835 -0.0157541 0)
(0.0698778 0.0439966 0)
(0.124768 0.0988544 0)
(0.167897 0.0906748 0)
(0.175461 0.10882 0)
(0.202557 0.179697 0)
(0.22136 0.188109 0)
(0.25636 0.0627037 0)
(0.257376 0.0176793 0)
(0.237631 0.0235488 0)
(0.314658 -0.0207381 0)
(0.379438 -0.0603472 0)
(0.419986 -0.112348 0)
(-0.0049413 -0.128076 0)
(-0.0105043 -0.127413 0)
(-0.0156263 -0.118852 0)
(-0.0204954 -0.111626 0)
(-0.0242065 -0.0994698 0)
(-0.0209851 -0.0881598 0)
(-0.0150366 -0.0809824 0)
(-0.0124767 -0.078464 0)
(-0.0135898 -0.0708764 0)
(-0.0119602 -0.0615819 0)
(0.00221329 -0.0351782 0)
(0.0311263 0.00560522 0)
(0.0741481 0.0390849 0)
(0.126059 0.0563441 0)
(0.187626 0.0899527 0)
(0.262995 0.117871 0)
(0.337195 0.12611 0)
(0.401571 0.0709637 0)
(0.455708 0.00216653 0)
(0.490754 -0.0773879 0)
(0.525367 -0.130604 0)
(0.560905 -0.149145 0)
(0.594691 -0.154294 0)
(-0.00499367 -0.12031 0)
(-0.0114415 -0.121176 0)
(-0.0185087 -0.1135 0)
(-0.0245071 -0.105607 0)
(-0.0292966 -0.0967595 0)
(-0.0304543 -0.0888034 0)
(-0.0301248 -0.0831601 0)
(-0.0302814 -0.0784784 0)
(-0.0295562 -0.0715239 0)
(-0.0275947 -0.0673269 0)
(-0.022012 -0.0507368 0)
(-0.00859018 -0.0224664 0)
(0.0149758 0.000541503 0)
(0.0506013 0.000767788 0)
(0.10841 0.0151028 0)
(0.178519 0.0274818 0)
(0.25418 0.0198581 0)
(0.319775 -0.0176537 0)
(0.368036 -0.0627132 0)
(0.405097 -0.102696 0)
(0.432708 -0.135396 0)
(0.453164 -0.159095 0)
(0.468193 -0.178786 0)
(-0.00465746 -0.112038 0)
(-0.0116717 -0.113569 0)
(-0.0194641 -0.106409 0)
(-0.0259142 -0.0991726 0)
(-0.0312709 -0.0924703 0)
(-0.0344515 -0.0866484 0)
(-0.0364648 -0.0819673 0)
(-0.0376917 -0.0774983 0)
(-0.0374176 -0.0720944 0)
(-0.037354 -0.0673902 0)
(-0.0361277 -0.0552518 0)
(-0.0274588 -0.0362186 0)
(-0.00902949 -0.0241533 0)
(0.0123856 -0.0315184 0)
(0.038585 -0.0374806 0)
(0.0735417 -0.0376525 0)
(0.111615 -0.0434781 0)
(0.148766 -0.0655644 0)
(0.178312 -0.100249 0)
(0.202319 -0.138109 0)
(0.224394 -0.165701 0)
(0.243239 -0.179604 0)
(0.253887 -0.188872 0)
(-0.00429078 -0.104051 0)
(-0.0113558 -0.105813 0)
(-0.0189153 -0.0992324 0)
(-0.0249528 -0.0929934 0)
(-0.030072 -0.0877897 0)
(-0.033784 -0.0834607 0)
(-0.0365389 -0.0798018 0)
(-0.038386 -0.0761952 0)
(-0.0392731 -0.0720706 0)
(-0.0398689 -0.0673749 0)
(-0.0388947 -0.0593386 0)
(-0.0323657 -0.0487124 0)
(-0.0193431 -0.0428331 0)
(-0.00561042 -0.0468918 0)
(0.00468085 -0.053369 0)
(0.0168475 -0.0523647 0)
(0.0314734 -0.0574508 0)
(0.0463069 -0.0779947 0)
(0.0594357 -0.110601 0)
(0.0650251 -0.149328 0)
(0.0683546 -0.175755 0)
(0.0725462 -0.187239 0)
(0.0703624 -0.196515 0)
(-0.0039282 -0.0965521 0)
(-0.0106721 -0.0984457 0)
(-0.0175911 -0.0927198 0)
(-0.0228543 -0.0875752 0)
(-0.0273024 -0.0835202 0)
(-0.0307043 -0.0802609 0)
(-0.0333519 -0.0774457 0)
(-0.0353021 -0.0745939 0)
(-0.0366002 -0.0713253 0)
(-0.0373321 -0.0673738 0)
(-0.0365857 -0.0619678 0)
(-0.0327056 -0.0560599 0)
(-0.0259259 -0.0530704 0)
(-0.0194025 -0.0547426 0)
(-0.0163009 -0.0585366 0)
(-0.0142921 -0.0594291 0)
(-0.0112687 -0.0660591 0)
(-0.0100968 -0.0841995 0)
(-0.0133268 -0.111299 0)
(-0.0253213 -0.142221 0)
(-0.0405519 -0.163418 0)
(-0.0507713 -0.175988 0)
(-0.0591836 -0.180154 0)
(-0.0036724 -0.0895624 0)
(-0.0100339 -0.0916201 0)
(-0.0163617 -0.0869596 0)
(-0.0209702 -0.0829394 0)
(-0.0247745 -0.0798622 0)
(-0.0276818 -0.0774118 0)
(-0.0299684 -0.0752285 0)
(-0.0317306 -0.0729421 0)
(-0.033016 -0.0703067 0)
(-0.0337443 -0.0671492 0)
(-0.0333963 -0.0633561 0)
(-0.0314006 -0.0596531 0)
(-0.0282553 -0.0575495 0)
(-0.025683 -0.0576382 0)
(-0.0248762 -0.0586507 0)
(-0.0248397 -0.0593021 0)
(-0.0256194 -0.0638961 0)
(-0.0308113 -0.076869 0)
(-0.0446133 -0.0969449 0)
(-0.0687343 -0.121337 0)
(-0.0929249 -0.145153 0)
(-0.109272 -0.16496 0)
(-0.121675 -0.163635 0)
(-0.0035408 -0.0829424 0)
(-0.00963528 -0.0851978 0)
(-0.0156371 -0.0816943 0)
(-0.0199042 -0.0788224 0)
(-0.0233327 -0.0766847 0)
(-0.0258943 -0.0749589 0)
(-0.0278641 -0.0733171 0)
(-0.0293742 -0.0714864 0)
(-0.0304932 -0.0693332 0)
(-0.0311603 -0.0668109 0)
(-0.0311213 -0.0640054 0)
(-0.0302013 -0.0613822 0)
(-0.0287605 -0.0596128 0)
(-0.0276021 -0.0589009 0)
(-0.0271083 -0.0587103 0)
(-0.0268876 -0.0587753 0)
(-0.0274047 -0.060723 0)
(-0.0315511 -0.0666543 0)
(-0.0435843 -0.0771568 0)
(-0.0666654 -0.0946902 0)
(-0.0952716 -0.121987 0)
(-0.11944 -0.14757 0)
(-0.140614 -0.14082 0)
(-0.0035378 -0.0764814 0)
(-0.00952554 -0.0789641 0)
(-0.0154214 -0.0766409 0)
(-0.0195975 -0.0749295 0)
(-0.0228865 -0.0737464 0)
(-0.0252779 -0.0727558 0)
(-0.0270382 -0.0716566 0)
(-0.0283311 -0.0702506 0)
(-0.0292688 -0.068488 0)
(-0.0298636 -0.0664221 0)
(-0.0300298 -0.0642064 0)
(-0.0297311 -0.0621501 0)
(-0.0291655 -0.0605911 0)
(-0.0286833 -0.0596157 0)
(-0.0284369 -0.0590154 0)
(-0.0283547 -0.058747 0)
(-0.0288031 -0.0592182 0)
(-0.030986 -0.0606484 0)
(-0.0364972 -0.0633145 0)
(-0.047828 -0.0709901 0)
(-0.0708255 -0.0935531 0)
(-0.104154 -0.120297 0)
(-0.133449 -0.112689 0)
(-0.00360602 -0.0700296 0)
(-0.00960658 -0.072763 0)
(-0.0155437 -0.0716202 0)
(-0.0197622 -0.0710828 0)
(-0.0230273 -0.0708996 0)
(-0.0253304 -0.0707 0)
(-0.0269396 -0.0701848 0)
(-0.0280535 -0.069202 0)
(-0.028836 -0.0677656 0)
(-0.0293713 -0.0660053 0)
(-0.029676 -0.0641192 0)
(-0.0297733 -0.0623494 0)
(-0.0297696 -0.0609039 0)
(-0.0298125 -0.0598426 0)
(-0.0299638 -0.0590949 0)
(-0.0302334 -0.0586489 0)
(-0.030828 -0.058537 0)
(-0.0322047 -0.0584413 0)
(-0.0347149 -0.0579519 0)
(-0.0391319 -0.0588526 0)
(-0.0513881 -0.0675876 0)
(-0.0812019 -0.0851593 0)
(-0.113831 -0.0811519 0)
(-0.00372496 -0.0634616 0)
(-0.00982279 -0.0664835 0)
(-0.015863 -0.0665377 0)
(-0.0201627 -0.0672109 0)
(-0.0234276 -0.0680965 0)
(-0.0256492 -0.0687606 0)
(-0.0271136 -0.0688779 0)
(-0.0280611 -0.0683198 0)
(-0.0287079 -0.0671537 0)
(-0.0291975 -0.0655762 0)
(-0.0296071 -0.0638325 0)
(-0.0299871 -0.0621574 0)
(-0.0304021 -0.0607226 0)
(-0.0309162 -0.0595909 0)
(-0.0315521 -0.0587396 0)
(-0.0323239 -0.0581382 0)
(-0.0333355 -0.0576958 0)
(-0.0347598 -0.0570348 0)
(-0.0366331 -0.0555757 0)
(-0.0392355 -0.0537309 0)
(-0.0456059 -0.0532366 0)
(-0.0625394 -0.0552358 0)
(-0.0854072 -0.0529107 0)
(-0.00385899 -0.0567222 0)
(-0.0101005 -0.0600739 0)
(-0.0162759 -0.0613627 0)
(-0.0206577 -0.0633058 0)
(-0.0239084 -0.0653424 0)
(-0.0260286 -0.0669442 0)
(-0.0273366 -0.0677325 0)
(-0.028119 -0.0675877 0)
(-0.028641 -0.0666295 0)
(-0.0290927 -0.0651259 0)
(-0.0295873 -0.0633801 0)
(-0.0301868 -0.0616511 0)
(-0.0309344 -0.0601132 0)
(-0.031862 -0.058843 0)
(-0.0329819 -0.0578407 0)
(-0.0343023 -0.0570627 0)
(-0.0358621 -0.0563728 0)
(-0.0376956 -0.0553984 0)
(-0.0397148 -0.0535418 0)
(-0.042001 -0.0505412 0)
(-0.0456589 -0.0463172 0)
(-0.0529158 -0.0403072 0)
(-0.0633862 -0.0325938 0)
(-0.00400566 -0.049777 0)
(-0.0104204 -0.053508 0)
(-0.0167318 -0.0560914 0)
(-0.0211766 -0.0593827 0)
(-0.0243873 -0.0626597 0)
(-0.026384 -0.0652679 0)
(-0.0275253 -0.0667548 0)
(-0.0281404 -0.0670028 0)
(-0.0285364 -0.0661875 0)
(-0.0289426 -0.0646577 0)
(-0.029498 -0.0627918 0)
(-0.0302694 -0.0608946 0)
(-0.0312847 -0.0591592 0)
(-0.0325554 -0.0576726 0)
(-0.0340864 -0.0564432 0)
(-0.0358843 -0.0554263 0)
(-0.0379637 -0.0544918 0)
(-0.0403111 -0.0533201 0)
(-0.0427833 -0.0513648 0)
(-0.0451575 -0.048067 0)
(-0.0475601 -0.0429639 0)
(-0.0505024 -0.0353807 0)
(-0.0534896 -0.0252137 0)
(-0.0041492 -0.04262 0)
(-0.0107467 -0.0467822 0)
(-0.0171924 -0.0507341 0)
(-0.02168 -0.0554636 0)
(-0.0248271 -0.0600706 0)
(-0.0266887 -0.0637442 0)
(-0.0276663 -0.0659484 0)
(-0.0281167 -0.0665708 0)
(-0.0283742 -0.0658424 0)
(-0.0287038 -0.0641986 0)
(-0.0292708 -0.0621083 0)
(-0.0301515 -0.0599416 0)
(-0.0313642 -0.0579256 0)
(-0.0328985 -0.0561575 0)
(-0.0347409 -0.0546421 0)
(-0.0368892 -0.0533291 0)
(-0.0393487 -0.0521078 0)
(-0.0420967 -0.0507381 0)
(-0.0450056 -0.04879 0)
(-0.0477396 -0.045714 0)
(-0.0498937 -0.0409688 0)
(-0.0514996 -0.0341338 0)
(-0.0520098 -0.0247571 0)
(-0.00429583 -0.0352449 0)
(-0.0110817 -0.0398971 0)
(-0.0176482 -0.0453 0)
(-0.0221582 -0.0515652 0)
(-0.0252251 -0.0575864 0)
(-0.0269576 -0.0623686 0)
(-0.0277978 -0.0653023 0)
(-0.0281022 -0.0662944 0)
(-0.0282107 -0.0656217 0)
(-0.0284187 -0.0638009 0)
(-0.0289226 -0.0614006 0)
(-0.0298202 -0.0588723 0)
(-0.0311355 -0.0564956 0)
(-0.0328427 -0.0543885 0)
(-0.0349001 -0.0525531 0)
(-0.037277 -0.050927 0)
(-0.0399595 -0.0494043 0)
(-0.0429241 -0.0478023 0)
(-0.0460638 -0.0458174 0)
(-0.0490772 -0.04304 0)
(-0.0515523 -0.0390736 0)
(-0.0533313 -0.0335984 0)
(-0.0537721 -0.0261493 0)
(-0.0044403 -0.027651 0)
(-0.0114174 -0.0328555 0)
(-0.0181044 -0.039797 0)
(-0.0226267 -0.0476974 0)
(-0.0256072 -0.0552035 0)
(-0.0272369 -0.0611124 0)
(-0.027991 -0.0647808 0)
(-0.0281876 -0.0661611 0)
(-0.028151 -0.0655508 0)
(-0.0281985 -0.0635293 0)
(-0.0285566 -0.0607642 0)
(-0.0293573 -0.057798 0)
(-0.0306497 -0.0549819 0)
(-0.03241 -0.0524757 0)
(-0.0345736 -0.0502901 0)
(-0.0370738 -0.0483512 0)
(-0.0398593 -0.0465463 0)
(-0.0428886 -0.0447207 0)
(-0.0460763 -0.0426523 0)
(-0.0492018 -0.0400651 0)
(-0.0519535 -0.0367148 0)
(-0.0542509 -0.0324192 0)
(-0.0554892 -0.0267526 0)
(-0.00459774 -0.0198201 0)
(-0.0117843 -0.0256462 0)
(-0.0185969 -0.0342247 0)
(-0.0231254 -0.0438621 0)
(-0.0260175 -0.05291 0)
(-0.0275849 -0.0599268 0)
(-0.0283131 -0.064327 0)
(-0.0284458 -0.0661403 0)
(-0.0282849 -0.0656369 0)
(-0.0281566 -0.0634373 0)
(-0.0283042 -0.0602967 0)
(-0.028896 -0.0568445 0)
(-0.0300265 -0.0535149 0)
(-0.0317006 -0.0505376 0)
(-0.0338487 -0.0479582 0)
(-0.0363716 -0.0457027 0)
(-0.0391778 -0.0436446 0)
(-0.0421968 -0.0416372 0)
(-0.0453383 -0.0395025 0)
(-0.0484152 -0.0370387 0)
(-0.051231 -0.0340866 0)
(-0.0538295 -0.0305604 0)
(-0.0557097 -0.0261396 0)
(-0.00477245 -0.0117202 0)
(-0.0122088 -0.0182484 0)
(-0.0191681 -0.0285705 0)
(-0.0236946 -0.0400622 0)
(-0.0264973 -0.0506996 0)
(-0.0280477 -0.0587502 0)
(-0.0287898 -0.0638868 0)
(-0.0288787 -0.0661976 0)
(-0.0286229 -0.0658655 0)
(-0.0283378 -0.0635473 0)
(-0.0282545 -0.0600717 0)
(-0.0285603 -0.0561311 0)
(-0.0294025 -0.0522379 0)
(-0.0308443 -0.0487136 0)
(-0.0328423 -0.0456735 0)
(-0.0352808 -0.0430678 0)
(-0.038031 -0.0407603 0)
(-0.0409875 -0.0385953 0)
(-0.0440466 -0.0364108 0)
(-0.0470472 -0.0340411 0)
(-0.0498268 -0.0313808 0)
(-0.0524776 -0.0283989 0)
(-0.054598 -0.0248521 0)
(-0.0049824 -0.00335316 0)
(-0.012721 -0.0106542 0)
(-0.019828 -0.0228297 0)
(-0.024319 -0.0363196 0)
(-0.0270563 -0.0485529 0)
(-0.0286457 -0.057528 0)
(-0.0293767 -0.0634594 0)
(-0.0293893 -0.0663223 0)
(-0.0290644 -0.0662066 0)
(-0.0286753 -0.0638394 0)
(-0.0283995 -0.0601123 0)
(-0.0284082 -0.055739 0)
(-0.0288847 -0.0512774 0)
(-0.0299674 -0.0471454 0)
(-0.0316781 -0.043564 0)
(-0.0339175 -0.0405447 0)
(-0.036532 -0.0379588 0)
(-0.0393795 -0.0356333 0)
(-0.0423342 -0.0334047 0)
(-0.0452409 -0.0311246 0)
(-0.0479721 -0.0287034 0)
(-0.0505914 -0.0261315 0)
(-0.0527462 -0.0232641 0)
(-0.00519482 0.00536953 0)
(-0.013245 -0.00289638 0)
(-0.0204421 -0.0170516 0)
(-0.0248513 -0.0326451 0)
(-0.0276617 -0.0463644 0)
(-0.0293249 -0.0562833 0)
(-0.029912 -0.0631327 0)
(-0.0297773 -0.0665369 0)
(-0.0294065 -0.0666187 0)
(-0.0289911 -0.0642476 0)
(-0.0286179 -0.0603717 0)
(-0.0283982 -0.0556792 0)
(-0.0285105 -0.0507125 0)
(-0.0291584 -0.0459544 0)
(-0.0304615 -0.0417548 0)
(-0.0323848 -0.0382348 0)
(-0.0347752 -0.0353082 0)
(-0.0374567 -0.0327884 0)
(-0.0402798 -0.0304965 0)
(-0.0430965 -0.028289 0)
(-0.0457604 -0.0260769 0)
(-0.0483215 -0.0238604 0)
(-0.0504947 -0.0215745 0)
(-0.00529048 0.0144031 0)
(-0.0135929 0.00504494 0)
(-0.0207714 -0.0113419 0)
(-0.0251228 -0.0289592 0)
(-0.0281514 -0.0440003 0)
(-0.0298009 -0.0551532 0)
(-0.030086 -0.0630308 0)
(-0.0297681 -0.066862 0)
(-0.0293914 -0.0670431 0)
(-0.0290405 -0.0646677 0)
(-0.0286995 -0.0607346 0)
(-0.0283888 -0.0558718 0)
(-0.0282318 -0.050541 0)
(-0.0284518 -0.0452172 0)
(-0.0292704 -0.0403586 0)
(-0.0307676 -0.0362446 0)
(-0.0328396 -0.032887 0)
(-0.0352938 -0.0301138 0)
(-0.0379503 -0.0277196 0)
(-0.0406426 -0.025548 0)
(-0.0432356 -0.0235025 0)
(-0.045747 -0.0215968 0)
(-0.047907 -0.0198238 0)
(-0.00500928 0.0237529 0)
(-0.0133625 0.0133224 0)
(-0.0205785 -0.00572046 0)
(-0.0249804 -0.0251408 0)
(-0.0281943 -0.0415016 0)
(-0.0296176 -0.0543007 0)
(-0.0295375 -0.0632089 0)
(-0.0290887 -0.0672681 0)
(-0.0287767 -0.0674014 0)
(-0.0285842 -0.064981 0)
(-0.0284082 -0.0610496 0)
(-0.0281735 -0.056165 0)
(-0.0279144 -0.050664 0)
(-0.0278119 -0.0449302 0)
(-0.0281434 -0.0394532 0)
(-0.0291308 -0.0346753 0)
(-0.0307879 -0.0307788 0)
(-0.0329419 -0.0276649 0)
(-0.0353807 -0.0251067 0)
(-0.0379212 -0.0229186 0)
(-0.0404145 -0.0209968 0)
(-0.0428651 -0.0193476 0)
(-0.0450157 -0.0179904 0)
(-0.00453333 0.0320812 0)
(-0.0124947 0.0215005 0)
(-0.0197303 -6.61817e-05 0)
(-0.0242523 -0.0212053 0)
(-0.0274207 -0.0390818 0)
(-0.0283951 -0.0538316 0)
(-0.0280075 -0.063619 0)
(-0.0275396 -0.0676724 0)
(-0.027386 -0.0676055 0)
(-0.0274439 -0.0650753 0)
(-0.0275487 -0.0611675 0)
(-0.027547 -0.0563778 0)
(-0.0273775 -0.050909 0)
(-0.0271345 -0.0449943 0)
(-0.0270742 -0.0390471 0)
(-0.0275247 -0.0336067 0)
(-0.0286746 -0.0290711 0)
(-0.0304447 -0.0255027 0)
(-0.0326102 -0.0226966 0)
(-0.0349529 -0.0204308 0)
(-0.0373203 -0.0185806 0)
(-0.0396792 -0.0171347 0)
(-0.0417853 -0.0161216 0)
(-0.00393525 0.0398454 0)
(-0.011233 0.0290299 0)
(-0.018168 0.00565211 0)
(-0.0227067 -0.0172987 0)
(-0.0255372 -0.0370013 0)
(-0.0259139 -0.0537674 0)
(-0.0253668 -0.0641524 0)
(-0.0250102 -0.0679658 0)
(-0.0251239 -0.0675608 0)
(-0.025521 -0.0648509 0)
(-0.0259952 -0.0609615 0)
(-0.0263478 -0.0563411 0)
(-0.0264402 -0.0510749 0)
(-0.0262679 -0.0452311 0)
(-0.0259995 -0.0390637 0)
(-0.0259765 -0.0330797 0)
(-0.026557 -0.0278576 0)
(-0.0278482 -0.0237102 0)
(-0.0296709 -0.0205521 0)
(-0.0317793 -0.0181327 0)
(-0.0339809 -0.0162865 0)
(-0.0362154 -0.0149797 0)
(-0.0382511 -0.0142359 0)
(-0.00312391 0.0466199 0)
(-0.00952416 0.0359672 0)
(-0.0157166 0.0112221 0)
(-0.0200915 -0.0135926 0)
(-0.0223508 -0.0354319 0)
(-0.0220853 -0.0540527 0)
(-0.0215791 -0.0646581 0)
(-0.0214887 -0.0680125 0)
(-0.0219993 -0.0671603 0)
(-0.0228195 -0.0642244 0)
(-0.0237175 -0.0603437 0)
(-0.0244896 -0.0559283 0)
(-0.0249602 -0.0509792 0)
(-0.0250448 -0.0454252 0)
(-0.024797 -0.0393343 0)
(-0.0244707 -0.0330545 0)
(-0.0244972 -0.0272065 0)
(-0.0252216 -0.0223743 0)
(-0.0266167 -0.018736 0)
(-0.0284246 -0.0160718 0)
(-0.0304198 -0.0141591 0)
(-0.0324935 -0.0129236 0)
(-0.0344274 -0.0123825 0)
(-0.0021066 0.0520187 0)
(-0.00739422 0.041922 0)
(-0.012616 0.0159218 0)
(-0.0163799 -0.0103474 0)
(-0.0178219 -0.0344577 0)