/*--------------------------------*- C++ -*----------------------------------*\
| =========                 |                                                 |
| \\      /  F ield         | OpenFOAM: The Open Source CFD Toolbox           |
|  \\    /   O peration     | Version:  2312                                  |
|   \\  /    A nd           | Website:  www.openfoam.com                      |
|    \\/     M anipulation  |                                                 |
\*---------------------------------------------------------------------------*/
FoamFile
{
    version     2.0;
    format      ascii;
    arch        "LSB;label=32;scalar=64";
    class       volScalarField;
    location    "4.95";
    object      alpha.air;
}
// * * * * * * * * * * * * * * * * * * * * * * * * * * * * * * * * * * * * * //

dimensions      [0 0 0 0 0 0 0];

internalField   nonuniform List<scalar> 
2268
(
9.8969e-10
9.94642e-10
9.5092e-10
9.4177e-10
9.47316e-10
9.26947e-10
6.34407e-10
3.07863e-10
1.51058e-10
1.07764e-10
1.05494e-10
1.05664e-10
1.12424e-10
1.22927e-10
1.44559e-10
1.74817e-10
2.15677e-10
2.39729e-10
2.34212e-10
2.34864e-10
6.22971e-08
4.21047e-07
5.57501e-07
1.29992e-09
1.39285e-09
1.57601e-09
2.38681e-09
3.82119e-09
5.52935e-09
5.09374e-09
2.00306e-09
7.91602e-10
7.55841e-10
5.95771e-10
5.07181e-10
5.01175e-10
5.25508e-10
5.51048e-10
6.51019e-10
1.02009e-09
1.29659e-09
9.294e-10
2.31774e-10
2.20601e-07
7.23228e-07
7.23804e-07
2.83476e-09
2.7055e-09
2.74287e-09
2.12147e-09
5.4108e-09
1.48962e-08
1.58946e-08
1.51374e-08
8.24985e-09
2.71497e-09
2.8718e-09
1.6808e-09
1.42193e-09
1.16909e-09
8.2845e-10
9.47691e-10
2.28845e-09
3.36766e-09
2.02077e-09
2.0894e-08
8.23877e-08
1.78349e-07
2.33161e-07
1.97005e-09
1.96734e-09
1.9676e-09
1.96492e-09
1.9676e-09
1.96734e-09
1.96991e-09
7.42848e-09
2.08514e-08
1.53136e-09
1.53601e-09
1.53592e-09
2.40394e-09
8.87378e-09
1.23088e-08
3.01014e-08
2.27884e-09
7.63235e-09
2.72942e-09
8.40154e-09
1.45762e-08
2.29968e-08
2.04933e-08
0.000270685
0.000307244
0.000444092
0.000577212
0.00051947
0.000263848
4.43655e-05
7.33456e-09
6.47664e-07
4.97254e-06
2.38051e-06
2.46886e-06
2.33091e-09
2.15462e-08
9.77973e-07
4.10492e-06
4.88341e-06
8.62832e-09
4.02005e-09
9.81097e-09
3.33741e-06
2.2822e-05
1.32261e-05
0.00132749
0.00132747
0.00132749
0.00132747
0.00132748
0.00132748
0.00127433
0.000553201
6.10055e-07
1.98571e-05
0.000127377
0.000163042
0.000102565
2.80957e-05
3.28135e-06
4.71411e-06
0.00022224
0.00162991
0.00357587
0.0044772
0.00533466
0.00590484
0.00565368
0.000413084
0.000489358
0.000549193
0.00086826
0.00128308
0.0013275
0.00132749
0.00123039
0.000683944
2.12261e-05
9.24139e-05
0.000163122
0.000163121
9.96788e-05
8.04497e-06
5.27196e-06
0.000597178
0.00623437
0.010359
0.0103573
0.0103592
0.0103575
0.0103592
0.000253801
0.00025368
0.000253274
0.000252918
0.000261896
0.000321961
0.000285959
0.000257533
0.000241707
8.62335e-05
7.49389e-05
9.75184e-05
0.000103678
6.91738e-05
2.32602e-05
2.13031e-05
0.000227084
0.00351498
0.00427337
0.00401923
0.00538881
0.00816904
0.00802498
0.000231476
0.000461565
0.00493797
0.00747052
0.00765477
0.00743902
0.00488645
0.0026131
0.00212544
0.00212109
0.0021127
0.00211338
0.00211371
0.00211438
0.00211481
0.0031955
0.004237
0.00451094
0.00484661
0.000229402
0.000229506
0.000229059
0.00123458
0.00164303
0.00328272
0.00823004
0.00779668
0.00535567
0.00313919
0.00211364
0.00211362
0.00211427
0.00211464
0.00211489
0.00276659
0.00554835
0.00654822
0.00686682
0.00556161
0.00661629
0.0102339
0.0111317
0.00916044
0.00631735
0.00851722
0.0156092
0.0151799
0.0102974
0.00531266
0.00359638
0.00230089
0.00239798
0.00866816
0.0159508
0.0157356
0.00657306
0.0136684
0.0119501
0.0145723
0.0233667
0.0233663
0.0235281
0.0256207
0.019771
0.0173896
0.0173917
0.0159984
0.0165157
0.0165145
0.0185736
0.0189438
0.022475
0.037088
0.0157926
0.0406437
0.0196505
0.00736442
0.00637006
0.0168215
0.0158579
0.0090846
0.035474
0.0323161
0.00885993
0.009154
0.0132411
0.0297461
0.0129602
0.0107863
0.0106586
0.0345717
0.0452095
0.0660552
0.0705586
0.0195613
0.0049795
0.00373295
0.00381549
0.0017682
0.0017682
0.0127458
0.0340688
0.0110769
0.0119737
0.040719
0.0956375
0.0173014
0.0137539
0.0222931
0.0608688
0.0625166
0.0820174
0.0833674
0.0199678
0.00456841
0.00258662
0.00185434
0.00176811
0.0017682
0.00195216
0.0267382
0.0145526
0.0123925
0.0900483
0.0957695
0.0630662
0.0115774
0.0180627
0.0246522
0.0141886
0.00775891
0.0816028
0.0631095
0.00490036
0.00467563
0.00436549
0.00176811
0.00176811
0.0017781
0.0071984
0.00378961
0.00322244
0.0706206
0.0954801
0.0788383
0.00377921
0.00718957
0.0249063
0.00349804
0.00402848
0.0780548
0.0781983
0.0085585
0.000635286
0.000257957
0.000273957
0.000212514
0.000207074
0.000197162
0.000197119
0.000197207
0.000219025
0.000221894
0.000153986
0.000127625
0.000129889
7.54369e-05
3.01699e-05
3.96527e-05
4.43602e-05
4.62517e-05
0.000539577
0.00109801
0.00126229
0.00116517
0.0398142
0.0213512
0.00486118
0.00239364
0.0071853
0.0250853
0.0318479
0.0225772
0.00791976
0.00101151
0.000302907
0.000449255
0.00024137
0.000245355
0.00025411
0.000141466
0.000695934
0.00371367
0.0051828
0.00533496
0.00617253
0.0156001
0.0161259
0.0398142
0.0398142
0.0255076
0.00242195
0.00712815
0.0683683
0.0759929
0.0760215
0.0725005
0.0513677
0.0410879
0.0315915
0.0147571
0.00536986
0.00690561
0.0275443
0.0509935
0.0509584
0.0412055
0.0367913
0.040147
0.0401603
0.0401638
0.0320449
0.0140616
0.0154235
0.0136785
0.0134562
0.0483762
0.0760479
0.0759929
0.0760215
0.0759624
0.0759942
0.0456345
0.0468356
0.0670731
0.0671226
0.0671226
0.0560269
0.0222155
0.0233818
0.0369724
0.0401526
0.0284929
0.0111481
0.000524487
0.000528754
0.0252192
0.025432
0.0221959
0.0638545
0.0759858
0.0658767
0.0242126
0.0254559
0.0262699
0.0174256
0.0225205
0.0425415
0.0396587
0.0201546
0.00258577
0.00232201
0.00988843
0.00646588
0.00366167
0.00105937
0.000297011
0.000520237
0.00201079
0.00208485
0.0103905
0.000231769
0.00699252
0.0292335
0.00957029
0.000151531
0.00019716
0.000192898
0.000148186
0.000153738
0.000348993
0.000342455
0.000152418
4.00238e-05
2.46285e-05
2.48974e-05
2.51419e-05
7.19606e-05
0.00059359
0.000264406
0.000412631
0.000142417
0.000118689
0.000145859
0.000162681
0.000151641
0.00013943
7.69231e-05
4.38945e-05
5.25471e-05
6.6763e-05
5.00278e-05
7.18938e-05
0.000105681
0.000102188
4.55628e-05
2.44847e-05
2.46078e-05
0.076352
0.17993
0.221185
0.225568
0.269267
4.68851e-05
7.97493e-06
4.15246e-07
1.49857e-07
3.31384e-07
5.04241e-08
8.25319e-07
4.40405e-05
5.76873e-05
6.63088e-05
0.000106574
4.40274e-09
-4.93929e-13
-5.19047e-09
-3.38127e-11
0.00191309
0.0505621
0.259555
0.664846
0.862313
0.908715
0.917998
0.938834
0.0350459
0.0335472
0.0296244
0.0285062
0.0322007
0.0338469
0.0307335
0.0259166
0.0219217
0.0190308
0.0178992
0.0179662
0.0204639
0.0358916
0.0890489
0.247856
0.607424
0.902305
0.979947
0.98276
0.99707
0.999259
0.999633
0.68906
0.689198
0.682535
0.68021
0.6917
0.698304
0.690045
0.673552
0.658018
0.64554
0.640351
0.640155
0.642285
0.659911
0.757303
0.925048
0.981887
0.983105
0.983081
0.993937
0.99996
0.999987
0.999999
0.999607
0.999689
0.999831
0.999889
0.999922
0.999853
0.999634
0.999422
0.999193
0.998793
0.997282
0.996665
0.997975
0.999433
0.999546
0.997219
0.98341
0.984701
0.996241
0.999995
1
1
1
1
1
1
1
1
1
1
1
0.999999
1
0.999999
0.999998
0.999997
0.999998
0.999998
0.999998
0.999649
0.999303
0.999998
1
0.999999
1
0.999999
1
1
1
1
1
0.999999
1
0.999999
0.999999
0.999999
0.999999
0.999997
0.999997
0.999998
0.999998
0.999997
0.999996
0.999993
0.999988
0.999982
0.999991
0.999999
0.999966
0.999999
1
1
1
0.999999
0.999999
0.999999
0.999999
0.999998
0.999998
0.999988
0.999977
0.999987
0.999993
0.999976
0.999954
0.99995
0.999951
0.999951
0.999965
0.999992
0.999972
0.999958
0.999999
1
1
1
0.999999
0.999999
0.999999
0.999998
0.999998
0.999996
0.999957
0.999953
0.999953
0.999953
0.999954
0.999959
0.999947
0.999947
0.999957
0.999983
0.999998
0.999977
0.999959
1
1
1
1
1
1
0.999999
0.999998
0.999998
0.999994
0.999964
0.999953
0.999957
0.999989
0.999997
0.999986
0.999967
0.999969
0.999991
0.999999
0.999999
0.999996
0.999987
1
1
1
1
1
1
1
1
0.999999
0.999998
1
0.999999
0.999999
1
1
1
0.999999
0.999998
1
1
1
1
1
1
1
1
1
1
1
1
1
1
1
1
1
1
1
1
1
1
1
1
1
1
1
0.999999
1
1
1
1
1
1
1
1
1
1
1
1
1
1
1
1
1
1
1
1
1
1
0.999999
1
1
1
1
1
1
1
1
1
1
1
1
1
1
1
1
1
1
1
1
1
1
0.999999
1
1
1
1
1
1
1
1
1
1
1
1
1
1
1
1
1
1
1
1
1
1
1
1
1
1
1
1
1
1
1
1
1
1
1
1
1
1
1
1
1
1
1
1
1
1
1
1
1
1
1
1
1
1
1
1
1
1
1
1
1
1
1
1
1
1
1
1
1
1
1
1
1
1
1
1
1
1
1
1
1
1
1
1
1
1
1
1
1
1
1
1
1
1
1
1
1
1
1
1
1
1
1
1
1
1
1
1
1
1
1
1
1
1
1
1
1
1
1
1
1
1
1
1
1
1
1
1
1
1
1
1
1
1
1
1
1
1
1
1
1
1
1
1
1
1
1
1
1
1
1
1
1
1
1
1
1
1
1
1
1
1
1
1
1
1
1
1
1
1
1
1
1
1
1
1
1
1
1
1
1
1
1
1
1
1
1
1
1
1
1
1
1
1
1
1
1
1
1
1
1
1
1
1
1
1
1
1
1
1
1
1
1
1
1
1
1
1
1
1
1
1
1
1
1
1
1
1
1
1
1
1
1
1
0.999999
1
1
1
1
1
1
1
1
1
1
1
1
1
1
1
1
1
1
1
1
1
0.999999
0.999999
1
1
1
1
1
1
1
1
1
1
1
1
1
1
1
1
1
1
1
1
1
0.999999
0.999999
1
1
1
1
1
1
1
1
1
1
1
1
1
1
1
1
1
1
1
1
1
0.999999
0.999999
1
1
1
1
1
1
1
1
1
1
1
1
1
1
1
1
1
1
1
1
0.999999
0.999999
1
1
1
1
1
1
1
1
1
1
1
1
1
1
1
1
1
1
1
1
1
0.999999
0.999999
1
1
1
1
1
1
1
1
1
1
1
1
1
1
1
1
1
1
1
1
1
0.999999
0.999999
1
1
1
1
1
1
1
1
1
1
1
1
1
1
1
1
1
1
1
1
1
0.999999
0.999999
1
1
1
1
1
1
1
1
1
1
1
1
1
1
1
1
1
1
1
1
1
0.999999
0.999999
1
1
1
1
1
1
1
1
1
1
1
1
1
1
1
1
1
1
1
1
1
0.999999
0.999999
1
1
1
1
1
1
1
1
1
1
1
1
1
1
1
1
1
1
1
1
1
0.999999
1
1
1
1
1
1
1
1
1
1
1
1
1
1
1
1
1
1
1
1
1
1
1
1
1
1
1
1
1
1
1
1
1
1
1
1
1
1
1
1
1
1
1
0.0039089
0.00581835
0.0103065
0.0270407
0.0113614
0.0221103
0.0362515
0.0362517
0.0245852
0.000893638
0.00297952
0.00242201
0.00248473
3.1584e-05
3.14952e-05
3.15138e-05
0.000269831
0.000394974
0.000433545
0.000505619
0.000263264
0.000413756
0.00077628
0.000782092
0.31096
0.318355
0.321703
0.335898
0.958078
0.960531
0.959488
0.963597
0.999776
0.999875
0.999757
0.999435
1
0.999999
1
1
0.999987
0.999974
0.999996
1
0.999964
0.999958
0.999959
0.999983
0.999958
0.999958
0.999958
0.999968
0.999958
0.999958
0.99996
0.999966
0.999958
0.999959
0.999963
0.999951
0.999983
0.999985
0.999962
0.999945
1
1
0.999967
0.999945
1
0.999999
0.999991
0.999967
0.999999
0.999999
0.999999
0.999999
0.999999
0.999999
1
1
0.999999
0.999999
1
1
1
1
1
1
1
1
1
1
1
1
1
1
1
1
1
1
1
1
1
1
1
1
1
1
1
1
1
1
1
1
1
1
1
1
1
1
1
1
1
1
1
1
1
1
1
1
1
1
1
1
1
1
1
1
1
1
1
1
1
1
1
1
1
1
1
1
1
1
1
1
1
1
1
1
1
1
1
1
1
1
1
1
1
1
0.0192914
0.00577498
0.00334697
0.00202006
0.00339421
0.00308691
0.00315533
0.00321492
0.00322161
0.0334222
0.0955278
0.0727819
0.00376912
0.00377252
0.0104315
0.00349592
0.0232064
0.0289847
0.0781896
0.0223226
0.00620869
0.0168583
0.0829224
0.0844532
0.0523198
0.0223034
0.0221025
0.0347133
0.0680992
0.0952983
0.0952922
0.0365978
0.00345484
0.0113347
0.0286587
0.0285964
0.0251962
0.0279365
0.00233582
0.0610256
0.188663
0.188563
0.182501
0.12019
0.104214
0.0183624
0.014421
0.0549674
0.0952922
0.0895533
0.00933644
0.00207077
0.00483244
0.00600444
0.0110356
0.0330321
0.0331482
0.0149807
0.16532
0.188175
0.100219
0.000432907
0.000434384
0.00125934
0.00277158
0.00135682
0.0244073
0.0951172
0.0791792
0.000108292
0.000106359
6.70507e-05
0.000179312
0.00377822
0.00517285
0.00455108
0.00446317
0.101731
0.125806
0.000432758
0.000434342
0.000433445
0.000583079
0.00116042
0.00135973
0.00261682
0.0307094
0.0454962
0.00231775
0.00180716
0.000122385
3.7287e-06
2.87341e-06
2.87341e-06
2.87341e-06
0.000782847
0.073277
0.142479
0.0719068
0.00225993
0.000637541
0.00170863
0.00141208
0.00136094
0.00139185
0.00172893
0.00204041
0.00210831
0.0020187
0.00172583
0.00106229
0.000796692
0.000618349
2.87341e-06
0.342387
0.299766
0.279334
0.265896
0.237727
0.176078
0.0855853
0.0441037
0.0379327
0.0365044
0.0131258
0.00496272
0.0119377
0.0222548
0.035657
0.0409386
0.080426
0.205856
0.327062
0.968579
0.941759
0.915137
0.892019
0.846051
0.797898
0.774302
0.757247
0.754643
0.72673
0.655614
0.605001
0.638706
0.670711
0.703201
0.704498
0.795668
0.909141
0.909707
0.999368
0.999808
0.999928
0.99979
0.999469
0.999303
0.999207
0.999516
0.999742
0.999622
0.999727
0.999514
0.999292
0.998439
0.996173
0.995492
0.996885
0.996947
0.996783
1
0.999956
0.999993
1
1
0.999994
0.999901
0.999861
0.999936
0.999995
0.999997
0.999998
0.999973
0.999948
0.999956
0.999964
0.99997
0.999969
0.999958
1
1
0.999999
1
1
0.999877
0.999761
0.999761
0.999836
0.999992
0.999996
0.999999
0.999988
0.999951
0.999884
0.999906
0.999943
0.999933
0.999908
1
1
1
1
0.99999
0.999775
0.999761
0.99976
0.999885
0.999994
0.999999
0.999999
0.999999
0.999878
0.999874
0.999874
0.999875
0.999877
0.999877
0.999998
1
1
1
0.999989
0.999762
0.999761
0.999761
0.999913
0.999998
1
0.999968
0.999993
0.999948
0.999874
0.999876
0.999944
0.999972
0.999956
0.999966
0.999987
1
1
0.999987
0.999854
0.999884
0.999826
0.999946
0.999998
0.999886
0.999864
0.999897
0.999981
0.999946
0.999944
0.999955
0.999985
0.999992
0.999947
0.999947
0.999996
1
0.999889
0.99997
0.999968
0.999957
0.999892
0.999892
0.99989
0.999921
0.999933
0.999981
0.999954
0.999952
0.999952
0.999974
0.999991
0.999947
0.999948
0.999962
0.999923
0.999881
0.999973
0.999968
0.999981
0.99998
0.999973
0.999976
0.999977
0.999972
0.999966
0.999958
0.999952
0.999955
0.999984
0.999987
0.999985
0.999988
0.999907
0.999889
0.999941
0.999976
0.999953
0.999953
0.999968
0.999974
0.999952
0.999951
0.999954
0.999955
0.999961
0.999962
0.999977
0.999993
0.999987
0.999997
0.999997
0.999943
0.99989
0.99998
0.99999
0.999973
0.999952
0.999952
0.999952
0.999951
0.999951
0.999958
0.999984
0.999994
0.999996
0.999978
0.999992
0.999995
1
0.999998
0.999994
0.999976
0.999995
0.999994
0.999992
0.999989
0.999992
0.999991
0.999983
0.99996
0.999962
0.999965
0.999987
0.999996
0.999979
0.999981
0.999998
1
0.999999
0.999999
1
0.999999
0.999988
0.999987
0.999986
0.999987
0.999994
1
0.999998
0.999972
0.999964
0.999964
0.999985
0.999986
0.999981
0.999998
1
1
1
1
0.999999
0.999997
0.999994
0.999992
0.999995
0.999999
1
1
1
0.999986
0.999964
0.999981
0.999997
0.999982
0.999998
1
1
1
1
1
1
1
1
1
1
1
1
1
1
1
0.999999
0.999998
0.999996
0.999998
1
1
1
1
1
1
1
1
1
1
1
1
1
1
1
1
0.999999
0.999997
0.999999
1
1
1
1
1
1
1
1
1
1
1
1
1
1
1
1
0.999998
0.999997
0.999999
1
1
1
1
1
1
1
1
1
1
1
1
1
1
1
1
0.999999
0.999999
0.999999
1
1
1
1
1
1
1
1
1
1
1
1
1
1
1
1
1
1
1
1
1
1
1
1
1
1
1
1
1
1
1
1
1
1
1
1
1
1
1
1
1
1
1
1
1
1
1
1
1
1
1
1
1
1
1
1
1
1
1
1
1
1
1
1
1
1
1
1
1
1
1
1
1
1
1
1
1
1
1
1
1
1
1
1
1
1
1
1
1
1
1
1
1
1
1
1
1
1
1
1
1
1
1
1
1
1
1
1
1
1
1
1
1
1
1
1
1
1
1
1
1
1
1
1
1
1
1
1
1
1
1
1
1
1
1
1
1
1
1
1
1
1
1
1
1
1
1
1
1
1
1
1
1
1
1
1
1
1
1
1
1
1
1
1
0.999999
1
1
1
1
1
0.999998
1
1
1
1
1
1
1
1
1
1
1
1
0.999996
0.999994
1
1
1
1
0.999997
1
1
1
1
1
1
1
1
1
1
1
1
0.999996
0.999993
0.999995
1
1
1
0.999997
1
1
1
1
1
1
1
1
1
1
1
1
0.999999
0.999995
0.999994
0.999997
1
1
0.999997
1
1
1
1
1
1
1
1
1
1
1
1
1
0.999998
0.999994
0.999994
0.999999
1
0.999998
1
1
1
1
1
1
1
1
1
1
1
1
1
1
0.999998
0.999994
0.999994
0.999999
0.999998
1
1
1
1
1
1
1
1
1
1
1
1
1
1
1
0.999998
0.999996
0.999997
0.999998
1
1
1
1
1
1
1
1
1
1
1
1
1
1
1
1
0.999999
0.999999
1
1
1
1
1
1
1
1
1
1
1
1
1
1
1
1
1
1
1
1
)
;

boundaryField
{
    leftWall
    {
        type            alphaContactAngle;
        thetaProperties 
6
(
(galistan air) 90 0 0 0
(oil galistan) 90 0 0 0
(water oil) 90 0 0 0
(water air) 90 0 0 0
(oil air) 90 0 0 0
(water galistan) 90 0 0 0
);
        value           nonuniform List<scalar> 
50
(
9.8969e-10
1.29992e-09
2.83476e-09
1.97005e-09
0.000270685
0.00132749
0.000413084
0.000253801
0.0085585
0.0398142
0.0398142
0.0320449
0.000524487
0.000520237
0.000412631
4.68851e-05
0.0350459
0.68906
0.999607
1
1
0.999999
0.999999
1
1
1
1
1
1
1
1
1
1
1
1
1
1
1
1
1
1
1
1
1
1
1
1
1
1
1
)
;
    }
    rightWall
    {
        type            alphaContactAngle;
        thetaProperties 
6
(
(galistan air) 90 0 0 0
(oil galistan) 90 0 0 0
(water oil) 90 0 0 0
(water air) 90 0 0 0
(oil air) 90 0 0 0
(water galistan) 90 0 0 0
);
        value           nonuniform List<scalar> 
50
(
0.00484661
0.00686682
0.0136684
0.0196505
0.0195613
0.0199678
0.0631095
0.0781983
0.0781896
0.0279365
0.0331482
0.00455108
2.87341e-06
2.87341e-06
0.327062
0.909707
0.996783
0.999958
0.999908
0.999877
0.999956
0.999992
0.999991
0.999987
0.999987
0.999995
0.999998
0.999998
0.999998
0.999998
0.999999
0.999999
0.999999
1
1
1
1
1
1
1
1
0.999998
0.999997
0.999997
0.999997
0.999998
0.999998
0.999998
1
1
)
;
    }
    lowerWall
    {
        type            alphaContactAngle;
        thetaProperties 
6
(
(galistan air) 90 0 0 0
(oil galistan) 90 0 0 0
(water oil) 90 0 0 0
(water air) 90 0 0 0
(oil air) 90 0 0 0
(water galistan) 90 0 0 0
);
        value           nonuniform List<scalar> 
62
(
9.8969e-10
9.94642e-10
9.5092e-10
9.4177e-10
9.47316e-10
9.26947e-10
6.34407e-10
3.07863e-10
1.51058e-10
1.07764e-10
1.05494e-10
1.05664e-10
1.12424e-10
1.22927e-10
1.44559e-10
1.74817e-10
2.15677e-10
2.39729e-10
2.34212e-10
2.34864e-10
6.22971e-08
4.21047e-07
5.57501e-07
5.57501e-07
7.23804e-07
2.33161e-07
2.04933e-08
1.32261e-05
0.00565368
0.0103592
0.00802498
0.0039089
0.00581835
0.0103065
0.0270407
0.000231476
0.000229402
0.00556161
0.0119501
0.00736442
0.0049795
0.00456841
0.00490036
0.000231476
0.000461565
0.00493797
0.00747052
0.00765477
0.00743902
0.00488645
0.0026131
0.00212544
0.00212109
0.0021127
0.00211338
0.00211371
0.00211438
0.00211481
0.0031955
0.004237
0.00451094
0.00484661
)
;
    }
    atmosphere
    {
        type            inletOutlet;
        inletValue      uniform 1;
        value           nonuniform List<scalar> 
46
(
1
1
1
1
1
1
1
1
1
1
1
1
1
1
1
1
1
1
1
1
1
1
1
1
1
1
1
1
1
1
1
1
1
1
1
1
1
1
1
1
1
1
1
1
1
1
)
;
    }
    defaultFaces
    {
        type            empty;
    }
}


// ************************************************************************* //
