/*--------------------------------*- C++ -*----------------------------------*\
| =========                 |                                                 |
| \\      /  F ield         | OpenFOAM: The Open Source CFD Toolbox           |
|  \\    /   O peration     | Version:  2312                                  |
|   \\  /    A nd           | Website:  www.openfoam.com                      |
|    \\/     M anipulation  |                                                 |
\*---------------------------------------------------------------------------*/
FoamFile
{
    version     2.0;
    format      ascii;
    arch        "LSB;label=32;scalar=64";
    class       volScalarField;
    location    "4.95";
    object      alphas;
}
// * * * * * * * * * * * * * * * * * * * * * * * * * * * * * * * * * * * * * //

dimensions      [0 0 0 0 0 0 0];

internalField   nonuniform List<scalar> 
2268
(
2
2
2
2
2
2
2
2
2
2
2
2
2
2
2
2
2
2
2
2
1.99996
1.99996
1.99996
2
2
2
2
2
2
2
2
2
2
2
2
2
2
2
2
2
2
2
2
1.99999
1.99997
1.99998
2
2
2
2
2
2
2
2
2
2
2
2
2
2
2
2
2
2
2
2
2
2
2
2
2
2
2
2
2
2
2
2
2
2
2
2
2
2
2
2
2
2
2
2
2
2
1.99876
1.99851
1.9984
1.99874
1.99959
2.00012
2.00004
1.99999
1.99998
1.99995
1.99999
2
2
2
2
2
2
2
2
2
2
2.00002
2.00001
0.84719
0.871862
0.930351
1.02038
1.14173
1.28701
1.4495
1.61407
1.75817
1.86727
1.93602
1.98024
1.99966
1.99867
1.99606
1.99425
1.9912
1.98104
1.96068
1.94997
1.93026
1.9111
1.8783
0.00281761
0.00352311
0.00584218
0.0126134
0.0257195
0.0499927
0.0956105
0.178264
0.306439
0.4755
0.669882
0.83342
0.947581
1.01457
1.02265
1.00195
1.01391
1.05634
0.991143
0.857276
0.756034
0.656622
0.530955
0.000775291
0.00076601
0.000765336
0.000772861
0.000801917
0.00105753
0.00111044
0.00094845
0.00077594
0.000511354
0.000541464
0.000854824
0.0032939
0.00392841
0.000399644
0.000671893
0.0524563
0.0859806
0.084963
0.0448524
0.0705125
0.0954363
0.0692736
1.94516
1.95572
1.96849
1.97454
1.96842
1.965
1.95776
1.95544
1.95608
1.95609
1.95608
1.95878
1.9631
1.96445
1.96535
1.96768
1.97028
1.97013
1.97009
1.91473
1.92772
1.93799
1.95085
1.95753
1.96271
1.97225
1.97149
1.96613
1.96223
1.96203
1.96516
1.96807
1.9615
1.9378
1.94868
1.96301
1.94476
1.90186
1.35843
1.37776
1.45224
1.50429
1.5667
1.64766
1.70597
1.71671
1.70048
1.67324
1.65245
1.63643
1.61713
1.57737
1.532
1.57558
1.54178
1.3167
1.26842
0.286069
0.186448
0.29144
0.330954
0.329171
0.380004
0.44112
0.491616
0.512056
0.459464
0.469519
0.597261
0.944344
1.15843
1.21333
1.12686
0.412935
0.267606
0.475331
0.194642
0.0223913
0.0537504
0.0510233
0.0306199
0.109788
0.10509
0.0437861
0.0491771
0.0584389
0.105161
0.0563877
0.0509567
0.231224
0.625658
0.322029
0.254633
0.264239
0.346463
0.0824334
0.0163845
0.0165103
0.0138958
0.0139442
0.0480699
0.112276
0.0533905
0.0567329
0.142761
0.319733
0.0641924
0.0561324
0.197329
0.419952
0.255442
0.302667
0.310367
0.170409
0.0403199
0.0171811
0.0128743
0.0294359
0.0717365
0.0458116
0.0896188
0.0576784
0.0577282
0.346689
0.336375
0.225416
0.0493534
0.328407
0.531174
0.161394
0.129527
0.308965
0.252239
0.0266265
0.0192486
0.0179969
0.0176786
0.0931509
0.0944286
0.0667737
0.0323777
0.0312432
0.357441
0.413821
0.289578
0.0391094
0.372169
0.543912
0.401211
0.061189
0.298437
0.287604
0.02573
0.00190586
0.000773944
0.000831575
0.000778126
0.000766407
0.000756295
0.000735241
0.000705918
0.000728861
0.000708958
0.000584003
0.000564301
0.000575504
0.000479391
0.000419939
0.00594278
0.0162757
0.00504111
0.00497835
0.00611781
0.00637611
0.0187076
0.150755
0.101174
0.0671752
0.081868
0.0810574
0.0940324
0.0980242
0.0679852
0.0237739
0.00304919
0.000923348
0.00137131
0.000751386
0.000754297
0.000764413
0.00053736
0.00372206
0.0116086
0.0171186
0.017682
0.0202742
0.0484979
0.0496977
0.870344
0.875724
0.85992
0.831094
0.818855
0.813525
0.619528
0.464583
0.376615
0.221135
0.132185
0.0953119
0.0446016
0.0165431
0.0212247
0.0831309
0.156032
0.191901
0.261073
0.373053
0.444348
0.487318
0.504175
1.06461
1.02844
1.03162
1.0294
1.02917
1.09815
1.14833
1.10226
1.02981
0.925104
0.755625
0.498528
0.471429
0.529621
0.530841
0.551144
0.662953
0.867753
1.00402
1.07383
1.0762
1.04155
1.00285
1.00115
1.00157
1.05047
1.05072
1.04431
1.12774
1.15264
1.13259
1.04921
1.05175
1.05226
1.02681
1.02706
1.06112
1.0561
1.02798
1.0086
1.01022
1.02364
1.01357
1.00778
1.00257
1.00106
1.00108
1.00422
1.0042
1.02081
1.00049
1.01409
1.05914
1.01968
1.00041
1.00044
1.00042
1.00039
1.00041
1.00079
1.00079
1.00042
1.00031
0.998926
0.989143
0.999923
1.00061
1.00133
1.00034
1.00086
1.00024
1.00016
1.00024
1.00029
1.00032
1.00039
1.00025
1.00003
0.999915
0.99995
0.999912
0.999971
1.00023
1.00025
0.999978
0.999474
0.98518
1.13722
1.34557
1.4429
1.45142
1.53773
1.00023
0.999861
0.999758
0.999438
0.999295
0.999705
0.999893
0.999949
0.999956
0.999957
1.00003
0.995646
0.988996
0.992666
0.998758
1.00373
1.09843
1.5004
2.31379
2.71035
2.81701
2.83669
2.87757
1.07041
1.0671
1.05921
1.05432
1.05961
1.06324
1.05862
1.05038
1.04298
1.03756
1.03573
1.02881
1.02419
1.05504
1.16135
1.48238
2.21078
2.79093
2.94205
2.95202
2.99339
2.99868
2.99939
2.3783
2.37857
2.36543
2.35912
2.37908
2.39136
2.37482
2.34253
2.3126
2.28796
2.27753
2.27728
2.28208
2.31052
2.4988
2.83341
2.94692
2.9494
2.94929
2.98181
2.99988
2.99996
3
2.99913
2.9993
2.99966
2.99989
2.99992
2.99973
2.99916
2.99857
2.99789
2.99665
2.9921
2.99022
2.99415
2.99908
2.99955
2.99258
2.95036
2.95411
2.98872
2.99999
3
3
3
3
3
3
3
3
3
3
3
3
3
3
3
2.99999
3
3
3
2.99895
2.99791
2.99999
3
3
3
3
3
3
3
3
3
3
3
3
3
3
3
3
3
3
3
2.99999
2.99999
2.99998
2.99997
2.99996
2.99998
3
2.99992
3
3
3
3
3
3
3
3
3
3
2.99998
2.99995
2.99997
2.99999
2.99995
2.99991
2.99989
2.99989
2.99989
2.99991
2.99998
2.99992
2.9999
3
3
3
3
3
3
3
3
2.99999
2.99999
2.99991
2.9999
2.9999
2.9999
2.9999
2.9999
2.99988
2.99988
2.99989
2.99995
3
2.99994
2.9999
3
3
3
3
3
3
3
3
2.99999
2.99999
2.99993
2.99991
2.99991
2.99998
2.99999
2.99996
2.99992
2.99992
2.99997
3
3
2.99999
2.99997
3
3
3
3
3
3
3
3
3
3
3
3
3
3
3
3
3
2.99999
3
3
3
3
3
3
3
3
3
3
3
3
3
3
3
3
3
3
3
3
3
3
3
3
3
3
3
3
3
3
3
3
3
3
3
3
3
3
3
3
3
3
3
3
3
3
3
3
3
3
3
3
3
3
3
3
3
3
3
3
3
3
3
3
3
3
3
3
3
3
3
3
3
3
3
3
3
3
3
3
3
3
3
3
3
3
3
3
3
3
3
3
3
3
3
3
3
3
3
3
3
3
3
3
3
3
3
3
3
3
3
3
3
3
3
3
3
3
3
3
3
3
3
3
3
3
3
3
3
3
3
3
3
3
3
3
3
3
3
3
3
3
3
3
3
3
3
3
3
3
3
3
3
3
3
3
3
3
3
3
3
3
3
3
3
3
3
3
3
3
3
3
3
3
3
3
3
3
3
3
3
3
3
3
3
3
3
3
3
3
3
3
3
3
3
3
3
3
3
3
3
3
3
3
3
3
3
3
3
3
3
3
3
3
3
3
3
3
3
3
3
3
3
3
3
3
3
3
3
3
3
3
3
3
3
3
3
3
3
3
3
3
3
3
3
3
3
3
3
3
3
3
3
3
3
3
3
3
3
3
3
3
3
3
3
3
3
3
3
3
3
3
3
3
3
3
3
3
3
3
3
3
3
3
3
3
3
3
3
3
3
3
3
3
3
3
3
3
3
3
3
3
3
3
3
3
3
3
3
3
3
3
3
3
3
3
3
3
3
3
3
3
3
3
3
3
3
3
3
3
3
3
3
3
3
3
3
3
3
3
3
3
3
3
3
3
3
3
3
3
3
3
3
3
3
3
3
3
3
3
3
3
3
3
3
3
3
3
3
3
3
3
3
3
3
3
3
3
3
3
3
3
3
3
3
3
3
3
3
3
3
3
3
3
3
3
3
3
3
3
3
3
3
3
3
3
3
3
3
3
3
3
3
3
3
3
3
3
3
3
3
3
3
3
3
3
3
3
3
3
3
3
3
3
3
3
3
3
3
3
3
3
3
3
3
3
3
3
3
3
3
3
3
3
3
3
3
3
3
3
3
3
3
3
3
3
3
3
3
3
3
3
3
3
3
3
3
3
3
3
3
3
3
3
3
3
3
3
3
3
3
3
3
3
3
3
3
3
3
3
3
3
3
3
3
3
3
3
3
3
3
3
3
3
3
3
3
3
3
3
3
3
3
3
3
3
3
3
3
3
3
3
3
3
3
3
3
3
3
3
3
3
3
3
3
3
3
3
3
3
3
3
3
3
3
3
3
3
3
3
3
3
3
3
3
3
3
3
3
3
3
3
3
3
3
3
3
3
3
3
0.0343364
0.0401035
0.0784201
0.137531
0.0398477
0.0785523
0.1348
0.13446
0.479004
0.522412
0.668191
0.773707
0.990008
0.997133
1.00427
1.00609
1.00062
1.0011
1.0013
1.00138
1.00002
1.00072
1.00163
1.00165
1.62095
1.63547
1.64324
1.67188
2.91579
2.92052
2.9181
2.92627
2.99973
2.99983
2.99948
2.99849
3
3
3
3
2.99997
2.99994
2.99999
3
2.99992
2.9999
2.9999
2.99996
2.9999
2.9999
2.9999
2.99992
2.9999
2.9999
2.9999
2.99992
2.9999
2.9999
2.99991
2.99987
2.99995
2.99996
2.9999
2.99986
3
3
2.99991
2.99986
3
3
2.99998
2.99991
3
3
3
3
3
3
3
3
3
3
3
3
3
3
3
3
3
3
3
3
3
3
3
3
3
3
3
3
3
3
3
3
3
3
3
3
3
3
3
3
3
3
3
3
3
3
3
3
3
3
3
3
3
3
3
3
3
3
3
3
3
3
3
3
3
3
3
3
3
3
3
3
3
3
3
3
3
3
3
3
3
3
3
3
3
3
3
3
3
3
3
3
3
3
3
3
0.108921
0.0245226
0.0159683
0.013312
0.0908241
0.0973836
0.0615196
0.0312416
0.0312447
0.225567
0.609444
0.355171
0.0384562
0.17391
0.444882
0.100219
0.10077
0.119115
0.275176
0.125803
0.102531
0.147401
0.341934
0.300963
0.188797
0.0911243
0.0878771
0.275344
0.755293
1.00778
0.533011
0.154419
0.0634988
0.0797343
0.114493
0.114875
0.106606
0.116107
0.775789
0.771464
0.985659
0.883501
0.787703
0.762818
0.891876
0.844108
0.98074
1.12823
1.21217
1.14707
0.873068
0.538907
0.33464
0.197931
0.118859
0.17354
0.181669
1.03791
1.30375
1.30115
1.16598
0.998875
1.00249
1.00481
1.00843
1.00637
1.06356
1.21141
1.17075
1.00505
1.00378
0.977841
0.848998
0.828354
0.925957
0.954953
1.00984
1.19855
1.17956
0.972492
0.999835
1.00078
1.00231
1.00308
1.00299
1.00565
1.06326
1.09126
1.00482
1.00406
1.00157
1.00144
1.00165
1.00446
1.00692
1.00166
1.13584
1.21222
1.07025
0.951825
1.00003
1.00334
1.00289
1.00276
1.0026
1.00322
1.00415
1.00414
1.00398
1.00348
1.00244
1.00203
1.00161
1.0044
1.68485
1.59576
1.52253
1.46885
1.42621
1.32859
1.16814
1.08839
1.07781
1.07628
1.02685
1.00844
1.02267
1.04356
1.07052
1.08086
1.15996
1.41422
1.65898
2.93622
2.88352
2.83011
2.78121
2.68607
2.58867
2.5431
2.51131
2.51244
2.4576
2.31534
2.2133
2.28032
2.34328
2.40755
2.40856
2.59321
2.82319
2.82511
2.99828
2.99955
2.99991
2.99939
2.99846
2.99818
2.99842
2.99935
2.99974
2.99962
2.99973
2.99951
2.99929
2.99763
2.99235
2.99178
2.99687
2.99694
2.99677
3
2.99987
2.99998
3
3
2.99999
2.9998
2.99972
2.99987
2.99999
2.99999
3
2.99992
2.99987
2.99991
2.99993
2.99992
2.99993
2.99991
3
3
3
3
3
2.99975
2.99952
2.99952
2.99967
2.99998
2.99999
3
2.99997
2.9999
2.99977
2.99981
2.99988
2.99986
2.99981
3
3
3
3
2.99997
2.99954
2.99952
2.99952
2.99976
2.99998
3
3
3
2.99975
2.99974
2.99974
2.99974
2.99975
2.99975
3
3
3
3
2.99997
2.99952
2.99951
2.99951
2.99982
2.99999
3
2.99994
2.99999
2.99989
2.99974
2.99974
2.99986
2.99994
2.99991
2.99991
2.99997
3
3
2.99997
2.99971
2.99976
2.99963
2.99989
2.99999
2.99977
2.99972
2.99979
2.99996
2.99989
2.99985
2.99987
2.99996
2.99998
2.99986
2.99986
2.99999
3
2.99977
2.99993
2.99991
2.99989
2.99976
2.99977
2.99977
2.99984
2.99987
2.99996
2.9999
2.99987
2.99987
2.99993
2.99998
2.99986
2.99986
2.9999
2.99982
2.99976
2.99993
2.99991
2.99995
2.99995
2.99994
2.99995
2.99995
2.99994
2.99992
2.99989
2.99987
2.99987
2.99996
2.99997
2.99996
2.99997
2.99979
2.99976
2.99988
2.99993
2.99986
2.99986
2.99991
2.99993
2.99988
2.99987
2.99988
2.99988
2.99989
2.99989
2.99995
2.99999
2.99997
2.99999
2.99999
2.99988
2.99976
2.99996
2.99998
2.99992
2.99986
2.99986
2.99986
2.99987
2.99987
2.9999
2.99997
2.99999
2.99999
2.99996
2.99998
2.99999
3
2.99999
2.99999
2.99995
2.99999
2.99999
2.99998
2.99998
2.99998
2.99998
2.99996
2.99992
2.99992
2.99993
2.99997
2.99999
2.99996
2.99996
3
3
3
3
3
3
2.99998
2.99997
2.99997
2.99997
2.99999
3
3
2.99994
2.99993
2.99993
2.99997
2.99997
2.99996
3
3
3
3
3
3
2.99999
2.99999
2.99998
2.99999
3
3
3
3
2.99997
2.99993
2.99996
2.99999
2.99996
3
3
3
3
3
3
3
3
3
3
3
3
3
3
3
3
3
3
2.99999
3
3
3
3
3
3
3
3
3
3
3
3
3
3
3
3
3
3
2.99999
3
3
3
3
3
3
3
3
3
3
3
3
3
3
3
3
3
3
2.99999
3
3
3
3
3
3
3
3
3
3
3
3
3
3
3
3
3
3
3
3
3
3
3
3
3
3
3
3
3
3
3
3
3
3
3
3
3
3
3
3
3
3
3
3
3
3
3
3
3
3
3
3
3
3
3
3
3
3
3
3
3
3
3
3
3
3
3
3
3
3
3
3
3
3
3
3
3
3
3
3
3
3
3
3
3
3
3
3
3
3
3
3
3
3
3
3
3
3
3
3
3
3
3
3
3
3
3
3
3
3
3
3
3
3
3
3
3
3
3
3
3
3
3
3
3
3
3
3
3
3
3
3
3
3
3
3
3
3
3
3
3
3
3
3
3
3
3
3
3
3
3
3
3
3
3
3
3
3
3
3
3
3
3
3
3
3
3
3
3
3
3
3
3
3
3
3
3
3
3
3
3
3
3
3
3
3
3
3
3
3
3
3
3
3
3
3
3
3
3
3
3
3
3
2.99999
2.99999
3
3
3
3
2.99999
3
3
3
3
3
3
3
3
3
3
3
3
2.99999
2.99999
2.99999
3
3
3
2.99999
3
3
3
3
3
3
3
3
3
3
3
3
3
2.99999
2.99999
2.99999
3
3
2.99999
3
3
3
3
3
3
3
3
3
3
3
3
3
3
2.99999
2.99999
3
3
3
3
3
3
3
3
3
3
3
3
3
3
3
3
3
3
2.99999
2.99999
3
3
3
3
3
3
3
3
3
3
3
3
3
3
3
3
3
3
2.99999
2.99999
3
3
3
3
3
3
3
3
3
3
3
3
3
3
3
3
3
3
3
3
3
3
3
3
3
3
3
3
3
3
3
3
3
3
3
3
3
3
3
)
;

boundaryField
{
    leftWall
    {
        type            calculated;
        value           nonuniform List<scalar> 
50
(
2
2
2
2
1.99876
0.84719
0.00281761
0.000775291
0.02573
0.150755
0.870344
1.06461
1.00115
1.00108
1.00086
1.00023
1.07041
2.3783
2.99913
3
3
3
3
3
3
3
3
3
3
3
3
3
3
3
3
3
3
3
3
3
3
3
3
3
3
3
3
3
3
3
)
;
    }
    rightWall
    {
        type            calculated;
        value           nonuniform List<scalar> 
50
(
1.97009
1.90186
1.26842
0.475331
0.346463
0.170409
0.252239
0.287604
0.275176
0.116107
0.181669
0.954953
1.00692
1.0044
1.65898
2.82511
2.99677
2.99991
2.99981
2.99975
2.99991
2.99998
2.99998
2.99997
2.99997
2.99999
3
3
3
3
3
3
3
3
3
3
3
3
3
3
3
3
2.99999
2.99999
2.99999
3
3
3
3
3
)
;
    }
    lowerWall
    {
        type            calculated;
        value           nonuniform List<scalar> 
62
(
2
2
2
2
2
2
2
2
2
2
2
2
2
2
2
2
2
2
2
2
1.99996
1.99996
1.99996
1.99996
1.99998
2
2
2.00001
1.8783
0.530955
0.0692736
0.0343364
0.0401035
0.0784201
0.137531
1.94516
1.91473
1.35843
0.286069
0.194642
0.0824334
0.0403199
0.0266265
1.94516
1.95572
1.96849
1.97454
1.96842
1.965
1.95776
1.95544
1.95608
1.95609
1.95608
1.95878
1.9631
1.96445
1.96535
1.96768
1.97028
1.97013
1.97009
)
;
    }
    atmosphere
    {
        type            calculated;
        value           nonuniform List<scalar> 
46
(
3
3
3
3
3
3
3
3
3
3
3
3
3
3
3
3
3
3
3
3
3
3
3
3
3
3
3
3
3
3
3
3
3
3
3
3
3
3
3
3
3
3
3
3
3
3
)
;
    }
    defaultFaces
    {
        type            empty;
    }
}


// ************************************************************************* //
