/*--------------------------------*- C++ -*----------------------------------*\
| =========                 |                                                 |
| \\      /  F ield         | OpenFOAM: The Open Source CFD Toolbox           |
|  \\    /   O peration     | Version:  2312                                  |
|   \\  /    A nd           | Website:  www.openfoam.com                      |
|    \\/     M anipulation  |                                                 |
\*---------------------------------------------------------------------------*/
FoamFile
{
    version     2.0;
    format      ascii;
    arch        "LSB;label=32;scalar=64";
    class       volScalarField;
    location    "4.95";
    object      alpha.water;
}
// * * * * * * * * * * * * * * * * * * * * * * * * * * * * * * * * * * * * * //

dimensions      [0 0 0 0 0 0 0];

internalField   nonuniform List<scalar> 
2268
(
3.25941e-07
3.24189e-07
2.83232e-07
7.31868e-08
5.9155e-09
1.34339e-09
9.65926e-10
5.86522e-10
2.84638e-10
1.5494e-10
1.10396e-10
8.92367e-11
7.88015e-11
7.5771e-11
8.07987e-11
9.2402e-11
1.1782e-10
1.61151e-10
2.3206e-10
4.13884e-10
8.94588e-10
1.32322e-09
1.41739e-09
2.18472e-07
1.65469e-07
6.90402e-08
2.20738e-08
7.10157e-10
4.61863e-10
3.93514e-10
3.44981e-10
3.31776e-10
2.7451e-10
2.43964e-10
2.10868e-10
1.8368e-10
1.60895e-10
1.42962e-10
1.39181e-10
1.89233e-10
3.04003e-10
4.6161e-10
6.98718e-10
1.12467e-09
1.37064e-09
1.36274e-09
2.92526e-08
2.06341e-08
1.00939e-08
3.5459e-09
4.95147e-09
8.06709e-09
8.07831e-09
5.27123e-09
1.14626e-09
6.93718e-10
6.55707e-10
6.63826e-10
8.04231e-10
8.38115e-10
6.97249e-10
5.8146e-10
5.21553e-10
5.98529e-10
7.16747e-10
8.92825e-10
1.03254e-09
1.04586e-09
9.10237e-10
8.05074e-10
7.69436e-10
5.61634e-10
3.90012e-10
8.38417e-10
1.54844e-09
1.4724e-09
1.29214e-09
5.61931e-10
4.69691e-10
5.90924e-10
1.07937e-09
2.25789e-09
3.26908e-09
3.26697e-09
2.62365e-09
9.15565e-10
5.0807e-10
4.84258e-10
4.8589e-10
6.14198e-10
7.09792e-10
9.0977e-10
1.50807e-20
1.13306e-20
1.00274e-20
8.05743e-21
1.17115e-20
2.27819e-20
2.85414e-20
1.3533e-20
1.66759e-22
1.07706e-28
1.47566e-30
1.42105e-30
1.14503e-11
5.8507e-12
7.58589e-12
5.85023e-12
7.58636e-12
2.03161e-09
1.11592e-09
5.32201e-09
5.6298e-10
6.17091e-10
5.63928e-10
0.574296
0.561959
0.532715
0.487698
0.427025
0.355499
0.275794
0.193233
0.12077
0.0660973
0.0317818
0.00980143
1.09904e-11
0.000271579
0.00163
0.00277149
0.00373597
0.000894831
0.00211026
0.00640657
0.0146083
0.0296681
0.061022
0.998087
0.997701
0.996291
0.992553
0.986172
0.974261
0.952008
0.911346
0.847072
0.762009
0.664792
0.583061
0.525967
0.491914
0.487867
0.497861
0.474803
0.430825
0.462359
0.529314
0.579912
0.62964
0.720738
0.999732
0.999742
0.999742
0.999733
0.999722
0.999586
0.999461
0.999567
0.999707
0.999745
0.999618
0.999468
0.998302
0.997974
0.999745
0.999371
0.947998
0.921049
0.923584
0.963186
0.940265
0.920902
0.946776
0.0140655
0.00793381
0.00411725
0.0031303
0.00635798
0.00795909
0.0103044
0.0103245
0.00975758
0.00974961
0.00975777
0.00840482
0.00624599
0.00514157
0.00424496
0.00411973
0.00359112
0.00380329
0.00399287
0.0135521
0.000948671
0.000938239
0.000948777
0.000939383
0.000951137
0.000941852
0.000953628
0.00094275
0.000991706
0.00138965
0.00116276
0.000524321
7.60021e-05
3.86459e-06
1.12177e-08
-4.72392e-07
-2.60912e-22
-1.15037e-21
0.197052
0.187917
0.155642
0.153436
0.136536
0.0870689
0.0450451
0.0382913
0.0405741
0.0432974
0.0337141
0.0103645
0.00021498
2.618e-05
0.0138532
0.00712581
0.0287094
0.141054
0.168558
0.737873
0.851878
0.785283
0.761915
0.782933
0.76483
0.726829
0.691673
0.669247
0.702141
0.703039
0.618616
0.345237
0.181449
0.155569
0.206113
0.686704
0.82753
0.573149
0.820127
0.99039
0.979933
0.980733
0.98759
0.961201
0.959583
0.975455
0.975456
0.975456
0.960357
0.9756
0.975612
0.796697
0.455456
0.770323
0.8855
0.884997
0.694104
0.927567
0.991183
0.991182
0.989852
0.989809
0.977767
0.956546
0.975454
0.975455
0.947043
0.886016
0.974619
0.975606
0.847446
0.701788
0.871586
0.871415
0.868218
0.870969
0.968858
0.988283
0.991183
0.974572
0.932604
0.958583
0.964238
0.973349
0.971603
0.856008
0.877761
0.91689
0.975615
0.707751
0.518133
0.867749
0.890641
0.865871
0.875422
0.986849
0.990874
0.991183
0.986301
0.911427
0.910547
0.947947
0.975335
0.975334
0.805371
0.79974
0.884939
0.968449
0.64221
0.505903
0.605802
0.946889
0.868815
0.87506
0.991414
0.999365
0.999742
0.999721
0.999717
0.99972
0.99972
0.999731
0.999745
0.999745
0.999745
0.999745
0.999745
0.999745
0.999745
0.999746
0.994144
0.983813
0.995052
0.996178
0.996166
0.996178
0.983623
0.929403
0.941702
0.9429
0.924119
0.935154
0.957954
0.966806
0.977296
0.992073
0.998981
0.99969
0.999539
0.999745
0.999745
0.999745
0.999746
0.99767
0.996052
0.994032
0.993829
0.992951
0.983552
0.983214
0.20987
0.204223
0.192353
0.176156
0.197808
0.325618
0.534417
0.687699
0.768542
0.882016
0.950423
0.96814
0.985078
0.994413
0.99284
0.972207
0.946677
0.914881
0.826925
0.706117
0.640996
0.59655
0.578031
7.1205e-27
-6.18976e-16
-9.52636e-10
4.48203e-23
6.5446e-24
8.22692e-21
0.00462675
0.0499621
0.123509
0.228396
0.397731
0.593855
0.624744
0.608996
0.608344
0.588675
0.454688
0.182265
0.0483341
0.00568808
0.00617331
0.0164582
0.0203792
1.44123e-08
1.43789e-22
6.89862e-05
0.000179636
0.000114393
8.21162e-07
2.2399e-11
8.31308e-25
2.72846e-24
5.61495e-24
0.00095539
0.00865697
0.019497
0.026823
0.0257344
0.0144969
1.76083e-20
1.79129e-20
2.44643e-05
2.70506e-07
2.43197e-07
2.70495e-07
5.16267e-05
-7.582e-12
8.6052e-17
4.49168e-13
3.45815e-07
1.70936e-08
-3.17216e-25
-7.4835e-24
3.00437e-23
3.22318e-06
9.13425e-06
1.61716e-05
9.99348e-06
1.38346e-06
-4.40354e-23
-8.18873e-24
-2.12501e-07
-2.87953e-08
0.0014515
0.0126402
0.0032531
0.000165077
6.55454e-05
0.000393448
2.81747e-06
8.48147e-05
0.00011117
8.40156e-05
6.83731e-05
4.71905e-05
6.95447e-06
4.24441e-05
0.000137114
0.000200232
0.000189689
0.000205389
0.000197523
6.64984e-05
5.51362e-05
0.00016343
0.000598693
0.0148794
0.0187202
0.0181237
0.00291889
6.47924e-05
0.0011254
3.84974e-05
0.000204998
0.000271914
0.000591869
0.000759826
0.00039894
0.00018616
0.000179074
0.00018256
0.000186177
0.000183717
0.00435447
0.011004
0.00739079
0.00134394
0.000182606
0.00270098
0.0187201
0.0187204
0.0181062
0.0039778
0.00044643
0.000742403
0.000179085
0.000359761
0.000227136
0.00277844
0.00517963
0.00522512
0.00358814
0.00202384
0.00128303
0.000756364
0.000185675
0.00722565
0.016849
0.016857
0.0168493
0.0134187
0.00408502
0.0136872
0.0187204
0.0153707
0.00184004
0.000289875
0.00012025
0.000359776
0.000360117
8.45953e-05
0.00157584
0.00488727
0.00618221
0.00622496
0.00553693
0.00440034
0.0039938
0.00366886
0.00345893
0.00303458
0.0098628
0.0163629
0.0168503
0.0168625
0.0168503
0.0168956
0.00606321
3.98866e-05
1.33647e-05
2.67816e-08
0.000239273
0.000193547
8.32609e-05
1.03473e-08
7.77493e-09
6.33707e-05
0.000236272
0.000426482
0.000651723
0.0010725
0.00259286
0.0032222
0.00191025
0.000178502
3.91737e-07
0.00232184
0.0165214
0.0152915
0.00375738
4.57258e-06
4.63252e-09
3.58236e-09
4.15642e-09
7.88176e-09
7.67206e-09
7.86081e-09
9.54064e-09
2.92725e-08
1.07219e-07
1.87365e-07
4.08371e-07
4.52841e-07
1.27989e-07
3.29046e-07
7.42112e-07
1.569e-06
1.06188e-06
4.29102e-07
9.13565e-08
0.000348942
0.000695827
1.77232e-06
5.61865e-08
5.27086e-08
4.15642e-09
3.95564e-09
1.93422e-07
1.14946e-07
6.8457e-08
2.72447e-08
1.00411e-07
2.02192e-07
2.92774e-07
7.67246e-07
7.11271e-07
7.89196e-08
1.52983e-08
1.61009e-08
1.52983e-08
2.83495e-07
1.27214e-06
1.89363e-06
2.78456e-06
2.4534e-06
2.03261e-06
6.85398e-06
7.65867e-06
1.29247e-06
1.50588e-05
5.21284e-07
3.10839e-07
1.17062e-07
4.37778e-08
1.38558e-07
2.70674e-07
4.79075e-07
1.08599e-06
9.71e-07
4.54117e-07
9.54487e-08
6.21482e-07
5.81335e-07
2.86355e-07
3.57108e-07
3.51912e-06
6.66904e-06
7.74301e-06
1.49466e-05
1.51959e-05
7.67439e-06
1.9993e-05
2.00976e-05
5.19612e-07
2.83774e-07
8.94815e-08
6.29503e-08
1.01271e-07
1.92148e-07
5.52527e-07
1.55351e-06
1.84566e-06
1.33755e-06
1.18378e-06
1.7483e-06
1.82644e-06
1.49454e-06
4.17297e-06
1.64427e-05
1.5841e-05
1.83963e-05
1.86088e-05
1.25979e-05
2.88112e-07
1.22035e-05
2.01607e-05
3.75176e-07
1.19621e-07
3.97257e-08
4.81839e-08
3.16134e-08
8.28434e-08
4.39187e-07
1.54553e-06
1.84586e-06
1.84586e-06
1.72007e-06
1.07326e-06
6.78297e-07
4.3738e-07
1.75518e-06
8.53218e-06
1.69277e-05
1.85957e-05
8.57986e-06
8.58046e-07
1.12618e-09
2.94657e-07
7.59154e-06
7.4087e-08
4.24093e-08
3.26338e-08
3.19386e-08
2.02069e-08
3.15344e-08
1.37229e-07
2.51217e-07
9.84781e-07
3.56988e-07
2.07351e-09
2.07412e-09
2.07352e-09
1.77014e-08
7.01121e-08
1.35595e-07
1.2767e-06
1.88516e-06
5.23633e-08
8.50626e-09
1.10312e-09
1.01288e-09
9.65086e-10
2.49587e-08
1.05856e-08
1.39845e-08
1.84161e-08
2.01138e-08
2.66029e-08
1.34504e-08
1.45381e-09
1.44627e-09
1.43865e-09
1.72073e-08
2.11478e-09
2.60005e-09
4.46476e-09
1.24197e-08
2.19876e-08
8.72191e-09
8.66125e-09
1.94154e-08
1.34233e-08
1.85858e-09
8.99365e-08
1.63793e-07
1.05899e-08
5.07999e-09
6.92786e-09
7.9644e-09
9.78724e-09
9.44529e-09
7.30614e-09
3.15308e-09
1.44126e-09
1.43012e-09
1.60938e-09
2.21899e-09
3.06269e-09
4.18626e-09
5.88015e-09
1.02151e-08
1.15941e-08
8.60295e-09
1.15193e-08
5.61181e-09
8.79363e-10
9.54771e-08
3.35532e-07
1.42093e-08
3.36854e-09
4.16712e-09
5.20074e-09
5.26117e-09
5.23496e-09
4.47034e-09
3.28967e-09
2.09078e-09
1.4209e-09
1.35991e-09
1.33079e-09
1.4871e-09
1.81645e-09
2.26548e-09
3.05055e-09
3.94045e-09
3.55855e-09
3.43017e-09
1.67819e-09
9.05163e-10
4.31318e-08
2.24555e-07
1.55264e-08
2.30016e-09
2.13821e-09
2.8e-09
2.74896e-09
2.39368e-09
1.95077e-09
1.50139e-09
1.08964e-09
8.06668e-10
6.9576e-10
6.43908e-10
6.55438e-10
7.60255e-10
8.71297e-10
1.00847e-09
1.18393e-09
1.13697e-09
1.04662e-09
8.20506e-10
9.96614e-10
4.82692e-09
6.52222e-08
1.55098e-08
1.72607e-09
1.13774e-09
1.4314e-09
1.29872e-09
1.01856e-09
7.44555e-10
5.39103e-10
3.98439e-10
3.13407e-10
2.69794e-10
2.54217e-10
2.62507e-10
2.99672e-10
3.34081e-10
3.7494e-10
4.12784e-10
4.21378e-10
4.43914e-10
4.8426e-10
6.53503e-10
2.09254e-09
2.8347e-09
1.53106e-08
1.11859e-09
6.01657e-10
6.92092e-10
5.52592e-10
4.17062e-10
3.04726e-10
2.27838e-10
1.71607e-10
1.32136e-10
1.07428e-10
9.5843e-11
9.48086e-11
1.02796e-10
1.16455e-10
1.33157e-10
1.48748e-10
1.64444e-10
1.92074e-10
2.49922e-10
3.59076e-10
6.01146e-10
2.04634e-09
1.50745e-08
8.05455e-10
3.72291e-10
4.00005e-10
3.29014e-10
2.69866e-10
2.15936e-10
1.74072e-10
1.35738e-10
9.68381e-11
6.78161e-11
4.98394e-11
3.9727e-11
3.59997e-11
3.74749e-11
4.30007e-11
4.9722e-11
6.0154e-11
7.72749e-11
1.07563e-10
1.58419e-10
3.24033e-10
8.52725e-10
1.49259e-08
5.50036e-10
3.08797e-10
3.10574e-10
3.02493e-10
3.05065e-10
3.10114e-10
2.57253e-10
1.90688e-10
1.25825e-10
7.87839e-11
4.73513e-11
2.89148e-11
1.92431e-11
1.45373e-11
1.42299e-11
1.67236e-11
2.14619e-11
2.94823e-11
4.29432e-11
6.80167e-11
1.05775e-10
3.02994e-10
1.48643e-08
3.49352e-10
2.96683e-10
3.51401e-10
4.91283e-10
5.53431e-10
5.31785e-10
3.6367e-10
2.71583e-10
1.78701e-10
1.0675e-10
6.04772e-11
3.368e-11
1.83824e-11
1.03489e-11
6.5122e-12
6.04202e-12
7.66909e-12
1.09892e-11
1.62145e-11
2.36988e-11
4.75416e-11
8.80858e-11
1.47991e-08
2.94831e-10
3.15148e-10
5.00966e-10
7.46967e-10
1.00804e-09
1.09863e-09
5.0588e-10
3.79085e-10
2.50493e-10
1.42752e-10
7.9147e-11
4.34208e-11
2.21841e-11
1.10634e-11
5.42629e-12
2.95323e-12
2.87922e-12
4.00631e-12
6.23898e-12
9.80103e-12
1.38965e-11
2.99304e-11
1.48242e-08
3.19741e-10
3.98203e-10
6.48088e-10
1.05745e-09
2.49675e-09
3.0175e-09
6.29171e-10
4.82345e-10
3.23439e-10
1.75945e-10
9.50383e-11
5.23382e-11
2.76195e-11
1.32817e-11
5.80471e-12
2.51428e-12
1.38108e-12
1.50279e-12
2.24981e-12
3.4656e-12
6.86115e-12
1.04503e-11
1.52021e-08
3.35995e-10
5.31943e-10
1.10669e-09
1.04675e-09
1.86843e-08
1.01262e-08
6.4643e-10
5.54235e-10
3.94858e-10
2.01695e-10
1.04111e-10
5.75538e-11
3.1242e-11
1.551e-11
6.90909e-12
2.76175e-12
9.95786e-13
6.14841e-13
8.18903e-13
1.4442e-12
2.00259e-12
4.23143e-12
1.52812e-08
4.63821e-10
1.21086e-09
8.55555e-09
1.25256e-07
1.88312e-07
2.96245e-08
5.65993e-10
6.30783e-10
4.47068e-10
2.06533e-10
1.0138e-10
5.66185e-11
3.22133e-11
1.6808e-11
7.73106e-12
3.05337e-12
1.06425e-12
3.46348e-13
2.79646e-13
3.91754e-13
8.86263e-13
1.26481e-12
1.61587e-08
8.1886e-10
5.02872e-09
1.61846e-07
5.83813e-07
4.85313e-07
3.23152e-08
5.63978e-10
7.26718e-10
4.41255e-10
1.81301e-10
8.48874e-11
4.91678e-11
2.96275e-11
1.66351e-11
8.12524e-12
3.35301e-12
1.18034e-12
2.86776e-13
1.08308e-13
1.60899e-13
2.27971e-13
4.60881e-13
1.69242e-08
7.80004e-10
2.37348e-08
4.87747e-07
7.64405e-07
4.84814e-07
5.38801e-10
6.98879e-10
9.5749e-10
3.90272e-10
1.41424e-10
6.34816e-11
3.82846e-11
2.45321e-11
1.47077e-11
7.7447e-12
3.40555e-12
1.25899e-12
3.09027e-13
5.95517e-14
4.51136e-14
9.83212e-14
1.37119e-13
1.69769e-08
7.60628e-10
1.80085e-07
7.60282e-07
7.35351e-07
1.80543e-07
5.3751e-10
1.45069e-09
1.03227e-09
3.07011e-10
1.00784e-10
4.39082e-11
2.74126e-11
1.81076e-11
1.1501e-11
6.58951e-12
3.17381e-12
1.22317e-12
3.68579e-13
6.15457e-14
1.73855e-14
2.16402e-14
4.87601e-14
1.32025e-08
2.22981e-09
4.07462e-07
8.6228e-07
6.09495e-07
8.87241e-10
1.16368e-09
1.77772e-09
7.88179e-10
2.15877e-10
6.6468e-11
2.85244e-11
1.80667e-11
1.19708e-11
7.85835e-12
4.90639e-12
2.64576e-12
1.11855e-12
3.61015e-13
5.99699e-14
6.47686e-15
8.59268e-15
1.1894e-14
1.646e-08
1.44177e-08
5.30801e-07
8.38407e-07
1.80832e-07
8.87283e-10
1.65289e-09
1.43682e-09
3.9655e-10
1.38017e-10
4.09673e-11
1.75633e-11
1.09878e-11
7.09778e-12
4.65839e-12
3.1077e-12
1.89238e-12
9.12583e-13
3.28492e-13
5.96631e-14
3.74458e-15
1.86705e-15
3.94543e-15
1.80364e-08
3.83592e-08
4.2786e-07
5.88271e-07
2.04346e-08
8.87241e-10
2.3483e-09
1.08967e-09
3.02897e-10
8.95116e-11
2.33755e-11
1.00698e-11
6.23049e-12
3.80627e-12
2.39131e-12
1.64018e-12
1.12504e-12
6.43214e-13
2.64615e-13
5.83552e-14
3.71172e-15
8.08122e-16
1.02108e-15
3.21546e-08
5.3389e-08
3.57788e-07
1.45318e-07
2.29119e-08
2.9806e-09
2.81726e-09
1.15975e-09
3.04222e-10
5.63937e-11
1.23161e-11
5.37082e-12
3.29569e-12
1.86909e-12
1.07166e-12
7.06034e-13
5.24649e-13
3.62292e-13
1.79479e-13
5.2468e-14
5.51861e-15
3.16183e-16
2.9408e-16
3.08357e-08
4.25302e-08
3.01767e-07
6.46771e-08
4.28467e-09
4.88782e-09
3.58465e-09
1.32316e-09
3.35569e-10
5.04261e-11
6.37378e-12
2.59357e-12
1.59579e-12
8.50668e-13
4.2976e-13
2.50333e-13
1.84481e-13
1.47784e-13
9.66869e-14
3.79714e-14
4.92212e-15
2.37123e-16
6.94443e-17
3.58991e-08
2.21672e-08
2.79288e-08
4.3281e-09
3.31904e-09
8.92863e-09
4.1877e-09
1.33561e-09
3.07997e-10
4.27768e-11
3.45039e-12
1.0817e-12
6.82448e-13
3.49308e-13
1.5506e-13
7.26114e-14
4.77292e-14
4.19707e-14
3.80885e-14
2.07897e-14
3.99173e-15
2.13731e-16
2.15654e-17
4.27764e-08
1.07908e-08
1.60161e-09
1.60131e-09
1.43207e-08
1.19418e-08
4.04201e-09
1.05551e-09
2.10064e-10
2.51253e-11
1.57046e-12
3.60273e-13
2.35453e-13
1.21345e-13
4.9508e-14
1.86833e-14
9.24633e-15
7.93563e-15
9.62627e-15
8.40612e-15
2.23309e-15
1.92225e-16
9.82389e-18
6.77622e-08
8.07832e-09
1.60264e-09
1.60133e-09
1.9869e-08
9.99002e-09
2.85845e-09
5.88512e-10
8.26399e-11
6.91239e-12
3.0597e-13
7.70047e-14
5.5987e-14
3.02982e-14
1.20616e-14
3.81332e-15
1.29377e-15
9.91475e-16
1.61923e-15
2.42198e-15
1.07175e-15
1.40724e-16
1.09664e-17
8.50214e-08
1.53325e-08
6.8373e-09
2.96041e-08
1.85368e-08
4.21536e-09
8.01375e-10
1.06346e-10
9.11838e-12
3.85866e-13
1.24269e-14
8.08188e-15
6.77971e-15
4.01458e-15
1.6682e-15
4.74854e-16
1.17929e-16
7.83969e-17
1.98537e-16
5.14749e-16
4.37823e-16
9.06384e-17
7.81206e-18
0.973545
0.971621
0.956859
0.938667
0.983139
0.965762
0.937801
0.938625
0.570744
0.47978
0.340634
0.237859
0.0156247
0.0047565
2.73976e-19
9.95923e-20
0.000257641
7.86765e-05
1.5033e-05
8.29005e-22
0.000836911
0.000277534
6.00269e-06
1.72373e-07
0.00187863
0.00183471
0.000249191
-8.00382e-10
0.00126897
0.00127855
0.00123282
0.00122471
2.42086e-05
2.05874e-05
0.00013763
0.000474618
5.1758e-08
7.95707e-08
4.63473e-13
2.89242e-13
3.95563e-09
1.1122e-05
2.26806e-06
3.43026e-13
1.42185e-05
2.02063e-05
2.01895e-05
9.90827e-06
2.02125e-05
2.02429e-05
2.0208e-05
1.15931e-05
2.02385e-05
2.03064e-05
1.86554e-05
1.28744e-05
2.03055e-05
2.02968e-05
1.80691e-05
3.14086e-05
1.37754e-05
9.35407e-06
2.61249e-05
3.94455e-05
2.91372e-07
2.72128e-07
2.22576e-05
3.83984e-05
2.66132e-07
3.20653e-07
5.73506e-06
2.16103e-05
4.2625e-07
4.71149e-07
3.33436e-07
9.72811e-08
3.12015e-07
4.76346e-07
6.36491e-08
3.28469e-08
1.43138e-07
1.3866e-07
4.44157e-08
3.18851e-09
5.63978e-09
3.06943e-08
7.55481e-09
3.17231e-09
1.59719e-09
1.8124e-09
4.34752e-09
3.11177e-09
1.22461e-09
1.77954e-09
2.41698e-09
4.80965e-09
4.64856e-10
4.98482e-10
1.06713e-09
1.72935e-09
1.40858e-10
1.69571e-10
1.8389e-10
4.34909e-10
4.11722e-11
3.73253e-11
7.0077e-11
8.44143e-11
1.55037e-11
1.92204e-11
2.02843e-11
3.24143e-11
5.75215e-12
5.98564e-12
9.16965e-12
9.56637e-12
1.91838e-12
2.51495e-12
2.5771e-12
3.75653e-12
6.0121e-13
6.62907e-13
9.71774e-13
9.80961e-13
2.08057e-13
2.44077e-13
2.45673e-13
3.24885e-13
6.01133e-14
5.95913e-14
7.7579e-14
7.34415e-14
1.91783e-14
1.96977e-14
1.87272e-14
2.26232e-14
4.75454e-15
4.83762e-15
5.78953e-15
5.45393e-15
1.4147e-15
1.49353e-15
1.39668e-15
1.53941e-15
3.72426e-16
3.54107e-16
4.0931e-16
3.88453e-16
9.11985e-17
9.3922e-17
8.7063e-17
9.54393e-17
1.86275e-17
1.74522e-17
2.06993e-17
2.02613e-17
3.84778e-18
3.94852e-18
3.60656e-18
4.01748e-18
7.72551e-19
6.29408e-19
6.93988e-19
6.7263e-19
1.67071e-19
1.12293e-19
9.69924e-20
8.52168e-20
0.951729
0.988785
0.991184
0.991184
0.917262
0.910353
0.945478
0.975334
0.975335
0.852639
0.60421
0.800386
0.969082
0.833877
0.575984
0.906814
0.947626
0.942258
0.888815
0.921866
0.913143
0.890814
0.830322
0.87269
0.917543
0.953936
0.956473
0.810682
0.403502
0.205419
0.674358
0.920872
0.946059
0.945127
0.947128
0.946962
0.946459
0.943257
0.237025
0.360202
0.401636
0.503529
0.582338
0.484604
0.329156
0.205383
0.067856
0.00430382
0.00101613
0.054496
0.159972
0.479621
0.688319
0.818402
0.906104
0.895435
0.88874
-2.34336e-20
0.0368612
0.085167
0.0409858
0.00370792
-3.48188e-08
-6.93749e-10
-4.32164e-08
-1.87045e-07
2.08528e-16
2.74284e-22
-5.75622e-22
-1.14077e-11
-1.45894e-11
0.0257622
0.154699
0.184251
0.0917593
0.0615199
1.43688e-20
0.0105559
0.0783597
0.0286441
0.00130958
0.00083814
0.000147766
5.15454e-05
0.000193454
0.000165669
-4.46744e-12
2.46801e-26
5.32012e-08
0.000147804
0.000381323
0.000384321
0.000377214
0.000377127
0.000377537
-1.73941e-09
0.0110872
0.0734787
0.0739714
0.0527618
0.00131556
0.000194782
0.00026966
0.000410202
0.000443262
0.000304473
5.36239e-23
0.00014723
0.000123099
0.000230008
0.000414904
0.000488221
0.000607621
0.000946882
3.21396e-15
0.00385515
0.036217
0.0631791
0.0494804
0.0236896
0.00310601
0.000117859
0.000116355
6.15895e-05
0.0007585
0.00170488
0.00171819
0.00173586
0.00191332
0.00189143
0.0019275
0.00252552
0.00252306
0.00116681
0.000142125
0.000502531
0.00316573
0.00636523
0.00727887
0.00558176
0.00398023
0.000379754
1.68129e-07
8.94615e-06
0.000490996
0.00120668
0.00241957
0.00313086
0.00313084
0.00301551
0.002469
0.0016746
0.000542525
0.000128103
9.80078e-06
0.000198414
0.000505856
0.000560834
0.000394001
8.3437e-05
6.229e-08
1.69058e-07
4.94127e-07
5.19958e-07
2.79599e-06
0.000406234
0.00190972
0.00185467
8.24488e-06
4.49788e-06
4.49205e-06
3.53086e-09
4.42605e-05
6.88926e-06
-5.79165e-24
-1.72144e-17
-2.82444e-11
7.86967e-23
-5.37444e-08
2.2297e-07
1.65457e-07
2.41705e-06
1.53421e-06
2.2418e-05
2.25523e-05
1.6524e-06
1.63897e-06
1.61116e-05
4.45745e-06
4.4847e-06
3.38367e-08
1.9203e-08
1.09825e-06
5.44417e-08
-1.09765e-11
7.49375e-06
1.26154e-05
1.14706e-05
5.35617e-06
4.79907e-06
3.82934e-06
6.14192e-07
1.77709e-06
1.7389e-06
1.94928e-06
2.22012e-06
2.14696e-06
2.17996e-06
4.47577e-06
4.25548e-08
1.92047e-08
1.92617e-08
1.9157e-08
7.68363e-06
1.38439e-05
1.32362e-05
1.26531e-05
7.57903e-06
5.5884e-06
1.02662e-06
1.46665e-07
1.03743e-07
3.71943e-06
6.21684e-06
6.3381e-06
5.57998e-06
3.03037e-06
2.98416e-06
1.92104e-08
1.92029e-08
1.92095e-08
1.92091e-08
5.7478e-06
1.3747e-05
1.42156e-05
1.7109e-05
3.23082e-06
1.98878e-06
3.01303e-07
6.23082e-07
1.04322e-07
3.87743e-06
6.0165e-06
1.05589e-05
3.02942e-05
5.59105e-06
1.55124e-06
2.30272e-05
1.01628e-05
2.58186e-08
1.921e-08
5.0239e-06
6.90145e-06
1.46656e-05
2.90373e-05
4.85495e-06
2.00288e-06
6.06782e-06
9.81564e-06
6.39878e-06
5.42025e-07
1.44279e-06
3.95755e-05
4.00106e-05
1.06515e-05
1.17902e-06
3.83455e-05
3.83909e-05
2.78931e-06
1.92094e-08
8.17651e-06
8.94135e-06
2.85922e-05
2.90388e-05
2.90372e-05
1.32694e-05
1.1031e-05
3.53793e-06
1.26261e-06
5.26822e-07
9.08832e-06
4.00106e-05
4.00103e-05
2.06991e-05
4.56337e-07
4.03052e-05
4.00671e-05
2.97849e-05
2.27978e-05
6.55036e-06
1.46392e-05
2.84576e-05
1.4386e-05
5.57861e-06
5.57189e-06
5.80648e-06
5.10219e-06
3.05314e-06
8.35623e-06
3.14983e-05
4.00103e-05
3.78624e-05
8.92282e-06
1.35099e-07
1.19011e-05
8.03612e-06
3.0396e-05
2.3113e-05
5.70129e-06
2.13162e-05
4.34725e-05
4.34797e-05
2.78015e-05
1.66771e-05
2.95558e-05
3.12307e-05
2.65394e-05
2.93077e-05
3.33833e-05
3.12283e-05
4.49453e-06
7.55817e-08
7.55496e-08
2.00467e-06
1.09114e-06
9.62786e-06
1.77387e-05
2.53846e-06
5.46918e-06
2.43099e-05
4.34375e-05
4.20876e-05
4.03367e-05
3.84394e-05
3.22593e-05
2.20446e-05
4.50777e-06
6.91804e-07
8.56552e-08
1.1801e-06
1.61236e-07
7.55496e-08
2.16007e-07
1.09062e-06
5.46788e-07
6.62331e-07
4.4569e-07
1.65541e-06
3.37046e-06
3.94018e-06
1.90622e-06
4.95004e-06
8.35662e-06
3.60183e-06
1.50302e-06
9.90294e-08
9.94563e-08
8.64948e-08
4.60519e-07
5.12605e-07
7.55988e-08
8.50622e-08
1.06876e-06
4.54062e-07
2.43937e-08
5.53679e-07
1.67844e-06
1.56284e-06
1.76336e-06
1.55509e-06
3.03942e-07
1.07093e-09
1.07112e-09
1.07094e-09
4.11868e-07
6.36215e-07
3.84103e-07
2.3072e-07
4.63269e-07
7.85359e-08
1.41362e-07
4.17508e-07
1.3029e-07
2.49233e-08
2.7587e-07
6.60464e-07
6.13894e-07
4.79563e-07
3.14737e-07
1.41768e-07
8.49024e-09
1.64936e-09
1.07123e-09
1.58296e-07
6.1655e-07
6.37241e-07
2.5831e-07
1.9726e-07
8.67828e-08
1.5019e-07
9.47479e-08
4.95333e-08
2.73882e-08
1.49706e-08
6.1856e-09
4.47036e-09
1.97804e-09
1.17253e-09
1.17299e-09
1.48478e-09
2.3263e-09
3.03032e-09
2.68257e-09
2.6811e-09
2.86604e-08
2.93306e-07
1.31247e-07
1.37384e-07
8.92443e-08
3.43631e-08
2.22795e-08
1.28711e-08
4.49928e-09
2.93139e-09
2.82602e-09
2.87792e-09
3.15042e-09
4.17709e-09
4.6833e-09
5.95528e-09
1.65459e-08
1.48228e-08
4.6555e-09
2.03063e-07
2.95131e-07
1.32265e-07
1.66797e-07
1.01549e-08
9.74632e-09
6.23696e-09
3.69628e-09
2.61149e-09
2.40316e-09
2.3557e-09
2.42055e-09
3.90946e-09
6.27384e-09
9.16618e-09
1.60363e-08
3.0526e-08
5.75209e-08
1.13739e-07
2.19854e-07
2.17345e-07
5.94658e-08
1.68563e-07
1.7423e-09
1.83781e-09
1.2876e-09
1.17232e-09
1.24199e-09
1.40243e-09
1.67662e-09
2.12383e-09
2.92562e-09
4.54103e-09
1.00971e-08
2.21849e-08
3.2999e-08
4.58699e-08
9.61031e-08
1.27933e-07
6.81245e-08
9.93101e-09
1.68658e-07
5.0717e-10
4.01832e-10
3.70403e-10
4.12304e-10
4.77297e-10
5.72574e-10
7.32616e-10
1.06305e-09
1.62666e-09
2.49579e-09
3.88351e-09
6.13803e-09
8.15936e-09
1.09304e-08
3.24344e-08
4.35653e-08
2.0298e-08
3.08031e-09
1.18116e-07
1.22286e-10
1.1949e-10
1.38291e-10
1.64762e-10
2.04579e-10
2.67109e-10
3.6596e-10
5.42823e-10
8.72397e-10
1.43332e-09
2.41101e-09
3.51863e-09
4.83732e-09
7.06609e-09
1.18444e-08
2.51166e-08
1.00334e-08
3.07214e-09
1.08371e-07
3.54335e-11
4.39815e-11
5.59078e-11
7.26097e-11
9.88171e-11
1.44851e-10
2.31458e-10
3.98237e-10
7.20773e-10
1.36915e-09
2.70991e-09
4.81347e-09
8.73265e-09
1.31039e-08
1.83606e-08
1.01732e-08
6.06884e-09
3.07486e-09
1.09353e-07
1.2827e-11
1.64242e-11
2.19581e-11
3.01526e-11
4.40605e-11
7.54971e-11
1.30106e-10
2.29405e-10
4.91357e-10
1.18372e-09
2.7885e-09
5.83578e-09
1.24433e-08
2.42372e-08
3.19918e-08
2.62995e-08
6.09184e-09
5.40856e-09
1.19465e-07
4.08099e-12
5.64215e-12
7.58382e-12
1.07517e-11
1.66498e-11
2.34453e-11
2.91406e-11
5.81944e-11
1.60444e-10
5.49416e-10
1.87903e-09
5.98181e-09
1.32125e-08
3.08122e-08
4.75964e-08
5.02558e-08
1.36436e-08
3.06728e-08
1.22556e-07
1.35865e-12
1.69043e-12
2.24528e-12
3.18869e-12
4.7463e-12
4.04444e-12
4.73289e-12
1.22105e-11
4.14117e-11
1.63448e-10
7.04073e-10
3.28209e-09
1.20285e-08
2.73325e-08
4.85254e-08
5.02579e-08
2.84535e-08
3.8611e-08
1.22569e-07
3.17477e-13
4.36546e-13
5.26189e-13
6.87873e-13
9.88188e-13
1.00305e-12
9.04868e-13
2.94358e-12
1.21126e-11
5.52813e-11
2.88911e-10
1.83044e-09
8.44695e-09
2.22387e-08
3.87872e-08
4.2338e-08
2.5503e-08
1.1004e-07
1.10288e-07
9.14523e-14
9.76846e-14
1.10209e-13
1.33237e-13
1.75474e-13
2.38256e-13
2.89678e-13
1.02095e-12
4.5547e-12
2.15696e-11
9.82002e-11
4.57404e-10
4.50063e-09
1.12835e-08
3.08683e-08
3.0319e-08
2.71083e-08
1.16129e-07
1.11947e-07
2.25323e-14
2.31288e-14
2.4769e-14
3.01418e-14
4.34582e-14
7.53745e-14
1.64346e-13
5.0334e-13
2.02231e-12
9.59694e-12
4.17476e-11
1.77658e-10
1.70196e-09
7.14209e-09
1.42765e-08
2.41749e-08
3.58155e-08
1.04603e-07
1.5258e-07
5.73968e-15
5.56463e-15
6.08141e-15
8.21769e-15
1.45371e-14
3.47209e-14
1.03626e-13
3.48165e-13
1.21005e-12
5.16876e-12
2.15363e-11
7.5811e-11
4.00281e-10
2.23439e-09
6.63103e-09
1.81221e-08
3.73247e-08
4.11801e-08
3.81036e-07
1.4845e-15
1.4665e-15
1.7076e-15
2.6922e-15
6.14234e-15
1.86723e-14
6.54608e-14
2.40085e-13
8.81204e-13
3.41642e-12
1.36542e-11
4.94833e-11
3.35161e-10
1.19897e-09
2.34888e-09
7.02271e-09
2.33168e-08
2.76921e-08
3.83636e-07
3.7827e-16
3.9341e-16
5.20158e-16
1.00603e-15
2.78411e-15
9.62014e-15
3.66209e-14
1.42694e-13
5.50658e-13
2.17768e-12
8.49876e-12
3.13599e-11
1.45353e-10
9.2865e-10
2.11507e-09
3.23513e-09
8.23118e-09
2.11996e-08
3.83653e-07
9.28996e-17
1.03105e-16
1.58347e-16
3.67368e-16
1.15129e-15
4.24188e-15
1.68109e-14
6.80707e-14
2.7569e-13
1.09429e-12
4.65912e-12
1.98546e-11
8.11397e-11
4.95728e-10
2.33603e-09
3.74041e-09
4.79989e-09
2.24736e-08
3.07727e-07
2.03872e-17
2.39072e-17
4.12151e-17
1.09728e-16
3.81316e-16
1.48026e-15
5.96881e-15
2.44919e-14
1.01742e-13
4.18859e-13
1.70537e-12
7.6904e-12
3.48327e-11
1.53504e-10
1.12822e-09
3.74842e-09
6.19662e-09
2.41372e-08
1.36618e-07
3.89918e-18
4.33066e-18
8.10359e-18
2.47119e-17
9.90731e-17
4.30373e-16
1.90765e-15
8.59395e-15
3.92588e-14
1.77375e-13
8.09079e-13
3.80309e-12
1.73244e-11
7.84262e-11
3.7948e-10
1.92644e-09
5.36741e-09
1.56926e-08
5.43415e-08
6.12285e-19
6.31993e-19
9.97792e-19
2.92264e-18
1.32999e-17
6.76235e-17
3.34901e-16
1.60507e-15
7.68489e-15
3.74025e-14
1.91113e-13
9.84054e-13
5.41234e-12
2.82296e-11
1.59523e-10
7.57026e-10
2.18365e-09
2.50653e-09
1.64942e-10
7.34362e-20
6.69478e-20
8.24201e-20
1.77024e-19
7.27234e-19
4.18632e-18
2.4643e-17
1.3161e-16
6.25756e-16
2.72493e-15
1.18172e-14
6.31503e-14
4.53167e-13
3.56277e-12
2.94251e-11
1.99279e-10
5.15542e-10
4.42817e-10
1.6433e-10
)
;

boundaryField
{
    leftWall
    {
        type            zeroGradient;
    }
    rightWall
    {
        type            zeroGradient;
    }
    lowerWall
    {
        type            zeroGradient;
    }
    atmosphere
    {
        type            inletOutlet;
        inletValue      uniform 0;
        value           nonuniform List<scalar> 
46
(
8.50214e-08
1.53325e-08
6.8373e-09
2.96041e-08
0
0
0
0
0
0
0
0
0
0
0
0
0
0
1.98537e-16
5.14749e-16
4.37823e-16
9.06384e-17
7.81206e-18
1.67071e-19
1.12293e-19
9.69924e-20
8.52168e-20
7.34362e-20
0
0
0
0
0
0
0
0
0
0
6.31503e-14
4.53167e-13
3.56277e-12
2.94251e-11
1.99279e-10
5.15542e-10
4.42817e-10
1.6433e-10
)
;
    }
    defaultFaces
    {
        type            empty;
    }
}


// ************************************************************************* //
