/*--------------------------------*- C++ -*----------------------------------*\
| =========                 |                                                 |
| \\      /  F ield         | OpenFOAM: The Open Source CFD Toolbox           |
|  \\    /   O peration     | Version:  2312                                  |
|   \\  /    A nd           | Website:  www.openfoam.com                      |
|    \\/     M anipulation  |                                                 |
\*---------------------------------------------------------------------------*/
FoamFile
{
    version     2.0;
    format      ascii;
    arch        "LSB;label=32;scalar=64";
    class       volScalarField;
    location    "4.95";
    object      alpha.water_0;
}
// * * * * * * * * * * * * * * * * * * * * * * * * * * * * * * * * * * * * * //

dimensions      [0 0 0 0 0 0 0];

internalField   nonuniform List<scalar> 
2268
(
3.25945e-07
3.24441e-07
2.85459e-07
7.35254e-08
6.51543e-09
1.39899e-09
9.78769e-10
5.98119e-10
2.92374e-10
1.56619e-10
1.11246e-10
8.96676e-11
7.8941e-11
7.55129e-11
8.02462e-11
9.19627e-11
1.16715e-10
1.5962e-10
2.2922e-10
4.05655e-10
8.84267e-10
1.32038e-09
1.41781e-09
2.16932e-07
1.6419e-07
6.81097e-08
2.25558e-08
7.78156e-10
4.6561e-10
4.00637e-10
3.4863e-10
3.34902e-10
2.76024e-10
2.45608e-10
2.12184e-10
1.84228e-10
1.60909e-10
1.41192e-10
1.38558e-10
1.85421e-10
2.97259e-10
4.54173e-10
6.87677e-10
1.11734e-09
1.37476e-09
1.36998e-09
2.90788e-08
2.08083e-08
1.03174e-08
3.38561e-09
4.88827e-09
8.11242e-09
8.12348e-09
5.51282e-09
1.16829e-09
6.97656e-10
6.57459e-10
6.60705e-10
8.02023e-10
8.34928e-10
6.89177e-10
5.66144e-10
5.12757e-10
5.95992e-10
7.17926e-10
8.94791e-10
1.03878e-09
1.05072e-09
9.08991e-10
5.91431e-10
6.07851e-10
5.12588e-10
3.90933e-10
7.80354e-10
1.48988e-09
1.41374e-09
1.27403e-09
5.63697e-10
4.6416e-10
5.87537e-10
1.04621e-09
2.18048e-09
3.28373e-09
3.3204e-09
2.72784e-09
9.70324e-10
5.25019e-10
4.82855e-10
5.10652e-10
6.25038e-10
7.28244e-10
9.42274e-10
4.4707e-21
8.09901e-21
4.07496e-21
4.11265e-21
3.30352e-21
-3.58869e-12
1.24455e-20
1.27481e-20
2.59961e-22
1.07706e-28
2.47772e-28
2.47718e-28
9.665e-12
5.8507e-12
7.58589e-12
5.88783e-12
3.60028e-11
6.06302e-10
5.03584e-10
1.64299e-09
5.64501e-10
7.2977e-10
6.79627e-10
0.59714
0.584595
0.555209
0.50957
0.447601
0.374335
0.293099
0.208511
0.133259
0.0751434
0.0374526
0.0127427
8.60687e-12
8.67687e-05
0.00109528
0.00178999
0.00261241
0.00022928
0.000793309
0.00349379
0.00968575
0.0222305
0.0498384
0.998272
0.998044
0.99706
0.994039
0.988752
0.978369
0.958478
0.921161
0.860504
0.778222
0.68081
0.595402
0.533799
0.491077
0.476453
0.479011
0.453393
0.404282
0.431231
0.496688
0.547582
0.601388
0.6978
0.999732
0.999741
0.999742
0.999736
0.999728
0.999618
0.999502
0.999582
0.999711
0.999744
0.99962
0.999572
0.998546
0.997491
0.999745
0.998866
0.944101
0.919986
0.922166
0.96043
0.934979
0.91764
0.946742
0.0141595
0.00795323
0.00413671
0.00314197
0.00641971
0.00803144
0.0103599
0.0103757
0.00979007
0.00978224
0.00979029
0.0083184
0.0062586
0.00509174
0.00423404
0.00410662
0.00359378
0.0038305
0.00402449
0.0136667
0.000953399
0.000943176
0.000953628
0.000944355
0.000956185
0.000946898
0.000958889
0.000948251
0.00111637
0.00145879
0.00116095
0.000510023
6.64125e-05
3.65091e-06
-2.07175e-07
-1.43674e-06
-2.60912e-22
-1.15037e-21
0.195911
0.187
0.154728
0.151
0.132197
0.0822623
0.0410509
0.0349534
0.0372018
0.0393551
0.02984
0.00839318
9.57933e-05
2.16822e-05
0.0144827
0.00752964
0.0374907
0.158355
0.186998
0.738033
0.850775
0.784417
0.760138
0.77831
0.758459
0.719122
0.68172
0.658593
0.69061
0.68992
0.599891
0.324514
0.179294
0.157127
0.218942
0.71499
0.837603
0.583873
0.820567
0.990378
0.979802
0.980725
0.987449
0.960799
0.958077
0.975453
0.975454
0.975454
0.962522
0.975584
0.975596
0.783509
0.454688
0.778185
0.88657
0.886115
0.700391
0.928307
0.991181
0.991182
0.989871
0.989839
0.977468
0.956016
0.975452
0.975454
0.949873
0.886383
0.974976
0.975593
0.834546
0.682175
0.870985
0.870791
0.868155
0.86846
0.96827
0.988425
0.991182
0.973435
0.932489
0.959073
0.964431
0.973231
0.972295
0.861364
0.878242
0.917018
0.975605
0.702526
0.507994
0.854931
0.888846
0.865385
0.875871
0.987489
0.990964
0.991182
0.984171
0.910626
0.909866
0.947831
0.975334
0.975334
0.803528
0.799554
0.883963
0.971049
0.663246
0.501551
0.598342
0.944218
0.867996
0.87564
0.990969
0.999292
0.999742
0.999712
0.999712
0.999718
0.999718
0.99973
0.999745
0.999745
0.999745
0.999745
0.999745
0.999745
0.999745
0.999745
0.992798
0.982051
0.994937
0.996178
0.996166
0.996177
0.982339
0.926619
0.939222
0.941232
0.923403
0.935402
0.958208
0.967278
0.978018
0.992627
0.99915
0.999707
0.999599
0.999745
0.999745
0.999743
0.999724
0.997611
0.996247
0.994281
0.993985
0.992747
0.982974
0.982855
0.206528
0.201808
0.191119
0.17707
0.202053
0.334566
0.547619
0.696325
0.77638
0.890222
0.953743
0.968963
0.986166
0.995245
0.993146
0.969773
0.947138
0.91439
0.823138
0.703686
0.636738
0.583766
0.556371
7.1205e-27
-6.46487e-16
-1.204e-09
2.87657e-22
6.54459e-24
-8.49923e-22
0.00716084
0.0602287
0.137664
0.24717
0.418399
0.611805
0.634713
0.61951
0.61827
0.593941
0.449106
0.173863
0.0482169
0.00592116
0.00436497
0.013197
0.0159873
1.52884e-08
1.67158e-22
7.32623e-05
0.000188576
0.000111304
3.47379e-07
1.86156e-12
2.72846e-24
2.72846e-24
1.82063e-24
0.00251592
0.0130255
0.0250114
0.031188
0.029461
0.0170198
3.18502e-20
2.54255e-11
4.25349e-05
2.70514e-07
2.43197e-07
2.70495e-07
4.46835e-05
-4.78851e-12
9.8907e-17
8.14926e-13
5.27462e-07
2.01484e-08
-5.55156e-14
2.80968e-25
-9.91522e-24
2.3492e-06
6.06132e-06
1.20411e-05
6.80929e-06
4.84351e-19
3.66062e-19
-3.0758e-08
-2.44327e-07
-8.77478e-09
0.00206939
0.0133728
0.003763
0.000201699
6.34811e-05
0.000407241
2.65809e-06
7.73246e-05
0.00010207
6.55581e-05
5.62028e-05
3.39393e-05
3.01653e-06
4.16116e-05
0.00013837
0.000198766
0.000188675
0.000186126
0.000158155
5.78515e-05
5.74279e-05
0.000180694
0.00151179
0.0164536
0.0187203
0.018416
0.0031581
6.2426e-05
0.00108198
3.77731e-05
0.000202693
0.000272982
0.0005447
0.000557679
0.00032738
0.000176831
0.000186996
0.00020312
0.000212989
0.000186683
0.00526467
0.0105811
0.00626556
0.000974442
0.000188006
0.00458694
0.0187204
0.0187204
0.0161399
0.00352126
0.000515478
0.000669305
0.000167167
0.00035975
0.00024833
0.00277685
0.00525914
0.00501273
0.00318967
0.001691
0.00102319
0.000553321
0.000200265
0.00994205
0.0168485
0.0168564
0.0168487
0.0109857
0.00512942
0.0137674
0.0187204
0.0128059
0.000821172
0.000290732
0.000112233
0.000359776
0.000360116
9.01771e-05
0.00179651
0.00530392
0.00633502
0.00636507
0.00554372
0.00435611
0.00391739
0.00347933
0.00343172
0.00385185
0.0131959
0.0167795
0.0168395
0.0168618
0.0168499
0.0136863
0.00295683
9.91569e-06
1.64998e-06
1.23793e-08
0.000253559
0.000209683
8.86805e-05
6.56128e-09
6.85355e-09
0.000272916
0.000506154
0.000736231
0.00100367
0.00160732
0.00345951
0.00373311
0.00214444
0.000241688
2.67438e-07
0.00653568
0.0168397
0.0119619
0.00111344
8.6231e-07
9.88402e-08
5.89866e-08
2.10016e-09
8.01055e-09
7.76067e-09
7.92331e-09
8.70855e-09
2.44757e-08
8.86535e-08
1.58954e-07
3.27451e-07
3.48508e-07
8.04004e-08
4.18754e-07
9.07841e-07
1.91956e-06
9.72928e-07
3.00073e-07
-1.17418e-09
0.000480405
0.000249065
8.03539e-07
9.80502e-08
8.6362e-08
7.69798e-08
5.47862e-07
1.69037e-07
1.07996e-07
6.43325e-08
2.54259e-08
9.85007e-08
2.15606e-07
3.17651e-07
7.82834e-07
7.82574e-07
8.21075e-08
1.0673e-08
1.19833e-08
1.09072e-08
2.99852e-07
1.30331e-06
1.73112e-06
2.72152e-06
2.6321e-06
3.74925e-06
9.52564e-06
9.36674e-06
3.96547e-06
1.81179e-05
5.23639e-07
2.98391e-07
1.16368e-07
4.2536e-08
1.44094e-07
2.80437e-07
4.52545e-07
1.11883e-06
9.03785e-07
3.79232e-07
5.85332e-08
4.72973e-07
4.97655e-07
2.2363e-07
2.40417e-07
3.1934e-06
6.91749e-06
9.28167e-06
1.58936e-05
1.61372e-05
6.99653e-06
2.01293e-05
2.0119e-05
5.10863e-07
2.98675e-07
9.35276e-08
6.13554e-08
1.02464e-07
1.92799e-07
5.36779e-07
1.3997e-06
1.77933e-06
1.27998e-06
1.07702e-06
1.769e-06
1.99094e-06
1.66863e-06
2.86852e-06
1.52917e-05
1.63026e-05
1.86379e-05
1.87927e-05
1.19324e-05
6.88107e-08
9.97802e-06
2.02069e-05
3.92654e-07
1.20762e-07
4.08934e-08
4.99539e-08
3.76853e-08
9.09394e-08
4.47219e-07
1.55766e-06
1.84586e-06
1.84586e-06
1.77524e-06
1.18436e-06
8.27971e-07
5.00068e-07
1.68354e-06
7.06078e-06
1.51455e-05
1.76418e-05
8.26927e-06
4.13539e-07
1.24107e-09
5.48784e-08
5.09362e-06
9.47761e-08
4.91861e-08
3.45469e-08
3.43015e-08
2.0821e-08
3.18153e-08
1.59728e-07
2.97308e-07
1.12279e-06
4.90784e-07
2.07351e-09
2.07419e-09
2.07352e-09
1.62433e-08
6.9944e-08
5.82924e-08
7.46711e-07
1.25838e-06
2.79996e-08
3.43063e-08
1.11947e-09
1.33255e-09
2.12078e-09
3.0469e-08
1.31939e-08
1.60223e-08
2.01726e-08
2.05184e-08
2.83185e-08
2.0063e-08
1.18815e-08
1.47656e-09
1.46916e-09
2.02777e-08
2.12227e-09
2.70275e-09
4.32086e-09
1.06963e-08
2.40233e-08
1.67741e-08
8.95238e-09
2.14952e-08
1.61817e-08
1.4385e-09
9.46246e-08
1.92528e-07
1.12745e-08
5.1791e-09
7.08262e-09
8.78418e-09
1.07196e-08
1.07859e-08
8.60107e-09
3.58301e-09
1.4726e-09
1.46073e-09
1.57105e-09
2.17931e-09
3.00109e-09
4.08325e-09
5.60969e-09
9.64591e-09
1.22917e-08
8.86409e-09
1.1251e-08
5.10616e-09
9.08406e-10
8.6981e-08
3.50618e-07
1.41964e-08
3.44025e-09
4.27096e-09
5.34274e-09
5.40281e-09
5.42476e-09
4.6625e-09
3.44725e-09
2.18013e-09
1.45223e-09
1.3877e-09
1.34968e-09
1.47056e-09
1.79261e-09
2.19938e-09
2.86674e-09
3.6998e-09
3.34889e-09
3.06498e-09
1.46565e-09
9.34296e-10
3.50435e-08
2.14561e-07
1.55911e-08
2.33227e-09
2.1862e-09
2.87329e-09
2.8351e-09
2.48012e-09
2.02994e-09
1.56727e-09
1.13582e-09
8.32899e-10
7.1357e-10
6.54155e-10
6.57102e-10
7.54917e-10
8.60254e-10
9.71342e-10
1.11863e-09
1.05916e-09
9.59582e-10
7.74615e-10
1.00508e-09
4.414e-09
5.00626e-08
1.5575e-08
1.77348e-09
1.16269e-09
1.46965e-09
1.34222e-09
1.05614e-09
7.7271e-10
5.58859e-10
4.11717e-10
3.22207e-10
2.75592e-10
2.57881e-10
2.63073e-10
2.98928e-10
3.3131e-10
3.66405e-10
3.97676e-10
4.01007e-10
4.22153e-10
4.65905e-10
6.21995e-10
1.8875e-09
3.36855e-09
1.54017e-08
1.14299e-09
6.12678e-10
7.07756e-10
5.66001e-10
4.27038e-10
3.1129e-10
2.32304e-10
1.74689e-10
1.34463e-10
1.091e-10
9.68969e-11
9.52572e-11
1.02601e-10
1.15729e-10
1.30506e-10
1.43987e-10
1.57664e-10
1.82973e-10
2.39001e-10
3.43098e-10
5.64246e-10
1.99753e-09
1.51663e-08
8.21571e-10
3.756e-10
4.05039e-10
3.31833e-10
2.71469e-10
2.1651e-10
1.73845e-10
1.35837e-10
9.73809e-11
6.84455e-11
5.03558e-11
4.00587e-11
3.60742e-11
3.7286e-11
4.22009e-11
4.81056e-11
5.76713e-11
7.36958e-11
1.0233e-10
1.51702e-10
3.00226e-10
8.04813e-10
1.50171e-08
5.59462e-10
3.09172e-10
3.10641e-10
2.96223e-10
2.97965e-10
3.02248e-10
2.54826e-10
1.90185e-10
1.25989e-10
7.92673e-11
4.78587e-11
2.92577e-11
1.9429e-11
1.45852e-11
1.40249e-11
1.62459e-11
2.06467e-11
2.82052e-11
4.08821e-11
6.49814e-11
1.0017e-10
2.85152e-10
1.49556e-08
3.51324e-10
2.95352e-10
3.45052e-10
4.81371e-10
5.38887e-10
5.18671e-10
3.61994e-10
2.71497e-10
1.79279e-10
1.07586e-10
6.1115e-11
3.41077e-11
1.86473e-11
1.04702e-11
6.53044e-12
5.91422e-12
7.41286e-12
1.05692e-11
1.55543e-11
2.26084e-11
4.48936e-11
8.2286e-11
1.48874e-08
2.94171e-10
3.12325e-10
4.92766e-10
7.3232e-10
9.66144e-10
1.05876e-09
5.0586e-10
3.80051e-10
2.51994e-10
1.44063e-10
8.00287e-11
4.40002e-11
2.24998e-11
1.12338e-11
5.4994e-12
2.94325e-12
2.80541e-12
3.86458e-12
6.00924e-12
9.48542e-12
1.34168e-11
2.86463e-11
1.49068e-08
3.18686e-10
3.9244e-10
6.35844e-10
1.02888e-09
2.10483e-09
2.87743e-09
6.32695e-10
4.85243e-10
3.26338e-10
1.77843e-10
9.61272e-11
5.29922e-11
2.8004e-11
1.34851e-11
5.89584e-12
2.54316e-12
1.36752e-12
1.46047e-12
2.17474e-12
3.34365e-12
6.62415e-12
1.00584e-11
1.52892e-08
3.33042e-10
5.16909e-10
1.00202e-09
9.76201e-10
1.45548e-08
9.80591e-09
6.51186e-10
5.57185e-10
3.98198e-10
2.04067e-10
1.05391e-10
5.82576e-11
3.16412e-11
1.57226e-11
7.01118e-12
2.79721e-12
1.01023e-12
6.03138e-13
7.97588e-13
1.39724e-12
1.94215e-12
4.12429e-12
1.53667e-08
4.55931e-10
1.08756e-09
7.30812e-09
1.11047e-07
1.84568e-07
3.02194e-08
5.64453e-10
6.32281e-10
4.53045e-10
2.09653e-10
1.02761e-10
5.73019e-11
3.25974e-11
1.70159e-11
7.83401e-12
3.09667e-12
1.07824e-12
3.47172e-13
2.72794e-13
3.83479e-13
8.60661e-13
1.2206e-12
1.62443e-08
7.78165e-10
4.77291e-09
1.49069e-07
5.825e-07
4.95002e-07
3.38808e-08
5.62385e-10
7.2615e-10
4.48472e-10
1.84373e-10
8.60789e-11
4.97489e-11
2.99539e-11
1.68216e-11
8.22134e-12
3.39523e-12
1.19457e-12
2.92466e-13
1.06617e-13
1.56705e-13
2.22295e-13
4.50944e-13
1.70039e-08
7.6727e-10
1.94671e-08
4.76585e-07
7.70018e-07
5.01045e-07
5.38701e-10
6.8215e-10
9.66968e-10
3.97672e-10
1.4398e-10
6.43717e-11
3.87226e-11
2.47917e-11
1.48591e-11
7.8262e-12
3.44285e-12
1.27164e-12
3.16418e-13
5.96797e-14
4.43725e-14
9.6012e-14
1.33336e-13
1.7063e-08
8.90625e-10
1.7156e-07
7.60105e-07
7.46783e-07
1.88122e-07
5.37382e-10
1.46574e-09
1.0502e-09
3.13373e-10
1.02669e-10
4.45194e-11
2.77302e-11
1.82964e-11
1.16122e-11
6.65141e-12
3.20452e-12
1.23598e-12
3.72676e-13
6.27629e-14
1.70811e-14
2.12068e-14
4.76186e-14
1.32438e-08
2.27361e-09
3.99844e-07
8.66025e-07
6.21186e-07
8.87241e-10
1.15622e-09
1.80425e-09
8.09151e-10
2.20512e-10
6.77203e-11
2.8921e-11
1.82842e-11
1.20984e-11
7.93147e-12
4.94811e-12
2.6681e-12
1.12855e-12
3.64315e-13
6.12451e-14
6.44753e-15
8.4175e-15
1.17419e-14
1.65143e-08
1.44149e-08
5.22834e-07
8.47017e-07
1.88523e-07
8.87283e-10
1.65807e-09
1.46036e-09
4.09746e-10
1.40762e-10
4.17348e-11
1.78134e-11
1.1126e-11
7.17706e-12
4.70164e-12
3.13218e-12
1.90627e-12
9.19264e-13
3.30944e-13
6.0818e-14
3.76958e-15
1.83803e-15
3.86225e-15
1.84233e-08
3.80994e-08
4.22022e-07
5.90086e-07
2.37542e-08
8.88955e-10
2.35869e-09
1.09854e-09
3.05773e-10
9.10869e-11
2.38036e-11
1.0214e-11
6.31236e-12
3.85132e-12
2.41425e-12
1.65249e-12
1.13224e-12
6.46955e-13
2.66052e-13
5.93074e-14
3.76776e-15
7.97358e-16
1.01318e-15
3.2232e-08
5.19754e-08
3.60834e-07
1.45655e-07
2.32645e-08
2.97286e-09
2.81689e-09
1.16369e-09
3.05954e-10
5.71482e-11
1.25239e-11
5.44787e-12
3.34055e-12
1.89238e-12
1.08262e-12
7.11303e-13
5.27588e-13
3.64002e-13
1.80043e-13
5.31036e-14
5.61307e-15
3.15656e-16
2.87967e-16
3.07816e-08
4.14926e-08
2.97286e-07
6.56323e-08
4.31606e-09
4.84783e-09
3.5733e-09
1.32919e-09
3.38388e-10
5.09777e-11
6.46893e-12
2.63084e-12
1.6178e-12
8.61676e-13
4.34496e-13
2.52338e-13
1.85435e-13
1.48342e-13
9.68856e-14
3.81586e-14
4.98019e-15
2.38867e-16
6.90049e-17
3.6099e-08
2.14787e-08
2.62312e-08
4.22449e-09
3.21219e-09
8.84594e-09
4.19505e-09
1.34631e-09
3.11619e-10
4.34005e-11
3.5039e-12
1.09735e-12
6.91973e-13
3.53895e-13
1.56869e-13
7.32431e-14
4.79693e-14
4.20692e-14
3.80643e-14
2.08329e-14
4.02221e-15
2.15839e-16
2.13175e-17
4.30371e-08
1.08759e-08
1.60158e-09
1.60126e-09
1.42701e-08
1.19438e-08
4.06317e-09
1.06762e-09
2.1343e-10
2.55967e-11
1.60019e-12
3.65721e-13
2.38778e-13
1.22942e-13
5.00938e-14
1.88621e-14
9.29672e-15
7.94353e-15
9.59922e-15
8.38848e-15
2.24279e-15
1.93564e-16
9.8181e-18
6.84463e-08
7.98484e-09
1.60269e-09
1.60128e-09
1.99128e-08
1.00716e-08
2.88642e-09
5.96598e-10
8.42903e-11
7.05638e-12
3.11972e-13
7.82003e-14
5.67889e-14
3.06937e-14
1.22011e-14
3.85025e-15
1.30131e-15
9.91219e-16
1.61325e-15
2.40623e-15
1.07071e-15
1.41358e-16
1.10367e-17
8.55033e-08
1.54668e-08
6.9585e-09
2.97428e-08
1.87218e-08
4.2568e-09
8.10822e-10
1.07738e-10
9.27321e-12
3.93595e-13
1.2653e-14
8.21346e-15
6.87983e-15
4.067e-15
1.68686e-15
4.79156e-16
1.18617e-16
7.83121e-17
1.97713e-16
5.09504e-16
4.35523e-16
9.06908e-17
7.83376e-18
0.972809
0.971857
0.953044
0.936984
0.982673
0.960014
0.934893
0.93721
0.553392
0.466601
0.32881
0.228656
0.0123858
0.00355763
-1.11407e-20
-1.60041e-19
0.00026805
0.000105666
1.83355e-05
-8.42735e-22
0.000940752
0.000321678
6.2973e-06
2.13484e-07
0.00193191
0.0019215
0.000515755
-7.27845e-10
0.00114028
0.00117622
0.00120718
0.00125158
9.30993e-06
7.77831e-06
9.91939e-05
0.000404463
4.46877e-09
1.83928e-08
1.14895e-13
1.31571e-13
1.75117e-06
1.32021e-05
2.54105e-06
1.10616e-13
1.82211e-05
2.01855e-05
2.01824e-05
1.03068e-05
2.01769e-05
2.01742e-05
2.01836e-05
1.13341e-05
2.01691e-05
2.01748e-05
1.81986e-05
1.33653e-05
2.01975e-05
2.01732e-05
1.77754e-05
3.32923e-05
1.14933e-05
7.19393e-06
2.64645e-05
3.94417e-05
1.10119e-07
1.10353e-07
2.13053e-05
3.8549e-05
3.11412e-07
3.40103e-07
4.86289e-06
1.93916e-05
4.34255e-07
4.81598e-07
3.22629e-07
5.21105e-08
3.07529e-07
4.85119e-07
6.68059e-08
2.86719e-08
1.21831e-07
1.10319e-07
3.90956e-08
3.0811e-09
5.80492e-09
2.30814e-08
6.34422e-09
3.06329e-09
1.71778e-09
2.124e-09
4.15521e-09
3.40482e-09
1.20544e-09
1.74984e-09
2.40926e-09
4.86242e-09
4.40564e-10
4.63914e-10
9.96933e-10
1.63602e-09
1.32393e-10
1.58918e-10
1.74107e-10
3.94353e-10
3.92114e-11
3.61547e-11
6.66215e-11
8.28054e-11
1.4991e-11
1.87469e-11
1.98392e-11
3.1212e-11
5.60468e-12
5.84008e-12
8.94088e-12
9.41633e-12
1.85728e-12
2.45724e-12
2.52658e-12
3.66339e-12
5.86011e-13
6.4929e-13
9.51323e-13
9.69498e-13
2.03718e-13
2.39423e-13
2.42056e-13
3.20142e-13
5.89773e-14
5.87595e-14
7.62801e-14
7.15177e-14
1.88055e-14
1.93972e-14
1.85554e-14
2.23727e-14
4.7297e-15
4.79495e-15
5.71509e-15
5.37408e-15
1.39241e-15
1.47322e-15
1.38901e-15
1.52547e-15
3.6697e-16
3.5178e-16
4.04377e-16
3.84759e-16
8.96286e-17
9.24994e-17
8.66329e-17
9.45465e-17
1.82716e-17
1.73362e-17
2.03983e-17
2.00356e-17
3.77152e-18
3.88069e-18
3.5903e-18
3.97346e-18
7.59218e-19
6.25071e-19
6.84086e-19
6.64844e-19
1.64665e-19
1.10391e-19
9.53583e-20
8.41241e-20
0.954327
0.98933
0.991182
0.991182
0.914462
0.909683
0.946746
0.975334
0.975334
0.849484
0.602465
0.789141
0.971505
0.849586
0.589853
0.910221
0.948027
0.941156
0.88959
0.919453
0.912057
0.891647
0.830297
0.872563
0.918314
0.953277
0.9558
0.803681
0.388726
0.186085
0.656939
0.915036
0.949193
0.948491
0.947322
0.946902
0.9464
0.944142
0.227773
0.355741
0.401824
0.501407
0.581598
0.487012
0.328315
0.190441
0.0643659
0.00297052
0.000480508
0.0518904
0.152575
0.474302
0.687258
0.819758
0.911148
0.901842
0.895639
-7.98585e-20
0.033797
0.0849053
0.0449066
0.00396967
-6.5244e-08
-1.77658e-08
-4.22279e-08
-3.64845e-20
-7.16626e-22
1.00017e-22
-2.99426e-21
-3.09754e-11
-9.89061e-10
0.0257472
0.161994
0.19718
0.101704
0.069344
1.45064e-20
0.00891828
0.0748048
0.0358993
0.00131533
0.000898909
0.000181354
4.97881e-05
0.000198995
0.000180694
-4.71828e-12
-2.36578e-26
1.30855e-07
0.000140565
0.000380889
0.000384555
0.000378759
0.000378616
0.000379103
-2.21514e-09
0.0089214
0.070855
0.0769566
0.0569158
0.00139849
0.000218066
0.000279539
0.000393548
0.000454683
0.000319496
-1.01809e-24
0.000148422
0.000108944
0.000227079
0.000416661
0.000489431
0.000556218
0.000904568
-7.64794e-22
0.00301523
0.0336715
0.058106
0.0506469
0.0262397
0.00413571
0.000123119
0.000121815
6.31849e-05
0.00073108
0.00170664
0.00172054
0.00173475
0.00187815
0.0018497
0.00187923
0.00251195
0.00250028
0.00123874
0.000138935
0.000297047
0.00241458
0.00586495
0.00720192
0.00562004
0.00436238
0.00057601
1.55283e-07
8.51236e-06
0.000494882
0.00121655
0.00243749
0.00313086
0.00313085
0.00304894
0.00254872
0.00175652
0.000484856
0.000135986
9.09648e-06
0.000166668
0.000499915
0.000625768
0.000484626
0.000124922
5.21537e-08
1.57276e-07
5.91629e-07
6.12596e-07
1.47636e-06
0.000325311
0.00194717
0.00203741
7.31072e-05
4.53273e-06
4.5077e-06
1.48398e-09
3.55002e-05
6.10017e-06
1.27371e-06
1.2214e-10
-4.47157e-11
-3.60743e-08
-4.74804e-08
2.01928e-07
1.53017e-07
2.62164e-06
1.35745e-06
2.19562e-05
3.04217e-05
1.65239e-06
1.63897e-06
1.67433e-05
4.69109e-06
4.50576e-06
4.40949e-08
2.16354e-08
8.97553e-07
1.97539e-08
1.39958e-07
7.83022e-06
1.2901e-05
1.09522e-05
5.04469e-06
4.87831e-06
3.8054e-06
5.5493e-07
1.65024e-06
1.58619e-06
1.79648e-06
2.02588e-06
1.96223e-06
2.40984e-06
4.50222e-06
7.07832e-08
2.02363e-08
1.92434e-08
1.93043e-08
8.34425e-06
1.38362e-05
1.37636e-05
1.34464e-05
7.14021e-06
5.57051e-06
9.59216e-07
1.37013e-07
1.04511e-07
3.86079e-06
6.22922e-06
6.37939e-06
5.49697e-06
2.79785e-06
3.27596e-06
1.93417e-08
1.92094e-08
1.9224e-08
1.92094e-08
6.76423e-06
1.38097e-05
1.35471e-05
1.58678e-05
3.05377e-06
2.0466e-06
2.73157e-07
6.46642e-07
1.05118e-07
4.02932e-06
6.13999e-06
9.59062e-06
2.77262e-05
4.99699e-06
1.59941e-06
2.52287e-05
1.13731e-05
1.94984e-08
1.92567e-08
5.81802e-06
7.32896e-06
1.37591e-05
2.90373e-05
4.90868e-06
2.1203e-06
6.31835e-06
1.00073e-05
6.25661e-06
5.50026e-07
1.54579e-06
3.84454e-05
4.00106e-05
9.96321e-06
1.06638e-06
3.88442e-05
3.88665e-05
3.27792e-06
4.71881e-08
8.98984e-06
8.87499e-06
2.87007e-05
2.90389e-05
2.90373e-05
1.39787e-05
1.10908e-05
3.51472e-06
1.21391e-06
5.12917e-07
8.87942e-06
4.00106e-05
4.00103e-05
2.04906e-05
4.49108e-07
3.9613e-05
3.92971e-05
3.17727e-05
2.46997e-05
6.1261e-06
1.47696e-05
2.86607e-05
1.46058e-05
5.57859e-06
5.57188e-06
5.73527e-06
5.09644e-06
3.04825e-06
8.55874e-06
3.13313e-05
3.96461e-05
3.88734e-05
1.01832e-05
1.3418e-07
1.07247e-05
6.33186e-06
2.83846e-05
2.30237e-05
5.36356e-06
2.09546e-05
4.34768e-05
4.34926e-05
2.82955e-05
1.66436e-05
2.95314e-05
3.11413e-05
2.65444e-05
2.94082e-05
3.45439e-05
3.32332e-05
6.21374e-06
7.55876e-08
7.55496e-08
1.85025e-06
1.09199e-06
8.24242e-06
1.65134e-05
2.40073e-06
5.05135e-06
2.3614e-05
4.34817e-05
4.21121e-05
4.0352e-05
3.8501e-05
3.26829e-05
2.22406e-05
4.55171e-06
7.04253e-07
8.45705e-08
1.20694e-06
1.46684e-07
7.55496e-08
2.21337e-07
1.0919e-06
6.38898e-07
4.36311e-07
3.36925e-07
1.70504e-06
3.23803e-06
3.58568e-06
1.68142e-06
5.17494e-06
8.57428e-06
3.66872e-06
1.45918e-06
9.69364e-08
9.75234e-08
8.69072e-08
5.28521e-07
5.14747e-07
7.55504e-08
1.01265e-07
1.07101e-06
4.58578e-07
2.44147e-08
5.85536e-07
1.72667e-06
1.60462e-06
1.77043e-06
1.5448e-06
2.44946e-07
1.07092e-09
1.07446e-09
1.07176e-09
4.36125e-07
6.44235e-07
3.63859e-07
2.23709e-07
4.75226e-07
7.83309e-08
1.5108e-07
3.97906e-07
1.14793e-07
2.49528e-08
2.84289e-07
6.20323e-07
5.80185e-07
4.55146e-07
3.00413e-07
1.33741e-07
8.21543e-09
1.65075e-09
1.09301e-09
1.83767e-07
6.32406e-07
6.4456e-07
2.45772e-07
2.00632e-07
8.6728e-08
1.53091e-07
9.43265e-08
4.9984e-08
2.69705e-08
1.34154e-08
7.77875e-09
5.30629e-09
2.49534e-09
1.17255e-09
1.17301e-09
1.4891e-09
2.37747e-09
2.94418e-09
2.6803e-09
2.67747e-09
3.3165e-08
2.95568e-07
1.27109e-07
1.37768e-07
8.36756e-08
3.48847e-08
2.15827e-08
1.20633e-08
4.37033e-09
2.94809e-09
2.86216e-09
2.90228e-09
3.18407e-09
4.20876e-09
4.70215e-09
6.18092e-09
1.68501e-08
1.46521e-08
7.35873e-09
2.07688e-07
2.98349e-07
1.28142e-07
1.67568e-07
9.76619e-09
8.78047e-09
5.64814e-09
3.45322e-09
2.54585e-09
2.38917e-09
2.35348e-09
2.43678e-09
4.01921e-09
6.31738e-09
9.28174e-09
1.63263e-08
3.13087e-08
5.91105e-08
1.15305e-07
2.2337e-07
2.14557e-07
5.67218e-08
1.68951e-07
1.84933e-09
1.61783e-09
1.16419e-09
1.12252e-09
1.2226e-09
1.39564e-09
1.68023e-09
2.13683e-09
2.95421e-09
4.60315e-09
1.03163e-08
2.26517e-08
3.3505e-08
4.66379e-08
9.7698e-08
1.26245e-07
6.50791e-08
9.12736e-09
1.69057e-07
4.7325e-10
3.70662e-10
3.53218e-10
4.00725e-10
4.68941e-10
5.67583e-10
7.32051e-10
1.0705e-09
1.6428e-09
2.52279e-09
3.92668e-09
6.20528e-09
8.21123e-09
1.08458e-08
3.22236e-08
4.28416e-08
2.0092e-08
3.06919e-09
1.1729e-07
1.14708e-10
1.14527e-10
1.34783e-10
1.61867e-10
2.02521e-10
2.66242e-10
3.66714e-10
5.46167e-10
8.79081e-10
1.44445e-09
2.42899e-09
3.53899e-09
4.86243e-09
7.16003e-09
1.16273e-08
2.49027e-08
1.00651e-08
3.0663e-09
1.09212e-07
3.40378e-11
4.29036e-11
5.49118e-11
7.18057e-11
9.8316e-11
1.44865e-10
2.32456e-10
4.00575e-10
7.25538e-10
1.37853e-09
2.72907e-09
4.84121e-09
8.80455e-09
1.32132e-08
1.85081e-08
9.98907e-09
5.94313e-09
3.11049e-09
1.09718e-07
1.25206e-11
1.61002e-11
2.16478e-11
2.98774e-11
4.3894e-11
7.56204e-11
1.30792e-10
2.31186e-10
4.95893e-10
1.19354e-09
2.80578e-09
5.86411e-09
1.25103e-08
2.44531e-08
3.2286e-08
2.72475e-08
6.16702e-09
5.71803e-09
1.19555e-07
3.98082e-12
5.54026e-12
7.48294e-12
1.0671e-11
1.66103e-11
2.35134e-11
2.93137e-11
5.87255e-11
1.62128e-10
5.54952e-10
1.89297e-09
6.00515e-09
1.32438e-08
3.09589e-08
4.80427e-08
5.02534e-08
1.42392e-08
3.15097e-08
1.22557e-07
1.32718e-12
1.66138e-12
2.2178e-12
3.16937e-12
4.75322e-12
4.06019e-12
4.76544e-12
1.23149e-11
4.17735e-11
1.6472e-10
7.07921e-10
3.28633e-09
1.20072e-08
2.72677e-08
4.8469e-08
5.02557e-08
2.84845e-08
4.02394e-08
1.22569e-07
3.14692e-13
4.29878e-13
5.20587e-13
6.85923e-13
9.90511e-13
1.00915e-12
9.08893e-13
2.95831e-12
1.21592e-11
5.5275e-11
2.88087e-10
1.81032e-09
8.38152e-09
2.21118e-08
3.85496e-08
4.20309e-08
2.53832e-08
1.1063e-07
1.10872e-07
9.02081e-14
9.6411e-14
1.09477e-13
1.33202e-13
1.75699e-13
2.38949e-13
2.88512e-13
1.01552e-12
4.52208e-12
2.1344e-11
9.82809e-11
4.49033e-10
4.41668e-09
1.10133e-08
3.06561e-08
2.9732e-08
2.72864e-08
1.16336e-07
1.1107e-07
2.22339e-14
2.29337e-14
2.47063e-14
3.01136e-14
4.34042e-14
7.51451e-14
1.6331e-13
4.9741e-13
2.02157e-12
9.55052e-12
4.15696e-11
1.69743e-10
1.64369e-09
7.07526e-09
1.38177e-08
2.41478e-08
3.59193e-08
1.03173e-07
1.59605e-07
5.68205e-15
5.53103e-15
6.07018e-15
8.1913e-15
1.44459e-14
3.43788e-14
1.02316e-13
3.4326e-13
1.18604e-12
5.14901e-12
2.1389e-11
7.49799e-11
3.92802e-10
2.13223e-09
6.65489e-09
1.79207e-08
3.6973e-08
3.97187e-08
3.80476e-07
1.47199e-15
1.45997e-15
1.70216e-15
2.67387e-15
6.0723e-15
1.83968e-14
6.43762e-14
2.35883e-13
8.63171e-13
3.40467e-12
1.3562e-11
4.86875e-11
3.26183e-10
1.19107e-09
2.25956e-09
6.93413e-09
2.28778e-08
2.74353e-08
3.83671e-07
3.75255e-16
3.9169e-16
5.17487e-16
9.96349e-16
2.74499e-15
9.45552e-15
3.59289e-14
1.39859e-13
5.38653e-13
2.12908e-12
8.46979e-12
3.1075e-11
1.41447e-10
9.14656e-10
2.11597e-09
3.16219e-09
8.1008e-09
2.1085e-08
3.83689e-07
9.21605e-17
1.02612e-16
1.57321e-16
3.63526e-16
1.13515e-15
4.17e-15
1.64879e-14
6.66386e-14
2.69668e-13
1.06684e-12
4.54112e-12
1.97743e-11
8.01505e-11
4.83948e-10
2.32189e-09
3.75794e-09
4.83649e-09
2.242e-08
3.00641e-07
2.02128e-17
2.37917e-17
4.09523e-17
1.08677e-16
3.76683e-16
1.45876e-15
5.86625e-15
2.40005e-14
9.94973e-14
4.08993e-13
1.69843e-12
7.60168e-12
3.44399e-11
1.50063e-10
1.10081e-09
3.73224e-09
6.24554e-09
2.39803e-08
1.35717e-07
3.86567e-18
4.31317e-18
8.06354e-18
2.45292e-17
9.81617e-17
4.25514e-16
1.88059e-15
8.44262e-15
3.84575e-14
1.73248e-13
7.88284e-13
3.7054e-12
1.72446e-11
7.78595e-11
3.72209e-10
1.88654e-09
5.32833e-09
1.52417e-08
5.3451e-08
6.07091e-19
6.31582e-19
9.96369e-19
2.91299e-18
1.32365e-17
6.72138e-17
3.3224e-16
1.58771e-15
7.57406e-15
3.66927e-14
1.86894e-13
9.56594e-13
5.25158e-12
2.73094e-11
1.57601e-10
7.42119e-10
2.13323e-09
2.37329e-09
1.68262e-10
7.28937e-20
6.69843e-20
8.25208e-20
1.77239e-19
7.2756e-19
4.18421e-18
2.46075e-17
1.31281e-16
6.23301e-16
2.7079e-15
1.16826e-14
6.09496e-14
4.27586e-13
3.33708e-12
2.87518e-11
1.92984e-10
4.96808e-10
4.32626e-10
1.6433e-10
)
;

boundaryField
{
    leftWall
    {
        type            zeroGradient;
    }
    rightWall
    {
        type            zeroGradient;
    }
    lowerWall
    {
        type            zeroGradient;
    }
    atmosphere
    {
        type            inletOutlet;
        inletValue      uniform 0;
        value           nonuniform List<scalar> 
46
(
8.55033e-08
1.54668e-08
6.9585e-09
2.97428e-08
0
0
0
0
0
0
0
0
0
0
0
0
0
0
1.97713e-16
5.09504e-16
4.35523e-16
9.06908e-17
7.83376e-18
1.64665e-19
1.10391e-19
9.53583e-20
8.41241e-20
7.28937e-20
0
0
0
0
0
0
0
0
0
0
6.09496e-14
4.27586e-13
3.33708e-12
2.87518e-11
1.92984e-10
4.96808e-10
4.32626e-10
1.6433e-10
)
;
    }
    defaultFaces
    {
        type            empty;
    }
}


// ************************************************************************* //
