/*--------------------------------*- C++ -*----------------------------------*\
| =========                 |                                                 |
| \\      /  F ield         | OpenFOAM: The Open Source CFD Toolbox           |
|  \\    /   O peration     | Version:  2312                                  |
|   \\  /    A nd           | Website:  www.openfoam.com                      |
|    \\/     M anipulation  |                                                 |
\*---------------------------------------------------------------------------*/
FoamFile
{
    version     2.0;
    format      ascii;
    arch        "LSB;label=32;scalar=64";
    class       volScalarField;
    location    "4.95";
    object      p;
}
// * * * * * * * * * * * * * * * * * * * * * * * * * * * * * * * * * * * * * //

dimensions      [1 -1 -2 0 0 0 0];

internalField   nonuniform List<scalar> 
2268
(
4856.31
4868.11
4892.07
4928.48
4977.15
5037.16
5106.61
5182.45
5260.37
5335.37
5402.29
5456.79
5496.24
5520.06
5528.98
5524.8
5509.46
5484.91
5454.06
5421.44
5391.83
5369.44
5356.88
4057.1
4068.63
4092.58
4129.06
4177.97
4238.42
4308.59
4385.42
4464.52
4540.72
4608.68
4663.8
4703.36
4726.95
4735.33
4730.52
4714.54
4689.21
4657.31
4623.52
4592.76
4569.13
4555.83
3254.82
3266
3289.83
3326.43
3375.82
3437.15
3508.74
3587.59
3669.07
3747.72
3817.8
3874.21
3913.97
3937
3944.27
3938.26
3921.11
3894.3
3860.28
3824.17
3791.11
3765.24
3750.8
2449.2
2460.25
2484
2520.77
2570.82
2633.41
2707.05
2788.85
2873.86
2956.17
3029.52
3087.96
3127.97
3150.39
3155.95
3148.16
3129.45
3100.63
3063.35
3023.62
2987.01
2957.77
2941.69
1639.6
1650.74
1674.66
1711.86
1762.76
1826.84
1903.15
1988.99
2078.91
2166.36
2244.35
2305.68
2345.68
2367.07
2370.45
2360.48
2339.91
2308.61
2266.63
2221.71
2180.03
2146.1
2127.69
1045.93
1052.11
1064.61
1084.39
1112.41
1149.67
1197.7
1257.65
1327.4
1402.09
1474.29
1532.18
1571.39
1589.91
1590.24
1576.86
1555.25
1527.77
1487.89
1439.12
1395.72
1357.41
1335.41
830.223
831.74
833.093
835.381
838.871
844.318
853.026
867.042
887.854
915.051
945.244
970.468
987.341
993.986
989.917
978.156
961.688
944.855
922.877
894.914
870.98
848.708
835.319
770.034
771.384
772.343
773.522
774.642
775.403
775.696
774.928
773.107
770.332
766.425
762.124
757.222
752.307
747.697
741.572
727.844
715.641
708.679
703.457
697.837
693.287
690.848
2504.29
2521.99
2559.9
2612.26
2660.45
2702.48
2732.27
2748.07
2752.57
2750.65
2746
2739.52
2733.21
2713.28
2679.9
2647.65
2583.75
2502.1
2446.22
1748.63
1764.54
1801.14
1848.14
1897.17
1940.03
1970.38
1984.94
1988.26
1985.36
1979.93
1972.02
1966.48
1951.15
1923.53
1892.97
1821.26
1738.83
1690.06
1144.31
1156.76
1179.66
1206.61
1237.77
1269.66
1297.48
1314.35
1320.68
1321.71
1323.02
1327.09
1335.51
1338.37
1332.01
1300.82
1220.46
1166.23
1137.71
892.837
895.931
899.306
902.426
907.777
916.46
928.658
942.125
953.964
965.315
970.325
972.741
972.113
974.965
977.617
969.306
945.664
943.652
930.231
839.122
836.063
833.195
829.582
827.68
827.466
827.063
831.801
841.379
856.672
858.614
845.467
824.72
817.48
819.32
831.93
861.321
878.22
873.232
782.699
776.33
774.448
771.07
768.603
768.721
768.947
770.683
776.907
792.792
795.55
781.93
761.908
758.648
766.916
779.816
801.181
813.954
815.713
726.346
717.607
714.955
711.691
708.848
709.365
710.356
709.665
713.875
728.072
730.606
718.245
701.018
704.524
714.531
722.783
739.963
751.025
757.441
665.749
659.126
655.217
652.024
649.906
650.15
651.563
651.284
655.053
664.013
666.359
654.928
645.224
656.379
666.405
673.283
681.292
689.892
699.366
675.867
676.607
677.53
678.512
679.462
680.301
681.366
681.918
681.872
680.999
678.762
675.331
670.958
665.624
658.757
649.382
639.433
629.344
620.848
612.782
605.303
598.459
590.381
549.597
549.621
549.843
550.117
550.168
550.99
554.074
556.779
558.854
560.499
560.897
559.514
556.115
550.909
543.838
534.699
523.695
511.635
498.53
485.683
474.188
464.107
455.502
449.372
449.159
448.268
447.809
447.15
445.224
443.547
443.871
444.787
445.465
445.886
445.562
442.717
437.318
429.641
419.609
407.147
392.419
377.185
363.169
350.966
342.054
336.627
378.414
378.167
376.169
374.003
371.656
368.332
364.72
361.959
359.179
355.279
351.233
347.313
342.373
336.111
328.252
318.837
307.44
294.326
281.398
269.518
259.517
251.652
247.257
312.924
312.267
310.701
308.904
307.345
305.784
303.589
300.185
295.198
288.991
282.109
274.814
267.981
260.912
252.925
244.342
234.576
223.801
212.224
200.938
190.437
181.57
174.985
247.111
246.575
246.034
245.137
244.236
243.51
241.867
238.969
234.797
230.03
224.705
218.613
211.937
204.618
195.979
185.367
173.968
161.817
148.879
134.408
120.553
109.149
101.453
181.59
181.195
180.952
180.515
179.936
179.518
178.498
176.403
173.649
170.442
166.757
162.499
157.56
151.408
143.062
131.765
117.603
100.779
81.2761
63.899
50.1119
38.5237
32.0379
116.006
115.686
115.498
115.169
114.87
114.647
114.127
113.086
111.641
109.876
107.763
105.371
102.587
98.5563
91.2836
78.4795
61.1052
42.0672
26.1978
17.6702
10.0093
4.94064
2.7278
51.1804
50.9201
50.7884
50.5317
50.2892
50.207
50.1635
50.055
49.714
49.0928
48.1249
47.0727
46.0794
44.8324
40.7674
31.0481
18.0025
10.1504
6.99648
3.84555
0.698609
-0.263151
-0.595077
8.73073
8.65941
8.71625
8.70884
8.6101
8.71726
9.03578
9.49872
9.87221
10.0633
9.90665
9.67767
9.41752
8.93452
6.09546
2.50919
2.37867
2.76196
1.43969
-0.514243
-0.876446
-0.979226
-1.08249
-1.72687
-1.75541
-1.78762
-1.7983
-1.82317
-1.83404
-1.82524
-1.82932
-1.84988
-1.87713
-1.86077
-1.89845
-2.01897
-2.02589
-2.04101
-1.88499
-1.47185
-1.36631
-1.52881
-1.43748
-1.27978
-1.28569
-1.3347
-1.99337
-1.99425
-1.99853
-2.00955
-2.01912
-2.03596
-2.06075
-2.08948
-2.12416
-2.16513
-2.21801
-2.27746
-2.3433
-2.43028
-2.50399
-2.56409
-2.67138
-2.54676
-2.17269
-1.83375
-1.66289
-1.60961
-1.57902
-2.11818
-2.1198
-2.12356
-2.1308
-2.14057
-2.15481
-2.17575
-2.20318
-2.23792
-2.2806
-2.33245
-2.39056
-2.44823
-2.50925
-2.57295
-2.63439
-2.66441
-2.5857
-2.31384
-2.08693
-1.94889
-1.8473
-1.80053
-2.24364
-2.24536
-2.24868
-2.2544
-2.26289
-2.2751
-2.29255
-2.31604
-2.34582
-2.38182
-2.42416
-2.4714
-2.5178
-2.56031
-2.5987
-2.62207
-2.62286
-2.54345
-2.38016
-2.23877
-2.11977
-2.03973
-1.99796
-2.36808
-2.36983
-2.37293
-2.37797
-2.38541
-2.39604
-2.41078
-2.43014
-2.4542
-2.48256
-2.51404
-2.54707
-2.57895
-2.60759
-2.62963
-2.63602
-2.61616
-2.55108
-2.45186
-2.35024
-2.26833
-2.21031
-2.17376
-2.49149
-2.49316
-2.4961
-2.50063
-2.50708
-2.51606
-2.52809
-2.54347
-2.56209
-2.58356
-2.60686
-2.62989
-2.65066
-2.66716
-2.67549
-2.67201
-2.64795
-2.59925
-2.53168
-2.46431
-2.40681
-2.3635
-2.33336
-2.61407
-2.61556
-2.61824
-2.62227
-2.62788
-2.63544
-2.64519
-2.65724
-2.67143
-2.68732
-2.70398
-2.71957
-2.73244
-2.74073
-2.74237
-2.73317
-2.71086
-2.67411
-2.62734
-2.57994
-2.53808
-2.50481
-2.48017
-2.73613
-2.73744
-2.73981
-2.74337
-2.7482
-2.75449
-2.76233
-2.77169
-2.78234
-2.79379
-2.80516
-2.81522
-2.82258
-2.82581
-2.82338
-2.8128
-2.7934
-2.76533
-2.73149
-2.69682
-2.66535
-2.6392
-2.61903
-2.85786
-2.85901
-2.86108
-2.86417
-2.86827
-2.87344
-2.87967
-2.88685
-2.8947
-2.90277
-2.91034
-2.91647
-2.92014
-2.92026
-2.91579
-2.90541
-2.88898
-2.86705
-2.84156
-2.81537
-2.79107
-2.77009
-2.75315
-2.97939
-2.9804
-2.98219
-2.98482
-2.98824
-2.99243
-2.99731
-3.00274
-3.00842
-3.01396
-3.01878
-3.02219
-3.02342
-3.02173
-3.01641
-3.00683
-2.99303
-2.97558
-2.95579
-2.93542
-2.91617
-2.89904
-2.88458
-3.10082
-3.1017
-3.10324
-3.10545
-3.10826
-3.1116
-3.11536
-3.11937
-3.12338
-3.12703
-3.12987
-3.13141
-3.13109
-3.12838
-3.12286
-3.1143
-3.10272
-3.08861
-3.07287
-3.05665
-3.04106
-3.02688
-3.01453
-3.22221
-3.22299
-3.2243
-3.22614
-3.22841
-3.23103
-3.23387
-3.23676
-3.23947
-3.24171
-3.24317
-3.24344
-3.24216
-3.23897
-3.23353
-3.22602
-3.21626
-3.20469
-3.19193
-3.17876
-3.16592
-3.15402
-3.14342
-3.34362
-3.3443
-3.34541
-3.34693
-3.34875
-3.35077
-3.35286
-3.35485
-3.35657
-3.35779
-3.35826
-3.35771
-3.35589
-3.35259
-3.34775
-3.34086
-3.33251
-3.32288
-3.31237
-3.30151
-3.29082
-3.28073
-3.27158
-3.46508
-3.46568
-3.46662
-3.46787
-3.46931
-3.47083
-3.47231
-3.47362
-3.47459
-3.47506
-3.47485
-3.47376
-3.47164
-3.46833
-3.46375
-3.45779
-3.45066
-3.44257
-3.43381
-3.42475
-3.41575
-3.40716
-3.39925
-3.58663
-3.58716
-3.58796
-3.58898
-3.59011
-3.59122
-3.59222
-3.59299
-3.5934
-3.59333
-3.59266
-3.59125
-3.58898
-3.58577
-3.58155
-3.57633
-3.57022
-3.56336
-3.55598
-3.54834
-3.54073
-3.53338
-3.52654
-3.70829
-3.70876
-3.70945
-3.71028
-3.71114
-3.71193
-3.71255
-3.71291
-3.71291
-3.71247
-3.71149
-3.70989
-3.70759
-3.70454
-3.70071
-3.69611
-3.69083
-3.68497
-3.6787
-3.67222
-3.66573
-3.65942
-3.6535
-3.83009
-3.83051
-3.83109
-3.83176
-3.83241
-3.83294
-3.83327
-3.83332
-3.83302
-3.83233
-3.83116
-3.82948
-3.82722
-3.82436
-3.82089
-3.81683
-3.81225
-3.80721
-3.80185
-3.79632
-3.79076
-3.78532
-3.78019
-3.95203
-3.95241
-3.9529
-3.95344
-3.95392
-3.95424
-3.95434
-3.95416
-3.95366
-3.9528
-3.95153
-3.94983
-3.94766
-3.94501
-3.94188
-3.93829
-3.93429
-3.92994
-3.92533
-3.92058
-3.9158
-3.91111
-3.90665
-4.07415
-4.07448
-4.07489
-4.07531
-4.07564
-4.0758
-4.07573
-4.07539
-4.07475
-4.07378
-4.07247
-4.0708
-4.06874
-4.0663
-4.06348
-4.06031
-4.05681
-4.05304
-4.04907
-4.04498
-4.04086
-4.0368
-4.03292
-4.19644
-4.19672
-4.19705
-4.19737
-4.19758
-4.19761
-4.19741
-4.19695
-4.19621
-4.1952
-4.19389
-4.19227
-4.19035
-4.18812
-4.18558
-4.18277
-4.17971
-4.17644
-4.17301
-4.16948
-4.16592
-4.16241
-4.15903
-4.31885
-4.31911
-4.31938
-4.31962
-4.31974
-4.31967
-4.31936
-4.31881
-4.31801
-4.31697
-4.31569
-4.31416
-4.31238
-4.31034
-4.30807
-4.30559
-4.30291
-4.30007
-4.2971
-4.29405
-4.29098
-4.28795
-4.28502
-4.44136
-4.44161
-4.44187
-4.44206
-4.44212
-4.44196
-4.44156
-4.44093
-4.44009
-4.43905
-4.43782
-4.43638
-4.43474
-4.4329
-4.43088
-4.42868
-4.42634
-4.42388
-4.42131
-4.41869
-4.41604
-4.41343
-4.41089
-4.56404
-4.56428
-4.56452
-4.56468
-4.56469
-4.56445
-4.56397
-4.56328
-4.56241
-4.56139
-4.56021
-4.55887
-4.55738
-4.55573
-4.55393
-4.552
-4.54996
-4.54783
-4.54563
-4.54337
-4.5411
-4.53886
-4.53667
-4.68686
-4.68709
-4.68731
-4.68745
-4.68741
-4.6871
-4.68654
-4.6858
-4.68492
-4.68392
-4.68282
-4.68159
-4.68024
-4.67877
-4.67719
-4.6755
-4.67374
-4.6719
-4.67001
-4.66809
-4.66616
-4.66424
-4.66238
-4.80978
-4.81
-4.8102
-4.81032
-4.81024
-4.80985
-4.80923
-4.80845
-4.80758
-4.80663
-4.8056
-4.80449
-4.80329
-4.80199
-4.80061
-4.79915
-4.79763
-4.79607
-4.79447
-4.79284
-4.79121
-4.78959
-4.78802
-4.93273
-4.93294
-4.93314
-4.93326
-4.93311
-4.93266
-4.93199
-4.93121
-4.93036
-4.92947
-4.92854
-4.92754
-4.92648
-4.92536
-4.92416
-4.92292
-4.92163
-4.92031
-4.91897
-4.91761
-4.91626
-4.91491
-4.9136
-5.05564
-5.05585
-5.05604
-5.05612
-5.05594
-5.05547
-5.05478
-5.05402
-5.05323
-5.05243
-5.05159
-5.05072
-5.04981
-5.04884
-5.04783
-5.04679
-5.04571
-5.04461
-5.04351
-5.04241
-5.0413
-5.0402
-5.03913
-5.17846
-5.17866
-5.17884
-5.17888
-5.17867
-5.17821
-5.17756
-5.17687
-5.17617
-5.17547
-5.17476
-5.17401
-5.17324
-5.17243
-5.17159
-5.17073
-5.16986
-5.16897
-5.16809
-5.16721
-5.16634
-5.16548
-5.16463
-5.30115
-5.30132
-5.30149
-5.3015
-5.30128
-5.30088
-5.30033
-5.29976
-5.29918
-5.2986
-5.29801
-5.2974
-5.29676
-5.29611
-5.29543
-5.29475
-5.29406
-5.29338
-5.2927
-5.29204
-5.29138
-5.29073
-5.29009
-5.4237
-5.42381
-5.42398
-5.42397
-5.42375
-5.42348
-5.4231
-5.42269
-5.42225
-5.42181
-5.42134
-5.42086
-5.42036
-5.41985
-5.41934
-5.41882
-5.41832
-5.41782
-5.41734
-5.41688
-5.41642
-5.41597
-5.41553
-5.54614
-5.54619
-5.54636
-5.54628
-5.54613
-5.54603
-5.54587
-5.54565
-5.54537
-5.54507
-5.54474
-5.54439
-5.54402
-5.54366
-5.5433
-5.54295
-5.54261
-5.5423
-5.54202
-5.54173
-5.54146
-5.5412
-5.54095
-5.66854
-5.66849
-5.66878
-5.66853
-5.66838
-5.66857
-5.66866
-5.66864
-5.66852
-5.66836
-5.66816
-5.66794
-5.66772
-5.6675
-5.66729
-5.6671
-5.66693
-5.66678
-5.66666
-5.66658
-5.66651
-5.66643
-5.66636
581.984
578.12
574.661
571.367
449.003
444.311
439.893
436.561
333.571
330.962
328.373
326.145
244.08
242.218
240.58
238.798
171.058
168.566
166.136
163.79
97.4957
95.1971
93.0402
90.944
29.2577
27.87
26.6533
25.4047
1.98146
1.57566
1.23406
0.977505
-0.755075
-0.848566
-0.913305
-0.961706
-1.14567
-1.17871
-1.21759
-1.25502
-1.3649
-1.38808
-1.41288
-1.43652
-1.58653
-1.59658
-1.60785
-1.6201
-1.79353
-1.7931
-1.7945
-1.7972
-1.98237
-1.97546
-1.97022
-1.96624
-2.15579
-2.14653
-2.13826
-2.13138
-2.31754
-2.30905
-2.30179
-2.29563
-2.46755
-2.46157
-2.45774
-2.45259
-2.60863
-2.60381
-2.60097
-2.59719
-2.74369
-2.73892
-2.73564
-2.73247
-2.87605
-2.87144
-2.86787
-2.86486
-3.00704
-3.0028
-2.9993
-2.9964
-3.13686
-3.133
-3.12962
-3.12673
-3.26574
-3.26227
-3.25912
-3.25631
-3.39407
-3.39095
-3.38808
-3.38546
-3.52197
-3.51918
-3.51659
-3.51419
-3.64949
-3.64702
-3.6447
-3.64252
-3.77667
-3.77449
-3.77243
-3.77047
-3.90356
-3.90164
-3.89981
-3.89806
-4.03021
-4.02852
-4.02691
-4.02535
-4.15666
-4.15518
-4.15376
-4.15239
-4.28295
-4.28166
-4.28041
-4.2792
-4.4091
-4.40797
-4.40688
-4.40582
-4.53512
-4.53415
-4.53321
-4.53229
-4.66105
-4.66022
-4.6594
-4.65861
-4.78689
-4.78618
-4.78549
-4.78482
-4.91266
-4.91207
-4.91149
-4.91092
-5.03837
-5.03788
-5.03741
-5.03694
-5.16402
-5.16364
-5.16326
-5.16289
-5.28963
-5.28934
-5.28906
-5.28878
-5.41522
-5.41502
-5.41482
-5.41462
-5.54076
-5.54065
-5.54053
-5.54041
-5.66631
-5.66627
-5.66623
-5.66619
563.721
563.034
561.507
558.384
556.69
557.293
559.03
560.628
566.65
570.901
573.27
566.601
565.02
577.353
587.977
591.017
593.562
596.786
606.116
431.584
433.464
431.549
429.97
430.177
431.16
432.855
435.327
440.408
446.615
448.619
446.15
449.078
463.464
477.415
471.994
472.073
473.154
479.86
322.667
320.895
319.352
317.793
317.673
317.796
319.05
322.973
324.919
335.587
341.333
336.288
336.815
342.161
350.45
349.205
350.866
355.243
361.23
235.804
234.021
234.412
232.98
233.554
234.126
235.1
239.018
242.491
247.905
251.55
249.249
249.345
249.058
250.002
250.528
251.146
255.059
260.442
160.544
159.255
159.888
162.492
165.315
167.274
170.234
173.61
176.586
177.907
179.101
180.339
181.5
181.516
181.171
179.303
177.047
177.666
182.462
88.1991
88.3452
89.8856
93.5515
97.4738
101.207
105.146
109.432
113.81
116.964
118.965
120.122
119.958
119.215
117.93
115.864
113.192
110.794
111.489
24.1115
26.792
29.8099
32.5505
36.1921
40.2569
43.5846
47.0455
51.1101
54.5847
57.7332
59.5225
59.0086
58.1716
57.1245
55.5257
53.491
50.7121
49.7514
0.671894
1.02847
1.9293
2.68809
4.21343
5.76864
6.80686
7.88847
9.67586
11.1924
13.3035
14.8505
14.4754
14.4095
14.6364
14.5562
14.0965
12.9092
13.081
-1.02881
-1.15622
-1.22703
-1.27423
-1.29409
-1.22701
-1.05228
-1.03571
-1.13671
-1.0885
-1.11764
-1.04301
-0.853288
-0.457507
0.251693
0.8719
1.13365
1.11508
1.24959
-1.30804
-1.37125
-1.43634
-1.47327
-1.49955
-1.50515
-1.50767
-1.50815
-1.52106
-1.54236
-1.54798
-1.56523
-1.58237
-1.58993
-1.59113
-1.59197
-1.59163
-1.58699
-1.58354
-1.47286
-1.52126
-1.56925
-1.59703
-1.61536
-1.62766
-1.63744
-1.65016
-1.66632
-1.67847
-1.68219
-1.6934
-1.71134
-1.71339
-1.71181
-1.7133
-1.71244
-1.71028
-1.70763
-1.64033
-1.67272
-1.70549
-1.73103
-1.75049
-1.76366
-1.77615
-1.79294
-1.80868
-1.81174
-1.81256
-1.81983
-1.83082
-1.83777
-1.83756
-1.83821
-1.83511
-1.83571
-1.83466
-1.80262
-1.82198
-1.84681
-1.86791
-1.8844
-1.90041
-1.91397
-1.93174
-1.94411
-1.94327
-1.94067
-1.94598
-1.95561
-1.96378
-1.96563
-1.96675
-1.96442
-1.96641
-1.96729
-1.96294
-1.97334
-1.9906
-2.00463
-2.0152
-2.03448
-2.04915
-2.06507
-2.07257
-2.07224
-2.07247
-2.07798
-2.08507
-2.09045
-2.09382
-2.0954
-2.09433
-2.09597
-2.09858
-2.12648
-2.1302
-2.13674
-2.14191
-2.14879
-2.16731
-2.17972
-2.19644
-2.20379
-2.20318
-2.20756
-2.21404
-2.21758
-2.21917
-2.22168
-2.22457
-2.22548
-2.22775
-2.22965
-2.2911
-2.29066
-2.28748
-2.2844
-2.28972
-2.30321
-2.31487
-2.32736
-2.33514
-2.33706
-2.34047
-2.3435
-2.34579
-2.34744
-2.35111
-2.35486
-2.35659
-2.35918
-2.35769
-2.44616
-2.44333
-2.43807
-2.43232
-2.43747
-2.44401
-2.45291
-2.46091
-2.46707
-2.47085
-2.47334
-2.47454
-2.47545
-2.47757
-2.48187
-2.48501
-2.48484
-2.48621
-2.48266
-2.58913
-2.58446
-2.58191
-2.57961
-2.58278
-2.58538
-2.59244
-2.59824
-2.60276
-2.60642
-2.60865
-2.60907
-2.60889
-2.60947
-2.61169
-2.61238
-2.61038
-2.60991
-2.60778
-2.7261
-2.72115
-2.71939
-2.71996
-2.72151
-2.7231
-2.7278
-2.73238
-2.73553
-2.738
-2.74006
-2.74037
-2.73962
-2.73879
-2.73867
-2.73782
-2.73641
-2.73454
-2.73417
-2.86009
-2.85563
-2.85347
-2.85347
-2.85468
-2.85663
-2.85957
-2.86238
-2.86463
-2.86647
-2.86777
-2.86823
-2.86769
-2.86657
-2.86525
-2.86409
-2.86288
-2.86109
-2.86143
-2.99209
-2.98784
-2.98545
-2.98462
-2.98534
-2.98715
-2.98919
-2.99102
-2.99249
-2.99356
-2.99434
-2.99471
-2.99462
-2.9939
-2.99257
-2.99103
-2.98949
-2.98803
-2.98805
-3.12249
-3.11815
-3.11561
-3.11437
-3.11439
-3.11539
-3.11678
-3.11812
-3.11921
-3.12005
-3.12073
-3.12113
-3.12112
-3.12066
-3.11972
-3.11814
-3.11642
-3.11511
-3.1147
-3.25211
-3.24768
-3.24492
-3.24333
-3.24278
-3.24308
-3.24391
-3.24491
-3.24585
-3.24676
-3.24748
-3.24793
-3.248
-3.24759
-3.24672
-3.24535
-3.24379
-3.2425
-3.24198
-3.38142
-3.37705
-3.37411
-3.37224
-3.3713
-3.37115
-3.37156
-3.37228
-3.37315
-3.37396
-3.37466
-3.37515
-3.37528
-3.37496
-3.37417
-3.37294
-3.37147
-3.37028
-3.36981
-3.51046
-3.50631
-3.50331
-3.50128
-3.50008
-3.4996
-3.49966
-3.5001
-3.50077
-3.50147
-3.50211
-3.50259
-3.50277
-3.50256
-3.50189
-3.5008
-3.49946
-3.49834
-3.49792
-3.63913
-3.63529
-3.63236
-3.63025
-3.62889
-3.62817
-3.62797
-3.62816
-3.62862
-3.62917
-3.62973
-3.63017
-3.63039
-3.63025
-3.62971
-3.62876
-3.62758
-3.6266
-3.62622
-3.7674
-3.76388
-3.76111
-3.759
-3.75755
-3.75668
-3.75627
-3.75629
-3.75656
-3.75696
-3.75741
-3.75779
-3.75801
-3.75794
-3.75749
-3.75668
-3.75565
-3.75483
-3.75448
-3.89529
-3.89207
-3.88954
-3.88748
-3.88599
-3.88503
-3.88453
-3.88438
-3.88448
-3.88475
-3.88509
-3.88541
-3.88561
-3.88556
-3.88517
-3.88447
-3.88356
-3.8829
-3.88259
-4.02288
-4.01997
-4.01758
-4.01566
-4.0142
-4.0132
-4.01262
-4.01236
-4.01234
-4.01249
-4.01273
-4.01298
-4.01315
-4.01309
-4.01272
-4.01208
-4.01129
-4.01078
-4.01052
-4.15019
-4.14756
-4.14536
-4.14356
-4.14219
-4.14119
-4.14055
-4.14021
-4.1401
-4.14015
-4.14029
-4.14047
-4.14058
-4.1405
-4.14013
-4.13953
-4.13888
-4.1385
-4.13826
-4.27726
-4.2749
-4.27289
-4.27124
-4.26994
-4.26898
-4.26832
-4.26793
-4.26774
-4.2677
-4.26776
-4.26785
-4.26789
-4.26776
-4.26737
-4.26684
-4.26636
-4.26605
-4.26584
-4.40412
-4.40202
-4.40021
-4.3987
-4.39749
-4.39657
-4.39592
-4.39549
-4.39525
-4.39514
-4.3951
-4.3951
-4.39507
-4.39487
-4.39449
-4.39409
-4.39371
-4.39347
-4.39329
-4.5308
-4.52895
-4.52734
-4.52597
-4.52486
-4.52399
-4.52336
-4.52292
-4.52263
-4.52245
-4.52233
-4.52224
-4.52211
-4.52188
-4.52155
-4.52126
-4.52098
-4.52079
-4.52062
-4.65732
-4.65571
-4.65429
-4.65307
-4.65206
-4.65126
-4.65065
-4.6502
-4.64989
-4.64966
-4.64948
-4.64931
-4.64909
-4.64881
-4.64856
-4.64837
-4.64817
-4.64806
-4.64788
-4.78372
-4.78233
-4.78109
-4.78001
-4.77911
-4.77838
-4.7778
-4.77737
-4.77705
-4.77679
-4.77657
-4.77638
-4.77613
-4.77585
-4.77559
-4.77547
-4.77534
-4.7753
-4.77514
-4.91
-4.90882
-4.90776
-4.90683
-4.90603
-4.90537
-4.90485
-4.90444
-4.90412
-4.90387
-4.90365
-4.90347
-4.90331
-4.90306
-4.90277
-4.90263
-4.90253
-4.90253
-4.90242
-5.03618
-5.0352
-5.03431
-5.03352
-5.03284
-5.03226
-5.0318
-5.03142
-5.03113
-5.0309
-5.0307
-5.03055
-5.03046
-5.03033
-5.03007
-5.02989
-5.02979
-5.02974
-5.02973
-5.16228
-5.1615
-5.16077
-5.16012
-5.15955
-5.15907
-5.15867
-5.15834
-5.15808
-5.15788
-5.15772
-5.1576
-5.15753
-5.1575
-5.15738
-5.15721
-5.15706
-5.15698
-5.15707
-5.28832
-5.28772
-5.28715
-5.28664
-5.28619
-5.2858
-5.28548
-5.28521
-5.28499
-5.28482
-5.2847
-5.28461
-5.28456
-5.28457
-5.2846
-5.28453
-5.2844
-5.28427
-5.2844
-5.41429
-5.41389
-5.41346
-5.41309
-5.41277
-5.41248
-5.41224
-5.41204
-5.41187
-5.41175
-5.41166
-5.41159
-5.41158
-5.4116
-5.41168
-5.41176
-5.41175
-5.4116
-5.41171
-5.54021
-5.53992
-5.53971
-5.53949
-5.5393
-5.53912
-5.53897
-5.53884
-5.53874
-5.53866
-5.53861
-5.53856
-5.53857
-5.53862
-5.53871
-5.53884
-5.5389
-5.53885
-5.53888
-5.66612
-5.66602
-5.66594
-5.66586
-5.6658
-5.66574
-5.66569
-5.66564
-5.66559
-5.66555
-5.66551
-5.66552
-5.66556
-5.66563
-5.66575
-5.66587
-5.66594
-5.66597
-5.66601
)
;

boundaryField
{
    leftWall
    {
        type            calculated;
        value           nonuniform List<scalar> 
50
(
4856.31
4057.1
3254.82
2449.2
1639.6
1045.93
830.223
770.034
675.867
549.597
449.372
378.414
312.924
247.111
181.59
116.006
51.1804
8.73073
-1.72687
-1.99337
-2.11818
-2.24364
-2.36808
-2.49149
-2.61407
-2.73613
-2.85786
-2.97939
-3.10082
-3.22221
-3.34362
-3.46508
-3.58663
-3.70829
-3.83009
-3.95203
-4.07415
-4.19644
-4.31885
-4.44136
-4.56404
-4.68686
-4.80978
-4.93273
-5.05564
-5.17846
-5.30115
-5.4237
-5.54614
-5.66854
)
;
    }
    rightWall
    {
        type            calculated;
        value           nonuniform List<scalar> 
50
(
2446.22
1690.06
1137.71
930.231
873.232
815.713
757.441
699.366
606.116
479.86
361.23
260.442
182.462
111.489
49.7514
13.081
1.24959
-1.58354
-1.70763
-1.83466
-1.96729
-2.09858
-2.22965
-2.35769
-2.48266
-2.60778
-2.73417
-2.86143
-2.98805
-3.1147
-3.24198
-3.36981
-3.49792
-3.62622
-3.75448
-3.88259
-4.01052
-4.13826
-4.26584
-4.39329
-4.52062
-4.64788
-4.77514
-4.90242
-5.02973
-5.15707
-5.2844
-5.41171
-5.53888
-5.66601
)
;
    }
    lowerWall
    {
        type            calculated;
        value           nonuniform List<scalar> 
62
(
5254.46
5266.26
5290.22
5326.63
5375.3
5435.31
5504.76
5580.6
5658.52
5733.52
5800.44
5854.94
5894.39
5918.21
5927.13
5922.95
5907.61
5883.06
5852.21
5819.58
5789.96
5767.58
5755.02
5356.88
4555.83
3750.8
2941.69
2127.69
1335.41
835.319
690.848
643.682
639.719
647.548
649.238
2504.29
1748.63
1144.31
892.837
839.122
782.699
726.346
665.749
2886.83
2905.96
2943.75
2996.06
3043.04
3084.57
3114.51
3131.21
3136.1
3134.19
3129.54
3123.56
3118.05
3098.19
3064.8
3032.55
2968.63
2886.79
2830.7
)
;
    }
    atmosphere
    {
        type            calculated;
        value           nonuniform List<scalar> 
46
(
-5.72963
-5.72946
-5.73024
-5.72959
-5.72937
-5.72991
-5.73016
-5.73019
-5.73013
-5.73002
-5.72988
-5.72972
-5.72957
-5.72943
-5.7293
-5.72919
-5.72911
-5.72906
-5.72904
-5.72904
-5.72904
-5.72904
-5.72904
-5.72904
-5.72904
-5.72904
-5.72904
-5.72904
-5.72904
-5.72905
-5.72905
-5.72905
-5.72906
-5.72906
-5.72905
-5.72905
-5.72904
-5.72904
-5.72905
-5.72907
-5.72915
-5.72934
-5.72948
-5.7295
-5.72945
-5.72941
)
;
    }
    defaultFaces
    {
        type            empty;
    }
}


// ************************************************************************* //
