/*--------------------------------*- C++ -*----------------------------------*\
| =========                 |                                                 |
| \\      /  F ield         | OpenFOAM: The Open Source CFD Toolbox           |
|  \\    /   O peration     | Version:  2312                                  |
|   \\  /    A nd           | Website:  www.openfoam.com                      |
|    \\/     M anipulation  |                                                 |
\*---------------------------------------------------------------------------*/
FoamFile
{
    version     2.0;
    format      ascii;
    arch        "LSB;label=32;scalar=64";
    class       volVectorField;
    location    "4.95";
    object      U;
}
// * * * * * * * * * * * * * * * * * * * * * * * * * * * * * * * * * * * * * //

dimensions      [0 1 -1 0 0 0 0];

internalField   nonuniform List<vector> 
2268
(
(-0.000382209 -0.000441387 0)
(-0.0103193 0.0017972 0)
(-0.0204363 0.0021983 0)
(-0.0305408 0.00225884 0)
(-0.040238 0.00220194 0)
(-0.0495137 0.00216334 0)
(-0.0585945 0.00214146 0)
(-0.0674881 0.00209495 0)
(-0.0758495 0.00195062 0)
(-0.0831972 0.00165766 0)
(-0.0889213 0.00121083 0)
(-0.0925337 0.000694112 0)
(-0.0938003 0.000124803 0)
(-0.092676 -0.000438726 0)
(-0.08927 -0.000954482 0)
(-0.0837946 -0.00142034 0)
(-0.0764749 -0.00183652 0)
(-0.0676415 -0.00213295 0)
(-0.0578769 -0.00225223 0)
(-0.0477117 -0.00227279 0)
(-0.0370467 -0.00251473 0)
(-0.0249576 -0.00302231 0)
(-0.0118607 -0.00504215 0)
(-0.00638175 0.00550147 0)
(-0.0163341 0.00754748 0)
(-0.0266744 0.00746113 0)
(-0.036536 0.00722155 0)
(-0.0459632 0.00688388 0)
(-0.0549621 0.00657475 0)
(-0.0637618 0.00634665 0)
(-0.0723658 0.00606098 0)
(-0.0804572 0.00551265 0)
(-0.0875631 0.00457529 0)
(-0.0930463 0.00322109 0)
(-0.0963994 0.00163916 0)
(-0.0974051 -3.87508e-05 0)
(-0.0959855 -0.00171089 0)
(-0.0922593 -0.00325809 0)
(-0.0864467 -0.00465193 0)
(-0.0787351 -0.00588161 0)
(-0.0694182 -0.00678099 0)
(-0.0591149 -0.00720714 0)
(-0.0484433 -0.00742175 0)
(-0.0372114 -0.00811719 0)
(-0.0244593 -0.00927439 0)
(-0.00971004 -0.0128188 0)
(-0.00763821 0.0105477 0)
(-0.0181878 0.0116525 0)
(-0.0288609 0.0117194 0)
(-0.0390659 0.0112834 0)
(-0.0488524 0.010718 0)
(-0.0581065 0.0103402 0)
(-0.0670485 0.0101853 0)
(-0.0757906 0.0098914 0)
(-0.0840751 0.00912566 0)
(-0.0914216 0.00769788 0)
(-0.097085 0.00548178 0)
(-0.100498 0.00282742 0)
(-0.101438 8.78302e-06 0)
(-0.0998274 -0.00288016 0)
(-0.0957868 -0.00557438 0)
(-0.0895432 -0.00796307 0)
(-0.0812595 -0.0100722 0)
(-0.0712236 -0.0115624 0)
(-0.0601759 -0.0122178 0)
(-0.0488606 -0.0125742 0)
(-0.0370869 -0.013821 0)
(-0.0239476 -0.0159467 0)
(-0.00774603 -0.0204134 0)
(-0.00684 0.0181692 0)
(-0.0175374 0.0183518 0)
(-0.0282261 0.0182075 0)
(-0.0387724 0.0175734 0)
(-0.0489987 0.0165953 0)
(-0.0585582 0.0156901 0)
(-0.0677574 0.0151776 0)
(-0.0769218 0.0144305 0)
(-0.0858608 0.0130192 0)
(-0.0940477 0.0106919 0)
(-0.100502 0.00722076 0)
(-0.104465 0.00330356 0)
(-0.105755 -0.000545032 0)
(-0.104236 -0.00436602 0)
(-0.0999847 -0.00802079 0)
(-0.0933211 -0.0115103 0)
(-0.0843623 -0.014654 0)
(-0.073352 -0.016767 0)
(-0.0612956 -0.0175234 0)
(-0.0490608 -0.0178951 0)
(-0.036455 -0.0196929 0)
(-0.0229901 -0.0227932 0)
(-0.00620484 -0.0273567 0)
(-0.00459035 0.0186584 0)
(-0.0138648 0.0186214 0)
(-0.0230124 0.018832 0)
(-0.0327337 0.0187453 0)
(-0.0430117 0.0183123 0)
(-0.0534041 0.0180094 0)
(-0.0637416 0.0183617 0)
(-0.0741315 0.0184483 0)
(-0.0845982 0.017627 0)
(-0.0946118 0.0154522 0)
(-0.102576 0.0112649 0)
(-0.107507 0.00589642 0)
(-0.109549 0.000103206 0)
(-0.108524 -0.00610533 0)
(-0.104518 -0.0114777 0)
(-0.0979031 -0.0158208 0)
(-0.0883525 -0.0198033 0)
(-0.0761364 -0.0227751 0)
(-0.06277 -0.0238181 0)
(-0.0489088 -0.024408 0)
(-0.0339955 -0.0269256 0)
(-0.0197215 -0.0307234 0)
(-0.00395426 -0.0346821 0)
(-0.0049165 0.0247234 0)
(-0.015106 0.0247318 0)
(-0.0237419 0.0244911 0)
(-0.032105 0.0239373 0)
(-0.0397847 0.0229236 0)
(-0.0468665 0.0217297 0)
(-0.0537407 0.0212766 0)
(-0.0611461 0.0210719 0)
(-0.0694784 0.020288 0)
(-0.078396 0.0178971 0)
(-0.0862437 0.0128263 0)
(-0.0920212 0.00675523 0)
(-0.0966462 0.00110386 0)
(-0.10052 -0.00527537 0)
(-0.102133 -0.0112271 0)
(-0.0985633 -0.0177716 0)
(-0.0893673 -0.0245941 0)
(-0.0766946 -0.029174 0)
(-0.0622378 -0.0310112 0)
(-0.0456069 -0.0324753 0)
(-0.0261516 -0.0361782 0)
(-0.0109389 -0.0394783 0)
(0.00123528 -0.0416201 0)
(-0.00135267 0.0356926 0)
(0.00175161 0.03443 0)
(0.00864051 0.0345707 0)
(0.0115736 0.0343236 0)
(0.0114149 0.0337965 0)
(0.0059846 0.0331357 0)
(-0.00565995 0.0323166 0)
(-0.021784 0.0309609 0)
(-0.0381318 0.0287014 0)
(-0.0526126 0.0252206 0)
(-0.0674639 0.0194213 0)
(-0.0855593 0.0119958 0)
(-0.0968158 0.00531751 0)
(-0.10032 -0.00232202 0)
(-0.0952346 -0.0116616 0)
(-0.0852148 -0.0209395 0)
(-0.0718828 -0.0271525 0)
(-0.0617648 -0.0311224 0)
(-0.0513375 -0.035121 0)
(-0.0336024 -0.039486 0)
(-0.0108112 -0.0443495 0)
(0.00383469 -0.0447068 0)
(0.00998579 -0.0425595 0)
(-0.00167647 0.0269668 0)
(0.00370462 0.0212683 0)
(0.0152234 0.0227647 0)
(0.0249004 0.0235227 0)
(0.0362392 0.0240544 0)
(0.0496961 0.0267233 0)
(0.0641563 0.0299435 0)
(0.0768931 0.0322283 0)
(0.0863134 0.031968 0)
(0.0932563 0.0290065 0)
(0.096086 0.0231222 0)
(0.0963278 0.0137017 0)
(0.103848 0.00262455 0)
(0.119714 -0.00886478 0)
(0.13072 -0.0167872 0)
(0.109448 -0.0185116 0)
(0.0339857 -0.0365708 0)
(0.0459143 -0.0484938 0)
(0.0620461 -0.0512674 0)
(0.07857 -0.0518534 0)
(0.0846387 -0.0484372 0)
(0.0720485 -0.0360869 0)
(0.0463693 -0.014558 0)
(-0.016472 0.00446617 0)
(-0.009472 -0.00266704 0)
(-0.00520529 -0.00201648 0)
(0.00281333 -0.00168624 0)
(0.0125939 -0.00211216 0)
(0.0238085 -0.00267418 0)
(0.0346213 -0.00262273 0)
(0.0438585 -0.00276973 0)
(0.0529528 -0.00301444 0)
(0.0618619 -0.0031407 0)
(0.0698703 -0.00339939 0)
(0.0770462 -0.00343487 0)
(0.0828558 -0.00313738 0)
(0.085309 -0.00195598 0)
(0.0850585 -0.00156894 0)
(0.0849513 -0.000454816 0)
(0.0768275 0.00409599 0)
(0.0533759 0.00798115 0)
(0.0207798 0.0102838 0)
(0.00367891 0.00739191 0)
(0.00773222 -0.000797566 0)
(0.00302246 -0.00288644 0)
(0.00645412 -0.00552378 0)
(0.0159153 -0.00709444 0)
(0.0284402 -0.00754888 0)
(0.040306 -0.00608411 0)
(0.0498923 -0.00494968 0)
(0.0590564 -0.00492304 0)
(0.06841 -0.00427484 0)
(0.0760027 -0.00268137 0)
(0.079538 -0.00118283 0)
(0.0799396 -0.000608182 0)
(0.0788816 0.00201896 0)
(0.0788522 0.00248131 0)
(0.0801784 0.00146699 0)
(0.0709379 0.00945899 0)
(0.0447756 0.0155336 0)
(0.0147133 0.0197091 0)
(0.00919856 -0.00378773 0)
(0.0134491 -0.00301515 0)
(0.00941526 -0.00369134 0)
(0.00628489 -0.00799488 0)
(0.00715187 -0.0105551 0)
(0.0126564 -0.0107781 0)
(0.0216176 -0.00946599 0)
(0.033842 -0.00954947 0)
(0.0480395 -0.0110196 0)
(0.0639482 -0.0110394 0)
(0.0822376 -0.00904679 0)
(0.0972078 -0.00544816 0)
(0.10061 -0.00303752 0)
(0.0990678 -0.000736151 0)
(0.104113 -0.00375057 0)
(0.100573 8.64662e-05 0)
(0.0776805 0.0177017 0)
(0.0505765 0.0292875 0)
(0.0204482 0.0310017 0)
(-0.0299461 0.00204036 0)
(-0.0269481 0.00120827 0)
(-0.00892155 0.000625696 0)
(-0.0188917 -0.00176181 0)
(-0.0340788 -0.00983341 0)
(-0.0334729 -0.0161009 0)
(-0.0214452 -0.0162408 0)
(-0.00518189 -0.0162996 0)
(0.00391115 -0.0155371 0)
(0.0220299 -0.0153648 0)
(0.0641932 -0.0145897 0)
(0.111837 -0.00725888 0)
(0.140521 0.00110749 0)
(0.153162 0.00250007 0)
(0.149617 -0.00199506 0)
(0.100142 0.0124094 0)
(0.0227248 0.0435862 0)
(0.0298038 0.046602 0)
(0.0551135 0.0649733 0)
(-0.0400823 0.0168175 0)
(-0.0172777 -0.0112986 0)
(-0.00885726 -0.00509031 0)
(0.000823902 0.00239528 0)
(0.0181684 -0.00509017 0)
(-0.00342583 -0.0101522 0)
(-0.0758495 -0.0173307 0)
(-0.119462 -0.0200192 0)
(-0.120485 -0.0247717 0)
(-0.0714322 -0.0482287 0)
(0.00667016 -0.0569399 0)
(0.0907265 -0.0463416 0)
(0.158505 -0.0184272 0)
(0.166051 -0.000978517 0)
(0.017284 0.0229015 0)
(-0.125232 0.0492379 0)
(-0.106531 0.0423701 0)
(-0.0247857 -0.00349255 0)
(0.0484352 0.0713293 0)
(-0.0260293 0.0238223 0)
(0.0183643 -0.018607 0)
(0.0112538 -0.0110791 0)
(0.042296 -0.00995414 0)
(0.0430966 -0.00641992 0)
(0.0405431 0.0129904 0)
(0.000462179 0.0276394 0)
(-0.0790231 -0.00483443 0)
(-0.0856696 -0.0285422 0)
(-0.0544277 -0.0728864 0)
(-0.0313844 -0.0816738 0)
(0.0144817 -0.0796164 0)
(0.0745766 -0.0253403 0)
(0.087568 0.0391645 0)
(-0.0578283 0.0962134 0)
(-0.141969 0.0667002 0)
(-0.0815934 0.00916075 0)
(-0.0327012 -0.0293931 0)
(0.0298383 0.0757491 0)
(0.017813 0.0334517 0)
(0.0611596 -0.0192464 0)
(0.0606507 -0.0207244 0)
(0.0718619 -0.01258 0)
(0.0648408 -0.00195039 0)
(0.0520695 0.00952333 0)
(0.0371008 0.0362133 0)
(0.00484174 0.0179738 0)
(-0.0320859 -0.0205818 0)
(-0.0202847 -0.0775791 0)
(-0.0558197 -0.0851162 0)
(-0.0550924 -0.0945377 0)
(-0.0275509 -0.0394404 0)
(0.0198218 0.0646638 0)
(-0.0857019 0.134885 0)
(-0.128512 0.0698218 0)
(-0.0243728 -0.0225123 0)
(-0.0277632 -0.0425035 0)
(0.010316 0.074621 0)
(0.113705 -0.0302136 0)
(0.101816 -0.0211223 0)
(0.0886334 -0.0219075 0)
(0.0882534 -0.012141 0)
(0.0817012 0.00591791 0)
(0.0655563 0.019656 0)
(0.0558776 0.0413798 0)
(0.0441325 0.0270099 0)
(0.0344532 -0.00747868 0)
(0.0248633 -0.0585219 0)
(-0.0761419 -0.0664817 0)
(-0.109288 -0.0882866 0)
(-0.114524 -0.0395538 0)
(-0.0549374 0.0657324 0)
(-0.0914272 0.157461 0)
(-0.0826976 0.0588182 0)
(0.0186057 -0.0384419 0)
(-0.0136121 -0.0408461 0)
(-2.17241e-05 0.0675455 0)
(-0.00128201 0.0292003 0)
(-8.17859e-05 0.0172763 0)
(0.0027702 0.0178514 0)
(0.0111406 0.0182231 0)
(0.0229011 0.0150361 0)
(0.0381335 0.0157494 0)
(0.0568602 0.0165851 0)
(0.0784291 0.0192226 0)
(0.100504 0.0198669 0)
(0.123438 0.0188093 0)
(0.145361 0.0158982 0)
(0.164355 0.00791519 0)
(0.181978 -0.00496 0)
(0.196872 -0.015554 0)
(0.210627 -0.0101697 0)
(0.217941 0.0103823 0)
(0.221936 0.00783489 0)
(0.219445 -0.0189355 0)
(0.211524 -0.0378909 0)
(0.200249 -0.0449883 0)
(0.181066 -0.0424806 0)
(0.154018 -0.0299897 0)
(0.12354 -0.00450818 0)
(0.00507537 0.0262695 0)
(0.00823278 0.019169 0)
(0.00508427 0.0132303 0)
(0.0156982 0.00378222 0)
(0.0237109 -0.00281227 0)
(0.0274847 -0.00227342 0)
(0.0398467 -0.00939677 0)
(0.058401 -0.00691027 0)
(0.0799752 -0.00778022 0)
(0.103819 -0.0131041 0)
(0.129186 -0.0144325 0)
(0.153123 -0.0169808 0)
(0.17297 -0.0237654 0)
(0.187805 -0.0302805 0)
(0.199362 -0.0336339 0)
(0.212157 -0.0319443 0)
(0.224247 -0.0350114 0)
(0.228382 -0.0449185 0)
(0.223956 -0.0444077 0)
(0.213287 -0.0300043 0)
(0.198489 -0.00774169 0)
(0.180673 0.0153835 0)
(0.157604 0.0302623 0)
(0.0144316 0.0187073 0)
(0.0441195 0.0190848 0)
(0.0720282 0.011904 0)
(0.0922199 0.00472136 0)
(0.102344 0.00602924 0)
(0.0994633 0.00713313 0)
(0.0958641 -0.0168487 0)
(0.0971341 -0.0223339 0)
(0.105464 -0.0235778 0)
(0.112384 -0.0308554 0)
(0.11849 -0.0354525 0)
(0.130933 -0.0406103 0)
(0.14554 -0.0442358 0)
(0.15769 -0.0459775 0)
(0.167329 -0.0426235 0)
(0.180215 -0.0299961 0)
(0.189119 -0.0203239 0)
(0.184853 -0.023988 0)
(0.173674 -0.0242258 0)
(0.158553 -0.0190151 0)
(0.139108 -0.00682124 0)
(0.108651 0.0160105 0)
(0.0715787 0.0504629 0)
(0.0188518 -0.0289519 0)
(0.0599132 -0.0450194 0)
(0.0990658 -0.0354924 0)
(0.1305 -0.0298694 0)
(0.158526 -0.0190417 0)
(0.184718 0.00509179 0)
(0.188943 -0.00492188 0)
(0.182847 -0.0188758 0)
(0.184259 -0.0238315 0)
(0.183267 -0.0214667 0)
(0.171564 -0.0247571 0)
(0.1608 -0.0374944 0)
(0.156523 -0.042758 0)
(0.151705 -0.0434659 0)
(0.145454 -0.0443347 0)
(0.144591 -0.043161 0)
(0.15064 -0.0361632 0)
(0.156979 -0.0305063 0)
(0.155592 -0.0169401 0)
(0.131224 0.00382904 0)
(0.0844269 0.0512694 0)
(0.0202659 0.0931967 0)
(-0.00900476 0.110047 0)
(0.0146854 -0.0588748 0)
(0.0364763 -0.0759368 0)
(0.0548184 -0.0540919 0)
(0.0709532 -0.0449205 0)
(0.0829079 -0.0446828 0)
(0.108953 -0.015278 0)
(0.134933 -0.0142839 0)
(0.15521 -0.0283994 0)
(0.17882 -0.0331427 0)
(0.205147 -0.0240625 0)
(0.224628 -0.0235398 0)
(0.23427 -0.0373031 0)
(0.234947 -0.0437351 0)
(0.229939 -0.0415588 0)
(0.216604 -0.0373905 0)
(0.191258 -0.0346029 0)
(0.154753 -0.0263137 0)
(0.111521 -0.0229436 0)
(0.0790037 0.00115666 0)
(0.0463594 0.054131 0)
(0.0108562 0.100036 0)
(-0.0205129 0.120464 0)
(-0.0372112 0.121737 0)
(0.00680438 -0.0740715 0)
(0.0139081 -0.083784 0)
(0.0148008 -0.0624256 0)
(0.0311182 -0.0552595 0)
(0.0436794 -0.0627511 0)
(0.068316 -0.0466297 0)
(0.099951 -0.0454027 0)
(0.126628 -0.0588482 0)
(0.150641 -0.0634404 0)
(0.176233 -0.0568829 0)
(0.202902 -0.0501868 0)
(0.225895 -0.047754 0)
(0.241273 -0.0430065 0)
(0.248018 -0.0311267 0)
(0.245842 -0.0132868 0)
(0.233988 0.00767528 0)
(0.212883 0.028003 0)
(0.176288 0.0466255 0)
(0.101456 0.0628788 0)
(0.0220662 0.0891225 0)
(-0.0225063 0.120613 0)
(-0.0543242 0.132829 0)
(-0.0772855 0.123938 0)
(0.0016514 -0.0808654 0)
(0.00599086 -0.083821 0)
(0.00574884 -0.0728808 0)
(0.0233665 -0.0709608 0)
(0.0391059 -0.0792569 0)
(0.0619575 -0.0755623 0)
(0.0924904 -0.0748485 0)
(0.121126 -0.0820508 0)
(0.145933 -0.0841009 0)
(0.171046 -0.0804501 0)
(0.197976 -0.0749762 0)
(0.224904 -0.0696229 0)
(0.248763 -0.0593561 0)
(0.265543 -0.0409474 0)
(0.272376 -0.0164351 0)
(0.267 0.00965656 0)
(0.247975 0.0391528 0)
(0.216485 0.0820378 0)
(0.151543 0.122239 0)
(0.0573512 0.14517 0)
(-0.0167713 0.146032 0)
(-0.060126 0.143504 0)
(-0.093395 0.132134 0)
(-0.000332579 -0.0843741 0)
(0.00528372 -0.0864411 0)
(0.00931822 -0.0841317 0)
(0.0263869 -0.0892206 0)
(0.0458683 -0.10066 0)
(0.0702516 -0.106728 0)
(0.0995144 -0.109102 0)
(0.12954 -0.112694 0)
(0.157624 -0.113295 0)
(0.185423 -0.1101 0)
(0.213976 -0.104977 0)
(0.242684 -0.0979977 0)
(0.271191 -0.0830633 0)
(0.29824 -0.0554796 0)
(0.318974 -0.0176202 0)
(0.33116 0.0238461 0)
(0.334506 0.0676749 0)
(0.318756 0.124563 0)
(0.254172 0.197817 0)
(0.165205 0.230899 0)
(0.11651 0.22145 0)
(0.0597381 0.208633 0)
(-0.0139148 0.189847 0)
(-0.000819567 -0.0913763 0)
(0.00470467 -0.0963112 0)
(0.0153661 -0.10195 0)
(0.0373259 -0.11236 0)
(0.0617065 -0.125837 0)
(0.0883055 -0.136105 0)
(0.119106 -0.141851 0)
(0.153199 -0.145495 0)
(0.188772 -0.146161 0)
(0.225834 -0.143802 0)
(0.264624 -0.139577 0)
(0.304656 -0.133014 0)
(0.349131 -0.119232 0)
(0.397218 -0.0913408 0)
(0.443768 -0.0492728 0)
(0.4887 -0.00196768 0)
(0.532561 0.0663232 0)
(0.537674 0.209344 0)
(0.485413 0.325501 0)
(0.363876 0.296899 0)
(0.364479 0.313378 0)
(0.211883 0.311935 0)
(0.124431 0.275366 0)
(-0.000926778 -0.0976085 0)
(0.00302952 -0.105256 0)
(0.0182122 -0.116158 0)
(0.0450997 -0.12851 0)
(0.0728352 -0.141977 0)
(0.101027 -0.153296 0)
(0.134418 -0.160164 0)
(0.17285 -0.164245 0)
(0.215456 -0.165321 0)
(0.262846 -0.164139 0)
(0.314841 -0.162145 0)
(0.370229 -0.160924 0)
(0.436776 -0.15994 0)
(0.520518 -0.15648 0)
(0.608122 -0.145154 0)
(0.695691 -0.0921588 0)
(0.755166 0.0669545 0)
(0.806592 0.172999 0)
(0.756266 0.257048 0)
(0.752399 0.340691 0)
(0.595417 0.564959 0)
(0.374792 0.486596 0)
(0.265943 0.351933 0)
(0.00681883 -0.0849742 0)
(0.0171461 -0.104078 0)
(0.0320393 -0.134045 0)
(0.0549342 -0.162821 0)
(0.0776369 -0.173942 0)
(0.108767 -0.196371 0)
(0.157845 -0.214814 0)
(0.214988 -0.227044 0)
(0.273843 -0.235186 0)
(0.334007 -0.241344 0)
(0.403413 -0.245602 0)
(0.470526 -0.249925 0)
(0.527156 -0.26116 0)
(0.566017 -0.256576 0)
(0.587724 -0.18089 0)
(0.62452 -0.101727 0)
(0.671348 -0.0802324 0)
(0.718576 0.0443018 0)
(0.705505 0.310295 0)
(0.464208 0.646505 0)
(0.311854 0.653493 0)
(0.247438 0.509433 0)
(0.232136 0.405162 0)
(0.0328994 -0.120367 0)
(0.0773628 -0.13049 0)
(0.113084 -0.155277 0)
(0.137758 -0.199227 0)
(0.166129 -0.207831 0)
(0.198933 -0.245947 0)
(0.224571 -0.284288 0)
(0.250734 -0.304874 0)
(0.282609 -0.316744 0)
(0.316617 -0.325279 0)
(0.349038 -0.346288 0)
(0.373585 -0.343351 0)
(0.395213 -0.325109 0)
(0.398729 -0.324815 0)
(0.392007 -0.250958 0)
(0.323465 -0.141513 0)
(0.23471 -0.00149101 0)
(0.255099 0.252072 0)
(0.0416484 0.666899 0)
(0.0236923 0.698853 0)
(0.0633436 0.620942 0)
(0.124808 0.558854 0)
(0.132485 0.42909 0)
(0.0109763 -0.185335 0)
(0.0421276 -0.177863 0)
(0.065897 -0.187999 0)
(0.0798357 -0.212162 0)
(0.0893398 -0.230645 0)
(0.102039 -0.253731 0)
(0.107924 -0.280037 0)
(0.110806 -0.299505 0)
(0.116028 -0.310116 0)
(0.121631 -0.318119 0)
(0.115868 -0.327874 0)
(0.0898019 -0.31512 0)
(0.0534584 -0.27257 0)
(-0.0283108 -0.187294 0)
(-0.119388 -0.109721 0)
(-0.204497 -0.0220061 0)
(-0.250366 0.0996322 0)
(-0.265692 0.346536 0)
(-0.27317 0.576332 0)
(-0.162265 0.610727 0)
(-0.0528258 0.603763 0)
(0.010878 0.503484 0)
(0.0663339 0.397353 0)
(0.000853236 -0.195774 0)
(0.0154354 -0.193258 0)
(0.0246726 -0.200077 0)
(0.0270898 -0.216833 0)
(0.0224163 -0.236406 0)
(0.0172669 -0.254773 0)
(0.00427684 -0.275537 0)
(-0.0152084 -0.29021 0)
(-0.0393277 -0.295348 0)
(-0.0702015 -0.288856 0)
(-0.112537 -0.266611 0)
(-0.162754 -0.228216 0)
(-0.213248 -0.179664 0)
(-0.262517 -0.132637 0)
(-0.313317 -0.0749652 0)
(-0.357687 0.00734842 0)
(-0.386042 0.122187 0)
(-0.381481 0.279535 0)
(-0.321382 0.437271 0)
(-0.208099 0.499993 0)
(-0.120315 0.487448 0)
(-0.0344738 0.422569 0)
(0.0222168 0.353917 0)
(-0.00383077 -0.197498 0)
(-0.00204911 -0.196234 0)
(-0.00391685 -0.197901 0)
(-0.00963188 -0.206932 0)
(-0.0227501 -0.220616 0)
(-0.0407549 -0.23411 0)
(-0.0651184 -0.246917 0)
(-0.0957401 -0.256276 0)
(-0.131216 -0.258189 0)
(-0.170866 -0.250737 0)
(-0.213227 -0.232494 0)
(-0.253983 -0.199067 0)
(-0.291485 -0.151897 0)
(-0.32699 -0.0964278 0)
(-0.360457 -0.0361035 0)
(-0.385069 0.0380457 0)
(-0.392393 0.13174 0)
(-0.369299 0.245452 0)
(-0.303872 0.342974 0)
(-0.216723 0.389031 0)
(-0.132648 0.393894 0)
(-0.0552811 0.352528 0)
(-0.010936 0.31956 0)
(-0.00563619 -0.191742 0)
(-0.0108008 -0.19181 0)
(-0.0191774 -0.190855 0)
(-0.0300962 -0.194558 0)
(-0.0470086 -0.202783 0)
(-0.0687645 -0.211837 0)
(-0.095415 -0.220006 0)
(-0.126819 -0.224973 0)
(-0.161663 -0.223388 0)
(-0.198291 -0.213136 0)
(-0.235208 -0.194085 0)
(-0.269117 -0.163455 0)
(-0.298298 -0.122788 0)
(-0.323198 -0.0752394 0)
(-0.343342 -0.0208203 0)
(-0.354303 0.0428994 0)
(-0.348868 0.116195 0)
(-0.319325 0.19457 0)
(-0.26467 0.263795 0)
(-0.197227 0.3104 0)
(-0.126875 0.317014 0)
(-0.0655967 0.296846 0)
(-0.0303435 0.296572 0)
(-0.00621528 -0.18187 0)
(-0.0152067 -0.181907 0)
(-0.0266109 -0.179264 0)
(-0.0389945 -0.179601 0)
(-0.0553736 -0.183493 0)
(-0.0755317 -0.188327 0)
(-0.0994199 -0.192488 0)
(-0.126797 -0.194197 0)
(-0.156709 -0.191121 0)
(-0.187647 -0.181341 0)
(-0.218217 -0.164285 0)
(-0.246453 -0.137726 0)
(-0.270038 -0.101888 0)
(-0.287752 -0.0585399 0)
(-0.298971 -0.00995957 0)
(-0.301732 0.0428777 0)
(-0.291636 0.0995656 0)
(-0.265276 0.15745 0)
(-0.223629 0.210962 0)
(-0.171624 0.248465 0)
(-0.115847 0.256482 0)
(-0.067968 0.252597 0)
(-0.0338645 0.272304 0)
(-0.00647417 -0.171057 0)
(-0.0174681 -0.170623 0)
(-0.0300851 -0.167063 0)
(-0.0425279 -0.165398 0)
(-0.0573351 -0.166458 0)
(-0.07458 -0.168286 0)
(-0.0943679 -0.169486 0)
(-0.11664 -0.168508 0)
(-0.140918 -0.163696 0)
(-0.166195 -0.153423 0)
(-0.191048 -0.136848 0)
(-0.213763 -0.113248 0)
(-0.232479 -0.0826255 0)
(-0.245821 -0.0460484 0)
(-0.252653 -0.00509094 0)
(-0.251476 0.0391325 0)
(-0.240596 0.0844734 0)
(-0.219089 0.129026 0)
(-0.187272 0.169916 0)
(-0.146547 0.1993 0)
(-0.102941 0.209499 0)
(-0.0645133 0.213998 0)
(-0.0301799 0.240756 0)
(-0.00680147 -0.158592 0)
(-0.0189968 -0.157659 0)
(-0.0322227 -0.154163 0)
(-0.0445653 -0.151882 0)
(-0.0580928 -0.1514 0)
(-0.0730627 -0.151297 0)
(-0.0896489 -0.150466 0)
(-0.107872 -0.147612 0)
(-0.127432 -0.141461 0)
(-0.147626 -0.130939 0)
(-0.167372 -0.115392 0)
(-0.185317 -0.0943448 0)
(-0.199917 -0.0680167 0)
(-0.209914 -0.0371769 0)
(-0.214149 -0.00276054 0)
(-0.211474 0.0337286 0)
(-0.201231 0.0703661 0)
(-0.183267 0.105577 0)
(-0.157633 0.13728 0)
(-0.1252 0.160782 0)
(-0.0906248 0.172133 0)
(-0.0595816 0.179652 0)
(-0.0273776 0.205203 0)
(-0.00711434 -0.145686 0)
(-0.0199899 -0.144375 0)
(-0.0335733 -0.141293 0)
(-0.0459605 -0.139009 0)
(-0.0587291 -0.137793 0)
(-0.0721685 -0.136591 0)
(-0.0864936 -0.134469 0)
(-0.101731 -0.1304 0)
(-0.117695 -0.123442 0)
(-0.133831 -0.11287 0)
(-0.149263 -0.0983289 0)
(-0.163041 -0.079573 0)
(-0.174102 -0.0567942 0)
(-0.181331 -0.0306731 0)
(-0.183708 -0.00200163 0)
(-0.180433 0.027986 0)
(-0.171169 0.0577247 0)
(-0.155909 0.0858838 0)
(-0.134809 0.110878 0)
(-0.108725 0.130082 0)
(-0.0807528 0.141703 0)
(-0.0552193 0.150356 0)
(-0.0266816 0.171638 0)
(-0.00739755 -0.132154 0)
(-0.0206767 -0.130678 0)
(-0.0344266 -0.128281 0)
(-0.0468031 -0.12646 0)
(-0.0590196 -0.125138 0)
(-0.0712972 -0.123499 0)
(-0.0838404 -0.120772 0)
(-0.0966797 -0.116157 0)
(-0.109667 -0.108981 0)
(-0.122423 -0.0987248 0)
(-0.134373 -0.0852182 0)
(-0.144805 -0.0684783 0)
(-0.152878 -0.0487205 0)
(-0.157837 -0.0264403 0)
(-0.15893 -0.00241888 0)
(-0.155507 0.0223945 0)
(-0.147414 0.0467117 0)
(-0.134638 0.0694547 0)
(-0.11743 0.0894658 0)
(-0.0965381 0.105369 0)
(-0.0737187 0.116507 0)
(-0.0522016 0.125569 0)
(-0.0269887 0.142444 0)
(-0.00761451 -0.118261 0)
(-0.0210871 -0.116817 0)
(-0.0348407 -0.115288 0)
(-0.047088 -0.114221 0)
(-0.05877 -0.113279 0)
(-0.0699833 -0.111764 0)
(-0.0809394 -0.109002 0)
(-0.0917003 -0.104368 0)
(-0.102202 -0.0973749 0)
(-0.112206 -0.0877101 0)
(-0.12133 -0.0753307 0)
(-0.129087 -0.0603388 0)
(-0.134889 -0.0429956 0)
(-0.138187 -0.023819 0)
(-0.138388 -0.00342342 0)
(-0.135053 0.0172606 0)
(-0.128147 0.0373718 0)
(-0.117633 0.0560128 0)
(-0.10379 0.0723316 0)
(-0.0871876 0.0855904 0)
(-0.0688155 0.0956484 0)
(-0.0506659 0.104118 0)
(-0.0285884 0.117128 0)
(-0.00775251 -0.104134 0)
(-0.0212981 -0.102881 0)
(-0.0349386 -0.102407 0)
(-0.0469196 -0.102359 0)
(-0.0580086 -0.102186 0)
(-0.0681883 -0.101258 0)
(-0.0776823 -0.0989312 0)
(-0.086611 -0.0946807 0)
(-0.0950139 -0.0881433 0)
(-0.102787 -0.0791662 0)
(-0.109711 -0.0678245 0)
(-0.115444 -0.0543388 0)
(-0.119562 -0.0390267 0)
(-0.121641 -0.0223519 0)
(-0.121374 -0.00487445 0)
(-0.118333 0.0126497 0)
(-0.112423 0.0295465 0)
(-0.103796 0.0451062 0)
(-0.0926793 0.0587012 0)
(-0.079497 0.0698855 0)
(-0.064839 0.0786431 0)
(-0.0497862 0.0859239 0)
(-0.0314192 0.0953795 0)
(-0.00781082 -0.089917 0)
(-0.0213294 -0.0890014 0)
(-0.0347948 -0.0897723 0)
(-0.0464088 -0.0909682 0)
(-0.0568514 -0.0919105 0)
(-0.0660131 -0.0919447 0)
(-0.0741461 -0.0904134 0)
(-0.0814437 -0.0868233 0)
(-0.0880612 -0.0808963 0)
(-0.094024 -0.0726301 0)
(-0.0992244 -0.0622104 0)
(-0.10344 -0.0499674 0)
(-0.106375 -0.0362914 0)
(-0.10769 -0.0216364 0)
(-0.107121 -0.00651662 0)
(-0.10439 0.00858327 0)
(-0.0994389 0.0230077 0)
(-0.092368 0.0362281 0)
(-0.0833818 0.0477839 0)
(-0.0728121 0.0573657 0)
(-0.0610665 0.0649583 0)
(-0.0486667 0.0710907 0)
(-0.0341098 0.0777151 0)
(-0.0078275 -0.0757043 0)
(-0.0212587 -0.0752499 0)
(-0.0344575 -0.0774466 0)
(-0.045625 -0.080116 0)
(-0.0553627 -0.0824749 0)
(-0.0635202 -0.0837852 0)
(-0.070397 -0.0833219 0)
(-0.0762513 -0.0805648 0)
(-0.0813407 -0.0753208 0)
(-0.0858048 -0.06771 0)
(-0.0896342 -0.0580586 0)
(-0.092685 -0.0468024 0)
(-0.0947481 -0.0344038 0)
(-0.0955695 -0.0213163 0)
(-0.0949281 -0.00800942 0)
(-0.0925954 0.00511971 0)
(-0.0884957 0.0175877 0)
(-0.0827269 0.0289768 0)
(-0.0754371 0.0389417 0)
(-0.0668712 0.0472454 0)
(-0.0573152 0.0538678 0)
(-0.0470493 0.0591139 0)
(-0.0355944 0.0639422 0)
(-0.00779289 -0.0615828 0)
(-0.0210601 -0.0616974 0)
(-0.0339417 -0.0654696 0)
(-0.0446076 -0.0698404 0)
(-0.0536114 -0.0738768 0)
(-0.0608024 -0.0767266 0)
(-0.0665305 -0.0775175 0)
(-0.0711379 -0.0756965 0)
(-0.0749487 -0.071148 0)
(-0.0781724 -0.0641157 0)
(-0.0808813 -0.0550725 0)
(-0.0830097 -0.0445637 0)
(-0.0844095 -0.0331283 0)
(-0.0848991 -0.0212507 0)
(-0.0842693 -0.00935138 0)
(-0.0823471 0.00224665 0)
(-0.0790329 0.0131606 0)
(-0.0743828 0.0230796 0)
(-0.0684933 0.031749 0)
(-0.0615333 0.0389884 0)
(-0.0537017 0.044759 0)
(-0.0451669 0.0492648 0)
(-0.0359548 0.0530193 0)
(-0.00774155 -0.0475925 0)
(-0.0207725 -0.0484003 0)
(-0.0332773 -0.0539179 0)
(-0.0434144 -0.060189 0)
(-0.0516707 -0.0661276 0)
(-0.0579425 -0.0706894 0)
(-0.0626717 -0.0728327 0)
(-0.0662712 -0.0719878 0)
(-0.0690628 -0.0681318 0)
(-0.0712841 -0.0616084 0)
(-0.0730678 -0.0530346 0)
(-0.0744184 -0.0430727 0)
(-0.0752658 -0.0323303 0)
(-0.0754766 -0.0213257 0)
(-0.0748732 -0.0104704 0)
(-0.0733286 -6.42454e-05 0)
(-0.0706982 0.00961437 0)
(-0.0670066 0.018343 0)
(-0.0622975 0.0259373 0)
(-0.0566885 0.0322573 0)
(-0.0503113 0.0372626 0)
(-0.043261 0.041098 0)
(-0.0357622 0.0441271 0)
(-0.00765874 -0.0337811 0)
(-0.0204363 -0.0353792 0)
(-0.0325473 -0.0428248 0)
(-0.0421237 -0.0511733 0)
(-0.049632 -0.0591747 0)
(-0.0550565 -0.0655504 0)
(-0.0589719 -0.0690553 0)
(-0.0618255 -0.0691766 0)
(-0.0638544 -0.0660206 0)
(-0.0652915 -0.0599751 0)
(-0.0663245 -0.0517759 0)
(-0.0670058 -0.0422062 0)
(-0.067325 -0.0319407 0)
(-0.0672314 -0.0215322 0)
(-0.066613 -0.0114203 0)
(-0.0653561 -0.00189829 0)
(-0.0632936 0.00682374 0)
(-0.0604034 0.0145973 0)
(-0.0566937 0.0213029 0)
(-0.0522304 0.0268346 0)
(-0.0471074 0.0311579 0)
(-0.0413804 0.0343966 0)
(-0.0353149 0.0368501 0)
(-0.00756112 -0.0201969 0)
(-0.0201072 -0.0226935 0)
(-0.0318524 -0.0321972 0)
(-0.0408686 -0.0427877 0)
(-0.0476298 -0.0530039 0)
(-0.0522755 -0.0611881 0)
(-0.0555633 -0.0659318 0)
(-0.057903 -0.0669951 0)
(-0.0593833 -0.0645811 0)
(-0.0602329 -0.0590272 0)
(-0.0606711 -0.0511782 0)
(-0.0607828 -0.0419085 0)
(-0.0606107 -0.0319557 0)
(-0.0601707 -0.0219359 0)
(-0.0594371 -0.0122999 0)
(-0.0583326 -0.00337799 0)
(-0.0566989 0.00464129 0)
(-0.0544561 0.0116743 0)
(-0.0515742 0.017664 0)
(-0.0480845 0.0225445 0)
(-0.0440451 0.0262774 0)
(-0.039487 0.0289911 0)
(-0.0346554 0.0309618 0)
(-0.0074198 -0.00679188 0)
(-0.0197255 -0.0102918 0)
(-0.0311814 -0.0219825 0)
(-0.0396986 -0.0349931 0)
(-0.0457536 -0.0476048 0)
(-0.0497488 -0.0574984 0)
(-0.0525902 -0.0632348 0)
(-0.0545063 -0.0652609 0)
(-0.0555431 -0.0636458 0)
(-0.055986 -0.0586058 0)
(-0.0560103 -0.0511275 0)
(-0.0556744 -0.0421524 0)
(-0.0550484 -0.0324268 0)
(-0.0542327 -0.0226019 0)
(-0.0532853 -0.0132218 0)
(-0.0521895 -0.00463836 0)
(-0.0508319 0.00291963 0)
(-0.0490791 0.00941376 0)
(-0.0468649 0.0148515 0)
(-0.0441851 0.0192068 0)
(-0.0410687 0.0224576 0)
(-0.0375237 0.0247218 0)
(-0.0337442 0.0262776 0)
(-0.00718688 0.00621104 0)
(-0.0191536 0.00188467 0)
(-0.0303492 -0.0120962 0)
(-0.0384411 -0.0277919 0)
(-0.0439649 -0.0428226 0)
(-0.0476129 -0.0542669 0)
(-0.0500832 -0.0609707 0)
(-0.0514511 -0.0639938 0)
(-0.0520398 -0.0631243 0)
(-0.0522356 -0.0585422 0)
(-0.0520536 -0.0514446 0)
(-0.0514709 -0.0428121 0)
(-0.0505157 -0.03333 0)
(-0.0493286 -0.0236239 0)
(-0.0480847 -0.0143024 0)
(-0.0468674 -0.00583435 0)
(-0.0456224 0.00150581 0)
(-0.0442065 0.00766243 0)
(-0.0425105 0.0127065 0)
(-0.0404833 0.0166635 0)
(-0.0381323 0.0195334 0)
(-0.035445 0.0214243 0)
(-0.0325543 0.0226075 0)
(-0.00686464 0.0186847 0)
(-0.0184026 0.0135042 0)
(-0.029188 -0.00255093 0)
(-0.0368055 -0.0210979 0)
(-0.0420566 -0.0383124 0)
(-0.0456146 -0.0512668 0)
(-0.0475713 -0.0593184 0)
(-0.0482388 -0.0633253 0)
(-0.0484737 -0.0629101 0)
(-0.0485688 -0.0586125 0)
(-0.0483764 -0.051869 0)
(-0.0477762 -0.0436524 0)
(-0.0467188 -0.0345274 0)
(-0.0452878 -0.0249871 0)
(-0.0437345 -0.0156515 0)
(-0.0422816 -0.00711565 0)
(-0.0409968 0.000237783 0)
(-0.0397641 0.00626531 0)
(-0.0384434 0.0110768 0)
(-0.0369281 0.0147636 0)
(-0.0351937 0.0173512 0)
(-0.0332216 0.0189458 0)
(-0.0310579 0.0198029 0)
(-0.00638686 0.0306302 0)
(-0.0173478 0.0246936 0)
(-0.0275239 0.00641016 0)
(-0.0346833 -0.0147603 0)
(-0.0398273 -0.0338616 0)
(-0.0430982 -0.0485626 0)
(-0.0443196 -0.0584409 0)
(-0.0444186 -0.0631587 0)
(-0.0445332 -0.0628094 0)
(-0.044694 -0.0586514 0)
(-0.0446665 -0.0522119 0)
(-0.0442437 -0.0444423 0)
(-0.0432984 -0.0357883 0)
(-0.0418463 -0.0265772 0)
(-0.0400826 -0.0172855 0)
(-0.0383495 -0.00858841 0)
(-0.0368946 -0.00103057 0)
(-0.0356935 0.00507784 0)
(-0.0346046 0.00982659 0)
(-0.0334675 0.0133656 0)
(-0.0322138 0.0157707 0)
(-0.0308161 0.0171348 0)
(-0.0292537 0.0177181 0)
(-0.00567899 0.0416658 0)
(-0.0157982 0.0352042 0)
(-0.0251801 0.0147399 0)
(-0.031858 -0.00864464 0)
(-0.0368829 -0.029583 0)
(-0.0394892 -0.0465182 0)
(-0.0399318 -0.0582296 0)
(-0.0398162 -0.063186 0)
(-0.0400409 -0.0626576 0)
(-0.0404071 -0.0584926 0)
(-0.0406729 -0.0522962 0)
(-0.0405842 -0.0449854 0)
(-0.0399459 -0.0368896 0)
(-0.0386918 -0.0281812 0)
(-0.0369256 -0.0191218 0)
(-0.034976 -0.0103093 0)
(-0.0332585 -0.00244258 0)
(-0.0319415 0.00395271 0)
(-0.030945 0.00881947 0)
(-0.0300651 0.0123379 0)
(-0.0291755 0.0146541 0)
(-0.0282267 0.0158611 0)
(-0.0271297 0.0162138 0)
(-0.00471921 0.0514172 0)
(-0.0136892 0.0447677 0)
(-0.0220695 0.0222947 0)
(-0.0281444 -0.00283151 0)
(-0.0328243 -0.0257252 0)
(-0.034407 -0.0453437 0)
(-0.0343837 -0.0583481 0)
(-0.0343988 -0.0631451 0)
(-0.0348984 -0.0622903 0)
(-0.035596 -0.0580178 0)
(-0.0362433 -0.0519985 0)
(-0.0365907 -0.045126 0)
(-0.0363945 -0.0376333 0)
(-0.0355328 -0.0295615 0)
(-0.0340122 -0.0209868 0)
(-0.0320263 -0.0122609 0)
(-0.0300399 -0.00410361 0)
(-0.0284882 0.0027471 0)
(-0.0274429 0.00791977 0)
(-0.0266957 0.0115634 0)
(-0.0260625 0.0138809 0)
(-0.025445 0.0150081 0)
(-0.0247178 0.0151744 0)
(-0.00351444 0.0594743 0)
(-0.0110194 0.0531029 0)
(-0.018215 0.0289118 0)
(-0.0233898 0.00233742 0)
(-0.0272065 -0.0225977 0)
(-0.0276486 -0.0449108 0)
(-0.0277491 -0.0584274 0)
(-0.0281414 -0.0628068 0)
(-0.0290846 -0.0615385 0)
(-0.0302476 -0.0571236 0)
(-0.0313357 -0.0512443 0)
(-0.0321602 -0.0447749 0)
(-0.0324702 -0.0378879 0)
(-0.0321234 -0.0305261 0)
(-0.0310425 -0.0226192 0)
(-0.0292844 -0.0142736 0)
(-0.0271844 -0.00601128 0)
(-0.025339 0.00133765 0)
(-0.0240935 0.00699748 0)
(-0.0233616 0.0109323 0)
(-0.0228872 0.0133534 0)
(-0.0225107 0.014465 0)
(-0.0220492 0.0144921 0)
(-0.00215625 0.0654821 0)
(-0.00792974 0.0599547 0)
(-0.0137856 0.0344359 0)
(-0.0177762 0.00651614 0)
(-0.0201713 -0.0205703 0)
(-0.0196196 -0.044694 0)
(-0.0201688 -0.057993 0)
(-0.0211478 -0.0618827 0)
(-0.0227242 -0.0602222 0)