/*--------------------------------*- C++ -*----------------------------------*\
| =========                 |                                                 |
| \\      /  F ield         | OpenFOAM: The Open Source CFD Toolbox           |
|  \\    /   O peration     | Version:  2312                                  |
|   \\  /    A nd           | Website:  www.openfoam.com                      |
|    \\/     M anipulation  |                                                 |
\*---------------------------------------------------------------------------*/
FoamFile
{
    version     2.0;
    format      ascii;
    arch        "LSB;label=32;scalar=64";
    class       volScalarField;
    location    "2.25";
    object      alpha.water_0;
}
// * * * * * * * * * * * * * * * * * * * * * * * * * * * * * * * * * * * * * //

dimensions      [0 0 0 0 0 0 0];

internalField   nonuniform List<scalar> 
2268
(
9.97838e-10
5.94758e-10
3.26283e-10
1.56463e-10
7.15346e-11
3.99024e-11
3.03956e-11
2.75989e-11
2.72102e-11
2.78803e-11
2.95693e-11
3.26951e-11
3.78949e-11
4.54356e-11
5.65896e-11
7.53267e-11
1.0898e-10
1.68906e-10
2.65376e-10
4.25263e-10
6.92569e-10
9.49026e-10
1.16497e-09
4.03806e-09
1.75181e-09
3.90604e-10
1.70582e-10
8.95371e-11
5.83233e-11
4.48834e-11
4.03156e-11
4.04298e-11
4.07877e-11
4.14711e-11
4.58089e-11
6.10254e-11
8.44187e-11
1.06602e-10
1.49291e-10
2.26731e-10
3.79512e-10
6.78522e-10
1.19314e-09
1.90066e-09
2.20661e-09
2.25898e-09
4.04002e-07
3.06277e-08
1.50521e-09
1.95246e-10
1.03056e-10
7.92124e-11
6.75928e-11
5.83764e-11
5.21964e-11
4.5921e-11
4.32301e-11
5.27982e-11
1.22328e-10
2.3408e-10
2.65316e-10
3.1024e-10
3.96029e-10
3.60624e-10
5.57237e-10
9.46611e-10
1.38518e-09
2.19064e-09
2.07758e-09
2.60737e-06
4.43067e-07
5.64667e-09
7.07035e-12
6.23598e-11
8.1299e-11
8.00834e-11
6.03313e-11
4.11161e-11
2.86338e-11
2.64589e-11
2.79557e-11
4.04978e-11
5.10177e-11
4.19674e-11
3.86807e-11
3.98805e-11
1.50993e-11
1.48244e-11
1.50993e-11
1.48246e-11
3.08533e-11
3.63169e-11
2.05576e-06
4.89016e-07
2.26286e-08
8.30289e-12
1.38981e-11
2.57974e-11
1.83644e-11
9.46697e-12
1.77828e-12
-2.12016e-15
-4.74772e-30
-7.58361e-30
8.78853e-24
-1.37215e-29
-1.78611e-29
-6.7696e-12
0.00812773
0.0169437
0.0178224
0.0111038
0.00162253
0.00637435
0.012952
7.19238e-21
1.01193e-19
-1.93347e-20
-2.36341e-20
3.82102e-20
-2.54042e-20
1.42059e-24
1.4711e-24
1.00127e-24
0.0160265
0.0541869
0.119128
0.209333
0.314586
0.435989
0.563574
0.638695
0.658498
0.646983
0.61573
0.574684
0.552879
0.539434
0.322582
0.223422
0.159173
0.139234
0.146054
0.184356
0.261181
0.38011
0.519126
0.645
0.769709
0.870294
0.93476
0.97195
0.990007
0.99367
0.993489
0.95993
0.894417
0.866845
0.880421
0.958266
0.955183
0.913827
0.887549
0.842605
0.831768
0.834727
0.869079
0.954475
0.987945
0.997537
0.999332
0.999331
0.999331
0.999332
0.999331
0.997317
0.934557
0.707336
0.61984
0.620126
0.691492
0.974837
0.957084
0.893164
0.0534445
0.031418
0.0312308
0.0292857
0.0267744
0.0247302
0.0207096
0.0207012
0.0207961
0.0214737
0.0212264
0.0212928
0.0213207
0.021385
0.0218431
0.0231528
0.0197469
0.012871
0.0117859
0.0512775
0.0327823
0.0299262
0.0293874
0.0457958
0.0332882
0.0196386
0.0196826
0.0678601
0.0733345
0.0212455
0.0269817
0.0479987
0.0675057
0.0324235
0.0287356
0.0267394
0.0111049
0.0110993
0.414403
0.39758
0.337895
0.240918
0.14309
0.023363
0.0196928
0.0196862
0.0197407
0.0348721
0.176156
0.407009
0.509748
0.428389
0.0903602
0.0240535
0.0240873
0.10184
0.117685
0.675566
0.675485
0.6754
0.651213
0.526591
0.455156
0.24486
0.100884
0.130626
0.251774
0.465298
0.714195
0.703181
0.467172
0.147836
0.0789376
0.313589
0.734418
0.545595
0.675566
0.649054
0.580941
0.498455
0.560795
0.562628
0.5661
0.561183
0.655726
0.703564
0.714051
0.714351
0.454906
0.331652
0.347289
0.625562
0.830666
0.83153
0.73684
0.577167
0.476453
0.468013
0.469713
0.547223
0.536125
0.52448
0.636367
0.61141
0.398591
0.557061
0.502298
0.364127
0.383018
0.814454
0.809353
0.75976
0.706097
0.742658
0.567328
0.685019
0.670371
0.901113
0.983603
0.953042
0.855437
0.694293
0.252084
0.17281
0.22228
0.295496
0.642217
0.824874
0.82397
0.758067
0.6884
0.717295
0.689125
0.71769
0.994925
0.999592
0.99972
0.999673
0.983573
0.928054
0.620151
0.197954
0.223701
0.520419
0.793072
0.843106
0.842822
0.745032
0.631967
0.725405
0.880986
0.688183
0.940504
0.990392
0.996148
0.99662
0.997964
0.999271
0.999271
0.999306
0.999331
0.999332
0.999332
0.999332
0.999332
0.999219
0.927816
0.638637
0.616146
0.622002
0.892413
0.994255
0.99137
0.935185
0.674952
0.377103
0.626601
0.914638
0.933885
0.989338
0.99506
0.988356
0.986409
0.992184
0.997028
0.999332
0.999332
0.999333
0.993891
0.923798
0.654713
0.674859
0.980686
0.994255
0.994225
0.993081
0.995118
0.995094
0.000617768
0.033793
0.25272
0.489254
0.536201
0.704902
0.78977
0.84064
0.90867
0.911885
0.940986
0.999329
0.999308
0.99829
0.924627
0.869176
0.912806
0.940825
0.876296
0.722443
0.679652
0.697762
0.756388
0.00062824
0.000115211
9.9594e-05
0.00910765
0.0128732
0.0460577
0.0949626
0.142191
0.275145
0.490328
0.69857
0.8149
0.938945
0.988301
0.973565
0.951284
0.923793
0.676199
0.155821
0.00963603
0.00855746
0.0239665
0.0381408
0.000932901
0.000967189
0.000326795
4.23954e-20
1.55568e-20
-2.37156e-07
-1.56957e-07
-5.89801e-12
-3.05977e-08
0.00574482
0.0535536
0.144494
0.219367
0.243906
0.385091
0.563196
0.429235
0.0633635
1.31897e-12
1.31481e-12
3.03972e-05
0.000181403
0.000378803
0.000379346
0.000525261
0.000765205
8.10956e-05
2.5848e-05
3.27443e-05
3.55383e-05
3.07842e-05
5.26104e-06
1.21891e-06
-4.43879e-07
4.12466e-19
1.36808e-19
6.17087e-20
-1.60767e-20
-3.12638e-08
2.55107e-28
1.51013e-10
1.31483e-12
1.65893e-05
0.000225645
0.000793006
0.00250178
5.47743e-05
5.34995e-05
0.00162921
0.00154657
0.000185324
0.000113818
0.000118375
2.43931e-05
2.02934e-05
7.33552e-07
0.000185576
0.000292804
5.89116e-06
3.35085e-10
4.51158e-07
1.64806e-11
2.35996e-12
6.56091e-05
0.000235298
0.000255016
0.000679667
0.00297201
0.0101031
0.000281652
0.000571776
0.000426763
0.000696848
0.000170962
0.000113426
0.000133458
0.000444075
0.000221103
6.48803e-05
0.000595351
0.000151377
8.74704e-16
1.00847e-15
1.36555e-09
2.10495e-05
9.494e-06
0.000702243
0.00211916
0.00366512
0.00547786
0.010138
0.0108122
0.00116848
0.00304727
0.00199266
0.00102842
0.000639902
0.00120217
0.00149948
0.00162882
0.00107977
0.000446918
0.000710456
0.000266073
0.000290565
0.000586892
0.000778248
0.000872784
0.00106882
0.00104775
0.00307531
0.00645497
0.00646628
0.00574159
0.00347543
0.0023141
0.00306393
0.00294535
0.000359459
0.000104326
0.00119401
0.00162856
0.00162873
0.00157552
0.00149265
0.00153753
0.00186226
0.00261474
0.00396163
0.00326388
0.00145332
0.00193117
0.00308145
0.00284713
0.000873733
0.000298171
2.28977e-07
2.87856e-07
0.00250169
0.0025649
0.000207931
3.96063e-06
0.000116614
0.000405273
0.000502905
0.000264569
0.00179898
0.00604465
0.0063596
0.006359
0.00599575
0.00348295
0.00168966
0.00142675
0.000688489
7.21494e-05
1.89851e-05
7.50274e-09
8.00691e-09
1.3737e-07
4.862e-07
0.00231812
0.00307773
0.00024394
4.0267e-06
4.48593e-05
5.713e-05
5.11665e-05
5.32203e-05
0.000327325
0.000636992
0.000602394
0.000127248
4.00579e-07
9.44965e-07
8.24909e-08
3.7425e-09
4.30115e-09
9.71775e-07
2.68034e-06
3.04538e-06
4.45308e-07
3.42814e-07
6.732e-06
0.00146254
0.00307369
0.00129402
3.88793e-06
3.9665e-05
6.58808e-05
6.58014e-05
5.27681e-05
3.02512e-05
1.05189e-05
6.33576e-07
1.93563e-06
1.54244e-05
4.07909e-05
4.07197e-05
2.87349e-05
1.73883e-06
1.11174e-06
4.14962e-06
5.4341e-06
4.15332e-06
1.93394e-08
6.53084e-07
0.000651796
0.00219302
0.0020433
0.000413112
1.23039e-05
1.94988e-05
2.05929e-05
1.03114e-05
2.30591e-06
5.89579e-07
5.88067e-07
9.15771e-07
2.56003e-06
4.90958e-06
1.40132e-05
2.52934e-05
2.53093e-05
1.3136e-05
6.8111e-07
3.30536e-06
2.65062e-06
1.9206e-08
1.92724e-08
0.000147473
0.000118766
0.00137639
0.00051463
1.46038e-06
3.54076e-08
3.367e-08
3.4086e-08
4.53625e-07
8.60097e-07
2.19714e-06
2.37209e-06
2.20341e-06
7.52471e-07
1.67288e-09
1.95838e-09
4.50591e-08
6.86578e-08
2.69159e-07
5.7058e-07
1.7306e-07
2.66072e-08
3.04817e-08
8.85031e-14
2.12499e-09
3.54658e-05
0.000227454
1.21887e-05
3.3811e-08
3.4228e-08
1.11579e-07
9.42517e-07
9.42141e-07
2.71312e-07
3.05037e-08
9.47803e-07
9.58825e-07
2.39614e-07
7.76975e-10
2.59463e-08
2.11715e-08
7.75948e-10
2.28563e-09
3.5536e-09
4.35055e-08
4.0737e-08
1.67296e-33
-2.64237e-27
3.24053e-13
6.96982e-06
5.16779e-06
3.44083e-08
3.3811e-08
4.33792e-08
5.27628e-07
7.96627e-07
3.49757e-07
2.16129e-08
4.11814e-10
1.1235e-10
1.07682e-10
7.82147e-10
2.45846e-10
2.45582e-10
2.46069e-10
3.68249e-09
7.03896e-09
4.0678e-09
3.83893e-09
-2.28635e-22
0.0247082
0.00447853
8.21705e-08
2.97291e-07
3.84577e-08
4.6194e-08
5.0612e-08
4.13184e-09
3.88841e-08
4.14095e-08
1.5538e-08
2.53435e-09
4.89646e-10
4.24748e-10
4.88876e-10
4.35096e-10
3.51098e-10
2.94e-10
2.935e-10
4.54345e-10
1.63798e-09
2.42919e-09
0.0129677
0.0355137
0.0167247
4.69547e-08
1.34477e-07
3.81837e-08
1.70832e-07
7.84096e-08
6.00914e-09
3.39196e-10
2.20837e-10
1.72881e-10
1.72284e-10
2.74602e-10
5.201e-10
6.19449e-10
5.98069e-10
4.77189e-10
3.56862e-10
3.74782e-10
5.9395e-10
9.75524e-10
1.58001e-09
0.0391038
0.0326124
0.0112247
2.28314e-08
3.55125e-08
8.98757e-08
2.82565e-07
6.8472e-08
2.44016e-09
1.11347e-09
4.65358e-10
2.37552e-10
1.84755e-10
2.05885e-10
2.70881e-10
2.81834e-10
2.46492e-10
2.26376e-10
2.42419e-10
3.44379e-10
5.11836e-10
7.03082e-10
7.29933e-10
0.0391038
0.0099096
0.00194378
2.21918e-08
4.40177e-08
3.13344e-07
2.81888e-07
1.38963e-08
4.27165e-09
1.99949e-09
5.77502e-10
2.53507e-10
1.73483e-10
1.62971e-10
1.62664e-10
1.52772e-10
1.47954e-10
1.53088e-10
1.7977e-10
2.24867e-10
2.74321e-10
2.44181e-10
2.23144e-10
0.032923
0.00358489
8.13303e-08
2.26515e-08
1.408e-07
3.50688e-07
7.58198e-08
1.4144e-08
4.75167e-09
1.06768e-09
3.15326e-10
1.71778e-10
1.23848e-10
1.0545e-10
9.67689e-11
9.23563e-11
9.05979e-11
9.36595e-11
1.05985e-10
1.09822e-10
9.49803e-11
9.09996e-11
6.70784e-11
0.00151023
9.40949e-05
2.27305e-08
4.02014e-08
2.83884e-07
2.0361e-07
1.68481e-08
5.55236e-09
1.51923e-09
5.86232e-10
2.49184e-10
1.29576e-10
9.01991e-11
7.16338e-11
5.98913e-11
5.28161e-11
4.91667e-11
4.78183e-11
4.41474e-11
4.23548e-11
3.72816e-11
2.31279e-11
1.57044e-11
1.63102e-06
2.25996e-08
2.25497e-08
1.47501e-07
2.8197e-07
1.2313e-08
5.05424e-09
1.66982e-09
6.60603e-10
3.08455e-10
1.58436e-10
1.01972e-10
7.20548e-11
5.20623e-11
3.8539e-11
2.95986e-11
2.4039e-11
2.00174e-11
1.67769e-11
1.39892e-11
9.13339e-12
5.18365e-12
3.32034e-12
1.42046e-06
2.20953e-08
5.96881e-08
1.46852e-07
1.15489e-07
4.60788e-09
1.60736e-09
7.55442e-10
3.78655e-10
2.06628e-10
1.33753e-10
9.41774e-11
6.53123e-11
4.3341e-11
2.82395e-11
1.85061e-11
1.21487e-11
8.32308e-12
5.70089e-12
3.96405e-12
2.2535e-12
1.01078e-12
6.83035e-13
6.64229e-06
2.25995e-08
9.17805e-08
9.50965e-08
4.35745e-09
4.38662e-09
2.2165e-09
8.54027e-10
3.39712e-10
1.98182e-10
1.47834e-10
1.03274e-10
6.66206e-11
4.10744e-11
2.45005e-11
1.40154e-11
7.86374e-12
4.40847e-12
2.48206e-12
1.31404e-12
6.46488e-13
3.04807e-13
1.58374e-13
8.40624e-06
3.491e-08
7.28389e-08
4.32732e-09
4.35555e-09
1.09323e-08
4.25026e-09
1.11223e-09
3.84693e-10
2.41511e-10
1.76344e-10
1.24843e-10
8.03993e-11
4.62976e-11
2.50731e-11
1.30377e-11
6.53004e-12
3.20092e-12
1.5035e-12
7.14987e-13
3.18186e-13
1.0953e-13
5.55401e-14
7.78168e-06
8.48808e-09
3.91552e-08
8.56451e-08
2.44672e-07
1.60958e-08
2.8191e-09
9.78346e-10
4.21906e-10
2.90045e-10
2.17993e-10
1.52052e-10
9.68195e-11
5.60508e-11
3.00889e-11
1.49694e-11
6.8114e-12
2.99816e-12
1.25013e-12
5.20979e-13
2.00165e-13
6.48895e-14
2.40288e-14
7.20401e-07
-2.13847e-09
-2.54848e-13
1.72605e-05
2.98877e-06
4.3409e-09
4.30571e-09
1.06529e-09
4.87148e-10
3.63513e-10
2.80657e-10
2.02262e-10
1.30987e-10
7.66339e-11
4.13088e-11
2.0205e-11
9.05597e-12
3.63812e-12
1.37635e-12
4.93861e-13
1.68569e-13
4.49119e-14
1.20659e-14
6.75271e-08
5.64688e-23
0.000838536
4.11161e-05
9.86291e-08
4.36115e-08
3.41867e-09
1.00847e-09
5.8232e-10
4.68774e-10
3.97739e-10
3.05997e-10
2.00505e-10
1.22047e-10
6.63686e-11
3.29891e-11
1.46095e-11
5.67807e-12
1.96725e-12
6.26255e-13
1.87243e-13
4.25045e-14
8.91323e-15
0.0192386
0.0263888
0.00667208
3.96306e-07
1.56667e-07
1.54149e-08
2.81727e-09
1.11339e-09
7.25938e-10
6.31921e-10
5.88747e-10
4.75722e-10
3.43688e-10
2.13207e-10
1.13718e-10
5.6361e-11
2.47138e-11
9.52554e-12
3.21745e-12
9.61705e-13
2.61553e-13
5.47838e-14
9.29107e-15
0.0353332
0.035469
0.00518591
2.79382e-07
6.42218e-09
6.60248e-09
2.1148e-09
1.13757e-09
9.25659e-10
9.528e-10
9.14575e-10
7.41743e-10
5.61949e-10
3.48344e-10
1.8989e-10
9.05036e-11
3.89896e-11
1.51262e-11
4.99374e-12
1.43149e-12
3.75237e-13
7.04933e-14
1.02013e-14
0.0360398
0.0112149
0.000427933
8.21621e-09
8.08265e-09
3.26329e-09
1.4072e-09
1.10208e-09
1.12445e-09
1.38594e-09
1.481e-09
1.2709e-09
8.94905e-10
5.2872e-10
2.73198e-10
1.29364e-10
5.5721e-11
2.10358e-11
6.83744e-12
1.88567e-12
4.80212e-13
8.46861e-14
1.12652e-14
0.0111115
1.93765e-06
7.58e-09
1.14046e-08
6.38364e-09
1.69177e-09
1.14802e-09
9.42665e-10
1.29721e-09
2.04315e-09
2.33558e-09
2.18697e-09
1.36626e-09
6.86792e-10
3.48117e-10
1.60944e-10
6.72414e-11
2.53027e-11
8.09017e-12
2.159e-12
5.29864e-13
9.17872e-14
1.15763e-14
2.08792e-06
7.58002e-09
7.60458e-09
8.10521e-09
2.58935e-09
1.25115e-09
1.14821e-09
7.52861e-10
1.53543e-09
2.67886e-09
4.08793e-09
3.09863e-09
1.55859e-09
7.31051e-10
3.67508e-10
1.69813e-10
7.06964e-11
2.61009e-11
8.23959e-12
2.04001e-12
5.07864e-13
8.07029e-14
9.79742e-15
1.97641e-08
1.81533e-08
8.99994e-09
2.81502e-09
8.90001e-10
1.01437e-09
9.68597e-10
5.73021e-10
1.04185e-09
8.17586e-09
7.27437e-09
3.24382e-09
1.16601e-09
6.17809e-10
3.16121e-10
1.53408e-10
6.43136e-11
2.28407e-11
6.78937e-12
1.63296e-12
3.60495e-13
5.99049e-14
7.20172e-15
8.78204e-09
1.13928e-08
4.18445e-09
7.53458e-10
7.56199e-10
4.94482e-10
3.50705e-10
3.44377e-10
3.70553e-08
3.53022e-08
1.15115e-08
2.24029e-09
8.06416e-10
4.81062e-10
2.57585e-10
1.2224e-10
4.76378e-11
1.54965e-11
4.31935e-12
9.55357e-13
2.02456e-13
2.11103e-14
2.27209e-15
6.62413e-08
4.84621e-09
8.50245e-10
8.47118e-10
5.11592e-10
2.81091e-10
2.80034e-10
1.37317e-07
1.20986e-07
4.568e-08
1.14423e-08
8.83624e-10
6.70713e-10
3.91924e-10
1.94969e-10
8.02631e-11
2.75418e-11
8.00773e-12
1.89202e-12
3.85775e-13
6.23643e-14
7.68637e-15
6.93652e-16
4.88911e-07
1.10964e-07
1.42686e-08
3.98892e-10
3.48974e-10
2.80034e-10
1.33978e-06
9.57583e-07
2.38726e-07
4.04292e-09
9.05492e-10
9.05208e-10
6.23805e-10
3.05359e-10
1.26443e-10
4.28107e-11
1.17775e-11
2.73329e-12
5.68563e-13
8.75539e-14
1.25284e-14
1.03722e-15
8.64277e-17
1.03127e-06
8.72633e-07
1.99991e-07
1.4434e-09
1.68154e-09
1.83563e-06
2.46352e-06
1.26696e-06
3.98449e-08
9.39463e-10
1.00935e-09
8.2925e-10
4.00282e-10
1.72704e-10
5.57824e-11
1.45091e-11
3.02477e-12
5.38469e-13
8.35498e-14
1.21165e-14
1.14728e-15
1.10702e-16
8.33476e-18
1.06439e-06
7.57963e-07
3.35545e-07
1.99313e-08
1.21803e-06
2.60142e-06
2.43979e-06
4.27381e-07
9.39463e-10
9.33337e-10
8.8919e-10
5.32103e-10
2.38873e-10
7.86707e-11
1.85296e-11
3.28032e-12
4.6985e-13
5.86297e-14
6.46672e-15
6.90796e-16
6.35273e-17
4.04264e-18
2.96035e-19
1.06439e-06
6.20037e-07
2.85875e-07
1.05505e-06
2.38186e-06
2.20985e-06
5.76379e-07
4.34731e-09
1.38074e-09
1.16196e-09
6.41333e-10
2.82297e-10
9.20555e-11
2.10465e-11
3.25117e-12
3.6628e-13
3.31111e-14
2.64174e-15
2.02613e-16
1.47586e-17
9.91217e-19
5.77983e-20
2.67222e-21
0.617996
0.618129
0.72811
0.999525
0.995132
0.995183
0.995205
0.991581
0.753344
0.688292
0.631532
0.56376
0.0307404
0.00948105
0.00115372
1.72889e-14
7.27029e-05
3.64109e-17
-6.02549e-22
1.99593e-06
0.00688585
0.00494445
0.00123063
6.6054e-06
0.0112688
0.0112688
0.00710751
2.12832e-13
0.0108379
0.0111661
0.00477569
2.08361e-13
9.92637e-06
8.85226e-06
5.57295e-05
4.19706e-05
3.2104e-05
0.000256192
0.00015313
2.04914e-05
0.000159701
0.000254727
0.000253504
0.000231264
1.38632e-05
4.4048e-05
0.0002097
0.00023033
3.31935e-06
7.27912e-06
3.71102e-05
4.65338e-05
3.95669e-08
5.86573e-08
2.62996e-08
5.40067e-10
1.26278e-08
3.22581e-09
5.1794e-10
5.21811e-10
2.03788e-08
1.11086e-08
5.36156e-09
2.63559e-09
3.40142e-09
3.39799e-09
3.55288e-09
2.96319e-09
3.08684e-09
3.53326e-09
3.53479e-09
3.05723e-09
1.70851e-09
1.74053e-09
1.77706e-09
1.51177e-09
7.34861e-10
6.88769e-10
5.62054e-10
3.73752e-10
1.93679e-10
1.36854e-10
1.10301e-10
8.14861e-11
5.03916e-11
3.9422e-11
2.75749e-11
2.13093e-11
1.08243e-11
7.68762e-12
6.91699e-12
6.82645e-12
2.32383e-12
1.9461e-12
1.83712e-12
1.95155e-12
4.8762e-13
4.09337e-13
4.27334e-13
4.98643e-13
1.0976e-13
9.69778e-14
9.80141e-14
1.15074e-13
2.65229e-14
1.85758e-14
1.82171e-14
2.45711e-14
1.11469e-14
5.28878e-15
3.81226e-15
4.2447e-15
6.16031e-15
1.90372e-15
6.80564e-16
7.37498e-16
3.90022e-15
1.25462e-15
1.79836e-16
1.10403e-16
2.8671e-15
9.81768e-16
8.57462e-17
1.55271e-17
2.79006e-15
9.18355e-16
8.49703e-17
2.6958e-18
2.69242e-15
7.49365e-16
8.04872e-17
1.07608e-18
2.27982e-15
5.83625e-16
7.79163e-17
9.62618e-19
1.79714e-15
3.86229e-16
6.5791e-17
1.02517e-18
1.32782e-15
2.36378e-16
3.30238e-17
3.50651e-19
3.51461e-16
5.58299e-17
6.7728e-18
6.43841e-20
1.078e-16
1.63371e-17
8.61257e-19
1.26835e-21
1.06067e-17
1.62378e-18
4.0224e-20
8.71284e-23
1.02953e-18
1.06855e-19
7.67349e-22
2.50305e-25
3.15103e-20
1.23246e-21
5.94567e-24
4.12307e-27
2.03773e-22
1.35829e-24
5.13997e-28
2.457e-28
0.999453
0.999552
0.999556
0.99969
0.999699
0.926798
0.435404
0.222144
0.290905
0.834355
0.924144
0.806271
0.667106
0.52747
0.483716
0.550128
0.850573
0.882025
0.861916
0.973044
0.952145
0.954825
0.99063
0.999697
0.885674
0.28773
0.171198
0.203803
0.843354
0.939638
0.742796
0.349431
0.256302
0.205688
0.460329
0.572482
0.703226
0.894268
0.520511
0.517663
0.671372
0.87077
0.978061
0.978234
0.733839
0.347697
0.407271
0.855299
0.942655
0.942581
0.750594
0.300838
0.205111
0.205649
0.192993
0.27241
0.795348
4.91781e-16
5.71241e-16
0.0115998
0.225007
0.492361
0.715278
0.801878
0.800457
0.828878
0.826464
0.706257
0.576562
0.647495
0.522316
0.280587
0.204277
0.120188
0.0466227
0.297218
2.19727e-07
4.77233e-15
5.08062e-15
8.96982e-09
0.000229598
0.0377548
0.200476
0.277381
0.275563
0.148035
0.0348337
0.0236394
0.0979858
0.172021
0.133774
0.122954
0.0699396
0.00293615
0.0675469
4.33563e-07
2.73739e-12
7.21576e-09
2.27447e-07
8.48393e-07
9.09776e-19
6.61557e-19
1.69341e-15
1.2853e-12
5.32671e-24
-1.09643e-22
-4.77624e-23
-5.48057e-24
1.7786e-23
-3.97911e-23
0.000683247
0.000560355
8.29628e-07
0.00308403
2.47251e-12
2.45033e-08
3.5523e-05
0.000154174
0.00017151
0.00010024
1.63511e-05
2.62531e-07
5.73902e-05
0.000174547
0.000174258
0.000127219
5.89523e-05
5.90683e-05
4.39207e-05
1.03725e-05
9.5174e-07
8.25516e-07
1.1277e-07
6.14077e-14
3.86541e-06
0.000168724
0.000312616
0.000312612
0.000167895
2.46919e-05
7.69551e-06
0.000115745
0.00022172
0.000219118
0.000107167
4.55098e-05
6.45231e-05
6.30343e-05
1.37413e-05
2.09109e-06
7.75989e-07
1.16283e-07
4.79515e-14
1.96189e-05
0.000278126
0.000312612
0.000182374
9.02618e-07
7.85468e-07
7.69219e-07
7.83543e-07
1.70622e-06
3.07679e-07
3.54736e-07
4.72626e-06
4.01416e-05
2.42924e-05
6.21061e-06
9.69745e-07
3.31322e-07
5.12917e-08
1.82661e-05
9.16527e-05
0.000125061
4.66155e-06
4.08308e-06
2.789e-06
1.27347e-05
2.46049e-05
2.5656e-05
1.60202e-05
2.61256e-07
1.24195e-06
4.89058e-06
8.07477e-06
1.24035e-05
4.71098e-06
1.46433e-07
3.9294e-07
9.79334e-09
0.00023033
0.000204099
1.32737e-05
8.33184e-07
1.58573e-06
3.92598e-05
7.50672e-05
7.43556e-05
6.99072e-05
5.47295e-05
1.54654e-09
8.92432e-12
8.86312e-12
4.15667e-07
2.74229e-06
5.23951e-06
1.47117e-07
3.3574e-07
6.83586e-09
0.000229925
0.000115829
5.91573e-06
2.02703e-06
2.05706e-05
7.4903e-05
7.48919e-05
7.4493e-05
7.4414e-05
4.00461e-05
1.17616e-06
4.20028e-10
8.86115e-12
2.39396e-06
6.21751e-06
1.11915e-06
6.62369e-07
1.17695e-07
6.82671e-09
4.31186e-05
2.57314e-05
1.15068e-05
1.18801e-05
2.20597e-05
1.94007e-05
1.62833e-05
3.22121e-05
3.26882e-05
1.79635e-09
2.10631e-06
1.33969e-07
1.24731e-11
5.03204e-06
2.01512e-05
2.96639e-06
4.46072e-07
3.4479e-08
7.58523e-09
1.57746e-06
3.89142e-06
4.67773e-06
2.14947e-06
3.07281e-06
1.57794e-11
7.86161e-12
6.44093e-12
7.81784e-12
6.44093e-12
2.48064e-09
2.8045e-07
1.00896e-08
5.22818e-06
2.01238e-05
9.72517e-06
7.16624e-09
5.00803e-08
1.03686e-08
3.65603e-11
4.07945e-11
3.23749e-11
7.83529e-11
7.69486e-11
2.23956e-10
2.42552e-10
1.8507e-10
1.40116e-10
7.55564e-11
1.51624e-08
2.79607e-07
1.79718e-07
1.7718e-06
1.93498e-05
8.13298e-06
7.41894e-09
3.74199e-08
5.23338e-09
9.05496e-10
6.90918e-10
8.57463e-10
9.65993e-10
9.35089e-10
8.93702e-10
7.26611e-10
5.10715e-10
2.81067e-10
9.80988e-11
1.00946e-07
2.62177e-07
8.4071e-08
1.86422e-09
4.81838e-08
3.08949e-06
7.26159e-09
9.81192e-09
8.2115e-10
1.07478e-09
7.55651e-10
8.45691e-10
1.02753e-09
1.08863e-09
1.00409e-09
8.36836e-10
5.99901e-10
3.3423e-10
1.73026e-10
1.48228e-07
2.20316e-07
9.72342e-09
1.86445e-09
1.96854e-09
1.37397e-08
1.41218e-08
2.42729e-09
6.62968e-11
1.0719e-09
4.88275e-10
5.43224e-10
6.91865e-10
8.59396e-10
7.83134e-10
6.60236e-10
4.0075e-10
3.97323e-10
4.18761e-09
5.81888e-08
3.29985e-10
6.90627e-09
2.57201e-09
2.0424e-09
3.79584e-09
5.71174e-09
2.33903e-10
4.24691e-11
5.92505e-10
2.84889e-10
2.96469e-10
3.89907e-10
4.39072e-10
4.36326e-10
3.78248e-10
2.79793e-10
8.4505e-10
6.1702e-09
7.4309e-09
3.43669e-10
4.47992e-09
2.49129e-09
6.70268e-10
4.0104e-10
1.36752e-10
1.49881e-10
1.58602e-11
1.83619e-10
1.45811e-10
1.61721e-10
1.99154e-10
2.06183e-10
2.08595e-10
2.04491e-10
2.20538e-10
1.14979e-09
3.96598e-09
5.94271e-11
2.89128e-10
1.94422e-09
1.37247e-09
2.84492e-10
6.19701e-11
5.03574e-11
3.32505e-11
8.59439e-12
6.17636e-11
6.61456e-11
8.29466e-11
1.02703e-10
1.06119e-10
1.06853e-10
1.05873e-10
1.73595e-10
8.95657e-10
6.12476e-10
5.93052e-11
5.11593e-11
1.54041e-10
3.64827e-10
1.5204e-10
8.9652e-11
5.10926e-11
1.8426e-11
3.84043e-12
2.25731e-11
2.85382e-11
3.81812e-11
4.59587e-11
5.16783e-11
5.32211e-11
5.48296e-11
1.09776e-10
4.33952e-10
5.9445e-11
5.93557e-11
3.91879e-11
4.03989e-11
7.67163e-11
7.58399e-11
6.3218e-11
4.63693e-11
1.45261e-11
2.21049e-12
8.58247e-12
1.22623e-11
1.59878e-11
1.9451e-11
2.24245e-11
2.43907e-11
2.69476e-11
4.49947e-11
7.25815e-11
5.96686e-11
4.16802e-11
3.41849e-11
3.02231e-11
3.47723e-11
3.98177e-11
3.72607e-11
2.53468e-11
1.01191e-11
1.52519e-12
2.8616e-12
4.40631e-12
6.39993e-12
8.12102e-12
9.33539e-12
1.02702e-11
1.20719e-11
1.39341e-11
1.15002e-11
1.83559e-11
1.16942e-11
1.31178e-11
1.82436e-11
1.66642e-11
2.10646e-11
2.08116e-11
1.29575e-11
5.2064e-12
1.18125e-12
8.95552e-13
1.60673e-12
2.3754e-12
2.97351e-12
3.6732e-12
4.43156e-12
5.1555e-12
5.54141e-12
5.41451e-12
6.00866e-12
3.83218e-12
3.93721e-12
7.39603e-12
4.60989e-12
4.76164e-12
7.80852e-12
6.00467e-12
2.70081e-12
9.06664e-13
2.36406e-13
4.77479e-13
7.77191e-13
1.14511e-12
1.46426e-12
1.75391e-12
2.11677e-12
2.41579e-12
2.68453e-12
2.89061e-12
2.48401e-12
1.48132e-12
2.17909e-12
1.091e-12
1.17463e-12
1.96178e-12
2.18021e-12
1.25744e-12
7.93267e-13
5.85739e-14
1.35203e-13
2.39752e-13
3.46402e-13
4.89248e-13
6.5002e-13
7.82577e-13
9.25001e-13
9.92326e-13
9.73172e-13
8.87228e-13
5.52536e-13
5.32321e-13
2.39913e-13
2.28672e-13
5.88057e-13
8.27333e-13
8.9122e-13
6.80058e-13
1.10641e-14
2.94355e-14
5.53447e-14
9.86826e-14
1.46897e-13
2.00068e-13
2.5682e-13
2.95277e-13
2.97078e-13
2.58399e-13
1.90504e-13
8.11861e-14
7.82711e-14
6.25115e-14
8.79196e-14
2.08068e-13
4.09064e-13
6.80479e-13
5.82367e-13
2.54312e-15
6.05026e-15
1.28948e-14
2.25449e-14
3.55819e-14
5.41845e-14
7.04555e-14
7.80615e-14
7.10265e-14
4.90985e-14
1.88195e-14
9.04753e-15
1.41005e-14
2.25525e-14
6.53705e-14
1.54832e-13
3.17756e-13
6.29284e-13
4.84742e-13
3.56713e-16
1.04448e-15
2.09161e-15
4.13156e-15
7.30509e-15
1.09992e-14
1.42341e-14
1.51817e-14
1.18563e-14
4.93434e-15
2.31184e-15
3.38441e-15
7.30596e-15
1.76227e-14
6.15636e-14
1.5518e-13
3.12422e-13
5.79903e-13
4.34253e-13
4.91601e-17
1.427e-16
2.99857e-16
5.99905e-16
1.08893e-15
1.72564e-15
2.11953e-15
2.0526e-15
1.3228e-15
6.90441e-16
1.01288e-15
2.48203e-15
6.30948e-15
1.5287e-14
5.26899e-14
1.58684e-13
3.14612e-13
5.24222e-13
3.65413e-13
5.52941e-18
1.51094e-17
3.26599e-17
7.38932e-17
1.3949e-16
1.99241e-16
2.35417e-16
2.14628e-16
1.76465e-16
2.77872e-16
6.95309e-16
1.87668e-15
5.08257e-15
1.29822e-14
3.64836e-14
1.33742e-13
2.95306e-13
4.52054e-13
2.77909e-13
6.30697e-19
1.46336e-18
3.54288e-18
7.80287e-18
1.45206e-17
2.24957e-17
2.70753e-17
3.2425e-17
5.96144e-17
1.53275e-16
4.28798e-16
1.25151e-15
3.69854e-15
9.85925e-15
2.24068e-14
8.23821e-14
2.44831e-13
3.58932e-13
1.7398e-13
8.64582e-20
1.67209e-19
4.1565e-19
8.81796e-19
1.71939e-18
2.84015e-18
4.71958e-18
1.01015e-17
2.68746e-17
7.78581e-17
2.36436e-16
7.52193e-16
2.37413e-15
6.69629e-15
1.52864e-14
4.10946e-14
1.32092e-13
2.56133e-13
1.04635e-13
2.23159e-20
1.94525e-20
5.07621e-20
1.2493e-19
2.74288e-19
5.73629e-19
1.32444e-18
3.62741e-18
1.07758e-17
3.40875e-17
1.15304e-16
4.06184e-16
1.37804e-15
4.0818e-15
9.70259e-15
2.10524e-14
5.69504e-14
1.31152e-13
6.03199e-14
4.0914e-21
2.40518e-21
6.75957e-21
1.82572e-20
4.78972e-20
1.2464e-19
3.48603e-19
1.0937e-18
3.54596e-18
1.24589e-17
4.76594e-17
1.89935e-16
7.02071e-16
2.20228e-15
5.69058e-15
1.22091e-14
2.57019e-14
5.44405e-14
3.40464e-14
1.14984e-21
3.01091e-22
8.91398e-22
2.65186e-21
7.5795e-21
2.20548e-20
7.1957e-20
2.48918e-19
8.98085e-19
3.61922e-18
1.61073e-17
7.46145e-17
3.05103e-16
1.00662e-15
2.69859e-15
6.34726e-15
1.27203e-14
2.11129e-14
1.91502e-14
1.80013e-23
3.15696e-23
1.00345e-22
3.06187e-22
9.42686e-22
3.00167e-21
1.07473e-20
4.12679e-20
1.74939e-19
8.19278e-19
4.29866e-18
2.38113e-17
1.09357e-16
3.81766e-16
1.07387e-15
2.44661e-15
4.63456e-15
6.9597e-15
8.31842e-15
1.93964e-24
2.90777e-24
8.01318e-24
2.14785e-23
6.48868e-23
2.21488e-22
9.6116e-22
4.84131e-21
2.54216e-20
1.50491e-19
9.26867e-19
6.0536e-18
3.16769e-17
1.20963e-16
3.47243e-16
8.29835e-16
1.64704e-15
2.61747e-15
3.89183e-15
7.93315e-26
2.19182e-25
5.53341e-25
1.57807e-24
5.46956e-24
2.4005e-23
1.26578e-22
7.27713e-22
4.65282e-21
3.03394e-20
2.07289e-19
1.46409e-18
8.2869e-18
3.30421e-17
9.99135e-17
2.31312e-16
3.613e-16
9.22368e-16
1.26627e-15
5.93811e-27
1.38059e-26
3.12496e-26
8.73698e-26
3.45127e-25
1.87272e-24
1.24791e-23
8.73325e-23
6.71156e-22
5.07067e-21
3.77145e-20
2.50167e-19
1.48125e-18
6.27385e-18
2.04116e-17
5.10343e-17
8.46547e-17
2.01789e-16
1.88653e-16
3.60945e-28
6.62247e-28
1.32828e-27
3.98166e-27
1.75265e-26
1.06789e-25
8.22674e-25
7.44781e-24
6.52327e-23
5.12228e-22
3.82924e-21
2.40471e-20
1.4222e-19
6.38828e-19
2.17051e-18
5.69471e-18
1.12409e-17
1.83382e-17
1.27326e-18
)
;

boundaryField
{
    leftWall
    {
        type            zeroGradient;
    }
    rightWall
    {
        type            zeroGradient;
    }
    lowerWall
    {
        type            zeroGradient;
    }
    atmosphere
    {
        type            inletOutlet;
        inletValue      uniform 0;
        value           nonuniform List<scalar> 
46
(
1.06439e-06
6.20037e-07
2.85875e-07
1.05505e-06
2.38186e-06
2.20985e-06
5.76379e-07
4.34731e-09
1.38074e-09
1.16196e-09
6.41333e-10
0
0
0
0
0
0
0
0
0
0
0
0
0
0
0
0
0
0
0
0
0
0
0
0
0
0
0
0
0
0
0
0
0
0
0
)
;
    }
    defaultFaces
    {
        type            empty;
    }
}


// ************************************************************************* //
