/*--------------------------------*- C++ -*----------------------------------*\
| =========                 |                                                 |
| \\      /  F ield         | OpenFOAM: The Open Source CFD Toolbox           |
|  \\    /   O peration     | Version:  2312                                  |
|   \\  /    A nd           | Website:  www.openfoam.com                      |
|    \\/     M anipulation  |                                                 |
\*---------------------------------------------------------------------------*/
FoamFile
{
    version     2.0;
    format      ascii;
    arch        "LSB;label=32;scalar=64";
    class       volScalarField;
    location    "2.25";
    object      alpha.air;
}
// * * * * * * * * * * * * * * * * * * * * * * * * * * * * * * * * * * * * * //

dimensions      [0 0 0 0 0 0 0];

internalField   nonuniform List<scalar> 
2268
(
5.88443e-10
2.99535e-10
1.23251e-10
4.05519e-11
1.30469e-11
6.03412e-12
4.09153e-12
2.12776e-12
1.31042e-12
1.31915e-12
2.16914e-12
4.27501e-12
8.21849e-12
1.406e-11
2.55091e-11
6.41801e-11
1.57293e-10
5.07136e-11
3.02478e-11
4.91249e-11
4.91362e-11
5.25442e-10
1.35524e-08
1.12064e-09
1.08474e-09
7.35989e-10
2.77716e-10
1.13524e-10
6.74465e-11
4.02689e-11
1.2826e-11
8.87892e-12
1.42489e-11
2.84631e-11
4.59729e-11
6.857e-11
8.64878e-11
1.30824e-10
3.70943e-10
2.90124e-09
2.96175e-09
3.02245e-11
3.0321e-11
8.16021e-09
5.7501e-08
8.96135e-08
8.71473e-10
2.22423e-09
2.58066e-09
1.3305e-09
5.36078e-10
2.78455e-10
1.19075e-10
4.26243e-11
6.47512e-11
1.93352e-10
3.77266e-10
4.35828e-10
3.36986e-10
2.04113e-10
2.0954e-10
2.50388e-10
7.97146e-09
1.07421e-07
1.5234e-07
1.20411e-07
1.02454e-07
1.76384e-07
1.97798e-07
3.675e-23
-1.67615e-22
1.08596e-12
6.65333e-12
6.84983e-12
2.20434e-10
2.13245e-11
9.3517e-12
6.32222e-12
6.39513e-10
1.0736e-09
1.12848e-09
7.63617e-10
2.71185e-10
1.92428e-10
2.03093e-10
1.33282e-09
2.40873e-08
7.62921e-07
8.91885e-07
4.10105e-07
1.79487e-07
2.77328e-05
6.40099e-05
6.48267e-06
1.90625e-06
8.04959e-07
2.0943e-08
1.66058e-07
5.10131e-20
4.57115e-20
4.01524e-14
-1.77358e-13
1.26874e-10
1.23107e-10
1.63745e-10
5.98132e-11
4.69618e-12
1.28938e-12
9.95856e-15
1.20485e-14
3.04282e-19
5.46683e-19
3.04222e-19
2.87416e-05
0.000374729
0.000348319
0.000126223
2.32914e-05
2.76138e-06
1.08817e-05
4.30111e-05
4.86911e-05
2.59206e-05
3.03248e-14
2.66027e-05
4.5536e-05
1.3011e-05
1.25188e-12
1.04185e-19
6.48915e-23
3.4373e-23
0.000106916
7.18039e-05
3.25291e-05
0.000144426
0.00050231
0.000276628
0.000390293
0.000455495
0.000308735
3.33091e-05
4.1153e-05
3.97237e-05
5.64917e-05
0.000109448
0.000170626
0.000321192
0.000322034
2.77936e-05
9.15874e-13
7.71303e-13
0.000118448
0.00101107
0.00149792
0.0037096
0.00519433
0.00598859
0.00597585
0.00233659
0.00275698
0.00195932
0.000454705
0.00139218
0.000868773
0.00199622
0.000961264
6.02355e-05
5.94028e-05
5.93377e-05
5.94028e-05
7.38771e-05
0.000263482
0.000386382
0.000345134
0.000446918
0.00299732
0.0171573
0.021229
0.0205463
0.0179279
0.00461117
0.00579053
0.0278715
0.0387592
0.000206894
0.000395776
0.00039754
0.00127674
0.00182712
0.00620157
0.0128633
0.0128633
0.0128628
0.00972468
0.00655993
0.00655402
0.00586819
0.00586819
0.00586819
0.00586819
0.00597811
0.00623734
0.00637929
0.00125076
0.00206848
0.0014462
0.00103715
0.0039917
0.00817175
0.011147
0.00884793
0.00754771
0.00900422
0.00971523
0.00997818
0.00664194
0.00586876
0.00586883
0.0116842
0.0125492
0.00680632
0.00767671
0.00628036
0.00747637
0.00747726
0.00377351
0.00366779
0.00367744
0.00389787
0.00445542
0.00398902
0.00396465
0.00703155
0.0099471
0.00625802
0.00630257
0.0103606
0.0375541
0.0479482
0.0339213
0.00750135
0.00655416
0.00647408
0.00647429
0.00651387
0.00598084
0.006458
0.00420106
0.00468663
0.00469058
0.00370491
0.00368775
0.00369251
0.0169311
0.0526666
0.0858839
0.0756245
0.0378642
0.00562451
0.00540063
0.021602
0.0113842
0.0093861
0.0114048
0.0354876
0.0348389
0.0272694
0.0211898
0.0102661
0.00369227
0.00369154
0.00378104
0.0607052
0.103074
0.104053
0.0510888
0.0261929
0.0394838
0.00648903
0.0343463
0.0405304
0.0350595
0.0377438
0.038348
0.0410494
0.041001
0.0301903
0.00537946
0.00369486
0.00368901
0.0283425
0.0994211
0.105896
0.0456027
0.045922
0.121185
0.126214
0.0114944
0.0429755
0.0388154
0.0264653
0.00637188
0.000237231
0.00828545
0.0122047
0.00822171
0.00436107
0.0131923
0.00702467
0.0912698
0.101805
0.0634521
0.0455993
0.0960984
0.136628
0.0670084
0.0137449
0.0390085
0.00300933
0.000151764
0.000203085
0.000234859
0.0170409
0.0458698
0.00822393
0.0183034
0.0218913
0.0231973
0.0515619
0.0451992
0.0450266
0.118791
0.168939
0.105599
0.00166659
0.012258
0.000454704
0.00112807
0.0018756
0.00338032
0.00191796
0.000116877
5.93377e-05
5.94028e-05
0.000466575
0.000631944
0.000667409
0.000664862
0.000657076
0.000965287
0.0153927
0.0263468
0.0191136
0.0120032
0.00417163
0.00487058
0.00883363
0.0517662
0.0527506
0.0798235
0.0395651
0.0102124
0.00356652
0.00283606
0.00482746
0.0108343
0.0113932
0.00500629
0.00101725
0.000666908
0.000667299
0.000665833
0.00690669
0.0267326
0.0286062
0.011972
0.00416402
0.00418881
0.00486616
0.00652065
0.00431217
0.0017893
0.228717
0.193691
0.0624993
0.00787955
0.00329231
0.00634787
0.0233072
0.0545112
0.08458
0.0869742
0.0460985
0.000665297
0.000665854
0.000666034
0.0090625
0.029035
0.0308894
0.0193867
0.0233451
0.0174692
4.27946e-05
4.02189e-05
3.76451e-05
0.177792
0.222279
0.142845
0.0303854
0.0176727
0.00434838
0.0167897
0.0371725
0.0740243
0.11304
0.112734
0.102615
0.0254914
0.00172269
0.0146574
0.040233
0.0665724
0.0665724
0.0631556
0.00971237
4.53583e-05
0.000114124
0.000348752
0.0248148
0.210406
0.167675
0.0362279
0.00990138
0.00154078
0.00164269
0.00257621
0.00705091
0.0319859
0.0873925
0.118259
0.118298
0.0396571
0.0180999
0.0665724
0.0665724
0.0665724
0.0530461
0.00075823
0.000767953
0.000839472
0.000777814
0.0253034
0.107271
0.256981
0.0716384
0.000939291
0.000890385
0.000814693
0.000813173
0.000909702
0.00110549
0.0136536
0.0955366
0.114466
0.038908
0.00360038
0.0193523
0.0660359
0.0665724
0.0522904
0.00191321
0.00166236
0.000942414
1.31162e-05
0.0484094
0.518047
0.549997
0.147366
0.00081725
0.000818243
0.000813152
0.000888995
0.0308242
0.0315217
0.00226098
0.0168401
0.0233226
0.00610285
0.00253537
0.00254103
0.0205381
0.0655698
0.0511684
0.0021214
0.00165685
0.0167079
0.174244
0.0829272
0.738874
0.769371
0.590464
0.12168
0.107372
0.0466578
0.0305559
0.0357033
0.0282275
0.00175763
0.00224472
0.00249939
0.0025269
0.00253473
0.00250703
0.0046667
0.0356564
0.0486201
0.0801389
0.228301
0.561773
0.87281
0.0793758
0.616854
0.769371
0.769371
0.575678
0.0454384
0.0136713
0.0129975
0.014545
0.0026753
0.00171934
0.00222056
0.00222799
0.00191632
0.00191787
0.00239013
0.0338317
0.106176
0.369382
0.751061
0.955269
0.987085
0.994045
0.0383001
0.24714
0.610651
0.515639
0.132663
0.00118776
0.00105074
0.00101063
0.00101246
0.00101064
0.000947664
0.000639171
0.000533077
0.000520117
0.042273
0.44788
0.792884
0.948985
0.994724
0.998517
0.999487
1
1
0.0386864
0.110297
0.0258724
0.00374885
0.00245704
0.00188825
0.00118788
0.00101283
0.125131
0.350132
0.50885
0.639014
0.760407
0.866153
0.971907
0.998544
0.999362
0.999928
0.99993
0.999933
0.999999
1
0.999999
0.0491805
0.354109
0.303317
0.283055
0.361527
0.471744
0.605357
0.799788
0.931871
0.983038
0.996363
0.999771
0.999998
0.999998
0.999998
0.99979
0.999586
0.999584
0.999586
0.999929
0.999997
0.999998
0.999993
0.0251472
0.420344
0.909798
0.942777
0.97283
0.994962
0.999837
0.999869
0.999956
0.999956
0.999956
0.999955
0.999964
0.999958
0.999958
0.999968
0.999974
0.999903
0.999772
0.999779
0.999959
0.999988
0.999897
0.0217124
0.189015
0.879041
0.997454
0.999982
0.999961
0.999942
0.999918
0.999925
0.999928
0.999964
0.999962
0.99996
0.999979
0.999985
0.999975
0.999975
0.999989
0.999999
0.999997
0.999998
1
0.99996
0.0243988
0.0280655
0.705771
0.999334
0.999998
0.999998
0.999971
0.999981
0.999998
0.999999
0.999971
0.999906
0.999906
0.999907
0.999985
1
1
1
1
0.999999
1
1
1
0.0249259
0.223918
0.818715
0.99969
0.99998
0.999997
0.999997
0.999998
0.999999
0.999999
0.999999
1
0.99997
0.999942
0.999953
0.999998
1
1
1
1
1
1
1
0.0251739
0.653672
0.9988
0.999995
0.99999
0.999999
0.999999
0.999998
0.999998
0.999999
0.999999
1
1
1
1
0.999999
1
1
1
1
1
1
1
0.025466
0.732785
0.995365
1
0.999999
0.999999
0.999997
0.999998
1
1
1
1
1
1
1
1
1
1
1
1
1
1
1
0.0257666
0.751443
0.981846
0.999999
1
0.999999
0.999997
0.999999
1
1
1
1
1
1
1
1
1
1
1
1
1
1
1
0.136763
0.863881
0.987332
1
0.999999
0.999997
0.999997
0.999999
1
1
1
1
1
1
1
1
1
1
1
1
1
1
1
0.836705
0.98409
0.997643
1
0.999999
0.999997
0.999999
1
1
1
1
1
1
1
1
1
1
1
1
1
1
1
1
0.965518
0.99566
1
1
0.999999
0.999998
1
1
1
1
1
1
1
1
1
1
1
1
1
1
1
1
1
0.998411
0.999859
0.999998
1
0.999999
1
1
1
1
1
1
1
1
1
1
1
1
1
1
1
1
1
1
0.999998
0.999997
0.999997
1
1
1
1
1
1
1
1
1
1
1
1
1
1
1
1
1
1
1
1
0.999998
0.999998
0.999997
0.999999
1
1
1
1
1
1
1
1
1
1
1
1
1
1
1
1
1
1
1
0.999994
1
0.999999
1
1
1
1
1
1
1
1
1
1
1
1
1
1
1
1
1
1
1
1
0.999992
1
1
1
1
1
1
1
1
1
1
1
1
1
1
1
1
1
1
1
1
1
1
0.999992
1
1
1
1
1
1
1
1
1
1
1
1
1
1
1
1
1
1
1
1
1
1
0.995865
0.999999
0.999994
0.999987
0.999997
1
1
1
1
1
1
1
1
1
1
1
1
1
1
1
1
1
1
0.993278
0.999433
0.999713
0.999932
1
1
1
1
1
1
1
1
1
1
1
1
1
1
1
1
1
1
1
0.981084
0.978017
0.99335
1
1
1
1
1
1
1
1
1
1
1
1
1
1
1
1
1
1
1
1
0.961967
0.963876
0.992706
1
1
1
1
1
1
1
1
1
1
1
1
1
1
1
1
1
1
1
1
0.961968
0.982235
0.998805
1
1
1
1
1
1
1
1
1
1
1
1
1
1
1
1
1
1
1
1
0.98189
0.999686
1
1
1
1
1
1
1
1
1
1
1
1
1
1
1
1
1
1
1
1
1
0.999999
1
1
1
1
1
1
1
1
1
0.999999
1
1
1
1
1
1
1
1
1
1
1
1
1
1
1
1
1
1
1
1
1
0.999999
0.999999
1
1
1
1
1
1
1
1
1
1
1
1
1
1
1
1
1
1
1
1
1
0.999999
0.999999
1
1
1
1
1
1
1
1
1
1
1
1
1
1
1
1
1
1
1
1
0.999999
0.999999
0.999999
1
1
1
1
1
1
1
1
1
1
1
1
0.999999
1
1
1
1
1
0.999999
0.999999
0.999999
0.999999
1
1
1
1
1
1
1
1
1
1
1
1
1
0.999999
0.999999
1
1
1
0.999998
0.999997
0.999999
1
1
1
1
1
1
1
1
1
1
1
1
1
1
1
0.999999
0.999999
1
1
0.999999
0.999997
0.999997
0.999999
1
1
1
1
1
1
1
1
1
1
1
1
1
1
1
0.999992
0.999995
0.999997
0.999997
0.999997
0.999997
0.999999
1
1
1
1
1
1
1
1
1
1
1
1
1
1
1
1
0.0526379
0.0508164
0.00318549
0.000382011
0.000776562
0.00116825
0.00225599
0.00862117
3.24495e-05
2.02043e-05
0.00175253
0.0447351
0.000132564
2.30028e-05
0.00108162
0.00485571
0.00044474
-3.53493e-08
-3.34096e-06
-4.26405e-06
1.75768e-05
0.0145055
0.0658499
0.100003
0.360865
0.516832
0.683295
0.774344
0.970308
0.969389
0.975629
0.980036
0.997387
0.996529
0.996179
0.996384
0.999968
0.999745
0.999863
0.999949
0.999796
0.999742
0.999741
0.999757
0.999982
0.999927
0.999762
0.999762
0.999787
0.999787
0.999866
0.999936
0.999787
0.999787
0.999787
0.999788
1
1
1
1
1
1
1
1
1
1
1
1
1
1
1
1
1
1
1
1
1
1
1
1
1
1
1
1
1
1
1
1
1
1
1
1
1
1
1
1
1
1
1
1
1
1
1
1
1
1
1
1
1
1
1
1
1
1
1
1
1
1
1
1
1
1
1
1
1
1
1
1
1
1
1
1
1
1
1
1
1
1
1
1
1
1
1
1
1
1
1
1
1
1
1
1
1
1
1
1
1
1
1
1
1
1
1
1
1
1
1
1
0.000289516
0.000153547
0.000150632
0.000151718
0.000197056
0.0578677
0.136774
0.0620369
0.0043701
0.0033145
0.00331981
0.00547317
0.00549949
0.0676403
0.168939
0.168949
0.0325363
0.00168273
0.00360336
0.0266711
0.0448402
0.0404717
0.00761029
0.000280029
0.0680939
0.139658
0.118898
0.118345
0.0413199
0.0033145
0.00562255
0.0294273
0.0889714
0.168939
0.0698128
0.00153548
0.00153366
0.001536
0.0859322
0.0859319
0.085934
0.0679686
0.020989
0.0209707
0.0876801
0.148233
0.148325
0.0908117
0.027682
0.0240661
0.110827
0.125779
0.0636286
0.00320306
0.00279682
0.00487886
0.00153425
0.0351176
0.0746965
0.085934
0.0859294
0.0709876
0.0750838
0.125635
0.128073
0.0964494
0.0527365
0.0544234
0.0958882
0.132141
0.123568
0.0451878
0.003286
0.0750798
0.145299
0.100202
1.11357e-19
0.00298347
0.0296223
0.0449605
0.0154827
0.0375593
0.173991
0.255932
0.253231
0.31201
0.38626
0.391588
0.321111
0.242867
0.149853
0.0813953
0.128184
0.192527
0.415058
0.0993747
0.0190582
0.00689834
0.00688965
0.016285
0.0994418
0.3109
0.584583
0.747882
0.842983
0.870929
0.819773
0.801011
0.773903
0.756555
0.686449
0.596434
0.489829
0.618494
0.769589
0.387833
0.107751
0.251037
0.640707
0.885118
0.983342
0.997356
0.999515
0.999826
0.999827
0.999874
0.999941
0.999941
0.999955
0.99998
0.999521
0.978415
0.958715
0.984269
0.951433
0.860242
0.976572
0.997578
0.998708
0.999976
0.999991
0.99988
0.999781
0.999787
0.999898
0.999956
0.999923
0.99992
0.999967
0.999998
0.999999
0.999999
0.997799
0.998222
0.998874
0.999645
0.999828
0.999996
0.999996
0.999994
0.999968
0.999943
0.999989
0.999991
0.999991
0.999947
0.99993
0.999932
0.999998
0.999999
0.999999
0.999949
0.999908
0.999889
0.999984
0.999987
0.999986
0.999955
0.999817
0.999629
0.999602
0.999781
0.999991
0.99999
0.999958
0.999946
0.999932
0.999986
0.999999
0.999999
0.999763
0.999809
0.999981
0.999985
0.999961
0.999767
0.999601
0.999565
0.999565
0.999565
0.99962
0.999941
0.999946
0.999675
0.999889
0.999932
0.999982
0.999999
0.999999
0.999765
0.999895
0.999979
0.999979
0.99993
0.999714
0.999603
0.999579
0.999589
0.999708
0.999702
0.999675
0.999672
0.99963
0.999659
0.999967
0.999994
1
1
0.999936
0.99994
0.999934
0.999941
0.999959
0.999982
0.999987
0.999954
0.999965
1
0.999998
0.999703
0.999646
0.999644
0.999641
0.999951
1
0.999999
0.999995
0.999899
0.999953
0.99994
0.999951
0.999995
1
1
1
1
1
1
1
0.999923
0.999985
0.999947
0.999963
1
0.999999
0.999994
1
1
0.999998
1
1
1
1
1
1
1
1
1
1
0.999998
0.999981
0.999986
1
0.999999
0.999994
1
1
1
1
1
1
1
1
1
1
1
1
1
1
1
0.999997
1
0.999999
0.999994
1
1
1
1
1
1
1
1
1
0.999999
0.999999
1
1
1
1
1
1
0.999999
0.999994
1
1
1
1
1
1
1
1
1
0.999999
1
1
1
1
1
1
1
0.999999
0.999995
1
1
1
1
1
1
1
1
1
1
1
1
1
1
1
1
1
1
1
1
1
1
1
1
1
1
1
1
1
1
1
1
1
1
1
1
1
1
1
1
1
1
1
1
1
1
1
1
1
1
1
1
1
1
0.999999
0.999992
1
1
1
1
1
1
1
1
1
1
1
1
1
1
1
1
1
0.999999
0.999991
0.999994
1
1
1
1
1
1
1
1
1
1
1
1
1
1
1
1
0.999999
0.999991
0.999991
1
1
1
1
1
1
1
1
1
1
1
1
1
1
1
1
1
0.999992
0.999998
1
1
1
1
1
1
1
1
1
1
1
1
1
1
1
1
1
1
1
1
1
1
1
1
1
1
1
1
1
1
1
1
1
1
1
1
1
1
1
1
1
1
1
1
1
1
1
1
1
1
1
1
1
1
1
1
1
1
1
1
1
1
1
1
1
1
1
1
1
1
1
1
1
1
1
1
1
1
1
1
1
1
1
1
1
1
1
1
1
1
1
1
1
1
1
1
1
1
1
1
1
1
1
1
1
1
1
1
1
1
1
1
1
1
1
1
1
1
1
1
1
1
1
1
1
1
1
1
1
1
1
1
1
1
1
1
1
1
1
1
1
1
1
1
1
1
1
1
1
1
1
1
1
1
1
1
1
1
1
1
1
1
1
1
1
1
1
1
1
1
1
1
1
1
1
1
1
1
1
1
1
1
1
1
1
1
1
1
1
1
1
1
1
1
1
1
1
1
1
1
1
1
1
1
1
1
1
1
1
1
1
1
1
1
1
1
1
1
1
1
1
1
1
1
1
1
1
1
1
1
1
1
1
1
1
1
1
1
1
1
1
1
1
1
1
1
1
1
1
1
1
1
1
1
1
1
1
1
1
1
1
1
1
1
1
1
1
1
1
1
1
1
1
1
1
1
1
1
1
1
1
1
1
1
1
1
1
1
1
1
1
1
1
1
1
1
1
1
1
1
1
1
1
1
1
1
1
1
1
1
1
1
1
1
1
1
1
1
1
1
1
1
1
1
1
1
1
1
1
1
1
1
1
1
1
1
1
1
1
1
1
1
)
;

boundaryField
{
    leftWall
    {
        type            alphaContactAngle;
        thetaProperties 
6
(
(galistan air) 90 0 0 0
(oil galistan) 90 0 0 0
(water oil) 90 0 0 0
(water air) 90 0 0 0
(oil air) 90 0 0 0
(water galistan) 90 0 0 0
);
        value           nonuniform List<scalar> 
50
(
5.88443e-10
1.12064e-09
8.71473e-10
3.675e-23
6.40099e-05
0.000348319
0.000455495
0.000454705
0.000454704
0.0798235
0.228717
0.177792
0.0248148
0.0253034
0.0484094
0.0829272
0.0793758
0.0383001
0.0386864
0.0491805
0.0251472
0.0217124
0.0243988
0.0249259
0.0251739
0.025466
0.0257666
0.136763
0.836705
0.965518
0.998411
0.999998
0.999998
0.999994
0.999992
0.999992
0.995865
0.993278
0.981084
0.961967
0.961968
0.98189
0.999999
1
1
1
0.999999
0.999999
0.999999
0.999992
)
;
    }
    rightWall
    {
        type            alphaContactAngle;
        thetaProperties 
6
(
(galistan air) 90 0 0 0
(oil galistan) 90 0 0 0
(water oil) 90 0 0 0
(water air) 90 0 0 0
(oil air) 90 0 0 0
(water galistan) 90 0 0 0
);
        value           nonuniform List<scalar> 
50
(
0.00637929
0.00767671
0.00750135
0.00540063
0.00648903
0.0114944
0.0137449
0.012258
0.00360336
0.001536
0.00153425
0.100202
0.415058
0.618494
0.958715
0.999999
0.999999
0.999999
0.999999
1
0.999995
0.999994
0.999994
0.999994
0.999994
0.999995
1
1
1
0.999994
0.999991
0.999998
1
1
1
1
1
1
1
1
1
1
1
1
1
1
1
1
1
1
)
;
    }
    lowerWall
    {
        type            alphaContactAngle;
        thetaProperties 
6
(
(galistan air) 90 0 0 0
(oil galistan) 90 0 0 0
(water oil) 90 0 0 0
(water air) 90 0 0 0
(oil air) 90 0 0 0
(water galistan) 90 0 0 0
);
        value           nonuniform List<scalar> 
62
(
5.88443e-10
2.99535e-10
1.23251e-10
4.05519e-11
1.30469e-11
6.03412e-12
4.09153e-12
2.12776e-12
1.31042e-12
1.31915e-12
2.16914e-12
4.27501e-12
8.21849e-12
1.406e-11
2.55091e-11
6.41801e-11
1.57293e-10
5.07136e-11
3.02478e-11
4.91249e-11
4.91362e-11
5.25442e-10
1.35524e-08
1.35524e-08
8.96135e-08
1.97798e-07
2.77328e-05
0.000374729
0.000390293
0.00195932
0.0387592
0.0526379
0.0508164
0.00318549
0.000382011
0.000206894
0.00125076
0.00628036
0.00655416
0.021602
0.0343463
0.0429755
0.0390085
0.000206894
0.000395776
0.00039754
0.00127674
0.00182712
0.00620157
0.0128633
0.0128633
0.0128628
0.00972468
0.00655993
0.00655402
0.00586819
0.00586819
0.00586819
0.00586819
0.00597811
0.00623734
0.00637929
)
;
    }
    atmosphere
    {
        type            inletOutlet;
        inletValue      uniform 1;
        value           nonuniform List<scalar> 
46
(
0.999992
0.999995
0.999997
0.999997
0.999997
0.999997
0.999999
1
1
1
1
1
1
1
1
1
1
1
1
1
1
1
1
1
1
1
1
1
1
1
1
1
1
1
1
1
1
1
1
1
1
1
1
1
1
1
)
;
    }
    defaultFaces
    {
        type            empty;
    }
}


// ************************************************************************* //
