/*--------------------------------*- C++ -*----------------------------------*\
| =========                 |                                                 |
| \\      /  F ield         | OpenFOAM: The Open Source CFD Toolbox           |
|  \\    /   O peration     | Version:  2312                                  |
|   \\  /    A nd           | Website:  www.openfoam.com                      |
|    \\/     M anipulation  |                                                 |
\*---------------------------------------------------------------------------*/
FoamFile
{
    version     2.0;
    format      ascii;
    arch        "LSB;label=32;scalar=64";
    class       volScalarField;
    location    "2.25";
    object      alphas;
}
// * * * * * * * * * * * * * * * * * * * * * * * * * * * * * * * * * * * * * //

dimensions      [0 0 0 0 0 0 0];

internalField   nonuniform List<scalar> 
2268
(
2
2
2
2
2
2
2
2
2
2
2
2
2
2
2
2
2
2
2
2
2
1.99995
1.99994
2
2
2
2
2
2
2
2
2
2
2
2
2
2
2
2
2
2
2
2
2
1.99998
1.99996
2
2
2
2
2
2
2
2
2
2
2
2
2
2
2
2
2
2
2
2
2
2
2
1.99999
2
2
2
2
2
2
2
2
2
2
2
2
2
2
2
2
2
2
2
2
2
2.00003
1.99972
1.99958
1.99958
1.99969
1.99996
2
2
2
2
2
2
2
1.99999
2
2
2
1.9945
1.9758
1.97103
1.98043
1.99609
1.98551
1.97076
1.99982
1.99357
1.99511
1.99871
1.99998
2.00003
2.00001
1.99991
1.99975
1.9755
1.90654
1.78428
1.61135
1.40853
1.17479
0.924366
0.760057
0.714
0.726186
0.77636
0.833602
0.863553
0.900328
1.26125
1.46559
1.62088
1.68497
1.68718
1.62647
1.49086
1.26499
0.995496
0.741581
0.491628
0.283949
0.147379
0.0669747
0.0272309
0.0165707
0.0191947
0.0523587
0.127669
0.153353
0.12784
0.0536396
0.0835651
0.110146
0.162339
0.260362
0.299314
0.310783
0.262595
0.0979562
0.0273954
0.00650099
0.00132323
0.00155926
0.00171458
0.0016763
0.00178114
0.00943676
0.111099
0.345733
0.422162
0.417714
0.312109
0.0379298
0.108904
0.198906
1.84425
1.88878
1.88912
1.89471
1.90441
1.91521
1.93255
1.93258
1.9322
1.92499
1.91864
1.92275
1.92469
1.93605
1.9357
1.93291
1.93772
1.94511
1.94666
1.82573
1.83804
1.84949
1.85468
1.82798
1.8849
1.92255
1.92559
1.83331
1.73528
1.73478
1.75281
1.72476
1.7314
1.79977
1.83191
1.85174
1.86947
1.72753
0.912031
0.932838
1.05214
1.24343
1.4162
1.56289
1.57548
1.5567
1.56597
1.53959
1.35054
1.00472
0.802021
0.912744
1.35507
1.51126
1.55526
1.4717
1.42887
0.418713
0.41882
0.419004
0.444386
0.654
0.773997
1.07363
1.35358
1.29608
1.05277
0.714795
0.401887
0.433847
0.735328
1.22013
1.3673
1.02492
0.385335
0.554429
0.398448
0.435573
0.510182
0.578841
0.566195
0.660074
0.654277
0.648109
0.484536
0.414736
0.397639
0.397472
0.76296
0.93551
0.89122
0.507145
0.253264
0.274844
0.294392
0.507024
0.600782
0.609456
0.61456
0.521098
0.543307
0.591868
0.493484
0.490878
0.719741
0.56849
0.663966
0.920379
0.900318
0.296171
0.303025
0.508101
0.567525
0.292767
0.510239
0.377317
0.367332
0.0973146
0.0109238
0.0593932
0.178643
0.347508
0.823142
0.943763
0.884875
0.915128
0.56141
0.313044
0.29593
0.464199
0.607494
0.424849
0.346492
0.347165
0.0104697
0.000925301
0.000765001
0.000858752
0.0511283
0.156902
0.377019
0.905564
0.853322
0.499116
0.312312
0.254418
0.259142
0.5228
0.731934
0.482945
0.12912
0.345155
0.0685452
0.0128364
0.00753821
0.0101421
0.00575453
0.00155051
0.00148907
0.00141497
0.00178305
0.00196136
0.00200229
0.00199672
0.00198294
0.00305357
0.127934
0.437375
0.43009
0.404496
0.095458
0.0162537
0.0278575
0.178038
0.44542
0.821299
0.477086
0.11206
0.0715956
0.0121713
0.0146752
0.0326489
0.0342466
0.0150233
0.00305176
0.00200073
0.00200214
0.0019991
0.0213402
0.151718
0.425476
0.325754
0.0189012
0.0153574
0.0166206
0.0201647
0.0135846
0.00855437
1.45678
1.36051
0.880998
0.516769
0.445431
0.272761
0.222846
0.237723
0.253781
0.260963
0.138296
0.00200813
0.00205698
0.00482905
0.102856
0.189811
0.146974
0.0997909
0.191038
0.329671
0.333587
0.306287
0.251333
1.35491
1.44442
1.28557
1.05023
1.01809
0.947554
0.912293
0.896637
0.820312
0.681668
0.488731
0.361707
0.0933316
0.0119373
0.0571849
0.133608
0.217891
0.509429
1.00353
1.0185
0.998417
0.979477
0.96731
1.0488
1.41988
1.33501
1.07246
1.01981
1.00315
1.00347
1.00531
1.01413
1.05176
1.10168
1.06337
0.992385
0.821843
0.641175
0.585493
0.749775
1.08866
1.10762
1.00327
1.00282
1.00257
1.00213
1.05035
1.21407
1.5132
1.14322
1.00186
1.00177
1.00169
1.0017
1.00184
1.00222
1.02732
1.19112
1.22895
1.07783
1.00724
1.03874
1.13211
1.13328
1.10472
1.00399
1.00331
1.00144
0.998209
1.09677
2.03604
2.09844
1.29327
1.00147
1.00153
1.00152
1.00176
1.06165
1.06305
1.0045
1.03355
1.0467
1.01222
1.00508
1.00508
1.04108
1.1312
1.10243
1.00417
1.00306
1.03355
1.35106
1.16592
2.47695
2.53826
2.18016
1.24321
1.21464
1.09324
1.06089
1.07138
1.05657
1.0031
1.00447
1.00503
1.00506
1.00507
1.00499
1.00933
1.07075
1.0959
1.15942
1.45709
2.12669
2.75327
1.15807
2.23066
2.53689
2.53781
2.15075
1.08984
1.02595
1.02445
1.02824
1.00505
1.00285
1.00422
1.00419
1.00327
1.00309
1.00399
1.06694
1.21198
1.7378
2.50229
2.91274
2.97605
2.9874
1.07515
1.49123
2.21857
2.03112
1.26518
1.00102
1.00052
1.00041
1.00051
1.00057
1.00039
0.999431
0.998469
0.997289
1.08161
1.8946
2.58472
2.89751
2.98931
2.99697
2.99898
3
3
1.07679
1.22713
1.05637
1.0075
1.00475
1.00356
1.00276
1.00431
1.25956
1.70635
2.02376
2.28233
2.51931
2.72993
2.94242
2.99582
2.99809
2.99979
2.99985
2.99987
3
3
3
1.09804
1.71423
1.61556
1.56874
1.723
1.94343
2.21137
2.60196
2.8663
2.96717
2.99292
2.99957
3
3
3
2.99958
2.99918
2.99918
2.99918
2.99986
3
3
2.99998
1.04951
1.84487
2.82761
2.88961
2.94562
2.98992
2.9997
2.99977
2.99989
2.9999
2.99991
2.99991
2.99991
2.99988
2.99988
2.99991
2.99995
2.9998
2.99954
2.99956
2.99993
2.99999
2.9998
1.04281
1.37625
2.76325
2.9967
2.99995
2.99991
2.99986
2.99983
2.99985
2.99985
2.99993
2.99992
2.99992
2.99995
2.99996
2.99992
2.99992
2.99997
3
2.99999
2.99999
3
2.99992
1.04857
1.05592
2.41059
2.99814
2.99999
3
2.99994
2.99996
3
3
2.99994
2.99981
2.99981
2.99981
2.99997
3
3
3
3
3
3
3
3
1.04985
1.44784
2.63737
2.99907
2.99994
2.99999
2.99999
3
3
3
3
3
2.99994
2.99988
2.99991
3
3
3
3
3
3
3
3
1.05035
2.30734
2.99761
2.99999
2.99997
3
3
3
3
3
3
3
3
3
3
3
3
3
3
3
3
3
3
1.05093
2.44318
2.9864
3
3
3
2.99999
3
3
3
3
3
3
3
3
3
3
3
3
3
3
3
3
1.04196
2.46916
2.94648
3
3
3
2.99999
3
3
3
3
3
3
3
3
3
3
3
3
3
3
3
3
1.23542
2.69505
2.96282
3
3
2.99999
2.99999
3
3
3
3
3
3
3
3
3
3
3
3
3
3
3
3
2.63526
2.95799
2.99314
3
3
2.99999
3
3
3
3
3
3
3
3
3
3
3
3
3
3
3
3
3
2.89804
2.98717
3
3
3
3
3
3
3
3
3
3
3
3
3
3
3
3
3
3
3
3
3
2.99527
2.99958
3
3
3
3
3
3
3
3
3
3
3
3
3
3
3
3
3
3
3
3
3
2.99999
2.99999
2.99999
3
3
3
3
3
3
3
3
3
3
3
3
3
3
3
3
3
3
3
3
3
3
2.99999
3
3
3
3
3
3
3
3
3
3
3
3
3
3
3
3
3
3
3
3
2.99998
3
3
3
3
3
3
3
3
3
3
3
3
3
3
3
3
3
3
3
3
3
3
2.99998
3
3
3
3
3
3
3
3
3
3
3
3
3
3
3
3
3
3
3
3
3
3
2.99998
3
3
3
3
3
3
3
3
3
3
3
3
3
3
3
3
3
3
3
3
3
3
2.99173
3
2.99999
2.99996
2.99999
3
3
3
3
3
3
3
3
3
3
3
3
3
3
3
3
3
3
2.98656
2.99887
2.99916
2.9998
3
3
3
3
3
3
3
3
3
3
3
3
3
3
3
3
3
3
3
2.95073
2.93571
2.98014
3
3
3
3
3
3
3
3
3
3
3
3
3
3
3
3
3
3
3
3
2.89023
2.89371
2.97821
3
3
3
3
3
3
3
3
3
3
3
3
3
3
3
3
3
3
3
3
2.88897
2.94742
2.99642
3
3
3
3
3
3
3
3
3
3
3
3
3
3
3
3
3
3
3
3
2.94624
2.99906
3
3
3
3
3
3
3
3
3
3
3
3
3
3
3
3
3
3
3
3
3
3
3
3
3
3
3
3
3
3
3
3
3
3
3
3
3
3
3
3
3
3
3
3
3
3
3
3
3
3
3
3
3
3
3
3
3
3
3
3
3
3
3
3
3
3
3
3
3
3
3
3
3
3
3
3
3
3
3
3
3
3
3
3
3
3
3
3
3
3
3
3
3
3
3
3
3
3
3
3
3
3
3
3
3
3
3
3
3
3
3
3
3
3
3
3
3
3
3
3
3
3
3
3
3
3
3
3
3
3
3
3
3
3
3
3
3
3
3
3
3
2.99999
2.99999
3
3
3
3
3
3
3
3
3
3
3
3
3
3
3
3
3
3
3
3
3
2.99999
2.99999
3
3
3
3
3
3
3
3
3
3
3
3
3
3
3
3
2.99998
2.99999
2.99999
2.99999
2.99999
2.99999
3
3
3
3
3
3
3
3
3
3
3
3
3
3
3
3
3
0.486545
0.481268
0.219692
0.00136235
0.00647794
0.00740096
0.0103869
0.0288428
0.260004
0.333058
0.407803
0.563456
0.976822
0.995994
1.00478
1.01446
1.00238
1.00229
1.00586
1.00862
0.998477
1.03699
1.1504
1.21997
1.73042
2.04236
2.37967
2.56865
2.9486
2.94707
2.96681
2.98004
2.99734
2.99651
2.99606
2.9963
2.9999
2.99923
2.99959
2.99991
2.99939
2.99923
2.99923
2.99928
2.99995
2.99978
2.99929
2.99929
2.99957
2.99956
2.99969
2.99982
2.99957
2.99957
2.99958
2.99958
3
3
3
3
3
3
3
3
3
3
3
3
3
3
3
3
3
3
3
3
3
3
3
3
3
3
3
3
3
3
3
3
3
3
3
3
3
3
3
3
3
3
3
3
3
3
3
3
3
3
3
3
3
3
3
3
3
3
3
3
3
3
3
3
3
3
3
3
3
3
3
3
3
3
3
3
3
3
3
3
3
3
3
3
3
3
3
3
3
3
3
3
3
3
3
3
3
3
3
3
3
3
3
3
3
3
3
3
3
3
3
3
0.00124532
0.00110455
0.00109595
0.000788456
0.000789981
0.195106
0.836875
0.904877
0.718848
0.161355
0.0900676
0.226078
0.374725
0.640519
0.874095
0.779411
0.214299
0.131993
0.16635
0.0863258
0.146225
0.132733
0.0253857
0.000862201
0.269447
1.01665
1.06487
1.02162
0.243495
0.097563
0.298771
0.740132
0.956509
1.14256
0.670839
0.434642
0.309734
0.120536
0.681399
0.679349
0.512605
0.268028
0.0651515
0.0649655
0.478301
0.975763
0.894679
0.327523
0.114762
0.110518
0.479129
0.964863
0.924419
0.80258
0.82713
0.753207
0.227382
1.07751
1.15714
1.16989
0.95278
0.657223
0.437557
0.454786
0.461237
0.375532
0.29323
0.429415
0.642028
0.628227
0.731988
0.81463
0.804919
1.03661
1.26337
0.929895
1.00781
1.01069
1.06192
1.08992
1.03043
1.03777
1.15417
1.25057
1.2503
1.499
1.75776
1.77334
1.55592
1.32063
1.16988
1.03926
1.18909
1.39523
1.78718
1.21871
1.04569
1.0138
1.01378
1.03266
1.20096
1.63164
2.18165
2.50821
2.6946
2.74633
2.64151
2.60381
2.54998
2.5188
2.37784
2.19566
1.9829
2.25349
2.55914
1.78647
1.21546
1.50226
2.28559
2.77592
2.97196
2.99735
2.9994
2.99948
2.99948
2.99962
2.99982
2.99982
2.99987
2.99996
2.99905
2.9571
2.92583
2.98427
2.9087
2.72031
2.95407
2.99695
2.9984
2.99993
2.99997
2.99964
2.99935
2.99937
2.9997
2.99987
2.99978
2.99978
2.99992
2.99999
3
3
2.9978
2.99818
2.9983
2.99902
2.99948
2.99999
2.99999
2.99999
2.99994
2.99989
2.99998
2.99999
2.99998
2.99985
2.99984
2.99986
3
3
3
2.99991
2.99972
2.99967
2.99996
2.99997
2.99997
2.99989
2.99961
2.99925
2.99921
2.99958
2.99998
2.99998
2.99991
2.99988
2.99986
2.99997
3
3
2.99929
2.99944
2.99996
2.99997
2.99992
2.99949
2.99913
2.99906
2.99906
2.9991
2.99926
2.99989
2.9999
2.99937
2.99978
2.99986
2.99996
3
3
2.9993
2.99969
2.99996
2.99996
2.99984
2.99936
2.99913
2.99908
2.9991
2.99938
2.99942
2.99937
2.99936
2.99928
2.99933
2.99993
2.99999
3
3
2.99983
2.99986
2.99986
2.99987
2.9999
2.99995
2.99996
2.99988
2.9999
3
2.99999
2.99942
2.99932
2.99931
2.99929
2.9999
3
3
2.99999
2.9998
2.99991
2.99988
2.9999
2.99999
3
3
3
3
3
3
3
2.99985
2.99997
2.99988
2.99992
3
3
2.99999
3
3
3
3
3
3
3
3
3
3
3
3
3
2.99999
2.99994
2.99997
3
3
2.99999
3
3
3
3
3
3
3
3
3
3
3
3
3
3
3
2.99999
3
3
2.99999
3
3
3
3
3
3
3
3
3
3
3
3
3
3
3
3
3
3
2.99999
3
3
3
3
3
3
3
3
3
3
3
3
3
3
3
3
3
3
2.99999
3
3
3
3
3
3
3
3
3
3
3
3
3
3
3
3
3
3
3
3
3
3
3
3
3
3
3
3
3
3
3
3
3
3
3
3
3
3
3
3
3
3
3
3
3
3
3
3
3
3
3
3
3
3
3
2.99998
3
3
3
3
3
3
3
3
3
3
3
3
3
3
3
3
3
3
2.99998
2.99999
3
3
3
3
3
3
3
3
3
3
3
3
3
3
3
3
3
2.99998
2.99998
3
3
3
3
3
3
3
3
3
3
3
3
3
3
3
3
3
2.99998
3
3
3
3
3
3
3
3
3
3
3
3
3
3
3
3
3
3
3
3
3
3
3
3
3
3
3
3
3
3
3
3
3
3
3
3
3
3
3
3
3
3
3
3
3
3
3
3
3
3
3
3
3
3
3
3
3
3
3
3
3
3
3
3
3
3
3
3
3
3
3
3
3
3
3
3
3
3
3
3
3
3
3
3
3
3
3
3
3
3
3
3
3
3
3
3
3
3
3
3
3
3
3
3
3
3
3
3
3
3
3
3
3
3
3
3
3
3
3
3
3
3
3
3
3
3
3
3
3
3
3
3
3
3
3
3
3
3
3
3
3
3
3
3
3
3
3
3
3
3
3
3
3
3
3
3
3
3
3
3
3
3
3
3
3
3
3
3
3
3
3
3
3
3
3
3
3
3
3
3
3
3
3
3
3
3
3
3
3
3
3
3
3
3
3
3
3
3
3
3
3
3
3
3
3
3
3
3
3
3
3
3
3
3
3
3
3
3
3
3
3
3
3
3
3
3
3
3
3
3
3
3
3
3
3
3
3
3
3
3
3
3
3
3
3
3
3
3
3
3
3
3
3
3
3
3
3
3
3
3
3
3
3
3
3
3
3
3
3
3
3
3
3
3
3
3
3
3
3
3
3
3
3
3
3
3
3
3
3
3
3
3
3
3
3
3
3
3
3
3
3
3
3
3
3
3
3
3
3
3
3
3
3
3
3
3
3
3
3
3
3
3
3
3
3
3
3
3
3
3
3
3
3
3
3
3
3
3
3
3
3
3
3
)
;

boundaryField
{
    leftWall
    {
        type            calculated;
        value           nonuniform List<scalar> 
50
(
2
2
2
1.99999
1.99972
1.99982
1.26125
0.110146
0.0685452
0.821299
1.45678
1.35491
1.0488
1.05035
1.09677
1.16592
1.15807
1.07515
1.07679
1.09804
1.04951
1.04281
1.04857
1.04985
1.05035
1.05093
1.04196
1.23542
2.63526
2.89804
2.99527
2.99999
3
2.99998
2.99998
2.99998
2.99173
2.98656
2.95073
2.89023
2.88897
2.94624
3
3
3
3
3
3
3
2.99998
)
;
    }
    rightWall
    {
        type            calculated;
        value           nonuniform List<scalar> 
50
(
1.94666
1.72753
1.42887
0.554429
0.294392
0.292767
0.346492
0.345155
0.16635
0.120536
0.227382
0.929895
1.78718
2.25349
2.92583
3
3
3
3
3
2.99999
2.99999
2.99999
2.99999
2.99999
2.99999
3
3
3
2.99999
2.99998
3
3
3
3
3
3
3
3
3
3
3
3
3
3
3
3
3
3
3
)
;
    }
    lowerWall
    {
        type            calculated;
        value           nonuniform List<scalar> 
62
(
2
2
2
2
2
2
2
2
2
2
2
2
2
2
2
2
2
2
2
2
2
1.99995
1.99994
1.99994
1.99996
2
2.00003
1.97076
0.900328
0.0835651
0.198906
0.486545
0.481268
0.219692
0.00136235
1.84425
1.82573
0.912031
0.418713
0.398448
0.507024
0.510239
0.347165
1.84425
1.88878
1.88912
1.89471
1.90441
1.91521
1.93255
1.93258
1.9322
1.92499
1.91864
1.92275
1.92469
1.93605
1.9357
1.93291
1.93772
1.94511
1.94666
)
;
    }
    atmosphere
    {
        type            calculated;
        value           nonuniform List<scalar> 
46
(
2.99998
2.99999
2.99999
2.99999
2.99999
2.99999
3
3
3
3
3
3
3
3
3
3
3
3
3
3
3
3
3
3
3
3
3
3
3
3
3
3
3
3
3
3
3
3
3
3
3
3
3
3
3
3
)
;
    }
    defaultFaces
    {
        type            empty;
    }
}


// ************************************************************************* //
