/*--------------------------------*- C++ -*----------------------------------*\
| =========                 |                                                 |
| \\      /  F ield         | OpenFOAM: The Open Source CFD Toolbox           |
|  \\    /   O peration     | Version:  2312                                  |
|   \\  /    A nd           | Website:  www.openfoam.com                      |
|    \\/     M anipulation  |                                                 |
\*---------------------------------------------------------------------------*/
FoamFile
{
    version     2.0;
    format      ascii;
    arch        "LSB;label=32;scalar=64";
    class       volScalarField;
    location    "2.25";
    object      p_rgh;
}
// * * * * * * * * * * * * * * * * * * * * * * * * * * * * * * * * * * * * * //

dimensions      [1 -1 -2 0 0 0 0];

internalField   nonuniform List<scalar> 
2268
(
6382.84
6382.67
6376.67
6361.92
6332.95
6287.58
6226.01
6150.76
6064.89
5970.8
5870.86
5768.37
5666.64
5568.32
5476.14
5394.23
5327.74
5279.07
5247.89
5228.59
5217.94
5210.18
5206.71
6368.79
6373.8
6374.7
6363.45
6336.12
6291.21
6229.19
6153.23
6066.66
5971.83
5871.02
5767.7
5665.24
5566.19
5473.03
5389.95
5322.92
5274.45
5244.9
5226.67
5216.89
5208.95
5205.25
6350.5
6363.32
6372.89
6367.17
6342.78
6298.79
6235.8
6158.25
6070.28
5973.99
5871.45
5766.34
5662.35
5561.74
5466.49
5380.86
5312.69
5265.23
5238.17
5222.68
5214.65
5206.41
5202.64
6326.4
6349.87
6370.85
6373.11
6353.27
6310.7
6245.98
6165.83
6075.61
5977.01
5871.72
5763.95
5657.83
5555.24
5457
5367.25
5297.25
5251.5
5228.45
5217.35
5212.1
5202.89
5198.62
6293.14
6331.07
6367.36
6380.06
6366.96
6327.26
6259.6
6175.67
6082.44
5981.18
5872.24
5760.81
5651.85
5546.82
5443.96
5346.35
5264.27
5193.89
5170.56
5181.3
5203.69
5176.8
5148.16
6249.62
6285.74
6350.1
6389.2
6385.68
6348.9
6278.15
6189.13
6090.53
5940.57
5699.21
5357.09
4925.22
4443.98
3906.12
3339.87
2964.03
2848.41
2863.04
2955.49
3034.86
3079.4
3162.1
4573.03
5093.59
5524.35
5717.97
5724.43
5555.63
5168.62
4569.22
3869.02
3211.32
2568.4
2034.87
1683.76
1473.79
1358.36
1316.33
1293.44
1273.33
1278.79
1249.44
1228.63
1221.53
1350.47
1512.99
1714.2
2023.39
2136.19
2174.28
2049.23
1589.73
1385.62
1322.96
1305.53
1303.33
1303.44
1303.81
1301.02
1293.79
1289.14
1243.22
1204.67
1201.73
1210.57
1252.21
1219.81
1157.03
2735.12
2754.48
2810.1
2875.69
2962.4
3067.18
3131.47
3143.94
3110.49
3001.09
2875.87
2785.44
2725.24
2761.63
2834.93
2870.89
2860.96
2842.53
2809.39
2714.53
2709.43
2766.9
2837.45
2908.93
3044.28
3125.65
3156.2
3094.49
2897.33
2719.77
2645.02
2578.52
2624.8
2728.13
2787.21
2797.14
2778.75
2618.14
1887.41
1894.43
2022.34
2228.64
2426.48
2537.28
2614.61
2624.85
2642.76
2564.94
2380.44
2101.42
1897.58
1946.42
2128.07
2193.46
2213.05
2159.89
2234.8
1342.4
1347.64
1349.1
1350.03
1563.77
1730.68
1985.69
2362.1
2304.27
1980.72
1620.29
1473.98
1447.29
1398.96
1601.38
1827.46
1647.41
1259.55
1226.74
1181.84
1266.96
1302.06
1204.7
1200.56
1540.55
1568.95
1550.45
1483.06
1505.24
1477.51
1458.79
1401.77
1234.63
1089.23
1058.47
1089.24
1085.33
1053.52
1048.3
1023.28
1069.02
1066.38
995.113
986.045
1109.2
1270.22
1422.95
1426.54
1457.5
1436.86
1332.94
1250.94
1092.99
1069.13
1066.28
1063.13
1046.21
1050.25
1056.35
1040.52
1075.46
1069.11
1025.31
1014.58
1132.91
1259.21
1358.84
1318.95
1020.25
991.658
1041.26
1123.64
1085.69
1061.5
969.269
1037.88
1085.47
1127.68
1111.33
1092.87
1068.21
1021.78
970.68
930.747
1249.6
1139.58
961.546
1019.43
1035.11
1053.46
1090.61
1041.43
947.461
1015.21
1045.6
1251.42
1266.01
1272.14
1280.15
1284.32
1291.81
1302.17
1308.19
1306.31
1304.17
1302.93
1302.36
1301.02
1297.71
1303.71
1240.21
1233.14
1223.76
1229.2
1231.61
1209.09
1167.13
1066.31
1043.44
1137.47
1272.19
1284.38
1299.02
1301.73
1302.24
1302.39
1305.4
1306.29
1305.49
1304.37
1302.03
1295.93
1263.75
1172.64
1187.84
1269.06
1249.76
1227.79
1201.25
1182.3
1169.55
851.466
863.097
994.085
1121.84
1156.35
1226.57
1246.49
1247.36
1250.28
1246.15
1275.39
1307.64
1304.35
1299.68
1260.3
1229.82
1240.25
1265.8
1223.93
1151.2
1111.82
1066.34
1075.09
848.031
809.621
836.031
893.626
910.058
941.21
957.961
962.521
1005.88
1079.56
1158.52
1201.35
1278.43
1297.86
1280.88
1255.59
1221.5
1117.12
890.873
848.652
835.364
784.76
767.702
892.838
777.04
794.059
870.227
893.452
901.113
900.18
893.37
880.396
863.145
852.411
871.657
891.591
928.052
1005.22
1053.81
963.298
790.38
778.532
800.261
783.978
770.811
758.994
870.406
794.151
707.182
832.989
891.155
898.696
901.03
897.446
888.939
878.681
858.612
796.143
768.144
796.772
805.822
790.429
758.264
753.884
754.067
774.041
763.875
756.033
753.698
855.904
523.728
508.475
779.177
892.242
902.28
905.697
903.281
879.103
869.118
877.997
855.907
836.331
832.678
822.77
811.047
789.404
753.062
754.914
771.49
763.622
788.665
839.224
868.295
375.025
354.598
481.479
820.218
841.131
886.06
896.322
888.27
884.174
891.154
877.552
862.858
848.912
835.154
820.355
804.705
773.439
763.526
766.075
707.724
599.702
463.248
939.761
476.05
353.968
350.296
497.687
904.819
925.442
921.51
912.621
911.277
900.508
886.595
873.702
861.411
847.176
829.114
793.622
735.167
554.414
342.088
221.116
168.818
62.6037
1055.81
799.437
483.7
549.537
854.348
953.802
946.702
940.157
932.554
920.327
908.325
896.413
883.379
874.513
832.513
482.606
200.345
103.749
64.6962
18.0859
6.52585
0.235436
0.312797
1137.31
1176.43
1112.2
992.464
971.153
963.306
970.251
999.985
1096.88
905.537
757.086
594.387
329.91
146.416
31.9335
4.92158
1.41746
0.405222
0.331694
0.274263
0.177204
0.184542
0.235161
1147.03
977.239
970.457
794.219
632.762
520.932
407.154
260.512
144.521
63.8242
24.9012
3.80583
0.209335
0.156987
0.11005
0.299135
0.696203
0.773015
0.787636
0.370925
0.252366
0.254401
0.238784
1119.1
858.781
367.904
176.229
29.4695
7.50517
2.97207
2.64934
0.262795
0.157792
0.106697
0.109917
0.141166
0.175436
0.182594
0.172183
0.161218
0.242836
0.425527
0.613272
0.549505
0.532262
0.411432
1116.88
931.244
351.953
65.939
0.82042
0.957887
0.354179
0.268477
0.199877
0.17656
0.13384
0.150017
0.155157
0.131595
0.132991
0.163569
0.169968
0.1429
0.129336
0.147597
0.160857
0.169663
0.220986
1145.55
1125.39
356.477
4.01484
0.523767
0.357695
0.255824
0.162227
0.111789
0.0964225
0.126765
0.198352
0.197814
0.198162
0.112298
0.100335
0.10638
0.113192
0.122019
0.133363
0.144485
0.154392
0.160063
1193.82
940.999
220.683
1.26228
0.421248
0.242693
0.158107
0.0959597
0.0762627
0.0789211
0.0782756
0.0799511
0.116577
0.149586
0.140926
0.0931746
0.098214
0.105611
0.113392
0.122413
0.13201
0.140527
0.146471
1248.13
437.851
1.55406
0.0560993
0.145939
0.108111
0.0753534
0.0512704
0.0467612
0.0474083
0.0555699
0.0591203
0.0623004
0.067436
0.0733023
0.0822298
0.0893465
0.096948
0.104641
0.1127
0.121034
0.128633
0.134878
1306.66
410.512
17.3136
-0.146658
-0.066932
0.0243726
0.00990665
0.0130825
0.017289
0.0241943
0.031602
0.0390793
0.0464681
0.0541417
0.0623198
0.070636
0.0791033
0.0870686
0.0950953
0.103142
0.110981
0.118271
0.124684
1391.35
427.806
66.939
-0.162323
-0.077696
-0.0285397
-0.0307121
-0.019875
-0.00679113
0.00412453
0.0143557
0.024079
0.0333256
0.0423427
0.0513166
0.0602025
0.0689017
0.0774572
0.0857979
0.0938775
0.101579
0.108753
0.115281
1362.74
284.647
51.8906
-0.191023
-0.0997867
-0.0663728
-0.058745
-0.0437068
-0.0281202
-0.0145353
-0.00202602
0.00964492
0.0205096
0.0307975
0.0406676
0.0501908
0.0593906
0.0682651
0.0767896
0.0849189
0.0925948
0.0997593
0.106364
346.991
53.6722
10.6471
-0.301634
-0.156793
-0.10186
-0.0840851
-0.0646744
-0.0473696
-0.0320122
-0.0174152
-0.00398389
0.00832487
0.0197538
0.0304892
0.040644
0.0502824
0.0594338
0.0681062
0.0762934
0.083982
0.0911595
0.0978169
139.591
16.8388
-0.552899
-0.364618
-0.209052
-0.134397
-0.108007
-0.0849705
-0.0661711
-0.048221
-0.0316151
-0.0166227
-0.00303539
0.00941295
0.0209177
0.0316177
0.0416238
0.0510041
0.0598024
0.0680461
0.0757529
0.0829426
0.0896215
5.31198
-0.207738
-0.513225
-0.36481
-0.242421
-0.162933
-0.129089
-0.105492
-0.0830976
-0.0626092
-0.0443565
-0.0280341
-0.0133669
-2.69721e-05
0.0121145
0.023237
0.0335282
0.0430797
0.0519657
0.0602416
0.0679495
0.0751268
0.0817943
-0.606299
-0.569047
-0.472103
-0.35882
-0.256578
-0.185768
-0.146801
-0.122726
-0.0969709
-0.0747393
-0.0554181
-0.0378594
-0.0222958
-0.00835307
0.00422287
0.0156214
0.0260952
0.0357446
0.0446657
0.0529336
0.0606078
0.0677402
0.0743575
-0.506714
-0.49309
-0.432104
-0.349141
-0.262294
-0.203365
-0.162459
-0.133458
-0.107199
-0.0840037
-0.0636586
-0.0456452
-0.0296699
-0.0154222
-0.00262729
0.00885932
0.0194074
0.0290668
0.0379548
0.0461611
0.0537565
0.0608004
0.0673264
-0.45885
-0.467685
-0.414144
-0.343197
-0.267629
-0.213098
-0.170929
-0.140574
-0.113656
-0.0900018
-0.0694128
-0.0513399
-0.0353606
-0.0211373
-0.00839979
0.0030787
0.013534
0.0230932
0.0318674
0.0399487
0.047412
0.0543225
0.0607133
-0.460145
-0.465728
-0.411115
-0.335093
-0.273673
-0.214551
-0.172969
-0.140887
-0.115794
-0.0924806
-0.0724173
-0.0548657
-0.0393249
-0.0254568
-0.0130053
-0.00175302
0.0084856
0.0178407
0.0264177
0.0343063
0.0415818
0.0483085
0.0545222
-0.466019
-0.459694
-0.40496
-0.327851
-0.269955
-0.210225
-0.167436
-0.136301
-0.111933
-0.0910387
-0.0726402
-0.0562931
-0.0416382
-0.0284378
-0.0164905
-0.0056419
0.00425348
0.0133039
0.0216025
0.0292316
0.0362622
0.0427578
0.0487499
7.82478
-0.431417
-0.364602
-0.258886
-0.235406
-0.191067
-0.152368
-0.12522
-0.104365
-0.0865582
-0.0705639
-0.0559474
-0.0425222
-0.0302325
-0.0189451
-0.00864257
0.00080099
0.00945826
0.017404
0.0247102
0.0314416
0.0376564
0.0433862
13.4964
0.842488
0.998788
0.0388957
-0.202878
-0.158347
-0.130605
-0.110591
-0.0945991
-0.0803398
-0.0670251
-0.0543453
-0.0422874
-0.0310155
-0.020527
-0.010845
-0.00192947
0.00626355
0.0137923
0.0207186
0.0271004
0.0329926
0.0384199
84.9806
109.915
30.6692
-0.20423
-0.145166
-0.121569
-0.107066
-0.0950296
-0.084287
-0.0735421
-0.0628882
-0.0520252
-0.0412173
-0.0310114
-0.0213527
-0.0123376
-0.00400296
0.00367031
0.0107281
0.0172247
0.0232126
0.0287402
0.0338324
198.585
193.441
34.5195
-0.0862745
-0.07861
-0.085022
-0.0841574
-0.0801989
-0.0744796
-0.0669018
-0.0583799
-0.049213
-0.0397317
-0.0304286
-0.021536
-0.0132028
-0.00548601
0.00162304
0.00816481
0.0141891
0.0197437
0.024874
0.0295974
209.116
93.5765
5.68066
0.0181221
-0.0303077
-0.0562851
-0.0639976
-0.0675214
-0.0657924
-0.0607917
-0.0538388
-0.0459948
-0.0376352
-0.0292387
-0.0211273
-0.0135039
-0.00644211
6.28705e-05
0.00604975
0.0115655
0.0166539
0.0213535
0.025682
97.4711
1.61153
0.0935187
0.0344813
-0.0184919
-0.036292
-0.0507114
-0.0576748
-0.0582178
-0.0548817
-0.0489858
-0.042188
-0.0349464
-0.0274747
-0.0201722
-0.0132999
-0.00693506
-0.00107228
0.00432622
0.00930372
0.0138988
0.0181465
0.022055
-0.0729237
0.0699237
0.040281
-0.000243054
-0.011877
-0.0289201
-0.0434315
-0.0502644
-0.0515795
-0.0488836
-0.0426118
-0.0375366
-0.031758
-0.0251774
-0.0187254
-0.0126544
-0.00703151
-0.00184673
0.00293518
0.00735143
0.0114338
0.0152083
0.018683
-0.00553682
-0.0137558
-0.0292327
-0.00824679
-0.0145868
-0.0288224
-0.0390111
-0.0441402
-0.0454823
-0.0419112
-0.0370017
-0.0327001
-0.0280668
-0.0224062
-0.0168566
-0.0116388
-0.00680029
-0.00232434
0.00181932
0.00565802
0.00921367
0.0125055
0.0155316
-0.0558099
-0.0634831
-0.028974
-0.0158454
-0.0214792
-0.0294815
-0.0352254
-0.0385064
-0.0388014
-0.0351135
-0.0312967
-0.0281253
-0.0240054
-0.0192533
-0.0146482
-0.0103285
-0.00630702
-0.0025622
0.000927888
0.00417828
0.00719882
0.00999592
0.0125668
-0.0607053
-0.0404125
-0.0281938
-0.0227101
-0.0249168
-0.0284384
-0.0315193
-0.0326928
-0.0308416
-0.0285577
-0.0255404
-0.023334
-0.0196411
-0.0158223
-0.0121942
-0.00879556
-0.0056074
-0.00260564
0.000222062
0.00287748
0.00535723
0.00765944
0.009767
-0.0205771
-0.0210904
-0.0232944
-0.0229115
-0.0245621
-0.0256939
-0.020671
-0.0224917
-0.0235939
-0.0219238
-0.0205448
-0.0180741
-0.0150807
-0.0122395
-0.00959477
-0.00711455
-0.00475625
-0.00249588
-0.000330997
0.00172812
0.00366652
0.0054686
0.00711512
-0.0130236
-0.0131145
-0.0191324
-0.0205885
-0.0217505
-0.012884
-0.00820367
-0.0132579
-0.0182387
-0.0166806
-0.014786
-0.0126113
-0.0105609
-0.00870172
-0.00700454
-0.00539929
-0.00383313
-0.00228702
-0.000768033
0.000703575
0.00210339
0.00341029
0.00459227
-0.0136645
-0.0127157
-0.0155841
-0.0175382
-0.0127204
-0.00353967
-0.00128605
-0.0103222
-0.0113266
-0.0100245
-0.00864989
-0.0073505
-0.0062556
-0.00531916
-0.00449152
-0.00369563
-0.00287245
-0.00200566
-0.00110935
-0.000211185
0.000657465
0.00146559
0.00218088
0.00250932
-0.00171253
-0.00479684
-0.00375614
0.000164899
-1.77433e-05
-0.00472714
-0.00529
-0.0041023
-0.00308102
-0.00233184
-0.00186269
-0.0017789
-0.00185736
-0.00196732
-0.00199855
-0.00190287
-0.00168779
-0.00138692
-0.00104066
-0.000689396
-0.000370481
-0.000129071
1041.81
1037.77
1090.63
1146.33
1161.48
1157.45
1158.4
1152.55
1063.22
1030.31
1050.98
1029.99
756.322
746.595
779.574
787.401
760.996
766.652
810.159
841.588
818.542
916.367
981.781
953.634
829.857
724.042
609.61
542.388
398.702
410.599
409.572
401.533
56.4327
75.0213
81.5186
77.32
0.380012
0.732051
0.521409
0.985622
0.649991
0.791376
0.800081
0.721974
0.267692
0.381717
0.693224
0.678056
0.424824
0.431087
0.377349
0.317872
0.409447
0.410434
0.413647
0.450723
0.160737
0.161138
0.161567
0.162276
0.149079
0.150545
0.151948
0.153385
0.138477
0.140601
0.142616
0.144551
0.128764
0.131247
0.133612
0.135868
0.119614
0.122283
0.124849
0.127305
0.110836
0.11361
0.116287
0.118859
0.102364
0.105191
0.107926
0.110561
0.0941991
0.0970493
0.0998057
0.102466
0.0863695
0.0892158
0.0919663
0.094622
0.0788975
0.0817202
0.0844427
0.087071
0.0718003
0.0745777
0.0772534
0.0798346
0.0650892
0.0678037
0.0704145
0.0729325
0.0587718
0.0614039
0.0639332
0.0663704
0.0528444
0.0553785
0.0578094
0.0601516
0.0472983
0.0497169
0.0520364
0.0542685
0.0421245
0.0444152
0.0466092
0.0487224
0.0373075
0.0394544
0.0415112
0.0434909
0.0328222
0.0348138
0.0367166
0.038549
0.0286365
0.0304585
0.0321991
0.033871
0.0247236
0.0263694
0.0279356
0.0294406
0.021054
0.0225132
0.0239013
0.0252309
0.0175965
0.0188665
0.0200678
0.0212193
0.0143167
0.0153894
0.0164049
0.0173735
0.011196
0.0120714
0.0128932
0.0136769
0.00822051
0.00889172
0.0095216
0.010116
0.00537412
0.00584301
0.00627306
0.00667598
0.00263078
0.00288903
0.00312099
0.00332711
-2.43318e-05
1.42861e-05
2.6812e-05
1.90678e-05
1140.37
1125.45
1110.55
1090.82
1064.12
991.726
815.987
843.57
999.473
1075.22
1105.35
1083.98
1098.61
1079.9
1006.15
886.07
989.503
1038.31
1085.95
1144.35
1136.81
1125.95
1095.8
1069.56
979.282
759.25
750.053
736.058
1132.12
1255.34
1235.33
1095.77
1032.83
780.921
833.026
935.939
1069.04
1105.48
991.578
975.924
1025.67
1041.24
1066.76
1056.95
922.583
750.541
762.579
964.71
1003.36
1032.68
994.492
817.626
722.606
743.154
856.903
950.463
1174.96
794.913
765.564
732.175
736.58
846.477
939.652
960.508
960.676
968.348
958.573
882.407
787.721
818.096
833.636
754.589
730.1
752.563
785.844
940.183
819.823
759.304
700.902
641.445
640.121
636.526
727.682
789.983
771.98
609.907
492.886
439.612
474.494
567.479
656.91
647.653
660.377
685.532
691.975
942.832
790.1
671.829
658.221
636.978
603.684
587.004
457.602
353.233
233.631
150.493
141.71
150.348
173.03
239.502
285.741
303.616
365.499
555.749
537.335
618.596
610.238
514.137
321.467
180.955
104.44
48.5304
8.37828
0.822846
0.793428
0.705491
0.593028
0.575687
0.544434
0.671596
0.982004
19.3834
175.376
316.216
150.956
104.076
41.88
42.8023
23.018
0.467432
0.491128
0.694056
0.839941
0.837738
0.655072
0.539269
0.560015
0.535934
0.431966
0.372591
0.250497
0.271451
47.8598
38.2735
18.607
1.73121
0.688306
0.379799
0.395473
0.459336
0.563214
0.662203
0.569637
0.530193
0.461143
0.497702
0.469904
0.418587
0.356962
0.26945
0.284035
1.04033
0.408626
0.397911
0.287229
0.318252
0.327482
0.406325
0.637762
1.09405
1.21083
1.05465
0.482524
0.432688
0.451785
0.427749
0.400451
0.33396
0.263513
0.270944
0.643683
0.552154
0.246612
0.28925
0.38141
0.634142
0.784127
0.790446
0.883877
1.25141
1.17623
0.555477
0.485804
1.07647
0.502446
0.374962
0.301874
0.256117
0.253465
0.659659
0.402151
0.272139
0.349456
0.441367
0.706981
0.806143
0.736342
0.726653
0.674366
0.977857
1.15386
1.12036
1.23744
1.06192
0.312284
0.267694
0.244937
0.242674
0.337373
0.351188
0.365437
0.359469
0.312741
0.281203
0.250423
0.308079
0.29527
0.234408
0.242535
1.05139
1.22759
1.21781
1.22983
0.364272
0.238606
0.233369
0.238895
0.399247
0.353328
0.367096
0.275828
0.204529
0.201979
0.20848
0.214019
0.218113
0.220713
0.219656
0.210928
0.43284
0.299144
0.57358
0.316652
0.218061
0.222461
0.230739
0.16404
0.167292
0.173842
0.179906
0.187056
0.193158
0.198906
0.203928
0.207795
0.21011
0.209938
0.205943
0.196211
0.191156
0.224615
0.26249
0.208263
0.214494
0.222926
0.156016
0.160174
0.16512
0.171751
0.178216
0.184173
0.189618
0.194365
0.198249
0.20121
0.202597
0.201271
0.195712
0.190864
0.190231
0.205344
0.204511
0.208936
0.216435
0.14778
0.152573
0.157794
0.163705
0.169672
0.17531
0.180496
0.185086
0.189258
0.192751
0.195168
0.195116
0.193079
0.19191
0.193196
0.197148
0.200754
0.203354
0.210047
0.139539
0.144721
0.150068
0.155643
0.161213
0.166547
0.1715
0.175974
0.180444
0.18398
0.186582
0.187299
0.187873
0.188526
0.190204
0.192717
0.19462
0.195921
0.202017
0.131278
0.136702
0.142103
0.147496
0.152784
0.157853
0.162599
0.166938
0.171032
0.174895
0.177277
0.179091
0.180654
0.182077
0.183675
0.185428
0.186673
0.187164
0.187391
0.123017
0.12859
0.134003
0.139272
0.144358
0.149207
0.15375
0.157934
0.161713
0.16517
0.167872
0.170289
0.172274
0.173986
0.175521
0.176858
0.178027
0.178976
0.178332
0.114826
0.120469
0.125864
0.131026
0.135946
0.140603
0.144957
0.148974
0.152605
0.155824
0.158669
0.161171
0.163319
0.165134
0.166606
0.167697
0.170056
0.180594
0.169548
0.106772
0.112427
0.117775
0.12283
0.127601
0.132084
0.136259
0.140105
0.143577
0.146686
0.149473
0.151955
0.154123
0.15594
0.157358
0.158333
0.160832
0.17285
0.169564
0.0989226
0.104538
0.109811
0.114752
0.11938
0.1237
0.127706
0.131375
0.134693
0.137681
0.140372
0.142779
0.144889
0.146654
0.148017
0.148931
0.1507
0.163795
0.163987
0.0913238
0.0968579
0.102029
0.106846
0.111329
0.115492
0.11933
0.12283
0.125997
0.128854
0.131427
0.133726
0.135739
0.137422
0.138728
0.13961
0.140604
0.153647
0.144745
0.0840101
0.0894268
0.0944723
0.0991493
0.103482
0.107485
0.111154
0.114492
0.117511
0.120232
0.122675
0.124849
0.126747
0.128335
0.129584
0.130453
0.131154
0.131296
0.131558
0.0770011
0.0822686
0.0871653
0.0916869
0.0958582
0.0996918
0.103193
0.106374
0.109246
0.111828
0.114137
0.116181
0.117956
0.119445
0.120639
0.12151
0.122216
0.122482
0.122766
0.0703075
0.0753951
0.080123
0.0844695
0.088462
0.0921194
0.0954532
0.0984758
0.101201
0.103645
0.10582
0.107735
0.10939
0.110779
0.111936
0.112788
0.11348
0.113897
0.114156
0.0639303
0.0688053
0.0733529
0.0774979
0.0812968
0.0847704
0.0879314
0.0907938
0.0933714
0.0956777
0.0977238
0.0995144
0.101056
0.102352
0.103586
0.104505
0.105007
0.105469
0.10583
0.0578673
0.0624782
0.0668671
0.0707702
0.0743595
0.0776394
0.0806215
0.0833201
0.0857488
0.0879193
0.08984
0.0915147
0.0929514
0.0941602
0.0954518
0.0965707
0.0969404
0.0972489
0.0978934
0.0521277
0.056492
0.0605685
0.0642639
0.0676399
0.070718
0.0735146
0.0760453
0.0783234
0.080359
0.0821587
0.0837248
0.0850665
0.0861942
0.0872534
0.0885453
0.0892503
0.0894533
0.089839
0.0466854
0.0507429
0.0545365
0.0579856
0.0611319
0.0639976
0.0666015
0.0689596
0.0710849
0.0729857
0.0746669
0.0761301
0.0773843
0.0784401
0.079351
0.0805692
0.0814
0.0818126
0.0819223
0.0415012
0.0452527
0.0487456
0.0519248
0.0548254
0.0574683
0.0598722
0.062053
0.0640223
0.0657869
0.0673502
0.0687132
0.0698839
0.0708726
0.0717197
0.0724759
0.0736706
0.0740827
0.0737457
0.0365639
0.0399989
0.0431737
0.0460665
0.0487086
0.0511193
0.0533166
0.0553148
0.0571237
0.0587488
0.0601922
0.0614549
0.0625428
0.0634655
0.0642546
0.0649204
0.0658795
0.066452
0.0660078
0.0318596
0.0349541
0.0377998
0.0403945
0.0427683
0.0449392
0.0469232
0.0487326
0.0503753
0.0518555
0.0531748
0.0543342
0.0553378
0.0561933
0.0569246
0.0575245
0.0580544
0.058701
0.05853
0.0273685
0.0300968
0.0326048
0.0348934
0.0369916
0.0389155
0.0406791
0.0422921
0.0437611
0.0450893
0.0462785
0.0473296
0.0482455
0.0490316
0.0497034
0.0502519
0.0507165
0.0509989
0.0511691
0.0230666
0.025409
0.0275733
0.0295493
0.0313648
0.0330342
0.0345688
0.0359765
0.0372627
0.0384305
0.0394821
0.0404188
0.0412421
0.0419552
0.0425664
0.0430675
0.0434867
0.0437399
0.0438891
0.0189289
0.0208794
0.0226939
0.0243486
0.0258734
0.0272789
0.0285742
0.0297663
0.0308599
0.0318583
0.0327643
0.0335793
0.034304
0.0349396
0.0354886
0.0359437
0.0363219
0.0365501
0.0367002
0.0149271
0.0165054
0.0179558
0.0192738
0.020499
0.0216303
0.0226755
0.0236413
0.0245327
0.0253534
0.0261061
0.0267924
0.0274123
0.027965
0.0284494
0.0288573
0.0291962
0.0294123
0.0295555
0.0110607
0.0122472
0.0133238
0.0143086
0.0152205
0.0160663
0.0168522
0.0175841
0.018267
0.018904
0.0194979
0.02005
0.0205599
0.0210251
0.021442
0.0218012
0.0221035
0.0223052
0.0224463
0.00730502
0.0080853
0.00878305
0.00942164
0.0100135
0.0105669
0.0110881
0.0115823
0.0120537
0.0125051
0.0129383
0.0133537
0.013751
0.0141264
0.0144744
0.014784
0.01505
0.015241
0.015372
0.00363555
0.00399403
0.00430031
0.00457853
0.00483994
0.00509299
0.00534334
0.00559528
0.00585192
0.00611524
0.00638622
0.00666446
0.00694862
0.00723456
0.00751545
0.0077785
0.00801538
0.00819276
0.00832476
-2.52972e-05
-0.000126252
-0.000244917
-0.000354598
-0.000445442
-0.000510574
-0.000546096
-0.000549315
-0.000518417
-0.000452393
-0.000350832
-0.000214549
-4.51821e-05
0.000153237
0.00037385
0.00060209
0.000828485
0.0010144
0.00120173
)
;

boundaryField
{
    leftWall
    {
        type            fixedFluxPressure;
        gradient        uniform 0;
        value           nonuniform List<scalar> 
50
(
6382.84
6368.79
6350.5
6326.4
6293.14
6249.62
4573.03
1512.99
1251.42
1043.44
851.466
848.031
892.838
870.406
855.904
868.295
939.761
1055.81
1137.31
1147.03
1119.1
1116.88
1145.55
1193.82
1248.13
1306.66
1391.35
1362.74
346.991
139.591
5.31198
-0.606299
-0.506714
-0.45885
-0.460145
-0.466019
7.82478
13.4964
84.9806
198.585
209.116
97.4711
-0.0729237
-0.00553682
-0.0558099
-0.0607053
-0.0205771
-0.0130236
-0.0136645
0.00250932
)
;
    }
    rightWall
    {
        type            fixedFluxPressure;
        gradient        uniform 0;
        value           nonuniform List<scalar> 
50
(
2809.39
2618.14
2234.8
1226.74
1053.52
1046.21
1037.88
1045.6
1085.95
1105.48
1174.96
940.183
691.975
555.749
175.376
0.271451
0.284035
0.270944
0.253465
0.242674
0.238895
0.230739
0.222926
0.216435
0.210047
0.202017
0.187391
0.178332
0.169548
0.169564
0.163987
0.144745
0.131558
0.122766
0.114156
0.10583
0.0978934
0.089839
0.0819223
0.0737457
0.0660078
0.05853
0.0511691
0.0438891
0.0367002
0.0295555
0.0224463
0.015372
0.00832476
0.00120173
)
;
    }
    lowerWall
    {
        type            fixedFluxPressure;
        gradient        uniform 0;
        value           nonuniform List<scalar> 
62
(
6382.84
6382.67
6376.67
6361.92
6332.95
6287.58
6226.01
6150.76
6064.89
5970.8
5870.86
5768.37
5666.64
5568.32
5476.14
5394.23
5327.74
5279.07
5247.89
5228.59
5217.94
5210.18
5206.71
5206.71
5205.25
5202.64
5198.62
5148.16
3162.1
1350.47
1157.03
1041.81
1037.77
1090.63
1146.33
2735.12
2714.53
1887.41
1342.4
1181.84
1048.3
1050.25
1085.47
2735.12
2754.48
2810.1
2875.69
2962.4
3067.18
3131.47
3143.94
3110.49
3001.09
2875.87
2785.44
2725.24
2761.63
2834.93
2870.89
2860.96
2842.53
2809.39
)
;
    }
    atmosphere
    {
        type            totalPressure;
        rho             rho;
        psi             none;
        gamma           1;
        p0              uniform 0;
        value           nonuniform List<scalar> 
46
(
0
0
0
0
0
0
0
0
0
0
-3.72357e-05
-0.000242331
-0.00052147
-0.00085025
-0.00117733
-0.00142923
-0.00156506
-0.00158872
-0.00152702
-0.00141557
-0.00128956
-0.00119096
-0.0011737
-0.00123077
-0.00132972
-0.001459
-0.00160823
-0.00188467
-0.0022564
-0.00262413
-0.0029527
-0.00323783
-0.00347686
-0.00366839
-0.003811
-0.00390352
-0.00394528
-0.00393567
-0.00387539
-0.00376496
-0.00360684
-0.0034062
-0.0031783
-0.00293086
-0.00271503
-0.0023769
)
;
    }
    defaultFaces
    {
        type            empty;
    }
}


// ************************************************************************* //
