/*--------------------------------*- C++ -*----------------------------------*\
| =========                 |                                                 |
| \\      /  F ield         | OpenFOAM: The Open Source CFD Toolbox           |
|  \\    /   O peration     | Version:  2312                                  |
|   \\  /    A nd           | Website:  www.openfoam.com                      |
|    \\/     M anipulation  |                                                 |
\*---------------------------------------------------------------------------*/
FoamFile
{
    version     2.0;
    format      ascii;
    arch        "LSB;label=32;scalar=64";
    class       surfaceScalarField;
    location    "2.25";
    object      phi;
}
// * * * * * * * * * * * * * * * * * * * * * * * * * * * * * * * * * * * * * //

dimensions      [0 3 -1 0 0 0 0];

oriented        oriented;

internalField   nonuniform List<scalar> 
4432
(
4.51164e-06
-4.51165e-06
6.98841e-06
-2.47677e-06
8.75536e-06
-1.76695e-06
9.95726e-06
-1.2019e-06
1.0651e-05
-6.93719e-07
1.08755e-05
-2.24537e-07
1.07283e-05
1.47253e-07
1.03558e-05
3.72417e-07
9.85744e-06
4.98404e-07
9.21389e-06
6.43541e-07
8.37926e-06
8.34626e-07
7.39445e-06
9.84808e-07
6.32008e-06
1.07437e-06
5.15358e-06
1.1665e-06
3.88691e-06
1.26666e-06
2.56134e-06
1.32557e-06
1.27192e-06
1.28942e-06
1.75921e-07
1.096e-06
-6.32269e-07
8.08191e-07
-1.01819e-06
3.85917e-07
-9.98078e-07
-2.01067e-08
-7.65028e-07
-2.33049e-07
-7.65028e-07
3.24017e-06
-7.75182e-06
5.85965e-06
-5.09626e-06
7.86183e-06
-3.76913e-06
9.31287e-06
-2.65295e-06
1.01969e-05
-1.57776e-06
1.05206e-05
-5.48182e-07
1.04051e-05
2.62705e-07
1.00495e-05
7.27981e-07
9.58839e-06
9.59556e-07
8.96406e-06
1.26788e-06
8.14353e-06
1.65515e-06
7.17306e-06
1.95528e-06
6.11522e-06
2.13221e-06
4.96153e-06
2.32019e-06
3.69447e-06
2.53372e-06
2.34892e-06
2.67111e-06
1.03883e-06
2.59951e-06
-9.51535e-08
2.22998e-06
-9.13901e-07
1.62694e-06
-1.30637e-06
7.78384e-07
-1.24225e-06
-8.42226e-08
-9.82748e-07
-4.92551e-07
-1.74777e-06
2.53831e-06
-1.02901e-05
5.07541e-06
-7.63337e-06
7.17428e-06
-5.86799e-06
8.75997e-06
-4.23864e-06
9.7548e-06
-2.57259e-06
1.01311e-05
-9.24509e-07
1.00255e-05
3.68368e-07
9.69362e-06
1.05983e-06
9.2956e-06
1.35757e-06
8.76166e-06
1.80182e-06
7.99783e-06
2.41898e-06
7.05724e-06
2.89586e-06
6.02739e-06
3.16207e-06
4.88714e-06
3.46043e-06
3.6085e-06
3.81236e-06
2.23379e-06
4.04582e-06
8.8975e-07
3.94355e-06
-2.4875e-07
3.36848e-06
-1.03493e-06
2.41312e-06
-1.36272e-06
1.10617e-06
-1.21718e-06
-2.29758e-07
-8.52691e-07
-8.57037e-07
-2.60046e-06
2.21297e-06
-1.25031e-05
4.66541e-06
-1.00858e-05
6.79964e-06
-8.00223e-06
8.4797e-06
-5.9187e-06
9.55119e-06
-3.64408e-06
9.94363e-06
-1.31695e-06
9.8074e-06
5.04595e-07
9.52931e-06
1.33793e-06
9.25142e-06
1.63547e-06
8.77872e-06
2.27453e-06
7.98121e-06
3.2165e-06
7.02294e-06
3.85413e-06
6.00688e-06
4.17813e-06
4.90529e-06
4.56203e-06
3.65745e-06
5.0602e-06
2.28952e-06
5.41375e-06
9.53724e-07
5.27934e-06
-1.57504e-07
4.47971e-06
-9.42883e-07
3.1985e-06
-1.23445e-06
1.39774e-06
-1.00175e-06
-4.62459e-07
-5.19807e-07
-1.33898e-06
-3.12027e-06
2.11308e-06
-1.46162e-05
4.60225e-06
-1.2575e-05
6.76318e-06
-1.01632e-05
8.49704e-06
-7.65256e-06
9.66544e-06
-4.81248e-06
1.00729e-05
-1.72437e-06
9.81736e-06
7.60091e-07
9.4536e-06
1.7017e-06
9.19915e-06
1.88991e-06
8.81047e-06
2.66322e-06
7.97987e-06
4.0471e-06
6.88651e-06
4.94749e-06
5.68775e-06
5.37689e-06
4.44979e-06
5.79999e-06
3.12094e-06
6.38905e-06
1.72285e-06
6.81184e-06
4.71553e-07
6.53064e-06
-4.52702e-07
5.40396e-06
-9.30385e-07
3.67618e-06
-1.03372e-06
1.50108e-06
-1.01481e-06
-4.81374e-07
-5.39594e-07
-1.81419e-06
-3.65986e-06
1.92253e-06
-1.65387e-05
4.55266e-06
-1.52051e-05
6.70364e-06
-1.23141e-05
8.33947e-06
-9.28839e-06
9.47624e-06
-5.94925e-06
9.88667e-06
-2.1348e-06
9.28305e-06
1.36371e-06
8.35268e-06
2.63207e-06
7.48043e-06
2.76216e-06
6.76084e-06
3.3828e-06
5.79252e-06
5.01543e-06
4.89204e-06
5.84797e-06
4.02637e-06
6.24256e-06
3.16841e-06
6.65795e-06
2.13219e-06
7.42528e-06
7.36709e-07
8.20733e-06
-7.92068e-07
8.05942e-06
-2.37855e-06
6.99045e-06
-3.30754e-06
4.60517e-06
-3.11898e-06
1.31252e-06
-1.32375e-06
-2.2766e-06
7.60373e-07
-3.89832e-06
-2.89949e-06
1.86638e-06
-1.84051e-05
4.59799e-06
-1.79367e-05
6.461e-06
-1.41771e-05
7.2897e-06
-1.01171e-05
7.43787e-06
-6.09742e-06
7.74404e-06
-2.44096e-06
7.92532e-06
1.18243e-06
7.75754e-06
2.79986e-06
5.48727e-06
5.03243e-06
2.04563e-06
6.82445e-06
-1.33672e-06
8.39778e-06
-4.59943e-06
9.11069e-06
-7.61195e-06
9.25509e-06
-9.80746e-06
8.85347e-06
-1.04275e-05
8.04537e-06
-9.60935e-06
7.38914e-06
-8.74934e-06
7.19942e-06
-7.91335e-06
6.15446e-06
-6.99589e-06
3.68771e-06
-5.70432e-06
2.09439e-08
-2.84779e-06
-5.13313e-06
4.90093e-07
-7.23621e-06
-2.4094e-06
2.14245e-06
-2.05476e-05
4.65149e-06
-2.04458e-05
6.76026e-06
-1.62859e-05
9.26157e-06
-1.26184e-05
9.33947e-06
-6.17532e-06
3.94936e-06
2.94915e-06
-4.0969e-06
9.22869e-06
-1.0494e-05
9.19696e-06
-1.53081e-05
9.84658e-06
-1.90707e-05
1.0587e-05
-2.15839e-05
1.09109e-05
-2.28306e-05
1.03575e-05
-2.26759e-05
9.10039e-06
-2.12899e-05
7.46743e-06
-1.90527e-05
5.80818e-06
-1.75074e-05
5.84385e-06
-1.64532e-05
6.14524e-06
-1.52253e-05
4.92657e-06
-1.39235e-05
2.38594e-06
-1.20616e-05
-1.84095e-06
-1.11446e-05
-6.05013e-06
-1.00722e-05
-8.30869e-06
-1.24816e-05
-7.64016e-07
7.64015e-07
1.77556e-06
-2.53958e-06
3.31238e-06
-1.53682e-06
3.92231e-06
-6.09928e-07
2.97498e-06
9.47325e-07
-9.3023e-07
3.90521e-06
-6.08121e-06
5.15098e-06
-8.53554e-06
2.45433e-06
-7.89683e-06
-6.38718e-07
-7.362e-06
-5.34825e-07
-6.82386e-06
-5.38139e-07
-5.4647e-06
-1.35917e-06
-2.41693e-06
-3.04777e-06
2.90114e-06
-5.31807e-06
7.80461e-06
-4.90348e-06
1.03144e-05
-2.50977e-06
1.02352e-05
7.91844e-08
6.11561e-06
4.11959e-06
6.11561e-06
4.34526e-06
-3.58125e-06
6.6379e-06
-4.83223e-06
8.43934e-06
-3.33826e-06
9.8825e-06
-2.05308e-06
1.04828e-05
3.46989e-07
8.532e-06
5.85604e-06
5.1042e-06
8.57879e-06
1.37421e-06
6.18432e-06
-1.08134e-06
1.81684e-06
-1.41209e-06
-2.04077e-07
6.77238e-07
-2.62747e-06
3.6228e-06
-4.30473e-06
6.03129e-06
-5.45626e-06
9.05834e-06
-8.34511e-06
1.19562e-05
-7.80138e-06
1.30511e-05
-3.60468e-06
1.22731e-05
8.57245e-07
7.51511e-06
8.87756e-06
1.36307e-05
5.40591e-06
-8.98716e-06
6.94755e-06
-6.37386e-06
8.04405e-06
-4.43476e-06
9.17658e-06
-3.18562e-06
1.22217e-05
-2.69809e-06
1.30185e-05
5.05921e-06
1.18738e-05
9.72346e-06
1.03254e-05
7.73277e-06
9.10222e-06
3.04e-06
9.04375e-06
-1.45607e-07
1.06176e-05
-4.20131e-06
1.18429e-05
-5.53007e-06
1.36222e-05
-7.23548e-06
1.52975e-05
-1.00205e-05
1.87082e-05
-1.12121e-05
2.16203e-05
-6.51674e-06
2.0405e-05
2.0725e-06
1.36259e-05
1.56567e-05
2.72566e-05
2.72196e-06
-1.17091e-05
5.72103e-06
-9.37293e-06
7.04034e-06
-5.75407e-06
5.57681e-06
-1.72208e-06
7.84627e-06
-4.96755e-06
1.3309e-05
-4.03491e-07
1.53158e-05
7.71667e-06
1.49474e-05
8.10109e-06
1.50943e-05
2.89316e-06
1.69561e-05
-2.00741e-06
1.82688e-05
-5.51398e-06
1.85458e-05
-5.80708e-06
1.9046e-05
-7.73575e-06
1.77551e-05
-8.7296e-06
1.76609e-05
-1.11179e-05
1.74602e-05
-6.31601e-06
1.47408e-05
4.79189e-06
1.20278e-05
1.83697e-05
3.92844e-05
2.16221e-06
-1.38713e-05
4.3961e-06
-1.16068e-05
7.50486e-06
-8.86283e-06
9.28706e-06
-3.50429e-06
8.56856e-06
-4.24905e-06
1.21464e-05
-3.98129e-06
1.38571e-05
6.00591e-06
1.10933e-05
1.08649e-05
1.18265e-05
2.15998e-06
1.63941e-05
-6.57501e-06
1.90207e-05
-8.14063e-06
1.94359e-05
-6.22231e-06
1.81961e-05
-6.49591e-06
1.71075e-05
-7.64098e-06
9.5928e-06
-3.60321e-06
-4.99032e-08
3.32669e-06
-8.78965e-07
5.62095e-06
4.72698e-06
1.27638e-05
4.40114e-05
2.2169e-07
-1.4093e-05
2.02577e-06
-1.34109e-05
3.78485e-06
-1.06219e-05
9.54536e-06
-9.26479e-06
1.39388e-05
-8.64246e-06
1.43357e-05
-4.37823e-06
1.16221e-05
8.71958e-06
6.0962e-06
1.63908e-05
6.73631e-06
1.51987e-06
1.17295e-05
-1.15682e-05
1.54215e-05
-1.18326e-05
1.32963e-05
-4.09704e-06
7.05737e-06
-2.5702e-07
-4.78055e-07
-1.05549e-07
-4.90804e-06
8.26777e-07
-4.82176e-06
3.24041e-06
-4.03671e-06
4.83591e-06
2.45708e-07
8.48135e-06
4.42571e-05
-4.70846e-06
-9.38454e-06
-5.02145e-06
-1.30979e-05
-3.91145e-06
-1.17319e-05
7.36419e-07
-1.39127e-05
7.43875e-06
-1.53448e-05
1.3472e-05
-1.04114e-05
1.22943e-05
9.89725e-06
3.31654e-06
2.53685e-05
2.82695e-07
4.55372e-06
2.29781e-06
-1.35833e-05
1.05476e-06
-1.05896e-05
-5.23366e-06
2.19139e-06
-7.94466e-06
2.45398e-06
-8.84697e-06
7.96764e-07
-8.4104e-06
3.90211e-07
-6.7471e-06
1.57712e-06
-7.85238e-06
5.94119e-06
-3.7986e-06
4.42758e-06
4.04585e-05
-8.95437e-06
-4.30167e-07
-1.07945e-05
-1.12577e-05
-8.22043e-06
-1.4306e-05
-4.25868e-06
-1.78744e-05
2.61799e-07
-1.98653e-05
4.92611e-06
-1.50757e-05
5.33614e-06
9.48722e-06
-2.25449e-06
3.29592e-05
-1.01409e-05
1.24401e-05
-1.45662e-05
-9.15801e-06
-1.52996e-05
-9.85627e-06
-1.1062e-05
-2.04617e-06
-6.88293e-06
-1.72509e-06
-4.64151e-06
-1.44466e-06
-6.73529e-06
2.48399e-06
-1.08069e-05
5.64876e-06
-1.13336e-05
6.46783e-06
-4.65932e-06
-2.24667e-06
3.57992e-05
5.30096e-06
-2.58485e-05
6.38817e-06
-2.1533e-05
2.34552e-06
-1.22433e-05
-7.98302e-06
-2.28986e-06
-2.13992e-05
7.24086e-06
-3.31194e-05
1.46693e-05
-4.15054e-05
1.76147e-05
-4.93833e-05
1.70748e-05
-5.59245e-05
1.63878e-05
-6.04979e-05
1.51605e-05
-6.22621e-05
1.26751e-05
-6.11919e-05
9.28734e-06
-5.80983e-05
6.00679e-06
-5.42571e-05
3.62623e-06
-5.13529e-05
2.90398e-06
-5.10267e-05
5.5176e-06
-5.03118e-05
5.43039e-06
-4.62652e-05
8.79942e-07
-4.20733e-05
-1.80599e-06
-3.90899e-05
-4.82432e-06
-3.79547e-05
-7.18528e-06
-3.73009e-05
-8.96252e-06
-7.15224e-06
-4.26302e-05
4.19196e-06
-3.00405e-05
-5.30768e-06
-1.20333e-05
-1.23062e-05
-5.24471e-06
-1.82632e-05
3.66707e-06
-2.38859e-05
1.28636e-05
-3.05452e-05
2.13286e-05
-3.88753e-05
2.59448e-05
-4.75755e-05
2.5775e-05
-5.43694e-05
2.31817e-05
-5.93257e-05
2.01167e-05
-6.23965e-05
1.57459e-05
-6.34724e-05
1.03632e-05
-6.32235e-05
5.75795e-06
-6.20092e-05
2.41186e-06
-6.04051e-05
1.29995e-06
-5.74595e-05
2.57196e-06
-5.28017e-05
7.72589e-07
-4.78802e-05
-4.04157e-06
-4.51096e-05
-4.57659e-06
-4.5215e-05
-4.71886e-06
-4.64411e-05
-5.9592e-06
-4.85047e-05
-6.89891e-06
-7.36903e-06
-4.82879e-05
2.55449e-05
-5.55854e-05
1.99582e-05
-6.44666e-06
7.79907e-06
6.91444e-06
-2.04112e-06
1.35073e-05
-1.24939e-05
2.33164e-05
-2.0195e-05
2.90298e-05
-2.79249e-05
3.36747e-05
-3.65231e-05
3.43732e-05
-4.42088e-05
3.08673e-05
-5.12685e-05
2.71764e-05
-5.81176e-05
2.25951e-05
-6.43039e-05
1.65494e-05
-6.79255e-05
9.37962e-06
-6.78368e-05
2.32311e-06
-6.39174e-05
-2.61938e-06
-5.58056e-05
-5.5399e-06
-4.6465e-05
-8.56796e-06
-4.05615e-05
-9.94513e-06
-4.01285e-05
-5.00957e-06
-4.17926e-05
-3.05476e-06
-4.23694e-05
-5.38243e-06
-4.30019e-05
-6.26637e-06
-8.18484e-06
-4.21861e-05
3.11648e-05
-8.67502e-05
4.54366e-05
-2.07185e-05
3.5814e-05
1.6537e-05
2.04047e-05
2.89166e-05
7.7367e-06
3.59844e-05
-2.44088e-06
3.92074e-05
-1.02264e-05
4.14602e-05
-1.72953e-05
4.14421e-05
-2.42696e-05
3.78417e-05
-3.04915e-05
3.33982e-05
-3.76503e-05
2.97539e-05
-4.65935e-05
2.54927e-05
-5.42479e-05
1.7034e-05
-5.75659e-05
5.6411e-06
-5.50402e-05
-5.1451e-06
-4.70689e-05
-1.35112e-05
-3.84512e-05
-1.71856e-05
-3.39504e-05
-1.4446e-05
-3.22048e-05
-6.75515e-06
-2.99736e-05
-5.28598e-06
-2.85309e-05
-6.82513e-06
-2.73964e-05
-7.40087e-06
-8.71311e-06
-2.68681e-05
2.07577e-05
-0.000107508
3.93341e-05
-3.92949e-05
3.66057e-05
1.92654e-05
2.7704e-05
3.78183e-05
1.94828e-05
4.42055e-05
1.20473e-05
4.66429e-05
6.92319e-06
4.65843e-05
3.12157e-06
4.52438e-05
-5.05729e-07
4.1469e-05
-3.24651e-06
3.6139e-05
-6.74139e-06
3.32487e-05
-1.28983e-05
3.16495e-05
-2.02291e-05
2.43649e-05
-2.60111e-05
1.14231e-05
-2.99477e-05
-1.2085e-06
-3.07465e-05
-1.27124e-05
-2.91393e-05
-1.87928e-05
-2.88135e-05
-1.47718e-05
-2.64755e-05
-9.0932e-06
-2.16605e-05
-1.01009e-05
-1.9051e-05
-9.43462e-06
-1.75958e-05
-8.85609e-06
-9.82929e-06
-1.64796e-05
1.14625e-05
-0.00011897
2.9158e-05
-5.69904e-05
2.49299e-05
2.34935e-05
2.11355e-05
4.16127e-05
1.79642e-05
4.73769e-05
1.42431e-05
5.03639e-05
1.16615e-05
4.91659e-05
9.61446e-06
4.72908e-05
7.00664e-06
4.40768e-05
6.42478e-06
3.67209e-05
7.83522e-06
3.18383e-05
8.4507e-06
3.10341e-05
7.77586e-06
2.50397e-05
7.44169e-06
1.17572e-05
5.60574e-06
6.27459e-07
1.39306e-06
-8.49969e-06
-5.65939e-06
-1.17404e-05
-1.0465e-05
-9.96617e-06
-1.0465e-05
-9.09321e-06
-8.88565e-06
-1.16803e-05
-8.50322e-06
-9.81705e-06
-8.15333e-06
-9.20598e-06
-1.17768e-05
-6.2058e-06
-4.90022e-07
-0.00011848
6.8973e-06
-6.43777e-05
4.18872e-06
2.62021e-05
1.45641e-06
4.4345e-05
9.91259e-07
4.7842e-05
1.33169e-07
5.1222e-05
6.18704e-07
4.86804e-05
1.60933e-06
4.63002e-05
2.23604e-06
4.34501e-05
3.09003e-06
3.58669e-05
5.34976e-06
2.95786e-05
8.77974e-06
2.76041e-05
1.18733e-05
2.19461e-05
1.28659e-05
1.07647e-05
1.27331e-05
7.60245e-07
1.09076e-05
-6.67414e-06
8.13809e-06
-8.97084e-06
5.25366e-06
-7.08173e-06
4.01777e-06
-7.85733e-06
3.29076e-06
-1.09533e-05
2.17192e-06
-8.69821e-06
1.75069e-06
-8.78475e-06
-1.10771e-05
1.05099e-06
-1.29382e-05
-0.000105542
-2.11993e-05
-5.61166e-05
-1.81492e-05
2.3152e-05
-2.37401e-05
4.99358e-05
-2.47216e-05
4.88236e-05
-2.13075e-05
4.7808e-05
-1.89833e-05
4.63562e-05
-1.63697e-05
4.36865e-05
-1.2306e-05
3.93864e-05
-8.74464e-06
3.23055e-05
-5.8184e-06
2.66523e-05
-1.49901e-06
2.32847e-05
2.81161e-06
1.76355e-05
5.10782e-06
8.46846e-06
6.54405e-06
-6.7597e-07
7.00415e-06
-7.13423e-06
6.37845e-06
-8.34513e-06
7.42742e-06
-8.13071e-06
8.85696e-06
-9.28686e-06
7.56147e-06
-9.65783e-06
5.65868e-06
-6.79543e-06
7.32925e-06
-1.04553e-05
-8.64955e-06
4.90166e-06
-3.11462e-05
-7.43959e-05
-5.32629e-05
-3.4e-05
-5.30561e-05
2.29452e-05
-5.22984e-05
4.91781e-05
-5.32016e-05
4.97267e-05
-5.02956e-05
4.4902e-05
-4.5699e-05
4.17596e-05
-3.97511e-05
3.77387e-05
-3.28604e-05
3.24957e-05
-2.75612e-05
2.70064e-05
-2.33456e-05
2.24367e-05
-1.83159e-05
1.8255e-05
-1.36064e-05
1.2926e-05
-1.03202e-05
5.18231e-06
-6.30331e-06
-4.69285e-06
-2.95757e-06
-1.048e-05
-3.48903e-06
-7.81367e-06
-2.92332e-06
-8.69643e-06
3.72364e-06
-1.59338e-05
9.38304e-06
-1.53172e-05
8.38784e-06
-5.80023e-06
1.41787e-05
-1.62462e-05
3.72637e-06
1.80284e-06
-5.77803e-05
-1.66156e-05
-9.37179e-05
1.93755e-06
-9.80345e-05
2.72618e-05
-9.19533e-05
4.30969e-05
-8.51926e-05
4.2966e-05
-7.95616e-05
3.9271e-05
-7.31628e-05
3.53608e-05
-6.56252e-05
3.0201e-05
-5.66791e-05
2.35495e-05
-5.00379e-05
2.03652e-05
-4.488e-05
1.72788e-05
-3.93995e-05
1.27746e-05
-3.59864e-05
9.51285e-06
-3.53088e-05
4.50465e-06
-3.00643e-05
-9.9373e-06
-1.43002e-05
-2.62441e-05
-3.44542e-06
-1.86683e-05
3.0253e-06
-1.51671e-05
1.49692e-05
-2.78777e-05
3.44324e-05
-3.47804e-05
4.68246e-05
-1.81924e-05
2.25251e-05
8.05324e-06
2.79869e-05
-1.73571e-06
-6.05855e-05
4.39699e-05
-9.7454e-05
3.8806e-05
-0.000113041
4.28488e-05
-0.000113985
4.40408e-05
-0.000111182
4.0163e-05
-0.000106344
3.4433e-05
-9.96841e-05
2.8701e-05
-9.27308e-05
2.32477e-05
-8.29183e-05
1.3737e-05
-7.21892e-05
9.63612e-06
-6.13482e-05
6.43783e-06
-4.66226e-05
-1.95101e-06
-2.9113e-05
-7.99683e-06
-2.15183e-06
-2.24566e-05
2.56913e-05
-3.77805e-05
1.66068e-05
-1.71597e-05
-1.18895e-07
-1.94274e-06
-1.96864e-05
4.40034e-06
-3.93375e-05
-8.22665e-06
-5.7051e-05
-1.70669e-05
-6.70295e-05
-8.21386e-06
-6.56973e-05
6.72098e-06
1.98761e-05
-5.75866e-05
-3.81183e-05
8.20882e-05
-7.10777e-05
7.17653e-05
-0.000102897
7.46677e-05
-0.000118188
5.93319e-05
-0.000120961
4.2936e-05
-0.000113772
2.7244e-05
-0.000103459
1.83882e-05
-9.25631e-05
1.23518e-05
-7.93637e-05
5.37516e-07
-6.66407e-05
-3.08688e-06
-5.93908e-05
-8.12199e-07
-7.12448e-05
9.90259e-06
-8.40939e-05
4.85178e-06
-9.14229e-05
-1.51279e-05
-0.000105218
-2.39855e-05
-0.000110255
-1.21227e-05
-0.000106488
-5.70986e-06
-9.58823e-05
-6.20593e-06
-9.05648e-05
-1.35441e-05
-9.08984e-05
-1.67332e-05
-8.77759e-05
-1.13364e-05
-7.90015e-05
-2.05337e-06
8.29745e-06
-6.74231e-05
-1.28319e-05
9.49201e-05
-1.8929e-05
7.78624e-05
-4.07376e-05
9.64762e-05
-5.52471e-05
7.38414e-05
-9.99078e-05
8.75967e-05
-0.000102379
2.97148e-05
-0.000104077
2.00863e-05
-0.000106928
1.52034e-05
-0.000108138
1.74677e-06
-0.000105122
-6.10329e-06
-0.000100073
-5.86076e-06
-8.91009e-05
-1.0699e-06
-7.91045e-05
-5.14489e-06
-7.73101e-05
-1.69225e-05
-8.14871e-05
-1.98085e-05
-7.84556e-05
-1.51544e-05
-7.25373e-05
-1.16282e-05
-6.77677e-05
-1.09756e-05
-6.67871e-05
-1.45248e-05
-6.65245e-05
-1.69958e-05
-6.41037e-05
-1.37572e-05
-5.93266e-05
-6.8304e-06
7.38521e-08
-5.11032e-05
7.07878e-07
9.42122e-05
1.26205e-05
6.59498e-05
2.59748e-05
8.3122e-05
2.51364e-05
7.46798e-05
-5.96671e-06
0.0001187
-3.7752e-05
6.15e-05
-5.83928e-05
4.0727e-05
-6.46832e-05
2.14937e-05
-6.56047e-05
2.66817e-06
-6.24296e-05
-9.27841e-06
-5.68998e-05
-1.13906e-05
-4.66417e-05
-1.13279e-05
-3.88621e-05
-1.29245e-05
-3.98432e-05
-1.59413e-05
-4.40076e-05
-1.56442e-05
-4.48427e-05
-1.43194e-05
-4.32062e-05
-1.32648e-05
-4.13641e-05
-1.28178e-05
-4.18209e-05
-1.40681e-05
-4.35311e-05
-1.52855e-05
-4.36312e-05
-1.36571e-05
-4.06266e-05
-9.83499e-06
-6.34905e-06
-3.42039e-05
8.374e-06
8.58382e-05
2.48004e-05
4.95233e-05
5.28883e-05
5.50341e-05
2.81363e-05
9.94313e-05
1.72227e-05
0.000129613
-1.20094e-05
9.07327e-05
-2.78709e-05
5.65885e-05
-3.07438e-05
2.43666e-05
-2.63925e-05
-1.68313e-06
-2.31071e-05
-1.25638e-05
-1.89533e-05
-1.55444e-05
-1.43229e-05
-1.59582e-05
-1.08721e-05
-1.63753e-05
-1.09249e-05
-1.58884e-05
-1.38045e-05
-1.27646e-05
-1.70467e-05
-1.10772e-05
-1.89507e-05
-1.13608e-05
-1.97544e-05
-1.20141e-05
-2.06944e-05
-1.31282e-05
-2.20408e-05
-1.39391e-05
-2.21325e-05
-1.35654e-05
-1.98978e-05
-1.20697e-05
-1.09433e-05
-1.53037e-05
1.21072e-05
7.3731e-05
2.41619e-05
3.74687e-05
9.85902e-05
-1.93945e-05
4.35256e-05
0.000154496
1.17827e-05
0.000161357
-4.24389e-06
0.00010676
-1.28832e-05
6.52279e-05
-1.18909e-05
2.33743e-05
-8.18514e-06
-5.38888e-06
-4.98612e-06
-1.57628e-05
-1.80824e-06
-1.87222e-05
4.85179e-07
-1.82516e-05
1.72543e-06
-1.76155e-05
1.89907e-06
-1.6062e-05
2.01828e-06
-1.28837e-05
1.27099e-06
-1.03299e-05
-9.14266e-08
-9.99841e-06
-1.70417e-06
-1.04014e-05
-3.53242e-06
-1.12999e-05
-5.22122e-06
-1.22502e-05
-5.96302e-06
-1.28236e-05
-5.17646e-06
-1.28562e-05
-1.30466e-05
-3.07328e-06
1.42699e-05
5.94611e-05
2.53359e-05
2.64027e-05
8.74998e-06
-2.80964e-06
7.46605e-06
0.00015578
-3.86066e-06
0.000172685
-6.18074e-06
0.00010908
-4.58631e-06
6.36334e-05
2.18315e-08
1.87661e-05
1.27429e-06
-6.64131e-06
3.09626e-06
-1.75847e-05
4.84472e-06
-2.04706e-05
6.34073e-06
-1.97475e-05
6.81518e-06
-1.80898e-05
6.70431e-06
-1.59511e-05
7.07829e-06
-1.32577e-05
7.78047e-06
-1.1032e-05
7.81703e-06
-1.00349e-05
7.35547e-06
-9.93978e-06
6.48719e-06
-1.04316e-05
5.48273e-06
-1.12457e-05
4.78222e-06
-1.2123e-05
4.85319e-06
-1.29272e-05
-1.3812e-05
5.61857e-06
1.17378e-05
4.77234e-05
2.0878e-05
1.72624e-05
-4.95015e-06
2.30184e-05
-2.26258e-05
0.000173455
-6.68246e-06
0.000156741
-7.24759e-06
0.000109645
9.4905e-07
5.54368e-05
4.87869e-06
1.48365e-05
6.35386e-06
-8.11645e-06
7.10327e-06
-1.8334e-05
7.53686e-06
-2.09041e-05
7.82112e-06
-2.00317e-05
7.84814e-06
-1.81168e-05
7.82409e-06
-1.59269e-05
8.19568e-06
-1.36291e-05
8.84753e-06
-1.16838e-05
9.34363e-06
-1.0531e-05
9.55737e-06
-1.01535e-05
9.51789e-06
-1.0392e-05
9.33451e-06
-1.10623e-05
9.18829e-06
-1.19768e-05
9.263e-06
-1.30018e-05
-1.41147e-05
9.56555e-06
9.75304e-06
3.79703e-05
1.90713e-05
7.94418e-06
1.64745e-05
2.56151e-05
7.15197e-08
0.000189858
-4.34374e-06
0.000161157
-3.10592e-06
0.000108407
4.65087e-06
4.768e-05
8.16394e-06
1.13235e-05
9.215e-06
-9.16744e-06
8.7953e-06
-1.79142e-05
7.90348e-06
-2.00122e-05
7.10097e-06
-1.92291e-05
6.55516e-06
-1.75709e-05
6.34859e-06
-1.57203e-05
6.58303e-06
-1.38635e-05
7.16328e-06
-1.22639e-05
7.84072e-06
-1.12083e-05
8.46521e-06
-1.07779e-05
8.97542e-06
-1.09022e-05
9.36626e-06
-1.1453e-05
9.67616e-06
-1.22866e-05
9.95585e-06
-1.32815e-05
-1.43688e-05
1.021e-05
1.28984e-05
2.5072e-05
2.65425e-05
-5.69996e-06
1.60376e-05
3.61197e-05
-4.78734e-06
0.000210683
-9.03812e-06
0.000165408
-1.712e-06
0.000101081
6.35116e-06
3.96169e-05
9.7225e-06
7.95218e-06
9.86933e-06
-9.31417e-06
8.37756e-06
-1.64224e-05
6.52632e-06
-1.81608e-05
5.0361e-06
-1.77387e-05
4.12805e-06
-1.66627e-05
3.79245e-06
-1.53846e-05
3.97647e-06
-1.40474e-05
4.56645e-06
-1.28538e-05
5.38251e-06
-1.20243e-05
6.26481e-06
-1.16601e-05
7.10385e-06
-1.17411e-05
7.83325e-06
-1.21824e-05
8.42522e-06
-1.28785e-05
8.87585e-06
-1.3732e-05
-1.46722e-05
9.17914e-06
9.74468e-06
1.53272e-05
8.28548e-06
-4.24085e-06
-2.74174e-05
7.18223e-05
-2.60479e-05
0.000209313
-1.89884e-05
0.000158348
-3.89167e-06
8.59844e-05
5.47037e-06
3.02549e-05
8.87808e-06
4.54459e-06
8.3873e-06
-8.82326e-06
6.31899e-06
-1.43539e-05
4.13819e-06
-1.59799e-05
2.54264e-06
-1.6143e-05
1.66039e-06
-1.57803e-05
1.40155e-06
-1.51256e-05
1.65819e-06
-1.43039e-05
2.31202e-06
-1.35075e-05
3.21009e-06
-1.29222e-05
4.20177e-06
-1.26516e-05
5.16502e-06
-1.27043e-05
6.01676e-06
-1.3034e-05
6.70989e-06
-1.35715e-05
7.22423e-06
-1.42463e-05
-1.50001e-05
7.55228e-06
2.01715e-05
-4.84428e-06
-1.5593e-05
3.15234e-05
-6.30309e-05
0.00011926
-4.89616e-05
0.000195244
-2.79202e-05
0.000137307
-6.67469e-06
6.47391e-05
3.18882e-06
2.03916e-05
6.19736e-06
1.53622e-06
5.47233e-06
-8.09806e-06
3.46675e-06
-1.23481e-05
1.60185e-06
-1.41148e-05
3.85075e-07
-1.49261e-05
-1.82649e-07
-1.52123e-05
-2.20225e-07
-1.50878e-05
1.65084e-07
-1.4689e-05
8.65995e-07
-1.42082e-05
1.75903e-06
-1.38151e-05
2.71844e-06
-1.36109e-05
3.64067e-06
-1.36264e-05
4.45186e-06
-1.38451e-05
5.10855e-06
-1.42282e-05
5.59013e-06
-1.47277e-05
-1.52997e-05
5.88981e-06
-1.75281e-05
1.26835e-05
-5.3772e-05
6.77671e-05
-7.0294e-05
0.000135782
-5.35321e-05
0.000178483
-2.79335e-05
0.000111709
-7.1153e-06
4.39212e-05
6.51596e-07
1.26249e-05
2.75532e-06
-5.6729e-07
2.14036e-06
-7.48289e-06
7.2253e-07
-1.09301e-05
-4.35939e-07
-1.29561e-05
-1.06568e-06
-1.42961e-05
-1.22486e-06
-1.50529e-05
-1.02314e-06
-1.52893e-05
-5.36103e-07
-1.51758e-05
1.5617e-07
-1.49003e-05
9.6568e-07
-1.46244e-05
1.80102e-06
-1.44461e-05
2.5869e-06
-1.44121e-05
3.26954e-06
-1.45276e-05
3.81578e-06
-1.47743e-05
4.2094e-06
-1.51214e-05
-1.55365e-05
4.44629e-06
-3.63423e-05
4.90259e-05
-6.33234e-05
9.47483e-05
-6.82688e-05
0.000140728
-4.81017e-05
0.000158316
-2.22422e-05
8.58496e-05
-6.85796e-06
2.85371e-05
-1.97765e-06
7.74486e-06
-3.96149e-07
-2.14857e-06
-6.75393e-07
-7.20342e-06
-1.33602e-06
-1.02692e-05
-1.73378e-06
-1.25581e-05
-1.80962e-06
-1.422e-05
-1.63293e-06
-1.52294e-05
-1.25679e-06
-1.56652e-05
-7.2284e-07
-1.57096e-05
-8.2432e-08
-1.55405e-05
6.07653e-07
-1.53144e-05
1.28878e-06
-1.51271e-05
1.91126e-06
-1.50345e-05
2.4407e-06
-1.5057e-05
2.85507e-06
-1.51886e-05
3.14344e-06
-1.54095e-05
-1.56941e-05
3.30117e-06
-3.35581e-05
8.25838e-05
-5.41417e-05
0.000115332
-5.53228e-05
0.000141909
-3.63435e-05
0.000139337
-1.44764e-05
6.39828e-05
-5.75684e-06
1.98177e-05
-2.97697e-06
4.96519e-06
-2.21611e-06
-2.90922e-06
-2.30834e-06
-7.11094e-06
-2.39179e-06
-1.01855e-05
-2.29183e-06
-1.26578e-05
-2.04626e-06
-1.44653e-05
-1.67469e-06
-1.56007e-05
-1.20693e-06
-1.61327e-05
-6.69025e-07
-1.62473e-05
-8.69815e-08
-1.61224e-05
4.91592e-07
-1.58928e-05
1.03323e-06
-1.56686e-05
1.50938e-06
-1.55105e-05
1.89919e-06
-1.54467e-05
2.19047e-06
-1.54797e-05
2.37683e-06
-1.55958e-05
-1.57738e-05
2.45673e-06
-2.79048e-05
0.000110488
-4.17545e-05
0.000129181
-4.00068e-05
0.000140161
-2.14943e-05
0.000120824
-6.70651e-06
4.91949e-05
-3.55262e-06
1.66639e-05
-2.51736e-06
3.93008e-06
-2.56226e-06
-2.86412e-06
-2.71117e-06
-6.96181e-06
-2.6372e-06
-1.02592e-05
-2.39801e-06
-1.28967e-05
-2.03293e-06
-1.48301e-05
-1.58366e-06
-1.60497e-05
-1.07098e-06
-1.66452e-05
-5.30239e-07
-1.67878e-05
2.17789e-09
-1.66546e-05
5.0078e-07
-1.63912e-05
9.39457e-07
-1.61071e-05
1.30167e-06
-1.58726e-05
1.57749e-06
-1.57224e-05
1.76321e-06
-1.56654e-05
1.85844e-06
-1.56908e-05
-1.57775e-05
1.86232e-06
-2.00467e-05
0.000130533
-2.78054e-05
0.000136939
-2.47703e-05
0.000137125
-6.52054e-06
0.000102574
7.6877e-07
4.19054e-05
6.89351e-07
1.67432e-05
-1.65138e-07
4.7846e-06
-1.46867e-06
-1.56046e-06
-2.14479e-06
-6.28549e-06
-2.35645e-06
-1.00473e-05
-2.24599e-06
-1.30069e-05
-1.92949e-06
-1.51464e-05
-1.47956e-06
-1.64994e-05
-9.41955e-07
-1.71826e-05
-3.90887e-07
-1.73387e-05
1.28933e-07
-1.71742e-05
5.84318e-07
-1.68464e-05
9.56664e-07
-1.64793e-05
1.23603e-06
-1.61518e-05
1.42219e-06
-1.59084e-05
1.51913e-06
-1.57622e-05
1.53211e-06
-1.57038e-05
-1.5711e-05
1.46584e-06
-1.16665e-05
0.000142198
-1.27314e-05
0.000138002
-5.4873e-06
0.00012988
9.00329e-06
8.80826e-05
9.25994e-06
4.16484e-05
6.71623e-06
1.92868e-05
3.65561e-06
7.84521e-06
9.72017e-07
1.12323e-06
-8.60607e-07
-4.45271e-06
-1.73499e-06
-9.17276e-06
-1.98193e-06
-1.27598e-05
-1.81984e-06
-1.53083e-05
-1.39212e-06
-1.6927e-05
-8.32071e-07
-1.77424e-05
-2.43876e-07
-1.79267e-05
2.93456e-07
-1.77114e-05
7.37437e-07
-1.72903e-05
1.06896e-06
-1.68107e-05
1.28656e-06
-1.63693e-05
1.39755e-06
-1.60193e-05
1.41456e-06
-1.57791e-05
1.35064e-06
-1.56397e-05
-1.55735e-05
1.21327e-06
-5.60566e-06
0.000147803
5.8795e-06
0.000126515
1.85002e-05
0.000117258
2.38907e-05
8.26915e-05
1.97472e-05
4.57917e-05
1.36756e-05
2.53584e-05
8.06554e-06
1.34552e-05
3.70263e-06
5.48622e-06
6.16424e-07
-1.36638e-06
-1.01477e-06
-7.54141e-06
-1.69312e-06
-1.20813e-05
-1.70601e-06
-1.52952e-05
-1.29113e-06
-1.73417e-05
-6.7834e-07
-1.83551e-05
-3.24167e-08
-1.85725e-05
5.39978e-07
-1.82837e-05
9.84653e-07
-1.77348e-05
1.28524e-06
-1.71111e-05
1.44712e-06
-1.65311e-05
1.4875e-06
-1.60596e-05
1.42655e-06
-1.5718e-05
1.28473e-06
-1.54978e-05
-1.53658e-05
1.07732e-06
3.32943e-06
0.000144473
1.95304e-05
0.000110314
3.03442e-05
0.000106444
3.19917e-05
8.10441e-05
2.61694e-05
5.16139e-05
1.84496e-05
3.30782e-05
1.14517e-05
2.04532e-05
5.96334e-06
1.09746e-05
2.10734e-06
2.48971e-06
-2.32396e-07
-5.20156e-06
-1.27967e-06
-1.10339e-05
-1.42981e-06
-1.51449e-05
-1.01443e-06
-1.7757e-05
-3.47576e-07
-1.90218e-05
3.50632e-07
-1.92706e-05
9.44233e-07
-1.88772e-05
1.37464e-06
-1.81651e-05
1.62964e-06
-1.73661e-05
1.72419e-06
-1.66255e-05
1.68382e-06
-1.60192e-05
1.5381e-06
-1.55723e-05
1.31382e-06
-1.52734e-05
-1.50812e-05
1.02927e-06
1.08873e-05
0.000133586
1.896e-05
0.000102241
2.76709e-05
9.77336e-05
3.37344e-05
7.49809e-05
2.78154e-05
5.75331e-05
2.01238e-05
4.07699e-05
1.32702e-05
2.73068e-05
7.63999e-06
1.6605e-05
3.51092e-06
6.61887e-06
8.49122e-07
-2.53969e-06
-4.26189e-07
-9.75851e-06
-6.58711e-07
-1.49123e-05
-2.78106e-07
-1.81375e-05
3.765e-07
-1.96764e-05
1.05171e-06
-1.99457e-05
1.60078e-06
-1.94262e-05
1.96183e-06
-1.85261e-05
2.129e-06
-1.75332e-05
2.12524e-06
-1.66217e-05
1.98412e-06
-1.58781e-05
1.74023e-06
-1.53283e-05
1.42356e-06
-1.49568e-05
-1.47156e-05
1.05817e-06
1.18716e-05
0.000121714
2.76299e-05
8.64834e-05
3.57076e-05
8.96563e-05
3.26017e-05
7.80872e-05
2.56103e-05
6.45249e-05
1.96534e-05
4.67271e-05
1.37506e-05
3.32098e-05
8.80672e-06
2.15489e-05
5.09133e-06
1.03343e-05
2.52412e-06
2.75781e-08
1.19932e-06
-8.43367e-06
8.71607e-07
-1.45846e-05
1.13916e-06
-1.8405e-05
1.65381e-06
-2.0191e-05
2.1786e-06
-2.04705e-05
2.57182e-06
-1.98194e-05
2.77632e-06
-1.87306e-05
2.79151e-06
-1.75483e-05
2.64542e-06
-1.64756e-05
2.37418e-06
-1.56068e-05
2.01391e-06
-1.4968e-05
1.59549e-06
-1.45382e-05
-1.42607e-05
1.14063e-06
1.52269e-05
0.000106488
3.31954e-05
6.85152e-05
3.20748e-05
9.07771e-05
2.54355e-05
8.47268e-05
2.19275e-05
6.80334e-05
1.80982e-05
5.05566e-05
1.34613e-05
3.78468e-05
9.7487e-06
2.52616e-05
6.91893e-06
1.31641e-05
4.83119e-06
2.11533e-06
3.64304e-06
-7.24551e-06
3.20378e-06
-1.41453e-05
3.23273e-06
-1.84339e-05
3.46822e-06
-2.04264e-05
3.7087e-06
-2.07109e-05
3.83205e-06
-1.99427e-05
3.79006e-06
-1.86885e-05
3.58778e-06
-1.7346e-05
3.25494e-06
-1.61427e-05
2.82753e-06
-1.51794e-05
2.33624e-06
-1.44767e-05
1.80814e-06
-1.40101e-05
-1.37171e-05
1.26483e-06
2.24743e-05
8.40134e-05
1.41441e-05
7.68448e-05
1.86478e-05
8.62735e-05
1.77459e-05
8.56294e-05
1.88258e-05
6.69537e-05
1.5798e-05
5.35845e-05
1.30021e-05
4.06428e-05
1.0708e-05
2.75557e-05
8.89432e-06
1.49778e-05
7.50044e-06
3.50922e-06
6.54144e-06
-6.28652e-06
6.00119e-06
-1.36051e-05
5.7479e-06
-1.81807e-05
5.62383e-06
-2.03024e-05
5.49031e-06
-2.05774e-05
5.26111e-06
-1.97135e-05
4.9073e-06
-1.83347e-05
4.44212e-06
-1.68807e-05
3.89574e-06
-1.55963e-05
3.29708e-06
-1.45807e-05
2.67005e-06
-1.38496e-05
2.03359e-06
-1.33735e-05
-1.30857e-05
1.40221e-06
5.86555e-06
7.8147e-05
1.13981e-05
7.13124e-05
9.43908e-06
8.82334e-05
1.5078e-05
7.99906e-05
1.49457e-05
6.70861e-05
1.38009e-05
5.47294e-05
1.2779e-05
4.16647e-05
1.18343e-05
2.85005e-05
1.09947e-05
1.58173e-05
1.02335e-05
4.27042e-06
9.51345e-06
-5.56646e-06
8.8947e-06
-1.29863e-05
8.35686e-06
-1.76428e-05
7.84166e-06
-1.97872e-05
7.28859e-06
-2.00243e-05
6.66643e-06
-1.90913e-05
5.97627e-06
-1.76445e-05
5.23988e-06
-1.61443e-05
4.48286e-06
-1.48392e-05
3.72365e-06
-1.38214e-05
2.9734e-06
-1.30993e-05
2.24068e-06
-1.26408e-05
-1.23812e-05
1.53636e-06
1.06771e-05
6.74702e-05
4.92845e-06
7.70618e-05
7.89321e-06
8.52689e-05
1.07775e-05
7.71065e-05
1.18575e-05
6.60062e-05
1.25572e-05
5.40297e-05
1.29714e-05
4.12505e-05
1.31373e-05
2.83346e-05
1.30836e-05
1.5871e-05
1.28017e-05
4.55224e-06
1.226e-05
-5.0247e-06
1.15554e-05
-1.22818e-05
1.07292e-05
-1.68166e-05
9.80992e-06
-1.88679e-05
8.82664e-06
-1.9041e-05
7.81462e-06
-1.80792e-05
6.81052e-06
-1.66404e-05
5.84031e-06
-1.5174e-05
4.91504e-06
-1.39139e-05
4.03474e-06
-1.29411e-05
3.19506e-06
-1.22596e-05
2.39437e-06
-1.18399e-05
-1.16225e-05
1.63584e-06
5.66439e-06
6.18069e-05
5.83487e-07
8.2143e-05
4.24474e-06
8.16079e-05
7.82658e-06
7.35248e-05
1.03002e-05
6.35327e-05
1.2206e-05
5.21239e-05
1.35898e-05
3.98667e-05
1.45007e-05
2.74237e-05
1.49682e-05
1.54035e-05
1.49836e-05
4.53684e-06
1.45296e-05
-4.57069e-06
1.36862e-05
-1.14384e-05
1.2545e-05
-1.56754e-05
1.12143e-05
-1.75372e-05
9.81804e-06
-1.76447e-05
8.46516e-06
-1.67263e-05
7.22073e-06
-1.53959e-05
6.10197e-06