/*--------------------------------*- C++ -*----------------------------------*\
| =========                 |                                                 |
| \\      /  F ield         | OpenFOAM: The Open Source CFD Toolbox           |
|  \\    /   O peration     | Version:  2312                                  |
|   \\  /    A nd           | Website:  www.openfoam.com                      |
|    \\/     M anipulation  |                                                 |
\*---------------------------------------------------------------------------*/
FoamFile
{
    version     2.0;
    format      ascii;
    arch        "LSB;label=32;scalar=64";
    class       volVectorField;
    location    "2.25";
    object      U;
}
// * * * * * * * * * * * * * * * * * * * * * * * * * * * * * * * * * * * * * //

dimensions      [0 1 -1 0 0 0 0];

internalField   nonuniform List<vector> 
2268
(
(0.0334924 -0.0173995 0)
(0.0673033 -0.00835309 0)
(0.0907694 -0.00486084 0)
(0.107558 -0.00276417 0)
(0.118239 -0.00134618 0)
(0.123452 -0.000229173 0)
(0.123843 0.000576553 0)
(0.120713 0.00104298 0)
(0.115608 0.00137394 0)
(0.109116 0.00187683 0)
(0.100652 0.00247954 0)
(0.0900955 0.00281744 0)
(0.078129 0.00295824 0)
(0.0651949 0.00315298 0)
(0.0513034 0.00338597 0)
(0.0364219 0.00355162 0)
(0.0215739 0.00348817 0)
(0.00761745 0.00294287 0)
(-0.00332711 0.00220627 0)
(-0.010121 0.000882338 0)
(-0.0116343 -0.000499855 0)
(-0.010551 -0.0012099 0)
(-0.00635802 -0.00227494 0)
(0.018246 -0.0341074 0)
(0.0545036 -0.0201187 0)
(0.0788781 -0.0147226 0)
(0.0988402 -0.0103374 0)
(0.112179 -0.00621067 0)
(0.119041 -0.00225258 0)
(0.120112 0.00101027 0)
(0.117193 0.00296569 0)
(0.11233 0.00392709 0)
(0.106193 0.00495281 0)
(0.0979419 0.00639536 0)
(0.0875006 0.00772699 0)
(0.0757361 0.00861854 0)
(0.0629984 0.00952267 0)
(0.04914 0.0104515 0)
(0.0340723 0.0109748 0)
(0.019001 0.0106261 0)
(0.00483422 0.00905873 0)
(-0.0062731 0.006541 0)
(-0.0133726 0.00337907 0)
(-0.0146788 0.000311478 0)
(-0.0131052 -0.0012479 0)
(-0.00875795 -0.00622332 0)
(0.0119857 -0.049331 0)
(0.0458315 -0.0345057 0)
(0.0701685 -0.0258977 0)
(0.0918009 -0.0183269 0)
(0.106564 -0.0108333 0)
(0.114388 -0.00363284 0)
(0.115829 0.00193394 0)
(0.112972 0.0049776 0)
(0.108551 0.00656692 0)
(0.103374 0.00897371 0)
(0.0960542 0.0117692 0)
(0.0861219 0.0135384 0)
(0.0746168 0.014326 0)
(0.0621183 0.0152243 0)
(0.0482382 0.0165194 0)
(0.0328399 0.0175165 0)
(0.0174229 0.0172127 0)
(0.00307254 0.0149153 0)
(-0.00780459 0.0107918 0)
(-0.0144384 0.00469598 0)
(-0.0147446 -0.00138483 0)
(-0.0127747 -0.00434069 0)
(-0.00625194 -0.0121809 0)
(0.0103016 -0.0612682 0)
(0.0413931 -0.0476153 0)
(0.0654911 -0.0372798 0)
(0.0880422 -0.0272784 0)
(0.103909 -0.0168625 0)
(0.112189 -0.00635883 0)
(0.113512 0.00221187 0)
(0.110684 0.00649945 0)
(0.107354 0.00792329 0)
(0.103432 0.0100645 0)
(0.0962352 0.0139302 0)
(0.0858434 0.0174218 0)
(0.0742617 0.0198892 0)
(0.0620856 0.0225881 0)
(0.0485295 0.0255163 0)
(0.0333503 0.0274869 0)
(0.0179648 0.0269056 0)
(0.00401999 0.0227909 0)
(-0.00675248 0.016282 0)
(-0.0133534 0.00768146 0)
(-0.0127904 -0.00111594 0)
(-0.0103391 -0.00487436 0)
(-0.00186673 -0.0168776 0)
(0.0101652 -0.0734813 0)
(0.0405916 -0.0613315 0)
(0.0650197 -0.0494374 0)
(0.0877467 -0.0368929 0)
(0.104549 -0.0222519 0)
(0.113847 -0.00788224 0)
(0.114512 0.00295019 0)
(0.110262 0.00760238 0)
(0.106388 0.00990274 0)
(0.103258 0.0151387 0)
(0.0967796 0.0216512 0)
(0.0854097 0.0248338 0)
(0.0716494 0.0253717 0)
(0.0574602 0.0259534 0)
(0.0425456 0.0273462 0)
(0.026948 0.0279237 0)
(0.0118291 0.0261927 0)
(-0.000667173 0.0219723 0)
(-0.00834639 0.0157097 0)
(-0.0113806 0.00632839 0)
(-0.010542 -0.00420136 0)
(-0.0128341 -0.0102834 0)
(0.000417294 -0.0150994 0)
(0.00813833 -0.0856446 0)
(0.0398302 -0.075912 0)
(0.0648852 -0.0616159 0)
(0.0864304 -0.0474836 0)
(0.101771 -0.031829 0)
(0.112491 -0.0115501 0)
(0.111013 0.00650881 0)
(0.101149 0.0124014 0)
(0.0896093 0.0111898 0)
(0.0808512 0.0127236 0)
(0.071615 0.0201562 0)
(0.0612974 0.0257048 0)
(0.05101 0.0286693 0)
(0.041064 0.0317465 0)
(0.0300047 0.0354463 0)
(0.0166963 0.0382607 0)
(-0.000184032 0.0371454 0)
(-0.0186635 0.03069 0)
(-0.0330195 0.0203418 0)
(-0.0402064 0.00862134 0)
(-0.0274409 -0.000206232 0)
(-0.00191224 -0.00722576 0)
(0.01726 -0.0286332 0)
(0.00612028 -0.0958843 0)
(0.0408663 -0.0883943 0)
(0.064188 -0.0689245 0)
(0.0811016 -0.0477465 0)
(0.0833493 -0.0266324 0)
(0.0842213 -0.00828514 0)
(0.089767 0.0068801 0)
(0.0913233 0.0135079 0)
(0.0840382 0.0161441 0)
(0.0418612 0.0236532 0)
(0.00324989 0.0337418 0)
(-0.0318856 0.0389894 0)
(-0.0688432 0.0428588 0)
(-0.100141 0.046471 0)
(-0.120399 0.0509625 0)
(-0.116445 0.0538641 0)
(-0.106563 0.0525139 0)
(-0.0970053 0.0452287 0)
(-0.0842034 0.0295407 0)
(-0.072128 0.00798451 0)
(-0.0506591 -0.0217331 0)
(-0.0129333 -0.0320928 0)
(0.0198427 0.00978171 0)
(0.00719364 -0.103333 0)
(0.0435185 -0.102778 0)
(0.0641137 -0.0797725 0)
(0.0895413 -0.0611242 0)
(0.11321 -0.0443048 0)
(0.103687 -0.0169066 0)
(-0.0107172 0.0132076 0)
(-0.0912611 0.0249065 0)
(-0.150124 0.0421163 0)
(-0.198048 0.0503262 0)
(-0.233798 0.0567353 0)
(-0.256531 0.0576761 0)
(-0.262655 0.0535316 0)
(-0.253063 0.0453177 0)
(-0.23129 0.0353737 0)
(-0.209114 0.0309971 0)
(-0.194179 0.0313752 0)
(-0.180823 0.0273017 0)
(-0.165152 0.0155935 0)
(-0.146779 -0.00720679 0)
(-0.125827 -0.0332093 0)
(-0.10705 -0.0465595 0)
(-0.167834 -0.0523657 0)
(-0.0339149 0.0106889 0)
(0.0140481 -0.00880516 0)
(0.0303956 -0.0052761 0)
(0.0449439 -0.00151304 0)
(0.0438014 0.00420852 0)
(0.0254358 0.0151536 0)
(-0.0468014 0.0152009 0)
(-0.0901583 0.00104461 0)
(-0.097832 -0.00800916 0)
(-0.089552 -0.00323957 0)
(-0.0836473 0.000243862 0)
(-0.0744486 -0.0026163 0)
(-0.0516378 -0.0109492 0)
(0.00380948 -0.0205871 0)
(0.0668918 -0.0164616 0)
(0.105571 -0.00930138 0)
(0.12406 -0.000409412 0)
(0.101693 0.0138661 0)
(0.0328249 0.0190058 0)
(0.0245635 -0.00289528 0)
(0.068625 -0.0166428 0)
(0.0876308 -0.0115847 0)
(0.106822 -0.00511408 0)
(0.121491 0.00603815 0)
(0.114819 0.0243486 0)
(0.0786583 0.0339447 0)
(0.0382413 0.0229471 0)
(-0.00323435 0.0023804 0)
(-0.0250001 -0.00338293 0)
(-0.00938156 -0.007389 0)
(0.023975 -0.013147 0)
(0.0550094 -0.021954 0)
(0.0906881 -0.0346696 0)
(0.12312 -0.0301533 0)
(0.144608 -0.0124427 0)
(0.147118 0.00218072 0)
(0.120126 0.0288318 0)
(0.0552842 0.0396783 0)
(0.0463982 -0.0343338 0)
(0.0729683 -0.0307259 0)
(0.0864367 -0.0234101 0)
(0.0949811 -0.0172716 0)
(0.124364 -0.00382285 0)
(0.150925 0.0274198 0)
(0.144988 0.0456131 0)
(0.127501 0.0352769 0)
(0.108891 0.0142069 0)
(0.0995319 0.00114154 0)
(0.10764 -0.0156326 0)
(0.125309 -0.0261578 0)
(0.146653 -0.0343514 0)
(0.167634 -0.0485987 0)
(0.191802 -0.0497709 0)
(0.232024 -0.0272906 0)
(0.249063 0.00376998 0)
(0.203821 0.0485897 0)
(0.121849 0.0829306 0)
(0.0094601 -0.0521162 0)
(0.0550446 -0.0352398 0)
(0.077707 -0.0204598 0)
(0.0653962 -0.010453 0)
(0.0688316 -0.0208983 0)
(0.126104 0.0175864 0)
(0.167248 0.0492636 0)
(0.177863 0.0446187 0)
(0.171519 0.0219156 0)
(0.177615 -0.000410159 0)
(0.201477 -0.0221987 0)
(0.213395 -0.0275644 0)
(0.217395 -0.0374402 0)
(0.211788 -0.0480345 0)
(0.195852 -0.0580032 0)
(0.201593 -0.038344 0)
(0.183844 0.00987276 0)
(0.155643 0.0967278 0)
(0.126257 0.166003 0)
(-0.0016447 -0.0655647 0)
(0.0453322 -0.0536215 0)
(0.0651791 -0.0365438 0)
(0.0980582 -0.0104861 0)
(0.0985166 -0.0243976 0)
(0.114429 -0.019855 0)
(0.149964 0.0253828 0)
(0.150209 0.0400026 0)
(0.127401 0.00775129 0)
(0.153251 -0.0207847 0)
(0.205973 -0.0320248 0)
(0.23011 -0.028481 0)
(0.21747 -0.0340112 0)
(0.198407 -0.0410353 0)
(0.172095 -0.0461065 0)
(0.0369416 -0.0103773 0)
(-0.0346311 0.0411461 0)
(0.0174312 0.0836402 0)
(0.104281 0.212101 0)
(-0.021966 -0.0742673 0)
(0.0236928 -0.0635516 0)
(0.0282054 -0.0468425 0)
(0.068924 -0.0261843 0)
(0.138171 -0.0216633 0)
(0.16513 -0.0120196 0)
(0.153294 0.0382338 0)
(0.103211 0.0631358 0)
(0.0630208 0.00942322 0)
(0.094933 -0.0435004 0)
(0.158328 -0.0514701 0)
(0.182654 -0.0344384 0)
(0.133199 -0.0249182 0)
(0.0335919 -0.0205952 0)
(-0.0510317 0.00601402 0)
(-0.0684985 0.0299806 0)
(-0.0246219 0.0225242 0)
(-0.0787318 0.0443203 0)
(0.0900318 0.220404 0)
(-0.0639398 -0.0660568 0)
(-0.0576958 -0.0632335 0)
(-0.0534968 -0.0510483 0)
(-0.0248298 -0.0556478 0)
(0.0424628 -0.060439 0)
(0.1131 -0.0376763 0)
(0.170371 0.0494204 0)
(0.0922092 0.0957354 0)
(0.0114638 0.0121261 0)
(-0.0130041 -0.0727376 0)
(0.0552954 -0.0572732 0)
(-0.0272553 0.000958045 0)
(-0.0829128 0.0208841 0)
(-0.104128 0.0148987 0)
(-0.107382 0.00323749 0)
(-0.0988251 0.0100722 0)
(-0.0407938 0.0228943 0)
(-0.14809 0.0417603 0)
(0.0782055 0.211864 0)
(-0.10744 -0.00510182 0)
(-0.122755 -0.0560118 0)
(-0.11168 -0.0654316 0)
(-0.0715832 -0.081068 0)
(-0.0231721 -0.0906011 0)
(0.0265756 -0.0703296 0)
(0.0666965 0.0357518 0)
(0.0512675 0.144119 0)
(-0.0855654 0.0379374 0)
(-0.167993 -0.0498546 0)
(-0.17547 -0.0398788 0)
(-0.148381 0.0136498 0)
(-0.105765 0.00626639 0)
(-0.0568769 -0.00231257 0)
(-0.0701665 0.00159116 0)
(-0.0975296 0.00671468 0)
(-0.123401 0.0327449 0)
(-0.151162 0.000915896 0)
(0.062809 0.189985 0)
(0.0140608 -0.125885 0)
(0.035616 -0.130482 0)
(0.0303498 -0.113648 0)
(0.00213313 -0.0741026 0)
(-0.0948631 0.002828 0)
(-0.138514 0.0732424 0)
(-0.20097 0.0895769 0)
(-0.248626 0.0767722 0)
(-0.286513 0.074175 0)
(-0.315658 0.0723587 0)
(-0.332705 0.0654458 0)
(-0.333811 0.0531157 0)
(-0.320966 0.0388115 0)
(-0.300158 0.0259852 0)
(-0.281983 0.019401 0)
(-0.275424 0.029495 0)
(-0.273436 0.03347 0)
(-0.260005 0.0180927 0)
(-0.236196 0.000938405 0)
(-0.21617 -0.0217927 0)
(-0.202816 -0.039742 0)
(-0.202716 -0.0507092 0)
(-0.219433 -0.0489429 0)
(0.0259682 -0.12877 0)
(0.00901339 -0.0868744 0)
(-0.0570336 -0.0182789 0)
(-0.0804737 0.0434069 0)
(-0.10999 0.062039 0)
(-0.140103 0.0973844 0)
(-0.186779 0.117565 0)
(-0.234741 0.113592 0)
(-0.27653 0.103504 0)
(-0.307867 0.0908849 0)
(-0.329095 0.0715394 0)
(-0.339161 0.0477012 0)
(-0.34041 0.0276683 0)
(-0.336564 0.0150144 0)
(-0.330757 0.0143997 0)
(-0.31816 0.0295073 0)
(-0.294779 0.024045 0)
(-0.269788 -0.00748293 0)
(-0.248022 -0.0189782 0)
(-0.240301 -0.0271606 0)
(-0.245338 -0.0354294 0)
(-0.258095 -0.040612 0)
(-0.266193 -0.0384618 0)
(0.0940873 -0.186988 0)
(0.148715 -0.016135 0)
(0.0733985 -0.0191818 0)
(0.0184197 0.0112364 0)
(-0.0413991 0.0937464 0)
(-0.0874366 0.136855 0)
(-0.128364 0.161568 0)
(-0.174989 0.160526 0)
(-0.218107 0.143622 0)
(-0.255806 0.124826 0)
(-0.293871 0.0982691 0)
(-0.33079 0.0664657 0)
(-0.359273 0.0367092 0)
(-0.369841 0.0127277 0)
(-0.358468 0.000375095 0)
(-0.322201 -0.00390339 0)
(-0.271677 -0.0184672 0)
(-0.230381 -0.036929 0)
(-0.214625 -0.0275832 0)
(-0.219609 -0.0237571 0)
(-0.226483 -0.0323157 0)
(-0.230111 -0.0374227 0)
(-0.231842 -0.0449191 0)
(0.0541364 -0.411612 0)
(0.235138 -0.0696881 0)
(0.245799 0.0814395 0)
(0.16227 0.119671 0)
(0.0716363 0.154201 0)
(0.00949719 0.179061 0)
(-0.0363305 0.202622 0)
(-0.0748862 0.206631 0)
(-0.112971 0.185093 0)
(-0.146198 0.163541 0)
(-0.180711 0.141586 0)
(-0.22729 0.109246 0)
(-0.277364 0.0611597 0)
(-0.307774 0.00924434 0)
(-0.30822 -0.0322585 0)
(-0.273418 -0.0609355 0)
(-0.226903 -0.0762865 0)
(-0.195549 -0.0689339 0)
(-0.176524 -0.0299076 0)
(-0.164135 -0.0147877 0)
(-0.156339 -0.0277236 0)
(-0.150045 -0.0330274 0)
(-0.147464 -0.043772 0)
(-0.00945908 -0.554127 0)
(0.192117 -0.17044 0)
(0.233799 0.104246 0)
(0.186349 0.190587 0)
(0.126796 0.224526 0)
(0.081494 0.23582 0)
(0.0480275 0.240081 0)
(0.0260909 0.237662 0)
(0.00595919 0.217658 0)
(-0.0107587 0.191354 0)
(-0.0238308 0.174769 0)
(-0.0525048 0.159183 0)
(-0.0959586 0.114503 0)
(-0.127004 0.0450323 0)
(-0.149254 -0.024178 0)
(-0.165513 -0.0792633 0)
(-0.162688 -0.102082 0)
(-0.155555 -0.0825403 0)
(-0.148919 -0.0434712 0)
(-0.129412 -0.042069 0)
(-0.108344 -0.0439557 0)
(-0.0983538 -0.0435444 0)
(-0.0932424 -0.0498866 0)
(-0.0485161 -0.633379 0)
(0.131714 -0.290351 0)
(0.17185 0.0669746 0)
(0.137938 0.193327 0)
(0.107404 0.237446 0)
(0.085355 0.257158 0)
(0.0667143 0.25686 0)
(0.0572248 0.249541 0)
(0.0437825 0.234118 0)
(0.0314393 0.200898 0)
(0.0370462 0.180535 0)
(0.0451396 0.177441 0)
(0.0411051 0.145307 0)
(0.0387638 0.075601 0)
(0.0381007 0.00940225 0)
(0.0256362 -0.053244 0)
(-0.00907467 -0.0889657 0)
(-0.0471143 -0.0750571 0)
(-0.0594239 -0.0559586 0)
(-0.0526162 -0.0632895 0)
(-0.0471091 -0.0549054 0)
(-0.0460947 -0.0499174 0)
(-0.0388214 -0.0583301 0)
(-0.0949194 -0.658141 0)
(0.0607075 -0.351182 0)
(0.0419505 0.159056 0)
(0.0186712 0.234757 0)
(0.00672288 0.261146 0)
(0.00269402 0.277697 0)
(-0.0020304 0.267167 0)
(0.00650881 0.256508 0)
(0.0112603 0.241073 0)
(0.0111261 0.200128 0)
(0.0202264 0.170589 0)
(0.0378047 0.165468 0)
(0.0555451 0.136189 0)
(0.0676207 0.0681601 0)
(0.0705591 0.00630825 0)
(0.0647419 -0.0363471 0)
(0.052774 -0.0468786 0)
(0.0361104 -0.0375838 0)
(0.0225782 -0.0402964 0)
(0.0194773 -0.0585917 0)
(0.01487 -0.0487512 0)
(0.0096705 -0.0487162 0)
(0.00909102 -0.0652476 0)
(-0.156603 -0.619268 0)
(-0.0458921 -0.342431 0)
(-0.112337 0.141143 0)
(-0.106494 0.263871 0)
(-0.119735 0.275664 0)
(-0.11641 0.274376 0)
(-0.111484 0.263598 0)
(-0.0962695 0.251135 0)
(-0.0771923 0.230927 0)
(-0.0598268 0.189378 0)
(-0.0416888 0.156182 0)
(-0.0194519 0.141518 0)
(0.0053845 0.110695 0)
(0.0229726 0.0550513 0)
(0.0318147 0.00400643 0)
(0.0365412 -0.0331161 0)
(0.0353323 -0.0442592 0)
(0.0376631 -0.0374807 0)
(0.0445253 -0.0427423 0)
(0.0445223 -0.0551646 0)
(0.0349378 -0.0462055 0)
(0.0295852 -0.0556943 0)
(0.0376908 -0.0664889 0)
(-0.219786 -0.49271 0)
(-0.209362 -0.277663 0)
(-0.283962 0.104402 0)
(-0.274514 0.27705 0)
(-0.271778 0.268112 0)
(-0.28197 0.256916 0)
(-0.260344 0.244007 0)
(-0.228332 0.225249 0)
(-0.194344 0.197974 0)
(-0.163236 0.16317 0)
(-0.137749 0.135391 0)
(-0.111166 0.114421 0)
(-0.083971 0.0844523 0)
(-0.0628367 0.0401108 0)
(-0.0432727 -0.0133484 0)
(-0.0268701 -0.0476322 0)
(-0.0158588 -0.0431387 0)
(-0.0187965 -0.0437227 0)
(-0.00608155 -0.057473 0)
(0.0387178 -0.0629357 0)
(0.0590287 -0.0410874 0)
(0.0467653 -0.0614943 0)
(0.0705938 -0.0528515 0)
(-0.306872 -0.251677 0)
(-0.43446 -0.0623191 0)
(-0.531665 0.145581 0)
(-0.503795 0.254039 0)
(-0.479371 0.256316 0)
(-0.440286 0.234168 0)
(-0.409797 0.215418 0)
(-0.371455 0.190041 0)
(-0.327366 0.156765 0)
(-0.286382 0.133423 0)
(-0.254589 0.111441 0)
(-0.224226 0.084711 0)
(-0.19985 0.0562897 0)
(-0.192677 0.017494 0)
(-0.183694 -0.0290967 0)
(-0.135526 -0.0553393 0)
(-0.0467978 -0.0455679 0)
(0.00655022 -0.0508221 0)
(0.0324923 -0.0957084 0)
(0.0948429 -0.108466 0)
(0.249876 -0.047799 0)
(0.24753 -0.0601156 0)
(0.0643201 0.0955867 0)
(-0.277561 0.0961455 0)
(-0.459031 0.109119 0)
(-0.59285 0.189467 0)
(-0.616547 0.225541 0)
(-0.605572 0.21414 0)
(-0.583073 0.187559 0)
(-0.552719 0.160131 0)
(-0.515851 0.129073 0)
(-0.475604 0.0957306 0)
(-0.419179 0.0813905 0)
(-0.358394 0.068523 0)
(-0.292682 0.0516346 0)
(-0.21208 0.0415435 0)
(-0.117317 0.0251475 0)
(0.0582895 -0.0590654 0)
(0.185189 -0.173829 0)
(0.063788 -0.114346 0)
(-0.0683817 -0.0500625 0)
(-0.146497 -0.133609 0)
(-0.294156 -0.197389 0)
(-0.34671 -0.0831724 0)
(-0.360814 0.0982345 0)
(-0.330868 0.183361 0)
(-0.167845 0.333173 0)
(-0.293528 0.281957 0)
(-0.503818 0.27032 0)
(-0.61288 0.238616 0)
(-0.643895 0.202597 0)
(-0.628405 0.171161 0)
(-0.584444 0.143628 0)
(-0.529489 0.114472 0)
(-0.469029 0.0652809 0)
(-0.397663 0.0388534 0)
(-0.339371 0.0200319 0)
(-0.311689 -0.0503769 0)
(-0.413077 -0.0766839 0)
(-0.468832 -0.20533 0)
(-0.534412 -0.262942 0)
(-0.589525 -0.0470716 0)
(-0.58513 0.0687158 0)
(-0.535936 0.0504268 0)
(-0.498246 -0.00492707 0)
(-0.487714 -0.0374481 0)
(-0.482419 -0.0331544 0)
(-0.450649 0.00160909 0)
(-0.397616 0.0684276 0)
(-0.0874095 0.48914 0)
(-0.0746068 0.425808 0)
(-0.172299 0.46684 0)
(-0.33736 0.347042 0)
(-0.399589 0.23357 0)
(-0.48881 0.131809 0)
(-0.533967 0.0656279 0)
(-0.55822 0.04245 0)
(-0.579853 -0.0468979 0)
(-0.586114 -0.0577225 0)
(-0.562129 -0.0178704 0)
(-0.497487 0.093722 0)
(-0.439227 0.0723716 0)
(-0.412283 -0.0311211 0)
(-0.429467 -0.0871134 0)
(-0.432292 -0.0987088 0)
(-0.405187 -0.0951754 0)
(-0.37544 -0.087881 0)
(-0.361197 -0.108526 0)
(-0.358011 -0.114903 0)
(-0.351099 -0.0830188 0)
(-0.33191 -0.0336027 0)
(-0.302755 0.0167149 0)
(-0.0445942 0.535392 0)
(0.0463775 0.422184 0)
(0.0569041 0.547675 0)
(0.0996397 0.496746 0)
(0.159314 0.640216 0)
(-0.123358 0.219458 0)
(-0.265418 0.160144 0)
(-0.337251 0.10334 0)
(-0.347494 0.0431692 0)
(-0.342212 -0.0341037 0)
(-0.322355 -0.0693586 0)
(-0.274627 -0.0766454 0)
(-0.222266 -0.0872069 0)
(-0.206126 -0.102338 0)
(-0.226555 -0.100001 0)
(-0.240612 -0.0787647 0)
(-0.23677 -0.0593034 0)
(-0.22646 -0.0529662 0)
(-0.222445 -0.0664641 0)
(-0.228888 -0.081625 0)
(-0.23459 -0.0723228 0)
(-0.227904 -0.0453284 0)
(-0.205692 -0.019249 0)
(-0.0225182 0.502912 0)
(0.0950041 0.341431 0)
(0.132902 0.424131 0)
(0.299647 0.462839 0)
(0.146207 0.718738 0)
(0.00272701 0.411936 0)
(-0.135171 0.265166 0)
(-0.16359 0.126698 0)
(-0.140685 -0.00242255 0)
(-0.129151 -0.0612337 0)
(-0.111416 -0.0775545 0)
(-0.0878794 -0.0798168 0)
(-0.0639108 -0.0850571 0)
(-0.054017 -0.091584 0)
(-0.0654154 -0.0804821 0)
(-0.0839198 -0.07482 0)
(-0.0975288 -0.0743141 0)
(-0.104582 -0.0739923 0)
(-0.108659 -0.077734 0)
(-0.114944 -0.0822467 0)
(-0.119041 -0.0778874 0)
(-0.113955 -0.0650114 0)
(-0.0968212 -0.0534147 0)
(-0.0202623 0.437477 0)
(0.122944 0.239934 0)
(0.154681 0.300893 0)
(0.624605 0.651816 0)
(0.0711797 0.744604 0)
(0.0399817 0.553639 0)
(-0.0809397 0.337526 0)
(-0.0611457 0.130237 0)
(-0.044916 -0.0214751 0)
(-0.0337746 -0.0798317 0)
(-0.016773 -0.0956188 0)
(-0.0025644 -0.0937672 0)
(0.00748818 -0.0919561 0)
(0.0107866 -0.0853574 0)
(0.0107648 -0.0664073 0)
(0.00929376 -0.0532706 0)
(0.0040579 -0.0544516 0)
(-0.00460417 -0.0593745 0)
(-0.0140726 -0.0663221 0)
(-0.0235461 -0.0719339 0)
(-0.0305703 -0.073254 0)
(-0.0309232 -0.0694799 0)
(-0.0233663 -0.0676568 0)
(-0.0354475 0.361289 0)
(0.143747 0.132701 0)
(0.115944 -0.358153 0)
(0.0691546 0.809907 0)
(-0.0171216 0.936484 0)
(-0.0360246 0.58932 0)
(-0.0481873 0.356119 0)
(0.00231003 0.11589 0)
(0.000600932 -0.0345239 0)
(0.0136073 -0.0925917 0)
(0.0218892 -0.108287 0)
(0.0302723 -0.104834 0)
(0.0357357 -0.097579 0)
(0.0365781 -0.0871842 0)
(0.0367667 -0.0713363 0)
(0.0398916 -0.0578355 0)
(0.0424426 -0.0530041 0)
(0.0413334 -0.0530379 0)
(0.0374032 -0.0564004 0)
(0.0321055 -0.0612292 0)
(0.0272733 -0.0656672 0)
(0.0255542 -0.0688451 0)
(0.0272907 -0.0725181 0)
(-0.0610057 0.288061 0)
(0.148661 0.117513 0)
(0.137656 0.109361 0)
(-0.231151 0.913102 0)
(0.0495589 0.901233 0)
(-0.0969451 0.592361 0)
(-0.0125803 0.327344 0)
(0.0294727 0.0885685 0)
(0.031279 -0.039925 0)
(0.0372195 -0.0984443 0)
(0.0395466 -0.113786 0)
(0.0409855 -0.109385 0)
(0.0418037 -0.099226 0)
(0.0417819 -0.0870112 0)
(0.042631 -0.0732548 0)
(0.0455748 -0.0617178 0)
(0.0490172 -0.0554105 0)
(0.0510659 -0.0535963 0)
(0.0514457 -0.0552348 0)
(0.0507194 -0.0591068 0)
(0.0497221 -0.0639813 0)
(0.0495821 -0.0691399 0)
(0.0500091 -0.0748942 0)
(-0.0842044 0.249025 0)
(0.152614 0.0956254 0)
(0.10927 0.172226 0)
(0.00709796 0.988846 0)
(0.0176002 0.849909 0)
(-0.0592816 0.593989 0)
(0.013795 0.282567 0)
(0.0466868 0.0732921 0)
(0.0505649 -0.0463603 0)
(0.0494487 -0.0990461 0)
(0.0446335 -0.111979 0)
(0.0395663 -0.107265 0)
(0.0358947 -0.0971847 0)
(0.0339632 -0.0858818 0)
(0.0341587 -0.0744425 0)
(0.0365652 -0.0647409 0)
(0.0402011 -0.0585655 0)
(0.0438612 -0.0561274 0)
(0.0469546 -0.0569137 0)
(0.0493768 -0.0601054 0)
(0.0512362 -0.0648067 0)
(0.0529215 -0.0703393 0)
(0.0538323 -0.0764376 0)
(-0.0904799 0.22716 0)
(0.178815 0.0434226 0)
(0.134785 0.186553 0)
(0.0373108 1.0875 0)
(-0.0551342 0.885641 0)
(-0.0414891 0.576972 0)
(0.0161709 0.2392 0)
(0.0529158 0.0534952 0)
(0.0571744 -0.0500815 0)
(0.0501191 -0.0935227 0)
(0.0394537 -0.103743 0)
(0.0299374 -0.100135 0)
(0.0235177 -0.0924848 0)
(0.0203625 -0.0838943 0)
(0.0201646 -0.0752072 0)
(0.0224793 -0.0676436 0)
(0.0264892 -0.0625216 0)
(0.0312324 -0.0603327 0)
(0.0359694 -0.0608532 0)
(0.0402491 -0.0635123 0)
(0.0438221 -0.0676379 0)
(0.0467358 -0.0726419 0)
(0.0483229 -0.0781622 0)
(-0.0903701 0.0941067 0)
(0.14924 -0.0897418 0)
(-0.0431334 0.249424 0)
(-0.171146 1.15086 0)
(-0.140393 0.889311 0)
(-0.0628645 0.516247 0)
(0.0080835 0.187903 0)
(0.0466053 0.0329913 0)
(0.0501895 -0.0498551 0)
(0.040222 -0.0834852 0)
(0.027134 -0.0920566 0)
(0.0166031 -0.0910619 0)
(0.010114 -0.0871256 0)
(0.00729854 -0.0819549 0)
(0.00751956 -0.0762075 0)
(0.0101892 -0.0709318 0)
(0.0145761 -0.0672087 0)
(0.0198364 -0.0655619 0)
(0.0252186 -0.065956 0)
(0.0301769 -0.0680421 0)
(0.0343585 -0.0713579 0)
(0.0377117 -0.0754636 0)
(0.03959 -0.0800175 0)
(-0.0722736 0.0973861 0)
(0.184993 0.0355408 0)
(-0.284339 0.513414 0)
(-0.332289 1.10615 0)
(-0.200846 0.811719 0)
(-0.0869331 0.410179 0)
(-0.00235649 0.133404 0)
(0.0314515 0.0145208 0)
(0.0338592 -0.0466169 0)
(0.0239558 -0.0719075 0)
(0.0123752 -0.0805343 0)
(0.00403035 -0.0830944 0)
(-0.000486396 -0.0830395 0)
(-0.00186227 -0.0811093 0)
(-0.000729888 -0.0779795 0)
(0.00237995 -0.0746797 0)
(0.00684658 -0.072169 0)
(0.0119816 -0.0709711 0)
(0.0171516 -0.0711918 0)
(0.0218808 -0.0726726 0)
(0.0258466 -0.0751315 0)
(0.0290062 -0.0782609 0)
(0.0307522 -0.081801 0)
(-0.120961 -0.126175 0)
(-0.127654 0.234898 0)
(-0.385835 0.703964 0)
(-0.362886 1.01532 0)
(-0.214798 0.67816 0)
(-0.076421 0.287364 0)
(-0.0126891 0.0850318 0)
(0.0139133 0.000725908 0)
(0.0143881 -0.0424691 0)
(0.00697944 -0.0621947 0)
(-0.00043078 -0.0721537 0)
(-0.00502359 -0.0780936 0)
(-0.00688842 -0.0811297 0)
(-0.00660023 -0.0816346 0)
(-0.00460363 -0.0804197 0)
(-0.00128829 -0.0785228 0)
(0.00288482 -0.0768317 0)
(0.00742238 -0.0758681 0)
(0.0118651 -0.0758423 0)
(0.0158628 -0.0767383 0)
(0.0191779 -0.0784079 0)
(0.0217933 -0.0806536 0)
(0.0231441 -0.0832729 0)
(-0.149289 0.160286 0)
(-0.265734 0.460397 0)
(-0.399149 0.756568 0)
(-0.322911 0.9102 0)
(-0.188622 0.531158 0)
(-0.0536752 0.185529 0)
(-0.0219244 0.0511957 0)
(-0.00188 -0.00902636 0)
(-0.00261886 -0.0396189 0)
(-0.00608184 -0.0564723 0)
(-0.00894771 -0.0680591 0)
(-0.0100945 -0.0763398 0)
(-0.0097198 -0.0812801 0)
(-0.00812695 -0.0832636 0)
(-0.00557752 -0.0832148 0)
(-0.00231915 -0.082133 0)
(0.00135203 -0.0808646 0)
(0.00511798 -0.0799301 0)
(0.00867866 -0.079609 0)
(0.0118096 -0.0799779 0)
(0.014345 -0.0809776 0)
(0.0163197 -0.0824785 0)
(0.0171828 -0.0843345 0)
(-0.117928 0.34388 0)
(-0.259421 0.568215 0)
(-0.32437 0.770336 0)
(-0.259427 0.801226 0)
(-0.123792 0.394892 0)
(-0.0358997 0.122089 0)
(-0.0236846 0.0313291 0)
(-0.0118318 -0.0148531 0)
(-0.01241 -0.0384576 0)
(-0.0131647 -0.05461 0)
(-0.0131369 -0.0674529 0)
(-0.0121205 -0.0769344 0)
(-0.0103419 -0.0828136 0)
(-0.007982 -0.0855525 0)
(-0.00517137 -0.0860891 0)
(-0.00208088 -0.0853819 0)
(0.00108756 -0.0842268 0)
(0.00415254 -0.0831647 0)
(0.00692218 -0.082513 0)
(0.00926632 -0.0824061 0)
(0.0110921 -0.0828409 0)
(0.0124507 -0.0837323 0)
(0.0128269 -0.0849579 0)
(-0.0918004 0.520429 0)
(-0.215334 0.66664 0)
(-0.241478 0.761651 0)
(-0.178464 0.701602 0)
(-0.0514019 0.292028 0)
(-0.0200086 0.0918967 0)
(-0.0162665 0.0210462 0)
(-0.0137028 -0.0170454 0)
(-0.0147166 -0.0380046 0)
(-0.0150409 -0.0547913 0)
(-0.0141068 -0.0685284 0)
(-0.0123064 -0.0786602 0)
(-0.00997508 -0.0850499 0)
(-0.00728447 -0.0881735 0)
(-0.00437588 -0.0889465 0)
(-0.00141453 -0.0883216 0)
(0.00140805 -0.0870646 0)
(0.00395968 -0.0857466 0)
(0.00613051 -0.0847187 0)
(0.00785142 -0.0841571 0)
(0.00907264 -0.0840937 0)
(0.0098984 -0.0844664 0)
(0.00982836 -0.0851668 0)
(-0.0622602 0.655131 0)
(-0.154782 0.722856 0)
(-0.159007 0.745127 0)
(-0.088334 0.602309 0)
(0.0119951 0.232122 0)
(0.0061542 0.0864262 0)
(0.00126633 0.0214097 0)
(-0.00601719 -0.013802 0)
(-0.0106015 -0.0361356 0)
(-0.0130289 -0.0545952 0)
(-0.0130295 -0.0695298 0)
(-0.0116762 -0.08048 0)
(-0.00940209 -0.0874612 0)
(-0.00660276 -0.0909492 0)
(-0.00359101 -0.0918303 0)
(-0.000632579 -0.0911036 0)
(0.0020315 -0.0895845 0)
(0.00427407 -0.0878846 0)
(0.00602815 -0.0864089 0)
(0.0072708 -0.0853733 0)
(0.00800822 -0.0848345 0)
(0.00835747 -0.0847452 0)
(0.00787359 -0.0849888 0)
(-0.0382579 0.742843 0)
(-0.0850996 0.740604 0)
(-0.0632739 0.719167 0)
(0.015345 0.495939 0)
(0.069396 0.218765 0)
(0.0464009 0.0940968 0)
(0.0262548 0.0322498 0)
(0.0094019 -0.0027674 0)
(-0.00165322 -0.0295626 0)
(-0.00835428 -0.0517476 0)
(-0.0108744 -0.0691429 0)
(-0.0107968 -0.0817177 0)
(-0.00894313 -0.0897864 0)
(-0.00607641 -0.093855 0)
(-0.00284002 -0.0948652 0)
(0.000273001 -0.093926 0)
(0.00294739 -0.0919884 0)
(0.0050369 -0.0897656 0)
(0.00650123 -0.0877366 0)
(0.00736427 -0.0861645 0)
(0.00766762 -0.0851352 0)
(0.00758903 -0.0846042 0)
(0.00670954 -0.0844409 0)
(-0.0245841 0.783751 0)
(-0.0181888 0.682671 0)
(0.0615782 0.650031 0)
(0.131051 0.448012 0)
(0.129008 0.235059 0)
(0.0921096 0.120401 0)
(0.0556583 0.0573293 0)
(0.0283807 0.0175303 0)
(0.00957862 -0.016503 0)
(-0.00267489 -0.0449892 0)
(-0.00841503 -0.066696 0)
(-0.00983519 -0.0821399 0)
(-0.00840867 -0.0920608 0)
(-0.0053837 -0.0970401 0)
(-0.00180574 -0.0982199 0)
(0.0015748 -0.0969464 0)
(0.00433785 -0.094409 0)
(0.00633163 -0.0914923 0)
(0.00754921 -0.0887775 0)
(0.00805726 -0.086585 0)
(0.00795669 -0.0850276 0)
(0.00744168 -0.0840585 0)
(0.00615319 -0.083518 0)
(-0.0176941 0.781257 0)
(0.0811859 0.62242 0)
(0.119037 0.599127 0)
(0.184308 0.448371 0)
(0.159065 0.26585 0)
(0.123037 0.159122 0)
(0.0773312 0.0926805 0)
(0.044042 0.044944 0)
(0.0201186 0.00283611 0)
(0.00344321 -0.0344665 0)
(-0.0054036 -0.062226 0)
(-0.00811764 -0.0819306 0)
(-0.0069553 -0.094499 0)
(-0.00370809 -0.100676 0)
(0.000177739 -0.101984 0)
(0.00375157 -0.1002 0)
(0.00652428 -0.0968493 0)
(0.00834345 -0.0930487 0)
(0.00924387 -0.0895093 0)
(0.00934589 -0.0866126 0)
(0.00878567 -0.0844888 0)
(0.00781791 -0.0830826 0)
(0.00609934 -0.0821968 0)
(-0.00927193 0.78399 0)
(0.123677 0.635919 0)
(0.123395 0.594811 0)
(0.166431 0.426281 0)
(0.163139 0.299309 0)
(0.131854 0.203035 0)
(0.0879592 0.131061 0)
(0.0543804 0.0752676 0)
(0.0289298 0.0246408 0)
(0.010445 -0.021052 0)
(-0.000268128 -0.0562659 0)
(-0.00384902 -0.0813856 0)
(-0.00291958 -0.0971017 0)
(0.000264787 -0.104597 0)
(0.00404534 -0.10595 0)
(0.00742549 -0.103472 0)
(0.00988378 -0.0991159 0)
(0.0112734 -0.0942785 0)
(0.0116668 -0.089816 0)
(0.0112261 -0.0861645 0)
(0.0101345 -0.083462 0)
(0.00864228 -0.0816383 0)
(0.00645044 -0.0804499 0)
(-0.00764636 0.716605 0)
(0.131647 0.572737 0)
(0.186108 0.548115 0)
(0.184175 0.420523 0)
(0.152371 0.332595 0)
(0.12811 0.240351 0)
(0.0880104 0.165136 0)
(0.0599806 0.103836 0)
(0.0368464 0.0459347 0)
(0.0198564 -0.00647867 0)
(0.00893902 -0.0494289 0)
(0.0049843 -0.0802196 0)
(0.00521811 -0.0992002 0)
(0.00755023 -0.108062 0)
(0.0104923 -0.109444 0)
(0.0130347 -0.10621 0)
(0.0146525 -0.100784 0)
(0.0152135 -0.094869 0)
(0.0148166 -0.0894776 0)
(0.0136496 -0.0850942 0)
(0.0118936 -0.0818569 0)
(0.00982214 -0.0796695 0)
(0.00711982 -0.0782471 0)
(0.0034658 0.673957 0)
(0.133678 0.504559 0)
(0.225695 0.469158 0)
(0.125198 0.429594 0)
(0.136074 0.360594 0)
(0.112943 0.263823 0)
(0.0822186 0.192736 0)
(0.0627478 0.1272 0)
(0.0445715 0.0638296 0)
(0.0317133 0.00627667 0)
(0.0223066 -0.0425337 0)
(0.0181555 -0.0781203 0)
(0.0172575 -0.100052 0)
(0.018071 -0.110199 0)
(0.0194326 -0.111643 0)
(0.0204634 -0.10773 0)
(0.020691 -0.101325 0)
(0.020011 -0.0944385 0)
(0.0185376 -0.0882346 0)
(0.0164565 -0.0832377 0)
(0.0139482 -0.0795748 0)
(0.0112285 -0.0771233 0)
(0.00798657 -0.0755565 0)
(0.0087614 0.595443 0)
(0.153024 0.274265 0)
(0.0861295 0.421958 0)
(0.0760199 0.455165 0)
(0.121849 0.364482 0)
(0.0872475 0.28005 0)
(0.0770013 0.21261 0)
(0.0640935 0.143408 0)
(0.0526646 0.0765254 0)
(0.0446173 0.0155201 0)
(0.0379576 -0.0365458 0)
(0.0337806 -0.0752394 0)
(0.0316689 -0.0993097 0)
(0.0306478 -0.110465 0)
(0.0299607 -0.111957 0)
(0.0290012 -0.107489 0)
(0.0274355 -0.100299 0)
(0.0252182 -0.0926661 0)
(0.0224771 -0.0858759 0)
(0.0193819 -0.0804709 0)
(0.0160589 -0.076552 0)
(0.0127001 -0.0739705 0)
(0.00893853 -0.0723755 0)
(0.0548119 0.301754 0)
(0.0723496 0.348881 0)
(0.00331963 0.449191 0)
(0.0992428 0.45241 0)
(0.0763722 0.358131 0)
(0.0739314 0.292327 0)
(0.0716132 0.223032 0)
(0.0662107 0.152095 0)
(0.0615102 0.0837421 0)
(0.0578387 0.0214342 0)
(0.0537795 -0.0318274 0)
(0.0498047 -0.0718838 0)
(0.0465825 -0.0970132 0)
(0.0436517 -0.108658 0)
(0.0407008 -0.110073 0)
(0.0375095 -0.105176 0)
(0.0339715 -0.0974633 0)
(0.0301311 -0.0893951 0)
(0.0261145 -0.0823215 0)
(0.0220397 -0.0767707 0)
(0.0179835 -0.0728039 0)
(0.0140347 -0.0702523 0)
(0.00982039 -0.0687506 0)
(0.109732 0.367702 0)
(-0.0113999 0.362327 0)
(0.0596627 0.493187 0)
(0.0484125 0.42175 0)
(0.0563129 0.358754 0)
(0.0647715 0.294536 0)
(0.0684937 0.224583 0)
(0.0702179 0.15408 0)
(0.0707679 0.086123 0)
(0.0704341 0.0243167 0)
(0.0683441 -0.028326 0)
(0.0645469 -0.0681799 0)
(0.060217 -0.0932283 0)
(0.0553355 -0.104715 0)
(0.0500563 -0.105868 0)
(0.0446096 -0.100704 0)
(0.0391735 -0.0928156 0)
(0.0338812 -0.0847043 0)
(0.0288128 -0.0776984 0)
(0.02399 -0.0722751 0)
(0.0193805 -0.0684597 0)
(0.0150225 -0.0660746 0)
(0.0104931 -0.0647784 0)
(0.0472351 0.321919 0)
(0.0004938 0.481647 0)
(0.0148858 0.454061 0)
(0.0303273 0.406182 0)
(0.0476639 0.350946 0)
(0.0602347 0.287344 0)
(0.0692499 0.219518 0)
(0.0756784 0.151035 0)
(0.0795785 0.0849495 0)
(0.0813471 0.0250386 0)
(0.080455 -0.025632 0)
(0.0765461 -0.0639735 0)
(0.0709053 -0.0878893 0)
(0.0639635 -0.098599 0)
(0.056388 -0.0993757 0)
(0.0488761 -0.0942169 0)
(0.0418855 -0.0866181 0)
(0.0355883 -0.0789329 0)
(0.0299386 -0.0723553 0)
(0.024787 -0.0672932 0)
(0.0199898 -0.0637644 0)
(0.015461 -0.0616307 0)
(0.0108082 -0.0606023 0)
(-0.0119111 0.377527 0)
(-0.0285616 0.438104 0)
(0.0102132 0.425819 0)
(0.0289975 0.38737 0)
(0.0467525 0.335655 0)
(0.0610387 0.275368 0)
(0.0724887 0.210592 0)