/*--------------------------------*- C++ -*----------------------------------*\
| =========                 |                                                 |
| \\      /  F ield         | OpenFOAM: The Open Source CFD Toolbox           |
|  \\    /   O peration     | Version:  2312                                  |
|   \\  /    A nd           | Website:  www.openfoam.com                      |
|    \\/     M anipulation  |                                                 |
\*---------------------------------------------------------------------------*/
FoamFile
{
    version     2.0;
    format      ascii;
    arch        "LSB;label=32;scalar=64";
    class       surfaceScalarField;
    location    "2.55";
    object      phi;
}
// * * * * * * * * * * * * * * * * * * * * * * * * * * * * * * * * * * * * * //

dimensions      [0 3 -1 0 0 0 0];

oriented        oriented;

internalField   nonuniform List<scalar> 
4432
(
1.91436e-06
-1.91437e-06
2.51162e-06
-5.97272e-07
2.76299e-06
-2.51383e-07
2.74307e-06
1.99199e-08
2.60043e-06
1.42638e-07
2.44443e-06
1.55993e-07
2.38376e-06
6.06701e-08
2.49297e-06
-1.09217e-07
2.8121e-06
-3.19135e-07
3.34007e-06
-5.27975e-07
4.04465e-06
-7.0458e-07
4.8823e-06
-8.37639e-07
5.79273e-06
-9.10428e-07
6.68657e-06
-8.93831e-07
7.44305e-06
-7.56476e-07
7.90825e-06
-4.65189e-07
7.94447e-06
-3.62022e-08
7.49112e-06
4.53359e-07
6.54846e-06
9.42682e-07
5.19321e-06
1.35527e-06
3.57011e-06
1.62312e-06
1.76681e-06
1.80331e-06
1.76682e-06
8.23355e-07
-2.73774e-06
1.36596e-06
-1.13989e-06
1.69432e-06
-5.79752e-07
1.79e-06
-7.5776e-08
1.78605e-06
1.46581e-07
1.74628e-06
1.95759e-07
1.78056e-06
2.63845e-08
1.96709e-06
-2.95755e-07
2.35242e-06
-7.04474e-07
2.93825e-06
-1.1138e-06
3.69447e-06
-1.4608e-06
4.58078e-06
-1.72395e-06
5.53996e-06
-1.8696e-06
6.48258e-06
-1.83643e-06
7.28828e-06
-1.56216e-06
7.79157e-06
-9.68457e-07
7.85708e-06
-1.01692e-07
7.40473e-06
9.0574e-07
6.44612e-06
1.90132e-06
5.06336e-06
2.73806e-06
3.42307e-06
3.26346e-06
1.62417e-06
3.60225e-06
3.39104e-06
2.90835e-07
-3.02858e-06
7.09022e-07
-1.55809e-06
9.94492e-07
-8.65227e-07
1.1099e-06
-1.91185e-07
1.09961e-06
1.56864e-07
1.06434e-06
2.31026e-07
1.13827e-06
-4.75443e-08
1.37077e-06
-5.28254e-07
1.81166e-06
-1.14537e-06
2.46191e-06
-1.76406e-06
3.28845e-06
-2.28734e-06
4.2557e-06
-2.6912e-06
5.30703e-06
-2.92093e-06
6.34663e-06
-2.87602e-06
7.25379e-06
-2.46931e-06
7.83548e-06
-1.55014e-06
7.93856e-06
-2.04761e-07
7.50142e-06
1.34289e-06
6.535e-06
2.86775e-06
5.13543e-06
4.13764e-06
3.49277e-06
4.90613e-06
1.72167e-06
5.37336e-06
5.1127e-06
-1.63124e-09
-3.02697e-06
3.18591e-07
-1.87832e-06
5.40352e-07
-1.087e-06
5.98471e-07
-2.49314e-07
5.373e-07
2.18027e-07
4.78242e-07
2.90076e-07
5.36724e-07
-1.06033e-07
7.60065e-07
-7.51601e-07
1.22711e-06
-1.61241e-06
1.92606e-06
-2.46302e-06
2.82689e-06
-3.18816e-06
3.89861e-06
-3.76291e-06
5.07298e-06
-4.09529e-06
6.24244e-06
-4.04547e-06
7.30528e-06
-3.53214e-06
8.02622e-06
-2.27107e-06
8.22446e-06
-4.02998e-07
7.82856e-06
1.73881e-06
6.86589e-06
3.83043e-06
5.43713e-06
5.56642e-06
3.77807e-06
6.56521e-06
2.00225e-06
7.1492e-06
7.11499e-06
-2.69725e-07
-2.75724e-06
9.09207e-08
-2.23897e-06
3.7527e-07
-1.37135e-06
3.95373e-07
-2.69414e-07
1.80161e-07
4.33241e-07
3.35543e-10
4.69905e-07
9.84151e-09
-1.15536e-07
2.05747e-07
-9.47503e-07
6.01659e-07
-2.00832e-06
1.20224e-06
-3.0636e-06
2.07429e-06
-4.06021e-06
3.20104e-06
-4.88965e-06
4.492e-06
-5.38624e-06
5.81012e-06
-5.36359e-06
7.09363e-06
-4.81565e-06
8.05126e-06
-3.22871e-06
8.43417e-06
-7.85907e-07
8.13759e-06
2.03539e-06
7.23658e-06
4.73144e-06
5.81639e-06
6.98662e-06
4.13339e-06
8.24821e-06
2.28522e-06
8.99739e-06
9.4002e-06
-5.9211e-07
-2.16518e-06
-4.04417e-07
-2.4267e-06
-7.58314e-08
-1.69996e-06
-9.99501e-08
-2.45322e-07
-4.34667e-07
7.67934e-07
-6.97587e-07
7.32804e-07
-7.02296e-07
-1.10842e-07
-2.93621e-07
-1.35619e-06
3.31344e-07
-2.63328e-06
9.94666e-07
-3.72691e-06
1.72398e-06
-4.78951e-06
2.58341e-06
-5.74907e-06
3.63411e-06
-6.43693e-06
4.88525e-06
-6.61472e-06
6.28406e-06
-6.21446e-06
7.47148e-06
-4.41612e-06
8.07395e-06
-1.38837e-06
7.97175e-06
2.1376e-06
7.19991e-06
5.50328e-06
5.9043e-06
8.28224e-06
4.38708e-06
9.76544e-06
2.54259e-06
1.08419e-05
1.19428e-05
-4.31815e-06
2.15292e-06
-6.52107e-06
-2.23844e-07
-7.15868e-06
-1.06242e-06
-6.77573e-06
-6.28332e-07
-5.7453e-06
-2.62543e-07
-4.49385e-06
-5.18687e-07
-3.46616e-06
-1.13855e-06
-2.40213e-06
-2.42023e-06
-1.09508e-06
-3.94032e-06
2.4868e-07
-5.07064e-06
1.29653e-06
-5.83731e-06
2.01226e-06
-6.46476e-06
3.04003e-06
-7.46467e-06
4.36111e-06
-7.93577e-06
5.61156e-06
-7.46488e-06
6.69588e-06
-5.50042e-06
7.7594e-06
-2.45189e-06
8.29576e-06
1.60124e-06
7.85692e-06
5.94212e-06
7.10133e-06
9.03783e-06
5.39755e-06
1.14692e-05
3.04182e-06
1.31976e-05
1.49846e-05
-5.97193e-06
8.1248e-06
-9.13435e-06
2.93854e-06
-1.08629e-05
6.66095e-07
-1.14473e-05
-4.39967e-08
-1.10801e-05
-6.29737e-07
-1.01584e-05
-1.4404e-06
-8.86494e-06
-2.432e-06
-7.05601e-06
-4.22916e-06
-4.2849e-06
-6.71142e-06
2.21288e-07
-9.57682e-06
5.9778e-06
-1.15938e-05
8.54767e-06
-9.03461e-06
8.15691e-06
-7.07388e-06
6.81606e-06
-6.59489e-06
5.18083e-06
-5.82963e-06
3.68395e-06
-4.00352e-06
3.55979e-06
-2.32772e-06
6.00019e-06
-8.39168e-07
7.70241e-06
4.23991e-06
8.50453e-06
8.23571e-06
6.38027e-06
1.35935e-05
3.57332e-06
1.60046e-05
1.85579e-05
-5.21428e-06
5.21426e-06
-7.90186e-06
2.68758e-06
-8.77574e-06
8.73885e-07
-8.15774e-06
-6.18002e-07
-6.14683e-06
-2.01091e-06
-3.24501e-06
-2.90182e-06
-4.51144e-07
-2.79386e-06
1.52088e-06
-1.97202e-06
2.54385e-06
-1.02297e-06
2.61103e-06
-6.71724e-08
2.02047e-06
5.90565e-07
-2.04677e-07
2.22515e-06
-3.89001e-06
3.68534e-06
-7.61828e-06
3.72828e-06
-9.5979e-06
1.97962e-06
-8.25706e-06
-1.34083e-06
-4.77321e-06
-3.48385e-06
-2.89207e-06
-1.88114e-06
-2.89207e-06
-2.17636e-06
7.3906e-06
-3.93792e-06
4.44913e-06
-4.39459e-06
1.33055e-06
-3.24754e-06
-1.76505e-06
-8.79062e-07
-4.37939e-06
2.15806e-06
-5.93894e-06
4.50545e-06
-5.14125e-06
5.79962e-06
-3.26619e-06
6.75312e-06
-1.97646e-06
7.64135e-06
-9.55395e-07
8.37137e-06
-1.39459e-07
7.87398e-06
2.72255e-06
5.49309e-06
6.06622e-06
1.35468e-06
7.8667e-06
-3.21545e-06
6.54975e-06
-5.01422e-06
4.57937e-07
-2.67441e-06
-5.82366e-06
-8.00074e-07
-3.75548e-06
-3.69215e-06
-2.69999e-06
1.00906e-05
-4.59703e-06
6.34616e-06
-4.20308e-06
9.36598e-07
-1.51686e-06
-4.45126e-06
1.7563e-06
-7.65254e-06
3.85454e-06
-8.03715e-06
4.52796e-06
-5.81464e-06
6.27977e-06
-5.01797e-06
8.04157e-06
-3.73824e-06
8.95421e-06
-1.86801e-06
9.92327e-06
-1.1085e-06
1.09514e-05
1.69446e-06
1.03298e-05
6.68777e-06
6.95883e-06
1.12377e-05
2.88716e-06
1.06214e-05
-7.32961e-07
4.07806e-06
-7.41682e-07
-5.81494e-06
1.6127e-06
-6.10987e-06
-2.07944e-06
-1.01878e-06
1.11093e-05
-8.10636e-07
6.13793e-06
1.604e-06
-1.4781e-06
4.6061e-06
-7.4534e-06
5.7684e-06
-8.81486e-06
4.40605e-06
-6.6748e-06
8.43484e-08
-1.49294e-06
4.15687e-06
-9.09047e-06
1.02176e-05
-9.799e-06
8.28223e-06
6.74246e-08
5.56241e-06
1.61132e-06
5.16416e-06
2.09272e-06
7.14344e-06
4.70849e-06
7.16571e-06
1.12154e-05
6.35445e-06
1.14327e-05
4.54131e-06
5.8912e-06
3.72992e-06
-5.00355e-06
4.5669e-06
-6.94686e-06
2.48745e-06
7.9892e-07
1.03103e-05
5.97153e-06
9.6529e-07
8.9453e-06
-4.45187e-06
1.00884e-05
-8.59646e-06
1.02777e-05
-9.00412e-06
7.82798e-06
-4.22509e-06
5.28454e-07
5.80663e-06
2.41246e-06
-1.09744e-05
9.47146e-06
-1.6858e-05
9.01878e-06
5.20137e-07
6.74547e-06
3.88466e-06
4.30636e-06
4.53186e-06
5.69263e-06
3.32224e-06
1.01624e-05
6.74565e-06
1.19425e-05
9.6526e-06
1.276e-05
5.07374e-06
1.02704e-05
-2.51397e-06
9.16572e-06
-5.84215e-06
1.16532e-05
2.24031e-06
8.06984e-06
7.6724e-06
-4.46689e-06
9.87284e-06
-6.65236e-06
1.10751e-05
-9.79879e-06
1.19193e-05
-9.84833e-06
1.00222e-05
-2.32797e-06
3.26288e-06
1.25659e-05
2.66894e-06
-1.03805e-05
4.39598e-06
-1.8585e-05
3.73732e-06
1.1788e-06
5.27659e-06
2.34539e-06
7.91309e-06
1.89536e-06
7.66842e-06
3.56691e-06
1.46913e-05
-2.77214e-07
1.70074e-05
7.33643e-06
1.79255e-05
4.15567e-06
1.52095e-05
2.02011e-07
7.78107e-06
1.58624e-06
1.94342e-05
4.75729e-06
3.31247e-06
6.99834e-06
-6.70801e-06
8.2865e-06
-7.94058e-06
8.94246e-06
-1.04548e-05
9.42219e-06
-1.03281e-05
6.6656e-06
4.28601e-07
2.86572e-06
1.63658e-05
8.31082e-07
-8.34587e-06
-3.63566e-06
-1.41183e-05
-5.65765e-06
3.20079e-06
-1.32333e-06
-1.98894e-06
5.22973e-06
-4.65772e-06
7.75487e-06
1.04177e-06
1.52648e-05
-7.78716e-06
2.07742e-05
1.82698e-06
1.82298e-05
6.70009e-06
9.50055e-06
8.93123e-06
3.65925e-06
7.4275e-06
2.30935e-05
6.4231e-06
-3.11066e-06
7.44609e-06
-7.73104e-06
7.74894e-06
-8.24346e-06
7.67202e-06
-1.03779e-05
7.34983e-06
-1.00059e-05
4.28665e-06
3.49177e-06
1.62493e-07
2.04899e-05
-2.74641e-06
-5.43697e-06
-7.25594e-06
-9.60873e-06
-7.04966e-06
2.99451e-06
-2.56091e-06
-6.47769e-06
4.37123e-06
-1.15899e-05
7.90363e-06
-2.49064e-06
1.15299e-05
-1.14135e-05
1.32192e-05
1.377e-07
1.0992e-05
8.92724e-06
6.08471e-06
1.38385e-05
3.97535e-06
9.53686e-06
2.70688e-05
-1.77406e-05
2.58654e-05
-2.79377e-05
1.31355e-05
-3.27439e-05
5.47233e-06
-3.41987e-05
1.41075e-06
-3.35015e-05
-1.32686e-06
-3.09387e-05
-4.00323e-06
-2.71249e-05
-6.24584e-06
-2.20414e-05
-9.31264e-06
-1.54544e-05
-1.32984e-05
-7.05864e-06
-1.79726e-05
2.55338e-06
-2.12058e-05
9.24245e-06
-1.57237e-05
1.03072e-05
-8.13865e-06
7.90054e-06
-4.18819e-06
5.7083e-06
-3.63739e-06
8.25731e-06
-6.55254e-06
9.3169e-06
-3.38733e-06
1.46784e-05
-6.20068e-06
2.22062e-05
-3.28787e-06
2.63442e-05
4.09762e-06
2.64262e-05
1.35115e-05
2.43786e-05
1.80521e-05
1.02908e-05
3.26457e-05
-1.52939e-05
4.11593e-05
-2.95207e-05
2.73623e-05
-3.73248e-05
1.32764e-05
-3.56897e-05
-2.24401e-07
-3.27361e-05
-4.28046e-06
-2.87499e-05
-7.98938e-06
-2.46403e-05
-1.03555e-05
-1.95894e-05
-1.43635e-05
-1.34808e-05
-1.9407e-05
-6.6194e-06
-2.4834e-05
-7.03014e-07
-2.71222e-05
5.72291e-06
-2.21496e-05
1.08156e-05
-1.32314e-05
1.24002e-05
-5.77279e-06
1.24179e-05
-3.65506e-06
1.26535e-05
-6.78821e-06
1.49674e-05
-5.70121e-06
1.5061e-05
-6.29429e-06
1.73811e-05
-5.608e-06
2.21565e-05
-6.77802e-07
3.07861e-05
4.88178e-06
3.77127e-05
1.11254e-05
1.06008e-05
3.74027e-05
4.5637e-06
3.65957e-05
-6.52039e-07
3.2578e-05
-1.21467e-05
2.4771e-05
-2.16014e-05
9.23029e-06
-2.12201e-05
-4.66171e-06
-1.53246e-05
-1.38849e-05
-1.07017e-05
-1.49784e-05
-5.39946e-06
-1.96657e-05
1.16675e-06
-2.59732e-05
6.74045e-06
-3.04077e-05
1.01468e-05
-3.05285e-05
1.36248e-05
-2.56276e-05
1.88815e-05
-1.84881e-05
2.53397e-05
-1.2231e-05
3.09446e-05
-9.25997e-06
3.12945e-05
-7.13809e-06
2.95193e-05
-3.9261e-06
2.58222e-05
-2.59717e-06
2.28368e-05
-2.62266e-06
2.29008e-05
-7.41848e-07
2.72069e-05
5.75682e-07
3.4417e-05
3.9152e-06
5.21632e-06
3.98014e-05
3.99207e-05
-3.32497e-06
4.30321e-05
2.94666e-05
3.46318e-05
3.31714e-05
2.1776e-05
2.2086e-05
1.13875e-05
5.72688e-06
6.5534e-06
-9.05077e-06
9.67488e-06
-1.80999e-05
1.62246e-05
-2.62154e-05
2.30432e-05
-3.27919e-05
2.8036e-05
-3.54005e-05
3.16247e-05
-3.41172e-05
3.51474e-05
-2.91503e-05
3.977e-05
-2.31108e-05
4.56783e-05
-1.81394e-05
5.08302e-05
-1.44119e-05
5.46976e-05
-1.10056e-05
5.74029e-05
-6.63137e-06
5.74131e-05
-2.60745e-06
5.50271e-05
-2.36699e-07
5.24623e-05
1.82286e-06
5.09128e-05
2.12507e-06
5.23259e-05
2.50212e-06
3.49334e-06
5.40488e-05
5.18077e-05
-5.51326e-05
6.65074e-05
1.4767e-05
6.2513e-05
3.71659e-05
5.35876e-05
3.10115e-05
4.30486e-05
1.62659e-05
3.32497e-05
7.48137e-07
3.324e-05
-1.80901e-05
3.93726e-05
-3.23481e-05
4.66451e-05
-4.00644e-05
5.32335e-05
-4.19889e-05
5.9012e-05
-3.98957e-05
6.50684e-05
-3.52068e-05
7.14147e-05
-2.94571e-05
7.67881e-05
-2.35129e-05
7.99258e-05
-1.75498e-05
8.09429e-05
-1.20227e-05
8.13722e-05
-7.06072e-06
8.16535e-05
-2.88882e-06
8.10325e-05
3.84312e-07
7.98585e-05
2.99682e-06
7.72385e-05
4.74497e-06
7.49318e-05
4.80867e-06
5.01561e-06
7.34095e-05
3.15765e-05
-8.6709e-05
4.70752e-05
-7.31648e-07
5.45288e-05
2.97124e-05
4.91012e-05
3.64392e-05
4.17415e-05
2.36256e-05
3.88056e-05
3.68411e-06
4.10538e-05
-2.03384e-05
4.8999e-05
-4.02932e-05
5.79719e-05
-4.90374e-05
6.60459e-05
-5.00631e-05
7.3357e-05
-4.7207e-05
8.0512e-05
-4.2362e-05
8.73728e-05
-3.63181e-05
9.35156e-05
-2.96559e-05
9.85899e-05
-2.26242e-05
0.000102138
-1.55706e-05
0.000103887
-8.81021e-06
0.000104252
-3.2539e-06
0.000103649
9.87909e-07
0.000102711
3.93423e-06
0.000101055
6.40069e-06
9.78977e-05
7.96639e-06
8.2309e-06
9.46823e-05
1.07788e-05
-9.74878e-05
1.49084e-05
-4.86112e-06
2.5565e-05
1.90559e-05
3.27337e-05
2.92705e-05
3.71786e-05
1.91807e-05
3.93905e-05
1.47217e-06
4.51696e-05
-2.61176e-05
5.60488e-05
-5.11725e-05
6.56337e-05
-5.86225e-05
7.33582e-05
-5.77878e-05
8.00522e-05
-5.39013e-05
8.66967e-05
-4.90069e-05
9.36184e-05
-4.32401e-05
0.000100284
-3.63223e-05
0.000105631
-2.79708e-05
0.000109297
-1.92375e-05
0.000111634
-1.11466e-05
0.000112679
-4.29909e-06
0.000112671
9.95943e-07
0.000111618
4.98666e-06
0.000109997
8.02189e-06
0.000108082
9.88161e-06
9.86674e-06
0.000106446
-3.33036e-06
-9.41574e-05
2.7749e-06
-1.09663e-05
1.33263e-05
8.5045e-06
2.95112e-05
1.30857e-05
4.13291e-05
7.36279e-06
5.02369e-05
-7.43569e-06
6.27051e-05
-3.8586e-05
7.28811e-05
-6.13487e-05
7.96609e-05
-6.54026e-05
8.4742e-05
-6.28692e-05
8.88756e-05
-5.80353e-05
9.32599e-05
-5.33917e-05
9.90633e-05
-4.9044e-05
0.000105428
-4.2687e-05
0.000110342
-3.28856e-05
0.000112975
-2.18707e-05
0.000113908
-1.20801e-05
0.000113821
-4.21223e-06
0.000113209
1.60869e-06
0.000111637
6.55832e-06
0.000109034
1.06248e-05
0.000106131
1.27846e-05
1.20494e-05
0.000103949
-1.73721e-05
-7.67853e-05
6.37537e-06
-3.47138e-05
2.85611e-05
-1.36812e-05
4.71524e-05
-5.50554e-06
6.2922e-05
-8.40677e-06
8.13067e-05
-2.58204e-05
9.23217e-05
-4.96011e-05
9.5006e-05
-6.40331e-05
9.76259e-05
-6.80227e-05
9.97573e-05
-6.50008e-05
0.000101443
-5.97218e-05
0.000103729
-5.56778e-05
0.000107819
-5.31336e-05
0.000113329
-4.8197e-05
0.000116805
-3.63617e-05
0.000117335
-2.24009e-05
0.000115346
-1.00916e-05
0.000111907
-7.72822e-07
0.000109278
4.23729e-06
0.000106244
9.59229e-06
0.000102811
1.40583e-05
0.000100593
1.50027e-05
1.10881e-05
0.000101555
-1.87656e-05
-5.80196e-05
-1.2757e-06
-5.22036e-05
2.1176e-05
-3.61328e-05
4.67139e-05
-3.10434e-05
7.07783e-05
-3.24711e-05
8.9114e-05
-4.41561e-05
9.92513e-05
-5.97385e-05
0.00010406
-6.88417e-05
0.000107815
-7.17774e-05
0.000110492
-6.76778e-05
0.000112359
-6.15896e-05
0.00011459
-5.79081e-05
0.000118074
-5.66177e-05
0.000124639
-5.47618e-05
0.000128884
-4.0607e-05
0.000133053
-2.65696e-05
0.000137983
-1.50219e-05
0.000141352
-4.14096e-06
0.000143069
2.51955e-06
0.000143946
8.7162e-06
0.000143811
1.41938e-05
0.000142091
1.67242e-05
1.10245e-05
0.000142158
-1.92612e-05
-3.87583e-05
7.34173e-07
-7.21987e-05
2.03274e-05
-5.57258e-05
4.27275e-05
-5.34433e-05
6.37607e-05
-5.35042e-05
8.24282e-05
-6.28235e-05
9.82273e-05
-7.55374e-05
0.000109089
-7.9703e-05
0.000115502
-7.81911e-05
0.000122122
-7.42976e-05
0.000129743
-6.921e-05
0.000136296
-6.44619e-05
0.000140389
-6.07111e-05
0.000143852
-5.82248e-05
0.000148052
-4.48072e-05
0.000160025
-3.85424e-05
0.000177793
-3.27892e-05
0.0001945
-2.08482e-05
0.000209252
-1.22323e-05
0.000220696
-2.72628e-06
0.000209264
2.56272e-05
0.000174277
5.17174e-05
5.00353e-05
0.000135271
1.76433e-05
-5.64005e-05
1.77804e-05
-7.2335e-05
3.12048e-05
-6.91499e-05
4.68551e-05
-6.90935e-05
6.64725e-05
-7.31219e-05
8.5037e-05
-8.13883e-05
9.77763e-05
-8.8277e-05
0.000109323
-9.12506e-05
0.000122509
-9.13772e-05
0.000133194
-8.49817e-05
0.00013957
-7.55854e-05
0.00014939
-7.42823e-05
0.000159512
-7.08325e-05
0.000166643
-6.53565e-05
0.000177021
-5.51867e-05
0.000179873
-4.13954e-05
0.000177768
-3.06849e-05
0.000178376
-2.14562e-05
0.000177831
-1.16873e-05
0.000159203
1.59025e-05
0.000122397
6.24351e-05
8.2503e-05
9.16115e-05
8.49072e-05
4.76332e-05
2.99574e-05
-8.63577e-05
4.23001e-05
-8.46777e-05
5.72655e-05
-8.41157e-05
7.39172e-05
-8.57467e-05
9.03752e-05
-8.9581e-05
0.000102629
-9.36439e-05
0.000109964
-9.56129e-05
0.000113359
-9.46453e-05
0.000113047
-9.10651e-05
0.000111929
-8.38634e-05
0.000110023
-7.3679e-05
0.000104295
-6.85532e-05
9.63765e-05
-6.29127e-05
8.58138e-05
-5.47931e-05
7.49953e-05
-4.43678e-05
6.4233e-05
-3.06333e-05
4.98018e-05
-1.62544e-05
3.16143e-05
-3.26835e-06
7.46578e-06
1.24609e-05
-1.26061e-05
3.59736e-05
-9.82979e-06
5.9658e-05
-8.30873e-06
9.00901e-05
9.25472e-05
-1.59515e-05
1.40687e-05
-0.000100428
2.53387e-05
-9.59492e-05
3.82791e-05
-9.70579e-05
5.3125e-05
-0.000100594
6.65462e-05
-0.000103004
7.64403e-05
-0.000103539
8.05983e-05
-9.9772e-05
7.96228e-05
-9.36701e-05
7.50315e-05
-8.64737e-05
6.77091e-05
-7.65403e-05
5.5214e-05
-6.11829e-05
3.65536e-05
-4.98914e-05
1.45005e-05
-4.08587e-05
-6.0749e-06
-3.42166e-05
-2.39364e-05
-2.6505e-05
-3.76786e-05
-1.68898e-05
-5.00249e-05
-3.90738e-06
-5.95961e-05
6.30271e-06
-6.8699e-05
2.15632e-05
-7.18547e-05
3.91281e-05
-6.76927e-05
5.54942e-05
-5.04429e-05
7.28371e-05
8.28427e-05
-4.07423e-05
1.75134e-06
-0.000102181
5.01815e-06
-9.92182e-05
1.46237e-05
-0.000106665
3.05657e-05
-0.000116538
4.41384e-05
-0.000116579
5.25816e-05
-0.000111984
5.20885e-05
-9.92801e-05
4.47148e-05
-8.62975e-05
3.22372e-05
-7.39965e-05
1.53628e-05
-5.96661e-05
-2.70513e-06
-4.31147e-05
-2.03397e-05
-3.22566e-05
-3.3659e-05
-2.7539e-05
-4.47139e-05
-2.3161e-05
-5.45432e-05
-1.66748e-05
-6.3342e-05
-8.09047e-06
-7.11729e-05
3.9238e-06
-8.00773e-05
1.52068e-05
-8.42603e-05
2.57454e-05
-8.12103e-05
3.6077e-05
-7.27422e-05
4.70244e-05
-5.93549e-05
5.94479e-05
6.87367e-05
-4.52524e-05
-8.79741e-06
-9.33882e-05
-1.37472e-05
-9.42718e-05
-7.92173e-06
-0.000112493
1.56312e-05
-0.000140092
4.00643e-05
-0.000141012
4.59115e-05
-0.000117832
4.07469e-05
-9.4117e-05
2.75464e-05
-7.30981e-05
1.0951e-05
-5.74023e-05
-5.05887e-06
-4.3657e-05
-1.68628e-05
-3.13114e-05
-2.70283e-05
-2.20917e-05
-3.8362e-05
-1.62059e-05
-4.92502e-05
-1.22731e-05
-5.88903e-05
-7.03471e-06
-6.73356e-05
3.54804e-07
-7.31896e-05
9.77764e-06
-7.70144e-05
1.90311e-05
-7.76739e-05
2.64045e-05
-7.41178e-05
3.25204e-05
-6.67897e-05
3.96953e-05
-5.56649e-05
4.83215e-05
5.48675e-05
-4.17988e-05
-1.7614e-05
-7.57763e-05
-2.95713e-05
-8.23158e-05
-2.85334e-05
-0.00011353
1.18173e-05
-0.000180441
5.37185e-05
-0.000182912
6.45403e-05
-0.000128653
5.35637e-05
-8.31401e-05
3.56889e-05
-5.52237e-05
1.67689e-05
-3.84832e-05
4.21597e-07
-2.73108e-05
-1.24598e-05
-1.84312e-05
-2.28972e-05
-1.16555e-05
-3.23634e-05
-6.7408e-06
-4.14215e-05
-3.21593e-06
-4.96476e-05
1.19067e-06
-5.65192e-05
7.22581e-06
-6.09571e-05
1.4215e-05
-6.28394e-05
2.0913e-05
-6.24176e-05
2.59822e-05
-5.96324e-05
2.9735e-05
-5.42139e-05
3.42761e-05
-4.57551e-05
3.98619e-05
4.39986e-05
-3.48888e-05
-2.31274e-05
-5.26512e-05
-3.75864e-05
-6.78563e-05
-2.7099e-05
-0.000124015
1.77772e-05
-0.000225315
7.01581e-05
-0.000235291
9.74552e-05
-0.000155948
8.12901e-05
-6.6973e-05
5.62756e-05
-3.02088e-05
3.22354e-05
-1.44435e-05
1.2997e-05
-8.07348e-06
-1.2307e-06
-4.20485e-06
-1.20217e-05
-8.65963e-07
-2.0805e-05
2.0411e-06
-2.91016e-05
5.07941e-06
-3.64666e-05
8.55471e-06
-4.21065e-05
1.28648e-05
-4.54623e-05
1.75701e-05
-4.65405e-05
2.19907e-05
-4.58846e-05
2.5326e-05
-4.39639e-05
2.78143e-05
-4.04476e-05
3.07597e-05
-3.48208e-05
3.42345e-05
3.67268e-05
-2.7551e-05
-2.07882e-05
-3.18612e-05
-3.4458e-05
-5.4184e-05
4.91193e-06
-0.000163383
4.14499e-05
-0.000261852
6.88072e-05
-0.000262647
0.000113113
-0.000200252
0.000106384
-6.02413e-05
7.57088e-05
4.67836e-07
4.73368e-05
1.39285e-05
2.48547e-05
1.44078e-05
9.19443e-06
1.14542e-05
-2.36727e-06
1.06943e-05
-1.16883e-05
1.13608e-05
-1.94243e-05
1.28142e-05
-2.57419e-05
1.48712e-05
-3.03412e-05
1.74633e-05
-3.30112e-05
2.02394e-05
-3.3912e-05
2.2891e-05
-3.35828e-05
2.49964e-05
-3.24555e-05
2.66871e-05
-3.02824e-05
2.85865e-05
-2.67398e-05
3.06917e-05
3.21965e-05
-2.22114e-05
-1.12942e-05
-2.05653e-05
1.91408e-06
-6.73907e-05
4.88897e-05
-0.000210358
4.59031e-05
-0.000258866
4.51647e-05
-0.000261909
7.99517e-05
-0.000235038
0.00010735
-8.76377e-05
8.24301e-05
2.53885e-05
5.19695e-05
4.43893e-05
2.8706e-05
3.76708e-05
1.23135e-05
2.78457e-05
4.54635e-07
2.2552e-05
-8.51615e-06
2.03304e-05
-1.52888e-05
1.95858e-05
-2.03532e-05
1.99346e-05
-2.38606e-05
2.09698e-05
-2.59093e-05
2.22875e-05
-2.66996e-05
2.36807e-05
-2.66176e-05
2.4914e-05
-2.59292e-05
2.59988e-05
-2.45145e-05
2.71718e-05
-2.2232e-05
2.84089e-05
2.93388e-05
-1.93761e-05
4.11593e-07
-2.09718e-05
3.69831e-05
-0.000103958
4.9318e-05
-0.000222693
4.41161e-05
-0.000253664
4.22882e-05
-0.000260081
3.90605e-05
-0.00023181
7.98739e-05
-0.000128451
6.45514e-05
4.0711e-05
3.99066e-05
6.9034e-05
2.1208e-05
5.63689e-05
7.18207e-06
4.18709e-05
-3.1778e-06
3.2911e-05
-1.0591e-05
2.77426e-05
-1.59122e-05
2.4906e-05
-1.96433e-05
2.36649e-05
-2.20749e-05
2.34008e-05
-2.34353e-05
2.36473e-05
-2.39191e-05
2.4164e-05
-2.37619e-05
2.47565e-05
-2.31292e-05
2.53662e-05
-2.20028e-05
2.60453e-05
-2.03558e-05
2.67618e-05
2.7359e-05
-1.83777e-05
2.18849e-05
-4.285e-05
5.59661e-05
-0.000138035
5.04742e-05
-0.0002172
4.41959e-05
-0.000247385
4.0801e-05
-0.000256685
3.45225e-05
-0.000225531
4.29337e-05
-0.000136862
3.20342e-05
5.16098e-05
1.7892e-05
8.31758e-05
6.04015e-06
6.82204e-05
-3.70019e-06
5.16107e-05
-1.06324e-05
3.98425e-05
-1.57025e-05
3.2812e-05
-1.92873e-05
2.84901e-05
-2.16631e-05
2.60401e-05
-2.30575e-05
2.47946e-05
-2.36802e-05
2.42694e-05
-2.36933e-05
2.41767e-05
-2.32514e-05
2.43142e-05
-2.24655e-05
2.45805e-05
-2.13651e-05
2.49449e-05
-1.99754e-05
2.53717e-05
2.58018e-05
-1.84195e-05
4.60174e-05
-8.88612e-05
7.17855e-05
-0.000163801
5.81047e-05
-0.000203519
4.80742e-05
-0.000237354
4.18996e-05
-0.000250511
3.42313e-05
-0.000217863
6.53097e-06
-0.000109163
-4.73019e-06
6.28705e-05
-8.76697e-06
8.72122e-05
-1.24647e-05
7.19178e-05
-1.60666e-05
5.52122e-05
-1.93997e-05
4.31751e-05
-2.19335e-05
3.53453e-05
-2.3688e-05
3.02441e-05
-2.47159e-05
2.70675e-05
-2.51167e-05
2.51949e-05
-2.50155e-05
2.41678e-05
-2.45219e-05
2.36828e-05
-2.37377e-05
2.35299e-05
-2.274e-05
2.35829e-05
-2.15694e-05
2.37743e-05
-2.02627e-05
2.40649e-05
2.44267e-05
-1.88889e-05
5.98501e-05
-0.000148709
8.30264e-05
-0.000186976
8.20127e-05
-0.000202504
7.07947e-05
-0.000226136
5.00012e-05
-0.000229718
1.82742e-05
-0.000186137
-2.89498e-05
-6.1939e-05
-3.67407e-05
7.0661e-05
-3.24921e-05
8.29634e-05
-2.95745e-05
6.9e-05
-2.83372e-05
5.39745e-05
-2.81473e-05
4.29849e-05
-2.81914e-05
3.53891e-05
-2.81437e-05
3.0196e-05
-2.78654e-05
2.67889e-05
-2.73241e-05
2.46532e-05
-2.65472e-05
2.33906e-05
-2.55807e-05
2.2716e-05
-2.44767e-05
2.24256e-05
-2.32789e-05
2.23852e-05
-2.20175e-05
2.25129e-05
-2.07187e-05
2.27658e-05
2.31241e-05
-1.94172e-05
4.82569e-05
-0.000196965
6.6833e-05
-0.000205551
7.32358e-05
-0.000208906
6.32426e-05
-0.000216143
3.48402e-05
-0.000201316
-1.42091e-05
-0.000137088
-6.20001e-05
-1.41483e-05
-6.03694e-05
6.90302e-05
-5.11491e-05
7.37428e-05
-4.39317e-05
6.17823e-05
-3.91563e-05
4.91989e-05
-3.61023e-05
3.99306e-05
-3.39403e-05
3.32268e-05
-3.2242e-05
2.84974e-05
-3.07491e-05
2.52957e-05
-2.93307e-05
2.32345e-05
-2.79317e-05
2.19913e-05
-2.65356e-05
2.13197e-05
-2.51449e-05
2.10347e-05
-2.37679e-05
2.10084e-05
-2.24137e-05
2.11586e-05
-2.10913e-05
2.14433e-05
2.18396e-05
-1.98081e-05
3.18289e-05
-0.000228793
4.71787e-05
-0.000220901
4.95904e-05
-0.000211318
3.28899e-05
-0.000199442
-6.61835e-06
-0.000161807
-6.00029e-05
-8.37033e-05
-8.78784e-05
1.3727e-05
-7.74816e-05
5.86332e-05
-6.51027e-05
6.13638e-05
-5.51739e-05
5.18534e-05
-4.80079e-05
4.20327e-05
-4.28229e-05
3.47453e-05
-3.89038e-05
2.93075e-05
-3.58075e-05
2.5401e-05
-3.32439e-05
2.27319e-05
-3.1035e-05
2.10253e-05
-2.90675e-05
2.00236e-05
-2.72774e-05
1.95295e-05
-2.56235e-05
1.93806e-05
-2.40814e-05
1.94664e-05
-2.26356e-05
1.97128e-05
-2.12751e-05
2.00826e-05
2.05541e-05
-1.99905e-05
1.4913e-05
-0.000243705
1.952e-05
-0.000225507
1.34172e-05
-0.000205214
-1.24492e-05
-0.000173576
-5.44583e-05
-0.000119798
-9.31052e-05
-4.50565e-05
-9.96192e-05
2.02409e-05
-8.8119e-05
4.71329e-05
-7.46102e-05
4.78548e-05
-6.33042e-05
4.05472e-05
-5.47129e-05
3.34413e-05
-4.80988e-05
2.81311e-05
-4.28917e-05
2.41002e-05
-3.87012e-05
2.12102e-05
-3.52576e-05
1.92881e-05
-3.23678e-05
1.81354e-05
-2.99005e-05
1.75562e-05
-2.77557e-05
1.73845e-05
-2.58638e-05
1.74887e-05
-2.41713e-05
1.77738e-05
-2.264e-05
1.81815e-05
-2.12408e-05
1.86833e-05
1.92588e-05
-1.99464e-05
-7.84006e-07
-0.000242921
-8.06826e-06
-0.000218222
-2.64033e-05
-0.000186879
-5.74841e-05
-0.000142495
-9.15071e-05
-8.57752e-05
-0.000110467
-2.60971e-05
-0.000107123
1.6897e-05
-9.41167e-05
3.41266e-05
-8.02177e-05
3.39557e-05
-6.85045e-05
2.88339e-05
-5.9262e-05
2.41987e-05
-5.18243e-05
2.06933e-05
-4.57679e-05
1.80437e-05
-4.07907e-05
1.6233e-05
-3.66718e-05
1.51691e-05
-3.32403e-05
1.47039e-05
-3.03607e-05
1.46764e-05
-2.79206e-05
1.49443e-05
-2.58284e-05
1.53963e-05
-2.40113e-05
1.59569e-05
-2.2412e-05
1.65822e-05
-2.09843e-05
1.72553e-05
1.79635e-05
-1.96898e-05
-1.44197e-05
-0.000228501
-3.34765e-05
-0.000199166
-5.97234e-05
-0.000160632
-8.87435e-05
-0.000113475
-0.000110884
-6.36349e-05
-0.000117424
-1.95568e-05
-0.000109594
9.06664e-06
-9.60412e-05
2.05737e-05
-8.25076e-05
2.0422e-05
-7.10858e-05
1.7412e-05
-6.17588e-05
1.48716e-05
-5.39749e-05
1.29093e-05
-4.74404e-05
1.15091e-05
-4.19559e-05
1.07483e-05
-3.73687e-05
1.05819e-05
-3.35469e-05
1.08819e-05
-3.03669e-05
1.14963e-05
-2.77117e-05
1.2289e-05
-2.54782e-05
1.31628e-05
-2.35788e-05
1.40575e-05
-2.1942e-05
1.49453e-05
-2.05087e-05
1.5822e-05
1.66836e-05
-1.92296e-05
-2.49237e-05
-0.000203578
-5.13006e-05
-0.000172789
-7.83925e-05
-0.00013354
-0.000101205
-9.06619e-05
-0.000114293
-5.05476e-05
-0.000114906
-1.89435e-05
-0.000106415
5.75963e-07
-9.40045e-05
8.16275e-06
-8.1806e-05
8.22351e-06
-7.12845e-05
6.89044e-06
-6.23148e-05
5.90186e-06
-5.45517e-05
5.14608e-06
-4.78425e-05
4.79996e-06
-4.20991e-05
5.00485e-06
-3.72441e-05
5.72688e-06
-3.31934e-05
6.83131e-06
-2.98425e-05
8.14527e-06
-2.70734e-05
9.51991e-06
-2.47753e-05
1.08647e-05
-2.28513e-05
1.21336e-05
-2.12199e-05
1.3314e-05
-1.98138e-05
1.44157e-05
1.54457e-05
-1.85763e-05
-3.04227e-05
-0.000173155
-5.86389e-05
-0.000144572
-8.2673e-05
-0.000109506
-9.94374e-05
-7.38975e-05
-0.000107248
-4.27371e-05
-0.000106302
-1.98898e-05
-9.90002e-05
-6.72567e-06
-8.87554e-05
-2.08208e-06
-7.8514e-05
-2.01791e-06
-6.93145e-05
-2.30899e-06
-6.10149e-05
-2.39781e-06
-5.35498e-05
-2.31901e-06
-4.69166e-05
-1.83324e-06
-4.11407e-05
-7.70962e-07
-3.62139e-05
8.00052e-07
-3.2117e-05
2.73437e-06
-2.87373e-05
4.76557e-06
-2.5968e-05
6.75061e-06
-2.36947e-05
8.59146e-06
-2.1814e-05
1.02531e-05
-2.02394e-05
1.17394e-05
-1.88986e-05
1.3075e-05
1.42786e-05
-1.77319e-05
-3.14075e-05
-0.000141747
-5.82213e-05
-0.000117759
-7.8636e-05
-8.90916e-05
-9.13635e-05
-6.117e-05
-9.64417e-05
-3.76588e-05
-9.50771e-05
-2.12544e-05
-8.91942e-05
-1.26086e-05
-8.11685e-05
-1.01077e-05
-7.30425e-05
-1.01439e-05
-6.518e-05
-1.01715e-05
-5.77563e-05
-9.82147e-06
-5.08516e-05
-9.22362e-06
-4.45358e-05
-8.14897e-06
-3.89608e-05
-6.34598e-06
-3.42304e-05
-3.93025e-06
-3.02852e-05
-1.21083e-06
-2.703e-05
1.51033e-06
-2.43858e-05
4.1065e-06
-2.22333e-05
6.43895e-06
-2.04681e-05
8.48801e-06
-1.90039e-05
1.02753e-05
-1.77694e-05
1.18404e-05
1.32147e-05
-1.67056e-05
-2.93408e-05
-0.000112406
-5.32526e-05
-9.38466e-05
-7.0408e-05
-7.19362e-05
-8.04296e-05
-5.11483e-05
-8.40575e-05
-3.4031e-05
-8.27157e-05
-2.25961e-05
-7.81126e-05
-1.72116e-05
-7.20326e-05
-1.61876e-05
-6.5607e-05
-1.65695e-05
-5.90945e-05
-1.6684e-05
-5.26092e-05
-1.63066e-05
-4.63401e-05
-1.54927e-05
-4.06187e-05
-1.38703e-05
-3.5578e-05
-1.13866e-05
-3.12679e-05
-8.24028e-06
-2.76717e-05
-4.80695e-06
-2.47504e-05
-1.41095e-06
-2.23592e-05
1.71527e-06
-2.04189e-05
4.49876e-06
-1.88356e-05
6.90481e-06
-1.75312e-05
8.97088e-06
-1.64396e-05
1.07489e-05
1.22804e-05
-1.55057e-05
-2.56011e-05
-8.68052e-05
-4.60062e-05
-7.34414e-05
-6.032e-05
-5.76223e-05
-6.85261e-05
-4.29421e-05
-7.13737e-05
-3.11833e-05
-7.02089e-05
-2.37609e-05
-6.66046e-05
-2.08158e-05
-6.18954e-05
-2.08967e-05
-5.6732e-05
-2.17328e-05
-5.12454e-05
-2.21705e-05
-4.56286e-05
-2.19234e-05
-4.02623e-05
-2.0859e-05
-3.54005e-05
-1.8732e-05
-3.11666e-05
-1.56205e-05
-2.75469e-05
-1.18599e-05
-2.45067e-05
-7.8471e-06
-2.20041e-05
-3.91357e-06
-1.99735e-05
-3.15242e-07
-1.83133e-05
2.83859e-06
-1.69626e-05
5.55421e-06
-1.58547e-05
7.86302e-06
-1.49335e-05
9.82742e-06
1.14977e-05
-1.4151e-05
-2.12524e-05
-6.55525e-05
-3.80827e-05
-5.66109e-05
-4.98265e-05
-4.58783e-05
-5.65618e-05
-3.62067e-05
-5.88866e-05
-2.88584e-05
-5.79108e-05
-2.47367e-05
-5.4959e-05
-2.37676e-05
-5.11053e-05
-2.47503e-05
-4.67761e-05
-2.60619e-05
-4.21863e-05
-2.67602e-05
-3.75982e-05
-2.65114e-05
-3.33517e-05
-2.51054e-05
-2.95935e-05
-2.24901e-05
-2.63021e-05
-1.89119e-05
-2.34537e-05
-1.47082e-05
-2.10341e-05
-1.02666e-05
-1.90041e-05
-5.94355e-06
-1.73584e-05
-1.96085e-06
-1.60104e-05
1.49063e-06
-1.49146e-05
4.45847e-06
-1.40208e-05
6.96914e-06
-1.3283e-05
9.08973e-06
1.08769e-05
-1.26623e-05
-1.68216e-05
-4.87308e-05
-3.02e-05
-4.32322e-05
-3.94945e-05
-3.65838e-05
-4.47847e-05
-3.09163e-05
-4.6568e-05
-2.7075e-05
-4.57225e-05
-2.55821e-05
-4.32559e-05
-2.62341e-05
-3.99684e-05
-2.80377e-05
-3.63496e-05
-2.96807e-05
-3.26809e-05
-3.04288e-05
-2.92493e-05
-2.99428e-05
-2.62369e-05
-2.81178e-05
-2.36034e-05
-2.51235e-05
-2.12854e-05
-2.12298e-05
-1.92517e-05
-1.67419e-05
-1.74817e-05
-1.20366e-05
-1.59621e-05
-7.46312e-06
-1.46745e-05
-3.24843e-06
-1.36243e-05
4.40444e-07
-1.27726e-05
3.60673e-06
-1.2086e-05
6.28254e-06
-1.153e-05
8.53354e-06
1.04157e-05
-1.1069e-05
-1.25177e-05
-3.62128e-05
-2.26221e-05
-3.31277e-05
-2.95678e-05
-2.96379e-05
-3.34066e-05
-2.70774e-05
-3.45658e-05
-2.59157e-05
-3.37805e-05
-2.63673e-05
-3.17185e-05
-2.8296e-05
-2.89312e-05
-3.08249e-05
-2.60398e-05
-3.2572e-05
-2.33698e-05
-3.30988e-05
-2.11369e-05
-3.21757e-05
-1.93264e-05
-2.99283e-05
-1.77902e-05
-2.66596e-05
-1.64455e-05
-2.25745e-05
-1.52225e-05
-1.79648e-05
-1.40793e-05