/*--------------------------------*- C++ -*----------------------------------*\
| =========                 |                                                 |
| \\      /  F ield         | OpenFOAM: The Open Source CFD Toolbox           |
|  \\    /   O peration     | Version:  2312                                  |
|   \\  /    A nd           | Website:  www.openfoam.com                      |
|    \\/     M anipulation  |                                                 |
\*---------------------------------------------------------------------------*/
FoamFile
{
    version     2.0;
    format      ascii;
    arch        "LSB;label=32;scalar=64";
    class       volScalarField;
    location    "3.1";
    object      alpha.oil;
}
// * * * * * * * * * * * * * * * * * * * * * * * * * * * * * * * * * * * * * //

dimensions      [0 0 0 0 0 0 0];

internalField   nonuniform List<scalar> 
2268
(
7.83458e-10
6.79736e-10
4.37644e-10
2.77858e-10
3.05378e-10
4.71455e-10
5.75371e-10
5.17454e-10
1.80412e-10
1.18584e-10
1.25248e-10
1.42383e-10
1.93774e-10
2.62319e-10
3.29686e-10
5.12978e-10
8.87757e-10
1.33129e-09
1.68086e-09
4.07678e-07
3.12576e-05
5.30701e-05
5.30284e-05
7.16377e-10
3.6714e-10
3.24003e-10
2.71744e-10
2.71848e-10
2.72053e-10
7.0405e-09
5.96171e-09
6.60451e-10
3.78405e-10
8.02189e-10
1.32457e-09
2.24252e-09
3.08346e-09
9.44766e-10
7.49619e-10
1.39726e-09
2.27774e-09
4.32268e-09
1.5067e-08
2.67673e-06
1.83368e-05
2.50551e-05
3.79557e-10
7.86459e-10
3.00052e-10
1.88101e-07
4.75824e-07
3.51586e-07
2.5087e-10
6.84031e-10
8.37016e-10
2.37386e-09
6.12695e-09
1.05016e-08
1.99504e-08
4.03292e-08
1.01263e-08
1.21094e-09
1.42408e-09
2.91509e-09
3.3763e-09
2.25028e-09
9.45279e-14
9.81987e-14
6.7898e-09
8.77083e-10
8.20387e-09
3.01274e-10
2.24402e-09
5.1092e-06
1.20394e-07
2.51644e-10
1.30119e-09
8.21374e-10
8.2393e-10
2.01259e-09
2.01524e-09
2.01351e-09
1.04194e-07
4.95444e-08
-2.58117e-13
-1.01399e-19
-4.68562e-14
-1.80518e-15
6.75455e-10
1.73962e-10
3.97603e-13
4.1653e-13
8.66477e-10
2.2213e-08
7.85741e-06
2.17502e-05
6.27829e-07
3.60746e-10
3.01295e-10
3.43529e-08
1.61112e-05
0.000182015
0.000541366
0.000689071
0.000415497
2.85008e-20
5.80996e-21
1.57051e-07
0.00358437
0.00858512
0.0116245
0.0132918
0.0120942
0.00550856
0.00362762
2.28593e-08
3.12803e-08
3.75811e-08
9.46212e-05
7.70927e-05
0.000233213
0.000271572
0.000179754
0.000571262
0.0023285
0.00329409
0.00329577
0.00383661
0.0104097
0.011291
0.0138391
0.0280143
0.0358329
0.0358316
0.0358242
0.034289
0.0125488
0.00856782
0.00565687
0.00521909
0.000809194
0.000143367
0.000374089
0.000624125
0.000624094
0.00047068
0.000881898
0.00223764
0.00249164
0.00192616
0.00370695
0.0294303
0.0399662
0.0408767
0.0251364
0.0317103
0.0279756
0.0142552
0.00872174
0.00872217
0.0135023
0.00732641
0.00732641
0.00423273
0.000137192
0.000209494
0.000458864
0.000483775
0.000375838
0.000275282
0.000185458
0.000187706
0.000204985
0.000252427
0.0185101
0.0907959
0.0262186
0.00931853
0.00935657
0.0118186
0.00933345
0.00873304
0.06325
0.169206
0.0275989
0.0275988
0.0275988
0.0276044
0.0276148
0.0275924
0.0275925
0.0275925
0.0275926
0.0275927
0.0275927
0.0276922
0.0307115
0.0343965
0.0355694
0.0353352
0.0344749
0.0344748
0.0345961
0.0276026
0.0282755
0.0331728
0.0372
0.0422337
0.0445295
0.0370152
0.0308989
0.0275926
0.0281417
0.0351265
0.0523185
0.107762
0.158891
0.187521
0.2061
0.214972
0.197401
0.185628
0.0276008
0.120995
0.23554
0.344103
0.364573
0.294414
0.24735
0.240824
0.260198
0.296595
0.382326
0.446352
0.464778
0.464864
0.464948
0.485468
0.52833
0.528326
0.528323
0.106939
0.486995
0.524202
0.524199
0.432727
0.271375
0.258595
0.35821
0.489828
0.544735
0.544736
0.541024
0.3642
0.204924
0.184487
0.211518
0.303906
0.356811
0.489518
0.326209
0.405553
0.524202
0.375657
0.0430419
0.0380471
0.0379898
0.0885342
0.485686
0.544736
0.429405
0.0869277
0.0626693
0.0623617
0.0622114
0.0623566
0.0632293
0.0709924
0.101054
0.327177
0.186658
0.380044
0.412552
0.0432324
0.0668824
0.320096
0.492396
0.544497
0.509656
0.128971
0.0613928
0.0614052
0.0618052
0.0584177
0.056037
0.060226
0.0603048
0.0832221
0.32718
0.145431
0.146462
0.423581
0.127916
0.275334
0.543136
0.544207
0.54471
0.544721
0.268393
0.06878
0.0646428
0.0793973
0.055433
0.0556494
0.0559043
0.0612291
0.0615892
0.208054
0.0463173
0.102696
0.423718
0.155421
0.0251056
0.147886
0.432316
0.53293
0.531037
0.322114
0.0784162
0.0895649
0.228377
0.255622
0.0753603
0.0562401
0.0606945
0.0618977
0.0053271
0.00385436
0.00146404
0.000154713
2.55072e-05
2.42666e-05
1.00652e-05
6.66388e-06
1.08154e-05
9.48491e-11
-1.31833e-29
-5.446e-21
-5.97141e-11
-2.0024e-10
0.0976692
0.123812
0.0102163
0.00818452
0.00827462
0.00978544
0.049667
0.213578
0.213511
0.000199894
0.0001157
5.52288e-05
2.013e-05
-8.66894e-10
-1.40027e-08
-2.86714e-09
-1.11404e-09
-4.86326e-10
2.66706e-21
-5.29369e-19
-2.10351e-19
-2.94957e-10
-7.56068e-09
0.0432175
0.205828
0.0682175
0.0179524
0.00824155
0.0502016
0.164095
0.230403
0.0184051
1.34921e-05
1.74318e-07
1.27555e-07
1.15727e-07
0.00436018
0.0402749
0.0927768
0.203744
0.221662
0.165455
0.045375
-4.10248e-20
-8.63813e-12
0.0174738
0.158219
0.343963
0.421305
0.489536
0.567846
0.668647
0.706041
0.742185
0.295018
0.0437931
0.0751104
0.140953
0.22946
0.409892
0.737596
0.775674
0.640515
0.706273
0.630163
0.490736
0.426333
0.441143
0.589665
0.753138
0.888897
0.956537
0.958408
0.952724
0.935947
0.920133
0.921408
0.949719
0.830571
0.889283
0.912046
0.912265
0.912488
0.912592
0.868807
0.745047
0.913243
0.981126
0.981115
0.971346
0.966757
0.979497
0.992495
0.998684
0.999411
0.999411
0.999193
0.997177
0.974123
0.941789
0.934566
0.560297
0.579799
0.597883
0.577285
0.544594
0.501255
0.489984
0.528028
0.64944
0.846351
0.930952
0.999201
0.999348
0.999405
0.999411
0.999411
0.999411
0.999411
0.999411
0.999408
0.998555
0.988242
0.951125
0.00974681
0.0193571
0.0296703
0.0295085
0.0267861
0.0322288
0.0341782
0.0761045
0.0724628
0.0958295
0.165019
0.298577
0.523873
0.729715
0.88795
0.978844
0.999411
0.999411
0.999411
0.9994
0.997769
0.997425
0.997011
6.34978e-21
-6.41985e-21
2.46739e-21
1.40961e-24
4.21571e-25
9.29818e-26
4.00786e-22
1.44666e-06
6.11456e-20
-1.51529e-19
4.56144e-20
-1.05496e-19
0.00647947
0.0688209
0.19321
0.364461
0.596617
0.781501
0.901363
0.974752
0.997868
0.997695
0.990637
1.72665e-12
8.87155e-07
2.10023e-06
2.2605e-06
2.00236e-06
7.48523e-07
1.06453e-10
1.92399e-05
6.92178e-05
9.12998e-05
6.31828e-05
6.20918e-06
1.48692e-07
2.22774e-09
1.18412e-17
-6.36294e-19
0.0160608
0.0868335
0.210535
0.369888
0.550387
0.667001
0.689831
1.87936e-08
1.77587e-09
1.77576e-09
4.99976e-07
1.02341e-06
1.05703e-06
2.7724e-07
5.00809e-09
6.46273e-07
5.14243e-05
4.38831e-05
8.31133e-07
1.54411e-15
3.90485e-21
-1.45192e-21
2.15408e-10
7.75984e-20
-4.47406e-10
-1.10845e-19
-1.96881e-11
0.0070739
0.0258885
0.034371
2.75597e-08
8.10694e-09
1.77583e-09
1.77553e-09
1.77557e-09
4.00338e-09
1.85046e-09
1.82286e-09
1.80371e-09
1.92614e-05
3.69001e-05
2.87349e-05
5.36807e-06
5.12565e-10
2.65326e-08
2.31494e-10
2.6866e-07
1.21621e-06
1.56148e-06
3.03603e-07
3.21887e-21
-2.4759e-21
-5.1036e-23
2.91253e-08
1.33258e-08
2.2391e-09
1.7777e-09
1.01118e-07
8.58078e-07
2.76475e-08
1.6166e-08
1.80641e-09
5.97245e-07
1.13304e-05
1.78779e-05
5.58379e-06
2.91831e-07
5.02701e-07
1.28896e-06
7.07293e-06
1.23706e-05
6.23239e-06
-3.65965e-13
-2.99528e-12
-1.17405e-12
-2.11902e-13
2.86867e-08
9.70085e-09
2.21523e-09
1.99757e-06
1.71547e-05
2.47951e-05
1.3424e-05
3.11662e-06
5.50926e-07
2.21404e-06
4.80569e-06
5.27686e-06
4.04295e-06
3.58686e-06
7.66653e-06
1.04997e-05
3.26107e-05
4.32366e-05
4.60847e-05
4.64343e-05
1.16659e-05
1.32702e-08
3.05201e-08
2.691e-08
7.06484e-09
2.85513e-08
1.52254e-05
3.062e-05
3.0737e-05
3.0623e-05
6.10995e-06
3.94994e-06
1.48281e-05
2.56977e-05
1.73187e-05
7.60174e-05
9.14331e-05
9.13317e-05
9.06971e-05
5.6701e-05
1.68773e-05
3.68582e-05
4.06687e-05
6.69758e-06
1.28037e-07
3.8643e-08
2.49884e-08
7.04991e-09
1.97459e-07
2.02044e-05
3.06208e-05
2.82837e-05
6.42863e-06
7.14074e-06
6.98661e-05
0.000100708
0.000100281
9.10732e-05
4.64217e-05
1.19752e-05
1.21117e-05
1.3958e-05
1.41053e-05
1.27097e-05
1.13513e-05
1.68802e-05
1.70774e-05
1.72433e-05
4.63229e-06
2.40919e-08
7.14751e-09
7.11016e-09
5.32547e-06
1.68915e-05
6.99458e-07
5.9036e-07
8.76918e-06
8.63241e-05
9.91413e-05
1.53445e-05
1.09933e-06
7.51719e-07
6.16975e-07
1.47283e-05
2.05987e-05
2.0501e-05
1.92763e-05
5.86698e-06
4.57166e-06
1.02555e-05
7.96905e-06
9.59842e-06
2.43182e-08
1.08182e-08
2.84239e-08
1.69533e-09
1.6789e-09
1.70902e-09
6.06783e-07
1.58561e-06
4.93426e-09
4.94113e-09
4.93806e-09
4.942e-09
4.93195e-09
6.38514e-07
4.27964e-06
5.43968e-06
1.97182e-06
1.51599e-08
1.51753e-08
2.8336e-08
1.40921e-07
4.50703e-06
1.34308e-05
2.52499e-08
3.61455e-09
2.56724e-09
3.26345e-09
1.03341e-08
2.574e-08
3.14375e-08
6.29469e-09
6.37606e-09
7.9886e-09
1.86189e-08
4.25162e-08
5.46426e-08
4.36567e-08
1.51575e-08
1.51742e-08
1.51575e-08
1.53231e-08
1.67219e-08
1.1106e-07
5.34575e-07
2.27118e-06
4.2404e-06
2.66289e-08
2.63526e-09
2.30138e-09
6.62407e-09
2.49894e-08
7.26708e-08
1.07832e-07
9.32235e-08
4.88308e-08
1.17812e-08
6.27791e-09
1.37173e-08
1.80948e-08
1.88019e-08
1.99844e-08
2.10534e-08
1.85836e-08
1.54499e-08
1.45126e-08
2.84612e-08
4.34105e-08
2.69259e-08
9.56636e-09
2.75768e-08
2.29735e-09
2.17043e-09
6.48146e-09
2.10641e-08
6.29971e-08
1.12656e-07
1.1734e-07
9.09005e-08
2.56483e-08
4.07757e-09
4.58891e-09
4.4638e-09
4.1203e-09
5.07587e-09
7.17402e-09
9.26529e-09
1.04022e-08
1.0208e-08
9.13461e-09
8.7024e-09
9.7536e-09
9.52526e-09
2.87488e-08
2.14449e-09
1.90989e-09
3.45479e-09
5.38563e-09
1.26438e-08
3.36053e-08
5.46937e-08
3.66079e-08
8.55642e-09
3.86621e-09
4.43439e-09
4.12807e-09
3.59869e-09
3.16952e-09
3.10911e-09
3.77046e-09
5.02371e-09
6.16761e-09
6.44244e-09
6.51821e-09
7.01887e-09
8.63739e-09
2.78131e-08
1.99186e-09
1.76146e-09
2.00567e-09
1.72845e-09
1.12835e-09
7.62684e-10
7.63669e-10
8.97442e-10
1.49074e-09
2.84103e-09
3.29223e-09
2.77462e-09
2.30061e-09
2.11554e-09
2.08236e-09
2.16704e-09
2.41688e-09
2.86367e-09
3.77329e-09
4.18023e-09
4.90968e-09
5.56643e-09
7.76522e-09
1.91759e-09
1.6167e-09
1.56697e-09
1.32771e-09
1.06326e-09
8.57224e-10
7.58339e-10
8.06837e-10
9.95444e-10
1.17923e-09
1.25281e-09
1.18756e-09
1.09424e-09
1.06614e-09
1.10033e-09
1.20116e-09
1.40032e-09
1.7074e-09
2.20476e-09
2.57655e-09
3.0752e-09
3.53907e-09
3.01745e-09
3.01552e-09
2.14732e-09
1.98555e-09
1.55838e-09
1.22563e-09
9.59362e-10
7.54967e-10
6.10997e-10
5.15824e-10
4.62712e-10
4.42647e-10
4.43554e-10
4.5785e-10
4.86697e-10
5.40002e-10
6.21375e-10
7.44976e-10
9.30098e-10
1.2766e-09
1.51047e-09
1.88677e-09
2.17649e-09
3.52063e-09
3.47811e-09
2.80445e-09
2.55985e-09
1.95442e-09
1.48089e-09
1.09505e-09
7.89505e-10
5.52209e-10
3.8815e-10
2.77155e-10
2.11478e-10
1.83882e-10
1.83491e-10
2.04594e-10
2.40901e-10
2.93549e-10
3.66492e-10
4.70165e-10
6.53178e-10
8.23281e-10
1.05496e-09
1.279e-09
4.20834e-09
3.94361e-09
3.35472e-09
3.14089e-09
2.38935e-09
1.85142e-09
1.40238e-09
1.0312e-09
7.19339e-10
4.88403e-10
3.11924e-10
1.85043e-10
1.13001e-10
8.34733e-11
8.15836e-11
9.63416e-11
1.21963e-10
1.58707e-10
2.11684e-10
3.17968e-10
4.06496e-10
5.60204e-10
7.07866e-10
5.10429e-09
4.3928e-09
4.03297e-09
3.69046e-09
2.62362e-09
2.12885e-09
1.67437e-09
1.25966e-09
9.27297e-10
6.80093e-10
4.60672e-10
2.6831e-10
1.37506e-10
6.6625e-11
3.9296e-11
3.59266e-11
4.40764e-11
5.94602e-11
8.34501e-11
1.31956e-10
1.83446e-10
2.69424e-10
3.64939e-10
5.67428e-09
5.14026e-09
5.16153e-09
4.27843e-09
2.97905e-09
2.04703e-09
2.0392e-09
1.27195e-09
1.00921e-09
8.45814e-10
6.47478e-10
4.12017e-10
2.19737e-10
9.72216e-11
3.80688e-11
1.7942e-11
1.52229e-11
1.99782e-11
3.03246e-11
5.16302e-11
7.5762e-11
1.24995e-10
1.82372e-10
6.26445e-09
6.82432e-09
8.85652e-09
2.12943e-08
7.42724e-08
9.36786e-08
4.36654e-09
8.93551e-10
8.32991e-10
8.90084e-10
8.02677e-10
5.73214e-10
3.36626e-10
1.60361e-10
6.01249e-11
1.95824e-11
7.80912e-12
6.69888e-12
9.95854e-12
1.87917e-11
3.32719e-11
5.68862e-11
9.18929e-11
6.28856e-09
7.93327e-09
8.0635e-09
1.44622e-07
6.92994e-07
6.94031e-07
1.11128e-07
5.49215e-10
5.49656e-10
7.91897e-10
8.83939e-10
7.0655e-10
4.58815e-10
2.39465e-10
9.64661e-11
3.09586e-11
8.96254e-12
3.50413e-12
3.68212e-12
7.05102e-12
1.33664e-11
2.892e-11
4.9974e-11
7.31617e-09
7.31997e-09
3.43661e-08
4.59304e-07
8.16173e-07
8.29079e-07
7.69821e-07
2.02083e-08
5.48838e-10
6.41458e-10
9.0478e-10
7.86397e-10
5.49149e-10
3.12945e-10
1.37669e-10
4.83092e-11
1.37344e-11
3.71711e-12
1.87383e-12
3.08762e-12
6.90984e-12
1.50203e-11
2.89957e-11
7.29996e-09
1.14101e-08
5.38585e-08
6.09834e-07
8.40041e-07
8.28587e-07
8.30458e-07
1.2053e-07
5.49653e-10
6.30325e-10
9.22446e-10
8.24259e-10
5.9241e-10
3.63566e-10
1.80053e-10
6.76133e-11
2.01154e-11
5.10964e-12
1.49e-12
1.36771e-12
2.81169e-12
8.5426e-12
1.69265e-11
2.39939e-08
1.3388e-08
4.67739e-08
4.24108e-07
8.38594e-07
8.00122e-07
4.32637e-07
8.24701e-10
8.26459e-10
7.01949e-10
9.79421e-10
8.41032e-10
5.86486e-10
3.72479e-10
1.93896e-10
8.047e-11
2.73063e-11
7.11866e-12
1.72194e-12
8.31123e-13
1.62096e-12
4.23091e-12
1.01196e-11
2.75025e-08
1.07195e-08
2.90103e-08
1.07966e-07
3.78647e-07
6.54032e-07
1.95466e-08
8.26913e-10
1.21738e-09
6.70601e-10
1.0039e-09
8.47498e-10
5.57046e-10
3.45613e-10
1.84888e-10
8.21683e-11
3.01266e-11
8.6723e-12
2.02795e-12
5.51608e-13
5.80555e-13
2.16917e-12
5.08564e-12
2.74782e-08
1.03799e-08
1.24117e-08
3.03587e-08
5.90152e-08
5.25222e-08
5.2565e-08
6.93494e-09
1.26455e-09
5.5702e-10
9.55988e-10
8.13606e-10
5.06143e-10
2.94915e-10
1.54437e-10
7.07699e-11
2.78486e-11
8.82166e-12
2.18728e-12
5.0302e-13
3.23536e-13
7.84357e-13
2.595e-12
3.06753e-08
1.03804e-08
1.54107e-08
2.18905e-08
5.60202e-08
6.75066e-08
6.75753e-08
1.40942e-08
2.24778e-09
4.76046e-10
8.10193e-10
7.14715e-10
4.29169e-10
2.33953e-10
1.14527e-10
5.13422e-11
2.09959e-11
7.2428e-12
1.9999e-12
4.43536e-13
1.5437e-13
3.19075e-13
9.52344e-13
3.68916e-08
3.51842e-08
4.90972e-08
1.17661e-07
2.22049e-07
2.28424e-07
9.19478e-08
1.32651e-08
2.99575e-09
4.85518e-10
5.90638e-10
5.48624e-10
3.27982e-10
1.6855e-10
7.44807e-11
3.10684e-11
1.25756e-11
4.57241e-12
1.42221e-12
3.41699e-13
8.36015e-14
7.36291e-14
3.98268e-13
3.62246e-08
4.95596e-08
1.69707e-07
2.31191e-07
2.3118e-07
1.82348e-07
4.64855e-08
1.15136e-08
2.79075e-09
4.20474e-10
3.62189e-10
3.5631e-10
2.18138e-10
1.0657e-10
4.22256e-11
1.55223e-11
5.71744e-12
2.11424e-12
7.11756e-13
2.01715e-13
4.58866e-14
2.95056e-14
9.88836e-14
4.22381e-08
8.04325e-08
1.77985e-07
1.52692e-07
7.32276e-08
1.73836e-08
5.45891e-09
2.8533e-09
1.22823e-09
2.48927e-10
1.78101e-10
1.84934e-10
1.19269e-10
5.68161e-11
2.01552e-11
6.20764e-12
1.93491e-12
6.3697e-13
2.33146e-13
8.14267e-14
2.21874e-14
7.66775e-15
2.84864e-14
3.2353e-07
3.24278e-07
1.00875e-07
3.21365e-08
4.85151e-09
2.60837e-10
1.18703e-11
7.85122e-11
3.26467e-10
9.3583e-11
6.27268e-11
7.17964e-11
5.02854e-11
2.39298e-11
7.90038e-12
2.00261e-12
4.69909e-13
1.2323e-13
4.49078e-14
2.14572e-14
6.37559e-15
2.29469e-15
6.22264e-15
3.57879e-07
2.21214e-07
4.25141e-08
6.53624e-09
5.83823e-10
5.15368e-11
5.31442e-12
3.22077e-13
8.80345e-11
2.02652e-11
1.37528e-11
1.78575e-11
1.44435e-11
7.01171e-12
2.19491e-12
4.62839e-13
7.70709e-14
1.32713e-14
4.94414e-15
3.55074e-15
1.48534e-15
5.84339e-16
1.27071e-15
1.8469e-07
4.91662e-08
8.29369e-09
7.78009e-10
8.30176e-11
1.09041e-11
1.12191e-12
7.4519e-14
1.6343e-11
1.73868e-12
1.06417e-12
2.2431e-12
2.03865e-12
1.02886e-12
2.96816e-13
5.19159e-14
5.99408e-15
6.78966e-16
2.92028e-16
3.75021e-16
3.04438e-16
1.52013e-16
2.38238e-16
0.214363
0.0817967
0.000553161
0.000571458
0.000560704
0.000560644
0.000557561
0.000560254
0.000732073
0.0282874
0.0290172
0.00952024
0.965833
0.984731
0.925816
0.627543
0.941774
0.996713
0.996736
0.99694
0.954523
0.984712
0.993551
0.997444
0.996773
0.995919
0.996778
0.997806
0.982145
0.983211
0.985679
0.990645
0.709982
0.707682
0.707431
0.687182
0.0396913
0.0360251
0.0376887
0.033955
1.0407e-36
-1.16221e-09
-1.20196e-09
6.96488e-22
7.20299e-14
-4.20337e-11
-2.1371e-11
-9.29265e-13
1.22662e-07
1.24874e-07
5.84224e-08
-4.04046e-25
4.73756e-08
4.9834e-08
1.1033e-08
1.23796e-22
3.30557e-08
5.80737e-09
8.36386e-09
1.01576e-05
1.49581e-05
2.1332e-05
2.21191e-05
2.22827e-05
2.26438e-05
2.26746e-05
2.26745e-05
2.10556e-05
5.21192e-06
7.73621e-06
6.94148e-06
2.61348e-06
9.50436e-09
2.72015e-07
4.80552e-07
2.76261e-07
2.58315e-08
1.20413e-07
8.15944e-08
9.83552e-08
1.22565e-08
1.49346e-08
2.78847e-08
1.97198e-08
6.35582e-09
8.36495e-09
8.36619e-09
1.00584e-08
4.0549e-09
4.27058e-09
5.26522e-09
5.21225e-09
2.41673e-09
2.73471e-09
2.85033e-09
3.15612e-09
1.50206e-09
1.62682e-09
1.80974e-09
1.85895e-09
8.54062e-10
9.82076e-10
1.06298e-09
1.16309e-09
4.78768e-10
5.44778e-10
6.36211e-10
6.72778e-10
2.52858e-10
3.11951e-10
3.56916e-10
4.1601e-10
1.41965e-10
1.74642e-10
2.2309e-10
2.50203e-10
8.12449e-11
1.11995e-10
1.35775e-10
1.7011e-10
5.21464e-11
6.78123e-11
9.73082e-11
1.15267e-10
3.13383e-11
4.92446e-11
6.19376e-11
8.46614e-11
1.99505e-11
2.83487e-11
4.37549e-11
5.25581e-11
1.16518e-11
1.78509e-11
2.43849e-11
3.6698e-11
5.55309e-12
8.47313e-12
1.4209e-11
1.73983e-11
2.84896e-12
4.37516e-12
6.45919e-12
1.08203e-11
1.06631e-12
1.71962e-12
3.26364e-12
4.45118e-12
4.14138e-13
6.90761e-13
1.09388e-12
2.04905e-12
1.00382e-13
1.94628e-13
4.10239e-13
5.76564e-13
2.75172e-14
5.61599e-14
9.42515e-14
2.11391e-13
5.8309e-15
1.21468e-14
2.83313e-14
5.80265e-14
1.11718e-15
2.70852e-15
6.70923e-15
1.38872e-14
0.00128952
0.00110124
0.089467
0.314678
0.179144
0.0220888
0.0212219
0.0212147
0.109594
0.246309
0.318822
0.341201
0.462227
0.716907
0.699285
0.400095
0.238104
0.230969
0.263028
0.000560888
0.00122368
0.0121867
0.0814022
0.155545
0.0666674
0.0212174
0.0212166
0.0311414
0.0494829
0.405664
0.827487
0.870862
0.871017
0.890635
0.904381
0.851868
0.854727
0.906623
0.0016613
0.00104262
0.0019525
0.00215028
0.0163101
0.0183017
0.0290947
0.165968
0.388219
0.410542
0.389068
0.649586
0.819244
0.781966
0.887272
0.987501
0.98753
0.982459
0.980877
0.175121
9.18259e-05
8.56331e-05
0.000243666
0.000241288
0.0269973
0.349077
0.724325
0.798568
0.532649
0.311801
0.311798
0.311822
0.43564
0.879652
0.983971
0.987504
0.988438
0.98408
0.978589
0.845922
0.561835
0.395108
0.41289
0.605156
0.862753
0.938149
0.97045
0.933181
0.566907
0.362123
0.572064
0.898698
0.985249
0.976315
0.979609
0.988411
0.988403
0.997691
0.990888
0.966729
0.964479
0.971947
0.950685
0.953618
0.991621
0.991633
0.964277
0.872904
0.88036
0.985735
0.994135
0.993523
0.987362
0.988376
0.988453
0.984479
0.997693
0.998739
0.99874
0.998745
0.998745
0.996406
0.993049
0.996978
0.998671
0.99
0.960319
0.958
0.991364
0.993806
0.9769
0.977734
0.988477
0.988506
0.987942
0.996362
0.994508
0.996629
0.998748
0.998747
0.998745
0.998744
0.998723
0.998725
0.998725
0.998725
0.998285
0.997433
0.991141
0.818496
0.592035
0.833598
0.945581
0.831314
0.60833
0.622128
0.726525
0.808204
0.899867
0.998744
0.998743
0.998744
0.998522
0.998263
0.998275
0.998264
0.998003
0.830487
0.138368
-1.74225e-12
0.121544
0.256437
0.117261
0.0226193
0.0222885
0.0482723
0.0979648
0.209182
0.478172
0.767958
0.919805
0.954344
0.946153
0.904104
0.839279
0.619465
0.145119
8.88306e-13
2.71798e-12
1.82934e-12
1.94907e-18
1.2517e-18
-5.79537e-22
1.49651e-20
-3.16076e-10
9.27863e-20
-5.05998e-20
0.00577841
0.180282
0.520657
0.614856
0.501325
0.237574
0.0391827
2.8113e-12
1.07094e-12
1.80549e-09
1.26207e-09
9.50815e-10
3.19024e-09
7.1164e-09
1.98024e-05
2.8979e-05
4.94777e-06
1.00065e-07
-2.5528e-23
-5.85124e-21
2.46363e-06
0.00991409
0.00149365
1.2379e-12
1.06981e-12
1.23791e-12
2.28416e-09
5.38419e-09
5.21817e-09
2.45639e-09
2.32114e-09
2.38032e-08
2.26939e-08
2.79429e-05
4.5836e-05
2.42923e-05
4.13749e-07
9.68495e-08
1.09375e-07
9.74748e-13
2.93134e-13
2.6811e-13
5.15371e-11
1.9713e-09
8.2093e-09
1.37439e-08
5.78522e-09
2.29241e-09
1.90781e-09
1.90505e-09
8.05002e-08
8.44827e-08
2.57543e-05
4.52354e-05
2.50438e-05
5.85819e-07
1.60517e-07
1.59115e-07
7.10082e-08
2.39403e-08
4.73528e-09
7.44197e-09
6.56509e-09
1.19534e-08
3.5602e-08
2.80686e-09
2.38878e-09
3.81433e-05
1.29356e-05
6.86109e-08
8.72204e-08
2.37426e-05
2.44146e-05
5.05362e-06
4.77157e-07
5.53991e-08
5.83493e-08
4.03152e-08
2.35594e-08
3.2193e-08
3.23632e-08
1.78303e-08
3.24865e-09
3.08918e-08
2.77464e-09
4.96994e-05
9.30046e-05
3.77144e-05
-1.96111e-11
5.86668e-08
1.80188e-05
5.81577e-06
3.05808e-06
1.43977e-06
1.95599e-06
2.9197e-08
3.03623e-08
2.15972e-08
2.17713e-08
2.41912e-08
1.20246e-08
4.48716e-10
2.25958e-09
5.75611e-05
0.000224245
0.000110746
3.51627e-05
-2.30972e-11
3.3303e-08
8.11407e-06
1.2806e-05
1.29419e-05
1.61016e-06
1.71968e-06
0.000145401
0.000159128
5.87746e-05
1.32578e-06
5.63911e-10
1.65333e-10
1.41825e-10
1.06696e-05
0.000267291
0.00026982
0.000110228
1.93866e-06
-2.36642e-14
4.99115e-08
2.44357e-06
8.60522e-06
6.90792e-06
1.51932e-06
1.0358e-05
0.000133489
0.00012933
0.000290057
0.000289562
0.000281235
8.72828e-05
0.000157341
0.000299517
0.000300205
0.000129373
4.38284e-06
8.19128e-08
6.67185e-07
2.4172e-05
1.11038e-07
1.85152e-07
2.6415e-08
1.53567e-06
5.02511e-06
1.14414e-05
1.39728e-05
0.000107213
0.000228392
0.00013714
0.000257868
0.000295746
0.000299048
0.000114383
7.84579e-06
4.45766e-06
6.90133e-08
0.000113772
0.000213372
4.88692e-08
2.19659e-08
2.41951e-08
4.21353e-07
1.26473e-07
1.2875e-07
1.23385e-07
1.28584e-07
1.15934e-05
1.73032e-06
3.21015e-05
4.41088e-05
1.44522e-05
5.13077e-06
9.59833e-06
5.46846e-06
1.75181e-07
0.000233149
0.000233057
1.97699e-08
1.73802e-08
2.86078e-08
7.48532e-08
1.79744e-07
2.23067e-07
2.09165e-07
1.56817e-07
9.22459e-08
7.77411e-08
4.5928e-08
4.52387e-08
4.67597e-08
4.93098e-06
9.50855e-06
1.7974e-05
0.000134167
0.00023403
0.000168669
9.34955e-09
1.13102e-08
1.78371e-08
7.86352e-08
2.39406e-07
2.82051e-07
2.82805e-07
2.37786e-07
9.97258e-08
3.63175e-08
4.87888e-08
4.46454e-08
4.45884e-08
9.37826e-07
3.37696e-08
9.65825e-05
0.000221341
0.000233983
7.88942e-05
5.87045e-09
6.58068e-09
6.88585e-09
2.24765e-08
7.8177e-08
1.7833e-07
2.08458e-07
1.35292e-07
4.55168e-08
1.74964e-08
1.75264e-08
1.9978e-08
1.90601e-08
4.06423e-08
3.34156e-08
4.20608e-05
0.000122786
0.000124838
4.35589e-05
3.27376e-09
3.65764e-09
4.08888e-09
4.45011e-09
6.31083e-09
2.29277e-08
3.79803e-08
3.07113e-08
1.50857e-08
8.09491e-09
9.23401e-09
1.57479e-08
1.04551e-08
1.54699e-09
4.67051e-06
6.48146e-06
2.85653e-08
1.64208e-06
3.94883e-05
1.99784e-09
2.23082e-09
2.48584e-09
2.54205e-09
2.54213e-09
3.21958e-09
6.35336e-09
7.33832e-09
6.78351e-09
6.43844e-09
7.61958e-09
1.30223e-08
7.82531e-09
1.48744e-09
5.96245e-07
1.409e-07
2.89308e-08
2.71784e-06
0.000137675
1.20311e-09
1.40398e-09
1.59158e-09
1.77024e-09
1.97897e-09
2.44154e-09
3.35551e-09
4.29309e-09
5.05748e-09
5.70981e-09
6.27351e-09
7.54345e-09
1.73828e-08
1.2047e-08
3.2413e-07
3.35075e-07
1.70527e-07
1.4268e-07
0.000178553
7.47098e-10
9.0236e-10
1.06607e-09
1.25572e-09
1.51016e-09
1.88951e-09
2.54193e-09
3.34003e-09
4.27118e-09
5.04422e-09
5.9291e-09
9.68505e-09
9.7361e-09
9.39512e-07
1.3985e-06
1.40897e-06
7.36903e-07
2.89263e-08
0.000171932
4.57812e-10
5.93574e-10
7.44986e-10
9.29012e-10
1.16945e-09
1.48052e-09
1.98705e-09
2.67808e-09
3.52815e-09
4.38805e-09
5.41131e-09
9.46005e-09
1.16256e-08
7.53533e-07
1.43149e-06
1.07308e-06
4.05024e-07
2.87765e-08
0.000121672
2.94448e-10
4.07294e-10
5.46427e-10
7.18013e-10
9.3243e-10
1.216e-09
1.62355e-09
2.21182e-09
2.88573e-09
3.74023e-09
4.68898e-09
7.99379e-09
3.26889e-08
1.07056e-07
3.89961e-07
2.19183e-07
1.77663e-07
2.88704e-08
2.06748e-05
2.01344e-10
2.94292e-10
4.19574e-10
5.78158e-10
7.81692e-10
1.04494e-09
1.38917e-09
1.88807e-09
2.55839e-09
3.27946e-09
4.05431e-09
5.85741e-09
1.84624e-08
7.39445e-08
1.10434e-06
2.52046e-06
8.13835e-08
2.87279e-08
2.87747e-08
1.43296e-10
2.21785e-10
3.31092e-10
4.72407e-10
6.61079e-10
9.0139e-10
1.2475e-09
1.74028e-09
2.46307e-09
3.36739e-09
4.30267e-09
5.44891e-09
1.35751e-08
7.26542e-08
3.00231e-06
7.24376e-06
6.28858e-06
7.558e-07
6.63353e-08
1.03874e-10
1.66629e-10
2.58732e-10
3.77133e-10
5.41915e-10
7.59794e-10
1.08265e-09
1.58179e-09
2.44156e-09
3.81589e-09
5.41545e-09
6.69899e-09
9.21674e-09
4.8303e-08
2.24436e-06
7.32518e-06
7.26541e-06
6.94636e-06
6.24916e-06
7.29713e-11
1.20466e-10
1.87379e-10
2.83846e-10
4.12522e-10
6.02091e-10
8.67099e-10
1.31291e-09
2.13307e-09
3.86647e-09
7.13119e-09
1.10725e-08
1.19654e-08
2.13465e-08
2.91799e-07
4.3803e-06
7.32277e-06
7.1852e-06
2.39167e-06
4.61483e-11
8.12755e-11
1.28577e-10
1.9872e-10
2.97298e-10
4.34988e-10
6.39706e-10
9.98249e-10
1.69963e-09
3.2405e-09
7.50638e-09
1.80558e-08
3.59193e-08
4.34575e-08
6.10118e-08
2.86828e-07
3.91263e-06
3.98975e-06
1.99624e-08
2.8634e-11
4.9312e-11
8.13459e-11
1.28251e-10
1.96014e-10
2.90088e-10
4.42159e-10
7.05309e-10
1.18737e-09
2.26513e-09
4.91878e-09
1.6657e-08
7.02099e-08
1.33524e-07
8.36199e-08
6.51967e-08
1.83986e-07
7.16023e-08
1.99647e-08
1.46942e-11
2.73524e-11
4.68198e-11
7.5193e-11
1.16552e-10
1.79603e-10
2.78093e-10
4.55068e-10
7.84006e-10
1.4459e-09
2.94027e-09
8.57255e-09
4.56019e-08
1.72102e-07
2.09861e-07
5.40484e-08
2.49212e-08
2.50971e-08
3.20311e-08
7.06119e-12
1.35521e-11
2.40775e-11
3.97311e-11
6.3665e-11
1.00787e-10
1.61798e-10
2.6965e-10
4.81113e-10
9.06176e-10
1.80583e-09
4.1191e-09
1.57336e-08
9.13543e-08
2.32923e-07
2.19361e-07
4.1019e-08
2.0548e-08
2.16664e-07
2.91776e-12
6.02918e-12
1.10811e-11
1.89807e-11
3.16762e-11
5.18098e-11
8.56739e-11
1.47824e-10
2.70008e-10
5.20111e-10
1.03005e-09
2.1031e-09
5.471e-09
2.59823e-08
1.492e-07
2.52279e-07
2.00153e-07
1.34516e-07
2.41521e-07
1.12907e-12
2.35405e-12
4.49718e-12
8.20586e-12
1.42513e-11
2.48842e-11
4.26239e-11
7.60366e-11
1.43287e-10
2.89033e-10
6.12605e-10
1.27459e-09
2.66662e-09
7.15191e-09
3.81745e-08
2.2112e-07
2.51005e-07
2.38171e-07
2.08592e-07
3.5352e-13
7.92596e-13
1.59633e-12
3.03913e-12
5.68061e-12
1.03599e-11
1.89772e-11
3.51257e-11
6.88247e-11
1.43145e-10
3.15226e-10
6.90693e-10
1.45693e-09
3.32954e-09
1.2561e-08
7.06042e-08
2.50975e-07
2.52926e-07
5.38682e-08
9.78289e-14
2.31252e-13
4.86849e-13
9.83455e-13
1.99681e-12
3.9727e-12
7.77076e-12
1.5196e-11
3.06396e-11
6.56824e-11
1.49824e-10
3.4618e-10
7.63906e-10
1.61658e-09
4.03878e-09
1.88421e-08
1.01927e-07
1.66123e-07
1.39529e-08
2.43371e-14
6.11483e-14
1.37966e-13
3.01029e-13
6.54575e-13
1.41482e-12
2.95859e-12
6.13405e-12
1.27899e-11
2.77687e-11
6.4894e-11
1.56961e-10
3.69869e-10
7.95919e-10
1.58348e-09
3.82454e-09
1.24253e-08
1.74802e-08
4.24453e-09
)
;

boundaryField
{
    leftWall
    {
        type            zeroGradient;
    }
    rightWall
    {
        type            zeroGradient;
    }
    lowerWall
    {
        type            zeroGradient;
    }
    atmosphere
    {
        type            inletOutlet;
        inletValue      uniform 0;
        value           nonuniform List<scalar> 
46
(
1.8469e-07
4.91662e-08
8.29369e-09
7.78009e-10
8.30176e-11
1.09041e-11
0
0
0
0
0
0
0
0
0
0
0
0
0
3.75021e-16
3.04438e-16
1.52013e-16
2.38238e-16
1.11718e-15
2.70852e-15
6.70923e-15
1.38872e-14
2.43371e-14
6.11483e-14
1.37966e-13
0
0
0
0
0
0
0
0
0
0
0
0
3.82454e-09
1.24253e-08
1.74802e-08
4.24453e-09
)
;
    }
    defaultFaces
    {
        type            empty;
    }
}


// ************************************************************************* //
