/*--------------------------------*- C++ -*----------------------------------*\
| =========                 |                                                 |
| \\      /  F ield         | OpenFOAM: The Open Source CFD Toolbox           |
|  \\    /   O peration     | Version:  2312                                  |
|   \\  /    A nd           | Website:  www.openfoam.com                      |
|    \\/     M anipulation  |                                                 |
\*---------------------------------------------------------------------------*/
FoamFile
{
    version     2.0;
    format      ascii;
    arch        "LSB;label=32;scalar=64";
    class       volScalarField;
    location    "3.1";
    object      alpha.air;
}
// * * * * * * * * * * * * * * * * * * * * * * * * * * * * * * * * * * * * * //

dimensions      [0 0 0 0 0 0 0];

internalField   nonuniform List<scalar> 
2268
(
6.8706e-10
5.93157e-10
3.27022e-10
1.2715e-10
8.5693e-11
4.21809e-11
1.97295e-11
1.42534e-11
1.32303e-11
1.58574e-11
2.17162e-11
3.2327e-11
4.70888e-11
7.33092e-11
1.20872e-10
1.7515e-10
1.9154e-10
1.47173e-10
1.31563e-10
1.56362e-10
5.35625e-09
4.61495e-08
1.48658e-07
7.02153e-10
5.93459e-10
6.49312e-10
7.91624e-10
3.25814e-10
1.37001e-10
6.07307e-11
5.57529e-11
6.38303e-11
9.87734e-11
1.85727e-10
2.8216e-10
3.39195e-10
3.72037e-10
7.73643e-10
1.70001e-09
3.57335e-09
2.99379e-09
2.26737e-09
1.56731e-10
5.44325e-08
1.18765e-06
2.24836e-06
8.84315e-10
3.90284e-09
7.0276e-09
5.18218e-09
8.73888e-10
9.31436e-11
8.72506e-11
1.21262e-10
1.68891e-10
3.39587e-10
8.91016e-10
1.38715e-09
1.40016e-09
4.94456e-10
1.55868e-09
4.67693e-09
2.15416e-08
3.62589e-08
3.77164e-08
1.65102e-08
8.25171e-08
1.58194e-06
1.58233e-06
1.40761e-09
7.1064e-09
7.00434e-09
2.41381e-09
1.54495e-10
1.54689e-10
8.7219e-11
3.14775e-10
1.66963e-10
1.67315e-10
2.16608e-10
1.90727e-10
1.66414e-10
1.90349e-10
1.65955e-10
1.89885e-10
1.11859e-08
4.20224e-08
1.25187e-07
1.65286e-08
1.67776e-08
1.80967e-08
9.54223e-05
8.2978e-10
2.46119e-09
1.28438e-10
1.92249e-07
1.72609e-06
2.34217e-06
6.68497e-08
6.13405e-08
1.84609e-06
1.40617e-05
2.27191e-05
9.16577e-06
6.83558e-08
1.10383e-05
5.90333e-05
1.58715e-06
1.12029e-08
5.52826e-06
2.7791e-06
2.20051e-05
0.000498394
0.00396773
0.0105517
7.93582e-11
1.05983e-10
3.73679e-11
5.75511e-11
5.87637e-06
1.4353e-06
1.43834e-06
4.72081e-05
0.000147426
0.000234071
0.000251051
0.000127729
3.74014e-06
2.99368e-05
0.000496043
0.0011292
0.000857825
0.000424415
0.000274065
0.000169086
0.00350751
0.0149763
0.0151469
4.02492e-05
0.000131214
0.000610357
0.000232567
1.43997e-06
1.43481e-06
1.43493e-06
0.000103532
0.000239512
0.00025919
0.000259166
0.000181726
3.10797e-05
2.97316e-05
0.000496774
0.0021267
0.00241282
0.000408714
0.000395185
0.00505678
0.0096545
0.0124088
0.0152491
0.00115824
0.00152303
0.00152959
0.000970885
1.43481e-06
1.43482e-06
7.3333e-05
8.03455e-05
8.22888e-05
0.000117144
0.000173415
0.000178679
0.000178464
9.06929e-05
9.02097e-05
0.00510257
0.0101524
0.0100985
0.00751496
0.0082865
0.00818716
0.0199132
0.0238001
0.000227136
0.00262747
0.00620021
0.0111423
0.0111428
0.0106286
0.00648133
0.00644932
0.00401176
0.00401186
0.00422392
0.00413859
0.00338744
0.00338748
0.00630007
0.00822614
0.00762173
0.00720749
0.00654142
0.000211133
0.0004394
0.000818408
0.00251705
0.00445915
0.00536711
0.00597885
0.00409996
0.00401186
0.00412081
0.00584668
0.00584648
0.00446877
0.0033872
0.00344101
0.0119173
0.0177516
0.017398
0.0105313
0.000187043
0.000186554
0.000214039
0.000709755
0.00196049
0.00865766
0.0135281
0.0122245
0.00402414
0.0040204
0.00451398
0.00494914
0.00621574
0.00794421
0.00649878
0.0157707
0.0177518
0.0153305
0.0128092
0.000186554
0.000187508
0.00705508
0.00925331
0.00768985
0.0191144
0.0273366
0.0273397
0.0254351
0.00911714
0.0059094
0.0244904
0.0424712
0.0366322
0.0200934
0.0182733
0.0127167
0.012015
0.00973395
0.00287724
0.00776984
0.0323254
0.00863397
0.00666243
0.00987452
0.0109459
0.0113174
0.0121776
0.0382722
0.0485117
0.0414341
0.0431645
0.0429212
0.0450101
0.0451982
0.0448139
0.0383879
0.00986813
0.0370902
0.0374922
0.0381246
0.00944373
0.00653582
0.00663747
0.00830068
0.00946062
0.0214404
0.0482106
0.0485169
0.0455644
0.0328318
0.0324335
0.0358089
0.0491666
0.0491921
0.0495498
0.029812
0.038176
0.0381747
0.0381097
0.0208628
0.00815856
0.0164674
0.0164615
0.0153628
0.014862
0.0176285
0.0251195
0.0283359
0.0296225
0.0165961
0.0431367
0.0925372
0.0776441
0.05209
0.0500116
0.0381747
0.0381765
0.0381752
0.0316833
0.0134408
0.0100987
0.00842735
0.00699748
0.00730827
0.0164841
0.0353749
0.0535091
0.0279435
0.0179302
0.0781539
0.0960361
0.0959187
0.0561448
0.0500304
0.000786878
0.00118733
0.00118843
0.000268351
0.000118862
0.000374321
0.000449373
0.000441552
0.000437073
0.000440121
0.000328258
0.000305399
0.000330231
0.000359139
0.000198238
0.00121135
0.00923792
0.0112142
0.0108373
0.00912937
0.0127567
0.0235352
0.0170108
0.000668032
0.000668033
0.000687111
0.00141355
0.00325087
0.00331972
0.00254364
0.00328649
0.00571327
0.00542378
0.00344015
0.00322384
0.0130575
0.016523
0.00811621
0.00322926
0.0153977
0.0423631
0.0597263
0.0656197
0.0582509
0.0117717
0.00420684
0.000669947
0.000668362
0.000668079
0.00188962
0.0018761
0.00701736
0.0331249
0.0290214
0.0171739
0.0120071
0.0420159
0.0620459
0.0642966
0.0642487
0.058341
0.0406529
0.0581942
0.0786899
0.0786838
0.0786954
0.0786894
0.0232193
0.0198349
0.00318276
0.00438426
0.0150554
0.0545842
0.050481
0.0128971
0.0579396
0.173
0.0632881
0.0103301
0.0480018
0.0642966
0.0642966
0.0642966
0.0560871
0.026173
0.0267157
0.0402581
0.0471199
0.0630611
0.0787013
0.0746643
0.0101326
0.0635484
0.0641773
0.0876656
0.0874468
0.0867968
0.0838204
0.127122
0.186152
0.0298289
0.00842069
0.00841967
0.0201841
0.0274228
0.0204451
0.00750188
0.00131314
0.00057286
0.000579902
0.000789886
0.00279829
0.02576
0.0565702
0.0568411
0.438351
0.418857
0.400724
0.421383
0.454474
0.484074
0.442298
0.397556
0.303686
0.14441
0.0687888
0.000754129
0.000595091
0.000594569
0.000564519
0.000535111
0.000505807
0.000388305
0.000244125
0.000159427
0.000220998
0.0109684
0.0474184
0.985177
0.975633
0.968488
0.967251
0.968134
0.963087
0.962395
0.915185
0.924569
0.902271
0.831943
0.696723
0.471443
0.267572
0.111848
0.0210638
0.000483446
0.000258133
0.000147401
0.000139712
0.000138594
0.000496214
0.00277038
0.996249
0.996434
0.99731
0.999358
0.999922
0.999943
0.999954
0.999955
0.999451
0.998011
0.997519
0.998211
0.991923
0.929845
0.806626
0.635134
0.400394
0.211716
0.0913267
0.0203948
0.000694075
0.000241864
0.000240255
0.999961
0.999999
0.999998
0.999998
0.999998
0.999975
0.999952
0.999955
0.99992
0.999834
0.999815
0.999993
1
0.999979
0.999921
0.999843
0.980957
0.90538
0.781696
0.625016
0.449522
0.330509
0.289136
1
1
1
0.999999
0.999999
0.99999
0.999951
0.99995
0.999966
0.999946
0.999956
0.999999
1
1
0.999999
0.999993
0.999639
0.999099
0.997555
0.998597
0.992875
0.971639
0.949212
1
1
1
1
1
1
0.999994
0.999988
0.99999
0.999977
0.999963
0.999971
0.999995
1
1
1
0.999995
0.999996
0.999997
0.999998
0.999994
0.999763
0.999651
1
1
1
1
0.999999
0.999999
1
1
0.999999
0.999998
0.999988
0.999982
0.999994
1
0.999994
0.999961
0.999933
0.999931
0.999962
0.999998
1
1
1
1
1
1
0.999997
0.999981
0.999973
0.999986
0.999997
0.999999
0.999982
0.999975
0.999975
0.999984
0.999986
0.999982
0.99997
0.999906
0.999905
0.999905
0.999941
0.999988
1
1
1
1
1
0.999984
0.999968
0.999968
0.999968
0.999993
0.999995
0.999983
0.999965
0.999967
0.9999
0.999855
0.999855
0.999855
0.999887
0.99995
0.999947
0.999957
0.999993
1
1
1
1
1
0.99998
0.999968
0.999971
0.999993
0.999992
0.999918
0.999856
0.999856
0.999856
0.9999
0.999939
0.999971
0.999976
0.999978
0.99998
0.99998
0.999971
0.99997
0.999974
0.99999
1
1
1
0.999995
0.999983
0.999999
0.999999
0.999989
0.999884
0.999859
0.999972
0.999998
0.999996
0.999995
0.999981
0.999974
0.999974
0.999975
0.99999
0.999988
0.999979
0.999978
0.999956
1
1
1
1
1
1
0.999999
0.999998
1
1
1
1
1
0.999998
0.999994
0.999994
0.999998
1
1
1
0.999999
0.999991
0.999978
1
1
1
1
1
1
1
1
1
1
1
1
1
1
1
1
1
1
1
1
0.999999
0.999998
0.999996
1
1
1
1
1
1
1
1
1
1
1
1
1
1
1
1
1
1
1
1
1
1
1
1
1
1
1
1
1
1
1
1
1
1
1
1
1
1
1
1
1
1
1
1
1
1
1
1
1
1
1
1
1
1
1
1
1
1
1
1
1
1
1
1
1
1
1
1
1
1
1
1
1
1
1
1
1
1
1
1
1
1
1
1
1
1
1
1
1
1
1
1
1
1
1
1
1
1
1
1
1
1
1
1
1
1
1
1
1
1
1
1
1
1
1
1
1
1
1
1
1
1
1
1
1
1
1
1
1
1
1
1
1
1
1
1
1
1
1
1
1
1
1
1
1
1
1
1
1
1
1
1
1
1
1
1
1
1
1
1
1
1
1
1
1
1
1
1
1
1
1
1
1
1
1
1
1
1
1
1
1
1
1
1
1
1
1
1
1
1
1
1
1
1
1
1
1
1
1
1
1
1
1
1
1
1
1
1
1
1
1
1
1
1
1
1
1
1
1
1
1
1
1
1
1
1
1
1
1
1
1
1
1
1
1
1
1
1
1
1
1
1
1
1
1
1
1
1
1
1
1
1
1
1
1
1
1
0.999999
0.999999
1
1
1
1
1
1
1
1
1
1
1
1
1
1
1
1
1
1
1
1
1
0.999999
0.999999
0.999999
1
1
1
1
1
1
1
1
1
1
1
1
1
1
1
1
1
1
1
0.999999
0.999999
0.999999
0.999999
1
1
1
1
1
1
1
1
1
1
1
1
1
1
1
1
1
1
1
1
0.999999
0.999999
0.999999
1
1
1
1
1
1
1
1
1
1
1
1
1
1
1
1
1
1
1
1
1
0.999999
0.999999
1
1
1
1
1
1
1
1
1
1
1
1
1
1
1
1
1
1
1
1
1
0.999999
0.999998
0.999999
1
1
1
1
1
1
1
1
1
1
1
1
1
1
1
1
1
1
1
1
0.999999
0.999998
0.999999
1
1
1
1
1
1
1
1
1
1
1
1
1
1
1
1
1
1
1
1
0.999999
0.999999
1
1
1
1
1
1
1
1
1
1
1
1
1
1
1
1
1
1
1
1
1
1
1
1
1
1
1
1
1
1
1
1
1
1
1
1
1
1
1
1
1
1
1
1
1
1
1
1
1
1
1
1
1
1
1
1
1
1
1
1
1
1
0.999999
0.999999
1
1
1
1
1
1
1
1
1
1
1
1
1
1
1
1
1
1
1
1
1
0.999999
1
1
1
1
1
1
1
1
1
1
1
1
1
1
1
1
1
1
1
1
1
1
1
1
1
1
1
1
1
1
1
1
1
1
1
1
1
1
1
1
1
1
1
1
1
0.0035784
0.00129628
0.00129653
0.00331036
0.00793581
0.00621259
0.00201273
0.000869877
0.0530331
0.053073
0.0530692
0.0461763
0.00862018
0.0100726
0.0558552
0.0639445
0.0523859
0.00289232
0.00280301
0.00261307
0.0453801
0.0151817
0.00572657
0.00180073
0.00321821
0.00407225
0.00305932
0.0016662
0.000239892
0.000237949
0.000237386
0.000235586
0.268984
0.271285
0.271816
0.292361
0.939548
0.943779
0.941555
0.945327
0.999474
0.999617
0.999786
0.997716
1
0.999999
0.999999
0.999998
0.999999
0.999999
0.999999
0.999999
1
1
0.999999
0.999998
0.999995
0.99998
0.999958
0.999948
0.999942
0.999936
0.999936
0.999936
0.999964
0.999955
0.999956
0.999967
0.999995
0.999992
0.999993
0.999997
1
1
0.999999
1
1
1
1
1
1
1
1
1
1
1
1
1
1
1
1
1
1
1
1
1
1
1
1
1
1
1
1
1
1
1
1
1
1
1
1
1
1
1
1
1
1
1
1
1
1
1
1
1
1
1
1
1
1
1
1
1
1
1
1
1
1
1
1
1
1
1
1
1
1
1
1
1
1
1
1
1
1
1
1
1
1
1
1
1
1
1
1
1
1
1
1
1
0.00922924
0.0136597
0.021224
0.027174
0.0151693
0.00886976
0.00576358
0.00575609
0.0124947
0.0830263
0.0948745
0.0757867
0.00744233
0.0133095
0.0634243
0.0959455
0.0960361
0.095898
0.0673813
0.000827062
0.000824946
0.00082672
0.00356404
0.010992
0.0149954
0.017775
0.0194192
0.0260225
0.0897943
0.0948807
0.0399
0.00743717
0.00745296
0.0162545
0.0448811
0.0861457
0.0907293
0.0675099
0.00763888
0.00216981
0.00128302
0.00132438
0.00153625
0.00666658
0.0520187
0.0799409
0.0565173
0.0492213
0.0744987
0.117412
0.057825
0.0393308
0.0360893
0.00691318
0.00842431
0.00896367
0.00497418
0.0639447
0.063486
0.0365937
0.0199224
0.0206873
0.0442971
0.080094
0.079824
0.0579868
0.0849978
0.153266
0.166331
0.193743
0.193749
0.0759145
0.00505758
0.00505917
0.00498823
0.00497418
0.0207398
0.0688299
0.0693279
0.0693647
0.0704901
0.0746716
0.074885
0.0503301
0.0180155
0.045655
0.185888
0.193649
0.193188
0.0989279
0.00974903
0.00590369
0.0100369
0.00497458
0.00497418
0.00160845
0.00861153
0.0325281
0.0339005
0.0261208
0.0472816
0.0368869
0.00126883
0.00126875
0.026872
0.11438
0.10955
0.0125854
0.00175891
0.00115222
0.00115222
0.00724116
0.00497418
0.00497418
0.000237773
0.000356017
0.00117777
0.00118926
0.00118646
0.00353261
0.00693875
0.00298099
0.00126871
0.0099623
0.0389329
0.0398994
0.0046922
0.00115221
0.00115222
0.00115431
0.00392709
0.00711736
0.00497418
0.000237386
0.000237739
0.000239472
0.000311313
0.000897791
0.00108265
0.00123463
0.00127046
0.00126929
0.00126111
0.00123552
0.00169508
0.00213054
0.00115222
0.157605
0.386248
0.157114
0.0527919
0.168613
0.369909
0.359905
0.266081
0.186206
0.0967753
0.000912924
0.000885481
0.000869342
0.000838864
0.000836803
0.000835153
0.00118714
0.00121596
0.157618
0.838164
0.986312
0.874057
0.742387
0.88269
0.958468
0.963062
0.937105
0.887099
0.77617
0.519019
0.231287
0.0769325
0.0416797
0.0495905
0.090989
0.155646
0.372452
0.840837
0.992352
0.99999
0.999999
0.999743
0.99995
0.997508
0.998114
0.997456
0.994096
0.991802
0.986415
0.811447
0.471268
0.381276
0.489688
0.750374
0.949013
0.990105
0.997018
1
1
1
1
0.999996
0.99998
0.999971
0.999995
0.999992
0.998951
0.991937
0.990171
0.978438
0.986488
0.988369
0.994292
0.999802
1
1
1
1
1
1
1
0.999972
0.999954
0.999976
0.999999
0.999999
0.998032
0.991213
0.991185
0.995286
0.996321
0.997904
0.999989
0.99999
1
0.999991
0.999958
0.999984
0.999998
1
0.999958
0.999947
0.999973
0.999999
0.999999
0.999999
0.998959
0.998542
0.999487
0.999854
0.999471
0.999357
0.999942
0.999994
0.999932
0.999764
0.999843
0.99998
0.999999
0.999943
0.999966
0.999995
0.999999
0.999999
0.999999
0.999999
1
1
0.999998
0.999997
0.999998
0.999999
0.999994
0.999824
0.999707
0.999759
0.999951
0.999999
0.999959
0.999993
0.999996
0.999997
0.999996
0.999985
0.999984
0.999995
1
0.999999
0.999998
0.999999
0.999999
0.99994
0.999719
0.999708
0.999763
0.999956
0.999999
0.99999
0.999986
0.999986
0.999997
0.999985
0.999828
0.999815
0.999921
0.999991
0.999998
0.999998
0.999997
0.999981
0.999728
0.999727
0.999756
0.999897
0.999989
0.999999
0.999997
0.99999
0.999991
0.999995
0.999984
0.999856
0.999861
0.999682
0.999683
0.999692
0.999886
0.99982
0.99969
0.999694
0.99987
0.99999
0.99999
0.999989
0.99997
1
1
0.999999
0.999998
0.999995
0.999989
0.999986
0.999889
0.99975
0.999836
0.999715
0.99969
0.999689
0.999881
0.99999
0.99999
0.99999
0.999852
0.999758
1
1
1
1
1
1
1
1
0.999986
0.999991
0.999964
0.999954
0.999985
0.999995
0.999983
0.999984
0.999971
0.999726
0.999737
1
1
1
1
1
1
1
1
1
1
1
1
1
0.999995
0.999983
0.999959
0.999825
0.999727
0.999815
1
1
1
1
1
1
1
1
1
1
1
1
1
0.999999
0.999997
0.999874
0.999743
0.999743
0.999913
1
1
1
1
1
1
1
1
1
1
1
1
1
1
1
0.999937
0.999849
0.999873
0.99995
1
1
1
1
1
1
1
1
1
1
1
1
1
1
0.999995
0.999986
0.999994
0.999996
0.999951
1
1
1
1
1
1
1
1
1
1
1
1
1
1
0.999999
0.999999
0.999999
0.999996
0.999839
1
1
1
1
1
1
1
1
1
1
1
1
1
1
1
1
1
0.999999
0.999797
1
1
1
1
1
1
1
1
1
1
1
1
1
0.999999
0.999999
0.999999
0.999999
1
0.999804
1
1
1
1
1
1
1
1
1
1
1
1
1
0.999999
0.999999
0.999999
0.999999
1
0.999862
1
1
1
1
1
1
1
1
1
1
1
1
1
1
1
1
1
1
0.999977
1
1
1
1
1
1
1
1
1
1
1
1
1
1
0.999999
0.999997
1
1
1
1
1
1
1
1
1
1
1
1
1
1
1
1
1
0.999997
0.999993
0.999994
0.999999
1
1
1
1
1
1
1
1
1
1
1
1
1
1
1
0.999998
0.999993
0.999993
0.999993
0.999994
1
1
1
1
1
1
1
1
1
1
1
1
1
1
1
0.999996
0.999993
0.999993
0.999998
1
1
1
1
1
1
1
1
1
1
1
1
1
1
1
1
0.999996
0.999996
1
1
1
1
1
1
1
1
1
1
1
1
1
1
1
1
1
1
1
1
1
1
1
1
1
1
1
1
1
1
1
1
1
1
1
1
1
1
1
1
1
1
1
1
1
1
1
1
1
1
1
1
1
1
1
1
1
1
1
1
1
1
1
1
1
1
1
1
1
1
1
1
1
1
1
1
1
1
1
1
1
1
1
1
1
1
1
1
1
1
1
1
1
1
1
1
1
1
1
1
1
1
1
1
1
1
1
1
1
1
1
1
1
1
1
1
1
1
1
1
1
1
1
1
1
1
1
1
1
1
1
1
1
1
1
1
1
1
1
1
1
1
1
1
1
1
1
1
1
1
1
1
1
)
;

boundaryField
{
    leftWall
    {
        type            alphaContactAngle;
        thetaProperties 
6
(
(galistan air) 90 0 0 0
(oil galistan) 90 0 0 0
(water oil) 90 0 0 0
(water air) 90 0 0 0
(oil air) 90 0 0 0
(water galistan) 90 0 0 0
);
        value           nonuniform List<scalar> 
50
(
6.8706e-10
7.02153e-10
8.84315e-10
1.40761e-09
8.2978e-10
7.93582e-11
4.02492e-05
0.00115824
0.000786878
0.000668032
0.000669947
0.00318276
0.0635484
0.438351
0.985177
0.996249
0.999961
1
1
1
1
1
1
1
1
1
1
1
1
1
1
1
1
1
1
1
1
1
1
1
1
1
1
1
1
1
1
0.999999
0.999999
1
)
;
    }
    rightWall
    {
        type            alphaContactAngle;
        thetaProperties 
6
(
(galistan air) 90 0 0 0
(oil galistan) 90 0 0 0
(water oil) 90 0 0 0
(water air) 90 0 0 0
(oil air) 90 0 0 0
(water galistan) 90 0 0 0
);
        value           nonuniform List<scalar> 
50
(
0.00654142
0.0105313
0.0128092
0.00973395
0.00986813
0.029812
0.0500116
0.0500304
0.0673813
0.0675099
0.00497418
0.00497418
0.00497418
0.00497418
0.00497418
0.168613
0.88269
0.99995
0.999996
1
1
0.999999
0.999999
0.999999
0.999999
0.99997
0.999758
0.999737
0.999815
0.999913
0.99995
0.999951
0.999839
0.999797
0.999804
0.999862
0.999977
1
1
0.999994
0.999998
1
1
1
1
1
1
1
1
1
)
;
    }
    lowerWall
    {
        type            alphaContactAngle;
        thetaProperties 
6
(
(galistan air) 90 0 0 0
(oil galistan) 90 0 0 0
(water oil) 90 0 0 0
(water air) 90 0 0 0
(oil air) 90 0 0 0
(water galistan) 90 0 0 0
);
        value           nonuniform List<scalar> 
62
(
6.8706e-10
5.93157e-10
3.27022e-10
1.2715e-10
8.5693e-11
4.21809e-11
1.97295e-11
1.42534e-11
1.32303e-11
1.58574e-11
2.17162e-11
3.2327e-11
4.70888e-11
7.33092e-11
1.20872e-10
1.7515e-10
1.9154e-10
1.47173e-10
1.31563e-10
1.56362e-10
5.35625e-09
4.61495e-08
1.48658e-07
1.48658e-07
2.24836e-06
1.58233e-06
9.54223e-05
0.0105517
0.0151469
0.0152491
0.0238001
0.0035784
0.00129628
0.00129653
0.00331036
0.000227136
0.000211133
0.000187043
0.000186554
0.00287724
0.0370902
0.038176
0.0381747
0.000227136
0.00262747
0.00620021
0.0111423
0.0111428
0.0106286
0.00648133
0.00644932
0.00401176
0.00401186
0.00422392
0.00413859
0.00338744
0.00338748
0.00630007
0.00822614
0.00762173
0.00720749
0.00654142
)
;
    }
    atmosphere
    {
        type            inletOutlet;
        inletValue      uniform 1;
        value           nonuniform List<scalar> 
46
(
1
1
1
1
1
1
1
1
1
1
1
1
1
1
1
1
1
1
1
1
1
1
1
1
1
1
1
1
1
1
1
1
1
1
1
1
1
1
1
1
1
1
1
1
1
1
)
;
    }
    defaultFaces
    {
        type            empty;
    }
}


// ************************************************************************* //
