/*--------------------------------*- C++ -*----------------------------------*\
| =========                 |                                                 |
| \\      /  F ield         | OpenFOAM: The Open Source CFD Toolbox           |
|  \\    /   O peration     | Version:  2312                                  |
|   \\  /    A nd           | Website:  www.openfoam.com                      |
|    \\/     M anipulation  |                                                 |
\*---------------------------------------------------------------------------*/
FoamFile
{
    version     2.0;
    format      ascii;
    arch        "LSB;label=32;scalar=64";
    class       volScalarField;
    location    "3.1";
    object      p;
}
// * * * * * * * * * * * * * * * * * * * * * * * * * * * * * * * * * * * * * //

dimensions      [1 -1 -2 0 0 0 0];

internalField   nonuniform List<scalar> 
2268
(
6213.91
6173.93
6097.89
5989.23
5855.35
5704.71
5546.78
5390.63
5243.91
5111.95
4998.59
4905.92
4834.06
4781.32
4744.37
4718.67
4698.96
4680.73
4661.1
4639.9
4619.49
4603.76
4590.98
5426.54
5385.31
5308.3
5198.3
5062.71
4910.04
4750.16
4592.31
4444.38
4311.47
4197.53
4104.75
4033.22
3981.22
3945.32
3920.87
3902.25
3884.67
3865.08
3843.34
3822.25
3805.84
3795.15
4649.21
4604.78
4525.24
4412.44
4273.45
4116.7
3952.87
3791.68
3641.43
3506.67
3391.61
3298.63
3227.75
3177.26
3143.5
3121.62
3105.26
3089.05
3069.55
3046.55
3023.8
3005.93
2993.89
3878.99
3831.48
3748.67
3631.73
3487.61
3323.77
3154.82
2988.63
2835.08
2697.5
2580.71
2487.29
2417.24
2369.06
2338.64
2320.87
2308.16
2293.9
2274.29
2249.6
2224.69
2205.64
2193.11
3116.27
3065.53
2978.81
2856.53
2706.07
2537.46
2356.27
2182.95
2025.47
1883.95
1764.14
1669.9
1601.45
1558.15
1534.3
1523.55
1517.09
1508.18
1490.9
1467.31
1444.07
1429.18
1415.27
2360.15
2306.6
2215.45
2086.24
1925.64
1746.98
1554.98
1379.57
1238.32
1126.53
1046.3
997.038
969.612
954.564
948.164
946.201
946.588
946.911
943.433
939.181
941.676
951.298
941.885
1612.53
1557.01
1460.8
1325.66
1176.22
1033.15
904.325
814.43
759.823
730.692
719.192
719.805
725.461
730.7
735.653
738.53
742.751
747.855
755.527
768.032
789.41
815.729
797.515
935.347
895.586
831.543
752.425
682.613
639.086
620.116
623.582
629.634
638.438
648.852
657.77
664.909
671.327
678.691
679.824
683.197
688.541
696.284
708.274
729.178
750.354
716.748
3335.89
3192.45
3031.8
2905.81
2841.49
2826.02
2848.6
2897.76
2941.93
2940.86
2865.44
2732.24
2594.99
2476.48
2400.08
2358.35
2342.36
2346.61
2354.54
2577.7
2432.24
2264.05
2134.2
2073.66
2062.4
2084.42
2139.17
2191.74
2195.55
2116.97
1978.72
1856.9
1751.41
1687.62
1659.1
1651.92
1651.15
1654.49
1828.56
1707.24
1584.06
1478.47
1429
1413.31
1421.02
1467.09
1533.98
1557.99
1504.33
1380.71
1298.13
1239.83
1209.11
1192.39
1189.17
1186.11
1187.29
1269.58
1202.13
1160.33
1130.4
1119.82
1107.14
1098.85
1105.3
1130.96
1148.64
1130.2
1083.62
1057.56
1043.39
1031.38
1017.8
1010.82
1009.72
1014.72
1034.59
1014.64
1014.89
1023.6
1035.08
1032.63
1023.61
1009.37
988.761
974.804
970.082
976.366
982.734
978.502
968.579
953.777
947.453
952.258
960.551
950.941
959.469
968.116
970.724
974.608
971.522
964.086
954.451
941.942
924.989
916.592
914.784
912.749
906.448
898.008
887.168
884.273
890.255
901.15
891.661
906.153
915.54
916.956
911.881
914.156
916.472
909.035
898.573
881.366
861.583
849.168
838.743
829.606
823.13
822.966
823.625
830.958
842.458
826.086
836.815
855.212
861.118
851.776
854.214
855.59
851.864
845.865
830.17
806.137
781.314
770.278
760.486
756.587
761.185
765.378
772.227
784.317
529.02
516.898
503.824
498.466
500.797
506.717
515.083
523.393
532.039
541.845
552.145
561.528
569.728
576.316
585.838
588.179
591.761
596.867
603.732
612.976
623.337
630.315
620.178
376.535
375.833
375.704
375.605
376.486
379.891
385.29
392.382
401.339
411.924
421.889
431.682
440.468
448.256
454.617
459.95
463.514
469.803
477.395
486.709
495.571
497.913
500.779
262.178
260.326
258.531
256.17
254.435
254.077
257.494
263.314
272.787
282.766
294.677
306.307
316.874
325.755
332.338
341.658
350.345
359.605
368.998
378.526
386.43
387.235
388.046
151.951
150.427
147.877
146.509
146.894
150.667
155.712
162.501
169.196
177.573
188.358
199.915
212.325
224.919
237.8
252.358
266.763
279.711
291.035
300.799
306.781
305.189
301.349
65.5106
65.4888
66.0166
67.399
69.8209
73.3172
81.5097
88.503
93.933
100.215
109.605
121.444
135.41
151.469
168.138
184.45
199.853
213.536
225.307
234.994
241.316
241.89
239.295
18.8686
19.5893
20.1134
19.921
20.087
21.3913
24.7423
28.1432
29.6802
35.0878
43.1767
55.2739
70.4495
86.65
103.162
119.41
134.734
148.56
160.724
170.99
178.587
182.205
182.687
0.610697
0.505431
0.327603
0.250465
0.306751
0.463004
0.570646
2.06368
1.96234
2.89506
5.06496
9.18799
16.6432
27.0604
40.2152
54.7946
70.5852
85.3428
98.3087
109.272
117.733
123.341
126.317
-0.808936
-0.876488
-0.966485
-1.02344
-1.02898
-1.01708
-0.988861
-0.967455
-0.911515
-0.821909
-0.718248
-0.596301
-0.409004
0.940588
5.11119
10.6736
19.2336
29.6035
40.379
50.568
59.3108
66.0378
69.9408
-1.23285
-1.23664
-1.23729
-1.22848
-1.22014
-1.20916
-1.18909
-1.17026
-1.14127
-1.12945
-1.10677
-1.0715
-1.12505
-1.23656
-1.14228
-1.00246
-0.531968
1.72806
5.78185
10.61
15.9444
20.7429
24.4596
-1.37463
-1.37856
-1.38136
-1.37767
-1.37208
-1.36611
-1.35748
-1.3467
-1.33489
-1.32621
-1.31672
-1.30814
-1.33031
-1.37467
-1.37554
-1.35111
-1.41845
-1.4758
-1.43402
-1.39057
-1.33254
-0.740084
0.605592
-1.51656
-1.51891
-1.52188
-1.52281
-1.52248
-1.52219
-1.52099
-1.51647
-1.50868
-1.50143
-1.49515
-1.4906
-1.49856
-1.52674
-1.5468
-1.56145
-1.61012
-1.66519
-1.69784
-1.70065
-1.76608
-1.84132
-1.79667
-1.66036
-1.66294
-1.66651
-1.66964
-1.67219
-1.675
-1.67704
-1.67629
-1.67189
-1.66596
-1.66095
-1.65721
-1.66057
-1.67787
-1.69939
-1.72663
-1.76679
-1.81587
-1.85456
-1.88228
-1.92279
-1.9626
-1.96049
-1.80263
-1.80555
-1.80941
-1.8136
-1.81803
-1.82293
-1.82663
-1.82773
-1.82532
-1.82129
-1.81799
-1.81562
-1.81527
-1.82519
-1.84598
-1.87657
-1.91748
-1.96244
-1.999
-2.02502
-2.04365
-2.05586
-2.04468
-1.94189
-1.94499
-1.94892
-1.95374
-1.95942
-1.96533
-1.96963
-1.97103
-1.96994
-1.96826
-1.96835
-1.96765
-1.96849
-1.97747
-1.99614
-2.02469
-2.06277
-2.10156
-2.1331
-2.1533
-2.16441
-2.16744
-2.1593
-2.07798
-2.08109
-2.08497
-2.09016
-2.09607
-2.10199
-2.10637
-2.10834
-2.10865
-2.11185
-2.11562
-2.11789
-2.12236
-2.13164
-2.14757
-2.17206
-2.20385
-2.23514
-2.26289
-2.28217
-2.29224
-2.29555
-2.29176
-2.21211
-2.21511
-2.21884
-2.22393
-2.22953
-2.2351
-2.24002
-2.24456
-2.24921
-2.25471
-2.26051
-2.26489
-2.27042
-2.27941
-2.29399
-2.31495
-2.33953
-2.36601
-2.3925
-2.41055
-2.42175
-2.42771
-2.42845
-2.34597
-2.34886
-2.35247
-2.35727
-2.36264
-2.36811
-2.37371
-2.37978
-2.38684
-2.39287
-2.39744
-2.40316
-2.41114
-2.42251
-2.43717
-2.45485
-2.47445
-2.49518
-2.515
-2.53255
-2.54668
-2.55604
-2.56125
-2.48051
-2.4833
-2.48685
-2.49145
-2.49657
-2.50202
-2.5078
-2.51398
-2.52045
-2.52662
-2.53265
-2.53967
-2.54864
-2.55987
-2.57314
-2.58801
-2.60405
-2.62089
-2.63743
-2.65281
-2.66628
-2.67725
-2.68579
-2.61577
-2.61845
-2.62193
-2.62638
-2.63133
-2.63665
-2.64229
-2.64826
-2.65448
-2.66081
-2.66745
-2.67494
-2.68377
-2.69427
-2.70615
-2.71912
-2.73289
-2.74707
-2.76103
-2.77422
-2.78618
-2.79675
-2.80597
-2.75141
-2.75396
-2.75731
-2.76158
-2.76634
-2.77144
-2.77686
-2.78257
-2.78857
-2.79486
-2.80162
-2.80912
-2.81763
-2.82728
-2.83794
-2.84939
-2.86138
-2.8736
-2.88565
-2.89714
-2.90778
-2.91746
-2.92628
-2.88712
-2.8895
-2.89269
-2.89674
-2.90126
-2.90611
-2.91125
-2.91669
-2.92244
-2.92855
-2.93516
-2.94241
-2.95044
-2.95929
-2.9689
-2.97909
-2.98967
-3.00039
-3.01099
-3.02119
-3.03079
-3.03975
-3.04808
-3.02268
-3.0249
-3.02789
-3.0317
-3.03595
-3.04053
-3.04538
-3.05052
-3.05598
-3.06182
-3.06812
-3.07498
-3.08246
-3.09058
-3.09927
-3.1084
-3.11783
-3.12737
-3.13681
-3.146
-3.15479
-3.16314
-3.17108
-3.158
-3.16006
-3.16285
-3.16641
-3.17039
-3.17467
-3.17922
-3.18404
-3.18916
-3.19465
-3.20057
-3.20697
-3.21389
-3.22132
-3.22919
-3.23742
-3.24589
-3.25446
-3.26299
-3.27133
-3.27942
-3.28723
-3.29478
-3.29306
-3.29497
-3.29756
-3.30086
-3.30456
-3.30855
-3.31277
-3.31724
-3.322
-3.3271
-3.33258
-3.3385
-3.34485
-3.35162
-3.35877
-3.36621
-3.37385
-3.38159
-3.38934
-3.39697
-3.40444
-3.41173
-3.41888
-3.42789
-3.42966
-3.43205
-3.43507
-3.43849
-3.44217
-3.44606
-3.45016
-3.45452
-3.45919
-3.46421
-3.46962
-3.47542
-3.48158
-3.48806
-3.4948
-3.50172
-3.50874
-3.5158
-3.52279
-3.5297
-3.53649
-3.5432
-3.5624
-3.56403
-3.56625
-3.56906
-3.5722
-3.57557
-3.57911
-3.58282
-3.58675
-3.59097
-3.59552
-3.60042
-3.60567
-3.61126
-3.61713
-3.62323
-3.62951
-3.63589
-3.64232
-3.64874
-3.65511
-3.66142
-3.66768
-3.69645
-3.69805
-3.70016
-3.70282
-3.70571
-3.70878
-3.71194
-3.71523
-3.71872
-3.72246
-3.72653
-3.73093
-3.73566
-3.7407
-3.74601
-3.75154
-3.75723
-3.76303
-3.76889
-3.77477
-3.78064
-3.78646
-3.79226
-3.83042
-3.83194
-3.83392
-3.8364
-3.83905
-3.8418
-3.84457
-3.84743
-3.85044
-3.85371
-3.85728
-3.86119
-3.86542
-3.86994
-3.87473
-3.87972
-3.88488
-3.89015
-3.89549
-3.90086
-3.90623
-3.91159
-3.91693
-3.96429
-3.96571
-3.96755
-3.96984
-3.97225
-3.97463
-3.977
-3.97939
-3.98192
-3.9847
-3.98779
-3.99122
-3.99497
-3.99901
-4.0033
-4.0078
-4.01246
-4.01723
-4.02208
-4.02698
-4.03188
-4.03678
-4.04167
-4.09798
-4.0993
-4.10099
-4.10309
-4.10521
-4.10724
-4.10917
-4.11109
-4.11315
-4.11545
-4.11808
-4.12104
-4.12434
-4.12792
-4.13175
-4.13579
-4.13998
-4.14428
-4.14867
-4.15311
-4.15757
-4.16202
-4.16647
-4.23139
-4.23259
-4.23415
-4.23607
-4.2379
-4.23956
-4.24104
-4.24249
-4.24408
-4.24594
-4.24813
-4.25067
-4.25354
-4.2567
-4.26009
-4.26369
-4.26744
-4.2713
-4.27525
-4.27925
-4.28327
-4.2873
-4.29132
-4.36435
-4.36544
-4.36686
-4.36863
-4.37019
-4.37149
-4.37254
-4.37354
-4.37469
-4.37614
-4.37795
-4.3801
-4.38258
-4.38534
-4.38833
-4.39151
-4.39484
-4.39828
-4.4018
-4.40538
-4.40899
-4.4126
-4.41621
-4.49669
-4.49769
-4.49898
-4.50062
-4.50194
-4.50292
-4.50357
-4.50416
-4.50494
-4.50604
-4.50751
-4.50933
-4.51146
-4.51386
-4.51647
-4.51925
-4.52218
-4.52522
-4.52834
-4.53151
-4.53472
-4.53793
-4.54114
-4.6283
-4.62918
-4.63035
-4.63186
-4.63301
-4.63375
-4.63408
-4.63435
-4.63481
-4.63563
-4.63683
-4.63836
-4.64019
-4.64225
-4.64451
-4.64692
-4.64947
-4.65212
-4.65485
-4.65763
-4.66045
-4.66328
-4.6661
-4.75914
-4.75987
-4.76091
-4.76226
-4.76326
-4.76384
-4.76402
-4.76414
-4.76425
-4.7649
-4.76588
-4.76719
-4.76874
-4.77051
-4.77244
-4.77451
-4.7767
-4.77898
-4.78133
-4.78374
-4.78618
-4.78864
-4.79109
-4.8893
-4.88987
-4.89073
-4.89188
-4.89269
-4.89315
-4.89326
-4.89329
-4.8934
-4.89387
-4.89469
-4.89581
-4.89714
-4.89863
-4.90027
-4.90202
-4.90386
-4.90579
-4.90778
-4.90983
-4.91191
-4.91401
-4.91611
-5.01891
-5.01933
-5.01999
-5.02088
-5.0215
-5.02183
-5.02195
-5.022
-5.02215
-5.02257
-5.02327
-5.02427
-5.02538
-5.02663
-5.02799
-5.02944
-5.03096
-5.03256
-5.03421
-5.0359
-5.03764
-5.03939
-5.04115
-5.14817
-5.14845
-5.14889
-5.14951
-5.14994
-5.15019
-5.15033
-5.15045
-5.15068
-5.15109
-5.15169
-5.1526
-5.1535
-5.15451
-5.15561
-5.15677
-5.15799
-5.15927
-5.16059
-5.16196
-5.16336
-5.16478
-5.16621
-5.27729
-5.27741
-5.27763
-5.278
-5.27829
-5.27848
-5.27864
-5.27885
-5.27914
-5.27956
-5.2801
-5.2808
-5.28153
-5.28231
-5.28315
-5.28403
-5.28497
-5.28594
-5.28695
-5.288
-5.28907
-5.29017
-5.29127
-5.40649
-5.40643
-5.40643
-5.40657
-5.40674
-5.40692
-5.40709
-5.40733
-5.40764
-5.40803
-5.40847
-5.40897
-5.4095
-5.41005
-5.41063
-5.41124
-5.41189
-5.41257
-5.41328
-5.41401
-5.41478
-5.41556
-5.41634
-5.53596
-5.53564
-5.53541
-5.53536
-5.53543
-5.53563
-5.53572
-5.53594
-5.53621
-5.53652
-5.53683
-5.53715
-5.53746
-5.53777
-5.53809
-5.53842
-5.53878
-5.53917
-5.53958
-5.54002
-5.54048
-5.54095
-5.54142
-5.66582
-5.66508
-5.66462
-5.6644
-5.66434
-5.66431
-5.66449
-5.66468
-5.6649
-5.6651
-5.66526
-5.66538
-5.66546
-5.66552
-5.66557
-5.66562
-5.66569
-5.66577
-5.66587
-5.66602
-5.66618
-5.66633
-5.66648
632.604
633.863
631.313
636.593
505.987
507.924
512.257
522.035
394.379
398.653
406.119
418.378
305.877
310.119
314.691
320.869
240.571
242.642
245.687
249.542
183.842
185.156
187.497
190.77
127.817
128.982
130.655
133.114
71.84
72.8578
73.8906
75.1286
25.8271
26.2108
26.433
26.4925
1.11351
1.18043
1.24805
1.42473
-1.71755
-1.66701
-1.62968
-1.58649
-1.91535
-1.87667
-1.84293
-1.81851
-2.01071
-1.98663
-1.96562
-1.94673
-2.14244
-2.13036
-2.11856
-2.1063
-2.2847
-2.27968
-2.27395
-2.26752
-2.42753
-2.4269
-2.42532
-2.42308
-2.56414
-2.56547
-2.56595
-2.56609
-2.69071
-2.69311
-2.69499
-2.69646
-2.81156
-2.81465
-2.81742
-2.81981
-2.93197
-2.93543
-2.93872
-2.94169
-3.05373
-3.0573
-3.06078
-3.06411
-3.17664
-3.18019
-3.18371
-3.18715
-3.30018
-3.30363
-3.30708
-3.31048
-3.42404
-3.42734
-3.43064
-3.43392
-3.54808
-3.5512
-3.55432
-3.55741
-3.67224
-3.67516
-3.67807
-3.68095
-3.79649
-3.7992
-3.80189
-3.80457
-3.92083
-3.92332
-3.9258
-3.92825
-4.04524
-4.04752
-4.04978
-4.05203
-4.16971
-4.17179
-4.17385
-4.17589
-4.29425
-4.29612
-4.29799
-4.29983
-4.41884
-4.42052
-4.4222
-4.42385
-4.54348
-4.54498
-4.54647
-4.54794
-4.66817
-4.66949
-4.6708
-4.67211
-4.7929
-4.79405
-4.79519
-4.79633
-4.91766
-4.91864
-4.91963
-4.92061
-5.04245
-5.04328
-5.0441
-5.04492
-5.16726
-5.16794
-5.16861
-5.16928
-5.29209
-5.29261
-5.29314
-5.29366
-5.41693
-5.4173
-5.41768
-5.41805
-5.54177
-5.542
-5.54222
-5.54244
-5.6666
-5.66668
-5.66676
-5.66684
680.914
715.355
753.851
768.746
761.19
757.484
753.825
748.034
739.826
729.045
709.696
689.252
683.464
679.562
674.074
670.715
673.911
684.632
697.657
545.309
583.913
625.514
644.618
641.362
634.019
627.715
619.848
610.563
602.41
589.949
584.528
580.528
576.949
570.092
564.336
562.776
571.03
584.496
441.541
475.707
506.821
523.8
525.447
519.686
513.215
506.579
501.396
495.477
494.445
496.422
493.165
486.763
481.826
479.789
473.482
470.506
481.523
336.563
363.562
388.848
404.816
409.636
407.727
407.45
409.678
409.189
406.333
407.912
413.682
410.946
406.538
405.925
404.166
394.346
381.23
385.402
258.031
270.573
284.235
297.749
307.003
312.643
319.993
328.342
331.625
331.52
331.238
331.555
329.256
328.683
330.637
326.421
315.437
301.835
300.159
197.357
206.009
213.577
222.936
233.234
243.179
251.911
258.704
262.821
264.962
263.934
260.122
258.053
255.666
253.849
243.914
232.791
221.062
216.403
138.787
148.513
156.266
164.803
175.271
185.936
193.845
199.035
203.107
205.312
204.072
198.114
189.036
180.154
170.394
153.216
144.519
136.295
127.516
78.1476
87.3084
95.9903
105.576
116.963
128.739
138.951
146.422
151.612
152.47
148.892
139.738
126.057
109.965
86.5708
64.7411
57.4321
54.7557
44.0494
27.0354
31.8329
37.6758
45.2111
56.434
70.9016
85.8192
96.6707
102.524
103.462
97.4622
86.1673
70.8173
49.6868
28.0995
10.8023
6.43987
8.15092
2.89709
1.87796
3.27577
4.907
7.75975
13.275
23.0881
39.9058
53.3353
60.7726
59.1183
49.1502
38.049
27.147
12.9268
2.91884
-1.13497
-1.25197
-1.20702
-1.21522
-1.48703
-1.36105
-1.14935
-0.682521
0.477674
3.04309
10.3318
21.835
25.2185
22.8391
13.9303
7.03325
4.62342
0.189315
-1.82986
-1.46523
-1.43806
-1.49722
-1.44014
-1.77187
-1.69288
-1.59846
-1.50515
-1.36475
-0.789181
0.254401
1.08339
2.62166
3.01914
-0.0576939
-2.04606
-2.11087
-2.05424
-1.91592
-1.70368
-1.62247
-1.62253
-1.60221
-1.91771
-1.86269
-1.79602
-1.74086
-1.75632
-1.90597
-2.18526
-2.51384
-2.35824
-2.66885
-2.48154
-2.3294
-2.26335
-2.19869
-2.05387
-1.89459
-1.79947
-1.77868
-1.76703
-2.08631
-2.05476
-2.02444
-2.01925
-2.08762
-2.3183
-2.75401
-3.21496
-3.05084
-2.82841
-2.69047
-2.52207
-2.42351
-2.34125
-2.22888
-2.08986
-1.98656
-1.9464
-1.93265
-2.25729
-2.24513
-2.24139
-2.26685
-2.34902
-2.53003
-2.82351
-3.05295
-3.04329
-2.90982
-2.79001
-2.66903
-2.56462
-2.47872
-2.38602
-2.27036
-2.17022
-2.11839
-2.09635
-2.41924
-2.41665
-2.42553
-2.45821
-2.52842
-2.64842
-2.81925
-2.95786
-2.99974
-2.93187
-2.83581
-2.74302
-2.65656
-2.57844
-2.50468
-2.41762
-2.33845
-2.28602
-2.25738
-2.56542
-2.56801
-2.58156
-2.61117
-2.6611
-2.73746
-2.83816
-2.92488
-2.95531
-2.92432
-2.8651
-2.79895
-2.73142
-2.66684
-2.60754
-2.54781
-2.48948
-2.44036
-2.41233
-2.69825
-2.70485
-2.71888
-2.74312
-2.77969
-2.83121
-2.89212
-2.94167
-2.96354
-2.95191
-2.91653
-2.86975
-2.8178
-2.76583
-2.71527
-2.66945
-2.62404
-2.58256
-2.55826
-2.82378
-2.83279
-2.84611
-2.86607
-2.89382
-2.93048
-2.97014
-3.00382
-3.01911
-3.01329
-2.98828
-2.95463
-2.91757
-2.87609
-2.83094
-2.79167
-2.75885
-2.72943
-2.71301
-2.94692
-2.9568
-2.96941
-2.98599
-3.00738
-3.03358
-3.06124
-3.0851
-3.09764
-3.09444
-3.07921
-3.05489
-3.02762
-2.99438
-2.95853
-2.92565
-2.89924
-2.88814
-2.88271
-3.06993
-3.0799
-3.09145
-3.10549
-3.12238
-3.1418
-3.16152
-3.17828
-3.18782
-3.18715
-3.1781
-3.16349
-3.14111
-3.11786
-3.09478
-3.07015
-3.04931
-3.04874
-3.04764
-3.19311
-3.20266
-3.21323
-3.22526
-3.23888
-3.25367
-3.2682
-3.28038
-3.28763
-3.28817
-3.28271
-3.27263
-3.2589
-3.24325
-3.23067
-3.21807
-3.20382
-3.20323
-3.19719
-3.31632
-3.32528
-3.33487
-3.34527
-3.35647
-3.36808
-3.37913
-3.38829
-3.394
-3.39525
-3.39231
-3.38593
-3.37704
-3.36745
-3.36024
-3.35625
-3.34838
-3.34309
-3.33147
-3.43949
-3.44779
-3.45645
-3.46551
-3.47489
-3.48425
-3.49295
-3.50011
-3.5048
-3.50645
-3.50515
-3.50133
-3.49568
-3.48952
-3.48455
-3.48195
-3.47681
-3.46877
-3.45874
-3.56264
-3.57026
-3.57807
-3.58601
-3.59398
-3.60172
-3.6088
-3.61463
-3.61865
-3.6205
-3.62028
-3.61825
-3.61484
-3.6109
-3.60733
-3.60448
-3.59995
-3.59507
-3.58748
-3.68581
-3.69277
-3.69979
-3.7068
-3.71368
-3.72023
-3.72615
-3.73108
-3.73464
-3.73654
-3.73708
-3.73636
-3.73451
-3.73215
-3.72976
-3.72739
-3.72433
-3.72233
-3.71966
-3.80904
-3.81537
-3.82168
-3.82789
-3.8339
-3.83954
-3.84463
-3.84894
-3.85228
-3.85463
-3.85565
-3.85549
-3.8546
-3.8534
-3.85206
-3.85063
-3.84911
-3.84859
-3.85004
-3.93235
-3.93809
-3.94375
-3.94927
-3.95457
-3.95951
-3.96396
-3.9678
-3.97089
-3.97314
-3.97447
-3.97497
-3.97485
-3.97452
-3.97401
-3.97344
-3.97305
-3.9732
-3.97664
-4.05576
-4.06095
-4.06603
-4.07094
-4.07562
-4.07998
-4.08393
-4.08742
-4.09026
-4.09245
-4.09396
-4.09487
-4.0954
-4.09547
-4.09548
-4.09551
-4.09577
-4.09601
-4.09977
-4.17927
-4.18395
-4.1885
-4.19287
-4.19703
-4.20089
-4.20438
-4.20764
-4.21023
-4.21234
-4.21392
-4.21502
-4.21577
-4.21621
-4.21652
-4.21683
-4.21735
-4.21736
-4.21872
-4.30288
-4.30708
-4.31115
-4.31504
-4.31873
-4.32218
-4.32534
-4.3282
-4.33061
-4.33266
-4.33423
-4.33542
-4.33629
-4.33691
-4.33739
-4.33777
-4.33843
-4.33838
-4.33892
-4.42659
-4.43034
-4.43396
-4.43742
-4.44071
-4.44378
-4.4466
-4.44915
-4.45138
-4.45328
-4.45482
-4.45602
-4.45694
-4.45764
-4.45823
-4.45873
-4.45926
-4.4592
-4.45968
-4.55038
-4.55371
-4.55693
-4.55999
-4.5629
-4.56562
-4.56812
-4.5704
-4.57242
-4.57417
-4.57563
-4.5768
-4.5777
-4.57843
-4.57904
-4.5796
-4.58001
-4.58008
-4.5804
-4.67426
-4.67719
-4.68002
-4.68272
-4.68527
-4.68765
-4.68986
-4.69188
-4.69368
-4.69527
-4.69662
-4.69772
-4.69855
-4.69929
-4.69987
-4.70039
-4.70079
-4.7009
-4.70102
-4.79821
-4.80076
-4.80322
-4.80557
-4.80778
-4.80986
-4.81178
-4.81354
-4.81513
-4.81654
-4.81777
-4.81881
-4.81968
-4.82027
-4.82076
-4.82118
-4.82154
-4.82167
-4.82172
-4.92222
-4.92441
-4.92652
-4.92853
-4.93042
-4.9322
-4.93385
-4.93536
-4.93673
-4.93796
-4.93904
-4.93996
-4.94072
-4.94128
-4.94171
-4.94205
-4.94233
-4.94248
-4.94252
-5.04628
-5.04812
-5.04989
-5.05157
-5.05316
-5.05465
-5.05602
-5.05729
-5.05845
-5.05949
-5.0604
-5.06119
-5.06184
-5.06234
-5.06272
-5.063
-5.06322
-5.06336
-5.06341
-5.17038
-5.17188
-5.17331
-5.17468
-5.17597
-5.17718
-5.17829
-5.17932
-5.18026
-5.18111
-5.18186
-5.18251
-5.18304
-5.18343
-5.18377
-5.18401
-5.18418
-5.1843
-5.18435
-5.29451
-5.29567
-5.29678
-5.29784
-5.29884
-5.29977
-5.30063
-5.30143
-5.30215
-5.30281
-5.30339
-5.30389
-5.30431
-5.30467
-5.30488
-5.30505
-5.30518
-5.30529
-5.30533
-5.41866
-5.41949
-5.42028
-5.42103
-5.42174
-5.42241
-5.42303
-5.42359
-5.42411
-5.42458
-5.42499
-5.42533
-5.42562
-5.42584
-5.42598
-5.42613
-5.42623
-5.42631
-5.42635
-5.54281
-5.54331
-5.54379
-5.54425
-5.54468
-5.54508
-5.54546
-5.54581
-5.54612
-5.5464
-5.54664
-5.54683
-5.54698
-5.54707
-5.54707
-5.54722
-5.54732
-5.54739
-5.54741
-5.66696
-5.66713
-5.66729
-5.66746
-5.66761
-5.66776
-5.6679
-5.66802
-5.66813
-5.66823
-5.6683
-5.66834
-5.66837
-5.66839
-5.6685
-5.66854
-5.6686
-5.66863
-5.66862
)
;

boundaryField
{
    leftWall
    {
        type            calculated;
        value           nonuniform List<scalar> 
50
(
6213.91
5426.54
4649.21
3878.99
3116.27
2360.15
1612.53
935.347
529.02
376.535
262.178
151.951
65.5106
18.8686
0.610697
-0.808936
-1.23285
-1.37463
-1.51656
-1.66036
-1.80263
-1.94189
-2.07798
-2.21211
-2.34597
-2.48051
-2.61577
-2.75141
-2.88712
-3.02268
-3.158
-3.29306
-3.42789
-3.5624
-3.69645
-3.83042
-3.96429
-4.09798
-4.23139
-4.36435
-4.49669
-4.6283
-4.75914
-4.8893
-5.01891
-5.14817
-5.27729
-5.40649
-5.53596
-5.66582
)
;
    }
    rightWall
    {
        type            calculated;
        value           nonuniform List<scalar> 
50
(
2354.54
1654.49
1187.29
1014.72
960.551
901.15
842.458
784.317
697.657
584.496
481.523
385.402
300.159
216.403
127.516
44.0494
2.89709
-1.21522
-1.44014
-1.60221
-1.76703
-1.93265
-2.09635
-2.25738
-2.41233
-2.55826
-2.71301
-2.88271
-3.04764
-3.19719
-3.33147
-3.45874
-3.58748
-3.71966
-3.85004
-3.97664
-4.09977
-4.21872
-4.33892
-4.45968
-4.5804
-4.70102
-4.82172
-4.94252
-5.06341
-5.18435
-5.30533
-5.42635
-5.54741
-5.66862
)
;
    }
    lowerWall
    {
        type            calculated;
        value           nonuniform List<scalar> 
62
(
6612.06
6572.08
6496.04
6387.38
6253.5
6102.86
5944.93
5788.78
5642.06
5510.1
5396.74
5304.07
5232.21
5179.47
5142.52
5116.82
5097.11
5078.88
5059.25
5038.05
5017.62
5001.89
4989.11
4590.98
3795.15
2993.89
2193.11
1415.27
941.885
797.515
716.748
722.42
727.985
727.922
733.176
3335.89
2577.7
1828.56
1269.58
1034.59
950.941
891.661
826.086
3716.99
3571.68
3410.94
3286.07
3221.75
3204.29
3226.38
3275.55
3320.7
3320.26
3245.5
3112.29
2975
2856.43
2779.92
2738.11
2721.73
2725.82
2733.83
)
;
    }
    atmosphere
    {
        type            calculated;
        value           nonuniform List<scalar> 
46
(
-5.73102
-5.72963
-5.72914
-5.72905
-5.72904
-5.72904
-5.72908
-5.72923
-5.7294
-5.72953
-5.7296
-5.72961
-5.72956
-5.72948
-5.72938
-5.72928
-5.72919
-5.72911
-5.72905
-5.72904
-5.72904
-5.72904
-5.72904
-5.72904
-5.72904
-5.72904
-5.72904
-5.72904
-5.72904
-5.72904
-5.72904
-5.72906
-5.72908
-5.7291
-5.72912
-5.72914
-5.72915
-5.72916
-5.72915
-5.72912
-5.72908
-5.72904
-5.72906
-5.72909
-5.72911
-5.72906
)
;
    }
    defaultFaces
    {
        type            empty;
    }
}


// ************************************************************************* //
