/*--------------------------------*- C++ -*----------------------------------*\
| =========                 |                                                 |
| \\      /  F ield         | OpenFOAM: The Open Source CFD Toolbox           |
|  \\    /   O peration     | Version:  2312                                  |
|   \\  /    A nd           | Website:  www.openfoam.com                      |
|    \\/     M anipulation  |                                                 |
\*---------------------------------------------------------------------------*/
FoamFile
{
    version     2.0;
    format      ascii;
    arch        "LSB;label=32;scalar=64";
    class       surfaceScalarField;
    location    "3.1";
    object      phi;
}
// * * * * * * * * * * * * * * * * * * * * * * * * * * * * * * * * * * * * * //

dimensions      [0 3 -1 0 0 0 0];

oriented        oriented;

internalField   nonuniform List<scalar> 
4432
(
1.99043e-07
-1.99046e-07
-6.71388e-07
8.70428e-07
-1.60283e-06
9.31435e-07
-2.33946e-06
7.3663e-07
-2.78333e-06
4.43877e-07
-2.97055e-06
1.87217e-07
-2.99022e-06
1.96699e-08
-2.92023e-06
-6.99915e-08
-2.78272e-06
-1.37509e-07
-2.56483e-06
-2.17899e-07
-2.25059e-06
-3.14238e-07
-1.84078e-06
-4.09813e-07
-1.36357e-06
-4.77217e-07
-8.67693e-07
-4.9588e-07
-3.9432e-07
-4.73377e-07
2.25419e-08
-4.16865e-07
3.29982e-07
-3.07443e-07
4.78261e-07
-1.4828e-07
5.12413e-07
-3.41538e-08
4.47095e-07
6.53177e-08
2.9119e-07
1.55906e-07
1.13223e-08
2.79868e-07
1.13222e-08
-8.51329e-07
6.52291e-07
-1.76896e-06
1.78806e-06
-2.57506e-06
1.73754e-06
-3.13763e-06
1.29921e-06
-3.42727e-06
7.33524e-07
-3.49118e-06
2.51135e-07
-3.4168e-06
-5.47067e-08
-3.28758e-06
-1.99209e-07
-3.11128e-06
-3.138e-07
-2.86446e-06
-4.64719e-07
-2.52625e-06
-6.52461e-07
-2.09066e-06
-8.454e-07
-1.58304e-06
-9.84845e-07
-1.05842e-06
-1.0205e-06
-5.58716e-07
-9.73089e-07
-1.12104e-07
-8.63482e-07
2.17477e-07
-6.37028e-07
3.96292e-07
-3.27098e-07
4.58234e-07
-9.60969e-08
4.32985e-07
9.05659e-08
3.29581e-07
2.59309e-07
9.19803e-08
5.17469e-07
1.03303e-07
-1.46095e-06
2.11324e-06
-2.59136e-06
2.91847e-06
-3.41278e-06
2.55897e-06
-3.90173e-06
1.78815e-06
-4.08411e-06
9.15907e-07
-4.03376e-06
2.00793e-07
-3.86077e-06
-2.27697e-07
-3.66948e-06
-3.90493e-07
-3.45309e-06
-5.30189e-07
-3.17739e-06
-7.40417e-07
-2.81463e-06
-1.01522e-06
-2.34625e-06
-1.31378e-06
-1.78897e-06
-1.54213e-06
-1.21051e-06
-1.59896e-06
-6.58478e-07
-1.52512e-06
-1.48138e-07
-1.37382e-06
2.42772e-07
-1.02794e-06
4.70474e-07
-5.54799e-07
5.99306e-07
-2.24929e-07
6.48512e-07
4.13608e-08
6.07151e-07
3.0067e-07
4.42767e-07
6.81853e-07
5.4607e-07
-1.95126e-06
4.0645e-06
-3.3122e-06
4.27942e-06
-4.20005e-06
3.44682e-06
-4.65608e-06
2.24418e-06
-4.74148e-06
1.00131e-06
-4.57182e-06
3.11317e-08
-4.29524e-06
-5.04272e-07
-4.03941e-06
-6.46325e-07
-3.79254e-06
-7.77059e-07
-3.50572e-06
-1.02723e-06
-3.15226e-06
-1.36869e-06
-2.68523e-06
-1.7808e-06
-2.08966e-06
-2.1377e-06
-1.44167e-06
-2.24695e-06
-8.09885e-07
-2.15691e-06
-1.98685e-07
-1.98502e-06
2.99548e-07
-1.52617e-06
6.28415e-07
-8.83666e-07
8.37563e-07
-4.34076e-07
9.52369e-07
-7.34464e-08
9.22406e-07
3.30633e-07
7.14554e-07
8.89702e-07
1.26062e-06
-2.22629e-06
6.29079e-06
-3.7998e-06
5.85292e-06
-4.81098e-06
4.458e-06
-5.2923e-06
2.72551e-06
-5.35246e-06
1.06147e-06
-4.9969e-06
-3.24426e-07
-4.5757e-06
-9.25481e-07
-4.25557e-06
-9.66448e-07
-3.99309e-06
-1.03955e-06
-3.75147e-06
-1.26884e-06
-3.50549e-06
-1.61467e-06
-3.13361e-06
-2.15268e-06
-2.56599e-06
-2.70532e-06
-1.86837e-06
-2.94457e-06
-1.16622e-06
-2.85906e-06
-5.2122e-07
-2.63002e-06
-8.65121e-09
-2.03874e-06
4.29772e-07
-1.32209e-06
7.64238e-07
-7.68542e-07
9.48225e-07
-2.57434e-07
8.86398e-07
3.92459e-07
7.41082e-07
1.03502e-06
2.00171e-06
-2.28863e-06
8.57941e-06
-3.99113e-06
7.55542e-06
-5.08238e-06
5.54924e-06
-5.47634e-06
3.11946e-06
-5.30526e-06
8.90386e-07
-4.8261e-06
-8.03586e-07
-4.31878e-06
-1.43281e-06
-4.23587e-06
-1.04936e-06
-4.27312e-06
-1.00229e-06
-4.22481e-06
-1.31715e-06
-4.13086e-06
-1.70861e-06
-3.88364e-06
-2.39988e-06
-3.2514e-06
-3.33753e-06
-2.48689e-06
-3.70907e-06
-1.696e-06
-3.64993e-06
-1.3004e-06
-3.0256e-06
-1.16623e-06
-2.1729e-06
-8.49077e-07
-1.63923e-06
-5.46358e-07
-1.07126e-06
-6.69809e-07
-1.33989e-07
-1.01254e-06
7.3519e-07
-3.7835e-07
4.00803e-07
1.62336e-06
-2.15886e-06
1.07383e-05
-3.84795e-06
9.24451e-06
-5.00165e-06
6.70295e-06
-5.60724e-06
3.72505e-06
-5.60245e-06
8.85592e-07
-4.78762e-06
-1.61842e-06
-3.71233e-06
-2.50809e-06
-3.04209e-06
-1.71959e-06
-2.68549e-06
-1.35888e-06
-2.82711e-06
-1.17551e-06
-3.57375e-06
-9.61923e-07
-4.26068e-06
-1.71291e-06
-3.9392e-06
-3.65897e-06
-3.44413e-06
-4.2041e-06
-2.94504e-06
-4.14899e-06
-5.97122e-06
5.91694e-10
-1.01524e-05
2.00832e-06
-1.35228e-05
1.73113e-06
-1.60597e-05
1.46565e-06
-1.73454e-05
1.1517e-06
-1.66017e-05
-8.49884e-09
-1.05972e-05
-5.60378e-06
-8.97383e-06
-1.65065e-06
1.23889e-05
-2.8782e-06
1.04721e-05
-3.32546e-06
7.15022e-06
-2.81735e-06
3.21693e-06
-1.33199e-06
-5.99774e-07
8.84136e-08
-3.03883e-06
-1.76682e-08
-2.40201e-06
-1.22367e-06
-5.13583e-07
-2.27021e-06
-3.12315e-07
-2.82411e-06
-6.2158e-07
-2.54638e-06
-1.23964e-06
-2.26553e-06
-1.99373e-06
-3.15074e-06
-2.77374e-06
-4.94052e-06
-2.4143e-06
-6.96676e-06
-2.12273e-06
-1.10351e-05
4.06892e-06
-1.36511e-05
4.62437e-06
-1.54263e-05
3.50635e-06
-1.73145e-05
3.35378e-06
-1.88672e-05
2.70447e-06
-1.91963e-05
3.20542e-07
-1.58553e-05
-8.94474e-06
-2.48292e-05
-7.24932e-06
7.24932e-06
-1.02097e-05
2.96036e-06
-1.05237e-05
3.14005e-07
-9.79911e-06
-7.24567e-07
-8.70827e-06
-1.09084e-06
-7.57388e-06
-1.1344e-06
-6.8388e-06
-7.35077e-07
-6.59898e-06
-2.39827e-07
-6.9077e-06
3.08724e-07
-6.55935e-06
-3.48354e-07
-5.62424e-06
-9.35107e-07
-4.4787e-06
-1.14555e-06
-3.41076e-06
-1.06794e-06
-2.56712e-06
-8.43641e-07
-1.77093e-06
-7.96187e-07
-1.1801e-06
-5.9083e-07
-5.76845e-07
-6.03253e-07
-1.00211e-07
-4.76634e-07
-1.0021e-07
-5.41169e-06
1.2661e-05
-7.7507e-06
5.29937e-06
-7.83154e-06
3.9485e-07
-7.20283e-06
-1.35328e-06
-6.10853e-06
-2.18513e-06
-4.58115e-06
-2.66178e-06
-3.19815e-06
-2.11808e-06
-2.23044e-06
-1.20754e-06
-2.09602e-06
1.74307e-07
-1.76245e-06
-6.81931e-07
-1.40359e-06
-1.29397e-06
-1.52217e-06
-1.02697e-06
-1.70639e-06
-8.83723e-07
-2.03381e-06
-5.16221e-07
-2.52921e-06
-3.00792e-07
-2.88927e-06
-2.30771e-07
-2.62154e-06
-8.70983e-07
-1.35017e-06
-1.74801e-06
-1.45039e-06
-6.17722e-06
1.88382e-05
-9.21749e-06
8.33964e-06
-9.01883e-06
1.96191e-07
-8.29664e-06
-2.07548e-06
-7.09489e-06
-3.38688e-06
-5.15117e-06
-4.6055e-06
-3.71694e-06
-3.55231e-06
-2.71875e-06
-2.20573e-06
-1.73683e-06
-8.07616e-07
-7.81259e-07
-1.6375e-06
-4.9553e-08
-2.02568e-06
-8.12173e-07
-2.64349e-07
-2.40544e-06
7.09537e-07
-3.23544e-06
3.13786e-07
-3.8142e-06
2.77962e-07
-4.65764e-06
6.12672e-07
-4.8061e-06
-7.22514e-07
-3.36648e-06
-3.18762e-06
-4.81686e-06
-5.98381e-06
2.48221e-05
-1.20009e-05
1.43568e-05
-1.35307e-05
1.72602e-06
-1.29847e-05
-2.62149e-06
-1.09232e-05
-5.44838e-06
-8.22e-06
-7.30871e-06
-6.76851e-06
-5.00381e-06
-5.68107e-06
-3.29318e-06
-4.62678e-06
-1.86191e-06
-5.73204e-06
-5.32242e-07
-7.28813e-06
-4.69598e-07
-8.31594e-06
7.63455e-07
-7.44806e-06
-1.58358e-07
-4.64455e-06
-2.48974e-06
-2.5757e-09
-4.36403e-06
2.27201e-06
-1.66193e-06
-2.03719e-07
1.7532e-06
-1.91973e-06
-1.47161e-06
-6.73659e-06
-1.83199e-06
2.6654e-05
-6.49308e-06
1.90179e-05
-1.51339e-05
1.03669e-05
-2.22209e-05
4.46549e-06
-2.08003e-05
-6.86899e-06
-1.75498e-05
-1.05592e-05
-1.47815e-05
-7.77217e-06
-1.29551e-05
-5.11956e-06
-1.35145e-05
-1.30248e-06
-1.77996e-05
3.75283e-06
-2.19523e-05
3.68306e-06
-1.91345e-05
-2.05428e-06
-1.26942e-05
-6.59874e-06
-7.70144e-06
-7.48244e-06
-2.64805e-06
-9.41742e-06
3.71006e-06
-8.02003e-06
6.50299e-06
-1.03971e-06
3.1078e-06
1.9236e-06
-3.62876e-06
-9.0743e-08
2.67448e-05
-8.79952e-07
1.98071e-05
-1.00232e-05
1.95101e-05
-1.96616e-05
1.41039e-05
-2.2879e-05
-3.65151e-06
-2.26711e-05
-1.07672e-05
-2.15234e-05
-8.9199e-06
-2.0132e-05
-6.51087e-06
-1.81836e-05
-3.25095e-06
-1.81873e-05
3.75657e-06
-1.85572e-05
4.05288e-06
-1.51319e-05
-5.47957e-06
-1.23593e-05
-9.37128e-06
-1.13888e-05
-8.45298e-06
-9.46258e-06
-1.13437e-05
-5.18679e-06
-1.22958e-05
7.86717e-07
-7.01323e-06
2.65883e-06
5.14868e-08
-9.69957e-07
2.22243e-06
2.45224e-05
1.78472e-06
2.02448e-05
-8.37895e-06
2.96738e-05
-1.90815e-05
2.48064e-05
-2.51431e-05
2.41007e-06
-2.65743e-05
-9.33603e-06
-2.5035e-05
-1.04592e-05
-2.22781e-05
-9.26774e-06
-1.79801e-05
-7.549e-06
-1.39626e-05
-2.60923e-07
-1.21932e-05
2.28351e-06
-1.15486e-05
-6.12417e-06
-1.35175e-05
-7.40238e-06
-1.58212e-05
-6.14933e-06
-1.67426e-05
-1.04223e-05
-1.43188e-05
-1.47195e-05
-7.62667e-06
-1.37054e-05
-1.33974e-06
-6.23545e-06
-2.30969e-06
1.44479e-06
2.30776e-05
-1.42795e-06
2.31176e-05
-1.0475e-05
3.87208e-05
-1.84066e-05
3.2738e-05
-2.47479e-05
8.75135e-06
-2.608e-05
-8.00388e-06
-2.39772e-05
-1.25621e-05
-2.13388e-05
-1.19061e-05
-1.65696e-05
-1.23182e-05
-1.09792e-05
-5.85136e-06
-7.3809e-06
-1.31477e-06
-1.13001e-05
-2.20501e-06
-1.63804e-05
-2.322e-06
-1.99132e-05
-2.61656e-06
-2.16489e-05
-8.68655e-06
-1.99268e-05
-1.64416e-05
-1.50142e-05
-1.8618e-05
-7.35241e-06
-1.38972e-05
-9.66214e-06
2.20893e-06
1.018e-05
4.72124e-06
7.95973e-06
6.32217e-06
5.54926e-06
6.44519e-06
3.09389e-06
6.6489e-06
-8.03501e-07
6.29228e-06
-2.68221e-06
6.96364e-06
-3.07335e-06
8.56039e-06
-2.11032e-06
9.28143e-06
-1.03334e-06
8.70247e-06
-4.25986e-08
7.69915e-06
-2.36301e-07
6.4164e-06
-7.1098e-07
3.74466e-06
-1.01987e-07
3.99958e-07
9.30418e-07
-2.95171e-06
1.22895e-06
-1.12885e-05
1.24057e-05
-1.85345e-05
1.18704e-05
-2.46185e-05
9.5903e-06
-3.10036e-05
9.73889e-06
-3.71322e-05
8.83307e-06
-4.31672e-05
6.35559e-06
-4.75684e-05
-4.5435e-06
-1.65342e-05
-5.58634e-05
3.49108e-06
6.68886e-06
7.20629e-06
4.24448e-06
1.02611e-05
2.49443e-06
1.29829e-05
3.72112e-07
1.46654e-05
-2.48604e-06
1.48985e-05
-2.91533e-06
1.45588e-05
-2.73362e-06
1.4485e-05
-2.03656e-06
1.49576e-05
-1.50593e-06
1.48644e-05
5.06038e-08
1.37946e-05
8.33444e-07
1.16211e-05
1.4626e-06
8.64594e-06
2.87314e-06
5.22727e-06
4.34909e-06
5.76862e-07
5.87937e-06
-2.58782e-06
1.55704e-05
-6.48652e-06
1.57691e-05
-1.38163e-05
1.69201e-05
-2.17975e-05
1.77201e-05
-3.22332e-05
1.92688e-05
-4.80734e-05
2.21958e-05
-6.8053e-05
1.54361e-05
-3.15866e-06
-8.14285e-05
5.04337e-06
1.64546e-06
1.00284e-05
-7.40569e-07
1.51508e-05
-2.62798e-06
1.98977e-05
-4.37478e-06
2.26604e-05
-5.24875e-06
2.11677e-05
-1.42269e-06
1.73298e-05
1.10428e-06
1.42632e-05
1.03007e-06
1.47959e-05
-2.0386e-06
1.43488e-05
4.97595e-07
1.19363e-05
3.24597e-06
8.3014e-06
5.09751e-06
3.70346e-06
7.47109e-06
-2.9137e-06
1.09663e-05
-1.08041e-05
1.37698e-05
-1.44354e-05
1.92017e-05
-2.10731e-05
2.24069e-05
-2.88993e-05
2.47463e-05
-3.59104e-05
2.47312e-05
-4.34112e-05
2.67696e-05
-5.22164e-05
3.10011e-05
-6.56025e-05
2.88222e-05
1.2127e-05
-8.08881e-05
7.25651e-06
-5.61106e-06
1.28528e-05
-6.3369e-06
1.68569e-05
-6.63204e-06
1.91377e-05
-6.65565e-06
1.88196e-05
-4.93063e-06
1.72804e-05
1.16493e-07
1.24712e-05
5.91342e-06
7.53495e-06
5.96632e-06
6.18572e-06
-6.89397e-07
1.56333e-06
5.11996e-06
-3.58012e-06
8.38941e-06
-9.05941e-06
1.05768e-05
-1.57727e-05
1.41844e-05
-2.36641e-05
1.88577e-05
-3.1226e-05
2.13318e-05
-3.53791e-05
2.33547e-05
-3.83455e-05
2.53733e-05
-4.00583e-05
2.64591e-05
-4.15238e-05
2.61968e-05
-4.17901e-05
2.70358e-05
-4.1126e-05
3.0337e-05
-4.3873e-05
3.15692e-05
2.33646e-05
-5.51107e-05
3.3209e-06
-8.93197e-06
4.13802e-06
-7.15402e-06
2.73341e-06
-5.22744e-06
7.6735e-07
-4.68959e-06
-3.78538e-07
-3.78475e-06
9.51031e-07
-1.21309e-06
1.26935e-06
5.59509e-06
-4.15818e-06
1.13938e-05
-1.00505e-05
5.20294e-06
-1.52376e-05
1.0307e-05
-1.83856e-05
1.15375e-05
-2.1911e-05
1.41023e-05
-2.57352e-05
1.80086e-05
-2.91798e-05
2.23024e-05
-3.23504e-05
2.45024e-05
-3.48314e-05
2.58357e-05
-3.61869e-05
2.67288e-05
-3.66625e-05
2.69346e-05
-3.64453e-05
2.59796e-05
-3.49448e-05
2.55353e-05
-3.13409e-05
2.67331e-05
-2.81234e-05
2.83516e-05
2.55698e-05
-3.03286e-05
-4.40413e-06
-4.52784e-06
-6.37569e-06
-5.18245e-06
-7.63118e-06
-3.97196e-06
-1.05378e-05
-1.78299e-06
-1.39866e-05
-3.35878e-07
-1.48521e-05
-3.47597e-07
-8.02015e-06
-1.23691e-06
-6.45138e-06
9.82507e-06
-9.62177e-06
8.37336e-06
-8.06775e-06
8.75304e-06
-8.94358e-06
1.24133e-05
-1.13496e-05
1.65084e-05
-1.38838e-05
2.05428e-05
-1.65374e-05
2.4956e-05
-1.89878e-05
2.69527e-05
-2.116e-05
2.80079e-05
-2.28974e-05
2.84662e-05
-2.41461e-05
2.81833e-05
-2.48107e-05
2.66442e-05
-2.44238e-05
2.51484e-05
-2.21438e-05
2.44531e-05
-1.82612e-05
2.4469e-05
2.31286e-05
-1.582e-05
-1.80837e-05
1.35559e-05
-2.95603e-05
6.29413e-06
-3.55653e-05
2.03308e-06
-3.55512e-05
-1.79689e-06
-2.9056e-05
-6.83099e-06
-1.68972e-05
-1.25065e-05
-9.71911e-06
-8.41485e-06
9.69022e-06
-9.58401e-06
3.8497e-06
1.4214e-05
-5.53035e-06
1.8133e-05
-1.04398e-05
1.73228e-05
-1.10715e-05
1.71402e-05
-8.928e-06
1.83992e-05
-7.57785e-06
2.36059e-05
-7.04831e-06
2.64231e-05
-7.76305e-06
2.87227e-05
-9.24363e-06
2.99468e-05
-1.07421e-05
2.96817e-05
-1.19972e-05
2.78994e-05
-1.26488e-05
2.58e-05
-1.17338e-05
2.35382e-05
-9.05845e-06
2.17936e-05
1.93655e-05
-5.29536e-06
1.0959e-05
2.59712e-06
2.55056e-05
-8.25215e-06
3.95573e-05
-1.20183e-05
4.63122e-05
-8.55145e-06
4.9648e-05
-1.01666e-05
5.02447e-05
-1.31029e-05
5.10679e-05
-9.23776e-06
4.78076e-05
-6.3233e-06
5.66754e-05
5.34637e-06
6.3632e-05
1.11769e-05
5.52101e-05
2.57455e-05
1.81624e-05
5.4188e-05
-3.05152e-05
6.70765e-05
-2.83865e-05
2.14768e-05
-1.76381e-05
1.56746e-05
-1.24533e-05
2.35379e-05
-1.02513e-05
2.77447e-05
-8.97378e-06
2.84043e-05
-8.51253e-06
2.74382e-05
-7.42494e-06
2.47125e-05
-4.92581e-06
2.10391e-05
-1.04189e-06
1.79098e-05
1.50815e-05
3.24214e-06
2.01434e-05
-1.75456e-05
3.38605e-05
-2.19686e-05
4.36044e-05
-2.17616e-05
5.32187e-05
-1.81652e-05
5.90047e-05
-1.59521e-05
6.05202e-05
-1.46181e-05
6.16437e-05
-1.03611e-05
5.81893e-05
-2.86873e-06
5.92167e-05
4.31899e-06
5.54028e-05
1.4991e-05
4.84575e-05
3.26912e-05
4.542e-05
5.72263e-05
4.39677e-05
6.85285e-05
1.64599e-05
4.8984e-05
-9.15305e-08
3.22254e-05
-1.88162e-05
4.22616e-05
-3.01072e-05
3.90358e-05
-2.41456e-05
2.24426e-05
-2.00583e-05
2.33511e-05
-1.59621e-05
2.06168e-05
-9.4122e-06
1.44893e-05
-2.63575e-06
1.11333e-05
1.01597e-05
2.28603e-06
1.81935e-05
-3.57385e-05
2.94416e-05
-3.32162e-05
3.77336e-05
-3.00531e-05
4.55296e-05
-2.59607e-05
5.16168e-05
-2.20388e-05
5.51737e-05
-1.81745e-05
5.72291e-05
-1.24162e-05
5.78359e-05
-3.47524e-06
5.45385e-05
7.61652e-06
5.03932e-05
1.91363e-05
4.98811e-05
3.32033e-05
5.6719e-05
5.03887e-05
6.40907e-05
6.1157e-05
5.8999e-05
5.40752e-05
4.57639e-05
4.54609e-05
4.04114e-05
4.76148e-05
3.36297e-05
4.58173e-05
1.76638e-05
3.84083e-05
1.19656e-05
2.90497e-05
-2.87534e-06
3.54574e-05
-2.49163e-05
3.65298e-05
-2.1225e-05
7.4416e-06
-2.55245e-06
-8.51323e-06
1.16714e-05
-4.74094e-05
2.10545e-05
-4.25988e-05
2.84606e-05
-3.74587e-05
3.48551e-05
-3.23548e-05
4.01305e-05
-2.73137e-05
4.34701e-05
-2.15136e-05
4.49956e-05
-1.39413e-05
4.54119e-05
-3.89119e-06
4.58294e-05
7.19931e-06
4.66866e-05
1.82792e-05
5.01762e-05
2.97136e-05
5.88237e-05
4.17411e-05
7.03773e-05
4.96034e-05
7.7426e-05
4.7027e-05
8.06372e-05
4.22498e-05
8.74464e-05
4.08063e-05
9.25892e-05
4.06742e-05
9.13007e-05
3.96964e-05
8.12746e-05
3.90757e-05
7.57282e-05
4.10039e-05
7.28689e-05
3.93887e-05
5.48142e-05
2.5496e-05
1.46372e-05
3.76242e-05
6.81188e-06
-5.42208e-05
1.28472e-05
-4.86336e-05
1.76551e-05
-4.22662e-05
2.17293e-05
-3.64285e-05
2.52996e-05
-3.08836e-05
2.78711e-05
-2.40847e-05
2.93904e-05
-1.54602e-05
3.0734e-05
-5.23434e-06
3.30408e-05
4.8928e-06
3.73778e-05
1.39424e-05
4.40439e-05
2.30476e-05
5.41808e-05
3.16041e-05
6.72356e-05
3.65485e-05
7.85246e-05
3.5738e-05
8.78544e-05
3.292e-05
9.72741e-05
3.13864e-05
0.00010603
3.19178e-05
0.000111413
3.43142e-05
0.000113106
3.73819e-05
0.000114484
3.96269e-05
0.000114873
3.89991e-05
0.000106779
3.35903e-05
2.68233e-05
9.45937e-05
2.80256e-06
-5.70229e-05
5.20214e-06
-5.10327e-05
6.9065e-06
-4.39701e-05
8.28478e-06
-3.78063e-05
9.56136e-06
-3.21598e-05
1.03644e-05
-2.48874e-05
1.10914e-05
-1.61868e-05
1.23936e-05
-6.53614e-06
1.55502e-05
1.73652e-06
2.13392e-05
8.15372e-06
2.91029e-05
1.52841e-05
3.81447e-05
2.25625e-05
5.039e-05
2.43033e-05
6.27353e-05
2.33929e-05
7.39874e-05
2.16679e-05
8.5241e-05
2.01328e-05
9.566e-05
2.14987e-05
0.000104082
2.58924e-05
0.000110751
3.07125e-05
0.000115244
3.51339e-05
0.000116989
3.72531e-05
0.000114157
3.64225e-05
3.45131e-05
0.000106468
-7.1967e-07
-5.63028e-05
-1.63084e-06
-5.01211e-05
-2.92102e-06
-4.26795e-05
-4.24386e-06
-3.64831e-05
-5.83539e-06
-3.05679e-05
-7.65543e-06
-2.3067e-05
-9.15956e-06
-1.46823e-05
-9.60155e-06
-6.09381e-06
-7.90634e-06
4.16247e-08
-3.38579e-06
3.63345e-06
3.29397e-06
8.60461e-06
1.13197e-05
1.4537e-05
2.03258e-05
1.52975e-05
2.96069e-05
1.4112e-05
3.96792e-05
1.15959e-05
5.12086e-05
8.60359e-06
6.34877e-05
9.21975e-06
7.51192e-05
1.42609e-05
8.51963e-05
2.06355e-05
9.32192e-05
2.71109e-05
9.85597e-05
3.19126e-05
0.000100381
3.46012e-05
3.60983e-05
9.87962e-05
-3.49544e-06
-5.2807e-05
-7.17896e-06
-4.64371e-05
-1.08861e-05
-3.89719e-05
-1.4808e-05
-3.25609e-05
-1.90588e-05
-2.63167e-05
-2.33746e-05
-1.87508e-05
-2.71066e-05
-1.09501e-05
-2.9015e-05
-4.18505e-06
-2.76885e-05
-1.28462e-06
-2.39526e-05
-1.02211e-07
-1.93634e-05
4.01558e-06
-1.35494e-05
8.72333e-06
-8.55156e-06
1.02999e-05
-3.2459e-06
8.80658e-06
3.39525e-06
4.95499e-06
1.10832e-05
9.159e-07
2.13028e-05
-9.99593e-07
3.43506e-05
1.21337e-06
4.73618e-05
7.62448e-06
5.82877e-05
1.6185e-05
6.70385e-05
2.31619e-05
7.30681e-05
2.85718e-05
3.2829e-05
7.63378e-05
-5.50575e-06
-4.73007e-05
-1.09378e-05
-4.10046e-05
-1.6195e-05
-3.37143e-05
-2.16047e-05
-2.71509e-05
-2.70597e-05
-2.08614e-05
-3.16995e-05
-1.41107e-05
-3.46643e-05
-7.98498e-06
-3.52246e-05
-3.62448e-06
-3.40428e-05
-2.46614e-06
-3.24772e-05
-1.66756e-06
-3.02271e-05
1.76569e-06
-2.69008e-05
5.39723e-06
-2.30916e-05
6.49095e-06
-1.86541e-05
4.36931e-06
-1.37813e-05
8.24583e-08
-9.77086e-06
-3.09426e-06
-6.42307e-06
-4.34712e-06
-4.28963e-07
-4.78051e-06
9.41432e-06
-2.21861e-06
2.13489e-05
4.25047e-06
3.22231e-05
1.22879e-05
4.09436e-05
1.98511e-05
2.66689e-05
4.71043e-05
-6.45105e-06
-4.08493e-05
-1.24874e-05
-3.49679e-05
-1.79801e-05
-2.82213e-05
-2.30237e-05
-2.2107e-05
-2.74343e-05
-1.64505e-05
-3.03669e-05
-1.11778e-05
-3.15853e-05
-6.7663e-06
-3.13399e-05
-3.86967e-06
-3.12452e-05
-2.56059e-06
-3.14145e-05
-1.49806e-06
-3.00298e-05
3.81308e-07
-2.6876e-05
2.2436e-06
-2.30806e-05
2.69574e-06
-1.98467e-05
1.13566e-06
-1.78879e-05
-1.87606e-06
-1.69731e-05
-4.00885e-06
-1.65748e-05
-4.74521e-06
-1.62599e-05
-5.09521e-06
-1.40761e-05
-4.40226e-06
-8.25068e-06
-1.57489e-06
2.74465e-07
3.76275e-06
9.52407e-06
1.06018e-05
1.85049e-05
1.76885e-05
-6.49728e-06
-3.43516e-05
-1.2282e-05
-2.91829e-05
-1.7146e-05
-2.33569e-05
-2.10794e-05
-1.81732e-05
-2.39794e-05
-1.35502e-05
-2.56306e-05
-9.52637e-06
-2.60869e-05
-6.30968e-06
-2.58336e-05
-4.12269e-06
-2.55335e-05
-2.86052e-06
-2.51293e-05
-1.90204e-06
-2.39448e-05
-8.02943e-07
-2.18234e-05
1.22467e-07
-1.94286e-05
3.0108e-07
-1.76996e-05
-5.93077e-07
-1.7427e-05
-2.14848e-06
-1.80885e-05
-3.34719e-06
-1.89185e-05
-3.91498e-06
-1.99091e-05
-4.10447e-06
-2.06505e-05
-3.66073e-06
-2.00438e-05
-2.18151e-06
-1.70738e-05
7.92807e-07
-1.19333e-05
5.46118e-06
1.16028e-05
-5.03051e-06
-6.0905e-06
-2.82608e-05
-1.13263e-05
-2.39467e-05
-1.5453e-05
-1.92299e-05
-1.8462e-05
-1.51639e-05
-2.03827e-05
-1.16291e-05
-2.12658e-05
-8.64308e-06
-2.12938e-05
-6.28139e-06
-2.08263e-05
-4.58998e-06
-2.02283e-05
-3.45826e-06
-1.95264e-05
-2.60372e-06
-1.84897e-05
-1.83944e-06
-1.70966e-05
-1.27039e-06
-1.56664e-05
-1.12894e-06
-1.47362e-05
-1.52316e-06
-1.46634e-05
-2.22106e-06
-1.52483e-05
-2.76215e-06
-1.62135e-05
-2.94953e-06
-1.75195e-05
-2.79839e-06
-1.89723e-05
-2.20781e-06
-2.01192e-05
-1.0346e-06
-2.02876e-05
9.61211e-07
-1.88429e-05
4.01671e-06
8.1741e-06
-1.54138e-05
-5.59075e-06
-2.26696e-05
-1.03204e-05
-1.92167e-05
-1.39225e-05
-1.56274e-05
-1.63939e-05
-1.26923e-05
-1.78218e-05
-1.02009e-05
-1.83476e-05
-8.11704e-06
-1.81859e-05
-6.44284e-06
-1.76097e-05
-5.16593e-06
-1.68593e-05
-4.2084e-06
-1.6018e-05
-3.4449e-06
-1.50531e-05
-2.8041e-06
-1.39959e-05
-2.32739e-06
-1.3022e-05
-2.10265e-06
-1.23971e-05
-2.14785e-06
-1.22923e-05
-2.3257e-06
-1.2647e-05
-2.4073e-06
-1.33423e-05
-2.25415e-06
-1.43276e-05
-1.8129e-06
-1.55079e-05
-1.02742e-06
-1.66723e-05
1.29797e-07
-1.75329e-05
1.82186e-06
-1.75847e-05
4.06835e-06
7.00287e-06
-1.64129e-05
-5.15775e-06
-1.75116e-05
-9.5152e-06
-1.4859e-05
-1.28117e-05
-1.23306e-05
-1.50456e-05
-1.04582e-05
-1.63137e-05
-8.93259e-06
-1.67711e-05
-7.65935e-06
-1.66166e-05
-6.59713e-06
-1.60662e-05
-5.71607e-06
-1.53037e-05
-4.97075e-06
-1.4435e-05
-4.3134e-06
-1.35095e-05
-3.72936e-06
-1.25904e-05
-3.24636e-06
-1.17915e-05
-2.9014e-06
-1.1251e-05
-2.68815e-06
-1.10518e-05
-2.5247e-06
-1.11727e-05
-2.28631e-06
-1.15504e-05
-1.87625e-06
-1.21286e-05
-1.23463e-06
-1.28294e-05
-3.26503e-07
-1.35752e-05
8.75578e-07
-1.41623e-05
2.40892e-06
-1.43435e-05
4.24981e-06
6.47545e-06
-1.38157e-05
-4.82637e-06
-1.26848e-05
-8.92959e-06
-1.07554e-05
-1.20587e-05
-9.20116e-06
-1.42123e-05
-8.30434e-06
-1.54791e-05
-7.66558e-06
-1.59998e-05
-7.13842e-06
-1.59454e-05
-6.65131e-06
-1.54928e-05
-6.1684e-06
-1.47956e-05
-5.66781e-06
-1.39658e-05
-5.14303e-06
-1.30851e-05
-4.6098e-06
-1.22306e-05
-4.10069e-06
-1.14881e-05
-3.64378e-06
-1.09396e-05
-3.23647e-06
-1.063e-05
-2.83418e-06
-1.05493e-05
-2.36686e-06
-1.06562e-05
-1.76924e-06
-1.08981e-05
-9.92644e-07
-1.12061e-05
-1.83419e-08
-1.15123e-05
1.18176e-06
-1.16855e-05
2.58226e-06
-1.15906e-05
4.1547e-06
5.92397e-06
-1.10385e-05
-4.58715e-06
-8.09744e-06
-8.52036e-06
-6.82194e-06
-1.15556e-05
-6.16567e-06
-1.36897e-05
-6.16997e-06
-1.49985e-05
-6.35653e-06
-1.56022e-05
-6.53449e-06
-1.56461e-05
-6.60721e-06
-1.52825e-05
-6.5318e-06
-1.4652e-05
-6.29814e-06
-1.38717e-05
-5.92319e-06
-1.30361e-05
-5.44523e-06
-1.22253e-05
-4.9113e-06
-1.15095e-05
-4.35945e-06
-1.09429e-05
-3.80295e-06
-1.05513e-05
-3.22559e-06
-1.03268e-05
-2.59124e-06
-1.02362e-05
-1.85976e-06
-1.02306e-05
-9.98026e-07
-1.02548e-05
5.92676e-09
-1.02355e-05
1.16244e-06
-1.00922e-05
2.43902e-06
-9.73564e-06
3.7984e-06
5.23487e-06
-9.04616e-06
-4.42157e-06
-3.67544e-06
-8.24443e-06
-2.99876e-06
-1.12236e-05
-3.18628e-06
-1.33532e-05
-4.0401e-06
-1.46957e-05
-5.01375e-06
-1.53516e-05
-5.87846e-06
-1.5447e-05
-6.51155e-06
-1.51224e-05
-6.8562e-06
-1.45171e-05
-6.90328e-06
-1.37561e-05
-6.68401e-06
-1.29433e-05
-6.25792e-06
-1.21598e-05
-5.69464e-06
-1.1465e-05
-5.05408e-06
-1.08958e-05
-4.37207e-06
-1.04643e-05
-3.65693e-06
-1.01591e-05
-2.89636e-06
-9.94911e-06
-2.06961e-06
-9.78972e-06
-1.1573e-06
-9.63266e-06
-1.51026e-07
-9.41325e-06
9.43068e-07
-9.07652e-06
2.1024e-06
-8.56269e-06
3.28447e-06
4.47347e-06
-7.80078e-06
-4.3125e-06
6.37238e-07
-8.06921e-06
7.58194e-07
-1.10102e-05
-2.4505e-07
-1.31325e-05
-1.91762e-06
-1.4488e-05
-3.65799e-06
-1.51574e-05
-5.20892e-06
-1.52534e-05
-6.41538e-06
-1.4913e-05
-7.19636e-06
-1.4282e-05
-7.53417e-06
-1.34966e-05
-7.46921e-06
-1.26708e-05
-7.08355e-06
-1.18889e-05
-6.47645e-06
-1.1204e-05
-5.73884e-06
-1.06408e-05
-4.93511e-06
-1.02e-05
-4.09762e-06
-9.86322e-06
-3.23306e-06
-9.59829e-06
-2.33444e-06
-9.3635e-06
-1.39197e-06
-9.11317e-06
-4.01259e-07
-8.7982e-06
6.28113e-07
-8.37475e-06
1.67895e-06
-7.80362e-06
2.71361e-06
3.71054e-06
-7.0404e-06
-4.23031e-06
4.86794e-06
-7.93561e-06
4.46378e-06
-1.08473e-05
2.66688e-06
-1.29541e-05
1.89348e-07
-1.4298e-05
-2.31389e-06
-1.49456e-05
-4.5611e-06
-1.50009e-05
-6.35985e-06
-1.4604e-05
-7.59314e-06
-1.39106e-05
-8.22743e-06
-1.30688e-05
-8.31086e-06
-1.22019e-05
-7.95034e-06
-1.13985e-05
-7.27974e-06
-1.07099e-05
-6.42733e-06
-1.01533e-05
-5.49157e-06
-9.71985e-06
-4.53098e-06
-9.38358e-06
-3.56923e-06
-9.10884e-06
-2.60907e-06
-8.8548e-06
-1.64591e-06
-8.57918e-06
-6.768e-07
-8.2427e-06
2.91657e-07
-7.80945e-06
1.2458e-06
-7.25498e-06
2.15903e-06
3.00959e-06
-6.55357e-06
-4.13162e-06
8.99964e-06
-7.75462e-06
8.08698e-06
-1.0627e-05
5.53945e-06
-1.27071e-05
2.26963e-06
-1.40116e-05
-1.0092e-06
-1.46043e-05
-3.9682e-06
-1.45882e-05
-6.37576e-06
-1.41127e-05
-8.06856e-06
-1.33451e-05
-8.9948e-06
-1.24418e-05
-9.21406e-06
-1.15303e-05
-8.86178e-06
-1.07012e-05
-8.1087e-06
-1.0006e-05
-7.12241e-06
-9.4588e-06
-6.03866e-06
-9.04453e-06
-4.94515e-06
-8.7306e-06
-3.88307e-06
-8.47708e-06
-2.86251e-06
-8.24258e-06
-1.88031e-06
-7.9877e-06
-9.31608e-07
-7.67936e-06
-1.6675e-08
-7.28971e-06
8.56153e-07
-6.79956e-06
1.66914e-06
2.40529e-06
-6.19499e-06
-3.93975e-06
1.29398e-05
-7.43057e-06
1.15781e-05
-1.02348e-05
8.34387e-06
-1.2263e-05
4.29804e-06
-1.34939e-05
2.21844e-07
-1.39989e-05
-3.46304e-06
-1.38898e-05
-6.48469e-06
-1.33316e-05
-8.62663e-06
-1.25038e-05
-9.82242e-06
-1.1564e-05
-1.01538e-05
-1.06347e-05
-9.79095e-06
-9.80198e-06
-8.94132e-06
-9.11609e-06
-7.80822e-06
-8.59136e-06
-6.56331e-06
-8.21092e-06
-5.32552e-06
-7.93814e-06
-4.15577e-06
-7.72937e-06
-3.0712e-06
-7.54214e-06
-2.06747e-06
-7.33884e-06
-1.13485e-06
-7.08977e-06
-2.65735e-07
-6.77296e-06
5.39437e-07
-6.3759e-06
1.27196e-06
1.92196e-06
-5.89221e-06
-3.62581e-06
1.65657e-05
-6.9059e-06
1.48583e-05
-9.57408e-06
1.10122e-05
-1.15031e-05
6.22719e-06
-1.2628e-05
1.34699e-06
-1.30173e-05
-3.07359e-06
-1.2804e-05
-6.69791e-06
-1.21748e-05
-9.25574e-06
-1.1321e-05
-1.0676e-05
-1.03933e-05
-1.10814e-05
-9.49815e-06
-1.0686e-05
-8.70657e-06
-9.73282e-06
-8.06321e-06
-8.45151e-06
-7.58444e-06
-7.04202e-06
-7.25663e-06
-5.65327e-06
-7.04334e-06
-4.369e-06
-6.89894e-06
-3.21555e-06
-6.77979e-06
-2.18656e-06
-6.64938e-06
-1.2652e-06
-6.47964e-06
-4.35472e-07
-6.25365e-06
3.13425e-07
-5.96265e-06
9.81188e-07
1.56399e-06
-5.6045e-06
-3.17318e-06
1.97392e-05
-6.11983e-06
1.78052e-05
-8.57073e-06
1.34633e-05
-1.03485e-05
8.00507e-06
-1.13462e-05
2.34487e-06
-1.1616e-05
-2.80367e-06
-1.12921e-05
-7.02171e-06
-1.06169e-05
-9.93085e-06
-9.78434e-06
-1.15085e-05
-8.93025e-06
-1.19354e-05
-8.13437e-06
-1.14818e-05
-7.44154e-06
-1.04256e-05
-6.88377e-06
-9.00922e-06
-6.47918e-06
-7.44656e-06
-6.2225e-06
-5.90991e-06
-6.08353e-06
-4.50793e-06
-6.018e-06
-3.28103e-06
-5.98156e-06
-2.22295e-06
-5.93764e-06
-1.30908e-06
-5.8599e-06
-5.13209e-07
-5.73293e-06
1.86538e-07
-5.55239e-06
8.00561e-07
1.33219e-06
-5.32026e-06
-2.58365e-06
2.23228e-05
-5.06805e-06
2.02896e-05
-7.20193e-06
1.55973e-05
-8.77528e-06
9.57853e-06
-9.63322e-06
3.20291e-06
-9.79224e-06
-2.64455e-06
-9.3907e-06
-7.42317e-06
-8.70538e-06
-1.06161e-05
-7.94916e-06
-1.22646e-05
-7.23214e-06
-1.26524e-05
-6.60109e-06
-1.21128e-05
-6.06579e-06
-1.09609e-05
-5.63775e-06
-9.43723e-06
-5.33354e-06
-7.75074e-06
-5.16008e-06
-6.08334e-06
-5.10115e-06
-4.56684e-06
-5.1197e-06
-3.26245e-06
-5.17229e-06
-2.17031e-06
-5.22176e-06
-1.25959e-06
-5.24167e-06
-4.93289e-07
-5.21694e-06
1.61799e-07
-5.14489e-06
7.28752e-07
1.21749e-06
-5.02998e-06
-1.88822e-06
2.42112e-05
-3.7904e-06
2.2192e-05
-5.49802e-06
1.7305e-05
-6.81349e-06
1.08941e-05
-7.51028e-06
3.89977e-06
-7.58382e-06
-2.57095e-06
-7.17292e-06
-7.83402e-06
-6.5469e-06
-1.12421e-05
-5.93059e-06
-1.28809e-05
-5.40914e-06
-1.31738e-05
-4.9976e-06
-1.25244e-05
-4.66864e-06
-1.12898e-05
-4.40763e-06
-9.69824e-06
-4.22359e-06
-7.93478e-06
-4.13544e-06
-6.17149e-06
-4.14852e-06
-4.55375e-06
-4.24199e-06
-3.16897e-06
-4.37779e-06
-2.03449e-06
-4.51773e-06
-1.11963e-06
-4.63332e-06
-3.77704e-07
-4.70822e-06
2.36771e-07
-4.73899e-06
7.59429e-07
1.21189e-06
-4.73313e-06
-1.13884e-06
2.535e-05
-2.36328e-06
2.34164e-05
-3.53258e-06
1.84743e-05
-4.49314e-06
1.18547e-05
-5.0232e-06
4.42985e-06
-5.06599e-06
-2.52814e-06
-4.73108e-06
-8.16893e-06
-4.27605e-06
-1.16971e-05
-3.88284e-06
-1.32741e-05
-3.60844e-06
-1.34482e-05
-3.45215e-06
-1.26807e-05
-3.35841e-06
-1.13836e-05
-3.28744e-06
-9.76923e-06
-3.23464e-06
-7.98762e-06
-3.2248e-06
-6.18134e-06
-3.28786e-06
-4.49071e-06
-3.43002e-06
-3.02683e-06
-3.62752e-06
-1.83699e-06
-3.84323e-06
-9.03926e-07
-4.04419e-06
-1.76758e-07
-4.20973e-06
4.02255e-07
-4.33286e-06
8.8273e-07
1.30005e-06
-4.42091e-06
-4.1487e-07
2.5765e-05
-8.94679e-07
2.38963e-05
-1.4315e-06
1.90111e-05
-1.88442e-06
1.23076e-05
-2.16383e-06
4.70924e-06
-2.25278e-06
-2.43922e-06
-2.18222e-06
-8.23953e-06
-2.04433e-06
-1.1835e-05
-1.97087e-06
-1.33476e-05
-1.98625e-06
-1.34329e-05
-2.09998e-06
-1.2567e-05
-2.24561e-06
-1.1238e-05
-2.36735e-06
-9.64755e-06
-2.44573e-06
-7.9093e-06
-2.50199e-06
-6.12514e-06
-2.58485e-06
-4.40791e-06
-2.73465e-06
-2.87706e-06
-2.95512e-06
-1.61655e-06
-3.2174e-06
-6.41655e-07
-3.48345e-06
8.92409e-08
-3.72469e-06
6.43526e-07
-3.92756e-06
1.08548e-06
1.46661e-06
-4.09395e-06
2.30137e-07
2.55347e-05
5.0792e-07
2.36184e-05
6.57781e-07
1.88612e-05
8.91766e-07
1.20735e-05
9.551e-07
4.64583e-06
8.03676e-07
-2.28788e-06
4.37082e-07
-7.87302e-06
4.80515e-08
-1.14461e-05
-3.17301e-07
-1.29824e-05
-6.65137e-07
-1.30852e-05
-1.05182e-06
-1.21804e-05
-1.42111e-06
-1.08688e-05
-1.71703e-06
-9.35172e-06
-1.91302e-06
-7.71339e-06
-2.02093e-06
-6.01731e-06
-2.09513e-06
-4.33379e-06
-2.20597e-06
-2.76629e-06
-2.39683e-06
-1.42574e-06
-2.66158e-06
-3.76943e-07
-2.96145e-06
3.89056e-07
-3.25635e-06
9.3835e-07
-3.52121e-06
1.35047e-06
1.69443e-06
-3.74897e-06
8.02297e-07
2.47325e-05
1.72889e-06
2.26917e-05
2.63696e-06
1.7953e-05
3.47246e-06
1.12379e-05
3.85113e-06
4.26704e-06
3.57725e-06
-2.01412e-06
2.79711e-06
-7.09299e-06
1.85512e-06
-1.05042e-05
1.02597e-06
-1.21533e-05
2.91408e-07
-1.23507e-05
-3.63977e-07
-1.15251e-05
-9.31055e-07
-1.03018e-05
-1.36782e-06
-8.91506e-06
-1.65515e-06
-7.42617e-06
-1.79883e-06
-5.87374e-06
-1.8462e-06
-4.2865e-06
-1.88129e-06
-2.73127e-06
-1.98722e-06
-1.31988e-06
-2.19878e-06
-1.65429e-07
-2.48976e-06
6.79961e-07
-2.81143e-06
1.26001e-06
-3.11948e-06
1.65837e-06
1.9669e-06
-3.39187e-06
1.28861e-06
2.34436e-05
2.76823e-06
2.1212e-05