/*--------------------------------*- C++ -*----------------------------------*\
| =========                 |                                                 |
| \\      /  F ield         | OpenFOAM: The Open Source CFD Toolbox           |
|  \\    /   O peration     | Version:  2312                                  |
|   \\  /    A nd           | Website:  www.openfoam.com                      |
|    \\/     M anipulation  |                                                 |
\*---------------------------------------------------------------------------*/
FoamFile
{
    version     2.0;
    format      ascii;
    arch        "LSB;label=32;scalar=64";
    class       volVectorField;
    location    "3.1";
    object      U;
}
// * * * * * * * * * * * * * * * * * * * * * * * * * * * * * * * * * * * * * //

dimensions      [0 1 -1 0 0 0 0];

internalField   nonuniform List<vector> 
2268
(
(0.00583654 -0.00358172 0)
(-0.00149328 0.00178575 0)
(-0.013316 0.00280582 0)
(-0.0233293 0.00247225 0)
(-0.0303159 0.00159116 0)
(-0.0338815 0.000786065 0)
(-0.0349359 0.000236493 0)
(-0.0344863 -1.12957e-05 0)
(-0.0331388 -0.000194768 0)
(-0.0309374 -0.000444801 0)
(-0.0277493 -0.00076433 0)
(-0.0235182 -0.00108729 0)
(-0.01839 -0.00131443 0)
(-0.0127669 -0.00139111 0)
(-0.0071424 -0.00134051 0)
(-0.00192349 -0.00118794 0)
(0.0024592 -0.000898861 0)
(0.00507681 -0.000489767 0)
(0.00588024 -0.000191197 0)
(0.00556363 5.58214e-05 0)
(0.00418782 0.000284533 0)
(0.0024381 0.000583923 0)
(-0.00229904 -0.000510114 0)
(-0.00616494 0.00142347 0)
(-0.014203 0.00757479 0)
(-0.0254542 0.00747145 0)
(-0.0333848 0.00573512 0)
(-0.0384476 0.00340736 0)
(-0.0404593 0.00137337 0)
(-0.0403025 1.7583e-05 0)
(-0.0389996 -0.000666021 0)
(-0.0371083 -0.0011897 0)
(-0.034538 -0.00181537 0)
(-0.0310428 -0.00256824 0)
(-0.0264944 -0.00333388 0)
(-0.0210186 -0.00388042 0)
(-0.0150602 -0.00402616 0)
(-0.00914546 -0.00383717 0)
(-0.00363193 -0.00338405 0)
(0.00108256 -0.00247384 0)
(0.00398726 -0.00119279 0)
(0.00506037 -0.000214808 0)
(0.00514606 0.000622791 0)
(0.00433691 0.0014563 0)
(0.00298603 0.00263464 0)
(-0.0010499 0.000782195 0)
(-0.011899 0.00658322 0)
(-0.0230775 0.0124002 0)
(-0.0351973 0.0114804 0)
(-0.0426004 0.00828513 0)
(-0.0465804 0.00446348 0)
(-0.0473136 0.00132233 0)
(-0.0459412 -0.000604476 0)
(-0.0437114 -0.00148774 0)
(-0.0412445 -0.00213957 0)
(-0.0382965 -0.00308588 0)
(-0.0344896 -0.00430005 0)
(-0.0295834 -0.00559524 0)
(-0.023611 -0.00658987 0)
(-0.0170567 -0.00689759 0)
(-0.0105559 -0.006619 0)
(-0.00439568 -0.00592819 0)
(0.00106168 -0.00443066 0)
(0.00456974 -0.00233248 0)
(0.00619783 -0.000775339 0)
(0.00703643 0.000291043 0)
(0.00718594 0.00113232 0)
(0.00634902 0.00244599 0)
(0.00296697 2.21681e-05 0)
(-0.0160853 0.0168097 0)
(-0.0305061 0.0194639 0)
(-0.0440717 0.0162825 0)
(-0.051548 0.0109732 0)
(-0.0547227 0.00522483 0)
(-0.054182 0.000287532 0)
(-0.0515167 -0.00196274 0)
(-0.0482965 -0.00267856 0)
(-0.045291 -0.00340374 0)
(-0.0421031 -0.00458771 0)
(-0.0382765 -0.00619777 0)
(-0.0334411 -0.00815162 0)
(-0.0272753 -0.00977751 0)
(-0.0201 -0.0102799 0)
(-0.0127259 -0.00980974 0)
(-0.00553204 -0.00881954 0)
(0.00112004 -0.00657352 0)
(0.00588305 -0.00402541 0)
(0.00847439 -0.00195089 0)
(0.0101205 0.000102292 0)
(0.0108977 0.00240199 0)
(0.0094567 0.00565376 0)
(0.00607894 0.00693088 0)
(-0.017983 0.0280907 0)
(-0.0350617 0.0274064 0)
(-0.0505623 0.0214256 0)
(-0.0588206 0.0136307 0)
(-0.0620139 0.00612785 0)
(-0.0602861 0.000515201 0)
(-0.0556112 -0.00308414 0)
(-0.0510553 -0.00391645 0)
(-0.0475487 -0.00429183 0)
(-0.0445559 -0.00544522 0)
(-0.0416407 -0.00781419 0)
(-0.0380428 -0.0113516 0)
(-0.0326434 -0.0145812 0)
(-0.0253505 -0.0156128 0)
(-0.0171135 -0.0148163 0)
(-0.00921585 -0.0132316 0)
(-0.00279565 -0.00915012 0)
(0.00275445 -0.00462367 0)
(0.00699783 -0.00216655 0)
(0.0098078 -0.00071745 0)
(0.0108456 0.000680544 0)
(0.00925263 0.00260275 0)
(0.00641304 0.00430726 0)
(-0.0178155 0.039471 0)
(-0.0365046 0.035433 0)
(-0.053562 0.0261809 0)
(-0.0617216 0.0147492 0)
(-0.062994 0.00358054 0)
(-0.0590612 -0.00479544 0)
(-0.0530544 -0.00772702 0)
(-0.0494981 -0.00770192 0)
(-0.0492832 -0.00938156 0)
(-0.0488333 -0.0122767 0)
(-0.0475955 -0.0147731 0)
(-0.0457765 -0.0175206 0)
(-0.0408929 -0.019739 0)
(-0.0328691 -0.0199619 0)
(-0.023193 -0.0188075 0)
(-0.0160636 -0.017507 0)
(-0.0142325 -0.0149601 0)
(-0.0117585 -0.0107261 0)
(-0.00761713 -0.00677373 0)
(-0.00624769 -0.00278545 0)
(-0.010173 0.00301087 0)
(-0.0082227 0.00758434 0)
(-0.00392178 0.021039 0)
(-0.0162939 0.0521282 0)
(-0.034743 0.0458835 0)
(-0.0524666 0.0346926 0)
(-0.062285 0.0217616 0)
(-0.0662201 0.00904932 0)
(-0.0625803 -0.00217897 0)
(-0.0506289 -0.00691969 0)
(-0.0395225 -0.00606335 0)
(-0.0324973 -0.00450004 0)
(-0.0300539 -0.00365639 0)
(-0.0343257 -0.00158834 0)
(-0.0439785 -0.00453093 0)
(-0.0465549 -0.0145367 0)
(-0.0428538 -0.0196882 0)
(-0.0319227 -0.0228738 0)
(-0.0408763 -0.0114225 0)
(-0.0921287 -0.00301829 0)
(-0.138551 -0.0024494 0)
(-0.172716 -0.00137203 0)
(-0.197903 0.00249257 0)
(-0.193982 0.00574917 0)
(-0.144714 -0.00238667 0)
(-0.137253 -0.00393511 0)
(-0.0129674 0.0651896 0)
(-0.0267123 0.0567243 0)
(-0.039304 0.0417508 0)
(-0.0398854 0.0229113 0)
(-0.0292364 0.00260236 0)
(-0.00679467 -0.0145661 0)
(0.00760004 -0.0160937 0)
(-0.00555586 -0.00559186 0)
(-0.0200644 -0.00453101 0)
(-0.0314366 -0.00542841 0)
(-0.0302853 -0.00791004 0)
(-0.0251726 -0.0126692 0)
(-0.0290572 -0.0201669 0)
(-0.0456714 -0.0200604 0)
(-0.0586596 -0.0159604 0)
(-0.111577 0.0106463 0)
(-0.143263 0.0192169 0)
(-0.165316 0.016113 0)
(-0.189324 0.0132156 0)
(-0.210947 0.00827964 0)
(-0.212539 -0.00348367 0)
(-0.184121 -0.0516954 0)
(-0.227006 -0.117309 0)
(-0.0661282 0.0262027 0)
(-0.106133 0.00946329 0)
(-0.123308 0.00107503 0)
(-0.117715 -0.00186335 0)
(-0.105587 -0.0022763 0)
(-0.0918336 -0.00201907 0)
(-0.0806631 -0.000926392 0)
(-0.0742391 1.81345e-06 0)
(-0.0762587 -0.000415207 0)
(-0.0786692 -0.00355392 0)
(-0.0720391 -0.0062871 0)
(-0.0592794 -0.00731732 0)
(-0.0458103 -0.00711014 0)
(-0.0345118 -0.00599842 0)
(-0.0246821 -0.00534936 0)
(-0.0161875 -0.0040895 0)
(-0.0115667 -0.00265583 0)
(0.000112105 -0.000279459 0)
(-0.00195721 -0.0037665 0)
(-0.0464966 0.0461215 0)
(-0.081421 0.0195158 0)
(-0.0924945 0.00147215 0)
(-0.0880671 -0.00512593 0)
(-0.0771795 -0.00844919 0)
(-0.0605039 -0.00961616 0)
(-0.043824 -0.00699338 0)
(-0.0273786 -0.00259982 0)
(-0.0212012 0.00370144 0)
(-0.0228761 0.000522384 0)
(-0.0192277 -0.00177577 0)
(-0.01706 -0.00296371 0)
(-0.0191248 -0.00378626 0)
(-0.0218991 -0.00370886 0)
(-0.0258263 -0.00376708 0)
(-0.031999 -0.00240228 0)
(-0.0334168 -0.00368742 0)
(-0.0234855 -0.00460662 0)
(-0.0055919 0.00286286 0)
(-0.0502258 0.0705166 0)
(-0.0962746 0.0310006 0)
(-0.107546 0.00280743 0)
(-0.100648 -0.00962336 0)
(-0.0896933 -0.0158333 0)
(-0.0707899 -0.0193566 0)
(-0.0499348 -0.0158846 0)
(-0.0350319 -0.00969214 0)
(-0.0213984 -0.00102403 0)
(-0.0137586 -0.00705076 0)
(-0.00308213 -0.0113476 0)
(-0.00112843 -0.00767472 0)
(-0.0195768 -0.00580294 0)
(-0.0341801 -0.00345626 0)
(-0.0390425 -0.00075524 0)
(-0.0486366 -0.00141687 0)
(-0.05619 -0.00706259 0)
(-0.0507948 -0.0124557 0)
(-0.0233441 -0.0157255 0)
(-0.0449687 0.100193 0)
(-0.107601 0.0447449 0)
(-0.154259 -0.00187675 0)
(-0.153247 -0.0139827 0)
(-0.138142 -0.0186056 0)
(-0.111223 -0.0257144 0)
(-0.0854181 -0.0184846 0)
(-0.0710144 -0.0124575 0)
(-0.0482806 -0.00524225 0)
(-0.0496736 -0.00553083 0)
(-0.0797232 -0.00537493 0)
(-0.0997917 0.00608413 0)
(-0.0940596 0.0149062 0)
(-0.0698449 0.00750893 0)
(-0.0302159 0.00329441 0)
(0.0276357 0.00973628 0)
(0.0212267 0.00375121 0)
(-0.025785 -0.0197612 0)
(-0.00988541 -0.0353332 0)
(-0.0223377 0.136258 0)
(-0.0312112 0.0879052 0)
(-0.106665 0.0235048 0)
(-0.236514 -0.00529754 0)
(-0.250591 -0.0342519 0)
(-0.221928 -0.0476395 0)
(-0.186482 -0.0337479 0)
(-0.156304 -0.0229905 0)
(-0.14124 -0.0122672 0)
(-0.172509 0.00252944 0)
(-0.242124 0.00387514 0)
(-0.2432 -0.00022353 0)
(-0.179461 -0.0181771 0)
(-0.114485 -0.0312228 0)
(-0.0641747 -0.0398444 0)
(-0.00504206 -0.028716 0)
(0.0821582 0.0089131 0)
(0.0667811 0.00720999 0)
(0.0153727 -0.0270702 0)
(-0.0153394 0.140905 0)
(0.0152738 0.102715 0)
(-0.0334393 0.0770783 0)
(-0.196689 0.0472159 0)
(-0.252433 -0.0281436 0)
(-0.265207 -0.0525539 0)
(-0.255917 -0.0393085 0)
(-0.238609 -0.0245901 0)
(-0.215699 -0.00488408 0)
(-0.203727 0.0233387 0)
(-0.220931 0.019865 0)
(-0.191743 -0.0210432 0)
(-0.14716 -0.0446781 0)
(-0.135991 -0.0428542 0)
(-0.122914 -0.0534534 0)
(-0.101059 -0.0533564 0)
(-0.0231753 -0.0191952 0)
(0.0406338 0.00787192 0)
(0.032729 -0.00908684 0)
(0.0122014 0.126992 0)
(0.045965 0.0985693 0)
(-0.0036693 0.117809 0)
(-0.184907 0.0941836 0)
(-0.265431 -0.00494041 0)
(-0.303814 -0.0489234 0)
(-0.300513 -0.0459061 0)
(-0.27388 -0.03658 0)
(-0.228659 -0.0234744 0)
(-0.178853 0.0152857 0)
(-0.152928 0.0171224 0)
(-0.124453 -0.0307634 0)
(-0.137962 -0.0445181 0)
(-0.171684 -0.0390685 0)
(-0.191099 -0.0545269 0)
(-0.187455 -0.0649903 0)
(-0.147412 -0.0526841 0)
(-0.0286512 -0.00585909 0)
(0.00424413 -0.000985899 0)
(0.0114141 0.107033 0)
(0.0194311 0.0926693 0)
(-0.0451289 0.167243 0)
(-0.184805 0.141561 0)
(-0.261467 0.0271641 0)
(-0.29982 -0.0420303 0)
(-0.287598 -0.0564164 0)
(-0.262062 -0.0533589 0)
(-0.21814 -0.0515773 0)
(-0.157058 -0.0182069 0)
(-0.0941812 0.0060754 0)
(-0.0913507 -0.0221718 0)
(-0.160066 -0.0236425 0)
(-0.21503 -0.0200406 0)
(-0.243853 -0.0467372 0)
(-0.243534 -0.0773216 0)
(-0.211242 -0.0811817 0)
(-0.138616 -0.0526059 0)
(-0.0124144 -0.0183098 0)
(0.00153724 0.0638354 0)
(0.0174306 0.0507939 0)
(0.0271304 0.0295749 0)
(0.0362822 0.00641588 0)
(0.0340801 -0.0147284 0)
(0.0350559 -0.0221464 0)
(0.0363719 -0.0152555 0)
(0.0424565 -0.00496528 0)
(0.0494025 -0.000465576 0)
(0.0499988 0.00311656 0)
(0.0458465 0.00140293 0)
(0.0396961 -0.00291432 0)
(0.0289241 -0.00473095 0)
(0.0067637 -0.0021333 0)
(0.00108382 -0.00541419 0)
(-0.0380825 0.0522086 0)
(-0.0853373 0.047061 0)
(-0.112666 0.0318761 0)
(-0.150714 0.0332701 0)
(-0.180838 0.0263424 0)
(-0.208345 0.0060858 0)
(-0.24553 -0.0592873 0)
(-0.297399 -0.106884 0)
(0.0044309 0.0453708 0)
(0.0305193 0.0339462 0)
(0.0457728 0.0255778 0)
(0.0609582 0.0182178 0)
(0.0733122 0.00243879 0)
(0.0817427 -0.0104849 0)
(0.0809664 -0.015672 0)
(0.0777581 -0.0122887 0)
(0.079759 -0.00722305 0)
(0.0821766 -0.00145775 0)
(0.0794194 -0.0022183 0)
(0.0705279 -0.00376946 0)
(0.0551425 0.00243234 0)
(0.037082 0.0112773 0)
(0.0177393 0.0166135 0)
(-0.0103873 0.0739807 0)
(-0.0202063 0.0722981 0)
(-0.0481103 0.0665765 0)
(-0.098118 0.0691793 0)
(-0.137104 0.0705462 0)
(-0.198909 0.0727434 0)
(-0.320817 0.0219628 0)
(-0.418501 -0.0537739 0)
(0.00806991 0.0221525 0)
(0.0427397 0.00539409 0)
(0.0649746 -0.00361327 0)
(0.0933583 -0.0151276 0)
(0.116405 -0.0270325 0)
(0.121663 -0.0202973 0)
(0.106753 -0.0170594 0)
(0.0825 -0.0131849 0)
(0.0751358 -0.0133952 0)
(0.080995 0.000188506 0)
(0.0753844 0.00964314 0)
(0.0562809 0.0180045 0)
(0.0326049 0.0274469 0)
(0.00760567 0.0383844 0)
(-0.0424617 0.0511971 0)
(-0.0671382 0.0898757 0)
(-0.0919018 0.100377 0)
(-0.133823 0.115479 0)
(-0.174551 0.117995 0)
(-0.210394 0.130566 0)
(-0.24649 0.152272 0)
(-0.315103 0.122316 0)
(-0.402202 0.0140063 0)
(0.0212935 0.00176887 0)
(0.054219 -0.0117563 0)
(0.0797819 -0.0207643 0)
(0.0980032 -0.0279026 0)
(0.103799 -0.0252687 0)
(0.0994516 0.00739443 0)
(0.0863077 0.0297389 0)
(0.0503097 0.0237577 0)
(0.0323501 -0.0131025 0)
(0.0269003 0.00553503 0)
(-0.00550953 0.0290945 0)
(-0.0332602 0.0415357 0)
(-0.0636634 0.059262 0)
(-0.10499 0.0840043 0)
(-0.152645 0.0993274 0)
(-0.178609 0.119548 0)
(-0.198214 0.135274 0)
(-0.210907 0.144586 0)
(-0.219974 0.143941 0)
(-0.222864 0.152991 0)
(-0.217717 0.177542 0)
(-0.224612 0.180818 0)
(-0.26397 0.110325 0)
(0.00956051 -0.0589091 0)
(0.0237579 -0.0556772 0)
(0.0195181 -0.0485445 0)
(0.00880656 -0.0403631 0)
(-0.000798264 -0.0309574 0)
(-0.00500163 -0.00867532 0)
(0.0212634 0.0265826 0)
(-0.00568294 0.0418702 0)
(-0.0428279 0.0122885 0)
(-0.0710566 0.0567057 0)
(-0.0898219 0.0651367 0)
(-0.10748 0.0763214 0)
(-0.126362 0.0955657 0)
(-0.145988 0.117954 0)
(-0.165823 0.127555 0)
(-0.180287 0.134331 0)
(-0.191192 0.141152 0)
(-0.196539 0.143761 0)
(-0.196914 0.140203 0)
(-0.192164 0.141502 0)
(-0.176665 0.155382 0)
(-0.158119 0.169097 0)
(-0.156766 0.145143 0)
(-0.0205067 -0.0330662 0)
(-0.0239063 -0.0188561 0)
(-0.0414013 -0.0118779 0)
(-0.045679 -0.0171382 0)
(-0.0669445 -0.0180159 0)
(-0.0912319 0.000541353 0)
(-0.0540574 0.0365109 0)
(-0.0333872 0.0650764 0)
(-0.047801 0.0319408 0)
(-0.0477391 0.0407874 0)
(-0.0428125 0.0494666 0)
(-0.0519781 0.069466 0)
(-0.0660948 0.0963164 0)
(-0.0813667 0.1251 0)
(-0.095028 0.140268 0)
(-0.107081 0.147899 0)
(-0.117889 0.151494 0)
(-0.127029 0.150436 0)
(-0.13161 0.142907 0)
(-0.132548 0.136307 0)
(-0.125763 0.136099 0)
(-0.110002 0.14145 0)
(-0.0935547 0.134961 0)
(-0.0546292 -0.00540213 0)
(-0.14208 -0.0304492 0)
(-0.189638 -0.0250713 0)
(-0.197249 -0.00514954 0)
(-0.175374 0.00797993 0)
(-0.125317 -0.0101638 0)
(-0.0908387 -0.052576 0)
(0.0195547 0.0352532 0)
(0.0508255 0.0465389 0)
(-0.0111754 0.0412783 0)
(-0.0496093 0.0610243 0)
(-0.0598724 0.080134 0)
(-0.0506831 0.0975274 0)
(-0.0420192 0.119292 0)
(-0.0371882 0.131368 0)
(-0.0375699 0.141126 0)
(-0.0436858 0.148254 0)
(-0.0533229 0.149806 0)
(-0.0607026 0.143095 0)
(-0.0668128 0.134734 0)
(-0.066854 0.126884 0)
(-0.0583167 0.121921 0)
(-0.0415964 0.113115 0)
(0.032951 0.113452 0)
(0.0809946 0.0820452 0)
(0.168426 0.0422823 0)
(0.247771 -0.00395296 0)
(0.264892 -0.0532216 0)
(0.270466 -0.0923499 0)
(0.26975 -0.0446186 0)
(0.25222 -0.0913402 0)
(0.283421 0.0832985 0)
(0.327224 0.124492 0)
(0.346939 0.135772 0)
(0.23828 0.155405 0)
(-0.128252 0.148533 0)
(-0.145105 0.132778 0)
(-0.102961 0.135659 0)
(-0.0737394 0.149055 0)
(-0.0558948 0.156991 0)
(-0.0479089 0.157865 0)
(-0.0455403 0.150428 0)
(-0.0437877 0.140755 0)
(-0.0342014 0.127909 0)
(-0.0169173 0.113358 0)
(0.00511344 0.0977505 0)
(0.0691767 -0.0644544 0)
(0.145513 -0.141718 0)
(0.208859 -0.14541 0)
(0.262062 -0.0986523 0)
(0.304099 -0.0757755 0)
(0.324751 -0.0680365 0)
(0.331814 -0.0451474 0)
(0.326096 -0.016915 0)
(0.315413 -0.0114545 0)
(0.301253 0.0294068 0)
(0.289051 0.153278 0)
(0.280766 0.334656 0)
(0.223122 0.435804 0)
(0.148473 0.174151 0)
(0.068155 0.0743549 0)
(-0.0796223 0.146622 0)
(-0.150278 0.166293 0)
(-0.119225 0.158172 0)
(-0.104238 0.150969 0)
(-0.0933392 0.138756 0)
(-0.0661079 0.121458 0)
(-0.0286422 0.104487 0)
(0.00124714 0.0891969 0)
(0.0638826 -0.154622 0)
(0.127382 -0.140714 0)
(0.180947 -0.127261 0)
(0.225333 -0.111245 0)
(0.262627 -0.0992395 0)
(0.288928 -0.0880155 0)
(0.304306 -0.0618978 0)
(0.312931 -0.0158622 0)
(0.30636 0.0511286 0)
(0.279463 0.113034 0)
(0.26689 0.194204 0)
(0.287304 0.31078 0)
(0.326139 0.376123 0)
(0.32507 0.29947 0)
(0.298772 0.228096 0)
(0.24575 0.261688 0)
(0.181074 0.239426 0)
(0.141543 0.143337 0)
(0.0547379 0.13428 0)
(0.0620768 0.13191 0)
(-0.111442 0.0878781 0)
(-0.115009 0.0454138 0)
(-0.0675767 0.0427895 0)
(0.0358077 -0.235659 0)
(0.0883232 -0.213823 0)
(0.133079 -0.190381 0)
(0.171057 -0.164604 0)
(0.202438 -0.138977 0)
(0.225689 -0.111083 0)
(0.239193 -0.0734688 0)
(0.244683 -0.0208161 0)
(0.246566 0.0390789 0)
(0.247852 0.101584 0)
(0.257097 0.173115 0)
(0.289898 0.255202 0)
(0.346059 0.306236 0)
(0.396408 0.278815 0)
(0.428986 0.251213 0)
(0.4536 0.250559 0)
(0.483264 0.247037 0)
(0.496623 0.219322 0)
(0.470605 0.178911 0)
(0.438862 0.197738 0)
(0.39151 0.205758 0)
(0.315099 0.0389245 0)
(0.264807 -0.0572972 0)
(0.0174718 -0.281836 0)
(0.053796 -0.253061 0)
(0.0814139 -0.221235 0)
(0.106255 -0.190775 0)
(0.126277 -0.161237 0)
(0.142643 -0.126203 0)
(0.153858 -0.0809342 0)
(0.161855 -0.0242752 0)
(0.171367 0.0362851 0)
(0.188144 0.0922742 0)
(0.2165 0.147642 0)
(0.261458 0.20036 0)
(0.32549 0.232579 0)
(0.391733 0.226028 0)
(0.448342 0.205909 0)
(0.497866 0.199215 0)
(0.545449 0.197289 0)
(0.586259 0.19996 0)
(0.607459 0.209612 0)
(0.61422 0.222155 0)
(0.61703 0.221717 0)
(0.593444 0.180529 0)
(0.53987 0.14866 0)
(0.00491205 -0.305706 0)
(0.0230477 -0.274415 0)
(0.0313798 -0.237753 0)
(0.0412357 -0.205054 0)
(0.0469789 -0.174899 0)
(0.0523469 -0.137013 0)
(0.0562405 -0.0897496 0)
(0.0625253 -0.0352075 0)
(0.0742108 0.0156478 0)
(0.0983787 0.0565267 0)
(0.134627 0.0998861 0)
(0.180199 0.140115 0)
(0.238067 0.161281 0)
(0.30356 0.158797 0)
(0.36664 0.148856 0)
(0.426607 0.142295 0)
(0.484245 0.148104 0)
(0.536509 0.168171 0)
(0.579273 0.192202 0)
(0.610124 0.215516 0)
(0.62734 0.219471 0)
(0.622987 0.198707 0)
(0.593057 0.174853 0)
(-0.00473134 -0.309631 0)
(-0.00413414 -0.276741 0)
(-0.0133188 -0.237025 0)
(-0.0184611 -0.203692 0)
(-0.0278534 -0.173074 0)
(-0.0371858 -0.133 0)
(-0.0470624 -0.0864087 0)
(-0.0511689 -0.0358441 0)
(-0.0476453 0.00379848 0)
(-0.0327682 0.0322223 0)
(-0.00572114 0.0660927 0)
(0.0428766 0.105758 0)
(0.084848 0.104303 0)
(0.133206 0.0938702 0)
(0.184242 0.083195 0)
(0.238083 0.0741322 0)
(0.302353 0.0848523 0)
(0.371838 0.114434 0)
(0.432819 0.146493 0)
(0.482768 0.174617 0)
(0.518724 0.191373 0)
(0.537622 0.194777 0)
(0.537114 0.192354 0)
(-0.01286 -0.296279 0)
(-0.0270779 -0.26197 0)
(-0.0494989 -0.221424 0)
(-0.0686568 -0.187174 0)
(-0.0918571 -0.153654 0)
(-0.115474 -0.111732 0)
(-0.137555 -0.0661735 0)
(-0.152313 -0.0232969 0)
(-0.153362 -8.68396e-05 0)
(-0.14044 0.00954372 0)
(-0.117558 0.0309882 0)
(-0.0860795 0.0559461 0)
(-0.0588127 0.0639819 0)
(-0.030946 0.0606532 0)
(6.66185e-05 0.0448006 0)
(0.0349822 0.0219205 0)
(0.0780753 0.0154832 0)
(0.146069 0.0393672 0)
(0.220807 0.0801804 0)
(0.287191 0.120092 0)
(0.339959 0.15052 0)
(0.379692 0.172123 0)
(0.405394 0.187741 0)
(-0.0189684 -0.270587 0)
(-0.0428936 -0.235916 0)
(-0.0737799 -0.195612 0)
(-0.101529 -0.15984 0)
(-0.131846 -0.12469 0)
(-0.159907 -0.0845645 0)
(-0.180752 -0.0465057 0)
(-0.18946 -0.018547 0)
(-0.186826 -0.0112436 0)
(-0.179188 -0.00772916 0)
(-0.169032 0.0140562 0)
(-0.152912 0.0389196 0)
(-0.133545 0.046113 0)
(-0.111355 0.0334886 0)
(-0.0874567 0.00844367 0)
(-0.0641412 -0.0114441 0)
(-0.0448065 -0.0222199 0)
(-0.0255824 -0.0238411 0)
(0.015145 0.00204504 0)
(0.0847648 0.0519535 0)
(0.147393 0.0979318 0)
(0.19927 0.133413 0)
(0.24231 0.162498 0)
(-0.0221355 -0.237568 0)
(-0.0500411 -0.204271 0)
(-0.0832849 -0.165837 0)
(-0.111029 -0.130954 0)
(-0.137357 -0.0982238 0)
(-0.157506 -0.0660626 0)
(-0.168115 -0.038682 0)
(-0.169545 -0.0201722 0)
(-0.168139 -0.013754 0)
(-0.168767 -0.00864174 0)
(-0.165722 0.00544135 0)
(-0.153059 0.0196248 0)
(-0.133521 0.023269 0)
(-0.114079 0.0123789 0)
(-0.100471 -0.00751592 0)
(-0.0934428 -0.0214185 0)
(-0.0903137 -0.026235 0)
(-0.0899685 -0.0282264 0)
(-0.0869834 -0.0218466 0)
(-0.0671214 -0.00131163 0)
(-0.0236395 0.0377266 0)
(0.0259109 0.0814284 0)
(0.0783649 0.125502 0)
(-0.0226476 -0.202405 0)
(-0.050119 -0.172349 0)
(-0.0811585 -0.138149 0)
(-0.104156 -0.107458 0)
(-0.122836 -0.0798838 0)
(-0.134912 -0.0552289 0)
(-0.139979 -0.0351122 0)
(-0.139807 -0.0214379 0)
(-0.137967 -0.0142616 0)
(-0.136155 -0.00905342 0)
(-0.131947 -0.00176439 0)
(-0.122855 0.00503823 0)
(-0.11011 0.00669065 0)
(-0.0984549 0.00049417 0)
(-0.0933333 -0.0108316 0)
(-0.0950549 -0.0198548 0)
(-0.0994586 -0.0236259 0)
(-0.104836 -0.0256378 0)
(-0.110546 -0.023601 0)
(-0.112721 -0.0138889 0)
(-0.103526 0.00711062 0)
(-0.080505 0.0392187 0)
(-0.047966 0.0790822 0)
(-0.0216576 -0.168485 0)
(-0.0467643 -0.142848 0)
(-0.0743862 -0.11436 0)
(-0.0927629 -0.0893975 0)
(-0.105965 -0.0675278 0)
(-0.113142 -0.0488747 0)
(-0.115085 -0.0340447 0)
(-0.113389 -0.0236282 0)
(-0.110206 -0.0170487 0)
(-0.106627 -0.0121383 0)
(-0.101944 -0.00730851 0)
(-0.0952869 -0.00346445 0)
(-0.08743 -0.00267983 0)
(-0.0808873 -0.00577001 0)
(-0.078291 -0.0113448 0)
(-0.0799418 -0.0160471 0)
(-0.0843241 -0.0183234 0)
(-0.0906907 -0.0186106 0)
(-0.0985473 -0.016188 0)
(-0.106131 -0.00968096 0)
(-0.110277 0.0025084 0)
(-0.107324 0.0222088 0)
(-0.0959781 0.049861 0)
(-0.0202166 -0.137066 0)
(-0.0428084 -0.116158 0)
(-0.0676512 -0.0938156 0)
(-0.0830977 -0.0750149 0)
(-0.0933864 -0.0588863 0)
(-0.0982106 -0.045368 0)
(-0.0987486 -0.0345871 0)
(-0.0963636 -0.0265767 0)
(-0.0925219 -0.02085 0)
(-0.088107 -0.0164004 0)
(-0.0831911 -0.0125842 0)
(-0.0776843 -0.00975014 0)
(-0.0721227 -0.00871273 0)
(-0.067768 -0.00973944 0)
(-0.0658714 -0.0119022 0)
(-0.0666872 -0.0135102 0)
(-0.0696514 -0.0136214 0)
(-0.0743287 -0.0120369 0)
(-0.0803396 -0.00835521 0)
(-0.0867836 -0.00209586 0)
(-0.0923686 0.0071917 0)
(-0.0954525 0.0204465 0)
(-0.0937749 0.0387069 0)
(-0.0188688 -0.108153 0)
(-0.0394507 -0.0917554 0)
(-0.0624405 -0.0753438 0)
(-0.076409 -0.062477 0)
(-0.0855918 -0.0517454 0)
(-0.0898075 -0.0427839 0)
(-0.0902378 -0.0354585 0)
(-0.0880165 -0.0296286 0)
(-0.0842533 -0.0249682 0)
(-0.0797242 -0.0210504 0)
(-0.0748161 -0.0176744 0)
(-0.0697956 -0.0150226 0)
(-0.0651307 -0.0134135 0)
(-0.0615245 -0.0128583 0)
(-0.0595915 -0.0127998 0)
(-0.0594793 -0.0123414 0)
(-0.0609313 -0.0108289 0)
(-0.0636206 -0.00791385 0)
(-0.0671652 -0.00329315 0)
(-0.0709842 0.00322456 0)
(-0.0746647 0.0115608 0)
(-0.077039 0.0221639 0)
(-0.0769601 0.0355077 0)
(-0.0177838 -0.081279 0)
(-0.0369201 -0.06899 0)
(-0.0587334 -0.0580634 0)
(-0.0720473 -0.0506873 0)
(-0.0810094 -0.0449355 0)
(-0.0854228 -0.0401414 0)
(-0.0863433 -0.0359857 0)
(-0.0847062 -0.0322853 0)
(-0.0814126 -0.0288692 0)
(-0.0771679 -0.025611 0)
(-0.0724764 -0.0225286 0)
(-0.06775 -0.0197869 0)
(-0.0634238 -0.0175557 0)
(-0.0599573 -0.0158082 0)
(-0.0576948 -0.0142193 0)
(-0.0567197 -0.0122864 0)
(-0.0568794 -0.00956857 0)
(-0.0579098 -0.00575077 0)
(-0.0594538 -0.00060848 0)
(-0.0610708 0.00588435 0)
(-0.0623707 0.0136359 0)
(-0.0627186 0.0226464 0)
(-0.0615894 0.0331548 0)
(-0.0169703 -0.0559264 0)
(-0.0351195 -0.0473386 0)
(-0.0561761 -0.0414428 0)
(-0.0692126 -0.0391027 0)
(-0.0782441 -0.0379373 0)
(-0.0830274 -0.0370261 0)
(-0.0844721 -0.035911 0)
(-0.0833677 -0.0343833 0)
(-0.0805073 -0.0323672 0)
(-0.0765773 -0.0299015 0)
(-0.0721381 -0.0271369 0)
(-0.0676523 -0.0242865 0)
(-0.0635209 -0.0215239 0)
(-0.0600785 -0.0188785 0)
(-0.0575381 -0.0161954 0)
(-0.0559404 -0.0132002 0)
(-0.0551654 -0.00961164 0)
(-0.0549824 -0.00519959 0)
(-0.0550828 0.000189915 0)
(-0.0550913 0.00652167 0)
(-0.0546295 0.0136613 0)
(-0.0533429 0.0214619 0)
(-0.0510612 0.029968 0)
(-0.0163865 -0.0316498 0)
(-0.0338991 -0.0264314 0)
(-0.0544618 -0.0252165 0)
(-0.0673729 -0.0275772 0)
(-0.0764916 -0.0307354 0)
(-0.0815321 -0.0335533 0)
(-0.0832759 -0.0354425 0)
(-0.0824253 -0.0361435 0)
(-0.0797377 -0.0356154 0)
(-0.075923 -0.0339949 0)
(-0.0715948 -0.0315459 0)
(-0.0672467 -0.0285781 0)
(-0.063252 -0.0253494 0)
(-0.0598633 -0.0219908 0)
(-0.0572064 -0.0184851 0)
(-0.0552764 -0.0147095 0)
(-0.053952 -0.0105047 0)
(-0.0530226 -0.0057277 0)
(-0.0522177 -0.000291329 0)
(-0.0512087 0.00577224 0)
(-0.0496805 0.0122882 0)
(-0.0474125 0.0190793 0)
(-0.0444349 0.0260832 0)
(-0.0159841 -0.00826456 0)
(-0.0331265 -0.00611344 0)
(-0.0533649 -0.00927796 0)
(-0.0661971 -0.0160823 0)
(-0.0753363 -0.0234109 0)
(-0.0804648 -0.0299142 0)
(-0.0822527 -0.0348511 0)
(-0.0813583 -0.0378617 0)
(-0.0785504 -0.0388827 0)
(-0.0745921 -0.0381111 0)
(-0.0701588 -0.0359272 0)
(-0.0657817 -0.0327818 0)
(-0.0618241 -0.0290753 0)
(-0.0584857 -0.0250738 0)
(-0.0558239 -0.020887 0)
(-0.0537827 -0.016504 0)
(-0.0522201 -0.0118543 0)
(-0.0509315 -0.00686183 0)
(-0.0496676 -0.00148493 0)
(-0.0481589 0.00424842 0)
(-0.0461369 0.0101684 0)
(-0.0434617 0.0161035 0)
(-0.0402771 0.0219515 0)
(-0.0156466 0.0149294 0)
(-0.0325372 0.0140881 0)
(-0.0525416 0.00648704 0)
(-0.0652997 -0.00467988 0)
(-0.0743636 -0.016098 0)
(-0.0794064 -0.026319 0)
(-0.0810207 -0.0343975 0)
(-0.0798542 -0.0398104 0)
(-0.0767165 -0.0424245 0)
(-0.0724316 -0.0424774 0)
(-0.0677319 -0.0404765 0)
(-0.0631864 -0.0370484 0)
(-0.0591653 -0.0327808 0)
(-0.0558417 -0.0281089 0)
(-0.0532239 -0.0232748 0)
(-0.0512069 -0.0183608 0)
(-0.0496178 -0.0133583 0)
(-0.0482461 -0.00823183 0)
(-0.0468596 -0.00296086 0)
(-0.0452235 0.00242917 0)
(-0.043126 0.00781106 0)
(-0.0404591 0.0130267 0)
(-0.0374074 0.0179797 0)
(-0.015232 0.0376878 0)
(-0.0317542 0.0339805 0)
(-0.0514482 0.0221979 0)
(-0.0640831 0.0066342 0)
(-0.0729625 -0.0089442 0)
(-0.0777346 -0.0229584 0)
(-0.0789908 -0.0342808 0)
(-0.0774065 -0.0421659 0)
(-0.0738536 -0.0463816 0)
(-0.0692063 -0.0472096 0)
(-0.0642246 -0.0452989 0)
(-0.0594917 -0.0414723 0)
(-0.0553855 -0.0365306 0)
(-0.0520732 -0.0311048 0)
(-0.0495377 -0.0255853 0)
(-0.0476365 -0.0201445 0)
(-0.0461653 -0.0148173 0)
(-0.0449003 -0.00958498 0)
(-0.0436183 -0.00442749 0)
(-0.0421145 0.000646165 0)
(-0.0402178 0.00556222 0)
(-0.0378332 0.0101862 0)
(-0.0351544 0.0144435 0)
(-0.0144675 0.0594831 0)
(-0.030274 0.0532545 0)
(-0.0495149 0.0375412 0)
(-0.0618703 0.0177522 0)
(-0.0704255 -0.00210831 0)
(-0.0747099 -0.02001 0)
(-0.0754505 -0.0346377 0)
(-0.073378 -0.0449922 0)
(-0.0694465 -0.0507423 0)
(-0.0645568 -0.0522502 0)
(-0.0594465 -0.0503317 0)
(-0.0546646 -0.0460102 0)
(-0.0505739 -0.0402966 0)
(-0.0473458 -0.0340265 0)
(-0.0449631 -0.0277551 0)
(-0.0432663 -0.0217528 0)
(-0.0420272 -0.0160902 0)
(-0.0410079 -0.0107472 0)
(-0.0399892 -0.00568577 0)
(-0.0387813 -0.000884708 0)
(-0.0372506 0.00363621 0)
(-0.0353067 0.00778444 0)
(-0.0331188 0.0115067 0)
(-0.0132696 0.0799528 0)
(-0.0278598 0.0715885 0)
(-0.0462987 0.0523057 0)
(-0.058063 0.0284206 0)
(-0.0661029 0.00425963 0)
(-0.0697114 -0.0176276 0)
(-0.0698195 -0.0355474 0)
(-0.0672584 -0.0482533 0)
(-0.0630854 -0.0553596 0)
(-0.0581937 -0.0573834 0)
(-0.053242 -0.0553483 0)
(-0.0486812 -0.0504729 0)
(-0.0448167 -0.043942 0)
(-0.0418197 -0.0367736 0)
(-0.0396967 -0.0296938 0)
(-0.0383003 -0.0230869 0)
(-0.0373946 -0.0170634 0)
(-0.03673 -0.0115915 0)
(-0.0360863 -0.0066001 0)
(-0.0352911 -0.00202567 0)
(-0.0342221 0.00216262 0)
(-0.0328035 0.0059282 0)
(-0.0311721 0.00924028 0)
(-0.0116544 0.0983495 0)
(-0.0243242 0.0884137 0)
(-0.0414233 0.06614 0)
(-0.0522254 0.0384229 0)
(-0.0595818 0.00998676 0)
(-0.0624392 -0.0159043 0)
(-0.0618706 -0.0370514 0)
(-0.0588819 -0.0518404 0)
(-0.0546739 -0.0599949 0)
(-0.0500873 -0.0622902 0)
(-0.0456507 -0.0600128 0)
(-0.0416524 -0.0545683 0)
(-0.0382884 -0.0472505 0)
(-0.035709 -0.0391995 0)
(-0.0339622 -0.0312949 0)
(-0.0329495 -0.0240526 0)
(-0.032454 -0.0176421 0)
(-0.0322227 -0.0120219 0)
(-0.0320321 -0.00707856 0)
(-0.0317161 -0.00269763 0)
(-0.031169 0.00120778 0)
(-0.0303122 0.00466124 0)
(-0.0292356 0.00765916 0)
(-0.00968077 0.113994 0)
(-0.0196629 0.103141 0)
(-0.0348055 0.0785678 0)
(-0.0442023 0.0474902 0)
(-0.0507395 0.0149828 0)
(-0.0528288 -0.0148129 0)
(-0.0517049 -0.0390884 0)
(-0.0484858 -0.0555904 0)
(-0.0445069 -0.0643644 0)
(-0.0405478 -0.0666157 0)
(-0.0369827 -0.0639519 0)
(-0.03389 -0.0579654 0)
(-0.0313091 -0.0499764 0)
(-0.0293342 -0.041152 0)
(-0.0280564 -0.0324713 0)
(-0.0274652 -0.0245889 0)
(-0.0274051 -0.0177677 0)
(-0.0276389 -0.0119775 0)
(-0.0279378 -0.0070626 0)
(-0.0281381 -0.00285123 0)
(-0.028135 0.000804188 0)
(-0.0278428 0.00398989 0)
(-0.0273142 0.00673961 0)
(-0.00749812 0.1262 0)
(-0.0140801 0.115125 0)
(-0.0266252 0.0890582 0)
(-0.0341241 0.0553467 0)
(-0.0396893 0.0192172 0)
(-0.0410084 -0.0142521 0)
(-0.0396319 -0.0413818 0)
(-0.0365784 -0.0592257 0)
(-0.0332079 -0.0681496 0)
(-0.0301969 -0.0700202 0)
(-0.0278034 -0.0668243 0)
(-0.0258953 -0.0603566 0)
(-0.0243349 -0.0518886 0)
(-0.0231221 -0.0425035 0)
(-0.0223647 -0.0331848 0)
(-0.0221656 -0.0247006 0)
(-0.0224863 -0.0174476 0)
(-0.0231447 -0.011454 0)
(-0.0239134 -0.00654005 0)
(-0.0246167 -0.00247617 0)
(-0.0251495 0.000950234 0)
(-0.025403 0.00389279 0)
(-0.0253776 0.00643381 0)
(-0.00528137 0.134507 0)
(-0.00794182 0.123761 0)
(-0.0173065 0.0970339 0)
(-0.0222414 0.0616281 0)
(-0.026604 0.0225778 0)
(-0.0272617 -0.0140074 0)
(-0.0261184 -0.0435354 0)
(-0.0238098 -0.062279 0)
(-0.0215911 -0.0709593 0)
(-0.0198651 -0.0722102 0)
(-0.0188577 -0.0683808 0)
(-0.0182958 -0.06152 0)
(-0.0178974 -0.0528117 0)
(-0.0175489 -0.0431654 0)
(-0.0173248 -0.0334518 0)
(-0.0174272 -0.0244729 0)
(-0.017984 -0.0167772 0)
(-0.0189338 -0.0105231 0)
(-0.0200777 -0.00555757 0)
(-0.0212244 -0.00160588 0)
(-0.0222407 0.00161202 0)
(-0.0229904 0.0043228 0)
(-0.0234234 0.00667246 0)
(-0.00325534 0.138815 0)
(-0.00180706 0.128602 0)
(-0.00754045 0.101949 0)
(-0.00904603 0.0657673 0)
(-0.0115954 0.0248642 0)
(-0.0116032 -0.013787 0)
(-0.0115951 -0.0449189 0)
(-0.0109642 -0.0641068 0)
(-0.0105492 -0.0723246 0)
(-0.0104321 -0.0729481 0)
(-0.0109363 -0.0684938 0)
(-0.0117463 -0.0613644 0)
(-0.0125218 -0.0526657 0)
(-0.0130545 -0.0430979 0)
(-0.0133452 -0.0333241 0)
(-0.0136333 -0.0240546 0)
(-0.0142164 -0.0159431 0)
(-0.0152289 -0.00934576 0)
(-0.0165668 -0.00422961 0)
(-0.0180285 -0.000318911 0)
(-0.0194385 0.00272787 0)
(-0.0206199 0.00521763 0)
(-0.0214327 0.00737643 0)
(-0.0016011 0.139395 0)
(0.00373106 0.129445 0)
(0.00177845 0.10352 0)
(0.00453505 0.0670886 0)
(0.0048704 0.0258354 0)
(0.00548845 -0.012912 0)
(0.00356554 -0.0441963 0)
(0.00137728 -0.063667 0)
(-0.000774747 -0.0716677 0)
(-0.00257163 -0.0719928 0)
(-0.00467945 -0.0671174 0)
(-0.00678807 -0.0599255 0)
(-0.00863173 -0.0514904 0)
(-0.00995894 -0.0423273 0)
(-0.0107088 -0.0328664 0)
(-0.0110835 -0.0236098 0)
(-0.0114816 -0.0151937 0)
(-0.0122668 -0.00817312 0)
(-0.0135289 -0.00275077 0)
(-0.0151065 0.00125116 0)
(-0.0167754 0.00420191 0)
(-0.0182883 0.00649845 0)
(-0.0194089 0.00846464 0)
(-0.00021107 0.136622 0)
(0.00834976 0.126111 0)
(0.0101947 0.100599 0)
(0.0167955 0.0640602 0)
(0.0203604 0.0247078 0)
(0.021178 -0.0110599 0)
(0.017918 -0.0402319 0)
(0.012814 -0.0595171 0)
(0.00761814 -0.0682975 0)
(0.00345409 -0.0690368 0)
(-0.000404594 -0.0642303 0)
(-0.00369656 -0.0573188 0)
(-0.00643649 -0.0494325 0)
(-0.00838442 -0.04096 0)
(-0.00949148 -0.0321526 0)
(-0.00988979 -0.0232632 0)
(-0.00996934 -0.0147676 0)