/*--------------------------------*- C++ -*----------------------------------*\
| =========                 |                                                 |
| \\      /  F ield         | OpenFOAM: The Open Source CFD Toolbox           |
|  \\    /   O peration     | Version:  2312                                  |
|   \\  /    A nd           | Website:  www.openfoam.com                      |
|    \\/     M anipulation  |                                                 |
\*---------------------------------------------------------------------------*/
FoamFile
{
    version     2.0;
    format      ascii;
    arch        "LSB;label=32;scalar=64";
    class       volScalarField;
    location    "3.5";
    object      alpha.water_0;
}
// * * * * * * * * * * * * * * * * * * * * * * * * * * * * * * * * * * * * * //

dimensions      [0 0 0 0 0 0 0];

internalField   nonuniform List<scalar> 
2268
(
3.7954e-07
2.35029e-07
5.29439e-08
9.63631e-09
1.84632e-09
4.09342e-10
2.146e-10
1.29411e-10
8.41392e-11
5.87886e-11
4.67105e-11
4.22982e-11
4.21837e-11
4.64864e-11
5.55883e-11
7.0204e-11
9.74456e-11
1.49511e-10
2.11513e-10
3.81139e-10
7.26066e-10
1.17341e-09
1.37354e-09
3.7954e-07
2.67274e-07
6.38782e-08
1.03874e-08
1.16301e-09
3.26821e-10
2.45076e-10
1.73921e-10
1.16943e-10
9.26246e-11
7.67927e-11
6.50574e-11
6.25767e-11
6.70011e-11
8.4744e-11
1.11777e-10
1.48664e-10
2.26274e-10
3.90518e-10
6.95566e-10
1.24015e-09
2.00631e-09
1.72477e-09
1.16939e-07
3.12476e-08
1.81585e-08
2.61356e-09
1.36142e-10
1.34605e-10
1.90945e-10
2.05891e-10
2.05862e-10
1.88337e-10
1.8066e-10
1.36979e-10
1.28428e-10
1.28856e-10
1.31152e-10
1.85463e-10
2.59555e-10
2.81708e-10
3.87318e-10
6.70635e-10
1.52816e-09
2.49645e-09
1.64569e-09
1.39393e-07
7.34762e-08
6.71153e-08
2.45919e-08
1.31551e-08
4.54938e-11
4.66114e-11
7.6196e-11
1.01383e-10
6.33347e-10
4.09244e-10
2.78748e-10
2.23387e-10
1.3984e-10
1.07952e-10
1.22377e-10
1.49192e-10
1.43494e-10
1.4251e-10
2.3213e-10
5.97713e-10
9.84773e-10
5.11064e-10
0.0094281
0.00785531
0.00538532
0.00246185
0.000270396
-2.60408e-14
-6.24758e-20
-4.50253e-20
1.33715e-19
8.91643e-09
4.93322e-12
5.35475e-12
4.93725e-12
5.35094e-12
4.94132e-12
9.20325e-12
9.23873e-12
4.345e-12
2.16066e-21
3.42564e-21
7.08414e-12
9.65894e-13
6.51718e-12
0.570322
0.559561
0.536822
0.498392
0.438106
0.350064
0.264517
0.185887
0.120276
0.0706138
0.0362508
0.0159943
0.00518888
0.000953804
3.63295e-05
3.77237e-10
5.7675e-21
3.15691e-22
0.00693673
0.0189134
0.050138
0.100135
0.113854
0.994591
0.992973
0.993771
0.996207
0.998704
0.997525
0.964315
0.917338
0.856792
0.780314
0.685504
0.590833
0.513462
0.456351
0.4026
0.405051
0.440983
0.481692
0.475351
0.555666
0.659653
0.734836
0.7429
0.999554
0.999071
0.998864
0.999612
0.999613
0.999613
0.999612
0.999471
0.999137
0.994239
0.979943
0.968217
0.970654
0.970647
0.95917
0.887789
0.84914
0.856567
0.901199
0.978514
0.987881
0.975034
0.958168
0.014794
0.0154237
0.0141079
0.00669918
0.00742323
0.0151607
0.017785
0.0177926
0.0163129
0.0153598
0.0133819
0.0125335
0.0118541
0.00876529
0.00666433
0.00452689
0.00453805
0.00615361
0.00659439
0.00952656
0.00718138
0.00669918
0.00668908
0.0066893
0.00664002
0.00666501
0.00651534
0.00567112
0.00335445
0.00292663
0.00290166
0.00292637
0.00291944
0.0029323
0.00299837
0.00300288
0.00307035
0.00331689
0.232703
0.029048
0.0230629
0.0316853
0.026581
0.0246338
0.0262495
0.00830763
0.00298671
0.00299557
0.0038538
0.0898379
0.197647
0.18935
0.108725
0.0511592
0.00749372
0.00304623
0.00303655
0.500302
0.372917
0.438128
0.461399
0.445789
0.440645
0.514156
0.550555
0.314052
0.123992
0.255785
0.782677
0.889809
0.883692
0.803625
0.665552
0.379061
0.227192
0.148242
0.557291
0.622881
0.860933
0.876886
0.832131
0.810667
0.778205
0.838138
0.58623
0.393988
0.541561
0.90067
0.900724
0.900816
0.889738
0.898849
0.840437
0.502701
0.552091
0.658382
0.967765
0.967779
0.967816
0.962524
0.937606
0.912364
0.967789
0.686699
0.394985
0.637144
0.900736
0.900845
0.900872
0.900105
0.900318
0.900255
0.838681
0.890011
0.586123
0.967734
0.967767
0.967725
0.967769
0.967788
0.967789
0.967787
0.80435
0.421607
0.610585
0.888691
0.900742
0.860752
0.900134
0.900228
0.900152
0.900079
0.899884
0.585165
0.967719
0.967731
0.960219
0.951263
0.957952
0.967787
0.967667
0.885195
0.585011
0.609503
0.641524
0.813792
0.852884
0.879384
0.898137
0.888748
0.885949
0.877777
0.999557
0.999559
0.999597
0.999598
0.999595
0.999611
0.999611
0.999609
0.998311
0.962384
0.95019
0.956541
0.970647
0.944744
0.839568
0.838187
0.838447
0.904435
0.989371
0.991298
0.991297
0.98772
0.949202
0.999456
0.999152
0.998178
0.998271
0.999424
0.999611
0.99961
0.999609
0.999608
0.989028
0.950152
0.949909
0.950259
0.981003
0.961822
0.957201
0.985067
0.989698
0.991298
0.991219
0.970688
0.868344
0.624936
0.999199
0.998876
0.995385
0.998383
0.999319
0.99961
0.999609
0.999608
0.999598
0.999292
0.98398
0.966065
0.973705
0.986267
0.984983
0.98428
0.979358
0.968552
0.76764
0.386952
0.249123
0.325607
0.556555
0.811217
0.802608
0.894503
0.965096
0.986726
0.980498
0.980129
0.963723
0.960274
0.99258
0.993229
0.993307
0.990843
0.979288
0.953303
0.9061
0.602004
0.287273
0.0764032
0.0002729
-3.97332e-07
5.50052e-08
6.3562e-08
0.22078
0.348928
0.486944
0.649634
0.776796
0.86221
0.912677
0.92676
0.925672
0.950306
0.974545
0.963168
0.917375
0.881497
0.668378
0.159942
0.00752213
-1.32008e-08
-1.37771e-07
9.51377e-05
0.000625729
0.00118136
0.0013563
0.00065879
0.00174663
0.024762
0.0612677
0.157365
0.243694
0.265721
0.288242
0.408238
0.526867
0.549536
0.533213
0.389427
0.101064
1.59616e-06
1.43017e-06
0.000742503
4.39796e-06
0.000144986
0.000599685
0.000986842
0.00409066
0.0153595
0.000655876
0.000508488
-1.49306e-08
1.74011e-20
8.91953e-21
-4.02836e-08
3.74314e-20
-8.86156e-07
0.00034218
0.000388428
1.42995e-06
1.59614e-06
1.42995e-06
1.59614e-06
1.42995e-06
1.59661e-06
6.06593e-06
0.000206255
0.000865472
0.00201984
0.00490928
0.0167808
0.020165
0.000341086
0.000178435
3.89936e-06
-3.54953e-14
6.96455e-23
2.52968e-05
7.86527e-05
0.000140958
0.000403169
0.00134448
0.00169754
0.0014532
0.00108449
0.00285238
0.00443713
0.00463857
0.00308977
0.00347455
0.00516775
0.00738091
0.0101219
0.0116037
0.0121702
0.00013367
0.000135445
0.000166533
0.000155848
7.08546e-05
2.34338e-05
3.00644e-05
0.00352914
0.00730318
0.00731906
0.00654248
0.00357765
0.010018
0.0158051
0.0156527
0.0136561
0.0059552
0.00370839
0.00356081
0.00242242
0.000334996
2.46855e-07
4.22924e-09
0.000135481
0.000135174
0.000134755
0.000126444
0.000189148
0.000247293
3.68129e-05
0.00156995
0.00305379
0.0012186
0.000432602
0.00485706
0.012881
0.012126
0.00270449
5.36353e-10
8.09103e-10
5.00484e-09
7.41663e-10
5.28326e-10
7.4802e-10
1.24897e-06
3.42504e-09
0.00172321
0.00558671
0.000301258
0.000129084
0.00135638
0.00102614
0.000274375
0.0002083
2.20754e-05
2.23529e-06
2.89487e-06
0.00010009
3.23883e-07
3.36988e-07
2.00022e-08
3.23504e-08
6.50193e-08
1.0935e-07
7.01964e-07
3.88378e-06
1.08402e-05
1.05674e-05
1.1872e-08
0.0130721
0.0284196
0.0294042
0.0296161
0.0196468
0.000316099
6.22491e-05
2.53019e-05
1.89504e-06
1.25575e-06
1.83879e-06
5.15036e-07
5.43329e-07
1.97482e-06
2.01191e-06
1.57643e-06
1.52973e-06
1.0341e-06
5.66749e-07
5.32284e-07
3.46684e-06
1.29905e-05
9.80931e-06
0.0100739
0.016853
0.0282737
0.0214961
0.0047107
-4.59649e-10
6.82472e-08
4.37634e-22
3.564e-07
1.07692e-06
1.11574e-06
5.16374e-07
2.22315e-07
2.20649e-07
1.0617e-06
2.13858e-06
2.58839e-06
2.56077e-06
3.14867e-06
8.37781e-06
7.84411e-06
1.13764e-06
1.87065e-07
0.000852109
1.27694e-07
1.29204e-07
3.02084e-07
8.36777e-08
7.20807e-08
5.68443e-08
2.00748e-07
7.12973e-07
9.02667e-07
7.46342e-07
7.32328e-07
6.63987e-07
2.22187e-07
2.2075e-07
2.22283e-07
7.59141e-07
6.34964e-06
2.17785e-05
2.92869e-05
1.79742e-05
1.24305e-06
2.62809e-07
1.06054e-07
1.92484e-07
1.80475e-07
1.41524e-07
1.30712e-07
3.30355e-07
1.2161e-07
4.79229e-07
5.95497e-07
3.93671e-07
1.50106e-07
1.46432e-07
1.73533e-07
3.15503e-07
2.09585e-06
2.55081e-06
1.57655e-05
3.14479e-05
3.10202e-05
2.91471e-05
8.59775e-06
6.95086e-11
2.52641e-07
1.07998e-07
9.14895e-07
1.8572e-06
1.23483e-06
5.65099e-07
3.99583e-07
2.55897e-07
1.70425e-07
1.63268e-07
1.63866e-07
8.17186e-06
1.6747e-05
1.69098e-05
1.74254e-05
2.58636e-05
3.96735e-05
3.9776e-05
1.86119e-05
2.03431e-06
1.39088e-22
2.21292e-22
7.64566e-11
6.229e-12
1.11601e-07
3.83522e-07
9.29782e-07
6.31751e-07
2.8219e-07
2.16785e-07
1.40167e-07
4.20338e-08
8.14011e-08
1.72519e-05
1.93028e-05
1.55992e-05
6.93814e-06
1.83792e-05
2.13894e-05
9.84125e-06
8.27578e-10
8.05347e-10
8.27578e-10
9.545e-10
8.25387e-10
6.03124e-10
4.39585e-11
1.76488e-08
4.80043e-09
3.52861e-09
1.67496e-08
2.71621e-08
1.09874e-07
4.86936e-08
4.16539e-08
5.08929e-06
8.47234e-06
5.25342e-06
6.35257e-07
2.87248e-07
5.79209e-07
1.91306e-09
1.89828e-09
1.93517e-09
2.20975e-09
2.00752e-09
1.64712e-09
1.22626e-09
7.98098e-10
1.57694e-10
1.09097e-08
6.82702e-09
3.53424e-09
3.1043e-09
2.65411e-09
9.10059e-09
4.52305e-08
4.48385e-07
1.03392e-06
8.33635e-08
6.01524e-08
1.11184e-08
1.82968e-08
8.43259e-09
3.23788e-09
2.774e-09
2.90562e-09
2.72046e-09
2.20782e-09
1.52743e-09
1.03801e-09
7.14759e-10
5.84137e-10
1.10145e-08
5.9073e-09
3.64243e-09
2.84205e-09
2.65478e-09
5.18665e-09
5.13594e-08
1.80468e-07
1.47968e-08
3.93304e-09
4.13198e-09
2.31866e-09
2.39664e-09
1.73799e-09
1.46774e-09
1.32918e-09
1.32454e-09
1.28981e-09
1.17075e-09
9.52651e-10
6.77464e-10
4.8049e-10
4.59259e-10
1.2466e-08
4.81864e-09
3.00377e-09
2.26346e-09
2.42884e-09
4.02496e-09
2.14128e-08
1.00056e-08
1.92394e-09
1.2901e-09
1.16935e-09
1.08195e-09
9.30498e-10
7.55004e-10
6.48272e-10
6.08546e-10
6.24745e-10
6.5246e-10
6.23441e-10
5.40702e-10
3.67348e-10
2.45687e-10
3.00794e-10
1.30648e-08
3.74679e-09
2.20905e-09
1.45918e-09
1.54287e-09
2.16023e-09
4.38743e-09
1.45925e-09
8.60091e-10
6.2156e-10
5.10381e-10
4.35539e-10
3.52412e-10
3.04317e-10
2.83332e-10
2.83048e-10
3.03418e-10
3.00368e-10
2.8586e-10
2.51768e-10
1.78664e-10
1.44552e-10
1.61658e-10
1.6873e-08
2.55431e-09
1.59085e-09
8.38602e-10
7.42038e-10
8.94319e-10
8.86999e-10
4.55982e-10
3.1964e-10
2.37223e-10
1.90959e-10
1.54337e-10
1.3108e-10
1.19485e-10
1.15496e-10
1.17632e-10
1.22917e-10
1.23516e-10
1.19341e-10
1.08113e-10
8.68653e-11
7.22661e-11
9.14774e-11
3.08821e-08
1.8166e-09
1.12048e-09
5.14908e-10
3.42841e-10
3.12819e-10
2.29702e-10
1.57002e-10
1.14335e-10
8.84567e-11
6.93245e-11
5.53953e-11
4.79267e-11
4.38937e-11
4.23226e-11
4.27089e-11
4.35765e-11
4.33398e-11
4.24715e-11
4.01725e-11
3.58112e-11
3.67403e-11
4.69499e-11
4.69467e-08
9.34123e-10
7.56312e-10
3.82479e-10
2.13656e-10
1.61482e-10
1.20024e-10
9.19523e-11
6.94895e-11
5.08861e-11
3.68973e-11
2.70542e-11
2.07707e-11
1.66607e-11
1.46781e-11
1.39278e-11
1.37441e-11
1.37944e-11
1.37972e-11
1.40497e-11
1.48668e-11
1.65064e-11
2.33991e-11
4.80794e-08
8.49917e-10
5.37492e-10
2.99599e-10
2.0318e-10
1.63602e-10
1.39074e-10
1.13822e-10
8.52398e-11
6.23608e-11
4.55383e-11
3.11608e-11
1.96175e-11
1.18667e-11
7.38416e-12
5.19627e-12
4.22505e-12
3.98518e-12
4.09889e-12
4.63937e-12
5.1269e-12
7.06997e-12
1.02936e-11
5.67898e-08
7.73008e-10
2.77457e-10
2.75717e-10
2.32392e-10
2.22148e-10
2.06302e-10
1.74053e-10
1.30585e-10
1.00982e-10
7.70655e-11
5.22987e-11
3.1539e-11
1.69712e-11
8.25182e-12
3.73625e-12
1.88881e-12
1.21865e-12
1.15128e-12
1.41973e-12
1.95046e-12
2.64558e-12
4.75749e-12
6.40518e-08
2.05279e-09
2.24207e-10
3.13892e-10
3.28601e-10
3.26416e-10
3.05892e-10
2.60672e-10
1.86465e-10
1.57881e-10
1.23879e-10
8.56125e-11
5.22047e-11
2.77812e-11
1.2877e-11
5.18141e-12
1.86875e-12
6.84962e-13
3.70983e-13
4.18944e-13
5.62848e-13
9.99368e-13
1.80059e-12
8.63226e-08
4.49503e-09
2.0327e-10
3.588e-10
4.08105e-10
4.17108e-10
4.16337e-10
3.76314e-10
2.456e-10
2.16769e-10
1.76274e-10
1.25731e-10
7.89507e-11
4.30385e-11
2.02003e-11
8.16131e-12
2.7645e-12
8.37889e-13
2.287e-13
1.28701e-13
1.82548e-13
3.29228e-13
6.5767e-13
9.57963e-08
9.12659e-09
2.00781e-10
3.32188e-10
3.32047e-10
3.11035e-10
3.36799e-10
4.58322e-10
3.23483e-10
2.71051e-10
2.2687e-10
1.66537e-10
1.07669e-10
6.01988e-11
2.92016e-11
1.21987e-11
4.20121e-12
1.21894e-12
2.95847e-13
6.74291e-14
5.01483e-14
1.0784e-13
2.25609e-13
1.18078e-07
1.22262e-08
2.00779e-10
2.6196e-10
2.43159e-10
2.4286e-10
3.39939e-09
2.02026e-09
8.04418e-10
3.74973e-10
2.72707e-10
2.01574e-10
1.33844e-10
7.66036e-11
3.86864e-11
1.68564e-11
6.11628e-12
1.81974e-12
4.43466e-13
7.30896e-14
1.95817e-14
3.00152e-14
7.38525e-14
1.28035e-07
1.5956e-08
2.00781e-10
7.16484e-10
1.35535e-09
2.91309e-08
2.14756e-08
2.44007e-08
4.13291e-09
7.66435e-10
3.24204e-10
2.23407e-10
1.50981e-10
8.80413e-11
4.60165e-11
2.11739e-11
8.12671e-12
2.5106e-12
6.2827e-13
1.09572e-13
1.41933e-14
8.36339e-15
2.13857e-14
1.52043e-07
2.50316e-08
2.00779e-10
7.18498e-09
1.34662e-07
2.0067e-07
4.86044e-07
1.79642e-07
2.21412e-08
2.72783e-09
4.69817e-10
2.33645e-10
1.54248e-10
9.06334e-11
4.77587e-11
2.3011e-11
9.52822e-12
3.19597e-12
8.31264e-13
1.69387e-13
1.92354e-14
2.73143e-15
5.60829e-15
1.64488e-07
4.63644e-08
2.00781e-10
6.54508e-10
1.88521e-07
5.50079e-07
1.41901e-06
1.05784e-06
6.20405e-08
6.99319e-09
8.31436e-10
2.46553e-10
1.44084e-10
8.27756e-11
4.3736e-11
2.152e-11
9.62206e-12
3.52735e-12
1.00904e-12
2.16343e-13
3.0875e-14
1.64616e-15
1.4319e-15
1.73414e-07
9.03424e-08
2.00779e-10
2.15964e-09
7.33244e-08
5.19278e-07
1.41882e-06
1.41901e-06
1.04051e-07
9.93879e-09
1.14515e-09
2.52467e-10
1.23351e-10
6.89201e-11
3.57639e-11
1.76054e-11
8.20637e-12
3.32163e-12
1.034e-12
2.36676e-13
3.91325e-14
1.94575e-15
3.56442e-16
1.73441e-07
1.58515e-07
3.17121e-08
1.41921e-09
2.50544e-09
1.864e-07
1.35227e-06
5.44282e-07
4.5594e-08
6.30398e-09
1.15482e-09
2.13698e-10
9.50386e-11
5.13499e-11
2.51282e-11
1.20707e-11
5.78159e-12
2.54768e-12
9.03187e-13
2.27704e-13
3.98619e-14
2.79508e-15
1.44717e-16
1.54259e-07
1.69679e-07
8.49925e-08
4.913e-09
1.43227e-09
3.53566e-08
5.70755e-07
1.52679e-07
2.29808e-08
3.85455e-09
7.79961e-10
1.41247e-10
6.27557e-11
3.28795e-11
1.51482e-11
6.83816e-12
3.26258e-12
1.52404e-12
6.09081e-13
1.75995e-13
3.43488e-14
3.09555e-15
1.02489e-16
9.58523e-08
1.69798e-07
7.36956e-08
9.27047e-09
1.42296e-09
3.16276e-08
2.1049e-10
2.10892e-10
1.96465e-09
1.6242e-09
3.51659e-10
7.21145e-11
3.60398e-11
1.81422e-11
7.62077e-12
3.11575e-12
1.4009e-12
6.68716e-13
2.96735e-13
1.02578e-13
2.24585e-14
2.94809e-15
1.08788e-16
4.30297e-08
1.14812e-07
3.48919e-08
8.53728e-09
1.42151e-09
3.3347e-09
1.06649e-09
2.82406e-10
1.33156e-10
1.01846e-10
4.7997e-11
2.75793e-11
1.74899e-11
8.50086e-12
3.27206e-12
1.16172e-12
4.4393e-13
1.94246e-13
9.64214e-14
4.2702e-14
1.21092e-14
1.64444e-15
1.01051e-16
7.05906e-09
1.65162e-08
1.66252e-08
4.44918e-09
2.60222e-09
3.1206e-09
2.10213e-09
8.35833e-10
2.6604e-10
7.61182e-11
2.06191e-11
1.07661e-11
6.85648e-12
3.26393e-12
1.18329e-12
3.49028e-13
1.04058e-13
3.72896e-14
1.8457e-14
1.20894e-14
4.10685e-15
7.90341e-16
7.78197e-17
7.07029e-09
7.17852e-09
1.12137e-08
7.3575e-09
5.73314e-09
3.65472e-09
1.60464e-09
4.43309e-10
9.16162e-11
1.70255e-11
4.34595e-12
2.79167e-12
1.8903e-12
9.09875e-13
3.04793e-13
7.58466e-14
1.61316e-14
3.95144e-15
2.08848e-15
2.12955e-15
1.0528e-15
3.2803e-16
4.98877e-17
1.12207e-07
7.55817e-08
3.0647e-08
8.61549e-09
4.3226e-09
1.81987e-09
4.62655e-10
5.86356e-11
4.81678e-12
3.01604e-13
3.67926e-13
3.83628e-13
2.83683e-13
1.38082e-13
4.42239e-14
9.27996e-15
1.39619e-15
2.21983e-16
1.38217e-16
2.447e-16
2.44948e-16
1.10224e-16
2.51967e-17
0.831172
0.485364
0.496571
0.557373
0.489384
0.485873
0.519099
0.560914
0.577328
0.571904
0.53702
0.552928
7.06924e-09
-3.02834e-10
-3.45882e-22
-2.37797e-22
0.000543133
-5.81687e-21
-1.32673e-21
-8.23203e-22
0.0120131
0.00902505
0.00962893
0.00801223
0.0201017
0.020165
0.0201017
0.020165
0.0122662
0.00952319
0.0093223
0.0143841
2.61822e-06
7.96242e-09
9.86616e-09
1.58483e-08
4.18286e-08
3.77836e-07
4.96329e-07
4.73493e-07
5.33054e-08
3.34367e-07
4.21219e-07
4.31692e-07
3.87323e-07
1.13542e-06
1.65195e-06
1.44927e-06
8.489e-08
6.52778e-08
3.08958e-08
1.47402e-06
2.48135e-07
1.97318e-07
2.72022e-08
6.9182e-07
3.20877e-07
2.83036e-07
4.20321e-08
2.39501e-08
1.63741e-10
3.46836e-09
1.11914e-08
1.83568e-08
2.29124e-09
7.72948e-09
6.27663e-08
8.49431e-08
4.94329e-09
5.11897e-09
4.12518e-08
8.35505e-08
6.05166e-10
8.02319e-10
2.37358e-09
2.34181e-09
5.72409e-10
1.00388e-09
2.98427e-09
5.94974e-09
4.89647e-10
9.38277e-10
1.83351e-09
3.34757e-09
2.40702e-10
3.20395e-10
5.89601e-10
9.46377e-10
1.2205e-10
1.66867e-10
2.54949e-10
3.17967e-10
6.41793e-11
7.72093e-11
1.10361e-10
1.41098e-10
3.32013e-11
4.04193e-11
5.38083e-11
6.79954e-11
1.61004e-11
1.94123e-11
2.62022e-11
3.3661e-11
6.86866e-12
8.73973e-12
1.19112e-11
1.50359e-11
2.95782e-12
3.64138e-12
4.84075e-12
6.10402e-12
1.05874e-12
1.41426e-12
1.92241e-12
2.54885e-12
4.11895e-13
5.26942e-13
7.15234e-13
8.9797e-13
1.33881e-13
1.77671e-13
2.49018e-13
3.23942e-13
4.36503e-14
5.99996e-14
8.17527e-14
1.05679e-13
1.1506e-14
1.77892e-14
2.5019e-14
3.3486e-14
3.57431e-15
4.86616e-15
7.24812e-15
9.91289e-15
7.25839e-16
1.18468e-15
1.86983e-15
2.60748e-15
1.85277e-16
2.96964e-16
4.65361e-16
7.06094e-16
3.4991e-17
6.63749e-17
1.1725e-16
1.63211e-16
8.49245e-18
1.30922e-17
2.24471e-17
3.62418e-17
1.88473e-18
2.25972e-18
4.18282e-18
6.37621e-18
8.86991e-19
4.17707e-19
6.24607e-19
1.18128e-18
8.04648e-19
1.23217e-19
1.12029e-19
1.86337e-19
7.82484e-19
6.01222e-20
2.17895e-20
2.67113e-20
0.860226
0.967687
0.874148
0.538109
0.505708
0.641883
0.809436
0.889495
0.701637
0.615822
0.506439
0.808076
0.817888
0.811879
0.445915
0.163507
0.0797192
0.137817
0.115339
0.773892
0.71024
0.255635
-1.04959e-19
3.25384e-19
0.0307667
0.249236
0.441481
0.220602
0.176624
0.515642
0.714335
0.538987
0.118809
0.00102612
0.0010509
0.00102578
0.00101113
0.00116979
0.527231
0.178598
3.63228e-20
3.44173e-11
2.24016e-08
-5.17244e-20
0.148882
0.366285
0.0813132
0.0793024
0.0908732
0.147461
0.0449932
0.000183126
0.00210726
0.00361134
0.00358427
0.00353284
0.00383571
-3.38149e-23
6.10105e-23
7.37661e-23
9.3867e-09
6.27605e-06
-8.64842e-10
0.166293
0.444808
0.444961
0.439705
0.113711
0.000177365
0.00017784
0.000177831
0.00146684
0.0023932
0.00613524
0.00607573
0.00610352
-7.502e-22
8.39608e-05
0.00028054
0.000506392
0.000436369
0.00107487
0.0139677
0.0105523
0.109372
0.165064
0.120178
0.000177602
0.000177632
0.000196507
0.00033165
0.000116758
0.000949383
0.00365086
0.0048546
0.00208441
0.00053392
0.000857103
0.00117968
0.000826032
0.000706226
0.000841761
0.000345079
0.000335005
0.00148867
0.0171217
0.0117516
0.0018572
0.000579779
0.000327471
0.000117911
0.000607716
0.00016073
0.00127523
0.0103353
0.00270854
0.00457772
0.00475746
0.00459624
0.0036173
0.00317475
0.00246472
0.00133661
0.00100071
0.00103137
0.00684081
0.00365326
0.00077582
0.00013551
0.000152318
0.00235891
0.000159813
5.96547e-06
0.0138373
0.00296828
0.00283561
0.0047575
0.00475752
0.0028298
0.00218279
0.00176365
0.00136273
0.00125376
0.00106187
0.000889356
0.00182232
0.00128599
0.000232559
0.00122362
0.00235444
0.00041255
5.96938e-06
0.000277718
0.000374293
0.000112227
0.00159226
0.000828836
5.72118e-05
2.02669e-05
2.36876e-05
8.05915e-05
0.000107234
7.52887e-05
2.17522e-05
0.000560962
0.00128972
0.00130195
0.00104062
0.000483278
0.000129287
3.31763e-05
4.46588e-07
4.46353e-07
4.47492e-07
4.46353e-07
4.51292e-07
5.09153e-07
3.48214e-05
9.7285e-05
8.69334e-05
2.36089e-05
2.03107e-05
2.28965e-05
0.000170627
0.000229765
0.000154477
8.80732e-07
8.53046e-07
8.79401e-07
5.16864e-06
2.04678e-06
1.59969e-05
1.59788e-05
2.40943e-06
4.50075e-07
5.23898e-07
5.99557e-05
9.75256e-05
9.53072e-05
9.59882e-05
5.21196e-05
2.03124e-05
2.0308e-05
9.46346e-06
8.93546e-06
1.21607e-05
2.15955e-05
1.01756e-06
2.23725e-08
1.19537e-06
2.43467e-06
2.46763e-05
3.49484e-05
3.48363e-05
3.26569e-05
1.95549e-05
4.32588e-06
3.99802e-06
6.11025e-06
1.5097e-05
3.10171e-05
3.29551e-05
1.93159e-05
1.72803e-05
3.23755e-05
3.93189e-05
4.45198e-06
2.265e-08
4.36083e-06
1.32603e-05
1.5252e-05
1.50451e-05
1.54887e-05
2.20149e-05
2.43424e-05
1.83192e-05
4.32679e-06
7.87596e-07
8.88057e-07
1.34447e-06
3.28092e-06
3.22541e-06
5.15494e-06
1.41777e-06
2.49456e-05
1.35751e-07
1.99377e-07
2.19483e-06
2.18516e-06
6.84993e-08
3.71199e-05
5.05122e-05
1.3712e-05
8.18435e-06
2.32643e-06
6.24713e-07
6.89325e-08
1.62419e-07
4.04233e-06
1.28878e-05
1.9368e-05
2.1308e-06
1.34486e-06
1.27725e-07
1.33606e-07
1.27139e-07
2.5385e-07
1.63814e-07
6.89771e-08
3.64922e-05
5.44118e-05
5.43569e-05
3.19719e-05
1.60869e-06
3.62459e-07
1.81134e-07
1.9396e-07
2.30608e-06
2.87999e-05
2.88231e-05
1.70451e-05
2.70364e-06
3.34773e-06
1.18372e-05
3.66317e-06
1.53833e-07
1.74882e-07
6.74153e-08
4.659e-06
4.93658e-05
5.17115e-05
2.98635e-05
1.41043e-06
1.46057e-06
3.69715e-06
2.27474e-06
5.48455e-07
1.95721e-05
2.88283e-05
2.86325e-05
3.04349e-06
1.32519e-05
2.20904e-05
2.18569e-05
1.17812e-07
9.84422e-08
7.04343e-08
2.9333e-09
7.86663e-06
1.59215e-05
6.43857e-06
3.86492e-06
1.47346e-05
1.84876e-05
1.10901e-05
5.29264e-07
4.238e-06
2.87898e-05
2.72195e-05
3.45134e-06
1.98206e-05
2.19999e-05
2.19436e-05
4.2604e-09
3.00586e-09
3.55513e-09
3.04459e-09
8.4156e-06
2.65109e-05
2.76473e-05
2.77921e-05
2.77249e-05
2.01133e-05
2.81316e-06
1.29064e-07
1.34074e-07
2.03281e-05
2.66844e-05
2.96746e-06
1.66636e-05
1.85026e-05
8.06852e-06
3.68073e-09
2.9951e-09
1.73976e-06
9.61228e-06
1.52164e-05
1.55613e-05
1.81101e-05
1.85448e-05
1.33159e-05
3.93554e-06
1.22121e-07
1.24684e-07
1.29064e-07
2.05646e-05
1.5597e-05
2.35298e-06
1.12047e-05
7.33636e-06
4.7176e-06
7.01808e-09
4.54889e-09
4.54628e-09
8.35795e-08
7.01867e-07
3.5205e-07
5.20922e-07
3.33049e-07
3.00237e-08
3.0375e-08
1.13714e-07
1.42358e-07
7.62078e-07
4.09708e-06
8.87966e-07
2.91449e-06
1.4922e-05
5.65244e-06
7.35434e-06
3.82356e-09
4.76646e-09
1.16877e-08
2.59301e-08
3.59875e-08
2.99762e-08
5.25401e-08
3.90904e-08
2.84778e-08
4.11403e-08
8.44211e-08
1.35911e-07
4.66454e-07
2.75089e-09
2.67867e-09
2.14492e-06
1.49002e-05
6.33693e-06
1.57219e-05
1.20281e-09
1.26785e-09
1.62524e-09
1.47224e-09
2.13789e-09
4.00877e-09
7.00792e-09
8.60792e-09
1.07777e-08
1.6664e-08
3.44829e-08
4.8167e-08
1.04298e-07
2.0995e-08
2.84427e-09
8.52496e-08
2.47773e-06
9.23101e-06
1.51321e-05
3.86051e-10
4.26316e-10
5.41736e-10
7.34178e-10
1.23313e-09
2.23175e-09
3.42172e-09
4.64441e-09
5.78823e-09
7.90687e-09
1.6348e-08
2.84105e-08
2.65958e-08
1.30644e-08
3.31598e-09
2.25896e-09
2.38814e-07
5.08677e-06
1.16128e-05
1.62122e-10
2.31042e-10
3.20378e-10
4.56213e-10
6.82754e-10
1.02834e-09
1.55036e-09
2.30175e-09
3.39309e-09
6.01387e-09
1.2755e-08
1.84862e-08
2.2826e-08
9.0041e-09
2.28089e-09
2.23206e-09
2.27779e-07
1.43102e-06
9.87953e-08
8.56582e-11
1.27602e-10
1.86426e-10
2.66176e-10
3.91542e-10
5.67456e-10
9.05546e-10
1.51952e-09
2.61101e-09
4.45564e-09
8.74043e-09
1.28124e-08
1.98942e-08
1.34948e-08
3.11093e-09
2.26258e-09
2.88215e-07
9.72255e-07
1.10843e-07
4.12987e-11
6.60168e-11
1.01298e-10
1.53296e-10
2.33588e-10
3.67311e-10
6.03205e-10
1.01943e-09
1.76544e-09
3.04345e-09
5.91462e-09
1.15835e-08
1.79087e-08
2.16332e-08
1.8812e-08
1.4054e-07
3.76027e-07
1.77388e-07
5.82356e-08
1.9803e-11
3.13702e-11
4.92934e-11
7.73385e-11
1.21771e-10
1.97606e-10
3.3699e-10
5.88735e-10
1.04222e-09
1.83457e-09
3.36628e-09
7.37555e-09
1.23371e-08
2.39679e-08
3.67863e-08
1.23483e-07
1.69825e-07
7.28081e-08
5.85348e-08
8.22036e-12
1.33133e-11
2.10535e-11
3.36924e-11
5.46862e-11
9.13568e-11
1.61089e-10
2.91648e-10
5.25873e-10
9.32781e-10
1.62345e-09
2.97905e-09
5.25359e-09
8.90753e-09
2.58059e-08
5.2926e-08
6.0222e-09
6.35752e-09
4.67958e-07
3.33062e-12
5.31657e-12
8.47113e-12
1.34474e-11
2.16539e-11
3.68038e-11
6.70446e-11
1.26372e-10
2.3772e-10
4.43993e-10
7.6843e-10
1.29612e-09
2.3531e-09
2.49294e-09
9.70545e-09
6.50747e-09
4.19263e-09
5.23104e-09
5.57272e-07
1.22782e-12
1.98846e-12
3.14275e-12
4.95511e-12
8.06897e-12
1.37454e-11
2.45059e-11
4.89728e-11
1.02882e-10
2.08068e-10
3.71985e-10
5.68073e-10
8.01664e-10
5.92184e-10
1.62795e-09
4.27153e-09
4.13119e-09
4.26533e-09
4.62228e-07
4.04287e-13
7.00731e-13
1.08469e-12
1.6617e-12
2.59104e-12
4.36174e-12
7.89201e-12
1.43398e-11
2.3437e-11
3.72576e-11
8.25871e-11
1.85855e-10
2.46013e-10
1.56287e-10
1.55419e-10
1.66129e-09
4.10354e-09
1.43959e-08
8.35923e-08
1.48335e-13
2.32175e-13
3.36295e-13
4.95585e-13
7.59706e-13
1.19135e-12
1.90887e-12
2.91115e-12
3.73216e-12
4.10275e-12
1.09483e-11
3.53712e-11
8.2923e-11
6.01418e-11
1.69407e-10
7.09635e-10
4.62184e-09
2.04973e-08
9.43306e-10
4.29727e-14
6.65749e-14
9.85518e-14
1.42343e-13
2.04464e-13
3.01358e-13
4.42241e-13
6.20427e-13
7.42912e-13
6.74599e-13
1.31798e-12
5.33849e-12
1.8632e-11
3.51213e-11
1.08884e-10
5.52507e-10
2.95492e-09
1.50784e-08
9.43001e-10
1.30371e-14
2.0267e-14
2.85802e-14
3.89428e-14
5.27378e-14
7.23524e-14
1.00457e-13
1.35076e-13
1.63495e-13
1.77599e-13
2.70189e-13
1.074e-12
4.94771e-12
1.58769e-11
2.89763e-11
2.39966e-10
8.89805e-10
2.0522e-09
9.42566e-10
3.69816e-15
5.55041e-15
7.72628e-15
1.01987e-14
1.32852e-14
1.75951e-14
2.383e-14
3.17255e-14
3.97331e-14
4.81783e-14
7.69819e-14
2.72605e-13
1.27537e-12
5.24293e-12
1.02126e-11
3.20771e-11
2.46205e-10
3.72679e-10
6.23963e-10
9.22802e-16
1.43894e-15
1.99067e-15
2.59559e-15
3.34575e-15
4.45275e-15
6.19782e-15
8.75969e-15
1.20903e-14
1.6873e-14
2.83211e-14
7.15225e-14
2.92664e-13
1.18851e-12
4.0464e-12
6.78367e-12
2.483e-11
9.32018e-11
2.74939e-10
2.20853e-16
3.45563e-16
4.83054e-16
6.36965e-16
8.46623e-16
1.18962e-15
1.8048e-15
3.00053e-15
5.24861e-15
9.33384e-15
1.73974e-14
3.85864e-14
1.05704e-13
3.51188e-13
1.04886e-12
2.59039e-12
5.58921e-12
3.09911e-11
6.34672e-11
4.72546e-17
7.67343e-17
1.09489e-16
1.49528e-16
2.08858e-16
3.25244e-16
5.95554e-16
1.22983e-15
2.67511e-15
5.81802e-15
1.23494e-14
2.58901e-14
6.11432e-14
1.73949e-13
4.92653e-13
9.24735e-13
2.12866e-12
5.38814e-12
7.45223e-12
9.42212e-18
1.50782e-17
2.227e-17
3.24652e-17
4.9466e-17
8.87721e-17
1.976e-16
5.06407e-16
1.34199e-15
3.4489e-15
8.1426e-15
1.77973e-14
3.91411e-14
9.31336e-14
2.67366e-13
5.49734e-13
7.08584e-13
7.90435e-13
1.48362e-12
1.66612e-18
2.70251e-18
4.15083e-18
6.39148e-18
1.08208e-17
2.28138e-17
6.22886e-17
1.95245e-16
6.16272e-16
1.79197e-15
4.74952e-15
1.14873e-14
2.57977e-14
5.70081e-14
1.3869e-13
3.20799e-13
4.86939e-13
4.65675e-13
4.18989e-13
2.46849e-19
4.17249e-19
6.6284e-19
1.09487e-18
2.07719e-18
5.04123e-18
1.61892e-17
5.97296e-17
2.15492e-16
7.11919e-16
2.12013e-15
5.66511e-15
1.37876e-14
3.16169e-14
7.5237e-14
1.78744e-13
3.20714e-13
3.69859e-13
2.32451e-13
3.41051e-20
5.61149e-20
9.12157e-20
1.5881e-19
3.13304e-19
7.70714e-19
2.6673e-18
1.07582e-17
4.24263e-17
1.57293e-16
5.25453e-16
1.61959e-15
4.54693e-15
1.16669e-14
2.91612e-14
7.60401e-14
1.65679e-13
2.11234e-13
1.03327e-13
)
;

boundaryField
{
    leftWall
    {
        type            zeroGradient;
    }
    rightWall
    {
        type            zeroGradient;
    }
    lowerWall
    {
        type            zeroGradient;
    }
    atmosphere
    {
        type            inletOutlet;
        inletValue      uniform 0;
        value           nonuniform List<scalar> 
46
(
1.12207e-07
7.55817e-08
3.0647e-08
8.61549e-09
4.3226e-09
1.81987e-09
0
0
0
0
0
0
0
0
0
0
0
0
0
0
0
1.10224e-16
2.51967e-17
7.82484e-19
6.01223e-20
2.17895e-20
0
0
0
0
0
0
0
0
0
0
0
0
0
0
0
2.91612e-14
7.60401e-14
1.65679e-13
2.11234e-13
1.03327e-13
)
;
    }
    defaultFaces
    {
        type            empty;
    }
}


// ************************************************************************* //
