/*--------------------------------*- C++ -*----------------------------------*\
| =========                 |                                                 |
| \\      /  F ield         | OpenFOAM: The Open Source CFD Toolbox           |
|  \\    /   O peration     | Version:  2312                                  |
|   \\  /    A nd           | Website:  www.openfoam.com                      |
|    \\/     M anipulation  |                                                 |
\*---------------------------------------------------------------------------*/
FoamFile
{
    version     2.0;
    format      ascii;
    arch        "LSB;label=32;scalar=64";
    class       volScalarField;
    location    "3.5";
    object      alpha.water;
}
// * * * * * * * * * * * * * * * * * * * * * * * * * * * * * * * * * * * * * //

dimensions      [0 0 0 0 0 0 0];

internalField   nonuniform List<scalar> 
2268
(
3.7954e-07
2.37084e-07
5.55981e-08
1.04909e-08
2.06905e-09
4.30599e-10
2.22553e-10
1.33716e-10
8.78069e-11
6.01485e-11
4.71577e-11
4.27382e-11
4.22819e-11
4.61926e-11
5.48477e-11
6.89827e-11
9.52227e-11
1.45511e-10
2.04307e-10
3.68126e-10
7.08466e-10
1.16477e-09
1.36994e-09
3.7954e-07
2.64648e-07
6.4913e-08
1.10701e-08
1.21231e-09
3.24191e-10
2.45825e-10
1.77331e-10
1.20434e-10
9.43413e-11
7.91037e-11
6.66865e-11
6.33071e-11
6.66529e-11
8.27527e-11
1.10319e-10
1.45455e-10
2.19562e-10
3.76199e-10
6.75766e-10
1.19186e-09
1.98229e-09
1.72685e-09
1.12405e-07
3.17918e-08
1.82273e-08
3.12756e-09
1.75906e-10
1.34669e-10
1.8675e-10
2.03388e-10
2.03812e-10
1.86801e-10
1.8563e-10
1.42528e-10
1.2974e-10
1.28959e-10
1.30756e-10
1.78512e-10
2.53892e-10
2.78599e-10
3.81941e-10
6.56315e-10
1.48682e-09
2.44943e-09
1.66883e-09
8.00444e-08
6.25286e-08
7.43652e-08
2.932e-08
3.13986e-08
3.7833e-10
4.27431e-11
6.99516e-11
9.46143e-11
4.7334e-10
4.05106e-10
2.7804e-10
2.22208e-10
1.41783e-10
1.09756e-10
1.2134e-10
1.49828e-10
1.47108e-10
1.49813e-10
2.37443e-10
6.20351e-10
1.04407e-09
5.61083e-10
0.0110124
0.00984393
0.00772692
0.00463158
0.00137763
-1.35546e-13
4.07008e-19
1.42787e-19
2.04771e-20
1.01086e-08
4.89423e-12
5.31713e-12
4.89099e-12
5.32653e-12
4.91153e-12
5.34877e-12
1.05759e-11
8.88964e-12
1.2521e-17
1.13408e-20
6.5436e-21
3.42564e-21
6.5436e-21
0.581853
0.575674
0.559844
0.52967
0.477229
0.392674
0.29824
0.215797
0.144467
0.0886409
0.048082
0.0225116
0.00810175
0.00187025
0.000145071
1.17669e-08
1.41996e-17
3.38901e-18
1.09008e-09
0.00256456
0.0244247
0.0622025
0.0718891
0.99476
0.993156
0.993922
0.99634
0.998708
0.999615
0.979458
0.937705
0.882487
0.810804
0.718779
0.623027
0.541541
0.475084
0.411062
0.401887
0.416273
0.438524
0.424374
0.497317
0.597674
0.67269
0.678156
0.999562
0.999092
0.998884
0.999615
0.999616
0.999616
0.999615
0.9995
0.99908
0.993324
0.978851
0.969063
0.970655
0.97065
0.958997
0.88661
0.848537
0.852971
0.900125
0.973617
0.986227
0.978129
0.964288
0.0147294
0.015364
0.0140863
0.00666501
0.00706952
0.0147647
0.0177507
0.0177782
0.0164319
0.0154055
0.0135972
0.0125483
0.0118843
0.00878869
0.0066388
0.0045668
0.00451077
0.00614275
0.00659245
0.00966264
0.00715545
0.00666501
0.00662544
0.00658902
0.00655386
0.00648446
0.00643205
0.00579805
0.00357393
0.00288613
0.00284583
0.00286218
0.00286389
0.00289538
0.00293855
0.00298247
0.00305427
0.0033297
0.237003
0.0298637
0.0261411
0.0392467
0.0349277
0.0307337
0.0316743
0.0119427
0.002896
0.00289422
0.00289536
0.0687952
0.184757
0.18615
0.108465
0.0497576
0.00585165
0.0030313
0.00302464
0.501857
0.378305
0.448214
0.479261
0.467895
0.45464
0.52197
0.562026
0.336946
0.112415
0.214466
0.747735
0.884138
0.883071
0.808639
0.669323
0.376921
0.220689
0.138204
0.560175
0.634642
0.881922
0.900194
0.851126
0.826854
0.788954
0.861317
0.604703
0.390184
0.50206
0.901123
0.901276
0.901428
0.889642
0.898792
0.845598
0.502474
0.532379
0.678935
0.967871
0.967892
0.967926
0.967924
0.946825
0.925102
0.967793
0.705353
0.394935
0.639398
0.901277
0.901485
0.901622
0.900334
0.900819
0.900727
0.830608
0.883907
0.594831
0.967846
0.967872
0.967833
0.967778
0.96779
0.96779
0.967786
0.81774
0.421361
0.607194
0.883664
0.901245
0.861741
0.900531
0.900675
0.900573
0.900454
0.900342
0.593071
0.967803
0.967838
0.957918
0.94781
0.955002
0.967789
0.967618
0.880837
0.568655
0.587749
0.639278
0.808591
0.853446
0.88129
0.898147
0.894738
0.900342
0.898991
0.999566
0.999568
0.999599
0.999599
0.999596
0.999614
0.999614
0.999613
0.997657
0.959988
0.950097
0.956885
0.97065
0.937887
0.839902
0.839438
0.839711
0.906449
0.987788
0.991298
0.991297
0.989415
0.951449
0.99947
0.99911
0.998161
0.998288
0.999472
0.999613
0.999613
0.999613
0.999612
0.98627
0.949989
0.950059
0.951018
0.981788
0.961573
0.959485
0.985817
0.989539
0.991216
0.990734
0.97216
0.862354
0.622939
0.999216
0.998819
0.995116
0.998434
0.999336
0.999613
0.999613
0.999612
0.999605
0.999139
0.982541
0.965719
0.975782
0.986064
0.985317
0.984588
0.979213
0.969602
0.753263
0.382828
0.250779
0.342789
0.550294
0.836865
0.809867
0.897823
0.966448
0.986811
0.98167
0.980451
0.963502
0.963282
0.993535
0.993313
0.993299
0.990117
0.976442
0.951102
0.896678
0.59593
0.291476
0.0743554
7.89465e-11
-5.30664e-07
5.67867e-08
1.0306e-07
0.25072
0.359961
0.485917
0.664874
0.799344
0.881971
0.924199
0.926448
0.925318
0.955686
0.975019
0.957499
0.907867
0.859461
0.60455
0.130831
0.00751059
-1.79058e-08
-1.26586e-07
0.000101016
0.00064247
0.00117152
0.00144777
0.000645806
0.00212662
0.0250949
0.0697092
0.182833
0.274588
0.294363
0.324073
0.440719
0.524974
0.524099
0.489663
0.312804
0.0587524
1.44363e-06
1.43027e-06
0.000729088
6.18984e-06
0.000153128
0.000586514
0.000956467
0.00403929
0.0157037
0.000642417
0.000491596
-6.83143e-09
1.94721e-20
2.45798e-19
-2.84346e-08
1.79673e-19
-6.72545e-07
0.000860061
2.07725e-06
1.42731e-06
1.59614e-06
1.42731e-06
1.44536e-06
1.42995e-06
4.24471e-06
4.05488e-05
0.00031347
0.00103413
0.0022189
0.00481229
0.0165351
0.020165
0.000344393
0.0001652
2.17333e-06
-3.09069e-14
2.41136e-23
2.30864e-05
7.43166e-05
0.00011084
0.000442265
0.00142375
0.00174816
0.00136203
0.00155512
0.00414165
0.00570106
0.00544109
0.00335864
0.0036421
0.00530437
0.00726503
0.00938814
0.0102396
0.0115996
0.000133698
0.000134556
0.000154082
0.00014021
5.48257e-05
2.3311e-05
0.000104081
0.00433704
0.00730321
0.00731909
0.00569219
0.00361161
0.0130832
0.0155764
0.015447
0.0111906
0.00472764
0.00309599
0.00288871
0.00168062
1.70457e-06
6.07973e-09
4.74279e-09
0.000134847
0.000134984
0.000134845
0.000120123
7.47924e-05
0.000137435
7.84574e-05
0.00195543
0.0034187
0.00122622
0.000670389
0.00851522
0.0118851
0.00762009
0.000155765
7.40598e-10
8.093e-10
9.05719e-09
7.41788e-10
5.28327e-10
4.31516e-08
1.12835e-06
1.619e-08
0.00109377
0.00413545
0.000218539
0.000122706
0.00103182
0.00119081
0.000341777
0.000197559
4.48036e-05
2.06904e-06
3.0648e-06
0.000306283
3.7354e-07
4.85569e-07
2.16842e-07
2.3166e-07
1.49153e-07
4.99694e-08
7.46527e-07
4.64972e-06
9.68252e-06
9.41236e-06
1.16155e-08
0.0119257
0.027131
0.0285934
0.0287704
0.0267336
0.0033548
-1.99496e-07
1.6828e-05
1.67323e-06
9.79647e-07
2.15328e-06
4.62702e-07
3.17131e-07
1.71609e-06
1.81565e-06
1.63958e-06
1.63948e-06
1.16833e-06
6.92828e-07
6.61903e-07
3.5864e-06
1.23182e-05
9.00785e-06
0.00953446
0.0135726
0.0259464
0.0221272
0.00689127
0.000163505
5.1062e-08
-3.52932e-23
1.63554e-07
9.06495e-07
1.14852e-06
5.23721e-07
2.21995e-07
2.20224e-07
6.15598e-07
1.8142e-06
2.51952e-06
2.50454e-06
3.30963e-06
1.01123e-05
9.67207e-06
1.49312e-06
1.80935e-07
0.000607476
1.30648e-07
1.30842e-07
3.18714e-07
9.71562e-07
5.1192e-08
4.54147e-08
1.03701e-07
5.72017e-07
9.68489e-07
8.09359e-07
7.8462e-07
6.65005e-07
2.21732e-07
2.20854e-07
2.2169e-07
3.68468e-07
5.80656e-06
2.31503e-05
2.87259e-05
2.09994e-05
1.54188e-06
2.02861e-07
1.157e-07
2.35853e-07
2.37838e-07
1.33864e-07
1.34043e-07
2.40985e-07
9.06042e-08
4.46284e-07
6.26599e-07
4.22354e-07
1.46573e-07
1.45366e-07
1.79564e-07
3.75644e-07
2.23862e-06
3.21518e-06
1.47402e-05
3.08401e-05
3.03869e-05
2.85685e-05
8.80203e-06
9.47746e-11
2.10426e-07
1.12118e-07
9.73593e-07
1.79469e-06
1.22999e-06
4.54972e-07
4.35363e-07
2.67109e-07
1.99562e-07
1.75666e-07
1.67128e-07
5.87452e-06
1.66168e-05
1.6992e-05
1.74616e-05
2.42281e-05
3.96762e-05
3.97104e-05
1.87349e-05
1.90723e-06
1.86252e-21
2.3924e-21
1.00527e-10
1.20062e-11
1.11988e-07
3.42097e-07
9.05988e-07
6.35647e-07
2.92008e-07
2.22319e-07
1.44509e-07
4.24576e-08
4.25137e-08
1.5889e-05
1.88627e-05
1.63097e-05
6.91067e-06
1.77703e-05
2.14808e-05
9.74761e-06
8.26963e-10
8.05348e-10
8.26963e-10
9.78319e-10
8.39912e-10
6.22376e-10
5.51559e-11
1.68368e-08
4.85977e-09
3.42485e-09
1.68735e-08
3.32479e-08
1.15196e-07
5.44802e-08
4.18411e-08
4.72208e-06
8.88555e-06
5.7582e-06
8.06155e-07
2.79844e-07
5.93124e-07
1.91175e-09
1.89828e-09
1.93585e-09
2.18406e-09
1.96664e-09
1.65035e-09
1.22662e-09
7.97817e-10
1.92997e-10
1.08291e-08
6.72095e-09
3.38978e-09
3.05021e-09
2.60658e-09
1.33165e-08
4.96098e-08
4.33547e-07
1.1828e-06
9.09295e-08
4.11574e-08
7.2289e-09
1.69338e-08
7.73982e-09
3.28672e-09
2.71125e-09
2.86271e-09
2.6787e-09
2.17888e-09
1.51293e-09
1.02616e-09
7.04508e-10
5.77686e-10
1.09373e-08
5.85318e-09
3.57496e-09
2.81663e-09
2.56052e-09
6.50495e-09
5.30166e-08
1.94536e-07
4.88425e-09
2.92478e-09
3.67593e-09
2.26956e-09
2.34023e-09
1.7425e-09
1.45735e-09
1.31115e-09
1.30762e-09
1.27146e-09
1.15371e-09
9.39486e-10
6.66798e-10
4.70198e-10
4.51629e-10
1.23757e-08
4.78725e-09
2.94418e-09
2.265e-09
2.48709e-09
4.48482e-09
2.20946e-08
9.62397e-09
1.83507e-09
1.32923e-09
1.20606e-09
1.0924e-09
9.35463e-10
7.54647e-10
6.45632e-10
6.03453e-10
6.1684e-10
6.42398e-10
6.13432e-10
5.31582e-10
3.61139e-10
2.41651e-10
2.96235e-10
1.29389e-08
3.72844e-09
2.16254e-09
1.46165e-09
1.57311e-09
2.2555e-09
4.70706e-09
1.36232e-09
8.77072e-10
6.30567e-10
5.16126e-10
4.3841e-10
3.52186e-10
3.03242e-10
2.81363e-10
2.80089e-10
2.99151e-10
2.95857e-10
2.81254e-10
2.47463e-10
1.75728e-10
1.41938e-10
1.59766e-10
1.68188e-08
2.54338e-09
1.56556e-09
8.35907e-10
7.54874e-10
9.13172e-10
9.33809e-10
4.6771e-10
3.25128e-10
2.40053e-10
1.92205e-10
1.53991e-10
1.30565e-10
1.18737e-10
1.14469e-10
1.16252e-10
1.21194e-10
1.21576e-10
1.17322e-10
1.06181e-10
8.5268e-11
7.12264e-11
9.03386e-11
3.06198e-08
1.80355e-09
1.111e-09
5.09309e-10
3.45788e-10
3.1745e-10
2.34625e-10
1.58206e-10
1.15231e-10
8.86691e-11
6.91127e-11
5.51791e-11
4.76504e-11
4.3548e-11
4.18963e-11
4.21818e-11
4.29581e-11
4.2666e-11
4.17612e-11
3.94732e-11
3.52246e-11
3.6428e-11
4.64769e-11
4.64215e-08
9.39982e-10
7.50845e-10
3.8017e-10
2.12406e-10
1.6165e-10
1.20054e-10
9.19574e-11
6.90084e-11
5.07152e-11
3.68401e-11
2.70327e-11
2.07465e-11
1.65886e-11
1.45557e-11
1.3767e-11
1.3552e-11
1.35811e-11
1.35734e-11
1.38243e-11
1.46322e-11
1.61481e-11
2.31952e-11
4.75896e-08
8.44949e-10
5.3683e-10
2.97985e-10
2.02079e-10
1.62828e-10
1.3826e-10
1.13269e-10
8.53089e-11
6.20954e-11
4.55755e-11
3.14145e-11
1.97705e-11
1.19416e-11
7.39327e-12
5.16777e-12
4.17814e-12
3.92823e-12
4.03775e-12
4.5708e-12
5.061e-12
7.04354e-12
1.02513e-11
5.60106e-08
7.64812e-10
2.83003e-10
2.74843e-10
2.31345e-10
2.20962e-10
2.0524e-10
1.73387e-10
1.30528e-10
1.01649e-10
7.79486e-11
5.22259e-11
3.16158e-11
1.7137e-11
8.32724e-12
3.75755e-12
1.88622e-12
1.2076e-12
1.13727e-12
1.40355e-12
1.92886e-12
2.59579e-12
4.76169e-12
6.31776e-08
1.97483e-09
2.27014e-10
3.13489e-10
3.26754e-10
3.25286e-10
3.04622e-10
2.59196e-10
1.86172e-10
1.58416e-10
1.24494e-10
8.65158e-11
5.29057e-11
2.77837e-11
1.291e-11
5.19277e-12
1.87365e-12
6.83986e-13
3.68669e-13
4.14829e-13
5.57534e-13
1.00373e-12
1.78154e-12
8.45406e-08
4.31111e-09
2.07338e-10
3.58997e-10
4.08123e-10
4.16406e-10
4.14887e-10
3.74621e-10
2.46628e-10
2.17383e-10
1.76914e-10
1.26323e-10
7.93979e-11
4.34765e-11
2.04157e-11
8.24893e-12
2.78997e-12
8.41084e-13
2.27761e-13
1.27807e-13
1.82786e-13
3.24316e-13
6.61756e-13
9.44545e-08
8.73447e-09
2.0078e-10
3.32427e-10
3.32879e-10
3.12004e-10
3.57611e-10
4.83725e-10
3.35025e-10
2.72751e-10
2.27456e-10
1.67022e-10
1.0806e-10
6.0442e-11
2.93344e-11
1.22543e-11
4.21996e-12
1.22308e-12
2.97278e-13
6.71469e-14
4.95151e-14
1.09008e-13
2.247e-13
1.15785e-07
1.18186e-08
2.00778e-10
2.62111e-10
2.44316e-10
2.46435e-10
3.28058e-09
2.47373e-09
8.97791e-10
3.86185e-10
2.73648e-10
2.01742e-10
1.34014e-10
7.67316e-11
3.87673e-11
1.68976e-11
6.13006e-12
1.82203e-12
4.43261e-13
7.28464e-14
1.96289e-14
2.97209e-14
7.45518e-14
1.26549e-07
1.53806e-08
2.00798e-10
6.70497e-10
7.29184e-10
2.81507e-08
2.30035e-08
2.78118e-08
4.67768e-09
8.33006e-10
3.28662e-10
2.23108e-10
1.50783e-10
8.79566e-11
4.59768e-11
2.11651e-11
8.12584e-12
2.50981e-12
6.27107e-13
1.09451e-13
1.40982e-14
8.4832e-15
2.15665e-14
1.49574e-07
2.39327e-08
2.13e-10
7.54647e-09
1.35778e-07
2.04502e-07
5.00167e-07
1.78713e-07
2.33463e-08
2.8723e-09
4.79579e-10
2.33776e-10
1.53683e-10
9.0285e-11
4.75979e-11
2.29436e-11
9.50657e-12
3.18857e-12
8.2886e-13
1.6887e-13
1.90401e-14
2.72282e-15
5.68744e-15
1.62385e-07
4.4041e-08
2.00781e-10
5.92736e-10
1.96084e-07
5.62473e-07
1.41901e-06
1.0701e-06
6.3091e-08
7.07028e-09
8.42424e-10
2.46489e-10
1.43212e-10
8.22763e-11
4.34905e-11
2.14136e-11
9.58109e-12
3.51395e-12
1.00458e-12
2.15212e-13
3.0692e-14
1.64233e-15
1.45465e-15
1.73142e-07
8.57986e-08
2.00779e-10
2.64168e-09
7.75838e-08
5.29458e-07
1.41882e-06
1.41901e-06
9.78089e-08
9.76253e-09
1.14322e-09
2.50634e-10
1.22264e-10
6.8326e-11
3.54603e-11
1.74732e-11
8.15544e-12
3.30413e-12
1.02872e-12
2.35243e-13
3.88276e-14
1.91972e-15
3.6028e-16
1.7345e-07
1.52553e-07
2.66619e-08
1.46687e-09
2.90058e-09
1.85761e-07
1.35765e-06
5.20636e-07
4.49906e-08
6.19789e-09
1.13841e-09
2.1079e-10
9.38684e-11
5.07431e-11
2.4846e-11
1.19487e-11
5.73351e-12
2.53063e-12
8.97841e-13
2.26279e-13
3.95681e-14
2.75176e-15
1.451e-16
1.65283e-07
1.69348e-07
8.40792e-08
4.96852e-09
1.46485e-09
3.38201e-08
5.37751e-07
1.40689e-07
2.30222e-08
3.84174e-09
7.67617e-10
1.38706e-10
6.18279e-11
3.2403e-11
1.49344e-11
6.75052e-12
3.22757e-12
1.51132e-12
6.05052e-13
1.74926e-13
3.41232e-14
3.05105e-15
1.01132e-16
9.67738e-08
1.69466e-07
7.49808e-08
9.78143e-09
1.42319e-09
3.12191e-08
2.12362e-10
2.12925e-10
1.88953e-09
1.57549e-09
3.45466e-10
7.06296e-11
3.54305e-11
1.78374e-11
7.49617e-12
3.06847e-12
1.38246e-12
6.61781e-13
2.94524e-13
1.01984e-13
2.23438e-14
2.9124e-15
1.06916e-16
4.28698e-08
1.18665e-07
3.81148e-08
9.03119e-09
1.4217e-09
3.30227e-09
1.11693e-09
3.07336e-10
1.38736e-10
1.01375e-10
4.74033e-11
2.7081e-11
1.71654e-11
8.3424e-12
3.21261e-12
1.14155e-12
4.37084e-13
1.91888e-13
9.56012e-14
4.24625e-14
1.20517e-14
1.63547e-15
9.9571e-17
9.96371e-09
2.44045e-08
1.83337e-08
4.70395e-09
2.55061e-09
3.10756e-09
2.11758e-09
8.50029e-10
2.69256e-10
7.61614e-11
2.04087e-11
1.05552e-11
6.71841e-12
3.19798e-12
1.15948e-12
3.42295e-13
1.02237e-13
3.67694e-14
1.82918e-14
1.20171e-14
4.09141e-15
7.8812e-16
7.68714e-17
7.15802e-09
8.081e-09
1.07839e-08
7.34744e-09
5.69253e-09
3.69108e-09
1.63065e-09
4.53612e-10
9.34132e-11
1.71181e-11
4.29025e-12
2.73338e-12
1.84982e-12
8.90283e-13
2.98336e-13
7.43023e-14
1.58312e-14
3.89437e-15
2.07151e-15
2.11664e-15
1.04989e-15
3.28016e-16
4.94527e-17
1.04363e-07
7.09468e-08
3.0184e-08
8.59832e-09
4.31616e-09
1.85517e-09
4.75602e-10
6.14084e-11
5.05426e-12
3.12073e-13
3.59646e-13
3.74813e-13
2.77103e-13
1.3493e-13
4.32562e-14
9.09092e-15
1.37083e-15
2.18946e-16
1.37408e-16
2.43591e-16
2.44443e-16
1.10585e-16
2.50767e-17
0.8888
0.503055
0.495806
0.555773
0.495294
0.492906
0.520747
0.560415
0.556928
0.552067
0.520425
0.540629
3.04779e-06
8.14842e-14
5.3053e-13
1.76419e-16
0.000683562
4.9328e-06
6.40259e-06
3.94358e-21
0.0131023
0.00990191
0.010397
0.00882845
0.0201022
0.020165
0.0201022
0.020165
0.0123776
0.00968518
0.00864113
0.0135946
1.80647e-05
2.0577e-07
8.01423e-09
2.16191e-08
4.08815e-07
4.16963e-07
4.6929e-07
4.70027e-07
9.48443e-08
3.7726e-07
3.70262e-07
3.64316e-07
5.04487e-07
1.21097e-06
1.59468e-06
1.36169e-06
1.01432e-07
8.13194e-08
3.43477e-08
7.04686e-07
1.92457e-07
1.769e-07
3.43309e-08
5.66943e-07
2.9476e-07
2.85238e-07
1.11071e-07
2.30392e-08
2.38772e-10
9.631e-10
9.47557e-09
9.87345e-09
2.27756e-09
7.02388e-09
5.70897e-08
7.39488e-08
4.57412e-09
4.47065e-09
3.74898e-08
7.90997e-08
6.03412e-10
8.17254e-10
2.40752e-09
2.53588e-09
5.75991e-10
1.04597e-09
3.00522e-09
5.72741e-09
4.90294e-10
9.40783e-10
1.81206e-09
3.26022e-09
2.38556e-10
3.24416e-10
5.92434e-10
9.36288e-10
1.21514e-10
1.6712e-10
2.52983e-10
3.15639e-10
6.37087e-11
7.73585e-11
1.10025e-10
1.40072e-10
3.30089e-11
4.03864e-11
5.36999e-11
6.79302e-11
1.59345e-11
1.95793e-11
2.61871e-11
3.35877e-11
6.85634e-12
8.68404e-12
1.18988e-11
1.50633e-11
2.9341e-12
3.67411e-12
4.84069e-12
6.1302e-12
1.06138e-12
1.40899e-12
1.92851e-12
2.55539e-12
4.09833e-13
5.32936e-13
7.16092e-13
9.03402e-13
1.34375e-13
1.77764e-13
2.49906e-13
3.24518e-13
4.35957e-14
6.0769e-14
8.2082e-14
1.06567e-13
1.16467e-14
1.77153e-14
2.53364e-14
3.36269e-14
3.59823e-15
4.92397e-15
7.23333e-15
1.00172e-14
7.36687e-16
1.18756e-15
1.89723e-15
2.5941e-15
1.87866e-16
3.01036e-16
4.67445e-16
7.12655e-16
3.57028e-17
6.69604e-17
1.1882e-16
1.64377e-16
8.58687e-18
1.32956e-17
2.26209e-17
3.65421e-17
1.89676e-18
2.28505e-18
4.23757e-18
6.43207e-18
8.75821e-19
4.23289e-19
6.31051e-19
1.19176e-18
7.88813e-19
1.23575e-19
1.13536e-19
1.87145e-19
7.6828e-19
5.95077e-20
2.19712e-20
2.67759e-20
0.845211
0.967787
0.858751
0.505486
0.48284
0.625378
0.800141
0.883708
0.698424
0.613216
0.510238
0.802237
0.816731
0.816278
0.44992
0.169021
0.0858536
0.161697
0.140904
0.781396
0.700627
0.237488
6.0249e-13
3.24338e-13
0.0264753
0.25152
0.43556
0.215575
0.180216
0.531693
0.719229
0.540289
0.11816
0.00114549
0.00116743
0.00105224
0.00103009
0.00121357
0.524063
0.168776
5.05239e-13
6.66025e-10
4.58699e-08
9.13401e-09
0.159043
0.363335
0.0814292
0.084347
0.09476
0.148949
0.0468422
0.000182441
0.00210162
0.00361477
0.00358695
0.0034746
0.00375909
-4.13093e-23
2.0029e-23
2.59458e-19
5.38866e-08
5.41003e-06
9.93879e-09
0.191089
0.44473
0.44485
0.433195
0.0916209
0.000176835
0.000177348
0.000177369
0.00148453
0.00238307
0.0060333
0.00596645
0.0059933
1.41148e-22
7.90621e-05
0.000276623
0.000504867
0.000430697
0.00149001
0.019009
0.0142569
0.11525
0.163584
0.106645
0.00017708
0.000177125
0.000188589
0.000328543
0.000118297
0.000794042
0.00352261
0.00503561
0.00227072
0.000505162
0.000811199
0.00110665
0.000823813
0.000721723
0.000926808
0.00039849
0.000384474
0.00209336
0.0188172
0.010714
0.00132606
0.00057636
0.000317367
0.000119479
0.000604008
0.000157892
0.00126343
0.0112287
0.00262228
0.00448103
0.00475759
0.00452806
0.00355463
0.00309754
0.00239127
0.00129374
0.00102017
0.0010858
0.00740367
0.00362792
0.000762764
0.00016168
0.000203444
0.0023377
0.00015741
5.98416e-06
0.0139403
0.00416207
0.00281564
0.00475765
0.00475766
0.00287788
0.00219051
0.00179834
0.00138101
0.00125316
0.00102514
0.000926731
0.00189941
0.00127625
0.0002738
0.00129598
0.00233058
0.000415261
5.99134e-06
0.000220922
0.000451492
0.000138651
0.00189128
0.00111547
9.44166e-05
3.87184e-05
4.43155e-05
0.000114617
0.000125435
7.24556e-05
5.19646e-05
0.000775595
0.00128904
0.00128239
0.000803739
0.000352023
0.000122138
4.00502e-05
4.45388e-07
4.45075e-07
4.45255e-07
4.45075e-07
4.46727e-07
4.46325e-07
4.56172e-05
9.82684e-05
7.23839e-05
2.32391e-05
2.3298e-05
3.9091e-05
0.000169841
0.000156476
6.14344e-05
8.80125e-07
8.53094e-07
8.79507e-07
6.41642e-06
5.3889e-06
1.49424e-05
1.16599e-05
5.43841e-07
4.46464e-07
1.60891e-06
7.48354e-05
9.82538e-05
9.64454e-05
9.61628e-05
3.75022e-05
1.97481e-05
1.92685e-05
8.03108e-06
8.53774e-06
1.35635e-05
2.28514e-05
8.76818e-07
4.11112e-08
1.40991e-06
3.37097e-06
2.75868e-05
3.25307e-05
3.16407e-05
2.82594e-05
1.82884e-05
7.53969e-06
7.24699e-06
8.64949e-06
1.71305e-05
3.04437e-05
2.96157e-05
1.50921e-05
1.43309e-05
3.14219e-05
3.66044e-05
4.31635e-06
3.6051e-08
3.57175e-06
1.27662e-05
1.64905e-05
1.72335e-05
1.72784e-05
2.38023e-05
2.29983e-05
1.77023e-05
3.77466e-06
6.56796e-07
8.31168e-07
1.27301e-06
2.45047e-06
3.32478e-06
4.07046e-06
1.17863e-06
2.14641e-05
1.39084e-07
1.88553e-07
2.02289e-06
2.45639e-06
6.57604e-08
2.93339e-05
5.15402e-05
1.65543e-05
1.05083e-05
2.82808e-06
8.97291e-07
1.01454e-07
9.67179e-08
3.36033e-06
1.3623e-05
2.26834e-05
2.96783e-06
1.12476e-06
1.84841e-07
2.22245e-07
1.84969e-07
3.23249e-07
2.76586e-07
6.55955e-08
2.85193e-05
5.42513e-05
5.42122e-05
3.75794e-05
2.40124e-06
3.22918e-07
9.67851e-08
9.71705e-08
6.48335e-07
2.85508e-05
2.879e-05
1.92018e-05
2.63962e-06
4.00576e-06
1.42138e-05
4.73747e-06
1.37702e-07
1.57889e-07
6.41197e-08
1.76427e-06
4.67021e-05
5.148e-05
4.04573e-05
2.25883e-06
1.20052e-06
2.82678e-06
2.06188e-06
4.29377e-07
1.69101e-05
2.87919e-05
2.88012e-05
3.26513e-06
1.46872e-05
2.18931e-05
2.19482e-05
1.18806e-07
1.03499e-07
6.64671e-08
2.92823e-09
7.18954e-06
2.02911e-05
8.74585e-06
4.09647e-06
1.05391e-05
1.98033e-05
1.218e-05
4.17887e-07
2.31628e-06
2.79698e-05
2.79893e-05
3.76182e-06
2.06474e-05
2.19129e-05
2.18761e-05
4.7429e-09
3.05152e-09
5.37566e-09
2.98448e-09
4.80674e-06
2.49048e-05
2.72045e-05
2.72035e-05
2.71713e-05
2.37225e-05
4.46154e-06
1.21984e-07
1.22065e-07
1.74531e-05
2.762e-05
3.4549e-06
1.5949e-05
1.64894e-05
6.80905e-06
3.71417e-09
3.03373e-09
1.43828e-06
8.55842e-06
1.52134e-05
1.59398e-05
1.92263e-05
2.00012e-05
1.59049e-05
5.5552e-06
1.4041e-07
1.19078e-07
1.23483e-07
1.88461e-05
1.65488e-05
2.73488e-06
1.06964e-05
7.31759e-06
5.22068e-06
6.84868e-09
4.55841e-09
4.55606e-09
1.37788e-07
9.34347e-07
4.2949e-07
6.86356e-07
5.77686e-07
9.71249e-08
3.71785e-08
9.63549e-08
1.12403e-07
6.32202e-07
4.70245e-06
1.13897e-06
2.88144e-06
1.46052e-05
5.96237e-06
8.61162e-06
3.76239e-09
4.82555e-09
1.16792e-08
2.56731e-08
3.10977e-08
2.48057e-08
4.16173e-08
2.98998e-08
2.66479e-08
3.59677e-08
7.91722e-08
1.30391e-07
4.71359e-07
3.1803e-09
2.94186e-09
1.96298e-06
1.46226e-05
6.60451e-06
1.55829e-05
1.17701e-09
1.25469e-09
1.59604e-09
1.48189e-09
2.14372e-09
3.81378e-09
6.3227e-09
7.86352e-09
1.06011e-08
1.74427e-08
3.29315e-08
5.41449e-08
1.31873e-07
2.3276e-08
3.00124e-09
9.56411e-08
1.92372e-06
9.35243e-06
1.4437e-05
3.80482e-10
4.2463e-10
5.43052e-10
7.44207e-10
1.25374e-09
2.26776e-09
3.4947e-09
4.74338e-09
5.9399e-09
8.17855e-09
1.68719e-08
2.98848e-08
3.38225e-08
1.43504e-08
3.79065e-09
2.2247e-09
1.22202e-07
4.47293e-06
1.0004e-05
1.61685e-10
2.30945e-10
3.21488e-10
4.59453e-10
6.88448e-10
1.04123e-09
1.5796e-09
2.34869e-09
3.45162e-09
6.02108e-09
1.28572e-08
1.89753e-08
2.34185e-08
9.95826e-09
2.24016e-09
2.19187e-09
1.83069e-07
1.27631e-06
1.17777e-07
8.55185e-11
1.27694e-10
1.86875e-10
2.67607e-10
3.93897e-10
5.72668e-10
9.16862e-10
1.53635e-09
2.62656e-09
4.49403e-09
8.85053e-09
1.30182e-08
2.00608e-08
1.32447e-08
3.01489e-09
2.20693e-09
2.36023e-07
9.45493e-07
1.19667e-07
4.13519e-11
6.61331e-11
1.01618e-10
1.54048e-10
2.35193e-10
3.70399e-10
6.08442e-10
1.02953e-09
1.78048e-09
3.06715e-09
5.98318e-09
1.15774e-08
1.78687e-08
2.15378e-08
1.38644e-08
1.30423e-07
3.58911e-07
1.92213e-07
5.93571e-08
1.98134e-11
3.14321e-11
4.94564e-11
7.76903e-11
1.22537e-10
1.99194e-10
3.39793e-10
5.9356e-10
1.05211e-09
1.85168e-09
3.4107e-09
7.47422e-09
1.24861e-08
2.29682e-08
3.38435e-08
1.22693e-07
1.84507e-07
7.69661e-08
5.96457e-08
8.23571e-12
1.33429e-11
2.11304e-11
3.38522e-11
5.50135e-11
9.20622e-11
1.62396e-10
2.93799e-10
5.29723e-10
9.42033e-10
1.64524e-09
3.06085e-09
5.39694e-09
9.34545e-09
2.60124e-08
5.61874e-08
7.32131e-09
5.26834e-09
4.61478e-07
3.33617e-12
5.3304e-12
8.49736e-12
1.34999e-11
2.17803e-11
3.70933e-11
6.7595e-11
1.27331e-10
2.39399e-10
4.47321e-10
7.76954e-10
1.31917e-09
2.41038e-09
2.57995e-09
1.01745e-08
6.85216e-09
4.19708e-09
5.28366e-09
5.47186e-07
1.23075e-12
1.99364e-12
3.15153e-12
4.97396e-12
8.1088e-12
1.38279e-11
2.47318e-11
4.94408e-11
1.03753e-10
2.09201e-10
3.75045e-10
5.76163e-10
8.24277e-10
6.00649e-10
1.66194e-09
4.20132e-09
4.07993e-09
4.09296e-09
4.74085e-07
4.06613e-13
7.02314e-13
1.08657e-12
1.66492e-12
2.60133e-12
4.38581e-12
7.92734e-12
1.43479e-11
2.33426e-11
3.74996e-11
8.36162e-11
1.88996e-10
2.52422e-10
1.59764e-10
1.58919e-10
1.71396e-09
4.06062e-09
1.37316e-08
9.10622e-08
1.48704e-13
2.32264e-13
3.36528e-13
4.96239e-13
7.60561e-13
1.19235e-12
1.906e-12
2.89367e-12
3.67802e-12
4.14995e-12
1.11832e-11
3.60834e-11
8.50181e-11
6.08761e-11
1.73579e-10
7.12401e-10
4.65953e-09
2.01743e-08
9.43519e-10
4.287e-14
6.69239e-14
9.85894e-14
1.42241e-13
2.04249e-13
3.00675e-13
4.40353e-13
6.15413e-13
7.34259e-13
6.75617e-13
1.36111e-12
5.49756e-12
1.89297e-11
3.55849e-11
1.15326e-10
5.67595e-10
3.10025e-09
1.54547e-08
9.43082e-10
1.30829e-14
2.02787e-14
2.85481e-14
3.885e-14
5.25682e-14
7.20673e-14
9.9907e-14
1.33991e-13
1.61991e-13
1.77616e-13
2.79072e-13
1.08589e-12
5.06816e-12
1.61711e-11
3.08372e-11
2.58734e-10
9.48881e-10
2.54308e-09
9.43071e-10
3.72045e-15
5.55316e-15
7.71247e-15
1.01647e-14
1.32301e-14
1.75153e-14
2.36995e-14
3.151e-14
3.94753e-14
4.82637e-14
7.70405e-14
2.76965e-13
1.31331e-12
5.33393e-12
1.04399e-11
3.56798e-11
2.71963e-10
3.73959e-10
6.44184e-10
9.26412e-16
1.43957e-15
1.98659e-15
2.58619e-15
3.33222e-15
4.4362e-15
6.17605e-15
8.72992e-15
1.20742e-14
1.69749e-14
2.89248e-14
7.45466e-14
2.96323e-13
1.28249e-12
4.11886e-12
7.73771e-12
2.67064e-11
1.01536e-10
2.81698e-10
2.21713e-16
3.45762e-16
4.82112e-16
6.34953e-16
8.44045e-16
1.18762e-15
1.80707e-15
3.01287e-15
5.28325e-15
9.42991e-15
1.77052e-14
3.95611e-14
1.09328e-13
3.56277e-13
1.08458e-12
2.64934e-12
6.47443e-12
3.16457e-11
7.15217e-11
4.74586e-17
7.67825e-17
1.09304e-16
1.49134e-16
2.08582e-16
3.26073e-16
5.99775e-16
1.24303e-15
2.70991e-15
5.90103e-15
1.25381e-14
2.64101e-14
6.27346e-14
1.75807e-13
4.99818e-13
9.407e-13
2.19483e-12
6.29206e-12
7.79343e-12
9.45568e-18
1.50883e-17
2.22429e-17
3.24059e-17
4.94984e-17
8.93369e-17
2.00063e-16
5.14628e-16
1.36584e-15
3.50665e-15
8.27067e-15
1.8103e-14
3.99261e-14
9.57882e-14
2.71047e-13
5.59194e-13
7.25165e-13
8.18461e-13
1.64645e-12
1.67121e-18
2.70359e-18
4.14512e-18
6.38321e-18
1.08443e-17
2.30237e-17
6.32686e-17
1.98951e-16
6.2788e-16
1.82433e-15
4.83003e-15
1.16716e-14
2.62255e-14
5.8209e-14
1.41964e-13
3.26361e-13
4.8768e-13
4.75477e-13
4.25877e-13
2.47487e-19
4.17103e-19
6.61577e-19
1.09312e-18
2.08039e-18
5.08106e-18
1.64108e-17
6.06728e-17
2.18928e-16
7.2302e-16
2.15179e-15
5.74788e-15
1.39951e-14
3.22034e-14
7.68351e-14
1.82036e-13
3.26342e-13
3.71675e-13
2.34318e-13
3.41155e-20
5.59619e-20
9.07885e-20
1.57932e-19
3.11812e-19
7.69776e-19
2.67248e-18
1.07933e-17
4.26127e-17
1.58096e-16
5.28958e-16
1.63306e-15
4.59403e-15
1.18278e-14
2.98104e-14
7.79124e-14
1.67414e-13
2.13345e-13
1.04267e-13
)
;

boundaryField
{
    leftWall
    {
        type            zeroGradient;
    }
    rightWall
    {
        type            zeroGradient;
    }
    lowerWall
    {
        type            zeroGradient;
    }
    atmosphere
    {
        type            inletOutlet;
        inletValue      uniform 0;
        value           nonuniform List<scalar> 
46
(
1.04363e-07
7.09468e-08
3.0184e-08
8.59832e-09
4.31616e-09
1.85517e-09
0
0
0
0
0
0
0
0
0
0
0
0
0
0
0
1.10585e-16
2.50767e-17
7.6828e-19
5.95077e-20
2.19712e-20
0
0
0
0
0
0
0
0
0
0
0
0
0
0
1.18278e-14
2.98104e-14
7.79124e-14
1.67414e-13
2.13345e-13
1.04267e-13
)
;
    }
    defaultFaces
    {
        type            empty;
    }
}


// ************************************************************************* //
