/*--------------------------------*- C++ -*----------------------------------*\
| =========                 |                                                 |
| \\      /  F ield         | OpenFOAM: The Open Source CFD Toolbox           |
|  \\    /   O peration     | Version:  2312                                  |
|   \\  /    A nd           | Website:  www.openfoam.com                      |
|    \\/     M anipulation  |                                                 |
\*---------------------------------------------------------------------------*/
FoamFile
{
    version     2.0;
    format      ascii;
    arch        "LSB;label=32;scalar=64";
    class       volScalarField;
    location    "3.5";
    object      alpha.galistan;
}
// * * * * * * * * * * * * * * * * * * * * * * * * * * * * * * * * * * * * * //

dimensions      [0 0 0 0 0 0 0];

internalField   nonuniform List<scalar> 
2268
(
1
1
1
1
1
1
1
1
1
1
1
1
1
1
1
1
1
1
1
1
0.999985
0.999947
0.999947
1
1
1
1
1
1
1
1
1
1
1
1
1
1
1
1
1
1
1
1
0.999997
0.999972
0.999965
1
1
1
1
1
1
1
1
1
1
1
1
1
1
1
1
1
1
1
1
1
0.999999
0.999998
1
1
1
1
1
1
0.999999
1
1
1
1
1
1
1
1
1
1
1
1
1
1
1
1
0.985125
0.986222
0.989315
0.993917
0.998272
0.999912
0.999918
0.999937
0.999993
1
0.999993
0.999943
0.99993
0.999984
1
0.999996
0.999368
0.999668
0.999214
1
1
1
0.996825
0.409858
0.415761
0.431591
0.464641
0.521224
0.606967
0.701288
0.783695
0.855236
0.911108
0.951036
0.975944
0.990594
0.997847
0.999824
0.997792
0.995737
0.997089
0.999181
0.988166
0.961057
0.920538
0.913767
8.35601e-20
1.69852e-19
5.59742e-15
-1.82719e-24
-1.24919e-07
2.17265e-05
0.0200804
0.0617632
0.11696
0.187223
0.274911
0.370546
0.456217
0.524642
0.586056
0.595766
0.581371
0.556229
0.533129
0.455179
0.366743
0.30314
0.301837
2.01346e-15
1.16574e-11
5.74317e-07
1.23705e-05
2.40496e-05
0.00014069
1.86318e-05
1.21872e-05
1.21342e-05
1.22341e-05
1.21523e-05
1.22696e-05
0.00942383
0.023704
0.024795
0.043064
0.0675143
0.0634982
0.0138703
0.00426757
0.00372213
0.01128
0.0200042
0.957867
0.954693
0.954182
0.957308
0.956453
0.949421
0.949313
0.951265
0.953064
0.954095
0.954064
0.954052
0.954049
0.953439
0.953408
0.953245
0.953196
0.95279
0.952341
0.963315
0.963255
0.960966
0.960981
0.962022
0.962093
0.960513
0.9609
0.961686
0.961722
0.936647
0.896164
0.852646
0.813524
0.796867
0.815451
0.875404
0.934764
0.952379
0.725632
0.680382
0.647928
0.648134
0.694164
0.738672
0.766046
0.757787
0.724029
0.619726
0.56136
0.466647
0.342533
0.32386
0.378322
0.436679
0.486026
0.517469
0.577929
0.219007
0.148509
0.0757866
0.0489409
0.0594798
0.0874521
0.147385
0.209934
0.277333
0.308269
0.201346
0.025729
0.00495189
0.00381804
0.00390329
0.0319412
0.117947
0.253121
0.336422
0.0157312
2.03982e-21
-0.000104109
-0.000119687
-2.96337e-05
-1.12564e-06
-3.91614e-11
0.00479878
0.00750771
0.0114213
0.00223876
0.0119449
0.0213189
0.0213954
0.0190192
0.0141295
0.00233254
0.00233794
0.00769165
0.00165502
0.00489176
0.0123058
0.0135712
0.0134191
0.0123721
0.0111339
0.0122458
0.0152411
0.00254655
0.00223779
0.00351352
0.00405245
0.00615857
0.00861201
0.00540515
0.00188076
0.00182674
0.00183356
0.00169763
0.0121846
0.0121773
0.00651181
0.00394202
0.00739931
0.00814324
0.00270367
0.022197
0.00366668
0.00223702
0.00223641
0.00223923
0.00223811
0.00226943
0.00227742
0.00429092
0.00478496
0.00676557
0.00118417
0.00614999
0.00564706
0.00070792
0.000709521
0.00070792
0.000710328
0.000790763
0.0187472
0.00821665
0.00456495
0.00710713
0.00422813
0.00231647
0.00258322
0.00376669
0.00919618
0.00964219
0.009409
5.53197e-07
1.21673e-06
5.66508e-06
0.00011384
0.000120893
6.55851e-05
1.30373e-05
5.74265e-05
8.08658e-05
0.000538303
0.000738693
0.000780696
0.00167037
0.00409898
0.0147717
0.0163089
0.0158591
0.0068003
0.00492988
0.00530508
0.00380598
0.000958491
0.00135756
3.04181e-05
1.71133e-05
4.2401e-06
3.43213e-06
3.52953e-06
7.83156e-06
7.57286e-06
1.24161e-05
1.1057e-05
8.54459e-05
0.00105676
0.00127886
0.00128327
0.00254795
0.00524235
0.00428877
0.00071317
0.000496924
0.00124602
0.0012045
0.000761271
0.000761761
0.000903603
0.000311177
0.000216751
2.37912e-05
3.43218e-06
5.50254e-05
0.000315255
0.00034083
7.22557e-05
8.33988e-06
2.53822e-05
0.00186962
0.00305279
0.00287461
0.00116085
0.00137617
0.00222884
0.000708729
0.000497248
0.00226413
0.00341
0.00340398
0.0011635
0.000239479
0.00034209
0.000228672
0.00019564
0.00043141
0.00127171
0.00128878
0.000693593
8.27109e-06
8.28279e-06
0.000519545
0.00300418
0.00304776
0.0017693
0.00115894
0.00255616
0.00637447
0.00544379
0.000793488
0.000372796
0.00231942
0.00336614
0.00187545
0.000285759
0.000338701
0.000745635
0.00266782
0.00266731
0.00156572
1.06936e-05
0.000191679
0.000366588
0.00146838
0.00228472
0.00202164
0.000468001
0.000534568
0.00301997
0.00637447
0.00637908
0.00393445
1.79106e-06
3.81093e-05
0.000313782
0.000336917
3.77183e-06
3.18594e-05
0.000338307
0.00103901
0.00266795
0.00188606
0.000322993
4.08403e-06
3.75572e-05
0.000808855
0.00160051
0.00120993
1.95663e-06
1.83864e-06
0.000737488
0.00471435
0.0056989
0.00222638
0.000254435
1.79703e-06
2.17297e-06
2.72008e-06
3.47569e-06
1.47687e-05
8.02151e-05
0.000444412
0.001252
0.00105227
9.25485e-05
3.9978e-06
3.99884e-06
1.63557e-05
0.000192134
0.000241442
2.28471e-05
4.54528e-06
0.000151726
0.000180004
1.82669e-07
1.78068e-07
9.91035e-06
3.54523e-06
4.55484e-06
3.5285e-05
0.000164853
0.000533354
0.00119415
0.00158315
0.000566052
0.0012502
0.000235364
4.14403e-06
3.99922e-06
2.52493e-05
7.63614e-05
3.90324e-05
1.74057e-08
9.51608e-10
2.53829e-07
1.75372e-07
1.77212e-07
1.85114e-07
6.32235e-06
5.84794e-05
0.000183407
0.000359275
0.000569535
0.000977812
0.00161093
0.00212738
0.00215873
0.000235654
0.000309758
4.4869e-05
1.25783e-05
7.34646e-05
0.000113474
0.000122862
4.68392e-05
4.73766e-10
8.40187e-08
4.2096e-07
3.11757e-07
2.8397e-06
5.06317e-05
0.00017525
0.000390301
0.000579736
0.000600917
0.000613968
0.000591014
0.000290055
2.52349e-06
1.55062e-08
0.000116858
0.000113945
1.95636e-05
2.49178e-05
0.000116549
0.000122865
0.000123156
2.2073e-05
4.09286e-10
4.42178e-07
4.48707e-07
3.75464e-07
7.99992e-05
0.000208829
0.000200232
0.000104392
7.65233e-06
2.83777e-07
7.25784e-16
-1.39043e-15
6.41101e-24
4.0762e-18
1.41331e-08
0.00107464
0.00178244
7.24206e-05
2.38666e-05
6.50106e-05
0.00012316
0.000112974
1.39634e-05
3.60432e-10
2.83222e-08
2.46697e-07
1.55067e-06
8.76259e-07
7.57769e-07
1.28357e-07
3.96702e-08
2.59872e-18
-2.46235e-11
5.37039e-09
1.01524e-25
2.28883e-09
4.20178e-09
3.43719e-09
0.0023854
0.00238203
0.00202412
0.00149897
0.000238837
1.33686e-05
1.23951e-05
1.25369e-06
9.63771e-09
4.44404e-10
6.01339e-08
7.85064e-07
7.11326e-07
2.47241e-07
1.9571e-07
2.03904e-07
8.58598e-08
9.41372e-09
2.81767e-08
2.17254e-08
2.36548e-09
1.12376e-08
1.10207e-08
0.001451
0.00203172
0.00206156
0.00168911
0.000182781
-2.54109e-22
-1.95697e-10
-7.57934e-15
9.35365e-10
4.82645e-10
5.801e-09
4.31861e-08
5.04774e-08
1.23449e-08
5.8147e-09
3.44142e-09
3.34056e-09
3.30787e-09
7.72657e-09
7.96101e-08
2.58231e-07
1.0501e-07
2.71513e-08
0.000190981
4.11104e-09
1.94503e-09
2.1749e-07
2.65745e-06
7.26335e-09
6.88989e-09
1.46839e-08
5.42751e-09
1.39017e-09
3.09335e-09
3.70485e-09
2.64468e-09
3.79973e-08
8.8328e-08
4.08952e-08
5.88122e-09
3.30405e-09
1.59168e-07
1.06196e-06
1.19941e-06
8.80024e-07
1.82894e-07
1.59958e-09
1.52412e-09
2.04446e-09
4.46174e-09
3.48323e-08
6.1276e-08
6.41333e-08
1.72238e-08
2.52405e-09
1.30725e-09
1.3184e-09
1.3581e-09
5.36643e-07
7.12846e-07
7.12427e-07
2.10018e-07
5.18361e-09
4.06504e-07
1.1258e-06
3.12901e-06
3.15099e-06
1.58782e-06
2.34925e-08
1.62635e-09
1.755e-08
2.91218e-08
3.82182e-08
7.58961e-08
5.31593e-08
2.5277e-08
9.09458e-09
3.48534e-09
3.07478e-07
7.16489e-07
7.25817e-07
7.25903e-07
4.31875e-07
2.21061e-07
2.88719e-07
2.53284e-07
1.12673e-06
2.50364e-06
2.45844e-06
1.26345e-06
1.67981e-07
2.20302e-10
2.56708e-09
7.44537e-09
1.69375e-08
2.02928e-08
2.3952e-08
1.55659e-08
1.25547e-08
2.24428e-07
4.30231e-07
4.33754e-07
3.12687e-07
2.43435e-07
7.36497e-08
2.92853e-08
3.69338e-07
1.48321e-06
1.4819e-06
2.7683e-07
2.66209e-08
1.73343e-10
1.82389e-10
1.7299e-10
2.26307e-10
1.27978e-09
1.20505e-09
1.35671e-09
1.97615e-09
2.43417e-09
7.85299e-09
1.40173e-07
3.1387e-07
2.431e-07
6.00041e-08
1.96217e-08
3.19958e-09
3.19933e-09
7.79246e-08
3.75681e-07
2.37153e-07
4.10487e-08
3.83778e-09
9.37003e-10
1.1405e-09
1.01023e-09
8.08059e-10
3.75854e-10
1.24037e-09
9.85821e-10
1.54398e-09
2.16854e-09
7.66159e-09
2.59932e-08
7.5418e-08
6.71485e-08
9.18757e-09
4.17301e-09
4.13412e-09
3.19933e-09
8.46499e-09
3.68973e-08
1.78527e-08
6.78281e-10
6.80493e-10
6.81215e-10
9.3587e-10
8.71066e-10
7.17994e-10
5.28607e-10
4.71031e-10
1.24998e-09
8.55988e-10
1.69415e-09
3.18626e-09
7.41815e-09
1.21891e-08
4.86021e-09
7.07174e-09
5.09854e-09
5.92273e-09
5.97997e-09
4.55953e-09
5.21582e-09
3.18378e-09
1.59899e-09
1.14932e-09
8.60446e-10
6.80571e-10
5.35421e-10
4.36541e-10
3.50172e-10
2.80823e-10
3.00111e-10
1.26323e-09
6.62706e-10
1.40874e-09
2.19965e-09
3.37072e-09
3.88184e-09
3.2452e-09
3.72693e-09
4.74551e-09
4.7516e-09
4.1904e-09
3.21932e-09
2.47941e-09
1.75087e-09
1.204e-09
8.04843e-10
5.26744e-10
3.40389e-10
2.39796e-10
2.00783e-10
1.63499e-10
1.31148e-10
1.64101e-10
1.28054e-09
4.71431e-10
9.97872e-10
1.42768e-09
1.75693e-09
2.15781e-09
2.26528e-09
2.65907e-09
2.70014e-09
2.35917e-09
1.92697e-09
1.46539e-09
1.0578e-09
7.63932e-10
5.31599e-10
3.4837e-10
2.1679e-10
1.39985e-10
9.65139e-11
8.19024e-11
6.93165e-11
6.62017e-11
7.6064e-11
1.30918e-09
3.33642e-10
6.05468e-10
8.3179e-10
9.58644e-10
1.13146e-09
1.16264e-09
1.18529e-09
1.02776e-09
8.42809e-10
6.61007e-10
4.85099e-10
3.55559e-10
2.53837e-10
1.75134e-10
1.16775e-10
7.31304e-11
4.55225e-11
3.42831e-11
3.24299e-11
3.11073e-11
2.8172e-11
3.66151e-11
1.33814e-09
2.5157e-10
3.31954e-10
4.24825e-10
4.49186e-10
4.61633e-10
4.2635e-10
3.76502e-10
3.03949e-10
2.3939e-10
1.75274e-10
1.24001e-10
8.98494e-11
6.40177e-11
4.48488e-11
3.07522e-11
1.89306e-11
1.25684e-11
1.14345e-11
1.15629e-11
1.17657e-11
1.26242e-11
1.58689e-11
1.37541e-09
2.04222e-10
1.75748e-10
1.97696e-10
1.82013e-10
1.5935e-10
1.29467e-10
1.02778e-10
7.5392e-11
5.32789e-11
3.50381e-11
2.37833e-11
1.70802e-11
1.28867e-11
9.80305e-12
6.82564e-12
4.46471e-12
3.74527e-12
3.67869e-12
3.95793e-12
4.49884e-12
4.94157e-12
6.8967e-12
1.38939e-09
1.68762e-10
9.59326e-11
8.44353e-11
6.76397e-11
5.18437e-11
3.68928e-11
2.518e-11
1.60119e-11
9.93234e-12
6.03853e-12
3.90448e-12
2.90659e-12
2.35647e-12
1.92843e-12
1.48347e-12
1.12646e-12
1.03545e-12
1.07914e-12
1.27304e-12
1.43577e-12
1.96306e-12
2.70302e-12
1.42655e-09
1.59561e-10
3.54065e-11
3.25642e-11
2.62084e-11
1.98503e-11
1.58906e-11
1.27858e-11
9.75277e-12
7.98031e-12
5.4038e-12
3.12042e-12
1.6903e-12
9.10227e-13
5.21316e-13
3.51287e-13
2.75347e-13
2.61677e-13
2.89224e-13
3.73132e-13
5.10733e-13
6.5371e-13
1.14051e-12
1.4659e-09
1.71203e-10
2.48766e-11
2.24558e-11
2.27202e-11
2.5223e-11
2.57548e-11
2.45417e-11
2.11855e-11
1.99781e-11
1.19817e-11
6.50878e-12
3.08084e-12
1.29851e-12
5.05076e-13
1.87755e-13
8.59351e-14
6.34338e-14
7.07834e-14
1.00709e-13
1.35546e-13
2.32188e-13
3.89365e-13
1.53039e-09
1.92637e-10
2.8673e-11
2.88433e-11
4.47749e-11
6.44249e-11
8.03154e-11
8.75957e-11
7.48261e-11
4.39042e-11
2.38218e-11
1.24714e-11
5.74329e-12
2.41318e-12
8.77897e-13
2.7414e-13
7.4138e-14
2.37629e-14
1.67022e-14
2.3963e-14
4.01211e-14
6.85581e-14
1.35123e-13
1.58612e-09
2.28383e-10
3.6797e-11
5.08812e-11
1.14584e-10
1.88845e-10
2.29508e-10
2.11693e-10
1.68959e-10
7.94811e-11
4.14542e-11
2.1248e-11
9.70149e-12
4.01917e-12
1.4712e-12
4.61871e-13
1.17044e-13
2.56215e-14
6.57192e-15
5.63892e-15
9.15309e-15
2.18774e-14
4.44868e-14
1.681e-09
2.74051e-10
6.01177e-11
1.16142e-10
2.42607e-10
4.82859e-10
5.98493e-10
4.92307e-10
3.02562e-10
1.39552e-10
6.51877e-11
3.2088e-11
1.46831e-11
6.08154e-12
2.27369e-12
7.35041e-13
1.94911e-13
4.13951e-14
7.04834e-15
1.77977e-15
2.62283e-15
5.97763e-15
1.55096e-14
1.77415e-09
3.45841e-10
9.74932e-11
2.19859e-10
6.47222e-10
1.0313e-09
1.11737e-09
8.58528e-10
4.57885e-10
2.00156e-10
9.06336e-11
4.23449e-11
1.94943e-11
8.12156e-12
3.11291e-12
1.06366e-12
2.96608e-13
6.52999e-14
1.13033e-14
1.27355e-15
6.26086e-16
1.86184e-15
5.35402e-15
1.92352e-09
4.55442e-10
1.51105e-10
4.36545e-10
1.12363e-09
1.36508e-09
1.60977e-09
1.19971e-09
5.85736e-10
2.47831e-10
1.10052e-10
4.85763e-11
2.21951e-11
9.35957e-12
3.60922e-12
1.28621e-12
3.90649e-13
9.46572e-14
1.71542e-14
2.29413e-15
3.59112e-16
5.49001e-16
1.95074e-15
2.08598e-09
5.97144e-10
2.02108e-10
5.65768e-10
1.19754e-09
1.58812e-09
1.9558e-09
1.56065e-09
6.38573e-10
2.68756e-10
1.14362e-10
4.88563e-11
2.17606e-11
9.10288e-12
3.58047e-12
1.30934e-12
4.32489e-13
1.16286e-13
2.38566e-14
3.48287e-15
3.44373e-16
1.90375e-16
7.46184e-16
2.25707e-09
8.039e-10
2.81119e-10
5.57585e-10
1.05498e-09
1.54929e-09
1.95568e-09
1.64683e-09
6.34665e-10
2.40251e-10
9.83312e-11
4.33078e-11
1.89829e-11
7.8642e-12
3.06171e-12
1.13192e-12
3.96205e-13
1.19443e-13
2.70784e-14
4.42684e-15
5.14633e-16
7.91998e-17
2.43803e-16
2.32632e-09
1.08624e-09
4.61982e-10
5.40553e-10
7.94017e-10
1.21736e-09
1.76447e-09
1.38732e-09
5.22884e-10
1.82371e-10
8.06891e-11
3.39913e-11
1.47079e-11
6.00255e-12
2.21748e-12
8.05387e-13
2.93381e-13
9.82269e-14
2.59475e-14
4.69759e-15
5.75223e-16
5.13242e-17
8.42851e-17
2.30896e-09
1.4381e-09
7.79417e-10
5.59533e-10
6.29125e-10
9.4846e-10
1.47092e-09
1.05521e-09
4.30543e-10
1.46893e-10
5.87936e-11
2.32124e-11
9.79464e-12
3.88257e-12
1.35927e-12
4.66464e-13
1.70834e-13
6.13448e-14
1.86205e-14
3.98412e-15
5.7016e-16
4.05443e-17
2.44547e-17
2.18832e-09
1.50551e-09
8.58618e-10
5.69202e-10
5.80257e-10
9.11022e-10
1.04404e-09
7.33718e-10
2.84988e-10
9.8168e-11
3.42947e-11
1.29464e-11
5.61304e-12
2.14761e-12
6.90163e-13
2.14516e-13
7.38007e-14
2.71556e-14
9.26272e-15
2.42765e-15
3.98998e-16
3.85193e-17
7.66725e-18
1.94056e-09
1.42017e-09
7.99461e-10
5.71252e-10
6.22739e-10
8.95026e-10
8.05437e-10
4.35326e-10
1.69749e-10
5.08198e-11
1.63364e-11
6.20353e-12
2.70399e-12
1.00864e-12
3.00925e-13
8.12994e-14
2.3362e-14
7.67211e-15
2.90066e-15
9.97062e-16
2.20607e-16
2.24661e-17
2.54917e-18
1.85735e-09
1.30303e-09
7.55715e-10
6.30729e-10
7.58824e-10
7.67056e-10
4.54255e-10
1.8609e-10
5.80958e-11
1.43297e-11
5.01067e-12
2.21129e-12
1.03594e-12
3.8837e-13
1.10828e-13
2.48906e-14
5.4304e-15
1.37856e-15
5.07691e-16
2.71459e-16
7.30948e-17
1.07779e-17
1.15215e-18
2.10294e-09
1.3879e-09
8.79003e-10
8.61525e-10
7.65927e-10
4.64654e-10
1.79817e-10
4.70182e-11
9.3825e-12
2.13182e-12
1.10202e-12
5.35927e-13
2.77997e-13
1.07126e-13
2.83946e-14
5.38265e-15
8.15785e-16
1.2959e-16
4.94998e-17
4.47944e-17
1.79833e-17
4.4416e-18
5.8931e-19
3.34431e-09
2.08551e-09
1.24521e-09
8.37153e-10
4.80469e-10
1.78968e-10
4.30628e-11
5.96235e-12
6.28164e-13
1.28008e-13
1.18698e-13
6.66482e-14
3.9786e-14
1.55276e-14
3.88426e-15
6.00116e-16
5.96118e-17
5.39486e-18
2.76709e-18
4.72057e-18
3.99846e-18
1.46783e-18
2.77538e-19
0.00364149
0.00423046
0.00423046
0.00400156
0.00173419
0.00191504
0.00208333
0.00310205
0.000241281
0.000241317
0.000357974
0.000382241
0.000262893
0.000788197
0.00141036
0.00154104
0.000780292
0.00147456
0.00347192
0.00429152
0.000193407
0.00376258
0.00557188
0.00557161
0.00327746
0.00557078
0.00557161
0.00557078
0.00241934
0.00297748
0.00379289
0.00360416
8.43839e-06
1.04437e-05
1.74923e-09
5.5884e-09
1.5659e-07
1.74562e-09
1.64633e-09
8.94792e-10
2.31167e-09
2.78919e-09
5.64606e-09
5.61657e-09
9.20949e-09
4.32389e-09
7.56207e-12
2.68778e-12
9.57374e-09
4.52015e-09
1.85543e-08
3.40836e-07
1.19363e-08
1.86483e-08
5.39262e-09
6.33586e-07
3.16797e-08
1.77521e-08
4.60984e-09
1.01311e-07
6.53836e-10
3.86014e-09
8.51569e-09
1.24099e-08
6.91321e-10
3.15214e-09
8.70495e-09
8.31019e-09
1.34382e-09
3.74945e-09
1.06689e-08
1.16981e-08
5.47451e-10
8.06993e-10
1.85259e-09
2.23576e-09
4.25209e-10
7.84179e-10
1.52438e-09
1.60785e-09
2.56711e-10
4.40381e-10
7.82172e-10
9.26609e-10
1.08177e-10
1.20951e-10
1.82378e-10
2.27148e-10
4.67428e-11
5.84548e-11
7.98689e-11
8.65516e-11
2.06486e-11
2.23211e-11
2.99275e-11
3.57353e-11
8.95711e-12
9.84079e-12
1.22246e-11
1.4331e-11
3.83552e-12
4.18164e-12
5.13932e-12
6.1609e-12
1.47785e-12
1.7085e-12
2.16387e-12
2.52601e-12
5.94527e-13
6.84759e-13
8.43546e-13
1.00653e-12
2.05508e-13
2.59711e-13
3.40827e-13
4.30575e-13
8.0414e-14
1.04524e-13
1.40344e-13
1.77174e-13
2.97737e-14
4.1848e-14
6.2399e-14
8.69967e-14
1.2198e-14
1.97422e-14
3.03748e-14
4.48038e-14
4.8309e-15
9.06406e-15
1.57176e-14
2.60154e-14
2.3347e-15
4.07084e-15
7.86196e-15
1.42632e-14
7.56035e-16
1.59094e-15
3.40049e-15
6.14631e-15
3.15597e-16
6.42618e-16
1.34403e-15
2.81988e-15
7.82069e-17
2.06121e-16
4.86857e-16
9.29401e-16
2.51433e-17
5.46832e-17
1.22292e-16
2.73029e-16
4.6498e-18
1.12016e-17
2.81983e-17
5.95211e-17
9.40001e-19
2.12325e-18
5.04316e-18
1.28799e-17
1.91226e-19
4.13606e-19
1.03585e-18
2.19523e-18
4.44387e-20
7.87723e-20
1.76791e-19
3.38626e-19
0.00188578
0.00107212
0.00110409
0.00673894
0.00724189
0.00590823
0.00339685
0.000715888
0.0122369
0.0255933
0.0245261
0.013468
0.0110882
0.0123824
0.0126911
0.0126542
0.0106211
0.010747
0.00953866
0.00228253
0.00107322
0.00671188
0.011054
0.0112006
0.0112007
0.00727984
0.000731025
0.0124414
0.0255806
0.0199732
0.0129533
0.0133108
0.0133084
0.00883582
0.00618357
0.00616592
0.00622445
0.00543112
0.000385143
0.00302662
0.00485643
0.0046715
0.00687164
0.00685849
0.0024651
0.000671129
0.00329197
0.00646242
0.00828205
0.0133272
0.013322
0.0123609
0.00880123
0.01409
0.0134877
0.00356263
0.00282712
0.00140959
0.00111862
0.000269662
0.000554342
9.0619e-05
0.000379842
0.000979195
0.000625935
0.000625694
0.000625781
0.0067614
0.0127458
0.00951561
0.00281609
0.00868846
0.0137386
0.0172843
0.00546666
0.00208693
0.0013879
0.000583745
0.000143543
6.75885e-05
9.02818e-05
0.000207054
0.000527986
0.00106107
0.000625902
0.000630521
0.00118711
0.00188899
0.00137469
0.000997215
0.0018227
0.000643566
0.0169282
0.00429043
0.00207627
0.00530388
0.0015732
0.000157012
6.26956e-05
6.60928e-05
0.000169359
0.000265886
0.000568008
0.00078933
0.000549911
0.000550444
0.000598265
0.000584261
0.000588873
0.00085048
0.000649569
0.00456269
0.00523082
0.00162078
0.00557056
0.00467963
0.000920247
0.000213882
0.000544451
0.001563
0.00227485
0.0027678
0.00294895
0.00294184
0.00188851
0.000941277
0.000835622
0.00161439
0.00122307
0.00112504
0.0100997
0.00996241
0.000206376
0.00368186
0.00328715
0.00148023
0.000418881
0.000803496
0.00152693
0.00185591
0.00219834
0.00268819
0.00289346
0.00275938
0.00266321
0.0031133
0.00322032
0.0035356
0.00663033
0.0122126
0.00897784
0.000206326
1.01177e-09
6.00867e-05
0.00024152
0.000124378
0.000156904
6.99707e-05
2.5716e-05
5.50416e-05
0.000174715
0.000281097
0.000296281
0.000281924
0.0028079
0.00619148
0.0061335
0.00458693
0.00377013
0.000980517
0.000476782
9.5714e-10
5.47608e-14
-7.16596e-12
1.13046e-12
4.20129e-11
9.85677e-10
2.48351e-06
5.6697e-06
7.94444e-06
2.8988e-05
3.90849e-05
0.000195511
0.000614178
0.000220057
5.0466e-07
1.81777e-08
1.79891e-08
1.81663e-08
6.17479e-05
3.81729e-09
-8.04013e-11
1.47344e-07
5.68721e-07
7.66746e-07
1.28695e-05
1.87467e-05
1.85184e-05
6.51999e-06
6.08943e-06
1.46018e-05
2.83494e-05
1.26328e-05
-2.26415e-09
-4.96655e-09
3.91703e-07
1.84249e-06
2.44634e-08
1.89427e-07
3.52279e-12
1.83433e-11
1.54936e-08
5.95438e-08
1.58379e-06
5.64858e-06
7.49288e-06
4.90834e-06
2.14151e-06
7.55601e-07
1.69293e-06
2.53748e-06
8.75862e-07
5.97521e-07
2.47313e-06
3.48876e-06
4.25989e-06
6.12696e-07
4.48955e-08
2.74798e-07
1.2752e-08
8.67797e-09
8.67853e-09
2.26251e-07
8.25662e-07
1.02896e-06
4.53418e-07
1.49858e-08
1.10861e-07
1.38022e-07
1.23305e-07
1.20696e-07
5.77521e-07
4.07815e-06
4.0344e-06
4.0101e-06
7.52035e-07
1.93053e-07
1.05531e-06
1.39055e-06
1.52379e-06
1.22631e-06
2.21576e-07
4.67027e-09
4.55855e-09
6.87209e-09
1.46885e-08
3.93901e-08
2.12168e-07
2.41876e-07
1.42962e-07
1.52371e-06
1.07779e-06
6.77127e-07
1.00141e-06
1.13384e-06
3.07051e-07
1.52024e-06
2.70468e-06
2.69948e-06
2.69983e-06
2.07319e-06
1.07618e-07
4.62802e-09
4.54176e-09
1.76312e-08
2.75548e-08
1.52277e-08
1.74349e-07
4.19868e-07
1.79444e-06
1.78698e-06
6.76354e-07
6.2921e-06
1.60072e-05
1.28217e-05
1.08197e-07
6.03778e-07
9.80962e-07
1.16991e-06
1.75129e-06
5.99767e-07
2.91366e-07
3.27103e-08
5.07621e-08
5.25166e-08
1.66473e-08
1.3123e-08
5.2051e-07
1.03922e-06
1.70323e-06
1.57002e-06
1.72467e-05
1.94203e-05
1.94176e-05
8.33464e-09
6.21038e-08
6.56008e-08
8.93876e-07
1.59808e-06
1.57388e-06
1.30503e-06
3.58864e-07
1.31525e-08
1.33885e-08
1.31273e-08
1.31451e-08
6.13881e-07
1.01412e-06
4.59993e-07
1.31719e-06
1.64688e-05
1.9408e-05
1.90714e-05
8.31342e-09
1.25794e-09
9.51306e-08
1.27899e-06
1.5382e-06
1.51377e-06
8.23192e-07
2.05347e-07
6.43276e-08
6.32404e-08
1.34426e-08
2.76535e-07
8.60857e-07
8.67059e-07
3.61717e-07
4.32644e-07
6.48022e-06
7.31005e-06
6.4727e-06
4.18704e-09
1.25606e-09
2.54773e-09
1.13574e-07
3.2497e-07
1.88974e-07
1.38119e-07
2.11224e-07
2.51873e-07
2.5196e-07
1.0404e-07
2.47071e-07
5.12258e-07
3.85303e-07
3.60764e-07
3.61814e-07
6.16846e-06
3.50788e-06
2.95282e-06
8.76839e-10
1.10601e-09
1.275e-09
7.23433e-09
2.11585e-08
1.90972e-08
2.87847e-08
9.04526e-08
1.47584e-07
1.25411e-07
4.9534e-08
6.65488e-08
5.57997e-08
3.00048e-09
1.95837e-06
6.39802e-06
1.1208e-05
3.5349e-06
3.06939e-06
6.75283e-10
8.26669e-10
8.29616e-10
9.81474e-10
2.02082e-09
4.42627e-09
8.11249e-09
1.38288e-08
1.4943e-08
9.80876e-09
5.31734e-09
1.69265e-08
5.64385e-09
2.96407e-09
2.4995e-06
1.18183e-05
1.03808e-05
3.72364e-06
6.48618e-06
2.27458e-10
2.51848e-10
2.36766e-10
2.47358e-10
3.36192e-10
6.80001e-10
9.36278e-10
1.19884e-09
1.40006e-09
2.35557e-09
2.39191e-09
6.00036e-09
3.44967e-09
2.96929e-09
9.15342e-07
9.20102e-06
2.4538e-06
2.56324e-06
5.74895e-06
9.47408e-11
1.04152e-10
1.028e-10
1.03997e-10
1.20415e-10
1.65164e-10
2.47913e-10
3.85618e-10
5.73206e-10
7.70627e-10
1.14184e-09
3.08093e-09
3.32658e-09
2.93296e-09
3.2193e-07
9.01702e-07
2.43938e-07
1.24926e-06
3.17808e-06
3.72465e-11
4.32877e-11
4.47444e-11
4.88382e-11
6.5331e-11
9.95738e-11
1.57867e-10
2.5008e-10
3.77077e-10
5.75418e-10
8.97672e-10
2.28986e-09
5.06336e-09
3.25087e-09
9.21104e-08
4.40374e-08
2.15773e-08
1.90444e-07
1.60566e-08
1.63615e-11
1.95431e-11
2.32074e-11
2.95548e-11
4.49016e-11
7.35872e-11
1.2741e-10
2.15045e-10
3.41668e-10
5.35256e-10
9.51679e-10
2.03877e-09
4.8171e-09
8.99372e-09
4.05136e-08
1.9974e-08
9.12004e-09
5.51628e-08
1.59605e-08
6.80233e-12
9.03648e-12
1.19411e-11
1.70932e-11
2.73656e-11
4.71565e-11
8.26614e-11
1.42115e-10
2.38749e-10
3.95402e-10
7.61827e-10
1.61702e-09
3.66253e-09
7.68903e-09
1.20326e-08
8.27078e-09
7.14621e-09
1.17754e-08
9.27176e-09
3.04233e-12
4.12399e-12
5.7869e-12
8.83249e-12
1.46394e-11
2.56534e-11
4.60045e-11
8.08947e-11
1.39461e-10
2.35413e-10
4.21658e-10
9.42423e-10
1.82251e-09
2.50985e-09
1.41286e-08
7.11784e-09
7.11796e-09
7.34547e-09
8.44997e-09
1.24238e-12
1.79372e-12
2.63183e-12
4.18524e-12
7.12726e-12
1.26636e-11
2.31299e-11
4.17355e-11
7.3066e-11
1.2464e-10
2.09225e-10
3.90201e-10
6.23483e-10
2.6475e-10
1.57518e-08
4.09512e-08
7.13188e-09
7.12969e-09
3.94293e-08
5.39569e-13
8.11504e-13
1.26647e-12
2.06753e-12
3.5262e-12
6.28075e-12
1.15141e-11
2.11303e-11
3.81085e-11
6.79835e-11
1.1426e-10
1.85988e-10
2.84948e-10
2.33033e-10
6.99764e-10
7.58427e-08
1.34777e-07
3.96941e-08
8.30009e-08
2.43009e-13
4.07407e-13
6.89064e-13
1.18782e-12
2.08684e-12
3.68166e-12
6.48054e-12
1.1881e-11
2.21935e-11
4.09618e-11
7.27429e-11
1.22461e-10
2.1681e-10
2.97865e-10
2.63796e-10
6.13715e-08
1.74952e-07
1.47678e-07
8.63101e-08
1.18454e-13
2.41402e-13
4.44514e-13
8.1616e-13
1.47367e-12
2.62713e-12
4.62008e-12
7.97852e-12
1.3242e-11
2.18633e-11
3.92354e-11
7.81319e-11
1.66891e-10
2.69657e-10
2.63739e-10
1.14289e-08
1.74885e-07
1.79258e-07
1.79402e-07
7.4437e-14
1.56235e-13
3.12077e-13
6.12591e-13
1.17176e-12
2.16928e-12
3.88353e-12
6.78168e-12
1.14378e-11
1.86883e-11
3.0999e-11
5.20166e-11
1.10334e-10
2.21452e-10
5.72106e-10
1.70553e-09
5.85486e-08
1.74158e-07
1.12492e-07
4.20271e-14
9.7977e-14
2.14828e-13
4.57098e-13
9.27512e-13
1.81885e-12
3.44859e-12
6.34119e-12
1.12051e-11
1.90731e-11
3.14684e-11
5.08546e-11
8.70015e-11
1.96281e-10
6.1631e-10
1.99497e-09
9.02418e-09
9.69762e-08
2.71913e-08
2.40973e-14
5.96613e-14
1.38539e-13
3.11686e-13
6.75786e-13
1.41787e-12
2.89044e-12
5.67781e-12
1.06558e-11
1.92541e-11
3.40276e-11
5.77079e-11
9.92069e-11
2.01997e-10
4.89122e-10
1.61713e-09
2.99247e-09
5.18223e-09
1.6945e-09
1.24312e-14
3.10621e-14
7.7067e-14
1.85441e-13
4.3403e-13
9.89452e-13
2.18769e-12
4.63294e-12
9.38969e-12
1.83442e-11
3.44186e-11
6.83184e-11
1.25789e-10
2.33801e-10
4.50846e-10
1.04019e-09
1.84609e-09
1.39668e-09
1.39672e-09
5.02543e-15
1.37474e-14
3.62182e-14
9.38963e-14
2.38975e-13
5.99583e-13
1.4676e-12
3.41593e-12
7.51881e-12
1.57004e-11
3.28148e-11
6.97071e-11
1.46798e-10
2.66711e-10
4.50622e-10
9.01565e-10
1.45801e-09
1.5636e-09
1.46091e-09
1.78256e-15
5.07252e-15
1.41495e-14
3.96109e-14
1.12037e-13
3.13283e-13
8.46666e-13
2.2062e-12
5.42553e-12
1.24509e-11
2.71067e-11
6.09392e-11
1.38349e-10
2.9167e-10
4.91741e-10
8.47652e-10
1.40465e-09
1.6029e-09
1.33e-09
5.13443e-16
1.5293e-15
4.5072e-15
1.3776e-14
4.32612e-14
1.36655e-13
4.2292e-13
1.23891e-12
3.38192e-12
8.56064e-12
2.01905e-11
4.53313e-11
1.07168e-10
2.53542e-10
4.98663e-10
8.03821e-10
1.33166e-09
1.57353e-09
1.01407e-09
1.23023e-16
3.71426e-16
1.15935e-15
3.90034e-15
1.38538e-14
4.999e-14
1.75924e-13
5.83272e-13
1.79231e-12
5.07674e-12
1.29718e-11
3.05022e-11
7.16977e-11
1.7458e-10
4.33038e-10
7.5037e-10
1.08693e-09
1.32146e-09
7.83481e-10
2.47278e-17
7.43202e-17
2.44403e-16
9.02937e-16
3.63747e-15
1.51057e-14
6.11086e-14
2.32131e-13
8.11246e-13
2.53915e-12
7.17999e-12
1.84944e-11
4.42852e-11
1.04441e-10
2.63429e-10
5.7166e-10
8.74538e-10
9.67765e-10
5.27841e-10
4.0521e-18
1.2336e-17
4.20001e-17
1.68066e-16
7.53495e-16
3.51936e-15
1.61343e-14
6.94843e-14
2.71425e-13
9.50201e-13
2.98055e-12
8.376e-12
2.14195e-11
5.18015e-11
1.30769e-10
3.2282e-10
5.86715e-10
6.90433e-10
3.13252e-10
5.86851e-19
1.67325e-18
5.53963e-18
2.20811e-17
1.01331e-16
4.95526e-16
2.49681e-15
1.17746e-14
4.9951e-14
1.94704e-13
6.81224e-13
2.1944e-12
6.40708e-12
1.69898e-11
4.42151e-11
1.20385e-10
2.64371e-10
3.33624e-10
1.17412e-10
)
;

boundaryField
{
    leftWall
    {
        type            zeroGradient;
    }
    rightWall
    {
        type            zeroGradient;
    }
    lowerWall
    {
        type            zeroGradient;
    }
    atmosphere
    {
        type            inletOutlet;
        inletValue      uniform 0;
        value           nonuniform List<scalar> 
46
(
3.34431e-09
2.08551e-09
1.24521e-09
8.37153e-10
4.80469e-10
1.78968e-10
0
0
0
0
0
0
0
0
0
0
0
0
0
0
0
1.46783e-18
2.77538e-19
4.44387e-20
7.87723e-20
1.76791e-19
0
0
0
0
0
0
0
0
0
0
0
0
0
0
1.69898e-11
4.42151e-11
1.20385e-10
2.64371e-10
3.33624e-10
1.17412e-10
)
;
    }
    defaultFaces
    {
        type            empty;
    }
}


// ************************************************************************* //
