/*--------------------------------*- C++ -*----------------------------------*\
| =========                 |                                                 |
| \\      /  F ield         | OpenFOAM: The Open Source CFD Toolbox           |
|  \\    /   O peration     | Version:  2312                                  |
|   \\  /    A nd           | Website:  www.openfoam.com                      |
|    \\/     M anipulation  |                                                 |
\*---------------------------------------------------------------------------*/
FoamFile
{
    version     2.0;
    format      ascii;
    arch        "LSB;label=32;scalar=64";
    class       volScalarField;
    location    "3.5";
    object      alpha.oil;
}
// * * * * * * * * * * * * * * * * * * * * * * * * * * * * * * * * * * * * * //

dimensions      [0 0 0 0 0 0 0];

internalField   nonuniform List<scalar> 
2268
(
7.58504e-10
6.98917e-10
1.5504e-09
1.65058e-09
3.12084e-09
5.33843e-09
5.00079e-09
2.84615e-09
1.24392e-09
6.93307e-10
4.33472e-10
2.94075e-10
2.09473e-10
1.78179e-10
1.96763e-10
2.71244e-10
4.56247e-10
8.00391e-10
8.07016e-10
8.13927e-10
1.53454e-05
5.2567e-05
5.2567e-05
9.73024e-10
6.98912e-10
1.72928e-08
1.37737e-08
4.06218e-08
7.96123e-08
1.03259e-07
5.71621e-08
1.02118e-08
3.28679e-09
2.5149e-09
1.62734e-09
1.21124e-09
1.01249e-09
6.625e-10
4.82672e-10
6.64188e-10
1.23326e-09
1.96692e-09
1.56789e-09
2.61468e-06
2.75107e-05
3.28436e-05
3.54821e-09
7.61141e-09
5.91576e-08
3.02853e-08
9.85621e-08
4.33728e-07
4.39053e-07
3.26735e-07
1.14784e-08
1.29194e-09
1.31479e-09
1.29521e-09
2.17851e-09
1.00581e-08
1.5814e-08
1.20706e-08
6.34466e-09
1.6977e-09
2.18848e-09
2.00362e-09
9.01524e-08
6.84561e-08
2.80611e-07
2.00117e-07
4.62983e-08
4.5883e-08
3.6216e-08
4.05934e-08
6.67224e-08
-3.84195e-10
-3.05505e-23
4.71421e-24
3.27667e-09
6.48384e-09
6.66706e-09
6.5655e-09
6.67107e-09
2.06354e-08
1.96697e-08
2.62796e-09
5.13508e-10
5.34044e-10
5.14674e-10
1.01295e-08
2.33605e-09
5.39825e-09
0.00364671
0.00360457
0.00241893
0.000969148
0.000133615
5.17751e-05
7.83546e-05
6.2645e-05
7.4306e-06
4.86854e-09
5.30477e-09
5.12216e-05
6.48265e-05
1.44467e-05
9.63595e-08
9.02017e-09
0.000630945
0.000329387
0.000784831
3.06506e-08
2.30416e-09
2.31001e-09
7.52892e-05
0.00723964
0.00723954
0.00723965
0.00436282
0.000470428
0.000160256
0.000471204
0.000508271
0.000295591
0.000190563
0.000707248
0.00136069
0.00120813
0.000280929
6.40503e-08
0.002118
0.00421461
0.0029114
0.000818684
0.00926931
0.0137526
0.00897369
0.00228417
0.0043272
0.00551758
0.0047519
0.00234135
0.000501572
0.000158401
0.000459089
0.000527177
0.000532911
0.00180388
0.00605554
0.00611997
0.00218808
0.000271957
0.0028798
0.00234516
0.00235291
0.00235999
0.0332646
0.0385768
0.0259181
0.0117718
0.00819889
2.64814e-05
2.64216e-05
2.63224e-05
2.63463e-05
0.000112726
0.000151825
0.000320213
0.000464658
0.000844201
0.00657116
0.0209149
0.0305114
0.0192672
0.00523542
0.0144458
0.0625623
0.0769452
0.0735439
0.0760425
0.0178381
0.00598636
0.00260126
0.00458192
0.0268339
0.0268229
0.0268277
0.0268138
0.026819
0.02681
0.0268126
0.0268203
0.0268297
0.0268374
0.0284612
0.0295418
0.0307024
0.0344108
0.0365919
0.0360594
0.0344755
0.0344755
0.0344755
0.026834
0.0293831
0.0312763
0.0302958
0.0282635
0.0269355
0.0278682
0.0282218
0.0286108
0.0311256
0.0570454
0.0976386
0.141132
0.180252
0.196877
0.176688
0.107567
0.0473321
0.0360416
0.0371764
0.289463
0.324581
0.310641
0.268993
0.225701
0.185835
0.213863
0.26505
0.373826
0.432019
0.450949
0.453103
0.471891
0.503303
0.503306
0.491638
0.463014
0.406566
0.278748
0.468989
0.467415
0.463217
0.464469
0.44258
0.306278
0.203654
0.362708
0.557557
0.556806
0.19601
0.0841119
0.0825923
0.145046
0.270416
0.494172
0.515039
0.514772
0.421773
0.359738
0.110661
0.092348
0.141375
0.168032
0.20368
0.127479
0.382666
0.557017
0.454464
0.0526774
0.049645
0.0492937
0.0489283
0.0488492
0.140992
0.485595
0.450259
0.31558
0.0237664
0.0158645
0.0134918
0.0143026
0.0367428
0.0596921
0.0157247
0.275245
0.561282
0.317013
0.0627231
0.0611237
0.0489332
0.0488965
0.0488787
0.0728848
0.157976
0.104146
0.399423
0.0164633
0.0116753
0.0116225
0.0116227
0.0116299
0.0159138
0.0119499
0.136858
0.556886
0.353703
0.100432
0.0764549
0.0489127
0.0489151
0.0489241
0.0490913
0.0690495
0.0677726
0.401924
0.0221857
0.015194
0.0123801
0.0128895
0.011648
0.0120568
0.0119305
0.0150673
0.409187
0.393708
0.339991
0.147987
0.0489028
0.0489008
0.048889
0.0494393
0.0517197
0.057702
3.12835e-05
3.12289e-05
3.00938e-05
2.62131e-05
5.52471e-05
7.45839e-05
5.29646e-05
0.000184826
0.00224609
0.0393136
0.048804
0.0418469
0.0210531
0.0480907
0.133168
0.132262
0.132815
0.0843378
0.00521367
0.0013441
0.000976349
0.000618196
0.000620073
2.95273e-05
3.12761e-05
2.13297e-05
-2.0551e-13
-3.34546e-13
1.94305e-25
1.40152e-22
8.57058e-05
0.000360392
0.0136269
0.0488548
0.0484484
0.0474704
0.0108112
0.0208254
0.0263329
0.011
0.00750992
0.00245198
0.00130287
0.00337613
0.0849736
0.324228
2.65604e-24
3.2096e-24
4.35894e-21
-8.74798e-22
-7.04229e-26
5.07613e-07
1.40611e-05
0.000296793
0.000370328
0.000678773
0.015073
0.0310105
0.0204095
0.00311602
0.00105394
0.00105654
0.00106055
0.00111482
0.223556
0.594062
0.699994
0.604831
0.433097
0.119509
0.158839
0.0708833
0.0104423
-7.60162e-09
-2.68474e-08
-1.11649e-08
2.9245e-06
9.88423e-08
0.000451862
0.00108512
0.00081609
0.000913572
0.000983136
0.00104896
0.0526442
0.366639
0.675774
0.893346
0.978537
0.985209
0.986567
0.994703
0.68306
0.597182
0.489912
0.272948
0.1279
0.0468519
0.00544571
4.55095e-14
4.0774e-14
1.37204e-05
1.67615e-05
0.000575515
0.0107245
0.0555546
0.307155
0.790342
0.982184
0.99366
0.993141
0.998418
0.99886
0.998825
0.99852
0.933003
0.971343
0.969186
0.878701
0.74565
0.65422
0.645215
0.618456
0.477605
0.393772
0.396429
0.426078
0.59778
0.855114
0.912708
0.920564
0.980099
0.99886
0.99886
0.99886
0.99886
0.995946
0.984216
0.933031
0.997618
0.998695
0.987956
0.962906
0.972927
0.995031
0.99572
0.989248
0.989965
0.985349
0.94357
0.895033
0.954548
0.991423
0.992762
0.993416
0.998551
0.995782
0.969676
0.903625
0.791722
0.683636
0.967222
0.998352
0.999509
0.99951
0.999509
0.99951
0.999495
0.99949
0.999203
0.986611
0.929133
0.888762
0.865419
0.849008
0.834034
0.810271
0.759918
0.663335
0.500136
0.320181
0.169861
0.0669484
0.00882744
0.99754
0.999322
0.999511
0.99951
0.999511
0.999507
0.956585
0.733872
0.478414
0.289875
0.201162
0.157425
0.126823
0.110307
0.089151
0.0597755
0.0260633
-7.96992e-07
-1.0565e-07
2.3979e-14
9.59064e-14
3.26311e-13
9.93929e-17
0.997882
0.999513
0.99951
0.999512
0.942488
0.676827
0.274964
0.0726643
0.00853313
1.8034e-19
-4.23909e-11
-7.81487e-26
-8.14921e-25
-9.04701e-09
-1.94271e-08
-3.44051e-08
2.40354e-23
1.01735e-06
1.35772e-06
5.82156e-07
7.69598e-07
1.54854e-06
6.65242e-07
0.996608
0.993853
0.999481
0.981759
0.69832
0.168905
-1.6488e-18
7.38029e-20
-2.27701e-20
-6.21105e-12
3.6077e-08
2.87409e-07
1.3799e-07
4.79874e-07
1.26e-06
2.03769e-06
2.5991e-06
5.23011e-06
5.70429e-06
3.50989e-06
4.08196e-06
4.57109e-06
3.88504e-06
0.985459
0.970259
0.966561
0.7046
0.149306
-3.82843e-18
9.34084e-12
7.63923e-11
2.04239e-09
1.75423e-09
1.35753e-08
1.47851e-07
8.37607e-08
1.10298e-07
1.25097e-07
9.23269e-08
1.49724e-07
1.52769e-06
1.35428e-05
1.67302e-05
1.19174e-05
4.22941e-06
7.71342e-06
0.944651
0.752185
0.363039
0.00282189
-7.73241e-12
-3.87439e-10
2.04191e-08
6.17948e-09
2.35189e-09
2.18508e-09
2.65075e-09
3.14519e-09
4.72496e-07
1.05282e-06
9.37163e-07
1.22039e-07
1.33995e-07
1.25368e-07
1.12241e-06
1.79885e-05
1.79247e-05
1.04249e-05
6.34038e-07
0.077298
8.99989e-07
6.88266e-07
2.13853e-06
1.00147e-07
3.89368e-08
9.56879e-08
7.54128e-08
1.63757e-08
6.96248e-08
5.84238e-07
6.73825e-06
8.17519e-06
2.74135e-06
1.55556e-07
1.14927e-07
2.68194e-06
9.59992e-06
1.18865e-05
1.79247e-05
1.26805e-05
7.92982e-07
9.74867e-09
2.0038e-08
1.98138e-08
6.81181e-07
1.7776e-06
5.61701e-07
4.75824e-08
5.79436e-08
7.06931e-08
9.32946e-07
4.8613e-06
1.79226e-05
2.42586e-05
1.73528e-05
1.16698e-05
8.51177e-06
6.03933e-06
1.7023e-05
2.17768e-05
2.16567e-05
1.77656e-05
2.54444e-06
9.76825e-09
9.76948e-09
1.98138e-08
1.15687e-07
5.559e-07
9.11492e-07
1.07003e-06
2.15311e-06
2.85331e-06
1.193e-06
1.09061e-06
2.31156e-05
7.34745e-05
7.36314e-05
7.36314e-05
7.36314e-05
7.01783e-05
5.39262e-05
1.00431e-05
1.43886e-06
3.29242e-06
3.02937e-06
3.67242e-06
3.93651e-07
9.75224e-09
2.07712e-08
3.75418e-08
1.50456e-07
2.91692e-07
2.93881e-06
5.37751e-06
5.36726e-06
2.13576e-06
4.57702e-06
7.28792e-05
7.28703e-05
6.79186e-05
3.10497e-05
2.12075e-05
1.29359e-05
3.25644e-06
1.21627e-06
8.33756e-09
8.43129e-09
8.33756e-09
8.67181e-09
8.41347e-09
3.84236e-08
1.83036e-08
6.06094e-09
6.0665e-09
6.17845e-08
3.01198e-06
5.19736e-06
2.14028e-06
2.56854e-06
1.87836e-05
2.29226e-05
1.4545e-05
2.33339e-06
5.65292e-08
8.57324e-09
8.329e-09
8.35117e-09
8.329e-09
8.94442e-09
8.51744e-09
8.41762e-09
7.85917e-09
7.77415e-09
3.76002e-08
1.91855e-08
6.04444e-09
1.44907e-08
6.75256e-08
3.98088e-07
7.05861e-07
2.8839e-07
2.5851e-06
2.70392e-06
1.81319e-08
1.67049e-08
1.3201e-08
1.69819e-08
1.10802e-08
1.04201e-08
1.05184e-08
9.83779e-09
8.81924e-09
8.20273e-09
8.06451e-09
7.78803e-09
6.16429e-09
5.28907e-09
2.02393e-08
5.17127e-09
1.19412e-08
3.29374e-08
3.16959e-08
3.86787e-08
1.93823e-07
3.77349e-07
2.33768e-08
2.32611e-08
1.79669e-08
1.1702e-08
1.09928e-08
9.05745e-09
6.88398e-09
5.49027e-09
4.9818e-09
4.93558e-09
5.02061e-09
4.81455e-09
4.65293e-09
4.66651e-09
4.98999e-09
2.07529e-08
3.86517e-09
8.524e-09
2.03076e-08
3.05999e-08
4.8945e-08
1.04815e-07
3.95289e-08
3.91952e-08
2.92506e-08
1.64974e-08
9.68835e-09
6.87606e-09
5.21858e-09
4.0857e-09
3.24912e-09
2.75322e-09
2.63191e-09
2.72335e-09
2.96787e-09
3.17435e-09
3.5194e-09
4.32568e-09
2.11073e-08
2.92161e-09
5.93477e-09
1.34006e-08
2.49489e-08
4.0123e-08
4.81154e-08
3.96338e-08
3.34839e-08
1.87677e-08
9.24097e-09
5.3624e-09
3.79607e-09
2.95865e-09
2.3468e-09
1.89449e-09
1.62773e-09
1.52633e-09
1.58444e-09
1.80255e-09
2.04412e-09
2.52701e-09
3.01796e-09
2.10533e-08
2.35e-09
3.811e-09
7.82038e-09
1.41578e-08
2.16014e-08
2.29165e-08
2.00181e-08
1.32939e-08
6.44701e-09
3.20681e-09
2.07899e-09
1.60026e-09
1.26065e-09
1.01966e-09
8.78652e-10
8.21531e-10
8.4585e-10
9.43251e-10
1.13278e-09
1.38922e-09
1.59989e-09
2.09146e-09
1.07829e-08
2.10549e-09
2.56235e-09
4.13925e-09
6.14411e-09
7.92688e-09
7.4789e-09
5.71361e-09
3.33605e-09
1.61129e-09
9.31591e-10
6.73111e-10
5.29574e-10
4.3678e-10
3.89091e-10
3.77646e-10
3.96748e-10
4.41189e-10
5.19813e-10
6.62055e-10
8.1402e-10
1.04281e-09
1.31753e-09
3.19165e-09
2.21937e-09
2.11117e-09
2.46837e-09
2.71344e-09
2.67935e-09
2.13597e-09
1.49637e-09
8.86963e-10
5.33438e-10
3.63314e-10
2.62725e-10
1.99499e-10
1.64467e-10
1.53412e-10
1.59918e-10
1.80031e-10
2.12806e-10
2.63926e-10
3.5416e-10
4.72046e-10
5.91189e-10
8.06988e-10
2.72357e-09
2.57351e-09
2.13894e-09
2.07182e-09
1.80652e-09
1.49939e-09
1.1461e-09
8.51676e-10
6.21157e-10
4.5594e-10
3.33857e-10
2.30048e-10
1.51329e-10
1.00114e-10
7.42974e-11
6.77238e-11
7.48692e-11
9.19548e-11
1.21252e-10
1.76553e-10
2.25897e-10
3.31731e-10
4.45787e-10
3.20093e-09
2.94661e-09
2.54124e-09
2.18073e-09
1.78329e-09
1.45688e-09
1.17355e-09
9.43295e-10
7.6204e-10
6.22715e-10
4.9078e-10
3.37444e-10
2.09256e-10
1.16469e-10
6.11518e-11
3.60804e-11
3.04735e-11
3.57717e-11
4.9366e-11
7.70558e-11
1.16733e-10
1.62872e-10
2.64227e-10
3.62093e-09
3.23538e-09
2.69241e-09
2.09149e-09
1.6017e-09
1.42853e-09
1.29382e-09
1.00453e-09
8.66654e-10
7.76177e-10
6.69031e-10
4.95652e-10
3.17766e-10
1.71942e-10
8.06106e-11
3.38818e-11
1.65557e-11
1.3901e-11
1.89765e-11
3.22769e-11
4.88571e-11
8.59073e-11
1.3888e-10
4.14746e-09
3.46388e-09
2.61945e-09
1.28522e-09
9.52985e-10
8.9436e-10
8.34129e-10
7.39939e-10
7.56505e-10
8.0798e-10
7.99291e-10
6.38349e-10
4.34183e-10
2.50811e-10
1.18916e-10
4.67939e-11
1.60812e-11
7.13435e-12
7.27037e-12
1.27574e-11
2.39267e-11
4.34177e-11
7.92961e-11
4.51464e-09
3.93059e-09
4.92529e-09
8.00701e-09
2.27744e-09
1.31172e-09
1.37617e-09
5.35725e-10
5.9103e-10
7.66452e-10
8.71581e-10
7.40964e-10
5.30814e-10
3.23854e-10
1.62158e-10
6.58261e-11
2.13703e-11
6.5341e-12
3.52034e-12
5.58664e-12
1.07577e-11
2.49651e-11
4.75791e-11
4.99241e-09
6.32999e-09
2.05066e-08
1.23074e-07
4.18813e-07
4.27758e-07
9.16656e-08
5.35583e-10
5.7788e-10
7.13995e-10
9.0876e-10
7.99867e-10
5.87761e-10
3.76602e-10
2.01571e-10
8.65755e-11
2.92401e-11
8.09662e-12
2.54692e-12
2.70096e-12
6.1931e-12
1.42131e-11
3.08486e-11
5.13593e-09
1.43575e-08
6.73713e-08
2.57909e-07
8.60944e-07
8.60778e-07
3.23392e-07
5.39581e-10
7.73461e-10
7.07525e-10
9.26453e-10
8.25165e-10
6.0216e-10
3.95005e-10
2.22777e-10
1.02353e-10
3.67932e-11
1.0249e-11
2.57243e-12
1.44577e-12
2.88834e-12
8.61377e-12
1.96125e-11
5.19632e-09
2.66045e-08
1.53575e-07
7.94131e-07
8.60815e-07
8.34812e-07
5.37339e-10
5.38529e-10
1.23013e-09
7.21226e-10
9.18321e-10
8.17445e-10
5.8283e-10
3.79157e-10
2.16831e-10
1.05164e-10
4.06876e-11
1.2154e-11
2.87463e-12
9.7197e-13
1.60573e-12
4.73228e-12
1.19795e-11
5.47219e-09
3.1217e-08
2.54891e-07
8.60839e-07
8.60986e-07
5.76401e-07
9.75786e-09
4.96373e-09
1.736e-09
7.54113e-10
8.13399e-10
7.57619e-10
5.27306e-10
3.25302e-10
1.83751e-10
9.14963e-11
3.86878e-11
1.26004e-11
3.1426e-12
7.24485e-13
7.25293e-13
2.49364e-12
6.85171e-12
5.74753e-09
2.61731e-08
2.57565e-07
8.61015e-07
8.49475e-07
1.89006e-07
6.1586e-08
2.86446e-08
2.60909e-09
8.50818e-10
6.81886e-10
6.41757e-10
4.42757e-10
2.61948e-10
1.41826e-10
6.99564e-11
3.06748e-11
1.1037e-11
2.95239e-12
6.46945e-13
3.6645e-13
1.07025e-12
3.45877e-12
6.26593e-09
1.60836e-08
1.77294e-07
3.97699e-07
2.18708e-07
8.82141e-08
9.49869e-08
4.77905e-08
4.53666e-09
1.07789e-09
5.91333e-10
5.05417e-10
3.41743e-10
1.91879e-10
9.4678e-11
4.46243e-11
1.99212e-11
7.7741e-12
2.36683e-12
5.27062e-13
1.90754e-13
4.83927e-13
1.58322e-12
6.2442e-09
1.26241e-08
2.5399e-08
4.84332e-08
2.59098e-08
1.54512e-07
1.77249e-07
6.10712e-08
5.52991e-09
1.18837e-09
4.75418e-10
3.52881e-10
2.32204e-10
1.22183e-10
5.46837e-11
2.34986e-11
1.02934e-11
4.23521e-12
1.46363e-12
3.69552e-13
9.33482e-14
1.44415e-13
6.75052e-13
1.92922e-08
1.15123e-08
1.11916e-08
1.25683e-08
9.43115e-08
1.86728e-07
1.76625e-07
3.65683e-08
4.24495e-09
1.14752e-09
3.24677e-10
2.05769e-10
1.36712e-10
6.74113e-11
2.66138e-11
1.00074e-11
4.03085e-12
1.68516e-12
6.55071e-13
2.0161e-13
4.91541e-14
5.52513e-14
2.24299e-13
2.66316e-08
1.13436e-08
1.11877e-08
5.32175e-08
1.58813e-07
1.80152e-07
5.12407e-08
4.75902e-09
1.64222e-09
5.00626e-10
1.48956e-10
1.01666e-10
6.75748e-11
3.15935e-11
1.11966e-11
3.54666e-12
1.18057e-12
4.45791e-13
1.96356e-13
8.00967e-14
2.30787e-14
1.49059e-14
6.566e-14
2.34213e-08
1.12819e-08
3.13975e-08
1.17703e-07
1.54092e-07
7.28426e-08
7.54019e-09
1.09107e-09
2.72732e-10
9.68532e-11
4.13772e-11
3.70199e-11
2.61491e-11
1.20739e-11
4.01525e-12
1.03768e-12
2.61562e-13
7.90782e-14
3.53255e-14
2.20381e-14
7.44201e-15
4.68729e-15
1.81315e-14
1.337e-08
1.12882e-08
6.53016e-08
1.25763e-07
8.15012e-08
1.78388e-08
2.67269e-09
3.14196e-10
6.64958e-11
2.21934e-11
8.6979e-12
8.9048e-12
6.93117e-12
3.29345e-12
1.01833e-12
2.21718e-13
3.93799e-14
7.97337e-15
3.84167e-15
3.81952e-15
1.88234e-15
1.26374e-15
4.6979e-15
8.16529e-08
9.02865e-08
1.27719e-07
7.48212e-08
1.89779e-08
3.30182e-09
3.72278e-10
2.79707e-11
1.06777e-11
2.3802e-12
6.48516e-13
1.06913e-12
9.5331e-13
4.6751e-13
1.38046e-13
2.49164e-14
3.0664e-15
4.12742e-16
2.51272e-16
4.36103e-16
4.37223e-16
3.33689e-16
1.14547e-15
0.0556386
0.440809
0.460594
0.436901
0.451057
0.453258
0.432081
0.42076
0.430048
0.427298
0.430755
0.409358
0.994961
0.978042
0.967163
0.966403
0.998536
0.998521
0.996522
0.995708
0.986301
0.974047
0.948225
0.939051
0.569365
0.438535
0.308235
0.275924
-2.60074e-20
7.64481e-20
5.2534e-18
5.25463e-18
3.86884e-18
9.11424e-09
3.36759e-08
1.19133e-08
4.13641e-07
9.30698e-09
9.60712e-08
1.60761e-07
3.30715e-07
3.02184e-07
3.43268e-07
7.19603e-07
1.67185e-05
1.49127e-05
1.8397e-06
3.65266e-07
1.14453e-06
1.31737e-06
1.30968e-06
1.30647e-05
9.56771e-09
9.24248e-09
3.53844e-05
6.46235e-05
1.07015e-08
8.97941e-09
3.14738e-05
6.44641e-05
5.05985e-08
7.8734e-08
7.60614e-08
7.70437e-08
1.31589e-07
2.49439e-07
2.89791e-07
2.2834e-07
1.46296e-07
1.73049e-07
1.77714e-07
1.15327e-07
1.13569e-08
1.35072e-08
5.28557e-08
7.26191e-08
5.47314e-09
9.78314e-09
3.69886e-08
4.88197e-08
5.7514e-09
9.86299e-09
1.40596e-08
1.15449e-08
3.76141e-09
3.69016e-09
4.29178e-09
5.5398e-09
2.39329e-09
2.71296e-09
3.46745e-09
3.67904e-09
1.58601e-09
1.68181e-09
2.03908e-09
2.3004e-09
1.00149e-09
1.08781e-09
1.24444e-09
1.37738e-09
6.05152e-10
6.66571e-10
7.69812e-10
8.65539e-10
3.43161e-10
3.99412e-10
4.76638e-10
5.34286e-10
2.07065e-10
2.47449e-10
2.94822e-10
3.37004e-10
1.2249e-10
1.57323e-10
1.95684e-10
2.36319e-10
8.19525e-11
1.07944e-10
1.37751e-10
1.64306e-10
5.54372e-11
7.41438e-11
9.90088e-11
1.24679e-10
3.72945e-11
5.34002e-11
7.06274e-11
8.92598e-11
2.31756e-11
3.49555e-11
4.83869e-11
6.3833e-11
1.50635e-11
2.12088e-11
3.07804e-11
4.21941e-11
7.47357e-12
1.15285e-11
1.75855e-11
2.39037e-11
4.0604e-12
6.1285e-12
9.23451e-12
1.37055e-11
1.59338e-12
2.81842e-12
4.57833e-12
6.36331e-12
7.0199e-13
1.11064e-12
1.76853e-12
2.77592e-12
2.04705e-13
3.64174e-13
6.39389e-13
9.58768e-13
6.07111e-14
1.0615e-13
1.82439e-13
3.24344e-13
1.60024e-14
2.96074e-14
5.53395e-14
8.99077e-14
4.13665e-15
7.7268e-15
1.41318e-14
2.19137e-14
0.14968
0.0259518
0.113841
0.427419
0.437471
0.296265
0.134235
0.039733
0.182739
0.282679
0.403088
0.146233
0.0810597
0.0756407
0.441626
0.781631
0.901007
0.80947
0.833385
0.209351
0.268329
0.713982
0.954946
0.947835
0.890759
0.604201
0.37777
0.689699
0.762531
0.426662
0.199482
0.350298
0.773202
0.975327
0.990582
0.99072
0.990684
0.990899
0.425592
0.778192
0.966251
0.995016
0.992817
0.961994
0.65739
0.450045
0.878304
0.887729
0.876054
0.776531
0.843732
0.944907
0.988198
0.969668
0.980863
0.990899
0.990899
0.966682
0.976702
0.998995
0.998995
0.99899
0.964926
0.623765
0.368872
0.368681
0.395546
0.858946
0.965226
0.948949
0.994178
0.988756
0.93477
0.895774
0.986502
0.989343
0.998612
0.998995
0.998995
0.998995
0.998995
0.996766
0.958202
0.913267
0.698244
0.649895
0.751965
0.996403
0.996928
0.997304
0.996857
0.974396
0.790421
0.989863
0.989857
0.961691
0.994862
0.998995
0.998814
0.998995
0.998993
0.998687
0.998698
0.99397
0.992664
0.942365
0.974256
0.996451
0.997304
0.997304
0.997304
0.740225
0.989862
0.989863
0.339372
0.486892
0.659344
0.703794
0.703649
0.690028
0.689276
0.678815
0.722757
0.801124
0.909693
0.976919
0.994145
0.996212
0.9924
0.98132
0.664134
0.780297
0.988914
5.80245e-07
0.00279055
0.015925
0.0318142
0.0310638
0.0215032
0.0155749
0.0142514
0.0250794
0.0719826
0.196551
0.344712
0.478241
0.528719
0.488996
0.391009
0.178176
0.177188
0.496554
5.48486e-09
2.98885e-19
2.89141e-20
-5.08611e-20
-3.81126e-20
2.06416e-20
-2.69108e-09
-1.16118e-07
-1.30402e-07
-3.44495e-08
1.12133e-19
0.00155897
0.0165031
0.0218625
0.00709356
4.37324e-11
4.69998e-24
-3.78341e-11
-5.02743e-12
1.34148e-07
3.02769e-08
-1.87448e-12
1.05609e-08
1.02129e-08
-5.89703e-11
3.26061e-06
7.05045e-05
8.73629e-05
9.38197e-06
-1.38019e-09
3.48438e-13
-3.48438e-13
4.60801e-09
4.73688e-09
2.20251e-05
1.88706e-06
-6.69925e-13
1.54848e-10
8.73746e-07
7.64103e-07
1.47282e-07
6.9415e-10
8.33931e-10
-1.98517e-25
2.43243e-06
9.5161e-05
0.000131876
0.000131987
9.06151e-05
7.12788e-06
2.3405e-05
7.45357e-05
0.000148588
8.49337e-05
1.9621e-06
-3.2154e-12
1.94391e-09
3.67946e-07
3.7311e-07
2.75424e-06
1.09554e-06
2.99192e-15
1.55563e-21
9.46e-09
4.65589e-06
9.73974e-06
1.71199e-05
8.76208e-05
0.000182983
0.0001968
0.0002165
0.0002167
0.000112351
1.28116e-12
-5.95686e-19
3.09182e-09
5.65693e-05
2.08564e-05
3.63317e-06
4.36922e-06
3.20029e-06
4.15609e-06
6.73831e-06
4.49479e-06
1.98983e-06
2.04525e-06
2.4347e-06
1.3912e-06
1.37191e-06
4.51195e-05
0.000216564
1.68656e-07
1.93061e-08
-3.72038e-24
6.7526e-24
6.28986e-05
6.18138e-05
4.2305e-05
1.28234e-05
3.25524e-06
3.36534e-06
7.78582e-06
1.59124e-05
1.5923e-05
1.04595e-05
2.49606e-06
1.88422e-06
2.16622e-06
0.0001051
0.000118485
5.78591e-08
7.57594e-07
7.27462e-06
3.28412e-06
5.92867e-05
2.7155e-05
8.13768e-06
3.5744e-06
1.57442e-05
3.53337e-05
2.51931e-05
7.62127e-06
6.77706e-06
2.56944e-05
1.49965e-05
5.67667e-07
4.88124e-05
0.000284014
7.04582e-05
7.11823e-08
7.52033e-05
0.000193288
0.000175032
1.11102e-06
1.47436e-07
1.35371e-07
1.2848e-07
3.39296e-05
3.77252e-05
3.8115e-05
1.28883e-05
5.84044e-06
2.57171e-05
1.52581e-05
5.32958e-07
8.82712e-05
0.000284711
0.000198522
1.1721e-05
0.000202955
0.000237994
0.000237987
4.29076e-07
3.0243e-07
1.2848e-07
7.8163e-07
3.64986e-05
3.81836e-05
2.0515e-05
7.13206e-06
5.24818e-06
1.99353e-05
1.27124e-05
5.32944e-07
4.24622e-05
0.000284929
0.000256065
2.20141e-05
0.000186149
0.000238062
0.000238027
6.85417e-07
1.2286e-06
7.1145e-07
1.65856e-06
9.63129e-06
2.26994e-05
2.06975e-05
1.99478e-05
2.00393e-05
2.02454e-05
1.17047e-05
5.41849e-07
4.82039e-08
0.00022222
0.000255656
3.15803e-05
3.47667e-05
0.000108894
0.000237994
7.00962e-07
1.96887e-06
2.10607e-06
2.734e-06
4.98642e-06
9.22371e-06
1.53697e-05
1.51468e-05
1.46913e-05
9.73102e-06
3.09986e-06
5.72493e-07
4.7199e-08
0.000183125
0.000231765
1.61773e-05
1.4663e-05
1.96263e-05
0.000127996
7.36225e-09
7.43749e-09
7.51586e-09
4.27567e-08
1.77153e-07
3.00669e-07
9.66746e-07
1.16838e-06
1.00145e-06
5.65741e-07
8.00836e-07
5.28947e-07
4.79558e-08
6.83867e-05
6.61989e-05
4.15615e-06
4.42037e-05
2.44457e-05
2.46823e-05
7.2863e-09
8.85429e-09
1.29481e-08
2.13287e-08
6.56425e-08
2.18587e-07
3.50168e-07
4.18012e-07
3.64416e-07
3.58739e-07
3.45452e-07
2.31284e-07
5.01549e-08
4.54517e-08
4.49679e-08
8.36872e-07
4.44192e-05
4.84742e-05
0.000139316
6.92308e-09
8.7436e-09
1.4335e-08
3.35882e-08
8.22979e-08
1.64153e-07
2.59565e-07
2.57407e-07
2.14361e-07
2.03567e-07
1.30972e-07
7.21888e-08
3.69058e-08
1.62978e-07
4.84e-08
4.88088e-08
8.43347e-06
5.39445e-05
0.000142039
4.29302e-09
5.39421e-09
7.9638e-09
1.54461e-08
3.44949e-08
7.74995e-08
1.40348e-07
1.60197e-07
1.31125e-07
8.64181e-08
5.1501e-08
3.6608e-08
2.60415e-08
1.33778e-07
5.60322e-08
4.91654e-08
4.92286e-08
2.00121e-05
8.96541e-05
2.41222e-09
2.92835e-09
3.34997e-09
3.82075e-09
4.38714e-09
6.66558e-09
1.41511e-08
2.5453e-08
3.04146e-08
2.6429e-08
2.05347e-08
2.01992e-08
1.81651e-08
5.28688e-08
1.71109e-08
2.29849e-07
4.81926e-07
2.4122e-06
5.85352e-09
1.5227e-09
1.76236e-09
1.97913e-09
2.07831e-09
2.02974e-09
2.11688e-09
2.44676e-09
4.01274e-09
6.37275e-09
8.07669e-09
9.09612e-09
1.28217e-08
1.26215e-08
1.69398e-08
1.75371e-08
4.16357e-07
4.76513e-07
5.96152e-09
6.19829e-09
9.25585e-10
1.11933e-09
1.30132e-09
1.49839e-09
1.76251e-09
2.17451e-09
2.78259e-09
3.50131e-09
4.35739e-09
5.25611e-09
6.19826e-09
8.75634e-09
1.03436e-08
5.36648e-09
5.27914e-09
1.25579e-07
1.19743e-07
9.79844e-09
6.07724e-08
6.07183e-10
7.5266e-10
9.16312e-10
1.11813e-09
1.38191e-09
1.75131e-09
2.28243e-09
2.96377e-09
3.77274e-09
4.60442e-09
5.50581e-09
7.03865e-09
7.775e-09
1.05977e-08
1.96055e-08
6.8543e-07
3.10664e-07
1.13853e-07
3.4524e-07
3.97846e-10
5.25527e-10
6.75709e-10
8.6613e-10
1.11252e-09
1.4413e-09
1.90283e-09
2.51102e-09
3.24864e-09
4.09912e-09
5.16488e-09
7.00693e-09
6.85287e-09
1.32568e-07
8.4136e-07
1.0387e-06
9.21373e-07
1.6216e-07
3.84451e-06
2.81497e-10
3.91985e-10
5.32712e-10
7.09263e-10
9.33494e-10
1.23246e-09
1.64497e-09
2.20074e-09
2.89517e-09
3.71468e-09
4.70376e-09
6.80744e-09
1.95874e-08
1.29713e-07
4.51679e-07
7.16018e-07
5.50767e-07
2.4988e-07
4.17822e-06
2.08797e-10
3.06309e-10
4.33755e-10
5.97234e-10
8.11699e-10
1.09545e-09
1.48269e-09
2.05925e-09
2.83533e-09
3.71375e-09
4.59263e-09
5.96733e-09
1.66211e-08
1.01648e-07
4.51093e-07
1.65822e-07
1.65561e-07
7.69584e-08
3.51776e-06
1.52982e-10
2.44493e-10
3.54004e-10
4.98117e-10
6.8806e-10
9.56148e-10
1.35968e-09
1.99315e-09
2.95679e-09
4.25769e-09
5.4081e-09
5.87165e-09
1.01506e-08
1.19235e-07
3.06134e-06
5.5098e-06
7.18089e-08
7.16456e-08
2.56052e-07
1.20467e-10
1.87878e-10
2.7556e-10
3.94364e-10
5.6016e-10
8.01208e-10
1.1857e-09
1.85856e-09
3.0471e-09
4.95121e-09
7.33446e-09
7.9949e-09
8.86985e-09
1.76645e-07
5.15171e-06
7.14017e-06
5.10514e-06
6.26941e-08
1.14988e-07
8.246e-11
1.32611e-10
2.00281e-10
2.94454e-10
4.24714e-10
6.23432e-10
9.59018e-10
1.59544e-09
2.86896e-09
5.43617e-09
1.00583e-08
1.49009e-08
1.22957e-08
4.12544e-08
3.01617e-06
7.21391e-06
7.19872e-06
3.37834e-06
3.59703e-06
5.54141e-11
9.05432e-11
1.37984e-10
2.04034e-10
2.98242e-10
4.45315e-10
7.07357e-10
1.22605e-09
2.34427e-09
5.03091e-09
1.21455e-08
2.74947e-08
4.13662e-08
4.08252e-08
2.91997e-07
5.35726e-06
7.15251e-06
7.16642e-06
2.96912e-06
3.44104e-11
5.5588e-11
8.62948e-11
1.2914e-10
1.91824e-10
2.92802e-10
4.7516e-10
8.34786e-10
1.62574e-09
3.65865e-09
9.18196e-09
3.57296e-08
9.39784e-08
1.12161e-07
1.12412e-07
5.67036e-07
4.34205e-06
3.45369e-06
3.24585e-07
1.8267e-11
3.09606e-11
4.88345e-11
7.43235e-11
1.12625e-10
1.7649e-10
2.94878e-10
5.27235e-10
1.00566e-09
2.10617e-09
5.92806e-09
2.33386e-08
9.49036e-08
1.67475e-07
1.30923e-07
8.76262e-08
8.19216e-08
1.95701e-07
5.82304e-08
8.90373e-12
1.54051e-11
2.48515e-11
3.86612e-11
6.0566e-11
9.79384e-11
1.67413e-10
3.1098e-10
6.15555e-10
1.27125e-09
2.91782e-09
9.84937e-09
4.3082e-08
1.53796e-07
1.99492e-07
8.32982e-08
3.17162e-08
3.1315e-08
9.24836e-08
3.79809e-12
6.81917e-12
1.12859e-11
1.81597e-11
2.93452e-11
4.92335e-11
8.84266e-11
1.70697e-10
3.47603e-10
7.25951e-10
1.5591e-09
3.83459e-09
1.44105e-08
6.93691e-08
2.05706e-07
2.114e-07
5.72382e-08
3.27232e-08
2.16488e-07
1.4543e-12
2.64356e-12
4.5229e-12
7.62172e-12
1.29311e-11
2.2719e-11
4.22834e-11
8.46422e-11
1.81008e-10
4.00201e-10
8.53247e-10
1.78645e-09
4.63278e-09
1.89915e-08
1.26405e-07
2.40663e-07
2.04789e-07
1.56987e-07
2.26362e-07
4.67121e-13
8.71781e-13
1.55884e-12
2.78067e-12
5.04846e-12
9.4278e-12
1.83985e-11
3.84819e-11
8.74296e-11
2.04545e-10
4.76773e-10
1.09369e-09
2.6313e-09
8.17948e-09
4.0946e-08
1.79486e-07
2.39985e-07
2.4023e-07
1.34552e-07
1.28077e-13
2.48914e-13
4.63753e-13
8.77292e-13
1.70834e-12
3.38655e-12
6.84999e-12
1.47585e-11
3.41314e-11
8.34186e-11
2.06815e-10
4.99156e-10
1.19815e-09
3.30545e-09
1.35694e-08
6.98682e-08
2.10363e-07
2.30222e-07
2.27647e-08
3.07529e-14
5.9258e-14
1.12518e-13
2.18945e-13
4.36052e-13
8.68982e-13
1.81928e-12
3.89336e-12
8.64861e-12
2.10584e-11
5.36962e-11
1.39046e-10
3.43522e-10
8.08453e-10
2.29765e-09
1.04534e-08
4.68881e-08
6.81694e-08
4.34464e-09
)
;

boundaryField
{
    leftWall
    {
        type            zeroGradient;
    }
    rightWall
    {
        type            zeroGradient;
    }
    lowerWall
    {
        type            zeroGradient;
    }
    atmosphere
    {
        type            inletOutlet;
        inletValue      uniform 0;
        value           nonuniform List<scalar> 
46
(
8.16529e-08
9.02865e-08
1.27719e-07
7.48212e-08
1.89779e-08
3.30182e-09
0
0
0
0
0
0
0
0
0
0
0
0
0
0
0
3.33689e-16
1.14547e-15
4.13665e-15
7.7268e-15
1.41318e-14
0
0
0
0
0
0
0
0
0
0
0
0
0
0
8.08453e-10
2.29765e-09
1.04534e-08
4.68881e-08
6.81694e-08
4.34464e-09
)
;
    }
    defaultFaces
    {
        type            empty;
    }
}


// ************************************************************************* //
