/*--------------------------------*- C++ -*----------------------------------*\
| =========                 |                                                 |
| \\      /  F ield         | OpenFOAM: The Open Source CFD Toolbox           |
|  \\    /   O peration     | Version:  2312                                  |
|   \\  /    A nd           | Website:  www.openfoam.com                      |
|    \\/     M anipulation  |                                                 |
\*---------------------------------------------------------------------------*/
FoamFile
{
    version     2.0;
    format      ascii;
    arch        "LSB;label=32;scalar=64";
    class       volScalarField;
    location    "3.5";
    object      p_rgh;
}
// * * * * * * * * * * * * * * * * * * * * * * * * * * * * * * * * * * * * * //

dimensions      [1 -1 -2 0 0 0 0];

internalField   nonuniform List<scalar> 
2268
(
5402.72
5411.7
5430.3
5459.97
5501.02
5552.34
5611.42
5674.86
5739.38
5802.31
5861.2
5913.58
5956.92
5988.89
6007.67
6012.66
6005.07
5985.96
5957.35
5922.37
5886.77
5858.38
5843.81
5399.48
5408.32
5427.14
5456.69
5497.8
5549.52
5609.29
5673.42
5738.58
5802.12
5861.72
5914.87
5958.98
5991.59
6010.71
6015.46
6007.54
5987.75
5958
5921.14
5883.21
5852.79
5837.58
5395.1
5403.49
5421.34
5450.11
5491.07
5543.51
5604.7
5670.32
5736.81
5801.65
5862.73
5917.49
5963.19
5997.09
6016.79
6020.94
6012.32
5991.06
5958.89
5918.09
5875.23
5840.6
5824.73
5389.11
5396.09
5412.34
5439.75
5480.28
5533.81
5597.39
5665.54
5734.25
5801.23
5864.77
5922.12
5970.25
6006.07
6026.73
6029.44
6019.77
5996.14
5960.31
5913.33
5862.59
5821.11
5804.15
5336.84
5345.15
5367.86
5406.91
5459.87
5520.21
5587.82
5659.86
5731.91
5801.81
5868.77
5929.51
5980.9
6019.34
6041.32
6040.83
6027.81
6001.47
5959.14
5905.76
5843.57
5791.87
5764.22
3203.6
3228.34
3296.82
3440.36
3685.97
4058.41
4478.8
4858.91
5198.27
5477.5
5695.96
5853.16
5962.73
6030.65
6061.63
6046.58
6027.26
5999.62
5960.17
5848.92
5668.69
5448.89
5409.38
1389.23
1387.47
1385.61
1382.48
1377.34
1370.75
1463.39
1664.51
1932.81
2277.43
2710.48
3186.13
3616.26
3958.99
4258.35
4296.96
4209.86
4055.41
3890.04
3472.15
3010.94
2681.38
2666.67
1389.96
1388.25
1386.12
1382.74
1376.9
1369.67
1358.47
1345.66
1329.32
1310.84
1289.96
1270.78
1309.75
1376.85
1364.18
1433.24
1546.59
1498.74
1200.39
1148.94
1137.25
1168.47
1200.93
3074.06
3016.82
2973.13
2961.88
2986.56
3023.99
3068.03
3097.39
3090.18
3029.58
2920.14
2780.27
2666.39
2616.87
2630.27
2687.18
2790.47
2906.84
2993.82
3085.96
3024.26
2973.37
2956.21
2984.53
3029.53
3076.81
3109.62
3106.16
3042.44
2910.26
2728.76
2575.21
2494.16
2498.82
2572.36
2728.68
2899.78
3007.64
2749.64
2589.57
2481.03
2462.33
2565.25
2682.27
2781.85
2807.98
2758
2527.53
2341.18
2062.84
1787.61
1739.34
1846.38
1983.47
2130.18
2268.93
2452.64
1617.96
1395.9
1196.74
1116.18
1139.17
1217.97
1402.79
1601.6
1771.49
1828.91
1530.96
1101.74
1065.6
1058.81
1041.97
1102.71
1315.29
1689.26
1931.46
1008.21
970.449
1011.96
1011.43
999.109
992.796
984.582
1011.18
980.473
952.962
953.048
1070.38
1112.78
1112.09
1093.69
1069.14
1013.64
956.354
975.692
969.569
1037.35
1070.59
1070.86
1065.51
1056.34
1047.36
1057.51
1028.5
916.53
972.61
1035.41
1042.37
1048.11
1052.26
1032.35
1016.92
1001.6
1006.63
949.653
1071.03
1067.63
1032.88
1015.92
1033.75
1040.51
1012.71
1082.7
926.563
967.68
1031.94
1036.49
1013.54
1020.96
1016.02
1024.05
1024.35
1030.45
943.351
1040.67
1031.49
992.41
985.681
989.033
997.835
1002.79
1073.03
983.328
983.008
1012.57
1025.64
1009.26
1013.92
1022.65
1048.74
1047.1
1042.59
1388.87
1386.87
1385.49
1382.87
1377.33
1368.91
1357.9
1345.49
1330.31
1307.49
1289.3
1273.55
1262.64
1250.2
1277.59
1264.12
1235.99
1171.93
1166.98
1157.2
1133.27
1097.99
1060.69
1390.37
1387.82
1384.56
1380.9
1376.18
1368.57
1358.47
1346.48
1333.13
1314.93
1295.56
1279.51
1259.9
1257.64
1248.19
1215.93
1172.78
1151.52
1138.82
1120.62
1092
1036.5
948.241
1392.56
1389.81
1383.71
1382.95
1378.91
1373.94
1363.96
1349.25
1336.09
1322.87
1319.69
1307.03
1288.67
1250.45
1229.15
1214.99
1170.65
1138.02
1055.32
909.62
839.535
843.961
924.257
1305.02
1296.71
1336
1369.86
1387.83
1374.92
1355.89
1320.32
1308.06
1328.78
1343.1
1324.62
1286.67
1248.3
1222.06
1221.13
1061.45
853.262
739.697
728.681
739.043
714.886
692.225
1006.46
1079.57
1177.86
1242.6
1280.99
1290.86
1302.32
1291.08
1292.26
1320.23
1319.7
1263.08
1201.54
1194.8
1094.18
842.618
773.906
712.412
707.116
707.21
701.637
691.514
686.275
868.088
898.599
940.981
915.727
930.446
962.339
963.1
976.837
1025.91
1052.06
1018.23
982.488
877.714
786.781
762.736
711.022
713.031
714.56
707.49
699.573
691.841
686.107
686.843
874.277
923.259
909.495
872.385
837.656
824.21
817.791
800.401
778.385
756.989
740.067
705.485
668.539
700.043
721.51
720.789
717.176
714.757
705.777
683.113
641.272
588.161
524.194
907.565
935.237
906.383
887.543
868.395
845.923
822.599
797.962
776.34
752.29
701.269
666.032
646.869
636.502
626.218
608.119
569.043
500.939
387.765
266.575
171.375
106.882
66.8023
936.357
933.05
918.237
901.968
879.482
850.773
788.656
600.491
394.854
243.235
169.506
131.141
121.676
113.305
98.907
73.5507
40.6472
17.8915
17.8442
15.487
6.38157
0.247588
0.179392
952.254
948.056
937.626
921.88
846.941
593.786
240.466
66.8729
14.0134
2.73278
1.46178
14.2928
21.9663
17.7384
4.76274
2.2724
0.121603
0.0134527
0.0468282
0.085936
0.121923
0.152304
0.15723
998.634
1013.7
963.064
930.607
651.209
159.33
4.4204
1.57564
0.723559
0.370212
0.198101
0.493958
-0.14565
-0.109342
-0.103465
-0.0727994
-0.0149548
0.0447365
0.0854721
0.121963
0.16196
0.187573
0.184787
1070.25
1080.09
1064.89
788.326
203.874
7.48403
1.04286
0.639322
0.34188
0.24576
0.135174
-0.00956612
-0.117889
-0.104914
-0.0638496
-0.0245022
0.0161367
0.055692
0.100444
0.132403
0.161134
0.19379
0.204875
1049.21
871.778
492.6
96.8635
19.1539
0.58798
0.272676
0.167516
0.19369
0.174168
0.111649
0.0223448
-0.0312616
-0.0402686
-0.023938
0.00243551
0.0332163
0.0625187
0.0916142
0.148009
0.172423
0.16003
0.157337
92.3892
-0.273264
-0.335896
-0.306623
-0.25859
-0.188748
-0.113483
0.044631
0.107112
0.107413
0.0794903
0.0428091
0.0132172
-0.00216543
0.0046265
0.020669
0.0440066
0.0842843
0.147781
0.209363
0.204602
0.15182
0.137216
-0.32276
-0.295621
-0.31414
-0.306475
-0.257331
-0.227669
-0.116684
-0.0107529
0.0359833
0.0551653
0.0662119
0.0574093
0.0516427
0.0475601
0.0542352
0.050133
0.0967091
0.165603
0.199982
0.264895
0.213125
0.150882
0.110448
-0.285653
-0.265881
-0.245711
-0.213975
-0.179382
-0.157011
-0.0981595
-0.0459529
-0.0101013
0.0482191
0.143895
0.16843
0.16579
0.158745
0.170197
0.199314
0.155369
0.13297
0.149624
0.152451
0.123173
0.0915859
0.091898
-0.236028
-0.227842
-0.210517
-0.186002
-0.155116
-0.126056
-0.0923443
-0.0538259
-0.0144296
0.132751
0.146758
0.136276
0.0631382
0.081506
0.0988956
0.103113
0.0848775
0.0512476
0.0514258
0.0587425
0.0665691
0.0733572
0.0781592
-0.200483
-0.194583
-0.182105
-0.164162
-0.138158
-0.112706
-0.0868098
-0.0534266
0.000512031
0.0269345
0.0176716
-0.00389214
-0.0011007
0.00905897
0.0253105
0.028
0.0292401
0.0363709
0.0441715
0.0514089
0.0579184
0.0633023
0.0670239
-0.170268
-0.165891
-0.1566
-0.143647
-0.126027
-0.106174
-0.0843253
-0.0600063
-0.0421655
-0.0347826
-0.0232013
-0.0136715
-0.00515032
0.0034481
0.00993665
0.0166483
0.0241515
0.0315323
0.0384811
0.0447972
0.0503402
0.054831
0.057896
-0.145963
-0.142536
-0.135375
-0.125185
-0.112031
-0.096582
-0.0800389
-0.0630016
-0.0494108
-0.0367586
-0.0258788
-0.0164292
-0.00796257
-0.000358955
0.00686436
0.0138569
0.0206796
0.027244
0.0333799
0.038935
0.0437567
0.0476501
0.0503631
-0.126179
-0.123556
-0.118012
-0.109962
-0.0994147
-0.086958
-0.073479
-0.0603185
-0.0479357
-0.0368711
-0.0270393
-0.01811
-0.0099441
-0.00245796
0.00451565
0.0111053
0.0173798
0.0233085
0.0287996
0.0337435
0.0380197
0.0414933
0.043969
-0.10989
-0.107901
-0.103582
-0.0970742
-0.0884178
-0.0781919
-0.0671817
-0.0561596
-0.0456497
-0.0359359
-0.0272046
-0.0189581
-0.0112696
-0.00419644
0.00237756
0.00853726
0.0143242
0.0197256
0.0246867
0.0291325
0.0329766
0.036118
0.0384331
-0.0964237
-0.0948775
-0.0915099
-0.0860672
-0.0788635
-0.0703941
-0.0612523
-0.0519815
-0.0429832
-0.0344628
-0.0265167
-0.0190663
-0.012092
-0.00556715
0.000530975
0.00623582
0.0115633
0.0165017
0.0210142
0.0250486
0.0285366
0.0313987
0.0335881
-0.0852271
-0.0842109
-0.0811661
-0.0765448
-0.0705099
-0.0634411
-0.0557757
-0.0479154
-0.0401466
-0.0326462
-0.025523
-0.0188469
-0.0125433
-0.00659685
-0.00100452
0.00423765
0.00912641
0.0136458
0.0177664
0.0214444
0.0246255
0.0272606
0.0293391
-0.0755392
-0.0746697
-0.0721314
-0.0682378
-0.0631677
-0.0572326
-0.050765
-0.0440671
-0.0373329
-0.0307561
-0.0244314
-0.0184196
-0.0127227
-0.00732895
-0.00224199
0.00254794
0.00701977
0.0111532
0.0149181
0.018277
0.0211942
0.0236414
0.025613
-0.0671142
-0.0664195
-0.0642758
-0.0609912
-0.0567178
-0.0517128
-0.0462357
-0.0404941
-0.0346665
-0.0288733
-0.0232464
-0.0178542
-0.0127163
-0.00783406
-0.00321164
0.0011469
0.00522438
0.00899656
0.0124349
0.0155104
0.0181965
0.0204721
0.0223435
-0.0597662
-0.0592688
-0.0574565
-0.0546817
-0.051072
-0.0468396
-0.0421953
-0.0372689
-0.032165
-0.0270408
-0.0220256
-0.0171905
-0.0125626
-0.00815046
-0.00395994
-7.62039e-07
0.00370936
0.00714742
0.010288
0.0131067
0.0155824
0.0177023
0.0194703
-0.053391
-0.0530678
-0.0515455
-0.0492041
-0.046151
-0.0425638
-0.0386062
-0.0343393
-0.0298418
-0.0252865
-0.0208005
-0.0164573
-0.0122879
-0.00830364
-0.00451133
-0.000921486
0.00244885
0.00557843
0.0084446
0.0110264
0.0133068
0.0152744
0.0169403
-0.0478094
-0.0477009
-0.0464374
-0.0444664
-0.0418783
-0.0388272
-0.0354259
-0.0316865
-0.0276922
-0.0236168
-0.0195873
-0.0156759
-0.0119152
-0.00831758
-0.00488944
-0.00163988
0.00141612
0.00425974
0.00687088
0.00923145
0.0113268
0.0131509
0.0147089
-0.0430136
-0.0430522
-0.042023
-0.0403583
-0.0381652
-0.035551
-0.0325925
-0.0292767
-0.0256947
-0.0220253
-0.0183901
-0.014859
-0.0114629
-0.00821416
-0.00511812
-0.00218155
0.000583596
0.00316129
0.00553411
0.00768632
0.00960588
0.0112858
0.0127375
-0.0387929
-0.0390195
-0.0381718
-0.0365662
-0.0340458
-0.031751
-0.0298388
-0.027051
-0.023818
-0.0204955
-0.0172042
-0.0140113
-0.0109436
-0.00801159
-0.00521908
-0.00257071
-7.51594e-05
0.00225456
0.00440359
0.00635829
0.00810828
0.00965034
0.0109898
-0.0351082
-0.0354552
-0.03472
-0.0331546
-0.0302006
-0.0280752
-0.0269159
-0.0248708
-0.0220173
-0.0190056
-0.0160193
-0.0131309
-0.0103631
-0.00772246
-0.00520996
-0.0028284
-0.000583757
0.00151374
0.00345157
0.00521825
0.00680483
0.00820678
0.00943487
-0.031703
-0.0321922
-0.0315049
-0.0291022
-0.0269843
-0.0249691
-0.0233158
-0.0222204
-0.0202039
-0.0175247
-0.0148176
-0.0122088
-0.00971979
-0.00735225
-0.00510235
-0.00297076
-0.000961679
0.000916823
0.0026543
0.00424086
0.00566844
0.00693604
0.00804749
-0.0285114
-0.0290554
-0.0284075
-0.0263047
-0.0242578
-0.0216645
-0.0169217
-0.0161269
-0.0182977
-0.0160102
-0.013571
-0.0112283
-0.0090063
-0.00690018
-0.00490163
-0.00300857
-0.00122374
0.000446159
0.00199204
0.00340518
0.00467877
0.00580959
0.00680698
-0.0253372
-0.0258227
-0.0255049
-0.0235772
-0.022344
-0.0204215
-0.0145548
-0.0123267
-0.0163296
-0.0144224
-0.0122454
-0.0101691
-0.00821207
-0.00636249
-0.00460914
-0.00294806
-0.00138021
8.82543e-05
0.00144891
0.00269365
0.00381582
0.00481496
0.00569357
-0.0221031
-0.0223104
-0.0224679
-0.0217519
-0.0214821
-0.0197711
-0.0122717
-0.0143759
-0.0146022
-0.0127342
-0.010813
-0.00901741
-0.00733009
-0.005737
-0.00422621
-0.00279337
-0.00143863
-0.000167361
0.00101205
0.00209167
0.00306498
0.00392909
0.00469155
-0.0187653
-0.0188104
-0.0191904
-0.0193433
-0.0188523
-0.0173947
-0.0132831
-0.0137296
-0.0125755
-0.0108997
-0.0092688
-0.00777565
-0.00636516
-0.00502904
-0.00375874
-0.00255109
-0.00140663
-0.000330133
0.000670316
0.00158647
0.00241153
0.00314528
0.00378757
-0.0155808
-0.0152589
-0.0157063
-0.0158693
-0.0152144
-0.0139937
-0.0129092
-0.0117883
-0.010365
-0.00894971
-0.00763659
-0.00647487
-0.00533683
-0.00425451
-0.00322011
-0.00223291
-0.00129498
-0.000410732
0.000412602
0.00116637
0.0018445
0.00244409
0.00297094
-0.0123072
-0.0119221
-0.0122323
-0.012065
-0.0113742
-0.0105904
-0.00999844
-0.00906289
-0.00799187
-0.00696599
-0.0060055
-0.00512501
-0.00426907
-0.00343672
-0.00263083
-0.00185652
-0.00111857
-0.000422089
0.000226526
0.00081904
0.00134946
0.00182014
0.00222768
-0.00899521
-0.00887036
-0.00863433
-0.00820893
-0.00770289
-0.00731348
-0.00694699
-0.00631763
-0.00565623
-0.00501462
-0.00439529
-0.0037969
-0.00320107
-0.00260484
-0.00201633
-0.00144466
-0.000897336
-0.000381159
9.71768e-05
0.000530641
0.000915948
0.00125119
0.00154248
-0.00565131
-0.00553777
-0.00507545
-0.00461347
-0.00442223
-0.0043031
-0.00401396
-0.00371184
-0.00341995
-0.0031327
-0.00282929
-0.00250208
-0.00215005
-0.00177786
-0.00139668
-0.00101792
-0.000651301
-0.00030578
9.76122e-06
0.000284918
0.000505239
0.000726227
0.000901489
-0.00164307
-0.00173322
-0.00159767
-0.00154056
-0.00143004
-0.0012743
-0.001219
-0.00122766
-0.0012761
-0.00131224
-0.00129927
-0.00123021
-0.00111247
-0.000958417
-0.000780869
-0.000591698
-0.000400907
-0.000217829
-5.20676e-05
8.60238e-05
0.000196175
0.000247919
0.000294102
1035.75
930.609
930.124
949.738
905.742
905.481
916.992
944.305
925.123
918.275
893.596
897.855
689.043
686.206
687.534
686.663
692.453
699.689
725.085
734.613
682.207
724.435
735.752
727.134
477.743
432.257
347.691
326.321
66.6945
73.8457
88.4347
92.0407
0.408128
0.445835
0.242216
0.248751
0.183641
0.202915
0.213842
0.207643
0.18786
0.191729
0.193293
0.191618
0.199506
0.199117
0.18711
0.184744
0.164051
0.165938
0.166973
0.189908
0.137172
0.13968
0.178873
0.231427
0.113378
0.113561
0.149444
0.190354
0.0936585
0.094075
0.0940083
0.0931909
0.0796518
0.0801833
0.0804392
0.0799063
0.0683658
0.0687765
0.0690386
0.0686987
0.0589403
0.0592504
0.0593295
0.0590632
0.0513552
0.0517258
0.0518881
0.0517506
0.0450176
0.0454793
0.0457333
0.0457355
0.0395199
0.0400376
0.0403883
0.0405291
0.0346926
0.0352538
0.0356712
0.0359158
0.0304409
0.031021
0.0314853
0.0318055
0.0267018
0.0272925
0.0277798
0.0281514
0.0234071
0.0239944
0.0244977
0.0248999
0.0205023
0.021082
0.0215835
0.0220018
0.0179291
0.0184904
0.0189883
0.0194101
0.0156509
0.016192
0.0166717
0.0170885
0.0136241
0.0141357
0.0145981
0.0150009
0.0118192
0.0123015
0.0127344
0.0131182
0.0101989
0.0106442
0.0110513
0.0114109
0.00874558
0.0091555
0.00952637
0.00985938
0.00743368
0.00780134
0.00814034
0.0084428
0.00624961
0.00657763
0.00687566
0.00714623
0.00517142
0.005454
0.00571693
0.00595329
0.00419345
0.00443434
0.00465347
0.00485524
0.00330032
0.00349386
0.00367523
0.00383967
0.00248276
0.00263356
0.00276971
0.00289703
0.00172062
0.00182453
0.00192413
0.00201423
0.00100654
0.00106958
0.00112734
0.00118981
0.000316102
0.000323896
0.000327104
0.000327669
1007.23
1015.97
975.015
908.566
901.375
929.91
963.252
969.328
994.844
1094.54
1078.92
1090.65
1061.21
1062.31
965.454
907.111
877.043
883.593
867.862
1004.94
941.733
828.974
791.789
790.295
787.386
805.881
798.677
862.808
990.232
1069.3
1060.53
998.981
863.635
821.8
812.559
813.253
801.798
794.547
884.209
764.865
726.206
736.76
758.932
746.35
706.004
770.05
745.174
786.669
812.382
874.243
825.585
825.222
816.072
876.508
876.789
773.546
764.797
681.188
680.725
681.473
685.127
679.525
667.818
694.667
805.446
807.736
810.623
787.807
832.181
789.952
730.078
805.912
851.39
888.656
790.134
749.958
693.118
680.219
674.635
674.468
674.911
676.833
678.303
656.242
645.457
674.194
680.75
712.053
710.401
706.351
719.916
696.618
835.346
770.975
744.905
727.935
686.739
668.759
668.564
669.055
671.041
673.064
678.282
682.922
686.168
683.128
699.105
706.263
707.863
711.892
712.789
626.42
783.54
732.329
355.128
424.244
472.203
489.092
494.981
502.976
514.702
516.44
549.64
605.23
665.075
708.22
720.107
735.169
725.752
716.789
671.268
736.431
704.428
94.1294
74.0437
46.276
39.7104
46.6408
50.9621
52.0875
57.4823
74.8726
113.5
201.656
309.021
420.558
462.552
437.944
426.498
382.494
312.007
370.719
0.584948
2.21194
5.67258
5.98916
5.43593
1.9944
0.980512
1.63206
4.3267
6.71858
7.10882
8.36961
74.6648
152.767
139.963
100.301
81.8965
21.4233
10.7559
0.190722
0.187344
0.201452
0.224639
0.240328
0.269557
0.422973
0.638441
0.650453
0.979311
1.18728
4.74073
14.341
5.33606
0.129372
-0.00448302
0.0143431
0.0454427
1.5231
0.19473
0.208756
0.211309
0.210069
0.220052
0.518709
0.792062
0.904814
0.630491
0.5966
0.602773
0.720491
0.291238
0.0613494
0.165462
0.125275
0.112448
0.0606899
0.0950654
0.183511
0.18461
0.232413
0.238588
0.266251
0.350413
0.36617
0.273925
0.19757
0.148563
0.217242
0.308501
0.243026
0.245074
0.322635
0.28952
0.219568
0.0813343
0.072622
0.239403
0.214972
0.202362
0.197326
0.185689
0.195638
0.187108
0.149551
0.0976258
0.0764804
0.0504487
0.0229209
0.0109709
0.0791446
0.377445
0.157931
0.205543
0.0896866
0.0864079
0.246149
0.256739
0.231726
0.24726
0.242778
0.143026
0.119611
0.102558
0.0905664
0.0708491
0.0504424
0.0419294
0.057041
0.238671
0.216536
0.0806511
0.0957314
0.12535
0.105335
0.229371
0.230367
0.20638
0.261172
0.307373
0.258549
0.194868
0.0848619
0.0707477
0.082358
0.0598022
0.0419082
0.167667
0.489587
0.242044
0.0873262
0.351835
0.824886
0.692117
0.0967185
0.112503
0.123735
0.130899
0.294002
0.266475
0.223358
0.0864756
0.0699316
0.0908747
0.0680451
0.041204
0.202027
0.491344
0.423058
0.119124
0.878566
1.01651
1.02524
0.0795827
0.0796011
0.0781878
0.105088
0.187779
0.21783
0.153138
0.0896471
0.0879009
0.124644
0.0908357
0.0422722
0.118614
0.506694
0.454016
0.114415
0.860872
1.03271
1.03028
0.0682026
0.0666937
0.0674027
0.108618
0.136798
0.202639
0.179423
0.155375
0.148035
0.135094
0.06737
0.0484846
0.0665698
0.405169
0.456179
0.0858943
0.323943
0.447384
0.569513
0.059169
0.0587273
0.0602721
0.081556
0.107042
0.106139
0.120535
0.124667
0.112833
0.0749274
0.0432391
0.0434443
0.0503106
0.347589
0.402978
0.0599809
0.290725
0.180099
0.305056
0.0510542
0.0493641
0.0468241
0.0435154
0.0430788
0.039058
0.0397664
0.0414503
0.0410227
0.0379059
0.0338312
0.032264
0.0298651
0.133559
0.190878
0.282157
0.553451
0.193501
0.18449
0.0453608
0.0441536
0.0422295
0.0397119
0.0368941
0.0349851
0.0340179
0.0333105
0.0320477
0.0302781
0.0282976
0.0264158
0.0235727
0.0170925
0.112064
0.496758
0.531139
0.239929
0.519619
0.0404524
0.039724
0.0383733
0.0365782
0.0346393
0.0330523
0.0318503
0.0306869
0.0292691
0.027625
0.0254536
0.02291
0.0194023
0.0141325
0.0431636
0.38602
0.110138
0.209311
0.500523
0.0360738
0.0357548
0.034909
0.0337051
0.0323496
0.0310856
0.0299707
0.0287877
0.0273609
0.0256397
0.0235481
0.0210148
0.0174846
0.0127933
0.0186399
0.0331649
0.000950213
0.0908636
0.308126
0.0321374
0.032132
0.0316743
0.0308981
0.0299393
0.0289305
0.0278918
0.0267774
0.0255077
0.0239896
0.0221748
0.0199907
0.0172464
0.0135995
0.0126345
0.00404013
0.00140629
0.0159745
0.0020866
0.0286036
0.0288279
0.0286591
0.0281998
0.0275443
0.0267694
0.0259056
0.0249181
0.0237853
0.0224962
0.0210011
0.0192954
0.0173699
0.0152468
0.0141074
0.0103881
0.00964607
0.0153359
0.0156124
0.0254318
0.0258193
0.0258601
0.0256328
0.0252047
0.0246277
0.0239279
0.0230945
0.0221254
0.0210379
0.0198385
0.0185621
0.0172521
0.0160552
0.0149977
0.0140489
0.0148696
0.0164616
0.0208749
0.0225811
0.0230802
0.0232706
0.0232132
0.0229578
0.0225418
0.0219874
0.0213051
0.0204978
0.0195908
0.0186283
0.0176526
0.0167214
0.0159507
0.0160524
0.016874
0.0169369
0.0181204
0.0225022
0.020014
0.0205848
0.0208794
0.0209462
0.0208231
0.0205391
0.020114
0.0195632
0.0189046
0.0181606
0.0173781
0.0166105
0.0159109
0.0155976
0.0175994
0.019402
0.0178053
0.017829
0.0312505
0.0176967
0.018308
0.0186722
0.0188284
0.0188065
0.0186298
0.0183162
0.0178822
0.0173489
0.0167458
0.0161107
0.0154981
0.0149879
0.0148053
0.0153453
0.0200236
0.0234106
0.0187919
0.0335479
0.0155992
0.0162264
0.0166332
0.0168518
0.0169062
0.0168156
0.016596
0.0162636
0.0158394
0.0153535
0.0148416
0.0143486
0.0139506
0.0138125
0.0144469
0.017351
0.0240161
0.0231283
0.0304598
0.0136938
0.0143176
0.0147458
0.0150056
0.0151161
0.0150935
0.0149517
0.0147058
0.0143753
0.0139882
0.0135817
0.0131876
0.012858
0.012843
0.0190609
0.024934
0.0228999
0.02369
0.0255205
0.0119565
0.0125618
0.0129947
0.0132781
0.0134281
0.0134581
0.0133798
0.0132064
0.0129557
0.0126534
0.0123338
0.0120241
0.0117563
0.0119098
0.0227486
0.0271337
0.0261128
0.0222958
0.0192786
0.0103669
0.0109413
0.0113652
0.0116583
0.011834
0.0119032
0.0118755
0.0117619
0.011578
0.0113469
0.0111003
0.0108679
0.0106465
0.0105225
0.0170882
0.0266015
0.0270356
0.0241005
0.0205317
0.00890747
0.00944107
0.00984497
0.0101363
0.0103259
0.0104228
0.0104343
0.0103693
0.0102403
0.0100677
0.00988334
0.00972717
0.0095877
0.00943351
0.0098564
0.0215807
0.0258654
0.026249
0.0163815
0.00756276
0.00804775
0.00842285
0.0087028
0.00889661
0.00901106
0.00905178
0.00902521
0.00894109
0.00881554
0.00867428
0.00858525
0.00859054
0.00851961
0.00840761
0.00939033
0.0184302
0.0164297
0.00909737
0.00632004
0.00675028
0.00708933
0.0073499
0.00753925
0.00766237
0.00772318
0.00772618
0.00767835
0.00759122
0.00748567
0.00740889
0.00748223
0.00757926
0.0074224
0.00726634
0.00724109
0.00764202
0.00742878
0.00516817
0.00553838
0.00583532
0.0060696
0.0062468
0.00637038
0.00644286
0.00646724
0.00644836
0.00639426
0.00631801
0.00624623
0.00625219
0.00647583
0.00655833
0.00625243
0.00613998
0.00621379
0.00643462
0.00409696
0.00440274
0.00465217
0.00485382
0.00501166
0.00512787
0.00520402
0.00524207
0.00524525
0.00521881
0.00517111
0.00511574
0.0050862
0.00518695
0.00552628
0.00554386
0.00516601
0.00513091
0.0056227
0.00309571
0.00333342
0.00353042
0.00369322
0.00382447
0.00392559
0.00399765
0.00404206
0.00406092
0.00405729
0.00403548
0.00400168
0.00396762
0.00397207
0.00425212
0.00456178
0.00446984
0.00434293
0.00451165
0.00215393
0.00231924
0.00245823
0.00257566
0.00267327
0.00275208
0.00281294
0.00285699
0.00288561
0.00290018
0.00290168
0.00289026
0.00286529
0.00283803
0.00292847
0.0033055
0.00346046
0.00343322
0.00312531
0.00126076
0.00134774
0.00142419
0.00149146
0.0015501
0.00160073
0.00164409
0.0016812
0.00171319
0.00174057
0.00176203
0.00177243
0.00175651
0.00166761
0.00174665
0.00188448
0.00223491
0.00225677
0.00167818
0.00036338
0.000395006
0.000414667
0.000428874
0.00044182
0.000456189
0.000473603
0.000495084
0.00052156
0.000553895
0.000592123
0.000634689
0.000683124
0.000748352
0.00062996
0.000564725
0.000572942
0.000586779
0.000468964
)
;

boundaryField
{
    leftWall
    {
        type            fixedFluxPressure;
        gradient        uniform 0;
        value           nonuniform List<scalar> 
50
(
5402.72
5399.48
5395.1
5389.11
5336.84
3203.6
1389.23
1389.96
1388.87
1390.37
1392.56
1305.02
1006.46
868.088
874.277
907.565
936.357
952.254
998.634
1070.25
1049.21
92.3892
-0.32276
-0.285653
-0.236028
-0.200483
-0.170268
-0.145963
-0.126179
-0.10989
-0.0964237
-0.0852271
-0.0755392
-0.0671142
-0.0597662
-0.053391
-0.0478094
-0.0430136
-0.0387929
-0.0351082
-0.031703
-0.0285114
-0.0253372
-0.0221031
-0.0187653
-0.0155808
-0.0123072
-0.00899521
-0.00565131
-0.00164307
)
;
    }
    rightWall
    {
        type            fixedFluxPressure;
        gradient        uniform 0;
        value           nonuniform List<scalar> 
50
(
2993.82
3007.64
2452.64
1931.46
975.692
1006.63
1030.45
1042.59
867.862
794.547
764.797
749.958
744.905
732.329
704.428
370.719
10.7559
1.5231
0.0950654
0.072622
0.0864079
0.105335
0.692117
1.02524
1.03028
0.569513
0.305056
0.18449
0.519619
0.500523
0.308126
0.0020866
0.0156124
0.0208749
0.0225022
0.0312505
0.0335479
0.0304598
0.0255205
0.0192786
0.0205317
0.0163815
0.00909737
0.00742878
0.00643462
0.0056227
0.00451165
0.00312531
0.00167818
0.000468964
)
;
    }
    lowerWall
    {
        type            fixedFluxPressure;
        gradient        uniform 0;
        value           nonuniform List<scalar> 
62
(
5402.72
5411.7
5430.3
5459.97
5501.02
5552.34
5611.42
5674.86
5739.38
5802.31
5861.2
5913.58
5956.92
5988.89
6007.67
6012.66
6005.07
5985.96
5957.35
5922.37
5886.77
5858.38
5843.81
5843.81
5837.58
5824.73
5804.15
5764.22
5409.38
2666.67
1200.93
1035.75
930.609
930.124
949.738
3074.06
3085.96
2749.64
1617.96
1008.21
969.569
949.653
943.351
3074.06
3016.82
2973.13
2961.88
2986.56
3023.99
3068.03
3097.39
3090.18
3029.58
2920.14
2780.27
2666.39
2616.87
2630.27
2687.18
2790.47
2906.84
2993.82
)
;
    }
    atmosphere
    {
        type            totalPressure;
        rho             rho;
        psi             none;
        gamma           1;
        p0              uniform 0;
        value           nonuniform List<scalar> 
46
(
0
0
0
0
0
0
-1.51908e-05
-0.000133286
-0.000314988
-0.000480678
-0.000587182
-0.000630254
-0.000619247
-0.000568531
-0.000491045
-0.000397431
-0.000296013
-0.000194189
-0.000100781
-2.93689e-05
-2.21221e-07
0
0
0
0
0
-5.10646e-07
-7.02824e-06
-3.04512e-05
-6.14346e-05
-9.01851e-05
-0.000111665
-0.000124179
-0.000127714
-0.000122847
-0.000110179
-9.01921e-05
-6.3773e-05
-3.38195e-05
-7.96084e-06
0
0
0
0
0
0
)
;
    }
    defaultFaces
    {
        type            empty;
    }
}


// ************************************************************************* //
