/*--------------------------------*- C++ -*----------------------------------*\
| =========                 |                                                 |
| \\      /  F ield         | OpenFOAM: The Open Source CFD Toolbox           |
|  \\    /   O peration     | Version:  2312                                  |
|   \\  /    A nd           | Website:  www.openfoam.com                      |
|    \\/     M anipulation  |                                                 |
\*---------------------------------------------------------------------------*/
FoamFile
{
    version     2.0;
    format      ascii;
    arch        "LSB;label=32;scalar=64";
    class       surfaceScalarField;
    location    "3.5";
    object      phi;
}
// * * * * * * * * * * * * * * * * * * * * * * * * * * * * * * * * * * * * * //

dimensions      [0 3 -1 0 0 0 0];

oriented        oriented;

internalField   nonuniform List<scalar> 
4432
(
1.20849e-06
-1.20854e-06
1.79634e-06
-5.87902e-07
2.41984e-06
-6.23541e-07
3.1529e-06
-7.33094e-07
3.99076e-06
-8.3789e-07
4.89562e-06
-9.04889e-07
5.83263e-06
-9.37026e-07
6.77859e-06
-9.45982e-07
7.71402e-06
-9.3545e-07
8.61441e-06
-9.00403e-07
9.44703e-06
-8.32629e-07
1.01716e-05
-7.24564e-07
1.0745e-05
-5.73413e-07
1.11214e-05
-3.76404e-07
1.12534e-05
-1.32012e-07
1.10656e-05
1.87734e-07
1.04794e-05
5.86158e-07
9.4641e-06
1.01531e-06
8.06302e-06
1.40107e-06
6.31421e-06
1.74881e-06
4.28445e-06
2.02977e-06
2.0057e-06
2.27877e-06
2.00573e-06
3.83647e-07
-1.59226e-06
9.12193e-07
-1.11652e-06
1.55987e-06
-1.27129e-06
2.35066e-06
-1.52395e-06
3.27031e-06
-1.7576e-06
4.25958e-06
-1.8942e-06
5.27707e-06
-1.95456e-06
6.29885e-06
-1.96777e-06
7.30223e-06
-1.93882e-06
8.2647e-06
-1.86284e-06
9.15204e-06
-1.71993e-06
9.92398e-06
-1.49646e-06
1.05378e-05
-1.18725e-06
1.09515e-05
-7.90013e-07
1.11243e-05
-3.04786e-07
1.09743e-05
3.37673e-07
1.04118e-05
1.14861e-06
9.41224e-06
2.01481e-06
8.02842e-06
2.78482e-06
6.30373e-06
3.4734e-06
4.29834e-06
4.03505e-06
2.05434e-06
4.52264e-06
4.05993e-06
3.05356e-08
-1.62283e-06
4.26902e-07
-1.51292e-06
1.01604e-06
-1.86046e-06
1.79903e-06
-2.30695e-06
2.73477e-06
-2.69336e-06
3.75119e-06
-2.91062e-06
4.80497e-06
-3.00833e-06
5.87175e-06
-3.03454e-06
6.92331e-06
-2.99035e-06
7.93737e-06
-2.87688e-06
8.87965e-06
-2.66218e-06
9.70403e-06
-2.32083e-06
1.03699e-05
-1.85311e-06
1.08361e-05
-1.25627e-06
1.10739e-05
-5.42591e-07
1.09939e-05
4.17635e-07
1.04726e-05
1.66989e-06
9.50656e-06
2.98083e-06
8.16574e-06
4.12558e-06
6.49867e-06
5.14042e-06
4.53824e-06
5.9954e-06
2.3311e-06
6.72971e-06
6.39101e-06
-8.7352e-08
-1.53553e-06
1.97341e-07
-1.79766e-06
7.17619e-07
-2.38078e-06
1.46351e-06
-3.05287e-06
2.3745e-06
-3.60436e-06
3.37711e-06
-3.91324e-06
4.43927e-06
-4.07051e-06
5.52766e-06
-4.12293e-06
6.60452e-06
-4.06721e-06
7.65461e-06
-3.92697e-06
8.64317e-06
-3.65074e-06
9.51303e-06
-3.19071e-06
1.02175e-05
-2.55764e-06
1.07242e-05
-1.76293e-06
1.10496e-05
-8.68008e-07
1.10745e-05
3.92718e-07
1.06065e-05
2.13792e-06
9.68803e-06
3.89923e-06
8.40407e-06
5.40954e-06
6.80959e-06
6.73488e-06
4.85565e-06
7.94932e-06
2.54698e-06
9.03834e-06
8.93796e-06
-3.12562e-08
-1.50427e-06
2.20847e-07
-2.04976e-06
7.00084e-07
-2.86001e-06
1.38578e-06
-3.73855e-06
2.21645e-06
-4.43502e-06
3.15612e-06
-4.8529e-06
4.20536e-06
-5.11973e-06
5.28115e-06
-5.19873e-06
6.31267e-06
-5.09873e-06
7.32108e-06
-4.9354e-06
8.31126e-06
-4.64094e-06
9.22663e-06
-4.1061e-06
9.98905e-06
-3.32008e-06
1.05138e-05
-2.28772e-06
1.0904e-05
-1.25816e-06
1.09885e-05
3.08165e-07
1.05306e-05
2.59578e-06
9.63503e-06
4.79486e-06
8.46372e-06
6.58087e-06
7.0424e-06
8.15621e-06
5.18904e-06
9.80269e-06
2.66815e-06
1.15593e-05
1.16061e-05
2.35629e-07
-1.74004e-06
6.34039e-07
-2.44826e-06
1.19532e-06
-3.42135e-06
1.89808e-06
-4.44134e-06
2.64136e-06
-5.1783e-06
3.40897e-06
-5.62047e-06
4.32144e-06
-6.0322e-06
5.26693e-06
-6.14423e-06
6.08264e-06
-5.91445e-06
6.77661e-06
-5.62938e-06
7.42737e-06
-5.2917e-06
8.10273e-06
-4.78147e-06
8.76903e-06
-3.9864e-06
9.30091e-06
-2.81961e-06
9.82249e-06
-1.77974e-06
1.00182e-05
1.12407e-07
9.56848e-06
3.04555e-06
8.54657e-06
5.81679e-06
7.53003e-06
7.59744e-06
6.31398e-06
9.37232e-06
4.8294e-06
1.12873e-05
2.94914e-06
1.34396e-05
1.45554e-05
2.13204e-06
-3.8722e-06
3.12608e-06
-3.44247e-06
3.86086e-06
-4.15625e-06
4.36549e-06
-4.94604e-06
4.45128e-06
-5.26412e-06
4.08435e-06
-5.25358e-06
4.09611e-06
-6.04398e-06
4.65411e-06
-6.70222e-06
5.49612e-06
-6.75643e-06
6.18936e-06
-6.32257e-06
6.58369e-06
-5.68598e-06
6.75111e-06
-4.94884e-06
7.01021e-06
-4.24546e-06
7.23067e-06
-3.04004e-06
7.61489e-06
-2.16393e-06
7.97713e-06
-2.49834e-07
8.2406e-06
2.78207e-06
7.63289e-06
6.42449e-06
6.35313e-06
8.87715e-06
5.44337e-06
1.0282e-05
3.77046e-06
1.29601e-05
2.22798e-06
1.4982e-05
1.67833e-05
2.03896e-06
-5.91132e-06
3.05335e-06
-4.45697e-06
3.59639e-06
-4.69935e-06
3.80478e-06
-5.15448e-06
3.87475e-06
-5.33412e-06
3.88001e-06
-5.25884e-06
2.48699e-06
-4.65094e-06
5.29017e-07
-4.7442e-06
-1.42053e-07
-6.0853e-06
-3.54738e-07
-6.10982e-06
-7.04412e-07
-5.33624e-06
-1.56486e-06
-4.08832e-06
-2.05001e-06
-3.76026e-06
-1.92749e-06
-3.16253e-06
-1.0915e-06
-2.99993e-06
8.36636e-07
-2.17801e-06
3.181e-06
4.37646e-07
4.15653e-06
5.44884e-06
2.85846e-06
1.0175e-05
2.45892e-06
1.06813e-05
2.67863e-06
1.27402e-05
1.85379e-06
1.58066e-05
1.86368e-05
7.34971e-07
-7.34966e-07
1.18784e-06
-4.52858e-07
1.72325e-06
-5.35402e-07
3.28106e-06
-1.55781e-06
5.25884e-06
-1.97779e-06
6.83025e-06
-1.57141e-06
8.00808e-06
-1.17783e-06
8.54221e-06
-5.34118e-07
8.39855e-06
1.4368e-07
7.19841e-06
1.20014e-06
5.52482e-06
1.67359e-06
3.76474e-06
1.76008e-06
2.43452e-06
1.33023e-06
2.0582e-06
3.7632e-07
2.27111e-06
-2.12911e-07
1.95886e-06
3.12253e-07
1.09122e-06
8.67636e-07
3.78711e-07
7.1251e-07
3.78706e-07
1.6329e-06
-2.36786e-06
2.0049e-06
-8.2486e-07
2.78421e-06
-1.3147e-06
4.44158e-06
-3.21518e-06
6.73364e-06
-4.26984e-06
8.74589e-06
-3.58365e-06
1.0344e-05
-2.7759e-06
1.09104e-05
-1.10058e-06
1.05817e-05
4.72457e-07
9.29325e-06
2.4886e-06
7.63267e-06
3.33416e-06
5.05294e-06
4.33983e-06
3.08089e-06
3.30231e-06
2.13853e-06
1.3187e-06
1.82507e-06
1.00566e-07
1.44598e-06
6.91351e-07
8.79247e-07
1.43438e-06
3.59806e-07
1.23195e-06
7.38515e-07
3.65742e-07
-2.73359e-06
9.38561e-07
-1.39766e-06
2.07495e-06
-2.45107e-06
4.07106e-06
-5.21126e-06
6.49667e-06
-6.69541e-06
8.57158e-06
-5.65852e-06
1.04803e-05
-4.68461e-06
1.16914e-05
-2.3117e-06
1.13812e-05
7.82742e-07
1.02572e-05
3.61259e-06
7.31176e-06
6.27959e-06
4.24086e-06
7.41076e-06
3.49657e-06
4.04662e-06
2.98484e-06
1.83043e-06
1.55251e-06
1.53289e-06
7.30955e-07
1.51291e-06
3.37088e-07
1.82824e-06
2.6503e-07
1.304e-06
1.00354e-06
-1.37446e-06
-1.35912e-06
-1.50313e-06
-1.26894e-06
1.04421e-06
-4.99833e-06
3.65492e-06
-7.82189e-06
5.47798e-06
-8.51838e-06
7.49337e-06
-7.67383e-06
1.03067e-05
-7.49788e-06
1.42444e-05
-6.24935e-06
1.45404e-05
4.86846e-07
1.22658e-05
5.88729e-06
4.10112e-06
1.44443e-05
1.74939e-06
9.76255e-06
8.06343e-06
-2.26735e-06
1.20094e-05
-2.11546e-06
1.01776e-05
3.36474e-06
6.94707e-06
4.74348e-06
4.12528e-06
4.65005e-06
1.91548e-06
3.51382e-06
2.91902e-06
-7.8383e-06
6.47922e-06
-7.84245e-06
-1.26472e-06
-1.87123e-06
-1.09695e-05
1.97e-06
-1.16631e-05
2.51142e-06
-9.05978e-06
3.08389e-06
-8.24629e-06
3.97848e-06
-8.39248e-06
1.00829e-05
-1.23537e-05
1.39687e-05
-3.39895e-06
4.05699e-06
1.5799e-05
-1.9105e-06
2.04118e-05
2.85731e-06
4.99475e-06
7.83893e-06
-7.24896e-06
1.20581e-05
-6.33463e-06
1.45984e-05
8.24433e-07
1.41143e-05
5.22751e-06
1.15198e-05
7.24452e-06
4.80353e-06
1.02301e-05
7.7225e-06
-9.93606e-06
1.64153e-05
-6.29563e-06
-4.90509e-06
-8.99282e-07
-1.63658e-05
1.28805e-06
-1.38503e-05
1.3907e-06
-9.16234e-06
1.94163e-06
-8.79713e-06
2.35289e-06
-8.80365e-06
3.86964e-06
-1.38704e-05
9.30524e-06
-8.8345e-06
3.42676e-06
2.16776e-05
3.81867e-06
2.002e-05
7.32315e-06
1.49034e-06
8.86321e-06
-8.78898e-06
8.99004e-06
-6.46141e-06
7.90984e-06
1.90466e-06
6.21301e-06
6.92437e-06
5.45654e-06
8.00099e-06
3.24532e-06
1.24413e-05
1.09679e-05
-5.35316e-06
2.17685e-05
-2.05391e-06
-8.20426e-06
2.09963e-06
-2.05192e-05
2.89029e-06
-1.46409e-05
2.16798e-06
-8.43994e-06
1.74435e-06
-8.3734e-06
1.56392e-06
-8.62313e-06
-6.65274e-07
-1.16411e-05
1.56391e-06
-1.10636e-05
3.83937e-06
1.94022e-05
8.07874e-06
1.57808e-05
1.07598e-05
-1.19063e-06
9.37639e-06
-7.40556e-06
5.44819e-06
-2.53317e-06
1.4329e-06
5.91998e-06
6.52228e-07
7.70506e-06
1.9966e-06
6.65664e-06
2.02326e-06
1.24147e-05
1.29912e-05
-7.25728e-07
2.24943e-05
2.67344e-06
-1.16034e-05
4.28062e-06
-2.21264e-05
3.77359e-06
-1.41338e-05
2.70703e-06
-7.37332e-06
1.47121e-06
-7.13752e-06
7.4772e-07
-7.89958e-06
-2.56178e-06
-8.33155e-06
-4.05331e-06
-9.57204e-06
3.16246e-06
1.21865e-05
8.87607e-06
1.00672e-05
1.08976e-05
-3.21217e-06
6.83926e-06
-3.34717e-06
1.44964e-06
2.85647e-06
-2.41055e-06
9.78017e-06
-2.80583e-06
8.10034e-06
-2.36437e-07
4.08727e-06
4.97263e-07
1.1681e-05
1.34885e-05
-4.57879e-08
-5.86558e-06
-8.14143e-07
-3.68867e-06
-3.4133e-06
-2.10023e-06
-6.44023e-06
-2.12758e-06
-9.26291e-06
-2.51143e-06
-1.22396e-05
-2.28209e-06
-1.45519e-05
-2.33867e-06
-1.58339e-05
-3.46212e-06
-1.71987e-05
-4.72052e-06
-1.84382e-05
-4.87029e-06
-1.92877e-05
-4.48671e-06
-1.91375e-05
-4.23854e-06
-1.88981e-05
-3.99967e-06
-1.76313e-05
-4.42941e-06
-1.40927e-05
-6.53856e-06
-9.72752e-06
-6.5433e-06
-7.23078e-06
-2.05921e-06
-5.63716e-06
3.85507e-06
-1.75093e-06
6.28862e-06
2.28676e-06
6.64346e-06
8.71773e-06
6.30911e-06
1.72504e-05
7.27379e-06
8.81544e-06
2.70717e-05
-7.54306e-06
1.67739e-06
-1.08137e-05
-4.18058e-07
-1.14601e-05
-1.4539e-06
-1.12829e-05
-2.30483e-06
-1.12383e-05
-2.55598e-06
-1.17362e-05
-1.78428e-06
-1.27633e-05
-1.31153e-06
-1.49227e-05
-1.30283e-06
-1.74929e-05
-2.15033e-06
-1.88607e-05
-3.50258e-06
-1.85963e-05
-4.75117e-06
-1.73968e-05
-5.43806e-06
-1.6382e-05
-5.01457e-06
-1.55217e-05
-5.28977e-06
-1.50349e-05
-7.02544e-06
-1.54219e-05
-6.15636e-06
-1.72185e-05
-2.62692e-07
-1.85802e-05
5.21665e-06
-1.95864e-05
7.29483e-06
-2.12623e-05
8.31937e-06
-2.02489e-05
5.29576e-06
-1.47552e-05
1.78019e-06
-1.00962e-06
-4.93019e-06
-7.0118e-06
8.6892e-06
-8.33201e-06
9.02126e-07
-5.99456e-06
-3.79137e-06
-5.30366e-06
-2.99575e-06
-6.86142e-06
-9.98247e-07
-9.82157e-06
1.17583e-06
-1.28876e-05
1.75444e-06
-1.61687e-05
1.97818e-06
-1.89438e-05
6.24703e-07
-1.96803e-05
-2.76611e-06
-1.84143e-05
-6.01725e-06
-1.66977e-05
-7.1547e-06
-1.52148e-05
-6.49758e-06
-1.47122e-05
-5.79247e-06
-1.57783e-05
-5.95936e-06
-1.76533e-05
-4.28148e-06
-2.10694e-05
3.15337e-06
-2.57438e-05
9.89103e-06
-2.91195e-05
1.06704e-05
-3.02309e-05
9.43069e-06
-2.81696e-05
3.23446e-06
-2.47521e-05
-1.63728e-06
-6.9556e-06
-1.88062e-05
-7.55919e-06
1.62483e-05
-1.06265e-05
3.96942e-06
-1.0052e-05
-4.36589e-06
-1.2215e-05
-8.32817e-07
-1.54183e-05
2.20502e-06
-1.88155e-05
4.57299e-06
-2.17489e-05
4.68776e-06
-2.41601e-05
4.38934e-06
-2.53319e-05
1.79645e-06
-2.46596e-05
-3.43844e-06
-2.23681e-05
-8.3088e-06
-1.96457e-05
-9.87712e-06
-1.72943e-05
-8.84904e-06
-1.47034e-05
-8.38332e-06
-1.3151e-05
-7.51185e-06
-1.62839e-05
-1.14868e-06
-1.93917e-05
6.26111e-06
-2.30139e-05
1.35131e-05
-2.47244e-05
1.23809e-05
-1.9631e-05
4.33733e-06
-1.1518e-05
-4.87854e-06
-5.17327e-06
-7.98211e-06
-8.45398e-06
-3.67496e-06
-3.54091e-06
1.97893e-05
-6.49826e-06
6.92676e-06
-9.63948e-06
-1.2247e-06
-1.53122e-05
4.83989e-06
-2.20518e-05
8.94457e-06
-2.73358e-05
9.85701e-06
-3.15897e-05
8.94158e-06
-3.41793e-05
6.97889e-06
-3.44162e-05
2.03338e-06
-3.28771e-05
-4.97754e-06
-3.07213e-05
-1.04646e-05
-2.78401e-05
-1.27583e-05
-2.48954e-05
-1.17936e-05
-2.27265e-05
-1.05522e-05
-2.13882e-05
-8.85014e-06
-2.35875e-05
1.05059e-06
-2.49726e-05
7.64612e-06
-2.10495e-05
9.59002e-06
-1.28715e-05
4.20287e-06
-3.15305e-06
-5.38111e-06
2.80295e-06
-1.08346e-05
5.8093e-06
-1.09885e-05
-9.31943e-06
6.67463e-06
3.16775e-06
1.66214e-05
3.71849e-06
6.37598e-06
-1.86273e-06
4.35655e-06
-8.70456e-06
1.16817e-05
-1.59608e-05
1.62007e-05
-2.22523e-05
1.61485e-05
-2.78454e-05
1.45346e-05
-3.22026e-05
1.1336e-05
-3.50298e-05
4.86063e-06
-3.65879e-05
-3.41937e-06
-3.74502e-05
-9.60234e-06
-3.73799e-05
-1.28285e-05
-3.62412e-05
-1.29324e-05
-3.53624e-05
-1.1431e-05
-3.48105e-05
-9.40211e-06
-2.94727e-05
-4.28734e-06
-2.12869e-05
-5.39725e-07
-9.53234e-06
-2.16464e-06
3.35584e-06
-8.68532e-06
1.27267e-05
-1.4752e-05
1.7244e-05
-1.5352e-05
1.96034e-05
-1.33479e-05
-9.94059e-06
2.02245e-05
1.03093e-06
1.55905e-05
-3.235e-07
7.73047e-06
-6.55165e-06
1.05847e-05
-1.16334e-05
1.67634e-05
-1.65525e-05
2.11197e-05
-2.20021e-05
2.1598e-05
-2.67423e-05
1.92748e-05
-3.04384e-05
1.50322e-05
-3.40754e-05
8.49758e-06
-3.83293e-05
8.34433e-07
-4.22857e-05
-5.64605e-06
-4.46453e-05
-1.04691e-05
-4.40921e-05
-1.34858e-05
-3.99516e-05
-1.55718e-05
-3.32367e-05
-1.61172e-05
-2.28372e-05
-1.4687e-05
-1.00275e-05
-1.33496e-05
3.03456e-06
-1.52266e-05
1.35896e-05
-1.92403e-05
1.99116e-05
-2.1074e-05
2.41796e-05
-1.96198e-05
2.65606e-05
-1.57285e-05
-9.68821e-06
2.63083e-05
-2.09601e-06
1.76866e-05
-6.06934e-06
1.17038e-05
-1.0759e-05
1.52743e-05
-1.5169e-05
2.11732e-05
-2.01827e-05
2.61332e-05
-2.60256e-05
2.74409e-05
-3.21115e-05
2.53607e-05
-3.78118e-05
2.07325e-05
-4.29671e-05
1.36528e-05
-4.67603e-05
4.62766e-06
-4.87982e-05
-3.60829e-06
-4.81683e-05
-1.10993e-05
-4.43919e-05
-1.72625e-05
-3.81076e-05
-2.18563e-05
-2.98117e-05
-2.4413e-05
-1.92832e-05
-2.52153e-05
-7.9999e-06
-2.46323e-05
2.3673e-06
-2.5594e-05
1.16353e-05
-2.85084e-05
1.99301e-05
-2.93688e-05
2.77975e-05
-2.74869e-05
3.38786e-05
-2.18081e-05
-8.02805e-06
3.22204e-05
-3.54264e-06
2.12292e-05
-7.39576e-06
1.55569e-05
-1.05554e-05
1.84337e-05
-1.4212e-05
2.48296e-05
-2.08089e-05
3.27304e-05
-2.92364e-05
3.58684e-05
-3.75449e-05
3.36695e-05
-4.34463e-05
2.66341e-05
-4.74379e-05
1.76449e-05
-5.10533e-05
8.24455e-06
-5.17109e-05
-2.94995e-06
-5.21468e-05
-1.06621e-05
-4.89841e-05
-2.04238e-05
-4.2111e-05
-2.87274e-05
-3.27798e-05
-3.37415e-05
-2.05385e-05
-3.74542e-05
-8.12764e-06
-3.70419e-05
-1.97269e-06
-3.17486e-05
2.75959e-06
-3.32394e-05
1.07531e-05
-3.73615e-05
1.93225e-05
-3.60561e-05
1.9611e-05
-2.20965e-05
-4.44878e-06
1.60328e-05
-5.22301e-07
2.17515e-05
1.085e-08
1.50235e-05
3.52169e-07
1.80923e-05
1.23933e-07
2.50581e-05
-2.69976e-06
3.55541e-05
-8.08283e-06
4.12526e-05
-1.46355e-05
4.02244e-05
-8.0057e-06
1.99959e-05
-1.02793e-05
1.99132e-05
-5.05305e-05
4.84942e-05
-0.000101085
4.76045e-05
-0.000118907
7.16054e-06
-0.000101849
-3.74804e-05
-8.29829e-05
-4.75922e-05
-7.4222e-05
-4.25026e-05
-6.79742e-05
-4.37032e-05
-6.32175e-05
-4.17993e-05
-5.78326e-05
-3.71327e-05
-5.71123e-05
-3.39582e-05
-6.11518e-05
-3.33207e-05
-6.58376e-05
-3.1369e-05
-6.62167e-05
-2.17182e-05
-8.39401e-06
-6.22714e-05
5.67435e-06
1.60771e-05
1.15605e-05
9.13751e-06
1.92393e-05
1.04135e-05
3.36524e-05
1.0645e-05
6.12769e-05
7.9301e-06
0.000112894
-1.03648e-05
0.00010221
5.08841e-05
8.78884e-05
3.4318e-05
6.10582e-05
4.67607e-05
5.6966e-05
5.25863e-05
4.01567e-05
6.44123e-05
1.33962e-05
3.39176e-05
-1.04234e-05
-1.36613e-05
-3.12854e-05
-2.67301e-05
-4.02765e-05
-3.3512e-05
-4.33523e-05
-4.06285e-05
-4.31821e-05
-4.19704e-05
-4.20136e-05
-3.82998e-05
-4.29322e-05
-3.30388e-05
-4.80695e-05
-2.81828e-05
-5.56389e-05
-2.37984e-05
-6.07987e-05
-1.65563e-05
-5.98412e-06
-6.32067e-05
1.22586e-05
3.81861e-06
2.48531e-05
-3.45696e-06
4.47003e-05
-9.43362e-06
8.52192e-05
-2.98734e-05
0.000134644
-4.14992e-05
9.59683e-05
2.82783e-05
8.3079e-05
6.37706e-05
5.66318e-05
6.07956e-05
5.73402e-05
4.60634e-05
5.56681e-05
5.42596e-05
6.47417e-05
5.53357e-05
7.07607e-05
2.78969e-05
5.68904e-05
2.09605e-07
4.41445e-05
-1.39841e-05
3.3385e-05
-2.27513e-05
2.24244e-05
-2.96664e-05
1.29339e-05
-3.24782e-05
5.86498e-06
-3.12294e-05
4.89932e-07
-2.76624e-05
-4.35585e-06
-2.33357e-05
-1.05647e-05
-1.75879e-05
-1.73676e-05
-9.75282e-06
-1.29192e-06
-2.20571e-05
1.87338e-05
-1.49149e-05
4.81318e-05
-3.28533e-05
8.83875e-05
-4.96849e-05
0.00010608
-4.75712e-05
8.19155e-05
-1.73544e-05
4.04649e-05
6.97211e-05
2.61121e-05
7.81527e-05
3.17465e-05
5.51692e-05
3.25775e-05
4.52348e-05
4.20036e-05
4.48335e-05
5.96841e-05
3.76547e-05
6.82065e-05
1.93752e-05
6.67957e-05
1.62072e-06
6.32635e-05
-1.04516e-05
5.81691e-05
-1.76562e-05
5.0904e-05
-2.24006e-05
4.3093e-05
-2.46664e-05
3.63693e-05
-2.45051e-05
3.15711e-05
-2.28636e-05
2.89314e-05
-2.06956e-05
2.75453e-05
-1.62013e-05
2.69389e-05
-9.14487e-06
-1.2339e-06
2.68822e-05
4.32429e-05
-5.81569e-05
4.14266e-05
-3.10303e-05
2.16592e-05
-2.99117e-05
-1.49932e-05
-1.09213e-05
-6.5285e-05
3.29286e-05
-3.17973e-05
3.62466e-05
-1.28985e-06
4.76527e-05
1.52436e-05
3.86373e-05
2.55713e-05
3.49071e-05
3.93865e-05
3.10179e-05
5.42044e-05
2.28364e-05
6.2453e-05
1.11264e-05
6.4432e-05
-3.58345e-07
6.18023e-05
-7.82194e-06
5.71307e-05
-1.29844e-05
5.08703e-05
-1.614e-05
4.42758e-05
-1.80716e-05
3.85375e-05
-1.87666e-05
3.44801e-05
-1.8806e-05
3.25668e-05
-1.8782e-05
3.22461e-05
-1.588e-05
3.36344e-05
-1.05334e-05
-4.50111e-06
3.69034e-05
3.55174e-07
-5.85123e-05
1.23641e-06
-3.19109e-05
-1.17814e-05
-1.68945e-05
-2.56459e-05
2.94949e-06
-2.80709e-05
3.53537e-05
-1.94327e-05
2.76119e-05
3.19898e-06
2.50221e-05
1.63118e-05
2.55248e-05
2.65075e-05
2.47115e-05
3.7254e-05
2.02715e-05
4.68072e-05
1.32832e-05
5.18396e-05
6.09411e-06
5.1755e-05
-2.73745e-07
4.86532e-05
-4.72e-06
4.40241e-05
-8.35514e-06
3.88554e-05
-1.09711e-05
3.3552e-05
-1.27681e-05
2.87571e-05
-1.39714e-05
2.51697e-05
-1.52184e-05
2.29873e-05
-1.65995e-05
2.24111e-05
-1.53037e-05
2.422e-05
-1.2341e-05
-8.93999e-06
2.86598e-05
-1.08531e-05
-4.76581e-05
-1.46559e-05
-2.81077e-05
-1.81558e-05
-1.33938e-05
-1.85018e-05
3.29547e-06
-6.14872e-06
2.30032e-05
2.14724e-06
1.93169e-05
9.46121e-06
1.7709e-05
1.55262e-05
1.94606e-05
2.15511e-05
1.86874e-05
2.8323e-05
1.35002e-05
3.33882e-05
8.21855e-06
3.51858e-05
4.29699e-06
3.35056e-05
1.40675e-06
3.02847e-05
-1.49875e-06
2.64463e-05
-4.51644e-06
2.27326e-05
-7.25706e-06
1.88673e-05
-8.90256e-06
1.52563e-05
-1.036e-05
1.25912e-05
-1.25532e-05
1.06173e-05
-1.46253e-05
1.03423e-05
-1.50283e-05
1.24364e-05
-1.44355e-05
-1.31194e-05
1.66172e-05
-1.34344e-05
-3.42222e-05
-1.70718e-05
-2.44689e-05
-1.77179e-05
-1.27464e-05
-1.48923e-05
4.7078e-07
-4.26933e-06
1.23815e-05
1.94051e-06
1.31082e-05
4.93661e-06
1.47141e-05
8.24316e-06
1.61553e-05
1.2562e-05
1.43697e-05
1.64645e-05
9.59875e-06
1.8515e-05
6.16883e-06
1.8339e-05
4.47372e-06
1.64685e-05
3.27788e-06
1.41599e-05
8.10405e-07
1.19195e-05
-2.27551e-06
9.73638e-06
-5.07346e-06
8.06224e-06
-7.22797e-06
6.66588e-06
-8.96322e-06
5.42472e-06
-1.13116e-05
4.31967e-06
-1.35201e-05
4.29929e-06
-1.5008e-05
5.69724e-06
-1.58324e-05
-1.57371e-05
8.31548e-06
-7.75398e-06
-2.64658e-05
-1.29451e-05
-1.92758e-05
-1.50096e-05
-1.06802e-05
-1.33574e-05
-1.17983e-06
-7.5301e-06
6.55562e-06
-4.17528e-06
9.75486e-06
-1.67956e-06
1.22198e-05
1.33059e-06
1.31465e-05
4.42616e-06
1.12754e-05
5.87493e-06
8.15122e-06
6.27021e-06
5.77464e-06
6.32015e-06
4.42472e-06
6.33865e-06
3.26018e-06
5.98289e-06
1.16687e-06
5.46165e-06
-1.75363e-06
4.85834e-06
-4.46958e-06
4.41361e-06
-6.78271e-06
4.28178e-06
-8.83092e-06
3.83534e-06
-1.08648e-05
3.10317e-06
-1.27877e-05
2.50869e-06
-1.4413e-05
2.41875e-06
-1.5743e-05
-1.64287e-05
3.11154e-06
-6.4327e-06
-2.00317e-05
-1.09671e-05
-1.47397e-05
-1.33304e-05
-8.31529e-06
-1.29497e-05
-1.55904e-06
-1.0373e-05
3.98049e-06
-8.12626e-06
7.50953e-06
-5.69107e-06
9.78606e-06
-2.88087e-06
1.03377e-05
-6.11971e-07
9.00784e-06
6.49542e-07
6.89092e-06
1.39279e-06
5.0325e-06
2.18874e-06
3.62975e-06
3.2081e-06
2.24167e-06
4.17021e-06
2.05519e-07
4.6719e-06
-2.25465e-06
4.84046e-06
-4.63753e-06
4.76155e-06
-6.70326e-06
4.45506e-06
-8.52394e-06
3.81619e-06
-1.02255e-05
2.85736e-06
-1.18286e-05
1.74681e-06
-1.33023e-05
6.65277e-07
-1.46603e-05
-1.56872e-05
-7.56993e-08
-4.97727e-06
-1.50526e-05
-8.99197e-06
-1.07234e-05
-1.14975e-05
-5.80832e-06
-1.19998e-05
-1.05532e-06
-1.09179e-05
2.89995e-06
-9.15609e-06
5.74904e-06
-6.84204e-06
7.47324e-06
-4.25303e-06
7.7499e-06
-2.03453e-06
6.79052e-06
-4.30612e-07
5.28813e-06
7.93186e-07
3.80976e-06
1.9873e-06
2.43659e-06
3.26953e-06
9.60299e-07
4.36021e-06
-8.84406e-07
4.99788e-06
-2.89164e-06
5.1634e-06
-4.80244e-06
4.96203e-06
-6.50134e-06
4.462e-06
-8.02343e-06
3.66168e-06
-9.42481e-06
2.56846e-06
-1.0735e-05
1.23144e-06
-1.19647e-05
-3.00571e-07
-1.31288e-05
-1.41135e-05
-1.87336e-06
-4.30837e-06
-1.07434e-05
-7.81181e-06
-7.21888e-06
-1.00208e-05
-3.59816e-06
-1.07315e-05
-3.43504e-07
-1.0159e-05
2.32856e-06
-8.71038e-06
4.30155e-06
-6.60988e-06
5.37381e-06
-4.28458e-06
5.42565e-06
-2.19049e-06
4.69746e-06
-4.82526e-07
3.58118e-06
9.3427e-07
2.39392e-06
2.2053e-06
1.16645e-06
3.34656e-06
-1.80151e-07
4.19823e-06
-1.73535e-06
4.62808e-06
-3.32084e-06
4.65737e-06
-4.83114e-06
4.36894e-06
-6.21238e-06
3.81218e-06
-7.4662e-06
3.00154e-06
-8.61376e-06
1.93327e-06
-9.66645e-06
6.05286e-07
-1.06367e-05
-9.94425e-07
-1.1528e-05
-1.22535e-05
-2.85425e-06
-3.80567e-06
-6.93648e-06
-6.92027e-06
-4.10332e-06
-8.89412e-06
-1.62339e-06
-9.63666e-06
3.99975e-07
-9.29923e-06
1.99207e-06
-8.10905e-06
3.11231e-06
-6.36036e-06
3.62604e-06
-4.41226e-06
3.47846e-06
-2.58338e-06
2.8695e-06
-1.00677e-06
2.00547e-06
3.64712e-07
1.02331e-06
1.50835e-06
2.36404e-08
2.48272e-06
-1.15376e-06
3.14675e-06
-2.39868e-06
3.47016e-06
-3.64363e-06
3.4788e-06
-4.83921e-06
3.21586e-06
-5.94893e-06
2.71663e-06
-6.96651e-06
1.99089e-06
-7.88761e-06
1.03802e-06
-8.71325e-06
-1.49542e-07
-9.44854e-06
-1.59701e-06
-1.0081e-05
-1.05314e-05
-3.31821e-06
-3.48461e-06
-3.45157e-06
-6.30625e-06
-1.28106e-06
-8.16741e-06
2.38481e-07
-8.96653e-06
1.19986e-06
-8.8592e-06
1.88552e-06
-7.99414e-06
2.24805e-06
-6.63068e-06
2.26338e-06
-5.07069e-06
1.91927e-06
-3.52916e-06
1.32878e-06
-2.11536e-06
5.92468e-07
-8.94037e-07
-1.97216e-07
2.08316e-07
-1.07796e-06
1.08686e-06
-2.0316e-06
1.69697e-06
-3.00814e-06
2.02461e-06
-3.97067e-06
2.08127e-06
-4.89533e-06
1.89609e-06
-5.76326e-06
1.48976e-06
-6.55973e-06
8.75625e-07
-7.27305e-06
6.14852e-08
-7.89873e-06
-9.52795e-07
-8.43408e-06
-2.17716e-06
-8.85539e-06
-9.10124e-06
-3.60694e-06
-3.24882e-06
-2.01897e-07
-5.95499e-06
1.42577e-06
-7.7462e-06
2.03031e-06
-8.67282e-06
2.12713e-06
-8.80451e-06
2.01788e-06
-8.27294e-06
1.71718e-06
-7.27356e-06
1.26471e-06
-6.03427e-06
6.80694e-07
-4.72038e-06
1.56179e-08
-3.44278e-06
-6.84406e-07
-2.22452e-06
-1.41476e-06
-1.14727e-06
-2.15452e-06
-2.74339e-07
-2.90389e-06
3.41268e-07
-3.62315e-06
6.99071e-07
-4.32792e-06
8.08963e-07
-5.00472e-06
6.87174e-07
-5.64101e-06
3.57138e-07
-6.22927e-06
-1.6025e-07
-6.75527e-06
-8.51161e-07
-7.20743e-06
-1.7102e-06
-7.57441e-06
-2.72805e-06
-7.83801e-06
-7.94263e-06
-3.88591e-06
-3.12348e-06
2.92177e-06
-5.72891e-06
4.03162e-06
-7.54666e-06
3.84858e-06
-8.6013e-06
3.18233e-06
-8.95045e-06
2.36763e-06
-8.70355e-06
1.4709e-06
-7.99013e-06
5.51935e-07
-6.97337e-06
-3.35417e-07
-5.79089e-06
-1.16621e-06
-4.52754e-06
-1.94711e-06
-3.30127e-06
-2.64039e-06
-2.21267e-06
-3.24251e-06
-1.34103e-06
-3.77494e-06
-7.09993e-07
-4.25364e-06
-3.3587e-07
-4.70154e-06
-2.05796e-07
-5.13433e-06
-2.91275e-07
-5.5551e-06
-5.70917e-07
-5.94923e-06
-1.02077e-06
-6.30506e-06
-1.62114e-06
-6.60673e-06
-2.35584e-06
-6.8397e-06
-3.21091e-06
-6.98189e-06
-6.99269e-06
-4.16093e-06
-3.04464e-06
5.96709e-06
-5.61782e-06
6.60526e-06
-7.48313e-06
5.71436e-06
-8.65456e-06
4.35425e-06
-9.16862e-06
2.88223e-06
-9.10761e-06
1.41045e-06
-8.58309e-06
2.79866e-08
-7.70264e-06
-1.21528e-06
-6.56564e-06
-2.30263e-06
-5.29015e-06
-3.22201e-06
-4.03418e-06
-3.89579e-06
-2.91989e-06
-4.35625e-06
-2.042e-06
-4.6523e-06
-1.42311e-06
-4.87204e-06
-1.05881e-06
-5.06538e-06
-9.28669e-07
-5.26405e-06
-1.00773e-06
-5.47566e-06
-1.26364e-06
-5.69298e-06
-1.67214e-06
-5.89626e-06
-2.20862e-06
-6.06999e-06
-2.85564e-06
-6.19216e-06
-3.59369e-06
-6.24438e-06
-6.19068e-06
-4.39512e-06
-2.99875e-06
8.96584e-06
-5.56508e-06
9.1719e-06
-7.48127e-06
7.63094e-06
-8.74672e-06
5.62015e-06
-9.37643e-06
3.51242e-06
-9.42859e-06
1.46312e-06
-8.98775e-06
-4.1233e-07
-8.14629e-06
-2.05622e-06
-7.00288e-06
-3.44552e-06
-5.68887e-06
-4.53551e-06
-4.40771e-06
-5.17645e-06
-3.30395e-06
-5.45953e-06
-2.44099e-06
-5.5148e-06
-1.84258e-06
-5.47002e-06
-1.50049e-06
-5.40708e-06
-1.3907e-06
-5.37348e-06
-1.47682e-06
-5.38921e-06
-1.73048e-06
-5.43904e-06
-2.11743e-06
-5.50906e-06
-2.61545e-06
-5.57174e-06
-3.20298e-06
-5.60464e-06
-3.86071e-06
-5.58562e-06
-5.48742e-06
-4.56405e-06
-2.9506e-06
1.1917e-05
-5.511e-06
1.17327e-05
-7.46713e-06
9.58746e-06
-8.79453e-06
6.94797e-06
-9.48755e-06
4.20588e-06
-9.58512e-06
1.56114e-06
-9.15164e-06
-8.45336e-07
-8.27155e-06
-2.93585e-06
-7.05961e-06
-4.65699e-06
-5.73201e-06
-5.86266e-06
-4.47407e-06
-6.43396e-06
-3.40487e-06
-6.52831e-06
-2.57746e-06
-6.34181e-06
-2.01224e-06
-6.03488e-06
-1.70221e-06
-5.71678e-06
-1.62081e-06
-5.45458e-06
-1.7322e-06
-5.27755e-06
-1.99589e-06
-5.17512e-06
-2.37955e-06
-5.12521e-06
-2.85781e-06
-5.09327e-06
-3.40907e-06
-5.05294e-06
-4.01719e-06
-4.97819e-06
-4.84648e-06
-4.65782e-06
-2.8751e-06
1.47922e-05
-5.40634e-06
1.42642e-05
-7.37195e-06
1.15534e-05
-8.7193e-06
8.29568e-06
-9.41602e-06
4.903e-06
-9.49065e-06
1.63619e-06
-8.99107e-06
-1.3445e-06
-8.01935e-06
-3.90717e-06
-6.74665e-06
-5.92929e-06
-5.44915e-06
-7.15977e-06
-4.26208e-06
-7.62066e-06
-3.26596e-06
-7.52408e-06
-2.49816e-06
-7.1093e-06
-1.98161e-06
-6.55113e-06
-1.71505e-06
-5.98307e-06
-1.67001e-06
-5.49937e-06
-1.81149e-06
-5.13587e-06
-2.09731e-06
-4.88911e-06
-2.49177e-06
-4.73059e-06
-2.96565e-06
-4.61922e-06
-3.49918e-06
-4.5196e-06
-4.07664e-06
-4.39987e-06
-4.24487e-06
-4.67863e-06
-2.73761e-06
1.75303e-05
-5.19516e-06
1.67221e-05
-7.13049e-06
1.3489e-05
-8.45695e-06
9.62247e-06
-9.10528e-06
5.55167e-06
-9.09024e-06
1.6215e-06
-8.4898e-06
-1.94459e-06
-7.39773e-06
-4.9989e-06
-6.12948e-06
-7.1972e-06
-4.9017e-06
-8.38724e-06
-3.82929e-06
-8.69277e-06
-2.94312e-06
-8.40997e-06
-2.26387e-06
-7.78828e-06
-1.80975e-06
-7.00502e-06
-1.58745e-06
-6.20516e-06
-1.58338e-06
-5.50326e-06
-1.75953e-06
-4.95956e-06
-2.07379e-06
-4.57473e-06
-2.48696e-06
-4.31731e-06
-2.96712e-06
-4.13896e-06
-3.49383e-06
-3.99249e-06
-4.0548e-06
-3.83954e-06
-3.66359e-06
-4.63574e-06
-2.51645e-06
2.00466e-05
-4.83388e-06
1.90396e-05
-6.68551e-06
1.53409e-05
-7.94812e-06
1.08853e-05
-8.53417e-06
6.138e-06
-8.42246e-06
1.51008e-06
-7.66019e-06
-2.70658e-06
-6.5094e-06
-6.14942e-06
-5.29471e-06
-8.41163e-06
-4.18529e-06
-9.49641e-06
-3.26234e-06
-9.6155e-06
-2.51841e-06
-9.1537e-06
-1.94522e-06
-8.36129e-06
-1.56502e-06
-7.38507e-06
-1.38852e-06
-6.38153e-06
-1.41441e-06
-5.47727e-06
-1.61952e-06
-4.75437e-06
-1.95926e-06
-4.23491e-06
-2.39357e-06
-3.88291e-06
-2.88508e-06
-3.64734e-06
-3.41373e-06
-3.46397e-06
-3.96701e-06
-3.28534e-06
-3.09678e-06
-4.53397e-06
-2.18589e-06
2.22329e-05
-4.27714e-06
2.11311e-05
-5.98058e-06
1.70445e-05
-7.14304e-06
1.2048e-05
-7.67365e-06
6.66882e-06
-7.4915e-06
1.32813e-06
-6.61538e-06
-3.5825e-06
-5.44423e-06
-7.32039e-06
-4.35029e-06
-9.5054e-06
-3.40963e-06
-1.04369e-05
-2.6509e-06
-1.03741e-05
-2.05961e-06
-9.74489e-06
-1.61851e-06
-8.8023e-06
-1.3151e-06
-7.68842e-06
-1.17836e-06
-6.51822e-06
-1.22068e-06
-5.43493e-06
-1.43631e-06
-4.53873e-06
-1.79117e-06
-3.88004e-06
-2.23845e-06
-3.43563e-06
-2.74281e-06
-3.14293e-06
-3.27493e-06
-2.93154e-06
-3.82345e-06
-2.73757e-06
-2.5387e-06
-4.38137e-06
-1.74181e-06
2.39745e-05
-3.50236e-06
2.28917e-05
-4.97124e-06
1.85135e-05
-5.99713e-06
1.3074e-05
-6.47513e-06
7.14694e-06
-6.2845e-06
1.13762e-06
-5.3479e-06
-4.519e-06
-4.26752e-06
-8.40067e-06
-3.39885e-06
-1.0374e-05
-2.66345e-06
-1.11723e-05
-2.0809e-06
-1.09566e-05
-1.64883e-06
-1.01769e-05
-1.33802e-06
-9.11311e-06
-1.12879e-06
-7.89767e-06
-1.02192e-06
-6.62513e-06
-1.06121e-06
-5.39571e-06
-1.25942e-06
-4.34058e-06
-1.60333e-06
-3.53621e-06
-2.05084e-06
-2.98819e-06
-2.55784e-06
-2.63595e-06
-3.09009e-06
-2.39968e-06
-3.6321e-06
-2.19491e-06
-1.99335e-06
-4.17802e-06
-1.19512e-06
2.51699e-05
-2.51357e-06
2.42102e-05
-3.63983e-06
1.96397e-05
-4.43645e-06
1.38706e-05
-4.78478e-06
7.4953e-06
-4.57202e-06
9.24886e-07
-3.812e-06
-5.27901e-06
-3.04779e-06
-9.16489e-06
-2.4607e-06
-1.09611e-05
-1.96496e-06
-1.1668e-05
-1.59103e-06
-1.13306e-05
-1.33608e-06
-1.0432e-05
-1.16105e-06
-9.28824e-06
-1.04007e-06
-8.01877e-06
-9.71812e-07
-6.69353e-06
-9.83843e-07
-5.38384e-06
-1.13266e-06
-4.19193e-06
-1.43148e-06
-3.23756e-06
-1.85336e-06
-2.56647e-06
-2.34682e-06
-2.14268e-06
-2.87185e-06
-1.87455e-06
-3.40164e-06
-1.66601e-06
-1.46381e-06
-3.9312e-06
-6.05442e-07
2.5775e-05
-1.3861e-06
2.49907e-05
-2.06107e-06
2.03146e-05
-2.47746e-06
1.4287e-05
-2.50534e-06
7.52311e-06
-2.20273e-06
6.22203e-07
-1.87451e-06
-5.60732e-06
-1.66495e-06
-9.37455e-06
-1.43726e-06
-1.11889e-05
-1.26358e-06
-1.18419e-05
-1.15685e-06
-1.14375e-05
-1.11091e-06
-1.04781e-05
-1.09745e-06
-9.3019e-06
-1.0751e-06
-8.04133e-06
-1.03819e-06
-6.73067e-06
-1.02274e-06
-5.39953e-06
-1.09367e-06
-4.12125e-06
-1.30868e-06
-3.0228e-06
-1.66726e-06
-2.20814e-06
-2.12422e-06
-1.68595e-06
-2.62684e-06
-1.37239e-06
-3.1371e-06
-1.15524e-06
-9.58489e-07
-3.64301e-06
-5.81868e-08
2.58334e-05
-2.4956e-07
2.51821e-05
-4.08659e-07
2.04736e-05
-3.05597e-07
1.41838e-05
5.97475e-08
7.15762e-06
3.80473e-07
3.01326e-07
2.85723e-07
-5.51273e-06
-1.78569e-08
-9.07115e-06
-2.68086e-07
-1.09389e-05
-5.25988e-07
-1.15842e-05
-7.63389e-07
-1.12003e-05
-9.74805e-07
-1.02669e-05
-1.13689e-06
-9.14008e-06
-1.22413e-06
-7.95438e-06
-1.22928e-06
-6.72582e-06
-1.18409e-06
-5.44503e-06
-1.16363e-06
-4.14202e-06
-1.25909e-06
-2.92767e-06
-1.5164e-06
-1.95115e-06
-1.90592e-06
-1.29672e-06
-2.36822e-06
-9.10155e-07
-2.84971e-06
-6.74894e-07
-4.85202e-07
-3.3233e-06
4.33845e-07
2.53992e-05
7.90684e-07
2.4825e-05
1.19379e-06
2.00704e-05
1.76666e-06
1.36107e-05
2.3904e-06
6.5337e-06
2.66985e-06
2.16651e-08
2.28757e-06
-5.13066e-06
1.61998e-06
-8.40379e-06
9.04354e-07
-1.02235e-05