/*--------------------------------*- C++ -*----------------------------------*\
| =========                 |                                                 |
| \\      /  F ield         | OpenFOAM: The Open Source CFD Toolbox           |
|  \\    /   O peration     | Version:  2312                                  |
|   \\  /    A nd           | Website:  www.openfoam.com                      |
|    \\/     M anipulation  |                                                 |
\*---------------------------------------------------------------------------*/
FoamFile
{
    version     2.0;
    format      ascii;
    arch        "LSB;label=32;scalar=64";
    class       volVectorField;
    location    "3.5";
    object      U;
}
// * * * * * * * * * * * * * * * * * * * * * * * * * * * * * * * * * * * * * //

dimensions      [0 1 -1 0 0 0 0];

internalField   nonuniform List<vector> 
2268
(
(0.0110379 -0.00675372 0)
(0.0173282 -0.00318153 0)
(0.024243 -0.00245141 0)
(0.0320024 -0.00229981 0)
(0.0409706 -0.00232019 0)
(0.0509524 -0.00236864 0)
(0.0615019 -0.00240176 0)
(0.0722582 -0.00241031 0)
(0.0829888 -0.00238209 0)
(0.0934872 -0.00229024 0)
(0.103447 -0.00210349 0)
(0.112426 -0.0018039 0)
(0.119915 -0.0013886 0)
(0.125393 -0.000853947 0)
(0.128316 -0.000196115 0)
(0.127998 0.000680158 0)
(0.123633 0.00178455 0)
(0.114478 0.00298187 0)
(0.100469 0.00405326 0)
(0.0822938 0.00498407 0)
(0.0603267 0.00566785 0)
(0.0356148 0.00619769 0)
(0.00887235 0.00473525 0)
(0.0016619 -0.00758505 0)
(0.00775573 -0.00403439 0)
(0.0140845 -0.00475152 0)
(0.0223825 -0.005833 0)
(0.0322324 -0.00679927 0)
(0.0432017 -0.00741299 0)
(0.0547159 -0.00772071 0)
(0.0663669 -0.00781698 0)
(0.0779163 -0.00773429 0)
(0.0891627 -0.00745584 0)
(0.099793 -0.00692293 0)
(0.109356 -0.0060562 0)
(0.11735 -0.0048187 0)
(0.123265 -0.00320216 0)
(0.126621 -0.00118132 0)
(0.126749 0.00143524 0)
(0.122759 0.00470544 0)
(0.113831 0.00815865 0)
(0.0999888 0.0112498 0)
(0.0820281 0.0140749 0)
(0.0603835 0.0164794 0)
(0.0358367 0.0186811 0)
(0.0098339 0.0171235 0)
(-0.0016509 -0.00890002 0)
(0.00262482 -0.00727521 0)
(0.00797336 -0.00857036 0)
(0.0160446 -0.0104317 0)
(0.0259728 -0.0120885 0)
(0.0372191 -0.0130343 0)
(0.0491112 -0.0134671 0)
(0.0612185 -0.0135773 0)
(0.0732928 -0.013378 0)
(0.0851247 -0.0128392 0)
(0.0963793 -0.0118229 0)
(0.106569 -0.0102377 0)
(0.11516 -0.00810012 0)
(0.121666 -0.00544975 0)
(0.125685 -0.00226336 0)
(0.126567 0.00203998 0)
(0.123254 0.00764487 0)
(0.114747 0.0135559 0)
(0.101315 0.0187457 0)
(0.0839022 0.0232093 0)
(0.0629496 0.0268002 0)
(0.0386636 0.0299279 0)
(0.01337 0.026779 0)
(-0.00230742 -0.0079025 0)
(0.000292706 -0.00850694 0)
(0.00482525 -0.0112053 0)
(0.0123807 -0.0144723 0)
(0.0219295 -0.0171792 0)
(0.0329965 -0.0186743 0)
(0.0448907 -0.0193686 0)
(0.0571585 -0.0195538 0)
(0.0694627 -0.0192325 0)
(0.0816463 -0.0185199 0)
(0.0934138 -0.0172154 0)
(0.104165 -0.0150959 0)
(0.113236 -0.0120957 0)
(0.120159 -0.00819468 0)
(0.124877 -0.00362642 0)
(0.126842 0.00253764 0)
(0.124513 0.0107255 0)
(0.116584 0.0190393 0)
(0.103728 0.0263323 0)
(0.0870576 0.0328921 0)
(0.0667744 0.0386031 0)
(0.0416769 0.0434515 0)
(0.0155112 0.0432714 0)
(-0.00138945 -0.00867935 0)
(0.000583708 -0.0114869 0)
(0.00489764 -0.0157728 0)
(0.0119257 -0.0201123 0)
(0.0205508 -0.0232781 0)
(0.0307471 -0.0248478 0)
(0.0422804 -0.0255649 0)
(0.0544791 -0.025784 0)
(0.066442 -0.0254513 0)
(0.0780211 -0.0246058 0)
(0.0894717 -0.022831 0)
(0.10056 -0.0198519 0)
(0.110346 -0.0159235 0)
(0.117773 -0.0111237 0)
(0.122894 -0.00600779 0)
(0.125477 0.00147874 0)
(0.123574 0.0122193 0)
(0.115714 0.0229642 0)
(0.103628 0.0317657 0)
(0.0886302 0.0393044 0)
(0.0704597 0.0465212 0)
(0.0444206 0.0535152 0)
(0.0165271 0.0517582 0)
(0.000922908 -0.0126555 0)
(0.00477143 -0.0165747 0)
(0.0101733 -0.02133 0)
(0.0177798 -0.0256351 0)
(0.0258861 -0.0286354 0)
(0.0345092 -0.0300871 0)
(0.0444088 -0.0303033 0)
(0.0550366 -0.0295778 0)
(0.0653301 -0.0281955 0)
(0.0739528 -0.027103 0)
(0.0813432 -0.0258066 0)
(0.0886619 -0.0233744 0)
(0.0964756 -0.0191775 0)
(0.103603 -0.0133218 0)
(0.109741 -0.00819062 0)
(0.113792 0.00141884 0)
(0.112719 0.0157783 0)
(0.103944 0.0279243 0)
(0.0917658 0.0368589 0)
(0.0784869 0.0447802 0)
(0.0630416 0.0526683 0)
(0.0444721 0.0610589 0)
(0.0223749 0.0629597 0)
(0.014045 -0.00431486 0)
(0.0314675 -0.00728209 0)
(0.040449 -0.0144999 0)
(0.0471714 -0.0218946 0)
(0.0504454 -0.0263537 0)
(0.0476636 -0.0287195 0)
(0.0471268 -0.0329745 0)
(0.0482628 -0.0346931 0)
(0.0579998 -0.0326906 0)
(0.067886 -0.0297571 0)
(0.0742722 -0.0263631 0)
(0.0760827 -0.0224704 0)
(0.078042 -0.0180401 0)
(0.081383 -0.0121041 0)
(0.0850742 -0.0065738 0)
(0.0870113 0.00324109 0)
(0.0938399 0.0186536 0)
(0.0919912 0.0336805 0)
(0.0783669 0.0447025 0)
(0.0672213 0.053466 0)
(0.0504214 0.0648412 0)
(0.0396515 0.0789164 0)
(0.00923985 0.0888022 0)
(0.0112437 -0.0307418 0)
(0.0320118 -0.0237995 0)
(0.0407392 -0.0248856 0)
(0.0424439 -0.0282739 0)
(0.0429396 -0.0311229 0)
(0.0417528 -0.032454 0)
(0.0478767 -0.0335975 0)
(0.0116847 -0.0347252 0)
(-0.00038663 -0.0401666 0)
(-0.00446984 -0.0407521 0)
(-0.00532104 -0.0374621 0)
(-0.0118514 -0.0314406 0)
(-0.0223147 -0.0284149 0)
(-0.0232092 -0.0213178 0)
(-0.0184186 -0.0171131 0)
(-0.00546032 -0.00738004 0)
(0.0255672 0.0100005 0)
(0.0430488 0.0362011 0)
(0.0433422 0.0558307 0)
(0.0273673 0.062573 0)
(0.0257768 0.0789653 0)
(0.0427918 0.0927098 0)
(-0.0102477 0.1054 0)
(-0.000839286 0.00165971 0)
(0.0135213 0.000503688 0)
(0.0135073 0.000220736 0)
(0.0291225 -0.00368867 0)
(0.0496703 -0.00486929 0)
(0.0695208 -0.00388141 0)
(0.0854259 -0.00346612 0)
(0.0957617 -0.00245704 0)
(0.0981478 -0.000696784 0)
(0.0893907 0.00193296 0)
(0.0706654 0.00191555 0)
(0.0515167 0.001385 0)
(0.0336233 0.000874165 0)
(0.0246907 -0.00106747 0)
(0.0247481 -0.00303196 0)
(0.0259636 -0.00121646 0)
(0.0200475 0.000483456 0)
(0.0102547 0.00175365 0)
(0.00300007 0.000285765 0)
(0.00976471 -0.00847685 0)
(0.0204245 -0.00382339 0)
(0.0258772 -0.00480111 0)
(0.0414311 -0.012247 0)
(0.0642181 -0.0152856 0)
(0.0886614 -0.0119231 0)
(0.110395 -0.00829941 0)
(0.123692 -0.00253383 0)
(0.124362 0.00287208 0)
(0.113617 0.0101968 0)
(0.0967614 0.0133112 0)
(0.0719344 0.0143005 0)
(0.0441156 0.0101907 0)
(0.0294748 0.00384391 0)
(0.0226941 -0.000143769 0)
(0.0183736 0.00366739 0)
(0.0150503 0.00702464 0)
(0.00860836 0.00629093 0)
(0.00445406 0.00500331 0)
(-0.000779146 -0.0118862 0)
(0.00637148 -0.00603865 0)
(0.0137304 -0.0120338 0)
(0.0360877 -0.0226895 0)
(0.0610073 -0.0274948 0)
(0.0861761 -0.0229951 0)
(0.109811 -0.01708 0)
(0.128892 -0.00684494 0)
(0.134846 0.0034236 0)
(0.126609 0.0126663 0)
(0.0980851 0.018673 0)
(0.0614427 0.0230968 0)
(0.0421125 0.0185093 0)
(0.0389302 0.00651254 0)
(0.0276257 -0.0010299 0)
(0.0107099 0.00133325 0)
(0.00627203 0.00695089 0)
(0.00594768 0.00637048 0)
(0.00530887 0.00373319 0)
(-0.0233175 -0.0130924 0)
(-0.0175587 -0.00902998 0)
(-0.0103998 -0.0135043 0)
(0.0303264 -0.0269498 0)
(0.0530722 -0.0349029 0)
(0.0709411 -0.0303396 0)
(0.102333 -0.0263062 0)
(0.143215 -0.0136824 0)
(0.169793 0.00651988 0)
(0.161025 0.0244417 0)
(0.09693 0.0437604 0)
(-0.00438525 0.0570598 0)
(0.0570946 0.0176565 0)
(0.117537 0.0118226 0)
(0.136145 0.02142 0)
(0.100434 0.0173574 0)
(0.063909 0.0121307 0)
(0.0359746 0.00975482 0)
(0.0135195 0.012134 0)
(-0.0615144 0.00519401 0)
(-0.102285 0.00115958 0)
(-0.0595997 -0.0354138 0)
(0.00711842 -0.0478555 0)
(0.0311203 -0.0454997 0)
(0.029306 -0.042316 0)
(0.0383082 -0.04354 0)
(0.0660566 -0.051082 0)
(0.149615 -0.00721243 0)
(0.132901 0.0500618 0)
(-0.0217032 0.0899039 0)
(-0.00728463 0.0254217 0)
(0.0666233 -0.034168 0)
(0.106242 -0.0299304 0)
(0.159093 0.00432825 0)
(0.173838 0.0210199 0)
(0.15307 0.0294389 0)
(0.0945488 0.0312782 0)
(0.0228696 0.0200224 0)
(-0.100723 0.0516449 0)
(-0.109132 -0.0187441 0)
(-0.0357129 -0.067709 0)
(0.00918624 -0.0634496 0)
(0.0175131 -0.0444297 0)
(0.0169746 -0.0405854 0)
(0.0294313 -0.0428983 0)
(0.0185574 -0.0677839 0)
(0.0815775 -0.0289555 0)
(0.102186 0.0861522 0)
(0.000771861 0.103517 0)
(0.0746897 0.0168454 0)
(0.102523 -0.0394625 0)
(0.0946296 -0.033522 0)
(0.0985929 0.00218733 0)
(0.083824 0.0305321 0)
(0.0663796 0.0400034 0)
(0.0518351 0.0575335 0)
(0.0188964 0.0469022 0)
(-0.080001 0.0881448 0)
(-0.0516399 -0.0319159 0)
(0.0107713 -0.0925733 0)
(0.0333512 -0.0709442 0)
(0.030114 -0.0440815 0)
(0.0217169 -0.043184 0)
(0.0217911 -0.0431248 0)
(0.00774448 -0.0631894 0)
(-0.0242628 -0.0514684 0)
(0.0620703 0.104205 0)
(0.0431528 0.0922885 0)
(0.12413 0.00195858 0)
(0.130181 -0.0388454 0)
(0.0832533 -0.0259077 0)
(0.0285021 0.0205552 0)
(0.00571852 0.0398332 0)
(0.0108776 0.0383395 0)
(0.0302801 0.0625779 0)
(0.0127391 0.0590304 0)
(-0.0484749 0.114228 0)
(0.0205594 -0.0459001 0)
(0.0472312 -0.106548 0)
(0.046917 -0.0718221 0)
(0.0373532 -0.0397832 0)
(0.0251185 -0.0381913 0)
(0.0107535 -0.0412424 0)
(0.0107568 -0.0475813 0)
(-0.0866442 -0.0520387 0)
(0.0163958 0.0896489 0)
(0.0609666 0.0676392 0)
(0.125757 -0.0108064 0)
(0.123669 -0.030422 0)
(0.0393279 0.000382985 0)
(-0.0115657 0.0405658 0)
(-0.035219 0.0397867 0)
(-0.0217194 0.0285759 0)
(0.011604 0.0608101 0)
(-0.000983117 0.0687822 0)
(-0.00315214 -0.0408636 0)
(0.00183124 -0.033304 0)
(-0.0077 -0.0270855 0)
(-0.0269858 -0.0212374 0)
(-0.0440362 -0.0144872 0)
(-0.0594013 -0.00733867 0)
(-0.0727996 -0.00550881 0)
(-0.0817444 -0.0144242 0)
(-0.0892431 -0.0244525 0)
(-0.0963901 -0.0243436 0)
(-0.101794 -0.0198981 0)
(-0.103964 -0.0153169 0)
(-0.103876 -0.0151479 0)
(-0.0986927 -0.0172496 0)
(-0.0856056 -0.0240069 0)
(-0.066411 -0.0253538 0)
(-0.0456122 -0.0115195 0)
(-0.0337768 0.021026 0)
(-0.0194585 0.0444283 0)
(-9.08523e-05 0.0494816 0)
(0.0263548 0.0555022 0)
(0.0749781 0.06747 0)
(0.107572 0.0759101 0)
(-0.0331132 -0.012696 0)
(-0.0525487 0.000680624 0)
(-0.0618613 0.00579488 0)
(-0.0614668 -0.0050226 0)
(-0.0602478 -0.0165134 0)
(-0.061219 -0.0199803 0)
(-0.0645007 -0.0193261 0)
(-0.0738985 -0.019798 0)
(-0.0881474 -0.0227068 0)
(-0.0992033 -0.0251482 0)
(-0.101365 -0.0266365 0)
(-0.0969184 -0.0279118 0)
(-0.0902821 -0.0268199 0)
(-0.085294 -0.0300516 0)
(-0.0818038 -0.0420281 0)
(-0.0813201 -0.0412645 0)
(-0.0878032 -0.012528 0)
(-0.0964123 0.0183189 0)
(-0.103202 0.0296265 0)
(-0.110692 0.0311985 0)
(-0.113513 0.0210216 0)
(-0.0987465 0.0191181 0)
(-0.0714016 0.0270708 0)
(-0.0311759 0.0289562 0)
(-0.0449103 -0.00578275 0)
(-0.0388236 -0.0227511 0)
(-0.0274859 -0.0211692 0)
(-0.0304972 -0.0132007 0)
(-0.0455024 -0.000283331 0)
(-0.0617787 0.00443135 0)
(-0.0787933 0.00559631 0)
(-0.0958007 -0.000497916 0)
(-0.105025 -0.01384 0)
(-0.102983 -0.026549 0)
(-0.0945734 -0.03196 0)
(-0.0851413 -0.0288681 0)
(-0.0786078 -0.0277168 0)
(-0.0794392 -0.0332729 0)
(-0.0880975 -0.0280302 0)
(-0.104167 0.00867657 0)
(-0.129146 0.0392653 0)
(-0.151943 0.0464588 0)
(-0.16053 0.0491286 0)
(-0.158323 0.029425 0)
(-0.142948 -0.00117155 0)
(-0.125078 -0.0323528 0)
(-0.0278516 0.0630361 0)
(-0.0513941 0.0136403 0)
(-0.0554557 -0.0221963 0)
(-0.0588918 -0.0131454 0)
(-0.0750784 0.00265393 0)
(-0.0925873 0.0157304 0)
(-0.110172 0.0174446 0)
(-0.124547 0.0179627 0)
(-0.133865 0.00793369 0)
(-0.135125 -0.015394 0)
(-0.127535 -0.0372368 0)
(-0.113948 -0.0440214 0)
(-0.0992793 -0.0388508 0)
(-0.0834262 -0.0362133 0)
(-0.0709689 -0.0351728 0)
(-0.0794812 -0.0124112 0)
(-0.0987031 0.0298314 0)
(-0.116158 0.0681429 0)
(-0.132176 0.0696505 0)
(-0.123362 0.047578 0)
(-0.0800312 0.00120478 0)
(-0.0419533 -0.0216297 0)
(-0.0237664 -0.0415232 0)
(-0.0156686 0.0987538 0)
(-0.0231924 0.0275924 0)
(-0.0450046 -0.0196702 0)
(-0.0685155 0.00681232 0)
(-0.102184 0.0293097 0)
(-0.133483 0.0389252 0)
(-0.160746 0.0372931 0)
(-0.179078 0.0317921 0)
(-0.185668 0.0124168 0)
(-0.181578 -0.0207485 0)
(-0.171951 -0.0488308 0)
(-0.158544 -0.0596881 0)
(-0.140936 -0.0546916 0)
(-0.125899 -0.0480998 0)
(-0.119877 -0.0399727 0)
(-0.119146 0.00190065 0)
(-0.131808 0.0427772 0)
(-0.125652 0.0701083 0)
(-0.0983117 0.0534506 0)
(-0.0422883 0.00130819 0)
(0.00488397 -0.0440116 0)
(0.0261398 -0.0526135 0)
(0.0338277 -0.048671 0)
(0.000835819 0.102008 0)
(0.0329295 0.0356082 0)
(0.00442475 0.00496787 0)
(-0.0302592 0.041618 0)
(-0.0671568 0.0658373 0)
(-0.104616 0.0690118 0)
(-0.13685 0.0619161 0)
(-0.163071 0.0464586 0)
(-0.181637 0.012761 0)
(-0.193947 -0.0299417 0)
(-0.200435 -0.0596583 0)
(-0.201925 -0.0718481 0)
(-0.198293 -0.0673617 0)
(-0.193278 -0.059955 0)
(-0.190059 -0.0456438 0)
(-0.173311 0.00399584 0)
(-0.135339 0.0320774 0)
(-0.0891109 0.0303796 0)
(-0.019952 -0.00740436 0)
(0.0525995 -0.0572418 0)
(0.0833932 -0.0721013 0)
(0.100624 -0.0681396 0)
(0.107697 -0.0557004 0)
(-0.00379455 0.0855288 0)
(0.0134964 0.03684 0)
(-0.0227458 0.0404137 0)
(-0.050938 0.0767214 0)
(-0.076506 0.100726 0)
(-0.105371 0.102794 0)
(-0.133434 0.0938699 0)
(-0.1552 0.0758393 0)
(-0.173389 0.0417662 0)
(-0.194307 -0.00252283 0)
(-0.218458 -0.0394814 0)
(-0.2363 -0.063533 0)
(-0.241466 -0.0716688 0)
(-0.228132 -0.0709019 0)
(-0.197553 -0.0659897 0)
(-0.15003 -0.050573 0)
(-0.0892883 -0.0391507 0)
(-0.0203869 -0.0525606 0)
(0.049791 -0.0828955 0)
(0.0924356 -0.10019 0)
(0.118949 -0.0990735 0)
(0.136964 -0.0886873 0)
(0.143911 -0.0721315 0)
(-0.0164573 0.0867381 0)
(-0.0157011 0.0524282 0)
(-0.0479817 0.0711368 0)
(-0.0713982 0.104737 0)
(-0.0962108 0.130923 0)
(-0.125707 0.136334 0)
(-0.158172 0.12334 0)
(-0.189298 0.0951725 0)
(-0.218206 0.0530027 0)
(-0.243268 0.0073583 0)
(-0.258843 -0.0300757 0)
(-0.262373 -0.0582707 0)
(-0.250453 -0.079738 0)
(-0.223302 -0.0973342 0)
(-0.183314 -0.106553 0)
(-0.131953 -0.10626 0)
(-0.0733915 -0.101745 0)
(-0.0153134 -0.105676 0)
(0.0393463 -0.116326 0)
(0.0830636 -0.122663 0)
(0.124618 -0.117022 0)
(0.165265 -0.0956235 0)
(0.184977 -0.057146 0)
(-0.0232237 0.102432 0)
(-0.0233042 0.072455 0)
(-0.0494639 0.0910579 0)
(-0.0669099 0.12293 0)
(-0.0964463 0.153518 0)
(-0.140073 0.156854 0)
(-0.18455 0.133241 0)
(-0.219163 0.0989596 0)
(-0.244745 0.063046 0)
(-0.264328 0.0230492 0)
(-0.274946 -0.0233248 0)
(-0.278922 -0.0673781 0)
(-0.275086 -0.10662 0)
(-0.247716 -0.132929 0)
(-0.202525 -0.143227 0)
(-0.146169 -0.146546 0)
(-0.080709 -0.14468 0)
(-0.020536 -0.152099 0)
(0.00879452 -0.168532 0)
(0.0267838 -0.175466 0)
(0.0719474 -0.169957 0)
(0.109531 -0.131836 0)
(0.0953568 -0.0293722 0)
(-0.0164423 0.116346 0)
(0.00653831 0.0821767 0)
(0.000892853 0.0998683 0)
(0.00251594 0.13709 0)
(-0.0157702 0.184552 0)
(-0.0477516 0.198211 0)
(-0.0741375 0.180918 0)
(-0.095636 0.148832 0)
(-0.0115691 0.149785 0)
(-0.0514712 0.130878 0)
(-0.456538 0.0544187 0)
(-0.653244 -0.00401342 0)
(-0.575899 -0.0592007 0)
(-0.49182 -0.120041 0)
(-0.423026 -0.173587 0)
(-0.376245 -0.212765 0)
(-0.347511 -0.227427 0)
(-0.318781 -0.185872 0)
(-0.302533 -0.181207 0)
(-0.311051 -0.20669 0)
(-0.339089 -0.203429 0)
(-0.364771 -0.115903 0)
(-0.366962 -0.0189466 0)
(-0.00180747 0.113417 0)
(0.0571217 0.0788797 0)
(0.080534 0.0921909 0)
(0.11792 0.127947 0)
(0.167843 0.167369 0)
(0.268523 0.20746 0)
(0.821213 0.310104 0)
(0.673201 0.221341 0)
(0.24778 0.130258 0)
(0.405077 0.249445 0)
(0.270042 0.32055 0)
(0.0493725 0.0976267 0)
(0.0901111 -0.254029 0)
(-0.144308 -0.355151 0)
(-0.213365 -0.314448 0)
(-0.220735 -0.297094 0)
(-0.22486 -0.255804 0)
(-0.224754 -0.222257 0)
(-0.225394 -0.19213 0)
(-0.242979 -0.166679 0)
(-0.277046 -0.135157 0)
(-0.313356 -0.0850523 0)
(-0.337365 -0.0308352 0)
(0.0181964 0.0565364 0)
(0.102569 0.0290364 0)
(0.155893 0.0490348 0)
(0.26105 0.0217565 0)
(0.414723 -0.0533931 0)
(0.770814 -0.127221 0)
(0.688737 0.338373 0)
(0.126405 0.0311744 0)
(0.427932 0.243486 0)
(0.273351 0.320794 0)
(0.317628 0.379396 0)
(0.348664 0.195206 0)
(0.363059 0.0353268 0)
(0.282617 -0.0275941 0)
(0.208158 -0.0986606 0)
(0.153485 -0.175832 0)
(0.0991371 -0.214611 0)
(0.0502827 -0.210683 0)
(0.0136468 -0.186337 0)
(-0.0119346 -0.153448 0)
(-0.0346133 -0.125121 0)
(-0.0722498 -0.0853876 0)
(-0.104896 -0.0291768 0)
(0.0364986 0.0448187 0)
(0.160513 -0.0314505 0)
(0.300653 -0.114456 0)
(0.495377 -0.262661 0)
(0.62849 -0.331807 0)
(0.479173 0.215001 0)
(-0.099845 0.206672 0)
(0.279384 0.447811 0)
(0.16511 0.296866 0)
(0.169671 0.289152 0)
(0.270016 0.250512 0)
(0.347317 0.127135 0)
(0.371133 0.00317721 0)
(0.355486 -0.075759 0)
(0.329456 -0.115731 0)
(0.29674 -0.138379 0)
(0.255569 -0.145197 0)
(0.21348 -0.138628 0)
(0.17982 -0.124857 0)
(0.15955 -0.110073 0)
(0.15015 -0.0839974 0)
(0.145882 -0.0445305 0)
(0.145077 0.000870684 0)
(0.114605 -0.175146 0)
(0.226344 -0.257809 0)
(0.286855 -0.387039 0)
(-0.00805522 -0.247361 0)
(-0.19108 0.090617 0)
(-0.392306 0.261708 0)
(0.0106718 0.504652 0)
(0.0495855 0.268714 0)
(0.0888319 0.212957 0)
(0.163678 0.197044 0)
(0.2519 0.151444 0)
(0.316537 0.0729317 0)
(0.346723 -0.00198665 0)
(0.343667 -0.0520182 0)
(0.323194 -0.0834679 0)
(0.293072 -0.103815 0)
(0.257198 -0.115084 0)
(0.22196 -0.117432 0)
(0.194065 -0.114473 0)
(0.17714 -0.109451 0)
(0.17134 -0.0900083 0)
(0.174407 -0.0563724 0)
(0.189488 -0.0180695 0)
(0.00126358 -0.494681 0)
(0.0315467 -0.193075 0)
(-0.0396455 -0.0464638 0)
(-0.0852259 0.0676793 0)
(-0.156823 0.313585 0)
(-0.179456 0.283202 0)
(0.0049789 0.186023 0)
(0.0457495 0.153829 0)
(0.10796 0.150275 0)
(0.168764 0.12873 0)
(0.22605 0.0873283 0)
(0.266959 0.037982 0)
(0.281876 -0.00513288 0)
(0.272877 -0.0374654 0)
(0.251335 -0.0603364 0)
(0.223688 -0.0750508 0)
(0.195231 -0.0839668 0)
(0.167269 -0.0881364 0)
(0.143624 -0.0909655 0)
(0.127233 -0.094419 0)
(0.119323 -0.0831598 0)
(0.122062 -0.0600457 0)
(0.142213 -0.0341817 0)
(-0.0333078 -0.259665 0)
(-0.0702494 -0.13617 0)
(-0.102142 -0.0881917 0)
(-0.0906973 0.00686884 0)
(-0.084084 0.133355 0)
(-0.00168198 0.110495 0)
(0.0403703 0.100091 0)
(0.0660836 0.120061 0)
(0.0971978 0.118185 0)
(0.132403 0.0898154 0)
(0.165152 0.0538202 0)
(0.185205 0.0231296 0)
(0.186592 -0.000278464 0)
(0.173691 -0.0188478 0)
(0.153139 -0.0353891 0)
(0.132168 -0.0490613 0)
(0.111716 -0.0583633 0)
(0.0914523 -0.0655366 0)
(0.0741844 -0.0750069 0)
(0.0612808 -0.0848593 0)
(0.0545086 -0.0824428 0)
(0.058574 -0.0729505 0)
(0.0782306 -0.0607972 0)
(-0.0485864 -0.205594 0)
(-0.0914446 -0.143873 0)
(-0.0986009 -0.0709393 0)
(-0.0901317 0.013861 0)
(-0.053894 0.0878978 0)
(0.00256636 0.0799857 0)
(0.0223779 0.0900462 0)
(0.0358187 0.100645 0)
(0.0542778 0.0918837 0)
(0.0767603 0.0615933 0)
(0.0933208 0.0366323 0)
(0.099713 0.0217663 0)
(0.0945748 0.0126308 0)
(0.0830703 -0.000420912 0)
(0.0697691 -0.0172033 0)
(0.0576851 -0.032451 0)
(0.0476471 -0.0426298 0)
(0.0394798 -0.0514516 0)
(0.0326204 -0.0644968 0)
(0.0261393 -0.0767481 0)
(0.0226502 -0.0822819 0)
(0.0254537 -0.083529 0)
(0.037319 -0.0800203 0)
(-0.0241371 -0.177015 0)
(-0.0607374 -0.126018 0)
(-0.0791973 -0.0695979 0)
(-0.0790861 -0.00745138 0)
(-0.0546969 0.0459675 0)
(-0.0278301 0.0627356 0)
(-0.0144383 0.0763706 0)
(-0.000856985 0.0824594 0)
(0.015611 0.0705206 0)
(0.0273881 0.0476949 0)
(0.0315951 0.0325598 0)
(0.0331953 0.0257552 0)
(0.0340448 0.0198322 0)
(0.0330305 0.00741329 0)
(0.0305881 -0.0101306 0)
(0.0277327 -0.0260371 0)
(0.025091 -0.0386007 0)
(0.0238113 -0.0489275 0)
(0.0224778 -0.0607263 0)
(0.0193379 -0.0718201 0)
(0.0154686 -0.0803555 0)
(0.0127593 -0.0866139 0)
(0.0140496 -0.0885507 0)
(-0.0207085 -0.116731 0)
(-0.0491115 -0.08724 0)
(-0.0676471 -0.049445 0)
(-0.0717264 -0.00834737 0)
(-0.0615961 0.0273636 0)
(-0.0482393 0.0474525 0)
(-0.0362228 0.0612979 0)
(-0.0225352 0.0652144 0)
(-0.00869634 0.0555555 0)
(0.000129698 0.0412556 0)
(0.00469596 0.0300806 0)
(0.00866228 0.0226852 0)
(0.0139233 0.0154865 0)
(0.0197306 0.00415448 0)
(0.0240899 -0.0107573 0)
(0.0261231 -0.0246073 0)
(0.0263861 -0.0365086 0)
(0.0253922 -0.0470817 0)
(0.0229384 -0.0572756 0)
(0.0186835 -0.0667946 0)
(0.0130059 -0.0751943 0)
(0.00671197 -0.0826587 0)
(0.000900876 -0.0876307 0)
(-0.0160414 -0.0965665 0)
(-0.0386027 -0.0694812 0)
(-0.0570324 -0.0382134 0)
(-0.0637388 -0.0072039 0)
(-0.0612226 0.0186033 0)
(-0.0533753 0.0364602 0)
(-0.0424958 0.0475773 0)
(-0.0293826 0.0496226 0)
(-0.016398 0.0434476 0)
(-0.00652112 0.0337927 0)
(0.000563916 0.0246456 0)
(0.00682864 0.0167273 0)
(0.0137397 0.00857493 0)
(0.020785 -0.00222091 0)
(0.0256375 -0.014506 0)
(0.0278693 -0.0259833 0)
(0.0277597 -0.0360288 0)
(0.0258781 -0.0449349 0)
(0.0224347 -0.053196 0)
(0.0174051 -0.0609539 0)
(0.010851 -0.0681953 0)
(0.00309589 -0.0750229 0)
(-0.00611163 -0.0806626 0)
(-0.0140074 -0.0694818 0)
(-0.0330443 -0.0482783 0)
(-0.0495543 -0.0254665 0)
(-0.0560488 -0.00385008 0)
(-0.0562971 0.0141883 0)
(-0.0506463 0.0274369 0)
(-0.0408798 0.035072 0)
(-0.0289491 0.0360038 0)
(-0.0170941 0.0316362 0)
(-0.00710965 0.0246189 0)
(0.00102247 0.0172766 0)
(0.0081898 0.00995253 0)
(0.0150504 0.00199592 0)
(0.020598 -0.00746369 0)
(0.0241137 -0.0171503 0)
(0.0253801 -0.0262488 0)
(0.0246807 -0.0344595 0)
(0.0224188 -0.041877 0)
(0.0187909 -0.0486863 0)
(0.0138062 -0.054983 0)
(0.0073773 -0.060843 0)
(-0.000366538 -0.0663446 0)
(-0.0102078 -0.0709803 0)
(-0.0124817 -0.0479078 0)
(-0.0290656 -0.0306199 0)
(-0.0440356 -0.0142663 0)
(-0.0499416 -3.55289e-05 0)
(-0.0512138 0.0115627 0)
(-0.0469052 0.0199993 0)
(-0.0387527 0.0243236 0)
(-0.0287098 0.0241639 0)
(-0.0186249 0.0206894 0)
(-0.00950337 0.0154101 0)
(-0.00166374 0.00947178 0)
(0.00511336 0.00323247 0)
(0.0109247 -0.00373101 0)
(0.0154 -0.0113572 0)
(0.0180925 -0.0189579 0)
(0.0190022 -0.0261947 0)
(0.0183366 -0.0328762 0)
(0.016307 -0.0389687 0)
(0.0130416 -0.0444961 0)
(0.00857023 -0.049499 0)
(0.00283637 -0.0540228 0)
(-0.00413221 -0.0580626 0)
(-0.0130269 -0.0611802 0)
(-0.0115568 -0.0282565 0)
(-0.0264391 -0.0145815 0)
(-0.0402444 -0.00394526 0)
(-0.0461523 0.00404182 0)
(-0.0482322 0.0102012 0)
(-0.0453089 0.0142583 0)
(-0.039179 0.0157422 0)
(-0.0312994 0.014523 0)
(-0.0230343 0.0114043 0)
(-0.0151267 0.00715315 0)
(-0.00797316 0.00235435 0)
(-0.00169487 -0.00284584 0)
(0.003673 -0.0086201 0)
(0.00772852 -0.0146583 0)
(0.010258 -0.0206148 0)
(0.0113203 -0.0263204 0)
(0.0110065 -0.0316405 0)
(0.00941962 -0.0365089 0)
(0.00668084 -0.0408733 0)
(0.00286176 -0.0447351 0)
(-0.00204284 -0.0480961 0)
(-0.00800952 -0.0508792 0)
(-0.0154154 -0.0526783 0)
(-0.0108948 -0.0100239 0)
(-0.0247722 0.000365926 0)
(-0.0380238 0.00585707 0)
(-0.04427 0.00868112 0)
(-0.0472832 0.0102374 0)
(-0.0459446 0.0104064 0)
(-0.0417674 0.00932253 0)
(-0.0357295 0.00693772 0)
(-0.0288984 0.00366303 0)
(-0.0218743 -0.000140184 0)
(-0.0151214 -0.00424687 0)
(-0.00894931 -0.00861739 0)
(-0.00359537 -0.0133033 0)
(0.000426029 -0.017933 0)
(0.00305789 -0.0224447 0)
(0.00433234 -0.0267632 0)
(0.00430451 -0.0308113 0)
(0.00308207 -0.0345251 0)
(0.000802806 -0.0378271 0)
(-0.00244257 -0.0406883 0)
(-0.00661584 -0.0430747 0)
(-0.0116523 -0.0448676 0)
(-0.0176737 -0.0457554 0)
(-0.0105081 0.00719996 0)
(-0.0237539 0.0145192 0)
(-0.0368018 0.0156055 0)
(-0.0436076 0.0140283 0)
(-0.0474884 0.0115679 0)
(-0.0475783 0.00840108 0)
(-0.0449415 0.00473178 0)
(-0.0402992 0.000843306 0)
(-0.0343769 -0.00309984 0)
(-0.027758 -0.00699249 0)
(-0.0209973 -0.0107903 0)
(-0.014644 -0.0144658 0)
(-0.00924992 -0.0179976 0)
(-0.00520071 -0.0212829 0)
(-0.0025256 -0.0244093 0)
(-0.00116498 -0.0274087 0)
(-0.00105815 -0.0302535 0)
(-0.00206794 -0.032885 0)
(-0.0040419 -0.0352313 0)
(-0.00687421 -0.0372268 0)
(-0.0104813 -0.0388043 0)
(-0.0147746 -0.0398636 0)
(-0.0197156 -0.0401352 0)
(-0.0102268 0.0238328 0)
(-0.0232043 0.0285079 0)
(-0.0362838 0.0255668 0)
(-0.0436561 0.0200795 0)
(-0.0482623 0.0139338 0)
(-0.04934 0.00760987 0)
(-0.0477538 0.00150908 0)
(-0.0439822 -0.00419535 0)
(-0.0384717 -0.00940162 0)
(-0.0319052 -0.0138182 0)
(-0.0249143 -0.0175038 0)
(-0.018427 -0.020459 0)
(-0.0130708 -0.0227585 0)
(-0.00899773 -0.0246622 0)
(-0.00636294 -0.0264007 0)
(-0.00505284 -0.0281084 0)
(-0.00494312 -0.029809 0)
(-0.00587606 -0.0314451 0)
(-0.00768362 -0.0329293 0)
(-0.0102429 -0.0341792 0)
(-0.0134549 -0.0351078 0)
(-0.0172002 -0.0356098 0)
(-0.0213595 -0.0354707 0)
(-0.0100376 0.0401582 0)
(-0.0229222 0.0423947 0)
(-0.0361102 0.0357976 0)
(-0.0439746 0.0267012 0)
(-0.0491419 0.0170684 0)
(-0.0508464 0.00762072 0)
(-0.0497912 -0.00108929 0)
(-0.0463281 -0.00878922 0)
(-0.040925 -0.0154344 0)
(-0.0340951 -0.0208307 0)
(-0.0269685 -0.0245058 0)
(-0.0204672 -0.0265405 0)
(-0.0151243 -0.0274742 0)
(-0.0111784 -0.0279505 0)
(-0.00867023 -0.0283113 0)
(-0.00747636 -0.0287573 0)
(-0.00745178 -0.0293669 0)
(-0.00839928 -0.0300751 0)
(-0.0101492 -0.0307942 0)
(-0.0125621 -0.0314062 0)
(-0.0155127 -0.0318068 0)
(-0.0188852 -0.0318776 0)
(-0.0225123 -0.0314541 0)
(-0.00982636 0.0562349 0)
(-0.0226313 0.0562497 0)
(-0.0359241 0.0462722 0)
(-0.0441426 0.033731 0)
(-0.0496531 0.020676 0)
(-0.0516574 0.0080567 0)
(-0.0507454 -0.00343034 0)
(-0.0471047 -0.0134213 0)
(-0.0413796 -0.021765 0)
(-0.0342988 -0.0281586 0)
(-0.0271866 -0.0314604 0)
(-0.0208866 -0.0324467 0)
(-0.0157554 -0.0320686 0)
(-0.0120041 -0.0311053 0)
(-0.00966946 -0.0300737 0)
(-0.00865126 -0.0292755 0)
(-0.00877154 -0.0288349 0)
(-0.00981212 -0.0286855 0)
(-0.0115905 -0.0287278 0)
(-0.0139422 -0.0287934 0)
(-0.0167431 -0.0287571 0)
(-0.0198849 -0.0284902 0)
(-0.0231611 -0.0278655 0)
(-0.00952051 0.0720009 0)
(-0.0221333 0.0700194 0)
(-0.0353999 0.0568797 0)
(-0.0437625 0.0409735 0)
(-0.0493474 0.0244547 0)
(-0.0512994 0.00854826 0)
(-0.0501421 -0.0058641 0)
(-0.0459858 -0.0184361 0)
(-0.0396929 -0.0286636 0)
(-0.0325833 -0.0353075 0)
(-0.0257985 -0.0381209 0)
(-0.0199507 -0.0380851 0)
(-0.0151875 -0.0364161 0)
(-0.0117294 -0.0340439 0)
(-0.00962341 -0.0316328 0)
(-0.00881651 -0.029615 0)
(-0.00912764 -0.0281558 0)
(-0.010321 -0.027208 0)
(-0.0121882 -0.026638 0)
(-0.0145525 -0.0262394 0)
(-0.0172877 -0.0258482 0)
(-0.0203097 -0.0253162 0)
(-0.0233595 -0.0245384 0)
(-0.00900501 0.0872095 0)
(-0.0211649 0.083524 0)
(-0.0342061 0.0674333 0)
(-0.042482 0.0481987 0)
(-0.0478926 0.0280933 0)
(-0.0494699 0.00873448 0)
(-0.0477721 -0.00877801 0)
(-0.0428546 -0.023973 0)
(-0.0361388 -0.0356159 0)
(-0.0293597 -0.0421873 0)
(-0.0231559 -0.0442813 0)
(-0.01794 -0.0432196 0)
(-0.0137258 -0.0403611 0)
(-0.0106678 -0.0366825 0)
(-0.00884124 -0.032954 0)
(-0.00825635 -0.0297417 0)
(-0.00875988 -0.0272938 0)
(-0.0101279 -0.0255897 0)
(-0.0121247 -0.0244627 0)
(-0.0145544 -0.0236738 0)
(-0.0172925 -0.0229993 0)
(-0.0202578 -0.022255 0)
(-0.0231643 -0.0213587 0)
(-0.00822454 0.101486 0)
(-0.0195498 0.0964751 0)
(-0.0320524 0.0776868 0)
(-0.0399654 0.0551855 0)
(-0.0450625 0.0313939 0)
(-0.0462087 0.00837043 0)
(-0.0437622 -0.0124644 0)
(-0.0379553 -0.0301837 0)
(-0.031392 -0.0423663 0)
(-0.0251117 -0.0485672 0)
(-0.0197232 -0.0496973 0)
(-0.0152797 -0.0476508 0)
(-0.0117571 -0.0437747 0)
(-0.00919823 -0.0389549 0)
(-0.00767212 -0.0340309 0)
(-0.00727624 -0.0296706 0)
(-0.00793139 -0.0262502 0)
(-0.0094459 -0.0238165 0)
(-0.0115769 -0.0221739 0)
(-0.0141009 -0.0210542 0)
(-0.0168711 -0.0201561 0)
(-0.0198232 -0.0192536 0)
(-0.0226488 -0.0182644 0)
(-0.00710857 0.114308 0)
(-0.0170786 0.10847 0)
(-0.0286582 0.0873334 0)
(-0.0358991 0.0617308 0)
(-0.040626 0.0343358 0)
(-0.0414527 0.00746082 0)
(-0.038393 -0.0169866 0)
(-0.0319728 -0.036595 0)
(-0.0259257 -0.0487058 0)
(-0.0204798 -0.0541515 0)
(-0.016035 -0.0542507 0)
(-0.0124597 -0.0512691 0)
(-0.00970439 -0.0465341 0)
(-0.00769436 -0.0408217 0)
(-0.00649138 -0.0348839 0)
(-0.00621569 -0.0294727 0)
(-0.00692077 -0.0250928 0)
(-0.00849477 -0.0219227 0)
(-0.010713 -0.019785 0)
(-0.0133153 -0.0183627 0)
(-0.0161269 -0.0172935 0)
(-0.0190788 -0.0162799 0)
(-0.0218437 -0.0152291 0)
(-0.00567992 0.125071 0)
(-0.0136851 0.119001 0)
(-0.0238338 0.0959862 0)
(-0.0300155 0.067639 0)
(-0.0343354 0.036942 0)
(-0.0350584 0.00624513 0)
(-0.0315274 -0.0220564 0)
(-0.0251789 -0.0429446 0)
(-0.020215 -0.0541867 0)
(-0.0159867 -0.058728 0)
(-0.0125376 -0.0579002 0)
(-0.00986049 -0.0540466 0)
(-0.00793449 -0.0485784 0)
(-0.00651756 -0.0422226 0)
(-0.0056233 -0.0355494 0)
(-0.00540432 -0.0292418 0)
(-0.0060142 -0.023948 0)
(-0.00750267 -0.020008 0)
(-0.00969449 -0.0173502 0)
(-0.0123139 -0.0156214 0)
(-0.0151387 -0.0144158 0)
(-0.0180842 -0.0133334 0)
(-0.0207883 -0.0122473 0)
(-0.00400271 0.133164 0)
(-0.00940777 0.127494 0)
(-0.0175705 0.103167 0)
(-0.0220923 0.0726881 0)
(-0.0256112 0.0392332 0)
(-0.0258933 0.00508436 0)
(-0.0223418 -0.0272965 0)
(-0.0177623 -0.0484822 0)
(-0.0145442 -0.0582603 0)
(-0.0116564 -0.0621573 0)
(-0.00939666 -0.0605399 0)
(-0.00771497 -0.0559249 0)
(-0.00666359 -0.0498992 0)
(-0.00590098 -0.0431226 0)
(-0.00533319 -0.0360284 0)
(-0.00510548 -0.0290947 0)
(-0.00548299 -0.0229825 0)
(-0.00668312 -0.0182349 0)
(-0.0086764 -0.0149716 0)
(-0.0111968 -0.0128989 0)
(-0.0139813 -0.0115515 0)
(-0.0168906 -0.0104312 0)
(-0.0194985 -0.00933486 0)
(-0.0022995 0.138151 0)
(-0.00463721 0.133412 0)
(-0.0102977 0.108329 0)
(-0.0124104 0.0764101 0)
(-0.0142901 0.0407954 0)
(-0.0129273 0.00388225 0)
(-0.01028 -0.0304738 0)
(-0.00917013 -0.0509325 0)
(-0.00822206 -0.0605065 0)
(-0.00711529 -0.0640222 0)
(-0.00646628 -0.061877 0)
(-0.00605213 -0.0567476 0)
(-0.00598224 -0.0503985 0)
(-0.00590709 -0.0434972 0)
(-0.00572438 -0.0363077 0)
(-0.00549057 -0.0290975 0)
(-0.00551789 -0.0223621 0)
(-0.00622799 -0.0168026 0)
(-0.00780601 -0.0128146 0)
(-0.0100708 -0.0102986 0)
(-0.0127099 -0.00875676 0)
(-0.0155328 -0.00760914 0)
(-0.0180286 -0.00652842 0)
(-0.000787723 0.139977 0)
(4.33514e-05 0.136253 0)
(-0.00273082 0.1109 0)
(-0.00197076 0.0776514 0)
(-0.00139452 0.040196 0)
(0.00177578 0.00265928 0)
(0.00291206 -0.030121 0)
(0.00102082 -0.0500912 0)
(-0.000740063 -0.0602428 0)
(-0.00212442 -0.0637179 0)
(-0.00358936 -0.0614864 0)
(-0.00476066 -0.0562621 0)
(-0.00581634 -0.049952 0)
(-0.00648879 -0.0432792 0)
(-0.00671933 -0.0363679 0)
(-0.0065361 -0.0292514 0)
(-0.00621094 -0.0222088 0)
(-0.00628066 -0.0159198 0)
(-0.00720922 -0.0110886 0)
(-0.00902223 -0.00796587 0)
(-0.0113963 -0.0061197 0)
(-0.014066 -0.00491739 0)
(-0.0164033 -0.00387143 0)
(0.000351872 0.138899 0)
(0.00405481 0.135713 0)