/*--------------------------------*- C++ -*----------------------------------*\
| =========                 |                                                 |
| \\      /  F ield         | OpenFOAM: The Open Source CFD Toolbox           |
|  \\    /   O peration     | Version:  2312                                  |
|   \\  /    A nd           | Website:  www.openfoam.com                      |
|    \\/     M anipulation  |                                                 |
\*---------------------------------------------------------------------------*/
FoamFile
{
    version     2.0;
    format      ascii;
    arch        "LSB;label=32;scalar=64";
    class       volScalarField;
    location    "4.25";
    object      alphas;
}
// * * * * * * * * * * * * * * * * * * * * * * * * * * * * * * * * * * * * * //

dimensions      [0 0 0 0 0 0 0];

internalField   nonuniform List<scalar> 
2268
(
2
2
2
2
2
2
2
2
2
2
2
2
2
2
2
2
2
2
2
1.99999
1.99996
1.99995
1.99996
2
2
2
2
2
2
2
2
2
2
2
2
2
2
2
2
2
2
2
2
1.99999
1.99998
1.99998
2
2
2
2
2
2
2
2
2
2
2
2
2
2
2
2
2
2
2
2
2
2
2
2
2
2
2
2
2
2
2
2
2
2
2
2
2
2
2
2
2
2
2
2
2.00003
2.00153
2
2
2
2
2
2
2
2
1.99995
1.99995
1.99995
1.99992
1.99992
1.98693
1.96776
1.9494
1.94157
1.939
1.92674
1.90349
1.85013
1.84717
1.82799
2
2
2.00001
2
1.99998
1.99991
1.99977
1.98967
1.87997
1.70535
1.50144
1.29469
1.06938
0.892207
0.757777
0.665276
0.664751
0.677273
0.652598
0.627385
0.577439
0.494983
0.452514
1.99813
1.99777
1.99949
1.98703
1.83498
1.50708
1.17392
0.791244
0.483311
0.265572
0.121017
0.0245865
0.00510536
0.0162193
0.0228655
0.0236716
0.0363892
0.038618
0.0494897
0.100401
0.127595
0.112461
0.0707958
1.82904
1.6963
1.41408
0.955427
0.485416
0.205425
0.0417402
0.00065023
0.000524041
0.000459445
0.000396217
0.000393163
0.000405495
0.00227012
0.0293621
0.030508
0.0255516
0.0158824
0.0168341
0.0220913
0.0469663
0.0878847
0.0752725
1.94403
1.94616
1.95817
1.97007
1.96935
1.96273
1.95404
1.95167
1.95099
1.94998
1.94839
1.94782
1.95321
1.9636
1.96431
1.96376
1.96977
1.96885
1.96845
1.80757
1.95259
1.95868
1.96171
1.95945
1.94058
1.94015
1.95175
1.9615
1.96115
1.96978
1.96837
1.96536
1.95592
1.95529
1.96088
1.97081
1.96962
1.97152
1.38664
1.43464
1.44875
1.42564
1.32136
1.22593
1.27054
1.45929
1.62456
1.68519
1.71308
1.72588
1.6466
1.59571
1.59605
1.61637
1.63641
1.63519
1.6137
0.492038
0.242261
0.213912
0.211146
0.153313
0.0950124
0.0919395
0.080503
0.670953
1.14644
1.16334
1.02655
0.984287
0.906284
0.81811
0.796041
0.776088
0.833131
0.938387
0.110005
0.0428243
0.0415713
0.104488
0.16762
0.190475
0.206364
0.137674
0.138563
0.419322
0.426607
0.204515
0.455426
0.484035
0.22912
0.188445
0.134476
0.121912
0.46147
0.0413301
0.0420335
0.0192767
0.0120099
0.0253176
0.178378
0.220139
0.223555
0.0771856
0.145729
0.144894
0.0565635
0.207118
0.244184
0.119955
0.120831
0.147063
0.158698
0.160851
0.114632
0.224317
0.0565791
0.0118896
0.0119621
0.0782589
0.177823
0.131958
0.0659089
0.0379607
0.0343741
0.0360683
0.0413018
0.0487464
0.220309
0.283331
0.211506
0.178937
0.176683
0.25241
0.253323
0.053431
0.014383
0.0125258
0.146907
0.138064
0.0425157
0.0444622
0.0383189
0.0404539
0.0449034
0.0440601
0.0463415
0.429933
0.35266
0.225407
0.147113
0.12169
0.222121
0.166796
0.0683617
0.00397205
0.00205636
0.000862521
0.000688204
0.000791125
0.000808324
0.000784232
0.000615042
0.000579664
0.000695565
0.000659445
0.0073823
0.030592
0.0298248
0.0180626
0.019144
0.027889
0.0333284
0.0333074
0.0515626
0.00149565
0.000866884
0.000855782
0.000836777
0.000830237
0.00081375
0.000804194
0.000774919
0.000836795
0.000784828
0.00197351
0.00447946
0.00793714
0.00761523
0.00933842
0.0293933
0.0684167
0.101952
0.13254
0.156967
0.220782
0.268274
0.306918
0.0134179
0.00247095
0.00222035
0.00569296
0.0151893
0.0296913
0.0375746
0.0410234
0.0497648
0.0763061
0.146422
0.220251
0.262354
0.278853
0.393161
0.533795
0.624615
0.829517
0.986819
1.00819
1.01708
0.997211
0.972542
0.178917
0.157014
0.171549
0.246201
0.330849
0.400061
0.480631
0.493457
0.567276
0.661843
0.797444
0.971892
1.02182
1.02404
1.08889
1.1385
1.1759
1.03357
1.00258
1.00632
1.00466
1.0048
1.02073
0.850342
0.925033
0.955898
0.986375
1.00951
1.01708
1.03281
1.03556
1.0909
1.14838
1.08831
1.00108
1.0012
1.00123
1.04662
1.17859
1.08312
1.00053
1.00031
1.00035
1.00034
1.00059
1.01229
1.05267
1.04151
1.01976
1.01323
1.00835
1.00479
1.0047
1.00477
1.00857
1.01929
1.00499
1.00039
1.0001
1.00011
1.00063
1.00588
1.00068
1.00021
0.999874
0.999776
0.999788
1.00013
1.00079
2.2967
2.20087
2.05206
1.96057
1.88648
1.79644
1.66198
1.53424
1.46694
1.40605
1.35863
1.30915
1.28954
1.27963
1.2558
1.2142
1.20204
1.17602
1.1043
1.02729
0.994002
0.9892
0.99496
2.99771
2.99751
2.99398
2.94832
2.92491
2.9172
2.92486
2.92598
2.90233
2.87598
2.85499
2.83454
2.83019
2.82322
2.79701
2.76423
2.7249
2.64389
2.47715
2.2759
2.07159
1.81317
1.55956
2.99822
2.9997
2.99934
2.99912
2.99951
2.99992
2.99988
2.99971
2.99998
2.99918
2.99999
2.99999
3
3
3
2.99984
2.99954
2.99955
2.99739
2.99248
2.97752
2.94402
2.87628
2.9996
2.99998
3
3
3
3
2.99999
2.99999
2.99998
2.99999
3
3
3
3
3
3
3
2.99999
2.99974
2.99859
2.99997
2.99954
2.99883
3
3
3
3
3
3
2.99999
2.99998
2.99993
2.99992
2.99997
2.99999
2.99997
2.99998
2.99999
3
3
2.99999
2.99997
3
3
3
3
3
3
3
3
3
3
2.99999
2.99987
2.99986
2.99986
2.99989
2.99988
2.99986
2.99991
2.99999
2.99999
2.99999
2.99999
2.99998
2.99998
2.99999
2.99999
3
3
3
3
3
3
3
2.99994
2.99987
2.99987
2.99987
2.99986
2.99986
2.99986
2.99991
2.99997
2.99999
2.99998
2.99995
2.99991
2.99991
2.99996
2.99999
3
3
3
3
3
3
3
2.99999
2.99999
2.99995
2.99993
2.99989
2.9999
2.99992
2.99994
2.99994
2.99996
2.99995
2.99991
2.99991
2.99991
2.99998
3
3
3
3
3
3
3
3
3
3
3
3
3
3
2.99999
2.99996
2.99995
2.99996
2.99998
2.99994
2.99991
2.99994
2.99999
3
3
3
3
3
3
3
3
3
3
3
3
3
3
3
3
3
3
3
2.99999
2.99993
2.99993
2.99998
3
3
3
3
3
3
3
3
3
3
3
3
3
3
3
3
3
3
3
3
2.99998
2.99993
2.99995
3
3
3
3
3
3
3
3
3
3
3
3
3
3
3
3
3
3
3
3
3
2.99999
2.99998
2.99999
3
3
3
3
3
3
3
3
3
3
3
3
3
3
3
3
3
3
3
3
3
3
3
3
3
3
3
3
3
3
3
3
3
3
3
3
3
3
3
3
3
3
3
3
3
3
3
3
3
3
3
3
3
3
3
3
3
3
3
3
3
3
3
3
3
3
3
3
3
3
3
3
3
3
3
3
3
3
3
3
3
3
3
3
3
3
3
3
3
3
3
3
3
3
3
3
3
3
3
3
3
3
3
3
3
3
3
3
3
3
3
3
3
3
3
3
3
3
3
3
3
3
3
3
3
3
3
3
3
3
3
3
3
3
3
3
3
3
3
3
3
3
3
3
3
3
3
3
3
3
3
3
3
3
3
3
3
3
3
3
3
3
3
3
3
3
3
3
3
3
3
3
3
3
3
3
3
3
3
3
3
3
3
3
3
3
3
3
3
3
3
3
3
3
3
3
3
3
3
3
3
3
3
3
3
3
3
3
3
3
3
3
3
3
3
3
3
3
3
3
3
3
3
3
3
3
3
3
3
3
3
3
3
3
3
3
3
3
3
3
3
3
3
3
3
3
3
3
3
3
3
3
3
3
3
3
3
3
3
3
3
3
3
3
3
3
3
3
3
3
3
3
3
3
3
3
3
3
3
3
3
3
3
3
3
3
3
3
3
3
3
3
3
3
3
3
3
3
3
3
3
3
3
3
3
3
3
3
3
3
3
3
3
3
3
3
3
3
3
3
3
3
3
3
3
3
3
3
3
3
3
3
3
3
3
3
3
3
3
3
3
3
3
3
3
3
3
3
3
3
3
3
3
3
3
3
3
3
3
3
3
3
3
3
3
3
3
3
3
3
3
3
3
3
3
3
3
3
3
3
3
3
3
3
3
3
3
3
3
3
3
3
3
3
3
3
3
3
3
3
3
3
3
3
3
3
3
3
3
3
3
3
3
3
3
3
3
3
3
3
3
3
3
3
3
3
3
3
3
3
3
3
3
3
3
3
3
3
3
3
3
3
3
3
3
3
3
3
3
3
3
3
3
3
3
3
3
3
3
3
3
3
3
3
3
3
3
3
3
3
3
3
3
3
3
3
3
3
3
3
3
3
3
3
3
3
3
3
3
3
3
3
3
3
3
3
3
3
3
3
3
3
3
3
3
3
3
3
3
3
3
3
3
3
3
3
3
3
3
3
3
3
3
3
3
3
3
3
3
3
3
3
3
3
3
3
3
3
3
3
3
3
3
3
3
3
3
3
3
3
3
3
3
0.0988298
0.059448
0.047611
0.047291
0.32766
0.328009
0.260361
0.244001
0.976782
0.980457
0.988219
0.99809
1.02297
1.01362
1.00119
1.00622
1.01542
0.999827
0.999488
0.997662
1.00128
1.00032
0.999791
0.996492
0.999693
1.00004
0.999948
0.999084
1.40168
1.33124
1.27836
1.21628
2.79351
2.74992
2.68544
2.60318
2.99567
2.99006
2.9879
2.99063
2.99999
2.99999
2.99999
3
3
3
2.99999
2.99999
3
3
3
2.99999
3
3
3
2.99999
3
2.99999
2.99999
2.99994
3
2.99999
2.9999
2.99979
3
2.99999
2.99993
2.99983
3
3
2.99999
2.99997
3
3
3
3
3
3
3
3
3
3
3
3
3
3
3
3
3
3
3
3
3
3
3
3
3
3
3
3
3
3
3
3
3
3
3
3
3
3
3
3
3
3
3
3
3
3
3
3
3
3
3
3
3
3
3
3
3
3
3
3
3
3
3
3
3
3
3
3
3
3
3
3
3
3
3
3
3
3
3
3
3
3
3
3
3
3
3
3
3
3
3
3
3
3
3
3
0.0646644
0.13311
0.120118
0.0664692
0.0351272
0.245256
0.0653179
0.06164
0.0593249
0.0537318
0.132093
0.115673
0.0462608
0.137167
0.431334
0.267362
0.155387
0.110691
0.13673
0.202515
0.343318
0.449206
0.254569
0.228373
0.320605
0.400542
0.361594
0.155104
0.237194
0.503836
0.392185
0.237555
0.416434
0.254674
0.198957
0.245873
0.393785
0.295109
0.98983
0.965642
0.758869
0.58097
0.837544
1.10858
0.96834
0.645866
0.779787
0.992112
1.0832
0.928906
0.697821
0.77343
0.532031
0.644814
0.912214
0.959839
0.873122
1.01448
1.0643
1.04946
1.01628
1.0235
1.24614
1.27961
1.0374
1.02365
1.02398
1.03109
1.14875
1.19992
1.18768
1.12805
1.0906
1.01853
1.01125
1.00813
1.00042
1.04176
1.06462
1.01656
1.00179
1.02254
1.27399
1.22798
1.16589
1.01024
1.00801
1.01494
1.03703
1.03622
1.02412
1.04729
1.04786
1.01706
1.00191
0.993821
0.998287
1.00612
1.00119
1.00079
1.00139
1.0592
1.29422
1.25344
0.966526
0.999971
1.00314
1.00324
1.00347
1.00409
1.00707
1.03927
1.00667
1.00129
0.994294
0.98416
0.994582
1.00087
0.999481
0.998804
0.999092
1.03995
1.16306
1.14851
1.08989
1.00147
1.00132
1.00123
1.00211
1.00381
1.00399
1.00206
0.99937
1.14603
1.1552
1.22969
1.23445
1.21801
1.15177
1.10961
1.08636
1.0716
1.05325
1.02844
0.998541
1.0001
0.998289
0.997644
0.997689
0.999997
1.00283
1.00548
2.51065
2.48588
2.62341
2.66658
2.70639
2.70844
2.6486
2.50348
2.20524
1.73111
1.34681
1.24236
1.13449
1.01308
0.998436
0.996618
0.998571
1.00604
1.0054
2.9903
2.98499
2.9826
2.99552
2.99603
2.99844
2.99956
2.99591
2.98602
2.9743
2.92967
2.77755
2.57325
2.03322
1.4361
1.19948
1.06646
1.01693
1.00908
3
2.99999
3
3
3
3
3
2.99999
2.99994
2.99993
2.99924
2.99861
2.99741
2.99639
2.88805
2.65714
2.38618
2.10025
1.96321
2.99999
2.99999
2.99999
3
3
2.99999
2.99996
2.99984
2.99983
2.99986
2.99999
2.99999
2.99999
2.99983
2.9984
2.99654
2.99351
2.99262
2.99324
2.99999
2.99999
2.99999
2.99998
2.99982
2.99975
2.99976
2.99987
3
3
3
3
2.99999
2.99994
2.99997
2.99998
2.99998
2.99942
2.99791
2.99999
2.99992
2.99976
2.99973
2.99974
2.99988
2.99997
2.99999
3
2.99969
2.99957
2.99967
2.99993
2.99998
2.99998
2.99996
2.99995
2.99994
2.99996
2.99981
2.99972
2.99973
2.99984
2.99993
2.99999
2.99999
2.9997
2.99949
2.99949
2.99949
2.9995
2.99992
2.99998
2.99998
2.99991
2.99988
2.99987
2.9999
2.99977
2.99984
2.99997
2.99999
2.99999
3
2.99977
2.9995
2.99949
2.99949
2.9998
2.99991
2.99992
2.99991
2.99989
2.99982
2.99981
2.99974
2.99977
2.99984
2.99991
2.99999
2.99999
2.99999
2.99999
2.99988
2.99957
2.99955
2.9998
2.99996
2.99996
2.99996
2.99987
2.99977
2.99974
2.99973
2.99973
2.99995
2.99994
2.99994
2.99997
2.99997
2.99998
2.99999
2.99998
2.99992
2.99984
2.99983
2.99986
2.99993
2.99992
2.99993
2.99991
2.9998
2.99974
2.9998
2.99999
3
3
2.99998
2.99994
2.99994
2.99996
2.99998
2.99995
2.99982
2.99982
2.99983
2.99982
2.99981
2.99982
2.99992
2.99993
2.99976
2.99993
3
3
3
3
2.99999
2.99994
2.99994
2.99997
2.99995
2.99989
2.99989
2.99993
2.99997
2.9999
2.99982
2.99985
2.99992
2.99976
2.99991
3
3
3
3
3
2.99999
2.99997
2.99992
2.99991
2.99991
2.99991
2.99997
3
3
2.9999
2.99983
2.99987
2.99975
2.99992
3
3
3
3
3
3
3
2.99999
2.99995
2.99992
2.99992
2.99995
3
3
3
2.99984
2.9998
2.99984
2.99997
3
3
3
3
3
3
3
3
3
2.99998
2.99998
2.99999
3
3
3
2.9999
2.99981
2.99989
3
3
3
3
3
3
3
3
3
3
3
3
3
3
3
3
2.99997
2.99981
2.99994
3
3
3
3
3
3
3
3
3
3
3
3
3
3
3
3
3
2.99992
2.99998
3
3
3
3
3
3
3
3
3
3
3
3
3
3
3
3
3
2.99999
3
3
3
3
3
3
3
3
3
3
3
3
3
3
3
3
3
3
3
3
3
3
3
3
3
3
3
3
3
3
3
3
3
3
3
3
3
3
3
3
3
3
3
3
3
3
3
3
3
3
3
3
3
3
3
3
3
3
3
3
3
3
3
3
3
3
3
3
3
3
3
3
3
3
3
3
3
3
3
3
3
3
3
3
3
3
3
3
3
3
3
3
3
3
3
3
3
3
3
3
3
3
3
3
3
3
3
3
3
3
3
3
3
3
3
3
3
3
3
3
3
3
3
3
3
3
3
3
3
3
3
3
3
3
3
2.99999
3
3
3
3
3
3
3
3
3
3
3
3
3
3
3
3
3
3
2.99999
3
3
3
3
3
3
3
3
3
3
3
3
3
2.99999
2.99999
3
3
3
2.99999
3
3
3
3
3
3
3
3
3
3
3
3
3
2.99999
2.99999
2.99999
3
3
3
3
3
3
3
3
3
3
3
3
3
3
3
3
3
2.99999
2.99999
2.99999
3
3
3
3
3
3
3
3
3
3
3
3
3
3
3
3
3
2.99999
2.99999
2.99999
2.99999
3
3
3
3
3
3
3
3
3
3
3
3
3
3
3
2.99999
2.99999
3
3
3
3
3
3
3
3
3
3
3
3
3
3
3
3
3
3
3
3
3
3
3
3
3
3
3
3
3
3
3
3
3
3
3
3
3
3
3
3
3
3
3
3
3
3
3
3
3
3
3
3
3
3
3
3
3
3
3
)
;

boundaryField
{
    leftWall
    {
        type            calculated;
        value           nonuniform List<scalar> 
50
(
2
2
2
2
2
2
1.99813
1.82904
0.222121
0.00149565
0.0134179
0.178917
0.850342
1.05267
2.2967
2.99771
2.99822
2.9996
3
3
3
3
3
3
3
3
3
3
3
3
3
3
3
3
3
3
3
3
3
3
3
3
3
3
3
3
3
3
3
3
)
;
    }
    rightWall
    {
        type            calculated;
        value           nonuniform List<scalar> 
50
(
1.96845
1.97152
1.6137
0.938387
0.46147
0.160851
0.176683
0.12169
0.13673
0.295109
0.873122
1.00813
1.00191
1.00129
0.99937
1.00548
1.0054
1.00908
1.96321
2.99324
2.99791
2.99996
2.9999
2.99977
2.99995
2.99999
3
3
3
3
3
3
3
3
3
3
3
3
3
3
2.99999
2.99999
2.99999
3
3
2.99999
3
3
3
3
)
;
    }
    lowerWall
    {
        type            calculated;
        value           nonuniform List<scalar> 
62
(
2
2
2
2
2
2
2
2
2
2
2
2
2
2
2
2
2
2
2
1.99999
1.99996
1.99995
1.99996
1.99996
1.99998
2
2.00153
1.82799
0.452514
0.0707958
0.0752725
0.0988298
0.059448
0.047611
0.047291
1.94403
1.80757
1.38664
0.492038
0.110005
0.0413301
0.114632
0.25241
1.94403
1.94616
1.95817
1.97007
1.96935
1.96273
1.95404
1.95167
1.95099
1.94998
1.94839
1.94782
1.95321
1.9636
1.96431
1.96376
1.96977
1.96885
1.96845
)
;
    }
    atmosphere
    {
        type            calculated;
        value           nonuniform List<scalar> 
46
(
3
3
3
3
3
3
3
3
3
3
3
3
3
3
3
3
3
3
3
3
3
3
3
3
3.00001
3
3
3
3
3
3
3
3
3
3
3
3
3
3
3
3
3
3
3
3
3
)
;
    }
    defaultFaces
    {
        type            empty;
    }
}


// ************************************************************************* //
