/*--------------------------------*- C++ -*----------------------------------*\
| =========                 |                                                 |
| \\      /  F ield         | OpenFOAM: The Open Source CFD Toolbox           |
|  \\    /   O peration     | Version:  2312                                  |
|   \\  /    A nd           | Website:  www.openfoam.com                      |
|    \\/     M anipulation  |                                                 |
\*---------------------------------------------------------------------------*/
FoamFile
{
    version     2.0;
    format      ascii;
    arch        "LSB;label=32;scalar=64";
    class       volScalarField;
    location    "4.25";
    object      alpha.water;
}
// * * * * * * * * * * * * * * * * * * * * * * * * * * * * * * * * * * * * * //

dimensions      [0 0 0 0 0 0 0];

internalField   nonuniform List<scalar> 
2268
(
3.65728e-07
2.85877e-07
2.32777e-08
2.74023e-09
8.01593e-10
2.59815e-10
1.04786e-10
8.27488e-11
6.39467e-11
5.96299e-11
5.81541e-11
5.99558e-11
6.64243e-11
7.89011e-11
9.86133e-11
1.2994e-10
1.72122e-10
2.33955e-10
3.25607e-10
6.31185e-10
1.07562e-09
1.37583e-09
1.4579e-09
3.65416e-07
1.90125e-07
1.73255e-08
2.76868e-10
2.68697e-10
1.69112e-10
1.25956e-10
1.27191e-10
1.39523e-10
1.38206e-10
1.10263e-10
1.00178e-10
1.06923e-10
1.21681e-10
1.62944e-10
2.16625e-10
3.32474e-10
5.44466e-10
6.88782e-10
9.93237e-10
1.48498e-09
1.5818e-09
1.54097e-09
1.30419e-07
4.28603e-08
4.11894e-09
8.14458e-11
2.10717e-10
2.77039e-10
5.30073e-10
7.36708e-10
7.99099e-10
6.14563e-10
2.34009e-10
1.4088e-10
3.11028e-10
2.04464e-10
5.1069e-10
3.99182e-10
1.18115e-09
1.56742e-09
1.21768e-09
9.94224e-10
1.33415e-09
9.57621e-10
7.49308e-10
5.33579e-08
2.14957e-08
1.54498e-09
8.10387e-11
2.71358e-10
1.1385e-09
2.02311e-09
2.07544e-09
1.78811e-09
9.60535e-10
3.1848e-10
1.16522e-09
3.57169e-08
2.0446e-10
2.94157e-08
2.23706e-08
3.68164e-09
4.61392e-10
4.5917e-11
4.49762e-11
4.56762e-11
4.54357e-11
4.63147e-11
1.64665e-08
7.43915e-09
7.28769e-10
8.06018e-11
1.04763e-10
1.44198e-10
6.33639e-11
-2.91347e-12
-2.58116e-12
-1.27861e-12
-3.41715e-13
-8.69493e-13
-3.55133e-08
0.0065393
0.0161201
0.0249369
0.0229675
0.0195242
0.0230691
0.0344631
0.0732414
0.07818
0.0890455
5.387e-09
1.68987e-09
1.29362e-10
-6.87987e-14
1.0373e-20
4.30375e-20
5.97802e-17
0.00493471
0.059762
0.147123
0.24922
0.352294
0.463459
0.55085
0.619264
0.661942
0.63994
0.618056
0.627764
0.640369
0.673681
0.738519
0.775108
-4.62903e-14
-7.33419e-15
-1.05058e-17
0.00660793
0.0826121
0.246349
0.412714
0.604055
0.758082
0.866989
0.939444
0.987673
0.996253
0.983942
0.977857
0.977992
0.964775
0.963364
0.958235
0.921964
0.89653
0.90144
0.943839
0.082677
0.149157
0.290274
0.520982
0.757459
0.897652
0.979138
0.999634
0.999712
0.999712
0.999708
0.999712
0.999712
0.997824
0.970724
0.969669
0.974611
0.984224
0.984223
0.984223
0.969095
0.924031
0.934451
0.0141895
0.0134711
0.00971766
0.00601074
0.00651171
0.00950551
0.0120915
0.0120015
0.0126877
0.0135981
0.0140792
0.014065
0.0112994
0.00602771
0.00534594
0.00593699
0.0046075
0.00528999
0.00543048
0.0673622
0.000796408
0.000880745
0.000797392
0.000700207
0.000690712
0.000694693
0.000688185
0.000768619
0.00205398
0.00339308
0.00311435
0.00166503
0.00119524
0.00119524
0.00119912
0.00123706
0.00168831
0.00246801
0.166524
0.155853
0.163962
0.140212
0.168561
0.216588
0.205165
0.142607
0.0629351
0.0105513
0.00119209
0.0011912
0.00119816
0.00267235
0.0058335
0.00766248
0.00956613
0.00463079
0.0023875
0.615964
0.832835
0.852178
0.850132
0.902166
0.949551
0.951866
0.951547
0.511394
0.192037
0.170927
0.241221
0.262251
0.301301
0.346537
0.36314
0.384532
0.35739
0.292862
0.89982
0.98046
0.980601
0.956991
0.934717
0.923454
0.910611
0.937349
0.890026
0.610933
0.59449
0.808693
0.583699
0.560958
0.809497
0.848725
0.903212
0.915612
0.575968
0.96522
0.969049
0.985134
0.992564
0.989089
0.918229
0.889162
0.894464
0.953576
0.862989
0.862649
0.951754
0.818127
0.798449
0.915504
0.915601
0.91561
0.915693
0.878141
0.890615
0.780678
0.947858
0.992549
0.992552
0.953741
0.894699
0.916955
0.961875
0.972908
0.97319
0.973179
0.973179
0.972409
0.884017
0.870731
0.903704
0.915692
0.915716
0.752127
0.751244
0.952106
0.991477
0.992404
0.876024
0.87874
0.973251
0.973236
0.973222
0.973209
0.973194
0.97319
0.973172
0.767755
0.845648
0.900019
0.915805
0.915716
0.88761
0.915293
0.964844
0.997796
0.99909
0.999634
0.999711
0.999711
0.999713
0.999712
0.999712
0.999712
0.999712
0.999712
0.992872
0.970197
0.971679
0.984223
0.984223
0.984222
0.984216
0.984216
0.975337
0.999498
0.999708
0.999711
0.999711
0.999711
0.999711
0.999711
0.999711
0.99968
0.999712
0.999338
0.998504
0.997353
0.99746
0.996884
0.987609
0.971047
0.950768
0.923706
0.903505
0.879919
0.85966
0.821767
0.995511
0.999172
0.999256
0.998095
0.994782
0.98984
0.987282
0.986188
0.983367
0.972843
0.945158
0.905239
0.846632
0.765126
0.652324
0.604248
0.558034
0.354941
0.183587
0.162073
0.136708
0.112066
0.074431
0.905021
0.899688
0.864007
0.783842
0.719236
0.705238
0.668937
0.65715
0.583037
0.488621
0.353287
0.179294
0.0580317
0.0125171
0.0253168
0.0427835
0.00607045
-1.28916e-08
-2.03988e-08
-8.03752e-08
-1.15247e-07
-7.16162e-20
7.85204e-20
0.233523
0.157085
0.0902227
0.0368687
0.0241898
0.0246482
0.00259831
9.33205e-08
1.4599e-07
0.00232458
1.46196e-08
8.86701e-09
3.30576e-08
-1.26937e-07
-1.83416e-07
8.3655e-20
-3.08904e-08
5.34856e-05
0.000103915
8.60198e-05
7.58211e-05
1.98283e-06
3.47345e-09
-1.92212e-28
-2.94149e-11
-7.10997e-10
-6.74372e-10
-3.66421e-10
-6.48053e-10
-4.0267e-08
1.90985e-07
4.14704e-06
4.62862e-06
7.2216e-05
0.000259195
0.000355459
0.000351442
0.000171783
2.22751e-20
1.69676e-05
0.000175149
0.000289125
0.00032202
0.000315598
0.000167559
-1.32464e-16
0.000421562
0.000365275
0.000549113
0.000716372
0.000712834
0.000716372
0.000554564
0.00048319
0.00151124
0.00274981
0.00393381
0.00519471
0.00647273
0.00647055
0.00576431
0.0045282
0.0029352
0.000389979
0.000272316
0.00174421
0.00599468
0.0108
0.00509129
0.00066763
0.000667434
0.00067014
0.000311619
2.93644e-06
3.78554e-06
0.000432667
0.00293889
0.00847334
0.0084631
0.00806233
0.00726934
0.00653378
0.00622661
0.00644906
0.00660328
0.00504897
0.000640306
0.000272082
0.00239358
0.0165413
0.0167886
0.0167741
0.000562843
8.39443e-05
0.000184477
0.00024685
0.000122683
8.08113e-06
3.90269e-05
9.56003e-05
5.8065e-06
0.000272589
1.02763e-09
1.03192e-09
1.0269e-09
1.03192e-09
3.55903e-08
4.25204e-05
0.000102773
6.005e-05
0.000787176
0.00247998
0.00721763
0.0110485
0.0119254
0.000133505
7.54144e-06
-2.76853e-20
-1.87649e-25
2.63411e-26
-1.86731e-26
5.47254e-07
1.43984e-06
4.30829e-06
1.30531e-08
1.02077e-08
9.87277e-09
1.03265e-09
3.38876e-09
8.21918e-09
8.3719e-09
1.60483e-08
2.11153e-06
8.29905e-05
0.000457147
1.26675e-06
0.000148894
0.000386866
8.5963e-09
6.18743e-08
7.98547e-08
7.40825e-08
5.57726e-08
4.1859e-08
6.89988e-08
1.48591e-06
5.07084e-06
4.29436e-06
5.61374e-07
2.14569e-07
1.03868e-06
2.00082e-07
2.92906e-08
5.81461e-07
4.81174e-07
1.3394e-06
1.10789e-05
1.20305e-06
1.15829e-06
-1.48917e-08
3.62157e-19
8.36303e-09
5.64276e-09
3.03794e-08
4.44677e-08
2.04755e-08
2.04783e-08
4.05751e-06
8.30833e-06
8.24947e-06
6.73138e-06
4.9009e-06
1.11093e-05
1.63028e-05
7.35466e-06
2.64978e-06
3.14094e-06
3.40944e-06
2.48073e-06
2.48577e-06
2.76228e-06
1.89958e-06
8.44093e-07
2.69153e-07
9.23398e-09
5.60422e-09
6.09672e-09
1.00822e-08
1.02146e-08
6.06525e-07
8.19175e-06
8.30336e-06
5.32196e-06
6.00225e-06
9.61128e-06
1.76039e-05
1.82869e-05
1.8231e-05
8.60682e-06
4.69673e-06
3.62298e-06
7.52132e-06
1.8863e-05
1.92628e-05
8.19187e-06
1.85377e-06
5.18459e-07
7.3449e-09
5.599e-09
1.10243e-08
3.30878e-08
1.02332e-08
4.00406e-07
2.40426e-06
2.49586e-06
3.04868e-09
2.84942e-06
1.59677e-05
1.71586e-05
1.80838e-05
1.83287e-05
1.83324e-05
1.14842e-05
6.62239e-06
1.9267e-05
1.9267e-05
1.9267e-05
6.50293e-06
1.16114e-06
2.88882e-07
6.92658e-09
5.23445e-09
1.39482e-08
4.79775e-08
1.09636e-07
1.11749e-08
3.04604e-09
3.04868e-09
3.04565e-09
1.17968e-07
1.32518e-07
3.99429e-07
2.5448e-06
1.36067e-05
1.72714e-05
1.08098e-05
4.36525e-06
1.23442e-05
1.9267e-05
1.3566e-05
1.02274e-06
6.44619e-07
5.52976e-07
6.47414e-09
4.23164e-09
1.10943e-08
2.0221e-08
2.52711e-08
7.79086e-09
3.9077e-09
3.65515e-09
5.08709e-09
5.59555e-10
5.57195e-10
5.54762e-10
5.52437e-10
5.54762e-10
3.33249e-07
5.87557e-10
5.87513e-10
2.26579e-06
1.6089e-05
1.40822e-05
2.31792e-06
6.77685e-07
7.4172e-07
1.16294e-08
2.96412e-09
5.90395e-09
7.74415e-09
1.30668e-09
2.72081e-09
4.80521e-09
4.62742e-09
4.88165e-09
7.0362e-10
5.59554e-10
5.57199e-10
6.24064e-10
5.5721e-10
5.59554e-10
5.87672e-10
5.87572e-10
5.87529e-10
3.66746e-06
1.37557e-05
8.87729e-06
6.6913e-07
5.53421e-07
1.83889e-08
1.64535e-09
2.66697e-09
2.73886e-09
9.29807e-10
2.09262e-09
2.0327e-09
9.02493e-10
7.59371e-10
6.65356e-10
7.31754e-10
7.94033e-10
9.48011e-10
9.26144e-10
1.01455e-09
1.1238e-09
9.04068e-10
5.87572e-10
5.87532e-10
9.9226e-07
3.66956e-06
5.85922e-07
3.13549e-07
1.95661e-08
1.05368e-09
1.15092e-09
1.15927e-09
6.01721e-10
3.91199e-10
3.17981e-10
3.20721e-10
4.3958e-10
5.3956e-10
6.24991e-10
8.15925e-10
1.09287e-09
1.27221e-09
1.42304e-09
1.33636e-09
1.01429e-09
7.86243e-10
6.96146e-10
6.94071e-10
6.94129e-10
1.97539e-07
1.03917e-07
1.94508e-08
5.9921e-10
4.9607e-10
5.17016e-10
3.76251e-10
2.98684e-10
2.57216e-10
2.40532e-10
2.59293e-10
2.89986e-10
3.64943e-10
5.26982e-10
7.1851e-10
8.91297e-10
1.00271e-09
9.25302e-10
8.06938e-10
9.51376e-10
1.49318e-09
2.35661e-09
3.68211e-09
1.25531e-08
4.21152e-08
2.00234e-08
4.62733e-10
2.82884e-10
3.02813e-10
2.43877e-10
2.00638e-10
1.64183e-10
1.38823e-10
1.22549e-10
1.10983e-10
1.28599e-10
1.67561e-10
2.23642e-10
2.82957e-10
3.28687e-10
3.49974e-10
3.5032e-10
4.32347e-10
6.38786e-10
9.56799e-10
1.44819e-09
1.57201e-09
1.52491e-08
1.9819e-08
3.87877e-10
2.20248e-10
2.09796e-10
1.7635e-10
1.4639e-10
1.20293e-10
9.96656e-11
7.9136e-11
6.32515e-11
5.77534e-11
6.33785e-11
7.54558e-11
9.24823e-11
1.12526e-10
1.2779e-10
1.41552e-10
1.71172e-10
2.51945e-10
4.37501e-10
7.58901e-10
1.27308e-09
3.25178e-09
2.0907e-08
2.44178e-10
2.21656e-10
1.91193e-10
1.80532e-10
1.82652e-10
1.74286e-10
1.44078e-10
1.00367e-10
6.01807e-11
3.93468e-11
3.03572e-11
2.87167e-11
3.25062e-11
3.95222e-11
4.77584e-11
5.70792e-11
7.16378e-11
1.03026e-10
1.69403e-10
3.04935e-10
5.83072e-10
1.02274e-09
2.0718e-08
2.95848e-10
2.53022e-10
2.55036e-10
2.7507e-10
2.77081e-10
2.55937e-10
2.13114e-10
1.48117e-10
8.40274e-11
4.64696e-11
2.60058e-11
1.60264e-11
1.2674e-11
1.34589e-11
1.65813e-11
2.13503e-11
2.85713e-11
4.28906e-11
6.97133e-11
1.165e-10
2.22093e-10
3.74329e-10
2.22154e-08
2.79669e-10
2.83179e-10
3.1537e-10
3.411e-10
3.65512e-10
3.5694e-10
3.15226e-10
2.27952e-10
1.25336e-10
6.37361e-11
3.35655e-11
1.67027e-11
8.26789e-12
5.45652e-12
5.60789e-12
7.43966e-12
1.09871e-11
1.69011e-11
2.71514e-11
4.66882e-11
8.12271e-11
1.43615e-10
2.20886e-08
3.23505e-10
3.05817e-10
3.7335e-10
4.34062e-10
5.52367e-10
5.17059e-10
4.50033e-10
3.43589e-10
1.88607e-10
8.8975e-11
4.65677e-11
2.27502e-11
9.9585e-12
4.10017e-12
2.37962e-12
2.58578e-12
4.0128e-12
6.74176e-12
1.15159e-11
1.91586e-11
3.77521e-11
5.98554e-11
2.51361e-08
3.1431e-10
3.31233e-10
4.53024e-10
7.13364e-10
1.42527e-09
1.12004e-09
5.89107e-10
4.81895e-10
2.73788e-10
1.18897e-10
6.21589e-11
3.13664e-11
1.38702e-11
5.27182e-12
1.83517e-12
1.09016e-12
1.43283e-12
2.47742e-12
4.37353e-12
8.1201e-12
1.42483e-11
2.61641e-11
2.61895e-08
5.28542e-10
3.84e-10
7.73532e-10
2.4234e-09
4.13733e-09
4.29377e-09
6.85923e-10
6.09031e-10
3.76661e-10
1.50589e-10
7.78427e-11
4.05422e-11
1.89908e-11
7.44788e-12
2.55089e-12
7.46016e-13
5.31165e-13
8.7418e-13
1.66276e-12
3.04148e-12
6.49853e-12
1.01179e-11
2.92184e-08
4.60551e-10
4.31324e-10
5.70097e-09
2.58728e-08
5.39949e-08
9.11353e-09
6.93802e-10
6.88146e-10
4.83226e-10
1.80787e-10
8.89135e-11
4.84295e-11
2.4154e-11
1.00452e-11
3.51812e-12
1.12479e-12
2.8966e-13
2.93674e-13
5.28235e-13
1.13244e-12
1.94234e-12
4.03527e-12
2.58926e-08
3.66305e-10
3.72028e-10
1.31882e-08
2.81593e-07
5.86765e-07
2.10239e-07
6.51395e-10
7.39545e-10
6.1317e-10
2.19593e-10
9.37292e-11
5.28101e-11
2.78726e-11
1.24422e-11
4.76742e-12
1.4769e-12
3.65811e-13
1.2375e-13
1.75377e-13
3.37035e-13
7.8906e-13
1.23395e-12
3.98397e-08
3.6767e-10
1.4958e-08
3.18036e-07
9.6904e-07
1.06857e-06
6.60928e-07
6.51222e-10
8.01029e-10
7.07352e-10
2.31248e-10
9.07154e-11
5.23038e-11
2.86341e-11
1.41939e-11
5.89582e-12
1.9765e-12
5.39511e-13
8.23419e-14
5.80487e-14
1.15366e-13
2.06545e-13
4.2375e-13
4.09056e-08
3.66306e-10
7.78322e-08
5.12488e-07
1.14659e-06
1.07086e-06
4.15943e-07
6.54298e-10
1.15663e-09
7.20425e-10
2.18598e-10
8.01859e-11
4.62625e-11
2.68843e-11
1.41725e-11
6.49282e-12
2.44288e-12
7.45238e-13
1.30041e-13
2.57769e-14
3.23789e-14
7.97054e-14
1.2391e-13
5.7997e-08
6.80252e-09
9.15883e-08
4.83852e-07
1.14707e-06
6.36182e-07
8.37135e-10
1.82706e-09
1.83841e-09
6.77346e-10
1.86949e-10
6.44688e-11
3.78059e-11
2.23638e-11
1.24362e-11
6.26338e-12
2.65484e-12
8.83887e-13
2.23604e-13
2.04765e-14
9.82739e-15
1.68473e-14
3.98275e-14
5.83298e-08
7.41284e-09
7.87049e-08
4.27863e-07
2.77212e-07
3.53957e-08
8.35525e-10
3.13632e-09
2.13486e-09
5.51869e-10
1.42691e-10
4.77452e-11
2.81752e-11
1.66092e-11
9.50246e-12
5.18778e-12
2.48654e-12
9.27705e-13
2.65133e-13
3.23018e-14
4.62435e-15
5.61908e-15
9.72358e-15
7.06518e-08
6.95996e-09
5.87252e-08
1.20604e-07
1.24271e-08
8.5647e-10
1.17838e-09
2.91115e-09
1.46342e-09
3.71603e-10
9.62254e-11
3.29555e-11
1.88872e-11
1.10817e-11
6.30615e-12
3.61659e-12
1.95033e-12
8.48964e-13
2.74444e-13
4.7327e-14
3.08705e-15
1.28248e-15
2.86456e-15
5.85938e-08
5.60101e-09
1.32632e-08
6.99932e-10
8.40482e-10
5.22781e-09
2.35198e-09
2.02358e-09
7.35063e-10
2.14697e-10
5.70789e-11
2.01357e-11
1.16215e-11
6.54529e-12
3.60623e-12
2.09182e-12
1.23841e-12
6.30063e-13
2.39864e-13
5.95894e-14
4.41918e-15
5.5093e-16
6.56176e-16
1.20898e-07
4.90608e-09
8.17059e-10
7.00069e-10
2.21289e-09
5.84261e-09
2.81789e-09
1.20626e-09
3.1904e-10
1.07281e-10
2.77654e-11
1.09441e-11
6.46064e-12
3.47235e-12
1.77558e-12
9.93316e-13
6.09191e-13
3.60346e-13
1.67707e-13
5.31969e-14
5.85676e-15
3.10948e-16
1.70158e-16
1.29381e-07
1.57235e-08
8.50392e-10
8.12707e-09
7.57236e-09
4.57916e-09
2.46539e-09
9.96901e-10
2.50312e-10
4.49583e-11
1.07489e-11
5.22769e-12
3.20522e-12
1.65195e-12
7.64822e-13
3.82827e-13
2.2698e-13
1.47404e-13
8.5771e-14
3.56812e-14
5.79724e-15
3.22992e-16
4.45272e-17
1.69007e-07
7.75641e-08
1.6757e-08
3.52727e-08
1.70035e-08
5.48069e-09
2.2217e-09
8.7428e-10
2.15633e-10
2.45215e-11
3.55373e-12
2.13401e-12
1.36932e-12
6.91284e-13
2.9053e-13
1.19016e-13
6.25287e-14
4.10831e-14
2.87264e-14
1.67102e-14
4.80861e-15
3.21551e-16
1.65164e-17
1.6905e-07
1.46675e-07
1.06386e-07
5.17166e-08
1.29926e-08
4.47242e-09
1.77106e-09
5.71792e-10
1.25792e-10
1.31265e-11
1.1412e-12
7.00359e-13
4.72008e-13
2.39371e-13
9.43046e-14
3.2355e-14
1.28665e-14
7.53275e-15
6.26325e-15
5.32237e-15
2.21246e-15
2.7201e-16
1.31932e-17
1.55494e-07
1.58759e-07
9.92473e-08
3.6984e-08
1.09943e-08
3.19411e-09
9.10685e-10
2.25669e-10
3.75956e-11
3.19534e-12
2.12367e-13
1.51365e-13
1.11068e-13
5.88871e-14
2.25578e-14
6.64831e-15
1.85397e-15
8.3626e-16
8.657e-16
1.11217e-15
8.06687e-16
1.81894e-16
1.81103e-17
1.03133e-07
1.22851e-07
6.14066e-08
1.17754e-08
2.48748e-09
6.20875e-10
1.61983e-10
3.00843e-11
3.17572e-12
1.46469e-13
1.50745e-14
1.64233e-14
1.34861e-14
7.67313e-15
3.01225e-15
7.94104e-16
1.62959e-16
5.06964e-17
7.26461e-17
1.60932e-16
2.38229e-16
1.01707e-16
1.25089e-17
0.959393
0.972271
0.975945
0.975941
0.800849
0.792305
0.760298
0.767468
0.0377294
0.0334794
0.0547673
0.0487302
0.000129836
0.00017652
0.000202647
0.000174507
7.27928e-05
0.000369282
0.000794862
0.00308959
8.42983e-22
0.000133442
0.000316368
0.00363663
0.000519083
0.000193883
0.000236133
0.00100664
0.0160472
0.0159893
0.0149914
0.00845498
0.015521
0.016489
0.0164514
0.00982803
0.00143875
0.00331085
0.00403342
0.0031207
7.90113e-17
5.97569e-21
-3.16546e-15
-3.97979e-09
2.57757e-10
1.48566e-07
1.10409e-06
2.00797e-06
1.12626e-07
8.74903e-08
4.59676e-07
6.90121e-07
8.20674e-08
8.17872e-08
2.46713e-07
2.54376e-07
4.25164e-07
1.6052e-06
3.09901e-06
1.31483e-05
9.13966e-07
1.97666e-06
3.00749e-05
4.77165e-05
8.85088e-07
2.75734e-06
2.18226e-05
4.74599e-05
7.13957e-07
7.84231e-07
2.64567e-06
8.76601e-06
4.08677e-07
3.84626e-07
4.24544e-08
2.57938e-07
1.02545e-07
1.04295e-07
4.49233e-08
2.53156e-08
3.01523e-08
3.21308e-08
1.41883e-08
1.07766e-08
6.44022e-09
4.30989e-09
6.12986e-09
6.697e-09
1.8048e-09
1.90997e-09
2.63984e-09
3.04903e-09
6.15443e-10
8.2281e-10
9.48187e-10
1.22863e-09
2.27623e-10
2.74756e-10
3.94299e-10
4.73115e-10
9.75428e-11
1.30313e-10
1.51605e-10
1.9902e-10
4.18353e-11
5.45596e-11
7.43023e-11
8.70942e-11
1.79236e-11
2.35404e-11
2.91526e-11
3.91117e-11
6.33929e-12
8.43346e-12
1.18578e-11
1.41495e-11
2.19525e-12
3.0254e-12
3.77357e-12
5.26489e-12
6.57467e-13
8.58572e-13
1.24791e-12
1.52213e-12
2.1519e-13
2.78529e-13
3.35508e-13
4.67204e-13
5.69055e-14
7.20621e-14
9.88675e-14
1.11638e-13
1.82456e-14
2.14179e-14
2.53922e-14
3.24664e-14
4.27328e-15
5.51933e-15
7.20682e-15
7.76321e-15
1.2078e-15
1.46888e-15
1.75409e-15
2.15951e-15
2.84902e-16
3.74317e-16
4.7014e-16
5.14078e-16
6.3212e-17
8.0251e-17
1.00154e-16
1.2514e-16
1.15004e-17
1.60983e-17
2.12134e-17
2.43168e-17
2.18932e-18
2.81245e-18
3.81778e-18
5.13711e-18
4.6313e-19
5.08627e-19
7.00249e-19
8.70771e-19
1.78792e-19
1.00119e-19
1.0937e-19
1.2874e-19
0.941206
0.873116
0.896443
0.944931
0.975835
0.814628
0.954724
0.973193
0.973222
0.968088
0.941374
0.947558
0.973167
0.940056
0.766958
0.884929
0.915884
0.915767
0.886457
0.812628
0.68442
0.571196
0.784541
0.84868
0.781296
0.823203
0.873032
0.933431
0.829784
0.657214
0.806664
0.905959
0.788875
0.870464
0.884479
0.788495
0.639226
0.729654
0.0524855
0.0627414
0.299212
0.496959
0.255324
0.117012
0.417506
0.730929
0.517391
0.100489
0.0507113
0.280149
0.511248
0.435625
0.637931
0.408003
0.127598
0.0840114
0.1702
0.000201121
0.000458547
0.0155214
0.036574
8.16233e-06
-2.18429e-19
0.103313
0.339039
0.282225
0.000128505
0.000132499
0.000129705
0.00920938
0.0204064
0.0407255
3.14689e-16
-3.42549e-06
-1.65186e-12
0.000138948
0.00346729
6.22603e-20
1.74593e-19
-4.88614e-09
-7.8661e-23
-5.19009e-20
0.0119638
0.148382
0.176929
0.000215086
0.000129878
0.000128229
0.000122417
0.000119795
0.000117086
0.000114785
0.000568777
0.00130149
0.00318818
0.00755386
0.00612827
6.181e-20
6.55625e-06
0.000142637
0.000125238
0.000296903
0.0369968
0.0978574
0.0823022
0.00347382
0.000127451
0.000127105
0.000127029
0.00012049
0.000117516
0.000120955
0.00136944
0.00335836
0.00582577
0.0173918
0.00841597
4.34574e-05
0.000735083
0.00124331
0.00117514
0.00569558
0.049809
0.0591752
0.0187786
0.00105466
0.000972437
0.000951388
0.000784321
0.000324759
0.000165058
0.0002123
0.00329433
0.00584238
0.0183772
0.0183897
0.0171264
0.0102279
0.00388491
0.00268764
0.00229744
0.00233874
0.00291265
0.00722329
0.00271062
0.0014821
0.00211305
0.00241239
0.00239723
0.00141955
0.000213046
0.00146339
0.0075374
0.0182901
0.0183768
0.0144457
0.0109654
0.0102108
0.0109885
0.0110162
0.0102924
0.00673831
0.00440118
0.00260172
0.000376573
0.000366845
0.00259104
0.00348812
0.00197195
0.000278377
0.00151293
0.00322998
0.00497612
0.00571354
0.00135727
0.00123406
0.000486805
0.000141757
0.00130893
0.00448098
0.0081417
0.00829558
0.00682792
0.000603229
0.00021885
0.00124294
0.00374113
0.00374158
0.00236464
0.00148349
3.90358e-12
-1.4625e-12
-6.73583e-15
-1.18335e-17
4.4328e-21
-8.12696e-23
-2.63694e-08
1.46699e-17
-6.59924e-09
1.31646e-05
0.000251908
0.000461571
0.0006167
0.000182206
0.00133921
0.0037414
0.00372642
0.0028938
0.000267778
8.90795e-07
3.49584e-08
1.11823e-10
3.09246e-21
2.73229e-09
2.84979e-06
8.62648e-06
3.45028e-06
2.16876e-06
5.93555e-07
1.24787e-08
5.41544e-07
4.64375e-06
5.55661e-05
0.000510643
0.000539769
0.00048326
0.000227652
1.59295e-12
2.5237e-07
2.40974e-08
7.88956e-07
7.09151e-06
1.56929e-05
1.5775e-05
1.24462e-05
5.90134e-07
1.25563e-08
1.24788e-08
1.22624e-08
1.09825e-08
1.10485e-08
1.68961e-05
9.30428e-06
6.85211e-07
-1.06166e-10
4.01676e-10
1.61046e-12
1.49735e-07
1.52525e-05
2.41611e-05
2.21572e-05
1.43135e-05
3.9438e-06
7.03997e-07
1.44446e-08
1.25617e-08
1.15082e-05
1.90771e-05
1.19774e-05
9.33166e-09
1.9874e-06
6.34301e-06
2.47751e-06
-1.66429e-10
1.6631e-06
4.48321e-07
2.84236e-05
3.61416e-05
2.56381e-05
8.4754e-06
1.46672e-06
3.56896e-07
7.82867e-07
1.44357e-05
2.18848e-05
2.1997e-05
2.23842e-05
2.23959e-05
1.76767e-05
5.3657e-06
6.48898e-07
7.11392e-07
4.8827e-06
6.59988e-06
2.43321e-06
4.53071e-05
3.64947e-05
2.06438e-06
1.37635e-06
8.25684e-07
2.70542e-07
8.6299e-07
1.7614e-05
2.18844e-05
2.20669e-05
1.7568e-05
1.53334e-05
1.86301e-05
1.4094e-05
3.08023e-06
8.4939e-06
1.31075e-05
1.31296e-05
1.31073e-05
4.7147e-05
2.80152e-05
1.79083e-06
2.04768e-06
3.58227e-06
1.48762e-06
1.44711e-07
7.30651e-07
5.48183e-07
6.86804e-07
3.91185e-06
5.19469e-06
4.38924e-06
2.38658e-06
4.16914e-06
1.21249e-05
1.30237e-05
1.27391e-05
1.00852e-05
2.04956e-05
1.93731e-05
4.19229e-06
1.2678e-06
4.76954e-06
4.68309e-06
2.24597e-06
3.35262e-06
1.13805e-05
3.46744e-05
3.7908e-05
1.57576e-05
1.67643e-05
7.03665e-06
3.1594e-06
3.20973e-06
1.03359e-05
5.85301e-06
3.96057e-07
1.23536e-08
4.23038e-07
3.11058e-06
1.17527e-06
1.81128e-06
3.92927e-06
7.70369e-06
1.67327e-05
5.25025e-05
5.25025e-05
5.25025e-05
5.25025e-05
4.80629e-05
3.9082e-05
1.18875e-05
5.75028e-06
3.61386e-06
1.5572e-07
3.75696e-07
1.25097e-08
9.28801e-09
5.77528e-08
1.13883e-07
6.7679e-07
9.30774e-07
1.77812e-06
8.92825e-06
3.52409e-05
3.80578e-05
2.20902e-05
9.44358e-06
2.14865e-05
3.83074e-05
3.76328e-05
1.5127e-05
6.45952e-06
1.66437e-07
6.99553e-08
9.43743e-09
9.13464e-09
6.75071e-09
4.92369e-09
1.76325e-08
2.17052e-07
4.58625e-07
3.58843e-06
6.40184e-06
7.34143e-06
3.75619e-06
1.03126e-08
1.10685e-10
1.90614e-05
4.19437e-05
2.94341e-05
1.37631e-05
6.78619e-07
6.96736e-08
5.74662e-09
7.39132e-09
7.25571e-09
4.91761e-09
2.20208e-09
1.91779e-09
1.90243e-09
2.06117e-07
1.8781e-06
1.79926e-06
4.47013e-07
4.1612e-09
1.24926e-09
-2.85692e-10
4.20828e-05
4.34376e-05
1.75541e-05
1.38178e-07
7.08858e-08
3.2324e-09
4.50764e-09
5.45243e-09
4.97207e-09
3.57923e-09
2.12443e-09
1.90073e-09
1.88704e-09
1.30343e-08
2.89005e-07
5.3749e-07
2.38934e-07
6.45054e-08
1.32741e-08
2.89319e-05
3.56525e-05
1.75563e-05
2.1997e-08
1.80498e-07
1.43181e-09
2.28031e-09
3.4599e-09
4.53049e-09
5.50212e-09
6.57358e-09
8.91934e-09
1.88682e-09
1.20725e-07
5.36929e-07
5.3748e-07
3.74351e-07
8.20491e-08
1.44045e-08
9.22949e-06
3.4348e-05
6.37285e-06
6.64878e-09
2.35288e-07
5.91342e-10
1.00293e-09
1.73046e-09
2.92647e-09
4.72536e-09
6.80013e-09
1.28233e-08
4.10726e-08
1.74819e-07
3.16751e-07
2.86909e-07
1.03342e-07
2.21277e-08
3.64269e-08
2.8876e-07
2.97781e-06
7.21598e-07
6.77287e-09
2.35304e-07
2.41409e-10
3.9027e-10
6.35263e-10
1.03004e-09
1.67246e-09
2.7441e-09
5.59463e-09
1.90485e-08
3.34318e-08
4.22932e-08
3.49534e-08
2.24297e-08
1.14274e-08
2.33838e-08
5.43979e-08
1.434e-09
1.43129e-09
1.87814e-08
2.13428e-07
1.09479e-10
1.72956e-10
2.73509e-10
4.25872e-10
6.57461e-10
9.73272e-10
1.3813e-09
2.43021e-09
3.79527e-09
5.98402e-09
9.26642e-09
8.55202e-09
8.50827e-09
2.81653e-08
1.70371e-08
6.31902e-09
3.72395e-09
1.15785e-08
2.10665e-07
4.71608e-11
7.81361e-11
1.29547e-10
2.14889e-10
3.61091e-10
5.91351e-10
9.67272e-10
1.56553e-09
2.56756e-09
4.28538e-09
6.78401e-09
6.99814e-09
1.87997e-08
4.3297e-08
6.16469e-08
4.32046e-08
1.15123e-08
4.1382e-08
1.43206e-07
1.9092e-11
3.22807e-11
5.59743e-11
9.87071e-11
1.74739e-10
3.22324e-10
5.81045e-10
1.05591e-09
2.00194e-09
3.66869e-09
6.55161e-09
9.28366e-09
2.70584e-08
5.63917e-08
6.48646e-08
4.80765e-08
1.16028e-08
7.2156e-08
1.41119e-07
6.62907e-12
1.17819e-11
2.11373e-11
3.92256e-11
7.52873e-11
1.53409e-10
3.09915e-10
6.28966e-10
1.29536e-09
2.70904e-09
5.51505e-09
9.88918e-09
2.13119e-08
4.66866e-08
5.09413e-08
2.7551e-08
1.15146e-08
1.32219e-07
1.2854e-07
2.14742e-12
3.63334e-12
6.64907e-12
1.28162e-11
2.62496e-11
5.87598e-11
1.41106e-10
3.3281e-10
7.67869e-10
1.82062e-09
4.08411e-09
8.83225e-09
1.52844e-08
2.08072e-08
2.4293e-08
1.97088e-08
3.56081e-08
1.32762e-07
1.28904e-07
5.6126e-13
9.16692e-13
1.53508e-12
2.74642e-12
5.37178e-12
1.13858e-11
2.44171e-11
7.1406e-11
2.20465e-10
6.52453e-10
1.68318e-09
3.68551e-09
7.09029e-09
1.2217e-08
1.48958e-08
2.37674e-08
5.02563e-08
1.12503e-07
1.05022e-07
1.51877e-13
2.10884e-13
3.16116e-13
4.98176e-13
8.35234e-13
1.44261e-12
2.92365e-12
9.21406e-12
3.26936e-11
1.06266e-10
3.18249e-10
8.88058e-10
3.39407e-09
4.21638e-09
1.0293e-08
2.69001e-08
5.08011e-08
2.65471e-08
3.57019e-07
3.52266e-14
4.95447e-14
6.76382e-14
9.77775e-14
1.51393e-13
2.46483e-13
4.3021e-13
1.13373e-12
3.9339e-12
1.39362e-11
4.44673e-11
1.40714e-10
5.64998e-10
2.83788e-09
6.01777e-09
1.37621e-08
2.63371e-08
1.68882e-08
3.8522e-07
9.5323e-15
1.17734e-14
1.53278e-14
2.12994e-14
3.28403e-14
5.72473e-14
1.13657e-13
2.64342e-13
8.52506e-13
2.93687e-12
1.04373e-11
3.29173e-11
1.01134e-10
8.47304e-10
1.8593e-09
2.86973e-09
5.03268e-09
1.15982e-08
3.91891e-07
2.32837e-15
2.91601e-15
3.70883e-15
5.14111e-15
8.21446e-15
1.55067e-14
3.53921e-14
9.81063e-14
2.99373e-13
9.88493e-13
3.83727e-12
1.4503e-11
4.71852e-11
3.04839e-10
1.39203e-09
2.41895e-09
4.71129e-09
1.278e-08
3.91713e-07
5.80814e-16
7.29672e-16
9.54199e-16
1.40764e-15
2.5504e-15
5.42264e-15
1.35949e-14
3.9525e-14
1.27242e-13
4.46628e-13
1.67992e-12
7.02901e-12
2.72173e-11
1.03343e-10
9.84862e-10
2.92736e-09
5.76326e-09
1.52277e-08
1.6098e-07
1.3636e-16
1.77866e-16
2.49354e-16
4.32225e-16
9.11409e-16
2.19138e-15
5.94341e-15
1.71104e-14
5.44629e-14
1.96285e-13
7.57004e-13
3.34143e-12
1.52926e-11
6.88864e-11
4.2592e-10
2.67639e-09
5.86552e-09
1.36658e-08
3.22071e-10
3.05189e-17
3.95976e-17
6.07353e-17
1.22156e-16
3.09872e-16
8.70001e-16
2.52029e-15
7.19091e-15
2.13533e-14
6.80351e-14
2.41402e-13
1.05153e-12
5.30762e-12
2.76742e-11
1.50135e-10
1.29072e-09
3.99947e-09
4.25033e-09
3.22142e-10
5.76658e-18
7.84597e-18
1.29879e-17
3.04862e-17
9.44502e-17
3.29222e-16
1.097e-15
3.46722e-15
1.04675e-14
3.11936e-14
9.81594e-14
3.73437e-13
1.80285e-12
1.02913e-11
6.36501e-11
3.65504e-10
9.08108e-10
1.44704e-09
3.22021e-10
9.85682e-19
1.29824e-18
2.11558e-18
5.24044e-18
1.89974e-17
8.00493e-17
3.30188e-16
1.24468e-15
4.25867e-15
1.35434e-14
4.22281e-14
1.43803e-13
6.31412e-13
3.29427e-12
1.66608e-11
1.13564e-10
2.85237e-10
5.66426e-10
2.64303e-10
1.41199e-19
1.71551e-19
2.50356e-19
5.45813e-19
1.96792e-18
9.92244e-18
5.30647e-17
2.59589e-16
1.12164e-15
4.21781e-15
1.42102e-14
4.50575e-14
1.57444e-13
7.48332e-13
3.90831e-12
2.04615e-11
7.38339e-11
1.13255e-10
1.09949e-10
)
;

boundaryField
{
    leftWall
    {
        type            zeroGradient;
    }
    rightWall
    {
        type            zeroGradient;
    }
    lowerWall
    {
        type            zeroGradient;
    }
    atmosphere
    {
        type            inletOutlet;
        inletValue      uniform 0;
        value           nonuniform List<scalar> 
46
(
1.03133e-07
1.22851e-07
6.14066e-08
1.17754e-08
2.48748e-09
0
0
0
0
0
0
0
0
0
0
0
0
0
0
1.60933e-16
2.38229e-16
1.01707e-16
1.2509e-17
1.78792e-19
1.00119e-19
0
0
0
0
0
0
0
0
0
0
0
0
0
0
0
0
3.90831e-12
2.04615e-11
7.38339e-11
1.13255e-10
1.09949e-10
)
;
    }
    defaultFaces
    {
        type            empty;
    }
}


// ************************************************************************* //
