/*--------------------------------*- C++ -*----------------------------------*\
| =========                 |                                                 |
| \\      /  F ield         | OpenFOAM: The Open Source CFD Toolbox           |
|  \\    /   O peration     | Version:  2312                                  |
|   \\  /    A nd           | Website:  www.openfoam.com                      |
|    \\/     M anipulation  |                                                 |
\*---------------------------------------------------------------------------*/
FoamFile
{
    version     2.0;
    format      ascii;
    arch        "LSB;label=32;scalar=64";
    class       volScalarField;
    location    "4.25";
    object      alpha.oil;
}
// * * * * * * * * * * * * * * * * * * * * * * * * * * * * * * * * * * * * * //

dimensions      [0 0 0 0 0 0 0];

internalField   nonuniform List<scalar> 
2268
(
7.72676e-10
7.87076e-10
7.84124e-10
1.13744e-09
1.14152e-09
1.32746e-09
1.73045e-09
1.56592e-09
9.20404e-10
6.82327e-10
5.74788e-10
5.29158e-10
5.76403e-10
7.74977e-10
1.43577e-09
3.52593e-09
9.06179e-09
1.97043e-08
1.9776e-08
7.54753e-06
4.27484e-05
4.56506e-05
4.54599e-05
9.62777e-10
4.78167e-09
1.82027e-08
3.11759e-08
4.71138e-08
4.08717e-08
1.12192e-08
3.61342e-09
1.75177e-09
1.44159e-09
1.42036e-09
1.669e-09
2.34532e-09
2.3446e-09
5.63907e-09
2.77997e-08
1.09861e-07
1.77573e-07
1.06068e-07
1.96723e-07
5.38917e-06
1.9648e-05
1.71923e-05
4.56432e-10
6.48717e-09
4.24922e-08
1.30895e-07
1.53531e-07
1.33921e-07
2.04806e-08
1.65619e-09
1.03528e-09
1.12208e-09
2.45747e-09
8.64449e-09
1.92832e-08
1.30639e-08
1.62266e-08
1.07578e-07
1.0217e-06
1.07378e-06
8.47676e-07
1.01584e-09
1.41875e-26
5.41826e-23
-5.27188e-11
4.56432e-10
5.45936e-09
2.34037e-08
3.75364e-08
3.84151e-08
2.57143e-08
1.21076e-08
1.31534e-09
1.48728e-08
3.59763e-08
4.92083e-08
5.40326e-08
2.2304e-08
5.03579e-08
1.52377e-08
1.62595e-08
1.48733e-08
5.27693e-09
-1.28767e-21
3.78835e-29
-5.86204e-14
-3.74557e-16
-1.23042e-11
4.56432e-10
1.92236e-09
4.17679e-09
4.799e-09
1.12198e-07
4.85303e-09
2.20315e-09
7.71774e-06
5.79649e-05
7.39484e-05
5.77473e-05
7.92481e-05
7.93461e-05
1.51073e-08
1.51021e-08
0.00103781
0.0143948
0.0253309
0.0309703
0.0306277
0.00405248
3.07207e-20
-3.72424e-14
3.28555e-08
2.3679e-08
1.13632e-09
1.0074e-09
2.46315e-05
8.53496e-05
0.000227935
0.000542082
0.000686637
0.000588807
0.000293224
0.000800782
0.00373042
0.00613887
0.00402505
0.0118915
0.0604252
0.097648
0.104746
0.10475
0.0851385
0.0343109
0.00338814
0.00196044
0.00273191
0.00134039
0.000493423
5.60897e-05
0.000228846
0.000659883
0.000696593
0.000696553
0.00063349
0.000272177
0.000230381
0.00244458
0.0159428
0.021781
0.0211763
0.0346431
0.0356451
0.0379021
0.0668533
0.0914073
0.0915323
0.046376
0.00670467
0.00670464
0.00669434
0.0039357
0.000993905
0.000291579
0.00015622
0.000159014
0.000152218
0.000188617
0.000234383
0.000229396
0.000227941
0.00212868
0.0292308
0.0301942
0.025266
0.0157101
0.0152377
0.0125664
0.0228211
0.069981
0.0606579
0.027837
0.0278467
0.0274741
0.0270829
0.0267939
0.0267939
0.02691
0.0280402
0.0273514
0.026633
0.0266342
0.0266331
0.0266345
0.0267981
0.0274631
0.0268523
0.0267713
0.0267713
0.0267713
0.057942
0.0460556
0.0404722
0.0390806
0.0415475
0.0604903
0.0647201
0.0563159
0.0452874
0.0394498
0.0267447
0.0278488
0.0337561
0.0441321
0.0447607
0.0400777
0.034378
0.0352339
0.0296462
0.28242
0.257083
0.225845
0.296122
0.344037
0.344625
0.329191
0.273712
0.267787
0.30314
0.288009
0.277068
0.358406
0.40473
0.39918
0.38064
0.359323
0.370243
0.394448
0.282754
0.0996666
0.0893036
0.0952338
0.0512576
0.0140602
0.0130855
0.0210773
0.324117
0.488097
0.513435
0.513765
0.514065
0.514069
0.513112
0.504277
0.481449
0.476813
0.491854
0.0945178
0.00382959
0.00365128
0.00361389
0.00365128
0.00413982
0.0147416
0.0111375
0.094589
0.37281
0.39495
0.184691
0.396727
0.416534
0.171183
0.132678
0.077933
0.0655948
0.405188
0.0307338
0.0227979
0.0125679
0.00505469
0.00363556
0.0273908
0.043735
0.0297643
0.0239709
0.132133
0.133569
0.043688
0.16885
0.179875
0.0666755
0.0658316
0.0514303
0.0458861
0.101994
0.10625
0.21644
0.0498174
0.00512437
0.00508871
0.0302486
0.0690302
0.0498334
0.0142146
0.0199837
0.0230066
0.0213339
0.0187795
0.0164943
0.0601623
0.0469523
0.034729
0.0348047
0.037169
0.24546
0.246299
0.04458
0.00477462
0.00477791
0.112491
0.112845
0.0176124
0.0129113
0.0191637
0.0192099
0.016748
0.0172766
0.0165332
0.12536
0.0471607
0.0347996
0.050684
0.0649371
0.00335747
0.00335428
0.00284992
0.00132021
0.000337067
0.000117844
7.73567e-05
3.22934e-05
1.14388e-05
1.34277e-05
9.36025e-05
0.000111569
6.61657e-05
9.68719e-05
0.00695788
0.0290642
0.0268873
0.0141142
0.0137498
0.00924773
0.00637571
0.00644365
0.0109568
0
-3.67095e-25
5.43756e-07
1.07107e-05
7.00087e-06
4.04905e-06
-4.36543e-24
2.18335e-14
3.7262e-13
1.86946e-07
1.70616e-16
1.19343e-24
1.2973e-24
-1.90113e-24
-1.85979e-22
0.00290849
0.00814955
0.0218381
0.0472368
0.0653336
0.0679781
0.0737945
0.11131
-3.27602e-20
-1.55814e-20
-4.64933e-10
-1.30783e-08
-6.1961e-09
-2.62819e-09
-3.0186e-13
4.48579e-17
2.18096e-09
0.0025498
0.0090151
0.031805
0.0986267
0.212724
0.324271
0.325725
0.349812
0.551099
0.728295
0.749878
0.783548
0.83073
0.899785
0.0527519
0.0718321
0.118074
0.200542
0.254425
0.240816
0.254983
0.267216
0.341775
0.436115
0.571105
0.744555
0.901487
0.968782
0.917464
0.866287
0.902191
0.981994
0.998043
0.99652
0.997484
0.997416
0.989443
0.724226
0.801537
0.886289
0.950469
0.957749
0.953199
0.978777
0.982114
0.954516
0.922257
0.955705
0.999365
0.999356
0.999372
0.976676
0.910605
0.958192
0.999629
0.999629
0.999629
0.999629
0.999604
0.993796
0.973465
0.979112
0.990017
0.993282
0.995673
0.997435
0.997482
0.99751
0.995651
0.990294
0.997365
0.999406
0.999406
0.999406
0.999402
0.997043
0.999629
0.999629
0.999629
0.999629
0.999629
0.999629
0.99953
0.350951
0.398944
0.47304
0.518472
0.55548
0.600511
0.667978
0.731892
0.763972
0.792561
0.814638
0.837621
0.845457
0.850219
0.863106
0.885778
0.894267
0.91122
0.947426
0.983737
0.994007
0.9892
0.994857
-1.20717e-21
-6.02864e-21
0.00171937
0.0250846
0.0372554
0.0411091
0.0366471
0.0324787
0.0360744
0.0493009
0.0604086
0.0718054
0.0748553
0.0786321
0.0913888
0.107503
0.129491
0.176606
0.260865
0.358449
0.439389
0.568232
0.695053
-1.80025e-12
-9.55645e-12
-4.99637e-28
4.76941e-15
2.61722e-14
1.69376e-23
1.62468e-23
-1.98009e-09
2.39355e-10
7.35871e-12
2.29698e-12
7.22512e-14
4.01614e-27
1.1554e-25
-2.78839e-10
-1.04408e-20
-4.74573e-20
2.18857e-21
-6.16139e-20
-1.92224e-19
0.000394079
0.0114023
0.0439645
-4.15163e-13
2.66194e-09
7.43861e-09
7.70871e-08
1.68372e-07
9.22115e-07
2.40237e-06
1.87647e-06
1.10025e-06
4.56182e-06
2.2935e-06
3.61655e-07
3.16542e-11
4.26814e-07
6.2557e-07
4.52136e-07
1.50648e-07
4.26078e-08
1.69042e-14
9.61696e-12
-3.22654e-15
4.67164e-15
4.79644e-20
8.23323e-09
7.20169e-09
7.11099e-09
7.01621e-07
1.01498e-06
1.53988e-06
2.37988e-06
7.10743e-06
2.5826e-05
3.33266e-05
1.38566e-05
3.22869e-06
1.15788e-05
7.81611e-06
2.84946e-06
3.84428e-07
1.46548e-07
1.30469e-07
3.06803e-10
-2.67212e-14
2.65007e-23
1.44508e-15
1.40447e-08
2.35528e-08
2.26716e-08
7.16636e-08
7.10386e-07
9.36224e-07
3.05355e-07
3.49639e-07
5.24099e-05
5.53518e-05
5.77419e-05
4.96966e-05
4.13753e-05
4.53503e-05
3.15915e-05
1.11362e-06
2.30675e-07
4.66462e-07
1.74518e-06
5.26482e-06
6.67118e-06
3.85364e-06
1.36606e-06
3.61087e-07
2.43701e-08
5.51263e-08
7.56322e-08
9.39883e-08
5.43561e-08
5.44979e-08
1.62794e-05
5.24968e-05
5.78932e-05
5.78698e-05
5.38077e-05
4.52372e-05
4.38293e-05
1.70115e-05
2.30573e-07
2.30435e-07
5.01178e-06
1.59134e-05
1.65873e-05
1.65864e-05
9.2784e-06
1.85531e-06
4.26933e-07
2.08591e-08
3.55202e-08
4.71351e-08
4.99456e-08
4.97156e-08
2.20859e-07
5.03141e-07
2.94219e-06
2.39364e-05
3.11755e-05
2.91588e-05
2.56354e-05
1.18713e-05
2.23443e-06
3.73185e-07
1.65823e-06
1.65839e-05
1.65854e-05
1.65877e-05
1.32445e-05
2.06272e-06
6.22789e-07
5.91242e-08
1.88257e-08
2.45273e-08
4.51777e-08
8.77469e-08
1.30379e-07
3.06145e-07
1.21672e-09
5.0524e-11
5.24318e-11
5.05241e-11
5.24318e-11
5.05245e-11
5.24321e-11
6.37533e-11
5.63643e-07
2.40953e-06
5.14638e-06
1.28988e-05
1.65874e-05
1.12182e-05
9.55982e-07
1.44468e-07
3.99344e-08
1.63347e-08
1.74184e-08
3.84993e-08
7.51451e-08
1.01144e-07
1.41163e-08
5.05974e-09
3.27728e-09
1.64045e-09
8.37295e-10
8.63547e-10
1.42381e-09
1.99347e-08
1.25133e-07
1.73787e-07
5.53908e-08
2.89205e-09
3.14379e-07
1.05294e-05
1.30956e-05
4.9687e-06
2.18667e-08
1.68976e-08
1.10035e-08
1.42973e-08
2.86711e-08
4.65328e-08
4.11681e-08
2.39842e-08
1.03123e-08
6.39319e-09
3.96613e-09
2.89715e-09
2.45601e-09
6.59209e-09
2.6647e-08
1.89423e-08
2.89262e-09
2.89204e-09
2.8925e-09
2.89205e-09
4.21006e-06
1.3088e-05
1.23428e-05
2.48177e-07
1.94406e-09
3.50093e-09
1.08124e-08
1.85697e-08
2.2909e-08
1.64024e-08
1.68528e-08
9.70852e-09
7.23163e-09
4.61927e-09
3.46188e-09
3.15517e-09
3.98616e-09
5.8242e-09
2.06924e-09
3.99167e-09
2.90508e-09
3.17442e-09
2.89248e-09
2.89205e-09
1.62728e-06
5.69826e-06
2.01831e-06
1.93312e-09
2.86703e-09
8.32711e-09
1.21773e-08
1.30764e-08
1.20658e-08
1.04604e-08
7.52115e-09
5.39913e-09
3.83107e-09
3.0078e-09
2.54168e-09
2.12442e-09
1.74375e-09
1.8517e-09
2.4658e-09
3.27017e-09
3.36755e-09
3.28308e-09
2.92519e-09
2.92507e-09
1.63972e-08
7.25751e-07
3.16126e-08
2.55931e-09
5.69876e-09
8.14296e-09
8.57732e-09
7.99989e-09
6.49058e-09
4.78908e-09
3.1908e-09
2.2855e-09
1.85124e-09
1.65535e-09
1.59757e-09
1.59587e-09
1.77219e-09
2.15985e-09
2.66751e-09
3.10145e-09
3.55186e-09
4.0701e-09
4.45211e-09
4.9175e-09
5.04317e-09
7.91203e-08
2.5609e-09
4.08704e-09
5.36905e-09
5.64052e-09
4.91482e-09
3.6426e-09
2.42151e-09
1.53559e-09
1.1581e-09
9.46967e-10
8.90928e-10
9.29687e-10
1.03927e-09
1.21191e-09
1.45661e-09
1.81029e-09
2.29287e-09
2.99034e-09
4.06789e-09
5.67354e-09
8.06007e-09
1.14794e-08
4.23962e-08
2.48826e-09
2.82626e-09
3.19859e-09
2.95009e-09
2.39874e-09
1.67208e-09
1.0705e-09
7.83202e-10
5.88477e-10
4.87999e-10
4.48767e-10
4.56594e-10
5.14149e-10
6.26129e-10
8.0811e-10
1.05424e-09
1.39067e-09
1.84907e-09
2.4939e-09
3.56979e-09
5.24562e-09
8.31189e-09
1.62009e-08
2.50177e-09
2.39906e-09
2.18618e-09
1.76426e-09
1.35211e-09
9.83311e-10
6.93268e-10
5.32984e-10
4.34945e-10
3.42933e-10
2.72316e-10
2.36787e-10
2.4862e-10
3.08212e-10
4.15841e-10
5.75566e-10
7.97261e-10
1.09495e-09
1.49574e-09
2.03366e-09
2.85882e-09
4.49766e-09
6.98745e-09
2.51884e-09
2.1255e-09
1.7504e-09
1.43848e-09
1.20265e-09
9.62346e-10
6.52708e-10
5.35623e-10
4.49949e-10
3.47678e-10
2.48512e-10
1.73346e-10
1.41097e-10
1.52329e-10
2.04333e-10
2.9643e-10
4.31609e-10
6.1443e-10
8.77456e-10
1.21646e-09
1.63673e-09
2.42676e-09
3.43477e-09
2.68412e-09
2.10182e-09
1.71279e-09
1.50171e-09
1.38263e-09
1.16566e-09
7.13066e-10
6.0254e-10
5.30792e-10
4.20077e-10
2.94952e-10
1.8285e-10
1.12492e-10
8.61415e-11
9.78843e-11
1.42046e-10
2.17038e-10
3.2945e-10
4.79081e-10
6.67858e-10
9.27296e-10
1.27876e-09
1.79994e-09
2.7485e-09
2.18421e-09
1.8358e-09
1.68857e-09
1.70088e-09
1.46372e-09
7.54664e-10
6.59831e-10
6.13869e-10
5.04487e-10
3.65128e-10
2.26002e-10
1.24362e-10
6.84984e-11
5.19605e-11
6.54402e-11
1.02531e-10
1.65768e-10
2.57348e-10
3.7932e-10
5.27311e-10
7.82786e-10
9.95577e-10
2.98221e-09
2.31325e-09
1.98137e-09
1.91423e-09
2.24657e-09
1.72052e-09
7.12121e-10
6.95491e-10
6.76093e-10
5.74962e-10
4.33117e-10
2.79064e-10
1.54593e-10
7.60742e-11
3.83108e-11
3.20676e-11
4.71717e-11
8.02265e-11
1.31923e-10
2.0473e-10
3.11385e-10
4.39075e-10
6.16764e-10
3.0356e-09
2.49093e-09
2.06012e-09
2.58562e-09
5.15217e-09
1.41521e-09
6.26375e-10
7.51192e-10
7.05588e-10
6.17918e-10
4.81147e-10
3.26459e-10
1.87487e-10
9.42063e-11
4.07189e-11
2.07137e-11
2.22523e-11
3.80534e-11
6.90223e-11
1.17663e-10
1.85489e-10
3.06995e-10
3.97367e-10
3.3927e-09
2.78893e-09
1.99702e-09
1.99848e-09
3.8092e-08
4.09324e-10
6.29095e-10
1.04205e-09
6.88643e-10
6.28743e-10
4.98397e-10
3.50803e-10
2.12628e-10
1.13031e-10
4.91322e-11
1.96142e-11
1.25382e-11
1.91708e-11
3.66425e-11
6.60227e-11
1.22848e-10
1.83959e-10
2.94558e-10
3.84251e-09
9.25919e-09
1.1146e-07
3.83248e-07
8.6313e-08
4.09098e-10
9.50452e-10
2.07247e-09
5.91122e-10
5.70157e-10
4.66197e-10
3.49104e-10
2.21505e-10
1.24331e-10
5.73501e-11
2.27012e-11
9.86568e-12
1.07132e-11
2.07052e-11
4.05505e-11
7.29012e-11
1.42388e-10
1.99597e-10
7.60865e-09
3.77528e-08
3.58788e-07
7.10514e-07
8.85408e-08
4.09605e-10
2.36071e-09
6.15286e-09
4.23056e-10
4.97588e-10
4.18511e-10
3.21439e-10
2.11064e-10
1.22074e-10
6.22964e-11
2.58366e-11
9.65283e-12
6.65519e-12
1.18564e-11
2.42839e-11
5.22077e-11
8.74802e-11
1.52169e-10
7.65456e-09
6.77634e-08
6.05894e-07
7.09879e-07
6.41877e-08
2.41672e-09
3.31917e-08
7.52657e-09
4.22403e-10
4.59093e-10
3.56519e-10
2.73263e-10
1.80772e-10
1.09916e-10
5.93389e-11
2.68271e-11
1.00955e-11
4.66186e-12
6.48884e-12
1.41214e-11
2.93977e-11
6.78685e-11
1.01945e-10
1.03376e-08
1.1687e-07
5.87836e-07
7.75529e-07
3.44723e-08
2.07634e-08
8.52647e-08
5.4438e-09
4.21771e-10
4.20975e-10
2.85151e-10
2.14381e-10
1.44503e-10
8.80805e-11
4.96568e-11
2.45289e-11
9.96864e-12
3.79162e-12
3.37595e-12
7.6871e-12
1.83838e-11
3.45466e-11
7.39346e-11
8.73519e-09
1.16313e-07
6.30921e-07
8.4701e-07
2.25332e-07
1.08334e-07
1.01554e-07
1.22077e-08
5.51379e-10
3.65903e-10
2.1092e-10
1.56484e-10
1.06359e-10
6.34275e-11
3.61995e-11
1.9214e-11
8.70534e-12
3.2789e-12
1.96862e-12
3.68915e-12
8.63913e-12
2.53931e-11
4.02584e-11
8.63671e-09
1.21212e-07
8.47147e-07
8.46864e-07
1.40643e-07
1.54035e-07
9.93677e-08
1.42101e-08
9.58813e-10
2.91388e-10
1.45246e-10
1.08275e-10
7.10952e-11
4.13528e-11
2.29813e-11
1.26285e-11
6.36048e-12
2.62962e-12
1.23267e-12
1.7824e-12
4.19571e-12
9.48544e-12
2.50037e-11
6.48011e-09
1.02594e-07
8.47272e-07
7.84586e-07
8.93213e-08
1.5761e-07
6.87273e-08
1.24307e-08
1.07446e-09
2.14279e-10
9.2784e-11
6.77829e-11
4.38618e-11
2.40315e-11
1.26149e-11
6.8682e-12
3.74858e-12
1.75887e-12
7.88545e-13
8.5775e-13
2.06839e-12
5.66458e-12
1.10436e-11
4.31089e-09
9.49311e-08
5.42535e-07
4.01939e-07
1.12417e-07
1.4504e-07
5.17986e-08
1.12127e-08
1.10244e-09
1.42318e-10
5.23689e-11
3.82133e-11
2.45265e-11
1.26439e-11
6.00988e-12
3.07632e-12
1.70748e-12
9.14611e-13
4.24145e-13
2.88603e-13
6.351e-13
1.63477e-12
5.83035e-12
4.3105e-09
8.81459e-08
2.91524e-07
1.58216e-07
8.52483e-08
8.7503e-08
3.79209e-08
9.27197e-09
1.1921e-09
8.27906e-11
2.46132e-11
1.88213e-11
1.22179e-11
6.0065e-12
2.53934e-12
1.12976e-12
5.91425e-13
3.44333e-13
1.93395e-13
1.29817e-13
2.53337e-13
7.63625e-13
1.74887e-12
4.32227e-09
4.4917e-08
1.46172e-07
5.56039e-08
7.44447e-08
5.15159e-08
2.1589e-08
5.86043e-09
8.77168e-10
5.80372e-11
9.05657e-12
7.6938e-12
5.20615e-12
2.51658e-12
9.6079e-13
3.4182e-13
1.5373e-13
8.8641e-14
5.85136e-14
4.09599e-14
5.84857e-14
1.83135e-13
6.43558e-13
5.4497e-09
7.30008e-09
1.93678e-08
3.48287e-08
7.44869e-08
4.05445e-08
1.32057e-08
3.07091e-09
4.56739e-10
2.9045e-11
2.49777e-12
2.41086e-12
1.76924e-12
8.68822e-13
3.1243e-13
9.26644e-14
3.0668e-14
1.53354e-14
1.20706e-14
1.15155e-14
1.62632e-14
5.84817e-14
1.64775e-13
5.45068e-09
7.72033e-09
7.72989e-09
5.36219e-08
5.29634e-08
2.11383e-08
5.64927e-09
1.06619e-09
1.20532e-10
6.66038e-12
4.42569e-13
4.87833e-13
4.03586e-13
2.10387e-13
7.40551e-14
1.89701e-14
4.37036e-15
1.63639e-15
1.60629e-15
2.17672e-15
3.22663e-15
9.13566e-15
4.83319e-14
1.4781e-08
1.08901e-08
3.15517e-08
5.94962e-08
1.95709e-08
3.62934e-09
6.33087e-10
7.90987e-11
5.8262e-12
2.79904e-13
3.01475e-14
4.78941e-14
4.64122e-14
2.63904e-14
9.51757e-15
2.15178e-15
3.59597e-16
9.45647e-17
1.3371e-16
3.20333e-16
7.71363e-16
2.76204e-15
1.07738e-14
0.0112341
0.0115698
0.0118865
0.0120556
0.132364
0.14498
0.226813
0.224443
0.95293
0.95804
0.923002
0.927068
0.987938
0.992616
0.998408
0.99564
0.99212
0.999434
0.998922
0.996158
0.999288
0.999579
0.999576
0.996235
0.999269
0.999582
0.99958
0.998903
0.775059
0.810294
0.838227
0.879116
0.079959
0.100285
0.132551
0.183631
-3.77632e-20
4.85917e-20
4.41157e-21
1.04233e-19
3.81057e-09
4.26729e-08
7.28752e-08
9.431e-11
1.08276e-07
8.23112e-08
7.13882e-08
7.94471e-07
4.48661e-07
5.85227e-07
1.15998e-06
1.91467e-06
4.99614e-07
9.36185e-07
1.91281e-06
2.36341e-06
5.07462e-07
7.35322e-07
1.82394e-06
8.72468e-06
1.11985e-07
9.86907e-08
2.14139e-06
2.87238e-05
3.98454e-08
2.98021e-07
2.4846e-06
9.12626e-06
3.71801e-09
2.38584e-07
1.67625e-06
1.13355e-08
2.62766e-08
2.17938e-07
1.94125e-07
2.97938e-08
1.1657e-07
1.34486e-07
1.13175e-07
4.66184e-08
7.93961e-08
9.64478e-08
6.64971e-08
7.01156e-08
3.4707e-08
4.06281e-08
5.511e-08
6.47146e-08
1.28552e-08
1.49615e-08
2.61794e-08
3.26353e-08
5.03042e-09
7.01242e-09
8.08353e-09
1.13417e-08
2.39405e-09
2.73124e-09
3.7878e-09
4.32039e-09
1.30377e-09
1.55311e-09
1.6681e-09
2.0302e-09
7.81435e-10
8.92578e-10
1.0512e-09
1.12561e-09
5.46933e-10
6.26114e-10
6.89409e-10
7.94826e-10
3.87069e-10
4.55032e-10
5.4206e-10
5.88348e-10
2.94729e-10
3.60331e-10
4.06972e-10
4.8701e-10
2.15206e-10
2.60805e-10
3.31543e-10
3.7558e-10
1.62606e-10
2.04027e-10
2.37786e-10
3.04585e-10
1.05229e-10
1.32396e-10
1.76987e-10
2.01622e-10
7.40879e-11
8.94437e-11
1.09462e-10
1.44107e-10
3.72083e-11
4.93198e-11
6.80133e-11
7.76334e-11
2.10196e-11
2.67509e-11
3.38049e-11
4.54222e-11
9.27462e-12
1.26923e-11
1.70485e-11
2.03512e-11
3.86306e-12
4.98044e-12
6.59939e-12
9.07601e-12
1.20213e-12
1.72974e-12
2.39557e-12
2.97201e-12
3.6928e-13
5.18943e-13
7.38006e-13
1.05226e-12
9.83884e-14
1.44958e-13
2.10618e-13
2.78436e-13
2.51731e-14
3.60147e-14
4.85839e-14
6.17982e-14
0.0557149
0.123627
0.0946627
0.0484127
0.0181843
0.155412
0.0350101
0.00886895
0.00890485
0.0194373
0.0160643
0.0160425
0.0161423
0.0190616
0.125864
0.037121
0.046556
0.0687991
0.101379
0.179407
0.3011
0.417595
0.195319
0.112258
0.164827
0.0610506
0.00887434
0.021034
0.127346
0.251226
0.0829111
0.0161345
0.0992907
0.0645023
0.0713135
0.18908
0.338787
0.256775
0.925368
0.922249
0.671017
0.463217
0.69332
0.76474
0.384211
0.0798392
0.33105
0.842257
0.871295
0.604287
0.37318
0.448811
0.270742
0.559815
0.84685
0.88855
0.802738
0.991473
0.966585
0.951051
0.934415
0.982789
0.871489
0.701323
0.47208
0.563503
0.979321
0.973221
0.914391
0.875192
0.86497
0.869488
0.950988
0.988129
0.991955
0.993498
0.993962
0.978335
0.967189
0.990877
0.998328
0.987039
0.843217
0.662823
0.651476
0.992868
0.99266
0.988552
0.977736
0.979784
0.987025
0.975807
0.974596
0.989377
0.993527
0.99124
0.990878
0.996477
0.999049
0.999049
0.999049
0.96993
0.797303
0.726327
0.892746
0.993941
0.997468
0.997532
0.997532
0.997531
0.996211
0.980072
0.994459
0.993558
0.994055
0.981056
0.988586
0.999051
0.999051
0.998711
0.998669
0.97146
0.843734
0.836962
0.926848
0.997531
0.997531
0.997531
0.997531
0.997531
0.997531
0.997531
0.994041
0.918213
0.894138
0.856034
0.855559
0.874359
0.917782
0.940854
0.95312
0.960563
0.96896
0.974905
0.996607
0.997531
0.997531
0.997532
0.997531
0.997531
0.996742
0.991595
0.233368
0.229207
0.159363
0.143561
0.129088
0.129322
0.157996
0.230518
0.38105
0.62376
0.81951
0.87393
0.930584
0.991561
0.996382
0.996405
0.99748
0.993407
0.991571
-4.42063e-20
5.34985e-22
-1.20321e-20
1.70682e-19
1.24844e-19
7.64345e-20
-1.25615e-22
1.91083e-12
5.65033e-11
5.70912e-11
0.0217282
0.0993527
0.210121
0.480445
0.777418
0.892395
0.958531
0.984577
0.989798
1.53337e-12
1.8892e-08
9.46924e-08
3.87781e-08
1.77943e-09
3.25993e-11
1.07119e-18
6.74821e-06
2.85837e-05
1.40515e-05
5.84978e-24
-9.56867e-10
-4.98919e-19
6.0362e-12
0.0512877
0.162438
0.29794
0.442152
0.514586
1.09105e-06
4.95574e-07
1.47447e-07
2.28662e-09
-5.20752e-13
-5.82442e-14
7.28795e-06
7.64087e-05
8.13245e-05
6.82399e-05
6.46806e-06
1.95202e-06
2.49652e-07
1.44852e-09
3.61855e-19
5.98069e-19
7.24576e-13
5.70212e-12
1.75009e-11
2.66944e-06
1.05705e-06
1.59866e-07
4.44641e-07
6.81149e-05
9.99131e-05
0.000101193
6.33291e-05
1.70607e-06
5.8445e-07
-5.35898e-08
-2.42122e-08
5.98313e-06
5.55378e-06
7.99714e-07
6.94659e-06
1.03243e-05
5.77894e-06
1.66401e-06
2.81388e-06
1.86896e-05
8.54568e-05
0.000102699
0.000108506
5.58313e-05
1.41901e-05
3.02904e-06
1.21974e-06
0.000132774
0.000181013
0.000144984
3.63949e-05
5.56328e-06
2.62054e-06
1.39872e-05
2.61256e-05
2.92715e-05
1.38318e-05
5.18496e-05
8.47022e-05
9.42845e-05
6.78732e-05
3.4203e-05
3.16612e-06
2.82074e-06
0.000121627
0.000218399
0.000217661
0.000217511
0.000216354
1.43807e-05
4.31193e-06
1.00155e-05
4.50701e-05
5.02359e-05
5.1825e-05
4.33469e-05
4.15427e-05
2.17676e-05
1.43489e-05
1.55244e-06
2.22635e-06
1.17225e-06
0.000108525
0.000220574
0.000220476
0.000220687
7.56705e-05
2.02284e-05
1.23313e-05
2.22991e-05
5.12264e-05
7.57575e-05
7.07222e-05
0.000109441
9.23285e-05
4.86266e-06
1.83511e-08
2.95057e-08
4.48393e-08
2.95033e-08
8.31309e-07
5.68235e-05
0.000208364
0.00022048
9.83199e-05
1.39149e-05
1.29897e-05
1.5012e-05
6.0277e-05
0.000110488
0.000113273
0.000113168
0.00011108
6.57109e-06
1.10603e-08
2.91589e-07
9.66419e-06
1.02967e-05
3.50669e-06
2.82046e-08
4.7768e-06
3.34652e-05
6.1805e-05
3.33695e-05
1.26999e-05
1.29367e-05
1.48034e-05
2.51175e-05
4.08086e-05
9.26311e-05
0.000113273
9.09739e-05
4.43739e-06
1.11932e-08
1.10603e-08
3.49791e-06
2.61003e-05
2.58531e-05
1.27038e-05
5.29571e-07
4.80116e-07
9.43243e-06
1.17723e-05
4.65548e-06
1.16817e-05
2.32244e-05
3.24657e-05
2.08703e-05
2.68057e-05
0.000112537
3.56596e-05
1.24297e-06
2.80173e-08
1.88759e-08
1.91587e-08
4.82249e-06
2.76024e-05
2.743e-05
1.33882e-05
1.02498e-05
2.52616e-08
2.52611e-08
2.52616e-08
2.52182e-08
1.59422e-05
3.23647e-05
1.83674e-05
1.82119e-05
0.000112353
4.40935e-05
1.17338e-06
6.878e-08
7.02167e-08
4.73928e-08
4.82889e-08
3.51077e-06
1.36681e-05
3.76599e-05
3.75563e-05
3.54802e-05
3.45615e-05
1.06656e-05
2.52108e-08
2.49332e-08
2.21477e-05
2.28034e-05
1.81824e-05
0.000104098
4.0292e-05
7.46102e-07
7.85273e-08
1.02019e-07
1.08145e-07
7.68943e-08
4.7839e-08
1.16312e-07
3.27581e-06
2.60374e-05
3.65163e-05
3.64921e-05
2.2344e-05
7.1979e-07
8.31809e-08
2.31099e-08
1.59525e-05
3.52704e-05
5.07052e-05
1.18463e-05
2.75499e-07
4.08367e-08
6.70532e-08
9.12505e-08
8.27745e-08
4.77197e-08
4.23001e-08
4.23044e-08
1.20421e-06
8.50678e-06
8.87435e-06
4.28497e-06
2.78164e-07
7.65197e-08
2.79459e-08
7.73854e-06
4.29951e-05
2.48901e-05
4.1325e-07
9.95391e-08
1.36361e-08
2.37907e-08
3.791e-08
4.54519e-08
3.9606e-08
4.40677e-08
4.79151e-08
4.84124e-08
4.89451e-08
4.94937e-08
7.7131e-08
9.72629e-08
7.20107e-08
3.07651e-08
1.67948e-08
4.32021e-05
1.93866e-05
8.94034e-08
9.63227e-08
5.24163e-09
8.34033e-09
1.33627e-08
1.96431e-08
2.50119e-08
3.13153e-08
3.81527e-08
4.8176e-08
1.08393e-07
1.1648e-07
1.16339e-07
5.96493e-08
4.51071e-08
2.09407e-08
1.72283e-08
3.30618e-05
1.08964e-05
8.93479e-08
1.34238e-07
2.31016e-09
3.34025e-09
5.03221e-09
7.612e-09
1.12061e-08
1.5338e-08
1.87311e-08
2.66592e-08
4.53769e-08
7.54752e-08
7.31715e-08
4.79487e-08
2.97579e-08
2.21629e-08
5.56832e-07
2.91417e-06
6.29486e-07
1.52027e-07
1.33671e-07
1.27028e-09
1.66312e-09
2.27084e-09
3.21548e-09
4.75604e-09
7.02037e-09
9.73647e-09
1.29482e-08
1.79858e-08
2.9638e-08
4.32226e-08
3.8133e-08
2.75896e-08
2.70486e-08
5.28818e-07
1.1668e-07
6.79114e-08
1.08191e-07
1.08875e-07
8.63577e-10
1.11381e-09
1.44539e-09
1.91191e-09
2.63349e-09
3.69338e-09
5.38815e-09
7.96625e-09
1.2245e-08
1.99021e-08
2.84494e-08
2.4946e-08
3.11024e-08
1.14619e-07
7.46651e-08
2.79586e-08
2.58845e-08
9.09578e-08
6.12713e-08
6.78206e-10
8.83334e-10
1.14587e-09
1.48434e-09
1.92183e-09
2.56078e-09
3.42907e-09
4.77242e-09
7.24302e-09
1.12954e-08
1.67513e-08
1.64789e-08
2.67892e-08
1.25349e-07
6.21564e-08
2.58889e-08
2.58837e-08
2.58917e-08
5.12222e-08
5.50082e-10
7.44335e-10
9.87105e-10
1.29577e-09
1.69504e-09
2.23626e-09
2.89843e-09
3.76124e-09
5.03468e-09
7.15985e-09
1.02181e-08
1.21092e-08
1.66572e-08
9.61008e-08
4.32988e-08
2.5967e-08
2.58844e-08
6.23694e-08
5.12705e-08
4.58733e-10
6.26137e-10
8.6164e-10
1.17725e-09
1.61013e-09
2.19199e-09
2.90878e-09
3.7274e-09
4.65935e-09
6.04162e-09
7.7301e-09
8.46254e-09
9.02787e-09
3.36925e-08
2.80922e-08
4.83319e-08
1.24949e-07
1.28359e-07
7.02636e-08
3.51603e-10
5.04358e-10
7.19078e-10
1.04125e-09
1.5419e-09
2.24214e-09
3.17754e-09
4.25896e-09
5.42025e-09
6.99148e-09
9.54821e-09
1.05378e-08
9.04902e-09
1.11616e-08
1.5972e-08
1.56429e-07
2.08627e-07
3.40996e-07
8.43975e-07
2.66853e-10
3.72947e-10
5.543e-10
8.56561e-10
1.39098e-09
2.2005e-09
3.50422e-09
5.20464e-09
7.16667e-09
9.49924e-09
1.75714e-08
4.17169e-08
3.76669e-08
1.00461e-08
1.05094e-08
9.08033e-08
3.85764e-07
3.85017e-07
2.97452e-06
1.64539e-10
2.5597e-10
3.92255e-10
6.42661e-10
1.12669e-09
2.01348e-09
3.61838e-09
6.09423e-09
9.46513e-09
1.34907e-08
2.27085e-08
7.62334e-08
2.83514e-07
1.8457e-07
8.03208e-08
4.98798e-08
2.15565e-07
4.01678e-07
2.97044e-06
1.04835e-10
1.54188e-10
2.48091e-10
4.29723e-10
8.08259e-10
1.6095e-09
3.24241e-09
6.52946e-09
1.21156e-08
1.88679e-08
3.31542e-08
9.96072e-08
4.75242e-07
5.21409e-06
5.61527e-06
2.04277e-07
1.66611e-07
3.01868e-07
2.97415e-06
5.36179e-11
8.38284e-11
1.37394e-10
2.46668e-10
4.93934e-10
1.06646e-09
2.42703e-09
5.71579e-09
1.21533e-08
2.31732e-08
4.16553e-08
1.04213e-07
4.54911e-07
5.09904e-06
7.14665e-06
5.26445e-06
1.66326e-07
2.06538e-07
8.45719e-07
2.5788e-11
4.06401e-11
6.73469e-11
1.22954e-10
2.6548e-10
6.21573e-10
1.54105e-09
3.85489e-09
9.12581e-09
2.03884e-08
4.20055e-08
8.95671e-08
2.57648e-07
1.42399e-06
7.16042e-06
7.15061e-06
3.37145e-06
1.99464e-07
7.11135e-07
1.0913e-11
1.75127e-11
2.9417e-11
5.65139e-11
1.23138e-10
3.01106e-10
8.20466e-10
2.20869e-09
5.781e-09
1.4952e-08
3.39191e-08
7.60433e-08
1.60106e-07
4.32392e-07
2.35866e-06
7.16649e-06
7.07483e-06
3.92802e-06
3.7714e-06
4.25038e-12
6.64352e-12
1.14223e-11
2.19775e-11
4.86372e-11
1.22161e-10
3.40345e-10
9.69097e-10
2.75919e-09
7.45314e-09
1.85731e-08
4.71703e-08
1.06893e-07
1.85966e-07
3.06813e-07
2.62684e-06
5.46161e-06
2.36711e-06
1.20003e-06
1.30647e-12
2.16311e-12
3.8305e-12
7.65468e-12
1.77006e-11
4.81328e-11
1.43021e-10
4.50106e-10
1.40704e-09
4.10323e-09
1.08297e-08
2.76067e-08
6.84847e-08
1.36193e-07
1.9299e-07
4.19531e-07
3.48044e-07
7.54632e-07
2.92378e-07
3.53403e-13
5.82079e-13
1.03723e-12
2.10668e-12
4.97447e-12
1.37839e-11
4.394e-11
1.52595e-10
5.41903e-10
1.84252e-09
5.68108e-09
1.57427e-08
4.398e-08
1.06236e-07
1.55069e-07
1.50494e-07
1.32261e-07
2.41992e-07
1.50366e-07
7.57572e-14
1.18115e-13
2.03185e-13
4.07163e-13
9.48835e-13
2.60663e-12
8.54158e-12
3.22208e-11
1.31662e-10
5.2873e-10
1.93582e-09
6.06456e-09
1.68628e-08
4.70367e-08
1.08913e-07
1.49163e-07
1.25418e-07
1.1402e-07
1.13324e-07
)
;

boundaryField
{
    leftWall
    {
        type            zeroGradient;
    }
    rightWall
    {
        type            zeroGradient;
    }
    lowerWall
    {
        type            zeroGradient;
    }
    atmosphere
    {
        type            inletOutlet;
        inletValue      uniform 0;
        value           nonuniform List<scalar> 
46
(
1.4781e-08
1.08901e-08
3.15517e-08
5.94962e-08
1.95709e-08
0
0
0
0
0
0
0
0
0
0
0
0
0
0
3.20333e-16
7.71363e-16
2.76204e-15
1.07738e-14
2.51731e-14
3.60147e-14
0
0
0
0
0
0
0
0
0
0
0
0
0
0
0
0
1.08913e-07
1.49163e-07
1.25418e-07
1.1402e-07
1.13324e-07
)
;
    }
    defaultFaces
    {
        type            empty;
    }
}


// ************************************************************************* //
