/*--------------------------------*- C++ -*----------------------------------*\
| =========                 |                                                 |
| \\      /  F ield         | OpenFOAM: The Open Source CFD Toolbox           |
|  \\    /   O peration     | Version:  2312                                  |
|   \\  /    A nd           | Website:  www.openfoam.com                      |
|    \\/     M anipulation  |                                                 |
\*---------------------------------------------------------------------------*/
FoamFile
{
    version     2.0;
    format      ascii;
    arch        "LSB;label=32;scalar=64";
    class       volScalarField;
    location    "4.25";
    object      p;
}
// * * * * * * * * * * * * * * * * * * * * * * * * * * * * * * * * * * * * * //

dimensions      [1 -1 -2 0 0 0 0];

internalField   nonuniform List<scalar> 
2268
(
6320.78
6275.18
6190.05
6071.89
5930.69
5777.2
5620.94
5467.48
5320.13
5181.88
5055.57
4943.24
4846.02
4764.16
4696.85
4642.37
4599.12
4565.31
4539.14
4519.16
4504.81
4494.24
4488.47
5533
5486.9
5400.75
5280.67
5137.24
4981.73
4824.11
4669.84
4521.77
4382.89
4256.12
4143.55
4046.26
3964.61
3897.68
3843.56
3800.69
3767.29
3741.43
3721.63
3707.33
3697.07
3690.78
4754.93
4707.51
4618.6
4494.49
4346.46
4186.7
4026.54
3870.76
3721.28
3581.1
3453.42
3340.39
3242.99
3161.73
3095.62
3042.19
3000.11
2967.49
2942.23
2922.79
2908.65
2898.86
2891.91
3987.05
3937.29
3843.81
3713.5
3558.3
3391.89
3228.08
3070.27
2918.6
2776.38
2647.33
2533.65
2436.09
2355.56
2291.01
2238.7
2197.7
2166.3
2142
2123.21
2109.54
2100.56
2095.63
3229.91
3176.58
3076.57
2937.55
2772.7
2597.31
2428.6
2268.55
2114.04
1969.09
1838.11
1723.53
1625.5
1548.13
1489.25
1441.76
1407.55
1381.53
1362.07
1347.69
1337.31
1330.67
1328.79
2483.39
2425.51
2317.1
2166.57
1987.55
1799.73
1626.83
1467.02
1328.25
1211.43
1116.21
1039.86
984.739
944.463
914.94
893.106
878.505
868.235
860.466
855.409
852.44
850.506
854.765
1750.88
1687.92
1568.2
1406.43
1237.55
1090
972.939
885.497
825.48
782.982
753.96
735.301
726.941
721.929
717.814
714.914
712.769
711.18
710.265
709.948
710.93
712.316
714.939
1073.18
1024.62
935.277
833.309
757.308
713.66
689.424
680.503
676.889
674.108
671.501
669.32
665.628
661.723
658.349
655.743
653.786
652.23
651.301
651.792
653.464
655.111
657.123
2576.13
2614.95
2631.47
2618.72
2588.78
2571.11
2604.16
2682.18
2783.49
2866.77
2908.66
2903.13
2858.68
2811.15
2785.55
2781.97
2792.21
2802.76
2815.01
1835.04
1853.59
1871.01
1856.36
1822.39
1805.9
1839.69
1923.55
2028.49
2112.89
2150.47
2140.39
2088.1
2038.44
2015.59
2013.72
2026.07
2037.96
2049.77
1248.73
1230.66
1241.55
1242.73
1232.41
1236.07
1265.17
1310.96
1390.25
1471.96
1493.27
1474.96
1442.38
1408.78
1388.59
1385.22
1393.05
1408.74
1428.21
955.835
938.591
946.495
965.701
984.384
1005.5
1026.62
1039.43
1053.94
1081.32
1088.87
1088.25
1088.54
1083.41
1080.84
1079.08
1080.5
1086.75
1094.62
863.1
853.271
864.998
883.901
903.617
923.299
943.556
957.136
943.729
930.768
939.423
960.601
970.858
978.297
988.877
991.046
990.417
985.412
979.234
800.38
784.959
800.068
818.057
835.559
848.114
862.544
875.838
879.724
880.627
890.817
906.927
920.06
928.265
934.661
935.155
933.109
928.568
926.768
737.424
723.443
740.902
759.292
776.057
784.837
795.62
800.351
811.016
823.346
837.28
851.457
864.76
873.955
877.63
875.85
873.478
869.715
868.965
683.282
668.857
681.975
701.123
717.573
726.611
739.313
736.046
745.407
764.275
781.242
794.447
806.309
816.535
818.252
813.741
814.134
809.282
808.532
613.688
600.425
583.853
579.175
580.652
582.403
583.877
583.94
581.818
579.375
576.637
573.904
570.566
567.204
564.27
562.074
559.997
558.172
557.138
557.828
559.954
562.576
564.097
426.531
429.729
436.894
444.999
451.513
455.695
457.789
457.425
455.147
452.065
448.543
444.991
441.589
438.465
435.7
433.895
431.843
429.595
428.648
430.188
433.017
436.655
440.961
314.397
316.397
321.659
326.804
329.684
331.288
331.481
330.361
328.222
325.429
322.709
320.057
318.126
317.022
316.449
317.172
319.37
322.021
324.196
327.676
332.092
337.023
343.166
204.91
205.434
208.654
212.138
214.905
216.771
217.448
217.637
218.219
219.615
221.784
223.979
225.692
227.666
230.175
233.507
238.041
243.575
248.999
254.663
260.6
266.82
273.499
116.27
117.768
121.382
125.575
129.288
132.597
135.82
139.027
141.901
145.105
149.744
154.984
158.633
162.062
165.568
169.155
172.846
177.456
183.418
189.408
195.84
202.58
209.615
52.0266
54.8181
59.0778
63.196
66.922
70.3533
74.1575
78.066
81.7515
85.023
87.9861
91.3759
94.7356
97.2778
100.537
103.976
106.622
110.872
117.213
124.138
131.368
138.802
146.05
10.7662
12.3689
14.9013
17.394
19.4653
21.2828
23.1418
24.8835
26.6234
28.3608
29.7095
31.0942
32.6566
34.3437
36.1249
38.3561
40.4964
44.2516
50.0302
57.3178
65.208
73.84
82.1536
-0.43971
-0.665486
-0.566031
-0.0168664
0.388888
0.475567
0.297108
0.125648
0.439887
0.807091
1.13438
1.50541
1.93249
2.32461
2.77653
3.44763
4.32754
5.79119
7.98299
10.9264
14.8682
20.0818
26.1334
-1.26017
-1.39798
-1.4248
-1.40734
-1.39583
-1.42027
-1.42427
-1.4246
-1.43728
-1.42412
-1.39844
-1.37305
-1.35832
-1.3428
-1.3329
-1.30633
-1.22787
-1.10833
-1.00507
-0.920803
-0.709318
-0.227946
0.816328
-1.57225
-1.60948
-1.62992
-1.62466
-1.60725
-1.58995
-1.57803
-1.57036
-1.56548
-1.55391
-1.53438
-1.51808
-1.50322
-1.49467
-1.48593
-1.47789
-1.46589
-1.45299
-1.43526
-1.40969
-1.44129
-1.4703
-1.48079
-1.69871
-1.71729
-1.72641
-1.72925
-1.72243
-1.71084
-1.69698
-1.68861
-1.68306
-1.67671
-1.66594
-1.65382
-1.64295
-1.63459
-1.62684
-1.62214
-1.61888
-1.61294
-1.61258
-1.62002
-1.62809
-1.64832
-1.68492
-1.8225
-1.83271
-1.84012
-1.84246
-1.83964
-1.83368
-1.82598
-1.81976
-1.81401
-1.80725
-1.79864
-1.78951
-1.78177
-1.77598
-1.77139
-1.76778
-1.76528
-1.76432
-1.76686
-1.77614
-1.78523
-1.80647
-1.83545
-1.95115
-1.95625
-1.96108
-1.96305
-1.96203
-1.95877
-1.95412
-1.94976
-1.94494
-1.93952
-1.93298
-1.92661
-1.92155
-1.91722
-1.91329
-1.91031
-1.90885
-1.90966
-1.91475
-1.92523
-1.93832
-1.95491
-1.97228
-2.08064
-2.08318
-2.0858
-2.087
-2.08654
-2.08461
-2.08201
-2.0792
-2.07579
-2.07199
-2.06754
-2.06343
-2.05997
-2.05656
-2.05334
-2.05179
-2.05162
-2.05431
-2.0618
-2.07366
-2.08486
-2.0942
-2.10232
-2.20985
-2.21095
-2.21223
-2.21282
-2.2124
-2.21107
-2.20922
-2.20716
-2.20493
-2.20246
-2.1998
-2.19736
-2.19519
-2.19319
-2.1915
-2.19103
-2.19249
-2.19676
-2.20404
-2.21468
-2.2238
-2.23134
-2.23687
-2.33808
-2.33875
-2.33934
-2.33955
-2.33915
-2.33818
-2.33683
-2.33531
-2.33367
-2.33191
-2.33015
-2.32872
-2.32765
-2.32697
-2.32673
-2.32745
-2.32996
-2.33453
-2.34059
-2.34743
-2.35541
-2.36261
-2.36839
-2.46635
-2.46664
-2.46686
-2.46688
-2.46652
-2.46581
-2.46486
-2.46379
-2.46264
-2.46147
-2.46038
-2.45956
-2.4591
-2.45909
-2.45968
-2.4612
-2.46409
-2.46848
-2.47385
-2.47916
-2.48495
-2.49127
-2.49814
-2.59443
-2.59456
-2.59462
-2.59456
-2.59428
-2.59379
-2.59316
-2.59246
-2.59173
-2.59102
-2.59045
-2.59012
-2.59014
-2.59061
-2.59166
-2.59351
-2.59635
-2.60023
-2.60501
-2.60999
-2.61473
-2.61973
-2.62681
-2.72245
-2.72252
-2.72253
-2.72247
-2.72228
-2.72198
-2.72161
-2.72121
-2.72082
-2.72049
-2.72031
-2.72036
-2.72074
-2.72154
-2.72286
-2.72483
-2.72754
-2.731
-2.73509
-2.73951
-2.74397
-2.74857
-2.75468
-2.85045
-2.85052
-2.85054
-2.85051
-2.85043
-2.8503
-2.85014
-2.84998
-2.84986
-2.84984
-2.84996
-2.8503
-2.85094
-2.85196
-2.85343
-2.85542
-2.85798
-2.86111
-2.8647
-2.86861
-2.87276
-2.87719
-2.88228
-2.97847
-2.97854
-2.9786
-2.97865
-2.97867
-2.97868
-2.97869
-2.97873
-2.97883
-2.97904
-2.97939
-2.97995
-2.98078
-2.98193
-2.98348
-2.98545
-2.98788
-2.99075
-2.99401
-2.99758
-3.00141
-3.00554
-3.01011
-3.10652
-3.10662
-3.10673
-3.10684
-3.10696
-3.10709
-3.10724
-3.10744
-3.10771
-3.10809
-3.10861
-3.10933
-3.11028
-3.11153
-3.1131
-3.11504
-3.11735
-3.12003
-3.12304
-3.12635
-3.12993
-3.13381
-3.13808
-3.23461
-3.23474
-3.23489
-3.23508
-3.23528
-3.23551
-3.23578
-3.2361
-3.23649
-3.237
-3.23764
-3.23846
-3.2395
-3.24079
-3.24237
-3.24425
-3.24646
-3.24897
-3.25179
-3.25488
-3.25824
-3.26189
-3.2659
-3.36273
-3.36289
-3.36309
-3.36334
-3.36362
-3.36393
-3.36428
-3.36469
-3.36517
-3.36576
-3.36649
-3.36737
-3.36845
-3.36976
-3.37132
-3.37315
-3.37525
-3.37763
-3.38027
-3.38318
-3.38633
-3.38975
-3.39347
-3.49089
-3.49108
-3.49133
-3.49163
-3.49197
-3.49234
-3.49275
-3.49321
-3.49376
-3.4944
-3.49517
-3.49609
-3.49719
-3.49849
-3.50001
-3.50177
-3.50378
-3.50602
-3.50851
-3.51124
-3.5142
-3.5174
-3.52085
-3.61909
-3.61932
-3.6196
-3.61995
-3.62033
-3.62074
-3.62118
-3.62168
-3.62225
-3.62292
-3.6237
-3.62463
-3.62573
-3.627
-3.62847
-3.63016
-3.63206
-3.63418
-3.63652
-3.63907
-3.64184
-3.64483
-3.64804
-3.74735
-3.7476
-3.74791
-3.74829
-3.74869
-3.74912
-3.74957
-3.75008
-3.75066
-3.75132
-3.75211
-3.75302
-3.75409
-3.75532
-3.75673
-3.75833
-3.76012
-3.76212
-3.76431
-3.7667
-3.76928
-3.77206
-3.77504
-3.87566
-3.87593
-3.87626
-3.87666
-3.87707
-3.87749
-3.87793
-3.87842
-3.87898
-3.87963
-3.88039
-3.88127
-3.88229
-3.88346
-3.8848
-3.88631
-3.888
-3.88986
-3.89191
-3.89412
-3.89653
-3.89911
-3.90186
-4.00403
-4.00432
-4.00466
-4.00506
-4.00545
-4.00584
-4.00626
-4.00672
-4.00723
-4.00784
-4.00855
-4.00939
-4.01035
-4.01145
-4.01271
-4.01412
-4.01569
-4.01743
-4.01933
-4.02138
-4.0236
-4.02598
-4.02852
-4.13247
-4.13277
-4.13312
-4.1335
-4.13386
-4.13421
-4.13456
-4.13496
-4.13542
-4.13596
-4.13661
-4.13738
-4.13828
-4.1393
-4.14047
-4.14178
-4.14323
-4.14483
-4.14659
-4.14848
-4.15052
-4.15271
-4.15503
-4.26098
-4.26128
-4.26163
-4.262
-4.26233
-4.26261
-4.26287
-4.26317
-4.26353
-4.26399
-4.26457
-4.26526
-4.26608
-4.26702
-4.26809
-4.26929
-4.27063
-4.27209
-4.2737
-4.27544
-4.2773
-4.27929
-4.28141
-4.38951
-4.38982
-4.39017
-4.39054
-4.39082
-4.39102
-4.39115
-4.39131
-4.39156
-4.39192
-4.39241
-4.39303
-4.39376
-4.39461
-4.39558
-4.39667
-4.39789
-4.39922
-4.40068
-4.40226
-4.40395
-4.40576
-4.40768
-4.51798
-4.5183
-4.51867
-4.51903
-4.51927
-4.51934
-4.51932
-4.51934
-4.51948
-4.51974
-4.52014
-4.52067
-4.52132
-4.52208
-4.52296
-4.52394
-4.52503
-4.52623
-4.52754
-4.52896
-4.53049
-4.53211
-4.53384
-4.64632
-4.64664
-4.64701
-4.64737
-4.64755
-4.6475
-4.64733
-4.64724
-4.64726
-4.64744
-4.64776
-4.64821
-4.64877
-4.64945
-4.65022
-4.65109
-4.65206
-4.65313
-4.6543
-4.65556
-4.65692
-4.65837
-4.6599
-4.77443
-4.77474
-4.77512
-4.77546
-4.77557
-4.77542
-4.77516
-4.77496
-4.77491
-4.77501
-4.77525
-4.77563
-4.77611
-4.7767
-4.77738
-4.77814
-4.779
-4.77993
-4.78096
-4.78207
-4.78327
-4.78454
-4.78589
-4.90225
-4.90253
-4.90291
-4.90322
-4.90328
-4.90309
-4.90277
-4.90251
-4.9024
-4.90245
-4.90264
-4.90295
-4.90336
-4.90386
-4.90444
-4.90511
-4.90584
-4.90665
-4.90754
-4.9085
-4.90953
-4.91063
-4.9118
-5.02981
-5.03003
-5.03036
-5.03063
-5.03066
-5.03048
-5.03015
-5.02989
-5.02976
-5.02978
-5.02993
-5.03018
-5.03052
-5.03094
-5.03143
-5.03199
-5.03261
-5.03329
-5.03404
-5.03485
-5.03573
-5.03666
-5.03764
-5.15717
-5.15732
-5.15756
-5.15775
-5.15776
-5.15759
-5.15733
-5.15711
-5.157
-5.15702
-5.15714
-5.15734
-5.15762
-5.15795
-5.15835
-5.1588
-5.15931
-5.15987
-5.16048
-5.16115
-5.16186
-5.16263
-5.16344
-5.28442
-5.28448
-5.28461
-5.28469
-5.28468
-5.28455
-5.28437
-5.28423
-5.28417
-5.28419
-5.28429
-5.28445
-5.28466
-5.28492
-5.28522
-5.28557
-5.28596
-5.2864
-5.28687
-5.28739
-5.28795
-5.28855
-5.28918
-5.41163
-5.41163
-5.41162
-5.41158
-5.41153
-5.41145
-5.41136
-5.41131
-5.4113
-5.41133
-5.41141
-5.41152
-5.41167
-5.41185
-5.41206
-5.4123
-5.41257
-5.41288
-5.41323
-5.4136
-5.414
-5.41443
-5.41489
-5.5389
-5.53884
-5.53869
-5.53853
-5.53843
-5.53839
-5.53837
-5.53838
-5.53841
-5.53845
-5.5385
-5.53857
-5.53865
-5.53875
-5.53887
-5.539
-5.53916
-5.53934
-5.53955
-5.53978
-5.54002
-5.54029
-5.54057
-5.66625
-5.66617
-5.66591
-5.66565
-5.66548
-5.66542
-5.66545
-5.66551
-5.66556
-5.6656
-5.66562
-5.66564
-5.66566
-5.66567
-5.66569
-5.66572
-5.66575
-5.6658
-5.66585
-5.66593
-5.66603
-5.66612
-5.66623
565.404
569.542
575.54
582.301
444.748
447.273
450.256
453.991
348.342
351.32
354.007
356.771
278.788
282.215
285.639
288.755
214.677
217.812
220.848
223.93
150.939
154.016
157.127
160.119
87.6209
90.8943
94.0844
97.1112
30.7282
33.3817
36.0276
38.6497
2.21695
3.11218
4.15987
5.19888
-1.44909
-1.42134
-1.40728
-1.39669
-1.72503
-1.73702
-1.73215
-1.72498
-1.85777
-1.86299
-1.86405
-1.86421
-1.97619
-1.97927
-1.98281
-1.98485
-2.10598
-2.10751
-2.10824
-2.1085
-2.23862
-2.23839
-2.23709
-2.2365
-2.37128
-2.37243
-2.37305
-2.37396
-2.5044
-2.50873
-2.51299
-2.51622
-2.63436
-2.63995
-2.64576
-2.65057
-2.76124
-2.76604
-2.77103
-2.77556
-2.88749
-2.89124
-2.89518
-2.89912
-3.01434
-3.01727
-3.02041
-3.02374
-3.14166
-3.14407
-3.14667
-3.14944
-3.26907
-3.2712
-3.27346
-3.27584
-3.3964
-3.39835
-3.40039
-3.4025
-3.52357
-3.52538
-3.52725
-3.52918
-3.65056
-3.65224
-3.65397
-3.65573
-3.77737
-3.77892
-3.7805
-3.78214
-3.90401
-3.90543
-3.90689
-3.90839
-4.0305
-4.0318
-4.03313
-4.0345
-4.15684
-4.15803
-4.15926
-4.16051
-4.28306
-4.28415
-4.28526
-4.2864
-4.40917
-4.41016
-4.41116
-4.41219
-4.53518
-4.53606
-4.53696
-4.53788
-4.6611
-4.66188
-4.66268
-4.66349
-4.78693
-4.78762
-4.78832
-4.78904
-4.9127
-4.91329
-4.9139
-4.91452
-5.03841
-5.03891
-5.03942
-5.03994
-5.16406
-5.16447
-5.16489
-5.16532
-5.28967
-5.28999
-5.29032
-5.29065
-5.41524
-5.41548
-5.41572
-5.41596
-5.54078
-5.54092
-5.54106
-5.54122
-5.66631
-5.66637
-5.66643
-5.66648
591.154
582.183
592.896
611.248
627.08
639.349
646.18
645.952
654.842
673.343
686.306
701.854
715.608
726.208
724.462
722.814
722.453
715.038
717.81
461.258
467.43
483.691
499.074
505.501
514.704
520.134
524.056
529.437
542.787
554.354
572.229
590.712
600.798
601.424
601.027
597.96
596.382
603.501
362.59
372.322
385.101
395.664
402.587
407.273
409.351
414.595
417.549
426.504
441.188
454.935
470.273
480.273
485.8
488.371
490.737
496.318
502.841
293.839
301.083
305.946
310.542
316.875
322.124
322.213
324.848
328.883
337.084
349.732
361.282
372.513
383.068
391.467
399.956
409.127
416.978
422.27
229.191
236.248
239.48
240.633
243.919
248.655
251.221
253.245
257.537
263.433
272.702
284.654
297.497
309.916
321.515
331.927
341.336
349.579
354.918
165.065
171.955
175.874
176.604
178.671
181.856
185.616
189.047
193.416
199.079
208.448
220.473
233.67
246.889
259.579
270.27
279.284
287.468
292.263
101.809
107.47
110.941
112.428
113.443
115.28
119.556
125.195
130.443
137.593
147.525
159.725
173.09
186.679
199.427
210.257
219.219
227.044
232.285
42.7598
46.2698
47.2195
47.4963
46.7708
46.6
49.2694
55.3431
64.2203
75.207
87.044
98.8213
112.428
127.04
140.531
151.825
160.722
167.968
173.049
6.69804
8.19057
8.14954
7.50316
6.39802
5.6237
6.38031
9.09508
14.326
22.3305
30.5498
39.5746
51.3901
67.2687
83.1987
95.7504
104.91
111.092
115.251
-1.36496
-1.23195
-1.05322
-1.13065
-1.25169
-1.40327
-1.4619
-1.37461
-0.932244
-0.0379776
1.24594
4.56765
9.92475
19.9731
32.4441
42.9918
51.4875
57.6716
62.1209
-1.72115
-1.73504
-1.73212
-1.71702
-1.72448
-1.72609
-1.73669
-1.76181
-1.74502
-1.70405
-1.7273
-1.80136
-1.3201
0.438167
3.51505
8.83064
15.1627
19.9406
22.99
-1.86279
-1.86464
-1.8608
-1.85725
-1.86047
-1.86221
-1.86654
-1.87925
-1.89157
-1.89753
-1.9271
-1.97653
-1.99983
-2.07559
-2.06688
-0.770817
1.38642
1.88828
2.51335
-1.98712
-1.98909
-1.99144
-1.99309
-1.99368
-1.99582
-2.00116
-2.01249
-2.02628
-2.04274
-2.06861
-2.10542
-2.15872
-2.20831
-2.27511
-2.34401
-2.33802
-1.8919
-0.749591
-2.10933
-2.11464
-2.12374
-2.12832
-2.13089
-2.13402
-2.13878
-2.14621
-2.16173
-2.18257
-2.20863
-2.24145
-2.27994
-2.31796
-2.37138
-2.4035
-2.38535
-2.39031
-2.41492
-2.23829
-2.24898
-2.26179
-2.26707
-2.27052
-2.27347
-2.27574
-2.2856
-2.30394
-2.32895
-2.35518
-2.37865
-2.4009
-2.42528
-2.45509
-2.47912
-2.48475
-2.49564
-2.51226
-2.37791
-2.38892
-2.39819
-2.40251
-2.4076
-2.41531
-2.42433
-2.43792
-2.45676
-2.47735
-2.49588
-2.51097
-2.52313
-2.54205
-2.56158
-2.57863
-2.58936
-2.59663
-2.60421
-2.52018
-2.52613
-2.52969
-2.53437
-2.54239
-2.55602
-2.57449
-2.5894
-2.60148
-2.61332
-2.62341
-2.63398
-2.64515
-2.66182
-2.67681
-2.69072
-2.7004
-2.70417
-2.70524
-2.65527
-2.65918
-2.66102
-2.66566
-2.67441
-2.68944
-2.71054
-2.72775
-2.7361
-2.74273
-2.75035
-2.75927
-2.76806
-2.77946
-2.7914
-2.80252
-2.80909
-2.81121
-2.80899
-2.78165
-2.78679
-2.7908
-2.79664
-2.80476
-2.81772
-2.83568
-2.8525
-2.86331
-2.87149
-2.87926
-2.88657
-2.89245
-2.89749
-2.90342
-2.91078
-2.91451
-2.91564
-2.91385
-2.90511
-2.91154
-2.91772
-2.92529
-2.93383
-2.94455
-2.95895
-2.97426
-2.98701
-2.99676
-3.00537
-3.0119
-3.01595
-3.01728
-3.01779
-3.0206
-3.02198
-3.02218
-3.02241
-3.02917
-3.036
-3.043
-3.05096
-3.0601
-3.07021
-3.08213
-3.09501
-3.10697
-3.11657
-3.12457
-3.13037
-3.13405
-3.13527
-3.13411
-3.13378
-3.13397
-3.13451
-3.13559
-3.15415
-3.16078
-3.16778
-3.17541
-3.18397
-3.19354
-3.20429
-3.21529
-3.22533
-3.23393
-3.24078
-3.24606
-3.24944
-3.2512
-3.25098
-3.24973
-3.25003
-3.25084
-3.25191
-3.27997
-3.2861
-3.2926
-3.29956
-3.30724
-3.31568
-3.32489
-3.33446
-3.34343
-3.35106
-3.35709
-3.36163
-3.365
-3.36718
-3.36835
-3.36772
-3.36843
-3.3691
-3.36969
-3.4062
-3.41177
-3.41766
-3.42392
-3.43071
-3.43804
-3.44586
-3.4539
-3.46168
-3.46859
-3.47429
-3.47874
-3.48213
-3.4845
-3.48631
-3.48705
-3.48787
-3.48833
-3.48802
-3.53253
-3.53758
-3.54291
-3.54856
-3.55458
-3.561
-3.56773
-3.57463
-3.5814
-3.58764
-3.59301
-3.59742
-3.6008
-3.60327
-3.60535
-3.60676
-3.60709
-3.60726
-3.60658
-3.6588
-3.6634
-3.66825
-3.67336
-3.67877
-3.68446
-3.69038
-3.69643
-3.70241
-3.70804
-3.71296
-3.71719
-3.72043
-3.72276
-3.72437
-3.72553
-3.72574
-3.72574
-3.72539
-3.78495
-3.78917
-3.79359
-3.79825
-3.80314
-3.80825
-3.81352
-3.81887
-3.82418
-3.82926
-3.83393
-3.83774
-3.84074
-3.84286
-3.84412
-3.84467
-3.84483
-3.84488
-3.84462
-3.91094
-3.91487
-3.91889
-3.92313
-3.92755
-3.93215
-3.93686
-3.94162
-3.94633
-3.95086
-3.95506
-3.95863
-3.96143
-3.96334
-3.96436
-3.96461
-3.9646
-3.96463
-3.96442
-4.03687
-4.0404
-4.0441
-4.04794
-4.05193
-4.05606
-4.06027
-4.06451
-4.0687
-4.07273
-4.07648
-4.07975
-4.08234
-4.08407
-4.08493
-4.08507
-4.08499
-4.08492
-4.08476
-4.16267
-4.16586
-4.16921
-4.17268
-4.17627
-4.17998
-4.18373
-4.1875
-4.19122
-4.19479
-4.19812
-4.20106
-4.20341
-4.20498
-4.20574
-4.20586
-4.20579
-4.20567
-4.2055
-4.28835
-4.29123
-4.29424
-4.29737
-4.30058
-4.30391
-4.30724
-4.31056
-4.31386
-4.317
-4.31993
-4.32255
-4.32463
-4.32604
-4.32673
-4.32691
-4.32688
-4.32677
-4.32657
-4.41394
-4.41653
-4.41922
-4.42201
-4.42488
-4.42782
-4.43076
-4.43367
-4.43663
-4.43935
-4.44189
-4.44423
-4.44601
-4.44726
-4.44789
-4.44815
-4.44819
-4.44813
-4.44793
-4.53945
-4.54175
-4.54415
-4.54662
-4.54916
-4.55174
-4.55434
-4.55691
-4.55944
-4.56182
-4.56402
-4.56597
-4.56754
-4.56868
-4.56916
-4.56956
-4.56971
-4.56972
-4.56955
-4.66489
-4.66692
-4.66903
-4.6712
-4.67342
-4.67567
-4.67793
-4.68017
-4.68234
-4.68439
-4.68626
-4.68791
-4.68924
-4.69017
-4.69071
-4.69117
-4.69139
-4.69148
-4.69135
-4.79025
-4.79203
-4.79386
-4.79574
-4.79766
-4.79961
-4.80155
-4.80347
-4.80532
-4.80706
-4.80864
-4.81003
-4.81116
-4.81197
-4.81252
-4.81298
-4.81326
-4.81336
-4.81333
-4.91557
-4.91709
-4.91866
-4.92027
-4.9219
-4.92355
-4.92519
-4.92681
-4.92836
-4.92983
-4.93116
-4.93232
-4.93332
-4.93412
-4.93463
-4.93503
-4.93529
-4.93536
-4.93544
-5.04083
-5.04211
-5.04342
-5.04477
-5.04613
-5.04749
-5.04885
-5.05019
-5.05147
-5.05268
-5.05378
-5.05476
-5.05561
-5.05636
-5.0569
-5.05724
-5.05744
-5.05749
-5.05762
-5.16604
-5.16709
-5.16816
-5.16925
-5.17035
-5.17145
-5.17254
-5.17361
-5.17463
-5.1756
-5.17649
-5.17728
-5.17799
-5.17862
-5.17917
-5.17952
-5.17969
-5.17976
-5.17986
-5.29122
-5.29204
-5.29287
-5.29372
-5.29457
-5.29541
-5.29625
-5.29706
-5.29784
-5.29858
-5.29925
-5.29986
-5.30042
-5.30092
-5.30138
-5.30176
-5.30196
-5.30202
-5.30206
-5.41637
-5.41696
-5.41756
-5.41817
-5.41878
-5.41939
-5.41998
-5.42055
-5.4211
-5.42161
-5.42207
-5.42249
-5.42287
-5.42324
-5.4236
-5.42391
-5.42411
-5.42413
-5.42414
-5.54148
-5.54185
-5.54223
-5.54261
-5.54299
-5.54336
-5.54372
-5.54406
-5.54438
-5.54467
-5.54493
-5.54515
-5.54535
-5.54555
-5.54585
-5.54608
-5.54621
-5.54624
-5.54624
-5.66657
-5.66671
-5.66687
-5.66702
-5.66717
-5.66732
-5.66745
-5.66756
-5.66766
-5.66773
-5.66778
-5.66781
-5.66784
-5.66793
-5.66818
-5.66834
-5.6684
-5.66843
-5.66846
)
;

boundaryField
{
    leftWall
    {
        type            calculated;
        value           nonuniform List<scalar> 
50
(
6320.78
5533
4754.93
3987.05
3229.91
2483.39
1750.88
1073.18
613.688
426.531
314.397
204.91
116.27
52.0266
10.7662
-0.43971
-1.26017
-1.57225
-1.69871
-1.8225
-1.95115
-2.08064
-2.20985
-2.33808
-2.46635
-2.59443
-2.72245
-2.85045
-2.97847
-3.10652
-3.23461
-3.36273
-3.49089
-3.61909
-3.74735
-3.87566
-4.00403
-4.13247
-4.26098
-4.38951
-4.51798
-4.64632
-4.77443
-4.90225
-5.02981
-5.15717
-5.28442
-5.41163
-5.5389
-5.66625
)
;
    }
    rightWall
    {
        type            calculated;
        value           nonuniform List<scalar> 
50
(
2815.01
2049.77
1428.21
1094.62
979.234
926.768
868.965
808.532
717.81
603.501
502.841
422.27
354.918
292.263
232.285
173.049
115.251
62.1209
22.99
2.51335
-0.749591
-2.41492
-2.51226
-2.60421
-2.70524
-2.80899
-2.91385
-3.02241
-3.13559
-3.25191
-3.36969
-3.48802
-3.60658
-3.72539
-3.84462
-3.96442
-4.08476
-4.2055
-4.32657
-4.44793
-4.56955
-4.69135
-4.81333
-4.93544
-5.05762
-5.17986
-5.30206
-5.42414
-5.54624
-5.66846
)
;
    }
    lowerWall
    {
        type            calculated;
        value           nonuniform List<scalar> 
62
(
6718.93
6673.33
6588.2
6470.04
6328.84
6175.35
6019.09
5865.63
5718.28
5580.03
5453.72
5341.39
5244.17
5162.31
5095
5040.52
4997.27
4963.46
4937.29
4917.31
4902.94
4892.38
4886.61
4488.47
3690.78
2891.91
2095.63
1328.79
854.765
714.939
657.123
626.256
631.274
637.666
644.426
2576.13
1835.04
1248.73
955.835
863.1
800.38
737.424
683.282
2958.28
2997.08
3013.48
3000.62
2970.6
2952.09
2985.49
3063.67
3164.99
3248.18
3290.14
3284.85
3241.47
3195.83
3170.21
3166.65
3176.1
3186.22
3198.47
)
;
    }
    atmosphere
    {
        type            calculated;
        value           nonuniform List<scalar> 
46
(
-5.72984
-5.7299
-5.72957
-5.72933
-5.72913
-5.72904
-5.7291
-5.72916
-5.72921
-5.72924
-5.72924
-5.72923
-5.72921
-5.72918
-5.72914
-5.72911
-5.72908
-5.72905
-5.72904
-5.72904
-5.72904
-5.72904
-5.72904
-5.72905
-5.72905
-5.72904
-5.72904
-5.72906
-5.72911
-5.72916
-5.72921
-5.72925
-5.72929
-5.72931
-5.72932
-5.72932
-5.7293
-5.72927
-5.7292
-5.72912
-5.72905
-5.7294
-5.72954
-5.72949
-5.72946
-5.72944
)
;
    }
    defaultFaces
    {
        type            empty;
    }
}


// ************************************************************************* //
