/*--------------------------------*- C++ -*----------------------------------*\
| =========                 |                                                 |
| \\      /  F ield         | OpenFOAM: The Open Source CFD Toolbox           |
|  \\    /   O peration     | Version:  2312                                  |
|   \\  /    A nd           | Website:  www.openfoam.com                      |
|    \\/     M anipulation  |                                                 |
\*---------------------------------------------------------------------------*/
FoamFile
{
    version     2.0;
    format      ascii;
    arch        "LSB;label=32;scalar=64";
    class       surfaceScalarField;
    location    "4.25";
    object      phi;
}
// * * * * * * * * * * * * * * * * * * * * * * * * * * * * * * * * * * * * * //

dimensions      [0 3 -1 0 0 0 0];

oriented        oriented;

internalField   nonuniform List<scalar> 
4432
(
1.77292e-06
-1.77294e-06
2.67098e-06
-8.98077e-07
3.34581e-06
-6.7484e-07
3.7604e-06
-4.14593e-07
3.92883e-06
-1.6844e-07
3.84009e-06
8.87259e-08
3.5609e-06
2.79183e-07
3.18358e-06
3.77312e-07
2.78762e-06
3.9595e-07
2.41592e-06
3.71699e-07
2.08659e-06
3.29327e-07
1.81395e-06
2.72644e-07
1.58203e-06
2.31922e-07
1.37877e-06
2.03268e-07
1.19901e-06
1.79766e-07
1.03018e-06
1.68844e-07
8.32522e-07
1.97666e-07
6.03973e-07
2.28562e-07
3.82824e-07
2.21162e-07
1.67564e-07
2.15274e-07
1.29891e-08
1.5459e-07
-2.14604e-07
2.2761e-07
-2.14595e-07
1.04682e-06
-2.81981e-06
1.96483e-06
-1.81613e-06
2.69908e-06
-1.40912e-06
3.21866e-06
-9.34212e-07
3.45575e-06
-4.05572e-07
3.38663e-06
1.57814e-07
3.1346e-06
5.31171e-07
2.82347e-06
6.88413e-07
2.46824e-06
7.51147e-07
2.1118e-06
7.28108e-07
1.80496e-06
6.36144e-07
1.55704e-06
5.20554e-07
1.35123e-06
4.37717e-07
1.17319e-06
3.81307e-07
1.01922e-06
3.3374e-07
8.72287e-07
3.15784e-07
7.02827e-07
3.67135e-07
5.15606e-07
4.15795e-07
3.29424e-07
4.07359e-07
1.73218e-07
3.71497e-07
7.98769e-08
2.47949e-07
-6.48021e-08
3.72309e-07
-2.79372e-07
7.02705e-07
-3.52252e-06
1.55596e-06
-2.66938e-06
2.30521e-06
-2.15838e-06
2.86455e-06
-1.49355e-06
3.13716e-06
-6.78189e-07
3.08801e-06
2.06968e-07
2.83487e-06
7.84305e-07
2.50092e-06
1.02236e-06
2.1406e-06
1.11146e-06
1.8028e-06
1.06591e-06
1.50421e-06
9.3473e-07
1.27555e-06
7.49208e-07
1.09293e-06
6.20344e-07
9.44185e-07
5.30057e-07
8.34531e-07
4.43403e-07
7.53414e-07
3.96913e-07
6.35208e-07
4.85354e-07
4.88905e-07
5.62114e-07
3.52592e-07
5.43689e-07
2.49972e-07
4.74134e-07
2.30679e-07
2.67259e-07
1.72541e-07
4.30466e-07
-1.06821e-07
5.52076e-07
-4.07464e-06
1.36451e-06
-3.48186e-06
2.10857e-06
-2.90248e-06
2.72703e-06
-2.11205e-06
3.01692e-06
-9.68106e-07
2.91113e-06
3.12731e-07
2.6038e-06
1.09162e-06
2.25776e-06
1.36838e-06
1.89361e-06
1.47559e-06
1.51502e-06
1.44448e-06
1.19115e-06
1.25858e-06
9.55334e-07
9.85005e-07
7.76373e-07
7.99292e-07
6.56715e-07
6.49705e-07
6.12583e-07
4.87529e-07
6.14576e-07
3.94918e-07
6.05428e-07
4.94503e-07
5.6428e-07
6.03266e-07
5.07608e-07
6.00369e-07
4.46706e-07
5.35046e-07
4.64678e-07
2.49298e-07
4.67316e-07
4.27839e-07
3.60509e-07
6.39491e-07
-4.71414e-06
1.49896e-06
-4.34134e-06
2.31443e-06
-3.71796e-06
2.98943e-06
-2.78706e-06
3.30916e-06
-1.28783e-06
3.11432e-06
5.07582e-07
2.71465e-06
1.4913e-06
2.31394e-06
1.76909e-06
1.89407e-06
1.89547e-06
1.43988e-06
1.89867e-06
1.03006e-06
1.6684e-06
7.30538e-07
1.28454e-06
4.4634e-07
1.0835e-06
2.8456e-07
8.115e-07
2.90283e-07
4.81821e-07
3.3176e-07
3.53458e-07
4.73507e-07
3.52775e-07
6.40112e-07
4.36682e-07
7.538e-07
4.86702e-07
7.39343e-07
5.49525e-07
5.79778e-07
4.08886e-07
4.89936e-07
5.17704e-07
8.50453e-07
8.7981e-07
-5.59397e-06
1.95036e-06
-5.41191e-06
2.94096e-06
-4.70859e-06
3.74845e-06
-3.59457e-06
4.21934e-06
-1.75873e-06
3.89254e-06
8.34367e-07
3.11151e-06
2.27232e-06
2.17894e-06
2.70165e-06
1.45133e-06
2.62307e-06
9.78479e-07
2.37149e-06
7.13769e-07
1.93307e-06
3.64343e-07
1.63392e-06
1.80067e-07
1.26773e-06
2.34883e-07
7.56654e-07
5.1719e-07
1.99499e-07
8.29934e-07
4.07148e-08
1.18837e-06
-5.64774e-09
1.62492e-06
1.58601e-10
1.94034e-06
1.71312e-07
1.85623e-06
6.33679e-07
9.62669e-07
1.30249e-06
9.0395e-08
1.39e-06
9.40869e-07
1.23053e-06
-6.82449e-06
2.52564e-06
-6.70702e-06
3.41483e-06
-5.59777e-06
3.55507e-06
-3.73482e-06
3.61117e-06
-1.81485e-06
4.10615e-06
3.39353e-07
4.48949e-06
1.88892e-06
5.08381e-06
2.10722e-06
6.01208e-06
1.69468e-06
6.95862e-06
1.42481e-06
7.58087e-06
1.3107e-06
6.30912e-06
2.90555e-06
5.49821e-06
2.07856e-06
4.94429e-06
1.31051e-06
4.31761e-06
8.26144e-07
4.35837e-06
-6.19274e-11
4.52351e-06
-1.70782e-07
4.72088e-06
-1.97184e-07
4.6938e-06
1.98446e-07
4.41723e-06
9.10306e-07
3.1746e-06
2.54516e-06
1.25512e-06
3.3095e-06
2.19608e-06
1.42698e-06
-8.25145e-06
3.16157e-06
-8.44158e-06
5.18841e-06
-7.62458e-06
7.2692e-06
-5.81559e-06
9.25207e-06
-3.79771e-06
1.03057e-05
-7.14315e-07
8.09774e-06
4.09685e-06
6.39709e-06
3.80778e-06
5.92368e-06
2.16801e-06
5.90518e-06
1.44325e-06
5.8846e-06
1.33123e-06
6.69858e-06
2.09154e-06
7.16362e-06
1.6135e-06
7.27845e-06
1.19568e-06
7.21081e-06
8.93799e-07
7.30372e-06
-9.29615e-08
7.88728e-06
-7.54307e-07
8.14022e-06
-4.50078e-07
7.95988e-06
3.78837e-07
7.71835e-06
1.15189e-06
7.41145e-06
2.85211e-06
5.85236e-06
4.86866e-06
8.04846e-06
-1.83378e-06
1.83378e-06
-3.24005e-06
1.40626e-06
-5.3479e-06
2.10785e-06
-7.55154e-06
2.20364e-06
-9.40855e-06
1.857e-06
-1.05193e-05
1.11078e-06
-1.06554e-05
1.36025e-07
-1.01712e-05
-4.84158e-07
-9.77723e-06
-3.93992e-07
-9.36976e-06
-4.07491e-07
-8.46499e-06
-9.04799e-07
-6.58972e-06
-1.87531e-06
-4.10436e-06
-2.48538e-06
-1.86516e-06
-2.23922e-06
-3.33985e-07
-1.53119e-06
5.30608e-07
-8.64603e-07
1.12322e-06
-5.92621e-07
1.00842e-06
1.14806e-07
1.00842e-06
-7.58195e-07
2.59198e-06
-2.58132e-06
3.2294e-06
-4.57072e-06
4.09725e-06
-6.5031e-06
4.136e-06
-8.27216e-06
3.62605e-06
-9.11661e-06
1.9552e-06
-9.29271e-06
3.12098e-07
-8.90948e-06
-8.67419e-07
-8.58008e-06
-7.23414e-07
-7.81419e-06
-1.17341e-06
-7.21732e-06
-1.50169e-06
-5.75752e-06
-3.33514e-06
-3.8407e-06
-4.40225e-06
-2.13506e-06
-3.94489e-06
-8.72796e-07
-2.79348e-06
-4.69846e-08
-1.69044e-06
6.11078e-07
-1.2507e-06
7.0349e-07
2.23806e-08
1.7119e-06
-4.00726e-06
6.59921e-06
-6.47057e-06
5.69266e-06
-7.1883e-06
4.81494e-06
-7.8956e-06
4.84326e-06
-8.125e-06
3.85541e-06
-7.649e-06
1.47916e-06
-7.72067e-06
3.83724e-07
-9.53291e-06
9.44791e-07
-1.12328e-05
9.76481e-07
-9.884e-06
-2.52222e-06
-8.57856e-06
-2.80712e-06
-7.1474e-06
-4.7663e-06
-5.42493e-06
-6.1247e-06
-3.7136e-06
-5.6562e-06
-2.13185e-06
-4.37522e-06
-1.10463e-06
-2.71766e-06
-7.73968e-07
-1.58136e-06
-7.66107e-07
1.45291e-08
9.45812e-07
-9.70681e-06
1.63059e-05
-1.45147e-05
1.05004e-05
-1.42286e-05
4.52874e-06
-1.12321e-05
1.84663e-06
-6.80025e-06
-5.76598e-07
-4.97064e-07
-4.8242e-06
4.94772e-06
-5.06122e-06
3.19651e-06
2.69584e-06
-5.34565e-06
9.5185e-06
-9.46186e-06
1.59385e-06
-9.07455e-06
-3.19455e-06
-8.03392e-06
-5.80702e-06
-7.10561e-06
-7.05309e-06
-5.70064e-06
-7.06127e-06
-3.59042e-06
-6.48555e-06
-2.33172e-06
-3.97647e-06
-2.28004e-06
-1.63314e-06
-1.7632e-06
-5.02395e-07
-8.175e-07
-9.5722e-06
2.5878e-05
-1.31679e-05
1.4096e-05
-1.09717e-05
2.33249e-06
-6.69114e-06
-2.43392e-06
-2.95057e-06
-4.3172e-06
7.36108e-07
-8.51089e-06
5.58934e-06
-9.91446e-06
1.28275e-05
-4.54236e-06
1.36807e-05
8.66534e-06
6.56992e-06
8.70455e-06
1.97702e-06
1.39833e-06
6.69929e-07
-4.49996e-06
-4.88131e-06
-1.50189e-06
-8.50098e-06
-3.44162e-06
-4.69082e-06
-1.02957e-05
-2.09849e-06
-6.56879e-06
2.10995e-06
-5.84156e-06
4.92249e-06
-3.3149e-06
4.1051e-06
-4.82526e-06
3.07031e-05
-5.80826e-06
1.50789e-05
-3.98052e-06
5.04609e-07
-7.84903e-07
-5.62966e-06
1.72682e-06
-6.82906e-06
2.02534e-06
-8.80955e-06
3.5263e-06
-1.14155e-05
8.6297e-06
-9.64588e-06
1.22604e-05
5.03452e-06
1.01585e-05
1.08063e-05
7.67241e-06
3.88429e-06
5.78883e-06
-2.61651e-06
2.84941e-06
1.43738e-06
-3.77969e-07
-2.14393e-07
1.02805e-06
-1.17018e-05
3.60757e-06
-9.14842e-06
5.62338e-06
-7.85747e-06
5.47822e-06
-3.16985e-06
9.58309e-06
-1.16179e-06
3.18648e-05
1.7259e-06
1.21911e-05
2.60344e-06
-3.73063e-07
4.26279e-06
-7.28913e-06
5.38288e-06
-7.94928e-06
2.14802e-06
-5.57484e-06
1.99139e-06
-1.12591e-05
4.03827e-06
-1.16929e-05
7.68862e-06
1.38406e-06
8.64001e-06
9.85482e-06
8.3208e-06
4.20336e-06
6.31641e-06
-6.12235e-07
3.62338e-06
4.1303e-06
1.46008e-06
1.9488e-06
2.94663e-06
-1.31885e-05
3.9715e-06
-1.01734e-05
4.71508e-06
-8.60118e-06
5.03805e-06
-3.49299e-06
1.46211e-05
3.54131e-06
2.83234e-05
6.93e-06
8.80232e-06
7.34289e-06
-7.86001e-07
7.09023e-06
-7.03651e-06
5.67307e-06
-6.53217e-06
9.54669e-07
-8.56513e-07
1.45233e-07
-1.04497e-05
3.35866e-07
-1.18836e-05
2.25197e-06
-5.32122e-07
5.31722e-06
6.7895e-06
6.85029e-06
2.67023e-06
5.73191e-06
5.06095e-07
2.4878e-06
7.37437e-06
7.72966e-07
3.66359e-06
1.25764e-06
-1.36732e-05
6.24774e-07
-9.54059e-06
4.44317e-07
-8.4208e-06
2.61803e-06
-5.66673e-06
1.7239e-05
8.05571e-06
-1.63071e-05
1.3443e-05
-1.38288e-05
1.30603e-05
-7.24174e-06
9.10802e-06
-1.86329e-06
7.72054e-06
-2.41021e-06
9.33839e-06
-2.33217e-06
1.38781e-05
-4.42868e-07
1.75601e-05
1.25771e-07
1.9524e-05
2.04164e-07
2.03703e-05
5.96959e-07
2.04559e-05
1.24571e-06
2.08143e-05
1.73311e-06
2.07515e-05
1.67636e-06
2.02861e-05
1.66115e-06
2.00186e-05
1.16131e-06
2.06986e-05
-7.72844e-07
2.16593e-05
-1.71499e-06
2.20748e-05
-8.65541e-07
2.18246e-05
6.29129e-07
2.13246e-05
1.65197e-06
2.16639e-05
2.5129e-06
2.28937e-05
3.63894e-06
5.31085e-06
2.56315e-05
-9.70653e-07
-1.53363e-05
-2.18353e-06
-1.26158e-05
-6.17857e-07
-8.80734e-06
3.31615e-06
-5.79725e-06
7.73071e-06
-6.82474e-06
1.15479e-05
-6.14934e-06
1.56325e-05
-4.52744e-06
1.88082e-05
-3.04991e-06
2.07323e-05
-1.71988e-06
2.17363e-05
-4.07089e-07
2.20144e-05
9.67721e-07
2.20322e-05
1.71529e-06
2.1849e-05
1.85959e-06
2.14962e-05
2.01407e-06
2.0402e-05
2.25555e-06
1.92836e-05
3.45641e-07
1.90961e-05
-1.52735e-06
1.88795e-05
-6.48896e-07
1.8307e-05
1.20184e-06
1.77863e-05
2.17273e-06
1.75935e-05
2.70583e-06
1.75776e-05
3.65496e-06
4.1628e-06
1.87259e-05
1.15802e-07
-1.5452e-05
2.27775e-07
-1.27277e-05
2.03436e-06
-1.06139e-05
5.80092e-06
-9.56376e-06
9.34957e-06
-1.03734e-05
1.24717e-05
-9.27146e-06
1.51185e-05
-7.17423e-06
1.70681e-05
-4.99948e-06
1.84295e-05
-3.08127e-06
1.94082e-05
-1.38578e-06
1.92856e-05
1.09041e-06
1.81978e-05
2.80311e-06
1.71185e-05
2.93896e-06
1.65111e-05
2.62158e-06
1.38484e-05
4.91833e-06
8.82947e-06
5.36467e-06
3.57272e-06
3.72955e-06
1.84929e-06
1.07471e-06
1.3674e-06
1.68391e-06
1.49128e-07
3.39117e-06
-1.24635e-06
4.10148e-06
-2.46148e-06
4.87026e-06
6.10329e-06
-4.40165e-06
6.24777e-07
-1.60767e-05
9.16059e-07
-1.3019e-05
1.71394e-06
-1.14117e-05
3.05365e-06
-1.09035e-05
4.68131e-06
-1.2001e-05
6.49351e-06
-1.10836e-05
8.17217e-06
-8.85285e-06
8.21532e-06
-5.04259e-06
6.60821e-06
-1.47413e-06
2.80727e-06
2.41522e-06
-2.85028e-07
4.18277e-06
-1.77732e-06
4.29548e-06
-2.35186e-06
3.51359e-06
-2.75202e-06
3.02186e-06
-5.05607e-06
7.22251e-06
-1.32225e-05
1.35313e-05
-1.93419e-05
9.84909e-06
-1.95826e-05
1.31564e-06
-1.9509e-05
1.6105e-06
-2.10061e-05
4.88838e-06
-2.30216e-05
6.11717e-06
-2.58135e-05
7.6623e-06
1.09492e-05
-3.06591e-05
-2.39141e-06
-1.36853e-05
-4.00288e-06
-1.14075e-05
-5.31442e-06
-1.01002e-05
-6.4618e-06
-9.75606e-06
-8.26914e-06
-1.01936e-05
-1.03086e-05
-9.04414e-06
-1.30477e-05
-6.11371e-06
-1.67619e-05
-1.32838e-06
-1.98747e-05
1.63878e-06
-2.14359e-05
3.9764e-06
-2.03978e-05
3.14482e-06
-1.71564e-05
1.05409e-06
-1.42653e-05
6.22633e-07
-1.2944e-05
1.70065e-06
-1.1202e-05
5.48062e-06
-1.15551e-05
1.38845e-05
-1.22634e-05
1.05575e-05
-1.5897e-05
4.94943e-06
-1.99681e-05
5.68173e-06
-2.36748e-05
8.59513e-06
-2.72063e-05
9.64884e-06
-3.07374e-05
1.11936e-05
1.41761e-05
-3.39641e-05
-4.48634e-06
-9.199e-06
-6.44188e-06
-9.45196e-06
-8.08686e-06
-8.45517e-06
-1.03814e-05
-7.46151e-06
-1.38919e-05
-6.68315e-06
-1.75685e-05
-5.36753e-06
-1.96186e-05
-4.06358e-06
-1.84205e-05
-2.52648e-06
-1.56358e-05
-1.14585e-06
-1.16617e-05
2.30622e-09
-8.44881e-06
-6.80551e-08
-7.36883e-06
-2.58475e-08
-7.54645e-06
8.00297e-07
-8.32376e-06
2.47801e-06
-7.88761e-06
5.04453e-06
-3.68229e-06
9.67925e-06
-2.41559e-06
9.29088e-06
-6.53008e-06
9.06402e-06
-1.18746e-05
1.10264e-05
-1.65554e-05
1.3276e-05
-2.1195e-05
1.42886e-05
-2.51896e-05
1.51883e-05
1.65062e-05
-2.75195e-05
-4.94887e-07
-8.70296e-06
-3.3784e-06
-6.56776e-06
-5.42324e-06
-6.40997e-06
-6.79785e-06
-6.08674e-06
-9.80452e-06
-3.67641e-06
-1.33511e-05
-1.82095e-06
-1.49563e-05
-2.45833e-06
-1.37105e-05
-3.77223e-06
-1.05372e-05
-4.31899e-06
-6.92858e-06
-3.6063e-06
-4.24702e-06
-2.74957e-06
-2.91068e-06
-1.36217e-06
-1.95225e-06
-1.58105e-07
-1.27403e-06
1.79981e-06
-1.17427e-07
3.88796e-06
3.18918e-06
6.3727e-06
3.92275e-06
8.55739e-06
1.07672e-06
1.19101e-05
-2.78959e-06
1.48928e-05
-6.25161e-06
1.67382e-05
-1.07128e-05
1.87499e-05
-1.57111e-05
2.01867e-05
1.99032e-05
-1.9108e-05
-4.76367e-05
3.89348e-05
-6.71494e-05
1.29453e-05
-6.98153e-05
-3.74413e-06
-6.15073e-05
-1.43946e-05
-5.54241e-05
-9.75956e-06
-5.07346e-05
-6.51058e-06
-4.71278e-05
-6.06493e-06
-4.66923e-05
-4.20689e-06
-3.91902e-05
-1.182e-05
-3.06963e-05
-1.20993e-05
-2.29286e-05
-1.05166e-05
-1.69024e-05
-7.38802e-06
-1.00506e-05
-7.00966e-06
-4.23182e-06
-4.01896e-06
-5.93139e-07
2.48541e-07
2.21849e-06
3.5605e-06
2.45979e-06
8.31602e-06
1.15163e-06
1.32185e-05
-7.72883e-07
1.68176e-05
-4.85783e-06
2.08228e-05
-1.03689e-05
2.42604e-05
-1.55309e-05
2.53485e-05
2.1785e-05
-1.74127e-05
-1.30774e-05
5.20104e-05
-2.66754e-05
2.65422e-05
-3.00209e-05
-3.98971e-07
-2.35476e-05
-2.0868e-05
-1.11703e-05
-2.21371e-05
-5.19915e-06
-1.24824e-05
-1.53774e-05
4.11254e-06
-2.68971e-05
7.31247e-06
-3.55233e-05
-3.19405e-06
-3.01823e-05
-1.74404e-05
-2.12771e-05
-1.94217e-05
-1.0934e-05
-1.77306e-05
-1.06595e-05
-7.28328e-06
-1.45776e-05
-9.94976e-08
-1.97169e-05
5.38912e-06
-2.08495e-05
4.69389e-06
-8.73411e-06
-3.79873e-06
-5.69198e-07
5.05472e-06
3.00348e-06
1.32457e-05
-9.62687e-06
3.34496e-05
-2.10133e-05
3.56468e-05
-2.45003e-05
2.88358e-05
2.63655e-05
-2.90827e-05
7.48458e-06
4.45247e-05
1.90538e-05
1.49729e-05
1.71425e-05
1.51299e-06
8.71239e-06
-1.24375e-05
2.69156e-06
-1.61159e-05
3.58779e-06
-1.33782e-05
1.01444e-05
-2.44418e-06
1.77405e-05
-2.84189e-07
2.05649e-05
-6.01935e-06
1.69533e-05
-1.38293e-05
1.38743e-05
-1.6343e-05
1.15532e-05
-1.54095e-05
1.46994e-05
-1.04292e-05
1.86632e-05
-4.06269e-06
2.21284e-05
1.92554e-06
2.27231e-05
4.10065e-06
1.61048e-05
2.82113e-06
8.98468e-06
1.2177e-05
1.20323e-06
2.103e-05
8.98067e-06
2.56771e-05
8.83734e-06
3.57968e-05
-3.33375e-06
4.10073e-05
4.04767e-05
-1.74457e-05
1.62044e-05
2.83213e-05
2.28305e-05
8.34805e-06
2.4103e-05
2.41594e-07
1.77807e-05
-6.1142e-06
9.93652e-06
-8.27082e-06
3.22292e-06
-6.66359e-06
4.65076e-06
-3.87111e-06
1.14339e-05
-7.06663e-06
1.6064e-05
-1.06485e-05
1.56559e-05
-1.34205e-05
1.28804e-05
-1.3567e-05
1.09592e-05
-1.3488e-05
1.22159e-05
-1.16859e-05
1.47837e-05
-6.63062e-06
1.76728e-05
-9.63786e-07
1.96491e-05
2.1241e-06
1.82553e-05
4.21481e-06
2.067e-05
9.76268e-06
2.4507e-05
1.71945e-05
2.71842e-05
2.30057e-05
2.83682e-05
3.46157e-05
2.95066e-05
3.9875e-05
3.5e-05
3.49871e-05
1.36538e-05
1.46692e-05
1.67979e-05
5.2053e-06
1.63777e-05
6.62847e-07
1.2668e-05
-2.40343e-06
7.84602e-06
-3.44787e-06
3.98337e-06
-2.79988e-06
4.85784e-06
-4.74451e-06
7.33497e-06
-9.54277e-06
8.18338e-06
-1.14961e-05
6.86954e-06
-1.21059e-05
5.05132e-06
-1.17482e-05
4.73411e-06
-1.31705e-05
6.24784e-06
-1.31996e-05
8.08081e-06
-8.46395e-06
9.21207e-06
-2.09571e-06
9.81317e-06
1.52208e-06
1.04923e-05
3.53433e-06
1.56419e-05
4.61157e-06
2.39524e-05
8.88199e-06
3.01176e-05
1.6838e-05
3.77443e-05
2.69874e-05
4.5296e-05
3.23224e-05
2.92537e-05
5.10462e-05
8.00363e-06
6.66658e-06
1.04421e-05
2.76785e-06
1.03927e-05
7.13155e-07
8.66212e-06
-6.71951e-07
6.29107e-06
-1.07596e-06
4.63507e-06
-1.14302e-06
5.00648e-06
-5.1151e-06
4.41671e-06
-8.95224e-06
3.22645e-06
-1.03051e-05
1.37543e-06
-1.02543e-05
6.77414e-07
-1.10497e-05
8.91999e-07
-1.33848e-05
9.91169e-07
-1.32988e-05
1.11801e-06
-8.59106e-06
1.39111e-06
-2.36937e-06
1.1761e-06
1.73616e-06
2.5483e-06
2.16083e-06
7.94016e-06
-7.82045e-07
1.62391e-05
5.80492e-07
2.51481e-05
7.9256e-06
3.29523e-05
1.9179e-05
3.94057e-05
2.58654e-05
2.81723e-05
4.04852e-05
4.13125e-06
2.53644e-06
6.00335e-06
8.96637e-07
6.43858e-06
2.78689e-07
6.03017e-06
-2.62857e-07
5.55973e-06
-6.04874e-07
5.81868e-06
-1.40135e-06
5.16622e-06
-4.46208e-06
3.51255e-06
-7.29803e-06
1.56345e-06
-8.35555e-06
-5.13363e-08
-8.63909e-06
-9.8958e-07
-1.01112e-05
-2.04853e-06
-1.23256e-05
-3.53478e-06
-1.18125e-05
-4.32667e-06
-7.7993e-06
-4.06233e-06
-2.63408e-06
-3.51029e-06
1.18352e-06
-1.60527e-06
2.54894e-07
1.93315e-06
-4.32173e-06
6.86412e-06
-4.35223e-06
1.24e-05
2.38678e-06
1.74522e-05
1.41233e-05
2.11709e-05
2.21441e-05
2.74022e-05
2.19381e-05
2.03155e-06
5.05422e-07
3.20951e-06
-2.80663e-07
3.67478e-06
-1.85969e-07
3.81438e-06
-4.01896e-07
4.08858e-06
-8.78578e-07
4.57368e-06
-1.886e-06
4.12599e-06
-4.01398e-06
2.79567e-06
-5.96733e-06
1.22987e-06
-6.7894e-06
-7.82421e-08
-7.33067e-06
-1.53115e-06
-8.65798e-06
-3.5349e-06
-1.03217e-05
-5.72249e-06
-9.6248e-06
-6.88384e-06
-6.63799e-06
-6.77903e-06
-2.73906e-06
-5.65457e-06
5.87243e-08
-4.45496e-06
-9.45221e-07
-4.23198e-06
-4.54541e-06
-3.29161e-06
-5.29371e-06
-2.1639e-06
1.25734e-06
2.34075e-07
1.17235e-05
1.26497e-06
2.11105e-05
2.85922e-05
7.3906e-08
8.89425e-07
-3.83075e-07
1.43378e-06
-8.24318e-07
1.73185e-06
-4.8347e-07
1.93371e-06
-6.03269e-07
2.19405e-06
-1.1385e-06
2.41815e-06
-2.10973e-06
2.05509e-06
-3.65059e-06
1.09818e-06
-5.01013e-06
9.98075e-08
-5.79076e-06
-8.15883e-07
-6.41473e-06
-2.10173e-06
-7.37192e-06
-4.19366e-06
-8.22958e-06
-6.23843e-06
-7.57991e-06
-7.48387e-06
-5.39249e-06
-7.49988e-06
-2.72308e-06
-6.72491e-06
-7.1634e-07
-6.73652e-06
-9.33801e-07
-8.6225e-06
-2.65972e-06
-1.08019e-05
-3.1147e-06
-1.0974e-05
1.42861e-06
-9.20391e-06
9.95237e-06
-8.88802e-06
2.07946e-05
2.9936e-05
-1.02322e-05
1.68143e-07
-5.50778e-07
2.67077e-07
-9.22719e-07
3.31106e-07
-5.47001e-07
4.28395e-07
-7.00133e-07
5.19696e-07
-1.22943e-06
5.13795e-07
-2.10351e-06
1.25695e-07
-3.2622e-06
-5.93504e-07
-4.29066e-06
-1.35178e-06
-5.03223e-06
-2.12489e-06
-5.64138e-06
-3.24586e-06
-6.25074e-06
-4.85122e-06
-6.62403e-06
-6.39463e-06
-6.03634e-06
-7.23287e-06
-4.55414e-06
-7.19648e-06
-2.75939e-06
-6.58093e-06
-1.33187e-06
-6.67561e-06
-8.39128e-07
-8.4838e-06
-8.51542e-07
-1.12886e-05
-3.10067e-07
-1.21313e-05
2.2711e-06
-1.08283e-05
8.64936e-06
-9.20526e-06
1.9171e-05
2.89495e-05
-8.21814e-06
-2.55938e-07
-2.93953e-07
-5.14905e-07
-6.63156e-07
-6.43605e-07
-4.17826e-07
-7.06525e-07
-6.36815e-07
-7.58867e-07
-1.17675e-06
-8.95739e-07
-1.96633e-06
-1.2528e-06
-2.90486e-06
-1.78068e-06
-3.76252e-06
-2.38814e-06
-4.42452e-06
-3.07885e-06
-4.95044e-06
-3.98404e-06
-5.34533e-06
-5.15757e-06
-5.45028e-06
-6.22258e-06
-4.97114e-06
-6.80337e-06
-3.97319e-06
-6.79737e-06
-2.76526e-06
-6.43392e-06
-1.6952e-06
-6.32334e-06
-9.49602e-07
-6.97827e-06
-1.96511e-07
-8.40053e-06
1.11231e-06
-9.5994e-06
3.46993e-06
-8.98088e-06
8.03078e-06
-5.90195e-06
1.60927e-05
2.5253e-05
-2.20486e-06
-5.53289e-07
2.5956e-07
-1.05604e-06
-1.59961e-07
-1.36624e-06
-1.07204e-07
-1.56104e-06
-4.41637e-07
-1.7012e-06
-1.03627e-06
-1.86231e-06
-1.80493e-06
-2.13068e-06
-2.63621e-06
-2.5065e-06
-3.38643e-06
-2.95491e-06
-3.97585e-06
-3.50292e-06
-4.40217e-06
-4.202e-06
-4.646e-06
-5.0326e-06
-4.61944e-06
-5.78641e-06
-4.2171e-06
-6.26641e-06
-3.49297e-06
-6.4152e-06
-2.61626e-06
-6.3462e-06
-1.76401e-06
-6.31236e-06
-9.83264e-07
-6.45808e-06
-5.05765e-08
-6.72602e-06
1.38039e-06
-6.9011e-06
3.64512e-06
-6.10884e-06
7.23889e-06
-2.79073e-06
1.27746e-05
2.00577e-05
2.40547e-06
-7.82754e-07
1.04322e-06
-1.48213e-06
5.40031e-07
-1.95776e-06
3.68882e-07
-2.26747e-06
-1.31545e-07
-2.47271e-06
-8.30702e-07
-2.63616e-06
-1.64119e-06
-2.81688e-06
-2.45521e-06
-3.04027e-06
-3.16276e-06
-3.31988e-06
-3.69596e-06
-3.68671e-06
-4.03506e-06
-4.16499e-06
-4.16744e-06
-4.72367e-06
-4.06048e-06
-5.2512e-06
-3.68929e-06
-5.64557e-06
-3.09833e-06
-5.87688e-06
-2.38471e-06
-5.99893e-06
-1.64171e-06
-6.10526e-06
-8.76691e-07
-6.19754e-06
4.1945e-08
-6.12556e-06
1.30865e-06
-5.64813e-06
3.16782e-06
-4.25052e-06
5.84148e-06
-1.07244e-06
9.59717e-06
1.4655e-05
4.33107e-06
-9.82798e-07
2.02627e-06
-1.86152e-06
1.41917e-06
-2.4904e-06
9.98159e-07
-2.91786e-06
2.96265e-07
-3.18678e-06
-5.61461e-07
-3.34865e-06
-1.47903e-06
-3.4545e-06
-2.34907e-06
-3.54868e-06
-3.06829e-06
-3.67242e-06
-3.57192e-06
-3.86389e-06
-3.84329e-06
-4.1408e-06
-3.89021e-06
-4.47983e-06
-3.72115e-06
-4.81879e-06
-3.35001e-06
-5.10086e-06
-2.81595e-06
-5.30736e-06
-2.1779e-06
-5.46153e-06
-1.48725e-06
-5.59035e-06
-7.47572e-07
-5.65453e-06
1.06438e-07
-5.51569e-06
1.17004e-06
-4.92261e-06
2.57495e-06
-3.53045e-06
4.44975e-06
-7.99913e-07
6.86693e-06
9.97225e-06
3.8838e-06
-1.16554e-06
3.19267e-06
-2.21317e-06
2.46731e-06
-2.98853e-06
1.77392e-06
-3.52761e-06
8.35674e-07
-3.85085e-06
-2.3791e-07
-4.00543e-06
-1.32416e-06
-4.04275e-06
-2.31146e-06
-4.02439e-06
-3.08634e-06
-4.01183e-06
-3.58417e-06
-4.05293e-06
-3.80187e-06
-4.16789e-06
-3.77491e-06
-4.34215e-06
-3.54654e-06
-4.53624e-06
-3.15557e-06
-4.71137e-06
-2.64047e-06
-4.84917e-06
-2.03975e-06
-4.95312e-06
-1.38296e-06
-5.02476e-06
-6.75585e-07
-5.02478e-06
1.06776e-07
-4.85883e-06
1.00441e-06
-4.3534e-06
2.06975e-06
-3.25638e-06
3.35305e-06
-1.27243e-06
4.88351e-06
6.71291e-06
1.98785e-06
-1.33563e-06
4.5283e-06
-2.53763e-06
3.66961e-06
-3.44666e-06
2.68326e-06
-4.06667e-06
1.45601e-06
-4.4286e-06
1.24315e-07
-4.56212e-06
-1.19035e-06
-4.52767e-06
-2.3456e-06
-4.4045e-06
-3.20921e-06
-4.27087e-06
-3.71746e-06
-4.18496e-06
-3.88744e-06
-4.17311e-06
-3.7864e-06
-4.22855e-06
-3.49073e-06
-4.32217e-06
-3.06158e-06
-4.4201e-06
-2.54216e-06
-4.49822e-06
-1.96124e-06
-4.54513e-06
-1.33567e-06
-4.54993e-06
-6.70415e-07
-4.48293e-06
4.01466e-08
-4.283e-06
8.04786e-07
-3.84718e-06
1.63418e-06
-3.03697e-06
2.54322e-06
-1.70739e-06
3.55438e-06
4.71416e-06
2.92094e-07
-1.4872e-06
6.01634e-06
-2.82486e-06
5.00777e-06
-3.83801e-06
3.69679e-06
-4.52491e-06
2.14322e-06
-4.8983e-06
4.98013e-07
-4.99348e-06
-1.09486e-06
-4.88193e-06
-2.45684e-06
-4.65968e-06
-3.43113e-06
-4.41795e-06
-3.95885e-06
-4.22302e-06
-4.082e-06
-4.10794e-06
-3.90111e-06
-4.07327e-06
-3.52501e-06
-4.09645e-06
-3.03801e-06
-4.14461e-06
-2.4936e-06
-4.1868e-06
-1.91865e-06
-4.19972e-06
-1.32236e-06
-4.16374e-06
-7.06001e-07
-4.05302e-06
-7.02005e-08
-3.8278e-06
5.79907e-07
-3.42921e-06
1.23586e-06
-2.78547e-06
1.89984e-06
-1.82862e-06
2.59777e-06
3.39629e-06
-5.09899e-07
-1.62045e-06
7.63684e-06
-3.07064e-06
6.45825e-06
-4.16589e-06
4.79236e-06
-4.89222e-06
2.86986e-06
-5.25697e-06
8.6307e-07
-5.3013e-06
-1.05022e-06
-5.11134e-06
-2.64648e-06
-4.79938e-06
-3.74276e-06
-4.46417e-06
-4.29371e-06
-4.17612e-06
-4.36969e-06
-3.97357e-06
-4.10327e-06
-3.86413e-06
-3.63406e-06
-3.83188e-06
-3.06985e-06
-3.84587e-06
-2.47921e-06
-3.87029e-06
-1.89382e-06
-3.87294e-06
-1.31931e-06
-3.82716e-06
-7.51384e-07
-3.70768e-06
-1.89294e-07
-3.48577e-06
3.58311e-07
-3.12569e-06
8.76025e-07
-2.58567e-06
1.36008e-06
-1.83048e-06
1.84315e-06
2.39356e-06
-8.2727e-07
-1.73473e-06
9.37236e-06
-3.27649e-06
8.00043e-06
-4.43073e-06
5.94694e-06
-5.17504e-06
3.61448e-06
-5.51548e-06
1.20382e-06
-5.5014e-06
-1.06399e-06
-5.23669e-06
-2.91085e-06
-4.84925e-06
-4.12986e-06
-4.43799e-06
-4.7046e-06
-4.07287e-06
-4.73444e-06
-3.79549e-06
-4.38027e-06
-3.61969e-06
-3.80946e-06
-3.53741e-06
-3.15173e-06
-3.52253e-06
-2.49368e-06
-3.53783e-06
-1.87811e-06
-3.5452e-06
-1.31154e-06
-3.51235e-06
-7.83849e-07
-3.41338e-06
-2.87913e-07
-3.22462e-06
1.69862e-07
-2.92172e-06
5.73371e-07
-2.47625e-06
9.14997e-07
-1.86231e-06
1.22924e-06
1.58998e-06
-1.05788e-06
-1.83139e-06
1.12036e-05
-3.44511e-06
9.61436e-06
-4.639e-06
7.14111e-06
-5.38499e-06
4.36078e-06
-5.68967e-06
1.50882e-06
-5.61363e-06
-1.1397e-06
-5.28196e-06
-3.24219e-06
-4.83772e-06
-4.57375e-06
-4.37014e-06
-5.17182e-06
-3.9449e-06
-5.1593e-06
-3.60487e-06
-4.71992e-06
-3.36862e-06
-4.04532e-06
-3.23665e-06
-3.2833e-06
-3.19128e-06
-2.53866e-06
-3.19817e-06
-1.87082e-06
-3.21611e-06
-1.29321e-06
-3.20812e-06
-7.91468e-07
-3.14607e-06
-3.49625e-07
-3.00872e-06
3.28118e-08
-2.77969e-06
3.44562e-07
-2.4345e-06
5.70019e-07
-1.9524e-06
7.47875e-07
9.58223e-07
-1.32029e-06
-1.90961e-06
1.3114e-05
-3.57762e-06
1.12828e-05
-4.79581e-06
8.35965e-06
-5.53268e-06
5.09798e-06
-5.79611e-06
1.77257e-06
-5.6554e-06
-1.28008e-06
-5.26757e-06
-3.62968e-06
-4.78854e-06
-5.05242e-06
-4.28599e-06
-5.67402e-06
-3.81937e-06
-5.62556e-06
-3.43063e-06
-5.10829e-06
-3.14045e-06
-4.33513e-06
-2.95723e-06
-3.46614e-06
-2.875e-06
-2.62051e-06
-2.86774e-06
-1.87771e-06
-2.89474e-06
-1.26585e-06
-2.91493e-06
-7.70928e-07
-2.89717e-06
-3.6708e-07
-2.82118e-06
-4.29045e-08
-2.66889e-06
1.92523e-07
-2.42706e-06
3.28601e-07
-2.07238e-06
3.92952e-07
4.804e-07
-1.59384e-06
-1.96837e-06
1.50823e-05
-3.67246e-06
1.29871e-05
-4.90314e-06
9.5906e-06
-5.62081e-06
5.81595e-06
-5.844e-06
1.99607e-06
-5.63536e-06
-1.48841e-06
-5.20413e-06
-4.06058e-06
-4.71344e-06
-5.54279e-06
-4.19802e-06
-6.18911e-06
-3.7118e-06
-6.11143e-06
-3.29269e-06
-5.52706e-06
-2.95945e-06
-4.66801e-06
-2.72545e-06
-3.6998e-06
-2.59782e-06
-2.74779e-06
-2.56503e-06
-1.91016e-06
-2.5927e-06
-1.23784e-06
-2.63718e-06
-7.26137e-07
-2.66248e-06
-3.41492e-07
-2.64596e-06
-5.91639e-08
-2.57363e-06
1.2041e-07
-2.43177e-06
1.86805e-07
-2.20234e-06
1.6434e-07
1.41116e-07
-1.86294e-06
-1.96566e-06
1.70486e-05
-3.69143e-06
1.47132e-05
-4.92697e-06
1.08264e-05
-5.62919e-06
6.51842e-06
-5.80977e-06
2.17693e-06
-5.55822e-06
-1.73967e-06
-5.09356e-06
-4.52496e-06
-4.60738e-06
-6.02867e-06
-4.09892e-06
-6.69726e-06
-3.6189e-06
-6.59115e-06
-3.19484e-06
-5.95081e-06
-2.83775e-06
-5.02479e-06
-2.56066e-06
-3.97659e-06
-2.38171e-06
-2.92644e-06
-2.30868e-06
-1.98289e-06
-2.32221e-06
-1.22403e-06
-2.38073e-06
-6.67339e-07
-2.44268e-06
-2.7929e-07
-2.48103e-06
-2.05889e-08
-2.48119e-06
1.20788e-07
-2.43063e-06
1.36705e-07
-2.3115e-06
4.48826e-08
-6.79848e-08
-2.10156e-06
-1.84129e-06
1.88895e-05
-3.53715e-06
1.64091e-05
-4.7675e-06
1.20569e-05
-5.46139e-06
7.2125e-06
-5.6261e-06
2.34185e-06
-5.3828e-06
-1.98275e-06
-4.92103e-06
-4.98648e-06
-4.43572e-06
-6.51375e-06
-3.95507e-06
-7.17766e-06
-3.5146e-06
-7.03136e-06
-3.12068e-06
-6.34448e-06
-2.77002e-06
-5.37521e-06
-2.46934e-06
-4.27703e-06
-2.24217e-06
-3.15337e-06
-2.11603e-06
-2.1088e-06
-2.09571e-06
-1.24412e-06
-2.15138e-06
-6.11454e-07
-2.2379e-06
-1.92571e-07
-2.32078e-06
6.25022e-08
-2.38248e-06
1.8266e-07
-2.41141e-06
1.65712e-07
-2.38938e-06
2.3832e-08
-1.60614e-07
-2.29656e-06
-1.58355e-06
2.04736e-05
-3.15412e-06
1.79798e-05
-4.33777e-06
1.32407e-05
-5.0244e-06
7.89925e-06
-5.19769e-06
2.51528e-06
-4.98989e-06
-2.1904e-06
-4.58839e-06
-5.38782e-06
-4.12232e-06
-6.97965e-06
-3.71024e-06
-7.58957e-06
-3.35579e-06
-7.38564e-06
-3.03715e-06
-6.66296e-06
-2.73349e-06
-5.6787e-06
-2.44147e-06
-4.56889e-06
-2.18303e-06
-3.41166e-06
-1.99982e-06
-2.29186e-06
-1.92563e-06
-1.31817e-06
-1.95559e-06
-5.81351e-07
-2.04914e-06
-9.88878e-08
-2.16346e-06
1.76924e-07
-2.27355e-06
2.92902e-07
-2.36639e-06
2.58935e-07
-2.42625e-06
8.30751e-08
-1.59289e-07
-2.42698e-06
-1.21322e-06
2.16864e-05
-2.55408e-06
1.93206e-05
-3.61392e-06
1.43005e-05
-4.25178e-06
8.53712e-06
-4.46828e-06
2.7318e-06
-4.29561e-06
-2.36302e-06
-3.95576e-06
-5.72762e-06
-3.5916e-06
-7.34375e-06
-3.31416e-06
-7.86695e-06
-3.10118e-06
-7.59856e-06
-2.90664e-06
-6.85743e-06
-2.69469e-06
-5.89059e-06
-2.45182e-06
-4.81171e-06
-2.19304e-06
-3.67039e-06
-1.9639e-06
-2.52096e-06
-1.82294e-06
-1.45908e-06
-1.80126e-06
-6.03e-07
-1.87782e-06
-2.2286e-08
-2.00485e-06
3.03995e-07
-2.14833e-06
4.36378e-07
-2.28967e-06
4.00017e-07
-2.41256e-06
2.06753e-07
-7.89646e-08
-2.49321e-06
-7.53637e-07
2.24403e-05
-1.76978e-06
2.03366e-05
-2.6147e-06
1.51453e-05
-3.16918e-06
9.09147e-06
-3.37981e-06
2.94234e-06
-3.23411e-06
-2.5088e-06
-3.00384e-06
-5.95796e-06
-2.83372e-06
-7.51392e-06
-2.75534e-06
-7.94538e-06
-2.73103e-06
-7.62292e-06
-2.70058e-06
-6.88793e-06
-2.619e-06
-5.97224e-06
-2.46543e-06
-4.96534e-06
-2.24554e-06
-3.89035e-06
-1.9984e-06
-2.76817e-06
-1.79335e-06
-1.66421e-06
-1.69808e-06
-6.9835e-07
-1.72935e-06
8.91014e-09
-1.84823e-06
4.22769e-07
-2.00629e-06
5.94337e-07
-2.17937e-06
5.73271e-07
-2.34947e-06
3.7597e-07
5.92401e-08
-2.48727e-06
-2.51773e-07
2.26913e-05
-8.57136e-07
2.09416e-05
-1.42714e-06
1.5715e-05
-1.82912e-06
9.49322e-06
-1.92654e-06
3.03954e-06
-1.83454e-06
-2.60101e-06
-1.82587e-06
-5.96681e-06
-1.9075e-06
-7.43247e-06
-2.06593e-06
-7.78712e-06
-2.2538e-06
-7.43521e-06
-2.40704e-06
-6.73486e-06
-2.47855e-06
-5.90089e-06
-2.44459e-06
-4.99948e-06
-2.3022e-06
-4.03292e-06
-2.07674e-06
-2.99382e-06
-1.8312e-06
-1.90993e-06
-1.65474e-06
-8.75001e-07
-1.61192e-06
-3.40915e-08
-1.69419e-06
5.04859e-07
-1.84895e-06
7.48878e-07
-2.03738e-06
7.61295e-07
-2.23643e-06
5.75715e-07
2.40296e-07
-2.41793e-06
2.42898e-07
2.24485e-05
6.65928e-08
2.11177e-05
-1.92592e-07
1.59739e-05
-3.03069e-07
9.60337e-06
-2.03867e-07
2.94002e-06
-2.50294e-07
-2.55488e-06
-5.40665e-07
-5.67672e-06
-9.0327e-07
-7.07013e-06
-1.30568e-06
-7.38498e-06
-1.70186e-06
-7.03929e-06
-2.03271e-06
-6.40428e-06
-2.2577e-06
-5.67617e-06
-2.35583e-06
-4.90163e-06
-2.31915e-06
-4.06988e-06
-2.15737e-06
-3.15587e-06
-1.91318e-06
-2.1544e-06
-1.67238e-06
-1.11607e-06
-1.53694e-06
-1.69797e-07
-1.55304e-06
5.20664e-07
-1.68241e-06
8.77999e-07
-1.86986e-06
9.48727e-07
-2.08301e-06
7.87621e-07
4.45393e-07
-2.28809e-06
6.44397e-07
2.18034e-05
8.96242e-07
2.08654e-05
1.0094e-06
1.58603e-05
1.20929e-06
9.40311e-06
1.3749e-06
2.77404e-06
1.16517e-06
-2.3455e-06
7.01458e-07
-5.21335e-06
9.16276e-08
-6.46063e-06
-5.49718e-07
-6.74396e-06
-1.12719e-06
-6.46214e-06
-1.60356e-06
-5.92823e-06
-1.95706e-06
-5.323e-06