/*--------------------------------*- C++ -*----------------------------------*\
| =========                 |                                                 |
| \\      /  F ield         | OpenFOAM: The Open Source CFD Toolbox           |
|  \\    /   O peration     | Version:  2312                                  |
|   \\  /    A nd           | Website:  www.openfoam.com                      |
|    \\/     M anipulation  |                                                 |
\*---------------------------------------------------------------------------*/
FoamFile
{
    version     2.0;
    format      ascii;
    arch        "LSB;label=32;scalar=64";
    class       volScalarField;
    location    "1.15";
    object      alpha.water;
}
// * * * * * * * * * * * * * * * * * * * * * * * * * * * * * * * * * * * * * //

dimensions      [0 0 0 0 0 0 0];

internalField   nonuniform List<scalar> 
2268
(
3.22444e-11
2.83561e-11
2.51828e-11
2.32564e-11
2.22959e-11
2.16539e-11
2.08614e-11
1.94148e-11
1.83765e-11
1.85929e-11
1.98549e-11
2.21864e-11
2.60101e-11
3.209e-11
4.25626e-11
5.96801e-11
8.94105e-11
1.38559e-10
2.0654e-10
2.70584e-10
3.66546e-10
3.77065e-10
4.5159e-10
2.64484e-11
2.50405e-11
2.61644e-11
2.87995e-11
3.25254e-11
3.59153e-11
3.88039e-11
4.0817e-11
4.24983e-11
4.45859e-11
4.81061e-11
5.31392e-11
6.13135e-11
7.44959e-11
9.98403e-11
1.49658e-10
2.43165e-10
4.29025e-10
7.6748e-10
1.32255e-09
2.18927e-09
6.43005e-10
1.18208e-09
3.63461e-11
2.61331e-11
2.58749e-11
2.94474e-11
3.5181e-11
4.16766e-11
4.79938e-11
5.34661e-11
5.58204e-11
5.59743e-11
5.61757e-11
5.95835e-11
7.24933e-11
9.9528e-11
1.29944e-10
1.72439e-10
2.67297e-10
3.71427e-10
7.89959e-10
2.02541e-09
1.12667e-08
4.87473e-08
1.78757e-08
8.14523e-11
4.14671e-11
2.99997e-11
3.60349e-11
4.79063e-11
5.65042e-11
6.15367e-11
6.38953e-11
5.1549e-11
5.23105e-11
5.9458e-11
3.10357e-11
3.07257e-11
3.07828e-11
3.07241e-11
3.10336e-11
3.0725e-11
3.3998e-11
3.07272e-11
3.40038e-11
3.07303e-11
2.74311e-07
2.71e-07
4.91947e-10
9.45315e-10
1.87528e-10
4.14269e-11
3.81313e-11
3.22499e-11
1.27823e-11
1.25798e-11
1.0637e-25
7.78354e-13
2.22726e-21
0.0413933
0.101337
0.141479
0.161397
0.168287
0.168493
0.170073
0.170923
0.163223
0.145557
0.128392
0.123267
3.99805e-09
5.91887e-09
1.57978e-09
1.0646e-10
2.25759e-11
4.99479e-11
6.78401e-12
6.43088e-12
0.0425685
0.25414
0.53227
0.735303
0.83182
0.877921
0.897437
0.903953
0.905583
0.907983
0.90881
0.901203
0.882179
0.851201
0.830378
3.49566e-08
3.03392e-08
1.36579e-08
6.31439e-13
-1.29247e-28
-5.82181e-12
-6.92709e-30
0.202164
0.638281
0.912699
0.997304
0.999986
0.999984
0.999983
0.999981
0.999974
0.999971
0.999939
0.999807
0.999757
0.999843
0.999983
0.979719
0.0143668
0.0679469
0.0537783
0.000486325
2.3366e-10
0.0466141
0.415495
0.889439
0.999999
0.999999
0.999999
1
1
1
1
1
1
0.999999
0.999998
0.999999
0.999999
0.999999
0.99967
0.0151829
0.020859
0.00732964
0.00350297
0.00603842
0.00995844
0.0433386
0.0676097
0.0587997
0.0454817
0.0434501
0.0421986
0.0389729
0.0389656
0.0401733
0.041484
0.0416185
0.0195045
0.0145961
0.0438939
0.0787347
0.0284091
0.00274672
0.00270949
0.0657578
0.282424
0.413742
0.360271
0.129801
0.0731382
0.0611153
0.0533345
0.065703
0.0662268
0.0350873
0.0214288
0.0202831
0.0145989
0.108693
0.185326
0.377153
0.133865
0.174644
0.595009
0.69946
0.689003
0.456567
0.0193422
0.00136854
0.00136716
0.00137591
0.0013924
0.0153783
0.0369213
0.0224074
0.0253234
0.0150154
0.124383
0.463468
0.538415
0.608909
0.740362
0.761259
0.728752
0.421357
0.082562
0.0126616
0.0137763
0.00357967
0.0454368
0.181121
0.33315
0.361206
0.183923
0.121372
0.0172656
0.134815
0.466094
0.539626
0.785921
0.784498
0.718808
0.27965
0.107925
0.110658
0.26267
0.279707
0.290406
0.380476
0.460993
0.781901
0.823191
0.487366
0.196012
0.202774
0.161061
0.497814
0.407964
0.752563
0.771763
0.391236
0.197825
0.187644
0.471191
0.718402
0.812013
0.53148
0.505908
0.816487
0.877673
0.879208
0.848914
0.410294
0.277622
0.241574
0.637384
0.302085
0.433016
0.556249
0.21739
0.0290001
0.307004
0.703461
0.878565
0.879063
0.879033
0.866998
0.879299
0.879283
0.879188
0.879191
0.818297
0.222341
0.47657
0.777478
0.286093
0.282183
0.244307
0.100436
0.0105682
0.0827485
0.541336
0.78949
0.861651
0.879193
0.879151
0.879284
0.879188
0.877571
0.796895
0.795818
0.243761
0.549732
0.680191
0.658203
0.594802
0.63253
0.822839
0.982703
1
1
1
1
1
1
1
1
1
0.99999
0.999959
0.999977
0.999999
0.999999
0.750668
0.686446
0.993676
0.999413
0.999971
1
1
1
1
1
1
0.999998
0.999996
0.999996
0.999999
1
1
0.999671
0.999209
0.999289
0.999977
0.704663
0.447342
0.44551
0.555888
0.798429
0.998244
0.999904
0.999989
1
1
1
1
1
1
0.999985
1
1
1
0.999632
0.999235
0.999262
0.999287
0.723442
0.576249
0.57622
0.823005
0.89491
0.199243
0.631592
0.843202
0.949064
0.99008
0.998412
0.999908
1
1
0.999078
0.999766
0.998805
0.99457
0.994474
0.996454
0.99886
0.999063
0.853139
0.672216
0.700408
0.866748
0.900241
0.900668
0.000750803
0.0226704
0.244215
0.394311
0.562249
0.691498
0.763077
0.786979
0.755297
0.792464
0.895144
0.903599
0.944358
0.996813
0.998171
0.99872
0.93081
0.77001
0.750197
0.804478
0.810487
0.492398
0.310175
0.00169393
0.0015774
0.0488845
0.0477827
0.0137298
0.0240246
0.0716844
0.0843895
0.105905
0.22144
0.547535
0.643629
0.842978
0.936022
0.914492
0.874573
0.715104
0.691635
0.665611
0.432742
0.135484
0.00631469
1.5069e-05
0.00300169
0.00549707
2.13448e-16
2.81517e-16
3.11238e-16
-2.27541e-17
-4.10273e-06
0.000260127
0.0296096
0.074513
0.157916
0.204712
0.353571
0.576432
0.618285
0.538628
0.460673
0.421098
0.142721
0.00569601
0.00010019
1.87371e-05
1.56885e-05
0.00166415
0.00839858
8.61953e-05
1.52735e-06
3.28909e-06
0.000133768
0.00123228
0.00396845
0.00872186
0.00341578
1.96147e-19
2.75223e-08
0.000715453
0.0746431
0.25506
0.321556
0.221239
0.0278913
0.000151948
8.60334e-05
4.68054e-05
3.42164e-06
1.99871e-06
0.000175795
0.00513858
2.14745e-05
1.00322e-06
5.03029e-05
0.000176539
0.000317691
0.000242492
8.43909e-10
3.93173e-09
3.51148e-08
-9.41623e-13
0.000919725
0.0109071
0.0176956
0.0298372
0.0122329
0.000280279
2.62461e-05
3.91652e-05
2.33177e-05
2.05786e-05
2.00427e-05
3.84131e-14
2.4756e-15
1.7539e-06
1.09447e-06
3.17984e-05
5.8017e-05
8.82673e-06
4.04875e-08
8.59057e-10
7.31688e-10
1.09934e-09
0.000632671
0.00319141
0.00283121
6.84739e-08
0.000764632
0.000161798
3.13058e-06
3.76153e-06
2.25852e-06
4.80295e-06
1.39573e-05
1.57358e-05
6.45739e-13
2.53845e-07
2.38528e-06
4.53768e-06
1.28393e-05
2.53182e-06
6.17483e-07
2.69779e-06
1.35947e-05
2.81448e-05
7.80692e-05
0.000769188
0.000930957
9.85276e-07
2.11489e-07
3.43011e-06
1.61144e-07
2.70851e-07
1.07792e-06
8.32971e-08
7.03778e-08
3.60417e-07
4.94185e-07
7.82216e-08
1.35694e-06
2.45734e-06
8.06729e-07
1.17678e-06
3.16705e-09
8.63357e-09
9.44853e-07
3.26126e-06
1.34475e-05
5.65094e-05
8.98206e-05
8.6299e-09
1.04625e-08
2.65237e-07
2.65951e-07
1.44366e-07
2.06949e-08
2.87446e-08
8.74356e-08
8.88015e-08
5.62811e-08
2.33007e-08
9.68674e-07
1.68956e-06
6.27446e-07
8.48164e-08
3.7371e-07
3.19879e-09
1.57031e-08
4.19777e-08
7.83041e-08
8.79004e-07
2.38926e-06
1.57507e-08
3.86776e-08
1.59794e-07
2.63429e-07
1.29868e-07
3.21563e-08
1.99916e-08
1.33737e-08
2.56059e-08
3.55385e-08
1.08537e-08
2.52174e-09
1.67089e-06
1.77473e-06
2.65113e-07
1.26697e-07
-6.41098e-14
1.13323e-09
5.27294e-09
1.63561e-09
2.04515e-09
9.13125e-08
8.08674e-09
1.57737e-08
6.03634e-08
1.08801e-07
7.47963e-08
4.71009e-08
2.05786e-08
1.21338e-08
5.56583e-09
3.41054e-09
2.77279e-09
2.29473e-09
1.88056e-09
1.12123e-06
1.96577e-06
4.22868e-07
1.20244e-07
-9.37503e-14
6.9626e-11
6.806e-10
1.64285e-08
1.16465e-07
3.84297e-08
3.59551e-09
3.02279e-09
2.13947e-08
4.15153e-08
4.05824e-08
2.54307e-08
1.83533e-08
1.18593e-08
5.90708e-09
2.38953e-09
2.08209e-09
1.40366e-09
1.04031e-09
1.1372e-06
2.08525e-06
1.90677e-09
1.2008e-07
5.74642e-09
6.42127e-18
4.53613e-17
6.73166e-09
1.20454e-07
1.10536e-07
2.79754e-08
1.09306e-09
1.18835e-09
3.77947e-08
3.10038e-08
2.12861e-08
1.52897e-08
7.73215e-09
3.78366e-09
1.65641e-09
1.05282e-09
5.82981e-10
4.29837e-10
3.77438e-06
3.16508e-06
1.66314e-09
2.46178e-09
-1.17041e-15
1.14798e-27
2.72701e-28
5.69338e-09
1.12244e-08
8.81075e-08
3.97016e-07
1.04233e-06
1.6672e-07
1.86541e-07
4.38743e-08
2.47766e-08
1.01569e-08
4.83178e-09
2.51091e-09
8.91425e-10
5.02084e-10
2.58728e-10
1.62488e-10
1.61766e-05
1.18983e-05
3.7598e-06
2.38162e-09
2.76118e-05
5.77477e-05
3.34897e-05
2.71626e-06
1.08927e-08
1.71767e-07
3.35823e-06
4.39199e-06
3.10384e-06
7.01413e-07
6.30201e-08
1.72499e-08
6.24482e-09
2.79542e-09
1.37171e-09
5.0914e-10
2.48033e-10
7.82207e-11
4.95446e-11
6.10513e-05
0.000107304
0.00017602
0.000273605
0.000324054
0.000324388
0.000192706
6.91928e-07
3.46018e-08
2.21835e-06
4.39199e-06
4.39186e-06
4.39199e-06
6.86059e-07
8.43329e-08
1.75697e-08
4.80031e-09
1.72523e-09
7.49756e-10
2.39566e-10
8.82087e-11
3.57462e-11
1.72622e-11
2.3317e-05
8.36232e-05
0.000182301
0.000236896
0.0003015
0.000302304
0.000108723
5.93335e-09
6.3876e-08
3.34341e-06
4.39077e-06
4.39231e-06
1.63039e-06
2.34809e-07
4.29865e-08
1.0245e-08
2.86716e-09
9.4124e-10
3.45593e-10
1.01218e-10
3.79318e-11
9.87339e-12
4.01315e-12
8.14608e-06
1.10777e-05
5.29522e-05
2.60652e-05
4.24789e-13
8.82495e-06
1.96764e-05
1.12325e-11
4.70947e-08
1.69331e-06
3.44222e-06
1.87347e-06
3.49069e-07
9.27197e-08
1.82316e-08
3.70863e-09
9.80619e-10
3.27522e-10
1.15799e-10
3.39687e-11
1.16652e-11
4.58816e-12
1.57679e-12
1.50019e-06
2.66139e-13
9.01492e-19
1.10923e-18
-3.8153e-12
6.72147e-24
1.50424e-23
1.26928e-25
5.17723e-08
1.97901e-07
2.97058e-07
2.79537e-07
9.66272e-08
2.51603e-08
4.79685e-09
8.92313e-10
2.0659e-10
7.29745e-11
3.24031e-11
1.22923e-11
5.69446e-12
1.74484e-12
5.23578e-13
6.46741e-08
2.65325e-13
1.35023e-12
1.56025e-09
-1.17057e-24
-1.28283e-23
-7.93725e-24
2.30911e-11
6.69627e-08
7.55835e-08
1.57597e-07
1.35046e-07
2.83284e-08
2.48351e-09
3.70775e-10
1.50848e-10
7.59186e-11
3.86998e-11
2.0101e-11
7.87205e-12
3.20934e-12
1.12107e-12
3.08578e-13
7.69765e-07
2.64932e-06
1.75803e-06
2.54294e-08
2.60716e-09
1.09005e-08
1.23656e-08
4.15139e-08
9.65749e-08
9.68388e-08
8.86713e-08
2.59255e-08
3.27822e-09
4.39554e-10
1.64411e-10
9.64306e-11
5.60748e-11
3.04007e-11
1.53259e-11
5.66378e-12
2.31803e-12
5.59317e-13
1.33273e-13
9.33892e-06
2.82618e-05
2.55975e-05
4.47011e-07
4.76689e-09
3.0054e-08
6.69304e-08
9.8534e-08
1.01589e-07
6.66703e-08
2.20741e-08
3.26058e-09
7.62942e-10
2.13412e-10
1.3923e-10
8.85467e-11
4.90088e-11
2.44369e-11
1.163e-11
3.43668e-12
1.15044e-12
3.37219e-13
6.06911e-14
3.40201e-05
3.40233e-05
3.40201e-05
1.01061e-05
6.67033e-09
4.10987e-08
8.58694e-08
1.00937e-07
6.17293e-08
1.86172e-08
9.58064e-09
1.6633e-09
2.92507e-10
2.00898e-10
1.36739e-10
7.82702e-11
3.98427e-11
1.79762e-11
7.52002e-12
2.18227e-12
7.36068e-13
1.38451e-13
2.85649e-14
1.36143e-05
1.08698e-05
1.45227e-05
3.50988e-06
2.0598e-08
4.49966e-08
7.4513e-08
4.93977e-08
1.42205e-08
7.82165e-09
2.63316e-09
5.2866e-10
3.29028e-10
2.21558e-10
1.25408e-10
6.26786e-11
2.84272e-11
1.14942e-11
4.51707e-12
1.05653e-12
2.90286e-13
5.7213e-14
1.31929e-14
1.48441e-06
4.29181e-06
6.37651e-06
3.36139e-07
1.9858e-08
5.43061e-08
5.75739e-08
4.27891e-09
6.72387e-09
2.65647e-09
9.32732e-10
5.6689e-10
3.448e-10
1.9035e-10
9.41617e-11
4.2412e-11
1.76906e-11
6.1294e-12
2.0015e-12
5.74107e-13
1.46439e-13
2.19039e-14
3.29265e-15
8.76236e-07
2.31202e-06
4.76743e-07
8.71704e-08
3.03387e-08
8.48111e-08
5.95227e-08
3.40508e-09
3.54073e-09
1.73357e-09
9.4934e-10
5.24139e-10
2.73725e-10
1.32617e-10
6.04173e-11
2.38429e-11
9.09642e-12
3.11801e-12
9.50564e-13
2.20825e-13
4.25116e-14
7.47432e-15
1.03248e-15
8.92952e-07
2.63388e-06
1.71028e-07
2.39049e-08
3.33741e-08
9.50527e-08
4.88945e-08
4.49191e-09
2.86411e-09
1.5002e-09
7.56062e-10
3.70215e-10
1.76231e-10
8.04853e-11
3.24429e-11
1.24883e-11
4.29476e-12
1.314e-12
3.47427e-13
7.28429e-14
1.45724e-14
1.98605e-15
2.68664e-16
4.63451e-07
2.18914e-06
1.40576e-06
2.30226e-08
1.12586e-07
9.37951e-08
1.69888e-08
4.28446e-09
2.02762e-09
9.67446e-10
4.76429e-10
2.31006e-10
1.04104e-10
4.17914e-11
1.63015e-11
5.82273e-12
1.77184e-12
4.7088e-13
1.1465e-13
2.15702e-14
3.42064e-15
5.17374e-16
6.1232e-17
4.6858e-07
1.64002e-06
2.21891e-06
2.69483e-07
1.33704e-07
2.95506e-08
6.27125e-09
2.07636e-09
1.14206e-09
5.74359e-10
2.82607e-10
1.34648e-10
5.72078e-11
2.20868e-11
7.58897e-12
2.34336e-12
6.45566e-13
1.5563e-13
3.25672e-14
5.9045e-15
9.38232e-16
1.1342e-16
1.15013e-17
4.48017e-07
1.27302e-06
2.19558e-06
4.68778e-07
1.03745e-07
3.67739e-09
1.11554e-09
1.13075e-09
6.84378e-10
3.57604e-10
1.68398e-10
7.32404e-11
2.93073e-11
9.81455e-12
2.90743e-12
7.92755e-13
1.94354e-13
4.18553e-14
7.97896e-15
1.22726e-15
1.5686e-16
1.75644e-17
1.69354e-18
4.54874e-07
5.04768e-07
7.86908e-07
2.53408e-07
5.04088e-08
1.0359e-09
1.02852e-09
7.65679e-10
4.46461e-10
2.15468e-10
9.27197e-11
3.43631e-11
1.17119e-11
3.66678e-12
1.02043e-12
2.48681e-13
5.27794e-14
9.80164e-15
1.60427e-15
2.29801e-16
2.84742e-17
3.11435e-18
1.77635e-19
4.50137e-07
1.30838e-07
1.56014e-08
1.69534e-08
6.44445e-09
2.12468e-09
9.38366e-10
5.52196e-10
2.67023e-10
1.13038e-10
4.31866e-11
1.47466e-11
4.55461e-12
1.25669e-12
3.03704e-13
6.35422e-14
1.17616e-14
1.94159e-15
2.85112e-16
3.62754e-17
3.92233e-18
3.66647e-19
3.16961e-20
2.13192e-07
7.12499e-08
3.61623e-08
1.65968e-08
5.8712e-09
2.34373e-09
8.49632e-10
3.49009e-10
1.47818e-10
5.53909e-11
1.86856e-11
5.68808e-12
1.56173e-12
3.83174e-13
8.29886e-14
1.57226e-14
2.59152e-15
3.80187e-16
4.93707e-17
5.64504e-18
5.62648e-19
4.82725e-20
3.55298e-21
8.50999e-08
3.45504e-08
2.79225e-08
1.1905e-08
4.3967e-09
1.53157e-09
4.77774e-10
1.94425e-10
6.79648e-11
2.13811e-11
6.75173e-12
1.8604e-12
4.59169e-13
1.01612e-13
1.99377e-14
3.42864e-15
5.11425e-16
6.54467e-17
7.39167e-18
7.28581e-19
6.20608e-20
4.51857e-21
2.77912e-22
7.55393e-09
6.2308e-09
9.93362e-09
4.73126e-09
1.88678e-09
6.74254e-10
2.32948e-10
8.37573e-11
2.48992e-11
7.36324e-12
2.12996e-12
4.89635e-13
1.164e-13
2.36966e-14
4.20524e-15
6.55394e-16
8.86614e-17
1.02201e-17
9.84825e-19
8.24214e-20
5.89735e-21
3.55692e-22
1.7893e-23
4.22483e-09
3.19382e-09
2.93264e-09
1.57143e-09
6.5551e-10
2.33166e-10
8.43911e-11
2.46955e-11
7.51248e-12
2.18337e-12
5.05427e-13
1.2471e-13
2.64659e-14
4.88306e-15
7.94987e-16
1.1302e-16
1.3737e-17
1.40118e-18
1.17931e-19
8.0306e-21
4.66416e-22
2.25547e-23
9.0307e-25
1.46789e-09
1.31143e-09
9.56789e-10
5.07068e-10
2.03949e-10
7.40145e-11
2.54359e-11
7.79732e-12
2.13444e-12
5.59702e-13
1.34536e-13
2.44733e-14
5.2758e-15
9.27577e-16
1.24446e-16
1.70073e-17
1.88102e-18
1.69965e-19
1.24659e-20
7.22413e-22
3.21279e-23
1.15605e-24
3.26517e-26
4.41811e-10
4.70269e-10
3.01603e-10
1.48916e-10
5.81944e-11
2.09526e-11
6.79181e-12
1.97313e-12
5.094e-13
1.25509e-13
2.8251e-14
5.53039e-15
9.96289e-16
1.57037e-16
2.08643e-17
2.41687e-18
2.33016e-19
1.8389e-20
1.15648e-21
5.59153e-23
1.98006e-24
4.9803e-26
9.22245e-28
1.22367e-10
1.44775e-10
8.52897e-11
3.96165e-11
1.50942e-11
5.1847e-12
1.57859e-12
4.34553e-13
1.07546e-13
2.4847e-14
5.1867e-15
9.55119e-16
1.5535e-16
2.2037e-17
2.67193e-18
2.79622e-19
2.4641e-20
1.7221e-21
9.16991e-23
3.56006e-24
9.42404e-26
1.53775e-27
1.45054e-29
0.517294
0.499146
0.587951
0.595757
0.685184
0.765777
0.859645
0.823275
0.923066
0.925325
0.924976
0.691031
0.878844
0.665484
0.405246
0.180534
0.175755
0.0831624
0.0382055
0.0761665
0.000248519
3.3302e-07
4.6646e-05
0.0143712
3.76066e-05
4.74991e-07
3.03045e-06
3.34928e-06
5.04869e-07
8.12738e-07
1.84028e-05
2.27561e-05
2.44284e-05
2.38667e-05
6.46163e-06
1.88144e-06
1.27384e-05
4.8086e-06
1.81518e-06
9.04341e-09
1.03288e-07
2.45138e-09
2.56141e-09
4.93189e-09
2.1348e-09
2.50893e-09
6.79003e-09
1.88918e-08
2.0822e-09
1.87036e-09
1.6863e-09
1.26377e-09
1.74368e-09
1.70365e-09
1.23953e-09
1.01067e-09
9.40695e-10
6.96649e-10
5.80381e-10
5.2877e-10
3.80551e-10
2.9333e-10
2.14759e-10
1.51732e-10
1.29834e-10
9.30229e-11
5.80889e-11
2.94907e-11
2.98603e-11
1.42437e-11
8.75284e-12
4.12447e-12
6.37452e-12
2.61379e-12
1.07103e-12
8.72941e-13
1.10168e-12
3.13413e-13
3.09724e-13
3.13446e-13
1.51203e-13
9.37152e-14
8.19263e-14
9.66438e-14
3.59399e-14
1.58416e-14
2.08313e-14
2.18325e-14
4.54626e-15
3.43716e-15
4.05179e-15
5.00136e-15
2.25646e-15
3.87289e-16
7.92051e-16
7.68831e-16
1.46926e-16
1.47903e-16
1.30518e-16
1.47761e-16
1.27769e-15
3.91445e-16
8.25793e-17
3.16883e-17
3.77224e-15
7.64646e-16
1.94003e-16
3.61214e-17
9.62486e-16
2.39105e-16
5.0084e-17
7.04878e-18
2.63601e-16
5.47298e-17
1.2227e-17
2.10408e-18
2.54569e-17
1.00028e-17
2.32124e-18
2.98242e-19
8.2757e-18
2.35005e-18
4.44111e-19
6.95161e-20
1.17749e-18
2.46346e-19
4.32978e-20
5.27133e-21
2.32012e-19
3.83577e-20
6.34556e-21
9.26353e-22
3.78134e-20
5.83877e-21
8.00075e-22
8.32047e-23
1.62501e-21
4.54213e-22
6.787e-23
6.13444e-24
4.1007e-22
4.01191e-23
3.6419e-24
3.14516e-25
2.86114e-23
2.65026e-24
2.23329e-25
7.79562e-27
1.40227e-24
9.0661e-26
5.23357e-27
2.84873e-28
2.89577e-26
2.24302e-27
1.40093e-28
2.10353e-30
1.46228e-27
5.66513e-29
1.91748e-30
1.65817e-31
2.5423e-29
5.90074e-31
1.87075e-32
1.65117e-31
1.82558e-31
2.53437e-33
1.32585e-32
2.14957e-31
0.646605
0.841976
0.728128
0.445789
0.333682
0.0345537
0.0105597
0.010324
0.077442
0.298148
0.449474
0.646702
0.607983
0.493952
0.59572
0.413774
0.218448
0.217274
0.344686
0.734395
0.79993
0.625407
0.491352
0.34967
0.0850625
0.01306
0.00273704
0.00293905
0.00301408
0.00308739
0.00234215
0.0023233
5.40179e-09
0.0247746
5.92407e-07
0.00906984
0.0372088
0.221773
0.545489
0.29734
0.292505
0.177119
0.144579
0.0401214
0.012367
0.00254134
0.00394099
0.0185742
0.0184743
0.00245139
3.51731e-07
6.20913e-12
-5.86706e-25
3.35148e-07
2.80374e-07
1.16416e-05
0.00739976
0.114943
0.076008
0.0152937
0.0104559
0.00970633
0.0136688
0.00603433
0.00245011
0.00453335
0.0159068
0.0177785
0.0175557
0.00471653
0.000592543
2.64225e-24
1.0389e-05
2.30345e-05
1.26165e-09
1.19269e-09
0.0952686
0.0962861
0.0873901
0.056254
0.0604314
0.0354978
0.00384001
5.20608e-05
1.44968e-14
2.72107e-17
1.49941e-06
4.20383e-05
0.00327994
0.0003004
-1.18215e-13
-1.75024e-12
1.89133e-09
1.64356e-08
1.59902e-07
0.0596676
0.0744115
0.0352617
0.0265975
0.000436725
-3.23092e-07
3.17773e-08
6.11515e-10
-3.90946e-11
3.12222e-24
1.85044e-07
2.98305e-05
0.000152787
0.000127932
-3.93126e-11
9.39852e-09
3.12914e-10
2.45429e-10
7.27998e-10
0.00119186
0.00595301
0.00802214
2.39317e-13
2.39397e-13
2.02947e-05
3.42436e-05
2.64349e-05
8.44251e-13
1.03727e-08
8.21544e-08
3.29104e-06
1.19011e-05
1.82287e-06
3.0361e-08
4.12565e-10
4.02106e-10
1.7594e-10
5.01012e-10
1.11684e-05
1.09965e-09
1.163e-09
6.9841e-06
2.25778e-09
2.10179e-09
3.02969e-09
9.46345e-09
1.04322e-06
1.43773e-06
7.93064e-07
5.76946e-08
2.2133e-10
3.34108e-07
2.82065e-09
3.87299e-10
3.42931e-10
2.417e-11
1.32165e-10
1.64591e-07
2.7599e-07
1.40136e-09
7.90569e-09
2.26914e-08
3.26843e-08
1.03604e-08
2.41473e-11
6.33855e-11
2.58525e-08
3.85052e-08
2.22195e-10
2.57105e-10
2.19171e-09
1.63526e-11
2.82098e-11
3.71874e-11
1.57463e-11
2.55338e-12
1.07381e-08
1.32078e-08
1.20496e-09
1.44523e-08
1.05586e-07
1.20738e-07
1.06567e-07
3.87031e-08
7.0917e-09
2.41519e-10
2.40348e-10
2.3906e-10
1.59942e-10
9.78139e-11
8.99669e-11
1.07633e-10
9.23804e-11
2.7789e-11
2.82797e-12
1.60047e-08
2.59135e-08
2.2435e-08
1.46503e-08
3.90882e-08
1.14812e-07
1.31736e-07
1.31953e-07
8.09446e-08
1.42361e-08
3.20122e-09
7.59638e-10
6.16515e-10
4.44724e-10
3.66538e-10
2.48656e-10
1.68013e-10
4.48365e-11
3.42026e-12
5.50745e-08
7.51741e-08
7.51591e-08
4.0174e-08
1.71264e-08
4.72637e-09
4.47431e-08
8.10172e-08
8.1844e-08
4.44278e-08
1.40204e-08
3.2545e-09
1.02063e-09
6.59212e-10
5.19953e-10
3.25547e-10
2.03483e-10
5.16296e-11
3.6222e-12
6.33736e-10
4.65441e-09
1.00022e-08
1.21643e-08
1.03458e-08
4.74231e-09
5.33693e-10
5.36896e-10
1.33319e-08
1.07717e-08
1.02368e-08
5.73982e-09
1.77028e-09
8.25405e-10
5.5795e-10
3.04073e-10
1.96041e-10
4.66534e-11
3.55607e-12
6.32051e-10
4.66625e-10
3.3324e-10
3.38297e-10
3.70519e-10
6.20186e-10
8.04704e-10
5.54618e-10
4.92671e-10
4.93946e-10
4.92665e-10
1.23725e-09
1.47628e-09
9.41928e-10
4.82149e-10
2.31343e-10
1.36162e-10
2.69752e-11
2.54903e-12
3.97634e-10
2.26897e-10
1.65887e-10
2.20738e-10
4.79783e-10
8.23042e-10
1.17175e-09
1.28464e-09
1.20103e-09
9.23513e-10
5.67932e-10
3.89998e-10
3.91695e-10
3.59566e-10
2.63826e-10
1.50547e-10
7.87588e-11
1.33016e-11
2.2469e-12
9.36289e-11
4.78774e-11
4.35552e-11
5.58082e-11
1.32529e-10
3.57356e-10
6.34573e-10
1.08601e-09
1.15104e-09
1.03804e-09
7.12603e-10
3.45783e-10
2.35204e-10
1.8147e-10
1.25855e-10
9.04786e-11
4.27276e-11
8.42676e-12
2.16643e-12
1.5868e-11
1.02609e-11
1.16223e-11
2.41815e-11
3.42458e-11
7.7979e-11
1.83002e-10
2.97481e-10
3.56807e-10
3.21419e-10
2.54509e-10
1.79098e-10
1.25192e-10
8.91712e-11
7.17932e-11
4.90741e-11
2.12189e-11
4.46025e-12
2.13572e-12
2.46619e-12
3.00515e-12
4.50983e-12
7.61725e-12
1.3037e-11
2.8827e-11
5.29658e-11
6.66177e-11
5.85964e-11
5.53887e-11
4.96498e-11
4.73528e-11
4.97433e-11
4.87142e-11
3.80555e-11
2.49186e-11
7.19028e-12
3.10049e-12
1.92139e-12
5.238e-13
7.96023e-13
1.24796e-12
2.11982e-12
4.57845e-12
1.11264e-11
2.00279e-11
1.97577e-11
2.06404e-11
2.17942e-11
2.33382e-11
2.65899e-11
2.72742e-11
2.44951e-11
1.83209e-11
7.43103e-12
2.74681e-12
2.34901e-12
1.75973e-12
2.55696e-13
2.71983e-13
4.05929e-13
1.06535e-12
2.18804e-12
3.89085e-12
5.45106e-12
6.99753e-12
9.21578e-12
1.21195e-11
1.37696e-11
1.40865e-11
1.27831e-11
9.63885e-12
5.52659e-12
1.77488e-12
1.28783e-12
2.00619e-12
1.54101e-12
9.51553e-14
1.01097e-13
1.5549e-13
4.47966e-13
7.90618e-13
1.26084e-12
1.87064e-12
3.00409e-12
4.57935e-12
6.1069e-12
6.1997e-12
5.79994e-12
3.83398e-12
1.23232e-12
5.72807e-13
3.46836e-13
9.27317e-13
1.82725e-12
1.355e-12
2.47182e-14
2.6521e-14
4.92591e-14
1.38942e-13
2.55926e-13
3.90406e-13
7.24941e-13
1.33456e-12
2.13261e-12
2.31801e-12
2.30125e-12
1.78975e-12
5.71838e-13
9.02123e-14
4.3257e-14
1.57958e-13
8.09311e-13
1.71878e-12
1.17741e-12
4.68818e-15
5.6662e-15
1.23011e-14
3.37027e-14
6.9912e-14
1.38259e-13
2.93253e-13
5.56988e-13
6.72927e-13
7.0643e-13
4.61665e-13
1.52925e-13
2.07093e-14
1.84634e-15
1.94597e-14
1.30791e-13
6.60471e-13
1.44323e-12
1.02521e-12
8.76638e-16
1.23455e-15
3.16722e-15
1.00136e-14
2.34786e-14
5.67742e-14
1.17644e-13
1.55333e-13
1.67741e-13
1.06667e-13
3.67495e-14
5.09091e-15
4.71231e-16
9.23039e-16
1.69691e-14
1.19506e-13
5.64868e-13
1.26857e-12
8.97413e-13
1.32159e-16
2.09119e-16
8.21043e-16
3.361e-15
1.01767e-14
2.06157e-14
2.82599e-14
3.11578e-14
2.56548e-14
8.26997e-15
1.02938e-15
8.15416e-17
2.74912e-16
1.21751e-15
1.64662e-14
1.18693e-13
5.52002e-13
1.09015e-12
7.75572e-13
2.08056e-17
3.92929e-17
2.32912e-16
1.2316e-15
3.50144e-15
4.76474e-15
5.37237e-15
5.33217e-15
1.67638e-15
2.36521e-16
1.36911e-17
3.74514e-17
3.37346e-16
2.65223e-15
1.82623e-14
1.26643e-13
5.17541e-13
9.3401e-13
5.11123e-13
4.08749e-18
7.75487e-18
7.27421e-17
3.5212e-16
5.38452e-16
6.96997e-16
7.1842e-16
2.92595e-16
8.34233e-17
1.12172e-17
1.85797e-18
3.72367e-17
4.1046e-16
3.71001e-15
2.50184e-14
1.38373e-13
5.27299e-13
7.16928e-13
3.53224e-13
6.35554e-19
2.0793e-18
1.91346e-17
4.86373e-17
6.89623e-17
7.2832e-17
7.13486e-17
2.02984e-17
2.56183e-18
1.63583e-19
1.005e-18
3.86994e-17
4.37971e-16
4.19896e-15
3.57509e-14
1.88726e-13
5.17903e-13
6.09076e-13
2.25755e-13
1.63722e-19
4.6466e-19
2.79761e-18
4.72653e-18
6.72251e-18
6.95886e-18
5.90494e-18
1.16589e-18
6.72168e-20
2.6406e-20
6.00719e-19
2.58566e-17
3.45843e-16
4.3051e-15
3.90106e-14
1.97876e-13
4.7108e-13
4.4492e-13
1.48915e-13
2.04084e-20
8.92879e-20
2.89919e-19
4.37221e-19
4.91298e-19
4.85816e-19
3.2468e-19
7.65691e-20
3.97385e-21
1.99947e-20
3.63383e-19
9.45733e-18
1.64511e-16
3.28488e-15
3.35614e-14
1.54081e-13
2.97952e-13
2.87706e-13
8.77788e-14
4.76751e-21
9.25629e-21
2.06695e-20
2.91226e-20
3.03625e-20
2.33854e-20
1.10422e-20
1.52431e-21
1.19598e-21
1.46044e-20
2.30757e-19
4.87199e-18
1.2467e-16
2.62557e-15
2.12067e-14
7.80207e-14
1.43571e-13
1.19349e-13
4.28333e-14
4.46124e-22
7.68778e-22
1.27886e-21
1.60255e-21
1.44545e-21
8.81101e-22
1.92857e-22
6.50921e-23
5.90918e-22
8.06065e-21
1.18304e-19
2.86965e-18
6.16959e-17
1.32048e-15
1.04079e-14
3.05856e-14
4.71121e-14
5.13473e-14
1.71961e-14
6.49845e-23
4.43144e-23
7.14374e-23
7.54447e-23
5.46248e-23
1.84671e-23
6.08815e-24
3.08459e-23
3.07351e-22
3.37215e-21
4.46402e-20
1.32579e-18
2.9209e-17
5.25312e-16
3.68406e-15
9.79155e-15
1.46234e-14
1.27903e-14
5.66082e-15
4.53138e-24
2.78531e-24
3.34448e-24
2.93364e-24
1.43409e-24
7.90762e-25
3.55885e-24
2.15778e-23
1.3871e-22
1.07752e-21
1.18679e-20
4.1058e-19
9.77978e-18
1.45017e-16
1.02703e-15
2.15524e-15
2.75091e-15
3.05513e-15
1.41841e-15
3.63185e-25
1.22465e-25
1.17807e-25
7.38357e-26
8.91308e-26
4.74421e-25
2.96676e-24
1.60594e-23
7.32805e-23
3.30619e-22
2.02612e-21
6.17061e-20
2.05588e-18
2.6143e-17
1.94461e-16
3.82846e-16
4.89684e-16
2.79028e-16
3.47572e-16
9.80693e-27
5.47261e-27
4.39651e-27
7.89459e-27
5.74849e-26
4.0364e-25
2.37438e-24
1.11696e-23
4.21e-23
1.36201e-22
4.5272e-22
5.00969e-21
2.42911e-19
2.71873e-18
2.07345e-17
6.37902e-17
8.91282e-17
6.98466e-17
6.34894e-17
4.01478e-28
2.20315e-28
5.93573e-28
5.50042e-27
4.91449e-26
3.21808e-25
1.66351e-24
6.87714e-24
2.27394e-23
6.00957e-23
1.48808e-22
4.12269e-22
6.80372e-21
2.58631e-19
2.97879e-18
6.2926e-18
4.79029e-18
5.1932e-18
1.54659e-17
1.44199e-29
3.72436e-29
4.55051e-28
4.95341e-27
3.988e-26
2.28794e-25
1.01063e-24
3.6841e-24
1.06932e-23
2.54091e-23
5.22649e-23
9.24982e-23
3.13226e-22
1.33029e-20
2.05394e-19
3.49486e-19
3.90988e-19
1.03973e-18
3.64469e-18
2.16903e-30
3.02247e-29
4.46518e-28
4.3025e-27
2.80735e-26
1.33995e-25
5.04104e-25
1.54931e-24
3.88675e-24
8.35255e-24
1.60027e-23
2.45317e-23
3.86385e-23
2.24368e-22
6.89463e-21
1.76892e-20
3.97316e-20
2.82756e-19
1.25807e-18
1.94029e-30
3.49166e-29
4.1312e-28
3.04991e-27
1.51496e-26
5.66145e-26
1.66015e-25
3.97893e-25
8.62712e-25
1.72851e-24
2.89451e-24
4.03894e-24
5.78431e-24
4.79702e-24
4.26344e-23
7.33559e-22
9.73414e-21
7.97483e-20
3.84168e-19
2.59158e-30
3.35836e-29
2.76321e-28
1.44372e-27
5.57635e-27
1.72095e-26
4.39973e-26
9.61816e-26
1.80738e-25
3.33549e-25
5.2727e-25
7.6328e-25
1.00378e-24
6.63564e-25
8.48268e-24
1.59543e-22
1.42166e-21
1.3276e-20
4.43241e-20
2.20164e-30
1.78654e-29
9.0319e-29
3.27691e-28
9.35223e-28
2.28054e-27
5.16094e-27
1.01155e-26
1.74832e-26
2.61341e-26
3.5488e-26
4.52976e-26
5.6277e-26
2.22339e-26
1.39176e-25
4.2011e-24
6.08667e-23
3.057e-22
9.34285e-23
)
;

boundaryField
{
    leftWall
    {
        type            zeroGradient;
    }
    rightWall
    {
        type            zeroGradient;
    }
    lowerWall
    {
        type            zeroGradient;
    }
    atmosphere
    {
        type            inletOutlet;
        inletValue      uniform 0;
        value           nonuniform List<scalar> 
46
(
1.22367e-10
1.44775e-10
8.52897e-11
3.96165e-11
1.50942e-11
5.1847e-12
1.57859e-12
4.34553e-13
1.07546e-13
2.4847e-14
5.1867e-15
9.55119e-16
1.5535e-16
2.2037e-17
2.67193e-18
2.79622e-19
2.4641e-20
1.7221e-21
9.16992e-23
3.56006e-24
9.42404e-26
1.53775e-27
1.45054e-29
0
0
0
0
0
0
0
0
0
0
0
0
0
0
0
0
0
0
0
0
0
0
0
)
;
    }
    defaultFaces
    {
        type            empty;
    }
}


// ************************************************************************* //
