/*--------------------------------*- C++ -*----------------------------------*\
| =========                 |                                                 |
| \\      /  F ield         | OpenFOAM: The Open Source CFD Toolbox           |
|  \\    /   O peration     | Version:  2312                                  |
|   \\  /    A nd           | Website:  www.openfoam.com                      |
|    \\/     M anipulation  |                                                 |
\*---------------------------------------------------------------------------*/
FoamFile
{
    version     2.0;
    format      ascii;
    arch        "LSB;label=32;scalar=64";
    class       volScalarField;
    location    "1.15";
    object      alpha.oil;
}
// * * * * * * * * * * * * * * * * * * * * * * * * * * * * * * * * * * * * * //

dimensions      [0 0 0 0 0 0 0];

internalField   nonuniform List<scalar> 
2268
(
7.5275e-15
1.95868e-15
1.43076e-15
4.35255e-16
2.43824e-15
1.47591e-14
1.16345e-13
9.98816e-13
2.54047e-12
5.00666e-12
9.0628e-12
1.59268e-11
2.75936e-11
4.65006e-11
7.78889e-11
1.23352e-10
1.85005e-10
2.6522e-10
4.51127e-10
4.50069e-10
3.75505e-07
4.30517e-05
7.24351e-05
1.11384e-13
5.20789e-14
4.25236e-14
8.59618e-14
2.65534e-13
6.72471e-13
1.58742e-12
3.73134e-12
8.08245e-12
1.56381e-11
2.84489e-11
4.9413e-11
8.56246e-11
1.42863e-10
2.42641e-10
4.05245e-10
6.07315e-10
9.18297e-10
3.35976e-09
1.40149e-08
1.64156e-08
2.08128e-05
6.23372e-05
6.45509e-13
5.02078e-13
4.61119e-13
6.17112e-13
1.6829e-12
3.81292e-12
7.49691e-12
1.3599e-11
2.03846e-11
3.13127e-11
4.74656e-11
7.24831e-11
1.09825e-10
1.73483e-10
2.8346e-10
4.32402e-10
4.03816e-10
4.06808e-10
4.06933e-10
1.14684e-07
2.7091e-07
2.28825e-07
2.6011e-07
1.78244e-12
1.96795e-12
2.37269e-12
4.23531e-12
7.98846e-12
1.3605e-11
1.72573e-11
-2.06129e-14
-5.67633e-15
-9.83457e-15
-6.71053e-16
-1.44114e-17
2.73456e-21
7.03893e-14
3.45747e-09
2.13363e-08
1.85773e-07
8.94365e-07
1.36844e-06
3.28502e-24
2.34857e-15
7.62119e-10
4.86075e-09
1.43323e-11
5.83164e-12
6.76512e-12
9.7522e-12
1.24586e-11
1.52254e-11
1.84046e-13
7.47886e-09
1.30303e-07
7.25418e-07
6.12289e-06
1.99785e-05
3.03187e-05
3.43923e-05
4.70018e-05
0.00012684
0.000264382
0.00035357
0.000368864
0.000277588
0.000161953
0.000509017
0.00218386
1.26883e-10
1.13411e-11
1.06849e-11
1.14476e-11
1.12792e-11
1.00548e-11
2.56668e-13
5.59831e-16
6.10797e-16
5.82529e-06
4.64953e-05
7.62706e-05
7.9626e-05
7.83204e-05
0.000108815
0.000288069
0.000561543
0.000685907
0.000700749
0.000700921
0.000506757
0.00135664
0.0150398
1.33972e-10
2.86982e-11
1.05305e-11
7.13651e-12
4.75567e-12
1.18026e-12
1.52833e-14
5.98133e-07
1.0165e-06
4.37221e-06
1.22834e-05
1.35952e-05
1.57489e-05
1.65646e-05
1.94374e-05
2.54077e-05
2.9299e-05
6.03058e-05
0.000192735
0.000243226
0.000157008
1.71773e-05
0.0120536
4.67136e-12
4.73784e-12
4.71791e-12
4.86143e-12
3.88995e-09
1.0372e-12
2.29317e-07
1.2021e-06
1.27591e-06
1.288e-06
7.48959e-07
1.66456e-07
3.10731e-18
2.69012e-18
2.37658e-18
2.05981e-18
6.6275e-19
3.78452e-19
-5.90197e-09
4.12767e-11
7.61577e-07
1.18354e-06
-4.09895e-05
0.5968
0.596769
0.649686
0.823761
0.823534
0.819908
0.600355
0.0897639
0.0483185
0.0449775
0.0397127
0.0397371
0.0397683
0.039752
0.0424432
0.0421999
0.0231333
0.0273253
0.0874307
0.731535
0.653225
0.705064
0.82376
0.820382
0.742085
0.496901
0.371343
0.279678
0.147308
0.0630954
0.0657811
0.0804919
0.0666924
0.0311966
0.0215908
0.0155384
0.0154413
0.0868336
0.771095
0.623222
0.378406
0.627786
0.584208
0.212456
0.146996
0.15427
0.231505
0.347424
0.416121
0.469032
0.500426
0.479591
0.385289
0.356227
0.273078
0.0315819
0.064489
0.767835
0.34954
0.252825
0.140915
0.111428
0.109723
0.107702
0.18171
0.468312
0.557384
0.563767
0.563776
0.563773
0.563769
0.561943
0.518754
0.519303
0.321375
0.0527313
0.753842
0.315459
0.277469
0.109991
0.0919469
0.091125
0.151592
0.24663
0.287762
0.336054
0.465245
0.563756
0.563759
0.512565
0.188958
0.142932
0.391406
0.471906
0.0528461
0.707712
0.269867
0.445836
0.188705
0.0904577
0.0907555
0.136988
0.160109
0.0741445
0.0550503
0.133346
0.450351
0.474844
0.154504
0.0757103
0.0774122
0.11818
0.457813
0.285134
0.575409
0.182395
0.524367
0.490172
0.171994
0.220713
0.37706
0.369388
0.0550317
0.0552752
0.0730989
0.102685
0.114742
0.0885049
0.0762193
0.0905045
0.0986012
0.127325
0.603758
0.311823
0.104502
0.522929
0.524367
0.494618
0.608695
0.816726
0.666461
0.203335
0.0553775
0.0542103
0.077868
0.0904946
0.0932461
0.110471
0.121229
0.201905
0.201981
0.604394
5.1076e-07
3.40863e-07
1.58378e-08
6.80716e-13
1.93438e-13
9.30864e-09
1.9995e-07
2.33895e-07
1.84842e-07
4.00624e-08
6.82856e-11
6.22537e-11
1.3228e-11
2.81732e-10
2.77404e-10
3.82431e-13
9.51199e-06
3.74351e-05
1.75299e-05
7.64677e-07
1.00327e-06
0.1798
0.244719
2.10326e-07
1.46822e-06
6.50248e-08
5.0168e-10
2.44538e-09
1.53273e-08
1.27109e-08
6.02201e-09
1.03356e-08
8.68319e-09
5.46408e-09
2.6234e-09
1.19572e-09
4.06351e-10
2.7687e-10
0.00032852
0.000789207
0.000708947
2.0797e-05
0.186627
0.398611
0.398909
0.399152
0.00685778
-1.37867e-08
4.23778e-09
-1.9592e-08
-1.14879e-08
-6.84444e-09
-2.96599e-09
3.675e-10
1.22587e-08
1.52721e-08
1.52227e-08
5.75888e-09
1.83456e-09
2.47428e-10
1.15368e-06
2.10757e-06
0.000238215
0.000481556
0.168168
0.245855
0.243616
0.142759
0.09502
0.414953
0.0515061
-6.79197e-20
-1.56496e-08
-5.35427e-20
-1.33996e-19
3.99044e-20
2.36357e-20
3.63446e-10
-3.15502e-20
1.88131e-27
-2.03463e-28
-5.46501e-28
2.20394e-12
0.00178753
0.000424495
0.000258441
0.099993
0.192567
0.133998
0.0915062
0.0918282
0.0980006
0.695882
0.331852
0.0323074
0.000383536
0.0610581
0.162694
0.134942
0.135346
0.195704
0.152324
0.0728442
0.0891206
0.0543349
0.00238048
0.0010446
0.000513134
0.0662753
0.172468
0.141909
0.132874
0.175194
0.501104
0.689251
0.764914
0.437546
0.210703
0.211932
0.384473
0.704843
0.697764
0.682566
0.708098
0.708117
0.298339
0.204982
0.0840568
0.000697349
0.000640477
0.0737632
0.242261
0.175856
0.203709
0.566707
0.864184
0.990325
0.998943
0.708119
0.422572
0.263291
0.501011
0.805422
0.746263
0.629821
0.53468
0.410469
0.419711
0.708047
0.769712
0.455601
0.116871
0.0734877
0.155732
0.247658
0.373394
0.821202
0.994226
0.99982
0.99982
0.999724
0.62762
0.432791
0.778963
0.91395
0.863128
0.387153
0.130371
0.169382
0.750825
0.958634
0.979483
0.988668
0.763891
0.616663
0.436239
0.370585
0.521757
0.931092
0.999747
0.99982
0.99982
0.99982
0.99982
0.962766
0.753132
0.983019
0.873473
0.248869
0.193895
0.412428
0.985113
0.998779
0.999907
0.999907
0.999512
0.895266
0.709656
0.715324
0.884507
0.964904
0.999443
0.999792
0.999819
0.80951
0.556496
0.320795
0.999996
0.999996
0.970256
0.378476
0.09438
0.512743
0.999901
0.999906
0.999906
0.999901
0.999841
0.999048
0.99643
0.98147
0.965462
0.964499
0.964998
0.793385
0.53942
0.265468
0.0864747
0.0128398
1.4052e-18
0.998785
0.999996
0.885071
0.175059
0.119244
0.897757
0.999908
0.999903
0.99988
0.999858
0.999791
0.977992
0.848712
0.736862
0.619205
0.469302
0.250073
0.0774249
0.0115945
1.80307e-07
5.96907e-08
5.94855e-08
1.14173e-07
0.990938
0.999996
0.859878
0.137547
0.0673661
0.776857
0.999907
0.999906
0.920691
0.597464
0.360437
0.217045
0.128332
0.0689336
0.0275922
0.00412822
1.61419e-07
1.95544e-07
6.12327e-08
1.19984e-07
1.21419e-07
1.00302e-07
1.93824e-07
0.988788
0.999996
0.933181
0.228552
0.0155096
0.347896
0.972352
0.936379
0.283743
0.000131916
1.19169e-07
4.50405e-08
4.41189e-09
4.18735e-09
4.35507e-09
1.64749e-08
1.56145e-08
4.47099e-08
3.4937e-08
3.90478e-08
3.68771e-08
1.39479e-08
4.30942e-09
0.988932
0.999996
0.996568
0.508838
0.015509
0.0590391
0.798743
0.82055
0.0113823
2.67839e-07
2.1136e-07
1.96909e-08
4.36476e-09
4.9976e-09
9.74706e-09
8.06155e-09
6.67802e-09
6.84832e-09
4.90517e-09
3.24182e-09
1.86341e-09
1.58389e-09
1.52843e-09
0.998211
0.999996
0.999996
0.936462
0.201212
0.0488229
0.642443
0.623142
0.025356
6.77402e-07
2.17471e-07
1.95178e-08
4.74674e-09
1.04194e-08
1.09561e-08
8.12617e-09
5.46859e-09
4.41423e-09
3.44347e-09
2.24912e-09
1.87569e-09
1.50333e-09
1.3543e-09
0.999996
0.999996
0.999996
0.999995
0.882915
0.186173
0.263138
0.0579521
0.000848458
6.57097e-07
2.24087e-07
4.16169e-08
8.69526e-09
1.25322e-08
1.02135e-08
7.6872e-09
6.13606e-09
4.91976e-09
3.72561e-09
2.13854e-09
1.57394e-09
1.14954e-09
1.07207e-09
0.999996
0.999996
0.999996
0.999996
0.996241
0.72062
0.265409
3.01654e-08
4.65726e-07
1.56294e-07
5.68992e-08
4.74987e-08
1.89529e-08
1.13853e-08
8.57378e-09
8.05132e-09
6.24005e-09
4.59108e-09
3.34466e-09
1.77241e-09
1.21196e-09
8.53183e-10
8.06435e-10
0.999984
0.999988
0.999995
0.999996
0.98498
0.633104
0.133596
2.88078e-08
2.80631e-08
3.22949e-08
1.50455e-08
3.88191e-08
2.79661e-08
7.05825e-09
8.66278e-09
7.96672e-09
6.01133e-09
4.18923e-09
2.88842e-09
1.49828e-09
9.6383e-10
5.90486e-10
6.15078e-10
0.969918
0.999893
0.999824
0.999726
0.929891
0.326042
2.87921e-08
2.74666e-08
2.58129e-08
1.49834e-08
1.56756e-08
3.91273e-08
2.08429e-08
7.04118e-09
8.67458e-09
7.51998e-09
5.82464e-09
3.93744e-09
2.56386e-09
1.24587e-09
7.11685e-10
4.76814e-10
4.91941e-10
0.800169
0.993945
0.999818
0.999763
0.766421
0.105963
3.01801e-08
1.7447e-07
1.0523e-08
4.33819e-09
1.22415e-08
1.57069e-08
5.7932e-09
6.18913e-09
8.51477e-09
8.00205e-09
6.20187e-09
3.88635e-09
2.29866e-09
1.04413e-09
5.75054e-10
3.29463e-10
3.69707e-10
0.795809
0.970973
0.999817
0.823502
0.233402
8.94419e-08
6.48852e-08
2.24238e-07
1.3197e-08
1.7328e-09
5.90883e-09
1.73894e-09
2.02851e-09
4.7992e-09
1.3624e-08
1.19761e-08
7.35018e-09
3.87826e-09
2.0238e-09
8.35651e-10
4.04534e-10
2.61358e-10
2.74718e-10
0.797861
0.971653
0.736099
0.132607
3.83049e-07
1.93325e-08
1.01537e-07
1.8579e-07
8.50357e-09
1.73164e-09
1.73191e-09
1.73198e-09
1.73894e-09
2.38069e-08
2.52656e-08
1.57647e-08
7.78309e-09
3.46088e-09
1.57394e-09
5.708e-10
2.85018e-10
1.61204e-10
1.8132e-10
0.922915
0.806807
0.111307
2.0969e-09
4.66369e-07
2.23611e-08
7.19875e-08
1.2448e-07
5.43529e-09
1.73172e-09
1.73171e-09
6.11729e-08
1.08734e-07
9.15915e-08
3.6891e-08
1.81454e-08
7.27346e-09
2.69748e-09
1.073e-09
3.52134e-10
1.60289e-10
1.11725e-10
1.15761e-10
0.922915
0.616184
0.0297947
2.10623e-09
2.33151e-07
1.78151e-08
5.52654e-08
6.0711e-08
4.03291e-09
1.73171e-09
2.72103e-07
4.33434e-07
3.07114e-07
1.09419e-07
3.54012e-08
1.104e-08
4.09334e-09
1.54832e-09
5.94558e-10
1.91598e-10
9.74413e-11
5.85617e-11
6.35704e-11
0.922906
0.610723
0.0877113
2.10005e-09
4.60986e-08
9.36635e-09
1.35021e-08
1.37994e-08
1.66679e-08
3.34142e-07
5.90876e-07
5.75797e-07
2.57834e-07
4.5424e-08
1.71759e-08
6.93232e-09
2.27067e-09
7.57004e-10
2.91143e-10
8.38667e-11
4.25583e-11
3.41827e-11
3.50526e-11
0.662567
0.278403
0.0897917
1.68959e-09
7.72576e-09
9.28332e-09
1.40877e-08
6.80144e-08
3.48529e-07
6.0325e-07
6.24511e-07
3.44851e-07
5.92757e-08
1.71671e-08
8.27689e-09
2.89711e-09
9.89343e-10
3.46559e-10
1.34312e-10
4.51844e-11
2.40383e-11
1.61765e-11
1.66043e-11
-4.40815e-06
-6.86939e-08
1.68958e-09
1.73765e-09
2.40986e-09
1.61746e-08
4.11703e-08
2.37416e-07
5.21855e-07
5.58718e-07
3.47197e-07
5.72603e-08
2.14042e-08
9.88001e-09
3.58191e-09
1.23082e-09
4.46176e-10
1.65844e-10
6.67145e-11
1.99078e-11
1.00438e-11
8.14623e-12
8.06181e-12
5.07132e-06
1.70974e-08
2.98059e-08
3.46576e-08
1.31354e-09
1.8919e-08
7.11543e-08
2.67482e-07
4.06726e-07
2.65054e-07
5.32797e-08
2.50934e-08
1.12352e-08
4.09937e-09
1.49014e-09
5.56583e-10
2.15213e-10
7.52377e-11
2.6663e-11
9.93998e-12
5.05616e-12
3.29731e-12
3.15358e-12
1.13778e-05
1.84488e-08
4.13711e-08
6.78117e-08
1.35495e-09
4.52096e-09
5.64339e-08
1.74497e-07
1.42163e-07
5.19973e-08
2.56224e-08
1.19547e-08
4.6507e-09
1.73935e-09
6.83644e-10
2.54519e-10
9.82401e-11
3.55853e-11
1.21068e-11
3.88228e-12
1.77101e-12
1.41049e-12
1.18992e-12
3.91327e-05
8.93132e-06
1.02665e-14
5.32675e-08
6.15439e-10
6.14285e-09
6.00592e-08
9.07192e-08
3.88325e-08
2.44736e-08
1.22809e-08
5.1644e-09
2.06632e-09
8.41364e-10
3.21968e-10
1.24498e-10
4.45309e-11
1.4586e-11
4.40259e-12
1.38659e-12
7.38528e-13
4.81448e-13
4.10542e-13
4.87264e-05
6.2205e-05
-9.33758e-26
7.13661e-09
5.69327e-10
1.01016e-09
9.27445e-08
4.59092e-08
2.33468e-08
1.22603e-08
5.93189e-09
2.63681e-09
1.06916e-09
4.03239e-10
1.55467e-10
5.67364e-11
1.80798e-11
5.19903e-12
1.49289e-12
4.67048e-13
2.33825e-13
1.81287e-13
1.31695e-13
3.78751e-05
8.27413e-05
3.18598e-05
6.10626e-09
2.10219e-06
7.8184e-07
6.48498e-08
2.29317e-08
1.47365e-08
7.28447e-09
3.28899e-09
1.41511e-09
5.55782e-10
2.05809e-10
7.0675e-11
2.25256e-11
6.56155e-12
1.73195e-12
4.45968e-13
1.4831e-13
8.37644e-14
5.15121e-14
3.71743e-14
1.79482e-05
8.33521e-05
8.23771e-05
7.08438e-06
1.0981e-05
1.22948e-06
5.32173e-09
1.2002e-08
8.1983e-09
4.00977e-09
1.7e-09
6.76531e-10
2.58308e-10
8.63033e-11
2.6384e-11
7.59925e-12
2.00377e-12
4.83985e-13
1.22444e-13
4.1708e-14
2.26989e-14
1.53008e-14
9.51084e-15
8.69095e-07
2.78977e-05
5.11666e-05
1.48788e-05
1.05929e-05
6.18974e-07
5.27997e-09
5.56085e-09
3.90706e-09
1.83453e-09
7.4871e-10
2.72512e-10
9.47389e-11
3.10471e-11
9.17395e-12
2.39804e-12
5.55703e-13
1.19892e-13
2.9222e-14
1.1352e-14
6.72651e-15
4.04923e-15
2.24977e-15
1.03687e-08
1.05711e-08
3.98757e-07
3.68241e-06
8.03345e-07
4.48713e-08
5.12258e-09
3.35477e-09
1.67584e-09
7.21387e-10
2.87424e-10
1.04967e-10
3.51113e-11
1.05131e-11
2.75837e-12
6.29891e-13
1.30087e-13
2.65172e-14
6.94008e-15
3.00797e-15
1.69331e-15
9.68213e-16
4.97376e-16
1.03594e-08
1.20915e-08
1.28746e-08
4.1804e-09
4.11959e-09
4.00782e-09
2.65738e-09
1.4128e-09
6.90012e-10
2.95995e-10
1.14029e-10
3.92771e-11
1.20548e-11
3.27088e-12
7.79077e-13
1.6287e-13
3.05646e-14
5.95818e-15
1.6881e-15
7.92199e-16
4.29106e-16
2.12906e-16
9.72985e-17
1.07327e-08
1.8304e-08
1.69637e-08
8.09441e-09
5.41946e-09
2.28632e-09
1.17164e-09
6.43187e-10
2.90379e-10
1.12757e-10
4.15061e-11
1.31321e-11
3.66119e-12
9.0263e-13
1.95976e-13
3.74899e-14
6.5556e-15
1.26887e-15
4.02423e-16
1.90915e-16
9.44554e-17
4.23399e-17
1.68247e-17
8.73521e-09
1.36651e-08
9.31466e-09
4.94028e-09
2.69583e-09
1.19267e-09
5.88588e-10
2.84681e-10
1.12196e-10
4.04403e-11
1.37791e-11
3.68467e-12
9.82025e-13
2.21817e-13
4.36513e-14
7.65367e-15
1.28357e-15
2.751e-16
9.87411e-17
4.57963e-17
2.0168e-17
7.82294e-18
2.73291e-18
5.16021e-09
5.96126e-09
4.09888e-09
2.29763e-09
1.15855e-09
5.17475e-10
2.48317e-10
9.69907e-11
3.67903e-11
1.29738e-11
3.5627e-12
9.96443e-13
2.36248e-13
4.84563e-14
8.77568e-15
1.42684e-15
2.37955e-16
6.11515e-17
2.51715e-17
1.04591e-17
3.98943e-18
1.30837e-18
3.82236e-19
2.58667e-09
2.39438e-09
1.67593e-09
9.36604e-10
4.45233e-10
2.02494e-10
8.84379e-11
3.4099e-11
1.1585e-11
3.62697e-12
1.01261e-12
2.13082e-13
5.04311e-14
9.80273e-15
1.47975e-15
2.39326e-16
4.4102e-17
1.43727e-17
6.2661e-18
2.40715e-18
7.18697e-19
1.94134e-19
4.7059e-20
1.0356e-09
9.12697e-10
6.05742e-10
3.30135e-10
1.53832e-10
6.8191e-11
2.74559e-11
9.84972e-12
3.08909e-12
8.94359e-13
2.29909e-13
5.06519e-14
1.01105e-14
1.76332e-15
2.6446e-16
3.95674e-17
8.73394e-18
3.47259e-18
1.48745e-18
5.13346e-19
1.2959e-19
2.61193e-20
4.81445e-21
3.46129e-10
3.16374e-10
1.97345e-10
1.04417e-10
4.75714e-11
1.98619e-11
7.40179e-12
2.47437e-12
7.28748e-13
1.94252e-13
4.56973e-14
9.36681e-15
1.68476e-15
2.6525e-16
3.7479e-17
6.13006e-18
1.86267e-18
8.30395e-19
3.31368e-19
1.00327e-19
2.11223e-20
2.92306e-21
4.10245e-22
0.414159
0.407233
0.316221
0.310247
0.232119
0.137301
0.0709983
0.149874
0.0485284
0.0485642
0.0623793
0.289176
0.118848
0.327528
0.447814
0.404028
0.824232
0.876554
0.549845
0.404339
0.999731
0.985196
0.80544
0.695591
0.999817
0.999813
0.999742
0.999697
0.953629
0.839562
0.687284
0.52127
0.181347
0.102236
0.037245
0.0086019
-7.31373e-19
-9.98171e-21
-1.26579e-11
-4.59667e-21
5.07142e-08
1.79562e-07
4.09393e-07
7.25441e-07
3.58344e-07
8.25275e-07
8.09315e-07
8.71867e-07
2.63148e-09
2.75239e-09
1.39142e-09
1.34679e-09
1.49855e-09
1.42455e-09
1.1852e-09
1.18465e-09
1.32591e-09
1.3344e-09
1.44013e-09
1.47073e-09
1.06808e-09
1.10187e-09
1.25546e-09
1.38063e-09
8.45048e-10
9.33328e-10
1.12147e-09
1.31061e-09
6.87395e-10
7.84564e-10
1.00481e-09
1.22803e-09
5.58992e-10
6.6429e-10
8.32474e-10
1.07844e-09
4.30302e-10
4.85836e-10
6.5912e-10
7.76614e-10
3.12162e-10
3.65079e-10
4.06566e-10
5.1439e-10
2.05974e-10
2.17589e-10
2.5859e-10
2.74924e-10
1.25603e-10
1.34843e-10
1.32646e-10
1.47872e-10
6.87969e-11
6.79651e-11
7.31158e-11
6.73531e-11
3.65526e-11
3.63747e-11
3.29649e-11
3.32042e-11
1.68522e-11
1.57968e-11
1.57664e-11
1.32798e-11
7.92368e-12
7.35038e-12
6.06239e-12
5.56553e-12
2.94178e-12
2.52431e-12
2.34813e-12
1.76165e-12
1.13043e-12
9.44539e-13
7.29561e-13
6.14197e-13
3.43156e-13
2.8752e-13
2.41707e-13
1.64195e-13
1.11554e-13
9.00965e-14
6.35533e-14
4.79716e-14
2.83405e-14
2.09025e-14
1.60753e-14
9.54095e-15
7.07732e-15
5.10835e-15
3.30201e-15
2.17309e-15
1.56118e-15
1.00231e-15
6.74318e-16
3.79501e-16
2.91378e-16
1.88731e-16
1.15569e-16
6.49628e-17
5.32221e-17
3.02122e-17
1.80765e-17
1.02439e-17
9.12715e-18
4.85719e-18
2.64322e-18
1.61961e-18
1.23311e-18
6.12618e-19
3.39174e-19
3.43511e-19
1.51753e-19
7.42287e-20
5.17169e-20
1.29478e-19
1.77958e-20
8.63246e-21
1.38385e-20
8.89032e-20
1.69289e-21
1.47872e-21
8.82112e-21
1.09542e-19
1.76904e-22
6.1487e-22
9.18562e-21
1.28227e-19
0.22562
0.0746874
0.134532
0.359761
0.542932
0.8554
0.8554
0.8554
0.700996
0.479036
0.333058
0.269607
0.290502
0.405452
0.391459
0.582801
0.780346
0.778387
0.5845
0.241234
0.15883
0.102846
0.251821
0.596801
0.8554
0.8554
0.8554
0.8554
0.853536
0.765481
0.610146
0.578104
0.656342
0.82052
0.960369
0.960519
0.954274
0.760122
0.391421
0.387774
0.189517
0.303087
0.681697
0.847125
0.8554
0.824811
0.645823
0.386055
0.218582
0.175336
0.235091
0.46742
0.737274
0.866115
0.883275
0.908225
0.913103
0.390971
0.389942
0.45173
0.462146
0.496877
0.682982
0.679341
0.241142
0.017898
4.2025e-14
2.14732e-09
5.48917e-14
2.14734e-09
0.0848322
0.299532
0.236577
0.138653
0.24454
0.539309
0.391407
0.391035
0.614027
0.695377
0.692941
0.54179
0.062597
5.76421e-07
5.10211e-07
2.50899e-06
1.69241e-06
3.32983e-06
1.40554e-06
1.46668e-07
5.11717e-08
1.4687e-07
5.72982e-08
4.75438e-07
6.19801e-07
0.699374
0.786692
0.830756
0.8324
0.502628
0.0254574
0.000135875
0.000130232
7.81445e-05
9.67494e-06
5.316e-06
7.47821e-06
2.62559e-06
1.46669e-07
1.46668e-07
3.04982e-05
0.000354303
0.000358019
0.000176748
0.998022
0.761686
0.263339
0.048721
4.18235e-05
0.000143157
0.000379633
0.000409759
6.18235e-05
3.24614e-06
6.80715e-05
9.26466e-05
1.81567e-05
1.46668e-07
1.98063e-05
0.000309416
0.000936796
0.000869638
0.000354151
0.31299
0.0759557
6.35761e-07
6.71179e-07
0.000144242
0.000510069
0.000680338
0.000473359
3.58082e-08
3.22254e-06
0.000259009
0.00037911
0.000374234
0.000222055
0.000304456
0.00115605
0.00126349
0.00115638
0.000754526
6.14374e-08
6.03157e-08
7.1644e-07
1.01845e-06
0.000220169
0.000550612
0.000439675
3.58082e-08
3.62584e-08
1.4295e-07
1.11672e-05
4.97355e-05
9.411e-05
0.00019037
0.00067891
0.000771645
0.000446196
9.85704e-23
8.98337e-05
6.47972e-07
7.85679e-07
7.59458e-07
7.47758e-06
1.52468e-05
3.52369e-06
3.43879e-06
8.20216e-06
5.26545e-06
3.65872e-06
9.26442e-24
1.51912e-15
-6.69316e-24
-1.47792e-13
-5.86335e-27
-6.17651e-27
-2.95114e-15
6.01495e-24
2.30575e-24
1.88938e-06
2.89577e-06
3.68966e-06
4.22038e-06
5.13718e-06
7.96745e-06
3.42412e-05
0.000112303
0.000180358
0.00017701
6.64347e-05
1.52655e-06
1.7312e-08
1.57016e-08
8.44257e-09
2.36052e-09
7.39985e-11
1.87398e-06
2.17615e-06
8.04443e-07
1.82488e-07
1.39249e-07
1.00396e-05
1.19033e-05
8.89551e-06
8.85108e-06
4.52241e-05
0.000212778
0.000260143
0.000260082
0.000112564
6.79231e-08
1.24284e-08
9.68956e-09
3.11913e-09
1.57008e-10
9.5809e-05
2.93256e-05
1.18451e-09
1.52416e-09
2.6513e-09
3.01769e-08
6.71787e-06
1.14875e-05
1.15027e-05
1.98907e-06
1.45316e-06
4.54393e-05
0.000213189
0.000170599
1.03023e-05
2.84124e-09
2.78416e-09
1.17214e-09
3.54153e-05
0.000138422
3.97517e-05
1.18407e-09
3.12805e-09
9.09842e-09
1.15376e-08
9.27351e-09
4.73996e-06
1.25803e-05
1.25802e-05
4.01584e-06
1.15344e-09
1.15094e-09
8.32556e-06
1.14844e-05
9.2622e-07
1.59129e-08
1.20193e-09
0.000103829
0.000137736
2.1689e-05
1.18343e-09
5.54157e-09
2.63512e-08
3.75445e-08
2.68118e-08
1.75922e-08
6.58129e-06
1.2568e-05
1.25485e-05
1.53207e-06
1.15336e-09
1.15102e-09
1.1553e-09
1.93604e-07
1.02779e-07
1.1736e-09
6.3511e-05
6.35604e-05
3.03646e-06
1.18311e-09
7.45051e-09
5.19927e-08
8.43081e-08
6.20029e-08
1.83757e-08
2.77465e-09
6.91636e-06
6.37567e-06
9.1774e-07
1.15102e-09
1.20385e-09
1.15008e-09
1.15098e-09
1.14994e-09
1.30303e-09
1.30348e-09
1.29535e-08
1.27479e-08
1.18303e-09
6.9672e-09
6.31977e-08
9.68055e-08
9.70543e-08
3.37832e-08
2.75012e-09
7.67211e-10
7.67672e-10
2.84301e-07
1.43564e-07
5.97897e-09
1.1508e-09
1.15059e-09
1.156e-09
1.41738e-09
1.30948e-09
1.30779e-09
1.61738e-08
1.23854e-09
5.25437e-09
3.04462e-08
6.65299e-08
5.19113e-08
2.16149e-08
6.43712e-09
1.79784e-09
7.80779e-10
1.00526e-09
2.09748e-08
9.13699e-09
2.67444e-09
1.40866e-09
1.41168e-09
1.49022e-09
1.77948e-09
2.20308e-08
1.58109e-08
1.48454e-09
2.10693e-09
6.97507e-09
1.07411e-08
8.06787e-09
5.42721e-09
2.72252e-09
1.37221e-09
8.19286e-10
5.30018e-10
5.27706e-10
1.21613e-09
1.20128e-09
1.20381e-09
1.28682e-09
1.10577e-09
2.41409e-08
1.57294e-06
2.19715e-06
1.34771e-09
1.64685e-09
1.09537e-09
5.36745e-10
5.90436e-10
1.02482e-09
1.17044e-09
9.65861e-10
7.34271e-10
5.52199e-10
5.47238e-10
6.55115e-10
8.39544e-10
1.07697e-09
1.11009e-09
1.10963e-09
1.91566e-07
1.27816e-05
5.509e-06
7.26433e-10
7.41895e-10
5.6036e-10
4.50313e-10
4.68416e-10
5.81704e-10
6.31323e-10
5.75378e-10
4.88304e-10
4.34369e-10
4.62269e-10
5.92159e-10
8.50165e-10
1.11477e-09
1.11375e-09
1.10975e-09
8.29367e-06
1.37042e-05
3.56255e-06
3.33655e-10
3.28879e-10
3.04229e-10
2.81711e-10
2.87759e-10
2.92181e-10
2.80398e-10
2.53443e-10
2.32616e-10
2.55979e-10
3.74543e-10
5.93717e-10
9.09062e-10
1.19005e-09
1.11772e-09
1.11379e-09
1.35598e-05
1.37454e-05
9.99442e-07
1.41647e-10
1.32617e-10
1.17952e-10
1.12256e-10
1.06666e-10
9.87632e-11
9.20721e-11
9.10566e-11
1.13219e-10
1.95484e-10
3.87583e-10
6.70974e-10
9.94279e-10
1.33547e-09
1.47102e-09
1.11406e-09
1.01205e-05
5.83432e-06
1.14309e-07
6.57236e-11
5.47476e-11
4.26546e-11
3.80192e-11
3.28589e-11
3.12004e-11
3.23937e-11
4.44506e-11
8.68635e-11
2.06127e-10
4.54556e-10
7.84666e-10
1.07664e-09
1.52782e-09
2.95432e-09
2.9159e-08
2.56876e-07
3.77847e-08
2.80975e-08
2.60234e-11
1.96377e-11
1.48668e-11
1.12183e-11
9.73364e-12
1.02634e-11
1.53663e-11
3.31671e-11
8.81749e-11
2.41771e-10
5.44695e-10
9.2002e-10
1.15563e-09
1.58804e-09
1.30575e-08
2.55691e-08
2.2512e-08
2.25691e-08
3.11753e-08
1.06363e-11
7.23561e-12
4.76402e-12
3.42621e-12
3.22286e-12
4.86301e-12
1.12922e-11
3.18618e-11
9.86097e-11
2.82806e-10
6.41875e-10
1.06679e-09
1.24619e-09
1.46396e-09
3.51763e-08
7.98233e-08
6.28255e-08
1.14372e-07
4.47053e-08
3.53512e-12
2.30587e-12
1.46496e-12
1.07555e-12
1.3644e-12
3.26942e-12
1.00998e-11
3.29498e-11
1.10445e-10
3.23771e-10
7.38293e-10
1.22659e-09
1.3769e-09
1.3684e-09
8.953e-08
2.00337e-07
2.39382e-07
2.37359e-07
1.73584e-07
1.20258e-12
7.16238e-13
4.19736e-13
4.01105e-13
8.30023e-13
2.64937e-12
9.60534e-12
3.44478e-11
1.19994e-10
3.56237e-10
8.16872e-10
1.37479e-09
1.56702e-09
1.36866e-09
1.50647e-07
3.00854e-07
3.06395e-07
3.06759e-07
2.82028e-07
3.5068e-13
1.98506e-13
1.31465e-13
1.87288e-13
5.92152e-13
2.33889e-12
9.22983e-12
3.52095e-11
1.24943e-10
3.71252e-10
8.5785e-10
1.49267e-09
1.84449e-09
1.9655e-09
4.04699e-08
2.69495e-07
3.06072e-07
3.05311e-07
1.29364e-07
9.69219e-14
5.28224e-14
4.67136e-14
1.13366e-13
4.50296e-13
2.09672e-12
8.70308e-12
3.41026e-11
1.223e-10
3.63428e-10
8.4689e-10
1.53976e-09
2.06473e-09
2.44561e-09
1.91852e-09
8.23982e-08
2.92251e-07
2.86952e-07
2.80137e-08
2.28051e-14
1.35448e-14
2.00324e-14
7.72956e-14
3.65377e-13
1.79221e-12
7.83779e-12
3.0626e-11
1.10878e-10
3.30359e-10
7.80188e-10
1.4852e-09
2.12253e-09
1.93058e-09
8.81432e-10
6.73843e-09
1.27417e-07
6.13868e-08
2.0025e-08
4.9439e-15
3.80751e-15
1.06176e-14
5.56668e-14
2.8082e-13
1.45675e-12
6.33528e-12
2.55684e-11
9.21232e-11
2.7649e-10
6.66355e-10
1.30931e-09
1.93036e-09
1.57644e-09
8.4463e-10
8.41235e-10
2.61762e-10
5.0166e-09
8.26014e-09
9.85538e-16
1.3233e-15
6.82336e-15
3.88629e-14
2.03155e-13
1.03374e-12
4.69768e-12
1.93083e-11
7.1464e-11
2.12029e-10
5.13918e-10
1.02052e-09
1.54339e-09
1.25654e-09
7.01706e-10
2.57461e-10
2.63609e-10
3.57571e-10
6.23562e-09
2.26227e-16
6.52172e-16
4.03706e-15
2.32602e-14
1.30104e-13
6.83166e-13
3.2277e-12
1.36717e-11
4.95317e-11
1.47626e-10
3.60442e-10
6.96322e-10
1.06247e-09
8.67832e-10
5.31138e-10
2.21437e-10
2.70818e-10
1.15623e-09
5.25205e-09
6.37224e-17
3.2243e-16
2.11575e-15
1.25646e-14
7.61815e-14
4.09505e-13
2.04944e-12
9.22887e-12
3.28419e-11
9.26499e-11
2.10824e-10
3.91026e-10
5.99771e-10
5.03108e-10
3.24719e-10
1.48918e-10
2.49061e-10
1.10085e-09
4.11192e-09
2.37401e-17
1.52611e-16
1.0373e-15
6.8427e-15
4.55349e-14
2.63029e-13
1.35122e-12
5.6745e-12
1.9124e-11
5.18981e-11
1.14219e-10
1.99211e-10
2.94627e-10
2.40806e-10
1.59561e-10
7.94982e-11
1.61275e-10
5.67189e-10
1.92905e-09
9.3921e-18
6.7062e-17
5.18816e-16
4.07966e-15
3.03462e-14
1.7794e-13
8.45286e-13
3.2421e-12
9.94067e-12
2.39704e-11
5.05595e-11
8.35465e-11
1.21533e-10
9.49546e-11
6.45518e-11
2.99256e-11
6.58221e-11
2.61455e-10
9.98514e-10
3.87631e-18
3.27314e-17
3.23502e-16
2.95583e-15
2.17176e-14
1.16564e-13
4.86101e-13
1.67799e-12
4.58467e-12
1.01409e-11
1.90108e-11
2.80984e-11
3.93455e-11
2.9884e-11
1.44804e-11
7.7259e-12
2.60647e-11
1.23103e-10
3.44241e-10
1.84108e-18
2.15693e-17
2.62489e-16
2.32198e-15
1.43352e-14
6.54409e-14
2.35965e-13
6.94711e-13
1.66068e-12
3.36748e-12
5.97101e-12
8.26329e-12
1.11945e-11
6.48444e-12
2.31085e-12
1.54399e-12
6.93646e-12
4.11717e-11
1.3039e-10
1.35191e-18
2.00913e-17
2.24015e-16
1.57152e-15
7.52255e-15
2.72103e-14
7.72168e-14
1.78898e-13
3.73473e-13
7.14931e-13
1.12827e-12
1.45551e-12
1.65108e-12
7.46536e-13
1.3034e-13
1.48211e-13
1.71451e-12
1.12005e-11
3.98541e-11
1.49844e-18
1.8375e-17
1.45763e-16
7.3609e-16
2.76114e-15
8.30345e-15
2.06899e-14
4.40413e-14
8.03391e-14
1.42494e-13
2.14628e-13
2.92278e-13
2.95032e-13
9.54051e-14
1.9969e-14
3.17422e-14
2.3751e-13
1.9518e-12
3.80917e-12
1.22322e-18
9.555e-18
4.71652e-17
1.6822e-16
4.7345e-16
1.13947e-15
2.53913e-15
4.89446e-15
8.29398e-15
1.20894e-14
1.58748e-14
1.96289e-14
1.63983e-14
3.14346e-15
2.50577e-16
2.391e-16
3.75294e-15
2.14918e-14
0
)
;

boundaryField
{
    leftWall
    {
        type            zeroGradient;
    }
    rightWall
    {
        type            zeroGradient;
    }
    lowerWall
    {
        type            zeroGradient;
    }
    atmosphere
    {
        type            inletOutlet;
        inletValue      uniform 0;
        value           nonuniform List<scalar> 
46
(
3.46129e-10
3.16374e-10
1.97345e-10
1.04417e-10
4.75714e-11
1.98619e-11
7.40179e-12
2.47437e-12
7.28748e-13
1.94252e-13
4.56973e-14
9.36681e-15
1.68476e-15
2.6525e-16
3.7479e-17
6.13006e-18
1.86267e-18
8.30395e-19
3.31368e-19
1.00327e-19
2.11223e-20
2.92306e-21
4.10245e-22
0
0
0
0
0
0
0
0
0
0
0
0
0
0
0
0
0
0
0
0
0
0
0
)
;
    }
    defaultFaces
    {
        type            empty;
    }
}


// ************************************************************************* //
