/*--------------------------------*- C++ -*----------------------------------*\
| =========                 |                                                 |
| \\      /  F ield         | OpenFOAM: The Open Source CFD Toolbox           |
|  \\    /   O peration     | Version:  2312                                  |
|   \\  /    A nd           | Website:  www.openfoam.com                      |
|    \\/     M anipulation  |                                                 |
\*---------------------------------------------------------------------------*/
FoamFile
{
    version     2.0;
    format      ascii;
    arch        "LSB;label=32;scalar=64";
    class       volScalarField;
    location    "1.15";
    object      alpha.galistan;
}
// * * * * * * * * * * * * * * * * * * * * * * * * * * * * * * * * * * * * * //

dimensions      [0 0 0 0 0 0 0];

internalField   nonuniform List<scalar> 
2268
(
1
1
1
1
1
1
1
1
1
1
1
1
1
1
1
1
1
1
1
1
1
0.999957
0.999928
1
1
1
1
1
1
1
1
1
1
1
1
1
1
1
1
1
1
1
1
1
0.999979
0.999938
1
1
1
1
1
1
1
1
1
1
1
1
1
1
1
1
1
1
1
1
1
1
1
1
1
1
1
1
1
1
1
1
1
1
1
1
1
1
1
1
0.999999
0.999998
0.999991
0.999985
1
1
1
1
1
1
1
1
1
1
1
0.999999
0.999994
0.958587
0.898632
0.858486
0.838555
0.831586
0.831242
0.829573
0.828709
0.836442
0.853783
0.869659
0.872518
1
1
1
1
1
1
1
1
0.957431
0.745854
0.467684
0.264621
0.1681
0.122001
0.102454
0.0957584
0.0938554
0.0913313
0.0904891
0.0980705
0.116776
0.143922
0.143443
1
1
1
1
1
1
1
0.797835
0.361718
0.0872964
0.00268367
3.09889e-19
4.89522e-20
-7.62232e-13
-1.27481e-13
1.74781e-24
1.55904e-24
2.9547e-29
-5.04649e-29
3.00541e-29
-9.79387e-13
-2.01627e-13
-1.19618e-14
0.985633
0.932053
0.946221
0.999514
1
0.953386
0.584504
0.11056
1.8544e-14
1.24732e-13
1.66145e-14
7.84877e-12
1.08263e-11
9.46951e-12
7.37278e-12
1.0871e-11
3.82556e-11
8.37718e-11
9.94572e-11
5.94424e-11
6.71329e-10
9.05861e-11
2.44633e-28
0.373979
0.373974
0.33974
0.169703
0.166795
0.166816
0.353565
0.842368
0.892881
0.909451
0.914856
0.914877
0.914871
0.914079
0.911521
0.911197
0.93011
0.948212
0.889394
0.204019
0.200513
0.249727
0.170489
0.166843
0.174372
0.216841
0.214914
0.36005
0.722879
0.863755
0.873053
0.851311
0.847512
0.88214
0.929861
0.948663
0.948645
0.889921
0.017926
0.033283
0.0917748
0.177237
0.177114
0.176814
0.153543
0.156726
0.308549
0.619901
0.559249
0.491159
0.453469
0.495503
0.568489
0.56115
0.650248
0.902007
0.902256
0.00814019
0.00820306
0.0299288
0.111592
0.131754
0.126289
0.157573
0.325189
0.317441
0.252571
0.254703
0.306619
0.357302
0.250907
0.0891202
0.0740777
0.242329
0.502824
0.892736
0.0123897
0.0665779
0.0404741
0.049499
0.111681
0.172203
0.388986
0.388249
0.331759
0.138051
0.0719367
0.077675
0.0533718
0.0223216
0.023846
0.026361
0.0994774
0.292703
0.699402
0.0123185
0.093054
0.06771
0.0468548
0.124842
0.359706
0.38874
0.375869
0.178782
0.0693715
0.0267758
0.0166941
0.0168152
0.0226504
0.040866
0.0412066
0.0317162
0.126458
0.405567
0.0435176
0.0930382
0.0763278
0.0651385
0.250135
0.361243
0.320175
0.0476674
0.00704211
0.00794964
0.0219768
0.0167813
0.0167772
0.0293416
0.041522
0.0275467
0.0210227
0.0516425
0.168041
0.0719409
0.0722976
0.0726772
0.0877258
0.241355
0.261937
0.0686858
0.00702137
0.00703662
0.0070494
0.0070357
0.0112411
0.0259145
0.0274342
0.0102705
0.00120002
0.00120044
0.00219844
0.147166
0.448516
0.319581
0.341788
0.405198
0.36747
0.177161
0.0172963
1.84654e-10
1.82856e-10
1.94996e-10
1.92971e-10
1.49949e-10
7.75552e-11
3.32088e-11
2.66089e-11
4.98712e-11
1.23675e-10
1.82947e-10
1.82273e-10
8.72436e-12
-3.1677e-10
0.00660863
0.000599758
-2.51704e-10
-1.97752e-23
-4.53219e-07
-3.36099e-08
1.03514e-08
-6.4799e-12
3.57662e-10
5.16926e-10
6.79132e-10
6.79915e-10
5.77242e-10
3.91583e-10
2.02208e-10
1.12984e-10
6.93576e-11
7.12699e-11
1.19911e-10
9.03672e-11
9.21865e-11
0.0053189
0.0155487
0.0156149
0.0101716
-5.45671e-25
3.94074e-06
9.56793e-05
1.05517e-05
6.95989e-08
2.33066e-09
6.16662e-10
5.82054e-10
4.55781e-10
2.7006e-10
1.37742e-10
7.97588e-11
6.95398e-11
6.22684e-11
5.78452e-11
5.77147e-11
5.8051e-11
6.91942e-11
0.00410037
0.0126643
0.0160702
0.0142621
0.00235053
2.09703e-09
2.75411e-10
2.89987e-10
3.80559e-12
3.80337e-12
3.79346e-12
5.97658e-12
6.22338e-12
1.61753e-11
1.66338e-11
1.66451e-11
1.66599e-11
2.29323e-11
2.28211e-11
2.15098e-07
1.1644e-07
2.06657e-10
0.00410788
0.0117706
0.0127636
0.00634603
0.00185169
6.46123e-06
8.23291e-09
2.50896e-09
1.18035e-09
8.80155e-11
8.16822e-08
1.10754e-08
6.2232e-12
9.78498e-09
1.67691e-11
1.49652e-07
6.58695e-12
6.59337e-12
2.98845e-06
1.8918e-06
3.39924e-07
3.69216e-06
0.0021993
0.00728439
0.00817468
0.00545845
0.00064694
3.57051e-05
9.77099e-08
2.99392e-08
9.58463e-09
3.86595e-09
6.12852e-08
2.81004e-07
6.90071e-06
1.87404e-05
1.88362e-05
1.46703e-05
2.59411e-05
2.5481e-05
8.52457e-06
2.28824e-06
1.66637e-07
2.18352e-07
0.00262199
0.00359791
0.00359937
0.000100342
7.23869e-05
9.16254e-08
8.78882e-08
9.59864e-08
3.10821e-08
1.97262e-08
3.94872e-09
1.47984e-06
5.73411e-06
3.15954e-05
3.92574e-05
4.33235e-05
4.33012e-05
2.24046e-05
5.78135e-06
3.58975e-06
2.35311e-06
0.00136055
0.00287174
0.00333689
0.00333692
0.00017071
3.09323e-07
2.12253e-07
1.14536e-06
3.80186e-06
1.99405e-06
3.06503e-08
2.12755e-08
1.4501e-07
1.09916e-05
3.55118e-05
4.16116e-05
3.73523e-05
9.85892e-06
1.5946e-05
1.37882e-05
4.34144e-06
0.000134117
0.00239372
0.00333842
0.0033494
0.00250266
0.000307522
4.9136e-07
2.362e-07
1.65875e-05
2.46212e-05
1.1468e-05
1.49146e-06
1.83468e-08
1.91658e-08
5.17379e-06
3.18357e-05
3.52343e-05
1.9566e-05
2.96219e-07
1.24713e-06
1.46054e-06
3.47842e-06
3.59776e-06
0.000398761
0.00249703
0.00297062
0.00115337
0.000364704
8.73591e-05
7.08201e-05
8.07147e-05
3.00467e-05
0.000127936
0.000233479
0.000137606
1.81724e-08
2.21729e-08
1.55655e-05
3.7133e-05
3.01099e-05
1.26835e-07
1.34202e-07
1.64756e-06
4.66661e-06
9.30063e-06
6.9797e-05
0.000230004
0.000289089
0.000198393
0.000168655
0.000314179
0.00041867
0.000417298
0.000216851
4.42859e-06
0.000103968
0.000235991
0.000145866
1.81715e-08
1.44017e-07
2.0454e-05
3.72375e-05
1.38568e-05
1.00606e-09
2.54585e-06
4.45323e-06
1.69798e-05
2.45437e-05
4.1749e-05
5.71042e-05
2.95184e-05
0.000211776
0.000383274
0.000400852
0.000400756
0.000147848
7.64705e-05
4.19907e-06
3.18427e-05
5.08382e-05
1.01091e-05
1.81718e-08
2.00842e-07
1.83316e-05
2.93322e-05
9.9456e-07
1.06841e-09
4.11123e-07
3.75999e-06
6.84933e-06
5.6871e-06
1.4276e-06
1.34232e-06
2.19278e-05
0.000239998
0.00032214
0.000152885
2.5052e-05
3.03076e-08
4.20718e-10
9.21806e-07
9.75684e-11
1.94046e-10
2.88598e-07
1.81715e-08
1.82179e-08
1.13167e-05
2.76631e-05
1.15199e-06
1.00605e-09
5.63169e-08
1.87287e-07
3.703e-16
1.96189e-09
1.49294e-07
2.12651e-06
1.73265e-05
2.81805e-05
1.09682e-05
1.26188e-08
5.48783e-08
8.94289e-09
1.02662e-10
9.69943e-11
9.68265e-11
2.28844e-10
4.2911e-09
1.89729e-08
1.3185e-07
4.407e-06
2.17412e-05
1.12915e-05
4.53475e-07
1.60834e-25
-1.36498e-25
2.91103e-25
5.18748e-11
2.65353e-07
1.53442e-06
2.06196e-06
1.33339e-07
1.93129e-07
8.20301e-09
1.24582e-08
3.16227e-09
4.34079e-10
2.57275e-10
1.79599e-10
1.15943e-10
7.18166e-11
2.32505e-08
2.34191e-08
4.67345e-07
8.60045e-06
1.64927e-05
3.97485e-06
5.26081e-08
5.58818e-25
8.02148e-11
7.67286e-10
1.74581e-07
3.58386e-07
1.92515e-07
6.36314e-08
3.56651e-08
2.57808e-09
1.95218e-09
7.99927e-10
4.19014e-10
1.8126e-10
1.16815e-10
6.38062e-11
4.03183e-11
2.2337e-08
2.99702e-08
8.46387e-08
7.53427e-07
8.7206e-06
7.77606e-06
4.08058e-06
6.5086e-07
8.24748e-11
1.23413e-09
1.15273e-07
2.10141e-07
1.25072e-07
2.81422e-08
7.95568e-09
1.7112e-09
1.06465e-09
5.72855e-10
2.88283e-10
1.15363e-10
6.0812e-11
2.79008e-11
1.70356e-11
1.14898e-08
1.45899e-08
8.93391e-09
7.18764e-10
1.42203e-07
6.29052e-06
6.04974e-06
3.39101e-06
4.83483e-07
1.6497e-08
3.22473e-08
1.0868e-07
6.6487e-08
2.97261e-09
2.11939e-09
1.50952e-09
7.40738e-10
3.63519e-10
1.78417e-10
5.73978e-11
2.66422e-11
1.09181e-11
5.44111e-12
1.91109e-09
1.28746e-09
8.97322e-10
5.41962e-10
6.79232e-10
2.08677e-07
8.93113e-07
1.45843e-06
9.03238e-07
4.73378e-08
2.64627e-08
4.99665e-08
3.52561e-08
1.92503e-09
1.93827e-09
1.05988e-09
4.89049e-10
2.15555e-10
9.55041e-11
3.02176e-11
1.2168e-11
2.78805e-12
1.28633e-12
1.23392e-09
7.21237e-10
5.4718e-10
5.45059e-10
5.86261e-10
5.89815e-10
8.77527e-10
1.82935e-07
6.68059e-07
3.77407e-08
2.81514e-08
5.38128e-08
1.78481e-08
1.90691e-09
1.59332e-09
7.79709e-10
3.21434e-10
1.22526e-10
4.79905e-11
1.27724e-11
3.63623e-12
1.05784e-12
3.5243e-13
1.17838e-09
6.94798e-10
5.98653e-10
3.43457e-09
2.09378e-08
1.03541e-08
1.10784e-09
8.66828e-08
2.55294e-07
3.32512e-08
1.5098e-08
2.4205e-08
2.47713e-09
1.88997e-09
1.10526e-09
4.94072e-10
1.79506e-10
5.92293e-11
1.9084e-11
4.44259e-12
1.20619e-12
1.83485e-13
4.06089e-14
1.84405e-09
6.97939e-10
3.09443e-08
8.72783e-08
6.71098e-08
1.67861e-08
8.64703e-09
8.19602e-08
2.00136e-08
2.12364e-08
4.36931e-09
1.91035e-09
1.91907e-09
1.50121e-09
6.5163e-10
2.14591e-10
6.57789e-11
1.95717e-11
5.39615e-12
1.05737e-12
1.99136e-13
4.41402e-14
9.17489e-15
1.84602e-09
1.12615e-07
2.17977e-07
1.29184e-07
1.34554e-08
8.07988e-09
5.71797e-09
1.8829e-08
1.9938e-08
8.53674e-09
2.25723e-09
1.92865e-09
1.6662e-09
8.32657e-10
2.52179e-10
6.2831e-11
1.4561e-11
3.3944e-12
7.50411e-13
1.17836e-13
2.59512e-14
4.15437e-15
8.37489e-16
1.919e-08
4.90221e-07
3.3421e-07
8.18006e-09
3.82608e-09
1.92695e-09
2.29047e-09
7.1149e-09
1.19932e-08
4.59894e-09
2.36672e-09
1.79435e-09
9.62457e-10
2.45762e-10
4.25206e-11
9.6994e-12
2.19894e-12
4.2752e-13
8.2019e-14
1.2286e-14
2.57944e-15
7.38143e-16
1.92707e-16
1.25107e-07
5.29236e-07
2.50417e-07
2.87303e-09
2.83409e-09
1.81858e-09
1.86056e-09
2.92477e-09
1.84001e-09
3.59566e-09
1.83872e-09
1.05067e-09
2.70666e-10
4.40415e-11
7.18054e-12
1.22836e-12
2.48918e-13
5.25286e-14
1.12073e-14
1.84884e-15
5.72782e-16
1.16243e-16
2.86307e-17
2.88462e-07
5.29535e-07
4.22252e-07
6.9209e-09
2.0318e-09
2.06355e-09
1.98345e-09
1.9413e-09
1.51101e-09
1.87553e-09
9.53667e-10
3.2723e-10
6.90165e-11
6.71024e-12
1.49671e-12
3.68802e-13
7.8436e-14
1.56167e-14
3.44914e-15
4.54366e-16
1.18804e-16
3.06347e-17
5.6476e-18
4.02366e-07
3.08543e-07
4.16987e-07
1.3784e-07
1.94901e-09
2.06352e-09
2.08803e-09
1.79725e-09
1.23068e-09
7.51578e-10
4.30065e-10
1.06426e-10
8.56752e-12
1.64619e-12
5.65047e-13
1.54442e-13
3.81631e-14
8.58111e-15
1.87893e-15
2.66356e-16
5.78215e-17
7.80038e-18
1.25618e-18
1.66542e-07
3.8448e-08
1.51591e-07
6.18775e-08
1.36116e-09
2.03794e-09
1.84175e-09
1.24827e-09
7.01084e-10
3.5406e-10
1.28905e-10
1.3895e-11
3.36353e-12
1.26944e-12
4.06632e-13
1.1288e-13
2.71704e-14
5.65754e-15
1.1197e-15
1.10388e-16
1.6905e-17
1.7513e-18
3.3716e-19
2.12747e-09
3.8234e-08
7.1142e-08
8.74645e-09
3.93792e-10
1.57296e-09
1.02355e-09
5.33071e-10
3.19157e-10
1.15789e-10
2.20549e-11
7.15503e-12
2.73588e-12
9.31649e-13
2.72932e-13
6.74027e-14
1.43205e-14
2.37705e-15
3.56555e-16
5.16964e-17
6.65879e-18
5.95854e-19
4.96512e-20
1.79132e-09
1.79886e-09
3.99106e-09
1.85196e-09
3.61729e-10
6.24905e-10
5.60713e-10
2.5301e-10
1.08865e-10
3.46994e-11
1.29907e-11
5.10484e-12
1.76897e-12
5.19477e-13
1.30636e-13
2.51595e-14
4.39645e-15
7.24727e-16
1.07771e-16
1.29756e-17
1.25232e-18
1.089e-19
9.28761e-21
2.17523e-09
3.03867e-09
8.16172e-10
6.11138e-10
3.29029e-10
3.72053e-10
2.61989e-10
1.27691e-10
4.84322e-11
2.11764e-11
8.3699e-12
2.87162e-12
8.38869e-13
2.1035e-13
4.09008e-14
7.19946e-15
1.16357e-15
1.66188e-16
2.07987e-17
2.18221e-18
2.03837e-19
1.57427e-20
1.28646e-21
1.71636e-09
3.92151e-09
1.44553e-09
6.28238e-10
3.53125e-10
3.28769e-10
1.7264e-10
7.39979e-11
3.01295e-11
1.15385e-11
4.03964e-12
1.21788e-12
2.85562e-13
5.4397e-14
9.80996e-15
1.61924e-15
2.31546e-16
2.87449e-17
3.22701e-18
3.11276e-19
2.53826e-20
2.01165e-21
1.63967e-22
9.43494e-10
4.02788e-09
3.4094e-09
7.3023e-10
4.5611e-10
2.94489e-10
1.18582e-10
3.60575e-11
1.45091e-11
4.86569e-12
1.41495e-12
3.54782e-13
7.48368e-14
1.33851e-14
2.07646e-15
2.83275e-16
3.52594e-17
4.0691e-18
4.28709e-19
4.06229e-20
3.51484e-21
2.68428e-22
2.02724e-23
2.46225e-10
2.96434e-09
3.84402e-09
8.73698e-10
4.42036e-10
1.89292e-10
4.30398e-11
1.20977e-11
4.64909e-12
1.3978e-12
3.51184e-13
7.50355e-14
1.38067e-14
2.12638e-15
2.81668e-16
3.40347e-17
3.90693e-18
4.22945e-19
4.20519e-20
3.66732e-21
2.79309e-22
2.01627e-23
1.69321e-24
1.82465e-11
1.03898e-09
3.11939e-09
5.84872e-10
2.62176e-10
5.05872e-11
6.14165e-12
2.65859e-12
1.00257e-12
2.75252e-13
6.127e-14
1.12967e-14
1.77774e-15
2.47412e-16
3.16201e-17
3.84369e-18
4.27668e-19
4.23866e-20
3.74248e-21
3.0168e-22
2.3248e-23
1.8674e-24
1.22678e-25
2.19023e-12
7.26221e-11
8.21129e-10
1.4163e-10
4.17109e-11
4.07562e-12
4.36315e-13
4.16622e-13
1.53342e-13
3.89281e-14
7.95196e-15
1.38275e-15
2.15033e-16
3.06343e-17
3.92675e-18
4.36179e-19
4.26538e-20
3.69066e-21
2.90999e-22
2.19089e-23
1.65919e-24
1.35232e-25
1.58667e-26
2.78951e-13
5.65391e-12
4.86168e-11
1.19697e-11
4.22933e-12
6.91417e-13
1.18426e-13
5.75618e-14
1.94958e-14
4.76076e-15
9.67924e-16
1.73841e-16
2.80069e-17
3.97578e-18
4.8414e-19
4.98519e-20
4.35676e-21
3.43637e-22
2.54328e-23
1.87797e-24
1.4638e-25
1.23194e-26
1.50958e-27
1.07032e-13
2.46825e-12
7.12011e-12
2.89816e-12
1.03474e-12
1.79293e-13
2.17513e-14
8.15899e-15
2.4279e-15
5.59505e-16
1.24424e-16
2.33694e-17
3.71587e-18
4.98325e-19
5.60959e-20
5.32354e-21
4.32065e-22
3.0823e-23
2.12953e-24
1.51582e-25
1.14177e-26
9.22152e-28
1.28245e-28
1.64529e-14
6.1786e-13
1.47487e-12
5.3062e-13
1.77221e-13
3.01882e-14
4.68433e-15
1.26101e-15
3.11883e-16
7.77434e-17
1.76476e-17
2.87322e-18
4.52975e-19
5.73751e-20
5.93011e-21
5.15738e-22
3.88404e-23
2.64283e-24
1.71933e-25
1.18575e-26
8.47455e-28
6.49708e-29
1.08646e-29
4.54613e-15
1.94798e-13
2.26604e-13
8.43894e-14
2.60161e-14
4.44472e-15
7.63074e-16
1.37082e-16
4.23859e-17
1.10545e-17
1.98799e-18
3.66554e-19
5.28291e-20
5.99886e-21
5.63521e-22
4.52276e-23
3.22031e-24
2.14886e-25
1.41412e-26
9.05638e-28
5.81846e-29
4.31086e-30
9.30794e-31
9.33578e-16
4.6726e-14
3.40666e-14
1.32443e-14
3.55778e-15
6.09133e-16
1.10452e-16
2.6008e-17
6.44339e-18
1.54179e-18
2.89818e-19
3.65981e-20
5.31378e-21
5.69062e-22
4.29109e-23
3.48524e-24
2.52711e-25
1.72471e-26
1.15955e-27
7.16557e-29
3.85122e-30
2.90391e-31
8.61598e-32
1.51031e-16
9.67702e-15
5.45757e-15
1.98485e-15
4.63913e-16
8.22984e-17
1.60059e-17
3.85252e-18
9.1468e-19
1.96136e-19
3.3937e-20
4.49562e-21
5.20736e-22
4.98433e-23
3.88173e-24
2.87313e-25
2.01199e-26
1.40419e-27
9.36231e-29
5.30822e-30
2.62387e-31
2.1762e-32
8.38138e-33
1.97386e-17
1.75825e-15
8.46543e-16
2.72399e-16
5.89149e-17
1.10483e-17
2.24685e-18
5.25517e-19
1.16137e-19
2.22301e-20
3.45539e-21
4.26933e-22
4.40612e-23
3.83734e-24
2.90113e-25
2.0999e-26
1.5544e-27
1.13045e-28
7.12433e-30
3.49367e-31
1.81268e-32
1.74958e-33
1.08079e-33
0.0166752
0.0214001
0.0233813
0.0250992
0.00968229
0.0238615
0.0237128
0.00733683
0.000182659
0.00466799
0.00995671
0.0169786
1.32066e-06
0.00471856
0.0252432
0.0297948
1.04563e-07
0.00130159
0.0193232
0.0303237
9.76317e-08
0.000133728
0.00154247
0.00649378
1.06354e-05
1.10761e-05
6.94869e-06
7.54753e-06
1.53336e-06
1.4943e-06
0.00157608
0.00388713
1.49502e-06
0.000443335
0.00206092
0.00229143
6.01252e-05
0.000201226
0.000191203
8.81653e-06
5.45296e-06
2.91363e-06
1.15297e-08
2.82818e-10
3.49349e-09
6.42346e-11
5.71861e-11
1.1271e-09
1.54973e-10
6.3346e-11
5.07352e-11
3.19275e-11
6.10953e-11
5.34472e-11
3.38677e-11
2.64825e-11
3.39381e-11
2.37701e-11
1.74334e-11
1.44962e-11
1.39403e-11
9.74796e-12
6.25491e-12
3.86455e-12
3.80926e-12
2.33286e-12
1.21113e-12
4.70322e-13
4.83814e-13
1.46927e-13
5.80375e-14
1.4213e-14
3.92532e-14
2.94704e-15
7.88827e-16
9.62055e-16
1.35928e-15
1.46626e-16
2.86672e-16
3.79502e-16
2.32854e-17
6.01329e-17
8.73258e-17
1.33924e-16
2.2887e-17
1.76144e-17
2.7916e-17
3.26007e-17
4.92852e-18
5.07486e-18
5.40672e-18
7.66659e-18
1.724e-18
6.94257e-19
9.53664e-19
1.12547e-18
5.32331e-20
9.78007e-20
1.46462e-19
2.51948e-19
5.19731e-20
3.37343e-20
3.99091e-20
5.77998e-20
8.84403e-20
2.15755e-20
1.24666e-20
1.61963e-20
1.1421e-20
3.70255e-21
2.9178e-21
3.65714e-21
1.92483e-21
6.3307e-22
5.70328e-22
9.63888e-22
1.10102e-22
1.01997e-22
1.36712e-22
2.04665e-22
2.56532e-23
2.04622e-23
2.46536e-23
4.33492e-23
3.37043e-24
2.9157e-24
4.89011e-24
6.84648e-24
5.01899e-25
4.68202e-25
6.38387e-25
1.09167e-24
6.3703e-26
5.87943e-26
9.51969e-26
1.61235e-25
6.17882e-27
6.88258e-27
1.16041e-26
2.55226e-26
7.51653e-28
8.04938e-28
1.60207e-27
2.88344e-27
8.11238e-29
1.02516e-28
1.90118e-28
2.4955e-28
8.39392e-30
1.16449e-29
1.80522e-29
3.14789e-29
8.52237e-31
1.22668e-30
2.67094e-30
1.53089e-29
9.5031e-32
2.05471e-31
1.47719e-30
1.87256e-29
1.58763e-32
1.10234e-31
1.84321e-30
3.20525e-29
6.94197e-33
1.16339e-31
2.57757e-30
4.16139e-29
0.0343104
0.0424037
0.065738
0.107515
0.11773
0.104348
0.0783687
0.00704321
0.00704899
0.00735955
0.00708541
0.00871347
0.0263751
0.0275892
0.00121411
0.00121473
0.00120506
0.00419345
0.0671844
0.00459214
0.00483016
0.0184655
0.0684817
0.0478785
0.0485952
0.0532905
0.0198532
0.00757725
0.00964016
0.01147
0.0136387
0.0176996
0.0118686
0.00168164
0.00325735
0.00893369
0.00838013
0.0166692
0.01025
0.00430883
0.00460338
0.0133289
0.0141332
0.0122896
0.0122801
0.0126245
0.0159612
0.0162144
0.0161955
0.0161854
0.00810674
0.00208889
0.00191307
0.00820194
0.0174399
0.0193089
0.0147778
0.0282165
0.0214354
0.0186525
0.0132857
0.0132712
0.0192483
0.0135892
0.0137096
0.01328
0.0105416
0.00750783
0.00333294
0.0033642
0.00305499
0.0031237
0.0140457
0.0193226
0.0193227
0.0192515
0.0283582
0.0283608
0.0283069
0.0213951
0.0213451
0.0217943
0.0175267
0.00708252
0.000647653
2.95971e-06
2.33069e-06
1.40392e-09
9.25262e-05
0.00152982
0.00367799
0.00801112
0.0107371
0.0120834
0.0116354
0.0109549
0.0121058
0.00834186
0.00776592
0.00774811
0.00528283
2.31648e-06
1.24307e-12
6.92993e-27
-4.41634e-13
-1.18074e-26
-4.44434e-10
-1.484e-08
0.000500372
0.00137759
0.000613992
7.41422e-10
1.02858e-08
0.000124301
0.000509827
0.00968289
0.0118192
0.0116402
0.00177823
0.000245738
1.15792e-09
2.91971e-09
8.9688e-09
1.32831e-09
2.87202e-09
4.99518e-07
4.65965e-05
7.45386e-05
5.6827e-05
7.41422e-10
7.16319e-10
1.27365e-08
6.74441e-09
0.00405757
0.00404959
0.0020351
0.000219745
8.75864e-11
6.22775e-11
2.0055e-08
3.11243e-08
1.86354e-08
4.66414e-11
4.1006e-11
7.18478e-06
1.6064e-05
2.23751e-05
6.15481e-06
8.72131e-10
1.53005e-08
5.99303e-08
2.47625e-08
0.000737831
6.68341e-05
4.19272e-10
4.17048e-10
3.83323e-09
1.49613e-08
3.13502e-08
3.13484e-08
2.47064e-08
1.11355e-08
6.1122e-08
4.81895e-07
6.31769e-07
6.40393e-08
1.41759e-09
4.27721e-09
2.03226e-08
3.94878e-08
1.70435e-08
3.72127e-10
3.08847e-10
1.66521e-09
5.68633e-09
9.21586e-09
1.06683e-08
1.03351e-08
8.62092e-09
3.48819e-09
4.15238e-10
5.6659e-10
9.63744e-11
9.64529e-11
6.37491e-10
3.10129e-09
7.46845e-09
5.93872e-09
3.42647e-09
3.40787e-09
2.91337e-10
1.81685e-09
4.31941e-09
6.34021e-09
1.12198e-08
1.42891e-08
1.42437e-08
5.63835e-09
1.80336e-09
6.00797e-10
1.71553e-10
9.64532e-11
3.44838e-10
3.55169e-10
1.28509e-09
2.96472e-09
1.69473e-09
3.40873e-09
7.55701e-09
3.91804e-09
5.16837e-09
5.17836e-09
4.61909e-09
3.71077e-09
5.90875e-09
1.22847e-08
1.35676e-08
9.52211e-09
3.70771e-09
9.29212e-10
1.30375e-10
5.02178e-11
5.06979e-11
1.84949e-11
1.17614e-11
7.84718e-11
5.19393e-09
1.22737e-08
9.65339e-11
1.07204e-09
1.72518e-09
1.62197e-09
1.22748e-09
8.75781e-10
9.95954e-10
6.27691e-09
7.90948e-09
5.26808e-09
1.61793e-09
3.43138e-10
6.60238e-11
4.26742e-11
3.70052e-11
1.26128e-11
8.98759e-12
7.09829e-09
1.22797e-08
8.96918e-12
5.38564e-12
4.48861e-12
5.50614e-12
7.57209e-12
8.98237e-12
8.39475e-12
8.36877e-12
1.99756e-10
6.94405e-10
7.36325e-10
3.79073e-10
8.40534e-11
4.48154e-11
3.65758e-11
1.02721e-11
8.73427e-12
7.40866e-09
1.22737e-08
7.66999e-12
3.45915e-12
3.17134e-12
5.4664e-12
1.47355e-11
2.05644e-11
2.14539e-11
1.7566e-11
8.48627e-12
8.45326e-12
1.52196e-11
3.81326e-11
4.11327e-11
3.12563e-11
2.22983e-11
8.34573e-12
8.9134e-12
6.88053e-09
1.21723e-08
1.60712e-12
5.38484e-13
6.27953e-13
1.67385e-12
8.02979e-12
1.90161e-11
2.24725e-11
2.25691e-11
1.87867e-11
1.08423e-11
7.61372e-12
7.81112e-12
1.00002e-11
1.2685e-11
1.01254e-11
4.97753e-12
1.34245e-10
6.96973e-09
1.07838e-08
1.30502e-13
8.33139e-14
2.46558e-13
1.06426e-12
2.40441e-12
7.22599e-12
1.30955e-11
1.32835e-11
1.18799e-11
8.58858e-12
5.09476e-12
4.60239e-12
5.45021e-12
5.97246e-12
5.37995e-12
2.79582e-12
4.10234e-10
7.15979e-09
1.04943e-08
6.21325e-15
2.46963e-14
1.19625e-13
3.32848e-13
7.33055e-13
1.89787e-12
3.35877e-12
3.68257e-12
3.17608e-12
2.67361e-12
2.50294e-12
2.76664e-12
3.58879e-12
3.98045e-12
3.26971e-12
2.70892e-12
3.04816e-10
8.7046e-09
7.37251e-09
9.74227e-16
8.49442e-15
3.48107e-14
8.74875e-14
2.09947e-13
4.63063e-13
7.26923e-13
7.07696e-13
8.0851e-13
1.08814e-12
1.44569e-12
1.93046e-12
2.33095e-12
2.23872e-12
2.05738e-12
1.53023e-12
4.93528e-10
9.27767e-09
7.13107e-09
5.04886e-16
2.28632e-15
1.13424e-14
4.2733e-14
8.12027e-14
1.25376e-13
1.71055e-13
2.51382e-13
4.12444e-13
7.11781e-13
9.91742e-13
1.15016e-12
1.14051e-12
8.91027e-13
1.63249e-12
1.53132e-12
7.45877e-10
9.55247e-09
5.70927e-09
2.00783e-16
8.99163e-16
5.24333e-15
1.84014e-14
3.03094e-14
4.85414e-14
8.00915e-14
1.53561e-13
2.75073e-13
4.43812e-13
5.27336e-13
5.29324e-13
4.01448e-13
1.66612e-13
2.16664e-12
1.53023e-12
1.29247e-09
9.41045e-09
3.9088e-09
6.85382e-17
3.73677e-16
2.18832e-15
7.39574e-15
1.41494e-14
2.366e-14
4.8391e-14
9.4738e-14
1.61347e-13
2.03799e-13
2.15788e-13
1.79804e-13
1.03737e-13
9.02317e-14
2.37204e-12
1.53135e-12
1.47308e-09
8.3295e-09
2.71463e-09
1.54961e-17
1.64185e-16
8.95892e-16
2.90295e-15
6.49874e-15
1.32966e-14
2.71113e-14
4.95799e-14
6.34504e-14
6.99597e-14
4.70465e-14
2.31844e-14
8.00997e-14
1.13287e-13
1.78588e-12
1.3744e-11
2.00061e-09
4.60772e-09
1.9641e-09
4.58167e-18
6.60072e-17
3.63158e-16
1.31403e-15
3.07416e-15
6.74896e-15
1.25325e-14
1.63589e-14
1.80047e-14
1.17504e-14
3.80076e-15
1.21781e-14
1.29859e-13
1.90446e-13
1.01471e-12
1.26883e-10
2.73099e-09
3.57327e-09
1.57147e-09
1.15275e-18
1.91555e-17
1.29588e-16
5.32034e-16
1.45925e-15
2.63892e-15
3.45887e-15
3.77552e-15
3.13129e-15
9.98635e-16
5.41614e-16
1.39396e-14
2.03419e-13
2.97356e-13
3.01068e-12
2.45211e-10
2.88491e-09
3.42094e-09
1.30172e-09
3.25036e-19
5.46789e-18
4.29976e-17
2.03343e-16
5.15647e-16
6.69225e-16
7.38238e-16
7.32855e-16
2.36236e-16
4.9159e-17
4.57354e-16
1.76548e-14
2.66688e-13
5.59163e-13
9.83308e-12
3.04022e-10
2.53463e-09
2.47485e-09
5.56459e-10
7.49419e-20
1.50736e-18
1.44174e-17
6.10007e-17
8.80823e-17
1.09844e-16
1.11815e-16
4.64609e-17
1.34026e-17
2.33327e-17
5.06965e-16
2.01858e-14
3.00431e-13
7.98285e-13
2.6057e-11
3.60967e-10
1.39502e-09
9.64086e-10
2.62241e-10
2.40001e-20
5.00865e-19
4.11892e-18
9.54803e-18
1.28155e-17
1.31968e-17
1.27962e-17
3.58247e-18
1.76818e-18
2.04056e-17
5.01819e-16
1.92722e-14
2.90791e-13
1.04255e-12
4.89626e-11
4.68512e-10
8.14187e-10
6.65712e-10
1.69074e-10
6.3691e-21
1.29024e-19
6.84279e-19
1.06974e-18
1.44196e-18
1.45981e-18
1.22268e-18
2.60851e-19
1.18949e-18
1.86615e-17
3.0686e-16
9.76821e-15
1.67002e-13
1.29385e-12
5.52279e-11
3.93488e-10
6.6466e-10
4.73275e-10
1.29362e-10
1.73469e-21
2.81903e-20
8.11829e-20
1.136e-19
1.22339e-19
1.1854e-19
7.28027e-20
6.78731e-20
1.04362e-18
1.52725e-17
1.88253e-16
3.25379e-15
6.95731e-14
1.484e-12
4.41842e-11
1.96684e-10
3.75941e-10
3.27426e-10
8.59987e-11
3.4267e-22
3.37634e-21
6.68206e-21
8.79942e-21
8.88467e-21
6.56223e-21
4.46818e-21
4.16538e-20
8.11327e-19
1.12113e-17
1.25661e-16
1.7802e-15
5.34924e-14
1.55859e-12
2.29512e-11
8.13034e-11
1.45558e-10
1.14362e-10
3.90204e-11
7.39101e-23
3.2009e-22
4.71917e-22
5.56531e-22
4.92338e-22
3.80195e-22
1.72707e-21
2.84109e-20
4.87338e-19
6.43233e-18
6.70765e-17
1.11825e-15
2.33836e-14
8.44783e-13
8.42306e-12
2.34054e-11
3.40183e-11
3.86895e-11
1.19019e-11
8.4055e-24
1.974e-23
2.98411e-23
3.09713e-23
3.43922e-23
1.45232e-22
1.25447e-21
1.55702e-20
2.33601e-19
2.76392e-18
2.67022e-17
5.31514e-16
1.14012e-14
3.60579e-13
2.25071e-12
5.76043e-12
8.77696e-12
7.31616e-12
3.19235e-12
7.70104e-25
1.39086e-24
1.68966e-24
2.91507e-24
1.66148e-23
1.24614e-22
9.20475e-22
7.56631e-21
7.87487e-20
8.40027e-19
7.8313e-18
1.69416e-16
3.76091e-15
9.43605e-14
5.64375e-13
1.09543e-12
1.39628e-12
1.60418e-12
7.91146e-13
5.46442e-26
8.27518e-26
2.2073e-25
1.61019e-24
1.4472e-23
1.05796e-22
6.73569e-22
4.05421e-21
2.48959e-20
1.81162e-19
1.43395e-18
2.77112e-17
7.74726e-16
1.30731e-14
1.02749e-13
1.99968e-13
2.60193e-13
1.57251e-13
2.05572e-13
4.63483e-27
1.51851e-26
1.34807e-25
1.35994e-24
1.23761e-23
8.64775e-23
5.0852e-22
2.43213e-21
9.8991e-21
4.10515e-20
2.33248e-19
2.73324e-18
1.0226e-16
1.21179e-15
1.09909e-14
3.50495e-14
5.0178e-14
4.12501e-14
3.70708e-14
9.20027e-28
8.77297e-27
1.07165e-25
1.15024e-24
1.02014e-23
6.6412e-23
3.43426e-22
1.42859e-21
4.79369e-21
1.32794e-20
4.17994e-20
2.12462e-19
3.80109e-18
1.3103e-16
1.73441e-15
3.73906e-15
2.97117e-15
2.98605e-15
7.49125e-15
4.94414e-28
6.65874e-27
9.2829e-26
9.99096e-25
8.00415e-24
4.5829e-23
2.02835e-22
7.44659e-22
2.17868e-21
5.2193e-21
1.09982e-20
2.53791e-20
1.67176e-19
8.19192e-18
1.34222e-16
2.30769e-16
2.3583e-16
3.99511e-16
9.9996e-16
3.61688e-28
6.06878e-27
8.82365e-26
8.45028e-25
5.50126e-24
2.62568e-23
9.89842e-23
3.05749e-22
7.71209e-22
1.66487e-21
3.20227e-21
4.93018e-21
8.36246e-21
1.47379e-19
4.73084e-18
1.03458e-17
1.21112e-17
5.90454e-17
2.43648e-16
3.82706e-28
6.76281e-27
8.00427e-26
5.89458e-25
2.92602e-24
1.09375e-23
3.20998e-23
7.70336e-23
1.67482e-22
3.36571e-22
5.66284e-22
7.90958e-22
1.10709e-21
9.55875e-22
1.11654e-20
1.78254e-19
2.0326e-18
1.51268e-17
6.77553e-17
5.0062e-28
6.46203e-27
5.30797e-26
2.76714e-25
1.06758e-24
3.29439e-24
8.42439e-24
1.84286e-23
3.46625e-23
6.41906e-23
1.01793e-22
1.47969e-22
1.95837e-22
1.29463e-22
1.85404e-21
3.316e-20
2.84023e-19
2.55606e-18
7.06103e-18
4.23254e-28
3.41729e-27
1.72075e-26
6.22366e-26
1.77166e-25
4.31262e-25
9.75338e-25
1.91067e-24
3.30235e-24
4.93995e-24
6.71547e-24
8.59259e-24
1.06825e-23
4.17728e-24
2.57269e-23
7.71804e-22
1.18531e-20
6.54197e-20
1.22023e-20
)
;

boundaryField
{
    leftWall
    {
        type            zeroGradient;
    }
    rightWall
    {
        type            zeroGradient;
    }
    lowerWall
    {
        type            zeroGradient;
    }
    atmosphere
    {
        type            inletOutlet;
        inletValue      uniform 0;
        value           nonuniform List<scalar> 
46
(
1.97386e-17
1.75825e-15
8.46543e-16
2.72399e-16
5.89149e-17
1.10483e-17
2.24685e-18
5.25517e-19
1.16137e-19
2.22301e-20
3.45539e-21
4.26933e-22
4.40612e-23
3.83734e-24
2.90113e-25
2.0999e-26
1.5544e-27
1.13045e-28
7.12433e-30
3.49367e-31
1.81268e-32
1.74958e-33
1.08079e-33
0
0
0
0
0
0
0
0
0
0
0
0
0
0
0
0
0
0
0
0
0
0
0
)
;
    }
    defaultFaces
    {
        type            empty;
    }
}


// ************************************************************************* //
