/*--------------------------------*- C++ -*----------------------------------*\
| =========                 |                                                 |
| \\      /  F ield         | OpenFOAM: The Open Source CFD Toolbox           |
|  \\    /   O peration     | Version:  2312                                  |
|   \\  /    A nd           | Website:  www.openfoam.com                      |
|    \\/     M anipulation  |                                                 |
\*---------------------------------------------------------------------------*/
FoamFile
{
    version     2.0;
    format      ascii;
    arch        "LSB;label=32;scalar=64";
    class       volScalarField;
    location    "1.15";
    object      p;
}
// * * * * * * * * * * * * * * * * * * * * * * * * * * * * * * * * * * * * * //

dimensions      [1 -1 -2 0 0 0 0];

internalField   nonuniform List<scalar> 
2268
(
7851.56
7727.69
7545.81
7344.87
7125.13
6875.72
6588.34
6268.84
5935.6
5610.45
5322.91
5093.64
4925.6
4811.41
4737.55
4691.34
4663.09
4645.91
4636.36
4633.37
4635.57
4639.08
4641.37
7044.25
6923.42
6748.15
6552.3
6335.6
6086.65
5796.29
5471.33
5132.08
4801.59
4511.9
4282.96
4116.96
4005.89
3934.73
3890.67
3863.81
3847.25
3837.88
3835.21
3838.08
3842.68
3845.34
6231.84
6112.2
5948.72
5762.68
5552.16
5303.46
5006.3
4670.16
4318.36
3978.51
3684.84
3456.94
3295.3
3190.72
3125.99
3086.13
3062.01
3046.59
3037.5
3035.39
3039.7
3046.29
3049.24
5411.72
5292.92
5147.22
4977.08
4776.34
4527.78
4219.4
3865.4
3493.83
3139.37
2840.85
2615.24
2461.17
2369.17
2312.82
2277.66
2257.51
2243.74
2234.84
2233.47
2240.1
2250.07
2253.1
4585.1
4466.55
4344.15
4196.47
4010.47
3761.95
3437.27
3056.5
2655.89
2280.02
1973.3
1765.89
1645.52
1579.57
1543.37
1524.78
1513
1502.54
1493.79
1490.11
1493.49
1502.4
1503.62
3747.01
3631.18
3539.09
3425.73
3259.65
3011.08
2663.45
2240.61
1812.44
1493.06
1301.5
1210.98
1166.92
1140.8
1128.27
1118.77
1110.17
1101.75
1093.13
1083.84
1075.08
1069.61
1068.63
2882.03
2770.06
2725.79
2662.21
2525.37
2275.02
1891.97
1480.77
1216.82
1099.22
1056.07
1045.71
1040.74
1036.29
1030.6
1024.14
1016.89
1009.08
999.623
986.588
971.17
959.772
963.435
2011.86
1896.04
1905.11
1909.95
1808.24
1566.89
1262.7
1068.43
1011.96
999.982
991.791
984.629
980.035
976.215
971.731
966.276
959.538
951.353
940.495
925.773
908.848
893.992
895.749
1715.67
1712.18
1803.94
1841.07
1899.71
1929.93
2021.4
2166.51
2244.92
2401.67
2417.91
2388.71
2358.14
2341.71
2358.8
2429.03
2624.26
2914.78
3422.13
1452.45
1462.42
1527.34
1657.92
1737.29
1764.77
1765.71
1721.96
1708.87
1742.58
1693.19
1653.02
1629.42
1606.65
1604.85
1651.55
1843.74
2133.22
2688.13
1334.71
1339.62
1350.34
1473.17
1581.41
1620.18
1599.11
1530.15
1383.53
1205.27
1098.87
1081.34
1084.18
1039.38
986.078
997.262
1168.51
1403.68
1950.3
1288.84
1288.66
1260.69
1313.08
1424.9
1467.53
1436.56
1299.04
1077.44
828.145
739.57
734.126
738.272
707.574
686.382
697.685
773.9
878.778
1324.98
1238.93
1218.81
1182.04
1186.83
1267.87
1297.62
1194.24
975.29
768.741
625.463
569.069
548.539
547.247
562.427
587.24
596.557
596.105
613.303
909.536
1172.57
1114.9
1079.15
1060.89
1093.87
1039.44
870.012
629.04
511.494
487.121
476.47
467.123
475.399
494.225
502.409
501.867
488.67
475.726
634.163
1079.44
989.907
951.494
903.868
857.377
749.17
585.523
415.046
391.921
395.884
394.264
396.965
408.938
416.415
407.238
405.322
404.094
387.689
464.147
938.559
857.059
819.752
745.711
611.755
510.47
417.623
355.532
338.058
329.361
319.323
321.516
331.897
333.814
323.265
327.647
330.832
319.661
359.662
1178.55
1106.23
1119.88
1150.04
1138.2
1026.49
944.756
920.985
911.766
901.104
893.588
888.752
885.883
883.663
880.966
876.907
870.736
861.808
847.546
826.068
805.698
786.565
771.431
723.875
727.075
731.554
744.945
762.968
782.306
794.065
787.752
776.166
766.807
761.769
759.113
758.186
758.534
759.033
758.217
754.583
746.486
733.957
715.665
687.565
661.081
646.555
603.331
604.732
611.193
628.287
650.075
664.011
665.195
654.525
641.754
632.413
627.518
626.243
628.19
632.698
638.232
643.441
646.406
640.816
624.844
604.925
572.789
537.192
511.829
514.271
496.449
492.186
499.242
514.423
523.019
518.99
507.728
496.784
491.082
490.352
490.119
494.753
504.287
515.704
526.264
531.633
524.107
507.559
482.554
447.575
408.773
379.073
449.255
426.19
414.988
408.598
406.305
401.776
388.125
372.466
360.988
353.745
353.945
356.845
364.325
375.168
389.312
403.597
406.617
399.372
381.844
355.577
321.963
292.026
268.831
397.665
382.425
376.452
367.979
353.056
331.648
306.606
285.883
276.511
268.174
256.018
249.873
250.927
259.865
274.585
287.663
291.114
284.468
268.507
247.2
225.987
207.773
189.685
352.324
347.64
351.487
338.653
313.656
284.944
264.939
249.989
236.891
221.624
202.377
184.292
175.433
180.162
191.484
199.324
201.1
195.749
184.905
170.857
155.992
140.027
122.421
318.985
318.432
317.705
296.575
270.898
253.12
247.083
235.749
214.496
183.699
158.297
141.044
131.324
129.594
134.61
138.936
137.318
130.863
120.677
107.019
90.0006
71.9876
54.027
288.512
285.106
275.59
259.828
251.125
242.196
227.295
203.384
172.79
144.202
120.494
104.626
96.604
93.3746
91.5928
89.7527
84.4697
74.1785
60.3056
44.6499
29.5518
17.8185
9.4717
256.352
248.686
237.243
232.155
227.125
211.935
193.183
161.388
129.795
102.638
81.8882
67.8039
59.9601
56.0463
52.0515
45.2936
35.6233
24.9989
15.5894
6.99908
1.51283
-0.421842
-0.904654
226.637
214.361
200.652
193.903
184.893
166.954
145.723
117.019
86.2286
59.5322
42.3735
32.5187
26.1585
22.0139
18.0406
13.3239
6.58904
0.941193
-1.02006
-1.28834
-1.33445
-1.31234
-1.29901
198.704
182.942
163.333
154.217
128.108
113.922
104.21
76.5537
41.742
18.1882
9.61327
5.31874
2.44182
0.629611
-0.67896
-1.38005
-1.53354
-1.57675
-1.567
-1.52134
-1.51877
-1.51797
-1.50412
173.38
157.024
132.317
112.333
101.841
91.8709
75.941
38.8935
5.48731
-1.01275
-1.45029
-1.5456
-1.65402
-1.74922
-1.7982
-1.78324
-1.76144
-1.74161
-1.72405
-1.69752
-1.68255
-1.67231
-1.66155
150.42
136.826
114.774
87.2166
93.5044
80.6856
65.677
8.96591
-1.03222
-1.42371
-1.58677
-1.71828
-1.83582
-1.92347
-1.96346
-1.96253
-1.93878
-1.90536
-1.87666
-1.8553
-1.83686
-1.82367
-1.81291
128.688
118.667
104.613
88.2109
85.4318
67.1171
48.9444
-0.271101
-1.50873
-1.58166
-1.7356
-1.88183
-2.00074
-2.08744
-2.13062
-2.13071
-2.10325
-2.06722
-2.03593
-2.01193
-1.99298
-1.97799
-1.96514
107.24
100.45
91.7851
78.7979
59.6625
48.4542
11.5053
-1.23061
-1.95193
-1.77207
-1.89773
-2.05907
-2.17242
-2.25911
-2.30148
-2.29484
-2.2632
-2.2269
-2.1952
-2.16939
-2.14863
-2.13176
-2.11744
86.5153
82.2652
77.298
67.4488
49.4304
28.6261
-1.82836
-1.84287
-1.93715
-1.9402
-2.10708
-2.25786
-2.36133
-2.43712
-2.46751
-2.45044
-2.41515
-2.38117
-2.34987
-2.3237
-2.30198
-2.28404
-2.2689
67.4417
64.5782
59.9951
53.6678
41.016
17.4405
-0.177423
-1.63363
-1.98263
-2.13436
-2.30656
-2.45747
-2.54981
-2.60622
-2.61796
-2.59736
-2.56233
-2.5306
-2.49948
-2.47417
-2.45253
-2.4343
-2.4188
50.9314
48.9037
45.4262
38.1651
24.2935
-1.00496
-2.12287
-1.92155
-2.22384
-2.42095
-2.51579
-2.65147
-2.72295
-2.75913
-2.75792
-2.73352
-2.70314
-2.67384
-2.64598
-2.62152
-2.60039
-2.58229
-2.56668
38.1671
35.0916
31.7582
24.1459
10.6123
-1.06761
-1.95696
-2.25838
-2.55606
-2.58913
-2.71754
-2.82572
-2.87517
-2.8953
-2.88967
-2.86571
-2.83948
-2.81328
-2.78828
-2.76556
-2.74546
-2.72787
-2.71242
28.4224
24.2138
19.8565
11.1329
-1.56434
-3.06855
-2.58993
-2.67903
-2.72564
-2.78534
-2.90497
-2.98102
-3.01443
-3.02466
-3.01508
-2.99465
-2.97246
-2.94972
-2.92753
-2.90682
-2.88802
-2.8712
-2.85617
20.8524
15.9762
10.1316
-0.211908
-3.45136
-3.03593
-2.97782
-2.98666
-2.92584
-2.99939
-3.08118
-3.12592
-3.14828
-3.15136
-3.14042
-3.12287
-3.10403
-3.08434
-3.06471
-3.04593
-3.02849
-3.01257
-2.99811
12.0824
3.91618
-1.61823
-2.78112
-3.02085
-3.06023
-3.10937
-3.12347
-3.11955
-3.18884
-3.24063
-3.26746
-3.27906
-3.27789
-3.26677
-3.25159
-3.23529
-3.21802
-3.2005
-3.18343
-3.16729
-3.1523
-3.1385
1.18675
-4.71219
-2.88182
-2.90849
-2.96184
-3.09016
-3.1891
-3.25602
-3.30166
-3.35809
-3.38939
-3.40648
-3.41075
-3.40617
-3.39496
-3.38136
-3.36677
-3.35127
-3.33539
-3.31974
-3.30475
-3.29066
-3.27754
-3.93081
-8.39874
-3.05586
-3.05422
-3.11236
-3.23137
-3.33051
-3.41518
-3.47413
-3.5161
-3.53588
-3.5437
-3.54339
-3.53636
-3.52492
-3.51218
-3.49862
-3.4843
-3.46965
-3.45514
-3.44115
-3.42789
-3.41546
10.1661
2.35263
-2.89591
-3.50529
-3.41807
-3.48773
-3.54876
-3.60601
-3.64826
-3.67113
-3.68155
-3.68197
-3.6774
-3.66814
-3.65626
-3.64379
-3.63074
-3.61717
-3.6034
-3.5898
-3.57666
-3.56416
-3.55239
-5.69672
-5.75603
-5.47013
-4.52034
-3.98126
-3.83884
-3.80684
-3.81172
-3.82353
-3.82763
-3.82685
-3.82107
-3.8124
-3.80101
-3.78847
-3.77584
-3.76294
-3.74981
-3.73668
-3.72381
-3.7114
-3.6996
-3.68846
-5.52994
-5.54782
-5.47525
-4.95552
-4.39015
-4.15892
-4.05275
-4.01169
-3.99429
-3.98324
-3.97188
-3.96016
-3.9477
-3.93434
-3.92098
-3.90793
-3.89497
-3.88211
-3.86947
-3.8572
-3.84544
-3.83428
-3.82376
-5.34964
-5.36582
-5.26534
-4.97271
-4.60764
-4.38596
-4.26006
-4.19409
-4.15803
-4.13451
-4.11515
-4.09822
-4.08247
-4.06739
-4.05317
-4.03964
-4.02658
-4.01393
-4.0017
-3.98998
-3.97882
-3.96828
-3.95838
-5.20087
-5.21433
-5.14327
-4.94577
-4.7072
-4.53681
-4.42481
-4.35457
-4.31179
-4.28005
-4.25499
-4.2341
-4.21585
-4.19944
-4.18451
-4.17063
-4.15754
-4.14513
-4.13332
-4.12213
-4.11156
-4.10163
-4.09233
-5.13158
-5.13988
-5.07786
-4.94305
-4.78296
-4.65537
-4.56342
-4.49907
-4.4538
-4.41847
-4.39021
-4.36691
-4.34711
-4.32991
-4.31459
-4.30062
-4.28768
-4.2756
-4.26427
-4.25364
-4.24367
-4.23435
-4.22566
-5.11383
-5.10592
-5.05649
-4.9638
-4.85512
-4.76088
-4.6873
-4.63061
-4.5858
-4.54972
-4.52042
-4.49622
-4.47587
-4.45845
-4.44319
-4.42944
-4.41687
-4.40527
-4.39451
-4.38449
-4.37516
-4.36649
-4.35842
-5.12355
-5.10857
-5.07005
-5.00355
-4.92886
-4.86028
-4.80064
-4.75071
-4.70894
-4.67439
-4.64584
-4.62207
-4.60206
-4.585
-4.57021
-4.55702
-4.54505
-4.53411
-4.52403
-4.5147
-4.50606
-4.49806
-4.49065
-5.15141
-5.13577
-5.10756
-5.06052
-5.00459
-4.9543
-4.90544
-4.8623
-4.82514
-4.79364
-4.76713
-4.7448
-4.72588
-4.7097
-4.69571
-4.68337
-4.67225
-4.66212
-4.65284
-4.64429
-4.6364
-4.62911
-4.62239
-5.19301
-5.17895
-5.15787
-5.12503
-5.08382
-5.04393
-5.00438
-4.96827
-4.93638
-4.90877
-4.88512
-4.86493
-4.84766
-4.83281
-4.81991
-4.8086
-4.79851
-4.78935
-4.78098
-4.77329
-4.76621
-4.75969
-4.75368
-5.24509
-5.23408
-5.21647
-5.19358
-5.16249
-5.13136
-5.10016
-5.07085
-5.04438
-5.02099
-5.00062
-4.98299
-4.96775
-4.95455
-4.94303
-4.93291
-4.92394
-4.91587
-4.90851
-4.90175
-4.89555
-4.88984
-4.88459
-5.30539
-5.29684
-5.28227
-5.26535
-5.24257
-5.21886
-5.19482
-5.17175
-5.15047
-5.13132
-5.11437
-5.0995
-5.08651
-5.07517
-5.06523
-5.05648
-5.04871
-5.04177
-5.0355
-5.02975
-5.02447
-5.01961
-5.01515
-5.37212
-5.36545
-5.35425
-5.34153
-5.32519
-5.30766
-5.28967
-5.2721
-5.2556
-5.2405
-5.22694
-5.21489
-5.20427
-5.19493
-5.1867
-5.17943
-5.17297
-5.16721
-5.16204
-5.15734
-5.15303
-5.14905
-5.14541
-5.44434
-5.43942
-5.43145
-5.42218
-5.41076
-5.39831
-5.3854
-5.3726
-5.36041
-5.34909
-5.33879
-5.32955
-5.32133
-5.31405
-5.30761
-5.30191
-5.29683
-5.29231
-5.28825
-5.2846
-5.28132
-5.2782
-5.2754
-5.52161
-5.51821
-5.51295
-5.50667
-5.49915
-5.4909
-5.48227
-5.47363
-5.4653
-5.45748
-5.45029
-5.44379
-5.43796
-5.43276
-5.42815
-5.42406
-5.42041
-5.41716
-5.41424
-5.4116
-5.40918
-5.40706
-5.40516
-5.60297
-5.60095
-5.59792
-5.59423
-5.58992
-5.58521
-5.58027
-5.5753
-5.57047
-5.5659
-5.56167
-5.55782
-5.55435
-5.55125
-5.54849
-5.54603
-5.54385
-5.5419
-5.54016
-5.53859
-5.53719
-5.53598
-5.53485
-5.68756
-5.68681
-5.68567
-5.68424
-5.68266
-5.68099
-5.6793
-5.67762
-5.67601
-5.67448
-5.67307
-5.67178
-5.67062
-5.66958
-5.66866
-5.66784
-5.66711
-5.66646
-5.66588
-5.66537
-5.66494
-5.6646
-5.66429
750.5
738.336
704.112
665.254
634.397
621.411
602.575
579.489
488.916
470.355
451.431
433.622
354.354
336.786
320.499
310.715
252.277
241.157
231.192
224.483
176.265
167.499
158.496
149.887
108.748
99.8814
91.3484
82.3522
41.6006
33.9971
27.5837
22.0501
4.94494
2.9938
1.81964
0.902369
-1.00714
-1.05072
-1.13166
-1.1861
-1.32461
-1.35188
-1.36837
-1.36919
-1.50544
-1.50875
-1.51057
-1.51018
-1.65611
-1.65303
-1.65058
-1.64903
-1.80613
-1.80245
-1.79943
-1.79699
-1.95756
-1.95346
-1.94979
-1.94659
-2.10925
-2.10468
-2.10043
-2.09663
-2.26014
-2.25511
-2.2504
-2.24609
-2.40956
-2.40416
-2.39906
-2.39438
-2.55711
-2.55146
-2.54615
-2.54122
-2.70275
-2.69699
-2.69156
-2.6865
-2.84657
-2.84082
-2.8354
-2.83032
-2.98875
-2.98311
-2.97776
-2.97273
-3.12943
-3.12396
-3.11878
-3.11387
-3.26885
-3.26358
-3.25857
-3.25382
-3.40715
-3.4021
-3.39732
-3.39276
-3.5445
-3.53969
-3.53511
-3.53075
-3.68096
-3.67639
-3.67205
-3.6679
-3.81666
-3.81233
-3.8082
-3.80426
-3.95166
-3.94757
-3.94368
-3.93996
-4.08604
-4.08218
-4.07851
-4.07501
-4.21978
-4.21618
-4.21276
-4.20948
-4.35295
-4.3496
-4.34642
-4.34339
-4.48561
-4.48253
-4.47962
-4.47684
-4.61782
-4.61502
-4.61237
-4.60985
-4.7496
-4.7471
-4.74474
-4.7425
-4.88102
-4.87882
-4.87676
-4.87481
-5.01211
-5.01025
-5.00851
-5.00685
-5.14294
-5.14142
-5.13999
-5.13863
-5.2735
-5.27233
-5.27124
-5.2702
-5.40385
-5.40304
-5.40228
-5.40157
-5.53408
-5.53361
-5.5332
-5.53281
-5.66413
-5.66405
-5.66398
-5.66394
700.535
670.127
611.232
508.631
374.935
320.275
300.21
289.743
268.527
248.328
229.203
215.16
213.977
220.227
228.69
242.274
253.449
251.234
261.226
540.214
474.602
393.776
288.847
197.99
169.563
173.831
186.483
173.395
149.757
127.461
110.009
104.941
115.66
135.919
154.834
169.939
172.565
168.804
403.707
349.204
285.089
195.19
136.778
107.234
95.54
91.7249
78.0457
61.6278
48.8879
38.1685
36.3844
47.022
67.4806
83.2298
93.7584
99.8311
99.7356
298.633
268.432
225.322
166.174
122.818
82.4077
48.918
29.5271
15.7847
10.2673
7.54729
3.95491
5.3406
11.841
20.7494
29.8314
34.8237
38.5504
41.9063
212.862
191.61
161.159
118.341
72.9715
37.7642
14.2229
5.40383
0.339422
-0.203078
-0.118869
-0.0544435
0.291186
2.08872
4.32385
5.83498
8.34699
9.62263
9.18727
135.39
111.753
79.6386
50.6431
21.2528
3.68046
-0.397978
-0.451475
-0.412542
-0.42615
-0.360487
-0.283285
-0.26195
-0.0814209
0.283451
-0.466977
-0.727262
-0.68971
-0.668814
65.9297
41.9438
21.2252
9.78339
0.763216
-0.589385
-0.499809
-0.577681
-0.579976
-0.557745
-0.545142
-0.525441
-0.562776
-0.739907
-0.89058
-0.933485
-0.878781
-0.846736
-0.882404
13.1208
4.8195
0.632991
-0.683506
-0.74952
-0.814423
-0.769497
-0.760348
-0.740803
-0.728983
-0.733814
-0.757675
-0.831002
-0.9459
-1.02576
-1.06408
-1.04425
-1.02412
-1.03505
-0.494552
-0.922871
-0.99657
-1.01026
-1.01076
-0.985719
-0.946103
-0.922298
-0.898584
-0.894205
-0.915848
-0.963336
-1.03639
-1.11776
-1.18145
-1.22066
-1.21712
-1.18969
-1.18234
-1.21039
-1.20123
-1.20392
-1.18255
-1.16267
-1.14603
-1.11669
-1.08598
-1.06601
-1.06269
-1.08317
-1.13007
-1.19259
-1.25749
-1.31202
-1.34152
-1.34033
-1.31198
-1.30501
-1.36474
-1.3522
-1.34186
-1.33005
-1.31524
-1.29784
-1.27713
-1.25669
-1.24084
-1.23827
-1.25191
-1.28848
-1.33438
-1.38126
-1.41966
-1.44138
-1.44332
-1.42874
-1.42137
-1.50664
-1.49658
-1.48803
-1.47707
-1.46461
-1.45081
-1.43695
-1.42597
-1.419
-1.41777
-1.42426
-1.44604
-1.47823
-1.50994
-1.53492
-1.54872
-1.54987
-1.54204
-1.53679
-1.64637
-1.63929
-1.63161
-1.62287
-1.61296
-1.60232
-1.59251
-1.58615
-1.5852
-1.58759
-1.59329
-1.60419
-1.62196
-1.64151
-1.65707
-1.6652
-1.66474
-1.66023
-1.65634
-1.79275
-1.78512
-1.77777
-1.76995
-1.76162
-1.75317
-1.74553
-1.74025
-1.73878
-1.74151
-1.7482
-1.75552
-1.76421
-1.77542
-1.7847
-1.78923
-1.78823
-1.78536
-1.78153
-1.94124
-1.93295
-1.9254
-1.91788
-1.91028
-1.90299
-1.89663
-1.89185
-1.88968
-1.89053
-1.8941
-1.89912
-1.90491
-1.91124
-1.91648
-1.91881
-1.91844
-1.91565
-1.91117
-2.09038
-2.08143
-2.07344
-2.06584
-2.0585
-2.05165
-2.04578
-2.04128
-2.03854
-2.03781
-2.03919
-2.04194
-2.04528
-2.04871
-2.05127
-2.05186
-2.0507
-2.04776
-2.0439
-2.23911
-2.22956
-2.22107
-2.21323
-2.20588
-2.19914
-2.19331
-2.18871
-2.18546
-2.18371
-2.18355
-2.18454
-2.18606
-2.18756
-2.18832
-2.18757
-2.18509
-2.18211
-2.17925
-2.38684
-2.37678
-2.36785
-2.35972
-2.35224
-2.34547
-2.33955
-2.33469
-2.33099
-2.32855
-2.32734
-2.32706
-2.32727
-2.32746
-2.32706
-2.32547
-2.32249
-2.31944
-2.31684
-2.53329
-2.52286
-2.51357
-2.50519
-2.49757
-2.4907
-2.48468
-2.47961
-2.47557
-2.4726
-2.47064
-2.46948
-2.46877
-2.46809
-2.46694
-2.46487
-2.46169
-2.45858
-2.45612
-2.67837
-2.66771
-2.65819
-2.64963
-2.6419
-2.63496
-2.62885
-2.62363
-2.61934
-2.61599
-2.61352
-2.61175
-2.61042
-2.60916
-2.60756
-2.60522
-2.60197
-2.59902
-2.59667
-2.82212
-2.81137
-2.80174
-2.79309
-2.7853
-2.77833
-2.77217
-2.76686
-2.76241
-2.7588
-2.75598
-2.75381
-2.75208
-2.75047
-2.74862
-2.74619
-2.74301
-2.74035
-2.73803
-2.9646
-2.9539
-2.94428
-2.93563
-2.92786
-2.9209
-2.91474
-2.9094
-2.90485
-2.90108
-2.89804
-2.89562
-2.89364
-2.89185
-2.8899
-2.88751
-2.88456
-2.88207
-2.87969
-3.10589
-3.09536
-3.08585
-3.0773
-3.06961
-3.06272
-3.05661
-3.05127
-3.04669
-3.04285
-3.03968
-3.03712
-3.03502
-3.03317
-3.03125
-3.02896
-3.02632
-3.02387
-3.02144
-3.2461
-3.23584
-3.22653
-3.21814
-3.21059
-3.20382
-3.1978
-3.19253
-3.18797
-3.1841
-3.18089
-3.17828
-3.17616
-3.17434
-3.1725
-3.17032
-3.1678
-3.16538
-3.16314
-3.38531
-3.37539
-3.36635
-3.35819
-3.35084
-3.34423
-3.33835
-3.33318
-3.32869
-3.32486
-3.32167
-3.31907
-3.31699
-3.31527
-3.31355
-3.31148
-3.30897
-3.30669
-3.3047
-3.52362
-3.51409
-3.50538
-3.4975
-3.49039
-3.48399
-3.47829
-3.47326
-3.46888
-3.46513
-3.462
-3.45946
-3.45746
-3.45586
-3.4543
-3.45237
-3.44997
-3.44785
-3.44606
-3.6611
-3.652
-3.64366
-3.63611
-3.62928
-3.62313
-3.61764
-3.61278
-3.60855
-3.60492
-3.60188
-3.59943
-3.59751
-3.59604
-3.59462
-3.59286
-3.59061
-3.58871
-3.58712
-3.79783
-3.78919
-3.78126
-3.77407
-3.76756
-3.76169
-3.75644
-3.7518
-3.74773
-3.74425
-3.74132
-3.73896
-3.73712
-3.73576
-3.73444
-3.73284
-3.73079
-3.72916
-3.72779
-3.93387
-3.92572
-3.91823
-3.91143
-3.90527
-3.89971
-3.89474
-3.89033
-3.88647
-3.88314
-3.88034
-3.87809
-3.8763
-3.87503
-3.87373
-3.87229
-3.87049
-3.86916
-3.868
-4.06929
-4.06165
-4.05463
-4.04824
-4.04246
-4.03724
-4.03257
-4.02842
-4.02478
-4.02164
-4.01897
-4.01684
-4.01505
-4.01394
-4.01258
-4.0113
-4.00975
-4.00873
-4.00776
-4.20413
-4.19703
-4.1905
-4.18456
-4.17918
-4.17433
-4.16998
-4.16612
-4.16272
-4.15978
-4.15723
-4.15532
-4.15362
-4.15238
-4.15111
-4.14997
-4.1487
-4.14795
-4.14715
-4.33846
-4.33192
-4.32591
-4.32044
-4.31549
-4.31102
-4.30702
-4.30346
-4.30033
-4.29762
-4.29528
-4.29341
-4.29183
-4.29059
-4.2894
-4.28846
-4.28742
-4.28687
-4.28622
-4.47232
-4.46637
-4.4609
-4.45592
-4.45142
-4.44736
-4.44372
-4.44049
-4.43763
-4.43518
-4.43304
-4.43129
-4.4298
-4.42861
-4.42752
-4.42678
-4.42588
-4.4255
-4.42499
-4.60578
-4.60043
-4.59552
-4.59106
-4.58702
-4.58339
-4.58013
-4.57724
-4.57468
-4.57248
-4.57055
-4.56893
-4.56754
-4.56644
-4.56546
-4.56487
-4.5641
-4.56382
-4.5634
-4.73888
-4.73415
-4.72982
-4.72589
-4.72234
-4.71915
-4.71629
-4.71375
-4.7115
-4.70955
-4.70782
-4.70636
-4.70508
-4.70406
-4.7032
-4.70268
-4.70202
-4.70195
-4.70136
-4.87167
-4.86758
-4.86384
-4.86046
-4.85741
-4.85467
-4.85222
-4.85004
-4.8481
-4.8464
-4.84487
-4.84359
-4.84244
-4.84151
-4.84073
-4.84024
-4.83966
-4.83967
-4.83902
-5.00418
-5.00075
-4.99761
-4.99479
-4.99226
-4.98999
-4.98795
-4.98614
-4.98451
-4.98307
-4.98174
-4.98067
-4.97964
-4.97881
-4.9781
-4.97762
-4.97709
-4.97704
-4.97639
-5.13646
-5.13369
-5.13118
-5.12893
-5.12692
-5.12512
-5.12351
-5.12206
-5.12076
-5.11959
-5.11852
-5.11761
-5.11672
-5.116
-5.11537
-5.11488
-5.11439
-5.11418
-5.11366
-5.26854
-5.26644
-5.26456
-5.26291
-5.26143
-5.26011
-5.25892
-5.25785
-5.25688
-5.256
-5.25519
-5.25449
-5.25369
-5.25311
-5.25256
-5.25209
-5.25163
-5.2513
-5.25093
-5.40044
-5.39903
-5.39781
-5.39674
-5.39579
-5.39496
-5.3942
-5.39352
-5.39289
-5.3923
-5.39174
-5.39121
-5.39064
-5.39015
-5.38967
-5.38924
-5.38882
-5.38848
-5.38821
-5.5322
-5.5315
-5.53093
-5.53047
-5.53008
-5.52974
-5.52944
-5.52915
-5.52887
-5.52859
-5.52828
-5.52795
-5.52756
-5.52719
-5.52679
-5.52641
-5.52602
-5.52571
-5.52548
-5.6639
-5.66394
-5.66409
-5.66428
-5.66451
-5.66473
-5.66494
-5.6651
-5.66522
-5.66527
-5.66524
-5.66514
-5.66494
-5.66469
-5.66436
-5.66401
-5.66363
-5.66332
-5.66301
)
;

boundaryField
{
    leftWall
    {
        type            calculated;
        value           nonuniform List<scalar> 
50
(
7851.56
7044.25
6231.84
5411.72
4585.1
3747.01
2882.03
2011.86
1178.55
723.875
603.331
514.271
449.255
397.665
352.324
318.985
288.512
256.352
226.637
198.704
173.38
150.42
128.688
107.24
86.5153
67.4417
50.9314
38.1671
28.4224
20.8524
12.0824
1.18675
-3.93081
10.1661
-5.69672
-5.52994
-5.34964
-5.20087
-5.13158
-5.11383
-5.12355
-5.15141
-5.19301
-5.24509
-5.30539
-5.37212
-5.44434
-5.52161
-5.60297
-5.68756
)
;
    }
    rightWall
    {
        type            calculated;
        value           nonuniform List<scalar> 
50
(
3422.13
2688.13
1950.3
1324.98
909.536
634.163
464.147
359.662
261.226
168.804
99.7356
41.9063
9.18727
-0.668814
-0.882404
-1.03505
-1.18234
-1.30501
-1.42137
-1.53679
-1.65634
-1.78153
-1.91117
-2.0439
-2.17925
-2.31684
-2.45612
-2.59667
-2.73803
-2.87969
-3.02144
-3.16314
-3.3047
-3.44606
-3.58712
-3.72779
-3.868
-4.00776
-4.14715
-4.28622
-4.42499
-4.5634
-4.70136
-4.83902
-4.97639
-5.11366
-5.25093
-5.38821
-5.52548
-5.66301
)
;
    }
    lowerWall
    {
        type            calculated;
        value           nonuniform List<scalar> 
62
(
8249.71
8125.84
7943.95
7743.02
7523.28
7273.87
6986.49
6666.99
6333.75
6008.6
5721.06
5491.79
5323.75
5209.56
5135.7
5089.49
5061.24
5044.06
5034.51
5031.52
5033.72
5037.21
5039.49
4641.37
3845.34
3049.24
2253.1
1503.62
1068.63
963.435
895.749
809.969
800.454
770.619
733.518
1715.67
1452.45
1334.71
1288.84
1238.93
1172.57
1079.44
938.559
1873.79
1870.48
1948.99
1920.87
1978.41
2008.7
2172.28
2505.21
2602.86
2765.77
2784.02
2754.79
2724.13
2707.38
2723.53
2793.66
2996.15
3293.28
3777.96
)
;
    }
    atmosphere
    {
        type            calculated;
        value           nonuniform List<scalar> 
46
(
-5.72904
-5.72904
-5.72904
-5.72904
-5.72904
-5.72904
-5.72904
-5.72904
-5.72904
-5.72904
-5.72904
-5.72904
-5.72904
-5.72904
-5.72904
-5.72904
-5.72904
-5.72904
-5.72904
-5.72904
-5.72904
-5.72904
-5.72907
-5.72913
-5.7292
-5.72931
-5.72945
-5.72972
-5.73019
-5.73076
-5.73137
-5.73197
-5.73253
-5.73304
-5.73347
-5.73382
-5.73408
-5.73422
-5.73425
-5.73415
-5.73396
-5.73365
-5.7333
-5.73284
-5.73249
-5.7319
)
;
    }
    defaultFaces
    {
        type            empty;
    }
}


// ************************************************************************* //
