/*--------------------------------*- C++ -*----------------------------------*\
| =========                 |                                                 |
| \\      /  F ield         | OpenFOAM: The Open Source CFD Toolbox           |
|  \\    /   O peration     | Version:  2312                                  |
|   \\  /    A nd           | Website:  www.openfoam.com                      |
|    \\/     M anipulation  |                                                 |
\*---------------------------------------------------------------------------*/
FoamFile
{
    version     2.0;
    format      ascii;
    arch        "LSB;label=32;scalar=64";
    class       volScalarField;
    location    "1.15";
    object      p_rgh;
}
// * * * * * * * * * * * * * * * * * * * * * * * * * * * * * * * * * * * * * //

dimensions      [1 -1 -2 0 0 0 0];

internalField   nonuniform List<scalar> 
2268
(
8249.71
8125.84
7943.95
7743.02
7523.28
7273.87
6986.49
6666.99
6333.75
6008.6
5721.06
5491.79
5323.75
5209.56
5135.7
5089.49
5061.24
5044.06
5034.51
5031.52
5033.72
5037.21
5039.49
8238.7
8117.87
7942.59
7746.75
7530.05
7281.1
6990.74
6665.78
6326.53
5996.04
5706.35
5477.41
5311.4
5200.34
5129.18
5085.12
5058.26
5041.7
5032.33
5029.66
5032.53
5037.1
5039.72
8222.59
8102.95
7939.47
7753.43
7542.91
7294.21
6997.05
6660.91
6309.11
5969.26
5675.59
5447.69
5286.05
5181.47
5116.74
5076.88
5052.76
5037.34
5028.25
5026.14
5030.45
5037.03
5039.99
8198.77
8079.97
7934.27
7764.12
7563.38
7314.83
7006.45
6652.44
6280.88
5926.42
5627.9
5402.28
5248.22
5156.22
5099.87
5064.71
5044.56
5030.78
5021.88
5020.49
5027.11
5037.12
5040.15
8168.45
8049.9
7927.5
7779.82
7593.82
7345.3
7020.62
6639.85
6239.23
5863.37
5556.63
5211.8
4892.48
4693.3
4590.96
4549.24
4536.29
4520.28
4508.66
4530.65
4591.47
4652.77
4663.09
8126.66
8010.83
7918.74
7805.38
7639.3
7390.73
7043.1
6620.26
6019.43
4841.91
3522.11
2607.97
2172.43
1959.33
1867.52
1830.84
1814.47
1795.8
1783.75
1805.21
1872.18
1975.71
1968.11
8057.97
7946.01
7901.74
7838.16
7701.32
7450.97
7067.92
5687.67
3333.25
1900.25
1451.51
1428.29
1423.31
1418.87
1413.18
1406.71
1399.47
1391.65
1382.17
1369.12
1353.72
1342.35
1340.57
7904.65
7492.49
7579.92
7879.51
7780.49
7281.32
4936.92
2121.35
1453.4
1441.42
1433.23
1426.07
1421.48
1417.66
1413.17
1407.72
1400.98
1392.79
1381.93
1367.21
1350.29
1335.43
1337.04
1873.79
1870.48
1948.99
1920.87
1978.41
2008.7
2172.28
2505.21
2602.86
2765.77
2784.02
2754.79
2724.13
2707.38
2723.53
2793.66
2996.15
3293.28
3777.96
1732.31
1737.72
1859.26
1898.17
1973.03
2011.62
2071.58
2031.59
2183.09
2623.98
2734.14
2704.14
2654.54
2627.71
2665.74
2766.28
2979.45
3268.8
3756.22
1443.14
1479.03
1616.4
1891.9
2002.69
2075.36
2018.52
1954.88
2081.99
2467.74
2243.02
2093.83
2023.95
2061.3
2148.41
2146.02
2486.39
3205.4
3753.42
1416.26
1443.04
1481.1
1764.07
1956.1
1987.63
2036.94
2310.89
2027.43
1592.13
1510.38
1647.52
1801.53
1502.24
1061.28
1032
1540.67
2338.29
3822.08
1418.89
1622.65
1506.79
1586.95
1888.03
2117.14
2682.3
2427.84
2025.04
1234.29
962.59
978.472
913.932
832.395
904.812
927.982
1133.49
1776.58
3476.46
1393.25
1727.32
1579.95
1540.27
1905.12
2756.22
2658.86
2361.96
1459.12
1032.47
878.198
785.185
789.677
882.751
977.767
979.488
921.517
1236.49
2546.44
1507.23
1750.24
1562.48
1500.45
2397.78
2744.41
2326.06
849.99
708.119
783.749
858.321
839.769
849.423
921.621
973.133
901.577
868.131
992.41
1534.48
1647.47
1655.14
1495.56
1509.98
2270.21
2253.53
1012.81
581.203
664.039
732.263
753.709
793.963
894.734
906.39
797.095
748.967
734.347
728.678
1479.59
4708.88
3775.59
3937.78
4391.77
4127.77
2744.07
1593.83
1454.45
1445.23
1434.57
1427.05
1422.22
1419.35
1417.13
1414.43
1410.37
1404.2
1395.26
1381
1359.53
1339.16
1282.71
1207.27
1378.38
1385.35
1390.19
1403.61
1421.63
1440.97
1452.73
1446.41
1434.83
1425.47
1420.43
1417.77
1416.85
1417.2
1417.69
1416.77
1412.98
1404.91
1392.61
1288.73
1252.13
1225.13
1234.81
1232.02
1387.26
1395.99
1412.25
1433.93
1447.87
1449.05
1438.38
1425.61
1416.27
1411.36
1410.1
1412.05
1416.55
1421.8
1426.7
1429.78
1424.3
1301.39
1287.41
1290.49
1389.52
1275.48
884.351
1094.3
1258.84
1362.04
1414.46
1430.63
1427.96
1416.78
1405.83
1399.3
1399.19
1398.08
1398.87
1408.32
1422.35
1434.47
1439.95
1395.66
1351.04
1337.28
1355.16
1291.65
1242.45
810.201
621.912
685.022
817.237
1019.77
1201.24
1247.22
1256.47
1243.4
1252.18
1317.45
1337.48
1369.16
1407.38
1422.21
1436.84
1434.35
1386.92
1345.6
1332.75
1259.87
1060.93
946.058
843.336
638.558
556.138
547.101
592.564
768.538
794.789
779.99
810.246
935.918
1064.38
1115.26
1277.16
1345.61
1335.36
1385.63
1317.16
1244.93
1160.06
1078.61
884.059
789.211
768.812
811.389
626.862
521.55
661.128
831.342
765.156
670.636
595.108
540.052
587.972
860.304
941.767
922.568
1019.77
1083.26
1049.68
1010.34
979.774
895.774
816.786
798.342
782.318
764.616
764.272
636.141
867.243
941.165
880.204
527.876
342.658
362.097
756.703
864.586
848.86
840.544
716.796
733.628
866.028
901.671
823.249
826.592
825.632
812.244
795.324
776.999
758.846
1027.77
871.404
1030.23
931.086
444.096
392.927
545.233
959.89
939.397
911.715
888.009
880.044
837.155
716.903
692.135
822.128
845.672
843.164
829.374
812.707
653.845
450.497
259.616
1086.46
1078.79
1043.06
548.199
307.703
638.475
1023.23
991.456
959.93
932.874
913.433
903.339
898.897
879.955
857.336
854.317
846.406
693.316
469.008
228.689
77.1559
17.1988
4.05773
1118.26
1107.07
991.464
352.56
293.273
968.574
1038.41
1009.75
979.262
952.755
936.041
908.368
786.453
685.402
580.746
442.908
240.849
75.2776
12.9441
0.598798
1.22024
1.70166
0.731545
1145.37
1138.25
985.523
288.023
194.273
856.483
1059.44
1031.87
921.616
589.889
355.307
214.365
127.27
74.4642
35.8646
8.41845
1.025
0.334864
0.343727
0.413371
0.392129
0.392842
0.414175
1179.89
1174.92
1082.65
347.309
119.665
447.322
1065.76
992.169
295.768
1.1589
0.594607
0.548841
0.859043
1.06301
0.540213
0.253186
0.275952
0.294527
0.31182
0.338374
0.353363
0.363538
0.374382
1218.99
1217.33
1191.7
638.712
112.719
146.524
929.152
895.956
13.4027
0.737771
0.582225
0.487627
0.38559
0.241668
0.203353
0.19882
0.222629
0.255766
0.28437
0.305713
0.324154
0.337341
0.348091
1269.75
1261.76
1247.72
1159.09
317.773
125.224
784.136
712.901
29.7041
0.705417
0.556246
0.415478
0.291459
0.20082
0.156777
0.155625
0.183051
0.219027
0.250286
0.274277
0.293222
0.308203
0.321051
1312.93
1306.14
1297.48
1284.51
1124.75
275.137
330.679
70.9347
1.48068
0.64041
0.517756
0.359222
0.243063
0.153303
0.110254
0.116662
0.14826
0.184529
0.216204
0.242001
0.262761
0.279625
0.293951
1354.81
1350.56
1345.58
1335.73
1312.97
943.506
336.858
0.810122
0.616635
0.59737
0.43168
0.285151
0.177973
0.100049
0.0692677
0.0862599
0.121489
0.155436
0.186722
0.212882
0.234602
0.252545
0.267677
1398.35
1395.48
1390.89
1384.55
1352.03
861.168
180.052
1.08792
0.711731
0.529614
0.365121
0.217838
0.121523
0.0574953
0.0440623
0.0645127
0.0994886
0.131193
0.162303
0.187606
0.209247
0.227474
0.242972
1402.75
1442.54
1439.16
1432.03
1321.18
456.112
1.20069
0.874285
0.588451
0.37364
0.284486
0.149806
0.0769498
0.0298272
0.0293572
0.0535336
0.0838634
0.113144
0.140996
0.165451
0.186577
0.20468
0.220292
1203.93
1482.62
1488.1
1480.57
1128.14
156.707
1.27159
0.657473
0.366364
0.334074
0.208007
0.100194
0.0418403
0.0176344
0.022674
0.0465184
0.0727092
0.0988942
0.123892
0.146604
0.166701
0.184295
0.199742
1237.64
1498.93
1538.42
1262.39
355.23
-0.00358599
0.507586
0.362031
0.312704
0.25803
0.143019
0.0621048
0.0240669
0.0130458
0.0223802
0.0427491
0.0649121
0.0876458
0.109827
0.130539
0.149336
0.16616
0.181188
1283.13
1552.52
1174.95
212.225
-0.287629
0.126997
0.185142
0.17699
0.237739
0.164151
0.0824088
0.0375967
0.0146545
0.0113401
0.0221985
0.039715
0.0585396
0.0782132
0.0978474
0.116628
0.134061
0.149979
0.164438
1529.49
1330.86
184.293
0.507003
0.267831
0.227643
0.178599
0.164802
0.168964
0.0993612
0.0477376
0.0209135
0.00899912
0.0100272
0.0210368
0.0361906
0.0524729
0.0697267
0.0872449
0.104317
0.120461
0.13545
0.149252
1576.38
1048.13
51.2907
0.504671
0.451635
0.322929
0.224063
0.157302
0.111705
0.055354
0.0244067
0.00733773
0.00274153
0.00696235
0.0180392
0.0316039
0.0461763
0.0616774
0.0775487
0.0932003
0.10819
0.12228
0.135404
1629.07
1073.51
155.45
0.485835
0.42597
0.306986
0.207984
0.123421
0.0644682
0.0229558
0.0034269
-0.00452452
-0.00479449
0.00186103
0.0132423
0.0259718
0.0395227
0.0538394
0.068487
0.0829934
0.0969873
0.110245
0.122679
1225.15
515.077
165.052
0.201859
0.245395
0.175871
0.115012
0.0579023
0.0159895
-0.00659527
-0.0170259
-0.0179981
-0.0139621
-0.00478168
0.00708165
0.0195437
0.0325957
0.046166
0.0599294
0.0735304
0.0866712
0.0991668
0.110939
-1.85647
-1.92453
-1.61887
-0.71536
-0.192583
-0.0500083
-0.0178562
-0.0224976
-0.0339248
-0.0380046
-0.0376536
-0.032433
-0.0238361
-0.0124627
5.94758e-05
0.0126837
0.0255905
0.0387172
0.051842
0.0647159
0.0771256
0.0889292
0.100062
-1.6004
-1.61526
-1.53277
-1.03996
-0.476326
-0.244872
-0.138612
-0.0974021
-0.0797378
-0.0689887
-0.0580557
-0.0463927
-0.0339575
-0.020613
-0.00725964
0.00579035
0.0187512
0.0316112
0.0442501
0.0565192
0.0682779
0.0794352
0.0899553
-1.28417
-1.31744
-1.2242
-0.93321
-0.568581
-0.346657
-0.220761
-0.1548
-0.118807
-0.0954807
-0.076182
-0.0592791
-0.0435434
-0.0284676
-0.0142579
-0.000729425
0.012333
0.0249882
0.0372096
0.0489337
0.0600905
0.0706316
0.0805383
-0.951607
-1.02053
-0.978399
-0.781418
-0.542931
-0.372277
-0.260354
-0.190249
-0.147585
-0.115882
-0.0908534
-0.06998
-0.0517323
-0.0353294
-0.0203996
-0.00651996
0.00656516
0.018983
0.0307848
0.0419777
0.0525444
0.0624759
0.0717783
-0.735898
-0.707823
-0.782449
-0.653596
-0.493152
-0.365643
-0.273833
-0.209651
-0.164434
-0.129131
-0.100895
-0.0776
-0.0578078
-0.0406051
-0.0252901
-0.0113129
0.00162599
0.0137052
0.0250322
0.0356649
0.0456307
0.0549483
0.0636383
-0.613777
-0.501682
-0.561817
-0.548053
-0.435378
-0.344511
-0.272622
-0.216049
-0.171266
-0.135201
-0.105911
-0.0817192
-0.0613677
-0.0439541
-0.0286923
-0.0149386
-0.00236799
0.0092278
0.0199887
0.0300061
0.0393333
0.0480117
0.0560788
-0.541155
-0.374108
-0.333557
-0.445627
-0.363793
-0.317778
-0.260929
-0.210983
-0.169224
-0.13469
-0.106141
-0.0823736
-0.0623645
-0.0453063
-0.0305186
-0.0173232
-0.00536275
0.00558321
0.0156663
0.0249919
0.0336308
0.0416352
0.049045
-0.482375
-0.403529
-0.319706
-0.359782
-0.314795
-0.287969
-0.240537
-0.197395
-0.160239
-0.128747
-0.102239
-0.0799143
-0.0609972
-0.0448175
-0.0308205
-0.0184856
-0.00736407
0.00276451
0.0120508
0.0206014
0.0284903
0.0357745
0.0424997
-0.400749
-0.388218
-0.366703
-0.326055
-0.291789
-0.253731
-0.214278
-0.178174
-0.146294
-0.118684
-0.0950337
-0.0748477
-0.0575825
-0.0427264
-0.0298315
-0.0185182
-0.0084306
0.000729241
0.0091044
0.016795
0.023873
0.0303934
0.0363962
-0.328741
-0.318426
-0.300983
-0.278213
-0.247175
-0.216066
-0.184871
-0.155574
-0.129101
-0.105718
-0.0853456
-0.067716
-0.0524783
-0.0392701
-0.0277547
-0.0176355
-0.00866288
-0.000594489
0.00676956
0.0135228
0.0197291
0.0254384
0.0306879
-0.264461
-0.256145
-0.24162
-0.224799
-0.202067
-0.178377
-0.154345
-0.131277
-0.109995
-0.0908475
-0.0738956
-0.0590283
-0.0460422
-0.0346992
-0.0247606
-0.0160054
-0.00824033
-0.00130286
0.00497329
0.0107223
0.0160046
0.0208651
0.025321
-0.206394
-0.199716
-0.188513
-0.17583
-0.159513
-0.141992
-0.124004
-0.106435
-0.0899311
-0.0748334
-0.061271
-0.0492293
-0.0386079
-0.0292621
-0.0210324
-0.013762
-0.00730753
-0.00154489
0.00362847
0.00832497
0.012634
0.0166172
0.0202591
-0.153448
-0.148529
-0.140567
-0.131304
-0.119894
-0.10745
-0.0945352
-0.0817455
-0.0695477
-0.05823
-0.0479342
-0.038695
-0.030475
-0.0231945
-0.0167538
-0.0110477
-0.00597553
-0.00144725
0.00261237
0.00625762
0.0095366
0.0126573
0.0154629
-0.105538
-0.102145
-0.0968844
-0.0906097
-0.0830936
-0.0748445
-0.0662156
-0.0575803
-0.0492469
-0.0414261
-0.0342384
-0.0277319
-0.021902
-0.0167104
-0.0120998
-0.00800516
-0.00436105
-0.00110612
0.00181517
0.00445479
0.00687269
0.00899333
0.0108967
-0.0617139
-0.0597009
-0.0566664
-0.0529804
-0.0486706
-0.0439579
-0.0390206
-0.0340526
-0.029222
-0.0246529
-0.0204234
-0.0165708
-0.0131014
-0.0100001
-0.00723885
-0.00478348
-0.00259838
-0.000649945
0.00109199
0.00265486
0.0040624
0.00527296
0.00639673
-0.0211196
-0.0203649
-0.019225
-0.0177994
-0.016215
-0.0145513
-0.0128563
-0.0111793
-0.00956329
-0.00803966
-0.00662874
-0.0053415
-0.00418066
-0.00314215
-0.00221761
-0.00139613
-0.00066598
-1.60559e-05
0.000561996
0.00107039
0.00150088
0.00184312
0.00215734
1257.31
1267.73
1270.9
1247.01
1248.47
1383.7
1403.51
1236.5
1233.45
1264.23
1306.52
1268.68
1207.31
1148.65
1203
1025.25
860.281
798.706
825.825
937.155
756.119
740.752
649.899
671.989
751.181
742.272
733.625
724.61
713.923
626.072
542.586
464.344
145.456
92.0821
74.69
56.6125
2.02458
5.1369
4.82588
0.672146
0.592741
0.504065
0.417691
0.416888
0.405606
0.402651
0.40082
0.401326
0.379707
0.38278
0.385231
0.386773
0.354871
0.358552
0.361569
0.364011
0.328637
0.332734
0.336402
0.3396
0.302137
0.306707
0.310956
0.314759
0.276438
0.28147
0.286185
0.290488
0.252212
0.257617
0.262712
0.267393
0.229862
0.23551
0.240821
0.245753
0.209413
0.215172
0.220605
0.225662
0.19079
0.196537
0.201954
0.207041
0.1738
0.17944
0.184788
0.189822
0.158314
0.163782
0.168963
0.173879
0.144094
0.149361
0.15437
0.159116
0.13099
0.136031
0.140816
0.145378
0.118833
0.123641
0.128223
0.132583
0.107568
0.112134
0.116474
0.120628
0.0970572
0.101393
0.105522
0.109455
0.0872501
0.0913449
0.0952313
0.0989553
0.0780701
0.0819236
0.0855938
0.0890971
0.0695279
0.0731273
0.0765437
0.0798235
0.0615447
0.0648959
0.0680762
0.0711069
0.0540812
0.0571638
0.0600734
0.0628557
0.0470647
0.0498675
0.0525171
0.0550332
0.0404818
0.0429838
0.0453369
0.0475807
0.0342582
0.0364518
0.0385158
0.0404663
0.0283581
0.0302211
0.0319649
0.0336225
0.0227278
0.0242478
0.0256788
0.0270302
0.0173607
0.0185263
0.0196178
0.0206578
0.0122039
0.0130106
0.0137694
0.0144816
0.0071703
0.00763369
0.00805315
0.00844048
0.00231294
0.00239553
0.00245897
0.00250319
1353.34
1445.28
1510.04
1618.41
1547.45
1319.98
1099.65
574.315
547.808
588.386
609.07
694.995
806.199
791.04
659.671
627.229
586.825
605.03
1085.9
1144.31
1096.86
1004.29
1305.78
1051.5
940.341
939.068
646.988
524.649
518.83
483.945
434.273
454.845
437.794
437.545
500.163
571.864
586.02
713.751
1093.44
780.192
637.868
594.561
667.288
601.103
570.811
550.99
503.779
399.897
321.373
281.083
215.087
252.785
376.931
509.763
624.963
660.622
620.173
928.274
778.856
674.413
549.598
521.137
642.251
530.583
310.643
192.242
155.259
116.93
61.7943
51.9047
89.3386
195.945
310.794
336.271
388.01
524.202
911.097
890.74
965.428
835.719
792.708
660.016
296.752
105.586
10.4354
0.873872
0.950408
1.02497
6.00959
24.8376
56.8178
118.955
159.606
179.719
173.016
782.118
844.128
733.125
686.012
435.247
102.429
0.876444
0.783313
0.792109
0.738887
0.802242
0.915026
1.07575
9.07457
23.0504
10.3405
0.637175
0.677027
2.54254
717.368
707.408
407.015
244.589
32.9777
5.08363
1.07215
1.0036
0.744445
0.729007
0.783283
0.831487
1.55855
1.84253
1.39436
0.549508
1.00638
0.995586
0.629371
312.123
136.899
40.8571
4.92764
0.761788
0.954245
1.11934
0.983098
0.670875
0.685138
0.859346
1.05597
1.14848
1.04736
0.715644
1.15906
1.25474
1.20037
0.906069
16.3624
2.00048
0.539013
0.525566
0.693021
0.971421
0.926368
0.613404
0.63698
0.641199
0.629057
0.61979
0.583836
0.564413
0.873634
0.905511
0.660099
0.346153
0.421846
0.45039
0.459663
0.456965
0.484013
0.510557
0.517549
0.546784
0.581288
0.598657
0.600568
0.577056
0.530147
0.46763
0.402744
0.34827
0.318865
0.320024
0.348315
0.355285
0.422387
0.435887
0.446984
0.4593
0.475088
0.495216
0.53937
0.629144
0.705442
0.704887
0.592696
0.4983
0.451059
0.40418
0.365794
0.34411
0.342138
0.35842
0.366159
0.404943
0.414477
0.422988
0.443307
0.457469
0.468442
0.482502
0.528258
0.694875
0.741036
0.734361
0.571896
0.432449
0.400685
0.375696
0.36189
0.36074
0.460045
0.402094
0.389437
0.396557
0.404259
0.413033
0.429717
0.445183
0.455
0.451846
0.452327
0.494536
0.659151
0.604942
0.424312
0.394302
0.378736
0.370605
0.407041
0.516387
0.420183
0.368245
0.375877
0.383239
0.391061
0.399392
0.412939
0.429038
0.434318
0.426558
0.419505
0.412816
0.414463
0.409172
0.386575
0.376313
0.371772
0.484725
0.524375
0.403211
0.344954
0.353243
0.360822
0.368351
0.375938
0.383222
0.397073
0.408678
0.410827
0.397414
0.392093
0.387073
0.381285
0.375175
0.369834
0.367378
0.440206
0.44326
0.378862
0.321004
0.329964
0.338012
0.345646
0.352959
0.359754
0.36561
0.378429
0.380521
0.374683
0.372201
0.369451
0.366107
0.362677
0.360117
0.359525
0.36069
0.36387
0.367848
0.297471
0.307033
0.31559
0.323476
0.330825
0.337479
0.343275
0.347869
0.35112
0.353232
0.35321
0.352043
0.35052
0.349026
0.348257
0.349015
0.351509
0.354716
0.357714
0.274933
0.284998
0.293965
0.302144
0.309599
0.316335
0.322233
0.327092
0.330782
0.333224
0.334466
0.334726
0.334512
0.334319
0.334719
0.33631
0.339302
0.34268
0.345221
0.253682
0.264113
0.273406
0.281796
0.289413
0.296273
0.302293
0.307364
0.311401
0.314371
0.316329
0.317491
0.318201
0.318883
0.32003
0.322102
0.325333
0.330926
0.334176
0.233791
0.244452
0.253972
0.262534
0.270269
0.277209
0.283318
0.288539
0.292826
0.296174
0.298648
0.300414
0.301747
0.303002
0.304607
0.306941
0.310501
0.332089
0.323724
0.215242
0.225985
0.235616
0.244266
0.252054
0.259029
0.265185
0.270497
0.274949
0.278555
0.281375
0.283546
0.285284
0.286889
0.288744
0.291172
0.306975
0.318168
0.30489
0.197956
0.208653
0.218275
0.226919
0.234694
0.241653
0.247808
0.253157
0.257704
0.26147
0.264513
0.266937
0.268917
0.270705
0.27265
0.27504
0.299453
0.302526
0.28456
0.181857
0.192384
0.201892
0.210445
0.218139
0.225029
0.231137
0.236473
0.241053
0.244901
0.248067
0.250629
0.252727
0.254575
0.256504
0.25879
0.27812
0.27365
0.266577
0.16684
0.177105
0.186412
0.194799
0.202351
0.209122
0.215137
0.220414
0.224973
0.228838
0.232048
0.234661
0.236783
0.2386
0.240449
0.242682
0.245705
0.247789
0.249922
0.152822
0.162748
0.171783
0.179941
0.187297
0.193902
0.199782
0.204956
0.209447
0.213274
0.216468
0.219065
0.221147
0.22287
0.224608
0.226711
0.229341
0.231649
0.233553
0.139706
0.149243
0.157951
0.165829
0.172942
0.179339
0.185043
0.190075
0.194455
0.198201
0.201334
0.203871
0.205876
0.207471
0.209099
0.211117
0.213603
0.215814
0.217379
0.127424
0.136525
0.144861
0.152415
0.159245
0.165395
0.170887
0.175742
0.179977
0.183607
0.186649
0.1891
0.191018
0.192485
0.194076
0.196061
0.198436
0.200317
0.201743
0.11589
0.124528
0.132457
0.139651
0.146162
0.152031
0.157279
0.161924
0.165985
0.169472
0.172402
0.174758
0.176599
0.177962
0.179579
0.181491
0.183567
0.185195
0.186492
0.105045
0.113192
0.120683
0.127485
0.133646
0.139203
0.144178
0.148586
0.152447
0.15577
0.158575
0.160828
0.162617
0.163887
0.165265
0.167184
0.169081
0.170398
0.171186
0.094819
0.102458
0.109483
0.115865
0.121648
0.126866
0.131541
0.135687
0.139327
0.142467
0.145139
0.147274
0.149062
0.150172
0.151536
0.152994
0.154982
0.155992
0.156413
0.0851733
0.0922718
0.098804
0.10474
0.110119
0.114973
0.119323
0.123184
0.126582
0.129524
0.132079
0.133991
0.135688
0.136929
0.138198
0.139354
0.140882
0.141496
0.1422
0.0760405
0.0825777
0.0885922
0.0940578
0.0990091
0.103477
0.10748
0.111036
0.114171
0.116878
0.119224
0.121086
0.122669
0.123908
0.125098
0.126041
0.127081
0.127642
0.128294
0.0673736
0.0733226
0.0787969
0.0837698
0.0882722
0.0923321
0.0959702
0.0992028
0.102063
0.104516
0.106649
0.108405
0.109898
0.111083
0.11217
0.112914
0.113814
0.114196
0.114714
0.0591075
0.0644546
0.0693688
0.0738291
0.0778632
0.0814971
0.0847518
0.0876438
0.0902025
0.09241
0.0943378
0.0959549
0.0973454
0.0984522
0.0994257
0.100021
0.100782
0.101068
0.101494
0.0512049
0.0559273
0.0602632
0.0641925
0.0677407
0.0709328
0.0737901
0.0763275
0.0785775
0.080535
0.0822626
0.0837253
0.0849998
0.0860181
0.0868867
0.0874007
0.08806
0.0881334
0.0887265
0.0436097
0.0476958
0.0514378
0.0548201
0.0578675
0.0606048
0.0630542
0.0652307
0.0671751
0.0688742
0.0704016
0.0716894
0.0728391
0.073766
0.074546
0.0750329
0.0756163
0.0756073
0.076257
0.0362882
0.0397226
0.0428561
0.0456768
0.0482104
0.0504829
0.0525179
0.0543341
0.0559617
0.0574043
0.0587269
0.0597984
0.060828
0.0616606
0.0623664
0.0628535
0.0633773
0.0634324
0.0640795
0.0292001
0.0319752
0.0344861
0.0367316
0.0387404
0.0405404
0.0421552
0.0436029
0.0449071
0.0460759
0.047143
0.0480548
0.0489407
0.0496627
0.0502965
0.0507838
0.0512713
0.051482
0.0520066
0.0223241
0.0244219
0.0262945
0.0279537
0.0294311
0.0307533
0.031941
0.0330104
0.0339808
0.034861
0.0356695
0.0363724
0.0371661
0.0377482
0.0383023
0.0387699
0.0392307
0.0395556
0.0399272
0.0156168
0.0170226
0.018247
0.0193168
0.0202592
0.0210974
0.0218501
0.0225331
0.0231633
0.0237511
0.0243118
0.024841
0.0254153
0.0259027
0.0263798
0.0268094
0.0272346
0.0275729
0.0278461
0.00904426
0.00974589
0.0103139
0.0107816
0.0111723
0.0115093
0.0118117
0.0120951
0.0123753
0.0126632
0.0129716
0.0133025
0.0136866
0.0140623
0.0144592
0.0148417
0.0152258
0.0155351
0.0157653
0.00254652
0.00250246
0.00235736
0.00215822
0.00193284
0.00170799
0.00150444
0.00133847
0.00122573
0.00117646
0.00120368
0.00130758
0.00150389
0.00175674
0.00208399
0.00242802
0.00281429
0.00312254
0.00343448
)
;

boundaryField
{
    leftWall
    {
        type            fixedFluxPressure;
        gradient        uniform 0;
        value           nonuniform List<scalar> 
50
(
8249.71
8238.7
8222.59
8198.77
8168.45
8126.66
8057.97
7904.65
4708.88
1378.38
1232.02
884.351
810.201
843.336
811.389
764.272
1027.77
1086.46
1118.26
1145.37
1179.89
1218.99
1269.75
1312.93
1354.81
1398.35
1402.75
1203.93
1237.64
1283.13
1529.49
1576.38
1629.07
1225.15
-1.85647
-1.6004
-1.28417
-0.951607
-0.735898
-0.613777
-0.541155
-0.482375
-0.400749
-0.328741
-0.264461
-0.206394
-0.153448
-0.105538
-0.0617139
-0.0211196
)
;
    }
    rightWall
    {
        type            fixedFluxPressure;
        gradient        uniform 0;
        value           nonuniform List<scalar> 
50
(
3777.96
3756.22
3753.42
3822.08
3476.46
2546.44
1534.48
1479.59
1085.9
713.751
620.173
524.202
173.016
2.54254
0.629371
0.906069
0.421846
0.355285
0.366159
0.402094
0.420183
0.403211
0.378862
0.367848
0.357714
0.345221
0.334176
0.323724
0.30489
0.28456
0.266577
0.249922
0.233553
0.217379
0.201743
0.186492
0.171186
0.156413
0.1422
0.128294
0.114714
0.101494
0.0887265
0.076257
0.0640795
0.0520066
0.0399272
0.0278461
0.0157653
0.00343448
)
;
    }
    lowerWall
    {
        type            fixedFluxPressure;
        gradient        uniform 0;
        value           nonuniform List<scalar> 
62
(
8249.71
8125.84
7943.95
7743.02
7523.28
7273.87
6986.49
6666.99
6333.75
6008.6
5721.06
5491.79
5323.75
5209.56
5135.7
5089.49
5061.24
5044.06
5034.51
5031.52
5033.72
5037.21
5039.49
5039.49
5039.72
5039.99
5040.15
4663.09
1968.11
1340.57
1337.04
1257.31
1267.73
1270.9
1247.01
1873.79
1732.31
1443.14
1416.26
1418.89
1393.25
1507.23
1647.47
1873.79
1870.48
1948.99
1920.87
1978.41
2008.7
2172.28
2505.21
2602.86
2765.77
2784.02
2754.79
2724.13
2707.38
2723.53
2793.66
2996.15
3293.28
3777.96
)
;
    }
    atmosphere
    {
        type            totalPressure;
        rho             rho;
        psi             none;
        gamma           1;
        p0              uniform 0;
        value           nonuniform List<scalar> 
46
(
0
0
0
0
0
0
0
0
0
0
0
0
0
0
0
0
0
0
0
0
0
0
-2.69202e-05
-8.60258e-05
-0.000159936
-0.000265236
-0.000410248
-0.000675054
-0.0011491
-0.00172332
-0.00232655
-0.00292546
-0.00348906
-0.00399602
-0.00443248
-0.00478221
-0.00503668
-0.00517785
-0.00521053
-0.00511084
-0.00492477
-0.00460515
-0.00426177
-0.00380141
-0.00344836
-0.00285852
)
;
    }
    defaultFaces
    {
        type            empty;
    }
}


// ************************************************************************* //
