/*--------------------------------*- C++ -*----------------------------------*\
| =========                 |                                                 |
| \\      /  F ield         | OpenFOAM: The Open Source CFD Toolbox           |
|  \\    /   O peration     | Version:  2312                                  |
|   \\  /    A nd           | Website:  www.openfoam.com                      |
|    \\/     M anipulation  |                                                 |
\*---------------------------------------------------------------------------*/
FoamFile
{
    version     2.0;
    format      ascii;
    arch        "LSB;label=32;scalar=64";
    class       surfaceScalarField;
    location    "1.15";
    object      phi;
}
// * * * * * * * * * * * * * * * * * * * * * * * * * * * * * * * * * * * * * //

dimensions      [0 3 -1 0 0 0 0];

oriented        oriented;

internalField   nonuniform List<scalar> 
4432
(
6.84046e-06
-6.84042e-06
1.05374e-05
-3.69691e-06
1.2335e-05
-1.79759e-06
1.25643e-05
-2.29354e-07
1.15404e-05
1.02396e-06
9.58043e-06
1.95996e-06
6.99406e-06
2.58637e-06
4.07939e-06
2.91467e-06
1.19726e-06
2.88213e-06
-1.31662e-06
2.51388e-06
-3.24542e-06
1.9288e-06
-4.5409e-06
1.29548e-06
-5.25583e-06
7.14929e-07
-5.50197e-06
2.4615e-07
-5.40631e-06
-9.56598e-08
-5.06179e-06
-3.44524e-07
-4.51627e-06
-5.45524e-07
-3.81672e-06
-6.99545e-07
-3.02076e-06
-7.95963e-07
-2.19156e-06
-8.292e-07
-1.37035e-06
-8.21207e-07
-4.43243e-07
-9.27111e-07
-4.43242e-07
7.03205e-06
-1.38724e-05
1.08366e-05
-7.50136e-06
1.26193e-05
-3.58027e-06
1.27761e-05
-3.86131e-07
1.16598e-05
2.14031e-06
9.6195e-06
4.00027e-06
6.91573e-06
5.29015e-06
3.93513e-06
5.89529e-06
9.77822e-07
5.83945e-06
-1.58218e-06
5.07388e-06
-3.53146e-06
3.87809e-06
-4.83058e-06
2.5946e-06
-5.53412e-06
1.41847e-06
-5.7669e-06
4.78935e-07
-5.65932e-06
-2.03243e-07
-5.31201e-06
-6.91829e-07
-4.7642e-06
-1.09333e-06
-4.06263e-06
-1.40112e-06
-3.27217e-06
-1.58642e-06
-2.4663e-06
-1.63506e-06
-1.67092e-06
-1.6166e-06
-8.47109e-07
-1.75092e-06
-1.29035e-06
7.13784e-06
-2.10102e-05
1.12005e-05
-1.1564e-05
1.30271e-05
-5.40683e-06
1.30483e-05
-4.07327e-07
1.17516e-05
3.43704e-06
9.53171e-06
6.2201e-06
6.68072e-06
8.14115e-06
3.51505e-06
9.06096e-06
4.22675e-07
8.93183e-06
-2.23839e-06
7.73494e-06
-4.2116e-06
5.8513e-06
-5.4894e-06
3.87241e-06
-6.14104e-06
2.07011e-06
-6.31581e-06
6.53702e-07
-6.16208e-06
-3.56975e-07
-5.79376e-06
-1.06014e-06
-5.22072e-06
-1.66638e-06
-4.48363e-06
-2.13821e-06
-3.65139e-06
-2.41866e-06
-2.80947e-06
-2.47699e-06
-1.97213e-06
-2.45393e-06
-1.05451e-06
-2.66854e-06
-2.34486e-06
7.05426e-06
-2.80644e-05
1.13942e-05
-1.5904e-05
1.32279e-05
-7.24053e-06
1.30903e-05
-2.69654e-07
1.15792e-05
4.9482e-06
9.12962e-06
8.66967e-06
6.0479e-06
1.12229e-05
2.69314e-06
1.24157e-05
-5.38231e-07
1.21632e-05
-3.25799e-06
1.04547e-05
-5.15902e-06
7.75233e-06
-6.30275e-06
5.01614e-06
-6.79838e-06
2.56574e-06
-6.79561e-06
6.50933e-07
-6.60601e-06
-5.46573e-07
-6.21438e-06
-1.45178e-06
-5.60006e-06
-2.28069e-06
-4.80046e-06
-2.93782e-06
-3.9012e-06
-3.31792e-06
-3.02456e-06
-3.35362e-06
-2.1724e-06
-3.30609e-06
-1.18859e-06
-3.65235e-06
-3.53345e-06
7.12403e-06
-3.51885e-05
1.15889e-05
-2.03688e-05
1.3134e-05
-8.78565e-06
1.27314e-05
1.32902e-07
1.10558e-05
6.62383e-06
8.52881e-06
1.11966e-05
5.30476e-06
1.44469e-05
1.83462e-06
1.58859e-05
-1.40406e-06
1.54019e-05
-4.09583e-06
1.31465e-05
-5.92544e-06
9.58195e-06
-6.72962e-06
5.82032e-06
-6.88873e-06
2.72485e-06
-6.73336e-06
4.95565e-07
-6.36781e-06
-9.12121e-07
-5.8657e-06
-1.95389e-06
-5.14343e-06
-3.00296e-06
-4.21738e-06
-3.86387e-06
-3.22256e-06
-4.31272e-06
-2.36509e-06
-4.2111e-06
-1.69353e-06
-3.97765e-06
-1.03887e-06
-4.307e-06
-4.57232e-06
7.48779e-06
-4.26763e-05
1.22226e-05
-2.51037e-05
1.32836e-05
-9.84669e-06
1.24605e-05
9.5599e-07
1.05996e-05
8.48475e-06
8.03053e-06
1.37658e-05
4.85143e-06
1.7626e-05
1.63707e-06
1.91003e-05
-9.51451e-07
1.79905e-05
-2.68181e-06
1.48769e-05
-3.57853e-06
1.04787e-05
-3.51547e-06
5.75727e-06
-3.31414e-06
2.52353e-06
-3.20425e-06
3.85679e-07
-2.82896e-06
-1.2874e-06
-2.21318e-06
-2.56966e-06
-1.21937e-06
-3.99677e-06
1.32645e-07
-5.21587e-06
1.43541e-06
-5.61548e-06
2.06109e-06
-4.83677e-06
1.80026e-06
-3.71681e-06
6.6792e-07
-3.17464e-06
-3.90438e-06
7.84812e-06
-5.05245e-05
1.31758e-05
-3.04314e-05
1.40061e-05
-1.0677e-05
1.31087e-05
1.8534e-06
1.16162e-05
9.97724e-06
9.76469e-06
1.56173e-05
7.80969e-06
1.9581e-05
6.60156e-06
2.03085e-05
7.46319e-06
1.71289e-05
1.04043e-05
1.19358e-05
1.38458e-05
7.03719e-06
1.61609e-05
3.4422e-06
1.70146e-05
1.66987e-06
1.6953e-05
4.47293e-07
1.66846e-05
-1.01903e-06
1.69744e-05
-2.85941e-06
1.79878e-05
-5.01018e-06
1.96985e-05
-6.92659e-06
2.17791e-05
-7.69601e-06
2.30277e-05
-6.08544e-06
2.17095e-05
-2.39858e-06
1.43737e-05
4.16125e-06
1.04693e-05
7.70182e-06
-5.82263e-05
1.37624e-05
-3.6492e-05
1.57066e-05
-1.26212e-05
1.54355e-05
2.12448e-06
1.48078e-05
1.0605e-05
1.47122e-05
1.57129e-05
1.52767e-05
1.90166e-05
1.61121e-05
1.9473e-05
1.96566e-05
1.35844e-05
2.33014e-05
8.29104e-06
2.60491e-05
4.28955e-06
2.74392e-05
2.05214e-06
2.79726e-05
1.13646e-06
2.79593e-05
4.60605e-07
2.75688e-05
-6.28553e-07
2.69803e-05
-2.27089e-06
2.65177e-05
-4.54753e-06
2.67074e-05
-7.11634e-06
2.75666e-05
-8.55519e-06
2.81177e-05
-6.6365e-06
2.7662e-05
-1.94286e-06
2.05284e-05
1.12948e-05
3.09977e-05
1.01192e-07
-1.01192e-07
1.82688e-06
-1.72568e-06
-2.90655e-06
4.73343e-06
-2.07251e-05
1.78186e-05
-3.1845e-05
1.11199e-05
-3.39569e-05
2.11191e-06
-3.06765e-05
-3.2804e-06
-2.4548e-05
-6.12847e-06
-2.07509e-05
-3.79717e-06
-1.5182e-05
-5.56884e-06
-9.86348e-06
-5.31857e-06
-5.0905e-06
-4.77299e-06
6.53832e-07
-5.74433e-06
6.51472e-06
-5.86089e-06
1.09355e-05
-4.42079e-06
1.46031e-05
-3.66762e-06
1.72595e-05
-2.65634e-06
1.53563e-05
1.90315e-06
1.53563e-05
-4.25602e-06
4.1548e-06
-7.79434e-06
1.81262e-06
-9.56617e-06
6.50527e-06
-1.4057e-05
2.23093e-05
-1.79777e-05
1.50406e-05
-1.74697e-05
1.60389e-06
-1.64826e-05
-4.26743e-06
-1.90809e-05
-3.53017e-06
-2.08248e-05
-2.05327e-06
-1.54502e-05
-1.09434e-05
-1.0367e-05
-1.04017e-05
-6.13591e-06
-9.00413e-06
-2.73308e-06
-9.14718e-06
6.28904e-07
-9.22287e-06
4.12538e-06
-7.91727e-06
7.16668e-06
-6.70891e-06
1.03416e-05
-5.83131e-06
1.04412e-05
1.80358e-06
2.57975e-05
-1.0911e-05
1.50658e-05
-1.17089e-05
2.61051e-06
-1.37855e-05
8.58187e-06
-1.54265e-05
2.39503e-05
-2.0245e-05
1.98591e-05
-2.42642e-05
5.62313e-06
-2.49238e-05
-3.6078e-06
-2.06698e-05
-7.78414e-06
-1.55203e-05
-7.20278e-06
-1.3067e-05
-1.33967e-05
-1.06795e-05
-1.27892e-05
-8.35935e-06
-1.13243e-05
-5.42772e-06
-1.20788e-05
-3.46926e-06
-1.11813e-05
-2.95161e-06
-8.43492e-06
-2.26403e-06
-7.3965e-06
4.11102e-07
-8.50644e-06
4.55251e-06
-2.33783e-06
3.035e-05
-1.17613e-05
2.68271e-05
-1.23375e-05
3.18665e-06
-2.151e-05
1.77545e-05
-3.01353e-05
3.25756e-05
-3.39843e-05
2.3708e-05
-3.35474e-05
5.1863e-06
-2.67382e-05
-1.0417e-05
-1.87514e-05
-1.57711e-05
-1.10266e-05
-1.49275e-05
-9.60928e-06
-1.4814e-05
-9.83641e-06
-1.25621e-05
-9.5168e-06
-1.16439e-05
-7.45606e-06
-1.41396e-05
-7.74152e-06
-1.08959e-05
-1.00674e-05
-6.10899e-06
-1.26362e-05
-4.82769e-06
-1.04403e-05
-1.07024e-05
-2.95408e-06
-9.82401e-06
2.73959e-05
-1.56744e-05
4.25015e-05
-2.26892e-05
1.02015e-05
-3.35267e-05
2.85919e-05
-4.32851e-05
4.23341e-05
-4.28675e-05
2.32904e-05
-3.63542e-05
-1.32702e-06
-2.88173e-05
-1.79539e-05
-2.1851e-05
-2.27373e-05
-1.55082e-05
-2.12703e-05
-1.30665e-05
-1.72557e-05
-1.17703e-05
-1.38583e-05
-1.19709e-05
-1.14433e-05
-1.32955e-05
-1.2815e-05
-1.58843e-05
-8.30704e-06
-1.25338e-05
-9.45953e-06
-9.92442e-06
-7.43706e-06
-9.73215e-06
-1.08947e-05
-5.78548e-06
-1.37707e-05
2.16105e-05
-1.54191e-05
5.79206e-05
-2.73982e-05
2.21806e-05
-3.93441e-05
4.05379e-05
-4.68463e-05
4.98363e-05
-4.43144e-05
2.07585e-05
-3.73774e-05
-8.26407e-06
-2.99335e-05
-2.53977e-05
-2.49112e-05
-2.77598e-05
-2.3097e-05
-2.30845e-05
-2.18809e-05
-1.84719e-05
-1.97023e-05
-1.60368e-05
-1.91325e-05
-1.2013e-05
-1.81473e-05
-1.38001e-05
-1.24179e-05
-1.40364e-05
-7.25258e-06
-1.46249e-05
-4.81257e-06
-9.87706e-06
-6.67621e-06
-9.031e-06
-7.51035e-06
-1.29365e-05
1.41001e-05
-1.56333e-05
7.3554e-05
-2.95426e-05
3.60899e-05
-4.01917e-05
5.11869e-05
-4.42691e-05
5.39137e-05
-4.18284e-05
1.83177e-05
-3.61062e-05
-1.39862e-05
-2.86767e-05
-3.28273e-05
-2.54925e-05
-3.0944e-05
-2.61286e-05
-2.24484e-05
-2.57903e-05
-1.88102e-05
-2.44354e-05
-1.73917e-05
-2.08538e-05
-1.55945e-05
-1.51653e-05
-1.94886e-05
-6.85925e-06
-2.23424e-05
-3.01998e-06
-1.84641e-05
1.3351e-07
-1.30305e-05
-1.19247e-06
-7.705e-06
-5.7845e-06
-8.3445e-06
8.31563e-06
-1.54728e-05
8.90269e-05
-2.97356e-05
5.03527e-05
-3.88808e-05
6.03321e-05
-3.92452e-05
5.42781e-05
-3.75086e-05
1.65812e-05
-3.25929e-05
-1.8902e-05
-2.33253e-05
-4.20948e-05
-2.16225e-05
-3.26469e-05
-2.20203e-05
-2.20506e-05
-2.04735e-05
-2.0357e-05
-2.02002e-05
-1.76651e-05
-1.70014e-05
-1.87933e-05
-1.15755e-05
-2.49145e-05
-5.27022e-06
-2.86477e-05
-4.17201e-06
-1.95623e-05
-1.16871e-06
-1.60338e-05
-6.08968e-07
-8.26474e-06
-3.36167e-06
-5.59177e-06
4.95397e-06
1.50179e-05
-7.32442e-05
3.03657e-05
-5.18398e-05
4.13576e-05
-2.36131e-05
4.60415e-05
-2.55935e-06
4.97373e-05
6.90924e-06
5.25265e-05
1.29237e-05
5.62544e-05
1.52887e-05
6.40145e-05
1.17128e-05
7.00591e-05
7.53984e-06
7.37523e-05
4.59794e-06
7.48275e-05
3.21433e-06
7.41609e-05
2.71876e-06
7.25489e-05
2.7485e-06
7.02578e-05
2.75173e-06
6.73225e-05
2.30678e-06
6.41096e-05
9.41946e-07
6.17015e-05
-2.13943e-06
6.14484e-05
-6.86325e-06
6.19246e-05
-9.03138e-06
5.57425e-05
-4.54309e-07
4.4935e-05
8.86456e-06
3.18505e-05
2.43793e-05
3.69057e-05
2.59425e-05
4.71002e-06
-7.79542e-05
6.67725e-06
-5.3807e-05
8.74344e-06
-2.56793e-05
2.0583e-05
-1.43988e-05
3.67944e-05
-9.30221e-06
5.46136e-05
-4.89544e-06
7.1782e-05
-1.87975e-06
8.44692e-05
-9.74277e-07
9.23627e-05
-3.53673e-07
9.64125e-05
5.48177e-07
9.78098e-05
1.817e-06
9.69149e-05
3.61368e-06
9.41636e-05
5.49984e-06
8.99938e-05
6.9215e-06
8.48699e-05
7.43071e-06
7.93516e-05
6.46024e-06
7.3062e-05
4.15011e-06
6.17831e-05
4.41565e-06
4.05214e-05
1.22304e-05
1.56825e-05
2.43846e-05
-2.28118e-06
2.68283e-05
-9.58391e-06
3.1682e-05
4.07768e-05
-1.34549e-05
-1.15734e-06
-7.67968e-05
-5.90127e-06
-4.9063e-05
1.60794e-06
-3.31884e-05
2.22112e-05
-3.50021e-05
4.4576e-05
-3.1667e-05
6.53315e-05
-2.5651e-05
8.21044e-05
-1.86526e-05
9.3597e-05
-1.24669e-05
0.000100509
-7.26601e-06
0.000103923
-2.86568e-06
0.000104695
1.04529e-06
0.000102973
5.33539e-06
9.92002e-05
9.27287e-06
9.35082e-05
1.26134e-05
8.51301e-05
1.58088e-05
7.27732e-05
1.88172e-05
5.35622e-05
2.33611e-05
2.65891e-05
3.13887e-05
-8.14394e-07
3.96339e-05
-1.66501e-05
4.02203e-05
-2.74462e-05
3.76245e-05
-3.28119e-05
3.70477e-05
4.13055e-05
-3.33406e-05
1.16159e-05
-8.84128e-05
8.51646e-06
-4.59636e-05
1.48472e-05
-3.95192e-05
2.92975e-05
-4.94523e-05
4.67013e-05
-4.90709e-05
6.36038e-05
-4.25535e-05
7.71431e-05
-3.21919e-05
8.66491e-05
-2.19729e-05
9.22239e-05
-1.28408e-05
9.54515e-05
-6.09332e-06
9.68739e-05
-3.77051e-07
9.34121e-05
8.7971e-06
8.56894e-05
1.69956e-05
7.34541e-05
2.48487e-05
5.5877e-05
3.33859e-05
3.35445e-05
4.11496e-05
8.32992e-06
4.85757e-05
-1.4016e-05
5.37347e-05
-2.74217e-05
5.30395e-05
-3.45229e-05
4.73215e-05
-3.98854e-05
4.29869e-05
-4.66189e-05
4.37812e-05
4.45849e-05
-4.98982e-05
2.92678e-05
-0.000117681
3.37212e-05
-5.0417e-05
3.32248e-05
-3.90229e-05
3.84806e-05
-5.47081e-05
4.81909e-05
-5.87811e-05
5.87482e-05
-5.31109e-05
6.64098e-05
-3.98535e-05
7.14987e-05
-2.70619e-05
7.50685e-05
-1.64105e-05
7.20156e-05
-3.04042e-06
6.44411e-05
7.19745e-06
5.28762e-05
2.0362e-05
3.89118e-05
3.09599e-05
2.31624e-05
4.05981e-05
5.01196e-06
5.15364e-05
-1.33613e-05
5.95229e-05
-2.88592e-05
6.40736e-05
-3.86331e-05
6.35087e-05
-4.36321e-05
5.80385e-05
-4.67382e-05
5.04276e-05
-5.00322e-05
4.6281e-05
-5.36673e-05
4.74163e-05
4.78935e-05
-5.69758e-05
2.01853e-05
-0.000137866
3.93791e-05
-6.96107e-05
4.98034e-05
-4.94473e-05
5.23009e-05
-5.72055e-05
5.22921e-05
-5.87724e-05
5.06297e-05
-5.14484e-05
4.72073e-05
-3.64311e-05
4.00899e-05
-1.99445e-05
2.67891e-05
-3.10975e-06
1.35011e-05
1.02475e-05
4.91287e-06
1.57857e-05
-4.13738e-06
2.94123e-05
-1.52586e-05
4.20812e-05
-2.72892e-05
5.26287e-05
-3.87854e-05
6.30326e-05
-4.85839e-05
6.93214e-05
-5.47682e-05
7.02579e-05
-5.6769e-05
6.55095e-05
-5.70242e-05
5.82938e-05
-5.82098e-05
5.16132e-05
-6.11895e-05
4.92607e-05
-6.27077e-05
4.89345e-05
4.79148e-05
-6.2729e-05
6.1785e-06
-0.000144044
1.8749e-05
-8.21813e-05
3.43436e-05
-6.50417e-05
3.90199e-05
-6.1882e-05
3.24033e-05
-5.21557e-05
1.70005e-05
-3.60457e-05
-5.04648e-06
-1.43841e-05
-2.14202e-05
-3.57079e-06
-3.0845e-05
6.315e-06
-3.72555e-05
1.6658e-05
-4.89799e-05
2.751e-05
-5.54074e-05
3.58397e-05
-6.12576e-05
4.79313e-05
-6.85694e-05
5.99405e-05
-7.3637e-05
6.81002e-05
-7.52656e-05
7.09499e-05
-7.41486e-05
6.91409e-05
-7.19701e-05
6.33309e-05
-7.07086e-05
5.70323e-05
-7.09944e-05
5.1899e-05
-7.06298e-05
4.88961e-05
-6.89817e-05
4.72864e-05
4.58234e-05
-6.68903e-05
-4.49708e-06
-0.000139547
2.26742e-06
-8.89457e-05
1.10639e-05
-7.38383e-05
9.17748e-06
-5.99954e-05
-5.55434e-06
-3.74239e-05
-3.52982e-05
-6.30184e-06
-6.05431e-05
1.08609e-05
-7.29425e-05
8.82853e-06
-8.53834e-05
1.87558e-05
-9.19688e-05
2.32434e-05
-9.44358e-05
2.9977e-05
-9.72767e-05
3.86807e-05
-9.87497e-05
4.94042e-05
-9.92423e-05
6.0433e-05
-9.78943e-05
6.67522e-05
-9.38517e-05
6.69073e-05
-8.89554e-05
6.42445e-05
-8.48522e-05
5.92278e-05
-8.19739e-05
5.41539e-05
-7.97097e-05
4.96348e-05
-7.79772e-05
4.71636e-05
-7.5444e-05
4.47533e-05
4.21091e-05
-7.17297e-05
-1.12894e-05
-0.000128258
-9.02151e-06
-9.12137e-05
-9.94889e-06
-7.29107e-05
-2.28413e-05
-4.71029e-05
-7.80162e-05
1.77512e-05
-0.000112093
2.77752e-05
-0.000114092
1.286e-05
-0.000118889
1.36252e-05
-0.00011915
1.90167e-05
-0.00012061
2.47034e-05
-0.000121989
3.13556e-05
-0.00012247
3.91623e-05
-0.000120993
4.79271e-05
-0.000116924
5.63639e-05
-0.000111076
6.09046e-05
-0.000104137
5.99678e-05
-9.70623e-05
5.717e-05
-9.17801e-05
5.39456e-05
-8.80072e-05
5.0381e-05
-8.40289e-05
4.56565e-05
-7.97099e-05
4.28445e-05
-7.38906e-05
3.89339e-05
3.54589e-05
-6.72407e-05
-1.46175e-05
-0.00011364
-1.90524e-05
-8.67787e-05
-2.63228e-05
-6.56402e-05
-5.98397e-05
-1.3586e-05
-0.000129047
8.69585e-05
-0.000127586
2.63145e-05
-0.000127764
1.30383e-05
-0.000129817
1.56778e-05
-0.00013223
2.14301e-05
-0.000134606
2.70794e-05
-0.000135466
3.22152e-05
-0.000134191
3.78872e-05
-0.000130728
4.44638e-05
-0.000124285
4.99207e-05
-0.000115977
5.25969e-05
-0.000107556
5.15467e-05
-9.91169e-05
4.87311e-05
-9.19222e-05
4.67509e-05
-8.36823e-05
4.21409e-05
-7.47314e-05
3.6705e-05
-6.68247e-05
3.49377e-05
-7.32815e-05
4.53907e-05
3.55087e-05
-7.33318e-05
-1.62615e-05
-9.7379e-05
-2.58726e-05
-7.71676e-05
-3.68436e-05
-5.4669e-05
-7.29355e-05
2.25057e-05
-0.000127224
0.000141247
-0.000124164
2.32551e-05
-0.000125501
1.43748e-05
-0.000129303
1.94801e-05
-0.000134522
2.6649e-05
-0.000139046
3.16036e-05
-0.000140043
3.32117e-05
-0.000136947
3.47913e-05
-0.000131559
3.90761e-05
-0.000123994
4.23556e-05
-0.000114869
4.34718e-05
-0.000103548
4.02244e-05
-8.85137e-05
3.36969e-05
-7.25702e-05
3.08073e-05
-7.70563e-05
4.6627e-05
-8.74359e-05
4.7084e-05
-9.08327e-05
3.83344e-05
-7.80225e-05
3.25807e-05
2.59717e-05
-6.84857e-05
-1.74185e-05
-7.99606e-05
-2.8924e-05
-6.5662e-05
-3.75451e-05
-4.60479e-05
-3.67654e-05
2.17271e-05
-0.000102575
0.000207055
-0.000105575
2.62541e-05
-0.000109406
1.82059e-05
-0.000115899
2.59734e-05
-0.000124686
3.54357e-05
-0.000132868
3.97858e-05
-0.000135058
3.54003e-05
-0.000131404
3.11349e-05
-0.000125901
3.35712e-05
-0.00011984
3.62943e-05
-0.000110124
3.37552e-05
-0.000106277
3.63779e-05
-0.000108106
3.55258e-05
-0.000110576
3.32762e-05
-9.69755e-05
3.3027e-05
-8.14005e-05
3.15101e-05
-6.954e-05
2.64744e-05
-5.39456e-05
1.69862e-05
6.80999e-06
-3.47844e-05
-1.80591e-05
-6.19015e-05
-3.1498e-05
-5.22232e-05
-4.0052e-05
-3.74934e-05
-1.46824e-05
-3.6419e-06
-2.49158e-05
0.000217289
-6.83444e-05
6.96807e-05
-7.71105e-05
2.69721e-05
-8.30659e-05
3.19291e-05
-7.86814e-05
3.10512e-05
-9.75244e-05
5.86278e-05
-0.000102599
4.04734e-05
-0.000109901
3.84352e-05
-0.000118303
4.19708e-05
-0.000124306
4.22968e-05
-0.000129561
3.901e-05
-0.000126198
3.30148e-05
-0.000116596
2.59243e-05
-0.000103093
1.97735e-05
-8.51164e-05
1.50498e-05
-6.24596e-05
8.85421e-06
-4.01553e-05
4.1702e-06
-2.13075e-05
-1.86174e-06
-6.52058e-06
-7.97834e-06
-1.70699e-05
-4.48317e-05
-3.10831e-05
-3.82099e-05
-4.21123e-05
-2.64643e-05
-4.28399e-05
-2.91076e-06
5.97746e-05
0.000114672
-1.28739e-05
0.000142325
-4.61198e-05
6.02178e-05
-4.8527e-05
3.43364e-05
-3.67225e-05
1.92469e-05
-5.4312e-05
7.6216e-05
-7.81676e-05
6.43285e-05
-9.78236e-05
5.80917e-05
-0.000111573
5.57204e-05
-0.00012007
5.07934e-05
-0.000121523
4.04631e-05
-0.000114086
2.55776e-05
-9.72666e-05
9.10444e-06
-7.54675e-05
-2.02603e-06
-5.38716e-05
-6.54639e-06
-3.58287e-05
-9.18887e-06
-2.03624e-05
-1.12962e-05
-8.73335e-06
-1.34914e-05
-1.50112e-05
-2.43938e-07
-1.52495e-05
-2.95822e-05
-2.75432e-05
-2.59163e-05
-3.71711e-05
-1.68362e-05
-4.32083e-05
3.12654e-06
2.61072e-05
4.53578e-05
3.37232e-05
0.000134708
-2.35607e-05
0.000117501
-8.59795e-06
1.93734e-05
1.29418e-05
-2.29087e-06
-2.38833e-05
0.000113039
-5.30497e-05
9.34915e-05
-7.96292e-05
8.46708e-05
-9.58018e-05
7.18929e-05
-0.000102113
5.71048e-05
-9.82653e-05
3.66145e-05
-8.44384e-05
1.17501e-05
-6.51853e-05
-1.01494e-05
-4.85281e-05
-1.8684e-05
-3.45181e-05
-2.05569e-05
-2.21587e-05
-2.15486e-05
-1.15258e-05
-2.19295e-05
-2.93292e-06
-2.20844e-05
-2.16704e-05
3.72482e-06
-1.24479e-05
-1.71343e-05
-2.17089e-05
-1.66553e-05
-2.82541e-05
-1.02911e-05
-2.84121e-05
3.28467e-06
-1.2834e-05
2.97799e-05
3.3408e-05
8.84667e-05
5.04991e-05
0.00010041
3.01559e-05
3.97152e-05
1.62913e-05
1.15695e-05
6.47098e-06
0.000122858
-3.31411e-05
0.000133102
-5.69093e-05
0.000108438
-7.09145e-05
8.58974e-05
-7.4763e-05
6.09526e-05
-6.91444e-05
3.09952e-05
-5.33384e-05
-4.05676e-06
-3.94057e-05
-2.4083e-05
-2.97544e-05
-2.83361e-05
-2.0298e-05
-3.0014e-05
-1.18528e-05
-2.99941e-05
-4.62388e-06
-2.91587e-05
1.33026e-06
-2.80393e-05
-2.65791e-05
6.2376e-06
-9.17716e-06
-7.95712e-06
-1.42976e-05
-1.15348e-05
-1.72728e-05
-7.31581e-06
-1.57776e-05
1.78951e-06
-4.23507e-06
1.82375e-05
3.4137e-05
5.00949e-05
7.36689e-05
6.08775e-05
6.97783e-05
4.36016e-05
3.49808e-05
4.63651e-05
4.81664e-07
0.000157358
-2.24641e-05
0.000156047
-3.86307e-05
0.000124604
-4.65938e-05
9.38597e-05
-4.60933e-05
6.04513e-05
-3.55614e-05
2.04625e-05
-2.40838e-05
-1.55353e-05
-1.94819e-05
-2.86857e-05
-1.39023e-05
-3.39166e-05
-8.39486e-06
-3.55222e-05
-3.37363e-06
-3.50158e-05
1.01313e-06
-3.35459e-05
4.70125e-06
-3.17277e-05
-2.97795e-05
7.90001e-06
-5.72416e-06
-2.23296e-06
-5.73166e-06
-1.15272e-05
-4.08903e-06
-8.95838e-06
-6.46583e-07
-1.65279e-06
1.43068e-05
3.28414e-06
5.55475e-05
8.85429e-06
0.000125256
-8.83137e-06
9.49973e-05
7.38547e-05
2.80278e-05
0.000113337
-3.01409e-06
0.000188403
-1.69243e-05
0.000169956
-2.50595e-05
0.000132738
-2.64324e-05
9.52318e-05
-2.05117e-05
5.45297e-05
-1.00629e-05
1.00128e-05
-5.71997e-06
-1.98791e-05
-3.76913e-06
-3.06375e-05
-1.32016e-06
-3.63664e-05
1.05195e-06
-3.7895e-05
3.37757e-06
-3.73418e-05
5.51618e-06
-3.56849e-05
7.40124e-06
-3.36135e-05
-3.14556e-05
9.07604e-06
-2.35804e-06
1.25132e-07
2.91383e-06
-1.67991e-05
9.77167e-06
-1.58161e-05
2.11746e-05
-1.30557e-05
4.84332e-05
-2.39745e-05
0.000102341
-4.5053e-05
6.54856e-05
2.80147e-05
3.39696e-05
0.000105373
-2.56122e-05
0.000172928
-2.04632e-05
0.000183255
-1.96176e-05
0.00016911
-1.70189e-05
0.000130139
-9.9302e-06
8.81422e-05
1.61648e-06
4.29821e-05
8.13554e-06
3.49274e-06
7.58371e-06
-1.93282e-05
7.91374e-06
-3.09684e-05
8.0556e-06
-3.65091e-05
8.37443e-06
-3.82146e-05
8.7538e-06
-3.77216e-05
9.1735e-06
-3.6105e-05
9.60015e-06
-3.40404e-05
-3.18906e-05
1.00336e-05
2.59469e-06
-2.46949e-06
1.08042e-05
-2.50086e-05
2.05772e-05
-2.5589e-05
3.86427e-05
-3.11212e-05
6.6251e-05
-5.15829e-05
0.000100178
-7.89837e-05
1.82215e-05
0.000109971
-4.25195e-05
0.000166121
-3.70857e-05
0.000167496
-3.15887e-05
0.000177758
-2.1082e-05
0.000158603
-9.93356e-06
0.000118989
3.66766e-06
7.45401e-05
1.43751e-05
3.22737e-05
1.76878e-05
1.79078e-07
1.75006e-05
-1.91418e-05
1.64919e-05
-2.99606e-05
1.52116e-05
-3.52297e-05
1.39843e-05
-3.6988e-05
1.29261e-05
-3.66637e-05
1.20702e-05
-3.52494e-05
1.13999e-05
-3.33709e-05
-3.13788e-05
1.08867e-05
8.69026e-06
-1.11597e-05
1.73417e-05
-3.36599e-05
3.02791e-05
-3.85263e-05
5.42353e-05
-5.50773e-05
0.000107635
-0.000104982
1.59817e-06
2.70467e-05
-3.39887e-05
0.00014556
-4.87002e-05
0.000180839
-4.42954e-05
0.000163092
-3.3932e-05
0.000167394
-1.84074e-05
0.000143078
-1.45525e-06
0.000102036
1.36709e-05
5.94131e-05
2.23107e-05
2.3633e-05
2.47776e-05
-2.28869e-06
2.42722e-05
-1.86373e-05
2.24822e-05
-2.81714e-05
2.02617e-05
-3.30099e-05
1.80412e-05
-3.47681e-05
1.60305e-05
-3.46533e-05
1.43052e-05
-3.35246e-05
1.28688e-05
-3.19347e-05
-3.02046e-05
1.16931e-05
1.20676e-05
-2.32272e-05
2.38955e-05
-4.54878e-05
4.7759e-05
-6.23898e-05
7.85713e-05
-8.58892e-05
2.2847e-06
-2.86964e-05
-7.08844e-05
0.000100216
-8.53123e-05
0.00015999
-5.86261e-05
0.000154154
-4.93963e-05
0.000153863
-3.27423e-05
0.00015074
-1.25473e-05
0.000122882
6.86906e-06
8.2619e-05
2.05059e-05
4.57754e-05
2.74746e-05
1.66636e-05
2.93552e-05
-4.17004e-06
2.84992e-05
-1.7782e-05
2.62938e-05
-2.59667e-05
2.35681e-05
-3.02849e-05
2.07926e-05
-3.19932e-05
1.82189e-05
-3.20798e-05
1.59591e-05
-3.12649e-05
1.40354e-05
-3.00116e-05
-2.85931e-05
1.24226e-05
1.5968e-05
-3.9195e-05
3.5905e-05
-6.54249e-05
5.44298e-05
-8.09147e-05
-6.36516e-06
-2.50916e-05
-8.95417e-05
5.44817e-05
-9.0142e-05
0.000100819
-7.30089e-05
0.000142858
-5.81562e-05
0.000139302
-4.58528e-05
0.000141559
-2.66061e-05
0.000131493
-4.34655e-06
0.000100622
1.3814e-05
6.44578e-05
2.51703e-05
3.44186e-05
3.06007e-05
1.12325e-05
3.19277e-05
-5.4976e-06
3.08413e-05
-1.66961e-05
2.84665e-05
-2.35925e-05
2.55356e-05
-2.73545e-05
2.25101e-05
-2.89682e-05
1.96611e-05
-2.92309e-05
1.71175e-05
-2.87217e-05
1.49187e-05
-2.78129e-05
-2.673e-05
1.30544e-05
1.3647e-05
-5.2842e-05
2.20941e-05
-7.3872e-05
2.5315e-05
-8.41335e-05
-2.98995e-05
3.01261e-05
-6.26706e-05
8.72552e-05
-7.45071e-05
0.000112657
-6.16638e-05
0.000130016
-5.20482e-05
0.000129687
-3.78985e-05
0.00012741
-1.7363e-05
0.000110957
3.90236e-06
7.9356e-05
1.90101e-05
4.93497e-05
2.81081e-05
2.53201e-05
3.22695e-05
7.07067e-06
3.31294e-05
-6.3579e-06
3.19035e-05
-1.54706e-05
2.94875e-05
-2.1177e-05
2.65181e-05
-2.43855e-05
2.34308e-05
-2.58812e-05
2.04934e-05
-2.62937e-05
1.78443e-05
-2.60727e-05
1.5529e-05
-2.54981e-05
-2.47418e-05
1.35396e-05
1.32396e-05
-6.60811e-05
2.15498e-05
-8.21817e-05
1.2337e-05
-7.49204e-05
-2.5071e-05
6.75364e-05
-4.82425e-05
0.00011043
-5.55796e-05
0.000119995
-4.94418e-05
0.000123879
-4.18949e-05
0.000122141
-2.71044e-05
0.00011262
-6.85522e-06
9.07081e-05
1.09723e-05
6.15285e-05
2.28664e-05
3.74556e-05
2.98596e-05
1.83268e-05
3.29928e-05
3.93736e-06
3.34465e-05
-6.81177e-06
3.21041e-05
-1.41285e-05
2.96936e-05
-1.87667e-05
2.67725e-05
-2.14647e-05
2.37387e-05
-2.28477e-05
2.08419e-05
-2.33969e-05
1.8207e-05
-2.34381e-05
1.58812e-05
-2.31724e-05
-2.2728e-05
1.38662e-05
1.53209e-05
-8.14024e-05
5.19473e-05
-0.000118809
7.6404e-05
-9.93782e-05
2.08002e-06
0.000141861
-3.55994e-05
0.000148112
-4.4037e-05
0.000128434
-4.06347e-05
0.000120478
-3.17494e-05
0.000113256
-1.60957e-05
9.69672e-05
2.28129e-06
7.23316e-05
1.61681e-05
4.76421e-05
2.54328e-05
2.81912e-05
3.0778e-05
1.29818e-05
3.30851e-05
1.63034e-06
3.31575e-05
-6.88417e-06
3.16921e-05
-1.26631e-05
2.93055e-05
-1.63803e-05
2.64854e-05
-1.86447e-05
2.35796e-05
-1.99421e-05
2.08015e-05
-2.06188e-05
1.82606e-05
-2.08972e-05
1.59962e-05
-2.09085e-05
-2.07422e-05
1.40096e-05
2.1987e-05
-0.000103393
1.95806e-06
-9.87857e-05
-7.44381e-05
-2.2984e-05
-5.58745e-05
0.000123297
-4.6158e-05
0.000138394
-4.24484e-05
0.000124726
-3.5285e-05
0.000113316
-2.31593e-05
0.000101132
-6.73939e-06
8.05483e-05
8.84164e-06
5.67515e-05
1.97845e-05
3.67001e-05
2.70267e-05
2.09496e-05
3.11009e-05
8.90813e-06
3.27016e-05
2.99944e-08
3.24052e-05
-6.5875e-06
3.08192e-05
-1.10769e-05
2.84788e-05
-1.40399e-05
2.58005e-05
-1.59664e-05
2.30719e-05
-1.72135e-05
2.04649e-05
-1.80117e-05
1.80623e-05
-1.84948e-05
1.58981e-05
-1.87442e-05
-1.8824e-05
1.3979e-05
-2.46296e-06
-0.000100935
-4.22527e-05
-5.90022e-05
-9.17743e-05
2.65343e-05
-7.26222e-05
0.000104144
-5.6455e-05
0.000122228
-4.3894e-05
0.000112166
-3.14401e-05
0.000100863
-1.59655e-05
8.56584e-05
4.24465e-07
6.41596e-05
1.32933e-05
4.38839e-05
2.2209e-05
2.77854e-05
2.79272e-05
1.52323e-05
3.09616e-05
5.87441e-06
3.19188e-05
-9.26542e-07
3.12787e-05
-5.94699e-06
2.9599e-05
-9.39692e-06
2.73381e-05
-1.17788e-05
2.48348e-05
-1.34631e-05
2.23116e-05
-1.46904e-05
1.98963e-05
-1.55962e-05
1.7655e-05
-1.62533e-05
1.56135e-05
-1.67031e-05
-1.69867e-05
1.37755e-05
-2.86083e-05
-7.23279e-05
-6.72924e-05
-2.03194e-05
-8.31317e-05
4.23728e-05
-7.67125e-05
9.7725e-05
-5.91245e-05
0.00010464
-4.30521e-05
9.60947e-05
-2.65902e-05
8.44024e-05
-9.20017e-06
6.82696e-05
5.89704e-06
4.90638e-05
1.66464e-05
3.31359e-05
2.39284e-05
2.05046e-05
2.8344e-05
1.08178e-05
3.04457e-05
3.77362e-06
3.07976e-05
-1.27766e-06
2.98628e-05
-5.01159e-06
2.81357e-05
-7.66936e-06
2.59903e-05
-9.6331e-06
2.36834e-05
-1.11559e-05
2.13753e-05
-1.23822e-05
1.91587e-05
-1.33793e-05
1.70801e-05
-1.41748e-05
1.51648e-05
-1.47876e-05
-1.5245e-05
1.34223e-05
-3.27084e-05
-3.96185e-05
-5.98576e-05
6.83017e-06
-7.3463e-05
5.59783e-05
-6.59151e-05
9.01775e-05
-5.03446e-05
8.90708e-05
-3.49722e-05
8.07235e-05
-1.80308e-05
6.74622e-05
-1.56974e-06
5.18099e-05
1.09056e-05
3.65898e-05
1.9601e-05
2.44418e-05
2.52396e-05
1.48673e-05
2.83736e-05
7.68494e-06
2.95867e-05
2.56151e-06
2.93964e-05
-1.08647e-06
2.82417e-05
-3.85629e-06
2.65243e-05
-5.9514e-06
2.45242e-05
-7.63253e-06
2.24202e-05
-9.05169e-06
2.03209e-05
-1.02826e-05
1.82906e-05
-1.13487e-05
1.63697e-05
-1.22537e-05
1.45799e-05
-1.2998e-05
-1.35953e-05
1.293e-05
-2.80592e-05
-1.15581e-05
-4.97678e-05
2.85398e-05
-5.80349e-05
6.4246e-05
-5.03279e-05
8.24713e-05
-3.67085e-05
7.54523e-05
-2.22365e-05
6.62526e-05
-6.96437e-06
5.21913e-05
6.28935e-06
3.85575e-05
1.57629e-05
2.71175e-05
2.22194e-05
1.79867e-05
2.61301e-05
1.09578e-05
2.80059e-05
5.81028e-06
2.84096e-05
2.15888e-06
2.77879e-05
-4.63879e-07
2.65042e-05
-2.57176e-06
2.48476e-05
-4.29421e-06
2.30071e-05
-5.79162e-06
2.10979e-05
-7.14203e-06
1.91906e-05
-8.37504e-06
1.73322e-05
-9.48991e-06
1.55539e-05
-1.04753e-05
1.38785e-05
-1.13221e-05
-1.20361e-05
1.23191e-05
-2.21067e-05
1.05508e-05
-3.63005e-05
4.2735e-05
-4.1137e-05
6.90835e-05
-3.30865e-05
7.44217e-05
-2.141e-05
6.37767e-05
-8.03619e-06
5.28798e-05
4.01822e-06
4.01379e-05
1.33191e-05
2.92577e-05
1.99195e-05
2.05184e-05
2.41746e-05
1.37327e-05
2.64508e-05
8.6828e-06
2.72173e-05
5.0449e-06
2.69555e-05
2.4217e-06
2.60552e-05
4.37281e-07
2.4722e-05
-1.2378e-06
2.31605e-05
-2.73205e-06
2.14804e-05
-4.11101e-06
1.97488e-05
-5.41002e-06
1.80111e-05
-6.63709e-06
1.63026e-05
-7.78105e-06
1.46543e-05
-8.82668e-06
1.30859e-05
-9.7538e-06
-1.05562e-05
1.16059e-05
-1.53276e-05
2.58796e-05
-2.37624e-05
5.11709e-05
-2.53281e-05
7.06503e-05
-1.65319e-05
6.56263e-05
-6.64792e-06
5.38936e-05
4.11077e-06
4.21219e-05
1.25528e-05
3.16967e-05
1.87189e-05
2.30925e-05
2.285e-05
1.63883e-05
2.52014e-05
1.13823e-05
2.61307e-05
7.75443e-06
2.60507e-05
5.12591e-06
2.53342e-05
3.13909e-06
2.42556e-05
1.51664e-06
2.29437e-05
7.48501e-08
2.14936e-05
-1.28137e-06
1.99644e-05
-2.5813e-06
1.83908e-05
-3.836e-06
1.68006e-05
-5.04652e-06
1.52247e-05
-6.20488e-06
1.36877e-05
-7.28952e-06
1.22121e-05
-8.27773e-06
-9.15421e-06
1.08097e-05
-9.5902e-06
3.54715e-05
-1.36322e-05
5.52139e-05
-1.15942e-05
6.86131e-05
-2.23625e-06
5.62691e-05
5.76146e-06
4.58965e-05
1.29848e-05
3.48992e-05
1.84778e-05
2.62044e-05
2.22069e-05
1.9364e-05
2.43703e-05
1.42256e-05
2.52596e-05
1.04938e-05
2.5223e-05
7.79178e-06
2.45902e-05
5.75948e-06
2.36148e-05
4.11523e-06
2.24582e-05
2.674e-06
2.11988e-05
1.33483e-06
1.98626e-05
5.5393e-08
1.8468e-05
-1.18627e-06
1.70316e-05
-2.39933e-06
1.55695e-05
-3.58414e-06
1.41057e-05
-4.74079e-06
1.26689e-05
-5.85234e-06
1.12785e-05
-6.88751e-06
-7.81958e-06
9.94392e-06
-5.43954e-06
4.09112e-05
-5.74475e-06
5.55196e-05
-2.75413e-07
6.31442e-05
7.3536e-06
4.86405e-05
1.38297e-05
3.94207e-05
1.86236e-05
3.01056e-05
2.19275e-05
2.29009e-05
2.38242e-05
1.74678e-05
2.45695e-05
1.34808e-05
2.4482e-05
1.05818e-05
2.38607e-05
8.41374e-06
2.2936e-05
6.68471e-06
2.18563e-05
5.1955e-06
2.07001e-05
3.83081e-06
1.95e-05
2.53532e-06
1.8266e-05
1.28991e-06
1.69908e-05
8.92968e-08
1.56724e-05
-1.08068e-06
1.43219e-05
-2.23339e-06
1.29583e-05
-3.377e-06
1.16065e-05
-4.50048e-06
1.02886e-05
-5.56901e-06
-6.54892e-06
9.01772e-06
-2.25944e-06
4.31717e-05
2.8674e-07
5.2974e-05
7.80985e-06
5.56214e-05
1.35687e-05
4.28819e-05
1.83857e-05
3.46039e-05
2.14638e-05
2.70277e-05
2.31943e-05
2.11705e-05
2.38438e-05
1.68186e-05
2.37142e-05
1.36107e-05
2.30929e-05
1.12035e-05
2.22004e-05
9.30662e-06
2.11769e-05
7.7087e-06
2.00952e-05
6.27757e-06
1.89848e-05
4.94168e-06
1.78526e-05
3.66786e-06
1.66991e-05
2.44373e-06
1.55222e-05
1.26643e-06
1.43095e-05
1.32223e-07
1.3059e-05
-9.82654e-07
1.17836e-05
-2.10141e-06
1.05086e-05
-3.22527e-06
9.25925e-06
-4.32007e-06
-5.33161e-06
8.042e-06
2.21946e-07
4.29495e-05
4.48744e-06
4.87085e-05
1.20641e-05
4.80448e-05
1.66974e-05
3.82486e-05
2.01086e-05
3.11927e-05
2.19937e-05
2.51427e-05
2.27391e-05
2.04253e-05
2.26932e-05
1.68646e-05
2.21494e-05
1.41546e-05
2.13314e-05
1.20217e-05
2.03832e-05
1.02551e-05
1.93805e-05
8.71163e-06
1.8354e-05
7.30435e-06
1.73105e-05
5.98551e-06
1.6248e-05
4.73058e-06
1.51643e-05
3.52766e-06
1.40601e-05
2.37086e-06
1.29356e-05
1.25685e-06
1.1775e-05
1.78112e-07
1.05798e-05