/*--------------------------------*- C++ -*----------------------------------*\
| =========                 |                                                 |
| \\      /  F ield         | OpenFOAM: The Open Source CFD Toolbox           |
|  \\    /   O peration     | Version:  2312                                  |
|   \\  /    A nd           | Website:  www.openfoam.com                      |
|    \\/     M anipulation  |                                                 |
\*---------------------------------------------------------------------------*/
FoamFile
{
    version     2.0;
    format      ascii;
    arch        "LSB;label=32;scalar=64";
    class       volScalarField;
    location    "2.45";
    object      alpha.water_0;
}
// * * * * * * * * * * * * * * * * * * * * * * * * * * * * * * * * * * * * * //

dimensions      [0 0 0 0 0 0 0];

internalField   nonuniform List<scalar> 
2268
(
2.957e-08
8.45937e-09
1.69084e-09
4.82468e-10
2.37666e-10
1.41123e-10
7.76899e-11
5.38874e-11
3.87305e-11
3.2088e-11
2.98795e-11
2.95636e-11
3.10557e-11
3.48555e-11
4.17195e-11
5.19941e-11
7.23712e-11
1.15816e-10
1.8724e-10
3.27956e-10
5.77856e-10
8.89693e-10
1.17676e-09
5.1147e-07
1.0848e-07
8.1657e-09
8.09206e-10
2.74107e-10
1.64977e-10
1.3472e-10
1.1763e-10
7.29427e-11
4.92529e-11
4.31164e-11
4.15432e-11
4.22031e-11
4.7023e-11
6.84867e-11
9.00096e-11
1.17745e-10
2.16134e-10
4.1743e-10
7.97782e-10
1.5038e-09
2.04217e-09
2.11065e-09
9.02604e-07
3.63817e-07
6.44783e-09
4.11215e-10
2.05489e-10
1.32768e-10
7.52267e-10
6.43343e-10
2.80852e-10
1.20617e-10
6.27537e-11
4.70863e-11
4.80073e-11
6.86173e-11
1.27688e-10
2.01415e-10
2.66212e-10
2.99169e-10
4.29618e-10
7.67417e-10
1.28731e-09
2.04498e-09
1.81175e-09
-6.83571e-10
1.32061e-21
-1.24831e-21
1.37322e-20
-8.12476e-21
6.49329e-11
6.06916e-11
1.09365e-09
5.89003e-10
2.44774e-10
9.24808e-11
4.14737e-11
3.59743e-11
4.83098e-11
8.50791e-11
1.37803e-10
1.66351e-10
1.78814e-10
1.79494e-10
2.72264e-10
2.87081e-10
6.02162e-10
5.0256e-10
0.00593199
0.00760929
0.012279
0.0163109
0.0141689
0.00596679
0.00016592
1.87762e-19
-7.25238e-20
-1.67209e-15
-1.29097e-14
-4.79431e-16
6.07962e-19
6.06822e-12
1.33316e-11
1.72515e-11
2.6912e-11
2.02425e-11
5.63909e-15
2.9406e-23
3.94916e-20
3.05871e-26
3.9469e-20
0.52351
0.551412
0.592072
0.618505
0.607572
0.544799
0.428857
0.294282
0.184157
0.0962052
0.0364959
0.00683512
6.96854e-05
-8.32423e-21
-4.37355e-13
1.06973e-24
3.67004e-26
3.02919e-26
1.98074e-08
0.0178987
0.042805
0.0657812
0.107838
0.993571
0.994887
0.997211
0.997598
0.99888
0.999448
0.99929
0.977397
0.916216
0.822839
0.696483
0.547291
0.405242
0.306892
0.265026
0.289603
0.354155
0.449913
0.567393
0.64438
0.634468
0.721646
0.806421
0.997611
0.997627
0.997634
0.997979
0.999448
0.999448
0.999449
0.999449
0.999449
0.999449
0.999449
0.998896
0.984773
0.959601
0.946311
0.890073
0.889289
0.868416
0.760092
0.777096
0.914627
0.919879
0.920376
0.0357156
0.0272097
0.0272827
0.0270748
0.024435
0.0181201
0.0181697
0.0182053
0.0216537
0.0265321
0.0220846
0.0209607
0.0208833
0.0202688
0.0202556
0.0202489
0.0202191
0.0171833
0.0093039
0.0725252
0.0504582
0.0250478
0.0251185
0.0253583
0.0247384
0.0161135
0.0162009
0.0322702
0.039632
0.0374104
0.0211116
0.0310398
0.0486754
0.0244343
0.0194558
0.0194448
0.00930042
0.00929939
0.59812
0.536125
0.402544
0.262938
0.158199
0.066505
0.0354273
0.0413907
0.0523348
0.041773
0.0379484
0.0370425
0.0678825
0.292646
0.506179
0.226738
0.0106466
0.00930144
0.00928577
0.656687
0.640103
0.649301
0.64916
0.562805
0.460453
0.394184
0.421283
0.430041
0.425555
0.403774
0.408049
0.4765
0.670084
0.671467
0.647149
0.0850391
0.00928574
0.00928883
0.593821
0.556897
0.549448
0.549716
0.548273
0.565676
0.608933
0.59865
0.513862
0.577265
0.594671
0.622455
0.623071
0.622679
0.580076
0.450849
0.256225
0.1632
0.119814
0.594569
0.865282
0.822551
0.843804
0.831083
0.73643
0.627993
0.728662
0.334619
0.335429
0.336971
0.335481
0.449284
0.550857
0.485927
0.355766
0.355021
0.472219
0.48657
0.774593
0.99969
0.999737
0.999737
0.999737
0.997671
0.792906
0.744106
0.51752
0.773255
0.77071
0.655737
0.818727
0.828833
0.788152
0.483638
0.495276
0.715158
0.601403
0.98838
0.99884
0.999737
0.999721
0.999736
0.999732
0.971875
0.792633
0.9151
0.943193
0.93861
0.769435
0.818563
0.828862
0.82887
0.813595
0.809975
0.793233
0.582831
0.992453
0.99099
0.997698
0.999408
0.999444
0.999448
0.999449
0.999449
0.999449
0.99945
0.998707
0.959739
0.828051
0.698282
0.698675
0.702604
0.755137
0.980609
0.972
0.946587
0.868237
0.821702
0.835088
0.320906
0.815688
0.998189
0.998673
0.997371
0.996897
0.999449
0.999449
0.99945
0.999449
0.992327
0.792241
0.665373
0.665523
0.722473
0.98946
0.993295
0.993757
0.993757
0.991591
0.97204
0.886651
0.8868
0.0262624
0.0993648
0.497962
0.96215
0.989825
0.978519
0.978454
0.990051
0.995955
0.999414
0.999405
0.96708
0.893383
0.823866
0.821576
0.828436
0.79162
0.817383
0.802155
0.812199
0.836885
0.804832
0.701547
0.00167576
0.00168939
0.0692588
0.294207
0.719838
0.881524
0.902195
0.907268
0.911502
0.948425
0.90201
0.797198
0.642929
0.509513
0.404228
0.226265
0.113378
0.0982045
0.0987289
0.0823638
0.0988014
0.104278
0.0760771
0.00274518
0.00171625
0.00447003
0.044568
0.0839343
0.101254
0.181287
0.39393
0.461363
0.390497
0.251755
0.15508
0.0885749
0.0101021
2.74374e-20
1.32541e-20
3.7896e-28
-5.13955e-19
6.36068e-21
-1.05438e-10
6.46402e-17
0.000126773
0.000589321
0.00214852
0.00183694
1.54751e-06
0.000197071
1.38901e-12
1.58668e-12
1.7711e-12
7.54777e-17
8.5675e-17
1.39764e-19
3.89337e-20
-5.21402e-38
-1.28601e-25
-7.01264e-25
1.46572e-12
1.34363e-20
5.53598e-10
-4.85303e-16
2.45372e-07
1.45793e-07
1.31347e-11
4.16726e-10
0.000161414
0.000675714
0.000669974
1.55111e-06
8.55093e-06
3.30683e-05
2.31505e-05
8.6027e-06
6.22526e-17
2.79282e-07
3.20559e-07
9.29554e-08
3.88025e-24
-1.69723e-23
-2.30482e-23
-3.29942e-15
3.00037e-08
2.23258e-05
5.92305e-05
3.15943e-05
1.42763e-07
3.6512e-05
0.000207536
0.000527092
0.00048924
0.00104321
0.000564047
0.000531382
0.000111832
3.19028e-05
4.22276e-05
1.46833e-05
9.07406e-06
4.12282e-06
1.30649e-07
2.52276e-06
5.55715e-05
0.000144739
0.000242958
0.000383348
0.000438505
0.000384601
0.000287489
0.000174515
0.000111199
0.000113813
0.00511865
0.000491004
0.00166532
0.00167683
0.00092251
0.00103316
0.000829354
0.000975139
0.000533577
1.73196e-05
4.14632e-06
2.40332e-05
0.000233079
0.000717901
0.00103695
0.00168598
0.00201559
0.00201036
0.00200502
0.0014783
0.000403989
0.0010738
0.0044198
0.00445268
0.000850289
0.000934192
0.000963021
0.000786193
0.00124727
0.00121473
0.00133236
0.00259042
0.00231606
0.00155446
0.00146793
0.00205207
0.00262577
0.00262594
0.00252122
0.00204892
0.00139262
0.0014702
0.00146767
0.00118517
0.000232623
2.75278e-05
1.5545e-06
0.00103334
0.000120515
0.000120514
0.000178619
0.000224098
0.000462288
0.000663498
0.00371529
0.00568657
0.00569927
0.00568657
0.00400671
0.00043737
0.000144578
1.64466e-05
2.49073e-06
1.81174e-06
5.74911e-05
3.45485e-05
2.40829e-06
2.40834e-06
4.43793e-05
0.000102391
0.00101692
0.000125497
0.000120514
0.000624577
0.00151264
0.00307144
0.0037284
0.00287312
0.000812501
0.00116151
0.0011008
0.000698897
9.00313e-05
1.17633e-05
3.07914e-07
3.18581e-07
1.79808e-06
1.46321e-06
2.4775e-06
8.80998e-05
0.000251916
0.000252072
0.000118636
0.00491593
0.00585434
0.00946324
0.0145523
0.0207119
0.0240057
0.0216805
0.0082921
2.0399e-05
9.33135e-07
9.38979e-07
8.65834e-07
5.05277e-06
9.67217e-07
1.87624e-06
2.18847e-06
1.24966e-06
1.60211e-07
1.66571e-07
9.05058e-05
0.000228373
0.000250871
3.94261e-05
0.0126497
0.0142666
0.0225233
0.0266459
0.0264376
0.022952
0.0121761
0.0036047
0.00127596
0.000173572
1.33456e-05
2.77751e-06
6.45945e-06
8.64212e-06
9.48926e-06
9.63931e-06
3.0926e-08
1.06482e-07
1.43708e-07
1.54811e-05
5.14624e-05
6.95377e-05
3.93086e-05
0.00425366
0.00386989
0.00268778
0.0035185
0.00220026
9.31762e-06
6.72974e-06
6.15539e-06
1.42369e-06
2.96546e-06
6.09234e-06
1.04817e-05
1.06774e-05
4.41725e-06
1.00993e-05
5.30274e-06
3.03499e-08
9.38383e-08
1.20825e-07
6.35359e-09
6.48417e-09
8.7936e-07
3.15528e-06
1.93212e-06
2.59062e-06
1.74148e-06
3.86901e-07
8.47812e-08
9.6228e-08
5.36314e-06
2.78016e-06
5.60527e-07
5.43684e-06
1.09854e-05
1.09104e-05
4.34904e-06
2.0725e-06
3.95707e-06
9.12304e-07
2.97521e-08
2.55085e-08
2.64161e-08
6.31943e-09
1.08635e-08
2.14288e-08
8.94038e-09
4.65178e-06
1.51335e-05
4.39198e-06
1.29237e-07
6.23897e-07
1.84537e-06
5.93056e-06
1.36299e-06
5.20255e-10
2.34722e-06
5.49618e-06
5.16902e-06
6.21788e-07
4.80579e-10
4.80515e-10
4.80582e-10
1.79715e-08
3.18593e-10
7.66412e-10
2.71062e-09
7.28005e-09
1.04811e-08
4.74223e-09
1.04089e-05
3.22545e-05
1.67097e-05
-1.36779e-10
1.11553e-06
1.9429e-06
8.8767e-07
2.24586e-09
4.91781e-10
8.8022e-09
1.12252e-07
1.38363e-07
1.93241e-10
1.51652e-09
4.80432e-10
4.80515e-10
2.29311e-09
3.18585e-10
3.31342e-10
7.90807e-10
1.76833e-09
1.90041e-09
2.15102e-09
1.38374e-05
3.1946e-05
1.79216e-05
-2.74907e-16
7.33876e-13
5.85261e-09
5.60454e-09
1.79305e-08
3.05489e-08
1.90102e-08
2.88032e-09
6.99058e-10
7.34025e-10
1.23742e-09
4.80354e-10
4.93262e-10
4.96234e-10
4.07738e-10
3.423e-10
4.15549e-10
5.55226e-10
8.80021e-10
1.28203e-09
2.89482e-06
2.13317e-05
1.04744e-06
3.94198e-13
9.90604e-09
1.31042e-08
7.51555e-09
5.11632e-09
8.36738e-09
8.8676e-09
3.83357e-09
8.75497e-10
5.43647e-10
5.19577e-10
4.04567e-10
4.03399e-10
3.71756e-10
3.21932e-10
2.78291e-10
3.19902e-10
4.41724e-10
6.00164e-10
7.03656e-10
1.5607e-08
1.57995e-08
1.55029e-08
2.26813e-07
2.35153e-08
2.05759e-08
1.18853e-08
2.53886e-09
1.19819e-09
1.20492e-09
8.57931e-10
3.95175e-10
2.60004e-10
2.43227e-10
2.3788e-10
2.29251e-10
2.09307e-10
1.95401e-10
2.00756e-10
2.34264e-10
2.80198e-10
2.81368e-10
2.66988e-10
2.6708e-08
1.97515e-08
3.61876e-07
7.23965e-07
3.00379e-08
1.556e-08
7.20669e-09
5.17122e-10
5.18184e-10
3.72467e-10
2.17137e-10
1.61226e-10
1.31876e-10
1.25935e-10
1.25165e-10
1.19942e-10
1.16458e-10
1.14795e-10
1.21253e-10
1.27853e-10
1.20946e-10
1.03014e-10
8.04853e-11
2.7453e-08
2.7049e-08
4.9243e-08
7.41786e-08
3.39365e-08
6.16642e-09
1.72387e-09
4.44531e-10
3.67437e-10
2.05224e-10
1.25176e-10
9.21433e-11
7.68051e-11
6.8217e-11
6.3895e-11
6.04414e-11
5.75855e-11
5.60328e-11
5.51415e-11
5.14973e-11
4.29503e-11
2.71904e-11
2.09714e-11
3.66464e-08
9.22554e-08
7.61791e-08
4.36284e-08
3.42017e-08
4.91216e-09
4.93371e-10
3.1307e-10
2.14544e-10
1.3777e-10
9.25238e-11
6.74715e-11
5.19276e-11
4.05831e-11
3.34578e-11
2.78263e-11
2.4778e-11
2.21264e-11
1.95917e-11
1.61972e-11
1.16691e-11
6.06373e-12
4.31816e-12
3.11374e-07
1.39513e-07
1.1832e-07
3.83685e-08
1.59214e-08
6.43761e-09
1.16632e-09
3.7436e-10
1.93176e-10
1.30067e-10
9.212e-11
6.44369e-11
4.45687e-11
3.01186e-11
2.08638e-11
1.45408e-11
1.05032e-11
7.97567e-12
6.07123e-12
4.27779e-12
2.58581e-12
1.15805e-12
8.65058e-13
4.49884e-07
1.29075e-07
3.04319e-07
8.82315e-08
2.20777e-08
1.01289e-08
2.81018e-09
6.62923e-10
2.46931e-10
1.67191e-10
1.19925e-10
8.09096e-11
5.09125e-11
3.00933e-11
1.76053e-11
1.03775e-11
5.92936e-12
3.57198e-12
2.17015e-12
1.21154e-12
6.18449e-13
2.98472e-13
1.63864e-13
1.98161e-06
1.26778e-07
5.13965e-05
2.148e-08
2.34018e-08
2.86888e-08
1.12429e-08
1.96102e-09
3.72219e-10
2.13535e-10
1.53463e-10
1.05168e-10
6.63916e-11
3.83571e-11
2.09934e-11
1.06369e-11
5.1877e-12
2.53391e-12
1.20846e-12
5.51833e-13
2.42828e-13
9.13093e-14
4.57361e-14
2.33077e-06
0.000608835
0.011297
0.00748937
0.000338121
1.79701e-08
1.70401e-08
6.43988e-09
8.75994e-10
2.80534e-10
2.105e-10
1.50452e-10
9.55971e-11
5.75829e-11
3.0262e-11
1.4886e-11
6.55281e-12
2.77201e-12
1.08284e-12
4.1592e-13
1.57964e-13
4.92165e-14
1.85307e-14
2.72512e-06
0.0125482
0.0180656
0.0190746
0.00484725
1.89341e-06
3.80404e-09
5.76288e-09
1.30528e-09
3.68194e-10
2.96212e-10
2.26028e-10
1.56625e-10
9.61211e-11
5.15711e-11
2.48314e-11
1.05162e-11
4.08364e-12
1.43107e-12
4.63938e-13
1.44813e-13
3.61581e-14
1.01751e-14
0.00603781
0.0179905
0.0190321
0.0190257
0.00766994
1.11212e-06
3.8279e-09
3.86241e-09
4.04034e-09
5.47307e-10
4.17696e-10
3.46875e-10
2.6413e-10
1.66754e-10
9.03044e-11
4.34411e-11
1.82112e-11
6.88885e-12
2.27144e-12
6.54967e-13
1.83999e-13
3.86453e-14
7.76347e-15
0.0125587
0.00943717
0.00771063
0.00556122
0.00349624
6.26514e-07
3.78422e-09
3.7701e-09
4.37423e-08
1.87167e-09
4.91299e-10
5.36103e-10
4.38062e-10
2.76131e-10
1.49488e-10
7.16092e-11
3.01239e-11
1.13112e-11
3.59502e-12
1.01836e-12
2.61162e-13
5.13381e-14
8.07446e-15
0.00484129
4.16618e-07
5.08052e-07
1.27686e-06
0.000199606
3.38893e-08
1.35244e-07
3.6454e-07
1.28793e-08
8.14905e-10
8.09837e-10
8.60632e-10
6.93556e-10
4.10908e-10
2.20496e-10
1.05648e-10
4.45681e-11
1.71459e-11
5.33791e-12
1.49875e-12
3.76242e-13
6.44775e-14
8.96083e-15
3.04186e-08
5.60384e-07
3.31701e-06
2.06444e-05
5.92129e-05
2.17996e-08
1.0387e-06
9.07222e-07
9.01117e-10
8.95679e-10
1.36755e-09
1.50737e-09
9.87086e-10
5.73869e-10
2.86375e-10
1.39969e-10
6.02241e-11
2.27493e-11
7.20656e-12
1.9383e-12
4.61731e-13
7.80495e-14
9.89688e-15
5.44662e-08
2.09132e-06
9.40375e-06
4.17566e-06
3.43219e-08
7.7354e-07
1.06465e-06
3.65917e-07
8.99198e-10
1.2663e-09
2.25472e-09
2.42216e-09
1.24526e-09
6.12912e-10
3.29579e-10
1.61531e-10
7.06356e-11
2.67717e-11
8.52528e-12
2.18628e-12
5.23276e-13
8.36811e-14
1.00239e-14
2.4511e-08
2.78811e-06
9.13985e-06
4.9104e-06
1.15543e-08
5.71838e-07
7.16501e-07
9.87365e-10
1.03296e-09
2.53735e-09
3.95971e-09
3.4414e-09
1.22585e-09
5.92713e-10
3.28484e-10
1.64987e-10
7.36165e-11
2.77902e-11
8.68962e-12
2.13628e-12
4.97535e-13
7.89148e-14
8.76328e-15
2.39028e-08
1.69961e-09
1.67918e-09
1.67465e-09
1.19525e-08
2.36085e-08
1.11809e-08
9.90953e-10
1.18054e-09
4.12702e-09
7.28528e-09
4.47462e-09
8.449e-10
4.88264e-10
2.888e-10
1.49737e-10
6.5597e-11
2.43492e-11
7.42919e-12
1.76561e-12
3.84576e-13
5.71352e-14
6.52506e-15
8.92597e-09
1.70106e-09
1.68788e-09
1.66086e-09
1.56803e-09
6.26163e-10
5.93538e-10
1.0354e-09
7.79363e-09
1.98564e-08
1.81762e-08
4.80295e-09
5.54521e-10
4.08853e-10
2.5035e-10
1.21266e-10
4.99336e-11
1.69667e-11
5.00423e-12
1.12405e-12
2.29349e-13
2.80079e-14
2.70341e-15
3.51353e-09
2.46014e-09
2.7763e-09
2.77614e-09
1.76657e-09
6.18642e-10
5.45244e-10
2.51199e-09
3.01728e-08
4.93866e-08
2.36116e-08
1.90255e-09
5.80248e-10
3.69469e-10
2.02557e-10
8.68107e-11
3.06126e-11
9.35998e-12
2.36909e-12
5.20988e-13
8.55059e-14
1.06647e-14
9.49287e-16
2.68115e-09
2.74728e-09
1.64237e-09
1.85287e-09
8.55284e-10
7.42406e-10
5.5003e-10
6.1273e-08
2.06815e-07
5.22617e-08
1.29083e-08
5.35506e-10
5.3462e-10
3.19983e-10
1.43467e-10
5.03618e-11
1.46891e-11
3.57292e-12
7.69755e-13
1.31582e-13
2.17747e-14
2.23594e-15
2.00828e-16
2.47334e-07
7.04035e-09
8.00781e-10
7.97925e-10
8.89416e-10
1.42241e-07
4.9069e-07
1.22035e-06
2.88961e-07
6.53596e-10
6.55859e-10
6.76892e-10
4.56443e-10
2.23657e-10
7.94614e-11
2.11925e-11
4.40257e-12
7.68228e-13
1.20652e-13
2.05223e-14
2.48448e-15
3.37019e-16
2.75038e-17
7.46929e-07
5.11511e-08
8.11e-09
6.09122e-09
2.86019e-08
2.58326e-07
1.99989e-06
1.76915e-06
1.73773e-07
4.03269e-09
7.21304e-10
5.13243e-10
3.01839e-10
1.24367e-10
3.44579e-11
6.34682e-12
8.20216e-13
8.69981e-14
9.35267e-15
1.46603e-15
2.10928e-16
1.95183e-17
2.88224e-18
6.97069e-07
3.15999e-07
4.18127e-08
3.73147e-08
2.42565e-07
1.55069e-06
1.98304e-06
2.60232e-07
1.738e-09
3.86998e-10
4.07147e-10
2.85029e-10
1.34829e-10
4.04885e-11
7.66415e-12
8.85145e-13
6.74048e-14
4.04272e-15
2.91981e-16
5.27488e-17
1.07954e-17
1.40454e-18
2.0218e-19
0.963757
0.9975
0.9975
0.993461
0.964485
0.957675
0.867758
0.759818
0.501473
0.236313
0.117024
0.0518185
0.0219192
0.000605323
0.000133849
0.000128768
0.000379328
0.000370402
0.00115912
0.00153199
0.000390881
0.000363907
0.00047547
0.00145366
0.000534088
0.000371783
0.00443898
0.0117145
0.0117145
0.0116794
0.0117145
0.01169
0.0042735
0.0060971
0.00784389
0.00565083
1.53428e-06
3.35446e-06
4.82413e-06
5.35838e-06
1.51788e-06
1.10007e-06
5.75271e-06
1.03441e-05
6.92262e-07
6.90942e-07
2.63853e-06
5.10795e-06
2.91128e-06
6.89247e-07
6.91077e-07
1.14023e-06
6.01705e-07
6.8533e-07
2.7041e-06
2.70328e-06
5.84256e-07
7.09018e-08
5.66322e-07
6.85509e-07
3.89807e-08
5.78256e-09
2.50618e-08
1.6485e-08
5.08429e-09
3.62413e-09
3.45035e-09
3.21019e-09
2.51478e-09
2.8024e-09
3.05569e-09
2.94362e-09
1.4573e-09
1.54343e-09
1.5894e-09
1.53039e-09
7.10326e-10
6.60936e-10
6.34481e-10
5.2456e-10
2.3733e-10
1.93435e-10
1.59115e-10
1.27511e-10
6.45841e-11
4.54219e-11
3.80292e-11
2.92631e-11
1.42834e-11
1.0091e-11
8.55101e-12
8.03125e-12
2.94854e-12
2.12887e-12
2.20523e-12
2.29591e-12
5.96113e-13
4.54202e-13
5.36541e-13
6.95808e-13
1.25202e-13
1.0145e-13
1.32753e-13
1.76851e-13
2.62433e-14
2.09662e-14
2.73822e-14
4.69588e-14
7.58543e-15
4.57263e-15
5.84297e-15
9.57421e-15
3.41398e-15
1.20968e-15
1.13129e-15
2.01262e-15
2.27996e-15
5.3413e-16
2.15064e-16
3.38694e-16
2.10053e-15
3.94772e-16
5.56133e-17
5.1211e-17
2.04544e-15
3.9292e-16
3.32176e-17
6.87005e-18
1.98573e-15
3.55823e-16
3.29239e-17
1.21633e-18
1.74831e-15
3.35926e-16
3.39591e-17
5.71114e-19
1.42214e-15
2.62197e-16
2.96303e-17
4.77349e-19
1.02552e-15
1.78814e-16
1.73153e-17
2.10698e-19
3.89783e-16
5.83944e-17
5.63246e-18
5.26796e-20
1.31727e-16
1.87527e-17
1.26788e-18
7.68048e-21
2.48906e-17
3.44265e-18
1.71764e-19
6.08989e-22
3.59876e-18
4.37668e-19
1.51333e-20
4.23889e-23
3.7236e-19
4.25244e-20
9.49594e-22
2.1232e-24
2.71939e-20
2.93564e-21
4.57129e-23
8.20985e-26
0.98121
0.950968
0.982991
0.999271
0.993764
0.982907
0.980589
0.963525
0.943534
0.943364
0.939954
0.744209
0.477037
0.685281
0.812254
0.864805
0.864815
0.85873
0.787103
0.677842
0.636804
0.778036
0.898574
0.911345
0.671682
0.976055
0.693242
0.83907
0.914195
0.914953
0.782609
0.406351
0.514134
0.810924
0.864457
0.731559
0.70441
0.7466
0.0137004
0.00852142
0.100906
0.283184
0.370694
0.530824
0.722787
0.373034
0.35978
0.502071
0.51881
0.646862
0.415442
0.37053
0.770198
0.536103
0.174571
0.107128
0.0959683
-8.36454e-21
2.19065e-21
8.29055e-22
-3.50255e-20
0.00458149
0.31633
0.380149
0.344644
0.346268
0.452698
0.29641
0.416802
0.431473
0.269989
0.272521
0.201045
0.196308
0.012078
0.000560212
0.00436422
0.00166053
-3.7405e-21
5.84766e-09
4.83088e-17
-3.63019e-11
0.040174
0.242379
0.361642
0.226619
0.0138397
0.116282
0.266098
0.216894
0.195826
0.187972
0.110808
0.0236732
0.000559508
0.0114198
0.00447445
-2.24497e-18
-4.05781e-12
-4.43406e-13
6.18921e-07
6.71349e-07
0.0109913
0.0271962
0.00571727
2.78479e-07
0.000276316
0.038237
0.0467399
0.0386932
0.0114627
1.35832e-08
8.88886e-09
0.000558804
0.0116933
0.0055923
0.000546669
5.6355e-07
0.000198374
0.000246695
0.000244957
0.000116299
2.6656e-08
1.21483e-10
6.99943e-14
-9.45673e-19
1.3438e-19
-3.31591e-09
-1.69742e-08
-2.99957e-08
1.13477e-05
8.05875e-06
2.39994e-06
0.00619176
0.0010098
1.19586e-05
1.1334e-05
1.28496e-05
5.98407e-05
0.000179784
0.000125192
2.36189e-05
-1.00244e-23
-1.81996e-11
4.30931e-05
3.68892e-05
1.7657e-05
6.2862e-06
1.51123e-05
2.36963e-05
1.93576e-05
4.76747e-06
0.000289712
5.7695e-05
6.42517e-05
0.000153505
0.000125475
5.85787e-05
4.80119e-05
4.55171e-05
5.17744e-05
4.85349e-05
6.56265e-05
9.6332e-05
9.61269e-05
4.22641e-05
9.80639e-06
2.24302e-06
1.79483e-05
2.47432e-05
7.29483e-06
2.16249e-05
8.55856e-05
8.52196e-05
6.35254e-05
4.26026e-05
3.2878e-05
3.28501e-05
4.13384e-05
2.17666e-05
2.47126e-05
4.74865e-05
7.49874e-05
4.41959e-05
2.35038e-05
2.25263e-06
2.24881e-06
2.25978e-06
9.05592e-06
3.56446e-06
1.86783e-05
2.12359e-05
3.59937e-05
6.69348e-05
6.69487e-05
6.66588e-05
6.6344e-05
6.62974e-05
2.73755e-05
8.80999e-10
1.33984e-06
1.73346e-05
1.46428e-05
1.33541e-06
3.26337e-06
5.98319e-06
6.02764e-06
1.19653e-06
5.63399e-07
4.8984e-06
4.82337e-06
6.49074e-06
5.35142e-05
6.69111e-05
4.22562e-05
4.32021e-05
4.49416e-05
1.85756e-05
8.61946e-10
1.25226e-07
1.27954e-06
1.15535e-06
2.09691e-07
9.89295e-06
1.31799e-05
6.61094e-06
1.27405e-07
1.47343e-07
4.16296e-06
7.43205e-06
8.72811e-06
9.8993e-06
9.11369e-06
8.87353e-07
7.0755e-07
1.03214e-06
6.83818e-07
1.17781e-09
2.65013e-07
2.7508e-07
1.27791e-07
2.6353e-07
1.07604e-05
1.30903e-05
2.1167e-06
1.28225e-07
1.31271e-07
2.65755e-06
1.84332e-06
1.07954e-06
5.70237e-10
8.13113e-08
4.69748e-08
2.22272e-08
3.45937e-08
3.4134e-08
5.16341e-10
4.14805e-08
1.08041e-07
2.68062e-08
1.04857e-06
1.27969e-05
4.90319e-06
8.0572e-08
1.28284e-07
2.47214e-08
1.12855e-07
4.31999e-10
4.20309e-10
5.85546e-10
6.05722e-09
9.79472e-10
9.31709e-10
7.02119e-10
3.10655e-10
5.15123e-11
3.2433e-08
1.05504e-07
2.05264e-08
2.72684e-06
1.00689e-05
2.46854e-08
2.67226e-08
1.23255e-07
9.30024e-09
4.55689e-09
6.63726e-10
6.96382e-10
8.39165e-10
8.61849e-10
8.7774e-10
7.80308e-10
5.62726e-10
3.51414e-10
9.5643e-10
8.55207e-08
4.57248e-08
2.16147e-08
4.44386e-07
1.42661e-06
2.72896e-07
3.53811e-09
3.03198e-08
9.34949e-09
1.40627e-09
7.35168e-10
6.20709e-10
7.29725e-10
8.15792e-10
7.78173e-10
6.61494e-10
4.56342e-10
5.5905e-10
5.45526e-09
4.04114e-08
1.58157e-09
6.4267e-09
5.37885e-08
2.86926e-07
4.52199e-07
3.54239e-09
1.93391e-09
4.91981e-09
1.52116e-09
4.57487e-10
3.9215e-10
4.59033e-10
5.44053e-10
5.16002e-10
4.38595e-10
3.14169e-10
1.29989e-09
5.30103e-09
2.32856e-09
1.57148e-09
4.00947e-09
1.24538e-08
7.93889e-08
3.06465e-07
1.59373e-09
1.60661e-09
2.93059e-09
8.13501e-10
2.61757e-10
2.25532e-10
2.61419e-10
2.95205e-10
2.85923e-10
2.57252e-10
2.86693e-10
1.43241e-09
2.91887e-09
2.78308e-10
1.62824e-09
2.43634e-09
2.63836e-09
1.26531e-08
3.54203e-08
1.66832e-09
3.08069e-10
9.92428e-10
2.50046e-10
1.22341e-10
1.20242e-10
1.43125e-10
1.49882e-10
1.46871e-10
1.41659e-10
2.8577e-10
9.44224e-10
1.04581e-09
2.17652e-10
7.63548e-10
1.34127e-09
8.56358e-10
1.05702e-09
5.02973e-09
1.38511e-09
7.57907e-11
1.13076e-10
6.95491e-11
5.5176e-11
6.28245e-11
7.43042e-11
7.73839e-11
7.67587e-11
7.83053e-11
2.02565e-10
4.80127e-10
1.66933e-10
7.70613e-11
1.82247e-10
4.06112e-10
3.84844e-10
1.88889e-10
6.29804e-11
4.65479e-10
4.06746e-11
2.51327e-11
2.25647e-11
2.42592e-11
2.9777e-11
3.48358e-11
3.79756e-11
3.89438e-11
4.21322e-11
1.06845e-10
1.99702e-10
5.68901e-11
4.71637e-11
5.38442e-11
1.05264e-10
1.49598e-10
9.3116e-11
6.29556e-11
6.35632e-11
1.88031e-11
8.21173e-12
8.15268e-12
1.04272e-11
1.31788e-11
1.5388e-11
1.72367e-11
1.84995e-11
2.10179e-11
3.69294e-11
5.13663e-11
3.35024e-11
2.58549e-11
2.91545e-11
3.81951e-11
5.7608e-11
5.62779e-11
5.15548e-11
3.32685e-11
1.16927e-11
2.6342e-12
2.88154e-12
3.95112e-12
5.34778e-12
6.59784e-12
7.43212e-12
8.07465e-12
9.17084e-12
1.07624e-11
1.13485e-11
1.20974e-11
8.57917e-12
1.16026e-11
1.75374e-11
2.45711e-11
3.33506e-11
3.18599e-11
2.17151e-11
8.10225e-12
1.51749e-12
9.60689e-13
1.49978e-12
2.06524e-12
2.504e-12
2.99561e-12
3.4872e-12
4.00032e-12
4.30463e-12
4.36388e-12
4.41054e-12
3.06456e-12
3.8145e-12
6.80568e-12
6.60145e-12
1.06052e-11
1.60803e-11
1.08948e-11
5.12871e-12
1.07986e-12
2.74163e-13
4.79444e-13
7.13124e-13
9.83683e-13
1.22549e-12
1.45236e-12
1.67403e-12
1.84937e-12
1.96977e-12
1.9943e-12
1.54157e-12
1.38691e-12
2.28627e-12
1.15999e-12
1.93426e-12
5.09905e-12
4.80482e-12
2.33004e-12
8.75678e-13
7.59272e-14
1.47399e-13
2.33266e-13
3.30591e-13
4.37487e-13
5.43779e-13
6.35201e-13
7.01101e-13
7.18862e-13
6.78161e-13
5.48497e-13
4.20781e-13
3.79763e-13
2.10171e-13
3.25188e-13
1.23896e-12
2.12209e-12
1.20559e-12
7.78407e-13
1.75141e-14
3.73315e-14
6.38435e-14
1.00602e-13
1.38503e-13
1.77752e-13
2.09322e-13
2.24731e-13
2.12004e-13
1.70521e-13
1.15587e-13
7.8821e-14
5.96816e-14
5.25518e-14
1.00882e-13
4.51003e-13
6.82552e-13
8.95373e-13
6.68979e-13
3.77065e-15
8.44832e-15
1.55399e-14
2.46004e-14
3.75485e-14
5.00252e-14
5.83326e-14
5.94032e-14
4.78393e-14
2.93078e-14
1.56569e-14
1.2614e-14
1.7903e-14
3.04718e-14
7.92897e-14
1.76825e-13
4.1822e-13
6.83944e-13
5.4714e-13
6.9119e-16
1.63524e-15
3.13312e-15
5.43959e-15
8.42256e-15
1.12372e-14
1.27616e-14
1.20702e-14
7.78215e-15
3.88664e-15
2.92055e-15
4.87062e-15
1.00538e-14
2.55131e-14
8.14238e-14
1.73401e-13
3.37971e-13
6.18545e-13
4.61833e-13
1.03539e-16
2.66971e-16
5.27824e-16
9.34168e-16
1.47775e-15
1.98906e-15
2.15221e-15
1.79804e-15
1.07236e-15
8.3127e-16
1.51757e-15
3.71161e-15
8.92059e-15
2.12105e-14
7.27697e-14
1.80899e-13
3.36813e-13
5.48119e-13
4.14572e-13
1.36117e-17
3.47674e-17
7.24578e-17
1.37988e-16
2.16647e-16
2.70091e-16
2.72629e-16
2.28317e-16
2.17024e-16
4.03458e-16
1.0564e-15
2.87161e-15
7.48677e-15
1.78162e-14
5.46026e-14
1.68149e-13
3.22746e-13
4.93793e-13
3.29917e-13
1.54387e-18
4.00226e-18
8.78855e-18
1.70488e-17
2.7068e-17
3.24874e-17
3.56135e-17
4.24585e-17
8.28492e-17
2.24529e-16
6.6411e-16
1.95282e-15
5.35177e-15
1.31815e-14
3.38269e-14
1.21995e-13
2.81577e-13
4.00031e-13
2.39301e-13
1.85117e-19
4.57858e-19
1.02763e-18
1.97095e-18
2.85044e-18
4.31468e-18
6.42263e-18
1.33304e-17
3.6801e-17
1.15112e-16
3.75318e-16
1.20117e-15
3.49369e-15
9.07068e-15
2.12439e-14
6.23614e-14
1.80246e-13
3.07202e-13
1.41004e-13
2.88948e-20
5.26421e-20
1.22453e-19
2.47395e-19
4.31143e-19
7.76839e-19
1.63439e-18
4.3919e-18
1.39182e-17
4.88334e-17
1.79058e-16
6.29146e-16
1.99423e-15
5.3997e-15
1.25725e-14
3.18514e-14
9.26237e-14
1.6839e-13
8.81919e-14
5.06717e-21
6.24753e-21
1.58029e-20
3.46257e-20
7.22021e-20
1.61592e-19
4.22338e-19
1.30356e-18
4.53392e-18
1.7827e-17
7.3991e-17
2.90041e-16
9.92493e-16
2.85067e-15
7.1455e-15
1.60062e-14
3.54935e-14
8.29362e-14
4.57744e-14
1.18113e-21
7.63634e-22
1.98107e-21
4.728e-21
1.12598e-20
2.88614e-20
8.61963e-20
2.95801e-19
1.16026e-18
5.27766e-18
2.51165e-17
1.14502e-16
4.27501e-16
1.31067e-15
3.33156e-15
7.79075e-15
1.67341e-14
2.61708e-14
2.67215e-14
1.17842e-22
8.67703e-23
2.28547e-22
5.6797e-22
1.44263e-21
4.042e-21
1.31571e-20
5.01643e-20
2.23078e-19
1.20787e-18
6.87504e-18
3.59755e-17
1.50993e-16
4.98059e-16
1.3441e-15
2.91323e-15
5.23953e-15
1.05756e-14
1.11545e-14
1.08683e-23
8.58347e-24
2.073e-23
5.00408e-23
1.32871e-22
3.52587e-22
1.44733e-21
6.46614e-21
3.42842e-20
2.04617e-19
1.37654e-18
8.53332e-18
4.09142e-17
1.47889e-16
4.1659e-16
1.01169e-15
2.01246e-15
2.9911e-15
4.98546e-15
7.50868e-25
7.2835e-25
1.63005e-24
3.80761e-24
1.04811e-23
3.43718e-23
1.56896e-22
8.30185e-22
5.21052e-21
3.69853e-20
2.78606e-19
1.94684e-18
1.03444e-17
4.00868e-17
1.18875e-16
2.8375e-16
4.37056e-16
1.043e-15
1.86499e-15
4.36641e-26
5.35774e-26
1.11482e-25
2.57431e-25
7.6313e-25
3.0506e-24
1.50868e-23
9.47188e-23
6.93502e-22
5.43226e-21
4.37928e-20
3.2023e-19
1.88281e-18
7.99429e-18
2.58277e-17
6.43737e-17
1.07529e-16
2.88997e-16
5.06186e-16
2.42278e-27
3.42514e-27
6.58932e-27
1.53481e-26
5.00386e-26
2.33145e-25
1.43165e-24
1.05448e-23
8.5472e-23
6.95569e-22
5.70898e-21
4.17402e-20
2.62104e-19
1.21352e-18
4.27372e-18
1.15423e-17
2.16481e-17
5.32645e-17
3.8344e-17
)
;

boundaryField
{
    leftWall
    {
        type            zeroGradient;
    }
    rightWall
    {
        type            zeroGradient;
    }
    lowerWall
    {
        type            zeroGradient;
    }
    atmosphere
    {
        type            inletOutlet;
        inletValue      uniform 0;
        value           nonuniform List<scalar> 
46
(
0
0
0
0
0
0
0
0
0
0
0
0
0
0
0
0
0
0
2.91981e-16
5.27488e-17
1.07954e-17
1.40454e-18
2.0218e-19
2.71939e-20
2.93564e-21
4.57129e-23
8.20985e-26
2.42279e-27
3.42514e-27
6.58932e-27
1.53481e-26
5.00386e-26
2.33145e-25
1.43165e-24
1.05448e-23
8.5472e-23
6.95569e-22
5.70898e-21
4.17402e-20
2.62104e-19
1.21352e-18
4.27372e-18
1.15423e-17
2.16481e-17
5.32645e-17
3.8344e-17
)
;
    }
    defaultFaces
    {
        type            empty;
    }
}


// ************************************************************************* //
