/*--------------------------------*- C++ -*----------------------------------*\
| =========                 |                                                 |
| \\      /  F ield         | OpenFOAM: The Open Source CFD Toolbox           |
|  \\    /   O peration     | Version:  2312                                  |
|   \\  /    A nd           | Website:  www.openfoam.com                      |
|    \\/     M anipulation  |                                                 |
\*---------------------------------------------------------------------------*/
FoamFile
{
    version     2.0;
    format      ascii;
    arch        "LSB;label=32;scalar=64";
    class       volScalarField;
    location    "2.45";
    object      alpha.galistan;
}
// * * * * * * * * * * * * * * * * * * * * * * * * * * * * * * * * * * * * * //

dimensions      [0 0 0 0 0 0 0];

internalField   nonuniform List<scalar> 
2268
(
1
1
1
1
1
1
1
1
1
1
1
1
1
1
1
1
1
1
1
1
1
0.999952
0.999941
0.999999
1
1
1
1
1
1
1
1
1
1
1
1
1
1
1
1
1
1
1
1
0.999976
0.999952
0.999999
1
1
1
1
0.999996
0.999999
1
1
1
1
1
1
1
1
1
1
1
1
1
1
1
0.999998
0.999999
0.999917
0.999996
0.999863
0.999869
0.99997
1
1
1
1
1
1
1
1
1
1
1
1
1
1
1
1
1
0.991593
0.985447
0.982118
0.979468
0.98284
0.991588
0.999068
0.999869
0.999934
0.999978
0.999994
0.999998
0.999999
1
1
1
0.999999
0.999998
0.999998
0.999999
1
1
0.99982
0.460619
0.432135
0.392474
0.368071
0.376424
0.432735
0.540482
0.679613
0.793908
0.88816
0.955266
0.990658
0.999741
0.999951
0.999968
0.999986
0.999993
0.999995
0.999999
0.992318
0.971364
0.953335
0.918369
4.24827e-14
8.47309e-14
4.24827e-14
6.17819e-12
-1.28171e-07
0.000178992
0.000176835
0.0125115
0.0681339
0.156048
0.279692
0.431659
0.583009
0.688052
0.735421
0.714149
0.654237
0.566635
0.45912
0.378087
0.375695
0.309587
0.226714
4.06501e-06
4.21594e-05
0.000111845
1.53595e-05
0.000162466
0.000326702
0.000291286
3.88203e-05
0.000110053
0.000246082
0.000190784
0.000203208
0.0115631
0.0378802
0.0535916
0.0752383
0.0963293
0.084254
0.08072
0.0676898
0.0123793
0.0296372
0.080001
0.921828
0.92969
0.930348
0.930393
0.93028
0.930318
0.930251
0.930263
0.927326
0.926653
0.927509
0.92751
0.927192
0.941176
0.946234
0.946248
0.946268
0.946259
0.946241
0.843289
0.838996
0.877651
0.895418
0.921056
0.928076
0.926436
0.896892
0.869678
0.841336
0.79125
0.737961
0.732036
0.772502
0.837517
0.899522
0.946291
0.946251
0.945845
0.212964
0.255748
0.357448
0.476191
0.571358
0.643466
0.626557
0.540998
0.506535
0.527596
0.521841
0.51585
0.49062
0.423836
0.355073
0.581506
0.669758
0.679338
0.73879
0.0304952
0.0476763
0.0688442
0.0837859
0.135049
0.146105
0.125311
0.0771396
0.0836828
0.106573
0.136943
0.13949
0.127446
0.112585
0.183015
0.202499
0.384028
0.411291
0.456256
0.000367799
0.00032053
0.00701652
0.0218516
0.0358744
0.0348255
0.017537
0.00926724
0.00943857
0.0120931
0.0154939
0.0443242
0.0768204
0.096244
0.11973
0.119183
0.16031
0.274491
0.319614
0.000634119
2.45804e-05
4.27421e-06
4.28933e-06
0.00170241
0.0012751
0.00136461
0.00912436
0.0312408
0.0223837
0.015034
0.0144812
0.0330332
0.0450472
0.0526445
0.0365138
0.0152063
0.0360177
0.0127294
0.000948457
9.47836e-05
4.35056e-05
6.23337e-05
5.00453e-05
3.0592e-06
1.25023e-06
0.020374
0.0333401
0.00668426
0.00667453
0.00668261
0.00667277
0.0167394
0.0186917
0.0208149
0.0144868
0.00435464
0.0042084
0.000612526
0.000104947
5.88252e-05
7.77957e-05
4.49946e-05
1.48369e-05
1.23837e-06
0.0250585
0.0287682
0.00891257
0.00668752
0.0133632
0.013363
0.0162949
0.0194236
0.0107168
0.00925119
0.00421409
0.00420841
4.79027e-05
0.000349408
0.000530694
0.00027189
0.000307423
0.000304369
7.79557e-05
1.83214e-06
1.83136e-06
1.83213e-06
1.83132e-06
0.000527769
0.00621242
0.0136831
0.0155171
0.0104809
0.000883917
0.000752744
0.00151253
1.83554e-05
0.000109491
0.00129007
0.00737859
7.8789e-06
0.000574046
0.000893282
0.000360413
9.5073e-07
9.27405e-07
9.29427e-07
1.86385e-06
3.72288e-06
1.95456e-06
0.000160033
0.00219711
0.00320935
0.00299364
0.00188688
0.00101141
0.0010534
0.00076098
0.000392086
1.73668e-05
1.60142e-05
1.60081e-05
1.9522e-05
3.43475e-07
9.34674e-05
0.000893826
0.00081816
9.31644e-05
5.50203e-05
9.27381e-07
1.00422e-06
2.83382e-05
3.65197e-05
2.65123e-05
5.77841e-06
5.77895e-06
4.51269e-05
0.000148587
0.000977644
0.0052302
0.00528402
0.00479502
0.000960385
1.60219e-05
1.60074e-05
1.60074e-05
3.15311e-07
3.31963e-07
0.000331013
0.000485278
0.000565073
0.000565138
0.000103899
4.45149e-05
2.33948e-05
2.51164e-05
5.77948e-06
5.77937e-06
1.19763e-05
2.01293e-05
2.29107e-05
1.391e-05
0.000861397
0.00472592
0.00527119
0.00527276
0.00324716
0.000292157
1.60306e-05
6.64684e-05
3.12945e-06
3.6409e-05
7.12352e-05
0.000119859
0.000517788
0.000562099
0.000514316
0.000140273
5.5417e-05
6.53985e-06
5.7792e-06
5.78661e-06
3.38943e-05
2.55781e-05
1.47473e-05
3.55402e-06
0.000194138
0.00124842
0.00191229
0.00178173
0.00136233
0.000469554
0.000564113
2.61024e-05
1.86115e-06
2.12978e-06
1.87598e-06
3.1664e-05
0.00012815
0.000217501
0.000267089
0.000234476
2.1761e-05
6.20424e-06
1.00405e-05
4.8902e-05
4.18089e-05
1.23372e-05
3.55111e-06
3.5469e-06
3.63638e-05
8.66604e-05
6.99014e-05
7.17456e-05
9.59238e-05
0.00528809
0.000186941
1.86143e-06
1.86342e-06
1.87666e-06
1.7597e-06
5.03644e-06
5.43662e-06
4.03132e-05
5.65366e-05
2.97781e-05
1.64628e-05
8.78136e-05
0.000130939
0.000107993
1.11799e-05
3.54907e-06
1.10231e-05
1.17955e-05
1.18611e-05
1.2844e-05
0.000118865
0.000525032
0.00550467
0.000109805
5.96457e-06
7.6406e-06
4.04677e-06
1.76289e-06
2.02641e-06
3.20681e-06
1.76184e-06
1.78193e-06
5.44249e-05
0.000132181
0.000132129
0.000132356
7.80883e-05
9.51135e-06
9.23735e-06
4.51774e-05
8.6464e-05
8.93161e-05
6.05153e-05
6.16835e-05
0.00290957
0.00550504
1.4203e-05
5.42504e-06
5.16722e-06
4.03999e-06
4.34334e-05
0.000201321
0.000122831
1.7749e-06
1.83616e-06
4.16221e-05
9.7039e-05
0.000121265
0.000130435
0.000112669
3.68464e-05
7.7486e-05
0.000317939
0.000358065
0.000130863
6.1697e-05
0.00236857
0.00455816
0.00550467
3.04232e-05
5.42821e-06
5.32116e-06
7.67299e-05
0.000210185
0.000517228
0.0033025
0.00377325
0.00231984
0.00109537
0.000805349
0.000463207
0.000221837
0.000188504
9.52239e-05
8.01639e-06
1.99402e-05
0.000323397
0.000410253
0.000411124
0.00028554
0.000104151
0.00502684
0.00168529
0.000495963
0.00015557
0.000242724
0.000214686
0.00058393
0.00733093
0.010748
0.0107483
0.0107483
0.0074515
9.96355e-05
2.14239e-06
8.41694e-07
5.92527e-06
7.96882e-06
6.92512e-06
8.04173e-06
5.2012e-07
3.9557e-08
3.51049e-08
1.17022e-06
0.00069965
0.00232877
0.00222225
0.00104465
0.000410411
0.000194742
0.000188675
3.94996e-05
0.00700158
0.0107483
0.0107481
0.00660869
6.46113e-05
2.1524e-06
2.11076e-06
4.25321e-06
1.38821e-06
4.73219e-07
4.38912e-07
4.352e-07
5.47044e-07
5.45834e-07
2.15666e-07
0.000109346
0.000455108
0.00111865
0.00113654
0.000565121
0.000364899
0.000179938
3.76319e-05
0.000578259
0.00301562
0.00202245
0.000107601
3.14101e-06
2.31034e-06
2.11e-06
5.11963e-06
6.58875e-06
6.52192e-06
2.31692e-06
2.60368e-07
3.71878e-08
1.38048e-07
1.77342e-07
0.000107067
3.10731e-05
2.74768e-05
0.000235006
0.000400608
0.00033423
0.000192229
4.28345e-05
2.18084e-07
-4.24758e-08
-1.11179e-08
5.16935e-06
1.83405e-06
4.8479e-07
1.18756e-06
2.21868e-06
3.87259e-06
2.53301e-06
1.29153e-06
1.614e-07
2.86228e-08
4.20894e-08
1.78672e-07
5.39032e-05
3.03862e-05
2.43343e-05
6.38368e-06
1.4775e-06
5.26034e-06
4.86777e-06
4.47331e-06
2.15166e-06
4.32886e-06
1.62268e-06
1.61372e-07
7.77597e-07
1.44853e-08
9.3137e-08
4.06771e-09
1.28898e-08
1.40764e-08
1.07336e-08
1.07546e-08
1.18687e-08
2.82328e-09
3.13176e-08
7.89543e-07
8.7722e-07
1.05477e-06
1.29877e-06
1.42726e-06
1.26897e-05
8.45473e-06
8.15508e-06
5.53767e-06
2.41063e-07
1.12288e-06
2.71131e-08
1.24923e-08
1.37831e-08
4.04869e-09
4.07415e-09
7.82612e-09
1.60344e-08
6.12745e-09
2.52149e-09
1.90281e-09
1.33117e-09
1.49684e-09
3.2702e-07
9.80582e-07
1.1094e-07
1.18111e-07
4.02475e-06
1.08642e-05
3.60358e-06
2.54884e-08
1.08658e-07
7.68909e-08
1.60851e-07
1.74473e-07
1.03167e-07
7.94651e-09
7.60777e-09
1.37695e-08
2.51294e-08
2.52197e-08
1.68259e-08
5.33293e-09
1.84532e-09
1.17897e-09
9.72385e-10
5.7086e-07
2.96223e-06
1.90653e-06
1.20026e-06
3.49561e-06
2.164e-06
4.36752e-09
4.38568e-09
4.3685e-09
7.33527e-08
1.86247e-07
1.84716e-07
6.9802e-08
1.58598e-08
9.43039e-09
1.40908e-08
2.40684e-08
2.06048e-08
1.22869e-08
4.23609e-09
1.35977e-09
7.14159e-10
5.54518e-10
7.16776e-07
2.92883e-06
2.51132e-06
-1.17497e-28
7.43151e-13
-4.70676e-12
4.4555e-09
4.54003e-09
1.42905e-08
2.46805e-08
3.94304e-08
3.74683e-08
1.01975e-08
1.00349e-08
5.6561e-09
6.94959e-09
9.90429e-09
8.52008e-09
4.95649e-09
1.70898e-09
6.32766e-10
3.59192e-10
2.96429e-10
1.6453e-07
1.59726e-06
3.04759e-07
8.42042e-13
7.23802e-09
1.30143e-08
1.49409e-08
1.03711e-08
4.58223e-09
3.9436e-09
5.04373e-09
4.82453e-09
2.74898e-09
2.77521e-09
1.93176e-09
1.99285e-09
2.54067e-09
2.4634e-09
1.24246e-09
4.32269e-10
2.54265e-10
1.70837e-10
1.51535e-10
6.92016e-09
7.14664e-09
7.74123e-09
2.29516e-08
1.45936e-08
1.90316e-08
1.79689e-08
8.8512e-09
4.63616e-09
2.28775e-09
1.23833e-09
1.07493e-09
9.88806e-10
1.02043e-09
8.27654e-10
7.277e-10
6.85764e-10
5.47469e-10
3.37676e-10
1.38808e-10
9.9904e-11
7.17099e-11
6.13536e-11
1.97499e-08
7.4245e-09
3.0424e-08
6.24112e-08
1.45162e-08
1.52682e-08
1.11227e-08
4.35371e-09
1.85058e-09
1.07181e-09
6.05132e-10
4.73011e-10
4.22351e-10
3.92383e-10
3.22445e-10
2.50462e-10
2.02867e-10
1.49003e-10
9.51785e-11
5.24577e-11
3.6223e-11
2.61768e-11
2.04093e-11
2.82892e-08
3.82417e-08
6.23229e-09
5.42297e-09
1.1144e-08
1.15561e-08
5.47465e-09
1.78636e-09
6.56891e-10
4.05482e-10
2.53994e-10
1.94033e-10
1.62297e-10
1.33549e-10
1.05857e-10
7.82377e-11
5.6998e-11
4.06091e-11
2.77247e-11
1.73516e-11
1.19109e-11
7.18201e-12
5.9539e-12
4.36232e-08
8.22998e-08
2.34003e-08
4.19034e-09
4.05993e-09
3.54472e-09
2.48132e-09
6.51864e-10
2.86531e-10
1.62913e-10
9.07947e-11
6.21751e-11
4.98312e-11
3.78085e-11
2.81756e-11
1.91584e-11
1.41885e-11
1.01748e-11
7.24551e-12
4.8316e-12
3.13334e-12
1.70297e-12
1.38894e-12
3.53113e-08
7.73956e-08
5.47096e-08
2.10079e-08
6.44262e-09
2.23752e-09
1.06313e-09
3.62646e-10
1.47334e-10
6.75386e-11
3.44229e-11
1.96346e-11
1.29313e-11
8.87359e-12
6.20042e-12
4.19303e-12
2.9747e-12
2.1682e-12
1.57284e-12
1.06071e-12
6.37707e-13
3.15753e-13
2.80389e-13
2.95794e-08
2.95395e-08
2.95794e-08
1.72113e-08
1.62184e-08
5.05937e-09
1.56758e-09
3.363e-10
8.00465e-11
2.35747e-11
8.93567e-12
4.73673e-12
2.99463e-12
1.84838e-12
1.12314e-12
7.63211e-13
5.19886e-13
3.79138e-13
2.74794e-13
1.79837e-13
1.00925e-13
5.75558e-14
4.38113e-14
3.31781e-08
2.95794e-08
2.0427e-05
3.23096e-06
1.49584e-08
1.47872e-08
5.70332e-09
9.61523e-10
8.4154e-11
8.28927e-12
2.14443e-12
9.53844e-13
5.15529e-13
3.22165e-13
2.00782e-13
1.25261e-13
8.12678e-14
5.5759e-14
3.87938e-14
2.50681e-14
1.36203e-14
6.68773e-15
6.42537e-15
3.3423e-08
5.50229e-05
0.000291947
0.000224556
1.85075e-05
4.44537e-09
4.26558e-09
2.00096e-09
2.32259e-10
8.58512e-12
1.75496e-12
9.17723e-13
5.00161e-13
2.7438e-13
1.29936e-13
5.72268e-14
2.53262e-14
1.1228e-14
5.15873e-15
2.97152e-15
1.70295e-15
8.38831e-16
7.99352e-16
3.49172e-06
0.000303303
0.000328006
0.000329279
8.88452e-05
1.96302e-08
9.09753e-10
1.20722e-09
2.17651e-10
7.08284e-12
2.45242e-12
1.61778e-12
1.06063e-12
6.24285e-13
3.06637e-13
1.27377e-13
4.46777e-14
1.44317e-14
4.2322e-15
1.21528e-15
3.64367e-16
1.01946e-16
9.14762e-17
0.000189104
0.00032447
0.000330434
0.000259964
6.64977e-05
6.33232e-09
7.78553e-10
6.19522e-10
9.62179e-11
6.54835e-12
4.37142e-12
3.29166e-12
2.49347e-12
1.56402e-12
7.94595e-13
3.30434e-13
1.13519e-13
3.49836e-14
9.35345e-15
2.149e-15
4.8439e-16
8.66764e-17
1.60512e-17
0.000219376
0.00013492
4.88976e-05
1.30098e-09
2.84042e-06
1.00169e-09
4.53682e-10
4.54031e-10
5.90977e-10
2.62807e-11
8.72174e-12
6.68786e-12
5.54892e-12
3.57754e-12
1.86668e-12
7.77637e-13
2.67794e-13
8.07611e-14
2.06819e-14
4.62403e-15
9.57786e-16
1.59487e-16
1.88444e-17
6.29414e-05
3.5373e-09
4.90004e-09
1.33603e-09
1.28e-09
1.27941e-09
2.56545e-09
3.63824e-09
5.84437e-10
2.0227e-11
1.8852e-11
1.3519e-11
1.12352e-11
7.04172e-12
3.80595e-12
1.59687e-12
5.52298e-13
1.70438e-13
4.2026e-14
9.29394e-15
1.87815e-15
2.67567e-16
3.20655e-17
9.72835e-10
9.62289e-10
1.10859e-09
7.12565e-09
9.04225e-09
7.05283e-09
1.21722e-08
5.88856e-09
9.11933e-11
3.59718e-11
4.23501e-11
2.90465e-11
2.10616e-11
1.34849e-11
6.82428e-12
2.91711e-12
1.03317e-12
3.11446e-13
7.73047e-14
1.56214e-14
2.97526e-15
4.23761e-16
4.99217e-17
9.74937e-10
1.35154e-09
4.9783e-09
1.53968e-08
1.92363e-08
1.58126e-08
1.42961e-08
3.80242e-09
4.20964e-11
7.69705e-11
9.33148e-11
6.70611e-11
4.34415e-11
2.36998e-11
1.12851e-11
4.76581e-12
1.69777e-12
5.06096e-13
1.25343e-13
2.58297e-14
4.9884e-15
6.3846e-16
6.45726e-17
1.27187e-09
1.4008e-09
4.12083e-09
1.15719e-08
1.78331e-08
1.71257e-08
6.72474e-09
4.28223e-10
9.63758e-11
1.81377e-10
2.17721e-10
1.64133e-10
8.11038e-11
3.78788e-11
1.77604e-11
7.45448e-12
2.65538e-12
7.71646e-13
1.8154e-13
3.34786e-14
5.98573e-15
7.5359e-16
6.89002e-17
1.84912e-09
8.44988e-10
1.32179e-09
2.06009e-09
4.22182e-09
5.10862e-09
8.36403e-10
1.51451e-10
2.43049e-10
3.63421e-10
3.84319e-10
2.84989e-10
1.1443e-10
4.40594e-11
2.00068e-11
8.28371e-12
2.89292e-12
8.33107e-13
1.94693e-13
3.50737e-14
5.94553e-15
6.9314e-16
6.4196e-17
2.70558e-09
4.50735e-10
5.20816e-10
4.8551e-10
3.48412e-10
4.18682e-10
2.75127e-10
2.78232e-10
5.09943e-10
6.2555e-10
5.91438e-10
3.4817e-10
1.24568e-10
4.49209e-11
2.06304e-11
8.03653e-12
2.64779e-12
7.13228e-13
1.60852e-13
2.74697e-14
4.32728e-15
4.24628e-16
3.12559e-17
3.82049e-09
3.03649e-10
3.43844e-10
3.57074e-10
2.73616e-10
2.55548e-10
3.12286e-10
5.84806e-10
8.4411e-10
8.99171e-10
7.65586e-10
3.47635e-10
1.15053e-10
4.15114e-11
1.81332e-11
6.30509e-12
1.79592e-12
4.33116e-13
8.44404e-14
1.40342e-14
1.77278e-15
1.66266e-16
1.17245e-17
5.66873e-09
3.09568e-10
2.44336e-10
2.44313e-10
2.44501e-10
2.753e-10
5.8446e-10
1.04918e-09
1.31269e-09
1.34836e-09
7.9237e-10
2.59673e-10
8.483e-11
3.59863e-11
1.33816e-11
3.82875e-12
8.88439e-13
1.65684e-13
2.67317e-14
3.39738e-15
4.15748e-16
3.39433e-17
2.3798e-18
8.48897e-09
1.18004e-09
2.48982e-10
3.03982e-10
3.68427e-10
5.82009e-10
1.04594e-09
2.08775e-09
2.18425e-09
1.46608e-09
5.74645e-10
1.92297e-10
6.9942e-11
2.71621e-11
7.73976e-12
1.63131e-12
2.59142e-13
3.29494e-14
3.71447e-15
4.619e-16
4.31107e-17
4.25534e-18
2.96048e-19
9.20326e-09
2.68079e-09
8.52941e-10
1.00305e-09
1.07598e-09
1.21767e-09
2.78675e-09
3.00629e-09
2.29528e-09
1.0352e-09
3.62235e-10
1.3472e-10
5.52228e-11
1.74791e-11
3.73875e-12
5.16542e-13
4.74112e-14
3.30122e-15
2.30972e-16
2.80121e-17
2.82703e-18
2.45121e-19
2.81774e-20
7.98592e-09
4.98458e-09
2.54498e-09
3.08491e-09
3.44513e-09
4.40904e-09
4.36656e-09
2.17404e-09
8.1183e-10
3.09371e-10
1.26596e-10
4.97251e-11
1.93872e-11
4.66067e-12
6.92273e-13
5.93138e-14
3.01269e-15
1.03688e-16
4.80841e-18
8.65768e-19
1.46227e-19
1.51359e-20
1.90474e-21
0.00054816
0.000292792
0.00036295
0.000809222
0.000669437
0.00211579
0.00581639
0.00813934
0.00153881
0.00699508
0.00707531
0.00655192
0.000177159
0.000993955
0.00157142
0.00180496
0.000478664
0.000950249
0.000754678
0.000505476
0.000210259
0.000200765
0.000340249
0.000476741
0.000810748
0.000555171
0.000358819
0.00717755
0.00998523
0.00999886
0.00998461
0.00656944
0.0041384
0.00675536
0.00919215
0.00615534
5.76796e-06
2.56846e-06
8.54196e-07
1.81552e-07
1.86683e-06
3.20472e-07
1.22772e-07
1.24361e-07
1.36969e-07
1.28481e-07
1.22599e-07
5.51771e-07
3.63419e-07
3.08427e-07
8.4929e-07
3.07012e-06
2.2296e-06
3.14514e-06
3.49425e-06
3.49873e-06
3.87591e-07
8.05998e-07
9.81641e-07
1.01959e-06
7.80338e-10
7.84982e-10
3.10608e-08
5.10573e-08
9.02912e-10
8.06472e-10
1.78615e-09
1.91392e-09
5.14814e-10
4.82302e-10
4.80123e-10
4.92472e-10
2.83849e-10
2.68652e-10
2.51365e-10
2.43713e-10
1.4065e-10
1.27094e-10
1.19185e-10
1.07207e-10
5.37773e-11
4.57751e-11
4.04538e-11
3.72339e-11
1.73622e-11
1.38502e-11
1.2722e-11
1.11627e-11
4.63344e-12
3.69833e-12
3.34404e-12
3.13586e-12
1.07358e-12
8.22601e-13
8.21821e-13
7.93708e-13
2.10272e-13
1.55828e-13
1.73118e-13
2.00566e-13
3.69342e-14
2.79822e-14
3.48395e-14
4.18593e-14
5.27749e-15
4.35785e-15
5.70278e-15
8.96155e-15
6.55499e-16
4.9189e-16
9.40738e-16
1.50376e-15
8.01103e-17
7.12604e-17
1.37278e-16
2.58586e-16
9.52135e-18
8.65781e-18
2.02167e-17
4.52468e-17
4.38438e-18
2.23491e-18
4.03825e-18
1.20306e-17
6.10387e-18
1.34642e-18
1.2558e-18
4.48077e-18
8.22092e-18
1.28659e-18
5.40749e-19
1.77196e-18
9.26729e-18
1.45954e-18
3.10305e-19
6.0291e-19
9.52968e-18
1.44657e-18
1.86363e-19
1.33465e-19
8.39471e-18
1.22513e-18
1.13152e-19
3.12775e-20
3.71247e-18
4.63155e-19
3.86553e-20
5.30195e-21
1.29488e-18
1.5148e-19
9.1055e-21
8.23818e-22
2.33946e-19
2.58318e-20
1.22046e-21
8.93682e-23
3.04629e-20
2.98273e-21
1.05741e-22
9.10317e-24
2.89408e-21
2.69525e-22
6.56615e-24
8.33293e-25
2.01769e-22
1.74355e-23
3.1834e-25
7.42338e-26
0.00244567
0.00442675
0.00156309
6.8699e-05
2.35658e-06
2.23841e-06
0.00153154
0.0208344
0.0182448
0.0110431
0.0161447
0.0309244
0.0309382
0.0308925
0.0110571
0.00771104
0.00773361
0.0096091
0.00491638
0.00906041
0.0102765
0.00398733
5.74699e-05
5.92571e-05
2.22476e-06
0.000758907
0.0207928
0.0121962
0.00162683
0.00363579
0.00970627
0.0285868
0.0309029
0.010836
0.00771682
0.0156245
0.019951
0.0172424
0.00697698
0.0117979
0.00608059
0.000141267
0.000286655
0.000684945
0.000671322
0.0153901
0.00944682
0.0016198
0.000914938
0.000917962
0.0112587
0.0289768
0.0127552
0.0121879
0.0197603
0.0199518
0.0199511
0.00508703
0.0187547
0.0142326
0.00079643
0.000240141
0.00165841
0.000677222
0.00327357
0.00226318
0.00363652
0.00207621
0.000922367
0.00521387
0.00687041
0.00694324
0.00622081
0.00700108
0.0158818
0.0197478
0.0139479
0.0210753
0.0143383
0.00105013
1.79654e-06
1.79753e-06
0.0034156
0.00723527
0.0116601
0.011662
0.0116652
0.00357815
0.00197074
0.00197169
0.00480372
0.00288729
0.00209723
0.00208848
0.0140706
0.0149628
0.0210706
0.00804819
1.8673e-06
1.79412e-06
1.7942e-06
5.02306e-05
0.00482957
0.0116648
0.0116652
0.0116645
0.00433336
0.00204629
0.00411993
0.00436644
0.00385989
0.00228719
0.00207793
0.00731523
0.0210436
0.0210546
0.0127394
0.000192531
4.75874e-05
0.00187398
0.00224685
0.00221124
0.0037491
0.00969215
0.00934174
0.00293402
0.00128738
0.000962759
9.43825e-05
0.000146287
0.000319078
0.000250689
0.000187828
0.0153055
0.0209873
0.0158745
0.00464317
0.000903989
3.95877e-05
3.95701e-05
1.18219e-05
1.95927e-05
0.000678293
0.000687569
0.000234014
4.65436e-05
6.33322e-07
1.16662e-05
5.03038e-07
2.79288e-10
2.20935e-10
4.68487e-10
0.00063356
6.70783e-06
2.09789e-05
0.000288533
0.000174585
4.02499e-05
1.24438e-05
1.15181e-05
1.68273e-05
3.64484e-05
2.20793e-05
1.13648e-05
2.58284e-06
2.55518e-07
5.01165e-07
3.73393e-06
3.00229e-06
8.19959e-07
7.58527e-09
1.44592e-07
1.79409e-06
6.42329e-06
1.81058e-05
1.96695e-05
9.00523e-06
1.15097e-05
1.78956e-05
1.72808e-05
2.18531e-05
7.24202e-06
1.00758e-07
9.27439e-08
5.14193e-07
1.1284e-05
2.02952e-05
1.79988e-05
1.48397e-06
9.8893e-09
1.30405e-07
1.64688e-06
4.42376e-06
1.69997e-06
1.26648e-06
1.27739e-06
3.91806e-06
4.94896e-06
6.91629e-06
1.10115e-05
1.107e-05
2.379e-06
1.08224e-06
1.24207e-05
2.0296e-05
2.02946e-05
1.79884e-05
2.19363e-06
2.95261e-08
2.31409e-06
4.2107e-06
4.73456e-06
4.70839e-06
1.51032e-06
2.59764e-07
7.55462e-08
9.95964e-09
9.92806e-09
8.12499e-07
6.04446e-06
8.34335e-06
8.32355e-06
5.3307e-06
1.12106e-05
2.02854e-05
8.45048e-06
3.95749e-07
4.18289e-07
4.11137e-06
4.11772e-06
3.34291e-06
1.9167e-06
3.99573e-07
5.54406e-08
1.24741e-09
4.37594e-08
6.2116e-09
3.8744e-09
1.89606e-08
7.37675e-07
3.60776e-07
3.49942e-08
3.3405e-11
4.42224e-06
1.73236e-06
2.57998e-07
4.67906e-07
3.5053e-06
2.63526e-06
8.72274e-07
7.23989e-10
6.59593e-09
7.48622e-09
1.26281e-09
8.15635e-09
1.9012e-09
9.83189e-10
7.07832e-10
1.27648e-10
1.28517e-10
3.34094e-11
3.33986e-11
2.45791e-06
6.26088e-08
2.4003e-07
4.67984e-07
5.0421e-07
6.92777e-08
7.22288e-10
7.238e-10
1.47459e-09
1.21829e-09
1.10819e-09
7.65714e-10
8.16669e-10
7.66555e-10
4.48491e-10
2.04694e-10
6.22713e-10
3.97106e-09
3.15961e-07
2.68204e-07
2.17245e-08
1.79873e-07
3.85922e-07
3.2638e-08
2.92947e-09
7.33608e-10
7.39348e-10
1.12505e-09
1.12061e-09
9.19265e-10
5.66649e-10
5.75047e-10
3.76078e-10
1.2457e-10
3.18189e-10
2.29634e-09
2.8618e-08
1.3869e-07
5.94189e-08
5.24714e-10
5.61298e-08
2.44086e-07
1.49329e-09
6.9185e-10
4.5976e-10
3.40007e-10
4.42582e-10
5.0766e-10
4.17217e-10
2.67992e-10
1.49496e-10
1.05923e-10
8.34064e-11
5.37762e-10
1.13872e-09
3.05444e-09
3.38331e-09
3.18228e-08
4.10834e-10
4.35116e-10
1.61596e-08
4.42026e-10
3.5171e-10
2.3881e-10
1.6494e-10
1.55788e-10
1.65553e-10
1.49819e-10
8.81194e-11
4.96138e-11
4.53068e-11
8.66533e-11
5.57285e-10
9.34261e-10
7.94957e-10
8.65021e-10
5.22558e-09
6.57718e-10
1.4332e-09
3.80681e-09
2.12894e-10
1.57363e-10
1.02573e-10
8.07835e-11
6.91609e-11
6.65137e-11
6.25682e-11
4.32861e-11
3.74474e-11
3.6347e-11
5.1666e-11
2.91834e-10
5.73575e-10
5.41941e-10
3.94974e-10
8.65583e-10
9.69385e-10
2.20939e-09
3.14355e-09
8.58846e-11
6.01113e-11
4.32805e-11
4.00272e-11
3.67426e-11
3.51675e-11
3.35956e-11
2.85865e-11
2.64143e-11
2.70106e-11
2.88212e-11
6.94481e-11
1.71083e-10
2.43986e-10
2.20559e-10
4.00189e-10
9.66141e-10
2.19464e-09
3.36365e-09
2.8612e-11
2.08671e-11
1.90887e-11
1.97249e-11
1.99682e-11
1.94648e-11
1.83416e-11
1.68839e-11
1.57243e-11
1.53574e-11
1.75866e-11
2.27282e-11
4.46282e-11
8.25368e-11
1.16319e-10
2.17439e-10
8.05908e-10
2.20559e-09
3.38815e-09
8.86565e-12
7.73227e-12
8.18946e-12
8.94483e-12
9.38244e-12
9.21477e-12
8.67323e-12
8.4306e-12
8.4634e-12
8.56395e-12
1.00187e-11
1.1076e-11
1.62621e-11
2.9164e-11
5.01257e-11
1.29259e-10
6.28426e-10
2.12004e-09
3.30146e-09
2.78647e-12
2.93736e-12
3.34825e-12
3.68993e-12
3.9018e-12
3.87356e-12
3.75542e-12
3.77304e-12
3.87056e-12
3.78337e-12
3.9042e-12
5.77907e-12
8.19883e-12
1.38498e-11
2.53717e-11
7.49018e-11
5.01239e-10
1.94107e-09
2.67098e-09
8.4751e-13
9.92878e-13
1.23379e-12
1.42177e-12
1.47129e-12
1.41916e-12
1.43149e-12
1.51485e-12
1.64606e-12
1.72273e-12
1.86538e-12
3.16107e-12
5.3175e-12
9.26519e-12
1.79156e-11
5.16222e-11
3.12717e-10
1.8539e-09
2.13264e-09
2.41904e-13
3.30762e-13
4.18999e-13
4.63798e-13
4.97868e-13
5.12471e-13
5.46851e-13
6.09761e-13
7.40828e-13
1.01006e-12
1.49306e-12
2.74111e-12
5.02823e-12
9.94979e-12
1.95349e-11
5.17687e-11
2.41069e-10
1.83765e-09
1.90056e-09
5.75281e-14
8.99325e-14
1.22843e-13
1.54668e-13
1.72674e-13
1.85169e-13
2.10098e-13
2.75236e-13
4.46178e-13
8.41694e-13
1.6888e-12
3.51261e-12
7.21646e-12
1.42728e-11
2.81584e-11
6.67079e-11
2.92814e-10
1.83942e-09
1.81814e-09
1.32362e-14
2.32863e-14
3.40696e-14
4.45367e-14
5.48888e-14
6.84634e-14
9.84669e-14
1.78725e-13
3.85656e-13
8.91619e-13
2.10375e-12
4.73561e-12
1.02299e-11
2.16739e-11
4.57691e-11
1.05085e-10
4.64317e-10
1.86437e-09
1.71509e-09
2.53425e-15
5.02699e-15
8.16889e-15
1.25896e-14
1.87222e-14
3.16528e-14
6.488e-14
1.5481e-13
3.82812e-13
9.43525e-13
2.26811e-12
5.27565e-12
1.19013e-11
3.19171e-11
7.59548e-11
2.01431e-10
6.2136e-10
1.87395e-09
1.44662e-09
4.75703e-16
1.0672e-15
2.07812e-15
3.96576e-15
8.75888e-15
2.08938e-14
5.39632e-14
1.42021e-13
3.64954e-13
9.12228e-13
2.24341e-12
5.26973e-12
1.21071e-11
3.93321e-11
1.19428e-10
2.88047e-10
8.30439e-10
1.87027e-09
1.0285e-09
1.00988e-16
2.83763e-16
7.36473e-16
1.98718e-15
5.71609e-15
1.62013e-14
4.49567e-14
1.21304e-13
3.16466e-13
8.10471e-13
2.06492e-12
5.18905e-12
1.2435e-11
3.97179e-11
1.53692e-10
3.71611e-10
8.91822e-10
1.69792e-09
7.56626e-10
3.148e-17
1.19367e-16
3.95272e-16
1.26394e-15
3.99376e-15
1.18631e-14
3.3231e-14
9.09214e-14
2.39881e-13
6.34985e-13
1.70394e-12
4.58352e-12
1.19411e-11
3.24593e-11
1.35419e-10
4.04814e-10
8.55183e-10
1.20074e-09
6.48923e-10
1.4312e-17
5.9818e-17
2.28272e-16
7.7929e-16
2.52646e-15
7.43433e-15
2.0892e-14
5.67767e-14
1.56033e-13
4.34968e-13
1.23621e-12
3.54167e-12
9.82802e-12
2.55909e-11
9.34249e-11
3.48372e-10
7.24631e-10
9.19623e-10
4.70649e-10
5.76009e-18
2.76044e-17
1.10518e-16
3.86611e-16
1.29206e-15
3.79089e-15
1.07563e-14
2.9751e-14
8.47579e-14
2.49807e-13
7.66771e-13
2.34145e-12
6.69677e-12
1.74554e-11
5.04513e-11
2.1516e-10
5.45987e-10
6.53204e-10
2.98254e-10
2.08279e-18
1.11572e-17
4.50313e-17
1.61305e-16
5.13939e-16
1.56151e-15
4.4825e-15
1.29487e-14
3.91153e-14
1.26119e-13
4.22678e-13
1.39064e-12
4.15871e-12
1.11379e-11
2.76271e-11
9.19228e-11
2.8271e-10
4.45956e-10
1.56755e-10
6.01641e-19
3.32288e-18
1.37879e-17
5.18401e-17
1.67601e-16
5.06072e-16
1.44189e-15
4.51555e-15
1.47087e-14
5.26599e-14
1.9682e-13
7.0403e-13
2.25219e-12
6.15984e-12
1.46263e-11
3.91447e-11
1.20695e-10
2.16967e-10
8.73179e-11
1.42402e-19
7.97932e-19
3.56084e-18
1.33302e-17
4.38164e-17
1.34452e-16
4.05632e-16
1.27967e-15
4.56345e-15
1.83188e-14
7.73078e-14
3.02849e-13
1.07887e-12
3.08615e-12
7.5333e-12
1.73222e-11
3.98418e-11
9.16772e-11
4.40021e-11
2.77694e-20
1.4804e-19
6.53508e-19
2.45215e-18
8.20198e-18
2.57464e-17
8.32951e-17
2.93527e-16
1.16882e-15
5.3771e-15
2.58107e-14
1.17938e-13
4.34801e-13
1.32589e-12
3.31861e-12
7.62684e-12
1.62326e-11
2.75113e-11
2.39438e-11
3.42546e-21
2.101e-20
9.07655e-20
3.35493e-19
1.12921e-18
3.67707e-18
1.26708e-17
4.92007e-17
2.21105e-16
1.20342e-15
6.85981e-15
3.5882e-14
1.50208e-13
4.92245e-13
1.30753e-12
2.78261e-12
5.08597e-12
9.76121e-12
1.02223e-11
4.20847e-22
2.28198e-21
8.85985e-21
3.1239e-20
1.0755e-19
3.30494e-19
1.39271e-18
6.26727e-18
3.32854e-17
1.99743e-16
1.34152e-15
8.20356e-15
4.00493e-14
1.4363e-13
4.00069e-13
9.5333e-13
1.78148e-12
2.84952e-12
4.29357e-12
4.20464e-23
1.97197e-22
6.88557e-22
2.33333e-21
8.34495e-21
3.0329e-20
1.44464e-19
7.71111e-19
4.86795e-18
3.46402e-17
2.6203e-16
1.83289e-15
9.35466e-15
3.62845e-14
1.06701e-13
2.51315e-13
4.15339e-13
9.10512e-13
1.65116e-12
3.54215e-24
1.41267e-23
4.45247e-23
1.48789e-22
5.78326e-22
2.59182e-21
1.34491e-20
8.55012e-20
6.33582e-19
5.02058e-18
4.08276e-17
3.01434e-16
1.77332e-15
7.53004e-15
2.41297e-14
5.94168e-14
9.28693e-14
2.64571e-13
4.55987e-13
2.62087e-25
8.59018e-25
2.43237e-24
8.18689e-24
3.59272e-23
1.94064e-22
1.23836e-21
9.30576e-21
7.70902e-20
6.40047e-19
5.32885e-18
3.95717e-17
2.50156e-16
1.16131e-15
4.06731e-15
1.08226e-14
1.99196e-14
5.05752e-14
4.24153e-14
)
;

boundaryField
{
    leftWall
    {
        type            zeroGradient;
    }
    rightWall
    {
        type            zeroGradient;
    }
    lowerWall
    {
        type            zeroGradient;
    }
    atmosphere
    {
        type            inletOutlet;
        inletValue      uniform 0;
        value           nonuniform List<scalar> 
46
(
0
0
0
0
0
0
0
0
0
0
0
0
0
0
0
0
0
0
4.80841e-18
8.65768e-19
1.46227e-19
1.51359e-20
1.90474e-21
2.01769e-22
1.74355e-23
3.1834e-25
7.42338e-26
2.62087e-25
8.59018e-25
2.43237e-24
8.18689e-24
3.59272e-23
1.94064e-22
1.23836e-21
9.30576e-21
7.70902e-20
6.40047e-19
5.32885e-18
3.95717e-17
2.50156e-16
1.16131e-15
4.06731e-15
1.08226e-14
1.99196e-14
5.05752e-14
4.24153e-14
)
;
    }
    defaultFaces
    {
        type            empty;
    }
}


// ************************************************************************* //
