/*--------------------------------*- C++ -*----------------------------------*\
| =========                 |                                                 |
| \\      /  F ield         | OpenFOAM: The Open Source CFD Toolbox           |
|  \\    /   O peration     | Version:  2312                                  |
|   \\  /    A nd           | Website:  www.openfoam.com                      |
|    \\/     M anipulation  |                                                 |
\*---------------------------------------------------------------------------*/
FoamFile
{
    version     2.0;
    format      ascii;
    arch        "LSB;label=32;scalar=64";
    class       volScalarField;
    location    "2.45";
    object      alpha.oil;
}
// * * * * * * * * * * * * * * * * * * * * * * * * * * * * * * * * * * * * * //

dimensions      [0 0 0 0 0 0 0];

internalField   nonuniform List<scalar> 
2268
(
7.67505e-10
7.05769e-10
4.80994e-10
2.67856e-10
1.39115e-10
3.74474e-10
4.89634e-10
7.19885e-10
1.80065e-10
6.22511e-11
4.64185e-11
5.22157e-11
6.22246e-11
7.08301e-11
8.19313e-11
1.0191e-10
1.52377e-10
2.70774e-10
3.36233e-10
3.32048e-10
3.32008e-10
4.80787e-05
5.87343e-05
4.65084e-10
4.01611e-10
3.13347e-10
1.81271e-10
1.32725e-10
1.31793e-10
9.01073e-08
2.05829e-08
1.09464e-09
4.12221e-10
3.32709e-10
3.23819e-10
3.20439e-10
2.93461e-10
2.30516e-10
2.15263e-10
2.50867e-10
5.6765e-10
9.99424e-10
3.32023e-10
3.32063e-10
2.40778e-05
4.77345e-05
2.81236e-09
1.32398e-10
1.3228e-10
1.32398e-10
7.00865e-08
4.0205e-06
1.13445e-06
5.94603e-10
6.66206e-10
8.30755e-10
8.88798e-10
7.01506e-10
5.57023e-10
4.59907e-10
3.43038e-10
2.38629e-10
2.08454e-10
3.12382e-10
6.51821e-11
2.63172e-08
2.02411e-07
1.31169e-07
1.98854e-06
2.81357e-09
8.28312e-05
3.42039e-06
0.000137155
0.000131075
2.98949e-05
1.11617e-08
6.63325e-10
5.88164e-10
4.77243e-10
2.65891e-10
2.02296e-10
1.97615e-10
1.89535e-10
1.0394e-10
8.2625e-11
6.50487e-11
6.5064e-11
6.50487e-11
2.30451e-08
4.58405e-08
1.60929e-09
8.91209e-08
0.00107876
0.00588037
0.00461377
0.00241853
0.000248073
4.20012e-05
0.000120293
0.000117707
6.11921e-05
1.98722e-05
5.71924e-06
2.05596e-06
3.91818e-07
4.14348e-08
6.60132e-11
6.35256e-11
6.75439e-07
2.42609e-06
1.52257e-06
5.21498e-07
6.62723e-08
1.36627e-09
1.33933e-09
0.00557981
0.00874517
0.00873835
0.00266156
1.55861e-05
0.000201508
0.000678519
0.000678059
0.000665026
0.000533082
0.000296888
0.000107318
5.31156e-05
4.60687e-05
3.04571e-05
1.33876e-05
6.87224e-06
4.50654e-06
8.34361e-07
1.64729e-09
2.14614e-09
3.60424e-05
0.00155342
0.00582661
0.00446983
0.000652367
2.8021e-07
1.00795e-05
0.000218796
0.000465648
0.000609314
0.000612696
0.000623396
0.000420203
0.000167359
7.49303e-05
5.84025e-05
1.67721e-05
3.69835e-13
8.22211e-24
-1.05554e-25
-1.14097e-10
0.00226507
0.0227459
0.00541771
0.00158404
0.00183711
0.00111318
2.74858e-07
2.74942e-07
2.70878e-05
0.000117577
0.000133646
0.000109883
7.4985e-05
4.40118e-05
2.04592e-05
0.000241873
0.000747145
0.00183764
1.65033e-05
0.032161
0.0110396
0.0397402
0.154054
0.155166
0.0752045
0.049561
0.00161376
0.0429738
0.0428476
0.0421061
0.0419793
0.0403297
0.038925
0.0389592
0.0389263
0.03885
0.03885
0.0437591
0.0450206
0.0460301
0.0329274
0.0278939
0.0278909
0.0278909
0.0310683
0.0375706
0.0863081
0.111544
0.095585
0.078637
0.0522252
0.0429068
0.0473884
0.0791503
0.0942018
0.115309
0.16345
0.231508
0.22841
0.174422
0.137346
0.0755701
0.028767
0.0382347
0.037378
0.189178
0.20852
0.2465
0.262739
0.26667
0.282965
0.329845
0.404651
0.429874
0.422953
0.435002
0.442757
0.442575
0.310425
0.148961
0.202367
0.312914
0.276828
0.235372
0.296552
0.307244
0.276314
0.262683
0.298149
0.380438
0.44746
0.457935
0.458972
0.457958
0.452647
0.44854
0.40081
0.218886
0.146494
0.146055
0.515121
0.530015
0.524975
0.370196
0.402706
0.404361
0.405051
0.405573
0.368744
0.330002
0.343029
0.459903
0.415213
0.390358
0.329142
0.287308
0.253256
0.271656
0.397969
0.530015
0.530015
0.530015
0.363633
0.109436
0.149624
0.130974
0.148742
0.23911
0.329844
0.221159
0.61502
0.613052
0.609599
0.598465
0.424994
0.308102
0.372548
0.529799
0.530015
0.437503
0.460833
0.18573
0.000111941
4.37175e-06
3.71541e-06
3.79577e-06
0.000838449
0.181075
0.220902
0.42221
0.176044
0.166798
0.260231
0.0978671
0.0978649
0.13314
0.425662
0.429356
0.192062
0.329339
3.70988e-06
3.71142e-06
3.71247e-06
3.71433e-06
3.71509e-06
4.55774e-05
0.0233062
0.171955
0.0394109
0.0397356
0.0507036
0.206537
0.141519
0.100831
0.096449
0.0905793
0.0894076
0.149621
0.379637
0.0018364
0.00624976
1.62002e-07
2.91347e-06
2.99161e-06
5.6418e-08
5.58258e-08
5.6418e-08
5.58258e-08
5.64846e-08
1.88336e-06
0.0321224
0.149812
0.270314
0.274932
0.275018
0.235544
0.0134799
0.0225318
0.0355326
0.0890502
0.12727
0.116689
0.582491
0.0791346
1.60607e-07
1.57979e-07
1.55367e-07
3.16875e-07
2.54104e-07
1.12224e-06
1.50114e-06
1.61638e-06
0.00414283
0.186545
0.301204
0.301274
0.256165
0.00163561
0.00112053
0.0011148
0.000674951
0.00067788
0.0123428
0.0939911
0.0915543
0.813084
0.778696
0.462036
0.030446
1.5046e-21
4.72671e-20
-1.2452e-10
-2.50898e-10
-2.2899e-10
-2.92587e-11
-8.06708e-13
0.0298515
0.0940495
0.117908
0.117888
0.120234
0.164999
0.158606
0.187629
0.18109
0.157414
0.189097
0.280129
0.65713
0.869193
0.901222
0.70189
0.278578
0.109624
0.0339957
0.00916074
0.00181927
0.00921688
0.0605894
0.158224
0.313461
0.443987
0.539191
0.721226
0.824299
0.831778
0.85798
0.90781
0.893257
0.88774
0.913778
0.656582
0.750118
0.900558
0.860667
0.831729
0.897627
0.838726
0.609465
0.456594
0.521555
0.661506
0.766879
0.818605
0.890451
0.958412
0.978667
0.97227
0.932913
0.939745
0.989214
0.997986
0.998015
0.998014
0.720256
0.775009
0.77751
0.776646
0.84798
0.994462
0.99874
0.998757
0.996567
0.987555
0.992768
0.995191
0.990396
0.922536
0.915269
0.95344
0.99706
0.994061
0.953575
0.949755
0.965711
0.997591
0.998015
0.780203
0.775326
0.845608
0.856824
0.974289
0.998714
0.998885
0.998811
0.998103
0.997877
0.995592
0.99516
0.996736
0.996012
0.985243
0.987024
0.996908
0.997617
0.997617
0.955913
0.957507
0.995012
0.997165
0.780148
0.332534
0.90601
0.884832
0.888345
0.97826
0.998849
0.998854
0.987968
0.971492
0.971567
0.974213
0.995859
0.997616
0.997618
0.997615
0.997604
0.997614
0.997617
0.996532
0.990582
0.976658
0.888916
0.765742
0.280328
0.413611
0.316994
0.579734
0.985291
0.997721
0.997309
0.989468
0.968102
0.990791
0.991462
0.991489
0.967414
0.915559
0.850637
0.790995
0.705964
0.582196
0.485443
0.382519
0.186701
0.00418515
0.821704
0.387688
0.283236
0.283197
0.592089
0.985828
0.997184
0.988802
0.948032
0.944421
0.956726
0.908026
0.639421
0.30232
0.128946
0.0685906
0.0405737
0.0121198
0.000552466
-7.08572e-24
-1.93982e-10
-1.08873e-10
-1.57675e-10
0.919517
0.974758
0.652815
0.834262
0.996595
0.996714
0.99694
0.988206
0.901612
0.472649
0.17763
0.0496753
-2.44214e-14
-1.18588e-08
-5.17499e-08
7.12178e-08
7.96977e-08
8.74911e-08
2.53077e-06
2.24375e-06
2.01145e-07
4.70093e-09
4.20674e-10
0.97737
0.985456
0.995531
0.99575
0.995495
0.992602
0.983524
0.969554
0.942117
0.5667
0.0169366
1.47455e-15
-5.26314e-12
1.43475e-05
0.000103767
1.25777e-05
2.24567e-07
8.01945e-07
7.17308e-09
7.28238e-09
8.2236e-09
5.82466e-09
3.52824e-06
0.907077
0.891295
0.883414
0.836608
0.733095
0.57325
0.417248
0.305551
0.166391
0.0192341
-5.86036e-21
-1.87024e-12
-4.69976e-12
4.29776e-05
0.000120429
0.000109813
6.6686e-06
6.48566e-07
3.77407e-05
4.96123e-05
2.02416e-05
4.67731e-09
4.69984e-09
0.223854
0.200961
0.155349
0.0936958
0.0242096
1.07641e-19
-2.47773e-23
5.39927e-24
8.64552e-12
8.35858e-12
1.05622e-08
8.78027e-10
-1.01051e-12
1.98708e-05
9.09937e-05
5.07096e-05
8.85166e-06
4.99066e-08
6.99501e-06
7.10645e-05
0.000180704
0.000178808
0.000169496
1.94028e-25
8.46973e-28
-3.26576e-25
-1.81401e-23
3.05054e-08
6.05776e-07
3.69532e-06
7.69495e-06
1.12796e-05
2.43948e-07
2.03923e-23
-2.92654e-23
1.14189e-05
2.71153e-05
4.30196e-06
1.15525e-06
1.74008e-06
4.9768e-08
4.96731e-08
1.02597e-05
4.63932e-05
5.64025e-05
4.40241e-05
2.59526e-08
3.45564e-09
8.9418e-08
1.05562e-06
6.51689e-06
1.67969e-05
2.89373e-05
3.10317e-05
2.86111e-05
1.08159e-05
2.90098e-05
4.52633e-05
5.47959e-05
5.60692e-05
8.07538e-06
9.39737e-07
1.08976e-07
6.89257e-08
4.99026e-08
1.10997e-07
8.07841e-08
1.06781e-07
4.37339e-08
1.00949e-07
1.74259e-07
6.45468e-07
3.59553e-06
2.12227e-05
2.99003e-05
3.03354e-05
2.80289e-05
9.05454e-06
2.9191e-05
5.4258e-05
5.53033e-05
5.68362e-05
4.26355e-05
1.80232e-05
2.59748e-06
1.8658e-07
1.38894e-07
9.93602e-08
5.21145e-08
2.2705e-08
1.94697e-08
2.42118e-08
3.98032e-07
3.85754e-07
1.71395e-06
4.49359e-06
2.22484e-05
2.56671e-05
5.78931e-06
1.03971e-07
4.12608e-07
5.75541e-06
1.57235e-05
1.72631e-05
5.72069e-06
1.61499e-06
5.43136e-06
1.96224e-06
1.81016e-07
8.39894e-08
6.01759e-08
3.62966e-08
1.28439e-08
7.35817e-09
6.39661e-09
1.31795e-06
7.53636e-07
1.47198e-06
5.57119e-07
1.38546e-08
1.34615e-08
1.30554e-08
9.80566e-08
1.80265e-08
2.40284e-08
8.92381e-09
1.99873e-08
3.94453e-08
2.42471e-08
1.36219e-08
9.64148e-08
6.47714e-08
2.38307e-08
2.06926e-08
1.03175e-08
4.02126e-09
3.15525e-09
2.86609e-09
1.86656e-06
1.88195e-06
1.0354e-06
1.48963e-08
1.4441e-08
1.51503e-08
1.26232e-08
8.45298e-09
6.04466e-09
5.96114e-09
8.94804e-09
1.03046e-08
1.0674e-08
9.1764e-09
6.73547e-09
2.49635e-09
7.02338e-09
6.00422e-09
4.52805e-09
1.93345e-09
1.64549e-09
1.72897e-09
1.97785e-09
1.26495e-06
1.85174e-06
1.86665e-06
5.26137e-07
6.56482e-08
1.98903e-08
1.1367e-08
6.48112e-09
6.0611e-09
4.33182e-09
3.45929e-09
3.6739e-09
3.75943e-09
3.62606e-09
3.13412e-09
2.04778e-09
1.93919e-09
1.62537e-09
1.54282e-09
1.02221e-09
1.12645e-09
1.27457e-09
1.50749e-09
1.14544e-06
1.41993e-06
1.86332e-06
1.43765e-06
2.40786e-07
9.38189e-09
7.7173e-09
6.67977e-09
4.78053e-09
3.0955e-09
2.31292e-09
2.02351e-09
1.76138e-09
1.56028e-09
1.35281e-09
1.05682e-09
9.19486e-10
8.21959e-10
7.82608e-10
7.26736e-10
7.68301e-10
8.89245e-10
9.87758e-10
1.34519e-06
1.13502e-06
1.86692e-06
1.16871e-06
2.02494e-08
1.2545e-08
6.11574e-09
3.78941e-09
2.31629e-09
1.98624e-09
1.58435e-09
1.29035e-09
1.05302e-09
8.51056e-10
7.09433e-10
5.86391e-10
5.05879e-10
4.58414e-10
4.34565e-10
4.38801e-10
4.5561e-10
4.66616e-10
5.39913e-10
1.89894e-06
7.37197e-07
1.58592e-06
6.5081e-07
5.52507e-08
2.34002e-08
4.7945e-09
3.1423e-09
1.93757e-09
1.55121e-09
1.16757e-09
8.85299e-10
6.80885e-10
5.12229e-10
3.98739e-10
3.09969e-10
2.62227e-10
2.3167e-10
2.15234e-10
2.12142e-10
2.10295e-10
2.10909e-10
2.37093e-10
1.89734e-06
4.96856e-07
9.84905e-08
3.39872e-07
1.59031e-07
3.16749e-08
6.56971e-09
2.65562e-09
1.86227e-09
1.39533e-09
1.03078e-09
7.32266e-10
5.0924e-10
3.44993e-10
2.4175e-10
1.71027e-10
1.28313e-10
1.04892e-10
9.15483e-11
8.45294e-11
7.84706e-11
7.16284e-11
8.551e-11
1.72022e-06
5.6332e-08
5.91087e-08
5.74408e-08
1.03116e-07
4.71568e-08
1.40209e-08
3.5642e-09
1.92483e-09
1.42443e-09
1.02843e-09
6.98405e-10
4.50037e-10
2.75697e-10
1.67916e-10
1.05385e-10
6.69528e-11
4.71158e-11
3.59596e-11
2.898e-11
2.46621e-11
2.35356e-11
2.55647e-11
9.29836e-07
9.12489e-05
0.000367126
0.000126654
6.85063e-06
5.27187e-09
1.86633e-08
6.70591e-09
2.28474e-09
1.61744e-09
1.14934e-09
7.64205e-10
4.73943e-10
2.72701e-10
1.51345e-10
8.04211e-11
4.31798e-11
2.4588e-11
1.50062e-11
1.00259e-11
7.26145e-12
5.63904e-12
6.74538e-12
1.0652e-06
0.00214907
0.00269575
0.0013216
1.07553e-05
5.30272e-09
5.11391e-09
5.45612e-09
2.72199e-09
1.90033e-09
1.44446e-09
1.0441e-09
6.74973e-10
3.94771e-10
1.94535e-10
9.151e-11
4.02862e-11
1.81486e-11
8.1903e-12
4.15022e-12
2.41494e-12
1.58768e-12
1.63418e-12
0.00108239
0.0028489
0.00253029
0.00150251
5.16409e-06
1.78461e-08
9.82731e-08
3.49962e-08
5.75003e-09
2.33491e-09
2.02722e-09
1.74764e-09
1.32956e-09
7.74989e-10
3.64484e-10
1.53036e-10
5.80186e-11
2.1381e-11
7.64022e-12
2.7967e-12
1.08908e-12
4.61911e-13
4.24415e-13
0.00276169
0.00281448
0.0014141
0.000193471
3.19871e-09
1.20686e-07
1.2668e-07
1.73622e-08
3.68532e-09
2.90937e-09
3.2028e-09
3.41831e-09
2.93838e-09
1.67136e-09
7.50163e-10
2.96598e-10
1.03645e-10
3.41618e-11
1.03268e-11
2.93564e-12
8.8913e-13
2.46857e-13
1.33979e-13
0.00177861
0.000786443
-1.44665e-09
3.15859e-09
3.14877e-09
5.81305e-08
2.15187e-08
6.01871e-09
5.74398e-09
4.06593e-09
5.51367e-09
6.71494e-09
6.39579e-09
3.29596e-09
1.41173e-09
5.38889e-10
1.81699e-10
5.64947e-11
1.54799e-11
4.00623e-12
9.98641e-13
2.11374e-13
6.73437e-14
0.000439394
2.15743e-08
9.81282e-09
7.0078e-09
1.04407e-08
4.10467e-08
8.49453e-08
3.38888e-08
3.38334e-09
5.64696e-09
8.96952e-09
1.20254e-08
1.31704e-08
5.23457e-09
2.16187e-09
8.34898e-10
2.77422e-10
8.58959e-11
2.20777e-11
5.40517e-12
1.2447e-12
2.088e-13
4.27516e-14
4.20244e-09
3.77611e-09
4.95301e-08
2.62926e-07
1.99053e-07
9.52785e-08
1.29017e-07
7.14671e-08
2.67922e-09
7.6412e-09
1.57647e-08
3.17323e-08
2.31863e-08
7.42053e-09
2.72313e-09
1.13165e-09
3.80361e-10
1.11783e-10
2.82349e-11
6.39053e-12
1.35767e-12
2.19174e-13
3.14744e-14
7.11745e-09
1.64025e-08
1.24279e-07
4.07667e-07
4.10703e-07
2.54927e-07
1.30953e-07
2.90637e-08
2.74564e-09
1.1671e-08
6.55151e-08
1.40929e-07
2.60459e-08
4.4903e-09
2.95655e-09
1.24808e-09
4.33087e-10
1.26132e-10
3.1021e-11
6.4212e-12
1.34088e-12
1.92946e-13
2.48109e-14
1.69521e-08
1.54444e-08
5.5304e-08
2.49192e-07
4.10033e-07
2.51622e-07
2.96113e-09
4.95821e-09
1.60823e-08
1.90678e-07
7.25361e-07
4.08731e-07
4.21879e-09
4.0814e-09
2.53867e-09
1.14972e-09
4.21871e-10
1.21554e-10
2.8358e-11
5.43736e-12
1.05235e-12
1.54076e-13
1.72909e-14
2.56096e-08
1.79532e-08
3.34497e-09
9.53786e-09
4.96248e-08
5.62436e-08
2.54404e-09
4.41567e-09
3.43509e-08
5.34518e-07
7.76184e-07
6.07044e-07
5.86881e-09
1.35905e-09
1.8392e-09
9.02108e-10
3.32671e-10
9.64831e-11
2.20508e-11
4.04094e-12
7.37987e-13
9.90086e-14
1.14574e-14
4.00428e-08
3.08933e-08
1.08609e-08
2.89224e-09
2.36772e-09
3.95036e-09
2.88937e-09
1.96049e-08
2.50173e-07
7.86728e-07
7.80868e-07
3.1332e-07
1.15251e-09
1.31462e-09
1.26116e-09
6.03138e-10
2.17775e-10
5.91121e-11
1.3415e-11
2.37587e-12
4.14394e-13
4.73967e-14
4.60879e-15
4.21647e-08
5.715e-08
5.97285e-08
2.07223e-08
4.53057e-09
2.80774e-09
1.74869e-08
2.12387e-07
6.96462e-07
7.86275e-07
7.49403e-07
6.64996e-08
1.15216e-09
1.14157e-09
8.03985e-10
3.48486e-10
1.10043e-10
2.80018e-11
5.71506e-12
1.04521e-12
1.53175e-13
1.77891e-14
1.64345e-15
3.22803e-08
7.37817e-08
1.57205e-07
2.08759e-07
1.77814e-07
1.25791e-07
1.38008e-07
5.04916e-07
6.09859e-07
7.54344e-07
3.40251e-07
1.04938e-08
1.34518e-09
1.13717e-09
5.48593e-10
1.81714e-10
4.62392e-11
9.29349e-12
1.66737e-12
2.4985e-13
3.78491e-14
3.98506e-15
3.67261e-16
3.17878e-08
3.81046e-08
7.26509e-08
2.43502e-07
2.83511e-07
2.8362e-07
2.56572e-07
9.05844e-08
2.64434e-07
1.49026e-07
6.97259e-09
4.16007e-09
1.56147e-09
7.81788e-10
2.71732e-10
6.67748e-11
1.19909e-11
1.74755e-12
2.38081e-13
3.78326e-14
4.64506e-15
5.9223e-16
5.56071e-17
3.94157e-07
8.69647e-08
7.17137e-08
7.60084e-08
1.26301e-07
2.20748e-07
1.56284e-07
6.85281e-08
2.26261e-08
1.03175e-08
4.86409e-09
2.59844e-09
1.43287e-09
5.35667e-10
1.317e-10
2.06584e-11
2.17715e-12
1.86042e-13
1.77572e-14
2.82095e-15
3.84841e-16
4.36885e-17
6.57452e-18
6.52009e-07
3.21668e-07
1.92768e-07
1.86018e-07
1.09789e-07
1.91407e-07
1.50543e-07
9.38428e-08
1.94721e-08
4.48249e-10
5.02773e-10
7.99136e-10
4.61167e-10
1.40729e-10
2.46124e-11
2.44747e-12
1.52033e-13
7.64419e-15
5.74622e-16
1.14667e-16
2.39077e-17
3.26546e-18
5.67071e-19
0.0338759
0.00106419
9.9734e-05
3.71364e-06
0.0340014
0.0345671
0.0817854
0.14667
0.464116
0.73261
0.845057
0.895756
0.970139
0.997468
0.99789
0.99802
0.998015
0.998016
0.998025
0.998022
0.998015
0.998022
0.998023
0.998028
0.996929
0.985804
0.979614
0.968436
0.770189
0.542376
0.084862
6.67406e-19
6.55488e-16
-2.87501e-12
-1.78147e-09
2.28389e-08
-9.66589e-11
-3.72842e-11
1.23827e-07
1.79477e-07
2.86136e-06
5.12136e-06
2.20952e-25
-3.7117e-26
6.42267e-06
1.19489e-05
1.11687e-05
3.761e-06
3.81871e-06
5.51964e-06
2.59666e-05
4.50176e-05
1.69379e-05
2.63373e-06
4.26141e-06
1.82253e-05
1.9119e-05
2.64322e-06
6.52102e-09
6.62322e-09
5.14846e-07
6.80102e-07
9.66354e-08
6.93279e-09
3.24444e-08
4.67659e-08
1.22559e-08
5.35757e-09
5.92711e-09
4.19978e-09
3.23383e-09
3.4072e-09
2.78863e-09
2.6099e-09
2.68262e-09
3.0433e-09
2.06076e-09
2.16632e-09
2.41744e-09
2.67275e-09
1.58988e-09
1.67378e-09
1.80331e-09
1.99268e-09
1.05205e-09
1.07665e-09
1.14943e-09
1.21389e-09
5.50672e-10
5.4794e-10
5.79115e-10
6.32253e-10
2.37609e-10
2.30728e-10
2.54645e-10
2.70237e-10
8.43263e-11
7.84086e-11
8.96132e-11
1.05775e-10
2.64138e-11
2.45044e-11
2.94042e-11
3.4533e-11
6.69821e-12
6.47276e-12
8.10229e-12
1.17109e-11
1.61525e-12
1.5736e-12
2.52036e-12
4.00536e-12
4.4772e-13
5.17105e-13
9.73194e-13
2.06299e-12
1.46637e-13
2.19618e-13
5.23176e-13
1.24391e-12
6.79326e-14
1.1752e-13
3.09353e-13
8.65697e-13
3.18834e-14
6.1997e-14
1.77275e-13
5.30204e-13
1.72904e-14
3.00298e-14
9.55977e-14
3.10307e-13
8.90345e-15
1.48657e-14
4.84369e-14
1.62978e-13
4.73664e-15
6.20426e-15
1.94731e-14
6.46854e-14
2.51513e-15
2.65305e-15
7.99807e-15
2.88738e-14
9.2397e-16
9.05999e-16
3.05483e-15
9.92977e-15
3.13626e-16
3.13821e-16
9.91688e-16
3.40224e-15
6.96004e-17
8.93209e-17
2.86216e-16
8.73219e-16
1.33895e-17
2.29039e-17
7.24187e-17
2.16535e-16
2.31246e-18
5.49086e-18
1.70139e-17
4.86812e-17
3.85323e-19
1.09952e-18
3.38021e-18
9.07582e-18
3.71263e-06
3.71246e-06
3.71393e-06
3.71492e-06
3.71631e-06
3.7173e-06
0.00975704
0.0100708
0.0333979
0.039664
0.0395501
0.222297
0.481284
0.186199
0.0869877
0.0870495
0.100354
0.12453
0.202181
0.234028
0.282023
0.149356
0.0510876
0.0152601
0.1919
0.0100602
0.255526
0.1286
0.0721968
0.0809936
0.199349
0.480799
0.304506
0.086971
0.125206
0.249518
0.273441
0.225667
0.937394
0.932053
0.828005
0.628922
0.52195
0.341851
0.195664
0.584744
0.596155
0.401189
0.369171
0.241141
0.443863
0.445936
0.110619
0.450732
0.792966
0.760219
0.718219
0.994913
0.981245
0.981587
0.938051
0.909355
0.5741
0.47236
0.59638
0.595964
0.394086
0.435848
0.407704
0.494825
0.668334
0.665351
0.790649
0.792954
0.792966
0.758555
0.927786
0.904568
0.954024
0.981828
0.988438
0.991862
0.870672
0.529778
0.301826
0.354532
0.610913
0.691873
0.692442
0.771148
0.782899
0.782072
0.767654
0.786804
0.338009
0.698821
0.324997
0.750255
0.991925
0.991927
0.991925
0.986965
0.834765
0.277741
0.139434
0.508995
0.691893
0.578818
0.477258
0.414871
0.269624
0.208065
0.199007
0.0978244
0.305612
4.77235e-11
0.160721
0.651151
0.661347
0.485505
0.251911
0.0524916
0.0193905
2.46946e-05
0.150305
0.293946
0.107485
0.0157385
-1.79902e-08
-5.74451e-17
5.81335e-13
1.4603e-11
4.79506e-12
5.14287e-19
1.15299e-11
6.85836e-05
0.0212866
0.0168941
0.00107218
-1.18918e-07
-5.18426e-13
3.78136e-05
2.74384e-06
4.06227e-09
-1.84536e-09
-4.06676e-11
5.94339e-06
5.85344e-06
8.60068e-06
1.99188e-06
7.27733e-06
1.70814e-06
9.04711e-09
8.18256e-11
2.05059e-07
-3.35368e-08
-5.78767e-08
1.47387e-06
3.6021e-05
0.000147621
1.58196e-05
6.49453e-07
3.57443e-07
8.02492e-07
2.50918e-08
8.68847e-09
1.15562e-05
6.20402e-05
0.000102831
6.53e-05
3.45062e-06
-5.74211e-10
8.70428e-06
2.08013e-05
2.67068e-05
4.78864e-05
0.000179179
0.000357496
0.000376835
0.000316799
0.000121694
2.23002e-05
9.96323e-08
2.10624e-09
8.04829e-07
0.000136875
0.000313938
0.000313947
9.35879e-05
5.83603e-08
1.85707e-27
1.09721e-09
8.3262e-05
0.000369606
0.000376571
0.000376805
0.000376832
0.00037681
0.000363887
0.000215004
9.73464e-05
7.05626e-08
2.91217e-06
0.000127497
0.000311445
0.000310624
0.000312644
6.98773e-05
6.43304e-08
3.31429e-06
1.89464e-06
5.18238e-05
0.000156499
0.000180596
0.000183527
0.000183154
0.000106998
4.22094e-05
3.55606e-05
3.81294e-05
0.000103995
0.00010713
7.35173e-05
4.99977e-05
0.00026623
0.00020292
1.35351e-05
8.81544e-08
4.50413e-05
4.47283e-05
4.37028e-05
2.54042e-05
1.95992e-09
1.81858e-09
1.87645e-09
1.80979e-09
1.91634e-09
1.27059e-07
6.40357e-08
8.87474e-06
4.93083e-06
5.01333e-07
3.66435e-09
5.95997e-05
4.54121e-05
4.41116e-07
3.8633e-08
2.49369e-05
2.79431e-05
2.82737e-05
1.14786e-05
1.9375e-09
1.16472e-08
2.48566e-08
1.40028e-08
7.82514e-09
4.84942e-08
6.42468e-08
3.65515e-09
3.65627e-09
3.9798e-09
3.66568e-09
2.83371e-05
2.11118e-07
1.81448e-08
2.12662e-08
5.20691e-08
2.4996e-07
1.49992e-07
1.30582e-07
6.4563e-09
4.49509e-08
4.50196e-08
2.24957e-08
3.07598e-08
2.72078e-07
3.25146e-07
7.07306e-08
4.24041e-09
2.81918e-07
1.21148e-06
1.65198e-07
2.77335e-07
1.81768e-08
1.76508e-08
1.05543e-08
1.75801e-08
1.2767e-08
1.44342e-08
1.58125e-08
3.56019e-08
3.33016e-08
1.15774e-08
2.01997e-07
5.07934e-07
4.29503e-07
4.6009e-08
6.33815e-09
7.16983e-08
4.1499e-07
1.66266e-07
4.09024e-07
2.67425e-07
1.20035e-06
9.96158e-09
1.16671e-08
1.08031e-08
1.15586e-08
1.7427e-08
2.12087e-08
1.52659e-08
6.94636e-09
3.74786e-07
5.07934e-07
3.26713e-07
7.13904e-09
6.69583e-09
7.15491e-09
1.42578e-08
2.10617e-07
7.64827e-07
4.26254e-06
5.75142e-06
6.54301e-09
8.82464e-09
8.67951e-09
8.0864e-09
9.21257e-09
9.55347e-09
6.62492e-09
6.92329e-09
1.8095e-07
4.53436e-07
8.37865e-08
7.23373e-09
9.10219e-09
8.80805e-09
8.80043e-09
9.02515e-08
1.00794e-06
5.75142e-06
5.75142e-06
4.66379e-09
6.03685e-09
6.25253e-09
5.4879e-09
4.19251e-09
3.77699e-09
3.81473e-09
3.6521e-09
2.09786e-08
9.24052e-08
1.17067e-08
9.82837e-09
1.03515e-08
1.15653e-08
1.00226e-08
2.64356e-08
2.72718e-07
3.23061e-06
5.75142e-06
3.4734e-09
3.99386e-09
4.04384e-09
3.82138e-09
3.18064e-09
3.14127e-09
3.39256e-09
2.6836e-09
1.55105e-09
4.04874e-09
3.29431e-09
8.75012e-09
8.86995e-09
1.20502e-08
1.85793e-08
2.64986e-08
5.69682e-08
1.53804e-07
2.53472e-06
2.31659e-09
2.44744e-09
2.51916e-09
2.51554e-09
2.43207e-09
2.5882e-09
2.76438e-09
2.04525e-09
1.00793e-09
1.19179e-09
2.28814e-09
4.88286e-09
5.83273e-09
7.48429e-09
1.50784e-08
8.41648e-08
2.7634e-07
1.99735e-07
3.39463e-07
1.33396e-09
1.38725e-09
1.45252e-09
1.5144e-09
1.6065e-09
1.81005e-09
1.92315e-09
1.4559e-09
9.98793e-10
1.06386e-09
1.4388e-09
2.42387e-09
3.63355e-09
4.70944e-09
8.11938e-09
5.61622e-08
2.5633e-06
7.2561e-06
6.98762e-07
6.74087e-10
7.37048e-10
7.98237e-10
8.52334e-10
9.40951e-10
1.09204e-09
1.18094e-09
1.04461e-09
9.33597e-10
1.04832e-09
1.2997e-09
1.79768e-09
2.72187e-09
3.65584e-09
5.29537e-09
5.01121e-08
2.78921e-06
8.39411e-06
8.39709e-06
3.03674e-10
3.44383e-10
4.04216e-10
4.58195e-10
5.11083e-10
5.95103e-10
6.8911e-10
7.63032e-10
8.4799e-10
1.03664e-09
1.32034e-09
1.7315e-09
2.45885e-09
3.36481e-09
3.86717e-09
3.22937e-08
1.56909e-06
8.39709e-06
6.67514e-06
1.23888e-10
1.5751e-10
1.9274e-10
2.24609e-10
2.72652e-10
3.46686e-10
4.56227e-10
5.90228e-10
7.63906e-10
1.00634e-09
1.32117e-09
1.72925e-09
2.36783e-09
3.36996e-09
3.48881e-09
1.02826e-08
2.88796e-07
5.9551e-06
7.46563e-07
4.43476e-11
6.41142e-11
8.82863e-11
1.21168e-10
1.64972e-10
2.32774e-10
3.41121e-10
4.9666e-10
7.07581e-10
9.72495e-10
1.2939e-09
1.69112e-09
2.31688e-09
3.61415e-09
4.37845e-09
4.56619e-09
4.99238e-08
2.07594e-07
4.16847e-08
1.64284e-11
2.83672e-11
4.505e-11
7.12502e-11
1.13666e-10
1.83325e-10
2.94168e-10
4.53964e-10
6.67058e-10
9.31442e-10
1.2515e-09
1.66193e-09
2.57187e-09
6.12061e-09
1.33075e-08
4.2956e-09
7.01984e-09
1.52195e-08
1.11379e-08
7.03416e-12
1.46114e-11
2.73345e-11
5.09953e-11
9.14939e-11
1.60138e-10
2.67528e-10
4.23203e-10
6.2503e-10
8.72998e-10
1.17091e-09
1.59012e-09
2.75354e-09
1.62844e-08
6.49026e-08
4.8998e-08
4.36351e-09
5.37966e-09
1.03869e-08
4.03866e-12
9.70934e-12
2.03715e-11
4.07647e-11
7.95301e-11
1.43305e-10
2.42204e-10
3.81429e-10
5.60218e-10
7.76599e-10
1.0408e-09
1.36663e-09
1.97477e-09
1.79994e-08
1.58031e-07
2.24635e-07
2.63972e-08
5.06374e-09
1.48004e-07
2.81932e-12
7.28445e-12
1.62116e-11
3.40874e-11
6.78926e-11
1.23778e-10
2.07993e-10
3.24352e-10
4.71442e-10
6.49162e-10
8.70898e-10
1.1742e-09
1.60734e-09
7.36915e-09
1.12378e-07
2.71233e-07
1.78772e-07
4.90023e-08
2.65128e-07
1.95799e-12
5.45496e-12
1.26376e-11
2.71356e-11
5.44357e-11
9.92147e-11
1.64763e-10
2.55075e-10
3.65851e-10
5.01555e-10
6.80345e-10
9.49132e-10
1.35474e-09
2.30181e-09
3.9412e-08
2.69155e-07
2.95857e-07
2.27598e-07
2.74075e-07
1.34505e-12
3.7361e-12
9.11787e-12
2.00065e-11
4.02543e-11
7.22354e-11
1.19149e-10
1.81457e-10
2.6063e-10
3.59355e-10
4.93164e-10
7.15729e-10
1.11161e-09
1.67519e-09
7.42837e-09
1.03428e-07
2.95975e-07
2.92904e-07
1.91645e-07
7.80702e-13
2.33862e-12
5.84992e-12
1.29175e-11
2.63782e-11
4.68835e-11
7.71562e-11
1.16796e-10
1.67883e-10
2.32137e-10
3.23246e-10
4.84461e-10
7.97525e-10
1.26553e-09
2.03313e-09
2.96376e-08
2.56823e-07
2.9566e-07
5.31291e-08
4.31349e-13
1.36814e-12
3.43285e-12
7.66576e-12
1.51339e-11
2.72315e-11
4.43237e-11
6.82604e-11
9.98598e-11
1.41864e-10
2.00551e-10
3.06118e-10
5.25305e-10
9.04958e-10
1.31354e-09
5.22472e-09
5.90987e-08
2.26518e-07
1.8576e-08
2.10489e-13
6.77015e-13
1.722e-12
3.93043e-12
7.74323e-12
1.37247e-11
2.23871e-11
3.54709e-11
5.35038e-11
7.84594e-11
1.1349e-10
1.75182e-10
3.09242e-10
5.68889e-10
8.77375e-10
1.46498e-09
1.01696e-08
3.56811e-08
1.53036e-08
9.23583e-14
2.9396e-13
7.753e-13
1.74307e-12
3.45413e-12
6.16537e-12
1.03781e-11
1.67919e-11
2.63851e-11
4.01744e-11
5.93894e-11
9.03044e-11
1.63418e-10
3.18554e-10
5.43746e-10
7.21023e-10
1.16453e-09
4.59615e-09
8.82254e-09
3.61914e-14
1.10255e-13
2.85114e-13
6.40333e-13
1.27099e-12
2.30659e-12
4.07513e-12
7.04944e-12
1.18433e-11
1.9139e-11
2.91846e-11
4.45711e-11
7.68161e-11
1.54939e-10
2.93298e-10
4.71411e-10
6.9578e-10
1.64272e-09
4.93555e-09
1.06192e-14
3.49516e-14
8.91026e-14
1.96896e-13
3.92375e-13
7.39649e-13
1.37054e-12
2.54154e-12
4.61063e-12
8.03575e-12
1.27818e-11
1.93193e-11
3.25612e-11
6.71939e-11
1.41908e-10
2.60589e-10
5.14818e-10
1.36542e-09
2.69665e-09
3.02833e-15
9.21898e-15
2.2225e-14
4.85212e-14
1.00629e-13
1.93891e-13
4.03597e-13
8.12392e-13
1.59011e-12
2.92213e-12
4.82228e-12
7.19301e-12
1.15342e-11
2.37093e-11
5.38878e-11
1.19302e-10
2.67821e-10
7.22039e-10
1.57958e-09
6.98875e-16
2.03179e-15
4.77737e-15
1.07499e-14
2.35725e-14
5.16339e-14
1.15459e-13
2.48311e-13
5.16431e-13
9.96538e-13
1.70868e-12
2.55631e-12
3.72552e-12
7.23185e-12
1.717e-11
3.92326e-11
7.73177e-11
2.56341e-10
7.3332e-10
1.36021e-16
3.71545e-16
8.66136e-16
2.03608e-15
4.82234e-15
1.1483e-14
2.64716e-14
5.98124e-14
1.2933e-13
2.54559e-13
4.48169e-13
6.66485e-13
9.6572e-13
1.77894e-12
4.4493e-12
1.09484e-11
2.07147e-11
7.48666e-11
2.1759e-10
2.11259e-17
5.30507e-17
1.2284e-16
3.00787e-16
7.48451e-16
1.83062e-15
4.3868e-15
1.04314e-14
2.30325e-14
4.54288e-14
8.10828e-14
1.21537e-13
1.7663e-13
3.15159e-13
8.19338e-13
2.19612e-12
4.81312e-12
1.47519e-11
2.03363e-11
)
;

boundaryField
{
    leftWall
    {
        type            zeroGradient;
    }
    rightWall
    {
        type            zeroGradient;
    }
    lowerWall
    {
        type            zeroGradient;
    }
    atmosphere
    {
        type            inletOutlet;
        inletValue      uniform 0;
        value           nonuniform List<scalar> 
46
(
0
0
0
0
0
0
0
0
0
0
0
0
0
0
0
0
0
0
5.74622e-16
1.14667e-16
2.39077e-17
3.26546e-18
5.67071e-19
3.85323e-19
1.09952e-18
3.38021e-18
9.07582e-18
2.11259e-17
5.30507e-17
1.2284e-16
3.00787e-16
7.48451e-16
1.83062e-15
4.3868e-15
1.04314e-14
2.30325e-14
4.54288e-14
8.10828e-14
1.21537e-13
1.7663e-13
3.15159e-13
8.19338e-13
2.19612e-12
4.81312e-12
1.47519e-11
2.03363e-11
)
;
    }
    defaultFaces
    {
        type            empty;
    }
}


// ************************************************************************* //
