/*--------------------------------*- C++ -*----------------------------------*\
| =========                 |                                                 |
| \\      /  F ield         | OpenFOAM: The Open Source CFD Toolbox           |
|  \\    /   O peration     | Version:  2312                                  |
|   \\  /    A nd           | Website:  www.openfoam.com                      |
|    \\/     M anipulation  |                                                 |
\*---------------------------------------------------------------------------*/
FoamFile
{
    version     2.0;
    format      ascii;
    arch        "LSB;label=32;scalar=64";
    class       volScalarField;
    location    "2.45";
    object      alpha.air;
}
// * * * * * * * * * * * * * * * * * * * * * * * * * * * * * * * * * * * * * //

dimensions      [0 0 0 0 0 0 0];

internalField   nonuniform List<scalar> 
2268
(
7.05301e-10
6.04817e-10
4.2215e-10
2.25001e-10
1.24999e-10
6.84855e-11
3.42639e-11
1.99321e-11
1.01299e-11
5.17872e-12
3.23368e-12
2.76658e-12
3.47974e-12
6.04197e-12
1.16071e-11
2.47795e-11
6.85235e-11
4.85279e-11
3.61703e-11
3.89532e-11
4.05975e-11
4.0665e-11
1.45312e-08
7.06169e-10
1.10236e-09
1.1045e-09
1.63955e-09
1.33314e-09
4.31765e-10
1.4397e-10
7.30162e-11
5.67238e-11
3.56253e-11
2.8613e-11
2.78383e-11
2.97371e-11
3.75626e-11
6.79639e-11
1.31076e-10
6.36532e-10
1.11594e-09
3.65221e-10
3.90333e-11
3.90716e-11
1.03006e-08
6.95822e-08
2.86783e-08
8.65276e-10
8.11268e-09
3.415e-08
1.36656e-08
1.79192e-09
7.27463e-11
6.81103e-11
1.92727e-10
1.74057e-10
1.78678e-10
2.34534e-10
2.80448e-10
2.7727e-10
2.31833e-10
1.31791e-10
1.59965e-09
2.76699e-08
3.5891e-10
4.73713e-08
2.27308e-08
1.11985e-07
7.05773e-08
1.22373e-06
8.58158e-10
8.2474e-08
8.48995e-08
6.8158e-11
6.80824e-11
6.8158e-11
6.80824e-11
6.8158e-11
6.80824e-11
3.75334e-10
7.38895e-10
3.86193e-10
6.21282e-10
4.28167e-10
2.75474e-10
7.65076e-10
5.80099e-11
2.72174e-07
4.37655e-07
2.55558e-07
2.18675e-07
1.25034e-07
0.000340493
0.000218279
8.51424e-08
1.50685e-06
0.000115339
5.31003e-05
2.09315e-05
1.32794e-05
4.48382e-06
1.77238e-06
2.74823e-09
7.471e-10
1.19119e-07
8.60655e-09
6.04008e-11
5.7604e-11
5.76384e-11
5.76074e-11
1.49166e-07
3.01416e-07
2.98065e-07
3.46135e-07
0.000179573
0.000628842
0.000628915
0.000401938
0.00126555
0.00108889
0.000220699
5.40533e-05
4.17074e-05
8.72157e-05
0.000125595
8.6888e-05
2.85699e-05
9.0864e-06
3.344e-06
1.14701e-06
3.23208e-07
6.23992e-08
5.81394e-11
3.70315e-08
5.57601e-08
1.79783e-05
1.29931e-05
0.000191153
0.000538011
0.000555829
0.0020936
0.00237726
0.00108045
0.000152532
5.39383e-05
5.93757e-05
0.00012906
0.000188612
0.000194467
0.000105285
6.51299e-06
6.46738e-06
2.48453e-06
2.05348e-13
1.84316e-13
0.000295569
3.14655e-08
3.149e-08
3.16565e-08
3.16835e-08
9.14652e-06
0.000539355
0.00120603
0.0022397
0.00195182
0.000360823
0.000105953
0.000124811
0.000400995
0.000364017
0.000259
0.000337818
0.000689721
0.000656974
8.84848e-05
1.95145e-06
0.00221932
0.0035991
0.00471332
0.00433504
0.00223701
3.16834e-08
0.00290107
6.05095e-06
0.000230189
0.000238958
0.00025221
0.000484754
0.00535806
0.0127526
0.0127513
0.012754
0.0124014
0.00803011
0.00657234
0.00650315
0.0059321
0.00567053
0.00567025
0.00566823
0.0056698
0.00576679
0.00691572
0.000717822
0.0021215
0.00185612
0.000963973
0.00144362
0.00481732
0.0102023
0.00783689
0.00490272
0.00392587
0.00779277
0.00921662
0.00921668
0.00815074
0.00587425
0.0056625
0.00570993
0.00624618
0.00750817
0.00199085
0.00435776
0.00526411
0.00403615
0.00274568
0.00275059
0.00360522
0.00751647
0.00650713
0.00412136
0.00343305
0.0034249
0.0047552
0.00554569
0.00555974
0.00566256
0.00718403
0.0345628
0.0165853
0.0177937
0.00899134
0.00620228
0.00505938
0.00389639
0.0104264
0.0214543
0.0363064
0.0226425
0.00569728
0.00342502
0.0034252
0.0034251
0.00554729
0.00558328
0.00558993
0.0111303
0.0494275
0.00950863
0.0357473
0.0363221
0.0362955
0.0211764
0.00660142
0.0258264
0.0401089
0.0401243
0.020238
0.00389537
0.00352375
0.00663194
0.0151022
0.0230188
0.01525
0.00560236
0.0632813
0.0372777
0.010562
0.0405381
0.0239281
0.0229972
0.0197705
0.00904252
0.00980875
0.0398408
0.0399413
0.0113632
0.0215692
0.0325993
0.0457625
0.0892596
0.0891468
0.0892523
0.0767654
0.0992823
0.0746179
0.0318919
0.0379888
0.000215937
0.000215064
0.000196779
0.000209153
0.000203689
0.0240171
0.0135411
0.0102102
0.0326391
0.0484941
0.0764276
0.0764292
0.0564393
0.0625645
0.099769
0.0997701
0.099768
0.053081
0.0110554
0.00133446
0.000200488
0.000196835
0.000214721
0.000204149
0.00569804
0.00846065
0.00896879
0.0074913
0.00410662
0.0101789
0.0285491
0.0538677
0.0550614
0.0916695
0.0988569
0.0506584
0.026487
0.003573
0.00117286
0.00170106
0.000281692
0.000244107
0.000246169
0.000471779
0.000547215
0.000547229
0.000546575
0.00143972
0.0122167
0.0210714
0.018903
0.0109924
0.011141
0.00445041
0.00434663
0.00434766
0.0185349
0.0425718
0.0425999
0.0354678
0.0489848
0.0784373
0.000922621
0.000928683
0.0028226
0.00320806
0.000548044
0.000546306
0.000543417
0.000545474
0.0045826
0.0234666
0.0299114
0.029921
0.0143818
0.00515674
0.00458815
0.00435746
0.0051633
0.00787923
0.016869
0.0211075
0.0222944
0.148944
0.104809
0.021039
0.0015971
0.0102865
0.0219092
0.0220331
0.0104718
0.00451021
0.000546489
0.000644313
0.00214125
0.0126815
0.0586279
0.0648791
0.0564742
0.0448665
0.0217971
0.00404585
0.000554407
3.83449e-05
0.000116405
0.000423459
0.341254
0.129179
0.0290884
0.00158034
0.00210531
0.0152313
0.0717709
0.0870091
0.0887659
0.0488016
0.051648
0.0640049
0.059036
0.0568513
0.0648582
0.0615535
0.0668937
0.0668969
0.036414
0.000214067
2.32816e-05
2.33897e-05
5.70708e-05
0.340682
0.248259
0.0939189
0.0939541
0.0805542
0.0063235
0.00110952
0.0283748
0.10644
0.107107
0.104397
0.0946393
0.10144
0.101564
0.0415621
0.0213184
0.0277268
0.066893
0.0590068
0.00887329
0.000232661
0.000499163
0.000877971
0.277087
0.223168
0.222487
0.223168
0.152018
0.00550629
0.00113216
0.00102544
0.00316573
0.0122101
0.00721028
0.00480247
0.00959406
0.0774147
0.0846888
0.046548
0.00293635
0.00593509
0.0463885
0.0501577
0.034219
0.00233742
0.00179004
0.21401
0.223803
0.154389
0.143173
0.0256791
0.00126225
0.0010964
0.00118393
0.00185656
0.0020657
0.00437793
0.00482374
0.00317598
0.00385695
0.0146486
0.0129648
0.00307126
0.00231355
0.00233541
0.0440749
0.0424637
0.00468705
0.00177547
0.213858
0.666344
0.0934461
0.114624
0.111489
0.0216902
0.00109015
0.00112177
0.0120212
0.0285016
0.0283789
0.0256553
0.00396934
0.00211638
0.00207114
0.00200033
0.00194152
0.00194377
0.00199526
0.00319394
0.00925568
0.0231768
0.104519
0.228254
0.718036
0.58475
0.682027
0.419148
0.0137895
0.00109118
0.00188021
0.0104826
0.0318915
0.00915932
0.00823842
0.00773826
0.0314552
0.0827098
0.147292
0.206898
0.291693
0.415851
0.514054
0.616613
0.806731
0.986839
0.171921
0.611384
0.715817
0.716033
0.406724
0.0129139
0.00112478
0.00525024
0.0455533
0.0514441
0.0406379
0.0892017
0.357492
0.694833
0.868294
0.929205
0.958017
0.986385
0.997582
0.998323
0.999299
0.999698
0.999893
0.074495
0.0234357
0.346568
0.165462
0.00292164
0.00251998
0.00175602
0.00181746
0.0819541
0.510903
0.805935
0.937932
0.999084
0.999785
0.999966
0.999991
0.99999
0.99993
0.99994
0.999994
0.999997
0.999955
0.9999
0.020961
0.012065
0.00207904
0.00220819
0.00160077
0.00164613
0.0103688
0.025863
0.0501723
0.421695
0.971389
0.992737
0.999712
0.999953
0.999894
0.999983
0.999997
0.999998
0.999997
0.999907
0.999748
0.999748
0.999896
0.0861695
0.100616
0.103781
0.145446
0.242687
0.40274
0.55906
0.68195
0.832764
0.977749
0.997977
0.999892
0.999993
0.999952
0.999876
0.999883
0.999986
0.999993
0.99996
0.999844
0.999747
0.999753
0.999974
0.763521
0.785551
0.824698
0.880993
0.951273
0.979131
0.989767
0.996651
0.998527
0.99973
0.999977
0.999993
0.999994
0.999972
0.999899
0.999938
0.999987
0.999997
0.999992
0.999908
0.99976
0.999751
0.999793
0.998424
0.99865
0.999776
0.999838
0.999993
0.999986
0.999987
0.999985
0.999986
0.999992
0.999991
0.99999
0.999978
0.999968
0.999986
0.999993
0.999998
1
1
0.99999
0.999954
0.999941
0.999952
0.999996
0.999996
0.999996
0.999997
0.999992
0.99997
0.999958
0.999958
0.999965
0.999982
0.999959
0.999944
0.99994
0.999941
0.999987
0.999998
1
1
1
1
1
1
1
0.999995
0.99998
0.999993
0.999996
0.999974
0.999957
0.999961
0.999971
0.999991
0.999967
0.999939
0.999939
0.999942
0.999957
0.999982
0.999997
1
1
1
1
1
1
1
0.999986
0.999965
0.999979
0.999994
0.999973
0.99997
0.999994
1
1
0.999994
0.999984
0.999982
0.999994
0.999998
0.999995
0.999998
1
1
1
1
1
1
1
0.999985
0.999965
0.999983
0.999999
1
1
1
1
1
1
1
1
1
1
1
1
1
1
1
1
1
1
1
0.999997
0.999982
0.999999
1
1
1
1
1
1
1
1
1
1
1
1
1
1
1
1
1
1
1
1
0.999999
0.999998
0.999998
0.999999
1
1
1
1
1
1
1
1
1
1
1
1
1
1
1
1
1
1
1
0.999999
0.999999
0.999998
0.999998
1
1
1
1
1
1
1
1
1
1
1
1
1
1
1
1
1
1
1
0.999999
0.999999
0.999998
0.999999
1
1
1
1
1
1
1
1
1
1
1
1
1
1
1
1
1
1
1
0.999998
0.999999
0.999998
0.999999
1
1
1
1
1
1
1
1
1
1
1
1
1
1
1
1
1
1
1
0.999998
0.999999
1
1
1
1
1
1
1
1
1
1
1
1
1
1
1
1
1
1
1
1
1
0.999998
1
1
1
1
1
1
1
1
1
1
1
1
1
1
1
1
1
1
1
1
1
1
0.999997
0.999909
0.99864
0.999634
0.999993
1
1
1
1
1
1
1
1
1
1
1
1
1
1
1
1
1
1
0.999997
0.99604
0.981446
0.985039
0.998602
1
1
1
1
1
1
1
1
1
1
1
1
1
1
1
1
1
1
0.998835
0.981779
0.978818
0.979048
0.992604
0.999998
1
1
1
1
1
1
1
1
1
1
1
1
1
1
1
1
1
0.989149
0.978818
0.978917
0.980969
0.991801
0.999999
1
1
1
1
1
1
1
1
1
1
1
1
1
1
1
1
1
0.987742
0.994992
0.998074
0.999234
0.997662
1
1
1
1
1
1
1
1
1
1
1
1
1
1
1
1
1
1
0.996121
0.999999
0.999999
0.999998
1
1
1
1
1
1
1
1
1
1
1
1
1
1
1
1
1
1
1
1
0.999999
0.999996
0.999979
0.999955
1
0.999999
0.999999
1
1
1
1
1
1
1
1
1
1
1
1
1
1
1
1
0.999997
0.999991
0.999996
0.999999
0.999999
0.999999
1
1
1
1
1
1
1
1
1
1
1
1
1
1
1
1
1
0.999997
0.999992
0.999997
1
0.999999
0.999999
1
1
1
0.999999
1
1
1
1
1
1
1
1
1
1
1
1
1
1
1
1
1
1
1
1
1
0.999999
0.999999
0.999999
1
1
1
1
1
1
1
1
1
1
1
1
1
1
1
1
1
1
1
1
0.999999
0.999999
1
1
1
1
1
1
1
1
1
1
1
1
1
1
1
1
1
1
1
1
0.999999
0.999999
0.999999
1
1
1
1
1
1
1
1
1
1
1
1
1
1
1
1
1
1
1
0.999999
0.999999
0.999999
1
1
1
1
1
1
1
1
1
1
1
1
1
1
1
1
1
1
1
0.999999
0.999999
0.999999
1
1
1
1
1
1
1
1
1
1
1
1
1
1
0.999999
1
1
1
1
0.999999
0.999998
0.999998
1
1
1
1
1
1
1
1
1
1
1
1
1
1
1
0.999999
0.999999
1
1
1
0.999998
0.999998
1
1
1
1
1
1
1
1
1
1
1
1
1
1
1
1
0.00496284
0.00114309
0.0020374
0.00543077
0.00395391
0.000938419
0.0348616
0.0821036
0.000107443
0.000663311
0.0225617
0.0435063
6.1168e-05
0.000370112
0.000413988
5.09144e-05
0.00111426
0.000692982
0.000193976
3.40356e-05
0.00137105
0.00144633
0.00119267
0.000350229
0.00164189
0.0132927
0.0183822
0.0129432
0.20813
0.435935
0.893439
0.981741
0.992036
0.988442
0.982646
0.986897
0.999993
0.999995
0.999995
0.999995
0.999994
0.999993
0.999993
0.999991
0.999993
0.999987
0.999986
0.99999
0.999993
0.999994
0.999973
0.999951
0.99998
0.999994
0.99999
0.999976
0.99998
0.999996
0.999998
0.999998
0.999999
0.999999
1
1
1
1
1
1
1
1
1
1
1
1
1
1
1
1
1
1
1
1
1
1
1
1
1
1
1
1
1
1
1
1
1
1
1
1
1
1
1
1
1
1
1
1
1
1
1
1
1
1
1
1
1
1
1
1
1
1
1
1
1
1
1
1
1
1
1
1
1
1
1
1
1
1
1
1
1
1
1
1
1
1
1
1
1
1
1
1
1
1
1
1
1
1
1
1
1
1
1
1
1
1
1
1
1
1
0.0164841
0.0458037
0.0169171
0.000860352
0.00630794
0.0149692
0.00645603
0.00420536
0.0041979
0.00528332
0.00410658
0.00410658
0.0131684
0.0932081
0.086378
0.0405156
0.0271731
0.00686069
0.00718524
0.0854004
0.085379
0.0821408
0.0585538
0.0795496
0.123821
0.0114909
0.00419745
0.0173228
0.0154763
0.00410658
0.0158283
0.0814622
0.137663
0.0848827
0.00245558
0.00244905
0.00774562
0.0165897
0.0443308
0.0529101
0.080217
0.102551
0.126338
0.12855
0.0505634
0.0133468
0.0358968
0.102083
0.118744
0.117672
0.137698
0.137698
0.0949709
0.00234029
0.0131736
0.119036
0.172996
3.39086e-19
4.06315e-20
0.00418076
0.0611521
0.0902677
0.118569
0.131753
0.0553398
0.0551896
0.154289
0.252468
0.168552
0.0737552
0.052236
0.0461739
0.00234081
0.0025319
0.178261
0.22114
0.0539772
0.0722934
0.0316268
0.0171223
0.0115606
0.00807135
0.0926456
0.228285
0.333962
0.386857
0.357769
0.178449
0.0351003
0.0134022
0.0134558
0.0274844
0.123333
0.187502
0.647364
0.275454
0.648506
0.241689
0.00807289
0.00807103
0.00807294
0.0129841
0.148744
0.677636
0.839833
0.479339
0.302507
0.377064
0.469029
0.542927
0.716893
0.789648
0.798915
0.894304
0.661659
0.972216
0.82584
0.348657
0.338434
0.512382
0.745605
0.945199
0.97686
0.990283
0.840353
0.70312
0.891227
0.983299
0.999906
0.999854
0.999669
0.999741
0.999807
0.977494
0.97779
0.984048
0.974062
0.98219
0.998839
0.99979
0.999853
0.999919
0.999319
0.999312
0.999731
0.99992
0.999976
0.999976
0.999976
0.999975
0.999973
0.999993
0.998722
0.999913
0.999914
0.999568
0.999694
0.999901
0.999901
0.999793
0.99992
0.99992
0.999921
0.999892
0.999901
0.999955
0.999976
0.999932
0.999878
0.99991
0.999988
0.999978
0.999904
0.999887
0.999888
0.999888
0.999779
0.999598
0.999566
0.999641
0.999829
0.999921
0.99992
0.999953
0.999971
0.999849
0.999663
0.999666
0.999896
0.999996
0.999981
0.999975
0.999873
0.999562
0.999555
0.999555
0.999553
0.999552
0.999605
0.999774
0.999889
0.999979
0.999979
0.999858
0.999665
0.999663
0.999663
0.999926
0.999999
0.999989
0.999989
0.999935
0.999783
0.999751
0.999773
0.999773
0.999848
0.99994
0.999964
0.999956
0.999886
0.999883
0.999921
0.99993
0.9997
0.999782
0.999986
0.999999
0.999946
0.999944
0.999944
0.999963
0.99999
0.999999
0.999999
0.999999
0.999999
1
1
0.99999
0.999995
0.999999
0.99999
0.999923
0.99995
0.999999
0.999999
0.999969
0.999968
0.99997
0.999989
1
1
1
1
1
1
1
1
1
0.999999
0.999988
0.999964
1
1
0.999999
0.999999
1
1
1
1
1
1
1
1
1
1
1
1
0.999997
0.999988
1
1
1
1
1
1
1
1
1
1
1
1
1
0.999999
0.999999
1
1
0.999999
0.999998
1
1
1
0.999999
1
1
1
1
1
1
1
1
1
0.999999
1
1
1
1
1
0.999999
0.999999
0.999996
0.999994
1
1
1
1
1
1
1
1
1
1
1
1
1
1
1
1
0.999999
0.999994
0.999994
1
1
1
1
1
1
1
1
1
1
1
1
1
1
1
1
1
0.999997
0.999994
1
1
1
1
1
1
1
1
1
1
1
1
1
1
1
1
1
1
0.999997
1
1
1
1
1
1
1
1
1
1
1
1
1
1
1
1
1
1
1
1
1
1
1
1
1
1
1
1
1
1
1
1
1
1
1
0.999997
0.999993
0.999999
1
1
1
1
1
1
1
1
1
1
1
1
1
1
1
1
0.999997
0.999992
0.999992
1
1
1
1
1
1
1
1
1
1
1
1
1
1
1
1
0.999998
0.999992
0.999993
1
1
1
1
1
1
1
1
1
1
1
1
1
1
1
1
1
0.999994
0.999999
1
1
1
1
1
1
1
1
1
1
1
1
1
1
1
1
1
1
1
1
1
1
1
1
1
1
1
1
1
1
1
1
1
1
1
1
1
1
1
1
1
1
1
1
1
1
1
1
1
1
1
1
1
1
1
1
1
1
1
1
1
1
1
1
1
1
1
1
1
1
1
1
1
1
1
1
1
1
1
1
1
1
1
1
1
1
1
1
1
1
1
1
1
1
1
1
1
1
1
1
1
1
1
1
1
1
1
1
1
1
1
1
1
1
1
1
1
1
1
1
1
1
1
1
1
1
1
1
1
1
1
1
1
1
1
1
1
1
1
1
1
1
1
1
1
1
1
1
1
1
1
1
1
1
1
1
1
1
1
1
1
1
1
1
1
1
1
1
1
1
1
1
1
1
1
1
1
1
1
1
1
1
1
1
1
1
1
1
1
1
1
1
1
1
1
1
1
1
1
1
1
1
1
1
1
1
1
1
1
1
1
1
1
1
1
1
1
1
1
1
1
1
1
1
1
1
1
1
1
1
1
1
1
1
1
1
1
1
1
1
1
1
1
1
1
1
1
1
1
1
1
1
1
1
1
1
1
1
1
1
1
1
1
1
1
1
1
1
1
1
1
1
1
1
1
1
1
1
1
1
1
1
1
1
1
1
1
1
1
1
1
1
1
1
1
1
1
1
1
1
1
1
1
1
1
1
1
1
1
1
1
1
1
1
1
1
1
1
1
1
1
1
1
)
;

boundaryField
{
    leftWall
    {
        type            alphaContactAngle;
        thetaProperties 
6
(
(galistan air) 90 0 0 0
(oil galistan) 90 0 0 0
(water oil) 90 0 0 0
(water air) 90 0 0 0
(oil air) 90 0 0 0
(water galistan) 90 0 0 0
);
        value           nonuniform List<scalar> 
50
(
7.05301e-10
7.06169e-10
2.86783e-08
1.22373e-06
0.000340493
0.000628842
0.000538011
0.000539355
0.003573
0.0489848
0.148944
0.341254
0.340682
0.277087
0.21401
0.213858
0.228254
0.171921
0.074495
0.020961
0.0861695
0.763521
0.998424
0.999996
0.999995
0.999986
0.999985
0.999997
0.999999
0.999999
0.999999
0.999998
0.999998
0.999998
0.999997
0.999997
0.998835
0.989149
0.987742
0.996121
1
1
1
1
1
1
1
1
0.999999
0.999999
)
;
    }
    rightWall
    {
        type            alphaContactAngle;
        thetaProperties 
6
(
(galistan air) 90 0 0 0
(oil galistan) 90 0 0 0
(water oil) 90 0 0 0
(water air) 90 0 0 0
(oil air) 90 0 0 0
(water galistan) 90 0 0 0
);
        value           nonuniform List<scalar> 
50
(
0.00691572
0.00750817
0.0165853
0.00950863
0.010562
0.0318919
0.053081
0.026487
0.00718524
0.0165897
0.172996
0.22114
0.647364
0.894304
0.999807
0.999993
0.999988
0.999996
0.999999
0.999999
0.999999
0.999999
1
0.999999
0.999994
0.999994
0.999994
0.999997
1
0.999999
0.999992
0.999993
0.999999
1
1
1
1
1
1
1
1
1
1
1
1
1
1
1
1
1
)
;
    }
    lowerWall
    {
        type            alphaContactAngle;
        thetaProperties 
6
(
(galistan air) 90 0 0 0
(oil galistan) 90 0 0 0
(water oil) 90 0 0 0
(water air) 90 0 0 0
(oil air) 90 0 0 0
(water galistan) 90 0 0 0
);
        value           nonuniform List<scalar> 
62
(
7.05301e-10
6.04817e-10
4.2215e-10
2.25001e-10
1.24999e-10
6.84855e-11
3.42639e-11
1.99321e-11
1.01299e-11
5.17872e-12
3.23368e-12
2.76658e-12
3.47974e-12
6.04197e-12
1.16071e-11
2.47795e-11
6.85235e-11
4.85279e-11
3.61703e-11
3.89532e-11
4.05975e-11
4.0665e-11
1.45312e-08
1.45312e-08
6.95822e-08
7.05773e-08
1.25034e-07
0.000179573
0.000191153
9.14652e-06
6.05095e-06
0.00496284
0.00114309
0.0020374
0.00543077
0.000230189
0.000717822
0.00199085
0.0177937
0.0357473
0.0405381
0.0379888
0.0110554
0.000230189
0.000238958
0.00025221
0.000484754
0.00535806
0.0127526
0.0127513
0.012754
0.0124014
0.00803011
0.00657234
0.00650315
0.0059321
0.00567053
0.00567025
0.00566823
0.0056698
0.00576679
0.00691572
)
;
    }
    atmosphere
    {
        type            inletOutlet;
        inletValue      uniform 1;
        value           nonuniform List<scalar> 
46
(
1
1
1
1
1
1
1
1
1
1
1
1
1
1
1
1
1
1
1
1
1
1
1
1
1
1
1
1
1
1
1
1
1
1
1
1
1
1
1
1
1
1
1
1
1
1
)
;
    }
    defaultFaces
    {
        type            empty;
    }
}


// ************************************************************************* //
