/*--------------------------------*- C++ -*----------------------------------*\
| =========                 |                                                 |
| \\      /  F ield         | OpenFOAM: The Open Source CFD Toolbox           |
|  \\    /   O peration     | Version:  2312                                  |
|   \\  /    A nd           | Website:  www.openfoam.com                      |
|    \\/     M anipulation  |                                                 |
\*---------------------------------------------------------------------------*/
FoamFile
{
    version     2.0;
    format      ascii;
    arch        "LSB;label=32;scalar=64";
    class       volScalarField;
    location    "2.8";
    object      alpha.galistan;
}
// * * * * * * * * * * * * * * * * * * * * * * * * * * * * * * * * * * * * * //

dimensions      [0 0 0 0 0 0 0];

internalField   nonuniform List<scalar> 
2268
(
1
1
1
1
1
1
1
1
1
1
1
1
1
1
1
1
1
1
1
1
0.999993
0.999947
0.999945
0.999999
1
1
1
1
1
1
1
1
1
1
1
1
1
1
1
1
1
1
1
0.999999
0.999979
0.999952
1
1
1
1
1
0.999998
0.999999
1
1
1
1
1
1
1
1
1
1
1
1
1
1
0.999999
0.999994
0.999981
0.999755
1
0.999838
0.999877
0.999994
1
1
1
1
1
1
1
1
1
1
1
1
1
1
1
0.999995
0.999988
0.948147
0.959604
0.968763
0.976617
0.987557
0.99989
0.999829
0.999822
0.999906
0.999993
1
1
1
0.999999
0.999999
0.999999
1
1
1
1
1
1
1
0.305467
0.310572
0.320886
0.33739
0.372013
0.436867
0.539162
0.652729
0.763002
0.854987
0.924988
0.972494
0.998648
1
1
1
1
0.999908
0.997575
0.995102
0.991987
0.987882
0.977949
1.92111e-19
-1.00101e-19
1.3129e-19
4.3454e-12
2.37212e-05
0.000528866
0.00486966
0.024784
0.0710959
0.141923
0.236338
0.357921
0.48398
0.569598
0.617698
0.64513
0.671491
0.667649
0.632597
0.592093
0.517568
0.419567
0.384487
8.59704e-06
7.26549e-05
9.11014e-05
0.000192778
0.000212391
4.22636e-05
7.07015e-05
6.02556e-05
8.40678e-05
0.000145609
8.47625e-05
8.49262e-05
0.00265412
0.0123616
0.0368172
0.0514355
0.0469949
0.017544
0.0103535
0.00231653
1.62721e-05
1.57834e-05
1.50593e-05
0.933293
0.933292
0.933308
0.932401
0.939801
0.944431
0.944431
0.944431
0.944402
0.945449
0.949121
0.949803
0.949457
0.950066
0.950804
0.950791
0.950794
0.950205
0.950168
0.904148
0.92738
0.923313
0.916566
0.913334
0.910966
0.889521
0.921226
0.949646
0.94959
0.948923
0.948381
0.945035
0.93757
0.935598
0.92926
0.882653
0.89453
0.841642
0.382788
0.406443
0.426973
0.445489
0.457112
0.452458
0.469134
0.469215
0.553854
0.632806
0.645871
0.631742
0.601529
0.541328
0.555524
0.615848
0.626327
0.536422
0.462647
0.016483
6.65743e-10
6.64757e-10
0.00491358
0.01469
0.0424671
0.102668
0.0702569
0.100361
0.244583
0.305173
0.228108
0.166667
0.119578
0.0947585
0.189394
0.389313
0.43026
0.443258
0.00184966
6.68302e-10
6.65743e-10
6.64757e-10
6.65743e-10
6.64757e-10
1.39813e-06
0.0177627
0.0157098
0.0105621
0.00664586
0.00717177
0.00664588
0.00664597
0.00704083
0.00677372
0.0516585
0.154435
0.14932
2.1619e-06
5.96688e-08
1.21719e-05
8.15635e-10
6.64757e-10
1.85523e-07
0.00312709
0.0241978
0.017273
0.0132147
0.00664588
0.00664583
0.00664593
0.00665938
0.00751065
0.00678391
0.01339
0.0227013
0.0125597
0.0120944
0.00686361
0.000868954
2.16563e-05
1.78932e-05
0.000160522
0.00712901
0.0241645
0.00545644
0.01493
0.00864113
0.00664575
0.00664565
0.0192937
0.0309256
0.0299072
0.00659414
0.00606376
0.0125332
0.0683378
0.0345962
0.002361
1.8835e-05
1.87131e-05
2.0245e-05
0.00695607
0.0195356
0.00545696
0.00556778
0.0145791
0.0180107
0.0117995
0.0319325
0.0317004
0.0183037
0.00613545
0.00486895
0.00420204
7.40229e-05
0.000207355
8.29935e-05
7.86086e-05
1.05242e-05
7.79705e-07
7.80114e-07
7.84902e-07
8.12795e-07
5.09695e-06
0.000111432
9.82624e-05
6.33804e-05
0.00297864
0.00725272
0.0127799
1.86028e-05
1.84742e-05
1.8143e-05
2.42999e-05
3.71767e-05
1.7998e-05
0.000457231
0.000102876
0.000206958
1.39538e-06
1.39801e-06
1.39741e-06
5.14963e-06
6.90355e-06
1.71148e-05
4.73789e-05
8.91472e-05
0.000250478
0.000450936
0.000361128
0.00382513
0.00529847
0.00178563
6.10363e-05
6.99464e-05
0.000705421
0.00166651
0.00177828
0.00129058
0.000387374
0.000336269
0.000263733
0.000239167
0.000132289
6.79113e-05
0.000229308
0.000334524
0.000292184
0.000294225
0.000296489
0.000302373
0.000312218
0.000219826
0.000651214
0.000355238
4.54735e-05
5.33182e-06
5.17858e-06
5.15056e-06
0.000973719
0.00258474
0.00259432
0.00144633
0.000552095
0.000542127
0.00032233
0.000574291
0.00123619
0.00142995
0.000861286
0.000415047
0.000248076
0.000170824
0.000146125
8.08859e-05
7.87069e-05
7.58951e-05
9.26276e-05
6.31242e-05
1.84904e-05
3.25311e-05
3.32826e-05
-2.57711e-07
-3.71043e-08
1.85089e-06
9.05504e-07
0.000330373
0.00033243
0.00106732
0.00335587
0.00404996
0.00409363
0.00236144
6.68522e-05
2.52514e-05
1.53882e-05
3.47218e-06
2.69133e-06
4.23638e-06
4.57698e-06
4.96854e-06
5.06478e-06
1.38424e-05
5.65684e-05
0.000113002
0.000191893
0.000257459
0.000181065
7.70809e-05
0.000114937
0.000603391
0.00126874
0.00284302
0.00409334
0.00409346
0.00229538
0.000448072
8.63641e-07
8.62681e-07
1.00492e-06
9.2164e-07
5.10875e-07
2.68225e-07
6.10461e-05
0.000149092
0.000125934
2.79005e-05
2.4416e-07
2.40341e-07
0.000442724
0.00176283
0.00186285
0.000115024
9.06574e-05
6.63665e-06
3.60295e-06
0.000664068
0.000877886
0.000450609
0.000132958
4.9418e-05
7.88101e-05
0.000106586
8.54736e-05
1.70614e-05
2.81286e-07
2.68164e-07
0.000530065
0.000730062
0.000498382
3.94066e-05
2.51121e-07
2.45937e-07
0.00293669
0.00624701
0.000167612
9.19076e-05
4.19355e-06
3.55541e-06
7.25336e-07
7.15269e-07
7.05364e-07
4.25933e-05
0.000164729
0.000185705
0.000185304
0.000166695
3.77065e-05
5.69037e-07
5.09206e-07
2.97624e-05
0.000670914
0.000784956
0.000638026
0.000156659
1.58396e-05
0.000596436
0.00505262
0.000209148
0.000209148
0.00010989
3.90713e-06
4.05489e-06
4.85396e-06
7.02442e-07
4.88805e-13
2.45998e-13
2.25422e-05
3.1872e-05
2.3271e-05
1.39707e-05
2.2946e-06
1.38226e-07
8.1044e-05
0.000113737
0.000614718
0.000795454
0.000823965
0.000694811
6.71823e-05
0.00014648
0.000209148
2.48495e-05
3.08932e-06
1.08675e-07
9.40301e-09
6.0872e-08
3.43878e-09
3.39472e-09
1.76587e-10
-4.58559e-10
1.78879e-10
5.04651e-07
4.52142e-07
2.07973e-07
1.4218e-07
4.52456e-08
1.81808e-08
3.33071e-05
0.00019838
0.000766366
0.000500367
1.01136e-05
2.87238e-10
0.000131895
1.08194e-07
5.65344e-08
8.36688e-08
3.43661e-08
7.67318e-08
7.62822e-08
3.10984e-08
1.89498e-10
1.49495e-06
4.79424e-06
4.83116e-06
1.59862e-06
1.16913e-08
1.16691e-08
1.79437e-08
1.8139e-08
1.81524e-08
1.25751e-05
7.36603e-05
0.000161192
8.03053e-05
1.63593e-19
9.31734e-05
2.01772e-05
5.05836e-08
3.67559e-08
3.66446e-08
1.44403e-07
6.27015e-07
4.91038e-07
6.86261e-08
4.85207e-08
3.67776e-07
1.14863e-07
7.54689e-08
1.36549e-08
5.28952e-08
1.18389e-07
1.19485e-07
6.51595e-08
5.75612e-08
9.59329e-08
2.705e-06
6.05137e-06
2.24846e-06
4.25111e-05
1.86531e-05
4.03365e-08
3.7831e-08
1.69681e-07
8.67834e-07
1.45719e-06
1.4612e-06
1.91852e-07
1.09713e-08
9.71542e-09
9.89687e-09
5.62403e-08
1.88499e-07
1.93016e-07
1.11658e-07
6.96795e-08
4.59792e-08
5.73058e-08
5.86062e-08
1.51073e-06
3.62308e-06
1.89233e-06
2.02242e-07
2.16911e-07
1.87641e-07
3.96711e-07
9.84885e-07
1.46014e-06
1.45809e-06
8.34638e-07
5.24101e-08
1.08798e-08
9.71913e-09
3.15194e-07
1.06507e-06
7.59855e-07
1.64362e-07
6.8153e-07
6.83007e-07
6.19866e-07
4.0426e-07
2.71194e-07
4.03902e-07
5.76319e-07
1.03835e-06
2.73237e-07
2.73678e-07
3.94616e-07
1.10789e-06
1.12201e-06
7.13788e-07
1.6694e-07
1.99585e-08
1.94598e-08
1.25641e-08
3.34486e-07
1.56457e-06
2.20532e-06
1.87495e-06
1.62877e-07
2.00601e-07
4.31992e-07
2.67629e-07
2.42098e-07
3.64387e-07
3.4398e-06
4.68299e-06
4.67232e-06
2.54328e-07
2.21762e-07
2.72544e-07
4.12733e-08
7.38644e-08
1.43212e-08
1.47345e-08
3.70462e-08
8.22516e-08
1.36161e-07
1.38228e-06
2.11491e-06
1.67247e-06
1.80936e-09
1.7848e-09
1.79255e-09
4.08097e-09
4.14306e-07
3.37195e-06
4.78263e-06
4.77503e-06
3.55918e-06
3.48563e-07
1.98827e-09
1.55965e-09
3.3225e-09
6.22104e-09
7.79769e-09
1.9096e-08
6.35534e-08
9.8596e-08
9.65996e-08
3.20773e-07
6.03897e-07
4.35671e-07
1.51346e-07
1.78214e-09
1.7864e-09
1.25942e-08
5.47836e-08
2.82356e-07
3.3367e-06
4.77503e-06
1.29641e-06
1.19885e-08
5.4075e-08
2.56718e-09
1.70154e-09
3.65203e-09
8.83056e-09
1.07165e-08
6.10956e-08
1.03168e-07
9.46037e-08
5.30391e-08
4.1146e-08
4.14669e-08
2.19508e-08
8.94165e-09
8.19963e-09
2.71112e-09
2.14855e-09
5.13462e-08
2.03223e-07
2.61805e-07
2.0846e-07
3.28644e-08
1.19997e-08
8.72295e-09
2.91759e-09
1.89057e-09
7.98107e-09
1.23932e-08
1.22677e-08
4.83982e-08
7.58788e-08
1.7264e-08
4.08255e-09
6.14789e-09
1.26118e-08
1.48921e-08
1.52738e-08
1.38425e-08
8.4834e-09
2.01609e-09
1.99848e-09
1.67716e-09
1.34203e-09
1.89564e-09
4.47227e-09
4.76694e-09
2.39728e-09
2.86242e-09
1.76047e-09
4.09443e-09
4.59103e-09
2.35932e-09
1.79533e-09
1.82526e-09
5.07191e-09
4.0858e-09
4.08269e-09
4.7405e-09
1.22054e-08
1.5245e-08
1.2973e-08
8.26782e-09
3.04158e-09
1.83026e-09
1.32786e-09
1.34481e-09
1.99043e-09
2.36253e-09
1.709e-09
1.09957e-09
2.72117e-09
1.2894e-09
1.83692e-09
2.09158e-09
2.14585e-09
3.12923e-09
4.83848e-09
6.13899e-09
6.07289e-09
5.11192e-09
5.29247e-09
6.75108e-09
8.10847e-09
7.43852e-09
5.53327e-09
3.37299e-09
1.77483e-09
1.0239e-09
7.21008e-10
7.38234e-10
8.3174e-10
7.75376e-10
4.9801e-10
2.69489e-09
8.87259e-10
7.47877e-10
9.32175e-10
1.17691e-09
1.54781e-09
2.15182e-09
2.8932e-09
3.03647e-09
2.48849e-09
2.31177e-09
2.76603e-09
3.34713e-09
3.27933e-09
2.68839e-09
1.84175e-09
1.06641e-09
5.58653e-10
3.1346e-10
2.63674e-10
2.79981e-10
2.65833e-10
2.20348e-10
2.77923e-09
7.41761e-10
3.02924e-10
3.94562e-10
6.90449e-10
9.50578e-10
1.07155e-09
1.15391e-09
1.1174e-09
1.04912e-09
1.06667e-09
1.17988e-09
1.23592e-09
1.19954e-09
1.02994e-09
7.48042e-10
4.59663e-10
2.45503e-10
1.31969e-10
9.71098e-11
9.65785e-11
1.00098e-10
7.69908e-11
3.17329e-09
7.89338e-10
2.12909e-10
2.13228e-10
2.75248e-10
3.54526e-10
3.85595e-10
3.92995e-10
3.76478e-10
3.69195e-10
3.79286e-10
3.91117e-10
3.93659e-10
3.75695e-10
3.22854e-10
2.39739e-10
1.54132e-10
8.7579e-11
4.97846e-11
3.46893e-11
3.25199e-11
3.10146e-11
2.85641e-11
3.38715e-09
9.04455e-10
1.87186e-10
1.50277e-10
1.24999e-10
1.11398e-10
1.16525e-10
1.16788e-10
1.12839e-10
1.08755e-10
1.06437e-10
1.04773e-10
1.00919e-10
9.36482e-11
8.08353e-11
6.26561e-11
4.29188e-11
2.69645e-11
1.5278e-11
1.07681e-11
1.01654e-11
1.04809e-11
9.69185e-12
3.57441e-09
1.04862e-09
1.71666e-10
1.05144e-10
7.24452e-11
4.65673e-11
3.4872e-11
3.03525e-11
2.73442e-11
2.5029e-11
2.33245e-11
2.16352e-11
2.06836e-11
1.93659e-11
1.68937e-11
1.34936e-11
1.02776e-11
6.23917e-12
3.85067e-12
3.15441e-12
3.01702e-12
2.94616e-12
3.16167e-12
3.71314e-09
1.20885e-09
1.77558e-10
6.9214e-11
3.26022e-11
1.73036e-11
1.01498e-11
7.02644e-12
5.34622e-12
4.26152e-12
3.85954e-12
3.96424e-12
3.63587e-12
3.30997e-12
2.92905e-12
2.47846e-12
2.03671e-12
1.28709e-12
8.97141e-13
7.92059e-13
7.79053e-13
8.95497e-13
9.65041e-13
3.71867e-09
1.67557e-09
2.29721e-10
6.9516e-11
2.72819e-11
1.5295e-11
9.91884e-12
7.15394e-12
4.9647e-12
2.82095e-12
1.70415e-12
1.10319e-12
7.24761e-13
5.24199e-13
4.66751e-13
3.92745e-13
3.23318e-13
2.5439e-13
1.82255e-13
1.74542e-13
1.86842e-13
2.00896e-13
2.7993e-13
3.57023e-09
2.20967e-09
3.43543e-10
9.16935e-11
3.10905e-11
1.98452e-11
1.63598e-11
1.49336e-11
1.12734e-11
5.41036e-12
3.23545e-12
1.88121e-12
9.2697e-13
4.24292e-13
1.72962e-13
8.00012e-14
5.22588e-14
3.96453e-14
3.31848e-14
3.1242e-14
3.35319e-14
5.20418e-14
6.83902e-14
3.01994e-09
2.75117e-09
4.76808e-10
1.35549e-10
4.48923e-11
3.37894e-11
3.07268e-11
3.48603e-11
2.76258e-11
1.01487e-11
7.18055e-12
4.20651e-12
2.08157e-12
9.9397e-13
3.58839e-13
1.03437e-13
2.86221e-14
9.63564e-15
5.41782e-15
4.85926e-15
6.36287e-15
8.31443e-15
1.73525e-14
2.68727e-09
2.96842e-09
9.13027e-10
2.13206e-10
7.38639e-11
6.81821e-11
7.7996e-11
7.78829e-11
6.58397e-11
3.66077e-11
1.43573e-11
8.35699e-12
4.20007e-12
2.21365e-12
8.60909e-13
2.50997e-13
6.27259e-14
1.3495e-14
2.8539e-15
9.51465e-16
8.41016e-16
1.86265e-15
3.30682e-15
2.33689e-09
2.97277e-09
1.23414e-09
3.19007e-10
1.70002e-10
2.61019e-10
3.31203e-10
3.03069e-10
1.44992e-10
1.07559e-10
4.15059e-11
1.55462e-11
7.74112e-12
4.21301e-12
1.71459e-12
5.40657e-13
1.44329e-13
3.13227e-14
5.87392e-15
8.90436e-16
2.4213e-16
2.25437e-16
7.30291e-16
1.70182e-09
1.79147e-09
1.607e-09
4.85066e-10
3.57694e-10
6.23163e-10
8.11945e-10
7.47904e-10
3.72251e-10
1.68183e-10
7.57234e-11
3.57432e-11
1.70445e-11
6.9013e-12
2.94096e-12
9.78362e-13
2.81127e-13
6.55651e-14
1.23183e-14
1.95169e-15
2.72098e-16
7.22908e-17
1.28442e-16
1.53129e-09
1.10458e-09
1.19556e-09
5.4404e-10
5.16486e-10
9.5756e-10
1.27038e-09
1.14675e-09
6.78887e-10
2.90616e-10
1.06305e-10
5.05056e-11
2.45669e-11
1.10799e-11
4.17074e-12
1.49153e-12
4.52588e-13
1.15283e-13
2.29556e-14
3.6921e-15
5.74326e-16
6.23948e-17
3.37191e-17
1.4436e-09
3.72889e-10
4.62595e-10
5.22956e-10
5.95524e-10
1.09853e-09
1.48997e-09
1.40869e-09
8.67225e-10
3.76112e-10
1.46268e-10
6.03734e-11
2.89278e-11
1.24175e-11
5.01753e-12
1.85211e-12
6.00177e-13
1.63504e-13
3.49332e-14
5.87593e-15
9.5545e-16
8.2079e-17
1.3242e-17
2.15307e-09
2.81951e-10
3.18544e-10
4.02366e-10
6.79126e-10
1.46662e-09
1.88532e-09
1.74396e-09
9.38926e-10
4.10654e-10
1.67102e-10
6.84138e-11
2.99987e-11
1.2597e-11
4.93788e-12
1.81307e-12
6.12473e-13
1.7948e-13
4.26582e-14
7.61659e-15
1.22548e-15
1.23379e-16
9.48286e-18
3.64589e-09
2.82606e-10
3.27945e-10
4.94268e-10
8.67627e-10
1.79525e-09
2.21802e-09
1.83324e-09
8.9788e-10
3.81922e-10
1.61585e-10
6.56359e-11
2.86758e-11
1.15794e-11
4.2525e-12
1.47436e-12
4.89949e-13
1.47113e-13
3.7523e-14
7.40395e-15
1.24248e-15
9.86391e-17
9.55542e-18
5.8899e-09
8.34629e-10
5.25557e-10
8.40606e-10
1.24261e-09
1.94732e-09
2.16794e-09
1.31148e-09
5.04933e-10
2.84229e-10
1.2377e-10
5.27235e-11
2.37508e-11
9.2352e-12
3.08738e-12
9.54812e-13
2.90228e-13
8.42802e-14
2.23494e-14
4.72049e-15
7.85473e-16
9.01664e-17
8.44377e-18
6.57109e-09
2.37111e-09
9.90962e-10
1.1323e-09
1.34094e-09
1.79321e-09
1.87669e-09
5.55539e-10
2.57496e-10
1.54973e-10
7.61657e-11
3.43028e-11
1.61022e-11
6.15592e-12
1.84206e-12
4.78178e-13
1.20585e-13
3.04384e-14
7.60382e-15
1.89298e-15
3.84004e-16
3.67451e-17
4.45662e-18
6.1968e-09
3.11557e-09
1.21985e-09
1.07889e-09
8.76206e-10
9.28845e-10
7.30182e-10
1.6534e-10
7.84277e-11
5.95787e-11
3.45618e-11
1.69252e-11
8.42828e-12
3.20888e-12
8.69881e-13
1.83687e-13
3.41578e-14
6.26129e-15
1.46704e-15
4.51444e-16
9.12686e-17
1.42455e-17
2.01996e-18
4.42769e-09
1.89738e-09
6.43678e-10
3.76179e-10
2.09014e-10
2.07668e-10
1.30642e-10
2.95597e-11
1.1373e-11
1.4017e-11
1.06941e-11
5.59611e-12
3.01492e-12
1.13192e-12
2.8327e-13
4.79988e-14
5.9761e-15
6.56796e-16
1.32821e-16
6.6942e-17
1.70438e-17
3.59201e-18
7.25955e-19
2.23148e-10
7.67205e-11
3.44196e-11
3.75773e-11
2.07569e-11
1.38723e-11
6.24475e-12
2.00923e-12
9.50233e-13
1.23746e-12
1.69441e-12
8.8691e-13
5.31269e-13
1.95066e-13
4.36251e-14
5.57497e-15
4.31224e-16
2.47474e-17
5.87322e-18
6.08471e-18
2.90831e-18
7.91239e-19
2.20889e-19
0.0356276
0.0493285
0.0597333
0.0791959
-5.40568e-09
-1.08701e-11
-4.34856e-22
4.1971e-22
5.41948e-05
3.08915e-07
0.00169881
0.00264053
1.03054e-06
2.3586e-07
2.42465e-07
0.000108668
6.12729e-05
6.66221e-05
8.75115e-05
4.15629e-05
0.00155758
0.000994397
0.000725169
0.000523312
0.00624968
0.00608909
0.00220495
0.00156962
0.00624915
0.00624966
0.006247
0.00624661
0.000641211
0.0010987
0.00107083
0.00127329
1.0752e-05
1.50069e-10
8.29037e-08
1.56654e-21
1.25405e-08
5.51279e-11
2.0196e-09
-6.43116e-11
1.18416e-22
1.0125e-20
1.90694e-15
1.24962e-18
4.14387e-07
1.27467e-07
1.57817e-07
5.1356e-07
2.16909e-06
2.16768e-06
1.54075e-06
7.60221e-07
1.3468e-06
2.68429e-07
2.69111e-07
1.0543e-07
5.54414e-07
3.65449e-07
5.87696e-08
3.06644e-09
2.84271e-08
4.69457e-08
1.54835e-08
7.1187e-09
2.57887e-09
1.49031e-09
2.3039e-09
2.54756e-09
7.59515e-10
9.0429e-10
9.91413e-10
1.01947e-09
4.29935e-10
3.87861e-10
3.99395e-10
4.01282e-10
2.51463e-10
1.82736e-10
1.77707e-10
1.76461e-10
1.10757e-10
9.15493e-11
8.55783e-11
8.34684e-11
5.06306e-11
4.40073e-11
4.08285e-11
3.98317e-11
2.18938e-11
1.96749e-11
1.88898e-11
1.87764e-11
8.75688e-12
8.37513e-12
8.33148e-12
8.4378e-12
3.22872e-12
3.26843e-12
3.39693e-12
3.51843e-12
1.10372e-12
1.1908e-12
1.2813e-12
1.39073e-12
3.41628e-13
3.90649e-13
4.56058e-13
4.98047e-13
1.00653e-13
1.23666e-13
1.45058e-13
1.73946e-13
2.64498e-14
3.46128e-14
4.62952e-14
5.37422e-14
6.64066e-15
9.36875e-15
1.29681e-14
1.78066e-14
1.46262e-15
2.26481e-15
4.15257e-15
5.42746e-15
3.80174e-16
7.44971e-16
1.23447e-15
2.11901e-15
9.72028e-17
1.9056e-16
4.55336e-16
7.47556e-16
2.82794e-17
6.9188e-17
1.426e-16
2.884e-16
7.22909e-18
1.75293e-17
4.95111e-17
9.56188e-17
1.49101e-18
5.60206e-18
1.25597e-17
2.86867e-17
4.90914e-19
9.04409e-19
3.10069e-18
7.02519e-18
1.76405e-19
1.87878e-19
5.21204e-19
1.50399e-18
8.72037e-20
2.97339e-20
8.56187e-20
2.5124e-19
5.07606e-20
6.78118e-21
9.13616e-21
3.71984e-20
2.57339e-20
2.15903e-21
1.31525e-21
4.38729e-21
0.079429
0.0312309
0.00528655
0.000922567
1.91073e-05
4.26419e-05
0.00119263
0.00240271
0.00730333
0.00642665
0.0106651
0.0319098
0.0319145
0.0319195
0.00795419
0.00456704
0.00455359
0.00403609
0.0040266
-1.30399e-07
-4.11304e-13
0.00260565
0.0112389
0.00409143
4.30439e-05
4.65131e-05
0.00196068
0.00675799
0.00703006
0.00354847
0.00356988
0.0294884
0.0142849
0.00697348
0.00904072
0.0144146
0.00797637
0.0040266
0.00263874
0.000467481
0.00143825
0.0118856
0.0118868
0.00379733
5.16776e-05
0.000180513
0.000146348
0.0054194
0.00677991
0.00480598
0.00847504
0.00520172
0.00446953
0.0159405
0.0175957
0.0157391
0.0040266
0.00231402
0.00269447
0.00123625
0.00260937
0.00851931
0.00796108
0.00778108
0.00952356
0.0089194
0.00567067
0.00498207
0.00483642
0.00255188
0.00168305
0.0016822
0.00328783
0.0156946
0.0164314
0.0123481
1.14979e-05
0.00015189
0.000622486
0.000531687
0.000815951
0.00207228
0.0019384
0.00353896
0.0138241
0.0144145
0.0144151
0.00434981
0.00150058
0.00274908
0.00397755
0.00334209
0.00329396
0.013541
0.0177431
5.24463e-05
6.29696e-06
6.2443e-06
2.07928e-05
5.537e-05
5.02803e-05
6.12192e-05
0.000233813
7.14395e-06
0.00853187
0.00962494
0.00415836
0.00105506
0.00105548
0.00388184
0.00417819
0.00329167
0.00546233
0.0171292
0.00137866
0.00021485
6.73368e-06
6.68577e-06
6.73491e-06
6.70964e-06
1.08214e-05
7.17881e-06
7.14556e-06
7.13296e-06
0.000958247
0.0059484
0.00215066
0.00112114
0.00110911
0.00322064
0.00327854
0.00362607
0.0150999
0.00624392
0.00293259
2.15485e-05
6.70835e-06
0.000222281
0.000249003
0.000218991
0.000125097
4.92699e-05
1.23194e-05
3.4217e-05
0.00568348
0.0128854
0.0048633
0.00218171
0.00174202
0.00233151
0.00435928
0.0158624
0.0032854
0.00361512
0.00176131
7.09497e-06
6.67835e-06
0.00148665
0.00411447
0.00451589
0.00284599
0.000219644
3.92535e-05
3.38726e-05
0.0163811
0.0188404
0.00758455
0.00294935
0.00360158
0.00487688
0.017788
4.43688e-10
1.38952e-05
0.000251394
0.000322924
0.000139881
1.27959e-06
0.00120822
0.00446327
0.00466978
0.00408734
0.000433035
2.99261e-05
0.0109744
0.0188022
0.0188403
0.00589851
0.00461125
0.00572804
0.0177888
1.14767e-06
7.99524e-07
2.64802e-07
2.9011e-07
3.56339e-06
1.1432e-06
6.37609e-07
4.983e-06
0.000251234
0.000592922
0.000407939
0.000196153
0.00302182
0.0107298
0.0165121
0.0107617
0.0115601
0.0117875
0.0138896
4.0185e-06
4.78014e-06
3.39787e-06
2.00736e-07
2.18911e-07
3.12588e-07
1.57659e-06
3.84635e-06
7.77582e-06
2.14952e-05
4.69988e-05
4.77612e-05
1.85148e-05
0.000504765
0.00186937
0.00755823
0.0117827
0.0117886
0.00130636
5.44504e-07
4.26707e-07
8.24383e-07
2.15856e-07
9.9934e-08
2.95173e-05
4.92159e-05
4.9524e-05
1.28262e-05
7.64019e-06
2.58699e-05
4.13488e-05
1.8504e-05
7.34985e-06
1.8272e-05
0.00163341
0.0113511
0.00976834
5.68134e-06
1.20204e-06
2.52143e-06
2.44477e-06
5.71886e-06
1.36642e-05
1.37251e-05
1.17185e-05
6.90059e-06
5.62119e-06
1.92848e-05
2.30078e-05
1.92432e-05
1.19789e-05
3.02056e-06
1.24217e-05
1.51129e-05
0.00175341
0.00088657
5.76764e-06
7.2053e-08
2.57414e-08
8.25222e-09
2.29163e-08
1.99508e-08
1.49742e-06
2.45115e-06
2.15903e-06
6.2781e-06
8.53881e-06
6.41633e-06
5.43903e-06
7.23154e-06
8.74906e-07
9.12655e-07
2.40475e-06
3.64808e-07
3.64806e-07
3.94567e-06
2.95592e-09
5.27654e-10
3.32529e-10
2.88474e-10
2.87877e-10
1.22877e-08
4.18323e-07
1.02091e-06
7.16775e-07
2.40625e-09
1.27261e-10
2.44757e-06
4.39473e-06
1.47578e-06
5.54849e-07
9.08505e-07
3.64806e-07
3.64806e-07
4.42718e-07
3.5985e-09
1.85218e-09
1.48216e-09
1.07444e-09
5.50066e-10
2.30374e-10
1.27471e-10
1.26822e-10
1.26764e-10
1.2677e-10
1.2742e-10
6.73123e-08
8.73944e-06
1.64231e-05
6.90847e-06
3.64805e-07
3.64806e-07
3.64806e-07
3.70998e-07
2.53485e-09
2.04203e-09
1.6475e-09
1.2464e-09
8.79185e-10
5.71948e-10
2.72116e-10
1.70223e-10
1.70845e-10
2.29906e-10
1.79894e-10
1.43307e-09
4.89528e-06
1.74894e-05
1.72237e-05
1.60832e-05
1.29723e-05
4.28109e-06
4.78348e-07
1.02612e-09
1.0444e-09
9.77553e-10
8.54095e-10
6.91945e-10
5.66091e-10
3.87055e-10
2.84621e-10
2.62291e-10
3.71199e-10
7.69827e-10
1.42613e-09
8.80754e-08
4.3294e-06
1.27359e-05
1.7333e-05
1.73139e-05
1.7288e-05
4.8325e-07
4.07874e-10
4.43229e-10
4.6121e-10
4.20178e-10
3.40911e-10
3.30695e-10
3.21853e-10
3.03982e-10
3.48111e-10
5.74244e-10
9.44305e-10
3.52538e-09
5.96765e-09
7.2818e-09
5.17377e-07
2.81981e-06
9.25213e-06
1.73221e-05
1.56121e-06
1.77355e-10
1.91567e-10
2.03882e-10
1.91785e-10
1.29902e-10
1.09631e-10
1.43372e-10
2.45043e-10
5.22652e-10
8.69242e-10
1.15207e-09
5.25986e-09
4.68488e-08
5.25599e-08
3.11957e-08
3.11957e-08
1.38753e-07
1.00448e-05
9.57822e-06
8.32326e-11
8.75396e-11
9.3819e-11
9.29104e-11
6.7834e-11
5.70033e-11
6.56928e-11
1.52291e-10
4.56332e-10
9.33867e-10
1.27242e-09
5.04258e-09
4.21305e-08
7.93981e-08
7.15375e-08
3.11957e-08
3.11957e-08
2.42166e-07
9.75531e-06
3.96886e-11
4.1569e-11
4.44463e-11
4.54774e-11
4.00544e-11
3.87939e-11
5.76007e-11
1.36871e-10
3.42335e-10
6.52847e-10
1.13221e-09
2.7654e-09
9.18065e-09
3.60263e-08
6.39201e-08
7.00295e-08
3.11957e-08
7.53191e-08
7.32604e-06
1.89133e-11
2.02966e-11
2.19056e-11
2.30335e-11
2.35061e-11
2.66608e-11
4.24325e-11
8.83192e-11
1.88515e-10
3.70394e-10
6.33227e-10
9.8808e-10
9.83744e-10
3.29658e-10
2.13821e-08
1.57518e-07
1.86054e-07
1.68563e-07
3.74254e-07
8.61011e-12
9.58382e-12
1.05989e-11
1.15744e-11
1.27071e-11
1.55497e-11
2.48275e-11
4.91197e-11
9.87953e-11
1.91909e-10
3.20157e-10
4.38995e-10
4.32087e-10
3.02175e-10
1.74427e-08
1.25475e-07
2.78629e-07
2.78589e-07
2.22451e-07
3.74884e-12
4.33069e-12
4.95715e-12
5.61304e-12
6.46658e-12
8.19076e-12
1.30091e-11
2.48332e-11
5.0018e-11
9.76276e-11
1.64756e-10
2.40145e-10
3.02486e-10
3.02268e-10
2.59633e-09
5.99103e-08
2.09653e-07
2.78629e-07
2.21404e-07
1.48008e-12
1.85433e-12
2.19678e-12
2.58178e-12
3.12453e-12
4.10664e-12
6.39709e-12
1.18607e-11
2.37014e-11
4.58172e-11
8.25764e-11
1.32433e-10
1.97583e-10
3.0995e-10
4.01585e-10
1.37612e-09
2.9008e-08
1.64025e-07
2.26925e-07
5.67309e-13
7.3786e-13
9.20865e-13
1.14467e-12
1.47017e-12
2.0292e-12
3.18101e-12
5.74831e-12
1.12938e-11
2.23324e-11
4.08452e-11
7.0869e-11
1.16939e-10
2.22081e-10
3.99033e-10
4.67454e-10
4.74203e-10
4.82371e-09
6.53575e-08
1.96175e-13
2.82211e-13
3.72879e-13
5.06313e-13
7.14246e-13
1.08369e-12
1.76758e-12
3.17582e-12
6.01514e-12
1.15248e-11
2.19359e-11
3.93522e-11
6.76324e-11
1.21853e-10
2.88666e-10
6.54952e-10
9.56025e-10
1.18115e-09
2.02528e-09
6.73847e-14
1.06552e-13
1.55301e-13
2.39892e-13
3.87562e-13
6.83192e-13
1.21187e-12
2.23395e-12
4.08865e-12
7.32762e-12
1.27186e-11
2.06941e-11
3.59431e-11
7.26284e-11
1.56729e-10
5.4007e-10
1.26078e-09
1.66377e-09
1.56068e-09
2.19532e-14
4.19948e-14
7.11419e-14
1.29877e-13
2.46184e-13
4.88201e-13
9.7637e-13
1.86932e-12
3.49639e-12
6.31422e-12
1.09972e-11
1.87568e-11
3.29495e-11
6.16237e-11
1.23899e-10
3.66741e-10
1.17875e-09
1.85702e-09
1.80828e-09
8.46513e-15
1.81849e-14
3.65838e-14
7.75663e-14
1.67902e-13
3.6829e-13
8.04237e-13
1.62485e-12
3.20172e-12
6.06679e-12
1.12873e-11
2.09473e-11
3.52701e-11
6.91095e-11
1.49237e-10
3.4655e-10
1.05022e-09
1.86522e-09
1.81502e-09
2.96118e-15
8.49797e-15
1.92888e-14
4.61339e-14
1.08851e-13
2.53347e-13
6.04527e-13
1.33712e-12
2.81403e-12
5.71972e-12
1.14094e-11
2.32444e-11
4.58659e-11
9.56223e-11
1.96477e-10
4.24961e-10
1.03344e-09
1.83392e-09
1.54186e-09
1.28753e-15
3.97666e-15
1.00571e-14
2.59367e-14
6.53491e-14
1.63902e-13
4.06972e-13
9.61265e-13
2.26167e-12
4.97564e-12
1.04535e-11
2.19509e-11
4.90749e-11
1.23904e-10
2.66643e-10
4.96573e-10
1.06832e-09
1.7453e-09
1.2237e-09
5.0338e-16
1.59647e-15
4.6348e-15
1.30121e-14
3.46446e-14
9.26761e-14
2.39975e-13
6.27386e-13
1.5621e-12
3.73289e-12
8.65325e-12
1.905e-11
4.31105e-11
1.1309e-10
2.85994e-10
5.58738e-10
1.03142e-09
1.6169e-09
8.81766e-10
1.83019e-16
6.41999e-16
1.90748e-15
5.41949e-15
1.50366e-14
4.4578e-14
1.22721e-13
3.47646e-13
9.35121e-13
2.43154e-12
5.9262e-12
1.43123e-11
3.36484e-11
8.83371e-11
2.57332e-10
5.48253e-10
9.24861e-10
1.18326e-09
7.42594e-10
5.85066e-17
2.0155e-16
6.57848e-16
2.0313e-15
5.97536e-15
1.8037e-14
5.30495e-14
1.66231e-13
5.00429e-13
1.41158e-12
3.79063e-12
9.58809e-12
2.27196e-11
5.86064e-11
1.72826e-10
4.62667e-10
7.56037e-10
9.60729e-10
4.83196e-10
1.53682e-17
5.73272e-17
1.97954e-16
6.11303e-16
1.97658e-15
6.44589e-15
2.091e-14
6.80153e-14
2.25387e-13
6.96591e-13
2.03012e-12
5.46574e-12
1.40733e-11
3.26851e-11
8.96364e-11
2.70849e-10
5.62678e-10
6.26132e-10
3.18051e-10
3.36347e-18
1.38929e-17
5.04403e-17
1.67652e-16
5.51015e-16
1.92952e-15
6.99054e-15
2.5766e-14
9.29901e-14
3.17946e-13
1.0111e-12
2.94061e-12
8.07607e-12
2.02412e-11
4.67367e-11
1.21423e-10
2.53412e-10
3.87524e-10
1.90517e-10
6.60515e-19
2.62565e-18
1.01941e-17
3.56814e-17
1.30202e-16
4.88403e-16
1.94263e-15
7.78346e-15
3.08539e-14
1.15424e-13
3.97322e-13
1.27484e-12
3.689e-12
9.70087e-12
2.35251e-11
4.97569e-11
1.32442e-10
1.83766e-10
8.92362e-11
1.06714e-19
4.83794e-19
1.85799e-18
7.01568e-18
2.58251e-17
9.83802e-17
4.1913e-16
1.8058e-15
8.52622e-15
3.63216e-14
1.43644e-13
5.40338e-13
1.65582e-12
4.69598e-12
1.15789e-11
2.54583e-11
5.14108e-11
7.78828e-11
4.48205e-11
1.4179e-20
7.25426e-20
3.10273e-19
1.24411e-18
4.98576e-18
2.10387e-17
9.34572e-17
4.56234e-16
2.23356e-15
1.07556e-14
4.75026e-14
1.75333e-13
6.1372e-13
1.80304e-12
4.80324e-12
1.11212e-11
2.01419e-11
3.04619e-11
2.21252e-11
)
;

boundaryField
{
    leftWall
    {
        type            zeroGradient;
    }
    rightWall
    {
        type            zeroGradient;
    }
    lowerWall
    {
        type            zeroGradient;
    }
    atmosphere
    {
        type            inletOutlet;
        inletValue      uniform 0;
        value           nonuniform List<scalar> 
46
(
0
0
0
0
0
0
0
0
0
0
0
0
0
0
0
0
0
0
0
0
0
0
2.20889e-19
2.57339e-20
2.15903e-21
1.31525e-21
4.38729e-21
1.4179e-20
7.25426e-20
3.10273e-19
1.24411e-18
4.98576e-18
2.10387e-17
9.34572e-17
4.56234e-16
2.23356e-15
1.07556e-14
4.75026e-14
1.75333e-13
6.1372e-13
1.80304e-12
4.80324e-12
1.11212e-11
2.01419e-11
3.04619e-11
2.21252e-11
)
;
    }
    defaultFaces
    {
        type            empty;
    }
}


// ************************************************************************* //
