/*--------------------------------*- C++ -*----------------------------------*\
| =========                 |                                                 |
| \\      /  F ield         | OpenFOAM: The Open Source CFD Toolbox           |
|  \\    /   O peration     | Version:  2312                                  |
|   \\  /    A nd           | Website:  www.openfoam.com                      |
|    \\/     M anipulation  |                                                 |
\*---------------------------------------------------------------------------*/
FoamFile
{
    version     2.0;
    format      ascii;
    arch        "LSB;label=32;scalar=64";
    class       volScalarField;
    location    "2.8";
    object      alpha.water_0;
}
// * * * * * * * * * * * * * * * * * * * * * * * * * * * * * * * * * * * * * //

dimensions      [0 0 0 0 0 0 0];

internalField   nonuniform List<scalar> 
2268
(
2.0311e-07
4.89633e-08
4.19175e-09
7.36023e-10
3.49295e-10
2.14688e-10
1.11662e-10
6.58501e-11
4.77544e-11
3.74428e-11
3.30339e-11
3.21607e-11
3.31694e-11
3.65999e-11
4.43138e-11
5.67437e-11
7.84084e-11
1.18608e-10
1.83366e-10
3.14529e-10
6.12621e-10
1.01558e-09
1.27992e-09
5.72897e-07
2.30723e-07
8.21177e-09
4.83808e-10
3.16664e-10
1.79828e-10
1.70428e-10
1.60184e-10
1.12761e-10
7.16499e-11
5.26739e-11
4.45653e-11
4.41283e-11
5.25761e-11
6.91472e-11
9.42408e-11
1.31939e-10
2.08322e-10
3.77002e-10
6.63124e-10
1.21153e-09
1.71104e-09
1.76852e-09
3.89178e-07
2.36284e-07
2.83636e-09
9.78075e-10
2.03373e-10
1.56912e-10
4.32207e-10
4.57936e-10
3.76802e-10
1.70138e-10
8.3852e-11
5.71019e-11
5.13882e-11
6.94854e-11
1.09761e-10
1.64808e-10
2.24563e-10
2.72229e-10
4.08818e-10
6.8891e-10
1.29259e-09
1.71466e-09
1.44875e-09
1.66247e-26
1.82775e-26
1.38433e-28
1.47263e-28
1.29178e-28
1.35832e-16
3.95672e-11
7.6942e-11
7.74729e-11
4.34556e-11
2.46753e-11
1.76795e-11
1.78809e-11
3.38933e-11
6.44382e-11
1.18356e-10
1.49181e-10
1.6519e-10
2.59527e-10
4.03503e-10
1.97071e-09
6.59198e-09
1.03186e-09
0.0502176
0.0355287
0.0287726
0.0235476
0.0139032
1.15487e-11
1.9487e-22
1.89168e-22
1.77856e-22
1.73325e-22
1.3095e-12
2.21339e-15
6.50183e-17
3.8253e-14
4.73121e-14
1.45088e-13
5.05288e-11
3.71321e-11
2.07919e-10
3.55299e-10
4.03892e-10
3.68935e-10
3.7279e-10
0.69208
0.687465
0.677298
0.665803
0.632602
0.56834
0.465324
0.353072
0.244863
0.154478
0.0846809
0.0353729
0.00556976
2.05162e-17
9.04635e-19
2.0562e-17
5.23413e-08
1.3582e-13
1.8352e-20
1.3582e-13
7.01068e-05
0.00505178
0.00948482
0.994391
0.995511
0.996986
0.998207
0.999492
0.999221
0.994998
0.976149
0.932934
0.867416
0.779841
0.66348
0.526164
0.434401
0.388966
0.354401
0.320059
0.305942
0.316295
0.344744
0.406097
0.521002
0.560001
0.996947
0.998179
0.998837
0.999493
0.999493
0.999493
0.999493
0.999493
0.999493
0.999493
0.999492
0.999254
0.993677
0.974768
0.937967
0.909105
0.920511
0.94697
0.945616
0.951414
0.959338
0.97076
0.971981
0.0261247
0.0260336
0.0261018
0.024001
0.0125036
0.0119954
0.0124505
0.0143101
0.019262
0.0198518
0.0190704
0.0177572
0.0181126
0.017713
0.0162673
0.0125655
0.0116814
0.00945033
0.00839047
0.0528664
0.0214786
0.0158134
0.0150731
0.0119902
0.0119806
0.0119384
0.0119544
0.0122049
0.0153326
0.018404
0.0132678
0.0105429
0.007105
0.00649691
0.00647779
0.0064993
0.00836219
0.00838796
0.492513
0.346947
0.279133
0.267417
0.214877
0.105873
0.0314106
0.0214323
0.00727047
0.00724208
0.00729617
0.00760075
0.0119555
0.0210584
0.0232623
0.116142
0.0555209
0.00834651
0.00834644
0.618146
0.641083
0.656175
0.605736
0.58224
0.433593
0.36671
0.52666
0.530879
0.20527
0.153982
0.231255
0.293101
0.325195
0.357494
0.477867
0.222966
0.0185222
0.0086334
0.617971
0.798976
0.917809
0.779245
0.827344
0.552407
0.553127
0.963458
0.963043
0.747512
0.456607
0.459008
0.453169
0.419565
0.5383
0.777196
0.761424
0.437229
0.292868
0.625684
0.966883
0.998502
0.993204
0.995986
0.886799
0.510721
0.965201
0.965208
0.965196
0.513542
0.457586
0.453118
0.620469
0.833236
0.855373
0.865871
0.865781
0.589323
0.802517
0.92993
0.998497
0.999713
0.999715
0.974133
0.507606
0.965231
0.96332
0.746371
0.484471
0.484467
0.482685
0.798554
0.867165
0.867071
0.867066
0.860336
0.716643
0.878514
0.95009
0.990189
0.995553
0.999714
0.988735
0.548373
0.966729
0.943712
0.865692
0.768355
0.774137
0.668971
0.739927
0.866115
0.867071
0.832221
0.829074
0.482927
0.998181
0.999121
0.999489
0.999493
0.999469
0.99949
0.999493
0.999493
0.999493
0.999494
0.999494
0.999494
0.988861
0.919091
0.853767
0.777829
0.79413
0.971041
0.979912
0.979946
0.979972
0.979225
0.976615
0.999121
0.999121
0.997105
0.993145
0.992856
0.98973
0.989645
0.988701
0.985077
0.963027
0.922312
0.919301
0.915641
0.786495
0.663719
0.734788
0.917107
0.937813
0.933227
0.918398
0.885349
0.848829
0.809321
0.999006
0.999078
0.99885
0.997798
0.993416
0.902097
0.741234
0.699006
0.577122
0.375154
0.268605
0.276409
0.347802
0.381111
0.421125
0.520151
0.466487
0.391012
0.326155
0.263497
0.213258
0.164036
0.11695
0.7555
0.797904
0.853528
0.83218
0.877931
0.836398
0.377463
0.0589765
0.0143281
-6.30135e-20
7.6929e-21
2.39814e-20
-1.20012e-09
0.00333264
0.00884786
2.79133e-08
1.87647e-09
1.32e-09
5.41555e-10
2.00876e-22
1.35411e-22
5.11972e-16
9.66318e-14
0.00160954
0.0139516
0.0226591
0.0282996
0.046877
0.283896
0.349143
0.0718984
1.19406e-07
1.77747e-13
1.07976e-24
2.15683e-24
3.50341e-06
8.96793e-05
0.000255523
0.00036869
0.000347655
0.000291814
0.000228032
0.000111815
7.23574e-06
4.46862e-07
3.50392e-06
0.00160564
0.000100998
0.000100782
0.000100993
0.000100778
0.0228833
0.0739126
0.072069
0.0213708
1.22317e-06
3.61397e-05
2.35419e-05
5.02752e-07
5.40286e-13
6.77588e-18
0.000922333
0.00628323
0.00745855
0.00515084
0.000898967
0.000104563
8.4862e-06
2.82625e-05
0.00424148
0.000326846
0.00339501
0.00471822
0.00343349
0.00473855
0.00595732
0.00651471
0.00528312
0.00202629
0.00203749
0.00424594
0.00419777
0.00146455
1.19381e-09
1.24576e-18
0.0086762
0.021012
0.021012
0.0165468
0.00607472
0.00143555
0.000122391
0.00440955
0.0034177
0.00608002
0.00502376
0.00277484
0.00285626
0.00360415
0.00305782
0.00141753
0.000609795
0.000278428
0.005418
0.0116789
0.0117278
0.0098359
0.00176137
0.00102134
0.00561499
0.0192666
0.0209787
0.0209588
0.00821973
8.9489e-05
0.00440955
0.00391153
0.0046562
0.000440291
6.30532e-08
4.31764e-08
4.22485e-06
0.000104725
0.00055582
0.000618985
0.000251268
2.3501e-05
2.08926e-05
0.00177015
0.0118974
0.0124258
0.0122557
0.00365919
0.00364808
0.00869786
0.0209787
0.0204717
0.0038273
0.00433753
0.000991531
2.9335e-05
3.95201e-10
1.19404e-08
5.81914e-08
1.4133e-08
5.01936e-10
3.29683e-10
3.11853e-05
0.000381602
0.00038402
0.00014351
7.41616e-07
5.19236e-07
1.16392e-06
0.00368606
0.00607138
0.0060525
0.00159233
0.00184084
0.0154685
0.0102106
0.00289259
2.91888e-05
1.58162e-08
3.95201e-10
3.95199e-10
5.48216e-07
1.27937e-06
1.55652e-06
4.24832e-08
4.12043e-05
0.000352029
0.000394292
0.000388671
6.85697e-05
9.95179e-07
7.28677e-07
3.52676e-07
0.000159484
0.00038215
0.000284375
9.83409e-05
0.000381861
0.00191107
0.00374526
0.000953475
2.29807e-06
3.952e-10
1.48867e-09
4.23125e-07
1.06377e-05
1.98244e-05
7.45787e-06
3.83847e-06
3.33777e-06
3.45606e-05
1.25409e-05
3.17529e-06
4.62701e-07
3.52676e-07
3.52671e-07
5.06679e-07
5.38936e-07
8.18283e-07
3.83346e-07
3.83294e-07
4.40882e-06
0.00285112
0.00208296
0.000151723
8.78402e-07
4.53723e-07
8.14294e-06
6.2137e-05
6.2778e-05
2.42113e-05
3.90215e-06
2.49852e-06
2.50025e-06
3.08965e-06
5.9783e-06
3.80137e-06
4.08859e-07
5.25395e-07
6.45758e-07
5.87749e-07
3.83343e-07
3.83302e-07
3.83356e-07
7.4427e-07
6.63629e-06
7.8065e-06
8.79746e-05
4.18729e-05
2.40181e-05
6.49912e-05
6.496e-05
6.27062e-05
1.41796e-05
3.40398e-06
2.50826e-06
4.25953e-06
6.03997e-06
5.97672e-06
1.67037e-06
4.7655e-07
3.92368e-07
3.90219e-07
4.65993e-05
8.15272e-05
8.15144e-05
3.0521e-05
5.11102e-06
5.01471e-06
4.42388e-06
4.55153e-06
5.95619e-05
5.99855e-05
5.48505e-05
3.85865e-05
1.98629e-06
4.2546e-06
3.69663e-06
7.34961e-06
7.343e-06
3.91866e-06
1.10603e-05
1.95477e-05
7.11462e-05
7.42499e-05
7.06492e-05
1.97695e-05
2.30856e-05
1.94713e-05
9.46431e-06
4.64278e-06
1.26819e-06
3.25152e-06
6.32402e-06
8.11168e-06
1.53867e-05
8.1282e-07
8.74682e-07
1.86779e-06
2.77321e-06
6.30574e-06
5.86122e-06
5.80796e-07
4.46917e-06
7.05324e-05
8.72912e-05
8.72539e-05
2.46784e-05
7.73734e-08
1.69345e-06
5.31631e-06
5.60515e-06
2.76854e-06
1.41237e-07
4.50276e-08
1.17808e-06
6.22839e-07
6.71917e-07
7.2394e-07
7.66391e-07
2.04836e-06
3.8695e-06
2.26338e-06
3.79082e-06
7.23131e-07
2.07763e-07
5.2575e-06
2.64714e-05
2.71014e-05
4.52771e-06
1.39809e-07
7.75414e-08
7.80138e-07
1.62574e-06
1.04574e-06
1.44934e-08
1.03683e-08
4.61856e-08
1.39636e-07
5.3586e-07
6.10185e-07
6.60469e-07
2.27519e-06
4.16335e-06
2.87585e-06
2.89249e-07
4.66745e-07
2.12709e-07
2.10314e-07
3.66007e-07
2.31484e-09
2.30822e-09
2.316e-09
1.85875e-08
1.07063e-07
1.42167e-07
4.89569e-08
6.22812e-10
6.31005e-10
9.23762e-10
3.95425e-08
1.31655e-07
1.69101e-06
1.7374e-06
1.70912e-06
1.93409e-06
1.61295e-06
2.38835e-10
7.31402e-09
6.31796e-08
9.16713e-08
6.01725e-08
2.19396e-08
4.80879e-09
2.99876e-09
6.45535e-09
1.36201e-08
3.65688e-08
4.99945e-08
2.82771e-08
1.9545e-09
2.08639e-09
7.20443e-10
2.51344e-08
1.3947e-07
1.5523e-07
1.92171e-07
4.08799e-09
-2.00177e-10
-1.02906e-10
1.32206e-10
3.27502e-09
3.85322e-08
5.84986e-08
2.51189e-08
5.16977e-09
2.52832e-09
2.06747e-09
2.06209e-09
3.40826e-09
4.89852e-09
5.51436e-09
6.26936e-09
5.23019e-09
2.03758e-09
1.32208e-09
8.17498e-09
1.54381e-08
2.31943e-08
2.86797e-08
2.08498e-08
2.75476e-08
2.13377e-08
3.71525e-09
2.39833e-09
5.9399e-09
8.57372e-09
4.83328e-09
1.70687e-09
1.39561e-09
1.3106e-09
1.15287e-09
1.12523e-09
1.64429e-09
2.13502e-09
2.18505e-09
2.14116e-09
1.7249e-09
8.62394e-10
6.99266e-09
8.38917e-09
1.28066e-08
1.13745e-08
1.50894e-08
2.04279e-08
1.9939e-08
6.10298e-09
2.41194e-10
2.42206e-10
2.4219e-10
2.7934e-10
5.86202e-10
6.35057e-10
6.04939e-10
5.50748e-10
5.36613e-10
6.80682e-10
8.65119e-10
9.21081e-10
9.25178e-10
7.00254e-10
4.97468e-10
7.00737e-09
7.96143e-09
1.1445e-08
8.94284e-09
4.14945e-09
5.23885e-10
2.06226e-10
1.97566e-10
2.40345e-10
2.38655e-10
2.47354e-10
2.58807e-10
2.66713e-10
2.68611e-10
2.64708e-10
2.58494e-10
2.62656e-10
3.08258e-10
3.54545e-10
3.7035e-10
3.73765e-10
3.37299e-10
1.73555e-10
1.96642e-08
9.53456e-09
1.06049e-08
9.48396e-09
5.4264e-09
1.50363e-09
1.2556e-10
1.23702e-10
1.24686e-10
1.15579e-10
1.15804e-10
1.16512e-10
1.1712e-10
1.1713e-10
1.16721e-10
1.16556e-10
1.18946e-10
1.27314e-10
1.35329e-10
1.38945e-10
1.40555e-10
1.12615e-10
7.25666e-11
3.032e-08
1.0422e-08
7.91912e-09
7.07709e-09
4.36808e-09
1.57313e-09
2.26424e-10
7.6819e-11
6.75566e-11
5.63893e-11
5.10643e-11
4.86347e-11
4.71402e-11
4.64602e-11
4.62749e-11
4.645e-11
4.65891e-11
4.67333e-11
4.6843e-11
4.53624e-11
4.28167e-11
3.87694e-11
2.82249e-11
3.50015e-08
1.19691e-08
4.49936e-09
2.6581e-09
1.90248e-09
7.4446e-10
1.80407e-10
7.67387e-11
5.79332e-11
4.16571e-11
3.00743e-11
2.35266e-11
1.9578e-11
1.75331e-11
1.64338e-11
1.57435e-11
1.53794e-11
1.47009e-11
1.37119e-11
1.30461e-11
1.23183e-11
1.06003e-11
1.01412e-11
8.53782e-08
1.92693e-08
4.25845e-09
2.10022e-10
1.66847e-10
1.67739e-10
1.57844e-10
1.26298e-10
9.4318e-11
6.29399e-11
3.90651e-11
2.34849e-11
1.4346e-11
9.01912e-12
6.39726e-12
5.10207e-12
4.54662e-12
3.87828e-12
3.3728e-12
3.1198e-12
3.01272e-12
3.22133e-12
3.3634e-12
2.23161e-07
8.05594e-08
7.20814e-09
5.15367e-10
3.59223e-10
3.16454e-10
2.62826e-10
2.25373e-10
1.80149e-10
1.17195e-10
7.10691e-11
4.2067e-11
2.29394e-11
1.15367e-11
5.43006e-12
2.73181e-12
1.57899e-12
1.08274e-12
7.52589e-13
6.96672e-13
7.17213e-13
7.48971e-13
1.03567e-12
2.22835e-07
2.22691e-07
1.38941e-08
6.50605e-10
4.14609e-10
4.60334e-10
4.11767e-10
3.93179e-10
3.43067e-10
2.06978e-10
1.27779e-10
7.94368e-11
4.46532e-11
2.1832e-11
9.55505e-12
3.79233e-12
1.43879e-12
5.62826e-13
2.65263e-13
1.50368e-13
1.40966e-13
2.0371e-13
2.78067e-13
1.37093e-07
2.68221e-07
2.98506e-08
8.33686e-10
4.16536e-10
5.9168e-10
5.74625e-10
6.22197e-10
6.15698e-10
3.1517e-10
2.00973e-10
1.32036e-10
7.80856e-11
4.08554e-11
1.83979e-11
7.27237e-12
2.55427e-12
7.90071e-13
2.29928e-13
7.23516e-14
3.58544e-14
3.70929e-14
7.78732e-14
8.6391e-08
2.6891e-07
1.58207e-07
4.38835e-10
4.1715e-10
5.91106e-10
5.9406e-10
7.78302e-10
9.72547e-10
4.19986e-10
2.58582e-10
1.85563e-10
1.17473e-10
6.81062e-11
3.29044e-11
1.33156e-11
4.71065e-12
1.44286e-12
3.84518e-13
9.54037e-14
2.03659e-14
1.04431e-14
1.65319e-14
6.16911e-08
2.68973e-07
2.31843e-07
4.18498e-10
4.17734e-10
4.18337e-10
4.1903e-10
1.48817e-09
1.06564e-09
4.31061e-10
3.00492e-10
2.29052e-10
1.58628e-10
9.79619e-11
4.92621e-11
2.13369e-11
7.97798e-12
2.51153e-12
6.82098e-13
1.42317e-13
3.23638e-14
4.23532e-15
3.62162e-15
1.01805e-08
1.0298e-07
1.84269e-07
6.07634e-09
4.2401e-10
8.68457e-09
1.76452e-08
2.35157e-08
3.44929e-10
3.44221e-10
3.39441e-10
2.72954e-10
2.02792e-10
1.21581e-10
6.51284e-11
2.9422e-11
1.16867e-11
3.88952e-12
1.06163e-12
2.43213e-13
4.64694e-14
4.83826e-15
9.0762e-16
5.74655e-09
1.90485e-08
2.47882e-08
7.0643e-09
4.21655e-10
5.79657e-08
2.29211e-07
4.9415e-08
3.4564e-10
3.45591e-10
3.71688e-10
2.96887e-10
2.23219e-10
1.37346e-10
7.3369e-11
3.5094e-11
1.46537e-11
5.17881e-12
1.47509e-12
3.39005e-13
7.07076e-14
9.60169e-15
4.42122e-16
1.13044e-09
4.55154e-10
4.43242e-10
4.41714e-10
4.2509e-10
6.52901e-08
3.31886e-07
1.27365e-07
3.46247e-10
3.67284e-10
3.97018e-10
3.12673e-10
2.30391e-10
1.37267e-10
7.34817e-11
3.56328e-11
1.55186e-11
5.79785e-12
1.7326e-12
4.16273e-13
8.90999e-14
1.01178e-14
5.58155e-16
2.0138e-09
7.61557e-10
7.50117e-10
1.28569e-09
1.12708e-08
2.23275e-07
9.62857e-07
4.84359e-07
3.4593e-10
4.20671e-10
3.95657e-10
3.1938e-10
2.25411e-10
1.28403e-10
6.51233e-11
3.09029e-11
1.36049e-11
5.29497e-12
1.70689e-12
4.24112e-13
9.17439e-14
1.23835e-14
8.79608e-16
1.5902e-08
8.89756e-10
9.21693e-10
3.04942e-09
1.93014e-08
8.79361e-07
1.49862e-06
8.34678e-07
3.46532e-10
4.76704e-10
3.5751e-10
2.90714e-10
2.02965e-10
1.08762e-10
5.11707e-11
2.2678e-11
9.6517e-12
3.77288e-12
1.28419e-12
3.46964e-13
7.71539e-14
8.41004e-15
1.02346e-15
2.95317e-07
7.86306e-09
1.504e-09
3.27668e-09
3.28382e-09
1.34637e-06
1.4825e-06
5.05702e-07
2.36336e-09
4.52405e-10
2.7341e-10
2.35476e-10
1.59643e-10
8.10515e-11
3.47373e-11
1.3745e-11
5.33901e-12
2.00687e-12
7.00887e-13
1.97892e-13
4.34496e-14
6.56235e-15
8.26794e-16
5.17544e-07
8.80375e-08
3.82119e-09
3.43837e-09
3.29103e-09
5.65897e-07
1.13652e-06
4.451e-08
7.89027e-10
3.442e-10
1.755e-10
1.57077e-10
1.03693e-10
5.10478e-11
1.96073e-11
6.58953e-12
2.16472e-12
7.20498e-13
2.39533e-13
7.8419e-14
2.05087e-14
2.55748e-15
4.15602e-16
5.08453e-07
1.79097e-07
6.84433e-09
5.02216e-09
1.00545e-08
1.71563e-12
1.7203e-12
1.71159e-12
1.17387e-09
2.04312e-10
8.81953e-11
7.98411e-11
5.31073e-11
2.5711e-11
8.90025e-12
2.45577e-12
6.14978e-13
1.57465e-13
5.0182e-14
1.96743e-14
5.08982e-15
1.01052e-15
1.83574e-16
3.72674e-07
1.17284e-07
6.21499e-09
3.68993e-09
8.87657e-09
4.01862e-10
8.99871e-12
5.00909e-12
3.37547e-10
5.43886e-11
3.04213e-11
2.82982e-11
1.935e-11
9.09989e-12
2.88029e-12
6.38199e-13
1.10647e-13
1.84556e-14
5.30815e-15
3.14798e-15
1.00652e-15
2.61886e-16
6.5877e-17
3.11261e-322
-8.98363e-31
5.25734e-10
1.6869e-10
1.64585e-11
2.92334e-12
2.55798e-13
2.30834e-11
7.41341e-13
9.32442e-13
5.38377e-12
5.14975e-12
3.72726e-12
1.70803e-12
4.89036e-13
8.48081e-14
9.88083e-15
9.87468e-16
2.88623e-16
3.11521e-16
1.81678e-16
5.99037e-17
2.02321e-17
0.920166
0.881361
0.827565
0.709292
0.764578
0.713331
0.594238
0.5478
0.0785315
0.047761
0.0360498
0.0243255
3.20533e-13
4.23104e-24
6.4519e-24
3.00207e-24
5.66735e-06
8.43951e-06
1.83914e-05
1.55135e-05
5.36305e-05
6.68867e-05
0.000135768
0.000299197
3.30457e-05
0.000101526
0.00032433
0.00166025
3.14942e-07
1.93679e-07
0.00246703
0.00317626
5.68123e-05
3.33211e-06
3.2076e-06
0.000471773
0.00105005
7.56105e-07
3.87494e-08
2.90903e-08
0.00168443
0.000439387
1.26704e-08
1.22442e-08
8.74915e-05
0.000142968
4.78922e-05
8.71252e-06
1.50548e-05
5.20241e-05
5.32484e-05
5.1882e-05
7.01023e-06
7.65073e-06
8.5474e-06
6.25088e-06
1.40201e-07
6.63155e-07
1.28271e-06
1.18024e-06
3.94092e-08
1.28353e-08
4.13832e-08
4.93423e-09
1.7389e-09
1.44895e-09
1.09821e-09
1.13162e-09
7.98747e-10
9.5075e-10
1.10092e-09
1.25417e-09
6.38284e-10
6.8444e-10
7.60857e-10
8.55854e-10
4.83316e-10
4.41356e-10
4.87413e-10
5.21669e-10
3.67176e-10
2.92532e-10
3.05849e-10
3.1679e-10
1.96865e-10
1.80307e-10
1.81926e-10
1.85703e-10
1.07255e-10
1.02448e-10
1.0245e-10
1.04577e-10
5.4252e-11
5.29971e-11
5.37842e-11
5.57378e-11
2.50849e-11
2.52944e-11
2.62359e-11
2.78473e-11
1.02851e-11
1.07775e-11
1.17803e-11
1.27225e-11
3.87028e-12
4.34162e-12
4.87086e-12
5.53389e-12
1.31889e-12
1.57044e-12
1.91312e-12
2.17725e-12
4.31058e-13
5.51903e-13
6.70009e-13
8.26844e-13
1.25567e-13
1.69569e-13
2.31096e-13
2.76482e-13
3.4016e-14
4.82293e-14
6.71403e-14
9.04319e-14
7.52499e-15
1.1404e-14
1.95284e-14
2.50326e-14
1.61932e-15
2.95452e-15
4.50573e-15
6.88498e-15
2.9507e-16
5.29026e-16
1.06189e-15
1.56578e-15
5.83846e-17
1.04989e-16
1.89191e-16
3.23385e-16
1.5246e-17
1.64981e-17
3.62483e-17
6.18884e-17
1.05482e-17
3.76817e-18
5.55968e-18
1.12253e-17
1.21934e-17
1.27438e-18
9.27295e-19
1.72626e-18
1.19092e-17
8.92249e-19
1.71456e-19
2.4263e-19
9.56306e-18
6.79002e-19
5.33569e-20
2.90973e-20
5.97589e-18
4.63186e-19
2.6749e-20
3.48857e-21
3.01904e-18
2.51594e-19
1.57063e-20
5.02381e-22
0.762928
0.959704
0.98574
0.978254
0.999713
0.998471
0.950595
0.983332
0.938253
0.944849
0.943157
0.776491
0.51938
0.607085
0.851026
0.867013
0.740546
0.576441
0.429388
0.667293
0.940245
0.96202
0.889267
0.908135
0.99099
0.991651
0.991651
0.945685
0.891044
0.877548
0.80914
0.493764
0.698009
0.866173
0.865939
0.831071
0.786551
0.429275
0.0199198
0.23573
0.474305
0.450988
0.637964
0.854049
0.943302
0.961299
0.903201
0.835322
0.613559
0.478191
0.417812
0.495164
0.621072
0.519621
0.550376
0.640101
0.668914
1.14433e-14
7.74047e-15
0.0142715
0.0513753
0.056115
0.178951
0.403281
0.270335
0.0914487
0.171328
0.417036
0.477876
0.397671
0.479907
0.412043
0.270435
0.24403
0.296632
0.682346
1.35861e-06
1.28207e-07
7.9167e-12
6.45539e-13
-8.65091e-09
-1.97416e-08
0.000246715
3.13106e-05
0.000216868
0.000242112
0.00259387
0.0352167
0.131351
0.445777
0.464009
0.464215
0.245316
0.169821
0.279927
0.000170509
1.00724e-05
3.16567e-08
9.05696e-12
5.12527e-05
6.27296e-05
3.34717e-05
3.10947e-05
0.000268092
0.00130178
0.00129126
0.00129525
0.00176478
0.0256236
0.197443
0.440456
0.366619
0.169806
0.0699731
0.00188363
0.000422045
0.000100462
8.62388e-05
3.30677e-05
3.20779e-05
3.18192e-05
3.18539e-05
1.4628e-05
4.01472e-07
0.000743933
0.00151054
0.00147571
0.0021669
0.00410621
0.0614002
0.156754
0.169841
0.0717157
0.00317554
0.00189581
0.000836817
0.00149866
0.00217121
0.00170265
0.00047111
5.87647e-05
4.65068e-06
4.04417e-07
1.23469e-05
0.00450818
0.00424499
0.00207852
0.00245466
-1.1839e-07
5.25157e-11
0.153556
0.0949216
0.00104361
0.000511389
0.00153523
0.00418232
0.0042496
0.0042492
0.00379544
0.000740543
3.54913e-07
3.54991e-07
5.9748e-05
0.00414312
0.00937164
0.00685047
0.000486534
2.86935e-05
3.3397e-07
0.0618549
0.0744599
1.14368e-08
1.14372e-08
1.28627e-08
0.000152771
0.00226477
0.00253673
0.00111283
0.000298838
0.000167167
3.57034e-07
0.000140975
0.00745161
0.00937089
0.0093721
0.00181965
1.83773e-21
4.46072e-25
0.0190024
0.00998118
1.28671e-07
2.5841e-06
3.55251e-06
4.08196e-06
3.04766e-05
2.82011e-05
7.33552e-06
1.84351e-06
6.40957e-07
3.56873e-07
0.000238824
0.00703728
0.00937164
0.00650743
0.000861008
-1.90832e-21
-6.28596e-18
0.00121998
1.00117e-09
1.28254e-05
1.65304e-05
1.72561e-05
6.58035e-06
4.22697e-06
4.01083e-06
8.20963e-06
7.59978e-06
1.86492e-05
1.50996e-05
0.00181265
0.00251845
0.0020703
0.000505894
5.0676e-05
1.14035e-07
2.58204e-10
3.42368e-10
9.76107e-10
3.25289e-05
1.41141e-05
6.29424e-06
1.48378e-06
1.48418e-06
8.5111e-05
0.000227183
0.000227151
0.000227106
0.000175182
8.73203e-05
1.00724e-05
1.01375e-05
1.14824e-05
3.4515e-07
2.63351e-08
3.00162e-06
1.1297e-06
1.00097e-09
8.01444e-06
4.09089e-05
4.09059e-05
2.68064e-05
4.67918e-05
5.15311e-05
8.87756e-05
0.000129756
0.000103997
4.82177e-05
2.13216e-05
3.75867e-05
3.81113e-05
3.73304e-05
9.76759e-06
8.27361e-06
1.16029e-05
1.98299e-06
2.23584e-08
5.84396e-07
1.38801e-07
5.36493e-08
3.30074e-08
2.79926e-06
2.17833e-05
4.44112e-05
4.47921e-05
4.04035e-05
1.01506e-06
3.46374e-05
6.44946e-05
6.45543e-05
3.07688e-05
1.88212e-05
1.8271e-05
1.01986e-05
1.17889e-06
6.02937e-08
1.43939e-09
1.50949e-09
1.30682e-09
1.25025e-09
1.24873e-09
2.12061e-07
7.0443e-06
1.60229e-05
2.90586e-06
1.05421e-06
2.90505e-05
6.4142e-05
3.59783e-05
8.31645e-06
1.03876e-05
1.41464e-05
1.20296e-06
1.56803e-07
1.29657e-07
1.93178e-09
2.55332e-09
2.8345e-09
2.965e-09
2.79233e-09
2.72351e-09
2.72516e-09
2.72153e-09
2.72342e-09
2.13997e-07
2.48276e-06
5.27444e-06
2.30704e-06
2.2818e-06
3.69869e-06
2.42669e-06
3.39648e-07
2.75565e-07
2.0472e-07
1.44164e-09
2.03432e-09
2.88181e-09
3.42551e-09
3.77013e-09
3.79917e-09
3.63906e-09
5.17361e-09
7.9583e-09
7.79904e-09
4.22594e-09
2.62073e-09
2.62289e-09
4.19747e-09
1.06632e-06
8.65333e-06
7.66884e-06
7.12425e-06
2.2906e-07
9.49143e-10
1.3326e-09
1.63121e-09
1.93355e-09
2.27752e-09
3.3255e-09
6.36512e-09
1.55219e-08
2.52835e-08
2.42445e-08
1.26295e-08
2.94967e-09
2.71448e-09
1.27701e-06
1.30846e-05
1.51844e-05
1.52305e-05
1.51264e-05
2.24676e-07
5.64494e-10
7.15834e-10
8.19674e-10
9.3413e-10
1.10037e-09
3.23489e-09
7.9683e-09
1.29418e-08
2.30002e-08
2.86918e-08
2.28138e-08
3.04656e-09
5.15834e-07
6.06353e-06
1.27119e-05
1.34148e-05
1.40703e-05
1.43437e-05
1.25191e-05
3.29305e-10
4.00396e-10
4.73502e-10
5.61564e-10
7.24184e-10
1.5231e-09
4.34097e-09
6.9805e-09
1.05804e-08
1.94092e-08
1.95831e-08
4.91866e-08
1.49244e-06
3.38285e-06
1.02361e-06
1.11645e-06
1.57118e-06
3.42301e-06
1.77299e-05
1.91784e-10
2.31679e-10
2.81238e-10
3.64925e-10
5.24989e-10
8.78703e-10
1.40248e-09
1.88659e-09
2.97422e-09
8.48386e-09
1.74267e-08
1.20846e-07
4.31307e-07
2.15169e-08
1.01269e-08
9.99036e-09
1.02369e-08
9.80577e-07
1.77299e-05
1.07967e-10
1.28812e-10
1.55616e-10
2.14142e-10
3.54082e-10
5.13771e-10
7.56748e-10
1.10789e-09
2.1505e-09
4.50662e-09
1.12974e-08
3.19869e-08
1.24726e-08
1.45518e-08
1.99294e-08
1.25626e-08
1.07468e-08
6.05616e-07
1.74519e-05
5.84336e-11
7.19334e-11
8.9354e-11
1.21635e-10
2.10777e-10
3.31905e-10
4.58358e-10
6.69056e-10
1.16726e-09
2.33328e-09
4.23731e-09
7.74431e-09
1.27322e-08
3.02585e-08
3.68395e-08
3.382e-08
1.72856e-08
2.04204e-07
2.42731e-06
2.94639e-11
3.8373e-11
5.04785e-11
7.22789e-11
1.16459e-10
1.84131e-10
2.64631e-10
3.90762e-10
6.5101e-10
1.27354e-09
2.35411e-09
3.96667e-09
9.55757e-09
2.3288e-08
3.694e-08
2.58644e-08
1.64924e-08
7.97107e-08
1.8119e-08
1.41411e-11
1.88955e-11
2.56397e-11
3.71709e-11
5.88882e-11
9.19424e-11
1.36159e-10
2.00857e-10
3.3865e-10
6.6127e-10
1.24239e-09
2.15835e-09
4.05792e-09
5.66656e-09
8.3436e-09
1.03493e-08
7.34187e-09
9.93257e-09
1.45712e-08
6.11016e-12
8.68796e-12
1.19092e-11
1.72336e-11
2.7074e-11
4.22835e-11
6.25561e-11
9.27313e-11
1.56141e-10
2.95644e-10
5.71006e-10
9.63894e-10
1.20389e-09
9.38225e-10
1.16247e-10
3.42508e-10
1.86818e-09
1.97402e-09
1.47327e-08
2.54817e-12
3.67672e-12
5.12079e-12
7.41974e-12
1.14542e-11
1.76801e-11
2.62132e-11
3.90907e-11
6.59707e-11
1.28466e-10
2.4443e-10
4.22861e-10
5.23328e-10
2.9455e-10
1.08975e-10
1.03674e-10
2.27734e-10
5.3582e-10
5.32116e-09
9.53608e-13
1.47088e-12
2.05269e-12
2.9856e-12
4.48783e-12
6.81838e-12
9.9831e-12
1.48388e-11
2.47831e-11
4.85106e-11
1.0097e-10
1.85472e-10
2.44703e-10
1.44902e-10
7.17287e-11
7.57147e-11
1.09977e-10
9.40223e-11
4.38663e-10
3.43608e-13
5.49748e-13
7.79521e-13
1.13007e-12
1.64143e-12
2.46914e-12
3.52687e-12
5.05888e-12
7.91903e-12
1.4101e-11
2.53022e-11
3.39589e-11
5.62608e-11
7.10526e-11
4.03563e-11
3.57076e-11
3.25831e-11
2.37666e-11
4.41311e-12
1.09437e-13
1.9011e-13
2.77923e-13
4.03564e-13
5.72651e-13
8.08484e-13
1.13351e-12
1.54843e-12
2.21108e-12
3.28552e-12
2.16615e-12
1.59282e-12
5.14438e-12
1.5401e-11
2.03619e-11
1.36069e-11
7.96052e-12
5.53932e-12
1.27944e-12
3.48958e-14
6.10985e-14
9.29133e-14
1.3476e-13
1.88928e-13
2.62053e-13
3.55215e-13
4.60119e-13
6.04968e-13
8.04776e-13
6.24769e-13
1.13476e-13
3.69926e-13
4.55243e-12
6.08403e-12
6.70147e-12
3.79592e-12
2.0981e-12
9.50879e-13
8.83676e-15
1.7034e-14
2.6494e-14
3.94148e-14
5.53603e-14
7.41957e-14
9.97229e-14
1.28763e-13
1.59234e-13
1.95773e-13
1.61981e-13
4.4202e-14
4.3671e-14
3.44887e-13
1.17342e-12
2.65503e-12
2.42066e-12
1.46479e-12
7.34502e-13
2.23484e-15
4.45646e-15
7.31864e-15
1.11625e-14
1.5808e-14
2.09443e-14
2.68799e-14
3.27827e-14
4.09062e-14
4.88706e-14
4.39314e-14
2.38658e-14
3.17959e-14
8.93322e-14
3.40798e-13
7.67185e-13
1.28545e-12
1.05565e-12
6.16554e-13
4.76481e-16
1.02777e-15
1.83177e-15
2.98561e-15
4.28576e-15
5.63325e-15
6.89527e-15
8.50684e-15
1.03255e-14
1.29793e-14
1.50702e-14
1.57829e-14
2.64204e-14
6.1682e-14
1.67323e-13
3.89228e-13
6.27804e-13
7.87918e-13
5.02116e-13
9.99329e-17
2.38848e-16
4.44621e-16
7.12042e-16
1.03979e-15
1.43744e-15
1.77826e-15
2.2254e-15
2.88981e-15
4.2116e-15
6.42964e-15
1.06905e-14
2.09216e-14
4.79702e-14
1.23753e-13
2.71891e-13
4.50423e-13
5.45928e-13
4.41813e-13
1.91156e-17
4.57211e-17
9.36894e-17
1.63745e-16
2.44178e-16
3.24969e-16
4.15533e-16
5.61054e-16
8.8617e-16
1.62803e-15
3.31155e-15
7.02782e-15
1.50619e-14
3.41249e-14
8.65344e-14
2.15785e-13
3.63296e-13
4.69926e-13
3.22528e-13
3.19059e-18
8.53774e-18
1.84127e-17
3.19661e-17
5.11526e-17
7.27099e-17
9.90811e-17
1.42382e-16
2.80998e-16
6.63032e-16
1.67259e-15
4.0944e-15
9.80013e-15
2.1464e-14
5.17966e-14
1.40476e-13
2.89216e-13
3.57075e-13
2.38214e-13
4.65903e-19
1.39636e-18
3.20275e-18
6.00046e-18
9.75659e-18
1.44883e-17
2.24181e-17
4.03367e-17
9.89376e-17
2.86662e-16
8.40241e-16
2.29869e-15
6.00627e-15
1.40682e-14
3.10439e-14
7.57489e-14
1.61278e-13
2.5008e-13
1.57893e-13
6.25004e-20
1.78437e-19
4.41552e-19
8.78683e-19
1.59652e-18
2.59419e-18
4.55026e-18
9.93273e-18
3.00907e-17
1.02383e-16
3.37372e-16
1.04445e-15
2.89271e-15
7.36199e-15
1.72923e-14
3.66768e-14
9.52002e-14
1.38044e-13
8.25732e-14
7.36731e-21
2.44686e-20
5.93509e-20
1.27596e-19
2.32181e-19
3.84634e-19
7.75113e-19
2.0353e-18
8.04252e-18
3.24736e-17
1.25464e-16
4.62144e-16
1.37169e-15
3.74152e-15
8.92652e-15
1.96296e-14
4.14109e-14
6.41578e-14
4.47531e-14
7.67291e-22
2.82897e-21
7.79274e-21
1.7784e-20
3.64656e-20
7.12909e-20
1.57281e-19
5.02954e-19
2.11127e-18
9.79302e-18
4.26784e-17
1.5458e-16
5.31699e-16
1.51671e-15
3.92053e-15
8.96982e-15
1.67148e-14
2.72519e-14
2.30584e-14
)
;

boundaryField
{
    leftWall
    {
        type            zeroGradient;
    }
    rightWall
    {
        type            zeroGradient;
    }
    lowerWall
    {
        type            zeroGradient;
    }
    atmosphere
    {
        type            inletOutlet;
        inletValue      uniform 0;
        value           nonuniform List<scalar> 
46
(
0
0
0
0
0
0
0
0
0
0
0
0
0
0
0
0
0
0
0
0
0
0
2.02321e-17
3.01904e-18
2.51594e-19
1.57063e-20
5.02381e-22
7.67291e-22
2.82897e-21
7.79274e-21
1.7784e-20
3.64656e-20
7.12909e-20
1.57281e-19
5.02954e-19
2.11127e-18
9.79302e-18
4.26784e-17
1.5458e-16
5.31699e-16
1.51671e-15
3.92053e-15
8.96982e-15
1.67148e-14
2.72519e-14
2.30584e-14
)
;
    }
    defaultFaces
    {
        type            empty;
    }
}


// ************************************************************************* //
