/*--------------------------------*- C++ -*----------------------------------*\
| =========                 |                                                 |
| \\      /  F ield         | OpenFOAM: The Open Source CFD Toolbox           |
|  \\    /   O peration     | Version:  2312                                  |
|   \\  /    A nd           | Website:  www.openfoam.com                      |
|    \\/     M anipulation  |                                                 |
\*---------------------------------------------------------------------------*/
FoamFile
{
    version     2.0;
    format      ascii;
    arch        "LSB;label=32;scalar=64";
    class       volScalarField;
    location    "2.8";
    object      alphas;
}
// * * * * * * * * * * * * * * * * * * * * * * * * * * * * * * * * * * * * * //

dimensions      [0 0 0 0 0 0 0];

internalField   nonuniform List<scalar> 
2268
(
2
2
2
2
2
2
2
2
2
2
2
2
2
2
2
2
2
2
2
2
1.99999
1.99995
1.99995
2
2
2
2
2
2
2
2
2
2
2
2
2
2
2
2
2
2
2
2
2
1.99998
1.99995
2
2
2
2
2
2
2
2
2
2
2
2
2
2
2
2
2
2
2
2
2
2
2.00001
2.00002
1.99976
2
1.99984
1.99988
1.99999
2
2
2
2
2
2
2
2
2
2
2
2
2
2
2
2
2.00001
1.9014
1.92659
1.94217
1.95533
1.97565
2
1.99985
1.99982
1.99991
1.99999
2
2
2
2
2
2
2
2
2
2
2
2
2
0.620324
0.630492
0.651911
0.681074
0.746826
0.874296
1.07904
1.30619
1.52676
1.71073
1.85042
1.94507
1.9973
2
2
2
2
1.99991
1.99758
1.99511
1.99151
1.98186
1.97776
0.00698836
0.00790935
0.00654986
0.00506407
0.0013829
0.00149835
0.0102884
0.0501805
0.142837
0.284533
0.473943
0.71876
0.980601
1.151
1.23559
1.29088
1.34452
1.34818
1.29654
1.22259
1.07805
0.881438
0.834065
0.00495335
0.00523626
0.00341765
0.00125329
0.00117023
0.00133214
0.00126314
0.00128102
0.00131073
0.00120911
0.00115432
0.00142307
0.0107912
0.0399236
0.100738
0.143986
0.128886
0.0713473
0.0630312
0.04201
0.0443996
0.0439057
0.0646356
1.90767
1.90777
1.90811
1.91614
1.95088
1.95595
1.95548
1.95086
1.94219
1.93978
1.9385
1.94152
1.94112
1.94166
1.94385
1.95157
1.95257
1.95346
1.95445
1.84939
1.90615
1.90865
1.90317
1.90414
1.90451
1.88859
1.91741
1.94556
1.94226
1.93916
1.94904
1.94843
1.941
1.93621
1.93038
1.89588
1.91895
1.85447
0.884019
1.05352
1.15105
1.1852
1.24902
1.3566
1.45034
1.5003
1.57621
1.6349
1.64722
1.63556
1.60233
1.52929
1.53875
1.50728
1.6003
1.58106
1.49115
0.434737
0.386391
0.379722
0.44696
0.459152
0.626826
0.777698
0.618588
0.651022
1.09875
1.16561
0.996256
0.877168
0.83679
0.776284
0.727486
1.19172
1.45455
1.46054
0.45842
0.269423
0.11724
0.274886
0.218786
0.483858
0.477671
0.0753265
0.0647417
0.297579
0.567886
0.560196
0.580383
0.681064
0.593834
0.272029
0.309276
0.720933
0.854934
0.449502
0.0810752
0.00428254
0.016635
0.0125794
0.146481
0.547997
0.0655811
0.0605276
0.06387
0.504669
0.564755
0.579013
0.474502
0.29936
0.279687
0.241372
0.201556
0.426689
0.281524
0.109889
0.00370374
0.000843403
0.000838052
0.0385619
0.562591
0.0657902
0.0593026
0.32835
0.57532
0.572019
0.596265
0.270992
0.222361
0.223417
0.246629
0.265491
0.344087
0.255692
0.10591
0.0262225
0.0122282
0.000842463
0.0170516
0.553876
0.0581978
0.0773594
0.183841
0.287475
0.262423
0.366317
0.362858
0.224048
0.232765
0.347316
0.351665
0.663387
0.00378534
0.00242697
0.00144502
0.00143764
0.00158556
0.00153541
0.00151787
0.0015155
0.00151278
0.00149536
0.0013846
0.00125281
0.0103401
0.0837078
0.154523
0.240887
0.21101
0.0350116
0.0397687
0.0352688
0.025001
0.0288283
0.0501569
0.00229928
0.00242768
0.0087784
0.020367
0.0206262
0.0263271
0.0310789
0.033394
0.0432593
0.0806512
0.164574
0.169044
0.154883
0.26603
0.376841
0.312357
0.135227
0.142905
0.156403
0.168933
0.1978
0.216869
0.220561
0.00262177
0.0024787
0.00324842
0.00693264
0.0196934
0.115491
0.335522
0.405562
0.519739
0.720287
0.84358
0.841994
0.773424
0.743874
0.689859
0.588784
0.671226
0.779154
0.847358
0.910614
0.961868
1.00969
1.04853
0.323329
0.296487
0.249933
0.256056
0.220873
0.242259
0.654719
0.98612
1.04164
1.03513
1.02232
1.02707
1.02447
1.01994
1.01824
1.02816
1.02233
1.01288
1.01369
1.04928
1.13423
1.16395
1.16418
1.13601
1.10113
1.0743
1.05489
1.06939
1.34496
0.973713
0.922972
1.00175
1.0014
1.00138
1.00138
1.00137
1.00114
1.00064
1.00029
1.00029
1.00039
1.00051
1.00074
1.00104
1.00115
1.00519
1.13633
1.1403
1.14937
1.14901
1.16
1.64198
1.71555
1.61836
1.24354
1.0015
1.00134
1.00615
1.0223
1.01003
1.00133
1.00067
0.99477
0.992922
0.994941
0.999483
1.00092
1.00239
1.00247
1.7994
1.96403
2.18055
2.24929
2.04628
1.89506
1.78566
1.52909
1.4211
1.44429
1.45739
1.4209
1.3713
1.55067
1.98173
1.97119
1.66386
1.38776
1.31127
1.2487
1.24585
1.27357
1.27392
2.65608
2.91942
2.98199
2.98522
2.99226
2.88551
2.81685
2.83763
2.87445
2.91113
2.95361
2.95302
2.90508
2.71884
2.55464
2.60753
2.74719
2.80506
2.76143
2.652
2.59083
2.64355
2.69056
2.93415
2.95695
2.98574
2.99838
3
3
2.99999
2.99988
2.99864
2.99816
2.99913
2.99988
2.99992
2.99743
2.96688
2.95287
2.94814
2.96587
2.96962
2.97287
2.93726
2.93733
2.98181
2.98684
2.99739
2.99988
2.99999
3
3
2.99999
2.99997
2.99992
2.99974
2.99863
2.9986
2.99916
2.99999
3
3
2.99226
2.98176
2.98164
2.99243
2.99609
2.95661
2.96469
2.99124
2.99965
2.99968
2.99988
3
3
3
3
2.99998
2.99984
2.99898
2.9986
2.99873
2.99964
3
3
3
2.99968
2.99892
2.99899
2.99948
2.99903
2.99426
2.98896
2.99643
2.99965
2.99972
2.99998
3
2.99996
2.99992
2.99997
2.99999
2.99999
2.99994
2.99996
2.99997
2.99999
2.99999
3
3
3
3
3
2.99999
2.99998
2.9921
2.99399
2.99942
2.99999
2.99999
2.99996
2.99978
2.99979
2.9999
2.99999
2.99999
2.99998
2.99991
2.99988
2.99993
3
3
3
3
3
2.99997
2.99995
2.99995
2.99998
2.99998
2.99978
2.99986
2.99989
2.99976
2.99976
2.9998
2.99995
2.99999
2.99998
2.99988
2.99987
2.99988
2.99996
3
3
3
2.99982
2.9997
2.9997
2.99988
2.99997
2.99998
2.99998
2.99998
2.99979
2.99979
2.99982
2.99989
2.99999
2.99999
2.99998
2.99988
2.99988
2.99989
2.9999
2.99988
2.99964
2.99963
2.99967
2.99993
2.99991
2.99989
2.99992
2.99997
2.99999
2.99999
2.99998
2.99999
2.99996
3
3
2.99999
2.99998
2.99991
2.99988
2.99999
2.99993
2.99957
2.99953
2.99953
2.99984
3
2.99998
2.99992
2.99992
2.99995
3
3
3
3
3
3
3
2.99999
2.99996
2.99992
2.99991
2.99999
3
2.99995
2.99972
2.99972
2.99994
3
3
2.99998
2.99995
2.99997
3
3
3
3
3
3
3
2.99999
2.99997
2.99992
2.99992
2.99996
3
3
2.99999
2.99999
2.99999
3
3
3
3
3
3
3
3
3
3
3
3
3
2.99999
2.99997
2.99993
2.99995
3
3
3
3
3
3
3
3
3
3
3
3
3
3
3
3
3
3
3
3
3
3
3
3
3
3
3
3
3
3
3
3
3
3
3
3
3
3
3
3
3
3
3
3
3
3
3
3
3
3
3
3
3
3
3
3
3
3
3
3
3
3
3
3
3
3
3
3
3
3
3
3
3
3
3
3
3
3
3
3
3
3
3
3
3
3
3
3
3
3
3
3
3
3
3
3
3
3
3
3
3
3
3
3
3
3
3
3
3
3
3
3
3
3
3
3
3
3
3
3
3
3
3
3
3
3
3
3
3
3
3
3
3
3
3
3
3
3
3
3
3
3
3
3
3
3
3
3
3
3
3
3
3
3
3
3
3
3
3
3
3
3
3
3
3
3
3
3
3
3
3
3
3
3
3
3
3
3
3
3
3
3
3
3
3
3
3
3
3
3
3
3
3
3
3
3
3
3
3
3
3
3
3
3
3
3
3
3
3
3
3
3
3
3
3
3
3
3
3
3
3
3
3
3
3
3
3
3
3
3
3
3
3
3
3
3
3
3
3
3
3
3
3
3
3
3
3
3
3
3
3
3
3
3
3
3
3
3
3
3
3
3
3
3
3
3
3
3
3
3
3
3
3
3
3
3
3
3
3
3
3
3
3
3
3
3
3
3
3
3
3
3
3
3
3
3
3
3
3
3
3
3
3
3
3
3
3
3
3
3
3
3
3
3
3
3
3
3
3
3
3
3
3
3
3
3
3
3
3
3
3
3
3
3
3
3
3
3
3
3
3
3
3
3
3
3
3
3
3
3
3
3
3
3
3
3
3
3
3
3
3
3
3
3
3
3
3
3
3
3
3
3
3
3
3
3
3
3
3
3
3
3
3
3
3
3
3
3
3
3
3
3
3
3
3
3
3
3
3
3
3
3
3
3
3
3
3
3
3
3
3
3
3
3
3
3
3
3
3
3
3
3
3
3
3
3
3
3
3
3
3
3
3
3
3
3
3
3
3
3
3
3
3
3
3
3
3
3
3
3
3
3
3
3
3
3
3
3
3
3
3
3
3
3
3
3
3
3
3
3
3
3
3
3
3
3
3
3
3
3
3
3
3
3
3
3
3
3
3
3
3
3
3
3
3
3
3
3
3
3
3
3
3
3
3
3
3
3
3
3
3
3
3
3
3
3
3
3
3
3
3
3
3
3
3
3
3
3
3
3
3
3
3
3
3
3
3
3
3
3
3
3
3
0.157917
0.211224
0.295253
0.442565
0.250513
0.304737
0.43727
0.54078
1.00801
0.973991
0.975861
1.02637
1.16424
1.11912
1.00683
1.00236
1.00475
1.00251
1.00222
1.00227
1.00214
1.00157
1.00127
1.00096
1.25133
1.20777
1.14958
1.10497
2.67575
2.62249
2.55756
2.57149
2.99806
2.9989
2.99891
2.99754
2.99286
2.99999
3
3
2.99406
2.99799
3
3
2.99976
2.99948
2.99978
2.99996
2.99995
2.99986
2.99982
2.99983
2.99997
2.99997
2.99997
2.99997
3
2.99996
2.99991
2.99991
3
2.99999
2.99999
3
3
3
3
3
3
3
3
3
3
3
3
3
3
3
3
3
3
3
3
3
3
3
3
3
3
3
3
3
3
3
3
3
3
3
3
3
3
3
3
3
3
3
3
3
3
3
3
3
3
3
3
3
3
3
3
3
3
3
3
3
3
3
3
3
3
3
3
3
3
3
3
3
3
3
3
3
3
3
3
3
3
3
3
3
3
3
3
3
3
3
3
3
3
3
3
3
3
3
3
3
3
3
3
3
0.362348
0.0776115
0.0339438
0.0602736
0.000842736
0.00272406
0.109661
0.0253128
0.0819307
0.0759735
0.0771118
0.270086
0.614227
0.671593
0.287777
0.230025
0.441581
0.60525
0.724355
0.376359
0.0665354
0.0441135
0.268576
0.265016
0.0217214
0.0212871
0.0225665
0.0833411
0.130935
0.134735
0.270262
0.758902
0.617314
0.151592
0.15382
0.251474
0.313718
0.721684
1.04844
0.786328
0.536373
0.686676
0.548137
0.322562
0.165327
0.114126
0.221991
0.322887
0.435086
0.554886
0.762015
0.859872
0.461168
0.517944
0.514073
0.475106
0.439022
1.08542
1.07022
1.00823
0.967481
1.04727
0.980206
0.69576
0.767261
1.05621
1.03177
0.770045
0.555668
0.827973
0.909663
0.885587
0.767362
0.785032
0.814373
0.389589
1.08315
1.10688
1.08447
1.00881
1.00894
1.02013
1.01834
1.00959
1.03326
1.19851
1.12666
1.0358
1.15177
0.949668
0.922313
0.756038
0.771424
0.880029
0.797002
1.01653
1.0424
1.01861
1.00829
1.04074
1.04119
1.0292
1.00507
1.00354
1.10582
1.16237
1.1187
1.05095
1.08726
1.19788
0.822758
0.661814
0.848534
1.13337
1.04559
1.00444
1.00239
1.0024
1.00255
1.03228
1.03949
1.0344
1.0037
1.02216
1.10756
1.05808
1.01853
1.01683
1.04476
1.10679
0.926134
0.854354
1.12946
2.44707
1.8517
1.27664
1.07054
1.00065
1.0011
1.00224
1.00333
1.0037
1.00374
1.01812
1.05896
1.03046
1.01872
1.01849
1.02665
1.03715
0.874781
1.05765
2.99376
2.99487
2.94743
2.7227
2.31324
2.09629
2.04296
1.80291
1.28189
1.01016
1.00785
1.01577
1.31342
1.25889
1.02236
1.01862
1.018
0.954829
1.02396
3
2.99999
2.99974
2.99944
2.99373
2.99075
2.99305
2.99252
2.98762
2.9151
2.18734
1.39729
1.7315
2.47014
1.95332
1.04013
1.01712
1.0009
1.11366
3
2.99999
2.99998
2.99998
2.99991
2.99989
2.99997
2.99998
2.99975
2.99941
2.99901
2.92234
2.88074
2.96466
2.88366
1.60996
1.19087
1.09706
1.15939
2.99993
2.99993
2.99993
2.99997
2.99998
2.99998
2.99995
2.99993
2.99992
2.99994
2.99577
2.99206
2.99286
2.9971
2.99784
2.75243
2.56844
1.49431
1.17449
2.99989
2.99994
2.99994
2.99977
2.99945
2.99936
2.99909
2.99919
2.9993
2.99946
2.99966
2.99991
2.99995
2.99996
2.99998
2.99837
2.98864
2.46205
1.65113
2.99975
2.99935
2.99931
2.99933
2.99926
2.99925
2.9992
2.99927
2.9994
2.99954
2.99981
2.99986
2.99988
2.9999
2.99997
2.99997
2.99821
2.99911
2.88107
2.99992
3
2.99999
2.99985
2.99966
2.99941
2.9993
2.9993
2.99931
2.99957
2.99987
2.99979
2.9998
2.9999
2.99994
2.99994
2.99997
3
3
3
3
3
3
3
2.99994
2.99967
2.9995
2.99972
2.99989
2.99988
2.9998
2.99988
2.99997
2.99997
2.99995
2.99999
3
3
3
3
3
3
3
3
3
2.99999
3
3
2.99998
2.99997
2.99997
2.99992
2.99997
2.99999
3
3
3
3
3
3
3
3
3
3
3
3
3
3
3
2.99999
2.99984
2.9996
2.99964
2.99963
2.99987
2.99999
3
3
3
3
3
3
3
3
3
3
3
3
3
2.99994
2.99966
2.99941
2.99941
2.99941
2.99999
3
3
3
3
3
3
3
3
3
3
3
3
3
2.99998
2.99995
2.99986
2.99962
2.99941
2.99996
3
3
3
3
3
3
3
3
3
3
3
3
3
2.99999
3
3
2.99998
2.99952
2.99956
3
3
3
3
3
3
3
3
3
3
3
3
3
3
3
3
3
2.99992
2.9995
3
3
3
3
3
3
3
3
3
3
3
3
3
3
3
3
3
2.99999
2.99951
3
3
3
3
3
3
3
3
3
3
3
3
3
3
3
3
3
3
2.99993
3
3
3
3
3
3
3
3
3
3
3
3
3
3
3
3
3
3
3
3
3
3
3
3
3
3
3
3
3
3
3
3
3
3
3
3
3
3
3
3
3
3
3
3
3
3
3
3
3
3
3
3
3
3
3
3
3
3
3
3
3
3
3
3
3
3
3
3
3
3
3
3
2.99999
2.99999
2.99999
2.99999
3
3
3
3
3
3
3
3
3
3
3
3
3
3
3
2.99999
2.99998
2.99998
2.99998
3
3
3
3
3
3
3
3
3
3
3
3
3
3
3
3
2.99998
2.99998
3
3
3
3
3
3
3
3
3
3
3
3
3
3
3
3
3
3
2.99999
3
3
3
3
3
3
3
3
3
3
3
3
3
3
3
3
3
3
3
3
3
3
3
3
3
3
3
3
3
3
3
3
3
3
3
3
3
3
3
3
3
3
3
3
3
3
3
3
3
3
3
3
3
3
3
3
3
3
3
3
3
3
3
3
3
3
3
3
3
3
3
3
3
3
3
3
3
3
3
3
3
3
3
3
3
3
3
3
3
3
3
3
3
3
3
3
3
3
3
3
3
3
3
3
3
3
3
3
3
3
3
3
3
3
3
3
3
3
3
3
3
3
3
3
3
3
3
3
3
3
3
3
3
3
3
3
3
3
3
3
3
3
3
3
3
3
3
3
3
3
3
3
3
3
3
3
3
3
3
3
3
3
3
3
3
3
3
3
3
3
3
3
3
3
3
3
3
3
3
3
3
3
3
3
3
3
3
3
3
3
3
3
3
3
3
3
3
3
3
3
3
3
3
3
3
3
3
3
3
3
)
;

boundaryField
{
    leftWall
    {
        type            calculated;
        value           nonuniform List<scalar> 
50
(
2
2
2
2.00002
1.9014
0.620324
0.00698836
0.00495335
0.00378534
0.00229928
0.00262177
0.323329
1.13601
1.13633
1.7994
2.65608
2.93415
2.98684
2.99124
2.98896
2.9921
2.99998
2.99998
2.99999
3
3
3
3
3
3
3
3
3
3
3
3
3
3
3
3
3
3
3
3
3
3
3
3
3
3
)
;
    }
    rightWall
    {
        type            calculated;
        value           nonuniform List<scalar> 
50
(
1.95445
1.85447
1.49115
1.46054
0.854934
0.426689
0.344087
0.663387
0.724355
0.721684
0.439022
0.389589
0.797002
1.13337
1.12946
1.05765
1.02396
1.11366
1.15939
1.17449
1.65113
2.88107
3
3
3
2.99999
2.99999
2.99996
2.99956
2.9995
2.99951
2.99993
3
3
3
2.99999
2.99998
3
3
3
3
3
3
3
3
3
3
3
3
3
)
;
    }
    lowerWall
    {
        type            calculated;
        value           nonuniform List<scalar> 
62
(
2
2
2
2
2
2
2
2
2
2
2
2
2
2
2
2
2
2
2
2
1.99999
1.99995
1.99995
1.99995
1.99995
2.00001
2.00001
2
1.97776
0.834065
0.0646356
0.157917
0.211224
0.295253
0.442565
1.90767
1.84939
0.884019
0.434737
0.45842
0.449502
0.281524
0.255692
1.90767
1.90777
1.90811
1.91614
1.95088
1.95595
1.95548
1.95086
1.94219
1.93978
1.9385
1.94152
1.94112
1.94166
1.94385
1.95157
1.95257
1.95346
1.95445
)
;
    }
    atmosphere
    {
        type            calculated;
        value           nonuniform List<scalar> 
46
(
3
3
3
3
3
3
3
3
3
3
3
3
3
3
3
3
3
3
3
3
3
3
3
3
3
3
3
3
3
3
3
3
3
3
3
3
3
3
3
3
3
3
3
3
3
3
)
;
    }
    defaultFaces
    {
        type            empty;
    }
}


// ************************************************************************* //
