/*--------------------------------*- C++ -*----------------------------------*\
| =========                 |                                                 |
| \\      /  F ield         | OpenFOAM: The Open Source CFD Toolbox           |
|  \\    /   O peration     | Version:  2312                                  |
|   \\  /    A nd           | Website:  www.openfoam.com                      |
|    \\/     M anipulation  |                                                 |
\*---------------------------------------------------------------------------*/
FoamFile
{
    version     2.0;
    format      ascii;
    arch        "LSB;label=32;scalar=64";
    class       volScalarField;
    location    "5";
    object      alpha.water_0;
}
// * * * * * * * * * * * * * * * * * * * * * * * * * * * * * * * * * * * * * //

dimensions      [0 0 0 0 0 0 0];

internalField   nonuniform List<scalar> 
2268
(
3.25914e-07
3.24798e-07
2.74643e-07
5.62401e-08
2.37339e-09
1.02065e-09
8.56993e-10
4.81135e-10
2.28528e-10
1.38415e-10
1.02848e-10
8.57025e-11
7.88948e-11
7.88665e-11
8.46031e-11
9.86043e-11
1.28372e-10
1.76483e-10
2.55411e-10
4.76612e-10
9.6541e-10
1.34083e-09
1.41313e-09
2.31141e-07
1.77116e-07
7.2807e-08
1.74802e-08
4.52723e-10
4.52755e-10
3.2447e-10
3.21983e-10
3.09985e-10
2.58583e-10
2.32547e-10
2.04645e-10
1.85003e-10
1.69533e-10
1.50194e-10
1.50334e-10
2.31184e-10
3.56143e-10
5.17183e-10
7.76138e-10
1.16754e-09
1.34098e-09
1.32875e-09
3.36585e-08
1.91342e-08
8.16374e-09
4.54078e-09
5.34392e-09
7.6021e-09
7.52724e-09
3.3929e-09
8.52695e-10
6.54279e-10
6.48673e-10
7.16071e-10
8.78278e-10
9.32991e-10
8.20507e-10
6.83665e-10
5.64956e-10
6.25141e-10
7.07839e-10
8.79066e-10
9.85293e-10
1.00838e-09
8.94973e-10
3.20567e-09
2.16319e-09
8.63419e-10
4.49928e-10
1.3982e-09
2.11955e-09
1.9061e-09
1.27238e-09
5.5541e-10
5.14091e-10
6.76648e-10
1.46866e-09
2.60116e-09
2.93013e-09
2.78688e-09
1.66342e-09
6.65845e-10
7.7252e-10
4.80056e-10
4.83219e-10
5.1437e-10
5.75351e-10
6.94592e-10
1.53502e-19
5.42637e-20
3.47318e-21
6.73122e-28
-1.01449e-27
7.5686e-28
-7.36236e-28
7.95685e-28
-1.75182e-13
-1.70873e-13
3.4613e-30
6.00732e-22
-1.43377e-22
-6.57874e-22
-6.48055e-21
-2.59693e-21
-3.89418e-13
-9.07734e-15
-6.33843e-18
-6.77026e-21
4.83219e-10
4.83218e-10
4.8322e-10
0.363537
0.352988
0.327404
0.291506
0.246691
0.194958
0.137517
0.0832286
0.0422936
0.0187813
0.00906944
0.00410643
0.0036453
0.00905679
0.0184906
0.0294667
0.0344221
0.0318594
0.0442857
0.0664033
0.0888248
0.11279
0.161629
0.974858
0.972311
0.964812
0.951998
0.933311
0.905304
0.86144
0.798655
0.721792
0.642887
0.579353
0.547256
0.547309
0.580023
0.634004
0.673981
0.663568
0.646021
0.684618
0.732993
0.76473
0.784435
0.836796
0.999739
0.999744
0.999735
0.99962
0.999468
0.999165
0.999118
0.999414
0.999683
0.99975
0.999503
0.999574
0.999648
0.999702
0.999751
0.999751
0.978392
0.933351
0.940108
0.979841
0.977916
0.946157
0.946372
0.0132165
0.00784183
0.00391615
0.00303619
0.00591459
0.0074826
0.00968322
0.00983673
0.0094519
0.00946003
0.00946731
0.00891602
0.00628236
0.00548016
0.00435444
0.00423009
0.00365153
0.00360435
0.00369075
0.0112555
0.000893384
0.000888114
0.000895037
0.00088659
0.00089251
0.000883329
0.000888967
0.000880066
0.000887085
0.000881585
0.00102782
0.000627835
0.000152798
9.52623e-06
9.42206e-06
3.79457e-05
5.25653e-05
4.37934e-05
0.193875
0.185931
0.159565
0.17192
0.172525
0.131743
0.0873924
0.0752605
0.0751449
0.0806226
0.0724973
0.0340663
0.00441261
0.000150694
0.0093116
0.007361
3.64886e-05
0.0196274
0.028127
0.734547
0.852664
0.788752
0.774973
0.817877
0.815666
0.791341
0.771805
0.752242
0.788975
0.794069
0.740091
0.526001
0.244711
0.159947
0.155699
0.402766
0.68486
0.483505
0.809795
0.990383
0.980804
0.980289
0.988347
0.965005
0.970643
0.975637
0.975648
0.97456
0.945853
0.975432
0.975673
0.894539
0.46506
0.731603
0.863242
0.868664
0.591306
0.922321
0.990232
0.991235
0.989928
0.989917
0.980496
0.96064
0.975623
0.973043
0.899609
0.883854
0.96806
0.975668
0.930705
0.808607
0.887191
0.879084
0.868662
0.83733
0.97344
0.986634
0.991238
0.983726
0.939738
0.959379
0.963037
0.974368
0.960318
0.828317
0.874277
0.915163
0.971026
0.806425
0.679945
0.906652
0.906962
0.868564
0.874441
0.976246
0.987993
0.991241
0.991254
0.928488
0.913827
0.952721
0.975335
0.975335
0.829542
0.793473
0.894199
0.913384
0.551681
0.551098
0.72536
0.947594
0.878537
0.874535
0.995815
0.999745
0.999744
0.999744
0.999744
0.999744
0.999744
0.999738
0.999746
0.99975
0.99975
0.99975
0.999751
0.999751
0.999751
0.999752
0.999589
0.996344
0.996178
0.996179
0.996178
0.996179
0.993984
0.958524
0.969737
0.966161
0.941648
0.945851
0.966327
0.964948
0.972819
0.985951
0.99591
0.998743
0.998786
0.999486
0.999751
0.999751
0.999751
0.998144
0.993119
0.99122
0.991853
0.99344
0.99001
0.986034
0.261915
0.246932
0.226527
0.190216
0.19178
0.279714
0.448661
0.617153
0.701486
0.788646
0.886787
0.942833
0.970012
0.980482
0.979314
0.975561
0.942618
0.909623
0.840438
0.738869
0.678204
0.704497
0.756924
1.85295e-11
1.93935e-11
-2.11588e-10
-1.52853e-07
0.000166837
6.91751e-05
0.000141363
0.00553215
0.033124
0.0839592
0.185945
0.347361
0.444191
0.43264
0.430548
0.432075
0.395769
0.23078
0.056361
0.00704014
0.021711
0.0616464
0.101216
1.09391e-08
1.63334e-08
4.41354e-05
0.000128908
0.00012072
1.2482e-05
4.58758e-07
2.65127e-18
2.92887e-23
2.98986e-23
-1.12265e-23
-1.40834e-23
-2.34979e-23
-2.48743e-23
-6.8139e-07
-2.92985e-07
-3.73339e-08
1.65092e-22
3.31016e-08
8.78501e-08
-9.20735e-08
-9.84322e-08
-1.29196e-06
1.20315e-08
1.38555e-05
4.46101e-06
4.81786e-06
4.25665e-09
4.1632e-09
2.29277e-06
-1.53159e-12
2.86231e-06
2.21271e-05
3.53975e-05
4.98047e-05
0.000111036
8.31333e-05
1.05431e-05
3.16618e-10
4.61242e-07
2.35072e-05
0.00526784
0.00144127
8.37565e-05
3.81368e-05
0.000216179
4.49211e-06
0.000117207
0.000168736
0.000232329
0.000151327
0.000187433
0.000160655
0.000112557
0.000126425
0.000197019
0.00019944
0.000243148
0.00111796
0.0011513
0.000356851
8.2366e-05
0.000166252
0.000220247
0.0131637
0.017382
0.00183558
0.000161904
0.000881594
4.70951e-05
0.00023118
0.000243479
0.000866803
0.00170302
0.00196398
0.00123253
0.000664961
0.00046145
0.000342266
0.000159425
0.000155616
0.00383913
0.0144828
0.0117817
0.00375931
0.000336309
0.000968336
0.0177503
0.019114
0.00970256
0.000247783
0.00118969
0.000268322
0.000357504
8.63491e-05
0.00198441
0.00553064
0.00553978
0.00553064
0.0046137
0.00338483
0.00268911
0.0017183
0.000338767
0.00202323
0.0141002
0.0168493
0.0168579
0.0138519
0.0102175
0.0190075
0.0191431
0.0191966
0.00487351
0.000157634
0.000357482
0.000357055
6.64476e-05
0.00038465
0.00182363
0.00338448
0.00332562
0.0031357
0.00267494
0.0021648
0.00259637
0.00276466
0.00229735
0.000666241
0.000967086
0.00411197
0.00753258
0.0116312
0.0190239
0.0191966
0.0192227
0.0134075
0.00025508
0.000114269
6.77359e-05
4.46838e-05
3.40253e-07
1.13937e-08
2.03857e-08
4.07572e-08
1.0332e-07
1.43343e-07
7.66042e-08
5.63516e-08
0.000178808
8.9421e-05
6.61668e-05
4.8226e-06
1.35503e-07
1.32994e-07
1.36262e-07
0.0146239
0.0192227
0.0192788
0.0102128
1.08454e-05
7.23238e-08
4.33239e-08
2.84482e-08
1.6208e-08
4.80775e-08
1.13436e-07
2.06687e-07
5.14174e-07
6.90959e-07
3.1603e-07
1.30798e-07
1.34648e-07
2.40058e-07
4.25805e-07
7.00885e-07
8.60219e-07
8.76703e-07
2.13266e-05
0.00266196
0.00804748
0.00589337
0.000677476
1.0028e-06
3.33526e-07
2.04827e-07
8.48906e-08
2.8644e-08
9.01159e-08
1.79397e-07
2.97056e-07
8.66395e-07
9.38402e-07
2.16736e-07
2.38853e-07
3.61894e-07
7.20769e-08
7.20235e-08
7.43567e-07
2.01838e-06
2.85522e-06
6.0394e-07
6.94489e-07
1.34211e-06
2.20344e-06
2.72848e-07
-9.47347e-11
4.88418e-07
3.00342e-07
1.19073e-07
5.69171e-08
1.1001e-07
2.39731e-07
7.0309e-07
1.66389e-06
1.84587e-06
1.47054e-06
9.36426e-07
1.13032e-06
6.73125e-07
1.8552e-06
8.3146e-06
1.00981e-05
7.07117e-06
3.42207e-06
2.1252e-06
2.92432e-06
6.54606e-07
2.15463e-07
1.98574e-06
4.07135e-07
1.82546e-07
5.31503e-08
5.35717e-08
5.8277e-08
1.27699e-07
7.66314e-07
1.72177e-06
1.84588e-06
1.84591e-06
1.56008e-06
8.37329e-07
7.50886e-07
3.70356e-06
1.72192e-05
1.87547e-05
1.6928e-05
1.87177e-05
1.68602e-05
1.94495e-06
7.09209e-06
1.59857e-05
2.11511e-05
2.28865e-07
7.53322e-08
3.24261e-08
3.69698e-08
2.12623e-08
7.82797e-08
2.47955e-07
9.63575e-07
1.59053e-06
8.66809e-07
3.6315e-07
1.21176e-07
5.3057e-08
1.883e-07
7.75851e-06
1.89797e-05
1.89905e-05
1.86064e-05
4.95083e-06
1.02376e-06
4.28685e-06
1.95855e-05
2.15004e-05
4.36454e-08
2.59391e-08
2.44217e-08
2.3835e-08
1.85973e-08
3.17578e-08
5.01805e-08
2.95846e-08
1.57025e-09
2.56856e-09
2.96431e-09
2.94544e-09
1.03408e-08
5.16214e-08
1.42559e-07
2.22597e-06
4.65437e-06
2.92035e-06
4.8763e-08
4.08317e-08
1.06479e-07
3.0507e-06
1.05243e-05
1.471e-08
5.31208e-09
9.38489e-09
1.16262e-08
1.56837e-08
1.32985e-08
1.96488e-09
1.57876e-09
1.71196e-09
3.96226e-09
6.04545e-09
2.56444e-09
4.5414e-09
8.74195e-09
1.97072e-08
4.99955e-08
9.06106e-08
1.74989e-07
1.59639e-08
1.29656e-09
1.35886e-09
5.13043e-08
6.20466e-07
1.03953e-08
4.11932e-09
5.44035e-09
6.189e-09
6.42647e-09
5.59758e-09
4.6556e-09
2.25797e-09
1.45184e-09
1.4453e-09
1.74462e-09
2.27993e-09
3.37174e-09
5.13946e-09
7.64722e-09
1.04758e-08
1.01159e-08
1.38495e-08
8.5168e-09
3.32447e-09
8.40553e-09
9.30233e-08
2.8497e-07
1.45615e-08
2.82493e-09
3.43668e-09
4.18413e-09
4.01663e-09
3.66592e-09
2.88063e-09
2.23456e-09
1.48064e-09
1.149e-09
1.11304e-09
1.2339e-09
1.45917e-09
1.91209e-09
2.69395e-09
3.78853e-09
4.40904e-09
4.76171e-09
4.54966e-09
2.15383e-09
2.16598e-09
1.02876e-07
3.15834e-07
1.49591e-08
1.98219e-09
1.6799e-09
2.20072e-09
2.06475e-09
1.73303e-09
1.40432e-09
1.05762e-09
7.80574e-10
6.17267e-10
5.58569e-10
5.48076e-10
6.43513e-10
7.71302e-10
9.50505e-10
1.21342e-09
1.54977e-09
1.69631e-09
1.57471e-09
1.16157e-09
3.25897e-09
2.56325e-08
1.44691e-07
1.4946e-08
1.41465e-09
9.61077e-10
1.1396e-09
9.6962e-10
7.40652e-10
5.3857e-10
3.94652e-10
2.99557e-10
2.44866e-10
2.21808e-10
2.22919e-10
2.55308e-10
2.9488e-10
3.47495e-10
4.16206e-10
5.0283e-10
5.746e-10
6.03247e-10
6.89943e-10
1.03997e-09
7.83778e-09
3.35656e-08
1.45577e-08
9.21187e-10
5.02475e-10
5.55446e-10
4.53863e-10
3.45375e-10
2.59176e-10
1.98074e-10
1.49826e-10
1.1435e-10
9.34145e-11
8.56407e-11
8.98263e-11
1.02105e-10
1.21708e-10
1.47563e-10
1.81856e-10
2.22721e-10
2.78535e-10
3.63585e-10
5.63668e-10
1.37031e-09
5.98775e-09
1.43584e-08
6.88122e-10
3.51396e-10
3.66802e-10
3.1468e-10
2.62738e-10
2.22783e-10
1.8395e-10
1.37476e-10
9.39432e-11
6.34428e-11
4.56402e-11
3.65507e-11
3.4701e-11
3.85486e-11
4.71501e-11
6.07906e-11
8.33674e-11
1.09896e-10
1.59255e-10
2.55039e-10
5.98657e-10
1.51068e-09
1.42177e-08
4.8293e-10
3.08091e-10
3.17464e-10
3.62024e-10
3.99932e-10
3.89892e-10
2.74153e-10
1.95618e-10
1.25109e-10
7.5207e-11
4.36424e-11
2.62956e-11
1.7682e-11
1.43677e-11
1.5523e-11
2.01758e-11
2.86037e-11
4.16319e-11
6.14595e-11
1.04072e-10
1.8878e-10
5.31726e-10
1.41561e-08
3.36263e-10
3.09238e-10
4.20563e-10
6.1729e-10
7.70886e-10
6.83151e-10
3.76947e-10
2.7326e-10
1.74623e-10
1.00562e-10
5.56717e-11
3.04167e-11
1.63358e-11
9.31621e-12
6.497e-12
7.0547e-12
9.92947e-12
1.5074e-11
2.26165e-11
3.41064e-11
7.35229e-11
1.53378e-10
1.41142e-08
3.02289e-10
3.46218e-10
5.93358e-10
1.07858e-09
2.05578e-09
1.55601e-09
5.04207e-10
3.70962e-10
2.38579e-10
1.32511e-10
7.22149e-11
3.89001e-11
1.96992e-11
9.71575e-12
4.83726e-12
3.07045e-12
3.55846e-12
5.36103e-12
8.39818e-12
1.27726e-11
2.07475e-11
4.70311e-11
1.41822e-08
3.32778e-10
4.81545e-10
1.0974e-09
3.18339e-09
8.98574e-09
4.31266e-09
6.00368e-10
4.5827e-10
3.00309e-10
1.61184e-10
8.6233e-11
4.70403e-11
2.45065e-11
1.16369e-11
5.09088e-12
2.26306e-12
1.51425e-12
1.90545e-12
2.92921e-12
4.73367e-12
8.86181e-12
1.47564e-11
1.45184e-08
3.7996e-10
9.95471e-10
5.4422e-09
1.41289e-08
3.72812e-08
1.17562e-08
6.13397e-10
5.32447e-10
3.67021e-10
1.8173e-10
9.35936e-11
5.17429e-11
2.79359e-11
1.37457e-11
6.06785e-12
2.4475e-12
9.0223e-13
7.29961e-13
1.03511e-12
1.80233e-12
2.71296e-12
5.54398e-12
1.4621e-08
6.70939e-10
4.8802e-09
3.83283e-08
2.09749e-07
2.05319e-07
1.98083e-08
5.68755e-10
6.18712e-10
3.98017e-10
1.81287e-10
9.00757e-11
5.09134e-11
2.89821e-11
1.50497e-11
6.86481e-12
2.68819e-12
9.41802e-13
3.44675e-13
3.39451e-13
5.15839e-13
1.08493e-12
1.67572e-12
1.55073e-08
1.91393e-09
1.89393e-08
2.35548e-07
6.36474e-07
4.38259e-07
7.80663e-09
5.68252e-10
7.18665e-10
3.83112e-10
1.56796e-10
7.51834e-11
4.43749e-11
2.69109e-11
1.50541e-11
7.29991e-12
2.99111e-12
1.05301e-12
2.43818e-13
1.26807e-13
1.88224e-13
2.94321e-13
5.76713e-13
1.62775e-08
1.87429e-09
5.91596e-08
5.78794e-07
7.10422e-07
3.77105e-07
4.92237e-10
8.27721e-10
8.72007e-10
3.32138e-10
1.21874e-10
5.67288e-11
3.46942e-11
2.20171e-11
1.33681e-11
7.02976e-12
3.0801e-12
1.14303e-12
2.49108e-13
5.98215e-14
5.68658e-14
1.15269e-13
1.71767e-13
1.62589e-08
5.28721e-09
2.36856e-07
8.063e-07
6.81664e-07
6.2513e-08
4.89691e-10
1.4157e-09
8.87839e-10
2.60798e-10
8.27027e-11
3.84805e-11
2.45997e-11
1.64884e-11
1.05304e-11
6.04209e-12
2.90117e-12
1.1203e-12
3.21556e-13
5.2058e-14
1.95241e-14
2.76529e-14
5.69938e-14
1.31128e-08
1.31706e-08
4.59998e-07
8.25581e-07
4.84724e-07
8.79205e-10
1.20953e-09
1.55813e-09
6.2598e-10
1.71978e-10
5.6577e-11
2.52718e-11
1.62463e-11
1.08832e-11
7.22068e-12
4.53483e-12
2.4447e-12
1.02934e-12
3.30914e-13
4.9442e-14
6.96739e-15
9.84511e-15
1.49155e-14
1.53557e-08
1.7853e-08
5.75167e-07
8.01521e-07
1.02099e-07
8.80118e-10
1.60204e-09
1.24335e-09
3.21257e-10
1.16619e-10
3.48979e-11
1.55172e-11
9.83736e-12
6.42771e-12
4.28348e-12
2.8894e-12
1.76604e-12
8.5139e-13
3.05758e-13
4.99163e-14
3.5608e-15
2.25771e-15
4.45234e-15
1.67716e-08
4.8191e-08
4.63346e-07
5.52587e-07
9.00915e-10
9.06536e-10
2.36165e-09
9.828e-10
2.7339e-10
7.71393e-11
1.9985e-11
8.88966e-12
5.55227e-12
3.42856e-12
2.19423e-12
1.53083e-12
1.05909e-12
6.07241e-13
2.50721e-13
5.01852e-14
3.25043e-15
8.83285e-16
1.23115e-15
2.93364e-08
6.46165e-08
3.38166e-07
1.39622e-07
1.71453e-08
2.67796e-09
2.83394e-09
1.10829e-09
2.79119e-10
5.04216e-11
1.06563e-11
4.73942e-12
2.92535e-12
1.67491e-12
9.78462e-13
6.59602e-13
4.97595e-13
3.45285e-13
1.73434e-13
4.68431e-14
4.7375e-15
3.29889e-16
3.3054e-16
3.11379e-08
5.20408e-08
3.19389e-07
5.88183e-08
3.93874e-09
5.28138e-09
3.66387e-09
1.24569e-09
3.06044e-10
4.57212e-11
5.63436e-12
2.30038e-12
1.41395e-12
7.59146e-13
3.89764e-13
2.3288e-13
1.75733e-13
1.42422e-13
9.50143e-14
3.53532e-14
4.41107e-15
2.2167e-16
8.32857e-17
3.29409e-08
2.82931e-08
4.86932e-08
4.66767e-09
4.07198e-09
9.69091e-09
4.12641e-09
1.25191e-09
2.70343e-10
3.73863e-11
2.97295e-12
9.38705e-13
6.03625e-13
3.11139e-13
1.39845e-13
6.71637e-14
4.55485e-14
4.09885e-14
3.80687e-14
2.0088e-14
3.70105e-15
1.96089e-16
2.32494e-17
3.86595e-08
1.05105e-08
1.60287e-09
1.60277e-09
1.51212e-08
1.20098e-08
3.84157e-09
9.26647e-10
1.81946e-10
2.13123e-11
1.33065e-12
3.15307e-13
2.07848e-13
1.08011e-13
4.45712e-14
1.71502e-14
8.79443e-15
7.8434e-15
9.70055e-15
8.47222e-15
2.15373e-15
1.7985e-16
9.89396e-18
6.59814e-08
8.27554e-09
1.60485e-09
1.62033e-09
1.94234e-08
9.3734e-09
2.5207e-09
5.1047e-10
6.9306e-11
5.75571e-12
2.575e-13
6.71148e-14
4.93051e-14
2.69769e-14
1.08776e-14
3.49526e-15
1.22627e-15
9.90228e-16
1.64683e-15
2.52743e-15
1.06522e-15
1.35653e-16
1.03732e-17
8.26242e-08
1.45365e-08
6.0489e-09
2.90287e-08
1.67815e-08
3.49555e-09
6.77882e-10
9.34574e-11
7.74446e-12
3.23229e-13
1.05791e-14
6.99388e-15
5.9432e-15
3.57116e-15
1.50797e-15
4.37203e-16
1.11675e-16
7.87875e-17
2.04726e-16
5.5226e-16
4.5423e-16
8.95965e-17
7.62311e-18
0.97818
0.973941
0.971291
0.958871
0.985966
0.985875
0.972335
0.964622
0.758611
0.686137
0.531089
0.368048
0.0886278
0.0439493
0.0109183
3.39315e-19
0.00013043
-3.03664e-07
-7.28291e-09
-3.05593e-23
0.000251956
7.98437e-05
1.42736e-06
8.44911e-07
0.00124446
0.000144992
-1.10534e-08
-5.15558e-09
0.00162969
0.00162968
0.00128393
0.000856782
0.000882785
0.000960118
0.000705239
0.000811705
-3.26762e-10
4.58086e-06
2.34873e-07
5.57757e-05
-6.93505e-21
-3.138e-23
3.71062e-15
-2.82569e-08
-1.71008e-24
-4.21092e-13
2.44007e-06
3.24087e-06
-3.22625e-13
4.01974e-06
1.86808e-05
1.70146e-05
1.21902e-05
2.0607e-05
2.25281e-05
1.21306e-05
2.24017e-05
2.25047e-05
2.2913e-05
2.08838e-05
2.16128e-05
2.00333e-05
2.73878e-05
3.66167e-05
9.18771e-06
9.99873e-06
3.47837e-05
3.74663e-05
8.2445e-07
1.38999e-06
2.32007e-05
3.67712e-05
4.80233e-07
5.68154e-07
3.03979e-06
6.27483e-06
4.12209e-07
4.39997e-07
3.84228e-09
3.82873e-09
2.86447e-07
2.73695e-07
3.30142e-08
3.84099e-09
2.76648e-08
1.07229e-07
2.35788e-08
4.04124e-09
4.37095e-09
7.69371e-09
8.57635e-09
3.45146e-09
1.60735e-09
2.58812e-09
3.59158e-09
4.56347e-09
7.077e-10
8.45528e-10
1.64292e-09
2.52339e-09
2.33207e-10
2.85713e-10
4.48205e-10
8.20511e-10
6.6029e-11
6.39919e-11
1.18791e-10
1.81776e-10
2.03645e-11
2.39885e-11
3.18561e-11
4.75294e-11
7.38074e-12
7.86246e-12
1.15648e-11
1.33343e-11
2.49336e-12
2.97775e-12
3.33237e-12
4.60944e-12
7.33299e-13
8.39615e-13
1.15331e-12
1.28072e-12
2.42516e-13
2.79307e-13
2.98338e-13
3.75856e-13
7.13135e-14
7.08698e-14
8.71823e-14
8.83647e-14
2.15341e-14
2.17752e-14
2.1362e-14
2.53874e-14
5.56625e-15
5.46471e-15
6.29115e-15
5.96885e-15
1.55891e-15
1.6229e-15
1.5276e-15
1.65564e-15
4.20271e-16
3.91457e-16
4.41875e-16
4.25827e-16
1.04886e-16
1.02737e-16
9.48815e-17
1.03051e-16
2.2e-17
1.95633e-17
2.26849e-17
2.21892e-17
4.35646e-18
4.35807e-18
3.94607e-18
4.33312e-18
8.93472e-19
7.36307e-19
7.61741e-19
7.49781e-19
1.89567e-19
1.25678e-19
1.12592e-19
9.66895e-20
0.945475
0.975812
0.991245
0.991251
0.941684
0.913733
0.940244
0.975335
0.975335
0.8636
0.605144
0.873963
0.928841
0.66967
0.551385
0.893166
0.947612
0.947585
0.885634
0.942577
0.923906
0.889992
0.836922
0.885045
0.919734
0.960118
0.961424
0.850412
0.507251
0.384284
0.792778
0.929215
0.921312
0.881755
0.947605
0.947594
0.946514
0.931167
0.328058
0.405507
0.420593
0.534457
0.604991
0.496659
0.384911
0.345766
0.0944921
0.0262142
0.0201389
0.0786826
0.23407
0.519896
0.704053
0.787475
0.839804
0.826366
0.816017
0.000712264
0.0622978
0.0821021
0.0249142
0.0119257
0.00240697
4.82821e-21
-8.46791e-08
-8.27764e-09
7.88173e-19
1.15687e-21
-1.06509e-20
-6.07987e-10
-8.43328e-08
0.0237992
0.0871995
0.0840812
0.0251384
0.00827122
9.04475e-05
0.0236863
0.0766004
0.00119258
0.00110294
0.000319042
9.83813e-20
7.74018e-05
0.000149497
6.38486e-05
-2.87283e-12
-4.51881e-24
6.27085e-07
0.000203216
0.000381095
0.000388653
0.000368288
0.000362917
0.000362165
8.81588e-06
0.0344178
0.077183
0.0617198
0.00707987
0.00078369
0.000133641
0.000280715
0.000422043
0.000421274
0.000146303
5.0498e-23
0.000158183
0.000198632
0.000272114
0.000416266
0.000517712
0.000966827
0.00128442
3.17188e-11
0.020808
0.0698258
0.0693665
0.0418144
0.00396241
9.43336e-05
9.4156e-05
6.16251e-05
5.34339e-05
0.000970902
0.00169497
0.00170625
0.0018317
0.00223401
0.00226529
0.00230608
0.00251949
0.00251913
0.00029539
0.00268183
0.0106476
0.0164906
0.00985401
0.00622124
0.0037996
0.000725681
8.99962e-08
9.08836e-08
1.43569e-05
0.000467256
0.00114648
0.0024303
0.00310967
0.0031052
0.00245975
0.00191425
0.00118932
0.000781975
7.12435e-06
5.2929e-10
5.56937e-08
0.000356308
0.000154406
6.41746e-05
1.45742e-07
1.45959e-07
1.53031e-07
5.65523e-07
9.14961e-06
0.000148978
0.00076241
0.00104842
0.000348685
3.06423e-06
3.04305e-06
3.06423e-06
0.000259649
8.543e-05
6.47407e-06
2.21608e-08
-1.68427e-11
2.3968e-12
-1.06727e-09
2.89783e-06
1.41685e-06
2.14997e-07
6.003e-07
3.17475e-06
1.08345e-05
1.36634e-06
1.36479e-06
1.36641e-06
1.00776e-05
3.02201e-06
3.45815e-06
-7.58985e-22
2.40471e-05
8.21861e-06
3.37599e-07
1.32623e-08
4.85225e-06
9.68932e-06
1.06038e-05
1.04181e-05
5.04302e-06
3.69721e-06
1.2574e-06
2.02574e-06
1.77393e-06
3.40899e-06
2.71884e-06
2.43314e-06
2.41831e-06
3.42603e-06
2.40959e-07
3.63876e-07
8.06046e-07
1.21327e-07
3.58783e-06
1.07152e-05
1.06819e-05
9.78673e-06
9.91448e-06
6.02652e-06
1.6369e-06
1.9474e-07
1.02908e-07
3.28392e-06
5.88618e-06
6.19193e-06
1.85603e-05
4.12775e-06
2.05184e-06
1.77318e-07
4.52748e-08
8.29755e-08
2.88542e-08
6.38394e-07
8.16357e-06
1.90227e-05
2.90116e-05
5.8398e-06
1.79442e-06
6.19794e-07
5.35948e-07
1.03512e-07
2.50781e-06
5.17002e-06
2.72589e-05
4.00124e-05
1.18262e-05
1.86687e-06
6.13546e-09
5.90666e-09
6.13619e-09
5.90715e-09
6.44835e-07
1.90649e-06
1.96604e-05
2.90338e-05
4.68188e-06
1.7912e-06
4.73693e-06
8.05716e-06
7.36774e-06
6.72972e-07
7.80393e-07
4.00026e-05
4.0152e-05
1.57119e-05
1.88432e-06
3.13109e-05
2.63249e-05
1.38872e-07
6.13619e-09
2.27387e-06
6.12513e-06
2.74367e-05
2.90347e-05
2.83095e-05
7.66287e-06
1.02949e-05
4.0244e-06
1.56606e-06
6.21104e-07
1.0192e-05
3.9697e-05
4.01521e-05
1.83208e-05
4.85782e-07
3.97854e-05
3.98133e-05
2.10618e-05
5.45511e-06
7.31903e-06
1.25174e-05
2.63697e-05
1.31987e-05
5.59042e-06
5.58509e-06
5.98766e-06
5.57451e-06
2.99609e-06
6.50273e-06
3.21549e-05
3.98943e-05
2.00459e-05
1.6115e-06
1.45379e-07
2.93986e-05
2.98982e-05
2.94002e-05
2.62079e-05
7.58795e-06
2.32361e-05
4.27587e-05
4.28103e-05
2.32671e-05
1.61528e-05
2.93349e-05
3.11966e-05
2.68464e-05
2.76297e-05
2.64888e-05
1.73513e-05
1.02312e-06
7.56107e-08
7.56123e-08
3.77342e-06
2.25242e-06
2.48665e-05
2.14788e-05
4.91221e-06
8.62545e-06
3.15196e-05
4.28293e-05
4.22259e-05
4.02998e-05
3.93335e-05
3.0327e-05
2.0305e-05
4.15286e-06
8.70994e-08
8.71014e-08
6.65915e-07
2.5119e-07
7.56005e-08
1.68271e-07
9.15201e-07
3.5692e-06
1.03091e-05
1.43575e-06
3.25459e-06
4.49801e-06
7.7282e-06
4.75217e-06
4.90872e-06
6.25019e-06
2.88031e-06
1.53219e-06
2.44407e-07
1.46203e-07
8.75417e-08
2.75902e-07
4.71893e-07
7.64291e-08
3.88861e-09
9.67328e-07
2.60725e-07
3.06061e-08
1.59441e-07
1.55623e-06
1.80071e-06
1.89296e-06
1.79104e-06
8.02415e-07
1.85824e-09
1.04311e-09
1.04353e-09
2.48129e-07
5.50209e-07
5.03122e-07
2.86225e-07
4.12182e-07
8.27807e-08
6.42918e-08
6.96886e-07
2.17409e-07
3.01561e-08
1.40217e-07
6.82195e-07
8.41582e-07
7.48735e-07
4.84835e-07
2.15793e-07
2.08524e-08
2.34815e-09
1.04356e-09
1.30739e-08
4.85799e-07
5.7454e-07
3.67312e-07
1.44643e-07
8.30327e-08
1.18969e-07
1.07812e-07
7.4227e-08
3.01714e-08
3.46843e-08
1.04819e-08
5.57765e-09
1.14618e-09
1.14479e-09
1.23338e-09
1.43055e-09
1.9031e-09
3.22124e-09
2.68096e-09
2.65998e-09
2.76e-09
2.54337e-07
1.49973e-07
1.36475e-07
1.04532e-07
3.00265e-08
2.09381e-08
1.91932e-08
7.75986e-09
3.24416e-09
2.66233e-09
2.62665e-09
2.81545e-09
3.8454e-09
4.45992e-09
5.27853e-09
1.30815e-08
1.39376e-08
2.66446e-09
1.50696e-07
2.67472e-07
1.58065e-07
1.63402e-07
3.74763e-08
1.36959e-08
9.75653e-09
6.14043e-09
3.30193e-09
2.53296e-09
2.37838e-09
2.34747e-09
3.08011e-09
5.88366e-09
8.26308e-09
1.3844e-08
2.34303e-08
4.35077e-08
7.10986e-08
2.3212e-07
2.40253e-07
8.97587e-08
1.67329e-07
5.28801e-09
3.5521e-09
2.86327e-09
1.89445e-09
1.5059e-09
1.498e-09
1.68537e-09
2.04338e-09
2.73661e-09
4.12418e-09
8.62251e-09
1.89345e-08
2.81785e-08
4.02052e-08
8.35568e-08
1.35185e-07
9.55808e-08
1.39527e-08
1.67334e-07
9.73212e-10
8.54688e-10
6.75635e-10
5.79071e-10
5.8284e-10
6.42514e-10
7.66992e-10
1.04017e-09
1.53086e-09
2.31413e-09
3.58167e-09
5.68242e-09
8.01225e-09
1.13512e-08
3.51868e-08
5.24587e-08
2.23983e-08
3.34054e-09
1.21027e-07
2.2481e-10
2.00666e-10
1.91469e-10
2.03942e-10
2.33855e-10
2.85627e-10
3.71573e-10
5.28912e-10
8.27538e-10
1.34858e-09
2.26472e-09
3.3515e-09
4.67556e-09
6.84046e-09
1.23141e-08
2.46854e-08
1.05495e-08
3.07867e-09
1.05739e-07
5.47454e-11
5.89833e-11
6.83382e-11
8.31501e-11
1.06763e-10
1.48725e-10
2.28317e-10
3.83357e-10
6.85932e-10
1.29689e-09
2.55868e-09
4.56714e-09
8.07057e-09
1.19615e-08
1.64542e-08
1.17526e-08
6.17312e-09
3.07922e-09
1.0528e-07
1.66367e-11
2.0317e-11
2.57048e-11
3.36342e-11
4.69617e-11
7.68144e-11
1.28135e-10
2.20433e-10
4.6418e-10
1.11719e-09
2.65713e-09
5.57243e-09
1.18319e-08
2.20412e-08
2.95014e-08
1.7775e-08
5.64547e-09
3.59559e-09
1.18893e-07
5.19055e-12
6.79702e-12
8.82528e-12
1.19116e-11
1.76006e-11
2.39555e-11
2.87001e-11
5.5526e-11
1.51238e-10
5.17198e-10
1.79553e-09
5.73785e-09
1.28939e-08
2.98632e-08
4.36325e-08
4.96918e-08
9.33019e-09
2.43465e-08
1.22561e-07
1.618e-12
2.03055e-12
2.59251e-12
3.50733e-12
4.9269e-12
4.01958e-12
4.59629e-12
1.17021e-11
3.95266e-11
1.5688e-10
6.85945e-10
3.30323e-09
1.22431e-08
2.77272e-08
5.01168e-08
5.01306e-08
2.68507e-08
2.78419e-08
1.22569e-07
3.88152e-13
5.17645e-13
6.02893e-13
7.506e-13
1.00045e-12
9.78555e-13
9.00536e-13
2.9166e-12
1.20814e-11
5.65555e-11
2.92773e-10
2.00489e-09
9.18526e-09
2.33046e-08
4.10237e-08
4.55075e-08
2.65799e-08
1.00574e-07
1.10227e-07
1.04155e-13
1.13249e-13
1.22295e-13
1.39619e-13
1.76186e-13
2.33149e-13
3.06553e-13
1.09598e-12
4.91848e-12
2.37427e-11
1.06683e-10
5.35586e-10
5.23434e-09
1.41067e-08
3.26751e-08
3.54527e-08
2.68515e-08
1.1357e-07
1.09194e-07
2.57525e-14
2.57476e-14
2.64229e-14
3.09696e-14
4.45442e-14
7.85673e-14
1.77187e-13
5.67485e-13
2.36692e-12
1.11022e-11
4.76429e-11
2.22411e-10
2.26081e-09
7.78843e-09
1.85568e-08
2.35157e-08
3.34834e-08
1.13608e-07
1.09155e-07
6.30966e-15
5.89372e-15
6.35632e-15
8.56208e-15
1.55713e-14
3.79983e-14
1.16071e-13
3.94783e-13
1.42626e-12
5.93359e-12
2.41736e-11
8.2764e-11
4.83665e-10
2.60131e-09
7.57307e-09
1.96782e-08
3.96311e-08
5.66881e-08
3.72756e-07
1.61748e-15
1.55414e-15
1.78782e-15
2.86776e-15
6.73019e-15
2.1081e-14
7.5266e-14
2.79616e-13
1.02359e-12
3.96781e-12
1.56921e-11
5.59253e-11
4.12589e-10
1.27112e-09
2.50489e-09
8.60873e-09
2.79671e-08
2.96379e-08
3.83251e-07
4.10378e-16
4.16753e-16
5.51801e-16
1.10874e-15
3.17364e-15
1.08773e-14
4.17083e-14
1.67148e-13
6.49216e-13
2.52996e-12
9.84934e-12
3.72103e-11
1.79513e-10
1.02771e-09
2.19986e-09
3.53672e-09
9.29973e-09
2.28128e-08
3.83457e-07
1.0075e-16
1.09607e-16
1.69749e-16
4.07559e-16
1.31496e-15
4.87974e-15
1.93548e-14
7.98929e-14
3.25179e-13
1.29445e-12
5.55886e-12
2.33904e-11
9.97687e-11
5.94366e-10
2.43108e-09
3.63904e-09
4.81738e-09
2.29581e-08
3.60975e-07
2.22414e-17
2.53448e-17
4.42572e-17
1.19795e-16
4.30191e-16
1.70049e-15
7.01108e-15
2.94202e-14
1.23836e-13
5.06969e-13
2.13484e-12
9.35633e-12
4.18988e-11
1.89857e-10
1.38577e-09
3.90777e-09
5.74044e-09
2.53045e-08
1.52305e-07
4.2649e-18
4.61123e-18
8.56598e-18
2.66108e-17
1.08228e-16
4.78395e-16
2.16917e-15
9.87257e-15
4.48171e-14
2.08068e-13
9.68173e-13
4.55289e-12
2.07078e-11
9.41135e-11
4.40521e-10
2.27702e-09
5.59928e-09
1.94492e-08
6.34128e-08
6.71733e-19
6.60065e-19
1.02253e-18
3.04208e-18
1.40289e-17
7.21369e-17
3.63142e-16
1.78378e-15
8.79589e-15
4.43573e-14
2.24052e-13
1.22355e-12
6.77742e-12
3.57676e-11
1.99357e-10
8.99082e-10
2.74932e-09
4.09893e-09
2.90732e-10
8.05449e-20
6.87301e-20
8.23653e-20
1.7698e-19
7.32901e-19
4.25574e-18
2.52609e-17
1.36114e-16
6.60394e-16
3.04048e-15
1.48417e-14
9.03317e-14
7.02263e-13
5.51877e-12
4.13773e-11
2.56284e-10
6.6472e-10
5.10812e-10
1.64331e-10
)
;

boundaryField
{
    leftWall
    {
        type            zeroGradient;
    }
    rightWall
    {
        type            zeroGradient;
    }
    lowerWall
    {
        type            zeroGradient;
    }
    atmosphere
    {
        type            inletOutlet;
        inletValue      uniform 0;
        value           nonuniform List<scalar> 
46
(
8.26242e-08
1.45365e-08
6.0489e-09
0
0
0
0
0
0
0
0
0
0
0
0
0
0
0
0
5.5226e-16
4.5423e-16
8.95966e-17
7.62311e-18
1.89567e-19
1.25678e-19
1.12592e-19
9.66895e-20
8.05449e-20
6.87301e-20
8.23653e-20
0
0
0
2.52609e-17
1.36114e-16
6.60394e-16
3.04048e-15
1.48417e-14
9.03317e-14
7.02263e-13
5.51877e-12
4.13773e-11
2.56284e-10
6.6472e-10
5.10812e-10
1.64331e-10
)
;
    }
    defaultFaces
    {
        type            empty;
    }
}


// ************************************************************************* //
