/*--------------------------------*- C++ -*----------------------------------*\
| =========                 |                                                 |
| \\      /  F ield         | OpenFOAM: The Open Source CFD Toolbox           |
|  \\    /   O peration     | Version:  2312                                  |
|   \\  /    A nd           | Website:  www.openfoam.com                      |
|    \\/     M anipulation  |                                                 |
\*---------------------------------------------------------------------------*/
FoamFile
{
    version     2.0;
    format      ascii;
    arch        "LSB;label=32;scalar=64";
    class       volScalarField;
    location    "5";
    object      alphas;
}
// * * * * * * * * * * * * * * * * * * * * * * * * * * * * * * * * * * * * * //

dimensions      [0 0 0 0 0 0 0];

internalField   nonuniform List<scalar> 
2268
(
2
2
2
2
2
2
2
2
2
2
2
2
2
2
2
2
2
2
2
1.99999
1.99996
1.99996
1.99996
2
2
2
2
2
2
2
2
2
2
2
2
2
2
2
2
2
2
2
2
1.99999
1.99998
1.99998
2
2
2
2
2
2
2
2
2
2
2
2
2
2
2
2
2
2
2
2
2
2
2
2
2
2
2
2
2
2
2
2
2
2
2
2
2
2
2
2
2
2
2
2
2
2
1.99938
1.99917
1.9991
1.99948
2.00012
2.00005
2
1.99999
2
1.99999
2
2
2
1.99999
2
2.00001
2.00001
1.99997
1.99923
1.99911
1.99861
1.99965
2.0004
1.312
1.3327
1.38244
1.45167
1.53783
1.6396
1.75009
1.85088
1.92531
1.96635
1.98223
1.99046
1.98991
1.97674
1.95532
1.92975
1.90468
1.8807
1.8419
1.79614
1.74626
1.70677
1.65194
0.0596863
0.0654173
0.0815556
0.108966
0.14934
0.209773
0.302658
0.430761
0.580816
0.730248
0.846287
0.896022
0.884878
0.809237
0.697588
0.611816
0.579509
0.583668
0.512076
0.423032
0.363067
0.328438
0.274915
0.000746021
0.000738742
0.000751123
0.000891047
0.00134701
0.00184835
0.00184239
0.00127649
0.000836661
0.00044709
0.00083844
0.000607357
0.000552506
0.000437067
0.000388418
0.000300166
0.0186452
0.0668967
0.0624676
0.0221645
0.0232773
0.0616697
0.0694975
1.94693
1.95589
1.96882
1.97442
1.96922
1.9661
1.95916
1.95664
1.95676
1.9567
1.9567
1.95767
1.96298
1.96411
1.96525
1.96651
1.9699
1.9701
1.96998
1.92576
1.92732
1.93634
1.94713
1.95267
1.95591
1.96499
1.9658
1.9613
1.95642
1.9564
1.96052
1.96349
1.96254
1.94254
1.94321
1.97372
1.97691
1.96733
1.36908
1.38444
1.44218
1.45899
1.48321
1.54709
1.61019
1.63228
1.62339
1.59693
1.58356
1.60816
1.61681
1.58822
1.53911
1.5591
1.61492
1.61272
1.6
0.293247
0.189781
0.287425
0.306854
0.268386
0.293246
0.316207
0.340027
0.359652
0.306434
0.316952
0.401727
0.680801
1.04437
1.19902
1.22588
0.867871
0.474863
0.702049
0.208575
0.0226291
0.0510644
0.0509639
0.0282758
0.0971815
0.0798154
0.0471614
0.0539778
0.0665043
0.153844
0.0618158
0.0545864
0.122898
0.593827
0.394419
0.29761
0.288514
0.451341
0.0880662
0.0170142
0.0164881
0.0138534
0.0137855
0.0454261
0.0989979
0.0538526
0.068554
0.294745
0.327727
0.0870014
0.0579849
0.0985318
0.330022
0.2622
0.278389
0.304467
0.219908
0.0347975
0.0190765
0.0130503
0.0194511
0.0632949
0.0438206
0.0961018
0.0601049
0.0844502
0.389066
0.34775
0.229721
0.0407882
0.229697
0.383877
0.140165
0.127274
0.302604
0.178942
0.0523882
0.0269502
0.0181394
0.0140016
0.073689
0.0908441
0.0677394
0.0367233
0.0303635
0.293278
0.428847
0.239001
0.0986123
0.475585
0.476132
0.269903
0.0714667
0.273277
0.285236
0.0112139
0.000763311
0.000763615
0.000756884
0.000718503
0.000704228
0.000698652
0.000707947
0.000699583
0.000708559
0.000710646
0.000645628
0.000586376
0.000606265
0.000596822
0.000466045
0.000377764
0.00296249
0.00363866
0.00469285
0.0061216
0.00636806
0.00771338
0.118608
0.0659285
0.0391938
0.0604789
0.0653655
0.075942
0.100535
0.0822259
0.0440976
0.0137467
0.00446071
0.00403525
0.00183343
0.000723267
0.000706386
0.000699702
0.00463902
0.0212361
0.0272669
0.0243778
0.0188541
0.0273884
0.0402223
0.809465
0.826637
0.832163
0.815395
0.814966
0.81199
0.712282
0.542498
0.457761
0.362772
0.236629
0.151445
0.0863512
0.0560792
0.0595265
0.0692839
0.154457
0.192546
0.263831
0.348718
0.40435
0.373309
0.311318
1.05957
1.02841
1.03635
1.02894
1.02466
1.02456
1.13762
1.14911
1.12556
1.0808
0.987434
0.813873
0.668565
0.715494
0.734378
0.731635
0.755494
0.851688
0.982158
1.05737
1.06278
1.01562
0.942223
1.00091
1.00122
1.03473
1.03625
1.02672
1.09548
1.15294
1.15337
1.08173
1.02862
1.03449
1.02695
1.01738
1.02762
1.06698
1.05693
1.01197
1.00512
1.01485
1.0177
1.02576
1.01684
1.0029
1.00089
1.00278
1.00045
1.01562
1.00056
1.00199
1.03565
1.02033
1.00032
1.00034
1.00035
1.00029
1.00004
1.00008
1.00034
1.0004
1.00037
1.00025
0.99574
1.00066
1.00097
1.00138
1.00088
1.00049
1.00012
0.999966
0.999796
1
0.999864
0.999933
1
1.00002
0.99989
0.999898
0.999831
0.998896
0.998404
0.999579
1.00013
0.999982
0.999844
0.989087
0.986216
1.00039
1.00072
1.00001
1.00024
0.999851
0.9998
0.999143
0.99832
0.99815
0.998876
0.999448
0.999602
0.999691
0.999895
1.00003
0.996578
0.986834
0.987191
0.995252
0.999567
0.999765
0.984197
1.14383
1.44387
1.43574
1.60141
1.33665
1.3597
1.38956
1.4349
1.50734
1.58948
1.63597
1.66286
1.68472
1.69338
1.68927
1.67947
1.67367
1.63396
1.59445
1.51756
1.4054
1.35242
1.53117
2.28741
2.79062
2.82049
2.88761
2.79082
2.81672
2.85234
2.88712
2.92424
2.95764
2.97848
2.99023
2.99221
2.99373
2.99252
2.99214
2.99296
2.99791
2.98561
2.95645
2.90825
2.85037
2.84797
2.93269
2.94058
2.94985
2.99597
2.99968
2.99983
2.99988
3
3
3
3
3
3
3
3
2.99958
2.99996
2.9999
2.99998
2.99996
2.99984
2.99975
2.9667
2.94185
2.94175
2.95542
2.9983
3
3
3
3
3
3
3
3
3
3
3
2.99999
2.99999
3
2.99999
2.99999
2.99999
3
2.9948
2.97402
2.97447
2.99347
2.99998
3
3
3
3
3
3
3
3
3
3
2.99997
2.99996
2.99999
2.99999
2.99997
2.99996
2.99998
3
3
3
2.99999
3
3
3
3
3
3
3
3
3
2.99999
2.99999
2.99996
2.99991
2.99991
2.99993
2.99994
2.99988
2.99988
2.99989
2.99997
2.99999
2.99999
3
3
3
3
3
3
3
3
3
3
2.99999
2.99999
2.99995
2.99991
2.99991
2.99991
2.99993
2.99991
2.99987
2.99987
2.99988
2.99995
3
2.99998
2.99994
2.9999
3
3
3
3
3
3
3
3
3
2.99999
2.99995
2.99995
3
3
2.99997
2.9999
2.99989
2.99993
2.99999
3
2.99998
2.9999
2.99989
3
3
3
3
3
3
3
3
3
3
3
3
3
3
3
2.99999
2.99999
2.99999
3
3
3
2.99997
2.99994
3
3
3
3
3
3
3
3
3
3
3
3
3
3
3
3
3
3
3
3
3
3
3
3
3
3
3
3
3
3
3
3
3
3
3
3
3
3
3
3
3
3
3
3
3
3
3
3
3
3
3
3
3
3
3
3
3
3
3
3
3
3
3
3
3
3
3
3
3
3
3
3
3
3
3
3
3
3
3
3
3
3
3
3
3
3
3
3
3
3
3
3
3
3
3
3
3
3
3
3
3
3
3
3
3
3
3
3
3
3
3
3
3
3
3
3
3
3
3
3
3
3
3
3
3
3
3
3
3
3
3
3
3
3
3
3
3
3
3
3
3
3
3
3
3
3
3
3
3
3
3
3
3
3
3
3
3
3
3
3
3
3
3
3
3
3
3
3
3
3
3
3
3
3
3
3
3
3
3
3
3
3
3
3
3
3
3
3
3
3
3
3
3
3
3
3
3
3
3
3
3
3
3
3
3
3
3
3
3
3
3
3
3
3
3
3
3
3
3
3
3
3
3
3
3
3
3
3
3
3
3
3
3
3
3
3
3
3
3
3
3
3
3
3
3
3
3
3
3
3
3
3
3
3
3
3
3
3
3
3
3
3
3
3
3
3
3
3
3
3
3
3
3
3
3
3
3
3
3
3
3
3
3
3
3
3
3
3
3
3
3
3
3
3
3
3
3
3
3
3
3
3
3
3
3
3
3
3
3
3
3
3
3
3
3
3
3
3
3
3
3
3
3
3
3
3
3
3
3
3
3
3
3
3
3
3
3
3
3
3
3
3
3
3
3
3
3
3
3
3
3
3
3
3
3
3
3
3
3
3
3
3
3
3
3
3
3
3
3
3
3
3
3
3
3
3
3
3
3
3
3
3
3
3
3
3
3
3
3
3
3
3
3
3
3
3
3
3
3
3
3
3
3
3
3
3
3
3
3
3
3
3
3
3
3
3
3
3
3
3
3
3
3
3
3
3
3
3
3
3
3
3
3
3
3
3
3
3
3
3
3
3
3
3
3
3
3
3
3
3
3
3
3
3
3
3
3
3
3
3
3
3
3
3
3
3
3
3
3
3
3
3
3
3
3
3
3
3
3
3
3
3
3
3
3
3
3
3
3
3
3
3
3
3
3
3
3
3
3
3
3
3
3
3
3
3
3
3
3
3
3
3
3
3
3
3
3
3
3
3
3
3
3
3
3
3
3
3
3
3
3
3
3
3
3
3
3
3
3
3
3
3
3
3
3
3
3
3
3
3
3
3
3
3
3
3
3
3
3
3
3
3
3
3
3
3
3
3
3
3
3
3
3
3
3
0.0231912
0.031314
0.0395642
0.0661652
0.038219
0.0378473
0.075118
0.0992677
0.290801
0.300383
0.455634
0.631942
0.9202
0.948453
0.989168
1.00682
1.00102
1.00114
1.00139
1.00133
1.00076
1.0013
1.00146
1.00145
0.999975
1.0013
1.01386
1.04659
1.87935
2.0071
2.10185
2.21484
2.96891
2.98987
2.99533
2.99743
2.9998
2.99981
2.99983
2.9996
2.99996
3
3
3
3
3
2.99999
2.99999
3
2.99998
2.99992
2.99992
2.99994
2.9999
2.99989
2.99992
2.99989
2.99989
2.99989
2.9999
2.99989
2.99989
2.99987
2.99986
2.99995
2.99993
2.99987
2.99986
3
2.99999
2.9999
2.99987
3
3
2.99998
2.99997
3
3
3
3
3
3
3
3
3
3
3
3
3
3
3
3
3
3
3
3
3
3
3
3
3
3
3
3
3
3
3
3
3
3
3
3
3
3
3
3
3
3
3
3
3
3
3
3
3
3
3
3
3
3
3
3
3
3
3
3
3
3
3
3
3
3
3
3
3
3
3
3
3
3
3
3
3
3
3
3
3
3
3
3
3
3
3
3
3
3
3
3
0.126623
0.059149
0.017065
0.0134801
0.0602698
0.091177
0.0641952
0.0289224
0.0303398
0.197235
0.617086
0.207195
0.0787116
0.359141
0.47529
0.116616
0.103441
0.105741
0.278021
0.111919
0.0939135
0.148352
0.324757
0.258109
0.174166
0.0750902
0.0718985
0.23181
0.664161
0.817951
0.361054
0.0771917
0.0888355
0.15509
0.11115
0.111105
0.108611
0.157337
0.685807
0.74471
0.96317
0.848184
0.756289
0.738309
0.792332
0.685774
0.972669
1.14694
1.19731
1.06647
0.771527
0.493083
0.311753
0.22827
0.198459
0.250792
0.265192
1.06106
1.31833
1.30097
1.05479
0.997474
1.01038
1.01713
1.01145
1.01435
1.13153
1.22048
1.12852
1.00356
1.0026
0.979459
0.923971
0.936107
0.993139
1.00809
1.0575
1.24978
1.04206
1.00029
1.00034
1.00194
1.0028
1.00309
1.003
1.02725
1.10163
1.08243
1.00387
1.0031
1.0015
1.00142
1.00146
1.00308
1.0056
1.00153
1.07011
1.06498
0.942784
0.996195
1.00167
1.00333
1.00276
1.00257
1.00274
1.00377
1.00496
1.00382
1.00368
1.00339
1.00268
1.00221
1.00037
1.05228
1.12407
1.25847
1.28724
1.26652
1.2444
1.18145
1.12718
1.12911
1.16393
1.15033
1.08235
1.05402
1.10095
1.15039
1.21934
1.2429
1.36258
1.79428
2.18874
2.34107
2.44683
2.53468
2.55821
2.53274
2.5342
2.57622
2.64244
2.68829
2.62471
2.53962
2.49391
2.5623
2.62085
2.69733
2.70401
2.83143
2.98747
2.98493
2.99743
2.99984
2.99986
2.99992
2.99889
2.99929
2.99958
2.99985
2.99987
2.99988
2.99999
2.99983
2.9992
2.99707
2.99604
2.99787
2.99888
2.99902
2.9991
2.99909
2.99973
2.99999
3
3
3
2.99983
2.99962
2.99969
2.99995
3
2.99999
2.99996
2.99993
2.99985
2.9999
2.99992
2.99992
2.99989
3
2.99991
2.99997
3
3
2.99984
2.99952
2.99952
2.99952
2.99986
2.99999
3
2.99998
2.99986
2.99975
2.99975
2.99987
2.99986
2.99977
3
3
3
3
2.99999
2.99968
2.99952
2.99952
2.99963
2.99996
2.99999
3
3
2.99979
2.99974
2.99975
2.99976
2.99979
2.99977
3
3
3
3
3
2.99981
2.99951
2.9995
2.9998
2.99999
3
2.99996
3
2.99993
2.99975
2.99979
2.99987
2.99995
2.99994
2.99999
3
3
3
3
2.99991
2.99985
2.99975
2.9999
2.99999
2.99983
2.99976
2.99976
2.99995
2.99993
2.99987
2.99987
2.99994
2.99998
2.99989
2.99992
3
3
2.99988
2.99992
2.99991
2.9999
2.99978
2.9998
2.99977
2.99983
2.99984
2.99995
2.99992
2.99987
2.99987
2.99994
2.99998
2.99986
2.99986
2.99994
2.99999
2.99981
2.9999
2.99991
2.99995
2.99995
2.99993
2.99994
2.99994
2.99994
2.99993
2.99989
2.99987
2.99992
2.99999
2.99997
2.99989
2.99989
2.99985
2.99977
2.99982
2.99991
2.99987
2.99987
2.99992
2.99993
2.99988
2.99987
2.99988
2.99989
2.99991
2.99994
2.99996
2.99998
2.99997
2.99998
2.99999
2.99981
2.99976
2.99992
2.99997
2.9999
2.99986
2.99986
2.99986
2.99986
2.99987
2.99989
2.99996
2.99999
2.99999
2.99996
2.99998
2.99999
3
2.99999
2.99993
2.99982
2.99997
2.99998
2.99998
2.99996
2.99997
2.99998
2.99998
2.99993
2.99992
2.99993
2.99995
2.99999
2.99996
2.99996
3
3
3
3
2.99999
3
2.99998
2.99997
2.99997
2.99997
2.99998
3
3
2.99998
2.99993
2.99993
2.99995
2.99998
2.99996
3
3
3
3
3
3
2.99999
2.99999
2.99998
2.99998
2.99999
3
3
3
3
2.99994
2.99995
2.99999
2.99997
3
3
3
3
3
3
3
3
3
3
3
3
3
3
3
3
3
3
2.99999
3
3
3
3
3
3
3
3
3
3
3
3
3
3
3
3
3
3
2.99999
3
3
3
3
3
3
3
3
3
3
3
3
3
3
3
3
3
3
2.99999
3
3
3
3
3
3
3
3
3
3
3
3
3
3
3
3
3
3
3
3
3
3
3
3
3
3
3
3
3
3
3
3
3
3
3
3
3
3
3
3
3
3
3
3
3
3
3
3
3
3
3
3
3
3
3
3
3
3
3
3
3
3
3
3
3
3
3
3
3
3
3
3
3
3
3
3
3
3
3
3
3
3
3
3
3
3
3
3
3
3
3
3
3
3
3
3
3
3
3
3
3
3
3
3
3
3
3
3
3
3
3
3
3
3
3
3
3
3
3
3
3
3
3
3
3
3
3
3
3
3
3
3
3
3
3
3
3
3
3
3
3
3
3
3
3
3
3
3
3
3
3
3
3
3
3
3
3
3
3
3
3
3
3
3
3
3
3
3
3
3
3
3
3
3
3
3
3
3
3
3
3
3
3
3
3
3
3
3
3
3
3
3
3
3
3
3
3
3
3
3
3
3
3
2.99999
2.99999
3
3
3
3
2.99999
3
3
3
3
3
3
3
3
3
3
3
3
2.99999
2.99999
2.99999
3
3
3
2.99999
3
3
3
3
3
3
3
3
3
3
3
3
3
2.99999
2.99999
3
3
3
2.99999
3
3
3
3
3
3
3
3
3
3
3
3
3
3
2.99999
2.99999
3
3
3
3
3
3
3
3
3
3
3
3
3
3
3
3
3
2.99999
2.99999
2.99999
3
3
3
3
3
3
3
3
3
3
3
3
3
3
3
3
3
2.99999
2.99999
2.99999
3
3
3
3
3
3
3
3
3
3
3
3
3
3
3
3
3
3
3
3
3
3
3
3
3
3
3
3
3
3
3
3
3
3
3
3
3
3
3
)
;

boundaryField
{
    leftWall
    {
        type            calculated;
        value           nonuniform List<scalar> 
50
(
2
2
2
2
1.99938
1.312
0.0596863
0.000746021
0.0112139
0.118608
0.809465
1.05957
1.00091
1.00089
1.00049
1.00024
1.33665
2.79082
2.99968
3
3
3
3
3
3
3
3
3
3
3
3
3
3
3
3
3
3
3
3
3
3
3
3
3
3
3
3
3
3
3
)
;
    }
    rightWall
    {
        type            calculated;
        value           nonuniform List<scalar> 
50
(
1.96998
1.96733
1.6
0.702049
0.451341
0.219908
0.178942
0.285236
0.278021
0.157337
0.265192
1.00809
1.0056
1.05228
2.18874
2.98493
2.9991
2.99989
2.99977
2.99977
2.99994
2.99998
2.99998
2.99997
2.99997
2.99999
3
3
3
3
3
3
3
3
3
3
3
3
3
3
3
3
2.99999
2.99999
2.99999
3
3
3
3
3
)
;
    }
    lowerWall
    {
        type            calculated;
        value           nonuniform List<scalar> 
62
(
2
2
2
2
2
2
2
2
2
2
2
2
2
2
2
2
2
2
2
1.99999
1.99996
1.99996
1.99996
1.99996
1.99998
2
2
2.0004
1.65194
0.274915
0.0694975
0.0231912
0.031314
0.0395642
0.0661652
1.94693
1.92576
1.36908
0.293247
0.208575
0.0880662
0.0347975
0.0523882
1.94693
1.95589
1.96882
1.97442
1.96922
1.9661
1.95916
1.95664
1.95676
1.9567
1.9567
1.95767
1.96298
1.96411
1.96525
1.96651
1.9699
1.9701
1.96998
)
;
    }
    atmosphere
    {
        type            calculated;
        value           nonuniform List<scalar> 
46
(
3
3
3
3
3
3
3
3
3
3
3
3
3
3
3
3
3
3
3
3
3
3
3
3
3
3
3
3
3
3
3
3
3
3
3
3
3
3
3
3
3
3
3
3
3
3
)
;
    }
    defaultFaces
    {
        type            empty;
    }
}


// ************************************************************************* //
