/*--------------------------------*- C++ -*----------------------------------*\
| =========                 |                                                 |
| \\      /  F ield         | OpenFOAM: The Open Source CFD Toolbox           |
|  \\    /   O peration     | Version:  2312                                  |
|   \\  /    A nd           | Website:  www.openfoam.com                      |
|    \\/     M anipulation  |                                                 |
\*---------------------------------------------------------------------------*/
FoamFile
{
    version     2.0;
    format      ascii;
    arch        "LSB;label=32;scalar=64";
    class       volScalarField;
    location    "5";
    object      alpha.oil;
}
// * * * * * * * * * * * * * * * * * * * * * * * * * * * * * * * * * * * * * //

dimensions      [0 0 0 0 0 0 0];

internalField   nonuniform List<scalar> 
2268
(
9.25243e-10
9.25243e-10
9.86948e-10
3.14438e-09
9.64959e-09
1.14321e-08
7.86445e-09
4.79481e-09
3.11749e-09
2.10363e-09
1.53279e-09
1.15159e-09
1.00383e-09
1.04172e-09
1.39296e-09
2.4276e-09
4.37588e-09
5.44811e-09
1.11197e-08
5.60312e-06
3.86407e-05
4.19819e-05
4.18915e-05
2.4086e-09
9.25243e-10
3.79602e-09
3.27396e-08
5.83877e-08
6.58514e-08
6.12824e-08
3.04977e-08
1.09844e-08
6.8279e-09
4.78551e-09
3.29379e-09
2.85903e-09
3.19289e-09
3.94258e-09
1.28381e-08
5.09504e-08
8.205e-08
7.29514e-08
6.85546e-07
9.16445e-06
2.38771e-05
2.22911e-05
1.23709e-08
6.06428e-09
4.6451e-09
3.56007e-08
6.21654e-08
6.58548e-08
6.20259e-08
2.85805e-08
1.13553e-08
7.56868e-09
5.13457e-09
4.40046e-09
4.49537e-09
4.34384e-09
4.88038e-09
6.86793e-08
2.53371e-07
2.70409e-07
2.46126e-07
1.04995e-07
1.02586e-09
1.02586e-09
1.02583e-09
2.28683e-09
2.30639e-09
2.39498e-09
4.3204e-09
6.85487e-09
5.15542e-09
6.06993e-09
3.57503e-09
2.59325e-09
2.31463e-09
2.284e-09
2.28364e-09
2.28365e-09
2.28364e-09
2.38073e-09
1.5221e-08
4.97255e-08
2.24656e-08
1.0259e-09
1.02586e-09
1.02586e-09
1.02586e-09
8.86767e-09
0.000718539
0.000962018
0.00114745
0.000882417
0.00013641
5.03418e-09
1.266e-06
9.51427e-06
5.61366e-06
1.42687e-05
2.284e-09
5.7354e-07
3.4114e-06
6.77086e-06
3.20538e-06
1.51242e-08
8.07328e-08
2.85719e-05
0.000804026
0.000993168
0.00164931
0.000759301
8.92343e-09
0.00552494
0.0055455
0.00554606
0.0055462
0.00515528
0.00198016
1.20545e-06
3.37983e-05
0.00037085
0.000522836
0.000460794
0.000348093
0.000612121
0.000921797
0.000599743
0.00113709
0.0158687
0.0472579
0.0608343
0.0607268
0.0655036
0.0577802
0.0136096
0.00258022
0.00270999
0.00330645
0.0041847
0.00417737
0.00309551
0.00137671
0.000151941
0.000217253
0.000602616
0.000624721
0.000637019
0.0010266
0.0013469
0.00089928
0.00548344
0.0606742
0.0944391
0.0944572
0.0920554
0.0935277
0.0936415
0.0486953
1.30345e-05
1.16597e-05
3.5223e-05
0.000166918
0.00019805
0.000408573
0.00044467
0.000262886
6.10301e-05
0.000123868
0.000267136
0.000323265
0.000216856
0.000195728
0.00015125
0.000212674
0.0185888
0.0633628
0.0571804
0.0180129
0.0180421
0.0465164
0.0462714
0.0270414
0.0289339
0.0283816
0.0268801
0.0265201
0.0265201
0.0265201
0.02652
0.0265281
0.0265346
0.0265215
0.0265212
0.0265214
0.0269734
0.0281096
0.0275949
0.0267713
0.0267713
0.0267713
0.0525952
0.0711354
0.0621313
0.0522653
0.0469382
0.0447992
0.0410678
0.0406486
0.0432007
0.0453443
0.0439748
0.0395743
0.0373443
0.0392333
0.0595409
0.0591497
0.030567
0.0286333
0.038288
0.250945
0.25218
0.248684
0.205756
0.175911
0.188907
0.214343
0.223781
0.234548
0.245862
0.26908
0.322479
0.375547
0.413663
0.449208
0.440194
0.398904
0.370359
0.374384
0.251011
0.121183
0.158121
0.164205
0.114213
0.0966209
0.108013
0.117709
0.136984
0.115006
0.0991573
0.117635
0.252547
0.462964
0.497999
0.498007
0.39076
0.21877
0.388137
0.18352
0.00318504
0.00313731
0.00415338
0.00326118
0.00325913
0.00325274
0.0111657
0.00613512
0.0038089
0.00380435
0.00381419
0.00669586
0.0835266
0.493046
0.199989
0.0592817
0.0485992
0.387214
0.073058
0.00650618
0.0048486
0.00805598
0.00809049
0.00598965
0.00835524
0.0061107
0.00433014
0.008216
0.00381123
0.00381088
0.005424
0.0457907
0.114696
0.0373547
0.0373633
0.039402
0.157955
0.0218714
0.0106062
0.00639644
0.013335
0.0565812
0.0377902
0.00727074
0.00721468
0.0168741
0.0493895
0.00381152
0.00387894
0.0244481
0.154467
0.24857
0.0670285
0.0712658
0.0405173
0.0974851
0.00572849
0.00370775
0.00370738
0.00584793
0.0669202
0.0829751
0.0358593
0.018565
0.0217454
0.0948896
0.0867297
0.0340137
0.0900311
0.432195
0.434928
0.255296
0.0425427
0.0373151
0.0429203
5.47543e-07
5.91972e-07
9.80518e-07
4.12678e-06
5.08811e-06
7.10097e-06
7.91509e-06
8.17892e-06
1.83588e-06
3.48204e-07
1.08039e-05
4.43456e-05
6.49285e-05
5.1318e-05
3.95836e-05
9.92574e-05
0.000152463
0.00263732
0.00281702
0.00299338
0.00244495
0.00243402
0.00404952
5.00348e-07
0.00751828
0.0265327
0.0527853
0.044622
0.00925086
0.00137135
1.52575e-06
1.01235e-14
-5.22743e-11
-3.4934e-09
-2.48207e-08
-6.12418e-08
6.39249e-06
1.3458e-05
1.63902e-05
0.000319083
1.28424e-10
-7.00365e-07
-6.4599e-07
-3.17052e-07
8.01574e-10
9.2185e-08
0.688875
0.706644
0.73526
0.800596
0.800678
0.676804
0.478577
0.312095
0.228593
0.151409
0.0669165
0.0193557
0.00709092
0.006093
0.0060943
0.00566108
0.0106903
0.0410864
0.106672
0.211498
0.273535
0.242725
0.18632
0.969955
0.985648
0.981643
0.984815
0.986287
0.986122
0.930371
0.919033
0.895419
0.849035
0.755663
0.612518
0.535187
0.527237
0.522157
0.519041
0.550052
0.726627
0.919553
0.958335
0.932835
0.890411
0.858398
0.999519
0.999209
0.982513
0.981667
0.986447
0.952223
0.923363
0.922937
0.958756
0.985332
0.982452
0.986381
0.991151
0.985605
0.965694
0.970868
0.993268
0.995054
0.99012
0.990301
0.986872
0.991438
0.998337
0.999535
0.998508
0.999746
0.992162
0.999704
0.998987
0.981953
0.989586
0.999747
0.999747
0.999747
0.999747
0.999747
0.999747
0.999747
0.999746
0.999747
0.999746
0.994619
0.996511
0.999139
0.999138
0.999141
0.999727
0.999745
0.999746
0.999737
0.999746
0.999745
0.999725
0.999742
0.999747
0.999747
0.999747
0.999747
0.998869
0.998354
0.999374
0.999746
0.999746
0.999747
0.988591
0.978857
0.995824
0.999141
0.998669
0.999664
0.99968
0.999724
0.999084
0.998118
0.997629
0.998281
0.998993
0.999293
0.999471
0.999747
0.999707
0.996525
0.986778
0.987098
0.995026
0.999447
0.999735
0.984057
0.897281
0.760768
0.781077
0.697242
0.831001
0.819378
0.804942
0.779664
0.737855
0.696517
0.673288
0.660902
0.651878
0.648693
0.652171
0.659474
0.661285
0.664429
0.677305
0.715735
0.775669
0.809078
0.706345
0.326356
0.0737492
0.0797599
0.0544997
0.103811
0.0908734
0.0735477
0.0558407
0.0353624
0.0162437
0.00583716
0.000349909
7.44304e-09
-2.07806e-21
-1.22243e-08
1.4598e-06
-1.4598e-06
7.64535e-05
0.00605669
0.0174233
0.0367009
0.0586757
0.0476198
0.00449361
9.95707e-11
2.67805e-10
9.95705e-11
1.2539e-26
2.3286e-19
7.17597e-27
3.1336e-10
1.31016e-08
3.82321e-08
3.95496e-08
1.51385e-08
1.57781e-08
5.50553e-08
2.60833e-07
3.88547e-10
8.8762e-16
2.72364e-16
1.2156e-07
8.8743e-24
3.00267e-24
-4.16494e-10
-8.91529e-20
-5.81215e-21
3.30925e-08
4.06789e-08
1.75971e-08
3.10762e-09
1.6824e-09
4.92338e-10
1.27841e-08
7.17261e-08
1.86615e-07
1.7555e-07
4.75214e-08
4.29139e-08
3.65027e-07
1.35373e-06
3.62915e-06
1.50764e-06
6.25557e-07
2.9635e-06
3.10067e-06
1.59249e-06
7.68177e-07
4.60836e-07
7.88569e-08
1.16026e-07
5.85382e-08
1.08822e-08
1.33449e-08
7.881e-09
1.58575e-09
5.8847e-08
1.8931e-07
3.48058e-07
2.61226e-07
4.67755e-08
5.41597e-08
1.51498e-06
1.44452e-05
2.12296e-05
4.47485e-06
2.79043e-06
1.48963e-05
1.52396e-05
4.92871e-06
3.63225e-07
3.14566e-07
3.77908e-07
1.39158e-07
1.36963e-08
1.03492e-08
1.88334e-08
1.48762e-08
2.38987e-08
1.65736e-07
3.51884e-07
3.517e-07
1.52363e-07
5.52014e-08
5.54107e-08
1.60421e-05
4.32167e-05
4.27103e-05
3.53873e-05
2.647e-05
4.41643e-05
4.40221e-05
4.42866e-05
1.20207e-05
2.15321e-08
2.08524e-07
5.22618e-08
1.2375e-08
2.14826e-06
1.95575e-08
4.36691e-08
7.9684e-08
1.99083e-07
3.46752e-07
3.03375e-07
4.90284e-08
4.91563e-08
8.59704e-08
2.23538e-05
4.25398e-05
4.28356e-05
4.18646e-05
2.94517e-05
1.77418e-05
3.60014e-05
3.78908e-05
3.24309e-05
2.25601e-08
3.28809e-08
1.90823e-07
8.25461e-06
2.07232e-05
1.68554e-08
4.73325e-08
9.35e-08
1.57004e-07
2.53354e-07
1.91584e-07
5.05046e-08
5.77077e-08
5.73617e-08
3.62748e-06
2.30791e-05
2.40913e-05
1.54059e-08
1.62647e-08
9.09089e-07
1.92818e-05
2.46471e-05
5.87279e-06
8.16783e-07
1.16961e-08
1.25818e-06
1.89076e-05
2.08911e-05
1.38441e-08
3.30194e-08
6.48169e-08
7.46326e-08
5.75839e-08
6.73135e-08
7.00552e-08
1.30938e-07
1.95031e-07
4.25002e-09
4.56266e-09
7.17289e-09
1.83879e-08
3.39003e-08
1.0394e-08
1.04153e-08
1.04674e-08
1.04947e-08
8.42729e-08
1.11725e-08
6.81968e-07
5.51603e-06
9.40846e-06
9.98778e-09
1.84194e-08
2.60331e-08
2.62633e-08
2.84791e-08
2.95762e-08
3.6065e-08
1.52851e-08
6.98571e-09
4.31884e-09
5.52364e-09
1.38736e-08
4.18689e-08
5.189e-08
2.94474e-08
1.05195e-08
1.23674e-08
1.46642e-08
1.73462e-08
1.59605e-08
7.44056e-08
9.4819e-08
1.41679e-07
6.42221e-09
1.446e-08
1.92115e-08
1.95583e-08
1.53836e-08
1.04217e-08
7.94572e-09
5.738e-09
4.33811e-09
4.3558e-09
5.09886e-09
6.69945e-09
1.02155e-08
1.41585e-08
1.48693e-08
1.28569e-08
1.22877e-08
1.49156e-08
1.41988e-08
7.15639e-09
1.00822e-08
1.12644e-07
3.18618e-07
4.50316e-09
1.1549e-08
1.60694e-08
1.67727e-08
1.46268e-08
1.19919e-08
7.65725e-09
5.65864e-09
4.48639e-09
3.82784e-09
3.43283e-09
3.25188e-09
3.25819e-09
3.9484e-09
5.10497e-09
6.13908e-09
7.00699e-09
8.58285e-09
8.73522e-09
4.36855e-09
4.44531e-09
1.91805e-07
4.38164e-07
3.57828e-09
8.42472e-09
1.10659e-08
1.16211e-08
1.02329e-08
7.98328e-09
5.81405e-09
4.15791e-09
3.13345e-09
2.50648e-09
2.10928e-09
1.8829e-09
1.86533e-09
2.02937e-09
2.36096e-09
2.8446e-09
3.49894e-09
4.17596e-09
4.27393e-09
3.25838e-09
6.40782e-09
6.0143e-08
3.62291e-07
3.1301e-09
6.95209e-09
8.45531e-09
7.95446e-09
6.54837e-09
4.75048e-09
3.26135e-09
2.2625e-09
1.66186e-09
1.30694e-09
1.10237e-09
1.01662e-09
1.01926e-09
1.1184e-09
1.30992e-09
1.59238e-09
1.96585e-09
2.38544e-09
2.67901e-09
2.82657e-09
2.81142e-09
2.6993e-08
1.18994e-07
2.85827e-09
4.79327e-09
5.16798e-09
4.46618e-09
3.60919e-09
2.59674e-09
1.73678e-09
1.19746e-09
8.70427e-10
6.70085e-10
5.51626e-10
5.00684e-10
5.14114e-10
5.88285e-10
7.24191e-10
9.20667e-10
1.18547e-09
1.51512e-09
1.9043e-09
2.3061e-09
3.01867e-09
7.01122e-09
2.87081e-08
2.74653e-09
3.79256e-09
3.82545e-09
3.11825e-09
2.15826e-09
1.48422e-09
1.00877e-09
7.31668e-10
5.53278e-10
4.2369e-10
3.30628e-10
2.73451e-10
2.57336e-10
2.85122e-10
3.59071e-10
4.73699e-10
6.51973e-10
9.09837e-10
1.15838e-09
1.50429e-09
1.99802e-09
4.08821e-09
8.33762e-09
2.62138e-09
2.95486e-09
2.71875e-09
2.15792e-09
1.53779e-09
1.03523e-09
7.19318e-10
5.88684e-10
4.83691e-10
3.83322e-10
2.91265e-10
2.1532e-10
1.67301e-10
1.54487e-10
1.78723e-10
2.41045e-10
3.42042e-10
4.86123e-10
6.652e-10
8.7236e-10
1.24561e-09
1.74267e-09
3.40514e-09
2.5249e-09
2.4149e-09
2.1388e-09
1.71402e-09
1.23845e-09
8.63079e-10
6.90536e-10
6.14744e-10
5.26536e-10
4.30365e-10
3.25561e-10
2.26722e-10
1.51747e-10
1.08239e-10
9.7673e-11
1.18833e-10
1.70196e-10
2.52239e-10
3.59201e-10
4.83595e-10
6.34924e-10
1.00495e-09
1.42713e-09
2.48384e-09
2.18284e-09
1.95595e-09
1.70769e-09
1.349e-09
8.35816e-10
7.40961e-10
6.94274e-10
5.79077e-10
4.84206e-10
3.72788e-10
2.62153e-10
1.68444e-10
1.01525e-10
6.78677e-11
6.25144e-11
8.28365e-11
1.25678e-10
1.87399e-10
2.67299e-10
3.64079e-10
4.79761e-10
7.38449e-10
2.48607e-09
2.10135e-09
2.01839e-09
2.17719e-09
1.88997e-09
8.34171e-10
8.73508e-10
8.33752e-10
6.06717e-10
5.11989e-10
4.01132e-10
2.89892e-10
1.89594e-10
1.11649e-10
6.21227e-11
4.05557e-11
4.23089e-11
6.31328e-11
9.79914e-11
1.44829e-10
2.11743e-10
3.2727e-10
4.24308e-10
2.53456e-09
2.15359e-09
2.37837e-09
3.21655e-09
3.23909e-09
8.95987e-10
1.1863e-09
1.07272e-09
5.71507e-10
4.76936e-10
3.91534e-10
2.95151e-10
1.99813e-10
1.20352e-10
6.45751e-11
3.43097e-11
2.52242e-11
3.2688e-11
5.2928e-11
8.32318e-11
1.43123e-10
1.96243e-10
3.03504e-10
2.56414e-09
2.28207e-09
2.73422e-09
3.91048e-09
4.0962e-09
1.32467e-09
2.0169e-09
1.25797e-09
4.73122e-10
4.19647e-10
3.48428e-10
2.71431e-10
1.9129e-10
1.20503e-10
6.65028e-11
3.31819e-11
1.87403e-11
1.9154e-11
3.06081e-11
5.09303e-11
8.45792e-11
1.54211e-10
2.084e-10
3.00395e-09
3.88757e-09
5.60356e-09
7.97923e-09
3.25554e-09
4.03821e-09
7.90592e-09
8.92801e-10
3.91235e-10
3.57836e-10
2.88445e-10
2.27848e-10
1.65457e-10
1.09022e-10
6.36632e-11
3.22255e-11
1.5828e-11
1.22653e-11
1.84462e-11
3.32256e-11
6.42158e-11
1.00327e-10
1.64969e-10
3.73897e-09
1.19368e-08
6.95166e-08
8.5919e-08
6.60653e-09
1.86299e-08
2.33731e-08
3.57681e-10
3.55322e-10
2.96721e-10
2.2373e-10
1.76304e-10
1.29038e-10
8.68683e-11
5.425e-11
2.90456e-11
1.38065e-11
8.46203e-12
1.12876e-11
2.04539e-11
3.91285e-11
8.10894e-11
1.16817e-10
3.79708e-09
9.41571e-09
1.01917e-07
1.47139e-07
1.22493e-08
3.80566e-08
2.80745e-08
1.98579e-09
3.48332e-10
2.37677e-10
1.5692e-10
1.23445e-10
9.11221e-11
6.32309e-11
4.09529e-11
2.3513e-11
1.15528e-11
6.01351e-12
6.57339e-12
1.2712e-11
2.65254e-11
4.63046e-11
8.91628e-11
4.26038e-09
4.46165e-09
3.84194e-08
1.49307e-07
4.21062e-08
4.37707e-08
2.43317e-08
3.84686e-09
4.65674e-10
1.79051e-10
1.08484e-10
8.32919e-11
5.99659e-11
4.05702e-11
2.68117e-11
1.66001e-11
8.8632e-12
4.3554e-12
3.73065e-12
6.86803e-12
1.38244e-11
3.44008e-11
5.30583e-11
9.51927e-09
3.17854e-08
1.52986e-07
1.57897e-07
1.05157e-07
1.00131e-07
1.90425e-08
4.10494e-09
7.22038e-10
1.51776e-10
6.9953e-11
5.24119e-11
3.62481e-11
2.33367e-11
1.51459e-11
9.89003e-12
5.84647e-12
2.99893e-12
2.12485e-12
3.62724e-12
7.54611e-12
1.57213e-11
3.34185e-11
1.0969e-08
1.36314e-07
6.56768e-07
2.74515e-07
1.10196e-07
9.90147e-08
3.78519e-08
6.44476e-09
1.10042e-09
1.50028e-10
4.31025e-11
3.07546e-11
2.04701e-11
1.21845e-11
7.39514e-12
4.87912e-12
3.20358e-12
1.85128e-12
1.1975e-12
1.8863e-12
4.10232e-12
9.44054e-12
1.7047e-11
1.8801e-08
3.01822e-07
8.37284e-07
6.9594e-07
1.07387e-07
9.85742e-08
3.98266e-08
9.20237e-09
1.46821e-09
1.78092e-10
2.60939e-11
1.67308e-11
1.08169e-11
5.88192e-12
3.17038e-12
1.96017e-12
1.37288e-12
9.24448e-13
5.95488e-13
7.66802e-13
1.65853e-12
3.53103e-12
9.08424e-12
1.79008e-08
3.45987e-07
8.38033e-07
8.25803e-07
1.3557e-07
7.91369e-08
3.14521e-08
9.90229e-09
1.78856e-09
1.86161e-10
1.63176e-11
8.19374e-12
5.2421e-12
2.66316e-12
1.23733e-12
6.54745e-13
4.45213e-13
3.42705e-13
2.64523e-13
3.09268e-13
7.04082e-13
1.65337e-12
3.43582e-12
1.62513e-08
2.89512e-07
8.38063e-07
8.37449e-07
1.43933e-07
5.79587e-08
2.52361e-08
8.04586e-09
1.45135e-09
1.61191e-10
9.38413e-12
3.29861e-12
2.23324e-12
1.09624e-12
4.44115e-13
1.83441e-13
1.07728e-13
9.01934e-14
9.06251e-14
1.0854e-13
2.42149e-13
4.94673e-13
1.28091e-12
1.26666e-08
1.7048e-07
8.38063e-07
5.53345e-07
1.23866e-07
4.98703e-08
1.96644e-08
5.2779e-09
9.66596e-10
8.93355e-11
4.12246e-12
1.0609e-12
7.59886e-13
3.80877e-13
1.42779e-13
4.70528e-14
2.00333e-14
1.60947e-14
2.09192e-14
3.1418e-14
5.87194e-14
1.94552e-13
4.19391e-13
6.33785e-09
1.33929e-07
8.38063e-07
3.24148e-07
9.01123e-08
3.55404e-08
1.1706e-08
2.65513e-09
3.38436e-10
2.25341e-11
7.44671e-13
2.1301e-13
1.7548e-13
9.406e-14
3.47766e-14
9.66917e-15
2.77285e-15
1.95661e-15
3.49011e-15
7.887e-15
1.81488e-14
4.81346e-14
1.31154e-13
4.40207e-09
1.03585e-07
4.44947e-07
1.17186e-07
3.25571e-08
1.16578e-08
3.01652e-09
4.34918e-10
3.02941e-11
9.21371e-13
2.23991e-14
2.0301e-14
2.01647e-14
1.20717e-14
4.68153e-15
1.16414e-15
2.4178e-16
1.51491e-16
4.31724e-16
1.65488e-15
5.10955e-15
1.48816e-14
3.62619e-14
0.0195069
0.0224816
0.0224833
0.019802
0.00110798
0.00159599
0.00162859
0.00166528
0.188876
0.280744
0.431585
0.596752
0.886594
0.944639
0.980344
0.99307
0.999141
0.998941
0.998643
0.998703
0.999146
0.999143
0.999146
0.999141
0.998086
0.999146
0.99303
0.976667
0.557517
0.493743
0.447174
0.391374
0.0139048
0.00304987
0.00093344
1.76261e-18
2.55611e-10
1.06252e-20
4.50614e-20
6.47182e-16
3.80648e-09
2.61348e-10
-4.62891e-20
1.17563e-17
-1.81686e-11
-4.81106e-12
5.26624e-06
1.20635e-06
1.74842e-07
1.00348e-05
2.07987e-05
1.83299e-05
1.62842e-05
2.08846e-05
2.09002e-05
2.08756e-05
2.0891e-05
2.08957e-05
2.0899e-05
2.09044e-05
2.09049e-05
2.08961e-05
2.09067e-05
1.34699e-05
1.04126e-05
1.4305e-05
1.32124e-05
1.01927e-05
2.68488e-07
4.60527e-07
6.26867e-06
1.01594e-05
1.6386e-07
1.61753e-07
1.27836e-06
4.58634e-06
4.3431e-07
3.17884e-07
4.2242e-08
4.23122e-08
4.38421e-07
3.45482e-07
1.0592e-07
4.64418e-08
1.66898e-07
2.44406e-07
1.21897e-07
8.56362e-08
2.40615e-08
4.25745e-08
7.82341e-08
6.10238e-08
8.51955e-09
1.42215e-08
2.74139e-08
2.97851e-08
3.641e-09
3.48645e-09
8.08571e-09
9.93655e-09
1.74663e-09
1.90869e-09
2.53694e-09
3.55069e-09
8.66472e-10
8.73116e-10
1.18574e-09
1.41563e-09
5.19815e-10
5.89821e-10
6.67724e-10
7.99218e-10
3.68007e-10
4.09787e-10
5.07128e-10
5.45745e-10
2.80575e-10
3.39975e-10
3.81385e-10
4.46596e-10
2.1497e-10
2.56955e-10
3.17315e-10
3.46585e-10
1.68035e-10
2.06334e-10
2.36355e-10
2.78897e-10
1.1872e-10
1.40436e-10
1.71736e-10
1.84403e-10
8.29666e-11
9.52358e-11
1.09856e-10
1.35889e-10
4.68262e-11
5.45687e-11
6.78721e-11
7.38091e-11
2.59602e-11
3.06698e-11
3.4947e-11
4.30465e-11
1.25026e-11
1.44885e-11
1.79418e-11
2.00937e-11
5.44693e-12
6.28443e-12
7.01427e-12
8.63334e-12
1.93057e-12
2.13064e-12
2.67179e-12
3.00917e-12
6.1861e-13
7.35244e-13
7.98294e-13
9.51306e-13
1.84904e-13
1.96104e-13
2.2532e-13
2.46423e-13
4.64853e-14
4.51262e-14
4.68156e-14
4.53004e-14
0.0087686
0.00370725
0.00408728
0.00611325
0.0533439
0.0828325
0.0575097
0.0224523
0.0217538
0.101725
0.273697
0.0759934
0.072564
0.347759
0.434735
0.101305
0.0256508
0.0244439
0.0295427
0.0258453
0.0641315
0.0873509
0.0763073
0.0375221
0.0307761
0.021093
0.0210154
0.0971608
0.382261
0.475744
0.111221
0.0711941
0.0781297
0.107675
0.0210358
0.0210694
0.0243701
0.0242834
0.646295
0.507288
0.377251
0.26318
0.205868
0.374739
0.504828
0.609396
0.85659
0.870996
0.85439
0.833786
0.743581
0.460014
0.280914
0.210569
0.152191
0.145074
0.153259
0.963282
0.738549
0.722203
0.933255
0.979717
0.989203
0.989872
0.992187
0.988407
0.923469
0.878323
0.930086
0.996516
0.997479
0.974212
0.915251
0.915387
0.969508
0.98595
0.969091
0.833942
0.865764
0.998
0.998001
0.998
0.998001
0.998
0.997999
0.985132
0.947459
0.958546
0.997815
0.997816
0.997817
0.997818
0.997818
0.996203
0.993687
0.999102
0.90836
0.854572
0.94121
0.994652
0.998001
0.998
0.997997
0.99788
0.997878
0.997881
0.997487
0.997814
0.997815
0.997816
0.997816
0.997816
0.997761
0.968634
0.937926
0.835213
0.748429
0.759471
0.819407
0.90523
0.936214
0.93473
0.916409
0.923135
0.95688
0.970239
0.946496
0.921375
0.886016
0.874409
0.814334
0.595907
0.398201
0.329034
0.271108
0.212996
0.193437
0.218747
0.22375
0.206574
0.176723
0.154058
0.185844
0.22843
0.250668
0.215196
0.183809
0.144593
0.141822
0.0782348
2.32379e-07
0.00215164
1.3369e-18
-1.33244e-19
-1.80971e-19
-1.56294e-14
-4.47122e-16
3.91901e-09
8.33425e-07
6.34662e-07
9.69362e-06
1.20742e-12
-1.035e-09
3.3207e-28
-3.84322e-24
1.47325e-12
1.18656e-12
8.82571e-11
9.61849e-11
4.63665e-07
2.33505e-07
5.22232e-11
2.86086e-12
4.71833e-15
5.23373e-11
-1.15757e-13
1.83366e-06
8.74955e-05
0.000186189
0.000153016
2.46315e-05
1.32124e-06
7.47695e-09
6.27677e-06
3.39753e-05
7.39965e-05
4.6729e-05
2.80236e-05
3.47884e-05
4.87147e-05
1.1508e-09
2.57607e-10
3.25752e-15
4.78316e-09
7.82275e-10
7.36261e-05
0.000223122
0.000221966
0.000222507
6.36788e-05
1.96677e-11
6.60472e-27
5.56957e-06
6.91461e-05
0.00012036
0.000120235
5.99658e-05
6.84826e-05
0.000109976
2.6188e-10
2.52673e-10
9.86998e-09
2.23053e-08
-4.42739e-12
0.000141402
0.00021979
0.000220281
0.000164613
9.80164e-06
6.51716e-17
-6.21816e-17
9.13487e-21
9.82654e-05
0.000118768
0.000117856
9.10975e-05
9.65097e-05
0.000110116
6.73647e-07
9.32177e-08
5.45555e-08
2.50695e-08
2.24911e-26
8.38734e-05
0.000210823
0.000203419
9.16812e-05
1.39041e-07
1.37388e-07
1.8668e-05
1.07464e-07
2.99213e-05
0.000118203
6.33215e-05
3.14063e-06
4.52608e-06
2.82385e-05
4.17037e-06
5.96018e-08
4.05301e-08
1.89145e-08
2.24405e-14
4.1182e-05
4.25998e-05
7.99611e-05
4.2281e-05
1.40452e-07
7.80548e-05
0.000105712
0.000106105
2.44645e-05
3.2079e-05
3.34091e-06
3.34789e-06
2.2508e-06
5.91955e-06
1.2695e-05
4.5695e-06
1.32428e-07
1.88345e-08
5.67084e-05
2.85787e-05
3.1874e-06
5.10835e-06
6.77268e-05
8.80532e-05
9.66618e-05
8.01836e-05
7.61728e-05
2.32428e-05
2.64146e-05
5.51593e-06
3.82794e-06
2.25248e-06
7.64675e-06
8.20637e-06
8.03284e-06
1.43357e-07
1.01686e-06
8.14695e-05
3.16957e-05
3.18661e-06
6.91523e-06
1.8617e-05
2.42576e-05
2.21637e-05
2.03483e-05
2.33399e-05
2.48207e-05
8.18012e-06
5.11072e-06
1.05027e-05
3.70645e-06
1.25922e-05
4.73939e-06
4.75348e-06
2.33862e-05
7.4633e-05
7.55297e-05
8.72897e-06
3.07305e-06
3.09931e-06
4.52069e-06
1.0752e-05
1.68433e-05
1.6047e-05
1.76807e-05
1.4734e-05
3.43274e-06
3.57176e-06
2.01525e-05
7.58703e-06
1.25199e-05
1.17009e-06
2.46912e-06
5.58405e-05
8.39607e-05
3.01089e-05
3.06926e-06
3.07037e-06
3.66824e-06
4.76774e-06
6.92247e-06
8.06383e-06
1.75456e-05
2.252e-05
1.43697e-05
3.44886e-06
3.33524e-06
2.01498e-05
9.63386e-06
2.70613e-06
2.4415e-07
1.57984e-06
2.6986e-05
7.04898e-05
9.48577e-06
3.09929e-06
3.07129e-06
5.476e-06
5.94025e-06
3.8263e-06
2.67171e-06
2.90662e-05
3.57465e-05
3.57421e-05
2.56244e-05
4.11035e-06
2.01525e-05
1.94033e-05
3.3285e-07
4.26346e-08
5.81364e-07
1.37042e-07
3.26495e-06
3.30627e-08
6.134e-06
1.05057e-05
1.08727e-05
1.08636e-05
9.0231e-06
4.58733e-07
1.26367e-08
1.14931e-05
3.5269e-05
3.52236e-05
2.61226e-05
8.27767e-06
1.94092e-05
1.25385e-06
4.47953e-08
2.68611e-08
2.68466e-08
2.67979e-08
2.68469e-08
1.93936e-06
4.87791e-06
8.69437e-06
7.26842e-06
2.31052e-06
1.26367e-08
1.263e-08
1.26365e-08
1.79434e-06
2.8793e-05
2.25096e-05
2.62914e-06
1.30129e-05
2.29753e-06
4.25026e-08
2.69242e-08
2.93886e-08
3.85679e-08
7.7213e-08
3.29681e-08
3.69119e-08
2.01832e-07
9.83966e-08
3.11509e-08
3.07504e-08
2.85483e-08
2.00655e-08
1.1087e-08
1.10719e-08
1.10722e-08
1.2538e-06
2.7327e-06
1.75892e-06
3.34789e-08
2.83699e-08
4.96512e-08
4.97052e-08
4.54503e-08
3.28799e-08
3.18741e-08
2.99088e-08
2.83882e-08
2.56557e-08
2.64246e-08
2.98373e-08
2.72167e-08
2.09835e-08
1.11229e-08
1.10609e-08
4.80662e-07
2.8901e-06
1.25735e-06
1.9392e-08
2.12734e-08
3.15528e-08
3.52173e-08
3.01426e-08
2.83723e-08
2.72211e-08
2.62284e-08
2.44693e-08
2.21571e-08
2.2876e-08
2.9144e-08
4.06704e-08
4.21649e-08
1.55215e-08
1.10642e-08
1.16506e-06
2.99403e-06
1.18865e-06
8.52128e-09
1.02927e-08
1.34847e-08
1.47925e-08
1.41215e-08
1.34316e-08
1.28031e-08
1.25688e-08
1.28625e-08
1.3527e-08
1.66191e-08
2.62971e-08
4.03191e-08
4.21639e-08
1.55647e-08
1.10563e-08
1.05887e-06
1.98979e-06
5.11407e-07
3.81301e-09
4.31729e-09
4.71354e-09
4.94487e-09
4.91644e-09
4.90266e-09
5.18727e-09
5.895e-09
6.89732e-09
8.43432e-09
1.1241e-08
1.76834e-08
2.84921e-08
2.52038e-08
2.67037e-08
1.36224e-07
4.46942e-07
3.5525e-07
9.71967e-08
1.66732e-09
1.772e-09
1.90261e-09
2.04045e-09
2.22942e-09
2.5391e-09
3.01804e-09
3.73463e-09
4.86842e-09
6.53617e-09
9.20647e-09
1.28132e-08
1.84769e-08
1.8479e-08
3.47627e-08
2.46884e-07
1.81822e-07
8.82321e-08
8.90906e-08
8.67047e-10
9.82143e-10
1.12931e-09
1.31895e-09
1.5924e-09
1.98916e-09
2.55372e-09
3.31325e-09
4.37196e-09
5.89991e-09
8.31372e-09
1.1307e-08
1.51643e-08
2.1216e-08
4.61518e-08
2.54639e-07
1.37322e-07
1.12027e-07
6.61535e-08
6.14868e-10
7.36412e-10
8.9875e-10
1.11878e-09
1.44626e-09
1.92099e-09
2.60598e-09
3.55443e-09
4.72224e-09
6.08895e-09
7.96474e-09
9.3095e-09
1.21442e-08
3.47252e-08
7.15732e-08
1.927e-07
1.41582e-07
8.35383e-08
5.33725e-08
4.9114e-10
6.13663e-10
7.83073e-10
1.02174e-09
1.40879e-09
2.02213e-09
2.97121e-09
4.32018e-09
6.00581e-09
7.74332e-09
9.83986e-09
9.88121e-09
1.10901e-08
5.51517e-08
8.51583e-08
9.02405e-08
6.2859e-08
3.21662e-08
4.23095e-08
4.08136e-10
5.19992e-10
6.80597e-10
9.34249e-10
1.36895e-09
2.14455e-09
3.56231e-09
5.76193e-09
8.60732e-09
1.14841e-08
1.46482e-08
1.29447e-08
1.1838e-08
4.59527e-08
6.67712e-08
4.8085e-08
3.64633e-08
2.76469e-08
4.40544e-08
3.03222e-10
4.23909e-10
5.66385e-10
8.28604e-10
1.32449e-09
2.26166e-09
4.09736e-09
7.30646e-09
1.1938e-08
1.87103e-08
3.24777e-08
3.07756e-08
1.21262e-08
2.67502e-08
5.01089e-08
2.51109e-08
2.50924e-08
3.72726e-08
4.26787e-08
2.3484e-10
3.09365e-10
4.4153e-10
6.97878e-10
1.22382e-09
2.32796e-09
4.60525e-09
8.9114e-09
1.59923e-08
3.06985e-08
7.77374e-08
1.17912e-07
3.40697e-08
1.82437e-08
3.19397e-08
4.63175e-08
4.81697e-08
7.58851e-08
4.96641e-08
1.51975e-10
2.11695e-10
3.185e-10
5.45645e-10
1.06196e-09
2.24066e-09
4.83186e-09
9.98623e-09
1.90294e-08
4.3199e-08
1.38965e-07
4.53209e-07
3.21331e-07
1.82289e-08
2.47365e-08
8.06827e-08
1.18298e-07
2.22965e-07
1.08995e-06
9.34875e-11
1.27437e-10
2.06266e-10
3.86043e-10
8.33059e-10
1.92659e-09
4.51479e-09
9.98646e-09
2.05212e-08
4.60458e-08
1.36728e-07
5.20318e-07
4.14287e-06
4.78722e-06
2.60375e-08
6.88758e-08
2.29575e-07
3.62968e-07
2.74026e-06
4.89104e-11
6.99382e-11
1.17643e-10
2.3774e-10
5.64162e-10
1.446e-09
3.64792e-09
8.61236e-09
1.86142e-08
4.44599e-08
1.37501e-07
4.40808e-07
4.43167e-06
6.31262e-06
3.88601e-06
6.82897e-08
1.80379e-07
4.14231e-07
2.74026e-06
2.31861e-11
3.3497e-11
5.81633e-11
1.27916e-10
3.33563e-10
9.09405e-10
2.46076e-09
6.25774e-09
1.43432e-08
3.24923e-08
8.08986e-08
2.34615e-07
1.25724e-06
6.04736e-06
6.3524e-06
1.54566e-06
1.72951e-07
2.74932e-07
2.65952e-06
9.71588e-12
1.3907e-11
2.44103e-11
5.61927e-11
1.58641e-10
4.79815e-10
1.40993e-09
3.85312e-09
9.40766e-09
2.07377e-08
4.8291e-08
1.18451e-07
3.20363e-07
2.23243e-06
6.35724e-06
6.12675e-06
1.72799e-07
2.47921e-07
1.24649e-06
3.51827e-12
4.87331e-12
8.3726e-12
1.90285e-11
5.73114e-11
1.9343e-10
6.42157e-10
1.93613e-09
5.16581e-09
1.2081e-08
2.65059e-08
5.86161e-08
1.27492e-07
2.41626e-07
3.3188e-06
6.31993e-06
5.25759e-06
4.07431e-07
1.98741e-06
1.05141e-12
1.37139e-12
2.29409e-12
5.16917e-12
1.59681e-11
6.00793e-11
2.34266e-10
8.36827e-10
2.60642e-09
7.18091e-09
1.76895e-08
4.03726e-08
8.62801e-08
1.76631e-07
4.21214e-07
3.32757e-06
4.81895e-06
2.52098e-06
2.05644e-06
2.54016e-13
3.13058e-13
4.69997e-13
9.38028e-13
2.64484e-12
1.01162e-11
4.50553e-11
1.98567e-10
7.82035e-10
2.66547e-09
7.84948e-09
2.14281e-08
5.36864e-08
1.15428e-07
2.40674e-07
3.94257e-07
9.25502e-07
1.27353e-06
5.53066e-07
4.32427e-14
4.79025e-14
6.56685e-14
1.15966e-13
2.6482e-13
8.19765e-13
3.42465e-12
1.68136e-11
8.08219e-11
3.3419e-10
1.13617e-09
3.59511e-09
1.13136e-08
3.63932e-08
8.90976e-08
1.13015e-07
1.174e-07
1.19929e-07
1.04717e-07
)
;

boundaryField
{
    leftWall
    {
        type            zeroGradient;
    }
    rightWall
    {
        type            zeroGradient;
    }
    lowerWall
    {
        type            zeroGradient;
    }
    atmosphere
    {
        type            inletOutlet;
        inletValue      uniform 0;
        value           nonuniform List<scalar> 
46
(
4.40207e-09
1.03585e-07
4.44947e-07
0
0
0
0
0
0
0
0
0
0
0
0
0
0
0
0
1.65488e-15
5.10955e-15
1.48816e-14
3.62619e-14
4.64853e-14
4.51263e-14
4.68156e-14
4.53004e-14
4.32427e-14
4.79025e-14
6.56685e-14
0
0
0
3.42465e-12
1.68136e-11
8.08219e-11
3.3419e-10
1.13617e-09
3.59511e-09
1.13136e-08
3.63932e-08
8.90977e-08
1.13015e-07
1.174e-07
1.19929e-07
1.04717e-07
)
;
    }
    defaultFaces
    {
        type            empty;
    }
}


// ************************************************************************* //
