/*--------------------------------*- C++ -*----------------------------------*\
| =========                 |                                                 |
| \\      /  F ield         | OpenFOAM: The Open Source CFD Toolbox           |
|  \\    /   O peration     | Version:  2312                                  |
|   \\  /    A nd           | Website:  www.openfoam.com                      |
|    \\/     M anipulation  |                                                 |
\*---------------------------------------------------------------------------*/
FoamFile
{
    version     2.0;
    format      ascii;
    arch        "LSB;label=32;scalar=64";
    class       volScalarField;
    location    "5";
    object      alpha.air;
}
// * * * * * * * * * * * * * * * * * * * * * * * * * * * * * * * * * * * * * //

dimensions      [0 0 0 0 0 0 0];

internalField   nonuniform List<scalar> 
2268
(
9.89723e-10
9.87091e-10
9.43869e-10
9.42653e-10
9.42031e-10
8.41626e-10
4.98567e-10
2.31796e-10
1.27773e-10
1.0621e-10
1.05845e-10
1.08391e-10
1.20825e-10
1.37899e-10
1.64343e-10
2.01099e-10
2.42379e-10
2.59748e-10
2.33915e-10
2.34065e-10
8.94745e-08
4.69745e-07
5.75935e-07
1.29179e-09
1.33708e-09
1.56385e-09
2.60304e-09
3.94058e-09
5.22624e-09
4.05768e-09
1.15711e-09
6.90334e-10
6.80123e-10
5.60373e-10
5.12487e-10
5.23867e-10
5.49221e-10
5.53212e-10
7.02218e-10
1.13823e-09
1.42797e-09
7.27871e-10
2.33535e-10
2.714e-07
7.30597e-07
7.30454e-07
2.40743e-09
2.32276e-09
2.29865e-09
2.17697e-09
6.85305e-09
1.42001e-08
1.43958e-08
1.3492e-08
5.10029e-09
2.36726e-09
2.31157e-09
1.52183e-09
1.32366e-09
1.35094e-09
5.53689e-10
5.54713e-10
6.56962e-10
3.3016e-09
1.57463e-09
2.73131e-08
6.70128e-08
1.14008e-07
1.20298e-07
1.94994e-09
1.95549e-09
1.98716e-09
2.0388e-09
2.42316e-09
2.85205e-09
3.48257e-09
6.95619e-09
1.69602e-09
1.54552e-09
1.50817e-09
1.50811e-09
1.90354e-09
1.34558e-08
1.2343e-07
3.1996e-07
2.96425e-09
1.9394e-09
1.57875e-09
1.58328e-09
1.5882e-09
1.59353e-09
1.59936e-09
0.000102883
0.000134995
0.000249649
0.000360896
0.000254215
5.39189e-05
2.11598e-09
2.24562e-09
1.31101e-06
2.06485e-06
7.7126e-08
2.08143e-06
3.09838e-08
1.30971e-08
1.62311e-06
5.53655e-06
1.48481e-05
1.5887e-06
3.40412e-05
0.000107512
0.000262879
0.000408994
0.000397997
0.00130154
0.00131464
0.00132773
0.00132773
0.00132776
0.00129215
0.000938168
0.000207901
1.3094e-06
3.81606e-05
0.000146855
0.000160538
7.10576e-05
1.65114e-05
1.42894e-06
1.43027e-06
0.000726271
0.00375807
0.00604731
0.00666013
0.00755517
0.00809193
0.00796366
0.00049612
0.000665916
0.000748976
0.00112666
0.00132776
0.00132777
0.00132775
0.00124577
0.000385533
3.76029e-05
0.000116863
0.000161815
0.000159533
5.83176e-05
1.43363e-06
1.42894e-06
0.00116854
0.00756047
0.0100301
0.0100067
0.0101103
0.0103571
0.010358
0.000238631
0.000238689
0.000238633
0.000241376
0.000382992
0.000479926
0.000465934
0.000337868
0.000258546
7.22517e-05
7.2457e-05
8.72037e-05
0.000104186
7.25503e-05
4.48963e-05
1.88312e-05
1.87872e-05
0.00117797
0.00176239
0.00138387
0.00174507
0.0050511
0.00774205
0.000232209
0.000498384
0.00499286
0.00735897
0.00749776
0.0075004
0.00491302
0.00272804
0.0021235
0.0020987
0.00209644
0.00209729
0.00209692
0.00209742
0.00209745
0.00259016
0.00400118
0.00406779
0.00407593
0.000230152
0.000230158
0.000237885
0.00116926
0.00136725
0.00248277
0.00780701
0.00821408
0.00624902
0.00351996
0.002125
0.00209644
0.00209741
0.00209696
0.00209757
0.00238229
0.0043738
0.00571994
0.00576975
0.00537013
0.00654141
0.0103577
0.0121336
0.0111372
0.00888599
0.00933977
0.0157327
0.0163985
0.0123651
0.00626876
0.00455781
0.00282585
0.00221117
0.00619646
0.0138412
0.013908
0.00570461
0.00993903
0.0126235
0.0154104
0.0234861
0.0234883
0.0243872
0.0303828
0.0199033
0.0162891
0.0163749
0.0143236
0.018965
0.0183449
0.0180269
0.0175109
0.0208777
0.0333777
0.0149322
0.0176914
0.0213433
0.00832495
0.00645397
0.015949
0.0155768
0.0083115
0.0312808
0.0254925
0.00964684
0.0114509
0.0178655
0.0470571
0.0163264
0.0126289
0.0111048
0.0230664
0.0595222
0.0742196
0.0738733
0.0204142
0.00497598
0.00345183
0.00383718
0.0018072
0.00176165
0.0129644
0.0294351
0.0112575
0.0166688
0.0867995
0.0987601
0.0244032
0.0147442
0.0170918
0.0717694
0.0720119
0.0741867
0.0806354
0.0196898
0.00423203
0.00251003
0.00195486
0.00176165
0.0017614
0.00176141
0.0292044
0.0162111
0.0190484
0.0981222
0.0994257
0.0631985
0.00544
0.0250768
0.0450973
0.0230906
0.0151078
0.0798851
0.0261909
0.00868976
0.00559103
0.00436008
0.00239364
0.00176164
0.00176198
0.010382
0.00595836
0.00277861
0.0532029
0.0988009
0.0634714
0.00286027
0.0144632
0.0137342
0.00486863
0.00921156
0.0718899
0.0781983
0.00373765
0.000254104
0.000254198
0.000250919
0.000212621
0.000200615
0.000194964
0.000191775
0.000191989
0.000210771
0.00022394
0.000193138
0.000155232
0.000162281
0.000141929
7.20236e-05
2.93617e-05
9.96883e-05
0.000254489
0.000498207
0.00113234
0.001254
0.00122124
0.039212
0.0193715
0.00402993
0.00189703
0.00574171
0.0210379
0.0322082
0.0272594
0.0146947
0.00457767
0.00148239
0.00134056
0.00060667
0.000233841
0.000224877
0.000221973
0.00143446
0.00703579
0.00854538
0.007315
0.00556188
0.00859059
0.0130367
0.0398142
0.0398142
0.0318168
0.00335761
0.00315897
0.0434583
0.076302
0.0763048
0.076302
0.0701588
0.0561346
0.0437078
0.0261144
0.0161329
0.0170471
0.0204364
0.0473883
0.0486417
0.0486426
0.0419961
0.039861
0.040138
0.0401394
0.0295257
0.0140611
0.017997
0.0137562
0.0112689
0.0114584
0.0684735
0.0763045
0.0763048
0.0762961
0.0762984
0.0664464
0.0436593
0.060598
0.0671226
0.0671226
0.0647385
0.0379436
0.017125
0.0292665
0.0401394
0.040142
0.02692
0.000430337
0.00043237
0.017331
0.018164
0.0134041
0.0477332
0.0763025
0.0763054
0.0404853
0.0139551
0.01694
0.0133299
0.00852844
0.0132283
0.0326746
0.0277993
0.00523785
0.000176323
0.00496598
0.00799827
0.0126355
0.00828246
0.00123793
0.000428303
0.00131713
0.000215038
0.00779939
0.000266626
0.000982799
0.0176087
0.00991867
7.03247e-05
0.000129493
0.000167601
0.000144743
4.70308e-05
5.55591e-05
0.000133475
0.000146835
0.000119607
4.54314e-05
1.50782e-05
1.53628e-05
0.000260623
0.000580069
0.000412354
0.000226069
0.000105139
5.33657e-05
9.80883e-24
6.63965e-05
2.74241e-16
1.32862e-23
-1.32937e-23
2.94013e-05
3.37095e-05
4.80433e-05
2.63781e-05
7.50711e-06
1.52641e-05
4.91579e-05
5.71739e-05
4.52709e-05
2.21323e-05
1.4795e-05
1.50671e-05
1.53521e-05
0.00026568
0.000281734
-1.60643e-07
-2.6729e-07
-1.05776e-07
-2.30946e-11
-7.02608e-08
3.70548e-13
-3.70821e-13
1.96542e-19
-7.45886e-08
-1.03891e-07
7.79023e-06
9.09044e-05
1.92231e-10
5.35632e-12
-4.10895e-17
-1.13757e-08
-6.44275e-08
4.23683e-21
-3.82542e-11
0.0796687
0.225151
0.217309
0.30097
0.1682
0.179786
0.19466
0.218311
0.256251
0.297081
0.32032
0.333413
0.343707
0.347716
0.345328
0.339827
0.33732
0.323003
0.305459
0.267007
0.209739
0.1811
0.274934
0.652368
0.903074
0.911029
0.943632
0.895339
0.908305
0.926023
0.943614
0.962775
0.980174
0.990518
0.99629
0.99709
0.997575
0.997196
0.997188
0.997576
0.999159
0.992943
0.979317
0.956824
0.930357
0.933443
0.975894
0.979304
0.982129
0.998022
0.999883
0.999943
0.99996
0.999999
0.999999
1
1
1
1
1
0.999999
0.99986
0.999987
0.999968
0.999993
0.999963
0.999837
0.999749
0.988798
0.980595
0.980583
0.98514
0.999341
1
1
1
1
1
1
1
0.999999
0.999999
0.999999
0.999998
0.999995
0.999997
0.999997
0.999995
0.999995
0.999997
0.999996
0.998258
0.991338
0.99149
0.997823
0.999993
1
1
1
1
1
0.999999
0.999999
0.999999
0.999999
0.999998
0.999985
0.999978
0.999995
0.999997
0.999984
0.999981
0.999992
0.999999
0.999999
0.999999
0.999997
0.999999
1
0.999999
1
1
1
0.999999
0.999999
0.999999
0.999998
0.999998
0.999982
0.999956
0.999956
0.999964
0.999971
0.999946
0.999945
0.999948
0.999985
0.999998
0.999997
0.999999
1
0.999998
1
1
1
1
1
1
0.999999
0.999998
0.999998
0.999976
0.999956
0.999956
0.999958
0.999966
0.999963
0.999945
0.999945
0.999949
0.999985
0.999998
0.999993
0.999978
0.999958
1
1
1
1
1
1
1
0.999999
0.999998
0.999996
0.999977
0.999976
1
1
0.999991
0.999961
0.999956
0.999976
0.999995
0.999998
0.999991
0.999958
0.999956
1
1
1
1
1
1
1
1
1
1
1
1
1
1
1
0.999998
0.999995
0.999997
1
0.999999
0.999998
0.999988
0.999978
1
1
1
1
1
1
1
1
1
1
1
1
1
1
1
1
1
1
1
1
1
1
0.999999
1
1
1
1
1
1
1
1
1
1
1
1
1
1
1
1
1
1
1
1
1
1
0.999999
1
1
1
1
1
1
1
1
1
1
1
1
1
1
1
1
1
1
1
1
1
0.999999
0.999999
1
1
1
1
1
1
1
1
1
1
1
1
1
1
1
1
1
1
1
1
1
1
0.999999
1
1
1
1
1
1
1
1
1
1
1
1
1
1
1
1
1
1
1
1
1
1
1
1
1
1
1
1
1
1
1
1
1
1
1
1
1
1
1
1
1
1
1
1
1
1
1
1
1
1
1
1
1
1
1
1
1
1
1
1
1
1
1
1
1
1
1
1
1
1
1
1
1
1
1
1
1
1
1
1
1
1
1
1
1
1
1
1
1
1
1
1
1
1
1
1
1
1
1
1
1
1
1
1
1
1
1
1
1
1
1
1
1
1
1
1
1
1
1
1
1
1
1
1
1
1
1
1
1
1
1
1
1
1
1
1
1
1
1
1
1
1
1
1
1
1
1
1
1
1
1
1
1
1
1
1
1
1
1
1
1
1
1
1
1
1
1
1
1
1
1
1
1
1
1
1
1
1
1
1
1
1
1
1
1
1
1
1
1
1
1
1
1
1
1
1
1
1
1
1
1
1
1
1
1
1
1
1
1
1
1
0.999999
1
1
1
1
1
1
1
1
1
1
1
1
1
1
1
1
1
1
1
1
1
0.999999
0.999999
1
1
1
1
1
1
1
1
1
1
1
1
1
1
1
1
1
1
1
1
1
0.999999
0.999999
1
1
1
1
1
1
1
1
1
1
1
1
1
1
1
1
1
1
1
1
0.999999
0.999999
0.999999
1
1
1
1
1
1
1
1
1
1
1
1
1
1
1
1
1
1
1
1
0.999999
0.999999
1
1
1
1
1
1
1
1
1
1
1
1
1
1
1
1
1
1
1
1
1
0.999999
0.999999
1
1
1
1
1
1
1
1
1
1
1
1
1
1
1
1
1
1
1
1
1
0.999999
0.999999
1
1
1
1
1
1
1
1
1
1
1
1
1
1
1
1
1
1
1
1
1
0.999999
0.999999
1
1
1
1
1
1
1
1
1
1
1
1
1
1
1
1
1
1
1
1
1
0.999999
0.999999
1
1
1
1
1
1
1
1
1
1
1
1
1
1
1
1
1
1
1
1
1
0.999999
0.999999
1
1
1
1
1
1
1
1
1
1
1
1
1
1
1
1
1
1
1
1
1
0.999999
1
1
1
1
1
1
1
1
1
1
1
1
1
1
1
1
1
1
1
1
1
1
1
1
1
1
1
1
1
1
1
1
1
1
1
1
1
1
1
1
1
1
1
0.00122812
0.00294413
0.00511473
0.00724283
0.011989
0.0119057
0.0244179
0.0324559
0.0337238
0.00642459
0.0072487
0.0079637
0.0107888
0.000202808
3.13103e-05
3.12938e-05
0.000361708
7.80837e-05
3.12993e-05
3.13048e-05
0.000393588
0.000578432
0.000603043
0.000589249
0.000296049
0.00066325
0.00689136
0.0232546
0.440111
0.504083
0.551452
0.607708
0.984522
0.995149
0.997939
0.999031
0.999798
0.999845
0.99985
0.99981
0.999963
1
1
1
1
1
0.999994
0.999997
1
0.999989
0.999964
0.999965
0.999974
0.999959
0.999954
0.999966
0.999955
0.999954
0.999954
0.999958
0.999956
0.999957
0.999949
0.999948
0.99998
0.999972
0.999948
0.999948
0.999999
0.999997
0.999964
0.999949
0.999999
0.999999
0.999994
0.999986
0.999999
0.999999
1
1
0.999999
0.999999
1
1
1
0.999999
1
1
1
1
1
1
1
1
1
1
1
1
1
1
1
1
1
1
1
1
1
1
1
1
1
1
1
1
1
1
1
1
1
1
1
1
1
1
1
1
1
1
1
1
1
1
1
1
1
1
1
1
1
1
1
1
1
1
1
1
1
1
1
1
1
1
1
1
1
1
1
1
1
1
1
1
1
1
1
1
1
1
0.0266857
0.0116707
0.00367829
0.00213114
0.00176146
0.00176136
0.00176146
0.00204443
0.00276352
0.0260987
0.0992451
0.0426743
0.00204908
0.00379103
0.0135178
0.00490604
0.0243158
0.0253618
0.0781983
0.0272781
0.00780992
0.0173128
0.0786729
0.0703459
0.0465742
0.0177713
0.0168491
0.0352402
0.0787403
0.0988224
0.0764699
0.000995747
0.00175898
0.0144956
0.0273943
0.027377
0.0263426
0.0416065
0.00754682
0.072488
0.188654
0.188619
0.180546
0.115917
0.0877551
0.0169751
0.0234657
0.076737
0.0990766
0.0633883
7.98579e-05
0.00178881
0.00417674
0.003628
0.0131453
0.0326886
0.0339309
0.0264256
0.186606
0.186269
0.0379134
0.00510782
0.00567327
0.00705038
0.00363799
0.00275954
0.0549944
0.0988009
0.0586048
7.96629e-05
7.95908e-05
7.95539e-05
0.000577234
0.00265553
0.00296299
0.00246673
0.0268596
0.13268
0.0559646
0.000620163
0.000470028
0.00049839
0.00080181
0.00124445
0.00128428
0.0124964
0.0490929
0.0409798
0.0016894
0.00133611
7.94208e-05
1.48299e-05
7.7055e-06
3.89317e-06
3.87122e-06
0.000648413
0.0530889
0.0696273
0.000456406
0.000454374
0.00115952
0.0016093
0.00132377
0.00128813
0.0014547
0.00191541
0.0024434
0.00195443
0.00190829
0.00176421
0.00133594
0.00107397
0.000111857
0.0235256
0.061995
0.141034
0.17955
0.168816
0.141563
0.0920239
0.0635774
0.0640233
0.0804525
0.0735705
0.0412062
0.0276462
0.0508606
0.0754573
0.109886
0.121923
0.181582
0.395226
0.591984
0.670556
0.725079
0.77367
0.788034
0.77122
0.770099
0.789735
0.820232
0.842345
0.810558
0.76808
0.745514
0.779788
0.809543
0.848106
0.851996
0.914471
0.99121
0.989401
0.99905
0.999842
0.999863
0.999921
0.99953
0.999589
0.999691
0.999855
0.999878
0.999884
0.999997
0.999861
0.999537
0.998556
0.997931
0.998381
0.998884
0.999028
0.999107
0.99968
0.999905
0.999995
1
0.999998
0.999998
0.999913
0.999811
0.999845
0.999975
0.999997
0.999997
0.999985
0.999965
0.999925
0.999952
0.999963
0.999962
0.999948
1
0.999969
0.99999
1
1
0.99992
0.999762
0.999761
0.999762
0.999931
0.999996
0.999999
0.999992
0.999928
0.999876
0.999877
0.999937
0.999929
0.999886
1
1
0.999999
1
0.999997
0.999841
0.999762
0.999762
0.99982
0.999984
0.999998
1
0.999999
0.999898
0.999875
0.999876
0.999888
0.999899
0.999887
0.999999
1
1
1
1
0.999904
0.999762
0.999762
0.9999
0.999998
0.999999
0.99998
0.999999
0.999967
0.999877
0.999908
0.999955
0.999981
0.999969
0.999996
1
1
1
1
0.999956
0.999935
0.999889
0.999951
0.999998
0.999915
0.999884
0.999884
0.999974
0.999967
0.999956
0.999953
0.999979
0.999992
0.999957
0.999968
1
1
0.999939
0.999964
0.99997
0.999966
0.999903
0.999904
0.999891
0.999914
0.999921
0.999976
0.999963
0.999952
0.999953
0.999977
0.999991
0.999947
0.999947
0.999977
0.999995
0.999908
0.999955
0.999971
0.99998
0.999975
0.999969
0.999972
0.999974
0.999974
0.999969
0.999959
0.999953
0.999971
0.999992
0.999987
0.999959
0.999958
0.99994
0.999897
0.999912
0.999968
0.999954
0.999954
0.999972
0.999972
0.999952
0.999951
0.999954
0.999957
0.999969
0.999979
0.999979
0.999992
0.999987
0.999994
0.999994
0.999918
0.999892
0.99996
0.999987
0.999965
0.999954
0.999953
0.999952
0.999952
0.999951
0.999956
0.99998
0.999995
0.999996
0.999979
0.99999
0.999996
1
0.999998
0.999969
0.999916
0.999987
0.999992
0.999991
0.999986
0.999988
0.999991
0.999991
0.999968
0.999963
0.999964
0.999974
0.999996
0.99998
0.99998
0.999998
1
0.999998
0.999999
0.999996
1
0.999991
0.999987
0.999986
0.999987
0.999989
0.999999
1
0.999988
0.999964
0.999964
0.999973
0.999991
0.99998
0.999998
1
0.999999
1
1
1
0.999997
0.999994
0.99999
0.999992
0.999997
1
1
1
0.999998
0.999971
0.999977
0.999997
0.999987
0.999998
1
1
1
1
1
1
1
1
1
1
1
1
1
1
1
1
0.999998
0.999997
0.999998
1
1
1
1
1
1
1
1
1
1
1
1
1
1
1
1
0.999999
0.999997
0.999999
1
1
1
1
1
1
1
1
1
1
1
1
1
1
1
1
0.999999
0.999997
0.999999
1
1
1
1
1
1
1
1
1
1
1
1
1
1
1
1
0.999999
0.999998
0.999999
1
1
1
1
1
1
1
1
1
1
1
1
1
1
1
1
1
1
1
1
1
1
1
1
1
1
1
1
1
1
1
1
1
1
1
1
1
1
1
1
1
1
1
1
1
1
1
1
1
1
1
1
1
1
1
1
1
1
1
1
1
1
1
1
1
1
1
1
1
1
1
1
1
1
1
1
1
1
1
1
1
1
1
1
1
1
1
1
1
1
1
1
1
1
1
1
1
1
1
1
1
1
1
1
1
1
1
1
1
1
1
1
1
1
1
1
1
1
1
1
1
1
1
1
1
1
1
1
1
1
1
1
1
1
1
1
1
1
1
1
1
1
1
1
1
1
1
1
1
1
1
1
1
1
1
1
1
1
1
1
1
1
1
1
1
1
1
1
1
1
0.999999
1
1
1
1
1
1
1
1
1
1
1
0.999999
0.999996
0.999995
1
1
1
1
0.999997
1
1
1
1
1
1
1
1
1
1
1
1
0.999996
0.999994
0.999996
1
1
1
0.999997
1
1
1
1
1
1
1
1
1
1
1
1
0.999999
0.999994
0.999994
0.999998
1
1
0.999997
1
1
1
1
1
1
1
1
1
1
1
1
1
0.999998
0.999994
0.999994
1
1
0.999998
1
1
1
1
1
1
1
1
1
1
1
1
1
1
0.999997
0.999994
0.999995
0.999999
0.999998
1
1
1
1
1
1
1
1
1
1
1
1
1
1
1
0.999997
0.999995
0.999997
0.999998
1
1
1
1
1
1
1
1
1
1
1
1
1
1
1
1
0.999999
0.999999
0.999999
1
1
1
1
1
1
1
1
1
1
1
1
1
1
1
1
1
1
1
)
;

boundaryField
{
    leftWall
    {
        type            alphaContactAngle;
        thetaProperties 
6
(
(galistan air) 90 0 0 0
(oil galistan) 90 0 0 0
(water oil) 90 0 0 0
(water air) 90 0 0 0
(oil air) 90 0 0 0
(water galistan) 90 0 0 0
);
        value           nonuniform List<scalar> 
50
(
9.89723e-10
1.29179e-09
2.40743e-09
1.94994e-09
0.000102883
0.00130154
0.00049612
0.000238631
0.00373765
0.039212
0.0398142
0.0295257
0.000430337
0.000428303
0.000226069
-1.60643e-07
0.1682
0.895339
0.999883
1
1
0.999999
1
1
1
1
1
1
1
1
1
1
1
1
1
1
1
1
1
1
1
1
1
1
1
1
1
1
1
1
)
;
    }
    rightWall
    {
        type            alphaContactAngle;
        thetaProperties 
6
(
(galistan air) 90 0 0 0
(oil galistan) 90 0 0 0
(water oil) 90 0 0 0
(water air) 90 0 0 0
(oil air) 90 0 0 0
(water galistan) 90 0 0 0
);
        value           nonuniform List<scalar> 
50
(
0.00407593
0.00576975
0.00993903
0.0213433
0.0204142
0.0196898
0.0261909
0.0781983
0.0781983
0.0416065
0.0339309
0.00246673
3.87122e-06
0.0235256
0.591984
0.989401
0.999107
0.999948
0.999886
0.999887
0.999969
0.999992
0.999991
0.999987
0.999987
0.999996
0.999998
0.999998
0.999998
0.999998
0.999999
0.999999
0.999999
1
1
1
1
1
1
1
1
0.999999
0.999997
0.999997
0.999997
0.999998
0.999998
0.999998
0.999999
1
)
;
    }
    lowerWall
    {
        type            alphaContactAngle;
        thetaProperties 
6
(
(galistan air) 90 0 0 0
(oil galistan) 90 0 0 0
(water oil) 90 0 0 0
(water air) 90 0 0 0
(oil air) 90 0 0 0
(water galistan) 90 0 0 0
);
        value           nonuniform List<scalar> 
62
(
9.89723e-10
9.87091e-10
9.43869e-10
9.42653e-10
9.42031e-10
8.41626e-10
4.98567e-10
2.31796e-10
1.27773e-10
1.0621e-10
1.05845e-10
1.08391e-10
1.20825e-10
1.37899e-10
1.64343e-10
2.01099e-10
2.42379e-10
2.59748e-10
2.33915e-10
2.34065e-10
8.94745e-08
4.69745e-07
5.75935e-07
5.75935e-07
7.30454e-07
1.20298e-07
1.59936e-09
0.000397997
0.00796366
0.010358
0.00774205
0.00122812
0.00294413
0.00511473
0.00724283
0.000232209
0.000230152
0.00537013
0.0126235
0.00832495
0.00497598
0.00423203
0.00868976
0.000232209
0.000498384
0.00499286
0.00735897
0.00749776
0.0075004
0.00491302
0.00272804
0.0021235
0.0020987
0.00209644
0.00209729
0.00209692
0.00209742
0.00209745
0.00259016
0.00400118
0.00406779
0.00407593
)
;
    }
    atmosphere
    {
        type            inletOutlet;
        inletValue      uniform 1;
        value           nonuniform List<scalar> 
46
(
1
1
1
1
1
1
1
1
1
1
1
1
1
1
1
1
1
1
1
1
1
1
1
1
1
1
1
1
1
1
1
1
1
1
1
1
1
1
1
1
1
1
1
1
1
1
)
;
    }
    defaultFaces
    {
        type            empty;
    }
}


// ************************************************************************* //
