/*--------------------------------*- C++ -*----------------------------------*\
| =========                 |                                                 |
| \\      /  F ield         | OpenFOAM: The Open Source CFD Toolbox           |
|  \\    /   O peration     | Version:  2312                                  |
|   \\  /    A nd           | Website:  www.openfoam.com                      |
|    \\/     M anipulation  |                                                 |
\*---------------------------------------------------------------------------*/
FoamFile
{
    version     2.0;
    format      ascii;
    arch        "LSB;label=32;scalar=64";
    class       volScalarField;
    location    "5";
    object      alpha.water;
}
// * * * * * * * * * * * * * * * * * * * * * * * * * * * * * * * * * * * * * //

dimensions      [0 0 0 0 0 0 0];

internalField   nonuniform List<scalar> 
2268
(
3.2591e-07
3.24405e-07
2.74561e-07
5.38864e-08
1.91354e-09
1.00061e-09
8.46453e-10
4.70364e-10
2.23992e-10
1.36241e-10
1.02409e-10
8.53221e-11
7.90717e-11
7.92516e-11
8.51757e-11
9.95092e-11
1.29762e-10
1.7853e-10
2.57368e-10
4.8194e-10
9.71095e-10
1.34211e-09
1.41269e-09
2.33062e-07
1.78548e-07
7.29091e-08
1.70041e-08
4.5105e-10
4.50943e-10
3.20797e-10
3.20421e-10
3.08002e-10
2.57507e-10
2.31956e-10
2.04888e-10
1.86873e-10
1.72164e-10
1.50733e-10
1.52113e-10
2.35948e-10
3.60674e-10
5.21952e-10
7.82398e-10
1.17044e-09
1.34043e-09
1.32653e-09
3.38481e-08
1.89923e-08
7.97466e-09
4.58228e-09
5.37799e-09
7.54291e-09
7.44715e-09
3.22329e-09
8.25294e-10
6.51361e-10
6.49218e-10
7.24581e-10
8.9052e-10
9.45711e-10
8.34632e-10
6.89684e-10
5.67247e-10
6.28294e-10
7.08783e-10
8.79913e-10
9.82224e-10
1.00381e-09
8.92376e-10
3.49151e-09
2.30212e-09
8.80238e-10
4.65031e-10
1.45965e-09
2.17838e-09
1.93646e-09
1.25772e-09
5.55516e-10
5.20974e-10
6.87021e-10
1.50886e-09
2.60001e-09
2.88234e-09
2.72675e-09
1.58469e-09
6.53005e-10
7.48943e-10
4.67703e-10
4.7118e-10
5.02852e-10
5.62899e-10
6.7758e-10
1.79341e-19
5.54581e-20
3.66259e-29
-1.15027e-28
5.61803e-28
7.5686e-28
5.1913e-29
7.53577e-30
-1.91885e-13
-1.58943e-13
1.76651e-31
-4.15967e-22
-3.6037e-22
3.50906e-21
6.11529e-21
9.24544e-21
-3.61433e-14
-3.7796e-17
1.95931e-20
2.15246e-21
-4.23879e-21
1.59326e-20
-2.236e-20
0.341886
0.331534
0.30667
0.272055
0.229172
0.179856
0.125421
0.074648
0.0371615
0.0165803
0.0087278
0.00467688
0.00477434
0.0111765
0.0220426
0.0345584
0.0400868
0.0379018
0.0516583
0.0748942
0.0978973
0.121769
0.171209
0.969115
0.966269
0.957943
0.943988
0.923905
0.894229
0.848646
0.785166
0.709676
0.634593
0.576603
0.551751
0.557127
0.594737
0.650757
0.691351
0.680493
0.664727
0.701748
0.74746
0.776758
0.794139
0.843374
0.99974
0.999744
0.999726
0.999592
0.999419
0.999112
0.999089
0.999399
0.99968
0.999751
0.999483
0.999578
0.999667
0.99972
0.999753
0.999753
0.981392
0.935459
0.941057
0.980603
0.980213
0.948432
0.945987
0.0131315
0.00783857
0.00389337
0.00302719
0.0058778
0.0074394
0.0096162
0.00978353
0.00941926
0.00943062
0.00943796
0.00895081
0.0062989
0.00550662
0.00436734
0.0042416
0.00366375
0.00359912
0.00366098
0.0109363
0.000886612
0.000881634
0.000888055
0.000880066
0.000885408
0.000876787
0.000881887
0.000873491
0.000880049
0.000875048
0.000999447
0.000633655
0.000160479
1.05948e-05
1.0268e-05
4.42411e-05
8.67484e-05
7.82535e-05
0.192675
0.184961
0.159744
0.173696
0.176009
0.136443
0.0924047
0.079835
0.0792308
0.0847878
0.0768144
0.0369591
0.00523474
0.000163802
0.00893746
0.00727194
4.3048e-05
0.0113146
0.0177778
0.734183
0.852223
0.78897
0.776215
0.820894
0.820258
0.797841
0.779276
0.75987
0.796442
0.801428
0.749492
0.542339
0.255088
0.161928
0.154744
0.378151
0.66203
0.465578
0.808115
0.99032
0.980874
0.98023
0.988387
0.96542
0.971212
0.97566
0.975669
0.973776
0.944704
0.975348
0.975673
0.90234
0.468096
0.732557
0.858664
0.86838
0.590929
0.921926
0.989966
0.99125
0.989949
0.989943
0.980774
0.961041
0.975647
0.971892
0.891919
0.883611
0.966795
0.975668
0.936385
0.813526
0.886229
0.879217
0.868383
0.820914
0.973782
0.986414
0.991254
0.984488
0.940943
0.960075
0.962916
0.974446
0.958862
0.829834
0.873932
0.914799
0.970102
0.820456
0.706325
0.907949
0.908284
0.868382
0.874882
0.975287
0.987467
0.991257
0.991272
0.930576
0.913971
0.953392
0.975335
0.975335
0.832517
0.791612
0.895228
0.907108
0.553341
0.551337
0.739835
0.947601
0.880649
0.875021
0.996262
0.999745
0.999745
0.999745
0.999745
0.999745
0.999744
0.999738
0.999745
0.999751
0.999751
0.999752
0.999752
0.999752
0.999753
0.999753
0.99975
0.99725
0.996899
0.996406
0.996283
0.996226
0.994729
0.960302
0.972962
0.969152
0.944316
0.947877
0.967923
0.965151
0.972516
0.985299
0.995416
0.998511
0.998653
0.999387
0.999752
0.999753
0.999753
0.998238
0.9929
0.99064
0.991469
0.993354
0.990601
0.986407
0.270737
0.253267
0.232197
0.193684
0.193757
0.277332
0.442721
0.610856
0.694974
0.777989
0.876295
0.936454
0.966336
0.97698
0.975713
0.972746
0.941121
0.907505
0.83907
0.74089
0.680988
0.712052
0.771251
2.03076e-11
2.10764e-11
9.581e-22
-1.41478e-07
0.000162234
0.000387347
0.000240024
0.00408158
0.0276645
0.0732311
0.166601
0.320028
0.419954
0.408933
0.405294
0.408223
0.379596
0.229815
0.0577068
0.0067825
0.0222621
0.0670568
0.113149
1.07315e-08
1.81864e-08
4.25158e-05
0.00012533
0.000119179
1.46029e-05
6.21941e-07
1.51782e-12
1.96961e-24
-6.52686e-24
-1.12265e-23
-1.40834e-23
-1.20632e-22
-2.19143e-22
-2.49886e-07
-3.06384e-07
-5.21817e-08
5.18631e-15
3.2477e-08
5.80846e-08
-7.21809e-08
-6.59871e-08
-1.12618e-06
1.21496e-08
1.51834e-05
7.4804e-06
8.82023e-06
3.71288e-07
1.13227e-06
5.12195e-06
8.36334e-07
2.03302e-06
2.08444e-05
3.66403e-05
5.20074e-05
0.000130416
0.000116096
2.27917e-05
1.06517e-11
7.03739e-08
2.20108e-05
0.00482784
0.00142396
7.49486e-05
2.98724e-05
0.000194581
4.50969e-06
0.000119798
0.000170811
0.000233475
0.000158452
0.00019537
0.000170926
0.000129181
0.000131093
0.00019871
0.000201876
0.000224447
0.00112129
0.00162864
0.000548218
8.83375e-05
0.000158635
0.000215957
0.0111687
0.0174712
0.00189994
0.000200915
0.0007994
4.89374e-05
0.000234298
0.000237592
0.000886157
0.00178108
0.00211046
0.00142148
0.000779289
0.000552436
0.00041912
0.000183275
0.00017484
0.00344874
0.0131937
0.0128554
0.00486063
0.000492949
0.000250302
0.0158727
0.0192788
0.0102583
0.00024873
0.00116107
0.000276621
0.000355897
7.70573e-05
0.00187188
0.00552677
0.00553977
0.00553065
0.00482321
0.0035532
0.00281971
0.0019429
0.000438853
0.00118088
0.0123048
0.0168495
0.0168577
0.0143354
0.00979949
0.0187098
0.0193005
0.0193527
0.00538765
0.000763101
0.000355583
0.000355029
6.73573e-05
0.000325188
0.00158624
0.00314677
0.00309925
0.00285298
0.00244147
0.00192438
0.00233618
0.00252104
0.00230765
0.000584226
0.000637964
0.00272034
0.00593632
0.0106553
0.0189262
0.0193527
0.0193641
0.016138
0.001024
0.000101981
5.72111e-05
4.04142e-05
5.37193e-07
2.81755e-08
2.61532e-08
5.14954e-08
1.31335e-07
1.86491e-07
1.1001e-07
6.67574e-08
0.000140378
1.35009e-05
3.23737e-05
6.12638e-06
1.99013e-12
3.45118e-25
3.89123e-21
0.0110504
0.0193741
0.0194158
0.0148598
0.000521391
9.41132e-08
5.61025e-08
3.40169e-08
1.81513e-08
4.85849e-08
1.14041e-07
2.04932e-07
5.3252e-07
7.27636e-07
3.38039e-07
1.11313e-07
1.15529e-07
2.26727e-07
3.91544e-07
6.37489e-07
8.78605e-07
9.02858e-07
-8.20624e-08
0.00173098
0.00865809
0.00851027
0.00217681
6.88135e-06
3.3722e-07
2.03951e-07
8.46762e-08
2.74912e-08
9.05115e-08
1.77e-07
3.00301e-07
9.29354e-07
1.01228e-06
3.00806e-07
3.26739e-07
4.24187e-07
8.65599e-08
8.74086e-08
7.53527e-07
2.56506e-06
2.68787e-06
5.89663e-07
5.97869e-07
8.94314e-07
2.54938e-06
9.62961e-07
-5.65228e-26
4.82936e-07
2.98943e-07
1.17605e-07
5.75381e-08
1.09485e-07
2.36311e-07
7.2783e-07
1.66801e-06
1.8459e-06
1.52014e-06
9.89517e-07
1.0579e-06
7.0439e-07
2.34696e-06
9.71441e-06
1.01845e-05
7.63257e-06
3.17564e-06
1.91105e-06
2.37349e-06
7.92237e-07
2.74665e-07
-6.02334e-23
3.95503e-07
1.748e-07
5.10283e-08
5.25409e-08
5.18276e-08
1.21507e-07
7.51795e-07
1.77075e-06
1.84589e-06
1.84591e-06
1.4765e-06
7.455e-07
6.10699e-07
4.16094e-06
1.85001e-05
1.88478e-05
1.71374e-05
1.84028e-05
1.53752e-05
1.63537e-06
6.40779e-06
1.34681e-05
1.99568e-05
2.17355e-07
7.18281e-08
3.17287e-08
3.58995e-08
2.07714e-08
7.75379e-08
2.21353e-07
8.35815e-07
1.47848e-06
7.35416e-07
2.85891e-07
7.41438e-08
4.57289e-08
1.58632e-07
8.21198e-06
1.92022e-05
1.91978e-05
1.80039e-05
3.75695e-06
6.21575e-07
5.91461e-06
2.17879e-05
2.18082e-05
4.19194e-08
2.47369e-08
2.35495e-08
2.30425e-08
1.863e-08
3.10302e-08
4.68087e-08
2.51199e-08
1.6241e-09
2.6674e-09
3.14382e-09
3.50304e-09
1.3442e-08
5.61243e-08
1.18829e-07
2.24182e-06
4.58271e-06
2.56742e-06
1.47847e-08
6.04838e-08
4.3656e-07
5.07745e-06
1.27707e-05
1.44498e-08
5.26661e-09
9.19214e-09
1.13868e-08
1.52046e-08
1.25699e-08
2.09842e-09
1.62066e-09
1.77669e-09
3.92759e-09
5.64233e-09
2.67858e-09
4.70445e-09
9.50098e-09
2.13751e-08
5.37213e-08
9.77923e-08
1.65019e-07
1.43579e-08
1.29403e-09
1.35652e-09
6.90971e-08
6.69254e-07
1.05276e-08
4.05551e-09
5.34575e-09
6.08948e-09
6.28956e-09
5.47696e-09
4.50089e-09
2.22967e-09
1.45217e-09
1.4438e-09
1.74332e-09
2.30004e-09
3.41662e-09
5.21937e-09
7.69997e-09
1.04163e-08
1.04784e-08
1.54904e-08
8.4236e-09
2.84082e-09
7.1982e-09
9.05127e-08
3.29647e-07
1.46106e-08
2.77872e-09
3.36023e-09
4.08845e-09
3.91823e-09
3.55743e-09
2.79398e-09
2.15659e-09
1.43706e-09
1.12453e-09
1.09223e-09
1.2252e-09
1.46079e-09
1.93295e-09
2.7353e-09
3.80811e-09
4.43592e-09
4.87129e-09
4.52356e-09
2.08227e-09
2.10152e-09
1.06731e-07
3.28319e-07
1.49068e-08
1.95769e-09
1.6512e-09
2.15266e-09
2.01095e-09
1.68251e-09
1.35791e-09
1.02122e-09
7.55321e-10
6.00595e-10
5.46149e-10
5.41334e-10
6.40757e-10
7.71234e-10
9.57107e-10
1.22765e-09
1.56133e-09
1.7254e-09
1.61777e-09
1.15776e-09
3.06171e-09
2.92299e-08
1.52777e-07
1.48937e-08
1.39234e-09
9.48012e-10
1.12101e-09
9.50228e-10
7.20293e-10
5.23764e-10
3.84233e-10
2.9217e-10
2.39444e-10
2.17672e-10
2.20097e-10
2.53632e-10
2.93912e-10
3.48176e-10
4.1908e-10
5.07706e-10
5.87205e-10
6.25596e-10
7.17432e-10
1.0862e-09
9.89936e-09
3.90773e-08
1.44784e-08
9.00328e-10
4.90497e-10
5.39594e-10
4.41169e-10
3.40505e-10
2.56352e-10
1.96226e-10
1.483e-10
1.12981e-10
9.22558e-11
8.48065e-11
8.94269e-11
1.02089e-10
1.22173e-10
1.48738e-10
1.8401e-10
2.28091e-10
2.88543e-10
3.78706e-10
6.04383e-10
1.50103e-09
7.13707e-09
1.42923e-08
6.78153e-10
3.49898e-10
3.64376e-10
3.13687e-10
2.62924e-10
2.25582e-10
1.85272e-10
1.37857e-10
9.37979e-11
6.30786e-11
4.5201e-11
3.60842e-11
3.43585e-11
3.84194e-11
4.70384e-11
6.15889e-11
8.60037e-11
1.12466e-10
1.66215e-10
2.64756e-10
6.59154e-10
1.66963e-09
1.41526e-08
4.77363e-10
3.08256e-10
3.18946e-10
3.71436e-10
4.14155e-10
3.98482e-10
2.75783e-10
1.96183e-10
1.25105e-10
7.49093e-11
4.33289e-11
2.60634e-11
1.75449e-11
1.43616e-11
1.56485e-11
2.04716e-11
2.91489e-11
4.29758e-11
6.33574e-11
1.10908e-10
1.96502e-10
5.65385e-10
1.40912e-08
3.35287e-10
3.09884e-10
4.29823e-10
6.36552e-10
8.09874e-10
7.031e-10
3.78211e-10
2.73499e-10
1.74291e-10
1.00029e-10
5.52508e-11
3.01276e-11
1.61524e-11
9.22526e-12
6.50744e-12
7.14515e-12
1.01631e-11
1.55169e-11
2.33998e-11
3.47964e-11
7.87329e-11
1.63126e-10
1.40514e-08
3.03258e-10
3.50737e-10
6.1197e-10
1.15632e-09
2.24302e-09
1.61294e-09
5.03874e-10
3.70158e-10
2.37472e-10
1.31577e-10
7.15799e-11
3.84903e-11
1.94724e-11
9.59217e-12
4.78603e-12
3.08397e-12
3.62748e-12
5.50654e-12
8.65064e-12
1.32294e-11
2.12907e-11
4.95597e-11
1.4123e-08
3.34637e-10
4.98974e-10
1.21774e-09
3.34048e-09
9.60897e-09
4.43832e-09
5.97642e-10
4.55962e-10
2.98155e-10
1.59824e-10
8.54007e-11
4.65407e-11
2.42141e-11
1.14837e-11
5.03541e-12
2.22868e-12
1.52831e-12
1.94857e-12
3.01516e-12
4.85642e-12
9.22492e-12
1.53323e-11
1.4455e-08
3.8851e-10
1.10573e-09
6.08712e-09
1.38848e-08
3.59175e-08
1.17218e-08
6.10534e-10
5.30599e-10
3.64277e-10
1.79772e-10
9.25826e-11
5.11834e-11
2.76175e-11
1.3576e-11
5.98739e-12
2.41533e-12
8.95653e-13
7.41592e-13
1.0553e-12
1.8615e-12
2.76346e-12
5.71127e-12
1.45613e-08
7.15592e-10
5.42202e-09
3.99195e-08
2.24005e-07
2.09852e-07
1.76196e-08
5.66487e-10
6.17466e-10
3.93294e-10
1.78893e-10
8.89915e-11
5.03573e-11
2.86654e-11
1.4877e-11
6.78027e-12
2.65738e-12
9.24492e-13
3.45817e-13
3.46678e-13
5.23963e-13
1.119e-12
1.72815e-12
1.54513e-08
2.05372e-09
1.86397e-08
2.46608e-07
6.34642e-07
4.39695e-07
3.73217e-09
5.66393e-10
7.16718e-10
3.77618e-10
1.54497e-10
7.4256e-11
4.38953e-11
2.6628e-11
1.48928e-11
7.21693e-12
2.95503e-12
1.03984e-12
2.40127e-13
1.28891e-13
1.92067e-13
2.98925e-13
5.90465e-13
1.62166e-08
2.01488e-09
6.23402e-08
5.9118e-07
7.04844e-07
3.6501e-07
4.87763e-10
8.337e-10
8.63104e-10
3.26748e-10
1.19891e-10
5.60036e-11
3.43178e-11
2.18011e-11
1.32351e-11
6.95735e-12
3.04703e-12
1.13072e-12
2.43479e-13
6.00103e-14
5.80494e-14
1.18077e-13
1.75777e-13
1.6189e-08
4.96969e-09
2.45547e-07
8.04834e-07
6.80996e-07
5.17783e-08
4.85307e-10
1.41066e-09
8.73271e-10
2.55839e-10
8.14271e-11
3.80099e-11
2.43393e-11
1.63252e-11
1.04312e-11
5.98557e-12
2.8731e-12
1.11136e-12
3.14911e-13
5.12044e-14
1.98641e-14
2.8064e-14
5.80917e-14
1.31419e-08
1.32799e-08
4.66081e-07
8.21312e-07
4.7061e-07
8.79224e-10
1.21296e-09
1.5369e-09
6.11156e-10
1.68997e-10
5.56561e-11
2.49571e-11
1.60666e-11
1.0774e-11
7.15529e-12
4.49606e-12
2.42358e-12
1.02001e-12
3.27721e-13
4.8431e-14
6.9952e-15
1.00529e-14
1.52418e-14
1.52797e-08
1.84928e-08
5.80503e-07
7.94085e-07
9.67003e-08
8.80133e-10
1.59512e-09
1.22588e-09
3.16318e-10
1.14653e-10
3.43317e-11
1.53196e-11
9.72431e-12
6.36084e-12
4.24514e-12
2.8665e-12
1.75259e-12
8.44812e-13
3.03304e-13
4.89571e-14
3.54773e-15
2.28352e-15
4.53106e-15
1.65555e-08
4.98786e-08
4.65898e-07
5.46954e-07
9.16223e-10
9.21588e-10
2.36482e-09
9.70929e-10
2.71322e-10
7.59966e-11
1.9668e-11
8.77552e-12
5.48588e-12
3.39113e-12
2.1742e-12
1.51936e-12
1.05199e-12
6.03263e-13
2.49165e-13
4.9367e-14
3.20557e-15
8.95023e-16
1.25073e-15
2.90454e-08
6.57766e-08
3.36091e-07
1.38503e-07
1.65357e-08
2.65128e-09
2.84417e-09
1.10252e-09
2.75863e-10
4.98584e-11
1.05003e-11
4.67838e-12
2.88921e-12
1.65577e-12
9.69073e-13
6.54753e-13
4.94655e-13
3.43393e-13
1.72699e-13
4.62618e-14
4.66178e-15
3.30627e-16
3.35711e-16
3.10567e-08
5.3171e-08
3.18573e-07
5.84921e-08
3.95759e-09
5.33293e-09
3.67017e-09
1.23748e-09
3.02826e-10
4.51046e-11
5.57666e-12
2.27001e-12
1.39619e-12
7.50142e-13
3.85763e-13
2.31076e-13
1.74782e-13
1.41815e-13
9.47855e-14
3.50448e-14
4.35846e-15
2.20383e-16
8.46182e-17
3.26821e-08
2.89469e-08
5.19239e-08
4.65791e-09
4.12447e-09
9.77031e-09
4.1209e-09
1.24338e-09
2.65919e-10
3.67726e-11
2.91221e-12
9.26403e-13
5.95907e-13
3.0738e-13
1.38328e-13
6.66058e-14
4.53127e-14
4.08735e-14
3.80185e-14
1.99958e-14
3.67041e-15
1.94239e-16
2.35209e-17
3.82804e-08
1.04996e-08
1.60297e-09
1.60281e-09
1.52437e-08
1.19891e-08
3.80686e-09
9.11459e-10
1.79243e-10
2.09485e-11
1.30781e-12
3.10917e-13
2.05136e-13
1.06692e-13
4.40781e-14
1.6994e-14
8.74612e-15
7.83071e-15
9.6936e-15
8.4696e-15
2.14296e-15
1.78594e-16
9.90174e-18
6.60365e-08
8.26566e-09
1.60502e-09
1.64363e-09
1.9368e-08
9.28654e-09
2.49456e-09
5.03178e-10
6.80364e-11
5.64615e-12
2.52878e-13
6.61472e-14
4.86461e-14
2.66464e-14
1.07584e-14
3.46272e-15
1.21906e-15
9.89665e-16
1.64864e-15
2.5346e-15
1.06445e-15
1.35038e-16
1.03215e-17
8.23235e-08
1.4479e-08
5.99007e-09
2.89705e-08
1.65858e-08
3.45846e-09
6.68942e-10
9.20874e-11
7.60407e-12
3.17244e-13
1.04007e-14
6.88751e-15
5.86048e-15
3.52672e-15
1.49166e-15
4.33289e-16
1.10998e-16
7.87864e-17
2.05272e-16
5.55101e-16
4.55512e-16
8.94964e-17
7.60174e-18
0.979265
0.974574
0.971534
0.960638
0.986331
0.986231
0.973836
0.965761
0.777023
0.712649
0.560015
0.389635
0.101997
0.0535551
0.0152597
7.12858e-05
0.000101331
-2.86014e-07
-3.20427e-09
-9.03785e-10
0.00024126
6.98169e-05
2.52443e-07
1.28254e-06
0.0011174
0.000109581
-3.66461e-09
-8.3888e-09
0.00162417
0.0016177
0.0012145
0.000745555
0.000854549
0.00111276
0.000836962
0.000802512
-1.86312e-08
1.82183e-05
9.98345e-06
0.000106752
-1.49951e-11
-5.9461e-14
4.52297e-13
-2.45056e-08
-5.36799e-14
-2.87625e-13
3.04611e-07
1.67002e-06
-2.09544e-13
1.08322e-06
1.39089e-05
1.5768e-05
9.10768e-06
1.90297e-05
2.31357e-05
1.2281e-05
2.30156e-05
2.31797e-05
2.3723e-05
2.03885e-05
2.18716e-05
2.13782e-05
2.83988e-05
3.57171e-05
9.14733e-06
1.30505e-05
3.49294e-05
3.71033e-05
7.51096e-07
2.11292e-06
2.65811e-05
3.64826e-05
5.3304e-07
5.6634e-07
4.01782e-06
7.95118e-06
4.31672e-07
4.38883e-07
3.82902e-09
3.82878e-09
3.03818e-07
2.67409e-07
2.97985e-08
3.82883e-09
3.34427e-08
1.23003e-07
2.32295e-08
4.02899e-09
3.95945e-09
7.12209e-09
9.23241e-09
3.51683e-09
1.73238e-09
2.84376e-09
3.81213e-09
4.70151e-09
7.39062e-10
8.74277e-10
1.72511e-09
2.62912e-09
2.46261e-10
3.0769e-10
4.88045e-10
8.68031e-10
6.9201e-11
6.69369e-11
1.2747e-10
1.96188e-10
2.12171e-11
2.50547e-11
3.37744e-11
5.00221e-11
7.56789e-12
8.00226e-12
1.20011e-11
1.38886e-11
2.57377e-12
3.05619e-12
3.39405e-12
4.72177e-12
7.40863e-13
8.54618e-13
1.17692e-12
1.31897e-12
2.47373e-13
2.8523e-13
3.0684e-13
3.82845e-13
7.24544e-14
7.16414e-14
8.88768e-14
9.03184e-14
2.18359e-14
2.21097e-14
2.15372e-14
2.57836e-14
5.64901e-15
5.50387e-15
6.3709e-15
5.99605e-15
1.57994e-15
1.6429e-15
1.53499e-15
1.6718e-15
4.25061e-16
3.9363e-16
4.4691e-16
4.29694e-16
1.06288e-16
1.04044e-16
9.53112e-17
1.04235e-16
2.2324e-17
1.96747e-17
2.29806e-17
2.22373e-17
4.43175e-18
4.42088e-18
3.96258e-18
4.38209e-18
9.0583e-19
7.41783e-19
7.71643e-19
7.5835e-19
1.91876e-19
1.27652e-19
1.14262e-19
9.80103e-20
0.945647
0.974407
0.991263
0.991269
0.944074
0.913876
0.940028
0.975335
0.975335
0.86357
0.604231
0.879743
0.925387
0.648446
0.551747
0.893493
0.947612
0.947589
0.885318
0.944757
0.924882
0.890805
0.838804
0.887357
0.920816
0.960794
0.961968
0.853135
0.516159
0.402563
0.802097
0.926305
0.917397
0.875866
0.947604
0.947601
0.946681
0.929993
0.337722
0.410245
0.424116
0.538627
0.609195
0.501434
0.395297
0.360903
0.0971036
0.0294
0.0236901
0.0815635
0.242486
0.524346
0.705755
0.782394
0.831248
0.818411
0.80774
0.00104227
0.0648652
0.0815501
0.0249362
0.0139588
0.00304478
2.35899e-05
-8.77095e-08
-2.29345e-20
2.34475e-20
1.0502e-21
-5.28337e-21
-9.08788e-10
-8.39755e-08
0.0232043
0.0806776
0.0755809
0.0201583
0.00421207
0.000133278
0.0244793
0.0740701
0.00116625
0.00106492
0.000280415
2.48335e-06
7.85145e-05
0.000144546
5.73217e-05
-2.76594e-12
-1.34022e-23
9.03972e-07
0.000208252
0.000380581
0.000388808
0.000367279
0.00036068
0.000359996
1.00168e-05
0.0373097
0.0750361
0.0582314
0.00480397
0.000746297
0.000140291
0.00028168
0.000418801
0.000417897
0.000133715
5.0498e-23
0.000161147
0.000205484
0.000278413
0.000418982
0.00052604
0.000988767
0.00130781
3.16477e-11
0.0236741
0.0719423
0.0714107
0.0388762
0.00267104
9.36523e-05
9.3877e-05
5.64721e-05
5.50413e-05
0.000990179
0.00169354
0.00170537
0.00184578
0.00226736
0.00230619
0.00233629
0.00251949
0.00251912
0.000225893
0.00356871
0.0129973
0.0181924
0.00986666
0.00607618
0.00346946
0.000536022
8.99962e-08
9.08836e-08
1.53611e-05
0.000466298
0.00114526
0.00243997
0.00308903
0.00308289
0.0024038
0.00186881
0.00115865
0.000808656
5.57034e-08
5.19528e-10
5.56133e-08
0.000320542
0.000148965
5.67766e-05
1.51596e-07
1.50691e-07
1.6348e-07
1.243e-06
1.51926e-05
0.00016987
0.000742504
0.000946303
0.000254053
2.98296e-06
2.96374e-06
2.98296e-06
0.00029755
8.93723e-05
4.93572e-06
2.49766e-08
-3.60385e-11
7.1395e-11
4.88813e-11
3.19007e-06
1.72648e-06
2.39778e-07
4.31502e-07
3.17303e-06
8.79602e-06
1.33546e-06
1.32602e-06
1.32881e-06
9.45938e-06
2.9447e-06
3.36844e-06
9.4721e-22
3.14284e-05
9.83685e-06
2.21468e-07
2.48406e-08
4.4752e-06
9.47243e-06
1.05418e-05
1.05956e-05
5.32084e-06
3.65686e-06
1.23353e-06
2.00407e-06
1.75144e-06
3.49014e-06
2.79598e-06
2.57752e-06
2.48253e-06
3.33742e-06
3.06671e-07
3.19805e-07
1.42794e-06
1.18576e-07
3.01446e-06
1.07637e-05
1.07348e-05
1.06044e-05
1.01533e-05
6.10301e-06
1.71465e-06
1.68224e-07
1.02954e-07
3.25004e-06
5.82931e-06
6.38689e-06
2.06054e-05
4.30996e-06
2.03171e-06
5.50428e-07
3.53066e-08
8.04726e-08
2.81052e-08
4.818e-07
7.01298e-06
1.94888e-05
2.90232e-05
6.32079e-06
1.8117e-06
6.63329e-07
5.34942e-07
1.03572e-07
2.37128e-06
5.08307e-06
2.88068e-05
4.0023e-05
1.24424e-05
1.93227e-06
6.1331e-09
5.8956e-09
6.13004e-09
5.90666e-09
4.73649e-07
1.34941e-06
1.96293e-05
2.90337e-05
4.73315e-06
1.80587e-06
4.61873e-06
7.86184e-06
7.42035e-06
7.16847e-07
7.03307e-07
3.99618e-05
4.0152e-05
1.60483e-05
1.94869e-06
2.80293e-05
2.3779e-05
5.90288e-09
5.93794e-09
1.9219e-06
5.44908e-06
2.71878e-05
2.90345e-05
2.82021e-05
7.17679e-06
1.02127e-05
4.10207e-06
1.58715e-06
6.35215e-07
1.01566e-05
3.96133e-05
4.01521e-05
1.77577e-05
4.84687e-07
3.9142e-05
3.92381e-05
1.89849e-05
3.74639e-06
7.00301e-06
1.21331e-05
2.6207e-05
1.31603e-05
5.59645e-06
5.5914e-06
5.96146e-06
5.5788e-06
2.96486e-06
6.31905e-06
3.208e-05
3.9814e-05
1.80945e-05
1.23439e-06
1.46933e-07
3.12645e-05
3.18607e-05
3.1385e-05
2.59658e-05
7.65315e-06
2.33185e-05
4.2679e-05
4.27187e-05
2.25725e-05
1.57995e-05
2.94073e-05
3.11797e-05
2.69079e-05
2.73441e-05
2.58694e-05
1.62733e-05
1.0233e-06
7.56326e-08
7.56253e-08
4.28689e-06
2.91667e-06
2.50661e-05
2.18129e-05
5.18244e-06
8.96432e-06
3.2335e-05
4.27415e-05
4.25001e-05
4.05257e-05
3.94153e-05
3.02442e-05
2.01763e-05
4.1855e-06
8.71072e-08
8.71091e-08
6.44062e-07
2.58029e-07
7.56123e-08
1.40832e-07
8.5833e-07
4.33835e-06
1.16085e-05
1.6115e-06
3.52814e-06
4.67569e-06
8.18726e-06
5.04303e-06
4.99844e-06
6.11836e-06
2.82141e-06
1.51036e-06
2.60039e-07
1.50913e-07
8.75549e-08
2.65995e-07
4.68038e-07
7.65329e-08
4.38717e-09
9.40319e-07
1.87972e-07
3.48602e-08
1.37294e-07
1.54884e-06
1.92769e-06
2.02315e-06
1.82143e-06
8.59367e-07
6.64851e-09
1.04311e-09
1.04353e-09
2.35313e-07
5.4068e-07
5.148e-07
2.85791e-07
4.07359e-07
8.30205e-08
5.91204e-08
7.3913e-07
2.14837e-07
3.02172e-08
1.26426e-07
6.72005e-07
8.45502e-07
7.50462e-07
5.06374e-07
2.25123e-07
2.27007e-08
1.97423e-09
1.04362e-09
5.34648e-09
4.72378e-07
5.68208e-07
3.77429e-07
1.40441e-07
8.29615e-08
1.15568e-07
1.1565e-07
8.10997e-08
3.02446e-08
3.65084e-08
1.06777e-08
5.19011e-09
1.14607e-09
1.14457e-09
1.14597e-09
1.41398e-09
1.87283e-09
3.19507e-09
2.68879e-09
2.66169e-09
2.67306e-09
2.46923e-07
1.52421e-07
1.36311e-07
1.05099e-07
2.88775e-08
2.01807e-08
1.95428e-08
8.87391e-09
3.26622e-09
2.62371e-09
2.59092e-09
2.77332e-09
3.79706e-09
4.42604e-09
5.24341e-09
1.27364e-08
1.37693e-08
2.66643e-09
1.45585e-07
2.64376e-07
1.59838e-07
1.63113e-07
4.01078e-08
1.39664e-08
1.01387e-08
6.5189e-09
3.4807e-09
2.56765e-09
2.38676e-09
2.34338e-09
3.02004e-09
5.8315e-09
8.17977e-09
1.36419e-08
2.29394e-08
4.2741e-08
6.67759e-08
2.32625e-07
2.4315e-07
9.35852e-08
1.67326e-07
6.33246e-09
3.86282e-09
3.05628e-09
2.00081e-09
1.54782e-09
1.51364e-09
1.68549e-09
2.04158e-09
2.72111e-09
4.09285e-09
8.50445e-09
1.866e-08
2.78369e-08
3.98986e-08
8.15222e-08
1.36057e-07
9.86023e-08
1.44546e-08
1.67329e-07
1.09184e-09
9.22223e-10
7.2542e-10
6.04975e-10
5.97618e-10
6.52436e-10
7.73381e-10
1.0415e-09
1.52601e-09
2.30205e-09
3.5612e-09
5.65996e-09
8.03627e-09
1.14895e-08
3.51555e-08
5.38872e-08
2.27137e-08
3.26873e-09
1.20972e-07
2.40808e-10
2.13832e-10
2.00374e-10
2.09834e-10
2.38195e-10
2.88746e-10
3.73447e-10
5.29226e-10
8.25099e-10
1.34193e-09
2.25175e-09
3.33869e-09
4.66583e-09
6.79011e-09
1.25268e-08
2.40875e-08
1.05883e-08
3.07867e-09
1.0598e-07
5.76645e-11
6.13163e-11
7.01439e-11
8.46483e-11
1.07983e-10
1.49556e-10
2.28509e-10
3.82567e-10
6.83216e-10
1.29046e-09
2.54464e-09
4.54059e-09
7.99808e-09
1.18389e-08
1.60854e-08
1.20753e-08
6.15874e-09
3.07922e-09
1.04838e-07
1.71857e-11
2.0841e-11
2.62109e-11
3.41095e-11
4.74052e-11
7.71753e-11
1.28353e-10
2.20143e-10
4.62587e-10
1.11237e-09
2.64575e-09
5.55065e-09
1.17738e-08
2.1667e-08
2.95561e-08
1.70132e-08
5.61781e-09
3.48517e-09
1.18796e-07
5.32908e-12
6.9386e-12
8.99411e-12
1.20781e-11
1.77561e-11
2.41211e-11
2.87853e-11
5.54728e-11
1.50795e-10
5.15451e-10
1.79079e-09
5.70049e-09
1.28507e-08
2.99109e-08
4.32139e-08
4.9439e-08
8.97133e-09
2.38019e-08
1.22561e-07
1.65095e-12
2.07446e-12
2.63881e-12
3.55503e-12
4.96708e-12
4.03046e-12
4.5958e-12
1.16878e-11
3.94544e-11
1.56646e-10
6.85841e-10
3.31183e-09
1.22702e-08
2.77686e-08
5.00841e-08
5.0093e-08
2.65906e-08
2.65928e-08
1.22569e-07
3.97579e-13
5.28115e-13
6.13534e-13
7.61112e-13
1.00753e-12
9.78016e-13
9.03347e-13
2.92509e-12
1.21227e-11
5.68954e-11
2.93303e-10
2.02584e-09
9.27246e-09
2.34227e-08
4.12362e-08
4.57339e-08
2.664e-08
9.95863e-08
1.10583e-07
1.05948e-13
1.15258e-13
1.24089e-13
1.41072e-13
1.76911e-13
2.33163e-13
3.09133e-13
1.10737e-12
4.97731e-12
2.40587e-11
1.08841e-10
5.44143e-10
5.31703e-09
1.44197e-08
3.28855e-08
3.60636e-08
2.68517e-08
1.13428e-07
1.09193e-07
2.61264e-14
2.60782e-14
2.66866e-14
3.11678e-14
4.47176e-14
7.90265e-14
1.78953e-13
5.75799e-13
2.40951e-12
1.1306e-11
4.88067e-11
2.25479e-10
2.32503e-09
7.88237e-09
1.90564e-08
2.3572e-08
3.32398e-08
1.13469e-07
1.0914e-07
6.38422e-15
5.95514e-15
6.40484e-15
8.61545e-15
1.57044e-14
3.84491e-14
1.17678e-13
4.00847e-13
1.45341e-12
6.05138e-12
2.45911e-11
8.34907e-11
4.94737e-10
2.63729e-09
7.68142e-09
1.97507e-08
3.97602e-08
5.90971e-08
3.66904e-07
1.63301e-15
1.56604e-15
1.8003e-15
2.89299e-15
6.82033e-15
2.14199e-14
7.6562e-14
2.84461e-13
1.04341e-12
4.04931e-12
1.59918e-11
5.66052e-11
4.20649e-10
1.27881e-09
2.53338e-09
8.80786e-09
2.85152e-08
2.99677e-08
3.82998e-07
4.14129e-16
4.19869e-16
5.56292e-16
1.12146e-15
3.22075e-15
1.10712e-14
4.25291e-14
1.70429e-13
6.62451e-13
2.58255e-12
1.00506e-11
3.82001e-11
1.8337e-10
1.03773e-09
2.21102e-09
3.54315e-09
9.51503e-09
2.29325e-08
3.83423e-07
1.01667e-16
1.10468e-16
1.71283e-16
4.12488e-16
1.33471e-15
4.9645e-15
1.97353e-14
8.15393e-14
3.32028e-13
1.32551e-12
5.68955e-12
2.39158e-11
1.00958e-10
6.06079e-10
2.43935e-09
3.63766e-09
4.76568e-09
2.30377e-08
3.65954e-07
2.2459e-17
2.55571e-17
4.46497e-17
1.21144e-16
4.35954e-16
1.72682e-15
7.13489e-15
2.99997e-14
1.26391e-13
5.18505e-13
2.1906e-12
9.61659e-12
4.30775e-11
1.93145e-10
1.41949e-09
3.9118e-09
5.69922e-09
2.54001e-08
1.55685e-07
4.30834e-18
4.651e-18
8.63496e-18
2.68511e-17
1.09395e-16
4.84454e-16
2.20144e-15
1.00441e-14
4.57306e-14
2.12776e-13
9.92162e-13
4.66319e-12
2.12016e-11
9.63959e-11
4.47099e-10
2.31722e-09
5.61322e-09
1.98179e-08
6.32859e-08
6.78955e-19
6.64863e-19
1.02804e-18
3.05808e-18
1.41234e-17
7.27074e-17
3.66629e-16
1.80513e-15
8.93111e-15
4.52669e-14
2.3024e-13
1.26207e-12
6.98409e-12
3.68512e-11
2.05297e-10
9.136e-10
2.81597e-09
4.31571e-09
2.79345e-10
8.14625e-20
6.91824e-20
8.25935e-20
1.77142e-19
7.34301e-19
4.26801e-18
2.53524e-17
1.37154e-16
6.69984e-16
3.12294e-15
1.55363e-14
9.63129e-14
7.49602e-13
5.8514e-12
4.26937e-11
2.6346e-10
6.83839e-10
5.14509e-10
1.64333e-10
)
;

boundaryField
{
    leftWall
    {
        type            zeroGradient;
    }
    rightWall
    {
        type            zeroGradient;
    }
    lowerWall
    {
        type            zeroGradient;
    }
    atmosphere
    {
        type            inletOutlet;
        inletValue      uniform 0;
        value           nonuniform List<scalar> 
46
(
8.23235e-08
1.4479e-08
5.99007e-09
0
0
0
0
0
0
0
0
0
0
0
0
0
0
0
0
5.55101e-16
4.55512e-16
8.94964e-17
7.60174e-18
1.91877e-19
1.27652e-19
1.14262e-19
9.80103e-20
8.14625e-20
6.91824e-20
8.25935e-20
0
0
0
2.53524e-17
1.37154e-16
6.69984e-16
3.12294e-15
1.55363e-14
9.63129e-14
7.49602e-13
5.8514e-12
4.26937e-11
2.6346e-10
6.83839e-10
5.14509e-10
1.64333e-10
)
;
    }
    defaultFaces
    {
        type            empty;
    }
}


// ************************************************************************* //
