/*--------------------------------*- C++ -*----------------------------------*\
| =========                 |                                                 |
| \\      /  F ield         | OpenFOAM: The Open Source CFD Toolbox           |
|  \\    /   O peration     | Version:  2312                                  |
|   \\  /    A nd           | Website:  www.openfoam.com                      |
|    \\/     M anipulation  |                                                 |
\*---------------------------------------------------------------------------*/
FoamFile
{
    version     2.0;
    format      ascii;
    arch        "LSB;label=32;scalar=64";
    class       volScalarField;
    location    "5";
    object      alpha.galistan;
}
// * * * * * * * * * * * * * * * * * * * * * * * * * * * * * * * * * * * * * //

dimensions      [0 0 0 0 0 0 0];

internalField   nonuniform List<scalar> 
2268
(
1
1
1
1
1
1
1
1
1
1
1
1
1
1
1
1
1
1
1
0.999994
0.999961
0.999958
0.999958
1
1
1
1
1
1
1
1
1
1
1
1
1
1
1
1
1
1
1
0.999999
0.999991
0.999975
0.999977
1
1
1
1
1
1
1
1
1
1
1
1
1
1
1
1
1
1
1
1
1
1
1
1
1
1
1
1
1
1
1
1
1
1
1
1
1
1
1
1
1
1
1
1
1
1
0.999179
0.998903
0.998603
0.998757
0.999609
0.999946
0.999999
0.99999
0.999993
0.999984
1
0.999997
0.999997
0.999993
0.999995
0.999994
0.999985
0.99997
0.999162
0.998899
0.998088
0.998832
0.999602
0.651287
0.661606
0.686456
0.721071
0.764345
0.816871
0.873639
0.92511
0.962466
0.982859
0.990665
0.994814
0.994542
0.987885
0.977356
0.964303
0.943318
0.911082
0.88146
0.857719
0.829044
0.812359
0.807218
0.0278089
0.0303548
0.0380011
0.0507008
0.0705898
0.101347
0.148649
0.213436
0.289721
0.364766
0.422656
0.44745
0.441686
0.403858
0.348342
0.303164
0.257665
0.233274
0.193764
0.150478
0.119604
0.101863
0.0975726
8.54662e-06
5.50792e-06
6.37112e-10
-3.01787e-13
-5.42644e-09
6.2771e-19
-3.95686e-08
-2.28708e-17
-3.99592e-09
5.32334e-05
0.000176966
1.12402e-05
1.15455e-05
1.18437e-05
5.12398e-05
1.54991e-05
-1.46564e-22
3.83437e-24
-3.02673e-24
2.03501e-23
1.45873e-22
-1.12037e-23
-7.70145e-26
0.959595
0.962729
0.962732
0.962734
0.960104
0.95854
0.958951
0.960968
0.961929
0.961936
0.961944
0.962431
0.965083
0.965423
0.965426
0.965573
0.965564
0.965562
0.965492
0.936238
0.927748
0.936749
0.945677
0.950814
0.951833
0.950248
0.950255
0.949677
0.950256
0.953025
0.95733
0.959925
0.958509
0.938351
0.938458
0.965015
0.96556
0.955864
0.55101
0.556318
0.581214
0.608415
0.636943
0.665764
0.683913
0.680651
0.669823
0.656986
0.647836
0.636004
0.616393
0.583962
0.535658
0.538693
0.587145
0.612622
0.597899
0.00218246
0.0111834
0.029423
0.0360921
0.0405058
0.0527383
0.074242
0.0867251
0.0867716
0.0742289
0.0804499
0.114529
0.187087
0.264437
0.319195
0.313871
0.216157
0.101509
0.124941
4.01173e-05
4.10876e-05
4.00326e-05
3.99988e-05
4.00369e-05
4.00277e-05
4.25253e-05
0.00352757
0.00674497
0.00454943
0.00443422
0.0045113
0.00500188
0.00302852
0.0157911
0.00793183
0.00783484
0.00914732
0.00144192
4.01173e-05
7.62562e-05
6.39886e-05
0.000187897
0.000205012
0.000271639
0.00116865
0.00698472
0.00710878
0.0130654
0.0138176
0.00499053
0.00416419
0.000732812
9.14898e-06
0.00440478
0.00923265
0.0115794
0.00144179
0.000114997
0.000470155
0.000394644
0.000415554
0.000714796
0.000373101
0.000608864
0.0021285
0.0052155
0.0226548
0.0228308
0.0181234
1.00469e-05
1.73275e-07
7.3889e-06
0.00193233
0.00534262
0.0112159
0.00144179
0.0102952
0.00323467
0.000675909
0.000486354
0.00074195
0.00129152
0.000367109
0.000141599
0.000141135
0.0193901
0.0228571
0.00728663
1.72649e-07
1.73366e-07
7.73311e-07
6.85563e-07
0.00064467
0.0101458
0.0038606
2.10845e-07
2.03707e-07
2.03834e-08
2.43284e-10
3.77763e-05
4.76415e-05
5.29226e-05
6.22212e-05
6.08897e-05
3.79493e-05
1.40115e-05
1.09344e-05
2.78754e-05
3.40526e-05
6.57252e-05
7.53583e-05
6.86076e-05
1.30543e-05
2.9087e-05
0.000102425
0.000139811
8.60199e-05
7.1819e-08
0.000485699
0.000147824
0.000285627
0.00100127
0.0017592
0.00178873
0.00126974
0.000223087
6.79183e-06
6.82469e-06
6.77658e-06
6.79404e-06
6.74097e-06
7.67566e-06
9.14823e-06
8.69673e-06
8.27419e-06
6.43543e-05
0.000815737
0.00121671
0.00108437
0.000808307
0.000556099
0.000573948
0.000275282
0.000726199
0.00236314
0.00240576
0.00240573
0.00239963
0.000744116
0.000130732
0.000443355
0.00065439
0.000482856
0.000458509
0.000793714
0.0011455
0.00115683
0.000800726
0.00276711
0.00561576
0.00561556
0.00561576
0.00508499
0.0022901
0.000519639
0.000291164
0.000359835
0.00142852
0.0022821
0.0020327
0.000915769
0.000580676
0.000611309
0.00143807
0.00143799
0.00100765
0.00120025
0.00323165
0.0054264
0.00561331
0.00561338
0.00561502
0.00561478
0.0056162
0.00476355
0.0023899
0.00153278
5.03573e-05
0.000358454
0.000113895
4.40871e-05
2.93435e-05
2.93445e-05
0.000333916
0.000758038
0.000758765
0.000712993
0.000608345
0.000288932
0.000320303
0.00116657
0.00163189
0.00133256
0.00149382
0.00477005
0.00491351
0.00170046
0.000492104
0.00028
0.000425949
3.64883e-05
0.000159655
3.186e-05
2.93436e-05
2.93445e-05
2.93598e-05
0.000433417
0.000494149
0.000180838
0.00010293
4.89962e-05
5.65749e-05
7.58484e-05
8.17307e-05
9.71116e-05
0.000106688
0.000133793
0.000186064
0.000538073
0.00205
0.00052516
0.000251871
0.000252145
4.19911e-05
3.03287e-05
3.00462e-05
2.93446e-05
2.95421e-05
5.95255e-05
0.00010387
0.000128791
9.28898e-05
2.09025e-05
3.48265e-06
2.53237e-06
2.24381e-06
2.22344e-06
2.8408e-05
0.000108037
4.96305e-05
1.53353e-05
0.000225961
0.003657
0.00226054
0.000392314
0.000250155
0.000287001
8.5562e-05
3.8042e-05
2.93439e-05
0.000100823
0.000260157
0.00029784
0.000227701
0.000154222
0.000110274
6.23407e-05
2.73295e-05
2.67136e-05
2.79026e-05
4.64023e-05
0.000113145
5.99274e-05
1.4879e-05
7.01511e-05
0.0037717
0.00382224
0.00136537
0.000627026
0.000523053
0.000479694
0.000321746
0.000153097
0.000366515
0.000862318
0.000861945
0.000862316
0.000861942
0.000770793
0.000557778
0.000260245
0.000214517
0.000262854
0.000386356
0.000400043
0.000256317
2.31679e-05
1.10331e-05
0.00197558
0.00382373
0.00382312
0.00110544
0.000494848
0.000467002
0.00036213
0.000220344
0.000275886
0.000435221
0.000545243
0.000506961
0.000468754
0.000501124
0.000468299
0.000289731
0.00011777
0.000180507
0.000362108
0.000539088
0.000538232
0.000311815
1.12829e-05
0.000259789
0.00133148
0.00173343
0.000954298
1.51906e-05
3.68729e-09
3.95607e-09
6.37577e-08
6.24577e-07
1.20829e-07
3.60218e-08
3.67374e-08
5.23048e-08
1.45067e-07
2.42611e-07
-2.53779e-12
-1.78766e-08
-1.64657e-08
2.98704e-07
3.68262e-05
0.000162634
0.000250627
0.000152073
3.11667e-05
1.1909e-06
1.92566e-21
0.000137096
3.49465e-09
1.02551e-08
2.87812e-08
5.52209e-08
8.59887e-08
6.72379e-08
3.40188e-08
6.3891e-08
1.14938e-07
4.27979e-07
7.1411e-07
9.58455e-07
1.54336e-06
1.54537e-06
1.31186e-06
9.18777e-07
9.53195e-07
3.67273e-06
1.05598e-05
3.56384e-06
5.71131e-08
3.09654e-17
-3.12123e-22
6.04246e-09
5.1282e-08
1.6437e-07
1.72046e-07
9.98133e-08
5.75429e-08
4.01035e-08
9.24318e-08
2.82322e-07
5.24755e-07
3.76509e-07
1.36551e-07
4.44745e-07
6.85463e-09
6.72104e-08
8.90981e-07
2.75381e-07
1.19969e-10
1.20031e-10
2.31228e-10
3.47583e-09
8.78342e-11
-1.30195e-16
9.56653e-09
8.13304e-08
2.28415e-07
2.28412e-07
1.23824e-07
8.7891e-08
1.02674e-07
1.58165e-07
2.62891e-07
2.49516e-07
2.38062e-09
2.41534e-09
2.37439e-09
7.78363e-09
4.94544e-07
8.30825e-07
3.35907e-07
1.20032e-10
1.19971e-10
1.20031e-10
3.0443e-10
9.36512e-11
9.28627e-08
3.97318e-09
6.20922e-08
1.59966e-07
1.15334e-07
5.01823e-08
4.05799e-08
2.52105e-08
2.05613e-09
1.61999e-08
2.18624e-09
3.06115e-09
7.97544e-09
5.45872e-09
3.55805e-08
3.03121e-07
4.29269e-07
3.14993e-07
2.39696e-07
1.2447e-08
1.16001e-09
1.16854e-07
7.63753e-07
1.50511e-06
1.86547e-09
2.94609e-08
5.74506e-08
4.15237e-08
2.90432e-08
2.57769e-08
2.12509e-09
2.0615e-09
2.05804e-09
2.17646e-09
8.70488e-09
1.17787e-08
9.54064e-09
5.41689e-09
6.55076e-08
2.88001e-07
2.86273e-07
2.29422e-08
2.22495e-07
1.03256e-06
1.53367e-06
1.53255e-06
1.51793e-06
1.64175e-09
7.79541e-09
1.19939e-08
1.42556e-08
1.20734e-08
1.32774e-08
8.00701e-09
2.42453e-09
2.07075e-09
2.3564e-09
2.53157e-09
3.00445e-09
4.13768e-09
5.43277e-09
3.63064e-09
3.62444e-09
5.21169e-09
6.00474e-09
1.11964e-07
8.54391e-07
1.37757e-06
1.00703e-06
2.04231e-07
1.25177e-09
2.11569e-09
4.41196e-09
5.64751e-09
6.53639e-09
6.36559e-09
7.21328e-09
3.98466e-09
2.31452e-09
2.50109e-09
2.63746e-09
2.73872e-09
3.10983e-09
3.49456e-09
3.75465e-09
3.675e-09
3.59874e-09
4.53462e-09
2.0874e-08
4.60109e-08
9.66412e-08
1.3305e-07
2.96468e-08
1.00353e-09
1.59255e-09
2.45156e-09
2.85604e-09
3.08708e-09
2.76968e-09
2.65013e-09
2.39216e-09
1.96286e-09
1.82132e-09
1.83356e-09
1.71281e-09
1.72113e-09
1.97048e-09
2.32195e-09
3.01712e-09
3.1602e-09
2.92037e-09
3.11168e-09
6.11774e-10
2.50238e-08
1.0987e-07
1.55982e-07
8.32392e-10
1.08711e-09
1.5744e-09
1.83872e-09
1.94418e-09
1.87052e-09
1.48961e-09
1.355e-09
1.26165e-09
1.18001e-09
1.10272e-09
9.95223e-10
8.67372e-10
8.94392e-10
1.08477e-09
1.41644e-09
1.7225e-09
1.79765e-09
1.47085e-09
6.20218e-10
2.6786e-08
2.09648e-07
2.28251e-07
7.30222e-10
7.26339e-10
9.34241e-10
1.06035e-09
1.10642e-09
1.04416e-09
9.40858e-10
8.34478e-10
7.50714e-10
6.6638e-10
5.74358e-10
4.89283e-10
4.2163e-10
4.08521e-10
4.54838e-10
5.68062e-10
7.38112e-10
8.55935e-10
8.19093e-10
6.0931e-10
1.43706e-08
8.19286e-08
2.28798e-07
6.5991e-10
5.40427e-10
6.31439e-10
6.52389e-10
6.34283e-10
5.62513e-10
4.80614e-10
4.09951e-10
3.50987e-10
2.9709e-10
2.48299e-10
2.11997e-10
1.77195e-10
1.66542e-10
1.78717e-10
2.16003e-10
2.81419e-10
3.58585e-10
4.30585e-10
6.76084e-10
1.94285e-09
2.98977e-08
8.88651e-08
5.98851e-10
3.65555e-10
3.85408e-10
3.69723e-10
3.42461e-10
2.8973e-10
2.30216e-10
1.81492e-10
1.4291e-10
1.12374e-10
8.86114e-11
7.25474e-11
6.17592e-11
5.77013e-11
6.19955e-11
7.5757e-11
1.01607e-10
1.3996e-10
1.95371e-10
3.10523e-10
8.3103e-10
3.44366e-09
2.17547e-08
5.57271e-10
2.67736e-10
2.60413e-10
2.36317e-10
1.95219e-10
1.54124e-10
1.15287e-10
8.37545e-11
5.88368e-11
4.05485e-11
2.82618e-11
2.08371e-11
1.70889e-11
1.56973e-11
1.69899e-11
2.11156e-11
2.97467e-11
4.59777e-11
6.38567e-11
1.04154e-10
2.10146e-10
1.15804e-09
4.44227e-09
5.16662e-10
1.89875e-10
1.74171e-10
1.5856e-10
1.39139e-10
1.13283e-10
8.55347e-11
5.91813e-11
3.77307e-11
2.27534e-11
1.34974e-11
8.16533e-12
5.30481e-12
4.20643e-12
4.29414e-12
5.47699e-12
7.93544e-12
1.21679e-11
1.89421e-11
2.86553e-11
6.13539e-11
1.85107e-10
9.22498e-10
4.86209e-10
1.37048e-10
1.30238e-10
1.37652e-10
1.40186e-10
1.27667e-10
1.00427e-10
6.87917e-11
4.29219e-11
2.50909e-11
1.37094e-11
6.97751e-12
3.48115e-12
1.86544e-12
1.32807e-12
1.43598e-12
2.05453e-12
3.26059e-12
5.15625e-12
7.72927e-12
1.07923e-11
4.176e-11
1.50954e-10
4.6332e-10
1.10088e-10
1.20903e-10
1.64407e-10
1.90354e-10
1.82757e-10
1.36527e-10
9.01041e-11
5.49626e-11
3.21894e-11
1.7518e-11
8.84014e-12
4.13688e-12
1.78821e-12
8.22604e-13
5.1656e-13
5.75881e-13
8.89401e-13
1.41412e-12
2.14667e-12
3.0265e-12
5.50044e-12
2.27773e-11
4.3178e-10
1.01423e-10
1.4358e-10
2.22252e-10
2.79578e-10
2.72564e-10
1.78873e-10
1.09978e-10
6.48419e-11
3.79762e-11
2.09103e-11
1.07441e-11
5.11607e-12
2.21175e-12
8.71085e-13
3.50626e-13
2.15257e-13
2.6271e-13
4.0913e-13
6.20093e-13
8.99179e-13
1.68771e-12
3.57806e-12
4.17063e-10
1.11337e-10
2.00103e-10
3.24479e-10
4.23914e-10
4.00829e-10
2.2315e-10
1.20699e-10
6.80365e-11
3.97838e-11
2.2322e-11
1.17616e-11
5.75246e-12
2.55661e-12
1.0159e-12
3.68456e-13
1.3842e-13
9.23525e-14
1.26781e-13
1.98403e-13
3.28194e-13
4.56814e-13
9.73624e-13
4.12348e-10
1.35575e-10
2.94422e-10
5.287e-10
7.55344e-10
5.79715e-10
2.81978e-10
1.17615e-10
6.30509e-11
3.73066e-11
2.11137e-11
1.13367e-11
5.74058e-12
2.682e-12
1.11804e-12
4.10937e-13
1.3336e-13
5.02702e-14
4.25509e-14
6.43542e-14
1.02047e-13
2.20279e-13
3.42863e-13
4.21214e-10
1.79176e-10
4.20742e-10
8.54265e-10
9.78049e-10
7.15208e-10
3.35009e-10
1.12312e-10
5.95351e-11
3.25907e-11
1.79704e-11
9.6982e-12
5.08894e-12
2.50479e-12
1.11982e-12
4.33519e-13
1.4209e-13
4.21082e-14
1.96445e-14
2.57878e-14
5.03604e-14
8.82568e-14
1.87023e-13
4.276e-10
1.96431e-10
6.44025e-10
1.11245e-09
1.11541e-09
7.80427e-10
3.10861e-10
1.22278e-10
5.95809e-11
2.74026e-11
1.41993e-11
7.57128e-12
4.029e-12
2.04122e-12
9.86946e-13
4.12881e-13
1.43882e-13
4.20614e-14
1.18998e-14
1.07541e-14
2.11862e-14
5.92227e-14
1.06558e-13
4.4663e-10
2.62438e-10
8.73237e-10
1.26271e-09
1.20381e-09
7.49061e-10
2.96897e-10
1.51328e-10
5.71698e-11
2.23523e-11
1.01261e-11
5.33776e-12
2.89048e-12
1.5289e-12
7.67996e-13
3.49396e-13
1.33882e-13
4.12923e-14
1.05302e-14
5.67287e-15
1.11707e-14
2.51683e-14
7.42695e-14
4.66018e-10
3.27704e-10
1.03989e-09
1.32157e-09
1.20763e-09
6.47971e-10
3.41976e-10
1.74342e-10
5.27934e-11
1.68491e-11
7.28063e-12
3.64339e-12
1.93217e-12
1.00789e-12
5.20123e-13
2.57732e-13
1.10949e-13
3.73971e-14
9.61775e-15
3.21674e-15
4.63068e-15
1.78277e-14
3.93804e-14
5.02507e-10
4.01416e-10
1.14697e-09
1.30147e-09
1.06046e-09
6.32171e-10
3.97283e-10
1.77278e-10
5.04298e-11
1.35477e-11
4.89073e-12
2.33501e-12
1.18969e-12
5.98918e-13
3.069e-13
1.61672e-13
7.88853e-14
3.04859e-14
8.5998e-15
2.03367e-15
2.08596e-15
5.84998e-15
2.0765e-14
5.27065e-10
4.6347e-10
1.12453e-09
1.26641e-09
9.08315e-10
6.36468e-10
4.33863e-10
1.87948e-10
5.26202e-11
1.11908e-11
3.14791e-12
1.4021e-12
6.87383e-13
3.24891e-13
1.57746e-13
8.48338e-14
4.66726e-14
2.15458e-14
6.97973e-15
1.466e-15
1.01364e-15
3.08283e-15
8.67368e-15
5.8321e-10
4.5835e-10
1.08119e-09
1.17863e-09
8.15947e-10
6.26676e-10
4.25588e-10
1.93825e-10
5.32508e-11
8.8227e-12
1.9336e-12
7.84439e-13
3.72146e-13
1.63574e-13
7.18063e-14
3.64891e-14
2.16143e-14
1.21075e-14
4.86461e-15
1.09463e-15
3.88934e-16
7.43296e-16
3.47319e-15
6.24221e-10
4.28669e-10
1.0387e-09
1.09073e-09
6.90666e-10
6.05477e-10
3.97684e-10
1.67869e-10
4.65401e-11
7.71523e-12
1.13139e-12
3.97185e-13
1.84826e-13
7.72142e-14
2.98908e-14
1.31033e-14
7.50848e-15
4.86771e-15
2.63837e-15
7.76692e-16
1.83635e-16
2.63926e-16
8.69595e-16
7.28091e-10
3.8116e-10
9.186e-10
8.69735e-10
6.41724e-10
5.80045e-10
3.4927e-10
1.399e-10
3.50198e-11
5.32617e-12
5.5624e-13
1.65907e-13
8.07308e-14
3.28987e-14
1.13488e-14
3.93208e-15
1.91742e-15
1.33221e-15
1.01924e-15
4.3166e-16
9.04202e-17
5.23808e-17
1.93799e-16
8.41877e-10
3.65296e-10
7.12052e-10
6.02148e-10
6.3797e-10
5.23615e-10
2.64792e-10
8.70358e-11
2.02013e-11
2.55965e-12
2.11694e-13
5.52546e-14
2.82345e-14
1.17497e-14
3.79052e-15
1.06564e-15
3.69482e-16
2.37241e-16
2.4184e-16
1.74163e-16
3.91315e-17
1.75214e-17
4.02618e-17
1.01423e-09
3.69871e-10
4.98154e-10
5.59682e-10
6.29205e-10
4.01872e-10
1.57797e-10
4.18355e-11
6.67687e-12
5.95582e-13
3.84738e-14
1.16377e-14
6.74792e-15
2.9758e-15
9.45982e-16
2.26156e-16
5.17669e-17
2.63918e-17
3.70704e-17
5.1159e-17
1.76893e-17
4.80497e-18
7.77918e-18
1.19142e-09
4.69924e-10
4.91835e-10
6.19316e-10
4.56166e-10
1.74683e-10
4.72355e-11
8.06958e-12
7.44494e-13
3.31863e-14
2.32347e-15
1.18562e-15
8.12353e-16
3.92717e-16
1.29819e-16
2.75544e-17
4.44827e-18
1.82444e-18
4.19332e-18
1.08047e-17
7.14788e-18
1.83401e-18
1.52508e-18
-2.75938e-23
-2.63723e-24
0.000868385
0.0123174
0.000572011
0.000267178
0.000117914
0.000117339
0.000377008
0.00018282
0.00115108
0.00564919
0.000619762
0.00160291
0.00436549
0.00682762
0.000396028
0.000981689
0.00132605
0.00126593
0.000218987
0.000208548
0.000250508
0.000268653
0.000500052
8.09588e-05
7.88237e-05
7.88239e-05
0.00074799
0.000556174
0.000159378
0.00017261
0.000718846
0.000687915
0.00029022
0.00016613
0.000202261
0.000136496
0.00013994
8.28667e-05
3.70887e-05
5.20138e-22
-1.12273e-09
1.89365e-07
5.92267e-23
-1.15403e-20
1.32028e-08
1.04788e-07
-6.98493e-14
3.06739e-07
1.26158e-06
9.01673e-07
9.25901e-07
1.53544e-06
1.54413e-06
6.06425e-07
1.53779e-06
1.53631e-06
1.15454e-06
1.09933e-06
1.16113e-06
1.07189e-06
1.81153e-06
2.9927e-06
5.26238e-08
5.9609e-07
3.37867e-06
4.57026e-06
2.94358e-08
9.59558e-08
3.27288e-06
4.55871e-06
2.93309e-08
2.9568e-08
9.25676e-07
1.65604e-06
1.76292e-07
1.13332e-07
3.81342e-08
3.09038e-08
2.41414e-07
2.4067e-07
1.40546e-07
5.58728e-08
1.44144e-07
2.05011e-07
1.26903e-07
9.00176e-08
2.56159e-08
4.10447e-08
7.19814e-08
7.32725e-08
5.57976e-09
1.10207e-08
2.46371e-08
3.59545e-08
1.07836e-09
1.14331e-09
5.23807e-09
8.69249e-09
1.97655e-10
2.23439e-10
7.431e-10
1.3667e-09
3.05247e-11
1.93845e-11
8.11808e-11
1.53959e-10
4.51678e-12
4.22643e-12
8.69091e-12
1.59102e-11
1.24856e-12
1.22238e-12
2.00924e-12
2.59222e-12
5.2264e-13
6.67108e-13
8.00197e-13
1.11384e-12
2.79825e-13
3.72335e-13
5.48747e-13
6.65051e-13
1.94606e-13
2.84166e-13
3.80205e-13
5.27658e-13
1.29513e-13
1.83446e-13
2.80033e-13
3.4055e-13
8.88208e-14
1.23297e-13
1.78218e-13
2.81078e-13
4.26589e-14
6.18286e-14
1.0576e-13
1.40724e-13
2.01239e-14
3.08318e-14
4.75623e-14
8.36676e-14
7.19954e-15
1.10866e-14
2.04228e-14
3.18933e-14
2.13035e-15
3.2765e-15
5.15647e-15
1.03566e-14
4.36645e-16
6.00873e-16
1.2007e-15
2.12268e-15
8.01762e-17
1.2374e-16
1.81379e-16
3.66882e-16
1.40121e-17
1.67934e-17
2.65319e-17
4.21063e-17
2.06364e-18
2.10743e-18
2.66957e-18
3.14712e-18
0.0188984
0.0102149
0.000971409
0.00048673
0.000820782
0.00153023
0.000700532
0.000168412
0.000147671
0.00860723
0.0228271
0.00158919
1.72977e-07
4.47363e-06
8.52253e-07
0.000296093
0.00242148
0.00260555
0.00694144
0.00211957
0.00317612
0.00453128
0.00621564
0.00477475
0.00183381
0.000341598
0.000167901
0.0144641
0.0228395
0.0228696
0.0102119
0.00150518
0.00271442
0.001964
0.00396544
0.00395248
0.00260666
0.00411725
0.00843597
0.00997854
0.00997814
0.00957404
0.00439151
0.00790979
0.0121192
0.0127266
0.0228409
0.022867
0.0228431
0.0212618
0.0138535
0.0138514
0.00915447
0.00340829
0.00341619
0.00382584
0.0050702
0.00924992
0.00997951
0.00997797
0.00389553
0.00121691
0.00207925
0.00305414
0.00417543
0.00883319
0.0215366
0.0228759
0.011309
0.00340408
0.00244176
0.00250385
0.00349406
0.00637695
0.00737092
0.00737092
0.00391635
0.0088982
0.00420133
0.000213483
0.000464515
0.00122071
0.0011951
0.000676853
0.00057168
0.00231402
0.00344808
0.000474604
0.000494477
0.000639446
0.0017229
0.00177851
0.00180728
0.00343257
0.00594927
0.000239163
0.00124152
0.000764914
0.000102383
8.98351e-05
9.33833e-05
0.000249935
0.000397984
0.0004134
0.000249545
7.00621e-05
6.99256e-05
7.00409e-05
7.1e-05
0.000141448
0.00042933
0.000584135
0.00113826
0.00653302
7.88238e-05
7.89471e-05
7.89385e-05
0.000302499
0.000153782
7.50608e-05
0.000115139
0.00115274
0.00308202
0.00323907
0.000924045
0.000421168
0.000937511
0.00132145
0.0018312
0.0013611
0.00174753
0.0063475
0.00729663
0.000183314
0.00024457
0.000336695
0.000336666
0.000166762
7.51484e-05
0.000222087
0.00250899
0.00359677
0.00359827
0.00347473
0.00335169
0.00387059
0.00420784
0.00421162
0.00309994
0.00489024
0.00692135
0.00728871
0.000141636
0.000158006
0.000137072
7.93558e-05
0.000149517
0.000262032
0.000251481
0.000144427
0.000112223
0.000116271
1.28959e-06
0.000123614
0.000293436
0.00070102
0.00112269
0.00136475
0.00111294
0.000968644
0.000890174
2.21505e-05
5.35611e-06
-8.15046e-13
3.5057e-08
1.77407e-06
9.81568e-08
1.53887e-23
-1.84342e-23
-4.76104e-09
-1.38557e-09
8.03886e-07
5.42479e-13
-3.99782e-14
-2.29607e-11
-7.07009e-11
5.74597e-28
3.81939e-17
2.20761e-17
1.92394e-13
-3.58942e-15
-5.5318e-12
-4.27142e-13
4.02242e-08
5.00936e-08
1.43666e-06
5.7121e-06
6.06189e-06
4.77966e-06
2.53952e-07
1.78494e-09
-1.33424e-27
8.09604e-07
1.23709e-06
5.82916e-08
7.38247e-10
2.938e-09
5.66373e-11
1.96349e-07
1.22123e-08
2.34168e-09
7.05451e-09
2.45686e-08
8.19658e-09
6.74638e-06
7.57175e-06
7.42366e-06
5.41801e-06
1.29479e-07
9.21938e-15
-3.02955e-16
4.25777e-07
3.29288e-07
6.98483e-08
3.41535e-09
4.20365e-07
3.52335e-07
6.87782e-07
3.59081e-09
1.00749e-09
1.09278e-08
1.88678e-08
7.79999e-09
4.70949e-06
7.575e-06
5.60974e-06
1.74498e-06
-3.9932e-21
3.36195e-13
4.87432e-07
6.9753e-07
2.87316e-07
5.06831e-08
1.51526e-07
1.69294e-06
1.84946e-06
6.8878e-07
4.56143e-14
2.53028e-24
1.71388e-08
2.92438e-08
8.20293e-09
1.89184e-06
2.87291e-06
1.61401e-06
1.52716e-06
-1.25359e-21
1.90805e-06
2.71577e-06
2.75699e-06
4.83957e-07
3.57894e-08
1.06776e-06
3.48053e-06
2.66214e-06
5.09784e-07
2.64392e-06
3.93181e-06
1.60583e-07
2.97675e-08
2.15528e-06
1.76926e-06
1.01161e-08
1.69197e-08
1.24059e-06
1.05091e-06
1.82527e-06
1.58381e-06
1.37602e-06
1.13955e-07
3.64292e-08
2.44454e-06
3.48055e-06
3.48036e-06
5.10299e-07
5.43081e-06
5.49231e-06
4.18584e-06
3.97808e-07
3.91539e-06
8.81207e-07
8.89432e-09
9.6677e-08
4.32809e-07
8.88471e-07
2.87655e-07
2.86486e-07
1.42812e-07
1.41278e-07
1.03359e-06
2.44881e-06
8.5291e-07
3.47605e-06
8.25882e-08
4.69687e-06
5.33147e-06
5.2711e-06
2.61519e-06
4.42798e-06
1.98527e-07
6.53616e-09
1.5596e-07
8.38489e-07
1.78658e-06
1.78668e-06
1.67791e-06
1.14499e-06
1.22738e-06
2.04355e-06
1.63288e-06
6.36392e-08
7.39416e-07
8.21161e-08
6.1684e-07
5.39481e-07
1.15129e-06
2.05462e-06
4.43616e-06
7.01104e-07
6.46081e-09
2.77986e-08
1.13398e-07
2.35774e-07
6.63137e-07
8.30575e-07
1.68511e-06
1.90094e-06
1.90041e-06
2.53892e-07
2.83221e-08
2.78338e-08
1.03929e-06
3.09027e-08
3.09031e-08
1.59288e-07
1.77439e-06
2.15531e-06
1.36621e-06
7.55568e-07
5.16915e-07
5.43207e-07
4.66879e-07
2.45929e-07
1.12855e-07
1.12894e-07
2.16797e-07
4.29796e-08
8.93196e-08
2.49123e-08
7.79328e-08
1.86581e-06
3.0902e-08
4.79088e-08
2.72957e-07
3.11572e-07
6.46416e-08
9.30639e-07
9.60143e-07
7.19988e-07
6.44783e-07
6.47588e-07
5.76248e-07
1.99387e-07
1.28514e-07
2.36413e-08
9.29518e-09
6.61759e-09
6.53621e-09
7.0878e-09
1.05831e-06
4.30813e-08
4.21007e-08
1.40621e-07
1.96498e-08
1.49691e-08
1.58168e-07
4.01709e-07
3.46473e-07
2.20156e-07
5.79018e-08
1.12086e-09
4.54065e-09
7.32183e-08
1.00656e-07
7.88431e-08
1.02941e-08
5.91613e-09
1.54628e-08
7.8687e-08
5.34236e-08
1.857e-08
4.19033e-09
4.23766e-09
1.59679e-09
9.5583e-10
9.51462e-10
1.05574e-09
8.57064e-10
8.57037e-10
8.57024e-10
8.55887e-10
8.55915e-10
8.74574e-10
3.58813e-09
6.5625e-09
5.89474e-09
2.10878e-08
5.98166e-08
3.99061e-08
1.00387e-08
2.59073e-09
3.08045e-09
1.95054e-09
1.36875e-09
1.14522e-09
1.01611e-09
9.24233e-10
8.89763e-10
9.00427e-10
9.10054e-10
9.26563e-10
9.76404e-10
1.26637e-09
1.69878e-09
1.81355e-09
1.30256e-08
6.09206e-08
1.57411e-08
3.70123e-09
1.78277e-09
1.59402e-09
1.16861e-09
8.40028e-10
6.48935e-10
5.5876e-10
5.60331e-10
6.78407e-10
8.47271e-10
1.15881e-09
1.56831e-09
2.40519e-09
3.44086e-09
3.24111e-09
1.81561e-09
1.45912e-08
5.49124e-08
2.86593e-09
9.57565e-10
6.50072e-10
5.17847e-10
3.74878e-10
2.84035e-10
2.53236e-10
2.70023e-10
3.34055e-10
4.55944e-10
7.04124e-10
1.14519e-09
1.68885e-09
2.526e-09
3.48656e-09
2.73377e-09
2.12896e-09
2.1129e-08
2.69007e-08
4.63803e-10
2.15109e-10
1.50328e-10
1.1811e-10
9.48755e-11
8.87354e-11
9.89782e-11
1.26309e-10
1.7524e-10
2.62741e-10
4.17462e-10
6.7147e-10
9.88614e-10
1.49061e-09
2.46212e-09
1.82947e-09
3.46668e-09
2.33214e-08
1.3197e-08
7.41468e-11
4.0753e-11
3.24325e-11
3.05892e-11
3.26554e-11
3.97196e-11
5.25828e-11
7.53996e-11
1.18336e-10
1.98745e-10
3.51497e-10
5.97366e-10
9.8126e-10
1.5653e-09
2.31093e-09
1.68218e-09
2.04697e-09
2.03158e-08
1.32244e-08
1.15657e-11
9.38324e-12
1.02025e-11
1.24504e-11
1.64207e-11
2.32341e-11
3.5137e-11
5.70111e-11
9.896e-11
1.84412e-10
3.65032e-10
7.13917e-10
1.28456e-09
2.15551e-09
2.2758e-09
1.48827e-09
1.48616e-09
1.37314e-08
1.16434e-08
2.91404e-12
3.53296e-12
4.73397e-12
6.6184e-12
9.68972e-12
1.5247e-11
2.42036e-11
3.95801e-11
7.4723e-11
1.62834e-10
3.68166e-10
7.7278e-10
1.49587e-09
2.75226e-09
1.66382e-09
1.32046e-09
9.81998e-09
2.48903e-08
1.01833e-08
1.33106e-12
1.92434e-12
2.85991e-12
4.30164e-12
6.73275e-12
1.02901e-11
1.56677e-11
2.60353e-11
4.79025e-11
1.0872e-10
2.95005e-10
7.83597e-10
1.53409e-09
2.93602e-09
1.30045e-09
1.53184e-09
6.48871e-08
5.9055e-08
9.72374e-09
8.97893e-13
1.39941e-12
2.19041e-12
3.48573e-12
5.63884e-12
9.0046e-12
1.48744e-11
2.48783e-11
4.25459e-11
8.02671e-11
2.02196e-10
6.21293e-10
1.56962e-09
2.78876e-09
2.24588e-09
4.09865e-08
6.79632e-08
4.87659e-08
9.00107e-09
6.44195e-13
1.17455e-12
1.88903e-12
3.18624e-12
5.46922e-12
9.35144e-12
1.60844e-11
2.73101e-11
4.53498e-11
7.80573e-11
1.62505e-10
5.42792e-10
1.618e-09
2.96162e-09
7.3169e-09
5.83867e-08
6.51753e-08
3.20455e-08
7.2696e-09
5.52221e-13
9.29056e-13
1.6282e-12
2.93709e-12
5.3655e-12
9.82834e-12
1.78162e-11
3.11453e-11
5.11472e-11
8.03848e-11
1.31514e-10
3.19972e-10
1.92108e-09
3.71754e-09
7.32402e-09
4.02596e-08
5.72767e-08
1.53977e-08
6.43246e-09
3.70598e-13
6.98522e-13
1.31539e-12
2.5478e-12
5.03124e-12
9.90724e-12
1.90117e-11
3.4473e-11
5.72021e-11
8.74319e-11
1.22573e-10
1.99733e-10
1.70284e-09
6.32683e-09
8.20517e-09
8.50176e-09
1.09717e-08
4.57026e-09
4.56373e-09
2.41579e-13
4.53449e-13
9.52276e-13
2.01828e-12
4.35959e-12
9.26606e-12
1.90143e-11
3.62341e-11
6.26082e-11
9.72589e-11
1.30072e-10
1.44498e-10
2.59732e-10
7.11135e-09
2.50019e-08
1.93613e-08
4.45916e-09
4.45892e-09
1.45984e-08
1.19991e-13
2.59287e-13
5.97182e-13
1.40488e-12
3.36026e-12
7.88276e-12
1.74154e-11
3.53576e-11
6.46895e-11
1.08382e-10
1.58444e-10
1.85371e-10
2.60729e-09
1.48361e-08
3.66687e-08
6.84212e-08
1.64535e-08
4.4593e-09
4.3264e-08
5.05993e-14
1.21847e-13
3.14669e-13
8.4983e-13
2.28648e-12
5.83052e-12
1.40741e-11
3.1127e-11
6.15687e-11
1.11304e-10
1.82835e-10
2.55002e-10
3.74068e-10
1.09928e-08
5.58844e-08
1.18333e-07
1.20235e-07
4.45908e-09
1.10446e-07
1.66389e-14
4.47173e-14
1.31715e-13
4.09495e-13
1.26311e-12
3.66726e-12
9.79704e-12
2.38154e-11
5.17318e-11
1.01018e-10
1.83489e-10
3.02302e-10
4.58696e-10
2.44692e-09
4.18786e-08
9.41445e-08
1.37777e-07
8.15975e-08
1.42204e-07
4.05223e-15
1.15559e-14
3.922e-14
1.40139e-13
5.15976e-13
1.77117e-12
5.49093e-12
1.50781e-11
3.66872e-11
7.94241e-11
1.572e-10
2.85934e-10
4.47995e-10
5.54322e-10
6.35635e-09
5.7974e-08
1.40683e-07
1.40586e-07
1.42127e-07
6.43263e-16
1.88952e-15
7.26335e-15
3.16924e-14
1.41117e-13
5.89074e-13
2.19835e-12
7.13233e-12
2.0143e-11
5.06e-11
1.1402e-10
2.32721e-10
4.26337e-10
6.57388e-10
7.80327e-10
9.11919e-09
7.69606e-08
1.38548e-07
8.0511e-08
6.22771e-17
1.60255e-16
6.19715e-16
3.17894e-15
1.81621e-14
9.8639e-14
4.73122e-13
1.95331e-12
6.87631e-12
2.08924e-11
5.58989e-11
1.37096e-10
3.05748e-10
5.86895e-10
9.65964e-10
1.72673e-09
8.32694e-09
3.74558e-08
2.82939e-09
3.66164e-18
6.72083e-18
2.16719e-17
1.15744e-16
7.88063e-16
5.5455e-15
3.55747e-14
1.95805e-13
9.02863e-13
3.46934e-12
1.13293e-11
3.50224e-11
1.03372e-10
2.92043e-10
7.2867e-10
1.24189e-09
1.44074e-09
1.01403e-09
9.25932e-10
)
;

boundaryField
{
    leftWall
    {
        type            zeroGradient;
    }
    rightWall
    {
        type            zeroGradient;
    }
    lowerWall
    {
        type            zeroGradient;
    }
    atmosphere
    {
        type            inletOutlet;
        inletValue      uniform 0;
        value           nonuniform List<scalar> 
46
(
1.19142e-09
4.69924e-10
4.91835e-10
0
0
0
0
0
0
0
0
0
0
0
0
0
0
0
0
1.08047e-17
7.14788e-18
1.83401e-18
1.52508e-18
2.06364e-18
2.10743e-18
2.66957e-18
3.14712e-18
3.66164e-18
6.72083e-18
2.16719e-17
0
0
0
3.55747e-14
1.95805e-13
9.02863e-13
3.46934e-12
1.13293e-11
3.50224e-11
1.03372e-10
2.92043e-10
7.2867e-10
1.24189e-09
1.44074e-09
1.01403e-09
9.25932e-10
)
;
    }
    defaultFaces
    {
        type            empty;
    }
}


// ************************************************************************* //
