/*--------------------------------*- C++ -*----------------------------------*\
| =========                 |                                                 |
| \\      /  F ield         | OpenFOAM: The Open Source CFD Toolbox           |
|  \\    /   O peration     | Version:  2312                                  |
|   \\  /    A nd           | Website:  www.openfoam.com                      |
|    \\/     M anipulation  |                                                 |
\*---------------------------------------------------------------------------*/
FoamFile
{
    version     2.0;
    format      ascii;
    arch        "LSB;label=32;scalar=64";
    class       volScalarField;
    location    "5";
    object      p;
}
// * * * * * * * * * * * * * * * * * * * * * * * * * * * * * * * * * * * * * //

dimensions      [1 -1 -2 0 0 0 0];

internalField   nonuniform List<scalar> 
2268
(
5034.44
5044.68
5065.63
5097
5138.11
5187.63
5243
5300.33
5354.77
5401.47
5436.61
5458.24
5464.6
5456.4
5436.3
5407.54
5372.77
5334.64
5295.94
5260.15
5230.75
5210.58
5200.44
4235.16
4245.12
4266.19
4297.81
4339.34
4389.52
4445.89
4504.41
4560.04
4607.65
4643.21
4665.15
4671.24
4662.32
4641.36
4611.85
4576.37
4537.64
4498.28
4461.84
4431.76
4410.99
4400.64
3432.51
3442.13
3463.39
3495.47
3537.81
3589.36
3647.75
3708.76
3766.86
3816.38
3853.48
3875.34
3880.87
3870.49
3847.77
3816.81
3779.93
3740.02
3699.36
3661.59
3630.15
3608.42
3598.1
2625.99
2635.63
2657.32
2690.05
2733.52
2787.04
2848.48
2913.25
2975.13
3027.5
3064.87
3088.84
3093.74
3081.07
3055.55
3022.48
2983.47
2941.83
2899.2
2859.39
2825.76
2802.75
2792.77
1815.21
1825.23
1847.84
1881.53
1926.22
1982.23
2047.82
2117.86
2185.14
2241.73
2280.11
2306.21
2310.15
2294.3
2264.89
2229.18
2186.99
2143.03
2097.87
2055.26
2018.51
1993.67
1984.31
1129.25
1135.28
1149.33
1170.55
1199.91
1239.39
1290.01
1349.28
1411.18
1466.89
1506.5
1532.14
1534.89
1516.82
1485.16
1450.94
1412.26
1378.06
1340.54
1302.94
1271.45
1249.98
1242.79
815.241
816.42
818.439
821.963
827.699
836.562
850.355
870.429
896.158
924.347
950.701
962.524
966.27
959.297
944.907
929.8
912.985
899.971
885.681
871.135
859.507
850.103
843.597
743.685
743.833
743.072
741.966
740.511
738.374
735.759
733.546
732.813
734.323
737.96
742.887
748.633
754.665
759.507
761.6
761.354
758.849
758.116
758.088
757.142
755.062
753.486
2553.66
2559.74
2585.16
2610.91
2636.54
2661.05
2680.1
2689.42
2690.11
2687.06
2685.69
2687.63
2694.39
2699.49
2693.45
2695.32
2702.36
2692.71
2692.14
1795.83
1803.35
1827.5
1849.52
1874.27
1898.85
1919.1
1927.77
1927.49
1923.33
1920.82
1921.16
1927.33
1934.44
1933.07
1934.94
1935.06
1919.7
1917.46
1188.25
1198.15
1212.22
1221.27
1232.91
1248.23
1265.26
1274.53
1276.78
1275.47
1274.95
1278.12
1293.67
1316.05
1335.35
1338.09
1311.83
1274.17
1271.09
933.038
935.472
934.799
931.227
929.085
929.622
933.338
939.715
946.225
952.733
952.386
948.436
948.598
959.956
976.628
981.568
967.781
951.493
942.765
879.04
875.446
869.114
862.347
857.645
854.681
850.133
850.42
854.826
865.391
862.849
845.14
822.09
814.246
817.407
823.377
836.01
853.37
843.487
823.444
816.9
810.686
803.847
798.348
795.398
791.141
788.308
790.385
802.24
800.58
781.032
758.16
752.787
762.096
768.666
781.198
791.05
789.432
768.859
759.898
751.5
744.112
738.315
735.39
731.945
727.046
727.811
737.257
735.67
715.274
696.188
694.388
704.618
709.688
721.22
728.489
732.697
706.102
702.317
691.515
683.704
678.77
675.63
672.883
668.759
669.258
673.431
671.875
652.593
640.537
645.491
652.411
656.327
662.972
668.034
675.433
648.911
648.84
648.205
647.278
646.235
644.847
643.475
642.842
643.669
646.315
650.588
655.796
661.155
666.051
669.806
671.587
671.356
669.671
667.983
665.807
662.612
657.539
647.949
521.595
520.936
519.912
519.014
518.047
517.27
517.447
518.91
521.277
525.1
530.541
536.517
542.199
546.793
549.95
551.335
550.556
548.065
543.772
537.793
531.58
525.333
516.989
419.309
418.789
417.241
415.924
414.324
411.969
409.345
408.41
408.906
410.845
414.348
419.325
424.546
428.471
431.353
432.636
431.908
428.686
422.961
416.093
409.012
402.165
395.675
347.368
347.105
345.244
342.907
340.376
336.587
332.61
329.95
328.281
326.714
325.387
325.276
326.422
328.156
330.042
331.608
332.721
331.965
328.407
323.304
316.568
309.378
302.436
282.723
281.985
280.296
278.079
275.8
273.537
271.762
269.602
266.813
263.433
260.007
257.061
255.487
255.749
256.869
258.667
260.753
262.247
261.398
256.819
250.352
242.332
233.533
217.916
217.092
215.892
214.18
212.313
210.769
209.249
207.08
204.213
201.191
198.63
196.602
195.403
195.493
196.834
198.878
200.913
202.114
202.222
199.802
191.168
179.912
168.039
153.695
152.785
151.508
149.814
147.874
146.178
144.502
142.377
140.036
137.838
136.025
134.726
134.27
135.098
137.126
140.031
143.182
145.417
145.762
141.749
130.329
116.37
100.787
89.9305
88.8645
87.2036
85.0595
82.7606
80.6271
78.709
76.8878
75.1784
73.73
72.6004
71.8184
71.7215
72.9725
75.5019
79.414
84.227
88.0651
87.9822
79.8301
65.0744
52.6862
37.5866
31.9763
30.8851
29.1721
27.1748
25.244
23.5694
22.2998
21.3612
20.7433
20.3652
20.0925
19.697
19.4528
20.0637
21.4953
24.1194
28.011
32.7952
32.0799
25.1994
20.1194
14.1838
5.7335
1.98336
1.54176
0.897791
0.256657
-0.249155
-0.612772
-0.85896
-1.07983
-1.1822
-1.23517
-1.28639
-1.44098
-1.62533
-1.70766
-1.44292
-0.865766
-0.0457221
1.11541
2.78828
4.67644
5.24435
2.8956
0.335039
-1.82954
-1.83299
-1.83123
-1.82707
-1.8253
-1.82748
-1.83401
-1.84445
-1.86463
-1.89164
-1.92187
-1.9498
-1.98318
-2.02264
-2.06606
-2.08784
-2.0693
-1.98357
-1.49129
-0.243747
-0.0575099
-0.755796
-1.34012
-1.96335
-1.95979
-1.95739
-1.95531
-1.95509
-1.95777
-1.96444
-1.97595
-1.99419
-2.01863
-2.04886
-2.08441
-2.12195
-2.16727
-2.22284
-2.29581
-2.36957
-2.40817
-2.41517
-2.24659
-2.31927
-2.12799
-1.86816
-2.08528
-2.08389
-2.08249
-2.08196
-2.08319
-2.08672
-2.09366
-2.10528
-2.1225
-2.14531
-2.17392
-2.2085
-2.24733
-2.29086
-2.3442
-2.41469
-2.48936
-2.55732
-2.64828
-2.72928
-2.70495
-2.48292
-2.17656
-2.20861
-2.20832
-2.20803
-2.20859
-2.21061
-2.21475
-2.2219
-2.23304
-2.24866
-2.26885
-2.29404
-2.32434
-2.35866
-2.39755
-2.44383
-2.49944
-2.55897
-2.6202
-2.6829
-2.7087
-2.65468
-2.51012
-2.32955
-2.33255
-2.33282
-2.33333
-2.33463
-2.3372
-2.3417
-2.34885
-2.35925
-2.3732
-2.39097
-2.41254
-2.43764
-2.46588
-2.49776
-2.53449
-2.57524
-2.61692
-2.65641
-2.68705
-2.68784
-2.63448
-2.53397
-2.42302
-2.45664
-2.4572
-2.45818
-2.45993
-2.46282
-2.46738
-2.47409
-2.48338
-2.49551
-2.51078
-2.52887
-2.54934
-2.57189
-2.59664
-2.62386
-2.65207
-2.67833
-2.69895
-2.70798
-2.69566
-2.65529
-2.58954
-2.51827
-2.58077
-2.58144
-2.58265
-2.58464
-2.58765
-2.59206
-2.59819
-2.60633
-2.61666
-2.62929
-2.64407
-2.6604
-2.67793
-2.69675
-2.71632
-2.73515
-2.75048
-2.75931
-2.75773
-2.74214
-2.71067
-2.66715
-2.62252
-2.70486
-2.70558
-2.70689
-2.70896
-2.71194
-2.71607
-2.72157
-2.72859
-2.73724
-2.74753
-2.75927
-2.77208
-2.78562
-2.79953
-2.81304
-2.82474
-2.83276
-2.83536
-2.82999
-2.8154
-2.79131
-2.76068
-2.73011
-2.82887
-2.82961
-2.83094
-2.83299
-2.83583
-2.83961
-2.84446
-2.85046
-2.85764
-2.86596
-2.87523
-2.88515
-2.89536
-2.90537
-2.9144
-2.92127
-2.92434
-2.92405
-2.91757
-2.90476
-2.88592
-2.86305
-2.84059
-2.95279
-2.95352
-2.95482
-2.95677
-2.95941
-2.96281
-2.96703
-2.97211
-2.97802
-2.98469
-2.99193
-2.9995
-3.00704
-3.01409
-3.02
-3.02399
-3.02535
-3.02251
-3.0157
-3.00459
-2.98954
-2.97183
-2.95428
-3.07659
-3.0773
-3.07854
-3.08037
-3.08277
-3.08579
-3.08942
-3.09366
-3.09848
-3.10377
-3.10937
-3.11505
-3.1205
-3.12533
-3.12902
-3.13102
-3.13079
-3.12734
-3.12088
-3.11134
-3.09908
-3.08499
-3.07082
-3.20028
-3.20097
-3.20213
-3.20382
-3.20598
-3.20861
-3.2117
-3.21521
-3.21909
-3.22323
-3.2275
-3.23168
-3.23553
-3.23872
-3.24085
-3.24151
-3.24029
-3.23676
-3.23089
-3.22273
-3.2126
-3.20113
-3.18948
-3.32387
-3.32453
-3.32561
-3.32715
-3.32907
-3.33135
-3.33395
-3.33682
-3.33989
-3.34309
-3.34628
-3.3493
-3.35193
-3.35392
-3.35497
-3.35477
-3.35298
-3.3496
-3.34433
-3.33734
-3.32887
-3.31938
-3.30964
-3.44738
-3.44801
-3.44901
-3.45039
-3.45208
-3.45404
-3.4562
-3.45851
-3.46092
-3.46334
-3.46567
-3.46778
-3.46949
-3.47062
-3.47095
-3.47029
-3.46854
-3.46504
-3.46028
-3.45425
-3.4471
-3.43915
-3.43094
-3.57083
-3.57142
-3.57234
-3.57358
-3.57506
-3.57672
-3.57849
-3.58033
-3.58217
-3.58397
-3.58562
-3.58702
-3.58805
-3.58855
-3.58838
-3.58738
-3.58543
-3.58226
-3.57805
-3.57284
-3.56676
-3.56005
-3.55309
-3.69424
-3.69479
-3.69564
-3.69675
-3.69803
-3.69941
-3.70085
-3.70228
-3.70367
-3.70495
-3.70607
-3.70693
-3.70745
-3.70751
-3.70699
-3.70579
-3.7038
-3.70092
-3.6972
-3.69269
-3.68749
-3.68178
-3.67585
-3.81763
-3.81815
-3.81892
-3.8199
-3.821
-3.82215
-3.82329
-3.82439
-3.82539
-3.82627
-3.82697
-3.82743
-3.82757
-3.82731
-3.82657
-3.82527
-3.82333
-3.82071
-3.81742
-3.8135
-3.80903
-3.80415
-3.79907
-3.94102
-3.94151
-3.94221
-3.94307
-3.944
-3.94494
-3.94583
-3.94664
-3.94734
-3.9479
-3.94827
-3.94842
-3.94829
-3.94782
-3.94695
-3.94561
-3.94377
-3.94139
-3.93848
-3.93506
-3.9312
-3.927
-3.92263
-4.06445
-4.06489
-4.06551
-4.06626
-4.06704
-4.0678
-4.06848
-4.06905
-4.0695
-4.0698
-4.06993
-4.06985
-4.06953
-4.06891
-4.06797
-4.06665
-4.06492
-4.06277
-4.06019
-4.05721
-4.05387
-4.05025
-4.04648
-4.18792
-4.18832
-4.18887
-4.18951
-4.19015
-4.19074
-4.19123
-4.1916
-4.19184
-4.19194
-4.19189
-4.19164
-4.19119
-4.19049
-4.18952
-4.18824
-4.18664
-4.1847
-4.18242
-4.17982
-4.17693
-4.1738
-4.17054
-4.31145
-4.31181
-4.31228
-4.31282
-4.31334
-4.31378
-4.31411
-4.3143
-4.31437
-4.31431
-4.31411
-4.31375
-4.31321
-4.31247
-4.3115
-4.31029
-4.30882
-4.30708
-4.30507
-4.3028
-4.3003
-4.2976
-4.29479
-4.435
-4.43534
-4.43574
-4.43621
-4.43663
-4.43694
-4.4371
-4.43713
-4.43705
-4.43686
-4.43656
-4.43612
-4.43553
-4.43478
-4.43384
-4.43271
-4.43137
-4.42982
-4.42806
-4.42608
-4.42391
-4.42159
-4.41917
-4.55858
-4.5589
-4.55926
-4.55968
-4.56001
-4.56018
-4.56019
-4.56008
-4.55987
-4.55958
-4.5592
-4.55871
-4.55811
-4.55736
-4.55647
-4.55543
-4.55422
-4.55285
-4.55131
-4.5496
-4.54773
-4.54574
-4.54366
-4.68221
-4.68252
-4.68291
-4.68322
-4.68345
-4.68349
-4.68335
-4.68311
-4.6828
-4.68244
-4.682
-4.68149
-4.68089
-4.68018
-4.67935
-4.67839
-4.67732
-4.67611
-4.67477
-4.6733
-4.67171
-4.67002
-4.66825
-4.80585
-4.80614
-4.80647
-4.80676
-4.80691
-4.80683
-4.80657
-4.80622
-4.80583
-4.80541
-4.80495
-4.80444
-4.80385
-4.80319
-4.80242
-4.80157
-4.80062
-4.79957
-4.79842
-4.79717
-4.79583
-4.7944
-4.7929
-4.92945
-4.92972
-4.93002
-4.93027
-4.93034
-4.93016
-4.92979
-4.92937
-4.92893
-4.92849
-4.92802
-4.92752
-4.92697
-4.92636
-4.92567
-4.92491
-4.92408
-4.92319
-4.92222
-4.92117
-4.92005
-4.91886
-4.91762
-5.05296
-5.05321
-5.05348
-5.05369
-5.05369
-5.05343
-5.053
-5.05255
-5.05209
-5.05165
-5.0512
-5.05073
-5.05022
-5.04967
-5.04906
-5.0484
-5.04769
-5.04694
-5.04613
-5.04527
-5.04436
-5.04339
-5.04239
-5.17633
-5.17656
-5.17681
-5.17697
-5.1769
-5.17661
-5.17618
-5.17573
-5.17531
-5.17489
-5.17448
-5.17405
-5.17359
-5.1731
-5.17257
-5.17201
-5.17142
-5.1708
-5.17015
-5.16946
-5.16874
-5.16798
-5.16719
-5.29952
-5.29972
-5.29996
-5.30009
-5.29994
-5.29969
-5.29932
-5.29895
-5.29858
-5.29821
-5.29784
-5.29746
-5.29706
-5.29663
-5.29619
-5.29573
-5.29524
-5.29475
-5.29424
-5.29373
-5.29318
-5.29262
-5.29202
-5.42255
-5.42268
-5.4229
-5.42289
-5.4228
-5.4227
-5.42246
-5.42219
-5.42191
-5.42161
-5.42129
-5.42096
-5.42062
-5.42026
-5.41989
-5.41952
-5.41915
-5.41878
-5.41841
-5.41804
-5.41767
-5.41728
-5.41688
-5.54546
-5.5455
-5.54577
-5.54558
-5.54561
-5.54567
-5.54562
-5.54548
-5.54529
-5.54507
-5.54481
-5.54454
-5.54425
-5.54396
-5.54367
-5.54339
-5.54312
-5.54286
-5.54263
-5.54241
-5.54219
-5.54197
-5.54174
-5.66831
-5.66824
-5.66865
-5.66811
-5.66832
-5.66866
-5.66882
-5.66882
-5.66872
-5.66857
-5.66837
-5.66815
-5.66793
-5.66771
-5.6675
-5.66731
-5.66714
-5.667
-5.66688
-5.66681
-5.66674
-5.66668
-5.66662
634.721
628.975
624.015
618.996
508.858
503.393
497.865
493.036
390.873
387.115
383.327
380.092
297.76
294.732
292.671
289.683
227.228
223.064
218.886
214.601
159.207
153.589
148.236
142.937
88.4124
81.0352
74.5946
68.8044
25.1895
19.3708
15.5325
12.807
1.99874
0.669687
0.0118452
-0.341187
-0.306485
-0.631024
-0.85809
-0.99602
-1.25725
-1.27873
-1.34631
-1.39296
-1.7583
-1.70892
-1.68318
-1.67138
-2.04817
-1.9812
-1.92948
-1.89567
-2.22691
-2.1666
-2.11908
-2.08228
-2.35307
-2.3108
-2.27319
-2.24085
-2.47288
-2.44341
-2.41492
-2.38935
-2.59283
-2.57363
-2.55371
-2.53446
-2.71035
-2.69871
-2.68623
-2.67188
-2.82616
-2.8181
-2.81011
-2.80024
-2.94257
-2.93591
-2.92965
-2.92261
-3.06088
-3.05503
-3.0497
-3.0443
-3.18104
-3.17588
-3.17119
-3.16661
-3.30244
-3.29793
-3.29369
-3.28964
-3.42479
-3.42086
-3.4171
-3.41344
-3.54783
-3.54445
-3.54114
-3.53787
-3.67134
-3.66843
-3.66555
-3.66266
-3.79519
-3.79268
-3.79018
-3.78766
-3.91929
-3.91712
-3.91495
-3.91276
-4.04359
-4.04171
-4.03983
-4.03793
-4.16805
-4.16642
-4.16479
-4.16314
-4.29263
-4.29123
-4.28982
-4.28839
-4.41731
-4.4161
-4.41489
-4.41365
-4.54207
-4.54103
-4.53999
-4.53893
-4.66689
-4.66601
-4.66512
-4.66422
-4.79176
-4.79102
-4.79027
-4.78951
-4.91667
-4.91605
-4.91543
-4.9148
-5.04161
-5.04111
-5.0406
-5.04008
-5.16658
-5.16618
-5.16578
-5.16537
-5.29156
-5.29126
-5.29096
-5.29065
-5.41656
-5.41635
-5.41614
-5.41592
-5.54156
-5.54144
-5.54131
-5.54118
-5.66657
-5.66653
-5.66649
-5.66644
607.846
601.65
595.745
589.344
584.392
581.788
580.229
578.581
581.653
581.466
580.586
567.781
561.429
570.276
574.315
573.444
574.634
576.615
583.682
484.537
474.435
466.232
460.122
455.65
453.958
453.328
454.078
455.728
456.232
451.921
446.891
446.635
457.923
463.661
454.829
452.879
453.012
458.95
372.976
362.506
353.65
345.626
340.212
337.4
336.003
337.86
336.66
342.116
341.106
333.992
331.147
334.365
339.13
333.502
333.064
335.689
340.32
283.539
275.108
266.987
258.26
253.495
249.8
247.347
247.141
247.392
249.783
248.985
244.184
241.71
239.665
239.109
237.32
235.955
237.534
241.467
207.349
199.49
192.132
187.4
183.55
180.561
178.74
178.041
176.569
174.771
173.898
173.809
173.464
171.891
170.172
167.104
163.672
162.499
165.45
134.212
124.658
118.52
115.721
113.363
111.713
111.215
111.886
111.877
111.566
111.8
112.018
110.688
108.776
106.148
102.877
99.1528
95.1324
92.9147
60.4083
52.9301
48.245
46.3682
46.0036
45.5522
45.2712
46.1685
46.9731
48.3207
49.7551
50.6198
49.445
48.1281
46.0899
43.6986
40.9503
37.3364
35.2439
10.2285
8.40804
7.0899
6.61336
6.84867
6.84647
6.36299
6.77892
6.86551
7.8237
8.90805
9.58265
9.28307
9.30696
8.83818
8.09725
7.27447
6.56208
6.96274
-0.684743
-0.915691
-1.06154
-1.17358
-1.20194
-1.14623
-1.11807
-1.16991
-1.2041
-1.21104
-1.29496
-1.31194
-1.17013
-0.827621
-0.434488
-0.270109
-0.458259
-0.551162
-0.586638
-1.16689
-1.28886
-1.37455
-1.43786
-1.49498
-1.49718
-1.46362
-1.45444
-1.47019
-1.4857
-1.50188
-1.52347
-1.54033
-1.55271
-1.54033
-1.53071
-1.51637
-1.50558
-1.49276
-1.44534
-1.4952
-1.54186
-1.58233
-1.61441
-1.62171
-1.6098
-1.6083
-1.61944
-1.63246
-1.63734
-1.64995
-1.6681
-1.6714
-1.66489
-1.65885
-1.6476
-1.64057
-1.63335
-1.66465
-1.67732
-1.69988
-1.72418
-1.74538
-1.75536
-1.75451
-1.7594
-1.77282
-1.77829
-1.77471
-1.7804
-1.78926
-1.79543
-1.79255
-1.78842
-1.78036
-1.77691
-1.77428
-1.85973
-1.84748
-1.85481
-1.86749
-1.88013
-1.89208
-1.89544
-1.90305
-1.91465
-1.91388
-1.90662
-1.90944
-1.9158
-1.92256
-1.92287
-1.92103
-1.91581
-1.91446
-1.91445
-2.03508
-2.0098
-2.00718
-2.00954
-2.01213
-2.02315
-2.03031
-2.03799
-2.04594
-2.04475
-2.04008
-2.04291
-2.04768
-2.05173
-2.0534
-2.05354
-2.05113
-2.0507
-2.05155
-2.19691
-2.16842
-2.15667
-2.15046
-2.14509
-2.1527
-2.16119
-2.17038
-2.17778
-2.17672
-2.17794
-2.18112
-2.18403
-2.18423
-2.18439
-2.18652
-2.18678
-2.18752
-2.18774
-2.35539
-2.32834
-2.30789
-2.29293
-2.28551
-2.2899
-2.29636
-2.30614
-2.31288
-2.31251
-2.3141
-2.31522
-2.3162
-2.31565
-2.31713
-2.3198
-2.31981
-2.32188
-2.31886
-2.50979
-2.48478
-2.4618
-2.44109
-2.43528
-2.43572
-2.43889
-2.44423
-2.44843
-2.44986
-2.45037
-2.44992
-2.44883
-2.44851
-2.45074
-2.45199
-2.44957
-2.45057
-2.44695
-2.65165
-2.62961
-2.61046
-2.59125
-2.5859
-2.58196
-2.58396
-2.5862
-2.58783
-2.58915
-2.58971
-2.58782
-2.58533
-2.58346
-2.58322
-2.58201
-2.5789
-2.57725
-2.57568
-2.78258
-2.76354
-2.7489
-2.73639
-2.72969
-2.72374
-2.72366
-2.72432
-2.72438
-2.72423
-2.72375
-2.72172
-2.71884
-2.71577
-2.71353
-2.71095
-2.70856
-2.70603
-2.70563
-2.90932
-2.89378
-2.88149
-2.87244
-2.86552
-2.86031
-2.85826
-2.85727
-2.85621
-2.85518
-2.85378
-2.85177
-2.84924
-2.84629
-2.84315
-2.84035
-2.83821
-2.83594
-2.83586
-3.03439
-3.02178
-3.01108
-3.00273
-2.99653
-2.99232
-2.98981
-2.98791
-2.98615
-2.98441
-2.98242
-2.98031
-2.9781
-2.9757
-2.97293
-2.97014
-2.9676
-2.96561
-2.96515
-3.15866
-3.14811
-3.13896
-3.1314
-3.12557
-3.12147
-3.11867
-3.11646
-3.11445
-3.1125
-3.11054
-3.10861
-3.10659
-3.1044
-3.10213
-3.0996
-3.09701
-3.09507
-3.09414
-3.28285
-3.27374
-3.2658
-3.25903
-3.25357
-3.24946
-3.24646
-3.24414
-3.2422
-3.24043
-3.23873
-3.23704
-3.23527
-3.23333
-3.23124
-3.22885
-3.22653
-3.22477
-3.2241
-3.40743
-3.39951
-3.3925
-3.38641
-3.38138
-3.37743
-3.37442
-3.37211
-3.37025
-3.36863
-3.36714
-3.36568
-3.36414
-3.36243
-3.36048
-3.35831
-3.35615
-3.35446
-3.35377
-3.53251
-3.52562
-3.51939
-3.51393
-3.50932
-3.5056
-3.50269
-3.5004
-3.49858
-3.49705
-3.4957
-3.49442
-3.49309
-3.49159
-3.48987
-3.48793
-3.48597
-3.4844
-3.48375
-3.65792
-3.65192
-3.64642
-3.6415
-3.6373
-3.63383
-3.63104
-3.62881
-3.62702
-3.62556
-3.6243
-3.62316
-3.62199
-3.62069
-3.61917
-3.61747
-3.61572
-3.61433
-3.61373
-3.7835
-3.77822
-3.77337
-3.76898
-3.76516
-3.76194
-3.7593
-3.75716
-3.75544
-3.75402
-3.75285
-3.7518
-3.75077
-3.74962
-3.74829
-3.74678
-3.74523
-3.74404
-3.7435
-3.90913
-3.90448
-3.90018
-3.89628
-3.89283
-3.88987
-3.88741
-3.88538
-3.88374
-3.88239
-3.88128
-3.88031
-3.87939
-3.87836
-3.87716
-3.87582
-3.87443
-3.87343
-3.87296
-4.03477
-4.03068
-4.02687
-4.0234
-4.0203
-4.01761
-4.01533
-4.01344
-4.01189
-4.01062
-4.00956
-4.00866
-4.00781
-4.00687
-4.00577
-4.00455
-4.00331
-4.00248
-4.00207
-4.1604
-4.15681
-4.15344
-4.15035
-4.14758
-4.14515
-4.14306
-4.14132
-4.13988
-4.13867
-4.13766
-4.1368
-4.13604
-4.13515
-4.13411
-4.13296
-4.13192
-4.13125
-4.13088
-4.28601
-4.28287
-4.2799
-4.27717
-4.27469
-4.27251
-4.27061
-4.26903
-4.26768
-4.26654
-4.26558
-4.26473
-4.26405
-4.26318
-4.26217
-4.26115
-4.2603
-4.25974
-4.25943
-4.4116
-4.40887
-4.40627
-4.40385
-4.40165
-4.3997
-4.398
-4.39655
-4.3953
-4.39424
-4.39331
-4.3925
-4.39177
-4.39093
-4.39001
-4.38916
-4.38846
-4.388
-4.38773
-4.53717
-4.5348
-4.53254
-4.53042
-4.52848
-4.52674
-4.52522
-4.52389
-4.52274
-4.52174
-4.52085
-4.52006
-4.5193
-4.51851
-4.5177
-4.51702
-4.51646
-4.51607
-4.51581
-4.66271
-4.66068
-4.65872
-4.65688
-4.65518
-4.65365
-4.65228
-4.65109
-4.65003
-4.64909
-4.64825
-4.64748
-4.6467
-4.64595
-4.64528
-4.64475
-4.64431
-4.644
-4.64375
-4.78823
-4.7865
-4.78483
-4.78325
-4.78177
-4.78043
-4.77922
-4.77815
-4.7772
-4.77634
-4.77556
-4.77484
-4.77411
-4.77342
-4.77281
-4.7724
-4.77206
-4.77185
-4.77162
-4.91374
-4.91228
-4.91087
-4.90953
-4.90827
-4.90711
-4.90606
-4.90512
-4.90428
-4.90351
-4.90282
-4.90219
-4.90162
-4.90101
-4.90041
-4.90004
-4.89977
-4.89964
-4.89946
-5.03922
-5.03802
-5.03686
-5.03574
-5.03468
-5.0337
-5.03281
-5.032
-5.03127
-5.03062
-5.03003
-5.02951
-5.02908
-5.02863
-5.02811
-5.02774
-5.02749
-5.02737
-5.02729
-5.16468
-5.16373
-5.16279
-5.16189
-5.16103
-5.16023
-5.15949
-5.15881
-5.15821
-5.15767
-5.15719
-5.15677
-5.15643
-5.15617
-5.15582
-5.15548
-5.15522
-5.15508
-5.1551
-5.29013
-5.2894
-5.28868
-5.28799
-5.28732
-5.2867
-5.28612
-5.28558
-5.28509
-5.28467
-5.2843
-5.28398
-5.28373
-5.28356
-5.28342
-5.28321
-5.28298
-5.2828
-5.2829
-5.41556
-5.41504
-5.41454
-5.41405
-5.41358
-5.41313
-5.41272
-5.41231
-5.41195
-5.41163
-5.41137
-5.41115
-5.411
-5.4109
-5.41087
-5.41085
-5.41075
-5.41056
-5.41067
-5.54096
-5.54066
-5.54035
-5.54006
-5.53978
-5.53953
-5.53933
-5.53901
-5.53877
-5.53858
-5.53842
-5.5383
-5.53823
-5.53821
-5.53824
-5.53831
-5.53834
-5.53825
-5.53829
-5.66637
-5.66626
-5.66614
-5.66602
-5.66592
-5.66582
-5.66568
-5.66563
-5.66558
-5.66552
-5.66548
-5.66545
-5.66546
-5.66551
-5.6656
-5.66569
-5.66577
-5.6658
-5.66584
)
;

boundaryField
{
    leftWall
    {
        type            calculated;
        value           nonuniform List<scalar> 
50
(
5034.44
4235.16
3432.51
2625.99
1815.21
1129.25
815.241
743.685
648.911
521.595
419.309
347.368
282.723
217.916
153.695
89.9305
31.9763
1.98336
-1.82954
-1.96335
-2.08528
-2.20861
-2.33255
-2.45664
-2.58077
-2.70486
-2.82887
-2.95279
-3.07659
-3.20028
-3.32387
-3.44738
-3.57083
-3.69424
-3.81763
-3.94102
-4.06445
-4.18792
-4.31145
-4.435
-4.55858
-4.68221
-4.80585
-4.92945
-5.05296
-5.17633
-5.29952
-5.42255
-5.54546
-5.66831
)
;
    }
    rightWall
    {
        type            calculated;
        value           nonuniform List<scalar> 
50
(
2692.14
1917.46
1271.09
942.765
843.487
789.432
732.697
675.433
583.682
458.95
340.32
241.467
165.45
92.9147
35.2439
6.96274
-0.586638
-1.49276
-1.63335
-1.77428
-1.91445
-2.05155
-2.18774
-2.31886
-2.44695
-2.57568
-2.70563
-2.83586
-2.96515
-3.09414
-3.2241
-3.35377
-3.48375
-3.61373
-3.7435
-3.87296
-4.00207
-4.13088
-4.25943
-4.38773
-4.51581
-4.64375
-4.77162
-4.89946
-5.02729
-5.1551
-5.2829
-5.41067
-5.53829
-5.66584
)
;
    }
    lowerWall
    {
        type            calculated;
        value           nonuniform List<scalar> 
62
(
5432.59
5442.83
5463.78
5495.15
5536.26
5585.78
5641.15
5698.48
5752.92
5799.62
5834.76
5856.39
5862.75
5854.55
5834.45
5805.69
5770.92
5732.79
5694.09
5658.29
5628.88
5608.71
5598.58
5200.44
4400.64
3598.1
2792.77
1984.31
1242.79
843.597
753.486
696.631
690.684
686.27
690.181
2553.66
1795.83
1188.25
933.038
879.04
823.444
768.859
706.102
2936.5
2943.7
2969
2994.7
3019.36
3043.31
3062.58
3072.71
3073.77
3070.72
3069.35
3071.47
3079.22
3084.43
3078.38
3080.29
3087.3
3077.65
3077.05
)
;
    }
    atmosphere
    {
        type            calculated;
        value           nonuniform List<scalar> 
46
(
-5.72962
-5.72946
-5.73038
-5.72905
-5.7297
-5.73031
-5.73056
-5.73059
-5.7305
-5.73035
-5.73017
-5.72998
-5.72979
-5.7296
-5.72943
-5.72929
-5.72917
-5.72909
-5.72904
-5.72904
-5.72904
-5.72904
-5.72904
-5.72904
-5.72905
-5.72904
-5.72904
-5.72904
-5.72904
-5.72904
-5.72904
-5.72904
-5.72904
-5.72904
-5.72904
-5.72904
-5.72904
-5.72904
-5.72905
-5.72908
-5.72917
-5.72935
-5.72946
-5.72949
-5.72946
-5.72941
)
;
    }
    defaultFaces
    {
        type            empty;
    }
}


// ************************************************************************* //
