/*--------------------------------*- C++ -*----------------------------------*\
| =========                 |                                                 |
| \\      /  F ield         | OpenFOAM: The Open Source CFD Toolbox           |
|  \\    /   O peration     | Version:  2312                                  |
|   \\  /    A nd           | Website:  www.openfoam.com                      |
|    \\/     M anipulation  |                                                 |
\*---------------------------------------------------------------------------*/
FoamFile
{
    version     2.0;
    format      ascii;
    arch        "LSB;label=32;scalar=64";
    class       volScalarField;
    location    "5";
    object      p_rgh;
}
// * * * * * * * * * * * * * * * * * * * * * * * * * * * * * * * * * * * * * //

dimensions      [1 -1 -2 0 0 0 0];

internalField   nonuniform List<scalar> 
2268
(
5432.59
5442.83
5463.78
5495.15
5536.26
5585.78
5641.15
5698.48
5752.92
5799.62
5834.76
5856.39
5862.75
5854.55
5834.45
5805.69
5770.92
5732.79
5694.09
5658.29
5628.88
5608.71
5598.58
5429.61
5439.57
5460.64
5492.26
5533.79
5583.97
5640.34
5698.86
5754.49
5802.1
5837.66
5859.6
5865.69
5856.77
5835.81
5806.3
5770.82
5732.09
5692.73
5656.29
5626.2
5605.41
5595.06
5423.25
5432.87
5454.14
5486.21
5528.56
5580.11
5638.5
5699.51
5757.61
5807.13
5844.23
5866.09
5871.62
5861.24
5838.52
5807.55
5770.68
5730.76
5690.11
5652.34
5620.9
5599.17
5588.84
5413.04
5422.68
5444.37
5477.1
5520.57
5574.09
5635.53
5700.3
5762.18
5814.55
5851.92
5875.89
5880.79
5868.11
5842.6
5809.53
5770.51
5728.88
5686.25
5646.44
5612.81
5589.8
5579.82
5395.71
5404.78
5426.34
5460.54
5508.18
5565.39
5631.16
5701.17
5768.46
5825.02
5863.46
5889.55
5893.49
5877.62
5848.22
5812.51
5770.29
5726.28
5678.32
5634.79
5595.23
5572.94
5566.24
4093.23
4141.1
4255.94
4417.56
4622.5
4875.54
5156.85
5425.11
5638.54
5776.92
5848.17
5890.65
5892.28
5847.17
5772.87
5685.62
5559.21
5388.2
5227.6
5093.53
4944.67
4856.6
4835.75
1330.44
1343.73
1382.26
1446.34
1547.34
1703.84
1944.7
2275.58
2667.29
3055.26
3359.06
3489.71
3465.76
3277.44
2997.05
2764.51
2518.59
2379.76
2175.14
1953.58
1793.64
1699.08
1680.61
1185.06
1185.2
1184.4
1183.26
1181.74
1179.51
1176.9
1174.78
1174.13
1176
1180.29
1184.28
1190.04
1196.1
1201.18
1203.07
1198.68
1185.78
1186.16
1194.94
1193.83
1184.01
1181.3
2936.5
2943.7
2969
2994.7
3019.36
3043.31
3062.58
3072.71
3073.77
3070.72
3069.35
3071.47
3079.22
3084.43
3078.38
3080.29
3087.3
3077.65
3077.05
2917.4
2914.72
2949.22
2981.47
3012.12
3037.82
3056.02
3064.68
3063.81
3060.44
3061.18
3066.48
3075.61
3081.08
3056.51
3058.49
3089.08
3074.28
3060.89
2331.99
2351.41
2411.07
2473.17
2539.74
2607.58
2656.12
2657.75
2639.14
2613.93
2595.73
2573.41
2549.15
2509.03
2436.07
2443.95
2510.04
2522.66
2491.52
1116.22
1154.69
1195.63
1208.64
1222.85
1255.54
1315.74
1354.08
1358.71
1335.53
1351.92
1434.15
1607.76
1797.2
1950.9
1939.52
1688.38
1393.32
1426.88
1117.53
1138.32
1129.48
1122.67
1120.01
1110.97
1107.96
1122.96
1138.23
1140.12
1129.47
1120.15
1099.32
1075.16
1063.28
1072.33
1099.38
1122.61
1056.45
1133.9
1138.76
1132.64
1126.44
1121.02
1115.06
1108.73
1135.73
1136.85
1149.55
1147.79
1116.49
1093.13
1066.54
1044.08
1080.92
1112.33
1129.28
1087.07
1146.19
1141.74
1134
1125.46
1112.83
1111.86
1104.89
1112.25
1124.88
1181.48
1188.96
1159.83
1072.06
1037.84
1022.45
1079.88
1110
1126.55
1093.53
1199.39
1158.36
1133.95
1125.49
1108.77
1105.12
1103.86
1104.26
1105.45
1177.71
1177.02
1098.84
1060.85
985.16
991.801
1039.28
1094.53
1125.65
1094.27
1180.39
1182.17
1181.54
1180.61
1179.84
1178.52
1177.19
1176.62
1177.44
1179.92
1184.03
1189.22
1194.71
1199.65
1203.63
1205.49
1205.23
1202.47
1200.76
1198.89
1195.76
1190.26
1179.69
1158.46
1165.6
1169.54
1167.31
1172.75
1173.8
1164.94
1161.48
1170.33
1180.81
1188.28
1194.35
1200.52
1205.36
1208.54
1209.92
1208.24
1202.63
1203.54
1201.68
1195.53
1185.01
1171.66
907.635
897.218
895.146
906.584
905.525
920.163
969.45
1017.5
1044.7
1084.77
1134.45
1166.11
1189.68
1205.1
1210.72
1209.63
1182.33
1185.52
1182.07
1139.32
1109.6
1109.4
1097.57
794.654
798.7
795.868
808.112
816.893
810.166
767.03
758.595
768.007
796.948
838.058
907.056
966.238
979.339
1002.61
1007.72
996.901
940.24
867.895
834.155
819.424
804.48
814.334
800.302
803.715
790.031
786.487
786.462
766.428
754.006
757.559
773.266
782.961
776.585
771.198
772.525
781.764
779.118
779.399
795.301
843.556
842.168
792.727
767.585
758.953
755.756
797.939
798.47
795.973
789.835
792.322
790.364
785.331
788.526
786.625
782.403
779.014
777.123
776.317
776.482
777.957
780.125
782.585
784.631
792.86
811.307
778.714
763.119
751.442
796.573
795.62
794.403
792.772
790.745
789.617
788.667
786.933
783.973
780.611
778.5
777.213
777.34
778.488
780.239
784.176
786.403
788.116
799.025
856.488
811.692
765.213
747.624
800.151
795.516
792.984
791.138
790.783
791.808
790.096
786.534
783.315
780.965
778.784
777.294
779.558
787.7
790.331
789.833
790.59
793.429
805.374
811.568
689.034
629.978
543.103
681.324
670.552
654.073
631.964
608.045
585.022
565.938
554.435
544.95
539.114
535.737
532.451
533.782
554.863
575.692
608.049
650.996
669.573
603.579
347.337
187.225
164.465
73.1395
101.349
89.5634
71.7334
53.6662
39.5341
29.4984
23.0232
16.9882
15.0553
14.8717
14.7662
10.9089
6.50609
5.03896
14.4258
31.8482
53.9535
76.0611
75.5427
47.9917
68.9252
70.2535
25.1266
0.504664
0.0545514
0.0263603
-0.0391631
-0.0247418
-0.0390671
-0.0476044
-0.0579026
-0.0776043
-0.10248
-0.130244
0.0859933
-0.174119
-0.179886
-0.262401
0.587041
3.64422
5.85524
23.677
36.8506
36.3873
27.5339
4.68655
-0.0524727
-0.0488066
-0.0459753
-0.0432244
-0.0420987
-0.0450293
-0.0523956
-0.0626335
-0.0791847
-0.0959636
-0.118289
-0.14535
-0.169587
-0.215376
-0.274286
-0.356824
-0.431082
-0.402056
3.07271
16.2819
15.8364
3.93754
0.0555867
-0.0486091
-0.0462492
-0.0419853
-0.0413018
-0.0442595
-0.0486181
-0.0558828
-0.0649906
-0.0768103
-0.0929092
-0.11241
-0.146514
-0.194562
-0.251856
-0.289886
-0.33365
-0.435504
-0.519949
-0.610936
-0.691269
-0.663722
-0.445141
-0.140751
-0.0462752
-0.0442824
-0.0400804
-0.0406144
-0.0453754
-0.0502958
-0.0561674
-0.0637597
-0.0759332
-0.0799758
-0.0842364
-0.114932
-0.157919
-0.202715
-0.199776
-0.244699
-0.323917
-0.439379
-0.517756
-0.542352
-0.491912
-0.348513
-0.163526
-0.04531
-0.0442626
-0.041985
-0.0445295
-0.0489389
-0.0536358
-0.060104
-0.0688934
-0.0821928
-0.0749991
-0.0743544
-0.100634
-0.13037
-0.167368
-0.176429
-0.191656
-0.238622
-0.283777
-0.36533
-0.397843
-0.329827
-0.183981
-0.0210562
-0.0446547
-0.0446205
-0.0447325
-0.0469172
-0.0501306
-0.0547326
-0.062041
-0.0698434
-0.0804268
-0.0931838
-0.088742
-0.108403
-0.160062
-0.184679
-0.189458
-0.161835
-0.181701
-0.236379
-0.279299
-0.24908
-0.178118
-0.0529232
0.0203046
-0.0440068
-0.0444858
-0.0455169
-0.0474169
-0.0505375
-0.0548615
-0.0611296
-0.0694416
-0.079762
-0.0926132
-0.107388
-0.123698
-0.141151
-0.1598
-0.179306
-0.192749
-0.202096
-0.216008
-0.217169
-0.176077
-0.124851
-0.0761663
-0.0346656
-0.0429879
-0.04369
-0.0448967
-0.0469176
-0.0498536
-0.0539976
-0.0594785
-0.066647
-0.0753726
-0.0856522
-0.0973775
-0.11018
-0.123668
-0.137537
-0.151032
-0.162681
-0.170575
-0.17296
-0.167401
-0.151943
-0.125957
-0.0938068
-0.0653052
-0.0418265
-0.0425479
-0.0438357
-0.0458654
-0.0487039
-0.0525081
-0.0573663
-0.0633845
-0.0705887
-0.0789105
-0.0881759
-0.0980971
-0.1083
-0.118289
-0.127299
-0.134141
-0.137209
-0.136908
-0.130441
-0.117749
-0.0979735
-0.071534
-0.0463815
-0.040541
-0.041287
-0.0425591
-0.0445014
-0.0471392
-0.0505475
-0.0547931
-0.0598771
-0.065796
-0.0724672
-0.0797191
-0.0872919
-0.0948373
-0.101879
-0.107776
-0.111749
-0.113097
-0.110251
-0.103452
-0.0923949
-0.0763059
-0.0508139
-0.0315303
-0.0391503
-0.039897
-0.0411249
-0.0429443
-0.045349
-0.0483681
-0.0520096
-0.0562631
-0.061083
-0.0663751
-0.0719799
-0.0776657
-0.0831225
-0.0879477
-0.0916397
-0.0936312
-0.093392
-0.0899382
-0.0834731
-0.0739476
-0.0611155
-0.0440869
-0.0230438
-0.0376481
-0.0383785
-0.0395383
-0.0412191
-0.0433833
-0.0460251
-0.0491219
-0.0526396
-0.0565189
-0.0606642
-0.0649315
-0.0691211
-0.0729726
-0.0761584
-0.0782919
-0.0789472
-0.0777202
-0.0741915
-0.0683104
-0.0601404
-0.049961
-0.037225
-0.0228145
-0.0360465
-0.0367564
-0.0378401
-0.0393734
-0.041297
-0.0435814
-0.0461845
-0.0490585
-0.0521396
-0.0553382
-0.0585298
-0.0615473
-0.0641785
-0.0661662
-0.0672193
-0.0670204
-0.0652258
-0.0618413
-0.0565736
-0.0495728
-0.0410827
-0.0314604
-0.0208583
-0.0343606
-0.0350438
-0.0360476
-0.0374339
-0.0391295
-0.0410849
-0.0432473
-0.045564
-0.047973
-0.0503957
-0.052728
-0.0548351
-0.0565498
-0.0576769
-0.0580063
-0.0573445
-0.0555947
-0.0520961
-0.0473384
-0.0413015
-0.0341478
-0.0261445
-0.0177772
-0.0326145
-0.0332686
-0.0341925
-0.0354366
-0.0369162
-0.0385724
-0.0403468
-0.0421867
-0.0440357
-0.0458279
-0.0474793
-0.0488834
-0.0499114
-0.0504161
-0.0502419
-0.0492422
-0.0472953
-0.0441276
-0.0399138
-0.0347012
-0.0286211
-0.0218976
-0.0149024
-0.0308285
-0.0314522
-0.032297
-0.0334057
-0.0346859
-0.0360731
-0.0375098
-0.0389463
-0.0403333
-0.0416181
-0.0427343
-0.0435998
-0.0441168
-0.044175
-0.0436581
-0.0424547
-0.0404652
-0.0375891
-0.0338687
-0.0293555
-0.0241565
-0.0184441
-0.0125095
-0.029024
-0.0296151
-0.0303836
-0.0313639
-0.03246
-0.0336054
-0.0347533
-0.0358537
-0.036863
-0.0377429
-0.0384424
-0.0388993
-0.0390406
-0.0387844
-0.038045
-0.0367409
-0.0348023
-0.0321833
-0.0288938
-0.0249728
-0.0205033
-0.015619
-0.0105386
-0.0272223
-0.0277787
-0.0284722
-0.0293293
-0.0302506
-0.031166
-0.0320845
-0.0329129
-0.0336147
-0.0341734
-0.0345514
-0.034702
-0.0345713
-0.0340997
-0.0332255
-0.0318905
-0.0300464
-0.0276674
-0.0247557
-0.0213393
-0.017481
-0.0132836
-0.0089123
-0.0254456
-0.0259658
-0.0265809
-0.0273022
-0.028043
-0.0287129
-0.0295005
-0.0301234
-0.0305747
-0.0308792
-0.0310108
-0.030935
-0.0306122
-0.0299997
-0.0290538
-0.0277335
-0.0260053
-0.0238526
-0.0212754
-0.0182933
-0.0149537
-0.0113354
-0.00756334
-0.0237222
-0.0241972
-0.0247149
-0.0251946
-0.0250544
-0.0257197
-0.0270307
-0.0274834
-0.0277282
-0.0278308
-0.0277751
-0.0275348
-0.027081
-0.0263831
-0.0254106
-0.0241351
-0.0225336
-0.020594
-0.0183156
-0.0157115
-0.0128175
-0.00969384
-0.00643529
-0.0220532
-0.0224838
-0.0228596
-0.0223909
-0.0212538
-0.0225477
-0.0247528
-0.0249882
-0.0250582
-0.025
-0.0248025
-0.0244459
-0.023908
-0.0231661
-0.0221995
-0.020989
-0.0195187
-0.0177798
-0.0157704
-0.0134989
-0.0109922
-0.00829623
-0.00548322
-0.0204016
-0.0207975
-0.02078
-0.0188485
-0.0189467
-0.0207478
-0.0225296
-0.0226235
-0.022545
-0.0223592
-0.0220561
-0.0216208
-0.0210348
-0.0202806
-0.0193435
-0.0182113
-0.0168734
-0.0153234
-0.0135576
-0.0115819
-0.00941562
-0.00709348
-0.00466993
-0.0187784
-0.0191459
-0.018167
-0.015927
-0.0171299
-0.0201233
-0.0204129
-0.020365
-0.020169
-0.0198827
-0.0195037
-0.0190193
-0.0184132
-0.0176706
-0.0167804
-0.0157351
-0.0145286
-0.0131561
-0.0116132
-0.00990332
-0.00803954
-0.00604794
-0.00396945
-0.0172254
-0.0175438
-0.0156969
-0.0140787
-0.0162006
-0.0184523
-0.018384
-0.0182005
-0.0179093
-0.0175465
-0.0171168
-0.0166077
-0.0160035
-0.0152906
-0.0144602
-0.0135075
-0.01243
-0.0112244
-0.00988733
-0.00841842
-0.00682636
-0.00513007
-0.00335966
-0.0156428
-0.0158687
-0.0131703
-0.0124217
-0.0160488
-0.0164595
-0.0164075
-0.0161124
-0.0157433
-0.0153286
-0.0148716
-0.0143583
-0.0137732
-0.013104
-0.012343
-0.0114866
-0.0105348
-0.00948697
-0.00834021
-0.0070917
-0.00574581
-0.0043159
-0.00282371
-0.014034
-0.0138362
-0.010767
-0.0115559
-0.0147299
-0.01459
-0.0143853
-0.0140625
-0.0136493
-0.0132107
-0.0127483
-0.0122484
-0.0116963
-0.011081
-0.0103958
-0.00963809
-0.00880884
-0.00790986
-0.0069401
-0.00589446
-0.00477357
-0.00358588
-0.00234616
-0.0122567
-0.0116227
-0.00913908
-0.0106944
-0.012806
-0.0126528
-0.0123894
-0.0120334
-0.0116145
-0.0111797
-0.0107325
-0.0102609
-0.00975216
-0.00919755
-0.00859189
-0.00793359
-0.00722391
-0.00646596
-0.0056613
-0.00480361
-0.00388991
-0.00292462
-0.00191688
-0.0104106
-0.00970146
-0.00726716
-0.00880142
-0.0108127
-0.0106693
-0.0103856
-0.0100266
-0.00963327
-0.00922819
-0.00881408
-0.00838247
-0.00792443
-0.0074344
-0.00690954
-0.00634968
-0.0057564
-0.00513269
-0.00448218
-0.00379976
-0.00307842
-0.00231881
-0.00152542
-0.00839404
-0.00791907
-0.00654328
-0.00692906
-0.00863355
-0.00858642
-0.00835153
-0.00804842
-0.00770964
-0.00735361
-0.00698568
-0.00660217
-0.00619925
-0.00577536
-0.0053306
-0.00486661
-0.00438577
-0.00389089
-0.00338514
-0.00286671
-0.00232502
-0.00175678
-0.00116314
-0.00619745
-0.00608453
-0.00451864
-0.00528402
-0.00628674
-0.00640529
-0.00631592
-0.00611362
-0.00584876
-0.0055548
-0.00524056
-0.00490961
-0.00456398
-0.00420638
-0.00384
-0.00346838
-0.00309509
-0.00272308
-0.00235471
-0.0019904
-0.00161752
-0.00122826
-0.000821613
-0.00375283
-0.00381183
-0.00215606
-0.00338932
-0.00395808
-0.00423797
-0.00430952
-0.00421895
-0.00404155
-0.00381784
-0.00356319
-0.00328888
-0.0030031
-0.0027127
-0.00242364
-0.0021413
-0.00187066
-0.00161597
-0.00137966
-0.00116231
-0.000946369
-0.000723465
-0.000490866
-0.00129455
-0.00138394
-0.000876545
-0.00112127
-0.00166122
-0.00215576
-0.00235857
-0.00237734
-0.00227994
-0.00212368
-0.00192811
-0.00171194
-0.00148861
-0.00126827
-0.00105875
-0.00086628
-0.000696283
-0.000553108
-0.000441831
-0.000362762
-0.000300974
-0.0002376
-0.000174539
1162.33
1154.88
1154.56
1225.65
1163.99
1155.9
1140.9
1130.76
1078
1057.7
1003.66
979.308
801.092
792.492
805.823
825.093
749.553
753.375
753.861
748.766
742.147
736.166
731.391
726.375
739.627
724.353
713.813
697.534
435.369
381.017
336.281
293.892
30.4224
20.5324
9.57199
5.87431
5.89636
4.12504
3.96166
2.70239
1.42397
0.506686
0.43907
0.396981
0.152304
0.201692
0.233373
0.246277
-0.012191
0.0754461
0.190481
0.215654
-0.00162237
0.102884
0.159539
0.145468
0.0570743
0.0996837
0.126731
0.149754
0.054227
0.0795801
0.149131
0.221913
-0.018087
0.0345821
0.20404
0.265868
-0.045164
-0.0272479
0.172408
0.264548
-0.0363762
-0.0282197
0.0247193
0.0776783
-0.0215761
-0.0175471
-0.0159085
-0.00915732
-0.0120191
-0.00644355
-0.00631164
-0.00456391
-0.011949
-0.00378629
-0.00293817
-5.57559e-05
-0.0135024
-0.00826217
-0.00258586
0.00148047
-0.0115686
-0.00737983
-0.00295828
0.00122849
-0.00963396
-0.00624578
-0.00273227
0.000712737
-0.00799888
-0.00508218
-0.00217713
0.000744064
-0.00666071
-0.00414731
-0.00164686
0.00087816
-0.00556718
-0.00339564
-0.00123041
0.000962523
-0.00467243
-0.00279429
-0.00091698
0.000986293
-0.00393632
-0.00231219
-0.000685223
0.000965611
-0.00332524
-0.00192184
-0.000513854
0.000914555
-0.00281139
-0.00160277
-0.000388436
0.000843626
-0.00237581
-0.00133917
-0.000296832
0.000760048
-0.00200268
-0.00112004
-0.000231532
0.000669274
-0.00167977
-0.000935175
-0.000185085
0.000574766
-0.00139572
-0.00077702
-0.000152934
0.000479598
-0.00114349
-0.000639456
-0.000130314
0.000385738
-0.000915607
-0.000517653
-0.000114651
0.000294855
-0.000705335
-0.000405756
-0.000101247
0.00020905
-0.000506802
-0.0003
-8.84461e-05
0.000129354
-0.000308289
-0.000187927
-6.35938e-05
6.54778e-05
-0.000123761
-8.76246e-05
-4.707e-05
-1.75184e-06
1251.07
1196.18
1132.65
1123.3
1108.18
1102.45
1102.1
1106.1
1108.83
1131.42
1140.73
1068.86
1074.45
1008.99
984.625
1079.25
1104.48
1107.46
1113.99
1134.23
1133.05
1122.13
1093.18
1095.07
1086.97
1096.17
1096.12
1178.57
1125.67
1077.61
1102.88
1093.62
1112.1
1093.53
1121.26
1119.2
1107.83
1116.21
980.47
988.776
939.915
972.658
945.13
961.296
972.306
994.572
990.738
949.089
936.86
950.237
959.565
1072.56
1099.52
1065.46
1080.53
1074.66
1087.33
836.107
792.666
792.263
753.06
726.461
727.763
734.858
749.47
805.286
934.441
929.635
806.069
736.517
723.074
733.801
769.638
799.157
787.179
784.09
763.452
780.701
775.289
707.682
707.241
714.021
711.555
703.683
700.807
716.656
712.148
676.178
696.379
697.049
710.667
708.386
705.334
726.061
762.924
717.175
714.047
713.012
730.481
696.962
692.605
693.861
697.015
697.339
694.456
691.547
691.381
690.429
688.584
687.145
688.553
687.38
692.556
758.472
664.304
621.368
622.996
631.4
625.119
631.851
648.82
666.799
689.339
697.726
681.76
683.352
675.946
665.378
650.073
632.122
597.617
534.16
421.826
246.93
210.234
183.07
176.151
179.225
175.656
162.221
181.121
185.254
208.603
237.312
251.919
237.518
223.716
196.645
172.744
160.376
142.609
150.53
5.03152
3.90055
3.31989
2.00941
3.92947
6.05852
5.72686
3.36498
2.66899
2.73869
0.268748
2.81332
6.71883
16.4033
25.8651
29.9946
24.1925
21.1034
19.4383
1.48432
0.639881
0.293856
0.223191
0.205078
0.166759
0.269086
0.365319
0.319555
0.195287
0.178201
0.142016
0.139678
0.137874
0.183384
0.170419
0.182754
0.188344
0.213403
0.340072
0.346274
0.2611
0.204451
0.172261
0.27198
0.529253
0.540077
0.498554
0.225306
0.154637
0.137661
0.145408
0.208615
0.235388
0.238685
0.195907
0.210288
0.260741
0.246859
0.233963
0.213649
0.187308
0.17119
0.484973
0.58184
0.573338
0.454148
0.156659
0.139171
0.130529
0.132551
0.223579
0.244217
0.246831
0.26729
0.243043
0.262962
0.177971
0.188516
0.181514
0.168913
0.156865
0.372889
0.602782
0.552914
0.275198
0.125745
0.130673
0.159835
0.139536
0.156375
0.244743
0.241856
0.251201
0.202176
0.172935
0.130426
0.151271
0.154374
0.152345
0.150129
0.240475
0.302987
0.319091
0.215517
0.120293
0.270837
0.328446
0.324347
0.151341
0.144754
0.228545
0.301906
0.225194
0.134943
0.249547
0.298893
0.134653
0.136687
0.276839
0.233256
0.191045
0.188472
0.288455
0.258815
0.298297
0.254901
0.235239
0.133455
0.156258
0.272039
0.303131
0.249437
0.124058
0.337322
0.366398
0.285949
0.141676
0.368502
0.217594
0.182281
0.148422
0.148508
0.170513
0.147696
0.143432
0.135069
0.145436
0.215091
0.273531
0.175626
0.210333
0.110724
0.273184
0.3215
0.364789
0.345493
0.368236
0.177807
0.209954
0.209877
0.179843
0.201667
0.243356
0.243559
0.217603
0.218127
0.225858
0.186379
0.117292
0.12118
0.108486
0.0452903
0.062623
0.233593
0.314025
0.289381
0.132977
0.168109
0.195104
0.197374
0.198068
0.211465
0.207591
0.220687
0.176977
0.151796
0.0935677
0.112368
0.099009
0.127317
0.0062837
0.0291812
0.0936841
0.24783
0.156221
0.128866
0.10908
0.112545
0.105375
0.0995782
0.0932417
0.117779
0.126301
0.129798
0.111114
0.0853467
0.108111
0.112163
0.152362
0.00413967
0.0238498
0.0421713
0.0568407
0.0496385
0.101932
0.112599
0.104947
0.102438
0.0981124
0.0817683
0.0682727
0.0846941
0.118737
0.122133
0.11153
0.0870709
0.105894
0.12006
0.0049846
0.019592
0.0327522
0.0355678
0.0418717
0.0565118
0.0740097
0.0791423
0.0728043
0.0595087
0.0550671
0.0572554
0.0622934
0.0685338
0.112739
0.103484
0.0751331
0.0925327
0.0791786
0.00661195
0.0156447
0.0240785
0.0314907
0.0372832
0.0412125
0.0439926
0.0464561
0.0482939
0.0501368
0.0521067
0.054033
0.0560441
0.0582127
0.0605999
0.0632637
0.0685524
0.073182
0.0741765
0.00707321
0.0145948
0.0222135
0.0290026
0.0343693
0.03841
0.0414022
0.0437092
0.0456473
0.0474132
0.0491193
0.0508129
0.052606
0.0545367
0.0565889
0.059466
0.0629511
0.0688237
0.0689541
0.00641104
0.0136856
0.0206164
0.0266828
0.0316818
0.0356111
0.0386018
0.0409055
0.0427735
0.0444008
0.0459075
0.0474072
0.0490181
0.050844
0.0528767
0.0555888
0.0596838
0.0645722
0.0642977
0.0058006
0.0125946
0.0188087
0.0242656
0.0288612
0.0325748
0.0354906
0.0377738
0.0396066
0.0411459
0.0425283
0.0438823
0.0452971
0.0468813
0.0487522
0.0508325
0.0544865
0.0583156
0.0571682
0.00544871
0.0114357
0.0169291
0.0218433
0.0260426
0.0295137
0.0323109
0.034542
0.0363343
0.0378109
0.0390812
0.04026
0.041469
0.0428049
0.0444555
0.0464001
0.0486838
0.05082
0.0508699
0.00503379
0.010307
0.0151612
0.0195493
0.0233722
0.0265893
0.0292329
0.031375
0.0331079
0.0345294
0.0357191
0.0367889
0.0378577
0.0390436
0.0404675
0.0423865
0.0437821
0.0457056
0.0462682
0.0045886
0.00923752
0.0135385
0.0174401
0.0208946
0.0238524
0.0263206
0.0283473
0.0300007
0.0313566
0.032485
0.0334829
0.0344618
0.0355622
0.0368299
0.0385237
0.0396575
0.0412476
0.0419187
0.004142
0.00823234
0.0120478
0.0155189
0.0186142
0.0213108
0.023592
0.0254857
0.0270411
0.0283153
0.0293986
0.0303411
0.031253
0.0323467
0.0334957
0.0348943
0.0364504
0.037975
0.0379859
0.00370758
0.00729707
0.0106696
0.0137603
0.0165287
0.0189629
0.0210518
0.0227968
0.024248
0.0254583
0.0264887
0.0273938
0.0282322
0.0293579
0.0304291
0.0316266
0.0360104
0.0363547
0.0343785
0.00329185
0.00643161
0.00940014
0.01214
0.0146135
0.0168016
0.018702
0.0202831
0.0216422
0.0227878
0.0237717
0.0246547
0.025417
0.026507
0.027621
0.0308526
0.0331431
0.032569
0.0310195
0.00289712
0.00563153
0.008232
0.0106484
0.0128463
0.0148032
0.0165081
0.0179685
0.0192265
0.020308
0.0212724
0.0221046
0.0228949
0.0239035
0.0252166
0.0290813
0.0301008
0.0289351
0.0277881
0.00252504
0.00489246
0.00715657
0.00927439
0.0112136
0.012954
0.0144865
0.0158224
0.0169895
0.0180276
0.0190257
0.0199249
0.0206125
0.0215179
0.0226603
0.0254087
0.0269791
0.0252524
0.0248802
0.00217538
0.00420981
0.00616575
0.00800685
0.00970747
0.0112442
0.0126147
0.0138268
0.014905
0.0159062
0.0169661
0.01848
0.0190524
0.019416
0.0202678
0.0209678
0.0216961
0.0222202
0.0244703
0.00184764
0.00357834
0.00525054
0.00683284
0.00830951
0.009656
0.0108687
0.0119542
0.0129336
0.0138543
0.0148523
0.0164914
0.025892
0.0285795
0.0189891
0.0191927
0.0190478
0.0196743
0.0277153
0.00154058
0.00299282
0.00440383
0.00575039
0.00700969
0.00817093
0.00922691
0.0101812
0.0110494
0.011877
0.0128034
0.0141756
0.0246967
0.0307446
0.0268448
0.0199912
0.0171857
0.0170968
0.0272938
0.00125327
0.00244804
0.00361497
0.00473464
0.00579017
0.00677082
0.00767009
0.00848914
0.00923686
0.00993952
0.0106569
0.0115687
0.0145772
0.0278003
0.0321632
0.0247067
0.0216571
0.0142103
0.029333
0.00098422
0.0019389
0.00287573
0.00377921
0.00463695
0.00543939
0.0061812
0.00686275
0.0074846
0.00805764
0.00861512
0.00922124
0.0100882
0.0154247
0.0291731
0.0325791
0.0205441
0.0170442
0.0255986
0.000732893
0.00146137
0.00217905
0.0028724
0.00353646
0.00416058
0.0047419
0.00528662
0.00578117
0.00622975
0.00664435
0.00705217
0.00749319
0.00797536
0.0166603
0.0285065
0.0318594
0.0193293
0.0242001
0.000498229
0.00101181
0.001518
0.00200107
0.00247636
0.00291948
0.0033305
0.00374722
0.00411565
0.00444341
0.00474143
0.00502555
0.0053229
0.00568177
0.00638527
0.0148793
0.0239943
0.0225658
0.0171814
0.000285295
0.000591138
0.000895171
0.00118352
0.00146338
0.00171653
0.00191818
0.0022423
0.0024777
0.00267473
0.00285042
0.00301426
0.00319128
0.00340467
0.00374678
0.00416202
0.00610971
0.00935509
0.0047031
7.76908e-05
0.000187069
0.000299364
0.000420759
0.000519164
0.000624755
0.000767061
0.000816307
0.000864974
0.000921783
0.000970717
0.00100666
0.00102718
0.00105799
0.00114656
0.0011693
0.00112327
0.0010636
0.000972426
)
;

boundaryField
{
    leftWall
    {
        type            fixedFluxPressure;
        gradient        uniform 0;
        value           nonuniform List<scalar> 
50
(
5432.59
5429.61
5423.25
5413.04
5395.71
4093.23
1330.44
1185.06
1180.39
1158.46
907.635
794.654
800.302
797.939
796.573
800.151
681.324
101.349
0.504664
-0.0524727
-0.0486091
-0.0462752
-0.04531
-0.0446547
-0.0440068
-0.0429879
-0.0418265
-0.040541
-0.0391503
-0.0376481
-0.0360465
-0.0343606
-0.0326145
-0.0308285
-0.029024
-0.0272223
-0.0254456
-0.0237222
-0.0220532
-0.0204016
-0.0187784
-0.0172254
-0.0156428
-0.014034
-0.0122567
-0.0104106
-0.00839404
-0.00619745
-0.00375283
-0.00129455
)
;
    }
    rightWall
    {
        type            fixedFluxPressure;
        gradient        uniform 0;
        value           nonuniform List<scalar> 
50
(
3077.05
3060.89
2491.52
1426.88
1056.45
1087.07
1093.53
1094.27
1113.99
1116.21
1087.33
784.09
762.924
758.472
421.826
150.53
19.4383
0.213403
0.260741
0.262962
0.172935
0.134943
0.124058
0.110724
0.108486
0.127317
0.152362
0.12006
0.0791786
0.0741765
0.0689541
0.0642977
0.0571682
0.0508699
0.0462682
0.0419187
0.0379859
0.0343785
0.0310195
0.0277881
0.0248802
0.0244703
0.0277153
0.0272938
0.029333
0.0255986
0.0242001
0.0171814
0.0047031
0.000972426
)
;
    }
    lowerWall
    {
        type            fixedFluxPressure;
        gradient        uniform 0;
        value           nonuniform List<scalar> 
62
(
5432.59
5442.83
5463.78
5495.15
5536.26
5585.78
5641.15
5698.48
5752.92
5799.62
5834.76
5856.39
5862.75
5854.55
5834.45
5805.69
5770.92
5732.79
5694.09
5658.29
5628.88
5608.71
5598.58
5598.58
5595.06
5588.84
5579.82
5566.24
4835.75
1680.61
1181.3
1162.33
1154.88
1154.56
1225.65
2936.5
2917.4
2331.99
1116.22
1117.53
1133.9
1146.19
1199.39
2936.5
2943.7
2969
2994.7
3019.36
3043.31
3062.58
3072.71
3073.77
3070.72
3069.35
3071.47
3079.22
3084.43
3078.38
3080.29
3087.3
3077.65
3077.05
)
;
    }
    atmosphere
    {
        type            totalPressure;
        rho             rho;
        psi             none;
        gamma           1;
        p0              uniform 0;
        value           nonuniform List<scalar> 
46
(
0
0
0
-5.74796e-06
-0.000655275
-0.00127356
-0.00152465
-0.00154622
-0.00145719
-0.00131127
-0.00113334
-0.000940384
-0.000745992
-0.000560774
-0.000392601
-0.000247723
-0.000131198
-4.84669e-05
-4.7938e-06
0
0
0
0
0
0
0
0
0
0
-7.05357e-09
-2.04537e-07
-2.60905e-07
-9.30407e-08
0
0
0
0
0
0
0
0
0
0
0
0
0
)
;
    }
    defaultFaces
    {
        type            empty;
    }
}


// ************************************************************************* //
