/*--------------------------------*- C++ -*----------------------------------*\
| =========                 |                                                 |
| \\      /  F ield         | OpenFOAM: The Open Source CFD Toolbox           |
|  \\    /   O peration     | Version:  2312                                  |
|   \\  /    A nd           | Website:  www.openfoam.com                      |
|    \\/     M anipulation  |                                                 |
\*---------------------------------------------------------------------------*/
FoamFile
{
    version     2.0;
    format      ascii;
    arch        "LSB;label=32;scalar=64";
    class       surfaceScalarField;
    location    "5";
    object      phi;
}
// * * * * * * * * * * * * * * * * * * * * * * * * * * * * * * * * * * * * * //

dimensions      [0 3 -1 0 0 0 0];

oriented        oriented;

internalField   nonuniform List<scalar> 
4432
(
-8.0728e-07
8.0731e-07
-2.028e-06
1.22075e-06
-3.26197e-06
1.23399e-06
-4.45271e-06
1.19076e-06
-5.5696e-06
1.11691e-06
-6.59041e-06
1.02082e-06
-7.48182e-06
8.91421e-07
-8.19718e-06
7.15366e-07
-8.68861e-06
4.91439e-07
-8.92474e-06
2.36129e-07
-8.90232e-06
-2.24215e-08
-8.64687e-06
-2.55448e-07
-8.19679e-06
-4.50077e-07
-7.60178e-06
-5.95014e-07
-6.90194e-06
-6.99838e-07
-6.11232e-06
-7.89617e-07
-5.25598e-06
-8.56347e-07
-4.38043e-06
-8.75557e-07
-3.55714e-06
-8.2329e-07
-2.811e-06
-7.46148e-07
-2.07723e-06
-7.33778e-07
-1.27089e-06
-8.06341e-07
-1.27089e-06
-1.33274e-06
2.1401e-06
-2.57266e-06
2.46071e-06
-3.79709e-06
2.45846e-06
-4.97e-06
2.36369e-06
-6.06602e-06
2.21293e-06
-7.06734e-06
2.02214e-06
-7.94012e-06
1.76418e-06
-8.63328e-06
1.4085e-06
-9.09867e-06
9.56806e-07
-9.30391e-06
4.41358e-07
-9.25362e-06
-7.27206e-08
-8.9622e-06
-5.46862e-07
-8.47854e-06
-9.33729e-07
-7.85312e-06
-1.22041e-06
-7.12476e-06
-1.42817e-06
-6.2992e-06
-1.61515e-06
-5.40056e-06
-1.75495e-06
-4.47785e-06
-1.79824e-06
-3.6123e-06
-1.68881e-06
-2.81802e-06
-1.54042e-06
-2.02373e-06
-1.52806e-06
-1.12867e-06
-1.70139e-06
-2.39956e-06
-1.4775e-06
3.61761e-06
-2.7705e-06
3.7537e-06
-4.03213e-06
3.72009e-06
-5.24187e-06
3.57342e-06
-6.37242e-06
3.34345e-06
-7.40158e-06
3.05129e-06
-8.30041e-06
2.66299e-06
-9.01172e-06
2.1198e-06
-9.48492e-06
1.43e-06
-9.69166e-06
6.48101e-07
-9.62241e-06
-1.41968e-07
-9.30337e-06
-8.6589e-07
-8.78587e-06
-1.45121e-06
-8.12737e-06
-1.87889e-06
-7.36874e-06
-2.18678e-06
-6.5027e-06
-2.48115e-06
-5.54726e-06
-2.71036e-06
-4.5496e-06
-2.79587e-06
-3.61729e-06
-2.6211e-06
-2.77168e-06
-2.386e-06
-1.93092e-06
-2.3688e-06
-9.94093e-07
-2.6382e-06
-3.39364e-06
-1.42872e-06
5.04632e-06
-2.74143e-06
5.06641e-06
-4.02899e-06
5.00764e-06
-5.28668e-06
4.8311e-06
-6.46959e-06
4.52635e-06
-7.54746e-06
4.12914e-06
-8.50088e-06
3.61638e-06
-9.26944e-06
2.88835e-06
-9.79475e-06
1.9553e-06
-1.00302e-05
8.83585e-07
-9.98606e-06
-1.86141e-07
-9.65877e-06
-1.19318e-06
-9.11698e-06
-1.99299e-06
-8.42921e-06
-2.56665e-06
-7.64857e-06
-2.96741e-06
-6.73528e-06
-3.39444e-06
-5.7052e-06
-3.74042e-06
-4.6031e-06
-3.89796e-06
-3.5785e-06
-3.6457e-06
-2.64642e-06
-3.31806e-06
-1.74807e-06
-3.26715e-06
-8.28011e-07
-3.55825e-06
-4.22165e-06
-1.19065e-06
6.23696e-06
-2.39622e-06
6.27198e-06
-3.60924e-06
6.22066e-06
-4.85846e-06
6.08032e-06
-6.11915e-06
5.78704e-06
-7.32776e-06
5.33777e-06
-8.41424e-06
4.70287e-06
-9.30947e-06
3.78359e-06
-9.95039e-06
2.59624e-06
-1.02642e-05
1.19741e-06
-1.02574e-05
-1.92952e-07
-9.90025e-06
-1.5503e-06
-9.33387e-06
-2.55936e-06
-8.64646e-06
-3.25406e-06
-7.89601e-06
-3.71786e-06
-6.95361e-06
-4.33684e-06
-5.85025e-06
-4.84378e-06
-4.60884e-06
-5.13937e-06
-3.44375e-06
-4.81079e-06
-2.32172e-06
-4.44009e-06
-1.29802e-06
-4.29084e-06
-4.73697e-07
-4.38257e-06
-4.69534e-06
-1.2146e-06
7.45145e-06
-2.36754e-06
7.42484e-06
-3.47778e-06
7.33084e-06
-4.53097e-06
7.13346e-06
-5.54464e-06
6.80068e-06
-6.50742e-06
6.30053e-06
-7.3737e-06
5.56914e-06
-8.11475e-06
4.52463e-06
-8.6751e-06
3.15659e-06
-8.9531e-06
1.47541e-06
-8.97678e-06
-1.69279e-07
-8.79837e-06
-1.72873e-06
-8.55043e-06
-2.80731e-06
-8.18701e-06
-3.61749e-06
-7.65351e-06
-4.25138e-06
-6.75003e-06
-5.24032e-06
-5.71787e-06
-5.87594e-06
-4.38657e-06
-6.47068e-06
-2.96345e-06
-6.23391e-06
-1.60458e-06
-5.79895e-06
-3.91226e-07
-5.50419e-06
2.24711e-07
-4.99851e-06
-4.47063e-06
-7.35399e-07
8.18663e-06
-1.09369e-06
7.78288e-06
-1.62452e-06
7.86145e-06
-2.37254e-06
7.8813e-06
-3.28287e-06
7.71085e-06
-4.4421e-06
7.45962e-06
-5.68878e-06
6.8157e-06
-6.70411e-06
5.53987e-06
-7.39518e-06
3.84756e-06
-7.91157e-06
1.99174e-06
-8.27676e-06
1.95852e-07
-8.43736e-06
-1.56818e-06
-8.10817e-06
-3.13652e-06
-7.23114e-06
-4.49452e-06
-6.09278e-06
-5.38972e-06
-4.93156e-06
-6.40149e-06
-3.92701e-06
-6.88044e-06
-2.70155e-06
-7.69607e-06
-1.07203e-06
-7.86334e-06
6.28983e-07
-7.49988e-06
1.93696e-06
-6.8121e-06
2.02987e-06
-5.09136e-06
-2.4407e-06
-1.61852e-07
8.34824e-06
4.92364e-07
7.12846e-06
1.11297e-06
7.24066e-06
1.72358e-06
7.27053e-06
2.51258e-06
6.9217e-06
3.26944e-06
6.70263e-06
4.04555e-06
6.03947e-06
4.68398e-06
4.90134e-06
5.28213e-06
3.24934e-06
5.94953e-06
1.32427e-06
6.80254e-06
-6.57198e-07
7.88141e-06
-2.64704e-06
9.44747e-06
-4.70257e-06
1.11017e-05
-6.14866e-06
1.20219e-05
-6.30994e-06
1.12372e-05
-5.61671e-06
1.02349e-05
-5.87804e-06
1.03357e-05
-7.79673e-06
1.09955e-05
-8.52299e-06
1.14515e-05
-7.95581e-06
1.05621e-05
-5.92262e-06
7.44107e-06
-1.97026e-06
5.00041e-06
-1.37703e-06
1.37703e-06
-1.38181e-06
4.77589e-09
-9.45888e-07
-4.35924e-07
-1.85466e-07
-7.60425e-07
7.68187e-07
-9.53655e-07
1.90836e-06
-1.14018e-06
3.01354e-06
-1.10518e-06
4.03235e-06
-1.01881e-06
4.95524e-06
-9.22894e-07
5.72431e-06
-7.69075e-07
6.35896e-06
-6.34646e-07
6.82163e-06
-4.62681e-07
7.38202e-06
-5.60385e-07
7.78709e-06
-4.0507e-07
7.70446e-06
8.26273e-08
7.87884e-06
-1.74382e-07
7.16113e-06
7.17708e-07
4.52494e-06
2.63619e-06
4.52494e-06
1.57249e-07
1.21978e-06
-2.07314e-07
3.69337e-07
-3.69055e-07
-2.74183e-07
8.07656e-08
-1.21025e-06
9.89891e-07
-1.86278e-06
2.17076e-06
-2.32105e-06
3.3965e-06
-2.33092e-06
4.45806e-06
-2.08037e-06
5.42291e-06
-1.88775e-06
6.24906e-06
-1.59523e-06
6.82551e-06
-1.2111e-06
6.92797e-06
-5.65142e-07
7.03135e-06
-6.63765e-07
7.1305e-06
-5.04216e-07
7.23327e-06
-2.01435e-08
7.60435e-06
-5.45457e-07
6.69838e-06
1.62367e-06
3.85575e-06
5.47882e-06
8.38071e-06
5.43842e-07
6.75926e-07
3.04723e-07
6.08454e-07
1.56848e-08
1.48529e-08
-2.11384e-07
-9.83179e-07
-8.24629e-08
-1.99171e-06
4.82721e-07
-2.88623e-06
1.58654e-06
-3.43474e-06
2.94738e-06
-3.44122e-06
4.31843e-06
-3.2588e-06
5.78598e-06
-3.06279e-06
7.30849e-06
-2.73362e-06
8.05213e-06
-1.30879e-06
8.13144e-06
-7.43083e-07
8.46228e-06
-8.35059e-07
9.49705e-06
-1.05492e-06
1.00711e-05
-1.11948e-06
8.00483e-06
3.68991e-06
4.48787e-06
8.99578e-06
1.28686e-05
-3.05574e-06
3.73159e-06
-1.74949e-06
-6.97831e-07
-1.21496e-06
-5.19693e-07
-2.57907e-06
3.80922e-07
-3.49174e-06
-1.07904e-06
-3.54305e-06
-2.83493e-06
-2.9111e-06
-4.06668e-06
-1.95142e-06
-4.40089e-06
-9.00985e-07
-4.30922e-06
2.29472e-06
-6.25849e-06
6.67753e-06
-7.11643e-06
1.00955e-05
-4.72672e-06
1.15268e-05
-2.17443e-06
1.22636e-05
-1.57176e-06
1.19052e-05
-6.96566e-07
1.00412e-05
7.44575e-07
6.75871e-06
6.97238e-06
5.50325e-06
1.02512e-05
1.83719e-05
-1.14242e-06
4.87403e-06
5.97786e-07
-2.43803e-06
1.34655e-06
-1.26845e-06
1.94965e-06
-2.22172e-07
7.98405e-07
7.22012e-08
-3.90989e-06
1.87337e-06
-9.75367e-06
1.77709e-06
-1.1044e-05
-3.11056e-06
-9.53101e-06
-5.82225e-06
-2.78312e-06
-1.30064e-05
5.34812e-06
-1.52477e-05
1.25305e-05
-1.19092e-05
1.44162e-05
-4.06016e-06
8.42668e-06
4.41779e-06
-4.59222e-06
1.23223e-05
-1.07374e-05
6.8897e-06
-6.09538e-06
2.3304e-06
2.18537e-06
1.97049e-06
2.05572e-05
1.43886e-06
3.43511e-06
3.24844e-06
-4.24764e-06
4.23309e-06
-2.25313e-06
5.02308e-06
-1.01217e-06
4.10127e-06
9.93995e-07
1.82415e-06
4.15048e-06
-3.95819e-06
7.55943e-06
-7.49198e-06
4.23236e-07
-7.14151e-06
-6.17271e-06
-3.35982e-06
-1.67881e-05
4.96507e-07
-1.9104e-05
5.67046e-06
-1.70831e-05
7.13339e-06
-5.52306e-06
2.68797e-07
1.12824e-05
-9.55321e-06
2.21443e-05
-1.24754e-05
9.81193e-06
-7.46195e-06
-2.68303e-06
-2.68962e-07
-5.22248e-06
2.02882e-05
5.67555e-06
-2.24049e-06
7.28237e-06
-5.85449e-06
7.83518e-06
-2.80596e-06
7.61555e-06
-7.92556e-07
5.69759e-06
2.91194e-06
3.99811e-06
5.84996e-06
1.97476e-06
9.58279e-06
-1.62131e-06
4.01931e-06
-3.15953e-06
-4.63446e-06
-3.00475e-06
-1.69428e-05
-3.30484e-06
-1.88039e-05
-2.18857e-06
-1.81994e-05
-3.29757e-07
-7.38185e-06
-4.73793e-06
1.56906e-05
-1.05144e-05
2.79208e-05
-9.2399e-06
8.5375e-06
-4.17559e-06
-7.74733e-06
-1.37156e-06
-8.0265e-06
1.89167e-05
1.1752e-05
-1.39925e-05
1.10507e-05
-5.1532e-06
9.9386e-06
-1.69388e-06
8.98045e-06
1.65584e-07
7.14362e-06
4.74877e-06
5.42244e-06
7.57114e-06
4.63688e-06
1.03683e-05
2.89475e-06
5.76144e-06
1.63561e-06
-3.37532e-06
-2.56044e-06
-1.27468e-05
-6.62624e-06
-1.47381e-05
-8.36859e-06
-1.6457e-05
-7.87545e-06
-7.87499e-06
-7.6459e-06
1.5461e-05
-9.96409e-06
3.0239e-05
-5.37017e-06
3.94358e-06
-1.49315e-06
-1.16243e-05
-1.95154e-06
-7.56812e-06
1.69652e-05
-3.00485e-07
8.6486e-06
2.60385e-07
6.56746e-06
1.38792e-06
6.11302e-06
3.17975e-06
5.47861e-06
5.77688e-06
4.32449e-06
8.44667e-06
4.03276e-06
1.16699e-05
2.81614e-06
1.47783e-05
1.79297e-06
1.79826e-05
4.49626e-08
2.15675e-05
-2.26065e-06
2.51749e-05
-4.26458e-06
2.86819e-05
-6.15406e-06
3.21244e-05
-8.14506e-06
3.56785e-05
-9.70272e-06
3.94222e-05
-1.00536e-05
4.25974e-05
-8.79185e-06
4.42829e-05
-7.56355e-06
4.43112e-05
-7.82488e-06
4.37273e-05
-7.93912e-06
4.1914e-05
-6.14241e-06
3.88528e-05
-2.8614e-06
3.54968e-05
1.38585e-06
5.91061e-06
3.45867e-05
1.27971e-06
7.36877e-06
1.38135e-06
6.46573e-06
2.09871e-06
5.3956e-06
3.712e-06
3.86527e-06
4.72761e-06
3.30884e-06
5.2822e-06
3.47817e-06
7.61347e-06
4.8486e-07
1.08265e-05
-1.42003e-06
1.39691e-05
-3.09768e-06
1.77422e-05
-6.03372e-06
2.18601e-05
-8.38248e-06
2.60425e-05
-1.03365e-05
3.01029e-05
-1.22054e-05
3.37381e-05
-1.33379e-05
3.72594e-05
-1.35749e-05
4.1137e-05
-1.26694e-05
4.42395e-05
-1.0666e-05
4.63369e-05
-9.92227e-06
4.6943e-05
-8.5452e-06
4.59185e-05
-5.11782e-06
4.37539e-05
-6.96804e-07
4.07355e-05
4.40438e-06
8.71315e-06
3.7933e-05
4.90045e-06
2.46826e-06
1.04287e-05
9.37425e-07
1.43865e-05
1.43775e-06
1.77505e-05
5.01282e-07
1.99082e-05
1.15111e-06
1.98946e-05
3.49181e-06
1.87851e-05
1.59439e-06
1.8956e-05
-1.59085e-06
1.99067e-05
-4.04836e-06
2.0751e-05
-6.87797e-06
2.20039e-05
-9.63535e-06
2.46065e-05
-1.29389e-05
2.75674e-05
-1.51663e-05
3.01246e-05
-1.58951e-05
3.28175e-05
-1.62677e-05
3.60342e-05
-1.5886e-05
3.91501e-05
-1.37818e-05
4.07561e-05
-1.15282e-05
4.02192e-05
-8.00821e-06
3.80912e-05
-2.98981e-06
3.37195e-05
3.67501e-06
2.7628e-05
1.0496e-05
1.57169e-05
2.06244e-05
6.70331e-06
-4.23518e-06
1.50749e-05
-7.43425e-06
2.09956e-05
-4.48294e-06
2.60391e-05
-4.54219e-06
3.22211e-05
-5.03081e-06
3.66462e-05
-9.33245e-07
3.74947e-05
7.46028e-07
3.71982e-05
-1.29423e-06
3.75476e-05
-4.39764e-06
3.68731e-05
-6.20327e-06
3.51836e-05
-7.94576e-06
3.38285e-05
-1.15837e-05
3.30842e-05
-1.44219e-05
3.26944e-05
-1.55052e-05
3.2397e-05
-1.59702e-05
3.26892e-05
-1.61781e-05
3.44461e-05
-1.55387e-05
3.70958e-05
-1.41778e-05
3.81524e-05
-9.06466e-06
3.51388e-05
2.38998e-08
2.7232e-05
1.15818e-05
1.7309e-05
2.04191e-05
2.46226e-05
8.40341e-06
4.8438e-06
-9.079e-06
9.09595e-06
-1.16864e-05
1.25877e-05
-7.97472e-06
1.48264e-05
-6.78077e-06
1.83212e-05
-8.52557e-06
2.27444e-05
-5.35633e-06
2.7593e-05
-4.10239e-06
3.27091e-05
-6.41011e-06
3.76332e-05
-9.3215e-06
4.21648e-05
-1.07347e-05
4.57508e-05
-1.15316e-05
4.71694e-05
-1.30021e-05
4.72703e-05
-1.45225e-05
4.68355e-05
-1.50702e-05
4.50077e-05
-1.41423e-05
4.12359e-05
-1.24062e-05
3.59331e-05
-1.02359e-05
3.05294e-05
-8.77389e-06
2.63899e-05
-4.92515e-06
2.28085e-05
3.60522e-06
1.71878e-05
1.72025e-05
1.05149e-05
2.7092e-05
3.05822e-05
4.55529e-06
2.5817e-06
-1.16607e-05
3.51617e-06
-1.26209e-05
5.76352e-06
-1.0222e-05
8.31945e-06
-9.33662e-06
1.1041e-05
-1.1247e-05
1.61029e-05
-1.04181e-05
2.19942e-05
-9.99353e-06
2.76228e-05
-1.20385e-05
3.22711e-05
-1.39696e-05
3.6724e-05
-1.51874e-05
4.1091e-05
-1.58984e-05
4.47069e-05
-1.66179e-05
4.73022e-05
-1.71177e-05
4.89389e-05
-1.67069e-05
4.97693e-05
-1.49727e-05
4.94241e-05
-1.2061e-05
4.72196e-05
-8.03142e-06
4.08503e-05
-2.40467e-06
3.15645e-05
4.36063e-06
2.25175e-05
1.26523e-05
1.40685e-05
2.56514e-05
6.33159e-06
3.48288e-05
3.74582e-05
-5.44411e-07
1.60555e-06
-1.32663e-05
2.40765e-06
-1.34229e-05
4.50893e-06
-1.23233e-05
7.7519e-06
-1.25796e-05
1.07775e-05
-1.42725e-05
1.54944e-05
-1.5135e-05
2.12506e-05
-1.57498e-05
2.63709e-05
-1.71588e-05
3.10844e-05
-1.86831e-05
3.56636e-05
-1.97667e-05
4.02182e-05
-2.04531e-05
4.44334e-05
-2.08333e-05
4.81527e-05
-2.08371e-05
5.12901e-05
-1.98444e-05
5.36247e-05
-1.73074e-05
5.49276e-05
-1.33641e-05
5.46995e-05
-7.80346e-06
5.16392e-05
6.55659e-07
4.35406e-05
1.24595e-05
3.01025e-05
2.60905e-05
1.6611e-05
3.91432e-05
5.98774e-06
4.54522e-05
4.71145e-05
-3.66851e-06
1.52772e-06
-1.4794e-05
3.04275e-06
-1.4938e-05
5.69707e-06
-1.49776e-05
9.14433e-06
-1.60268e-05
1.28395e-05
-1.79677e-05
1.73809e-05
-1.96765e-05
2.25658e-05
-2.09346e-05
2.78268e-05
-2.24198e-05
3.30524e-05
-2.39088e-05
3.83871e-05
-2.51014e-05
4.37475e-05
-2.58136e-05
4.88542e-05
-2.594e-05
5.36481e-05
-2.56309e-05
5.83201e-05
-2.45164e-05
6.26645e-05
-2.16518e-05
6.65173e-05
-1.7217e-05
6.92072e-05
-1.04933e-05
6.96621e-05
2.00923e-07
6.46083e-05
1.75134e-05
5.04861e-05
4.02133e-05
3.33868e-05
5.62429e-05
1.91323e-05
5.97069e-05
6.18343e-05
4.41301e-06
1.68875e-06
-1.64826e-05
3.83489e-06
-1.70841e-05
7.2426e-06
-1.83853e-05
1.12489e-05
-2.00331e-05
1.5249e-05
-2.19677e-05
1.96205e-05
-2.40479e-05
2.46871e-05
-2.60012e-05
3.02962e-05
-2.80287e-05
3.63502e-05
-2.99626e-05
4.29185e-05
-3.16694e-05
4.99239e-05
-3.28186e-05
5.6805e-05
-3.28206e-05
6.36281e-05
-3.24534e-05
7.09196e-05
-3.18071e-05
7.86478e-05
-2.93793e-05
8.64191e-05
-2.49875e-05
9.24174e-05
-1.64912e-05
9.48456e-05
-2.22713e-06
9.06173e-05
2.17423e-05
7.86209e-05
5.22086e-05
7.16202e-05
6.32426e-05
6.90904e-05
6.22371e-05
7.93219e-05
5.1603e-05
2.93866e-06
-1.94217e-05
6.09264e-06
-2.0238e-05
1.03857e-05
-2.2678e-05
1.48818e-05
-2.45288e-05
1.87524e-05
-2.58376e-05
2.27441e-05
-2.80387e-05
2.79467e-05
-3.12027e-05
3.35572e-05
-3.36378e-05
4.01636e-05
-3.65672e-05
4.80198e-05
-3.9524e-05
5.74866e-05
-4.22838e-05
6.68411e-05
-4.21738e-05
7.51479e-05
-4.07585e-05
8.28358e-05
-3.94932e-05
9.27791e-05
-3.93189e-05
0.000102336
-3.45417e-05
0.000106359
-2.05123e-05
0.000102733
1.40158e-06
0.000102624
2.18503e-05
0.000107246
4.75851e-05
0.000111077
5.94117e-05
0.000112282
6.10328e-05
8.6765e-05
0.000104835
7.13076e-06
-2.65531e-05
1.05986e-05
-2.37067e-05
1.27959e-05
-2.48762e-05
1.91682e-05
-3.09021e-05
2.47961e-05
-3.14666e-05
3.14438e-05
-3.46875e-05
3.93806e-05
-3.91408e-05
4.83756e-05
-4.26341e-05
5.73515e-05
-4.55447e-05
6.52268e-05
-4.74012e-05
7.24673e-05
-4.95263e-05
8.19423e-05
-5.16513e-05
9.03181e-05
-4.91377e-05
9.62704e-05
-4.54491e-05
9.85915e-05
-4.16435e-05
9.89812e-05
-3.49343e-05
9.84479e-05
-1.99797e-05
9.73404e-05
2.5074e-06
0.000106167
1.3023e-05
0.000119006
3.47479e-05
0.000128783
4.96362e-05
0.00011984
6.99758e-05
0.000114145
9.24556e-05
5.21496e-06
-3.17688e-05
1.12494e-05
-2.97421e-05
1.66774e-05
-3.03053e-05
1.94547e-05
-3.36802e-05
2.42032e-05
-3.62162e-05
2.85794e-05
-3.90649e-05
3.2557e-05
-4.31197e-05
3.67958e-05
-4.68745e-05
4.09896e-05
-4.97406e-05
4.55075e-05
-5.19211e-05
4.96644e-05
-5.36854e-05
5.24522e-05
-5.44411e-05
5.64223e-05
-5.31103e-05
6.11411e-05
-5.01712e-05
6.66212e-05
-4.71285e-05
7.25434e-05
-4.08597e-05
7.98282e-05
-2.72677e-05
8.83834e-05
-6.04982e-06
9.38077e-05
7.59919e-06
0.000103443
2.51145e-05
9.52876e-05
5.77921e-05
6.3887e-05
0.000101373
0.000139595
3.84339e-05
2.40937e-06
-3.41785e-05
5.8609e-06
-3.3194e-05
8.95542e-06
-3.34e-05
1.06473e-05
-3.5372e-05
1.23759e-05
-3.79446e-05
1.39556e-05
-4.0644e-05
1.49264e-05
-4.40898e-05
1.55072e-05
-4.74543e-05
1.57734e-05
-5.00056e-05
1.56415e-05
-5.17879e-05
1.44958e-05
-5.25382e-05
1.17688e-05
-5.17125e-05
7.95524e-06
-4.9295e-05
3.39056e-06
-4.56048e-05
-1.36786e-06
-4.23685e-05
-5.63908e-06
-3.65872e-05
-7.17466e-06
-2.57315e-05
-2.86201e-06
-1.03621e-05
-5.66435e-07
5.30492e-06
-7.85512e-06
3.24032e-05
-1.76565e-05
6.7591e-05
-1.86311e-05
0.000102344
0.000124969
-4.00389e-06
5.556e-07
-3.47351e-05
1.82859e-06
-3.44676e-05
2.82571e-06
-3.43975e-05
2.97906e-06
-3.55255e-05
2.55666e-06
-3.75221e-05
1.70099e-06
-3.9788e-05
1.03034e-08
-4.23986e-05
-2.52899e-06
-4.49144e-05
-5.87676e-06
-4.66571e-05
-9.95367e-06
-4.77102e-05
-1.47107e-05
-4.77803e-05
-2.03733e-05
-4.60488e-05
-2.64139e-05
-4.32533e-05
-3.18875e-05
-4.013e-05
-3.77468e-05
-3.65081e-05
-4.39212e-05
-3.04118e-05
-4.94203e-05
-2.02317e-05
-5.4058e-05
-5.72395e-06
-5.98651e-05
1.11124e-05
-6.30242e-05
3.55629e-05
-6.08546e-05
6.5421e-05
-4.82457e-05
8.97352e-05
0.000101255
-2.45317e-05
-5.60802e-07
-3.41746e-05
-7.77369e-07
-3.42517e-05
-1.23787e-06
-3.39375e-05
-2.33682e-06
-3.44269e-05
-4.13946e-06
-3.57197e-05
-6.53304e-06
-3.73946e-05
-9.6747e-06
-3.92569e-05
-1.35957e-05
-4.09933e-05
-1.81303e-05
-4.21224e-05
-2.3187e-05
-4.26532e-05
-2.85972e-05
-4.23698e-05
-3.42259e-05
-4.04196e-05
-4.0088e-05
-3.73907e-05
-4.61725e-05
-3.40449e-05
-5.27415e-05
-2.99385e-05
-5.93088e-05
-2.3844e-05
-6.5293e-05
-1.42473e-05
-7.00682e-05
-9.48612e-07
-7.45728e-05
1.56169e-05
-7.49259e-05
3.59161e-05
-6.65857e-05
5.7082e-05
-5.04787e-05
7.3629e-05
8.13683e-05
-3.05932e-05
-1.13701e-06
-3.30389e-05
-2.24453e-06
-3.3145e-05
-3.55598e-06
-3.26268e-05
-5.30522e-06
-3.26783e-05
-7.59895e-06
-3.34265e-05
-1.04408e-05
-3.45531e-05
-1.38776e-05
-3.58205e-05
-1.7902e-05
-3.69691e-05
-2.23604e-05
-3.76642e-05
-2.72705e-05
-3.77432e-05
-3.25726e-05
-3.70679e-05
-3.78994e-05
-3.50928e-05
-4.33113e-05
-3.19789e-05
-4.90373e-05
-2.83189e-05
-5.50917e-05
-2.3884e-05
-6.10309e-05
-1.79048e-05
-6.59513e-05
-9.32686e-06
-6.96022e-05
2.70206e-06
-7.11647e-05
1.71792e-05
-6.83078e-05
3.30591e-05
-5.9271e-05
4.8045e-05
-4.5007e-05
5.93646e-05
6.72132e-05
-3.08531e-05
-1.49155e-06
-3.15478e-05
-3.04467e-06
-3.15926e-05
-4.69254e-06
-3.09796e-05
-6.56994e-06
-3.08015e-05
-8.82043e-06
-3.11766e-05
-1.15177e-05
-3.18563e-05
-1.46924e-05
-3.26463e-05
-1.83513e-05
-3.33106e-05
-2.24107e-05
-3.36052e-05
-2.68274e-05
-3.33269e-05
-3.16155e-05
-3.22801e-05
-3.64777e-05
-3.0231e-05
-4.12151e-05
-2.72417e-05
-4.60139e-05
-2.35203e-05
-5.09684e-05
-1.89297e-05
-5.57753e-05
-1.30981e-05
-5.96939e-05
-5.40852e-06
-6.19023e-05
4.91018e-06
-6.14021e-05
1.66788e-05
-5.71026e-05
2.87595e-05
-4.85263e-05
3.94684e-05
-3.74472e-05
4.82852e-05
5.70821e-05
-2.73173e-05
-1.7283e-06
-2.98206e-05
-3.52958e-06
-2.97921e-05
-5.30898e-06
-2.92009e-05
-7.17662e-06
-2.89345e-05
-9.26926e-06
-2.90845e-05
-1.16778e-05
-2.94483e-05
-1.44659e-05
-2.98588e-05
-1.76572e-05
-3.01198e-05
-2.12304e-05
-3.00325e-05
-2.51263e-05
-2.94314e-05
-2.92447e-05
-2.81622e-05
-3.33873e-05
-2.60887e-05
-3.74221e-05
-2.32073e-05
-4.13823e-05
-1.95604e-05
-4.52159e-05
-1.50963e-05
-4.87613e-05
-9.5529e-06
-5.13912e-05
-2.77885e-06
-5.23056e-05
5.82421e-06
-5.07661e-05
1.51391e-05
-4.63155e-05
2.4309e-05
-3.91186e-05
3.22714e-05
-3.03617e-05
3.9528e-05
4.83073e-05
-2.1588e-05
-1.92824e-06
-2.78924e-05
-3.90044e-06
-2.78203e-05
-5.78259e-06
-2.73192e-05
-7.65178e-06
-2.70658e-05
-9.63942e-06
-2.70973e-05
-1.18331e-05
-2.72551e-05
-1.43009e-05
-2.73914e-05
-1.70768e-05
-2.73443e-05
-2.01498e-05
-2.69598e-05
-2.34709e-05
-2.61108e-05
-2.69453e-05
-2.46881e-05
-3.04258e-05
-2.26085e-05
-3.3785e-05
-1.98484e-05
-3.69653e-05
-1.63804e-05
-3.98554e-05
-1.22064e-05
-4.22167e-05
-7.19184e-06
-4.37202e-05
-1.27561e-06
-4.3719e-05
5.82273e-06
-4.17545e-05
1.31744e-05
-3.76822e-05
2.02367e-05
-3.18184e-05
2.64075e-05
-2.4677e-05
3.23865e-05
4.01614e-05
-1.65322e-05
-2.08738e-06
-2.58057e-05
-4.19204e-06
-2.57161e-05
-6.16977e-06
-2.53418e-05
-8.07367e-06
-2.51623e-05
-1.00097e-05
-2.51617e-05
-1.20561e-05
-2.5209e-05
-1.42772e-05
-2.51707e-05
-1.6703e-05
-2.49189e-05
-1.93313e-05
-2.43319e-05
-2.21236e-05
-2.33187e-05
-2.50004e-05
-2.18116e-05
-2.78556e-05
-1.97536e-05
-3.05869e-05
-1.71173e-05
-3.30659e-05
-1.39016e-05
-3.51849e-05
-1.00877e-05
-3.67186e-05
-5.65829e-06
-3.74551e-05
-5.3939e-07
-3.68696e-05
5.23706e-06
-3.47977e-05
1.11023e-05
-3.12384e-05
1.66776e-05
-2.64697e-05
2.16387e-05
-2.06376e-05
2.65541e-05
3.29023e-05
-1.33794e-05
-2.21688e-06
-2.35886e-05
-4.42343e-06
-2.35096e-05
-6.47354e-06
-2.32919e-05
-8.40468e-06
-2.32313e-05
-1.0296e-05
-2.32706e-05
-1.2215e-05
-2.32903e-05
-1.42131e-05
-2.31729e-05
-1.63235e-05
-2.28087e-05
-1.85491e-05
-2.21066e-05
-2.08651e-05
-2.10029e-05
-2.32188e-05
-1.94582e-05
-2.55273e-05
-1.74454e-05
-2.76921e-05
-1.49527e-05
-2.96078e-05
-1.19861e-05
-3.11497e-05
-8.54587e-06
-3.21311e-05
-4.67704e-06
-3.23704e-05
-3.00204e-07
-3.15594e-05
4.42585e-06
-2.96074e-05
9.15017e-06
-2.65646e-05
1.36349e-05
-2.26375e-05
1.77115e-05
-1.78326e-05
2.17493e-05
2.66876e-05
-1.1619e-05
-2.31281e-06
-2.1276e-05
-4.59058e-06
-2.12318e-05
-6.68626e-06
-2.11962e-05
-8.62135e-06
-2.12963e-05
-1.04523e-05
-2.14397e-05
-1.2234e-05
-2.15088e-05
-1.4015e-05
-2.1392e-05
-1.5832e-05
-2.09918e-05
-1.76976e-05
-2.02411e-05
-1.96017e-05
-1.9099e-05
-2.15064e-05
-1.75536e-05
-2.33497e-05
-1.56022e-05
-2.5051e-05
-1.32515e-05
-2.65162e-05
-1.0521e-05
-2.7623e-05
-7.43911e-06
-2.82591e-05
-4.04102e-06
-2.82398e-05
-3.1961e-07
-2.74121e-05
3.59801e-06
-2.57093e-05
7.44728e-06
-2.3172e-05
1.10978e-05
-1.99208e-05
1.44605e-05
-1.59153e-05
1.77436e-05
2.14929e-05
-1.07212e-05
-2.38173e-06
-1.88937e-05
-4.70651e-06
-1.89067e-05
-6.81709e-06
-1.90855e-05
-8.72999e-06
-1.93833e-05
-1.04794e-05
-1.96903e-05
-1.21135e-05
-1.98748e-05
-1.36816e-05
-1.9824e-05
-1.52264e-05
-1.9447e-05
-1.67765e-05
-1.86911e-05
-1.83312e-05
-1.75443e-05
-1.98667e-05
-1.60182e-05
-2.13336e-05
-1.41353e-05
-2.26634e-05
-1.19217e-05
-2.37761e-05
-9.40832e-06
-2.45827e-05
-6.63252e-06
-2.49974e-05
-3.62637e-06
-2.4843e-05
-4.74042e-07
-2.40875e-05
2.84244e-06
-2.26672e-05
6.02692e-06
-2.06035e-05
9.03431e-06
-1.79492e-05
1.18063e-05
-1.46579e-05
1.44525e-05
1.72397e-05
-1.04054e-05
-2.42445e-06
-1.6469e-05
-4.77252e-06
-1.65583e-05
-6.88157e-06
-1.69761e-05
-8.74804e-06
-1.75167e-05
-1.04012e-05
-1.8037e-05
-1.18786e-05
-1.83973e-05
-1.32372e-05
-1.84653e-05
-1.45327e-05
-1.81515e-05
-1.58027e-05
-1.74211e-05
-1.70611e-05
-1.62858e-05
-1.82944e-05
-1.47848e-05
-1.94635e-05
-1.29662e-05
-2.05105e-05
-1.08746e-05
-2.13644e-05
-8.55438e-06
-2.19517e-05
-6.04516e-06
-2.21902e-05
-3.38783e-06
-2.20272e-05
-6.37082e-07
-2.1353e-05
2.16823e-06
-2.01814e-05
4.85534e-06
-1.85168e-05
7.36989e-06
-1.63826e-05
9.67234e-06
-1.37401e-05
1.18097e-05
1.38882e-05
-1.03891e-05
-2.44907e-06
-1.40192e-05
-4.80134e-06
-1.42055e-05
-6.88419e-06
-1.48929e-05
-8.68691e-06
-1.57136e-05
-1.02283e-05
-1.64954e-05
-1.15467e-05
-1.70787e-05
-1.27069e-05
-1.73049e-05
-1.37733e-05
-1.70849e-05
-1.4796e-05
-1.63984e-05
-1.57997e-05
-1.5282e-05
-1.67807e-05
-1.38036e-05
-1.77089e-05
-1.20379e-05
-1.85363e-05
-1.00472e-05
-1.92037e-05
-7.88689e-06
-1.96482e-05
-5.60057e-06
-1.98042e-05
-3.2317e-06
-1.96207e-05
-8.20592e-07
-1.90463e-05
1.59384e-06
-1.80795e-05
3.88858e-06
-1.67291e-05
6.01972e-06
-1.50093e-05
7.95251e-06
-1.29036e-05
9.70436e-06
1.12968e-05
-1.03129e-05
-2.45392e-06
-1.15647e-05
-4.7947e-06
-1.18642e-05
-6.83603e-06
-1.28511e-05
-8.56124e-06
-1.39881e-05
-9.98214e-06
-1.50742e-05
-1.11456e-05
-1.5915e-05
-1.2123e-05
-1.63274e-05
-1.29873e-05
-1.62204e-05
-1.37939e-05
-1.55915e-05
-1.45768e-05
-1.4499e-05
-1.53423e-05
-1.3038e-05
-1.607e-05
-1.131e-05
-1.67219e-05
-9.39517e-06
-1.72496e-05
-7.35912e-06
-1.75947e-05
-5.25532e-06
-1.77087e-05
-3.11759e-06
-1.7544e-05
-9.85217e-07
-1.70651e-05
1.11496e-06
-1.62709e-05
3.09447e-06
-1.51683e-05
4.91725e-06
-1.37695e-05
6.55401e-06
-1.20722e-05
8.00674e-06
9.27657e-06
-1.00524e-05
-2.4465e-06
-9.11741e-06
-4.759e-06
-9.55098e-06
-6.74697e-06
-1.08626e-05
-8.38462e-06
-1.235e-05
-9.68357e-06
-1.37749e-05
-1.07025e-05
-1.48958e-05
-1.15245e-05
-1.55051e-05
-1.22206e-05
-1.55241e-05
-1.28447e-05
-1.49672e-05
-1.34377e-05
-1.39058e-05
-1.40137e-05
-1.24617e-05
-1.45665e-05
-1.0757e-05
-1.50689e-05
-8.89267e-06
-1.54807e-05
-6.94715e-06
-1.57552e-05
-4.98063e-06
-1.5847e-05
-3.02563e-06
-1.57166e-05
-1.11556e-06
-1.53322e-05
7.30595e-07
-1.46911e-05
2.45345e-06
-1.37954e-05
4.02174e-06
-1.2655e-05
5.41368e-06
-1.12779e-05
6.63001e-06
7.66655e-06
-9.66851e-06
-2.43023e-06
-6.68641e-06
-4.70848e-06
-7.27203e-06
-6.63512e-06
-8.93536e-06
-8.17931e-06
-1.08053e-05
-9.35808e-06
-1.25957e-05
-1.02493e-05
-1.40043e-05
-1.0949e-05
-1.48051e-05
-1.15132e-05
-1.49597e-05
-1.19891e-05
-1.4491e-05
-1.24215e-05
-1.34731e-05
-1.2833e-05
-1.205e-05
-1.32261e-05
-1.03637e-05
-1.35883e-05
-8.53022e-06
-1.38945e-05
-6.6408e-06
-1.41084e-05
-4.76656e-06
-1.41857e-05
-2.94817e-06
-1.40912e-05
-1.20996e-06
-1.37942e-05
4.33592e-07
-1.32891e-05
1.94847e-06
-1.25761e-05
3.3089e-06
-1.16593e-05
4.49717e-06
-1.05478e-05
5.5181e-06
6.37502e-06
-9.25664e-06
-2.41269e-06
-4.27295e-06
-4.6595e-06
-5.02451e-06
-6.52192e-06
-7.07234e-06
-7.97017e-06
-9.35653e-06
-9.03064e-06
-1.15348e-05
-9.81158e-06
-1.3223e-05
-1.04197e-05
-1.41967e-05
-1.0883e-05
-1.4496e-05
-1.12417e-05
-1.4132e-05
-1.15443e-05
-1.31702e-05
-1.18154e-05
-1.17786e-05
-1.20655e-05
-1.01134e-05
-1.2296e-05
-8.29947e-06
-1.24951e-05
-6.44153e-06
-1.26441e-05
-4.61735e-06
-1.27029e-05
-2.88921e-06
-1.26369e-05
-1.27587e-06
-1.24161e-05
2.12866e-07
-1.20295e-05
1.56199e-06
-1.14748e-05
2.75431e-06
-1.07539e-05
3.77621e-06
-9.87199e-06
4.63668e-06
5.34263e-06
-8.84028e-06
-2.38996e-06
-1.88219e-06
-4.60671e-06
-2.80707e-06
-6.4101e-06
-5.26837e-06
-7.76807e-06
-7.99807e-06
-8.72246e-06
-1.058e-05
-9.41579e-06
-1.25292e-05
-9.94583e-06
-1.36663e-05
-1.03198e-05
-1.41216e-05
-1.05855e-05
-1.38661e-05
-1.07912e-05
-1.29642e-05
-1.09533e-05
-1.16163e-05
-1.1081e-05
-9.98547e-06
-1.11874e-05
-8.19287e-06
-1.12812e-05
-6.34751e-06
-1.13527e-05
-4.54568e-06
-1.13824e-05
-2.85934e-06
-1.1332e-05
-1.32616e-06
-1.11716e-05
5.25422e-08
-1.08852e-05
1.2757e-06
-1.04654e-05
2.33466e-06
-9.91192e-06
3.22307e-06
-9.22591e-06
3.95032e-06
4.53177e-06
-8.41521e-06
-2.33404e-06
4.52473e-07
-4.51231e-06
-6.28191e-07
-6.26764e-06
-3.51251e-06
-7.54508e-06
-6.72017e-06
-8.43658e-06
-9.68809e-06
-9.07184e-06
-1.18936e-05
-9.50364e-06
-1.32342e-05
-9.77684e-06
-1.38481e-05
-9.96991e-06
-1.36727e-05
-1.01144e-05
-1.28195e-05
-1.02076e-05
-1.15228e-05
-1.02483e-05
-9.94453e-06
-1.02503e-05
-8.19067e-06
-1.02386e-05
-6.35896e-06
-1.02268e-05
-4.55738e-06
-1.02096e-05
-2.87634e-06
-1.01586e-05
-1.37703e-06
-1.00401e-05
-6.59241e-08
-9.83177e-06
1.06748e-06
-9.52424e-06
2.0273e-06
-9.11238e-06
2.81122e-06
-8.59288e-06
3.43141e-06
3.90369e-06
-7.96519e-06
-2.23611e-06
2.6893e-06
-4.35151e-06
1.48781e-06
-6.04942e-06
-1.81409e-06
-7.25159e-06
-5.51757e-06
-8.12626e-06
-8.81305e-06
-8.70992e-06
-1.13096e-05
-9.00845e-06
-1.29353e-05
-9.18296e-06
-1.36733e-05
-9.32782e-06
-1.35276e-05
-9.44483e-06
-1.27022e-05
-9.51278e-06
-1.14546e-05
-9.51263e-06
-9.94447e-06
-9.44822e-06
-8.25489e-06
-9.34832e-06
-6.45868e-06
-9.24977e-06
-4.65578e-06
-9.16956e-06
-2.95643e-06
-9.09851e-06
-1.44799e-06
-9.00252e-06
-1.61858e-07
-8.85314e-06
9.18161e-07
-8.6341e-06
1.80841e-06
-8.33653e-06
2.51392e-06
-7.95385e-06
3.04826e-06
3.43159e-06
-7.48191e-06
-2.10121e-06
4.79097e-06
-4.1023e-06
3.48938e-06
-5.7083e-06
-2.07656e-07
-6.87588e-06
-4.34962e-06
-7.71838e-06
-7.97023e-06
-8.20102e-06
-1.08267e-05
-8.37213e-06
-1.2764e-05
-8.483e-06
-1.35622e-05
-8.61129e-06
-1.33991e-05
-8.73387e-06
-1.25794e-05
-8.81229e-06
-1.1376e-05
-8.81479e-06
-9.94178e-06
-8.73008e-06
-8.33944e-06
-8.57608e-06
-6.61254e-06
-8.40095e-06
-4.8308e-06
-8.24871e-06
-3.10859e-06
-8.13758e-06
-1.55907e-06
-8.04285e-06
-2.56556e-07
-7.93084e-06
8.06174e-07
-7.77892e-06
1.65658e-06
-7.57343e-06
2.30824e-06
-7.3016e-06
2.77688e-06
3.08458e-06
-6.95522e-06
-1.89937e-06
6.69091e-06
-3.74481e-06
5.33524e-06
-5.23425e-06
1.28215e-06
-6.35486e-06
-3.22871e-06
-7.1405e-06
-7.18432e-06
-7.46988e-06
-1.04971e-05
-7.55581e-06
-1.26778e-05
-7.64834e-06
-1.34695e-05
-7.78896e-06
-1.32583e-05
-7.94273e-06
-1.24255e-05
-8.06196e-06
-1.12566e-05
-8.10238e-06
-9.90123e-06
-8.04002e-06
-8.40169e-06
-7.87723e-06
-6.77524e-06
-7.65403e-06
-5.05393e-06
-7.4329e-06
-3.32968e-06
-7.26312e-06
-1.72884e-06
-7.14757e-06
-3.72136e-07
-7.05319e-06
7.11772e-07
-6.94707e-06
1.55045e-06
-6.81e-06
2.17131e-06
-6.62624e-06
2.59252e-06
2.8397e-06
-6.38155e-06
-1.62646e-06
8.31756e-06
-3.27471e-06
6.98378e-06
-4.60134e-06
2.60904e-06
-5.64042e-06
-2.18939e-06
-6.30836e-06
-6.51618e-06
-6.49399e-06
-1.03113e-05
-6.54952e-06
-1.26221e-05
-6.6631e-06
-1.33558e-05
-6.8443e-06
-1.3077e-05
-7.0504e-06
-1.22193e-05
-7.22985e-06
-1.10771e-05
-7.33489e-06
-9.7961e-06
-7.33065e-06
-8.40587e-06
-7.20503e-06
-6.90081e-06
-6.97481e-06
-5.28414e-06
-6.7045e-06
-3.60001e-06
-6.46671e-06
-1.96667e-06
-6.31006e-06
-5.28855e-07
-6.21105e-06
6.12684e-07
-6.13172e-06
1.47107e-06
-6.04404e-06
2.08339e-06
-5.92668e-06
2.47554e-06
2.67362e-06
-5.76118e-06
-1.27897e-06
9.59693e-06
-2.67202e-06
8.3771e-06
-3.80237e-06
3.7396e-06
-4.69829e-06
-1.29329e-06
-5.17372e-06
-6.04061e-06
-5.26897e-06
-1.02159e-05
-5.35252e-06
-1.25385e-05
-5.52609e-06
-1.31821e-05
-5.7792e-06
-1.28238e-05
-6.05648e-06
-1.19419e-05
-6.30775e-06
-1.08258e-05
-6.48852e-06
-9.61529e-06
-6.56226e-06
-8.33212e-06
-6.50537e-06
-6.95771e-06
-6.31789e-06
-5.47165e-06
-6.0371e-06
-3.88085e-06
-5.74425e-06
-2.2596e-06
-5.52667e-06
-7.46553e-07
-5.40103e-06
4.86916e-07
-5.33131e-06
1.40124e-06
-5.27537e-06
2.02746e-06
-5.20594e-06
2.40532e-06
2.56808e-06
-5.10077e-06
-8.79047e-07
1.0476e-05
-1.97878e-06