/*--------------------------------*- C++ -*----------------------------------*\
| =========                 |                                                 |
| \\      /  F ield         | OpenFOAM: The Open Source CFD Toolbox           |
|  \\    /   O peration     | Version:  2312                                  |
|   \\  /    A nd           | Website:  www.openfoam.com                      |
|    \\/     M anipulation  |                                                 |
\*---------------------------------------------------------------------------*/
FoamFile
{
    version     2.0;
    format      ascii;
    arch        "LSB;label=32;scalar=64";
    class       volVectorField;
    location    "5";
    object      U;
}
// * * * * * * * * * * * * * * * * * * * * * * * * * * * * * * * * * * * * * //

dimensions      [0 1 -1 0 0 0 0];

internalField   nonuniform List<vector> 
2268
(
(-0.0023401 0.000537625 0)
(-0.0161479 0.00282534 0)
(-0.0301903 0.00318496 0)
(-0.044055 0.00317563 0)
(-0.0571908 0.00301334 0)
(-0.0693449 0.00279082 0)
(-0.0803095 0.00247205 0)
(-0.0896065 0.00202449 0)
(-0.0966128 0.00143982 0)
(-0.100856 0.000756549 0)
(-0.102126 6.10246e-05 0)
(-0.100541 -0.000573268 0)
(-0.0964737 -0.00111076 0)
(-0.0904692 -0.0015111 0)
(-0.0830444 -0.00180057 0)
(-0.0745084 -0.00205271 0)
(-0.065067 -0.00224635 0)
(-0.055126 -0.00230068 0)
(-0.0453953 -0.00213692 0)
(-0.0364425 -0.00189614 0)
(-0.0280617 -0.00188702 0)
(-0.0191909 -0.00223424 0)
(-0.00997043 -0.00418869 0)
(-0.00840825 0.00825203 0)
(-0.0221649 0.0102724 0)
(-0.0364158 0.0101488 0)
(-0.050059 0.00975761 0)
(-0.0629714 0.00912906 0)
(-0.0749207 0.00829833 0)
(-0.085678 0.00719625 0)
(-0.0947318 0.00572466 0)
(-0.101461 0.00388106 0)
(-0.105388 0.00179416 0)
(-0.106306 -0.000313575 0)
(-0.104348 -0.0022032 0)
(-0.0999001 -0.00375441 0)
(-0.0935188 -0.00489449 0)
(-0.0857552 -0.0057255 0)
(-0.0768854 -0.00645834 0)
(-0.0670362 -0.00701828 0)
(-0.0565735 -0.00719803 0)
(-0.0462706 -0.00677795 0)
(-0.0367973 -0.0061781 0)
(-0.0278702 -0.0060867 0)
(-0.0184173 -0.00670091 0)
(-0.00764381 -0.0100208 0)
(-0.00978625 0.0151372 0)
(-0.0242073 0.0163416 0)
(-0.0388911 0.0162725 0)
(-0.0529459 0.0156104 0)
(-0.0662927 0.0146197 0)
(-0.0786192 0.0134024 0)
(-0.0896767 0.0117607 0)
(-0.0989675 0.00944357 0)
(-0.105858 0.00646313 0)
(-0.109836 0.00304624 0)
(-0.110642 -0.000403923 0)
(-0.108437 -0.00364883 0)
(-0.103643 -0.0063337 0)
(-0.0968768 -0.00830801 0)
(-0.0887509 -0.00972264 0)
(-0.0794673 -0.0110197 0)
(-0.0690356 -0.0120138 0)
(-0.0577941 -0.0123314 0)
(-0.0466764 -0.0115491 0)
(-0.0365351 -0.0105122 0)
(-0.0271106 -0.0104042 0)
(-0.0174427 -0.0115713 0)
(-0.00553447 -0.0156332 0)
(-0.0091555 0.0246388 0)
(-0.0238108 0.0249217 0)
(-0.0386664 0.0245545 0)
(-0.0531907 0.0235265 0)
(-0.0671253 0.0219057 0)
(-0.0800081 0.0198611 0)
(-0.0916394 0.0172379 0)
(-0.101565 0.0135936 0)
(-0.109097 0.0089942 0)
(-0.11358 0.00380759 0)
(-0.114725 -0.00124742 0)
(-0.112618 -0.00585718 0)
(-0.107631 -0.00943433 0)
(-0.100536 -0.0119847 0)
(-0.0921227 -0.0138453 0)
(-0.0824798 -0.0158079 0)
(-0.0713619 -0.0173306 0)
(-0.0590592 -0.0178817 0)
(-0.0467802 -0.016602 0)
(-0.0355941 -0.014993 0)
(-0.0252651 -0.0147615 0)
(-0.0155075 -0.0163798 0)
(-0.00358493 -0.020392 0)
(-0.00705498 0.0279192 0)
(-0.0205221 0.0281077 0)
(-0.0341813 0.0281265 0)
(-0.0482192 0.0276762 0)
(-0.0625868 0.0265446 0)
(-0.076692 0.024819 0)
(-0.0898267 0.0222003 0)
(-0.101233 0.0180127 0)
(-0.110219 0.012435 0)
(-0.115893 0.00592998 0)
(-0.11773 -0.000845865 0)
(-0.115614 -0.00740229 0)
(-0.110266 -0.0127025 0)
(-0.103013 -0.016419 0)
(-0.0948622 -0.0187068 0)
(-0.0852554 -0.0211922 0)
(-0.0735074 -0.0233247 0)
(-0.0600425 -0.0245413 0)
(-0.0462166 -0.0229216 0)
(-0.0331235 -0.0209865 0)
(-0.0204321 -0.0205579 0)
(-0.0104092 -0.0220409 0)
(-0.000424118 -0.0250077 0)
(-0.00701369 0.0335257 0)
(-0.0207927 0.0336977 0)
(-0.0335511 0.0332997 0)
(-0.0458965 0.0324255 0)
(-0.0576702 0.0307717 0)
(-0.0687851 0.028377 0)
(-0.0790628 0.0253201 0)
(-0.0882471 0.0211029 0)
(-0.0958695 0.0154478 0)
(-0.100851 0.00798842 0)
(-0.102461 -0.00116579 0)
(-0.101499 -0.008697 0)
(-0.0993007 -0.0138061 0)
(-0.0961394 -0.0173533 0)
(-0.0913307 -0.0200951 0)
(-0.0829792 -0.0246621 0)
(-0.0716047 -0.0285574 0)
(-0.05802 -0.0312474 0)
(-0.0425317 -0.0302455 0)
(-0.0265948 -0.0289875 0)
(-0.0101304 -0.0291808 0)
(4.12084e-05 -0.0295202 0)
(0.00539572 -0.0299453 0)
(-0.00510918 0.0489013 0)
(-0.0108747 0.0483959 0)
(-0.0147863 0.0477266 0)
(-0.0225649 0.0465255 0)
(-0.0321429 0.0442631 0)
(-0.0441796 0.0406642 0)
(-0.0581686 0.0350364 0)
(-0.0709165 0.027712 0)
(-0.0801431 0.0195416 0)
(-0.08601 0.010687 0)
(-0.0908665 0.000738929 0)
(-0.0965141 -0.00674323 0)
(-0.0960496 -0.012421 0)
(-0.0887628 -0.0176299 0)
(-0.0766139 -0.022709 0)
(-0.0625016 -0.0294868 0)
(-0.0502101 -0.032651 0)
(-0.0386239 -0.0361263 0)
(-0.0231682 -0.036101 0)
(-0.0029557 -0.0350843 0)
(0.0176521 -0.0337315 0)
(0.0256467 -0.029224 0)
(0.0187789 -0.0260773 0)
(-0.00326968 0.044729 0)
(0.000268778 0.040507 0)
(0.0098695 0.0416528 0)
(0.016404 0.0425139 0)
(0.0244184 0.0421892 0)
(0.033305 0.0418109 0)
(0.0418573 0.0384796 0)
(0.0496971 0.0312114 0)
(0.0568271 0.0204432 0)
(0.0642726 0.00823793 0)
(0.0724832 -0.00164263 0)
(0.0813497 -0.012256 0)
(0.0970879 -0.0242607 0)
(0.118318 -0.0334239 0)
(0.138184 -0.0349684 0)
(0.141204 -0.0357656 0)
(0.110493 -0.0401428 0)
(0.116042 -0.0492764 0)
(0.124073 -0.0498792 0)
(0.130589 -0.0442493 0)
(0.12948 -0.0339053 0)
(0.108162 -0.016162 0)
(0.062161 0.0131352 0)
(-0.0178235 0.00465696 0)
(-0.0152101 -0.00193063 0)
(-0.0141744 -0.00193392 0)
(-0.00707543 -0.0018215 0)
(0.00299693 -0.00225312 0)
(0.0155954 -0.00301415 0)
(0.0287024 -0.00316531 0)
(0.0406826 -0.00322788 0)
(0.0515337 -0.00315041 0)
(0.0609197 -0.00299168 0)
(0.0687687 -0.00315505 0)
(0.0752828 -0.00321115 0)
(0.0814068 -0.00352922 0)
(0.0869845 -0.00309925 0)
(0.0889041 -0.00181847 0)
(0.0898222 -0.00147612 0)
(0.0878815 0.00197529 0)
(0.0694141 0.008026 0)
(0.0309038 0.0137121 0)
(0.00104971 0.00980129 0)
(0.00171366 0.00205505 0)
(-0.00569873 -0.00170019 0)
(-0.00306824 -0.00532798 0)
(0.00550634 -0.00719859 0)
(0.0182311 -0.00867956 0)
(0.0323203 -0.00824114 0)
(0.0452462 -0.00682008 0)
(0.05659 -0.00579849 0)
(0.0667889 -0.00449047 0)
(0.0750452 -0.00288361 0)
(0.0789752 -0.000962405 0)
(0.0799937 -0.00156476 0)
(0.0809278 -0.00044644 0)
(0.0821078 0.00280714 0)
(0.0858511 -8.88585e-05 0)
(0.0840568 0.00575169 0)
(0.0624699 0.0177704 0)
(0.024587 0.0288335 0)
(0.00634081 6.34925e-05 0)
(0.00654702 0.000752185 0)
(0.00176972 -0.00158219 0)
(-0.0018258 -0.00728976 0)
(-0.00303686 -0.0102269 0)
(0.00130462 -0.0122315 0)
(0.0112264 -0.0125341 0)
(0.0257578 -0.0121392 0)
(0.040892 -0.0121673 0)
(0.056843 -0.0111074 0)
(0.0752874 -0.00907052 0)
(0.0897569 -0.00509135 0)
(0.0940195 -0.00465802 0)
(0.0948111 -0.00445078 0)
(0.10372 -0.003251 0)
(0.114092 -0.00595076 0)
(0.10524 0.0105592 0)
(0.0737256 0.0311397 0)
(0.0294655 0.0451694 0)
(-0.0332125 0.00831568 0)
(-0.0297341 0.00430192 0)
(-0.0100401 0.00155662 0)
(-0.0212201 -0.00124101 0)
(-0.0379306 -0.00879819 0)
(-0.0411355 -0.0169868 0)
(-0.0379432 -0.0198996 0)
(-0.0264182 -0.0197535 0)
(-0.0185293 -0.0166886 0)
(-1.76506e-05 -0.0157075 0)
(0.0501577 -0.0152096 0)
(0.0995179 -0.00584022 0)
(0.126136 -0.00150144 0)
(0.139609 -0.00350232 0)
(0.144628 -0.00830926 0)
(0.125599 -0.00497488 0)
(0.0897312 0.0250949 0)
(0.0706832 0.0562534 0)
(0.0452866 0.0764244 0)
(-0.0305685 0.0230924 0)
(0.00177882 -0.00922639 0)
(0.0110348 -0.00509071 0)
(0.0173682 0.00434558 0)
(0.0273026 -0.000323414 0)
(-0.00632298 -0.00615619 0)
(-0.0912026 -0.0156517 0)
(-0.129638 -0.0217232 0)
(-0.12564 -0.0268438 0)
(-0.0719345 -0.0505485 0)
(0.0115571 -0.060424 0)
(0.100442 -0.043579 0)
(0.162953 -0.0189209 0)
(0.169804 -0.00599439 0)
(0.0227677 0.00719713 0)
(-0.132037 0.0172475 0)
(-0.0968289 0.033302 0)
(-0.0200227 0.0382537 0)
(0.0545089 0.103314 0)
(-0.0161873 0.0175722 0)
(0.0437461 -0.0184688 0)
(0.0345703 -0.00823427 0)
(0.0576614 -0.00551313 0)
(0.0537575 0.00125053 0)
(0.0461499 0.0211849 0)
(-0.00838217 0.0300784 0)
(-0.086766 -0.010895 0)
(-0.0930379 -0.033543 0)
(-0.0504043 -0.0787538 0)
(-0.0217707 -0.0890046 0)
(0.0295688 -0.0774166 0)
(0.0822528 -0.0239687 0)
(0.0880612 0.0379528 0)
(-0.0772956 0.0897131 0)
(-0.1546 0.0399495 0)
(-0.112525 -0.00222429 0)
(-0.050432 -0.0159078 0)
(0.040772 0.101649 0)
(0.0293867 0.025335 0)
(0.0868865 -0.0203293 0)
(0.0856869 -0.0141812 0)
(0.0895927 -0.00538574 0)
(0.0782652 0.00884486 0)
(0.0588394 0.0218396 0)
(0.0361017 0.0428144 0)
(0.00244609 0.0148636 0)
(-0.0429019 -0.028687 0)
(-0.0168682 -0.0864326 0)
(-0.0461299 -0.0954595 0)
(-0.0405875 -0.0901404 0)
(-0.0205287 -0.0372971 0)
(0.0153667 0.0712723 0)
(-0.110341 0.123478 0)
(-0.142247 0.0460905 0)
(-0.0530704 -0.0288828 0)
(-0.0455781 -0.034564 0)
(0.0165978 0.0965241 0)
(0.133723 -0.0549134 0)
(0.12992 -0.0295753 0)
(0.118117 -0.0125255 0)
(0.107422 -0.00350277 0)
(0.0944038 0.0183969 0)
(0.0724428 0.0331672 0)
(0.0568426 0.0496136 0)
(0.0403886 0.0259459 0)
(0.0238293 -0.0145657 0)
(0.0202676 -0.0694483 0)
(-0.0711435 -0.0792696 0)
(-0.0968511 -0.0821381 0)
(-0.108117 -0.0362322 0)
(-0.0560426 0.0808732 0)
(-0.116648 0.144802 0)
(-0.113683 0.0350675 0)
(-0.00374831 -0.0498685 0)
(-0.0332642 -0.0372654 0)
(-0.00446652 0.0868232 0)
(-0.00201428 0.0457247 0)
(-0.000708796 0.0339088 0)
(0.003437 0.0343657 0)
(0.0118288 0.0352806 0)
(0.02348 0.0313597 0)
(0.0377935 0.0297961 0)
(0.0538998 0.0263215 0)
(0.0710044 0.0210494 0)
(0.0881037 0.0124735 0)
(0.106256 0.0023747 0)
(0.125443 -0.00709202 0)
(0.144483 -0.0181589 0)
(0.163681 -0.030546 0)
(0.18254 -0.03954 0)
(0.201969 -0.0389761 0)
(0.219968 -0.0273454 0)
(0.233794 -0.0190994 0)
(0.239735 -0.0253572 0)
(0.237998 -0.0339829 0)
(0.231252 -0.0344388 0)
(0.218748 -0.0258608 0)
(0.201598 -0.00793919 0)
(0.183594 0.0280543 0)
(0.00467546 0.0426362 0)
(0.0085741 0.0339501 0)
(0.00615213 0.0284307 0)
(0.015843 0.0201094 0)
(0.0235768 0.0129509 0)
(0.0253337 0.012294 0)
(0.0339114 0.00187099 0)
(0.0487374 -0.00291486 0)
(0.0661059 -0.0117473 0)
(0.0854248 -0.0263756 0)
(0.106404 -0.0380022 0)
(0.128916 -0.0471259 0)
(0.151159 -0.0563673 0)
(0.171659 -0.0631872 0)
(0.190475 -0.0662517 0)
(0.21023 -0.0641019 0)
(0.229833 -0.0584213 0)
(0.244378 -0.0573565 0)
(0.251459 -0.0520755 0)
(0.250333 -0.0347687 0)
(0.242244 -0.00825086 0)
(0.228555 0.0216722 0)
(0.209972 0.0423922 0)
(0.0139456 0.0380446 0)
(0.0412562 0.0368759 0)
(0.0665707 0.0320919 0)
(0.0883395 0.0225347 0)
(0.103432 0.0232894 0)
(0.106692 0.0257818 0)
(0.104218 0.00362948 0)
(0.100529 -0.0136456 0)
(0.103752 -0.0235223 0)
(0.109385 -0.0388716 0)
(0.114516 -0.0534552 0)
(0.125101 -0.0677571 0)
(0.13995 -0.0777949 0)
(0.15487 -0.0817606 0)
(0.168466 -0.0822106 0)
(0.184307 -0.0762199 0)
(0.202342 -0.0620393 0)
(0.215448 -0.0516105 0)
(0.218762 -0.0391649 0)
(0.2115 -0.0210084 0)
(0.193746 0.000374719 0)
(0.167162 0.0262558 0)
(0.133228 0.0555957 0)
(0.0192247 -0.00946236 0)
(0.0581627 -0.0263776 0)
(0.0968399 -0.0159825 0)
(0.127445 -0.0164564 0)
(0.155826 -0.0118595 0)
(0.186032 0.00824369 0)
(0.203539 0.0131046 0)
(0.202091 -0.000593221 0)
(0.200041 -0.0178449 0)
(0.200746 -0.0311095 0)
(0.194308 -0.0443479 0)
(0.184633 -0.0644157 0)
(0.178964 -0.0785759 0)
(0.176416 -0.0837005 0)
(0.174327 -0.086458 0)
(0.173452 -0.0878838 0)
(0.178559 -0.0827194 0)
(0.190363 -0.0750025 0)
(0.203449 -0.0512233 0)
(0.20251 -0.0130104 0)
(0.173353 0.0393938 0)
(0.116874 0.090208 0)
(0.0704052 0.116423 0)
(0.0156374 -0.0399452 0)
(0.0371153 -0.0564218 0)
(0.0574871 -0.0362835 0)
(0.0752084 -0.0310897 0)
(0.0867953 -0.0374306 0)
(0.1103 -0.0156414 0)
(0.136799 -0.00472944 0)
(0.161674 -0.0158913 0)
(0.187732 -0.0326075 0)
(0.21424 -0.0403262 0)
(0.237069 -0.0468363 0)
(0.251101 -0.0628473 0)
(0.255263 -0.0776716 0)
(0.253889 -0.0842892 0)
(0.248408 -0.0847184 0)
(0.234747 -0.0826427 0)
(0.210078 -0.0778477 0)
(0.177149 -0.0730377 0)
(0.148905 -0.0503655 0)
(0.131192 0.00891279 0)
(0.110817 0.0825877 0)
(0.0723899 0.133757 0)
(0.0403233 0.153863 0)
(0.00821787 -0.0569689 0)
(0.0176609 -0.0661376 0)
(0.0214455 -0.0475633 0)
(0.0384843 -0.0416931 0)
(0.0503802 -0.0524255 0)
(0.0719969 -0.0414285 0)
(0.102651 -0.037683 0)
(0.133321 -0.050415 0)
(0.160594 -0.0639853 0)
(0.185212 -0.0711324 0)
(0.208962 -0.0747076 0)
(0.230816 -0.0792856 0)
(0.248175 -0.0827953 0)
(0.259905 -0.0819147 0)
(0.26658 -0.0734857 0)
(0.268121 -0.0585937 0)
(0.262206 -0.0396203 0)
(0.243788 -0.0209496 0)
(0.199778 0.00124739 0)
(0.138271 0.0403348 0)
(0.0953741 0.113568 0)
(0.0525903 0.165761 0)
(0.0161216 0.181411 0)
(0.00391389 -0.0670127 0)
(0.0118461 -0.0691238 0)
(0.0147699 -0.0595478 0)
(0.0329648 -0.058084 0)
(0.0488172 -0.0675998 0)
(0.0697774 -0.068217 0)
(0.0984905 -0.0687621 0)
(0.128 -0.0774833 0)
(0.154513 -0.0864198 0)
(0.179199 -0.0924653 0)
(0.203669 -0.0962211 0)
(0.227458 -0.0990738 0)
(0.249247 -0.100137 0)
(0.268142 -0.0960226 0)
(0.283284 -0.0845735 0)
(0.293454 -0.0673891 0)
(0.2964 -0.0434221 0)
(0.290811 -0.00524383 0)
(0.264007 0.0467434 0)
(0.199047 0.103522 0)
(0.119729 0.164265 0)
(0.0573509 0.200331 0)
(0.00697872 0.207638 0)
(0.0026938 -0.0757819 0)
(0.0124542 -0.0763325 0)
(0.0207222 -0.0739415 0)
(0.0394253 -0.0783053 0)
(0.0587232 -0.0889175 0)
(0.080712 -0.0969666 0)
(0.106872 -0.102407 0)
(0.135208 -0.109753 0)
(0.163473 -0.117207 0)
(0.191757 -0.122905 0)
(0.220521 -0.126234 0)
(0.248669 -0.126943 0)
(0.275367 -0.125054 0)
(0.30096 -0.117614 0)
(0.325343 -0.100671 0)
(0.347444 -0.0748123 0)
(0.365454 -0.0386899 0)
(0.376551 0.0129429 0)
(0.369841 0.0845868 0)
(0.315134 0.164237 0)
(0.218921 0.229016 0)
(0.134905 0.252582 0)
(0.0622098 0.254027 0)
(0.00310806 -0.0863662 0)
(0.0137666 -0.0892907 0)
(0.0275062 -0.0938813 0)
(0.049425 -0.102041 0)
(0.0711516 -0.112993 0)
(0.0931084 -0.123281 0)
(0.118343 -0.131179 0)
(0.147158 -0.138979 0)
(0.178423 -0.14614 0)
(0.212197 -0.151841 0)
(0.248728 -0.155076 0)
(0.285971 -0.155109 0)
(0.322515 -0.152763 0)
(0.359959 -0.146478 0)
(0.399574 -0.132049 0)
(0.441112 -0.109184 0)
(0.481916 -0.0722962 0)
(0.511982 -0.0115782 0)
(0.507318 0.0851119 0)
(0.45633 0.225313 0)
(0.388194 0.332411 0)
(0.347834 0.345905 0)
(0.316977 0.378402 0)
(0.00701367 -0.0940636 0)
(0.0221427 -0.0981231 0)
(0.0418192 -0.106547 0)
(0.068131 -0.115409 0)
(0.0906438 -0.12509 0)
(0.110607 -0.136183 0)
(0.134803 -0.147349 0)
(0.164147 -0.158916 0)
(0.196763 -0.170317 0)
(0.235163 -0.180849 0)
(0.282377 -0.188537 0)
(0.332999 -0.189665 0)
(0.381807 -0.189738 0)
(0.421047 -0.189436 0)
(0.47079 -0.181482 0)
(0.526566 -0.164049 0)
(0.569624 -0.118035 0)
(0.573664 -0.0208762 0)
(0.553462 0.111659 0)
(0.568296 0.307612 0)
(0.558658 0.356609 0)
(0.583417 0.348052 0)
(0.619999 0.446276 0)
(0.0212516 -0.114532 0)
(0.0480477 -0.11406 0)
(0.0627297 -0.129065 0)
(0.0838383 -0.149955 0)
(0.116553 -0.152902 0)
(0.151118 -0.167019 0)
(0.189689 -0.190254 0)
(0.234493 -0.207186 0)
(0.282768 -0.225313 0)
(0.328858 -0.240905 0)
(0.369986 -0.257013 0)
(0.41575 -0.258738 0)
(0.460494 -0.24216 0)
(0.5018 -0.226264 0)
(0.526592 -0.216717 0)
(0.532187 -0.176306 0)
(0.522131 -0.0743192 0)
(0.514584 0.0443047 0)
(0.560294 0.116384 0)
(0.604543 0.209007 0)
(0.656601 0.270845 0)
(0.680187 0.319169 0)
(0.615734 0.513386 0)
(0.0156653 -0.163127 0)
(0.0451671 -0.143932 0)
(0.0770663 -0.147556 0)
(0.0973685 -0.175324 0)
(0.116887 -0.184866 0)
(0.141867 -0.203136 0)
(0.164672 -0.228982 0)
(0.185822 -0.252494 0)
(0.208225 -0.272558 0)
(0.232689 -0.288686 0)
(0.256692 -0.305166 0)
(0.274401 -0.320508 0)
(0.291909 -0.316562 0)
(0.314998 -0.303328 0)
(0.339319 -0.287565 0)
(0.363492 -0.257811 0)
(0.399648 -0.182197 0)
(0.449612 -0.0344994 0)
(0.493763 0.0528841 0)
(0.54684 0.175138 0)
(0.568715 0.276627 0)
(0.488674 0.420909 0)
(0.232169 0.734212 0)
(0.00379455 -0.184162 0)
(0.0233134 -0.174861 0)
(0.0414081 -0.176319 0)
(0.053878 -0.189905 0)
(0.061941 -0.202263 0)
(0.0719937 -0.217402 0)
(0.0788674 -0.236874 0)
(0.0822061 -0.255151 0)
(0.0844342 -0.26902 0)
(0.0853494 -0.278967 0)
(0.0815598 -0.285576 0)
(0.0704833 -0.284631 0)
(0.0564585 -0.272903 0)
(0.0347053 -0.247754 0)
(0.00352956 -0.22425 0)
(-0.0266408 -0.187148 0)
(-0.0457675 -0.12405 0)
(-0.0378403 -0.0456205 0)
(-0.0176094 0.0164135 0)
(-0.0194579 0.157855 0)
(-0.0504535 0.365708 0)
(-0.0846748 0.623503 0)
(-0.0738757 0.753275 0)
(-0.00115589 -0.187859 0)
(0.00725358 -0.18512 0)
(0.0136288 -0.185986 0)
(0.0171784 -0.194686 0)
(0.0155477 -0.207335 0)
(0.0130562 -0.221465 0)
(0.00619869 -0.238645 0)
(-0.00593627 -0.254594 0)
(-0.0215134 -0.265249 0)
(-0.0414466 -0.27129 0)
(-0.0665565 -0.270405 0)
(-0.094837 -0.259215 0)
(-0.12516 -0.242708 0)
(-0.15586 -0.226591 0)
(-0.189363 -0.209243 0)
(-0.224247 -0.177588 0)
(-0.257606 -0.120838 0)
(-0.288777 -0.0413043 0)
(-0.315313 0.0541958 0)
(-0.328959 0.190826 0)
(-0.328049 0.386713 0)
(-0.298547 0.546458 0)
(-0.198707 0.62793 0)
(-0.00329509 -0.186959 0)
(-0.00294694 -0.186741 0)
(-0.00475312 -0.185706 0)
(-0.00806878 -0.189882 0)
(-0.0161954 -0.198382 0)
(-0.0272799 -0.208534 0)
(-0.0423537 -0.219773 0)
(-0.0617374 -0.230424 0)
(-0.0845509 -0.237835 0)
(-0.110711 -0.24192 0)
(-0.139587 -0.241227 0)
(-0.168943 -0.231252 0)
(-0.199208 -0.214799 0)
(-0.231625 -0.195956 0)
(-0.267362 -0.173991 0)
(-0.304427 -0.140255 0)
(-0.339117 -0.0858619 0)
(-0.36938 -0.00991945 0)
(-0.393471 0.0850399 0)
(-0.405923 0.203319 0)
(-0.382998 0.332019 0)
(-0.316601 0.44478 0)
(-0.21652 0.491114 0)
(-0.00417876 -0.181935 0)
(-0.00851853 -0.182442 0)
(-0.0151646 -0.179969 0)
(-0.0226341 -0.181103 0)
(-0.0336098 -0.186368 0)
(-0.0474258 -0.193745 0)
(-0.0644479 -0.202 0)
(-0.0847774 -0.209574 0)
(-0.107714 -0.21425 0)
(-0.133137 -0.21572 0)
(-0.161174 -0.212881 0)
(-0.189711 -0.202327 0)
(-0.218027 -0.186327 0)
(-0.248208 -0.167713 0)
(-0.281105 -0.144531 0)
(-0.314687 -0.111441 0)
(-0.344463 -0.0621341 0)
(-0.36759 0.00480754 0)
(-0.381829 0.0884852 0)
(-0.378535 0.186821 0)
(-0.345945 0.284528 0)
(-0.279924 0.354554 0)
(-0.200927 0.393388 0)
(-0.00470561 -0.174525 0)
(-0.0118323 -0.174927 0)
(-0.0206912 -0.171731 0)
(-0.029494 -0.171184 0)
(-0.0405799 -0.174009 0)
(-0.0539029 -0.178704 0)
(-0.0697642 -0.184125 0)
(-0.0882914 -0.188989 0)
(-0.109195 -0.191716 0)
(-0.132205 -0.191297 0)
(-0.157289 -0.186869 0)
(-0.183378 -0.17609 0)
(-0.209096 -0.159297 0)
(-0.23481 -0.139014 0)
(-0.261567 -0.114836 0)
(-0.288682 -0.083466 0)
(-0.312761 -0.0391932 0)
(-0.329138 0.0191184 0)
(-0.334102 0.0888584 0)
(-0.321306 0.163288 0)
(-0.285517 0.231173 0)
(-0.229224 0.285153 0)
(-0.171489 0.332764 0)
(-0.00512894 -0.16588 0)
(-0.0139294 -0.16591 0)
(-0.0238916 -0.162547 0)
(-0.0331434 -0.161173 0)
(-0.0437198 -0.162417 0)
(-0.0557977 -0.165103 0)
(-0.0697791 -0.168235 0)
(-0.0859236 -0.170665 0)
(-0.104249 -0.171202 0)
(-0.124546 -0.168794 0)
(-0.146341 -0.162578 0)
(-0.168716 -0.151596 0)
(-0.19077 -0.135827 0)
(-0.21234 -0.115821 0)
(-0.233552 -0.0911965 0)
(-0.253856 -0.0603067 0)
(-0.270731 -0.0208362 0)
(-0.280443 0.028029 0)
(-0.279048 0.0840487 0)
(-0.262846 0.140404 0)
(-0.230247 0.190029 0)
(-0.185177 0.234248 0)
(-0.138778 0.284607 0)
(-0.00562191 -0.155841 0)
(-0.0155835 -0.155565 0)
(-0.026301 -0.152584 0)
(-0.0359463 -0.151101 0)
(-0.0462228 -0.151473 0)
(-0.0574162 -0.152772 0)
(-0.0699347 -0.154161 0)
(-0.0840605 -0.154665 0)
(-0.0998766 -0.153365 0)
(-0.117229 -0.149464 0)
(-0.135684 -0.142251 0)
(-0.154534 -0.131126 0)
(-0.173041 -0.115968 0)
(-0.190747 -0.0968075 0)
(-0.207195 -0.0733342 0)
(-0.221522 -0.0447983 0)
(-0.232001 -0.0100615 0)
(-0.236258 0.0304473 0)
(-0.23111 0.0748168 0)
(-0.214612 0.118068 0)
(-0.187051 0.155904 0)
(-0.15123 0.192273 0)
(-0.111793 0.238831 0)
(-0.00607518 -0.145009 0)
(-0.0168608 -0.144545 0)
(-0.0282011 -0.142161 0)
(-0.038298 -0.14093 0)
(-0.0485267 -0.140919 0)
(-0.0591738 -0.141371 0)
(-0.0706216 -0.141551 0)
(-0.0831194 -0.140663 0)
(-0.0967677 -0.137996 0)
(-0.111441 -0.132964 0)
(-0.126796 -0.125102 0)
(-0.142339 -0.114008 0)
(-0.157468 -0.0995155 0)
(-0.171585 -0.081564 0)
(-0.184062 -0.0599268 0)
(-0.193976 -0.0343119 0)
(-0.200089 -0.00449675 0)
(-0.200618 0.0289017 0)
(-0.193491 0.0641305 0)
(-0.178047 0.0979175 0)
(-0.155215 0.127862 0)
(-0.126757 0.157447 0)
(-0.0932419 0.196156 0)
(-0.0064888 -0.133357 0)
(-0.0178897 -0.132877 0)
(-0.0296854 -0.131262 0)
(-0.0401266 -0.130571 0)
(-0.0503259 -0.130597 0)
(-0.0605013 -0.130688 0)
(-0.0709937 -0.130195 0)
(-0.0820244 -0.128471 0)
(-0.0937004 -0.124969 0)
(-0.105967 -0.119256 0)
(-0.118602 -0.111051 0)
(-0.131222 -0.100144 0)
(-0.14333 -0.0864137 0)
(-0.15439 -0.0698231 0)
(-0.163769 -0.0503176 0)
(-0.170605 -0.027803 0)
(-0.173901 -0.00244138 0)
(-0.172414 0.0251888 0)
(-0.164951 0.0534755 0)
(-0.151271 0.0804626 0)
(-0.132264 0.104869 0)
(-0.109244 0.129036 0)
(-0.0810339 0.159401 0)
(-0.00681561 -0.12112 0)
(-0.0186486 -0.120764 0)
(-0.0307471 -0.120053 0)
(-0.0413745 -0.120121 0)
(-0.0514424 -0.120546 0)
(-0.0610746 -0.120715 0)
(-0.0705949 -0.120019 0)
(-0.0802297 -0.117916 0)
(-0.0901224 -0.113986 0)
(-0.100278 -0.10795 0)
(-0.110564 -0.0996621 0)
(-0.120701 -0.0890339 0)
(-0.130292 -0.076042 0)
(-0.13886 -0.0607422 0)
(-0.145829 -0.0431958 0)
(-0.150553 -0.0234963 0)
(-0.152227 -0.00195755 0)
(-0.149967 0.0208773 0)
(-0.143132 0.0438073 0)
(-0.131572 0.0656586 0)
(-0.115891 0.0857706 0)
(-0.0968543 0.105551 0)
(-0.0730769 0.128726 0)
(-0.00706218 -0.108432 0)
(-0.019198 -0.108326 0)
(-0.0314562 -0.108673 0)
(-0.0421016 -0.109718 0)
(-0.0519063 -0.110866 0)
(-0.0609092 -0.111498 0)
(-0.069434 -0.110997 0)
(-0.0777389 -0.108874 0)
(-0.0860261 -0.104809 0)
(-0.094368 -0.0986638 0)
(-0.102701 -0.0904297 0)
(-0.110815 -0.0801565 0)
(-0.118377 -0.0679189 0)
(-0.124983 -0.0538348 0)
(-0.130181 -0.0380566 0)
(-0.133481 -0.0207813 0)
(-0.13419 -0.00227024 0)
(-0.131745 0.0167637 0)
(-0.125876 0.0355971 0)
(-0.116435 0.0534693 0)
(-0.103727 0.0699948 0)
(-0.0880917 0.0859539 0)
(-0.0684926 0.103296 0)
(-0.00722375 -0.0954567 0)
(-0.0195446 -0.0957107 0)
(-0.0318594 -0.0972762 0)
(-0.0423875 -0.0995046 0)
(-0.0518145 -0.101675 0)
(-0.0601173 -0.103099 0)
(-0.067639 -0.103111 0)
(-0.0746854 -0.101233 0)
(-0.0815278 -0.0972332 0)
(-0.0883081 -0.0911107 0)
(-0.0950187 -0.0829967 0)
(-0.101506 -0.0730781 0)
(-0.107501 -0.0615389 0)
(-0.112643 -0.0485669 0)
(-0.116542 -0.0343612 0)
(-0.118772 -0.0191213 0)
(-0.118979 -0.00309828 0)
(-0.11672 0.013052 0)
(-0.11174 0.0288044 0)
(-0.104083 0.0436332 0)
(-0.0938932 0.0572624 0)
(-0.0812407 0.0700484 0)
(-0.0657148 0.0828561 0)
(-0.00733199 -0.082304 0)
(-0.0197465 -0.0830207 0)
(-0.0319988 -0.0859657 0)
(-0.0422941 -0.089593 0)
(-0.0512431 -0.0930574 0)
(-0.0587992 -0.0955564 0)
(-0.0653399 -0.0963303 0)
(-0.0712179 -0.0948856 0)
(-0.0767632 -0.0910755 0)
(-0.0821813 -0.0850337 0)
(-0.0875196 -0.0770462 0)
(-0.0926714 -0.0674345 0)
(-0.0974219 -0.0564887 0)
(-0.101471 -0.0444566 0)
(-0.104481 -0.0315684 0)
(-0.106104 -0.0180334 0)
(-0.106035 -0.00412732 0)
(-0.103989 0.00978643 0)
(-0.099835 0.0231775 0)
(-0.0935937 0.0356726 0)
(-0.0853475 0.0470555 0)
(-0.0751238 0.0574462 0)
(-0.0630731 0.0671012 0)
(-0.00738124 -0.0690828 0)
(-0.0197925 -0.0703567 0)
(-0.0319003 -0.0748264 0)
(-0.0418764 -0.0800642 0)
(-0.0502814 -0.0850647 0)
(-0.057079 -0.0888732 0)
(-0.0626952 -0.0905889 0)
(-0.0675334 -0.089708 0)
(-0.071946 -0.0861697 0)
(-0.0761785 -0.0802369 0)
(-0.080333 -0.0723524 0)
(-0.0843577 -0.0629727 0)
(-0.0880913 -0.0524959 0)
(-0.0912914 -0.0412374 0)
(-0.093658 -0.0294417 0)
(-0.0949082 -0.0173042 0)
(-0.0947799 -0.0050504 0)
(-0.0930466 0.00701263 0)
(-0.0896181 0.0185152 0)
(-0.0845103 0.0291609 0)
(-0.0777775 0.0387688 0)
(-0.0694425 0.0473627 0)
(-0.0599632 0.0549567 0)
(-0.00740158 -0.0558558 0)
(-0.0197271 -0.0577939 0)
(-0.0316129 -0.0639501 0)
(-0.0412111 -0.0709893 0)
(-0.0490288 -0.0777311 0)
(-0.0550842 -0.083009 0)
(-0.0598873 -0.0857708 0)
(-0.0638651 -0.0855385 0)
(-0.0673347 -0.0823436 0)
(-0.0705569 -0.0765479 0)
(-0.0736809 -0.0687431 0)
(-0.0767142 -0.0595191 0)
(-0.0795646 -0.0493723 0)
(-0.0820482 -0.0386877 0)
(-0.083915 -0.027743 0)
(-0.0849232 -0.0167356 0)
(-0.0848338 -0.00583495 0)
(-0.0834532 0.00473532 0)
(-0.0806921 0.0147008 0)
(-0.0765634 0.0238332 0)
(-0.0710831 0.0319869 0)
(-0.0642756 0.0391623 0)
(-0.0566972 0.0453328 0)
(-0.00738786 -0.0426809 0)
(-0.0195977 -0.0453764 0)
(-0.0312264 -0.0533884 0)
(-0.0403984 -0.0624023 0)
(-0.0476039 -0.0710442 0)
(-0.0529625 -0.0778787 0)
(-0.057101 -0.0817072 0)
(-0.0604202 -0.0821761 0)
(-0.0631433 -0.0794067 0)
(-0.0655314 -0.0738011 0)
(-0.067773 -0.0660777 0)
(-0.0699208 -0.0569527 0)
(-0.0719497 -0.0470138 0)
(-0.0737634 -0.0367158 0)
(-0.0751835 -0.0263888 0)
(-0.0759965 -0.0162442 0)
(-0.0759724 -0.00642023 0)
(-0.0749319 0.00294478 0)
(-0.0727775 0.0116557 0)
(-0.0695032 0.0195389 0)
(-0.0651158 0.0264841 0)
(-0.0596245 0.0325014 0)
(-0.05355 0.037583 0)
(-0.00735933 -0.0296032 0)
(-0.0194659 -0.0331639 0)
(-0.0308431 -0.0431654 0)
(-0.0395665 -0.0543203 0)
(-0.0461428 -0.0650087 0)
(-0.0508661 -0.0733852 0)
(-0.0544888 -0.0781979 0)
(-0.05731 -0.0794186 0)
(-0.0594507 -0.077174 0)
(-0.061179 -0.0718365 0)
(-0.0626919 -0.0642413 0)
(-0.0640671 -0.0552 0)
(-0.0653383 -0.0453765 0)
(-0.0664933 -0.0353078 0)
(-0.0674481 -0.025375 0)
(-0.0680392 -0.0158357 0)
(-0.0680519 -0.00682336 0)
(-0.0672999 0.00159247 0)
(-0.0656729 0.00929508 0)
(-0.0631494 0.0161617 0)
(-0.0597144 0.0221051 0)
(-0.0553718 0.0271639 0)
(-0.0505646 0.0313623 0)
(-0.00729779 -0.0166637 0)
(-0.0192966 -0.0211579 0)
(-0.0304575 -0.0332659 0)
(-0.038745 -0.0467424 0)
(-0.0447285 -0.0596083 0)
(-0.0489499 -0.0694232 0)
(-0.0521657 -0.0750993 0)
(-0.0545155 -0.0771474 0)
(-0.0561607 -0.0755046 0)
(-0.0574037 -0.0704977 0)
(-0.0583755 -0.063105 0)
(-0.0591251 -0.0541968 0)
(-0.0597162 -0.0444542 0)
(-0.060228 -0.0344719 0)
(-0.0606781 -0.0247359 0)
(-0.0609822 -0.0155536 0)
(-0.0609664 -0.00709845 0)
(-0.0604271 0.000604813 0)
(-0.0592336 0.00751959 0)
(-0.0573434 0.0135726 0)
(-0.0547306 0.0187061 0)
(-0.0513803 0.0229738 0)
(-0.0476328 0.0264351 0)
(-0.00710773 -0.00377277 0)
(-0.018899 -0.00924245 0)
(-0.0298711 -0.0236585 0)
(-0.0377546 -0.0396764 0)
(-0.0433227 -0.0546806 0)
(-0.0472825 -0.0658426 0)
(-0.0500693 -0.0724735 0)
(-0.0518233 -0.0753944 0)
(-0.053005 -0.0742998 0)
(-0.0539271 -0.069603 0)
(-0.0545761 -0.0624692 0)
(-0.0549215 -0.0537879 0)
(-0.0549913 -0.0441837 0)
(-0.0549116 -0.0342396 0)
(-0.0548259 -0.0245276 0)
(-0.0547678 -0.0154797 0)
(-0.0546278 -0.00732878 0)
(-0.0542096 -0.000107258 0)
(-0.0533488 0.00622298 0)
(-0.0519745 0.0116476 0)
(-0.0500448 0.0161381 0)
(-0.0475308 0.0197575 0)
(-0.0446797 0.0225897 0)
(-0.00676923 0.00853467 0)
(-0.0181856 0.0024154 0)
(-0.0288665 -0.0143495 0)
(-0.0363396 -0.0330249 0)
(-0.0417281 -0.0499466 0)
(-0.0455417 -0.0625445 0)
(-0.0477323 -0.0705068 0)
(-0.0488113 -0.0742269 0)
(-0.0496395 -0.0734347 0)
(-0.0503948 -0.0689354 0)
(-0.0509294 -0.0620756 0)
(-0.051118 -0.0537264 0)
(-0.0509129 -0.0443972 0)
(-0.050401 -0.03456 0)
(-0.0498064 -0.0248074 0)
(-0.0493161 -0.0157088 0)
(-0.0489477 -0.00761934 0)
(-0.0485449 -0.000648259 0)
(-0.0479128 0.00529316 0)
(-0.0469378 0.0102612 0)
(-0.0455612 0.0142586 0)
(-0.0437414 0.0173583 0)
(-0.041617 0.0196554 0)
(-0.00629671 0.0202235 0)
(-0.0171285 0.0134311 0)
(-0.0272492 -0.005386 0)
(-0.0344036 -0.0266481 0)
(-0.0396995 -0.0452972 0)
(-0.0431158 -0.0596589 0)
(-0.0445542 -0.0692923 0)
(-0.0451242 -0.0735254 0)
(-0.0458007 -0.0727356 0)
(-0.0465492 -0.0683205 0)
(-0.0471503 -0.0617142 0)
(-0.0473962 -0.0537596 0)
(-0.04716 -0.0448462 0)
(-0.0464591 -0.0352874 0)
(-0.0454843 -0.0255564 0)
(-0.0445486 -0.0163087 0)
(-0.043856 -0.00807473 0)
(-0.0433514 -0.00112438 0)
(-0.0428352 0.00462289 0)
(-0.0421495 0.00929222 0)
(-0.0411995 0.0129348 0)
(-0.0399357 0.0156226 0)
(-0.0384144 0.0174753 0)
(-0.00559166 0.0310807 0)
(-0.0155903 0.0238309 0)
(-0.0249471 0.00296496 0)
(-0.0317484 -0.0204626 0)
(-0.0368552 -0.0408921 0)
(-0.0395259 -0.0574842 0)
(-0.040244 -0.0686854 0)
(-0.0406107 -0.0730367 0)
(-0.0413299 -0.0720441 0)
(-0.0422101 -0.067595 0)
(-0.043014 -0.0611993 0)
(-0.0434893 -0.0536692 0)
(-0.043439 -0.0452804 0)
(-0.042797 -0.0361878 0)
(-0.0416699 -0.0266672 0)
(-0.040373 -0.0173096 0)
(-0.0392882 -0.00880752 0)
(-0.0385593 -0.001654 0)
(-0.0380444 0.00410016 0)
(-0.0375411 0.00862478 0)
(-0.0369107 0.0120381 0)
(-0.0360796 0.0144194 0)
(-0.035021 0.0159036 0)
(-0.00464388 0.0406842 0)
(-0.0135416 0.0333086 0)
(-0.0219158 0.0105158 0)
(-0.028145 -0.0145387 0)
(-0.0328024 -0.0369738 0)
(-0.0344561 -0.0561485 0)
(-0.0347777 -0.0683976 0)
(-0.03522 -0.0725358 0)
(-0.0361435 -0.0712051 0)
(-0.0372844 -0.0666348 0)
(-0.0383888 -0.0603963 0)
(-0.0392075 -0.0532822 0)
(-0.0394975 -0.0454775 0)
(-0.0391333 -0.0370027 0)
(-0.03812 -0.0279445 0)
(-0.0366577 -0.0186716 0)
(-0.0351922 -0.00990201 0)
(-0.0341345 -0.00235821 0)
(-0.0334975 0.00360921 0)
(-0.0330685 0.00815387 0)
(-0.0326548 0.0114549 0)
(-0.032142 0.0136315 0)
(-0.031454 0.0148197 0)
(-0.00345063 0.0486327 0)
(-0.0109186 0.0415956 0)
(-0.018102 0.0172056 0)
(-0.0234663 -0.00923596 0)
(-0.0272394 -0.0338308 0)
(-0.0277922 -0.0554803 0)
(-0.0281975 -0.0680973 0)
(-0.0289386 -0.0717988 0)
(-0.0302444 -0.0700499 0)
(-0.0317814 -0.0653286 0)
(-0.0332532 -0.0592197 0)
(-0.0344639 -0.0524959 0)
(-0.0351714 -0.0452863 0)
(-0.0352254 -0.0375139 0)
(-0.0345454 -0.0291128 0)
(-0.0331952 -0.0202129 0)
(-0.0315112 -0.0113466 0)
(-0.0300706 -0.0033478 0)
(-0.0291768 0.00303483 0)
(-0.0287131 0.00778015 0)
(-0.0284263 0.0110899 0)
(-0.0281415 0.0131498 0)
(-0.0277167 0.0141099 0)
(-0.00209875 0.0545701 0)
(-0.00787856 0.048426 0)
(-0.0137465 0.0227799 0)
(-0.0179036 -0.00497792 0)
(-0.0202924 -0.0317564 0)
(-0.0199147 -0.0550607 0)
(-0.0206796 -0.0674096 0)
(-0.0219316 -0.0705669 0)
(-0.0238049 -0.0684024 0)
(-0.02585 -0.0635791 0)