/*--------------------------------*- C++ -*----------------------------------*\
| =========                 |                                                 |
| \\      /  F ield         | OpenFOAM: The Open Source CFD Toolbox           |
|  \\    /   O peration     | Version:  2312                                  |
|   \\  /    A nd           | Website:  www.openfoam.com                      |
|    \\/     M anipulation  |                                                 |
\*---------------------------------------------------------------------------*/
FoamFile
{
    version     2.0;
    format      ascii;
    arch        "LSB;label=32;scalar=64";
    class       volScalarField;
    location    "2";
    object      alpha.water;
}
// * * * * * * * * * * * * * * * * * * * * * * * * * * * * * * * * * * * * * //

dimensions      [0 0 0 0 0 0 0];

internalField   nonuniform List<scalar> 
2268
(
7.59436e-10
4.28726e-10
1.37886e-10
5.20953e-11
3.36877e-11
2.87848e-11
2.71566e-11
2.6525e-11
2.67927e-11
2.77155e-11
2.93545e-11
3.24916e-11
3.75849e-11
4.44916e-11
5.51887e-11
7.42203e-11
1.06752e-10
1.65743e-10
2.64623e-10
4.40541e-10
7.19544e-10
9.41879e-10
1.1143e-09
9.10989e-10
6.01775e-10
2.24709e-10
9.73171e-11
6.30196e-11
4.59956e-11
4.09684e-11
4.0429e-11
4.13397e-11
4.18416e-11
4.22895e-11
4.85542e-11
6.096e-11
7.06507e-11
9.235e-11
1.44561e-10
2.26672e-10
3.87036e-10
7.0891e-10
1.24374e-09
1.96158e-09
2.25898e-09
2.31286e-09
7.6187e-10
6.01949e-10
2.73974e-10
1.33056e-10
8.89395e-11
7.51211e-11
6.54723e-11
5.89975e-11
5.26125e-11
4.57552e-11
4.29806e-11
4.39668e-11
6.39857e-11
9.50724e-11
1.05191e-10
1.61043e-10
2.87582e-10
4.39738e-10
6.7108e-10
1.01412e-09
1.37422e-09
2.38383e-09
2.53336e-09
1.9218e-10
2.63808e-10
1.56957e-10
1.00208e-10
8.11681e-11
8.97668e-11
8.9676e-11
6.75866e-11
3.2394e-11
2.3255e-11
1.95514e-11
2.12197e-11
5.26117e-11
1.5747e-10
1.48348e-09
1.59997e-09
2.91529e-09
1.00636e-10
1.00796e-10
1.00636e-10
1.00796e-10
1.82e-09
2.53734e-09
2.1011e-11
2.14113e-11
2.11893e-11
2.07125e-11
2.6277e-11
2.67837e-11
2.21102e-11
5.47682e-12
6.56938e-12
5.3286e-12
6.56938e-12
5.3286e-12
6.56938e-12
2.10017e-09
5.08774e-05
0.000247634
0.00095793
0.0028625
0.0071547
0.0124547
0.026465
0.037698
0.0460087
0.0176863
6.39269e-23
4.56371e-23
4.3084e-23
6.86523e-24
4.54046e-23
1.9374e-20
7.51419e-06
0.0153653
0.081192
0.182498
0.283087
0.355722
0.39734
0.416419
0.43365
0.462326
0.4983
0.541049
0.596963
0.663463
0.720664
0.712615
0.135421
0.0877248
0.103354
0.0922886
0.0892191
0.105878
0.184995
0.376011
0.629993
0.814688
0.919974
0.975806
0.999311
0.999311
0.999311
0.999311
0.99919
0.998703
0.997965
0.99697
0.98879
0.988222
0.988202
0.563941
0.803985
0.80901
0.7934
0.799111
0.837888
0.920348
0.987902
0.998832
0.999049
0.9992
0.999283
0.999311
0.999311
0.999311
0.999311
0.999311
0.99931
0.998644
0.996116
0.996115
0.98873
0.946495
0.0722871
0.0321111
0.0321736
0.0372815
0.0279092
0.0270592
0.0270588
0.0274143
0.0245401
0.0233955
0.0233921
0.0257711
0.0267836
0.0267755
0.025423
0.025423
0.0231879
0.0141677
0.0111482
0.0751865
0.0296409
0.0487068
0.068096
0.0597751
0.0274656
0.0458879
0.0980546
0.223308
0.185947
0.0121833
0.0101475
0.0103295
0.00962617
0.0273724
0.036194
0.0160996
0.0129415
0.0129411
0.0514461
0.01922
0.0191853
0.0584584
0.114054
0.177338
0.227919
0.198321
0.28941
0.333389
0.332043
0.158589
0.0103453
0.0085422
0.00854214
0.0601116
0.235627
0.379948
0.323531
0.0519495
0.0973076
0.451545
0.571544
0.533609
0.599925
0.65662
0.624313
0.508416
0.33367
0.356554
0.356509
0.0532011
0.00854574
0.077454
0.279076
0.731008
0.865723
0.530085
0.472661
0.713989
0.710472
0.595145
0.697347
0.742429
0.749062
0.749061
0.704336
0.303045
0.265922
0.323988
0.0526299
0.147421
0.589661
0.849488
0.905754
0.905832
0.712903
0.724381
0.721438
0.383743
0.377829
0.590296
0.637808
0.544204
0.458262
0.223381
0.130228
0.123954
0.135016
0.268027
0.666772
0.90415
0.904135
0.903564
0.901352
0.898725
0.695727
0.435589
0.352905
0.511512
0.543915
0.252378
0.139335
0.13505
0.124147
0.123968
0.123933
0.123946
0.447434
0.904164
0.904149
0.887813
0.858467
0.849395
0.900214
0.363053
0.55516
0.868653
0.700647
0.349191
0.37429
0.625248
0.504198
0.32741
0.123902
0.123923
0.123928
0.576683
0.89502
0.745741
0.660288
0.704586
0.739136
0.900167
0.558192
0.991362
0.992347
0.99253
0.992615
0.99264
0.992507
0.983177
0.976711
0.968946
0.963442
0.968905
0.974667
0.991381
0.999135
0.996477
0.993161
0.994496
0.998695
0.996325
0.988439
0.969063
0.597607
0.130376
0.605573
0.804768
0.792445
0.686662
0.602336
0.502987
0.392221
0.384186
0.350948
0.340783
0.394297
0.530065
0.613857
0.632906
0.642558
0.732418
0.854931
0.935931
0.976021
0.971101
0.940475
0.536217
0.0321701
0.0301328
0.0900447
0.0924147
0.052497
0.0144768
1.37174e-05
2.46223e-24
-1.35843e-25
1.7062e-07
1.02233e-05
2.71589e-07
1.96982e-05
0.0101625
0.0379777
0.0507672
0.0902048
0.206187
0.348342
0.507198
0.766884
0.795228
0.654509
6.77503e-06
6.71864e-06
6.77434e-06
0.000693466
0.000693038
3.00064e-08
-5.60662e-26
-4.5346e-32
-6.50542e-26
0.000253051
0.000522712
0.000435326
0.000192575
-2.09681e-09
-2.89562e-15
-2.84776e-06
0.000153419
2.52338e-06
2.24925e-05
0.0285142
0.27818
0.441673
0.566914
2.70437e-05
6.77563e-06
6.75366e-06
0.000365779
0.000319754
4.67069e-05
2.18988e-08
5.70872e-14
2.02888e-24
0.000283887
0.00344909
0.00425347
0.00396865
0.00318475
0.0026598
0.00175909
0.000470988
1.91443e-06
0.000997962
0.00357991
0.000358261
0.0191999
0.061311
4.23381e-05
9.97955e-06
1.97644e-05
3.07676e-05
2.88353e-05
3.26801e-05
1.83617e-05
2.08716e-05
3.42528e-06
0.000168745
0.00144255
0.00393685
0.00464477
0.00146197
0.000676975
0.00087284
0.000313348
0.000113216
0.000861691
0.00114803
0.000334732
0.00132639
0.0170438
4.23381e-05
2.46076e-05
2.44543e-05
1.59729e-05
1.8596e-05
2.66181e-05
7.67354e-05
0.00071292
0.00178649
0.011466
0.0191102
0.0219176
0.0112954
4.60006e-07
4.81553e-07
1.08856e-06
1.49411e-05
2.92293e-05
0.000409762
0.000511505
0.0003327
0.00316828
0.00629302
4.23381e-05
2.29396e-05
1.73875e-05
1.08384e-05
6.04255e-06
1.21316e-05
2.65341e-06
0.00228539
0.0364244
0.0434548
0.0434551
0.0434509
0.034795
0.000606781
4.70155e-07
4.69911e-07
4.73668e-07
0.000190605
0.0013463
0.00230972
0.00335338
0.00527405
0.00461171
4.16927e-05
3.50369e-06
2.05364e-07
2.03815e-07
4.33245e-07
2.44056e-06
1.10251e-06
0.000407129
0.0272785
0.0434551
0.0434546
0.041613
0.00770893
4.6998e-07
4.70093e-07
1.49261e-05
0.0009731
0.00229202
0.00268275
0.00408785
0.00498354
0.00485105
0.000544451
3.53522e-05
7.27368e-06
2.03113e-07
2.03108e-07
2.14361e-07
7.02437e-07
1.11011e-06
2.74039e-05
0.00676832
0.0149884
0.0108347
0.000502861
4.06055e-07
8.87149e-07
4.72574e-07
0.000366759
0.00284403
0.00301806
0.00301891
0.00210512
0.00159399
0.00102925
0.000548812
1.89923e-06
3.79421e-07
2.34504e-07
2.79005e-07
6.06728e-07
9.04808e-07
3.16312e-06
2.81382e-06
3.90665e-07
2.37708e-07
2.36427e-07
2.38497e-07
3.95882e-07
1.64375e-05
3.13585e-05
4.69211e-05
1.30835e-05
5.96221e-06
4.51629e-06
4.94242e-06
0.000220248
0.00379773
0.0110285
2.0963e-08
2.14957e-08
1.34057e-07
4.90828e-07
1.54013e-06
1.87432e-06
3.68312e-06
6.54312e-06
6.03031e-06
2.27181e-06
3.55801e-07
2.4044e-07
2.76253e-07
4.73022e-06
0.000126366
0.000157008
0.000143067
6.63651e-05
3.0217e-05
2.57005e-05
0.00017178
0.00039433
0.000273337
2.0963e-08
2.0963e-08
2.85101e-08
3.4206e-07
1.99426e-06
1.98887e-06
2.016e-06
5.06336e-06
7.55251e-06
7.65325e-06
2.72426e-06
4.07257e-07
3.56343e-07
7.12339e-07
8.46381e-07
0.000118087
0.00027689
0.000279044
0.000142704
4.89636e-05
3.36287e-05
1.71378e-10
2.65761e-08
4.69047e-08
2.18707e-08
2.19585e-08
1.56682e-07
1.63744e-06
1.99426e-06
4.25151e-08
1.13713e-06
6.14029e-06
6.84962e-06
3.04581e-06
3.31961e-07
6.53805e-07
1.07891e-06
1.05743e-06
3.39099e-07
1.64202e-05
0.000275675
0.000317171
0.000316854
0.00010959
1.27746e-09
1.31174e-09
1.91006e-07
2.95976e-08
2.39116e-08
2.10286e-07
3.92255e-07
5.39326e-07
1.54463e-09
8.55875e-10
4.81082e-07
1.29461e-06
6.67278e-07
3.56851e-08
6.41302e-07
1.08856e-06
1.08633e-06
3.48267e-07
1.42361e-07
1.74039e-07
0.000205262
0.000286039
0.00023568
2.13719e-05
6.03966e-08
1.9564e-07
2.15141e-08
3.61357e-08
1.25654e-07
1.26788e-07
1.21302e-10
1.2133e-10
2.51184e-10
1.20735e-10
1.20775e-10
1.33197e-10
1.00657e-08
2.12763e-07
6.65996e-07
4.59192e-07
5.79608e-08
1.84259e-07
8.22231e-07
1.02151e-07
8.11078e-08
1.7521e-09
8.1196e-06
1.23949e-06
1.95715e-07
6.67021e-09
3.4858e-08
8.19528e-08
2.97291e-08
1.2133e-10
1.30903e-10
3.95812e-10
1.48621e-10
1.20723e-10
1.20771e-10
3.34452e-08
5.49024e-08
5.84424e-08
1.41895e-08
8.03393e-11
2.00123e-07
3.42897e-07
8.89601e-08
1.00491e-08
1.87856e-09
9.64579e-10
3.76188e-10
1.36251e-07
2.63234e-10
1.48866e-08
2.56756e-08
1.32351e-10
1.31919e-10
1.45454e-10
3.01047e-10
1.77781e-10
1.48606e-10
1.44778e-10
8.91816e-09
8.0942e-11
8.11507e-11
8.03976e-11
8.10233e-11
5.738e-08
3.94188e-08
1.1e-08
7.52891e-09
8.15807e-09
7.58875e-09
4.48556e-09
7.17163e-08
2.63625e-10
4.03521e-10
1.50213e-10
1.48412e-10
1.59558e-10
1.54349e-10
1.94758e-10
1.59136e-10
1.59389e-10
1.92085e-10
1.01294e-10
1.00298e-10
1.22124e-10
1.81782e-10
2.93932e-10
2.97294e-10
3.00584e-10
4.46181e-09
8.5165e-09
8.63989e-09
7.30841e-09
3.10975e-09
9.85937e-08
2.63167e-10
4.0004e-10
3.10982e-10
2.3268e-10
1.91438e-10
1.52019e-10
1.42967e-10
1.2977e-10
1.33434e-10
1.48668e-10
1.30979e-10
1.49219e-10
2.06077e-10
2.69443e-10
3.36731e-10
4.22432e-10
1.30807e-09
3.9057e-09
5.21456e-09
4.38019e-09
2.34581e-09
1.32534e-09
1.82882e-07
2.67796e-10
5.40908e-10
4.598e-10
2.85563e-10
1.98178e-10
1.47113e-10
1.19873e-10
1.03512e-10
9.73553e-11
9.9881e-11
1.03005e-10
1.26259e-10
1.73542e-10
2.18167e-10
2.55603e-10
3.86248e-10
9.28781e-10
1.47926e-09
1.39534e-09
9.07133e-10
5.2882e-10
3.6927e-10
1.85326e-07
3.97535e-10
6.36098e-10
5.2491e-10
3.02895e-10
2.07558e-10
1.52709e-10
1.15081e-10
8.96555e-11
7.25554e-11
6.46103e-11
6.54234e-11
7.90136e-11
1.03794e-10
1.27967e-10
1.51574e-10
2.26849e-10
3.67377e-10
3.86772e-10
3.18602e-10
2.20385e-10
1.46606e-10
1.08868e-10
1.86855e-07
6.84287e-10
7.99055e-10
5.75577e-10
3.36268e-10
2.41662e-10
1.82509e-10
1.28685e-10
9.30939e-11
6.46062e-11
4.6908e-11
3.97637e-11
4.13985e-11
4.85992e-11
5.77007e-11
6.92067e-11
9.54109e-11
1.11571e-10
1.00965e-10
7.5717e-11
5.70964e-11
4.21425e-11
3.56472e-11
1.85939e-07
8.09725e-10
9.59161e-10
6.55582e-10
3.70151e-10
3.18055e-10
2.49344e-10
1.61321e-10
1.1369e-10
7.1146e-11
4.34522e-11
2.89162e-11
2.25839e-11
2.09723e-11
2.18521e-11
2.47107e-11
2.99508e-11
2.94194e-11
2.36925e-11
1.71433e-11
1.3527e-11
9.97879e-12
1.02617e-11
1.45457e-07
7.58015e-10
1.16582e-09
8.34343e-10
5.09149e-10
4.26175e-10
3.64088e-10
2.13544e-10
1.50092e-10
8.88732e-11
4.87645e-11
2.69842e-11
1.62403e-11
1.10039e-11
8.67333e-12
7.95583e-12
7.6487e-12
6.6826e-12
4.90532e-12
3.54714e-12
2.74159e-12
2.24737e-12
2.53222e-12
1.72563e-08
7.52055e-10
1.29319e-09
9.83632e-10
8.09327e-10
7.49895e-10
5.28958e-10
2.93728e-10
2.08206e-10
1.19925e-10
5.9472e-11
2.89338e-11
1.49728e-11
8.21236e-12
4.81285e-12
3.15178e-12
2.32956e-12
1.54768e-12
9.01574e-13
6.17216e-13
4.8392e-13
4.62561e-13
6.0114e-13
6.19622e-09
5.86387e-10
1.32463e-09
1.15905e-09
1.25437e-09
1.45673e-09
7.9639e-10
4.06494e-10
2.90622e-10
1.65039e-10
7.88352e-11
3.5982e-11
1.58886e-11
7.53287e-12
3.75419e-12
1.93274e-12
1.03489e-12
5.71747e-13
2.87521e-13
1.23486e-13
8.43257e-14
7.9066e-14
1.0583e-13
5.46632e-10
5.47142e-10
1.06301e-09
1.34562e-09
1.78531e-09
1.78676e-09
1.16234e-09
5.64375e-10
4.0421e-10
2.41708e-10
1.11222e-10
4.62801e-11
1.91123e-11
7.89435e-12
3.35099e-12
1.51994e-12
6.9696e-13
3.18235e-13
1.43751e-13
6.59969e-14
1.8733e-14
1.29586e-14
1.82052e-14
2.41346e-07
7.6668e-09
6.36857e-10
1.29988e-09
1.82603e-09
1.81915e-09
1.42199e-09
7.86781e-10
5.64713e-10
3.47715e-10
1.69844e-10
6.96177e-11
2.60211e-11
9.42953e-12
3.49426e-12
1.33082e-12
5.43236e-13
2.2211e-13
8.96006e-14
3.68688e-14
1.05257e-14
3.80914e-15
2.86237e-15
1.35813e-06
2.37286e-08
6.38682e-10
1.0995e-09
1.46217e-09
1.25396e-09
1.52041e-09
1.12763e-09
7.98321e-10
5.18537e-10
2.7004e-10
1.14796e-10
4.36164e-11
1.43354e-11
4.57751e-12
1.42946e-12
4.80591e-13
1.70713e-13
6.05976e-14
2.16964e-14
6.27185e-15
2.30711e-15
5.49862e-16
1.37133e-06
1.98625e-08
7.69333e-09
8.40335e-10
6.99912e-10
4.46335e-10
1.55991e-09
1.63508e-09
1.14455e-09
7.6984e-10
4.47348e-10
2.08059e-10
8.07504e-11
2.88505e-11
8.82243e-12
2.57524e-12
6.24498e-13
1.77015e-13
5.11967e-14
1.49892e-14
2.94623e-15
1.09298e-15
1.41228e-16
1.37134e-06
5.26911e-07
7.18696e-08
4.40386e-10
4.3897e-10
4.40378e-10
7.20443e-09
3.04626e-09
1.59317e-09
1.14915e-09
6.51232e-10
3.37803e-10
1.5495e-10
5.98909e-11
1.95801e-11
5.6426e-12
1.1737e-12
3.09345e-13
7.01677e-14
1.4867e-14
2.4936e-15
6.31532e-16
9.618e-17
1.37134e-06
1.37134e-06
9.68716e-08
5.20447e-08
1.89843e-09
1.06009e-07
4.69439e-08
1.94753e-09
1.9576e-09
1.80145e-09
1.0156e-09
5.10726e-10
2.39757e-10
9.84031e-11
3.41467e-11
1.04777e-11
2.72009e-12
6.01181e-13
1.2123e-13
2.25066e-14
3.75517e-15
3.58836e-16
6.58201e-17
7.32201e-07
8.28527e-07
1.17195e-07
6.34808e-07
1.97166e-06
1.09151e-06
2.03498e-08
1.94539e-09
3.65156e-09
4.09004e-09
1.74725e-09
6.99393e-10
3.15608e-10
1.33296e-10
4.83295e-11
1.51863e-11
3.97098e-12
9.28734e-13
1.8268e-13
3.23281e-14
3.32796e-15
4.65724e-16
6.32698e-17
2.10912e-07
4.97576e-07
1.12734e-06
3.26642e-06
3.15827e-06
1.5388e-06
9.51503e-08
3.87531e-09
8.35989e-09
6.2328e-09
1.70153e-09
7.31479e-10
3.49997e-10
1.52126e-10
5.73582e-11
1.80201e-11
4.90315e-12
1.16521e-12
2.39466e-13
4.0163e-14
6.17053e-15
3.69615e-16
6.10826e-17
1.96317e-07
1.96961e-07
2.88915e-06
3.31872e-06
3.31838e-06
8.3641e-07
9.66686e-08
7.35328e-09
1.02132e-08
5.48106e-09
1.34744e-09
6.79477e-10
3.39713e-10
1.49562e-10
5.83097e-11
1.91352e-11
5.21439e-12
1.18402e-12
2.26315e-13
3.67458e-14
5.17418e-15
5.17136e-16
2.34089e-17
8.97117e-07
3.21999e-07
1.0339e-06
2.33901e-06
1.04716e-06
6.59135e-08
3.71101e-08
1.37058e-08
8.88258e-09
2.37994e-09
1.07596e-09
5.77622e-10
2.82856e-10
1.228e-10
4.5807e-11
1.41957e-11
3.6311e-12
7.70591e-13
1.37362e-13
2.00736e-14
2.69868e-15
1.19481e-16
1.40563e-17
1.18684e-06
3.37927e-07
1.1023e-08
1.23659e-07
5.02034e-08
2.22485e-08
1.00751e-08
1.00895e-08
4.07871e-09
1.53304e-09
8.04634e-10
4.32366e-10
1.95876e-10
7.92385e-11
2.67252e-11
7.41636e-12
1.70483e-12
3.2895e-13
5.18834e-14
6.98565e-15
8.041e-16
6.56764e-17
3.82317e-18
1.18684e-06
3.51807e-07
8.87771e-09
9.09606e-09
9.13746e-09
1.05558e-08
9.96352e-09
5.50412e-09
2.08214e-09
1.07158e-09
6.1456e-10
2.98286e-10
1.11616e-10
3.70592e-11
1.06722e-11
2.58848e-12
5.27171e-13
9.04921e-14
1.31189e-14
1.49715e-15
1.38338e-16
1.10762e-17
7.50581e-19
1.13906e-06
1.03245e-06
1.25695e-07
6.13915e-08
1.11589e-07
9.59635e-08
1.17379e-08
1.89472e-09
1.20482e-09
7.84223e-10
3.94741e-10
1.42132e-10
4.65621e-11
1.29978e-11
3.05676e-12
6.1528e-13
1.06929e-13
1.59689e-14
1.99217e-15
2.08635e-16
1.55745e-17
1.1341e-18
6.67653e-20
1.33802e-07
7.4904e-07
8.51538e-07
8.39003e-07
8.54468e-07
3.76104e-07
1.05005e-09
1.01044e-09
7.91307e-10
4.50661e-10
1.81967e-10
5.73093e-11
1.50645e-11
3.30871e-12
6.21904e-13
1.02756e-13
1.50951e-14
1.94532e-15
2.12843e-16
1.95293e-17
1.43846e-18
7.844e-20
3.52603e-21
1.65187e-08
1.94269e-07
5.94667e-07
7.55684e-07
5.67764e-07
1.79673e-07
1.03204e-09
7.4202e-10
4.68082e-10
2.15935e-10
6.98211e-11
1.7496e-11
3.55555e-12
6.0762e-13
9.12442e-14
1.23827e-14
1.52683e-15
1.66902e-16
1.56283e-17
1.26218e-18
8.01089e-20
3.57692e-21
1.06283e-22
0.302499
0.302916
0.309722
0.475534
0.334336
0.439176
0.969517
0.997336
0.947026
0.99316
0.994833
0.997297
0.993814
0.99374
0.991163
0.963777
0.465793
0.74231
0.755135
0.597726
0.0245626
0.0313929
0.0197342
0.00334449
0.00314911
0.000466717
0.000483932
0.000583905
0.000466532
0.000465229
0.000467833
0.000471552
0.00046494
0.000497025
0.000576332
0.000645112
0.000466914
0.000529518
0.00594708
0.0109923
0.0110115
0.011011
0.0106614
0.00834207
8.31736e-06
1.23383e-10
6.01741e-11
3.68296e-11
7.35265e-07
8.02714e-06
1.08284e-05
7.18913e-06
1.46078e-05
3.46784e-05
3.81421e-05
3.8e-05
1.65271e-17
-2.32651e-10
-6.85459e-11
-1.10529e-11
6.67161e-08
5.69006e-08
1.65364e-08
4.31951e-09
3.80972e-10
3.72343e-10
4.22813e-10
4.46799e-10
1.96509e-09
1.57564e-09
1.22458e-09
1.08956e-09
2.05334e-09
1.51422e-09
1.3539e-09
1.10324e-09
8.70089e-10
6.40626e-10
5.50977e-10
4.70264e-10
2.93669e-10
2.51542e-10
2.07801e-10
2.21882e-10
9.57698e-11
9.41755e-11
1.04793e-10
1.33714e-10
3.5609e-11
3.9833e-11
4.84952e-11
6.3532e-11
1.1687e-11
1.3115e-11
1.73128e-11
2.23244e-11
2.97813e-12
3.86613e-12
5.04701e-12
6.56055e-12
7.79991e-13
8.89316e-13
1.24239e-12
1.70416e-12
1.40724e-13
1.98407e-13
2.72778e-13
4.09289e-13
2.57189e-14
3.06426e-14
4.68416e-14
7.46555e-14
3.55441e-15
4.66832e-15
6.89994e-15
1.23648e-14
5.10135e-16
5.68906e-16
8.10859e-16
1.69561e-15
6.12964e-17
6.82149e-17
1.06546e-16
1.83373e-16
2.86214e-18
6.08694e-18
8.51129e-18
1.87981e-17
7.09721e-22
2.08637e-19
7.07883e-19
1.50319e-18
8.54108e-30
1.404e-20
4.3184e-20
1.4119e-19
7.08164e-22
7.05422e-22
3.68616e-21
1.11716e-20
1.75382e-18
5.02359e-21
3.44841e-22
1.09084e-21
1.18593e-18
4.79912e-21
9.99492e-23
1.13832e-22
4.57925e-19
4.12582e-21
4.77103e-24
1.11017e-23
6.54566e-20
4.79769e-22
4.54122e-25
9.46675e-25
4.14029e-21
1.07136e-23
2.93269e-26
8.49131e-26
7.52587e-23
1.94586e-26
3.2687e-27
8.29263e-27
3.71453e-25
6.17955e-28
3.48426e-28
6.98288e-28
0.876682
0.979371
0.874107
0.506891
0.503797
0.923899
0.999954
0.999955
0.958106
0.805825
0.653879
0.671819
0.812196
0.578613
0.507925
0.5378
0.686546
0.82574
0.897348
0.997249
0.991624
0.956223
0.951461
0.984186
0.999216
0.999104
0.999955
0.999958
0.999958
0.998241
0.995732
0.933136
0.522455
0.495515
0.601393
0.592186
0.825209
0.784491
0.997067
0.995761
0.998389
0.99966
0.999666
0.99966
0.998895
0.998887
0.999305
0.997545
0.996749
0.996401
0.937728
0.631807
0.47747
0.510165
0.494169
0.77003
0.410542
0.942942
0.940718
0.970218
0.986126
0.987003
0.954124
0.934271
0.950287
0.978722
0.951218
0.787018
0.66939
0.598444
0.520708
0.450661
0.260809
0.494187
0.550385
0.326295
0.430581
0.33454
0.336051
0.406979
0.430586
0.416433
0.459292
0.634127
0.768642
0.826318
0.557488
0.325883
0.315249
0.315126
0.330894
0.217841
0.526042
0.549771
0.32545
0.000130581
0.000130718
0.000125129
6.72737e-09
5.34753e-11
-8.12484e-14
-3.59284e-15
-2.86072e-19
0.0787089
0.227494
0.368413
0.393603
0.38925
0.181531
0.0756836
0.19808
0.461653
0.460365
0.325654
0.000572924
0.00101056
0.00156191
0.000757634
0.000146531
-3.94925e-13
1.1522e-11
5.8982e-11
1.38928e-21
1.71853e-21
1.47149e-21
3.80853e-05
-8.9677e-13
1.6173e-06
0.0285869
0.0755711
0.0485565
0.192207
0.326505
0.00100937
0.00188889
0.00544565
0.00665069
0.00174808
9.59488e-19
3.9288e-09
5.77912e-09
2.23852e-09
5.86677e-07
9.69424e-05
0.000523333
0.00854198
0.0189014
0.0148403
1.99727e-08
2.00008e-08
1.99727e-08
0.230869
0.00116851
0.00776441
0.0108168
0.0103081
0.00190948
9.58313e-10
2.20272e-05
0.00014225
0.000175789
0.000157535
0.0011646
0.0028456
0.00265862
0.00112766
4.69991e-07
4.9362e-07
8.95255e-06
0.000186716
2.32415e-09
0.0109978
0.0109923
0.00871902
0.000599733
2.53305e-06
1.33751e-05
0.000117108
0.000426327
0.000439359
0.00041656
6.85593e-05
9.55956e-06
8.12375e-06
7.58071e-06
9.26706e-06
3.80885e-06
4.60686e-07
5.7972e-09
2.31722e-09
0.00590915
0.00262722
2.53637e-07
1.55743e-09
2.45388e-06
3.90939e-05
0.000391478
0.000420627
0.000397549
7.0358e-05
7.58257e-05
9.92035e-05
0.000132491
0.000131519
4.42625e-05
9.58524e-06
1.2484e-06
1.3795e-08
2.57782e-09
7.6722e-12
5.94077e-13
-4.02878e-16
-4.08411e-15
2.2671e-12
9.16442e-06
0.000104062
0.000159866
4.6331e-05
1.34725e-05
4.22677e-05
0.00018156
0.000192607
0.000212042
0.000121283
2.97894e-05
2.68574e-06
2.10359e-09
2.87627e-09
3.095e-06
8.15726e-07
1.43939e-23
2.43564e-24
2.23315e-16
1.13388e-09
1.71855e-10
-2.31978e-15
1.78495e-16
-1.52038e-16
-1.41722e-11
1.68951e-05
5.76224e-05
0.000152454
6.05091e-05
2.82856e-05
2.43806e-06
2.091e-09
3.40246e-09
2.146e-05
1.67953e-05
2.29359e-05
1.65552e-05
1.09443e-05
6.71733e-06
2.11051e-06
1.70937e-09
1.33212e-09
1.05075e-09
2.42701e-09
2.87763e-10
4.09341e-09
1.33884e-10
2.06632e-10
1.36734e-10
1.60877e-06
1.28376e-07
8.77321e-09
1.17024e-06
1.19016e-05
5.852e-05
7.30777e-05
7.30679e-05
7.26253e-05
6.08791e-05
3.22385e-05
3.07231e-06
1.05488e-09
2.66394e-09
3.15845e-09
1.71591e-07
3.14907e-06
2.32639e-06
1.57045e-07
3.4137e-08
8.02006e-08
1.24477e-08
3.34315e-10
3.41067e-10
1.74781e-08
2.51964e-05
6.78881e-05
7.84641e-05
7.84606e-05
7.09773e-05
3.94122e-05
5.75592e-07
1.97152e-09
1.96584e-09
1.15322e-05
2.29321e-05
1.50367e-05
6.76519e-07
6.55193e-08
1.52172e-08
4.94339e-09
5.24035e-10
7.08581e-10
7.96563e-10
6.7584e-10
4.62529e-09
2.55828e-05
7.61813e-05
6.87666e-05
4.38548e-05
5.34192e-06
1.99049e-09
1.97126e-09
1.95948e-05
2.29323e-05
2.24823e-05
1.49184e-06
6.24386e-08
4.3558e-09
3.31009e-10
1.22487e-09
1.79549e-09
1.6296e-09
1.11368e-09
6.28131e-10
1.19885e-08
3.67494e-06
7.03817e-06
5.56159e-06
2.96265e-06
3.81248e-07
3.42061e-09
1.39376e-05
2.28537e-05
5.47551e-06
8.95554e-08
2.57031e-08
2.53671e-09
4.78456e-11
1.3245e-09
2.06282e-09
2.41496e-09
2.16889e-09
8.20805e-10
4.66083e-10
1.86193e-09
1.01202e-09
3.2005e-10
7.50953e-08
3.02045e-07
4.70437e-07
7.82481e-07
1.69961e-06
5.9992e-08
3.43109e-08
1.14475e-08
1.05402e-09
4.11286e-11
9.31903e-10
1.6158e-09
2.09041e-09
1.98421e-09
1.26505e-09
6.47236e-10
3.10038e-10
2.0386e-10
2.03702e-10
1.16714e-07
6.1788e-07
7.05556e-07
5.62964e-08
9.90973e-09
3.38908e-09
1.25982e-09
8.1106e-10
4.84343e-10
2.41309e-11
5.61622e-10
9.88861e-10
1.20421e-09
1.21288e-09
9.9954e-10
6.9853e-10
3.05135e-10
2.07785e-10
2.03824e-10
2.15768e-07
6.15628e-07
2.05955e-07
2.4601e-08
2.61193e-09
1.85341e-10
1.27498e-10
5.74496e-11
5.84997e-11
9.04719e-12
2.82549e-10
4.03286e-10
4.66048e-10
5.21067e-10
5.33895e-10
4.25903e-10
2.6696e-10
7.12921e-10
9.90782e-09
4.55685e-08
1.49898e-07
3.55091e-08
9.66131e-09
1.71281e-09
2.98212e-10
1.14537e-10
5.87347e-11
2.92585e-11
5.06227e-12
1.19397e-10
1.59901e-10
1.82179e-10
1.94389e-10
2.05896e-10
1.8804e-10
2.36309e-10
2.12067e-09
1.05856e-08
1.80036e-10
1.49313e-11
1.38356e-11
9.31354e-11
1.1978e-10
1.14516e-10
9.79952e-11
7.25981e-11
2.37919e-11
2.97641e-12
4.12965e-11
5.708e-11
6.74332e-11
7.51388e-11
8.43309e-11
8.60744e-11
2.67404e-10
6.50129e-10
1.36139e-09
4.37552e-10
1.09942e-10
9.20747e-11
9.75473e-11
9.32629e-11
8.34845e-11
7.03574e-11
3.91345e-11
1.34876e-11
2.11343e-12
1.30827e-11
1.96098e-11
2.40732e-11
2.88351e-11
3.40271e-11
4.27644e-11
4.14097e-11
3.23148e-11
3.0567e-11
3.92867e-11
5.25508e-11
5.82447e-11
5.78627e-11
5.10913e-11
4.90076e-11
4.16454e-11
2.25907e-11
9.01591e-12
1.46608e-12
3.85974e-12
6.01489e-12
7.9625e-12
1.00487e-11
1.25734e-11
1.68105e-11
1.88197e-11
1.89469e-11
2.14147e-11
2.43073e-11
2.56132e-11
2.51696e-11
2.46518e-11
2.56633e-11
2.46586e-11
2.3905e-11
1.1939e-11
3.54232e-12
1.0141e-12
1.00444e-12
1.69767e-12
2.56006e-12
3.38348e-12
4.81261e-12
5.74234e-12
7.41099e-12
8.7389e-12
9.72507e-12
1.03478e-11
1.04576e-11
1.0482e-11
1.07407e-11
6.59882e-12
6.273e-12
7.50224e-12
4.45755e-12
1.6753e-12
8.19863e-13
1.98726e-13
3.86903e-13
6.59615e-13
1.01149e-12
1.38352e-12
2.0408e-12
2.56771e-12
2.91714e-12
3.24904e-12
3.46818e-12
3.70374e-12
3.51187e-12
1.73312e-12
1.23355e-12
1.47799e-12
1.81772e-12
1.63087e-12
9.23631e-13
7.56257e-13
3.74142e-14
7.49845e-14
1.40584e-13
2.43892e-13
3.92193e-13
5.46566e-13
7.39142e-13
8.98049e-13
9.58537e-13
9.17336e-13
5.1695e-13
2.84279e-13
1.58426e-13
1.84307e-13
3.05467e-13
4.47372e-13
5.26217e-13
7.5342e-13
6.64716e-13
5.09128e-15
1.17406e-14
2.38131e-14
4.457e-14
7.71173e-14
1.23586e-13
1.63667e-13
1.89836e-13
1.45955e-13
5.34582e-14
2.33356e-14
1.42023e-14
2.05505e-14
3.99089e-14
8.7561e-14
1.77025e-13
3.39952e-13
6.76837e-13
5.74215e-13
6.35742e-16
1.42315e-15
3.04507e-15
6.38836e-15
1.18393e-14
1.91465e-14
2.58904e-14
2.57525e-14
1.54326e-14
4.41474e-15
2.4323e-15
4.31628e-15
8.95321e-15
2.34177e-14
6.54811e-14
1.53771e-13
3.21458e-13
6.49451e-13
4.68866e-13
5.84051e-17
1.30537e-16
3.12041e-16
7.12807e-16
1.37629e-15
2.16983e-15
2.61691e-15
2.26937e-15
1.10579e-15
8.14483e-16
1.59519e-15
3.72785e-15
8.49256e-15
2.16946e-14
6.57361e-14
1.6288e-13
3.34706e-13
5.92298e-13
4.19531e-13
5.01689e-18
1.20213e-17
2.89812e-17
6.88482e-17
1.35095e-16
2.05429e-16
2.40469e-16
2.11128e-16
2.58579e-16
5.29117e-16
1.27916e-15
3.10245e-15
7.78781e-15
1.90997e-14
6.25369e-14
1.70775e-13
3.35943e-13
5.37178e-13
3.2768e-13
4.43696e-19
1.1451e-18
2.75199e-18
6.11794e-18
1.25119e-17
2.01785e-17
2.9599e-17
5.19808e-17
1.24589e-16
3.26968e-16
8.54333e-16
2.19363e-15
5.93864e-15
1.54196e-14
4.23726e-14
1.36358e-13
3.13296e-13
4.24179e-13
2.21012e-13
3.86581e-20
1.10118e-19
3.10215e-19
7.811e-19
1.7355e-18
3.64762e-18
7.68443e-18
2.06582e-17
5.81339e-17
1.64915e-16
4.56294e-16
1.26794e-15
3.55866e-15
1.04127e-14
2.34867e-14
7.99936e-14
2.17743e-13
3.42829e-13
1.43437e-13
3.89646e-21
1.23511e-20
3.7136e-20
1.0733e-19
2.96376e-19
8.19113e-19
2.41208e-18
7.48169e-18
2.33929e-17
7.20507e-17
2.21874e-16
6.82551e-16
2.03478e-15
6.04697e-15
1.57232e-14
3.56867e-14
1.0935e-13
1.9708e-13
8.39096e-14
3.96385e-22
1.33562e-21
4.63328e-21
1.54992e-20
5.0726e-20
1.64132e-19
5.60559e-19
1.97454e-18
6.80854e-18
2.41495e-17
8.62727e-17
3.0073e-16
9.96506e-16
3.1483e-15
8.78486e-15
1.91298e-14
4.38505e-14
1.02665e-13
4.7968e-14
3.62718e-23
1.4071e-22
5.19403e-22
1.8858e-21
6.83744e-21
2.47176e-20
9.85275e-20
3.90942e-19
1.53246e-18
6.42003e-18
2.67214e-17
1.10194e-16
4.36693e-16
1.4445e-15
4.12661e-15
9.71659e-15
2.08928e-14
4.41675e-14
2.68429e-14
3.30952e-24
1.27084e-23
4.23861e-23
1.36088e-22
4.78907e-22
1.95397e-21
9.21104e-21
4.8916e-20
2.5391e-19
1.28553e-18
6.28043e-18
3.21605e-17
1.47242e-16
5.37242e-16
1.48825e-15
4.06571e-15
8.64989e-15
1.48642e-14
1.33634e-14
2.61154e-25
9.14915e-25
2.9123e-24
9.82038e-24
4.05254e-23
1.99556e-22
1.14029e-21
6.74813e-21
4.2716e-20
2.66222e-19
1.62628e-18
9.94058e-18
5.06509e-17
1.88103e-16
5.57435e-16
1.29926e-15
2.80677e-15
5.55035e-15
7.28041e-15
1.89898e-26
5.66868e-26
1.57568e-25
5.34601e-25
2.48761e-24
1.53515e-23
1.10317e-22
8.09673e-22
6.36532e-21
4.92564e-20
3.70746e-19
2.45225e-18
1.31109e-17
5.24549e-17
1.6396e-16
4.04633e-16
6.25452e-16
2.14811e-15
2.22408e-15
1.19336e-27
2.77963e-27
6.93346e-27
2.54663e-26
1.32922e-25
9.3308e-25
8.65814e-24
8.26128e-23
7.7941e-22
6.46809e-21
5.01897e-20
3.09651e-19
1.78912e-18
7.63927e-18
2.57904e-17
6.70207e-17
1.48132e-16
2.31556e-16
5.79642e-17
)
;

boundaryField
{
    leftWall
    {
        type            zeroGradient;
    }
    rightWall
    {
        type            zeroGradient;
    }
    lowerWall
    {
        type            zeroGradient;
    }
    atmosphere
    {
        type            inletOutlet;
        inletValue      uniform 0;
        value           nonuniform List<scalar> 
46
(
1.65187e-08
1.94269e-07
5.94667e-07
7.55684e-07
5.67764e-07
1.79673e-07
1.03204e-09
7.4202e-10
4.68082e-10
2.15935e-10
6.98211e-11
1.7496e-11
3.55555e-12
6.0762e-13
9.12442e-14
1.23827e-14
1.52683e-15
1.66902e-16
1.56283e-17
1.26218e-18
8.01089e-20
3.57692e-21
0
0
0
0
0
0
0
0
0
0
0
0
0
0
0
0
0
0
0
0
0
0
0
0
)
;
    }
    defaultFaces
    {
        type            empty;
    }
}


// ************************************************************************* //
