/*--------------------------------*- C++ -*----------------------------------*\
| =========                 |                                                 |
| \\      /  F ield         | OpenFOAM: The Open Source CFD Toolbox           |
|  \\    /   O peration     | Version:  2312                                  |
|   \\  /    A nd           | Website:  www.openfoam.com                      |
|    \\/     M anipulation  |                                                 |
\*---------------------------------------------------------------------------*/
FoamFile
{
    version     2.0;
    format      ascii;
    arch        "LSB;label=32;scalar=64";
    class       volScalarField;
    location    "2";
    object      alpha.oil;
}
// * * * * * * * * * * * * * * * * * * * * * * * * * * * * * * * * * * * * * //

dimensions      [0 0 0 0 0 0 0];

internalField   nonuniform List<scalar> 
2268
(
8.04833e-10
3.15635e-10
5.05168e-11
6.40116e-12
1.37102e-12
1.61963e-12
5.01691e-12
1.28453e-11
2.65443e-11
4.70054e-11
6.2834e-11
6.9167e-11
6.71035e-11
7.72405e-11
1.02597e-10
1.57832e-10
2.54641e-10
4.01431e-10
5.00308e-10
5.00639e-10
2.86822e-06
5.19729e-05
6.17202e-05
1.26885e-09
4.44567e-10
6.20158e-11
9.41167e-12
4.6923e-12
1.93984e-11
7.01294e-11
1.47672e-10
2.7436e-10
3.90754e-10
4.33545e-10
3.86053e-10
2.46617e-10
1.96023e-10
2.04349e-10
3.1209e-10
5.02717e-10
1.09027e-09
2.06781e-09
5.00798e-10
8.29138e-07
2.11397e-05
4.24599e-05
1.14378e-09
3.48729e-10
3.96525e-11
3.78691e-12
3.7798e-12
2.74726e-11
2.76143e-10
6.37625e-10
9.04383e-10
9.00119e-10
7.90608e-10
6.69492e-10
3.966e-10
2.98101e-10
2.39614e-10
2.11877e-10
2.08618e-10
1.83883e-09
1.30603e-08
9.82724e-08
1.9604e-07
1.19459e-08
1.42742e-07
5.32977e-10
1.94932e-10
3.4131e-10
1.47047e-09
3.0521e-09
1.12722e-09
1.81595e-10
3.68917e-10
4.04552e-10
2.09823e-10
2.08906e-10
2.08536e-10
2.08361e-10
1.26609e-09
2.18823e-10
3.74464e-11
3.36393e-11
1.61982e-15
1.42094e-24
4.07368e-25
1.46307e-15
2.78322e-10
9.32495e-10
5.65333e-11
5.60586e-11
3.82585e-10
3.81463e-10
2.48363e-06
1.16956e-08
6.61901e-12
7.30238e-12
3.09062e-10
1.08401e-05
1.09981e-05
7.88123e-06
1.3945e-05
3.53516e-06
2.19448e-10
2.94107e-07
1.08507e-05
2.53043e-05
2.90774e-05
4.2933e-05
0.000425335
0.00160754
0.000416554
5.07071e-07
0.00301376
0.0105356
0.00114216
4.71201e-24
-1.14436e-24
7.62315e-06
0.000138201
0.000344214
0.000303752
0.000111339
0.000115135
0.000148498
0.00010189
6.96133e-06
7.23333e-06
7.09788e-05
0.0001275
0.000142356
0.000255187
0.00255967
0.0102478
0.00981323
0.00945882
0.0375654
0.0049158
0.000788545
3.47008e-05
0.00104636
0.00140405
0.00140297
0.00117966
0.000309889
0.000100417
0.00012377
0.000150047
0.000149428
2.50724e-05
1.89295e-05
6.59084e-05
4.73688e-05
0.000290542
0.00194454
0.0105495
0.0110183
0.0109876
0.160992
0.00229407
7.54569e-05
0.000344276
0.000303226
0.000886073
0.00101928
0.000875451
6.97283e-05
4.37745e-05
4.39179e-05
3.80073e-05
3.55978e-05
1.66106e-05
2.25088e-05
2.04759e-10
1.04504e-06
2.43344e-06
1.76891e-05
8.53242e-05
0.000324848
0.00650712
0.0376864
0.0513007
0.0513002
0.0536546
0.053666
0.0539099
0.0537926
0.0449589
0.0422066
0.041144
0.0416093
0.0390966
0.0233798
0.0233798
0.0233798
0.0233798
0.0233798
0.0252369
0.0343129
0.0373614
0.051291
0.0539573
0.0827434
0.139928
0.259258
0.330353
0.32274
0.255136
0.138516
0.13995
0.267204
0.308546
0.260694
0.180503
0.117703
0.084018
0.105923
0.163741
0.257216
0.0756145
0.221493
0.437044
0.516658
0.530259
0.53022
0.530252
0.517465
0.299143
0.160358
0.159494
0.29262
0.494787
0.531479
0.508305
0.51383
0.483248
0.448344
0.473706
0.392982
0.403107
0.230137
0.255528
0.311483
0.245163
0.196982
0.229873
0.325615
0.354781
0.160542
0.199984
0.604207
0.595491
0.578562
0.559827
0.262643
0.132458
0.463661
0.249739
0.117315
0.1233
0.231817
0.106992
0.0682326
0.0687706
0.0928524
0.172013
0.559255
0.393693
0.375879
0.672115
0.671844
0.372736
0.144654
0.0905698
0.0905944
0.285905
0.108055
0.112958
0.431434
0.433897
0.230711
0.191558
0.312498
0.39759
0.63166
0.726123
0.726159
0.678664
0.676423
0.323824
0.0874715
0.0912493
0.0905276
0.0905698
0.0994163
0.227161
0.461064
0.529596
0.378065
0.375688
0.65592
0.725942
0.725985
0.726023
0.726066
0.716505
0.66442
0.499873
0.078312
0.0843836
0.101702
0.123105
0.107638
0.0936973
0.571366
0.421185
0.0780806
0.231785
0.570378
0.55972
0.361239
0.487622
0.629478
0.689837
0.654345
0.641584
0.255593
0.0780959
0.233148
0.315517
0.252381
0.207729
0.0921329
0.438826
6.34236e-09
2.33619e-14
1.78406e-14
1.0145e-07
0.000638866
0.00379902
0.00930009
0.00957766
0.0139985
0.011877
0.00224493
-1.22481e-08
-6.15432e-09
-1.05603e-08
-4.17892e-12
-2.50669e-11
-4.66636e-25
4.14793e-08
7.80228e-21
-1.46947e-23
0.000473019
0.346856
0.826845
0.376263
0.188777
0.201326
0.307061
0.391631
0.48915
0.583888
0.57439
0.599431
0.582687
0.472105
0.321718
0.251341
0.304975
0.346049
0.241561
0.117108
0.0441589
0.0202601
0.0122866
0.00592692
0.430636
0.865479
0.867981
0.881977
0.904137
0.943434
0.973388
0.985359
0.985978
0.995321
0.999021
0.999021
0.985189
0.865087
0.836685
0.808868
0.908942
0.890699
0.765878
0.631986
0.489035
0.200323
0.132782
0.331151
0.952502
0.950402
0.983387
0.996077
0.99605
0.99605
0.990462
0.996528
0.99902
0.999022
0.998694
0.998705
0.998603
0.997884
0.992601
0.994587
0.995693
0.988584
0.991189
0.966779
0.676611
0.485917
0.406628
0.993972
0.99606
0.996067
0.996072
0.978389
0.964247
0.980302
0.972787
0.934303
0.84926
0.750156
0.700448
0.733827
0.813374
0.930612
0.994339
0.995717
0.99456
0.992629
0.988345
0.944873
0.908562
0.917284
0.955769
0.952574
0.97602
0.996067
0.991782
0.894161
0.667167
0.428926
0.270045
0.140029
0.0501138
0.0408273
0.0544935
0.101437
0.242927
0.568881
0.874395
0.99464
0.995033
0.993978
0.96436
0.945679
0.946499
0.514715
0.753336
0.854549
0.775682
0.578551
0.333065
0.125329
1.47301e-26
2.49096e-20
1.62139e-19
0.00985308
0.187373
0.418414
0.579065
0.701538
0.837395
0.957802
0.995445
0.995449
0.995443
0.99541
0.977556
0.939864
0.169408
0.154566
0.115846
0.0462155
1.0768e-08
1.08372e-08
1.66549e-05
7.70957e-09
-1.60451e-11
2.70234e-18
0.369571
0.951819
0.960826
0.995295
0.995271
0.995435
0.995443
0.995451
0.995457
0.995446
0.994355
0.974327
0.96007
6.4747e-14
6.6126e-14
9.31219e-08
1.06702e-08
1.07325e-08
1.09762e-08
1.07711e-08
1.30469e-07
3.19815e-08
6.6669e-15
0.0248912
0.471021
0.866141
0.960025
0.995435
0.995443
0.995451
0.995458
0.995464
0.993957
0.992261
0.991153
0.995378
3.08814e-08
1.68939e-06
3.04658e-06
1.26291e-06
5.13549e-07
1.08342e-08
1.48263e-08
1.60079e-07
3.07555e-07
2.29017e-07
1.18696e-11
7.15536e-12
5.38421e-06
0.256578
0.776892
0.932207
0.967537
0.980684
0.986998
0.993919
0.995282
0.995359
0.995379
9.35264e-07
4.27702e-06
4.44832e-06
3.3792e-06
2.51202e-06
5.85638e-06
1.06235e-08
1.01273e-08
8.5235e-08
1.88562e-07
9.86979e-08
5.26069e-08
1.50814e-08
1.3749e-09
3.03571e-10
0.0362534
0.292576
0.418913
0.374989
0.197351
0.16652
0.180711
0.118469
2.49624e-07
1.17944e-06
4.45175e-06
2.84979e-06
4.83847e-07
1.51936e-05
5.59213e-05
3.71662e-05
1.03394e-08
1.57931e-08
1.37288e-07
1.35763e-07
5.07035e-08
4.99574e-08
3.46519e-08
-1.62744e-12
4.55484e-23
9.08176e-06
2.36579e-05
5.38423e-06
1.56077e-09
1.46066e-09
1.56077e-09
1.63733e-08
2.77726e-08
1.12645e-06
7.09326e-07
3.9692e-08
6.55645e-06
9.41997e-05
0.000112996
9.39263e-05
5.01714e-05
5.75809e-06
3.17995e-07
9.12005e-08
1.9328e-08
2.83665e-08
-1.66701e-11
2.75439e-05
0.000133562
0.000273895
0.000570222
0.00057188
0.000324308
0.000209147
1.63758e-08
3.05051e-08
3.39357e-08
3.28225e-08
3.16678e-08
3.2924e-07
2.27662e-05
0.000117711
0.000129963
0.000129548
5.51209e-05
6.30738e-07
6.62428e-08
1.73428e-08
1.43494e-08
2.40183e-07
9.2918e-07
2.60389e-05
5.84672e-05
2.77191e-05
2.66451e-05
3.02597e-05
0.000517139
1.18169e-07
5.12168e-07
5.2229e-07
2.55158e-07
2.79946e-08
2.08991e-08
2.13846e-08
1.9159e-05
8.14834e-05
9.20617e-05
4.16132e-05
1.48261e-06
2.34037e-07
5.3111e-08
1.43516e-08
6.25308e-08
4.10136e-08
2.24238e-08
2.41303e-05
2.89787e-05
1.86873e-07
1.86119e-07
1.09685e-06
2.3212e-07
6.24798e-07
6.23104e-07
4.91841e-07
2.69377e-07
2.09505e-08
2.37182e-08
1.73594e-08
8.21983e-07
1.50061e-06
2.34089e-06
1.64794e-06
1.16434e-06
3.59746e-07
2.39773e-08
1.65696e-08
1.25483e-08
1.87732e-08
2.69707e-08
3.9032e-09
1.2424e-06
3.52497e-07
4.71097e-09
1.68174e-07
5.51415e-07
5.99436e-07
5.23373e-07
2.84018e-07
2.10111e-08
1.94207e-08
1.6948e-08
1.8334e-09
1.90126e-09
1.85776e-09
8.52542e-08
4.10447e-07
4.0425e-07
2.90325e-07
4.41197e-08
3.0772e-08
4.38074e-08
6.41772e-09
2.63436e-09
2.45482e-09
2.5811e-09
4.6548e-09
2.99103e-08
6.37129e-08
2.3316e-07
2.19345e-07
6.03204e-08
2.12025e-08
8.2307e-09
1.44657e-08
5.35033e-09
3.31786e-09
2.22664e-09
1.27497e-09
1.27152e-09
1.45055e-07
1.35672e-07
3.18661e-08
2.499e-08
3.83535e-08
1.98735e-08
6.82788e-09
2.77426e-09
4.59252e-09
1.39451e-08
2.54863e-09
1.55284e-09
1.56046e-09
1.55285e-09
1.56046e-09
1.20697e-08
3.44172e-09
5.76162e-09
3.34665e-09
3.44288e-09
3.34247e-09
2.08988e-09
1.26788e-09
9.53526e-10
9.63925e-10
1.744e-09
9.63642e-09
1.06304e-08
6.33157e-09
2.72954e-09
2.69028e-09
7.29456e-09
1.55084e-08
6.38145e-09
1.55312e-09
1.55314e-09
1.5535e-09
1.55294e-09
5.5107e-09
2.0635e-09
2.12785e-09
1.93764e-09
2.54661e-09
2.78524e-09
2.05305e-09
1.40566e-09
9.49637e-10
9.46484e-10
1.60603e-09
2.02306e-09
2.08764e-09
2.52157e-09
2.57676e-09
2.83828e-09
7.11843e-09
1.03808e-08
8.95926e-09
2.61423e-09
2.63613e-09
2.41499e-09
2.03974e-09
2.63421e-09
1.65124e-09
1.43202e-09
1.39701e-09
1.69241e-09
1.83809e-09
1.49517e-09
1.13717e-09
9.57485e-10
1.01137e-09
1.3332e-09
1.49387e-09
1.75185e-09
2.07185e-09
3.05173e-09
3.93303e-09
6.07934e-09
7.19209e-09
8.95609e-09
3.59908e-09
3.46982e-09
3.09776e-09
2.42255e-09
2.20025e-09
1.68026e-09
1.42555e-09
1.23192e-09
1.16864e-09
1.11439e-09
9.31451e-10
7.59969e-10
7.02645e-10
7.71264e-10
9.28528e-10
1.09723e-09
1.39702e-09
1.69055e-09
2.62299e-09
3.30217e-09
4.3225e-09
5.04684e-09
7.27213e-09
4.32778e-09
4.12981e-09
3.45162e-09
2.92582e-09
2.73606e-09
1.8091e-09
1.53712e-09
1.25522e-09
9.64108e-10
7.50408e-10
5.79854e-10
4.65383e-10
4.31311e-10
4.67747e-10
5.56077e-10
6.87912e-10
8.8004e-10
1.08568e-09
1.66501e-09
2.01117e-09
2.55996e-09
2.83091e-09
4.348e-09
4.34607e-09
4.25989e-09
3.50027e-09
3.24537e-09
3.37782e-09
1.94561e-09
1.70527e-09
1.4011e-09
9.49123e-10
6.17126e-10
4.1485e-10
2.97602e-10
2.47403e-10
2.45576e-10
2.79267e-10
3.4615e-10
4.46516e-10
5.5168e-10
7.83076e-10
9.53464e-10
1.07967e-09
1.24189e-09
5.08055e-09
4.45532e-09
4.12061e-09
3.1411e-09
3.0456e-09
3.54804e-09
2.0422e-09
1.93712e-09
1.6542e-09
1.02773e-09
5.89309e-10
3.45705e-10
2.15356e-10
1.49452e-10
1.23441e-10
1.2396e-10
1.41958e-10
1.80089e-10
2.15618e-10
3.00107e-10
3.52564e-10
3.88974e-10
4.30148e-10
5.48246e-08
4.74254e-09
4.10235e-09
2.47453e-09
2.47848e-09
3.07793e-09
2.09855e-09
2.273e-09
2.03941e-09
1.17281e-09
5.97608e-10
3.1788e-10
1.74445e-10
1.02676e-10
6.75786e-11
5.38534e-11
5.25852e-11
5.98388e-11
6.8882e-11
8.99888e-11
1.02724e-10
1.15128e-10
1.38706e-10
6.17201e-08
6.25641e-09
7.78691e-09
2.23153e-09
2.23739e-09
2.27077e-09
2.11837e-09
2.75726e-09
2.53314e-09
1.33771e-09
6.41335e-10
3.09354e-10
1.52766e-10
7.8926e-11
4.35084e-11
2.66951e-11
1.98037e-11
1.81104e-11
1.88613e-11
2.28852e-11
2.55599e-11
2.74673e-11
3.25894e-11
5.19572e-08
7.99052e-09
1.21866e-08
2.5687e-07
2.30347e-07
3.30814e-09
2.11968e-09
3.45296e-09
3.1566e-09
1.61119e-09
7.15872e-10
3.16724e-10
1.44647e-10
6.75239e-11
3.18993e-11
1.62698e-11
9.12304e-12
6.10788e-12
5.00144e-12
5.01572e-12
5.28814e-12
5.86606e-12
7.62645e-12
1.22028e-08
9.36143e-09
8.32588e-08
3.07682e-07
3.06502e-07
5.69567e-09
2.1252e-09
4.14534e-09
4.02764e-09
2.05836e-09
8.86195e-10
3.67419e-10
1.5135e-10
6.26323e-11
2.67624e-11
1.15851e-11
5.39743e-12
2.71737e-12
1.5934e-12
1.20844e-12
1.08511e-12
1.14444e-12
1.66142e-12
5.55911e-08
9.38592e-09
1.68287e-07
3.11781e-07
3.13133e-07
3.95112e-09
2.22647e-09
5.22377e-09
6.00502e-09
3.28539e-09
1.27713e-09
4.968e-10
1.93609e-10
7.02232e-11
2.58383e-11
9.54693e-12
3.77448e-12
1.57589e-12
7.02415e-13
3.79859e-13
2.54596e-13
2.60744e-13
4.78003e-13
1.56506e-07
2.20766e-08
1.17753e-07
2.44401e-07
3.11499e-07
7.61812e-08
2.25054e-09
1.40706e-08
1.02669e-08
5.33778e-09
2.75367e-09
1.04322e-09
3.46139e-10
1.18286e-10
3.70987e-11
1.18542e-11
3.39026e-12
1.15391e-12
4.14656e-13
1.66653e-13
7.62279e-14
8.06552e-14
1.54412e-13
1.5655e-07
5.21903e-08
3.14015e-08
9.0245e-08
1.00927e-07
4.04988e-07
2.99175e-07
6.10414e-08
1.33533e-08
1.02872e-08
9.87318e-09
3.62202e-09
1.06734e-09
2.95379e-10
7.97128e-11
2.1331e-11
4.54219e-12
1.31105e-12
3.49415e-13
9.72345e-14
3.1384e-14
2.75018e-14
6.47905e-14
6.55031e-08
3.71058e-08
7.30542e-09
2.96351e-08
8.96262e-08
4.0881e-07
4.08949e-07
9.60346e-08
2.10363e-08
4.87152e-08
2.64722e-08
6.15391e-09
1.61429e-09
4.70944e-10
1.34009e-10
3.67517e-11
9.00581e-12
1.97921e-12
4.18944e-13
8.81154e-14
1.99124e-14
9.6444e-15
2.55666e-14
1.21354e-07
7.30021e-09
7.30417e-09
7.3052e-09
1.97885e-07
4.08949e-07
2.97976e-07
1.10833e-07
5.96487e-07
4.59521e-07
4.23743e-08
7.80432e-09
1.88803e-09
5.81309e-10
1.72213e-10
4.74061e-11
1.13845e-11
2.54737e-12
4.99916e-13
9.24452e-14
1.14501e-14
4.31864e-15
8.82409e-15
4.96491e-07
2.08078e-07
7.30402e-09
1.46788e-07
3.81576e-07
2.32724e-07
6.8276e-08
2.67148e-07
8.79261e-07
6.97915e-07
5.66685e-08
9.47229e-09
1.7662e-09
4.71299e-10
1.41988e-10
3.94421e-11
1.00944e-11
2.35918e-12
4.91294e-13
8.54881e-14
1.41511e-14
1.68829e-15
2.82215e-15
1.80931e-05
1.04986e-05
8.82217e-07
1.42879e-06
2.01991e-07
4.42668e-08
4.42502e-08
8.05186e-07
8.79127e-07
5.16881e-07
3.4586e-08
6.02048e-09
1.13692e-09
3.12431e-10
1.00907e-10
3.0814e-11
8.34051e-12
1.94845e-12
3.89363e-13
6.67266e-14
1.00777e-14
1.25286e-15
9.11764e-16
2.95879e-05
2.95879e-05
2.58559e-05
2.44642e-06
4.39429e-08
4.39422e-08
7.51302e-08
8.1027e-07
7.93294e-07
1.05393e-07
1.74923e-08
2.84988e-09
6.43417e-10
2.034e-10
6.78443e-11
2.06115e-11
5.4107e-12
1.20529e-12
2.28016e-13
3.55785e-14
5.17273e-15
3.1726e-16
2.76489e-16
2.95879e-05
2.75894e-05
1.7361e-05
1.13856e-06
4.40405e-08
4.39462e-08
1.09721e-07
4.95607e-07
1.4813e-07
2.93087e-08
5.62156e-09
1.28581e-09
3.72606e-10
1.24876e-10
3.94118e-11
1.09144e-11
2.60276e-12
5.32983e-13
9.03465e-14
1.31903e-14
1.66144e-15
1.61724e-16
6.82007e-17
2.95879e-05
6.39329e-06
4.87021e-07
7.97618e-08
5.37866e-08
4.47282e-08
3.03529e-07
8.33578e-08
2.80934e-08
7.66334e-09
2.15509e-09
6.43612e-10
1.83602e-10
5.48072e-11
1.55024e-11
3.88082e-12
8.41436e-13
1.5664e-13
2.49281e-14
3.13853e-15
3.28844e-16
3.36697e-17
1.59149e-17
2.00016e-05
1.00267e-05
2.84257e-07
1.5508e-06
3.88712e-06
3.60701e-06
5.73071e-07
2.91782e-08
8.61897e-09
2.89631e-09
9.23949e-10
2.46794e-10
6.94881e-11
1.86013e-11
4.47536e-12
9.60848e-13
1.83088e-13
3.04495e-14
4.27616e-15
5.12381e-16
4.61808e-17
4.94212e-18
3.14092e-18
3.33217e-07
2.92051e-05
2.82611e-05
2.97617e-05
3.06163e-05
1.63342e-05
8.09396e-08
1.23743e-08
3.71207e-09
1.27715e-09
3.70492e-10
9.273e-11
2.18707e-11
4.74869e-12
9.42152e-13
1.71542e-13
2.85433e-14
4.22781e-15
5.39033e-16
5.92017e-17
5.80556e-18
6.54858e-19
5.73854e-19
7.95301e-09
9.7559e-06
2.32155e-05
2.62674e-05
2.10323e-05
7.55576e-06
1.92442e-08
5.15992e-09
1.69457e-09
5.35415e-10
1.30086e-10
2.69582e-11
5.10144e-12
8.93573e-13
1.46975e-13
2.28147e-14
3.30563e-15
4.31747e-16
4.93435e-17
5.26188e-18
5.98021e-19
1.01354e-19
9.95362e-20
0.658815
0.670431
0.670431
0.520143
0.658563
0.558321
0.0277481
0.00118782
0.0525988
0.0064643
0.00446208
0.000806208
0.00510721
0.000241888
2.7254e-05
7.85342e-05
0.514817
0.202433
0.188112
0.342028
0.930041
0.912225
0.923865
0.94078
0.941771
0.949066
0.995386
0.995381
0.992935
0.995378
0.995384
0.995383
0.995379
0.995387
0.995387
0.995332
0.992848
0.980328
0.957638
0.887114
0.00556822
-7.80544e-08
1.34088e-11
1.34982e-11
1.8363e-06
1.03459e-05
1.4341e-05
1.13463e-05
0.000210558
0.000202232
0.000142393
0.000109007
0.000700528
0.000699068
0.000699787
0.000698057
2.71341e-05
6.38058e-09
6.02922e-09
0.000212759
4.76871e-09
6.46711e-09
6.70031e-09
8.05126e-09
1.05404e-08
1.31618e-08
1.49941e-08
1.77198e-08
2.50681e-08
2.70486e-08
2.65953e-08
2.57643e-08
2.70749e-08
2.70356e-08
2.62328e-08
2.44838e-08
1.61717e-08
1.86908e-08
1.96363e-08
1.86539e-08
8.6826e-09
1.10306e-08
1.15477e-08
1.20695e-08
6.00459e-09
6.26004e-09
7.17097e-09
7.31177e-09
2.94311e-09
3.36636e-09
3.51124e-09
3.70414e-09
1.40257e-09
1.42106e-09
1.57339e-09
1.72022e-09
4.65213e-10
5.37835e-10
6.18325e-10
7.08857e-10
1.6132e-10
1.68834e-10
2.0321e-10
2.43642e-10
3.83615e-11
4.77144e-11
5.82108e-11
7.52286e-11
9.55383e-12
1.06261e-11
1.41055e-11
1.92378e-11
2.12183e-12
2.7167e-12
3.85876e-12
6.15078e-12
6.27529e-13
8.65284e-13
1.42654e-12
2.83879e-12
2.71163e-13
3.98471e-13
8.60425e-13
1.63533e-12
1.12275e-13
2.1286e-13
4.23081e-13
1.07158e-12
4.85306e-14
8.57511e-14
2.56067e-13
6.06113e-13
2.05506e-14
4.58309e-14
1.10344e-13
3.3667e-13
6.91257e-15
1.47574e-14
5.23761e-14
1.43978e-13
2.54621e-15
6.54399e-15
2.06401e-14
6.17694e-14
6.80788e-16
1.96344e-15
7.8788e-15
2.40362e-14
2.28392e-16
7.82059e-16
2.5013e-15
7.66226e-15
5.2448e-17
1.8958e-16
6.80625e-16
1.98422e-15
1.32926e-17
5.0245e-17
1.56319e-16
4.79874e-16
2.86408e-18
1.10581e-17
3.51942e-17
1.07581e-16
5.53497e-19
1.93519e-18
6.33533e-18
1.82415e-17
0.113752
0.0056282
0.0683449
0.426897
0.447206
0.0733371
4.27217e-05
4.17755e-05
0.0390171
0.123692
0.196489
0.155156
0.0585535
0.357808
0.400276
0.400312
0.237889
0.106813
0.0921337
0.00134234
0.00592622
0.0242736
0.0202714
0.00738723
0.000761784
0.00086258
2.56029e-05
2.53675e-05
2.66926e-05
1.6218e-05
1.6218e-05
0.0510201
0.371598
0.399928
0.285672
0.201082
0.10415
0.181436
4.10795e-08
-2.56954e-07
-1.38951e-10
1.46805e-05
1.85489e-05
1.74877e-07
-1.2441e-07
9.33856e-05
0.000197727
0.000185771
1.6218e-05
1.62181e-05
9.50993e-05
0.19927
0.3864
0.420786
0.317479
0.140073
0.537683
0.00570394
0.0197283
0.0239447
0.0127389
0.00647546
0.00322963
0.00218704
2.02538e-17
-9.71623e-20
2.00609e-17
0.0634166
0.173934
0.240484
0.317485
0.436399
0.675599
0.33453
0.331839
0.624079
0.509173
0.630299
0.65581
0.588606
0.534756
0.489931
0.447073
0.272237
0.156687
0.124114
0.290362
0.514
0.524151
0.553996
0.61118
0.676086
0.332284
0.403489
0.624051
0.983503
0.99538
0.995378
0.995352
0.994393
0.955844
0.91776
0.912835
0.844808
0.745441
0.618985
0.581163
0.573664
0.777858
0.857024
0.676889
0.441194
0.492925
0.620922
0.995381
0.995385
0.995375
0.995377
0.994904
0.994903
0.995343
0.995339
0.994309
0.989311
0.986014
0.983089
0.982978
0.943239
0.850178
0.696834
0.697049
0.693589
0.596441
0.995381
0.995255
0.988975
0.942468
0.867416
0.836919
0.849763
0.911135
0.927567
0.904979
0.844588
0.780838
0.687057
0.55809
0.439431
0.362142
0.384958
0.394877
0.210451
0.994475
0.931323
0.632061
0.268768
0.128925
0.105761
0.128037
0.218868
0.251226
0.182029
0.0875522
0.0544005
0.0391086
0.0192121
6.79957e-10
7.10797e-12
6.95904e-09
8.14874e-12
6.25405e-06
0.506648
0.0697746
1.40937e-25
1.25904e-25
-1.79173e-25
1.07923e-19
2.11271e-13
1.08567e-12
2.45425e-12
3.73571e-12
3.8491e-12
3.00353e-12
3.03148e-12
1.19637e-09
1.11175e-07
6.16505e-06
1.00118e-05
1.1473e-06
1.14078e-07
1.11497e-11
9.32384e-12
9.05552e-08
5.39318e-07
9.88603e-07
3.10925e-06
8.28599e-06
1.02504e-05
8.96183e-06
9.42954e-06
1.36167e-05
1.51154e-05
1.03081e-05
2.91493e-07
3.33943e-06
3.06068e-05
4.40483e-05
1.23642e-05
3.48891e-07
5.84032e-06
6.75968e-07
4.37992e-07
3.81473e-07
3.93003e-07
5.04304e-06
1.79283e-05
2.69921e-05
2.8106e-05
2.81355e-05
2.81111e-05
2.81356e-05
2.11926e-05
5.23458e-06
1.86877e-05
6.93574e-05
6.93574e-05
2.8748e-05
4.57256e-07
5.25178e-05
5.5563e-07
3.77065e-07
3.61512e-07
3.76948e-07
3.66851e-07
5.34147e-07
3.35511e-07
3.08179e-06
4.97788e-06
5.63461e-06
1.01123e-05
1.83323e-05
6.62075e-06
4.67419e-05
6.93574e-05
6.91732e-05
1.63366e-05
4.90488e-07
0.000551767
0.000272404
0.000107294
2.94652e-05
3.46668e-05
4.20734e-05
2.27305e-05
1.43359e-06
9.59919e-08
6.83921e-08
9.01635e-09
2.41306e-09
2.49716e-06
1.13261e-05
4.39835e-05
5.15426e-05
1.40053e-05
5.92068e-08
1.26141e-06
0.00051358
0.00051248
0.00037211
0.000158968
0.000257796
0.000352197
0.000316911
0.000214334
9.04518e-05
7.73187e-06
7.88622e-08
2.83118e-08
4.19186e-06
0.000108515
1.81987e-05
7.74889e-10
4.35169e-08
2.62528e-09
6.03444e-06
2.68713e-05
5.38695e-05
2.38812e-08
1.69594e-05
0.000196871
0.000351546
0.000363893
0.000364827
0.000367996
0.000265274
2.73795e-05
9.1463e-08
0.000184938
0.000182356
3.72748e-05
8.20365e-10
3.02941e-09
2.25952e-09
6.1705e-06
1.51942e-08
1.40429e-08
2.20225e-08
2.94801e-08
3.59479e-08
2.91496e-08
0.000137738
0.000338916
0.000358628
0.000365496
0.000302846
0.000213761
0.000290411
0.000183133
5.29333e-06
7.76707e-10
5.83004e-09
4.09864e-09
6.16106e-06
1.8973e-08
1.64451e-08
4.45233e-08
1.18792e-07
1.03653e-07
6.70337e-08
3.03323e-08
2.96761e-08
0.000160068
0.000349062
0.000365288
0.000365304
0.000290863
2.35005e-05
2.15274e-09
2.19882e-09
8.00676e-09
4.08693e-09
5.82607e-06
1.97103e-08
1.79823e-08
9.02333e-08
1.8936e-07
1.81529e-07
6.14234e-08
3.85879e-08
4.55772e-08
4.75371e-08
5.89098e-06
0.000189059
0.000179853
5.47798e-06
7.96544e-09
8.11249e-09
1.09239e-08
1.01861e-08
1.10467e-08
5.9479e-06
1.5972e-08
1.73772e-08
2.77509e-08
1.43302e-07
7.49034e-08
3.74134e-08
3.24826e-08
6.71406e-08
1.06831e-07
3.46539e-08
6.90981e-09
6.86677e-09
7.31129e-09
1.06224e-08
1.4435e-08
1.44248e-08
1.32464e-08
1.10093e-08
5.85476e-06
1.19899e-08
1.52271e-08
1.44573e-08
1.4707e-08
1.31751e-08
1.1283e-08
2.66926e-08
2.47523e-07
4.99497e-07
2.57163e-07
4.96392e-08
6.95938e-09
9.57801e-09
1.40839e-08
1.40612e-08
1.15726e-08
1.3382e-08
4.95654e-08
8.64094e-07
7.93481e-09
9.03236e-09
8.89726e-09
8.70516e-09
9.17967e-09
8.19487e-09
2.38583e-08
5.97336e-07
6.73407e-07
6.72456e-07
1.40358e-07
1.35298e-08
1.26327e-08
1.20418e-08
1.05761e-08
7.91877e-09
1.5522e-08
3.1263e-07
2.3089e-07
4.60735e-09
5.30075e-09
5.97798e-09
6.45975e-09
6.61574e-09
7.11313e-09
1.71638e-08
6.89762e-08
5.62572e-07
3.91721e-07
5.73149e-08
1.94782e-08
9.82498e-09
7.78994e-09
6.57659e-09
4.78515e-09
4.78411e-09
7.56061e-06
9.20728e-07
2.36957e-09
2.88798e-09
3.22947e-09
3.40748e-09
4.33882e-09
5.5669e-09
4.5261e-09
5.94979e-09
8.35317e-09
9.99795e-09
9.30041e-09
6.25515e-09
4.77418e-09
4.54286e-09
4.15237e-09
3.10226e-09
4.04811e-07
9.55795e-06
5.9351e-06
1.0568e-09
1.36674e-09
1.50761e-09
1.65674e-09
2.33906e-09
3.46316e-09
2.96917e-09
1.95083e-09
1.59655e-09
1.50419e-09
1.91906e-09
2.43305e-09
2.82771e-09
3.44031e-09
3.49177e-09
3.04831e-09
8.89206e-07
9.56963e-06
8.4255e-06
3.96609e-10
5.2219e-10
6.25956e-10
7.29266e-10
8.38727e-10
1.17066e-09
1.38538e-09
1.25538e-09
1.21651e-09
1.28166e-09
1.47045e-09
1.77025e-09
2.2793e-09
3.40594e-09
3.57898e-09
3.05537e-09
6.01584e-07
8.98367e-06
1.4397e-07
1.32133e-10
1.88388e-10
2.53789e-10
3.10978e-10
4.057e-10
4.60225e-10
6.07468e-10
7.56816e-10
9.02327e-10
1.09058e-09
1.33945e-09
1.66481e-09
2.23744e-09
3.98702e-09
4.49823e-09
3.06132e-09
1.28306e-07
4.35418e-07
1.15626e-08
3.75657e-11
6.25143e-11
9.56984e-11
1.38885e-10
1.91876e-10
2.85158e-10
3.96516e-10
5.39894e-10
7.27127e-10
9.79553e-10
1.28901e-09
1.64996e-09
2.32741e-09
4.85479e-09
5.91749e-09
5.26205e-09
1.10546e-08
6.03616e-09
1.15497e-08
1.46741e-11
2.65446e-11
4.60998e-11
7.75725e-11
1.27424e-10
2.03585e-10
3.19454e-10
4.82676e-10
6.95654e-10
9.77488e-10
1.31458e-09
1.68911e-09
2.35789e-09
5.09968e-09
1.07727e-08
1.00366e-08
6.03619e-09
6.03618e-09
6.19689e-09
7.70962e-12
1.60647e-11
3.11339e-11
5.78068e-11
1.02968e-10
1.79586e-10
2.96183e-10
4.66114e-10
6.97464e-10
9.92252e-10
1.34078e-09
1.70668e-09
2.16015e-09
3.24489e-09
6.28116e-08
7.52369e-08
1.91973e-08
6.03619e-09
1.39618e-07
5.3062e-12
1.17148e-11
2.43894e-11
4.86632e-11
9.1596e-11
1.64645e-10
2.79341e-10
4.47902e-10
6.76021e-10
9.59644e-10
1.2917e-09
1.66607e-09
2.07432e-09
2.05423e-09
1.5417e-07
2.90414e-07
1.05639e-07
5.20638e-08
2.6575e-07
3.5178e-12
8.43647e-12
1.86383e-11
3.96733e-11
7.84826e-11
1.44311e-10
2.47449e-10
4.02103e-10
6.06952e-10
8.57381e-10
1.15175e-09
1.51882e-09
2.04752e-09
2.05092e-09
8.70116e-08
2.91631e-07
3.03091e-07
2.36715e-07
2.66118e-07
2.18095e-12
5.55145e-12
1.29759e-11
2.94253e-11
6.05836e-11
1.14004e-10
2.00125e-10
3.25142e-10
4.91543e-10
6.90728e-10
9.36401e-10
1.25456e-09
1.87086e-09
2.49974e-09
2.26891e-09
2.44283e-07
3.01661e-07
3.0331e-07
2.25748e-07
1.18337e-12
3.24851e-12
8.14108e-12
1.86123e-11
4.01838e-11
7.76026e-11
1.39074e-10
2.28735e-10
3.44019e-10
4.88118e-10
6.64763e-10
8.94238e-10
1.37858e-09
2.53264e-09
2.26659e-09
8.46343e-09
2.9071e-07
3.02421e-07
2.26582e-08
5.53982e-13
1.65176e-12
4.48941e-12
1.10498e-11
2.46046e-11
4.89007e-11
8.51024e-11
1.40581e-10
2.13917e-10
3.07902e-10
4.14872e-10
5.56564e-10
8.20265e-10
1.65844e-09
2.26447e-09
1.65314e-09
1.41275e-07
2.82127e-07
2.26322e-08
2.34691e-13
7.4541e-13
2.11691e-12
5.50911e-12
1.2756e-11
2.5591e-11
4.68985e-11
7.94648e-11
1.25434e-10
1.84457e-10
2.55355e-10
3.46325e-10
4.98761e-10
9.08245e-10
1.95954e-09
1.65173e-09
6.80693e-10
6.16136e-08
1.99672e-08
8.64551e-14
2.84406e-13
8.55115e-13
2.32411e-12
5.48617e-12
1.12582e-11
2.13945e-11
3.7938e-11
6.23341e-11
9.68118e-11
1.40064e-10
1.91567e-10
2.70685e-10
4.92737e-10
1.07881e-09
1.53909e-09
6.8082e-10
6.80698e-10
8.18839e-09
2.64645e-14
9.35405e-14
2.91339e-13
8.07833e-13
1.94028e-12
4.1077e-12
8.31586e-12
1.57036e-11
2.75241e-11
4.59354e-11
6.95283e-11
9.64546e-11
1.35998e-10
2.36711e-10
5.04102e-10
8.77861e-10
6.99803e-10
1.66166e-09
5.05434e-09
7.26491e-15
2.62043e-14
7.98568e-14
2.14326e-13
5.21574e-13
1.18531e-12
2.57448e-12
5.39862e-12
1.04669e-11
1.86301e-11
2.93462e-11
4.19041e-11
5.63414e-11
9.54914e-11
1.91316e-10
4.14549e-10
6.37698e-10
2.2109e-09
4.02364e-09
1.53221e-15
5.79823e-15
1.79962e-14
5.12145e-14
1.36172e-13
3.41915e-13
8.26593e-13
1.856e-12
3.9129e-12
7.47914e-12
1.25532e-11
1.82479e-11
2.4463e-11
3.82398e-11
8.01229e-11
1.6342e-10
3.34461e-10
7.95136e-10
3.08804e-09
2.82649e-16
1.01728e-15
3.15211e-15
9.65315e-15
2.86894e-14
8.22114e-14
2.19547e-13
5.31774e-13
1.19948e-12
2.42686e-12
4.29176e-12
6.34055e-12
8.35501e-12
1.26339e-11
2.73808e-11
6.39935e-11
1.13644e-10
4.43205e-10
1.07056e-09
3.96761e-17
1.31417e-16
4.26319e-16
1.44323e-15
4.61201e-15
1.35106e-14
3.94042e-14
1.03905e-13
2.45952e-13
4.90848e-13
8.70231e-13
1.20872e-12
1.61105e-12
2.27819e-12
5.00056e-12
1.25602e-11
3.12081e-11
6.5638e-11
0
)
;

boundaryField
{
    leftWall
    {
        type            zeroGradient;
    }
    rightWall
    {
        type            zeroGradient;
    }
    lowerWall
    {
        type            zeroGradient;
    }
    atmosphere
    {
        type            inletOutlet;
        inletValue      uniform 0;
        value           nonuniform List<scalar> 
46
(
7.95301e-09
9.7559e-06
2.32155e-05
2.62674e-05
2.10323e-05
7.55576e-06
1.92442e-08
5.15992e-09
1.69457e-09
5.35415e-10
1.30086e-10
2.69582e-11
5.10144e-12
8.93573e-13
1.46975e-13
2.28147e-14
3.30563e-15
4.31747e-16
4.93435e-17
5.26188e-18
5.98021e-19
1.01354e-19
0
0
0
0
0
0
0
0
0
0
0
0
0
0
0
0
0
0
0
0
0
0
0
0
)
;
    }
    defaultFaces
    {
        type            empty;
    }
}


// ************************************************************************* //
