/*--------------------------------*- C++ -*----------------------------------*\
| =========                 |                                                 |
| \\      /  F ield         | OpenFOAM: The Open Source CFD Toolbox           |
|  \\    /   O peration     | Version:  2312                                  |
|   \\  /    A nd           | Website:  www.openfoam.com                      |
|    \\/     M anipulation  |                                                 |
\*---------------------------------------------------------------------------*/
FoamFile
{
    version     2.0;
    format      ascii;
    arch        "LSB;label=32;scalar=64";
    class       volScalarField;
    location    "2";
    object      alpha.water_0;
}
// * * * * * * * * * * * * * * * * * * * * * * * * * * * * * * * * * * * * * //

dimensions      [0 0 0 0 0 0 0];

internalField   nonuniform List<scalar> 
2268
(
7.59492e-10
4.29863e-10
1.38557e-10
5.22948e-11
3.37496e-11
2.88017e-11
2.71722e-11
2.65183e-11
2.67698e-11
2.76783e-11
2.92999e-11
3.2416e-11
3.74905e-11
4.43958e-11
5.50885e-11
7.4105e-11
1.0663e-10
1.65708e-10
2.64929e-10
4.41024e-10
7.2013e-10
9.42175e-10
1.11443e-09
9.11853e-10
6.04742e-10
2.26196e-10
9.79624e-11
6.32745e-11
4.61434e-11
4.09897e-11
4.04063e-11
4.13153e-11
4.18275e-11
4.2263e-11
4.84538e-11
6.08433e-11
7.04551e-11
9.22349e-11
1.44599e-10
2.26572e-10
3.87352e-10
7.09639e-10
1.24523e-09
1.96287e-09
2.26039e-09
2.31423e-09
7.60517e-10
6.05004e-10
2.7571e-10
1.34146e-10
8.93154e-11
7.53459e-11
6.56083e-11
5.90883e-11
5.27594e-11
4.58914e-11
4.30941e-11
4.3997e-11
6.37255e-11
9.45833e-11
9.85405e-11
1.53635e-10
2.81512e-10
4.41108e-10
6.71995e-10
1.01474e-09
1.37518e-09
2.39051e-09
2.53856e-09
1.88463e-10
2.58772e-10
1.55836e-10
1.0025e-10
8.09829e-11
8.97975e-11
8.98218e-11
6.85291e-11
3.26948e-11
2.3531e-11
1.97725e-11
2.13662e-11
5.30073e-11
1.595e-10
1.03669e-10
1.67202e-09
3.13328e-09
1.00636e-10
1.00804e-10
1.00636e-10
1.00804e-10
2.42726e-09
2.55071e-09
1.94377e-11
1.9828e-11
2.02115e-11
2.00933e-11
2.59363e-11
2.66843e-11
2.23023e-11
1.07928e-11
6.7311e-12
8.03844e-12
6.71425e-12
5.47501e-12
6.56938e-12
5.3286e-12
7.19988e-07
0.000111849
0.000741443
0.00266597
0.00711319
0.0127257
0.0270033
0.0388355
0.0482134
0.0207417
4.99278e-23
3.50919e-23
3.41872e-23
3.04458e-23
3.65858e-23
1.00315e-18
1.02215e-18
0.0138834
0.0766046
0.174155
0.272
0.342439
0.382727
0.403518
0.423196
0.455223
0.494983
0.54084
0.598249
0.664757
0.722747
0.717512
0.146139
0.101659
0.115288
0.0991063
0.0921884
0.105991
0.181074
0.367618
0.620249
0.806785
0.91355
0.970759
0.997093
0.999311
0.999311
0.999311
0.999193
0.998708
0.997953
0.997165
0.988994
0.988148
0.988129
0.566361
0.823494
0.824096
0.802521
0.802754
0.836834
0.917303
0.986296
0.998779
0.999008
0.999178
0.999271
0.999308
0.999311
0.999311
0.999311
0.999311
0.99931
0.998768
0.996113
0.996087
0.990042
0.954129
0.0725532
0.0321763
0.0322204
0.0373001
0.027968
0.0270596
0.0270592
0.0274415
0.0246241
0.0234085
0.0234056
0.0257916
0.0267837
0.0267756
0.0254225
0.0253833
0.0233688
0.0144276
0.0111365
0.0752563
0.0296772
0.0487864
0.0683156
0.060008
0.0277445
0.0464945
0.0993823
0.223639
0.185729
0.0118173
0.0100573
0.0103015
0.00954768
0.0270439
0.0363762
0.0165224
0.0121797
0.012229
0.0512305
0.0190543
0.0190108
0.0581566
0.112772
0.176408
0.226675
0.196544
0.291817
0.334609
0.334099
0.156524
0.0100114
0.00854212
0.00854205
0.0589552
0.228233
0.370067
0.315416
0.0516106
0.0968845
0.455356
0.571205
0.53196
0.597555
0.654617
0.62007
0.496892
0.332691
0.356563
0.356517
0.0505811
0.00854453
0.0797407
0.273863
0.720645
0.858814
0.527753
0.470495
0.713803
0.711488
0.597652
0.696817
0.743751
0.749062
0.749061
0.695189
0.287856
0.261861
0.317158
0.0572872
0.154936
0.589086
0.845753
0.905597
0.905802
0.709928
0.724612
0.722548
0.386032
0.375883
0.589877
0.644235
0.555658
0.464009
0.219306
0.12866
0.123999
0.130948
0.270911
0.664585
0.904138
0.904135
0.903414
0.90328
0.898726
0.697013
0.436428
0.345907
0.509895
0.553456
0.264327
0.1367
0.133279
0.124128
0.124023
0.123993
0.123991
0.430086
0.903465
0.904135
0.888601
0.859572
0.850632
0.900355
0.358324
0.542298
0.868822
0.720726
0.346168
0.354125
0.603243
0.495502
0.341627
0.123975
0.123991
0.123983
0.560904
0.894518
0.745531
0.660328
0.703395
0.738062
0.90031
0.541227
0.991341
0.992426
0.992637
0.992724
0.992753
0.992694
0.984268
0.978021
0.970471
0.964853
0.969814
0.975249
0.991393
0.999145
0.996534
0.993062
0.994192
0.99878
0.996198
0.9887
0.972147
0.639395
0.117911
0.583768
0.795973
0.789215
0.685558
0.603745
0.508281
0.400112
0.392583
0.357487
0.346362
0.399901
0.532703
0.613486
0.630272
0.637612
0.724122
0.8459
0.928068
0.971542
0.969748
0.944469
0.579672
0.0300498
0.0251368
0.0851813
0.0900304
0.0511915
0.0146519
1.517e-05
2.33591e-24
3.33946e-41
1.68224e-07
7.95048e-06
1.28906e-10
1.36606e-10
0.00968643
0.0366589
0.0482992
0.0844776
0.193206
0.329364
0.475373
0.747331
0.802697
0.634176
6.77657e-06
6.71889e-06
6.77576e-06
0.000715743
0.00070205
6.00738e-08
1.00527e-25
-1.86159e-32
-2.25378e-26
0.000268187
0.000521431
0.000428377
0.00019346
-1.82385e-09
4.05527e-21
-2.20518e-06
0.000146566
1.6429e-06
2.2074e-05
0.020268
0.254068
0.425881
0.503575
2.67669e-05
6.77696e-06
6.75547e-06
0.000374803
0.000311968
4.09554e-05
1.36914e-08
3.57304e-14
-6.56136e-24
0.000395624
0.00352565
0.00429276
0.00400034
0.00322092
0.00275931
0.00186801
0.000500442
1.25777e-06
0.000915997
0.00387522
0.000342639
0.0143293
0.0453278
4.23381e-05
1.00058e-05
2.02625e-05
3.07144e-05
2.99091e-05
3.25146e-05
1.62953e-05
9.90245e-06
6.29446e-06
0.000376406
0.0018157
0.00384678
0.00461113
0.00168543
0.000619376
0.000794553
0.000319028
9.06334e-05
0.00082803
0.00128114
0.000341254
0.000916218
0.0146797
4.2338e-05
2.45181e-05
2.44069e-05
1.66909e-05
1.97249e-05
2.94083e-05
3.56452e-05
0.000391184
0.0014034
0.00907315
0.0166266
0.0202791
0.0149522
0.00103506
4.69905e-07
5.35652e-07
1.06336e-05
1.62207e-05
0.000384891
0.000548258
0.000339175
0.00282401
0.00680262
4.23381e-05
2.37607e-05
1.80464e-05
1.12231e-05
5.87354e-06
1.2301e-05
1.13465e-05
8.90196e-05
0.0255112
0.0434487
0.04345
0.0434454
0.0423806
0.0044946
4.70154e-07
4.69905e-07
4.73349e-07
0.000168257
0.00115497
0.00230965
0.00314745
0.00542379
0.00480502
4.18343e-05
3.8031e-06
2.06949e-07
2.03193e-07
2.85378e-07
2.31964e-06
3.12295e-06
2.09238e-06
0.0166413
0.043452
0.0434509
0.0434479
0.0183909
4.7016e-07
4.69905e-07
4.75312e-07
0.000732354
0.00219971
0.00270396
0.00372445
0.00505464
0.00501538
0.000756811
3.52307e-05
7.51054e-06
2.0312e-07
2.0311e-07
2.06179e-07
9.42838e-07
1.58452e-06
1.81205e-06
0.00388198
0.0143197
0.0140579
0.00262645
2.78131e-07
5.49011e-07
4.75666e-07
0.0001623
0.00247176
0.00302146
0.00302227
0.00230367
0.00160831
0.00102017
0.000575578
1.61413e-06
2.88347e-07
2.38247e-07
2.82868e-07
7.52354e-07
8.82137e-07
3.4592e-06
4.48036e-06
4.12471e-07
2.41236e-07
2.39639e-07
2.4277e-07
5.55356e-07
1.04431e-05
2.78895e-05
4.0432e-05
1.60323e-05
5.39567e-06
4.37417e-06
4.61349e-06
9.34279e-05
0.00310461
0.0105167
2.0963e-08
2.14993e-08
1.36837e-07
4.744e-07
1.578e-06
1.93776e-06
3.21697e-06
6.07555e-06
7.92086e-06
3.2539e-06
3.68718e-07
2.44908e-07
2.45831e-07
4.79979e-07
9.8969e-05
0.000164957
0.000153455
6.42803e-05
3.24533e-05
1.55709e-05
0.00013411
0.00039546
0.00036745
2.0963e-08
2.0963e-08
2.35744e-08
2.68131e-07
1.99426e-06
1.98747e-06
1.72824e-06
4.65897e-06
7.65887e-06
6.97265e-06
2.8663e-06
4.16462e-07
3.43297e-07
6.97576e-07
8.45518e-07
9.34031e-05
0.000282271
0.000278947
0.000153396
5.02937e-05
3.8152e-05
-3.27827e-10
-3.15787e-09
5.36678e-08
2.22345e-08
2.20634e-08
1.44967e-07
1.45356e-06
1.99426e-06
1.61839e-08
6.7635e-07
5.30402e-06
6.35691e-06
2.59724e-06
3.25101e-07
7.086e-07
1.08626e-06
1.074e-06
3.15716e-07
1.29582e-05
0.000278447
0.000317171
0.000316854
0.000117891
1.47704e-09
2.38144e-13
1.93058e-07
3.04026e-08
2.4068e-08
2.0912e-07
3.58519e-07
2.95837e-07
3.33184e-10
2.83986e-10
2.94441e-07
8.61345e-07
3.88597e-07
3.19993e-08
6.79018e-07
1.0884e-06
1.08627e-06
3.15967e-07
1.33528e-07
1.53577e-07
0.000212675
0.000295767
0.000243667
2.32063e-05
2.54024e-08
1.9564e-07
2.09865e-08
3.68681e-08
1.21352e-07
1.20468e-07
1.21309e-10
1.21351e-10
2.98033e-10
1.20876e-10
1.20829e-10
1.20763e-10
2.30281e-08
2.27191e-07
6.32537e-07
4.00801e-07
5.48384e-08
1.87622e-07
8.71232e-07
7.99907e-08
8.87412e-08
1.42682e-09
8.67836e-06
1.11536e-06
1.95715e-07
5.27619e-09
3.44764e-08
7.87045e-08
2.44286e-08
1.21339e-10
1.33503e-10
4.16746e-10
1.57905e-10
1.20801e-10
1.20791e-10
3.95944e-08
5.16056e-08
4.64771e-08
8.07915e-09
8.26576e-11
2.25801e-07
3.35001e-07
7.97557e-08
5.54691e-09
1.49022e-09
6.62196e-10
3.60337e-10
1.28524e-07
2.63286e-10
1.22321e-08
1.89535e-08
1.34228e-10
1.33728e-10
1.47162e-10
2.92439e-10
1.74613e-10
1.52073e-10
1.74898e-10
7.24498e-09
8.09268e-11
8.11999e-11
8.04403e-11
8.11328e-11
6.04908e-08
3.65727e-08
1.00892e-08
7.30863e-09
8.13376e-09
7.59237e-09
4.36191e-09
7.61389e-08
2.63738e-10
2.93606e-10
1.57777e-10
1.55877e-10
1.62647e-10
1.54561e-10
1.86009e-10
1.56841e-10
1.59611e-10
1.96027e-10
1.07012e-10
1.05809e-10
1.31673e-10
1.94046e-10
3.07055e-10
3.10401e-10
3.88076e-10
4.94851e-09
8.62634e-09
8.69935e-09
7.12122e-09
2.98194e-09
1.06334e-07
2.63244e-10
4.17326e-10
3.35022e-10
2.40833e-10
1.93163e-10
1.51648e-10
1.38956e-10
1.27473e-10
1.31615e-10
1.46016e-10
1.31961e-10
1.53004e-10
2.11242e-10
2.76614e-10
3.41401e-10
4.35012e-10
1.4719e-09
4.09065e-09
5.21339e-09
4.29502e-09
2.29614e-09
1.30857e-09
1.82636e-07
2.63715e-10
5.53444e-10
4.68653e-10
2.87293e-10
1.98504e-10
1.46634e-10
1.18017e-10
1.01549e-10
9.50564e-11
9.71659e-11
1.01687e-10
1.26818e-10
1.73593e-10
2.18813e-10
2.55671e-10
3.94002e-10
9.75385e-10
1.49138e-09
1.38481e-09
8.86387e-10
5.17169e-10
3.68107e-10
1.86255e-07
4.13405e-10
6.52919e-10
5.30955e-10
3.04357e-10
2.08066e-10
1.53041e-10
1.14566e-10
8.84965e-11
7.09449e-11
6.26337e-11
6.37335e-11
7.78762e-11
1.01888e-10
1.26405e-10
1.50387e-10
2.28379e-10
3.69628e-10
3.8618e-10
3.12708e-10
2.15846e-10
1.46219e-10
1.08736e-10
1.87536e-07
6.99939e-10
8.06575e-10
5.81304e-10
3.38917e-10
2.43861e-10
1.84306e-10
1.29188e-10
9.29502e-11
6.37856e-11
4.57493e-11
3.85381e-11
4.01373e-11
4.70901e-11
5.62548e-11
6.80581e-11
9.47415e-11
1.10067e-10
9.91022e-11
7.44178e-11
5.68509e-11
4.18597e-11
3.59261e-11
1.86104e-07
8.16236e-10
9.82557e-10
6.68307e-10
3.75064e-10
3.22919e-10
2.53176e-10
1.62642e-10
1.1421e-10
7.09256e-11
4.28009e-11
2.81956e-11
2.18213e-11
2.01809e-11
2.10852e-11
2.40431e-11
2.93383e-11
2.87366e-11
2.3107e-11
1.69149e-11
1.34434e-11
1.00431e-11
1.03776e-11
1.32775e-07
7.50838e-10
1.17805e-09
8.51827e-10
5.24636e-10
4.3267e-10
3.70202e-10
2.15546e-10
1.51174e-10
8.87435e-11
4.83219e-11
2.64739e-11
1.58049e-11
1.06255e-11
8.34425e-12
7.67457e-12
7.3934e-12
6.48077e-12
4.78643e-12
3.51009e-12
2.74086e-12
2.25568e-12
2.56767e-12
1.43429e-08
7.51106e-10
1.30525e-09
9.95658e-10
8.3628e-10
7.85247e-10
5.37146e-10
2.96728e-10
2.09915e-10
1.20101e-10
5.89093e-11
2.84675e-11
1.46378e-11
7.98645e-12
4.65365e-12
3.03904e-12
2.25273e-12
1.48107e-12
8.77495e-13
6.11975e-13
4.83559e-13
4.65656e-13
6.11853e-13
5.26008e-09
5.69189e-10
1.32738e-09
1.17243e-09
1.28699e-09
1.48466e-09
8.08913e-10
4.10569e-10
2.92885e-10
1.65345e-10
7.83006e-11
3.5427e-11
1.55284e-11
7.33313e-12
3.64407e-12
1.86931e-12
9.98493e-13
5.53149e-13
2.74464e-13
1.20776e-13
8.45676e-14
7.95618e-14
1.07642e-13
5.49808e-10
5.49987e-10
1.02269e-09
1.35003e-09
1.79936e-09
1.80053e-09
1.17889e-09
5.69694e-10
4.07039e-10
2.42549e-10
1.10581e-10
4.55721e-11
1.86853e-11
7.67603e-12
3.24293e-12
1.47087e-12
6.73027e-13
3.06841e-13
1.38685e-13
6.29934e-14
1.80948e-14
1.30104e-14
1.85142e-14
3.58558e-07
8.65707e-09
6.25818e-10
1.2969e-09
1.82841e-09
1.81596e-09
1.43274e-09
7.98931e-10
5.68217e-10
3.48685e-10
1.69269e-10
6.87295e-11
2.54345e-11
9.13984e-12
3.37431e-12
1.28071e-12
5.23602e-13
2.13791e-13
8.61709e-14
3.50671e-14
1.03214e-14
3.62258e-15
2.88154e-15
1.37133e-06
2.35643e-08
6.27829e-10
1.08786e-09
1.43645e-09
1.20586e-09
1.53671e-09
1.13997e-09
8.07128e-10
5.21703e-10
2.70101e-10
1.13827e-10
4.27713e-11
1.38834e-11
4.3996e-12
1.36512e-12
4.59632e-13
1.63549e-13
5.80244e-14
2.05301e-14
6.18587e-15
2.19088e-15
5.40535e-16
1.37134e-06
1.42879e-08
9.85483e-09
8.00592e-10
6.49847e-10
4.41517e-10
1.67518e-09
1.65596e-09
1.14814e-09
7.71638e-10
4.46611e-10
2.06722e-10
8.06039e-11
2.81512e-11
8.50131e-12
2.46328e-12
5.8535e-13
1.67783e-13
4.85128e-14
1.40205e-14
2.88566e-15
1.04229e-15
1.3313e-16
1.37134e-06
6.15029e-07
7.73898e-08
4.40399e-10
4.38984e-10
4.40393e-10
8.00878e-09
3.00818e-09
1.60002e-09
1.15335e-09
6.50807e-10
3.34239e-10
1.52593e-10
5.84803e-11
1.89172e-11
5.33122e-12
1.15615e-12
2.92308e-13
6.54574e-14
1.35834e-14
2.4478e-15
5.96341e-16
8.45827e-17
1.37134e-06
1.37134e-06
9.42235e-08
5.51304e-08
1.23064e-09
1.38981e-07
4.61863e-08
1.8834e-09
1.95855e-09
1.8135e-09
1.01078e-09
5.04201e-10
2.3593e-10
9.62374e-11
3.30957e-11
1.00731e-11
2.58228e-12
5.62919e-13
1.12567e-13
2.07357e-14
3.38592e-15
3.45752e-16
5.98119e-17
6.47247e-07
7.99084e-07
1.10371e-07
8.6936e-07
2.1591e-06
1.10178e-06
1.79992e-08
1.89863e-09
3.79686e-09
4.12461e-09
1.71629e-09
6.82892e-10
3.09555e-10
1.30318e-10
4.69098e-11
1.46255e-11
3.77978e-12
8.77172e-13
1.70149e-13
2.98634e-14
2.85933e-15
4.24362e-16
5.65215e-17
2.042e-07
4.66647e-07
1.35791e-06
3.28884e-06
3.1398e-06
1.4931e-06
9.06677e-08
4.07211e-09
8.51619e-09
6.15776e-09
1.66155e-09
7.14012e-10
3.43285e-10
1.48698e-10
5.5751e-11
1.73649e-11
4.68944e-12
1.10555e-12
2.25067e-13
3.71731e-14
5.61934e-15
3.56139e-16
5.63576e-17
1.99707e-07
2.00534e-07
2.86284e-06
3.30936e-06
3.31275e-06
7.2905e-07
9.27955e-08
6.77047e-09
1.03299e-08
5.29188e-09
1.32573e-09
6.66248e-10
3.33377e-10
1.46172e-10
5.67599e-11
1.84984e-11
4.99751e-12
1.12386e-12
2.12649e-13
3.41713e-14
4.77121e-15
4.5712e-16
2.2415e-17
9.45635e-07
3.31879e-07
9.23192e-07
2.19196e-06
8.46067e-07
5.71773e-08
3.27931e-08
1.33192e-08
8.77675e-09
2.30947e-09
1.04673e-09
5.67347e-10
2.7715e-10
1.19932e-10
4.45174e-11
1.36991e-11
3.47513e-12
7.30916e-13
1.29135e-13
1.86532e-14
2.47901e-15
1.16122e-16
1.30169e-17
1.18684e-06
3.35842e-07
8.97902e-09
6.94484e-08
4.63181e-08
1.97463e-08
9.88771e-09
9.89468e-09
3.92941e-09
1.46748e-09
7.87729e-10
4.24339e-10
1.91275e-10
7.71779e-11
2.58746e-11
7.12805e-12
1.62595e-12
3.1139e-13
4.86283e-14
6.5062e-15
7.43641e-16
5.86094e-17
3.79495e-18
1.18684e-06
3.60551e-07
7.78965e-09
8.07381e-09
8.05882e-09
1.01086e-08
1.00396e-08
5.37603e-09
1.98291e-09
1.04549e-09
6.04069e-10
2.91758e-10
1.08185e-10
3.5798e-11
1.02641e-11
2.47483e-12
5.00782e-13
8.54009e-14
1.23076e-14
1.38852e-15
1.27314e-16
1.01421e-17
6.83309e-19
1.10859e-06
1.02765e-06
1.2978e-07
9.50686e-08
1.17617e-07
1.06734e-07
1.07903e-08
1.83965e-09
1.17416e-09
7.72527e-10
3.85771e-10
1.37014e-10
4.48694e-11
1.24732e-11
2.91692e-12
5.84011e-13
1.00999e-13
1.50106e-14
1.86104e-15
1.94275e-16
1.42766e-17
1.05214e-18
6.14321e-20
1.17345e-07
7.41918e-07
9.01856e-07
8.90141e-07
9.00825e-07
3.70173e-07
9.76579e-10
9.85394e-10
7.79113e-10
4.40034e-10
1.75674e-10
5.50501e-11
1.43972e-11
3.14491e-12
5.88455e-13
9.69055e-14
1.42005e-14
1.82566e-15
1.99203e-16
1.82433e-17
1.34483e-18
7.31322e-20
3.27285e-21
1.61657e-08
1.90255e-07
5.73752e-07
7.00976e-07
5.47299e-07
1.71205e-07
1.11942e-09
7.31268e-10
4.57667e-10
2.09028e-10
6.68741e-11
1.66348e-11
3.35881e-12
5.71265e-13
8.55742e-14
1.16049e-14
1.43127e-15
1.56506e-16
1.46629e-17
1.18855e-18
7.57e-20
3.40205e-21
1.00927e-22
0.302553
0.302861
0.307473
0.433722
0.328092
0.379686
0.915729
0.997257
0.919311
0.993571
0.993963
0.997211
0.993814
0.99374
0.992078
0.966905
0.381646
0.706267
0.7499
0.620649
0.0223765
0.0293518
0.0210099
0.00505349
0.00373831
0.000490753
0.000500537
0.000593034
0.000475049
0.000481637
0.00049149
0.000501486
0.000471582
0.000506515
0.00055506
0.000625752
0.000496275
0.000502833
0.00372736
0.0109918
0.0110591
0.0110522
0.0109501
0.00895918
3.87502e-05
1.42702e-06
4.97818e-11
3.28762e-11
1.32485e-07
6.39978e-06
9.77808e-06
7.16704e-06
1.40295e-05
3.37116e-05
3.87591e-05
3.86244e-05
1.17839e-09
1.63768e-09
-6.12203e-11
-1.0725e-11
8.45311e-08
5.7928e-08
1.50077e-08
3.86274e-09
3.74934e-10
3.23958e-10
3.9765e-10
4.25367e-10
1.94015e-09
1.51783e-09
1.217e-09
1.07587e-09
2.01519e-09
1.52061e-09
1.35716e-09
1.09292e-09
8.74201e-10
6.40526e-10
5.58891e-10
4.69139e-10
2.93307e-10
2.49199e-10
2.07894e-10
2.25845e-10
9.66726e-11
9.61745e-11
1.07076e-10
1.38453e-10
3.60001e-11
4.06104e-11
4.99739e-11
6.58666e-11
1.19527e-11
1.36331e-11
1.77939e-11
2.30728e-11
3.06545e-12
3.9552e-12
5.2064e-12
6.76731e-12
8.01721e-13
9.22246e-13
1.27622e-12
1.75912e-12
1.45622e-13
2.02961e-13
2.80961e-13
4.23436e-13
2.64297e-14
3.17979e-14
4.80976e-14
7.72151e-14
3.64352e-15
4.75183e-15
7.09828e-15
1.28036e-14
5.14962e-16
5.85077e-16
8.28288e-16
1.75792e-15
6.25577e-17
6.93762e-17
1.09065e-16
1.88665e-16
3.25931e-18
6.2603e-18
8.68434e-18
1.93893e-17
7.2346e-22
2.24849e-19
7.25725e-19
1.5444e-18
8.54088e-30
1.45755e-20
4.54276e-20
1.44689e-19
7.15463e-22
7.07525e-22
3.78374e-21
1.14537e-20
1.21478e-18
1.91705e-21
3.47658e-22
1.11515e-21
9.20609e-19
2.5329e-21
6.18483e-23
1.1531e-22
3.97235e-19
3.01937e-21
4.37365e-24
1.12661e-23
5.64259e-20
3.84229e-22
4.21713e-25
9.57639e-25
3.53948e-21
7.63663e-24
2.92725e-26
8.57813e-26
5.45764e-23
9.40312e-27
3.28058e-27
8.3567e-27
1.02647e-25
6.17495e-28
3.49797e-28
7.02618e-28
0.853985
0.981444
0.886129
0.517777
0.488583
0.905604
0.999951
0.999951
0.961616
0.832613
0.683911
0.693095
0.81975
0.579745
0.505907
0.5381
0.685934
0.826027
0.897373
0.997271
0.993134
0.957248
0.948973
0.980661
0.998819
0.999023
0.999955
0.999959
0.999959
0.999041
0.997163
0.939227
0.528122
0.495637
0.609385
0.597671
0.828186
0.778829
0.997238
0.995927
0.998126
0.999663
0.99967
0.99967
0.999106
0.998965
0.999316
0.997741
0.996165
0.995104
0.936631
0.635012
0.481537
0.517661
0.494383
0.778487
0.410028
0.946368
0.941587
0.971343
0.987815
0.989681
0.958958
0.937505
0.949639
0.977915
0.955093
0.791753
0.661932
0.58971
0.515784
0.45324
0.262708
0.494221
0.556884
0.32618
0.452748
0.347953
0.346515
0.418629
0.447494
0.435352
0.471385
0.639039
0.770145
0.833909
0.576772
0.330707
0.315467
0.315309
0.335012
0.219609
0.530012
0.551605
0.325442
0.000128873
0.000129278
0.000126425
7.62768e-09
5.18054e-11
-5.49465e-14
-2.64855e-13
-1.94109e-19
0.0807292
0.226242
0.369148
0.398416
0.394788
0.189094
0.0749976
0.200043
0.470457
0.481396
0.325743
0.000581645
0.000936165
0.00154006
0.000816415
0.000151144
-1.20543e-12
9.85029e-12
3.52892e-11
1.55391e-21
1.71901e-21
1.55396e-21
3.16872e-05
7.28123e-11
-5.55311e-07
0.0279598
0.0841747
0.0648102
0.213605
0.332366
0.000897891
0.00180983
0.00509149
0.00660958
0.00208908
3.53895e-19
2.88962e-09
5.52063e-09
1.89824e-09
2.09115e-07
8.21517e-05
0.000438287
0.00774648
0.0196787
0.0163425
1.99727e-08
2.00008e-08
1.99727e-08
0.250551
0.000951845
0.00709253
0.0108696
0.0105904
0.00251445
3.5493e-10
1.61244e-05
0.000126953
0.000172678
0.000154272
0.000986958
0.00295135
0.00285876
0.00125428
3.62646e-07
3.91202e-07
6.21061e-06
0.000208809
2.31759e-09
0.0109978
0.0109923
0.00944879
0.0010368
1.97084e-06
8.9101e-06
0.000100196
0.000402268
0.000441459
0.000431202
9.55073e-05
5.10474e-06
4.01832e-06
6.9895e-06
7.7297e-06
3.58277e-06
4.42202e-07
4.24901e-09
2.31675e-09
0.00638863
0.00303808
2.83752e-07
9.13117e-10
2.61275e-06
2.60592e-05
0.000370541
0.000423513
0.000416861
8.82486e-05
8.02488e-05
9.68604e-05
0.000132451
0.00012804
4.18735e-05
8.66745e-06
1.14794e-06
1.61079e-08
2.49991e-09
7.37012e-12
5.31833e-13
7.80823e-28
-4.53749e-15
-8.36855e-24
6.59729e-06
0.000105392
0.000171926
6.42263e-05
1.78448e-05
4.36202e-05
0.000181465
0.000192723
0.000215643
0.000118977
2.9081e-05
2.61109e-06
2.10755e-09
2.92979e-09
3.02239e-06
7.37788e-07
-2.46243e-19
2.46237e-19
3.0406e-24
3.14597e-21
7.35539e-11
-2.32601e-15
1.29415e-16
-2.96406e-12
-1.0231e-11
2.50347e-05
6.72108e-05
0.000162903
6.65673e-05
2.96002e-05
2.45009e-06
2.09484e-09
3.10968e-09
2.20639e-05
1.68275e-05
2.19992e-05
1.51652e-05
8.57259e-06
5.51888e-06
1.42923e-06
-1.9191e-25
1.26492e-09
1.08229e-09
2.44136e-09
3.89172e-11
1.59045e-09
3.89635e-11
4.67391e-11
-6.56065e-10
1.80183e-06
1.16365e-07
8.44714e-09
1.69471e-06
1.3245e-05
5.99687e-05
7.30777e-05
7.30679e-05
7.09784e-05
5.70866e-05
2.7905e-05
1.85698e-06
1.08133e-09
2.92395e-09
3.15734e-09
7.7585e-08
2.03425e-06
1.97717e-06
1.05332e-07
3.0942e-08
8.53295e-08
1.2682e-08
3.27167e-10
3.30593e-10
9.40534e-07
2.93834e-05
7.13697e-05
7.84768e-05
7.84713e-05
7.00669e-05
3.52075e-05
2.23643e-07
1.97173e-09
1.96625e-09
1.08641e-05
2.29321e-05
1.38683e-05
5.81358e-07
5.5795e-08
1.54605e-08
5.12613e-09
5.04523e-10
6.78386e-10
7.51154e-10
6.29182e-10
2.24433e-08
3.10915e-05
7.76992e-05
6.71449e-05
4.66806e-05
3.58862e-06
2.00468e-09
2.13807e-09
2.06032e-05
2.29323e-05
2.22456e-05
1.33077e-06
6.734e-08
3.76873e-09
4.32223e-10
1.22604e-09
1.78843e-09
1.61094e-09
1.07939e-09
6.00415e-10
1.30324e-08
6.46278e-06
9.94371e-06
5.87406e-06
2.98596e-06
3.97322e-07
3.63795e-09
1.52098e-05
2.29316e-05
6.00847e-06
1.02846e-07
2.52081e-08
2.55207e-09
4.06983e-11
1.34872e-09
2.11219e-09
2.44186e-09
2.14796e-09
7.59919e-10
4.45377e-10
1.99631e-09
1.01826e-09
3.01724e-10
1.54437e-07
2.94526e-07
4.56611e-07
1.25565e-06
2.51883e-06
6.92327e-08
3.55569e-08
1.16235e-08
1.07473e-09
4.08098e-11
9.66042e-10
1.66905e-09
2.12229e-09
2.00591e-09
1.25328e-09
6.23637e-10
2.99016e-10
2.0441e-10
2.03773e-10
1.14662e-07
6.21189e-07
7.32943e-07
4.57257e-08
9.6279e-09
3.4723e-09
1.36517e-09
9.4801e-10
5.07688e-10
2.34572e-11
5.86023e-10
1.01974e-09
1.24969e-09
1.23175e-09
1.01066e-09
6.94005e-10
2.98114e-10
2.06555e-10
2.03886e-10
2.31995e-07
6.22434e-07
2.03439e-07
2.27574e-08
2.43384e-09
1.83775e-10
1.27527e-10
5.68311e-11
5.98119e-11
9.23295e-12
2.93476e-10
4.19995e-10
4.88596e-10
5.40524e-10
5.4241e-10
4.30441e-10
2.65499e-10
7.21104e-10
9.98313e-09
5.33764e-08
1.78131e-07
4.11975e-08
9.76954e-09
1.69109e-09
2.91706e-10
1.13275e-10
5.7968e-11
2.94764e-11
5.12089e-12
1.2357e-10
1.66832e-10
1.86427e-10
2.02758e-10
2.12874e-10
1.90073e-10
2.3597e-10
2.22711e-09
1.11712e-08
2.81986e-10
1.65748e-11
1.54584e-11
9.4067e-11
1.2089e-10
1.1567e-10
9.88457e-11
7.32781e-11
2.40295e-11
2.98053e-12
4.26348e-11
5.8595e-11
6.90123e-11
7.68194e-11
8.77581e-11
8.83274e-11
2.79686e-10
6.83627e-10
1.43003e-09
4.38083e-10
1.07376e-10
9.32402e-11
9.92029e-11
9.48746e-11
8.46548e-11
7.08679e-11
3.96945e-11
1.37007e-11
2.13468e-12
1.3495e-11
2.01443e-11
2.46377e-11
2.95204e-11
3.48442e-11
4.44826e-11
4.27583e-11
3.23713e-11
3.06438e-11
3.97007e-11
5.33978e-11
5.91962e-11
5.87418e-11
5.16115e-11
4.94779e-11
4.25075e-11
2.29105e-11
9.09389e-12
1.48156e-12
3.98113e-12
6.17399e-12
8.15104e-12
1.0286e-11
1.28654e-11
1.72612e-11
1.95415e-11
1.95466e-11
2.21197e-11
2.5183e-11
2.66142e-11
2.61457e-11
2.55759e-11
2.65726e-11
2.55535e-11
2.45151e-11
1.21645e-11
3.61504e-12
1.02273e-12
1.03292e-12
1.74345e-12
2.62627e-12
3.46424e-12
4.94094e-12
5.87333e-12
7.59897e-12
8.96017e-12
9.97056e-12
1.06085e-11
1.0711e-11
1.07443e-11
1.1028e-11
6.87964e-12
6.54511e-12
7.71779e-12
4.58667e-12
1.70471e-12
8.23142e-13
2.07174e-13
3.97494e-13
6.77264e-13
1.03776e-12
1.41738e-12
2.09609e-12
2.63308e-12
2.98853e-12
3.33219e-12
3.56169e-12
3.80658e-12
3.61808e-12
1.8214e-12
1.30282e-12
1.54659e-12
1.89218e-12
1.65617e-12
9.30536e-13
7.57373e-13
3.84973e-14
7.69634e-14
1.44357e-13
2.50487e-13
4.02842e-13
5.60763e-13
7.5909e-13
9.22545e-13
9.86264e-13
9.45667e-13
5.45138e-13
3.0183e-13
1.65989e-13
1.90116e-13
3.19275e-13
4.62835e-13
5.36054e-13
7.56224e-13
6.67073e-13
5.22714e-15
1.20488e-14
2.44427e-14
4.57632e-14
7.92119e-14
1.27016e-13
1.68117e-13
1.95142e-13
1.4948e-13
5.52031e-14
2.46962e-14
1.48983e-14
2.10405e-14
4.05944e-14
8.93165e-14
1.789e-13
3.41392e-13
6.77862e-13
5.77358e-13
6.52121e-16
1.45792e-15
3.12225e-15
6.55709e-15
1.21563e-14
1.96677e-14
2.66044e-14
2.64396e-14
1.57444e-14
4.47544e-15
2.45847e-15
4.34806e-15
9.01202e-15
2.35971e-14
6.5612e-14
1.54056e-13
3.21782e-13
6.51007e-13
4.70823e-13
5.9751e-17
1.33464e-16
3.19606e-16
7.30829e-16
1.41159e-15
2.22601e-15
2.68384e-15
2.32269e-15
1.12297e-15
8.23081e-16
1.60992e-15
3.75924e-15
8.54914e-15
2.1832e-14
6.58576e-14
1.62933e-13
3.35054e-13
5.94729e-13
4.20365e-13
5.12346e-18
1.22722e-17
2.9627e-17
7.04809e-17
1.38354e-16
2.10382e-16
2.46108e-16
2.15272e-16
2.62784e-16
5.368e-16
1.29624e-15
3.13941e-15
7.86358e-15
1.93175e-14
6.30557e-14
1.71267e-13
3.36884e-13
5.38791e-13
3.30141e-13
4.52118e-19
1.16725e-18
2.80739e-18
6.24596e-18
1.27845e-17
2.06074e-17
3.02008e-17
5.29466e-17
1.2686e-16
3.32758e-16
8.68845e-16
2.22763e-15
6.02499e-15
1.55952e-14
4.33079e-14
1.37875e-13
3.15637e-13
4.27174e-13
2.22909e-13
3.93232e-20
1.12066e-19
3.1607e-19
7.96436e-19
1.77031e-18
3.72119e-18
7.83312e-18
2.1065e-17
5.92637e-17
1.68045e-16
4.64377e-16
1.28829e-15
3.61086e-15
1.05566e-14
2.37264e-14
8.15975e-14
2.19609e-13
3.44813e-13
1.44903e-13
3.95644e-21
1.25523e-20
3.778e-20
1.0931e-19
3.02126e-19
8.3575e-19
2.46294e-18
7.64316e-18
2.39035e-17
7.35809e-17
2.2631e-16
6.95125e-16
2.06853e-15
6.13378e-15
1.59293e-14
3.64736e-14
1.11574e-13
1.99673e-13
8.48459e-14
4.01792e-22
1.35539e-21
4.70898e-21
1.57756e-20
5.17064e-20
1.6753e-19
5.72762e-19
2.01914e-18
6.96444e-18
2.4693e-17
8.8137e-17
3.06727e-16
1.0129e-15
3.19471e-15
8.91068e-15
1.93709e-14
4.4853e-14
1.04383e-13
4.87123e-14
3.67016e-23
1.42638e-22
5.27491e-22
1.91917e-21
6.97273e-21
2.52505e-20
1.008e-19
4.00223e-19
1.56889e-18
6.57159e-18
2.73364e-17
1.12523e-16
4.44532e-16
1.46791e-15
4.19491e-15
9.85865e-15
2.11902e-14
4.51619e-14
2.70436e-14
3.34446e-24
1.28684e-23
4.3006e-23
1.3837e-22
4.87913e-22
1.99407e-21
9.41181e-21
5.00338e-20
2.59769e-19
1.31471e-18
6.4161e-18
3.2779e-17
1.4969e-16
5.46031e-16
1.51032e-15
4.13523e-15
8.79705e-15
1.52725e-14
1.35928e-14
2.63552e-25
9.25528e-25
2.95323e-24
9.98263e-24
4.12867e-23
2.03656e-22
1.1652e-21
6.90088e-21
4.36961e-20
2.72266e-19
1.66197e-18
1.01467e-17
5.16208e-17
1.91533e-16
5.67466e-16
1.3216e-15
2.86147e-15
5.63598e-15
7.39927e-15
1.91423e-26
5.7305e-26
1.59709e-25
5.43236e-25
2.53349e-24
1.5664e-23
1.12709e-22
8.27894e-22
6.51232e-21
5.04229e-20
3.79699e-19
2.51294e-18
1.34177e-17
5.36465e-17
1.67615e-16
4.13814e-16
6.36317e-16
2.19845e-15
2.27734e-15
1.20265e-27
2.8098e-27
7.02864e-27
2.5885e-26
1.35427e-25
9.52623e-25
8.85531e-24
8.46222e-23
7.99387e-22
6.64075e-21
5.15709e-20
3.1835e-19
1.83976e-18
7.85182e-18
2.65019e-17
6.88431e-17
1.52117e-16
2.37798e-16
5.94243e-17
)
;

boundaryField
{
    leftWall
    {
        type            zeroGradient;
    }
    rightWall
    {
        type            zeroGradient;
    }
    lowerWall
    {
        type            zeroGradient;
    }
    atmosphere
    {
        type            inletOutlet;
        inletValue      uniform 0;
        value           nonuniform List<scalar> 
46
(
1.61657e-08
1.90255e-07
5.73752e-07
7.00976e-07
5.47299e-07
1.71205e-07
1.11942e-09
7.31268e-10
4.57667e-10
2.09028e-10
6.68741e-11
1.66348e-11
3.35881e-12
5.71265e-13
8.55742e-14
1.16049e-14
1.43127e-15
1.56506e-16
1.46629e-17
1.18855e-18
7.57e-20
3.40205e-21
0
0
0
0
0
0
0
0
0
0
0
0
0
0
0
0
0
0
0
0
0
0
0
0
)
;
    }
    defaultFaces
    {
        type            empty;
    }
}


// ************************************************************************* //
