/*--------------------------------*- C++ -*----------------------------------*\
| =========                 |                                                 |
| \\      /  F ield         | OpenFOAM: The Open Source CFD Toolbox           |
|  \\    /   O peration     | Version:  2312                                  |
|   \\  /    A nd           | Website:  www.openfoam.com                      |
|    \\/     M anipulation  |                                                 |
\*---------------------------------------------------------------------------*/
FoamFile
{
    version     2.0;
    format      ascii;
    arch        "LSB;label=32;scalar=64";
    class       volScalarField;
    location    "2";
    object      alphas;
}
// * * * * * * * * * * * * * * * * * * * * * * * * * * * * * * * * * * * * * //

dimensions      [0 0 0 0 0 0 0];

internalField   nonuniform List<scalar> 
2268
(
2
2
2
2
2
2
2
2
2
2
2
2
2
2
2
2
2
2
2
2
2
1.99995
1.99994
2
2
2
2
2
2
2
2
2
2
2
2
2
2
2
2
2
2
2
2
2
1.99998
1.99996
2
2
2
2
2
2
2
2
2
2
2
2
2
2
2
2
2
2
2
2
2
2
2
2
2
2
2
2
2
2
2
2
2
2
2
2
2
2
2
2
2
2
2
2
2
2
2
2
2
2
2
2
2
2
2
1.99999
1.99999
1.99999
1.99999
2
1.9999
1.9995
1.99807
1.99425
1.98566
1.97505
1.94664
1.92316
1.90823
1.96499
1.9974
1.98955
1.99887
2.00002
2.00005
2.00009
1.99992
1.96893
1.83731
1.63491
1.43374
1.28842
1.20522
1.16716
1.13273
1.07543
1.00366
0.918182
0.806027
0.670866
0.548985
0.56586
1.72076
1.78805
1.78879
1.81465
1.82157
1.78729
1.6287
1.24665
0.739019
0.370846
0.160673
0.0489258
0.00169893
0.00159913
0.00175819
0.00196565
0.00229773
0.00379716
0.00508818
0.00503444
0.012528
0.0132927
0.01336
0.711625
0.390171
0.381917
0.412869
0.4015
0.323353
0.158321
0.0239955
0.00336555
0.00276657
0.00231085
0.00207498
0.00199646
0.00203442
0.00202265
0.00206767
0.00206563
0.00206507
0.00403228
0.0114812
0.0109484
0.01773
0.074058
1.80438
1.88483
1.88274
1.87355
1.8929
1.89569
1.91372
1.91587
1.92268
1.92349
1.92442
1.93523
1.93183
1.92904
1.93174
1.93174
1.93437
1.94326
1.94625
1.79849
1.887
1.8225
1.73474
1.6321
1.62242
1.58833
1.55127
1.41856
1.49728
1.71773
1.68293
1.73073
1.80621
1.83352
1.85647
1.8759
1.8187
1.72527
1.82165
1.74024
1.52621
1.36864
1.25075
1.1245
1.02239
1.09076
1.12751
1.18304
1.18573
1.39952
1.49643
1.48978
1.57913
1.46143
1.07249
0.800673
0.889925
1.51321
1.4119
0.876265
0.611525
0.629287
0.56287
0.495057
0.526366
0.662416
0.997449
1.20401
1.11513
1.32625
1.61063
1.48992
0.989212
0.28118
0.137402
0.481912
0.817603
0.463661
0.464325
0.593383
0.514847
0.457339
0.439014
0.414131
0.424174
0.85347
1.20756
1.0373
1.35393
1.18454
0.48293
0.159618
0.0989982
0.0986165
0.2887
0.454695
0.447918
0.809926
0.823023
0.624296
0.569039
0.611969
0.695279
0.945903
1.06823
1.16026
1.22686
0.82835
0.345094
0.105792
0.102029
0.105658
0.107527
0.103546
0.385666
0.672095
0.776216
0.637436
0.593728
0.893921
1.01647
1.02687
1.08352
1.15335
1.195
1.29913
0.649381
0.11354
0.109095
0.130086
0.170709
0.198351
0.106505
0.705479
0.482631
0.229624
0.424279
0.788499
0.731844
0.390928
0.503985
0.752079
1.24674
1.31931
1.33209
0.731945
0.132039
0.283851
0.383813
0.349304
0.328928
0.108273
0.445229
0.0177116
0.0170771
0.0197102
0.0202102
0.0186472
0.0136756
0.0318579
0.0507
0.0651499
0.0859102
0.0887947
0.0760001
0.0258575
0.00259633
0.0105685
0.0205173
0.0165119
0.00391323
0.0110262
0.0346836
0.0813499
0.489221
0.954249
0.429003
0.207076
0.218258
0.324188
0.408294
0.512238
0.655338
0.698568
0.748164
0.812144
0.872846
0.766368
0.655744
0.491322
0.380222
0.319622
0.200989
0.10389
0.0314167
0.0621232
0.165765
0.526585
1.17159
1.17328
0.965901
0.914228
0.954766
1.0091
1.02873
1.02792
1.00933
1.00185
1.00179
1.02948
1.26974
1.29612
1.26825
1.02977
0.947986
0.849682
0.691002
0.500319
0.298454
0.348412
0.374116
1.09492
1.09913
1.0332
1.00574
1.00576
1.0079
1.01908
1.00694
1.00196
1.00117
1.00096
1.00118
1.00216
1.00421
1.01471
1.01067
1.00812
1.02282
1.01756
0.980878
0.811926
0.702808
0.485976
1.01198
1.00786
1.00785
1.00674
1.04225
1.07136
1.03939
1.05443
1.13139
1.30044
1.48908
1.58608
1.52019
1.36361
1.13064
1.00588
1.00706
1.01087
1.01175
1.01255
1.10904
1.12514
0.981472
1.08833
1.09482
1.0479
1.00777
1.01634
1.21157
1.66561
2.14208
2.45989
2.71922
2.89521
2.9064
2.87704
2.7927
2.51201
1.85949
1.25023
1.01038
1.00735
1.0086
1.07027
1.10454
1.05527
1.97044
1.49325
1.29082
1.44858
1.84283
2.33378
2.74911
2.99784
2.99462
2.9654
2.92261
2.55916
2.12917
1.84187
1.59692
1.3252
1.08435
1.00902
1.00787
1.00758
1.00813
1.03465
1.10047
2.66106
2.6908
2.76825
2.90753
2.99998
2.99996
2.99996
2.99314
2.89058
2.86878
2.12959
0.965104
0.973551
1.00759
1.00946
1.00913
1.00911
1.00853
1.00491
1.00177
1.00079
1.0348
1.06553
2.99987
2.99999
3
3
3
2.99999
3
2.99876
2.91751
2.86873
2.81895
1.93221
1.24375
1.07989
1.00913
1.00906
1.00615
1.00218
1.001
0.999694
1.00021
1.0029
1.00747
2.99989
2.99997
2.99999
3
3
3
3
2.99992
2.97962
2.95466
2.96678
2.998
2.99995
2.48684
1.44621
1.13449
1.05547
1.02668
1.01406
1.00441
1.00379
1.00558
1.00725
2.99999
2.99999
2.99999
2.99999
2.99999
2.99999
2.99999
2.99999
3
3
3
3
3
2.99995
2.9999
2.92735
2.41452
2.15207
2.23244
2.58774
2.64946
2.61017
2.70914
3
3
2.99999
2.99999
2.99999
2.99996
2.99988
2.99991
2.99998
2.99999
3
3
3
2.99999
2.99962
2.9993
2.99922
2.99947
2.99952
2.99955
2.99924
2.99868
2.99918
3
3
3
3
2.99999
2.99998
2.99981
2.99976
2.99979
2.99988
2.99998
3
3
3
3
2.99965
2.99911
2.9989
2.99902
2.99871
2.99876
2.99935
2.99958
3
3
3
3
2.99999
2.99999
2.99995
2.99976
2.99972
2.99972
2.99988
3
3
3
3
3
2.99995
2.99912
2.99893
2.99899
2.99962
2.99994
2.99895
3
3
3
3
3
3
3
2.99996
2.99984
2.99981
2.99991
3
3
3
3
3
3
3
2.99934
2.99908
2.99929
2.99994
3
3
3
3
3
3
3
3
3
3
3
3
3
3
3
3
3
3
3
3
3
3
2.99997
3
3
3
3
3
3
3
3
3
3
3
3
3
3
3
3
3
3
3
3
3
3
3
3
3
3
3
3
3
3
3
3
3
3
3
3
3
3
3
3
3
3
3
3
3
3
3
3
3
3
3
3
3
3
3
3
3
3
3
3
3
3
3
3
3
3
3
3
3
3
3
3
3
3
3
3
3
3
3
3
3
3
3
3
3
3
3
3
3
3
3
3
3
3
3
3
3
3
3
3
3
3
3
3
3
3
3
3
3
3
3
3
3
3
3
3
3
3
3
3
3
3
3
3
3
3
3
3
3
3
3
3
3
3
3
3
3
3
3
3
3
3
3
3
3
3
3
3
3
3
3
3
3
3
3
3
3
3
3
3
3
3
3
3
3
3
3
3
3
3
3
3
3
3
3
3
3
3
3
3
3
3
3
3
3
3
3
3
3
3
3
3
3
3
3
3
3
3
3
3
3
3
3
3
3
3
3
3
3
3
3
3
3
3
3
3
3
3
3
3
3
3
3
3
3
3
3
3
3
3
3
3
3
3
3
3
3
3
3
3
3
3
3
3
3
3
3
3
3
3
3
3
3
3
3
3
3
3
3
3
3
3
3
3
3
3
3
3
3
3
3
3
3
3
3
3
3
3
3
3
3
3
3
3
3
3
3
3
3
3
3
3
3
3
3
3
3
3
3
3
3
3
3
3
3
3
3
3
3
3
3
3
3
3
3
3
3
3
3
3
3
3
3
3
3
3
3
3
3
3
3
3
3
3
3
3
3
3
3
3
3
3
3
3
3
3
3
3
3
3
3
3
3
3
3
3
3
3
3
3
3
3
3
3
3
3
3
3
3
3
3
3
3
3
3
3
3
3
3
3
3
3
3
3
3
3
3
3
3
3
3
3
3
3
3
3
2.99999
3
3
3
3
3
3
3
3
3
3
3
3
3
3
3
3
3
3
3
3
3
2.99999
2.99999
2.99999
3
3
3
3
3
3
3
3
3
3
3
3
3
3
3
3
3
2.99996
2.99998
2.99999
2.99999
2.99999
3
3
3
3
3
3
3
3
3
3
3
3
3
3
3
3
3
3
2.99994
2.99994
2.99995
2.99999
3
3
3
3
3
3
3
3
3
3
3
3
3
3
3
3
3
3
3
2.99994
2.99994
2.99997
3
3
3
3
3
3
3
3
3
3
3
3
3
3
3
3
3
3
3
3
2.99994
2.99999
3
3
3
3
3
3
3
3
3
3
3
3
3
3
3
3
3
3
3
3
3
2.99996
2.99998
3
3
2.99999
2.99999
3
3
3
3
3
3
3
3
3
3
3
3
3
3
3
3
3
3
2.99994
2.99994
2.99994
2.99994
2.99997
3
3
3
3
3
3
3
3
3
3
3
3
3
3
3
3
3
3
2.99998
2.99995
2.99995
2.99996
2.99998
3
3
3
3
3
3
3
3
3
3
3
3
3
3
3
3
3
0.755618
0.738362
0.72035
0.530163
0.675819
0.565237
0.0358761
0.00550403
0.0536969
0.00756402
0.00653097
0.00609802
0.00831676
0.0182593
0.0264128
0.106619
0.572961
0.368178
0.356855
0.517759
1.06565
1.08022
1.0919
1.10726
1.1061
1.10033
1.00763
1.00733
1.01259
1.00771
1.00769
1.00768
1.00771
1.0075
1.00714
1.00706
1.01261
1.03745
1.0641
1.17959
2.93501
2.94614
2.9518
2.97381
2.99997
2.99998
2.99997
2.99998
2.99958
2.99957
2.99968
2.99975
2.99854
2.99849
2.99849
2.99848
2.99995
3
3
2.99957
3
3
3
3
3
3
3
3
3
3
3
3
3
3
3
3
3
3
3
3
3
3
3
3
3
3
3
3
3
3
3
3
3
3
3
3
3
3
3
3
3
3
3
3
3
3
3
3
3
3
3
3
3
3
3
3
3
3
3
3
3
3
3
3
3
3
3
3
3
3
3
3
3
3
3
3
3
3
3
3
3
3
3
3
3
3
3
3
3
3
3
3
3
3
3
3
3
3
3
3
3
3
3
3
3
3
3
3
0.134771
0.0453633
0.231777
0.616679
0.592073
0.0816281
5.10455e-05
5.00642e-05
0.0476472
0.335089
0.645379
0.666468
0.42321
0.521091
0.648537
0.559598
0.426378
0.270958
0.113898
0.00553363
0.0132509
0.0827586
0.105061
0.0326546
0.000815216
0.00093913
6.75533e-05
6.02732e-05
6.67413e-05
0.00524111
0.0127113
0.0928647
0.668206
0.687934
0.586277
0.783091
0.278075
0.267094
0.00817094
0.0117648
0.00424784
0.000903782
0.000915603
0.000931555
0.0027659
0.00221307
0.00119885
0.00687384
0.00971403
0.0107543
0.183599
0.696401
0.783705
0.60604
0.863361
0.394718
0.675913
0.155203
0.133386
0.0370377
0.0152637
0.0254621
0.12801
0.185665
0.141394
0.060398
0.146337
0.512106
0.643697
0.721774
0.800383
0.770685
0.84996
0.846287
0.683065
0.757523
0.6849
0.730783
0.67554
0.597689
0.633134
0.763088
0.720229
0.545394
0.377036
0.272809
0.746636
0.993499
1.00459
0.944053
0.775519
0.982309
0.755206
0.539376
0.757199
1.03084
1.00674
1.00678
1.00746
1.00927
1.0823
1.15752
1.17176
1.07383
0.826257
0.653956
0.646727
0.673867
0.884957
1.04509
1.04883
0.728771
0.618496
0.759921
1.00722
1.00576
1.00351
1.00511
1.00681
1.00711
1.00729
1.00863
1.01093
1.02037
1.0237
1.02657
1.02834
1.109
1.20972
1.37516
1.45019
1.01719
0.806416
1.00587
1.00326
1.00253
1.08402
1.24308
1.30863
1.28889
1.17416
1.14296
1.18577
1.30354
1.42901
1.59263
1.81979
2.06855
2.26619
2.22068
2.20572
1.8828
1.00693
1.10478
1.68345
2.41156
2.71649
2.76881
2.72768
2.5546
2.49249
2.62623
2.81052
2.87181
2.90395
2.9499
2.99388
2.9961
2.999
2.99943
2.99998
1.93464
2.80841
2.95526
2.98935
2.99779
2.99916
2.99902
2.99709
2.99661
2.99739
2.99864
2.99938
2.99998
2.99998
2.99997
2.99998
2.99998
2.99999
2.99997
2.98227
2.99212
3
3
2.99999
2.99988
2.99881
2.99872
2.99879
2.99977
2.99975
2.99967
2.99958
2.9996
2.99986
2.99991
2.99991
2.99997
3
2.99999
3
3
3
3
2.99996
2.99965
2.99947
2.99979
2.99988
2.9998
2.99938
2.99936
2.99935
2.9996
2.99977
2.99985
2.99994
3
2.99987
2.99998
2.99999
3
3
3
3
3
2.99999
2.99998
2.99997
2.99991
2.99977
2.99952
2.99972
2.99978
2.99985
2.99997
3
2.99881
2.99937
2.99969
2.99988
2.99989
2.99989
2.99995
3
3
3
3
3
2.99999
2.99998
2.99991
2.9999
2.99997
3
3
2.99897
2.99894
2.99908
2.99946
2.99925
2.99907
2.99918
2.99947
2.99981
2.99998
3
3
2.99999
2.99977
2.99996
3
3
3
2.99999
2.99995
2.99989
3
2.99989
2.9994
2.99906
2.99904
2.99905
2.99913
2.99945
2.99994
3
2.99959
2.99956
2.99988
3
3
3
2.99999
3
3
3
3
3
2.99992
2.9995
2.99911
2.99913
2.99923
2.99938
2.99956
2.99934
2.99955
2.99992
3
3
3
2.99999
3
3
3
3
3
3
2.99999
2.99998
2.99965
2.99927
2.99925
2.99925
2.99935
2.99988
2.99998
3
3
3
2.99999
3
3
3
3
3
3
3
3
3
2.99998
2.9996
2.99962
2.99998
2.99999
3
3
3
3
2.99999
3
3
3
3
3
3
3
3
3
3
3
3
3
3
3
3
3
3
2.99999
3
3
3
3
3
3
3
3
3
3
3
3
3
3
3
3
3
3
3
3
3
3
3
3
3
3
3
3
3
3
3
3
3
3
3
3
3
3
3
3
3
3
3
3
3
3
3
3
3
3
3
3
3
3
3
2.99998
3
3
3
3
3
3
3
3
3
3
3
3
3
3
3
3
3
3
2.99998
2.99999
3
3
3
3
3
3
3
3
3
3
3
3
3
3
3
3
3
2.99998
2.99998
3
3
3
3
3
3
3
3
3
3
3
3
3
3
3
3
3
2.99998
3
3
3
3
3
3
3
3
3
3
3
3
3
3
3
3
3
3
3
3
3
3
3
3
3
3
3
3
3
3
3
3
3
3
3
3
3
3
3
3
3
3
3
3
3
3
3
3
3
3
3
3
3
3
3
3
3
3
3
3
3
3
3
3
3
3
3
3
3
3
3
3
3
3
3
3
3
3
3
3
3
3
3
3
3
3
3
3
3
3
3
3
3
3
3
3
3
3
3
3
3
3
3
3
3
3
3
3
3
3
3
3
3
3
3
3
3
3
3
3
3
3
3
3
3
3
3
3
3
3
3
3
3
3
3
3
3
3
3
3
3
3
3
3
3
3
3
3
3
3
3
3
3
3
3
3
3
3
3
3
3
3
3
3
3
3
3
3
3
3
3
3
3
3
3
3
3
3
3
3
3
3
3
3
3
3
3
3
3
3
3
3
3
3
3
3
3
3
3
3
3
3
3
3
3
3
3
3
3
3
3
3
3
3
3
3
3
3
3
3
3
3
3
3
3
3
3
3
3
3
3
3
3
3
3
3
3
3
3
3
3
3
3
3
3
3
3
3
3
3
3
3
3
3
3
3
3
3
3
3
3
3
3
3
3
3
3
3
3
3
3
3
3
3
3
3
3
3
3
3
3
3
3
3
3
3
3
3
3
3
3
3
3
3
3
3
3
3
3
3
3
3
3
3
3
)
;

boundaryField
{
    leftWall
    {
        type            calculated;
        value           nonuniform List<scalar> 
50
(
2
2
2
2
2
1.96499
1.72076
0.711625
0.445229
0.954249
1.17159
1.09492
1.01198
1.08833
1.97044
2.66106
2.99987
2.99989
2.99999
3
3
3
3
3
3
3
3
3
3
3
3
3
3
3
3
3
3
3
3
3
3
3
3
2.99996
2.99994
2.99994
2.99994
2.99996
3
3
)
;
    }
    rightWall
    {
        type            calculated;
        value           nonuniform List<scalar> 
50
(
1.94625
1.72527
0.889925
0.481912
0.2887
0.103546
0.106505
0.108273
0.113898
0.267094
0.675913
0.757523
0.757199
0.759921
0.806416
1.8828
2.99998
2.99997
3
3
3
3
2.99999
2.99999
2.99999
2.99999
2.99999
2.99999
3
3
3
2.99999
2.99998
3
3
3
3
3
3
3
3
3
3
3
3
3
3
3
3
3
)
;
    }
    lowerWall
    {
        type            calculated;
        value           nonuniform List<scalar> 
62
(
2
2
2
2
2
2
2
2
2
2
2
2
2
2
2
2
2
2
2
2
2
1.99995
1.99994
1.99994
1.99996
2
2
1.90823
0.56586
0.01336
0.074058
0.755618
0.738362
0.72035
0.530163
1.80438
1.79849
1.82165
1.51321
0.817603
0.454695
0.385666
0.705479
1.80438
1.88483
1.88274
1.87355
1.8929
1.89569
1.91372
1.91587
1.92268
1.92349
1.92442
1.93523
1.93183
1.92904
1.93174
1.93174
1.93437
1.94326
1.94625
)
;
    }
    atmosphere
    {
        type            calculated;
        value           nonuniform List<scalar> 
46
(
3
2.99998
2.99995
2.99995
2.99996
2.99998
3
3
3
3
3
3
3
3
3
3
3
3
3
3
3
3
3
3
3
3
3
3
3
3
3
3
3
3
3
3
3
3
3
3
3
3
3
3
3
3
)
;
    }
    defaultFaces
    {
        type            empty;
    }
}


// ************************************************************************* //
