/*--------------------------------*- C++ -*----------------------------------*\
| =========                 |                                                 |
| \\      /  F ield         | OpenFOAM: The Open Source CFD Toolbox           |
|  \\    /   O peration     | Version:  2312                                  |
|   \\  /    A nd           | Website:  www.openfoam.com                      |
|    \\/     M anipulation  |                                                 |
\*---------------------------------------------------------------------------*/
FoamFile
{
    version     2.0;
    format      ascii;
    arch        "LSB;label=32;scalar=64";
    class       volScalarField;
    location    "2";
    object      alpha.air;
}
// * * * * * * * * * * * * * * * * * * * * * * * * * * * * * * * * * * * * * //

dimensions      [0 0 0 0 0 0 0];

internalField   nonuniform List<scalar> 
2268
(
3.21088e-10
8.11315e-11
7.84479e-12
3.17905e-12
4.37727e-12
4.93001e-12
3.1293e-12
1.16557e-12
7.95292e-13
9.7651e-13
1.6008e-12
3.04255e-12
6.29948e-12
1.04724e-11
1.88553e-11
5.03967e-11
6.6586e-11
3.12238e-11
2.80373e-11
5.29411e-11
5.29563e-11
5.29717e-11
1.00718e-08
7.42243e-10
6.44096e-11
9.09614e-12
3.64912e-11
8.17636e-11
6.58039e-11
2.10919e-11
7.3397e-12
6.06604e-12
1.16691e-11
1.59123e-11
2.46245e-11
5.20954e-11
7.75425e-11
1.26069e-10
4.08063e-10
2.58666e-09
1.66435e-09
2.80376e-11
2.80372e-11
1.28195e-08
6.03475e-08
9.68181e-08
1.25232e-09
3.6323e-09
4.79207e-09
4.88949e-10
5.1537e-10
2.01246e-10
4.93933e-11
2.27775e-11
5.04204e-11
2.16012e-10
3.80096e-10
4.40597e-10
2.75828e-10
1.88902e-10
2.25021e-10
2.36027e-10
1.38985e-08
1.22994e-07
1.86217e-07
8.86502e-08
1.19527e-07
2.45503e-07
1.60351e-07
2.07175e-09
7.23302e-09
8.35094e-09
4.54308e-09
4.30142e-11
6.34548e-11
3.63888e-11
2.20821e-11
2.20924e-11
1.51952e-09
2.132e-09
2.13178e-09
1.22645e-09
1.75734e-10
2.77473e-10
3.28901e-10
2.80571e-11
1.34787e-07
1.05072e-06
1.10821e-06
3.1372e-07
2.57075e-07
2.55271e-07
-3.65152e-12
-3.99042e-27
-5.8547e-27
-2.32066e-27
1.34561e-19
1.44004e-19
5.74609e-08
8.86092e-07
5.78212e-07
2.84741e-11
2.79784e-11
2.81557e-11
2.79194e-11
2.81161e-11
2.79128e-11
2.8142e-11
2.79458e-11
2.81824e-11
2.80053e-11
2.85011e-11
2.83688e-11
0.000167141
0.000667321
0.000359587
0.000418451
8.08611e-05
1.62502e-05
1.6696e-05
5.23847e-05
9.27416e-05
7.32501e-05
8.86527e-06
7.98724e-07
1.94957e-05
3.30622e-05
1.19438e-05
6.2381e-07
1.96196e-06
3.78397e-05
0.000156443
0.000387687
0.00042329
0.000208712
0.000351587
0.000561272
0.000904203
0.00106228
0.00106185
0.000412552
1.35435e-05
4.22672e-05
9.27636e-05
9.27631e-05
7.35704e-05
0.000183956
0.000531758
0.00072029
0.000661003
0.000470572
0.000370137
0.000404847
0.000606134
0.000743941
0.00124993
0.00130801
0.00091995
0.000656653
0.000754822
0.000751219
0.000500139
0.000435072
1.35407e-05
1.35575e-05
2.44721e-05
1.59833e-05
3.60541e-05
0.000674652
0.00109861
0.000907597
0.000755645
0.000678992
0.000653622
0.000672603
0.000666715
0.000689222
0.000688196
0.000687546
0.0013382
0.00379798
0.00350252
0.00169783
0.00473512
0.00025221
0.000350805
0.000743111
0.00178204
0.00263122
0.00360393
0.0128
0.0129026
0.0129032
0.0118857
0.010298
0.0101522
0.00877762
0.00596724
0.00596724
0.00596723
0.00597801
0.00590854
0.005908
0.000156354
0.00023896
0.00266195
0.010859
0.0109105
0.00770185
0.00284785
0.00251424
0.0036897
0.00912201
0.00929792
0.0117745
0.012082
0.00596724
0.00596728
0.0128804
0.0140249
0.0083249
0.00836455
0.000156217
0.000168766
0.00162606
0.00221916
0.00911526
0.00939183
0.0084811
0.00486355
0.00547471
0.0101806
0.0093059
0.00931349
0.011911
0.038339
0.104521
0.0954876
0.0269943
0.00891384
0.0106929
0.0100905
0.00962218
0.00949152
0.0101414
0.00798721
0.00788336
0.00527818
0.00486397
0.0048627
0.0195714
0.0776577
0.0281337
0.0368565
0.223213
0.223388
0.107192
0.00583797
0.00130637
0.00574279
0.0126646
0.00895575
0.00856861
0.0154896
0.0165319
0.0104293
0.00590806
0.00510572
0.00486005
0.0188146
0.133096
0.0611548
0.131308
0.151221
0.0349875
0.00324886
0.00107615
0.000873944
0.00041207
0.0115114
0.00375063
0.00884656
0.0125785
0.0355988
0.0362124
0.0128744
0.00939327
0.0243256
0.0548117
0.134327
0.175553
0.0408262
0.00246262
0.00156303
0.00154759
0.00331367
0.000799798
0.000412352
0.00428034
0.00433806
0.0116228
0.0385242
0.0572461
0.0545977
0.0210831
0.0229546
0.0578401
0.127349
0.159372
0.211443
0.0441227
0.000180231
0.0017757
0.00741253
0.0107473
0.00477848
0.000629818
0.00295198
0.0141359
0.0450107
0.0573581
0.0572591
0.0401431
0.00266239
2.17105e-06
0.0363762
0.184377
0.221505
0.221528
0.140905
0.000174163
0.00848164
0.0199064
0.0108584
0.0149288
0.000739675
0.000438771
0.000435459
0.00177079
0.00476999
0.00544038
0.00456528
0.00248782
0.00751121
0.0136993
0.0170402
0.0246716
0.0288499
0.0253334
0.00861918
0.000865446
0.00352269
0.00683887
0.00550346
0.0013041
0.00367537
0.0115612
0.0199497
0.0312906
0.0418471
0.0164131
0.00538873
0.00447335
0.00457206
0.0045981
0.00736213
0.0236678
0.0413297
0.0494911
0.0763967
0.133545
0.148215
0.134798
0.0621093
0.0113869
0.0260192
0.0279595
0.0199096
0.00371868
0.0166113
0.0526406
0.0296554
0.101414
0.101524
0.0279681
0.00319428
0.00319452
0.0114365
0.0141116
0.0138989
0.00464822
0.000868699
0.000830507
0.0146728
0.134865
0.153127
0.153072
0.0402484
0.0190941
0.027934
0.0196719
0.00375116
0.0325448
0.0716494
0.014285
0.0474345
0.049548
0.0165967
0.00319884
0.00319434
0.00395021
0.00953819
0.0034715
0.000979609
0.000700045
0.00069534
0.00075082
0.00115006
0.00209031
0.00731132
0.0052513
0.00412386
0.0114133
0.00878869
0.00468585
0.0448979
0.0720715
0.0264321
0.00600101
0.00393296
0.00392592
0.00354731
0.0212779
0.0357009
0.0196972
0.0272132
0.0656972
0.150268
0.246135
0.295039
0.261954
0.183349
0.0665683
0.00373397
0.00371748
0.00543776
0.00637327
0.00805908
0.054629
0.072103
0.0213783
0.0441882
0.0474159
0.0239595
0.00390189
0.0081829
0.105798
0.33281
0.571053
0.72994
0.859588
0.948204
0.955106
0.940826
0.897064
0.756291
0.430119
0.125256
0.00524656
0.00410434
0.00487266
0.0353034
0.0528679
0.0358596
0.485243
0.246638
0.145423
0.224293
0.421421
0.666902
0.874589
0.999268
0.998192
0.988329
0.970683
0.790364
0.570176
0.420934
0.29846
0.162599
0.0421825
0.004525
0.00413932
0.00404294
0.00421023
0.0185394
0.0529224
0.83055
0.845409
0.884134
0.953771
0.999992
0.999986
0.999978
0.997709
0.963433
0.955687
0.586068
0.00382465
0.00396692
0.00409615
0.00472801
0.00456413
0.00455608
0.00435882
0.00305554
0.0018377
0.00185523
0.0196713
0.0348203
0.999958
0.999996
1
0.999999
0.999999
0.999996
0.999998
0.999578
0.972066
0.955639
0.930748
0.48646
0.125309
0.0399147
0.00456451
0.00453077
0.00354584
0.00222634
0.00182512
0.0018264
0.00244029
0.00375685
0.00393602
0.999965
0.999991
0.999997
0.999998
0.999999
0.999999
0.999999
0.999972
0.993158
0.984638
0.988453
0.999008
0.999959
0.743421
0.223107
0.0674262
0.0286956
0.013401
0.0070921
0.00253774
0.00226419
0.00299351
0.00372648
0.999997
0.999995
0.999995
0.999996
0.999997
0.999993
0.999997
0.999997
1
1
1
1
1
0.999983
0.999968
0.963697
0.707122
0.570997
0.607438
0.785097
0.816423
0.798473
0.849669
1
0.999999
0.999995
0.999997
0.999998
0.999983
0.99994
0.999956
0.999994
0.999998
1
1
1
0.999995
0.999871
0.999609
0.999509
0.999609
0.999608
0.999609
0.999581
0.999471
0.999727
1
1
0.999999
0.999999
0.999998
0.999991
0.999904
0.999882
0.999899
0.999942
0.999992
0.999999
1
0.999999
0.999999
0.999882
0.999696
0.999587
0.999583
0.999381
0.999394
0.999676
0.999789
1
1
1
1
0.999998
0.999997
0.999977
0.999881
0.999864
0.999864
0.999942
0.999999
0.999999
0.999999
0.999999
0.999999
0.999983
0.999697
0.99962
0.999651
0.999862
0.999966
0.999469
1
0.999999
0.999999
1
1
0.999999
1
0.999981
0.999918
0.999907
0.999958
0.999998
0.999999
0.999999
0.999999
1
1
1
0.99977
0.999683
0.999764
0.999978
0.999999
1
0.999999
0.999999
0.999999
1
1
1
1
0.999999
0.999998
0.999998
0.999998
0.999999
0.999999
0.999999
1
1
0.999999
1
1
0.999999
0.999992
0.999999
1
0.999999
0.999999
0.999999
1
1
1
1
1
1
1
1
0.999999
1
1
1
1
1
1
1
1
1
1
1
1
1
1
1
1
1
1
1
1
1
1
1
1
1
1
1
1
1
1
1
1
1
1
1
1
1
1
1
1
1
1
1
1
1
1
1
1
1
1
1
1
1
1
1
1
1
1
1
1
1
1
1
1
1
1
1
1
1
1
1
1
1
1
1
1
1
1
1
1
1
1
1
1
1
1
1
1
1
1
1
1
1
1
1
1
1
1
1
1
1
1
1
1
1
1
1
1
1
1
1
1
1
1
1
1
1
1
1
1
1
1
1
1
1
1
1
1
1
1
1
1
1
1
1
1
1
1
1
1
1
1
1
1
1
1
1
1
1
1
1
1
1
1
1
1
1
1
1
1
1
1
1
1
1
1
1
1
1
1
1
1
1
1
1
1
1
1
1
1
1
1
1
1
1
1
1
1
1
1
1
1
1
1
1
1
1
1
1
1
1
1
1
1
1
1
1
1
1
1
1
1
1
1
1
1
1
1
1
1
1
1
1
1
1
1
1
1
1
1
1
1
1
1
1
1
1
1
1
1
1
1
1
1
1
1
1
1
1
1
1
1
1
1
1
1
1
1
1
1
1
1
1
1
1
1
1
1
1
1
1
1
1
1
1
1
1
1
1
1
1
1
1
1
1
1
0.999999
1
1
1
1
1
1
1
1
1
1
1
1
1
1
1
1
1
1
1
1
1
1
0.999998
1
1
1
1
1
1
1
1
1
1
1
1
1
1
1
1
1
1
1
1
1
1
0.999998
0.999999
1
1
1
1
1
1
1
1
1
1
1
1
1
1
1
1
1
1
1
1
1
0.999999
0.999999
1
1
1
0.999999
1
1
1
1
1
1
1
1
1
1
1
1
1
1
1
1
1
0.999999
0.999999
1
0.999999
0.999998
0.999998
1
1
0.999999
1
1
1
1
1
1
1
1
1
1
1
1
1
1
0.999999
0.999999
0.999999
0.999997
0.999996
0.999998
1
1
0.999999
0.999999
1
1
1
1
1
1
1
1
1
1
1
1
1
0.999982
0.999989
0.999996
0.999995
0.999996
0.999999
1
0.999999
0.999999
0.999999
1
1
1
1
1
1
1
1
1
1
1
1
1
0.99997
0.99997
0.999973
0.999995
0.999999
1
1
0.999999
0.999999
1
1
1
1
1
1
1
1
1
1
1
1
1
1
0.999969
0.999972
0.999983
0.999999
1
1
1
0.999999
1
1
1
1
1
1
1
1
1
1
1
1
1
1
1
0.999969
0.999993
1
1
1
1
1
1
1
1
1
1
1
1
1
1
1
1
1
1
1
1
1
0.999979
0.999989
1
0.999998
0.999996
0.999996
0.999999
1
1
1
1
1
1
1
1
1
1
1
1
1
1
1
1
1
0.99997
0.999971
0.999969
0.999969
0.999983
1
1
1
1
1
1
1
1
1
1
1
1
1
1
1
1
1
1
0.99999
0.999976
0.999973
0.999978
0.999992
1
1
1
1
1
1
1
1
1
1
1
1
1
1
1
1
1
0.0194303
0.0146245
0.0102262
0.00137421
0.00305389
0.00190894
0.00265748
0.0013646
0.000348312
0.000348719
0.000658558
0.00149737
0.00105126
0.00598061
0.00876676
0.0342517
0.0193637
0.0552307
0.0552364
0.0552383
0.044819
0.0552357
0.0552373
0.0547312
0.0541717
0.0503268
0.00398719
0.00387485
0.00645799
0.00401572
0.00400626
0.004004
0.00401619
0.00387957
0.00368219
0.00368192
0.00638796
0.018838
0.0336318
0.0886859
0.962599
0.968167
0.973119
0.990498
0.99999
0.99999
0.999986
0.999989
0.999787
0.999789
0.999846
0.999875
0.999271
0.999261
0.999261
0.999257
0.999973
1
1
0.999782
1
1
1
1
1
1
1
1
1
1
1
1
1
1
1
1
1
1
1
1
1
1
1
1
1
1
1
1
1
1
1
1
1
1
1
1
1
1
1
1
1
1
1
1
1
1
1
1
1
1
1
1
1
1
1
1
1
1
1
1
1
1
1
1
1
1
1
1
1
1
1
1
1
1
1
1
1
1
1
1
1
1
1
1
1
1
1
1
1
1
1
1
1
1
1
1
1
1
1
1
1
1
1
1
1
1
1
1
0.00188588
0.00973384
0.0483364
0.0573582
0.0468715
0.002763
2.10993e-06
2.10535e-06
0.00287558
0.0704318
0.149628
0.165262
0.106155
0.0361239
0.0646625
0.0355097
0.0373587
0.0292505
0.000727228
0.00137464
0.00242523
0.0194782
0.0282555
0.00841474
9.2539e-06
9.34155e-06
2.25218e-06
2.2465e-06
1.01307e-05
0.00173935
0.00419186
0.0101573
0.0847137
0.0788921
0.0747356
0.168546
0.0326436
0.0175125
0.00230417
0.00328574
0.00102578
0.000239437
0.000265831
0.000251492
0.000556281
8.01676e-05
5.74225e-06
0.00214937
0.00322786
0.00357198
0.05915
0.159285
0.125046
0.047157
0.169178
0.0748503
0.0346793
0.0467912
0.0345504
0.00141793
0.000255555
0.00594441
0.0394879
0.0563944
0.0419678
0.0178414
0.0487732
0.149558
0.15641
0.159145
0.159285
0.108405
0.0471758
0.169192
0.115674
0.0341906
0.0552356
0.0301612
0.00345195
0.000252285
0.0290626
0.0858853
0.0858851
0.0858853
0.0710079
0.049559
0.151973
0.159265
0.159241
0.1283
0.0484871
0.0940778
0.139574
0.0424066
0.0321511
0.0146059
0.00238465
0.00241153
0.00280779
0.00366455
0.038146
0.0752765
0.0845935
0.0760598
0.0266854
0.00976695
0.0150957
0.0260306
0.0258766
0.0534801
0.121882
0.0932723
0.0321511
0.0321511
0.00374826
0.00316781
0.00201132
0.00200586
0.00200732
0.00201212
0.00263201
0.00397374
0.00524299
0.00967676
0.00971031
0.00973928
0.0113197
0.0522408
0.117067
0.223135
0.244349
0.0951918
0.0558669
0.00326958
0.00229142
0.00239842
0.0397863
0.113993
0.145551
0.138654
0.0852988
0.0705227
0.0907538
0.148319
0.210899
0.296774
0.415682
0.53766
0.628328
0.605636
0.600596
0.554995
0.00373894
0.051629
0.337141
0.700944
0.849236
0.874567
0.855763
0.773752
0.744071
0.808577
0.900399
0.931905
0.948379
0.97137
0.993879
0.996101
0.999015
0.999807
0.999986
0.463288
0.900169
0.972694
0.990551
0.997793
0.999189
0.999256
0.997945
0.99749
0.998219
0.998782
0.999401
0.999992
0.999992
0.999991
0.99999
0.99999
0.999992
0.999975
0.994091
0.997373
1
0.999999
0.999997
0.999958
0.9996
0.999569
0.999593
0.99992
0.999911
0.999886
0.999857
0.999868
0.999952
0.99996
0.999955
0.999987
1
0.999993
0.999998
1
1
1
0.999986
0.999878
0.999812
0.999915
0.999938
0.999908
0.999769
0.999769
0.999777
0.99986
0.999901
0.999928
0.999971
1
0.999927
0.999982
0.999994
0.999999
1
1
0.999999
1
0.999994
0.999985
0.999975
0.99995
0.999901
0.999834
0.999893
0.999902
0.999928
0.999984
1
0.999401
0.999681
0.99984
0.999945
0.999948
0.999946
0.999974
0.999999
1
1
1
0.999998
0.999997
0.999988
0.999956
0.999948
0.999984
1
0.999999
0.999482
0.999475
0.999569
0.999764
0.999659
0.999565
0.999617
0.999751
0.999905
0.999992
1
1
0.999996
0.999888
0.999979
1
1
1
0.999994
0.999973
0.999946
1
0.999958
0.999735
0.999569
0.999556
0.999556
0.999574
0.999719
0.999971
1
0.999798
0.999785
0.999945
0.999999
1
1
0.999994
1
1
1
1
1
0.999974
0.999786
0.999584
0.999576
0.999607
0.99968
0.999773
0.999672
0.999776
0.999969
0.999999
1
1
0.999994
1
1
1
1
1
1
0.999996
0.999992
0.999823
0.999626
0.999612
0.999613
0.999673
0.999945
0.999994
1
1
1
0.999994
1
1
1
1
1
1
1
1
1
0.99999
0.999791
0.999801
0.999988
0.999998
1
1
1
1
0.999994
1
1
1
1
1
1
1
1
1
1
0.999999
0.999999
1
1
1
1
1
1
0.999994
1
1
1
1
1
1
1
1
1
1
0.999999
1
1
1
1
1
1
1
0.999999
1
1
1
1
1
1
1
0.999999
0.999999
0.999999
1
1
1
1
1
1
1
1
1
1
1
1
1
1
1
1
1
0.999999
1
1
1
1
1
1
1
1
0.999992
0.999999
1
1
1
1
1
1
1
1
1
1
1
1
1
1
1
1
1
0.99999
0.999994
1
1
1
1
1
1
1
1
1
1
1
1
1
1
1
1
0.999999
0.99999
0.999992
1
1
1
1
1
1
1
1
1
1
1
1
1
1
1
1
0.999999
0.999991
1
1
1
1
1
1
1
1
1
1
1
1
1
1
1
1
1
1
1
1
1
1
1
1
1
1
1
1
1
1
1
1
1
1
1
1
1
1
1
1
1
1
1
1
1
1
1
1
1
1
1
1
1
1
1
1
1
1
1
1
1
1
1
1
1
1
1
1
1
1
1
1
1
1
1
1
1
1
1
1
1
1
1
1
1
1
1
1
1
1
1
1
1
1
1
1
1
1
1
1
1
1
1
1
1
1
1
1
1
1
1
1
1
1
1
1
1
1
1
1
1
1
1
1
1
1
1
1
1
1
1
1
1
1
1
1
1
1
1
1
1
1
1
1
1
1
1
1
1
1
1
1
1
1
1
1
1
1
1
1
1
1
1
1
1
1
1
1
1
1
1
1
1
1
1
1
1
1
1
1
1
1
1
1
1
1
1
1
1
1
1
1
1
1
1
1
1
1
1
1
1
1
1
1
1
1
1
1
1
1
1
1
1
1
1
1
1
1
1
1
1
1
1
1
1
1
1
1
1
1
1
1
1
1
1
1
1
1
1
1
1
1
1
1
1
1
1
1
1
1
1
1
1
1
1
1
1
1
1
1
1
1
1
1
1
1
1
1
1
1
1
1
1
1
1
1
1
1
1
1
1
1
1
1
1
1
1
1
1
1
1
1
1
1
1
1
1
1
1
1
1
1
1
1
1
)
;

boundaryField
{
    leftWall
    {
        type            alphaContactAngle;
        thetaProperties 
6
(
(galistan air) 90 0 0 0
(oil galistan) 90 0 0 0
(water oil) 90 0 0 0
(water air) 90 0 0 0
(oil air) 90 0 0 0
(water galistan) 90 0 0 0
);
        value           nonuniform List<scalar> 
50
(
3.21088e-10
7.42243e-10
1.25232e-09
2.07175e-09
-3.65152e-12
0.000359587
0.00106228
0.000500139
0.000438771
0.0418471
0.101414
0.0474345
0.00600101
0.0441882
0.485243
0.83055
0.999958
0.999965
0.999997
1
1
1
1
1
1
1
1
1
1
1
1
1
1
1
1
1
1
0.999999
0.999998
0.999998
0.999999
0.999999
0.999999
0.999982
0.99997
0.999969
0.999969
0.999979
1
1
)
;
    }
    rightWall
    {
        type            alphaContactAngle;
        thetaProperties 
6
(
(galistan air) 90 0 0 0
(oil galistan) 90 0 0 0
(water oil) 90 0 0 0
(water air) 90 0 0 0
(oil air) 90 0 0 0
(water galistan) 90 0 0 0
);
        value           nonuniform List<scalar> 
50
(
0.005908
0.00836455
0.0106929
0.00574279
0.00041207
0.000412352
0.000629818
0.000739675
0.000727228
0.0175125
0.0346793
0.0341906
0.0321511
0.0321511
0.0558669
0.554995
0.999986
0.999975
1
1
1
0.999999
0.999994
0.999994
0.999994
0.999994
0.999994
0.999994
0.999999
1
0.999999
0.999994
0.999992
1
1
1
1
1
1
1
1
1
1
1
1
1
1
1
1
1
)
;
    }
    lowerWall
    {
        type            alphaContactAngle;
        thetaProperties 
6
(
(galistan air) 90 0 0 0
(oil galistan) 90 0 0 0
(water oil) 90 0 0 0
(water air) 90 0 0 0
(oil air) 90 0 0 0
(water galistan) 90 0 0 0
);
        value           nonuniform List<scalar> 
62
(
3.21088e-10
8.11315e-11
7.84479e-12
3.17905e-12
4.37727e-12
4.93001e-12
3.1293e-12
1.16557e-12
7.95292e-13
9.7651e-13
1.6008e-12
3.04255e-12
6.29948e-12
1.04724e-11
1.88553e-11
5.03967e-11
6.6586e-11
3.12238e-11
2.80373e-11
5.29411e-11
5.29563e-11
5.29717e-11
1.00718e-08
1.00718e-08
9.68181e-08
1.60351e-07
2.55271e-07
0.000667321
0.000904203
0.000751219
0.00473512
0.0194303
0.0146245
0.0102262
0.00137421
0.00025221
0.000156354
0.000156217
0.0100905
0.0126646
0.0115114
0.00428034
0.00295198
0.00025221
0.000350805
0.000743111
0.00178204
0.00263122
0.00360393
0.0128
0.0129026
0.0129032
0.0118857
0.010298
0.0101522
0.00877762
0.00596724
0.00596724
0.00596723
0.00597801
0.00590854
0.005908
)
;
    }
    atmosphere
    {
        type            inletOutlet;
        inletValue      uniform 1;
        value           nonuniform List<scalar> 
46
(
1
0.99999
0.999976
0.999973
0.999978
0.999992
1
1
1
1
1
1
1
1
1
1
1
1
1
1
1
1
1
1
1
1
1
1
1
1
1
1
1
1
1
1
1
1
1
1
1
1
1
1
1
1
)
;
    }
    defaultFaces
    {
        type            empty;
    }
}


// ************************************************************************* //
