/*--------------------------------*- C++ -*----------------------------------*\
| =========                 |                                                 |
| \\      /  F ield         | OpenFOAM: The Open Source CFD Toolbox           |
|  \\    /   O peration     | Version:  2312                                  |
|   \\  /    A nd           | Website:  www.openfoam.com                      |
|    \\/     M anipulation  |                                                 |
\*---------------------------------------------------------------------------*/
FoamFile
{
    version     2.0;
    format      ascii;
    arch        "LSB;label=32;scalar=64";
    class       volScalarField;
    location    "2";
    object      alpha.galistan;
}
// * * * * * * * * * * * * * * * * * * * * * * * * * * * * * * * * * * * * * //

dimensions      [0 0 0 0 0 0 0];

internalField   nonuniform List<scalar> 
2268
(
1
1
1
1
1
1
1
1
1
1
1
1
1
1
1
1
1
1
1
1
0.999997
0.999948
0.999938
1
1
1
1
1
1
1
1
1
1
1
1
1
1
1
1
1
1
1
1
0.999999
0.999979
0.999957
1
1
1
1
1
1
1
1
1
1
1
1
1
1
1
1
1
1
1
1
1
1
1
1
1
1
1
1
1
1
1
1
1
1
1
1
1
1
1
1
1
0.999999
0.999999
1
1
1
1
1
1
1
0.999998
1
1
0.999999
0.999999
0.999989
0.999989
0.999992
0.999986
0.999996
0.999949
0.999752
0.999031
0.997112
0.992816
0.987502
0.97311
0.960527
0.952907
0.981954
0.996568
0.989384
0.998842
0.999983
0.999948
0.9999
0.999781
0.984282
0.918503
0.817371
0.716764
0.644117
0.602558
0.583572
0.566305
0.537447
0.501185
0.458385
0.402573
0.333626
0.268527
0.276667
0.854058
0.873648
0.891318
0.906909
0.910704
0.892983
0.813508
0.622513
0.368644
0.18447
0.0792057
0.0234095
6.85862e-05
0.000169646
0.000259289
6.4157e-05
4.31863e-32
-5.29814e-23
0.000436808
0.000165027
4.25463e-06
4.98048e-06
5.9364e-05
0.274566
0.193286
0.190901
0.206242
0.200562
0.16121
0.0785967
0.010548
7.14995e-13
6.43087e-13
1.04712e-12
1.41986e-13
1.46529e-13
1.41104e-13
1.40818e-13
1.75186e-13
4.21243e-11
-3.2912e-13
2.10607e-23
9.78498e-07
5.80187e-05
0.0030647
0.0110831
0.87616
0.916238
0.913429
0.90727
0.91555
0.915544
0.915182
0.917476
0.921413
0.923109
0.927213
0.940697
0.941059
0.943877
0.94523
0.94523
0.945597
0.945611
0.945582
0.873366
0.916163
0.865888
0.781117
0.670057
0.634479
0.628524
0.644295
0.634487
0.664981
0.711315
0.669532
0.716894
0.803904
0.848957
0.866908
0.863953
0.814993
0.721478
0.872783
0.759118
0.542145
0.422664
0.346571
0.28305
0.233348
0.27935
0.405971
0.496072
0.499157
0.539477
0.482957
0.42164
0.378632
0.330571
0.25413
0.162794
0.19207
0.544978
0.489963
0.308827
0.162786
0.146921
0.147029
0.141121
0.14095
0.161107
0.291977
0.405247
0.415373
0.305735
0.17275
0.120597
0.0539052
0.000511504
0.000512638
0.000511504
0.264935
0.159739
0.157659
0.157549
0.179129
0.17891
0.17626
0.152981
0.11879
0.118885
0.207289
0.238978
0.143946
0.0295147
0.00261557
0.0026088
0.00259997
0.00270012
0.00077968
0.156053
0.161854
0.175976
0.175695
0.143394
0.134422
0.130424
0.134754
0.120633
0.0888377
0.0155605
0.0107677
0.0147246
0.00694115
0.00681584
0.0030685
0.00259483
0.00727873
0.00144645
0.0728317
0.0990086
0.105876
0.0718995
0.0231509
0.037104
0.11364
0.116011
0.0919898
0.0226161
0.000190193
0.000191426
0.00856997
0.0173435
0.00969221
0.00307337
0.00768062
0.0381884
0.00545912
0.0626286
0.00951924
0.00825565
0.0102097
0.0231718
0.0258477
0.0108511
0.00817805
0.00673644
0.00188375
0.000227491
0.0129609
0.0268183
0.0267101
0.0126292
0.00428885
0.0321736
0.0382065
0.00696045
0.00254331
0.00820262
0.00588237
0.00270011
0.00194448
0.00215624
0.00120655
1.20932e-05
1.22223e-05
1.54111e-05
9.23311e-06
1.4071e-08
1.35164e-08
1.40801e-13
2.54637e-09
2.01837e-07
3.32828e-07
7.47989e-07
4.49169e-07
4.36214e-08
4.3601e-08
0.0105139
0.0242468
0.000931518
0.00175037
0.00106666
0.00175628
0.00170588
0.00143425
0.000500491
0.000223262
9.46478e-05
0.000130203
0.000133506
5.23984e-05
2.24643e-06
4.85451e-06
9.8324e-06
6.05705e-06
1.74344e-06
1.09244e-06
9.78741e-07
3.0059e-07
1.36821e-06
0.000957956
0.00349086
0.000936962
0.000361779
9.8285e-06
0.000254066
0.000874174
0.000699069
0.000515624
0.00012305
3.09403e-05
0.000109737
0.000138143
0.000138181
2.81343e-05
2.5643e-05
8.23694e-05
4.27471e-05
2.43998e-06
7.51546e-07
2.94517e-07
1.51393e-05
0.000248073
0.000340502
5.49993e-05
5.65647e-05
4.29224e-05
9.92589e-06
3.10803e-05
6.24505e-05
1.02799e-08
6.39565e-10
6.39583e-10
6.39565e-10
2.4776e-05
8.78783e-05
0.000108919
5.42477e-05
2.57438e-05
8.7219e-05
0.000164116
2.95733e-05
2.98393e-07
2.68885e-07
2.05299e-05
0.000310697
0.000338687
2.61322e-05
5.60027e-08
5.64928e-08
4.96426e-07
1.47133e-05
1.31939e-05
5.37844e-06
3.65683e-07
6.40648e-10
6.39582e-10
0.00018755
0.000260022
0.000260023
0.000251033
9.20367e-05
0.000159929
0.000168217
9.41783e-05
2.47255e-07
2.47506e-07
1.59948e-05
0.000139445
0.000135069
2.64246e-05
5.55208e-08
5.79685e-07
2.52748e-07
5.17779e-07
6.70554e-06
7.54657e-06
4.3233e-06
1.63654e-07
1.14568e-05
0.000213948
0.000239518
0.000129955
3.61593e-05
3.6762e-05
0.000104427
0.00012719
3.5458e-05
2.47137e-07
5.24243e-07
1.49257e-06
1.44492e-06
0.000126612
0.000597585
3.54852e-08
1.15336e-06
3.45069e-06
8.60938e-06
8.64624e-06
6.17934e-06
5.4091e-06
1.95234e-05
2.10217e-05
0.000204886
0.000353568
0.000344817
0.000114126
6.92779e-07
1.37506e-06
4.03961e-06
1.31037e-07
8.27967e-07
1.58109e-06
2.27466e-06
4.70582e-05
0.000736252
0.000920885
3.59192e-08
1.43958e-06
2.82317e-06
2.37031e-06
1.55592e-06
1.94456e-06
2.49271e-06
6.00397e-06
0.000142457
0.000857914
0.000905691
0.000905533
0.000412264
1.62391e-06
1.59916e-07
8.10649e-09
6.96403e-09
6.05166e-08
0.000140692
0.000406481
0.000436563
0.000727232
0.00049818
4.69515e-08
1.78064e-08
7.05523e-08
3.34804e-07
7.93135e-07
1.07714e-06
7.43328e-07
1.51192e-05
0.000655014
0.000905595
0.000905763
0.000905604
0.000841423
5.98109e-05
5.33644e-08
1.129e-05
3.05444e-05
2.31904e-05
2.81161e-05
0.00012886
0.000314998
0.000238625
0.000141841
4.74598e-08
1.95335e-08
5.03235e-09
3.80966e-08
5.0204e-07
4.73422e-07
2.60565e-08
3.10204e-07
7.2989e-05
0.000373387
0.000712431
0.000489295
3.48604e-05
2.42728e-08
5.1659e-08
4.55642e-08
0.000923203
0.00289646
0.0028911
0.00143801
0.000859868
0.000617754
0.000346056
1.34623e-08
6.07822e-09
4.95381e-09
8.73257e-09
1.07706e-07
2.98529e-07
3.9799e-08
3.83598e-09
3.2565e-09
1.59688e-09
1.60486e-09
1.59784e-09
1.61283e-09
3.27571e-07
9.51264e-07
2.75247e-06
0.000289281
0.0100834
0.0175691
0.0175469
0.0168369
0.0170177
0.0208332
6.32476e-09
5.75353e-09
4.64963e-09
3.53563e-08
1.38343e-07
1.32276e-07
1.74754e-08
6.06155e-09
3.24916e-09
1.68858e-09
6.19391e-09
1.82018e-08
6.07395e-09
6.28025e-09
2.1877e-06
0.000233913
0.000347664
0.000315762
0.000337818
0.000359473
0.000247328
0.000135069
1.86527e-08
9.17819e-09
8.24754e-09
4.64408e-09
1.84422e-08
2.52384e-07
3.81671e-07
1.498e-07
1.67155e-08
8.79583e-09
3.17836e-09
4.55681e-09
2.30533e-08
2.3454e-08
3.23686e-08
1.09692e-07
-4.34092e-27
-9.24154e-10
2.92913e-17
-1.71309e-08
-4.3684e-09
5.64392e-17
-7.39656e-10
1.45737e-06
1.16738e-08
1.65894e-08
1.49056e-08
1.64159e-08
1.67661e-07
3.81687e-07
3.81686e-07
6.97925e-08
1.64604e-08
5.52093e-09
4.5988e-09
1.02481e-08
1.35346e-08
2.05205e-08
3.13414e-08
2.00007e-08
8.23394e-25
1.26263e-06
4.29631e-06
4.26508e-06
2.08247e-06
3.45678e-06
1.36411e-05
9.95539e-09
2.48984e-08
3.79849e-08
2.07002e-08
4.00354e-08
2.68067e-07
3.21311e-07
1.00113e-07
1.25564e-08
1.1607e-08
6.83548e-09
9.11317e-09
1.071e-08
1.93479e-08
3.50289e-08
3.7341e-08
2.30637e-08
1.57528e-08
4.28048e-07
1.85607e-06
1.2522e-07
6.66989e-10
7.68419e-10
7.19574e-09
2.10457e-08
3.77347e-08
3.85419e-08
3.72878e-08
2.01237e-08
2.46598e-08
3.54548e-08
1.20625e-08
1.14439e-08
2.87567e-08
3.8286e-08
3.52793e-08
2.78402e-08
3.26698e-08
3.39193e-08
2.19479e-08
2.69867e-08
1.56739e-09
7.41723e-10
6.7466e-10
9.83117e-10
2.33953e-09
4.06455e-09
1.46442e-08
3.71159e-08
4.76009e-08
4.76653e-08
1.40438e-08
4.43247e-10
1.23131e-09
4.42546e-09
7.46781e-09
2.66121e-08
3.88458e-08
3.88362e-08
3.3848e-08
1.52759e-08
9.18921e-09
6.60438e-09
1.0611e-08
9.93588e-09
5.00099e-09
2.57088e-09
2.09905e-09
3.62662e-09
2.7368e-09
2.82729e-09
2.128e-08
3.74653e-08
3.48806e-08
8.88612e-09
4.39767e-10
5.06241e-10
2.01556e-09
3.16379e-09
5.55519e-09
2.10125e-08
2.09509e-08
1.06138e-08
2.56736e-09
1.02127e-09
1.03137e-09
1.0533e-09
1.22743e-09
1.50882e-09
1.5383e-09
1.92737e-09
2.85553e-09
2.74114e-09
3.47298e-10
1.28074e-09
4.2105e-09
3.83746e-09
2.40522e-09
2.79511e-10
3.05131e-10
1.01747e-09
1.57901e-09
1.81815e-09
1.3528e-09
9.66681e-10
3.54997e-10
2.97831e-10
3.50654e-10
4.91142e-10
6.20649e-10
8.65364e-10
1.16724e-09
1.29876e-09
1.48993e-09
1.57463e-09
2.91657e-09
3.29065e-10
1.95783e-10
1.25164e-10
1.48131e-10
7.56711e-10
1.08005e-10
1.51427e-10
4.3959e-10
7.17457e-10
6.59004e-10
4.10122e-10
2.67859e-10
1.53132e-10
2.01632e-10
2.52628e-10
3.09093e-10
3.89072e-10
5.33703e-10
6.57166e-10
6.47469e-10
6.4528e-10
6.67556e-10
3.30811e-09
3.52543e-10
1.37742e-10
1.03968e-10
7.49954e-11
1.78196e-10
4.05562e-11
7.01928e-11
1.84031e-10
3.04256e-10
2.7123e-10
1.63145e-10
1.03456e-10
1.00277e-10
1.30421e-10
1.45206e-10
1.59283e-10
1.89225e-10
2.28166e-10
2.28606e-10
2.0958e-10
1.88865e-10
1.7134e-10
3.4357e-09
4.03176e-10
1.24997e-10
8.23369e-11
4.15053e-11
4.44585e-11
1.30778e-11
2.21267e-11
6.77685e-11
1.11286e-10
1.03626e-10
6.6758e-11
4.43144e-11
4.87538e-11
6.08325e-11
6.47846e-11
6.85991e-11
7.51467e-11
7.73949e-11
7.41823e-11
6.85239e-11
5.86277e-11
5.06377e-11
4.07589e-09
4.66339e-10
1.267e-10
7.67679e-11
3.27281e-11
1.4431e-11
6.90354e-12
3.85776e-12
1.849e-11
3.33306e-11
3.24589e-11
2.24907e-11
1.60178e-11
1.80246e-11
2.18015e-11
2.33154e-11
2.46582e-11
2.48677e-11
2.40553e-11
2.24606e-11
2.03466e-11
1.74584e-11
1.46214e-11
4.2263e-09
4.95817e-10
1.28273e-10
7.75534e-11
3.3316e-11
1.57743e-11
7.97352e-12
3.2043e-12
2.28894e-12
8.1448e-12
8.25351e-12
6.04929e-12
4.60111e-12
5.19168e-12
6.21635e-12
6.72423e-12
7.08289e-12
6.87591e-12
6.28001e-12
5.51928e-12
4.90121e-12
3.87376e-12
3.76615e-12
4.70731e-09
5.57852e-10
1.29073e-10
8.3042e-11
4.05183e-11
2.00881e-11
1.0655e-11
3.6345e-12
1.70598e-12
9.61735e-13
1.83831e-12
1.34734e-12
1.07519e-12
1.17988e-12
1.39629e-12
1.58581e-12
1.57818e-12
1.50649e-12
1.32149e-12
1.11433e-12
9.44896e-13
7.56478e-13
7.73381e-13
5.00501e-09
6.61039e-10
1.24785e-10
9.29925e-11
5.67941e-11
3.20226e-11
1.4764e-11
4.58261e-12
1.94219e-12
7.71623e-13
3.12088e-13
3.04853e-13
2.30004e-13
2.30538e-13
2.5589e-13
2.88901e-13
2.91131e-13
2.61763e-13
2.12822e-13
1.71568e-13
1.45123e-13
1.25951e-13
1.47536e-13
5.05065e-09
9.25456e-10
1.19216e-10
1.05976e-10
8.10826e-11
5.79782e-11
2.12017e-11
6.13432e-12
2.40378e-12
8.50593e-13
2.94295e-13
1.27293e-13
6.70402e-14
4.72391e-14
4.27163e-14
4.31561e-14
4.20434e-14
3.53488e-14
2.84598e-14
2.26252e-14
1.93165e-14
1.6084e-14
2.0034e-14
4.8729e-09
1.27325e-09
1.19139e-10
1.34416e-10
1.32647e-10
7.96891e-11
3.26591e-11
9.00661e-12
3.23298e-12
1.08565e-12
3.35807e-13
1.0836e-13
4.02092e-14
1.73069e-14
9.20506e-15
6.49923e-15
5.22059e-15
4.03386e-15
2.92618e-15
2.35308e-15
1.98487e-15
1.798e-15
2.57606e-15
1.18294e-08
1.87237e-09
1.20845e-10
1.6302e-10
2.20017e-10
1.26046e-10
5.18798e-11
1.51847e-11
5.01365e-12
1.56677e-12
4.74599e-13
1.40547e-13
4.26387e-14
1.33545e-14
4.56746e-15
1.76874e-15
8.52994e-16
4.74628e-16
2.85708e-16
2.14478e-16
1.76011e-16
1.55884e-16
2.72588e-16
1.55202e-08
2.47165e-09
1.35565e-10
1.76955e-10
2.81083e-10
2.08312e-10
9.94701e-11
3.2947e-11
9.87617e-12
3.00777e-12
8.61198e-13
2.49526e-13
7.37357e-14
1.9651e-14
5.1992e-15
1.35311e-15
3.83412e-16
1.22048e-16
4.37606e-17
2.14984e-17
1.37941e-17
1.25751e-17
2.74264e-17
1.55221e-08
5.32769e-09
3.76908e-10
1.95608e-10
3.24731e-10
3.00938e-10
1.94939e-10
8.20465e-11
2.61998e-11
7.23605e-12
2.21475e-12
6.65118e-13
1.93504e-13
5.67975e-14
1.43859e-14
3.49086e-15
6.64127e-16
1.45969e-16
3.15596e-17
7.05295e-18
1.55159e-18
1.0495e-18
2.19928e-18
1.55221e-08
1.18823e-08
2.74793e-09
1.17851e-09
4.80641e-10
4.98454e-10
4.1974e-10
2.08749e-10
8.52014e-11
1.86789e-11
4.3994e-12
1.66706e-12
6.0671e-13
1.89249e-13
5.12157e-14
1.24331e-14
2.11398e-15
4.82067e-16
8.96844e-17
1.46979e-17
1.6384e-18
3.55969e-19
2.77639e-19
1.55221e-08
1.5388e-08
8.77213e-09
4.54898e-09
8.89818e-10
9.5984e-10
8.18289e-10
4.20076e-10
1.63443e-10
3.65557e-11
1.00673e-11
4.50028e-12
1.68156e-12
5.3233e-13
1.45645e-13
3.66157e-14
7.97038e-15
1.50615e-15
2.6138e-16
4.18116e-17
5.97204e-18
3.822e-19
8.73742e-20
9.59438e-09
1.30497e-08
1.30061e-08
5.66093e-09
2.05511e-09
1.61238e-09
1.04731e-09
5.61624e-10
2.17249e-10
8.09984e-11
2.77609e-11
1.14216e-11
4.04798e-12
1.26031e-12
3.43272e-13
8.51971e-14
1.81184e-14
3.51934e-15
5.93863e-16
9.03776e-17
7.63054e-18
9.39602e-19
1.151e-19
2.70555e-09
1.08562e-08
1.04118e-08
8.22194e-09
4.68223e-09
2.52701e-09
1.51759e-09
6.54453e-10
3.41779e-10
1.45818e-10
4.66657e-11
1.90512e-11
6.75582e-12
2.04349e-12
5.61431e-13
1.33998e-13
2.89729e-14
5.73295e-15
1.01917e-15
1.51294e-16
2.05366e-17
1.01159e-18
1.51038e-19
1.53164e-09
3.77377e-09
8.37538e-09
8.34084e-09
6.42326e-09
3.1003e-09
1.92191e-09
7.31946e-10
4.05529e-10
1.5457e-10
5.78323e-11
2.64452e-11
9.61409e-12
2.98085e-12
8.64314e-13
2.20201e-13
4.78198e-14
8.83131e-15
1.39511e-15
1.9065e-16
2.29045e-17
2.00875e-18
6.84228e-20
1.53168e-09
2.58115e-09
5.07655e-09
7.16288e-09
5.69747e-09
3.09662e-09
2.00946e-09
8.1524e-10
3.46637e-10
1.46898e-10
8.06186e-11
3.55266e-11
1.19343e-11
3.61034e-12
9.71433e-13
2.23463e-13
4.34318e-14
7.15466e-15
1.01007e-15
1.19404e-16
1.30449e-17
4.2703e-19
4.49864e-20
1.52619e-09
1.9239e-09
2.69111e-09
4.26525e-09
4.67741e-09
3.12169e-09
1.74488e-09
6.95455e-10
2.99543e-10
1.68721e-10
8.06094e-11
2.97217e-11
8.81818e-12
2.435e-12
5.81828e-13
1.16718e-13
1.97006e-14
2.83523e-15
3.40196e-16
3.52423e-17
3.18417e-18
2.12584e-19
9.23819e-21
1.36601e-09
1.49168e-09
1.8936e-09
3.1124e-09
3.25859e-09
2.44816e-09
1.30806e-09
6.06371e-10
3.11857e-10
1.49149e-10
5.62132e-11
1.66981e-11
3.92736e-12
8.83991e-13
1.80538e-13
3.17322e-14
4.72642e-15
5.98748e-16
6.45266e-17
5.61871e-18
3.9119e-19
2.33551e-20
1.19689e-21
8.88157e-10
1.36392e-09
1.67566e-09
1.94726e-09
1.81479e-09
1.49077e-09
9.37798e-10
4.89059e-10
2.37254e-10
8.93114e-11
2.52556e-11
5.4718e-12
1.1633e-12
2.2691e-13
3.8392e-14
5.59594e-15
7.04469e-16
7.66151e-17
7.01986e-18
5.37704e-19
2.8497e-20
1.51564e-21
6.66341e-23
3.24302e-10
1.25057e-09
1.52133e-09
1.45919e-09
1.34047e-09
1.07096e-09
6.25629e-10
3.05968e-10
1.19489e-10
3.58549e-11
8.34259e-12
1.61209e-12
2.82381e-13
4.36209e-14
5.85266e-15
6.89612e-16
7.19231e-17
6.60594e-18
5.15566e-19
3.36381e-20
1.73724e-21
6.56096e-23
2.01576e-24
1.05332e-10
7.36987e-10
1.06513e-09
9.95579e-10
8.59068e-10
5.91787e-10
2.90654e-10
1.37289e-10
4.55786e-11
1.19402e-11
2.31515e-12
3.66916e-13
5.03633e-14
6.02912e-15
6.36713e-16
6.02669e-17
5.13313e-18
3.87449e-19
2.493e-20
1.37203e-21
5.84594e-23
1.64558e-24
2.77467e-26
0.0192558
0.0120285
0.0096201
0.0029487
0.00404727
0.000594654
7.77509e-05
0.000111202
2.66188e-05
2.67824e-05
4.66077e-05
0.000399856
2.78824e-05
3.7784e-05
4.26252e-05
0.00189256
2.64668e-05
2.67442e-05
0.00151714
0.00500794
0.000577113
0.00114643
0.001164
0.00114407
0.000907901
0.000140705
0.000142405
0.000160541
0.000140208
0.000141349
0.000141454
0.000141599
0.000139727
0.00023601
0.000354522
0.000340573
0.000297431
0.000304947
0.00278341
0.0132076
0.0208215
0.0208222
0.0162197
0.0011604
2.42868e-08
1.18258e-08
1.26705e-08
1.18257e-08
1.5704e-06
5.92053e-07
7.05186e-07
9.21588e-06
1.36567e-05
4.95228e-06
5.97684e-07
6.7273e-06
6.6841e-10
6.90854e-10
2.52265e-07
4.88054e-06
4.40863e-09
4.06661e-09
2.42638e-09
1.69921e-09
7.52111e-09
9.11383e-09
9.15205e-09
5.96805e-09
3.09941e-09
5.24952e-09
5.90594e-09
5.30861e-09
1.77342e-09
1.60512e-09
1.26806e-09
1.27728e-09
6.42702e-10
5.8872e-10
5.28939e-10
4.56761e-10
1.59095e-10
1.49928e-10
1.31825e-10
1.13634e-10
4.53012e-11
4.14375e-11
4.24085e-11
4.52869e-11
1.37048e-11
1.42686e-11
1.54331e-11
1.78493e-11
3.92423e-12
4.09899e-12
4.90897e-12
5.94553e-12
8.4442e-13
1.02575e-12
1.28617e-12
1.61896e-12
1.80843e-13
2.0077e-13
2.7094e-13
3.60857e-13
2.59264e-14
3.5768e-14
4.75378e-14
6.86574e-14
3.6725e-15
4.34315e-15
6.37837e-15
9.79114e-15
3.8981e-16
5.21477e-16
7.34705e-16
1.26246e-15
3.81216e-17
5.0865e-17
7.54488e-17
1.56486e-16
4.1973e-18
5.80464e-18
1.15774e-17
2.27432e-17
4.54807e-19
8.66443e-19
1.89617e-18
6.75048e-18
7.36817e-20
1.36774e-19
6.52556e-19
2.39028e-18
1.57041e-20
3.70722e-20
1.46262e-19
8.32234e-19
4.9355e-21
5.63453e-21
3.78697e-20
1.79245e-19
5.32895e-21
1.11539e-21
6.7135e-21
3.77838e-20
3.72424e-21
1.62966e-22
1.06463e-21
6.24521e-21
1.00406e-21
3.48393e-23
1.39825e-22
8.12461e-22
8.83571e-23
3.30274e-24
1.67263e-23
7.70645e-23
3.60505e-24
3.4926e-25
1.4969e-24
7.53613e-24
4.02673e-26
3.73295e-26
1.68223e-25
7.53238e-25
7.52336e-28
3.9873e-27
1.68895e-26
6.39626e-26
0.00768055
0.00526678
0.00921137
0.00885368
0.00212636
9.83435e-07
9.97022e-07
9.86344e-07
1.71648e-06
5.0939e-05
3.33526e-06
0.00776281
0.023095
0.0274556
0.0271365
0.0263787
0.0382065
0.038197
0.00979118
3.36898e-05
2.44845e-05
2.52544e-05
1.16495e-05
1.15969e-05
1.28348e-05
2.42629e-05
1.75969e-05
1.40831e-05
4.82831e-06
3.41624e-06
5.97451e-05
0.00568634
0.0212333
0.0256649
0.0381991
0.0381851
0.037997
0.0165607
0.00062919
0.000953931
0.000585253
8.53953e-05
4.97805e-05
8.84526e-05
0.000548589
0.000939589
0.00049195
0.000119984
7.12291e-06
1.10621e-05
0.00302717
0.00963721
0.0110827
0.0218914
0.0191737
0.0150471
0.0170962
0.00456288
0.00500334
0.00441959
0.000879076
0.000576708
0.00315839
0.00714749
0.00774551
0.00343696
8.50279e-06
7.81633e-06
0.000266231
0.00192657
0.00252162
0.00453613
0.0164166
0.00209123
0.00210219
0.0154361
0.00501018
0.00500059
0.00468706
0.00416314
0.00559551
0.00775048
0.00775041
0.00775048
0.00366228
9.23036e-06
0.000176791
0.000851715
0.00135854
0.00257875
0.00943839
0.0119947
0.00210056
0.00433386
0.0183473
0.00176089
0.00210484
0.0020854
0.00184021
0.00194244
0.0060099
0.0069635
0.00257104
0.000423609
0.000379809
0.00283491
0.0101386
0.0110552
0.014735
0.0138125
0.00314999
0.00388021
0.0145587
0.0212729
0.000298053
0.000436711
0.00105156
0.00185936
0.00294222
0.00308519
0.00202539
0.000686869
0.000447759
0.00101217
0.0042756
0.00713321
0.00570225
0.00451881
0.00416819
0.00445902
0.0100453
0.0190124
0.0211872
0.000340339
0.000565022
0.00318119
0.0110947
0.0168428
0.01753
0.0115822
0.00356604
0.00191068
0.00426673
0.00699548
0.00773997
0.00762694
0.00732587
0.00806873
0.00953066
0.00940537
0.00452726
0.00368495
0.000618008
0.00928326
0.0199811
0.0199799
0.0199302
0.0196721
0.0161783
0.00723776
0.00452724
0.00923662
0.010884
0.0108486
0.00985339
0.00829016
0.00612066
0.00389861
0.000975829
6.55857e-06
7.58799e-06
0.0190664
0.019064
0.0185868
0.00884882
0.00220464
0.000797541
0.000626798
0.00162886
0.00207028
0.00136402
0.00114938
0.000589446
2.18696e-08
2.88723e-09
-6.87233e-14
5.47029e-28
1.85796e-14
6.72267e-06
2.5303e-05
9.13819e-13
6.01097e-13
3.41879e-13
-6.48254e-12
-6.98828e-11
-1.71793e-10
-7.2163e-11
1.28357e-22
-5.59093e-24
-7.49445e-09
-6.78206e-08
-1.18299e-08
2.65996e-07
3.65042e-07
-8.58173e-13
1.00478e-14
1.73624e-09
5.80847e-07
9.49311e-08
7.48331e-07
1.04608e-06
7.83137e-25
2.84445e-25
2.63288e-10
1.90683e-10
1.49211e-09
1.3595e-06
1.08899e-05
2.0111e-05
2.12551e-05
2.11077e-05
1.68501e-05
6.06511e-06
-5.95594e-12
1.65736e-08
1.4973e-08
-3.59094e-14
6.77096e-27
1.72872e-05
1.63438e-05
5.15146e-06
8.4605e-07
4.38392e-08
1.66832e-09
5.66169e-08
8.08126e-08
2.50164e-06
1.04881e-05
1.92299e-05
2.29649e-05
2.26089e-05
7.16142e-06
1.45651e-07
8.69716e-08
1.8673e-08
1.94048e-09
2.72418e-09
2.6027e-05
3.02836e-05
3.01106e-05
8.94915e-06
6.27882e-06
4.8337e-06
1.15724e-06
2.52926e-08
2.58924e-08
2.57998e-08
2.72446e-08
2.37222e-06
4.78422e-08
9.10252e-07
3.27362e-07
8.25154e-08
3.05209e-09
1.20543e-09
3.05254e-09
3.32358e-06
4.65116e-07
4.31362e-10
3.87939e-06
1.02789e-05
1.02476e-05
5.24927e-06
2.69391e-06
1.0098e-06
2.86867e-07
3.14491e-08
3.20418e-08
3.15308e-08
6.82013e-08
8.42156e-07
7.40173e-08
4.97112e-09
6.17528e-10
2.51149e-09
3.94352e-10
4.13566e-10
4.11164e-10
4.09078e-10
2.02305e-07
1.25911e-06
1.30468e-06
7.90924e-06
1.84757e-05
1.51506e-05
1.8729e-06
7.33194e-08
5.57581e-06
1.01982e-05
2.61881e-06
1.86433e-10
8.47083e-10
5.82788e-10
2.42468e-09
3.00603e-09
1.2222e-09
2.10376e-09
2.58963e-09
8.68236e-10
4.68959e-10
4.78246e-10
8.73902e-06
2.14902e-05
2.21384e-05
1.7263e-05
1.30901e-05
1.81027e-05
1.82282e-05
3.47888e-06
1.84849e-10
2.14779e-10
6.76262e-10
2.95877e-09
3.93354e-09
1.31534e-09
4.23808e-09
7.84258e-09
5.52852e-09
2.10997e-09
4.78814e-10
4.60887e-07
1.12528e-05
2.21249e-05
2.21349e-05
2.21374e-05
2.21376e-05
8.46587e-06
6.99932e-08
2.56952e-10
2.58788e-10
8.98318e-10
3.29283e-09
8.48136e-10
5.22156e-10
4.02212e-09
7.4945e-09
5.85648e-09
2.4788e-09
8.41768e-10
6.0046e-09
2.26481e-08
3.8272e-06
1.98308e-05
1.82152e-05
6.05272e-06
-1.24411e-11
1.14955e-11
2.25122e-10
2.77653e-10
1.00609e-09
3.4757e-09
3.55006e-10
3.21056e-10
6.04471e-10
1.19593e-09
4.46262e-10
2.4028e-10
1.27718e-10
4.93687e-11
4.91287e-11
5.10433e-11
4.36554e-11
4.36518e-11
7.8558e-10
4.82754e-09
6.61829e-10
2.53399e-10
2.73992e-10
1.10409e-09
3.49087e-09
1.43304e-10
2.1153e-10
2.11867e-10
2.23004e-10
2.09442e-10
1.72587e-10
1.12208e-10
7.06805e-11
5.0932e-11
4.61484e-11
4.36518e-11
4.36503e-11
4.36467e-11
7.48056e-11
1.38342e-10
1.43131e-10
1.91209e-10
1.19289e-09
3.50995e-09
6.78453e-11
9.88257e-11
1.16987e-10
1.28488e-10
1.28981e-10
1.10766e-10
9.65203e-11
8.93927e-11
7.74894e-11
5.78431e-11
4.3755e-11
4.40804e-11
4.3086e-11
5.75369e-11
7.17735e-11
7.47119e-11
1.45074e-10
1.29041e-09
3.51712e-09
2.9437e-11
4.0004e-11
4.72375e-11
5.10936e-11
5.21066e-11
5.52306e-11
6.10288e-11
7.02392e-11
7.35694e-11
6.24959e-11
4.82714e-11
4.2548e-11
3.67443e-11
3.15246e-11
3.0983e-11
4.55862e-11
1.20598e-10
1.69495e-09
3.47951e-09
1.03686e-11
1.42284e-11
1.67014e-11
1.79919e-11
1.92938e-11
2.25147e-11
3.19143e-11
3.9756e-11
3.90834e-11
3.74239e-11
3.25535e-11
2.68309e-11
2.07731e-11
1.70856e-11
1.80743e-11
3.62561e-11
1.15805e-10
1.95109e-09
2.7008e-09
3.0751e-12
4.45302e-12
5.25094e-12
5.94423e-12
6.48573e-12
6.9314e-12
7.92769e-12
1.00368e-11
1.23632e-11
1.25836e-11
1.15049e-11
9.4082e-12
7.60081e-12
7.61972e-12
1.1954e-11
3.23017e-11
1.2556e-10
2.07419e-09
2.1837e-09
7.76744e-13
1.15252e-12
1.44134e-12
1.68549e-12
1.91511e-12
2.3471e-12
2.45119e-12
2.37511e-12
2.61302e-12
2.84866e-12
3.07385e-12
3.22574e-12
3.55437e-12
5.22828e-12
1.12565e-11
3.65411e-11
1.83236e-10
2.10116e-09
1.98463e-09
1.61639e-13
2.6158e-13
3.72749e-13
4.56232e-13
5.8711e-13
6.17365e-13
7.11108e-13
7.64838e-13
8.531e-13
1.00753e-12
1.24753e-12
1.71035e-12
2.67319e-12
5.48368e-12
1.43364e-11
5.46789e-11
2.90914e-10
2.12601e-09
1.83513e-09
2.50011e-14
4.68999e-14
7.58453e-14
1.08973e-13
1.36352e-13
1.8e-13
2.06831e-13
2.36898e-13
3.1447e-13
5.01682e-13
8.92439e-13
1.68366e-12
3.19444e-12
7.32718e-12
2.10959e-11
7.57731e-11
4.7472e-10
2.12478e-09
1.72044e-09
3.75163e-15
7.32897e-15
1.32817e-14
2.22609e-14
3.45116e-14
4.81481e-14
7.18401e-14
1.19062e-13
2.22607e-13
4.82519e-13
1.05925e-12
2.2904e-12
4.79662e-12
1.17092e-11
3.53741e-11
1.2141e-10
6.50976e-10
2.12376e-09
1.38477e-09
4.78258e-16
1.12097e-15
2.37197e-15
4.84111e-15
9.74388e-15
2.05545e-14
4.51214e-14
1.0659e-13
2.62851e-13
6.1075e-13
1.3938e-12
3.15361e-12
8.32851e-12
2.29314e-11
6.68419e-11
2.14723e-10
8.62769e-10
2.04341e-09
1.09298e-09
1.00175e-16
2.81128e-16
7.81525e-16
2.19173e-15
5.9481e-15
1.61878e-14
4.31062e-14
1.15964e-13
2.94208e-13
7.17763e-13
1.71674e-12
4.15729e-12
1.01412e-11
2.85567e-11
1.03929e-10
3.31614e-10
9.53677e-10
1.71041e-09
7.60043e-10
3.86763e-17
1.41175e-16
4.72754e-16
1.5738e-15
4.86373e-15
1.42163e-14
3.94553e-14
1.0834e-13
2.81405e-13
7.00989e-13
1.70774e-12
4.22181e-12
1.0417e-11
3.01476e-11
1.16492e-10
3.76608e-10
9.70253e-10
1.22515e-09
6.40001e-10
1.69213e-17
7.0094e-17
2.58346e-16
9.65278e-16
3.23392e-15
9.91567e-15
2.89331e-14
8.17838e-14
2.19833e-13
5.62402e-13
1.42397e-12
3.60181e-12
9.62422e-12
2.60703e-11
1.05459e-10
3.76601e-10
7.97057e-10
9.95971e-10
4.33229e-10
5.66416e-18
2.6557e-17
1.09468e-16
4.1261e-16
1.52682e-15
5.01259e-15
1.55732e-14
4.65115e-14
1.28808e-13
3.48167e-13
9.35078e-13
2.48586e-12
7.12326e-12
2.01088e-11
6.09531e-11
2.3668e-10
6.47596e-10
6.47788e-10
2.51784e-10
1.36974e-18
7.21006e-18
3.46418e-17
1.50499e-16
6.06439e-16
2.1762e-15
6.55141e-15
2.02189e-14
5.89391e-14
1.71226e-13
4.8527e-13
1.38977e-12
4.06877e-12
1.27475e-11
2.96892e-11
1.10599e-10
3.53928e-10
4.81077e-10
1.46216e-10
2.72934e-19
1.57131e-18
8.24247e-18
4.01812e-17
1.72567e-16
6.42291e-16
2.19116e-15
7.19308e-15
2.3077e-14
7.26284e-14
2.28627e-13
7.2187e-13
2.22333e-12
6.91588e-12
1.85363e-11
4.15728e-11
1.41453e-10
2.26749e-10
7.91588e-11
4.16557e-20
2.53691e-19
1.48551e-18
7.74676e-18
3.502e-17
1.35974e-16
5.04017e-16
1.83924e-15
6.4833e-15
2.34697e-14
8.55591e-14
3.04547e-13
1.03252e-12
3.36313e-12
9.58709e-12
2.00862e-11
4.42802e-11
1.0746e-10
4.32663e-11
4.75637e-21
3.18175e-20
1.89903e-19
1.02507e-18
4.8875e-18
2.0293e-17
8.59825e-17
3.51137e-16
1.40423e-15
5.99199e-15
2.53547e-14
1.06318e-13
4.29706e-13
1.45006e-12
4.1703e-12
9.54775e-12
1.91843e-11
4.22837e-11
2.34474e-11
4.73908e-22
2.92193e-21
1.4907e-20
7.01168e-20
3.24979e-19
1.52424e-18
7.63435e-18
4.19535e-17
2.23102e-16
1.14922e-15
5.6786e-15
2.94158e-14
1.36548e-13
5.06093e-13
1.40134e-12
3.7615e-12
7.51983e-12
1.3575e-11
1.14281e-11
3.71813e-23
1.93698e-22
9.09652e-22
4.58228e-21
2.56978e-20
1.47973e-19
9.02674e-19
5.53946e-18
3.60406e-17
2.28581e-16
1.41075e-15
8.71378e-15
4.4941e-14
1.68442e-13
4.99226e-13
1.14269e-12
2.40195e-12
4.85378e-12
6.14615e-12
2.55018e-24
1.02498e-23
3.95569e-23
2.05238e-22
1.40739e-21
1.06477e-20
8.30049e-20
6.37307e-19
5.18189e-18
4.09342e-17
3.11905e-16
2.08269e-15
1.12495e-14
4.54827e-14
1.42626e-13
3.47574e-13
5.25056e-13
1.86211e-12
1.84301e-12
1.49087e-25
4.18611e-25
1.31437e-24
7.54183e-24
6.52445e-23
6.03793e-22
6.22669e-21
6.28925e-20
6.17595e-19
5.24144e-18
4.11132e-17
2.5513e-16
1.48823e-15
6.43153e-15
2.18824e-14
5.63447e-14
1.22562e-13
1.95777e-13
4.62298e-14
)
;

boundaryField
{
    leftWall
    {
        type            zeroGradient;
    }
    rightWall
    {
        type            zeroGradient;
    }
    lowerWall
    {
        type            zeroGradient;
    }
    atmosphere
    {
        type            inletOutlet;
        inletValue      uniform 0;
        value           nonuniform List<scalar> 
46
(
1.05332e-10
7.36987e-10
1.06513e-09
9.95579e-10
8.59068e-10
5.91787e-10
2.90654e-10
1.37289e-10
4.55786e-11
1.19402e-11
2.31515e-12
3.66916e-13
5.03633e-14
6.02912e-15
6.36713e-16
6.02669e-17
5.13313e-18
3.87449e-19
2.493e-20
1.37203e-21
5.84594e-23
1.64558e-24
0
0
0
0
0
0
0
0
0
0
0
0
0
0
0
0
0
0
0
0
0
0
0
0
)
;
    }
    defaultFaces
    {
        type            empty;
    }
}


// ************************************************************************* //
