/*--------------------------------*- C++ -*----------------------------------*\
| =========                 |                                                 |
| \\      /  F ield         | OpenFOAM: The Open Source CFD Toolbox           |
|  \\    /   O peration     | Version:  2312                                  |
|   \\  /    A nd           | Website:  www.openfoam.com                      |
|    \\/     M anipulation  |                                                 |
\*---------------------------------------------------------------------------*/
FoamFile
{
    version     2.0;
    format      ascii;
    arch        "LSB;label=32;scalar=64";
    class       volScalarField;
    location    "2";
    object      p;
}
// * * * * * * * * * * * * * * * * * * * * * * * * * * * * * * * * * * * * * //

dimensions      [1 -1 -2 0 0 0 0];

internalField   nonuniform List<scalar> 
2268
(
5844.75
5831.61
5807.2
5763.79
5702.78
5621.52
5520.75
5404.86
5282.65
5165.59
5063.16
4981.42
4922.63
4885.06
4863.42
4851.45
4844.01
4836.68
4826.83
4813.3
4797.01
4781.2
4770.15
5050.81
5036.32
5012.69
4970.37
4910.33
4829.42
4727.83
4609.97
4485.09
4365.52
4261.21
4178.53
4120
4083.76
4063.9
4053.54
4047.35
4040.77
4031.06
4017.58
4000.56
3983.75
3971.82
4260.38
4242.27
4218.7
4178.68
4120.85
4041.07
3938.06
3816.5
3686.09
3561.48
3453.53
3369.06
3311.15
3277.7
3261.44
3254.34
3250.57
3245.51
3236.84
3222.73
3203.71
3184.28
3170.54
3469.27
3448.14
3425.06
3388.95
3334.77
3256.98
3151.35
3024.7
2885.59
2753.25
2639.71
2552.24
2495.22
2466.23
2455.64
2453.62
2453.54
2450.44
2442.33
2428.67
2407.16
2384.03
2368
2674.2
2652.58
2631.17
2601.2
2552.61
2478.77
2375.22
2235.76
2083.75
1940.25
1817.72
1725.28
1669.69
1647.69
1645.74
1651.18
1656.28
1658.05
1653.12
1641.31
1619.84
1593.62
1575.38
1877.32
1855.07
1839.43
1815.14
1773.19
1701.21
1597.97
1449.08
1284.2
1147.07
1050
991.159
967.338
972.717
990.234
1010.27
1028.77
1046.87
1062.46
1074.14
1079.58
1076.98
1053.24
1121.93
1092.31
1080.03
1064.08
1037.3
986.946
906.393
804.308
718.463
668.814
650.299
651.901
666.103
688.95
715.646
744.632
776.569
807.574
837.387
867.44
896.653
916.67
893.521
625.881
619.003
610.059
596.59
579.777
556.124
529.484
518.697
524.214
537.58
556.043
578.039
602.312
627.991
656.267
685.447
715.786
747.825
779.178
809.3
839.495
859.53
811.035
3538.7
3385.77
3160.64
2948.39
2782.88
2679.72
2621.27
2617.66
2648.79
2724.44
2812.23
2836.8
2798.53
2731.65
2680.27
2637.38
2595.78
2540.14
2468.46
2835.28
2663.59
2451.51
2258.16
2127.04
2042.8
1984.84
1972.38
2007.8
2084.28
2162.76
2194.27
2131.68
2026.9
1959.61
1909.4
1867.86
1823.18
1766.84
2170.52
2036.09
1891.02
1758.25
1698.43
1651.12
1608.53
1569.79
1555.94
1600.45
1668.17
1711.71
1643.39
1520.74
1459.02
1420.22
1408.11
1411.58
1365.58
1650.88
1572.99
1538.54
1489.28
1464.97
1437.61
1407.74
1350.47
1285.32
1252.88
1287.7
1331.42
1310.49
1254.77
1237.11
1244.21
1265.64
1294.7
1246.79
1325.73
1298.93
1316.37
1309.23
1283.15
1255.8
1229.75
1175.53
1109.29
1040.15
1015.88
1060.18
1110
1134.59
1146.41
1169.67
1206.49
1231.67
1189.22
1165.06
1137.98
1146.31
1131.24
1096.61
1077.05
1060.42
1006.72
951.996
909.319
895.685
927.221
1003.5
1066.8
1079.64
1100.87
1141.48
1160.58
1120.12
1012.87
1003.21
1004.13
992.568
976.964
965.522
936.829
886.174
846.539
833.44
856.075
889.678
941.215
990.119
1001.84
1026.18
1070.25
1073.57
1040.1
953.14
927.863
914.58
908.842
909.072
895.487
850.241
809.076
788.316
798.978
823.614
849.238
876.419
904.235
920.535
948.396
983.057
973.756
953.852
432.31
432.45
430.643
424.553
416.518
409.893
409.046
415.745
426.908
440.638
457.03
477.414
502.518
531.076
562.406
595.19
629.148
661.891
692.915
721.92
744.727
752.249
740.359
331.261
311.277
307.341
304.843
300.768
297.764
298.917
306.013
316.949
329.153
343.209
359.537
378.488
405.509
437.811
475.166
510.367
544.224
575.959
605.324
629.236
638.931
645.357
258.384
239.997
227.702
222.706
220.556
219.526
221.288
226.789
235.426
246.539
259.442
274.85
296.513
321.664
352.587
387.91
422.187
451.063
477.061
500.102
518.915
531.169
543.165
200.069
185.81
176.288
170.163
164.495
158.887
155.974
156.665
161.229
170.354
183.86
200.578
217.932
245.275
281.27
321.417
360.637
388.238
407.437
420.478
428.357
433.982
437.244
135.355
121.877
124.128
118.403
109.435
99.252
90.1857
82.2726
81.0313
87.3067
84.8293
98.4274
118.526
143.975
188.747
243.316
296.262
327.214
346.152
356.43
359.182
357.574
350.668
70.9624
67.2295
73.4646
67.0377
56.5904
44.399
36.6771
24.7195
22.9978
53.401
74.6439
85.0869
92.1459
103.905
129.625
172.981
225.262
262.628
284.678
296.026
299.909
297.431
288.366
27.9935
30.0433
31.6241
25.4883
18.9968
8.38825
15.5011
18.4827
18.2785
25.7837
46.1587
65.5701
77.4747
78.2537
91.869
122.341
166.081
204.614
228.153
239.988
244.474
242.814
235.671
5.24809
4.63356
3.24657
1.08823
1.35077
1.49166
3.4077
7.81672
13.2872
20.7387
29.5731
42.569
52.5857
62.2675
77.8934
101.804
130.748
159.028
177.948
187.402
190.821
189.54
183.196
-0.249648
-0.226605
-0.194027
-0.148237
0.171049
0.621557
0.541583
-0.764002
-0.714466
3.33086
3.8618
14.0013
21.771
25.3258
44.2943
64.3615
90.5019
114.581
129.074
134.303
135.632
134.223
127.976
-0.438268
-0.419665
-0.367347
-0.260221
-0.152436
-0.234593
-0.836279
-2.69374
-3.84636
-3.27843
-2.28657
-2.59419
-2.53238
4.0516
19.2344
24.9547
43.6575
64.5433
76.1702
76.4515
75.3218
74.4372
69.2992
-0.657552
-0.632173
-0.589799
-0.546549
-0.566187
-0.827834
-1.57724
-2.96225
-4.04432
-3.95445
-3.72518
-3.51865
-3.25805
-3.35082
-3.1183
-1.0047
7.29319
19.7108
24.7739
19.8297
17.9745
18.5485
19.7804
-0.914669
-0.905891
-0.898059
-0.91733
-1.01458
-1.28636
-1.88393
-2.79406
-3.61344
-3.79091
-3.69093
-3.57724
-3.46787
-3.40109
-3.12685
-2.74382
-2.41385
-2.28771
-2.10313
-1.91678
-1.96399
-2.10065
-2.17075
-1.1862
-1.19186
-1.21192
-1.26875
-1.39292
-1.62856
-2.02847
-2.57277
-3.16022
-3.47468
-3.55241
-3.52918
-3.44946
-3.37694
-3.23697
-3.06977
-2.86889
-2.68572
-2.51814
-2.39305
-2.33792
-2.34033
-2.34048
-1.45545
-1.47008
-1.50458
-1.57405
-1.69508
-1.8863
-2.15565
-2.4927
-2.90096
-3.19176
-3.34599
-3.40011
-3.39958
-3.35335
-3.2412
-3.10763
-2.9724
-2.82915
-2.69144
-2.57901
-2.51603
-2.49204
-2.47675
-1.71214
-1.73121
-1.77067
-1.83939
-1.94561
-2.09542
-2.288
-2.51761
-2.79083
-3.01983
-3.17747
-3.26495
-3.29783
-3.28108
-3.21968
-3.13555
-3.0291
-2.92596
-2.8268
-2.734
-2.66776
-2.6299
-2.6075
-1.95066
-1.97117
-2.00986
-2.07214
-2.16176
-2.27692
-2.42089
-2.58597
-2.77365
-2.94473
-3.07805
-3.16666
-3.21306
-3.22087
-3.19439
-3.14072
-3.07061
-2.99519
-2.92322
-2.8576
-2.80069
-2.75473
-2.72074
-2.17013
-2.19018
-2.22515
-2.27869
-2.3516
-2.44283
-2.55177
-2.67436
-2.80768
-2.93443
-3.04008
-3.11719
-3.16483
-3.18434
-3.17791
-3.14943
-3.10542
-3.05411
-3.0007
-2.94983
-2.90283
-2.86152
-2.82631
-2.3727
-2.39105
-2.42122
-2.46602
-2.52503
-2.59684
-2.68059
-2.77335
-2.87148
-2.96601
-3.04791
-3.11138
-3.15461
-3.17768
-3.18178
-3.16921
-3.14349
-3.10902
-3.07125
-3.03233
-2.99459
-2.95936
-2.92715
-2.56166
-2.57759
-2.60278
-2.63961
-2.68688
-2.7437
-2.80861
-2.87962
-2.95359
-3.02519
-3.08875
-3.14012
-3.17737
-3.20013
-3.20904
-3.2055
-3.19152
-3.16972
-3.14307
-3.1138
-3.08391
-3.05464
-3.02672
-2.7396
-2.75291
-2.77347
-2.80338
-2.84104
-2.88591
-2.93654
-2.99137
-3.04809
-3.10319
-3.15294
-3.19438
-3.22583
-3.24671
-3.25733
-3.25853
-3.25149
-3.23777
-3.21918
-3.19744
-3.17404
-3.15021
-3.1267
-2.90821
-2.91907
-2.93563
-2.95974
-2.98962
-3.02499
-3.06458
-3.10716
-3.15111
-3.19403
-3.23332
-3.26684
-3.29318
-3.31172
-3.32251
-3.32602
-3.32299
-3.31438
-3.3014
-3.28528
-3.26711
-3.24788
-3.22833
-3.06886
-3.07764
-3.09089
-3.11023
-3.13386
-3.1617
-3.19265
-3.22582
-3.26008
-3.29375
-3.32499
-3.35218
-3.37418
-3.39036
-3.4006
-3.40512
-3.40438
-3.39903
-3.38989
-3.37785
-3.3637
-3.34822
-3.33204
-3.22293
-3.22999
-3.24056
-3.25602
-3.27466
-3.29653
-3.32071
-3.34655
-3.3733
-3.39981
-3.42473
-3.44683
-3.46514
-3.47909
-3.48845
-3.49327
-3.49383
-3.49057
-3.48407
-3.47496
-3.46386
-3.45134
-3.43794
-3.37163
-3.37732
-3.38574
-3.3981
-3.41277
-3.4299
-3.44878
-3.46884
-3.4897
-3.51056
-3.53043
-3.54835
-3.56353
-3.57542
-3.58375
-3.58847
-3.58972
-3.58779
-3.5831
-3.57612
-3.56731
-3.55712
-3.54597
-3.51601
-3.52062
-3.52739
-3.53729
-3.54884
-3.56221
-3.5769
-3.59241
-3.60858
-3.62489
-3.64065
-3.6551
-3.66758
-3.67759
-3.68483
-3.68919
-3.69073
-3.68963
-3.68618
-3.68074
-3.67366
-3.66528
-3.65595
-3.6568
-3.66065
-3.66619
-3.67425
-3.68339
-3.69381
-3.70517
-3.71706
-3.72943
-3.74204
-3.75438
-3.76589
-3.77601
-3.7843
-3.79044
-3.7943
-3.79586
-3.79522
-3.7926
-3.78826
-3.78248
-3.77552
-3.76765
-3.79452
-3.79788
-3.80264
-3.80941
-3.81677
-3.82493
-3.83363
-3.84263
-3.85192
-3.86142
-3.87087
-3.87983
-3.88786
-3.89456
-3.89963
-3.90289
-3.90428
-3.90386
-3.90177
-3.89823
-3.89342
-3.88756
-3.88087
-3.92945
-3.93255
-3.93693
-3.94298
-3.94915
-3.95565
-3.96228
-3.96898
-3.9757
-3.98257
-3.9895
-3.99622
-4.00238
-4.00761
-4.01163
-4.01424
-4.01535
-4.01497
-4.01319
-4.01022
-4.00615
-4.00114
-3.9954
-4.06178
-4.06462
-4.06903
-4.0748
-4.08038
-4.08588
-4.09102
-4.09587
-4.10045
-4.10503
-4.10974
-4.11445
-4.11892
-4.1228
-4.12582
-4.12777
-4.12853
-4.1281
-4.12647
-4.1239
-4.12037
-4.11604
-4.11108
-4.19152
-4.19423
-4.19883
-4.20455
-4.21002
-4.21507
-4.21933
-4.22281
-4.22566
-4.22831
-4.23107
-4.23399
-4.23692
-4.23958
-4.24167
-4.24298
-4.24338
-4.24285
-4.24145
-4.23901
-4.23586
-4.23207
-4.22774
-4.31885
-4.32144
-4.32623
-4.332
-4.3375
-4.34239
-4.34621
-4.34887
-4.35053
-4.3517
-4.35287
-4.35429
-4.35589
-4.35746
-4.35872
-4.35944
-4.35949
-4.35879
-4.35735
-4.35517
-4.35237
-4.34903
-4.34525
-4.44401
-4.44646
-4.45137
-4.45712
-4.46256
-4.4673
-4.47089
-4.47313
-4.47413
-4.47438
-4.47447
-4.47476
-4.47531
-4.476
-4.47657
-4.4768
-4.47653
-4.47568
-4.47425
-4.47224
-4.46973
-4.46678
-4.46347
-4.56755
-4.56981
-4.57471
-4.58027
-4.58545
-4.58993
-4.59328
-4.5953
-4.59602
-4.59587
-4.59537
-4.59496
-4.59481
-4.59486
-4.59491
-4.59476
-4.59425
-4.59331
-4.59189
-4.59004
-4.58779
-4.58519
-4.58231
-4.69013
-4.69224
-4.69701
-4.70217
-4.7069
-4.71093
-4.71394
-4.71575
-4.71637
-4.71611
-4.71541
-4.71467
-4.71413
-4.71378
-4.71351
-4.71311
-4.71246
-4.71147
-4.71012
-4.70843
-4.70642
-4.70415
-4.70166
-4.8126
-4.81466
-4.8192
-4.82377
-4.82779
-4.83112
-4.83358
-4.8351
-4.83564
-4.83539
-4.83467
-4.83385
-4.83317
-4.83267
-4.83223
-4.83172
-4.83102
-4.83006
-4.82883
-4.82731
-4.82554
-4.82357
-4.82145
-4.93635
-4.93834
-4.94222
-4.94594
-4.9489
-4.95119
-4.95288
-4.95394
-4.95429
-4.95402
-4.95336
-4.95262
-4.95198
-4.95149
-4.95104
-4.95053
-4.94986
-4.94898
-4.94789
-4.94657
-4.94506
-4.9434
-4.94163
-5.06225
-5.06424
-5.06698
-5.06928
-5.07075
-5.07171
-5.07236
-5.07272
-5.0727
-5.07232
-5.07173
-5.07115
-5.07067
-5.0703
-5.06995
-5.06952
-5.06895
-5.0682
-5.06728
-5.06619
-5.06494
-5.06356
-5.06212
-5.18955
-5.19187
-5.19334
-5.19392
-5.19372
-5.19307
-5.19236
-5.19174
-5.19117
-5.19059
-5.19007
-5.18966
-5.1894
-5.18922
-5.18902
-5.18873
-5.1883
-5.18771
-5.18698
-5.18611
-5.18511
-5.18403
-5.18291
-5.31691
-5.31911
-5.32014
-5.31998
-5.31823
-5.31554
-5.31302
-5.31118
-5.30995
-5.30914
-5.30865
-5.30841
-5.30835
-5.30836
-5.30833
-5.30819
-5.30792
-5.30751
-5.30696
-5.30631
-5.30557
-5.30476
-5.30394
-5.44295
-5.44554
-5.4482
-5.44852
-5.44505
-5.43934
-5.43435
-5.43108
-5.42921
-5.4282
-5.42772
-5.42761
-5.4277
-5.42785
-5.42795
-5.42795
-5.42782
-5.42758
-5.42722
-5.42678
-5.42628
-5.42568
-5.42519
-5.56584
-5.5721
-5.58014
-5.58226
-5.57627
-5.56482
-5.5559
-5.55126
-5.54897
-5.54788
-5.54747
-5.54744
-5.5476
-5.5478
-5.54797
-5.54805
-5.54803
-5.54793
-5.54774
-5.5475
-5.54724
-5.54701
-5.54667
-5.68503
-5.69944
-5.71895
-5.72424
-5.71408
-5.69159
-5.67679
-5.67133
-5.66897
-5.66795
-5.66765
-5.66772
-5.66793
-5.66816
-5.66835
-5.66847
-5.66853
-5.66853
-5.6685
-5.66843
-5.66834
-5.66825
-5.66821
754.211
756.772
756.758
762.732
661.742
666.58
673.466
683.422
552.4
553.969
554.723
557.541
441.514
442.227
442.696
443.619
345.514
344.647
344.071
342.632
279.625
275.684
273.181
271.373
228.582
224.548
220.768
216.562
176.458
172.348
167.756
162.551
120.923
116.3
111.136
105.134
61.8664
57.1979
50.371
42.5909
15.2104
15.2317
11.3644
0.158951
-2.15439
-2.12916
-2.15389
-2.072
-2.32923
-2.34894
-2.30607
-2.23839
-2.4622
-2.45066
-2.42625
-2.38857
-2.58494
-2.56985
-2.5543
-2.53522
-2.69718
-2.68191
-2.66691
-2.65233
-2.80227
-2.78709
-2.77251
-2.75857
-2.90436
-2.89022
-2.87709
-2.86463
-3.00634
-2.99365
-2.98201
-2.97104
-3.10908
-3.09806
-3.08794
-3.07833
-3.21338
-3.20395
-3.19519
-3.18681
-3.31944
-3.31143
-3.30389
-3.2966
-3.42734
-3.42053
-3.41405
-3.40771
-3.53702
-3.53123
-3.52565
-3.52014
-3.64835
-3.64342
-3.6386
-3.63381
-3.76117
-3.75694
-3.75278
-3.74861
-3.87531
-3.87166
-3.86806
-3.86443
-3.99061
-3.98746
-3.98433
-3.98116
-4.10692
-4.10419
-4.10146
-4.0987
-4.22412
-4.22174
-4.21937
-4.21695
-4.3421
-4.34002
-4.33795
-4.33585
-4.46073
-4.45892
-4.45713
-4.45531
-4.57993
-4.57837
-4.57683
-4.57526
-4.69962
-4.69828
-4.69697
-4.69564
-4.81973
-4.8186
-4.8175
-4.8164
-4.9402
-4.93927
-4.93837
-4.93748
-5.06098
-5.06024
-5.05954
-5.05884
-5.18203
-5.18147
-5.18095
-5.18045
-5.30331
-5.30293
-5.30258
-5.30226
-5.4248
-5.42458
-5.4244
-5.42424
-5.54648
-5.54639
-5.54636
-5.54637
-5.66823
-5.66829
-5.6684
-5.66856
793.675
819.014
820.336
821.166
817.593
800.112
769.16
740.885
725.635
739.389
756.103
762.19
766.341
773.733
792.086
814.174
828.9
815.39
816.91
696.473
696.89
695.271
696.755
692.086
674.428
654.971
641.098
638.147
641.616
643.88
637.711
626.382
617.289
614.949
627.22
641.448
612.611
645.138
564.684
568.556
569.958
568.073
560.766
547.507
533.957
523.504
517.628
516.125
511.892
506.402
498.03
485.467
471.612
475.597
490.017
458.868
508.164
444.453
442.968
441.085
437.602
430.619
420.317
409.705
401.703
396.116
391.671
387.768
389.716
389.272
382.556
372.094
372.158
384.347
371.018
410.919
340.837
336.926
331.788
325.937
318.06
308.864
297.942
288.276
285.019
289.433
299.44
307.523
309.915
302.421
292.388
284.189
292.547
298.21
316.645
267.726
261.958
254.507
245.713
236.23
225.798
213.897
203.246
198.523
200.462
210.406
219.997
220.694
213.099
201.434
190.544
189.916
199.033
207.004
210.054
201.279
191.457
180.625
169.371
157.787
146.09
137.027
131.809
129.592
128.822
127.123
123.55
117.303
108.728
99.5593
91.431
88.825
92.7808
153.26
141.857
127.772
109.043
93.2677
82.8701
73.95
66.4735
63.2429
62.1611
59.0201
55.5784
51.2868
45.4426
37.5676
29.5668
21.9133
15.5629
22.9954
93.333
75.4257
60.5988
40.6248
25.6832
20.3716
17.6213
15.4002
14.8592
14.499
12.6848
10.8064
8.66384
6.55483
4.0654
2.08219
-0.489864
-0.939142
-1.01689
31.5814
17.5996
14.5148
5.74476
0.316766
-0.790653
-0.857736
-0.0920131
0.304244
-0.221428
-0.405203
-0.877654
-1.2508
-1.29137
-1.30132
-1.32086
-1.32023
-1.23326
-1.2548
-1.54027
-1.63614
-1.70183
-1.71967
-1.70533
-1.6945
-1.67225
-1.66268
-1.62964
-1.57859
-1.52994
-1.47615
-1.41919
-1.42762
-1.44352
-1.45209
-1.44857
-1.42049
-1.43381
-2.00929
-1.95157
-1.93784
-1.92469
-1.89176
-1.87305
-1.86252
-1.84394
-1.80874
-1.7562
-1.70804
-1.65786
-1.61262
-1.59874
-1.59975
-1.59909
-1.59373
-1.57959
-1.5812
-2.14687
-2.07965
-2.05305
-2.04913
-2.03733
-2.02409
-2.01123
-1.98992
-1.95823
-1.92173
-1.88707
-1.85072
-1.8112
-1.77752
-1.76233
-1.75344
-1.74468
-1.73434
-1.73028
-2.315
-2.24883
-2.21748
-2.20086
-2.18
-2.15797
-2.13685
-2.1131
-2.08527
-2.05706
-2.03062
-2.00279
-1.96899
-1.93335
-1.91437
-1.90531
-1.89539
-1.88601
-1.8805
-2.48896
-2.42877
-2.39199
-2.36075
-2.33292
-2.30369
-2.27388
-2.24053
-2.20516
-2.17603
-2.15351
-2.12995
-2.09949
-2.07162
-2.0585
-2.05186
-2.04309
-2.03518
-2.0299
-2.62308
-2.57569
-2.53837
-2.50902
-2.48545
-2.45815
-2.42509
-2.38698
-2.34613
-2.31027
-2.28155
-2.25895
-2.23596
-2.217
-2.20698
-2.199
-2.19065
-2.18366
-2.17878
-2.73501
-2.69784
-2.66441
-2.63825
-2.6182
-2.59782
-2.57378
-2.5464
-2.51061
-2.47
-2.43263
-2.40675
-2.39142
-2.37991
-2.36367
-2.34961
-2.33954
-2.33232
-2.32755
-2.84426
-2.81413
-2.78538
-2.76093
-2.74046
-2.72205
-2.70528
-2.6898
-2.66979
-2.63934
-2.60229
-2.57545
-2.56229
-2.54427
-2.51926
-2.50086
-2.48872
-2.48081
-2.47602
-2.95334
-2.92802
-2.90314
-2.88079
-2.86116
-2.84347
-2.82752
-2.81353
-2.80244
-2.78807
-2.76566
-2.74125
-2.71951
-2.69299
-2.66737
-2.64896
-2.63626
-2.6281
-2.62343
-3.06286
-3.04111
-3.01938
-2.99917
-2.98086
-2.96415
-2.94892
-2.93526
-2.92316
-2.91143
-2.89967
-2.88031
-2.85536
-2.83082
-2.80964
-2.79318
-2.7812
-2.77339
-2.7691
-3.17327
-3.1543
-3.13518
-3.117
-3.10015
-3.08455
-3.07016
-3.05697
-3.04473
-3.03262
-3.01973
-3.00351
-2.98444
-2.96532
-2.94817
-2.93414
-2.92348
-2.91635
-2.91253
-3.28471
-3.26805
-3.25117
-3.23488
-3.21952
-3.20512
-3.19167
-3.17915
-3.16729
-3.15552
-3.14313
-3.12913
-3.11375
-3.09843
-3.08444
-3.07263
-3.06338
-3.05701
-3.05363
-3.3973
-3.38261
-3.36769
-3.35313
-3.33924
-3.32606
-3.31364
-3.30195
-3.29076
-3.27969
-3.26827
-3.25608
-3.24332
-3.23076
-3.2192
-3.20928
-3.20135
-3.19577
-3.19277
-3.51102
-3.49807
-3.48487
-3.4719
-3.4594
-3.44744
-3.43608
-3.42529
-3.41493
-3.40473
-3.39439
-3.38377
-3.37298
-3.36251
-3.35286
-3.34451
-3.33775
-3.33302
-3.33036
-3.62583
-3.61443
-3.60275
-3.59121
-3.58
-3.56922
-3.5589
-3.54906
-3.53958
-3.5303
-3.52106
-3.51179
-3.5026
-3.49378
-3.48566
-3.47861
-3.47288
-3.46891
-3.46668
-3.74163
-3.7316
-3.72128
-3.71103
-3.70103
-3.69135
-3.68205
-3.67313
-3.66455
-3.65621
-3.64801
-3.63994
-3.63208
-3.62461
-3.61776
-3.61179
-3.60693
-3.60362
-3.60168
-3.85833
-3.84951
-3.8404
-3.83133
-3.82243
-3.81378
-3.80545
-3.79744
-3.78974
-3.7823
-3.77508
-3.76807
-3.76135
-3.75502
-3.74924
-3.74418
-3.74001
-3.73719
-3.7354
-3.97582
-3.96808
-3.96006
-3.95205
-3.94417
-3.93649
-3.92906
-3.92192
-3.91507
-3.90849
-3.90217
-3.89612
-3.89039
-3.88504
-3.88016
-3.87587
-3.87228
-3.86976
-3.86825
-4.09403
-4.08725
-4.08021
-4.07316
-4.06621
-4.05943
-4.05286
-4.04655
-4.0405
-4.03473
-4.02923
-4.02404
-4.01917
-4.01468
-4.01058
-4.00696
-4.00387
-4.00167
-4.00035
-4.21288
-4.20696
-4.20081
-4.19464
-4.18855
-4.1826
-4.17684
-4.17131
-4.16602
-4.16099
-4.15625
-4.15181
-4.1477
-4.14395
-4.14053
-4.1375
-4.13485
-4.13295
-4.1318
-4.33231
-4.32716
-4.32181
-4.31646
-4.31117
-4.306
-4.301
-4.29619
-4.29161
-4.28727
-4.28321
-4.27944
-4.27598
-4.27287
-4.27004
-4.26752
-4.26528
-4.26365
-4.26265
-4.45225
-4.4478
-4.4432
-4.43859
-4.43405
-4.42961
-4.42532
-4.4212
-4.41727
-4.41357
-4.41011
-4.40693
-4.40404
-4.40146
-4.39914
-4.39708
-4.39519
-4.39381
-4.39295
-4.57264
-4.56884
-4.56492
-4.56102
-4.55717
-4.55343
-4.5498
-4.54632
-4.543
-4.53987
-4.53696
-4.53429
-4.53189
-4.52978
-4.52787
-4.52621
-4.52463
-4.52349
-4.52274
-4.69342
-4.69024
-4.68696
-4.68371
-4.68052
-4.67742
-4.67442
-4.67153
-4.66878
-4.66617
-4.66375
-4.66155
-4.65957
-4.65785
-4.6563
-4.65497
-4.65367
-4.65274
-4.65209
-4.81456
-4.81194
-4.80927
-4.80663
-4.80407
-4.80157
-4.79915
-4.79682
-4.79459
-4.79247
-4.7905
-4.78871
-4.7871
-4.78572
-4.78447
-4.78344
-4.78235
-4.78161
-4.78106
-4.936
-4.93392
-4.93182
-4.92977
-4.92778
-4.92585
-4.92398
-4.92217
-4.92043
-4.91877
-4.91722
-4.9158
-4.91452
-4.91345
-4.91245
-4.91161
-4.91074
-4.91017
-4.9097
-5.0577
-5.05613
-5.05457
-5.05308
-5.05164
-5.05025
-5.0489
-5.04758
-5.0463
-5.04508
-5.04392
-5.04284
-5.04187
-5.04104
-5.04026
-5.03961
-5.03889
-5.03843
-5.03805
-5.17963
-5.17855
-5.17751
-5.17654
-5.17562
-5.17474
-5.17388
-5.17304
-5.17221
-5.17141
-5.17063
-5.16988
-5.16919
-5.16857
-5.16796
-5.16744
-5.16685
-5.16646
-5.16614
-5.30175
-5.30113
-5.30059
-5.30012
-5.29971
-5.29932
-5.29895
-5.29857
-5.29819
-5.2978
-5.29739
-5.29696
-5.29653
-5.29609
-5.29562
-5.29518
-5.29467
-5.29433
-5.29401
-5.42403
-5.42385
-5.42379
-5.42382
-5.42389
-5.42399
-5.4241
-5.42418
-5.42424
-5.42425
-5.4242
-5.42408
-5.42389
-5.42362
-5.42328
-5.42288
-5.42242
-5.42208
-5.42172
-5.54644
-5.5467
-5.5471
-5.5476
-5.54816
-5.54874
-5.54931
-5.54986
-5.55034
-5.55075
-5.55106
-5.55125
-5.5513
-5.55121
-5.55097
-5.55061
-5.55015
-5.54976
-5.54935
-5.66891
-5.6696
-5.67048
-5.67147
-5.67252
-5.6736
-5.67467
-5.67568
-5.67662
-5.67744
-5.67812
-5.67863
-5.67895
-5.67904
-5.67891
-5.67857
-5.67802
-5.67748
-5.67685
)
;

boundaryField
{
    leftWall
    {
        type            calculated;
        value           nonuniform List<scalar> 
50
(
5844.75
5050.81
4260.38
3469.27
2674.2
1877.32
1121.93
625.881
432.31
331.261
258.384
200.069
135.355
70.9624
27.9935
5.24809
-0.249648
-0.438268
-0.657552
-0.914669
-1.1862
-1.45545
-1.71214
-1.95066
-2.17013
-2.3727
-2.56166
-2.7396
-2.90821
-3.06886
-3.22293
-3.37163
-3.51601
-3.6568
-3.79452
-3.92945
-4.06178
-4.19152
-4.31885
-4.44401
-4.56755
-4.69013
-4.8126
-4.93635
-5.06225
-5.18955
-5.31691
-5.44295
-5.56584
-5.68503
)
;
    }
    rightWall
    {
        type            calculated;
        value           nonuniform List<scalar> 
50
(
2468.46
1766.84
1365.58
1246.79
1189.22
1120.12
1040.1
953.852
816.91
645.138
508.164
410.919
316.645
207.004
92.7808
22.9954
-1.01689
-1.2548
-1.43381
-1.5812
-1.73028
-1.8805
-2.0299
-2.17878
-2.32755
-2.47602
-2.62343
-2.7691
-2.91253
-3.05363
-3.19277
-3.33036
-3.46668
-3.60168
-3.7354
-3.86825
-4.00035
-4.1318
-4.26265
-4.39295
-4.52274
-4.65209
-4.78106
-4.9097
-5.03805
-5.16614
-5.29401
-5.42172
-5.54935
-5.67685
)
;
    }
    lowerWall
    {
        type            calculated;
        value           nonuniform List<scalar> 
62
(
6242.9
6229.76
6205.35
6161.94
6100.93
6019.67
5918.9
5803.01
5680.8
5563.74
5461.31
5379.57
5320.78
5283.21
5261.57
5249.6
5242.16
5234.83
5224.98
5211.45
5195.16
5179.33
5168.28
4770.15
3971.82
3170.54
2368
1575.38
1053.24
893.521
811.035
810.075
806.905
805.277
811.276
3538.7
2835.28
2170.52
1650.88
1325.73
1165.06
1012.87
953.14
3890.43
3752.27
3526.06
3311.5
3149.02
3045.84
2987.11
2984.39
3016.98
3093.27
3182.66
3212.44
3174.35
3108.58
3057.71
3014.82
2973.33
2917.56
2845.82
)
;
    }
    atmosphere
    {
        type            calculated;
        value           nonuniform List<scalar> 
46
(
-5.72917
-5.7581
-5.79889
-5.80854
-5.79248
-5.75171
-5.72912
-5.72907
-5.72905
-5.72904
-5.72904
-5.72904
-5.72904
-5.72904
-5.72904
-5.72904
-5.72904
-5.72904
-5.72904
-5.72904
-5.72904
-5.72904
-5.72905
-5.7291
-5.72918
-5.72933
-5.72955
-5.73006
-5.731
-5.73216
-5.73345
-5.73479
-5.73615
-5.73749
-5.73877
-5.73996
-5.74102
-5.74191
-5.74261
-5.74308
-5.7433
-5.74322
-5.74285
-5.74215
-5.7414
-5.7402
)
;
    }
    defaultFaces
    {
        type            empty;
    }
}


// ************************************************************************* //
