/*--------------------------------*- C++ -*----------------------------------*\
| =========                 |                                                 |
| \\      /  F ield         | OpenFOAM: The Open Source CFD Toolbox           |
|  \\    /   O peration     | Version:  2312                                  |
|   \\  /    A nd           | Website:  www.openfoam.com                      |
|    \\/     M anipulation  |                                                 |
\*---------------------------------------------------------------------------*/
FoamFile
{
    version     2.0;
    format      ascii;
    arch        "LSB;label=32;scalar=64";
    class       volScalarField;
    location    "2";
    object      p_rgh;
}
// * * * * * * * * * * * * * * * * * * * * * * * * * * * * * * * * * * * * * //

dimensions      [1 -1 -2 0 0 0 0];

internalField   nonuniform List<scalar> 
2268
(
6242.9
6229.76
6205.35
6161.94
6100.93
6019.67
5918.9
5803.01
5680.8
5563.74
5461.31
5379.57
5320.78
5283.21
5261.57
5249.6
5242.16
5234.83
5224.98
5211.45
5195.16
5179.33
5168.28
6245.25
6230.77
6207.14
6164.81
6104.78
6023.87
5922.28
5804.42
5679.54
5559.97
5455.66
5372.98
5314.45
5278.21
5258.35
5247.99
5241.8
5235.21
5225.51
5212.03
5195.01
5178.18
5166.22
6251.13
6233.02
6209.45
6169.43
6111.6
6031.82
5928.81
5807.25
5676.84
5552.23
5444.28
5359.81
5301.9
5268.45
5252.19
5245.09
5241.32
5236.26
5227.59
5213.48
5194.45
5175.03
5161.29
6256.31
6235.19
6212.11
6176
6121.82
6044.03
5938.4
5811.75
5672.64
5540.3
5426.76
5339.29
5282.27
5253.28
5242.68
5240.67
5240.59
5237.49
5229.38
5215.71
5194.21
5171.08
5155.05
6257.54
6235.93
6214.52
6184.55
6135.95
6062.12
5958.57
5819.1
5667.1
5523.56
5401.03
5308.6
5253
5231.02
5228.92
5233.71
5236.42
5231.81
5212.62
5183.18
5113.9
5045.72
5002.22
6183.65
6220.17
6174.29
6189.9
6152.77
6080.63
5977.18
5827.8
5600.04
5196.13
4688.89
4222
3903.52
3740.35
3680.88
3630.88
3532.27
3403.21
3245.2
3030.56
2755.94
2487.99
2497.22
5596.1
5655.02
5733.93
5793.65
5785.19
5649.69
5188.11
4170.52
2867.79
1935.37
1412.25
1146.42
1048.81
1072.17
1099.31
1127.29
1158.85
1189.67
1221.51
1250.09
1276.99
1296.88
1274
2550.14
2128.77
2107.31
2178.63
2130.41
1888.98
1405.39
1017.99
965.154
978.611
997.141
1019.17
1043.46
1069.13
1097.41
1126.58
1156.92
1188.96
1220.02
1249.05
1279.64
1315.74
1303.37
3890.43
3752.27
3526.06
3311.5
3149.02
3045.84
2987.11
2984.39
3016.98
3093.27
3182.66
3212.44
3174.35
3108.58
3057.71
3014.82
2973.33
2917.56
2845.82
3887.37
3762.9
3493.73
3203.36
2944.12
2817.66
2753.88
2761.88
2791.49
2901.16
3025.26
3008.51
3000.4
2995.94
2981.26
2951.78
2905.9
2805.02
2641.11
3921.15
3566.43
3005.28
2646.28
2444.16
2279.71
2145.62
2193.17
2428.73
2648.86
2722.46
2830.54
2642.76
2400.48
2251.45
2124.97
1984.25
1824.55
1830.4
3220.94
3000.11
2515.99
2087.04
2016.45
1996.23
1956.61
1895.6
1872.61
2171.92
2507.15
2583.14
2235.79
1799.38
1648.81
1509.62
1444.71
1488.12
1405.18
2433.35
2075.98
2085.83
2062.12
2123.91
2102.57
2068.86
1934.41
1744.3
1620.49
1881.27
2052.13
1728.79
1368.41
1361.34
1423.17
1467.7
1493.27
1418.7
2100.51
2098.67
2111.09
2093.27
1953.07
1903.26
1858.39
1809.6
1654.89
1458.1
1121.54
1127.99
1264.26
1365.46
1416.34
1421.77
1460
1498.91
1433.48
1699.47
1770.52
1788.47
1632.75
1376.77
1379.62
1717.2
1677.19
1509.07
1136.87
1041.6
1065.27
1252.39
1440.79
1414.06
1401.2
1461.99
1616.78
1430.68
1613.55
1322.75
1364.6
1330.3
1327.53
1338.64
1270.79
1188.12
1112.03
1017.27
1024.2
1123.06
1347.63
1476.09
1376.62
1335.14
1541.95
1574.08
1413.13
865.493
1020.51
1002.48
973.525
960.083
955.168
948.238
942.809
950.601
961.393
974.242
994.907
1022.48
1059.95
1095.41
1126.78
1158.97
1192.43
1225.69
1253.43
1272.03
1345.23
1326.69
697.769
849.669
909.089
908.752
869.374
836.26
795.772
758.652
760.032
758.913
760.807
775.279
833.691
892.739
955.248
1012.42
1072.37
1145.93
1206.99
1254.87
1272.93
1268.91
1171.49
632.822
607.719
644.082
652.199
640.737
619.794
612.967
614.537
625.851
639.248
652.46
662.45
635.985
657.942
700.368
784.429
842.025
912.883
997.822
1089.5
1201.21
1210.22
1186.59
633.751
618.371
623.406
623.921
618.626
611.621
606.173
609.616
615.31
624.97
639.348
656.25
672.666
699.157
733.511
775.503
813.711
837.591
857.989
886.081
992.636
1060.58
1137.77
649.395
636.974
639.235
634.082
615.92
598.046
597.148
585.351
564.248
529.552
480.212
468.987
505.892
569.361
675.045
761.688
812.978
841.535
860.504
871.46
850.175
849.234
888.818
625.142
619.531
639.338
644.526
631.694
563.041
423.922
274.065
180.578
139.127
110.225
116.466
130.78
166.022
273.754
506.279
733.231
839.382
862.531
873.615
859.42
849.245
866.247
359.282
514.293
580.794
524.18
391.326
223.32
97.3182
21.0215
22.2211
45.3438
84.4291
221.087
363.456
450.75
542.887
660.495
781.369
844.063
868.107
880.08
885.094
887.605
863.519
125.897
114.841
86.2329
35.0714
2.79879
2.95567
4.88052
12.5599
68.7148
99.7134
369.454
792.055
786.81
764.758
779.485
803.508
832.458
861.012
884.246
900.118
904.813
897.691
876.016
1.35029
1.31416
1.34285
1.39406
1.72322
2.1827
2.09374
1.70941
56.2537
90.3091
109.909
458.946
716.044
763.46
808.311
828.64
856.655
882.61
897.809
906.13
911.399
907.353
895.728
1.28168
1.25445
1.29584
1.40224
1.51984
1.43743
0.826378
-0.980968
10.6791
31.6271
33.3445
10.8893
-0.0840865
218.275
664.512
799.51
872.324
948.709
965.447
937.311
923.478
916.283
904.262
1.13241
1.15787
1.20011
1.24258
1.22515
0.97162
0.214788
-1.17171
-2.25805
-2.1684
-1.93922
-1.73273
-1.47188
-1.52818
-1.25398
33.2298
276.751
638.27
785
621.259
575.172
599.137
649.968
0.996379
1.00603
1.01717
0.997845
0.903008
0.645727
0.0874691
-0.835369
-1.69123
-1.87591
-1.77935
-1.66557
-1.55653
-1.48124
-0.918467
5.51234
8.7558
7.91962
8.61918
9.3392
6.6671
4.05372
0.262058
0.849915
0.844242
0.825207
0.76898
0.653933
0.428456
0.11125
-0.411423
-1.0134
-1.37226
-1.50509
-1.49159
-1.41219
-1.33877
-1.1964
-0.793806
-0.242
0.0532695
0.0856551
0.321481
0.347232
0.0249014
-0.0520184
0.706003
0.691482
0.656936
0.587795
0.474386
0.290516
0.0411449
-0.200274
-0.586088
-0.876116
-1.11885
-1.23741
-1.23671
-1.18941
-1.07699
-0.945055
-0.774951
-0.00802774
0.342917
0.420593
-0.0288319
-0.197351
0.640684
0.574925
0.556399
0.517349
0.448209
0.342742
0.200313
0.00815818
-0.20646
-0.410191
-0.625299
-0.842072
-0.976703
-1.00957
-0.991746
-0.929912
-0.847337
-0.741829
-0.638855
-0.0310425
0.295935
0.160792
-0.294663
-0.319892
0.46171
0.441703
0.403595
0.3414
0.251467
0.135149
-0.00867119
-0.173403
-0.360879
-0.531162
-0.662909
-0.752022
-0.79861
-0.806544
-0.780806
-0.728073
-0.658047
-0.580917
-0.511508
-0.44599
-0.387782
-0.323325
-0.306284
0.367298
0.347614
0.313551
0.260392
0.187047
0.094256
-0.0151491
-0.137712
-0.270946
-0.397593
-0.502589
-0.579081
-0.62626
-0.645938
-0.640406
-0.612479
-0.56807
-0.516247
-0.463542
-0.413046
-0.366156
-0.324866
-0.289602
0.28957
0.270908
0.241672
0.197464
0.138077
0.0652825
-0.0187862
-0.11154
-0.209621
-0.304117
-0.385934
-0.448821
-0.492081
-0.515334
-0.519737
-0.507356
-0.481492
-0.447057
-0.409371
-0.370476
-0.332732
-0.297494
-0.26524
0.225619
0.209393
0.184239
0.147519
0.100233
0.0433803
-0.0216304
-0.0926289
-0.166577
-0.238155
-0.301704
-0.353095
-0.390364
-0.413142
-0.422056
-0.418511
-0.404516
-0.382709
-0.356052
-0.326763
-0.296866
-0.267589
-0.239661
0.172973
0.159271
0.138709
0.108792
0.0711329
0.0262913
-0.0243727
-0.0791991
-0.135903
-0.190996
-0.240742
-0.2822
-0.313653
-0.33454
-0.345157
-0.34635
-0.339309
-0.325584
-0.306983
-0.285228
-0.261839
-0.238007
-0.214494
0.129852
0.118303
0.101737
0.0776258
0.0477464
0.0123772
-0.0272129
-0.0697962
-0.113747
-0.15666
-0.195949
-0.229469
-0.255813
-0.274358
-0.285147
-0.288658
-0.285619
-0.277007
-0.264022
-0.247901
-0.229731
-0.210502
-0.190955
0.0944345
0.0849338
0.071672
0.0523303
0.0286963
0.000857484
-0.0300984
-0.0632632
-0.0975241
-0.131196
-0.162434
-0.189628
-0.211623
-0.227804
-0.238044
-0.242567
-0.241826
-0.23647
-0.227331
-0.215288
-0.201143
-0.185656
-0.169475
0.0656278
0.0577882
0.0472057
0.031736
0.0130922
-0.0087784
-0.0329631
-0.0587962
-0.0855546
-0.112063
-0.136983
-0.159078
-0.177393
-0.191342
-0.200699
-0.205523
-0.206083
-0.20282
-0.196317
-0.187213
-0.176113
-0.16359
-0.150189
0.0421452
0.035656
0.0272127
0.0148535
0.000180276
-0.0169553
-0.0358299
-0.0558969
-0.0767594
-0.0976153
-0.117485
-0.135406
-0.150585
-0.162478
-0.170807
-0.175525
-0.176773
-0.174847
-0.170157
-0.163177
-0.154371
-0.144173
-0.133026
0.0228786
0.0175508
0.0107662
0.000854331
-0.0106932
-0.0240677
-0.0387637
-0.0542706
-0.070436
-0.0867532
-0.10251
-0.116959
-0.129439
-0.13945
-0.146693
-0.151058
-0.152595
-0.151493
-0.148041
-0.142601
-0.135524
-0.127142
-0.117812
0.00694333
0.00272797
-0.00284517
-0.0109095
-0.0200484
-0.0304653
-0.0418366
-0.053722
-0.0660998
-0.0787052
-0.0910474
-0.102556
-0.112678
-0.120965
-0.127112
-0.130968
-0.132525
-0.131892
-0.129271
-0.124933
-0.119153
-0.112188
-0.104321
-0.00559781
-0.0092972
-0.0140855
-0.0208742
-0.0282366
-0.0363889
-0.0450986
-0.0541004
-0.0633859
-0.0728967
-0.0823404
-0.0913048
-0.0993388
-0.106039
-0.111105
-0.114361
-0.115753
-0.115336
-0.113245
-0.109702
-0.104898
-0.0990347
-0.0923419
-0.0153683
-0.0187424
-0.0231733
-0.0287434
-0.034967
-0.0419175
-0.0485521
-0.0552514
-0.0619751
-0.0688501
-0.0757777
-0.0824991
-0.0886581
-0.0938935
-0.0979108
-0.100518
-0.101629
-0.101254
-0.0994748
-0.0965011
-0.092426
-0.0874237
-0.0816808
-0.0212188
-0.0255554
-0.0299385
-0.0352497
-0.0408285
-0.046936
-0.0520956
-0.0569394
-0.0615227
-0.0661152
-0.0708223
-0.0755391
-0.0800015
-0.0838867
-0.0869055
-0.0888524
-0.0896194
-0.0891815
-0.0875591
-0.0849891
-0.0814565
-0.0771297
-0.0721622
-0.0207767
-0.0298664
-0.0343617
-0.0397767
-0.0452358
-0.0509323
-0.0552049
-0.0586794
-0.0615377
-0.0641941
-0.0669564
-0.0698838
-0.0728154
-0.0754697
-0.0775606
-0.0788698
-0.079273
-0.0787378
-0.0773427
-0.074899
-0.0717499
-0.0679599
-0.0636314
-0.022432
-0.0316957
-0.0366165
-0.0421588
-0.0475107
-0.0529013
-0.0568858
-0.0595255
-0.061195
-0.0623785
-0.0635596
-0.0649792
-0.0665831
-0.0681535
-0.0694155
-0.0701393
-0.0701822
-0.0694849
-0.0680506
-0.0658683
-0.0630656
-0.0597291
-0.0559456
-0.022195
-0.028814
-0.0363175
-0.0423533
-0.0478131
-0.0518761
-0.0556723
-0.0584728
-0.0595925
-0.0598557
-0.0599441
-0.0602498
-0.0608138
-0.0615029
-0.0620746
-0.0623008
-0.0620293
-0.0611848
-0.0597488
-0.0577423
-0.0552297
-0.0522841
-0.0489762
-0.0205346
-0.022872
-0.0340266
-0.0399969
-0.0454932
-0.0487676
-0.0524019
-0.0553514
-0.0562604
-0.0560525
-0.0556144
-0.0552537
-0.0551111
-0.0551632
-0.0552192
-0.0550672
-0.0545581
-0.0536131
-0.0521986
-0.0503478
-0.0480946
-0.0454978
-0.0426168
-0.0209464
-0.0226498
-0.0307423
-0.0339534
-0.0322336
-0.0398982
-0.0481982
-0.0505573
-0.0500668
-0.0501323
-0.0504141
-0.0497622
-0.0492327
-0.0488964
-0.0486211
-0.048225
-0.0475715
-0.0465871
-0.0452363
-0.0435446
-0.0415369
-0.0392636
-0.0367742
-0.0201471
-0.0209931
-0.0230355
-0.0171765
-0.021384
-0.0329551
-0.0427819
-0.0443164
-0.0433974
-0.0435973
-0.0444402
-0.0437458
-0.0430862
-0.0425843
-0.0421522
-0.0416418
-0.0409376
-0.0399792
-0.0387497
-0.0372243
-0.0354582
-0.0334935
-0.031373
0.0243639
0.00390117
-0.0100405
-0.0103072
-0.0164082
-0.0314975
-0.0368956
-0.0366004
-0.0367791
-0.0374353
-0.0379875
-0.0373238
-0.0367036
-0.0362096
-0.0357664
-0.0352542
-0.0345828
-0.0337068
-0.0326144
-0.0312947
-0.0297832
-0.0281204
-0.0263498
0.0572649
0.0524449
0.0440718
-0.0103928
-0.0245114
-0.0305844
-0.031381
-0.030085
-0.0301628
-0.0315585
-0.0312068
-0.0306636
-0.0301969
-0.0298304
-0.0294824
-0.0290546
-0.0284814
-0.0277348
-0.0268115
-0.0257242
-0.024465
-0.0230907
-0.0216541
0.0586134
0.0467888
0.0173167
-0.0243839
-0.0273592
-0.0269595
-0.0262364
-0.024698
-0.0250802
-0.0248344
-0.0243792
-0.0239907
-0.0237317
-0.023553
-0.0233594
-0.0230686
-0.0226361
-0.0220491
-0.0213131
-0.0204443
-0.019449
-0.0183617
-0.0172432
0.0584338
-0.00940333
-0.0278084
-0.0286433
-0.0269462
-0.0243279
-0.0212175
-0.0200258
-0.0189801
-0.0182485
-0.0177802
-0.0175495
-0.0174915
-0.0175007
-0.0174721
-0.0173352
-0.0170604
-0.0166459
-0.0161037
-0.0154524
-0.0147153
-0.0138962
-0.0130827
0.0333895
0.00329808
-0.0305714
-0.0277962
-0.0177516
-0.0129118
-0.0166129
-0.0149013
-0.0131077
-0.0121228
-0.0116633
-0.0115548
-0.0116455
-0.0117955
-0.0118994
-0.0118978
-0.0117711
-0.0115236
-0.0111705
-0.0107305
-0.0102232
-0.00963076
-0.00913673
-0.0229046
0.0541403
0.0440795
0.0460337
0.0544631
0.0237516
-0.0143707
-0.00994534
-0.00769553
-0.00662339
-0.00621482
-0.00618826
-0.0063492
-0.00655652
-0.00672232
-0.00680267
-0.00678602
-0.00667881
-0.00649587
-0.00625631
-0.00599072
-0.00576441
-0.00542017
-0.0184657
-0.00425819
0.0165827
0.0208265
0.0151133
-0.00271883
-0.0102678
-0.00485671
-0.00252021
-0.0015083
-0.00120883
-0.00127575
-0.00148782
-0.00171795
-0.00190433
-0.00202728
-0.0020869
-0.00209202
-0.00205356
-0.00198386
-0.00189695
-0.00180665
-0.00176254
1230.3
1184.01
1170.25
1176.44
1134.91
1145.02
1321.88
1341.71
1315.63
1335.28
1336.77
1343.84
1347.61
1346.17
1344.26
1343.08
1093.87
1217.49
1243.63
1207.83
856.372
858.964
849.967
838.649
853.392
837.259
863.224
859.457
879.733
877.362
872.78
867.582
888.509
885.942
883.36
877.132
893.505
878.736
917.762
1094.05
544.5
539.577
423.922
44.8508
-0.225532
-0.208383
-0.229285
-0.15027
-0.0347834
-0.075065
-0.0841687
0.176582
0.884977
0.683804
0.589166
0.803869
-0.267777
-0.283636
-0.260303
0.144633
-0.28548
-0.270248
-0.255399
-0.240871
-0.265414
-0.25018
-0.235592
-0.221759
-0.242439
-0.228221
-0.215062
-0.202623
-0.219265
-0.206582
-0.194955
-0.183984
-0.19687
-0.185847
-0.175726
-0.16612
-0.176006
-0.166569
-0.157806
-0.149427
-0.156875
-0.148865
-0.141328
-0.134034
-0.139583
-0.132781
-0.126293
-0.119956
-0.124071
-0.11829
-0.11271
-0.1072
-0.110218
-0.105281
-0.100465
-0.0956744
-0.0978428
-0.0936103
-0.0894512
-0.0852816
-0.0867841
-0.0831385
-0.079534
-0.0759031
-0.0768881
-0.0737361
-0.070606
-0.0674386
-0.0680088
-0.0652723
-0.0625464
-0.0597819
-0.0600153
-0.0576323
-0.0552578
-0.0528464
-0.0527929
-0.0507158
-0.0486477
-0.0465484
-0.0462322
-0.0444267
-0.0426331
-0.0408144
-0.0402397
-0.0386784
-0.0371339
-0.035571
-0.0347336
-0.0333975
-0.0320829
-0.0307574
-0.0296461
-0.0285198
-0.0274208
-0.0263174
-0.0249204
-0.0239937
-0.0230978
-0.0222042
-0.0205059
-0.019768
-0.0190658
-0.0183716
-0.0163626
-0.0158058
-0.0152869
-0.0147829
-0.0124558
-0.0120701
-0.0117256
-0.0114011
-0.00874934
-0.00852575
-0.00834322
-0.00818838
-0.00522752
-0.00514653
-0.00511324
-0.00511788
-0.0017883
-0.00184947
-0.0019591
-0.00211727
1347.13
1380.99
1371.38
1269.37
1221.01
1312.55
1302.62
1274.35
1247.17
1202.67
1157.44
1218.08
1381.98
1376.02
1365.7
1398.25
1534.37
1560.08
1390.86
1354.07
1352.21
1333.33
1330.24
1342.87
1332.94
1313.54
1299.9
1296.92
1300.3
1301.42
1294.1
1308.48
1273.06
1301.79
1457.86
1438.1
1529.06
1369.19
1352.92
1359.21
1358.76
1352.57
1344.9
1332.03
1322.77
1316.49
1306.23
1299.4
1293.28
1287.56
1265.26
1161.14
1114.95
1272.6
1205.27
1276.99
1222.03
1360.39
1368.66
1388.3
1350.64
1337.9
1328.01
1347.95
1360.86
1328.11
1256.53
1132.26
1080.7
1066.43
1031.37
1036.01
1118.27
1011.51
1048.13
1181.07
1119.63
1078.86
1084.07
1109.49
1118.25
1101.45
1112.69
1193.43
1212.33
1208.41
1028.8
922.45
926.184
951.038
1082.78
1027.04
1037.97
1136.15
1232.71
865.672
872.17
864.407
851.607
843.173
874.235
855.258
772.863
786.266
902.363
1040.88
1172.32
1178.01
1105.68
1002.74
862.164
1041.92
1246.96
1278.27
855.325
849.524
851.089
853.264
859.741
850.452
820.62
788.293
778.259
782.647
836.477
882.613
854.052
801.767
764.128
722.013
776.434
1111.8
1263.63
862.837
856.869
893.272
994.451
1028.6
1007.39
894.07
776.883
753.641
781.604
788.157
754.666
693.537
605.813
522.909
467.515
473.524
381.115
567.899
871.238
995.013
977.79
678.736
542.766
511.423
453.219
335.099
303.109
347.511
309.084
283.655
248.845
196.687
132.701
84.5758
21.3228
1.0184
0.680502
899.434
523.463
448.085
207.139
51.4961
18.8041
15.0742
38.8585
49.1905
32.7647
27.183
14.037
0.423388
0.381484
0.374361
0.350786
0.349042
0.578907
0.973804
10.7849
4.83525
0.0841143
0.0662257
0.0853402
0.163411
0.818793
0.882111
0.872834
0.340532
0.401209
0.499386
0.618148
0.601447
0.423816
0.377683
0.378354
0.389993
0.354213
-0.0737765
-0.0132781
-0.0268123
-0.0137151
0.019224
0.0598627
0.263837
0.43268
0.498559
0.726745
0.859422
1.17168
1.12134
0.878345
0.560165
0.434926
0.388518
0.358433
0.329844
0.424673
0.408483
0.125012
0.0103408
6.24436e-05
0.0121332
0.0266744
0.0484448
0.149603
0.407969
0.68405
0.862179
0.983073
0.772291
0.448029
0.412742
0.366862
0.318117
0.306101
1.24818
1.12747
0.988985
0.289265
0.225565
0.204209
0.0870393
0.0501896
0.0765858
0.104761
0.131188
0.227557
0.196111
0.266469
0.30363
0.313678
0.284269
0.27536
0.281963
0.488594
0.483626
0.452374
0.393677
0.732151
0.867089
0.675236
0.447121
0.222464
0.12786
0.133753
0.157271
0.192849
0.347663
0.279814
0.236979
0.243379
0.251214
0.26328
-0.179349
-0.0994656
-0.126904
-0.0165205
0.332965
0.60634
0.655725
0.892388
1.20571
0.915932
0.223879
0.154946
0.607625
0.801736
0.370905
0.214026
0.220922
0.227785
0.240121
-0.198311
-0.161197
-0.127728
-0.101544
-0.081529
0.00364539
0.330201
0.893301
1.32847
1.30242
1.07966
0.849592
1.18359
1.07208
0.355956
0.190757
0.197211
0.204304
0.216932
-0.182312
-0.152278
-0.12339
-0.0987089
-0.0783479
-0.060084
-0.0336751
0.00732365
0.624575
1.29063
1.34273
1.36868
1.32001
0.514333
0.159599
0.161167
0.173139
0.181013
0.193608
-0.166306
-0.141003
-0.115887
-0.0932679
-0.0737205
-0.0563223
-0.040456
-0.026266
-0.0145462
0.151598
1.03274
0.983906
0.305456
0.0987225
0.119774
0.138131
0.150764
0.158924
0.17194
-0.150661
-0.128906
-0.107146
-0.0867447
-0.0685688
-0.0519207
-0.0367006
-0.0230004
-0.0108393
0.00112351
0.0142979
0.0339143
0.0570124
0.0815745
0.102579
0.119017
0.130991
0.138835
0.151712
-0.135885
-0.116903
-0.097788
-0.0796066
-0.0627619
-0.0471695
-0.0327605
-0.0192358
-0.00661018
0.00577908
0.0195687
0.0344897
0.0530087
0.0720675
0.0892147
0.103244
0.113907
0.121133
0.126286
-0.122146
-0.105474
-0.0885983
-0.0723063
-0.0569479
-0.0425441
-0.0290734
-0.0156452
-0.00363564
0.00823902
0.0201154
0.0335581
0.0488589
0.0641516
0.0781306
0.0899336
0.0991989
0.106094
0.109439
-0.109542
-0.0948514
-0.0799266
-0.0653711
-0.0514773
-0.0383024
-0.0258645
-0.0140784
-0.00205458
0.00870347
0.0195779
0.0316983
0.0444482
0.0570038
0.0685568
0.078478
0.0864134
0.104458
0.0966386
-0.0980739
-0.0851255
-0.0719214
-0.0589482
-0.0464456
-0.0344885
-0.0231276
-0.0123382
-0.00197248
0.00823625
0.018567
0.0291875
0.0399659
0.0504392
0.0600886
0.0684418
0.0758847
0.0962913
0.0928136
-0.0876934
-0.0762879
-0.0646082
-0.0530669
-0.041864
-0.0310767
-0.0207631
-0.0109175
-0.00143963
0.0078395
0.0170798
0.0263494
0.03554
0.0443645
0.0524802
0.0595303
0.0668314
0.0862158
0.0864378
-0.0783028
-0.0682682
-0.0579475
-0.0477009
-0.0376992
-0.0280175
-0.0187143
-0.00980004
-0.00121855
0.00712763
0.0153252
0.0233961
0.031259
0.0387298
0.0455809
0.0515443
0.0575121
0.0762358
0.062013
-0.0698049
-0.0609847
-0.0518784
-0.0428034
-0.0339062
-0.0252589
-0.0169206
-0.00891268
-0.00121242
0.00622876
0.0134516
0.0204549
0.0271797
0.0335088
0.0392988
0.0443554
0.0487739
0.0522694
0.0532428
-0.0621043
-0.0543611
-0.0463437
-0.0383307
-0.0304488
-0.0227656
-0.0153396
-0.00820076
-0.00134879
0.00523231
0.0115541
0.0176029
0.0233369
0.0286854
0.0335693
0.0378592
0.0414905
0.0440818
0.045588
-0.0551196
-0.0483347
-0.0412964
-0.0342486
-0.0273007
-0.0205152
-0.013948
-0.00763371
-0.00158688
0.00418806
0.00968421
0.0148805
0.0197473
0.0242443
0.0283533
0.0319759
0.0350929
0.0373754
0.0386485
-0.0487761
-0.0428497
-0.0366968
-0.0305304
-0.0244446
-0.0184957
-0.0127349
-0.00719838
-0.00190846
0.00311854
0.00786442
0.012303
0.0164126
0.0201685
0.0237102
0.0267757
0.0293424
0.0312875
0.0326576
-0.0430073
-0.0378559
-0.0325092
-0.0271528
-0.0218664
-0.016699
-0.0116955
-0.00688957
-0.00230657
0.00203159
0.00610046
0.00987053
0.0133241
0.0164427
0.0195999
0.0224188
0.0243061
0.0258656
0.0272665
-0.0377494
-0.0333049
-0.0286988
-0.0240925
-0.0195514
-0.0151161
-0.0108234
-0.00670187
-0.00277583
0.000931115
0.00439191
0.0075748
0.0104639
0.0130403
0.0155571
0.0180837
0.0200346
0.0212817
0.022176
-0.0329436
-0.0291506
-0.0252312
-0.0213241
-0.0174815
-0.0137334
-0.0101071
-0.00662488
-0.0033073
-0.000177459
0.00273732
0.00540387
0.00780707
0.00992354
0.0118299
0.0140604
0.0157901
0.0169515
0.017487
-0.0285351
-0.025349
-0.0220718
-0.0188208
-0.0156343
-0.0125316
-0.00952942
-0.00664292
-0.00388848
-0.00128722
0.00113445
0.00334294
0.00532392
0.00704725
0.00859766
0.00995048
0.0119335
0.0128952
0.0128606
-0.0244755
-0.0218586
-0.0191864
-0.0165538
-0.013985
-0.0114882
-0.00906983
-0.00673863
-0.0045069
-0.00239316
-0.000421942
0.00137489
0.00298402
0.00436093
0.00562304
0.00665535
0.00809337
0.00917493
0.00908271
-0.0207205
-0.0186408
-0.0165409
-0.0144934
-0.012507
-0.010579
-0.00870786
-0.00689677
-0.00515433
-0.00349584
-0.00194228
-0.000519737
0.000760719
0.00182612
0.00283026
0.00366835
0.00454967
0.00527372
0.00562908
-0.0172296
-0.0156599
-0.0141037
-0.01261
-0.0111731
-0.00978099
-0.00842626
-0.007108
-0.00583079
-0.00460519
-0.00344599
-0.00237101
-0.0014011
-0.000572055
0.000213561
0.000868833
0.00158229
0.00205412
0.00244802
-0.013966
-0.0128814
-0.011843
-0.0108747
-0.0099587
-0.00907675
-0.00821731
-0.00737526
-0.0065498
-0.0057443
-0.00496396
-0.00421773
-0.0035289
-0.00290667
-0.00229538
-0.00176957
-0.00117794
-0.000789553
-0.00046357
-0.0108938
-0.0102712
-0.00972813
-0.009263
-0.00884847
-0.00846198
-0.00808764
-0.00771443
-0.00733413
-0.00694113
-0.00653007
-0.00610295
-0.00567025
-0.00523122
-0.00476175
-0.00431817
-0.00380539
-0.003469
-0.00313662
-0.00797728
-0.00780076
-0.00773816
-0.00776194
-0.00783775
-0.00793807
-0.00804151
-0.00812974
-0.00818626
-0.00819647
-0.00814621
-0.00802766
-0.00783669
-0.00757058
-0.00722151
-0.00683077
-0.0063605
-0.00602548
-0.00565947
-0.00519069
-0.00545005
-0.00585495
-0.00635459
-0.00691087
-0.00749061
-0.00806549
-0.00860906
-0.00909641
-0.00950448
-0.00981111
-0.00999831
-0.0100507
-0.00995799
-0.00971806
-0.00936289
-0.0088965
-0.00850615
-0.00809432
-0.00246576
-0.00315905
-0.00403688
-0.00502577
-0.00608107
-0.00715982
-0.0082252
-0.00924198
-0.010177
-0.0109994
-0.0116791
-0.0121897
-0.0125039
-0.0126003
-0.0124649
-0.0121231
-0.0115779
-0.0110401
-0.0104058
)
;

boundaryField
{
    leftWall
    {
        type            fixedFluxPressure;
        gradient        uniform 0;
        value           nonuniform List<scalar> 
50
(
6242.9
6245.25
6251.13
6256.31
6257.54
6183.65
5596.1
2550.14
865.493
697.769
632.822
633.751
649.395
625.142
359.282
125.897
1.35029
1.28168
1.13241
0.996379
0.849915
0.706003
0.574925
0.46171
0.367298
0.28957
0.225619
0.172973
0.129852
0.0944345
0.0656278
0.0421452
0.0228786
0.00694333
-0.00559781
-0.0153683
-0.0212188
-0.0207767
-0.022432
-0.022195
-0.0205346
-0.0209464
-0.0201471
0.0243639
0.0572649
0.0586134
0.0584338
0.0333895
-0.0229046
-0.0184657
)
;
    }
    rightWall
    {
        type            fixedFluxPressure;
        gradient        uniform 0;
        value           nonuniform List<scalar> 
50
(
2845.82
2641.11
1830.4
1405.18
1418.7
1433.48
1430.68
1413.13
1390.86
1369.19
1222.03
1181.07
1232.71
1278.27
1263.63
567.899
0.680502
0.973804
0.354213
0.329844
0.306101
0.281963
0.26328
0.240121
0.216932
0.193608
0.17194
0.151712
0.126286
0.109439
0.0966386
0.0928136
0.0864378
0.062013
0.0532428
0.045588
0.0386485
0.0326576
0.0272665
0.022176
0.017487
0.0128606
0.00908271
0.00562908
0.00244802
-0.00046357
-0.00313662
-0.00565947
-0.00809432
-0.0104058
)
;
    }
    lowerWall
    {
        type            fixedFluxPressure;
        gradient        uniform 0;
        value           nonuniform List<scalar> 
62
(
6242.9
6229.76
6205.35
6161.94
6100.93
6019.67
5918.9
5803.01
5680.8
5563.74
5461.31
5379.57
5320.78
5283.21
5261.57
5249.6
5242.16
5234.83
5224.98
5211.45
5195.16
5179.33
5168.28
5168.28
5166.22
5161.29
5155.05
5002.22
2497.22
1274
1303.37
1230.3
1184.01
1170.25
1176.44
3890.43
3887.37
3921.15
3220.94
2433.35
2100.51
1699.47
1613.55
3890.43
3752.27
3526.06
3311.5
3149.02
3045.84
2987.11
2984.39
3016.98
3093.27
3182.66
3212.44
3174.35
3108.58
3057.71
3014.82
2973.33
2917.56
2845.82
)
;
    }
    atmosphere
    {
        type            totalPressure;
        rho             rho;
        psi             none;
        gamma           1;
        p0              uniform 0;
        value           nonuniform List<scalar> 
46
(
0
0
0
0
0
0
0
0
0
0
0
0
0
0
0
0
0
0
0
0
0
0
-5.96376e-06
-5.53424e-05
-0.000144046
-0.000291004
-0.000508286
-0.00102116
-0.00195932
-0.00312455
-0.00440546
-0.0057497
-0.00711182
-0.00845275
-0.00973442
-0.0109202
-0.0119766
-0.0128692
-0.01357
-0.0140441
-0.0142575
-0.0141785
-0.013812
-0.0131147
-0.0123558
-0.0111574
)
;
    }
    defaultFaces
    {
        type            empty;
    }
}


// ************************************************************************* //
