/*--------------------------------*- C++ -*----------------------------------*\
| =========                 |                                                 |
| \\      /  F ield         | OpenFOAM: The Open Source CFD Toolbox           |
|  \\    /   O peration     | Version:  2312                                  |
|   \\  /    A nd           | Website:  www.openfoam.com                      |
|    \\/     M anipulation  |                                                 |
\*---------------------------------------------------------------------------*/
FoamFile
{
    version     2.0;
    format      ascii;
    arch        "LSB;label=32;scalar=64";
    class       volVectorField;
    location    "2";
    object      U;
}
// * * * * * * * * * * * * * * * * * * * * * * * * * * * * * * * * * * * * * //

dimensions      [0 1 -1 0 0 0 0];

internalField   nonuniform List<vector> 
2268
(
(0.00726555 -0.00293165 0)
(-0.00911789 0.00520834 0)
(-0.0360683 0.00640401 0)
(-0.0562176 0.00520983 0)
(-0.0713315 0.00333734 0)
(-0.0804201 0.00179333 0)
(-0.0848355 0.000532369 0)
(-0.0849946 -0.000425782 0)
(-0.0817367 -0.0011195 0)
(-0.0753864 -0.00176593 0)
(-0.0661591 -0.00246294 0)
(-0.0543871 -0.0031009 0)
(-0.0408034 -0.00344112 0)
(-0.0266113 -0.00338529 0)
(-0.0132076 -0.00303426 0)
(-0.00180392 -0.00244311 0)
(0.00677407 -0.00171844 0)
(0.0116539 -0.00095351 0)
(0.0135399 -0.000273276 0)
(0.0129973 6.42347e-05 0)
(0.0114266 0.000310875 0)
(0.0075199 0.000693731 0)
(0.0013991 0.000811386 0)
(-0.0101294 0.003687 0)
(-0.0234544 0.015842 0)
(-0.0493593 0.01591 0)
(-0.0657045 0.0120587 0)
(-0.0786086 0.00781038 0)
(-0.0862372 0.00430237 0)
(-0.0898433 0.00139753 0)
(-0.0895177 -0.00095039 0)
(-0.0860021 -0.00304358 0)
(-0.0794631 -0.00515742 0)
(-0.0698964 -0.00731725 0)
(-0.0576137 -0.00911823 0)
(-0.043498 -0.0100188 0)
(-0.028898 -0.00982054 0)
(-0.0152173 -0.00877644 0)
(-0.00362981 -0.00701881 0)
(0.00512252 -0.00478262 0)
(0.010119 -0.00238043 0)
(0.0118936 -0.000539934 0)
(0.011205 0.00098239 0)
(0.00962093 0.00216773 0)
(0.00592385 0.00420638 0)
(-0.000934455 0.00388608 0)
(-0.0206897 0.0135638 0)
(-0.0382529 0.0260193 0)
(-0.0636414 0.0257212 0)
(-0.0783796 0.0187111 0)
(-0.0890792 0.0118255 0)
(-0.0949083 0.00613559 0)
(-0.0971767 0.00147566 0)
(-0.0958404 -0.00222662 0)
(-0.0915054 -0.0055806 0)
(-0.0842153 -0.00901237 0)
(-0.0738173 -0.0125905 0)
(-0.0605614 -0.0154976 0)
(-0.0455057 -0.0168322 0)
(-0.0301698 -0.0163794 0)
(-0.0159818 -0.0145679 0)
(-0.00398293 -0.0116608 0)
(0.00522916 -0.00797407 0)
(0.0105638 -0.0039886 0)
(0.0128209 -0.000534187 0)
(0.0127829 0.00124528 0)
(0.0120354 0.00235086 0)
(0.00904564 0.0050357 0)
(0.00283024 0.00281555 0)
(-0.0283505 0.0309473 0)
(-0.0527833 0.0378923 0)
(-0.0784149 0.0347827 0)
(-0.0919541 0.0244081 0)
(-0.099921 0.0151076 0)
(-0.103469 0.00745579 0)
(-0.103849 0.00107008 0)
(-0.100974 -0.00372516 0)
(-0.0954745 -0.00826343 0)
(-0.0873954 -0.0130171 0)
(-0.0761962 -0.0180831 0)
(-0.061787 -0.0222671 0)
(-0.0455075 -0.0241226 0)
(-0.0290415 -0.0235111 0)
(-0.0138437 -0.0210147 0)
(-0.000738034 -0.0169604 0)
(0.00964953 -0.0116071 0)
(0.0162814 -0.00639058 0)
(0.0190628 -0.00222792 0)
(0.0187709 0.00129346 0)
(0.0180852 0.00419341 0)
(0.014581 0.00955138 0)
(0.00938928 0.0111555 0)
(-0.0302759 0.0513428 0)
(-0.0588319 0.0523774 0)
(-0.08715 0.044806 0)
(-0.10186 0.0292659 0)
(-0.108641 0.0170808 0)
(-0.110204 0.00796215 0)
(-0.108463 0.000679369 0)
(-0.103912 -0.00590774 0)
(-0.0979264 -0.0110571 0)
(-0.0901906 -0.0168509 0)
(-0.078948 -0.0243347 0)
(-0.0637734 -0.0308415 0)
(-0.0465753 -0.0335675 0)
(-0.0289972 -0.0328122 0)
(-0.01231 -0.029356 0)
(0.00294809 -0.0238267 0)
(0.0150287 -0.0164496 0)
(0.0229899 -0.00728661 0)
(0.0267659 -0.000639052 0)
(0.0252297 0.00213098 0)
(0.0229443 0.00309257 0)
(0.0188129 0.00684815 0)
(0.0143928 0.0118782 0)
(-0.0245173 0.0686968 0)
(-0.0577468 0.0660005 0)
(-0.0950764 0.055068 0)
(-0.113437 0.0340833 0)
(-0.120388 0.0173991 0)
(-0.118646 0.00452062 0)
(-0.113821 -0.00421121 0)
(-0.107919 -0.00895676 0)
(-0.103492 -0.0150847 0)
(-0.0980332 -0.0250713 0)
(-0.0874099 -0.0360295 0)
(-0.07229 -0.0435383 0)
(-0.0555487 -0.0455061 0)
(-0.0383658 -0.0433482 0)
(-0.0220795 -0.0380093 0)
(-0.00745065 -0.0308632 0)
(0.00393779 -0.0236633 0)
(0.00916417 -0.0146673 0)
(0.00804836 -0.00397293 0)
(3.03473e-05 0.00363993 0)
(-0.00655101 0.00722775 0)
(-0.00207872 0.0142905 0)
(0.00973165 0.0271419 0)
(-0.032188 0.0848844 0)
(-0.0757606 0.0826168 0)
(-0.116128 0.0663964 0)
(-0.137308 0.04153 0)
(-0.144189 0.0230663 0)
(-0.142807 0.00865093 0)
(-0.138446 -0.00277479 0)
(-0.130679 -0.00966355 0)
(-0.118483 -0.0157646 0)
(-0.105196 -0.0227831 0)
(-0.0976233 -0.0321058 0)
(-0.0951255 -0.0381095 0)
(-0.0976669 -0.0394291 0)
(-0.102739 -0.0404833 0)
(-0.111747 -0.0377177 0)
(-0.132445 -0.0296737 0)
(-0.172959 -0.0146923 0)
(-0.231143 -0.00268811 0)
(-0.268978 0.00462846 0)
(-0.269635 0.00822524 0)
(-0.233501 0.00194253 0)
(-0.150712 -0.00562896 0)
(-0.084774 0.0319477 0)
(-0.0625205 0.116648 0)
(-0.105743 0.107714 0)
(-0.13297 0.083043 0)
(-0.146603 0.0470092 0)
(-0.148487 0.018606 0)
(-0.142354 -0.000605272 0)
(-0.133139 -0.0122329 0)
(-0.129689 -0.0141628 0)
(-0.134146 -0.0185283 0)
(-0.128884 -0.02768 0)
(-0.120039 -0.0368033 0)
(-0.117295 -0.0422242 0)
(-0.120378 -0.0416412 0)
(-0.133782 -0.0365149 0)
(-0.158305 -0.0255728 0)
(-0.190822 -0.00850808 0)
(-0.219341 0.0134224 0)
(-0.239428 0.0195113 0)
(-0.260867 0.00959407 0)
(-0.269487 -0.00964814 0)
(-0.25019 -0.034497 0)
(-0.209145 -0.0666445 0)
(-0.251535 -0.105381 0)
(-0.0791289 0.025619 0)
(-0.102821 0.00118124 0)
(-0.116228 -0.0057685 0)
(-0.101237 -0.0058027 0)
(-0.0896506 -0.00168398 0)
(-0.0744565 -0.00108718 0)
(-0.0527605 -0.00184256 0)
(-0.038781 -0.00152083 0)
(-0.0421496 -0.00387176 0)
(-0.0463747 -0.00675485 0)
(-0.0427181 -0.00600883 0)
(-0.0478041 0.00138408 0)
(-0.0753593 0.00285388 0)
(-0.110249 0.00340388 0)
(-0.133043 0.000783946 0)
(-0.131966 -0.00339053 0)
(-0.113426 -0.00611511 0)
(-0.0823604 -0.00888833 0)
(-0.0354194 -0.0133897 0)
(-0.0141292 0.0414174 0)
(0.0216295 0.0136509 0)
(0.00115695 0.00863049 0)
(0.00399639 -0.00998485 0)
(0.00945462 -0.0115081 0)
(0.0434436 -0.0147044 0)
(0.0642098 -0.0137107 0)
(0.0757351 -0.00689742 0)
(0.0800203 0.00862704 0)
(0.0755506 0.00916459 0)
(0.0398178 0.00368926 0)
(-0.00602705 0.0119571 0)
(-0.026624 0.0215757 0)
(-0.0654964 0.022709 0)
(-0.103057 0.00931166 0)
(-0.117918 -0.00634023 0)
(-0.109217 -0.0172346 0)
(-0.0756176 -0.0287612 0)
(-0.0276974 -0.0409085 0)
(0.0278074 0.0300656 0)
(0.0810342 -0.000120028 0)
(0.0915754 0.00279938 0)
(0.114222 -0.00630546 0)
(0.121431 -0.0142799 0)
(0.162649 -0.0222975 0)
(0.188387 -0.00904819 0)
(0.190499 -0.010291 0)
(0.193259 -0.00436172 0)
(0.191909 0.0108301 0)
(0.177396 0.0248955 0)
(0.133406 0.0302073 0)
(0.0795213 0.0287313 0)
(0.0131638 0.0403027 0)
(-0.05547 0.0252981 0)
(-0.0917979 -0.000840648 0)
(-0.0925179 -0.022059 0)
(-0.0401935 -0.0385367 0)
(0.0114287 -0.0558837 0)
(0.0295301 -0.00683768 0)
(0.0598823 -0.00949572 0)
(0.0699645 -0.00719872 0)
(0.107973 -0.0141 0)
(0.140862 -0.0345567 0)
(0.186312 -0.0469476 0)
(0.25481 -0.0281696 0)
(0.305448 -0.0067258 0)
(0.301924 0.00854487 0)
(0.268017 0.0178718 0)
(0.236196 0.0315702 0)
(0.197482 0.0500978 0)
(0.0937229 0.0721408 0)
(-0.0624557 0.0850757 0)
(-0.0995646 0.0535441 0)
(-0.128285 0.0137186 0)
(-0.139951 -0.0360252 0)
(0.00860903 -0.0868139 0)
(0.117362 -0.0318738 0)
(-0.0423519 -0.0213077 0)
(-0.0272443 -0.0153996 0)
(0.00947643 -0.0312433 0)
(0.0651413 -0.0352934 0)
(0.0997175 -0.0582975 0)
(0.133719 -0.0718516 0)
(0.201388 -0.061494 0)
(0.260469 -0.034743 0)
(0.314991 0.0100168 0)
(0.313578 0.0385773 0)
(0.228652 0.0525045 0)
(0.125845 0.0911315 0)
(-0.100756 0.137833 0)
(-0.201172 0.130566 0)
(-0.226623 0.061196 0)
(-0.215011 0.010055 0)
(-0.189818 -0.0758769 0)
(-0.0183365 -0.167929 0)
(0.126725 -0.0019497 0)
(-0.0355487 0.0272977 0)
(0.0315441 -0.0202055 0)
(0.0504442 -0.0432686 0)
(0.0529007 -0.0452177 0)
(0.0435353 -0.0656877 0)
(0.032605 -0.0814315 0)
(0.0531913 -0.0854541 0)
(0.10601 -0.0619902 0)
(0.163399 -0.0134833 0)
(0.162238 0.0532772 0)
(0.0179708 0.126511 0)
(-0.203864 0.190046 0)
(-0.305769 0.193748 0)
(-0.296768 0.119002 0)
(-0.239534 0.0482561 0)
(-0.243849 0.0156322 0)
(-0.200879 -0.113459 0)
(-0.0164078 -0.245472 0)
(0.109856 0.0293893 0)
(0.0401633 -0.0331277 0)
(0.0464917 -0.0510542 0)
(0.028248 -0.0426093 0)
(-0.0395679 -0.0246121 0)
(-0.0800462 -0.0449544 0)
(-0.120682 -0.0706191 0)
(-0.116525 -0.0973367 0)
(-0.0905054 -0.0687013 0)
(-0.0832113 -0.00835948 0)
(-0.09477 0.1023 0)
(-0.223864 0.204946 0)
(-0.357409 0.240215 0)
(-0.353673 0.180523 0)
(-0.292122 0.0866739 0)
(-0.278372 0.0484816 0)
(-0.282033 0.0117123 0)
(-0.181509 -0.168895 0)
(-0.00893045 -0.318199 0)
(0.0838899 0.0495421 0)
(-0.102892 0.0167953 0)
(-0.242059 0.00617504 0)
(-0.272652 -0.0161999 0)
(-0.254449 -0.0184435 0)
(-0.245518 -0.0352565 0)
(-0.240978 -0.0709065 0)
(-0.253951 -0.0995042 0)
(-0.272591 -0.0767993 0)
(-0.303637 -0.0126272 0)
(-0.305109 0.126576 0)
(-0.329755 0.237519 0)
(-0.342869 0.247181 0)
(-0.313176 0.163078 0)
(-0.28763 0.0749806 0)
(-0.324718 0.0536575 0)
(-0.299123 -0.0129489 0)
(-0.134045 -0.25633 0)
(-0.0140663 -0.378325 0)
(0.0757601 0.063461 0)
(-0.088263 0.221427 0)
(-0.143081 0.132989 0)
(-0.150186 0.0854033 0)
(-0.138794 0.0440721 0)
(-0.130791 0.0141606 0)
(-0.131589 -0.00814261 0)
(-0.127395 -0.01925 0)
(-0.100464 -0.0216828 0)
(-0.071518 -0.0303398 0)
(-0.0498833 -0.0362056 0)
(-0.0438622 -0.0415109 0)
(-0.0499204 -0.0414597 0)
(-0.0625825 -0.034517 0)
(-0.0806794 -0.0198555 0)
(-0.0997596 -0.00287539 0)
(-0.119729 0.0107011 0)
(-0.140931 0.0227431 0)
(-0.168366 0.0346068 0)
(-0.206694 0.0370327 0)
(-0.254612 0.0186554 0)
(-0.29427 -0.0218947 0)
(-0.326794 -0.0734321 0)
(-0.374622 -0.0978744 0)
(0.0100747 0.28978 0)
(-0.0137175 0.168632 0)
(-0.0303644 0.0828813 0)
(-0.0336952 0.0279266 0)
(-0.0289713 0.0144689 0)
(-0.015668 -0.00300708 0)
(-0.00161871 -0.0277589 0)
(0.0482279 -0.0592841 0)
(0.0686983 -0.0593616 0)
(0.0886509 -0.0499071 0)
(0.0956458 -0.0372606 0)
(0.0875042 -0.0279001 0)
(0.0658613 -0.0228985 0)
(0.0322961 -0.0122901 0)
(-0.00587991 0.00284583 0)
(-0.044085 0.0201158 0)
(-0.0829839 0.0445261 0)
(-0.125085 0.0647609 0)
(-0.177797 0.0809525 0)
(-0.232245 0.0744118 0)
(-0.291344 0.0407359 0)
(-0.379954 0.00439711 0)
(-0.492881 0.0138199 0)
(0.109198 0.239949 0)
(0.149007 0.189143 0)
(0.1438 0.107622 0)
(0.133537 0.039771 0)
(0.121536 0.00213727 0)
(0.138026 -0.027418 0)
(0.168251 -0.067586 0)
(0.196658 -0.0861628 0)
(0.22204 -0.082304 0)
(0.241495 -0.0596913 0)
(0.250721 -0.0303631 0)
(0.241654 -0.00151401 0)
(0.204525 0.0380638 0)
(0.147502 0.0669911 0)
(0.06767 0.0867919 0)
(-0.00894757 0.0922997 0)
(-0.0970512 0.115189 0)
(-0.168525 0.132884 0)
(-0.22972 0.143652 0)
(-0.293377 0.137705 0)
(-0.368084 0.115675 0)
(-0.454231 0.109471 0)
(-0.538553 0.119444 0)
(0.1086 0.0181297 0)
(0.186472 0.142502 0)
(0.182577 0.108306 0)
(0.18032 0.0496606 0)
(0.168392 0.00306618 0)
(0.194554 -0.0544262 0)
(0.227488 -0.102247 0)
(0.252205 -0.120326 0)
(0.268844 -0.110105 0)
(0.276691 -0.0773051 0)
(0.274493 -0.0276776 0)
(0.270412 0.0229049 0)
(0.263858 0.0777826 0)
(0.239401 0.134628 0)
(0.18677 0.182106 0)
(0.104384 0.203944 0)
(-0.00289405 0.215473 0)
(-0.119303 0.219303 0)
(-0.220367 0.222739 0)
(-0.300462 0.215974 0)
(-0.379365 0.192964 0)
(-0.456927 0.183144 0)
(-0.520263 0.16506 0)
(-0.00170603 -0.113177 0)
(0.143016 0.123263 0)
(0.125545 0.0931179 0)
(0.175812 0.0349241 0)
(0.220903 -0.0190686 0)
(0.277412 -0.0809084 0)
(0.318103 -0.125368 0)
(0.332757 -0.136958 0)
(0.328592 -0.124451 0)
(0.319897 -0.099003 0)
(0.304649 -0.0657786 0)
(0.27678 -0.0234324 0)
(0.253903 0.0234662 0)
(0.219216 0.0910345 0)
(0.155232 0.169566 0)
(0.0633446 0.242466 0)
(-0.0514311 0.300965 0)
(-0.169135 0.322982 0)
(-0.260429 0.31114 0)
(-0.322967 0.288617 0)
(-0.379426 0.265171 0)
(-0.430142 0.247258 0)
(-0.459885 0.210058 0)
(-0.0789126 -0.146242 0)
(0.0953196 0.0956105 0)
(0.0955004 0.0432074 0)
(0.190288 -0.0338962 0)
(0.276892 -0.097577 0)
(0.350317 -0.135979 0)
(0.40756 -0.152352 0)
(0.416804 -0.145814 0)
(0.352723 -0.126935 0)
(0.126007 -0.0203632 0)
(-0.469964 0.177001 0)
(-0.639005 0.150407 0)
(-0.593173 0.130181 0)
(-0.466557 0.239497 0)
(-0.323699 0.331123 0)
(-0.296741 0.365353 0)
(-0.324223 0.400875 0)
(-0.359532 0.399851 0)
(-0.387534 0.370738 0)
(-0.407167 0.334245 0)
(-0.423798 0.302819 0)
(-0.431251 0.271443 0)
(-0.424381 0.21919 0)
(-0.107356 -0.108845 0)
(0.0185061 -0.00657576 0)
(0.106213 -0.0410897 0)
(0.200872 -0.11153 0)
(0.287704 -0.159252 0)
(0.366434 -0.187861 0)
(0.412624 -0.175303 0)
(-2.02098 0.456657 0)
(-2.59017 0.399957 0)
(-2.28815 0.492749 0)
(-1.95768 0.190115 0)
(-1.62931 -0.118779 0)
(-1.4676 -0.120216 0)
(-1.27757 -0.00165333 0)
(-1.06171 0.156697 0)
(-0.869395 0.283673 0)
(-0.718835 0.360208 0)
(-0.625732 0.38012 0)
(-0.569209 0.363307 0)
(-0.531214 0.331913 0)
(-0.502488 0.297631 0)
(-0.474869 0.256763 0)
(-0.446513 0.196642 0)
(-0.134075 -0.0832122 0)
(-0.0993274 -0.126995 0)
(0.144502 -0.153233 0)
(0.240008 -0.208489 0)
(0.207445 -0.181965 0)
(-1.08877 0.113542 0)
(-2.04315 1.80796 0)
(-2.19422 0.906729 0)
(-1.94635 0.0697268 0)
(-1.79204 -0.0774266 0)
(-1.59795 -0.212942 0)
(-1.54213 -0.243452 0)
(-1.49185 -0.223089 0)
(-1.41733 -0.158891 0)
(-1.30676 -0.0606548 0)
(-1.15557 0.0723141 0)
(-0.99987 0.190047 0)
(-0.863224 0.258556 0)
(-0.752203 0.280569 0)
(-0.666421 0.274233 0)
(-0.599495 0.251739 0)
(-0.545548 0.2145 0)
(-0.503548 0.160289 0)
(-0.0597096 0.15051 0)
(-0.146834 -0.249165 0)
(-0.33036 -0.329629 0)
(-0.633765 -0.0985865 0)
(-0.898704 0.727527 0)
(-1.12517 1.18556 0)
(-1.47377 1.85808 0)
(-1.71291 1.41513 0)
(-1.65332 0.048315 0)
(-1.61063 -0.0802271 0)
(-1.5626 -0.203541 0)
(-1.49746 -0.282899 0)
(-1.46167 -0.259098 0)
(-1.42109 -0.206717 0)
(-1.36823 -0.141532 0)
(-1.28931 -0.0525135 0)
(-1.17705 0.042771 0)
(-1.04357 0.114709 0)
(-0.912031 0.156337 0)
(-0.797975 0.17619 0)
(-0.707848 0.175893 0)
(-0.638903 0.154614 0)
(-0.588744 0.114985 0)
(0.0213417 0.138687 0)
(-0.0606659 0.0708588 0)
(-0.296964 0.117967 0)
(-0.551276 0.30675 0)
(-0.724471 0.726246 0)
(-0.786583 1.32783 0)
(-0.756615 1.85544 0)
(-0.884514 1.62891 0)
(-1.41644 0.113032 0)
(-1.50454 -0.161281 0)
(-1.50658 -0.242737 0)
(-1.5032 -0.306625 0)
(-1.50104 -0.279553 0)
(-1.39563 -0.203452 0)
(-1.34247 -0.161331 0)
(-1.29146 -0.105371 0)
(-1.229 -0.0531409 0)
(-1.14012 -0.0134964 0)
(-1.02924 0.0248092 0)
(-0.917959 0.0678865 0)
(-0.823111 0.0940536 0)
(-0.747669 0.0917783 0)
(-0.686599 0.0620448 0)
(-0.00377312 0.165323 0)
(-0.0917902 0.143933 0)
(-0.227676 0.224226 0)
(-0.376764 0.419592 0)
(-0.470184 0.766259 0)
(-0.434646 1.23547 0)
(-0.280797 1.73442 0)
(-0.0855936 1.7964 0)
(-0.305933 0.847982 0)
(-0.760728 0.0762264 0)
(-1.21903 -0.264441 0)
(-1.38882 -0.50672 0)
(-1.38272 -0.398901 0)
(-1.41384 -0.391979 0)
(-1.37958 -0.262033 0)
(-1.25318 -0.128433 0)
(-1.1794 -0.0967322 0)
(-1.09802 -0.0843184 0)
(-1.02373 -0.0699705 0)
(-0.947526 -0.0384597 0)
(-0.876568 -0.00542512 0)
(-0.812157 0.00219179 0)
(-0.749246 -0.0184916 0)
(-0.00959574 0.219392 0)
(-0.0685774 0.262323 0)
(-0.158756 0.362156 0)
(-0.247489 0.534167 0)
(-0.284051 0.789009 0)
(-0.209425 1.11358 0)
(-0.0329655 1.45944 0)
(0.267212 1.63651 0)
(0.273896 1.13825 0)
(0.0318162 0.6446 0)
(-0.31476 0.282042 0)
(-0.732476 0.0314222 0)
(-1.17409 -0.178368 0)
(-1.35775 -0.354959 0)
(-1.37146 -0.419018 0)
(-1.27216 -0.332077 0)
(-1.2032 -0.269601 0)
(-1.13051 -0.202176 0)
(-1.05023 -0.150437 0)
(-0.976056 -0.0836891 0)
(-0.894025 -0.0358887 0)
(-0.818113 -0.0199213 0)
(-0.727216 -0.0862278 0)
(-0.012323 0.252808 0)
(-0.0500405 0.320358 0)
(-0.10748 0.432107 0)
(-0.154914 0.584657 0)
(-0.161464 0.770594 0)
(-0.0870609 0.984946 0)
(0.0736749 1.20541 0)
(0.340588 1.35881 0)
(0.487234 1.12535 0)
(0.425516 0.815391 0)
(0.261113 0.549735 0)
(0.05907 0.335314 0)
(-0.164489 0.137893 0)
(-0.423389 -0.0744958 0)
(-0.673416 -0.212483 0)
(-0.788671 -0.254394 0)
(-0.808408 -0.277788 0)
(-0.794792 -0.272606 0)
(-0.772769 -0.241791 0)
(-0.729514 -0.196651 0)
(-0.679552 -0.15614 0)
(-0.62792 -0.144156 0)
(-0.575341 -0.138488 0)
(-0.0125573 0.28327 0)
(-0.039455 0.363374 0)
(-0.0752735 0.471862 0)
(-0.0935445 0.599032 0)
(-0.0813157 0.733333 0)
(-0.0167374 0.869784 0)
(0.11749 1.005 0)
(0.3299 1.11088 0)
(0.515691 1.03429 0)
(0.566486 0.855098 0)
(0.529097 0.655587 0)
(0.435676 0.467751 0)
(0.31453 0.300765 0)
(0.182708 0.142164 0)
(0.0480579 -0.00519311 0)
(-0.118997 -0.15437 0)
(-0.240518 -0.231162 0)
(-0.292484 -0.217175 0)
(-0.329375 -0.216818 0)
(-0.330554 -0.206667 0)
(-0.319568 -0.174717 0)
(-0.304067 -0.129687 0)
(-0.256345 -0.135684 0)
(-0.0153874 0.309028 0)
(-0.0368598 0.393729 0)
(-0.058222 0.49118 0)
(-0.0575092 0.594252 0)
(-0.0325617 0.691601 0)
(0.0264928 0.776936 0)
(0.132785 0.851635 0)
(0.294543 0.9122 0)
(0.467304 0.89514 0)
(0.574056 0.80279 0)
(0.612942 0.670503 0)
(0.5944 0.525804 0)
(0.537798 0.37957 0)
(0.456834 0.232673 0)
(0.368467 0.0982166 0)
(0.276744 -0.0124296 0)
(0.1684 -0.10756 0)
(0.0577182 -0.169933 0)
(0.00981876 -0.170571 0)
(-0.0300993 -0.176629 0)
(-0.0543746 -0.182705 0)
(-0.0685121 -0.174413 0)
(-0.0364569 -0.200355 0)
(-0.0229692 0.338314 0)
(-0.0411433 0.416348 0)
(-0.0534182 0.496207 0)
(-0.041557 0.576587 0)
(-0.0093365 0.647004 0)
(0.047058 0.700108 0)
(0.132459 0.736348 0)
(0.251138 0.760717 0)
(0.389661 0.75554 0)
(0.50743 0.71092 0)
(0.58399 0.633 0)
(0.614155 0.531771 0)
(0.607414 0.416323 0)
(0.572221 0.293078 0)
(0.518871 0.173056 0)
(0.455691 0.0678418 0)
(0.383893 -0.0147864 0)
(0.30195 -0.0751639 0)
(0.226337 -0.127945 0)
(0.173788 -0.155683 0)
(0.14221 -0.163942 0)
(0.131951 -0.169525 0)
(0.132258 -0.195714 0)
(-0.0289304 0.372458 0)
(-0.045453 0.433871 0)
(-0.0549258 0.493237 0)
(-0.0391201 0.551976 0)
(-0.00477723 0.601103 0)
(0.048175 0.633148 0)
(0.118912 0.646931 0)
(0.207513 0.649255 0)
(0.311124 0.640001 0)
(0.413464 0.613621 0)
(0.498901 0.567674 0)
(0.555385 0.500398 0)
(0.582506 0.415251 0)
(0.582743 0.317219 0)
(0.561301 0.215329 0)
(0.524282 0.121635 0)
(0.477905 0.0455444 0)
(0.427353 -0.0123555 0)
(0.377452 -0.057677 0)
(0.334076 -0.0964727 0)
(0.300697 -0.129313 0)
(0.278958 -0.157792 0)
(0.26388 -0.18564 0)
(-0.0300817 0.407625 0)
(-0.0459936 0.449919 0)
(-0.0566539 0.488519 0)
(-0.042004 0.526755 0)
(-0.0102955 0.557548 0)
(0.0371649 0.574265 0)
(0.0967167 0.574997 0)
(0.165708 0.565309 0)
(0.243538 0.54982 0)
(0.324621 0.526878 0)
(0.401963 0.494672 0)
(0.465746 0.448693 0)
(0.510477 0.387432 0)
(0.533868 0.312511 0)
(0.536949 0.230173 0)
(0.523364 0.150477 0)
(0.498292 0.0814767 0)
(0.468079 0.0247079 0)
(0.437969 -0.0242174 0)
(0.409625 -0.0680157 0)
(0.383565 -0.106639 0)
(0.360445 -0.140149 0)
(0.338387 -0.170087 0)
(-0.0279123 0.442094 0)
(-0.0429141 0.466708 0)
(-0.0556034 0.486062 0)
(-0.0442773 0.505328 0)
(-0.0176228 0.519555 0)
(0.0229099 0.523732 0)
(0.0730965 0.515863 0)
(0.129061 0.499661 0)
(0.189977 0.479735 0)
(0.253748 0.45603 0)
(0.31786 0.427951 0)
(0.377189 0.392495 0)
(0.426346 0.346771 0)
(0.461114 0.28985 0)
(0.479685 0.224929 0)
(0.483394 0.159141 0)
(0.475848 0.0986862 0)
(0.461752 0.0455298 0)
(0.445213 -0.00182038 0)
(0.427294 -0.0454219 0)
(0.407852 -0.08473 0)
(0.387707 -0.119285 0)
(0.365723 -0.149814 0)
(-0.0244159 0.473844 0)
(-0.0378729 0.483829 0)
(-0.0516798 0.486566 0)
(-0.0435874 0.489021 0)
(-0.0223086 0.488384 0)
(0.0113962 0.481464 0)
(0.0536405 0.466667 0)
(0.100459 0.446293 0)
(0.150391 0.423657 0)
(0.202175 0.399001 0)
(0.254525 0.37196 0)
(0.305245 0.341024 0)
(0.351029 0.303985 0)
(0.388192 0.25922 0)
(0.413909 0.207779 0)
(0.427871 0.154008 0)
(0.431992 0.102167 0)
(0.429185 0.0540877 0)
(0.421915 0.00974724 0)
(0.411464 -0.0312244 0)
(0.397847 -0.0684644 0)
(0.381989 -0.101683 0)
(0.363019 -0.131373 0)
(-0.0207372 0.501369 0)
(-0.0323281 0.499954 0)
(-0.0461519 0.488926 0)
(-0.0403934 0.476999 0)
(-0.0236761 0.463325 0)
(0.00418041 0.446426 0)
(0.0398543 0.425287 0)
(0.0798619 0.401473 0)
(0.122333 0.376995 0)
(0.166006 0.351868 0)
(0.209718 0.325495 0)
(0.252339 0.296903 0)
(0.292142 0.264704 0)
(0.326749 0.227613 0)
(0.353707 0.185742 0)
(0.372019 0.141419 0)
(0.382358 0.0973258 0)
(0.386225 0.0549955 0)
(0.384996 0.0150208 0)
(0.379717 -0.0222532 0)
(0.370874 -0.0565333 0)
(0.359213 -0.0875846 0)
(0.344026 -0.115673 0)
(-0.0173804 0.524454 0)
(-0.0271878 0.514357 0)
(-0.0403888 0.492049 0)
(-0.0362076 0.467996 0)
(-0.0230924 0.443052 0)
(1.86438e-06 0.417193 0)
(0.030275 0.390044 0)
(0.0649522 0.36288 0)
(0.102009 0.336826 0)
(0.140011 0.311525 0)
(0.177698 0.286035 0)
(0.214147 0.259346 0)
(0.248326 0.230439 0)
(0.278841 0.198451 0)
(0.304041 0.163266 0)
(0.322942 0.126056 0)
(0.335588 0.088421 0)
(0.342633 0.0515362 0)
(0.344821 0.0161309 0)
(0.342886 -0.01726 0)
(0.337478 -0.0483661 0)
(0.329159 -0.076948 0)
(0.317383 -0.103071 0)
(-0.0144714 0.543665 0)
(-0.0227958 0.527037 0)
(-0.0352078 0.495469 0)
(-0.0322577 0.461198 0)
(-0.0220974 0.426533 0)
(-0.00296018 0.392626 0)
(0.0227857 0.359725 0)
(0.0530818 0.32907 0)
(0.0859565 0.301376 0)
(0.119803 0.275971 0)
(0.15322 0.251524 0)
(0.185234 0.226747 0)
(0.215026 0.200654 0)
(0.241715 0.172579 0)
(0.264289 0.142362 0)
(0.282033 0.110592 0)
(0.294806 0.0782205 0)
(0.302869 0.04611 0)
(0.30665 0.0149289 0)
(0.306624 -0.0147991 0)
(0.303367 -0.0428177 0)
(0.297363 -0.0689156 0)
(0.288248 -0.0930292 0)
(-0.0119455 0.559676 0)
(-0.0190793 0.538292 0)
(-0.0307642 0.499145 0)
(-0.0289798 0.456274 0)
(-0.0214493 0.413197 0)
(-0.00578874 0.372016 0)
(0.0159852 0.333554 0)
(0.0425057 0.299147 0)
(0.0719647 0.269542 0)
(0.102625 0.24395 0)
(0.132914 0.220566 0)
(0.161731 0.197752 0)
(0.188296 0.174346 0)
(0.211952 0.149677 0)
(0.232069 0.123518 0)
(0.248195 0.0961463 0)
(0.2602 0.0681419 0)
(0.268211 0.0401264 0)
(0.272518 0.0126558 0)
(0.273436 -0.013823 0)
(0.271437 -0.0390408 0)
(0.266937 -0.0627822 0)
(0.259741 -0.0849863 0)
(-0.00959615 0.572915 0)
(-0.0156172 0.548383 0)
(-0.0266511 0.50317 0)
(-0.0260492 0.453138 0)
(-0.0210144 0.402782 0)
(-0.00859159 0.354957 0)
(0.00950549 0.311087 0)
(0.0325919 0.272573 0)
(0.0590979 0.240645 0)
(0.08719 0.21463 0)
(0.11509 0.192227 0)
(0.141567 0.171385 0)
(0.165782 0.150622 0)
(0.187177 0.129121 0)
(0.20532 0.106538 0)
(0.219947 0.0829458 0)
(0.23099 0.0586909 0)
(0.238555 0.0342246 0)
(0.24288 0.0100053 0)
(0.244218 -0.0135712 0)
(0.242991 -0.0362657 0)
(0.239508 -0.0578635 0)
(0.233656 -0.0783034 0)
(-0.00716943 0.583386 0)
(-0.0118006 0.557344 0)
(-0.0220831 0.507562 0)
(-0.0225932 0.451761 0)
(-0.0199841 0.395181 0)
(-0.0107285 0.341287 0)
(0.00380333 0.292084 0)
(0.0235716 0.24907 0)
(0.0473139 0.214305 0)
(0.0731714 0.187461 0)
(0.0991564 0.16587 0)
(0.123871 0.146948 0)
(0.146353 0.128793 0)
(0.166076 0.110327 0)
(0.182711 0.0910433 0)
(0.196109 0.0708526 0)
(0.206269 0.0499315 0)
(0.213318 0.0286082 0)
(0.217499 0.00726118 0)
(0.219003 -0.0137494 0)
(0.218192 -0.0341685 0)
(0.215384 -0.0538087 0)
(0.21052 -0.0725868 0)
(-0.00440103 0.590626 0)
(-0.00690438 0.564848 0)
(-0.016015 0.512135 0)
(-0.0173557 0.452048 0)
(-0.0170826 0.390338 0)
(-0.0110139 0.330995 0)
(-0.000114388 0.276474 0)
(0.0162781 0.228596 0)
(0.037204 0.190383 0)
(0.0609064 0.162193 0)
(0.0851837 0.141099 0)
(0.108442 0.12397 0)
(0.129571 0.108372 0)
(0.148007 0.0928591 0)
(0.163462 0.0767072 0)
(0.175853 0.0596764 0)
(0.185232 0.0418076 0)
(0.191753 0.0233287 0)
(0.195667 0.0045518 0)
(0.197187 -0.0141919 0)
(0.196655 -0.032565 0)
(0.194325 -0.0504028 0)
(0.190151 -0.067634 0)
(-0.00116707 0.593819 0)
(-0.000314575 0.570147 0)
(-0.00729582 0.516403 0)
(-0.00881831 0.453633 0)
(-0.0106337 0.388091 0)
(-0.00775655 0.324102 0)
(-0.000746106 0.26427 0)
(0.0120383 0.211291 0)
(0.0298697 0.169018 0)
(0.05121 0.138867 0)
(0.0736407 0.117788 0)
(0.0954823 0.102223 0)
(0.115396 0.0890944 0)
(0.132716 0.0764706 0)
(0.147146 0.0633429 0)
(0.158634 0.0493054 0)
(0.16727 0.0342881 0)
(0.173237 0.018439 0)
(0.176801 0.00202379 0)
(0.178205 -0.0146182 0)
(0.17775 -0.0311687 0)
(0.175671 -0.0474273 0)
(0.172005 -0.0632598 0)
(0.00239094 0.591628 0)
(0.00796622 0.57175 0)
(0.0048832 0.519652 0)
(0.00437779 0.456435 0)
(0.00147564 0.388722 0)
(0.00156563 0.320739 0)
(0.00443468 0.255581 0)
(0.0129288 0.196844 0)
(0.026796 0.150318 0)
(0.0452463 0.117713 0)
(0.065343 0.0961412 0)
(0.0854626 0.0817684 0)
(0.10403 0.0709268 0)
(0.120194 0.0610981 0)
(0.133576 0.0509 0)
(0.144126 0.0397307 0)
(0.151968 0.0274123 0)
(0.157305 0.0140246 0)
(0.160429 -0.000204291 0)
(0.161559 -0.0149527 0)
(0.160985 -0.0298935 0)
(0.158978 -0.044724 0)
(0.155608 -0.0592772 0)
(0.00631265 0.582984 0)
(0.0176313 0.567998 0)
(0.0200599 0.519654 0)
(0.0220885 0.458261 0)
(0.0200497 0.391011 0)
(0.0187987 0.321569 0)
(0.018535 0.252691 0)
(0.0225345 0.188319 0)
(0.0308311 0.135688 0)
(0.0448228 0.0992675 0)
(0.0614456 0.0765749 0)
(0.0790819 0.062943 0)
(0.0958387 0.0540967 0)
(0.11057 0.0468942 0)
(0.122716 0.0395028 0)
(0.13217 0.0310665 0)
(0.139063 0.0212935 0)
(0.143623 0.0102074 0)
(0.146138 -0.0019872 0)
(0.146839 -0.01504 0)
(0.146007 -0.0285438 0)
(0.143922 -0.0421236 0)
(0.140654 -0.0555485 0)
(0.0106642 0.567216 0)
(0.0281617 0.557845 0)
(0.0369916 0.515073 0)
(0.042641 0.457437 0)
(0.0430831 0.392472 0)
(0.0422361 0.323695 0)
(0.0407571 0.253481 0)
(0.0415197 0.185798 0)
(0.0447574 0.128334 0)
(0.0525608 0.0868262 0)
(0.0640017 0.0610315 0)
(0.077662 0.0467781 0)
(0.091536 0.0391857 0)
(0.104152 0.0342464 0)
(0.114613 0.0294524 0)
(0.122644 0.0235614 0)
(0.128341 0.0161329 0)
(0.131939 0.00714322 0)
(0.133662 -0.00322874 0)
(0.133756 -0.0147205 0)
(0.132528 -0.0269177 0)
(0.130221 -0.0394164 0)
(0.1269 -0.0518869 0)
(0.0154475 0.543899 0)
(0.0388685 0.540932 0)
(0.0540559 0.505341 0)
(0.0635603 0.453027 0)
(0.0670185 0.391681 0)
(0.0675326 0.324962 0)
(0.0661602 0.255155 0)
(0.0651869 0.186357 0)
(0.0650978 0.126145 0)
(0.0676853 0.0805269 0)
(0.0735465 0.0510475 0)
(0.0821009 0.0349092 0)
(0.0918538 0.0273741 0)
(0.101301 0.0238997 0)
(0.109328 0.0212356 0)
(0.11543 0.0175763 0)
(0.119575 0.0122158 0)
(0.121932 0.00506155 0)
(0.122704 -0.00371859 0)
(0.122105 -0.0138457 0)
(0.120348 -0.0249069 0)
(0.11767 -0.0364915 0)
(0.114155 -0.0481639 0)
(0.0205962 0.512856 0)
(0.0490642 0.517808 0)
(0.0696778 0.490805 0)
(0.082431 0.445134 0)
(0.0884617 0.388501 0)
(0.0903793 0.324968 0)
(0.0895547 0.256766 0)
(0.0879092 0.188241 0)
(0.086172 0.126827 0)
(0.0856317 0.0787555 0)
(0.0871425 0.0463223 0)
(0.0908411 0.02798 0)
(0.0960288 0.0197262 0)
(0.101608 0.0168475 0)
(0.106534 0.0155547 0)
(0.110189 0.0135651 0)
(0.112427 0.0098475 0)
(0.11332 0.00417721 0)
(0.112963 -0.00329097 0)
(0.111526 -0.012281 0)
(0.109168 -0.0224204 0)
(0.106049 -0.0332529 0)
(0.102253 -0.0442932 0)
(0.0257153 0.474237 0)
(0.0579648 0.489707 0)
(0.0824264 0.472605 0)
(0.0972327 0.434685 0)
(0.104829 0.383574 0)
(0.10779 0.323931 0)
(0.107784 0.257981 0)
(0.106425 0.19049 0)
(0.104375 0.128939 0)
(0.102385 0.0797273 0)
(0.101137 0.0455053 0)
(0.101058 0.0254648 0)
(0.102106 0.0163058 0)
(0.10376 0.0134821 0)
(0.10531 0.0129111 0)
(0.10624 0.0119403 0)
(0.106348 0.0093132 0)
(0.10562 0.00467865 0)
(0.104072 -0.00184411 0)
(0.101766 -0.00996123 0)
(0.0987618 -0.0193668 0)
(0.0951616 -0.0296173 0)
(0.0910263 -0.0401862 0)
(0.0296909 0.428867 0)
(0.0642806 0.458367 0)
(0.0905737 0.452339 0)
(0.106064 0.422974 0)
(0.114379 0.377657 0)
(0.118351 0.321856 0)
(0.119736 0.258209 0)
(0.119642 0.192112 0)
(0.118301 0.131268 0)
(0.115959 0.0820634 0)
(0.1131 0.0472843 0)
(0.110264 0.0264555 0)
(0.107848 0.016683 0)
(0.105934 0.013679 0)
(0.104276 0.0133284 0)
(0.102566 0.012797 0)
(0.100601 0.0106957 0)
(0.0982994 0.006627 0)
(0.0955979 0.000688026 0)
(0.092459 -0.00686382 0)
(0.0888446 -0.0157453 0)
(0.0847857 -0.0255783 0)
(0.0803198 -0.0358251 0)
(0.0304216 0.379271 0)
(0.0658416 0.426037 0)
(0.0917196 0.431572 0)
(0.107201 0.410861 0)
(0.116349 0.370859 0)
(0.122038 0.318212 0)
(0.125663 0.256639 0)
(0.127601 0.192268 0)
(0.12756 0.133007 0)
(0.125399 0.0850003 0)
(0.121462 0.0509031 0)
(0.116428 0.0302697 0)
(0.11112 0.0203387 0)
(0.10618 0.0170604 0)
(0.101814 0.0164919 0)
(0.0979118 0.0158561 0)
(0.0942706 0.0137693 0)
(0.0907118 0.00983703 0)
(0.0870843 0.00414301 0)
(0.0832646 -0.00308808 0)
(0.079168 -0.0116305 0)
(0.0747248 -0.0211719 0)
(0.0699771 -0.0312188 0)
(0.0259666 0.330742 0)
(0.0612401 0.395741 0)
(0.0845583 0.411514 0)
(0.100318 0.398168 0)
(0.111437 0.362331 0)
(0.119909 0.312117 0)
(0.126411 0.252593 0)
(0.130608 0.190536 0)
(0.131802 0.133862 0)
(0.129693 0.0882751 0)
(0.124646 0.0560564 0)
(0.117611 0.036493 0)
(0.109884 0.0267525 0)
(0.102599 0.0230292 0)
(0.0963048 0.0217715 0)
(0.0909979 0.0205139 0)
(0.0863944 0.0180197 0)
(0.0821698 0.0139123 0)
(0.0780546 0.00824047 0)
(0.0738543 0.00116702 0)
(0.0694787 -0.00715305 0)
(0.0647978 -0.0164891 0)
(0.0598644 -0.0264178 0)
(0.0162682 0.289543 0)
(0.0507349 0.369013 0)
(0.0710828 0.392447 0)
(0.0879827 0.383861 0)
(0.101879 0.350989 0)
(0.11349 0.302976 0)
(0.122704 0.245942 0)
(0.128626 0.187122 0)
(0.130376 0.134187 0)
(0.127685 0.0922041 0)
(0.121147 0.0628135 0)
(0.112175 0.0448183 0)
(0.102575 0.035271 0)
(0.0938222 0.0307228 0)
(0.0866025 0.028242 0)
(0.0808664 0.025889 0)
(0.0761772 0.022674 0)
(0.0720421 0.0182273 0)
(0.0680431 0.0125146 0)
(0.0639296 0.00556386 0)
(0.0595623 -0.00253538 0)
(0.0548494 -0.011677 0)
(0.0498636 -0.0215071 0)
(0.00510589 0.261283 0)
(0.0366309 0.34466 0)
(0.05595 0.37342 0)
(0.0740809 0.367632 0)
(0.0897911 0.336797 0)
(0.103575 0.291107 0)
(0.114453 0.23736 0)
(0.121077 0.182845 0)
(0.122496 0.13482 0)
(0.118515 0.0974093 0)
(0.110186 0.0713582 0)
(0.0995593 0.0549045 0)
(0.088853 0.0451162 0)
(0.0796285 0.0391433 0)
(0.0724683 0.034886 0)
(0.0671758 0.0310442 0)
(0.0631736 0.0268975 0)
(0.0598355 0.0220612 0)
(0.0566037 0.0163839 0)