/*--------------------------------*- C++ -*----------------------------------*\
| =========                 |                                                 |
| \\      /  F ield         | OpenFOAM: The Open Source CFD Toolbox           |
|  \\    /   O peration     | Version:  2312                                  |
|   \\  /    A nd           | Website:  www.openfoam.com                      |
|    \\/     M anipulation  |                                                 |
\*---------------------------------------------------------------------------*/
FoamFile
{
    version     2.0;
    format      ascii;
    arch        "LSB;label=32;scalar=64";
    class       volScalarField;
    location    "1.3";
    object      alpha.oil;
}
// * * * * * * * * * * * * * * * * * * * * * * * * * * * * * * * * * * * * * //

dimensions      [0 0 0 0 0 0 0];

internalField   nonuniform List<scalar> 
2268
(
2.31158e-11
3.44147e-12
7.23216e-13
1.61979e-13
6.2811e-14
6.02863e-14
7.89406e-14
1.57518e-13
7.66744e-13
2.21296e-12
4.22518e-12
9.87312e-12
2.09274e-11
4.00617e-11
7.48432e-11
1.31528e-10
2.09695e-10
3.56674e-10
5.56561e-10
5.56753e-10
2.02589e-06
5.18115e-05
7.16912e-05
2.89133e-10
5.29109e-11
9.84909e-12
1.89055e-12
6.39702e-13
7.12619e-13
1.08401e-12
1.77113e-12
2.59215e-12
4.9617e-12
1.20364e-11
2.31312e-11
4.97338e-11
1.02545e-10
2.02099e-10
3.73621e-10
5.79915e-10
1.09526e-09
3.37907e-09
2.16688e-09
2.08592e-07
1.88256e-05
5.36217e-05
1.67748e-09
3.45927e-10
4.55829e-11
9.12941e-12
3.18323e-12
4.0897e-12
4.79121e-12
5.94093e-12
2.04765e-11
1.8737e-11
2.15709e-11
3.94705e-11
7.45517e-11
1.37964e-10
2.63539e-10
3.47519e-10
3.84308e-10
4.19258e-10
4.03079e-10
4.04977e-10
4.03079e-10
1.06994e-09
2.57298e-09
3.46984e-09
7.58414e-10
8.56384e-11
4.4185e-11
2.57325e-11
1.51527e-11
1.05293e-11
5.95916e-12
1.56325e-09
7.49242e-10
7.64625e-11
2.51171e-11
3.51621e-11
5.67761e-11
4.71949e-11
4.76783e-11
4.67966e-11
4.86443e-11
5.13042e-07
1.07601e-05
2.68717e-05
0.000253918
0.000687555
6.66764e-11
6.62183e-11
6.57648e-11
6.53142e-11
8.34028e-11
9.21694e-11
1.22047e-11
1.52062e-11
9.37651e-09
9.80088e-09
4.98707e-09
3.37646e-10
9.65223e-12
9.9568e-12
1.37501e-09
4.83874e-05
0.000223576
0.000398501
0.000477377
0.000393056
0.000271399
0.00150307
0.00915293
2.75509e-06
2.3149e-05
5.53247e-06
1.08934e-09
6.62203e-11
9.49591e-10
1.19947e-11
3.288e-09
3.36799e-10
7.16674e-10
5.35749e-07
2.92401e-10
1.21403e-06
9.77665e-06
6.43944e-05
0.000252255
0.000494455
0.000548072
0.00057775
0.000577814
0.000342481
0.00105754
0.00994426
1.37535e-05
7.90991e-05
4.06854e-05
7.48907e-06
2.07241e-07
9.5267e-10
9.14951e-07
5.95496e-08
2.06439e-12
2.01574e-12
2.01572e-12
9.64176e-06
4.50809e-05
7.8441e-05
9.13275e-05
0.000123872
0.000116864
7.24038e-05
3.70073e-05
1.74811e-05
1.69582e-05
6.45052e-07
0.00521742
6.49687e-24
-7.87002e-09
-1.7126e-07
1.87838e-05
4.33243e-06
6.62807e-08
3.56454e-06
3.48318e-11
2.0157e-12
2.01574e-12
2.0157e-12
1.16221e-05
5.83622e-05
6.72106e-05
3.29791e-05
6.76207e-07
9.72748e-10
1.695e-11
2.01031e-11
1.71308e-11
2.4333e-11
2.9524e-07
5.18579e-05
0.597546
0.605026
0.7574
0.472373
0.0656694
0.0483723
0.0459306
0.0498847
0.0497145
0.0531122
0.0413353
0.0413138
0.0415046
0.0414057
0.0423774
0.0363352
0.0185714
0.0195287
0.0651997
0.607927
0.733602
0.79296
0.774245
0.500125
0.352217
0.290387
0.223029
0.300101
0.312429
0.330389
0.332799
0.277846
0.115132
0.0354997
0.0192689
0.0200015
0.0292859
0.0634491
0.71154
0.780618
0.765518
0.326548
0.116504
0.11648
0.15491
0.197508
0.536209
0.56507
0.565044
0.565037
0.56501
0.521159
0.235227
0.0982099
0.0780352
0.0717594
0.0636449
0.783942
0.652064
0.201567
0.173377
0.220932
0.158354
0.137021
0.289659
0.489609
0.565077
0.56507
0.565044
0.565037
0.56501
0.562434
0.44943
0.27873
0.219301
0.245272
0.78394
0.205157
0.120495
0.295864
0.566141
0.497418
0.20698
0.0636263
0.235688
0.565103
0.565044
0.305516
0.225609
0.386446
0.509878
0.479415
0.243739
0.215474
0.555316
0.742534
0.0920597
0.134441
0.643763
0.859133
0.859134
0.464817
0.0638695
0.138293
0.370827
0.261957
0.0984669
0.085772
0.0860316
0.119248
0.142879
0.100178
0.216218
0.588792
0.643291
0.0921654
0.182971
0.859279
0.859134
0.859134
0.716107
0.0664593
0.0767959
0.106309
0.102729
0.108484
0.14156
0.084763
0.0873883
0.0900828
0.099927
0.641243
0.853682
0.643053
0.0926339
0.352528
0.858989
0.859134
0.859134
0.859135
0.161194
0.0644011
0.0689553
0.0772695
0.356023
0.578151
0.323661
0.138386
0.140514
0.233888
0.837271
0.853714
0.374257
0.267368
0.0675432
1.48654e-05
6.13575e-06
1.04862e-06
2.13826e-09
0.000900083
0.000471218
8.72149e-05
1.58546e-06
1.67983e-06
6.30697e-06
2.9965e-06
1.7856e-08
3.07997e-09
1.57122e-09
9.96349e-11
1.71567e-11
4.61351e-05
5.30896e-05
9.67465e-06
6.76311e-07
0.938844
0.883651
0.79921
0.268026
0.000558113
-2.08161e-09
-2.66449e-10
0.0059279
0.00333909
0.000374612
0.000113764
2.60629e-06
1.17296e-07
5.56769e-08
7.98283e-09
3.70228e-09
1.13154e-09
6.09687e-11
6.56126e-05
9.09924e-05
6.74082e-05
9.64443e-07
6.72017e-07
0.999382
0.999382
0.999366
0.938716
0.412104
0.0154992
-1.91045e-20
0.0905178
0.238553
0.207435
0.0696348
0.00555651
1.59849e-06
2.62805e-08
1.96894e-09
1.96193e-09
2.10821e-07
7.09297e-08
9.14419e-08
1.34301e-06
3.10716e-06
0.000431797
0.164613
0.998653
0.999181
0.998903
0.998899
0.927379
0.309473
0.0924096
0.13193
0.397813
0.63262
0.624828
0.416636
0.179447
0.0082852
1.96193e-09
8.47342e-06
4.53028e-05
5.55858e-05
1.46356e-05
1.35108e-06
0.0106147
0.202109
0.238634
0.997119
0.969057
0.921634
0.996824
0.800205
0.280854
0.259372
0.257886
0.25895
0.56083
0.692972
0.692701
0.589606
0.0758847
0.000264008
0.000119437
7.45957e-05
6.85078e-05
2.17726e-05
0.0226034
0.0909523
0.115867
0.118163
0.997328
0.681803
0.463866
0.660498
0.830012
0.706504
0.277202
0.259367
0.446122
0.693347
0.692996
0.693026
0.283195
0.00107764
0.00055572
0.00107474
0.000625679
0.000661538
0.00752077
0.042053
0.04526
0.095029
0.123681
0.997087
0.54487
0.425235
0.499584
0.896093
0.826399
0.599322
0.324336
0.325987
0.32759
0.584839
0.370554
0.00891942
0.000711911
0.000791041
0.000647939
0.000628112
0.000630628
0.0611965
0.137713
0.254483
0.32728
0.343953
0.997483
0.797716
0.425291
0.8961
0.991785
0.723258
0.508064
0.643897
0.808493
0.691863
0.643511
0.0699577
0.000713189
0.000722717
0.00427368
0.0949405
0.279482
0.458854
0.648531
0.785759
0.885397
0.943042
0.952725
0.999983
0.97981
0.625368
0.99991
0.999911
0.999923
0.996874
0.996875
0.996512
0.847526
0.540476
0.0646732
0.0606166
0.345873
0.775809
0.906131
0.962014
0.993064
0.998998
0.998987
0.998848
0.998588
0.998234
0.999983
0.999997
0.998477
0.978644
0.999923
0.999923
0.999909
0.999774
0.978879
0.77829
0.590277
0.657765
0.886248
0.97561
0.998976
0.999115
0.999283
0.999385
0.999392
0.954018
0.842433
0.688219
0.491485
0.99999
0.999997
0.999995
0.818069
0.967355
0.999749
0.99973
0.999099
0.997826
0.951143
0.889236
0.941706
0.941925
0.941442
0.809935
0.669493
0.549496
0.434568
0.313378
0.200195
0.103994
0.0280301
2.94289e-20
0.999997
0.999997
0.999989
0.819248
0.853275
0.948914
0.96031
0.970965
0.929279
0.877605
0.797304
0.681635
0.531891
0.307984
0.123831
0.0273505
0.00332676
1.67935e-05
8.97162e-11
2.79703e-20
-8.42403e-27
4.20826e-20
2.5488e-07
0.994409
0.995391
0.999977
0.962811
0.955805
0.904699
0.716119
0.618914
0.665217
0.736468
0.813534
0.836729
0.837393
0.7411
0.109862
4.58655e-19
-4.22477e-23
9.84456e-19
3.9971e-09
1.168e-08
1.97636e-08
1.42557e-07
2.63679e-07
0.970137
0.987696
0.999953
0.999978
0.999984
0.999984
0.995407
0.590063
0.293034
0.292439
0.346192
0.801965
0.836733
0.613469
0.0717775
3.45437e-10
3.30291e-12
4.55533e-09
1.13555e-08
1.22335e-08
1.52075e-08
5.52948e-08
9.40694e-08
0.969506
0.996223
0.999939
0.999973
0.999776
0.997533
0.996876
0.998193
0.654725
0.673522
0.674029
0.599705
0.2312
3.42723e-07
0.00173731
0.000100608
1.50781e-11
1.04412e-08
9.94478e-09
6.4543e-09
6.54471e-09
2.64756e-09
1.01189e-08
0.795059
0.740188
0.687203
0.625305
0.557063
0.493855
0.484076
0.532489
0.592916
0.565114
0.424845
0.0654456
8.03577e-08
4.43779e-07
4.38793e-07
6.50417e-06
4.72886e-09
9.65307e-09
6.17925e-09
3.14469e-09
2.1864e-09
1.62621e-09
1.62402e-09
0.0948263
0.0500068
0.013138
-5.95442e-19
1.75814e-13
8.59171e-22
-2.14923e-27
-7.02927e-08
0.0147986
2.03851e-09
1.81974e-11
-1.99637e-26
9.22913e-08
6.73077e-07
1.89576e-06
1.80296e-08
5.52614e-09
6.13042e-09
3.381e-09
1.80834e-09
1.30418e-09
8.42917e-10
8.40227e-10
4.01848e-08
8.52505e-09
9.30151e-18
3.10438e-18
4.74673e-09
2.14781e-10
1.05798e-09
3.89609e-09
2.84727e-09
1.93193e-06
1.55759e-07
3.61006e-08
3.68072e-08
1.20646e-07
3.57797e-07
5.02125e-09
4.8871e-09
3.95446e-09
2.45496e-09
1.34353e-09
8.62618e-10
6.16162e-10
6.1605e-10
6.42578e-08
1.83275e-08
1.07373e-10
8.5481e-07
7.12292e-08
1.75786e-08
1.1677e-08
6.50816e-08
4.81196e-06
1.28301e-05
2.06897e-06
8.54795e-09
1.80959e-08
1.18611e-08
5.93782e-09
5.83753e-09
4.3659e-09
3.20404e-09
2.06204e-09
1.09422e-09
6.57821e-10
4.50123e-10
4.68459e-10
1.28954e-06
1.33659e-06
0.000365863
3.99889e-05
1.83039e-09
4.38907e-08
3.73998e-08
1.36804e-06
6.18551e-06
5.71694e-06
8.54795e-09
8.4992e-09
1.79325e-08
1.11277e-08
6.18817e-09
5.24022e-09
4.19624e-09
3.07005e-09
1.87208e-09
9.38165e-10
5.10494e-10
3.38597e-10
3.50657e-10
1.32875e-05
0.000641977
0.00168732
0.000265148
1.77877e-09
7.4195e-08
7.4563e-08
3.21965e-08
7.64144e-08
6.9143e-09
9.00888e-09
1.38006e-08
1.2629e-08
7.22069e-09
6.45801e-09
6.14584e-09
5.10519e-09
3.29678e-09
1.73232e-09
7.73174e-10
3.86966e-10
2.47479e-10
2.49036e-10
4.65856e-05
0.00154779
0.00168973
0.000421207
1.83345e-09
7.11446e-08
6.4837e-08
2.99088e-09
3.09284e-09
7.01622e-09
9.66951e-09
1.26607e-08
8.28654e-09
7.2519e-09
9.23378e-09
9.62982e-09
6.40293e-09
3.33949e-09
1.48558e-09
5.96969e-10
2.7401e-10
1.6227e-10
1.63605e-10
5.71884e-05
0.00153027
0.00168598
0.000171293
1.77876e-09
5.68893e-08
5.97443e-08
2.98603e-09
3.01983e-09
4.90773e-09
6.93936e-09
7.08535e-09
1.64514e-08
2.29784e-08
2.00958e-08
1.29326e-08
6.33297e-09
2.83655e-09
1.17897e-09
3.92663e-10
1.71875e-10
1.0481e-10
9.9712e-11
2.41223e-05
0.000302288
0.000914156
6.00201e-08
3.88042e-09
2.83097e-08
3.17104e-08
9.11931e-09
3.01307e-09
3.01462e-09
4.4049e-09
2.35663e-08
4.33545e-08
3.98471e-08
2.80328e-08
7.41067e-09
3.35647e-09
1.94007e-09
7.13819e-10
2.37515e-10
1.00902e-10
5.5208e-11
5.55806e-11
2.1551e-05
1.07675e-07
1.3643e-07
8.04838e-07
1.09726e-09
1.10281e-08
1.46579e-08
1.1444e-08
1.10757e-08
2.34899e-08
7.60565e-08
1.45298e-07
8.59408e-08
3.56962e-09
3.80053e-09
4.10797e-09
2.71993e-09
1.0811e-09
3.83519e-10
1.23937e-10
4.98038e-11
3.13159e-11
2.93426e-11
3.07586e-06
1.69092e-07
1.1001e-06
1.1893e-05
1.14692e-09
1.9101e-09
3.49191e-09
9.09528e-09
1.19338e-07
2.01975e-07
3.29731e-07
1.45008e-07
1.96211e-08
3.5441e-09
3.52002e-09
3.03287e-09
1.27355e-09
4.8068e-10
1.76659e-10
6.17054e-11
2.56412e-11
1.46393e-11
1.40989e-11
5.30144e-07
5.88181e-07
1.83282e-05
2.2446e-05
2.62188e-09
1.84911e-09
1.87991e-09
1.73375e-07
4.07188e-07
4.11776e-07
3.2292e-07
2.49398e-08
9.24282e-09
4.91313e-09
3.41492e-09
1.70067e-09
6.8801e-10
2.47306e-10
8.6646e-11
2.80349e-11
1.17289e-11
7.35292e-12
6.43306e-12
7.43358e-06
2.46266e-08
3.04866e-08
2.0528e-08
1.95677e-08
5.39698e-08
2.10861e-07
4.29453e-07
4.29835e-07
3.96886e-07
6.80511e-08
1.58439e-08
7.0945e-09
4.29636e-09
2.10236e-09
8.29463e-10
3.15634e-10
1.17464e-10
4.01268e-11
1.33925e-11
5.31404e-12
2.91156e-12
2.60994e-12
3.5089e-05
2.39144e-08
4.43339e-08
8.47849e-08
1.13294e-07
2.43037e-07
4.29453e-07
4.29835e-07
3.95957e-07
8.3282e-08
2.58358e-08
1.00346e-08
5.19007e-09
2.44189e-09
1.03487e-09
4.08636e-10
1.55115e-10
5.52511e-11
1.86458e-11
5.72874e-12
2.08259e-12
1.25327e-12
9.40115e-13
3.77128e-05
1.57371e-08
3.7495e-08
1.15971e-07
1.99843e-07
4.29453e-07
4.29835e-07
3.66885e-07
6.74761e-08
3.42235e-08
1.29256e-08
6.27247e-09
2.95928e-09
1.19966e-09
5.0786e-10
2.01647e-10
7.39732e-11
2.53812e-11
7.9049e-12
2.3082e-12
8.25795e-13
4.1159e-13
3.41398e-13
3.76247e-05
7.36822e-09
1.17743e-08
8.73152e-08
1.64945e-07
2.65561e-07
2.80519e-07
8.42602e-08
4.15282e-08
1.65728e-08
7.81697e-09
3.71575e-09
1.60811e-09
6.26457e-10
2.57899e-10
9.83358e-11
3.3677e-11
1.05432e-11
3.03596e-12
8.25152e-13
2.76563e-13
1.6005e-13
1.11962e-13
3.67302e-05
7.32547e-09
8.63048e-09
3.98033e-08
7.23937e-08
1.23143e-07
7.099e-08
4.06834e-08
1.83796e-08
9.14522e-09
4.48645e-09
2.06017e-09
9.05776e-10
3.52116e-10
1.29744e-10
4.56129e-11
1.44885e-11
4.04085e-12
1.03785e-12
2.76907e-13
9.55932e-14
4.43963e-14
3.26585e-14
2.83636e-05
1.34746e-05
2.13284e-08
4.54689e-08
5.0352e-08
5.94092e-08
2.56722e-08
1.88585e-08
9.93894e-09
5.30038e-09
2.56342e-09
1.13999e-09
4.60381e-10
1.72535e-10
5.69679e-11
1.77988e-11
5.17011e-12
1.33654e-12
3.14091e-13
7.66991e-14
2.51592e-14
1.44923e-14
8.7285e-15
2.75004e-05
6.09939e-05
2.1287e-08
2.84382e-07
1.55425e-06
2.74724e-08
1.02858e-08
8.16277e-09
5.1583e-09
2.84851e-09
1.37562e-09
5.83379e-10
2.16613e-10
7.50739e-11
2.25431e-11
6.59703e-12
1.72721e-12
3.8544e-13
8.05695e-14
2.00766e-14
7.64784e-15
3.80305e-15
2.21158e-15
1.27838e-05
6.27945e-05
3.79784e-05
3.23924e-07
3.96646e-06
5.26208e-07
3.2815e-08
8.71696e-09
3.22493e-09
1.52597e-09
6.90403e-10
2.77474e-10
9.85882e-11
3.00511e-11
8.38754e-12
2.12757e-12
4.93196e-13
1.02612e-13
2.084e-14
4.84742e-15
1.88324e-15
1.01176e-15
5.1155e-16
6.72307e-07
4.22574e-05
4.14353e-05
3.02831e-06
3.80173e-06
5.65713e-07
2.64386e-08
6.12854e-09
2.14389e-09
8.27667e-10
3.28266e-10
1.18638e-10
3.78791e-11
1.13059e-11
3.00587e-12
7.08477e-13
1.50516e-13
2.70194e-14
5.09946e-15
1.28451e-15
5.0658e-16
2.38441e-16
1.09133e-16
8.43499e-09
8.77259e-07
5.01461e-06
2.26366e-06
5.54723e-07
3.49186e-08
6.86816e-09
2.61571e-09
9.88039e-10
3.78003e-10
1.39313e-10
4.75447e-11
1.56403e-11
4.49092e-12
1.10939e-12
2.21938e-13
4.19296e-14
6.73185e-15
1.22338e-15
2.93783e-16
1.18392e-16
5.14573e-17
2.07666e-17
8.41923e-09
3.87971e-08
3.81339e-08
8.15117e-08
1.94868e-08
5.14845e-09
1.90682e-09
8.62647e-10
3.91123e-10
1.65488e-10
6.02878e-11
1.99126e-11
5.80189e-12
1.49076e-12
3.35059e-13
6.42443e-14
1.10099e-14
1.62863e-15
2.74716e-16
7.27465e-17
2.73731e-17
1.03993e-17
3.78056e-18
7.74376e-09
1.38277e-08
1.22242e-08
9.26168e-09
4.75161e-09
2.29962e-09
1.06884e-09
4.75596e-10
1.93057e-10
6.98623e-11
2.27639e-11
6.8208e-12
1.8235e-12
4.4533e-13
9.61072e-14
1.79045e-14
2.8058e-15
3.98501e-16
7.0374e-17
1.82842e-17
6.09674e-18
2.01031e-18
6.31004e-19
5.82891e-09
8.1963e-09
6.46949e-09
3.76052e-09
1.99873e-09
9.34317e-10
4.16064e-10
1.74889e-10
6.69873e-11
2.35746e-11
7.66007e-12
2.23541e-12
5.66859e-13
1.23336e-13
2.45686e-14
4.14116e-15
6.3726e-16
9.05675e-17
1.70346e-17
4.78055e-18
1.44726e-18
4.01671e-19
1.03308e-19
2.78314e-09
3.47319e-09
2.7204e-09
1.61527e-09
8.16497e-10
3.75285e-10
1.60055e-10
6.3313e-11
2.31388e-11
7.79194e-12
2.38921e-12
6.46604e-13
1.59911e-13
3.44781e-14
6.52259e-15
1.08801e-15
1.60775e-16
2.32838e-17
4.47687e-18
1.25054e-18
3.51083e-19
8.27023e-20
1.58402e-20
1.14065e-09
1.42938e-09
1.10182e-09
5.81785e-10
2.63816e-10
1.12525e-10
4.48419e-11
1.67656e-11
5.77352e-12
1.82921e-12
5.34207e-13
1.42085e-13
3.35407e-14
7.04324e-15
1.29845e-15
2.08623e-16
3.01864e-17
4.73279e-18
1.08329e-18
3.17643e-19
8.4e-20
1.66317e-20
2.53264e-21
6.72597e-07
6.63461e-07
6.57769e-07
0.00607293
6.56797e-07
6.56669e-07
6.56797e-07
0.00384796
0.240454
0.206656
0.011941
0.05475
0.240945
0.241098
0.0724348
0.0609704
0.152714
0.149117
0.0777987
0.0555199
0.124885
0.156761
0.145626
0.126173
0.378035
0.391832
0.463152
0.602405
0.951092
0.900604
0.869151
0.831913
0.971494
0.891903
0.759975
0.555218
0.304907
0.161334
0.0231012
1.39189e-10
1.37449e-23
1.8657e-24
2.17721e-08
3.00263e-07
1.58499e-08
7.70297e-08
9.23866e-07
3.96079e-06
1.81276e-07
4.5564e-07
9.05979e-07
5.80758e-07
8.49225e-08
1.14042e-07
7.86442e-08
2.0992e-09
6.19532e-09
1.03269e-09
1.9398e-09
2.08321e-09
1.38895e-09
1.03884e-09
1.16399e-09
1.46428e-09
8.89988e-10
9.06056e-10
1.08922e-09
1.23213e-09
6.67894e-10
7.83569e-10
9.51645e-10
1.11115e-09
5.38542e-10
6.22881e-10
8.08723e-10
9.96496e-10
4.01991e-10
4.91188e-10
6.19012e-10
8.11074e-10
2.85405e-10
3.21983e-10
4.09537e-10
5.24708e-10
1.80601e-10
2.0458e-10
2.35493e-10
2.74441e-10
1.09e-10
1.1307e-10
1.22117e-10
1.33239e-10
5.6589e-11
5.82721e-11
6.11284e-11
5.9958e-11
2.97984e-11
2.84579e-11
2.74006e-11
2.69174e-11
1.33852e-11
1.27257e-11
1.24164e-11
1.08954e-11
6.25723e-12
5.55423e-12
4.68631e-12
4.20197e-12
2.19934e-12
1.97015e-12
1.80459e-12
1.38664e-12
8.77489e-13
7.25369e-13
5.62442e-13
4.63917e-13
2.82336e-13
2.22732e-13
1.86905e-13
1.29808e-13
9.12073e-14
7.33285e-14
5.15401e-14
3.7632e-14
2.38144e-14
1.72863e-14
1.34778e-14
7.92959e-15
6.39886e-15
4.57459e-15
2.83851e-15
1.95054e-15
1.46143e-15
9.72225e-16
6.42422e-16
3.65098e-16
3.07358e-16
1.95802e-16
1.14852e-16
7.91319e-17
6.04873e-17
3.45444e-17
2.07529e-17
1.67429e-17
1.11952e-17
6.008e-18
3.45914e-18
4.1645e-18
1.80731e-18
8.92253e-19
5.52583e-19
1.30045e-18
2.73536e-19
1.27032e-19
1.0567e-19
5.28703e-19
3.86607e-20
1.82811e-20
3.19983e-20
2.88472e-19
5.27541e-21
3.17638e-21
1.57187e-20
1.88649e-19
7.28029e-22
7.67379e-22
8.65988e-21
1.18122e-19
0.407626
0.154662
0.514155
0.626015
0.70272
0.845573
0.859134
0.795569
0.560387
0.27479
0.262223
0.595181
0.700256
0.815116
0.761213
0.831256
0.853407
0.853422
0.853557
0.266904
0.465479
0.310734
0.148068
0.149507
0.465001
0.85066
0.855557
0.855241
0.847831
0.847616
0.849777
0.684465
0.929211
0.916315
0.765898
0.595751
0.417994
0.392471
0.442678
0.48787
0.301347
0.154332
0.14906
0.306289
0.489879
0.66509
0.809558
0.849402
0.846136
0.699791
0.679069
0.921603
0.359107
0.0350848
1.89705e-05
1.87015e-05
0.000551646
0.42628
0.434584
0.226358
0.151948
0.445969
0.468932
0.465064
0.234985
0.255334
0.417344
0.315797
0.245524
0.617147
0.445703
0.00989452
3.25994e-05
3.3003e-05
6.79327e-05
6.82115e-05
0.129294
0.124756
0.124287
0.457757
0.460797
0.41395
0.189055
0.00115048
3.40407e-08
0.00173854
0.00121457
0.0882616
0.221077
0.0248063
0.000434636
0.000430242
0.000430622
0.000208959
7.35158e-05
0.127899
0.349534
0.602729
0.55566
0.263664
0.000111167
3.49962e-05
9.88014e-08
5.11402e-08
0.000266298
0.00350047
0.00906496
9.48298e-05
0.000494636
0.000730098
0.000729928
0.000439491
3.30893e-08
7.07319e-06
0.714171
0.729447
0.641573
0.0964729
4.26777e-05
4.17479e-05
3.00687e-05
1.55988e-06
4.64442e-05
0.00149767
0.0030613
8.77661e-05
0.000102395
0.000618929
0.000609742
9.83915e-06
1.79022e-06
3.06121e-08
3.30896e-08
0.794512
0.479188
0.0255583
0.00013868
0.000134125
8.23242e-05
1.04988e-05
2.54174e-06
0.000171632
0.00081924
0.00024656
8.40348e-05
0.000216004
0.00028174
1.79354e-09
1.79316e-09
8.9818e-06
4.89545e-05
8.40594e-06
0.125647
8.49872e-05
8.54244e-05
0.00015081
2.40441e-05
2.68544e-05
1.3365e-06
1.99713e-05
0.000138364
4.95337e-05
5.6218e-05
0.00010726
0.00011477
1.82526e-09
1.83733e-09
1.79686e-09
1.62835e-05
0.000131517
0.00010473
-2.59549e-09
8.60447e-05
0.000151325
4.55248e-05
6.32768e-07
6.16247e-07
6.32768e-07
5.32564e-06
1.80588e-05
1.7977e-05
4.58232e-05
9.16874e-05
2.04144e-05
4.20865e-09
1.21517e-08
1.98078e-09
9.58308e-08
0.000131491
0.000131525
2.19427e-05
6.58568e-05
6.63342e-05
6.53501e-07
6.24725e-07
1.27346e-05
2.68614e-05
1.56698e-05
1.57775e-05
2.91062e-05
0.000109078
5.85394e-05
1.19108e-05
1.33796e-06
5.34884e-09
1.9881e-09
1.99363e-09
0.00011297
9.73101e-06
7.08683e-06
2.3673e-06
5.55799e-08
2.35567e-06
3.34682e-06
5.02238e-06
8.62698e-05
0.000180548
0.000251048
0.000255685
0.000255917
0.000256009
0.000234556
3.82046e-05
1.99775e-09
1.99363e-09
6.24565e-06
2.45656e-06
3.99117e-07
2.98375e-09
3.0058e-09
5.70674e-08
2.52012e-06
3.82799e-06
9.68344e-06
4.48959e-05
8.46296e-05
0.000131137
0.000145843
0.000124672
0.000161625
0.000183006
6.10763e-05
1.99062e-09
3.69083e-08
1.04981e-05
7.13042e-07
3.921e-07
2.96161e-09
9.47351e-09
1.82515e-08
3.25775e-07
9.09698e-07
4.99267e-06
3.21448e-07
3.30299e-06
3.38201e-06
2.88372e-06
2.63236e-06
2.69367e-06
1.26231e-06
1.07054e-06
9.01595e-07
2.55983e-07
5.53671e-06
9.77936e-07
1.12011e-09
1.94178e-09
5.43656e-09
1.12954e-08
2.39724e-08
3.60822e-08
4.4265e-08
2.9008e-08
1.05058e-06
6.32142e-06
8.44402e-06
4.29968e-06
1.59522e-08
1.46083e-08
1.08859e-08
1.24725e-08
6.19435e-09
2.11573e-09
1.11976e-09
1.12012e-09
1.2857e-09
4.20508e-09
2.19684e-08
4.11982e-08
4.73588e-08
3.43389e-08
2.87674e-08
2.20611e-08
6.48081e-06
8.44485e-06
5.34019e-06
6.91884e-08
1.5121e-08
8.06354e-09
3.33356e-09
1.69543e-09
1.1717e-09
2.2734e-09
1.12029e-09
1.2394e-09
4.0705e-09
3.55319e-08
7.57866e-08
7.59607e-08
5.94492e-08
2.8177e-08
2.12933e-08
9.0265e-07
2.10147e-06
8.33773e-07
9.98079e-08
2.77165e-08
1.46792e-08
5.46245e-09
2.27892e-09
1.69349e-09
6.49263e-09
4.16049e-08
1.3179e-09
4.0294e-09
2.41052e-08
5.46972e-08
6.19012e-08
3.83939e-08
1.94491e-08
1.3553e-08
1.34511e-08
7.5812e-09
1.65182e-08
2.61696e-08
1.30566e-08
5.84963e-09
2.63213e-09
1.5472e-09
1.81248e-09
5.95981e-08
1.03445e-06
1.40148e-09
2.62894e-09
8.74473e-09
1.771e-08
2.04284e-08
1.38573e-08
7.85293e-09
4.87747e-09
5.13653e-09
4.20239e-09
4.341e-09
4.41804e-09
2.72154e-09
1.666e-09
1.32624e-09
1.07627e-09
1.08882e-09
5.03807e-06
9.26904e-06
1.1336e-09
1.51921e-09
2.47375e-09
3.25458e-09
4.13469e-09
3.51468e-09
2.46159e-09
1.67351e-09
1.39921e-09
1.02362e-09
9.90117e-10
9.70136e-10
8.97749e-10
9.75104e-10
1.01608e-09
9.86231e-10
9.86206e-10
1.03777e-05
1.12027e-05
6.67191e-10
7.4592e-10
7.39041e-10
6.75909e-10
8.62888e-10
9.21746e-10
8.89897e-10
7.31583e-10
5.80696e-10
4.90519e-10
4.89341e-10
5.66097e-10
7.31092e-10
9.58928e-10
9.86416e-10
9.86232e-10
3.09655e-06
1.25022e-05
2.13039e-06
3.23856e-10
3.35744e-10
3.10193e-10
2.90058e-10
3.20875e-10
3.48882e-10
3.47466e-10
3.11414e-10
2.7514e-10
2.74442e-10
3.54988e-10
5.24144e-10
7.72274e-10
1.05085e-09
1.05262e-09
9.93114e-10
1.02264e-05
1.25537e-05
1.88487e-06
1.39775e-10
1.38193e-10
1.27657e-10
1.21722e-10
1.22686e-10
1.23384e-10
1.21914e-10
1.17521e-10
1.29212e-10
1.92993e-10
3.52251e-10
6.00455e-10
8.75423e-10
1.19083e-09
1.54151e-09
1.04282e-09
5.9036e-06
6.54818e-06
4.31805e-07
6.04871e-11
5.4352e-11
4.66089e-11
4.28891e-11
4.03146e-11
3.94384e-11
4.11391e-11
5.09683e-11
8.7604e-11
1.95098e-10
4.20681e-10
7.29042e-10
1.00011e-09
1.32014e-09
3.78866e-09
1.26456e-08
1.00353e-07
1.11225e-07
4.66076e-08
2.45404e-11
1.97543e-11
1.57197e-11
1.3125e-11
1.19733e-11
1.28197e-11
1.79035e-11
3.49714e-11
8.74854e-11
2.31295e-10
5.20021e-10
8.89296e-10
1.12585e-09
1.36152e-09
1.208e-08
2.21773e-08
3.64789e-08
3.18184e-08
3.18828e-08
9.53618e-12
6.96732e-12
5.01239e-12
3.87345e-12
3.85896e-12
5.74846e-12
1.26195e-11
3.41236e-11
1.00697e-10
2.78819e-10
6.29194e-10
1.0671e-09
1.27533e-09
1.30076e-09
2.78453e-08
4.27348e-08
4.06675e-08
5.58601e-08
4.11011e-08
3.31889e-12
2.24479e-12
1.52268e-12
1.21975e-12
1.68394e-12
3.9536e-12
1.17808e-11
3.71895e-11
1.17423e-10
3.28622e-10
7.37491e-10
1.24714e-09
1.45634e-09
1.29534e-09
6.39841e-08
1.45285e-07
1.46774e-07
1.75117e-07
1.50686e-07
1.06754e-12
6.95352e-13
4.56638e-13
4.7944e-13
1.07294e-12
3.44064e-12
1.19544e-11
4.09983e-11
1.33238e-10
3.72541e-10
8.29394e-10
1.40686e-09
1.69325e-09
1.99665e-09
1.03108e-07
3.04516e-07
3.04249e-07
3.07223e-07
3.03644e-07
3.23654e-13
1.92892e-13
1.48097e-13
2.52201e-13
8.31829e-13
3.25012e-12
1.2222e-11
4.39454e-11
1.44521e-10
4.01065e-10
8.87783e-10
1.5257e-09
1.96628e-09
3.08833e-09
3.72817e-08
2.81554e-07
3.07223e-07
3.07223e-07
2.08395e-07
8.92511e-14
5.407e-14
5.9522e-14
1.68951e-13
6.96658e-13
3.07234e-12
1.21079e-11
4.45471e-11
1.47184e-10
4.05469e-10
8.95283e-10
1.56273e-09
2.05824e-09
2.26395e-09
8.35325e-09
8.46509e-08
3.07209e-07
3.07223e-07
6.21459e-08
2.24619e-14
1.53666e-14
3.0027e-14
1.25157e-13
5.97631e-13
2.7143e-12
1.13063e-11
4.19521e-11
1.38562e-10
3.7905e-10
8.36733e-10
1.47209e-09
1.9152e-09
1.64115e-09
2.0505e-09
2.03005e-08
1.81545e-07
1.72104e-07
2.75224e-08
5.2434e-15
5.28401e-15
1.88183e-14
9.5848e-14
4.78369e-13
2.24843e-12
9.55571e-12
3.63243e-11
1.18281e-10
3.2286e-10
7.08732e-10
1.24853e-09
1.61831e-09
1.27518e-09
8.68335e-10
3.15511e-09
2.23114e-08
2.16117e-08
1.43635e-08
1.11215e-15
2.36419e-15
1.21083e-14
6.85766e-14
3.53376e-13
1.70327e-12
7.39738e-12
2.81372e-11
9.00152e-11
2.42704e-10
5.34152e-10
9.38311e-10
1.23106e-09
9.64138e-10
5.74717e-10
4.74657e-10
2.85578e-09
3.7337e-09
6.80657e-09
3.20788e-16
1.22482e-15
7.34317e-15
4.40992e-14
2.37768e-13
1.15434e-12
4.99582e-12
1.9569e-11
6.16604e-11
1.62189e-10
3.47949e-10
6.01694e-10
8.03154e-10
6.38934e-10
3.98498e-10
2.22357e-10
4.75866e-10
1.11175e-09
5.80402e-09
1.05931e-16
5.98228e-16
3.93783e-15
2.56746e-14
1.45893e-13
7.34925e-13
3.24021e-12
1.20046e-11
3.65216e-11
9.02258e-11
1.88426e-10
3.18284e-10
4.32225e-10
3.48266e-10
2.3562e-10
1.43627e-10
2.91115e-10
1.09844e-09
4.69851e-09
4.25512e-17
3.02513e-16
2.17812e-15
1.42605e-14
8.84729e-14
4.47325e-13
1.89703e-12
6.69057e-12
1.94895e-11
4.67652e-11
9.42684e-11
1.56065e-10
2.12004e-10
1.69947e-10
1.12212e-10
8.21651e-11
2.17942e-10
7.73847e-10
3.37827e-09
1.78469e-17
1.48304e-16
1.22476e-15
8.4838e-15
5.24678e-14
2.51398e-13
9.98941e-13
3.27232e-12
8.94046e-12
2.03124e-11
4.00707e-11
6.3637e-11
8.61245e-11
6.61353e-11
4.55482e-11
3.3521e-11
9.44394e-11
4.42715e-10
1.60541e-09
8.23183e-18
8.05995e-17
7.39821e-16
5.18638e-15
2.98413e-14
1.31703e-13
4.78328e-13
1.46334e-12
3.71413e-12
7.8029e-12
1.44804e-11
2.1443e-11
2.89407e-11
2.11479e-11
1.15083e-11
1.04919e-11
4.67618e-11
1.82163e-10
7.48838e-10
4.31356e-18
4.90444e-17
4.57578e-16
3.04364e-15
1.51507e-14
6.10036e-14
1.99104e-13
5.41162e-13
1.24442e-12
2.48981e-12
4.40476e-12
6.2519e-12
8.24059e-12
4.93381e-12
2.2401e-12
2.7627e-12
1.21834e-11
7.02431e-11
2.14401e-10
2.71853e-18
3.18312e-17
2.68521e-16
1.56613e-15
6.70629e-15
2.22406e-14
5.91732e-14
1.3725e-13
2.8197e-13
5.32584e-13
8.57952e-13
1.12744e-12
1.34791e-12
6.60288e-13
1.84318e-13
4.45662e-13
3.47096e-12
1.64991e-11
7.17988e-11
1.85637e-18
1.93051e-17
1.35323e-16
6.29261e-16
2.19746e-15
6.25986e-15
1.54531e-14
3.18254e-14
5.8284e-14
1.03715e-13
1.60166e-13
2.22296e-13
2.34358e-13
8.92905e-14
2.36823e-14
6.49634e-14
4.34231e-13
3.62361e-12
1.53115e-11
1.15582e-18
8.84116e-18
4.24245e-17
1.46175e-16
4.0047e-16
9.48771e-16
2.02653e-15
3.89911e-15
6.74316e-15
1.06398e-14
1.60253e-14
2.21943e-14
2.2574e-14
7.29537e-15
1.83875e-15
5.53775e-15
4.8023e-14
4.23763e-13
1.51636e-12
)
;

boundaryField
{
    leftWall
    {
        type            zeroGradient;
    }
    rightWall
    {
        type            zeroGradient;
    }
    lowerWall
    {
        type            zeroGradient;
    }
    atmosphere
    {
        type            inletOutlet;
        inletValue      uniform 0;
        value           nonuniform List<scalar> 
46
(
0
1.42938e-09
1.10182e-09
0
0
0
0
0
0
0
0
0
0
0
0
0
0
0
0
3.17643e-19
8.4e-20
1.66317e-20
2.53264e-21
7.28029e-22
7.67379e-22
8.65988e-21
1.18122e-19
1.15582e-18
8.84116e-18
4.24245e-17
1.46175e-16
4.0047e-16
9.48771e-16
2.02653e-15
3.89911e-15
6.74316e-15
1.06398e-14
1.60253e-14
2.21943e-14
2.2574e-14
7.29537e-15
1.83875e-15
5.53775e-15
4.8023e-14
4.23763e-13
1.51636e-12
)
;
    }
    defaultFaces
    {
        type            empty;
    }
}


// ************************************************************************* //
