/*--------------------------------*- C++ -*----------------------------------*\
| =========                 |                                                 |
| \\      /  F ield         | OpenFOAM: The Open Source CFD Toolbox           |
|  \\    /   O peration     | Version:  2312                                  |
|   \\  /    A nd           | Website:  www.openfoam.com                      |
|    \\/     M anipulation  |                                                 |
\*---------------------------------------------------------------------------*/
FoamFile
{
    version     2.0;
    format      ascii;
    arch        "LSB;label=32;scalar=64";
    class       volScalarField;
    location    "1.3";
    object      p;
}
// * * * * * * * * * * * * * * * * * * * * * * * * * * * * * * * * * * * * * //

dimensions      [1 -1 -2 0 0 0 0];

internalField   nonuniform List<scalar> 
2268
(
5606.5
5672.56
5797.23
5950.91
6117.8
6279.51
6422.6
6535.9
6609.14
6632.96
6599.24
6502.66
6339.5
6111.97
5832.61
5528.99
5237.23
4986.04
4789.18
4648.72
4555.9
4492.94
4461.97
4792.39
4859.68
4992.61
5147.68
5317.2
5481.26
5627.09
5743.78
5820.79
5848.14
5817.55
5721.28
5556.68
5324.79
5038.05
4726.01
4428.2
4175.01
3979.12
3842.82
3750.62
3689.45
3658.83
3969.56
4037.47
4178.85
4336.8
4512.48
4681.59
4832.96
4956.31
5040.58
5074.64
5048.08
4953.61
4785.75
4544.44
4242.3
3913.14
3603.63
3347.38
3156.65
3023.98
2937.39
2879.05
2848.38
3130.57
3206.64
3349.1
3514.82
3701.87
3879.29
4039.33
4173.03
4268.64
4313.35
4294.3
4201.76
4028.86
3772.89
3446.43
3090.01
2762.44
2501.67
2319.31
2194.26
2119.08
2062.18
2030.78
2281.58
2367.32
2504.15
2680.27
2883.51
3072.46
3244.54
3392.7
3504.27
3564.19
3555.97
3466.74
3287.88
3011.79
2649.59
2250.01
1906.17
1683.13
1550.84
1473.95
1428.63
1410.93
1407.39
1536.29
1548.79
1678.17
1843.15
2059.03
2260.42
2447.06
2613.76
2745.79
2825.77
2833.37
2749.01
2562.49
2257.54
1856.95
1508.48
1318.89
1230
1182.29
1159.84
1153.54
1151.68
1157.65
1221.78
1188.97
1209.51
1267.65
1371.31
1510.54
1668.7
1839.7
1992.39
2096.17
2120.56
2045.37
1852.67
1560.45
1295.16
1173.43
1135.48
1117.41
1103.49
1095.48
1090.71
1090.17
1109.7
1140.09
1112.16
1093.39
1078.48
1071.36
1089.49
1139.49
1232.02
1343.35
1433.41
1466.06
1425.51
1283.26
1145.03
1100.68
1091.88
1073.19
1055.92
1042.73
1033.97
1028.02
1025.37
1039.76
2144.04
2064.05
2028.62
2061.92
2053.56
1962.95
1893.08
1965.74
2001.59
1980.41
1908.48
1885.93
1958.27
2158.7
2385.25
2553.29
2661.47
2687.78
2764.6
1841.26
1781.4
1818.97
1767.59
1625.93
1541.13
1447.97
1379.24
1345.09
1333.36
1267.14
1247.79
1301.96
1460.49
1666.86
1823.6
1911.81
1929.82
2039.21
1565.59
1561.02
1632.8
1604.94
1438.28
1335.56
1218.14
1071.25
961.917
921.206
856.51
821.056
846.611
943.222
1043.46
1130.11
1164.98
1167.58
1280.25
1334.1
1336.75
1406.51
1366.7
1180.99
1069.29
976.235
830.74
726.742
694.524
651.934
629.137
624.604
632.756
622.425
609.998
592.844
571.397
617.531
1116.21
1077.7
1146.54
1093.86
910.339
800.23
694.675
628.758
596.937
576.713
562.15
555.291
537.881
490.48
440.807
392.117
363.301
340.499
324.307
953.664
890.694
920.956
830.588
724.55
637.751
561.473
557.036
530.295
514.185
499.481
487.275
464.383
420.848
372.124
326.524
304.45
280.695
269.069
869.278
786.788
747.412
652.634
596.536
546.964
510.969
499.601
469.454
449.768
428.646
405.532
377.04
339.591
304.977
268.407
245.052
227.78
220.525
822.08
715.995
624.237
561.299
509.887
480.012
467.53
440.456
403.957
379.617
354.016
329.48
303.665
269.022
241.952
212.714
191.551
183.863
176.307
1075.74
1051.44
1012.04
984.064
963.13
941.659
926.889
928.655
949.829
979.847
1000.85
1008.41
997.595
998.686
1001.6
992.863
976.77
961.093
947.829
936.25
924.275
906.704
859.028
982.281
958.297
920.027
881.262
836.507
806.087
785.684
775.077
774.598
785.88
805.627
828.953
858.636
875.17
876.371
865.368
849.568
833.451
818.042
802.62
785.034
762.214
731.458
878.481
858.63
822.831
778.933
741.258
701.537
670.645
651.917
653.846
673.07
697.826
724.949
749.474
762.445
757.617
742.932
725.33
708.183
689.876
670.616
648.194
620.949
590.027
769.945
748.802
717.566
685.99
647.8
612.054
592.815
587.983
587.11
595.067
606.593
623.645
639.835
646.127
635.626
617.11
598.421
580.435
562.511
541.835
519.097
494.229
467.391
670.234
646.165
620.657
604.723
579.029
563.993
555.679
554.164
555.31
554.632
557.164
563.452
564.075
549.59
524.473
499.648
479.751
460.914
441.483
421.64
402.56
381.319
356.734
590.598
570.679
557.6
549.265
535.071
524.535
522.787
523.437
523.989
517.191
518.809
521.097
502.225
465.299
426.812
394.848
369.886
349.018
328.983
311.538
293.818
274.395
254.002
534.801
524.994
520.304
515.011
496.25
480.765
482.807
491.241
490.012
483.187
479.373
469.746
431.868
384.627
338.81
299.501
273.155
249.613
228.879
212.645
196.576
180.105
163.803
490.526
487.308
488.914
479.851
463.049
450.969
451.496
455.654
447.974
434.301
424.304
400.491
354.721
303.77
255.765
218.752
189.057
165.679
149.137
136.29
123.688
110.842
96.9629
445.968
445.068
454.438
439.912
427.913
419.726
416.055
409.26
390.589
374.531
360.281
329.415
275.794
225.487
183.26
148.57
122.025
103.814
91.7836
81.2705
70.7533
59.6158
47.9446
395.984
396.464
409.739
393.629
387.118
380.88
373.464
360.322
337.207
319.444
299.083
263.418
218.639
170.572
123.701
86.838
65.0114
51.5823
42.3222
34.9088
28.0829
21.1087
14.0628
339.926
342.315
353.433
349.715
344.123
339.368
332.295
315.909
290.636
267.617
244.219
211.952
166.794
114.811
60.3712
26.1997
17.3398
13.0828
9.16485
5.38879
2.16448
-0.495506
-1.22012
278.54
282.204
294.081
300.567
298.028
294.636
288.19
271.573
247.171
224.46
201.653
172.279
133.238
80.5545
27.1414
3.15643
-0.252951
-0.668082
-0.895513
-1.08939
-1.2356
-1.34633
-1.4104
212.706
216.753
227.342
238.22
238.291
233.763
228.552
215.553
191.419
174.03
161
145.161
118.184
80.0509
7.402
-0.8679
-0.715356
-0.663063
-1.01985
-1.16209
-1.3353
-1.47021
-1.52422
141.307
144.033
152.072
161.214
163.125
162.249
162.342
151.923
139.931
130.719
115.07
90.4135
51.5842
15.4379
-1.74848
-2.37801
-1.57167
-1.36073
-1.37303
-1.44005
-1.54336
-1.63553
-1.69346
67.8871
69.8228
74.1691
78.3205
78.5512
76.3851
76.379
79.9663
84.0787
75.4018
56.2328
22.2384
2.23264
-4.82034
-4.51891
-3.14416
-2.38202
-1.97949
-1.81263
-1.78413
-1.81016
-1.8493
-1.88031
15.2806
15.8928
16.4313
15.9917
14.2503
11.8726
11.374
12.866
16.7768
14.0293
9.40021
-2.26789
-4.42029
-4.53275
-4.41396
-3.59776
-2.88884
-2.42247
-2.19905
-2.10389
-2.07439
-2.0705
-2.07433
-1.13789
-2.47964
-3.3937
-3.5993
-3.60148
-3.68685
-3.78219
-3.81629
-3.6345
-4.09853
-4.29705
-4.36653
-4.45033
-4.42831
-4.10807
-3.57154
-3.06426
-2.71122
-2.4953
-2.37604
-2.31504
-2.28381
-2.26723
-3.69025
-3.67511
-3.6265
-3.60495
-3.65827
-3.77075
-3.88671
-3.97662
-4.11172
-4.20307
-4.25777
-4.35334
-4.30827
-4.17136
-3.87787
-3.4932
-3.15978
-2.9008
-2.71977
-2.60263
-2.52954
-2.48349
-2.45359
-3.47038
-3.49829
-3.55686
-3.62944
-3.72412
-3.84979
-3.97901
-4.08516
-4.16018
-4.23577
-4.32407
-4.25073
-4.14117
-3.97753
-3.74342
-3.47922
-3.24208
-3.04761
-2.90076
-2.79505
-2.72075
-2.66844
-2.63108
-3.3954
-3.4415
-3.53358
-3.64596
-3.75073
-3.8713
-3.98456
-4.08381
-4.16948
-4.18237
-4.1685
-4.11562
-4.01345
-3.86789
-3.68861
-3.49849
-3.32381
-3.17528
-3.05607
-2.96358
-2.8932
-2.83982
-2.79925
-3.3897
-3.44335
-3.51691
-3.61765
-3.7154
-3.82544
-3.92975
-4.01012
-4.05783
-4.08414
-4.06698
-4.01517
-3.92849
-3.81216
-3.67717
-3.53797
-3.40762
-3.29256
-3.19536
-3.11556
-3.05121
-2.99972
-2.95874
-3.4016
-3.44474
-3.51547
-3.5938
-3.68013
-3.77826
-3.87157
-3.94737
-3.9942
-4.01272
-3.99938
-3.95608
-3.88686
-3.7976
-3.69688
-3.59362
-3.49462
-3.40416
-3.32446
-3.25606
-3.1984
-3.15031
-3.11064
-3.42923
-3.47247
-3.52793
-3.60853
-3.68438
-3.76961
-3.84953
-3.91506
-3.95802
-3.97597
-3.96829
-3.93619
-3.88348
-3.81597
-3.74039
-3.6621
-3.58526
-3.513
-3.44716
-3.38865
-3.33758
-3.29358
-3.25618
-3.48303
-3.53938
-3.59197
-3.6538
-3.723
-3.79611
-3.86328
-3.92047
-3.95894
-3.9774
-3.97446
-3.95111
-3.91095
-3.85871
-3.80155
-3.74048
-3.67941
-3.62078
-3.56594
-3.51586
-3.47092
-3.43117
-3.39654
-3.55451
-3.6071
-3.66676
-3.71962
-3.78537
-3.85113
-3.91207
-3.95926
-3.99389
-4.01174
-4.01114
-3.99318
-3.96322
-3.9234
-3.87619
-3.82701
-3.7772
-3.72851
-3.68239
-3.63947
-3.60006
-3.56445
-3.53278
-3.63785
-3.6856
-3.73932
-3.79958
-3.86341
-3.92317
-3.97674
-4.02088
-4.05265
-4.06925
-4.06977
-4.05564
-4.02941
-3.99698
-3.95939
-3.91921
-3.87805
-3.83725
-3.79789
-3.76077
-3.72626
-3.69453
-3.66581
-3.73928
-3.78294
-3.83463
-3.89451
-3.95421
-4.00902
-4.0579
-4.09795
-4.12636
-4.14053
-4.13956
-4.12675
-4.10537
-4.07856
-4.04787
-4.01478
-3.9806
-3.94634
-3.91282
-3.88066
-3.85039
-3.82223
-3.79636
-3.86131
-3.90036
-3.94792
-4.00191
-4.05567
-4.10575
-4.14962
-4.18488
-4.20886
-4.21943
-4.21733
-4.20594
-4.18814
-4.16603
-4.14075
-4.11337
-4.08483
-4.05595
-4.02738
-3.99963
-3.97312
-3.94819
-3.925
-3.99747
-4.03094
-4.07235
-4.11914
-4.16649
-4.21056
-4.24867
-4.27849
-4.29731
-4.30425
-4.30142
-4.29144
-4.27664
-4.25836
-4.23745
-4.21467
-4.19076
-4.16635
-4.14195
-4.11801
-4.09489
-4.07291
-4.05221
-4.14107
-4.1681
-4.20229
-4.24202
-4.28301
-4.32065
-4.35261
-4.37636
-4.3901
-4.39422
-4.39088
-4.38227
-4.36994
-4.35478
-4.33741
-4.3184
-4.2983
-4.27762
-4.25678
-4.23614
-4.21601
-4.19664
-4.17832
-4.28597
-4.30715
-4.3341
-4.36792
-4.40246
-4.43365
-4.45934
-4.47725
-4.4865
-4.48848
-4.48497
-4.4776
-4.4673
-4.45467
-4.44018
-4.42427
-4.40735
-4.38981
-4.37201
-4.35425
-4.33678
-4.31986
-4.30367
-4.42866
-4.44362
-4.46604
-4.49452
-4.52292
-4.54799
-4.56764
-4.58023
-4.58602
-4.58644
-4.58302
-4.57669
-4.56805
-4.5575
-4.54539
-4.53204
-4.51777
-4.50291
-4.48772
-4.47247
-4.45737
-4.44265
-4.42845
-4.5675
-4.57757
-4.59656
-4.62016
-4.64292
-4.6624
-4.67636
-4.68477
-4.68813
-4.68763
-4.68441
-4.67894
-4.67165
-4.66282
-4.65268
-4.64147
-4.62946
-4.61687
-4.60394
-4.5909
-4.57791
-4.56516
-4.55278
-4.70147
-4.70892
-4.72436
-4.7436
-4.76121
-4.77542
-4.78522
-4.79051
-4.79239
-4.79157
-4.78858
-4.78381
-4.77764
-4.77025
-4.76176
-4.75237
-4.74226
-4.73164
-4.72068
-4.70958
-4.69848
-4.68753
-4.67684
-4.83181
-4.83753
-4.84927
-4.8641
-4.87765
-4.88755
-4.89391
-4.89738
-4.89836
-4.89743
-4.89486
-4.89087
-4.88567
-4.87946
-4.87236
-4.86452
-4.85606
-4.84715
-4.83793
-4.82856
-4.81915
-4.80985
-4.80072
-4.95829
-4.96295
-4.97136
-4.98207
-4.99171
-4.99891
-5.00297
-5.00518
-5.00579
-5.00497
-5.00288
-4.99964
-4.99539
-4.99025
-4.98424
-4.97776
-4.97074
-4.96333
-4.95565
-4.94783
-4.93997
-4.93216
-4.92449
-5.08079
-5.08404
-5.09004
-5.09776
-5.10443
-5.10927
-5.11235
-5.11406
-5.11459
-5.11401
-5.1124
-5.10983
-5.10641
-5.10222
-5.09734
-5.09196
-5.0862
-5.0801
-5.0738
-5.06739
-5.06094
-5.05453
-5.0482
-5.20028
-5.20207
-5.2059
-5.21156
-5.21608
-5.21983
-5.2225
-5.22408
-5.22469
-5.22438
-5.22321
-5.22123
-5.21853
-5.21519
-5.2113
-5.20698
-5.20234
-5.19738
-5.19236
-5.18723
-5.18208
-5.17696
-5.17189
-5.31811
-5.31891
-5.32116
-5.32505
-5.32853
-5.33147
-5.33377
-5.33527
-5.33597
-5.3359
-5.3351
-5.33362
-5.33155
-5.32896
-5.32594
-5.32258
-5.31897
-5.31516
-5.31127
-5.30734
-5.30341
-5.29951
-5.29561
-5.43533
-5.43552
-5.43678
-5.43929
-5.44186
-5.44422
-5.44616
-5.44753
-5.44827
-5.44837
-5.44788
-5.44683
-5.44531
-5.4434
-5.44116
-5.43868
-5.43604
-5.43328
-5.43047
-5.42764
-5.42487
-5.42207
-5.41934
-5.55196
-5.55221
-5.55285
-5.5543
-5.55612
-5.55788
-5.55943
-5.5606
-5.56132
-5.56155
-5.56131
-5.56065
-5.55963
-5.55833
-5.55682
-5.55518
-5.55345
-5.5517
-5.54995
-5.54824
-5.54662
-5.54486
-5.54317
-5.67108
-5.67073
-5.67053
-5.67059
-5.67134
-5.67235
-5.67338
-5.67424
-5.67482
-5.67507
-5.675
-5.67466
-5.6741
-5.67339
-5.6726
-5.67177
-5.67096
-5.67018
-5.66945
-5.66871
-5.66793
-5.66743
-5.66694
765.766
760.434
776.673
786.475
704.153
691.468
680.503
664.26
566.802
552.274
537.578
515.66
447.881
436.037
422.825
404.346
341.335
332.665
320.465
303.381
239.486
228.018
215.727
200.142
149.043
139.452
129.754
116.02
83.7054
74.2846
63.6114
51.5416
36.7387
28.5877
20.4684
12.8662
8.17202
3.83178
0.140732
-1.19083
-1.25156
-1.27598
-1.31737
-1.39213
-1.47899
-1.52785
-1.5472
-1.52703
-1.55842
-1.58207
-1.60437
-1.61946
-1.72354
-1.73917
-1.75132
-1.76066
-1.89735
-1.9063
-1.91333
-1.91861
-2.07818
-2.08045
-2.08218
-2.08326
-2.26015
-2.2565
-2.2533
-2.2503
-2.43853
-2.4303
-2.42311
-2.41663
-2.61083
-2.59943
-2.58933
-2.58018
-2.7761
-2.76277
-2.75078
-2.73979
-2.93437
-2.92008
-2.90705
-2.89497
-3.08623
-3.0717
-3.05829
-3.04573
-3.23251
-3.21825
-3.20494
-3.19235
-3.3741
-3.36043
-3.34757
-3.3353
-3.51183
-3.49897
-3.48677
-3.47507
-3.64649
-3.63455
-3.62315
-3.61216
-3.7787
-3.76774
-3.75721
-3.74701
-3.909
-3.89902
-3.88938
-3.88002
-4.03781
-4.02879
-4.02005
-4.01153
-4.16545
-4.15736
-4.1495
-4.14182
-4.29223
-4.28503
-4.27799
-4.27112
-4.41834
-4.41196
-4.40573
-4.39962
-4.54394
-4.53835
-4.53286
-4.52749
-4.66917
-4.66432
-4.65954
-4.65486
-4.79415
-4.78998
-4.78587
-4.78184
-4.91894
-4.91541
-4.91193
-4.90852
-5.04361
-5.04069
-5.03781
-5.03498
-5.16821
-5.16587
-5.16356
-5.16129
-5.29279
-5.291
-5.28923
-5.2875
-5.41736
-5.4161
-5.41486
-5.41365
-5.54198
-5.54124
-5.5405
-5.53978
-5.66659
-5.66637
-5.66616
-5.66594
769.755
608.137
471.81
442.363
433.702
412.662
398.038
362.656
322.921
291.709
268.669
248.999
229.928
204.9
177.045
150.914
131.2
119.591
112.46
619.096
475.162
322.723
300.975
320.099
312.007
296.166
268.265
236.536
210.811
191.278
175.867
162.191
137.738
101.706
75.5328
56.3058
40.2204
32.1697
475.928
354.351
223.321
196.281
206.151
199.137
185.573
164.801
149.546
140.502
128.262
114.16
99.992
69.358
37.8072
20.0075
11.3968
4.62354
3.93781
374.843
272.882
178.031
131.022
108.083
86.4798
71.4691
55.3519
65.5761
71.9677
68.9856
60.7062
45.0581
19.3824
6.35643
1.80836
0.225903
0.253603
0.323728
275.342
208.821
136.529
77.4467
37.4544
14.9054
5.85956
4.36158
16.1942
28.1813
29.7475
22.8979
10.6828
1.58831
0.0150893
0.00493317
-0.00924379
-0.00779284
0.0160679
175.977
133.082
76.9095
27.8384
5.94713
-0.25062
-0.469947
-0.231098
0.860138
6.72632
7.20627
3.82854
0.0373557
-0.172947
-0.26813
-0.297894
-0.250024
-0.208426
-0.189494
92.8169
57.961
20.4147
2.61885
-1.10878
-0.958964
-0.767992
-0.629597
-0.632215
-0.18328
-0.495231
-0.638722
-0.641824
-0.615776
-0.521884
-0.489224
-0.456823
-0.42185
-0.398711
32.2886
13.6109
-0.227859
-0.946894
-0.951598
-1.08293
-0.999507
-0.876746
-0.905955
-0.904566
-0.875531
-0.863836
-0.805184
-0.769632
-0.727679
-0.694865
-0.657448
-0.622073
-0.603438
3.15029
-0.926893
-0.920596
-0.995494
-1.14298
-1.16697
-1.13356
-1.07639
-1.09836
-1.08154
-1.05648
-1.03857
-1.00033
-0.959009
-0.910428
-0.876437
-0.847482
-0.818439
-0.801817
-1.23279
-1.11717
-1.15741
-1.16743
-1.20799
-1.23136
-1.22167
-1.2076
-1.23081
-1.23843
-1.22543
-1.20319
-1.16582
-1.12399
-1.07896
-1.04919
-1.02626
-1.00604
-0.993073
-1.49986
-1.3927
-1.34008
-1.33331
-1.33735
-1.33648
-1.32892
-1.32934
-1.35661
-1.37483
-1.37027
-1.34738
-1.31009
-1.2739
-1.24031
-1.21416
-1.19447
-1.18137
-1.17066
-1.51259
-1.50824
-1.49499
-1.48515
-1.47545
-1.46738
-1.46295
-1.46826
-1.48946
-1.50679
-1.50417
-1.48401
-1.45268
-1.42249
-1.39607
-1.37363
-1.35616
-1.34534
-1.33553
-1.62993
-1.6348
-1.63645
-1.62975
-1.61854
-1.61113
-1.6106
-1.61862
-1.63435
-1.64547
-1.64254
-1.62639
-1.60093
-1.57391
-1.54942
-1.52954
-1.51368
-1.5027
-1.49532
-1.77185
-1.7772
-1.77991
-1.77543
-1.76544
-1.76019
-1.7597
-1.76409
-1.77295
-1.7784
-1.77414
-1.76133
-1.74226
-1.71981
-1.69917
-1.68213
-1.66833
-1.65818
-1.65212
-1.925
-1.92717
-1.92754
-1.92271
-1.91551
-1.90993
-1.90702
-1.907
-1.90923
-1.90946
-1.9042
-1.8936
-1.87912
-1.86267
-1.84664
-1.83251
-1.82078
-1.81197
-1.80682
-2.08398
-2.08165
-2.07846
-2.07247
-2.06535
-2.05878
-2.05372
-2.05035
-2.04823
-2.0451
-2.03912
-2.03008
-2.0187
-2.006
-1.99329
-1.98165
-1.97176
-1.96435
-1.95995
-2.24533
-2.23806
-2.23104
-2.22308
-2.21485
-2.20705
-2.20024
-2.19455
-2.18977
-2.18466
-2.17813
-2.16993
-2.16042
-2.15012
-2.13978
-2.13012
-2.12172
-2.1156
-2.11175
-2.40662
-2.39457
-2.38392
-2.37374
-2.36399
-2.35491
-2.34668
-2.3394
-2.33288
-2.32649
-2.31957
-2.3119
-2.30358
-2.29489
-2.28624
-2.27811
-2.2709
-2.26553
-2.2623
-2.56617
-2.55004
-2.53627
-2.52389
-2.51261
-2.5023
-2.49294
-2.48451
-2.47686
-2.46964
-2.46244
-2.45509
-2.44756
-2.43998
-2.43257
-2.42561
-2.41938
-2.41468
-2.412
-2.72291
-2.70367
-2.6874
-2.67315
-2.66046
-2.64906
-2.63881
-2.62957
-2.62117
-2.6134
-2.60602
-2.59887
-2.5919
-2.58513
-2.57864
-2.5726
-2.56712
-2.56315
-2.56094
-2.87629
-2.85495
-2.83686
-2.82117
-2.80736
-2.79508
-2.78411
-2.7743
-2.76542
-2.75731
-2.74982
-2.74283
-2.73627
-2.7301
-2.72433
-2.71902
-2.71414
-2.71077
-2.70874
-3.02617
-3.00363
-2.9844
-2.96775
-2.95314
-2.94023
-2.92875
-2.91852
-2.90936
-2.90107
-2.89354
-2.88669
-2.88045
-2.87476
-2.86956
-2.86485
-2.86055
-2.8576
-2.85549
-3.17264
-3.14968
-3.12992
-3.11275
-3.09769
-3.0844
-3.07261
-3.06214
-3.05281
-3.04447
-3.03697
-3.03026
-3.0243
-3.01901
-3.01428
-3.01005
-3.00631
-3.00361
-3.00148
-3.31598
-3.2932
-3.27342
-3.25614
-3.24094
-3.22752
-3.21562
-3.20506
-3.19568
-3.18735
-3.17997
-3.17342
-3.16772
-3.16279
-3.15845
-3.15458
-3.15113
-3.14859
-3.14664
-3.45653
-3.43441
-3.415
-3.39794
-3.38288
-3.36954
-3.35771
-3.34721
-3.33789
-3.32966
-3.32242
-3.31608
-3.31063
-3.30604
-3.30204
-3.29845
-3.29514
-3.29274
-3.29101
-3.59466
-3.57351
-3.5548
-3.53823
-3.52353
-3.51047
-3.49886
-3.48854
-3.4794
-3.47134
-3.46428
-3.45817
-3.45295
-3.44873
-3.445
-3.44166
-3.43847
-3.43623
-3.43465
-3.73071
-3.71077
-3.69297
-3.67709
-3.66294
-3.65031
-3.63906
-3.62905
-3.62017
-3.61235
-3.60553
-3.59964
-3.59457
-3.59091
-3.58727
-3.58414
-3.58105
-3.57901
-3.57757
-3.865
-3.84641
-3.82968
-3.81465
-3.80118
-3.78912
-3.77833
-3.76872
-3.76019
-3.75268
-3.74613
-3.74053
-3.73584
-3.73209
-3.72872
-3.72576
-3.72283
-3.72107
-3.71977
-3.99782
-3.98066
-3.96509
-3.95103
-3.93834
-3.92694
-3.91671
-3.90757
-3.89945
-3.8923
-3.88606
-3.88073
-3.87628
-3.87262
-3.8694
-3.86654
-3.86389
-3.86242
-3.86124
-4.12941
-4.11371
-4.09937
-4.08633
-4.07452
-4.06385
-4.05424
-4.04564
-4.03798
-4.03122
-4.02532
-4.02026
-4.016
-4.01244
-4.00934
-4.00665
-4.00424
-4.00309
-4.00203
-4.25998
-4.24574
-4.23265
-4.22069
-4.20979
-4.19991
-4.19099
-4.18297
-4.17582
-4.16948
-4.16394
-4.15916
-4.15509
-4.15165
-4.14867
-4.14621
-4.14401
-4.14316
-4.1422
-4.3897
-4.37691
-4.36508
-4.35421
-4.34426
-4.3352
-4.327
-4.31961
-4.31299
-4.30712
-4.30197
-4.29749
-4.29364
-4.29037
-4.28757
-4.28538
-4.28346
-4.2826
-4.28183
-4.51874
-4.50735
-4.49677
-4.487
-4.47802
-4.46981
-4.46236
-4.45562
-4.44958
-4.4442
-4.43946
-4.43532
-4.43174
-4.4287
-4.42612
-4.42418
-4.42248
-4.4217
-4.42106
-4.64721
-4.6372
-4.62784
-4.61917
-4.61116
-4.60382
-4.59713
-4.59107
-4.58562
-4.58076
-4.57646
-4.57269
-4.56943
-4.56666
-4.56434
-4.56264
-4.56113
-4.56046
-4.55989
-4.77525
-4.76656
-4.7584
-4.7508
-4.74377
-4.7373
-4.73139
-4.72602
-4.72119
-4.71686
-4.71303
-4.70966
-4.70674
-4.70427
-4.70223
-4.70073
-4.69939
-4.69888
-4.6983
-4.90294
-4.89552
-4.88853
-4.882
-4.87593
-4.87034
-4.86522
-4.86056
-4.85635
-4.85257
-4.84922
-4.84626
-4.84371
-4.84154
-4.83977
-4.83845
-4.83727
-4.83693
-4.83628
-5.03035
-5.02416
-5.01832
-5.01283
-5.00773
-5.00301
-4.99868
-4.99473
-4.99115
-4.98794
-4.98508
-4.98256
-4.98037
-4.97851
-4.977
-4.97585
-4.97483
-4.9746
-4.97388
-5.15757
-5.15258
-5.14784
-5.14339
-5.13923
-5.13538
-5.13184
-5.12861
-5.12568
-5.12304
-5.12068
-5.11859
-5.11678
-5.11524
-5.11398
-5.11299
-5.11216
-5.11187
-5.11123
-5.28466
-5.28082
-5.27717
-5.27373
-5.27051
-5.26753
-5.26478
-5.26226
-5.25998
-5.25791
-5.25606
-5.25443
-5.253
-5.25179
-5.25077
-5.24997
-5.2493
-5.24895
-5.24847
-5.41165
-5.40894
-5.40636
-5.40392
-5.40163
-5.39951
-5.39754
-5.39575
-5.39411
-5.39263
-5.3913
-5.39012
-5.38909
-5.3882
-5.38746
-5.38686
-5.38637
-5.38604
-5.38573
-5.53861
-5.53701
-5.53548
-5.53402
-5.53265
-5.53137
-5.53019
-5.52911
-5.52814
-5.52724
-5.52643
-5.52572
-5.52509
-5.52455
-5.52409
-5.52372
-5.52342
-5.52322
-5.52307
-5.66557
-5.66505
-5.66454
-5.66405
-5.66359
-5.66316
-5.66276
-5.6624
-5.66207
-5.66177
-5.66149
-5.66125
-5.66104
-5.66086
-5.6607
-5.66058
-5.66049
-5.66046
-5.66047
)
;

boundaryField
{
    leftWall
    {
        type            calculated;
        value           nonuniform List<scalar> 
50
(
5606.5
4792.39
3969.56
3130.57
2281.58
1536.29
1221.78
1140.09
1075.74
982.281
878.481
769.945
670.234
590.598
534.801
490.526
445.968
395.984
339.926
278.54
212.706
141.307
67.8871
15.2806
-1.13789
-3.69025
-3.47038
-3.3954
-3.3897
-3.4016
-3.42923
-3.48303
-3.55451
-3.63785
-3.73928
-3.86131
-3.99747
-4.14107
-4.28597
-4.42866
-4.5675
-4.70147
-4.83181
-4.95829
-5.08079
-5.20028
-5.31811
-5.43533
-5.55196
-5.67108
)
;
    }
    rightWall
    {
        type            calculated;
        value           nonuniform List<scalar> 
50
(
2764.6
2039.21
1280.25
617.531
324.307
269.069
220.525
176.307
112.46
32.1697
3.93781
0.323728
0.0160679
-0.189494
-0.398711
-0.603438
-0.801817
-0.993073
-1.17066
-1.33553
-1.49532
-1.65212
-1.80682
-1.95995
-2.11175
-2.2623
-2.412
-2.56094
-2.70874
-2.85549
-3.00148
-3.14664
-3.29101
-3.43465
-3.57757
-3.71977
-3.86124
-4.00203
-4.1422
-4.28183
-4.42106
-4.55989
-4.6983
-4.83628
-4.97388
-5.11123
-5.24847
-5.38573
-5.52307
-5.66047
)
;
    }
    lowerWall
    {
        type            calculated;
        value           nonuniform List<scalar> 
62
(
6004.65
6070.71
6195.38
6349.06
6515.95
6677.66
6820.75
6934.05
7007.29
7031.11
6997.39
6900.81
6737.65
6510.12
6230.76
5927.14
5635.38
5384.19
5187.33
5046.87
4954.05
4891.07
4860.09
4461.97
3658.83
2848.38
2030.78
1407.39
1157.65
1109.7
1039.76
828.363
823.032
839.271
848.916
2144.04
1841.26
1565.59
1334.1
1116.21
953.664
869.278
822.08
2302.17
2222.25
2132.09
2256.76
2372.03
2289.33
2244.53
2325.41
2365.85
2345.15
2273.35
2250.07
2322.83
2523.28
2749.56
2919.92
3035.48
3065.34
3129.11
)
;
    }
    atmosphere
    {
        type            calculated;
        value           nonuniform List<scalar> 
46
(
-5.72911
-5.72905
-5.72905
-5.72923
-5.72975
-5.73044
-5.73112
-5.73165
-5.73195
-5.73201
-5.73184
-5.73151
-5.73107
-5.73059
-5.73012
-5.72971
-5.72938
-5.72916
-5.72906
-5.72904
-5.72904
-5.72904
-5.72904
-5.72904
-5.72904
-5.72904
-5.72904
-5.72904
-5.72904
-5.72904
-5.72904
-5.72904
-5.72904
-5.72904
-5.72904
-5.72904
-5.72904
-5.72904
-5.72904
-5.72904
-5.72904
-5.72904
-5.72904
-5.72904
-5.72904
-5.72904
)
;
    }
    defaultFaces
    {
        type            empty;
    }
}


// ************************************************************************* //
