/*--------------------------------*- C++ -*----------------------------------*\
| =========                 |                                                 |
| \\      /  F ield         | OpenFOAM: The Open Source CFD Toolbox           |
|  \\    /   O peration     | Version:  2312                                  |
|   \\  /    A nd           | Website:  www.openfoam.com                      |
|    \\/     M anipulation  |                                                 |
\*---------------------------------------------------------------------------*/
FoamFile
{
    version     2.0;
    format      ascii;
    arch        "LSB;label=32;scalar=64";
    class       volScalarField;
    location    "1.3";
    object      p_rgh;
}
// * * * * * * * * * * * * * * * * * * * * * * * * * * * * * * * * * * * * * //

dimensions      [1 -1 -2 0 0 0 0];

internalField   nonuniform List<scalar> 
2268
(
6004.65
6070.71
6195.38
6349.06
6515.95
6677.66
6820.75
6934.05
7007.29
7031.11
6997.39
6900.81
6737.65
6510.12
6230.76
5927.14
5635.38
5384.19
5187.33
5046.87
4954.05
4891.07
4860.09
5986.84
6054.13
6187.06
6342.13
6511.64
6675.71
6821.54
6938.23
7015.24
7042.59
7012
6915.73
6751.13
6519.24
6232.5
5920.46
5622.65
5369.46
5173.57
5037.27
4945.07
4883.88
4853.22
5960.3
6028.22
6169.6
6327.55
6503.23
6672.34
6823.71
6947.06
7031.33
7065.39
7038.83
6944.36
6776.5
6535.19
6233.05
5903.88
5594.38
5338.13
5147.4
5014.73
4928.14
4869.8
4839.13
5917.62
5993.69
6136.15
6301.87
6488.92
6666.34
6826.38
6960.08
7055.69
7100.4
7081.35
6988.81
6815.91
6559.94
6233.48
5877.06
5549.49
5288.72
5106.35
4981.19
4905.54
4844.5
4806.35
5855.36
5950.66
6087.49
6263.62
6466.86
6655.81
6827.89
6976.04
7087.61
7147.53
7139.32
7050.09
6871.23
6595.14
6232.94
5833.19
5352.7
4781.36
4316.83
3956.64
3655.67
3447.31
3268.08
4185.51
4837.88
5599.94
6138.86
6438.68
6640.06
6826.71
6993.41
7125.44
7205.41
7213.01
7128.66
6942.13
6637.15
6027.19
4484.09
2854.82
2063.46
1693.4
1510.32
1477.21
1474.61
1477.43
1801.81
1715.26
2299.98
3365.66
4822.17
5897.32
6581
6965.21
7168.24
7272.11
7296.5
7221.27
7028.39
5972.37
3358.66
1714.14
1518.04
1499.98
1486.07
1478.06
1473.29
1472.76
1489.99
1567.4
1537.65
1531.26
1522.65
1611.79
2318.39
3444.7
4604.49
5648.33
6449.62
6781.24
6468.11
4771.27
2344.63
1542.37
1533.32
1514.63
1497.36
1484.17
1475.41
1469.46
1466.81
1481.18
2302.17
2222.25
2132.09
2256.76
2372.03
2289.33
2244.53
2325.41
2365.85
2345.15
2273.35
2250.07
2322.83
2523.28
2749.56
2919.92
3035.48
3065.34
3129.11
2315.8
2120.22
2086.67
2021.71
1892.5
1808.7
1751.74
2048.2
2180.41
2166.29
2058.29
2014.26
2116.64
2445.83
2748.94
2951.64
3043.32
3061.7
3138.31
2169.09
2020.74
2062.37
2111.93
1929.26
1839.55
1706.83
1569.86
1574.65
1606.17
1541.46
1551.56
1649.86
1857.06
2449.69
2799.05
2910.18
2960.36
3096.69
1974.78
2017.58
2297.71
2376.07
2227.31
2117.83
2015.4
1860.72
1333.64
1282.56
1051.94
883.079
943.821
1418.45
1666.99
1879.73
1978.26
1949.27
2452.59
1760.09
2013.81
2168.94
2402.82
1862.7
1723.27
1724.21
1100.06
910.53
843.305
801.228
824.495
817.679
752.054
781.756
792.14
642.67
599.728
555.514
1246.8
1460.34
2150.6
2402.65
1387.55
1022.89
780.736
855.127
853.477
804.731
812.41
874.7
899.06
853.065
751.735
699.521
685.397
598.116
525.849
1136.52
1350.74
1993.46
1425.76
1333.12
1060.14
708.745
853.795
880.374
867.46
864.337
894.485
879.297
861.117
810.608
761.228
694.57
523.846
473.208
1129.05
1266.1
2065.04
1217.1
824.334
758.177
700.338
816.977
837.995
846.534
836.852
799.401
735.215
654.559
668.088
647.075
599.595
478.54
461.182
1403.08
1407.11
1479.16
1512.59
1494.3
1472.83
1464.3
1650.97
2002.22
2304.92
2348.97
2077.23
1622.3
1532.15
1535.06
1526.33
1510.24
1494.56
1481.3
1469.7
1457.73
1440.17
1392.5
1291.53
1249.4
1209.55
1345.07
1454.12
1453.71
1434.74
1430.52
1432.16
1444.41
1464.25
1487.61
1517.3
1533.83
1535.03
1524.03
1508.23
1492.11
1476.68
1461.25
1443.67
1420.88
1390.12
1270.18
1250.5
1214.71
1147.13
1048.68
1133.63
1105.02
1136.31
1258.43
1368.67
1454.39
1506.63
1533.33
1546.28
1541.42
1526.76
1509.17
1492.04
1473.73
1454.47
1432.05
1408.64
1329.51
1223.86
1203.35
1172.26
1140.64
1069.6
789.575
787.273
764.484
790.693
963.959
1174.64
1330.84
1455.38
1541.66
1541.81
1525.57
1506.01
1487.99
1471.26
1450.88
1402.93
1343.16
1301.26
1185.87
1147.7
1098.44
1120.86
993.09
709.975
690.575
689.793
690.401
845.107
916.271
983.051
1202.28
1528.3
1558.1
1533.22
1513.22
1494.48
1475.53
1448.47
1427.23
1394.18
1383.26
1168.77
966.804
827.636
933.064
1016.74
934.602
684.354
674.664
783.26
919.829
921.435
980.277
1385.36
1623.89
1585.76
1553.42
1528.71
1530.69
1502.13
1466.85
1459.56
1437.94
1352.32
1175.26
875.801
794.756
836.9
1072.2
1013.09
869.343
701.297
700.964
695.085
882.909
1332.42
1585.24
1655.68
1624.27
1591.29
1587.32
1568.71
1481.18
1410.27
1330.58
1255.52
1227.41
1193.67
1049.92
790.07
1111.8
1162.31
963.323
815.442
918.643
1024.67
922.502
1010.98
1359.17
1408.99
1566.52
1560.72
1478.43
1389.4
1252.22
1073.74
991.062
909.28
855.8
835.095
1213.47
1197.12
935.02
1207.39
1195.39
1187.2
1181.78
1175.43
1157.23
1033.53
1048.45
1408.42
1357.87
1096.19
1053.82
984.83
910.421
874.345
858.79
849.443
839.032
828.094
816.695
1226.08
1226.58
1238.62
1206.05
1217.18
1210.95
1203.54
1191.34
1196.57
1040.59
1028.69
1127.42
1080.58
994.75
955.598
918.022
895.609
883.038
874.533
829.77
729.144
593.837
423.1
1232.63
1235.03
1246.16
1080.39
1207.76
1231.88
1225.15
1209.49
1213.76
1187.16
1096.22
1067.23
1016.58
958.728
787.223
626.366
509.005
402.799
293.588
189.221
100.295
29.5349
2.02024
1233.84
1237.51
1249.39
1083.62
1113.54
1201.3
1205.7
1201.03
1140.68
1071.41
973.466
832.59
650.76
381.391
149.59
32.1839
5.4226
1.34166
1.52427
1.94642
0.811929
0.745465
0.564628
1224.93
1229.98
1245.27
1218.41
1211.45
1155.03
958.248
846.502
869.35
924.277
989.52
997.551
971.737
835.494
121.563
4.47495
4.78632
3.34232
1.01709
0.873851
0.700574
0.565788
0.511905
1189.66
1211.36
1232.62
1241.74
1243.64
1242.79
1238.13
790.682
458.391
448.381
490.623
957.482
956.118
679.189
78.2089
3.45564
3.93892
1.19404
0.788057
0.721115
0.617737
0.525602
0.46769
1176.31
1208.75
1217.34
1221.45
1221.44
1216.73
1216
1221.12
833.371
846.178
828.01
709.503
268.876
-2.44261
0.26085
0.826858
0.300076
0.306853
0.473767
0.502166
0.476082
0.436933
0.405913
974.374
908.969
845.765
770.949
687.159
608.742
596.488
656.237
732.897
697.032
523.664
79.7514
-1.53387
-2.10718
-1.94843
-1.17846
-0.477368
-0.010933
0.212443
0.307532
0.337007
0.340894
0.337066
121.429
63.3595
15.7905
-1.0254
-1.00018
-1.06708
-1.17214
-1.18136
17.8083
-1.34792
-1.44447
-1.6194
-1.88529
-1.89076
-1.56828
-1.03485
-0.527585
-0.174537
0.0413126
0.160554
0.221542
0.252774
0.269354
-1.02535
-1.00982
-0.943651
-0.92581
-0.994168
-1.10499
-1.21756
-1.30773
-1.44236
-1.52538
-1.58342
-1.68049
-1.64632
-1.5093
-1.21539
-0.831314
-0.497916
-0.238979
-0.0579791
0.0591478
0.13224
0.178284
0.208186
-0.682691
-0.710669
-0.755164
-0.822526
-0.93299
-1.06095
-1.18208
-1.2843
-1.34724
-1.40307
-1.5196
-1.46329
-1.35383
-1.19008
-0.956119
-0.692159
-0.455058
-0.260619
-0.113783
-0.00807826
0.0662166
0.118527
0.155886
-0.480707
-0.526705
-0.0889963
-0.66694
-0.83327
-0.955169
-1.06783
-1.1618
-1.23291
-1.25064
-1.25244
-1.20298
-1.10071
-0.955146
-0.776203
-0.586267
-0.411616
-0.263108
-0.143903
-0.0514183
0.0189689
0.0723427
0.112917
-0.331291
0.568755
2.07985
-0.17402
-0.673191
-0.785481
-0.8909
-0.970871
-1.01852
-1.04626
-1.02908
-0.977164
-0.890656
-0.774435
-0.63972
-0.500576
-0.370244
-0.255193
-0.157997
-0.0782023
-0.0138485
0.037639
0.07862
-0.164222
2.16616
2.31721
0.238023
-0.512741
-0.613515
-0.707104
-0.782703
-0.831148
-0.849725
-0.836257
-0.792943
-0.723967
-0.634846
-0.534257
-0.431041
-0.332057
-0.241598
-0.161906
-0.0935084
-0.0358436
0.0122388
0.0519173
-0.0443141
2.33488
2.53431
-0.0363979
-0.39109
-0.471146
-0.55367
-0.624733
-0.668952
-0.688006
-0.680058
-0.647961
-0.595518
-0.528129
-0.452592
-0.374328
-0.2975
-0.225247
-0.159416
-0.100906
-0.0498336
-0.00583068
0.0315644
-0.0220768
0.397358
1.38633
-0.234088
-0.301609
-0.370579
-0.436972
-0.500575
-0.545298
-0.564374
-0.561315
-0.53793
-0.49789
-0.445692
-0.388563
-0.32753
-0.266461
-0.207834
-0.152996
-0.102915
-0.057978
-0.0182259
0.0163984
0.0264592
-0.0628886
-0.121292
-0.175631
-0.238509
-0.300306
-0.361109
-0.408767
-0.45513
-0.47353
-0.47285
-0.454768
-0.424926
-0.385252
-0.338045
-0.288868
-0.239059
-0.190376
-0.144255
-0.101332
-0.0619272
-0.0263177
0.00535094
0.0321818
-0.0209427
-0.0726494
-0.113093
-0.195188
-0.24685
-0.300413
-0.35064
-0.388706
-0.405517
-0.405814
-0.392024
-0.366042
-0.333639
-0.296056
-0.255869
-0.214718
-0.173917
-0.134563
-0.0974383
-0.0629252
-0.0311968
-0.00247941
0.0514078
0.0070333
-0.011011
-0.06259
-0.163968
-0.216395
-0.26301
-0.307359
-0.336942
-0.351117
-0.350407
-0.338172
-0.316825
-0.290026
-0.259336
-0.226253
-0.19207
-0.157811
-0.124295
-0.0921327
-0.0618611
-0.0337061
-0.0078307
0.069212
0.0138851
-0.0336891
-0.0875608
-0.141161
-0.191159
-0.235077
-0.270038
-0.294026
-0.304879
-0.303475
-0.292186
-0.274406
-0.252303
-0.227029
-0.199646
-0.171113
-0.142231
-0.113658
-0.0859084
-0.0594004
-0.0344667
-0.0112851
0.115974
0.00855321
-0.0329845
-0.0797235
-0.126948
-0.170973
-0.208782
-0.238595
-0.25755
-0.265153
-0.262451
-0.252499
-0.237711
-0.219443
-0.19853
-0.175757
-0.15185
-0.127434
-0.103038
-0.0790975
-0.0559724
-0.0339978
-0.0133003
0.105488
-0.00335243
-0.037802
-0.0775184
-0.118368
-0.155573
-0.187535
-0.211451
-0.225834
-0.230031
-0.226746
-0.218143
-0.205829
-0.190673
-0.173297
-0.154287
-0.134195
-0.113515
-0.0926726
-0.0720351
-0.0519024
-0.0325319
-0.0142142
0.0880786
-0.0170117
-0.0444365
-0.0782419
-0.112727
-0.143742
-0.169405
-0.187741
-0.197096
-0.199136
-0.195647
-0.188284
-0.17799
-0.165368
-0.15088
-0.134963
-0.118044
-0.10051
-0.0827085
-0.0649454
-0.0474817
-0.0305551
-0.0143679
0.0709391
-0.0279718
-0.0512431
-0.0796663
-0.108031
-0.133188
-0.152972
-0.165629
-0.17147
-0.171923
-0.168509
-0.162192
-0.15355
-0.143002
-0.13089
-0.117539
-0.103277
-0.08841
-0.073223
-0.0579712
-0.0428775
-0.0281477
-0.0139538
0.0409132
-0.00369641
-0.0566098
-0.0801459
-0.102895
-0.12251
-0.136592
-0.145027
-0.148406
-0.147921
-0.144715
-0.139246
-0.131959
-0.123127
-0.112987
-0.101783
-0.0897631
-0.0771754
-0.0642518
-0.0512032
-0.0382165
-0.0254692
-0.0130881
0.0321244
0.105375
-0.0589113
-0.0779908
-0.0926269
-0.110438
-0.1203
-0.1256
-0.127485
-0.126673
-0.123691
-0.118923
-0.112754
-0.10536
-0.0968731
-0.0874805
-0.0773737
-0.0667498
-0.0557983
-0.0446948
-0.0335948
-0.0226449
-0.0119546
-0.00764978
0.110285
0.037901
-0.0731791
-0.0780243
-0.0961989
-0.103746
-0.107271
-0.108268
-0.107341
-0.104778
-0.100791
-0.0955859
-0.0893825
-0.0822809
-0.0744381
-0.0659818
-0.0570659
-0.0478485
-0.0384742
-0.0290722
-0.0197656
-0.0106352
-0.0397775
0.0603875
0.0502758
-0.0590968
-0.0670317
-0.0822303
-0.0876193
-0.0898879
-0.090507
-0.0896937
-0.0876023
-0.0843659
-0.0801121
-0.0749784
-0.0689618
-0.0624839
-0.0554681
-0.0480517
-0.040373
-0.0325509
-0.0246895
-0.016887
-0.00921204
-0.0397819
-0.0412072
-0.0365897
-0.0513794
-0.0624856
-0.0686873
-0.0718502
-0.0735793
-0.0741188
-0.0735421
-0.0719283
-0.069363
-0.0659377
-0.0617474
-0.0568685
-0.0514928
-0.0457269
-0.0396311
-0.0333346
-0.0269196
-0.0204673
-0.0140556
-0.00772561
-0.0342991
-0.0361849
-0.0400308
-0.045616
-0.0503288
-0.0541369
-0.056821
-0.0584089
-0.059021
-0.0587153
-0.0575411
-0.0555635
-0.0528613
-0.0495206
-0.0456336
-0.0413149
-0.0366749
-0.0317185
-0.0266909
-0.0215691
-0.0164198
-0.0112977
-0.00622716
-0.027151
-0.0279096
-0.0301851
-0.0341189
-0.0376324
-0.0405972
-0.0429058
-0.0444073
-0.0451081
-0.0450386
-0.0442371
-0.0427622
-0.0406886
-0.0380985
-0.03508
-0.0317248
-0.028114
-0.0243052
-0.0204101
-0.016477
-0.0125518
-0.008647
-0.00475105
-0.0192215
-0.0193953
-0.0206637
-0.0232061
-0.0257925
-0.0281609
-0.0301066
-0.0314751
-0.0322128
-0.0323197
-0.0318241
-0.0307804
-0.0292604
-0.0273418
-0.0251062
-0.0226312
-0.019985
-0.0172255
-0.0144123
-0.0115891
-0.00881187
-0.00601464
-0.00329127
-0.0106926
-0.0109394
-0.0115824
-0.013039
-0.0148615
-0.016634
-0.0181807
-0.0193555
-0.0200708
-0.0203011
-0.0200617
-0.0194002
-0.0183824
-0.0170827
-0.0155756
-0.0139295
-0.0122044
-0.0104477
-0.00870102
-0.00699006
-0.0053749
-0.00361391
-0.00192446
-0.00463452
-0.00427983
-0.00407826
-0.00414809
-0.00489276
-0.00591075
-0.0069403
-0.00779796
-0.00837349
-0.00862375
-0.00855731
-0.00821647
-0.00765937
-0.00695203
-0.00615793
-0.00533127
-0.00451523
-0.00373668
-0.00300396
-0.00227111
-0.00148492
-0.000986123
-0.000500419
1299.23
1293.9
1310.14
1318.61
1359.47
1345.83
1337.53
1325.8
1250.93
1200.53
1289.14
1280.84
1260.01
1202.81
1285.11
1283.31
1306.12
1303
1377.1
1572.51
1325.01
1461.03
1344.76
1322.79
1154.62
991.587
1126.1
1139
802.947
793.461
892.122
826.769
787.605
727.704
629.255
468.478
262.484
147.669
48.2466
13.3676
1.00921
0.510568
0.468147
0.393629
0.431745
0.38302
0.364489
0.387506
0.477658
0.454273
0.432476
0.417069
0.437569
0.421972
0.409782
0.400363
0.388849
0.3799
0.372868
0.367589
0.33321
0.330939
0.329205
0.328129
0.276433
0.280078
0.283278
0.286276
0.223249
0.23147
0.238668
0.245148
0.176143
0.187539
0.197642
0.206787
0.136067
0.149392
0.161386
0.172374
0.102992
0.11728
0.130309
0.142386
0.0763242
0.0908496
0.104259
0.116825
0.0552333
0.069498
0.0828066
0.0953926
0.0388463
0.0525107
0.0653749
0.0776406
0.0263034
0.0391614
0.0513621
0.0630673
0.0168443
0.0287813
0.0401796
0.0511752
0.00982286
0.0207853
0.0313164
0.0415149
0.00471871
0.0147019
0.0243345
0.0336954
0.00110728
0.0101244
0.0188659
0.0273808
-0.00134108
0.00674628
0.0146111
0.0222905
-0.00292695
0.00427626
0.0113102
0.0181874
-0.00384428
0.00253445
0.00877221
0.01488
-0.00424653
0.00134207
0.0068292
0.0122064
-0.00428694
0.000570986
0.00534593
0.0100312
-0.00406547
0.000100795
0.00421078
0.00824378
-0.00366016
-0.000133707
0.00334168
0.00675609
-0.00313657
-0.000223389
0.00265884
0.00548738
-0.00254351
-0.000202889
0.00210676
0.00437574
-0.00193134
-0.00014338
0.00162705
0.00336272
-0.00130794
-4.93752e-05
0.00118892
0.0024076
-0.000734257
1.11759e-05
0.000745145
0.00146477
-0.000149843
7.12988e-05
0.000285408
0.000505869
1143.91
1678.42
2169.48
1349.36
799.814
750.022
718.604
663.649
678.933
714.553
687.704
615.103
556.864
525.446
520.108
475.434
459.079
464.229
392.042
1100.96
1498
2252.19
1485.36
909.92
726.332
685.066
700.381
618.917
561.768
542.275
559.439
454.986
471.918
490.016
482.796
407.637
331.255
218.701
982.438
1447.72
1590.91
1201.87
879.017
737.237
576.741
596.802
640.059
622.216
615.328
563.684
500.651
467.261
356.551
212.361
154.911
56.0288
43.4936
1159.92
1484.48
1325.29
995.533
810.364
528.454
411.498
361.935
381.974
461.836
423.744
383.628
475.621
291.874
101.719
28.9321
1.95153
1.57233
2.03603
1665.32
1399.35
1183.29
966.923
571.671
257.459
104.964
65.1267
184.805
234.261
271.344
308.915
203.248
37.1118
1.27792
1.26125
1.24724
1.1343
1.08826
1353.86
1268.88
1012.96
764.174
237.791
0.980886
0.714182
1.48314
17.1854
94.2087
145.903
99.0355
8.76973
2.36068
1.31379
1.28393
1.16383
0.951151
0.974102
1029.42
860.511
598.021
100.21
0.204926
0.359233
0.546979
0.781139
4.48231
13.5752
5.20057
0.78763
0.71287
1.06569
1.1537
0.801889
0.82913
0.862965
0.886105
722.004
431.252
21.7041
0.561505
0.555177
0.438524
0.458119
0.869824
3.16663
1.328
0.873636
0.81042
0.929117
0.838405
0.682197
0.715038
0.75876
0.822272
0.812534
121.794
0.673438
0.679978
0.656061
0.41831
0.430837
0.479842
0.748952
0.64781
0.71162
0.913757
0.933864
0.752551
0.576019
0.624613
0.658609
0.700019
0.81738
0.81368
1.67551
0.665413
0.628395
0.530911
0.453906
0.438145
0.464674
0.486313
0.472513
0.73402
0.897465
0.793672
0.524439
0.536238
0.581279
0.611035
0.634038
0.763162
0.77638
0.31236
0.458644
0.504775
0.453181
0.449114
0.462337
0.486703
0.47232
0.459999
0.545519
0.572127
0.495333
0.485943
0.512713
0.545114
0.571253
0.590947
0.704727
0.623689
0.404924
0.404782
0.416038
0.428113
0.438747
0.448388
0.530004
0.614905
0.663666
0.648228
0.650457
0.670697
0.681564
0.524551
0.51454
0.536977
0.560405
0.567648
0.575684
0.406014
0.401163
0.399576
0.408771
0.42133
0.434707
0.471
0.503453
0.534809
0.538592
0.520027
0.573701
0.62083
0.523945
0.486384
0.5063
0.532791
0.533869
0.54111
0.389193
0.383864
0.381169
0.385942
0.396562
0.406234
0.40173
0.400596
0.391786
0.385807
0.389785
0.402611
0.420115
0.442345
0.462802
0.47914
0.49864
0.503942
0.509122
0.361203
0.359041
0.358678
0.363519
0.370724
0.37632
0.379218
0.380408
0.384199
0.386392
0.386909
0.392613
0.407088
0.423531
0.439569
0.453686
0.46541
0.474307
0.479633
0.327405
0.329738
0.332948
0.338961
0.346095
0.352647
0.357704
0.361065
0.370961
0.37645
0.378693
0.38139
0.392707
0.405397
0.418099
0.429735
0.439627
0.447154
0.451694
0.291247
0.298527
0.305586
0.3136
0.321828
0.329602
0.336382
0.342058
0.347953
0.354582
0.359508
0.366773
0.376191
0.386474
0.396805
0.406458
0.414861
0.421127
0.425115
0.255156
0.267211
0.277882
0.288104
0.297862
0.306919
0.315116
0.322398
0.328913
0.335294
0.342227
0.349909
0.358209
0.366896
0.37554
0.383669
0.390876
0.396514
0.401075
0.220804
0.236928
0.250714
0.263103
0.274391
0.284689
0.294039
0.302467
0.310111
0.317337
0.324533
0.331887
0.339409
0.346989
0.354401
0.361355
0.367597
0.379516
0.388069
0.189258
0.208491
0.224769
0.23902
0.251714
0.263109
0.273355
0.2826
0.290996
0.298763
0.306144
0.313291
0.320263
0.327037
0.333524
0.339561
0.345052
0.364337
0.367667
0.161065
0.182408
0.200497
0.216185
0.230001
0.242283
0.253245
0.263063
0.271934
0.280046
0.287535
0.294525
0.301089
0.307256
0.313029
0.318336
0.327928
0.345788
0.331991
0.136385
0.158923
0.17815
0.194804
0.20941
0.222327
0.233803
0.24403
0.253193
0.261482
0.269014
0.275863
0.282102
0.28779
0.292994
0.297704
0.318164
0.324999
0.310155
0.115107
0.138069
0.157829
0.174998
0.190055
0.203348
0.215133
0.225608
0.234936
0.243281
0.250782
0.257487
0.263448
0.268735
0.273468
0.277698
0.291153
0.295046
0.287067
0.0969633
0.119737
0.139521
0.156804
0.172
0.185424
0.197322
0.207883
0.217264
0.225592
0.232975
0.23952
0.245225
0.250156
0.254494
0.258388
0.262048
0.264689
0.266461
0.0816069
0.103731
0.123135
0.140196
0.155258
0.168595
0.180426
0.190928
0.200241
0.208474
0.215717
0.222052
0.22751
0.232101
0.236116
0.239731
0.243157
0.245604
0.247256
0.0686749
0.0898175
0.108534
0.125105
0.139805
0.152865
0.164474
0.174787
0.183926
0.191989
0.199047
0.205163
0.210379
0.214598
0.218378
0.221753
0.22503
0.227343
0.2288
0.0578166
0.077754
0.095558
0.111432
0.125589
0.138215
0.149467
0.159478
0.168351
0.176171
0.182999
0.188888
0.193962
0.197618
0.20138
0.204673
0.207828
0.209922
0.211257
0.0487162
0.0673052
0.0840417
0.0990658
0.112538
0.124603
0.135388
0.145001
0.15353
0.161044
0.16759
0.173191
0.177883
0.181638
0.1852
0.188573
0.191535
0.193297
0.194554
0.0410909
0.0582528
0.073821
0.0878877
0.100569
0.111974
0.122202
0.13134
0.13946
0.146619
0.152855
0.158182
0.162638
0.166297
0.169592
0.172962
0.17568
0.177149
0.178099
0.0346982
0.0503981
0.0647399
0.0777774
0.089592
0.100263
0.109864
0.118465
0.126124
0.132888
0.138791
0.143852
0.148114
0.151669
0.154793
0.157645
0.160534
0.16168
0.162215
0.0293265
0.0435631
0.0566511
0.0686166
0.079513
0.0893953
0.0983179
0.106333
0.113488
0.119821
0.125366
0.13015
0.13422
0.137657
0.140636
0.143141
0.14569
0.14652
0.147171
0.0247984
0.0375899
0.0494188
0.0602909
0.0702372
0.0792939
0.0874986
0.09489
0.101503
0.107373
0.112533
0.117012
0.120858
0.124129
0.126927
0.129128
0.131086
0.131948
0.132697
0.020957
0.0323392
0.04292
0.052693
0.0616719
0.0698781
0.0773365
0.0840738
0.0901167
0.0954939
0.100237
0.104378
0.107953
0.110998
0.11357
0.11551
0.117221
0.118001
0.118652
0.0176716
0.0276864
0.0370425
0.045721
0.053726
0.061067
0.0677585
0.0738187
0.0792672
0.0841276
0.0884282
0.0921967
0.095458
0.0982316
0.100543
0.102247
0.103761
0.104433
0.105013
0.0148301
0.0235252
0.0316822
0.0392789
0.0463108
0.0527795
0.0586907
0.0640566
0.0688926
0.0732172
0.0770535
0.0804235
0.0833417
0.0858166
0.0878555
0.0893523
0.090696
0.0912084
0.0917913
0.0123401
0.0197601
0.0267477
0.0332783
0.0393429
0.0449366
0.0500599
0.0547201
0.0589298
0.0627037
0.0660596
0.0690128
0.0715709
0.0737365
0.0755086
0.076823
0.0780085
0.0783439
0.0789998
0.0101169
0.0163058
0.0221541
0.0276372
0.0327429
0.0374627
0.0417942
0.045742
0.0493163
0.0525283
0.0553912
0.0579147
0.060103
0.0619562
0.0634721
0.0646208
0.0656363
0.0658746
0.0665919
0.00809216
0.0130885
0.017825
0.0222784
0.0264353
0.0302849
0.033824
0.0370555
0.0399877
0.0426292
0.0449896
0.0470733
0.0488847
0.0504228
0.0516889
0.0526736
0.0535097
0.0537925
0.0544347
0.00620406
0.0100424
0.0136916
0.0171311
0.0203487
0.0233337
0.0260829
0.0285968
0.0308816
0.0329455
0.0347951
0.0364305
0.0378573
0.0390741
0.0400859
0.0408906
0.0415593
0.041908
0.0423872
0.00440286
0.00710913
0.00969073
0.012131
0.0144197
0.0165478
0.0185114
0.0203076
0.0219388
0.0234212
0.024753
0.0259324
0.0269651
0.0278494
0.0285924
0.029192
0.0296869
0.0300184
0.030319
0.00263946
0.0042394
0.0057715
0.00722803
0.00859921
0.00987624
0.0110599
0.012143
0.0131081
0.0140109
0.0148175
0.0155311
0.0161594
0.0166994
0.0171569
0.0175256
0.0178254
0.0180326
0.0181774
0.000873733
0.00139401
0.00190043
0.00239197
0.00285372
0.0032832
0.00368001
0.00404442
0.00437253
0.00467499
0.00494785
0.00519026
0.00540404
0.00558773
0.00574295
0.00586205
0.00594913
0.00598689
0.00597103
)
;

boundaryField
{
    leftWall
    {
        type            fixedFluxPressure;
        gradient        uniform 0;
        value           nonuniform List<scalar> 
50
(
6004.65
5986.84
5960.3
5917.62
5855.36
4185.51
1801.81
1567.4
1403.08
1291.53
1270.18
1223.86
1185.87
1168.77
1175.26
1193.67
1213.47
1226.08
1232.63
1233.84
1224.93
1189.66
1176.31
974.374
121.429
-1.02535
-0.682691
-0.480707
-0.331291
-0.164222
-0.0443141
-0.0220768
0.0264592
0.0321818
0.0514078
0.069212
0.115974
0.105488
0.0880786
0.0709391
0.0409132
0.0321244
-0.00764978
-0.0397775
-0.0397819
-0.0342991
-0.027151
-0.0192215
-0.0106926
-0.00463452
)
;
    }
    rightWall
    {
        type            fixedFluxPressure;
        gradient        uniform 0;
        value           nonuniform List<scalar> 
50
(
3129.11
3138.31
3096.69
2452.59
555.514
525.849
473.208
461.182
392.042
218.701
43.4936
2.03603
1.08826
0.974102
0.886105
0.812534
0.81368
0.77638
0.623689
0.575684
0.54111
0.509122
0.479633
0.451694
0.425115
0.401075
0.388069
0.367667
0.331991
0.310155
0.287067
0.266461
0.247256
0.2288
0.211257
0.194554
0.178099
0.162215
0.147171
0.132697
0.118652
0.105013
0.0917913
0.0789998
0.0665919
0.0544347
0.0423872
0.030319
0.0181774
0.00597103
)
;
    }
    lowerWall
    {
        type            fixedFluxPressure;
        gradient        uniform 0;
        value           nonuniform List<scalar> 
62
(
6004.65
6070.71
6195.38
6349.06
6515.95
6677.66
6820.75
6934.05
7007.29
7031.11
6997.39
6900.81
6737.65
6510.12
6230.76
5927.14
5635.38
5384.19
5187.33
5046.87
4954.05
4891.07
4860.09
4860.09
4853.22
4839.13
4806.35
3268.08
1477.43
1489.99
1481.18
1299.23
1293.9
1310.14
1318.61
2302.17
2315.8
2169.09
1974.78
1760.09
1246.8
1136.52
1129.05
2302.17
2222.25
2132.09
2256.76
2372.03
2289.33
2244.53
2325.41
2365.85
2345.15
2273.35
2250.07
2322.83
2523.28
2749.56
2919.92
3035.48
3065.34
3129.11
)
;
    }
    atmosphere
    {
        type            totalPressure;
        rho             rho;
        psi             none;
        gamma           1;
        p0              uniform 0;
        value           nonuniform List<scalar> 
46
(
-7.15467e-05
0
-9.04926e-07
-0.000193945
-0.000709702
-0.00139766
-0.00207646
-0.00260566
-0.00290818
-0.00296545
-0.00280273
-0.00247041
-0.00203187
-0.00154939
-0.00107974
-0.000667214
-0.000342921
-0.000124376
-1.56252e-05
0
0
0
0
0
0
0
0
0
0
0
0
0
0
0
0
0
0
0
0
0
0
0
0
0
0
0
)
;
    }
    defaultFaces
    {
        type            empty;
    }
}


// ************************************************************************* //
