/*--------------------------------*- C++ -*----------------------------------*\
| =========                 |                                                 |
| \\      /  F ield         | OpenFOAM: The Open Source CFD Toolbox           |
|  \\    /   O peration     | Version:  2312                                  |
|   \\  /    A nd           | Website:  www.openfoam.com                      |
|    \\/     M anipulation  |                                                 |
\*---------------------------------------------------------------------------*/
FoamFile
{
    version     2.0;
    format      ascii;
    arch        "LSB;label=32;scalar=64";
    class       surfaceScalarField;
    location    "1.3";
    object      phi;
}
// * * * * * * * * * * * * * * * * * * * * * * * * * * * * * * * * * * * * * //

dimensions      [0 3 -1 0 0 0 0];

oriented        oriented;

internalField   nonuniform List<scalar> 
4432
(
1.98962e-06
-1.98962e-06
2.24517e-06
-2.55542e-07
3.26129e-06
-1.01612e-06
5.00592e-06
-1.74462e-06
7.24973e-06
-2.24381e-06
9.69573e-06
-2.446e-06
1.20862e-05
-2.39051e-06
1.42051e-05
-2.11891e-06
1.58573e-05
-1.65214e-06
1.68553e-05
-9.98002e-07
1.7042e-05
-1.86688e-07
1.6324e-05
7.17947e-07
1.4682e-05
1.64206e-06
1.2254e-05
2.428e-06
9.34208e-06
2.91189e-06
6.37355e-06
2.96853e-06
3.74509e-06
2.62846e-06
1.7573e-06
1.98778e-06
4.84605e-07
1.2727e-06
-1.22463e-07
6.07068e-07
-2.34838e-07
1.12374e-07
7.81634e-08
-3.13002e-07
7.81629e-08
9.48879e-07
-2.93849e-06
1.3485e-06
-6.55156e-07
2.61018e-06
-2.2778e-06
4.56768e-06
-3.70211e-06
6.96713e-06
-4.64325e-06
9.51559e-06
-4.99446e-06
1.19763e-05
-4.85119e-06
1.41549e-05
-4.29755e-06
1.58576e-05
-3.35486e-06
1.68953e-05
-2.0356e-06
1.7103e-05
-3.9443e-07
1.63664e-05
1.45459e-06
1.46846e-05
3.32379e-06
1.21749e-05
4.93774e-06
9.15832e-06
5.92844e-06
6.08563e-06
6.04121e-06
3.38092e-06
5.33318e-06
1.36158e-06
4.00712e-06
7.18499e-08
2.56243e-06
-5.4079e-07
1.21971e-06
-6.08034e-07
1.79617e-07
-3.63362e-07
-5.57675e-07
-2.85199e-07
-6.68139e-07
-2.27035e-06
-1.6383e-07
-1.15946e-06
1.23664e-06
-3.67827e-06
3.52984e-06
-5.9953e-06
6.21562e-06
-7.32903e-06
8.97846e-06
-7.7573e-06
1.16058e-05
-7.47857e-06
1.3927e-05
-6.61866e-06
1.57557e-05
-5.1836e-06
1.68872e-05
-3.16713e-06
1.71428e-05
-6.50006e-07
1.64115e-05
2.18589e-06
1.46643e-05
5.07103e-06
1.20307e-05
7.57129e-06
8.81724e-06
9.14189e-06
5.56778e-06
9.29068e-06
2.74906e-06
8.15189e-06
6.83449e-07
6.07273e-06
-5.74382e-07
3.82026e-06
-1.06905e-06
1.71437e-06
-9.59031e-07
6.96013e-08
-5.81082e-07
-9.35624e-07
-8.66282e-07
-2.94665e-06
6.7631e-07
-2.65472e-06
-1.45139e-06
-7.84927e-07
-5.54806e-06
1.90025e-06
-8.68048e-06
4.95362e-06
-1.03824e-05
8.00975e-06
-1.08134e-05
1.08846e-05
-1.03534e-05
1.34358e-05
-9.16988e-06
1.54803e-05
-7.22807e-06
1.68006e-05
-4.48748e-06
1.71983e-05
-1.04772e-06
1.65454e-05
2.83883e-06
1.47791e-05
6.83728e-06
1.20075e-05
1.0343e-05
8.56011e-06
1.25892e-05
5.06388e-06
1.27869e-05
2.13723e-06
1.10785e-05
8.71369e-08
8.12283e-06
-1.02974e-06
4.93714e-06
-1.30823e-06
1.99287e-06
-1.02302e-06
-2.15608e-07
-6.24172e-07
-1.33447e-06
-1.49045e-06
-5.34908e-06
6.02539e-06
-5.25559e-06
-1.54489e-06
-2.99347e-06
-7.81017e-06
2.57275e-07
-1.19312e-05
3.68322e-06
-1.38083e-05
7.01456e-06
-1.41448e-05
1.01354e-05
-1.34742e-05
1.29454e-05
-1.19799e-05
1.52739e-05
-9.55658e-06
1.68689e-05
-6.08242e-06
1.74981e-05
-1.67698e-06
1.69989e-05
3.3381e-06
1.52486e-05
8.58752e-06
1.2323e-05
1.32686e-05
8.58424e-06
1.6328e-05
4.81536e-06
1.65558e-05
2.01974e-06
1.38742e-05
4.0241e-07
9.74016e-06
-3.65276e-07
5.70482e-06
-5.71547e-07
2.19914e-06
-5.91771e-07
-1.95386e-07
-6.71878e-07
-1.25437e-06
-2.16233e-06
-6.61296e-06
1.26384e-05
-6.58996e-06
-1.56787e-06
-3.76681e-06
-1.06333e-05
-2.00331e-07
-1.54977e-05
3.34379e-06
-1.73525e-05
6.80505e-06
-1.7606e-05
1.00862e-05
-1.67553e-05
1.30937e-05
-1.49874e-05
1.56829e-05
-1.21458e-05
1.76277e-05
-8.02723e-06
1.86427e-05
-2.6919e-06
1.85379e-05
3.44282e-06
1.7126e-05
9.99948e-06
1.45482e-05
1.58464e-05
1.13293e-05
1.95469e-05
8.59296e-06
1.92922e-05
7.68259e-06
1.47845e-05
8.29025e-06
9.1325e-06
9.12489e-06
4.87018e-06
8.10536e-06
3.21867e-06
4.95784e-06
2.95214e-06
1.33681e-06
2.36666e-06
-8.25524e-07
-3.49339e-06
1.61318e-05
-5.07896e-06
1.77216e-08
-2.29178e-06
-1.34205e-05
1.15425e-06
-1.89437e-05
4.5878e-06
-2.0786e-05
7.94485e-06
-2.09631e-05
1.1326e-05
-2.01365e-05
1.45714e-05
-1.82328e-05
1.74928e-05
-1.50671e-05
1.98177e-05
-1.03521e-05
2.11977e-05
-4.07198e-06
2.1707e-05
2.9336e-06
2.11051e-05
1.06013e-05
1.9993e-05
1.69585e-05
1.85654e-05
2.09745e-05
1.84782e-05
1.93794e-05
2.07309e-05
1.25319e-05
2.30951e-05
6.76824e-06
2.49678e-05
2.99753e-06
2.59274e-05
2.25902e-06
2.47819e-05
4.09771e-06
1.84578e-05
8.69075e-06
1.76323e-05
8.75041e-06
7.38137e-06
1.32272e-05
-4.45904e-06
1.223e-05
-1.24233e-05
9.21263e-06
-1.59264e-05
8.21005e-06
-1.97834e-05
1.01155e-05
-2.28685e-05
1.32671e-05
-2.32881e-05
1.67588e-05
-2.17245e-05
2.0105e-05
-1.84134e-05
2.28135e-05
-1.30606e-05
2.48196e-05
-6.07811e-06
2.58334e-05
1.91983e-06
2.55948e-05
1.08399e-05
2.41796e-05
1.83738e-05
2.51306e-05
2.00234e-05
2.81623e-05
1.63477e-05
3.08256e-05
9.86857e-06
3.28472e-05
4.74667e-06
3.3803e-05
2.04169e-06
3.38854e-05
2.17661e-06
3.20721e-05
5.91107e-06
2.50073e-05
1.57555e-05
4.26396e-05
-1.83436e-06
1.83437e-06
-9.1494e-06
7.31504e-06
-2.0411e-05
1.12616e-05
-2.60472e-05
5.63618e-06
-2.32439e-05
-2.80329e-06
-2.12e-05
-2.04388e-06
-2.11601e-05
-3.99221e-08
-1.75716e-05
-3.58849e-06
-1.20728e-05
-5.49878e-06
-8.0004e-06
-4.07245e-06
-5.76461e-06
-2.23579e-06
-5.11533e-06
-6.49273e-07
-5.47641e-06
3.61079e-07
-5.71121e-06
2.34796e-07
-5.95405e-06
2.42843e-07
-5.82296e-06
-1.31095e-07
-4.96026e-06
-8.62689e-07
-1.29033e-06
-3.66993e-06
-1.29032e-06
-1.00361e-05
1.18705e-05
-1.58767e-05
1.31556e-05
-1.4041e-05
9.426e-06
-4.31265e-06
-4.09219e-06
3.04785e-06
-1.01638e-05
1.57411e-06
-5.70138e-07
-6.40093e-06
7.93511e-06
-9.66407e-06
-3.25346e-07
-7.92548e-06
-7.23738e-06
-7.24828e-06
-4.74965e-06
-6.48065e-06
-3.00342e-06
-6.39935e-06
-7.30572e-07
-8.09534e-06
2.05707e-06
-1.0668e-05
2.80742e-06
-1.196e-05
1.5349e-06
-1.30009e-05
9.09798e-07
-1.2134e-05
-1.72961e-06
-7.08384e-06
-8.72007e-06
-8.37416e-06
-1.74345e-05
2.9305e-05
-2.19724e-05
1.76935e-05
-1.37144e-05
1.16794e-06
-2.53383e-06
-1.52727e-05
2.38754e-06
-1.50852e-05
6.35207e-06
-4.53467e-06
1.18432e-05
2.44394e-06
1.00739e-05
1.44397e-06
1.09062e-06
1.74594e-06
-4.88845e-06
1.22942e-06
-6.76895e-06
-1.12292e-06
-8.04375e-06
5.44222e-07
-1.1988e-05
6.00132e-06
-1.73543e-05
8.17373e-06
-2.01015e-05
4.28214e-06
-2.07298e-05
1.53808e-06
-1.6866e-05
-5.59344e-06
-1.04559e-05
-1.51302e-05
-1.883e-05
-2.1274e-05
5.0579e-05
-2.37257e-05
2.01452e-05
-1.46832e-05
-7.87449e-06
-4.27585e-06
-2.56801e-05
-7.9002e-07
-1.8571e-05
8.32421e-07
-6.15711e-06
4.4902e-06
-1.21384e-06
9.59292e-06
-3.65875e-06
5.61836e-06
5.7205e-06
-2.35991e-06
9.20769e-06
-7.50687e-06
4.02404e-06
-1.13793e-05
4.41669e-06
-1.57588e-05
1.03808e-05
-1.89709e-05
1.13858e-05
-2.11313e-05
6.44255e-06
-2.05758e-05
9.82597e-07
-1.54459e-05
-1.07234e-05
-9.8417e-06
-2.07344e-05
-2.86717e-05
-1.96576e-05
7.02367e-05
-1.97118e-05
2.01994e-05
-1.0328e-05
-1.72584e-05
-1.63641e-06
-3.43716e-05
2.13954e-06
-2.23469e-05
1.22783e-06
-5.2454e-06
-1.98352e-06
1.99751e-06
-1.45537e-06
-4.1869e-06
-2.99453e-06
7.25966e-06
-9.52949e-06
1.57427e-05
-1.56005e-05
1.0095e-05
-1.44373e-05
3.25358e-06
-8.00389e-06
3.94732e-06
-5.27147e-06
8.65343e-06
-7.44265e-06
8.61373e-06
-8.41071e-06
1.95065e-06
-6.31458e-06
-1.28195e-05
-5.02401e-06
-2.2025e-05
-3.36957e-05
-1.35319e-05
8.37685e-05
-1.29961e-05
1.96636e-05
-3.42426e-06
-2.68302e-05
2.41121e-06
-4.02071e-05
1.04459e-05
-3.03816e-05
1.9189e-05
-1.39885e-05
2.44129e-06
1.87453e-05
-1.14913e-05
9.74565e-06
-1.3957e-05
9.72542e-06
-1.3862e-05
1.56476e-05
-1.41108e-05
1.03438e-05
-9.89458e-06
-9.62663e-07
-3.61074e-06
-2.33652e-06
1.89658e-06
3.14611e-06
5.02613e-06
5.48418e-06
4.94986e-06
2.02692e-06
3.21485e-06
-1.10845e-05
1.10226e-06
-1.99124e-05
-3.25935e-05
-5.08867e-06
8.88572e-05
-2.76848e-06
1.73434e-05
2.94174e-06
-3.25404e-05
5.15268e-06
-4.2418e-05
5.31221e-06
-3.05411e-05
1.36816e-05
-2.23579e-05
6.36563e-06
2.60612e-05
-7.83859e-06
2.39499e-05
-1.40534e-05
1.59402e-05
-1.36804e-05
1.52747e-05
-1.04309e-05
7.0943e-06
-4.88281e-06
-6.51076e-06
-6.04408e-07
-6.61492e-06
2.79897e-06
-2.57261e-07
6.64327e-06
1.63988e-06
9.09782e-06
-4.27637e-07
7.5322e-06
-9.5189e-06
4.28553e-06
-1.66657e-05
-2.8308e-05
3.41278e-06
8.54444e-05
6.73287e-06
1.40233e-05
7.99166e-06
-3.37992e-05
9.70862e-06
-4.4135e-05
7.14983e-06
-2.79823e-05
1.03587e-05
-2.55667e-05
1.28261e-05
2.35937e-05
1.42798e-06
3.53481e-05
-7.48193e-06
2.48502e-05
-8.89479e-06
1.66875e-05
-6.00543e-06
4.20495e-06
-1.95681e-06
-1.05594e-05
1.05052e-07
-8.67678e-06
2.07646e-06
-2.22867e-06
5.48717e-06
-1.77083e-06
8.01732e-06
-2.95779e-06
7.44858e-06
-8.95016e-06
6.54841e-06
-1.57655e-05
-2.17596e-05
3.74019e-05
-3.00205e-05
5.06864e-05
-1.77436e-05
5.12537e-05
-1.29906e-05
4.88656e-05
-1.35383e-05
4.3054e-05
-1.39718e-05
3.6917e-05
-1.67315e-05
3.50974e-05
-2.14686e-05
3.95405e-05
-2.61677e-05
4.76729e-05
-2.65457e-05
5.53937e-05
-2.07814e-05
5.9982e-05
-1.06664e-05
6.08982e-05
1.00357e-06
6.08664e-05
1.08717e-05
6.55925e-05
1.36477e-05
7.27363e-05
1.28796e-05
7.92335e-05
9.85056e-06
8.29448e-05
6.15722e-06
8.45896e-05
3.1019e-06
8.52154e-05
1.41588e-06
8.5584e-05
1.80798e-06
8.61254e-05
5.36967e-06
8.86356e-05
1.32453e-05
2.68966e-05
0.000104378
4.93011e-05
-7.93216e-05
7.86496e-05
-4.70921e-05
8.68719e-05
-2.12128e-05
8.13619e-05
-8.02831e-06
6.88478e-05
-1.45774e-06
5.53285e-05
-3.21218e-06
4.22466e-05
-8.38671e-06
3.2772e-05
-1.6693e-05
2.94582e-05
-2.32319e-05
3.16266e-05
-2.29499e-05
3.8156e-05
-1.71958e-05
4.85383e-05
-9.37873e-06
6.24035e-05
-2.99342e-06
7.59429e-05
1.08255e-07
8.73038e-05
1.51867e-06
9.53766e-05
1.77777e-06
0.000100336
1.19744e-06
0.000102962
4.76444e-07
0.000103929
4.48313e-07
0.000103473
2.26467e-06
0.00010141
7.43251e-06
9.82613e-05
1.63939e-05
3.08284e-05
9.43296e-05
3.62995e-05
-0.000115621
7.31963e-05
-8.39889e-05
0.000103659
-5.16754e-05
0.000119786
-2.41558e-05
0.000116622
1.70605e-06
9.09899e-05
2.24204e-05
6.3588e-05
1.90152e-05
4.20297e-05
4.86519e-06
3.60349e-05
-1.72371e-05
3.84211e-05
-2.53362e-05
4.60307e-05
-2.48053e-05
5.77452e-05
-2.10933e-05
7.22095e-05
-1.74577e-05
8.62642e-05
-1.39465e-05
9.70818e-05
-9.29888e-06
0.000104042
-5.18224e-06
0.000107617
-2.37781e-06
0.000108419
-3.25715e-07
0.000106244
2.62348e-06
0.000101093
7.41524e-06
9.39198e-05
1.46061e-05
8.68849e-05
2.34288e-05
3.64619e-05
8.12514e-05
2.59101e-05
-0.000141531
5.30949e-05
-0.000111174
7.90237e-05
-7.76041e-05
0.000111184
-5.63165e-05
0.000137853
-2.49629e-05
0.00013797
2.23032e-05
0.000120159
3.68262e-05
8.6804e-05
3.82204e-05
5.92602e-05
1.03067e-05
5.17586e-05
-1.78346e-05
5.22394e-05
-2.52862e-05
5.84268e-05
-2.72806e-05
6.8949e-05
-2.79799e-05
8.07617e-05
-2.57593e-05
8.96272e-05
-1.81644e-05
9.45626e-05
-1.01176e-05
9.53051e-05
-3.1203e-06
9.20087e-05
2.97062e-06
8.54152e-05
9.21703e-06
7.69275e-05
1.59029e-05
6.91046e-05
2.24289e-05
6.37581e-05
2.87753e-05
3.97796e-05
6.04404e-05
1.82321e-05
-0.000159763
3.54857e-05
-0.000128427
4.58685e-05
-8.7987e-05
6.44771e-05
-7.49251e-05
9.40573e-05
-5.45431e-05
0.000122971
-6.6102e-06
0.000124628
3.51689e-05
0.000116077
4.67708e-05
0.000101298
2.50859e-05
8.09814e-05
2.48202e-06
6.5533e-05
-9.83775e-06
6.07964e-05
-2.25441e-05
6.48117e-05
-3.19952e-05
6.9247e-05
-3.01946e-05
7.13678e-05
-2.02852e-05
7.00584e-05
-8.80825e-06
6.59667e-05
9.71392e-07
6.10006e-05
7.93674e-06
5.44821e-05
1.57355e-05
4.83564e-05
2.20286e-05
4.4131e-05
2.66544e-05
4.2375e-05
3.05313e-05
4.02364e-05
4.19182e-05
1.0021e-05
-0.000169784
2.04035e-05
-0.00013881
2.19705e-05
-8.95541e-05
2.8438e-05
-8.13926e-05
4.27231e-05
-6.88283e-05
7.05959e-05
-3.44831e-05
9.05548e-05
1.52099e-05
9.99632e-05
3.73623e-05
9.90634e-05
2.59857e-05
8.05557e-05
2.09896e-05
6.36671e-05
7.05079e-06
5.68297e-05
-1.57068e-05
5.12087e-05
-2.63741e-05
4.65013e-05
-2.54873e-05
4.15378e-05
-1.53218e-05
3.64317e-05
-3.70212e-06
3.31957e-05
4.20733e-06
3.146e-05
9.67244e-06
2.9097e-05
1.80985e-05
2.76533e-05
2.34724e-05
2.74844e-05
2.68233e-05
2.82719e-05
2.97438e-05
3.7483e-05
3.10253e-05
-1.22782e-06
-0.000168557
1.73142e-06
-0.000141769
1.02406e-06
-8.88468e-05
3.87253e-06
-8.42412e-05
1.35959e-05
-7.85517e-05
3.13758e-05
-5.2263e-05
5.20738e-05
-5.48813e-06
7.53084e-05
1.41277e-05
8.15911e-05
1.97029e-05
6.30982e-05
3.94824e-05
4.62189e-05
2.39301e-05
3.84854e-05
-7.9733e-06
2.86021e-05
-1.64908e-05
1.96637e-05
-1.6549e-05
1.35109e-05
-9.16902e-06
1.05863e-05
-7.77505e-07
1.03228e-05
4.47089e-06
1.12074e-05
8.78774e-06
1.26934e-05
1.66125e-05
1.5444e-05
2.07217e-05
1.82302e-05
2.40371e-05
2.14991e-05
2.64749e-05
3.14085e-05
2.75736e-05
-9.08821e-06
-0.000159468
-1.26597e-05
-0.000138198
-1.50544e-05
-8.64522e-05
-1.71358e-05
-8.21598e-05
-2.00829e-05
-7.56047e-05
-1.46372e-05
-5.77087e-05
4.96963e-06
-2.5095e-05
2.36005e-05
-4.50322e-06
3.40748e-05
9.22858e-06
3.66029e-05
3.69543e-05
3.03186e-05
3.02144e-05
2.33432e-05
-9.97913e-07
1.27019e-05
-5.84959e-06
1.46106e-06
-5.30812e-06
-3.65213e-06
-4.05583e-06
-4.19907e-06
-2.30571e-07
-2.99945e-06
3.27127e-06
-1.49039e-06
7.27868e-06
1.91314e-06
1.3209e-05
6.43344e-06
1.62014e-05
1.16675e-05
1.8803e-05
1.79918e-05
2.01506e-05
2.21745e-05
2.72258e-05
-1.18479e-05
-0.000147621
-1.74843e-05
-0.000132561
-1.39788e-05
-8.99578e-05
-2.14784e-05
-7.46602e-05
-2.5665e-05
-7.14181e-05
-2.5928e-05
-5.74457e-05
-1.26966e-05
-3.83265e-05
2.01574e-06
-1.92156e-05
1.4041e-05
-2.79671e-06
2.25513e-05
2.84439e-05
2.02164e-05
3.25493e-05
1.12534e-05
7.96502e-06
4.86841e-06
5.35426e-07
-3.14269e-06
2.70299e-06
-1.04394e-05
3.24084e-06
-1.43891e-05
3.71917e-06
-1.59558e-05
4.83801e-06
-1.48361e-05
6.15897e-06
-9.9154e-06
8.28827e-06
-3.72744e-06
1.00135e-05
3.49261e-06
1.1583e-05
1.15653e-05
1.2078e-05
1.03447e-05
2.33951e-05
-1.0474e-05
-0.000137147
-1.29261e-05
-0.000130109
-5.54754e-06
-9.73364e-05
-1.32395e-05
-6.69683e-05
-1.76274e-05
-6.70302e-05
-1.86658e-05
-5.64074e-05
-1.42778e-05
-4.27145e-05
-7.79865e-06
-2.56948e-05
-8.16772e-07
-9.77858e-06
1.2978e-05
1.46491e-05
1.79563e-05
2.75711e-05
8.62465e-06
1.72967e-05
-2.99215e-06
1.21522e-05
-1.40584e-05
1.37693e-05
-2.31268e-05
1.23092e-05
-2.75512e-05
8.1435e-06
-2.71602e-05
4.44704e-06
-2.39991e-05
2.99792e-06
-1.8186e-05
2.47515e-06
-1.05249e-05
2.35237e-06
-1.47875e-07
1.20593e-06
1.47427e-05
-2.81256e-06
-1.22815e-05
3.73688e-05
-7.27734e-06
-0.000129869
-6.29442e-06
-0.000131092
4.26937e-06
-0.0001079
4.52754e-06
-6.72265e-05
2.14669e-07
-6.27173e-05
-2.60525e-06
-5.35875e-05
-4.62416e-06
-4.06955e-05
-7.66741e-06
-2.26515e-05
-1.00379e-05
-7.40809e-06
-3.00059e-06
7.61191e-06
4.2422e-06
2.03283e-05
6.04011e-07
2.09349e-05
-8.89096e-06
2.16472e-05
-2.00101e-05
2.48884e-05
-3.03112e-05
2.26104e-05
-3.16147e-05
9.44705e-06
-2.47633e-05
-2.40439e-06
-1.59477e-05
-5.81755e-06
-4.96531e-06
-8.50716e-06
1.09602e-05
-1.35731e-05
4.22224e-05
-3.00562e-05
6.20566e-05
-2.26468e-05
4.89247e-06
4.48828e-05
-3.03273e-06
-0.000126836
-5.60552e-08
-0.000134069
1.34531e-05
-0.000121409
2.7372e-05
-8.11453e-05
3.09582e-05
-6.63035e-05
3.12599e-05
-5.38891e-05
2.66609e-05
-3.60965e-05
1.91875e-05
-1.51779e-05
1.47743e-05
-2.9949e-06
1.96287e-05
2.75764e-06
3.43104e-05
5.6467e-06
5.17563e-05
3.48908e-06
7.2561e-05
8.42576e-07
9.38905e-05
3.55891e-06
9.53923e-05
2.11085e-05
6.04067e-05
4.44327e-05
4.61971e-05
1.18053e-05
4.21609e-05
-1.78113e-06
2.99661e-05
3.68795e-06
2.14412e-05
-5.04804e-06
7.74883e-06
-1.63638e-05
-1.50645e-05
1.66689e-07
2.07255e-05
-3.08972e-05
2.42074e-06
-0.000129257
7.97576e-06
-0.000139624
1.93367e-05
-0.00013277
4.22391e-05
-0.000104048
6.09791e-05
-8.50434e-05
7.71407e-05
-7.00506e-05
9.31277e-05
-5.20833e-05
0.000105705
-2.77552e-05
0.000112308
-9.59787e-06
0.000128279
-1.3213e-05
0.000157998
-2.4072e-05
0.000195055
-3.35679e-05
0.000235759
-3.9862e-05
0.000285371
-4.60532e-05
0.00033898
-3.24997e-05
0.000310894
7.25183e-05
0.000246149
7.65502e-05
0.000167099
7.72696e-05
0.000100083
7.07038e-05
4.40298e-05
5.10053e-05
2.19177e-07
2.7447e-05
-2.2645e-05
2.3031e-05
2.5266e-05
-2.7185e-05
9.2646e-06
-0.000138522
1.87273e-05
-0.000149087
2.87558e-05
-0.000142799
4.62186e-05
-0.00012151
6.41825e-05
-0.000103007
8.17751e-05
-8.76431e-05
0.000102557
-7.28656e-05
0.00012977
-5.49677e-05
0.000151475
-3.13032e-05
0.000173988
-3.57249e-05
0.000196661
-4.67454e-05
0.000217556
-5.44626e-05
0.000238496
-6.08019e-05
0.000265063
-7.26206e-05
0.00023371
-1.14711e-06
0.000200369
0.00010586
0.000138745
0.000138174
8.49984e-05
0.000131016
4.91962e-05
0.000106506
2.55108e-05
7.46907e-05
5.52685e-06
4.7431e-05
-6.82383e-06
3.53819e-05
2.95284e-05
-1.10858e-05
1.60228e-05
-0.000154545
2.91585e-05
-0.000162222
4.03831e-05
-0.000154023
5.3461e-05
-0.000134588
6.50763e-05
-0.000114622
7.4468e-05
-9.70348e-05
8.39891e-05
-8.23867e-05
9.78384e-05
-6.88169e-05
0.000124921
-5.8386e-05
0.000153476
-6.42801e-05
0.000180562
-7.38313e-05
0.000203155
-7.70552e-05
0.000227864
-8.55111e-05
0.000179282
-2.4039e-05
0.000107441
7.06943e-05
5.45997e-05
0.000158701
2.96653e-05
0.000163108
1.8603e-05
0.000142078
1.47861e-05
0.000110323
1.13867e-05
7.80903e-05
5.11387e-06
5.3704e-05
9.12871e-09
4.04867e-05
3.28878e-05
-3.34986e-06
2.00434e-05
-0.000174588
3.5435e-05
-0.000177614
4.81028e-05
-0.000166691
5.95692e-05
-0.000146055
6.86401e-05
-0.000123693
7.48616e-05
-0.000103256
8.0525e-05
-8.80499e-05
9.07006e-05
-7.89924e-05
0.000109832
-7.75169e-05
0.000127856
-8.23046e-05
0.000154792
-0.000100767
0.000171815
-9.40781e-05
8.993e-05
-3.62647e-06
-8.45097e-06
7.43421e-05
-5.95489e-05
0.000121792
-5.18458e-05
0.000150998
-3.55796e-05
0.000146842
-1.97464e-05
0.000126245
-7.78352e-06
9.83604e-05
-2.17673e-06
7.24835e-05
-1.46114e-06
5.29884e-05
-2.29523e-06
4.1321e-05
3.4107e-05
-3.51406e-06
2.20998e-05
-0.000196688
3.90511e-05
-0.000194566
5.25652e-05
-0.000180206
6.36984e-05
-0.000157188
7.29757e-05
-0.000132971
8.06283e-05
-0.000110908
8.49022e-05
-9.23233e-05
8.55934e-05
-7.96834e-05
0.000103338
-9.5261e-05
0.000104354
-8.3321e-05
8.91315e-05
-8.55445e-05
7.52243e-06
-1.24689e-05
-7.65175e-05
8.04136e-05
-0.000101759
9.95834e-05
-0.000106667
0.000126701
-8.93656e-05
0.000133697
-6.38969e-05
0.000121374
-4.02443e-05
0.000102593
-2.33708e-05
8.1487e-05
-1.38506e-05
6.29634e-05
-9.69915e-06
4.88371e-05
-7.85752e-06
3.94795e-05
3.33439e-05
-7.09394e-06
2.5369e-05
-0.000222059
3.97593e-05
-0.000208958
5.12823e-05
-0.00019173
6.16089e-05
-0.000167516
7.04623e-05
-0.000141825
7.8937e-05
-0.000119383
8.65317e-05
-9.9918e-05
9.16704e-05
-8.48221e-05
8.20887e-05
-8.56794e-05
4.2143e-05
-4.33753e-05
-4.32072e-05
-1.94257e-07
-0.000124598
6.89223e-05
-0.000134082
8.98979e-05
-0.000139247
0.000104749
-0.000125933
0.000113387
-0.000100571
0.000108335
-7.38049e-05
9.46083e-05
-5.07097e-05
7.94977e-05
-3.40525e-05
6.48299e-05
-2.35059e-05
5.24169e-05
-1.74424e-05
4.27736e-05
-1.38574e-05
3.58947e-05
3.11409e-05
-1.1654e-05
1.81003e-05
-0.00024016
2.57574e-05
-0.000216615
2.59942e-05
-0.000191967
2.41413e-05
-0.000165663
2.17647e-05
-0.000139448
2.04636e-05
-0.000118082
1.72141e-05
-9.66687e-05
3.99397e-07
-6.80076e-05
-4.99473e-05
-3.53328e-05
-0.000106826
1.35031e-05
-0.000155186
4.81658e-05
-0.000159355
7.3092e-05
-0.000158835
8.93774e-05
-0.000148326
9.42402e-05
-0.000126718
9.1778e-05
-0.000100353
8.19705e-05
-7.57923e-05
7.0048e-05
-5.55982e-05
5.93038e-05
-4.06551e-05
4.9887e-05
-3.03612e-05
4.21231e-05
-2.35703e-05
3.59827e-05
-1.90883e-05
3.14128e-05
2.80517e-05
-1.59988e-05
6.51856e-06
-0.000246677
1.73151e-06
-0.000211827
-9.2526e-06
-0.000180982
-2.29427e-05
-0.000151972
-3.89878e-05
-0.000123403
-5.75538e-05
-9.95162e-05
-8.28297e-05
-7.13927e-05
-0.000113996
-3.68412e-05
-0.000151246
1.91769e-06
-0.000167001
2.92576e-05
-0.000173904
5.50685e-05
-0.000172862
7.20503e-05
-0.000162146
7.86618e-05
-0.000143655
7.57498e-05
-0.000119748
6.7871e-05
-9.53368e-05
5.75592e-05
-7.42193e-05
4.89307e-05
-5.71447e-05
4.22293e-05
-4.41488e-05
3.68913e-05
-3.4651e-05
3.26253e-05
-2.78995e-05
2.92312e-05
-2.30686e-05
2.65821e-05
2.45261e-05
-1.95425e-05
-6.81751e-06
-0.000239858
-2.29051e-05
-0.000195738
-4.43065e-05
-0.00015958
-6.98455e-05
-0.000126433
-9.71674e-05
-9.60801e-05
-0.00012458
-7.21032e-05
-0.000149456
-4.65162e-05
-0.000168026
-1.82715e-05
-0.000176836
1.07278e-05
-0.000182423
3.48455e-05
-0.000180066
5.27109e-05
-0.000170262
6.22472e-05
-0.00015344
6.18394e-05
-0.000132067
5.43774e-05
-0.000108998
4.48017e-05
-8.79514e-05
3.6513e-05
-7.04054e-05
3.13848e-05
-5.62522e-05
2.80763e-05
-4.52145e-05
2.58537e-05
-3.67972e-05
2.4208e-05
-3.04737e-05
2.29079e-05
-2.57362e-05
2.18447e-05
2.08982e-05
-2.2108e-05
-1.80932e-05
-0.000221763
-3.99539e-05
-0.000173876
-6.55123e-05
-0.00013402
-9.45835e-05
-9.73608e-05
-0.000123134
-6.75293e-05
-0.000146856
-4.838e-05
-0.00016548
-2.78921e-05
-0.000177812
-5.93883e-06
-0.000182575
1.54909e-05
-0.000180918
3.31883e-05
-0.00017261
4.44037e-05
-0.000157713
4.73498e-05
-0.000138093
4.22199e-05
-0.000116692
3.29763e-05
-9.62671e-05
2.43771e-05
-7.90746e-05
1.93206e-05
-6.497e-05
1.72804e-05
-5.356e-05
1.66664e-05
-4.44446e-05
1.67384e-05
-3.72474e-05
1.70109e-05
-3.16038e-05
1.72644e-05
-2.71804e-05
1.74215e-05
1.73803e-05
-2.36622e-05
-2.44076e-05
-0.000197354
-4.84937e-05
-0.000149789
-7.30725e-05
-0.000109441
-0.000101051
-6.93811e-05
-0.000126596
-4.19844e-05
-0.000147415
-2.756e-05
-0.000162593
-1.2714e-05
-0.000171213
2.68103e-06
-0.000172675
1.69538e-05
-0.000167281
2.77949e-05
-0.000155519
3.26415e-05
-0.000138528
3.03585e-05
-0.000118788
2.24806e-05
-9.93837e-05
1.35719e-05
-8.27924e-05
7.78583e-06
-6.94861e-05
6.01445e-06
-5.8605e-05
6.39943e-06
-4.96969e-05
7.75833e-06
-4.23962e-05
9.43783e-06
-3.64313e-05
1.10461e-05
-3.15694e-05
1.24025e-05
-2.76049e-05
1.34572e-05
1.41027e-05
-2.4327e-05
-2.65651e-05
-0.000170788
-5.12442e-05
-0.000125109
-7.51349e-05
-8.55496e-05
-0.000100145
-4.43707e-05
-0.000120267
-2.1862e-05
-0.000136641
-1.1185e-05
-0.000147999
-1.35545e-06
-0.00015367
8.35157e-06
-0.000152903
1.61872e-05
-0.000145597
2.04895e-05
-0.000132574
1.96185e-05
-0.000115694
1.34786e-05
-9.78836e-05
4.67006e-06
-8.20283e-05
-2.2832e-06
-6.9761e-05
-4.48136e-06
-6.00149e-05
-3.73163e-06
-5.19803e-05
-1.63499e-06
-4.52144e-05
9.92544e-07
-3.95394e-05
3.76287e-06
-3.47398e-05
6.24649e-06
-3.06639e-05
8.32674e-06
-2.72131e-05
1.00064e-05
1.11595e-05
-2.42696e-05
-2.72324e-05
-0.000143555
-5.17481e-05
-0.000100593
-7.60821e-05
-6.12151e-05
-9.47656e-05
-2.56868e-05
-0.000109284
-7.34291e-06
-0.000120655
1.86162e-07
-0.000128396
6.38534e-06
-0.000131225
1.11808e-05
-0.000128552
1.35146e-05
-0.0001203
1.2238e-05
-0.000107422
6.74024e-06
-9.19381e-05
-2.00512e-06
-7.72059e-05
-1.00621e-05
-6.60074e-05
-1.34816e-05
-5.76936e-05
-1.2795e-05
-5.09826e-05
-1.04426e-05
-4.52984e-05
-7.31911e-06
-4.04481e-05
-3.85765e-06
-3.62269e-05
-4.58307e-07
-3.24641e-05
2.48373e-06
-2.91506e-05
5.01327e-06
-2.62274e-05
7.08325e-06
8.5751e-06
-2.36427e-05
-2.77713e-05
-0.000115783
-5.16737e-05
-7.66904e-05
-7.30867e-05
-3.98017e-05
-8.67614e-05
-1.20118e-05
-9.65004e-05
2.39632e-06
-0.00010371
7.39569e-06
-0.000107831
1.05065e-05
-0.000108004
1.13541e-05
-0.000103712
9.2232e-06
-9.50004e-05
3.52608e-06
-8.26374e-05
-5.62268e-06
-6.97307e-05
-1.49117e-05
-5.95909e-05
-2.02018e-05
-5.2774e-05
-2.02985e-05
-4.74948e-05
-1.80741e-05
-4.30524e-05
-1.48849e-05
-3.92532e-05
-1.11183e-05
-3.58541e-05
-7.25669e-06
-3.27003e-05
-3.61205e-06
-2.98643e-05
-3.52206e-07
-2.72313e-05
2.38031e-06
-2.48072e-05
4.65916e-06
6.37283e-06
-2.26047e-05
-2.73758e-05
-8.84072e-05
-5.00771e-05
-5.39889e-05
-6.69448e-05
-2.29339e-05
-7.73303e-05
-1.6261e-06
-8.34499e-05
8.51604e-06
-8.73661e-05
1.13121e-05
-8.85466e-05
1.1687e-05
-8.64596e-05
9.26728e-06
-8.0822e-05
3.5857e-06
-7.17516e-05
-5.54423e-06
-6.11382e-05
-1.6236e-05
-5.20717e-05
-2.39782e-05
-4.62654e-05
-2.6008e-05
-4.22792e-05
-2.42847e-05
-3.90362e-05
-2.1317e-05
-3.62997e-05
-1.76214e-05
-3.38354e-05
-1.35826e-05
-3.15283e-05
-9.56366e-06
-2.93072e-05
-5.83318e-06
-2.71292e-05
-2.53021e-06
-2.50837e-05
3.3489e-07
-2.31159e-05
2.6914e-06
4.53231e-06
-2.12752e-05
-2.43126e-05
-6.40944e-05
-4.36997e-05
-3.46017e-05
-5.689e-05
-9.74354e-06
-6.52841e-05
6.76814e-06
-6.99538e-05
1.31858e-05
-7.19178e-05
1.32761e-05
-7.11133e-05
1.08826e-05
-6.74278e-05
5.58186e-06
-6.08271e-05
-3.01499e-06
-5.22517e-05
-1.41196e-05
-4.41768e-05
-2.43109e-05
-3.88857e-05
-2.92692e-05
-3.58707e-05
-2.9023e-05
-3.36645e-05
-2.64908e-05
-3.19007e-05
-2.30808e-05
-3.03729e-05
-1.91491e-05
-2.89326e-05
-1.50229e-05
-2.74802e-05
-1.10161e-05
-2.59732e-05
-7.34015e-06
-2.44112e-05
-4.09223e-06
-2.28094e-05
-1.26689e-06
-2.12624e-05
1.14439e-06
3.039e-06
-1.97689e-05
-2.07595e-05
-4.33351e-05
-3.72731e-05
-1.80881e-05
-4.81358e-05
1.11918e-06
-5.43525e-05
1.29849e-05
-5.72742e-05
1.61075e-05
-5.76642e-05
1.36661e-05
-5.54889e-05
8.70738e-06
-5.074e-05
8.33004e-07
-4.38247e-05
-9.93027e-06
-3.64724e-05
-2.14719e-05
-3.12292e-05
-2.9554e-05
-2.87273e-05
-3.17711e-05
-2.73966e-05
-3.03537e-05
-2.64879e-05
-2.73995e-05
-2.5812e-05
-2.37567e-05
-2.5202e-05
-1.97591e-05
-2.45329e-05
-1.5692e-05
-2.37316e-05
-1.18174e-05
-2.27815e-05
-8.29021e-06
-2.17082e-05
-5.1655e-06
-2.05349e-05
-2.44028e-06
-1.93456e-05
-4.4812e-08
1.85285e-06
-1.81594e-05
-1.71591e-05
-2.6176e-05
-3.06084e-05
-4.63879e-06
-3.97888e-05
1.02996e-05
-4.41684e-05
1.73645e-05
-4.56036e-05
1.75427e-05
-4.46738e-05
1.27363e-05
-4.14719e-05
5.50552e-06
-3.60468e-05
-4.59207e-06
-2.94323e-05
-1.65448e-05
-2.39221e-05
-2.6982e-05
-2.13384e-05
-3.21377e-05
-2.06092e-05
-3.25003e-05
-2.04517e-05
-3.05111e-05
-2.05153e-05
-2.7336e-05
-2.064e-05
-2.3632e-05
-2.07049e-05
-1.96942e-05
-2.05984e-05
-1.57985e-05
-2.02815e-05
-1.21343e-05
-1.97641e-05
-8.8077e-06
-1.90784e-05
-5.85117e-06
-1.82764e-05
-3.24226e-06
-1.73719e-05
-9.49373e-07
9.66381e-07
-1.64853e-05
-1.36051e-05
-1.2571e-05
-2.45927e-05
6.34865e-06
-3.15757e-05
1.72826e-05
-3.47054e-05
2.04941e-05
-3.49355e-05
1.77728e-05
-3.28935e-05
1.06943e-05
-2.87779e-05
1.38992e-06
-2.30056e-05
-1.03644e-05
-1.73354e-05
-2.2215e-05
-1.41891e-05
-3.01283e-05
-1.364e-05
-3.26869e-05
-1.40723e-05
-3.2068e-05
-1.47924e-05
-2.97911e-05
-1.55644e-05
-2.65639e-05
-1.62658e-05
-2.29306e-05
-1.67875e-05
-1.91725e-05
-1.70735e-05
-1.55125e-05
-1.71119e-05
-1.20959e-05
-1.69281e-05
-8.99148e-06
-1.65632e-05
-6.21612e-06
-1.60594e-05
-3.74607e-06
-1.54557e-05
-1.55306e-06
3.29276e-07
-1.48185e-05
-1.02907e-05
-2.28044e-06
-1.85823e-05
1.46402e-05
-2.38067e-05
2.25069e-05
-2.58184e-05
2.25057e-05
-2.50233e-05
1.69777e-05
-2.20745e-05
7.74546e-06
-1.71023e-05
-3.58226e-06
-1.14687e-05
-1.5998e-05
-7.63842e-06
-2.60453e-05
-6.81999e-06
-3.09468e-05
-7.59039e-06
-3.19166e-05
-8.83177e-06
-3.08266e-05
-1.01859e-05
-2.8437e-05
-1.14458e-05
-2.5304e-05
-1.2521e-05
-2.18555e-05
-1.33485e-05
-1.83451e-05
-1.39015e-05
-1.49595e-05
-1.42018e-05
-1.17957e-05
-1.42797e-05
-8.91356e-06
-1.41776e-05
-6.31828e-06
-1.393e-05
-3.99369e-06
-1.35744e-05
-1.90873e-06
-8.12271e-08
-1.31638e-05
-7.96523e-06
5.6846e-06
-1.26162e-05
1.9291e-05
-1.62834e-05
2.6174e-05
-1.7206e-05
2.34283e-05
-1.53965e-05
1.51681e-05
-1.1599e-05
3.94792e-06
-6.19319e-06
-8.98817e-06
-1.6831e-06
-2.05082e-05
-3.64103e-07
-2.73644e-05
-1.2512e-06
-3.00597e-05
-2.82674e-06
-3.03411e-05
-4.62961e-06
-2.90238e-05
-6.40097e-06
-2.66657e-05
-7.97848e-06
-2.37266e-05
-9.28964e-06
-2.05443e-05
-1.0306e-05
-1.73287e-05
-1.10443e-05
-1.42212e-05
-1.15317e-05
-1.13084e-05
-1.18126e-05
-8.63275e-06
-1.19236e-05
-6.20733e-06
-1.18986e-05
-4.01874e-06
-1.17672e-05
-2.04013e-06
-2.93003e-07
-1.15554e-05
-4.96943e-06
1.06539e-05
-7.5554e-06
2.18768e-05
-9.24468e-06
2.78632e-05
-8.96219e-06
2.31457e-05
-6.13309e-06
1.2339e-05
-1.13432e-06
-1.05091e-06
3.46719e-06
-1.35897e-05
5.20633e-06
-2.22474e-05
4.48148e-06
-2.66396e-05
2.86891e-06
-2.84472e-05
8.63196e-07
-2.83354e-05
-1.24549e-06
-2.69152e-05
-3.26107e-06
-2.46502e-05
-5.01302e-06
-2.19747e-05
-6.46259e-06
-1.90948e-05
-7.5994e-06
-1.6192e-05
-8.45436e-06
-1.33663e-05
-9.07908e-06
-1.06837e-05
-9.5184e-06
-8.19347e-06
-9.8054e-06
-5.92039e-06
-9.96346e-06
-3.86071e-06
-1.00136e-05
-1.99003e-06
-3.1261e-07
-9.994e-06
-1.78157e-06
1.24353e-05
-3.07113e-06
2.31663e-05
-3.27942e-06
2.80714e-05
-1.18156e-06
2.10477e-05
3.26652e-06
7.89082e-06
7.87592e-06
-5.66037e-06
9.8317e-06
-1.55456e-05
9.46939e-06
-2.18851e-05
8.06209e-06
-2.52323e-05
6.02483e-06
-2.641e-05
3.72933e-06
-2.604e-05
1.43838e-06
-2.46243e-05
-6.40218e-07
-2.25716e-05
-2.46816e-06
-2.01468e-05
-3.97139e-06
-1.75916e-05
-5.16879e-06
-1.49946e-05
-6.10419e-06
-1.2431e-05
-6.82808e-06
-9.95983e-06
-7.38929e-06
-7.63232e-06
-7.81842e-06
-5.49131e-06
-8.13352e-06
-3.54567e-06
-8.34764e-06
-1.77595e-06
-1.61008e-07
-8.49924e-06
4.71825e-07
1.19633e-05
6.06626e-07
2.30313e-05
2.05638e-06
2.66215e-05
6.4514e-06
1.66526e-05
1.08121e-05
3.53007e-06
1.32277e-05
-8.07607e-06
1.36086e-05
-1.59266e-05
1.25359e-05
-2.08124e-05
1.0646e-05
-2.33425e-05
8.33129e-06
-2.40954e-05
5.90948e-06
-2.36182e-05
3.59437e-06
-2.23092e-05
1.51414e-06
-2.04915e-05
-2.56671e-07
-1.8376e-05
-1.75131e-06
-1.60971e-05
-2.97497e-06
-1.3771e-05
-3.96025e-06
-1.14457e-05
-4.7607e-06
-9.15943e-06
-5.41377e-06
-6.97929e-06
-5.95875e-06
-4.9464e-06
-6.40911e-06
-3.09536e-06
-6.76747e-06
-1.41765e-06
1.23823e-07
-7.05232e-06
1.60114e-06
1.03621e-05
3.8041e-06
2.08283e-05
7.29118e-06
2.31344e-05
1.21357e-05
1.1808e-05
1.53977e-05
2.6802e-07
1.64679e-05
-9.14636e-06
1.59788e-05
-1.54375e-05
1.44288e-05
-1.92625e-05
1.22754e-05
-2.11892e-05
9.89155e-06
-2.17115e-05
7.51604e-06
-2.12428e-05
5.30627e-06
-2.00995e-05
3.34202e-06
-1.85273e-05
1.64385e-06
-1.66779e-05