/*--------------------------------*- C++ -*----------------------------------*\
| =========                 |                                                 |
| \\      /  F ield         | OpenFOAM: The Open Source CFD Toolbox           |
|  \\    /   O peration     | Version:  2312                                  |
|   \\  /    A nd           | Website:  www.openfoam.com                      |
|    \\/     M anipulation  |                                                 |
\*---------------------------------------------------------------------------*/
FoamFile
{
    version     2.0;
    format      ascii;
    arch        "LSB;label=32;scalar=64";
    class       volVectorField;
    location    "1.3";
    object      U;
}
// * * * * * * * * * * * * * * * * * * * * * * * * * * * * * * * * * * * * * //

dimensions      [0 1 -1 0 0 0 0];

internalField   nonuniform List<vector> 
2268
(
(0.0242403 -0.00922661 0)
(0.023889 -0.00169872 0)
(0.0312161 -0.00304903 0)
(0.0474656 -0.00476849 0)
(0.0705763 -0.00601448 0)
(0.0974638 -0.00644943 0)
(0.125127 -0.00617841 0)
(0.151053 -0.00531241 0)
(0.172891 -0.00396643 0)
(0.188318 -0.00220415 0)
(0.195227 -4.44227e-05 0)
(0.192051 0.00246918 0)
(0.178034 0.00496805 0)
(0.153837 0.00701661 0)
(0.122304 0.00817779 0)
(0.0879939 0.00814933 0)
(0.0559055 0.00706629 0)
(0.0295585 0.0052074 0)
(0.0109937 0.00319684 0)
(0.000661783 0.0013724 0)
(-0.00229598 8.6446e-05 0)
(-0.00285162 -0.00123384 0)
(0.0047059 0.00143469 0)
(0.0110505 -0.0143119 0)
(0.0129325 -0.00182843 0)
(0.021823 -0.00821547 0)
(0.0412074 -0.0141982 0)
(0.0664776 -0.0183255 0)
(0.094849 -0.0200165 0)
(0.123537 -0.019636 0)
(0.150246 -0.0175128 0)
(0.172727 -0.0137601 0)
(0.188679 -0.00844476 0)
(0.195954 -0.00178358 0)
(0.192828 0.00575406 0)
(0.178455 0.0133819 0)
(0.153504 0.0199416 0)
(0.120831 0.0240141 0)
(0.085283 0.0245507 0)
(0.0521256 0.0217618 0)
(0.0251221 0.01648 0)
(0.00637155 0.010655 0)
(-0.00386926 0.00518665 0)
(-0.00693663 0.00104227 0)
(-0.00647129 -0.00223589 0)
(-0.00150314 -0.000547286 0)
(-0.00787922 -0.0161679 0)
(-0.00668463 -0.00516983 0)
(0.00338761 -0.015735 0)
(0.0273306 -0.0254698 0)
(0.0562946 -0.0316192 0)
(0.0875649 -0.0337844 0)
(0.118446 -0.032718 0)
(0.146957 -0.0289862 0)
(0.171015 -0.0226704 0)
(0.188249 -0.0138023 0)
(0.19634 -0.00277056 0)
(0.19354 0.009605 0)
(0.178868 0.022213 0)
(0.152702 0.0331171 0)
(0.118016 0.0399426 0)
(0.0802045 0.0406589 0)
(0.045227 0.035853 0)
(0.0174079 0.0267692 0)
(-0.00106841 0.0167942 0)
(-0.0104055 0.00764167 0)
(-0.012087 0.000922274 0)
(-0.00924715 -0.00368728 0)
(-0.00398754 -0.00266315 0)
(-0.0287944 -0.00744725 0)
(-0.0345902 -0.00662458 0)
(-0.0236616 -0.0241205 0)
(0.00611801 -0.0390794 0)
(0.0397948 -0.0472976 0)
(0.0748775 -0.0497314 0)
(0.108898 -0.0478622 0)
(0.140185 -0.0424181 0)
(0.166833 -0.0333261 0)
(0.186394 -0.0204197 0)
(0.196384 -0.00420515 0)
(0.194918 0.0141183 0)
(0.180624 0.0329488 0)
(0.15345 0.0495639 0)
(0.116293 0.0604674 0)
(0.0756149 0.0622178 0)
(0.0385907 0.054798 0)
(0.0102725 0.0406376 0)
(-0.00707782 0.0253526 0)
(-0.0143279 0.0114787 0)
(-0.0136209 0.000325603 0)
(-0.00921128 -0.00700471 0)
(-0.00544475 -0.00790815 0)
(-0.0507848 0.016258 0)
(-0.0649615 -0.00448621 0)
(-0.0508768 -0.0360169 0)
(-0.0155954 -0.0559419 0)
(0.0233191 -0.0652615 0)
(0.0619012 -0.0670067 0)
(0.0989464 -0.0638095 0)
(0.133186 -0.0564733 0)
(0.162994 -0.044684 0)
(0.185832 -0.0280551 0)
(0.198752 -0.00703329 0)
(0.199618 0.0167823 0)
(0.186329 0.0412824 0)
(0.158121 0.0624343 0)
(0.117603 0.0747708 0)
(0.072901 0.0714526 0)
(0.0359296 0.0559919 0)
(0.0112943 0.0376197 0)
(-0.00129552 0.020673 0)
(-0.00543049 0.00590758 0)
(-0.00630419 -0.00518878 0)
(-0.00693639 -0.0108732 0)
(-0.00694298 -0.00947886 0)
(-0.0692534 0.0358226 0)
(-0.0801671 -0.0206728 0)
(-0.0612215 -0.0556139 0)
(-0.0225392 -0.0766852 0)
(0.0184642 -0.0855555 0)
(0.0585616 -0.0861756 0)
(0.0974286 -0.0814462 0)
(0.133779 -0.0722645 0)
(0.166094 -0.0577438 0)
(0.192261 -0.0368941 0)
(0.209316 -0.0104462 0)
(0.214684 0.0185828 0)
(0.204908 0.0498683 0)
(0.178726 0.077505 0)
(0.142785 0.0924868 0)
(0.109782 0.0914881 0)
(0.0909581 0.0794396 0)
(0.0902955 0.0588715 0)
(0.103229 0.0377802 0)
(0.108952 0.0199508 0)
(0.0822978 0.00625837 0)
(0.0235938 -0.00124604 0)
(0.0136716 -0.0253773 0)
(-0.0442734 0.103504 0)
(-0.0575788 0.00212786 0)
(-0.0429221 -0.0672937 0)
(-0.00543398 -0.092931 0)
(0.0347292 -0.102778 0)
(0.0720476 -0.103833 0)
(0.110854 -0.0985624 0)
(0.149136 -0.0883012 0)
(0.184611 -0.0728678 0)
(0.214382 -0.0505372 0)
(0.235097 -0.0197831 0)
(0.244864 0.0202388 0)
(0.240523 0.0603898 0)
(0.225375 0.0902901 0)
(0.211926 0.111288 0)
(0.218288 0.118329 0)
(0.228026 0.0863801 0)
(0.250291 0.0479408 0)
(0.27719 0.0214458 0)
(0.293526 0.015063 0)
(0.294303 0.0207416 0)
(0.254918 0.0306733 0)
(0.198466 0.0266933 0)
(0.0342807 0.0784956 0)
(0.143345 -0.00408169 0)
(0.151584 -0.0672126 0)
(0.121225 -0.0981076 0)
(0.0907862 -0.113931 0)
(0.100551 -0.119752 0)
(0.133584 -0.116254 0)
(0.171946 -0.104704 0)
(0.211769 -0.0840437 0)
(0.245723 -0.0541396 0)
(0.270878 -0.018873 0)
(0.28498 0.019551 0)
(0.287745 0.0583208 0)
(0.285909 0.0967783 0)
(0.28525 0.120932 0)
(0.300575 0.0999351 0)
(0.336959 0.0586932 0)
(0.366806 0.0287587 0)
(0.383646 0.0120755 0)
(0.388882 0.0110906 0)
(0.382141 0.027837 0)
(0.336886 0.0720573 0)
(0.258308 0.188237 0)
(-0.0118141 -0.00797504 0)
(-0.0396162 0.0154557 0)
(-0.168454 0.0370713 0)
(-0.301772 0.00820804 0)
(-0.277689 -0.0127302 0)
(-0.251329 -0.0180579 0)
(-0.248268 -0.018912 0)
(-0.223775 -0.0174492 0)
(-0.165983 -0.0214955 0)
(-0.114469 -0.016261 0)
(-0.0772879 -0.00922274 0)
(-0.0600528 -0.00507384 0)
(-0.0622136 -0.00532751 0)
(-0.0584994 -0.00535507 0)
(-0.0649322 -0.00286147 0)
(-0.0699748 -0.00376474 0)
(-0.0576759 -0.00442239 0)
(-0.0645533 -0.00784075 0)
(0.0398782 0.00510948 0)
(-0.0970267 0.0301772 0)
(-0.155324 0.0559934 0)
(-0.173726 0.0633378 0)
(-0.137442 0.0314368 0)
(0.0170785 -0.0198859 0)
(0.0599511 0.00275875 0)
(-0.0272664 0.0215103 0)
(-0.121519 -0.0213521 0)
(-0.0874059 -0.0377486 0)
(-0.0932189 -0.0252678 0)
(-0.0803745 -0.01473 0)
(-0.0720143 -0.00252828 0)
(-0.0794191 0.00825956 0)
(-0.10582 0.00733354 0)
(-0.128074 0.0046595 0)
(-0.14324 0.00274717 0)
(-0.146583 -0.00221983 0)
(-0.14456 -0.0246587 0)
(-0.00225352 -0.014951 0)
(-0.176379 0.0945355 0)
(-0.246716 0.0805935 0)
(-0.213182 0.02985 0)
(-0.0878778 -0.0602202 0)
(0.0105255 -0.0695026 0)
(0.0506714 -0.0116809 0)
(0.100775 0.0367425 0)
(0.154145 0.0195037 0)
(0.0691273 -0.0185401 0)
(-0.0389905 -0.0162927 0)
(-0.0735303 -0.0134329 0)
(-0.0834576 -0.00759081 0)
(-0.105828 0.00973759 0)
(-0.167565 0.0212486 0)
(-0.220317 0.0124931 0)
(-0.24004 0.00826449 0)
(-0.226859 -0.016225 0)
(-0.171964 -0.0599692 0)
(-0.0484832 -0.0667135 0)
(-0.221941 0.192361 0)
(-0.282088 0.0908699 0)
(-0.223879 -0.0168294 0)
(-0.0977461 -0.10073 0)
(-0.0201472 -0.079655 0)
(0.00108587 -0.0296376 0)
(0.0207103 -0.00416364 0)
(0.0727786 -0.00852013 0)
(0.127508 0.0286135 0)
(0.0178197 0.0257515 0)
(-0.0739737 -0.00034659 0)
(-0.10456 0.0131398 0)
(-0.151484 0.0493296 0)
(-0.198031 0.0498037 0)
(-0.240566 0.0262219 0)
(-0.250917 0.00235816 0)
(-0.213266 -0.0438917 0)
(-0.151094 -0.0949705 0)
(-0.0584966 -0.120437 0)
(-0.225133 0.270581 0)
(-0.251293 0.0837595 0)
(-0.163503 -0.0677056 0)
(-0.0653245 -0.148164 0)
(0.0129196 -0.097984 0)
(0.0403293 -0.0285021 0)
(-0.0142046 -0.0129166 0)
(-0.0279618 -0.0331185 0)
(-0.00791308 0.0314725 0)
(-0.0528132 0.0707585 0)
(-0.164322 0.044105 0)
(-0.182476 0.0290241 0)
(-0.126996 0.0469869 0)
(-0.0601144 0.0647808 0)
(-0.0707435 0.0413721 0)
(-0.110847 0.00657499 0)
(-0.0810063 -0.0627543 0)
(-0.073211 -0.107724 0)
(-0.033288 -0.154872 0)
(-0.175989 0.379074 0)
(-0.177951 0.106526 0)
(-0.0793768 -0.108654 0)
(-0.0119548 -0.180276 0)
(0.063143 -0.131208 0)
(0.175471 -0.0325452 0)
(0.211168 0.0431396 0)
(-0.133901 0.00399053 0)
(-0.153494 0.0437148 0)
(-0.151643 0.07893 0)
(-0.172034 0.0522904 0)
(-0.141244 0.00717236 0)
(-0.07331 -0.00200583 0)
(-0.00992712 0.0253978 0)
(0.0507748 0.037086 0)
(0.0539403 0.0167252 0)
(0.0686781 -0.0565775 0)
(0.00040982 -0.103969 0)
(0.024517 -0.169891 0)
(-0.106186 0.432875 0)
(-0.043489 0.0882829 0)
(-0.00429934 -0.146146 0)
(0.0636743 -0.20271 0)
(0.0583881 -0.154239 0)
(0.0633716 -0.103346 0)
(0.223993 0.108778 0)
(-0.0540882 0.0790128 0)
(-0.144528 0.0592054 0)
(-0.165315 0.0745849 0)
(-0.14702 0.0443431 0)
(-0.0813731 -0.0201698 0)
(-0.0266428 -0.0262718 0)
(0.00752442 0.0024838 0)
(0.0591372 0.0181483 0)
(0.0829563 0.00779611 0)
(0.121558 -0.0439499 0)
(0.0485585 -0.0851522 0)
(0.0471022 -0.150792 0)
(-0.0408584 0.444705 0)
(0.0922205 0.0660514 0)
(0.0579641 -0.162973 0)
(0.116977 -0.214748 0)
(0.102733 -0.139968 0)
(0.0622177 -0.116417 0)
(0.198797 0.141364 0)
(0.0776369 0.151062 0)
(-0.0518095 0.0883659 0)
(-0.108618 0.0639049 0)
(-0.0934567 0.0155458 0)
(-0.0337327 -0.0472015 0)
(-0.00885299 -0.0416657 0)
(0.00814023 -0.00634291 0)
(0.0431932 -0.00241255 0)
(0.0722285 -0.0103947 0)
(0.106573 -0.0414525 0)
(0.0744959 -0.0730468 0)
(0.0643467 -0.11752 0)
(0.134273 -0.0106897 0)
(0.245962 -0.0363127 0)
(0.277153 -0.0644114 0)
(0.272509 -0.0810786 0)
(0.247315 -0.0972372 0)
(0.211136 -0.120091 0)
(0.186257 -0.136321 0)
(0.19548 -0.14368 0)
(0.233466 -0.136628 0)
(0.2787 -0.112371 0)
(0.313437 -0.0697192 0)
(0.326255 -0.0132969 0)
(0.327272 0.0532322 0)
(0.336017 0.0956193 0)
(0.368091 0.0907557 0)
(0.408898 0.0695803 0)
(0.438477 0.0428964 0)
(0.451992 0.0208014 0)
(0.45688 0.00896875 0)
(0.459033 0.0108299 0)
(0.463259 0.0307407 0)
(0.478767 0.0812748 0)
(0.500198 0.200196 0)
(0.15909 -0.317679 0)
(0.356098 -0.150908 0)
(0.46754 -0.0540352 0)
(0.45537 -0.045894 0)
(0.405647 -0.0573639 0)
(0.336268 -0.0704376 0)
(0.259802 -0.0960993 0)
(0.195296 -0.127951 0)
(0.161142 -0.140833 0)
(0.159929 -0.110247 0)
(0.184812 -0.0489811 0)
(0.232462 0.0132809 0)
(0.29674 0.0472865 0)
(0.370447 0.0537298 0)
(0.439555 0.0489295 0)
(0.493388 0.0375362 0)
(0.528725 0.0233177 0)
(0.548541 0.0116292 0)
(0.557524 0.00534593 0)
(0.559532 0.0076214 0)
(0.552706 0.0263259 0)
(0.535904 0.068858 0)
(0.513354 0.136719 0)
(0.0947311 -0.554945 0)
(0.291347 -0.377611 0)
(0.476125 -0.197768 0)
(0.621277 -0.0458022 0)
(0.663502 0.052679 0)
(0.571164 0.0484948 0)
(0.414412 -0.0016475 0)
(0.265485 -0.0742732 0)
(0.200157 -0.127026 0)
(0.194737 -0.143235 0)
(0.223511 -0.131181 0)
(0.276119 -0.103725 0)
(0.347664 -0.0737485 0)
(0.425803 -0.0495263 0)
(0.494592 -0.028902 0)
(0.543769 -0.0152081 0)
(0.572309 -0.00845672 0)
(0.58398 -0.0054322 0)
(0.580476 -0.000226603 0)
(0.560503 0.0163194 0)
(0.525307 0.0512635 0)
(0.481225 0.103679 0)
(0.447656 0.177899 0)
(0.0576513 -0.709875 0)
(0.211126 -0.546424 0)
(0.345958 -0.375479 0)
(0.4932 -0.235444 0)
(0.66741 -0.0540893 0)
(0.789571 0.151768 0)
(0.718237 0.187649 0)
(0.57977 0.130657 0)
(0.358263 -0.0501195 0)
(0.287117 -0.139611 0)
(0.274037 -0.146953 0)
(0.293201 -0.134332 0)
(0.339514 -0.124969 0)
(0.400356 -0.110497 0)
(0.458912 -0.0777705 0)
(0.499444 -0.0454431 0)
(0.516706 -0.0205353 0)
(0.50827 0.000896206 0)
(0.479125 0.0260437 0)
(0.436935 0.0603806 0)
(0.390993 0.10288 0)
(0.349569 0.147433 0)
(0.33011 0.213241 0)
(0.0331598 -0.826882 0)
(0.146672 -0.659997 0)
(0.221383 -0.46507 0)
(0.274899 -0.36515 0)
(0.390526 -0.220451 0)
(0.625359 0.080824 0)
(0.69411 0.23593 0)
(0.660506 0.275263 0)
(0.591622 0.153284 0)
(0.487265 -0.0388386 0)
(0.388215 -0.109054 0)
(0.327714 -0.151818 0)
(0.330601 -0.179949 0)
(0.354901 -0.168217 0)
(0.379685 -0.121429 0)
(0.386532 -0.0660482 0)
(0.369685 -0.0141932 0)
(0.341048 0.0278844 0)
(0.309918 0.0696018 0)
(0.276298 0.108366 0)
(0.247563 0.140161 0)
(0.223304 0.167332 0)
(0.226063 0.223005 0)
(0.00681195 -0.902474 0)
(0.0837691 -0.731531 0)
(0.127096 -0.485278 0)
(0.124368 -0.42468 0)
(0.174163 -0.335041 0)
(0.291776 -0.135893 0)
(0.453482 0.129482 0)
(0.531441 0.22697 0)
(0.545675 0.125958 0)
(0.497428 0.0667643 0)
(0.393604 -0.00762516 0)
(0.312763 -0.105573 0)
(0.276952 -0.159166 0)
(0.256154 -0.152563 0)
(0.237683 -0.0961809 0)
(0.211043 -0.0308965 0)
(0.188386 0.0203696 0)
(0.169373 0.054829 0)
(0.164351 0.0990032 0)
(0.152082 0.132621 0)
(0.14712 0.152972 0)
(0.143982 0.168817 0)
(0.160656 0.216352 0)
(-0.0223713 -0.921481 0)
(0.00513918 -0.767617 0)
(0.0158127 -0.480673 0)
(0.00473683 -0.464283 0)
(0.0230865 -0.417255 0)
(0.103092 -0.254762 0)
(0.248283 0.0130782 0)
(0.35557 0.147486 0)
(0.431221 0.142649 0)
(0.423091 0.181621 0)
(0.284073 0.0927954 0)
(0.212041 -0.0527549 0)
(0.177369 -0.111611 0)
(0.120666 -0.112598 0)
(0.0857523 -0.0633446 0)
(0.061593 -0.00689287 0)
(0.0566123 0.0342711 0)
(0.053558 0.0618318 0)
(0.066489 0.108106 0)
(0.0739327 0.130724 0)
(0.0919802 0.145016 0)
(0.103496 0.157779 0)
(0.130656 0.193797 0)
(-0.0429145 -0.886137 0)
(-0.0616035 -0.754328 0)
(-0.0616391 -0.468317 0)
(-0.0937305 -0.451339 0)
(-0.108546 -0.413047 0)
(-0.123598 -0.307892 0)
(-0.0202279 -0.0728836 0)
(0.0914404 0.0200549 0)
(0.138089 0.0708487 0)
(0.224918 0.204935 0)
(0.194666 0.147747 0)
(0.127758 -0.029475 0)
(0.105548 -0.0595334 0)
(0.0254857 -0.0520106 0)
(-0.0120585 -0.0270004 0)
(-0.0214684 0.0015382 0)
(-0.0200501 0.0260051 0)
(-0.0139696 0.045301 0)
(0.00206531 0.0814167 0)
(0.0205691 0.0989055 0)
(0.0498191 0.11436 0)
(0.0769705 0.125097 0)
(0.120934 0.143803 0)
(-0.0502127 -0.825283 0)
(-0.0842711 -0.721254 0)
(-0.0722147 -0.467857 0)
(-0.104714 -0.414895 0)
(-0.134305 -0.387244 0)
(-0.14643 -0.292397 0)
(-0.113021 -0.17242 0)
(-0.0195491 -0.0635618 0)
(0.035944 0.0154991 0)
(0.123804 0.185303 0)
(0.140911 0.170354 0)
(0.0695896 0.020294 0)
(0.0373997 -0.0149642 0)
(0.0110359 -0.0132059 0)
(-0.0389676 -0.0137984 0)
(-0.0691324 -0.00177185 0)
(-0.0817495 0.011279 0)
(-0.0840532 0.0274939 0)
(-0.0666202 0.0507509 0)
(-0.0374332 0.0652068 0)
(-0.00107276 0.0800231 0)
(0.0376235 0.0901362 0)
(0.0901549 0.100319 0)
(-0.0467501 -0.764023 0)
(-0.075639 -0.700456 0)
(-0.033609 -0.49084 0)
(-0.0481708 -0.376259 0)
(-0.0867932 -0.378092 0)
(-0.100714 -0.315975 0)
(-0.0895317 -0.22935 0)
(-0.0610811 -0.134028 0)
(-0.0399125 -0.0413543 0)
(0.0393092 0.115327 0)
(0.112034 0.166242 0)
(0.0731476 0.0674978 0)
(0.0126242 0.0271991 0)
(-0.0492339 0.0468952 0)
(-0.103678 0.045169 0)
(-0.138329 0.0356487 0)
(-0.147965 0.0322621 0)
(-0.138656 0.0369132 0)
(-0.115177 0.0473846 0)
(-0.0791407 0.0577247 0)
(-0.0330462 0.0652326 0)
(0.0294727 0.0646486 0)
(0.133383 0.0358295 0)
(-0.0386791 -0.71622 0)
(-0.046966 -0.701764 0)
(-0.00411883 -0.543526 0)
(0.0410857 -0.334383 0)
(0.0089438 -0.34242 0)
(-0.00513913 -0.291606 0)
(-0.0140155 -0.222995 0)
(-0.0380091 -0.139885 0)
(-0.0586596 -0.0622589 0)
(-0.041612 0.0483694 0)
(0.0202997 0.124497 0)
(0.0230893 0.101431 0)
(-0.0246012 0.0891435 0)
(-0.0869281 0.090155 0)
(-0.138626 0.0727487 0)
(-0.168452 0.0451432 0)
(-0.151786 0.020844 0)
(-0.112731 0.00527062 0)
(-0.0625891 -0.00822122 0)
(0.00299006 -0.0186415 0)
(0.110019 -0.042203 0)
(0.279179 -0.0922183 0)
(0.34504 -0.140272 0)
(-0.0276734 -0.687379 0)
(-0.00880513 -0.71312 0)
(0.0124962 -0.62066 0)
(0.129688 -0.382169 0)
(0.159055 -0.31939 0)
(0.172426 -0.264247 0)
(0.16829 -0.183518 0)
(0.116828 -0.0732971 0)
(0.0800701 -0.000103118 0)
(0.0839477 0.0570498 0)
(0.143393 0.121916 0)
(0.231611 0.140162 0)
(0.302219 0.142784 0)
(0.389271 0.162166 0)
(0.447974 0.168218 0)
(0.439272 0.0635548 0)
(0.309555 -0.0589484 0)
(0.315826 -0.106032 0)
(0.178348 -0.109841 0)
(0.129174 -0.15831 0)
(0.090562 -0.267623 0)
(-0.0109566 -0.0987004 0)
(-0.112118 0.164209 0)
(-0.0110756 -0.681836 0)
(0.0356143 -0.733386 0)
(0.0549797 -0.689448 0)
(0.165211 -0.5069 0)
(0.2791 -0.399153 0)
(0.371094 -0.318345 0)
(0.459612 -0.216655 0)
(0.538066 -0.094376 0)
(0.582923 -0.0358787 0)
(0.630111 -0.0313053 0)
(0.741523 -0.0540681 0)
(0.912129 -0.0902814 0)
(1.08883 -0.117847 0)
(1.22483 -0.124319 0)
(1.48335 -0.0490231 0)
(2.21723 0.378267 0)
(1.54283 0.204017 0)
(1.07639 0.140084 0)
(0.707245 0.173576 0)
(0.366974 0.140023 0)
(0.0853812 0.0862664 0)
(-0.0774585 0.0809554 0)
(-0.134237 0.100883 0)
(0.0133291 -0.712957 0)
(0.0835356 -0.775061 0)
(0.121469 -0.744604 0)
(0.19765 -0.617133 0)
(0.292708 -0.522271 0)
(0.388496 -0.445205 0)
(0.488544 -0.360432 0)
(0.60689 -0.233618 0)
(0.777842 -0.068009 0)
(0.875522 -0.1021 0)
(0.994418 -0.195534 0)
(1.09627 -0.262214 0)
(1.18713 -0.300497 0)
(1.25782 -0.326023 0)
(1.35276 -0.293875 0)
(1.38956 0.376941 0)
(0.860683 0.539424 0)
(0.581661 0.58831 0)
(0.323489 0.503492 0)
(0.186692 0.348118 0)
(0.0721903 0.202074 0)
(-0.0137445 0.157083 0)
(-0.0492952 0.146535 0)
(0.0406693 -0.790627 0)
(0.1289 -0.842003 0)
(0.187372 -0.803711 0)
(0.25226 -0.700616 0)
(0.317947 -0.598519 0)
(0.374078 -0.510434 0)
(0.424283 -0.43129 0)
(0.488054 -0.353806 0)
(0.583054 -0.282446 0)
(0.74985 -0.306711 0)
(0.883618 -0.342885 0)
(0.998917 -0.364488 0)
(1.07874 -0.360482 0)
(1.1893 -0.404181 0)
(0.883173 0.17343 0)
(0.369682 0.731271 0)
(0.192747 0.863595 0)
(0.0994481 0.776248 0)
(0.0712546 0.601906 0)
(0.0677144 0.417737 0)
(0.0412201 0.274974 0)
(0.0093807 0.204107 0)
(-0.00795724 0.167951 0)
(0.058472 -0.885329 0)
(0.155453 -0.913822 0)
(0.226884 -0.863941 0)
(0.291205 -0.761334 0)
(0.34623 -0.651219 0)
(0.386614 -0.552685 0)
(0.415657 -0.474879 0)
(0.452604 -0.414322 0)
(0.533808 -0.384429 0)
(0.629427 -0.409854 0)
(0.734243 -0.452898 0)
(0.8279 -0.460522 0)
(0.936642 -0.502671 0)
(0.114777 0.162436 0)
(-0.221837 0.676004 0)
(-0.282945 0.917853 0)
(-0.238554 0.882933 0)
(-0.165338 0.742742 0)
(-0.0738408 0.572568 0)
(-0.0226418 0.410207 0)
(-0.00785251 0.290213 0)
(-0.0114049 0.221432 0)
(-0.0144272 0.180647 0)
(0.065705 -0.972064 0)
(0.168624 -0.982468 0)
(0.249099 -0.922495 0)
(0.315977 -0.810105 0)
(0.369893 -0.686781 0)
(0.412611 -0.574698 0)
(0.446471 -0.483512 0)
(0.439962 -0.419866 0)
(0.521401 -0.441124 0)
(0.556819 -0.445912 0)
(0.563299 -0.573167 0)
(0.418363 -0.518456 0)
(-0.358938 0.43417 0)
(-0.486324 0.530169 0)
(-0.561098 0.726642 0)
(-0.530843 0.810845 0)
(-0.419968 0.742424 0)
(-0.280835 0.628299 0)
(-0.167327 0.489645 0)
(-0.0970733 0.367775 0)
(-0.0620539 0.276291 0)
(-0.0475111 0.218592 0)
(-0.0392626 0.182117 0)
(0.0772463 -1.12251 0)
(0.184 -1.09073 0)
(0.250522 -1.00793 0)
(0.31164 -0.87849 0)
(0.358673 -0.735494 0)
(0.40156 -0.597739 0)
(0.446824 -0.491087 0)
(0.486703 -0.444605 0)
(0.482875 -0.537599 0)
(0.392603 -0.481282 0)
(0.0576295 -0.342565 0)
(-0.59427 0.365778 0)
(-0.694344 0.49339 0)
(-0.738975 0.596872 0)
(-0.720722 0.664924 0)
(-0.615636 0.655792 0)
(-0.467459 0.587445 0)
(-0.330389 0.493668 0)
(-0.223616 0.395897 0)
(-0.151886 0.312359 0)
(-0.108756 0.248022 0)
(-0.0838849 0.203859 0)
(-0.0677878 0.17416 0)
(0.0572476 -1.28147 0)
(0.130842 -1.17416 0)
(0.138057 -1.06368 0)
(0.144254 -0.920756 0)
(0.125505 -0.784541 0)
(0.110274 -0.681008 0)
(0.105748 -0.59054 0)
(0.06188 -0.50519 0)
(-0.0461283 -0.440468 0)
(-0.47931 -0.0186832 0)
(-0.765975 0.310059 0)
(-0.836399 0.404585 0)
(-0.866365 0.50602 0)
(-0.830031 0.548193 0)
(-0.746745 0.554281 0)
(-0.609781 0.512162 0)
(-0.469175 0.442455 0)
(-0.348459 0.373088 0)
(-0.255024 0.30905 0)
(-0.188401 0.25529 0)
(-0.143604 0.21296 0)
(-0.114055 0.181906 0)
(-0.0937194 0.159791 0)
(0.0260118 -1.34675 0)
(0.0405716 -1.19902 0)
(-0.030375 -1.04928 0)
(-0.0715246 -0.894158 0)
(-0.165369 -0.737178 0)
(-0.259658 -0.616214 0)
(-0.36066 -0.470933 0)
(-0.525427 -0.244825 0)
(-0.743435 0.00932201 0)
(-0.874048 0.160521 0)
(-0.921424 0.292512 0)
(-0.93803 0.408482 0)
(-0.908384 0.464008 0)
(-0.824777 0.462876 0)
(-0.709996 0.430778 0)
(-0.573696 0.373608 0)
(-0.451231 0.317794 0)
(-0.348866 0.271835 0)
(-0.269185 0.233155 0)
(-0.209676 0.20139 0)
(-0.166854 0.176031 0)
(-0.136241 0.156561 0)
(-0.114072 0.141885 0)
(-0.0111245 -1.33826 0)
(-0.0686829 -1.12022 0)
(-0.182747 -0.919898 0)
(-0.291227 -0.747453 0)
(-0.447973 -0.578775 0)
(-0.600125 -0.434171 0)
(-0.748541 -0.281545 0)
(-0.865787 -0.127187 0)
(-0.938728 0.0308193 0)
(-0.973642 0.188649 0)
(-0.979634 0.300747 0)
(-0.94703 0.370481 0)
(-0.874409 0.383711 0)
(-0.767752 0.352 0)
(-0.645535 0.301743 0)
(-0.524092 0.249687 0)
(-0.421276 0.21341 0)
(-0.33688 0.18747 0)
(-0.270185 0.168054 0)
(-0.218666 0.152722 0)
(-0.179655 0.140405 0)
(-0.1503 0.130606 0)
(-0.128331 0.122522 0)
(-0.0492134 -1.25716 0)
(-0.154574 -0.99724 0)
(-0.278208 -0.789167 0)
(-0.415681 -0.594962 0)
(-0.596703 -0.435214 0)
(-0.732512 -0.323052 0)
(-0.850367 -0.198638 0)
(-0.935514 -0.0581905 0)
(-0.977494 0.0791018 0)
(-0.983458 0.190524 0)
(-0.956061 0.268097 0)
(-0.892013 0.299063 0)
(-0.79614 0.281049 0)
(-0.682562 0.233131 0)
(-0.567485 0.181758 0)
(-0.466185 0.145815 0)
(-0.383268 0.12791 0)
(-0.315723 0.118473 0)
(-0.261393 0.113579 0)
(-0.218151 0.11046 0)
(-0.184097 0.107983 0)
(-0.157281 0.105718 0)
(-0.136532 0.103149 0)
(-0.0752462 -1.13378 0)
(-0.198264 -0.867441 0)
(-0.323028 -0.647729 0)
(-0.455872 -0.447637 0)
(-0.625175 -0.292826 0)
(-0.743924 -0.201131 0)
(-0.843995 -0.105398 0)
(-0.907497 -0.00462388 0)
(-0.932605 0.0905764 0)
(-0.920614 0.166549 0)
(-0.872944 0.20882 0)
(-0.792948 0.208642 0)
(-0.690161 0.171113 0)
(-0.581923 0.120034 0)
(-0.483617 0.0803223 0)
(-0.404946 0.0635684 0)
(-0.341141 0.0606094 0)
(-0.288907 0.0637289 0)
(-0.246002 0.0693262 0)
(-0.210811 0.0749599 0)
(-0.182024 0.0796233 0)
(-0.158432 0.0830825 0)
(-0.139595 0.08482 0)
(-0.0873189 -0.995405 0)
(-0.21348 -0.741793 0)
(-0.336521 -0.526405 0)
(-0.467516 -0.302715 0)
(-0.603452 -0.169214 0)
(-0.697452 -0.101097 0)
(-0.773406 -0.0341516 0)
(-0.818801 0.0310402 0)
(-0.832232 0.0893638 0)
(-0.809044 0.129159 0)
(-0.752025 0.13855 0)
(-0.668065 0.114144 0)
(-0.570416 0.0674767 0)
(-0.477497 0.0241078 0)
(-0.402397 0.00299841 0)
(-0.345571 0.00223269 0)
(-0.298708 0.00993155 0)
(-0.259608 0.0217155 0)
(-0.22663 0.0343824 0)
(-0.198844 0.0459048 0)
(-0.175262 0.0555314 0)
(-0.155098 0.063093 0)
(-0.1385 0.0680323 0)
(-0.0955543 -0.84838 0)
(-0.214002 -0.61122 0)
(-0.347833 -0.395855 0)
(-0.460477 -0.182672 0)
(-0.557111 -0.0723669 0)
(-0.622803 -0.0242399 0)
(-0.674875 0.0178473 0)
(-0.704995 0.0537434 0)
(-0.705418 0.0794448 0)
(-0.674618 0.0859983 0)
(-0.614958 0.0674268 0)
(-0.534829 0.0264909 0)
(-0.448925 -0.0213249 0)
(-0.378092 -0.0499591 0)
(-0.328729 -0.0520533 0)
(-0.289757 -0.0423561 0)
(-0.25698 -0.0273652 0)
(-0.229391 -0.00966364 0)
(-0.205467 0.00754535 0)
(-0.184144 0.0227812 0)
(-0.165223 0.0355918 0)
(-0.148491 0.0458569 0)
(-0.134276 0.0531132 0)
(-0.101086 -0.69808 0)
(-0.216269 -0.477594 0)
(-0.345138 -0.26754 0)
(-0.434289 -0.0965709 0)
(-0.49798 -0.00766575 0)
(-0.540961 0.0246131 0)
(-0.573446 0.0482413 0)
(-0.58592 0.062097 0)
(-0.574881 0.0609667 0)
(-0.538497 0.0405413 0)
(-0.478931 0.000261988 0)
(-0.405066 -0.0515886 0)
(-0.340124 -0.0897998 0)
(-0.297721 -0.0969893 0)
(-0.267213 -0.087095 0)
(-0.241503 -0.0711623 0)
(-0.220018 -0.0515199 0)
(-0.201054 -0.0313762 0)
(-0.183673 -0.0123316 0)
(-0.16792 0.00493922 0)
(-0.153273 0.0195118 0)
(-0.139638 0.0313765 0)
(-0.127693 0.0401832 0)
(-0.100909 -0.54778 0)
(-0.213172 -0.347369 0)
(-0.327859 -0.162856 0)
(-0.395809 -0.0317766 0)
(-0.434479 0.0334318 0)
(-0.461638 0.053557 0)
(-0.47691 0.06215 0)
(-0.475025 0.0569058 0)
(-0.454249 0.0345562 0)
(-0.413259 -0.00669333 0)
(-0.354636 -0.062377 0)
(-0.297437 -0.111515 0)
(-0.259067 -0.130126 0)
(-0.235599 -0.12351 0)
(-0.216789 -0.108425 0)
(-0.201138 -0.0890083 0)
(-0.187609 -0.0675766 0)
(-0.175147 -0.0460355 0)
(-0.163204 -0.0259884 0)
(-0.151482 -0.00844729 0)
(-0.140275 0.00682553 0)
(-0.129414 0.0195638 0)
(-0.119607 0.0292666 0)
(-0.0916825 -0.409816 0)
(-0.189539 -0.238845 0)
(-0.283051 -0.0899655 0)
(-0.33455 0.0142364 0)
(-0.367881 0.0601659 0)
(-0.384061 0.0682101 0)
(-0.388073 0.0623717 0)
(-0.376213 0.04088 0)
(-0.348514 0.00160105 0)
(-0.303825 -0.0547118 0)
(-0.253825 -0.113629 0)
(-0.217033 -0.148751 0)
(-0.198025 -0.151419 0)
(-0.185272 -0.138863 0)
(-0.174837 -0.121083 0)
(-0.166375 -0.100171 0)
(-0.158771 -0.0778546 0)
(-0.151275 -0.0559898 0)
(-0.143486 -0.035869 0)
(-0.135312 -0.0181376 0)
(-0.126839 -0.00293473 0)
(-0.118389 0.0100729 0)
(-0.110578 0.0202807 0)
(-0.0791841 -0.289226 0)
(-0.162828 -0.141635 0)
(-0.241862 -0.0218355 0)
(-0.281225 0.0539826 0)
(-0.304855 0.0793761 0)
(-0.311687 0.0733844 0)
(-0.307513 0.0534494 0)
(-0.288978 0.0175225 0)
(-0.25588 -0.0354322 0)
(-0.212769 -0.0985511 0)
(-0.175555 -0.149786 0)
(-0.157088 -0.167862 0)
(-0.149018 -0.162097 0)
(-0.143596 -0.146714 0)
(-0.139513 -0.127326 0)
(-0.13642 -0.105635 0)
(-0.133278 -0.0833028 0)
(-0.129525 -0.0618864 0)
(-0.124927 -0.0423671 0)
(-0.119504 -0.0251406 0)
(-0.113447 -0.0101911 0)
(-0.107098 0.00262953 0)
(-0.101061 0.0130124 0)
(-0.0659875 -0.187444 0)
(-0.135177 -0.0614606 0)
(-0.199686 0.0327713 0)
(-0.232327 0.0815546 0)
(-0.246116 0.0906949 0)
(-0.245223 0.0713485 0)
(-0.234795 0.0383545 0)
(-0.211119 -0.0102286 0)
(-0.175015 -0.072839 0)
(-0.137991 -0.134239 0)
(-0.116193 -0.170218 0)
(-0.110355 -0.175496 0)
(-0.10906 -0.165597 0)
(-0.10921 -0.148639 0)
(-0.109925 -0.128521 0)
(-0.110726 -0.106866 0)
(-0.110787 -0.0852126 0)
(-0.109773 -0.0647737 0)
(-0.107589 -0.0462347 0)
(-0.10438 -0.0298172 0)
(-0.100359 -0.0154484 0)
(-0.0957258 -0.00295499 0)
(-0.0913028 0.00738478 0)
(-0.0528561 -0.104174 0)
(-0.107886 0.00518285 0)
(-0.15977 0.0753879 0)
(-0.185646 0.101494 0)
(-0.191914 0.0949173 0)
(-0.184695 0.063015 0)
(-0.169096 0.0184585 0)
(-0.140164 -0.040585 0)
(-0.10483 -0.1069 0)
(-0.0784797 -0.158242 0)
(-0.0714647 -0.177535 0)
(-0.072994 -0.175774 0)
(-0.0766666 -0.163759 0)
(-0.08103 -0.146129 0)
(-0.0851207 -0.126059 0)
(-0.0885994 -0.105103 0)
(-0.0909042 -0.0845999 0)
(-0.0918433 -0.0654375 0)
(-0.0914783 -0.0480673 0)
(-0.090017 -0.0326056 0)
(-0.0876695 -0.0189199 0)
(-0.084638 -0.00687571 0)
(-0.0816334 0.00323693 0)
(-0.0415325 -0.038482 0)
(-0.0790009 0.0617711 0)
(-0.123333 0.106845 0)
(-0.140356 0.11532 0)
(-0.141226 0.0931906 0)
(-0.12885 0.0492212 0)
(-0.108442 -0.00569077 0)
(-0.0751279 -0.0721538 0)
(-0.0452873 -0.134088 0)
(-0.0343667 -0.168259 0)
(-0.037027 -0.176106 0)
(-0.0431846 -0.170855 0)
(-0.0505794 -0.157911 0)
(-0.0578849 -0.140432 0)
(-0.0642499 -0.121089 0)
(-0.0694515 -0.101333 0)
(-0.073226 -0.0822486 0)
(-0.0755425 -0.0644654 0)
(-0.0765477 -0.0483115 0)
(-0.0764812 -0.0338343 0)
(-0.0755428 -0.02092 0)
(-0.0738834 -0.00941718 0)
(-0.0721309 0.000439487 0)
(-0.0351425 0.0106232 0)
(-0.0553863 0.093183 0)
(-0.0861154 0.131239 0)
(-0.0960336 0.123479 0)
(-0.0921355 0.0861988 0)
(-0.0748914 0.0306003 0)
(-0.04907 -0.0338884 0)
(-0.016011 -0.10167 0)
(-0.000383569 -0.148578 0)
(-0.00269024 -0.166845 0)
(-0.0101271 -0.169232 0)
(-0.0196094 -0.162263 0)
(-0.0294669 -0.149237 0)
(-0.038623 -0.132596 0)
(-0.0464493 -0.114532 0)
(-0.0527125 -0.0962729 0)
(-0.0574177 -0.0787082 0)
(-0.0606871 -0.0623038 0)
(-0.0627402 -0.0473179 0)
(-0.0637975 -0.0337899 0)
(-0.0640224 -0.021637 0)
(-0.0635202 -0.0107077 0)
(-0.062916 -0.00118089 0)
(-0.0217171 0.0509943 0)
(-0.0339156 0.112361 0)
(-0.0523059 0.146559 0)
(-0.0534072 0.125721 0)
(-0.0454262 0.0742776 0)
(-0.0213654 0.0102617 0)
(0.0091804 -0.0640069 0)
(0.0293758 -0.120928 0)
(0.0282282 -0.147594 0)
(0.021034 -0.158817 0)
(0.0107285 -0.159028 0)
(-0.000839776 -0.151451 0)
(-0.0122474 -0.138765 0)
(-0.0224304 -0.123456 0)
(-0.031064 -0.106995 0)
(-0.0379122 -0.0904225 0)
(-0.0432035 -0.0743823 0)
(-0.0471446 -0.0592812 0)
(-0.0499827 -0.0453569 0)
(-0.0519293 -0.0327018 0)
(-0.0531364 -0.0212635 0)
(-0.0536381 -0.0109109 0)
(-0.0540298 -0.00177476 0)
(-0.00968336 0.0636202 0)
(-0.0109645 0.123049 0)
(-0.0252324 0.152341 0)
(-0.0137716 0.121823 0)
(-0.000949993 0.0561195 0)
(0.0352002 -0.0219302 0)
(0.0517813 -0.0825561 0)
(0.0546046 -0.120013 0)
(0.0487296 -0.140736 0)
(0.038765 -0.14862 0)
(0.0266585 -0.147119 0)
(0.0139974 -0.13933 0)
(0.00197593 -0.127586 0)
(-0.00869424 -0.113724 0)
(-0.017565 -0.0989828 0)
(-0.0247529 -0.0841111 0)
(-0.0304012 -0.0695528 0)
(-0.0347835 -0.0556338 0)
(-0.0382041 -0.042647 0)
(-0.0408609 -0.0307601 0)
(-0.0428692 -0.0199813 0)
(-0.044257 -0.0101952 0)
(-0.0455656 -0.00143768 0)
(-0.00412614 0.0672628 0)
(0.00908616 0.12638 0)
(-0.0031637 0.151106 0)
(0.0239406 0.103713 0)
(0.0438787 0.0293092 0)
(0.0697191 -0.0387822 0)
(0.0752189 -0.0856815 0)
(0.0720648 -0.115811 0)
(0.0633828 -0.13157 0)
(0.0515496 -0.136644 0)
(0.0384534 -0.134164 0)
(0.0254912 -0.126708 0)
(0.0135603 -0.116186 0)
(0.0031322 -0.103973 0)
(-0.00568638 -0.0908996 0)
(-0.0129479 -0.077577 0)
(-0.0188259 -0.0643812 0)
(-0.0235148 -0.0515409 0)
(-0.0273472 -0.0393685 0)
(-0.0305434 -0.0281263 0)
(-0.0332372 -0.017912 0)
(-0.0353639 -0.00865486 0)
(-0.0374155 -0.000245135 0)
(-0.0021802 0.0619396 0)
(0.019412 0.12066 0)
(0.0192888 0.138133 0)
(0.0555186 0.0777248 0)
(0.0754154 0.00979612 0)
(0.0888028 -0.0469444 0)
(0.0894656 -0.085131 0)
(0.0829977 -0.108534 0)
(0.0724307 -0.120399 0)
(0.0598287 -0.123704 0)
(0.0467805 -0.12101 0)
(0.0343239 -0.114353 0)
(0.0230587 -0.105182 0)
(0.0132165 -0.0944951 0)
(0.00482004 -0.0829743 0)
(-0.00230597 -0.0710405 0)
(-0.00827447 -0.0589846 0)
(-0.0132147 -0.0471143 0)
(-0.0173545 -0.0356629 0)
(-0.0209459 -0.0249525 0)
(-0.0241932 -0.0152017 0)
(-0.0269703 -0.00639558 0)
(-0.0296856 0.00166548 0)
(-0.000313783 0.0522181 0)
(0.0216732 0.104848 0)
(0.0382582 0.113277 0)
(0.0744802 0.0523972 0)
(0.0913684 -0.00568 0)
(0.0978948 -0.0505861 0)
(0.0955013 -0.0809046 0)
(0.0874314 -0.0992918 0)
(0.0764453 -0.108513 0)
(0.0643577 -0.110941 0)
(0.0523301 -0.108571 0)
(0.0410767 -0.102906 0)
(0.0309331 -0.0950208 0)
(0.021968 -0.0856675 0)
(0.0141364 -0.0753829 0)
(0.00732317 -0.064585 0)
(0.00140826 -0.0535269 0)
(-0.00370302 -0.0424897 0)
(-0.00816928 -0.0316466 0)
(-0.0120742 -0.0213421 0)
(-0.015729 -0.0119363 0)
(-0.0190094 -0.00345736 0)
(-0.0223094 0.00424284 0)
(0.00241523 0.0411179 0)
(0.0220007 0.0812842 0)
(0.049673 0.0809372 0)