/*--------------------------------*- C++ -*----------------------------------*\
| =========                 |                                                 |
| \\      /  F ield         | OpenFOAM: The Open Source CFD Toolbox           |
|  \\    /   O peration     | Version:  2312                                  |
|   \\  /    A nd           | Website:  www.openfoam.com                      |
|    \\/     M anipulation  |                                                 |
\*---------------------------------------------------------------------------*/
FoamFile
{
    version     2.0;
    format      ascii;
    arch        "LSB;label=32;scalar=64";
    class       volScalarField;
    location    "4.3";
    object      alpha.galistan;
}
// * * * * * * * * * * * * * * * * * * * * * * * * * * * * * * * * * * * * * //

dimensions      [0 0 0 0 0 0 0];

internalField   nonuniform List<scalar> 
2268
(
1
1
1
1
1
1
1
1
1
1
1
1
1
1
1
1
1
1
1
0.999993
0.999957
0.999954
0.999954
1
1
1
1
1
1
1
1
1
1
1
1
1
1
1
1
1
1
1
1
0.999994
0.999979
0.999982
1
1
1
1
1
1
1
1
1
1
1
1
1
1
1
1
0.999999
0.999999
0.999999
1
1
1
1
1
1
1
1
1
1
1
1
1
1
1
1
1
1
1
1
1
1
1
1
1
1
0.998614
1
1
1
1
1
1
0.999999
0.999998
0.999986
0.999958
0.99996
0.999949
1
0.999997
0.997221
0.986092
0.973111
0.963803
0.95431
0.944095
0.932821
0.929813
0.922287
1
0.99997
0.99994
0.999963
0.999989
0.999941
0.999848
0.999546
0.987387
0.922725
0.832564
0.734071
0.621586
0.512656
0.419995
0.357498
0.321731
0.295479
0.277742
0.268355
0.259962
0.249878
0.234569
0.994225
0.989224
0.977288
0.951263
0.895666
0.800947
0.697631
0.553523
0.371411
0.230714
0.129061
0.0555523
0.0173814
0.00471637
0.000354304
0.000876217
-7.20732e-21
2.352e-20
-9.59063e-09
-2.58677e-08
1.82947e-08
0.000936472
0.0146658
0.588395
0.541791
0.438109
0.323445
0.211052
0.134932
0.0641681
0.0106445
2.14653e-05
2.07221e-05
2.13619e-05
3.04432e-05
3.02962e-05
6.85135e-06
3.93717e-06
8.25139e-05
7.79977e-05
3.72468e-05
1.18569e-05
4.69702e-05
4.96849e-05
5.24609e-05
0.000409993
0.958658
0.958757
0.958374
0.95823
0.956914
0.955531
0.956272
0.956274
0.956275
0.956224
0.957221
0.957527
0.961954
0.964727
0.964728
0.964728
0.96325
0.961712
0.961705
0.910388
0.958968
0.959069
0.959068
0.95907
0.941172
0.935348
0.933631
0.9466
0.95708
0.962056
0.961401
0.94307
0.934248
0.939637
0.948888
0.952248
0.954605
0.961742
0.639383
0.700009
0.709358
0.648374
0.569041
0.517687
0.512668
0.615518
0.651923
0.651708
0.656894
0.625412
0.546223
0.523889
0.53536
0.564617
0.592609
0.60858
0.609421
0.218817
0.145388
0.10799
0.0865307
0.0574016
0.0376198
0.0370708
0.0423012
0.203746
0.237935
0.178609
0.0968334
0.086362
0.0675864
0.0525441
0.0654787
0.0876281
0.14132
0.192129
0.00149682
0.00147659
0.00718713
0.0146595
0.0196045
0.0291259
0.032208
0.0278282
0.00762886
1.44724e-05
1.43434e-05
1.44725e-05
1.44524e-05
1.46305e-05
1.457e-05
1.83814e-05
1.82452e-05
0.000127745
0.000109423
0.00146514
0.00339111
0.000211652
0.000211597
0.000194822
0.00444736
0.0127322
0.0273771
0.0166763
0.00342574
1.43697e-05
0.000525572
0.000747497
0.000707587
0.00183111
0.00121523
0.00404635
0.00298986
0.000367526
0.00158794
0.00197218
0.000205579
0.000432487
0.000340357
2.02875e-05
1.99291e-05
0.00993129
0.0184336
0.00768837
9.37147e-05
0.00131474
0.00137592
0.00108478
0.0102901
0.0124436
0.00868049
0.0044299
0.00180517
0.000812488
0.00073346
0.000861106
0.00174308
0.000826916
8.41377e-05
4.72635e-05
0.00280794
0.010241
0.00477066
0.00127606
0.00217653
0.00186422
0.00113372
0.0151326
0.0150788
0.00451083
0.00456122
0.00169078
0.00944327
0.00180865
4.25897e-10
3.52077e-11
1.09507e-10
7.00217e-11
2.19142e-05
2.73307e-05
2.65049e-05
3.71112e-05
6.04548e-05
6.07555e-05
5.44831e-05
1.08921e-05
3.83849e-06
0.000434852
0.00113648
0.00112448
0.000793565
0.000858649
0.00108363
0.000996375
0.000420401
7.07663e-06
6.98819e-06
6.8944e-06
7.15206e-06
1.88108e-05
4.34963e-05
5.80626e-05
8.08449e-05
0.000132535
8.6365e-05
3.57996e-05
6.62596e-06
3.70552e-06
3.72575e-06
3.82064e-06
0.000920729
0.00217082
0.00219325
0.00183301
0.00149801
0.00238777
0.0048158
0.00495496
0.000152482
2.62883e-05
2.10567e-05
0.000131526
0.000877869
0.00125998
0.000992431
0.00058425
0.000177273
4.56841e-05
4.46233e-05
0.000245208
0.000426773
0.000253719
0.00101807
0.00178667
0.00181695
0.00347886
0.00583027
0.00583057
0.00583025
0.00546195
0.00511614
0.000616642
0.000440845
0.000492608
0.00153993
0.00259422
0.0025942
0.0025933
0.000913931
7.00564e-05
5.59729e-05
0.000486235
0.00111411
0.00111375
0.000785661
0.000384092
0.00126156
0.0019737
0.0022829
0.00113622
0.000853551
0.000759523
0.000793769
0.000880153
0.000616482
0.000547157
0.000935324
0.00175032
0.00217039
0.00224824
0.00112313
6.09211e-05
6.10941e-05
0.000191352
0.000329858
0.000206216
0.000119481
6.10606e-05
4.04718e-05
0.000324739
0.000513002
0.000174931
0.000152706
0.000170847
0.000167664
0.00012691
0.000123559
0.000283122
0.000177536
0.00017766
0.000250273
0.000219201
0.000216054
0.000281304
0.000136262
0.000111663
0.00010915
4.59355e-05
2.55411e-05
2.52758e-05
2.89875e-05
1.68774e-05
8.8422e-06
8.97658e-06
6.99648e-06
6.6761e-06
1.64007e-05
8.18486e-05
0.00010917
0.000123245
0.000181105
0.00018412
0.000317014
0.000405051
0.000427174
0.000378429
0.00041567
0.000549465
0.000549888
0.000538432
0.000192648
2.51802e-05
0.000130967
0.000471118
0.000604559
0.000503981
0.000472849
0.000182562
5.33244e-06
5.36025e-08
2.49402e-07
2.53291e-05
0.000154635
0.000555732
0.00055544
0.000546505
0.000521788
0.000530073
0.000447531
0.000218904
2.94082e-05
2.5294e-05
3.77263e-06
4.15374e-06
8.38809e-05
0.000592521
0.000879888
0.000924723
0.000971792
0.000972417
0.000960618
0.000151022
5.27752e-08
5.29738e-08
5.07698e-07
8.0192e-05
0.00029243
0.00016975
6.07141e-05
-3.27197e-09
7.15169e-06
1.70712e-10
1.80481e-10
1.70706e-10
1.03356e-08
1.30639e-06
4.63978e-06
6.01027e-06
8.69001e-08
1.02979e-05
6.53519e-05
0.000209051
0.000370952
0.000467957
0.000273637
2.68676e-05
1.03913e-05
6.3124e-06
1.70966e-05
-1.96723e-21
-1.77539e-22
-1.07598e-25
5.33834e-25
3.80151e-14
1.90195e-09
3.01979e-09
1.42561e-09
1.77744e-09
7.53285e-08
4.02165e-08
3.88278e-08
4.90213e-08
3.76631e-08
3.98805e-08
3.77574e-08
4.06259e-08
1.70483e-06
7.51542e-05
6.11434e-05
3.56517e-05
1.62264e-05
9.99187e-06
4.52482e-11
3.69913e-10
1.08003e-09
2.54209e-09
6.45052e-09
4.51633e-08
6.04442e-08
7.06385e-08
1.02917e-07
2.4422e-07
2.45039e-07
1.24819e-07
9.95347e-08
1.51837e-07
2.07518e-07
3.98803e-08
2.3169e-07
9.79801e-07
3.85956e-07
8.26225e-06
9.80481e-06
4.76223e-06
4.73544e-06
7.72364e-10
1.70891e-09
2.27043e-09
2.4568e-09
5.12172e-08
1.74969e-07
9.23857e-08
2.13826e-07
2.11933e-07
1.99325e-07
7.44258e-08
1.67763e-07
2.42633e-07
6.71588e-07
6.72305e-07
6.21167e-07
2.61843e-07
5.51304e-07
3.89705e-07
7.58037e-07
5.94067e-07
3.80114e-07
6.31563e-08
1.39437e-09
2.38601e-09
3.08715e-09
3.96371e-09
1.17193e-07
1.74933e-07
9.46979e-08
2.96505e-08
5.05096e-08
5.75598e-08
1.55597e-08
2.64678e-07
8.53682e-07
1.00669e-06
2.73546e-07
5.71774e-08
5.24154e-08
1.90792e-07
4.97509e-07
4.35211e-07
9.506e-08
1.56436e-09
1.58345e-09
1.43268e-09
2.91758e-09
9.17172e-09
2.67888e-08
4.66174e-08
2.76329e-08
5.83162e-09
2.6002e-08
4.42246e-08
1.6275e-08
1.58122e-08
6.44965e-07
9.96736e-07
9.9669e-07
2.34422e-07
2.52742e-08
4.94662e-07
1.47802e-06
1.50325e-06
1.27276e-06
2.60706e-07
1.62056e-09
1.29188e-07
1.34401e-09
2.64208e-09
6.55816e-09
4.42363e-09
1.85175e-09
1.67462e-09
5.77518e-09
1.41738e-08
1.25335e-08
4.5658e-09
1.84115e-08
2.66851e-07
4.4165e-07
1.64689e-07
7.58013e-08
2.69248e-07
1.29771e-06
1.61262e-06
1.61036e-06
7.19814e-07
5.27845e-08
7.19628e-08
3.29988e-07
1.18839e-09
1.88785e-09
3.04059e-09
1.78766e-09
1.64169e-09
2.10588e-09
5.78081e-09
1.89024e-09
1.8906e-09
4.58891e-09
2.05972e-08
4.02658e-10
4.00188e-10
4.02656e-10
4.80291e-09
1.60135e-07
6.42726e-07
1.51829e-06
1.3887e-06
3.42013e-07
4.39125e-08
6.04341e-08
1.87665e-07
1.01607e-09
1.30688e-09
1.75844e-09
1.55311e-09
1.68258e-09
2.16009e-09
1.52506e-09
1.89041e-09
3.86979e-09
5.24041e-09
1.24491e-09
4.08828e-10
6.9257e-10
2.09537e-09
6.79155e-09
1.11685e-08
2.46404e-09
5.77131e-08
7.09617e-07
8.63693e-07
4.90882e-07
2.61544e-08
6.33182e-08
8.67402e-10
8.90262e-10
1.18426e-09
1.25808e-09
1.50004e-09
1.64161e-09
1.52542e-09
2.32304e-09
3.20685e-09
2.6429e-09
6.04219e-10
4.8618e-10
5.70003e-10
7.92139e-10
7.76525e-10
6.72409e-10
4.65189e-10
4.3878e-10
6.32046e-08
7.79474e-07
7.90213e-07
3.2156e-07
1.46201e-08
8.18957e-10
6.60401e-10
8.72877e-10
9.96663e-10
1.22976e-09
1.28708e-09
1.21382e-09
1.28362e-09
1.215e-09
8.89092e-10
5.54992e-10
4.61745e-10
5.15978e-10
6.37547e-10
6.35663e-10
4.45575e-10
4.5343e-10
4.39857e-10
4.38375e-10
5.55703e-08
4.53044e-07
4.6827e-07
5.74925e-08
7.50674e-10
4.60913e-10
6.11038e-10
6.93438e-10
7.99501e-10
7.91756e-10
7.12511e-10
5.97565e-10
4.96731e-10
4.19361e-10
3.50878e-10
3.12323e-10
2.82436e-10
2.83974e-10
3.23437e-10
3.92632e-10
4.70439e-10
6.03413e-10
7.42311e-10
7.535e-10
5.55533e-09
1.69454e-07
8.87436e-08
7.13811e-10
3.21701e-10
3.86772e-10
4.09907e-10
4.05594e-10
3.69959e-10
3.15431e-10
2.62687e-10
2.301e-10
2.02498e-10
1.82384e-10
1.5662e-10
1.46308e-10
1.48676e-10
1.62712e-10
1.97612e-10
2.73904e-10
4.39588e-10
7.17066e-10
9.85998e-10
1.26765e-09
6.34203e-10
4.00921e-08
6.67907e-10
2.08776e-10
2.1472e-10
1.98997e-10
1.72219e-10
1.40392e-10
1.11453e-10
9.32889e-11
7.66481e-11
6.63212e-11
6.21947e-11
5.492e-11
4.97704e-11
4.92143e-11
5.33713e-11
6.20414e-11
8.05844e-11
1.20945e-10
2.03616e-10
3.46831e-10
5.12854e-10
6.33007e-10
8.61562e-09
6.4493e-10
1.42927e-10
1.18748e-10
9.75164e-11
8.03832e-11
6.67478e-11
5.40475e-11
4.05784e-11
2.90396e-11
2.22114e-11
1.79027e-11
1.54976e-11
1.40301e-11
1.42196e-11
1.55805e-11
1.83537e-11
2.32016e-11
3.20362e-11
4.93252e-11
8.13983e-11
1.34934e-10
2.1938e-10
1.06256e-09
6.19844e-10
9.59519e-11
7.03577e-11
6.42686e-11
6.56841e-11
6.43729e-11
5.4471e-11
4.01581e-11
2.41696e-11
1.32111e-11
7.44843e-12
4.82563e-12
3.81057e-12
3.69206e-12
4.24808e-12
5.40508e-12
7.23843e-12
1.00896e-11
1.52304e-11
2.37517e-11
3.72338e-11
6.49756e-11
1.33582e-10
6.06498e-10
7.3258e-11
5.57879e-11
6.74047e-11
8.9098e-11
9.41841e-11
8.10469e-11
5.97432e-11
3.4479e-11
1.72746e-11
7.93958e-12
3.43196e-12
1.6529e-12
1.11187e-12
1.15593e-12
1.54518e-12
2.23118e-12
3.3336e-12
4.99531e-12
7.56575e-12
1.18174e-11
1.71234e-11
3.09966e-11
5.95175e-10
6.18267e-11
5.87427e-11
9.95097e-11
1.36775e-10
1.51772e-10
1.2708e-10
9.03179e-11
5.12818e-11
2.57727e-11
1.16472e-11
4.66187e-12
1.74239e-12
6.79134e-13
3.97998e-13
4.4528e-13
6.67758e-13
1.07835e-12
1.73138e-12
2.72863e-12
4.15898e-12
7.12644e-12
1.0351e-11
5.97484e-10
6.25563e-11
8.22931e-11
1.54118e-10
2.20922e-10
2.57687e-10
2.04487e-10
1.27312e-10
7.03423e-11
3.60778e-11
1.66727e-11
6.82931e-12
2.52357e-12
8.44874e-13
2.79414e-13
1.5594e-13
1.99574e-13
3.3563e-13
5.66427e-13
9.28811e-13
1.52624e-12
2.33053e-12
3.99748e-12
5.99751e-10
7.13275e-11
1.23808e-10
2.40539e-10
3.84768e-10
4.41516e-10
3.20252e-10
1.66255e-10
8.66328e-11
4.59228e-11
2.18987e-11
9.38261e-12
3.57232e-12
1.23441e-12
3.6379e-13
1.0714e-13
6.56272e-14
9.95969e-14
1.85497e-13
3.32314e-13
5.55588e-13
1.05662e-12
1.53238e-12
6.15239e-10
9.3322e-11
2.18526e-10
5.04664e-10
7.37634e-10
7.61354e-10
4.15642e-10
2.06285e-10
9.75944e-11
5.28861e-11
2.61218e-11
1.15229e-11
4.65163e-12
1.70712e-12
5.23711e-13
1.37603e-13
3.90101e-14
3.10469e-14
5.63604e-14
1.05828e-13
2.13915e-13
3.42586e-13
6.6891e-13
6.26679e-10
1.24429e-10
3.68023e-10
9.19798e-10
1.21441e-09
1.15811e-09
6.54308e-10
2.37974e-10
1.02972e-10
5.5377e-11
2.83515e-11
1.28361e-11
5.4539e-12
2.12214e-12
7.03538e-13
2.00636e-13
4.66614e-14
1.44776e-14
1.83019e-14
3.73749e-14
7.24236e-14
1.73144e-13
2.74402e-13
6.80274e-10
1.60788e-10
5.82691e-10
1.23152e-09
1.44378e-09
1.31322e-09
8.35427e-10
3.00199e-10
1.00489e-10
5.23189e-11
2.77349e-11
1.28203e-11
5.71212e-12
2.33184e-12
8.64458e-13
2.67784e-13
6.61074e-14
1.34884e-14
7.19912e-15
1.35701e-14
3.48491e-14
6.85366e-14
1.50198e-13
7.1325e-10
2.05349e-10
7.32159e-10
1.33986e-09
1.49258e-09
1.33346e-09
8.95033e-10
3.11612e-10
1.06006e-10
4.81377e-11
2.48504e-11
1.15237e-11
5.28658e-12
2.30436e-12
9.14983e-13
3.1522e-13
8.83738e-14
1.92954e-14
4.29673e-15
5.46744e-15
1.30397e-14
4.30852e-14
8.07608e-14
8.20572e-10
2.73418e-10
8.35772e-10
1.37552e-09
1.49391e-09
1.34976e-09
8.13197e-10
3.19007e-10
1.11665e-10
4.40218e-11
2.05244e-11
9.37372e-12
4.45989e-12
1.99116e-12
8.39309e-13
3.21261e-13
1.02724e-13
2.59463e-14
5.03157e-15
2.35266e-15
6.15962e-15
1.49553e-14
5.06663e-14
8.70573e-10
2.92404e-10
8.20785e-10
1.33362e-09
1.3273e-09
1.10923e-09
7.14693e-10
3.3903e-10
1.09107e-10
3.76171e-11
1.56341e-11
7.05091e-12
3.40395e-12
1.52275e-12
6.62606e-13
2.76804e-13
1.01981e-13
2.87907e-14
6.11912e-15
1.35982e-15
2.26138e-15
1.07342e-14
2.30427e-14
1.05531e-09
2.97108e-10
7.36493e-10
1.16439e-09
9.43813e-10
8.34691e-10
6.55067e-10
3.24025e-10
9.73486e-11
2.94059e-11
1.1077e-11
4.97155e-12
2.32764e-12
1.04325e-12
4.50935e-13
1.98431e-13
8.34185e-14
2.79568e-14
6.71411e-15
1.10348e-15
8.66566e-16
2.42525e-15
1.11331e-14
1.13542e-09
3.03422e-10
5.45814e-10
8.00167e-10
7.39587e-10
7.86275e-10
5.91242e-10
3.0279e-10
8.58285e-11
2.11987e-11
7.29433e-12
3.15516e-12
1.46148e-12
6.30764e-13
2.64197e-13
1.17148e-13
5.43813e-14
2.17267e-14
6.33865e-15
1.19647e-15
4.4989e-16
1.33197e-15
3.88372e-15
1.41762e-09
3.48324e-10
4.2259e-10
6.10173e-10
6.21266e-10
6.98377e-10
5.27106e-10
2.62897e-10
6.95259e-11
1.39282e-11
4.26817e-12
1.8007e-12
8.28046e-13
3.43199e-13
1.33549e-13
5.66473e-14
2.70333e-14
1.27495e-14
4.65988e-15
1.10646e-15
1.72925e-16
2.15487e-16
1.42906e-15
1.527e-09
5.11194e-10
4.05157e-10
5.45315e-10
6.17671e-10
6.12641e-10
4.32569e-10
2.05429e-10
5.81815e-11
8.17258e-12
2.11767e-12
9.01205e-13
4.18042e-13
1.67901e-13
5.95574e-14
2.23034e-14
1.00635e-14
5.17433e-15
2.42369e-15
7.7832e-16
1.18877e-16
8.28878e-17
2.5453e-16
1.88075e-09
8.10747e-10
4.69581e-10
5.90072e-10
6.5556e-10
5.58582e-10
3.33818e-10
1.39221e-10
3.71565e-11
4.81086e-12
8.43832e-13
3.76752e-13
1.81117e-13
7.22043e-14
2.35776e-14
7.18677e-15
2.76805e-15
1.37719e-15
7.85429e-16
3.7086e-16
8.32384e-17
2.05956e-17
5.31594e-17
2.05127e-09
1.01802e-09
7.19186e-10
7.16676e-10
6.77437e-10
4.58966e-10
2.20616e-10
7.49517e-11
1.70825e-11
1.93676e-12
2.57119e-13
1.21565e-13
6.28997e-14
2.55087e-14
7.91454e-15
2.03568e-15
5.7212e-16
2.35445e-16
1.58137e-16
1.16925e-16
3.75931e-17
6.86054e-18
9.35598e-18
2.12799e-09
1.29036e-09
9.21005e-10
8.49884e-10
5.99402e-10
2.8825e-10
1.01419e-10
2.60722e-11
4.3023e-12
3.7997e-13
5.00616e-14
2.56844e-14
1.47941e-14
6.32089e-15
1.91689e-15
4.26879e-16
8.21958e-17
2.33867e-17
1.94988e-17
2.37309e-17
1.35264e-17
2.84609e-18
1.80172e-18
2.15114e-09
1.52903e-09
1.08251e-09
6.99481e-10
2.82484e-10
7.7203e-11
1.8448e-11
3.19735e-12
3.31629e-13
1.87816e-14
4.43265e-15
2.67278e-15
1.77396e-15
8.13468e-16
2.509e-16
4.88687e-17
6.56551e-18
1.15806e-18
1.47589e-18
3.28013e-18
4.0443e-18
1.33612e-18
4.39373e-19
0.000426154
0.000431912
0.000565001
0.000785122
0.00473616
0.00475591
0.00499315
0.0049917
0.00441913
0.00271654
0.00220829
0.00241046
0.000789141
0.00103777
0.00225118
0.00235309
0.000153365
0.000149585
0.000802186
0.00113935
0.000115309
0.000115251
0.000195327
0.000888979
0.000195134
0.000188306
4.60592e-05
1.55076e-05
0.000208276
0.000208074
0.000151111
1.07831e-05
0.000123813
0.000188343
5.41774e-05
4.02119e-06
7.08523e-06
1.06183e-05
5.66175e-06
2.91899e-06
5.95558e-06
7.31469e-06
6.20579e-06
2.96518e-06
8.48475e-08
8.80567e-07
1.42318e-06
2.07964e-06
6.36821e-09
1.70497e-07
7.91178e-07
8.63728e-07
3.21341e-07
1.53904e-07
1.53963e-07
1.53757e-07
3.31755e-07
1.58461e-07
1.53644e-07
1.53844e-07
2.02742e-07
2.50056e-07
3.08102e-06
6.23218e-06
6.53732e-08
6.19545e-07
5.45098e-06
6.68364e-06
1.15564e-08
3.39654e-07
2.20762e-06
3.61464e-06
1.16321e-08
4.78505e-08
1.15694e-07
2.04518e-08
1.57338e-08
2.02158e-08
1.00109e-08
1.09699e-08
1.58492e-08
6.92314e-09
1.01439e-08
1.04425e-08
5.70417e-09
5.465e-09
5.9104e-09
6.88605e-09
1.28296e-09
1.10337e-09
2.07665e-09
2.01997e-09
2.24589e-10
2.63611e-10
2.66924e-10
4.3494e-10
4.84429e-11
4.33426e-11
7.36144e-11
7.82351e-11
1.56455e-11
1.93136e-11
1.98379e-11
2.71757e-11
6.01564e-12
7.13338e-12
9.79171e-12
1.11214e-11
2.5275e-12
3.259e-12
3.86876e-12
5.17285e-12
1.02653e-12
1.31652e-12
1.84002e-12
2.16703e-12
4.85668e-13
6.8122e-13
8.46077e-13
1.16409e-12
2.59364e-13
3.56143e-13
5.38802e-13
6.79947e-13
1.66855e-13
2.57179e-13
3.41843e-13
5.25419e-13
9.65577e-14
1.47352e-13
2.52813e-13
3.24275e-13
6.60569e-14
9.70035e-14
1.45385e-13
2.46145e-13
2.43637e-14
4.30938e-14
8.141e-14
1.09081e-13
1.14826e-14
1.95302e-14
3.26616e-14
6.3292e-14
3.53378e-15
6.76036e-15
1.26079e-14
2.04142e-14
8.96195e-16
1.58938e-15
3.06533e-15
6.47738e-15
1.50733e-16
2.97027e-16
5.84229e-16
1.01468e-15
2.71174e-17
5.13681e-17
1.05208e-16
2.26837e-16
4.40926e-18
8.15792e-18
1.5158e-17
2.79558e-17
6.90119e-19
1.13019e-18
1.75153e-18
2.83681e-18
0.000291556
0.000291131
0.000814552
0.00174893
0.00114753
8.20511e-05
0.000869046
0.000854684
0.00274404
0.00400903
0.0109951
0.00898636
0.00191778
0.00418757
0.0145354
0.00417493
0.00476299
0.00483198
0.00122915
0.00144013
0.000725176
0.0015963
0.00125527
0.00197698
0.00602004
0.00724688
0.000811077
0.00504469
0.0214824
0.0220885
0.0207418
0.0103117
0.014595
0.00625988
0.00652919
0.0111505
0.0107346
0.00131463
0.00208719
0.00132382
0.00166287
0.00436138
0.0107654
0.0107671
0.00862008
0.000811081
0.0132882
0.0220885
0.0220901
0.0220905
0.0220923
0.0207302
0.0120348
0.0120192
0.01082
0.0099268
0.0089542
0.00152826
0.00134664
0.0035465
0.00855326
0.0107609
0.0102191
0.0042248
0.000808775
0.0107366
0.0189244
0.0220885
0.0220896
0.0220933
0.0190431
0.00607229
0.00310063
0.00256093
0.00251328
0.00336425
0.00128408
0.00177002
0.00166647
0.00233204
0.00221145
0.00320921
0.00234325
0.000527447
0.00141989
0.0062714
0.00822665
0.00861782
0.00552809
0.00127389
0.00049304
0.000244353
0.000418867
0.000472335
0.00100015
0.0013163
0.0017194
0.000601454
0.000608787
0.00050232
4.40892e-05
4.76677e-05
0.00030524
0.00095051
0.00134794
0.00156288
0.001394
0.00118033
0.000848163
0.000135855
0.00011641
0.000269035
0.00115174
0.00276321
0.000475101
0.00231196
0.00205757
0.000600495
0.000103573
4.409e-05
4.40892e-05
4.40973e-05
4.42668e-05
4.83969e-05
0.000181027
0.000513897
0.000804828
0.000560844
0.00010567
0.000117228
0.00101196
0.00230394
0.00575644
0.000188204
0.00254257
0.00303899
0.00247214
0.000840042
0.000315662
0.000300991
0.000237619
0.000160168
0.000156603
0.000189406
0.000476209
0.000817367
0.000362399
3.59901e-05
3.54681e-05
0.00100161
0.00602812
0.00735106
0.000148531
0.0023158
0.00304015
0.00303814
0.00291675
0.00229309
0.00229203
0.00200954
0.00113759
0.000991015
0.00162243
0.00345832
0.00447825
0.00395214
0.0027336
0.00227605
0.0032374
0.00735098
0.00735121
3.53298e-05
0.000537814
0.00137198
0.00157372
0.000907168
0.000561542
0.000408939
0.000291235
0.000328521
0.000983516
0.00229063
0.00368237
0.00481212
0.00578115
0.00673577
0.00735099
0.00735096
0.00735114
0.00735099
4.09049e-06
-9.6109e-10
-7.54878e-09
1.91826e-07
4.33087e-22
-6.8844e-19
4.33552e-17
-1.62307e-09
1.60588e-19
7.73906e-09
7.13262e-07
4.36588e-06
0.000155886
0.000661545
0.00152469
0.00297526
0.0047735
0.00654771
0.00727115
4.2067e-07
1.63051e-06
3.09275e-06
2.81045e-06
1.3734e-06
1.08622e-07
1.1961e-07
4.00473e-07
7.75544e-07
7.65662e-07
4.5371e-07
1.06124e-07
3.28537e-09
3.12164e-08
2.54067e-07
6.8185e-08
6.64493e-08
6.81841e-08
0.000685837
2.20951e-07
2.03455e-06
4.17066e-06
4.16929e-06
2.13947e-06
2.68765e-07
9.07571e-07
1.22754e-06
1.01584e-06
4.55793e-08
-2.54854e-11
-2.20887e-15
-2.51477e-26
7.96982e-09
3.73006e-07
7.11856e-08
6.81837e-08
6.64485e-08
2.25394e-06
1.78934e-07
6.58698e-07
2.86136e-06
1.87189e-06
7.12131e-07
3.50301e-07
2.60426e-07
2.60068e-07
6.75631e-07
3.86656e-06
4.69804e-06
3.78699e-06
5.92758e-07
8.29224e-09
1.22654e-08
1.07315e-07
1.22642e-06
2.6713e-06
1.8268e-06
2.11448e-06
3.14917e-06
1.56219e-06
3.58285e-07
1.66148e-07
2.02843e-07
8.75255e-07
7.81432e-06
8.78411e-06
8.78642e-06
7.82262e-06
4.7892e-06
2.02343e-07
3.29113e-08
1.84496e-08
3.72269e-07
3.93209e-06
5.49596e-06
4.13935e-06
5.75488e-06
5.41704e-06
2.0867e-07
7.04583e-08
1.3829e-07
2.4282e-06
9.70329e-06
9.68682e-06
7.28583e-06
3.69607e-06
1.01788e-06
4.90341e-07
1.60289e-08
1.46717e-09
1.0946e-08
5.2808e-07
3.02104e-06
5.12011e-06
5.20163e-06
6.68282e-06
6.55772e-06
7.01007e-08
7.00199e-08
1.06233e-07
2.23393e-06
9.76612e-06
9.76378e-06
2.53073e-06
1.04133e-09
1.17846e-08
9.44781e-09
1.0194e-08
6.74943e-09
7.01457e-09
9.9304e-08
1.37173e-06
3.01684e-06
7.08311e-07
3.6661e-06
2.84696e-06
2.4502e-06
1.10992e-06
2.93676e-07
7.78942e-07
3.42587e-06
3.21958e-06
4.89882e-07
1.03522e-09
3.00738e-08
1.90444e-07
3.54547e-07
3.12708e-07
1.79954e-07
6.73002e-08
6.46495e-08
6.16855e-08
6.47641e-08
8.95381e-09
4.63637e-09
9.88945e-07
1.52957e-06
1.41731e-06
6.43304e-07
3.9996e-07
2.2843e-07
2.68454e-07
2.07993e-07
9.97496e-07
2.14441e-06
2.17352e-06
1.73299e-06
1.0073e-06
4.81357e-07
6.45184e-08
7.44028e-08
9.47757e-08
6.32676e-09
4.54142e-09
3.76705e-09
4.16575e-07
5.80607e-07
5.92907e-07
5.82166e-07
2.308e-07
3.89286e-08
3.58197e-08
9.60019e-07
2.2839e-06
2.29076e-06
2.29051e-06
2.29127e-06
7.48821e-07
1.53634e-07
6.02303e-07
3.04128e-07
8.74584e-09
6.78877e-09
3.78359e-09
1.67843e-09
1.01019e-07
3.01313e-07
5.22542e-07
5.23748e-07
2.62134e-07
3.56735e-08
3.51253e-08
6.60014e-07
1.72239e-06
2.28354e-06
2.28991e-06
9.59556e-07
1.49919e-06
3.55382e-06
6.58163e-07
5.21836e-09
3.65188e-09
3.0504e-09
1.68828e-09
1.10943e-09
1.10597e-09
7.43345e-08
2.148e-07
1.72339e-07
1.29201e-07
3.53503e-08
5.73178e-09
5.69359e-09
7.81263e-07
1.15925e-06
1.01366e-07
3.25824e-06
3.55285e-06
7.06436e-07
1.75974e-09
1.57863e-09
1.54476e-09
1.27537e-09
1.09494e-09
1.1003e-09
1.10591e-09
1.11197e-09
1.01275e-08
1.07984e-08
6.40322e-09
5.75722e-09
2.83779e-08
4.6812e-08
4.19912e-12
4.5102e-15
2.8331e-06
3.55382e-06
4.02336e-07
3.97121e-10
4.7237e-10
6.12187e-10
6.74945e-10
9.39101e-10
1.29017e-09
1.3313e-09
1.39175e-09
2.23456e-09
6.98456e-09
8.05208e-09
7.8782e-09
8.26694e-09
3.61689e-09
4.37296e-10
5.93723e-15
1.03782e-06
1.99208e-06
1.74254e-07
9.23408e-11
1.32442e-10
2.04821e-10
3.13863e-10
5.35437e-10
8.27459e-10
1.23047e-09
2.1072e-09
5.17657e-09
7.56637e-09
8.02186e-09
5.44881e-09
3.81061e-09
2.78259e-09
9.77736e-10
5.84742e-14
4.30338e-07
8.17351e-08
1.00631e-07
3.14445e-11
4.67664e-11
7.24478e-11
1.13585e-10
1.82372e-10
2.90981e-10
4.92873e-10
8.96305e-10
1.78226e-09
2.72193e-09
2.63859e-09
2.21828e-09
2.18953e-09
2.75888e-09
2.25317e-09
5.18654e-14
3.78386e-08
8.02551e-08
2.10992e-08
1.3828e-11
2.12199e-11
3.30762e-11
5.13655e-11
8.04235e-11
1.2301e-10
1.85041e-10
2.89124e-10
4.57381e-10
7.52562e-10
9.84573e-10
1.5367e-09
2.52931e-09
4.12906e-09
1.51504e-09
1.26431e-08
5.9853e-08
1.57052e-08
1.14914e-08
6.15877e-12
9.9673e-12
1.65163e-11
2.73738e-11
4.56846e-11
7.44633e-11
1.21388e-10
1.98906e-10
3.35442e-10
5.87723e-10
9.87004e-10
1.66948e-09
2.99225e-09
4.91234e-09
1.48905e-09
6.79092e-08
7.0574e-08
1.6989e-08
8.16311e-09
2.86566e-12
4.78938e-12
8.15577e-12
1.3992e-11
2.39479e-11
4.23588e-11
7.38875e-11
1.31357e-10
2.47424e-10
4.70864e-10
8.92099e-10
1.57587e-09
2.79368e-09
5.09867e-09
2.38143e-09
7.43895e-08
7.48416e-08
1.82115e-08
8.19392e-09
1.46685e-12
2.52662e-12
4.31137e-12
7.40133e-12
1.29147e-11
2.36715e-11
4.39538e-11
8.33348e-11
1.65144e-10
3.43246e-10
7.10973e-10
1.33889e-09
2.14154e-09
3.88945e-09
2.66429e-09
6.99839e-08
5.14178e-08
1.65502e-08
7.38251e-09
9.55307e-13
1.61063e-12
2.74194e-12
4.61771e-12
7.86345e-12
1.39561e-11
2.61763e-11
5.23026e-11
1.08547e-10
2.41942e-10
5.24353e-10
1.07544e-09
1.6956e-09
2.88354e-09
4.91332e-09
4.47396e-08
2.98236e-08
8.33306e-09
7.22585e-09
6.82222e-13
1.21155e-12
2.08231e-12
3.50173e-12
5.87101e-12
9.54969e-12
1.54618e-11
2.68501e-11
5.26558e-11
1.18197e-10
2.76303e-10
6.02843e-10
1.21793e-09
2.64715e-09
8.06784e-09
6.56013e-09
6.04366e-09
5.99022e-09
6.06133e-09
5.37732e-13
9.37781e-13
1.69256e-12
2.99351e-12
5.26014e-12
8.63219e-12
1.40556e-11
2.2388e-11
3.61401e-11
6.17916e-11
1.24205e-10
2.7787e-10
8.64014e-10
1.90316e-09
8.81969e-09
5.9908e-09
5.99038e-09
5.9902e-09
1.16698e-08
3.25833e-13
6.79072e-13
1.32085e-12
2.49042e-12
4.61505e-12
8.14857e-12
1.38414e-11
2.25814e-11
3.54598e-11
5.46321e-11
8.72555e-11
1.44014e-10
2.44849e-10
8.99636e-10
1.1763e-08
4.4111e-08
1.77458e-08
5.99019e-09
5.95332e-09
2.09908e-13
4.27531e-13
9.10767e-13
1.88336e-12
3.76799e-12
7.22543e-12
1.31982e-11
2.31643e-11
3.80921e-11
5.80942e-11
8.84963e-11
1.27787e-10
1.56681e-10
2.59049e-10
1.06699e-08
8.65363e-08
1.35293e-07
5.99018e-09
1.20606e-07
9.46211e-14
2.27414e-13
5.34386e-13
1.22594e-12
2.73443e-12
5.78745e-12
1.16949e-11
2.25485e-11
3.96722e-11
6.47881e-11
9.84129e-11
1.42453e-10
2.07947e-10
6.26305e-10
1.56417e-08
6.91276e-08
1.5871e-07
1.30438e-07
1.64362e-07
3.72929e-14
9.83122e-14
2.5813e-13
6.69561e-13
1.74102e-12
4.16469e-12
9.35714e-12
1.96069e-11
3.78804e-11
6.83545e-11
1.13134e-10
1.729e-10
2.44867e-10
3.04596e-10
6.8849e-09
5.76957e-08
1.58765e-07
1.62713e-07
1.64506e-07
1.12075e-14
3.33383e-14
1.00585e-13
3.11731e-13
9.13639e-13
2.50104e-12
6.45244e-12
1.49416e-11
3.18522e-11
6.34942e-11
1.14822e-10
1.96733e-10
3.15547e-10
5.07338e-10
1.53839e-09
2.12284e-08
5.92721e-08
1.66396e-07
8.0698e-08
2.76466e-15
8.67432e-15
3.04951e-14
1.07939e-13
3.6996e-13
1.19206e-12
3.54881e-12
9.44414e-12
2.28237e-11
4.99419e-11
9.96521e-11
1.86875e-10
3.25919e-10
5.40578e-10
8.62583e-10
2.53694e-09
2.48587e-08
5.54896e-08
1.34777e-08
4.44508e-16
1.63528e-15
6.65326e-15
2.81913e-14
1.17898e-13
4.68441e-13
1.64873e-12
5.16901e-12
1.42971e-11
3.4997e-11
7.70527e-11
1.57849e-10
3.01446e-10
5.29965e-10
8.43087e-10
1.20192e-09
1.67214e-09
1.0974e-08
1.60227e-09
5.32355e-17
1.91327e-16
8.5014e-16
4.29669e-15
2.23143e-14
1.10287e-13
4.92162e-13
1.92418e-12
6.5162e-12
1.90835e-11
4.89134e-11
1.12235e-10
2.41341e-10
4.68155e-10
7.78856e-10
1.12242e-09
1.26842e-09
2.40943e-09
1.1237e-09
4.57626e-18
1.29882e-17
5.23108e-17
2.87314e-16
1.85049e-15
1.21067e-14
7.27794e-14
3.81198e-13
1.70662e-12
6.40088e-12
2.02759e-11
5.51784e-11
1.35214e-10
3.09107e-10
6.17858e-10
1.00033e-09
1.20013e-09
1.21732e-09
9.49909e-10
)
;

boundaryField
{
    leftWall
    {
        type            zeroGradient;
    }
    rightWall
    {
        type            zeroGradient;
    }
    lowerWall
    {
        type            zeroGradient;
    }
    atmosphere
    {
        type            inletOutlet;
        inletValue      uniform 0;
        value           nonuniform List<scalar> 
46
(
2.15114e-09
1.52903e-09
1.08251e-09
6.99481e-10
2.82484e-10
7.7203e-11
0
0
0
0
0
0
0
0
0
0
0
0
1.47589e-18
3.28013e-18
4.0443e-18
1.33612e-18
4.39374e-19
6.9012e-19
1.13019e-18
0
0
0
0
0
0
0
0
0
0
0
0
0
0
0
0
6.17858e-10
1.00033e-09
1.20013e-09
1.21732e-09
9.49909e-10
)
;
    }
    defaultFaces
    {
        type            empty;
    }
}


// ************************************************************************* //
