/*--------------------------------*- C++ -*----------------------------------*\
| =========                 |                                                 |
| \\      /  F ield         | OpenFOAM: The Open Source CFD Toolbox           |
|  \\    /   O peration     | Version:  2312                                  |
|   \\  /    A nd           | Website:  www.openfoam.com                      |
|    \\/     M anipulation  |                                                 |
\*---------------------------------------------------------------------------*/
FoamFile
{
    version     2.0;
    format      ascii;
    arch        "LSB;label=32;scalar=64";
    class       volScalarField;
    location    "4.3";
    object      alphas;
}
// * * * * * * * * * * * * * * * * * * * * * * * * * * * * * * * * * * * * * //

dimensions      [0 0 0 0 0 0 0];

internalField   nonuniform List<scalar> 
2268
(
2
2
2
2
2
2
2
2
2
2
2
2
2
2
2
2
2
2
2
1.99999
1.99996
1.99995
1.99996
2
2
2
2
2
2
2
2
2
2
2
2
2
2
2
2
2
2
2
2
1.99999
1.99998
1.99998
2
2
2
2
2
2
2
2
2
2
2
2
2
2
2
2
2
2
2
2
2
2
2
2
2
2
2
2
2
2
2
2
2
2
2
2
2
2
2
2
2
2
2
2
2
2.00139
2
2
2
2
2
2
2
2
1.99999
1.99998
1.99997
1.99995
2
2
1.99444
1.97366
1.96364
1.95948
1.94783
1.92588
1.87158
1.86949
1.8626
2
1.99997
2.00006
2.00004
1.99999
1.99994
1.99985
1.99964
1.97591
1.84657
1.6659
1.46906
1.24662
1.03111
0.843778
0.727347
0.713889
0.719294
0.698848
0.680075
0.6412
0.551073
0.489673
1.99267
1.98459
1.96097
1.90711
1.79321
1.60217
1.39585
1.10782
0.744012
0.462672
0.259053
0.111857
0.035765
0.0190358
0.0239896
0.0256193
0.0358011
0.0391142
0.0459232
0.0950042
0.125895
0.116465
0.09102
1.18674
1.09427
0.886903
0.656094
0.427807
0.27406
0.129691
0.0216123
0.000497874
0.000504812
0.000429806
0.000429025
0.000419679
0.000377257
0.0240331
0.0296147
0.0296234
0.0163998
0.0163181
0.0202757
0.0401313
0.082713
0.0830631
1.94538
1.94776
1.96322
1.97068
1.96802
1.95909
1.95314
1.95206
1.95127
1.94998
1.94897
1.94883
1.95768
1.96391
1.96459
1.96396
1.96975
1.96894
1.96848
1.86234
1.95813
1.96072
1.96399
1.96395
1.947
1.95004
1.95292
1.96056
1.96243
1.9644
1.96403
1.9467
1.93788
1.94327
1.95433
1.96648
1.96943
1.97145
1.55222
1.63822
1.63452
1.58455
1.46487
1.37151
1.37949
1.55741
1.64939
1.66263
1.66298
1.63199
1.55411
1.52155
1.52825
1.5721
1.60832
1.63275
1.63161
0.729506
0.468538
0.36037
0.313458
0.213561
0.150243
0.142786
0.137092
0.84233
1.04664
0.926503
0.771305
0.759928
0.722358
0.663612
0.692693
0.725238
0.821039
0.915597
0.242196
0.0267212
0.0388365
0.120497
0.171946
0.193159
0.21196
0.145627
0.144475
0.378692
0.416409
0.15069
0.433142
0.395585
0.136259
0.148548
0.120489
0.118793
0.425635
0.0340799
0.0227263
0.0146333
0.0124041
0.0155475
0.15767
0.20287
0.217051
0.097864
0.141206
0.156761
0.054265
0.170245
0.201832
0.136815
0.130718
0.16081
0.168035
0.166968
0.0255854
0.132293
0.0558711
0.0120738
0.0120396
0.0560221
0.1516
0.0882782
0.0628384
0.0420071
0.0342585
0.0354718
0.0389441
0.0458941
0.274314
0.332919
0.24371
0.17726
0.168073
0.0793732
0.195979
0.100803
0.0145399
0.0126045
0.126544
0.12697
0.0483104
0.045556
0.0392613
0.0383977
0.0450911
0.0422402
0.0458475
0.422279
0.348954
0.209605
0.141007
0.159077
0.0228844
0.00752914
0.00447857
0.00373888
0.00200625
0.000846002
0.00070877
0.000754718
0.000776925
0.000789191
0.000674002
0.000562712
0.000656652
0.000650835
0.00100016
0.0242714
0.0306889
0.0213494
0.0178907
0.0246029
0.0304371
0.0303957
0.0281129
0.00161714
0.00105635
0.000866182
0.000854218
0.000836294
0.00081301
0.000798895
0.000775535
0.000864023
0.000771445
0.000820251
0.000846534
0.00129903
0.00433607
0.0055811
0.0133401
0.0500491
0.0900968
0.10031
0.114394
0.153452
0.219228
0.255714
0.0538206
0.0140175
0.00941032
0.0105551
0.0257461
0.0465464
0.0567531
0.0535
0.0542713
0.0620628
0.100411
0.18112
0.214769
0.209209
0.273313
0.429128
0.578167
0.797711
0.946505
0.960965
0.972933
0.94865
0.927656
0.35913
0.353793
0.358736
0.453588
0.554893
0.597522
0.642223
0.602903
0.600086
0.648456
0.756834
0.921048
0.980403
0.988133
1.06348
1.10956
1.14131
1.0062
1.01095
1.01608
1.01547
1.02152
1.02374
1.03193
1.0497
1.0335
1.02308
1.02347
1.02319
1.01891
1.03711
1.12577
1.1456
1.03729
1.00566
1.00291
1.00279
1.09918
1.18078
1.05598
1.00042
1.0004
1.00051
1.00057
1.00754
1.01185
1.13469
1.10969
1.0653
1.04
1.02434
1.01081
1.00716
1.00718
1.01389
1.02602
1.00438
1.00037
1.00022
1.0004
1.00156
1.02438
1.00072
1.00015
0.999823
0.999803
1.0002
1.00069
1.00094
2.51827
2.43396
2.29533
2.17778
2.06001
1.91096
1.74918
1.62886
1.54668
1.46304
1.3873
1.3021
1.24188
1.18473
1.12653
1.06597
1.02538
0.999831
0.999565
0.998674
0.997243
0.995923
1.00003
2.99744
2.99761
2.9991
2.98995
2.97465
2.97225
2.97771
2.96616
2.95035
2.92289
2.88906
2.84787
2.80482
2.73302
2.62976
2.50317
2.36953
2.11276
1.76061
1.49575
1.29551
1.14613
1.07289
2.99771
2.99902
2.99954
2.9997
2.99988
2.99998
2.99997
3
3
3
3
2.99999
3
2.99969
2.99799
2.99705
2.99714
2.99793
2.95738
2.84676
2.69372
2.53427
2.4237
2.99817
2.99991
3
3
3
3
3
2.99999
2.99999
2.99999
3
3
3
3
3
3
3
3
2.99849
2.99399
2.994
2.98892
2.98447
2.99981
2.99999
3
3
3
3
3
2.99998
2.99992
2.99988
2.99994
2.99998
2.99996
2.99998
2.99999
3
3
3
2.99987
2.99999
2.99999
3
3
3
3
3
3
3
3
2.99999
2.99987
2.99987
2.99986
2.99987
2.99987
2.99986
2.9999
2.99999
2.99999
2.99999
2.99999
2.99999
3
3
3
3
3
3
3
3
3
3
2.99995
2.99988
2.99987
2.99987
2.99986
2.99986
2.99986
2.99991
2.99997
2.99999
2.99998
2.99996
2.99993
2.99991
2.99993
2.99998
3
3
3
3
3
3
3
2.99999
2.99999
2.99997
2.99995
2.99992
2.99992
2.99994
2.99994
2.99994
2.99996
2.99995
2.99991
2.99991
2.99991
2.99993
2.99999
3
3
3
3
3
3
3
3
3
3
3
3
3
3
2.99996
2.99995
2.99996
2.99997
2.99993
2.99991
2.99993
2.99999
3
3
3
3
3
3
3
3
3
3
3
3
3
3
3
3
3
3
3
2.99999
2.99993
2.99993
2.99999
3
3
3
3
3
3
3
3
3
3
3
3
3
3
3
3
3
3
3
3
2.99997
2.99994
2.99996
3
3
3
3
3
3
3
3
3
3
3
3
3
3
3
3
3
3
3
3
3
2.99999
2.99997
3
3
3
3
3
3
3
3
3
3
3
3
3
3
3
3
3
3
3
3
3
3
3
3
3
3
3
3
3
3
3
3
3
3
3
3
3
3
3
3
3
3
3
3
3
3
3
3
3
3
3
3
3
3
3
3
3
3
3
3
3
3
3
3
3
3
3
3
3
3
3
3
3
3
3
3
3
3
3
3
3
3
3
3
3
3
3
3
3
3
3
3
3
3
3
3
3
3
3
3
3
3
3
3
3
3
3
3
3
3
3
3
3
3
3
3
3
3
3
3
3
3
3
3
3
3
3
3
3
3
3
3
3
3
3
3
3
3
3
3
3
3
3
3
3
3
3
3
3
3
3
3
3
3
3
3
3
3
3
3
3
3
3
3
3
3
3
3
3
3
3
3
3
3
3
3
3
3
3
3
3
3
3
3
3
3
3
3
3
3
3
3
3
3
3
3
3
3
3
3
3
3
3
3
3
3
3
3
3
3
3
3
3
3
3
3
3
3
3
3
3
3
3
3
3
3
3
3
3
3
3
3
3
3
3
3
3
3
3
3
3
3
3
3
3
3
3
3
3
3
3
3
3
3
3
3
3
3
3
3
3
3
3
3
3
3
3
3
3
3
3
3
3
3
3
3
3
3
3
3
3
3
3
3
3
3
3
3
3
3
3
3
3
3
3
3
3
3
3
3
3
3
3
3
3
3
3
3
3
3
3
3
3
3
3
3
3
3
3
3
3
3
3
3
3
3
3
3
3
3
3
3
3
3
3
3
3
3
3
3
3
3
3
3
3
3
3
3
3
3
3
3
3
3
3
3
3
3
3
3
3
3
3
3
3
3
3
3
3
3
3
3
3
3
3
3
3
3
3
3
3
3
3
3
3
3
3
3
3
3
3
3
3
3
3
3
3
3
3
3
3
3
3
3
3
3
3
3
3
3
3
3
3
3
3
3
3
3
3
3
3
3
3
3
3
3
3
3
3
3
3
3
3
3
3
3
3
3
3
3
3
3
3
3
3
3
3
3
3
3
3
3
3
3
3
3
3
3
3
3
3
3
3
3
3
3
3
3
3
3
3
3
3
3
3
3
3
3
3
3
3
3
3
3
3
3
3
3
3
3
3
3
3
3
3
3
3
3
3
3
3
3
3
3
3
3
3
3
3
3
3
3
3
3
3
3
3
3
3
3
3
3
3
3
3
3
3
3
3
3
3
3
3
3
3
3
3
3
3
3
3
3
3
3
3
3
3
3
3
3
3
3
3
3
0.0767867
0.0694729
0.0534946
0.052944
0.277618
0.28091
0.245288
0.173534
0.935193
0.937765
0.932484
0.915704
1.00079
1.00105
1.00671
1.01456
0.999896
0.999834
0.998232
0.998189
1.00013
0.999839
0.996827
0.994994
1.0001
0.999989
0.999643
0.998588
1.0456
1.03467
1.03193
1.01928
2.38899
2.34569
2.29006
2.22321
2.98032
2.9809
2.9868
2.98898
2.99999
2.99999
2.99999
2.9999
3
3
3
3
3
3
3
3
3
3
3
3
3
3
2.99999
2.99999
3
2.99999
2.99991
2.99978
3
2.99999
2.99987
2.9998
3
2.99999
2.99995
2.99991
3
3
3
3
3
3
3
3
3
3
3
3
3
3
3
3
3
3
3
3
3
3
3
3
3
3
3
3
3
3
3
3
3
3
3
3
3
3
3
3
3
3
3
3
3
3
3
3
3
3
3
3
3
3
3
3
3
3
3
3
3
3
3
3
3
3
3
3
3
3
3
3
3
3
3
3
3
3
3
3
3
3
3
3
3
3
3
3
3
3
3
3
3
3
3
3
0.0726245
0.15856
0.117128
0.0810712
0.0303752
0.193101
0.0604213
0.0635962
0.0578384
0.0507656
0.122226
0.107747
0.0464122
0.133597
0.422546
0.246942
0.135977
0.110498
0.106903
0.119729
0.182142
0.289898
0.178037
0.196868
0.348964
0.501002
0.378035
0.18461
0.332784
0.444402
0.33006
0.223303
0.390068
0.267762
0.21873
0.395384
0.467079
0.243063
0.81797
0.723714
0.555413
0.566951
0.908882
1.14196
0.856164
0.691341
0.957085
1.04873
1.02853
0.743121
0.631209
0.719599
0.64008
0.889867
1.00321
0.981989
0.885392
1.03933
1.0534
0.993208
1.00162
1.08336
1.35145
1.19756
1.10847
1.04552
1.02275
1.07206
1.20023
1.18645
1.1908
1.14057
1.02989
1.00896
1.00833
1.00651
1.02947
1.06498
1.05963
1.00296
1.00284
1.09977
1.30491
1.23738
1.03954
1.00932
1.01291
1.03532
1.04099
1.02436
1.02241
1.04199
1.04177
1.00319
0.999861
0.998454
1.01496
1.01206
1.00121
1.00121
1.01176
1.23917
1.28502
1.02065
0.992073
1.00322
1.00316
1.00328
1.00373
1.00457
1.00975
1.01925
1.00014
1.00011
0.989634
0.98629
1.00206
1.00042
0.999483
1.00009
1.0257
1.14589
1.14831
1.09073
1.00304
1.00122
1.00042
0.999888
1.00063
1.00166
1.00219
1.00211
1.00365
1.00403
1.01387
1.00836
0.995012
0.998023
0.99886
0.999064
1.04468
1.06828
1.02749
0.997209
1.00081
1.00238
0.999092
0.997462
0.997386
0.999616
1.00583
1.00614
2.16622
2.19003
2.20396
2.17477
2.1835
2.21251
2.27743
2.25167
2.13475
1.8955
1.59956
1.47714
1.38283
1.20276
1.07479
1.0312
1.0157
1.01075
1.00611
2.97842
2.9673
2.97063
2.98399
2.98752
2.99207
2.9931
2.98969
2.98498
2.98163
2.98076
2.92867
2.83722
2.65198
2.42088
2.26139
2.15395
2.03543
1.83866
2.99968
2.99992
2.99999
3
3
3
3
3
2.99997
2.99996
2.99996
2.99998
2.99929
2.99786
2.99572
2.99299
2.99251
2.99219
2.99273
3
3
3
3
3
3
2.99999
2.99995
2.99986
2.99986
2.9999
2.99999
2.99999
2.99995
2.99999
2.99999
2.99999
2.99999
2.99931
3
3
3
3
2.99999
2.99983
2.99979
2.99979
2.99991
2.99998
3
3
3
2.99998
2.99998
2.99998
2.99998
2.99995
2.99996
3
3
2.99991
2.99977
2.99976
2.99978
2.99991
2.99999
2.99999
2.99982
2.99966
2.99971
2.99989
2.99999
2.99999
2.99998
2.99991
2.9998
2.99993
2.9999
2.99974
2.99974
2.99977
2.99984
2.99997
2.99997
2.99972
2.99954
2.9995
2.9995
2.9995
2.99983
2.99998
2.99999
2.99986
2.99974
2.99974
2.99974
2.99979
2.99982
2.99989
2.99997
2.99999
2.99999
2.99972
2.99949
2.99949
2.99949
2.99979
2.99987
2.99991
2.99992
2.99986
2.99974
2.99973
2.99974
2.99991
2.99982
2.99992
3
3
2.99999
2.99999
2.99975
2.99954
2.99956
2.99988
2.99996
2.99996
2.99996
2.99992
2.99979
2.99975
2.99973
2.99975
2.99999
2.9999
2.99994
2.99998
2.99998
2.99999
2.99999
2.99996
2.99987
2.99984
2.99983
2.99986
2.99992
2.99991
2.99989
2.99991
2.9999
2.99976
2.99991
2.99999
3
2.99999
2.99998
2.99996
2.99995
2.99997
2.99998
2.99998
2.99983
2.99982
2.99983
2.99983
2.99981
2.99981
2.99987
2.99991
2.99977
2.99992
3
3
3
3
2.99998
2.99995
2.99995
2.99998
2.99998
2.99992
2.99986
2.99991
2.99998
2.99999
2.99986
2.99984
2.99988
2.99976
2.99989
3
3
3
3
3
2.99999
2.99998
2.99993
2.99992
2.99991
2.9999
2.99993
2.99999
3
3
2.99987
2.99983
2.99981
2.99994
3
3
3
3
3
3
3
3
2.99997
2.99992
2.99992
2.99992
2.99997
3
3
2.99994
2.99981
2.99986
2.99999
3
3
3
3
3
3
3
3
3
2.99999
2.99998
2.99998
2.99999
3
3
2.99998
2.99981
2.9999
3
3
3
3
3
3
3
3
3
3
3
3
3
3
3
3
3
2.99986
2.99994
3
3
3
3
3
3
3
3
3
3
3
3
3
3
3
3
3
2.99996
2.99997
3
3
3
3
3
3
3
3
3
3
3
3
3
3
3
3
3
2.99999
3
3
3
3
3
3
3
3
3
3
3
3
3
3
3
3
3
3
3
3
3
3
3
3
3
3
3
3
3
3
3
3
3
3
3
3
3
3
3
3
3
3
3
3
3
3
3
3
3
3
3
3
3
3
3
3
3
3
3
3
3
3
3
3
3
3
3
3
3
3
3
3
3
3
3
3
3
3
3
3
3
3
3
3
3
3
3
3
3
3
3
3
3
3
3
3
3
3
3
3
3
3
3
3
3
3
3
3
3
3
3
3
3
3
3
3
3
3
3
3
3
3
3
3
3
3
3
3
3
3
3
3
3
3
3
2.99999
3
3
3
3
3
3
3
3
3
3
3
3
3
3
3
3
3
3
2.99999
3
3
3
3
3
3
3
3
3
3
3
3
3
2.99999
2.99999
3
3
3
2.99999
3
3
3
3
3
3
3
3
3
3
3
3
3
2.99999
2.99999
2.99999
3
3
3
3
3
3
3
3
3
3
3
3
3
3
3
3
3
2.99999
2.99999
2.99999
3
3
3
3
3
3
3
3
3
3
3
3
3
3
3
3
2.99999
2.99999
2.99999
2.99999
2.99999
3
3
3
3
3
3
3
3
3
3
3
3
3
3
3
2.99999
2.99999
3
3
3
3
3
3
3
3
3
3
3
3
3
3
3
3
3
3
3
3
3
3
3
3
3
3
3
3
3
3
3
3
3
3
3
3
3
3
3
3
3
3
3
3
3
3
3
3
3
3
3
3
3
3
3
3
3
3
3
)
;

boundaryField
{
    leftWall
    {
        type            calculated;
        value           nonuniform List<scalar> 
50
(
2
2
2
2
2
2
1.99267
1.18674
0.0228844
0.00161714
0.0538206
0.35913
1.03193
1.13469
2.51827
2.99744
2.99771
2.99817
2.99981
3
3
3
3
3
3
3
3
3
3
3
3
3
3
3
3
3
3
3
3
3
3
3
3
3
3
3
3
3
3
3
)
;
    }
    rightWall
    {
        type            calculated;
        value           nonuniform List<scalar> 
50
(
1.96848
1.97145
1.63161
0.915597
0.425635
0.166968
0.168073
0.159077
0.106903
0.243063
0.885392
1.00651
0.999861
1.00011
1.00365
1.00614
1.00611
1.83866
2.99273
2.99931
2.99996
2.99993
2.99974
2.99991
2.99999
2.99999
3
3
3
3
3
3
3
3
3
3
3
3
3
3
2.99999
2.99999
2.99999
3
3
2.99999
3
3
3
3
)
;
    }
    lowerWall
    {
        type            calculated;
        value           nonuniform List<scalar> 
62
(
2
2
2
2
2
2
2
2
2
2
2
2
2
2
2
2
2
2
2
1.99999
1.99996
1.99995
1.99996
1.99996
1.99998
2
2.00139
1.8626
0.489673
0.09102
0.0830631
0.0767867
0.0694729
0.0534946
0.052944
1.94538
1.86234
1.55222
0.729506
0.242196
0.0340799
0.0255854
0.0793732
1.94538
1.94776
1.96322
1.97068
1.96802
1.95909
1.95314
1.95206
1.95127
1.94998
1.94897
1.94883
1.95768
1.96391
1.96459
1.96396
1.96975
1.96894
1.96848
)
;
    }
    atmosphere
    {
        type            calculated;
        value           nonuniform List<scalar> 
46
(
3
3
3
3
3
3
3
3
3
3
3
3
3
3
3
3
3
3
3
3
3
3
3
3
3.00001
3
3
3
3
3
3
3
3
3
3
3
3
3
3
3
3
3
3
3
3
3
)
;
    }
    defaultFaces
    {
        type            empty;
    }
}


// ************************************************************************* //
