/*--------------------------------*- C++ -*----------------------------------*\
| =========                 |                                                 |
| \\      /  F ield         | OpenFOAM: The Open Source CFD Toolbox           |
|  \\    /   O peration     | Version:  2312                                  |
|   \\  /    A nd           | Website:  www.openfoam.com                      |
|    \\/     M anipulation  |                                                 |
\*---------------------------------------------------------------------------*/
FoamFile
{
    version     2.0;
    format      ascii;
    arch        "LSB;label=32;scalar=64";
    class       volScalarField;
    location    "4.3";
    object      alpha.air;
}
// * * * * * * * * * * * * * * * * * * * * * * * * * * * * * * * * * * * * * //

dimensions      [0 0 0 0 0 0 0];

internalField   nonuniform List<scalar> 
2268
(
8.71714e-10
8.31487e-10
7.75133e-10
6.09875e-10
3.60954e-10
1.9018e-10
8.9445e-11
6.47193e-11
6.12954e-11
6.17506e-11
7.13511e-11
8.71667e-11
1.09691e-10
1.48811e-10
2.05081e-10
2.72532e-10
3.16711e-10
2.83541e-10
1.98978e-10
1.98978e-10
5.72234e-08
4.02592e-07
5.80018e-07
1.14402e-09
1.70827e-09
1.75896e-09
1.51611e-09
5.94141e-10
2.01107e-10
1.6102e-10
2.91442e-10
3.65249e-10
3.15991e-10
3.64522e-10
4.73267e-10
4.22837e-10
5.42125e-10
9.48277e-10
1.43494e-09
2.23286e-09
2.66919e-09
1.79384e-09
1.98978e-10
2.66891e-07
8.78741e-07
8.7342e-07
1.13546e-09
1.77811e-09
1.96047e-09
2.17588e-09
5.73064e-09
1.21428e-09
1.63623e-10
1.58167e-09
1.56994e-09
9.88564e-10
1.68423e-09
2.6393e-09
1.57278e-09
1.49064e-09
3.33628e-09
2.9702e-09
9.45298e-09
1.13359e-08
1.71642e-08
6.66684e-08
1.73044e-07
1.68592e-07
1.65006e-07
8.71946e-10
1.2505e-09
9.11635e-09
4.09488e-08
9.5619e-08
1.12828e-07
6.13268e-08
1.55775e-09
1.55977e-09
3.86829e-09
3.96183e-09
1.88498e-09
1.53762e-09
1.54249e-09
1.62441e-09
1.66202e-09
1.65328e-09
1.62705e-09
1.64556e-09
1.85955e-09
2.27468e-09
4.76948e-08
0.00138579
2.73123e-09
2.2986e-09
6.95208e-08
1.28603e-07
3.81808e-08
7.21847e-08
7.80205e-07
1.55469e-06
1.442e-06
9.74518e-06
4.02551e-06
1.85315e-09
7.80515e-08
2.89636e-06
-1.55691e-10
0.000255137
0.00168021
0.00306932
0.00356108
0.00290017
0.000610522
0.00328989
0.00600793
1.27515e-08
9.65979e-07
5.99589e-05
3.67595e-05
4.06487e-07
1.49226e-08
1.60129e-08
4.81612e-05
0.000157689
0.000179368
0.000164678
8.19204e-05
1.97645e-05
3.80636e-05
0.000280546
0.000933436
0.00466644
0.0106647
0.0128725
0.0128716
0.010366
0.00638469
0.00617134
0.000327684
0.000709309
0.00107677
0.00101632
0.000545451
3.84767e-05
1.4938e-08
2.51309e-05
0.000164159
0.000182526
0.00018257
0.000182517
5.62094e-05
3.88451e-05
0.000255074
0.000793118
0.000700434
0.000911156
0.00281937
0.0107214
0.011545
0.00777063
0.00497476
0.00108162
0.00132704
0.00132704
0.00132704
0.00132704
0.00132704
0.000398264
3.00021e-05
8.07909e-05
8.39457e-05
5.67096e-05
5.58531e-05
5.1281e-05
4.18281e-05
4.62304e-05
6.44534e-05
4.02365e-05
4.02442e-05
0.000270701
0.00223242
0.00682637
0.00502384
0.00495335
0.000234487
0.00109187
0.00656074
0.00914075
0.00913133
0.00707881
0.00443808
0.00382805
0.00390746
0.00363426
0.00263021
0.00238127
0.00237924
0.0023781
0.00246391
0.00249927
0.00549218
0.00624822
0.00609852
0.000234072
0.000244251
0.00143374
0.00295907
0.00279101
0.00321594
0.00764864
0.00994078
0.00727885
0.00376199
0.00271303
0.00237924
0.00237687
0.00237486
0.00237373
0.00328088
0.0076732
0.00824438
0.00613541
0.00155315
0.00276811
0.00208531
0.0020996
0.00211152
0.00478306
0.0132089
0.0180942
0.017328
0.00654915
0.00482317
0.00847135
0.00961802
0.00798961
0.00944418
0.0141943
0.016149
0.0146116
0.0123905
0.00738166
0.00741558
0.00711932
0.0062659
0.00831886
0.0106804
0.0119421
0.00633084
0.0191225
0.0190607
0.0186538
0.0231051
0.024433
0.0244345
0.0244337
0.0262085
0.0262227
0.0240369
0.0159298
0.00741527
0.00631531
0.00661533
0.0291621
0.0430087
0.0430345
0.0430094
0.0241699
0.0205722
0.0166252
0.00971248
0.0052186
0.0193959
0.0230587
0.017622
0.0175766
0.0175278
0.0174757
0.0170554
0.00302186
0.00387546
0.00209525
0.00237232
0.00382739
0.0410928
0.0430162
0.042805
0.0158195
0.00536979
0.00375548
0.00375549
0.00999474
0.0193694
0.0255591
0.0227433
0.0365164
0.0406829
0.0170908
0.00221129
0.00246428
0.00209523
0.00209535
0.00212488
0.00843884
0.0244261
0.00895069
0.00411122
0.00375716
0.0037555
0.0037551
0.00546271
0.00908416
0.0670274
0.0907055
0.0638926
0.0445727
0.0413099
0.00211118
0.0021168
0.00211831
0.00209686
0.00209534
0.00833932
0.00819918
0.00941652
0.00432694
0.00391733
0.00523616
0.00813527
0.0068693
0.00903488
0.0906983
0.0909481
0.0553002
0.0264251
0.0368686
0.0006955
0.000625416
0.000794688
0.000827486
0.000552228
0.000242248
0.000199841
0.000221321
0.000232445
0.000233103
0.000163793
0.000107873
0.000157917
0.000176752
6.9936e-05
5.3064e-05
7.44871e-05
0.00027771
0.000666522
0.00399079
0.00679056
0.00681308
0.00545196
0.000534329
0.000347458
0.000284131
0.000279971
0.000265707
0.000241786
0.000227502
0.000204615
0.000199651
0.00019957
0.000249101
0.000276775
0.000430541
0.00144287
0.00185782
0.00383287
0.0138102
0.0241578
0.0242062
0.0240402
0.0355088
0.0555842
0.0616146
0.0178386
0.00465496
0.00312273
0.00343024
0.00742732
0.0144829
0.0181958
0.0174437
0.0179722
0.0199636
0.0329768
0.0595445
0.0599189
0.0285693
0.0138319
0.0562594
0.0904747
0.0904771
0.0833451
0.08328
0.0768203
0.0542641
0.0238125
0.0432834
0.0358949
0.0199068
0.0146271
0.0232828
0.0481755
0.0695892
0.0751902
0.0762036
0.0762047
0.0762036
0.0762048
0.0421119
0.0184402
0.0651534
0.090172
0.0775234
0.00196135
0.00490535
0.00761352
0.00735434
0.0103619
0.0114281
0.0434063
0.0384374
0.0162816
0.0106826
0.0106481
0.0104717
0.00889482
0.0185251
0.0628521
0.0748532
0.0185242
0.00272463
0.00139448
0.0013621
0.0495701
0.0902281
0.0277354
0.000150231
0.000153154
0.000177946
0.000204208
0.00370851
0.00589795
0.0672054
0.054758
0.0325595
0.0199101
0.0120857
0.0053128
0.00343972
0.00352154
0.00688794
0.0129535
0.00221235
0.000312388
0.000261776
0.000319523
0.00077001
0.0121851
0.000356539
0.000168642
5.86252e-05
4.5762e-05
0.000135912
0.00029156
0.000408835
0.759255
0.717095
0.647795
0.589008
0.530116
0.455599
0.374684
0.314716
0.274326
0.233015
0.195702
0.153722
0.123945
0.0950948
0.0653899
0.0343272
0.0133755
-1.87092e-05
9.07094e-23
2.74731e-19
-3.11561e-07
1.28968e-08
3.62216e-05
0.998777
0.998832
0.999336
0.994719
0.987064
0.985903
0.989792
0.986653
0.978897
0.965116
0.947585
0.926841
0.904997
0.86916
0.81766
0.754335
0.686821
0.556133
0.380443
0.250315
0.156144
0.0814545
0.0430696
0.99904
0.999559
0.999805
0.9999
0.999956
0.999993
0.999989
1
1
0.999999
0.999995
0.999994
1
0.999889
0.999288
0.998876
0.998798
0.998827
0.978777
0.92639
0.855248
0.775521
0.720234
0.999389
0.999971
1
1
1
0.999999
0.999998
0.999997
0.999995
0.999994
0.999998
1
1
1
1
1
1
0.999998
0.999448
0.997958
0.997978
0.996295
0.994816
0.999936
0.999998
1
0.999999
0.999999
0.999999
0.999998
0.999991
0.999964
0.999944
0.999971
0.999991
0.999979
0.999988
0.999996
0.999999
0.999999
0.999999
0.999957
0.999992
0.99999
0.999995
0.999995
1
1
1
0.999999
0.999999
0.999999
0.999996
0.999938
0.999937
0.999936
0.999936
0.99994
0.999938
0.999954
0.999995
0.999997
0.999997
0.999998
0.999996
0.999997
0.999998
0.999999
0.999999
1
1
1
1
1
1
0.999981
0.999947
0.999938
0.999937
0.999937
0.999938
0.99994
0.999965
0.999991
0.999996
0.999994
0.999983
0.999972
0.999964
0.999972
0.999994
0.999999
1
1
1
1
1
0.999999
0.999998
0.999998
0.999986
0.999976
0.999965
0.999967
0.999978
0.999979
0.999981
0.999987
0.999976
0.999964
0.999963
0.999963
0.999975
0.999996
0.999999
1
1
1
1
1
1
1
1
1
1
1
1
0.999999
0.999986
0.999982
0.999987
0.999988
0.999972
0.999963
0.999972
0.999996
0.999999
0.999999
1
1
1
1
1
1
1
1
1
1
1
1
1
1
0.999999
0.999999
0.999999
0.999995
0.999971
0.999973
0.999997
0.999999
0.999999
1
1
1
1
1
1
1
1
1
1
1
1
1
1
1
1
1
1
0.999988
0.999974
0.999982
1
0.999999
1
1
1
1
1
1
1
1
1
1
1
1
1
1
1
1
1
1
1
0.999994
0.999988
0.999998
1
1
1
1
1
1
1
1
1
1
1
1
1
1
1
1
1
1
1
1
1
0.999999
0.999998
1
1
1
1
1
1
1
1
1
1
1
1
1
1
1
1
1
1
1
1
1
1
1
1
1
1
1
1
1
1
1
1
1
1
1
1
1
1
1
1
1
1
1
1
1
1
1
1
1
1
1
1
1
1
1
1
1
1
1
1
1
1
1
1
1
1
1
1
1
1
1
1
1
1
1
1
1
1
1
1
1
1
1
1
1
1
1
1
1
1
1
1
1
1
1
1
1
1
1
1
1
1
1
1
1
1
1
1
1
1
1
1
1
1
1
1
1
1
1
1
1
1
1
1
1
1
1
1
1
1
1
1
1
1
1
1
1
1
1
1
1
1
1
1
1
1
1
1
1
1
1
1
1
1
1
1
1
1
1
1
1
1
1
1
1
1
1
1
1
1
1
1
1
1
1
1
1
1
1
1
1
1
1
1
1
1
1
1
1
1
1
1
1
1
1
1
1
1
1
1
1
1
1
1
1
1
1
1
1
1
1
1
1
1
1
1
1
1
1
1
1
1
1
1
1
1
1
1
1
1
1
1
1
1
1
1
0.999999
1
1
1
1
1
1
1
1
1
1
1
1
1
1
1
1
1
1
1
1
0.999999
0.999999
0.999999
0.999999
1
1
1
1
1
1
1
1
1
1
1
1
1
1
1
1
1
1
0.999999
0.999999
0.999999
0.999999
1
1
1
1
1
1
1
1
1
1
1
1
1
1
1
1
1
1
1
0.999999
0.999999
0.999999
0.999999
1
1
1
1
1
1
1
1
1
1
1
1
1
1
1
1
1
1
1
0.999999
0.999999
0.999999
1
1
1
1
1
1
1
1
1
1
1
1
1
1
1
1
1
1
1
1
0.999999
0.999999
1
1
1
1
1
1
1
1
1
1
1
1
1
1
1
1
1
1
1
1
1
0.999999
0.999999
1
1
1
1
1
1
1
1
1
1
1
1
1
1
1
1
1
1
1
1
1
0.999999
1
1
1
1
1
1
1
1
1
1
1
1
1
1
1
1
1
1
1
1
1
1
1
1
1
1
1
1
1
1
1
1
1
1
1
1
1
1
1
1
1
1
1
1
1
1
1
1
1
1
1
1
1
1
1
1
1
1
1
1
1
1
1
1
1
1
1
1
1
1
1
1
1
1
1
1
1
1
1
1
1
1
1
1
1
1
1
1
1
1
1
1
1
1
1
1
1
1
1
1
1
1
1
1
1
1
1
1
1
1
1
1
1
1
1
1
1
1
1
1
1
1
1
1
1
1
1
1
1
1
1
1
1
1
1
0.0222412
0.0197996
0.0143848
0.0140487
0.0617116
0.0617377
0.0398221
0.00639437
0.0113381
0.0170306
0.0245759
0.0232486
2.08598e-09
3.64001e-06
0.00223071
0.00610147
5.60336e-16
1.80646e-24
5.1334e-07
0.00010234
9.61143e-05
-6.66234e-17
-3.34121e-21
0.000295932
3.39701e-05
1.01129e-06
-2.25621e-12
4.42763e-22
0.028728
0.0229049
0.0186153
0.0118876
0.702822
0.681145
0.65212
0.614546
0.993436
0.993625
0.995597
0.996325
0.999994
0.999993
0.999994
0.999964
0.999999
0.999999
0.999998
0.999998
0.999999
0.999999
0.999999
0.999998
0.999999
0.999999
0.999999
0.999998
0.999999
0.999998
0.999998
0.999997
0.999999
0.999998
0.999967
0.999912
0.999999
0.999995
0.99995
0.999922
0.999999
0.999997
0.99998
0.999968
0.999999
0.999999
0.999999
0.999999
1
0.999999
1
1
1
1
1
1
1
1
1
1
1
1
1
1
1
1
1
1
1
1
1
1
1
1
1
1
1
1
1
1
1
1
1
1
1
1
1
1
1
1
1
1
1
1
1
1
1
1
1
1
1
1
1
1
1
1
1
1
1
1
1
1
1
1
1
1
1
1
1
1
1
1
1
1
1
1
1
1
1
1
1
1
1
1
1
1
1
1
1
1
0.00245432
0.00211218
0.00523099
0.00543218
0.00388426
0.0212646
0.0126773
0.0177021
0.0142124
0.00905428
0.0281567
0.0246672
0.00892253
0.0351287
0.0909156
0.0642396
0.0237977
0.0109932
0.0110128
0.00453431
0.00794226
0.00641694
0.0179384
0.0384214
0.0651032
0.146329
0.122506
0.0394529
0.0269618
0.0737775
0.0840063
0.0620099
0.092322
0.0516091
0.0238866
0.0104624
0.0109765
0.0109932
0.0146869
0.0127216
0.0292005
0.037763
0.0658641
0.16054
0.187566
0.187567
0.109316
0.0257725
0.0760154
0.0936738
0.0936738
0.0936738
0.0697591
0.0137182
0.010204
0.0134456
0.0133428
0.0189025
0.0318164
0.0316094
0.018679
0.0362981
0.176571
0.187566
0.187566
0.0575585
0.00194627
0.0250286
0.0936738
0.0936738
0.0936738
0.0672493
0.0133934
0.00320153
0.00290733
0.00174837
0.0143412
0.0316071
0.0289827
0.000314949
0.000316513
0.0484892
0.183983
0.187566
0.0440653
0.0019485
0.00237703
0.0133833
0.0177548
0.0115658
0.0109828
0.0209282
0.0208492
0.00220617
0.00103933
0.00202138
0.00677683
0.00572937
0.000311399
0.00038194
0.00588898
0.127465
0.187566
0.0514379
0.00085455
0.000859697
0.000945986
0.00112672
0.00149808
0.00225464
0.00484997
0.00954569
0.000164388
0.000297432
1.75787e-21
1.62612e-13
-1.62612e-13
5.38433e-05
7.12116e-05
0.000311693
0.014282
0.0947811
0.103457
0.0584892
0.00171228
0.00088332
0.000425543
0.000409448
0.000959788
0.00129472
0.000876111
-4.51183e-12
-4.02174e-13
0.00694661
0.0148591
0.0114759
0.000516554
5.21249e-05
4.56913e-05
0.000222065
0.0236421
0.0358358
0.0162069
0.0009307
0.000892331
0.00107003
0.000276294
-9.60649e-06
-1.4345e-05
2.50664e-05
-8.86683e-12
-3.37701e-13
0.588909
0.603055
0.609651
0.594564
0.595764
0.609873
0.642701
0.629921
0.571317
0.450107
0.301134
0.237644
0.189267
0.0995539
0.0377412
0.0163346
0.00764712
0.00248776
2.3388e-09
0.992782
0.988743
0.989296
0.993614
0.995234
0.996982
0.997429
0.996369
0.994774
0.993222
0.99206
0.96369
0.916292
0.82323
0.708332
0.628889
0.575172
0.515642
0.415925
0.999892
0.999972
0.999998
1
1
1
1
1
0.999984
0.999982
0.999986
0.99999
0.999658
0.998846
0.997557
0.99568
0.994322
0.99303
0.992729
0.999999
0.999998
0.999997
0.999997
0.999999
1
0.999998
0.99998
0.999933
0.999932
0.99995
0.999996
0.999998
0.999984
0.999997
0.999997
0.999997
0.999995
0.999313
0.999998
0.999997
0.999996
0.999996
0.999994
0.999924
0.999899
0.999899
0.999953
0.99999
1
1
1
0.999991
0.999991
0.999991
0.99999
0.999977
0.999978
0.999998
0.999998
0.99996
0.999892
0.99989
0.999897
0.999959
0.999994
0.999994
0.999909
0.999834
0.999857
0.999943
0.999997
0.999996
0.999992
0.999957
0.999901
0.999965
0.999955
0.999885
0.999885
0.999892
0.999923
0.999984
0.999985
0.999861
0.999776
0.999755
0.999757
0.999759
0.999922
0.999991
0.999994
0.99993
0.999874
0.999874
0.999876
0.999912
0.999927
0.999951
0.999985
0.999995
0.999994
0.999855
0.999751
0.999751
0.999755
0.999902
0.999943
0.999966
0.999966
0.999933
0.999875
0.999871
0.999872
0.999957
0.99993
0.99997
0.999998
0.999998
0.999997
0.999996
0.999869
0.999768
0.999778
0.999939
0.999983
0.999982
0.999982
0.999962
0.999895
0.999878
0.999872
0.999879
0.999995
0.999963
0.999977
0.999989
0.999991
0.999995
0.999996
0.99998
0.999936
0.999926
0.999933
0.999951
0.999969
0.999965
0.999954
0.999959
0.999955
0.999882
0.999956
0.999997
0.999999
0.999998
0.999991
0.999978
0.999977
0.999987
0.999991
0.999992
0.999941
0.999935
0.999942
0.999939
0.999927
0.999928
0.999951
0.999963
0.999884
0.999959
0.999998
1
1
0.999999
0.999988
0.999976
0.999976
0.999988
0.99999
0.999975
0.999952
0.999968
0.999991
0.999994
0.999943
0.999938
0.999955
0.999888
0.999944
0.999998
1
1
1
1
0.999994
0.999991
0.999963
0.99996
0.999957
0.999955
0.999968
0.999996
0.999998
0.999997
0.999952
0.999937
0.999919
0.999967
0.999999
1
1
1
1
1
1
0.999998
0.999985
0.999962
0.999961
0.999962
0.999986
1
0.999999
0.999977
0.999926
0.999946
0.999994
0.999999
1
1
1
1
1
1
1
1
0.999995
0.999989
0.999991
0.999997
1
1
0.999994
0.999926
0.999958
0.999996
0.999999
1
1
1
1
1
1
1
1
1
1
0.999999
0.999999
1
1
1
0.999941
0.999971
0.999998
1
1
1
1
1
1
1
1
1
1
1
1
1
1
1
1
0.999979
0.999987
1
1
1
1
1
1
1
1
1
1
1
1
1
1
1
1
1
0.999997
0.999999
1
1
1
1
1
1
1
1
1
1
1
1
1
1
1
1
1
1
1
1
1
1
1
1
1
1
1
1
1
1
1
1
1
1
1
1
1
1
1
1
1
1
1
1
1
1
1
1
1
1
1
1
1
1
1
1
1
1
1
1
1
1
1
1
1
1
1
1
1
1
1
1
1
1
1
1
1
1
1
1
1
1
1
1
1
1
1
1
1
1
1
1
1
1
1
1
1
1
1
1
1
1
1
1
1
1
1
1
1
1
1
1
1
1
1
0.999999
1
1
1
1
1
1
1
1
1
1
1
1
1
1
1
1
1
1
0.999997
1
1
1
1
1
1
1
1
1
1
1
1
1
1
1
1
1
1
0.999997
1
1
1
1
1
1
1
1
1
1
1
1
0.999999
0.999995
0.999995
1
1
1
0.999997
1
1
1
1
1
1
1
1
1
1
1
1
0.999999
0.999995
0.999993
0.999995
1
1
0.999998
1
1
1
1
1
1
1
1
1
1
1
1
1
0.999998
0.999993
0.999993
0.999997
1
0.999999
1
1
1
1
1
1
1
1
1
1
1
1
1
1
0.999997
0.999993
0.999993
0.999997
0.999997
1
1
1
1
1
1
1
1
1
1
1
1
1
1
1
0.999997
0.999994
0.999998
0.999998
1
1
1
1
1
1
1
1
1
1
1
1
1
1
1
1
1
0.999999
1
1
1
1
1
1
1
1
1
1
1
1
1
1
1
1
1
1
1
1
1
1
1
1
1
1
1
1
1
1
1
1
1
1
1
1
1
1
1
)
;

boundaryField
{
    leftWall
    {
        type            alphaContactAngle;
        thetaProperties 
6
(
(galistan air) 90 0 0 0
(oil galistan) 90 0 0 0
(water oil) 90 0 0 0
(water air) 90 0 0 0
(oil air) 90 0 0 0
(water galistan) 90 0 0 0
);
        value           nonuniform List<scalar> 
50
(
8.71714e-10
1.14402e-09
1.13546e-09
8.71946e-10
2.73123e-09
1.27515e-08
0.000327684
0.00108162
0.0006955
0.000534329
0.0178386
0.0432834
0.0434063
0.0672054
0.759255
0.998777
0.99904
0.999389
0.999936
1
1
1
1
1
1
1
1
1
1
1
1
1
1
1
1
1
1
1
1
1
1
1
1
1
1
1
1
1
1
1
)
;
    }
    rightWall
    {
        type            alphaContactAngle;
        thetaProperties 
6
(
(galistan air) 90 0 0 0
(oil galistan) 90 0 0 0
(water oil) 90 0 0 0
(water air) 90 0 0 0
(oil air) 90 0 0 0
(water galistan) 90 0 0 0
);
        value           nonuniform List<scalar> 
50
(
0.00609852
0.00613541
0.0123905
0.0159298
0.0170554
0.0170908
0.0413099
0.0368686
0.0110128
0.0109932
0.0133428
0.00174837
0.00103933
0.000297432
-4.02174e-13
-3.37701e-13
2.3388e-09
0.415925
0.992729
0.999313
0.999978
0.999965
0.999876
0.999957
0.999995
0.999997
0.999998
0.999998
0.999999
0.999999
0.999999
1
1
1
1
1
1
1
1
0.999999
0.999997
0.999997
0.999997
0.999998
0.999999
0.999997
0.999998
1
1
1
)
;
    }
    lowerWall
    {
        type            alphaContactAngle;
        thetaProperties 
6
(
(galistan air) 90 0 0 0
(oil galistan) 90 0 0 0
(water oil) 90 0 0 0
(water air) 90 0 0 0
(oil air) 90 0 0 0
(water galistan) 90 0 0 0
);
        value           nonuniform List<scalar> 
62
(
8.71714e-10
8.31487e-10
7.75133e-10
6.09875e-10
3.60954e-10
1.9018e-10
8.9445e-11
6.47193e-11
6.12954e-11
6.17506e-11
7.13511e-11
8.71667e-11
1.09691e-10
1.48811e-10
2.05081e-10
2.72532e-10
3.16711e-10
2.83541e-10
1.98978e-10
1.98978e-10
5.72234e-08
4.02592e-07
5.80018e-07
5.80018e-07
8.7342e-07
1.65006e-07
0.00138579
0.00600793
0.00617134
0.00497476
0.00495335
0.0222412
0.0197996
0.0143848
0.0140487
0.000234487
0.000234072
0.00155315
0.00738166
0.00741527
0.00302186
0.00221129
0.00211118
0.000234487
0.00109187
0.00656074
0.00914075
0.00913133
0.00707881
0.00443808
0.00382805
0.00390746
0.00363426
0.00263021
0.00238127
0.00237924
0.0023781
0.00246391
0.00249927
0.00549218
0.00624822
0.00609852
)
;
    }
    atmosphere
    {
        type            inletOutlet;
        inletValue      uniform 1;
        value           nonuniform List<scalar> 
46
(
1
1
1
1
1
1
1
1
1
1
1
1
1
1
1
1
1
1
1
1
1
1
1
1
1
1
1
1
1
1
1
1
1
1
1
1
1
1
1
1
1
1
1
1
1
1
)
;
    }
    defaultFaces
    {
        type            empty;
    }
}


// ************************************************************************* //
