/*--------------------------------*- C++ -*----------------------------------*\
| =========                 |                                                 |
| \\      /  F ield         | OpenFOAM: The Open Source CFD Toolbox           |
|  \\    /   O peration     | Version:  2312                                  |
|   \\  /    A nd           | Website:  www.openfoam.com                      |
|    \\/     M anipulation  |                                                 |
\*---------------------------------------------------------------------------*/
FoamFile
{
    version     2.0;
    format      ascii;
    arch        "LSB;label=32;scalar=64";
    class       volScalarField;
    location    "4.3";
    object      alpha.water;
}
// * * * * * * * * * * * * * * * * * * * * * * * * * * * * * * * * * * * * * //

dimensions      [0 0 0 0 0 0 0];

internalField   nonuniform List<scalar> 
2268
(
3.64593e-07
3.09269e-07
4.51831e-08
8.80572e-09
1.73991e-09
4.58039e-10
1.52174e-10
9.21983e-11
6.74806e-11
6.02401e-11
5.84346e-11
5.97167e-11
6.56059e-11
7.75364e-11
9.64776e-11
1.26481e-10
1.68943e-10
2.30072e-10
3.21026e-10
6.22128e-10
1.07194e-09
1.37499e-09
1.45878e-09
3.35953e-07
1.79325e-07
3.60315e-08
2.79156e-09
2.14047e-10
1.85126e-10
1.36162e-10
1.26917e-10
1.35915e-10
1.36704e-10
1.14182e-10
9.99485e-11
1.03898e-10
1.1879e-10
1.55052e-10
2.08756e-10
3.182e-10
5.31181e-10
6.74316e-10
9.82003e-10
1.4792e-09
1.57855e-09
1.5383e-09
1.10794e-07
4.34472e-08
5.38573e-09
6.84365e-11
1.85801e-10
2.55873e-10
4.51669e-10
6.90905e-10
7.68931e-10
6.29715e-10
2.81592e-10
1.42086e-10
2.89328e-10
2.01093e-10
4.03978e-10
3.58405e-10
1.09993e-09
1.49535e-09
1.20351e-09
9.95516e-10
1.32957e-09
9.7387e-10
7.44963e-10
4.76315e-08
2.22091e-08
2.49048e-09
6.81674e-11
2.00137e-10
9.09769e-10
1.90679e-09
1.99925e-09
1.78466e-09
1.07427e-09
3.36099e-10
1.04513e-09
3.11338e-08
2.33507e-09
1.80018e-09
7.81817e-10
6.76763e-11
6.13355e-11
5.49939e-11
4.53016e-11
4.56968e-11
4.39097e-11
4.01119e-11
1.22649e-08
4.73052e-09
9.32424e-10
6.79991e-11
8.23298e-11
1.40763e-10
1.51277e-10
1.07463e-10
1.05033e-19
-2.57289e-12
-8.49982e-13
-2.58355e-12
-2.86027e-08
-9.8931e-10
0.00277947
0.0129462
0.0128278
0.0104635
0.0135995
0.0240117
0.0624604
0.0668975
0.0717051
4.01059e-08
-5.39222e-12
-5.34703e-13
-7.78335e-14
-1.1491e-13
-3.13198e-14
1.18323e-22
1.72503e-22
0.0117929
0.0765185
0.166991
0.26517
0.375009
0.481627
0.576779
0.632018
0.617175
0.597515
0.604639
0.614024
0.639495
0.711574
0.757239
0.00221206
0.00604961
0.0184735
0.04619
0.103548
0.198856
0.301783
0.445755
0.627728
0.768407
0.870373
0.94406
0.981729
0.985758
0.976875
0.976843
0.9656
0.962708
0.959716
0.926439
0.897195
0.900013
0.933595
0.403818
0.450177
0.55386
0.670006
0.785899
0.863526
0.935274
0.989092
0.999685
0.999684
0.999705
0.999713
0.999713
0.999713
0.976063
0.970597
0.970535
0.983718
0.984235
0.984236
0.973571
0.927387
0.927254
0.0137422
0.0131825
0.0082714
0.00583499
0.00716042
0.0105965
0.0120077
0.0118713
0.0128228
0.0135079
0.0135151
0.0134591
0.00903312
0.0055768
0.00506818
0.00576496
0.00448651
0.0052686
0.00542551
0.0485192
0.00132577
0.00121568
0.000995506
0.000703765
0.000599287
0.000601664
0.000597211
0.00060268
0.00217651
0.00308459
0.002133
0.00111896
0.00111291
0.00110986
0.00111526
0.00111626
0.00166004
0.00256824
0.0902681
0.0673288
0.0790035
0.0680196
0.10839
0.155746
0.159595
0.0942972
0.0371869
0.00217783
0.00355705
0.0103688
0.0113441
0.0183139
0.0259968
0.0209064
0.0165844
0.0050485
0.00259652
0.504075
0.691681
0.761858
0.785605
0.860478
0.908738
0.918169
0.917871
0.399661
0.229421
0.289413
0.371738
0.3753
0.394097
0.437799
0.425203
0.414835
0.368355
0.308392
0.774131
0.987386
0.981581
0.952486
0.933676
0.922035
0.906267
0.930541
0.904298
0.654573
0.60303
0.859762
0.605664
0.650548
0.898999
0.886623
0.914585
0.916287
0.608585
0.973429
0.988416
0.989769
0.992552
0.992302
0.928963
0.895895
0.895936
0.950451
0.872959
0.850764
0.953772
0.850492
0.837614
0.916135
0.915984
0.916269
0.916321
0.867582
0.980425
0.874608
0.948525
0.992549
0.992551
0.960876
0.897272
0.939555
0.963818
0.973196
0.973346
0.973353
0.973357
0.973359
0.870031
0.860936
0.892756
0.916315
0.916352
0.925662
0.808988
0.904294
0.991397
0.992413
0.890219
0.889476
0.973331
0.973339
0.973344
0.973351
0.973356
0.973363
0.973356
0.77425
0.848021
0.905506
0.916404
0.916351
0.98795
0.99553
0.997111
0.997916
0.999098
0.999638
0.999713
0.999715
0.999714
0.999714
0.999714
0.999714
0.999714
0.999714
0.999144
0.97627
0.970597
0.980331
0.984236
0.984237
0.984228
0.984227
0.983211
0.999459
0.999646
0.999709
0.999713
0.999714
0.999714
0.999714
0.999715
0.999668
0.999714
0.999714
0.999714
0.999566
0.998553
0.998138
0.995246
0.979742
0.960412
0.949935
0.935184
0.919953
0.896756
0.87247
0.982009
0.995319
0.996856
0.996437
0.989986
0.983679
0.980631
0.981972
0.98185
0.97791
0.965587
0.938214
0.905495
0.848183
0.755369
0.685177
0.6046
0.386722
0.226016
0.211426
0.186538
0.165341
0.125086
0.728053
0.718437
0.681571
0.577206
0.494267
0.501423
0.499549
0.548391
0.552391
0.504009
0.396059
0.232476
0.104935
0.0495327
0.0672091
0.0720486
0.0157074
3.97925e-06
-7.09368e-08
-2.63758e-08
4.97487e-20
5.44428e-20
5.31892e-20
0.0554961
0.0277211
2.77556e-19
3.63508e-05
4.07863e-11
1.57924e-12
2.10887e-17
1.38152e-16
3.78492e-18
0.00429544
9.08599e-05
-3.98595e-07
-6.39795e-07
-8.3628e-07
1.31911e-16
1.17717e-10
6.96349e-08
5.06708e-05
6.06566e-05
1.76803e-05
2.16981e-06
7.49684e-07
6.47042e-05
-2.19273e-10
-2.94522e-10
-1.41088e-10
6.57952e-05
5.43155e-05
3.50302e-05
1.64191e-06
4.92706e-07
1.36433e-16
3.76651e-18
9.12757e-05
0.000276955
0.000331214
0.000265109
6.34978e-12
7.35643e-19
7.5821e-07
0.000190544
0.000301094
0.000304458
0.000149076
-4.24719e-25
-3.07978e-09
0.000426143
0.000411162
0.000575583
0.000643688
0.000644813
0.000620599
0.000605654
0.00111992
0.00252108
0.00352591
0.00429155
0.00536577
0.00614374
0.00592802
0.00485545
0.00318664
0.00184011
0.000313763
0.000440589
0.00132573
0.00275651
0.00410241
0.00019809
0.000667073
0.000612574
0.000117992
8.57639e-06
7.09644e-06
7.04496e-06
0.00209718
0.00717232
0.00746947
0.00734602
0.0061186
0.00589579
0.00576375
0.00617474
0.00648311
0.00647576
0.00508147
0.000469033
0.000427918
0.00488412
0.0167766
0.0167842
0.0133303
0.000667096
0.000270953
0.000133985
9.96028e-05
3.70759e-05
6.97259e-06
1.12979e-05
7.99029e-09
4.69039e-08
5.01391e-17
1.18544e-16
-2.39261e-25
2.86996e-07
0.000100607
0.000647106
0.000915041
0.000830059
0.000188501
0.000450493
0.00604746
0.0167848
0.0167791
0.0167846
0.000610896
2.91481e-05
-6.52e-11
-1.53113e-25
2.62492e-26
2.3174e-26
8.50218e-25
9.40865e-07
3.35069e-06
7.66423e-07
5.33113e-09
1.29998e-19
-3.05225e-26
-2.91345e-10
3.18447e-23
-9.71488e-22
1.40317e-13
-2.45319e-11
0.000477051
0.0019813
0.00198668
0.00368866
0.00517395
6.42889e-05
2.24374e-06
2.78262e-08
5.50077e-08
4.68618e-08
3.31707e-08
8.00306e-08
1.319e-06
6.20333e-06
5.88449e-06
1.45651e-06
8.33648e-07
3.20216e-06
6.01272e-07
3.1192e-23
1.49141e-07
2.01902e-07
3.66148e-07
4.30949e-05
5.17237e-11
-1.13038e-13
-1.60076e-10
4.75571e-20
5.81446e-09
5.78836e-09
2.20388e-08
3.83682e-08
2.03352e-08
2.03681e-08
3.88039e-06
8.42696e-06
7.66564e-06
6.6868e-06
6.1229e-06
1.37145e-05
1.71751e-05
1.01584e-05
2.19436e-06
2.07897e-06
2.20815e-06
1.81344e-06
1.81039e-06
6.3764e-10
-1.20466e-17
2.17505e-07
2.10741e-07
6.97825e-09
5.88317e-09
6.04451e-09
9.25429e-09
8.39181e-09
1.97512e-07
7.86143e-06
8.43056e-06
4.59274e-06
5.71494e-06
1.12868e-05
1.82995e-05
1.83311e-05
1.83328e-05
8.61319e-06
4.17959e-06
3.55322e-06
4.8744e-06
1.23067e-05
1.94837e-05
1.29461e-05
2.55167e-06
3.01178e-07
7.54673e-09
5.80052e-09
1.01783e-08
3.02953e-08
8.33406e-09
2.80117e-07
1.69998e-06
1.71344e-06
3.59407e-09
2.20746e-06
1.33666e-05
1.39366e-05
1.71121e-05
1.83311e-05
1.83328e-05
1.09395e-05
6.78832e-06
1.79272e-05
1.89053e-05
1.93538e-05
1.55666e-05
2.57755e-06
3.30036e-07
6.96463e-09
5.33666e-09
1.3291e-08
4.51529e-08
1.03966e-07
1.76898e-08
3.05007e-09
3.05084e-09
3.04894e-09
6.56252e-09
5.27885e-10
5.26395e-10
8.5096e-07
1.34626e-05
1.73401e-05
9.84245e-06
4.1275e-06
1.28462e-05
1.90143e-05
1.51655e-05
3.15935e-06
1.07614e-06
4.20553e-07
6.45679e-09
4.2943e-09
1.08856e-08
2.00503e-08
2.51849e-08
8.39741e-09
3.94182e-09
3.46259e-09
4.99585e-09
5.27895e-10
5.26474e-10
5.2631e-10
5.24779e-10
5.26304e-10
5.22114e-07
3.52604e-07
1.29209e-08
3.19601e-06
1.66689e-05
1.34546e-05
7.68087e-07
5.42927e-07
6.12906e-07
1.15292e-08
3.00638e-09
5.93143e-09
7.82157e-09
1.45472e-09
2.69447e-09
4.66493e-09
4.41184e-09
4.45517e-09
6.65311e-10
5.66888e-10
5.7253e-10
6.37748e-10
5.33105e-10
5.28046e-10
5.27478e-10
5.28736e-10
1.05826e-08
5.44417e-06
1.25761e-05
6.98378e-06
4.52864e-07
4.8348e-07
1.83293e-08
1.64963e-09
2.69922e-09
2.75441e-09
9.47728e-10
2.05759e-09
1.94003e-09
8.44665e-10
7.2427e-10
6.56314e-10
7.31492e-10
8.13565e-10
9.56966e-10
9.55702e-10
1.03064e-09
1.08722e-09
8.69203e-10
7.7429e-10
3.95276e-08
2.29932e-06
4.47083e-06
4.46042e-07
3.82237e-07
1.93397e-08
1.06937e-09
1.16532e-09
1.15753e-09
5.94408e-10
3.88617e-10
3.16021e-10
3.2028e-10
4.34956e-10
5.28096e-10
6.1839e-10
8.30722e-10
1.09494e-09
1.27386e-09
1.40092e-09
1.29712e-09
9.88927e-10
7.75324e-10
6.84265e-10
6.85026e-10
4.63008e-08
2.81026e-07
2.3016e-07
1.91853e-08
5.87576e-10
5.04374e-10
5.19112e-10
3.73156e-10
2.95185e-10
2.53623e-10
2.36663e-10
2.5342e-10
2.82912e-10
3.65505e-10
5.26024e-10
7.11962e-10
8.812e-10
9.8567e-10
9.06686e-10
8.23605e-10
9.99856e-10
1.52558e-09
2.14966e-09
3.11411e-09
6.73906e-08
4.79729e-08
1.96096e-08
4.64769e-10
2.85391e-10
3.03278e-10
2.42068e-10
1.97717e-10
1.61267e-10
1.36091e-10
1.19585e-10
1.08816e-10
1.2842e-10
1.67174e-10
2.22491e-10
2.81074e-10
3.27411e-10
3.51405e-10
3.638e-10
4.65954e-10
7.08517e-10
1.09452e-09
1.70126e-09
1.323e-09
2.35407e-08
1.93743e-08
3.85681e-10
2.19746e-10
2.09879e-10
1.74826e-10
1.44575e-10
1.19193e-10
9.90208e-11
7.82395e-11
6.26532e-11
5.71179e-11
6.27987e-11
7.49664e-11
9.23341e-11
1.12698e-10
1.29362e-10
1.46561e-10
1.8492e-10
2.84828e-10
4.98829e-10
8.48322e-10
1.31946e-09
6.53906e-09
2.02592e-08
2.52795e-10
2.19416e-10
1.90982e-10
1.80508e-10
1.82597e-10
1.74483e-10
1.44223e-10
1.00397e-10
5.98898e-11
3.89692e-11
3.00141e-11
2.84976e-11
3.24587e-11
3.97367e-11
4.85351e-11
5.90629e-11
7.64003e-11
1.14089e-10
1.94679e-10
3.56163e-10
6.63985e-10
1.56269e-09
2.01209e-08
2.89111e-10
2.49204e-10
2.53657e-10
2.73431e-10
2.75474e-10
2.55058e-10
2.12307e-10
1.4749e-10
8.36103e-11
4.59822e-11
2.56473e-11
1.57891e-11
1.25976e-11
1.35433e-11
1.69204e-11
2.21566e-11
3.04076e-11
4.6713e-11
7.75458e-11
1.32575e-10
2.65792e-10
4.66107e-10
2.13011e-08
2.81354e-10
2.83076e-10
3.14187e-10
3.42888e-10
3.65663e-10
3.585e-10
3.14718e-10
2.2699e-10
1.24855e-10
6.31218e-11
3.30874e-11
1.64081e-11
8.12744e-12
5.44111e-12
5.72226e-12
7.75578e-12
1.16378e-11
1.82361e-11
2.98751e-11
5.17877e-11
8.63809e-11
1.65033e-10
2.12037e-08
3.16496e-10
3.07421e-10
3.75602e-10
4.44752e-10
5.55386e-10
5.34642e-10
4.48966e-10
3.40961e-10
1.87532e-10
8.80981e-11
4.59238e-11
2.23427e-11
9.73544e-12
4.02034e-12
2.39237e-12
2.6925e-12
4.25517e-12
7.22003e-12
1.23744e-11
2.07179e-11
4.10909e-11
6.54707e-11
2.37557e-08
3.16939e-10
3.38638e-10
4.75821e-10
7.7539e-10
1.41788e-09
1.21297e-09
5.85945e-10
4.75321e-10
2.71122e-10
1.17578e-10
6.12893e-11
3.08203e-11
1.35748e-11
5.13558e-12
1.8002e-12
1.11414e-12
1.51243e-12
2.64466e-12
4.70989e-12
8.67227e-12
1.49085e-11
2.77986e-11
2.49257e-08
4.81089e-10
4.1355e-10
8.9584e-10
2.51798e-09
4.31686e-09
4.33463e-09
6.78982e-10
5.95972e-10
3.70539e-10
1.48565e-10
7.65033e-11
3.98434e-11
1.86131e-11
7.27128e-12
2.48855e-12
7.3007e-13
5.54711e-13
9.31812e-13
1.77144e-12
3.21631e-12
6.89768e-12
1.0694e-11
2.7299e-08
4.8226e-10
8.41695e-10
6.75025e-09
2.48998e-08
5.39768e-08
1.73428e-08
6.87317e-10
6.75761e-10
4.72054e-10
1.77973e-10
8.70917e-11
4.75164e-11
2.36756e-11
9.82322e-12
3.43036e-12
1.08933e-12
2.91902e-13
3.10401e-13
5.62632e-13
1.20592e-12
2.02623e-12
4.2051e-12
2.48425e-08
3.87217e-10
1.13975e-09
2.76223e-08
3.17813e-07
5.65229e-07
2.12914e-07
6.51544e-10
7.38643e-10
5.98613e-10
2.13846e-10
9.13083e-11
5.16275e-11
2.72728e-11
1.21918e-11
4.65534e-12
1.44342e-12
3.48434e-13
1.27652e-13
1.86228e-13
3.50257e-13
8.28381e-13
1.28473e-12
3.49489e-08
8.2493e-10
3.52909e-08
3.0583e-07
9.77527e-07
1.02224e-06
5.91725e-07
6.6169e-10
7.89969e-10
6.77649e-10
2.21406e-10
8.77054e-11
5.08003e-11
2.79774e-11
1.38966e-11
5.76841e-12
1.92728e-12
5.22507e-13
8.11542e-14
6.09831e-14
1.22554e-13
2.16195e-13
4.35175e-13
3.49297e-08
2.65351e-09
1.01539e-07
5.35071e-07
1.13001e-06
9.90692e-07
3.34032e-07
6.57951e-10
1.16277e-09
6.81476e-10
2.06675e-10
7.68268e-11
4.47099e-11
2.61316e-11
1.38488e-11
6.35973e-12
2.38811e-12
7.26238e-13
1.22705e-13
2.64464e-14
3.37405e-14
8.35094e-14
1.28032e-13
5.31668e-08
5.30303e-09
1.24057e-07
5.57107e-07
1.12252e-06
5.60046e-07
8.36895e-10
1.90621e-09
1.79373e-09
6.29977e-10
1.74578e-10
6.13146e-11
3.62706e-11
2.16055e-11
1.21061e-11
6.13956e-12
2.59288e-12
8.6281e-13
2.16037e-13
1.98782e-14
1.04408e-14
1.7483e-14
4.12041e-14
5.69716e-08
6.73012e-09
1.05187e-07
4.51669e-07
3.18373e-07
2.55125e-08
8.43774e-10
3.0386e-09
1.96477e-09
5.0515e-10
1.31946e-10
4.51462e-11
2.68087e-11
1.59377e-11
9.20121e-12
5.06639e-12
2.43935e-12
9.08588e-13
2.58396e-13
3.03447e-14
4.64954e-15
5.96379e-15
1.00267e-14
6.52455e-08
8.14365e-09
7.07172e-08
1.78548e-07
2.54191e-08
1.03939e-09
1.32577e-09
2.74115e-09
1.30406e-09
3.38375e-10
8.84956e-11
3.09071e-11
1.78679e-11
1.05522e-11
6.06625e-12
3.51737e-12
1.9131e-12
8.33996e-13
2.68954e-13
4.46657e-14
3.00122e-15
1.32913e-15
2.99255e-15
4.87783e-08
6.38133e-09
2.33315e-08
7.02371e-10
2.41064e-09
5.23585e-09
2.43415e-09
1.89835e-09
6.65924e-10
1.95754e-10
5.22332e-11
1.88164e-11
1.09358e-11
6.19386e-12
3.44541e-12
2.02367e-12
1.2114e-12
6.21219e-13
2.3676e-13
5.68775e-14
4.15129e-15
5.70111e-16
6.94357e-16
1.08023e-07
5.48407e-09
3.7804e-09
7.02942e-10
1.97778e-09
5.69969e-09
2.86558e-09
1.20685e-09
3.06248e-10
9.83266e-11
2.54268e-11
1.02227e-11
6.06098e-12
3.27004e-12
1.68643e-12
9.55121e-13
5.93672e-13
3.56048e-13
1.66125e-13
5.22086e-14
5.55065e-15
3.04983e-16
1.81298e-16
1.05588e-07
6.94944e-09
1.17473e-09
3.45842e-09
6.86325e-09
4.75419e-09
2.55346e-09
1.0372e-09
2.61376e-10
4.31651e-11
9.9305e-12
4.89195e-12
3.00414e-12
1.5515e-12
7.2299e-13
3.65937e-13
2.20223e-13
1.45455e-13
8.58594e-14
3.55119e-14
5.55022e-15
3.07507e-16
4.67163e-17
1.68654e-07
5.16626e-08
1.20124e-09
2.96526e-08
1.77433e-08
6.27158e-09
2.41497e-09
9.15995e-10
2.27178e-10
2.57669e-11
3.32558e-12
2.00168e-12
1.28438e-12
6.48917e-13
2.73779e-13
1.13336e-13
6.04238e-14
4.03738e-14
2.91285e-14
1.69934e-14
4.66523e-15
3.06724e-16
1.67898e-17
1.69008e-07
1.29052e-07
8.30691e-08
5.31496e-08
1.50503e-08
5.12569e-09
1.91967e-09
6.09048e-10
1.33233e-10
1.40485e-11
1.08636e-12
6.57029e-13
4.42945e-13
2.24863e-13
8.88412e-14
3.07044e-14
1.23881e-14
7.40378e-15
6.39891e-15
5.54721e-15
2.22844e-15
2.62427e-16
1.26309e-17
1.60457e-07
1.53829e-07
1.092e-07
4.34716e-08
1.19268e-08
3.69508e-09
1.01577e-09
2.42971e-10
4.00664e-11
3.40983e-12
2.05982e-13
1.41975e-13
1.0427e-13
5.53868e-14
2.12919e-14
6.31203e-15
1.78265e-15
8.26114e-16
8.90795e-16
1.19563e-15
8.36761e-16
1.78294e-16
1.73544e-17
1.21002e-07
1.33789e-07
7.32388e-08
1.54226e-08
3.31797e-09
7.034e-10
1.71523e-10
3.1396e-11
3.3297e-12
1.56052e-13
1.42585e-14
1.53676e-14
1.26426e-14
7.21968e-15
2.84946e-15
7.56818e-16
1.57101e-16
5.04525e-17
7.62778e-17
1.79744e-16
2.55177e-16
1.01714e-16
1.20352e-17
0.968122
0.970558
0.97584
0.975938
0.850541
0.847321
0.839349
0.844247
0.0919027
0.0990127
0.118876
0.133204
-1.43276e-06
-5.84732e-10
-2.9742e-07
-4.38443e-07
0.00025756
0.000315327
0.00257073
0.00315512
0.00017942
0.000276478
0.00336846
0.00648669
0.000159275
0.000201638
0.000403006
0.00142715
0.0120676
0.0113476
0.00545518
0.00450678
0.016776
0.0167845
0.014231
0.0058864
0.00655727
0.00636424
0.00439704
0.0036718
-4.86148e-27
-2.20994e-10
2.99398e-15
3.25789e-05
1.60262e-07
7.37759e-08
1.91526e-07
2.01846e-07
4.71764e-07
4.31924e-07
1.84503e-07
4.18323e-07
1.53837e-07
1.49715e-07
1.48355e-07
3.27532e-07
2.71655e-07
7.68162e-07
5.90067e-07
3.42699e-07
4.90475e-07
1.93883e-06
2.37098e-05
4.72601e-05
7.31907e-07
4.06025e-06
3.83536e-05
4.95558e-05
8.78397e-07
2.44727e-06
1.42583e-05
2.78634e-05
5.18117e-07
6.13375e-07
7.38181e-07
5.02872e-07
2.08462e-07
3.29066e-07
3.04267e-08
8.71644e-08
6.48789e-08
3.14654e-08
3.19301e-08
7.48488e-09
1.63171e-08
1.36804e-08
9.51624e-09
7.46187e-09
3.43335e-09
1.92263e-09
3.56854e-09
3.69713e-09
8.4515e-10
1.00952e-09
1.06398e-09
1.52944e-09
2.72789e-10
3.00428e-10
4.66526e-10
5.27656e-10
1.07401e-10
1.44043e-10
1.56232e-10
2.17506e-10
4.49051e-11
5.57336e-11
7.84288e-11
9.01973e-11
1.88094e-11
2.48461e-11
2.97742e-11
4.01833e-11
6.6527e-12
8.58787e-12
1.21681e-11
1.42268e-11
2.26139e-12
3.11464e-12
3.80905e-12
5.26198e-12
6.75445e-13
8.72667e-13
1.26107e-12
1.52054e-12
2.1773e-13
2.8376e-13
3.37539e-13
4.68228e-13
5.81113e-14
7.30271e-14
9.94668e-14
1.09852e-13
1.86884e-14
2.16601e-14
2.54091e-14
3.22639e-14
4.38481e-15
5.62773e-15
7.19485e-15
7.62052e-15
1.23767e-15
1.49175e-15
1.76599e-15
2.14667e-15
2.96282e-16
3.82444e-16
4.70974e-16
5.1073e-16
6.66635e-17
8.20427e-17
1.01652e-16
1.24704e-16
1.22735e-17
1.67116e-17
2.14048e-17
2.42826e-17
2.37808e-18
2.97511e-18
3.90841e-18
5.13546e-18
5.00368e-19
5.442e-19
7.11919e-19
8.69872e-19
1.77093e-19
1.05615e-19
1.10316e-19
1.27528e-19
0.932576
0.845956
0.894148
0.931542
0.978541
0.849511
0.965802
0.972663
0.97333
0.971352
0.945082
0.950574
0.973351
0.940848
0.77382
0.885712
0.916381
0.91632
0.916352
0.89078
0.834468
0.724533
0.859095
0.881952
0.787262
0.798903
0.867789
0.89934
0.742622
0.725242
0.858694
0.911029
0.809171
0.841716
0.835573
0.636692
0.565609
0.780238
0.213491
0.303053
0.504651
0.512936
0.233612
0.18989
0.527589
0.684604
0.274836
0.0248989
0.145594
0.466317
0.578231
0.488479
0.511473
0.149589
0.0280225
0.0548285
0.150248
-2.85099e-19
0.0115805
0.0735568
0.0442877
-2.70826e-19
0.0119144
0.181794
0.26747
0.0803315
7.07614e-05
8.24095e-05
0.0092027
0.0229951
0.0155929
9.83555e-23
-1.56493e-08
-6.12437e-08
1.53705e-21
0.000355816
0.000496788
8.16607e-06
2.19651e-14
-5.99689e-08
-7.12682e-22
0.000420813
0.0654031
0.138281
0.0500121
0.000847882
6.75357e-05
6.73759e-05
4.8967e-05
4.66191e-05
4.43687e-05
0.000111925
0.000352156
0.00169285
0.00321761
0.00690466
0.000317914
3.58791e-11
1.81026e-05
5.46529e-05
5.79626e-05
0.0158036
0.0904179
0.083181
0.0109838
6.45951e-05
0.000121557
0.000154463
0.000114989
7.19448e-05
7.11143e-05
0.00011216
0.00134288
0.00325113
0.0108408
0.0160222
2.86858e-08
0.000283888
0.000762609
0.000582456
0.00291003
0.0437205
0.0586435
0.026292
0.000569222
0.00106501
0.00123151
0.00149151
0.00139674
0.00104996
0.000573788
0.000191977
0.00210425
0.0100477
0.0183861
0.017629
0.00849339
0.0029217
0.0015466
0.00168065
0.00284445
0.00355515
0.0050838
0.00484132
0.00144939
0.000574799
0.00182337
0.00255484
0.00262039
0.00143559
0.000194071
0.0012119
0.0117509
0.0183905
0.0183865
0.017394
0.0109445
0.00953303
0.0102617
0.0101822
0.00902301
0.00570774
0.00432772
0.00160794
0.000177874
0.000300825
0.00342377
0.00374087
0.00282936
0.00157551
0.00124376
0.0071825
0.0107196
0.00933223
0.0048121
0.003859
0.00245604
0.00216251
0.00334025
0.0048977
0.00579472
0.00564892
0.00238819
0.000175614
0.000263242
0.00252538
0.00374144
0.00374199
0.00320497
0.000540448
0.000104004
2.76924e-05
1.89467e-06
3.03112e-10
1.82084e-18
1.11645e-20
9.48575e-16
-2.20164e-08
5.85566e-17
5.4556e-06
1.3522e-05
5.37247e-06
0.00018595
0.000492624
0.000918027
0.00134478
0.000904977
0.000422014
1.49012e-09
2.44047e-07
1.24042e-07
3.5257e-08
3.42296e-09
1.9719e-13
4.5914e-21
1.80808e-06
5.71194e-06
3.25835e-06
2.62169e-06
2.27552e-06
1.77685e-07
1.2828e-06
1.57509e-05
2.22828e-06
2.04371e-11
2.40339e-11
3.76274e-10
1.75609e-08
4.12406e-07
1.50661e-09
1.54019e-09
1.50746e-09
3.5399e-06
1.30795e-05
1.33697e-05
9.82517e-06
3.82132e-07
9.16889e-09
8.38333e-09
8.36422e-09
8.37212e-09
5.83682e-06
6.32041e-06
1.03921e-06
1.16027e-07
1.8336e-06
1.51311e-06
3.33654e-07
4.28014e-07
1.18407e-05
1.99837e-05
2.00804e-05
1.1274e-05
3.6115e-06
4.43321e-08
1.44073e-08
5.89544e-06
1.41765e-05
1.06634e-05
3.02578e-07
1.90283e-07
1.78096e-06
1.77729e-06
5.17777e-06
9.73379e-06
3.00953e-06
1.38832e-05
3.1425e-05
2.97966e-05
1.78085e-05
6.25016e-06
6.76944e-07
1.13179e-06
1.37274e-05
1.97036e-05
2.16211e-05
2.18704e-05
2.18989e-05
1.80981e-05
6.43528e-06
2.06531e-06
3.70309e-06
1.24902e-05
1.24726e-05
1.2426e-05
4.25156e-05
3.88282e-05
6.76082e-06
2.08118e-06
3.10369e-07
3.06634e-07
3.94786e-06
2.05571e-05
2.17553e-05
2.17322e-05
1.69691e-05
1.61909e-05
1.83981e-05
1.57252e-05
2.14213e-06
1.06208e-05
1.25292e-05
1.08251e-05
1.15353e-05
4.95463e-05
2.30768e-05
1.55829e-06
1.51391e-06
2.34361e-06
3.0968e-07
8.21829e-07
1.90268e-06
7.51053e-07
1.34735e-06
5.50061e-06
5.26488e-06
5.02712e-06
2.81341e-06
2.21477e-06
8.35146e-06
1.2558e-05
7.14142e-06
1.2463e-06
3.31797e-05
1.97443e-05
2.12527e-06
1.37445e-06
4.00061e-06
3.08904e-06
7.13252e-07
2.36791e-06
1.01416e-05
3.57122e-05
3.77297e-05
1.96033e-05
2.19915e-05
1.71778e-05
9.80357e-06
5.44536e-06
4.18181e-06
1.35458e-07
1.25158e-07
6.35333e-07
2.07374e-06
3.14913e-06
1.3831e-06
2.92179e-06
3.90874e-06
6.97087e-06
6.76136e-06
5.05773e-05
5.25028e-05
5.25028e-05
5.25028e-05
5.21294e-05
4.2261e-05
2.8559e-05
1.74906e-05
2.6348e-06
3.09919e-07
1.16542e-07
7.33833e-09
7.25429e-09
8.06153e-07
4.78512e-07
5.83499e-07
8.78891e-07
1.79601e-06
2.37485e-06
2.52371e-05
4.81397e-05
3.02976e-05
6.28043e-06
3.29851e-06
2.71041e-05
3.97098e-05
2.65814e-05
1.45931e-05
1.16554e-06
7.52352e-08
8.16708e-09
7.17003e-09
4.36856e-09
4.42688e-09
1.16952e-07
3.48076e-07
1.86315e-09
2.4966e-06
5.68351e-06
8.53204e-06
6.1873e-06
8.83584e-07
6.9637e-10
7.03333e-10
3.71951e-05
4.10598e-05
2.93571e-05
1.49659e-06
7.3435e-08
6.12833e-09
6.9831e-09
6.72776e-09
4.66983e-09
1.89517e-09
1.86337e-09
1.86001e-09
6.77736e-08
9.85086e-07
2.29319e-06
1.63702e-06
1.97722e-07
7.03768e-10
6.9637e-10
1.87983e-05
4.03319e-05
3.09571e-05
6.35378e-07
7.52564e-08
3.75688e-09
4.81312e-09
5.53993e-09
5.10434e-09
3.35591e-09
2.23654e-09
1.86075e-09
1.85454e-09
1.85948e-09
3.83761e-08
5.30046e-07
4.13939e-07
8.57733e-08
7.03768e-10
5.05444e-06
3.94679e-05
1.75513e-05
1.22795e-08
2.10582e-07
1.69893e-09
2.50237e-09
3.55282e-09
4.17509e-09
5.07722e-09
5.81661e-09
6.86309e-09
2.78914e-09
1.85448e-09
2.68862e-07
5.54984e-07
5.59603e-07
1.46639e-07
2.22081e-09
4.71886e-07
2.43811e-05
7.30176e-06
1.08615e-08
2.30523e-07
6.70731e-10
1.08467e-09
1.79157e-09
2.85495e-09
4.39139e-09
6.2062e-09
8.22164e-09
1.71444e-08
9.89706e-08
2.60465e-07
2.92749e-07
1.77573e-07
6.38315e-08
2.56466e-08
1.1215e-07
6.05107e-07
3.29096e-07
2.29153e-08
2.29762e-07
2.61753e-10
4.12585e-10
6.59474e-10
1.04473e-09
1.63904e-09
2.57706e-09
4.8743e-09
1.36327e-08
2.77779e-08
3.80457e-08
3.56479e-08
2.67059e-08
1.51886e-08
1.80359e-08
4.7834e-08
4.72545e-09
1.73563e-09
1.03272e-08
2.04357e-07
1.13385e-10
1.75091e-10
2.69105e-10
4.072e-10
6.19056e-10
9.07994e-10
1.28374e-09
2.137e-09
3.18234e-09
4.98663e-09
7.99704e-09
7.98002e-09
8.31204e-09
2.35961e-08
2.12645e-08
5.93285e-09
3.18872e-09
8.18354e-09
1.96514e-07
4.76417e-11
7.65022e-11
1.24911e-10
2.04073e-10
3.3757e-10
5.47297e-10
8.86984e-10
1.42959e-09
2.32576e-09
3.87845e-09
6.15531e-09
6.72865e-09
1.52966e-08
3.597e-08
5.5307e-08
4.14634e-08
1.31475e-08
4.10912e-08
1.31449e-07
1.88645e-11
3.1465e-11
5.37354e-11
9.32616e-11
1.6276e-10
2.96312e-10
5.30607e-10
9.60267e-10
1.81357e-09
3.35212e-09
5.95261e-09
8.24327e-09
2.48999e-08
5.05999e-08
6.2456e-08
5.24849e-08
1.33705e-08
6.44035e-08
1.37595e-07
6.53893e-12
1.14326e-11
2.01972e-11
3.68836e-11
6.9693e-11
1.40118e-10
2.83361e-10
5.72409e-10
1.18114e-09
2.49184e-09
5.13281e-09
9.23067e-09
1.9956e-08
4.44632e-08
5.35321e-08
3.29479e-08
1.30205e-08
1.21912e-07
1.30529e-07
2.12158e-12
3.52298e-12
6.321e-12
1.19427e-11
2.40141e-11
5.29208e-11
1.24518e-10
2.98898e-10
6.99124e-10
1.6865e-09
3.83578e-09
8.44858e-09
1.48272e-08
2.20912e-08
2.84674e-08
2.19908e-08
3.0614e-08
1.2742e-07
1.30752e-07
5.53053e-13
8.90357e-13
1.46251e-12
2.55891e-12
4.90958e-12
1.00609e-11
1.9795e-11
5.76085e-11
1.80103e-10
5.44995e-10
1.45733e-09
3.38353e-09
7.06505e-09
1.31308e-08
1.64503e-08
2.22403e-08
4.25682e-08
1.17244e-07
1.07171e-07
1.50248e-13
2.04722e-13
3.01705e-13
4.65951e-13
7.70782e-13
1.31262e-12
2.42194e-12
7.53397e-12
2.67941e-11
8.87747e-11
2.76087e-10
8.23227e-10
3.367e-09
4.3523e-09
1.0814e-08
2.61917e-08
4.83893e-08
3.35854e-08
3.27706e-07
3.46223e-14
4.78179e-14
6.47857e-14
9.21032e-14
1.40845e-13
2.27592e-13
3.73153e-13
1.00629e-12
3.50792e-12
1.24868e-11
4.16053e-11
1.39314e-10
5.84022e-10
2.98076e-09
6.37828e-09
1.62961e-08
3.21082e-08
1.81393e-08
3.73263e-07
9.395e-15
1.14097e-14
1.46683e-14
2.02091e-14
3.10605e-14
5.43533e-14
1.09382e-13
2.48668e-13
8.13101e-13
2.86511e-12
1.04646e-11
3.43326e-11
1.18966e-10
9.1898e-10
1.97546e-09
3.23936e-09
5.806e-09
1.16587e-08
3.90183e-07
2.29191e-15
2.82855e-15
3.56346e-15
4.93121e-15
7.94645e-15
1.53003e-14
3.59301e-14
1.01524e-13
3.15722e-13
1.03923e-12
4.10288e-12
1.53339e-11
5.49922e-11
3.38252e-10
1.47185e-09
2.39374e-09
4.42779e-09
1.25743e-08
3.89996e-07
5.73091e-16
7.10118e-16
9.23622e-16
1.37514e-15
2.53002e-15
5.51794e-15
1.42525e-14
4.24193e-14
1.39694e-13
5.00294e-13
1.91698e-12
7.97427e-12
3.01735e-11
1.1668e-10
1.05455e-09
3.02065e-09
5.81123e-09
1.48217e-08
2.21293e-07
1.34875e-16
1.73917e-16
2.44424e-16
4.28826e-16
9.20545e-16
2.27058e-15
6.28221e-15
1.86034e-14
6.11339e-14
2.24457e-13
8.92746e-13
3.95535e-12
1.79902e-11
8.04647e-11
4.82168e-10
2.88339e-09
6.13688e-09
1.44563e-08
1.55248e-09
3.02721e-17
3.89008e-17
6.01287e-17
1.23284e-16
3.18618e-16
9.10827e-16
2.67466e-15
7.81695e-15
2.38443e-14
7.8477e-14
2.92567e-13
1.27468e-12
6.31575e-12
3.36065e-11
1.85432e-10
1.4991e-09
4.39225e-09
5.03373e-09
3.55988e-10
5.71223e-18
7.71776e-18
1.29256e-17
3.1083e-17
9.84471e-17
3.45565e-16
1.16285e-15
3.71857e-15
1.14135e-14
3.50095e-14
1.16493e-13
4.69557e-13
2.32877e-12
1.33963e-11
8.21546e-11
4.34348e-10
1.09865e-09
1.86517e-09
3.21842e-10
9.72252e-19
1.26753e-18
2.08316e-18
5.299e-18
1.96691e-17
8.39086e-17
3.48446e-16
1.32264e-15
4.57402e-15
1.48214e-14
4.80699e-14
1.75053e-13
7.90886e-13
4.09529e-12
2.3218e-11
1.40456e-10
3.6711e-10
6.90062e-10
2.73324e-10
1.37695e-19
1.6449e-19
2.38803e-19
5.27775e-19
1.95554e-18
1.00515e-17
5.42203e-17
2.6673e-16
1.15492e-15
4.36219e-15
1.48645e-14
4.9142e-14
1.85673e-13
9.05499e-13
5.07147e-12
2.81655e-11
9.52374e-11
1.44303e-10
1.1948e-10
)
;

boundaryField
{
    leftWall
    {
        type            zeroGradient;
    }
    rightWall
    {
        type            zeroGradient;
    }
    lowerWall
    {
        type            zeroGradient;
    }
    atmosphere
    {
        type            inletOutlet;
        inletValue      uniform 0;
        value           nonuniform List<scalar> 
46
(
1.21002e-07
1.33789e-07
7.32388e-08
1.54226e-08
3.31797e-09
7.034e-10
0
0
0
0
0
0
0
0
0
0
0
0
7.62778e-17
1.79744e-16
2.55177e-16
1.01714e-16
1.20352e-17
1.77093e-19
1.05615e-19
0
0
0
0
0
0
0
0
0
0
0
0
0
0
0
0
5.07147e-12
2.81655e-11
9.52374e-11
1.44303e-10
1.1948e-10
)
;
    }
    defaultFaces
    {
        type            empty;
    }
}


// ************************************************************************* //
