/*--------------------------------*- C++ -*----------------------------------*\
| =========                 |                                                 |
| \\      /  F ield         | OpenFOAM: The Open Source CFD Toolbox           |
|  \\    /   O peration     | Version:  2312                                  |
|   \\  /    A nd           | Website:  www.openfoam.com                      |
|    \\/     M anipulation  |                                                 |
\*---------------------------------------------------------------------------*/
FoamFile
{
    version     2.0;
    format      ascii;
    arch        "LSB;label=32;scalar=64";
    class       volScalarField;
    location    "4.5";
    object      alpha.oil;
}
// * * * * * * * * * * * * * * * * * * * * * * * * * * * * * * * * * * * * * //

dimensions      [0 0 0 0 0 0 0];

internalField   nonuniform List<scalar> 
2268
(
7.84675e-10
9.7654e-10
1.1665e-09
3.47332e-09
7.22841e-09
7.25792e-09
5.15332e-09
3.48283e-09
2.28064e-09
1.61684e-09
1.11934e-09
8.03472e-10
6.42626e-10
6.14889e-10
8.03613e-10
1.40977e-09
2.60891e-09
3.50376e-09
3.66744e-09
3.75258e-09
3.88007e-05
4.54284e-05
4.54284e-05
7.84333e-10
7.84449e-10
5.47467e-09
2.7888e-08
5.91757e-08
6.83548e-08
6.069e-08
3.14166e-08
1.52212e-08
7.6026e-09
3.96774e-09
2.35067e-09
1.78206e-09
1.72727e-09
2.22046e-09
7.18141e-09
1.49489e-08
7.52463e-08
3.06571e-08
2.14466e-07
6.02935e-06
2.64562e-05
2.08793e-05
1.05191e-08
5.66187e-09
1.15004e-08
3.71877e-08
9.38065e-08
1.0364e-07
1.00752e-07
6.98394e-08
1.56528e-08
4.39995e-09
3.31409e-09
3.33768e-09
6.16798e-09
8.94927e-09
9.40474e-09
7.13143e-09
1.8184e-07
6.72095e-07
6.72419e-07
1.57251e-07
2.12408e-09
1.60899e-07
4.11876e-07
8.21893e-08
9.07691e-08
6.55213e-08
6.53933e-08
6.02138e-08
4.39592e-08
6.92202e-08
2.56413e-08
1.5506e-08
6.65535e-08
4.99345e-08
1.57873e-08
5.96678e-09
1.24735e-08
1.52036e-08
7.08245e-09
4.54555e-08
1.20669e-07
9.28803e-08
1.18503e-08
1.85082e-09
1.15943e-08
9.40135e-08
0.000892479
0.00103928
0.000976191
0.000510682
0.000104459
2.32792e-06
1.31605e-06
2.85145e-06
1.4315e-05
3.94815e-05
1.56456e-05
3.71943e-07
7.14105e-07
2.25392e-08
1.34185e-09
2.29386e-06
1.41885e-08
1.39578e-08
1.41924e-08
-9.45746e-09
5.80926e-10
5.70837e-10
5.7207e-09
0.00539225
0.00554689
0.0055451
0.00525404
0.00365695
0.000990247
5.2143e-05
0.000100653
0.000373561
0.000643601
0.00051172
5.20926e-05
0.00050786
0.00163942
0.000993205
2.27138e-05
0.00214969
0.0329167
0.0724807
0.0866591
0.0794579
0.00802599
4.99237e-09
0.00329478
0.00386593
0.00507122
0.00517467
0.00506519
0.00213796
0.000148371
0.000153569
0.000544924
0.000696582
0.000696539
0.000517131
0.000129421
0.001468
0.00501405
1.63071e-05
0.0204046
0.081663
0.0951258
0.0977521
0.09775
0.0977521
0.0112683
-8.12812e-40
2.94772e-27
1.05809e-09
0.000702267
0.000266159
0.000370859
0.000233803
5.51723e-05
8.0006e-05
0.000262789
0.000318898
0.000205769
0.000103422
0.000247154
0.00501039
0.0184304
0.0391571
0.0420589
0.0305623
0.0384115
0.0723958
0.0887787
0.08663
0.0266329
0.0266329
0.0266329
0.0266329
0.0266329
0.0266329
0.0266329
0.0266329
0.0266329
0.0266329
0.0266329
0.0266329
0.0270394
0.0281021
0.0279935
0.0271653
0.0267713
0.0267713
0.0267713
0.0266329
0.0315975
0.0283918
0.0266671
0.0273519
0.0273448
0.050471
0.0835864
0.109341
0.124254
0.106915
0.102753
0.0931371
0.0807724
0.0731148
0.0723063
0.0731705
0.0701573
0.0635425
0.19646
0.13279
0.116981
0.157219
0.201014
0.251666
0.291948
0.36698
0.467444
0.488285
0.488434
0.488594
0.492521
0.466783
0.438149
0.426357
0.415724
0.412526
0.412033
0.258015
0.244544
0.227384
0.227032
0.213256
0.156604
0.106175
0.0832309
0.134386
0.38961
0.488297
0.452883
0.492601
0.485037
0.366151
0.416472
0.3578
0.28035
0.406095
0.257941
0.104636
0.0788417
0.0503296
0.0264498
0.0224699
0.0229982
0.0131284
0.0100746
0.0132756
0.310267
0.155076
0.403321
0.244713
0.0610593
0.0618286
0.051094
0.0492406
0.20422
0.2321
0.00388098
0.0038775
0.00391719
0.00391242
0.030467
0.0518731
0.0145241
0.0100754
0.0249029
0.127587
0.0803751
0.135075
0.151771
0.0463051
0.0311808
0.0311364
0.0311788
0.100599
0.112751
0.00396125
0.00442938
0.00488493
0.00488573
0.0213333
0.0698066
0.0136258
0.0100799
0.0143786
0.0218707
0.0218911
0.0227823
0.0231921
0.0519244
0.0477588
0.0314643
0.0312514
0.0455496
0.00788186
0.00454614
0.0621763
0.0472446
0.00589753
0.0380907
0.0701321
0.0106146
0.01042
0.00924067
0.00939195
0.0094898
0.0174781
0.0190612
0.0774922
0.0757094
0.0377472
0.0488799
0.0456022
-9.61715e-39
3.19568e-25
-1.72999e-20
-5.46518e-21
-5.024e-16
2.12011e-09
2.87421e-05
2.39887e-05
1.52759e-05
2.72652e-05
4.83703e-05
0.000114772
0.00010341
0.000109349
0.000890221
0.00814242
0.0217015
0.0183207
0.0126998
0.00748058
0.00709498
0.0105328
0.0178178
4.53039e-20
2.71704e-20
-1.15317e-19
-1.20614e-19
-7.36149e-20
-6.07687e-14
-4.31881e-08
-2.05571e-08
-1.84769e-08
2.27734e-06
8.40301e-06
8.32565e-06
8.71926e-06
9.02466e-06
4.42579e-05
0.000242104
0.000128844
9.27852e-05
9.26857e-05
0.000213526
0.000116992
3.59727e-06
2.8646e-06
0.338747
0.341214
0.374725
0.389111
0.368353
0.278135
0.158179
0.0787765
0.0487652
0.0325644
0.0126881
0.00312478
0.00142955
0.00227611
0.0123875
0.0307776
0.0563694
0.126633
0.143169
0.149171
0.173484
0.202593
0.152525
0.934919
0.949526
0.986764
0.990884
0.970311
0.876636
0.776335
0.697955
0.669798
0.626205
0.550996
0.502245
0.491106
0.575009
0.777443
0.859041
0.849838
0.843338
0.841524
0.869519
0.895929
0.900939
0.840862
0.97974
0.989781
0.990444
0.992735
0.991057
0.963693
0.943794
0.988994
0.998505
0.997754
0.971263
0.929597
0.927995
0.951572
0.999336
0.999595
0.999199
0.99745
0.996798
0.997936
0.997982
0.997803
0.979289
0.997831
0.99807
0.998157
0.998218
0.998379
0.99845
0.998499
0.998558
0.998539
0.998499
0.996052
0.967837
0.960964
0.995079
0.999662
0.999661
0.999662
0.999662
0.999662
0.999527
0.997865
0.995962
0.980632
0.773081
0.756657
0.731359
0.703233
0.678127
0.696934
0.795395
0.911328
0.976814
0.993112
0.998769
0.999636
0.999661
0.999661
0.999661
0.999619
0.999659
0.999662
0.999662
0.999662
0.999609
0.999575
0.990632
0.101126
0.0904595
0.0724428
0.058057
0.0460119
0.0658365
0.110947
0.174158
0.311353
0.545841
0.753622
0.87527
0.944977
0.98235
0.995015
0.998517
0.998664
0.99281
0.986971
0.993248
0.999577
0.999575
0.991308
2.68441e-20
-7.07181e-20
6.97126e-20
3.81585e-19
8.44538e-20
-6.20023e-20
-1.15543e-20
-2.62463e-20
-2.67616e-29
-4.34315e-27
8.83716e-10
0.0573823
0.19788
0.338807
0.456227
0.542245
0.605685
0.665787
0.723097
0.768289
0.803014
0.830662
0.828413
3.9544e-12
8.11345e-11
3.03758e-11
9.84523e-13
6.80508e-16
2.01982e-13
7.04392e-08
-2.44726e-21
-1.82269e-23
3.65851e-14
1.54208e-07
3.51357e-19
-2.93679e-25
-3.51029e-26
7.26342e-25
3.09675e-20
7.9896e-12
0.00536004
0.03238
0.0587405
0.085418
0.0966943
0.084417
4.25785e-12
2.13238e-11
5.94999e-12
-1.8669e-15
1.5665e-18
8.4819e-08
6.24032e-07
2.15876e-07
2.49417e-26
1.06903e-05
1.97371e-05
4.80335e-06
4.29532e-07
7.09426e-07
1.51848e-06
7.32041e-08
1.62717e-08
2.25426e-15
1.94953e-15
4.66431e-27
-2.27002e-22
-6.97569e-22
6.94761e-27
2.67947e-10
1.76651e-11
3.83995e-11
3.36834e-08
1.83306e-07
7.84269e-07
9.54372e-07
5.69401e-07
9.56119e-06
5.6218e-05
5.83525e-05
4.47889e-05
3.02154e-05
3.32328e-05
2.41487e-05
3.0943e-06
3.83443e-07
8.48895e-08
6.73756e-08
2.25011e-08
-5.16215e-27
-1.99472e-18
2.23368e-08
5.23881e-09
9.13115e-09
2.76671e-08
2.01319e-07
5.41361e-07
6.46679e-07
4.68792e-07
2.13221e-06
5.65772e-05
5.83526e-05
5.83526e-05
5.83526e-05
5.83526e-05
5.83526e-05
4.49415e-05
1.71037e-06
5.91193e-09
1.12869e-07
1.23884e-06
1.42115e-06
6.70473e-06
1.66636e-05
1.25462e-05
1.61092e-08
3.76603e-08
5.69158e-08
1.99895e-07
3.62664e-07
4.0705e-07
2.50236e-07
4.25141e-06
2.06626e-05
4.74989e-05
5.64607e-05
3.65635e-05
2.12785e-05
1.62947e-05
1.101e-05
1.32612e-06
5.9632e-09
9.50836e-07
1.60643e-05
1.66705e-05
1.6645e-05
1.66748e-05
1.66888e-05
2.243e-08
3.4286e-08
5.09787e-08
9.04548e-08
1.25838e-07
1.86687e-07
3.10201e-07
7.79484e-07
2.88289e-07
3.36408e-06
3.28405e-06
8.63991e-07
4.20013e-11
2.48827e-11
4.20013e-11
8.53735e-08
5.04436e-09
2.83061e-06
1.51129e-05
1.66025e-05
1.66175e-05
1.5986e-05
6.10151e-06
2.12025e-08
2.43286e-08
3.71577e-08
5.11497e-08
7.39602e-08
1.3741e-07
2.06832e-07
9.12021e-08
1.28336e-07
9.25485e-08
1.53351e-08
1.12387e-08
7.06785e-09
1.09823e-08
7.24417e-09
4.85052e-07
7.90084e-07
9.15261e-08
3.01944e-09
1.58866e-05
1.11769e-05
7.82609e-07
4.85811e-07
1.70691e-08
1.78109e-08
3.28682e-08
5.57175e-08
7.54403e-08
6.90716e-08
3.96031e-08
1.22428e-08
3.57343e-08
4.19926e-08
1.63289e-08
6.0669e-09
1.33013e-08
2.41503e-08
3.6103e-08
9.2715e-08
6.2706e-08
1.47272e-08
3.04342e-09
5.19174e-06
1.02906e-05
1.96978e-06
3.60886e-07
9.38753e-09
1.45463e-08
2.61634e-08
4.36429e-08
4.64379e-08
2.7204e-08
9.82069e-09
9.60747e-09
9.14271e-09
7.95672e-09
4.51933e-09
4.31691e-09
7.27618e-09
6.68271e-09
5.22091e-09
6.65108e-09
4.28456e-09
3.11186e-09
3.02026e-09
3.04342e-09
6.2317e-06
1.70279e-06
2.81299e-07
3.31505e-09
1.06567e-08
1.83866e-08
2.49906e-08
2.10796e-08
1.58954e-08
1.01754e-08
7.42725e-09
5.36588e-09
4.00342e-09
3.0237e-09
2.82633e-09
2.9807e-09
2.50735e-09
2.58858e-09
2.99109e-09
3.1679e-09
3.2553e-09
4.35892e-09
3.56434e-09
2.56106e-08
8.68494e-07
2.40914e-07
2.95732e-09
8.33909e-09
1.27137e-08
1.52019e-08
1.30537e-08
1.0437e-08
7.20954e-09
4.96608e-09
3.43386e-09
2.5556e-09
2.09239e-09
1.87611e-09
1.80235e-09
1.82986e-09
2.1208e-09
2.55314e-09
2.97836e-09
3.34041e-09
3.71423e-09
3.73823e-09
3.76749e-09
4.25769e-07
2.72867e-07
2.71299e-09
5.98591e-09
8.45829e-09
9.23539e-09
8.00219e-09
6.21603e-09
4.25726e-09
2.79959e-09
1.92299e-09
1.4467e-09
1.21907e-09
1.13776e-09
1.16732e-09
1.29107e-09
1.52112e-09
1.84556e-09
2.27816e-09
2.86194e-09
3.71507e-09
4.70397e-09
5.04344e-09
5.36618e-08
9.51298e-08
2.62214e-09
4.32773e-09
5.46968e-09
5.4914e-09
4.54641e-09
3.28556e-09
2.13788e-09
1.38429e-09
9.63174e-10
7.37641e-10
6.31048e-10
6.01217e-10
6.34538e-10
7.27307e-10
8.90734e-10
1.1207e-09
1.4389e-09
1.88541e-09
2.53909e-09
3.61752e-09
4.87769e-09
5.87113e-09
3.2544e-08
2.54101e-09
3.16826e-09
3.46371e-09
3.17121e-09
2.4429e-09
1.66885e-09
1.07806e-09
7.40145e-10
5.50636e-10
4.29156e-10
3.50704e-10
3.11162e-10
3.15793e-10
3.67686e-10
4.68358e-10
6.20868e-10
8.36416e-10
1.13548e-09
1.5558e-09
2.14969e-09
3.10659e-09
4.54667e-09
1.16784e-08
2.48776e-09
2.52855e-09
2.39513e-09
1.99305e-09
1.50917e-09
1.06827e-09
7.22444e-10
5.59189e-10
4.58662e-10
3.61973e-10
2.72857e-10
2.05531e-10
1.74624e-10
1.84265e-10
2.3383e-10
3.23798e-10
4.58082e-10
6.46e-10
9.13741e-10
1.27792e-09
1.71935e-09
2.72982e-09
4.85134e-09
2.51035e-09
2.20089e-09
1.90001e-09
1.56748e-09
1.28335e-09
1.00554e-09
6.81791e-10
5.77907e-10
5.05852e-10
4.07249e-10
2.97624e-10
1.98019e-10
1.31857e-10
1.05116e-10
1.15361e-10
1.58666e-10
2.34314e-10
3.48e-10
5.04982e-10
7.05999e-10
9.7252e-10
1.32081e-09
2.06591e-09
2.57472e-09
2.09233e-09
1.76243e-09
1.55756e-09
1.42176e-09
1.16403e-09
7.17651e-10
6.36871e-10
5.8545e-10
4.86584e-10
3.60841e-10
2.34721e-10
1.38364e-10
8.22323e-11
6.35702e-11
7.55192e-11
1.1275e-10
1.76886e-10
2.70245e-10
3.94197e-10
5.36145e-10
7.97329e-10
1.07064e-09
2.65348e-09
2.10825e-09
1.82427e-09
1.7445e-09
1.73409e-09
1.34509e-09
7.0947e-10
6.85762e-10
6.51867e-10
5.57342e-10
4.26594e-10
2.84979e-10
1.66433e-10
8.77893e-11
4.76745e-11
3.88844e-11
5.29654e-11
8.62722e-11
1.3898e-10
2.1178e-10
3.13526e-10
4.31101e-10
6.09349e-10
2.78445e-09
2.19259e-09
1.97717e-09
1.95144e-09
1.65299e-09
1.18714e-09
6.76199e-10
7.62173e-10
6.86878e-10
6.0008e-10
4.72499e-10
3.28971e-10
1.97883e-10
1.04754e-10
4.9223e-11
2.62763e-11
2.59631e-11
4.15256e-11
7.22492e-11
1.19594e-10
1.82328e-10
2.94885e-10
3.93888e-10
2.84044e-09
2.31069e-09
1.97888e-09
2.2729e-09
1.27722e-08
4.52051e-10
7.43168e-10
1.04926e-09
6.6392e-10
6.05043e-10
4.83723e-10
3.49164e-10
2.19932e-10
1.21869e-10
5.70123e-11
2.45817e-11
1.5421e-11
2.11162e-11
3.84137e-11
6.68599e-11
1.20533e-10
1.78772e-10
2.80732e-10
3.14848e-09
3.75195e-09
6.22225e-09
1.39479e-08
2.26445e-08
4.27301e-10
1.16462e-09
2.18516e-09
5.42845e-10
5.33471e-10
4.44668e-10
3.40038e-10
2.24095e-10
1.30696e-10
6.40652e-11
2.70907e-11
1.23178e-11
1.20785e-11
2.18169e-11
4.12732e-11
7.12225e-11
1.36378e-10
1.96027e-10
4.33192e-09
8.15131e-09
4.89127e-08
3.32203e-07
4.29687e-10
4.26237e-10
2.31443e-09
4.73785e-09
4.18742e-10
4.69635e-10
3.9038e-10
3.04621e-10
2.07523e-10
1.25466e-10
6.67131e-11
2.94836e-11
1.1776e-11
7.81929e-12
1.27085e-11
2.48788e-11
5.229e-11
8.74349e-11
1.46931e-10
7.16319e-09
3.20346e-08
1.29027e-07
4.16666e-07
2.20079e-08
6.92976e-09
3.40679e-08
2.82662e-09
3.95732e-10
4.25195e-10
3.23535e-10
2.50917e-10
1.72496e-10
1.09347e-10
6.16812e-11
2.93272e-11
1.17506e-11
5.63304e-12
7.26136e-12
1.49357e-11
2.99117e-11
6.70214e-11
1.02601e-10
8.61349e-09
7.8742e-08
4.11332e-07
3.32234e-07
2.52656e-08
1.95068e-08
6.54113e-08
1.17102e-09
4.04543e-10
3.7446e-10
2.49377e-10
1.91002e-10
1.33026e-10
8.45706e-11
5.00633e-11
2.5899e-11
1.10379e-11
4.48774e-12
3.99382e-12
8.39526e-12
1.92975e-11
3.56035e-11
7.42789e-11
1.19536e-08
1.30244e-07
7.85982e-07
5.39514e-07
8.65181e-08
8.59068e-08
7.17633e-08
8.95167e-09
5.91358e-10
3.1283e-10
1.79974e-10
1.362e-10
9.45107e-11
5.87129e-11
3.53131e-11
1.97038e-11
9.30755e-12
3.72899e-12
2.31962e-12
4.2491e-12
9.49197e-12
2.63634e-11
4.16748e-11
1.19394e-08
1.71388e-07
8.37425e-07
8.37425e-07
1.47778e-07
1.41669e-07
7.65033e-08
1.1154e-08
8.89231e-10
2.42794e-10
1.21793e-10
9.17128e-11
6.14507e-11
3.67824e-11
2.14662e-11
1.25909e-11
6.61471e-12
2.85771e-12
1.44443e-12
2.1222e-12
4.78026e-12
1.05473e-11
2.61919e-11
1.14476e-08
1.66508e-07
8.37425e-07
8.37389e-07
1.24735e-07
1.50287e-07
6.40621e-08
1.18401e-08
1.12173e-09
1.78419e-10
7.60344e-11
5.62174e-11
3.68751e-11
2.07514e-11
1.13438e-11
6.61681e-12
3.86007e-12
1.89279e-12
8.89398e-13
1.06195e-12
2.49331e-12
6.31281e-12
1.20685e-11
9.82811e-09
1.43727e-07
8.37425e-07
8.37425e-07
1.36624e-07
1.42779e-07
5.79743e-08
1.32683e-08
1.54679e-09
1.38931e-10
4.30382e-11
3.15901e-11
2.0385e-11
1.06407e-11
5.24243e-12
2.83866e-12
1.73009e-12
9.89122e-13
4.88277e-13
4.0564e-13
8.83091e-13
2.10366e-12
6.52639e-12
6.19106e-09
1.05266e-07
8.37425e-07
6.07873e-07
1.28399e-07
9.12118e-08
4.32971e-08
1.26372e-08
2.00432e-09
1.48905e-10
2.14056e-11
1.5579e-11
1.0099e-11
5.00658e-12
2.16761e-12
1.0084e-12
5.8556e-13
3.80078e-13
2.2422e-13
1.69928e-13
3.56567e-13
9.37138e-13
2.15197e-12
4.31202e-09
9.75333e-08
6.80817e-07
2.05369e-07
9.85128e-08
5.70798e-08
2.74696e-08
8.52215e-09
1.5402e-09
1.41265e-10
9.97871e-12
6.46167e-12
4.34134e-12
2.09546e-12
8.09501e-13
2.99084e-13
1.46756e-13
1.00877e-13
7.51459e-14
5.87941e-14
1.01508e-13
2.92902e-13
7.9239e-13
4.31202e-09
9.67226e-08
1.09007e-07
6.32817e-08
6.80216e-08
5.06116e-08
2.00804e-08
5.28966e-09
9.12871e-10
7.7259e-11
3.88548e-12
2.05428e-12
1.49121e-12
7.29604e-13
2.63273e-13
7.99034e-14
2.82826e-14
1.76104e-14
1.68254e-14
1.74212e-14
2.86992e-14
8.7878e-14
2.4263e-13
4.39732e-09
3.79928e-08
7.852e-08
5.12e-08
5.95032e-08
3.30317e-08
1.04653e-08
2.16454e-09
2.86553e-10
1.79695e-11
6.86136e-13
4.18797e-13
3.43399e-13
1.7864e-13
6.32156e-14
1.64582e-14
3.99831e-15
1.98362e-15
2.59341e-15
3.85912e-15
6.77476e-15
2.28958e-14
7.02422e-14
5.75901e-09
5.78144e-09
1.41695e-08
5.21165e-08
3.65532e-08
1.07702e-08
1.8087e-09
2.11398e-10
1.3728e-11
5.18553e-13
3.00471e-14
4.12953e-14
3.98081e-14
2.27171e-14
8.28488e-15
1.91157e-15
3.42954e-16
1.3832e-16
2.81625e-16
6.98992e-16
1.68988e-15
5.5399e-15
1.88277e-14
0.0159268
0.0100137
0.00611599
0.00899098
-3.46101e-05
-2.06129e-05
-3.22709e-19
0.00581451
0.0603281
0.0497682
0.0424855
0.0260104
0.69246
0.508405
0.409349
0.409071
0.966214
0.961235
0.959077
0.961626
0.966462
0.96669
0.967438
0.989611
0.973688
0.975139
0.993299
0.995919
0.980694
0.977711
0.977717
0.977719
0.735291
0.632312
0.608468
0.665268
0.0526494
0.0371618
0.0342607
0.0383877
6.95144e-10
3.91339e-15
1.16442e-10
-5.03219e-10
1.38782e-07
5.40948e-08
7.45825e-08
1.17597e-07
4.06729e-06
3.92441e-07
7.10376e-08
1.00365e-07
1.66904e-05
1.21843e-05
2.87706e-07
9.12946e-08
1.2319e-06
7.62383e-07
3.18754e-07
3.50378e-07
2.91459e-07
4.08446e-07
5.98366e-07
9.61821e-06
1.66969e-07
2.91287e-08
8.68875e-06
2.23834e-05
1.07508e-07
2.67403e-08
3.17525e-06
1.59027e-05
8.77207e-08
1.78562e-08
8.83207e-07
1.28469e-06
8.7359e-08
1.82128e-08
7.79834e-08
5.17222e-08
6.38962e-08
1.81251e-08
1.82025e-08
5.1923e-08
2.85213e-08
1.83216e-08
3.06278e-08
6.54715e-08
1.60388e-08
2.07284e-08
2.66873e-08
4.11116e-08
6.76313e-09
8.0827e-09
1.36457e-08
1.61204e-08
2.77998e-09
3.22215e-09
4.04208e-09
5.62434e-09
1.29679e-09
1.55682e-09
1.82961e-09
2.1099e-09
7.50734e-10
8.46965e-10
9.81561e-10
1.10156e-09
4.94877e-10
5.85066e-10
6.61407e-10
7.28745e-10
3.56533e-10
4.23774e-10
4.97214e-10
5.54571e-10
2.66279e-10
3.34381e-10
3.87864e-10
4.45797e-10
2.04036e-10
2.49044e-10
3.07221e-10
3.54455e-10
1.5292e-10
1.94956e-10
2.29809e-10
2.80592e-10
1.0422e-10
1.29482e-10
1.68653e-10
1.90944e-10
7.38036e-11
8.74014e-11
1.05855e-10
1.34447e-10
3.85984e-11
4.99139e-11
6.53112e-11
7.38576e-11
2.17572e-11
2.68713e-11
3.36576e-11
4.34065e-11
9.93255e-12
1.32686e-11
1.66042e-11
1.95181e-11
4.23128e-12
5.14426e-12
6.79666e-12
8.6759e-12
1.37964e-12
1.85829e-12
2.35603e-12
2.93809e-12
4.37343e-13
5.71701e-13
7.78935e-13
9.96097e-13
1.25686e-13
1.66215e-13
2.12498e-13
2.6802e-13
3.31422e-14
3.98543e-14
4.73963e-14
5.48368e-14
0.00927042
0.0760628
0.119599
0.105077
0.0213998
0.0454491
0.0126206
0.0159397
0.102026
0.0588667
0.00947859
0.00961066
0.0129349
0.0130125
0.0929039
0.062569
0.0624006
0.0637732
0.0456711
0.010652
0.072492
0.0937805
0.0298883
0.0238246
0.0466159
0.0217449
0.420755
0.797866
0.625021
0.318309
0.196204
0.0717348
0.0986195
0.173401
0.297156
0.406464
0.258292
0.0733906
0.0307176
0.205554
0.345476
0.303143
0.118337
0.119232
0.537414
0.960481
0.972687
0.902325
0.884061
0.816212
0.685859
0.740744
0.891385
0.928197
0.943293
0.932443
0.92878
0.588243
0.837652
0.86818
0.725721
0.530208
0.532799
0.925226
0.992156
0.988307
0.975947
0.93957
0.938819
0.993726
0.995626
0.996245
0.996836
0.997163
0.997153
0.99461
0.974323
0.994929
0.988558
0.861402
0.725778
0.722671
0.985024
0.997623
0.997621
0.997619
0.997618
0.997617
0.992606
0.986704
0.986667
0.993551
0.997151
0.994776
0.991414
0.999104
0.999104
0.999104
0.925544
0.756319
0.724333
0.988171
0.997624
0.997622
0.997621
0.997618
0.997591
0.997604
0.997607
0.997604
0.997607
0.996864
0.967869
0.915711
0.998885
0.999104
0.999104
0.978091
0.825248
0.766472
0.94406
0.997626
0.997621
0.997615
0.989733
0.97658
0.961079
0.937373
0.893326
0.815869
0.641714
0.383628
0.253529
0.991142
0.999104
0.998978
0.998959
0.99334
0.980559
0.976533
0.980849
0.898588
0.653801
0.447825
0.35368
0.283737
0.2088
0.130362
0.0550654
5.38086e-09
8.43086e-09
4.12608e-13
0.732651
0.785825
0.834178
0.860699
0.861842
0.800664
0.674022
0.458607
0.21746
0.0240403
-1.39314e-09
7.22262e-16
-2.91836e-10
1.59339e-24
-1.01487e-23
1.20963e-06
6.71945e-06
8.95686e-06
4.7553e-07
0.0414627
0.0446588
0.0673791
0.0844809
0.0857222
0.0641388
0.0260313
1.77469e-10
5.15599e-10
1.40485e-09
1.10361e-08
1.8751e-07
1.1509e-06
1.56775e-06
2.56825e-06
1.8738e-05
5.84849e-05
5.71559e-05
1.30369e-05
-7.47834e-18
1.74328e-10
1.03658e-09
1.0523e-10
-8.86492e-11
2.05229e-19
1.57161e-12
1.77268e-07
5.24392e-06
8.42479e-06
1.04537e-08
5.81497e-06
2.14416e-06
1.52092e-06
1.53809e-06
4.81939e-05
0.000116757
0.000115824
6.7005e-05
3.10393e-08
1.93966e-09
2.56192e-08
6.02304e-08
1.04375e-08
3.22769e-07
1.51691e-06
1.15914e-06
1.12005e-05
1.8122e-05
3.45416e-05
4.04715e-05
1.80691e-05
3.29981e-06
2.09195e-06
2.7206e-05
0.000116903
0.000117067
0.00011643
1.51515e-07
1.84054e-07
2.36975e-07
1.44645e-07
9.75686e-09
2.51636e-06
7.90651e-06
1.1105e-06
4.53764e-05
5.96139e-05
4.83654e-05
6.08973e-05
9.44773e-05
5.58914e-05
3.34571e-06
1.32915e-05
0.000117462
0.000117507
2.98351e-05
3.41919e-07
5.7373e-07
3.22457e-07
1.33224e-06
3.29036e-06
5.12928e-05
6.63904e-05
5.12893e-05
8.97187e-05
0.000104589
6.28753e-05
0.000185565
0.000185076
9.03989e-05
3.30696e-06
9.04813e-05
0.00011751
0.000117502
1.10606e-05
6.71876e-07
1.51184e-06
3.15935e-06
6.71557e-05
7.61912e-05
7.64264e-05
7.6503e-05
0.000198004
0.000215743
0.000215569
0.000211906
0.000161825
0.00010878
1.26951e-05
2.06597e-05
0.000117513
0.000117513
7.45183e-05
1.10857e-05
1.37198e-05
1.93401e-05
6.86687e-05
7.8911e-05
7.89368e-05
5.08024e-05
0.000192769
0.000215326
0.000215128
0.000106809
1.36797e-05
8.65811e-06
8.86402e-06
1.4408e-05
4.67509e-05
3.84203e-05
0.000116558
3.01707e-05
1.1077e-05
2.15973e-05
1.15274e-06
1.53286e-05
3.57811e-05
3.1021e-05
3.41662e-05
0.000198873
0.000189081
3.04258e-05
5.19764e-06
5.19283e-06
6.57005e-06
9.27581e-06
1.89049e-05
1.60959e-05
9.79122e-06
1.99931e-05
3.49867e-05
1.1623e-05
2.1334e-07
1.12563e-06
3.64372e-06
4.6144e-06
5.02253e-06
5.30004e-06
3.97139e-05
4.03931e-06
4.26537e-06
1.15008e-05
5.22603e-06
3.63298e-06
5.22901e-06
1.70706e-05
6.24356e-06
9.96858e-06
1.03634e-05
1.81172e-05
9.62952e-06
2.05495e-07
2.1311e-08
4.37112e-06
7.63004e-06
3.94641e-06
3.36027e-06
3.35961e-06
4.0181e-06
4.04616e-06
5.50842e-06
6.37512e-06
5.60967e-06
5.59754e-06
3.0686e-06
2.45532e-08
1.11857e-05
1.29577e-05
1.0974e-06
9.75489e-07
5.18822e-08
2.13253e-08
2.11459e-08
7.06793e-06
1.41182e-05
1.40457e-05
1.41515e-05
6.12083e-06
6.7978e-06
1.03402e-05
2.20096e-05
2.85591e-05
2.01925e-05
3.42738e-06
1.60319e-08
9.82978e-06
1.50595e-05
1.89646e-06
1.34993e-07
8.64887e-08
5.25323e-08
2.10099e-08
2.08497e-07
6.45631e-06
8.01601e-06
1.28082e-06
6.24743e-06
3.2917e-05
3.66818e-05
3.67452e-05
3.67363e-05
3.67387e-05
1.77943e-05
1.5972e-08
5.28811e-06
2.50143e-05
7.23878e-06
1.35017e-07
8.64672e-08
7.01225e-08
5.4404e-08
8.2353e-08
2.57903e-07
2.55776e-07
6.89841e-07
5.43921e-07
3.46957e-08
3.49678e-08
8.25447e-06
3.43381e-05
3.10011e-05
6.55845e-06
1.59729e-08
5.47032e-06
2.50389e-05
1.06975e-05
1.35409e-07
4.70648e-08
5.78264e-08
6.50134e-08
6.72899e-08
6.22977e-08
5.14838e-08
5.15097e-08
6.35153e-08
6.49658e-08
3.79476e-08
1.59121e-08
1.59684e-08
1.59045e-08
1.59729e-08
1.59266e-08
1.88048e-06
2.50143e-05
9.09717e-06
1.38624e-07
1.99972e-08
2.88992e-08
3.95175e-08
4.54948e-08
4.71566e-08
4.5269e-08
3.89631e-08
3.34055e-08
3.49073e-08
3.98563e-08
3.14759e-08
2.37279e-08
2.4505e-08
1.5962e-08
1.59729e-08
3.57884e-07
1.46179e-05
3.90387e-06
1.72957e-07
6.97082e-09
9.22713e-09
1.29702e-08
1.64672e-08
1.91343e-08
2.18052e-08
2.39911e-08
2.40368e-08
2.75849e-08
4.47008e-08
5.78041e-08
6.98402e-08
7.03466e-08
4.17966e-08
2.88345e-08
2.04484e-06
1.98002e-07
2.98713e-07
1.65811e-07
2.49349e-09
3.15007e-09
3.96051e-09
5.16004e-09
6.68866e-09
8.79759e-09
1.10369e-08
1.32532e-08
1.53966e-08
2.17699e-08
4.05165e-08
5.17643e-08
4.72891e-08
3.2941e-08
3.91108e-08
4.65922e-07
1.99483e-07
7.88944e-08
1.01073e-07
1.22138e-09
1.47048e-09
1.81668e-09
2.2941e-09
3.04797e-09
4.15296e-09
5.64813e-09
7.37379e-09
9.61743e-09
1.31855e-08
1.81737e-08
2.43598e-08
2.63419e-08
3.28444e-08
1.26608e-07
2.93499e-07
1.40707e-07
7.90839e-08
7.46457e-08
8.11003e-10
9.87665e-10
1.22681e-09
1.53928e-09
1.99158e-09
2.63819e-09
3.51335e-09
4.78474e-09
6.66002e-09
1.00531e-08
1.53705e-08
1.91611e-08
2.1523e-08
5.29844e-08
1.15273e-07
1.02033e-07
4.57949e-08
6.10939e-08
5.09942e-08
6.28524e-10
7.95806e-10
1.00639e-09
1.27603e-09
1.64586e-09
2.14336e-09
2.78828e-09
3.64442e-09
4.97839e-09
7.03434e-09
1.00195e-08
1.17568e-08
1.71662e-08
7.09776e-08
8.60955e-08
4.91385e-08
2.68906e-08
2.68528e-08
4.48717e-08
5.17442e-10
6.73471e-10
8.78958e-10
1.14953e-09
1.53135e-09
2.05061e-09
2.72362e-09
3.57055e-09
4.58803e-09
6.03271e-09
8.15715e-09
9.58261e-09
1.28136e-08
6.81536e-08
6.63568e-08
2.95992e-08
2.67659e-08
4.19159e-08
4.96854e-08
4.23095e-10
5.6559e-10
7.62229e-10
1.04579e-09
1.47238e-09
2.09124e-09
2.97706e-09
4.13698e-09
5.45937e-09
7.02226e-09
9.70168e-09
1.26143e-08
9.10223e-09
3.18032e-08
3.93862e-08
2.95884e-08
5.00915e-08
6.54026e-08
6.22076e-08
3.29512e-10
4.50321e-10
6.27746e-10
9.09578e-10
1.38528e-09
2.11118e-09
3.3043e-09
4.91693e-09
7.04662e-09
9.40697e-09
1.50203e-08
2.62036e-08
9.1029e-09
1.19987e-08
2.18952e-08
9.03926e-08
1.3246e-07
2.5226e-07
1.26014e-07
2.42314e-10
3.3207e-10
4.80148e-10
7.32985e-10
1.19868e-09
2.02245e-09
3.51098e-09
5.93346e-09
9.15875e-09
1.30648e-08
2.26735e-08
6.00659e-08
5.0455e-08
1.10001e-08
1.1008e-08
8.54002e-08
2.59765e-07
3.09283e-07
2.59095e-06
1.53745e-10
2.26733e-10
3.4113e-10
5.44403e-10
9.65497e-10
1.80173e-09
3.48894e-09
6.66382e-09
1.19046e-08
1.82895e-08
3.1311e-08
1.3163e-07
5.08478e-07
5.33428e-07
1.66151e-08
4.90684e-08
2.20533e-07
4.00592e-07
2.8616e-06
9.59977e-11
1.36013e-10
2.11435e-10
3.66335e-10
6.97631e-10
1.43772e-09
3.08624e-09
6.6834e-09
1.33622e-08
2.38577e-08
4.24298e-08
1.04914e-07
1.18427e-06
6.02652e-06
4.60711e-06
4.93858e-08
1.55027e-07
3.58031e-07
2.86934e-06
5.00107e-11
7.47559e-11
1.19065e-10
2.13805e-10
4.40303e-10
9.9764e-10
2.38823e-09
5.61378e-09
1.25145e-08
2.45785e-08
4.77655e-08
1.10069e-07
7.98351e-07
6.28156e-06
7.00088e-06
3.59058e-06
1.5507e-07
2.46438e-07
1.97677e-06
2.39994e-11
3.61328e-11
5.86524e-11
1.09898e-10
2.43898e-10
6.01269e-10
1.56261e-09
3.9989e-09
9.39436e-09
2.0778e-08
4.33925e-08
1.04017e-07
2.76624e-07
2.11568e-06
6.99711e-06
6.91222e-06
8.08767e-07
2.40304e-07
7.01422e-07
1.02829e-11
1.55248e-11
2.5656e-11
5.00129e-11
1.15147e-10
3.05319e-10
8.61958e-10
2.39943e-09
6.13462e-09
1.48018e-08
3.15572e-08
7.65293e-08
1.58458e-07
4.0168e-07
3.70954e-06
7.06178e-06
6.56481e-06
1.66914e-06
2.38935e-06
3.88245e-12
5.88198e-12
9.80454e-12
1.93291e-11
4.57482e-11
1.26011e-10
3.8112e-10
1.1312e-09
3.11431e-09
7.3811e-09
1.82531e-08
4.1278e-08
9.58211e-08
1.76888e-07
3.56884e-07
3.84546e-06
6.52322e-06
2.56305e-06
2.25133e-06
1.20446e-12
1.81624e-12
3.16675e-12
6.39436e-12
1.60706e-11
4.80342e-11
1.59299e-10
5.31091e-10
1.69827e-09
4.80444e-09
1.19918e-08
2.84144e-08
6.651e-08
1.31504e-07
2.37595e-07
4.88777e-07
8.83701e-07
1.33504e-06
4.74117e-07
3.17062e-13
4.72771e-13
7.85655e-13
1.5575e-12
3.90035e-12
1.22047e-11
4.4109e-11
1.70151e-10
6.23033e-10
2.05149e-09
6.25905e-09
1.68558e-08
4.42965e-08
1.03987e-07
1.65481e-07
1.85375e-07
2.2971e-07
2.92088e-07
1.4368e-07
6.22376e-14
8.67266e-14
1.36982e-13
2.61332e-13
6.04044e-13
1.73843e-12
6.28248e-12
2.63588e-11
1.1572e-10
4.59901e-10
1.44911e-09
4.0528e-09
9.76289e-09
2.51642e-08
8.5129e-08
1.44632e-07
1.19442e-07
1.10478e-07
1.07112e-07
)
;

boundaryField
{
    leftWall
    {
        type            zeroGradient;
    }
    rightWall
    {
        type            zeroGradient;
    }
    lowerWall
    {
        type            zeroGradient;
    }
    atmosphere
    {
        type            inletOutlet;
        inletValue      uniform 0;
        value           nonuniform List<scalar> 
46
(
5.75901e-09
5.78144e-09
1.41695e-08
5.21165e-08
3.65532e-08
1.07702e-08
1.8087e-09
2.11398e-10
1.3728e-11
5.18553e-13
0
0
0
0
0
0
0
1.3832e-16
2.81625e-16
6.98992e-16
1.68988e-15
5.5399e-15
1.88277e-14
0
0
0
0
0
0
0
0
0
0
0
0
0
0
0
0
0
0
0
0
1.19442e-07
1.10478e-07
0
)
;
    }
    defaultFaces
    {
        type            empty;
    }
}


// ************************************************************************* //
