/*--------------------------------*- C++ -*----------------------------------*\
| =========                 |                                                 |
| \\      /  F ield         | OpenFOAM: The Open Source CFD Toolbox           |
|  \\    /   O peration     | Version:  2312                                  |
|   \\  /    A nd           | Website:  www.openfoam.com                      |
|    \\/     M anipulation  |                                                 |
\*---------------------------------------------------------------------------*/
FoamFile
{
    version     2.0;
    format      ascii;
    arch        "LSB;label=32;scalar=64";
    class       volScalarField;
    location    "4.5";
    object      alphas;
}
// * * * * * * * * * * * * * * * * * * * * * * * * * * * * * * * * * * * * * //

dimensions      [0 0 0 0 0 0 0];

internalField   nonuniform List<scalar> 
2268
(
2
2
2
2
2
2
2
2
2
2
2
2
2
2
2
2
2
2
2
2
1.99996
1.99995
1.99996
2
2
2
2
2
2
2
2
2
2
2
2
2
2
2
2
2
2
2
2
1.99999
1.99997
1.99998
2
2
2
2
2
2
2
2
2
2
2
2
2
2
2
2
2
2
2
2
2
2
2
2
2
2
2
2
2
2
2
2
2
2
2
2
2
2
2
2
2
2
2
2
2
2
1.99923
1.99909
1.99923
1.99973
2.00004
2.00002
2
2
1.99999
1.99997
1.99999
2
2
2
2
2.00001
2
2
2
2
2
2.00041
2.00408
1.20625
1.27431
1.36841
1.46782
1.57079
1.67038
1.76515
1.84596
1.90766
1.95018
1.97833
1.99423
1.99916
1.99837
1.99901
1.99213
1.94522
1.90955
1.8427
1.75041
1.64996
1.47438
1.37381
0.00627153
0.00696753
0.0268313
0.0710792
0.127949
0.194842
0.285007
0.39835
0.529777
0.670811
0.815159
0.945594
1.01375
1.03187
0.975686
0.83487
0.719121
0.641292
0.535792
0.425188
0.348077
0.301781
0.192697
0.000856354
0.000839882
0.000839816
0.00272727
0.00316746
0.00260611
0.0018094
0.00138187
0.000678288
0.000532952
0.000653746
0.000563523
0.00750935
0.00902825
0.00947292
0.0200241
0.0408125
0.0442223
0.032464
0.0525212
0.106965
0.109721
0.102263
1.94466
1.95433
1.96982
1.96793
1.96019
1.9546
1.95409
1.9559
1.95508
1.95458
1.95466
1.95942
1.96367
1.96473
1.96463
1.96591
1.97035
1.96956
1.96912
1.91908
1.96352
1.97176
1.97481
1.97456
1.97737
1.95813
1.92376
1.89332
1.8773
1.89463
1.89884
1.90841
1.92032
1.9281
1.93148
1.93443
1.93657
1.9412
1.77895
1.8667
1.88251
1.84229
1.79931
1.7596
1.58894
1.3655
1.29087
1.26918
1.28026
1.32144
1.40441
1.43963
1.45411
1.45753
1.44931
1.41927
1.4157
1.45585
1.42596
1.37507
1.24922
0.985126
0.6468
0.353458
0.238365
0.227368
0.459924
0.558758
0.516167
0.590134
0.600694
0.465316
0.530125
0.465352
0.355962
0.46877
0.461213
0.235686
0.244848
0.210641
0.174688
0.187844
0.194223
0.116525
0.0578484
0.0806745
0.360209
0.166435
0.465384
0.317743
0.136999
0.140027
0.136493
0.140579
0.261368
0.256265
0.019222
0.0292493
0.0225695
0.03074
0.162536
0.145032
0.0466078
0.0468459
0.0589237
0.140751
0.0904858
0.149648
0.177467
0.165728
0.217792
0.22421
0.200725
0.158426
0.136828
0.0141573
0.0131342
0.011952
0.012046
0.0614854
0.116506
0.047152
0.0468398
0.0427325
0.0340118
0.0341634
0.0330342
0.0332506
0.232565
0.359289
0.342453
0.233418
0.150336
0.0203994
0.0122672
0.0692302
0.0555747
0.0128724
0.0450047
0.0992311
0.0551236
0.0530555
0.0535478
0.0584439
0.0556949
0.0413996
0.0392249
0.289917
0.366315
0.201387
0.139805
0.150339
0.00454502
0.000839878
0.000839753
0.000832425
0.000815979
0.000804661
0.000752715
0.00074102
0.000747635
0.000728205
0.000686509
0.000542583
0.000541553
0.000552665
0.00102581
0.00829057
0.0220274
0.0188448
0.0131064
0.00802895
0.0114464
0.01439
0.0217895
0.0915688
0.0221623
0.00839907
0.00701108
0.0132119
0.0143967
0.00810295
0.00456927
0.00206216
0.000759563
0.000760421
0.000868666
0.000991425
0.000815926
0.000748351
0.000362824
0.000474558
0.00202722
0.00336249
0.00390265
0.00463988
0.0209166
0.0966405
0.459301
0.434858
0.412288
0.424709
0.4344
0.411994
0.324222
0.235966
0.179887
0.133803
0.0960343
0.0966419
0.11381
0.0903344
0.0396779
0.112935
0.285975
0.361976
0.371962
0.369069
0.365235
0.362573
0.318553
1.05549
1.03345
1.02028
1.01583
1.04022
1.082
1.00576
0.926661
0.880538
0.839194
0.760521
0.671418
0.66212
0.791294
0.981253
0.948261
0.959901
1.02509
1.0366
1.00178
0.971127
0.970734
0.943933
1.0402
1.02006
1.01789
1.01344
1.01764
1.07253
1.11224
1.0217
1.00271
1.00431
1.0574
1.14012
1.14086
1.09502
1.00051
1.00065
1.00141
1.00494
1.00625
1.00387
1.00254
1.00303
1.03863
1.00415
1.00356
1.00338
1.00332
1.00313
1.00302
1.00292
1.00281
1.00255
1.00247
1.00779
1.06424
1.07791
1.00966
1.00024
1.00004
1.0005
1.00064
1.00052
0.999737
0.998084
1.00051
1.03351
1.45365
1.48504
1.5355
1.59322
1.64051
1.59149
1.39343
1.16183
1.03109
0.99982
0.999132
1.00001
1.00019
1.00054
1.00004
0.999695
0.999762
1.0001
1.00016
1.00002
0.999972
0.999999
0.99879
2.79593
2.81754
2.85359
2.87666
2.88901
2.84929
2.76412
2.63517
2.35696
1.88792
1.47234
1.22907
1.09744
1.03487
1.0099
1.0012
0.998664
0.99281
0.986976
0.99348
1.00003
0.999786
0.99131
2.99753
2.99782
2.99896
2.99391
2.98109
2.9853
2.99782
2.99903
2.99513
2.98463
2.98645
2.88254
2.60332
2.32187
2.08751
1.89632
1.73826
1.61806
1.50343
1.41294
1.34828
1.3174
1.31257
2.99781
2.99776
2.99929
2.99791
2.99266
2.99798
3
3
3
3
3
3
2.9999
2.99944
2.99815
2.99506
2.98055
2.95085
2.89124
2.8446
2.80464
2.7808
2.77646
2.99884
2.99981
2.99983
2.99999
3
3
3
3
3
2.99997
2.99996
2.99999
3
3
3
3
2.99999
2.99998
2.99998
2.99998
2.99923
2.99704
2.99047
3
3
2.99999
3
3
3
3
3
2.99997
2.99987
2.99987
2.99991
2.99992
2.9999
2.99994
2.99999
3
3
3
3
3
3
3
3
3
3
3
3
3
3
2.99998
2.99987
2.99987
2.99987
2.99983
2.99983
2.99983
2.99985
2.99996
3
3
2.99999
2.99999
2.99998
2.99993
2.99995
3
3
3
3
3
3
3
2.99998
2.99994
2.9999
2.99988
2.99989
2.9999
2.99991
2.99992
2.99994
2.99997
3
2.99993
2.99991
2.99991
2.99991
2.99991
3
3
3
3
3
3
3
2.99999
3
2.99999
2.99999
2.99999
3
2.99999
2.99994
2.99994
2.99997
2.99999
2.99992
2.99991
2.99991
2.99991
2.99995
3
3
3
3
3
3
3
3
3
3
3
3
3
3
2.99999
2.99998
2.99999
3
3
2.99991
2.99994
2.99999
3
3
3
3
3
3
3
3
3
3
3
3
3
3
3
3
3
3
3
3
2.99998
2.99996
2.99999
3
3
3
3
3
3
3
3
3
3
3
3
3
3
3
3
3
3
3
3
3
2.99998
2.99999
3
3
3
3
3
3
3
3
3
3
3
3
3
3
3
3
3
3
3
3
3
3
3
3
3
3
3
3
3
3
3
3
3
3
3
3
3
3
3
3
3
3
3
3
3
3
3
3
3
3
3
3
3
3
3
3
3
3
3
3
3
3
3
3
3
3
3
3
3
3
3
3
3
3
3
3
3
3
3
3
3
3
3
3
3
3
3
3
3
3
3
3
3
3
3
3
3
3
3
3
3
3
3
3
3
3
3
3
3
3
3
3
3
3
3
3
3
3
3
3
3
3
3
3
3
3
3
3
3
3
3
3
3
3
3
3
3
3
3
3
3
3
3
3
3
3
3
3
3
3
3
3
3
3
3
3
3
3
3
3
3
3
3
3
3
3
3
3
3
3
3
3
3
3
3
3
3
3
3
3
3
3
3
3
3
3
3
3
3
3
3
3
3
3
3
3
3
3
3
3
3
3
3
3
3
3
3
3
3
3
3
3
3
3
3
3
3
3
3
3
3
3
3
3
3
3
3
3
3
3
3
3
3
3
3
3
3
3
3
3
3
3
3
3
3
3
3
3
3
3
3
3
3
3
3
3
3
3
3
3
3
3
3
3
3
3
3
3
3
3
3
3
3
3
3
3
3
3
3
3
3
3
3
3
3
3
3
3
3
3
3
3
3
3
3
3
3
3
3
3
3
3
3
3
3
3
3
3
3
3
3
3
3
3
3
3
3
3
3
3
3
3
3
3
3
3
3
3
3
3
3
3
3
3
3
3
3
3
3
3
3
3
3
3
3
3
3
3
3
3
3
3
3
3
3
3
3
3
3
3
3
3
3
3
3
3
3
3
3
3
3
3
3
3
3
3
3
3
3
3
3
3
3
3
3
3
3
3
3
3
3
3
3
3
3
3
3
3
3
3
3
3
3
3
3
3
3
3
3
3
3
3
3
3
3
3
3
3
3
3
3
3
3
3
3
3
3
3
3
3
3
3
3
3
3
3
3
3
3
3
3
3
3
3
3
3
3
3
3
3
3
3
3
3
3
3
3
3
3
3
3
3
3
3
3
3
3
3
3
3
3
3
3
3
3
3
3
3
3
3
3
3
3
3
3
3
3
3
3
3
3
3
3
3
3
3
3
3
3
3
3
3
3
3
3
3
3
3
3
3
3
3
3
3
3
3
3
3
3
3
3
3
3
3
3
3
3
3
3
3
3
3
3
3
3
3
3
3
3
3
3
3
3
3
3
3
3
3
3
3
3
3
3
0.0231493
0.0347991
0.0433475
0.0451049
0.138991
0.135158
0.0982159
0.0279208
0.227122
0.154358
0.0501027
0.0328972
0.788777
0.58167
0.483275
0.506221
1.06585
1.05977
1.05737
1.05994
1.06557
1.06527
1.0646
1.02025
0.995704
0.99397
1.00356
1.00452
0.982223
0.985208
0.985214
0.985216
1.47288
1.67602
1.72372
1.61014
2.83835
2.86663
2.87245
2.87476
2.98886
2.99645
2.99999
2.99999
3
3
3
3
2.99998
3
3
3
2.99991
2.99994
3
3
2.99999
3
3
3
3
3
3
2.99995
3
3
2.9999
2.99981
3
3
2.99994
2.99982
3
3
3
2.99995
3
3
3
3
3
3
3
3
3
3
3
3
3
3
3
3
3
3
3
3
3
3
3
3
3
3
3
3
3
3
3
3
3
3
3
3
3
3
3
3
3
3
3
3
3
3
3
3
3
3
3
3
3
3
3
3
3
3
3
3
3
3
3
3
3
3
3
3
3
3
3
3
3
3
3
3
3
3
3
3
3
3
3
3
3
3
3
3
3
3
3
3
0.0172407
0.0839692
0.128862
0.122816
0.0304582
0.0522121
0.0646254
0.0772909
0.204032
0.280802
0.269278
0.204089
0.0503914
0.0716208
0.317537
0.250765
0.11325
0.110936
0.150626
0.0182119
0.0793828
0.10234
0.100337
0.110855
0.285339
0.400751
0.61587
0.933964
0.950891
0.64418
0.522074
0.318117
0.360716
0.269081
0.347788
0.450803
0.306538
0.120685
0.0376116
0.218536
0.503522
0.664712
0.693136
0.686595
1.06535
1.05747
1.03232
1.17304
1.20969
1.1378
1.00323
0.924797
0.915699
0.951216
0.979998
0.964493
0.948462
0.672243
0.906311
1.10278
1.30856
1.11185
1.08556
1.0327
1.00849
1.01233
1.03513
1.11721
1.12228
1.01244
1.00684
1.00531
1.00468
1.00285
1.00169
1.00425
1.04374
1.00542
1.01778
1.25865
1.29785
1.22038
0.99021
1.00301
1.003
1.00333
1.00377
1.00436
1.01458
1.02605
1.02598
1.01054
1.00129
1.00405
1.00616
1.00126
1.00125
1.00151
1.14875
1.31942
1.21721
0.993305
1.0029
1.00368
1.00261
1.00081
1.00042
1.00113
1.00214
1.00265
1.00224
1.00206
1.05462
1.15755
1.00135
1.00115
1.00164
1.04378
1.24309
1.21346
0.984683
1.00198
1.00447
1.00322
1.01743
1.03994
1.06577
1.11309
1.20243
1.35791
1.7031
2.21978
2.48425
0.995314
1.00007
0.999784
0.999504
0.999239
0.997989
0.994328
1.01759
1.20128
1.68755
2.0995
2.28502
2.41741
2.56738
2.7251
2.87846
2.99126
2.99203
2.9938
1.47538
1.37983
1.32001
1.27058
1.26588
1.38078
1.62482
2.05556
2.55721
2.94725
2.99597
2.99769
2.99824
2.99842
2.99994
2.99999
2.99998
2.99998
2.9999
2.89648
2.8991
2.85185
2.81324
2.80779
2.84949
2.92597
2.98665
2.99895
2.9995
2.99978
2.99993
3
3
2.99999
2.99996
2.99987
2.99987
2.99996
2.99965
3
3
3
2.99971
2.99744
2.99743
2.99954
2.99993
2.99994
2.99994
2.99998
2.99999
3
3
2.99989
2.99973
2.99973
2.99983
3
3
3
3
3
3
3
3
2.99997
2.99996
2.99992
2.99991
2.99996
2.99999
2.99999
2.99993
2.99973
2.99973
2.99973
3
3
3
3
3
2.99999
2.99997
2.99999
2.99989
2.99987
2.9999
2.99987
2.99979
2.99988
2.99999
2.99997
2.99973
2.99974
2.99993
3
3
3
3
2.99999
2.99986
2.99983
2.99987
2.99979
2.99977
2.99986
2.99957
2.99957
2.99978
2.99999
2.99981
2.99973
2.99976
2.99998
3
2.99999
2.99998
2.9998
2.99978
2.99979
2.99982
2.99955
2.9995
2.9995
2.99951
2.99961
2.99972
2.99992
2.99996
2.99976
2.99974
2.99985
2.99998
2.99986
2.99985
2.99976
2.99976
2.99979
2.99988
2.99958
2.99954
2.99953
2.99973
2.99994
2.99995
2.99994
2.99994
2.99989
2.99988
2.99975
2.99994
2.99998
2.99981
2.99991
2.99995
2.99991
2.99993
2.99993
2.99959
2.99961
2.99991
2.99993
2.99993
2.99994
2.99993
2.99988
2.99988
2.99986
2.99987
2.9999
2.99998
2.99985
2.99997
2.99999
2.99999
2.99999
2.99999
2.99991
2.99998
2.99991
2.99983
2.99984
2.99987
2.99987
2.99988
2.99987
2.99986
2.99986
2.9999
2.99998
2.99996
2.99999
2.99998
2.99998
2.99998
2.99998
2.99998
2.99998
2.99996
2.99985
2.99984
2.99984
2.99989
2.99999
2.99998
2.99986
2.99985
2.99992
3
3
3
3
2.99998
2.99997
2.99996
2.99996
2.99998
2.99998
2.99998
2.9999
2.99991
2.99996
2.99999
3
2.99993
2.99985
2.99995
3
3
3
3
3
2.99999
2.99998
3
2.99999
2.99993
2.99992
2.99992
2.99992
2.99992
2.99996
3
2.99999
2.99987
2.99997
3
3
3
3
3
3
3
3
3
3
3
2.99998
2.99993
2.99994
2.99999
3
2.99998
2.99992
2.99997
3
3
3
3
3
3
3
3
3
3
3
3
3
3
3
3
2.99999
2.99995
2.99998
3
3
3
3
3
3
3
3
3
3
3
3
3
3
3
3
3
2.99997
2.99999
3
3
3
3
3
3
3
3
3
3
3
3
3
3
3
3
3
3
3
3
3
3
3
3
3
3
3
3
3
3
3
3
3
3
3
3
3
3
3
3
3
3
3
3
3
3
3
3
3
3
3
3
3
3
3
3
3
3
3
3
3
3
3
3
3
3
3
3
3
3
3
3
3
3
3
3
3
3
3
3
3
3
3
3
3
3
3
3
3
3
3
3
3
3
3
3
3
3
3
3
3
3
3
3
3
3
3
3
3
3
3
3
3
3
3
3
3
3
3
3
3
3
3
3
3
3
3
3
3
3
3
3
3
3
3
3
3
3
3
3
3
3
3
3
3
3
3
3
3
3
3
3
3
3
3
3
3
3
3
3
3
3
3
3
3
3
3
3
3
3
3
2.99999
3
3
3
3
3
3
3
3
3
3
3
3
3
3
3
3
3
3
2.99999
3
3
3
3
3
3
3
3
3
3
3
3
3
2.99999
2.99999
3
3
3
2.99999
3
3
3
3
3
3
3
3
3
3
3
3
3
2.99999
2.99999
2.99999
3
3
2.99999
3
3
3
3
3
3
3
3
3
3
3
3
3
3
2.99999
2.99999
3
3
3
3
3
3
3
3
3
3
3
3
3
3
3
3
3
2.99999
2.99999
2.99999
3
2.99999
3
3
3
3
3
3
3
3
3
3
3
3
3
3
3
2.99999
2.99999
2.99999
3
3
3
3
3
3
3
3
3
3
3
3
3
3
3
3
3
3
3
3
3
3
3
3
3
3
3
3
3
3
3
3
3
3
3
3
3
3
3
3
3
3
3
3
3
3
3
3
3
3
3
3
3
3
3
3
3
3
)
;

boundaryField
{
    leftWall
    {
        type            calculated;
        value           nonuniform List<scalar> 
50
(
2
2
2
2
1.99923
1.20625
0.00627153
0.000856354
0.00454502
0.0915688
0.459301
1.05549
1.0402
1.00415
1.45365
2.79593
2.99753
2.99781
2.99884
3
3
3
3
3
3
3
3
3
3
3
3
3
3
3
3
3
3
3
3
3
3
3
3
3
3
3
3
3
3
3
)
;
    }
    rightWall
    {
        type            calculated;
        value           nonuniform List<scalar> 
50
(
1.96912
1.9412
1.4157
0.46877
0.261368
0.158426
0.150336
0.150339
0.150626
0.120685
0.948462
1.00425
1.00616
1.15755
2.48425
2.9938
2.9999
2.99996
2.99983
2.99973
2.99993
2.99998
2.99998
2.99998
2.99998
2.99998
3
3
3
3
3
3
3
3
3
3
3
3
3
3
2.99999
2.99999
2.99999
2.99999
3
2.99999
3
3
3
3
)
;
    }
    lowerWall
    {
        type            calculated;
        value           nonuniform List<scalar> 
62
(
2
2
2
2
2
2
2
2
2
2
2
2
2
2
2
2
2
2
2
2
1.99996
1.99995
1.99996
1.99996
1.99998
2
2
2.00408
1.37381
0.192697
0.102263
0.0231493
0.0347991
0.0433475
0.0451049
1.94466
1.91908
1.77895
1.45585
0.461213
0.256265
0.136828
0.0203994
1.94466
1.95433
1.96982
1.96793
1.96019
1.9546
1.95409
1.9559
1.95508
1.95458
1.95466
1.95942
1.96367
1.96473
1.96463
1.96591
1.97035
1.96956
1.96912
)
;
    }
    atmosphere
    {
        type            calculated;
        value           nonuniform List<scalar> 
46
(
3
3
3
3
3
3
3
3
3
3
3
3
3
3
3
3
3
3
3
3
3
3
3
3
3
3
3
3
3
3
3
3
3
3
3
3
3
3
3
3
3
3
3
3
3
3
)
;
    }
    defaultFaces
    {
        type            empty;
    }
}


// ************************************************************************* //
