/*--------------------------------*- C++ -*----------------------------------*\
| =========                 |                                                 |
| \\      /  F ield         | OpenFOAM: The Open Source CFD Toolbox           |
|  \\    /   O peration     | Version:  2312                                  |
|   \\  /    A nd           | Website:  www.openfoam.com                      |
|    \\/     M anipulation  |                                                 |
\*---------------------------------------------------------------------------*/
FoamFile
{
    version     2.0;
    format      ascii;
    arch        "LSB;label=32;scalar=64";
    class       volScalarField;
    location    "4.5";
    object      alpha.water_0;
}
// * * * * * * * * * * * * * * * * * * * * * * * * * * * * * * * * * * * * * //

dimensions      [0 0 0 0 0 0 0];

internalField   nonuniform List<scalar> 
2268
(
3.37607e-07
3.37788e-07
2.28937e-07
3.96684e-08
2.40535e-09
1.22364e-09
9.80748e-10
4.22223e-10
1.54387e-10
1.10646e-10
8.10454e-11
6.65224e-11
6.26285e-11
6.62501e-11
7.70646e-11
9.67403e-11
1.2676e-10
1.80054e-10
2.61714e-10
4.70095e-10
9.47385e-10
1.35392e-09
1.45438e-09
2.41019e-07
1.63464e-07
6.52442e-08
1.9228e-08
1.6762e-10
1.51229e-10
1.76882e-10
1.71536e-10
1.71154e-10
1.59662e-10
1.41647e-10
1.22552e-10
1.05957e-10
1.02381e-10
1.14626e-10
1.42723e-10
2.01946e-10
3.25386e-10
5.1467e-10
7.60852e-10
1.35322e-09
1.54198e-09
1.54207e-09
5.6678e-08
2.90211e-08
1.12015e-08
2.31328e-10
2.32964e-10
2.55661e-10
5.38849e-10
6.6048e-10
8.0999e-10
7.89695e-10
6.55049e-10
4.38825e-10
2.24303e-10
1.91942e-10
2.29594e-10
2.72623e-10
4.6752e-10
9.79019e-10
1.07079e-09
1.03727e-09
1.27208e-09
1.12095e-09
8.51324e-10
-5.7041e-22
7.19616e-34
3.01109e-10
2.86214e-10
5.01158e-10
9.27096e-10
1.77337e-09
1.36612e-09
1.29305e-09
1.295e-09
1.0197e-09
6.27421e-10
5.84639e-09
7.65247e-09
4.51183e-09
1.70183e-09
6.32937e-10
4.46054e-10
4.20757e-10
3.30191e-10
2.53284e-10
2.12101e-10
1.39666e-10
-1.8126e-19
1.61444e-19
-1.05138e-14
-1.00976e-14
-1.35151e-13
-1.40281e-12
-7.76438e-12
-1.49613e-20
-5.48886e-13
-9.84492e-13
-6.49286e-13
-6.39874e-13
-1.84429e-09
-1.31666e-09
-3.02294e-10
-1.3078e-27
-6.14113e-28
-8.46325e-30
1.10149e-27
-7.81739e-29
9.856e-29
-3.63113e-13
2.67214e-22
0.365697
0.329595
0.28478
0.233262
0.182096
0.135038
0.0922784
0.0579602
0.0333065
0.0171494
0.00689768
0.00153036
6.39537e-14
-1.69908e-11
4.07084e-05
0.0146051
0.041812
0.0482862
0.0696525
0.114556
0.171549
0.300171
0.359821
0.995461
0.992117
0.97313
0.946669
0.912762
0.874725
0.824763
0.76393
0.697021
0.628542
0.561862
0.508385
0.491751
0.495906
0.541416
0.621575
0.667719
0.681812
0.730123
0.776066
0.807883
0.824104
0.907116
0.999714
0.99972
0.99972
0.998448
0.998561
0.998747
0.999177
0.999488
0.99972
0.999628
0.999555
0.99967
0.99604
0.996404
0.993831
0.980049
0.961683
0.960325
0.972676
0.964406
0.923285
0.906326
0.90807
0.0144254
0.010874
0.00611198
0.00701646
0.00976016
0.011532
0.0114294
0.0104843
0.0104397
0.0105979
0.0105736
0.00826915
0.00586703
0.004774
0.00486374
0.00502045
0.0039861
0.00484139
0.00507357
0.0274662
0.00263305
0.00203048
0.00215213
0.00178956
0.000936882
0.000394961
0.000393836
0.000394058
0.000393004
0.000394961
0.000392178
0.000397955
0.000680523
0.000691804
0.000702265
0.000714334
0.000726385
0.000736319
0.0125279
0.000696442
0.000700676
0.000695196
0.000699991
0.000696766
0.0679631
0.146492
0.12984
0.127519
0.123564
0.103984
0.0573778
0.0509285
0.0592454
0.0647492
0.0737224
0.0847323
0.0851934
0.149359
0.178134
0.212813
0.272996
0.40358
0.601876
0.778282
0.853943
0.820261
0.568416
0.489316
0.530411
0.469192
0.470326
0.592996
0.534725
0.590324
0.679527
0.567007
0.647761
0.846494
0.862986
0.891395
0.919858
0.915605
0.911707
0.94657
0.969502
0.958983
0.667822
0.855488
0.577426
0.74533
0.914908
0.908694
0.919995
0.919939
0.771658
0.7613
0.991063
0.987721
0.989795
0.986476
0.924306
0.915083
0.973714
0.973714
0.956893
0.862964
0.919451
0.862278
0.841813
0.914528
0.903785
0.903095
0.911504
0.878247
0.884671
0.992579
0.992578
0.99257
0.992569
0.96509
0.913288
0.973713
0.973714
0.973714
0.973724
0.973725
0.973717
0.973409
0.878491
0.846777
0.861198
0.900812
0.918845
0.987424
0.992578
0.934019
0.951944
0.991973
0.958171
0.919334
0.973692
0.973713
0.973714
0.973528
0.973705
0.973752
0.973739
0.840709
0.82148
0.907806
0.918999
0.918778
0.998696
0.99972
0.99972
0.99972
0.99972
0.99972
0.99972
0.99972
0.99972
0.99972
0.99972
0.99972
0.99972
0.99972
0.999099
0.992013
0.977996
0.980951
0.986696
0.991861
0.991387
0.98827
0.9816
0.970104
0.993048
0.997356
0.997758
0.995668
0.995203
0.997478
0.998661
0.999406
0.99972
0.99972
0.999708
0.999697
0.99972
0.99972
0.99972
0.999708
0.998417
0.998224
0.998028
0.997833
0.991072
0.965633
0.63199
0.642759
0.630357
0.616699
0.618659
0.681891
0.789575
0.87472
0.914669
0.939109
0.962854
0.967255
0.96197
0.969798
0.98025
0.93953
0.859344
0.778369
0.758288
0.752184
0.734141
0.713678
0.759872
0.0273402
0.0270797
0.0064248
1.90803e-08
0.00675721
0.0507427
0.142979
0.234274
0.276179
0.316246
0.387803
0.447114
0.456328
0.385347
0.175743
0.1068
0.10321
0.083444
0.079023
0.0709996
0.0629999
0.0594532
0.0994737
-5.69495e-22
-9.22767e-24
-1.72974e-23
1.95362e-25
-9.3708e-24
1.86793e-21
-1.99579e-17
-3.90618e-11
1.49899e-06
3.86142e-11
-3.13639e-24
3.86141e-11
0.00154802
0.000509412
5.06801e-05
8.58e-05
-4.93603e-08
-9.37519e-14
-1.56174e-08
-7.97932e-08
0.000251107
-8.62028e-08
-1.69647e-07
1.52176e-06
4.2949e-05
6.1214e-05
1.56002e-05
9.2033e-12
1.70522e-08
6.78237e-07
3.43051e-06
8.28988e-05
0.000128992
2.94307e-05
9.54232e-09
1.10031e-08
2.13494e-07
5.70822e-05
0.000161834
6.74306e-05
-2.18975e-24
1.54843e-05
0.000233927
0.00195612
0.00207448
0.00133087
1.78954e-06
0.000497783
0.000479742
2.25319e-05
0.000795483
0.00463333
0.00513784
0.00512899
0.00489307
0.00511027
0.0018706
0.000183516
9.92076e-05
3.00741e-05
0.000167933
0.000331005
0.000331237
0.000184931
0.00014958
0.000168982
0.000226194
0.000275837
0.00343625
0.000548449
0.000326864
0.000330831
0.00215549
0.00628793
0.00630292
0.00451855
0.0045708
0.00648265
0.0064745
0.00648269
0.00647439
0.00563525
0.000229254
1.63373e-06
0.000347911
0.000916903
0.005621
0.0123254
0.0088799
0.00026014
0.000399947
0.00594158
0.000662538
0.00058235
0.000128577
0.00159002
0.00630294
0.00459144
0.000801724
0.000192903
0.000576767
0.00419351
0.0054921
0.00193653
2.14541e-06
5.30699e-06
1.70683e-06
0.00368317
0.0161219
0.0167891
0.0167912
0.0167891
0.0161299
0.00773112
0.00837644
0.000662628
0.000624994
8.45135e-05
0.000369157
0.00117857
0.000369171
4.2371e-09
-2.27573e-12
-1.33488e-21
7.89625e-06
-1.03772e-07
1.77757e-09
1.12761e-05
9.47752e-05
0.000402268
0.00136248
0.00536571
0.0121965
0.0145546
0.0138791
0.00906657
0.0080105
0.0166998
0.000395397
3.68707e-05
5.04656e-05
7.46751e-07
1.60381e-06
7.24817e-07
4.57845e-08
9.75381e-10
6.71007e-21
3.17898e-06
1.50302e-06
2.22648e-08
9.88989e-09
6.88207e-08
1.52124e-07
2.03682e-07
-5.11599e-26
3.64294e-15
3.18516e-14
3.30292e-14
0.000339784
0.000797402
0.00298959
1.16302e-06
7.90155e-07
2.85662e-06
7.62781e-07
7.78163e-07
1.90597e-07
2.71304e-07
3.00212e-07
5.17717e-06
6.70602e-06
5.17827e-06
1.5301e-06
7.36464e-06
9.10739e-06
3.52727e-06
1.72741e-07
9.46704e-08
1.49369e-07
2.00435e-07
4.99633e-08
4.60132e-08
8.95255e-07
8.75953e-07
6.99986e-07
3.38662e-07
1.0729e-07
2.06853e-07
1.44622e-07
4.4639e-08
9.86603e-07
5.25448e-06
7.13902e-06
5.07186e-06
5.25166e-06
1.82266e-05
1.84641e-05
1.84642e-05
1.84643e-05
8.44454e-06
1.1281e-06
7.44574e-07
1.465e-06
1.39527e-06
3.69661e-06
1.14423e-05
8.26377e-06
1.94002e-07
7.32041e-08
1.09114e-07
1.01061e-07
3.03423e-08
1.68987e-08
1.37777e-06
5.87468e-06
4.47242e-06
7.14932e-08
2.81568e-06
1.45523e-05
1.84641e-05
1.84643e-05
1.84644e-05
1.84643e-05
9.73814e-06
7.60262e-07
1.21874e-05
1.93686e-05
1.9362e-05
1.93642e-05
1.93553e-05
2.82011e-08
1.08838e-08
2.34272e-08
3.58278e-08
3.02985e-08
3.06448e-08
9.03834e-07
1.43227e-06
3.1086e-07
7.73902e-09
1.16264e-06
1.49916e-06
9.92011e-08
6.44932e-06
1.84649e-05
1.84644e-05
1.03659e-05
8.37636e-07
1.59194e-05
1.93312e-05
1.93642e-05
1.93556e-05
1.01642e-05
9.88153e-09
6.00224e-09
9.81858e-09
2.53632e-08
4.39334e-08
4.505e-08
1.30974e-07
9.63326e-08
3.5763e-08
6.67999e-09
1.40907e-07
1.57107e-07
1.00919e-07
2.44482e-07
3.79668e-06
5.50707e-06
2.41923e-06
1.2208e-08
1.94512e-06
1.92012e-05
1.02116e-05
1.33136e-06
1.25246e-06
6.13061e-09
4.1695e-09
8.57853e-09
1.7622e-08
2.73922e-08
2.08313e-08
1.45448e-08
1.04324e-08
1.15798e-08
3.61647e-09
2.92782e-08
2.06657e-08
7.9896e-09
3.29143e-08
1.7185e-07
2.01586e-07
7.83795e-08
1.29681e-08
1.37547e-08
4.31925e-06
7.35599e-06
9.82339e-07
5.69035e-07
1.37982e-08
3.12845e-09
5.58738e-09
9.61517e-09
9.33551e-09
3.99138e-09
2.84273e-09
5.26661e-09
3.46442e-09
1.54211e-09
3.5017e-09
2.11152e-09
1.14398e-09
2.3135e-09
7.74529e-09
7.32529e-09
2.76845e-09
1.99828e-09
1.72104e-09
1.41662e-09
3.91254e-06
1.19782e-06
5.65672e-07
1.89243e-08
1.96809e-09
2.85796e-09
3.70387e-09
2.08649e-09
1.66698e-09
1.698e-09
1.50045e-09
1.0826e-09
7.25843e-10
7.93366e-10
8.18439e-10
9.85753e-10
1.20479e-09
1.48885e-09
1.49456e-09
1.20499e-09
9.645e-10
1.42772e-09
1.40932e-09
1.01688e-07
5.03678e-07
3.87291e-07
1.89251e-08
1.26426e-09
1.38833e-09
1.60684e-09
8.91779e-10
7.17651e-10
6.46158e-10
4.89467e-10
4.27131e-10
3.9057e-10
4.2642e-10
5.598e-10
7.47875e-10
8.99253e-10
1.02467e-09
1.01804e-09
8.9344e-10
9.26773e-10
1.25689e-09
1.79388e-09
2.36794e-09
1.06152e-07
9.20135e-08
1.89154e-08
7.72011e-10
6.367e-10
6.87621e-10
4.22047e-10
3.37188e-10
2.7835e-10
2.20754e-10
1.99652e-10
1.87597e-10
2.01701e-10
2.57339e-10
3.26825e-10
3.9157e-10
4.41429e-10
4.48729e-10
4.36106e-10
4.96409e-10
6.99055e-10
1.0582e-09
1.33742e-09
9.42044e-09
1.00847e-08
1.87435e-08
5.10371e-10
3.3791e-10
3.47732e-10
2.48043e-10
1.97521e-10
1.59164e-10
1.29498e-10
1.08342e-10
9.20941e-11
8.86686e-11
9.80108e-11
1.16577e-10
1.36327e-10
1.56002e-10
1.67596e-10
1.77104e-10
2.10381e-10
3.04701e-10
5.16517e-10
8.53542e-10
7.56397e-10
9.30644e-09
1.87899e-08
3.46117e-10
2.42798e-10
2.31997e-10
1.93211e-10
1.71328e-10
1.51742e-10
1.28485e-10
9.86432e-11
6.85509e-11
5.04178e-11
4.28044e-11
4.21662e-11
4.63609e-11
5.34502e-11
6.10481e-11
6.98864e-11
8.65708e-11
1.25423e-10
2.08726e-10
3.85003e-10
6.6311e-10
3.3827e-09
1.88567e-08
2.74439e-10
2.30032e-10
2.22509e-10
2.23183e-10
2.30872e-10
2.20491e-10
1.88867e-10
1.3636e-10
8.40188e-11
5.01493e-11
3.0952e-11
2.12138e-11
1.76837e-11
1.83744e-11
2.14074e-11
2.62602e-11
3.44531e-11
5.1092e-11
8.45419e-11
1.44384e-10
2.90293e-10
8.30943e-10
1.89681e-08
2.70377e-10
2.53778e-10
2.79579e-10
3.06685e-10
3.19315e-10
3.14227e-10
2.76864e-10
2.06693e-10
1.22318e-10
6.6726e-11
3.64722e-11
1.95426e-11
1.0821e-11
7.50695e-12
7.45585e-12
9.31808e-12
1.31366e-11
2.00639e-11
3.24242e-11
5.52089e-11
9.42886e-11
2.02985e-10
1.90792e-08
2.7961e-10
2.92688e-10
3.41828e-10
4.05463e-10
4.6915e-10
4.62587e-10
4.05563e-10
3.13308e-10
1.83764e-10
9.31314e-11
4.94743e-11
2.52518e-11
1.18898e-11
5.48067e-12
3.26613e-12
3.33299e-12
4.82269e-12
7.81877e-12
1.30803e-11
2.12001e-11
4.07146e-11
7.01029e-11
1.93363e-08
2.82788e-10
3.3144e-10
4.5492e-10
6.86936e-10
1.03063e-09
9.6404e-10
5.47982e-10
4.44283e-10
2.6568e-10
1.25178e-10
6.56419e-11
3.39989e-11
1.59069e-11
6.56621e-12
2.57935e-12
1.47368e-12
1.75993e-12
2.89351e-12
4.96612e-12
8.76188e-12
1.45595e-11
2.69403e-11
2.11921e-08
3.17451e-10
4.01102e-10
5.81305e-10
1.15153e-09
1.64612e-09
2.80556e-09
6.52493e-10
5.66689e-10
3.6229e-10
1.58222e-10
8.15436e-11
4.32806e-11
2.10982e-11
8.87291e-12
3.24321e-12
1.14414e-12
6.72272e-13
1.03353e-12
1.8603e-12
3.24015e-12
6.5159e-12
1.05543e-11
2.17642e-08
4.24945e-10
7.75896e-10
1.16646e-09
1.54033e-09
7.00809e-09
1.04917e-08
6.35367e-10
6.51748e-10
4.59683e-10
1.87537e-10
9.23432e-11
5.07128e-11
2.6095e-11
1.15147e-11
4.36599e-12
1.44105e-12
4.56915e-13
3.6901e-13
6.11228e-13
1.21522e-12
1.96287e-12
3.94809e-12
2.28874e-08
4.56857e-10
1.32716e-09
1.16169e-08
6.39818e-08
2.68919e-07
1.08183e-07
6.34295e-10
6.99452e-10
5.8026e-10
2.18459e-10
9.59202e-11
5.4057e-11
2.93605e-11
1.37858e-11
5.554e-12
1.86562e-12
5.30558e-13
1.55532e-13
2.06826e-13
3.54057e-13
7.86448e-13
1.23563e-12
2.35947e-08
7.43315e-10
4.2276e-09
1.0268e-07
8.78333e-07
9.8352e-07
3.63412e-07
6.37396e-10
7.75442e-10
6.38297e-10
2.16813e-10
8.91956e-11
5.1897e-11
2.94615e-11
1.51163e-11
6.5844e-12
2.36967e-12
6.81854e-13
1.43958e-13
7.08581e-14
1.28008e-13
2.13943e-13
4.11139e-13
2.36607e-08
2.73467e-09
4.19812e-08
5.27625e-07
1.06577e-06
1.00537e-06
1.27973e-07
6.60494e-10
1.14353e-09
6.2342e-10
1.93785e-10
7.50663e-11
4.44098e-11
2.67551e-11
1.4663e-11
6.97656e-12
2.74352e-12
8.80935e-13
1.83754e-13
3.43546e-14
3.64451e-14
8.19385e-14
1.25628e-13
2.561e-08
2.80388e-09
1.57132e-07
9.21305e-07
1.06693e-06
4.85216e-07
7.83613e-10
1.94292e-09
1.65541e-09
5.52608e-10
1.56679e-10
5.7722e-11
3.49191e-11
2.14841e-11
1.24938e-11
6.52831e-12
2.85323e-12
1.00031e-12
2.59414e-13
3.61095e-14
1.19428e-14
1.79905e-14
4.02723e-14
4.29238e-08
5.3654e-09
2.16216e-07
6.99019e-07
7.23072e-07
1.96274e-08
7.87858e-10
2.77422e-09
1.66102e-09
4.28097e-10
1.14982e-10
4.12954e-11
2.50799e-11
1.53963e-11
9.25284e-12
5.27014e-12
2.59822e-12
1.01355e-12
2.8994e-13
4.37756e-14
5.08688e-15
6.40565e-15
1.0083e-14
4.62529e-08
9.53962e-09
1.5718e-07
3.73826e-07
7.52252e-08
1.48888e-09
1.48887e-09
2.43741e-09
1.04703e-09
2.81514e-10
7.56825e-11
2.75861e-11
1.6357e-11
9.88869e-12
5.90304e-12
3.5869e-12
1.99672e-12
8.90086e-13
2.94528e-13
5.40843e-14
3.37239e-15
1.45128e-15
3.07924e-15
5.43304e-08
1.09166e-08
1.1949e-07
1.39874e-07
1.27696e-08
4.56236e-09
2.52656e-09
1.70464e-09
5.4061e-10
1.636e-10
4.37983e-11
1.65112e-11
9.80231e-12
5.68185e-12
3.26071e-12
2.01505e-12
1.26037e-12
6.58234e-13
2.50179e-13
6.21635e-14
4.24527e-15
6.21035e-16
7.42008e-16
5.32149e-08
9.88386e-09
5.5022e-08
1.60997e-09
4.12473e-09
5.3155e-09
3.08747e-09
1.27465e-09
3.19785e-10
8.64097e-11
2.16963e-11
8.9903e-12
5.39581e-12
2.94242e-12
1.56116e-12
9.22543e-13
6.13417e-13
3.80535e-13
1.77553e-13
5.42402e-14
6.09345e-15
3.19074e-16
2.02811e-16
6.36368e-08
7.22961e-09
6.95306e-09
1.60885e-09
2.70289e-09
4.86796e-09
2.941e-09
1.21912e-09
3.22172e-10
5.00266e-11
8.98551e-12
4.32777e-12
2.66479e-12
1.38762e-12
6.59085e-13
3.4504e-13
2.24538e-13
1.59568e-13
9.43908e-14
3.77243e-14
5.64197e-15
2.9526e-16
5.26771e-17
8.4128e-08
4.995e-09
2.36674e-09
1.60997e-09
1.13827e-08
8.32381e-09
3.21935e-09
1.1411e-09
2.93238e-10
3.88609e-11
3.6366e-12
1.80005e-12
1.14843e-12
5.79968e-13
2.47131e-13
1.05342e-13
6.01049e-14
4.58697e-14
3.49879e-14
1.926e-14
4.62459e-15
2.87882e-16
1.79467e-17
1.41131e-07
6.65179e-09
1.91906e-09
3.08818e-08
2.32994e-08
8.1675e-09
2.65974e-09
8.30532e-10
1.89349e-10
2.24719e-11
1.50073e-12
5.98824e-13
3.99605e-13
2.02277e-13
8.01102e-14
2.81923e-14
1.1995e-14
8.53606e-15
8.34931e-15
6.96575e-15
2.42373e-15
2.47085e-16
1.17822e-17
1.57494e-07
7.59918e-08
2.00573e-08
5.07076e-08
1.97861e-08
5.97226e-09
1.71725e-09
3.85119e-10
6.4473e-11
5.84317e-12
2.85179e-13
1.30362e-13
9.49911e-14
5.03422e-14
1.94066e-14
5.8187e-15
1.71378e-15
1.00759e-15
1.34854e-15
1.7378e-15
9.74944e-16
1.73098e-16
1.4929e-17
1.55321e-07
1.50214e-07
1.13126e-07
3.70166e-08
8.62581e-09
1.85747e-09
3.50319e-10
5.45641e-11
5.21937e-12
2.48957e-13
1.49058e-14
1.41345e-14
1.15871e-14
6.62792e-15
2.63318e-15
7.08642e-16
1.55813e-16
7.24919e-17
1.46176e-16
3.13019e-16
3.3404e-16
1.00884e-16
1.05611e-17
0.98159
0.981573
0.981251
0.978732
0.951699
0.954281
0.964859
0.985469
0.864006
0.897823
0.948708
0.969679
0.221569
0.406624
0.534561
0.546175
-1.53962e-19
0.00277666
0.00646196
0.00519952
4.52132e-07
7.19736e-07
4.38743e-06
-2.06949e-11
0.0185236
0.0185193
0.0061629
3.68249e-15
0.0185252
0.0185233
0.0185159
0.0185018
0.0185233
0.0185159
0.0185157
0.0185075
0.0185163
0.0185163
0.0185085
0.0175063
0.00407974
0.00203914
0.000411499
0.000240085
1.56357e-09
1.28855e-09
1.48285e-09
3.24627e-09
2.74173e-06
2.89386e-07
6.34292e-09
3.83335e-08
1.93539e-05
6.506e-06
1.00759e-08
1.57703e-07
1.97034e-06
8.97024e-07
2.45455e-07
2.34572e-07
8.3786e-07
5.04378e-07
2.50552e-07
9.96223e-06
5.44703e-07
1.32095e-06
2.70422e-05
4.67661e-05
4.79767e-07
6.65954e-07
1.80924e-05
4.72152e-05
4.24802e-07
4.42783e-07
1.4261e-06
1.71644e-05
2.32486e-07
3.93076e-07
8.3642e-07
5.73275e-07
5.95628e-08
3.09972e-07
2.92749e-07
1.50275e-07
2.47386e-08
5.51367e-08
8.73076e-08
5.4568e-08
9.60346e-09
1.52654e-08
1.48406e-08
1.32453e-08
1.8614e-09
1.97515e-09
2.65325e-09
2.72327e-09
3.63136e-10
4.24009e-10
5.1469e-10
6.62267e-10
1.0255e-10
1.37354e-10
1.72444e-10
2.10219e-10
4.05232e-11
5.11619e-11
6.76015e-11
8.33324e-11
1.61816e-11
2.18624e-11
2.73791e-11
3.35473e-11
5.90192e-12
7.66814e-12
1.01171e-11
1.23658e-11
1.95107e-12
2.68109e-12
3.37598e-12
4.2845e-12
6.16673e-13
7.82067e-13
1.05721e-12
1.29451e-12
1.96968e-13
2.51353e-13
3.0283e-13
3.91988e-13
5.52171e-14
6.75517e-14
8.7537e-14
9.64556e-14
1.77323e-14
1.99249e-14
2.30516e-14
2.8067e-14
4.36372e-15
5.40161e-15
6.51939e-15
6.85361e-15
1.22705e-15
1.41888e-15
1.65508e-15
1.93874e-15
3.06033e-16
3.80099e-16
4.38386e-16
4.63543e-16
7.11737e-17
8.08214e-17
9.88743e-17
1.13993e-16
1.35427e-17
1.71404e-17
2.01715e-17
2.28329e-17
2.72045e-18
3.13105e-18
3.92334e-18
4.68544e-18
5.83587e-19
5.90459e-19
6.91406e-19
8.06893e-19
1.71291e-19
1.0828e-19
1.05175e-19
1.1364e-19
0.987285
0.917886
0.874908
0.890532
0.975944
0.950315
0.970293
0.965754
0.879665
0.875569
0.900663
0.925441
0.973739
0.965956
0.821091
0.873178
0.918998
0.918994
0.918805
0.985845
0.924393
0.901564
0.945058
0.946046
0.868235
0.846221
0.542908
0.176973
0.289387
0.6038
0.710444
0.846036
0.805071
0.785016
0.667653
0.551055
0.705392
0.904968
0.967635
0.796111
0.595478
0.555528
0.675687
0.691745
0.3055
-1.25824e-11
-2.15806e-21
-6.08677e-21
0.013449
0.0835629
0.211516
0.191751
0.0859142
0.0513333
0.0364319
0.0513033
0.0576794
0.407555
0.15117
0.049936
0.0615653
0.256617
0.28404
0.0471794
-2.68191e-10
-1.46447e-23
7.85677e-23
-3.03395e-22
-3.06878e-19
-6.05766e-12
-3.72607e-08
-6.71761e-08
-9.72121e-07
0.000502218
0.000616499
0.000615553
0.00187466
-5.28217e-14
5.14904e-21
0.00249858
0.0757448
0.115121
0.017371
1.36557e-07
1.72174e-05
0.000116163
0.000192937
0.000103549
3.97182e-05
0.000134175
0.000184084
0.000612321
0.000799642
0.000629476
0.00122952
1.48524e-06
2.17429e-12
8.54491e-08
-1.56696e-11
0.0476522
0.115328
0.0140999
0.000229733
5.39653e-05
0.000295593
0.00117542
0.00139528
0.00119112
0.000839593
0.000665412
0.000510196
0.00051543
0.000706606
0.0012344
5.84008e-05
5.05933e-05
4.11802e-05
-1.03835e-07
0.0308309
0.081918
0.0479096
0.00103282
1.76826e-05
5.73034e-05
0.000321763
0.00160605
0.00347242
0.00359496
0.00289416
0.00230177
0.00209361
0.00181919
0.000421252
0.00850477
0.000332331
0.000636877
0.000776569
0.00398457
0.0130968
0.017443
0.00748546
1.768e-05
1.76803e-05
1.76834e-05
0.000822554
0.00351891
0.00359007
0.00347597
0.00266365
0.00187483
0.00100583
5.57628e-06
0.0185065
0.0165008
0.00406661
0.0023329
0.00313868
0.00554171
0.00904788
0.00904234
0.00170902
1.76802e-05
1.80305e-05
0.000188777
0.000432996
0.000610704
8.74392e-05
1.12005e-06
5.48436e-07
4.26826e-07
4.25204e-07
0.00797151
0.00373778
0.00421211
0.00575488
0.00678199
0.00746778
0.00741685
0.00429465
1.08444e-06
2.62441e-05
7.59484e-05
2.93378e-05
2.37572e-07
1.95989e-07
1.86186e-07
5.63738e-07
3.71851e-06
5.27127e-06
4.0013e-06
0.000239258
6.40304e-07
1.62551e-06
1.7909e-06
0.00024799
0.00123461
0.00138732
0.0001983
1.10132e-06
1.48648e-05
1.79196e-05
1.66446e-06
4.02709e-07
4.00908e-07
4.5545e-07
4.14535e-06
1.15169e-05
1.1609e-05
1.02923e-05
1.22082e-08
3.00419e-07
9.78376e-08
1.02061e-08
4.50404e-09
1.64255e-07
1.43304e-07
1.36011e-07
2.17001e-06
2.59114e-06
2.69204e-06
2.09935e-06
4.69541e-07
4.63576e-07
8.20847e-07
3.54627e-06
1.16556e-05
1.10486e-05
1.10491e-05
1.43839e-07
2.14045e-07
6.16383e-08
3.83054e-10
3.28447e-10
6.16447e-07
2.99598e-06
3.92127e-06
5.08786e-06
4.35074e-06
1.75666e-06
1.85948e-06
4.47456e-06
1.94587e-06
8.382e-07
1.8678e-06
1.16723e-05
9.93766e-06
4.56165e-06
2.51593e-07
5.20799e-08
5.1457e-08
1.70944e-07
1.25029e-06
1.20852e-05
1.30818e-05
8.09322e-06
6.7877e-06
5.65849e-06
4.77317e-06
1.806e-05
1.91262e-05
1.16196e-05
9.93353e-07
2.57636e-06
1.1681e-05
7.78064e-07
7.85647e-08
6.27287e-07
2.86316e-06
5.69347e-06
2.06803e-05
2.16e-05
1.71826e-05
8.00537e-06
1.55362e-05
1.93625e-05
1.94672e-05
2.00991e-05
2.05139e-05
2.05402e-05
1.71071e-05
9.95239e-07
2.31807e-06
7.54403e-06
8.69002e-08
7.94263e-08
3.37856e-05
3.36012e-05
3.2866e-05
2.54012e-05
1.57583e-05
4.49083e-06
9.46469e-06
9.10247e-06
1.41313e-05
1.71386e-05
1.21606e-05
1.21992e-05
1.50734e-05
1.08113e-05
4.42913e-06
1.32062e-05
4.85471e-06
3.40224e-07
1.47472e-07
4.7232e-05
2.60266e-05
7.19138e-06
5.47194e-06
1.0736e-06
4.82951e-07
2.64127e-06
1.86682e-06
8.87986e-06
1.92743e-05
1.85901e-05
1.42912e-05
1.58213e-05
2.5436e-05
3.04533e-05
3.82412e-05
2.56441e-05
7.13404e-06
2.58989e-07
4.7232e-05
9.35459e-06
1.32547e-06
1.11582e-06
7.02332e-07
4.80824e-07
4.90055e-07
1.78385e-06
2.66926e-05
4.81189e-05
5.07031e-05
3.74728e-05
3.73066e-05
2.96867e-05
3.92432e-05
3.92432e-05
3.92432e-05
1.82977e-05
3.69511e-07
1.30229e-05
4.29184e-06
2.94944e-06
1.09828e-06
2.50207e-06
2.48381e-06
2.28935e-06
2.10819e-06
1.1046e-05
4.62469e-05
5.06679e-05
5.06068e-05
3.20766e-05
2.47402e-06
7.73118e-06
3.92432e-05
3.92432e-05
2.32048e-05
9.80388e-08
2.46082e-07
1.37796e-07
7.37189e-07
1.08344e-06
1.91033e-06
2.29815e-06
2.43438e-06
1.39112e-06
8.62642e-07
7.97924e-07
1.9933e-05
1.20607e-05
-1.30352e-08
-1.01816e-12
1.6007e-12
2.0069e-05
3.89927e-05
1.6358e-05
7.54967e-08
3.75616e-08
1.92264e-08
8.31406e-08
1.43988e-07
1.73477e-07
7.08763e-07
6.79763e-07
1.4837e-07
1.15231e-09
7.55959e-07
2.5336e-06
3.91782e-06
3.4262e-06
1.78567e-07
1.21601e-11
1.21492e-06
2.83506e-05
5.14335e-06
7.45347e-08
1.16405e-08
6.7954e-09
1.12852e-08
1.3072e-08
8.65018e-09
1.61075e-08
3.42539e-09
1.15269e-09
1.14937e-09
1.08026e-09
1.0731e-09
9.75929e-08
4.4701e-07
2.78271e-07
-1.33278e-10
1.62869e-06
9.77797e-06
1.82499e-06
9.88439e-08
7.36327e-09
4.86858e-09
5.23165e-09
5.12458e-09
4.58435e-09
4.11521e-09
3.01038e-09
2.71161e-09
2.49146e-09
1.646e-09
1.08026e-09
5.2842e-09
2.80307e-07
2.03549e-07
1.50784e-08
1.61457e-06
2.65892e-07
1.8823e-07
2.07092e-07
2.4759e-09
2.64672e-09
3.16124e-09
3.48501e-09
3.65085e-09
4.03782e-09
4.98997e-09
5.99112e-09
7.06415e-09
1.1652e-08
1.91386e-08
1.73676e-07
2.89967e-07
2.75404e-07
9.63597e-08
2.34084e-09
2.07976e-09
2.08025e-09
2.07078e-07
7.70326e-10
1.00187e-09
1.42896e-09
1.91459e-09
2.62353e-09
3.69915e-09
4.83079e-09
6.36709e-09
1.24692e-08
5.28962e-08
9.31471e-08
1.04825e-07
9.74649e-08
7.95014e-08
6.00042e-08
1.58631e-08
2.56813e-09
2.07966e-09
1.97874e-07
2.60559e-10
3.57848e-10
5.04478e-10
7.00602e-10
9.90281e-10
1.44759e-09
2.23994e-09
4.38641e-09
7.60098e-09
1.1721e-08
1.92594e-08
1.61133e-08
1.11148e-08
1.30192e-08
2.99543e-08
2.33195e-08
5.18638e-09
2.08065e-09
1.41323e-07
1.02095e-10
1.41607e-10
2.00057e-10
2.82031e-10
4.07729e-10
5.88167e-10
8.4136e-10
1.2683e-09
1.85507e-09
2.50522e-09
3.40878e-09
4.99693e-09
6.4696e-09
1.42569e-08
2.04592e-08
1.1548e-08
4.26121e-09
4.71537e-09
1.41803e-07
4.13508e-11
5.99301e-11
9.08097e-11
1.38056e-10
2.1627e-10
3.43628e-10
5.4405e-10
8.80361e-10
1.45603e-09
2.53237e-09
4.36604e-09
6.00775e-09
1.15241e-08
2.35185e-08
3.95628e-08
3.85728e-08
1.41911e-08
3.70926e-08
1.1615e-07
1.56792e-11
2.41869e-11
3.81732e-11
6.14287e-11
1.02741e-10
1.78738e-10
3.18226e-10
5.77345e-10
1.10746e-09
2.14134e-09
4.1172e-09
7.00725e-09
1.6787e-08
3.7905e-08
5.40348e-08
5.40859e-08
2.67768e-08
4.74849e-08
1.27486e-07
5.4813e-12
8.65995e-12
1.41267e-11
2.37913e-11
4.23857e-11
8.31788e-11
1.72005e-10
3.544e-10
7.49421e-10
1.6514e-09
3.65283e-09
7.48979e-09
1.55527e-08
3.43953e-08
5.2133e-08
4.71172e-08
2.14404e-08
8.84233e-08
1.29094e-07
1.70259e-12
2.66219e-12
4.34191e-12
7.50681e-12
1.38183e-11
2.51361e-11
4.29281e-11
1.0288e-10
2.85634e-10
8.57493e-10
2.29661e-09
5.75853e-09
1.17398e-08
2.08929e-08
3.41497e-08
2.7586e-08
2.13947e-08
1.1632e-07
1.28811e-07
4.61058e-13
6.76145e-13
1.01516e-12
1.6268e-12
2.84756e-12
4.72266e-12
6.0686e-12
1.6547e-11
5.2837e-11
1.68961e-10
5.14154e-10
1.51653e-09
6.13212e-09
1.27208e-08
2.0365e-08
2.00648e-08
3.20913e-08
1.12458e-07
1.12122e-07
1.22657e-13
1.58363e-13
2.14048e-13
2.99457e-13
4.44111e-13
7.39846e-13
7.98011e-13
2.36423e-12
8.48281e-12
3.02303e-11
1.07576e-10
4.11757e-10
2.21824e-09
4.33295e-09
1.15874e-08
2.37603e-08
4.04045e-08
5.45541e-08
2.53649e-07
2.95582e-14
3.77393e-14
4.72866e-14
6.10693e-14
8.94926e-14
1.39152e-13
2.08701e-13
4.50262e-13
1.64353e-12
6.29016e-12
2.2997e-11
9.0662e-11
4.94132e-10
3.01697e-09
6.72023e-09
1.93379e-08
3.4996e-08
2.13516e-08
3.61594e-07
7.89455e-15
8.89493e-15
1.06113e-14
1.42386e-14
2.1286e-14
3.75682e-14
7.71171e-14
1.72256e-13
5.69852e-13
2.11664e-12
7.84756e-12
2.98312e-11
1.44454e-10
9.11875e-10
2.31286e-09
4.64828e-09
1.45827e-08
1.34682e-08
3.84251e-07
1.98662e-15
2.28409e-15
2.72206e-15
3.67927e-15
6.06198e-15
1.25081e-14
3.23095e-14
9.71995e-14
3.19676e-13
9.6332e-13
3.75068e-12
1.50059e-11
6.22371e-11
4.7212e-10
1.57551e-09
2.49188e-09
4.19804e-09
1.24399e-08
3.84344e-07
4.97458e-16
5.81967e-16
7.29686e-16
1.1032e-15
2.14256e-15
5.13429e-15
1.47151e-14
4.79483e-14
1.63536e-13
5.86788e-13
2.17149e-12
9.04921e-12
3.42694e-11
2.24597e-10
1.21455e-09
3.18334e-09
6.09337e-09
1.36837e-08
2.72598e-07
1.19878e-16
1.44968e-16
2.00572e-16
3.6268e-16
8.33457e-16
2.26451e-15
6.84458e-15
2.24043e-14
7.64438e-14
2.79831e-13
1.02774e-12
4.64738e-12
2.03624e-11
9.4799e-11
8.29288e-10
3.52288e-09
6.05152e-09
1.70158e-08
8.05664e-08
2.63383e-17
3.31355e-17
5.10228e-17
1.09982e-16
3.02485e-16
9.2015e-16
2.91936e-15
9.29053e-15
3.00613e-14
9.8094e-14
3.83071e-13
1.63224e-12
8.03083e-12
4.23648e-11
2.5597e-10
1.98126e-09
5.28386e-09
8.72398e-09
1.39625e-08
5.08461e-18
6.33617e-18
1.09595e-17
2.77685e-17
9.46427e-17
3.44946e-16
1.22614e-15
4.14641e-15
1.4069e-14
4.82702e-14
1.76331e-13
7.19921e-13
3.48405e-12
1.99071e-11
1.15759e-10
5.58838e-10
1.61644e-09
2.31307e-09
2.73413e-10
8.52875e-19
1.03141e-18
1.65529e-18
4.34203e-18
1.74244e-17
7.95527e-17
3.4178e-16
1.35482e-15
4.90706e-15
1.71131e-14
6.41373e-14
2.59435e-13
1.17397e-12
6.08437e-12
3.78113e-11
1.96279e-10
5.30805e-10
7.77437e-10
2.73274e-10
1.14843e-19
1.26204e-19
1.73849e-19
3.86952e-19
1.50925e-18
8.05722e-18
4.42822e-17
2.18605e-16
9.56145e-16
3.64387e-15
1.21444e-14
4.33788e-14
1.65736e-13
7.38189e-13
5.53764e-12
4.04482e-11
1.36665e-10
2.00829e-10
1.29781e-10
)
;

boundaryField
{
    leftWall
    {
        type            zeroGradient;
    }
    rightWall
    {
        type            zeroGradient;
    }
    lowerWall
    {
        type            zeroGradient;
    }
    atmosphere
    {
        type            inletOutlet;
        inletValue      uniform 0;
        value           nonuniform List<scalar> 
46
(
1.55321e-07
1.50214e-07
1.13126e-07
3.70166e-08
8.62581e-09
1.85747e-09
3.50319e-10
5.45641e-11
5.21937e-12
2.48957e-13
0
0
0
0
0
0
1.55813e-16
7.24919e-17
1.46176e-16
3.13019e-16
3.3404e-16
1.00884e-16
1.05611e-17
0
0
0
0
0
0
0
0
0
0
0
0
0
0
0
0
0
0
0
0
1.36665e-10
2.00829e-10
0
)
;
    }
    defaultFaces
    {
        type            empty;
    }
}


// ************************************************************************* //
