/*--------------------------------*- C++ -*----------------------------------*\
| =========                 |                                                 |
| \\      /  F ield         | OpenFOAM: The Open Source CFD Toolbox           |
|  \\    /   O peration     | Version:  2312                                  |
|   \\  /    A nd           | Website:  www.openfoam.com                      |
|    \\/     M anipulation  |                                                 |
\*---------------------------------------------------------------------------*/
FoamFile
{
    version     2.0;
    format      ascii;
    arch        "LSB;label=32;scalar=64";
    class       volScalarField;
    location    "4.5";
    object      alpha.galistan;
}
// * * * * * * * * * * * * * * * * * * * * * * * * * * * * * * * * * * * * * //

dimensions      [0 0 0 0 0 0 0];

internalField   nonuniform List<scalar> 
2268
(
1
1
1
1
1
1
1
1
1
1
1
1
1
1
1
1
1
1
1
1
0.999961
0.999954
0.999954
1
1
1
1
1
1
1
1
1
1
1
1
1
1
1
1
1
1
1
1
0.999994
0.999973
0.999978
1
1
1
1
1
1
1
1
1
1
1
1
1
1
1
1
1
0.999999
0.999999
1
1
1
0.999999
1
1
1
1
1
1
1
1
1
1
1
1
1
1
1
1
1
1
1
1
1
1
1
0.998984
0.99883
0.998821
0.999253
0.999753
0.999973
0.999999
0.999997
0.999984
0.999952
0.999977
0.999998
0.999999
1
1
0.999987
1
1
1
1
1
0.999588
0.995921
0.598827
0.632661
0.679456
0.729291
0.781671
0.833311
0.881895
0.922859
0.953642
0.974663
0.988676
0.996875
0.99925
0.99835
0.999002
0.996044
0.970875
0.932014
0.871126
0.816924
0.77229
0.72369
0.677216
6.453e-11
6.36686e-11
0.0090975
0.0309612
0.0594507
0.0943612
0.140501
0.198404
0.26455
0.334958
0.406966
0.472265
0.506537
0.515066
0.485328
0.417419
0.347511
0.27255
0.207559
0.145858
0.107268
0.0852504
0.0829734
1.21576e-08
1.92113e-10
2.29488e-10
1.43783e-26
1.43876e-24
5.27235e-23
-4.5096e-23
8.05478e-24
3.15887e-07
-7.13197e-09
-7.33981e-08
-8.41248e-08
0.00358969
0.00435676
0.00220987
0.000421046
8.95122e-19
-2.10387e-19
3.12597e-19
-5.05591e-20
-6.37782e-20
2.69746e-19
0.00300287
0.95866
0.960111
0.958567
0.957626
0.957059
0.957552
0.95842
0.959494
0.960359
0.960474
0.960513
0.962895
0.964813
0.964814
0.964819
0.964818
0.964222
0.962447
0.962221
0.945874
0.965254
0.96531
0.965283
0.965307
0.965175
0.939745
0.907896
0.886815
0.873021
0.890357
0.894486
0.904136
0.916272
0.923768
0.921966
0.91724
0.921082
0.929645
0.790895
0.865646
0.881443
0.8412
0.796573
0.734993
0.62216
0.472914
0.386296
0.369927
0.375393
0.393231
0.43728
0.470915
0.487351
0.485618
0.483378
0.482171
0.482949
0.589843
0.581177
0.568825
0.505633
0.383111
0.232831
0.10575
0.0404495
0.0101475
0.000724311
0.000843437
1.48057e-05
0.0122661
0.0213262
0.0134464
0.0178469
0.0147315
0.00797517
0.00345752
0.0896444
0.047859
0.034914
0.0190883
0.0122573
0.0196402
0.0225653
0.00952318
0.00926393
0.00585195
0.000504124
1.47761e-05
1.4023e-05
1.40082e-05
0.00184062
0.00133272
0.00133342
0.00111407
0.000742921
0.000116521
0.000112133
0.000115016
0.00011404
0.000187929
0.0030005
7.04311e-05
0.00315969
0.0117824
0.0114493
0.00155319
8.70047e-05
1.41321e-05
1.40673e-05
0.00419355
0.00684321
0.00629887
0.00433827
0.000857342
0.000115595
0.000182561
0.000271196
0.000576641
0.000482139
7.17004e-05
7.03499e-05
0.00441451
0.0117563
0.00720268
0.000903409
0.000730274
0.000111716
1.46085e-05
0.0091398
0.0141968
0.0141585
0.00660348
0.00192458
0.000266706
0.000905566
0.000571285
0.00120867
0.000530573
7.15046e-05
0.000517483
0.00249997
0.00489434
0.00700255
0.0050359
0.00399042
0.00229148
0.00128864
0.00963219
0.0130383
0.00694743
0.00544642
0.0019309
2.32528e-06
9.32052e-10
4.24063e-08
7.24652e-06
2.36518e-05
3.46753e-05
2.92291e-05
5.00152e-05
6.09072e-05
5.63365e-05
5.63187e-05
6.74808e-05
9.18536e-05
6.90194e-05
-8.83837e-10
-1.88575e-22
0.000102564
0.000201907
0.000142279
0.000210386
0.00029322
1.40889e-05
1.74715e-05
0.000343123
6.93523e-05
1.71975e-05
0.000192723
0.000579784
0.000660479
0.000384882
0.000245113
0.000126791
7.54056e-05
6.22683e-05
4.25769e-05
8.07065e-06
6.21315e-06
3.30007e-06
6.61745e-25
0.000112883
0.000907155
0.00157521
0.000827712
0.000315724
0.00108059
0.00308149
0.000574487
0.000451388
0.000937023
0.00213522
0.00240282
0.0024028
0.00188671
0.000487313
9.98625e-05
0.000117694
0.000165341
9.12018e-05
0.00012049
9.94146e-05
0.000279337
0.00111352
0.00203028
0.00485466
0.00506198
0.00502332
0.00521736
0.00581602
0.00581596
0.000565847
0.000479102
0.00193636
0.0024013
0.00240119
0.00162856
0.000493423
0.000131585
0.000151105
0.000741044
0.000859809
0.000789812
0.000774731
0.0021711
0.0023832
0.00237246
0.00304997
0.00379074
0.00380741
0.00382024
0.0040019
0.00548565
0.0056763
0.000318589
0.000380884
0.00122733
0.00108789
0.000246067
8.28251e-05
0.000170848
0.000312092
0.000282363
0.000184259
7.46773e-05
0.000690276
0.00152382
0.00148084
0.0004602
0.000160295
0.000188286
0.000161315
0.000158488
0.000254866
0.00066287
0.00136619
0.00279422
0.000177725
0.000177668
0.000177913
0.000212516
0.000108986
8.27815e-05
8.01289e-05
4.72659e-05
2.71066e-05
2.7096e-05
2.73642e-05
8.22667e-05
0.000166782
0.000180028
0.000173547
0.00015358
4.81861e-05
4.04872e-05
4.06152e-05
4.03887e-05
0.000105401
0.00152587
0.00218027
0.000177637
0.000258298
0.000505384
0.00027681
0.0003455
0.000498008
0.000498635
0.0002117
2.72307e-05
6.55728e-05
0.000116114
0.000113758
6.23526e-05
4.05076e-05
2.01031e-05
1.16225e-05
1.27209e-05
5.91046e-05
7.70108e-05
0.000132049
0.000181423
0.000206016
7.03297e-05
0.000313119
0.000528705
0.000527904
0.000275582
0.000105449
0.000131651
5.01097e-05
0.000162143
0.000885159
0.000971688
0.00097215
0.00097169
0.000971686
0.000427435
1.80944e-05
1.65786e-05
4.69551e-08
5.48503e-08
2.44328e-06
0.000115842
0.000175601
0.000105473
1.14421e-06
0.000488028
0.000527478
0.00052871
0.000294914
4.87224e-07
6.25579e-11
6.31007e-11
4.75469e-06
5.00332e-05
0.000486746
0.000884546
0.000963261
0.000901358
0.000474836
7.59167e-06
7.52617e-08
4.69787e-08
4.89794e-08
4.38043e-06
0.00011372
0.000171959
8.1324e-05
1.04282e-06
0.000200405
0.000283868
0.000403445
0.000211931
4.25933e-07
3.9736e-11
6.83328e-10
5.13997e-08
6.07481e-23
-1.15583e-09
-3.10554e-27
1.4574e-11
2.68235e-07
3.46359e-05
9.32878e-05
3.93914e-05
4.83336e-08
2.11793e-06
1.21609e-05
4.85729e-05
5.2723e-05
1.60821e-05
1.4748e-06
4.5072e-10
6.21597e-07
1.51618e-05
1.39155e-05
3.90924e-07
1.16464e-11
3.68405e-11
5.16945e-08
3.92701e-08
1.04835e-07
1.2097e-07
4.28068e-08
8.73197e-10
4.61843e-10
1.56069e-07
2.20776e-06
1.19585e-05
1.5748e-05
1.5612e-05
1.82357e-05
1.44092e-05
4.88814e-06
9.14363e-06
5.70202e-10
2.66404e-09
1.43233e-09
3.3923e-07
1.33681e-07
-3.70713e-11
2.42541e-08
3.46865e-08
1.36958e-07
1.84091e-07
1.84323e-07
1.66088e-07
4.69198e-08
3.26691e-08
4.48791e-08
1.57211e-07
8.38249e-08
8.4157e-08
8.38249e-08
1.1883e-07
1.84221e-06
1.38271e-06
1.10116e-06
7.48747e-10
1.15844e-09
1.34897e-09
1.43241e-09
1.33268e-08
7.84323e-08
9.08775e-08
9.14926e-08
1.36145e-07
1.63538e-07
9.59659e-08
6.3156e-09
2.89187e-07
6.178e-07
9.93883e-07
9.90758e-07
3.37478e-07
8.40135e-08
8.43456e-08
9.53533e-08
3.06589e-07
1.65819e-06
1.35894e-06
1.05048e-09
2.17992e-09
2.93096e-09
4.53402e-09
4.00413e-08
1.11504e-07
1.11016e-07
8.00927e-08
3.96277e-08
3.04406e-08
7.18333e-09
6.17567e-09
5.59579e-07
9.99019e-07
9.9914e-07
8.25373e-07
1.17116e-07
8.45761e-08
4.33417e-07
1.54041e-06
1.65598e-06
1.64952e-06
1.07902e-06
1.31452e-09
2.55552e-09
5.93639e-09
8.45952e-09
4.12885e-08
9.05778e-08
5.88742e-08
1.40051e-08
9.99252e-09
4.43239e-09
4.46791e-09
3.29958e-08
2.80307e-07
5.54476e-07
3.84251e-07
1.12749e-07
3.63333e-08
9.9223e-07
1.62587e-06
1.62478e-06
1.55356e-06
5.92008e-07
5.73793e-09
1.30206e-09
2.28967e-09
5.31115e-09
6.7495e-09
1.49828e-08
1.81286e-08
9.9128e-09
6.05901e-09
5.46401e-09
4.12724e-09
5.18827e-09
2.4191e-08
5.65195e-08
2.57348e-08
1.52194e-09
1.54524e-09
2.8342e-08
8.016e-07
1.62243e-06
1.3731e-06
1.19005e-07
3.64888e-08
4.96988e-08
1.2017e-09
1.79007e-09
3.42704e-09
3.44743e-09
4.46886e-09
3.56985e-09
3.38534e-09
3.12226e-09
3.4746e-09
4.11638e-09
5.83681e-09
5.67581e-09
4.96063e-09
2.35414e-09
1.49909e-09
1.24992e-08
6.56273e-08
8.6733e-08
8.03389e-08
5.63163e-07
5.72633e-07
7.51283e-08
1.12947e-07
1.0258e-09
1.3492e-09
2.05522e-09
1.99243e-09
2.11931e-09
1.98627e-09
1.88409e-09
2.14899e-09
2.94856e-09
3.45993e-09
2.80743e-09
1.40682e-09
7.80468e-10
8.09055e-10
1.47664e-09
4.0454e-09
4.95828e-09
1.92624e-09
6.11257e-10
2.9687e-07
6.79312e-07
2.73854e-07
1.28992e-07
8.61859e-10
9.28185e-10
1.30065e-09
1.31287e-09
1.44443e-09
1.57099e-09
1.53171e-09
1.65929e-09
2.04411e-09
1.91021e-09
1.21817e-09
6.761e-10
5.36547e-10
6.33486e-10
7.66562e-10
8.60437e-10
8.51057e-10
6.80931e-10
6.07847e-10
1.59666e-08
4.16512e-07
4.7839e-07
1.56494e-07
8.04806e-10
6.79994e-10
8.99252e-10
9.66691e-10
1.11078e-09
1.15982e-09
1.07235e-09
1.05121e-09
1.04261e-09
8.5831e-10
5.73582e-10
4.10454e-10
3.47737e-10
3.62454e-10
3.90056e-10
4.12424e-10
4.58415e-10
5.33589e-10
6.66303e-10
1.97208e-09
1.85453e-08
2.81102e-07
1.89761e-07
7.46563e-10
4.7672e-10
6.10897e-10
6.6419e-10
7.29452e-10
7.04557e-10
6.1463e-10
5.35895e-10
4.61986e-10
3.67694e-10
2.80848e-10
2.24522e-10
1.90653e-10
1.88001e-10
1.96724e-10
2.19646e-10
2.74468e-10
3.93014e-10
6.00527e-10
9.09766e-10
8.13298e-10
3.14018e-08
8.31575e-08
7.01499e-10
3.31291e-10
3.8837e-10
4.00762e-10
3.95548e-10
3.47854e-10
2.80992e-10
2.24003e-10
1.77892e-10
1.39955e-10
1.13442e-10
9.43316e-11
7.86123e-11
7.38516e-11
7.5485e-11
8.26049e-11
1.00718e-10
1.42451e-10
2.27411e-10
3.77812e-10
5.88749e-10
2.46428e-10
2.74584e-08
6.5888e-10
2.22592e-10
2.27643e-10
2.15342e-10
1.88954e-10
1.52194e-10
1.15424e-10
8.59939e-11
6.31909e-11
4.71198e-11
3.71371e-11
3.01361e-11
2.53301e-11
2.32261e-11
2.36035e-11
2.57389e-11
3.07036e-11
4.14086e-11
6.37789e-11
1.05101e-10
1.84397e-10
2.41084e-10
5.31019e-09
6.15167e-10
1.50431e-10
1.3346e-10
1.16543e-10
9.94895e-11
8.20434e-11
6.38164e-11
4.62869e-11
3.03174e-11
1.95428e-11
1.296e-11
9.04074e-12
7.04319e-12
6.32404e-12
6.52117e-12
7.4553e-12
9.23917e-12
1.24365e-11
1.85367e-11
2.96775e-11
4.71506e-11
8.32849e-11
6.63363e-10
5.85814e-10
1.05924e-10
8.48926e-11
8.09007e-11
8.45048e-11
8.21056e-11
7.04015e-11
5.30919e-11
3.30039e-11
1.82235e-11
9.30926e-12
4.74886e-12
2.62988e-12
1.84087e-12
1.75794e-12
2.09733e-12
2.78367e-12
3.94483e-12
5.84269e-12
8.88155e-12
1.38966e-11
2.02747e-11
6.63804e-11
5.6223e-10
7.91104e-11
6.90137e-11
8.85864e-11
1.13441e-10
1.21496e-10
1.05707e-10
7.91304e-11
4.78488e-11
2.5758e-11
1.25575e-11
5.54865e-12
2.31359e-12
1.01181e-12
6.06675e-13
6.09683e-13
8.29836e-13
1.25733e-12
1.94872e-12
3.01255e-12
4.43644e-12
7.44452e-12
1.25074e-11
5.46777e-10
6.89736e-11
7.86708e-11
1.28257e-10
1.77372e-10
2.00296e-10
1.70092e-10
1.13827e-10
6.64045e-11
3.59236e-11
1.76531e-11
7.79633e-12
3.12976e-12
1.15617e-12
4.26579e-13
2.30559e-13
2.53506e-13
3.92212e-13
6.36257e-13
1.00941e-12
1.59611e-12
2.30135e-12
3.97093e-12
5.40776e-10
6.89934e-11
1.12336e-10
1.89355e-10
2.83524e-10
3.30776e-10
2.61035e-10
1.50859e-10
8.27029e-11
4.55813e-11
2.28862e-11
1.04141e-11
4.26653e-12
1.58825e-12
5.23555e-13
1.70329e-13
9.34267e-14
1.20036e-13
2.06226e-13
3.52194e-13
5.61916e-13
1.00766e-12
1.51589e-12
5.41976e-10
8.49707e-11
1.69406e-10
3.37055e-10
5.20912e-10
5.78286e-10
3.42734e-10
1.82916e-10
9.32396e-11
5.19743e-11
2.67927e-11
1.24796e-11
5.33868e-12
2.08277e-12
7.04486e-13
2.07051e-13
6.31179e-14
4.07646e-14
6.42325e-14
1.13252e-13
2.14672e-13
3.27747e-13
6.2378e-13
5.48069e-10
1.12016e-10
2.82865e-10
6.57923e-10
9.00925e-10
9.16824e-10
5.04293e-10
2.0665e-10
9.5087e-11
5.3347e-11
2.82954e-11
1.34696e-11
6.01607e-12
2.4748e-12
8.86169e-13
2.74428e-13
7.1976e-14
2.23823e-14
2.16827e-14
3.98115e-14
7.11335e-14
1.61441e-13
2.61806e-13
5.6209e-10
1.43845e-10
4.44586e-10
9.99209e-10
1.31354e-09
1.14002e-09
6.72384e-10
2.49362e-10
9.14401e-11
4.94793e-11
2.67647e-11
1.29412e-11
6.04417e-12
2.60334e-12
1.01601e-12
3.39754e-13
9.35609e-14
2.17109e-14
9.45652e-15
1.45622e-14
3.45836e-14
6.63358e-14
1.40851e-13
5.90857e-10
1.95035e-10
6.57741e-10
1.30765e-09
1.43458e-09
1.23052e-09
7.22296e-10
2.55467e-10
9.48784e-11
4.486e-11
2.32423e-11
1.11684e-11
5.35828e-12
2.45109e-12
1.02445e-12
3.73011e-13
1.12578e-13
2.69132e-14
6.48319e-15
6.1055e-15
1.31519e-14
4.09256e-14
7.89662e-14
6.26459e-10
2.3942e-10
8.74259e-10
1.38813e-09
1.44117e-09
1.2678e-09
6.52736e-10
2.74064e-10
9.94901e-11
3.99225e-11
1.85731e-11
8.76964e-12
4.3287e-12
2.0244e-12
8.96822e-13
3.59139e-13
1.21163e-13
3.28426e-14
6.93561e-15
2.92482e-15
6.36855e-15
1.51194e-14
4.9522e-14
6.89238e-10
2.94941e-10
9.52732e-10
1.38199e-09
1.40386e-09
1.08987e-09
6.1017e-10
3.00424e-10
9.78634e-11
3.3343e-11
1.38562e-11
6.42084e-12
3.18205e-12
1.48415e-12
6.7869e-13
2.96289e-13
1.13178e-13
3.43881e-14
7.39789e-15
1.81054e-15
2.4653e-15
1.0787e-14
2.34442e-14
7.58366e-10
3.2291e-10
9.09897e-10
1.31505e-09
1.1265e-09
8.29098e-10
6.09082e-10
2.96039e-10
8.87601e-11
2.57076e-11
9.69326e-12
4.41896e-12
2.11773e-12
9.76038e-13
4.41057e-13
2.05068e-13
8.87715e-14
3.08915e-14
7.80742e-15
1.44174e-15
1.00094e-15
2.73115e-15
1.15794e-14
8.65647e-10
3.19525e-10
8.32221e-10
1.17665e-09
8.57582e-10
7.8901e-10
5.78336e-10
2.88861e-10
8.03728e-11
1.86212e-11
6.29053e-12
2.75458e-12
1.29769e-12
5.7419e-13
2.48872e-13
1.16775e-13
5.695e-14
2.33752e-14
6.83589e-15
1.38662e-15
5.16518e-16
1.46196e-15
4.22993e-15
9.88251e-10
3.20341e-10
6.8349e-10
8.55949e-10
7.07557e-10
7.0889e-10
5.34259e-10
2.68207e-10
7.28035e-11
1.3122e-11
3.72516e-12
1.5717e-12
7.29273e-13
3.05657e-13
1.2248e-13
5.43195e-14
2.78975e-14
1.36666e-14
5.01793e-15
1.1797e-15
2.22378e-16
3.02547e-16
1.64062e-15
1.17603e-09
3.38434e-10
4.96792e-10
6.18669e-10
6.24319e-10
6.25478e-10
4.59208e-10
2.25911e-10
6.66797e-11
9.83581e-12
1.93168e-12
7.90136e-13
3.66918e-13
1.48568e-13
5.36622e-14
2.07914e-14
1.02018e-14
5.68534e-15
2.67294e-15
8.3052e-16
1.33872e-16
1.01378e-16
3.33741e-16
1.36083e-09
4.12053e-10
4.44157e-10
5.42235e-10
6.34215e-10
5.88242e-10
3.83053e-10
1.67386e-10
4.66446e-11
6.8404e-12
8.72534e-13
3.36219e-13
1.60435e-13
6.38998e-14
2.104e-14
6.58623e-15
2.7179e-15
1.57302e-15
9.58013e-16
4.21561e-16
8.62638e-17
2.85619e-17
7.13603e-17
1.59497e-09
6.15063e-10
4.55208e-10
5.94102e-10
6.58875e-10
5.31908e-10
2.80738e-10
1.007e-10
2.41218e-11
3.04839e-12
3.04387e-13
1.10294e-13
5.63314e-14
2.27631e-14
7.06951e-15
1.84551e-15
5.44451e-16
2.72911e-16
2.13509e-16
1.49082e-16
4.15492e-17
8.5445e-18
1.49094e-17
1.83062e-09
9.4627e-10
5.75489e-10
7.13622e-10
6.59177e-10
3.92353e-10
1.51294e-10
3.98083e-11
6.99097e-12
6.39528e-13
5.67493e-14
2.34502e-14
1.33733e-14
5.69798e-15
1.73192e-15
3.89497e-16
7.77079e-17
2.87493e-17
3.09895e-17
3.53336e-17
1.5856e-17
3.446e-18
2.74731e-18
2.00628e-09
1.19935e-09
8.98738e-10
7.7113e-10
4.5892e-10
1.56786e-10
3.52595e-11
5.66729e-12
5.40387e-13
2.84172e-14
4.2817e-15
2.45002e-15
1.61856e-15
7.43148e-16
2.30681e-16
4.54996e-17
6.47013e-18
1.77742e-18
3.08016e-18
6.04076e-18
5.33543e-18
1.42782e-18
6.48657e-19
0.000215864
0.000375549
0.000375633
0.000527457
0.00159978
0.000895907
0.00279979
0.00280302
0.00581747
0.00488704
0.000854377
0.000490826
0.00140672
0.000615351
0.000494171
0.000497721
0.00172073
0.00120665
0.00105255
0.00110329
0.00148747
0.00119148
0.0005206
0.000523864
0.0012921
0.00343228
0.00374856
0.00361916
0.000764553
0.00374856
0.00374849
0.00374856
0.000914096
0.00374827
0.00374856
0.00374827
0.000744611
0.0034495
0.00371489
0.0026348
1.98747e-05
1.54697e-08
1.65777e-08
1.38531e-08
1.71851e-08
1.46218e-08
1.8048e-07
7.58743e-07
4.5666e-07
5.96026e-09
6.43198e-09
6.43538e-09
7.9945e-08
5.44666e-09
7.48558e-09
6.45003e-09
5.44666e-09
5.44672e-09
1.20901e-07
1.40484e-07
1.76191e-07
2.02301e-07
1.27819e-07
1.3119e-06
2.51868e-07
3.08595e-07
3.59246e-06
6.26249e-06
1.3803e-07
1.09445e-07
2.17685e-06
6.33966e-06
9.12882e-08
4.94662e-08
1.46143e-07
2.45594e-06
8.38183e-08
3.77286e-08
7.20529e-08
6.47237e-08
8.49675e-08
3.86528e-08
1.54942e-08
7.90895e-09
4.05999e-08
3.06802e-08
9.06032e-09
3.30179e-09
8.11785e-09
8.55627e-09
5.1466e-09
3.27967e-09
9.86292e-10
9.36522e-10
1.03341e-09
1.12939e-09
1.06382e-10
1.10146e-10
1.30268e-10
1.69559e-10
1.77428e-11
2.13602e-11
2.52051e-11
2.98899e-11
5.62517e-12
6.69256e-12
8.51903e-12
1.02705e-11
2.19123e-12
2.87567e-12
3.53608e-12
4.30275e-12
9.03541e-13
1.16372e-12
1.54592e-12
1.89547e-12
4.16286e-13
5.91577e-13
7.63143e-13
9.89516e-13
2.35339e-13
3.26959e-13
4.74669e-13
6.19741e-13
1.51541e-13
2.35231e-13
3.23514e-13
4.69205e-13
9.3063e-14
1.41407e-13
2.35713e-13
3.0881e-13
6.42361e-14
9.31338e-14
1.39618e-13
2.26931e-13
2.52309e-14
4.34097e-14
7.8469e-14
1.08043e-13
1.20467e-14
1.98439e-14
3.34461e-14
6.16666e-14
3.86735e-15
7.29671e-15
1.27006e-14
2.04546e-14
1.02829e-15
1.70563e-15
3.36026e-15
6.56515e-15
1.83528e-16
3.35958e-16
6.04507e-16
1.14989e-15
3.44862e-17
6.03666e-17
1.21114e-16
2.37249e-16
6.0417e-18
9.81743e-18
1.63423e-17
2.96177e-17
9.68229e-19
1.28397e-18
1.79002e-18
2.66818e-18
0.000991917
0.000998963
0.000655295
0.00157447
0.00120367
7.29203e-05
0.00103996
0.00197232
0.0147732
0.0218803
0.0197667
0.0122267
0.00237503
0.00128439
0.00850719
0.00615973
0.00495924
0.00454297
0.00150902
0.000827355
0.000491947
0.00049142
0.00215778
0.00202408
0.00105494
0.00446472
0.0169496
0.0223094
0.0223094
0.0223094
0.0223094
0.00984083
0.011171
0.00886222
0.00930973
0.00930435
0.00507673
0.00150651
0.000494754
0.000865878
0.00752543
0.010015
0.0084062
0.00483939
0.0123879
0.0215658
0.0223094
0.0223075
0.0221874
0.0201693
0.0188716
0.0146956
0.00977769
0.00787398
0.00601909
0.00436034
0.00422952
0.00391628
0.0100294
0.0100204
0.0100166
0.00940835
0.00475814
0.00761528
0.00720007
0.01105
0.0129779
0.00364852
7.97097e-05
0.000102819
0.00191337
0.00220464
0.0016493
0.00164186
0.00226809
0.00481849
0.00281266
0.00471856
0.00510516
0.00538093
0.00463189
0.00202204
0.00162976
0.00172052
0.00168818
0.0009991
0.000362158
7.98042e-05
7.98738e-05
0.000143771
0.000155545
0.000512197
0.0020679
0.0046382
0.00737235
0.0005324
0.000540482
0.000282438
0.000101829
0.000138513
0.000633078
0.00112739
0.00115983
0.000964118
0.00113082
0.000295117
0.000123831
8.25929e-05
8.33377e-05
0.000137664
0.000937532
0.00259581
0.00737155
0.00737199
0.000695058
0.000467365
4.25258e-05
4.24529e-05
4.24518e-05
4.24559e-05
5.3711e-05
5.77152e-05
0.000233774
0.00141142
0.00223029
0.00160559
0.00131216
0.00141263
0.00214406
0.00330206
0.00691797
0.0073712
0.00737135
0.00208596
0.000370904
0.000261645
7.31959e-05
5.62121e-05
5.89508e-05
5.59638e-05
7.277e-05
0.00149145
0.00479124
0.00479397
0.00478951
0.0045571
0.00428385
0.00427482
0.00397526
0.00348434
0.0050177
0.00617064
0.00374856
0.00300872
0.00188169
0.00106784
0.000902484
0.000697979
0.000284054
0.000289859
0.00285104
0.00462135
0.00397196
0.00176999
0.000770606
0.000334355
5.61533e-05
4.45585e-06
4.50548e-07
4.44332e-07
0.000101249
0.00225195
0.00219656
0.00150377
0.00105282
0.000789998
0.000634713
0.000623942
0.00109536
0.00104713
0.000424874
8.76515e-09
1.01419e-08
1.49792e-08
6.86984e-09
5.989e-09
6.86983e-09
5.1552e-07
7.8828e-07
1.4779e-06
1.24452e-08
9.41234e-07
1.04724e-07
8.58959e-08
8.61353e-08
8.51835e-07
9.81537e-05
0.00023657
5.5788e-05
2.8195e-11
7.44912e-09
2.41542e-08
2.56599e-08
2.20605e-08
5.11844e-09
7.16969e-07
2.3485e-06
2.97977e-06
2.48776e-06
8.61953e-07
5.2586e-07
1.6154e-07
1.16938e-07
6.56451e-07
7.6736e-07
5.64193e-12
5.99735e-12
5.64193e-12
3.09322e-11
1.74794e-07
3.50885e-07
2.28488e-07
1.52301e-07
4.26694e-09
5.0743e-07
2.46632e-06
3.01669e-06
3.46171e-06
1.55691e-07
1.89849e-07
1.53987e-07
3.40985e-07
2.73089e-06
2.5299e-06
9.21234e-07
2.09204e-07
9.84114e-08
5.27415e-07
4.04555e-07
1.94479e-06
2.71561e-06
1.06408e-06
7.76551e-11
7.71457e-11
7.93146e-07
1.99243e-06
2.56031e-06
6.44609e-09
1.02809e-07
2.69356e-07
1.36703e-06
2.75352e-06
2.59536e-06
9.65711e-07
1.69421e-06
3.91008e-06
3.47771e-06
3.6066e-06
5.50483e-06
5.03146e-06
1.25821e-06
7.70676e-11
7.7672e-11
8.21377e-11
2.35282e-10
9.7262e-09
2.24097e-07
7.66605e-07
1.14219e-06
1.94841e-06
1.94683e-06
9.44724e-07
1.54508e-06
8.23502e-06
7.67661e-06
7.75539e-06
7.57492e-06
4.42646e-06
8.86975e-07
8.50938e-11
7.76303e-11
2.39136e-08
2.6391e-08
1.65844e-08
1.74562e-08
4.79493e-06
6.36875e-06
3.52266e-06
1.13602e-06
4.16857e-07
1.70582e-06
8.87261e-06
8.81769e-06
2.48743e-06
2.73136e-07
3.90113e-08
4.2867e-08
4.81311e-08
1.99202e-07
1.75512e-07
4.46761e-07
6.98866e-08
2.70329e-08
5.65082e-08
6.36465e-06
6.36414e-06
7.42116e-07
1.59758e-07
1.00767e-07
4.00248e-06
8.85637e-06
5.60729e-06
5.07802e-09
5.47315e-09
7.89619e-08
3.6281e-07
6.52141e-07
1.16919e-06
1.71142e-06
1.50829e-06
1.61229e-07
9.31309e-07
8.61008e-08
6.36464e-06
2.27757e-06
5.92552e-07
1.00769e-07
1.00764e-07
2.27003e-06
8.64971e-06
1.2201e-06
9.18231e-08
2.49855e-08
2.46885e-07
1.18341e-06
2.21171e-06
2.24693e-06
2.31552e-06
2.31553e-06
9.56397e-07
3.03241e-06
7.63038e-07
1.32885e-06
7.61966e-09
1.20232e-06
1.10027e-06
3.24648e-07
1.83641e-06
1.64884e-06
9.13784e-07
2.35406e-07
6.464e-08
5.94468e-08
9.88332e-07
1.67678e-06
2.24577e-06
2.31622e-06
1.20772e-06
3.33489e-06
3.48601e-06
2.01348e-06
2.5959e-08
7.15307e-09
1.33862e-07
7.55296e-07
8.1963e-07
8.16592e-07
6.80822e-07
5.81541e-07
3.35159e-07
1.79179e-07
1.10501e-07
7.16181e-09
6.77138e-09
3.97352e-07
8.49136e-07
2.42545e-09
1.97215e-06
3.48665e-06
2.02216e-06
5.86858e-09
5.33882e-09
1.324e-08
3.34812e-08
2.45309e-07
2.57881e-07
2.20078e-07
3.52493e-07
5.0415e-07
5.03693e-07
5.00845e-07
7.37198e-08
1.59483e-08
1.22017e-11
3.1311e-15
-5.92608e-13
1.83657e-07
3.46494e-06
8.4851e-07
5.00784e-09
5.70357e-09
5.67747e-09
5.19943e-09
6.26104e-09
6.3484e-09
5.33239e-09
1.94233e-09
3.37278e-08
9.92209e-08
1.00953e-07
1.10775e-07
2.7283e-08
1.20061e-09
7.59357e-10
5.61e-16
1.61619e-07
8.73438e-07
4.41487e-07
3.82719e-09
3.58643e-09
2.92215e-09
2.2048e-09
1.7208e-09
1.24252e-09
1.21226e-09
1.87046e-09
1.15914e-09
1.1586e-09
1.16103e-09
1.26069e-09
4.9064e-09
7.13639e-09
5.72456e-09
5.77436e-15
8.18112e-08
4.11011e-08
1.37972e-07
1.14474e-09
1.00764e-09
8.95207e-10
8.36407e-10
7.85524e-10
8.04914e-10
9.26632e-10
1.05054e-09
1.16221e-09
1.51113e-09
2.55674e-09
3.74052e-09
6.36307e-09
6.89065e-09
4.60935e-09
8.88322e-12
3.2591e-08
4.07502e-08
7.90055e-08
1.75446e-10
1.74082e-10
1.97301e-10
2.41302e-10
3.19697e-10
4.52047e-10
6.18962e-10
8.48518e-10
1.37369e-09
2.4802e-09
3.54987e-09
4.35592e-09
4.38004e-09
4.14186e-09
2.93058e-09
1.11852e-11
2.50574e-08
4.34517e-08
1.03779e-08
3.43007e-11
4.22046e-11
5.60501e-11
7.71019e-11
1.10403e-10
1.63042e-10
2.4273e-10
3.75263e-10
5.81637e-10
9.35094e-10
1.43965e-09
1.62426e-09
1.88147e-09
2.39091e-09
2.44134e-09
8.46902e-10
9.45023e-10
3.75447e-08
1.03857e-08
1.23754e-11
1.70584e-11
2.43308e-11
3.51159e-11
5.21164e-11
7.75638e-11
1.14501e-10
1.71675e-10
2.64045e-10
4.23104e-10
6.59302e-10
9.84542e-10
1.63973e-09
2.93965e-09
2.27014e-09
7.97588e-10
3.29209e-08
2.63762e-08
1.0094e-08
5.32231e-12
7.82964e-12
1.20357e-11
1.85901e-11
2.93929e-11
4.67653e-11
7.3958e-11
1.19787e-10
2.01886e-10
3.60584e-10
6.50311e-10
1.14399e-09
2.01075e-09
3.50956e-09
7.18939e-10
1.54322e-08
7.41058e-08
3.23378e-08
8.76907e-09
2.43281e-12
3.81819e-12
6.07245e-12
9.74943e-12
1.60376e-11
2.70079e-11
4.61789e-11
8.09712e-11
1.515e-10
2.94059e-10
5.83192e-10
1.10986e-09
2.03582e-09
3.83736e-09
7.09455e-10
4.77479e-08
7.41195e-08
3.63126e-08
8.76899e-09
1.30575e-12
2.10972e-12
3.43102e-12
5.59465e-12
9.34216e-12
1.6363e-11
2.96321e-11
5.52285e-11
1.0877e-10
2.30002e-10
4.97385e-10
1.02075e-09
1.74401e-09
3.17738e-09
7.18976e-10
5.58371e-08
5.98056e-08
3.00665e-08
7.4011e-09
8.59068e-13
1.42185e-12
2.34933e-12
3.87537e-12
6.42199e-12
1.04499e-11
1.68119e-11
2.98408e-11
6.01989e-11
1.4225e-10
3.41851e-10
7.76072e-10
1.44721e-09
2.65882e-09
2.97438e-09
4.83863e-08
5.09804e-08
1.51434e-08
7.00503e-09
6.39678e-13
1.09392e-12
1.86096e-12
3.14764e-12
5.32492e-12
8.6239e-12
1.38929e-11
2.27567e-11
3.85308e-11
7.16837e-11
1.59733e-10
3.94707e-10
1.12523e-09
2.52645e-09
6.60842e-09
1.22853e-08
1.03394e-08
6.18289e-09
6.19855e-09
4.8624e-13
8.51907e-13
1.52453e-12
2.7098e-12
4.79965e-12
8.19412e-12
1.37475e-11
2.2583e-11
3.63056e-11
5.8452e-11
1.02085e-10
2.09578e-10
6.97543e-10
2.03788e-09
8.66065e-09
5.53656e-09
5.52185e-09
5.69966e-09
9.49646e-09
3.07431e-13
6.21344e-13
1.19269e-12
2.24016e-12
4.23021e-12
7.74096e-12
1.37818e-11
2.37849e-11
3.88663e-11
5.99064e-11
9.24349e-11
1.40233e-10
2.2288e-10
1.47159e-09
1.20823e-08
2.68038e-08
5.50469e-09
5.50538e-09
5.48826e-09
1.94287e-13
3.90401e-13
8.13487e-13
1.69608e-12
3.46223e-12
6.88184e-12
1.32376e-11
2.44627e-11
4.20404e-11
6.67238e-11
9.99331e-11
1.36994e-10
1.56575e-10
1.56643e-10
1.61504e-08
8.43761e-08
8.68458e-08
5.50469e-09
7.14223e-08
9.1387e-14
2.12651e-13
4.87138e-13
1.11651e-12
2.54298e-12
5.58261e-12
1.17866e-11
2.33976e-11
4.31782e-11
7.28786e-11
1.14167e-10
1.61469e-10
1.9887e-10
2.07317e-09
2.22059e-08
7.98299e-08
1.60835e-07
6.17033e-08
1.56732e-07
3.66877e-14
9.35932e-14
2.41411e-13
6.30156e-13
1.6389e-12
4.03601e-12
9.40965e-12
2.03558e-11
4.03598e-11
7.45574e-11
1.26345e-10
1.99806e-10
2.74683e-10
7.94077e-10
8.9954e-09
7.85346e-08
1.60899e-07
1.49014e-07
1.61462e-07
1.15104e-14
3.28463e-14
9.7462e-14
2.97266e-13
8.77729e-13
2.4759e-12
6.5003e-12
1.55838e-11
3.37087e-11
6.78288e-11
1.24733e-10
2.192e-10
3.43183e-10
4.9492e-10
4.2039e-09
3.3015e-08
9.75268e-08
1.59593e-07
1.10418e-07
2.77162e-15
8.88561e-15
3.02411e-14
1.06623e-13
3.6891e-13
1.20627e-12
3.65857e-12
9.89385e-12
2.40018e-11
5.1776e-11
1.06508e-10
2.0244e-10
3.60929e-10
5.71212e-10
7.79801e-10
3.33959e-09
3.96189e-08
1.10723e-07
4.49917e-08
4.68463e-16
1.59963e-15
6.58751e-15
2.76881e-14
1.18689e-13
4.72035e-13
1.68657e-12
5.30165e-12
1.48819e-11
3.65572e-11
8.08533e-11
1.67069e-10
3.25826e-10
5.73937e-10
8.78377e-10
1.23549e-09
4.00893e-09
1.60803e-08
1.55424e-09
5.39973e-17
1.8224e-16
7.81078e-16
3.84041e-15
2.07157e-14
1.06917e-13
4.82143e-13
1.89707e-12
6.35877e-12
1.84227e-11
4.83046e-11
1.12658e-10
2.45327e-10
4.90307e-10
8.32051e-10
1.16671e-09
1.53256e-09
2.0708e-09
1.06893e-09
4.07185e-18
1.08483e-17
4.18184e-17
2.30044e-16
1.50167e-15
9.92419e-15
6.00063e-14
3.11283e-13
1.37494e-12
4.99915e-12
1.46743e-11
3.93162e-11
9.56835e-11
2.27807e-10
5.63715e-10
1.03703e-09
1.21951e-09
1.23512e-09
9.30037e-10
)
;

boundaryField
{
    leftWall
    {
        type            zeroGradient;
    }
    rightWall
    {
        type            zeroGradient;
    }
    lowerWall
    {
        type            zeroGradient;
    }
    atmosphere
    {
        type            inletOutlet;
        inletValue      uniform 0;
        value           nonuniform List<scalar> 
46
(
2.00628e-09
1.19935e-09
8.98738e-10
7.7113e-10
4.5892e-10
1.56786e-10
3.52595e-11
5.66729e-12
5.40387e-13
2.84172e-14
0
0
0
0
0
0
0
1.77742e-18
3.08016e-18
6.04076e-18
5.33543e-18
1.42782e-18
6.48657e-19
0
0
0
0
0
0
0
0
0
0
0
0
0
0
0
0
0
0
0
0
1.21951e-09
1.23512e-09
0
)
;
    }
    defaultFaces
    {
        type            empty;
    }
}


// ************************************************************************* //
