/*--------------------------------*- C++ -*----------------------------------*\
| =========                 |                                                 |
| \\      /  F ield         | OpenFOAM: The Open Source CFD Toolbox           |
|  \\    /   O peration     | Version:  2312                                  |
|   \\  /    A nd           | Website:  www.openfoam.com                      |
|    \\/     M anipulation  |                                                 |
\*---------------------------------------------------------------------------*/
FoamFile
{
    version     2.0;
    format      ascii;
    arch        "LSB;label=32;scalar=64";
    class       volScalarField;
    location    "4.5";
    object      p;
}
// * * * * * * * * * * * * * * * * * * * * * * * * * * * * * * * * * * * * * //

dimensions      [1 -1 -2 0 0 0 0];

internalField   nonuniform List<scalar> 
2268
(
4912.99
4930.23
4961.48
5004.59
5056.37
5113.67
5173.78
5234.3
5292.96
5347.37
5394.95
5432.68
5457.56
5467.57
5461.74
5439.94
5403.99
5357.61
5305.8
5254.74
5210.31
5177.33
5159.39
4111.38
4129.22
4161.32
4204.98
4257.27
4315.08
4375.77
4436.98
4496.43
4551.75
4600.33
4639.01
4664.47
4674.77
4668.87
4646.52
4609.53
4561.78
4508.38
4455.88
4410.4
4376.53
4358.1
3306.27
3324.94
3357.83
3402.36
3455.56
3514.34
3576.19
3638.77
3699.76
3756.86
3807.46
3848.07
3874.78
3885.6
3879.5
3855.93
3816.75
3766.17
3709.48
3654.09
3606.62
3570.94
3551.57
2496.8
2516.55
2550.59
2596.5
2651.19
2711.54
2775.35
2840.21
2903.67
2963.47
3017.06
3060.54
3088.91
3100.36
3093.82
3068.23
3025.66
2970.81
2909.08
2849.39
2799.27
2760.86
2739.44
1682.43
1703.78
1739.79
1787.88
1844.75
1907.26
1973.88
2042.06
2109.03
2172.53
2230.07
2277.24
2307.3
2319.22
2311.65
2282.73
2235.34
2174.73
2106.03
2040.67
1987.88
1945.99
1922.13
1009.53
1022.4
1045.76
1079.2
1119.81
1165.9
1217.95
1274.8
1334.39
1394.47
1451.99
1501.14
1531.55
1543.69
1534.01
1500.65
1455.5
1401.73
1346.52
1294.81
1257.07
1229.05
1218.66
726.618
727.34
730.378
737.825
749.208
764.145
782.908
805.679
832.469
862.288
892.65
919.838
939.912
947.513
943.461
928.332
912.834
896.966
884.973
873.859
867.392
864.619
870.25
665.928
666.468
666.369
666.62
668.181
670.535
672.871
675.128
678.295
682.809
687.196
690.913
695.45
701.174
708.707
717.69
727.492
738.452
749.575
759.875
768.059
772.797
776.994
3261.59
3267.22
3240.67
3160.02
3042.25
2894.97
2724.64
2564.21
2456.03
2399.88
2381.69
2384.06
2403.08
2425.08
2437.79
2437.74
2431.84
2428.49
2429.23
2501.41
2505.5
2484.32
2401.11
2281.38
2133.58
1965.96
1809.93
1708.67
1657.52
1637.74
1638.47
1656.02
1675.93
1686.42
1685.23
1679.94
1675.95
1673.96
1802.71
1784.95
1761.45
1691.62
1585.57
1460.43
1333.82
1235.16
1177.02
1136.13
1112.24
1105.32
1109.66
1116.29
1118.08
1116.17
1111.9
1106.63
1101.1
1247.51
1214.38
1193.88
1158.56
1109.03
1056.48
1012.59
990.498
976.585
952.873
929.583
916.865
902.295
892.412
888.811
885.862
882.085
878.241
875.592
948.342
932.829
922.75
916.453
913.535
910.207
909.875
913.632
912.144
897.562
879.729
866.548
851.175
837.149
832.051
829.142
825.408
822.293
824.362
865.699
860.188
854.37
852.754
852.13
846.359
844.333
848.703
844.852
833.32
823.251
810.743
797.494
783.534
774.841
771.454
767.383
763.975
767.23
812.983
803.362
796.444
794.562
794.007
788.786
786.914
785.381
777.994
769.586
765.925
752.813
737.774
725.871
716.072
710.781
706.873
703.374
706.321
757.738
746.415
738.974
736.04
735.853
730.743
728.694
722.828
714.411
707.887
706.005
690.614
674.976
665.236
655.897
649.133
644.635
641.716
644.748
570.096
570.698
571.122
572.376
574.821
577.746
581.125
584.631
588.416
592.7
597.336
602.111
606.943
612.51
619.984
628.356
637.349
647.187
657.065
666.209
674.077
679.374
681.919
440.818
441.007
441.693
443.1
445.673
449.663
454.809
460.015
465.173
470.558
476.214
482.01
487.843
493.771
499.727
506.139
513.11
521.237
529.849
538.335
546.199
552.997
558.314
323.624
323.374
323.711
324.519
326.555
329.92
334.917
340.344
345.094
350.206
356.332
363.504
370.295
375.18
379.27
385.556
392.623
399.995
407.896
416.256
424.316
431.47
437.259
237.657
237.129
236.534
236.247
237.408
239.267
242.142
246.362
250.12
254.009
258.924
265.886
273.822
280.446
285.331
291.476
299.748
307.939
315.713
323.042
329.984
336.019
340.115
172.054
171.554
170.983
170.336
170.11
171.393
173.286
176.259
180.511
185.602
191.181
197.5
204.667
212.524
221.118
228.848
236.381
243.91
250.982
257.251
262.742
267.122
269.255
102.704
101.837
100.732
99.1007
98.3087
99.9817
104.052
109.533
116.863
125.175
133.768
141.893
149.412
156.779
164.322
171.812
178.902
185.654
191.872
197.186
201.544
204.745
206.444
36.3054
35.8429
34.6553
32.3981
30.6133
31.8131
36.0497
43.0786
53.6664
65.0386
75.2816
84.6184
93.1305
100.505
107.717
114.821
121.619
127.939
133.555
137.952
141.42
143.842
145.437
4.83576
4.864
4.45554
3.67922
3.22867
3.08816
3.26945
5.13484
10.2645
17.6925
24.4887
30.885
38.3259
45.1109
51.5359
57.9019
63.9677
69.4953
74.3367
78.1416
81.0782
82.9711
83.9677
0.0552967
0.126401
0.184591
0.00158439
-0.275967
-0.755473
-1.05914
-1.16409
-1.22944
-1.04428
-0.569122
0.997149
5.1227
9.22816
12.7195
15.9335
18.9154
21.7936
25.0861
27.9696
29.9858
31.1368
31.3094
-1.0703
-1.09622
-1.03066
-1.07213
-1.26576
-1.4506
-1.48773
-1.55559
-1.67547
-1.7515
-1.72614
-1.72961
-1.74092
-1.72176
-1.64898
-1.59644
-1.36992
-0.757507
0.192398
0.93692
1.50632
1.9425
2.37224
-1.57495
-1.62064
-1.62236
-1.61962
-1.65823
-1.68753
-1.69777
-1.73325
-1.78177
-1.83278
-1.8654
-1.84974
-1.83683
-1.84126
-1.85111
-1.85428
-1.86331
-1.85138
-1.83817
-1.82531
-1.81713
-1.81684
-1.79993
-1.76012
-1.77822
-1.79573
-1.79874
-1.80329
-1.81965
-1.83707
-1.86453
-1.89313
-1.92459
-1.93821
-1.94113
-1.94998
-1.95939
-1.96879
-1.97408
-1.98025
-1.98002
-1.97364
-1.97354
-1.98449
-2.00964
-2.03776
-1.90545
-1.9142
-1.92102
-1.92187
-1.93248
-1.95082
-1.96822
-1.9923
-2.01907
-2.04376
-2.06114
-2.07521
-2.08001
-2.08436
-2.08839
-2.09171
-2.09461
-2.09476
-2.09304
-2.09347
-2.09979
-2.11432
-2.13182
-2.04974
-2.05431
-2.0598
-2.06295
-2.07495
-2.08879
-2.10523
-2.12503
-2.1458
-2.16418
-2.17861
-2.18856
-2.19528
-2.20061
-2.20517
-2.20851
-2.21079
-2.21187
-2.21267
-2.21571
-2.22265
-2.23237
-2.23957
-2.19241
-2.19484
-2.19885
-2.20251
-2.21178
-2.22383
-2.23786
-2.25362
-2.26974
-2.2846
-2.29711
-2.30688
-2.31468
-2.32071
-2.3255
-2.32899
-2.33128
-2.33283
-2.33525
-2.33957
-2.3466
-2.35334
-2.3559
-2.33198
-2.3336
-2.33654
-2.34033
-2.34766
-2.35711
-2.36818
-2.3806
-2.39339
-2.40556
-2.4163
-2.42535
-2.43299
-2.4394
-2.44475
-2.44879
-2.45175
-2.45445
-2.45793
-2.46222
-2.46789
-2.47245
-2.47315
-2.46883
-2.47012
-2.47255
-2.47612
-2.48186
-2.48923
-2.49797
-2.50784
-2.51817
-2.52819
-2.53738
-2.54553
-2.5527
-2.55897
-2.56426
-2.56863
-2.57213
-2.57544
-2.57905
-2.58316
-2.58712
-2.59061
-2.59164
-2.60365
-2.60472
-2.60679
-2.60996
-2.61457
-2.62047
-2.6275
-2.63544
-2.64383
-2.65215
-2.66001
-2.66723
-2.67377
-2.67961
-2.68472
-2.68903
-2.69269
-2.69605
-2.6994
-2.70301
-2.70638
-2.70863
-2.71061
-2.73692
-2.73782
-2.73958
-2.7423
-2.74609
-2.7509
-2.75664
-2.76311
-2.77001
-2.77697
-2.78371
-2.79005
-2.79592
-2.80124
-2.80598
-2.81012
-2.81373
-2.81701
-2.82014
-2.82328
-2.82624
-2.82801
-2.82978
-2.86892
-2.86969
-2.87119
-2.8735
-2.87665
-2.88062
-2.88535
-2.8907
-2.89643
-2.9023
-2.90809
-2.91364
-2.91884
-2.92363
-2.92797
-2.93185
-2.93529
-2.9384
-2.94129
-2.94401
-2.94649
-2.94815
-2.94935
-2.99989
-3.00054
-3.00181
-3.00377
-3.0064
-3.00971
-3.01365
-3.01811
-3.02293
-3.02792
-3.0329
-3.03774
-3.04233
-3.04662
-3.05055
-3.05411
-3.05732
-3.06021
-3.06283
-3.06521
-3.06728
-3.0688
-3.06964
-3.13
-3.13055
-3.13162
-3.13327
-3.13548
-3.13826
-3.14157
-3.14533
-3.14942
-3.15368
-3.15798
-3.1622
-3.16625
-3.17006
-3.17359
-3.17683
-3.17976
-3.1824
-3.18477
-3.18685
-3.18861
-3.18994
-3.19063
-3.25939
-3.25986
-3.26075
-3.26215
-3.26402
-3.26636
-3.26917
-3.27236
-3.27585
-3.27952
-3.28324
-3.28693
-3.29049
-3.29386
-3.29701
-3.29992
-3.30257
-3.30496
-3.30707
-3.3089
-3.31043
-3.31159
-3.31227
-3.38817
-3.38861
-3.38932
-3.39052
-3.3921
-3.39409
-3.39648
-3.39922
-3.40222
-3.40539
-3.40862
-3.41184
-3.41497
-3.41794
-3.42074
-3.42334
-3.42571
-3.42784
-3.42972
-3.43133
-3.43266
-3.43367
-3.43432
-3.51648
-3.51683
-3.51745
-3.51846
-3.51982
-3.52152
-3.52357
-3.52592
-3.52851
-3.53126
-3.53408
-3.53689
-3.53963
-3.54225
-3.54472
-3.54702
-3.54913
-3.55102
-3.55268
-3.5541
-3.55526
-3.55614
-3.55673
-3.64438
-3.64468
-3.64521
-3.64606
-3.64722
-3.6487
-3.65045
-3.65248
-3.65473
-3.65712
-3.65958
-3.66203
-3.66443
-3.66674
-3.66891
-3.67093
-3.67279
-3.67446
-3.67592
-3.67716
-3.67817
-3.67894
-3.67945
-3.77197
-3.77223
-3.77268
-3.7734
-3.77438
-3.77565
-3.77718
-3.77894
-3.78088
-3.78296
-3.7851
-3.78725
-3.78935
-3.79136
-3.79326
-3.79504
-3.79667
-3.79813
-3.79941
-3.80049
-3.80137
-3.80203
-3.80247
-3.8993
-3.89953
-3.89992
-3.90053
-3.90136
-3.90244
-3.90377
-3.90529
-3.90698
-3.90878
-3.91065
-3.91252
-3.91435
-3.9161
-3.91776
-3.91931
-3.92073
-3.92201
-3.92312
-3.92406
-3.92482
-3.92539
-3.92576
-4.02643
-4.02665
-4.02698
-4.0275
-4.02819
-4.02911
-4.03025
-4.03157
-4.03303
-4.03459
-4.0362
-4.03782
-4.03942
-4.04094
-4.04238
-4.04372
-4.04495
-4.04606
-4.04703
-4.04784
-4.04849
-4.04897
-4.04929
-4.15341
-4.15362
-4.15391
-4.15434
-4.15492
-4.15568
-4.15666
-4.15779
-4.15904
-4.16037
-4.16176
-4.16316
-4.16453
-4.16586
-4.1671
-4.16826
-4.16932
-4.17027
-4.1711
-4.1718
-4.17235
-4.17277
-4.17303
-4.2803
-4.28049
-4.28075
-4.28112
-4.28161
-4.28224
-4.28304
-4.28397
-4.28501
-4.28614
-4.28732
-4.28851
-4.28969
-4.29083
-4.2919
-4.29289
-4.2938
-4.29461
-4.29532
-4.29591
-4.29639
-4.29673
-4.29695
-4.40709
-4.40729
-4.40754
-4.40787
-4.40829
-4.40879
-4.4094
-4.41012
-4.41097
-4.4119
-4.41288
-4.41388
-4.41488
-4.41585
-4.41676
-4.41761
-4.41838
-4.41906
-4.41966
-4.42017
-4.42057
-4.42086
-4.42104
-4.53381
-4.53402
-4.53427
-4.53458
-4.53492
-4.5353
-4.53571
-4.53624
-4.53689
-4.53763
-4.53842
-4.53925
-4.54008
-4.5409
-4.54167
-4.54239
-4.54304
-4.54361
-4.54412
-4.54454
-4.54488
-4.54512
-4.54527
-4.66042
-4.66065
-4.6609
-4.6612
-4.66147
-4.66169
-4.66194
-4.6623
-4.66276
-4.66331
-4.66394
-4.6646
-4.66529
-4.66596
-4.66661
-4.66722
-4.66776
-4.66824
-4.66866
-4.66901
-4.66929
-4.6695
-4.66962
-4.78687
-4.7871
-4.78737
-4.78765
-4.78786
-4.78795
-4.78805
-4.78825
-4.78854
-4.78892
-4.78943
-4.78994
-4.79049
-4.79104
-4.79158
-4.79208
-4.79254
-4.79294
-4.79328
-4.79357
-4.7938
-4.79397
-4.79407
-4.9131
-4.91333
-4.9136
-4.91387
-4.91401
-4.91402
-4.914
-4.91406
-4.91422
-4.91448
-4.91483
-4.91524
-4.91567
-4.91612
-4.91655
-4.91697
-4.91735
-4.91768
-4.91796
-4.91819
-4.91838
-4.91851
-4.9186
-5.03911
-5.0393
-5.03956
-5.03981
-5.0399
-5.03986
-5.03975
-5.03972
-5.03978
-5.03995
-5.0402
-5.0405
-5.04084
-5.04119
-5.04153
-5.04188
-5.04219
-5.04245
-5.04268
-5.04287
-5.04301
-5.04312
-5.04319
-5.1649
-5.16504
-5.16526
-5.16545
-5.1655
-5.16543
-5.16529
-5.16521
-5.16522
-5.16533
-5.16551
-5.16574
-5.16599
-5.16626
-5.16653
-5.1668
-5.16704
-5.16725
-5.16743
-5.16758
-5.16769
-5.16778
-5.16784
-5.29055
-5.29063
-5.29076
-5.29086
-5.29087
-5.29078
-5.29065
-5.29057
-5.29057
-5.29065
-5.29078
-5.29095
-5.29114
-5.29133
-5.29153
-5.29173
-5.29191
-5.29207
-5.29221
-5.29232
-5.2924
-5.29248
-5.29253
-5.41613
-5.41613
-5.41615
-5.41613
-5.41608
-5.41599
-5.4159
-5.41585
-5.41587
-5.41593
-5.41602
-5.41614
-5.41627
-5.4164
-5.41654
-5.41667
-5.4168
-5.41691
-5.417
-5.41708
-5.41714
-5.4172
-5.41724
-5.54172
-5.54165
-5.54153
-5.54138
-5.54126
-5.54117
-5.54112
-5.54111
-5.54113
-5.54119
-5.54124
-5.54131
-5.54139
-5.54146
-5.54154
-5.54162
-5.54169
-5.54176
-5.54182
-5.54186
-5.5419
-5.54193
-5.54197
-5.66739
-5.66725
-5.66702
-5.66674
-5.66652
-5.66639
-5.66635
-5.66635
-5.66637
-5.66638
-5.66641
-5.66645
-5.66648
-5.66651
-5.66654
-5.66656
-5.66658
-5.6666
-5.66662
-5.66664
-5.66666
-5.66667
-5.66671
681.016
680.614
679.621
677.234
561.075
561.612
560.618
558.692
441.287
442.996
442.48
441.119
341.527
342.204
342.296
341.689
269.115
268.433
267.616
267.219
207.485
207.809
207.557
207.077
146.221
146.717
146.991
146.997
83.8231
83.7222
83.8085
84.3418
30.5715
30.6433
30.4673
30.5116
2.40219
3.13744
3.39153
2.60636
-1.8319
-1.89312
-1.90213
-1.89546
-2.03964
-2.0345
-2.02757
-2.02367
-2.14015
-2.14094
-2.13714
-2.13418
-2.24069
-2.24044
-2.23948
-2.23882
-2.35396
-2.35233
-2.35043
-2.34894
-2.47099
-2.46926
-2.46712
-2.46568
-2.59152
-2.59177
-2.5922
-2.5922
-2.71278
-2.71551
-2.71925
-2.72113
-2.83247
-2.83537
-2.83919
-2.84155
-2.95131
-2.95326
-2.95577
-2.95805
-3.07089
-3.07208
-3.07353
-3.07503
-3.19151
-3.19225
-3.19305
-3.19395
-3.31291
-3.31336
-3.31377
-3.31421
-3.43481
-3.43512
-3.43535
-3.43556
-3.55711
-3.55733
-3.55748
-3.55761
-3.67975
-3.67991
-3.68002
-3.68009
-3.8027
-3.80282
-3.8029
-3.80294
-3.92594
-3.92603
-3.92608
-3.9261
-4.04943
-4.0495
-4.04953
-4.04953
-4.17314
-4.17319
-4.17321
-4.1732
-4.29704
-4.29708
-4.29709
-4.29708
-4.42111
-4.42114
-4.42114
-4.42113
-4.54533
-4.54534
-4.54535
-4.54533
-4.66966
-4.66968
-4.66968
-4.66966
-4.7941
-4.79411
-4.79411
-4.7941
-4.91862
-4.91864
-4.91864
-4.91864
-5.04322
-5.04323
-5.04324
-5.04325
-5.16787
-5.16789
-5.1679
-5.16791
-5.29256
-5.29258
-5.2926
-5.29262
-5.41727
-5.4173
-5.41732
-5.41734
-5.542
-5.54203
-5.54206
-5.54209
-5.66675
-5.66678
-5.66681
-5.66684
670.45
660.123
654.453
648.79
644.832
639.992
635.229
627.427
614.556
604.911
601.418
587.398
576.671
570.164
562.287
554.864
550.248
545.707
550.574
554.119
545.931
540.645
531.626
523.612
519.407
512.047
503.854
491.343
477.587
465.319
453.096
446.465
440.224
433.614
428.328
424.203
422.078
427.561
439.591
433.28
426.063
418.77
415.483
411.335
404.944
396.758
387.736
373.808
354.431
340.122
333.276
327.96
324.304
322.978
322.918
323.999
325.236
340.365
338.312
334.454
328.784
324.789
321.908
318.413
310.03
299.902
287.44
274.076
263.349
254.979
249.3
246.7
245.308
244.733
244.871
246.803
266.638
265.472
263.677
259.642
254.332
252.178
248.131
239.906
229.091
218.063
209.504
201.321
193.061
186.213
180.676
175.848
172.053
169.763
168.315
205.754
203.522
201.632
199.427
195.635
191.923
185.295
176.215
165.691
155.189
145.65
136.685
128.641
121.46
114.412
106.898
99.3074
91.9033
87.7292
146.37
144.761
143.744
143.047
140.36
134.591
125.589
115.533
104.017
91.1008
78.9252
69.0587
61.2096
54.155
47.2587
40.1965
33.2738
29.7383
29.3604
85.4689
85.6577
85.5989
85.6792
84.1379
77.6404
68.2415
57.6542
45.9181
33.4427
24.1954
17.5592
13.3113
9.88815
6.83742
4.09837
2.03387
3.23559
4.34303
31.2074
31.7324
31.8604
32.0611
31.3113
27.9167
22.3336
15.5094
9.01706
3.98259
1.92891
0.140425
-0.673333
-1.04437
-1.25541
-1.27232
-1.23911
-1.23314
-1.1908
1.79918
1.62457
1.78007
2.02989
1.91202
1.15547
0.0925792
-0.351139
-0.793863
-1.31733
-1.48727
-1.46541
-1.47349
-1.47031
-1.45446
-1.43056
-1.39973
-1.38571
-1.39549
-1.89268
-1.89832
-1.90598
-1.9075
-1.89413
-1.84736
-1.74942
-1.67456
-1.74079
-1.71598
-1.66388
-1.64168
-1.62679
-1.61281
-1.5969
-1.58107
-1.56029
-1.54606
-1.54508
-2.01926
-2.0146
-2.01392
-2.01152
-2.00134
-1.98395
-1.95638
-1.92943
-1.89183
-1.85339
-1.81118
-1.79105
-1.76997
-1.7536
-1.74178
-1.73245
-1.71963
-1.70809
-1.7053
-2.13082
-2.12704
-2.12452
-2.11922
-2.1068
-2.08736
-2.06295
-2.03429
-2.00672
-1.97252
-1.93986
-1.92049
-1.90628
-1.8953
-1.8852
-1.87539
-1.87067
-1.86397
-1.8625
-2.23819
-2.23629
-2.23317
-2.22505
-2.21214
-2.1943
-2.17347
-2.14758
-2.13112
-2.10825
-2.08574
-2.07012
-2.0564
-2.04145
-2.02529
-2.01834
-2.01603
-2.01292
-2.01045
-2.34777
-2.34792
-2.34707
-2.34051
-2.32836
-2.31232
-2.29518
-2.2812
-2.26937
-2.25377
-2.2358
-2.22183
-2.20604
-2.1883
-2.1737
-2.16458
-2.15997
-2.15699
-2.15384
-2.46566
-2.4689
-2.47071
-2.4646
-2.45554
-2.44393
-2.42937
-2.42096
-2.41128
-2.39717
-2.38046
-2.36365
-2.3457
-2.32806
-2.31503
-2.30804
-2.30256
-2.29797
-2.29555
-2.59235
-2.597
-2.5975
-2.58992
-2.58292
-2.57762
-2.56873
-2.55802
-2.54462
-2.52884
-2.51226
-2.4966
-2.48154
-2.46799
-2.45679
-2.4498
-2.44357
-2.43754
-2.43586
-2.72018
-2.71918
-2.71475
-2.71019
-2.70532
-2.70468
-2.70329
-2.68913
-2.67463
-2.66002
-2.64535
-2.63163
-2.61948
-2.60933
-2.59988
-2.59153
-2.58332
-2.57802
-2.57567
-2.84233
-2.83769
-2.83328
-2.82951
-2.82483
-2.82511
-2.82605
-2.81426
-2.80258
-2.79162
-2.77929
-2.76746
-2.75724
-2.74793
-2.73983
-2.7321
-2.72354
-2.71816
-2.71512
-2.95973
-2.95665
-2.95306
-2.94936
-2.94572
-2.94508
-2.94422
-2.93694
-2.92772
-2.91918
-2.90952
-2.89942
-2.8897
-2.88112
-2.87414
-2.86805
-2.8615
-2.85595
-2.85306
-3.07669
-3.07516
-3.07278
-3.0702
-3.06741
-3.06579
-3.06376
-3.0586
-3.05152
-3.04413
-3.03642
-3.02757
-3.01881
-3.01128
-3.00483
-2.99943
-2.99475
-2.99064
-2.98796
-3.19503
-3.1942
-3.19255
-3.19063
-3.18831
-3.18616
-3.18351
-3.17955
-3.17452
-3.16866
-3.16225
-3.15509
-3.14771
-3.14062
-3.13424
-3.12904
-3.125
-3.1222
-3.1199
-3.31467
-3.31384
-3.31261
-3.31081
-3.3089
-3.30668
-3.30401
-3.30064
-3.29657
-3.29192
-3.28687
-3.28145
-3.2754
-3.26911
-3.26327
-3.25828
-3.2543
-3.25173
-3.25026
-3.43571
-3.43498
-3.43389
-3.43235
-3.43048
-3.42829
-3.42577
-3.42286
-3.41952
-3.41577
-3.41168
-3.40724
-3.40235
-3.39718
-3.39206
-3.38738
-3.38366
-3.38114
-3.38007
-3.55762
-3.55695
-3.55595
-3.55457
-3.55286
-3.55086
-3.54859
-3.54607
-3.54329
-3.54024
-3.53693
-3.53331
-3.52933
-3.52505
-3.52064
-3.51636
-3.51298
-3.51066
-3.50966
-3.68005
-3.67944
-3.67854
-3.67733
-3.67582
-3.67405
-3.67208
-3.66991
-3.66757
-3.66506
-3.66236
-3.65942
-3.65616
-3.6526
-3.6489
-3.64541
-3.64227
-3.64003
-3.63899
-3.80287
-3.80233
-3.80153
-3.80047
-3.79916
-3.79764
-3.79595
-3.79411
-3.79214
-3.79005
-3.78784
-3.78544
-3.78277
-3.7798
-3.77667
-3.77356
-3.7708
-3.76894
-3.76794
-3.92602
-3.92554
-3.92484
-3.92392
-3.9228
-3.9215
-3.92007
-3.91852
-3.91687
-3.91514
-3.91331
-3.91134
-3.90915
-3.90667
-3.90402
-3.90131
-3.89894
-3.89735
-3.89644
-4.04945
-4.04903
-4.04842
-4.04763
-4.04668
-4.04559
-4.04438
-4.04309
-4.04171
-4.04026
-4.03874
-4.03712
-4.03531
-4.03325
-4.03099
-4.02865
-4.02667
-4.02531
-4.02452
-4.17312
-4.17276
-4.17224
-4.17157
-4.17077
-4.16985
-4.16885
-4.16777
-4.16662
-4.16541
-4.16414
-4.16278
-4.16128
-4.15954
-4.15761
-4.15562
-4.15398
-4.15284
-4.15214
-4.297
-4.29669
-4.29625
-4.29569
-4.29502
-4.29426
-4.29343
-4.29253
-4.29158
-4.29056
-4.28949
-4.28834
-4.28706
-4.28558
-4.28393
-4.28227
-4.28092
-4.27996
-4.27935
-4.42106
-4.4208
-4.42044
-4.41997
-4.41942
-4.41879
-4.41811
-4.41737
-4.41657
-4.41572
-4.4148
-4.4138
-4.41269
-4.41142
-4.40999
-4.40864
-4.40754
-4.40676
-4.40619
-4.54527
-4.54506
-4.54476
-4.54438
-4.54393
-4.54342
-4.54286
-4.54225
-4.54158
-4.54086
-4.54005
-4.53917
-4.53819
-4.53709
-4.53588
-4.53477
-4.5339
-4.53329
-4.53279
-4.66961
-4.66944
-4.6692
-4.66889
-4.66853
-4.66811
-4.66766
-4.66716
-4.6666
-4.66598
-4.66527
-4.66449
-4.6636
-4.66262
-4.66161
-4.66077
-4.66007
-4.65963
-4.65922
-4.79407
-4.79394
-4.79375
-4.7935
-4.7932
-4.79287
-4.79249
-4.79208
-4.79162
-4.7911
-4.79049
-4.78981
-4.78905
-4.7882
-4.78739
-4.7867
-4.78616
-4.7858
-4.78549
-4.91862
-4.91852
-4.91837
-4.91818
-4.91794
-4.91767
-4.91736
-4.91703
-4.91665
-4.91622
-4.91571
-4.91514
-4.91454
-4.91393
-4.91324
-4.91264
-4.91219
-4.91185
-4.91169
-5.04324
-5.04318
-5.04307
-5.04292
-5.04273
-5.04251
-5.04226
-5.04199
-5.04168
-5.04133
-5.04093
-5.04047
-5.04
-5.03957
-5.03906
-5.03856
-5.03814
-5.03782
-5.03777
-5.16792
-5.16788
-5.16781
-5.16771
-5.16756
-5.16739
-5.16719
-5.16696
-5.16672
-5.16644
-5.16612
-5.16577
-5.1654
-5.16507
-5.16477
-5.1644
-5.16403
-5.16376
-5.16373
-5.29264
-5.29263
-5.2926
-5.29253
-5.29243
-5.2923
-5.29214
-5.29196
-5.29176
-5.29154
-5.29129
-5.29102
-5.29075
-5.29049
-5.29029
-5.29012
-5.28988
-5.28963
-5.28958
-5.41738
-5.41741
-5.41741
-5.41739
-5.41733
-5.41725
-5.41713
-5.417
-5.41684
-5.41666
-5.41646
-5.41625
-5.41603
-5.41583
-5.41569
-5.41562
-5.41554
-5.41534
-5.41525
-5.54214
-5.5422
-5.54224
-5.54226
-5.54225
-5.54221
-5.54214
-5.54205
-5.54193
-5.54179
-5.54163
-5.54145
-5.54128
-5.54113
-5.54103
-5.54101
-5.54101
-5.5409
-5.54075
-5.66689
-5.66698
-5.66706
-5.66712
-5.66717
-5.6672
-5.66719
-5.66716
-5.6671
-5.66701
-5.66689
-5.66675
-5.6666
-5.66645
-5.66636
-5.66638
-5.66655
-5.66656
-5.66644
)
;

boundaryField
{
    leftWall
    {
        type            calculated;
        value           nonuniform List<scalar> 
50
(
4912.99
4111.38
3306.27
2496.8
1682.43
1009.53
726.618
665.928
570.096
440.818
323.624
237.657
172.054
102.704
36.3054
4.83576
0.0552967
-1.0703
-1.57495
-1.76012
-1.90545
-2.04974
-2.19241
-2.33198
-2.46883
-2.60365
-2.73692
-2.86892
-2.99989
-3.13
-3.25939
-3.38817
-3.51648
-3.64438
-3.77197
-3.8993
-4.02643
-4.15341
-4.2803
-4.40709
-4.53381
-4.66042
-4.78687
-4.9131
-5.03911
-5.1649
-5.29055
-5.41613
-5.54172
-5.66739
)
;
    }
    rightWall
    {
        type            calculated;
        value           nonuniform List<scalar> 
50
(
2429.23
1673.96
1101.1
875.592
824.362
767.23
706.321
644.748
550.574
427.561
325.236
246.803
168.315
87.7292
29.3604
4.34303
-1.1908
-1.39549
-1.54508
-1.7053
-1.8625
-2.01045
-2.15384
-2.29555
-2.43586
-2.57567
-2.71512
-2.85306
-2.98796
-3.1199
-3.25026
-3.38007
-3.50966
-3.63899
-3.76794
-3.89644
-4.02452
-4.15214
-4.27935
-4.40619
-4.53279
-4.65922
-4.78549
-4.91169
-5.03777
-5.16373
-5.28958
-5.41525
-5.54075
-5.66644
)
;
    }
    lowerWall
    {
        type            calculated;
        value           nonuniform List<scalar> 
62
(
5311.14
5328.38
5359.63
5402.74
5454.52
5511.82
5571.93
5632.45
5691.11
5745.52
5793.1
5830.83
5855.71
5865.72
5859.89
5838.09
5802.14
5755.76
5703.95
5652.89
5608.45
5575.46
5557.52
5159.39
4358.1
3551.57
2739.44
1922.13
1218.66
870.25
776.994
743.143
742.691
741.561
739.233
3261.59
2501.41
1802.71
1247.51
948.342
865.699
812.983
757.738
3644.1
3650.19
3622.9
3541.9
3423.98
3276.95
3106.97
2946.94
2839.1
2782.99
2764.82
2768.07
2787.79
2809.77
2822.49
2822.43
2816.25
2812.22
2812.88
)
;
    }
    atmosphere
    {
        type            calculated;
        value           nonuniform List<scalar> 
46
(
-5.73011
-5.72999
-5.72978
-5.72947
-5.72923
-5.72909
-5.72905
-5.72904
-5.72904
-5.72904
-5.72905
-5.72905
-5.72905
-5.72905
-5.72905
-5.72905
-5.72904
-5.72904
-5.72904
-5.72904
-5.72904
-5.72904
-5.72904
-5.72905
-5.72907
-5.7291
-5.72915
-5.72921
-5.72933
-5.72945
-5.72956
-5.72965
-5.72971
-5.72975
-5.72977
-5.72976
-5.72972
-5.72964
-5.72953
-5.72937
-5.72921
-5.72907
-5.72904
-5.72948
-5.72945
-5.72904
)
;
    }
    defaultFaces
    {
        type            empty;
    }
}


// ************************************************************************* //
