/*--------------------------------*- C++ -*----------------------------------*\
| =========                 |                                                 |
| \\      /  F ield         | OpenFOAM: The Open Source CFD Toolbox           |
|  \\    /   O peration     | Version:  2312                                  |
|   \\  /    A nd           | Website:  www.openfoam.com                      |
|    \\/     M anipulation  |                                                 |
\*---------------------------------------------------------------------------*/
FoamFile
{
    version     2.0;
    format      ascii;
    arch        "LSB;label=32;scalar=64";
    class       volScalarField;
    location    "1.5";
    object      alphas;
}
// * * * * * * * * * * * * * * * * * * * * * * * * * * * * * * * * * * * * * //

dimensions      [0 0 0 0 0 0 0];

internalField   nonuniform List<scalar> 
2268
(
2
2
2
2
2
2
2
2
2
2
2
2
2
2
2
2
2
2
2
2
2
1.99999
1.99994
2
2
2
2
2
2
2
2
2
2
2
2
2
2
2
2
2
2
2
2
2
2
1.99994
2
2
2
2
2
2
2
2
2
2
2
2
2
2
2
2
2
2
2
2
2
2
1.99997
2
2
2
2
2
2
2
2
2
2
2
2
2
2
2
2
2
2
2
2
2
2
2
1.99435
2
2
2
2
2
1.97814
1.94616
1.94056
1.95478
1.97675
1.99444
2
2
2
2
2
2
2
2
2.00001
2
2
1.38755
1.49903
1.60883
1.55139
1.3803
1.07671
0.791034
0.65525
0.634633
0.69267
0.813665
0.992617
1.23709
1.4827
1.71461
1.89443
1.98892
2
2
2
2
2.00011
2
0.569313
0.468698
0.328433
0.237986
0.11519
0.0193675
0.0061502
0.00756437
0.0069788
0.00322045
0.0025976
0.00151739
0.00089372
0.0675367
0.226463
0.487063
0.911299
1.45415
1.89079
1.99968
1.9999
2.00008
2.00015
1.00225
1.00285
0.899985
0.331704
0.106112
0.0488688
0.0837409
0.0736169
0.0159947
0.00579066
0.00241911
0.000706347
0.000701393
0.000700252
0.00068639
0.000852778
0.00116166
0.0700849
0.386804
1.08988
1.76539
1.99981
1.99976
1.462
1.6484
1.62693
1.6929
1.79994
1.81765
1.82729
1.83659
1.86431
1.87121
1.87387
1.87257
1.88207
1.89429
1.91276
1.92493
1.9278
1.9334
1.917
1.36956
1.51104
1.26791
1.26235
1.28383
0.998356
0.785166
1.11733
1.62317
1.6931
1.87865
1.8907
1.9328
1.97644
1.97111
1.94633
1.91457
1.8767
1.89293
1.24573
1.2347
1.02335
1.13922
1.25694
1.31465
0.991586
0.779145
0.74225
1.07988
1.56623
1.69349
1.73928
1.70152
1.51088
1.10716
0.846315
0.749782
0.906202
1.34174
1.25191
0.817903
1.00136
1.02119
1.13525
1.44458
1.38824
1.04028
0.918313
1.30254
1.43866
1.42951
1.0249
0.744334
0.483933
0.179953
0.119742
0.388358
1.31891
1.29434
0.716006
0.673145
0.681138
0.691797
0.977935
1.17571
1.30788
1.25962
1.35306
1.43884
1.14685
0.506456
0.264215
0.128353
0.122496
0.120962
0.292275
1.16349
0.881469
0.636731
0.517464
0.461339
0.435691
0.46234
0.805814
0.905991
1.26394
1.69984
1.64639
1.23935
0.364749
0.129619
0.133665
0.133058
0.131865
0.174637
1.06865
0.709006
0.602278
0.590127
0.577153
0.461609
0.409105
0.512826
0.739228
1.1096
1.60276
1.61555
1.34223
0.557566
0.300333
0.235309
0.145354
0.206428
0.280781
0.570867
0.370771
0.281056
0.331666
0.418161
0.365338
0.345761
0.401009
0.649961
1.00369
1.36666
1.40564
1.10064
0.426736
0.795377
0.807902
0.587729
0.49369
0.678696
1.00006
1.00095
1.00494
0.979007
0.847126
0.862725
0.874587
0.58121
0.252052
0.0166681
0.00525449
0.00129193
0.0039312
0.000676307
0.000695737
0.000802412
0.00170771
0.000221062
6.40542e-05
0.0168556
0.153165
0.439106
1.00986
1.00006
1.01604
1.06912
1.03515
1.02201
1.04708
1.04679
1.03236
1.15035
0.99444
0.401199
0.0526997
0.0605068
0.0490167
0.0948063
0.153373
0.00120414
5.16793e-07
5.24925e-07
8.61414e-07
7.55486e-07
2.98976e-06
0.0015701
1.00006
1.1573
1.77268
1.58883
1.39525
1.52779
1.49946
1.13957
1.00677
1.02205
1.11641
0.759521
0.256524
0.203218
0.511429
0.422236
0.00776244
6.13748e-07
6.71702e-07
7.18284e-07
7.30008e-07
3.04138e-06
3.24196e-06
1.00006
1.33494
2.12008
2.11992
1.88882
1.65881
1.23853
1.00468
1.00487
1.00579
1.00998
1.10658
0.533401
0.332472
0.855552
0.720335
0.0255589
0.00353939
0.0180849
0.0219659
0.0152778
0.00580281
0.00104116
1.00006
1.11016
1.53794
1.47955
1.00006
1.00006
1.00006
0.998999
1.11742
1.06799
1.01282
1.01649
0.788604
0.633895
1.14708
1.24037
0.654976
0.497238
0.517499
0.509458
0.406455
0.260942
0.170523
1.00006
1.00005
1.00006
1.00006
1.00006
1.00321
1.00343
1.00001
1.22241
1.68188
1.24809
1.01717
0.958234
0.933223
1.13343
1.7893
1.94987
1.30685
1.01594
1.02994
1.08819
1.01294
0.905546
1.00005
1.00004
1.00004
1.00804
1.01365
1.00252
1.00246
1.01346
1.12331
2.17326
2.21239
1.71143
1.09874
0.996287
1.24489
2.37576
2.4665
1.65732
1.00916
1.01115
1.01438
1.04732
1.07381
1.39063
1.31554
1.24033
1.18649
1.12352
1.05969
1.00604
1.00487
1.10982
2.0223
2.52714
2.50704
2.31503
2.05276
2.36235
2.5219
2.49666
1.8195
0.991759
1.00547
1.01247
1.01507
1.01511
2.63134
2.68888
2.6409
2.53339
2.45727
2.32438
1.9287
1.36995
1.10934
1.11118
2.22727
2.5549
2.57279
2.58414
2.57311
2.51433
2.24917
1.22858
0.980086
1.00659
1.01407
1.04474
1.21565
2.99991
2.9999
2.99994
2.99994
2.99994
2.99993
2.99991
2.7523
1.93372
1.26206
1.18187
1.352
1.7992
2.36481
2.48538
2.19398
1.28498
1.04698
1.06742
1.13139
1.45016
2.07265
2.64477
2.99998
2.99997
2.99953
2.99909
2.99924
2.99985
2.99997
2.99996
2.99998
2.67189
1.76595
1.40047
1.28801
1.22734
1.22705
1.27624
1.39512
1.64602
2.02129
2.47276
2.95681
2.99993
2.99993
2.99998
2.99998
2.999
2.99715
2.99715
2.99758
2.99981
3
3
2.99998
2.99989
2.81212
2.46481
2.32018
2.34858
2.53464
2.8085
3
2.99999
2.99996
2.99994
2.99963
2.99977
2.99998
2.99997
2.99998
2.99923
2.99756
2.99776
2.99959
3
3
3
3
3
3
3
3
3
3
3
3
2.99986
2.99906
2.99904
2.99964
2.99995
2.99998
3
3
3
3
2.99999
2.99999
3
3
3
3
3
3
3
3
3
3
3
2.99953
2.99908
2.99974
2.99997
3
3
3
3
3
3
3
3
3
3
3
3
3
3
3
3
3
3
3
3
3
3
2.99997
3
3
3
3
3
3
3
3
3
3
3
3
3
3
3
3
3
3
3
3
3
3
3
3
3
3
3
3
3
3
3
3
3
3
3
3
3
3
3
3
3
3
3
3
3
3
3
3
3
3
3
3
3
3
3
3
3
3
3
3
3
3
3
3
3
3
3
3
3
3
3
3
3
3
3
3
3
3
3
3
3
3
3
3
3
3
3
3
3
3
3
3
3
3
3
3
3
3
3
3
3
3
3
3
3
3
3
3
3
3
3
3
3
3
3
3
2.99999
3
3
3
3
3
3
3
3
3
3
3
3
3
3
3
3
3
3
3
3
3
3
2.99999
3
3
3
3
3
3
3
3
3
3
3
3
3
3
3
3
3
3
3
3
3
3
3
2.99999
3
3
3
3
3
3
3
3
3
3
3
3
3
3
3
3
3
3
3
3
3
3
2.99999
3
3
3
3
3
3
3
3
3
3
3
3
3
3
3
3
3
3
3
3
2.99999
2.99999
2.99999
3
3
3
3
3
3
3
3
3
3
3
3
3
3
3
3
3
3
3
3
2.99999
2.99998
2.99999
2.99999
3
3
3
3
3
3
3
3
3
3
3
3
3
3
3
3
3
3
3
2.99997
2.99998
2.99998
2.99999
3
3
3
3
3
3
3
3
3
3
3
3
3
3
3
3
3
3
3
2.99995
2.99999
2.99999
3
3
3
3
3
3
3
3
3
3
3
3
3
3
3
3
3
3
3
3
2.99995
3
3
3
3
3
3
3
3
3
3
3
3
3
3
3
3
3
3
3
3
3
3
2.99995
3
3
3
3
3
3
3
3
3
3
3
3
3
3
3
3
3
3
3
3
3
3
2.99995
3
3
3
3
3
3
3
3
3
3
3
3
3
3
3
3
3
3
3
3
3
3
2.99994
3
3
3
3
3
3
3
3
3
3
3
3
3
3
3
3
3
3
3
3
3
3
2.99994
3
3
3
3
3
3
3
3
3
3
3
3
3
3
3
3
3
3
3
3
3
3
2.99994
3
3
3
3
3
3
3
3
3
3
3
3
3
3
3
3
3
3
3
3
3
3
2.99995
2.99991
3
3
3
3
3
3
3
3
3
3
3
3
3
3
3
3
3
3
3
3
3
2.99999
2.99989
2.99991
2.99998
3
3
3
3
3
3
3
3
3
3
3
3
3
3
3
3
3
3
3
3
2.99992
2.99991
2.99995
3
3
3
3
3
3
3
3
3
3
3
3
3
3
3
3
3
3
3
3
3
2.99998
2.99999
3
3
3
3
3
3
3
3
3
3
3
3
3
3
3
3
3
3
3
3
3
3
3
3
3
3
3
3
3
3
3
3
3
3
3
3
3
3
3
3
3
3
3
3
3
3
3
3
3
3
3
3
3
3
3
3
3
3
3
3
3
3
3
3
3
3
3
3
3
3
3
3
3
3
3
3
3
3
3
3
3
3
3
3
3
3
3
3
3
3
3
3
3
3
3
3
3
3
3
3
3
3
3
3
3
3
3
3
3
3
3
0.577727
0.0618398
0.0146292
0.00611953
0.0179817
0.0141738
0.00313841
0.00127155
1.1354e-05
0.000200082
0.000184748
2.98064e-05
0.000120757
8.84702e-05
0.000215558
0.0156892
0.101515
0.0297812
0.0203589
0.175054
0.838442
0.672085
0.693491
0.826645
1.04036
1.01729
1.01557
1.01564
1.01516
1.0152
1.0152
1.0252
1.39909
1.49896
1.7049
2.03818
2.91181
2.99565
2.9996
2.99961
2.99996
2.99995
2.99997
2.99999
2.99997
2.99999
2.99999
2.99998
2.99998
2.99998
2.99998
2.99998
2.99997
2.99994
2.99995
2.99999
2.99999
3
3
3
3
3
3
3
3
3
3
3
3
3
3
3
3
3
3
3
3
3
3
3
3
3
3
3
3
3
3
3
3
3
3
3
3
3
3
3
3
3
3
3
3
3
3
3
3
3
3
3
3
3
3
3
3
3
3
3
3
3
3
3
3
3
3
3
3
3
3
3
3
3
3
3
3
3
3
3
3
3
3
3
3
3
3
3
3
3
3
3
3
3
3
3
3
3
3
3
3
3
3
3
3
3
3
3
3
3
3
3
5.15281e-05
5.11963e-06
4.67986e-06
0.000264005
0.00225874
0.0868959
0.101628
0.150515
0.55858
1.0487
1.11107
0.960529
0.427107
0.357312
0.654642
1.19218
1.00985
0.905034
0.914833
0.000434556
4.10343e-06
3.58177e-06
4.74624e-06
2.25241e-05
0.000336002
0.000670033
0.000689614
0.0645209
0.662735
1.0893
0.874432
0.49995
0.329125
0.582927
1.0101
1.23766
1.07727
0.960807
1.03437e-05
1.00533e-05
0.000811675
0.000467847
0.00177498
0.00941874
0.0165531
0.0182465
0.0650368
0.177335
0.825203
0.911209
0.602413
0.363705
0.607067
1.17204
1.28156
1.17606
1.1543
0.0617618
0.0195819
0.0100229
0.0599401
0.212615
0.347081
0.291246
0.0700919
0.0569745
0.094287
0.626697
0.622747
0.572617
0.547479
0.890632
1.14609
1.16845
1.17521
1.16854
0.299056
0.110329
0.0124997
0.239271
0.532569
0.660001
0.570891
0.312519
0.257683
0.406892
0.735384
0.770596
0.630241
0.766118
1.10192
1.11896
1.14749
1.17404
1.16585
0.891955
0.693601
0.485443
0.41086
0.476754
0.800118
1.36826
1.69725
1.63542
1.86421
1.91334
1.17456
0.933949
1.06644
1.11675
1.13946
1.14413
1.15569
1.16125
1.01574
1.0177
1.02083
1.02171
1.01707
1.04905
1.57063
2.32056
2.40561
2.51649
2.28272
1.66446
1.36752
1.26055
1.2575
1.31158
1.1988
1.15435
1.161
1.03954
1.12286
1.29585
1.31523
1.25654
1.40701
2.35937
2.99079
2.96733
2.86982
2.78104
2.78019
2.74505
2.68861
2.61627
2.63902
2.42424
1.60894
1.16219
2.21697
2.46005
2.7636
2.79803
2.79846
2.84893
2.95882
2.99927
2.9993
2.99369
2.99295
2.99565
2.9994
2.99898
2.99875
2.99288
2.97725
2.84261
2.26663
2.99962
2.9997
2.99982
2.99987
2.99985
2.99962
2.99353
2.99911
2.99744
2.99362
2.99715
2.99987
3
2.99997
2.99996
2.99999
2.99574
2.98273
2.98269
2.99998
2.99997
2.99998
2.9999
2.9999
2.99609
2.99409
2.99932
2.9967
2.99803
2.99987
3
3
2.99999
2.99999
2.99999
3
2.99042
2.98273
2.99997
2.99997
2.99998
2.99947
2.99818
2.99917
2.99839
2.99822
2.99894
2.99997
3
3
3
2.99995
2.99994
3
3
2.99984
2.9936
2.99995
2.99995
2.99998
2.99945
2.99889
2.99963
2.99924
2.99799
2.99999
3
3
3
3
2.99988
2.9998
2.99993
3
3
3
3
3
2.99989
2.99927
2.99906
2.99944
2.99945
2.99919
2.99975
2.99975
3
3
3
2.99991
2.9998
2.9998
2.99989
2.99994
2.99995
3
3
2.99942
2.99888
2.99888
2.9989
2.9995
2.99953
2.99955
2.99955
2.99965
3
3
2.99999
2.99989
2.9998
2.99981
2.99992
2.99996
3
3
2.99982
2.99916
2.99895
2.99929
2.99938
2.99955
2.99957
2.99967
2.99978
2.99996
3
3
3
2.99998
2.99997
2.99998
3
3
3
3
2.99979
2.99945
2.99942
2.99959
2.99987
2.99996
2.99999
3
2.99997
2.99999
3
3
3
3
3
3
3
3
3
2.99991
2.99975
2.99974
2.99995
3
3
3
3
3
2.99999
3
3
3
3
3
3
3
3
3
3
3
3
3
3
3
3
3
3
3
3
3
3
3
3
3
3
3
3
3
3
3
3
3
3
3
3
3
3
3
3
3
3
3
3
3
3
3
3
3
3
3
3
3
3
3
3
3
3
3
3
3
3
3
3
3
3
3
3
3
3
3
3
3
3
3
3
3
3
3
3
3
2.99998
3
3
3
3
3
3
3
3
3
3
3
3
3
3
3
3
3
2.99999
2.99998
3
3
3
3
3
3
3
3
3
3
3
3
3
3
3
3
3
2.99998
2.99999
3
3
3
3
3
3
3
3
3
3
3
3
3
3
3
3
2.99998
2.99998
3
3
3
3
3
3
3
3
3
3
3
3
3
3
3
3
3
2.99998
2.99998
3
3
3
3
3
3
3
3
3
3
3
3
3
3
3
3
3
3
2.99999
3
3
3
3
3
3
3
3
3
3
3
3
3
3
3
3
3
3
3
3
3
3
3
3
3
3
3
3
3
3
3
3
3
3
3
3
3
3
3
3
3
3
3
3
3
3
3
3
3
3
3
3
3
3
3
3
3
3
3
3
3
3
3
3
3
3
3
3
3
3
3
3
3
3
3
3
3
3
3
3
3
3
3
3
3
3
3
3
3
3
3
3
3
3
3
3
3
3
3
3
3
3
3
3
3
3
3
3
3
3
3
3
3
3
3
3
3
3
3
3
3
3
3
3
3
3
3
3
3
3
3
3
3
3
3
3
3
3
3
3
3
3
3
3
3
3
3
3
3
3
3
3
3
3
3
3
3
3
3
3
3
3
3
3
3
3
3
3
3
3
3
3
3
3
3
3
3
3
3
3
3
3
3
3
3
3
3
3
3
3
3
3
3
3
3
3
3
3
3
3
3
3
3
3
3
3
3
3
3
3
3
3
3
3
3
3
3
3
3
3
3
3
3
3
3
3
3
3
3
3
3
3
3
3
3
3
3
3
3
3
3
3
3
3
3
3
3
3
3
3
3
3
3
3
3
3
3
3
3
3
3
3
3
3
3
3
3
3
3
3
3
3
3
3
3
3
3
3
3
3
3
3
3
3
3
3
)
;

boundaryField
{
    leftWall
    {
        type            calculated;
        value           nonuniform List<scalar> 
50
(
2
2
2
2
1.99435
1.38755
0.569313
1.00225
1.00006
1.00006
1.00006
1.00006
1.00006
1.00006
1.00005
1.39063
2.63134
2.99991
2.99998
2.99998
2.99998
2.99995
3
3
3
3
3
3
3
3
3
3
2.99999
2.99999
2.99997
2.99995
2.99995
2.99995
2.99995
2.99994
2.99994
2.99994
2.99995
2.99999
3
3
3
3
3
3
)
;
    }
    rightWall
    {
        type            calculated;
        value           nonuniform List<scalar> 
50
(
1.917
1.89293
0.906202
0.388358
0.292275
0.174637
0.280781
0.678696
0.914833
0.960807
1.1543
1.16854
1.16585
1.16125
1.161
1.16219
2.26663
2.98269
2.98273
2.9936
3
2.99995
2.99996
3
3
3
3
3
3
2.99998
2.99998
2.99999
3
3
3
3
3
3
3
3
3
3
3
3
3
3
3
3
3
3
)
;
    }
    lowerWall
    {
        type            calculated;
        value           nonuniform List<scalar> 
62
(
2
2
2
2
2
2
2
2
2
2
2
2
2
2
2
2
2
2
2
2
2
1.99999
1.99994
1.99994
1.99994
1.99997
2
2
2
2.00015
1.99976
0.577727
0.0618398
0.0146292
0.00611953
1.462
1.36956
1.24573
1.34174
1.31891
1.16349
1.06865
0.570867
1.462
1.6484
1.62693
1.6929
1.79994
1.81765
1.82729
1.83659
1.86431
1.87121
1.87387
1.87257
1.88207
1.89429
1.91276
1.92493
1.9278
1.9334
1.917
)
;
    }
    atmosphere
    {
        type            calculated;
        value           nonuniform List<scalar> 
46
(
3
3
3
3
3
3
3
3
3
3
3
3
3
3
3
3
3
3
3
3
3
3
3
3
3
3
3
3
3
3
3
3
3
3
3
3
3
3
3
3
3
3
3
3
3
3
)
;
    }
    defaultFaces
    {
        type            empty;
    }
}


// ************************************************************************* //
