/*--------------------------------*- C++ -*----------------------------------*\
| =========                 |                                                 |
| \\      /  F ield         | OpenFOAM: The Open Source CFD Toolbox           |
|  \\    /   O peration     | Version:  2312                                  |
|   \\  /    A nd           | Website:  www.openfoam.com                      |
|    \\/     M anipulation  |                                                 |
\*---------------------------------------------------------------------------*/
FoamFile
{
    version     2.0;
    format      ascii;
    arch        "LSB;label=32;scalar=64";
    class       volScalarField;
    location    "1.5";
    object      alpha.oil;
}
// * * * * * * * * * * * * * * * * * * * * * * * * * * * * * * * * * * * * * //

dimensions      [0 0 0 0 0 0 0];

internalField   nonuniform List<scalar> 
2268
(
1.81316e-10
3.70444e-11
5.53577e-12
9.84773e-13
2.7874e-13
2.31194e-13
3.31807e-13
1.34168e-12
6.71465e-12
1.57871e-11
1.49361e-11
1.60842e-11
1.47623e-11
1.60123e-11
2.39126e-11
4.01645e-11
6.36585e-11
1.02102e-10
1.91692e-10
1.94761e-10
1.95881e-10
1.4586e-05
6.45182e-05
1.12514e-09
2.40819e-10
3.05868e-11
5.17947e-12
2.13885e-12
3.15704e-12
2.54531e-12
2.60303e-11
1.23729e-10
2.53746e-10
2.47284e-10
3.02443e-10
2.19863e-10
8.03182e-11
7.09638e-11
8.48496e-11
1.32042e-10
2.78275e-10
6.18458e-10
6.13042e-10
2.55669e-10
4.602e-06
6.45268e-05
1.93402e-09
5.01411e-10
5.60257e-11
1.75448e-11
1.3167e-11
2.84136e-11
2.54555e-12
1.38637e-10
5.96145e-10
1.06255e-09
2.26241e-09
2.92022e-09
2.66946e-09
1.26499e-09
3.28898e-10
1.47631e-10
1.56365e-10
2.50664e-10
4.88051e-10
6.64274e-10
4.97149e-10
1.52435e-10
3.25534e-05
1.25911e-09
4.73653e-10
4.69053e-11
1.59698e-11
2.67014e-11
1.80063e-10
3.40242e-09
5.37779e-10
5.43676e-10
8.4291e-10
5.02073e-09
2.92543e-09
7.46537e-09
3.93839e-09
9.54795e-10
2.45554e-10
1.39254e-10
3.6786e-10
1.59863e-10
2.67799e-10
2.58716e-10
1.50922e-10
2.71188e-07
3.5323e-10
3.74828e-10
1.72202e-11
1.5976e-11
1.59666e-11
1.5976e-11
2.77737e-07
4.32214e-06
1.39311e-05
5.80535e-13
4.00165e-09
1.31009e-05
-7.63079e-23
-2.17408e-12
-9.80078e-14
1.22785e-10
1.36567e-10
1.45741e-08
1.12926e-09
4.54102e-11
4.55495e-11
5.20385e-11
2.4587e-07
0.0345436
0.00458029
1.71417e-11
1.08797e-06
4.79778e-06
2.83654e-06
4.29655e-07
8.85211e-06
0.000161848
0.00086632
0.00111162
0.000877756
0.000307115
4.1762e-05
5.37261e-06
3.79711e-11
3.79939e-11
1.71301e-07
2.18639e-06
7.3825e-08
5.11896e-11
2.16918e-05
2.46211e-07
0.528178
0.344921
0.0571608
1.09233e-06
7.87188e-06
8.49798e-06
5.63073e-07
-9.48728e-11
0.000227208
0.00195648
0.00223927
0.0015173
0.000893556
0.00060445
0.000451321
0.000242241
6.80141e-05
4.1401e-07
0.000116119
0.000317815
9.92481e-05
6.68308e-05
0.000376218
0.998875
0.998576
0.837933
0.210537
4.23631e-19
-7.17976e-23
-1.50905e-11
-9.21076e-12
-5.31575e-12
0.000198343
0.00179303
0.000702268
0.000701204
0.000700226
0.000683849
0.000589298
0.000532493
8.0694e-05
0.000223949
0.000377097
0.000334119
0.000281093
0.00274876
0.516041
0.0850186
0.0626792
0.0614526
0.0647288
0.0856429
0.100498
0.103633
0.0761738
0.0460148
0.0458152
0.047201
0.0383987
0.029152
0.0207748
0.0207743
0.0207768
0.0272486
0.0556984
0.611928
0.409389
0.529242
0.399785
0.364039
0.295994
0.283204
0.336275
0.35839
0.290647
0.0959789
0.0468763
0.0337344
0.0303176
0.0305104
0.0416572
0.0627068
0.0876014
0.0808645
0.731899
0.731896
0.494375
0.691268
0.658364
0.464654
0.225221
0.183623
0.174915
0.260007
0.392421
0.325327
0.298601
0.332904
0.337986
0.268441
0.23037
0.282325
0.375722
0.636246
0.731862
0.232334
0.717205
0.73084
0.730849
0.517645
0.310115
0.174643
0.178911
0.428561
0.557881
0.568744
0.568748
0.568373
0.386435
0.159527
0.111985
0.36801
0.56742
0.69539
0.233451
0.382955
0.411051
0.482377
0.581712
0.604881
0.388057
0.182926
0.451992
0.568664
0.568748
0.459875
0.239299
0.113245
0.0985097
0.0996747
0.286382
0.40225
0.203776
0.153858
0.153726
0.160315
0.162708
0.179236
0.53416
0.593755
0.493842
0.474382
0.559038
0.568744
0.312341
0.10098
0.096943
0.0969589
0.0968527
0.165896
0.48995
0.208725
0.225584
0.339667
0.348269
0.234394
0.149077
0.126347
0.490763
0.636922
0.528021
0.527083
0.568381
0.466712
0.226055
0.160637
0.108908
0.185808
0.263653
0.317657
0.235847
0.215821
0.247712
0.347285
0.348932
0.194026
0.0714768
0.252642
0.635791
0.61607
0.575356
0.537371
0.259827
0.429221
0.55749
0.522228
0.485941
0.664493
0.999968
0.999526
0.997528
0.97006
0.836598
0.608749
0.441586
0.148221
5.52223e-20
-1.60394e-09
0.00108356
0.00129193
0.0039312
0.000676307
0.000666566
0.0006136
0.000866112
8.65019e-05
1.94962e-05
8.55068e-05
0.000162739
1.16083e-09
0.00398091
0.999968
0.991978
0.965441
0.980173
0.980174
0.976273
0.975666
0.937322
0.846429
0.679415
0.118037
0.00675138
0.0594617
0.0490167
0.094806
0.15177
0.000474489
1.0386e-07
9.92524e-08
4.01176e-11
3.88339e-11
-2.0267e-09
0.000355775
0.999968
0.921348
0.613627
0.705554
0.802347
0.735914
0.749706
0.930025
0.996563
0.988936
0.894583
0.533533
0.0659054
0.184586
0.496121
0.396229
0.00776203
2.03085e-07
1.92647e-08
4.82462e-11
4.07089e-16
3.02087e-06
3.02369e-06
0.999968
0.832522
0.43982
0.439872
0.555473
0.670563
0.880731
0.997073
0.996905
0.996856
0.994966
0.946675
0.41453
0.287321
0.699987
0.476895
0.0245688
2.03675e-07
0.0018054
0.000104286
2.55475e-09
7.60067e-21
-4.2246e-11
0.999968
0.94491
0.731015
0.7602
0.999969
0.999969
0.999968
0.998907
0.939374
0.964572
0.993521
0.991718
0.771034
0.616359
0.781038
0.445327
0.0607976
0.234402
0.476361
0.416152
0.235542
0.0965018
0.0406487
0.999968
0.999968
0.99997
0.99997
0.999969
0.998397
0.99821
0.998891
0.886817
0.658006
0.875917
0.991379
0.940665
0.915665
0.911869
0.417468
0.156474
0.651705
0.989899
0.982609
0.914907
0.800021
0.692283
0.999968
0.999958
0.999966
0.995981
0.993173
0.998733
0.998713
0.993156
0.937511
0.412201
0.39377
0.614571
0.847029
0.915364
0.875448
0.253138
0.15859
0.605496
0.989708
0.992488
0.992467
0.975857
0.962662
0.804636
0.842165
0.879783
0.906738
0.938222
0.970126
0.996956
0.997497
0.944932
0.484774
0.215932
0.196783
0.279637
0.462218
0.317085
0.189682
0.164833
0.469666
0.959351
0.992363
0.992458
0.992462
0.992442
0.184271
0.155495
0.179493
0.233263
0.271319
0.337764
0.535604
0.814992
0.945185
0.943666
0.37181
0.196986
0.196783
0.206961
0.195953
0.187919
0.254182
0.764577
0.964758
0.992488
0.992468
0.977628
0.892158
3.27038e-06
3.27038e-06
1.2176e-05
1.62149e-05
1.14125e-05
5.12542e-07
1.19928e-07
0.123803
0.533111
0.868794
0.908799
0.82299
0.599517
0.316842
0.256221
0.354083
0.778341
0.94734
0.965886
0.934304
0.77492
0.463677
0.177599
3.27038e-06
1.12903e-05
0.000234682
0.000454597
0.000380542
7.60913e-05
8.25492e-06
4.67532e-17
2.79515e-09
0.164042
0.616883
0.799483
0.850615
0.872844
0.873069
0.860302
0.802225
0.676987
0.489351
0.263605
0.0215826
-7.9751e-20
2.70837e-12
6.81626e-06
6.85909e-06
0.000495641
0.00142297
0.00142367
0.00120998
9.26e-05
1.52568e-08
1.91076e-08
7.03395e-10
6.37766e-17
0.0937936
0.267595
0.339911
0.325711
0.23268
0.0957484
3.43537e-07
-1.3976e-25
5.94549e-18
1.85566e-09
0.000160131
0.000113232
1.01021e-05
1.17862e-05
3.47018e-06
0.000380275
0.00122064
0.00111994
0.000206801
2.15273e-09
2.60544e-09
4.62079e-08
6.07466e-08
3.68432e-08
7.23714e-08
9.08219e-08
9.20688e-25
-3.59877e-10
6.65326e-22
9.6362e-14
-8.34348e-19
5.97995e-05
0.000454187
0.000467774
0.000178726
2.06346e-05
2.49147e-06
2.91789e-12
3.24893e-12
2.87707e-12
3.01105e-12
4.34853e-06
2.62396e-06
8.16686e-08
1.75785e-07
1.9264e-07
1.3836e-07
4.20024e-07
4.54358e-07
1.33186e-07
3.90411e-08
7.03552e-09
1.628e-09
4.95788e-15
0.000232834
0.000459766
0.000128171
1.27742e-05
3.6866e-07
1.96293e-08
5.00708e-08
1.90128e-07
2.63225e-07
3.01711e-07
7.14619e-07
1.40115e-06
1.39417e-06
1.11548e-06
3.34592e-07
7.78974e-07
9.43663e-07
8.49733e-07
1.19877e-07
2.40225e-08
5.81783e-09
7.16055e-09
6.14492e-09
5.59631e-09
1.00856e-07
9.30595e-08
1.2573e-05
2.46912e-10
2.02581e-08
1.21162e-07
8.99566e-07
1.52276e-06
1.52229e-06
1.29442e-06
1.26969e-06
9.3997e-07
2.09459e-07
3.34317e-07
8.86696e-07
8.26317e-07
1.69641e-07
1.84229e-09
1.85108e-09
6.31018e-09
1.04303e-08
1.25299e-08
5.7803e-09
4.26843e-07
9.0644e-07
3.93519e-07
5.50256e-10
3.9202e-08
1.78568e-07
1.2317e-06
1.52229e-06
9.57931e-07
9.188e-09
6.98262e-09
4.21263e-09
9.59663e-09
1.95584e-07
3.1553e-07
1.41186e-09
1.40655e-09
1.88982e-09
3.21163e-09
5.75842e-09
1.2898e-08
3.0417e-08
4.37656e-08
2.85051e-08
9.4801e-09
7.84131e-09
5.57852e-10
1.5784e-08
4.89783e-08
2.13732e-09
4.60685e-08
3.34454e-09
3.57797e-09
3.81509e-09
4.15354e-09
2.86721e-09
1.41718e-09
1.41186e-09
1.40655e-09
1.40123e-09
1.73053e-09
2.20955e-09
3.26724e-09
4.4526e-09
6.58772e-09
6.94015e-09
3.14865e-09
6.12098e-09
4.45269e-09
7.25959e-08
1.8275e-09
1.82833e-09
2.16917e-09
2.96625e-09
4.49089e-09
6.04645e-09
5.94624e-09
4.5634e-09
3.35454e-09
2.52618e-09
1.93173e-09
1.58372e-09
1.39472e-09
1.16039e-09
1.13079e-09
1.2849e-09
1.41518e-09
9.86459e-10
1.03994e-09
1.76526e-09
2.63356e-09
4.76773e-09
2.35554e-07
1.88366e-09
1.83395e-09
4.83628e-09
7.44727e-09
9.28538e-09
1.28415e-08
1.25557e-08
7.34845e-09
4.29573e-09
3.56118e-09
2.88216e-09
1.99158e-09
1.22025e-09
8.51045e-10
6.62741e-10
6.32537e-10
7.346e-10
9.42654e-10
1.20574e-09
1.58423e-09
3.20304e-09
4.47592e-09
4.46672e-07
1.79714e-09
2.65114e-09
7.43468e-09
1.2727e-08
1.44197e-08
1.79888e-08
1.42487e-08
7.04016e-09
3.61515e-09
3.28548e-09
2.62785e-09
1.79607e-09
1.11054e-09
7.09374e-10
4.72627e-10
3.79441e-10
4.00285e-10
5.09118e-10
7.11829e-10
1.17626e-09
1.63666e-09
3.57295e-09
5.38018e-07
1.80403e-09
7.03401e-09
9.9418e-09
1.97398e-08
2.29735e-08
2.20088e-08
8.86473e-09
3.31462e-09
3.22974e-09
2.96306e-09
2.27825e-09
1.52597e-09
9.65309e-10
5.89409e-10
3.60786e-10
2.51341e-10
2.29193e-10
2.78172e-10
3.87998e-10
5.86185e-10
1.19974e-09
1.67146e-09
7.92751e-07
1.79709e-09
1.29294e-08
1.34365e-08
3.32799e-08
8.81101e-08
1.35749e-07
1.31105e-08
2.87425e-09
2.99608e-09
2.83403e-09
2.02147e-09
1.30928e-09
7.96638e-10
4.54871e-10
2.5697e-10
1.56929e-10
1.2437e-10
1.32757e-10
1.81521e-10
2.74217e-10
4.17301e-10
8.20506e-10
1.21297e-06
3.10809e-08
1.2975e-08
2.30308e-08
5.66723e-08
3.16276e-07
3.59415e-07
8.31599e-08
2.86789e-09
2.8619e-09
2.8472e-09
1.8264e-09
1.1005e-09
6.34633e-10
3.45132e-10
1.79588e-10
9.7494e-11
6.36245e-11
6.20709e-11
7.71867e-11
1.0809e-10
1.96284e-10
2.87631e-10
2.64261e-06
4.9379e-06
1.30892e-08
3.48334e-08
1.20644e-07
3.88816e-07
3.73245e-07
1.20967e-07
2.87414e-09
3.5296e-09
2.94081e-09
1.69987e-09
9.39808e-10
4.95908e-10
2.49586e-10
1.22152e-10
6.03443e-11
3.40665e-11
2.71816e-11
2.99495e-11
4.11558e-11
5.45968e-11
1.00947e-10
2.77966e-06
9.03472e-06
1.79077e-06
1.02505e-08
1.65547e-07
3.96641e-07
3.42169e-07
3.41315e-09
3.44674e-09
4.65985e-09
2.91164e-09
1.53729e-09
7.82238e-10
3.79887e-10
1.78042e-10
8.00878e-11
3.61059e-11
1.8445e-11
1.22932e-11
1.18902e-11
1.36697e-11
2.06856e-11
2.80004e-11
1.59254e-05
9.51889e-06
4.65474e-06
1.02456e-08
1.83492e-07
3.99902e-07
2.6389e-07
4.84753e-09
6.70097e-09
5.22583e-09
2.677e-09
1.30514e-09
6.19349e-10
2.8279e-10
1.25055e-10
5.35068e-11
2.27735e-11
1.02667e-11
5.75483e-12
4.67049e-12
5.09792e-12
5.83719e-12
8.53451e-12
2.61469e-05
4.29184e-06
3.82583e-06
9.30497e-08
1.89148e-07
3.99834e-07
2.03788e-07
6.10803e-09
8.06899e-09
4.88889e-09
2.30005e-09
1.05251e-09
4.66232e-10
2.01292e-10
8.45641e-11
3.44546e-11
1.39394e-11
5.76401e-12
2.69234e-12
1.82184e-12
1.69025e-12
1.98687e-12
2.33585e-12
2.61755e-05
3.45789e-07
2.46966e-07
1.39615e-07
3.91688e-07
3.93592e-07
6.71895e-08
1.2307e-08
8.19273e-09
4.17547e-09
1.87588e-09
8.11275e-10
3.3712e-10
1.37386e-10
5.55753e-11
2.18469e-11
8.2344e-12
3.11708e-12
1.27792e-12
7.04284e-13
6.06603e-13
5.77715e-13
6.78004e-13
2.58868e-05
3.71596e-08
3.59047e-08
2.01561e-07
4.16066e-07
3.93919e-07
2.18567e-08
1.66812e-08
8.05886e-09
3.49322e-09
1.48238e-09
6.03823e-10
2.37951e-10
9.16295e-11
3.50601e-11
1.30782e-11
4.59475e-12
1.62284e-12
5.95681e-13
2.78919e-13
1.98471e-13
1.88459e-13
1.85178e-13
2.49441e-05
3.93178e-08
5.55646e-08
2.89571e-07
4.13718e-07
2.17832e-07
2.07385e-08
1.5945e-08
7.09576e-09
3.01986e-09
1.16516e-09
4.39375e-10
1.63703e-10
5.94289e-11
2.10292e-11
7.34684e-12
2.41465e-12
7.6871e-13
2.57049e-13
1.07603e-13
7.19239e-14
5.54381e-14
5.45607e-14
2.71713e-05
7.52321e-08
5.61031e-08
1.86254e-07
1.62087e-07
3.62012e-08
1.41224e-08
1.36686e-08
5.95456e-09
2.68418e-09
9.37501e-10
3.1188e-10
1.06928e-10
3.64673e-11
1.15634e-11
3.74975e-12
1.1606e-12
3.41614e-13
1.01447e-13
3.83078e-14
2.14107e-14
1.61377e-14
1.43946e-14
2.9605e-05
1.64454e-07
2.95674e-08
3.46979e-08
3.47173e-08
3.98385e-08
1.33261e-07
1.79214e-08
3.86922e-09
2.19067e-09
7.84466e-10
2.18986e-10
6.4315e-11
1.98531e-11
6.09154e-12
1.80037e-12
5.06153e-13
1.30949e-13
3.66269e-14
1.18464e-14
6.78168e-15
4.66443e-15
3.77232e-15
2.96043e-05
2.97185e-08
2.95673e-08
2.95674e-08
3.07193e-07
1.32987e-06
3.86495e-07
1.63587e-09
2.33975e-09
1.62544e-09
5.9398e-10
1.6584e-10
3.92518e-11
1.06691e-11
2.91748e-12
7.78042e-13
1.95449e-13
4.46139e-14
1.10971e-14
4.12767e-15
2.10088e-15
1.25655e-15
1.06372e-15
2.5293e-05
4.21744e-05
2.95674e-08
2.95673e-08
2.22237e-06
2.23353e-06
4.7711e-07
1.62845e-09
1.62039e-09
1.03314e-09
3.99383e-10
1.17392e-10
2.66634e-11
5.52836e-12
1.33658e-12
3.23614e-13
7.15747e-14
1.51261e-14
3.75948e-15
1.14392e-15
5.93984e-16
3.75162e-16
2.57594e-16
4.4414e-06
5.25182e-05
4.22416e-05
8.95841e-06
2.43228e-06
2.88938e-09
1.29122e-09
1.6937e-09
1.2816e-09
6.37247e-10
2.44535e-10
7.58315e-11
1.85591e-11
3.5032e-12
6.4555e-13
1.32198e-13
2.73427e-14
5.18506e-15
1.11128e-15
3.81337e-16
1.78595e-16
9.46171e-17
6.42727e-17
7.87393e-09
3.66372e-05
4.52957e-05
2.51988e-05
6.65921e-08
1.15029e-09
1.28048e-09
1.31977e-09
7.91509e-10
3.66237e-10
1.43172e-10
4.57169e-11
1.19263e-11
2.42656e-12
3.70601e-13
5.67214e-14
1.00931e-14
1.7011e-15
3.52106e-16
1.05304e-16
4.784e-17
2.35161e-17
1.41618e-17
7.61304e-09
9.85533e-07
9.69936e-06
3.78609e-06
6.95371e-07
1.15036e-09
1.14524e-09
8.22278e-10
4.53157e-10
2.08177e-10
7.77737e-11
2.39321e-11
6.19031e-12
1.32429e-12
2.24216e-13
2.83667e-14
3.70624e-15
5.39462e-16
1.01181e-16
3.0895e-17
1.27624e-17
5.39568e-18
2.9052e-18
7.61252e-09
1.49799e-09
1.49726e-09
1.49623e-09
1.4954e-09
1.49431e-09
1.08683e-09
5.55424e-10
2.50751e-10
9.80837e-11
3.40983e-11
1.03842e-11
2.67221e-12
5.87243e-13
1.09327e-13
1.63511e-14
1.79452e-15
1.93937e-16
3.25117e-17
9.27959e-18
3.33563e-18
1.20801e-18
5.44929e-19
4.48582e-09
7.69584e-09
7.20705e-09
4.86819e-09
1.79991e-09
8.28698e-10
4.42835e-10
2.10225e-10
8.68654e-11
3.13782e-11
1.01599e-11
2.98361e-12
7.86667e-13
1.87789e-13
3.8435e-14
6.67064e-15
9.4844e-16
1.06628e-16
1.18458e-17
3.01167e-18
9.3992e-19
2.78387e-19
1.02529e-19
1.66612e-09
2.90232e-09
2.62005e-09
1.51463e-09
7.24997e-10
3.53543e-10
1.56177e-10
6.14377e-11
2.14583e-11
6.94352e-12
2.07364e-12
5.8294e-13
1.55492e-13
3.8896e-14
8.57177e-15
1.72915e-15
3.0428e-16
4.53093e-17
6.41721e-18
1.20739e-18
2.93146e-19
7.07218e-20
1.88527e-20
4.35791e-10
6.66673e-10
5.42123e-10
3.01214e-10
1.52305e-10
6.14567e-11
2.22452e-11
7.49547e-12
2.38434e-12
7.05433e-13
1.98605e-13
5.29857e-14
1.3752e-14
3.40195e-15
8.37082e-16
1.8273e-16
3.58438e-17
6.75338e-18
1.36049e-18
3.45554e-19
9.88019e-20
2.36685e-20
4.40065e-21
0.00426583
0.00426578
0.00426583
0.00228032
0.000638095
0.000563192
0.000398174
0.000362088
3.55741e-06
1.64113e-11
2.13653e-12
1.49366e-19
-2.75477e-09
8.47522e-06
4.91621e-11
1.18429e-12
0.0279542
0.0205438
0.0161814
0.0171202
0.661403
0.638911
0.609432
0.597928
0.979588
0.991288
0.992214
0.99218
0.99242
0.992395
0.992376
0.987329
0.800387
0.750383
0.647316
0.480674
0.043898
0.00197146
3.16484e-15
5.22052e-12
6.2644e-07
1.2776e-07
1.32444e-07
1.30908e-08
1.53439e-05
5.85542e-06
1.16741e-06
2.07621e-06
8.19842e-06
8.26666e-06
1.01285e-05
9.4198e-06
1.37826e-05
2.7102e-05
2.69552e-05
6.66433e-06
4.67229e-06
3.15806e-09
3.27546e-09
2.8937e-09
4.07407e-09
1.08309e-08
5.43357e-09
3.90811e-09
4.03381e-09
3.13573e-09
3.16172e-09
3.53263e-09
2.97564e-09
2.89575e-09
2.91993e-09
5.99465e-09
5.45296e-09
5.45236e-09
5.37989e-09
6.4087e-09
7.58832e-09
1.20353e-08
1.4363e-08
1.73751e-08
4.72836e-09
5.86001e-09
1.51585e-08
1.76428e-08
2.43532e-09
3.78886e-09
4.48056e-09
7.10321e-09
1.08069e-09
1.36367e-09
1.87645e-09
2.27477e-09
4.16961e-10
5.45125e-10
6.52299e-10
8.20067e-10
1.32481e-10
1.5899e-10
2.17915e-10
2.57269e-10
3.84342e-11
4.99423e-11
5.85322e-11
7.42641e-11
1.06431e-11
1.24167e-11
1.63834e-11
1.92898e-11
2.91265e-12
3.41941e-12
4.01573e-12
5.07598e-12
7.7264e-13
8.57503e-13
1.1299e-12
1.36759e-12
2.05398e-13
2.47502e-13
3.14084e-13
4.63744e-13
5.81488e-14
7.31725e-14
1.14966e-13
1.78612e-13
1.58223e-14
2.49558e-14
4.26935e-14
1.08525e-13
5.01927e-15
9.02243e-15
2.10011e-14
4.22948e-14
1.41134e-15
3.12045e-15
7.24165e-15
2.56641e-14
4.34252e-16
1.09259e-15
3.37868e-15
9.23028e-15
1.18591e-16
3.32921e-16
9.70863e-16
3.48941e-15
3.01609e-17
1.04935e-16
3.60081e-16
1.19164e-15
6.95253e-18
2.52531e-17
9.40826e-17
3.39688e-16
1.36136e-18
5.79956e-18
2.55237e-17
9.88437e-17
2.18397e-19
1.10519e-18
5.57436e-18
2.44771e-17
2.59797e-20
1.497e-19
9.70469e-19
4.99393e-18
2.22355e-21
9.45526e-21
9.56608e-20
7.18811e-19
2.94451e-06
2.2554e-06
2.36089e-06
1.83296e-06
0.00154135
0.086183
0.101568
0.0414627
0.114444
0.546084
0.614907
0.613516
0.303953
0.151139
0.124969
0.519982
0.883669
0.899447
0.909248
0.000170296
2.76078e-06
3.40467e-06
2.27415e-06
1.00733e-06
1.00719e-06
1.00719e-06
1.00719e-06
1.00719e-06
0.192565
0.604531
0.612254
0.377616
0.16559
0.125936
0.329537
0.85667
0.909253
0.909253
1.02049e-26
-6.73681e-12
1.79771e-05
9.66615e-05
1.00745e-06
1.00719e-06
1.00719e-06
1.00719e-06
1.00719e-06
0.109754
0.583613
0.581427
0.308207
0.149622
0.144704
0.51673
0.85782
0.909046
0.909247
1.14566e-15
3.73142e-18
1.31125e-21
0.0127258
0.0324265
0.0281803
0.0150433
0.00181779
0.000331385
0.038841
0.513722
0.400592
0.191505
0.187598
0.540407
0.883758
0.910195
0.90917
0.909073
0.0197983
0.0101904
0.000948671
0.0234228
0.155361
0.264841
0.267757
0.213527
0.193708
0.298889
0.414101
0.270569
0.208932
0.503257
0.896866
0.91014
0.910235
0.909621
0.90943
0.613179
0.566152
0.465011
0.390401
0.456276
0.699519
0.656636
0.583216
0.583853
0.448299
0.376384
0.583771
0.715343
0.860396
0.909365
0.910224
0.91023
0.910279
0.910235
0.992131
0.991151
0.989584
0.989115
0.989939
0.975247
0.714391
0.338971
0.296166
0.241019
0.357066
0.637388
0.744406
0.807778
0.838139
0.812845
0.875503
0.910304
0.910317
0.980169
0.938559
0.852057
0.842344
0.871686
0.796451
0.320294
0.00460386
0.0163329
0.0647342
0.105885
0.10258
0.119591
0.146545
0.173083
0.152305
0.262282
0.683365
0.91022
0.391279
0.269859
0.118194
0.100925
0.100524
0.0752799
0.0204686
0.0003639
0.000115211
7.27249e-07
8.31244e-07
8.31122e-07
8.31123e-07
8.30981e-07
8.3094e-07
8.30204e-07
8.29018e-07
0.0682938
0.358022
1.12323e-13
5.26004e-12
3.57863e-14
4.36398e-06
4.86111e-08
-1.15662e-07
0.0031376
0.000445515
7.93696e-05
0.000237431
0.000250919
2.97004e-05
2.32747e-06
1.67561e-05
1.8923e-05
3.76427e-06
8.26845e-07
8.28866e-07
8.2965e-07
1.80135e-06
2.76562e-06
1.10157e-06
4.75971e-05
3.68281e-05
0.0018956
0.00290002
0.000236838
0.000176986
0.000218131
6.26905e-05
1.33252e-06
1.29312e-06
6.811e-06
4.64714e-06
2.95889e-06
8.22039e-07
8.26874e-07
8.29112e-07
7.55187e-06
1.38189e-05
8.90481e-06
0.000267481
0.000908116
0.000409955
0.000574619
6.17632e-05
7.50746e-05
1.36116e-05
1.4857e-08
3.79967e-08
6.12714e-07
2.3593e-05
3.19796e-05
8.07849e-07
8.16926e-07
8.2209e-07
8.26907e-07
2.25456e-05
2.27492e-05
8.74218e-06
0.000276264
0.000551644
0.000123694
1.37881e-05
2.921e-05
6.64329e-08
1.7221e-08
3.71844e-09
2.59332e-09
3.28014e-07
6.06845e-05
0.000102115
3.66715e-05
8.22101e-07
8.26907e-07
8.29129e-07
2.95774e-09
1.24408e-07
1.03327e-05
7.7027e-05
9.3074e-05
1.39188e-05
1.37626e-05
8.02452e-05
0.000124876
0.000125432
1.40694e-09
2.53274e-09
2.59178e-09
4.37401e-05
0.000101914
0.000102167
5.47853e-05
2.88364e-05
2.39701e-05
2.89111e-09
2.89348e-09
1.31628e-06
1.20198e-05
1.43853e-05
1.36957e-05
9.57385e-05
0.000224122
0.00022399
0.000224149
0.000174208
2.59332e-09
2.58274e-09
2.66249e-06
5.43018e-05
9.85948e-05
9.73647e-05
4.16353e-05
1.84219e-05
5.26924e-09
3.96447e-09
4.08617e-09
9.84658e-06
5.84553e-05
0.000176071
0.000224417
0.000224094
0.000215352
0.000165665
0.000110514
1.90978e-05
2.6035e-09
1.02194e-08
5.11501e-07
1.20581e-05
1.64576e-05
8.39916e-06
7.0303e-07
4.69803e-09
4.11113e-09
4.21293e-09
8.79738e-05
0.000203057
0.000203705
0.000204223
6.57135e-05
2.03785e-05
7.18383e-06
2.37422e-06
1.28335e-05
4.35438e-06
5.97114e-08
1.75666e-08
3.72417e-08
6.83853e-08
5.66733e-08
7.16305e-09
1.95678e-08
3.27812e-08
4.65504e-08
4.4853e-05
0.00012619
0.000128403
2.61173e-05
7.80563e-08
7.43804e-08
4.33461e-07
7.99607e-08
1.27709e-07
2.69964e-06
8.76295e-07
1.48867e-08
2.02483e-07
2.65813e-07
1.02076e-07
2.801e-09
1.16584e-08
1.40614e-07
1.42309e-06
1.78685e-06
8.94054e-07
1.90107e-06
1.23641e-08
1.36257e-07
1.37348e-06
2.01544e-06
1.4577e-06
4.00424e-09
2.26514e-08
3.7382e-07
6.67687e-08
1.56607e-07
3.05201e-07
9.53689e-08
2.61314e-09
4.42077e-08
9.72693e-08
1.1708e-07
1.2363e-08
1.21309e-08
1.18996e-08
1.21311e-08
2.18706e-07
2.05901e-06
2.13471e-06
1.41047e-06
3.99323e-09
3.99325e-09
3.99085e-09
3.10061e-08
7.86013e-09
7.10169e-08
2.76891e-08
2.61323e-09
2.42249e-08
3.20683e-08
2.30175e-08
1.51326e-08
1.4042e-08
1.16696e-08
1.97172e-08
1.02863e-07
3.67896e-07
6.64568e-07
1.46752e-07
1.48793e-08
5.17682e-09
3.9871e-09
8.04263e-09
2.45252e-09
2.45451e-09
7.35779e-08
1.28274e-06
9.67687e-09
1.33841e-08
1.33628e-08
1.34e-08
1.18255e-08
1.10509e-08
1.28827e-08
1.38698e-08
2.19347e-09
2.21214e-09
2.23339e-09
1.15405e-08
6.44187e-09
3.98467e-09
3.09916e-09
2.54727e-09
5.03004e-09
5.12117e-09
9.82052e-06
3.06152e-09
4.7985e-09
6.20687e-09
6.7382e-09
6.33295e-09
5.88599e-09
5.53324e-09
2.96857e-09
2.17421e-09
2.34035e-09
2.53853e-09
5.0531e-09
4.77902e-09
3.05643e-09
2.27591e-09
2.03023e-09
2.03167e-09
5.04828e-06
1.00695e-05
9.91979e-10
1.46881e-09
2.03709e-09
2.55408e-09
2.63321e-09
2.61816e-09
2.53533e-09
2.18645e-09
1.97845e-09
2.19275e-09
2.18004e-09
2.49467e-09
2.84575e-09
2.23232e-09
2.46777e-09
1.25966e-08
5.8152e-07
1.19109e-05
6.53362e-06
3.17049e-10
4.64242e-10
6.61299e-10
8.61843e-10
9.93603e-10
1.06659e-09
1.11328e-09
1.15599e-09
1.20376e-09
1.38199e-09
1.45003e-09
1.54564e-09
1.74534e-09
1.62932e-09
1.62649e-09
3.44667e-07
1.03418e-05
1.19227e-05
4.29909e-07
9.11423e-11
1.3839e-10
2.06688e-10
2.8452e-10
3.53162e-10
4.00974e-10
4.65516e-10
5.50871e-10
6.6594e-10
8.34676e-10
9.95089e-10
1.16176e-09
1.36593e-09
1.5452e-09
2.035e-09
2.28052e-07
8.17286e-06
1.193e-05
4.14282e-08
2.40929e-11
3.74711e-11
5.99524e-11
8.90084e-11
1.23477e-10
1.6238e-10
2.19054e-10
3.09436e-10
4.47182e-10
6.40399e-10
8.69812e-10
1.10076e-09
1.36891e-09
1.76855e-09
3.58099e-09
5.48071e-08
6.04538e-07
3.09324e-06
3.94053e-08
6.27252e-12
1.02153e-11
1.80824e-11
3.07883e-11
5.14636e-11
8.53928e-11
1.45972e-10
2.512e-10
4.18485e-10
6.59952e-10
9.74567e-10
1.36296e-09
2.02417e-09
3.24533e-09
3.32257e-09
4.34239e-09
4.40049e-09
4.46255e-09
2.02862e-08
1.83216e-12
3.43555e-12
7.5088e-12
1.55999e-11
3.26603e-11
6.68891e-11
1.33592e-10
2.61291e-10
4.6258e-10
7.69193e-10
1.17995e-09
1.74018e-09
3.69578e-09
1.09772e-08
4.71466e-09
4.34753e-09
5.67425e-09
5.72691e-09
2.90764e-08
7.03626e-13
1.85276e-12
4.5733e-12
1.14822e-11
2.77131e-11
6.21776e-11
1.35778e-10
2.8224e-10
5.22258e-10
8.84955e-10
1.37126e-09
1.981e-09
4.09514e-09
2.04759e-08
1.46432e-07
1.63897e-07
2.99898e-08
8.95707e-08
2.30068e-07
3.83133e-13
1.17776e-12
3.42281e-12
9.22408e-12
2.50059e-11
6.01024e-11
1.35304e-10
2.9019e-10
5.51088e-10
9.45655e-10
1.46511e-09
2.3153e-09
4.57232e-09
1.62341e-08
1.76098e-07
3.0385e-07
3.00372e-07
2.68861e-07
2.913e-07
2.14519e-13
8.01997e-13
2.4341e-12
7.60239e-12
2.07888e-11
5.28136e-11
1.23241e-10
2.7501e-10
5.25612e-10
9.09512e-10
1.41994e-09
2.1254e-09
3.93316e-09
1.16308e-08
7.65522e-08
3.08437e-07
3.08183e-07
3.07684e-07
1.9928e-07
1.26648e-13
4.98301e-13
1.69543e-12
5.39107e-12
1.56307e-11
4.14302e-11
1.03079e-10
2.29749e-10
4.51832e-10
7.91816e-10
1.22359e-09
1.73672e-09
2.63104e-09
6.02597e-09
1.89857e-08
1.27933e-07
3.08665e-07
3.07078e-07
6.26751e-08
6.56599e-14
2.69878e-13
9.99218e-13
3.38345e-12
1.05266e-11
2.9049e-11
7.4409e-11
1.70456e-10
3.44838e-10
6.16189e-10
9.53564e-10
1.29466e-09
1.70263e-09
2.82293e-09
7.26697e-09
2.52672e-08
1.76145e-07
2.2693e-07
1.52592e-08
2.58609e-14
1.25495e-13
5.05937e-13
1.87551e-12
6.02153e-12
1.77293e-11
4.70969e-11
1.10088e-10
2.29505e-10
4.19086e-10
6.58339e-10
8.80818e-10
1.03115e-09
1.29295e-09
2.63053e-09
8.23704e-09
4.07781e-08
1.96929e-08
1.38892e-08
1.09688e-14
5.36553e-14
2.34123e-13
8.87336e-13
2.98048e-12
9.09929e-12
2.50624e-11
5.95479e-11
1.28597e-10
2.41309e-10
3.9009e-10
5.26831e-10
5.90394e-10
6.19681e-10
9.24897e-10
2.27501e-09
3.19894e-09
8.09749e-09
8.14382e-09
3.70345e-15
2.10063e-14
9.60668e-14
3.7717e-13
1.3336e-12
4.12054e-12
1.16058e-11
2.86643e-11
6.24595e-11
1.20265e-10
2.01724e-10
2.8366e-10
3.20435e-10
2.97715e-10
3.71634e-10
7.06042e-10
1.52734e-09
2.46507e-09
6.37742e-09
1.26384e-15
7.25078e-15
3.4906e-14
1.42933e-13
5.25559e-13
1.65568e-12
4.77295e-12
1.20907e-11
2.74426e-11
5.43637e-11
9.38742e-11
1.36766e-10
1.59528e-10
1.42537e-10
1.46792e-10
2.72306e-10
5.95855e-10
1.53585e-09
4.21563e-09
3.544e-16
2.29113e-15
1.15748e-14
4.86913e-14
1.83478e-13
6.02794e-13
1.77647e-12
4.65497e-12
1.09322e-11
2.25293e-11
4.05667e-11
6.11959e-11
7.4461e-11
6.50637e-11
6.40079e-11
1.12787e-10
3.14087e-10
8.78842e-10
2.85807e-09
9.26722e-17
5.9691e-16
3.06161e-15
1.35476e-14
5.13218e-14
1.8004e-13
5.60136e-13
1.52915e-12
3.68737e-12
7.91207e-12
1.50557e-11
2.37314e-11
3.03015e-11
2.68997e-11
2.41058e-11
4.44027e-11
1.35076e-10
4.9822e-10
1.78347e-09
2.11401e-17
1.44541e-16
7.80181e-16
3.5728e-15
1.39553e-14
4.79969e-14
1.51048e-13
4.24428e-13
1.08424e-12
2.46611e-12
4.71084e-12
7.73488e-12
1.00725e-11
8.82469e-12
8.30674e-12
1.58995e-11
5.72449e-11
2.61236e-10
1.05747e-09
3.958e-18
3.04258e-17
1.80439e-16
8.49629e-16
3.42823e-15
1.22878e-14
3.94056e-14
1.1165e-13
2.8825e-13
6.55404e-13
1.40179e-12
2.3991e-12
3.36209e-12
2.89573e-12
2.61892e-12
5.57662e-12
2.2591e-11
1.07051e-10
3.10926e-10
)
;

boundaryField
{
    leftWall
    {
        type            zeroGradient;
    }
    rightWall
    {
        type            zeroGradient;
    }
    lowerWall
    {
        type            zeroGradient;
    }
    atmosphere
    {
        type            inletOutlet;
        inletValue      uniform 0;
        value           nonuniform List<scalar> 
46
(
0
0
0
0
0
0
0
0
0
0
0
0
0
0
0
0
0
0
0
0
0
0
0
0
9.45526e-21
9.56608e-20
7.18811e-19
3.958e-18
3.04258e-17
1.80439e-16
8.49629e-16
3.42823e-15
1.22878e-14
3.94056e-14
1.1165e-13
2.8825e-13
6.55404e-13
1.40179e-12
2.3991e-12
3.36209e-12
2.89573e-12
2.61892e-12
5.57662e-12
2.2591e-11
1.07051e-10
3.10926e-10
)
;
    }
    defaultFaces
    {
        type            empty;
    }
}


// ************************************************************************* //
