/*--------------------------------*- C++ -*----------------------------------*\
| =========                 |                                                 |
| \\      /  F ield         | OpenFOAM: The Open Source CFD Toolbox           |
|  \\    /   O peration     | Version:  2312                                  |
|   \\  /    A nd           | Website:  www.openfoam.com                      |
|    \\/     M anipulation  |                                                 |
\*---------------------------------------------------------------------------*/
FoamFile
{
    version     2.0;
    format      ascii;
    arch        "LSB;label=32;scalar=64";
    class       volScalarField;
    location    "1.5";
    object      alpha.galistan;
}
// * * * * * * * * * * * * * * * * * * * * * * * * * * * * * * * * * * * * * //

dimensions      [0 0 0 0 0 0 0];

internalField   nonuniform List<scalar> 
2268
(
1
1
1
1
1
1
1
1
1
1
1
1
1
1
1
1
1
1
1
1
1
0.999985
0.999935
1
1
1
1
1
1
1
1
1
1
1
1
1
1
1
1
1
1
1
1
1
0.999995
0.999935
1
1
1
1
1
1
1
1
1
1
1
1
1
1
1
1
1
1
1
1
1
1
0.999967
1
1
1
1
1
1
1
1
1
1
1
1
1
1
1
1
1
1
1
1
0.999998
1
1
0.997174
1
1
1
1
1
0.98907
0.973076
0.970274
0.977388
0.988374
0.997216
1
1
1
1
1
1
1
1
0.999995
1
1
0.674307
0.746523
0.804413
0.775697
0.689897
0.537585
0.394469
0.326263
0.31604
0.345619
0.406248
0.49587
0.618393
0.741331
0.857301
0.947216
0.994459
1
0.999998
1
1
0.999846
1
0.0124937
0.0538099
0.129226
0.117657
0.0573385
0.00942546
0.00141691
-7.56818e-24
-4.13002e-17
6.24172e-26
-2.46567e-31
5.77837e-30
1.3638e-32
0.0334661
0.113006
0.243376
0.455572
0.727057
0.945336
0.999682
0.999901
0.999785
0.999097
2.38378e-09
2.5168e-09
0.000597251
0.0210484
0.0192068
0.00376782
0.000211647
1.62186e-07
-1.4526e-15
2.62741e-11
1.31997e-12
9.66702e-15
6.25548e-18
3.55265e-23
2.75747e-23
3.55265e-23
1.94599e-22
0.0348604
0.193289
0.544753
0.882529
0.999631
0.994743
0.457687
0.779217
0.779643
0.813059
0.86556
0.865546
0.863389
0.866468
0.893482
0.907016
0.905978
0.903182
0.911287
0.921776
0.936337
0.942948
0.944385
0.944387
0.922682
0.368472
0.547991
0.345318
0.332535
0.322893
0.269043
0.236571
0.39052
0.630414
0.695932
0.86515
0.886969
0.907605
0.92434
0.927014
0.924834
0.91086
0.882185
0.893535
0.252385
0.248575
0.226792
0.13939
0.14632
0.23107
0.22204
0.22235
0.279007
0.406888
0.579208
0.63218
0.63984
0.603793
0.505932
0.365291
0.286626
0.214463
0.24534
0.347711
0.246364
0.246494
0.123421
0.117111
0.123214
0.241661
0.275769
0.20244
0.315976
0.429287
0.421904
0.375564
0.15339
0.0123694
0.00246319
0.00248021
0.00245861
0.00247483
0.354804
0.27688
0.221427
0.130544
0.120504
0.0901709
0.158697
0.172342
0.164029
0.240732
0.336655
0.40015
0.25507
0.0168867
0.00588792
0.00588724
0.00911639
0.00921206
0.00272646
0.354805
0.312948
0.143889
0.0864224
0.0642638
0.0838921
0.0989315
0.0929585
0.106712
0.145122
0.21053
0.211858
0.144293
0.0186264
0.0133672
0.0175368
0.0172294
0.0166854
0.00414876
0.265603
0.183317
0.0673147
0.00404247
1.43265e-05
1.44738e-05
0.0145913
0.0829948
0.0744598
0.0782599
0.129581
0.136445
0.0466464
0.016956
0.0240015
0.0247695
0.0138164
0.0101655
0.00849814
0.111071
0.0572533
0.0157384
0.00259133
1.63838e-05
2.78721e-05
6.34095e-06
0.0146686
0.0421587
0.0279705
0.0171853
0.00735023
0.0035814
0.0165899
0.0240569
0.0194893
0.00744537
0.0038705
0.00709765
2.60066e-08
6.29209e-09
-4.26556e-22
-4.80478e-20
0.00076807
0.000641403
0.000123694
2.0645e-07
8.26897e-26
6.80409e-11
3.65283e-15
1.00088e-18
1.5999e-18
9.33103e-13
7.0484e-12
1.33788e-12
5.22934e-11
-2.88331e-12
1.19769e-24
0.0083789
0.0765012
0.219553
0.498177
2.59969e-08
5.53623e-08
3.24398e-18
1.01954e-13
1.29807e-05
4.15645e-06
4.28029e-06
8.97316e-07
8.75563e-09
1.52819e-10
3.71894e-08
3.72269e-08
5.02992e-09
9.26571e-13
1.51491e-07
1.2568e-12
4.20426e-10
1.18253e-09
8.32085e-10
3.38768e-10
1.83538e-08
1.49219e-06
0.000195851
6.00017e-09
7.25834e-07
8.14661e-06
1.07545e-05
1.37418e-05
2.13334e-05
2.57908e-05
2.57719e-05
2.55106e-05
7.52244e-06
4.92627e-08
1.44833e-07
8.86158e-08
4.2616e-06
4.61542e-06
2.08284e-07
-4.0762e-14
1.30319e-21
1.43163e-08
5.00417e-09
4.38821e-08
5.54755e-09
1.72756e-08
5.99072e-09
2.67228e-06
2.51488e-05
2.51391e-05
1.54826e-05
8.90487e-06
7.18308e-06
8.23998e-06
2.10477e-05
2.16459e-05
1.00545e-05
2.45048e-07
1.04411e-07
4.99537e-06
1.3434e-05
6.73527e-05
7.81981e-05
0.000413107
0.000973365
0.00122938
0.000840503
0.000136303
1.93032e-06
5.98217e-09
6.93588e-08
1.82018e-06
6.42283e-06
4.24699e-08
3.13539e-08
3.12257e-08
3.13355e-07
2.97907e-07
4.10256e-06
5.31839e-06
1.54592e-06
7.53808e-07
6.00429e-06
1.56058e-07
0.000105197
0.00138915
0.00206283
0.0032583
0.00462534
0.00462222
0.00364141
0.0022821
5.97056e-09
5.39451e-09
2.5154e-08
6.8633e-08
5.69339e-07
6.06888e-07
1.28016e-06
3.62861e-05
0.000126309
5.3293e-05
3.34677e-06
5.07438e-07
4.18152e-07
5.61515e-06
6.64756e-08
3.25826e-05
0.00220923
0.00221626
0.00153552
0.00240421
0.0042827
0.00464084
0.0046427
5.39256e-09
5.39344e-09
1.372e-07
1.41416e-06
2.44559e-06
2.71393e-06
4.75284e-06
9.27548e-05
0.000271802
0.000125218
1.21354e-07
1.34144e-08
9.13351e-07
3.35552e-06
4.04184e-08
2.12779e-05
0.00145502
0.00159517
0.000301057
0.000290778
0.000326648
0.000966944
0.000868222
1.21467e-08
5.44196e-09
1.70478e-07
1.37917e-06
2.38408e-06
1.53862e-06
2.22978e-06
9.69655e-05
0.000272182
0.000244652
4.70749e-06
1.27647e-08
1.04868e-06
2.68996e-07
3.41764e-08
0.000131767
0.000779446
0.00126623
0.000338899
2.32798e-05
1.62799e-05
5.8727e-07
2.10175e-15
4.12242e-08
8.18217e-08
6.5183e-08
1.90893e-08
1.89115e-08
1.91768e-08
1.91599e-08
1.49609e-05
0.000247623
0.000355591
0.000101316
1.33548e-08
1.93557e-07
4.70877e-08
1.38074e-06
0.00025519
0.00196861
0.00148699
7.35533e-05
7.26745e-07
5.39256e-08
4.45107e-08
2.30939e-08
4.82339e-08
8.00285e-08
5.84288e-08
2.11135e-08
1.98444e-08
2.13083e-08
6.56954e-08
6.55796e-08
6.52776e-06
0.000327512
0.000463778
0.000215684
2.7789e-05
4.32108e-08
0.000672211
0.0021729
0.00217155
0.00112935
4.15007e-05
2.21024e-07
2.389e-07
5.47205e-08
2.34782e-07
2.16333e-08
1.42738e-08
2.95072e-08
6.78249e-08
3.80624e-08
2.13323e-08
8.8937e-08
9.98532e-08
3.75157e-13
2.68938e-13
0.000180224
0.000455996
0.000882181
0.00207321
0.00208247
0.00170171
0.000427453
1.89638e-06
7.59211e-06
9.98944e-06
8.50055e-06
1.60571e-06
7.38418e-07
9.04833e-09
3.22353e-09
2.32437e-09
9.53898e-08
1.11235e-07
5.04735e-08
2.35138e-08
6.04483e-08
4.40911e-08
5.23603e-09
-3.71865e-10
-3.16337e-26
-9.94595e-12
-9.99401e-11
6.10018e-13
5.4341e-13
6.11796e-12
4.16664e-07
7.52194e-06
9.51749e-06
1.12948e-05
1.11372e-05
4.38156e-06
2.19419e-09
2.10175e-09
1.96688e-09
6.9637e-08
1.12602e-07
1.14118e-07
3.01121e-08
7.0321e-09
7.02081e-09
4.87211e-09
5.64669e-08
1.10856e-07
1.60824e-07
2.07185e-07
5.03659e-07
9.33503e-07
8.77368e-07
6.495e-07
9.35462e-07
5.28856e-06
1.1298e-05
1.04465e-05
5.64306e-06
2.17449e-09
2.09846e-09
1.96857e-09
1.06903e-08
9.82501e-08
1.43948e-07
8.26004e-08
1.84313e-08
1.09384e-08
1.39151e-08
1.58076e-08
1.14568e-07
3.16881e-07
3.70857e-07
1.35495e-06
1.6091e-06
1.21013e-06
5.87137e-07
1.91533e-06
5.04603e-06
9.66674e-07
1.69095e-08
1.08027e-08
2.18507e-09
2.10084e-09
2.39137e-09
2.94025e-08
1.21762e-07
1.43989e-07
1.44042e-07
8.13642e-08
7.22179e-08
8.88467e-08
9.94006e-08
2.94899e-07
4.46791e-07
4.7996e-07
8.82711e-07
1.16058e-06
2.55415e-10
4.15633e-07
3.74129e-10
4.38154e-07
7.0844e-09
2.40904e-08
4.86551e-08
3.70858e-09
5.33719e-09
5.59405e-09
3.23688e-08
1.37639e-07
1.4156e-07
1.05412e-07
1.06288e-07
1.01757e-07
5.98883e-08
1.61688e-07
3.04439e-07
3.16948e-07
7.95364e-08
2.47831e-10
2.50144e-10
2.53028e-10
2.55416e-10
3.69139e-10
3.68784e-10
1.99763e-09
1.78497e-09
1.53259e-09
6.67253e-09
1.31624e-08
7.31007e-09
2.56243e-08
5.14876e-08
4.40842e-08
2.26769e-09
7.04419e-10
3.63602e-09
1.46929e-08
4.69099e-08
4.9414e-08
1.35601e-10
1.35793e-10
2.45476e-10
2.53933e-10
3.50917e-10
3.23794e-10
4.72468e-10
4.52789e-10
4.34109e-10
4.6703e-10
8.1091e-10
7.6456e-09
1.58039e-08
7.30455e-09
8.31626e-10
8.22568e-10
1.01855e-09
8.15289e-10
5.22075e-10
2.80904e-10
1.21743e-10
1.20288e-10
1.18838e-10
1.35398e-10
2.54665e-10
3.27417e-10
3.17812e-10
3.29886e-10
3.27662e-10
3.39765e-10
3.20551e-10
2.72904e-10
3.78817e-10
7.47878e-10
1.03471e-08
1.78616e-08
8.83312e-09
2.19048e-09
1.89006e-09
1.93674e-09
1.54389e-09
8.82419e-10
4.79951e-10
2.61407e-10
1.44228e-10
1.17422e-10
1.71504e-10
1.87847e-10
1.68144e-10
1.33166e-10
9.95123e-11
9.54585e-11
8.48113e-11
8.8412e-11
1.17027e-10
1.54596e-10
2.72955e-10
1.09894e-08
2.47532e-08
1.25006e-08
3.38978e-09
2.04389e-09
2.04489e-09
1.44101e-09
5.0584e-10
2.05825e-10
1.11294e-10
4.7399e-11
2.70717e-11
2.67669e-11
3.271e-11
3.19447e-11
2.881e-11
2.55811e-11
2.3603e-11
2.51491e-11
2.59399e-11
2.7047e-11
5.24339e-11
6.68899e-11
8.79105e-09
2.47726e-08
1.85079e-08
3.5235e-09
1.08021e-09
1.2693e-09
4.48349e-10
1.30667e-10
5.8218e-11
2.88397e-11
1.48363e-11
7.99593e-12
5.61989e-12
5.16141e-12
4.62108e-12
4.29027e-12
4.21532e-12
4.23578e-12
4.05757e-12
4.17238e-12
5.07907e-12
6.85106e-12
1.3401e-11
6.18377e-09
2.3903e-08
2.14986e-08
3.55703e-09
2.03169e-10
3.39112e-10
2.29387e-10
8.1784e-11
3.60591e-11
1.71054e-11
7.92752e-12
3.50831e-12
1.76852e-12
1.1012e-12
7.82135e-13
6.12025e-13
5.17942e-13
4.83241e-13
4.60838e-13
4.7632e-13
6.05694e-13
1.33659e-12
1.89112e-12
4.84281e-09
1.62571e-08
2.15818e-08
3.75698e-09
1.97604e-10
1.9476e-10
1.80421e-10
7.57715e-11
3.13872e-11
1.344e-11
5.71289e-12
1.91598e-12
7.4252e-13
3.25246e-13
1.51833e-13
8.1581e-14
4.97976e-14
3.83602e-14
3.33703e-14
3.84002e-14
5.98717e-14
1.17439e-13
2.93487e-13
3.06286e-09
7.82419e-09
9.35919e-09
4.4027e-09
4.78969e-10
2.27889e-10
2.01494e-10
8.57071e-11
3.06237e-11
1.03294e-11
3.88522e-12
1.24557e-12
3.97353e-13
1.38733e-13
5.00979e-14
1.83061e-14
7.11568e-15
3.18839e-15
2.29255e-15
2.42034e-15
4.2241e-15
1.45445e-14
2.96144e-14
2.95825e-09
5.4901e-09
6.44443e-09
2.53453e-09
5.98647e-10
4.45098e-10
2.92643e-10
1.06366e-10
3.04761e-11
8.74554e-12
2.77112e-12
9.47722e-13
2.96925e-13
9.75431e-14
3.24712e-14
1.03623e-14
3.03101e-15
8.07835e-16
2.34893e-16
1.40209e-16
2.56692e-16
6.78672e-16
2.879e-15
2.78983e-09
5.17716e-09
5.52309e-09
2.33517e-09
8.46772e-10
5.95533e-10
3.77283e-10
1.08073e-10
2.92584e-11
7.55021e-12
2.27932e-12
7.78054e-13
2.51941e-13
8.44579e-14
2.78592e-14
8.46249e-15
2.30527e-15
5.69615e-16
1.13334e-16
2.29743e-17
1.58333e-17
6.94456e-17
2.24088e-16
2.2485e-09
5.23791e-09
5.64929e-09
2.69433e-09
9.82177e-10
7.20458e-10
3.67878e-10
9.37128e-11
2.22207e-11
6.2623e-12
1.96329e-12
6.27337e-13
2.06226e-13
6.90053e-14
2.21145e-14
6.47179e-15
1.71604e-15
4.08513e-16
7.91595e-17
1.20795e-17
2.92729e-18
4.56208e-18
3.01577e-17
1.88901e-09
4.74658e-09
5.65825e-09
2.96522e-09
1.40769e-09
6.43392e-10
2.94829e-10
6.91398e-11
1.61895e-11
5.09745e-12
1.50453e-12
4.71242e-13
1.52845e-13
4.89885e-14
1.49497e-14
4.14806e-15
1.05142e-15
2.37746e-16
4.39729e-17
6.34736e-18
1.11014e-18
1.19153e-18
5.1919e-18
1.69967e-09
3.26963e-09
4.95152e-09
2.98267e-09
1.27326e-09
6.84853e-10
1.81439e-10
5.22612e-11
1.2162e-11
3.76782e-12
1.04007e-12
3.21526e-13
9.94645e-14
2.95651e-14
8.54156e-15
2.25263e-15
5.20717e-16
1.07742e-16
1.87395e-17
2.21447e-18
3.60782e-19
1.32125e-19
8.63953e-19
1.6078e-09
2.10923e-09
3.2424e-09
2.43333e-09
1.08497e-09
4.66304e-10
1.20549e-10
3.5074e-11
1.035e-11
2.47832e-12
6.71946e-13
1.98236e-13
5.68886e-14
1.5306e-14
4.05154e-15
9.88271e-16
2.06112e-16
4.04588e-17
6.44848e-18
8.01728e-19
9.50652e-20
1.2459e-20
1.09041e-19
1.53909e-09
1.63504e-09
1.95219e-09
1.43892e-09
6.85387e-10
2.618e-10
9.79621e-11
2.67497e-11
7.5522e-12
1.73966e-12
4.19078e-13
1.10014e-13
2.88194e-14
6.92841e-15
1.61353e-15
3.54356e-16
6.7096e-17
1.15872e-17
1.76643e-18
2.01597e-19
2.317e-20
2.29038e-21
1.03435e-20
1.55094e-09
1.17345e-09
1.24292e-09
8.75337e-10
4.99046e-10
2.17721e-10
8.10319e-11
2.07241e-11
5.73797e-12
1.36195e-12
2.66077e-13
5.51341e-14
1.27166e-14
2.77275e-15
5.21752e-16
1.01374e-16
1.84182e-17
2.90991e-18
3.75157e-19
4.24642e-20
3.90923e-21
2.25266e-22
6.44665e-22
1.55151e-09
1.14183e-09
9.05267e-10
7.09506e-10
4.03384e-10
1.94677e-10
6.70625e-11
1.46707e-11
3.10395e-12
9.1938e-13
1.89551e-13
2.61993e-14
4.48847e-15
8.42522e-16
1.50577e-16
2.48463e-17
3.93773e-18
5.19849e-19
6.49324e-20
5.19097e-21
4.23229e-22
4.08895e-23
4.81506e-23
1.42751e-09
1.3128e-09
8.28924e-10
5.38967e-10
3.17406e-10
1.66867e-10
5.01446e-11
7.96753e-12
1.46918e-12
5.21925e-13
1.16024e-13
1.5983e-14
1.55554e-15
2.30888e-16
3.37406e-17
4.76015e-18
6.51022e-19
7.3129e-20
7.75203e-21
8.38425e-22
6.79191e-23
3.16657e-24
2.44804e-24
1.15622e-09
1.8512e-09
9.28314e-10
5.05333e-10
3.19341e-10
1.60365e-10
4.16171e-11
5.2751e-12
1.00282e-12
3.10316e-13
6.64503e-14
9.77469e-15
8.19927e-16
5.5145e-17
6.76426e-18
9.12867e-19
1.10413e-19
1.21923e-20
1.36056e-21
9.39628e-23
6.9775e-24
5.84076e-25
1.351e-25
4.72715e-10
1.89353e-09
1.45603e-09
7.5411e-10
4.05361e-10
1.37902e-10
2.61983e-11
4.70875e-12
1.35823e-12
2.7309e-13
4.78012e-14
6.41453e-15
5.87611e-16
3.03722e-17
1.7095e-18
1.91882e-19
2.27497e-20
2.23835e-21
2.00787e-22
1.73702e-23
1.09945e-24
6.05907e-26
1.05023e-26
4.4941e-11
1.47023e-09
1.53931e-09
1.22445e-09
5.58119e-10
1.26069e-10
2.21363e-11
5.50007e-12
1.23736e-12
2.20863e-13
3.4473e-14
4.4568e-15
4.28686e-16
2.71061e-17
9.86826e-19
4.97231e-20
4.87859e-21
4.24277e-22
3.65624e-23
2.19385e-24
1.27731e-25
6.9984e-27
1.27201e-27
7.37054e-13
4.76746e-10
1.19381e-09
9.41516e-10
3.62276e-10
5.47845e-11
7.64833e-12
1.5908e-12
3.6475e-13
7.84829e-14
1.41747e-14
2.00133e-15
2.09916e-16
1.56578e-17
7.85517e-19
2.4613e-20
1.17053e-21
8.21345e-23
5.7398e-24
3.49596e-25
1.70596e-26
7.39992e-28
2.04549e-28
8.00276e-14
5.82856e-11
3.67759e-10
2.23094e-10
6.51933e-11
8.70705e-12
1.33901e-12
3.34901e-13
8.82906e-14
1.98228e-14
3.73521e-15
5.72151e-16
6.38795e-17
5.4274e-18
3.5231e-19
1.75556e-20
6.21519e-22
2.31949e-23
1.23437e-24
6.17157e-26
2.54688e-27
9.41153e-29
3.36248e-29
1.4277e-14
4.44371e-12
3.04955e-11
1.73033e-11
4.57448e-12
9.07039e-13
2.40142e-13
6.34267e-14
1.43333e-14
2.77989e-15
4.49727e-16
6.09048e-17
6.95203e-18
7.00965e-19
6.25255e-20
4.96153e-21
3.39146e-22
1.71846e-23
4.4507e-25
1.66713e-26
4.87496e-28
1.47712e-29
3.81216e-30
2.01648e-15
1.31451e-13
9.73432e-13
5.76846e-13
2.05938e-13
6.74339e-14
1.92554e-14
4.69512e-15
9.59818e-16
1.68857e-16
2.55469e-17
3.40771e-18
4.21135e-19
5.06836e-20
5.8462e-21
6.78169e-22
7.34604e-23
6.63272e-24
4.47283e-25
1.85727e-26
2.65151e-28
4.74815e-30
2.91581e-31
2.51438e-16
1.34749e-14
4.97564e-14
2.74788e-14
1.07256e-14
2.98198e-15
6.83206e-16
1.3378e-16
2.28405e-17
3.38555e-18
4.60653e-19
6.06422e-20
8.3453e-21
1.21002e-21
1.97494e-22
3.02296e-23
4.17721e-24
5.26082e-25
5.72272e-26
5.04384e-27
3.26046e-28
1.27894e-29
1.48324e-31
0.281549
0.0236054
1.22983e-08
3.97639e-09
0.0079314
0.00614614
0.000902304
1.59152e-09
2.85656e-13
8.21276e-22
1.46261e-07
2.55316e-07
7.17432e-07
4.65568e-11
9.26485e-05
0.00161251
0.000874606
-1.13331e-20
0.0020681
0.00887424
0.00246455
0.00126044
0.00370536
0.00802082
0.000461769
0.000137472
3.17548e-06
1.05552e-09
1.31373e-16
1.81354e-25
-2.353e-13
1.071e-06
3.92874e-09
4.38296e-13
-6.78095e-12
5.20903e-06
1.20307e-07
5.3056e-08
-4.78933e-24
9.40737e-06
2.38567e-07
4.15495e-07
1.56858e-06
1.46893e-05
2.16755e-07
2.93874e-06
7.56606e-06
1.50251e-05
1.78508e-06
2.79791e-07
8.72327e-09
6.20701e-09
1.09601e-08
1.77274e-07
3.1405e-07
2.57698e-07
2.34103e-08
7.84941e-10
7.88815e-10
5.33353e-10
1.16519e-09
1.19434e-09
1.16138e-09
1.18342e-09
1.36933e-09
1.81212e-09
2.20589e-09
2.3161e-09
1.08655e-09
1.16326e-09
1.28424e-09
1.58484e-09
3.24859e-10
3.84774e-10
4.10119e-10
4.46401e-10
7.77682e-11
6.72825e-11
5.8202e-11
5.71375e-11
1.53582e-11
1.36021e-11
1.1617e-11
1.0603e-11
2.4351e-12
2.32201e-12
1.92821e-12
1.92158e-12
3.61225e-13
3.60528e-13
3.30625e-13
3.19969e-13
4.7851e-14
5.49605e-14
5.75706e-14
6.38448e-14
5.08757e-15
6.79863e-15
1.01862e-14
1.30652e-14
5.72446e-16
1.16715e-15
1.77715e-15
2.95707e-15
9.03775e-17
1.75999e-16
4.21064e-16
6.8202e-16
1.82468e-17
4.10833e-17
8.24088e-17
1.63917e-16
3.13893e-18
6.42956e-18
1.76976e-17
3.05299e-17
4.29052e-19
1.09139e-18
2.2986e-18
4.96739e-18
5.85404e-20
1.20808e-19
2.93803e-19
5.64206e-19
3.83265e-21
1.10542e-20
2.49398e-20
7.91982e-20
2.95232e-22
8.35662e-22
2.48176e-21
5.65406e-21
1.50686e-23
5.06604e-23
1.45765e-22
7.62015e-22
7.96949e-25
3.15636e-24
1.43814e-23
5.69933e-23
5.54717e-26
2.26043e-25
9.21249e-25
5.79958e-24
8.07001e-27
3.66079e-26
1.57289e-25
7.07745e-25
1.79415e-27
7.76324e-27
3.18872e-26
1.30892e-25
3.61372e-28
1.82538e-27
8.52842e-27
3.4782e-26
5.73257e-29
3.55153e-28
1.88044e-27
8.53343e-27
5.72266e-30
4.74765e-29
3.25949e-28
1.72913e-27
1.42797e-31
2.64207e-30
3.10184e-29
2.43965e-28
7.26267e-11
4.39454e-11
2.19592e-07
0.000131002
0.000358613
0.000356344
2.97492e-05
1.79493e-06
0.0134705
0.010925
0.00483654
0.00358049
0.0035672
0.00770521
0.022683
0.0213126
0.00407403
0.00278989
0.00278873
2.6563e-10
6.9028e-10
6.46062e-21
1.15202e-06
8.59887e-07
4.43149e-07
4.43117e-07
4.43124e-07
0.0042521
0.0159218
0.0165952
0.010173
0.00357153
0.00491808
0.0102457
0.0171978
0.0050027
0.00621056
0.005628
2.60771e-08
1.89358e-07
-7.86881e-19
0.000185508
0.000113036
1.23413e-06
4.43123e-07
4.43114e-07
4.43459e-07
0.00327816
0.0301746
0.0269008
0.00884513
0.00458691
0.00702034
0.00531405
0.0027021
0.00577639
0.0137605
0.00156879
0.000443824
1.83982e-21
0.000634171
0.00745026
0.00895016
0.00594656
0.00076766
0.000163125
0.00259722
0.0309764
0.0327505
0.0179524
0.00752418
0.00339768
0.0027021
0.002718
0.00524089
0.013315
0.00888305
0.00383198
0.000535655
1.69589e-06
0.0117819
0.0203422
0.0205778
0.00563035
0.00480248
0.0284898
0.0327505
0.0327589
0.0200626
0.00395481
0.00344989
0.00508028
0.0121141
0.00671841
0.0152952
0.00879864
0.00428286
2.49459e-05
1.82088e-06
1.05301e-07
0.00886505
0.0266515
0.0274161
0.0235161
0.0200802
0.0257352
0.0236997
0.0101397
0.00388734
0.00457709
0.0153118
0.0170728
0.0183579
0.0182764
3.67665e-10
3.66957e-10
4.25488e-09
5.44071e-05
0.000619275
0.000451077
0.000585429
0.0014964
0.0020573
0.001467
0.00314744
0.0159229
0.0163848
0.0159302
0.017038
0.0172264
0.017193
0.0170478
0.0178619
8.43114e-07
3.66816e-10
3.1436e-05
8.30155e-05
8.38262e-05
1.1491e-05
-2.44313e-22
1.04468e-21
-3.05299e-07
0.000713758
0.00629879
0.013678
0.0157242
0.0151195
0.0144823
0.0172488
0.0172495
0.0172492
0.0172638
1.32393e-05
2.74906e-06
1.44237e-06
3.4196e-05
0.000145734
0.000154698
6.3328e-05
-4.86123e-22
0.0001399
0.00110869
0.00115973
0.000362142
0.000544381
0.00102156
0.00108013
0.00415204
0.0166396
0.0172587
0.0172591
1.60361e-05
1.05567e-05
3.57713e-06
3.61189e-06
2.14693e-05
0.00010528
6.87467e-05
2.06239e-08
0.000291068
0.00042255
7.09186e-05
1.67648e-11
9.00507e-12
1.67648e-11
3.50962e-09
1.62802e-06
0.00425937
0.0172592
0.0172587
1.61185e-05
1.35994e-05
2.3166e-06
1.09276e-08
6.68395e-06
6.26351e-05
4.3053e-05
1.33321e-05
0.000191544
3.14437e-05
3.20092e-11
1.09929e-10
1.90462e-10
2.0364e-10
2.09908e-10
8.35869e-09
3.13979e-06
0.00958325
0.0172592
1.02452e-05
1.03628e-06
8.08713e-09
1.07336e-08
5.49162e-06
6.65281e-06
3.12391e-05
7.82094e-05
3.41121e-05
2.46749e-16
3.25212e-11
2.41457e-10
5.45055e-10
9.79746e-10
3.69854e-09
2.23375e-08
5.87878e-08
0.000154146
0.00639563
3.90313e-09
9.62868e-07
7.73511e-09
8.23304e-09
2.13256e-06
1.98265e-05
4.54363e-05
8.75991e-05
2.73195e-07
3.50294e-16
4.60879e-11
2.18047e-10
6.06374e-10
1.65122e-09
2.90806e-09
1.7775e-08
6.66066e-08
3.91776e-07
1.01489e-06
1.91751e-09
6.75671e-09
6.92624e-09
2.4777e-06
1.53908e-05
2.56714e-05
2.61642e-05
3.05205e-05
6.63124e-07
2.70377e-16
7.26462e-11
1.96791e-10
4.34447e-10
1.43284e-09
3.10308e-09
6.13966e-09
2.96392e-08
8.76759e-08
1.97354e-07
5.36885e-10
5.33353e-10
3.00805e-07
1.05589e-05
1.44511e-05
1.38837e-05
7.72109e-06
4.0304e-06
1.60531e-06
3.55841e-16
6.75937e-11
2.86702e-10
2.55306e-10
5.4375e-10
2.03209e-09
4.76876e-09
7.05819e-09
4.96915e-09
5.13204e-09
8.76118e-10
5.70183e-10
3.20156e-07
2.51373e-06
3.52909e-06
1.87461e-06
1.69934e-06
1.4077e-07
5.59398e-07
6.14783e-09
6.4327e-11
5.77873e-10
2.01127e-10
1.51681e-10
3.9124e-10
1.94128e-09
3.59684e-09
4.89428e-09
7.41499e-09
3.3787e-09
4.21799e-09
4.29403e-09
1.06601e-09
2.21071e-07
6.74995e-07
1.95647e-10
1.957e-10
1.95757e-10
6.68575e-09
4.83149e-10
6.88234e-10
2.24385e-10
1.01576e-10
9.09365e-11
2.69056e-10
1.16865e-09
4.12518e-09
8.18023e-09
1.85467e-09
2.06287e-09
1.73247e-09
6.62521e-10
1.957e-10
1.95647e-10
1.95649e-10
1.95647e-10
1.957e-10
4.92615e-10
5.98034e-10
5.84722e-10
1.94789e-10
8.18828e-11
5.43127e-11
1.50103e-10
7.98297e-10
3.47307e-09
8.06881e-09
5.39829e-10
7.39885e-10
8.721e-10
7.99619e-10
3.04134e-10
1.95658e-10
1.96105e-10
2.12156e-10
2.11143e-10
2.60103e-10
3.86843e-10
2.37184e-10
1.20316e-10
5.6722e-11
3.62822e-11
8.70722e-11
6.65979e-10
3.57622e-09
7.21038e-09
6.4568e-11
1.16636e-10
2.23046e-10
3.22644e-10
2.5853e-10
1.96227e-10
1.95509e-10
1.8889e-10
1.7292e-10
1.60207e-10
1.16103e-10
4.69242e-11
4.32066e-11
2.61171e-11
1.94058e-11
5.33145e-11
6.62241e-10
3.74529e-09
6.82496e-09
1.06811e-11
1.73098e-11
4.24797e-11
9.2196e-11
1.34042e-10
1.36053e-10
1.30804e-10
8.62756e-11
6.9583e-11
6.03781e-11
1.91133e-11
1.61424e-11
1.93614e-11
9.53748e-12
1.16786e-11
5.88309e-11
6.69446e-10
3.92815e-09
6.4079e-09
2.13978e-12
3.45965e-12
7.49977e-12
3.05742e-11
5.56708e-11
6.13414e-11
4.48187e-11
2.1345e-11
1.07929e-11
8.41116e-12
3.55354e-12
3.86094e-12
5.43304e-12
5.48392e-12
1.22316e-11
8.90634e-11
7.47936e-10
4.64272e-09
5.18602e-09
3.89644e-13
8.08327e-13
2.37665e-12
6.94853e-12
1.70461e-11
2.02885e-11
1.58391e-11
4.93214e-12
2.35965e-12
2.09964e-12
1.5431e-12
1.7709e-12
2.60047e-12
2.92418e-12
8.62685e-12
5.99295e-11
8.89385e-10
5.32222e-09
4.9019e-09
8.1952e-14
1.84971e-13
5.40885e-13
1.63155e-12
3.86535e-12
5.46104e-12
4.8038e-12
2.06998e-12
1.22283e-12
1.15575e-12
9.43198e-13
9.28105e-13
1.23689e-12
1.62597e-12
4.06571e-12
3.47869e-11
9.18411e-10
5.32369e-09
4.47407e-09
1.89894e-14
4.41453e-14
1.23419e-13
3.46725e-13
8.19307e-13
1.31208e-12
1.34908e-12
7.54934e-13
5.37074e-13
5.3981e-13
4.96004e-13
5.05114e-13
6.34285e-13
9.04323e-13
2.36682e-12
1.71326e-11
8.72217e-10
5.10857e-09
3.13193e-09
4.65818e-15
1.12444e-14
2.9462e-14
7.61641e-14
1.72561e-13
2.89438e-13
3.4628e-13
2.56407e-13
2.18284e-13
2.31471e-13
2.39759e-13
2.83782e-13
4.10749e-13
7.57958e-13
2.78636e-12
2.15059e-11
8.39575e-10
4.71839e-09
1.99074e-09
1.15982e-15
2.82157e-15
7.17279e-15
1.72064e-14
3.76886e-14
6.61103e-14
8.62335e-14
8.20147e-14
8.09319e-14
9.44507e-14
1.15781e-13
1.96547e-13
5.03257e-13
1.57882e-12
8.74078e-12
6.81758e-11
1.01574e-09
3.50623e-09
1.7593e-09
2.75083e-16
6.82485e-16
1.70314e-15
3.88111e-15
8.20698e-15
1.47619e-14
2.09024e-14
2.35372e-14
2.58589e-14
3.46188e-14
8.41658e-14
2.47038e-13
7.88267e-13
3.82265e-12
2.29758e-11
2.0854e-10
1.53555e-09
3.14884e-09
1.44196e-09
5.58662e-17
1.45638e-16
3.80861e-16
8.40238e-16
1.72609e-15
3.09411e-15
4.5123e-15
5.85882e-15
1.21226e-14
4.14864e-14
1.42609e-13
4.3111e-13
1.35217e-12
4.6052e-12
4.36719e-11
3.37808e-10
1.80924e-09
2.71765e-09
1.16682e-09
9.28536e-18
2.91622e-17
7.33366e-17
1.67707e-16
3.50656e-16
6.90077e-16
1.58471e-15
5.33562e-15
2.20469e-14
8.79349e-14
3.19791e-13
9.61673e-13
3.30375e-12
1.12305e-11
7.38236e-11
4.78572e-10
1.63689e-09
2.11862e-09
5.91575e-10
1.42095e-18
4.64897e-18
1.34611e-17
3.46253e-17
1.01496e-16
3.45055e-16
1.52745e-15
7.74437e-15
3.65254e-14
1.58534e-13
5.97935e-13
2.31321e-12
7.99044e-12
2.5464e-11
1.28031e-10
5.36877e-10
1.24703e-09
1.15167e-09
4.08919e-10
1.69861e-19
7.17698e-19
2.46949e-18
9.88273e-18
4.25442e-17
2.15089e-16
1.19829e-15
6.81512e-15
3.35163e-14
1.55649e-13
6.74715e-13
2.64062e-12
9.87652e-12
3.31703e-11
1.1994e-10
5.01995e-10
9.5354e-10
8.74586e-10
2.15354e-10
2.14694e-20
1.10081e-19
5.42576e-19
2.85583e-18
1.64963e-17
1.02051e-16
6.45335e-16
3.81807e-15
2.0286e-14
1.01298e-13
4.69378e-13
1.99136e-12
7.45008e-12
2.61002e-11
8.47322e-11
3.10861e-10
6.71663e-10
5.09778e-10
1.36201e-10
2.62537e-21
1.70137e-20
1.11078e-19
7.45506e-19
5.11382e-18
3.46207e-17
2.33487e-16
1.47068e-15
8.42795e-15
4.54271e-14
2.27323e-13
1.03717e-12
4.1957e-12
1.45855e-11
4.55323e-11
1.26717e-10
2.32355e-10
2.94996e-10
7.54233e-11
2.64951e-22
2.45508e-21
2.01924e-20
1.59514e-19
1.19963e-18
8.82846e-18
6.22179e-17
4.05361e-16
2.47202e-15
1.42278e-14
7.65556e-14
3.78187e-13
1.66309e-12
6.08383e-12
1.91345e-11
5.06858e-11
9.14383e-11
1.01776e-10
5.00638e-11
3.11274e-23
3.15403e-22
2.98261e-21
2.56486e-20
2.07578e-19
1.62998e-18
1.20204e-17
8.11022e-17
5.20782e-16
3.15061e-15
1.7983e-14
9.61658e-14
4.78396e-13
2.1084e-12
6.43873e-12
1.76172e-11
2.84583e-11
5.31335e-11
2.37095e-11
3.41041e-24
3.82129e-23
3.7283e-22
3.39355e-21
2.91742e-20
2.35051e-19
1.80447e-18
1.2579e-17
8.35395e-17
5.27429e-16
3.17045e-15
1.80528e-14
1.01649e-13
5.98615e-13
2.03178e-12
5.33763e-12
1.12182e-11
1.76451e-11
1.22833e-11
6.03328e-25
5.21346e-24
4.53555e-23
3.97496e-22
3.46683e-21
2.82108e-20
2.24706e-19
1.63473e-18
1.13129e-17
7.41252e-17
4.64538e-16
2.74301e-15
1.60222e-14
1.4829e-13
5.13755e-13
1.54863e-12
3.18715e-12
6.64171e-12
3.98186e-12
1.34218e-25
1.01605e-24
6.86343e-24
4.77956e-23
3.69773e-22
2.97791e-21
2.43559e-20
1.87568e-19
1.38586e-18
9.55961e-18
6.26266e-17
3.82215e-16
2.1181e-15
3.23329e-14
1.32427e-13
3.9456e-13
9.12965e-13
1.3547e-12
1.43085e-12
3.34275e-26
2.27131e-25
1.2838e-24
6.93628e-24
3.95512e-23
2.89647e-22
2.31807e-21
1.88737e-20
1.51268e-19
1.13211e-18
8.02151e-18
5.16318e-17
2.99449e-16
6.31737e-15
2.64793e-14
8.18356e-14
1.60018e-13
3.27581e-13
4.94187e-13
7.52006e-27
5.30924e-26
2.98185e-25
1.46109e-24
6.58805e-24
3.21077e-23
2.03251e-22
1.58224e-21
1.4417e-20
1.2079e-19
8.32387e-19
5.69679e-18
3.40728e-17
9.35115e-16
5.19576e-15
1.50229e-14
3.00419e-14
8.34926e-14
1.61382e-13
1.38484e-27
1.09724e-26
6.70207e-26
3.27157e-25
1.39503e-24
5.66829e-24
2.54662e-23
1.49576e-22
1.15834e-21
1.03e-20
9.93565e-20
7.44716e-19
4.81259e-18
1.57327e-16
9.25112e-16
2.96366e-15
5.92091e-15
1.5754e-14
1.91493e-14
)
;

boundaryField
{
    leftWall
    {
        type            zeroGradient;
    }
    rightWall
    {
        type            zeroGradient;
    }
    lowerWall
    {
        type            zeroGradient;
    }
    atmosphere
    {
        type            inletOutlet;
        inletValue      uniform 0;
        value           nonuniform List<scalar> 
46
(
0
0
0
0
0
0
0
0
0
0
0
0
0
0
0
0
0
0
0
0
0
0
0
0
2.64207e-30
3.10184e-29
2.43965e-28
1.38484e-27
1.09724e-26
6.70207e-26
3.27157e-25
1.39503e-24
5.66829e-24
2.54662e-23
1.49576e-22
1.15834e-21
1.03e-20
9.93565e-20
7.44716e-19
4.81259e-18
1.57327e-16
9.25112e-16
2.96366e-15
5.92091e-15
1.5754e-14
1.91493e-14
)
;
    }
    defaultFaces
    {
        type            empty;
    }
}


// ************************************************************************* //
