/*--------------------------------*- C++ -*----------------------------------*\
| =========                 |                                                 |
| \\      /  F ield         | OpenFOAM: The Open Source CFD Toolbox           |
|  \\    /   O peration     | Version:  2312                                  |
|   \\  /    A nd           | Website:  www.openfoam.com                      |
|    \\/     M anipulation  |                                                 |
\*---------------------------------------------------------------------------*/
FoamFile
{
    version     2.0;
    format      ascii;
    arch        "LSB;label=32;scalar=64";
    class       volScalarField;
    location    "1.5";
    object      alpha.water;
}
// * * * * * * * * * * * * * * * * * * * * * * * * * * * * * * * * * * * * * //

dimensions      [0 0 0 0 0 0 0];

internalField   nonuniform List<scalar> 
2268
(
4.18947e-10
1.58464e-10
6.20132e-11
3.80989e-11
3.05143e-11
2.77186e-11
2.7201e-11
2.68282e-11
2.64988e-11
2.57438e-11
2.50344e-11
2.49833e-11
2.50769e-11
2.57964e-11
2.77402e-11
3.23323e-11
4.03376e-11
5.50542e-11
8.61356e-11
1.42621e-10
2.35679e-10
2.87365e-10
3.80552e-10
1.15996e-09
5.38891e-10
2.05436e-10
1.10543e-10
7.39159e-11
5.76865e-11
4.88455e-11
4.61584e-11
4.45087e-11
4.67302e-11
4.46409e-11
4.44406e-11
4.43618e-11
4.57207e-11
4.93997e-11
5.57702e-11
7.27186e-11
1.03587e-10
2.03618e-10
2.98794e-10
9.77912e-10
2.54014e-09
2.20801e-09
1.1721e-09
1.03954e-09
5.60298e-10
3.0342e-10
1.58785e-10
1.52693e-10
8.97836e-11
8.12989e-11
7.93542e-11
9.81183e-11
6.26572e-11
5.42658e-11
4.9828e-11
4.9979e-11
5.66442e-11
6.49095e-11
8.60746e-11
1.38012e-10
2.43617e-10
5.17441e-10
1.31597e-09
2.79151e-09
2.82478e-09
1.12707e-09
1.13168e-09
4.64091e-10
1.72766e-10
6.01898e-11
5.95409e-11
3.43769e-11
3.4272e-11
3.42726e-11
3.41702e-11
3.41707e-11
3.40686e-11
3.40691e-11
3.46907e-11
8.18976e-11
6.30149e-11
6.08146e-11
6.86133e-11
1.14953e-10
2.5495e-10
7.84476e-10
2.23995e-09
2.27263e-09
0.00282624
2.08594e-08
4.78819e-11
4.3232e-11
4.3162e-11
4.3232e-11
0.0109293
0.0269193
0.0297117
0.0226118
0.0116255
0.00277112
2.56569e-11
2.56952e-11
2.56457e-11
2.55933e-11
2.55203e-11
2.54472e-11
2.97489e-11
7.5124e-11
2.91476e-10
8.70331e-10
1.20707e-09
0.289685
0.24843
0.195587
0.224302
0.309931
0.461901
0.604832
0.672823
0.683001
0.653326
0.592621
0.503253
0.381299
0.258627
0.142694
0.0527837
0.00554053
1.55432e-11
1.53773e-11
1.76078e-11
6.35657e-11
1.39046e-10
2.15146e-10
0.453946
0.595884
0.80934
0.881451
0.942485
0.990397
0.997477
0.997479
0.997522
0.997622
0.997641
0.998483
0.999106
0.965929
0.886543
0.756359
0.544331
0.27293
0.0545468
2.93423e-19
1.25947e-22
2.27153e-12
5.60913e-12
4.83183e-08
4.8324e-08
0.141184
0.742058
0.958227
0.982454
0.972016
0.975461
0.994668
0.997938
0.997998
0.999296
0.999299
0.9993
0.999315
0.999323
0.999258
0.964964
0.806486
0.45487
0.117137
3.59434e-16
2.26354e-16
0.0160784
0.134117
0.156022
0.123711
0.0683463
0.0485046
0.0361069
0.029892
0.0299538
0.043248
0.0428405
0.0432834
0.0432832
0.0418781
0.0364513
0.0301916
0.0287522
0.0225705
0.0163066
0.0127036
0.0407293
0.109429
0.20185
0.221733
0.380204
0.470618
0.273199
0.00987804
0.0098901
0.0214144
0.0428596
0.0307075
0.0128628
0.0136171
0.0151726
0.0163844
0.0219701
0.0172699
0.0126952
0.017645
0.253704
0.112953
0.0933367
0.17499
0.445311
0.543753
0.542971
0.331074
0.0232382
0.00789208
0.00789294
0.00962831
0.102407
0.330222
0.468773
0.490368
0.365672
0.0126844
0.0126683
0.490311
0.146936
0.133339
0.0932783
0.0928219
0.238588
0.46933
0.469296
0.137017
0.0078924
0.0191456
0.228071
0.36885
0.580244
0.832837
0.88461
0.624382
0.0638157
0.012668
0.531888
0.4768
0.458752
0.41776
0.233314
0.147396
0.250659
0.377934
0.135432
0.00789271
0.153528
0.518969
0.750433
0.879757
0.890456
0.890159
0.710745
0.225735
0.46601
0.637221
0.69622
0.717922
0.718334
0.693419
0.344302
0.266596
0.201085
0.0469541
0.00789295
0.159622
0.663981
0.885018
0.884971
0.885265
0.885915
0.829807
0.228615
0.563409
0.626413
0.575499
0.575432
0.689863
0.759383
0.717162
0.401595
0.179432
0.0705381
0.0646129
0.158121
0.497351
0.741185
0.806216
0.874338
0.803931
0.727805
0.560916
0.700094
0.757188
0.72344
0.629085
0.64559
0.755394
0.81379
0.600865
0.232254
0.128004
0.145434
0.273677
0.679007
0.440708
0.352543
0.453457
0.510186
0.328407
2.98339e-07
4.83183e-08
4.83239e-08
0.0269575
0.159636
0.306379
0.414039
0.707449
0.915983
0.994444
0.997526
0.998708
0.996069
0.999324
0.999324
0.999323
0.998853
0.999869
0.999966
0.991532
0.923336
0.780447
0.494666
7.51554e-07
6.05568e-07
4.83183e-08
0.00149984
0.00587683
0.000123279
0.000624375
0.030999
0.0522639
0.215577
0.787575
0.977932
0.94019
0.950983
0.905194
0.847696
0.999282
1
1
1
1
0.999999
0.999174
6.07491e-07
2.84237e-06
1.94991e-05
1.55772e-05
1.56177e-05
0.000121358
0.000366541
0.000118714
2.53132e-05
2.46399e-05
0.0314741
0.391137
0.870555
0.809202
0.498775
0.595102
0.992238
1
1
1
1
0.999997
0.999997
5.04665e-07
5.7146e-06
8.41587e-05
0.000104727
7.45897e-05
1.72103e-05
6.94104e-07
0.000389846
0.000431352
0.000159937
2.47632e-05
2.48831e-05
0.545846
0.697627
0.248154
0.441936
0.975075
0.998682
0.992444
0.992199
0.994627
0.99802
0.999652
5.05893e-07
5.61939e-06
8.5648e-06
1.3146e-05
1.38245e-07
1.38242e-07
1.03411e-06
0.00106239
0.00127741
0.000952433
4.51287e-05
2.47612e-05
0.223109
0.377793
0.0969489
0.289623
0.74068
0.677298
0.50884
0.551204
0.705946
0.847471
0.915299
2.36212e-06
6.25646e-06
1.6789e-06
1.38248e-07
1.3824e-07
1.722e-07
4.93133e-05
0.000724122
0.00127614
0.000683999
2.50012e-05
2.48981e-05
0.0534782
0.0784801
0.014276
0.125245
0.244989
0.129175
0.000907618
0.000813091
0.025905
0.12746
0.235082
5.87959e-06
1.66044e-05
7.72568e-06
1.38277e-07
1.3824e-07
3.7825e-06
3.64079e-05
4.57309e-05
0.000467192
0.000738999
2.49355e-05
0.0198098
0.0690682
0.0576603
0.00140354
0.0393135
0.0716217
0.0433633
0.0037068
0.00119358
0.000121051
-6.26142e-21
2.82883e-15
3.16044e-05
4.23137e-05
3.54347e-05
1.13711e-05
1.18189e-05
1.76236e-05
1.50819e-05
1.43313e-05
1.42403e-05
0.00263604
0.0136639
0.0331301
0.0418968
0.00760059
0.00116016
0.0328685
0.0576302
0.0799675
0.0297331
0.00326013
0.000866275
8.45835e-17
7.79095e-07
3.85444e-05
4.23413e-05
3.64712e-05
2.65312e-05
2.90145e-05
3.19393e-05
3.19119e-05
1.89552e-05
1.44165e-05
0.000378291
0.00967095
0.0170437
0.0112149
0.000646074
0.0116598
0.0365251
0.0801655
0.0802597
0.0301081
0.00281113
0.000332817
-3.80487e-19
9.51408e-06
2.91087e-05
2.96851e-05
1.25467e-05
8.13363e-06
1.33922e-05
2.45331e-05
2.94849e-05
2.99304e-05
1.77051e-05
8.83055e-06
2.15854e-05
0.000601349
0.00057947
0.000502457
0.000501904
0.0318945
0.0520552
0.0190691
0.000254214
1.0819e-09
1.12718e-09
1.00532e-07
9.79634e-06
4.93905e-06
2.23438e-06
5.78051e-07
2.3248e-07
9.67696e-08
5.71067e-07
4.0513e-06
1.34178e-05
7.22289e-06
8.82577e-06
3.46239e-05
3.44999e-05
0.00329131
0.00829983
0.00824309
0.000484526
1.6498e-07
1.69469e-07
1.6498e-07
4.98019e-06
4.35515e-06
2.31052e-05
2.29932e-05
1.26287e-06
1.22736e-06
1.63265e-06
1.21231e-06
3.45599e-07
2.37691e-09
2.39413e-09
2.37661e-09
2.39413e-09
6.12966e-06
3.74176e-05
9.92354e-05
2.44616e-07
2.38511e-07
2.47404e-07
2.45698e-07
2.40694e-07
9.40021e-07
1.06194e-06
9.84084e-06
1.71912e-05
1.41133e-05
3.68659e-07
1.53887e-06
3.52371e-06
3.53105e-06
3.01749e-06
5.64353e-07
5.11518e-08
4.13759e-08
1.84478e-08
7.56691e-09
1.92478e-07
5.68019e-08
6.57715e-07
5.19855e-07
4.79063e-07
5.32298e-07
4.53533e-07
7.54018e-07
9.97926e-07
1.30898e-06
4.68497e-06
7.72349e-06
3.87497e-06
1.45435e-07
2.38676e-06
3.522e-06
1.56878e-06
5.23318e-07
5.34287e-07
5.07435e-07
4.59333e-07
2.75536e-07
2.36555e-08
4.24506e-16
4.46969e-16
4.24506e-16
1.32179e-15
1.25188e-15
3.38019e-08
1.02259e-07
2.69372e-08
5.35401e-15
3.15631e-24
4.07896e-15
-8.43945e-11
6.08525e-10
5.68377e-08
1.03783e-06
4.30268e-07
1.12437e-07
7.45406e-08
2.88689e-07
4.9441e-07
4.92743e-07
4.16403e-07
8.03178e-08
1.05726e-13
1.5833e-10
2.54239e-10
2.3533e-10
1.33022e-10
1.01775e-10
1.49114e-10
1.38204e-10
6.81791e-10
5.07101e-09
3.75971e-09
1.01006e-08
2.8322e-08
5.76749e-08
1.01949e-07
6.10256e-08
2.71308e-08
7.70045e-08
4.49792e-07
4.47499e-07
2.20057e-07
8.05273e-08
1.21184e-08
1.45286e-09
1.28974e-09
1.0167e-09
9.20505e-10
6.43477e-10
4.60582e-10
5.23455e-10
1.48382e-09
6.04937e-09
7.84027e-09
7.94053e-09
7.89409e-09
4.53908e-09
2.94706e-09
1.09414e-07
4.42701e-08
2.71257e-08
1.91139e-07
2.53898e-07
8.33385e-08
2.51976e-09
2.5487e-09
2.49834e-09
2.49863e-09
1.93365e-09
1.25599e-09
9.64039e-10
6.95147e-10
5.23079e-10
4.7856e-10
5.33059e-10
8.01187e-10
2.06379e-09
4.37906e-09
6.71165e-09
4.98314e-09
3.29307e-09
1.49456e-07
6.98185e-08
2.87331e-08
3.29311e-08
7.18811e-09
7.24179e-09
4.40443e-09
3.7426e-09
3.33481e-09
2.54588e-09
1.61039e-09
8.60265e-10
6.00355e-10
4.51345e-10
3.94631e-10
3.75299e-10
4.04118e-10
4.7494e-10
9.47227e-10
1.70658e-09
2.15874e-09
2.83054e-09
2.80204e-09
8.29928e-07
1.08726e-07
1.49315e-08
5.8226e-09
7.41826e-09
7.43041e-09
5.60628e-09
3.91326e-09
2.769e-09
1.74278e-09
9.81323e-10
5.52931e-10
3.47366e-10
2.83025e-10
2.29707e-10
1.98326e-10
1.89115e-10
1.99466e-10
2.06887e-10
2.67411e-10
6.03791e-10
9.15951e-10
1.32913e-09
1.34539e-06
1.55752e-06
5.37833e-09
5.38258e-09
1.19156e-08
1.16033e-08
4.70153e-09
1.19833e-09
9.40132e-10
7.63145e-10
3.87013e-10
2.39515e-10
1.77386e-10
1.33975e-10
1.00559e-10
7.92293e-11
6.97733e-11
7.08795e-11
8.76733e-11
1.19627e-10
1.74894e-10
3.72816e-10
4.18748e-10
8.5625e-07
2.39905e-06
3.04724e-07
2.10716e-09
1.16887e-08
1.158e-08
2.53295e-09
3.23463e-10
3.79694e-10
3.18359e-10
2.10538e-10
1.32164e-10
8.81794e-11
6.13211e-11
4.13774e-11
2.87925e-11
2.22048e-11
1.94294e-11
1.97241e-11
2.48616e-11
4.15103e-11
5.99471e-11
9.49613e-11
7.24586e-07
2.39797e-06
1.23097e-06
2.80408e-10
7.83562e-09
6.49988e-09
3.2375e-10
3.23967e-10
3.18552e-10
2.28766e-10
1.56374e-10
9.6452e-11
5.7364e-11
3.45023e-11
2.07092e-11
1.24724e-11
7.73068e-12
5.23652e-12
3.92382e-12
4.08045e-12
5.82397e-12
1.26154e-11
1.60785e-11
3.6642e-07
1.64748e-06
2.25824e-06
2.74956e-10
2.69536e-10
5.07497e-10
5.31224e-10
5.65971e-10
3.73788e-10
2.26374e-10
1.4864e-10
8.80692e-11
4.97769e-11
2.7335e-11
1.46127e-11
7.6761e-12
3.93472e-12
2.04827e-12
9.65302e-13
5.94424e-13
7.18769e-13
1.25358e-12
2.6665e-12
8.68177e-08
1.54227e-06
3.04813e-06
1.48515e-07
7.72331e-15
3.3749e-10
1.1156e-09
1.03973e-09
4.37666e-10
2.69328e-10
1.6962e-10
9.5554e-11
5.07712e-11
2.67137e-11
1.35726e-11
6.67857e-12
3.14398e-12
1.3579e-12
5.86472e-13
1.59673e-13
9.43392e-14
1.69929e-13
3.15259e-13
8.62352e-08
1.19842e-06
3.05549e-06
1.42977e-06
1.41418e-14
8.955e-10
2.36071e-09
1.26918e-09
4.93137e-10
3.02824e-10
1.83134e-10
1.011e-10
5.19039e-11
2.6263e-11
1.29378e-11
6.13667e-12
2.74055e-12
1.1143e-12
4.23489e-13
1.1124e-13
2.22088e-14
1.4814e-14
3.88446e-14
3.05631e-07
9.83856e-07
3.05586e-06
2.26419e-06
9.52504e-15
1.28403e-09
5.23872e-09
1.29554e-09
5.43727e-10
3.46328e-10
1.94601e-10
1.01104e-10
5.03836e-11
2.45352e-11
1.16042e-11
5.2344e-12
2.22786e-12
8.89097e-13
3.0261e-13
9.65823e-14
1.50277e-14
3.5654e-15
4.11828e-15
7.1577e-07
5.29454e-07
1.90656e-06
1.92377e-06
2.21881e-07
1.63364e-09
7.05454e-09
1.41702e-09
6.19724e-10
3.83035e-10
1.96104e-10
9.62331e-11
4.59598e-11
2.14644e-11
9.70927e-12
4.18666e-12
1.7091e-12
6.46674e-13
2.11952e-13
6.19647e-14
1.34111e-14
1.45056e-15
6.69858e-16
7.1577e-07
7.03132e-08
2.90729e-07
3.12788e-07
1.84435e-07
9.83632e-09
6.88088e-09
1.35832e-09
7.43665e-10
3.91108e-10
1.87397e-10
8.67258e-11
3.93209e-11
1.7481e-11
7.52571e-12
3.08688e-12
1.19982e-12
4.32919e-13
1.35056e-13
3.44826e-14
8.91686e-15
9.47225e-16
1.7759e-16
7.03149e-07
6.48962e-08
2.42694e-08
2.67756e-08
9.66762e-09
6.03995e-09
1.96326e-09
1.60351e-09
8.22495e-10
3.81897e-10
1.7128e-10
7.44094e-11
3.17328e-11
1.32785e-11
5.42856e-12
2.12142e-12
7.69215e-13
2.60197e-13
7.69348e-14
1.72465e-14
4.35383e-15
6.89884e-16
6.14076e-17
6.79307e-07
6.26722e-08
2.44174e-08
1.29467e-08
6.48012e-09
4.19693e-09
1.97971e-09
1.5593e-09
8.19779e-10
3.6705e-10
1.53653e-10
6.16437e-11
2.44805e-11
9.5422e-12
3.6375e-12
1.33447e-12
4.49933e-13
1.43749e-13
4.01509e-14
8.94144e-15
1.86001e-15
2.61923e-16
4.93267e-17
6.69246e-07
6.25604e-08
1.9969e-08
4.61723e-09
3.03322e-09
2.62927e-09
2.08231e-09
1.29693e-09
7.82238e-10
3.63353e-10
1.39682e-10
5.02386e-11
1.82283e-11
6.55599e-12
2.27917e-12
7.75335e-13
2.43515e-13
7.04723e-14
1.84053e-14
3.86031e-15
8.00961e-16
8.70995e-17
1.33131e-17
6.89853e-07
6.7858e-08
3.01422e-08
4.62183e-09
5.73192e-09
4.67488e-09
1.97746e-09
1.15471e-09
7.57167e-10
3.74616e-10
1.33198e-10
4.09546e-11
1.30316e-11
4.26989e-12
1.31133e-12
4.08351e-13
1.1973e-13
3.20081e-14
7.46742e-15
1.48007e-15
2.54892e-16
2.53532e-17
4.68864e-18
9.91393e-07
4.95449e-08
4.95239e-08
3.39531e-08
3.06283e-08
1.13949e-08
2.0215e-09
1.12114e-09
7.32704e-10
3.74865e-10
1.34892e-10
3.46626e-11
8.8516e-12
2.51043e-12
7.2381e-13
2.01979e-13
5.31935e-14
1.23642e-14
2.70698e-15
4.22427e-16
6.54899e-17
8.47529e-18
7.05531e-19
1.13857e-06
1.56041e-07
3.03244e-08
2.49041e-08
2.56713e-08
9.76622e-09
1.79939e-09
1.27253e-09
7.66489e-10
3.73033e-10
1.29841e-10
3.2598e-11
6.26806e-12
1.45539e-12
3.62867e-13
8.95158e-14
2.07639e-14
4.18859e-15
7.75e-16
1.40462e-16
2.0403e-17
1.68234e-18
2.71963e-19
1.23858e-06
1.35544e-06
1.29025e-08
1.26552e-08
1.17271e-08
4.3103e-09
2.21312e-09
1.53233e-09
8.07783e-10
3.56218e-10
1.18047e-10
2.94319e-11
5.2164e-12
8.24617e-13
1.72317e-13
3.77416e-14
7.5905e-15
1.394e-15
2.54036e-16
3.2584e-17
4.18332e-18
5.3024e-19
3.78052e-20
4.52445e-07
1.39609e-06
1.30426e-06
3.45919e-07
2.03029e-09
2.03043e-09
2.2693e-09
1.60142e-09
8.28359e-10
3.15355e-10
9.90529e-11
2.43184e-11
4.45846e-12
6.03006e-13
8.59396e-14
1.54483e-14
2.87032e-15
4.65542e-16
6.8905e-17
9.78797e-18
1.08009e-18
1.00695e-19
9.14509e-21
5.52328e-08
9.03838e-07
1.09742e-06
5.69112e-07
2.85205e-09
3.07717e-09
2.42044e-09
1.38145e-09
6.32111e-10
2.32776e-10
7.17965e-11
1.75658e-11
3.35184e-12
4.87327e-13
5.38529e-14
6.66077e-15
1.04355e-15
1.47381e-16
2.0161e-17
2.09269e-18
2.05911e-19
1.77345e-20
1.24662e-21
5.51075e-08
3.14929e-08
1.84278e-07
7.25243e-08
2.54423e-08
5.87405e-09
1.7544e-09
8.12293e-10
3.58988e-10
1.35889e-10
4.11792e-11
9.89532e-12
1.91495e-12
2.99249e-13
3.71639e-14
3.55278e-15
3.82239e-16
4.49424e-17
5.05398e-18
4.94556e-19
3.98169e-20
2.65148e-21
1.66389e-22
1.34775e-08
1.27803e-08
9.41089e-09
1.09506e-08
6.81846e-09
2.16599e-09
7.56834e-10
3.59072e-10
1.57462e-10
5.59448e-11
1.65532e-11
4.08401e-12
8.13614e-13
1.36208e-13
1.94008e-14
2.27843e-15
1.9861e-16
1.62807e-17
1.48197e-18
1.19652e-19
7.81892e-21
4.17358e-22
1.96348e-23
3.49761e-09
9.63776e-09
9.40316e-09
6.0276e-09
1.9015e-09
6.93332e-10
3.38771e-10
1.45067e-10
5.23009e-11
1.60075e-11
4.25626e-12
1.00105e-12
2.094e-13
3.99761e-14
6.66918e-15
9.59652e-16
1.14139e-16
1.01946e-17
5.72388e-19
3.67508e-20
1.82013e-21
7.75456e-23
3.25428e-24
1.01704e-09
1.99855e-09
1.99053e-09
1.11316e-09
4.96007e-10
2.33936e-10
9.68467e-11
3.43242e-11
1.04061e-11
2.82876e-12
6.93116e-13
1.58057e-13
3.44056e-14
7.15825e-15
1.34134e-15
2.34876e-16
3.62443e-17
4.58538e-18
4.45592e-19
2.87001e-20
8.3395e-22
2.35673e-23
5.71097e-25
2.40937e-10
3.7143e-10
3.22661e-10
1.83637e-10
9.08857e-11
3.40468e-11
1.10114e-11
3.20449e-12
8.57338e-13
2.09658e-13
4.86268e-14
1.07825e-14
2.36685e-15
5.05361e-16
1.10443e-16
2.17128e-17
3.82237e-18
6.12215e-19
8.47137e-20
9.53767e-21
7.92308e-22
4.04028e-23
6.50044e-25
0.710731
0.968674
0.99228
0.99644
0.990937
0.992851
0.998388
0.999335
0.999994
0.999933
0.999938
0.99999
0.99996
0.999965
0.999897
0.994233
0.947234
0.976377
0.981737
0.927277
0.278762
0.349611
0.361314
0.323159
1.43898e-14
7.37019e-14
8.75723e-12
4.75959e-11
2.79773e-07
1.98053e-06
1.5726e-05
4.52188e-05
4.5663e-05
9.00381e-05
0.000154796
0.000154756
0.000129722
0.000136811
0.000132318
0.000127142
1.33568e-05
1.4943e-05
7.78023e-06
1.75165e-10
7.63616e-13
6.42091e-13
7.63818e-13
1.91284e-09
4.444e-08
1.49154e-07
1.50006e-07
8.56295e-08
3.11716e-07
3.03648e-07
4.84372e-08
1.2757e-08
2.33738e-08
4.14646e-09
8.25301e-09
1.31352e-08
2.9163e-09
4.27255e-09
5.99105e-09
2.81125e-08
3.02503e-09
5.05956e-09
1.19457e-08
1.65928e-08
3.90024e-09
5.1066e-09
8.08995e-09
1.618e-08
1.08251e-09
9.02253e-10
7.8199e-10
5.7864e-10
3.4716e-10
1.92656e-10
1.40327e-10
1.22561e-10
8.85014e-11
5.93027e-11
5.16132e-11
4.91196e-11
1.70588e-11
1.31739e-11
1.20265e-11
1.28545e-11
2.98127e-12
2.76328e-12
2.71525e-12
2.85171e-12
4.76977e-13
5.59026e-13
6.19816e-13
7.44809e-13
6.66455e-14
8.98347e-14
1.42607e-13
1.89696e-13
9.26455e-15
1.82791e-14
2.78233e-14
4.64571e-14
1.35223e-15
2.49906e-15
5.90928e-15
9.66573e-15
2.09016e-16
4.54751e-16
9.2741e-16
1.91158e-15
3.2049e-17
5.58325e-17
1.59404e-16
2.89512e-16
4.87581e-18
8.08072e-18
1.72808e-17
3.94635e-17
9.60695e-19
8.91223e-19
1.9197e-18
3.85957e-18
1.88503e-19
9.22707e-20
1.48992e-19
4.82831e-19
4.24062e-20
1.06202e-20
1.3709e-20
2.94581e-20
1.00733e-20
1.21498e-21
8.69707e-22
2.92002e-21
1.67178e-21
1.55929e-22
6.8142e-23
1.51506e-22
3.47858e-22
2.56332e-23
5.16236e-24
8.55805e-24
5.57583e-23
4.9706e-24
5.45514e-25
4.67822e-25
8.27196e-24
6.29843e-25
6.84673e-26
3.03678e-26
1.17059e-24
9.38532e-26
9.34337e-27
2.67208e-27
1.85516e-25
1.41433e-26
1.32186e-27
3.05252e-28
3.03466e-26
2.20967e-27
1.95237e-28
3.95862e-29
6.68197e-27
3.74489e-28
2.80721e-29
4.59893e-30
0.999981
0.999997
0.999997
0.999867
0.9981
0.913461
0.898402
0.922186
0.733021
0.282737
0.218095
0.269619
0.653806
0.777568
0.690912
0.248848
0.0729114
0.0977611
0.0879603
0.999742
0.999997
0.999997
0.999997
0.999992
0.999887
0.999776
0.999769
0.977075
0.645404
0.228347
0.296962
0.580415
0.778259
0.718319
0.437875
0.0146664
0.0326722
0.0716866
0.999997
0.999997
0.999717
0.999718
0.99937
0.996859
0.994481
0.993917
0.97832
0.866627
0.325799
0.299678
0.590776
0.777488
0.698835
0.263062
3.37212e-05
2.5265e-05
0.00448049
0.97889
0.993325
0.996659
0.971325
0.905027
0.862536
0.890907
0.975168
0.980733
0.941811
0.438294
0.514439
0.675473
0.689934
0.341719
0.0278987
0.00281251
0.000404331
2.39916e-07
0.884155
0.955153
0.995022
0.904627
0.714976
0.596659
0.624339
0.751599
0.783366
0.655613
0.467888
0.551836
0.643944
0.407804
0.0336324
0.0185606
0.00664324
-3.47338e-07
2.36749e-07
0.290963
0.389937
0.52817
0.602779
0.536898
0.263993
0.0972721
0.0363015
0.0577847
0.0730382
0.102721
0.211399
0.208408
0.0696257
0.0199805
0.00825989
0.00611158
0.00179656
2.43524e-07
3.24778e-11
5.33553e-13
3.02587e-13
1.45456e-13
0.000812062
6.97389e-12
7.61957e-15
1.2171e-20
1.20968e-20
3.91014e-20
-8.55662e-20
0.0149471
0.0424279
0.0359872
0.0163942
0.0151671
0.0110011
0.00266628
0.000166998
4.1457e-05
5.77525e-06
1.44724e-11
1.66381e-11
1.49028e-11
2.41755e-05
1.49483e-05
8.31672e-07
1.21515e-20
4.97072e-19
0.000297927
0.000323348
1.45216e-05
0.0010595
0.00769317
0.0130389
0.0113147
0.00235934
3.64255e-05
0.000154798
7.73501e-05
1.675e-06
2.76715e-05
0.000116493
0.000117274
5.82947e-05
1.06347e-07
0.000110003
0.00173315
0.00196317
0.00132857
1.78991e-05
1.52313e-08
5.44972e-05
0.000989584
0.00203578
0.0011803
2.31479e-05
0.00012168
9.48706e-05
5.79865e-05
3.9921e-05
4.32884e-05
9.12602e-05
4.09395e-05
1.43785e-07
0.00070481
0.00182643
0.000759133
2.50704e-05
4.00888e-08
1.50676e-08
8.26017e-15
-1.84141e-21
5.17184e-21
4.32071e-06
1.64281e-05
7.67749e-13
4.61883e-06
6.4075e-06
2.76821e-11
5.13462e-06
1.91046e-05
2.24157e-05
6.35926e-05
0.0009179
0.000499935
9.8743e-07
1.21093e-09
1.28256e-09
5.8431e-08
8.47718e-08
1.00242e-08
5.49059e-13
1.9402e-12
1.5154e-06
1.72177e-10
5.28133e-11
3.7731e-10
9.33448e-12
9.39184e-08
1.47644e-06
0.00014309
0.000526208
0.000292865
3.02155e-09
3.39237e-09
1.32533e-09
8.10609e-10
6.01096e-08
1.15499e-07
1.0244e-07
7.28787e-09
9.43857e-09
2.14949e-11
8.27324e-09
4.30993e-08
2.55839e-07
1.39872e-18
1.11643e-10
3.28438e-05
0.000227731
0.000621755
2.14588e-06
2.99912e-09
5.38513e-09
9.06015e-10
6.9229e-10
1.4208e-08
7.99176e-08
1.08126e-07
3.23279e-08
4.43972e-09
2.14832e-11
2.98495e-08
3.32025e-08
2.8631e-05
0.000190798
0.000246448
0.000167995
0.000165626
0.000206455
1.41072e-08
1.7596e-08
1.11412e-09
8.26924e-10
6.89443e-10
9.18142e-10
9.08168e-09
2.86995e-08
2.93038e-08
1.68513e-09
2.14685e-11
3.38455e-08
5.51563e-08
0.000191361
0.000360763
0.000359153
0.000351854
0.000100002
5.50587e-06
1.37111e-08
4.3409e-08
9.76558e-10
9.92312e-10
1.08812e-09
6.45701e-10
7.632e-10
6.16158e-10
3.26248e-09
1.38876e-10
2.14487e-11
4.55935e-08
4.38684e-08
6.11908e-05
0.000271728
0.00030854
0.000119226
5.5151e-05
1.45475e-07
4.05672e-08
4.33002e-08
9.72988e-10
1.37813e-09
1.42807e-09
7.43547e-10
4.35449e-10
1.9089e-10
3.37917e-11
3.37924e-11
1.24114e-11
4.70288e-07
1.18221e-06
1.22323e-06
1.12708e-05
4.88672e-05
5.72485e-05
1.51861e-06
2.98857e-09
3.1222e-08
1.05418e-08
9.77723e-10
1.61041e-09
1.47758e-09
8.4899e-10
5.20216e-10
2.91236e-10
1.0966e-10
3.77778e-11
7.73261e-12
1.5217e-08
8.36265e-09
1.14494e-10
1.14512e-10
1.14494e-10
1.14512e-10
1.14495e-10
2.98749e-09
3.03586e-09
6.43326e-10
1.18619e-09
1.46924e-09
1.17215e-09
7.7568e-10
5.24002e-10
3.15442e-10
1.36058e-10
3.94539e-11
6.11538e-12
3.48848e-10
5.92415e-10
1.2072e-10
1.7418e-10
2.10676e-10
3.03295e-10
7.60382e-10
2.00729e-09
5.24131e-10
6.43028e-10
9.22383e-10
8.56619e-10
6.20933e-10
5.28015e-10
4.01841e-10
2.60376e-10
1.22225e-10
3.29343e-11
3.70971e-12
1.18018e-10
1.25387e-10
1.3969e-10
2.47646e-10
4.31896e-10
6.22267e-10
9.0965e-10
1.06133e-09
5.23972e-10
5.65843e-10
5.77037e-10
3.87559e-10
2.86923e-10
2.55724e-10
2.08967e-10
1.46026e-10
8.44722e-11
2.16792e-11
2.69275e-12
4.92692e-11
5.99764e-11
9.44016e-11
1.70945e-10
3.34488e-10
4.76142e-10
6.08499e-10
4.99025e-10
3.95316e-10
3.76528e-10
2.7915e-10
2.19903e-10
1.86464e-10
1.21953e-10
1.13382e-10
7.56232e-11
4.90155e-11
1.12216e-11
2.13077e-12
1.48582e-11
2.24835e-11
3.44524e-11
8.34002e-11
1.64836e-10
2.28515e-10
2.35062e-10
2.04173e-10
1.7193e-10
1.50086e-10
1.06475e-10
9.47003e-11
8.85689e-11
7.88253e-11
6.25367e-11
5.82725e-11
2.65824e-11
4.50965e-12
1.60642e-12
3.62402e-12
6.79371e-12
1.37083e-11
2.71378e-11
6.44309e-11
9.01294e-11
9.38056e-11
7.18227e-11
6.50135e-11
5.99126e-11
4.66498e-11
4.69966e-11
4.86214e-11
4.38711e-11
3.77789e-11
3.17482e-11
1.04579e-11
2.34648e-12
1.47106e-12
9.69359e-13
1.92321e-12
4.18811e-12
9.26466e-12
1.89429e-11
3.23209e-11
3.637e-11
3.38539e-11
3.41044e-11
3.26447e-11
2.57599e-11
2.21674e-11
2.31834e-11
2.23209e-11
2.19123e-11
1.55318e-11
3.38037e-12
1.59929e-12
1.36556e-12
2.75661e-13
5.75798e-13
1.28952e-12
2.84618e-12
5.86177e-12
1.02734e-11
1.3144e-11
1.41834e-11
1.45521e-11
1.44478e-11
1.16874e-11
1.00771e-11
1.01664e-11
1.06069e-11
8.23382e-12
4.11245e-12
8.73696e-13
1.3075e-12
1.2012e-12
7.24411e-14
1.65232e-13
3.81601e-13
8.42042e-13
1.709e-12
2.97833e-12
4.25881e-12
5.02794e-12
5.37535e-12
5.46958e-12
4.67827e-12
4.31354e-12
4.31216e-12
3.53932e-12
1.63857e-12
7.13627e-13
4.19443e-13
1.22496e-12
1.01435e-12
1.66374e-14
4.08296e-14
1.00593e-13
2.24748e-13
4.6251e-13
8.28533e-13
1.24386e-12
1.56084e-12
1.74963e-12
1.8468e-12
1.52399e-12
1.08644e-12
5.34782e-13
2.26317e-13
1.99092e-13
1.69441e-13
3.92665e-13
1.07401e-12
9.11002e-13
3.33054e-15
8.78143e-15
2.29329e-14
5.26578e-14
1.10544e-13
2.04183e-13
3.20686e-13
4.18116e-13
4.31635e-13
2.62924e-13
9.18588e-14
3.46492e-14
1.3368e-14
8.68369e-15
3.1917e-14
1.21542e-13
3.95738e-13
9.92269e-13
7.77187e-13
5.60828e-16
1.59469e-15
4.58625e-15
1.07241e-14
2.27491e-14
4.14704e-14
5.99309e-14
5.45889e-14
1.44916e-14
2.82403e-15
8.9664e-16
9.29715e-16
2.57828e-15
7.05029e-15
3.17194e-14
1.24368e-13
4.22179e-13
8.9594e-13
6.74186e-13
7.84696e-17
2.75218e-16
7.59787e-16
1.84966e-15
3.83833e-15
6.40985e-15
6.87823e-15
4.62218e-16
7.58969e-17
1.32341e-16
4.30542e-16
1.15799e-15
3.61583e-15
1.06494e-14
4.22644e-14
1.57011e-13
4.52775e-13
8.05025e-13
4.65345e-13
1.04989e-17
3.69352e-17
1.11628e-16
2.7386e-16
5.5982e-16
8.38657e-16
5.76164e-16
9.8378e-18
4.30784e-17
1.69266e-16
5.99352e-16
2.15514e-15
6.82082e-15
1.93894e-14
7.09622e-14
2.11487e-13
4.7085e-13
6.58976e-13
3.74972e-13
1.06514e-18
4.46483e-18
1.41109e-17
3.73096e-17
7.25403e-17
9.74782e-17
4.18321e-17
7.95409e-18
3.73691e-17
1.628e-16
6.61518e-16
2.42313e-15
8.30561e-15
2.46702e-14
7.14249e-14
2.2928e-13
4.47141e-13
5.816e-13
2.38393e-13
1.04662e-19
4.65235e-19
1.65442e-18
4.47415e-18
8.73694e-18
1.06737e-17
3.66436e-18
4.57413e-18
2.30604e-17
1.08812e-16
4.76322e-16
1.9023e-15
6.64435e-15
2.1085e-14
6.01295e-14
1.87897e-13
3.84655e-13
4.20369e-13
1.56852e-13
8.66293e-21
4.27369e-20
1.70213e-19
4.91788e-19
9.86186e-19
1.17377e-18
5.177e-19
1.85758e-18
1.00337e-17
5.11502e-17
2.43142e-16
1.05622e-15
4.05237e-15
1.32271e-14
3.80937e-14
1.03289e-13
2.07368e-13
2.71937e-13
8.48108e-14
5.26386e-22
3.38125e-21
1.54443e-20
4.95452e-20
1.04306e-19
1.30346e-19
1.05566e-19
5.48953e-19
3.13248e-18
1.69822e-17
8.6857e-17
4.11675e-16
1.74557e-15
6.16711e-15
1.84057e-14
4.84295e-14
9.88348e-14
1.08675e-13
5.57574e-14
3.30137e-23
2.3361e-22
1.21304e-21
4.26107e-21
9.73198e-21
1.3728e-20
2.01355e-20
1.1876e-19
7.09726e-19
4.01546e-18
2.1673e-17
1.1132e-16
5.40923e-16
2.34813e-15
6.94369e-15
1.88947e-14
3.40852e-14
5.86321e-14
2.71315e-14
1.6097e-24
1.46395e-23
8.45759e-23
3.19999e-22
8.00336e-22
1.34718e-21
3.19168e-21
2.00833e-20
1.23683e-19
7.25468e-19
4.09169e-18
2.22576e-17
1.22988e-16
7.2856e-16
2.40024e-15
6.24607e-15
1.38477e-14
2.05176e-14
1.47056e-14
8.85944e-26
8.3092e-25
5.31069e-24
2.17706e-23
6.04094e-23
1.25465e-22
4.26135e-22
2.84507e-21
1.835e-20
1.11484e-19
6.50435e-19
3.6344e-18
2.0711e-17
1.94768e-16
6.63197e-16
1.93241e-15
4.08755e-15
8.0678e-15
5.18664e-15
4.90979e-27
4.69284e-26
3.20026e-25
1.41482e-24
4.3656e-24
1.1578e-23
5.01195e-23
3.53801e-22
2.45062e-21
1.5761e-20
9.60171e-20
5.50469e-19
2.94768e-18
4.53402e-17
1.81879e-16
5.22363e-16
1.21385e-15
1.75641e-15
1.98315e-15
3.85646e-28
2.85795e-27
1.90859e-26
9.20024e-26
3.21519e-25
1.12264e-24
5.42146e-24
3.87418e-23
2.87823e-22
2.01755e-21
1.33608e-20
8.06539e-20
4.49516e-19
9.37311e-18
3.86681e-17
1.14688e-16
2.21892e-16
4.45938e-16
7.21908e-16
5.09532e-29
3.38715e-28
2.04543e-27
1.01093e-26
3.94889e-26
1.41384e-25
6.12416e-25
3.74101e-24
2.9656e-23
2.30254e-22
1.5011e-21
9.66014e-21
5.51254e-20
1.46312e-18
7.91026e-18
2.20478e-17
4.31916e-17
1.18206e-16
2.4891e-16
7.93557e-30
5.9158e-29
3.6602e-28
1.79847e-27
7.45381e-27
2.78255e-26
1.03211e-25
4.54268e-25
2.74427e-24
2.12465e-23
1.89084e-22
1.33466e-21
8.20746e-21
2.55416e-19
1.46662e-18
4.52146e-18
8.77917e-18
2.34923e-17
3.21534e-17
)
;

boundaryField
{
    leftWall
    {
        type            zeroGradient;
    }
    rightWall
    {
        type            zeroGradient;
    }
    lowerWall
    {
        type            zeroGradient;
    }
    atmosphere
    {
        type            inletOutlet;
        inletValue      uniform 0;
        value           nonuniform List<scalar> 
46
(
0
0
0
0
0
0
0
0
0
0
0
0
0
0
0
0
0
0
0
0
0
0
0
0
3.74489e-28
2.80721e-29
4.59893e-30
7.93557e-30
5.9158e-29
3.6602e-28
1.79847e-27
7.45381e-27
2.78255e-26
1.03211e-25
4.54268e-25
2.74427e-24
2.12465e-23
1.89084e-22
1.33466e-21
8.20746e-21
2.55416e-19
1.46662e-18
4.52146e-18
8.77917e-18
2.34923e-17
3.21534e-17
)
;
    }
    defaultFaces
    {
        type            empty;
    }
}


// ************************************************************************* //
