/*--------------------------------*- C++ -*----------------------------------*\
| =========                 |                                                 |
| \\      /  F ield         | OpenFOAM: The Open Source CFD Toolbox           |
|  \\    /   O peration     | Version:  2312                                  |
|   \\  /    A nd           | Website:  www.openfoam.com                      |
|    \\/     M anipulation  |                                                 |
\*---------------------------------------------------------------------------*/
FoamFile
{
    version     2.0;
    format      ascii;
    arch        "LSB;label=32;scalar=64";
    class       volScalarField;
    location    "3.85";
    object      alpha.oil;
}
// * * * * * * * * * * * * * * * * * * * * * * * * * * * * * * * * * * * * * //

dimensions      [0 0 0 0 0 0 0];

internalField   nonuniform List<scalar> 
2268
(
7.57348e-10
6.9285e-10
1.62683e-09
1.82914e-09
3.30231e-09
6.95131e-09
8.20488e-09
6.17468e-09
3.62027e-09
1.75657e-09
9.26722e-10
5.92626e-10
4.11418e-10
3.10772e-10
2.71372e-10
3.44251e-10
7.70768e-10
2.55392e-09
7.0514e-09
2.87287e-09
1.39839e-05
5.14803e-05
5.14338e-05
7.05048e-10
1.11234e-09
1.68555e-08
1.40382e-08
3.55561e-08
8.67867e-08
1.36118e-07
7.53735e-08
2.992e-08
3.92108e-09
2.05527e-09
1.82353e-09
1.5073e-09
1.29906e-09
9.28978e-10
8.05442e-10
1.7198e-09
5.6455e-09
1.51401e-08
2.443e-12
2.0033e-06
2.40853e-05
4.08516e-05
7.0505e-10
8.25803e-10
1.24657e-08
2.27411e-08
6.9544e-08
2.783e-07
2.78827e-07
2.66154e-07
1.74971e-08
1.3296e-09
1.847e-09
1.72391e-09
1.87457e-09
2.54032e-09
3.49625e-09
6.4488e-09
8.24538e-09
-4.45732e-12
-3.56462e-12
-1.66288e-12
-4.76172e-14
-1.90519e-12
-4.06349e-11
7.05047e-10
7.77744e-10
7.78612e-10
7.7859e-10
7.84804e-10
7.8362e-10
1.28297e-09
1.28248e-09
1.28297e-09
1.2844e-09
1.41702e-09
1.2851e-09
1.11799e-09
1.09298e-09
1.09738e-09
7.74949e-09
1.12358e-08
3.20366e-06
1.45675e-05
4.90989e-06
-1.38134e-14
7.43287e-15
-1.30033e-10
0.00473435
0.00478389
0.00377114
0.00180088
0.00028681
5.00484e-05
0.000134275
0.000191706
4.31613e-05
1.13198e-09
1.13367e-09
1.13275e-09
2.15105e-07
8.08997e-06
1.78281e-05
2.75486e-05
6.14874e-05
1.80591e-05
4.26966e-05
1.59753e-05
4.94583e-16
1.27032e-10
-1.94131e-22
0.00723583
0.0072358
0.00723583
0.00619097
0.00172495
8.99932e-05
0.000411484
0.000484043
0.000483017
0.000433862
0.00117785
0.00124686
9.1989e-05
3.68562e-05
0.000114383
0.000640704
0.00120797
0.000304412
4.29481e-05
0.000209774
1.49519e-09
0.000121561
0.00021856
0.000821002
0.00156111
0.00248978
0.00239116
0.0019864
0.000818724
7.50912e-05
0.000163345
0.000264642
0.000320158
0.000646729
0.00200431
3.70574e-05
3.68692e-05
0.00133771
0.00229159
0.00247094
0.0132598
0.0379141
0.0597909
0.0219895
0.00828336
0.00341625
1.08063e-05
1.08189e-05
1.07656e-05
1.08051e-05
5.64972e-05
5.79821e-05
1.59555e-05
3.44158e-06
0.00015289
0.000254425
0.000256801
0.000259002
0.0050729
0.0174869
0.0161551
0.00737676
0.0157916
0.0802757
0.120498
0.120503
0.0957596
0.025397
0.00633779
0.0271719
0.0279134
0.027498
0.0275027
0.028045
0.0270887
0.0267975
0.0267975
0.0267975
0.0270964
0.0270184
0.026795
0.026795
0.0267949
0.0267949
0.0268036
0.026795
0.026795
0.0267951
0.0387414
0.108348
0.0966854
0.095961
0.0937245
0.0777302
0.0567196
0.042147
0.0428502
0.0503142
0.0424262
0.0321205
0.0322132
0.0363776
0.0328568
0.0328106
0.027859
0.0267951
0.0277399
0.274858
0.33562
0.335169
0.361158
0.39893
0.39893
0.376297
0.29033
0.222829
0.246124
0.34329
0.362642
0.329526
0.30697
0.281419
0.284745
0.287218
0.228876
0.21292
0.320862
0.156771
0.0339856
0.0439841
0.234941
0.398477
0.398728
0.223444
0.0453732
0.104346
0.504118
0.504116
0.466665
0.423053
0.48241
0.5139
0.513903
0.515045
0.515053
0.320681
0.0220105
0.0165073
0.0130537
0.0268366
0.107001
0.0920504
0.0257976
0.0241019
0.0243318
0.338338
0.308181
0.121111
0.0770898
0.101916
0.187608
0.277392
0.515053
0.515053
0.101639
0.0651783
0.022666
0.013647
0.0100561
0.0130401
0.0139731
0.0139492
0.113386
0.024258
0.0635176
0.19297
0.12685
0.0731059
0.0724918
0.0648034
0.0644509
0.189834
0.515053
0.132125
0.131497
0.0920206
0.0213804
0.00993112
0.00887512
0.00876825
0.0216288
0.586744
0.430881
0.245426
0.328704
0.293721
0.094402
0.0666437
0.0459434
0.0350275
0.0791527
0.514935
0.0564613
0.0827355
0.136078
0.05829
0.0125869
0.00864801
0.0086324
0.259071
0.71967
0.470152
0.49613
0.440041
0.270374
0.0334179
0.0332959
0.0333059
0.0333685
0.072834
0.453446
2.62014e-05
2.77904e-05
2.29302e-05
1.13297e-05
1.2982e-05
1.36578e-05
5.5285e-06
4.03946e-11
0.000134852
0.000296262
0.000279655
0.0265361
0.0434333
0.0434187
0.0375774
0.0161307
0.0158611
0.0352827
0.112168
0.120498
0.120503
0.0573208
0.00921609
4.54471e-06
9.4906e-06
5.3605e-07
8.47833e-08
6.22402e-25
6.7891e-25
-1.21338e-24
-2.57865e-31
7.10849e-05
0.000132709
0.000220967
0.000383792
0.0153653
0.0415998
0.042094
0.0423302
0.0215444
0.0122951
0.00494502
0.0117404
0.0198463
0.0268623
0.0122607
3.31266e-17
4.25387e-17
4.95121e-26
-2.51996e-27
-9.60792e-22
2.43179e-20
-1.4561e-20
-2.17677e-20
-5.13562e-10
-6.89396e-20
8.82073e-22
1.23979e-14
-2.13857e-06
-2.80559e-06
0.000173598
0.00034227
0.000419589
0.000471905
0.000530116
0.000596731
0.00209182
0.00200677
0.00415547
0.0453536
0.0839867
0.141413
0.270135
0.366843
0.356241
0.293105
0.220832
0.219429
0.242203
0.293509
0.36275
0.345748
0.266404
0.187771
0.16295
0.164137
0.169805
0.140368
0.0556877
0.0351815
0.0424248
0.270661
0.681698
0.650744
0.825648
0.967436
0.985443
0.98289
0.97214
0.934797
0.898328
0.902364
0.934196
0.976727
0.979357
0.931142
0.85306
0.840764
0.853505
0.870599
0.844343
0.686902
0.663807
0.801275
0.958989
0.950773
0.971052
0.995112
0.999552
0.999561
0.99956
0.999565
0.999564
0.997979
0.996344
0.999589
0.99959
0.99959
0.99959
0.98375
0.92611
0.963914
0.996166
0.996892
0.995034
0.991515
0.990838
0.99769
0.943891
0.948117
0.949734
0.954761
0.958193
0.959894
0.961477
0.965123
0.970616
0.97919
0.988331
0.995668
0.998457
0.999447
0.999528
0.99951
0.999225
0.998871
0.995984
0.997885
0.998902
0.998902
0.998902
0.276323
0.264334
0.257866
0.264864
0.274103
0.279761
0.283758
0.293373
0.318121
0.359614
0.418212
0.503886
0.628385
0.777553
0.914908
0.982421
0.982352
0.959979
0.950952
0.978204
0.998896
0.998902
0.998902
8.36565e-17
8.56931e-17
1.27235e-15
2.05405e-14
3.42942e-14
6.0995e-15
1.01784e-24
-4.52421e-10
-5.96221e-26
5.71895e-18
3.10273e-17
1.24904e-17
6.52197e-18
0.0209792
0.0763426
0.167174
0.314726
0.590814
0.912539
0.978532
0.991323
0.998806
0.998902
1.15835e-08
2.22482e-08
1.7699e-07
7.90671e-07
1.2973e-06
8.01263e-07
2.45912e-07
8.13706e-08
4.07751e-08
2.68879e-08
6.84236e-08
5.76876e-08
8.64765e-09
1.62912e-14
1.47425e-14
5.92956e-26
5.09516e-26
2.43149e-18
0.0116379
0.0966353
0.473697
0.930699
0.997357
2.54137e-08
5.07201e-08
6.4586e-07
2.26634e-06
3.24494e-06
1.8272e-06
1.70928e-07
5.68752e-08
9.99418e-08
1.33585e-07
3.41457e-07
4.00352e-07
2.45793e-07
2.3088e-07
3.9065e-07
3.58722e-07
1.97828e-07
5.04211e-08
2.06917e-18
1.30006e-17
3.56277e-16
0.0953787
0.376991
3.36263e-08
1.17849e-07
2.08989e-06
3.32634e-06
3.32512e-06
1.69455e-06
5.68954e-08
5.73469e-08
1.28777e-07
2.31781e-07
3.67219e-07
3.7095e-07
3.73255e-07
5.23391e-07
1.7147e-06
1.7419e-06
1.68478e-06
1.12746e-06
1.09042e-06
7.58955e-07
1.20828e-07
2.85383e-14
2.62144e-24
2.93314e-08
1.70101e-07
1.01268e-06
3.14276e-06
2.71831e-06
9.36289e-07
1.93503e-06
1.36326e-05
1.32647e-06
1.03415e-06
1.65207e-06
1.47694e-06
4.26595e-07
2.42397e-07
2.42984e-07
1.53513e-06
3.04151e-06
3.68316e-06
3.74124e-06
1.79158e-06
1.07757e-06
1.66443e-07
8.69016e-09
2.76187e-08
1.09052e-07
1.62156e-07
5.24014e-07
1.21704e-07
2.05112e-06
4.17526e-05
5.99574e-05
3.75403e-05
6.4851e-06
1.1083e-05
7.53607e-06
2.42085e-07
2.42758e-07
3.56505e-07
2.55836e-06
3.69801e-06
3.39859e-07
9.81345e-08
8.32465e-08
1.04596e-08
5.11528e-10
5.20268e-12
2.44093e-08
5.67015e-08
9.12083e-08
9.3937e-08
9.40962e-08
4.04652e-06
5.99575e-05
5.99449e-05
5.99585e-05
5.30251e-05
5.52899e-05
5.09867e-05
1.51798e-05
2.42397e-07
4.29152e-07
1.38835e-06
7.7598e-06
7.39783e-06
1.04935e-06
3.41512e-08
-2.88211e-28
-3.83755e-29
6.45674e-30
1.97858e-08
3.51708e-08
6.31222e-08
9.51763e-08
1.49095e-07
3.89355e-07
1.16956e-05
4.6525e-05
5.47834e-05
5.53798e-05
5.39481e-05
5.26589e-05
4.68035e-05
6.83712e-07
4.31449e-07
2.22143e-06
1.65805e-05
1.72862e-05
1.70975e-05
3.74478e-06
1.78059e-06
5.18344e-06
1.11711e-05
1.60587e-08
1.94931e-08
4.84296e-08
1.14751e-07
1.96107e-07
1.34529e-07
6.00608e-09
5.79122e-09
4.90845e-09
2.54427e-09
3.18139e-06
1.60658e-05
1.86152e-05
6.43805e-06
4.34614e-07
1.1779e-06
4.71749e-06
1.73047e-05
1.75093e-05
1.7519e-05
1.76222e-05
1.80863e-05
1.81961e-05
1.45783e-08
1.41233e-08
3.04472e-08
6.23183e-08
1.26623e-07
6.41877e-08
6.8845e-09
5.72213e-09
2.59978e-09
2.60833e-09
2.4769e-09
2.2578e-09
2.19409e-09
1.97455e-08
1.40281e-06
6.78746e-08
7.88322e-09
4.23354e-07
3.58722e-06
4.50282e-06
5.34936e-06
8.52658e-06
1.06432e-05
1.32333e-08
1.07971e-08
2.08273e-08
2.90878e-08
3.77715e-08
3.34121e-08
1.29928e-08
9.54444e-09
6.9765e-09
5.83064e-09
4.26808e-09
4.00223e-09
5.27075e-09
9.11092e-09
1.5058e-08
8.88502e-09
6.45869e-09
4.81391e-09
5.26356e-09
1.10628e-08
4.06025e-09
4.05472e-09
2.68904e-08
6.50671e-09
7.78411e-09
1.43096e-08
1.69111e-08
1.45136e-08
1.36545e-08
1.24541e-08
1.03741e-08
7.96218e-09
6.27344e-09
4.98521e-09
4.28394e-09
4.21045e-09
4.51339e-09
4.70863e-09
5.2317e-09
5.16812e-09
4.83736e-09
4.8256e-09
4.88866e-09
4.64823e-09
8.82569e-09
1.61255e-08
2.63447e-09
5.27296e-09
9.44641e-09
1.2414e-08
1.29882e-08
1.19202e-08
1.00287e-08
7.38838e-09
5.248e-09
4.0289e-09
3.4898e-09
3.22023e-09
3.06981e-09
3.04648e-09
3.20602e-09
3.49116e-09
3.75305e-09
4.06051e-09
4.17608e-09
4.42448e-09
5.02581e-09
7.14829e-09
1.1869e-08
2.41284e-09
3.62158e-09
5.42006e-09
6.73452e-09
7.62136e-09
6.91508e-09
5.48833e-09
3.72814e-09
2.5799e-09
1.88329e-09
1.63266e-09
1.56361e-09
1.56076e-09
1.60722e-09
1.7214e-09
1.91043e-09
2.14888e-09
2.38431e-09
2.73824e-09
3.13655e-09
3.61716e-09
4.69127e-09
6.82171e-09
2.41346e-09
2.68575e-09
3.49599e-09
3.67835e-09
3.43875e-09
2.75458e-09
1.99604e-09
1.39861e-09
9.52671e-10
7.33672e-10
6.35147e-10
6.00147e-10
6.02864e-10
6.6161e-10
7.71977e-10
9.26924e-10
1.11752e-09
1.30753e-09
1.58195e-09
1.97312e-09
2.27363e-09
2.84709e-09
3.7998e-09
2.48801e-09
2.32566e-09
2.18462e-09
1.98007e-09
1.6781e-09
1.32047e-09
9.16174e-10
6.4079e-10
4.58134e-10
3.48907e-10
2.7398e-10
2.36302e-10
2.37098e-10
2.75026e-10
3.40439e-10
4.27792e-10
5.39074e-10
7.18701e-10
8.98234e-10
1.1503e-09
1.44495e-09
1.91436e-09
2.27175e-09
2.74034e-09
2.31654e-09
1.92672e-09
1.61702e-09
1.3214e-09
1.06874e-09
7.52215e-10
5.67544e-10
4.54938e-10
3.43909e-10
2.4366e-10
1.6703e-10
1.26233e-10
1.18975e-10
1.39419e-10
1.84332e-10
2.49885e-10
3.48934e-10
4.66622e-10
6.53428e-10
8.15922e-10
1.0325e-09
1.37717e-09
2.93192e-09
2.40601e-09
1.93846e-09
1.62167e-09
1.4466e-09
1.3358e-09
8.72192e-10
6.48151e-10
5.586e-10
4.46794e-10
3.17152e-10
1.99689e-10
1.16757e-10
7.35231e-11
6.2435e-11
7.53128e-11
1.07412e-10
1.56121e-10
2.18956e-10
3.18663e-10
4.40357e-10
6.60248e-10
7.94125e-10
3.20593e-09
2.57297e-09
2.13694e-09
1.80762e-09
1.74795e-09
1.8883e-09
1.04416e-09
7.12424e-10
6.65004e-10
5.72426e-10
4.32719e-10
2.80436e-10
1.57565e-10
7.94851e-11
4.18242e-11
3.27174e-11
4.19013e-11
6.36981e-11
9.66818e-11
1.60436e-10
2.31572e-10
3.27387e-10
4.72304e-10
3.37662e-09
2.76842e-09
2.57918e-09
1.80794e-09
1.83515e-09
2.86847e-09
1.15924e-09
7.1865e-10
7.34542e-10
6.7675e-10
5.46846e-10
3.75507e-10
2.21137e-10
1.11953e-10
4.73472e-11
2.21342e-11
1.76327e-11
2.48169e-11
4.09544e-11
7.05114e-11
1.14149e-10
2.08897e-10
2.71021e-10
3.69937e-09
3.61223e-09
4.22566e-09
2.37158e-09
5.64152e-09
7.43614e-09
8.44542e-10
6.36965e-10
7.77498e-10
7.43221e-10
6.35301e-10
4.59452e-10
2.86599e-10
1.53714e-10
6.56663e-11
2.52958e-11
1.09777e-11
1.02725e-11
1.61521e-11
3.49889e-11
6.55705e-11
1.04608e-10
1.7782e-10
3.95954e-09
6.51235e-09
2.54649e-08
1.61722e-07
2.78788e-07
2.70645e-08
4.68008e-10
5.55597e-10
8.1937e-10
7.73278e-10
6.87624e-10
5.14827e-10
3.36221e-10
1.90769e-10
9.09454e-11
3.35731e-11
1.13335e-11
5.94515e-12
7.87922e-12
1.77453e-11
3.28252e-11
7.54129e-11
1.09137e-10
4.30274e-09
1.18973e-08
1.34991e-07
7.06045e-07
7.11918e-07
3.35372e-08
4.67142e-10
4.88712e-10
8.49091e-10
7.6968e-10
7.01465e-10
5.32938e-10
3.58557e-10
2.14413e-10
1.08362e-10
4.50449e-11
1.4091e-11
4.99019e-12
4.26279e-12
1.03439e-11
2.16993e-11
4.1592e-11
7.79925e-11
4.07683e-09
5.71451e-09
3.02827e-07
8.63534e-07
7.09832e-07
1.3288e-08
4.91137e-10
8.44578e-10
8.22634e-10
6.9593e-10
6.30631e-10
5.11771e-10
3.48728e-10
2.13391e-10
1.14846e-10
5.13903e-11
1.81009e-11
5.38937e-12
2.80596e-12
4.9203e-12
1.09248e-11
3.12501e-11
5.04472e-11
4.93303e-09
2.52199e-08
4.78731e-07
8.63815e-07
4.96489e-07
8.042e-09
1.09936e-08
1.11963e-08
6.92887e-10
6.43057e-10
5.52337e-10
4.56314e-10
3.10864e-10
1.90205e-10
1.06007e-10
5.12412e-11
1.9822e-11
6.02559e-12
2.10187e-12
2.65078e-12
6.65319e-12
1.44542e-11
3.54154e-11
4.2376e-09
3.72107e-08
6.02527e-07
8.6314e-07
5.65436e-07
8.00956e-09
3.96747e-08
2.85488e-08
7.10295e-10
6.37921e-10
4.67705e-10
3.75409e-10
2.53942e-10
1.52351e-10
8.5563e-11
4.31888e-11
1.88109e-11
6.20056e-12
1.81133e-12
1.31794e-12
2.88125e-12
1.05222e-11
1.93716e-11
4.23677e-09
7.17543e-08
6.6417e-07
8.634e-07
3.97258e-07
5.26451e-08
1.52884e-07
2.99027e-08
9.9301e-10
6.40742e-10
3.6868e-10
2.84389e-10
1.90414e-10
1.111e-10
6.03636e-11
3.13059e-11
1.46455e-11
5.46913e-12
1.6094e-12
7.4373e-13
1.41711e-12
3.51836e-12
1.14386e-11
4.23594e-09
6.53608e-08
5.56558e-07
7.80071e-07
9.59173e-08
1.5697e-07
1.56113e-07
3.39794e-08
1.83628e-09
5.86088e-10
2.68339e-10
1.97667e-10
1.30237e-10
7.19238e-11
3.65352e-11
1.8559e-11
9.17186e-12
3.88236e-12
1.27826e-12
4.54705e-13
7.04421e-13
2.16619e-12
4.97485e-12
4.6847e-09
4.49433e-08
2.2185e-07
1.9082e-07
7.59538e-08
1.71519e-07
1.35972e-07
2.19052e-08
2.22718e-09
4.74327e-10
1.73653e-10
1.21738e-10
7.9422e-11
4.1236e-11
1.90501e-11
8.99338e-12
4.48818e-12
2.09708e-12
8.14218e-13
2.53966e-13
2.12884e-13
5.65326e-13
2.50645e-12
5.24872e-09
1.86353e-08
5.488e-08
4.4674e-08
8.06088e-08
1.71439e-07
4.7955e-08
1.11295e-08
1.43335e-09
2.97767e-10
9.2888e-11
6.50566e-11
4.25946e-11
2.09016e-11
8.59372e-12
3.5478e-12
1.65152e-12
8.15823e-13
3.74132e-13
1.39462e-13
9.36158e-14
2.74746e-13
7.99795e-13
9.97894e-09
1.28861e-08
1.14657e-08
2.10601e-08
1.01892e-07
1.19515e-07
2.67381e-08
4.52309e-09
6.50989e-10
1.15354e-10
3.67802e-11
2.83875e-11
1.89971e-11
9.15342e-12
3.4019e-12
1.15793e-12
4.49579e-13
2.11258e-13
1.15866e-13
5.64367e-14
2.88432e-14
5.49922e-14
2.9475e-13
1.42183e-08
1.14669e-08
1.14665e-08
6.56486e-08
1.04868e-07
3.9667e-08
1.43124e-08
2.81265e-09
3.32795e-10
3.25754e-11
1.0591e-11
9.71617e-12
6.99399e-12
3.34331e-12
1.16148e-12
3.25893e-13
9.45426e-14
3.67693e-14
2.19744e-14
1.61091e-14
8.95239e-15
2.11398e-14
7.61654e-14
1.79977e-08
1.14674e-08
1.88027e-08
8.72515e-08
7.52836e-08
2.67884e-08
6.30786e-09
9.75502e-10
9.75424e-11
8.37312e-12
1.99488e-12
2.13748e-12
1.71999e-12
8.59266e-13
2.85198e-13
6.80495e-14
1.37612e-14
3.74185e-15
2.62715e-15
2.96372e-15
2.39166e-15
4.00438e-15
2.16778e-14
2.9959e-08
2.16796e-08
7.14038e-08
7.68241e-08
1.99104e-08
5.421e-09
8.70554e-10
9.14486e-11
7.21093e-12
7.24915e-13
1.48028e-13
2.34026e-13
2.1938e-13
1.16929e-13
3.85624e-14
7.75773e-15
1.10779e-15
2.04574e-16
1.93595e-16
3.82859e-16
5.77078e-16
1.15831e-15
5.24082e-15
0.00738843
0.00547291
0.00541131
0.0122679
0.0076812
0.00587971
0.00679465
0.00840863
0.0149624
0.00599979
0.0900515
0.573246
0.746587
0.858814
0.92584
0.989792
0.9938
0.985344
0.992384
0.996578
0.998902
0.998902
0.998862
0.991147
0.998902
0.998902
0.998902
0.992478
0.998902
0.998902
0.997434
0.980014
0.998902
0.998485
0.980508
0.964854
0.997932
0.981415
0.948067
0.476238
0.524956
0.480406
0.220561
0.00412543
-1.14843e-10
-5.48929e-11
2.31257e-19
5.89442e-19
-3.20939e-28
-1.69622e-24
-1.19585e-17
-9.04562e-30
-7.95166e-30
6.76895e-28
1.47214e-10
1.98524e-08
4.51616e-25
4.43857e-08
1.45896e-07
1.89431e-07
7.08127e-06
3.69106e-07
8.05743e-07
2.07294e-07
1.82646e-05
1.23796e-05
3.57223e-07
1.93035e-07
9.72579e-06
5.76911e-06
9.69667e-07
1.35545e-07
2.04987e-08
3.50397e-08
2.99392e-07
1.22415e-07
1.64075e-08
2.79166e-08
5.32214e-08
5.42589e-08
1.74483e-08
2.45871e-08
2.55525e-08
2.33379e-08
9.52587e-09
1.23837e-08
1.37597e-08
1.29282e-08
4.92081e-09
6.05313e-09
6.92253e-09
7.26773e-09
2.88318e-09
3.40172e-09
3.76486e-09
4.25059e-09
1.63435e-09
1.85054e-09
2.202e-09
2.31087e-09
9.92814e-10
1.12743e-09
1.2022e-09
1.34796e-09
5.78147e-10
6.71186e-10
7.78117e-10
8.32817e-10
3.67522e-10
4.40057e-10
4.85239e-10
5.66674e-10
2.36121e-10
2.88546e-10
3.59944e-10
3.9661e-10
1.6634e-10
2.17136e-10
2.48379e-10
3.06682e-10
1.15389e-10
1.4935e-10
1.99551e-10
2.27798e-10
8.45755e-11
1.15239e-10
1.38356e-10
1.79632e-10
5.50985e-11
7.15156e-11
9.85255e-11
1.13247e-10
3.75651e-11
4.92769e-11
6.35545e-11
8.64838e-11
1.91719e-11
2.66057e-11
3.89963e-11
4.48756e-11
1.08836e-11
1.47433e-11
1.98471e-11
2.81638e-11
4.62912e-12
6.65735e-12
1.08559e-11
1.32165e-11
2.08053e-12
2.87947e-12
3.91596e-12
5.96111e-12
6.4336e-13
9.38473e-13
1.66548e-12
2.07571e-12
2.0978e-13
3.16093e-13
4.31624e-13
7.44585e-13
5.72324e-14
8.36584e-14
1.4381e-13
2.10436e-13
1.53217e-14
2.44959e-14
3.84873e-14
5.29078e-14
0.0259336
0.0294399
0.134334
0.0841096
0.00860726
0.00860725
0.0384736
0.536149
0.745707
0.527425
0.509091
0.562774
0.43343
0.10312
0.0332596
0.0332219
0.0332021
0.0583398
0.0827497
0.259863
0.300023
0.265445
0.379571
0.3125
0.312595
0.22129
0.683692
0.898676
0.924588
0.892389
0.90754
0.812707
0.693299
0.61315
0.552982
0.459374
0.166237
0.0797155
0.940103
0.905161
0.812764
0.923675
0.916222
0.758146
0.46423
0.441936
0.810792
0.977135
0.966717
0.986644
0.982533
0.956012
0.943605
0.965778
0.964983
0.828521
0.61122
0.99658
0.970205
0.980336
0.990966
0.931632
0.644018
0.402202
0.402233
0.594638
0.976689
0.995769
0.995554
0.99218
0.968271
0.948941
0.949022
0.975237
0.990472
0.983032
0.996568
0.997521
0.998501
0.99859
0.954513
0.638964
0.589773
0.696533
0.701339
0.90985
0.997293
0.997296
0.997296
0.995883
0.995867
0.950368
0.953582
0.990899
0.990901
0.989175
0.998776
0.999022
0.999022
0.988522
0.891862
0.94299
0.977861
0.968095
0.979086
0.991621
0.993522
0.997297
0.997297
0.997297
0.971818
0.934988
0.984615
0.990901
0.981772
0.998255
0.999022
0.999022
0.998797
0.998728
0.998525
0.998017
0.996737
0.996574
0.993782
0.993753
0.992638
0.951624
0.870795
0.749932
0.674473
0.623966
0.834933
0.974559
0.994363
0.998708
0.974932
0.911515
0.787648
0.599338
0.467653
0.43599
0.458382
0.505456
0.541466
0.498048
0.315301
0.197353
0.106621
0.0714449
0.0346029
0.0111065
0.677231
0.470583
0.412488
0.269059
0.139125
0.020259
0.000818366
0.000987293
0.000398791
0.00111528
0.00468434
0.00950343
0.00435804
2.79372e-19
1.32634e-19
9.68353e-21
-2.15987e-20
-5.59904e-21
-2.812e-21
0.0488724
0.00131384
3.17999e-05
-1.06724e-09
4.60881e-13
4.46349e-12
2.07603e-06
1.38313e-05
4.49909e-06
1.95347e-07
-2.5947e-09
-2.27173e-09
-2.89804e-09
9.3545e-07
-8.58389e-15
-1.06654e-38
-6.06826e-22
-7.96333e-25
4.42902e-06
3.41823e-20
-1.6708e-13
2.18669e-09
1.4721e-06
7.16539e-06
2.69687e-05
9.62194e-05
0.000124652
9.51076e-05
1.87935e-06
7.48703e-07
9.62662e-07
1.55908e-06
1.09083e-06
1.83466e-05
7.38175e-05
0.000131062
0.000155848
0.000125687
2.39767e-10
2.59445e-10
4.20575e-10
1.57818e-06
4.05995e-05
0.000113793
0.000124633
0.000124637
0.000123604
9.55109e-05
7.8428e-07
2.29278e-06
2.3621e-06
8.64817e-05
0.000226105
0.000224908
0.000224922
0.00022529
0.000225346
-4.1667e-28
-1.14158e-12
3.48556e-08
5.10896e-06
8.3313e-05
9.89469e-05
0.000111329
6.41996e-05
7.05726e-05
9.04786e-05
6.83548e-05
6.82932e-06
2.31752e-06
0.000102133
0.000225784
0.00022511
9.72962e-05
6.03477e-05
8.91223e-05
7.37818e-08
3.47981e-08
9.32619e-08
2.48818e-06
4.59246e-05
7.199e-05
3.84016e-05
5.03984e-06
4.02691e-06
5.89213e-06
2.03579e-05
8.17809e-05
0.000191295
0.000194195
0.000194757
8.27116e-05
1.94734e-05
1.94678e-05
1.94681e-05
2.10047e-07
1.72615e-07
3.40039e-08
2.12769e-07
4.40544e-07
2.12783e-06
1.89563e-06
2.85854e-06
1.21984e-06
1.12599e-06
1.22593e-06
2.04904e-05
5.02603e-05
8.5936e-05
0.000156753
0.000105737
2.54486e-05
1.94681e-05
3.85653e-05
2.1194e-07
1.55896e-07
1.49464e-08
5.22254e-07
2.14487e-07
4.5308e-06
5.93371e-06
1.47177e-06
1.38177e-06
6.23035e-07
1.39685e-06
9.52708e-06
6.55186e-06
6.64488e-06
2.46642e-05
0.000107317
0.000116004
1.94795e-05
7.23475e-05
1.39946e-07
2.87589e-08
1.25072e-08
2.42768e-06
3.0433e-05
4.9988e-05
3.48097e-05
1.94289e-05
1.12006e-06
3.34579e-08
1.01403e-05
2.93468e-05
4.07309e-05
8.52588e-06
4.42667e-06
8.0507e-05
0.000130567
2.87201e-05
7.22749e-05
7.21804e-08
1.25072e-08
1.25072e-08
1.25351e-08
4.83265e-05
5.05887e-05
5.05777e-05
3.94595e-05
1.6643e-06
3.34828e-08
8.04085e-06
3.08734e-05
4.52728e-05
2.63198e-05
3.84018e-06
7.9513e-05
0.000130637
5.65439e-05
4.5644e-05
6.73317e-08
4.08444e-08
3.12373e-08
1.25037e-08
9.90601e-06
4.01564e-05
4.59693e-05
2.23203e-05
3.21285e-07
3.28901e-08
1.22406e-05
4.57075e-05
4.56711e-05
3.12574e-05
3.78476e-06
0.000105935
0.000128938
7.11492e-05
3.27947e-08
8.60278e-08
2.0087e-07
2.12838e-07
1.67114e-07
4.10121e-08
2.3483e-06
2.82473e-06
6.35144e-07
1.47166e-07
3.34473e-08
1.03631e-05
4.57509e-05
4.5751e-05
2.51998e-05
1.03053e-05
0.000117102
9.50337e-05
8.08079e-06
3.27843e-08
5.98989e-08
2.01489e-07
2.65448e-07
2.07268e-07
4.1404e-08
4.08912e-08
1.88397e-07
2.56316e-07
1.357e-07
3.28713e-08
9.40119e-07
2.81949e-05
3.69116e-05
5.63976e-06
6.35361e-06
0.000116762
4.71533e-05
3.28086e-08
3.27947e-08
1.45026e-08
4.34403e-08
1.15746e-07
5.17557e-08
3.93838e-08
1.22425e-07
2.84195e-07
2.93022e-07
2.22053e-07
4.18799e-08
3.98722e-08
1.13213e-06
1.60912e-06
2.5509e-07
9.46442e-06
2.7237e-05
3.80404e-06
3.27947e-08
3.50569e-08
7.50574e-09
7.15918e-09
8.0122e-09
1.82796e-08
4.61939e-08
1.07677e-07
1.9482e-07
2.46462e-07
1.94509e-07
6.89366e-08
3.93952e-08
4.00517e-08
4.06474e-08
2.47001e-07
2.9543e-06
6.05196e-07
3.57584e-08
3.27845e-08
7.81669e-08
4.66099e-09
6.02181e-09
8.63748e-09
1.55941e-08
2.6978e-08
3.08064e-08
5.63177e-08
7.25526e-08
9.46381e-08
9.33141e-08
6.79216e-08
4.13048e-08
4.10502e-08
4.69968e-07
2.22141e-07
1.88664e-07
3.87638e-08
1.40485e-07
1.36165e-07
2.56824e-09
3.26865e-09
4.53448e-09
6.98013e-09
1.08296e-08
1.29229e-08
2.30091e-08
3.69405e-08
5.08887e-08
6.61431e-08
6.19935e-08
4.35265e-08
3.32206e-08
4.82466e-07
1.66213e-07
6.85909e-08
1.08027e-07
1.7224e-07
1.17172e-07
1.44872e-09
1.74257e-09
2.18313e-09
2.90097e-09
3.99128e-09
5.94823e-09
1.04543e-08
1.67575e-08
2.2926e-08
2.93996e-08
3.60018e-08
3.18372e-08
2.52082e-08
1.11851e-07
5.55705e-08
1.31133e-08
5.40681e-08
1.46037e-07
6.76173e-08
9.18662e-10
1.11057e-09
1.34616e-09
1.6699e-09
2.16785e-09
2.96551e-09
4.09722e-09
6.02662e-09
8.4146e-09
1.20793e-08
1.71307e-08
1.97216e-08
1.77844e-08
1.18775e-08
1.03384e-08
9.8055e-09
2.03183e-08
8.40671e-08
6.14922e-08
6.19481e-10
7.85707e-10
9.82391e-10
1.23499e-09
1.5761e-09
2.04007e-09
2.67708e-09
3.44035e-09
4.5239e-09
6.1918e-09
8.42178e-09
1.12141e-08
1.22106e-08
8.75374e-09
8.85198e-09
1.16424e-08
2.12014e-07
1.64205e-07
6.09439e-08
4.57515e-10
6.0349e-10
7.82442e-10
1.00947e-09
1.30233e-09
1.68765e-09
2.1949e-09
2.83604e-09
3.61291e-09
4.66095e-09
6.06478e-09
8.13099e-09
8.1302e-09
8.11083e-09
5.9666e-08
3.60315e-07
3.99781e-07
2.86919e-07
1.4124e-06
3.51555e-10
4.84829e-10
6.53045e-10
8.70008e-10
1.1446e-09
1.5108e-09
2.00904e-09
2.64817e-09
3.39325e-09
4.25002e-09
5.58222e-09
8.48871e-09
1.24371e-08
8.64873e-09
7.55204e-08
2.97019e-07
4.4422e-07
4.43712e-07
3.11808e-06
2.7547e-10
3.96862e-10
5.49678e-10
7.42341e-10
1.02207e-09
1.40523e-09
1.96374e-09
2.71685e-09
3.64207e-09
4.60942e-09
5.59667e-09
8.55508e-09
2.22217e-08
8.73288e-09
8.8183e-09
1.89071e-08
3.80765e-07
4.16044e-07
3.11704e-06
2.07998e-10
3.13523e-10
4.38296e-10
6.18739e-10
8.79876e-10
1.28051e-09
1.91759e-09
2.88767e-09
4.19432e-09
5.58391e-09
6.40662e-09
6.42677e-09
3.39433e-08
3.89167e-07
7.00223e-07
2.1631e-07
1.46888e-07
2.5265e-07
3.09244e-06
1.61306e-10
2.24882e-10
3.22822e-10
4.74476e-10
6.98046e-10
1.086e-09
1.77102e-09
2.9694e-09
4.86393e-09
7.21016e-09
8.72995e-09
9.39306e-09
3.0739e-08
1.41178e-06
6.77977e-06
6.15173e-06
1.26865e-07
1.25569e-07
1.48889e-06
1.01586e-10
1.53672e-10
2.24612e-10
3.28545e-10
5.06741e-10
8.22701e-10
1.45375e-09
2.71559e-09
5.31423e-09
9.96483e-09
1.46378e-08
1.72814e-08
3.48213e-08
1.14381e-06
7.11389e-06
7.1064e-06
2.79676e-06
1.26161e-07
1.25202e-07
6.61209e-11
9.46366e-11
1.40537e-10
2.10031e-10
3.28335e-10
5.54332e-10
1.02888e-09
2.09902e-09
4.5879e-09
1.05037e-08
2.30179e-08
3.88406e-08
5.74304e-08
2.88887e-07
3.42768e-06
7.11461e-06
7.04248e-06
1.68197e-06
2.40333e-06
3.42765e-11
5.28609e-11
7.94609e-11
1.20742e-10
1.93049e-10
3.35082e-10
6.42884e-10
1.36621e-09
3.29752e-09
8.52184e-09
2.27644e-08
5.62178e-08
9.61284e-08
1.3705e-07
3.92036e-07
5.89355e-06
7.09413e-06
6.81024e-06
2.69555e-06
1.68427e-11
2.64798e-11
4.05146e-11
6.2919e-11
1.03324e-10
1.84658e-10
3.64715e-10
8.01665e-10
1.96432e-09
5.13061e-09
1.42869e-08
4.69489e-08
1.0968e-07
1.48449e-07
1.95243e-07
8.3037e-07
3.72115e-06
1.9708e-06
6.74552e-07
7.36947e-12
1.18698e-11
1.8523e-11
2.9497e-11
5.0101e-11
9.31103e-11
1.89996e-10
4.2203e-10
1.02175e-09
2.64783e-09
7.85183e-09
2.53283e-08
8.25589e-08
1.65698e-07
1.84928e-07
8.78126e-08
6.82386e-08
1.13003e-07
1.43166e-07
2.89403e-12
4.70881e-12
7.50436e-12
1.23956e-11
2.18831e-11
4.23315e-11
8.97777e-11
2.04224e-10
4.89938e-10
1.23373e-09
3.29805e-09
9.76951e-09
3.54356e-08
1.18552e-07
1.85111e-07
9.46417e-08
6.74193e-08
6.74116e-08
1.16924e-07
9.58947e-13
1.59236e-12
2.63573e-12
4.57351e-12
8.50775e-12
1.72868e-11
3.86865e-11
9.39115e-11
2.39114e-10
6.27197e-10
1.7007e-09
4.84052e-09
1.57043e-08
5.64874e-08
1.6314e-07
2.01023e-07
1.08632e-07
9.625e-08
1.87102e-07
2.78409e-13
4.66095e-13
7.90758e-13
1.43061e-12
2.79134e-12
5.86386e-12
1.34634e-11
3.40416e-11
9.2215e-11
2.59487e-10
7.53369e-10
2.2617e-09
7.3528e-09
2.59211e-08
1.02442e-07
2.04863e-07
1.96332e-07
1.7528e-07
1.86547e-07
6.83821e-14
1.11177e-13
1.86338e-13
3.43138e-13
6.81304e-13
1.44338e-12
3.33603e-12
8.4348e-12
2.34501e-11
7.06796e-11
2.224e-10
7.39591e-10
2.56083e-09
8.17986e-09
2.73329e-08
1.03959e-07
1.96046e-07
1.86719e-07
4.54581e-08
)
;

boundaryField
{
    leftWall
    {
        type            zeroGradient;
    }
    rightWall
    {
        type            zeroGradient;
    }
    lowerWall
    {
        type            zeroGradient;
    }
    atmosphere
    {
        type            inletOutlet;
        inletValue      uniform 0;
        value           nonuniform List<scalar> 
46
(
2.9959e-08
2.16796e-08
7.14038e-08
0
0
0
0
0
0
0
0
0
0
0
0
0
0
0
0
0
0
1.15831e-15
5.24082e-15
1.53217e-14
2.44959e-14
3.84873e-14
5.29078e-14
6.83821e-14
1.11177e-13
1.86338e-13
3.43138e-13
6.81304e-13
1.44338e-12
3.33603e-12
8.4348e-12
2.34501e-11
7.06796e-11
2.224e-10
7.39591e-10
2.56083e-09
8.17986e-09
2.73329e-08
1.03959e-07
1.96046e-07
1.86719e-07
4.54581e-08
)
;
    }
    defaultFaces
    {
        type            empty;
    }
}


// ************************************************************************* //
