/*--------------------------------*- C++ -*----------------------------------*\
| =========                 |                                                 |
| \\      /  F ield         | OpenFOAM: The Open Source CFD Toolbox           |
|  \\    /   O peration     | Version:  2312                                  |
|   \\  /    A nd           | Website:  www.openfoam.com                      |
|    \\/     M anipulation  |                                                 |
\*---------------------------------------------------------------------------*/
FoamFile
{
    version     2.0;
    format      ascii;
    arch        "LSB;label=32;scalar=64";
    class       volScalarField;
    location    "3.85";
    object      alpha.air;
}
// * * * * * * * * * * * * * * * * * * * * * * * * * * * * * * * * * * * * * //

dimensions      [0 0 0 0 0 0 0];

internalField   nonuniform List<scalar> 
2268
(
8.32904e-10
8.28263e-10
8.40316e-10
8.0666e-10
6.67113e-10
4.39172e-10
2.01463e-10
1.05578e-10
6.46629e-11
6.45026e-11
4.39998e-11
3.70409e-11
3.73301e-11
4.55213e-11
6.0451e-11
8.0368e-11
1.10779e-10
1.46266e-10
1.75532e-10
1.54174e-10
1.54072e-10
7.76285e-08
3.58585e-07
9.75234e-10
1.80667e-09
2.19204e-09
2.84654e-09
2.6203e-09
1.25901e-09
1.78138e-10
1.0589e-10
4.17747e-10
6.53445e-10
2.04025e-10
1.64461e-10
1.7798e-10
2.26949e-10
2.7632e-10
4.8847e-10
7.96689e-10
1.14838e-09
1.17356e-09
4.23688e-10
6.21278e-09
4.5882e-07
1.24775e-06
9.53981e-10
2.6629e-09
2.18055e-09
2.24065e-09
3.55764e-09
8.33646e-10
2.30924e-09
3.82766e-08
2.44045e-08
9.44224e-10
7.36585e-10
9.79614e-10
1.0793e-09
1.26256e-09
6.13387e-10
7.64077e-10
2.03552e-09
4.03095e-09
3.51323e-09
3.46602e-09
8.79734e-08
9.10625e-07
9.91065e-07
8.29198e-10
8.28641e-10
8.27373e-10
8.30562e-10
8.31123e-10
8.32823e-10
9.54157e-07
4.4844e-07
1.93152e-08
7.44955e-10
7.40974e-10
8.35885e-10
4.64555e-09
6.09879e-08
1.1837e-07
7.34553e-10
7.42927e-10
4.42119e-08
1.11561e-07
4.72254e-08
6.92423e-08
7.42795e-08
7.75467e-08
0.00040402
0.000597545
0.000795347
0.000763234
0.000461335
7.95294e-05
3.53888e-07
2.40047e-09
1.53403e-06
7.91449e-06
9.04181e-06
1.5211e-05
1.43518e-06
6.43628e-06
5.63001e-07
6.21395e-08
2.5712e-07
2.15842e-07
2.79812e-07
4.73356e-08
7.66449e-08
8.06578e-08
0.000291931
0.00120993
0.00132597
0.00132597
0.00132597
0.00132597
0.00069854
1.72176e-09
1.71785e-09
1.72176e-09
4.44308e-05
0.000214963
0.000227523
7.56201e-05
9.02244e-07
9.50542e-07
7.77771e-06
1.57758e-05
3.55572e-07
2.32013e-05
0.000101112
0.000305592
0.00127477
0.00530959
0.00043023
0.00085098
0.00132597
0.00132597
0.00132597
0.00129432
0.000367073
0.000105137
1.38346e-05
1.65825e-05
7.53051e-05
0.000279248
0.000278745
0.000164788
4.61249e-05
8.48046e-05
5.47512e-05
0.00221997
0.00723899
0.00721815
0.00454686
0.00523103
0.00612686
0.000317234
0.000317817
0.000587945
0.000506329
0.000327979
0.000294776
0.000327377
0.00028423
7.85128e-05
1.01843e-05
1.01935e-05
7.2867e-05
0.000198208
5.71396e-05
0.000737065
0.00178628
0.000491147
0.00576187
0.0156396
0.013868
0.00591073
0.00437224
0.00512186
0.000253933
0.00136423
0.00299247
0.00593994
0.0091855
0.00922844
0.00922947
0.00569585
0.00359475
0.00355901
0.00355857
0.00354896
0.00355854
0.00257087
0.00257086
0.00267274
0.00685691
0.00608085
0.00608085
0.000210758
0.000247592
0.000352235
0.000901094
0.00116961
0.00117155
0.00297138
0.00690445
0.00779159
0.00664921
0.00383581
0.00325952
0.00321167
0.00258895
0.00257089
0.00257048
0.00717891
0.0097582
0.00743588
0.000447646
0.00345618
0.0044207
0.00483617
0.00450086
0.00364027
0.00623825
0.0185077
0.0195159
0.0195136
0.00790333
0.00332844
0.00358768
0.00575273
0.00442408
0.00267985
0.00586575
0.0150041
0.0115247
0.0036975
0.00484801
0.00573863
0.00487363
0.00651937
0.00981276
0.012503
0.012759
0.0127104
0.0127045
0.0167573
0.0268439
0.0270085
0.0252283
0.0180248
0.0222573
0.0222224
0.0152704
0.0133057
0.0038698
0.00343897
0.00812712
0.0104729
0.00404148
0.00394566
0.00394559
0.00617765
0.0204956
0.0149458
0.0150163
0.0256478
0.025872
0.018645
0.0155291
0.0315504
0.034285
0.0312053
0.0159183
0.003462
0.00356035
0.00415086
0.0104924
0.007479
0.00521463
0.00478334
0.00938236
0.0732732
0.051666
0.0221967
0.0155137
0.0155162
0.0155155
0.0155205
0.0229958
0.0226755
0.0164945
0.00983005
0.00596456
0.00594502
0.00418444
0.00839471
0.0172613
0.0172756
0.0190615
0.0672561
0.0774386
0.0540496
0.0329032
0.0217904
0.042102
0.0407617
0.0206087
0.0424125
0.0527248
0.00971943
0.00943597
0.0249329
0.0261796
0.00762347
0.00590585
0.0160404
0.0199853
0.0264063
0.0867603
0.0474675
0.025871
0.025875
0.060996
0.0932382
0.0932382
0.0667549
0.055243
0.0554884
0.0164246
0.00943595
0.000309491
0.000309432
0.000309507
0.00025327
0.000233439
0.000228694
0.000262815
0.000284056
0.000175259
1.98425e-05
3.78411e-05
6.59887e-05
6.80155e-05
5.71503e-05
5.71451e-05
0.000773452
0.000778085
0.00554931
0.0167464
0.016116
0.00424931
0.00243026
0.00243027
0.000309491
0.0011435
0.000439634
0.000323016
0.000250508
0.000191175
0.00019109
0.000244889
0.000236613
0.000185617
0.000128243
7.0462e-05
6.41087e-05
5.8234e-05
5.77416e-05
5.93238e-05
5.8787e-05
0.00719182
0.0199229
0.006825
0.00245778
0.00246178
0.00243014
0.00225553
0.00330544
0.0100943
0.0134555
0.0190943
0.0214053
0.02077
0.0255933
0.0283028
0.0224678
0.00976793
0.0068974
0.00712838
0.00712597
0.0052721
0.00514
0.00926081
0.0275193
0.0289449
0.0142779
0.0105014
0.0094269
0.00788791
0.0515543
0.0309331
0.0315035
0.0505428
0.066993
0.073775
0.0739343
0.0739344
0.0739342
0.0739343
0.0688297
0.0454192
0.050132
0.0674645
0.0683015
0.0671571
0.089153
0.0893495
0.0893112
0.0273469
0.0114574
0.0313428
0.0314323
0.0636943
0.0620871
0.0219502
0.0112789
0.0119552
0.0153557
0.0275925
0.0507792
0.0727701
0.073934
0.0608837
0.022539
0.020426
0.0594501
0.0907447
0.0907475
0.0907447
0.0843695
0.0523859
0.0206761
0.0292371
0.0318532
0.0197015
0.0488468
0.0284474
0.00461371
0.000205486
0.000182518
0.000168237
0.000168914
0.000182635
0.00194977
0.00361802
0.000367694
0.000208636
0.000180889
0.000315592
0.0162428
0.0738879
0.0345999
0.00119941
0.00178101
0.0043471
0.00692164
0.00793813
0.00216066
0.0556326
0.0513011
0.0495431
0.0444499
0.040947
0.0390484
0.0370966
0.0331416
0.0271725
0.0182328
0.00903156
0.00196177
3.29689e-05
3.78809e-05
0.000246745
0.000431865
0.00075283
0.00112695
0.00378658
0.00175687
0.000648537
0.000633982
0.000705746
0.722486
0.734072
0.739941
0.732908
0.723676
0.717877
0.713211
0.701952
0.673289
0.631563
0.572872
0.486716
0.36213
0.214905
0.0830529
0.0157246
0.0146886
0.0375997
0.0476384
0.0210846
0.000730504
0.00045046
0.000198745
0.999871
0.999786
0.999731
0.99956
0.999539
0.9995
0.999382
0.999142
0.998712
0.997283
0.99451
0.992173
0.991681
0.970413
0.917486
0.829885
0.682077
0.39472
0.0700021
0.00400311
0.00114317
0.000222912
0.00022713
1
1
1
0.999999
0.999999
0.999999
1
1
1
1
1
1
1
0.99998
0.999782
0.999605
0.999676
0.989853
0.970931
0.885899
0.508836
0.0551236
0.000937755
1
1
0.999999
0.999998
0.999997
0.999998
1
1
0.999999
0.999999
0.999997
0.999993
0.999992
0.999993
0.999996
0.999995
0.999959
0.999969
0.999974
0.999939
0.989946
0.891176
0.609572
1
1
0.999998
0.999996
0.999996
0.999998
1
0.999999
0.999999
0.999999
0.999982
0.999981
0.999982
0.999987
0.999996
0.999996
0.999997
0.999995
0.99999
0.999993
0.999997
0.99285
0.9866
1
1
0.999999
0.999997
0.999997
0.999998
0.999996
0.999984
0.999998
0.999997
0.99999
0.999987
0.999999
1
1
0.999998
0.999997
0.999996
0.999996
0.999998
0.999999
0.999981
0.998848
1
1
1
0.999999
0.999999
0.999995
0.999949
0.999931
0.99996
0.999993
0.999989
0.999992
1
1
0.999999
0.999997
0.999996
0.999999
1
0.999999
0.999997
0.999997
0.999999
1
1
1
1
1
0.999992
0.999931
0.999931
0.999932
0.999941
0.999933
0.999938
0.999982
0.999999
0.999998
0.999998
0.999991
0.999989
0.999997
0.999999
0.999999
1
1
1
1
1
1
1
0.999998
0.999982
0.999947
0.999943
0.999935
0.999928
0.999928
0.999933
0.999985
0.999984
0.999986
0.999976
0.999963
0.999962
0.999983
0.999992
0.999989
0.999984
1
1
1
1
1
1
1
1
1
0.999999
0.999987
0.999966
0.999961
0.999973
0.999979
0.999979
0.99998
0.999978
0.99996
0.999959
0.999959
0.999959
0.999959
1
1
1
1
1
1
1
1
1
1
1
1
0.999999
0.999999
0.999997
0.999996
0.999999
0.999999
0.999993
0.999988
0.999983
0.999977
0.999974
1
1
1
1
1
1
1
1
1
1
1
1
1
1
1
1
1
1
1
1
1
1
0.999999
1
1
1
1
1
1
1
1
1
1
1
1
1
1
1
1
1
1
1
1
1
1
1
1
1
1
1
1
1
1
1
1
1
1
1
1
1
1
1
1
1
1
1
1
1
1
1
1
1
1
1
1
1
1
1
1
1
1
1
1
1
1
1
1
1
1
1
1
1
1
1
1
1
1
1
1
1
1
1
1
1
1
1
1
1
1
1
1
1
1
1
1
1
1
1
1
1
1
1
1
1
1
1
1
1
1
1
1
1
1
1
1
1
1
1
1
1
1
1
1
1
1
1
1
1
1
1
1
1
1
1
1
1
1
1
1
1
1
1
1
1
1
1
1
1
1
1
1
1
1
1
1
1
1
1
1
1
1
1
1
1
1
1
1
1
1
1
1
1
1
1
1
1
1
1
1
1
1
1
1
1
1
1
1
1
1
1
1
1
1
1
1
1
1
1
1
1
1
1
1
1
1
1
1
1
1
1
1
1
1
1
1
1
1
1
1
1
1
1
1
1
1
1
1
1
1
1
1
1
1
1
1
1
1
1
1
1
1
1
1
1
1
1
1
1
1
1
1
1
1
1
1
1
1
1
1
0.999999
0.999999
1
1
1
1
1
1
1
1
1
1
1
1
1
1
1
1
1
1
1
1
1
0.999999
0.999999
0.999999
0.999999
1
1
1
1
1
1
1
1
1
1
1
1
1
1
1
1
1
1
1
0.999999
0.999999
0.999999
0.999999
1
1
1
1
1
1
1
1
1
1
1
1
1
1
1
1
1
1
0.999999
0.999999
0.999999
0.999999
0.999999
1
1
1
1
1
1
1
1
1
1
1
1
1
1
1
1
1
1
0.999999
0.999999
0.999999
1
1
1
1
1
1
1
1
1
1
1
1
1
1
1
1
1
1
1
1
0.999999
0.999999
1
1
1
1
1
1
1
1
1
1
1
1
1
1
1
1
1
1
1
1
1
1
1
1
1
1
1
1
1
1
1
1
1
1
1
1
1
1
1
1
1
1
1
1
1
1
1
1
1
1
1
1
1
1
1
1
1
1
1
1
1
1
1
1
1
1
1
1
1
1
1
1
1
1
1
1
1
1
1
1
1
1
1
1
1
1
1
1
1
1
1
1
1
1
1
1
1
1
1
1
1
1
1
1
1
1
1
1
1
1
1
1
1
1
1
1
1
1
1
1
1
1
1
1
1
1
1
1
1
1
1
1
1
1
1
1
1
1
1
1
1
1
1
1
1
1
1
1
1
1
1
1
1
1
1
1
1
0.00245943
0.00256004
0.00247185
0.00247328
0.0037297
0.00572311
0.00507975
0.00422755
0.0039033
0.0286653
0.0506703
0.0506792
0.0262346
0.0478259
0.0479543
0.00880894
0.00615057
0.0146084
0.00681994
0.000433058
0.00104926
0.00105108
0.000996812
0.0002596
0.0004601
0.000321085
0.000169185
7.31453e-06
5.64852e-05
9.07314e-06
5.33491e-22
2.14241e-14
7.70135e-05
3.59187e-06
3.06815e-23
0.00971836
0.00020868
4.14734e-06
0.0286902
0.497879
0.458721
0.499302
0.758697
0.970604
0.992496
0.994537
0.981068
0.980608
0.999207
0.999881
0.999524
0.999578
1
0.999999
0.999998
0.999997
1
0.999999
0.999999
0.999997
0.999992
1
0.999999
0.999999
0.999968
0.999987
1
1
0.999982
0.999993
0.999999
1
0.999999
0.999999
1
1
1
1
1
1
1
1
1
1
1
1
1
1
1
1
1
1
1
1
1
1
1
1
1
1
1
1
1
1
1
1
1
1
1
1
1
1
1
1
1
1
1
1
1
1
1
1
1
1
1
1
1
1
1
1
1
1
1
1
1
1
1
1
1
1
1
1
1
1
1
1
1
1
1
1
1
1
1
1
1
1
1
1
1
1
1
1
1
1
1
1
1
1
0.0403009
0.046048
0.0201502
0.0103517
0.042302
0.0489301
0.0487154
0.086951
0.0300332
0.0311932
0.0564571
0.0932382
0.0932382
0.0932382
0.0880398
0.0535424
0.0539733
0.0273883
0.00943595
0.0431058
0.0460473
0.0361932
0.0580144
0.0582716
0.0562204
0.161922
0.0593978
0.0300215
0.0591046
0.0742495
0.0718705
0.0694022
0.0346677
0.0282495
0.0180692
0.0168675
0.0275135
0.0226854
0.0406591
0.0438915
0.0374794
0.0308236
0.0414305
0.114824
0.186277
0.157585
0.0368658
0.0183447
0.0239827
0.00196658
0.0100836
0.0343295
0.0450543
0.0204101
0.00643539
0.0150861
0.0228723
0.000259183
0.0287598
0.0154568
0.000433997
0.0573126
0.18609
0.186277
0.186278
0.151948
0.0151809
0.00126
0.00195865
0.00443063
0.0269255
0.0450894
0.0446124
0.0151833
0.00215256
0.00752491
5.58696e-07
0.00161975
0.000431437
0.000432712
0.0406253
0.183342
0.182433
0.186232
0.18547
0.0492557
0.00125849
0.001223
0.00142521
0.00294681
0.00321627
0.0482375
0.0419918
0.00215267
0.00218235
5.76937e-07
0.000218997
0.000449268
0.000517795
0.0114062
0.0628056
0.036467
0.0209495
0.0310628
0.0141617
0.00146462
0.00118603
0.00121871
0.0013695
0.00174631
0.0271613
0.0595536
0.00819953
0.00310374
5.13402e-08
5.88556e-16
0.0003115
0.000332296
0.00032964
0.000346524
0.000338049
0.000326017
0.000334468
0.000326747
0.000335144
0.000336469
0.00234767
0.0451336
0.125271
0.241843
0.317181
0.370107
0.162645
-3.05939e-29
-2.37561e-14
-3.41656e-07
0.0222437
0.0838105
0.206594
0.393768
0.525855
0.558834
0.537855
0.490981
0.452672
0.493809
0.676834
0.795806
0.886126
0.92246
0.96009
0.985325
0.296887
0.511522
0.580819
0.726069
0.855749
0.97359
0.995808
0.997033
0.998009
0.997315
0.99342
0.987619
0.991207
0.996869
0.997904
0.998985
0.999801
0.999752
0.999352
0.925245
0.983365
0.995677
0.996262
0.998746
0.999701
0.999966
0.999982
0.999991
0.999993
0.999973
0.99978
0.999871
0.999999
0.999999
0.999999
0.999998
0.999998
0.999995
0.982481
0.998636
0.999669
0.999995
0.999993
0.999973
0.999902
0.999874
0.999904
0.999994
0.999995
0.999995
0.999995
0.999991
0.999971
0.999915
0.999854
0.999828
0.999869
0.998808
0.999998
1
0.999995
0.99993
0.999848
0.999866
0.999871
0.999871
0.999892
0.999993
0.999995
0.999995
0.999897
0.999735
0.999736
0.999736
0.999736
0.999747
0.999999
1
0.999999
0.999991
0.999862
0.999848
0.999867
0.999935
0.999918
0.999887
0.999909
0.999976
0.999989
0.999875
0.999745
0.999736
0.999876
0.999924
0.999896
0.999998
0.999998
0.999999
0.999994
0.9999
0.99987
0.999943
0.999995
0.999994
0.999984
0.999961
0.999897
0.999786
0.999784
0.999783
0.999896
0.999966
0.999974
0.999973
0.999994
0.999994
0.999997
0.999991
0.999961
0.999956
0.999986
0.999995
0.999993
0.999998
0.999998
0.999976
0.999942
0.999906
0.999824
0.999874
0.999968
0.999974
0.99995
0.999998
0.999995
0.999988
0.999983
0.999982
0.999981
0.999986
0.99997
0.999969
0.999977
0.999973
0.999985
0.999993
0.999993
0.999975
0.999886
0.999877
0.999973
0.999913
1
0.999999
0.999996
0.999985
0.999961
0.999948
0.999963
0.999973
0.999973
0.999938
0.999928
0.999914
0.999934
0.999991
0.999996
0.999919
0.999858
0.999956
0.999913
1
1
1
0.999998
0.999951
0.999948
0.999948
0.99996
0.999993
0.99999
0.999944
0.999912
0.999911
0.999957
0.999995
0.999919
0.999855
0.999921
0.999944
1
1
1
1
0.99999
0.99996
0.999954
0.999978
0.999999
0.999998
0.99998
0.999912
0.999911
0.999926
0.999991
0.999889
0.999855
0.999907
0.999999
1
1
1
1
1
0.999998
0.999997
0.999999
1
0.999999
0.999987
0.999914
0.999911
0.999932
0.99998
0.999876
0.99989
0.999984
1
1
1
1
1
1
1
0.999999
0.999999
0.999999
1
0.999998
0.999946
0.999921
0.999966
0.999988
0.999877
0.999945
0.999998
1
1
1
1
1
1
1
0.999999
0.999999
0.999999
1
1
0.999997
0.99999
0.999998
0.999988
0.999972
0.999991
0.999998
1
1
1
1
1
1
1
1
0.999999
1
1
1
1
1
1
0.999997
0.999999
0.999996
0.999998
1
1
1
1
1
1
1
1
1
1
1
1
1
1
0.999999
1
0.999999
0.999999
0.999999
1
1
1
1
1
1
1
1
1
1
1
1
1
1
0.999999
1
0.999999
1
1
1
1
1
1
1
1
1
1
1
1
1
1
1
1
1
1
1
1
1
1
1
1
1
1
1
1
1
1
1
1
1
1
1
1
1
1
1
1
1
1
1
1
1
1
1
1
1
1
1
1
1
1
1
1
1
1
1
1
1
1
1
1
1
1
1
1
1
1
1
1
1
1
1
1
1
1
0.999998
1
1
1
1
1
1
1
1
1
1
1
1
1
1
1
1
0.999999
1
0.999996
1
1
1
1
1
1
1
1
1
1
1
1
1
1
1
1
1
1
0.999996
1
1
1
1
1
1
1
1
1
1
1
1
1
1
0.999999
1
1
1
0.999996
1
1
1
1
1
1
1
1
1
1
1
1
1
0.999999
0.999993
0.999994
1
1
0.999998
1
1
1
1
1
1
1
1
1
1
1
1
1
0.999999
0.999993
0.999993
0.999997
1
1
1
1
1
1
1
1
1
1
1
1
1
1
1
1
0.999997
0.999993
0.999993
0.999998
0.999998
1
1
1
1
1
1
1
1
1
1
1
1
1
1
1
0.999994
0.999993
0.999993
0.999997
1
1
1
1
1
1
1
1
1
1
1
1
1
1
1
0.999999
0.999996
0.999998
0.999999
1
1
1
1
1
1
1
1
1
1
1
1
1
1
1
1
1
1
1
1
1
1
1
1
1
1
1
1
1
1
1
1
1
1
1
1
1
1
1
1
1
1
1
1
1
1
1
1
1
1
1
1
1
1
1
1
1
1
1
1
1
1
1
1
1
1
1
1
1
1
1
1
1
1
1
1
1
1
1
1
1
1
1
1
1
1
1
1
1
1
1
1
1
1
1
)
;

boundaryField
{
    leftWall
    {
        type            alphaContactAngle;
        thetaProperties 
6
(
(galistan air) 90 0 0 0
(oil galistan) 90 0 0 0
(water oil) 90 0 0 0
(water air) 90 0 0 0
(oil air) 90 0 0 0
(water galistan) 90 0 0 0
);
        value           nonuniform List<scalar> 
50
(
8.32904e-10
9.75234e-10
9.53981e-10
8.29198e-10
0.00040402
0.00120993
0.00043023
0.000317234
0.000309491
0.000309491
0.00225553
0.0515543
0.0636943
0.0488468
0.0556326
0.722486
0.999871
1
1
1
1
1
1
1
1
1
1
1
1
1
1
1
1
1
1
1
1
1
1
1
1
1
1
1
1
1
1
1
1
1
)
;
    }
    rightWall
    {
        type            alphaContactAngle;
        thetaProperties 
6
(
(galistan air) 90 0 0 0
(oil galistan) 90 0 0 0
(water oil) 90 0 0 0
(water air) 90 0 0 0
(oil air) 90 0 0 0
(water galistan) 90 0 0 0
);
        value           nonuniform List<scalar> 
50
(
0.00608085
0.00743588
0.0115247
0.0133057
0.0159183
0.00983005
0.00943597
0.00943595
0.00943595
0.0226854
0.0228723
0.00752491
0.00218235
0.00310374
0.162645
0.985325
0.999352
0.999995
0.999869
0.999747
0.999896
0.999973
0.99995
0.999913
0.999913
0.999944
0.999999
1
1
1
1
1
1
1
1
1
0.999998
0.999996
0.999996
0.999996
0.999998
1
0.999998
0.999997
0.999999
1
1
1
1
1
)
;
    }
    lowerWall
    {
        type            alphaContactAngle;
        thetaProperties 
6
(
(galistan air) 90 0 0 0
(oil galistan) 90 0 0 0
(water oil) 90 0 0 0
(water air) 90 0 0 0
(oil air) 90 0 0 0
(water galistan) 90 0 0 0
);
        value           nonuniform List<scalar> 
62
(
8.32904e-10
8.28263e-10
8.40316e-10
8.0666e-10
6.67113e-10
4.39172e-10
2.01463e-10
1.05578e-10
6.46629e-11
6.45026e-11
4.39998e-11
3.70409e-11
3.73301e-11
4.55213e-11
6.0451e-11
8.0368e-11
1.10779e-10
1.46266e-10
1.75532e-10
1.54174e-10
1.54072e-10
7.76285e-08
3.58585e-07
3.58585e-07
1.24775e-06
9.91065e-07
7.75467e-08
0.000291931
0.00530959
0.00612686
0.00512186
0.00245943
0.00256004
0.00247185
0.00247328
0.000253933
0.000210758
0.000447646
0.0036975
0.0038698
0.003462
0.00596456
0.0249329
0.000253933
0.00136423
0.00299247
0.00593994
0.0091855
0.00922844
0.00922947
0.00569585
0.00359475
0.00355901
0.00355857
0.00354896
0.00355854
0.00257087
0.00257086
0.00267274
0.00685691
0.00608085
0.00608085
)
;
    }
    atmosphere
    {
        type            inletOutlet;
        inletValue      uniform 1;
        value           nonuniform List<scalar> 
46
(
1
1
1
1
1
1
1
1
1
1
1
1
1
1
1
1
1
1
1
1
1
1
1
1
1
1
1
1
1
1
1
1
1
1
1
1
1
1
1
1
1
1
1
1
1
1
)
;
    }
    defaultFaces
    {
        type            empty;
    }
}


// ************************************************************************* //
