/*--------------------------------*- C++ -*----------------------------------*\
| =========                 |                                                 |
| \\      /  F ield         | OpenFOAM: The Open Source CFD Toolbox           |
|  \\    /   O peration     | Version:  2312                                  |
|   \\  /    A nd           | Website:  www.openfoam.com                      |
|    \\/     M anipulation  |                                                 |
\*---------------------------------------------------------------------------*/
FoamFile
{
    version     2.0;
    format      ascii;
    arch        "LSB;label=32;scalar=64";
    class       volScalarField;
    location    "3.85";
    object      alpha.galistan;
}
// * * * * * * * * * * * * * * * * * * * * * * * * * * * * * * * * * * * * * //

dimensions      [0 0 0 0 0 0 0];

internalField   nonuniform List<scalar> 
2268
(
1
1
1
1
1
1
1
1
1
1
1
1
1
1
1
1
1
1
1
1
0.999986
0.999948
0.999948
1
1
1
1
1
1
1
1
1
1
1
1
1
1
1
1
1
1
1
1
0.999998
0.999975
0.999958
1
1
1
1
1
1
1
1
1
1
1
1
1
1
1
1
1
1
1
1
1
0.999999
0.999999
1
1
1
1
1
1
0.999999
1
1
1
1
1
1
1
1
1
1
0.999997
0.999985
0.999995
1
1
1
0.944481
0.943486
0.948837
0.959761
0.974925
0.992261
0.999865
0.999808
0.999955
0.999992
0.999991
0.999985
0.999998
0.999985
0.999982
0.999972
0.999938
0.999982
0.999957
0.999984
1
1
0.999708
0.234171
0.239546
0.250695
0.274243
0.314204
0.37073
0.452274
0.548958
0.648366
0.747842
0.842988
0.924372
0.976921
0.999962
0.999885
0.999352
0.998776
0.999695
0.999934
0.999689
0.999694
0.998604
0.994472
-7.92075e-20
-1.97872e-20
-3.92589e-21
-9.87025e-22
3.52314e-17
3.12427e-10
0.00073513
0.00700452
0.0235833
0.0579865
0.121074
0.22876
0.371851
0.491555
0.609167
0.717124
0.780734
0.785286
0.760922
0.741699
0.734673
0.704772
0.687659
2.30042e-08
8.18916e-09
-1.31444e-24
1.03037e-05
4.13226e-05
3.47579e-05
3.49991e-05
4.72583e-05
0.0001035
7.02206e-05
6.78831e-05
4.58531e-05
4.60261e-05
0.00372639
0.010605
0.0116243
0.0309396
0.0855356
0.0956316
0.0825371
0.0729038
0.0534664
0.0582564
0.95773
0.957726
0.956684
0.957381
0.957382
0.957381
0.952404
0.95359
0.955294
0.955295
0.955297
0.955299
0.95529
0.957974
0.961802
0.96313
0.961649
0.961193
0.961117
0.882567
0.881532
0.898701
0.900634
0.902751
0.918746
0.937962
0.948606
0.947024
0.940702
0.951403
0.961626
0.961632
0.958839
0.963005
0.963132
0.963149
0.961043
0.96119
0.243444
0.247434
0.251148
0.27447
0.322993
0.381196
0.43628
0.487727
0.537304
0.589009
0.614469
0.632561
0.665415
0.685377
0.712669
0.711089
0.705429
0.754629
0.774065
-2.97939e-21
-5.4555e-06
-2.09551e-05
2.35777e-21
2.48762e-22
2.32919e-22
7.89894e-10
0.00468661
0.0134734
0.0390165
0.155525
0.224951
0.236111
0.22482
0.225193
0.319778
0.424479
0.468194
0.470152
0.00138604
0.00392586
0.00471091
0.00585962
0.00404786
0.00121132
0.000685365
0.00271017
0.00548234
0.0105091
0.00193078
0.00193039
0.0019334
0.00192596
0.00191739
0.00191608
0.0498293
0.186454
0.385206
0.00154916
0.00358665
0.00271184
0.00518446
0.01181
0.0118093
0.0106404
0.0060752
0.0211586
0.0124242
0.00256476
0.00194345
0.00194287
0.00193443
0.0025484
0.00276168
0.00343547
0.00168924
0.0348512
0.0133705
0.0154501
0.00687829
0.000866024
0.00215582
0.00320434
0.00153035
0.00927557
0.0214207
0.00720681
0.00215948
0.00293166
0.00875172
0.00623417
0.00330711
0.00220461
0.00280962
0.00169092
0.00169123
0.0556954
0.0405517
0.0206819
0.000789337
0.000727615
0.000726071
0.000722996
0.016459
0.0214066
0.00377148
0.00215703
0.0134076
0.0204004
0.0183706
0.00358264
0.00201307
0.00170612
0.00169131
0.00169151
2.29861e-08
2.89693e-07
3.09233e-06
7.08473e-05
8.89785e-05
9.29158e-05
6.66608e-05
5.08347e-05
2.47123e-05
1.86781e-05
1.72941e-05
0.00030019
0.000341866
0.000376174
0.000359951
0.000358441
0.000604894
0.000849984
0.000574094
0.000575222
0.00057205
0.000572913
0.000570154
5.92972e-05
1.029e-05
3.10359e-06
1.24531e-05
8.49569e-05
0.000144236
0.000176922
9.07504e-05
2.71309e-05
1.64578e-05
1.62233e-05
1.62205e-05
0.00109728
0.00202664
0.00160855
0.000679353
0.0005807
0.00211485
0.00228053
0.000828072
0.000575492
0.000891802
0.000763961
0.000220546
0.000145929
5.09224e-05
0.000831088
0.000772917
0.000826633
0.000373609
0.000137999
0.000138539
0.000151747
3.5198e-05
0.000169595
0.0021708
0.00281631
0.00281659
0.00281646
0.00233088
0.00177688
0.00183502
0.00104593
0.00110796
0.00241421
0.00164389
0.000356989
0.000280949
0.00160525
0.00259953
0.00259973
0.00149778
0.000172291
7.98585e-05
0.000473746
0.000845068
0.00084362
0.00149689
0.00187718
0.000948671
0.000195021
0.000196275
0.00324986
0.00603026
0.00603574
0.0046519
0.00168121
0.00241984
0.00215836
0.00051402
0.000576129
0.00181308
0.00259399
0.00259785
0.00175017
0.000262936
7.77459e-05
7.56328e-05
0.000475446
0.000834014
0.000653611
0.000136339
7.82682e-06
7.63029e-06
0.00145254
0.00500849
0.00603023
0.00547788
0.00318317
0.00290631
0.00263448
0.000914343
0.000379803
0.000500865
0.00027386
0.000242756
0.000242498
0.000242708
0.000257385
0.000252835
7.02045e-05
3.69228e-05
3.70263e-05
5.47334e-05
9.58826e-05
3.9022e-05
7.46012e-06
2.32639e-06
0.0014863
0.00263423
0.0013204
0.000618515
0.00156375
0.00122378
0.000149355
0.000241292
0.000241298
0.000274945
0.000289521
0.000271769
0.000262987
0.000297156
0.000265711
0.000183526
0.000104919
0.000115719
0.00015953
0.000161844
9.82093e-05
5.9554e-05
4.56838e-06
1.39155e-07
5.3902e-08
0.000125297
0.000291177
0.000435527
0.000463572
0.000319645
0.000324105
0.000506171
0.000787349
0.000814624
0.000814145
0.000814624
0.000814145
0.000814624
0.000569359
0.000291371
0.000386393
0.000866717
0.000955028
0.000949061
0.000371089
6.57542e-06
2.05688e-07
5.56467e-08
2.5182e-06
3.75511e-05
0.000293055
0.000463363
0.000405274
1.09247e-05
2.76103e-05
8.51998e-05
0.000197616
0.000251614
0.000273954
0.000298046
0.000251882
0.000159707
9.01514e-05
9.28401e-05
0.000196436
0.000762939
0.00104075
0.0010412
0.000927474
0.000120611
8.14512e-08
7.7125e-07
6.46059e-06
7.47469e-06
4.8995e-05
0.00031244
5.09063e-16
4.57226e-16
5.09063e-16
4.57226e-16
6.4632e-15
1.30263e-14
1.30787e-14
1.91023e-08
3.17476e-08
-2.18982e-10
5.72794e-11
1.7448e-11
1.83933e-11
2.02787e-05
0.000217922
0.000394941
0.000323747
5.63507e-05
4.1398e-06
8.12545e-06
8.4676e-06
2.449e-06
6.29243e-07
1.26518e-09
2.76686e-09
6.17227e-09
9.85895e-09
2.29658e-08
1.16301e-08
1.3795e-08
3.44225e-07
6.65095e-07
6.41001e-07
9.72862e-07
1.68281e-06
1.15794e-06
9.45253e-07
9.64361e-07
3.2029e-06
2.90906e-05
3.08185e-05
2.64635e-05
1.58149e-05
1.17607e-06
6.01508e-07
6.23978e-07
1.81983e-09
4.20766e-09
1.18973e-08
1.89874e-08
5.33246e-08
1.0306e-07
2.0915e-07
9.31421e-07
9.2721e-07
6.67394e-07
3.36793e-06
3.35045e-06
2.97735e-06
1.73294e-06
2.0149e-06
2.01385e-06
1.32625e-06
3.47074e-06
8.92168e-06
6.31487e-06
2.52821e-06
2.22054e-06
6.80855e-07
1.67635e-09
3.45086e-09
8.32825e-09
5.30118e-08
1.30906e-07
2.1658e-07
3.16168e-07
5.2008e-07
4.31514e-07
3.14847e-07
7.41047e-07
2.08518e-06
8.84252e-10
1.00603e-10
7.74098e-10
1.35201e-09
1.35234e-09
2.26318e-07
1.52325e-07
7.41502e-08
7.58223e-08
1.83632e-05
3.43159e-05
1.48821e-09
2.9287e-09
8.79267e-09
6.69373e-08
2.14603e-07
2.15887e-07
3.43478e-08
3.4521e-08
3.36949e-08
4.29721e-08
-9.78184e-10
7.14651e-18
2.65219e-13
-4.819e-14
7.01575e-10
1.47131e-09
1.8578e-09
1.89965e-09
1.88718e-08
2.33924e-07
3.20425e-06
2.47811e-06
8.33627e-07
1.43757e-09
3.31903e-09
1.2207e-08
6.54711e-08
1.72534e-07
1.16342e-07
3.77674e-08
1.10601e-07
2.05247e-07
2.04204e-07
1.549e-07
1.80049e-07
2.35815e-07
1.38521e-07
1.11373e-08
3.41359e-08
1.41556e-08
1.95596e-09
1.40252e-08
3.6586e-07
4.88952e-07
3.47202e-08
1.82205e-09
1.38116e-09
3.32587e-09
1.08392e-08
2.26955e-08
2.23764e-09
2.26941e-09
4.16995e-08
1.89306e-07
1.893e-07
1.49701e-07
2.85651e-08
5.62004e-07
1.0125e-06
9.64001e-07
3.88604e-07
8.88652e-08
5.89623e-08
2.71345e-07
2.66693e-07
7.33002e-08
2.70341e-08
2.23887e-09
2.03975e-09
1.2602e-09
2.46252e-09
5.41673e-09
4.30602e-09
2.27588e-09
2.47769e-09
1.51208e-08
6.16502e-09
1.13176e-08
8.65661e-09
1.61742e-08
6.00151e-07
1.01232e-06
1.01236e-06
7.88635e-07
2.16658e-08
9.8481e-08
1.37587e-06
1.79515e-06
1.7935e-06
1.73428e-06
1.2833e-06
1.28844e-06
1.09516e-09
1.59184e-09
2.3803e-09
1.84941e-09
1.61354e-09
1.71841e-09
1.77185e-09
2.3275e-09
5.48264e-09
1.10696e-08
2.7837e-08
8.29981e-08
4.67873e-07
5.51244e-07
3.70149e-08
2.1326e-08
1.96729e-07
5.5702e-07
1.27024e-06
1.36636e-06
1.13826e-06
1.20293e-06
1.65163e-06
9.66442e-10
1.04288e-09
1.44433e-09
1.4586e-09
1.7095e-09
2.19837e-09
2.48521e-09
3.22715e-09
5.56275e-09
9.69591e-09
1.51994e-08
1.27456e-08
1.11738e-09
1.98633e-09
1.58656e-08
2.11666e-08
1.86891e-08
1.76721e-08
2.31696e-08
4.94696e-08
7.30342e-08
2.46408e-07
5.23264e-07
8.99551e-10
7.03003e-10
1.03148e-09
1.2039e-09
1.55698e-09
1.99513e-09
2.14058e-09
2.00056e-09
2.00942e-09
2.13387e-09
1.86535e-09
1.29641e-09
1.09905e-09
1.51306e-09
2.05158e-09
2.42197e-09
2.13729e-09
2.30464e-09
2.03097e-09
2.19613e-09
3.83753e-09
4.26905e-09
2.01713e-08
8.64576e-10
4.70582e-10
6.86159e-10
8.48589e-10
1.01802e-09
1.19908e-09
1.30888e-09
1.29818e-09
1.24387e-09
1.16294e-09
1.06082e-09
9.36517e-10
7.72058e-10
6.30687e-10
6.25247e-10
6.82649e-10
7.28655e-10
7.17094e-10
5.67989e-10
5.65515e-10
1.16621e-09
3.18987e-09
7.33957e-09
8.45819e-10
3.22256e-10
4.09054e-10
4.6637e-10
5.12191e-10
5.40947e-10
5.40336e-10
5.17105e-10
4.86325e-10
4.36551e-10
3.95316e-10
3.63304e-10
3.23465e-10
2.7272e-10
2.32457e-10
2.18667e-10
2.20419e-10
2.1819e-10
2.04457e-10
2.01483e-10
3.14274e-10
6.53635e-10
1.29322e-09
8.35945e-10
2.1082e-10
2.30486e-10
2.30219e-10
2.20862e-10
2.02679e-10
1.8138e-10
1.62308e-10
1.41793e-10
1.25309e-10
1.12098e-10
1.02028e-10
8.83728e-11
7.73043e-11
6.90231e-11
6.34413e-11
6.13266e-11
6.06012e-11
6.2745e-11
6.32432e-11
7.74589e-11
1.19893e-10
1.99129e-10
8.32871e-10
1.38634e-10
1.12078e-10
1.00057e-10
8.57956e-11
7.29969e-11
5.8476e-11
4.55309e-11
3.44996e-11
2.76367e-11
2.34057e-11
2.1108e-11
1.9771e-11
1.75095e-11
1.58077e-11
1.52197e-11
1.54597e-11
1.79013e-11
1.97095e-11
2.18295e-11
2.64676e-11
3.78e-11
5.22528e-11
8.39294e-10
1.03364e-10
6.30002e-11
5.22584e-11
4.65324e-11
4.24582e-11
3.58013e-11
2.64106e-11
1.74491e-11
1.06096e-11
6.77195e-12
4.99913e-12
4.06692e-12
3.57717e-12
3.17381e-12
3.36765e-12
3.8986e-12
4.92763e-12
6.01806e-12
7.52085e-12
8.9823e-12
1.18432e-11
1.80886e-11
8.47988e-10
7.86116e-11
3.89379e-11
4.03833e-11
4.99024e-11
5.74639e-11
5.42457e-11
4.04446e-11
2.4932e-11
1.27644e-11
6.18201e-12
2.91538e-12
1.47635e-12
9.28207e-13
7.67075e-13
7.98701e-13
9.82842e-13
1.28619e-12
1.67614e-12
2.29961e-12
3.18948e-12
5.12307e-12
6.65643e-12
8.74223e-10
7.51088e-11
3.47017e-11
5.24622e-11
8.15162e-11
1.05307e-10
1.03322e-10
7.78875e-11
4.72007e-11
2.32461e-11
1.09295e-11
4.68474e-12
1.83548e-12
6.95821e-13
3.05242e-13
2.1e-13
2.37017e-13
3.26592e-13
4.69302e-13
7.50361e-13
1.08477e-12
1.61498e-12
2.53626e-12
8.97817e-10
8.23596e-11
4.16347e-11
8.65286e-11
1.32025e-10
1.85174e-10
1.78033e-10
1.35424e-10
8.22436e-11
3.98353e-11
1.88266e-11
8.16253e-12
3.20641e-12
1.13231e-12
3.45753e-13
1.16244e-13
6.61035e-14
7.79696e-14
1.21181e-13
2.05914e-13
3.44788e-13
6.77393e-13
9.20594e-13
9.43506e-10
9.42177e-11
6.3391e-11
1.62045e-10
2.90668e-10
3.39439e-10
3.60567e-10
2.28832e-10
1.25267e-10
6.11787e-11
2.91614e-11
1.2855e-11
5.23291e-12
1.90827e-12
5.78832e-13
1.62199e-13
4.30539e-14
2.18346e-14
2.79304e-14
5.93479e-14
1.15047e-13
1.94196e-13
3.54384e-13
9.95517e-10
1.17641e-10
9.92142e-11
3.61126e-10
6.5354e-10
7.4832e-10
5.67169e-10
3.20114e-10
1.64909e-10
8.42091e-11
4.03033e-11
1.79687e-11
7.58492e-12
2.87163e-12
9.72767e-13
2.62429e-13
6.14496e-14
1.44955e-14
8.0442e-15
1.56744e-14
3.10947e-14
8.00907e-14
1.23207e-13
1.0954e-09
1.45148e-10
1.65283e-10
6.36186e-10
1.12282e-09
1.31687e-09
1.03749e-09
4.49161e-10
1.95632e-10
1.00257e-10
4.95405e-11
2.22713e-11
9.73352e-12
3.90321e-12
1.38017e-12
4.28337e-13
9.86286e-14
1.96275e-14
4.47781e-15
4.68536e-15
1.10408e-14
2.4192e-14
5.21003e-14
1.16392e-09
1.94042e-10
2.75062e-10
9.29596e-10
1.41045e-09
1.62683e-09
1.39782e-09
6.84031e-10
2.16677e-10
1.02885e-10
5.41017e-11
2.44268e-11
1.09369e-11
4.51592e-12
1.71022e-12
5.74045e-13
1.56459e-13
3.26624e-14
5.22596e-15
1.59039e-15
3.07574e-15
1.16359e-14
2.24886e-14
1.30637e-09
2.37626e-10
3.9636e-10
1.08907e-09
1.50643e-09
1.64696e-09
1.49678e-09
8.10878e-10
2.51556e-10
1.00071e-10
5.22655e-11
2.35949e-11
1.07134e-11
4.5417e-12
1.80248e-12
6.53586e-13
1.9927e-13
4.74199e-14
8.44438e-15
1.30106e-15
1.15751e-15
3.24496e-15
1.12734e-14
1.40139e-09
2.88472e-10
4.05118e-10
1.1322e-09
1.45772e-09
1.63719e-09
1.50401e-09
8.04231e-10
2.64096e-10
9.39803e-11
4.5518e-11
2.03855e-11
9.307e-12
3.99526e-12
1.63694e-12
6.25073e-13
2.16863e-13
5.83665e-14
1.18501e-14
1.71778e-15
4.79171e-16
1.83061e-15
4.75889e-15
1.66677e-09
3.71237e-10
3.56359e-10
8.92604e-10
1.13355e-09
1.3176e-09
1.39009e-09
6.61124e-10
2.47849e-10
8.12692e-11
3.62889e-11
1.58382e-11
7.20691e-12
3.1044e-12
1.26293e-12
5.05504e-13
1.92226e-13
6.01404e-14
1.38532e-14
2.22473e-15
2.9418e-16
3.76832e-16
2.02631e-15
1.81662e-09
5.02924e-10
3.32809e-10
6.38741e-10
7.97579e-10
9.53038e-10
1.06011e-09
5.83487e-10
2.00563e-10
6.78195e-11
2.63207e-11
1.1105e-11
4.99296e-12
2.10017e-12
8.25706e-13
3.3136e-13
1.35745e-13
4.93188e-14
1.35772e-14
2.49855e-15
2.94726e-16
2.09441e-16
6.43391e-16
2.11971e-09
7.45262e-10
3.68586e-10
5.61892e-10
6.32874e-10
8.50782e-10
7.79439e-10
4.77024e-10
1.63719e-10
4.91905e-11
1.69085e-11
6.81209e-12
3.0488e-12
1.23925e-12
4.58764e-13
1.75684e-13
7.39764e-14
3.01535e-14
1.01496e-14
2.2382e-15
3.16212e-16
5.25702e-17
2.24013e-16
2.22182e-09
9.70598e-10
6.35945e-10
5.83654e-10
5.97594e-10
7.69087e-10
6.2314e-10
3.47625e-10
1.14445e-10
3.0066e-11
9.12227e-12
3.61674e-12
1.63083e-12
6.40893e-13
2.18041e-13
7.49479e-14
2.978e-14
1.28771e-14
5.15101e-15
1.48887e-15
2.50448e-16
3.03312e-17
4.76141e-17
2.24458e-09
1.38875e-09
8.29718e-10
6.36745e-10
6.46242e-10
6.76378e-10
4.62065e-10
2.10245e-10
6.47186e-11
1.36454e-11
3.85513e-12
1.5802e-12
7.2722e-13
2.85458e-13
9.01141e-14
2.61769e-14
8.70208e-15
3.51285e-15
1.65253e-15
6.58694e-16
1.57927e-16
1.49518e-17
1.18418e-17
2.16222e-09
1.49253e-09
9.24467e-10
6.84104e-10
7.04559e-10
5.42245e-10
2.97743e-10
1.103e-10
2.80496e-11
4.38412e-12
1.21118e-12
5.46141e-13
2.70259e-13
1.0594e-13
3.16633e-14
7.70353e-15
1.91129e-15
6.13605e-16
3.02485e-16
1.8901e-16
6.17017e-17
8.09791e-18
2.68649e-18
2.03653e-09
1.47067e-09
9.4183e-10
8.21239e-10
6.639e-10
3.67175e-10
1.44636e-10
3.87637e-11
6.69666e-12
7.90268e-13
2.46697e-13
1.23953e-13
6.80716e-14
2.77098e-14
7.89215e-15
1.63512e-15
2.7878e-16
5.80194e-17
3.27035e-17
3.32467e-17
1.85279e-17
4.06567e-18
8.33574e-19
2.18994e-09
1.59415e-09
1.06537e-09
7.30101e-10
3.3792e-10
1.30738e-10
3.44602e-11
5.90363e-12
5.97894e-13
4.72671e-14
2.45188e-14
1.43177e-14
9.05905e-15
3.86022e-15
1.08062e-15
1.86028e-16
2.13221e-17
2.61402e-18
2.10888e-18
3.9749e-18
4.65294e-18
1.76187e-18
3.17362e-19
0.00215601
0.00396817
0.0248696
0.0681588
0.00058993
0.000385162
9.62152e-05
5.6378e-05
0.000200477
5.35854e-05
5.42161e-05
8.87213e-05
0.000491352
4.8911e-05
0.000705525
0.00139314
4.91419e-05
4.7487e-05
0.000795913
0.00165869
4.84056e-05
4.67076e-05
0.000141107
0.00035485
8.04247e-05
3.5297e-05
4.25826e-05
4.17203e-05
0.000177764
2.98209e-05
3.08429e-05
0.00012334
0.000196031
7.81885e-07
0.000244819
0.00513555
6.3891e-07
6.49355e-07
0.0029504
0.00559078
1.17194e-05
6.93714e-07
0.000448687
0.004978
0.000250371
0.000621641
0.000650043
0.000525061
3.38896e-05
1.28958e-05
1.06905e-07
1.65463e-09
1.38857e-09
1.65725e-09
1.60803e-09
1.64393e-09
2.13549e-09
1.11017e-08
1.60249e-09
1.69307e-09
8.86828e-09
5.48935e-09
1.28689e-08
1.74581e-09
1.61541e-06
5.64988e-07
1.29189e-08
4.05446e-09
1.65513e-06
1.1251e-06
9.25043e-08
2.44405e-08
5.3547e-07
3.18672e-07
9.97485e-08
2.58945e-08
1.58583e-09
1.19653e-08
2.57902e-08
1.54277e-08
1.09829e-09
1.05636e-09
2.49295e-09
3.07361e-09
6.56558e-10
6.61711e-10
8.44862e-10
7.58856e-10
2.10287e-10
2.38841e-10
2.70143e-10
2.6916e-10
6.98121e-11
8.09989e-11
8.97689e-11
9.45047e-11
2.30458e-11
2.70169e-11
3.30376e-11
3.46422e-11
8.97035e-12
1.0638e-11
1.19146e-11
1.4105e-11
3.28762e-12
4.082e-12
5.17121e-12
5.85137e-12
1.31945e-12
1.67602e-12
1.96458e-12
2.51314e-12
4.90775e-13
6.3845e-13
8.79448e-13
1.02938e-12
2.03747e-13
2.89578e-13
3.56188e-13
4.95337e-13
8.66797e-14
1.281e-13
2.02902e-13
2.54712e-13
4.60843e-14
7.70285e-14
1.06408e-13
1.68225e-13
2.25582e-14
3.56898e-14
6.41273e-14
8.52513e-14
1.31988e-14
2.23836e-14
3.65491e-14
6.7139e-14
4.81745e-15
8.74533e-15
1.7898e-14
2.43088e-14
2.19156e-15
3.88933e-15
7.03408e-15
1.46795e-14
6.16683e-16
1.17729e-15
3.10589e-15
4.91282e-15
1.95233e-16
3.51338e-16
6.48761e-16
1.53612e-15
3.57103e-17
6.68411e-17
1.88349e-16
3.02082e-16
7.87545e-18
1.46738e-17
2.54735e-17
7.10815e-17
1.39615e-18
2.36747e-18
5.79549e-18
1.18075e-17
2.61215e-19
4.89731e-19
9.88959e-19
1.75145e-18
0.0687063
0.061569
0.0153215
0.00126464
0.00103643
0.00200585
0.00295129
0.0192078
0.022506
0.0225154
0.018543
0.0204002
0.0203922
0.0165954
0.00491395
0.00424666
0.00336653
0.00479483
0.00216969
5.52466e-05
5.63781e-05
0.000199932
0.00184516
0.0104582
0.0106152
0.00541119
0.00951373
0.014095
0.0157611
0.0203696
0.0203897
0.0152143
0.00985117
0.00616824
0.00644669
0.0105448
0.0102625
0.00858145
0.000825681
0.00152109
0.00296346
0.0110114
0.0110574
0.0102821
0.00191573
0.000283868
0.00345996
0.00349943
0.0091375
0.0111911
0.0072198
0.00949526
0.0111765
0.011049
0.0105469
0.0106156
0.0106182
0.00315512
0.00103562
0.00420723
0.00860037
0.0110558
0.00723805
0.000514205
0.000282795
0.00156358
0.00479546
0.00280736
0.00232401
0.0032259
0.00459818
0.00475543
0.0045635
0.00560611
0.00444772
0.00651436
0.00313337
0.000858776
0.00106763
0.000977438
0.00486173
0.00212438
0.000416388
0.000203503
0.000596805
0.00185032
0.000954027
0.0013177
0.00111579
0.00100679
0.000753622
0.00086696
0.00146852
0.00328245
0.00354625
0.00336896
0.000872982
0.00049798
0.000362771
7.20964e-05
7.24938e-05
7.24464e-05
0.00018606
0.000354208
0.000355244
0.000368351
0.000375242
0.000385994
0.000648008
0.000753915
0.000817135
0.00484709
0.00480876
0.00206012
0.00334084
0.000846938
0.000179549
7.31326e-05
7.21019e-05
7.21033e-05
7.21024e-05
0.000728424
0.00245047
0.00260825
0.0014227
0.00100822
0.000994133
0.00154188
0.00351773
0.00717248
0.00728126
0.00541053
0.001057
0.0051505
0.00280239
0.000148074
7.30245e-05
0.000155907
0.00146515
0.00285424
0.00301335
0.00328037
0.00337941
0.00338948
0.00344029
0.00413231
0.00568239
0.00596443
0.00623065
0.00523661
0.00478911
0.00334109
0.00559079
0.00559119
0.00263727
0.000261562
0.000493693
0.00193303
0.00208869
0.00175035
0.00137791
0.00145789
0.00188836
0.00267633
0.00292792
0.00252831
0.00182992
0.000871816
0.000163857
0.000236179
0.000648418
0.0055912
0.00516932
0.00156871
0.000401549
8.56758e-05
0.000144715
2.76775e-05
2.1553e-06
4.00676e-06
6.57858e-06
2.62482e-05
0.000220059
0.000128684
6.34836e-08
8.34211e-07
1.03648e-06
1.44009e-06
1.69463e-06
6.2958e-07
0.00475042
0.00101841
6.73579e-05
1.30014e-07
2.71531e-10
6.50044e-13
1.15718e-06
1.27993e-06
6.12793e-07
3.62819e-06
4.64266e-06
4.40052e-06
8.91109e-07
5.331e-08
2.68393e-06
6.28433e-06
8.47439e-06
8.14313e-06
2.85368e-06
0.000166765
1.12572e-06
3.08476e-08
2.40623e-08
3.85536e-07
2.57085e-06
2.59426e-06
1.35675e-06
7.3023e-08
4.84241e-07
1.70606e-06
1.90227e-06
1.76868e-06
1.18062e-05
1.91145e-05
1.90858e-05
1.90759e-05
1.82096e-05
1.22028e-05
1.10302e-07
2.92278e-08
9.75021e-08
1.29795e-06
4.83548e-06
1.35024e-06
5.72859e-07
3.5034e-07
8.14233e-08
4.57408e-07
9.69276e-07
9.40112e-07
3.8305e-06
1.79923e-05
1.90969e-05
1.83149e-05
5.93196e-06
5.05028e-07
1.1171e-06
1.85626e-09
3.37657e-08
3.03215e-07
2.48488e-06
7.38509e-06
5.76385e-06
1.86678e-08
1.77834e-08
8.20487e-08
2.78048e-07
3.66171e-07
4.07732e-07
1.7487e-06
3.75407e-06
3.36147e-06
1.10837e-06
4.46941e-08
9.44979e-08
1.11133e-06
1.65921e-09
2.11363e-08
1.97896e-07
1.50416e-06
7.40081e-06
7.38341e-06
1.11703e-06
9.67186e-09
1.64494e-08
4.88816e-08
1.17703e-08
6.11325e-09
6.31511e-09
1.30065e-07
5.91489e-09
5.95182e-09
4.50335e-08
3.4662e-07
5.04533e-06
1.84473e-09
1.5382e-08
3.06682e-08
6.1951e-07
2.42661e-06
6.87309e-06
5.79423e-06
9.00983e-07
1.00558e-07
5.95974e-09
5.91489e-09
5.91489e-09
5.91489e-09
5.91488e-09
5.91491e-09
2.12133e-08
5.37085e-08
6.88868e-07
5.03852e-06
1.84407e-09
9.94687e-09
9.09788e-09
4.76828e-08
1.98018e-07
5.72148e-07
1.94564e-06
1.86013e-06
9.75449e-07
1.07689e-06
1.0078e-06
2.44711e-07
8.22029e-09
5.91493e-09
5.9296e-09
2.09481e-08
2.45599e-08
4.87637e-06
5.03472e-06
1.92653e-08
9.86284e-09
7.73198e-09
7.39024e-09
1.56363e-08
3.05892e-08
4.16136e-07
8.55341e-07
2.28105e-06
2.27982e-06
2.27126e-06
1.15956e-06
5.44865e-07
3.13e-07
3.38854e-08
6.55369e-09
9.80816e-08
7.91949e-06
4.61824e-06
2.03761e-08
8.81708e-09
5.18436e-09
2.16419e-09
3.50234e-08
4.32225e-08
1.20076e-08
1.46541e-09
7.5157e-07
2.28062e-06
2.28169e-06
2.28013e-06
9.92017e-07
7.03509e-07
4.94525e-08
1.25607e-08
3.0661e-06
7.90232e-06
3.1883e-07
8.64149e-09
3.89583e-09
2.02823e-09
1.1412e-09
2.08012e-08
1.87101e-08
2.10926e-09
1.24348e-09
1.68912e-07
1.35348e-06
2.28081e-06
1.95846e-06
7.4945e-07
4.73938e-07
5.45098e-08
2.39194e-10
4.71754e-06
5.89386e-06
2.86394e-07
1.88562e-09
2.21193e-09
1.47633e-09
9.02039e-10
1.52366e-09
1.4579e-09
6.61041e-09
4.15611e-09
1.06823e-07
2.58791e-07
6.72851e-07
4.37763e-07
4.42768e-07
1.75959e-07
7.19153e-08
4.13024e-10
5.5187e-06
1.78883e-06
7.86145e-08
5.3495e-10
7.4767e-10
8.58247e-10
6.72249e-10
1.00056e-09
2.77719e-09
1.49147e-08
3.28432e-08
4.24306e-08
3.4413e-08
1.57465e-09
1.59864e-09
5.92133e-08
7.80657e-08
5.54607e-08
2.39163e-10
5.52813e-06
2.0069e-06
7.67884e-08
2.29644e-10
2.15153e-10
2.6342e-10
3.84749e-10
8.60192e-10
2.65332e-09
5.66612e-09
1.22463e-08
2.67139e-09
1.25225e-09
1.55393e-09
1.57486e-09
1.2779e-08
3.65512e-08
7.06892e-09
2.73965e-10
4.21924e-06
1.88825e-06
4.25705e-08
9.46046e-11
1.0067e-10
1.14532e-10
1.77499e-10
3.17518e-10
4.84814e-10
3.88419e-10
3.454e-10
5.06327e-10
1.24383e-09
1.8661e-09
3.31845e-09
9.93217e-09
2.42613e-08
1.31494e-09
4.92554e-07
1.06324e-06
4.62364e-07
4.28469e-08
3.76741e-11
4.40567e-11
5.50889e-11
7.79352e-11
1.16377e-10
1.38696e-10
2.22678e-10
3.17817e-10
4.82073e-10
1.03697e-09
1.54693e-09
3.81495e-09
4.42629e-09
1.48248e-08
1.26452e-09
4.47596e-07
1.9066e-08
5.80536e-08
2.44296e-08
1.56796e-11
2.02339e-11
2.77985e-11
4.08946e-11
6.25578e-11
9.60428e-11
1.5885e-10
2.43981e-10
3.69854e-10
6.69703e-10
1.13299e-09
2.81617e-09
2.7244e-09
3.58519e-09
3.70387e-09
5.86113e-08
1.00412e-08
7.06398e-09
1.07484e-08
6.92945e-12
9.71996e-12
1.43431e-11
2.24523e-11
3.67319e-11
6.06945e-11
9.89333e-11
1.62414e-10
2.61545e-10
4.48059e-10
8.17547e-10
1.93439e-09
2.42905e-09
1.81977e-09
1.16381e-08
9.68478e-09
8.34553e-09
7.02168e-09
7.28005e-09
2.94831e-12
4.44859e-12
6.94396e-12
1.137e-11
1.9299e-11
3.30789e-11
5.67366e-11
9.52065e-11
1.63548e-10
2.89073e-10
5.54687e-10
1.24951e-09
2.08493e-09
1.81934e-09
1.29498e-08
1.03234e-08
7.34175e-09
6.99767e-09
9.62525e-09
1.30234e-12
2.03774e-12
3.28433e-12
5.48501e-12
9.4185e-12
1.64745e-11
2.91636e-11
5.1755e-11
9.17493e-11
1.7034e-10
3.36383e-10
7.63131e-10
1.56509e-09
1.57987e-09
1.16793e-08
6.47852e-09
6.42009e-09
6.96778e-09
1.55446e-08
6.17862e-13
1.02479e-12
1.72205e-12
2.92682e-12
4.97954e-12
8.65707e-12
1.55185e-11
2.86213e-11
5.45799e-11
1.02139e-10
1.95002e-10
3.91099e-10
7.69833e-10
8.74571e-10
4.31965e-09
1.94963e-08
6.41284e-09
6.41993e-09
1.3658e-08
3.49237e-13
6.34011e-13
1.11172e-12
1.88538e-12
3.23767e-12
5.44489e-12
9.29953e-12
1.62011e-11
2.83059e-11
5.40597e-11
1.10771e-10
2.12642e-10
2.80587e-10
3.26836e-10
9.46322e-10
4.63972e-08
4.92947e-08
6.41297e-09
3.20043e-08
2.2239e-13
4.50527e-13
8.2231e-13
1.48224e-12
2.57689e-12
4.35911e-12
7.21288e-12
1.14793e-11
1.8458e-11
3.11776e-11
5.78056e-11
1.2636e-10
2.02008e-10
2.34777e-10
2.38041e-10
4.51002e-08
1.75992e-07
8.91151e-08
1.15747e-07
1.69583e-13
3.14914e-13
6.10968e-13
1.1961e-12
2.1802e-12
3.90735e-12
6.7578e-12
1.12794e-11
1.82328e-11
2.86601e-11
4.44186e-11
7.89279e-11
1.53451e-10
2.34907e-10
4.73697e-10
3.15544e-08
1.75978e-07
1.7601e-07
1.75978e-07
9.4844e-14
2.09946e-13
4.3809e-13
8.7978e-13
1.76312e-12
3.34875e-12
6.18878e-12
1.0947e-11
1.87343e-11
3.06519e-11
4.72427e-11
7.69956e-11
1.38526e-10
2.6346e-10
1.44908e-09
1.36737e-08
1.15308e-07
1.76003e-07
1.6935e-07
5.6629e-14
1.19081e-13
2.68542e-13
5.8955e-13
1.26272e-12
2.62628e-12
5.26258e-12
1.00898e-11
1.84414e-11
3.26112e-11
5.44862e-11
8.83953e-11
1.52189e-10
2.8287e-10
1.10527e-09
7.04216e-09
3.40235e-08
1.72369e-07
6.26515e-08
2.3066e-14
5.70208e-14
1.38845e-13
3.33488e-13
7.88647e-13
1.81742e-12
4.0251e-12
8.44669e-12
1.707e-11
3.29001e-11
6.15714e-11
1.0767e-10
1.79494e-10
3.24923e-10
7.00999e-10
2.98007e-09
1.10842e-08
2.75787e-08
3.30221e-09
8.48586e-15
2.24457e-14
5.94072e-14
1.57929e-13
4.18246e-13
1.08476e-12
2.70492e-12
6.38901e-12
1.4178e-11
2.93714e-11
5.88497e-11
1.1816e-10
2.1295e-10
3.532e-10
6.50817e-10
1.20237e-09
2.34869e-09
1.28628e-09
1.28463e-09
2.53763e-15
7.15734e-15
2.05794e-14
6.11203e-14
1.84373e-13
5.47469e-13
1.55439e-12
4.13306e-12
1.01899e-11
2.30321e-11
5.01618e-11
1.06184e-10
2.13302e-10
3.77667e-10
6.26413e-10
1.08572e-09
1.31806e-09
1.3035e-09
1.32452e-09
6.35034e-16
1.82416e-15
5.65356e-15
1.89096e-14
6.55069e-14
2.24917e-13
7.33507e-13
2.21223e-12
6.11056e-12
1.53461e-11
3.56876e-11
7.96225e-11
1.7889e-10
3.58708e-10
6.05112e-10
1.0115e-09
1.40514e-09
1.43292e-09
1.20376e-09
1.23554e-16
3.6746e-16
1.224e-15
4.60514e-15
1.84653e-14
7.40758e-14
2.82136e-13
9.8654e-13
3.11857e-12
8.87449e-12
2.2742e-11
5.37177e-11
1.25039e-10
2.81664e-10
5.50293e-10
9.01396e-10
1.29535e-09
1.4288e-09
9.94798e-10
2.07855e-17
5.90805e-17
1.99644e-16
8.08303e-16
3.65131e-15
1.68937e-14
7.50415e-14
3.06991e-13
1.13249e-12
3.74207e-12
1.10708e-11
2.93673e-11
7.34568e-11
1.80312e-10
4.15115e-10
7.56579e-10
1.11746e-09
1.25471e-09
7.47244e-10
2.8869e-18
7.26385e-18
2.24847e-17
9.06997e-17
4.34065e-16
2.24242e-15
1.15117e-14
5.5198e-14
2.40511e-13
9.50686e-13
3.37081e-12
1.08563e-11
3.13587e-11
8.16525e-11
2.05444e-10
4.47687e-10
7.2095e-10
7.73734e-10
3.59398e-10
)
;

boundaryField
{
    leftWall
    {
        type            zeroGradient;
    }
    rightWall
    {
        type            zeroGradient;
    }
    lowerWall
    {
        type            zeroGradient;
    }
    atmosphere
    {
        type            inletOutlet;
        inletValue      uniform 0;
        value           nonuniform List<scalar> 
46
(
2.18994e-09
1.59415e-09
1.06537e-09
0
0
0
0
0
0
0
0
0
0
0
0
0
0
0
0
0
0
1.76187e-18
3.17362e-19
2.61215e-19
4.89731e-19
9.88959e-19
1.75145e-18
2.8869e-18
7.26385e-18
2.24847e-17
9.06997e-17
4.34065e-16
2.24242e-15
1.15117e-14
5.5198e-14
2.40511e-13
9.50686e-13
3.37081e-12
1.08563e-11
3.13587e-11
8.16525e-11
2.05444e-10
4.47687e-10
7.2095e-10
7.73734e-10
3.59398e-10
)
;
    }
    defaultFaces
    {
        type            empty;
    }
}


// ************************************************************************* //
