/*--------------------------------*- C++ -*----------------------------------*\
| =========                 |                                                 |
| \\      /  F ield         | OpenFOAM: The Open Source CFD Toolbox           |
|  \\    /   O peration     | Version:  2312                                  |
|   \\  /    A nd           | Website:  www.openfoam.com                      |
|    \\/     M anipulation  |                                                 |
\*---------------------------------------------------------------------------*/
FoamFile
{
    version     2.0;
    format      ascii;
    arch        "LSB;label=32;scalar=64";
    class       volScalarField;
    location    "3.85";
    object      alphas;
}
// * * * * * * * * * * * * * * * * * * * * * * * * * * * * * * * * * * * * * //

dimensions      [0 0 0 0 0 0 0];

internalField   nonuniform List<scalar> 
2268
(
2
2
2
2
2
2
2
2
2
2
2
2
2
2
2
2
2
2
2
2
1.99999
1.99995
1.99995
2
2
2
2
2
2
2
2
2
2
2
2
2
2
2
2
2
2
2
2
2
1.99998
1.99996
2
2
2
2
2
2
2
2
2
2
2
2
2
2
2
2
2
2
2
2
2
2
2
2
2
2
2
2
2
2
2
2
2
2
2
2
2
2
2
2
2
1.99999
2
2
2
2
1.89491
1.89355
1.90383
1.92361
1.95152
1.98481
1.99987
1.99981
1.99996
2.00001
2.00001
2.00002
2
2
1.99998
1.99997
1.99994
1.99998
1.99996
1.99998
2
2
2.00029
0.479208
0.490305
0.512603
0.558654
0.634111
0.743645
0.90496
1.0984
1.29721
1.49625
1.6878
1.85067
1.95416
1.99996
1.99989
1.99937
1.99881
1.9997
1.99998
1.99989
2.00031
2.00115
2.00509
0.00211169
0.00411405
0.00646768
0.00636906
0.0059643
0.00470168
0.00264657
0.0144878
0.0474728
0.116343
0.24302
0.460362
0.744576
0.983642
1.21981
1.43679
1.5641
1.59049
1.58148
1.56484
1.50498
1.43352
1.39712
0.000962554
0.000964285
0.0017746
0.0015504
0.00112308
0.00101182
0.00106808
0.000950649
0.000595427
0.000425419
0.000423148
0.00056931
0.00575958
0.0251111
0.0395763
0.0359841
0.0791442
0.268632
0.35868
0.327181
0.259299
0.145446
0.138216
1.94339
1.94746
1.94984
1.96009
1.97037
1.96954
1.95929
1.95107
1.94817
1.94836
1.94829
1.94804
1.94805
1.95046
1.95811
1.96108
1.97066
1.96742
1.96727
1.80451
1.87216
1.89514
1.89993
1.90273
1.91874
1.94156
1.96007
1.96027
1.95167
1.95674
1.96515
1.96511
1.96182
1.96658
1.96679
1.97569
1.97816
1.97243
0.763089
0.840857
0.850728
0.924606
1.05842
1.17224
1.26757
1.32131
1.35598
1.48268
1.59594
1.63775
1.67112
1.69498
1.72003
1.71496
1.71567
1.78315
1.79562
0.331954
0.171305
0.0511595
0.058605
0.254499
0.427915
0.436236
0.271094
0.110451
0.220492
0.865439
1.03455
1.01991
0.948377
0.986871
1.22023
1.42953
1.49724
1.49527
0.335062
0.0401791
0.0503105
0.0561916
0.0470568
0.121261
0.105258
0.0497509
0.0965534
0.0901872
0.387249
0.388986
0.202594
0.136877
0.152338
0.286091
0.479906
0.981576
1.33322
0.115123
0.0830326
0.0405422
0.055493
0.0561132
0.0523025
0.0496039
0.0542467
0.375522
0.204105
0.135237
0.243398
0.177284
0.123521
0.12415
0.139314
0.139348
0.242696
0.614245
0.17676
0.180232
0.118331
0.0482966
0.0660266
0.0671106
0.0690135
0.241948
0.861902
0.607444
0.348454
0.399939
0.43753
0.229155
0.135084
0.17759
0.198821
0.111693
0.546625
0.242651
0.242378
0.200312
0.0775862
0.0621633
0.0700561
0.0892974
0.55227
0.904885
0.555308
0.578069
0.649845
0.59089
0.349874
0.240726
0.203061
0.203246
0.12549
0.485136
0.00095472
0.000956667
0.000957635
0.000912834
0.000891255
0.000885571
0.000927296
0.000953837
0.000710054
0.000393146
0.000427767
0.0273344
0.044321
0.0443425
0.0384687
0.0191679
0.0194051
0.0536306
0.163556
0.169997
0.134395
0.0657575
0.0176472
0.00105161
0.00346057
0.00132565
0.000994038
0.000921438
0.000861997
0.000927113
0.000916169
0.000835186
0.000722476
0.000638144
0.000627619
0.0177521
0.0458278
0.0454844
0.0438668
0.0228821
0.0381003
0.0692747
0.0338715
0.0283706
0.0360313
0.0210791
0.00720767
0.0102082
0.0303847
0.0420287
0.0588287
0.0658692
0.0630573
0.077056
0.0851856
0.0677067
0.0293742
0.0210314
0.0257246
0.0270077
0.0216231
0.0213952
0.0328638
0.0865835
0.091035
0.0455223
0.0358121
0.0351159
0.031107
0.20073
0.177348
0.239134
0.426963
0.573021
0.580561
0.515253
0.442795
0.442179
0.465696
0.501686
0.502001
0.499898
0.470695
0.393065
0.364813
0.438096
0.449914
0.420373
0.147032
0.0729161
0.141293
0.369275
0.873808
0.838157
0.895124
1.00646
1.0265
1.03246
1.05544
1.08729
1.11679
1.12512
1.11852
1.04565
1.04091
1.10951
1.12531
1.11591
1.13576
1.13577
1.01246
0.755296
0.757331
0.902104
1.01992
1.09807
1.0574
1.0095
1.00065
1.00059
1.00055
1.00059
1.00062
1.00397
1.00727
1.00077
1.00033
1.00032
1.00061
1.03249
1.14778
1.07069
1.00503
1.00488
1.00931
1.01541
1.0171
1.00447
1.11127
1.1025
1.09891
1.08869
1.08158
1.07757
1.07336
1.06508
1.0525
1.0341
1.01566
1.00187
0.99888
0.999757
1.00039
1.00081
1.00148
1.00225
1.00759
1.00374
1.00172
1.00173
1.00166
2.44443
2.46756
2.47926
2.46522
2.44676
2.43502
2.42502
2.40086
2.33913
2.25489
2.1376
1.96577
1.71669
1.42417
1.16481
1.02961
1.02642
1.07278
1.09387
1.04153
1.00167
1.00118
1.00031
2.99964
2.99941
2.99936
2.99908
2.99912
2.99905
2.99874
2.99793
2.99645
2.99203
2.98372
2.97691
2.97657
2.9343
2.83088
2.65868
2.3612
1.77498
1.12255
0.990555
0.994768
0.999572
1.00021
3
3
3
3
3
3
3
3
3
3
3
3
3
2.99998
2.99978
2.99961
2.99968
2.96967
2.92444
2.75435
2.00022
1.09607
1.00017
3
3
3
3
2.99999
3
3
3
3
3
2.99999
2.99998
2.99998
2.99998
2.99999
2.99999
2.99993
2.99997
2.99997
2.99985
2.96984
2.76891
2.20571
3
3
3
2.99999
2.99999
3
3
3
3
3
2.99995
2.99995
2.99995
2.99997
2.99999
2.99999
2.99999
2.99999
2.99999
2.99999
3
2.97855
2.9598
3
3
3
2.99999
2.99999
3
2.99999
2.99997
3
2.99999
2.99997
2.99997
3
3
3
3
2.99999
2.99999
2.99999
3
3
2.99998
2.99661
3
3
3
3
3
2.99999
2.99989
2.99985
2.99992
2.99999
2.99998
2.99998
3
3
3
2.99999
2.99999
3
3
3
3
3
3
3
3
3
3
3
2.99998
2.99985
2.99985
2.99986
2.99988
2.99986
2.99987
2.99996
3
3
3
2.99998
2.99997
2.99999
3
3
3
3
3
3
3
3
3
3
2.99996
2.99989
2.99988
2.99986
2.99984
2.99984
2.99985
2.99996
2.99995
2.99996
2.99995
2.99991
2.99991
2.99995
2.99998
2.99997
2.99996
3
3
3
3
3
3
3
3
3
3
2.99996
2.99991
2.9999
2.99993
2.99994
2.99994
2.99995
2.99995
2.9999
2.9999
2.9999
2.9999
2.9999
3
3
3
3
3
3
3
3
3
3
3
3
3
3
2.99999
2.99999
3
3
2.99999
2.99997
2.99996
2.99994
2.99994
3
3
3
3
3
3
3
3
3
3
3
3
3
3
3
3
3
3
3
3
3
3
3
3
3
3
3
3
3
3
3
3
3
3
3
3
3
3
3
3
3
3
3
3
3
3
3
3
3
3
3
3
3
3
3
3
3
3
3
3
3
3
3
3
3
3
3
3
3
3
3
3
3
3
3
3
3
3
3
3
3
3
3
3
3
3
3
3
3
3
3
3
3
3
3
3
3
3
3
3
3
3
3
3
3
3
3
3
3
3
3
3
3
3
3
3
3
3
3
3
3
3
3
3
3
3
3
3
3
3
3
3
3
3
3
3
3
3
3
3
3
3
3
3
3
3
3
3
3
3
3
3
3
3
3
3
3
3
3
3
3
3
3
3
3
3
3
3
3
3
3
3
3
3
3
3
3
3
3
3
3
3
3
3
3
3
3
3
3
3
3
3
3
3
3
3
3
3
3
3
3
3
3
3
3
3
3
3
3
3
3
3
3
3
3
3
3
3
3
3
3
3
3
3
3
3
3
3
3
3
3
3
3
3
3
3
3
3
3
3
3
3
3
3
3
3
3
3
3
3
3
3
3
3
3
3
3
3
3
3
3
3
3
3
3
3
3
3
3
3
3
3
3
3
3
3
3
3
3
3
3
3
3
3
3
3
3
3
3
3
3
3
3
3
3
3
3
3
3
3
3
3
3
3
3
3
3
3
3
3
3
3
3
3
3
3
3
3
3
3
3
3
3
3
3
3
3
3
3
3
3
3
3
3
3
3
3
3
3
3
3
3
3
3
3
3
3
3
3
3
3
3
3
3
3
3
3
3
3
3
3
3
3
3
3
3
3
3
3
3
3
3
3
3
3
3
3
3
3
3
3
3
3
3
3
3
3
3
3
3
3
3
3
3
3
3
3
3
3
3
3
3
3
3
3
3
3
3
3
3
3
3
3
3
3
3
3
3
3
3
3
3
3
3
3
3
3
3
3
3
3
3
3
3
3
3
3
3
3
3
3
3
3
3
3
3
3
3
3
3
3
3
3
3
3
3
3
3
3
3
3
3
3
3
3
3
3
3
3
3
3
3
3
3
3
3
3
3
3
3
3
3
3
3
3
3
3
3
3
3
3
3
3
3
3
3
3
3
3
3
3
3
3
3
3
3
3
3
3
3
3
3
3
3
3
3
3
3
3
3
3
3
3
3
3
3
3
3
3
3
3
3
3
3
3
3
3
3
3
3
3
3
3
3
3
3
3
3
3
3
3
3
0.0190787
0.0210894
0.062566
0.156005
0.0200502
0.0238194
0.0222263
0.021204
0.0270733
0.092103
0.242171
0.725461
0.826273
1.00239
1.07111
1.019
1.01235
1.02926
1.01444
1.00119
1.00215
1.00215
1.00213
0.992635
1.00044
0.999936
0.999495
0.992584
0.999427
0.998989
0.997496
0.980261
0.999525
0.998497
0.980997
1.00428
0.998559
0.981429
1.04004
1.98106
1.90114
1.97831
2.49755
2.92589
2.97799
2.98486
2.9445
2.94288
2.99769
2.99967
2.99857
2.99873
3
3
2.99999
2.99999
3
3
3
2.99999
2.99998
3
3
3
2.99993
2.99997
3
3
2.99996
2.99999
3
3
3
3
3
3
3
3
3
3
3
3
3
3
3
3
3
3
3
3
3
3
3
3
3
3
3
3
3
3
3
3
3
3
3
3
3
3
3
3
3
3
3
3
3
3
3
3
3
3
3
3
3
3
3
3
3
3
3
3
3
3
3
3
3
3
3
3
3
3
3
3
3
3
3
3
3
3
3
3
3
3
3
3
3
3
3
3
3
3
3
3
3
3
3
3
3
3
0.284249
0.290722
0.225428
0.117694
0.137586
0.159409
0.190522
0.835418
0.880819
0.666036
0.715548
0.883289
0.753929
0.416026
0.307207
0.202342
0.201855
0.150094
0.115397
0.389291
0.438277
0.374424
0.557304
0.508231
0.502487
0.717878
0.880913
1.01693
1.13342
1.15588
1.16393
1.05134
0.817005
0.710235
0.620083
0.531066
0.269303
0.164935
1.06373
1.03988
0.93113
1.03817
1.06263
1.12318
1.02689
0.915259
0.928309
1.03917
1.05694
1.01493
1.02722
1.07799
1.10112
1.04911
1.00538
0.89501
0.701073
1.00367
1.05856
1.03512
1.00947
1.12568
1.21676
0.962063
0.961632
1.05361
1.03182
1.00516
1.00608
1.01192
1.05824
1.09372
1.09199
1.032
1.00582
1.01864
1.00284
1.0041
1.00193
1.00184
1.08611
1.19324
1.1379
1.25563
1.25894
1.06132
1.00298
1.0036
1.0038
1.00674
1.00702
1.09681
1.08249
1.00392
1.00454
0.995915
1.00118
1.00137
1.0013
1.02288
1.08042
1.05254
1.04108
1.06199
1.02228
0.996752
0.997831
1.00172
1.0027
1.00404
1.05494
1.12334
1.01883
1.00433
0.988453
0.999949
1.00032
1.00017
0.99993
0.999911
0.999683
1.00045
1.00264
1.00277
0.997633
0.996779
1.00167
1.09011
1.25364
1.48981
1.64058
1.74511
1.32498
0.98486
0.999968
0.999004
1.04181
1.16326
1.41036
1.78635
2.05124
2.11905
2.07871
1.98518
1.90636
1.98774
2.35717
2.5967
2.77746
2.8493
2.92445
2.97376
1.57907
2.01633
2.16022
2.44779
2.70736
2.9449
2.99242
2.99559
2.99718
2.99598
2.98872
2.97771
2.98383
2.99566
2.99737
2.9987
2.99973
2.99973
2.99935
2.83579
2.96175
2.9902
2.98959
2.99641
2.99939
2.99996
2.99996
2.99999
2.99999
2.99997
2.99978
2.99987
3
3
3
3
3
2.99999
2.95694
2.99794
2.99914
2.99999
2.99998
2.99995
2.99981
2.99975
2.99981
2.99999
2.99999
2.99999
2.99999
2.99997
2.99994
2.99983
2.99971
2.99966
2.99974
2.99676
3
3
2.99999
2.99983
2.99966
2.99973
2.99974
2.99974
2.99977
2.99998
2.99999
2.99999
2.9998
2.99947
2.99947
2.99947
2.99947
2.99949
3
3
3
2.99998
2.99968
2.99965
2.99971
2.99987
2.99982
2.99975
2.9998
2.99994
2.99998
2.99976
2.9995
2.99947
2.99974
2.99983
2.99978
2.99999
2.99999
3
2.99999
2.99976
2.99969
2.99987
2.99999
2.99999
2.99996
2.9999
2.99977
2.99955
2.99955
2.99955
2.99977
2.99992
2.99994
2.99994
2.99998
2.99998
2.99999
2.99998
2.9999
2.99989
2.99996
2.99999
2.99998
3
3
2.99995
2.99988
2.9998
2.99963
2.99973
2.99993
2.99994
2.9999
2.99999
2.99999
2.99996
2.99995
2.99995
2.99996
2.99998
2.99991
2.99991
2.99993
2.99992
2.99996
2.99999
2.99999
2.99995
2.99976
2.99975
2.99994
2.99982
3
3
2.99999
2.99996
2.99991
2.9999
2.99993
2.99994
2.99992
2.99982
2.9998
2.99977
2.99984
2.99998
2.99999
2.99984
2.99971
2.99991
2.99982
3
3
3
3
2.9999
2.9999
2.9999
2.99992
2.99999
2.99997
2.99985
2.99977
2.99978
2.9999
2.99999
2.99984
2.9997
2.99984
2.99989
3
3
3
3
2.99998
2.99992
2.99991
2.99996
3
3
2.99996
2.99979
2.99978
2.99981
2.99998
2.99977
2.9997
2.99981
3
3
3
3
3
3
3
2.99999
3
3
3
2.99998
2.99979
2.99978
2.99982
2.99995
2.99975
2.99977
2.99997
3
3
3
3
3
3
3
3
3
3
3
3
2.99987
2.9998
2.9999
2.99997
2.99975
2.99989
3
3
3
3
3
3
3
3
3
3
3
3
3
2.99999
2.99997
2.99999
2.99997
2.99994
2.99999
3
3
3
3
3
3
3
3
3
3
3
3
3
3
3
3
2.99999
3
3
3
3
3
3
3
3
3
3
3
3
3
3
3
3
3
3
3
3
3
3
3
3
3
3
3
3
3
3
3
3
3
3
3
3
3
3
3
3
3
3
3
3
3
3
3
3
3
3
3
3
3
3
3
3
3
3
3
3
3
3
3
3
3
3
3
3
3
3
3
3
3
3
3
3
3
3
3
3
3
3
3
3
3
3
3
3
3
3
3
3
3
3
3
3
3
3
3
3
3
3
3
3
3
3
3
3
3
3
3
3
3
3
3
3
3
3
3
3
3
3
3
3
3
3
3
3
3
3
3
3
3
3
3
3
2.99999
3
3
3
3
3
3
3
3
3
3
3
3
3
3
3
3
3
3
2.99999
3
3
3
3
3
3
3
3
3
3
3
3
3
3
3
3
3
3
2.99999
3
3
3
3
3
3
3
3
3
3
3
3
3
3
2.99999
2.99999
3
3
3
3
3
3
3
3
3
3
3
3
3
3
3
3
3
2.99999
2.99999
2.99999
3
3
3
3
3
3
3
3
3
3
3
3
3
3
3
3
2.99999
2.99999
2.99999
3
3
3
3
3
3
3
3
3
3
3
3
3
3
3
3
3
2.99999
2.99999
2.99999
2.99999
3
3
3
3
3
3
3
3
3
3
3
3
3
3
3
3
2.99999
3
3
3
3
3
3
3
3
3
3
3
3
3
3
3
3
3
3
3
3
3
3
3
3
3
3
3
3
3
3
3
3
3
3
3
3
3
3
3
3
3
3
3
3
3
3
3
3
3
3
3
3
3
3
3
3
3
3
3
3
3
3
3
3
3
3
3
3
3
3
3
3
3
3
3
3
3
3
3
3
3
3
3
3
3
3
3
3
3
3
3
3
3
3
3
3
3
)
;

boundaryField
{
    leftWall
    {
        type            calculated;
        value           nonuniform List<scalar> 
50
(
2
2
2
2
1.89491
0.479208
0.00211169
0.000962554
0.00095472
0.00105161
0.00720767
0.20073
0.873808
1.09807
1.11127
2.44443
2.99964
3
3
3
3
3
3
3
3
3
3
3
3
3
3
3
3
3
3
3
3
3
3
3
3
3
3
3
3
3
3
3
3
3
)
;
    }
    rightWall
    {
        type            calculated;
        value           nonuniform List<scalar> 
50
(
1.96727
1.97243
1.79562
1.49527
1.33322
0.614245
0.546625
0.485136
0.115397
0.164935
0.701073
1.01864
1.00454
1.00433
1.32498
2.97376
2.99935
2.99999
2.99974
2.99949
2.99978
2.99994
2.9999
2.99982
2.99982
2.99989
3
3
3
3
3
3
3
3
3
3
3
2.99999
2.99999
2.99999
3
3
3
2.99999
3
3
3
3
3
3
)
;
    }
    lowerWall
    {
        type            calculated;
        value           nonuniform List<scalar> 
62
(
2
2
2
2
2
2
2
2
2
2
2
2
2
2
2
2
2
2
2
2
1.99999
1.99995
1.99995
1.99995
1.99996
2
2
2.00029
2.00509
1.39712
0.138216
0.0190787
0.0210894
0.062566
0.156005
1.94339
1.80451
0.763089
0.331954
0.335062
0.115123
0.17676
0.242651
1.94339
1.94746
1.94984
1.96009
1.97037
1.96954
1.95929
1.95107
1.94817
1.94836
1.94829
1.94804
1.94805
1.95046
1.95811
1.96108
1.97066
1.96742
1.96727
)
;
    }
    atmosphere
    {
        type            calculated;
        value           nonuniform List<scalar> 
46
(
3
3
3
3
3
3
3
3
3
3
3
3
3
3
3
3
3
3
3
3
3
3
3
3
3
3
3
3
3
3
3
3
3
3
3
3
3
3
3
3
3
3
3
3
3
3
)
;
    }
    defaultFaces
    {
        type            empty;
    }
}


// ************************************************************************* //
