/*--------------------------------*- C++ -*----------------------------------*\
| =========                 |                                                 |
| \\      /  F ield         | OpenFOAM: The Open Source CFD Toolbox           |
|  \\    /   O peration     | Version:  2312                                  |
|   \\  /    A nd           | Website:  www.openfoam.com                      |
|    \\/     M anipulation  |                                                 |
\*---------------------------------------------------------------------------*/
FoamFile
{
    version     2.0;
    format      ascii;
    arch        "LSB;label=32;scalar=64";
    class       volScalarField;
    location    "3.85";
    object      p_rgh;
}
// * * * * * * * * * * * * * * * * * * * * * * * * * * * * * * * * * * * * * //

dimensions      [1 -1 -2 0 0 0 0];

internalField   nonuniform List<scalar> 
2268
(
5033.5
5041.91
5060.56
5090.73
5133.51
5188.98
5256.43
5334.79
5422.98
5519.58
5622.34
5727.39
5829.42
5923.66
6007.61
6079.84
6138.63
6183.46
6215.18
6235.75
6247.85
6254.35
6256.77
5031.42
5039.61
5057.89
5087.8
5130.51
5186.07
5253.66
5332.16
5420.59
5517.68
5621.36
5727.73
5830.96
5925.86
6010.17
6082.7
6141.37
6185.59
6216.27
6235.71
6246.68
6251.82
6253.55
5027.92
5035.2
5052.57
5081.91
5124.47
5180.21
5248.07
5326.81
5415.68
5513.7
5619.17
5728.22
5833.96
5930.17
6015.12
6088.33
6146.87
6189.92
6218.59
6235.83
6244.68
6247.37
6248.23
5022.43
5028.55
5044.63
5073.15
5115.57
5171.75
5240.09
5319.11
5408.39
5507.46
5615.33
5728.46
5838.26
5936.51
6022.49
6097.08
6155.34
6196.62
6222.12
6235.98
6241.85
6240.72
6240.37
4849.64
4850.97
4880.96
4940.78
5028.11
5136.41
5228.21
5307.57
5397.94
5498.53
5609.52
5728.51
5844.29
5944.67
6031.35
6108.3
6166.61
6205.37
6226.1
6235.32
6237.71
6230.98
6228.36
2225.58
2249.13
2298.81
2403.56
2581.56
2833.52
3196.97
3631.61
4086.3
4553.23
5018.11
5446.22
5766.62
5955.46
6044.72
6121.1
6176.44
6215.57
6231.15
6233.12
6231.66
6212.73
6194.16
1189.5
1188.82
1188.42
1188.54
1189.03
1190.49
1196.86
1231.47
1318.44
1495.34
1816.73
2362.97
3092.37
3711.69
4324.05
4889.62
5233.06
5282.64
5173.39
5079.49
5051.9
4899.22
4824.52
1189.18
1188.41
1188.05
1188.02
1188.43
1189.24
1190.76
1192.47
1193.7
1192.72
1189.3
1182.48
1175.62
1193.44
1236.15
1254.66
1369.44
1664.24
1722.84
1662.83
1621.12
1532.2
1573.08
2711.88
2719.36
2729.19
2736.43
2752.18
2782.96
2819.11
2860.26
2900.66
2943.66
3000.23
3054.94
3096.52
3130.02
3183.82
3253.27
3341.37
3450.62
3539.85
2653.82
2659.37
2684.44
2690.41
2706.59
2751.19
2806.54
2855.84
2892.96
2929.34
2997.18
3061.26
3102.93
3128.9
3176.95
3245.94
3338.99
3453.59
3551.42
1694.87
1710.13
1715.76
1749.51
1830.43
1937.19
2045.66
2159.39
2274
2392.31
2482.08
2559.46
2651.46
2704.52
2780.9
2847.85
2936.49
3142.21
3283.52
1151.15
1177.21
1185.59
1168.53
1128.5
1092.36
1077.96
1097.89
1132.06
1187.44
1450.77
1642.78
1687.78
1670.13
1672.82
1947.7
2286.63
2489.51
2606.83
1153.73
1206.02
1202.25
1188.03
1165.34
1130.11
1115.61
1115.6
1107.05
1107.83
1016.28
1010.7
1040.24
1055.06
1055.99
1043.11
1204.08
1658.19
2383.22
1186.75
1200.51
1195.71
1183.98
1195.38
1182.07
1161.85
1126.1
1131.24
1100.82
1058.04
1031.94
1043.66
1056.68
1060.29
1062.94
1064.93
1031
1102.75
1226.51
1249
1201.32
1160
1148.03
1139.57
1115.85
1116.68
1044.24
1003.12
1016.2
1008.29
1034.63
1063.34
1060.17
1053.64
1055.28
1053.82
958.242
1437.65
1386.12
1256.27
1145.95
1138.63
1125.01
1107.36
1096.09
1027.94
987.007
966.26
1022.77
1078.76
1118.84
1045.42
1046.87
1047.77
1054.22
971.783
1187.03
1186.46
1186.15
1186
1185.85
1186.23
1187
1188.02
1188.54
1188.36
1186.87
1179.11
1172.63
1172.25
1174.77
1183.25
1189.54
1189.29
1170.9
1179.93
1192.43
1212.62
1222.43
1186.25
1184.26
1183.44
1181.85
1181.21
1181.43
1182.39
1183.13
1183.58
1184.58
1185.31
1186.09
1191.21
1192.34
1192.74
1190.16
1202.68
1219.84
1223.07
1224.42
1225.06
1222.05
1215.83
1184.38
1182.55
1174.52
1175.81
1168.49
1165.68
1162.2
1157.98
1158.25
1164.8
1175.23
1180.66
1202.98
1213.22
1220.23
1227.02
1226.71
1215.22
1223.18
1234.74
1239.6
1248.54
1229.22
1123.34
1124.08
1111.85
1044.45
983.176
968.949
982.732
1016.37
1024.08
1020.57
1004.63
1005.26
1016.54
1030.6
1063.06
1082.89
1106.21
1144.55
1167.1
1254.06
1246.61
1229.83
1115.97
803.373
823.112
791.846
741.2
732.476
719.958
694.133
688.081
686.375
691.388
697.126
716.971
715.82
703.677
716.993
748.03
795.482
814.852
861.635
952.178
956.617
881.545
792.384
668.293
682.539
695.656
700.39
702.051
703.283
704.955
706.565
705.282
707.198
713.474
718.917
725.443
731.009
727.522
700.191
751.712
796.215
783.605
777.957
797.458
797.933
789.487
658.685
661.791
664.396
669.179
672.286
674.404
677.481
681.235
686.481
694.662
705.617
716.976
725.124
731.597
738.748
745.228
751.848
760.075
770.371
783.646
795.578
804.41
808.264
210.939
206.134
207.55
213.45
220.324
224.754
228.729
238.195
257.526
283.324
328.608
401.529
495.659
603.978
689.387
737.545
746.993
742.307
747.436
776.697
805.947
819.628
825.714
0.565469
1.03579
2.26398
4.76072
5.88416
6.40151
7.06532
6.53744
5.40578
6.29803
10.7379
16.5247
28.5859
51.3149
91.7093
156.828
258.68
494.375
755.684
812.886
820.25
830.048
842.55
0.123878
0.123077
0.117876
0.111749
0.111265
0.110886
0.109204
0.110586
0.111912
0.104701
0.0883709
0.0706872
0.0492597
0.493771
4.99509
9.09766
7.55071
18.496
39.8447
112.903
435.823
820.108
861.135
0.111871
0.111435
0.109112
0.106614
0.10499
0.101091
0.0970238
0.101916
0.105128
0.0965628
0.0947576
0.0960518
0.0557753
0.0110749
-0.0446376
-0.0253342
0.597471
0.560973
0.449697
0.262723
17.9332
111.34
371.328
0.100586
0.100135
0.100144
0.0985165
0.0963014
0.0928213
0.0897109
0.102821
0.0945882
0.0775314
0.160672
0.139302
0.1017
0.0287074
-0.0225998
-0.0619145
-0.115894
-0.107325
-0.0259988
-0.158648
-0.330868
13.4379
25.6311
0.0900889
0.089141
0.0883673
0.0889417
0.0875218
0.0857051
0.0868058
0.0975444
0.0683247
0.0555658
0.0640503
0.082861
-0.0189902
-0.0477466
-0.081106
-0.115669
-0.153282
-0.195467
-0.246313
-0.290778
-0.347439
0.0648492
2.71549
0.0805275
0.0793819
0.0776336
0.0767623
0.0772766
0.0808528
0.126575
0.138099
0.0891672
0.0389436
0.0265473
0.0026283
-0.0279075
-0.0541911
-0.0837125
-0.114786
-0.15142
-0.198164
-0.238936
-0.263745
-0.213184
-0.296008
-0.410553
0.0719043
0.0706246
0.0687962
0.0672532
0.0666232
0.0724392
0.139178
0.133147
0.124009
0.098644
0.0984347
0.0743873
-0.00260258
-0.0506909
-0.0805364
-0.110684
-0.136532
-0.167885
-0.211644
-0.235097
-0.265301
-0.323529
-0.345339
0.0640686
0.0626997
0.0606841
0.0576821
0.0526923
0.0498678
0.0693596
0.107699
0.0965898
0.101683
0.10472
0.107113
0.0957168
0.00619679
-0.0321856
-0.074515
-0.0956716
-0.0864571
-0.111898
-0.174651
-0.21882
-0.238878
-0.240956
0.0569391
0.0554906
0.0532482
0.049769
0.0452086
0.0388804
0.0314559
0.0221704
0.0126008
0.00288901
0.0173166
0.0592115
0.063792
0.0317278
-0.00215176
-0.0481966
-0.0749941
-0.0665026
-0.028565
-0.0421499
-0.0585291
-0.0833189
-0.085835
0.0504476
0.048967
0.0466251
0.043121
0.0385728
0.0327201
0.0256479
0.0174437
0.00825323
-0.00214898
-0.0137237
-0.0254643
-0.0258412
-0.0386616
-0.0669709
-0.0813723
-0.0995997
-0.105674
-0.0866683
-0.0830985
-0.0877621
-0.0774976
-0.0567415
0.0445483
0.0430702
0.0407499
0.0373338
0.0329405
0.0275098
0.0209992
0.0135093
0.00507002
-0.00440557
-0.0150135
-0.0270446
-0.0403168
-0.053709
-0.0670927
-0.0812413
-0.0956836
-0.109467
-0.121406
-0.129726
-0.13455
-0.1294
-0.11556
0.0392202
0.0377559
0.0355043
0.0322318
0.0280632
0.022995
0.0170154
0.0101428
0.00240063
-0.00623316
-0.0157779
-0.0261546
-0.0371737
-0.0486506
-0.0604467
-0.0723547
-0.0840207
-0.0948487
-0.104117
-0.111008
-0.114913
-0.114997
-0.110857
0.0344318
0.03299
0.0308263
0.0277217
0.0238012
0.0190803
0.0135833
0.00733222
0.000350445
-0.00734702
-0.0157264
-0.0247105
-0.0341741
-0.0439666
-0.0539084
-0.0637618
-0.0731869
-0.0817293
-0.0888384
-0.0939294
-0.0964876
-0.096006
-0.0926767
0.0301366
0.0287342
0.0266673
0.0237336
0.0200655
0.0156941
0.0106622
0.00500398
-0.00124859
-0.00806582
-0.0154005
-0.0231776
-0.0312897
-0.0396003
-0.0479357
-0.0560681
-0.0637027
-0.0704761
-0.0759693
-0.079759
-0.0814572
-0.0808333
-0.0780752
0.0262931
0.0249295
0.0229678
0.0202107
0.0167963
0.0127738
0.00819753
0.00311
-0.0024528
-0.00845407
-0.0148461
-0.0215591
-0.0284967
-0.0355333
-0.042509
-0.0492222
-0.0554255
-0.0608303
-0.0651193
-0.0679812
-0.0691707
-0.0686561
-0.0661057
0.0228298
0.0215107
0.0196545
0.017076
0.0139168
0.0102396
0.00610665
0.001565
-0.00334805
-0.00859698
-0.0141375
-0.0199071
-0.0258198
-0.0317632
-0.0375954
-0.0431423
-0.0481989
-0.0525367
-0.0559141
-0.0580994
-0.0589112
-0.0582967
-0.0561616
0.0196936
0.0184097
0.0166593
0.0142582
0.0113517
0.00801348
0.00431113
0.000291805
-0.00401115
-0.00856796
-0.0133406
-0.0182745
-0.023294
-0.0283004
-0.0331705
-0.0377567
-0.0418908
-0.0453915
-0.0480727
-0.0497585
-0.0503148
-0.0497084
-0.0479105
0.0168026
0.0155614
0.0139155
0.0116909
0.00903551
0.00603156
0.00274828
-0.000771348
-0.00450256
-0.00842423
-0.012506
-0.0167009
-0.0209431
-0.0251472
-0.0292076
-0.0330004
-0.0363882
-0.0392261
-0.0413692
-0.0426832
-0.0430683
-0.0425033
-0.0409775
0.0141205
0.0129066
0.0113672
0.00932045
0.00691687
0.00424503
0.00137086
-0.00167107
-0.00486785
-0.00820838
-0.01167
-0.0152128
-0.0187797
-0.0222968
-0.0256747
-0.0288097
-0.0315891
-0.0338969
-0.0356195
-0.0366532
-0.036923
-0.036415
-0.0351207
0.0115657
0.0103984
0.00897009
0.00710636
0.00495785
0.00261926
0.000144377
-0.00244196
-0.00514103
-0.00795169
-0.0108581
-0.0138265
-0.016807
-0.0197357
-0.0225366
-0.0251234
-0.0274036
-0.0292833
-0.0306725
-0.0314911
-0.0316815
-0.0312328
-0.0301368
0.00911929
0.00799399
0.00669773
0.00502658
0.00314818
0.00113986
-0.000950506
-0.00310712
-0.00534584
-0.00767533
-0.0100865
-0.01255
-0.0150215
-0.0174454
-0.0197569
-0.0218842
-0.0237512
-0.0252815
-0.0264033
-0.0270532
-0.0271869
-0.0267946
-0.0258643
0.00676909
0.00570152
0.00458422
0.00340332
0.00202968
-0.000173747
-0.00193351
-0.00368501
-0.00549768
-0.00739091
-0.00936175
-0.0113826
-0.0134131
-0.0154036
-0.0172987
-0.0190385
-0.0205605
-0.0218024
-0.0227059
-0.0232211
-0.0233129
-0.0229711
-0.0221812
0.00474192
0.0036046
0.00280593
0.00277119
0.0015518
-0.000946162
-0.00230557
-0.00415218
-0.00560552
-0.00710225
-0.00868218
-0.0103165
-0.011966
-0.0135851
-0.0151253
-0.0165367
-0.0177682
-0.0187692
-0.0194925
-0.019898
-0.0199575
-0.0196604
-0.0189885
0.00278913
0.00169008
0.00132507
0.00173746
0.00142561
0.00237088
0.000999185
-0.00395325
-0.00566861
-0.00680532
-0.0080386
-0.00933706
-0.0106594
-0.0119616
-0.0131998
-0.0143322
-0.0153178
-0.016116
-0.0166886
-0.0170032
-0.017037
-0.0167785
-0.0162083
0.00106899
3.16603e-06
0.000100696
0.000830811
0.00108279
0.00188614
0.00130787
-0.002937
-0.00567102
-0.00648464
-0.00741577
-0.00842562
-0.00946962
-0.0105034
-0.011486
-0.0123818
-0.0131586
-0.013785
-0.0142306
-0.0144691
-0.0144818
-0.014257
-0.0137739
-0.000443078
-0.00143449
-0.000963532
-0.000314794
-0.000487688
0.00116217
0.000822013
-0.00444458
-0.00557583
-0.00611877
-0.00679588
-0.0075631
-0.00837321
-0.00918151
-0.00994909
-0.0106453
-0.0112452
-0.0117256
-0.0120635
-0.012238
-0.0122335
-0.0120385
-0.0116321
-0.00129757
-0.00241303
-0.00179409
-0.00187322
-0.00335558
-0.00382752
-0.00336937
-0.00510612
-0.00535
-0.00569347
-0.00616692
-0.00673559
-0.0073513
-0.00797075
-0.00855805
-0.00908653
-0.00953672
-0.00989307
-0.0101397
-0.0102604
-0.0102423
-0.0100746
-0.0097363
-0.00190345
-0.00297714
-0.00254814
-0.00272447
-0.00488994
-0.00487975
-0.00473311
-0.00489174
-0.0050081
-0.00521049
-0.00552935
-0.00593874
-0.00639299
-0.006853
-0.00728764
-0.00767438
-0.00799805
-0.00824887
-0.00841778
-0.00849355
-0.00846538
-0.00832298
-0.0080451
-0.00198758
-0.00287266
-0.00339782
-0.00407195
-0.00472764
-0.00449637
-0.00447798
-0.00457516
-0.00459045
-0.00468849
-0.00489693
-0.00517915
-0.00549705
-0.00581899
-0.0061207
-0.00638487
-0.0066001
-0.00676052
-0.00686282
-0.00690079
-0.00686547
-0.00674683
-0.00652255
-0.00183706
-0.0023355
-0.00314233
-0.00385853
-0.00414388
-0.00394845
-0.00418512
-0.00414143
-0.0041078
-0.00416062
-0.00429424
-0.00447278
-0.00467109
-0.00486828
-0.00504889
-0.0052021
-0.00532077
-0.00540175
-0.00544535
-0.00545069
-0.00541073
-0.00531391
-0.00513911
-0.00142265
-0.00165823
-0.0024448
-0.00308073
-0.00327847
-0.00336082
-0.00360672
-0.00363052
-0.00362746
-0.00366874
-0.0037499
-0.00383958
-0.00392789
-0.00400707
-0.00407161
-0.00411824
-0.0041451
-0.00415207
-0.00414161
-0.00411666
-0.00407356
-0.00399752
-0.00386864
-0.00123268
-0.00114005
-0.00175961
-0.00211393
-0.00233809
-0.00277288
-0.00300212
-0.00312884
-0.00319602
-0.00324372
-0.00328047
-0.00329067
-0.00327607
-0.00324171
-0.00319205
-0.00313176
-0.00306531
-0.00299719
-0.00293239
-0.00287614
-0.0028281
-0.00277292
-0.00268834
-0.000900368
-0.000734673
-0.00104629
-0.00114061
-0.00154299
-0.00207628
-0.00245465
-0.00269285
-0.0028307
-0.00289015
-0.0028848
-0.00282077
-0.00270986
-0.00256769
-0.00240729
-0.00224034
-0.00207739
-0.00192845
-0.00180325
-0.00171111
-0.00165615
-0.00162234
-0.00157515
-0.000359325
-0.000332309
-0.000296011
-0.000366287
-0.00101979
-0.00161293
-0.00207809
-0.00239993
-0.00258684
-0.00264451
-0.00258745
-0.00244175
-0.00223126
-0.00198075
-0.00171038
-0.00143716
-0.00117577
-0.000939731
-0.000742657
-0.000600396
-0.000526694
-0.00050636
-0.000502838
1224.47
1227.43
1357.64
1632.18
1199.29
1184.61
1168.98
1154.78
1201.44
1177.69
1122.94
929.705
884.485
808.808
785.248
799.507
780.532
778.396
793.562
808.865
791.238
791.691
792.425
799.575
805.221
803.815
802.471
804.645
821.987
818.256
817.276
828.145
840.916
836.94
853.073
938.908
863.784
877.886
917.313
579.218
512.247
477.047
253.007
168.05
20.3115
25.4755
52.2373
50.2272
1.96494
0.0616023
0.439527
0.36577
-0.452945
-0.444982
-0.421119
-0.374149
-0.343868
-0.33618
-0.319765
-0.283937
-0.248814
-0.249986
-0.235417
-0.214119
-0.0901364
-0.154737
-0.177713
-0.162525
-0.0660246
-0.100197
-0.135534
-0.127608
-0.107296
-0.108211
-0.10935
-0.10344
-0.105202
-0.0994132
-0.0926837
-0.0859113
-0.0877526
-0.0835334
-0.0785665
-0.0727875
-0.0739141
-0.070561
-0.0666386
-0.0620609
-0.0626515
-0.059934
-0.0567702
-0.0531161
-0.0533236
-0.0511053
-0.0485343
-0.0455973
-0.0455575
-0.0437361
-0.0416317
-0.0392466
-0.039029
-0.037528
-0.0357986
-0.033846
-0.0335002
-0.0322569
-0.0308278
-0.0292191
-0.0287824
-0.0277463
-0.0265609
-0.0252296
-0.0247313
-0.0238689
-0.0228782
-0.0217715
-0.021229
-0.0205063
-0.0196795
-0.0187587
-0.0181875
-0.0175823
-0.0168904
-0.0161233
-0.0155352
-0.0150287
-0.0144509
-0.0138106
-0.0132095
-0.0127863
-0.0123034
-0.0117705
-0.0111614
-0.0108088
-0.0104062
-0.00996411
-0.00934593
-0.00905352
-0.00872058
-0.00835628
-0.00772501
-0.00748596
-0.00721405
-0.00691715
-0.00626608
-0.00607517
-0.00585744
-0.00561939
-0.00494135
-0.00479376
-0.00462445
-0.00443886
-0.00372467
-0.00361664
-0.00349135
-0.00335272
-0.00259353
-0.00252166
-0.0024366
-0.00234098
-0.0015235
-0.00148395
-0.00143534
-0.00137886
-0.000495221
-0.000488323
-0.000476529
-0.0004596
1560.64
1521.95
1198.47
1124.62
1124.59
1117.65
1100.89
1042.82
1029.46
1076.81
1043.05
1013.87
1038.1
1095.38
1038.49
1056.91
1055.66
1074.93
1064.24
1025.51
1003.21
1024.98
992.978
1088.44
1084.11
992.012
933.867
911.518
885.919
925.749
916.821
897.472
907.204
906.802
936.995
1003.15
1091.24
1113.56
794.168
800.914
852.471
894.553
886.882
877.558
850.379
861.42
834.886
779.318
829.896
854.117
803.224
810.062
819.627
824.952
826.72
868.855
948.314
824.613
777.293
814.596
868.671
866.405
829.688
858.133
849.658
803.337
788.514
764.987
754.693
758.796
756.548
746.181
739.419
760.214
747.357
765.684
826.98
788.852
783.586
773.302
796.024
768.794
765.414
699.013
701.024
747.299
737.635
739.479
731.715
721.937
713.178
686.555
692.168
732.703
732.115
842.051
792.621
776.574
764.11
743.079
730.825
724.448
720.469
714.365
724.023
729.898
727.292
720.991
717.385
712.404
693.293
726.072
748.886
710.107
859.032
797.346
772.933
759.097
748.396
738.722
729.498
734.098
759.803
761.132
744.137
737.466
732.118
705.192
678.933
658.359
604.09
532.71
591.886
911.061
839.029
773.416
743.64
692.196
621.017
508.288
413.506
392.231
408.244
443.426
475.06
458.792
352.624
268.767
206.021
158.98
122.389
77.1016
713.919
527.236
395.937
229.287
129.751
65.4165
48.2797
39.335
30.7929
32.8749
44.9308
66.1789
69.4558
55.8904
40.2248
19.3184
4.11932
5.61034
14.4654
216.131
141.324
42.0943
15.5151
4.40623
3.92354
0.973683
0.376884
0.376474
0.404671
0.866669
5.2821
3.21374
0.303243
0.304261
0.320021
0.419357
0.445836
0.430558
142.73
26.307
2.61122
0.433431
0.366113
0.319436
0.387784
0.394164
0.330352
0.314251
0.326722
0.302453
0.242897
0.26214
0.35607
0.524757
0.677726
0.709175
0.536422
6.30956
0.151231
0.262999
0.312868
0.390952
0.498299
0.431392
0.372105
0.327815
0.31752
0.238178
0.229845
0.234073
0.59805
0.971422
1.002
1.02609
1.01335
0.859008
-0.264835
-0.0233681
0.12261
0.228024
0.518156
0.437417
0.357199
0.249513
0.262113
0.307209
0.293114
0.210741
0.259716
0.749033
0.932722
0.960089
0.511231
0.327932
0.383592
-0.253146
-0.0999267
0.0244126
0.161638
0.481941
0.494291
0.222494
0.145566
0.144921
0.164766
0.195751
0.26127
0.409081
0.45743
0.463783
0.307902
0.221439
0.223621
0.265057
-0.204931
-0.11028
-0.019321
0.0835645
0.352734
0.392176
0.166251
0.118234
0.124892
0.112509
0.107703
0.128199
0.161337
0.202174
0.316723
0.288909
0.191941
0.207598
0.384402
-0.166268
-0.0934759
-0.0177343
0.0509682
0.134543
0.293027
0.274991
0.181008
0.1627
0.143778
0.152571
0.112562
0.0904621
0.0883742
0.119957
0.255698
0.287524
0.203377
0.419575
-0.132196
-0.0878754
-0.0388034
0.0174845
0.0697214
0.111109
0.159802
0.16373
0.164756
0.261695
0.276453
0.267731
0.195899
0.0927319
0.0949693
0.207263
0.311383
0.355307
0.415068
-0.106512
-0.0752426
-0.0458519
-0.0180036
0.0641008
0.0860304
0.115249
0.126033
0.14065
0.157474
0.27348
0.299548
0.265849
0.167404
0.0941741
0.20469
0.321367
0.508801
0.351398
-0.0875222
-0.0636985
-0.0411807
-0.0222239
0.00845319
0.0662189
0.0860228
0.0623182
0.0669935
0.129785
0.166685
0.316023
0.280015
0.255708
0.100215
0.25025
0.424544
0.52783
0.10704
-0.0732591
-0.0548845
-0.036995
-0.0210781
-0.00702116
0.00807066
0.0188913
0.0249927
0.0377127
0.088984
0.144937
0.298876
0.269253
0.23544
0.113094
0.264915
0.43334
0.327838
0.0950843
-0.0625321
-0.0478932
-0.0334268
-0.0201255
-0.00865869
0.00162772
0.0122628
0.0216753
0.0315017
0.0400147
0.061712
0.171658
0.242098
0.148276
0.0845669
0.258106
0.371731
0.142711
0.0768639
-0.0539724
-0.0423466
-0.030473
-0.0194903
-0.00941011
-9.60331e-05
0.0106638
0.0189534
0.0248244
0.0265285
0.0277058
0.0389495
0.0643813
0.0481603
0.0710416
0.098699
0.299292
0.146302
0.0683041
-0.0466986
-0.0373604
-0.0277156
-0.018367
-0.00967425
-0.00154152
0.00593417
0.0129275
0.0171319
0.0206783
0.0236702
0.0263941
0.0303322
0.0372903
0.0468397
0.0471278
0.236439
0.137231
0.0602877
-0.0404525
-0.0328755
-0.0249229
-0.0170571
-0.00962594
-0.00278949
0.00337771
0.00881368
0.0134882
0.0173435
0.0205351
0.0235568
0.0274808
0.0341762
0.037753
0.0647064
0.0928165
0.0695066
0.0548116
-0.0350743
-0.028876
-0.0222919
-0.0156761
-0.00930171
-0.00334037
0.00210836
0.00697395
0.011202
0.0148524
0.0180555
0.0212493
0.0249101
0.0311302
0.0342161
0.0593306
0.0416312
0.0472686
0.0494345
-0.0304296
-0.0253142
-0.0198287
-0.0142445
-0.00877835
-0.0035832
0.00123033
0.00558417
0.00944689
0.012886
0.0160502
0.019262
0.0227529
0.0270237
0.0309472
0.0372178
0.0379808
0.0412705
0.0443509
-0.0264023
-0.0221497
-0.0175516
-0.012818
-0.00812392
-0.00360439
0.000639452
0.00454107
0.00807945
0.0113039
0.0143563
0.017457
0.0207491
0.0241506
0.0283352
0.0315809
0.0344668
0.0376369
0.0396984
-0.0228946
-0.0193392
-0.0154659
-0.011439
-0.00740026
-0.00346524
0.000278524
0.00377383
0.00700303
0.00999909
0.0128627
0.0157585
0.0187998
0.0218453
0.025635
0.0284394
0.0314884
0.0338728
0.0354968
-0.0198282
-0.0168417
-0.0135664
-0.0101309
-0.0066504
-0.00322198
7.93522e-05
0.00320479
0.00613628
0.00889149
0.0115319
0.0141706
0.0168999
0.0196257
0.0230364
0.0259494
0.0284216
0.0298796
0.0344309
-0.0171374
-0.014621
-0.0118436
-0.0089069
-0.0059044
-0.00291727
-9.56612e-06
0.00277584
0.00542037
0.00792955
0.0103352
0.0127022
0.0150966
0.0174765
0.0202039
0.0237286
0.0251546
0.0262023
0.0350472
-0.014769
-0.0126447
-0.010286
-0.00777354
-0.00518324
-0.00258287
-2.73352e-05
0.00244486
0.00481389
0.00707797
0.00925004
0.0113625
0.0134657
0.0154985
0.0175984
0.0219827
0.0244358
0.0229276
0.0329066
-0.0126779
-0.0108839
-0.00888086
-0.00673243
-0.00450046
-0.00224147
-2.74228e-06
0.00218092
0.00428901
0.00631428
0.00825842
0.0101317
0.01201
0.0145728
0.0170196
0.0199861
0.0287996
0.0246507
0.0349774
-0.0108252
-0.00931264
-0.00761467
-0.00578163
-0.00386387
-0.00190863
4.32696e-05
0.00196045
0.00382244
0.00561846
0.00734265
0.00899436
0.0106196
0.0152478
0.0288786
0.0304524
0.0265785
0.0272695
0.032331
-0.00917791
-0.00790752
-0.00647379
-0.00491649
-0.00327668
-0.00159406
9.60637e-05
0.00176541
0.00339483
0.00497317
0.006488
0.00792639
0.0093101
0.0131069
0.0281828
0.0298681
0.0270477
0.0252806
0.0253229
-0.00770694
-0.00664713
-0.0054445
-0.0041305
-0.00273881
-0.00130292
0.000146491
0.00158392
0.00299103
0.00435818
0.00568186
0.00694139
0.00811332
0.00965393
0.0180229
0.0280085
0.0302685
0.0269736
0.021756
-0.0063863
-0.00551158
-0.00451316
-0.00341601
-0.00224795
-0.0010373
0.000189274
0.00140879
0.0026039
0.00376465
0.00489253
0.00599837
0.00703064
0.00794442
0.00923086
0.0234347
0.0274616
0.0283405
0.0167859
-0.00519282
-0.0044825
-0.00366657
-0.00276489
-0.00180058
-0.000797619
0.000221144
0.0012354
0.0022286
0.00318932
0.00411491
0.00503666
0.00595497
0.00671309
0.00736719
0.00938855
0.0171132
0.0130164
0.00997701
-0.00410487
-0.00354261
-0.00289203
-0.0021691
-0.00139301
-0.000583774
0.00023943
0.00105926
0.00186078
0.0026323
0.0033686
0.00408084
0.00482868
0.00556456
0.00604308
0.00613723
0.00636488
0.00678565
0.00704868
-0.00310251
-0.00267564
-0.00217759
-0.0016211
-0.00102183
-0.000395973
0.000241145
0.000875448
0.00149434
0.00208696
0.00264503
0.00316707
0.00368414
0.0042911
0.00478669
0.00480659
0.00494744
0.00515084
0.00540808
-0.00216698
-0.00186647
-0.00151234
-0.00111445
-0.000684851
-0.000235716
0.000221729
0.000677071
0.0011206
0.0015431
0.00193628
0.00229516
0.00262795
0.00299077
0.00348001
0.00373298
0.00359959
0.0036827
0.00401639
-0.00127674
-0.00109783
-0.000884369
-0.000642913
-0.000380844
-0.000106456
0.00017325
0.000451935
0.000723255
0.000980396
0.0012157
0.00142279
0.00160062
0.00176942
0.00205022
0.00235786
0.00234357
0.00233143
0.00244623
-0.000427112
-0.000367358
-0.00029155
-0.000203995
-0.000109608
-1.05089e-05
9.13026e-05
0.00019385
0.000294666
0.000389408
0.000471183
0.000529711
0.000555628
0.000547722
0.000527261
0.000612729
0.000760456
0.000736496
0.000476197
)
;

boundaryField
{
    leftWall
    {
        type            fixedFluxPressure;
        gradient        uniform 0;
        value           nonuniform List<scalar> 
50
(
5033.5
5031.42
5027.92
5022.43
4849.64
2225.58
1189.5
1189.18
1187.03
1186.25
1184.38
1123.34
803.373
668.293
658.685
210.939
0.565469
0.123878
0.111871
0.100586
0.0900889
0.0805275
0.0719043
0.0640686
0.0569391
0.0504476
0.0445483
0.0392202
0.0344318
0.0301366
0.0262931
0.0228298
0.0196936
0.0168026
0.0141205
0.0115657
0.00911929
0.00676909
0.00474192
0.00278913
0.00106899
-0.000443078
-0.00129757
-0.00190345
-0.00198758
-0.00183706
-0.00142265
-0.00123268
-0.000900368
-0.000359325
)
;
    }
    rightWall
    {
        type            fixedFluxPressure;
        gradient        uniform 0;
        value           nonuniform List<scalar> 
50
(
3539.85
3551.42
3283.52
2606.83
2383.22
1102.75
958.242
971.783
1064.24
1113.56
948.314
765.684
732.115
710.107
591.886
77.1016
14.4654
0.430558
0.536422
0.859008
0.383592
0.265057
0.384402
0.419575
0.415068
0.351398
0.10704
0.0950843
0.0768639
0.0683041
0.0602877
0.0548116
0.0494345
0.0443509
0.0396984
0.0354968
0.0344309
0.0350472
0.0329066
0.0349774
0.032331
0.0253229
0.021756
0.0167859
0.00997701
0.00704868
0.00540808
0.00401639
0.00244623
0.000476197
)
;
    }
    lowerWall
    {
        type            fixedFluxPressure;
        gradient        uniform 0;
        value           nonuniform List<scalar> 
62
(
5033.5
5041.91
5060.56
5090.73
5133.51
5188.98
5256.43
5334.79
5422.98
5519.58
5622.34
5727.39
5829.42
5923.66
6007.61
6079.84
6138.63
6183.46
6215.18
6235.75
6247.85
6254.35
6256.77
6256.77
6253.55
6248.23
6240.37
6228.36
6194.16
4824.52
1573.08
1224.47
1227.43
1357.64
1632.18
2711.88
2653.82
1694.87
1151.15
1153.73
1186.75
1226.51
1437.65
2711.88
2719.36
2729.19
2736.43
2752.18
2782.96
2819.11
2860.26
2900.66
2943.66
3000.23
3054.94
3096.52
3130.02
3183.82
3253.27
3341.37
3450.62
3539.85
)
;
    }
    atmosphere
    {
        type            totalPressure;
        rho             rho;
        psi             none;
        gamma           1;
        p0              uniform 0;
        value           nonuniform List<scalar> 
46
(
0
0
0
-0.000264306
-0.00100147
-0.00166809
-0.00214879
-0.00246652
-0.00264092
-0.00266729
-0.00255734
-0.00234754
-0.00206982
-0.00175321
-0.0014207
-0.0010908
-0.000778535
-0.000496882
-0.000259267
-8.57306e-05
-4.46528e-06
0
0
0
0
0
0
0
0
0
0
0
0
0
0
0
0
0
0
0
0
0
0
0
0
0
)
;
    }
    defaultFaces
    {
        type            empty;
    }
}


// ************************************************************************* //
