/*--------------------------------*- C++ -*----------------------------------*\
| =========                 |                                                 |
| \\      /  F ield         | OpenFOAM: The Open Source CFD Toolbox           |
|  \\    /   O peration     | Version:  2312                                  |
|   \\  /    A nd           | Website:  www.openfoam.com                      |
|    \\/     M anipulation  |                                                 |
\*---------------------------------------------------------------------------*/
FoamFile
{
    version     2.0;
    format      ascii;
    arch        "LSB;label=32;scalar=64";
    class       volScalarField;
    location    "5.9";
    object      alpha.water_0;
}
// * * * * * * * * * * * * * * * * * * * * * * * * * * * * * * * * * * * * * //

dimensions      [0 0 0 0 0 0 0];

internalField   nonuniform List<scalar> 
2268
(
2.94156e-07
2.96862e-07
2.85687e-07
1.73662e-07
3.90558e-08
4.30163e-09
9.7214e-10
5.90305e-10
4.35515e-10
3.17422e-10
2.35032e-10
1.83202e-10
1.49542e-10
1.25995e-10
1.12914e-10
1.10835e-10
1.24049e-10
1.57425e-10
2.09982e-10
3.44316e-10
7.94999e-10
1.29163e-09
1.36257e-09
1.8105e-07
1.62806e-07
8.2034e-08
2.58838e-08
2.46879e-09
1.69772e-09
1.61012e-09
1.31599e-09
8.95504e-10
5.79382e-10
4.37395e-10
3.85558e-10
3.74524e-10
3.64661e-10
3.30197e-10
2.63961e-10
2.4542e-10
2.77297e-10
3.82041e-10
5.17574e-10
9.24517e-10
1.29679e-09
1.32158e-09
2.46951e-08
1.14982e-08
8.33562e-09
8.36391e-09
8.49937e-09
8.34111e-09
8.85603e-09
7.86012e-09
2.6053e-09
1.14479e-09
8.10684e-10
7.76462e-10
8.53316e-10
9.08081e-10
9.08476e-10
8.50377e-10
6.77234e-10
5.33136e-10
5.26685e-10
6.22794e-10
9.16069e-10
1.08001e-09
9.85591e-10
3.0002e-10
2.99847e-10
3.0002e-10
2.99847e-10
3.0002e-10
2.99847e-10
4.1438e-10
5.7223e-10
4.52366e-10
3.72502e-10
3.52524e-10
3.95836e-10
4.90878e-10
5.63278e-10
5.84116e-10
5.57994e-10
4.79896e-10
4.44124e-10
4.65251e-10
5.70831e-10
7.07774e-10
7.49812e-10
6.35024e-10
0.0322561
0.029891
0.0256389
0.0193712
0.0121564
0.00432945
3.54453e-21
2.99029e-21
1.64537e-21
7.04417e-22
2.03157e-22
-1.01531e-14
-1.03021e-13
-1.06751e-13
1.19066e-12
1.4862e-11
2.66051e-11
8.82188e-11
1.31567e-10
1.5599e-10
1.73616e-10
1.63757e-10
1.61725e-10
0.691339
0.682892
0.667627
0.644937
0.612835
0.569066
0.5109
0.440145
0.360355
0.277556
0.201011
0.135648
0.0763844
0.0267165
-2.38174e-32
3.7619e-29
2.46417e-20
-7.52404e-17
-3.52337e-17
-5.09485e-17
-7.50175e-17
-1.04213e-16
2.28006e-20
0.998373
0.998684
0.998536
0.997769
0.996643
0.996106
0.994282
0.989476
0.976031
0.949268
0.903515
0.838875
0.757552
0.657365
0.540506
0.430186
0.322412
0.202883
0.150485
0.135862
0.136725
0.132023
0.119214
0.999462
0.999462
0.999462
0.999462
0.999312
0.999697
0.999733
0.999726
0.999748
0.999766
0.999676
0.999701
0.999757
0.999783
0.996629
0.922235
0.848957
0.829405
0.826713
0.818795
0.814405
0.803743
0.785518
0.0066101
0.004822
0.00234907
0.00290095
0.00403619
0.00579852
0.00585287
0.00598222
0.00637877
0.00684517
0.0070815
0.00624894
0.00356926
0.00319992
0.00327119
0.00316293
0.00230316
0.00211871
0.00226098
0.00150678
0.00071581
0.000182496
4.36544e-05
2.1788e-22
-2.23075e-06
-9.5328e-07
-1.20247e-07
-1.7352e-07
3.10155e-18
9.14134e-19
1.27935e-18
-7.27245e-07
-5.70462e-07
-7.77967e-21
-5.21032e-07
-2.14995e-07
-1.86045e-07
-1.12497e-06
6.10655e-05
4.43754e-05
2.78023e-05
2.83093e-05
0.0539714
0.109192
0.164363
0.198218
0.212229
0.224622
0.231966
0.194815
0.154169
0.132263
0.0904972
0.0460036
0.0511895
0.0681475
0.0675095
0.0181224
0.136146
0.309775
0.51891
0.651621
0.728608
0.830742
0.88418
0.92071
0.961623
0.961195
0.946996
0.819211
0.746139
0.671664
0.461482
0.493609
0.76227
0.523703
0.546946
0.72484
0.900648
0.962512
0.969005
0.946377
0.96032
0.990502
0.991852
0.991758
0.932604
0.971292
0.989063
0.947253
0.92336
0.629903
0.837845
0.951261
0.797434
0.772573
0.991032
0.990537
0.9904
0.990391
0.97094
0.978847
0.991852
0.991852
0.971165
0.761332
0.911923
0.989015
0.988043
0.965705
0.738529
0.757073
0.951079
0.953155
0.841488
0.991537
0.989565
0.989454
0.990711
0.991852
0.991283
0.991733
0.991852
0.911439
0.746754
0.902151
0.989118
0.989133
0.887309
0.713829
0.907861
0.952849
0.95317
0.981561
0.991568
0.9907
0.989911
0.988486
0.991852
0.991852
0.991852
0.991852
0.724399
0.771246
0.901763
0.942887
0.949961
0.862699
0.712494
0.948865
0.952865
0.889652
0.996978
0.999462
0.999441
0.999073
0.996754
0.995638
0.999788
0.999788
0.999788
0.999788
0.999788
0.999788
0.999788
0.999786
0.998815
0.994031
0.99365
0.994695
0.994693
0.994695
0.994693
0.991896
0.984093
0.948341
0.935529
0.911972
0.861669
0.854426
0.906052
0.941071
0.959061
0.949784
0.949867
0.981109
0.996861
0.996927
0.994331
0.990634
0.992427
0.990649
0.991052
0.990335
0.986684
0.990063
0.991444
0.988756
0.271254
0.258572
0.271978
0.274221
0.207104
0.195611
0.238092
0.354278
0.592125
0.776544
0.819274
0.805874
0.77753
0.798199
0.826833
0.836817
0.866305
0.866327
0.867408
0.90248
0.938348
0.971306
0.948829
-1.65572e-09
-1.50734e-09
-6.06432e-20
6.0383e-21
7.23975e-20
2.87714e-19
-5.07788e-08
-5.8296e-11
0.0309893
0.12485
0.156975
0.134326
0.107901
0.128069
0.145851
0.166363
0.175092
0.194921
0.196794
0.191731
0.311309
0.403355
0.304621
3.68311e-06
1.75243e-06
-2.05399e-23
2.58217e-18
2.0082e-09
3.01761e-05
9.47559e-05
1.45304e-06
1.66901e-11
-3.60623e-20
-1.55518e-08
-1.41157e-08
5.13208e-20
2.33412e-20
-1.33281e-09
-1.45029e-07
-1.89654e-07
-4.7637e-07
-7.47795e-07
1.66927e-16
2.04282e-23
3.25652e-22
-1.14016e-12
3.89774e-05
4.20992e-05
8.05977e-05
5.13747e-05
1.91773e-05
2.89397e-06
5.82897e-06
1.20821e-06
7.4131e-12
1.19978e-07
5.15012e-06
1.30819e-05
-4.76902e-22
5.63527e-25
1.63358e-06
6.50657e-05
0.00013154
0.000633878
0.00160087
0.000893834
0.000701217
0.000210499
9.32227e-06
0.000149627
5.53382e-05
0.000216048
0.000227503
0.000229303
0.000520167
0.000113831
1.69121e-08
6.0849e-12
1.51878e-08
6.05655e-05
9.75586e-05
0.000112862
0.000122865
0.000139963
0.000164055
0.000167939
0.000168986
0.00301261
0.017701
0.0197272
0.00466711
0.00112528
0.000215626
7.76389e-05
0.000163773
0.00231552
0.00416267
0.0045569
0.00270745
0.000273728
3.61121e-05
7.76434e-05
0.000141028
9.69683e-05
0.000133467
0.000388501
0.00108967
0.00459776
0.00497111
0.00231549
0.00733187
0.0198485
0.0198485
0.0198485
0.0136842
0.000214658
5.87048e-05
2.83293e-05
0.00160293
0.00431839
0.00455747
0.004557
0.00431714
0.00383219
0.00323429
0.00195204
0.000225482
7.26445e-05
0.000303411
0.00600594
0.0100367
0.0100543
0.0100673
0.010292
0.0169253
0.0198485
0.019447
0.00390918
0.000111297
1.40679e-05
2.85516e-05
0.000148867
0.000201294
0.000752294
0.00187655
0.00310151
0.00376355
0.0027304
0.00156837
0.000383436
3.77287e-05
3.79206e-05
0.00474768
0.00943732
0.00970587
0.00761927
0.00341672
0.00150458
0.00165022
0.000306047
1.19543e-06
6.41669e-08
4.30549e-08
4.47187e-06
3.46906e-06
2.17728e-08
3.39381e-08
3.40565e-08
3.39381e-08
3.40096e-08
7.06925e-05
0.000152838
0.00017771
3.79206e-05
0.000235022
0.000931169
0.00121474
0.00122852
0.000542619
5.92001e-08
4.92178e-08
4.81112e-08
4.95052e-08
1.50163e-06
1.44049e-07
5.55738e-08
6.70434e-07
1.03013e-06
9.5768e-07
7.12264e-07
4.78465e-07
3.36535e-07
2.72107e-07
4.14989e-07
5.32451e-07
7.12971e-07
4.22185e-05
0.000149032
1.03226e-05
1.75379e-06
4.21027e-06
1.56871e-07
1.62386e-07
4.86018e-08
4.84939e-08
2.07619e-05
3.13374e-05
1.35083e-07
6.23961e-08
7.73058e-08
3.77206e-07
3.42108e-07
2.56417e-07
3.27623e-07
3.80765e-07
4.20219e-07
5.7795e-07
5.8552e-07
8.05966e-07
5.26881e-06
1.77979e-06
3.35167e-06
1.43673e-06
2.90948e-06
3.44733e-06
1.43057e-06
4.91949e-08
2.59853e-05
2.67926e-05
2.55864e-05
1.31205e-07
1.09459e-07
1.02853e-08
3.84367e-08
3.52661e-08
8.75973e-08
1.62639e-07
2.55896e-07
3.19462e-07
4.69419e-07
5.79238e-07
4.44416e-07
5.4797e-09
5.45364e-09
2.37751e-08
2.71877e-06
6.1727e-06
4.97332e-06
7.60335e-06
1.50871e-05
1.64029e-05
5.13344e-06
1.85744e-06
1.27707e-07
9.02537e-08
1.03439e-08
8.87277e-09
8.51933e-09
2.65239e-08
9.17035e-08
1.38179e-07
1.66652e-07
1.97118e-07
3.99104e-07
2.77687e-07
9.72168e-09
5.42835e-09
5.45365e-09
2.33874e-06
6.18239e-06
2.29059e-06
7.47193e-06
6.1569e-06
1.34239e-06
1.35619e-06
1.09135e-06
7.4831e-08
4.67566e-08
1.07936e-08
6.99835e-09
7.76067e-09
1.61925e-08
4.01196e-08
5.67509e-08
6.64978e-08
6.25646e-08
6.77678e-08
5.91932e-08
1.453e-08
5.40379e-09
5.42761e-09
7.11972e-07
1.32697e-06
4.60924e-07
7.8616e-07
5.60244e-09
1.20605e-06
1.09905e-05
1.74877e-06
2.51644e-08
1.45701e-08
7.63014e-09
6.54298e-09
7.14389e-09
9.55032e-09
1.44054e-08
1.77276e-08
1.94916e-08
1.82494e-08
1.68043e-08
1.80334e-08
8.97913e-09
5.34086e-09
1.70375e-08
1.55999e-07
1.80126e-07
1.11477e-08
5.38589e-09
3.55765e-09
6.66583e-06
1.26104e-05
2.3505e-06
1.42756e-08
6.06195e-09
4.54648e-09
5.00452e-09
5.15787e-09
5.02083e-09
4.95642e-09
5.12325e-09
4.99015e-09
4.06113e-09
3.07544e-09
3.39594e-09
3.30831e-09
3.7115e-09
8.69144e-09
5.03393e-08
5.18697e-08
6.47617e-09
4.173e-09
2.69857e-09
4.08291e-06
1.26514e-05
8.36344e-06
1.1823e-08
4.02565e-09
3.04256e-09
3.49014e-09
3.38322e-09
2.81835e-09
2.28089e-09
1.917e-09
1.64025e-09
1.29219e-09
1.16446e-09
1.38831e-09
1.81587e-09
2.47123e-09
3.54095e-09
9.79804e-09
9.60062e-09
3.36987e-09
2.62341e-09
2.1034e-09
2.06144e-09
3.28e-06
1.11001e-05
1.19912e-08
2.74121e-09
1.94918e-09
2.2186e-09
2.01976e-09
1.62001e-09
1.25484e-09
9.51879e-10
7.67535e-10
6.72333e-10
7.17156e-10
8.86644e-10
1.16748e-09
1.59834e-09
2.06777e-09
2.97951e-09
2.98143e-09
2.17733e-09
1.99972e-09
2.14217e-09
8.97099e-09
2.71605e-07
2.92652e-07
1.17193e-08
1.88396e-09
1.21729e-09
1.33237e-09
1.15392e-09
9.07052e-10
6.90221e-10
5.19614e-10
4.10961e-10
3.69738e-10
3.96096e-10
4.8086e-10
6.22972e-10
8.48559e-10
1.12453e-09
1.41931e-09
1.50498e-09
1.36593e-09
1.26715e-09
2.7874e-09
1.38974e-08
3.49854e-08
1.23521e-07
1.13235e-08
1.2576e-09
7.87939e-10
8.12259e-10
6.96352e-10
5.67549e-10
4.38394e-10
3.178e-10
2.41949e-10
2.03372e-10
1.98613e-10
2.24286e-10
2.80455e-10
3.75256e-10
5.01439e-10
6.35757e-10
7.18025e-10
7.552e-10
8.0862e-10
2.26074e-09
1.2195e-08
2.39624e-08
6.10901e-08
1.08692e-08
8.31405e-10
5.55178e-10
5.98384e-10
6.11458e-10
5.72097e-10
4.41991e-10
2.76851e-10
1.91383e-10
1.38349e-10
1.10116e-10
1.04044e-10
1.16487e-10
1.47442e-10
1.94738e-10
2.52129e-10
3.08514e-10
3.76206e-10
5.07761e-10
1.29601e-09
4.33833e-09
1.64731e-08
3.01478e-08
1.04682e-08
5.84721e-10
4.86583e-10
6.43913e-10
9.00942e-10
1.00179e-09
6.85238e-10
3.20782e-10
2.03393e-10
1.31167e-10
8.56423e-11
6.13229e-11
5.33399e-11
5.71522e-11
7.11668e-11
9.41868e-11
1.2719e-10
1.79073e-10
2.64115e-10
5.4009e-10
1.02363e-09
2.21955e-09
4.68102e-09
1.01189e-08
4.82717e-10
5.05935e-10
1.12375e-09
1.59192e-09
1.60964e-09
9.41411e-10
3.72699e-10
2.42138e-10
1.50326e-10
8.81729e-11
5.24513e-11
3.42842e-11
2.69496e-11
2.74027e-11
3.50715e-11
5.09982e-11
7.99645e-11
1.25106e-10
2.11862e-10
3.32738e-10
4.26745e-10
1.13199e-09
9.83532e-09
4.64485e-10
7.79017e-10
1.59777e-09
2.4206e-09
3.08646e-09
1.14792e-09
3.98854e-10
2.7789e-10
1.72478e-10
9.77854e-11
5.41235e-11
3.12096e-11
1.88278e-11
1.35714e-11
1.39927e-11
1.95329e-11
3.16587e-11
5.14136e-11
8.65725e-11
1.35403e-10
2.56032e-10
6.14907e-10
9.60443e-09
5.29221e-10
1.18531e-09
2.36311e-09
4.84822e-09
8.67141e-09
9.89805e-10
4.09147e-10
3.19628e-10
1.91211e-10
1.02924e-10
5.75294e-11
3.18922e-11
1.76381e-11
9.97692e-12
6.95215e-12
7.54007e-12
1.12916e-11
1.81748e-11
3.04026e-11
5.13682e-11
9.18765e-11
2.02208e-10
9.41585e-09
8.47021e-10
2.15007e-09
4.60648e-09
1.77779e-08
1.89439e-08
5.342e-10
4.248e-10
3.68228e-10
1.95307e-10
9.96889e-11
5.54723e-11
3.17178e-11
1.78301e-11
9.44926e-12
5.00767e-12
3.42818e-12
3.95375e-12
5.83083e-12
9.35068e-12
1.49046e-11
2.66855e-11
5.15021e-11
9.41553e-09
2.5699e-09
1.05753e-08
3.72906e-08
1.05891e-07
1.45374e-08
4.42863e-10
4.73824e-10
3.65012e-10
1.75741e-10
8.70792e-11
4.92785e-11
2.94259e-11
1.71818e-11
9.29446e-12
4.61355e-12
2.3648e-12
1.4757e-12
1.86872e-12
2.80214e-12
4.25278e-12
6.9812e-12
1.27434e-11
9.82022e-09
1.08732e-08
7.56128e-08
3.18554e-07
2.73544e-07
1.82932e-09
4.41573e-10
5.32987e-10
3.31988e-10
1.42117e-10
6.81004e-11
3.96472e-11
2.52139e-11
1.55167e-11
8.76773e-12
4.42749e-12
2.1033e-12
7.23991e-13
6.5432e-13
8.74427e-13
1.2562e-12
1.97932e-12
3.21795e-12
1.1199e-08
3.07422e-08
1.71e-07
6.04971e-07
2.90391e-07
5.09944e-10
5.16231e-10
5.62498e-10
2.8061e-10
1.04502e-10
4.81582e-11
2.89404e-11
1.97359e-11
1.29664e-11
7.78475e-12
4.08127e-12
1.87299e-12
6.89266e-13
2.52184e-13
2.88293e-13
3.99019e-13
5.92798e-13
8.97683e-13
1.38858e-08
5.20624e-08
2.17855e-07
6.05097e-07
1.26178e-07
4.56526e-10
7.50617e-10
5.29347e-10
2.06459e-10
7.16365e-11
3.16415e-11
1.93937e-11
1.39288e-11
9.86286e-12
6.37296e-12
3.57338e-12
1.74014e-12
6.5114e-13
1.31546e-13
9.97001e-14
1.25818e-13
1.79671e-13
2.49473e-13
1.69876e-08
8.81317e-08
5.14711e-07
4.66854e-07
1.70706e-08
5.98493e-10
9.76038e-10
4.29161e-10
1.31627e-10
4.84913e-11
1.99002e-11
1.23369e-11
9.11618e-12
6.73757e-12
4.68222e-12
2.88929e-12
1.52398e-12
6.18335e-13
1.02523e-13
3.62786e-14
3.72349e-14
5.02305e-14
6.54321e-14
2.12367e-08
1.30691e-07
6.28713e-07
2.06835e-07
5.37328e-10
9.59464e-10
1.30748e-09
4.21148e-10
1.1369e-10
3.28287e-11
1.19135e-11
7.11209e-12
5.29743e-12
4.01367e-12
3.03723e-12
2.07281e-12
1.20686e-12
5.70142e-13
1.05145e-13
1.69241e-14
1.1284e-14
1.47362e-14
1.74499e-14
2.1576e-08
1.7319e-07
6.28732e-07
2.17286e-07
5.39139e-10
1.53313e-09
1.78692e-09
4.73166e-10
1.12648e-10
2.36792e-11
6.97493e-12
4.05471e-12
2.85892e-12
2.17291e-12
1.71208e-12
1.29732e-12
8.54437e-13
4.48503e-13
1.27008e-13
1.30019e-14
3.6907e-15
3.96536e-15
4.61323e-15
2.96687e-08
2.32116e-07
6.27276e-07
1.88609e-07
5.37946e-10
2.67771e-09
2.25449e-09
5.45223e-10
1.16755e-10
1.90742e-11
4.01991e-12
2.16855e-12
1.48521e-12
1.05383e-12
8.19853e-13
6.81136e-13
5.19331e-13
3.24176e-13
1.10516e-13
1.3275e-14
1.74965e-15
1.21384e-15
1.34726e-15
2.96443e-08
3.55425e-07
6.27215e-07
8.70332e-08
1.05408e-09
7.1172e-09
2.60929e-09
5.79613e-10
1.15753e-10
1.56747e-11
2.22966e-12
1.07407e-12
7.25883e-13
4.68793e-13
3.38744e-13
2.90104e-13
2.55364e-13
1.94816e-13
8.52792e-14
1.42907e-14
1.34514e-15
3.58604e-16
3.65438e-16
3.27287e-08
3.60908e-07
6.05336e-07
4.88906e-09
4.04959e-09
1.06876e-08
2.79199e-09
5.37185e-10
9.69553e-11
1.19049e-11
1.17088e-12
5.05537e-13
3.31461e-13
1.95173e-13
1.22322e-13
9.81611e-14
9.57225e-14
8.91877e-14
5.29448e-14
1.3038e-14
1.37121e-15
1.37574e-16
9.28631e-17
2.9769e-08
2.64639e-07
2.4114e-07
4.14098e-09
1.12188e-08
1.11384e-08
2.58423e-09
4.38836e-10
6.50188e-11
7.13558e-12
5.4609e-13
1.99739e-13
1.34329e-13
7.49618e-14
3.97824e-14
2.67362e-14
2.63468e-14
2.98538e-14
2.57413e-14
9.60632e-15
1.36465e-15
8.39088e-17
2.2549e-17
2.40254e-08
1.82835e-07
2.58512e-07
4.14495e-09
1.36855e-08
7.41523e-09
1.48587e-09
2.8556e-10
3.02084e-11
2.79049e-12
1.79674e-13
6.04972e-14
4.34771e-14
2.46414e-14
1.16951e-14
6.06143e-15
5.1885e-15
6.87632e-15
8.45416e-15
5.47373e-15
1.0133e-15
7.56701e-17
7.08241e-18
2.25342e-08
1.41598e-07
2.42215e-07
4.05683e-09
1.35245e-08
3.29859e-09
6.46746e-10
1.20023e-10
1.03335e-11
6.6465e-13
3.42223e-14
1.25543e-14
1.00539e-14
6.08272e-15
2.81775e-15
1.16482e-15
7.64444e-16
1.11805e-15
1.91917e-15
2.17166e-15
6.19227e-16
6.58415e-17
4.70745e-18
2.35034e-08
3.98336e-08
8.31528e-08
8.86332e-09
3.66723e-09
5.23688e-10
1.12317e-10
1.81769e-11
1.15582e-12
4.77131e-14
2.13438e-15
1.38238e-15
1.28823e-15
8.73742e-16
4.23561e-16
1.60351e-16
7.95749e-17
1.31121e-16
3.33293e-16
6.0608e-16
3.46044e-16
5.02897e-17
3.34507e-18
0.989386
0.992826
0.993322
0.993797
0.993454
0.993351
0.993306
0.993732
0.909842
0.913903
0.917371
0.876292
0.118368
0.12354
0.144839
0.148208
-2.15947e-07
-2.19659e-06
2.56156e-17
5.26623e-18
0.000223389
0.0004877
0.000552287
0.000591012
0.0003056
0.000414196
0.00107544
0.00112547
1.26045e-06
0.000646544
0.00297803
0.00296413
1.83242e-06
0.000111377
0.000634475
0.00124323
3.48272e-06
2.05735e-06
1.66275e-09
4.96527e-10
3.09538e-06
7.28144e-06
1.4044e-05
1.01829e-05
3.12606e-05
3.11691e-05
3.11421e-05
2.2207e-05
1.2446e-05
1.03593e-06
4.87577e-07
4.8222e-07
1.42602e-06
1.33457e-06
5.55737e-07
5.81912e-07
4.15876e-07
3.6822e-07
6.54606e-07
3.10731e-06
2.35653e-07
2.35501e-07
2.36857e-06
9.53986e-06
2.3568e-07
9.13045e-07
9.21299e-06
1.04e-05
2.53375e-06
8.97694e-06
1.3515e-05
9.91562e-06
1.50363e-05
1.50435e-05
1.50401e-05
1.24949e-05
3.05814e-07
1.3306e-06
1.38203e-05
9.6182e-06
1.42415e-07
1.12391e-07
4.68546e-08
4.73848e-08
6.54656e-08
4.55742e-08
4.80769e-08
4.17412e-08
2.99178e-08
2.2811e-08
6.28378e-09
2.68963e-09
5.41733e-09
4.98958e-09
2.86222e-09
1.97696e-09
1.5219e-09
1.86409e-09
1.77323e-09
1.98441e-09
7.47279e-10
9.57071e-10
1.74306e-09
2.13388e-09
2.70712e-10
3.42525e-10
3.82098e-10
4.80107e-10
7.04366e-11
8.36306e-11
1.06004e-10
1.05152e-10
1.67484e-11
1.97807e-11
2.17625e-11
2.54962e-11
4.00986e-12
4.7022e-12
5.46193e-12
5.59213e-12
1.11796e-12
1.23585e-12
1.30832e-12
1.51049e-12
2.84269e-13
2.91896e-13
3.1923e-13
3.14839e-13
7.00894e-14
6.96607e-14
6.853e-14
7.37633e-14
1.84668e-14
1.65083e-14
1.60543e-14
1.53371e-14
4.55555e-15
4.07623e-15
3.74756e-15
3.75039e-15
1.20613e-15
1.04128e-15
1.03285e-15
1.01299e-15
3.37446e-16
2.90689e-16
2.6366e-16
2.94305e-16
8.6355e-17
6.78221e-17
6.80215e-17
6.96936e-17
1.78733e-17
1.58879e-17
1.38284e-17
1.50966e-17
3.71342e-18
2.87131e-18
2.69547e-18
2.51192e-18
6.59952e-19
5.13979e-19
4.33708e-19
4.24149e-19
1.24984e-19
6.70817e-20
6.45336e-20
5.03094e-20
0.993792
0.991585
0.981899
0.974159
0.987139
0.991833
0.988754
0.957533
0.837556
0.448018
0.846314
0.945675
0.945671
0.942692
0.922731
0.887322
0.950576
0.951852
0.844738
0.985733
0.930975
0.894745
0.93613
0.977586
0.807615
0.449888
0.224008
0.137557
0.390345
0.925417
0.933874
0.942751
0.942391
0.94486
0.944861
0.943153
0.929921
0.855501
0.804099
0.728501
0.70026
0.697456
0.446154
0.0406545
5.67675e-11
-3.57239e-16
0.0021087
0.143838
0.283062
0.304631
0.514525
0.584544
0.483906
0.517416
0.557676
0.823126
0.884435
0.137211
0.0771692
0.0436746
0.0209599
2.88299e-05
2.87057e-05
5.79586e-05
3.75256e-16
-2.97228e-24
1.33218e-19
-9.12137e-21
7.04506e-13
0.000218207
0.000170658
8.71144e-23
-3.40741e-25
0.0290576
0.178793
0.481826
1.14739e-21
5.25495e-18
8.79504e-05
0.00023283
0.000106371
6.63012e-05
0.000515246
0.000108743
9.28059e-06
7.99973e-05
6.89537e-05
7.79921e-06
1.37571e-05
1.56637e-05
2.62693e-06
-8.78388e-12
-8.04161e-07
-5.51272e-07
0.000274164
0.000697736
0.00906295
0.0162132
0.0145888
0.00199265
0.000776804
0.000696084
0.000815096
0.000832991
0.00135787
0.000938451
0.000540485
0.000171897
0.000187712
0.000420512
0.000399851
0.000345899
0.000265299
0.000784115
0.000698168
0.00560194
0.0361771
0.0365847
0.026777
0.0108897
0.00812821
0.00886462
0.0117188
0.0157932
0.014279
0.00633722
0.000170457
6.53484e-05
0.000430261
0.00211492
0.00243009
0.00245577
0.00253789
0.00280811
0.00651377
0.0307358
0.0365692
0.0365313
0.0289583
0.0188679
0.0165198
0.0175556
0.0186522
0.0187333
0.0106762
0.000491997
6.07388e-05
4.64939e-05
0.00188493
0.00253789
0.00253789
0.00253789
0.00167859
0.00389294
0.00657177
0.0105764
0.00666375
0.0025961
0.00242245
0.000877919
0.000508638
0.00154213
0.00146348
0.00130954
0.000911075
0.000155706
1.30801e-08
0.000125491
0.00116593
0.00203651
0.00207673
6.41172e-12
1.58099e-12
-4.04475e-10
1.25521e-11
1.24791e-12
8.66157e-14
2.20758e-20
-3.0073e-10
2.30535e-25
7.78216e-08
2.08482e-07
4.04463e-07
0
6.25026e-27
1.27878e-08
-2.69228e-11
1.47954e-09
9.50811e-05
9.77347e-05
7.37997e-07
2.60316e-06
7.50411e-06
5.79887e-06
2.26468e-06
1.68815e-07
3.76518e-08
3.53189e-08
1.29576e-08
7.18401e-07
6.26507e-06
2.73609e-05
3.41962e-05
-4.34079e-09
5.30583e-07
1.29093e-07
1.95786e-07
1.95516e-07
1.24409e-07
7.6926e-07
5.0652e-06
1.41359e-05
1.42663e-05
4.77604e-06
1.05468e-06
2.72817e-08
2.9212e-08
1.65199e-06
6.08652e-06
5.49734e-06
3.41195e-05
4.45932e-05
2.80195e-05
5.25302e-07
1.82599e-06
3.78641e-07
2.85914e-06
9.96691e-06
5.67118e-07
6.88961e-07
1.60608e-06
1.53242e-06
1.04862e-06
1.52427e-07
2.77349e-08
5.15981e-08
6.18581e-06
7.82602e-06
4.49218e-06
2.58882e-06
5.69289e-06
1.38992e-05
1.50903e-06
9.57257e-07
5.44017e-07
2.27165e-06
1.84322e-05
9.50362e-07
1.09046e-06
7.48137e-07
4.99549e-07
2.56707e-07
1.47271e-07
2.81631e-07
1.62616e-06
6.42341e-06
7.83913e-06
7.82186e-06
2.44293e-06
2.43711e-06
7.03247e-06
6.46069e-06
3.16689e-06
3.20252e-07
3.45042e-07
1.8439e-05
4.20176e-06
3.22714e-06
9.38261e-07
7.46632e-07
1.85034e-06
8.96216e-07
2.56954e-06
2.34314e-06
1.34561e-06
2.14637e-06
3.50384e-06
4.61697e-06
6.23391e-06
1.0696e-06
1.08995e-06
4.16086e-07
3.13847e-07
5.0136e-06
1.86392e-05
2.83e-05
3.74484e-05
2.24419e-05
2.18311e-05
1.38517e-05
7.38039e-06
6.53088e-06
3.85052e-07
5.63043e-08
6.34731e-08
6.31823e-08
6.13951e-06
1.10871e-05
6.02885e-06
2.05121e-07
2.05004e-07
1.93271e-06
1.8633e-05
1.86382e-05
2.61975e-05
4.29001e-05
4.2899e-05
3.93948e-05
4.29094e-05
3.23533e-05
7.49233e-06
5.64102e-08
5.64348e-08
5.96966e-08
6.8342e-07
1.02633e-05
2.90651e-05
2.73805e-05
7.09446e-06
6.71974e-06
1.54903e-05
1.86392e-05
9.11431e-06
3.91996e-06
2.75485e-05
4.28957e-05
4.28945e-05
4.28913e-05
3.3813e-05
1.11114e-05
2.591e-06
1.34469e-06
5.91372e-08
6.92847e-07
8.89214e-06
3.8167e-05
3.91575e-05
3.92848e-05
3.1234e-05
9.69815e-06
4.36155e-06
8.80889e-07
4.96949e-08
5.05593e-08
2.83204e-05
4.28913e-05
3.76661e-05
3.59355e-06
4.17751e-06
6.10338e-06
3.71539e-06
2.43437e-06
2.04628e-06
5.28853e-06
4.93869e-06
8.81436e-06
7.66908e-06
3.60775e-06
1.29801e-06
3.11934e-07
3.59736e-07
5.54876e-07
5.52257e-08
2.86266e-09
1.92093e-05
3.19566e-06
2.8965e-07
2.50292e-07
3.41825e-06
4.49586e-06
3.83818e-06
1.68706e-06
2.38193e-06
2.82583e-06
2.02444e-06
1.14163e-07
1.14283e-07
1.63422e-07
1.09384e-07
3.50331e-07
1.06406e-07
6.11639e-08
3.6585e-09
1.84394e-09
1.40274e-09
3.18421e-07
2.43764e-07
1.31938e-09
1.51528e-07
1.66125e-07
2.79133e-08
5.00756e-07
1.75642e-06
6.84798e-07
1.75597e-07
2.94501e-07
3.22748e-07
1.07517e-07
8.45636e-08
3.1793e-08
3.1878e-08
1.8555e-08
5.19393e-09
3.04969e-09
2.8698e-09
1.6377e-09
1.34415e-09
4.25714e-10
4.27224e-10
6.96947e-10
1.08762e-09
6.14494e-10
6.1384e-10
1.56635e-07
3.85887e-07
4.27018e-07
2.33281e-07
7.83655e-08
5.08635e-08
6.1268e-08
4.24319e-08
1.66402e-08
8.82614e-09
6.16469e-09
4.22827e-09
2.93209e-09
2.05299e-09
1.47301e-09
1.40681e-09
3.97064e-09
2.56529e-09
2.40325e-09
2.39736e-09
1.03774e-07
4.27111e-07
2.86866e-07
7.83361e-08
2.18349e-08
5.00415e-08
3.16669e-08
1.35691e-08
7.34497e-09
5.78222e-09
4.27837e-09
3.06867e-09
2.31866e-09
2.14554e-09
2.36261e-09
3.09079e-09
3.71422e-09
3.59949e-09
2.52146e-09
2.37983e-09
2.54931e-07
2.76949e-07
8.44384e-08
1.14801e-08
1.27976e-08
7.03391e-09
3.10786e-09
3.00103e-09
2.54498e-09
1.9344e-09
1.57361e-09
1.54142e-09
1.94735e-09
2.77392e-09
3.95442e-09
5.50117e-09
6.9581e-09
5.88387e-09
2.3913e-09
4.79265e-08
2.1394e-07
8.79553e-08
1.62094e-09
1.12194e-09
1.24733e-09
1.22096e-09
1.04831e-09
8.66828e-10
7.48155e-10
7.80939e-10
1.01514e-09
1.50024e-09
2.40128e-09
4.0052e-09
6.54008e-09
9.03937e-09
9.1083e-09
3.86532e-09
1.31261e-08
1.19262e-07
1.22849e-07
4.47069e-10
4.30043e-10
4.02612e-10
3.50081e-10
2.90401e-10
2.80097e-10
3.24165e-10
4.62132e-10
7.41449e-10
1.23416e-09
2.04821e-09
3.48645e-09
5.8383e-09
8.56665e-09
7.79188e-09
8.64659e-09
2.36344e-08
1.84418e-07
1.89162e-07
1.17111e-10
1.12738e-10
1.02759e-10
9.3974e-11
9.80153e-11
1.21429e-10
1.66297e-10
2.63855e-10
5.21893e-10
1.08978e-09
2.03567e-09
3.39992e-09
5.16869e-09
6.66502e-09
5.58835e-09
2.26696e-08
1.05138e-07
2.02328e-07
2.02584e-07
2.54571e-11
2.57452e-11
2.66247e-11
3.01782e-11
3.26126e-11
2.82245e-11
4.11577e-11
9.74694e-11
2.9736e-10
8.81665e-10
2.21093e-09
4.30969e-09
5.79108e-09
5.59276e-09
5.59363e-09
4.98971e-08
1.52469e-07
1.91835e-07
2.02575e-07
6.47882e-12
6.76143e-12
7.09582e-12
5.47433e-12
4.05412e-12
5.05545e-12
1.18616e-11
4.0909e-11
1.60369e-10
5.01218e-10
2.30742e-09
5.6828e-09
8.78086e-09
7.90099e-09
5.68627e-09
5.17885e-08
1.58335e-07
9.24193e-08
2.02575e-07
1.4665e-12
1.65305e-12
1.65082e-12
8.38166e-13
8.15741e-13
1.62582e-12
5.15456e-12
1.95451e-11
7.8674e-11
2.24048e-10
2.28341e-09
7.6123e-09
1.32757e-08
1.24109e-08
9.78525e-09
3.2104e-08
1.01541e-07
7.08316e-08
1.85118e-07
3.48485e-13
3.60094e-13
3.41449e-13
2.03586e-13
3.07629e-13
8.86468e-13
2.93722e-12
1.0686e-11
4.22621e-11
1.65501e-10
2.6979e-09
1.0397e-08
2.28977e-08
2.58244e-08
1.12664e-08
5.04393e-09
1.16257e-08
2.85761e-08
8.97913e-08
6.80138e-14
6.23367e-14
6.55852e-14
9.40998e-14
1.94355e-13
6.10985e-13
2.02197e-12
7.53372e-12
3.30687e-11
1.78078e-10
3.11317e-09
1.34562e-08
3.18635e-08
4.10133e-08
9.52711e-09
4.30379e-09
4.30453e-09
2.08205e-08
7.85886e-08
1.55599e-14
1.55335e-14
2.12427e-14
5.15612e-14
1.60205e-13
5.11441e-13
1.62969e-12
6.1721e-12
3.20292e-11
1.74373e-10
2.25874e-09
1.10394e-08
3.34487e-08
4.57449e-08
3.02428e-08
4.30391e-09
4.31009e-09
2.33365e-08
1.15011e-07
3.66539e-15
4.77132e-15
1.0259e-14
3.29646e-14
1.18983e-13
4.39319e-13
1.50391e-12
4.82631e-12
1.93289e-11
8.17573e-11
3.81237e-10
3.20898e-09
2.10689e-08
4.52863e-08
4.80905e-08
5.99206e-09
4.30944e-09
1.96268e-08
1.15011e-07
1.15176e-15
1.83344e-15
5.30451e-15
1.99016e-14
8.0531e-14
3.0867e-13
1.1058e-12
3.40474e-12
1.1286e-11
4.33427e-11
2.31779e-10
1.15264e-09
5.3673e-09
2.78997e-08
4.82426e-08
4.25834e-08
9.455e-09
1.35788e-08
7.87145e-08
3.13933e-16
6.33772e-16
2.20714e-15
9.38687e-15
4.11408e-14
1.75807e-13
6.72937e-13
2.28816e-12
7.50806e-12
3.62538e-11
2.04755e-10
5.98226e-10
1.62299e-09
1.10482e-08
3.60344e-08
4.77298e-08
3.68129e-08
3.95683e-08
6.73613e-08
8.50712e-17
1.73513e-16
6.44971e-16
3.0714e-15
1.56464e-14
7.62288e-14
3.3421e-13
1.23117e-12
4.14173e-12
1.49849e-11
7.41009e-11
4.54067e-10
1.12699e-09
1.73913e-09
1.15444e-08
3.85411e-08
4.53738e-08
1.15978e-07
1.04192e-07
1.57432e-17
3.13135e-17
1.14242e-16
6.16241e-16
3.73462e-15
2.20694e-14
1.12942e-13
5.10472e-13
1.89659e-12
5.88066e-12
2.36699e-11
1.22791e-10
7.17374e-10
1.54371e-09
2.47395e-09
8.93868e-09
4.13092e-08
1.2971e-07
3.61133e-07
2.66567e-18
3.41284e-18
1.07089e-17
5.95217e-17
4.61092e-16
3.86245e-15
2.66922e-14
1.50686e-13
6.91531e-13
2.61885e-12
8.69751e-12
3.08477e-11
1.5577e-10
9.49254e-10
2.00593e-09
1.02714e-09
2.03108e-08
1.05562e-07
3.60442e-07
3.44861e-19
3.25397e-19
6.94171e-19
3.43698e-18
2.89625e-17
3.11914e-16
3.15784e-15
2.53364e-14
1.56491e-13
7.55579e-13
2.89509e-12
9.24202e-12
2.91401e-11
1.45168e-10
7.23301e-10
1.02206e-09
1.09654e-09
6.27939e-08
3.47857e-07
3.60313e-20
2.56712e-20
2.86914e-20
8.96226e-20
6.95806e-19
8.35557e-18
1.19024e-16
1.38779e-15
1.1801e-14
7.6998e-14
3.72668e-13
1.28728e-12
3.67523e-12
6.85417e-12
1.62209e-11
3.338e-10
3.36829e-10
3.7711e-09
2.64042e-07
)
;

boundaryField
{
    leftWall
    {
        type            zeroGradient;
    }
    rightWall
    {
        type            zeroGradient;
    }
    lowerWall
    {
        type            zeroGradient;
    }
    atmosphere
    {
        type            inletOutlet;
        inletValue      uniform 0;
        value           nonuniform List<scalar> 
46
(
2.35033e-08
3.98336e-08
8.31528e-08
8.86332e-09
3.66723e-09
5.23688e-10
1.12317e-10
1.81769e-11
1.15582e-12
4.77131e-14
2.13438e-15
1.38238e-15
1.28823e-15
8.73742e-16
4.23561e-16
1.60351e-16
7.95749e-17
1.31121e-16
3.33293e-16
6.0608e-16
3.46044e-16
0
0
0
0
0
0
0
0
0
0
0
0
0
0
0
0
0
0
0
0
0
0
3.36829e-10
3.7711e-09
2.64042e-07
)
;
    }
    defaultFaces
    {
        type            empty;
    }
}


// ************************************************************************* //
