/*--------------------------------*- C++ -*----------------------------------*\
| =========                 |                                                 |
| \\      /  F ield         | OpenFOAM: The Open Source CFD Toolbox           |
|  \\    /   O peration     | Version:  2312                                  |
|   \\  /    A nd           | Website:  www.openfoam.com                      |
|    \\/     M anipulation  |                                                 |
\*---------------------------------------------------------------------------*/
FoamFile
{
    version     2.0;
    format      ascii;
    arch        "LSB;label=32;scalar=64";
    class       volScalarField;
    location    "5.9";
    object      alpha.water;
}
// * * * * * * * * * * * * * * * * * * * * * * * * * * * * * * * * * * * * * //

dimensions      [0 0 0 0 0 0 0];

internalField   nonuniform List<scalar> 
2268
(
2.94052e-07
2.96859e-07
2.85651e-07
1.73696e-07
3.88993e-08
4.24238e-09
9.63541e-10
5.8836e-10
4.33327e-10
3.16117e-10
2.33994e-10
1.82415e-10
1.48923e-10
1.25624e-10
1.12861e-10
1.11237e-10
1.25085e-10
1.58942e-10
2.11933e-10
3.49351e-10
8.05153e-10
1.2936e-09
1.36223e-09
1.81069e-07
1.62977e-07
8.21585e-08
2.58833e-08
2.49131e-09
1.70023e-09
1.60619e-09
1.29946e-09
8.86494e-10
5.74666e-10
4.34951e-10
3.83525e-10
3.737e-10
3.63938e-10
3.27873e-10
2.63419e-10
2.4745e-10
2.81007e-10
3.86011e-10
5.21996e-10
9.32566e-10
1.29709e-09
1.32005e-09
2.4682e-08
1.14884e-08
8.31385e-09
8.3413e-09
8.46305e-09
8.2997e-09
8.81476e-09
7.81205e-09
2.55855e-09
1.12788e-09
8.08719e-10
7.7623e-10
8.53289e-10
9.06391e-10
9.06769e-10
8.46748e-10
6.70199e-10
5.32751e-10
5.2774e-10
6.26549e-10
9.16278e-10
1.07227e-09
9.73957e-10
3.0002e-10
2.99847e-10
3.0002e-10
2.99847e-10
3.0002e-10
2.99847e-10
4.72529e-10
6.20551e-10
4.69758e-10
3.79111e-10
3.57606e-10
4.01457e-10
4.95013e-10
5.65657e-10
5.84703e-10
5.54533e-10
4.7517e-10
4.40555e-10
4.63833e-10
5.69205e-10
7.01243e-10
7.39549e-10
6.22483e-10
0.0314471
0.0291291
0.0248614
0.0183766
0.0108228
0.00261294
4.3195e-21
3.53805e-21
1.81038e-21
7.5633e-22
2.27943e-22
-1.31933e-28
1.70465e-28
1.61559e-28
3.10426e-12
1.5387e-11
2.7324e-11
8.78308e-11
1.27702e-10
1.48998e-10
1.63257e-10
1.53e-10
1.52429e-10
0.689227
0.680862
0.665495
0.642079
0.608478
0.562327
0.499255
0.425722
0.344395
0.261807
0.187374
0.124236
0.0678907
0.02156
3.49385e-30
3.97916e-29
-3.05156e-22
-7.28035e-17
-3.64452e-17
-5.19825e-17
-9.77587e-17
-1.63994e-16
-3.1388e-20
0.998368
0.998676
0.998527
0.997752
0.996615
0.995905
0.993427
0.987214
0.971283
0.940856
0.891402
0.824622
0.741895
0.641779
0.526999
0.425721
0.320006
0.208938
0.163863
0.154027
0.15706
0.153839
0.14129
0.999463
0.999463
0.999462
0.999462
0.999326
0.999713
0.999738
0.999726
0.999753
0.999765
0.999669
0.999695
0.999755
0.999777
0.995017
0.914408
0.851388
0.838635
0.841736
0.838359
0.837361
0.827147
0.810956
0.00657592
0.00483637
0.00235895
0.00289764
0.00402816
0.00580356
0.00585253
0.00598401
0.00638329
0.00684858
0.00706368
0.00620961
0.00355278
0.00318925
0.00326021
0.00315473
0.00229963
0.00211959
0.00226005
0.00146718
0.00072229
0.000194972
5.96326e-05
2.1788e-22
-2.59063e-06
-1.22691e-06
-1.43481e-07
-1.15565e-07
-7.80613e-21
7.88064e-21
7.54763e-19
-7.0083e-07
-5.44162e-07
-3.85706e-21
-5.14981e-07
-2.05667e-07
-1.99429e-07
-1.11889e-06
2.77452e-05
2.81065e-05
2.77011e-05
2.80699e-05
0.0485265
0.104708
0.16144
0.197308
0.212917
0.230072
0.239311
0.203472
0.157807
0.134624
0.0917927
0.0467036
0.0511275
0.0673844
0.0666473
0.0253263
0.137082
0.2971
0.498848
0.640717
0.720923
0.825677
0.882489
0.921418
0.963302
0.962833
0.950206
0.827672
0.749884
0.673204
0.461639
0.495131
0.764064
0.522716
0.568615
0.726274
0.896663
0.960019
0.966923
0.945049
0.95983
0.990332
0.991852
0.991736
0.926115
0.968149
0.988743
0.948839
0.924442
0.628322
0.839636
0.95089
0.794665
0.780855
0.991501
0.991037
0.990492
0.990498
0.969713
0.978775
0.991852
0.991852
0.969394
0.756443
0.904897
0.988607
0.988476
0.967825
0.743159
0.755384
0.950708
0.953146
0.842242
0.991485
0.989593
0.989483
0.99072
0.991852
0.991463
0.991791
0.991852
0.909643
0.75094
0.901279
0.989125
0.989138
0.890933
0.714214
0.907547
0.952784
0.953162
0.98044
0.991532
0.990722
0.989855
0.988545
0.991852
0.991852
0.991852
0.991852
0.71195
0.774027
0.904409
0.94397
0.951919
0.85954
0.712832
0.949325
0.952803
0.89559
0.997085
0.999462
0.999439
0.999079
0.996748
0.995979
0.999788
0.999789
0.999788
0.999789
0.999788
0.999788
0.999788
0.999786
0.998593
0.993811
0.993695
0.994695
0.994693
0.994695
0.994693
0.992308
0.984935
0.95027
0.938748
0.916532
0.869219
0.865918
0.917608
0.949815
0.960169
0.950528
0.951992
0.984112
0.997411
0.997073
0.994211
0.990893
0.992499
0.990728
0.991022
0.989798
0.986477
0.990643
0.991886
0.990422
0.27651
0.265925
0.282366
0.285612
0.219975
0.211842
0.258004
0.384513
0.621154
0.793259
0.829409
0.814219
0.784887
0.804568
0.830887
0.843934
0.871075
0.869679
0.87127
0.904872
0.93801
0.966066
0.931291
-1.32779e-09
-9.19118e-10
-1.12667e-19
6.59144e-21
3.0858e-19
-6.2511e-15
-4.93915e-08
0.000105359
0.0397569
0.139856
0.169373
0.141836
0.113652
0.133607
0.151678
0.173002
0.183492
0.201819
0.200439
0.196712
0.314332
0.37556
0.248835
2.85184e-06
9.86074e-07
-6.17999e-23
8.38188e-18
2.73815e-09
3.16329e-05
8.73775e-05
1.16255e-06
1.10297e-11
-4.22718e-19
-1.32603e-08
-1.04634e-08
4.0994e-20
-2.63535e-20
-1.11208e-09
-1.23875e-07
-1.63331e-07
-4.13317e-07
-5.18749e-07
8.98334e-17
2.04281e-23
-2.2073e-22
-2.22288e-11
3.83309e-05
4.23956e-05
7.55726e-05
4.10265e-05
1.2774e-05
3.84302e-06
7.34914e-06
1.08489e-06
1.82475e-11
1.5982e-07
4.66855e-06
1.10248e-05
2.69783e-24
-1.57078e-24
1.53092e-06
6.2034e-05
0.000132273
0.000671118
0.00154759
0.000858021
0.000790659
0.000193556
1.36174e-05
0.000135978
5.78419e-05
0.000215811
0.00022066
0.000222883
0.000401551
6.76849e-05
1.10542e-08
1.6284e-11
3.15649e-08
6.0787e-05
9.80066e-05
0.000111565
0.000120209
0.000139191
0.000164091
0.000167789
0.00016902
0.00339041
0.0183286
0.0195157
0.00414601
0.00117732
0.000215626
7.10045e-05
0.000188412
0.00234488
0.00412049
0.00455511
0.0023535
0.000199061
2.27644e-05
7.66454e-05
0.000131498
9.74937e-05
0.000136769
0.000376505
0.00101237
0.00423907
0.00452524
0.00200057
0.00829593
0.0198485
0.0198485
0.0198485
0.0119618
0.000214659
5.68323e-05
3.52291e-05
0.00200057
0.00455747
0.00455747
0.00455747
0.00425442
0.00376862
0.00317881
0.00191071
0.000216964
7.35485e-05
0.00030772
0.0059638
0.0100837
0.0100871
0.0100871
0.0107907
0.0180405
0.0198485
0.0185698
0.00209302
0.000132275
1.67881e-05
3.01383e-05
0.000209231
0.000311977
0.000903991
0.00200938
0.00325559
0.00373168
0.00259162
0.00146365
0.000365948
3.77744e-05
3.78751e-05
0.00465341
0.00978154
0.0100604
0.00795608
0.00375204
0.00188769
0.00192757
0.000197219
1.47552e-06
2.34491e-06
3.60439e-07
6.50801e-06
6.73621e-07
6.89174e-07
5.33604e-07
5.86162e-08
3.42961e-08
3.62373e-08
2.04058e-05
0.000122341
0.00016796
3.78864e-05
0.000225496
0.00104443
0.00151456
0.00155357
0.000705506
6.32511e-08
4.84939e-08
4.81192e-08
5.73358e-08
2.07915e-06
2.13864e-07
7.76261e-08
4.40978e-07
8.98609e-07
8.82636e-07
7.06619e-07
4.94867e-07
3.43543e-07
2.76831e-07
4.08873e-07
5.27213e-07
1.03422e-06
4.41672e-05
0.000154685
9.15677e-06
1.53724e-06
4.21775e-06
1.06135e-07
1.07457e-07
4.81113e-08
4.8369e-08
1.89697e-05
3.10168e-05
1.41243e-07
6.18273e-08
1.2109e-07
4.28805e-07
3.96104e-07
2.8404e-07
3.31396e-07
3.81434e-07
3.98724e-07
5.88953e-07
5.90224e-07
8.06082e-07
5.52585e-06
2.26023e-06
3.72323e-06
1.49507e-06
2.52424e-06
3.0789e-06
1.32111e-06
4.84939e-08
2.45969e-05
2.58838e-05
2.51171e-05
1.28622e-07
1.08427e-07
1.06218e-08
3.70819e-08
3.61461e-08
8.60107e-08
1.58514e-07
2.53202e-07
3.18222e-07
4.7037e-07
5.89034e-07
4.55669e-07
5.37969e-09
5.35518e-09
1.75567e-07
2.61495e-06
6.17423e-06
5.09564e-06
7.18676e-06
1.47922e-05
1.63485e-05
5.38133e-06
2.01143e-06
1.28027e-07
9.26413e-08
1.07161e-08
7.72973e-09
7.60845e-09
2.35355e-08
8.9309e-08
1.3799e-07
1.67651e-07
1.99253e-07
4.02827e-07
2.8204e-07
1.02873e-08
5.33382e-09
5.35422e-09
2.33979e-06
6.18175e-06
2.46004e-06
7.39848e-06
6.38571e-06
1.32278e-06
1.55971e-06
1.12161e-06
7.78204e-08
4.96072e-08
1.09606e-08
6.98307e-09
7.60087e-09
1.59815e-08
3.88571e-08
5.67511e-08
6.68861e-08
6.29739e-08
7.00722e-08
6.15416e-08
1.50302e-08
5.32204e-09
5.33299e-09
7.6051e-07
1.47059e-06
4.75144e-07
9.63728e-07
1.18611e-08
1.12404e-06
1.1088e-05
1.799e-06
2.76463e-08
1.62566e-08
7.80486e-09
6.5462e-09
7.14892e-09
9.66871e-09
1.50164e-08
1.77109e-08
1.94994e-08
1.82221e-08
1.65098e-08
1.72976e-08
9.24646e-09
5.21508e-09
1.58058e-08
1.43792e-07
1.8831e-07
1.27691e-08
1.28939e-08
3.96353e-09
6.52206e-06
1.25383e-05
2.44874e-06
1.47998e-08
6.49154e-09
4.67103e-09
5.05902e-09
5.22765e-09
5.17144e-09
5.23564e-09
5.01733e-09
4.9786e-09
3.99035e-09
2.99744e-09
3.76703e-09
3.47198e-09
3.752e-09
8.7432e-09
5.34135e-08
5.74344e-08
7.66935e-09
4.47167e-09
2.7906e-09
3.87016e-06
1.25758e-05
8.42233e-06
1.19338e-08
4.13661e-09
3.0984e-09
3.54207e-09
3.44522e-09
2.89557e-09
2.36687e-09
2.00389e-09
1.63173e-09
1.36117e-09
1.21191e-09
1.43969e-09
1.85024e-09
2.49455e-09
3.67701e-09
1.10611e-08
1.12228e-08
3.68136e-09
2.69544e-09
2.15438e-09
2.5849e-08
2.91219e-06
1.07822e-05
1.19865e-08
2.81404e-09
1.98684e-09
2.26062e-09
2.06549e-09
1.66023e-09
1.28791e-09
9.81059e-10
7.90957e-10
6.88852e-10
7.27543e-10
8.9656e-10
1.17912e-09
1.61303e-09
2.10011e-09
3.17256e-09
3.20776e-09
2.25205e-09
2.01778e-09
2.13471e-09
8.77855e-09
2.54053e-07
2.90907e-07
1.17299e-08
1.93047e-09
1.24138e-09
1.36057e-09
1.18144e-09
9.29283e-10
7.07245e-10
5.3229e-10
4.20813e-10
3.77305e-10
4.03069e-10
4.88902e-10
6.33267e-10
8.62202e-10
1.14211e-09
1.45359e-09
1.54344e-09
1.39288e-09
1.2879e-09
2.70875e-09
1.24738e-08
3.55278e-08
1.16503e-07
1.13372e-08
1.28816e-09
8.02543e-10
8.28161e-10
7.10049e-10
5.77413e-10
4.45695e-10
3.23696e-10
2.46602e-10
2.07503e-10
2.0294e-10
2.29432e-10
2.86902e-10
3.8375e-10
5.12414e-10
6.49835e-10
7.32962e-10
7.66809e-10
8.15413e-10
2.20819e-09
1.17469e-08
2.1775e-08
6.0442e-08
1.08842e-08
8.50307e-10
5.62751e-10
6.04419e-10
6.13292e-10
5.71622e-10
4.42586e-10
2.79139e-10
1.93324e-10
1.40311e-10
1.1228e-10
1.06534e-10
1.19519e-10
1.51321e-10
1.99661e-10
2.57978e-10
3.14327e-10
3.80375e-10
5.07592e-10
1.27658e-09
4.25749e-09
1.59187e-08
2.93995e-08
1.04811e-08
5.93685e-10
4.88731e-10
6.40665e-10
8.87298e-10
9.89715e-10
6.81423e-10
3.22131e-10
2.04097e-10
1.32101e-10
8.66795e-11
6.24578e-11
5.45974e-11
5.86618e-11
7.29699e-11
9.61928e-11
1.29023e-10
1.80166e-10
2.64044e-10
5.36241e-10
1.01555e-09
2.11432e-09
4.59815e-09
1.01279e-08
4.86009e-10
5.04483e-10
1.10893e-09
1.58167e-09
1.59986e-09
9.4003e-10
3.75639e-10
2.42693e-10
1.50902e-10
8.88389e-11
5.30831e-11
3.48717e-11
2.75409e-11
2.80398e-11
3.57185e-11
5.15583e-11
8.02489e-11
1.24948e-10
2.10809e-10
3.29322e-10
4.23479e-10
1.10539e-09
9.83942e-09
4.65378e-10
7.70337e-10
1.58949e-09
2.40223e-09
3.05744e-09
1.15038e-09
4.02048e-10
2.7818e-10
1.73086e-10
9.84217e-11
5.46252e-11
3.15752e-11
1.91354e-11
1.38375e-11
1.42321e-11
1.97394e-11
3.17853e-11
5.13667e-11
8.60439e-11
1.34055e-10
2.49135e-10
6.04854e-10
9.60439e-09
5.25106e-10
1.17737e-09
2.34651e-09
4.79775e-09
8.57201e-09
1.00803e-09
4.11055e-10
3.19403e-10
1.91886e-10
1.03712e-10
5.79975e-11
3.22052e-11
1.78522e-11
1.01377e-11
7.0719e-12
7.63346e-12
1.13565e-11
1.818e-11
3.02355e-11
5.08649e-11
9.07862e-11
1.98729e-10
9.41135e-09
8.41614e-10
2.1276e-09
4.57409e-09
1.75252e-08
1.87786e-08
5.52647e-10
4.24833e-10
3.68115e-10
1.96302e-10
1.00455e-10
5.59102e-11
3.198e-11
1.79992e-11
9.56784e-12
5.09181e-12
3.48191e-12
3.9872e-12
5.84198e-12
9.30881e-12
1.47931e-11
2.61804e-11
5.09266e-11
9.40665e-09
2.53316e-09
1.04122e-08
3.66931e-08
1.04115e-07
1.46284e-08
4.43017e-10
4.73196e-10
3.65312e-10
1.76713e-10
8.77244e-11
4.96282e-11
2.96318e-11
1.73177e-11
9.3883e-12
4.67618e-12
2.41051e-12
1.49193e-12
1.87514e-12
2.79294e-12
4.209e-12
6.93891e-12
1.25978e-11
9.80749e-09
1.07866e-08
7.4591e-08
3.05086e-07
2.69113e-07
1.97405e-09
4.41629e-10
5.32735e-10
3.32442e-10
1.42861e-10
6.85598e-11
3.98927e-11
2.53571e-11
1.56165e-11
8.83918e-12
4.47575e-12
2.13278e-12
7.43309e-13
6.57816e-13
8.73028e-13
1.25077e-12
1.95593e-12
3.19408e-12
1.10341e-08
3.05933e-08
1.70002e-07
6.0455e-07
2.887e-07
5.20362e-10
5.15086e-10
5.62219e-10
2.80913e-10
1.04923e-10
4.8427e-11
2.90903e-11
1.98269e-11
1.30331e-11
7.8345e-12
4.11722e-12
1.89579e-12
7.04218e-13
2.54524e-13
2.88406e-13
3.96711e-13
5.90562e-13
8.91118e-13
1.39441e-08
5.19017e-08
2.10099e-07
6.04712e-07
1.27743e-07
4.58354e-10
7.48725e-10
5.2922e-10
2.06837e-10
7.17748e-11
3.17661e-11
1.94737e-11
1.39837e-11
9.90399e-12
6.40487e-12
3.59734e-12
1.75562e-12
6.63221e-13
1.33561e-13
9.99813e-14
1.25571e-13
1.78345e-13
2.48396e-13
1.6649e-08
8.62765e-08
5.10564e-07
4.6996e-07
1.87035e-08
5.98645e-10
9.72785e-10
4.28889e-10
1.3176e-10
4.85761e-11
1.99524e-11
1.23803e-11
9.15212e-12
6.76817e-12
4.7057e-12
2.90563e-12
1.53469e-12
6.27009e-13
1.04303e-13
3.63518e-14
3.7206e-14
5.00937e-14
6.48837e-14
2.14164e-08
1.30054e-07
6.28713e-07
2.0561e-07
5.36074e-10
9.57474e-10
1.30273e-09
4.2044e-10
1.1361e-10
3.28046e-11
1.19202e-11
7.11909e-12
5.30503e-12
4.02158e-12
3.04428e-12
2.07924e-12
1.21221e-12
5.75222e-13
1.06706e-13
1.70627e-14
1.12875e-14
1.46738e-14
1.73999e-14
2.13861e-08
1.72275e-07
6.28732e-07
2.15966e-07
5.37887e-10
1.52542e-09
1.78086e-09
4.72273e-10
1.12514e-10
2.36729e-11
6.98003e-12
4.05969e-12
2.86458e-12
2.17898e-12
1.7179e-12
1.30192e-12
8.57738e-13
4.50789e-13
1.28761e-13
1.31791e-14
3.69412e-15
3.96148e-15
4.58726e-15
2.972e-08
2.28927e-07
6.2619e-07
1.89106e-07
5.36686e-10
2.66099e-09
2.24885e-09
5.44387e-10
1.16622e-10
1.90608e-11
4.02062e-12
2.1702e-12
1.48717e-12
1.05616e-12
8.22515e-13
6.83549e-13
5.21107e-13
3.2531e-13
1.11563e-13
1.34166e-14
1.75664e-15
1.21226e-15
1.34438e-15
2.97039e-08
3.55156e-07
6.26364e-07
8.9138e-08
8.91853e-10
7.0686e-09
2.60523e-09
5.7904e-10
1.15647e-10
1.5663e-11
2.22939e-12
1.07452e-12
7.26484e-13
4.69583e-13
3.39689e-13
2.91192e-13
2.56313e-13
1.95432e-13
8.57668e-14
1.43941e-14
1.35296e-15
3.58691e-16
3.63933e-16
3.29797e-08
3.66647e-07
6.14759e-07
4.91825e-09
3.96789e-09
1.06597e-08
2.79047e-09
5.36901e-10
9.68962e-11
1.18975e-11
1.17066e-12
5.05674e-13
3.31634e-13
1.95396e-13
1.22615e-13
9.85401e-14
9.61524e-14
8.95483e-14
5.31401e-14
1.31e-14
1.37836e-15
1.37815e-16
9.27274e-17
3.01141e-08
2.73132e-07
2.42994e-07
4.15783e-09
1.11582e-08
1.11387e-08
2.5864e-09
4.39231e-10
6.50026e-11
7.13274e-12
5.46069e-13
1.99841e-13
1.34405e-13
7.50285e-14
3.98593e-14
2.68393e-14
2.64868e-14
3.00109e-14
2.58295e-14
9.63663e-15
1.36943e-15
8.42506e-17
2.24881e-17
2.42095e-08
1.82954e-07
2.56096e-07
4.16203e-09
1.36492e-08
7.44912e-09
1.4882e-09
2.86491e-10
3.0283e-11
2.79075e-12
1.79782e-13
6.05705e-14
4.35263e-14
2.46702e-14
1.1716e-14
6.08473e-15
5.2223e-15
6.92417e-15
8.49807e-15
5.48553e-15
1.01564e-15
7.5778e-17
7.08079e-18
2.26179e-08
1.44134e-07
2.42111e-07
4.07673e-09
1.35417e-08
3.31253e-09
6.51249e-10
1.2056e-10
1.03807e-11
6.6561e-13
3.43085e-14
1.25891e-14
1.0079e-14
6.09656e-15
2.82488e-15
1.1698e-15
7.70674e-16
1.12843e-15
1.93302e-15
2.17854e-15
6.19277e-16
6.58038e-17
4.70315e-18
2.34249e-08
4.08709e-08
8.95203e-08
8.63619e-09
3.70166e-09
5.32481e-10
1.13236e-10
1.82979e-11
1.16476e-12
4.82028e-14
2.16154e-15
1.39247e-15
1.29639e-15
8.78716e-16
4.25917e-16
1.61447e-16
8.05371e-17
1.32854e-16
3.36605e-16
6.09169e-16
3.46081e-16
5.01987e-17
3.33371e-18
0.990527
0.992777
0.993362
0.993797
0.993144
0.993028
0.993382
0.993659
0.892056
0.899211
0.90183
0.856745
0.0958483
0.109149
0.129279
0.133028
-1.24626e-06
-2.25435e-06
1.48092e-09
5.25393e-18
0.000291305
0.000501533
0.000566434
0.000601817
0.000231649
0.000509372
0.00121423
0.00111601
1.52472e-06
0.000862117
0.00297805
0.00296415
2.11566e-06
0.000167283
0.000621707
0.00118209
2.89797e-06
8.24219e-07
6.64293e-07
2.38954e-07
3.77549e-06
7.20428e-06
1.5381e-05
1.23026e-05
3.10329e-05
3.10377e-05
3.05483e-05
2.43658e-05
1.29073e-05
1.12602e-06
4.70051e-07
4.60022e-07
1.47845e-06
1.33842e-06
5.85779e-07
6.95003e-07
3.57978e-07
3.13811e-07
6.36973e-07
3.39987e-06
2.3558e-07
2.35582e-07
2.77267e-06
9.70215e-06
2.3558e-07
1.07487e-06
9.87766e-06
1.06269e-05
2.69091e-06
9.32156e-06
1.35268e-05
1.01218e-05
1.49939e-05
1.5007e-05
1.50194e-05
1.28719e-05
3.01755e-07
5.77951e-07
1.2871e-05
9.6719e-06
1.42566e-07
1.15842e-07
4.7595e-08
4.84798e-08
6.63729e-08
4.46787e-08
4.77379e-08
3.96006e-08
3.05532e-08
2.3565e-08
6.35243e-09
2.02167e-09
5.34092e-09
4.91935e-09
2.93798e-09
1.99698e-09
1.48757e-09
1.83589e-09
1.7443e-09
2.00187e-09
7.35323e-10
9.16602e-10
1.70228e-09
2.08732e-09
2.65815e-10
3.37134e-10
3.71705e-10
4.72837e-10
6.92868e-11
8.15626e-11
1.04647e-10
1.02876e-10
1.65253e-11
1.95691e-11
2.13043e-11
2.52035e-11
3.96832e-12
4.61577e-12
5.4142e-12
5.48772e-12
1.10759e-12
1.22655e-12
1.28619e-12
1.49531e-12
2.82219e-13
2.88012e-13
3.1674e-13
3.09399e-13
6.98034e-14
6.92976e-14
6.7546e-14
7.31416e-14
1.82937e-14
1.63377e-14
1.59591e-14
1.50963e-14
4.5401e-15
4.06094e-15
3.70212e-15
3.72099e-15
1.19806e-15
1.03185e-15
1.02756e-15
1.00568e-15
3.36284e-16
2.89613e-16
2.60733e-16
2.92042e-16
8.60297e-17
6.72395e-17
6.76608e-17
6.91688e-17
1.78055e-17
1.58212e-17
1.36674e-17
1.49744e-17
3.69819e-18
2.84342e-18
2.67951e-18
2.49162e-18
6.56717e-19
5.10889e-19
4.27978e-19
4.20368e-19
1.24337e-19
6.6604e-20
6.39503e-20
4.98061e-20
0.993792
0.99159
0.981734
0.974362
0.987569
0.991835
0.988115
0.956708
0.838951
0.446755
0.854332
0.945688
0.945686
0.943538
0.919919
0.883766
0.950754
0.951714
0.848971
0.984097
0.927624
0.893962
0.937525
0.974899
0.791059
0.432199
0.215878
0.135783
0.402663
0.928243
0.933343
0.942407
0.942038
0.944672
0.944669
0.94231
0.93002
0.856277
0.787907
0.716902
0.691619
0.68951
0.419901
0.0306367
1.36399e-19
1.04114e-21
0.00266513
0.147987
0.283873
0.302045
0.514208
0.581825
0.479515
0.514689
0.553776
0.820455
0.879824
0.121413
0.0660647
0.0365925
0.0166559
2.88222e-05
2.87057e-05
5.74458e-05
6.98339e-20
-2.99069e-24
5.22901e-20
-6.13267e-20
7.08482e-13
0.000191224
0.000170062
-2.98269e-23
-1.25417e-24
0.0284877
0.177519
0.477919
7.0469e-21
0.000470745
0.000294718
0.000319598
0.000113712
6.71856e-05
0.000530841
0.000128523
1.83475e-05
9.80278e-05
7.66774e-05
8.03735e-06
1.40689e-05
1.57291e-05
3.00366e-06
-6.58555e-12
-6.9971e-07
-4.87825e-07
0.000272687
0.000690083
0.00939277
0.0174424
0.0150092
0.00212604
0.000852923
0.000731407
0.000867871
0.000941132
0.00156507
0.00110378
0.000587783
0.000187919
0.000181265
0.000408574
0.00039268
0.000327127
0.000256021
0.00072358
0.000690274
0.00736258
0.0365744
0.0365899
0.0274607
0.0117699
0.0088488
0.00946427
0.0122595
0.0163439
0.0149801
0.00702234
0.000212133
4.80686e-05
0.000347111
0.00202284
0.00239542
0.00240023
0.00253777
0.00267455
0.00743394
0.0309589
0.0365716
0.0361547
0.0279719
0.0185486
0.0159986
0.0169645
0.0183178
0.0184094
0.0110999
0.000624115
4.40464e-05
4.87257e-06
0.00178853
0.00253789
0.00253789
0.00253789
0.00157292
0.00348433
0.0052364
0.00836261
0.00459454
0.00148323
0.00157094
0.000365034
4.51523e-05
0.000998289
0.00104692
0.00100988
0.000930498
0.000174347
4.01931e-08
0.000120607
0.00123434
0.00219567
0.00226608
-1.46972e-08
2.63063e-22
2.47106e-08
1.05021e-11
1.66023e-13
2.09999e-13
7.46474e-20
-2.71788e-10
1.6652e-27
8.0001e-09
1.64029e-07
5.36336e-07
-1.0877e-26
-1.15885e-26
7.84174e-09
8.82329e-08
1.9313e-06
0.000154559
0.000167313
1.19572e-06
2.36303e-06
7.43303e-06
6.3211e-06
2.48073e-06
2.224e-07
3.60722e-08
3.41751e-08
-2.64698e-24
7.50898e-07
6.39049e-06
2.7892e-05
3.17877e-05
4.96308e-25
4.89344e-07
1.33574e-07
2.21947e-07
5.80343e-07
4.92328e-07
1.0297e-06
3.61337e-06
1.39351e-05
1.4009e-05
4.8154e-06
1.22738e-06
2.72817e-08
2.75289e-08
1.76605e-06
6.34576e-06
5.72892e-06
3.37457e-05
4.31533e-05
2.63622e-05
4.8642e-07
1.72822e-06
3.5293e-07
2.82275e-06
9.02379e-06
5.8492e-07
7.28882e-07
1.12137e-06
1.49188e-06
1.05762e-06
1.67243e-07
2.77349e-08
2.73552e-08
6.16929e-06
7.82627e-06
4.63071e-06
2.64807e-06
5.78536e-06
1.41418e-05
1.43262e-06
9.32968e-07
5.62409e-07
2.40503e-06
1.83811e-05
1.23338e-06
1.2796e-06
7.74153e-07
4.97113e-07
2.52806e-07
1.64454e-07
2.41396e-07
1.51719e-06
6.21303e-06
7.83911e-06
7.82549e-06
2.45817e-06
2.46081e-06
7.06649e-06
6.3818e-06
3.26655e-06
3.39404e-07
4.06674e-07
1.84971e-05
5.02009e-06
3.93446e-06
1.27565e-06
9.23554e-07
1.92886e-06
1.01671e-06
2.68895e-06
2.27758e-06
1.23824e-06
2.00696e-06
3.41294e-06
4.59691e-06
6.37268e-06
1.15165e-06
1.17196e-06
4.49789e-07
3.33817e-07
4.22238e-06
1.86376e-05
2.96061e-05
3.90754e-05
2.44479e-05
2.32646e-05
1.59429e-05
8.20706e-06
6.77489e-06
3.04652e-07
5.64475e-08
6.36616e-08
6.75482e-08
6.51998e-06
1.08257e-05
6.03354e-06
2.05205e-07
2.05289e-07
1.67705e-06
1.85932e-05
1.86394e-05
2.50611e-05
4.29081e-05
4.29093e-05
4.03211e-05
4.29555e-05
3.34738e-05
6.97346e-06
5.6564e-08
5.65767e-08
6.42418e-08
8.79205e-07
1.04823e-05
3.05574e-05
2.69789e-05
6.99651e-06
6.58905e-06
1.54073e-05
1.86368e-05
9.75235e-06
3.0476e-06
2.55072e-05
4.29091e-05
4.29321e-05
4.29287e-05
3.17588e-05
1.03543e-05
2.60736e-06
1.33707e-06
6.32299e-08
8.18233e-07
9.43418e-06
3.80083e-05
3.88967e-05
3.90088e-05
3.06895e-05
9.41663e-06
4.88615e-06
8.73097e-07
4.96948e-08
5.05592e-08
2.6531e-05
4.29092e-05
3.59636e-05
3.47654e-06
3.75842e-06
5.91209e-06
3.7648e-06
2.47598e-06
2.1228e-06
5.24636e-06
5.02944e-06
8.68188e-06
7.51935e-06
3.65705e-06
1.41232e-06
4.27016e-07
3.7024e-07
5.55686e-07
5.68209e-08
3.16625e-09
1.73707e-05
2.12962e-06
2.62599e-07
2.30223e-07
3.33457e-06
4.32996e-06
3.73768e-06
1.57788e-06
2.31521e-06
2.84042e-06
1.923e-06
1.13544e-07
1.13665e-07
1.69089e-07
1.06557e-07
3.54241e-07
1.02045e-07
6.1859e-08
3.83323e-09
1.99065e-09
1.46904e-09
2.94458e-07
2.23671e-07
1.37019e-09
1.47133e-07
1.6095e-07
3.22555e-08
4.70271e-07
1.68339e-06
6.36643e-07
1.78587e-07
2.95701e-07
3.20223e-07
1.03413e-07
8.64707e-08
3.25766e-08
3.30139e-08
1.97744e-08
5.54968e-09
3.23277e-09
2.99123e-09
1.74905e-09
1.3948e-09
4.10104e-10
4.11683e-10
7.0919e-10
1.12712e-09
6.14986e-10
6.14923e-10
1.54747e-07
3.88309e-07
4.26647e-07
2.29375e-07
7.83794e-08
4.84184e-08
6.05724e-08
4.30941e-08
1.73422e-08
8.95546e-09
6.21706e-09
4.26512e-09
2.96042e-09
2.07688e-09
1.48869e-09
1.42384e-09
3.92588e-09
2.5806e-09
2.40399e-09
2.39767e-09
1.02639e-07
4.2674e-07
2.86351e-07
7.83365e-08
2.00896e-08
4.91295e-08
3.16111e-08
1.37391e-08
7.25672e-09
5.70406e-09
4.23448e-09
3.04575e-09
2.3149e-09
2.14279e-09
2.36597e-09
3.09005e-09
3.71688e-09
3.60952e-09
2.53552e-09
2.38143e-09
2.53959e-07
2.77011e-07
8.43999e-08
1.09676e-08
1.25683e-08
7.08641e-09
3.07632e-09
2.94596e-09
2.50282e-09
1.90927e-09
1.55622e-09
1.52643e-09
1.93106e-09
2.75475e-09
3.93577e-09
5.48706e-09
6.94102e-09
5.8982e-09
2.38389e-09
4.91063e-08
2.16154e-07
8.75866e-08
1.61213e-09
1.11638e-09
1.22429e-09
1.19837e-09
1.02959e-09
8.52484e-10
7.37304e-10
7.71096e-10
1.00423e-09
1.48685e-09
2.3811e-09
3.97355e-09
6.49588e-09
9.00508e-09
9.09021e-09
3.82782e-09
1.34386e-08
1.16661e-07
1.22224e-07
4.42077e-10
4.23757e-10
3.96121e-10
3.44357e-10
2.85607e-10
2.75485e-10
3.18898e-10
4.57386e-10
7.35301e-10
1.22701e-09
2.03767e-09
3.46552e-09
5.79903e-09
8.52335e-09
7.78526e-09
8.51422e-09
2.33814e-08
1.82483e-07
1.89145e-07
1.15388e-10
1.11099e-10
1.01161e-10
9.23982e-11
9.67164e-11
1.19027e-10
1.62857e-10
2.56466e-10
5.12116e-10
1.07976e-09
2.02868e-09
3.39675e-09
5.14444e-09
6.64506e-09
5.59034e-09
2.23928e-08
1.0287e-07
2.0229e-07
2.02583e-07
2.51467e-11
2.53732e-11
2.61776e-11
2.96222e-11
3.13409e-11
2.71403e-11
3.96346e-11
9.45405e-11
2.90856e-10
8.67696e-10
2.20111e-09
4.31413e-09
5.81184e-09
5.59463e-09
5.59549e-09
4.91749e-08
1.50084e-07
1.94974e-07
2.02576e-07
6.39244e-12
6.66221e-12
6.9732e-12
5.29238e-12
3.90365e-12
4.88265e-12
1.15104e-11
3.98371e-11
1.56626e-10
4.86139e-10
2.29039e-09
5.70031e-09
8.80181e-09
7.90804e-09
5.69939e-09
5.16038e-08
1.57775e-07
9.19799e-08
2.02576e-07
1.44967e-12
1.62799e-12
1.62248e-12
8.15432e-13
7.92885e-13
1.58974e-12
5.04609e-12
1.91225e-11
7.68396e-11
2.19713e-10
2.2769e-09
7.64964e-09
1.3342e-08
1.24139e-08
9.75555e-09
3.26631e-08
1.04589e-07
7.25912e-08
1.85455e-07
3.44821e-13
3.54679e-13
3.35722e-13
1.99101e-13
3.02583e-13
8.73768e-13
2.89627e-12
1.05463e-11
4.17872e-11
1.65666e-10
2.70716e-09
1.04478e-08
2.28846e-08
2.58149e-08
1.12463e-08
5.18663e-09
1.26251e-08
2.91523e-08
9.34232e-08
6.66518e-14
6.16739e-14
6.48388e-14
9.3348e-14
1.92675e-13
6.06051e-13
2.00663e-12
7.49359e-12
3.30791e-11
1.78998e-10
3.12497e-09
1.34909e-08
3.20562e-08
4.09809e-08
9.39192e-09
4.30453e-09
4.30473e-09
2.07449e-08
7.69967e-08
1.53976e-14
1.52e-14
2.08359e-14
5.08507e-14
1.59531e-13
5.11557e-13
1.62555e-12
6.16383e-12
3.2539e-11
1.73463e-10
2.24861e-09
1.09489e-08
3.36662e-08
4.56726e-08
2.97573e-08
4.30467e-09
4.31308e-09
2.33611e-08
1.14969e-07
3.63284e-15
4.72253e-15
1.01733e-14
3.27912e-14
1.18772e-13
4.39384e-13
1.50721e-12
4.7862e-12
1.91975e-11
8.08727e-11
3.75782e-10
3.16849e-09
2.09909e-08
4.54512e-08
4.8026e-08
5.63244e-09
4.31339e-09
1.98537e-08
1.15011e-07
1.14121e-15
1.81538e-15
5.26186e-15
1.97967e-14
8.0295e-14
3.08615e-13
1.10651e-12
3.42324e-12
1.11681e-11
4.35687e-11
2.39706e-10
1.1654e-09
5.35468e-09
2.79557e-08
4.82273e-08
4.21503e-08
9.16929e-09
1.32763e-08
7.97623e-08
3.11179e-16
6.27349e-16
2.18706e-15
9.32326e-15
4.0995e-14
1.75581e-13
6.73318e-13
2.29456e-12
7.45947e-12
3.63307e-11
2.0586e-10
5.92476e-10
1.64212e-09
1.1102e-08
3.61211e-08
4.76399e-08
3.63333e-08
3.87603e-08
6.57829e-08
8.42509e-17
1.71449e-16
6.37581e-16
3.0439e-15
1.55572e-14
7.60106e-14
3.33559e-13
1.23143e-12
4.15795e-12
1.47147e-11
7.3789e-11
4.55305e-10
1.11463e-09
1.7274e-09
1.16525e-08
3.84815e-08
4.53476e-08
1.13046e-07
1.00075e-07
1.55902e-17
3.09003e-17
1.12509e-16
6.08417e-16
3.70159e-15
2.19475e-14
1.12653e-13
5.09374e-13
1.89198e-12
5.82767e-12
2.33887e-11
1.21584e-10
7.14689e-10
1.53222e-09
2.45755e-09
9.14436e-09
4.08354e-08
1.29774e-07
3.60574e-07
2.6381e-18
3.36766e-18
1.05376e-17
5.8484e-17
4.55355e-16
3.82928e-15
2.65349e-14
1.4998e-13
6.88328e-13
2.60597e-12
8.58096e-12
3.0174e-11
1.52493e-10
9.37111e-10
1.98093e-09
1.00803e-09
1.99668e-08
1.06639e-07
3.59844e-07
3.41234e-19
3.21096e-19
6.82984e-19
3.37564e-18
2.84259e-17
3.07784e-16
3.12608e-15
2.51104e-14
1.55032e-13
7.4734e-13
2.8572e-12
9.08527e-12
2.8221e-11
1.39312e-10
7.01363e-10
1.0031e-09
1.06559e-09
6.19762e-08
3.46584e-07
3.56055e-20
2.53132e-20
2.8229e-20
8.80231e-20
6.82698e-19
8.19913e-18
1.17118e-16
1.3667e-15
1.16195e-14
7.56991e-14
3.655e-13
1.26029e-12
3.58931e-12
6.38013e-12
1.46152e-11
3.21788e-10
3.24748e-10
3.43943e-09
2.63723e-07
)
;

boundaryField
{
    leftWall
    {
        type            zeroGradient;
    }
    rightWall
    {
        type            zeroGradient;
    }
    lowerWall
    {
        type            zeroGradient;
    }
    atmosphere
    {
        type            inletOutlet;
        inletValue      uniform 0;
        value           nonuniform List<scalar> 
46
(
2.34249e-08
4.08709e-08
8.95203e-08
8.63619e-09
3.70166e-09
5.32481e-10
1.13236e-10
1.82979e-11
1.16476e-12
4.82028e-14
2.16154e-15
1.39247e-15
1.29639e-15
8.78716e-16
4.25917e-16
1.61447e-16
8.05371e-17
1.32854e-16
3.36605e-16
6.09169e-16
3.46081e-16
0
0
0
0
0
0
0
0
0
0
0
0
0
0
0
0
0
0
0
0
0
0
3.24748e-10
3.43943e-09
2.63723e-07
)
;
    }
    defaultFaces
    {
        type            empty;
    }
}


// ************************************************************************* //
