/*--------------------------------*- C++ -*----------------------------------*\
| =========                 |                                                 |
| \\      /  F ield         | OpenFOAM: The Open Source CFD Toolbox           |
|  \\    /   O peration     | Version:  2312                                  |
|   \\  /    A nd           | Website:  www.openfoam.com                      |
|    \\/     M anipulation  |                                                 |
\*---------------------------------------------------------------------------*/
FoamFile
{
    version     2.0;
    format      ascii;
    arch        "LSB;label=32;scalar=64";
    class       volScalarField;
    location    "5.9";
    object      p;
}
// * * * * * * * * * * * * * * * * * * * * * * * * * * * * * * * * * * * * * //

dimensions      [1 -1 -2 0 0 0 0];

internalField   nonuniform List<scalar> 
2268
(
4667.33
4676.12
4693.66
4720.45
4757.09
4804
4861.2
4928.26
5004.22
5087.51
5176.05
5267.66
5359.92
5449.78
5533.57
5607.96
5670.65
5720.75
5758.67
5785.96
5804.67
5816.83
5822.98
3868.88
3877.77
3895.27
3921.94
3958.46
4005.34
4062.6
4129.85
4206.13
4289.88
4378.95
4471.13
4564.11
4654.82
4739.35
4814.21
4877.04
4926.94
4964.36
4991.01
5009.13
5020.72
5026.52
3068.95
3077.55
3094.81
3121.21
3157.47
3204.29
3261.68
3329.29
3406.21
3490.88
3580.97
3674.28
3768.69
3861.11
3947.17
4023.04
4086.13
4135.62
4172.01
4197.32
4214.25
4224.95
4230.37
2266.9
2275.43
2292.37
2318.3
2354.11
2400.83
2458.38
2526.53
2604.39
2690.43
2782.02
2876.9
2973.44
3068.59
3157.13
3234.63
3298.08
3346.95
3381.72
3404.87
3419.91
3429.47
3434.47
1474.66
1482.51
1497.58
1520.68
1553.02
1596.39
1652.84
1721.46
1800.58
1888.61
1982.31
2079.22
2178.54
2277.38
2369.21
2448.8
2513.07
2561.11
2593.29
2613.1
2625.59
2634.07
2638.76
941.314
945.185
952.534
963.918
979.758
1001.54
1032.15
1071.88
1120.87
1180.12
1248.91
1324.92
1407.61
1495.52
1584.98
1667.26
1732.65
1782.25
1814.66
1830.13
1837.07
1843.54
1847.89
768.542
769.467
771.212
773.958
777.303
781.787
787.789
796.078
807.908
824.661
847.626
875.972
908.588
945.914
990.233
1041.39
1085.69
1116.48
1134.96
1140.85
1140.08
1139.67
1136.63
709.163
709.76
711.332
713.983
717.304
721.447
726.444
731.837
737.476
742.99
747.99
751.99
754.496
755.912
757.867
764.111
769.594
773.268
774.363
773.414
769.323
761.215
746.247
3314.77
3218.4
3086.82
2940.84
2799.06
2692.95
2619.39
2570.68
2537.51
2513.6
2497.54
2483.73
2472.06
2464.94
2460.95
2455.37
2448.23
2445.15
2445.91
2555.53
2453.25
2317.11
2166.44
2025.54
1920.38
1850.12
1806.27
1776.01
1751.62
1736.73
1724.4
1712.8
1705.98
1702.64
1701.95
1697.96
1696.06
1697.9
1852.28
1734.82
1596.66
1448.06
1329.94
1251.02
1201.58
1171.89
1155.5
1150.68
1145.47
1132.83
1123.05
1120.66
1121.05
1128.82
1130.92
1130.53
1130.14
1257.81
1158.48
1072.9
1001.74
954.378
923.159
905.027
894.74
890.07
896.101
896.272
887.483
880.55
881.038
884.03
886.358
893.884
896.913
896.194
895.061
865.827
857.875
857.733
853.671
843.93
838.829
834.414
830.212
836.503
832.466
824.947
821.079
825.032
828.723
823.304
833.405
837.323
839.778
787.039
789.42
796.995
797.36
793.725
785.352
779.607
773.789
769.187
771.638
764.282
757.509
758.765
766.642
770.725
769.537
782.332
780.674
784.087
734.29
735.034
735.763
734.457
731.697
725.203
719.265
712.681
708.199
703.31
699.187
692.316
697.674
706.705
709.951
715.793
728.604
723.567
725.105
682.535
677.025
674.019
671.243
668.138
664.262
658.799
652.113
647.365
637.867
637.662
634.125
638.691
647.679
652.065
662.513
670.054
665.571
665.629
615.035
615.661
617.189
619.647
623.011
627.289
632.089
637.788
643.9
649.965
655.52
659.664
662.126
662.861
661.46
658.082
656.554
655.091
652.915
649.062
642.623
633.087
621.601
488.778
489.34
490.95
493.339
496.461
500.348
505.167
511.421
519.435
526.523
531.791
535.983
538.888
540.067
539.827
538.298
536.08
533.321
530.066
525.203
518.282
510.432
502.686
385.836
386.523
387.939
390.015
392.695
395.793
399.329
403.328
408.4
413.591
417.117
419.676
421.519
422.057
421.356
419.398
416.55
413.184
407.682
401.648
396.007
389.869
381.954
312.47
313.005
314.097
315.96
318.351
321.012
323.286
325.101
325.987
327.086
328.986
329.972
330.045
329.138
326.936
323.34
318.378
312.567
306
298.945
292.659
285.904
279.275
246.435
246.805
248.043
250.254
252.743
255.315
257.751
260.291
262.509
263.861
265.189
265.586
264.955
263.309
260.28
255.738
249.728
242.399
234.748
226.583
218.807
211.491
205.698
179.361
179.636
180.911
183.446
186.65
190.06
193.804
197.828
201.158
203.884
205.591
206.586
206.474
204.995
201.812
196.84
190.182
182.264
173.853
165.671
157.282
150.088
143.649
110.745
110.819
112.224
115.343
119.712
124.621
129.994
135.279
139.94
143.695
146.766
148.885
149.607
148.516
145.205
139.584
131.962
122.93
113.198
103.461
94.4527
87.1107
80.6005
42.4804
42.2402
43.4639
46.5205
51.3304
57.6206
64.8589
71.829
78.1007
83.7036
88.536
92.2409
94.3233
94.0367
90.6207
83.8743
74.6012
63.9137
53.034
43.3171
35.411
29.6522
24.888
4.69126
4.51869
4.82591
5.83441
7.63545
10.8394
15.4246
20.0499
25.1969
30.708
35.9353
40.166
43.3989
43.9758
40.6106
33.6747
25.2984
17.0538
10.5146
6.42164
3.50096
1.41243
-0.24665
-1.21155
-1.26034
-1.32104
-1.3555
-1.37729
-1.3669
-1.23648
-0.915313
-0.0537908
1.56213
4.34529
7.62496
9.87168
9.85107
7.54994
3.8085
0.773041
-0.840897
-1.35031
-1.47636
-1.56878
-1.67868
-1.70535
-1.6096
-1.61122
-1.61051
-1.61336
-1.65668
-1.72687
-1.77549
-1.79907
-1.82168
-1.8307
-1.83189
-1.77301
-1.79071
-1.84073
-1.84592
-1.75751
-1.7884
-1.79605
-1.79435
-1.82239
-1.84487
-1.83767
-1.83323
-1.79495
-1.79994
-1.80671
-1.82115
-1.84642
-1.87702
-1.90479
-1.92488
-1.95066
-1.97405
-1.9981
-2.02176
-2.03413
-2.03066
-2.03537
-2.03889
-2.01007
-1.97603
-1.95021
-1.94803
-1.95027
-1.94181
-1.93609
-1.96939
-1.97472
-1.9811
-1.99149
-2.00329
-2.01828
-2.03595
-2.05315
-2.0707
-2.08811
-2.10739
-2.13025
-2.14559
-2.14735
-2.14454
-2.13993
-2.12182
-2.10078
-2.08165
-2.07097
-2.06519
-2.05783
-2.04978
-2.11644
-2.12011
-2.12565
-2.1335
-2.14282
-2.15414
-2.16688
-2.1802
-2.19423
-2.20894
-2.22288
-2.23605
-2.24677
-2.2519
-2.2519
-2.24711
-2.23544
-2.22091
-2.20624
-2.19466
-2.18572
-2.17701
-2.16824
-2.25638
-2.25912
-2.26372
-2.27008
-2.2775
-2.286
-2.29555
-2.30597
-2.31716
-2.32869
-2.33939
-2.34866
-2.35538
-2.35857
-2.35861
-2.35583
-2.34877
-2.33925
-2.32885
-2.31874
-2.30872
-2.29865
-2.29047
-2.39167
-2.3937
-2.39735
-2.40238
-2.40831
-2.41509
-2.42274
-2.43111
-2.43998
-2.44896
-2.4573
-2.46432
-2.46926
-2.47172
-2.47132
-2.4691
-2.4645
-2.45796
-2.45047
-2.44195
-2.4326
-2.42372
-2.41641
-2.52383
-2.52538
-2.52827
-2.53229
-2.53716
-2.54276
-2.54904
-2.55581
-2.56286
-2.56987
-2.57632
-2.58168
-2.58544
-2.58733
-2.58716
-2.58542
-2.58209
-2.57743
-2.57189
-2.5654
-2.55863
-2.55162
-2.5444
-2.65421
-2.65541
-2.6577
-2.66094
-2.66494
-2.66958
-2.67473
-2.68023
-2.68586
-2.69135
-2.69634
-2.70044
-2.7033
-2.70475
-2.70467
-2.70334
-2.70089
-2.69757
-2.69362
-2.68927
-2.68498
-2.68032
-2.67382
-2.78332
-2.78426
-2.7861
-2.78872
-2.792
-2.7958
-2.80001
-2.80447
-2.80898
-2.8133
-2.81718
-2.82032
-2.82251
-2.82362
-2.82358
-2.82255
-2.82068
-2.81819
-2.81532
-2.8123
-2.80961
-2.80697
-2.80286
-2.91149
-2.91225
-2.91371
-2.91583
-2.91849
-2.92159
-2.92501
-2.92861
-2.93222
-2.93564
-2.93867
-2.9411
-2.94279
-2.94362
-2.94357
-2.94273
-2.94122
-2.93922
-2.93691
-2.93451
-2.93234
-2.93036
-2.92783
-3.03892
-3.03953
-3.0407
-3.0424
-3.04454
-3.04705
-3.04981
-3.05271
-3.05559
-3.0583
-3.06067
-3.06256
-3.06385
-3.06447
-3.06438
-3.06365
-3.06236
-3.06064
-3.05862
-3.05643
-3.05421
-3.05192
-3.04938
-3.16576
-3.16624
-3.16717
-3.16853
-3.17025
-3.17226
-3.17448
-3.1768
-3.17909
-3.18123
-3.18309
-3.18455
-3.18553
-3.18597
-3.18584
-3.18518
-3.18404
-3.1825
-3.18067
-3.17863
-3.17648
-3.17423
-3.17178
-3.2921
-3.29249
-3.29323
-3.29431
-3.29568
-3.29729
-3.29906
-3.3009
-3.30272
-3.30441
-3.30586
-3.30698
-3.30772
-3.30801
-3.30784
-3.30723
-3.3062
-3.30482
-3.30315
-3.30128
-3.29926
-3.29716
-3.29492
-3.41806
-3.41837
-3.41896
-3.41982
-3.42091
-3.42219
-3.42359
-3.42505
-3.42649
-3.42781
-3.42893
-3.42979
-3.43033
-3.43051
-3.4303
-3.42972
-3.42879
-3.42755
-3.42605
-3.42435
-3.4225
-3.42057
-3.41854
-3.54371
-3.54396
-3.54442
-3.54512
-3.54598
-3.54698
-3.54809
-3.54925
-3.55037
-3.55141
-3.55228
-3.55292
-3.55331
-3.55339
-3.55315
-3.55261
-3.55176
-3.55065
-3.5493
-3.54778
-3.54612
-3.54437
-3.54255
-3.66912
-3.66932
-3.66969
-3.67024
-3.67092
-3.67171
-3.67259
-3.67349
-3.67438
-3.67518
-3.67585
-3.67633
-3.67659
-3.6766
-3.67634
-3.67583
-3.67506
-3.67406
-3.67286
-3.6715
-3.67003
-3.66847
-3.66684
-3.79435
-3.79451
-3.7948
-3.79523
-3.79577
-3.7964
-3.79709
-3.7978
-3.79849
-3.79911
-3.79961
-3.79996
-3.80013
-3.80008
-3.79982
-3.79933
-3.79863
-3.79774
-3.79668
-3.79547
-3.79416
-3.79277
-3.79133
-3.91945
-3.91957
-3.9198
-3.92013
-3.92056
-3.92107
-3.92161
-3.92216
-3.92269
-3.92317
-3.92355
-3.92379
-3.92388
-3.9238
-3.92353
-3.92308
-3.92244
-3.92164
-3.9207
-3.91963
-3.91848
-3.91725
-3.91597
-4.04444
-4.04454
-4.04471
-4.04497
-4.04531
-4.04572
-4.04615
-4.04658
-4.04699
-4.04735
-4.04763
-4.04779
-4.04783
-4.04772
-4.04745
-4.04702
-4.04645
-4.04573
-4.0449
-4.04396
-4.04293
-4.04185
-4.04073
-4.16936
-4.16945
-4.16959
-4.16979
-4.17006
-4.17038
-4.17072
-4.17106
-4.17137
-4.17164
-4.17183
-4.17194
-4.17193
-4.1718
-4.17154
-4.17114
-4.17062
-4.16998
-4.16924
-4.16841
-4.16751
-4.16656
-4.16557
-4.29425
-4.29433
-4.29444
-4.29461
-4.29483
-4.29507
-4.29532
-4.29558
-4.29582
-4.29601
-4.29614
-4.2962
-4.29616
-4.29602
-4.29577
-4.2954
-4.29493
-4.29437
-4.29371
-4.29298
-4.29219
-4.29135
-4.29049
-4.41912
-4.41919
-4.41928
-4.41943
-4.41961
-4.41978
-4.41997
-4.42016
-4.42033
-4.42047
-4.42055
-4.42056
-4.4205
-4.42035
-4.42012
-4.41978
-4.41936
-4.41886
-4.41828
-4.41764
-4.41695
-4.41622
-4.41547
-4.54399
-4.54406
-4.54414
-4.54428
-4.5444
-4.54452
-4.54465
-4.54478
-4.5449
-4.54498
-4.54502
-4.54501
-4.54493
-4.54478
-4.54456
-4.54426
-4.54388
-4.54344
-4.54293
-4.54237
-4.54177
-4.54115
-4.5405
-4.66887
-4.66894
-4.66901
-4.66912
-4.66921
-4.66929
-4.66937
-4.66944
-4.66951
-4.66955
-4.66955
-4.66952
-4.66943
-4.66929
-4.66908
-4.66881
-4.66848
-4.66809
-4.66765
-4.66717
-4.66665
-4.66612
-4.66556
-4.79376
-4.79383
-4.79389
-4.79399
-4.79404
-4.79407
-4.7941
-4.79413
-4.79415
-4.79415
-4.79413
-4.79408
-4.79399
-4.79385
-4.79367
-4.79343
-4.79314
-4.79281
-4.79243
-4.79201
-4.79158
-4.79112
-4.79066
-4.91865
-4.91872
-4.91878
-4.91885
-4.91888
-4.91886
-4.91884
-4.91882
-4.91881
-4.91878
-4.91875
-4.91869
-4.91859
-4.91847
-4.9183
-4.9181
-4.91785
-4.91757
-4.91725
-4.9169
-4.91653
-4.91615
-4.91577
-5.04354
-5.0436
-5.04366
-5.04371
-5.0437
-5.04364
-5.04357
-5.04352
-5.04348
-5.04344
-5.04339
-5.04332
-5.04323
-5.04312
-5.04298
-5.0428
-5.0426
-5.04236
-5.0421
-5.04181
-5.04151
-5.0412
-5.04089
-5.1684
-5.16847
-5.16851
-5.16852
-5.16847
-5.16838
-5.16828
-5.16821
-5.16815
-5.16809
-5.16804
-5.16798
-5.1679
-5.1678
-5.16768
-5.16754
-5.16737
-5.16718
-5.16697
-5.16674
-5.1665
-5.16626
-5.16602
-5.29323
-5.29331
-5.29332
-5.29328
-5.29318
-5.29307
-5.29296
-5.29287
-5.29281
-5.29275
-5.2927
-5.29265
-5.29258
-5.2925
-5.29241
-5.29229
-5.29217
-5.29202
-5.29186
-5.29169
-5.29151
-5.29133
-5.29116
-5.41802
-5.41812
-5.41812
-5.41798
-5.41783
-5.41771
-5.4176
-5.41752
-5.41746
-5.41741
-5.41737
-5.41732
-5.41727
-5.41722
-5.41715
-5.41707
-5.41698
-5.41687
-5.41676
-5.41664
-5.41652
-5.41641
-5.41629
-5.54275
-5.54293
-5.54301
-5.54263
-5.5424
-5.54227
-5.5422
-5.54214
-5.5421
-5.54207
-5.54204
-5.54201
-5.54198
-5.54194
-5.5419
-5.54185
-5.5418
-5.54174
-5.54167
-5.5416
-5.54153
-5.54145
-5.54141
-5.66739
-5.66781
-5.66813
-5.66729
-5.66703
-5.66683
-5.66679
-5.66674
-5.66673
-5.66671
-5.6667
-5.66669
-5.66668
-5.66667
-5.66666
-5.66664
-5.66662
-5.6666
-5.66658
-5.66656
-5.66655
-5.66654
-5.66655
616.34
611.464
605.329
600.46
498.951
496.216
492.87
488.848
375.881
372.611
369.545
366.553
275.576
273.173
271.138
268.837
202.491
200.32
198.773
197.122
139.523
136.85
134.247
132.415
76.2032
73.4478
70.8964
68.8404
22.0586
20.3021
18.9921
18.2148
-0.619861
-0.66753
-0.796466
-0.934296
-1.72064
-1.72153
-1.70233
-1.66975
-1.83116
-1.8258
-1.81175
-1.79456
-1.9293
-1.92348
-1.91529
-1.90578
-2.03999
-2.03308
-2.02639
-2.02064
-2.15909
-2.15324
-2.14808
-2.14368
-2.28241
-2.27723
-2.27269
-2.26886
-2.4102
-2.40598
-2.40151
-2.39758
-2.54061
-2.53771
-2.5341
-2.53023
-2.67081
-2.66925
-2.66679
-2.66352
-2.8003
-2.79883
-2.7968
-2.79413
-2.92544
-2.92376
-2.9218
-2.91951
-3.04715
-3.04566
-3.04407
-3.04223
-3.1697
-3.16833
-3.16693
-3.16549
-3.2931
-3.29192
-3.29072
-3.28951
-3.41695
-3.41592
-3.4149
-3.41388
-3.54114
-3.54025
-3.53936
-3.53848
-3.6656
-3.66481
-3.66403
-3.66327
-3.79024
-3.78954
-3.78886
-3.78819
-3.91501
-3.9144
-3.9138
-3.91321
-4.03988
-4.03935
-4.03882
-4.03831
-4.16484
-4.16437
-4.16391
-4.16346
-4.28985
-4.28944
-4.28904
-4.28865
-4.41491
-4.41456
-4.41421
-4.41388
-4.54002
-4.53971
-4.53942
-4.53913
-4.66515
-4.6649
-4.66464
-4.66439
-4.79031
-4.7901
-4.78988
-4.78968
-4.91549
-4.91531
-4.91514
-4.91497
-5.04067
-5.04053
-5.04039
-5.04026
-5.16585
-5.16575
-5.16565
-5.16555
-5.29104
-5.29096
-5.29089
-5.29083
-5.41622
-5.41618
-5.41614
-5.4161
-5.54139
-5.54138
-5.54138
-5.54137
-5.66657
-5.66659
-5.66661
-5.66664
596.116
587.569
581.288
576.319
571.962
568.711
563.547
555.708
549.198
546.348
548.452
546.857
550.636
557.148
564.572
575.217
577.595
574.865
577.446
480.727
468.375
459.604
451.451
444.041
439.898
435.546
430.43
427.826
424.887
424.512
424.802
429.957
436.548
443.8
452.58
453.902
455.868
463.91
360.786
352.575
346.16
338.668
330.344
327.162
324.428
323.467
322.877
321.642
317.797
318.933
320.584
324.551
330.271
337.2
339.818
346.31
356.899
264.326
259.944
256.588
252.607
248.789
245.238
242.624
241.117
240.44
240.296
239.021
238.213
238.662
240.702
244.255
248.783
252.792
255.877
260.921
194.373
191.562
189.002
186.496
184.116
179.634
175.995
173.383
171.688
171.12
170.617
170.781
171.545
173.134
176.281
180.176
183.861
185.38
188.149
130.375
127.136
124.4
121.913
118.657
113.948
108.863
104.88
101.919
100.485
100.177
101.285
103.503
106.781
110.445
115.747
121.353
126.225
129.774
65.9108
61.8218
58.2926
55.2458
52.3929
48.5364
43.7032
39.4367
36.0848
33.9262
33.5974
34.6403
36.7222
40.3646
45.2872
52.1782
59.3818
65.7273
70.5662
17.0083
14.8639
12.7585
11.2288
9.76157
7.95039
5.8805
4.02242
2.8812
2.25761
2.37065
2.6496
3.11465
4.2951
6.1983
9.98858
14.9623
20.273
24.2747
-0.89286
-0.712445
-0.731036
-0.785181
-1.11815
-1.26734
-1.31447
-1.34464
-1.34045
-1.30917
-1.31106
-1.30788
-1.29578
-1.2854
-1.21024
-0.857811
0.287527
2.90085
5.02479
-1.64073
-1.63176
-1.61629
-1.60946
-1.58813
-1.57244
-1.55935
-1.53715
-1.52188
-1.51645
-1.51758
-1.52348
-1.54155
-1.55383
-1.55579
-1.58675
-1.61189
-1.55076
-1.09042
-1.77107
-1.75487
-1.74038
-1.72874
-1.71287
-1.69851
-1.68655
-1.67213
-1.66134
-1.65622
-1.65632
-1.66165
-1.67355
-1.6846
-1.69258
-1.72165
-1.74748
-1.7965
-1.81439
-1.89149
-1.87884
-1.86701
-1.85465
-1.8414
-1.82935
-1.81912
-1.80929
-1.80111
-1.79638
-1.7964
-1.80056
-1.80851
-1.82255
-1.83699
-1.85248
-1.87056
-1.89665
-1.90807
-2.01234
-2.00333
-1.99414
-1.98307
-1.97135
-1.96124
-1.95279
-1.94588
-1.94061
-1.93752
-1.93704
-1.93998
-1.94579
-1.9584
-1.9754
-1.98639
-1.99629
-2.01436
-2.02139
-2.13731
-2.12953
-2.1213
-2.11142
-2.10158
-2.09329
-2.08708
-2.08324
-2.08073
-2.07875
-2.07739
-2.07877
-2.08398
-2.09367
-2.10844
-2.12041
-2.12746
-2.13958
-2.14273
-2.26336
-2.25594
-2.24851
-2.24021
-2.23281
-2.2271
-2.22344
-2.22181
-2.22102
-2.21878
-2.21547
-2.2159
-2.22199
-2.23167
-2.24355
-2.25297
-2.25982
-2.26409
-2.26563
-2.3918
-2.38448
-2.37796
-2.37163
-2.36631
-2.3628
-2.36077
-2.35935
-2.35763
-2.35443
-2.35205
-2.35324
-2.35982
-2.36907
-2.37669
-2.38257
-2.38697
-2.38939
-2.39177
-2.5243
-2.51698
-2.51081
-2.50574
-2.5013
-2.49795
-2.49586
-2.49364
-2.4899
-2.48735
-2.48696
-2.48966
-2.49465
-2.50026
-2.50428
-2.50846
-2.51258
-2.51627
-2.51857
-2.658
-2.6509
-2.64442
-2.63938
-2.63523
-2.63169
-2.6283
-2.62521
-2.6213
-2.61932
-2.61986
-2.62341
-2.62697
-2.62989
-2.63256
-2.63592
-2.63925
-2.64265
-2.64412
-2.78914
-2.78213
-2.77599
-2.77124
-2.76734
-2.7634
-2.75932
-2.75597
-2.75345
-2.75169
-2.75197
-2.75435
-2.7572
-2.76
-2.76239
-2.76401
-2.7653
-2.76751
-2.76849
-2.91533
-2.90953
-2.90447
-2.90062
-2.8967
-2.89256
-2.88882
-2.88605
-2.88462
-2.88398
-2.88401
-2.88462
-2.88603
-2.88787
-2.8893
-2.89025
-2.89126
-2.89251
-2.89293
-3.03904
-3.03474
-3.03074
-3.02744
-3.02392
-3.02049
-3.01727
-3.01483
-3.01362
-3.01343
-3.01371
-3.01398
-3.01481
-3.01571
-3.01629
-3.01703
-3.01781
-3.01852
-3.0184
-3.16309
-3.15968
-3.15638
-3.1534
-3.15053
-3.14775
-3.14517
-3.14299
-3.14175
-3.14127
-3.14135
-3.14174
-3.14257
-3.14327
-3.14385
-3.14416
-3.14474
-3.14523
-3.14498
-3.28752
-3.2847
-3.28193
-3.27934
-3.27691
-3.2746
-3.2725
-3.27076
-3.26962
-3.26902
-3.26889
-3.26908
-3.26956
-3.27018
-3.27082
-3.27116
-3.27146
-3.2718
-3.27187
-3.41218
-3.40978
-3.40743
-3.40522
-3.40316
-3.40124
-3.39954
-3.39815
-3.39716
-3.39658
-3.39634
-3.39637
-3.39659
-3.39693
-3.39731
-3.39767
-3.3977
-3.39795
-3.39835
-3.53702
-3.53495
-3.53295
-3.53106
-3.52932
-3.52773
-3.52635
-3.52521
-3.52438
-3.52385
-3.52359
-3.52352
-3.52359
-3.52372
-3.52385
-3.52395
-3.52395
-3.52407
-3.52435
-3.66199
-3.66021
-3.65849
-3.65688
-3.65541
-3.65409
-3.65295
-3.65202
-3.65132
-3.65086
-3.6506
-3.65049
-3.65048
-3.6505
-3.65048
-3.65042
-3.65034
-3.6503
-3.65037
-3.78708
-3.78553
-3.78406
-3.78268
-3.78143
-3.78032
-3.77938
-3.77861
-3.77803
-3.77763
-3.7774
-3.77729
-3.77725
-3.77721
-3.77712
-3.77697
-3.77679
-3.77662
-3.77656
-3.91224
-3.9109
-3.90963
-3.90845
-3.90739
-3.90645
-3.90567
-3.90503
-3.90456
-3.90423
-3.90404
-3.90394
-3.90389
-3.90382
-3.9037
-3.9035
-3.90326
-3.903
-3.90291
-4.03746
-4.0363
-4.03519
-4.03418
-4.03328
-4.03249
-4.03184
-4.03132
-4.03093
-4.03067
-4.03051
-4.03044
-4.0304
-4.03032
-4.03018
-4.02995
-4.02968
-4.02939
-4.0293
-4.16272
-4.16171
-4.16075
-4.15988
-4.15911
-4.15845
-4.1579
-4.15748
-4.15716
-4.15695
-4.15684
-4.15679
-4.15676
-4.15668
-4.15653
-4.15629
-4.156
-4.15571
-4.15563
-4.28801
-4.28713
-4.2863
-4.28556
-4.2849
-4.28434
-4.28388
-4.28353
-4.28327
-4.2831
-4.28302
-4.28298
-4.28295
-4.28286
-4.28271
-4.28247
-4.2822
-4.28192
-4.28184
-4.41332
-4.41256
-4.41185
-4.4112
-4.41064
-4.41016
-4.40978
-4.40948
-4.40927
-4.40912
-4.40904
-4.409
-4.40896
-4.40888
-4.4087
-4.40847
-4.40823
-4.40802
-4.40794
-4.53864
-4.53799
-4.53738
-4.53683
-4.53635
-4.53594
-4.53562
-4.53536
-4.53516
-4.53501
-4.53491
-4.53484
-4.53478
-4.53467
-4.5345
-4.5343
-4.53413
-4.534
-4.53394
-4.66399
-4.66343
-4.66291
-4.66244
-4.66202
-4.66168
-4.66139
-4.66116
-4.66096
-4.6608
-4.66065
-4.66053
-4.66044
-4.66031
-4.66015
-4.66001
-4.65992
-4.65989
-4.65989
-4.78933
-4.78887
-4.78843
-4.78803
-4.78768
-4.78738
-4.78713
-4.78691
-4.78672
-4.78654
-4.78635
-4.78617
-4.78601
-4.78585
-4.78572
-4.78566
-4.78569
-4.7858
-4.78586
-4.91468
-4.9143
-4.91394
-4.91361
-4.91332
-4.91306
-4.91283
-4.91264
-4.91246
-4.91229
-4.9121
-4.91186
-4.91163
-4.91142
-4.9113
-4.91134
-4.91149
-4.91174
-4.91186
-5.04004
-5.03974
-5.03945
-5.03918
-5.03894
-5.03872
-5.03853
-5.03835
-5.03819
-5.03803
-5.03789
-5.03767
-5.03735
-5.03705
-5.03693
-5.03706
-5.03733
-5.03772
-5.03794
-5.16538
-5.16516
-5.16494
-5.16474
-5.16455
-5.16437
-5.16421
-5.16406
-5.16393
-5.16379
-5.16366
-5.16351
-5.1632
-5.16286
-5.16258
-5.16278
-5.16325
-5.1638
-5.16415
-5.29072
-5.29057
-5.29042
-5.29028
-5.29014
-5.29001
-5.28989
-5.28978
-5.28966
-5.28955
-5.28944
-5.28932
-5.28912
-5.28886
-5.28842
-5.28854
-5.28932
-5.29008
-5.29062
-5.41604
-5.41597
-5.41589
-5.41581
-5.41573
-5.41565
-5.41557
-5.4155
-5.41542
-5.41534
-5.41525
-5.41516
-5.41504
-5.41492
-5.41453
-5.4146
-5.41575
-5.41669
-5.41758
-5.54136
-5.54136
-5.54135
-5.54134
-5.54132
-5.54129
-5.54126
-5.54122
-5.54118
-5.54114
-5.54109
-5.54106
-5.54103
-5.541
-5.54095
-5.54043
-5.54291
-5.5437
-5.54551
-5.66669
-5.66676
-5.66682
-5.66688
-5.66692
-5.66695
-5.66696
-5.66696
-5.66696
-5.66696
-5.66697
-5.66701
-5.66711
-5.6673
-5.6681
-5.66837
-5.67209
-5.67085
-5.67458
)
;

boundaryField
{
    leftWall
    {
        type            calculated;
        value           nonuniform List<scalar> 
50
(
4667.33
3868.88
3068.95
2266.9
1474.66
941.314
768.542
709.163
615.035
488.778
385.836
312.47
246.435
179.361
110.745
42.4804
4.69126
-1.21155
-1.6096
-1.79495
-1.96939
-2.11644
-2.25638
-2.39167
-2.52383
-2.65421
-2.78332
-2.91149
-3.03892
-3.16576
-3.2921
-3.41806
-3.54371
-3.66912
-3.79435
-3.91945
-4.04444
-4.16936
-4.29425
-4.41912
-4.54399
-4.66887
-4.79376
-4.91865
-5.04354
-5.1684
-5.29323
-5.41802
-5.54275
-5.66739
)
;
    }
    rightWall
    {
        type            calculated;
        value           nonuniform List<scalar> 
50
(
2445.91
1697.9
1130.14
896.194
839.778
784.087
725.105
665.629
577.446
463.91
356.899
260.921
188.149
129.774
70.5662
24.2747
5.02479
-1.09042
-1.81439
-1.90807
-2.02139
-2.14273
-2.26563
-2.39177
-2.51857
-2.64412
-2.76849
-2.89293
-3.0184
-3.14498
-3.27187
-3.39835
-3.52435
-3.65037
-3.77656
-3.90291
-4.0293
-4.15563
-4.28184
-4.40794
-4.53394
-4.65989
-4.78586
-4.91186
-5.03794
-5.16415
-5.29062
-5.41758
-5.54551
-5.67458
)
;
    }
    lowerWall
    {
        type            calculated;
        value           nonuniform List<scalar> 
62
(
5065.47
5074.27
5091.81
5118.6
5155.24
5202.15
5259.35
5326.41
5402.37
5485.66
5574.2
5665.81
5758.07
5847.93
5931.72
6006.11
6068.8
6118.9
6156.82
6184.1
6202.81
6214.97
6221.12
5822.98
5026.52
4230.37
3434.47
2638.76
1847.89
1136.63
746.247
680.396
675.8
669.52
664.103
3314.77
2555.53
1852.28
1257.81
895.061
787.039
734.29
682.535
3700.14
3603.55
3471.51
3325.33
3183.66
3077.8
3004.24
2955.53
2922.38
2898.42
2882.28
2868.79
2857.93
2850.8
2846.82
2841.24
2834.07
2830.98
2831.75
)
;
    }
    atmosphere
    {
        type            calculated;
        value           nonuniform List<scalar> 
46
(
-5.72925
-5.73076
-5.73187
-5.72944
-5.72907
-5.72905
-5.72904
-5.72904
-5.72904
-5.72904
-5.72904
-5.72904
-5.72904
-5.72904
-5.72904
-5.72904
-5.72904
-5.72904
-5.72904
-5.72904
-5.72904
-5.72904
-5.72907
-5.72912
-5.72917
-5.72922
-5.72927
-5.72935
-5.72947
-5.72958
-5.72967
-5.72974
-5.7298
-5.72984
-5.72986
-5.72987
-5.72987
-5.72988
-5.72992
-5.73
-5.73022
-5.73061
-5.7295
-5.73965
-5.73382
-5.74491
)
;
    }
    defaultFaces
    {
        type            empty;
    }
}


// ************************************************************************* //
