/*--------------------------------*- C++ -*----------------------------------*\
| =========                 |                                                 |
| \\      /  F ield         | OpenFOAM: The Open Source CFD Toolbox           |
|  \\    /   O peration     | Version:  2312                                  |
|   \\  /    A nd           | Website:  www.openfoam.com                      |
|    \\/     M anipulation  |                                                 |
\*---------------------------------------------------------------------------*/
FoamFile
{
    version     2.0;
    format      ascii;
    arch        "LSB;label=32;scalar=64";
    class       surfaceScalarField;
    location    "5.9";
    object      phi;
}
// * * * * * * * * * * * * * * * * * * * * * * * * * * * * * * * * * * * * * //

dimensions      [0 3 -1 0 0 0 0];

oriented        oriented;

internalField   nonuniform List<scalar> 
4432
(
1.42128e-07
-1.421e-07
1.16961e-08
1.30459e-07
-1.51828e-07
1.63546e-07
-3.53735e-07
2.01926e-07
-6.12872e-07
2.59153e-07
-9.54229e-07
3.41375e-07
-1.39194e-06
4.37723e-07
-1.90829e-06
5.16369e-07
-2.49773e-06
5.89465e-07
-3.11366e-06
6.15941e-07
-3.7175e-06
6.03859e-07
-4.27698e-06
5.59494e-07
-4.7384e-06
4.6143e-07
-5.03758e-06
2.99189e-07
-5.14632e-06
1.08736e-07
-5.06574e-06
-8.05822e-08
-4.78811e-06
-2.77638e-07
-4.38316e-06
-4.0496e-07
-3.83633e-06
-5.46835e-07
-3.15405e-06
-6.82293e-07
-2.35273e-06
-8.01324e-07
-1.47232e-06
-8.80424e-07
-1.47232e-06
-2.09186e-07
6.71264e-08
-3.45987e-07
2.67294e-07
-4.93216e-07
3.10805e-07
-6.78498e-07
3.87237e-07
-9.32682e-07
5.13368e-07
-1.26562e-06
6.74346e-07
-1.69267e-06
8.64805e-07
-2.21603e-06
1.03977e-06
-2.79586e-06
1.16932e-06
-3.40708e-06
1.22719e-06
-4.00365e-06
1.20044e-06
-4.55955e-06
1.1154e-06
-5.01328e-06
9.15152e-07
-5.31292e-06
5.98817e-07
-5.40717e-06
2.02975e-07
-5.28443e-06
-2.03338e-07
-4.99443e-06
-5.6766e-07
-4.54416e-06
-8.55244e-07
-3.96908e-06
-1.12194e-06
-3.21849e-06
-1.4329e-06
-2.33579e-06
-1.68404e-06
-1.34214e-06
-1.87408e-06
-2.81448e-06
-2.66823e-07
3.33973e-07
-4.06169e-07
4.06662e-07
-5.56866e-07
4.61521e-07
-7.46679e-07
5.77065e-07
-1.00613e-06
7.72833e-07
-1.35118e-06
1.01942e-06
-1.79266e-06
1.30629e-06
-2.33021e-06
1.57733e-06
-2.94373e-06
1.78284e-06
-3.58444e-06
1.86789e-06
-4.203e-06
1.81899e-06
-4.79132e-06
1.7037e-06
-5.28298e-06
1.4068e-06
-5.59564e-06
9.11456e-07
-5.67731e-06
2.84632e-07
-5.55058e-06
-3.30079e-07
-5.21156e-06
-9.0668e-07
-4.72443e-06
-1.34239e-06
-4.09809e-06
-1.74828e-06
-3.27332e-06
-2.25767e-06
-2.30494e-06
-2.65242e-06
-1.23994e-06
-2.93908e-06
-4.05442e-06
-2.01727e-07
5.35734e-07
-3.29691e-07
5.34658e-07
-4.54633e-07
5.86491e-07
-6.26624e-07
7.49083e-07
-8.67703e-07
1.01394e-06
-1.20309e-06
1.35483e-06
-1.64473e-06
1.74795e-06
-2.21225e-06
2.14486e-06
-2.87706e-06
2.44765e-06
-3.58189e-06
2.57273e-06
-4.2509e-06
2.488e-06
-4.91048e-06
2.36328e-06
-5.47174e-06
1.96806e-06
-5.83414e-06
1.27387e-06
-5.93503e-06
3.85523e-07
-5.77689e-06
-4.88225e-07
-5.41809e-06
-1.2655e-06
-4.91431e-06
-1.84618e-06
-4.23628e-06
-2.42632e-06
-3.32395e-06
-3.17001e-06
-2.25206e-06
-3.72432e-06
-1.12014e-06
-4.07102e-06
-5.17457e-06
-9.98275e-08
6.35567e-07
-1.76505e-07
6.11343e-07
-2.35735e-07
6.45723e-07
-3.27296e-07
8.40642e-07
-4.81266e-07
1.1679e-06
-7.46807e-07
1.62036e-06
-1.18635e-06
2.18748e-06
-1.81256e-06
2.77106e-06
-2.59553e-06
3.23062e-06
-3.43453e-06
3.41173e-06
-4.19805e-06
3.25152e-06
-4.98276e-06
3.14798e-06
-5.64953e-06
2.63484e-06
-6.0873e-06
1.71164e-06
-6.22047e-06
5.18687e-07
-6.11135e-06
-5.97342e-07
-5.81063e-06
-1.56622e-06
-5.3025e-06
-2.35432e-06
-4.54881e-06
-3.18001e-06
-3.50035e-06
-4.21848e-06
-2.30089e-06
-4.92379e-06
-1.05516e-06
-5.31675e-06
-6.22973e-06
-1.14557e-07
7.50273e-07
-2.13689e-07
7.10582e-07
-2.91352e-07
7.23472e-07
-3.23045e-07
8.724e-07
-3.96231e-07
1.24113e-06
-6.32468e-07
1.85662e-06
-1.00222e-06
2.55724e-06
-1.46749e-06
3.23632e-06
-2.03264e-06
3.79575e-06
-2.75742e-06
4.13651e-06
-3.57356e-06
4.06766e-06
-4.30127e-06
3.8757e-06
-5.0258e-06
3.35938e-06
-5.78779e-06
2.47363e-06
-6.49635e-06
1.22726e-06
-6.85447e-06
-2.39223e-07
-6.8759e-06
-1.5448e-06
-6.34748e-06
-2.88274e-06
-5.23035e-06
-4.29715e-06
-3.91803e-06
-5.53081e-06
-2.58851e-06
-6.2533e-06
-1.16428e-06
-6.74099e-06
-7.394e-06
3.5876e-07
3.91688e-07
4.85906e-07
5.83648e-07
2.09596e-07
9.99958e-07
-1.12866e-07
1.19499e-06
-7.51506e-07
1.87986e-06
-2.11791e-06
3.22306e-06
-3.66684e-06
4.10616e-06
-4.91833e-06
4.48779e-06
-6.12789e-06
5.00526e-06
-7.51656e-06
5.52512e-06
-8.76124e-06
5.31227e-06
-8.76204e-06
3.87644e-06
-8.60978e-06
3.20707e-06
-8.49903e-06
2.36285e-06
-8.54068e-06
1.26889e-06
-8.44826e-06
-3.31664e-07
-7.94449e-06
-2.04858e-06
-7.11971e-06
-3.70752e-06
-5.9442e-06
-5.47266e-06
-4.67193e-06
-6.80308e-06
-3.17868e-06
-7.74655e-06
-1.42771e-06
-8.49194e-06
-8.82171e-06
-2.33654e-07
6.25526e-07
-5.54335e-07
9.04467e-07
-1.19647e-06
1.6422e-06
-1.7071e-06
1.7057e-06
-2.29579e-06
2.46859e-06
-3.45169e-06
4.37899e-06
-4.75398e-06
5.40846e-06
-6.02846e-06
5.76225e-06
-7.06301e-06
6.03977e-06
-7.72468e-06
6.18672e-06
-7.85202e-06
5.43954e-06
-7.83795e-06
3.86229e-06
-7.80977e-06
3.17882e-06
-8.6221e-06
3.17511e-06
-1.09232e-05
3.56997e-06
-1.27753e-05
1.52033e-06
-1.24356e-05
-2.38823e-06
-1.09768e-05
-5.16637e-06
-9.07622e-06
-7.37319e-06
-6.89012e-06
-8.98916e-06
-4.50968e-06
-1.0127e-05
-2.1581e-06
-1.08435e-05
-1.09798e-05
1.5784e-06
-1.57833e-06
2.24457e-06
-6.66111e-07
1.61079e-06
6.33811e-07
4.66604e-07
1.1442e-06
-7.51505e-07
1.21811e-06
-1.55536e-06
8.03859e-07
-1.96497e-06
4.09602e-07
-2.05004e-06
8.50686e-08
-2.01867e-06
-3.13659e-08
-1.99807e-06
-2.06079e-08
-1.81662e-06
-1.81451e-07
-1.27102e-06
-5.45606e-07
-7.3698e-07
-5.34034e-07
-2.73609e-07
-4.63367e-07
1.69238e-07
-4.42842e-07
6.76558e-07
-5.07312e-07
9.76668e-07
-3.00102e-07
8.14491e-07
1.62186e-07
8.14499e-07
2.50113e-06
-4.07943e-06
2.90386e-06
-1.06878e-06
1.87629e-06
1.66142e-06
3.7461e-07
2.6459e-06
-9.90533e-07
2.58327e-06
-1.94883e-06
1.76216e-06
-2.44722e-06
9.07997e-07
-2.54762e-06
1.85465e-07
-2.44773e-06
-1.31248e-07
-2.2046e-06
-2.63741e-07
-1.79014e-06
-5.95912e-07
-1.04012e-06
-1.29562e-06
-5.39568e-07
-1.03459e-06
-2.22709e-07
-7.80223e-07
-5.53373e-09
-6.60014e-07
2.78371e-07
-7.91214e-07
3.4234e-07
-3.64065e-07
1.37102e-07
3.67432e-07
9.51608e-07
2.97203e-06
-7.05143e-06
3.13169e-06
-1.22843e-06
1.75902e-06
3.03408e-06
-2.45484e-07
4.65041e-06
-1.69329e-06
4.03106e-06
-2.8486e-06
2.91746e-06
-3.7723e-06
1.83167e-06
-4.32418e-06
7.37325e-07
-4.48816e-06
3.27083e-08
-3.3684e-06
-1.38351e-06
-1.58038e-06
-2.38393e-06
-6.72872e-07
-2.20312e-06
-1.12669e-07
-1.59477e-06
3.10391e-07
-1.20326e-06
3.27806e-07
-6.77398e-07
4.71481e-08
-5.10525e-07
-4.83669e-07
1.66789e-07
-5.40938e-07
4.24745e-07
4.10719e-07
1.48948e-06
-8.54088e-06
2.00323e-06
-1.74208e-06
2.352e-06
2.68544e-06
2.79933e-06
4.20317e-06
3.28394e-06
3.54651e-06
1.94219e-06
4.25925e-06
-6.61407e-07
4.43528e-06
-3.24312e-06
3.31905e-06
-4.81378e-06
1.60338e-06
1.57599e-06
-7.77326e-06
9.48039e-06
-1.02883e-05
9.46087e-06
-2.18359e-06
6.19205e-06
1.67408e-06
4.49754e-06
4.91285e-07
3.65637e-06
1.63808e-07
-1.60248e-06
4.74835e-06
-1.26617e-06
-1.69484e-07
2.43534e-06
-3.27672e-06
2.84609e-06
7.46811e-07
-9.28765e-06
-1.42437e-06
4.29136e-07
-3.77968e-06
5.04074e-06
-1.06191e-06
1.48538e-06
-4.21948e-07
2.9065e-06
-3.50651e-06
7.34374e-06
-4.71716e-06
5.64587e-06
-4.38372e-06
2.98555e-06
-2.77568e-06
-4.69956e-09
3.47403e-06
-1.4023e-05
9.25682e-06
-1.60711e-05
1.25324e-05
-5.45918e-06
1.05038e-05
3.70269e-06
8.83138e-06
2.16377e-06
8.39963e-06
5.95616e-07
-2.16644e-06
1.53145e-05
-1.85263e-06
-4.83218e-07
4.02582e-06
-9.15509e-06
6.87198e-06
-8.88132e-06
-4.06013e-07
-8.51323e-06
6.12417e-08
-4.81059e-06
1.33827e-06
-1.28763e-06
-2.03747e-06
8.35368e-07
7.83584e-07
-9.61832e-07
9.141e-06
-1.86836e-06
6.55242e-06
-1.64156e-06
2.75877e-06
6.10215e-07
-2.25647e-06
4.29285e-06
-1.77056e-05
5.16269e-06
-1.6941e-05
7.38403e-06
-7.68051e-06
6.80569e-06
4.28104e-06
6.20741e-06
2.76206e-06
5.39022e-06
1.41284e-06
1.50325e-06
1.92015e-05
3.44015e-06
-2.42008e-06
4.00833e-06
-9.72325e-06
1.08803e-05
-7.09513e-06
6.68932e-06
-7.15525e-06
1.21537e-07
-5.07025e-06
-7.46591e-07
-3.1251e-06
-3.9825e-06
1.75147e-07
-2.51658e-06
1.5427e-06
7.77351e-06
1.2702e-06
6.82496e-06
1.79979e-06
2.2292e-06
3.24375e-06
-3.70043e-06
2.80751e-06
-1.72694e-05
2.48902e-07
-1.43824e-05
1.57881e-06
-9.01042e-06
3.73696e-06
2.1229e-06
3.6356e-06
2.86344e-06
1.74096e-06
3.3075e-06
1.03902e-06
1.99034e-05
4.41077e-06
-5.79182e-06
4.35053e-06
-9.66301e-06
1.52309e-05
-5.03836e-06
1.17277e-05
-5.3514e-06
4.34639e-07
-4.59802e-06
-1.49991e-06
-4.05604e-06
-4.52445e-06
-1.31027e-06
-5.26233e-06
2.04898e-06
4.41427e-06
3.35236e-06
5.52158e-06
4.35917e-06
1.22238e-06
5.30655e-06
-4.64781e-06
1.07238e-07
-1.20701e-05
-3.84847e-06
-1.04267e-05
-2.3009e-06
-1.0558e-05
-8.45699e-08
-9.34209e-08
-2.04271e-06
4.82159e-06
-3.0502e-06
4.31501e-06
6.49771e-07
1.62035e-05
3.76136e-06
-8.90338e-06
3.7061e-06
-9.60773e-06
1.8937e-05
-1.63754e-06
2.26316e-06
-3.26354e-06
2.53058e-06
-5.19262e-06
3.57138e-06
-7.54423e-06
4.05737e-06
-1.08283e-05
5.75271e-06
-1.38369e-05
7.38761e-06
-1.65538e-05
8.12542e-06
-1.80909e-05
7.29941e-06
-1.91961e-05
7.14492e-06
-2.02868e-05
7.27742e-06
-2.08621e-05
6.01481e-06
-2.07598e-05
3.75996e-06
-1.99921e-05
2.41112e-06
-1.88083e-05
1.9913e-06
-1.75251e-05
2.28675e-06
-1.75742e-05
1.56944e-06
-1.89808e-05
-9.81628e-07
-2.05475e-05
-3.59975e-06
-2.18162e-05
-6.10445e-06
-2.22592e-05
-8.54624e-06
-2.17936e-05
-1.05926e-05
-2.12123e-05
-1.14247e-05
-8.53538e-06
-2.36568e-05
-7.16223e-07
2.97952e-06
-2.39715e-06
4.2116e-06
-4.65972e-06
5.83403e-06
-8.06964e-06
7.46735e-06
-1.19074e-05
9.59056e-06
-1.4876e-05
1.03562e-05
-1.71775e-05
1.0427e-05
-1.95517e-05
9.67366e-06
-2.02292e-05
7.82247e-06
-1.98996e-05
6.94782e-06
-2.04789e-05
6.59411e-06
-2.16853e-05
4.96638e-06
-2.20462e-05
2.77201e-06
-2.21015e-05
2.04665e-06
-2.2002e-05
2.18724e-06
-2.28496e-05
2.41707e-06
-2.47643e-05
9.33045e-07
-2.81419e-05
-2.22164e-07
-3.24891e-05
-1.75725e-06
-3.65677e-05
-4.46765e-06
-3.92828e-05
-7.87754e-06
-3.94646e-05
-1.1243e-05
-1.15904e-05
-3.64096e-05
-8.93145e-07
3.87269e-06
-2.25633e-06
5.57484e-06
-4.65879e-06
8.23653e-06
-8.65545e-06
1.1464e-05
-1.14045e-05
1.23397e-05
-1.28617e-05
1.18134e-05
-1.36308e-05
1.11961e-05
-1.50625e-05
1.11054e-05
-1.75741e-05
1.03341e-05
-1.95188e-05
8.89255e-06
-2.18739e-05
8.94921e-06
-2.44489e-05
7.54139e-06
-2.60652e-05
4.38827e-06
-2.66264e-05
2.60793e-06
-2.72406e-05
2.80145e-06
-2.84148e-05
3.59129e-06
-3.10455e-05
3.56369e-06
-3.44614e-05
3.19372e-06
-3.82706e-05
2.05195e-06
-4.13985e-05
-1.33975e-06
-4.20026e-05
-7.2735e-06
-3.94233e-05
-1.38223e-05
-1.63944e-05
-3.46192e-05
-3.731e-06
7.60361e-06
-6.37257e-06
8.21631e-06
-8.57549e-06
1.04394e-05
-1.04937e-05
1.33822e-05
-1.05781e-05
1.2424e-05
-8.79978e-06
1.00351e-05
-8.78579e-06
1.11821e-05
-1.12911e-05
1.36106e-05
-1.57408e-05
1.47837e-05
-2.04147e-05
1.35665e-05
-2.14501e-05
9.98463e-06
-2.19436e-05
8.03485e-06
-2.31505e-05
5.59518e-06
-2.46569e-05
4.11435e-06
-2.64124e-05
4.55696e-06
-2.7911e-05
5.08992e-06
-3.03783e-05
6.03096e-06
-3.29305e-05
5.7459e-06
-3.50503e-05
4.1717e-06
-3.68836e-05
4.93518e-07
-3.71093e-05
-7.0479e-06
-3.64516e-05
-1.448e-05
-1.75392e-05
-3.53069e-05
-4.56619e-06
1.21695e-05
-8.95372e-06
1.26035e-05
-1.20238e-05
1.35092e-05
-1.2679e-05
1.40371e-05
-1.2339e-05
1.20838e-05
-1.22539e-05
9.94987e-06
-1.35495e-05
1.24776e-05
-1.67408e-05
1.68018e-05
-1.75867e-05
1.56296e-05
-1.79962e-05
1.39759e-05
-1.7099e-05
9.08739e-06
-1.66253e-05
7.56117e-06
-1.74233e-05
6.39314e-06
-1.9532e-05
6.22304e-06
-2.15375e-05
6.56239e-06
-2.35528e-05
7.10522e-06
-2.50032e-05
7.48132e-06
-2.59856e-05
6.72816e-06
-2.59916e-05
4.17768e-06
-2.51556e-05
-3.4262e-07
-2.57133e-05
-6.49024e-06
-2.95046e-05
-1.06888e-05
-1.24238e-05
-3.46199e-05
-6.13983e-06
1.8309e-05
-1.18105e-05
1.82739e-05
-1.60008e-05
1.76992e-05
-1.81296e-05
1.61657e-05
-1.94284e-05
1.33824e-05
-2.03425e-05
1.08639e-05
-2.00009e-05
1.21359e-05
-1.92032e-05
1.6004e-05
-1.79647e-05
1.43911e-05
-1.50481e-05
1.10592e-05
-1.36013e-05
7.64063e-06
-1.28094e-05
6.76924e-06
-1.33562e-05
6.9399e-06
-1.48611e-05
7.7279e-06
-1.70179e-05
8.71908e-06
-1.93986e-05
9.48586e-06
-2.16109e-05
9.69349e-06
-2.34127e-05
8.53003e-06
-2.46163e-05
5.38124e-06
-2.50352e-05
7.61896e-08
-2.58866e-05
-5.63896e-06
-2.74706e-05
-9.10479e-06
-1.12657e-05
-2.86289e-05
-8.1967e-06
2.65057e-05
-1.51422e-05
2.52194e-05
-1.9721e-05
2.22781e-05
-2.19508e-05
1.83955e-05
-2.36777e-05
1.51094e-05
-2.49701e-05
1.21564e-05
-2.38413e-05
1.10071e-05
-2.00773e-05
1.22401e-05
-1.63487e-05
1.06624e-05
-1.30901e-05
7.80059e-06
-1.07343e-05
5.28481e-06
-9.27255e-06
5.30752e-06
-8.85193e-06
6.51923e-06
-9.44274e-06
8.31861e-06
-1.10647e-05
1.03409e-05
-1.35158e-05
1.1937e-05
-1.64224e-05
1.26002e-05
-1.93676e-05
1.14754e-05
-2.23491e-05
8.3627e-06
-2.54983e-05
3.22533e-06
-2.86499e-05
-2.4874e-06
-2.98259e-05
-7.92893e-06
-1.21716e-05
-2.892e-05
-9.99541e-06
3.65014e-05
-1.80554e-05
3.32796e-05
-2.25993e-05
2.68221e-05
-2.387e-05
1.96664e-05
-2.45737e-05
1.58132e-05
-2.50094e-05
1.25923e-05
-2.38991e-05
9.89684e-06
-1.98009e-05
8.14191e-06
-1.53506e-05
6.21213e-06
-1.11906e-05
3.64055e-06
-8.32854e-06
2.4228e-06
-6.35707e-06
3.33602e-06
-5.32069e-06
5.48278e-06
-5.41998e-06
8.41781e-06
-7.04334e-06
1.19642e-05
-1.02272e-05
1.5121e-05
-1.41305e-05
1.65035e-05
-1.77721e-05
1.51172e-05
-2.10106e-05
1.16012e-05
-2.47061e-05
6.92082e-06
-2.95499e-05
2.35631e-06
-3.27487e-05
-4.72986e-06
-1.11186e-05
-3.38015e-05
-1.31873e-05
4.96895e-05
-2.4196e-05
4.42887e-05
-3.38187e-05
3.64458e-05
-4.0499e-05
2.63479e-05
-3.85118e-05
1.38264e-05
-3.34238e-05
7.50366e-06
-2.69818e-05
3.45458e-06
-1.89427e-05
1.02673e-07
-1.20542e-05
-6.76312e-07
-6.55957e-06
-1.8541e-06
-3.23186e-06
-9.04912e-07
-1.35474e-06
1.45888e-06
-4.39462e-07
4.56747e-06
-5.96417e-07
8.57475e-06
-2.58508e-06
1.39529e-05
-7.11538e-06
1.96513e-05
-1.32054e-05
2.25937e-05
-2.02497e-05
2.21616e-05
-2.81677e-05
1.95195e-05
-3.69942e-05
1.57477e-05
-4.17452e-05
7.10791e-06
-4.30082e-05
-3.46542e-06
-6.31307e-06
-4.78123e-05
-4.17742e-06
5.38632e-05
-5.16798e-06
4.52765e-05
-5.72506e-06
3.70028e-05
-1.90155e-05
3.96368e-05
-3.60446e-05
3.08531e-05
-4.93176e-05
2.07751e-05
-4.48573e-05
-1.00637e-06
-4.56498e-05
8.94678e-07
-3.71276e-05
-9.19894e-06
-2.39747e-05
-1.50073e-05
-1.00164e-05
-1.48632e-05
4.309e-07
-8.98842e-06
7.37843e-06
-2.38003e-06
1.08992e-05
5.05393e-06
1.15163e-05
1.33355e-05
8.27895e-06
2.28888e-05
6.16091e-06
2.47117e-05
5.81266e-08
2.82641e-05
-1.60358e-05
3.56131e-05
-2.98271e-05
2.95393e-05
-3.18562e-05
9.13694e-06
-4.48053e-05
9.48321e-06
-2.54576e-06
-4.85725e-05
8.26683e-06
4.55927e-05
1.26729e-05
4.08665e-05
1.31179e-05
3.65551e-05
2.08385e-05
3.19157e-05
2.59659e-05
2.57254e-05
2.74889e-05
1.92513e-05
2.3548e-05
2.93347e-06
2.11928e-05
3.24899e-06
1.57245e-05
-3.73115e-06
6.83023e-06
-6.11362e-06
6.68408e-07
-8.70174e-06
9.91752e-06
-1.82376e-05
1.51442e-05
-7.60649e-06
5.30588e-06
1.48912e-05
-4.23866e-06
2.28778e-05
8.10473e-07
1.78385e-05
-1.4812e-07
2.5669e-05
-1.53391e-06
2.96496e-05
2.81772e-06
3.12626e-05
7.56524e-06
2.47928e-05
9.2808e-06
7.4215e-06
1.9916e-05
-1.15243e-06
-1.37233e-05
3.10916e-05
9.74128e-06
3.58511e-05
1.62467e-05
3.43613e-05
2.12818e-05
3.15204e-05
2.68391e-05
2.6361e-05
2.96946e-05
2.28714e-05
3.11088e-05
1.78368e-05
2.51605e-05
8.88073e-06
2.43486e-05
4.06035e-06
2.32356e-05
-2.61859e-06
1.92002e-05
-2.07862e-06
1.0282e-05
2.15882e-07
-2.99044e-06
-4.96573e-06
-9.76391e-06
-8.33483e-07
-6.49516e-07
5.77672e-06
2.97685e-06
1.92513e-05
-8.18861e-07
2.16332e-05
-1.19536e-06
2.60446e-05
1.91468e-06
2.65398e-05
8.92968e-06
2.42482e-05
1.67027e-05
1.70202e-05
2.29198e-05
1.20483e-06
3.33603e-05
-1.15937e-05
-2.07208e-05
4.03575e-05
6.21893e-06
2.96311e-05
1.17883e-05
2.87906e-05
1.66519e-05
2.66554e-05
1.95506e-05
2.34613e-05
2.23666e-05
2.00546e-05
2.44658e-05
1.5737e-05
2.35975e-05
9.74842e-06
2.25102e-05
5.14716e-06
1.84942e-05
1.39707e-06
1.56289e-05
7.86185e-07
1.1782e-05
4.06229e-06
1.22645e-06
5.5892e-06
-4.8105e-06
5.20274e-06
-9.9958e-07
1.9665e-06
3.76712e-06
1.4486e-05
2.89346e-06
2.25067e-05
4.35768e-06
2.45803e-05
6.7754e-06
2.41218e-05
1.16543e-05
1.93687e-05
1.91365e-05
9.53787e-06
2.48844e-05
-4.54373e-06
2.83394e-05
-1.50489e-05
-2.1316e-05
2.89335e-05
4.2482e-06
2.53829e-05
8.39674e-06
2.46422e-05
1.21768e-05
2.28754e-05
1.50204e-05
2.06178e-05
1.72131e-05
1.78619e-05
1.836e-05
1.45901e-05
1.75406e-05
1.05677e-05
1.57224e-05
6.96506e-06
1.32897e-05
3.82947e-06
1.11385e-05
2.93712e-06
9.2053e-06
5.9951e-06
6.13144e-06
8.66258e-06
3.41873e-06
7.91495e-06
-2.41557e-07
5.62628e-06
-3.43613e-07
1.45876e-05
2.17653e-06
1.99861e-05
5.36401e-06
2.13922e-05
8.2912e-06
2.11939e-05
1.26839e-05
1.49752e-05
1.74302e-05
4.79091e-06
1.94307e-05
-6.54491e-06
1.90279e-05
-1.46471e-05
-1.78769e-05
1.55872e-05
3.34219e-06
2.20416e-05
6.55422e-06
2.14309e-05
9.37241e-06
2.00579e-05
1.16012e-05
1.83895e-05
1.31651e-05
1.62984e-05
1.39193e-05
1.38361e-05
1.34456e-05
1.10416e-05
1.20608e-05
8.34978e-06
9.81117e-06
6.079e-06
7.55948e-06
5.18862e-06
6.49313e-06
7.06122e-06
5.6629e-06
9.49255e-06
4.17272e-06
9.40486e-06
1.30283e-06
8.4959e-06
1.77895e-06
1.41111e-05
4.20076e-06
1.75639e-05
6.87852e-06
1.8714e-05
9.76523e-06
1.83067e-05
1.23126e-05
1.24273e-05
1.27313e-05
4.37155e-06
1.1143e-05
-4.95733e-06
9.8126e-06
-1.33177e-05
-1.27558e-05
4.69032e-06
2.70514e-06
1.93374e-05
5.2476e-06
1.88894e-05
7.39565e-06
1.79107e-05
9.094e-06
1.66919e-05
1.03002e-05
1.50928e-05
1.09045e-05
1.32322e-05
1.07764e-05
1.11699e-05
9.89629e-06
9.23001e-06
8.29034e-06
7.68495e-06
6.49471e-06
6.98418e-06
5.61322e-06
7.94261e-06
5.56955e-06
9.5361e-06
5.09024e-06
9.88405e-06
3.51077e-06
1.00753e-05
4.37676e-06
1.3245e-05
6.36983e-06
1.55706e-05
8.40275e-06
1.66808e-05
1.06e-05
1.61091e-05
1.09255e-05
1.21014e-05
8.53161e-06
6.76497e-06
5.7322e-06
-2.15856e-06
3.93164e-06
-1.15176e-05
-7.84083e-06
-9.8488e-07
2.10476e-06
1.72335e-05
4.07648e-06
1.69185e-05
5.75405e-06
1.62338e-05
7.12443e-06
1.5322e-05
8.14584e-06
1.40718e-05
8.7566e-06
1.26218e-05
8.85873e-06
1.1068e-05
8.42983e-06
9.65902e-06
7.53769e-06
8.57713e-06
6.44151e-06
8.08034e-06
5.87546e-06
8.50861e-06
5.97795e-06
9.43356e-06
5.93631e-06
9.92563e-06
5.51442e-06
1.04971e-05
6.41599e-06
1.23433e-05
8.02342e-06
1.3963e-05
9.78591e-06
1.49181e-05
1.13172e-05
1.45775e-05
1.10515e-05
1.23668e-05
8.30826e-06
9.50788e-06
4.33332e-06
1.81605e-06
1.1765e-06
-8.36158e-06
-5.97594e-06
-6.89297e-07
1.59608e-06
1.56379e-05
3.10853e-06
1.54065e-05
4.43919e-06
1.49036e-05
5.5894e-06
1.41722e-05
6.51153e-06
1.315e-05
7.14623e-06
1.19873e-05
7.4296e-06
1.07847e-05
7.3692e-06
9.71951e-06
7.00709e-06
8.93928e-06
6.52421e-06
8.56324e-06
6.28426e-06
8.74854e-06
6.45962e-06
9.25816e-06
6.70675e-06
9.67844e-06
6.966e-06
1.02378e-05
7.95268e-06
1.13566e-05
9.44834e-06
1.24672e-05
1.11709e-05
1.31953e-05
1.26472e-05
1.3101e-05
1.30279e-05
1.19859e-05
1.21506e-05
1.0385e-05
8.0993e-06
5.86694e-06
2.85913e-06
-3.1215e-06
-6.21273e-06
3.09479e-06
1.19369e-06
1.44447e-05
2.35094e-06
1.42495e-05
3.4308e-06
1.38239e-05
4.41841e-06
1.31847e-05
5.25419e-06
1.23143e-05
5.91389e-06
1.13277e-05
6.34013e-06
1.03586e-05
6.53823e-06
9.52146e-06
6.55199e-06
8.92554e-06
6.48694e-06
8.62828e-06
6.55991e-06
8.67554e-06
6.88206e-06
8.93597e-06
7.34473e-06
9.2157e-06
7.96035e-06
9.62208e-06
9.03621e-06
1.02806e-05
1.05395e-05
1.09638e-05
1.23164e-05
1.14183e-05
1.40377e-05
1.13794e-05
1.5302e-05
1.07214e-05
1.62118e-05
9.47503e-06
1.53151e-05
6.76351e-06
1.10879e-05
1.10504e-06
-4.35485e-06
9.22933e-06
8.85965e-07
1.35586e-05
1.75216e-06
1.33834e-05
2.61203e-06
1.29641e-05
3.45103e-06
1.23458e-05
4.22882e-06
1.15366e-05
4.89911e-06
1.06575e-05
5.43562e-06
9.82206e-06
5.82875e-06
9.12832e-06
6.10573e-06
8.64853e-06
6.33509e-06
8.39889e-06
6.6489e-06
8.36167e-06
7.12608e-06
8.45871e-06
7.73903e-06
8.60266e-06
8.53151e-06
8.82948e-06
9.6562e-06
9.15579e-06
1.11458e-05
9.47404e-06
1.29347e-05
9.62921e-06
1.48431e-05
9.47089e-06
1.66937e-05
8.8706e-06
1.853e-05
7.63859e-06
2.01243e-05
5.16893e-06
1.99106e-05
1.31874e-06
-2.76204e-06
1.83169e-05
6.31127e-07
1.29275e-05
1.25507e-06
1.27593e-05
1.92331e-06
1.22958e-05
2.6392e-06
1.16298e-05
3.35767e-06
1.0818e-05
4.04356e-06
9.97152e-06
4.66171e-06
9.20386e-06
5.19303e-06
8.59694e-06
5.65332e-06
8.18818e-06
6.08841e-06
7.96373e-06
6.57046e-06
7.87953e-06
7.15501e-06
7.87406e-06
7.85271e-06
7.90485e-06
8.7131e-06
7.96895e-06
9.82272e-06
8.04602e-06
1.12265e-05
8.07006e-06
1.29081e-05
7.94742e-06
1.47902e-05
7.58864e-06
1.67711e-05
6.88947e-06
1.87737e-05
5.63587e-06
2.04434e-05
3.49914e-06
2.12911e-05
4.70514e-07
-2.75231e-06
2.12808e-05
4.14373e-07
1.25128e-05
8.33992e-07
1.23395e-05
1.34891e-06
1.17807e-05
1.95469e-06
1.10239e-05
2.62296e-06
1.01497e-05
3.31516e-06
9.27922e-06
3.99047e-06
8.52846e-06
4.61924e-06
7.96807e-06
5.20259e-06
7.60473e-06
5.76811e-06
7.3981e-06
6.35122e-06
7.29631e-06
6.99401e-06
7.23114e-06
7.71968e-06
7.17905e-06
8.57112e-06
7.11735e-06
9.60325e-06
7.01373e-06
1.0853e-05
6.82014e-06
1.23239e-05
6.47627e-06
1.39854e-05
5.92697e-06
1.57694e-05
5.10521e-06
1.75335e-05
3.87165e-06
1.89666e-05
2.06574e-06
1.97288e-05
-2.91609e-07
-2.83027e-06
1.98059e-05
2.3156e-07
1.22811e-05
4.84336e-07
1.20865e-05
8.65025e-07
1.13998e-05
1.38002e-06
1.05088e-05
2.0028e-06
9.52673e-06
2.69406e-06
8.58781e-06
3.40405e-06
7.81833e-06
4.09702e-06
7.27497e-06
4.7577e-06
6.94391e-06
5.39352e-06
6.76214e-06
6.03195e-06
6.65774e-06
6.69165e-06
6.57128e-06
7.39997e-06
6.47056e-06
8.1922e-06
6.32494e-06
9.10432e-06
6.10143e-06
1.0161e-05
5.76324e-06
1.13675e-05
5.26953e-06
1.2709e-05
4.58528e-06
1.41403e-05
3.67369e-06
1.55401e-05
2.47168e-06
1.66809e-05
9.24911e-07
1.73485e-05
-9.59849e-07
-2.95315e-06
1.74708e-05
7.13856e-08
1.22092e-05
1.8238e-07
1.19752e-05
4.54511e-07
1.11274e-05
8.95193e-07
1.00679e-05
1.47863e-06
8.94311e-06
2.15841e-06
7.90785e-06
2.88141e-06
7.09516e-06
3.60844e-06
6.54777e-06
4.31465e-06
6.23753e-06
4.98965e-06
6.08698e-06
5.64426e-06
6.00296e-06
6.29216e-06
5.92321e-06
6.95548e-06
5.80706e-06
7.66239e-06
5.61785e-06
8.43656e-06
5.32706e-06
9.29294e-06
4.90666e-06
1.02322e-05
4.33009e-06
1.12407e-05
3.57647e-06
1.22863e-05
2.62794e-06
1.32916e-05
1.46623e-06
1.41272e-05
8.9046e-08
1.46395e-05
-1.47209e-06
-3.07813e-06
1.47637e-05
-6.1667e-08
1.22707e-05
-7.74494e-08
1.19907e-05
9.97601e-08
1.09499e-05
4.78787e-07
9.68859e-06
1.02345e-06
8.39822e-06
1.67954e-06
7.25156e-06
2.39591e-06
6.37859e-06
3.13251e-06
5.81097e-06
3.86003e-06
5.50982e-06
4.55155e-06
5.39527e-06
5.20509e-06
5.34923e-06
5.82736e-06
5.30074e-06
6.43573e-06
5.19851e-06
7.0505e-06
5.00288e-06
7.68946e-06
4.68791e-06
8.36105e-06
4.23487e-06
9.06192e-06
3.62901e-06
9.7809e-06
2.85726e-06
1.04901e-05
1.91854e-06
1.11407e-05
8.15468e-07
1.16668e-05
-4.37109e-07
1.19852e-05
-1.79097e-06
-3.14767e-06
1.20543e-05
-1.86947e-07
1.24571e-05
-3.09739e-07
1.21131e-05
-2.1131e-07
1.08512e-05
1.07692e-07
9.36932e-06
6.10584e-07
7.89508e-06
1.23039e-06
6.63153e-06
1.9167e-06
5.69205e-06
2.64365e-06
5.08381e-06
3.37219e-06
4.78107e-06
4.06833e-06
4.69892e-06
4.71524e-06
4.70212e-06
5.31267e-06
4.70311e-06
5.87002e-06
4.64097e-06
6.40158e-06
4.47113e-06
6.92135e-06
4.16794e-06
7.43703e-06
3.71899e-06
7.94677e-06
3.11906e-06
8.43804e-06
2.36579e-06
8.88967e-06
1.46673e-06
9.27095e-06
4.3407e-07
9.54448e-06
-7.10898e-07
9.67626e-06
-1.92265e-06
-3.12355e-06
9.65146e-06
-3.04173e-07
1.27612e-05
-5.26909e-07
1.23356e-05
-5.04713e-07
1.08287e-05
-2.38189e-07
9.10251e-06
2.18225e-07
7.4384e-06
7.82302e-07
6.0672e-06
1.42579e-06
5.04833e-06
2.1216e-06
4.38777e-06
2.83415e-06
4.0683e-06
3.52728e-06
4.00558e-06
4.16993e-06
4.05926e-06
4.75118e-06
4.12167e-06
5.27175e-06
4.1202e-06
5.73879e-06
4.00389e-06
6.1639e-06
3.74263e-06
6.55619e-06
3.32651e-06
6.91656e-06
2.75849e-06
7.23939e-06
2.04276e-06
7.50863e-06
1.19732e-06
7.70581e-06
2.36789e-07
7.80878e-06
-8.13939e-07
7.80297e-06
-1.91736e-06
-3.01927e-06
7.69831e-06
-4.19424e-07
1.318e-05
-7.39339e-07
1.26551e-05
-7.91913e-07
1.08809e-05
-5.70743e-07
8.88105e-06
-1.57068e-07
7.02446e-06
3.24869e-07
5.58501e-06
9.10469e-07
4.46249e-06
1.56673e-06
3.73128e-06
2.24713e-06
3.38768e-06
2.92608e-06
3.32642e-06
3.5646e-06
3.42053e-06
4.14137e-06
3.54469e-06
4.64366e-06
3.61773e-06
5.07058e-06
3.57679e-06
5.42885e-06
3.38418e-06
5.72983e-06
3.02535e-06
5.98104e-06
2.5071e-06
6.1799e-06
1.84372e-06
6.32142e-06
1.05564e-06
6.39387e-06
1.64239e-07
6.38926e-06
-8.0957e-07
6.30582e-06
-1.83375e-06
-2.87038e-06
6.15639e-06
-5.35262e-07
1.37151e-05
-9.54919e-07
1.30745e-05
-1.08337e-06
1.10091e-05
-8.90138e-07
8.68755e-06
-5.53e-07
6.68706e-06
-1.51441e-07
5.1832e-06
3.80574e-07
3.93024e-06
9.8867e-07
3.12296e-06
1.63097e-06
2.74516e-06
2.27775e-06
2.67943e-06
2.90909e-06
2.789e-06
3.48653e-06
2.96707e-06
3.98785e-06
3.11623e-06
4.39916e-06
3.16531e-06
4.72085e-06
3.06233e-06
4.9622e-06
2.78383e-06
5.13565e-06
2.33349e-06
5.24673e-06
1.73249e-06
5.2974e-06
1.00483e-06
5.28547e-06
1.76078e-07
5.21008e-06
-7.34162e-07
5.07634e-06
-1.70048e-06
-2.69916e-06
4.90491e-06
-6.47329e-07
1.43619e-05
-1.16045e-06
1.35873e-05
-1.35273e-06
1.12011e-05
-1.22613e-06
8.5607e-06
-9.9644e-07
6.45713e-06
-6.39795e-07
4.82633e-06
-1.40082e-07
3.4303e-06
4.27627e-07
2.55504e-06
1.02211e-06
2.15048e-06
1.62802e-06
2.07334e-06
2.23161e-06
2.18523e-06
2.80609e-06
2.39242e-06
3.31456e-06
2.60761e-06
3.72924e-06
2.75048e-06
4.03959e-06
2.75184e-06
4.25065e-06
2.57264e-06
4.37533e-06
2.20867e-06
4.42755e-06
1.68014e-06
4.41517e-06
1.01709e-06
4.34372e-06
2.47463e-07
4.21845e-06
-6.09112e-07
4.05326e-06
-1.5351e-06
-2.51471e-06
3.86828e-06
-7.44783e-07
1.51068e-05
-1.33508e-06
1.41774e-05
-1.58085e-06
1.14467e-05
-1.57503e-06
8.55468e-06
-1.45607e-06
6.33796e-06
-1.09858e-06
4.46865e-06
-6.09212e-07
2.94075e-06
-7.63996e-08
2.02205e-06
4.65706e-07
1.60821e-06
1.01622e-06
1.52268e-06
1.57398e-06
1.62733e-06
2.12646e-06
1.8398e-06
2.63673e-06
2.09723e-06
3.06617e-06
2.32093e-06
3.38662e-06
2.43128e-06
3.59216e-06
2.367e-06
3.69438e-06
2.10634e-06
3.71176e-06
1.66267e-06
3.65982e-06
1.06893e-06
3.54995e-06
3.57276e-07
3.3943e-06
-4.53463e-07
3.20712e-06
-1.3484e-06
-2.31432e-06
3.00649e-06
-8.21553e-07
1.59279e-05
-1.47754e-06
1.48332e-05
-1.77421e-06
1.17432e-05
-1.90122e-06
8.68154e-06
-1.83496e-06
6.27154e-06
-1.46642e-06
4.09996e-06
-9.79725e-07
2.45391e-06
-4.79289e-07
1.52148e-06
4.91379e-09
1.12389e-06
4.86197e-07
1.04129e-06
9.78723e-07
1.13471e-06
1.48228e-06
1.33616e-06
1.97814e-06
1.6013e-06
2.41888e-06
1.88012e-06
2.76144e-06
2.08866e-06
2.98256e-06
2.14582e-06
3.08591e-06
2.00293e-06
3.09024e-06
1.65827e-06
3.01728e-06
1.14185e-06
2.88564e-06
4.88879e-07
2.71143e-06
-2.79415e-07
2.50837e-06
-1.14507e-06
-2.10421e-06
2.29786e-06
-8.67302e-07
1.67953e-05
-1.57285e-06
1.55387e-05
-1.92886e-06
1.20991e-05
-2.14701e-06
8.8996e-06
-2.07318e-06
6.19762e-06
-1.69351e-06
3.7202e-06
-1.21071e-06
1.97104e-06
-7.47745e-07
1.05845e-06
-3.27824e-07
7.03909e-07
7.17317e-08
6.41683e-07
4.80626e-07
7.25775e-07
9.14071e-07
9.02685e-07
1.36523e-06
1.15011e-06
1.79968e-06
1.44566e-06
2.16477e-06
1.72356e-06
2.41656e-06
1.89402e-06
2.54083e-06
1.87865e-06
2.55192e-06
1.64716e-06
2.47557e-06
1.21819e-06
2.33639e-06
6.28079e-07
2.15294e-06
-9.5824e-08
1.94382e-06
-9.36321e-07
-1.88731e-06
1.72693e-06
-8.72874e-07
1.76679e-05
-1.6082e-06
1.62739e-05
-2.02833e-06
1.25192e-05
-2.26503e-06
9.13629e-06
-2.16307e-06
6.09563e-06
-1.75846e-06
3.31558e-06
-1.28215e-06
1.49472e-06
-8.652e-07
6.41503e-07
-5.17869e-07
3.56587e-07
-2.06648e-07
3.3048e-07
1.03178e-07
4.15977e-07
4.45778e-07
5.6012e-07
8.24833e-07
7.71101e-07
1.22555e-06
1.04499e-06
1.59923e-06
1.34993e-06
1.88648e-06
1.60683e-06
2.04874e-06
1.71643e-06
2.08522e-06
1.61073e-06
2.02153e-06
1.28193e-06
1.8869e-06
7.62794e-07
1.70391e-06
8.7095e-08
1.49715e-06
-7.29187e-07
-1.67058e-06
1.28015e-06
-8.32557e-07
1.85008e-05
-1.5721e-06
1.70136e-05
-2.02261e-06
1.29698e-05
-2.24292e-06
9.35666e-06
-2.09382e-06
5.94658e-06
-1.65381e-06
2.87562e-06
-1.19282e-06
1.03378e-06
-8.36044e-07
2.84799e-07
-5.71194e-07
9.18135e-08
-3.53759e-07
1.13129e-07
-1.41476e-07
2.03786e-07
9.60826e-08
3.22661e-07
3.81927e-07
4.85359e-07
7.17617e-07
7.0941e-07
1.07225e-06
9.95398e-07
1.38574e-06
1.29344e-06
1.5956e-06
1.50667e-06
1.67484e-06
1.53158e-06
1.63951e-06
1.31736e-06
1.52146e-06
8.80962e-07
1.35333e-06
2.55414e-07
1.15435e-06
-5.30525e-07
-1.45952e-06
9.43385e-07
-7.45429e-07
1.92461e-05
-1.45575e-06
1.7724e-05
-1.8913e-06
1.34054e-05
-2.06674e-06
9.5322e-06
-1.84869e-06
5.72865e-06
-1.37078e-06
2.39782e-06
-9.5868e-07
6.21807e-07
-6.84768e-07
1.10112e-08
-5.13474e-07
-7.93474e-08
-3.88953e-07
-1.12537e-08
-2.70922e-07
8.58999e-08
-1.32353e-07
1.84242e-07
5.20051e-08
3.01155e-07
2.98575e-07
4.62995e-07
5.99083e-07
6.95044e-07
9.12324e-07
9.80346e-07
1.1663e-06
1.25284e-06
1.30213e-06
1.39589e-06
1.30983e-06
1.3098e-06
1.22306e-06
9.6788e-07
1.07555e-06
4.02934e-07
8.94854e-07
-3.49297e-07
-1.2641e-06
6.99336e-07
-6.13929e-07
1.98604e-05
-1.26826e-06
1.83785e-05
-1.65768e-06
1.3795e-05
-1.72887e-06
9.60354e-06
-1.41732e-06
5.41726e-06
-9.36717e-07
1.91736e-06
-6.2184e-07
3.07085e-07
-4.57586e-07
-1.53081e-07
-3.84375e-07
-1.52391e-07
-3.44933e-07
-5.05247e-08
-3.084e-07
4.95436e-08
-2.54681e-07
1.30702e-07
-1.64339e-07
2.10994e-07
-1.85726e-08
3.17409e-07
2.00451e-07
4.76199e-07
4.76178e-07
7.04791e-07
7.5123e-07
9.77946e-07
9.45533e-07
1.20174e-06
1.01202e-06
1.24346e-06
9.65407e-07
1.01467e-06
8.47903e-07
5.20757e-07
6.95165e-07
-1.96801e-07
-1.09524e-06
5.26629e-07
-4.49067e-07
2.03093e-05
-1.03023e-06
1.89597e-05
-1.36793e-06
1.41328e-05
-1.28049e-06
9.51626e-06
-8.22332e-07
4.95926e-06
-4.10873e-07
1.50607e-06
-2.5692e-07
1.53304e-07
-2.17622e-07