/*--------------------------------*- C++ -*----------------------------------*\
| =========                 |                                                 |
| \\      /  F ield         | OpenFOAM: The Open Source CFD Toolbox           |
|  \\    /   O peration     | Version:  2312                                  |
|   \\  /    A nd           | Website:  www.openfoam.com                      |
|    \\/     M anipulation  |                                                 |
\*---------------------------------------------------------------------------*/
FoamFile
{
    version     2.0;
    format      ascii;
    arch        "LSB;label=32;scalar=64";
    class       volVectorField;
    location    "5.9";
    object      U;
}
// * * * * * * * * * * * * * * * * * * * * * * * * * * * * * * * * * * * * * //

dimensions      [0 1 -1 0 0 0 0];

internalField   nonuniform List<vector> 
2268
(
(0.00253894 -0.00170615 0)
(0.000925892 -1.88306e-05 0)
(-0.000770023 0.000316553 0)
(-0.00279812 0.000497596 0)
(-0.00537775 0.000681971 0)
(-0.00878415 0.000920956 0)
(-0.0131744 0.00120032 0)
(-0.0186335 0.00142459 0)
(-0.025025 0.00164283 0)
(-0.031937 0.00172703 0)
(-0.0389119 0.00170508 0)
(-0.045563 0.00158945 0)
(-0.0514225 0.00132887 0)
(-0.0558096 0.000894625 0)
(-0.0581978 0.000382817 0)
(-0.058371 -0.000129944 0)
(-0.0563307 -0.000677654 0)
(-0.0523268 -0.000928464 0)
(-0.0469091 -0.00127081 0)
(-0.0400367 -0.00150048 0)
(-0.0314657 -0.00176455 0)
(-0.0220456 -0.00200758 0)
(-0.0109879 -0.00433981 0)
(-0.00169238 -7.12108e-05 0)
(-0.00303728 0.0013531 0)
(-0.00479431 0.00140496 0)
(-0.00661034 0.0016536 0)
(-0.00905174 0.00212579 0)
(-0.0123655 0.002765 0)
(-0.0167102 0.00354246 0)
(-0.0221123 0.00422793 0)
(-0.0284446 0.00476809 0)
(-0.035318 0.00499454 0)
(-0.042221 0.00488682 0)
(-0.0488141 0.00452919 0)
(-0.0546496 0.00371918 0)
(-0.0589832 0.00242523 0)
(-0.0612176 0.000847816 0)
(-0.061185 -0.000746339 0)
(-0.0587752 -0.00227212 0)
(-0.0543854 -0.00342105 0)
(-0.0486008 -0.00457015 0)
(-0.0411948 -0.00575494 0)
(-0.0317741 -0.00676427 0)
(-0.021434 -0.00745897 0)
(-0.00876578 -0.0116641 0)
(-0.00219512 0.000848639 0)
(-0.00375391 0.00152625 0)
(-0.00551397 0.00189479 0)
(-0.00735277 0.00244525 0)
(-0.00986878 0.00333963 0)
(-0.0132873 0.00445877 0)
(-0.0177701 0.00575218 0)
(-0.0233753 0.00695129 0)
(-0.0299856 0.00785708 0)
(-0.0371806 0.00825725 0)
(-0.0443731 0.00808395 0)
(-0.0512785 0.00757109 0)
(-0.0574876 0.00624439 0)
(-0.0621155 0.00404101 0)
(-0.064455 0.00128342 0)
(-0.0642776 -0.00145751 0)
(-0.0615143 -0.00394846 0)
(-0.0566625 -0.00589843 0)
(-0.0504123 -0.00763156 0)
(-0.042363 -0.00984369 0)
(-0.031891 -0.0115639 0)
(-0.020861 -0.0129607 0)
(-0.00701302 -0.0188336 0)
(-0.00146226 0.00296148 0)
(-0.00303916 0.00306525 0)
(-0.00446278 0.00329569 0)
(-0.00604566 0.00398905 0)
(-0.00836331 0.00517316 0)
(-0.0116228 0.0066918 0)
(-0.0160258 0.00847752 0)
(-0.0217708 0.0102098 0)
(-0.02887 0.0114695 0)
(-0.0367825 0.0118615 0)
(-0.0446362 0.0113425 0)
(-0.052244 0.0105819 0)
(-0.0592688 0.00871377 0)
(-0.0645819 0.00565952 0)
(-0.0672801 0.00179998 0)
(-0.0671463 -0.00199983 0)
(-0.0641501 -0.00571936 0)
(-0.0589203 -0.00855982 0)
(-0.0524029 -0.0112806 0)
(-0.0436625 -0.0144517 0)
(-0.0318484 -0.0168328 0)
(-0.0199633 -0.0185889 0)
(-0.00524211 -0.0247753 0)
(-0.000545561 0.00203079 0)
(-0.00166297 0.00202589 0)
(-0.00235439 0.00235989 0)
(-0.00313863 0.00336397 0)
(-0.00449417 0.00498287 0)
(-0.00676049 0.00716541 0)
(-0.0105904 0.00978484 0)
(-0.0166344 0.0125274 0)
(-0.0248672 0.0149995 0)
(-0.034329 0.0164907 0)
(-0.0435071 0.016365 0)
(-0.0523818 0.0159925 0)
(-0.0607725 0.0135045 0)
(-0.067099 0.00871008 0)
(-0.070327 0.00246279 0)
(-0.070658 -0.00363093 0)
(-0.068302 -0.00814866 0)
(-0.063486 -0.0111984 0)
(-0.0566154 -0.0144408 0)
(-0.0465174 -0.0194553 0)
(-0.033047 -0.0231719 0)
(-0.0198422 -0.0253076 0)
(-0.00390041 -0.0310498 0)
(-0.000518245 0.00364879 0)
(-0.00197545 0.00337104 0)
(-0.00299034 0.00327682 0)
(-0.00361441 0.00402631 0)
(-0.00401388 0.0054348 0)
(-0.00550005 0.00749897 0)
(-0.00905198 0.0103277 0)
(-0.0139 0.0134158 0)
(-0.0197614 0.0157061 0)
(-0.0270432 0.0164619 0)
(-0.0359743 0.015565 0)
(-0.0449304 0.0152764 0)
(-0.0529511 0.0132298 0)
(-0.061316 0.00950786 0)
(-0.0696856 0.00436494 0)
(-0.0762866 -0.0020856 0)
(-0.0792109 -0.00809109 0)
(-0.0764804 -0.0143651 0)
(-0.0666979 -0.0209904 0)
(-0.0524633 -0.0271807 0)
(-0.037165 -0.0304025 0)
(-0.0220112 -0.0323291 0)
(-0.0040497 -0.0365667 0)
(0.00210532 0.00450014 0)
(0.00542998 0.00503942 0)
(0.00443585 0.00581284 0)
(0.000552079 0.00693649 0)
(-0.0035374 0.0100095 0)
(-0.0144825 0.0152278 0)
(-0.0337859 0.0203209 0)
(-0.0502783 0.0241971 0)
(-0.0636945 0.0272695 0)
(-0.0788958 0.0290974 0)
(-0.0952029 0.0277282 0)
(-0.0998786 0.0237207 0)
(-0.0986412 0.0200152 0)
(-0.0970803 0.0148118 0)
(-0.0963815 0.00781947 0)
(-0.0958242 -2.0552e-05 0)
(-0.0935519 -0.00633995 0)
(-0.0860381 -0.0133058 0)
(-0.0743211 -0.0211715 0)
(-0.0609314 -0.0285269 0)
(-0.045449 -0.0341547 0)
(-0.0266332 -0.0381657 0)
(-0.00665854 -0.0408745 0)
(-0.00214785 0.000989669 0)
(-0.00359961 0.0025432 0)
(-0.0096613 0.00578825 0)
(-0.0170434 0.00610853 0)
(-0.0223003 0.00958976 0)
(-0.0310969 0.0188122 0)
(-0.0462131 0.0240376 0)
(-0.0607357 0.0262711 0)
(-0.0759901 0.029287 0)
(-0.0840005 0.0321471 0)
(-0.0901531 0.029938 0)
(-0.0899383 0.0205776 0)
(-0.0887125 0.016759 0)
(-0.0913948 0.0139904 0)
(-0.112049 0.0107308 0)
(-0.140925 -0.0018218 0)
(-0.147369 -0.0156151 0)
(-0.13472 -0.0274908 0)
(-0.114015 -0.0371555 0)
(-0.0907099 -0.042971 0)
(-0.0646249 -0.0469375 0)
(-0.0366823 -0.0508162 0)
(-0.0191932 -0.0554299 0)
(0.0048616 -0.00284849 0)
(0.0264812 -0.00171974 0)
(0.0226847 0.00168375 0)
(0.0120692 0.00286456 0)
(-0.00233495 0.00288517 0)
(-0.0135559 0.00163205 0)
(-0.0202654 0.000564707 0)
(-0.0229749 -0.000309427 0)
(-0.0231309 -0.000211838 0)
(-0.022726 -0.000143211 0)
(-0.021952 -0.00121118 0)
(-0.0180495 -0.00276022 0)
(-0.0116176 -0.0027623 0)
(-0.00563498 -0.00244447 0)
(-0.000679313 -0.00187813 0)
(0.00466306 -0.00164586 0)
(0.00984832 -0.000813463 0)
(0.0116646 0.00040715 0)
(0.00666672 0.0025267 0)
(0.0144156 -0.0117207 0)
(0.0357733 -0.00419798 0)
(0.0279745 0.00515171 0)
(0.0126427 0.0089374 0)
(-0.00440255 0.00945204 0)
(-0.0173407 0.00664522 0)
(-0.0254037 0.00380304 0)
(-0.0286786 0.00141827 0)
(-0.0287624 0.000243047 0)
(-0.0265628 -0.000228376 0)
(-0.022799 -0.000958811 0)
(-0.0162134 -0.00277445 0)
(-0.0088115 -0.00253982 0)
(-0.00417148 -0.0021222 0)
(-0.00121517 -0.00209531 0)
(0.00127077 -0.00290488 0)
(0.00458001 -0.00219123 0)
(0.00266789 0.00104138 0)
(0.00095464 0.00576445 0)
(0.0173372 -0.0310249 0)
(0.041125 -0.00704455 0)
(0.0287502 0.0114413 0)
(0.00806358 0.0148602 0)
(-0.0117327 0.0121173 0)
(-0.0256574 0.00733226 0)
(-0.0377318 0.00293228 0)
(-0.0468708 -0.000468249 0)
(-0.0518103 -0.00253276 0)
(-0.0465211 -0.00212389 0)
(-0.027444 -0.00346459 0)
(-0.0117849 -0.00970104 0)
(-0.00312049 -0.00800571 0)
(0.000397537 -0.00568969 0)
(0.00596715 -0.0044282 0)
(0.00319655 -0.00580263 0)
(-0.00241949 -0.0019926 0)
(-0.00955712 0.00213318 0)
(-0.00276916 0.00219137 0)
(0.00285312 -0.029065 0)
(0.0238995 -0.00239357 0)
(0.0215892 0.0149265 0)
(0.0282858 0.0246646 0)
(0.0375417 0.0224768 0)
(0.0352412 0.0196718 0)
(0.0109674 0.0169632 0)
(-0.0241932 0.0103699 0)
(-0.0566033 0.00526418 0)
(-0.0354963 -0.0130354 0)
(0.0760412 -0.0238729 0)
(0.120978 -0.00558909 0)
(0.0947056 -0.00187408 0)
(0.052319 -0.00461419 0)
(0.056995 -0.000894458 0)
(0.0175037 0.00316629 0)
(-0.0471722 0.00326707 0)
(0.0189337 0.00266353 0)
(0.0299763 0.00369176 0)
(-0.00937083 -0.0440974 0)
(0.0193816 -0.0105733 0)
(-0.0422091 0.0197525 0)
(-0.0290306 0.0187974 0)
(0.00673593 0.0159481 0)
(-0.0225407 0.0263253 0)
(-0.0517279 0.0248087 0)
(-0.0570655 0.0170539 0)
(-0.0557214 0.00484624 0)
(0.00815008 -0.0592513 0)
(0.0670047 -0.0737417 0)
(0.130088 -0.0213783 0)
(0.147149 0.0135667 0)
(0.108865 0.0082906 0)
(0.107652 0.00204226 0)
(0.0551684 0.0499444 0)
(-0.0897769 -0.00480005 0)
(0.0411262 -0.0392302 0)
(0.0527275 0.0207866 0)
(-0.0923581 -0.0350594 0)
(-0.100404 0.00758058 0)
(-0.079529 0.0173814 0)
(-0.0366483 -0.00297054 0)
(0.00989122 0.0140025 0)
(0.00526468 0.0427202 0)
(-0.0236769 0.029184 0)
(-0.0224638 0.0129591 0)
(-0.0223522 -0.00526959 0)
(0.0424539 -0.0844542 0)
(0.0438639 -0.0846656 0)
(0.0671532 -0.0340617 0)
(0.0967069 0.0181651 0)
(0.0748169 0.0131803 0)
(0.0671422 0.00445316 0)
(0.0375034 0.0830505 0)
(0.0123728 -0.000768418 0)
(0.0472647 -0.0442993 0)
(0.0553086 0.0431475 0)
(-0.0794627 0.0221003 0)
(-0.0838436 -0.00214922 0)
(-0.071641 -0.00114135 0)
(-0.0464162 -0.0166676 0)
(-0.0207481 -0.00671321 0)
(0.0238439 0.0444824 0)
(0.0122962 0.0331299 0)
(0.0140782 0.0120378 0)
(0.0294335 -0.0158047 0)
(0.0487546 -0.0881425 0)
(0.010259 -0.078365 0)
(-0.00864026 -0.0405414 0)
(0.0512633 0.0206039 0)
(0.0467579 0.0126737 0)
(0.0258908 0.00789425 0)
(0.00648321 0.0988069 0)
(0.0296968 -0.0191155 0)
(0.0495382 -0.0461664 0)
(0.0594349 0.0622717 0)
(-0.0659247 0.0522076 0)
(-0.0589286 0.00391907 0)
(-0.0570032 -0.00566906 0)
(-0.0498972 -0.0216205 0)
(-0.0413122 -0.0204619 0)
(0.0143207 0.0316503 0)
(0.0312436 0.0346033 0)
(0.0408755 0.0110799 0)
(0.0676812 -0.0205608 0)
(0.0409995 -0.0679292 0)
(-0.0359254 -0.057366 0)
(-0.0596405 -0.0503231 0)
(0.0111089 0.00124975 0)
(-0.0110464 0.0184356 0)
(-0.0441366 0.0220489 0)
(-0.0177424 0.0963301 0)
(0.0386403 -0.0385971 0)
(0.0317713 -0.048154 0)
(0.0589928 0.0805097 0)
(-0.00594072 0.00614072 0)
(-0.0126874 0.00791591 0)
(-0.0230364 0.0138759 0)
(-0.0332388 0.0159881 0)
(-0.0490348 0.0237964 0)
(-0.0667363 0.0359628 0)
(-0.0821474 0.0422581 0)
(-0.0929165 0.0406275 0)
(-0.0995267 0.0398582 0)
(-0.105488 0.0391985 0)
(-0.110827 0.0328885 0)
(-0.112469 0.0226046 0)
(-0.110022 0.0166371 0)
(-0.10424 0.015668 0)
(-0.0968303 0.0203289 0)
(-0.0938771 0.0149294 0)
(-0.0971037 -0.0103083 0)
(-0.105802 -0.0329187 0)
(-0.113996 -0.0514908 0)
(-0.118855 -0.0663647 0)
(-0.119299 -0.0764527 0)
(-0.116672 -0.0774743 0)
(-0.118147 -0.0492619 0)
(-0.00143754 0.0178996 0)
(-0.00691256 0.0191863 0)
(-0.018004 0.0230593 0)
(-0.0324857 0.0258571 0)
(-0.0548036 0.0359193 0)
(-0.0729806 0.0418679 0)
(-0.0864553 0.0440145 0)
(-0.0986914 0.0402982 0)
(-0.106348 0.0365925 0)
(-0.106756 0.0354184 0)
(-0.108312 0.0304989 0)
(-0.113591 0.0200018 0)
(-0.117581 0.0110113 0)
(-0.118706 0.00855604 0)
(-0.118288 0.00983636 0)
(-0.119189 0.00824153 0)
(-0.126239 -0.000523055 0)
(-0.140362 -0.00868233 0)
(-0.161686 -0.0178069 0)
(-0.186309 -0.0298051 0)
(-0.207453 -0.0419953 0)
(-0.217357 -0.0520679 0)
(-0.210925 -0.0533049 0)
(-0.00170657 0.0148927 0)
(-0.00798387 0.026258 0)
(-0.0156716 0.039738 0)
(-0.034585 0.0540815 0)
(-0.0559807 0.0638219 0)
(-0.0670295 0.0657462 0)
(-0.0708444 0.0631431 0)
(-0.075244 0.0573632 0)
(-0.0852514 0.0449377 0)
(-0.0992471 0.0419821 0)
(-0.111039 0.0430693 0)
(-0.125387 0.0345156 0)
(-0.136947 0.020657 0)
(-0.142338 0.0140652 0)
(-0.144465 0.0144839 0)
(-0.147999 0.016192 0)
(-0.158116 0.011893 0)
(-0.174727 0.00700575 0)
(-0.195469 0.000166249 0)
(-0.217114 -0.0149851 0)
(-0.228021 -0.0392797 0)
(-0.220708 -0.0655866 0)
(-0.201903 -0.0729489 0)
(-0.0110636 0.0297668 0)
(-0.0281589 0.0366358 0)
(-0.0395822 0.0520596 0)
(-0.0512581 0.0723257 0)
(-0.0585452 0.0720773 0)
(-0.052263 0.061581 0)
(-0.0428654 0.0574713 0)
(-0.0481801 0.0641556 0)
(-0.0748541 0.0702868 0)
(-0.0999227 0.0614574 0)
(-0.112529 0.0519656 0)
(-0.116143 0.0426222 0)
(-0.120872 0.0252461 0)
(-0.128587 0.0155759 0)
(-0.137441 0.0173358 0)
(-0.145584 0.022379 0)
(-0.156303 0.0260768 0)
(-0.170415 0.0255948 0)
(-0.183371 0.0191923 0)
(-0.194899 -0.000964152 0)
(-0.200267 -0.0421018 0)
(-0.197626 -0.0825367 0)
(-0.194918 -0.0975796 0)
(-0.0121517 0.0518409 0)
(-0.0372602 0.054505 0)
(-0.0583189 0.063014 0)
(-0.0668368 0.0718925 0)
(-0.0670102 0.0629349 0)
(-0.0640951 0.049518 0)
(-0.0664114 0.0637413 0)
(-0.0806854 0.0847635 0)
(-0.0935716 0.0845938 0)
(-0.0976525 0.0757666 0)
(-0.0944409 0.0521541 0)
(-0.0893021 0.0422846 0)
(-0.0898915 0.0314915 0)
(-0.0986844 0.0260233 0)
(-0.110765 0.0281263 0)
(-0.121967 0.0313873 0)
(-0.131622 0.0360292 0)
(-0.138788 0.0342528 0)
(-0.141105 0.0245827 0)
(-0.136683 0.00336862 0)
(-0.13379 -0.0332022 0)
(-0.146599 -0.0698857 0)
(-0.17254 -0.0866281 0)
(-0.0177389 0.0836679 0)
(-0.0492048 0.085016 0)
(-0.0763802 0.0859926 0)
(-0.091399 0.0825145 0)
(-0.100424 0.0690569 0)
(-0.108298 0.0587133 0)
(-0.107566 0.071346 0)
(-0.104341 0.0931326 0)
(-0.100948 0.0845194 0)
(-0.0888627 0.0713622 0)
(-0.0754321 0.0469331 0)
(-0.0692407 0.0402023 0)
(-0.0687933 0.0378513 0)
(-0.0751721 0.0393557 0)
(-0.0858659 0.0425975 0)
(-0.0986017 0.0452928 0)
(-0.111375 0.0459797 0)
(-0.122542 0.0397662 0)
(-0.130334 0.0231702 0)
(-0.133272 -0.00480448 0)
(-0.135974 -0.0332809 0)
(-0.14337 -0.0481159 0)
(-0.150922 -0.0556411 0)
(-0.0250475 0.113487 0)
(-0.0649071 0.112838 0)
(-0.0958765 0.107044 0)
(-0.111407 0.094252 0)
(-0.121331 0.0770992 0)
(-0.132316 0.0613594 0)
(-0.133381 0.0622494 0)
(-0.117746 0.0778351 0)
(-0.0977211 0.0685779 0)
(-0.0778795 0.0512636 0)
(-0.0613795 0.0339816 0)
(-0.0522261 0.031164 0)
(-0.0476149 0.0352154 0)
(-0.0485656 0.0426126 0)
(-0.0550516 0.0510027 0)
(-0.0664994 0.0576951 0)
(-0.0812596 0.0603886 0)
(-0.0968865 0.0541699 0)
(-0.11213 0.0362499 0)
(-0.12882 0.00586683 0)
(-0.147128 -0.0263859 0)
(-0.158306 -0.0502665 0)
(-0.159075 -0.0667801 0)
(-0.0319113 0.138683 0)
(-0.0796183 0.128283 0)
(-0.112546 0.107234 0)
(-0.124748 0.0847174 0)
(-0.128462 0.073068 0)
(-0.133261 0.0630145 0)
(-0.132839 0.0563475 0)
(-0.118549 0.0572007 0)
(-0.0939027 0.0463024 0)
(-0.0694429 0.027825 0)
(-0.048339 0.0163988 0)
(-0.037596 0.0196365 0)
(-0.0303491 0.0298312 0)
(-0.0280228 0.0438916 0)
(-0.0331734 0.0598494 0)
(-0.0471901 0.0728308 0)
(-0.0668492 0.0776738 0)
(-0.0867227 0.0703782 0)
(-0.104085 0.0525224 0)
(-0.121921 0.0270929 0)
(-0.144908 -0.000366728 0)
(-0.168787 -0.0326027 0)
(-0.181055 -0.0594495 0)
(-0.0398157 0.194456 0)
(-0.10424 0.176424 0)
(-0.168904 0.138973 0)
(-0.208328 0.0991086 0)
(-0.206745 0.0770172 0)
(-0.189654 0.0595126 0)
(-0.159552 0.0456039 0)
(-0.121407 0.0378861 0)
(-0.0808639 0.0323047 0)
(-0.0461305 0.0241099 0)
(-0.0223048 0.0220256 0)
(-0.0102189 0.030161 0)
(-0.00277033 0.0453083 0)
(-0.00117737 0.0634124 0)
(-0.00752686 0.0817446 0)
(-0.0267802 0.0942809 0)
(-0.0555564 0.0951488 0)
(-0.0890173 0.0821573 0)
(-0.128281 0.0608034 0)
(-0.17528 0.0367212 0)
(-0.214761 0.0154689 0)
(-0.230935 -0.0266449 0)
(-0.244249 -0.0640563 0)
(-0.0176699 0.325211 0)
(-0.0349333 0.294231 0)
(-0.0291308 0.246803 0)
(-0.0348406 0.218204 0)
(-0.162482 0.0999335 0)
(-0.25809 0.0306454 0)
(-0.24532 -0.00905049 0)
(-0.260274 -0.036772 0)
(-0.219747 -0.0404844 0)
(-0.154948 -0.0399617 0)
(-0.0795251 -0.024249 0)
(-0.0179781 0.00325457 0)
(0.0229438 0.0321184 0)
(0.0472417 0.0559419 0)
(0.0561636 0.0808049 0)
(0.0471877 0.105315 0)
(0.0263253 0.123306 0)
(0.0231856 0.1348 0)
(-0.0163289 0.143017 0)
(-0.119724 0.117302 0)
(-0.175145 0.056989 0)
(-0.190198 0.00888136 0)
(-0.267366 0.00282875 0)
(0.0233051 0.326509 0)
(0.0560146 0.268612 0)
(0.073716 0.212754 0)
(0.0897129 0.211484 0)
(0.129146 0.17828 0)
(0.125132 0.146871 0)
(0.156873 -0.00965661 0)
(0.115952 0.0339374 0)
(0.0982692 -0.0403518 0)
(0.0687534 -0.094547 0)
(-0.00641703 -0.124987 0)
(0.0261031 -0.100944 0)
(0.0654994 -0.0507066 0)
(0.0660181 0.0245932 0)
(-0.0156508 0.0789887 0)
(-0.00358898 0.12508 0)
(0.00472672 0.152903 0)
(-0.00651196 0.176911 0)
(0.00331726 0.211496 0)
(0.0149221 0.184711 0)
(0.0467088 0.0613199 0)
(0.072087 0.0550898 0)
(0.148022 -0.0366471 0)
(0.02686 0.195207 0)
(0.0722756 0.182281 0)
(0.100661 0.164993 0)
(0.130219 0.134784 0)
(0.15609 0.13113 0)
(0.163249 0.104319 0)
(0.158981 0.0510696 0)
(0.128823 0.0207435 0)
(0.12205 -0.0201811 0)
(0.119185 -0.00471463 0)
(0.089828 -0.00197012 0)
(0.0137658 -0.0999296 0)
(-0.0528069 -0.0478543 0)
(-0.0269696 0.0768636 0)
(0.0162868 0.134772 0)
(0.00214968 0.099492 0)
(-0.00542437 0.143801 0)
(-0.000479638 0.154462 0)
(0.0294248 0.152204 0)
(0.0614371 0.113827 0)
(0.105458 0.0209194 0)
(0.153861 -0.0593987 0)
(0.206137 -0.109559 0)
(0.0139622 0.184615 0)
(0.0493905 0.180345 0)
(0.0765581 0.167875 0)
(0.0991975 0.148414 0)
(0.113261 0.119015 0)
(0.127389 0.0842528 0)
(0.130497 0.0424703 0)
(0.125897 0.0194307 0)
(0.111696 0.000439291 0)
(0.0868691 -0.00564494 0)
(0.0790692 0.0121354 0)
(0.0335836 0.0274457 0)
(-0.0206538 0.0232571 0)
(-0.0220687 -0.0175188 0)
(0.0131438 0.0613608 0)
(0.018501 0.117022 0)
(0.0203079 0.139667 0)
(0.0289623 0.141957 0)
(0.0479438 0.120997 0)
(0.0794396 0.0719972 0)
(0.121224 -0.0116781 0)
(0.143618 -0.0742664 0)
(0.157093 -0.116688 0)
(0.00895531 0.146178 0)
(0.0344892 0.141227 0)
(0.0551419 0.130361 0)
(0.0739438 0.116236 0)
(0.0872924 0.10067 0)
(0.0973041 0.0819097 0)
(0.0977306 0.0568204 0)
(0.0903041 0.0334183 0)
(0.0780442 0.0113384 0)
(0.0622571 0.0089584 0)
(0.055214 0.0320892 0)
(0.0384989 0.0473696 0)
(0.0280707 0.0472461 0)
(0.00686184 0.0395921 0)
(-0.00873919 0.0984046 0)
(0.00460196 0.122833 0)
(0.0215733 0.126658 0)
(0.0366304 0.122253 0)
(0.0549112 0.0924529 0)
(0.0836746 0.0351057 0)
(0.102037 -0.0341933 0)
(0.103174 -0.0841954 0)
(0.0948283 -0.111212 0)
(0.00766986 0.129391 0)
(0.0269696 0.125146 0)
(0.0426278 0.116286 0)
(0.0567061 0.105747 0)
(0.0673265 0.0930956 0)
(0.0738245 0.0776523 0)
(0.0742532 0.0592763 0)
(0.0691551 0.042064 0)
(0.0588287 0.0274091 0)
(0.0442261 0.0204366 0)
(0.0360196 0.0324737 0)
(0.0312607 0.0467945 0)
(0.0301257 0.0427139 0)
(0.0139784 0.0315333 0)
(0.0021358 0.0715783 0)
(0.0153941 0.0971302 0)
(0.0305538 0.105328 0)
(0.0441446 0.105776 0)
(0.0603392 0.0726435 0)
(0.0734737 0.0202496 0)
(0.0660539 -0.0347337 0)
(0.0544238 -0.0775624 0)
(0.0421061 -0.0845361 0)
(0.00657932 0.111601 0)
(0.0216584 0.108678 0)
(0.0340394 0.102392 0)
(0.0444384 0.0948187 0)
(0.0524748 0.0849557 0)
(0.0574646 0.0732195 0)
(0.0587732 0.0603226 0)
(0.0558994 0.0483726 0)
(0.048936 0.0385171 0)
(0.0383678 0.0337986 0)
(0.0303383 0.0397738 0)
(0.0290764 0.0496097 0)
(0.0310639 0.0508131 0)
(0.0228491 0.05065 0)
(0.0181445 0.0720542 0)
(0.0285293 0.0872225 0)
(0.0397323 0.0943784 0)
(0.0509171 0.092554 0)
(0.0614487 0.0640236 0)
(0.0578269 0.0268394 0)
(0.0379392 -0.0216125 0)
(0.0236041 -0.0679208 0)
(0.012872 -0.0555747 0)
(0.00535671 0.098639 0)
(0.0167742 0.0966658 0)
(0.0264372 0.0922333 0)
(0.0346094 0.0864485 0)
(0.0411812 0.0786811 0)
(0.0456575 0.0697834 0)
(0.0476177 0.0602119 0)
(0.0466356 0.0514337 0)
(0.0429274 0.04459 0)
(0.0368984 0.041528 0)
(0.0315537 0.0449077 0)
(0.0310011 0.0513514 0)
(0.0331745 0.0543172 0)
(0.0306261 0.0573063 0)
(0.0307695 0.06987 0)
(0.038591 0.079869 0)
(0.0476604 0.0853194 0)
(0.0572428 0.0821342 0)
(0.0637633 0.0648194 0)
(0.0567253 0.0435857 0)
(0.0328641 -0.00398894 0)
(0.0118401 -0.0559389 0)
(0.00299273 -0.0342349 0)
(0.0041238 0.0887233 0)
(0.0127037 0.0872295 0)
(0.0202485 0.0840853 0)
(0.0269304 0.0795812 0)
(0.032623 0.0734378 0)
(0.0368218 0.066435 0)
(0.0393083 0.0590656 0)
(0.0398255 0.05247 0)
(0.0385509 0.0475193 0)
(0.0359191 0.0451996 0)
(0.0334524 0.0467342 0)
(0.0336815 0.0504412 0)
(0.0357529 0.0531236 0)
(0.0365685 0.0564769 0)
(0.0394948 0.0641348 0)
(0.04654 0.0713386 0)
(0.0552731 0.0758109 0)
(0.0646035 0.0744376 0)
(0.0712874 0.0662524 0)
(0.0700064 0.0552929 0)
(0.0576696 0.0234067 0)
(0.0253889 -0.0339638 0)
(0.0107689 -0.0341208 0)
(0.00310679 0.0811025 0)
(0.00953971 0.079909 0)
(0.015419 0.0774241 0)
(0.0209801 0.0737549 0)
(0.0259607 0.0686943 0)
(0.0299844 0.0629384 0)
(0.0329057 0.0571324 0)
(0.0345643 0.0520516 0)
(0.0350241 0.0483705 0)
(0.0346993 0.04654 0)
(0.0344529 0.0470373 0)
(0.0357634 0.0489555 0)
(0.0382363 0.050888 0)
(0.0409291 0.0536282 0)
(0.045304 0.0583137 0)
(0.0523398 0.0631314 0)
(0.0612951 0.0664116 0)
(0.0711635 0.0664245 0)
(0.0798657 0.0625817 0)
(0.0854594 0.0558988 0)
(0.0864781 0.0376199 0)
(0.0741217 -0.000393097 0)
(0.0502878 -0.0325044 0)
(0.00229016 0.0754112 0)
(0.0070606 0.074409 0)
(0.0115344 0.0721703 0)
(0.0161617 0.0688239 0)
(0.0205135 0.0643377 0)
(0.0244186 0.059337 0)
(0.0277032 0.054529 0)
(0.0301879 0.0504394 0)
(0.031908 0.0475607 0)
(0.0331684 0.0460788 0)
(0.0345382 0.0460316 0)
(0.0367991 0.0468975 0)
(0.0398281 0.0480349 0)
(0.0435171 0.0497848 0)
(0.0485741 0.0523899 0)
(0.0556024 0.0550665 0)
(0.0645122 0.0568015 0)
(0.0746802 0.0566208 0)
(0.0849978 0.0538652 0)
(0.0949399 0.047863 0)
(0.103661 0.0345973 0)
(0.109033 0.0113369 0)
(0.10401 -0.0133015 0)
(0.00161367 0.0713159 0)
(0.00503481 0.0703991 0)
(0.00830717 0.0680613 0)
(0.0121236 0.0646356 0)
(0.0159419 0.0603014 0)
(0.0197499 0.0556776 0)
(0.0232981 0.0513972 0)
(0.0263778 0.0479177 0)
(0.0290028 0.0455339 0)
(0.0313312 0.0442536 0)
(0.0337967 0.0438752 0)
(0.0367329 0.04406 0)
(0.0401891 0.0445058 0)
(0.0443227 0.0452788 0)
(0.04955 0.0463209 0)
(0.0562743 0.0471976 0)
(0.0645989 0.047295 0)
(0.0742645 0.0460324 0)
(0.0847182 0.0427826 0)
(0.0955341 0.0362629 0)
(0.105556 0.0239925 0)
(0.112686 0.00519796 0)
(0.115079 -0.0139213 0)
(0.00103671 0.068519 0)
(0.00332821 0.0676013 0)
(0.00558041 0.0648829 0)
(0.00870454 0.0610795 0)
(0.0120941 0.0565613 0)
(0.0158053 0.0519659 0)
(0.0195177 0.0478915 0)
(0.0230235 0.0447584 0)
(0.0262684 0.0426827 0)
(0.0292939 0.0415159 0)
(0.0324192 0.0409687 0)
(0.0357566 0.0407275 0)
(0.0394165 0.0406366 0)
(0.0436124 0.0406089 0)
(0.0486262 0.0404857 0)
(0.0547257 0.039963 0)
(0.0620301 0.0386469 0)
(0.0704708 0.0361744 0)
(0.0797981 0.0320847 0)
(0.0894958 0.0253403 0)
(0.0983112 0.0146616 0)
(0.10444 0.000249423 0)
(0.106853 -0.0155412 0)
(0.000540836 0.0667933 0)
(0.00187884 0.0658059 0)
(0.00328908 0.0624804 0)
(0.00583218 0.0580538 0)
(0.00885827 0.053071 0)
(0.0124637 0.0482214 0)
(0.01626 0.0441385 0)
(0.020044 0.0411719 0)
(0.0236795 0.0392984 0)
(0.0271633 0.0382343 0)
(0.0306302 0.037645 0)
(0.0341231 0.037195 0)
(0.037776 0.0367459 0)
(0.0417764 0.0361447 0)
(0.0463224 0.0352081 0)
(0.0515878 0.033703 0)
(0.0576529 0.0313627 0)
(0.064501 0.0279516 0)
(0.0720117 0.023202 0)
(0.0797513 0.0165859 0)
(0.0867542 0.00757247 0)
(0.0916933 -0.00361842 0)
(0.0940453 -0.0156519 0)
(0.000103828 0.0659859 0)
(0.000626949 0.0648421 0)
(0.00134409 0.0607314 0)
(0.00340257 0.0554828 0)
(0.00614023 0.0498084 0)
(0.00961742 0.044501 0)
(0.0134093 0.040253 0)
(0.0173347 0.037323 0)
(0.0211923 0.0355931 0)
(0.0249396 0.0346784 0)
(0.0285501 0.0341431 0)
(0.0320432 0.0336598 0)
(0.0355453 0.0330373 0)
(0.0392028 0.0320924 0)
(0.0431575 0.0306541 0)
(0.0475224 0.0285451 0)
(0.0523364 0.0255826 0)
(0.0575687 0.0216138 0)
(0.0631202 0.0165056 0)
(0.0687048 0.010079 0)
(0.0737774 0.00221676 0)
(0.0773776 -0.0069289 0)
(0.0793672 -0.0165323 0)
(-0.000305651 0.0659633 0)
(-0.000482217 0.064591 0)
(-0.000329223 0.0595269 0)
(0.00130582 0.0532858 0)
(0.00379361 0.0467803 0)
(0.00711248 0.0408853 0)
(0.0108193 0.0363425 0)
(0.0147547 0.0333516 0)
(0.0187035 0.0317133 0)
(0.0225721 0.0309879 0)
(0.0262213 0.0306131 0)
(0.0296452 0.0302381 0)
(0.0329364 0.0296146 0)
(0.0362025 0.028537 0)
(0.0395512 0.0268583 0)
(0.0430608 0.0244517 0)
(0.0467468 0.0212017 0)
(0.0505657 0.0170191 0)
(0.0544152 0.0118555 0)
(0.0581046 0.00568848 0)
(0.0613224 -0.00141089 0)
(0.0635441 -0.00922847 0)
(0.0648137 -0.0171489 0)
(-0.000675239 0.0666351 0)
(-0.00147452 0.0649703 0)
(-0.00183091 0.0587801 0)
(-0.000567756 0.051407 0)
(0.00169384 0.0439485 0)
(0.00479519 0.0374317 0)
(0.00832547 0.0325429 0)
(0.0121602 0.0293799 0)
(0.0160838 0.0277658 0)
(0.0199815 0.027243 0)
(0.0236281 0.0271138 0)
(0.026976 0.0269642 0)
(0.0300696 0.0264907 0)
(0.0329775 0.025468 0)
(0.035784 0.0237617 0)
(0.0385548 0.0212893 0)
(0.0413053 0.0179942 0)
(0.0439963 0.0138452 0)
(0.0465375 0.00884686 0)
(0.0487978 0.00304492 0)
(0.050555 -0.00343913 0)
(0.051624 -0.0103643 0)
(0.0520391 -0.0172256 0)
(-0.00101804 0.0679571 0)
(-0.00239919 0.0659012 0)
(-0.00322719 0.0584556 0)
(-0.00229786 0.0498203 0)
(-0.000258608 0.0413498 0)
(0.00255722 0.0342195 0)
(0.00579202 0.0289438 0)
(0.00942694 0.0255325 0)
(0.0132381 0.0238604 0)
(0.0170855 0.023482 0)
(0.0207198 0.0236425 0)
(0.0240244 0.0238034 0)
(0.0269854 0.0236096 0)
(0.0296249 0.0228056 0)
(0.0320031 0.0212489 0)
(0.0341839 0.0188828 0)
(0.0361988 0.015698 0)
(0.0380314 0.0117173 0)
(0.0396205 0.00698629 0)
(0.0408825 0.00159199 0)
(0.0416779 -0.00433929 0)
(0.041918 -0.0105869 0)
(0.0416638 -0.0167741 0)
(-0.00135636 0.069903 0)
(-0.00330706 0.0673599 0)
(-0.00459489 0.0585404 0)
(-0.0039681 0.0484998 0)
(-0.0021431 0.0389882 0)
(0.000309379 0.0313896 0)
(0.00316531 0.0256303 0)
(0.00654613 0.021881 0)
(0.0101685 0.0200919 0)
(0.0138487 0.0197737 0)
(0.0174591 0.0201892 0)
(0.0207707 0.0206925 0)
(0.0236834 0.0208745 0)
(0.0261734 0.0204275 0)
(0.0282648 0.0191735 0)
(0.0300168 0.0170538 0)
(0.0314854 0.0140933 0)
(0.0326845 0.0103594 0)
(0.0335911 0.00593635 0)
(0.0341632 0.000933953 0)
(0.0343326 -0.00452777 0)
(0.0340572 -0.0102643 0)
(0.0334399 -0.0160083 0)
(-0.00169618 0.0724685 0)
(-0.00422507 0.0693463 0)
(-0.00598249 0.0590157 0)
(-0.00560689 0.0473753 0)
(-0.00404416 0.0369381 0)
(-0.00204773 0.0290197 0)
(0.000448173 0.0226362 0)
(0.00358585 0.0184653 0)
(0.00697888 0.0165103 0)
(0.0104573 0.0161749 0)
(0.013932 0.016755 0)
(0.0172362 0.0175888 0)
(0.0201725 0.018189 0)
(0.0226346 0.0181976 0)
(0.0245901 0.0173753 0)
(0.0260782 0.0156283 0)
(0.0271715 0.0129912 0)
(0.0279181 0.00956127 0)
(0.0283368 0.00546205 0)
(0.0284298 0.000814624 0)
(0.0281841 -0.0042677 0)
(0.0275732 -0.00963991 0)
(0.0267498 -0.0151094 0)
(-0.00202937 0.0756521 0)
(-0.00510943 0.0718535 0)
(-0.00728139 0.0598573 0)
(-0.00720579 0.0464713 0)
(-0.00613728 0.0353892 0)
(-0.00458739 0.0270048 0)
(-0.00224918 0.0198629 0)
(0.000700495 0.0152918 0)
(0.00385095 0.0131633 0)
(0.00707891 0.0127701 0)
(0.0103443 0.0133966 0)
(0.0135592 0.0144702 0)
(0.0165197 0.0154721 0)
(0.0190362 0.0159913 0)
(0.02099 0.0157009 0)
(0.0223677 0.0144414 0)
(0.0232391 0.0122201 0)
(0.0236893 0.00915229 0)
(0.0237739 0.00539114 0)
(0.0235292 0.00107188 0)
(0.0229961 -0.00369941 0)
(0.0221783 -0.00881618 0)
(0.0212174 -0.0141357 0)
(-0.00232503 0.0794085 0)
(-0.00587357 0.0748287 0)
(-0.00835471 0.0610312 0)
(-0.00872245 0.0460717 0)
(-0.00836876 0.0344518 0)
(-0.00709889 0.0250909 0)
(-0.00470149 0.017186 0)
(-0.00187018 0.0123124 0)
(0.00102547 0.0100788 0)
(0.00394862 0.00963243 0)
(0.00692072 0.0102286 0)
(0.00992676 0.0113953 0)
(0.0128439 0.0127094 0)
(0.015432 0.0137215 0)
(0.017473 0.014022 0)
(0.018874 0.0133465 0)
(0.0196668 0.0116348 0)
(0.0199545 0.00899296 0)
(0.0198319 0.00558917 0)
(0.0193722 0.00158224 0)
(0.0186445 -0.0029196 0)
(0.0176689 -0.00784346 0)
(0.0166183 -0.0130875 0)
(-0.00255333 0.0836506 0)
(-0.00648898 0.078191 0)
(-0.00920904 0.062494 0)
(-0.0101054 0.0463915 0)
(-0.0103615 0.0339703 0)
(-0.00911621 0.0231198 0)
(-0.00662158 0.0145331 0)
(-0.00389061 0.0095022 0)
(-0.00126305 0.00728787 0)
(0.00129872 0.0068221 0)
(0.00389048 0.00736006 0)
(0.00656803 0.00849535 0)
(0.0093008 0.00996031 0)
(0.0118921 0.0113622 0)
(0.0140536 0.0122439 0)
(0.0155793 0.012219 0)
(0.016422 0.0111067 0)
(0.0166694 0.00895875 0)
(0.0164479 0.00594659 0)
(0.0158702 0.00225174 0)
(0.0150275 -0.00201129 0)
(0.0139603 -0.00678041 0)
(0.012842 -0.0119726 0)
(-0.00266738 0.0882351 0)
(-0.00688014 0.0818673 0)
(-0.00983829 0.0642477 0)
(-0.0112171 0.0473359 0)
(-0.0117408 0.0336159 0)
(-0.0103207 0.0210839 0)
(-0.00777804 0.0118963 0)
(-0.0051745 0.0068803 0)
(-0.00284334 0.00482427 0)
(-0.000696745 0.00442366 0)
(0.00143732 0.0049024 0)
(0.00368086 0.00592891 0)
(0.00607775 0.00736182 0)
(0.00852637 0.00896673 0)
(0.0107581 0.0103285 0)
(0.0124628 0.0109592 0)
(0.0134632 0.01052 0)
(0.0137835 0.00894205 0)
(0.0135645 0.00637056 0)
(0.0129536 0.00300257 0)
(0.0120595 -0.00102989 0)
(0.0109488 -0.0056555 0)
(0.00980615 -0.0108109 0)
(-0.00263323 0.0929694 0)
(-0.0069805 0.0857675 0)
(-0.0101919 0.0663272 0)
(-0.0118887 0.0485908 0)
(-0.0123464 0.0331534 0)
(-0.0106551 0.0189757 0)
(-0.0080634 0.00929347 0)
(-0.00562511 0.00448267 0)
(-0.00364841 0.00273652 0)
(-0.00194436 0.0024939 0)
(-0.000320574 0.00294291 0)
(0.0014047 0.00382028 0)
(0.00333321 0.00508503 0)
(0.0054704 0.00666894 0)
(0.00764028 0.00830889 0)
(0.00950058 0.00950631 0)
(0.010735 0.00976747 0)
(0.0112357 0.00883778 0)
(0.0111121 0.00676923 0)
(0.0105398 0.00375811 0)
(0.00966387 -2.92099e-05 0)
(0.00856118 -0.00451559 0)
(0.00742067 -0.00962892 0)
(-0.00243552 0.0976198 0)
(-0.00674718 0.0897731 0)
(-0.0100956 0.0686911 0)
(-0.0118957 0.0498462 0)
(-0.0121165 0.0324681 0)
(-0.0100731 0.0166851 0)
(-0.00745454 0.00674365 0)
(-0.00526358 0.00237355 0)
(-0.00370939 0.00107576 0)
(-0.0024828 0.00106394 0)
(-0.00137485 0.00152678 0)
(-0.000195619 0.00224342 0)
(0.00119312 0.00325795 0)
(0.00286857 0.00464249 0)
(0.00478688 0.00629874 0)
(0.00668671 0.00786583 0)
(0.00816868 0.00877267 0)
(0.00894267 0.00854787 0)
(0.00900991 0.00705788 0)
(0.00855494 0.00445601 0)
(0.00775292 0.000929936 0)
(0.00669851 -0.00340736 0)
(0.00561014 -0.00846234 0)
(-0.00207662 0.101937 0)
(-0.00616879 0.093726 0)
(-0.00944913 0.0711361 0)
(-0.0111381 0.0509358 0)
(-0.0109858 0.0314719 0)
(-0.00849163 0.0141729 0)
(-0.00598364 0.00433828 0)
(-0.00421857 0.000652266 0)
(-0.00316507 -0.000100943 0)
(-0.0024311 0.000152029 0)
(-0.00181641 0.000658941 0)
(-0.00115635 0.0012449 0)
(-0.000309621 0.00198856 0)
(0.000840461 0.00304747 0)
(0.00233062 0.00448062 0)
(0.00406613 0.00612945 0)
(0.00570372 0.00750849 0)
(0.00680203 0.00798603 0)
(0.00715864 0.00715658 0)
(0.00688875 0.005028 0)
(0.00621042 0.00179585 0)
(0.00526465 -0.00236213 0)
(0.00426592 -0.00735046 0)
(-0.00156393 0.105667 0)
(-0.00527458 0.0974543 0)
(-0.00834138 0.073425 0)
(-0.00969142 0.0516726 0)
(-0.00886639 0.0300977 0)