/*--------------------------------*- C++ -*----------------------------------*\
| =========                 |                                                 |
| \\      /  F ield         | OpenFOAM: The Open Source CFD Toolbox           |
|  \\    /   O peration     | Version:  2312                                  |
|   \\  /    A nd           | Website:  www.openfoam.com                      |
|    \\/     M anipulation  |                                                 |
\*---------------------------------------------------------------------------*/
FoamFile
{
    version     2.0;
    format      ascii;
    arch        "LSB;label=32;scalar=64";
    class       volScalarField;
    location    "5.45";
    object      alpha.air;
}
// * * * * * * * * * * * * * * * * * * * * * * * * * * * * * * * * * * * * * //

dimensions      [0 0 0 0 0 0 0];

internalField   nonuniform List<scalar> 
2268
(
1.05654e-09
1.00071e-09
1.01765e-09
1.00358e-09
9.30121e-10
6.60339e-10
3.34e-10
2.05037e-10
1.49077e-10
1.34223e-10
1.43695e-10
1.65711e-10
1.82287e-10
1.99428e-10
2.19591e-10
2.83976e-10
3.40218e-10
3.0572e-10
2.3418e-10
2.3418e-10
2.42778e-07
6.17038e-07
6.2335e-07
1.36056e-09
1.30158e-09
1.68781e-09
2.92295e-09
3.78579e-09
3.53434e-09
2.08716e-09
9.11449e-10
6.77328e-10
6.3472e-10
6.15703e-10
6.65703e-10
9.37145e-10
4.47821e-10
2.20026e-10
6.31818e-10
1.06202e-09
9.97474e-10
2.34173e-10
1.69459e-08
4.55379e-07
5.96526e-07
4.74869e-07
1.64604e-09
1.61757e-09
1.6275e-09
3.87156e-09
9.13472e-09
1.11107e-08
1.11346e-08
5.4812e-09
2.44131e-09
1.48322e-09
1.14793e-09
1.31884e-09
4.85907e-09
4.22838e-08
2.29364e-08
3.45519e-09
7.06406e-10
1.10895e-09
4.72494e-09
3.37477e-08
4.86871e-08
4.74051e-08
4.25249e-08
1.61793e-09
1.61779e-09
1.61808e-09
1.61839e-09
1.61875e-09
4.57978e-09
4.7843e-09
3.29146e-09
3.86561e-09
3.61552e-09
1.36804e-09
1.26406e-09
9.2231e-09
3.6274e-07
3.43101e-06
4.53514e-10
3.88262e-10
3.33201e-10
3.18096e-10
2.6324e-10
3.18096e-10
3.33201e-10
0.000143425
1.61824e-09
1.8114e-09
1.61838e-09
7.11073e-06
2.39559e-06
9.86597e-09
8.26623e-09
3.28334e-09
1.86962e-06
4.52594e-06
4.76895e-06
1.46174e-09
1.47093e-09
1.32667e-07
6.78099e-08
0.000113412
0.000575333
0.00130416
0.00205497
0.00268042
0.0034389
0.00487458
0.00716353
0.000276988
0.000370477
0.000551017
0.000838221
0.000768693
0.00054475
0.000191636
5.30635e-05
1.3608e-05
8.3232e-05
0.000140456
0.000122904
3.12662e-05
5.22397e-08
5.19412e-08
5.08815e-05
0.00398827
0.008773
0.00997159
0.00997178
0.00997163
0.00997179
0.00997155
0.0012141
0.00107527
0.00132154
0.0013215
0.00132154
0.0013215
0.00132143
0.000894157
0.000150327
6.98626e-05
0.00013994
0.000144302
6.10716e-05
5.19426e-08
5.19344e-08
0.000168599
0.0021009
0.00318233
0.00291649
0.00254445
0.00324738
0.0070907
0.00997169
0.00140398
0.000652175
0.000590535
0.00111021
0.000847265
0.0010883
0.000722521
0.000246553
8.37856e-05
6.97394e-05
6.96188e-05
6.96007e-05
3.11608e-05
2.30369e-05
5.05959e-05
9.51767e-05
9.50576e-05
9.77645e-05
0.000101889
0.000102579
0.000105644
0.000243956
0.00316421
0.000264407
0.000276873
0.00417297
0.0059743
0.00600304
0.00600286
0.00590074
0.00312404
0.0023159
0.00210908
0.00210182
0.00181369
0.0017865
0.00179184
0.00179661
0.00202497
0.0026148
0.00321401
0.00321478
0.000576014
0.000712065
0.000834621
0.00193273
0.00263967
0.00264433
0.00365334
0.00656862
0.00528907
0.00348495
0.00237693
0.00167982
0.00178182
0.00181141
0.001798
0.00181124
0.00314689
0.00376134
0.00313041
0.00940239
0.00908511
0.0127631
0.0173494
0.0194492
0.0207546
0.0171316
0.0174851
0.0166702
0.00976987
0.00167269
0.00168169
0.00217679
0.00180067
0.00179757
0.00278463
0.00429207
0.00392114
0.00313065
0.0137477
0.00950985
0.0134128
0.0174376
0.023077
0.0260502
0.0260374
0.0175115
0.0306067
0.0563122
0.054704
0.0053705
0.00518958
0.00577145
0.00792268
0.0391094
0.0455746
0.0309273
0.021254
0.0137097
0.00361449
0.0034711
0.00344896
0.00359316
0.0201067
0.0240287
0.0214619
0.0338144
0.0243541
0.0597286
0.0665155
0.0739391
0.0714328
0.0462288
0.0553118
0.061016
0.0609331
0.0466355
0.0122294
0.00239585
0.00643701
0.00534913
0.00342937
0.00546302
0.00654134
0.0183003
0.0337617
0.0146435
0.00800931
0.0164197
0.0715556
0.0976785
0.0976785
0.0804267
0.039854
0.0244455
0.0629214
0.00987544
0.00206209
0.00582318
0.00735501
0.0034954
0.0032176
0.0047745
0.0080111
0.0166234
0.0126061
0.00533357
0.00518946
0.0104168
0.0643602
0.0976785
0.0738926
0.0231736
0.021786
0.0630068
0.00210403
0.00205967
0.00236751
0.00960587
0.00836283
0.00334595
0.00257169
0.00544874
0.00856136
0.00508333
0.00509891
0.00514972
0.0110593
0.0299229
0.0371247
0.029055
0.0223322
0.0217956
0.0630426
0.00257212
0.000762988
0.000470939
0.00028047
0.000271937
0.000525857
0.000341858
8.42207e-05
8.40057e-05
0.000136817
0.000165104
0.000158391
0.000170966
0.000189807
0.000132585
0.000116772
0.000132071
0.000852892
0.00149128
0.00132123
0.0011719
0.00188179
0.00195674
0.0281074
0.0179911
0.0114713
0.00597422
0.000270943
0.00559558
0.0215679
0.021802
0.0192495
0.0251099
0.0261686
0.0268429
0.0265026
0.020463
0.0171662
0.0226179
0.0385636
0.0458039
0.0437213
0.0354357
0.0298361
0.0304948
0.0357745
0.0346611
0.034666
0.0354878
0.0353404
0.00680081
0.00159614
0.0015847
0.0322763
0.0760698
0.078558
0.0788076
0.0788089
0.078742
0.0661288
0.033895
0.0508403
0.0572144
0.0571823
0.028788
0.0182221
0.014648
0.016234
0.041409
0.00679605
0.000483039
0.00421326
0.0159946
0.0201539
0.0185
0.00123888
0.00131808
0.00630598
0.031995
0.0788511
0.0787878
0.0785943
0.0270027
6.62779e-05
0.00850092
0.0158053
0.00543826
1.84123e-05
1.82623e-11
-9.67727e-10
-9.57519e-10
-3.34699e-08
0.000281977
0.000272504
0.000281999
0.00163798
0.00508711
0.00152874
0.000327461
0.0010301
0.0527595
0.0788886
0.0787626
0.0744956
0.0131207
0.0014074
6.16048e-05
3.86947e-05
5.00319e-05
7.04248e-05
4.36995e-05
3.35877e-06
2.29224e-06
8.75734e-17
0.00129796
0.000267166
0.000267631
0.000267387
0.000289533
0.000217724
0.000138661
0.000144233
0.000257823
0.0102694
0.0308466
0.0307041
0.00592219
8.65684e-05
9.81531e-05
5.87639e-05
2.11462e-05
1.31371e-06
7.792e-14
9.91583e-07
1.7829e-06
2.92097e-07
1.54743e-07
1.36575e-07
0.462195
0.447133
0.403567
0.334914
0.25367
0.160335
0.0819056
0.0275124
0.0043863
0.000821514
4.53805e-05
-1.26695e-06
-3.17358e-07
-3.28136e-07
-1.84374e-07
3.90968e-05
3.59447e-19
-2.39707e-19
-3.09464e-10
5.21584e-20
-1.95563e-10
9.59966e-10
0.000397161
0.992012
0.989523
0.976761
0.943613
0.909191
0.863794
0.787672
0.673604
0.537915
0.419963
0.339999
0.291852
0.267729
0.258532
0.258534
0.265773
0.281943
0.304926
0.324842
0.327029
0.330288
0.35672
0.410359
0.999973
0.999936
0.999961
0.99999
0.999968
0.99995
0.999498
0.997531
0.996491
0.993889
0.97636
0.965397
0.96356
0.967079
0.970418
0.977509
0.985781
0.99432
0.993548
0.993861
0.995624
0.993355
0.979649
1
1
1
1
0.999993
0.999998
1
1
1
1
1
1
0.999999
0.999892
0.999555
0.999459
0.999996
0.999996
0.999996
0.999995
0.999988
0.999981
0.999973
1
1
1
1
1
1
1
1
1
0.999999
0.999998
0.999994
0.99999
0.999986
0.999981
0.999979
0.999978
0.99999
0.999995
0.999995
0.999993
0.999985
0.999985
1
1
1
1
1
1
0.999999
0.999999
0.999998
0.999998
0.999991
0.999958
0.999958
0.999958
0.999956
0.999956
0.999956
0.999977
0.999995
0.999992
0.999953
0.999945
0.999945
1
1
1
1
1
1
1
0.999999
0.999999
0.999992
0.999983
0.999988
0.999993
1
0.999986
0.99997
0.999967
0.999991
0.999995
0.999956
0.99994
0.999945
0.999966
1
1
1
1
1
1
1
1
1
1
1
1
1
1
0.999996
0.999992
0.999994
0.999998
0.999981
0.999936
0.999936
0.999951
0.999973
1
1
1
1
1
1
1
1
1
1
1
1
1
1
1
1
1
0.999998
0.999959
0.999935
0.999939
0.999954
0.999987
1
1
1
1
1
1
1
1
1
1
1
1
1
1
1
1
1
0.999998
0.999981
0.999958
0.999954
0.999979
0.999999
1
1
1
1
1
1
1
1
1
1
1
1
1
1
1
1
1
1
1
1
0.999992
0.999994
0.999992
1
1
1
1
1
1
1
1
1
1
1
1
1
1
1
1
1
1
1
1
1
0.999995
0.999967
1
1
1
1
1
1
1
1
1
1
1
1
1
1
1
1
1
1
1
1
1
1
0.999974
1
1
1
1
1
1
1
1
1
1
1
1
1
1
1
1
1
1
1
1
1
1
1
1
1
1
1
1
1
1
1
1
1
1
1
1
1
1
1
1
1
1
1
1
1
1
1
1
1
1
1
1
1
1
1
1
1
1
1
1
1
1
1
1
1
1
1
1
1
1
1
1
1
1
1
1
1
1
1
1
1
1
1
1
1
1
1
1
1
1
1
1
1
1
1
1
1
1
1
1
1
1
1
1
1
1
1
1
1
1
1
1
1
1
1
1
1
1
1
1
1
1
1
1
1
1
1
1
1
1
1
1
1
1
1
1
1
1
1
1
1
1
1
1
1
1
1
1
1
1
1
1
1
1
1
1
1
1
1
1
1
1
1
1
1
1
1
1
1
1
1
1
1
1
1
1
1
1
1
1
1
1
1
1
1
1
1
1
1
1
1
1
1
1
1
1
1
1
1
1
1
1
1
1
1
1
1
1
1
1
1
1
1
1
1
1
1
1
1
1
1
1
1
1
1
1
1
1
1
1
1
1
1
0.999999
0.999999
1
1
1
1
1
1
1
1
1
1
1
1
1
1
1
1
1
1
1
1
1
0.999999
1
1
1
1
1
1
1
1
1
1
1
1
1
1
1
1
1
1
1
1
1
0.999999
0.999999
1
1
1
1
1
1
1
1
1
1
1
1
1
1
1
1
1
1
1
1
1
0.999999
0.999999
1
1
1
1
1
1
1
1
1
1
1
1
1
1
1
1
1
1
1
1
1
0.999999
0.999999
1
1
1
1
1
1
1
1
1
1
1
1
1
1
1
1
1
1
1
1
1
0.999999
0.999999
1
1
1
1
1
1
1
1
1
1
1
1
1
1
1
1
1
1
1
1
1
0.999999
1
1
1
1
1
1
1
1
1
1
1
1
1
1
1
1
1
1
1
1
1
1
0.999999
0.999999
1
1
1
1
1
1
1
1
1
1
1
1
1
1
1
1
1
1
1
1
1
0.999999
0.999999
1
1
1
1
1
1
1
1
1
1
1
1
1
1
1
1
1
1
1
1
0.999999
0.999999
0.999999
1
1
1
1
1
1
1
1
1
1
1
1
1
1
1
1
1
1
1
1
0.999999
0.999999
0.999999
1
1
1
1
1
1
1
1
1
1
1
1
1
1
1
1
1
1
1
1
1
0.999999
1
1
1
1
1
1
1
1
1
1
1
1
1
1
1
1
1
1
1
1
1
1
0.999999
1
1
1
1
1
1
1
1
1
1
1
1
1
1
1
1
1
1
1
1
0.00181581
0.00140635
0.000919853
0.000914146
0.0388476
0.0309916
0.0174864
0.0268223
0.0479101
0.0479101
0.0479101
0.0479101
0.0260902
0.0479101
0.0479101
0.0353005
0.0119728
0.0147564
0.00917279
0.00223364
1.60402e-07
9.61128e-06
0.000142067
0.000236837
0.00281441
0.00389066
0.00257253
0.000216528
0.462027
0.482363
0.489437
0.481447
0.964764
0.956331
0.969965
0.985098
0.999973
0.999971
0.99997
0.999969
0.999978
0.999963
0.999955
0.999951
0.999962
0.999988
0.999972
0.999965
0.999997
0.999998
0.999998
0.999998
0.999998
0.999999
0.999998
0.999998
0.999999
0.999999
0.999998
0.999997
0.999999
0.999999
0.999998
0.999997
0.999998
0.999998
0.999998
0.999998
0.999964
0.999997
0.999996
0.999987
0.999928
0.999928
0.999926
0.99993
0.99999
0.99993
0.99992
0.99992
1
1
0.999998
0.999972
1
1
1
1
1
1
1
1
1
1
1
1
1
1
1
1
1
1
1
1
1
1
1
1
1
1
1
1
1
1
1
1
1
1
1
1
1
1
1
1
1
1
1
1
1
1
1
1
1
1
1
1
1
1
1
1
1
1
1
1
1
1
1
1
1
1
1
1
1
1
1
1
1
1
1
1
1
1
1
1
1
1
1
1
0.00450145
0.00436972
0.00247957
0.00950849
0.0194363
0.00724297
0.00252126
0.00241744
0.00251811
0.00248499
0.0205805
0.0142519
0.0150493
0.0134801
0.0135163
0.025821
0.0236081
0.0237408
0.0371467
0.027215
0.0218741
0.00565667
0.019745
0.0996256
0.0447141
0.00287568
0.00239247
0.00206619
0.0213088
0.0894832
0.0391433
0.00176011
0.0132102
0.0382587
0.0322388
0.025612
0.0370302
0.0338301
0.0268715
0.0266745
0.055243
0.148298
0.151847
0.151443
0.0703865
0.0228888
0.00206522
0.0592102
0.0894356
0.0558137
0.00175732
0.020813
0.0400104
0.0287209
0.0256302
0.0442141
0.0413591
0.00197473
0.0449362
0.10871
0.151871
0.15187
0.151847
0.144129
0.077374
0.00596436
0.0353041
0.0873128
0.0873192
0.036607
0.00902395
0.0151845
0.00516528
0.0150487
0.0442028
0.0439654
0.000279938
0.0140283
0.000590634
0.029375
0.0478135
0.0412328
0.0266143
0.0183951
0.00653104
0.00105735
0.0014112
0.0579061
0.0590273
0.0206931
6.19629e-20
8.15483e-21
0.00143967
0.00963097
0.00956873
0.000272277
0.000671277
0.000102304
0.000102181
0.000102181
0.000102181
0.000169555
0.000386368
0.000856143
0.000849946
0.000712097
0.000851023
0.0112928
0.011752
0.00109892
9.1332e-06
9.77596e-06
1.02018e-05
0.000237442
0.000214253
0.000217141
0.00575912
0.0297807
0.0372917
0.0284915
0.0157129
0.00482497
0.000660156
0.000580375
0.000580947
0.000622181
0.00104845
0.0017563
0.00120197
0.000180199
0.000134804
0.000138237
7.96697e-05
0.421644
0.440564
0.542717
0.641351
0.702986
0.699989
0.65819
0.566235
0.424166
0.253726
0.139392
0.0544738
0.00451116
0.000882829
0.000886166
0.000272198
4.27011e-05
8.74939e-05
2.10355e-05
0.977646
0.983556
0.996376
0.99924
0.999073
0.999162
0.998986
0.996909
0.991658
0.977765
0.922779
0.830169
0.535151
0.097711
0.000426506
0.000196955
3.02056e-05
4.06151e-06
3.50609e-06
0.999015
0.998545
0.999435
0.999985
0.999998
1
1
1
1
0.999871
0.999973
0.995638
0.982359
0.923825
0.654285
0.229976
0.0113489
3.45432e-06
3.42543e-06
0.999971
0.999999
0.999991
0.999997
0.999999
1
1
0.999999
0.999999
0.999998
0.999996
0.999974
0.999971
0.997467
0.995201
0.920341
0.667827
0.380126
0.345263
0.999985
0.999999
0.999999
0.999999
0.999999
0.999999
1
0.999991
0.999987
0.999948
0.99973
0.999713
0.999711
0.99992
0.999757
0.999458
0.995144
0.972332
0.966747
0.999999
0.999999
0.999998
0.999998
0.999999
0.99999
0.999982
0.999969
0.999729
0.999725
0.999743
0.999889
0.999946
0.999987
0.999999
1
0.999075
0.996219
0.993084
0.999998
0.999996
0.999996
0.999998
0.999985
0.999955
0.999958
0.999955
0.999829
0.999906
0.999988
0.999997
0.999997
0.999999
0.999999
0.999997
0.999998
0.999931
0.999846
0.999997
0.999999
0.999999
0.999997
0.999984
0.999975
0.999951
0.999967
0.999996
0.99999
0.99999
0.999932
0.999927
0.999999
0.999998
0.999996
0.999987
0.999941
0.999917
0.999998
0.999998
0.999998
0.999998
0.999993
0.999943
0.999932
0.999946
0.999996
0.999997
0.999963
0.999891
0.999881
0.999913
0.999969
0.999957
0.999952
0.999934
0.999909
0.999995
0.999975
0.999964
0.999977
0.999974
0.999931
0.999931
0.999939
0.999997
0.999997
0.999994
0.999923
0.999881
0.999889
0.999945
0.999954
0.999971
0.999968
0.999909
0.999965
0.99994
0.999944
0.999949
0.999955
0.999959
0.999959
0.999954
0.99994
0.999946
0.999981
0.99998
0.999969
0.999961
0.999955
0.999975
0.999991
0.999993
0.99994
0.999926
0.999922
0.999953
0.999956
0.999955
0.999951
0.999948
0.999944
0.999944
0.999936
0.999937
0.999967
0.999988
0.999988
0.999988
0.999987
0.999983
0.999995
0.999996
0.99992
0.999922
0.99997
0.999967
0.999955
0.999965
0.999982
0.999982
0.999971
0.999956
0.999937
0.999937
0.999972
0.999989
0.999989
0.999988
0.999971
0.999992
0.999997
0.999947
0.999966
0.999997
0.999996
0.999984
0.999981
0.999982
0.999987
0.999994
0.999997
0.999989
0.99997
0.999967
0.999979
0.999978
0.999971
0.999971
0.999984
0.999997
1
1
0.999999
1
1
0.999995
0.999989
0.999989
0.999992
1
1
1
0.999993
0.999971
0.999971
0.999971
0.999975
0.999989
0.999997
1
1
1
1
1
1
1
0.999999
0.999999
0.999999
1
1
1
0.999994
0.999982
0.999971
0.999994
0.999998
0.999997
1
1
1
1
1
1
1
1
1
1
1
1
1
1
1
0.999996
1
1
0.999997
1
1
1
1
1
1
1
1
1
1
1
1
1
1
1
1
1
1
0.999997
1
1
1
1
1
1
1
1
1
1
1
1
1
1
1
1
1
0.999999
0.999997
1
1
1
1
1
1
1
1
1
1
1
1
1
1
1
1
1
0.999998
0.999998
1
1
1
1
1
1
1
1
1
1
1
1
1
1
1
1
0.999999
0.999998
1
1
1
1
1
1
1
1
1
1
1
1
1
1
1
1
1
0.999999
0.999998
1
1
1
1
1
1
1
1
1
1
1
1
1
1
1
1
1
1
0.999999
1
1
1
1
1
1
1
1
1
1
1
1
1
1
1
1
1
1
1
1
1
1
1
1
1
1
1
1
1
1
1
1
1
1
1
1
1
1
1
1
1
1
1
1
1
1
1
1
1
1
1
1
1
1
1
1
1
1
1
1
1
1
1
1
1
1
1
1
1
1
1
1
1
1
1
1
1
1
1
1
1
1
1
1
1
1
1
1
1
1
1
1
1
1
1
1
1
1
1
1
1
1
1
1
1
1
0.999999
0.999997
0.999998
1
1
1
1
1
1
1
1
1
1
1
1
1
1
1
1
1
0.999996
0.999995
0.999998
1
1
1
1
0.999999
1
1
1
1
1
1
1
1
1
1
1
0.999998
0.999994
0.999995
0.999999
1
1
0.999999
0.999997
1
1
1
1
1
1
1
1
1
1
1
1
0.999997
0.999994
0.999995
1
1
0.999999
0.999997
1
1
1
1
1
1
1
1
1
1
1
1
1
0.999996
0.999994
0.999995
1
1
0.999997
1
1
1
1
1
1
1
1
1
1
1
1
1
1
0.999996
0.999994
0.999997
1
0.999997
1
1
1
1
1
1
1
1
1
1
1
1
1
1
1
0.999998
0.999997
0.999999
0.999999
)
;

boundaryField
{
    leftWall
    {
        type            alphaContactAngle;
        thetaProperties 
6
(
(galistan air) 90 0 0 0
(oil galistan) 90 0 0 0
(water oil) 90 0 0 0
(water air) 90 0 0 0
(oil air) 90 0 0 0
(water galistan) 90 0 0 0
);
        value           nonuniform List<scalar> 
50
(
1.05654e-09
1.36056e-09
1.64604e-09
1.61793e-09
1.61824e-09
0.000276988
0.0012141
0.00140398
0.00257212
0.0281074
0.0346611
0.00679605
0.000281977
0.000267166
0.462195
0.992012
0.999973
1
1
1
1
1
1
1
1
1
1
1
1
1
1
1
1
1
1
1
1
1
1
1
1
1
1
1
1
1
1
1
1
1
)
;
    }
    rightWall
    {
        type            alphaContactAngle;
        thetaProperties 
6
(
(galistan air) 90 0 0 0
(oil galistan) 90 0 0 0
(water oil) 90 0 0 0
(water air) 90 0 0 0
(oil air) 90 0 0 0
(water galistan) 90 0 0 0
);
        value           nonuniform List<scalar> 
50
(
0.00321478
0.00313041
0.00313065
0.021254
0.0466355
0.0629214
0.0630068
0.0630426
0.0371467
0.0338301
0.0413591
0.0439654
0.00956873
0.000237442
7.96697e-05
2.10355e-05
3.50609e-06
3.42543e-06
0.345263
0.966747
0.993084
0.999846
0.999917
0.999909
0.999909
0.99994
0.999996
0.999997
0.999997
0.999997
0.999997
0.999997
0.999997
0.999997
0.999998
1
1
1
1
1
1
1
1
1
0.999999
0.999997
0.999997
0.999997
0.999997
0.999999
)
;
    }
    lowerWall
    {
        type            alphaContactAngle;
        thetaProperties 
6
(
(galistan air) 90 0 0 0
(oil galistan) 90 0 0 0
(water oil) 90 0 0 0
(water air) 90 0 0 0
(oil air) 90 0 0 0
(water galistan) 90 0 0 0
);
        value           nonuniform List<scalar> 
62
(
1.05654e-09
1.00071e-09
1.01765e-09
1.00358e-09
9.30121e-10
6.60339e-10
3.34e-10
2.05037e-10
1.49077e-10
1.34223e-10
1.43695e-10
1.65711e-10
1.82287e-10
1.99428e-10
2.19591e-10
2.83976e-10
3.40218e-10
3.0572e-10
2.3418e-10
2.3418e-10
2.42778e-07
6.17038e-07
6.2335e-07
6.2335e-07
4.74869e-07
4.25249e-08
0.000143425
0.00716353
0.00997155
0.00997169
0.00316421
0.00181581
0.00140635
0.000919853
0.000914146
0.000264407
0.000576014
0.00940239
0.0137477
0.0137097
0.0122294
0.00987544
0.00210403
0.000264407
0.000276873
0.00417297
0.0059743
0.00600304
0.00600286
0.00590074
0.00312404
0.0023159
0.00210908
0.00210182
0.00181369
0.0017865
0.00179184
0.00179661
0.00202497
0.0026148
0.00321401
0.00321478
)
;
    }
    atmosphere
    {
        type            inletOutlet;
        inletValue      uniform 1;
        value           nonuniform List<scalar> 
46
(
1
1
0.999999
1
1
1
1
1
1
1
1
1
1
1
1
1
1
1
1
1
1
1
1
1
1
1
1
1
1
1
1
1
1
1
1
1
1
1
1
1
1
1
0.999997
0.999996
0.999999
0.999999
)
;
    }
    defaultFaces
    {
        type            empty;
    }
}


// ************************************************************************* //
