/*--------------------------------*- C++ -*----------------------------------*\
| =========                 |                                                 |
| \\      /  F ield         | OpenFOAM: The Open Source CFD Toolbox           |
|  \\    /   O peration     | Version:  2312                                  |
|   \\  /    A nd           | Website:  www.openfoam.com                      |
|    \\/     M anipulation  |                                                 |
\*---------------------------------------------------------------------------*/
FoamFile
{
    version     2.0;
    format      ascii;
    arch        "LSB;label=32;scalar=64";
    class       volScalarField;
    location    "5.45";
    object      alpha.galistan;
}
// * * * * * * * * * * * * * * * * * * * * * * * * * * * * * * * * * * * * * //

dimensions      [0 0 0 0 0 0 0];

internalField   nonuniform List<scalar> 
2268
(
1
1
1
1
1
1
1
1
1
1
1
1
1
1
1
1
1
1
1
0.999979
0.999959
0.999958
0.999958
1
1
1
1
1
1
1
1
1
1
1
1
1
1
1
1
1
1
1
0.999997
0.999987
0.999981
0.999993
1
1
1
1
1
1
1
1
1
1
1
1
1
1
1
1
1
1
1
1
1
1
1
1
1
1
1
1
1
1
1
1
1
1
1
1
1
0.999997
1
1
1
1
1
1
1
0.999857
1
1
0.999985
0.999983
0.999998
1
1
0.999997
0.999994
0.999995
0.999995
0.999987
0.999978
0.999975
0.999777
0.998056
0.992298
0.981547
0.974469
0.970577
0.961532
0.948106
0.937388
0.985938
0.988528
0.991247
0.993935
0.996788
0.998991
0.999782
0.999819
0.999438
0.999513
0.999402
0.982278
0.952138
0.907418
0.836182
0.742289
0.63689
0.54173
0.451931
0.373262
0.320931
0.296913
0.28697
0.398354
0.419707
0.453819
0.496151
0.543773
0.582419
0.591346
0.586971
0.565831
0.523118
0.462563
0.394357
0.31252
0.214519
0.125509
0.0651532
0.02816
0.00798932
0.000989683
2.60254e-10
-2.16066e-10
-1.1509e-19
1.98497e-19
4.12466e-12
3.04114e-16
5.81047e-16
-5.03238e-07
-1.3669e-06
0.00194526
0.0109018
0.00771621
0.00208965
0.00293084
0.000992676
4.6632e-06
4.56373e-06
9.19917e-05
9.65026e-06
8.34131e-06
6.41714e-06
3.89415e-06
8.43688e-07
3.52234e-06
8.16965e-07
1.20777e-06
3.0219e-15
0.960729
0.962742
0.962743
0.962743
0.962743
0.962547
0.962002
0.963333
0.963354
0.963375
0.963232
0.963331
0.963751
0.966998
0.967775
0.967348
0.967313
0.967527
0.967521
0.905236
0.917875
0.917168
0.911532
0.917223
0.924303
0.933275
0.9413
0.9564
0.965791
0.965689
0.964709
0.960763
0.969218
0.969628
0.969441
0.969594
0.968317
0.961554
0.370016
0.354488
0.355578
0.37023
0.392358
0.433205
0.489738
0.564606
0.647909
0.744823
0.797693
0.768547
0.738735
0.738802
0.716866
0.67731
0.724237
0.699621
0.639633
1.2141e-18
-4.32395e-07
4.6466e-08
3.12152e-07
0.000349004
0.00302439
0.00987042
0.0309639
0.077448
0.141746
0.239991
0.330034
0.334752
0.281813
0.254462
0.281111
0.24042
0.284297
0.344596
0.000198128
0.00283487
0.00397877
0.00307135
0.000649338
0.000180577
0.000550123
0.00296027
0.00214089
0.00213406
0.00214089
0.0159216
0.011326
0.0136315
0.000388694
0.000131878
0.000132801
0.000131677
0.0331975
0.000105025
0.00405876
0.00853555
0.00854087
0.00535498
0.000792271
0.000524278
0.00195927
0.00296605
0.00212731
0.00229104
0.00322527
0.0111338
0.0196362
0.0189166
0.00198647
0.00022036
0.000560485
0.000419435
4.71665e-05
0.00010239
0.000553432
0.00637888
0.00805423
0.0046772
0.000918161
0.000526988
0.00123794
0.000530643
0.000551411
0.000575289
0.0027461
0.0100995
0.0108851
0.00277246
0.000665893
0.00338382
0.000423731
3.64178e-05
6.89231e-05
0.000128746
0.000509535
0.00806085
0.00654123
0.00246767
0.000533703
0.000239356
0.0002382
0.000668218
0.000762014
0.00214335
0.00335748
0.00322529
0.000832561
0.00239656
0.00338648
0.0010543
6.95148e-06
2.73068e-11
2.10151e-07
6.01222e-06
9.33463e-06
-4.23319e-07
-3.87931e-22
8.85646e-05
0.00011077
4.91543e-05
1.67308e-05
6.54011e-06
6.7578e-06
1.03724e-05
4.43629e-05
7.21332e-05
5.98611e-05
3.37564e-05
8.47996e-07
8.34237e-07
8.24801e-07
8.35004e-07
0.000161714
0.000337816
0.000168536
4.02301e-05
0.000201743
0.000803681
0.00142796
0.000784312
0.000176281
4.80345e-05
4.81141e-05
5.80158e-05
0.000159386
0.000156825
9.75553e-05
0.00025144
0.0012397
0.00303307
0.00311431
0.00314068
0.00313016
0.00302122
0.00341279
0.00487885
0.000420305
0.000418977
0.000141589
0.000174689
0.00132057
0.00238701
0.00238688
0.00238684
0.00220268
0.00123679
0.000382393
0.0010409
0.000959757
0.000129968
0.000868618
0.0037515
0.00446868
0.00446685
0.0043604
0.00501946
0.00542598
0.00572548
0.00586529
0.000264897
0.000215789
0.000215347
0.000144329
0.00017325
0.000280213
0.000586808
0.0014423
0.00220184
0.00207935
0.00131287
0.00132887
0.00121007
0.000212234
0.000122265
0.000281918
0.000313732
0.000177548
0.000185395
0.00016313
0.000360907
0.000788075
0.00143136
5.71492e-05
5.72528e-05
5.3448e-05
2.64485e-05
2.15278e-05
2.26287e-05
2.43017e-05
2.39135e-05
0.000399277
0.000912709
0.00113456
0.00113842
0.000476662
0.000148558
0.000119164
7.4521e-05
4.59893e-05
5.82935e-05
4.33039e-05
2.94204e-05
0.000123113
0.000404634
0.00013018
0.000194636
0.000144457
9.09423e-05
5.63967e-05
2.13183e-05
1.63003e-05
2.43552e-05
2.39739e-05
2.68888e-05
0.000208468
0.000334987
0.000176314
7.72733e-05
5.6023e-05
2.63004e-05
1.09586e-05
5.69116e-06
5.69192e-06
5.72644e-06
1.29974e-05
0.00037669
0.00048218
0.000292665
0.00040078
0.00040078
0.00040078
0.000190143
1.3731e-05
1.50858e-05
6.95498e-05
0.000328388
0.000460808
0.000288553
0.000122754
0.000123632
0.000146954
0.000162801
0.000124194
4.58211e-05
5.77309e-06
1.54795e-05
5.30298e-05
3.54486e-05
3.35041e-05
0.000580874
0.0016086
0.000324564
0.000358979
0.000308232
4.26007e-05
1.37079e-05
9.38204e-05
0.000639908
0.000710528
0.000710462
0.000710528
0.000695601
0.000622307
0.00061962
0.000617621
0.00045432
0.000128039
0.000104494
0.000250955
0.000337712
0.000320698
6.51121e-05
1.96993e-05
0.000583776
1.89062e-05
3.01699e-05
3.86195e-05
9.33486e-06
1.36835e-05
2.51062e-05
8.37179e-05
0.000281099
0.00035173
0.000322411
0.000337922
0.000428557
0.000467775
0.000378834
0.00019641
0.000135966
0.000213576
0.000301685
0.00030599
0.00025729
0.000100435
1.93154e-05
2.11783e-05
3.3791e-08
3.48768e-08
3.2563e-08
4.62206e-08
4.47071e-06
2.01843e-06
6.17447e-10
8.12393e-10
1.09642e-14
7.43929e-11
-3.87764e-10
-3.52938e-10
-1.63525e-12
6.03236e-10
1.27685e-07
2.28324e-05
1.80573e-06
1.62739e-06
1.66899e-06
2.43622e-06
1.16763e-05
1.84625e-05
2.67246e-05
4.20912e-08
4.81082e-08
1.20026e-07
1.07611e-07
1.73013e-07
9.43807e-08
2.71705e-08
1.6412e-08
1.7024e-08
3.88803e-08
8.45708e-08
5.99184e-08
7.8465e-09
2.44903e-09
2.06045e-09
2.10398e-09
2.04918e-09
2.09253e-09
3.13537e-07
8.26717e-07
5.61318e-10
5.61455e-10
5.93109e-10
8.86149e-09
4.84638e-08
1.25308e-07
1.2544e-07
1.12996e-07
8.3568e-08
1.88371e-08
5.79414e-09
7.65283e-08
1.14412e-07
1.14166e-07
6.42362e-08
1.53999e-08
1.08212e-08
4.12481e-08
4.37452e-08
2.63189e-08
2.7357e-09
5.63777e-10
5.53491e-10
5.62811e-10
5.51263e-10
4.41608e-07
4.07398e-09
3.36486e-08
7.86281e-08
6.89518e-08
3.72306e-08
1.93023e-08
4.82433e-09
5.70271e-09
1.6006e-08
9.84016e-09
5.63852e-09
2.43386e-09
2.43994e-09
6.76505e-09
1.08122e-07
1.30522e-07
1.32537e-07
1.7226e-07
3.75193e-07
5.97773e-07
1.28839e-06
2.67521e-06
2.18936e-06
2.6947e-09
1.45582e-08
2.28744e-08
1.69998e-08
8.00613e-09
4.41299e-09
2.22821e-09
1.44275e-09
1.32091e-09
1.57736e-09
2.80756e-09
3.41843e-09
2.7726e-09
1.9874e-08
4.29527e-08
3.08644e-08
1.47341e-07
8.43831e-07
1.7896e-06
3.24492e-06
5.43216e-06
5.43899e-06
3.89364e-06
1.83755e-09
5.04749e-09
5.64843e-09
5.11598e-09
4.92772e-09
4.72531e-09
2.85277e-09
2.13463e-09
2.00066e-09
2.49312e-09
3.03012e-09
3.12033e-09
2.48275e-09
1.95516e-09
8.15772e-09
2.33758e-08
2.57652e-07
1.03425e-06
1.87176e-06
3.23846e-06
5.42803e-06
5.40897e-06
3.54302e-06
1.28202e-09
2.14778e-09
2.80426e-09
3.62284e-09
4.22612e-09
3.99649e-09
2.65618e-09
2.07282e-09
1.85427e-09
1.92463e-09
2.00496e-09
1.7644e-09
1.86086e-09
1.7015e-09
2.03757e-09
1.79781e-08
2.47843e-07
6.27915e-07
2.89292e-08
7.04777e-07
5.41373e-06
5.23356e-06
1.45998e-07
1.01873e-09
1.5012e-09
1.99749e-09
2.46142e-09
2.61756e-09
2.43081e-09
2.01502e-09
1.58509e-09
1.37838e-09
1.26749e-09
1.26457e-09
1.32161e-09
1.49412e-09
1.6961e-09
2.18295e-09
8.78178e-09
3.03903e-08
1.01256e-07
2.99927e-08
2.04813e-07
7.38207e-07
1.91029e-06
5.35205e-07
7.81731e-10
1.08105e-09
1.41382e-09
1.60438e-09
1.55361e-09
1.38754e-09
1.20118e-09
1.03636e-09
9.18437e-10
8.42334e-10
8.43115e-10
9.10866e-10
1.06948e-09
1.35038e-09
1.65688e-09
1.68408e-09
1.55076e-09
2.93788e-09
1.62878e-08
7.80998e-08
9.97216e-08
5.2564e-07
3.14989e-06
6.83588e-10
7.89328e-10
9.63247e-10
1.02301e-09
9.5328e-10
8.14613e-10
6.91985e-10
6.20086e-10
5.60916e-10
5.12243e-10
4.76668e-10
5.00369e-10
5.84388e-10
7.38145e-10
9.17314e-10
1.09321e-09
1.6423e-09
4.66659e-09
2.36474e-08
6.82791e-08
6.14798e-08
7.65714e-08
2.87695e-06
6.25665e-10
5.66113e-10
6.50913e-10
6.49396e-10
5.88735e-10
4.97098e-10
4.16105e-10
3.56802e-10
3.08197e-10
2.69562e-10
2.42532e-10
2.35591e-10
2.69134e-10
3.5797e-10
5.01564e-10
7.69402e-10
1.57442e-09
5.49265e-09
2.90301e-08
1.2731e-07
1.27494e-07
3.41764e-08
2.30369e-08
5.61092e-10
4.06197e-10
4.21736e-10
3.94532e-10
3.44143e-10
2.80475e-10
2.26087e-10
1.81644e-10
1.48601e-10
1.25867e-10
1.08054e-10
1.0086e-10
1.16137e-10
1.56971e-10
2.36811e-10
3.94637e-10
7.72977e-10
2.37265e-09
1.61842e-08
9.9697e-08
1.31924e-07
1.12816e-07
2.28559e-08
5.09704e-10
2.94403e-10
2.8167e-10
2.49554e-10
2.06364e-10
1.60912e-10
1.21948e-10
9.02362e-11
6.71387e-11
5.08113e-11
4.08848e-11
4.00378e-11
4.87142e-11
6.83489e-11
1.08331e-10
1.83759e-10
3.31262e-10
6.22347e-10
1.57067e-09
7.9674e-09
1.05771e-07
1.32224e-07
1.08894e-07
4.63082e-10
2.16998e-10
2.01609e-10
1.81587e-10
1.52359e-10
1.16759e-10
8.20713e-11
5.45101e-11
3.5335e-11
2.35392e-11
1.73313e-11
1.47972e-11
1.6537e-11
2.33053e-11
4.04623e-11
7.96023e-11
1.66984e-10
3.12632e-10
3.28772e-10
6.48816e-10
1.71263e-08
1.12454e-07
1.12291e-07
4.31011e-10
1.72123e-10
1.67383e-10
1.66096e-10
1.52094e-10
1.19316e-10
8.21107e-11
5.13977e-11
3.00841e-11
1.72923e-11
9.93397e-12
6.38053e-12
5.49752e-12
7.39024e-12
1.34339e-11
3.04746e-11
7.62089e-11
1.75931e-10
3.58177e-10
5.14051e-10
7.6478e-10
9.86933e-09
5.10291e-08
4.00418e-10
1.41221e-10
1.61364e-10
1.86737e-10
1.84957e-10
1.4154e-10
9.33962e-11
5.68456e-11
3.26712e-11
1.81643e-11
9.39718e-12
4.75454e-12
2.70304e-12
2.42167e-12
3.89541e-12
8.9037e-12
2.36526e-11
6.43598e-11
1.59421e-10
3.35726e-10
5.3269e-10
8.69153e-10
9.01726e-09
3.8229e-10
1.33301e-10
1.79393e-10
2.34648e-10
2.43629e-10
1.72794e-10
1.04613e-10
6.2445e-11
3.62787e-11
2.02017e-11
1.0428e-11
5.01901e-12
2.29909e-12
1.21782e-12
1.16862e-12
2.16401e-12
5.25526e-12
1.42069e-11
3.881e-11
1.08945e-10
3.59582e-10
1.03104e-09
1.87371e-09
3.60834e-10
1.40571e-10
2.2314e-10
3.08616e-10
3.40178e-10
2.15936e-10
1.14838e-10
6.37979e-11
3.80414e-11
2.11985e-11
1.12213e-11
5.50667e-12
2.49023e-12
1.05107e-12
5.482e-13
5.78358e-13
1.14723e-12
2.85604e-12
7.67811e-12
2.24363e-11
6.40697e-11
1.995e-10
4.80679e-10
3.45245e-10
1.57937e-10
2.99872e-10
4.61361e-10
5.13293e-10
2.71317e-10
1.19429e-10
6.06562e-11
3.71296e-11
2.04573e-11
1.11191e-11
5.65136e-12
2.67755e-12
1.14435e-12
4.52067e-13
2.4073e-13
2.7969e-13
5.29477e-13
1.19095e-12
3.2645e-12
1.13282e-11
3.3868e-11
7.50402e-11
3.44735e-10
2.00619e-10
4.38113e-10
7.11194e-10
6.67851e-10
3.20108e-10
1.19617e-10
5.84673e-11
3.40353e-11
1.83029e-11
1.00001e-11
5.33581e-12
2.64451e-12
1.18225e-12
4.78609e-13
1.81445e-13
1.07757e-13
1.40127e-13
2.55832e-13
5.42826e-13
1.22186e-12
3.52851e-12
9.07283e-12
3.50034e-10
2.60772e-10
6.60354e-10
9.32765e-10
7.05269e-10
3.39145e-10
1.21334e-10
6.18626e-11
3.06305e-11
1.53998e-11
8.33428e-12
4.53406e-12
2.37201e-12
1.13933e-12
4.83163e-13
1.80029e-13
6.73965e-14
5.39983e-14
8.5209e-14
1.57905e-13
3.21799e-13
6.62342e-13
1.22029e-12
3.66218e-10
3.45887e-10
8.41855e-10
1.04337e-09
7.53802e-10
3.19799e-10
1.32478e-10
6.8051e-11
2.73851e-11
1.23447e-11
6.33667e-12
3.52694e-12
1.94556e-12
9.90721e-13
4.55323e-13
1.77227e-13
6.19191e-14
2.84038e-14
3.69373e-14
7.15898e-14
1.42791e-13
2.80076e-13
5.14284e-13
3.84306e-10
4.24908e-10
9.98636e-10
1.10824e-09
7.69903e-10
3.27167e-10
1.67505e-10
7.21001e-11
2.53577e-11
9.62858e-12
4.64604e-12
2.55504e-12
1.42726e-12
7.77087e-13
3.87105e-13
1.64871e-13
6.0424e-14
1.99766e-14
1.86936e-14
3.55851e-14
8.09367e-14
1.80069e-13
3.25187e-13
4.07122e-10
5.03539e-10
1.09615e-09
1.11916e-09
7.87744e-10
3.65063e-10
1.98302e-10
7.74897e-11
2.43945e-11
7.51715e-12
3.22467e-12
1.74484e-12
9.80517e-13
5.36655e-13
2.8782e-13
1.39049e-13
5.59385e-14
1.72365e-14
9.95239e-15
1.909e-14
4.26175e-14
1.0109e-13
2.25327e-13
4.3203e-10
5.79384e-10
1.16135e-09
1.12611e-09
7.19708e-10
4.12964e-10
2.35661e-10
8.65245e-11
2.45517e-11
6.01523e-12
2.20271e-12
1.1002e-12
6.07011e-13
3.34456e-13
1.89065e-13
1.01046e-13
4.57892e-14
1.63998e-14
6.10796e-15
8.70859e-15
2.25418e-14
6.70431e-14
1.27555e-13
4.5673e-10
6.29202e-10
1.1788e-09
1.11335e-09
6.82242e-10
4.50883e-10
2.64993e-10
9.70568e-11
2.47404e-11
4.84972e-12
1.41784e-12
6.88352e-13
3.5532e-13
1.92416e-13
1.08386e-13
6.28934e-14
3.30114e-14
1.37473e-14
4.06554e-15
4.03177e-15
9.0221e-15
2.48461e-14
6.85616e-14
4.81019e-10
6.5626e-10
1.17679e-09
1.06318e-09
6.88636e-10
4.854e-10
2.76461e-10
9.91336e-11
2.40665e-11
4.02285e-12
9.14704e-13
3.99785e-13
2.00188e-13
1.00156e-13
5.38188e-14
3.26236e-14
1.97396e-14
1.00211e-14
3.01945e-15
1.93888e-15
4.29355e-15
1.23393e-14
2.75297e-14
5.03355e-10
6.4522e-10
1.12507e-09
1.02175e-09
6.58296e-10
5.08468e-10
2.59376e-10
8.45676e-11
1.94347e-11
3.24046e-12
5.46673e-13
2.11669e-13
1.05855e-13
4.87988e-14
2.35719e-14
1.37915e-14
9.24967e-15
5.80915e-15
2.1593e-15
7.56297e-16
1.05313e-15
2.85207e-15
1.08464e-14
5.36143e-10
6.07337e-10
1.0924e-09
9.79927e-10
6.30179e-10
5.09405e-10
2.23378e-10
6.77213e-11
1.56243e-11
2.29167e-12
2.8654e-13
1.03666e-13
5.12186e-14
2.23459e-14
9.37386e-15
4.76329e-15
3.25931e-15
2.46654e-15
1.26734e-15
3.95715e-16
3.45949e-16
9.93212e-16
2.32688e-15
5.70017e-10
5.39212e-10
1.03869e-09
8.02657e-10
6.28612e-10
4.20688e-10
1.65274e-10
4.67044e-11
9.81696e-12
1.25052e-12
1.2683e-13
4.1597e-14
2.15187e-14
9.25305e-15
3.42432e-15
1.37442e-15
8.48653e-16
7.23932e-16
5.32041e-16
2.07578e-16
8.61158e-17
1.33345e-16
5.2893e-16
6.48408e-10
4.46407e-10
9.08921e-10
6.00085e-10
5.62573e-10
2.74399e-10
9.08126e-11
2.44072e-11
3.97605e-12
4.45689e-13
3.87963e-14
1.27477e-14
7.1002e-15
3.16578e-15
1.10286e-15
3.4829e-16
1.54185e-16
1.36379e-16
1.5659e-16
9.92148e-17
3.13282e-17
3.66853e-17
8.36156e-17
7.19134e-10
4.22139e-10
6.59031e-10
5.5946e-10
3.34414e-10
1.11956e-10
3.7197e-11
9.04446e-12
1.07596e-12
9.35879e-14
6.84081e-15
2.50636e-15
1.59103e-15
7.66046e-16
2.68799e-16
7.17783e-17
2.07429e-17
1.69515e-17
2.76832e-17
3.65163e-17
1.23307e-17
6.3793e-18
1.46167e-17
9.03015e-10
4.37052e-10
5.25309e-10
3.59881e-10
6.41732e-11
1.87481e-11
7.36086e-12
1.47852e-12
1.12436e-13
5.01998e-15
4.05982e-16
2.37543e-16
1.78752e-16
9.60465e-17
3.49709e-17
8.57148e-18
1.76991e-18
1.27272e-18
3.5606e-18
8.31457e-18
5.45238e-18
1.95248e-18
2.26783e-18
0.000345006
0.000297665
0.000198897
0.000196351
0.005862
0.00476133
0.00249544
0.00315591
0.00586529
0.00586529
0.00586529
0.00586528
0.00504907
0.00584778
0.00496383
0.000706053
0.000126296
0.00012629
0.000246896
0.000196554
0.000289101
0.000280663
0.000210159
0.000196874
0.00227957
0.00195405
0.00121535
0.000605703
0.00240519
0.00241841
0.00241841
0.00241841
2.15731e-05
2.84446e-05
0.00021159
0.00167733
2.68479e-05
2.89848e-05
2.96112e-05
2.62216e-05
5.62348e-10
5.5301e-10
8.32509e-06
1.49885e-05
2.92821e-07
3.64297e-08
6.4706e-10
3.9432e-09
9.36242e-07
4.2344e-07
2.42268e-07
1.31259e-07
9.54239e-07
2.16247e-07
1.54735e-07
8.22538e-08
2.19126e-07
6.72983e-08
5.08047e-08
6.47164e-08
5.41511e-08
5.07881e-08
5.12426e-08
5.59159e-08
1.24644e-07
1.22822e-07
1.24671e-07
7.00372e-08
2.84071e-06
1.57707e-07
2.6534e-07
4.02672e-07
4.48954e-06
3.76799e-06
2.75884e-07
3.95023e-07
1.8789e-07
3.51941e-07
6.94986e-07
1.23658e-06
1.1314e-08
1.1311e-08
8.79013e-09
8.59117e-09
1.92389e-08
1.27519e-08
1.5869e-08
8.04072e-09
6.54486e-08
1.79295e-08
2.21615e-08
1.45644e-08
6.44484e-08
5.12522e-08
7.72847e-09
7.57812e-09
2.13166e-08
2.25032e-08
1.0227e-08
3.73655e-09
5.25152e-09
3.54747e-09
2.48451e-09
1.94728e-09
6.20839e-10
6.90622e-10
5.947e-10
3.17961e-10
1.34413e-10
1.18631e-10
8.12479e-11
6.10645e-11
1.34432e-11
1.43968e-11
1.24176e-11
1.01906e-11
2.02151e-12
2.28553e-12
2.56537e-12
2.76497e-12
7.97949e-13
1.00398e-12
1.20364e-12
1.4947e-12
5.27388e-13
6.72211e-13
8.80991e-13
1.13463e-12
3.43063e-13
4.90741e-13
6.49458e-13
9.25345e-13
2.41026e-13
3.34636e-13
4.86215e-13
6.773e-13
1.12488e-13
1.78882e-13
2.78486e-13
4.18484e-13
6.01847e-14
8.97533e-14
1.46226e-13
2.40595e-13
1.92895e-14
3.37832e-14
6.30145e-14
9.42776e-14
5.75005e-15
9.10458e-15
1.60606e-14
3.25906e-14
9.24832e-16
1.63424e-15
3.53876e-15
5.87639e-15
1.68415e-16
2.40224e-16
3.97334e-16
8.83885e-16
2.12802e-17
2.50658e-17
4.42585e-17
6.70743e-17
2.78977e-18
2.62924e-18
3.41789e-18
4.05071e-18
0.000526778
0.000465753
0.000172912
0.00014612
0.00579231
0.00361919
0.00142879
0.000238588
0.000238133
0.000238112
0.00650195
0.00560035
0.00324702
0.0003239
0.000249561
8.65169e-05
0.00188154
0.00214907
0.00215088
0.00328127
0.00284767
0.00201302
0.00164669
0.00880327
0.00456913
0.000993188
0.000397251
0.000488939
0.00942351
0.0238038
0.0201241
0.000607313
2.51593e-05
2.60374e-05
1.72479e-05
0.0025035
0.0019354
0.00192474
0.00305856
0.00807827
0.0101444
0.0101598
0.010167
0.00731861
0.00115428
0.00273103
0.0113721
0.0238038
0.0238039
0.023804
0.00626746
4.01919e-05
1.1268e-05
0.000726356
0.00453197
0.00670826
0.00408621
0.00145243
0.00774771
0.00952432
0.0101449
0.0101684
0.00746463
0.00347867
0.00634482
0.0136507
0.0191926
0.0231952
0.0238041
0.0238042
0.00446193
0.000402734
0.00396839
0.00672988
0.00673066
0.00669265
0.000414919
0.000155306
0.00108508
0.00325449
0.00317892
0.00132506
0.000772461
0.000863266
0.000464971
0.00064841
0.00242856
0.0120353
0.0154895
0.0102514
0.0006655
0.00322651
0.00673066
0.00673057
0.00438436
0.00032637
8.79699e-05
7.71753e-05
7.67175e-05
7.67595e-05
7.67883e-05
0.000146649
0.000287374
0.000463934
0.000735791
0.000944971
0.00082642
0.000509791
0.00216855
0.00121223
0.00104668
0.00321816
0.00263369
0.0013833
0.000323523
0.000335254
0.000461698
0.000491042
0.000464863
0.000389779
0.000251968
0.000104812
0.000102336
0.000211214
0.000899279
0.000931551
0.000536148
0.000397741
0.000397692
0.000801546
0.0014403
0.00136991
0.00111572
0.00147458
0.00121817
0.00128583
0.00128587
0.0012859
0.00128576
0.00112674
0.00059436
0.000102358
0.000102331
0.00154369
0.00213571
0.00179236
0.000809247
0.000488981
0.000786416
0.000812255
0.000838408
0.00107217
0.00188904
0.000874432
0.000741906
0.000744965
0.000504431
0.000268408
0.000267794
0.000387035
0.000398
0.000137893
2.64421e-05
0.000938461
0.00220566
0.00221572
0.0010413
0.00088184
0.000825961
0.000817806
0.00615174
8.00542e-05
4.23622e-05
7.16542e-06
2.83248e-06
1.52764e-10
3.76788e-13
2.37792e-08
5.06354e-08
1.97003e-07
2.14929e-05
2.63718e-05
4.4885e-08
4.37826e-08
0.000433113
0.00143549
0.0024761
0.00407327
0.00581194
0.00704685
4.97763e-06
2.60128e-07
2.73976e-07
2.64907e-07
1.54392e-07
1.64806e-08
1.04304e-07
5.20864e-07
5.24158e-07
7.66188e-07
3.71569e-06
1.39999e-06
2.66727e-07
1.53267e-09
0.000164264
0.0019472
0.00704654
0.00704686
0.00704685
6.48697e-10
2.10273e-07
6.17268e-07
6.19917e-07
2.87201e-07
6.53226e-08
1.12544e-07
1.78715e-06
2.44895e-06
2.4598e-06
1.39755e-06
3.38365e-07
1.34787e-09
1.51704e-09
1.53267e-09
0.000332368
0.00251962
0.00704686
0.00704685
6.00855e-08
4.32909e-08
4.63764e-08
4.06561e-08
3.02933e-08
1.2603e-07
2.17601e-06
2.42641e-06
2.43223e-06
2.43841e-06
7.50613e-07
1.68734e-07
6.8605e-07
9.13116e-07
4.64136e-08
1.08766e-10
-1.45397e-20
0.00178154
0.00540182
6.55402e-08
7.00647e-08
5.67186e-08
1.09632e-07
2.81674e-07
2.16664e-07
1.21122e-07
7.67076e-07
1.45131e-06
2.81286e-07
2.63983e-07
1.48269e-06
1.9412e-06
6.91345e-07
9.92765e-10
3.87083e-09
5.3457e-11
4.96174e-11
0.000148873
7.54872e-08
6.01044e-08
9.10746e-08
1.35669e-07
3.47458e-07
2.07112e-07
6.48609e-08
1.11073e-08
1.13568e-08
3.1349e-08
4.88367e-07
2.03454e-06
2.03025e-06
5.0523e-07
9.72749e-10
9.92816e-10
5.91585e-08
5.1894e-09
3.01418e-06
4.93221e-08
3.40549e-08
3.40338e-08
2.10257e-07
6.9938e-07
1.01723e-06
8.80169e-07
9.23687e-08
1.35373e-08
1.40489e-08
1.69322e-07
1.02948e-06
1.0886e-06
5.37907e-07
7.91777e-07
1.87222e-06
2.45041e-06
1.66401e-06
5.09624e-07
5.0191e-08
6.09317e-08
1.53119e-07
2.02797e-07
1.40237e-06
1.56876e-06
1.56546e-06
1.1345e-06
1.43116e-07
6.77713e-08
1.43285e-08
1.53413e-08
5.84462e-08
8.14388e-07
2.74728e-06
2.74278e-06
2.74409e-06
2.74282e-06
1.84264e-06
5.66695e-07
8.93534e-07
6.44038e-07
3.29369e-07
7.24714e-07
1.57018e-06
1.57195e-06
1.56188e-06
1.46097e-06
1.05714e-06
1.34582e-08
2.14083e-08
3.17348e-08
2.68449e-07
1.53418e-06
1.58284e-06
1.61252e-06
2.17127e-06
1.34074e-06
1.67115e-06
2.74152e-06
1.70119e-06
4.6964e-07
1.65823e-07
1.14473e-06
1.57314e-06
1.56959e-06
1.30015e-06
1.28012e-06
1.09717e-06
7.95893e-07
5.10004e-07
3.61089e-07
7.21754e-07
3.23658e-07
1.60838e-07
8.23813e-07
5.04289e-07
3.05348e-06
3.4242e-06
3.41637e-06
1.56287e-07
9.79222e-08
1.11934e-07
1.05811e-06
1.29367e-06
2.86829e-07
4.61387e-07
1.38521e-06
1.38278e-06
1.36989e-06
1.36502e-06
9.70517e-07
5.83615e-08
6.89171e-08
1.44168e-07
4.63433e-07
9.23949e-07
2.55276e-06
2.4084e-06
2.32276e-07
9.7853e-08
6.02808e-07
1.15645e-06
8.84983e-07
4.73625e-09
4.88108e-09
3.07282e-07
1.04595e-06
1.19283e-06
8.72126e-07
2.51319e-07
1.24223e-08
7.07608e-08
6.66322e-07
1.12201e-06
7.3426e-10
5.61796e-10
7.02315e-10
1.23588e-07
3.21321e-07
3.73797e-07
2.85548e-07
2.06325e-07
8.82176e-08
4.45751e-09
5.3963e-09
5.21279e-08
1.49113e-07
1.84322e-07
1.21416e-07
1.12194e-08
2.03954e-08
6.21013e-07
1.14452e-06
3.95438e-09
9.15994e-10
5.40174e-10
5.18668e-10
5.15945e-10
1.26459e-09
4.29792e-10
4.28115e-10
4.32777e-10
4.3284e-09
1.40968e-09
7.06443e-09
1.32402e-09
8.35553e-10
8.75249e-09
2.00628e-08
9.31483e-09
1.26037e-07
7.66925e-07
5.99598e-09
3.0761e-09
1.30986e-09
1.33065e-09
1.13024e-09
4.3525e-10
4.29965e-10
4.33593e-10
4.53336e-10
8.06636e-10
6.44605e-10
1.20749e-09
9.71889e-10
8.35819e-10
8.4151e-10
2.01855e-08
7.63661e-09
4.39531e-09
1.30641e-07
4.33407e-09
1.33357e-09
1.10377e-09
1.2288e-09
1.00962e-09
6.59528e-10
5.00352e-10
4.53071e-10
4.5302e-10
5.12798e-10
6.16762e-10
7.76378e-10
8.84047e-10
1.11136e-09
1.05258e-09
7.07318e-09
3.68589e-09
4.35706e-09
6.18323e-08
9.86922e-10
5.52842e-10
5.65451e-10
5.39593e-10
4.26485e-10
3.15907e-10
2.65066e-10
2.6255e-10
3.06074e-10
3.97709e-10
5.50595e-10
7.54876e-10
9.60691e-10
1.28896e-09
1.45654e-09
2.5259e-09
1.8565e-09
4.4305e-09
4.50329e-08
2.29436e-10
1.81479e-10
1.63995e-10
1.46261e-10
1.27252e-10
1.13958e-10
1.14691e-10
1.37366e-10
1.88588e-10
2.83465e-10
4.39372e-10
6.76354e-10
9.62147e-10
1.32764e-09
2.06233e-09
2.06517e-09
1.753e-09
5.0069e-09
5.18515e-08
4.97944e-11
4.2759e-11
3.96228e-11
3.88894e-11
3.97331e-11
4.5842e-11
6.04315e-11
8.91942e-11
1.43305e-10
2.36624e-10
3.95932e-10
6.35851e-10
9.50167e-10
1.3516e-09
2.29116e-09
2.256e-09
1.93836e-09
1.08854e-08
5.18695e-08
9.87912e-12
1.02425e-11
1.16156e-11
1.39934e-11
1.84162e-11
2.64013e-11
4.10181e-11
6.92653e-11
1.26392e-10
2.37113e-10
4.24692e-10
6.91836e-10
1.02635e-09
1.51274e-09
2.30174e-09
2.243e-09
2.67216e-09
1.61346e-08
2.24867e-08
3.11544e-12
4.09707e-12
5.67037e-12
7.97716e-12
1.13538e-11
1.70861e-11
2.73532e-11
5.04209e-11
1.05329e-10
2.3187e-10
4.85648e-10
8.98627e-10
1.42079e-09
1.9327e-09
2.2229e-09
1.88198e-09
2.97186e-09
1.35869e-08
1.30738e-08
1.85928e-12
2.87936e-12
4.33055e-12
6.6335e-12
1.0383e-11
1.63306e-11
2.64883e-11
4.62183e-11
9.2915e-11
2.19528e-10
5.10827e-10
1.03589e-09
1.74411e-09
2.13769e-09
1.73527e-09
1.50192e-09
1.65789e-09
4.42357e-09
1.05089e-08
1.48215e-12
2.54212e-12
4.05034e-12
6.6725e-12
1.12836e-11
1.82737e-11
2.9354e-11
4.78135e-11
8.70227e-11
1.81156e-10
6.01395e-10
1.1714e-09
1.97566e-09
2.09972e-09
1.47074e-09
1.48889e-09
1.69599e-09
1.32111e-08
9.75811e-09
1.30001e-12
2.18857e-12
3.85896e-12
6.87462e-12
1.22561e-11
2.08973e-11
3.38563e-11
5.31583e-11
8.26801e-11
1.59956e-10
5.82548e-10
1.43696e-09
2.23694e-09
2.77288e-09
1.856e-09
1.47856e-09
1.9861e-08
4.09873e-08
9.43104e-09
9.52146e-13
1.7983e-12
3.43022e-12
6.6255e-12
1.26404e-11
2.29311e-11
3.80259e-11
5.8702e-11
9.00039e-11
1.6272e-10
7.33168e-10
2.00729e-09
3.31302e-09
6.18365e-09
1.91895e-08
3.47478e-08
6.44659e-08
5.65768e-08
8.19588e-09
6.6055e-13
1.31218e-12
2.77799e-12
5.83268e-12
1.19059e-11
2.31264e-11
4.05717e-11
6.31974e-11
9.54452e-11
1.53128e-10
4.10557e-10
1.89322e-09
4.14955e-09
8.27685e-09
2.27121e-08
5.79602e-08
6.44561e-08
3.70321e-08
5.80863e-09
3.54164e-13
8.24232e-13
1.94946e-12
4.54131e-12
1.00794e-11
2.11893e-11
4.01476e-11
6.94624e-11
1.03605e-10
1.42226e-10
2.7634e-10
1.88545e-09
5.86639e-09
7.42396e-09
1.66767e-08
4.34828e-08
6.13596e-08
1.58066e-08
4.85065e-09
1.63137e-13
4.25689e-13
1.13264e-12
2.98238e-12
7.32785e-12
1.70466e-11
3.54295e-11
6.6893e-11
1.08707e-10
1.53069e-10
3.042e-10
3.79004e-09
1.14414e-08
2.03745e-08
1.65031e-08
1.882e-08
2.42027e-08
6.51056e-09
4.83629e-09
5.415e-14
1.65053e-13
5.12789e-13
1.54929e-12
4.44614e-12
1.15242e-11
2.62762e-11
5.6867e-11
1.0713e-10
1.63524e-10
2.13174e-10
1.92226e-09
1.39637e-08
3.67912e-08
5.33857e-08
2.33635e-08
4.25794e-09
4.25841e-09
2.01376e-08
1.25819e-14
4.11467e-14
1.50027e-13
5.52794e-13
1.90394e-12
5.94173e-12
1.60856e-11
3.8639e-11
8.41659e-11
1.58008e-10
2.29833e-10
2.53314e-10
7.42433e-09
3.6501e-08
8.12126e-08
8.10126e-08
4.25864e-09
4.26149e-09
8.32384e-08
1.54679e-15
5.46672e-15
2.41843e-14
1.10445e-13
4.98973e-13
2.06023e-12
6.98763e-12
2.07966e-11
5.35999e-11
1.1801e-10
2.23157e-10
3.19421e-10
5.13085e-10
1.80947e-08
6.14412e-08
1.16399e-07
1.09242e-07
4.26096e-09
1.15452e-07
1.0399e-16
3.08301e-16
1.44669e-15
8.75911e-15
5.62799e-14
3.33982e-13
1.66065e-12
6.74592e-12
2.24515e-11
6.29019e-11
1.52636e-10
2.9461e-10
4.34387e-10
9.08859e-10
2.49072e-08
8.79103e-08
1.3346e-07
7.55978e-08
1.3341e-07
4.75682e-18
8.5785e-18
3.04982e-17
2.12812e-16
2.04188e-15
1.96444e-14
1.5725e-13
9.91059e-13
4.72897e-12
1.85795e-11
5.82824e-11
1.54883e-10
3.26414e-10
4.70645e-10
4.71203e-10
2.66634e-08
9.72174e-08
1.13567e-07
8.84644e-08
)
;

boundaryField
{
    leftWall
    {
        type            zeroGradient;
    }
    rightWall
    {
        type            zeroGradient;
    }
    lowerWall
    {
        type            zeroGradient;
    }
    atmosphere
    {
        type            inletOutlet;
        inletValue      uniform 0;
        value           nonuniform List<scalar> 
46
(
9.03015e-10
4.37052e-10
5.25309e-10
3.59881e-10
0
0
0
0
0
0
0
0
0
0
0
0
0
0
0
0
0
0
0
0
0
0
0
0
0
0
0
0
0
0
0
0
0
0
1.54883e-10
3.26414e-10
4.70645e-10
4.71203e-10
2.66634e-08
9.72174e-08
1.13567e-07
8.84644e-08
)
;
    }
    defaultFaces
    {
        type            empty;
    }
}


// ************************************************************************* //
