/*--------------------------------*- C++ -*----------------------------------*\
| =========                 |                                                 |
| \\      /  F ield         | OpenFOAM: The Open Source CFD Toolbox           |
|  \\    /   O peration     | Version:  2312                                  |
|   \\  /    A nd           | Website:  www.openfoam.com                      |
|    \\/     M anipulation  |                                                 |
\*---------------------------------------------------------------------------*/
FoamFile
{
    version     2.0;
    format      ascii;
    arch        "LSB;label=32;scalar=64";
    class       volScalarField;
    location    "5.45";
    object      p_rgh;
}
// * * * * * * * * * * * * * * * * * * * * * * * * * * * * * * * * * * * * * //

dimensions      [1 -1 -2 0 0 0 0];

internalField   nonuniform List<scalar> 
2268
(
5812.2
5819.83
5832.44
5847.77
5862.49
5872.98
5875.92
5869.03
5850.62
5819.57
5775.7
5718.38
5648.13
5566.86
5478.07
5386.68
5297.79
5216.23
5145.5
5087.66
5043.84
5014.52
4999.77
5808.77
5816.97
5830.6
5846.92
5862.72
5874.2
5877.86
5871.46
5853.39
5822.56
5778.71
5721.23
5650.52
5568.4
5478.48
5385.89
5295.87
5213.47
5142.26
5084.18
5040.29
5011.01
4996.4
5803.07
5812.24
5827.43
5845.61
5863.48
5876.87
5881.91
5876.45
5858.94
5828.34
5784.77
5727.02
5655.35
5571.49
5479.21
5384.18
5291.84
5207.77
5135.6
5077.06
5033.07
5003.97
4989.63
5794.73
5805.36
5822.8
5843.81
5864.91
5881.23
5888.18
5884.06
5867.41
5836.94
5793.91
5735.7
5662.6
5576.08
5480.21
5381.52
5285.58
5199.03
5125.54
5066.39
5022.27
4993.61
4979.46
5783.17
5795.84
5816.22
5841
5866.65
5887.2
5896.78
5894.36
5878.56
5847.98
5806.38
5747.77
5672.84
5582.56
5481.01
5372.02
5253.11
5129.89
5032.75
4960.62
4888.86
4820.6
4777.48
5716.34
5741.32
5775.57
5815.02
5857.18
5891.55
5906.81
5906.95
5891.48
5863.5
5821.02
5698.02
5509.52
5249.16
4878.34
4419.65
3919.66
3482.47
3081.15
2734.68
2505.51
2400.55
2362.19
3104.66
3215.17
3391.71
3611.08
3857.59
4058.95
4112.56
4094.69
3986.73
3769.07
3458.11
3107.67
2687.6
2186.68
1733.14
1422.65
1228.33
1124.09
1090.05
1089.7
1093
1092.59
1091.08
1046.85
1047.87
1049
1050.13
1051.86
1064.6
1119.38
1109.29
1081.36
1087.28
1078.31
1075.06
1077.48
1081.53
1085.21
1089.11
1092.5
1094.71
1096.59
1098.77
1101.04
1103.32
1100.1
2761.38
2767.99
2780.5
2800.19
2832.41
2878.63
2944.31
3030.1
3138.29
3252.22
3343.95
3390.61
3400.44
3398.12
3383.79
3371.63
3377.09
3386.2
3388.61
2716.49
2731.52
2742.67
2756.92
2793.24
2845.11
2917.25
3007.3
3129.79
3256.74
3353.14
3397.65
3400.05
3400.71
3382.81
3369.27
3377.75
3387.56
3383.42
1914.56
1889.7
1903.32
1945.92
2005.22
2104.95
2243.16
2431.53
2655.28
2923.81
3110.54
3113.91
3063.29
3048.25
2990.85
2913.13
2999.77
2977.04
2889.19
1104.4
1124.06
1133.06
1140.52
1148.44
1160.98
1188.84
1257.14
1394.45
1587.09
1877.51
2157.03
2173.77
2029.83
1946.46
2007.99
1898.98
2036.25
2223.57
1105.77
1131.94
1149.38
1159.73
1163.46
1164.71
1171.42
1185.85
1184.88
1195.85
1191.66
1241.17
1234.35
1261.05
1232.6
1183.24
1217.03
1238.33
1315.67
1093.17
1131.99
1164.21
1178.52
1180.49
1170.04
1175.04
1182.34
1187.73
1199.01
1211.32
1212.01
1230.87
1276.44
1287.54
1209.16
1242.28
1262.8
1211.14
1089.21
1111.02
1127.95
1167.37
1192.04
1186.69
1175.56
1178.52
1185.92
1193.37
1207.35
1214.11
1213.58
1237.21
1250.67
1226.09
1256.55
1277.98
1226.07
1107.4
1113.08
1126.09
1135.22
1190.71
1195.83
1182.39
1178.68
1184.16
1195.13
1209.95
1217.2
1205.72
1209.86
1235.9
1254.19
1274.26
1280.17
1236.78
1043.72
1045.86
1048.16
1051.07
1054.24
1056.89
1059.32
1062.6
1067.6
1072.13
1075.82
1078.52
1080.71
1083.01
1085.76
1088.42
1090.46
1091.68
1093.03
1095.32
1098
1100.53
1104.85
996.433
1010.54
1026.18
1040.13
1055.19
1067.44
1059.28
1059.92
1064.02
1063.02
1065.88
1068.47
1069.77
1073.99
1068.28
1057.07
1040.41
1029.37
1028.6
1036.15
1047.81
1065.18
1084.91
739.592
751.072
772.064
798.851
838.33
884.673
926.287
934.35
922.839
919.761
936.909
927.343
899.822
842.802
798.477
789.767
779.899
774.461
781.42
791.948
802.917
815.178
824.592
667.122
669.608
668.705
664.011
664.708
670.943
686.338
699.748
713.187
709.85
696.911
693.006
687.208
701.855
717.926
719.511
719.276
724.317
728.106
728.679
731.462
736.92
744.584
662.656
663.231
664.775
666.48
668.249
674.423
680.173
685.033
668.43
667.249
674.911
681.949
709.621
715.269
718.827
720.789
722.268
723.647
724.183
724.782
726.21
730.173
725.634
657.732
658.032
659.795
663.415
668.367
674.78
681.701
688.609
689.729
686.504
693.343
709.382
714.393
716.683
718.354
719.724
720.68
721.333
721.656
722.289
729.784
732.954
727.915
370.896
381.339
411.453
455.437
509.158
575.342
635.258
682.659
705.752
710.629
713.011
716.41
719.147
720.879
721.058
720.144
720.319
723.262
723.536
720.474
721.955
740.073
756.667
12.691
15.2272
23.4222
42.4703
67.4996
105
171.938
257.253
356.947
443.632
502.689
536.998
553.882
558.971
555.272
543.838
533.296
525.187
512.377
507.56
499.232
488.031
461.302
0.685494
0.944678
1.02518
0.366314
0.487789
0.750132
2.53617
9.34357
12.4174
13.734
27.119
37.0786
38.9277
34.2115
27.9004
22.1291
19.3513
14.8992
16.5034
15.0319
9.17673
9.60745
23.7243
0.203103
0.187374
0.163171
0.137934
0.203443
0.099848
-0.0261094
-0.111538
-0.107906
-0.0673108
-0.0478539
-0.0463731
-0.035712
0.168313
0.766157
1.42692
0.101435
0.117794
0.125777
0.15363
0.383396
0.544208
0.720187
0.168698
0.159316
0.143602
0.11855
0.0852724
0.0529314
0.0118733
-0.0288616
-0.0474233
-0.0420071
-0.0315456
-0.0225311
-0.0122484
0.00249049
0.0208882
0.0403882
0.0705522
0.0776637
0.0906848
0.113084
0.109291
0.123773
0.109088
0.143138
0.137281
0.12564
0.105442
0.0841034
0.0612424
0.0351661
0.0108937
-0.00135698
-0.00420528
0.003519
0.0360815
0.0395131
0.0477119
0.0650434
0.0815872
0.0986196
0.0893052
0.0807256
0.0947396
0.161506
0.169408
0.16398
0.124125
0.120038
0.111909
0.0978855
0.080648
0.062452
0.0442335
0.0287751
0.0180159
0.0186754
0.0254233
0.0224705
0.0209818
0.0212998
0.0580381
0.0888441
0.102224
0.0775229
0.0876694
0.165203
0.214836
0.240487
0.177848
0.107656
0.104423
0.0976833
0.0873871
0.0748925
0.0616637
0.0486225
0.0367005
0.0282431
0.0229696
0.020909
0.0215146
0.0242983
0.0296334
0.0430753
0.0594652
0.0650466
0.0826048
0.142191
0.270475
0.330478
0.308204
0.210187
0.0944693
0.0918967
0.0866569
0.079143
0.0701462
0.0604764
0.0508924
0.0422486
0.0355738
0.0311546
0.0289735
0.0287801
0.0302937
0.0331413
0.0370518
0.0417741
0.0535755
0.083587
0.175522
0.270205
0.329767
0.306464
0.171094
0.0839341
0.0819568
0.0780498
0.0725257
0.0658863
0.0586833
0.051516
0.0450019
0.0397076
0.0359505
0.033784
0.0331041
0.0337466
0.0354046
0.0377201
0.0408232
0.051236
0.0669727
0.0797789
0.149498
0.317659
0.250076
0.0477319
0.0753601
0.0738608
0.0709426
0.0668283
0.0618596
0.0564399
0.0510116
0.0459777
0.0417344
0.0385352
0.0364706
0.0355114
0.0355348
0.0363286
0.0376325
0.0393926
0.0417232
0.0453714
0.0436509
0.0494563
0.0833159
0.115089
0.0774468
0.0682335
0.0670911
0.0649031
0.0618109
0.0580559
0.0539315
0.0497485
0.0457905
0.0423519
0.0396224
0.0376953
0.0365727
0.0361771
0.036366
0.036951
0.0377406
0.0385743
0.0394255
0.0404035
0.0429228
0.0438736
0.0690813
0.218873
0.0622051
0.0613255
0.05967
0.0573227
0.0544546
0.05126
0.0479976
0.0448419
0.0420179
0.0396746
0.037894
0.0366931
0.0360245
0.0357927
0.035871
0.036133
0.0364842
0.0369263
0.0378798
0.0397446
0.039377
0.0393996
0.197678
0.0570171
0.0563294
0.0550639
0.0532619
0.0510521
0.0485865
0.045955
0.0433924
0.0410404
0.0390125
0.0373774
0.0361544
0.0353168
0.0348005
0.0345188
0.0343834
0.0343256
0.0343704
0.0351234
0.0388512
0.038211
0.0327069
0.0292349
0.0524811
0.0519338
0.0509519
0.0495436
0.0477959
0.0458322
0.0437209
0.0416148
0.0396312
0.0378609
0.0363608
0.0351506
0.0342148
0.0335085
0.0329696
0.0325295
0.0321211
0.0317149
0.0317182
0.0346428
0.0350056
0.0323233
0.0257247
0.0484566
0.0480097
0.04724
0.0461189
0.0447442
0.043126
0.041393
0.039634
0.0379383
0.0363775
0.0349992
0.0338211
0.0328337
0.0320051
0.0312879
0.0306262
0.02996
0.0292274
0.0283825
0.0275998
0.0308146
0.0301793
0.0266614
0.0448373
0.0444527
0.0438547
0.0429088
0.0417908
0.0404665
0.0390239
0.0375319
0.0360633
0.0346742
0.0334042
0.0322686
0.0312612
0.0303584
0.0295231
0.0287093
0.027867
0.0269423
0.0258686
0.0246064
0.0238519
0.0265835
0.0243447
0.0415147
0.0411877
0.0406862
0.039933
0.0389943
0.0378711
0.036651
0.0353633
0.0340767
0.032829
0.0316556
0.0305686
0.0295637
0.0286225
0.027715
0.0268028
0.0258462
0.0248034
0.0236304
0.0222781
0.0207126
0.019319
0.0192529
0.0384388
0.038154
0.0377323
0.0371065
0.036311
0.035361
0.0343085
0.0331603
0.0320287
0.030896
0.0298106
0.0287766
0.0277904
0.0268372
0.0258917
0.0249239
0.0239022
0.0227926
0.0215619
0.020181
0.0186215
0.0168747
0.0153303
0.0355624
0.0353074
0.0349481
0.0344174
0.0337311
0.0329107
0.0319763
0.0309794
0.0299682
0.0289075
0.0279113
0.0269339
0.0259777
0.0250313
0.0240752
0.0230853
0.0220356
0.0208988
0.0196494
0.0182666
0.0167402
0.0150716
0.0132479
0.0328438
0.0326103
0.0322991
0.0318417
0.0312575
0.0305473
0.0296789
0.028793
0.0278732
0.0269288
0.0259957
0.0250713
0.0241522
0.0232278
0.0222817
0.0212942
0.0202441
0.0191097
0.017871
0.0165119
0.0150195
0.0133884
0.0116225
0.0302478
0.0300299
0.0297614
0.0294123
0.0290192
0.0282782
0.0274158
0.0266233
0.0257936
0.0249385
0.0240754
0.0232078
0.0223329
0.0214421
0.0205218
0.0195554
0.0185255
0.0174146
0.016207
0.01489
0.0134525
0.0118871
0.0101953
0.0277445
0.0275405
0.0273786
0.0275808
0.0277761
0.0259574
0.0251867
0.0244766
0.0237319
0.0229579
0.0221655
0.0213581
0.0205338
0.0196858
0.0188031
0.017872
0.0168777
0.0158061
0.0146445
0.0133826
0.0120107
0.0105226
0.0089191
0.0253055
0.02514
0.0253631
0.027485
0.0264673
0.0235921
0.0229846
0.0223556
0.0216934
0.0209985
0.0202779
0.0195337
0.0187651
0.0179672
0.0171312
0.0162459
0.0152989
0.0142784
0.013174
0.011977
0.0106794
0.0092757
0.0077673
0.0229102
0.022865
0.0238527
0.0253194
0.0237476
0.0213291
0.0208071
0.0202635
0.0196837
0.0190683
0.0184208
0.0177428
0.0170342
0.0162918
0.0155094
0.0146779
0.013787
0.0128266
0.011788
0.0106639
0.00944757
0.00813444
0.00672648
0.0205446
0.02062
0.0222526
0.0230811
0.0198535
0.0191101
0.0186623
0.0182048
0.0177087
0.0171734
0.0166003
0.0159908
0.0153455
0.0146632
0.0139396
0.0131679
0.0123396
0.0114462
0.0104802
0.00943548
0.00830623
0.00708896
0.00578689
0.0182046
0.0184544
0.0209176
0.0198447
0.0173322
0.0169271
0.0165583
0.0161864
0.0157741
0.0153187
0.0148203
0.0142806
0.0137013
0.0130825
0.0124219
0.0117146
0.010954
0.0101329
0.00924487
0.00828466
0.00724747
0.00613092
0.00493872
0.0159026
0.0163587
0.0186402
0.0174714
0.0151905
0.0147929
0.0145118
0.014217
0.013886
0.0135081
0.0130831
0.0126134
0.0121015
0.0115488
0.0109545
0.0103155
0.00962675
0.00888219
0.00807643
0.00720502
0.00626402
0.00525192
0.0041735
0.013645
0.0143568
0.0166326
0.0151005
0.0129994
0.0127409
0.0125336
0.0123053
0.0120491
0.0117439
0.0113893
0.0109884
0.0105445
0.0100597
0.00953442
0.00896695
0.0083535
0.00768912
0.00696925
0.00619022
0.00534894
0.00444475
0.00348251
0.0114586
0.0121859
0.0148892
0.0120546
0.0108651
0.0107713
0.010622
0.0104562
0.010266
0.0100266
0.00973769
0.00940315
0.00902691
0.00861135
0.00815732
0.0076641
0.00712909
0.00654823
0.00591749
0.00523401
0.00449548
0.0037017
0.0028582
0.00936678
0.0100668
0.0126646
0.0103169
0.00888422
0.00887551
0.00878276
0.00867152
0.00853572
0.00835355
0.00812477
0.00785365
0.00754417
0.00719857
0.00681775
0.00640133
0.0059476
0.00545335
0.00491495
0.00432994
0.00369692
0.00301621
0.00229281
0.00741229
0.00853734
0.0108054
0.00921209
0.00711194
0.00708993
0.00701148
0.00694626
0.00685356
0.00671957
0.00654515
0.00633425
0.00609035
0.0058152
0.00550932
0.00517222
0.00480254
0.00439785
0.00395495
0.00347144
0.00294665
0.00238105
0.0017797
0.00556418
0.00729246
0.00872955
0.00743833
0.00555822
0.00538212
0.00530821
0.00527401
0.00521316
0.00511879
0.00499314
0.00483915
0.00465936
0.00445473
0.00422516
0.00396974
0.00368697
0.0033748
0.0030305
0.00265163
0.00223784
0.00179004
0.00131191
0.00382443
0.00517475
0.00578252
0.00515258
0.00388951
0.00370619
0.0036674
0.00364974
0.00360973
0.00354714
0.00346495
0.00336447
0.00324681
0.00311196
0.00295918
0.00278707
0.00259378
0.0023771
0.00213441
0.00186346
0.0015636
0.00123594
0.00088325
0.00212607
0.00271334
0.00393008
0.0029698
0.00213266
0.00210464
0.00207852
0.00205708
0.00202896
0.00199343
0.00195136
0.00190218
0.00184524
0.00177952
0.00170374
0.0016162
0.00151479
0.00139697
0.00125977
0.00110034
0.000917497
0.000713025
0.000487858
0.000641153
0.000657492
0.0016257
0.000760114
0.000455119
0.000522048
0.000470638
0.00043917
0.000420192
0.0004122
0.000411934
0.000415999
0.000422021
0.000427972
0.000432134
0.000432829
0.000428109
0.000415527
0.000391236
0.000350335
0.00029037
0.000213058
0.000119228
1108.59
1110.36
1112.03
1114.54
1093.26
1091.59
1087.31
1087.03
830.721
834.755
848.102
849.145
775.823
775.709
765.548
721.101
719.648
718.051
722.598
725.686
726.814
726.407
724.912
724.192
762.052
752.534
739.458
730.074
459.279
445.506
440.435
446.547
42.5556
51.2137
40.082
56.5731
0.715488
0.767471
0.803103
0.733174
0.100899
0.106701
0.306295
0.461017
0.11544
0.0683108
0.0791161
0.0839519
0.0808627
0.0622703
0.0558937
0.0523278
0.0736973
0.0508325
0.0498237
0.0493808
0.0490428
0.0460995
0.048085
0.0518857
0.0459271
0.0468835
0.0502886
0.0532048
0.0521451
0.0503225
0.0503333
0.0495106
0.20856
0.0525379
0.057478
0.07299
0.337686
0.311365
0.155464
0.149283
0.0543137
0.169297
0.198056
0.217875
0.0228928
0.0219385
0.0234831
0.06809
0.0206307
0.0190009
0.0176721
0.0157057
0.0202941
0.0171943
0.0161855
0.0145421
0.0182709
0.0165942
0.0136103
0.0125131
0.0144026
0.0134554
0.011866
0.0104764
0.0119581
0.0109047
0.00985124
0.00877822
0.0102293
0.00930577
0.00834066
0.00732983
0.00886474
0.00797864
0.00706098
0.00610974
0.00765582
0.00681736
0.00594957
0.00504943
0.00657912
0.00579053
0.00497525
0.00412944
0.00561851
0.00488354
0.00412384
0.00333586
0.00476304
0.00408421
0.00338337
0.00265624
0.00400273
0.00338275
0.00274281
0.00207919
0.00332791
0.0027683
0.00219168
0.00159365
0.00272963
0.00223214
0.00171981
0.00118906
0.00219918
0.00176437
0.00131772
0.00085545
0.00172892
0.00135767
0.000976796
0.000583829
0.00131135
0.0010036
0.000689175
0.00036591
0.000940021
0.000696199
0.000447702
0.000194091
0.000608068
0.000428049
0.000245974
6.17724e-05
0.00031034
0.000194921
7.8626e-05
-3.77559e-05
3.98079e-05
-1.1792e-05
-6.37135e-05
-0.000114686
1120.63
1117.83
1124.38
1131.21
1173.13
1175.09
1172.89
1173.78
1183.74
1196.74
1240.72
1244.88
1191.44
1203.73
1240.25
1250.47
1272.53
1275.36
1253.33
1087.86
1063.68
1083.03
1112.9
1126.02
1152.24
1165.1
1171.76
1183.64
1245.5
1299.38
1286.36
1163.11
1217.35
1231.49
1250.56
1282.78
1271.85
1268.81
825.212
843.989
892.854
992.355
1062.11
1097.06
1114.33
1161.19
1193.89
1163.8
1116.92
1143.33
1212.27
1229.37
1237.7
1265.71
1311.18
1319.27
1296.96
745.817
799.507
792.111
788.265
802.393
851.732
899.345
895.411
918.603
968.562
1005.97
1030.52
1143.83
1243.46
1263.71
1310.44
1240.16
1166.41
1184
728.938
715.04
741.186
753.977
734.822
711.491
714.647
725.764
733.832
747.647
781.682
896.033
955.497
1006.53
1089.56
1071.35
956.857
928.75
902.165
725.01
718.514
727.966
733.201
721.595
713.289
716.627
723.613
732.738
746.013
759.563
768.868
771.111
809.57
819.166
827.543
874.315
875.58
862.699
723.776
720.348
718.525
719.795
712.16
713.353
710.789
714.677
724.326
735.511
757.283
770.976
779.946
793.037
808.626
832.495
858.564
866.575
869.985
468.442
441.25
363.311
296.036
266.57
270.674
298.104
351.607
439.651
562.296
675.767
755.791
801.189
806.616
818.945
843.563
861.068
872.877
885.594
68.1935
36.7836
19.1474
16.3463
11.7771
6.95614
7.21077
12.8711
21.4827
32.9893
75.0664
168.44
425.892
770.511
839.979
858.315
877.181
890.816
1007.12
3.45294
3.49211
1.27556
0.246961
0.164584
0.173698
0.178992
0.193132
0.221588
0.900519
0.832273
7.60367
30.425
90.7852
338.053
720.636
956.446
1020.23
1056.05
0.200668
0.0818011
0.132492
0.14214
0.149108
0.155971
0.164944
0.174312
0.180154
0.179974
0.220423
0.146229
0.167124
4.77364
12.8406
121.258
476.796
745.127
783.095
0.0638917
0.0704723
0.107212
0.129914
0.135393
0.138043
0.142527
0.191673
0.209899
0.226156
0.372086
0.340255
0.326129
0.120969
0.54107
9.22861
71.2374
209.731
218.54
0.0516786
0.0625727
0.0815315
0.0988172
0.111228
0.132823
0.204723
0.214957
0.436742
0.407864
0.304329
0.123206
0.0731478
0.0398608
-0.00427706
-0.0528215
1.74595
53.8362
155.501
0.0520185
0.0632838
0.0759198
0.0872637
0.121529
0.162317
0.149513
0.145194
0.270652
0.126471
0.0112833
0.0235242
0.0292834
-0.0148165
-0.0570113
-0.108817
-0.222832
-0.271647
3.9461
0.0549834
0.0561424
0.0647254
0.079732
0.115345
0.11667
0.119556
0.0843133
0.0278278
0.0131881
0.00763359
0.105282
0.0991913
-0.0420586
-0.0849005
-0.14322
-0.212536
-0.240577
-0.156165
0.051133
0.0538682
0.0596276
0.0689142
0.089664
0.156406
0.155191
0.0993831
0.0175581
-0.000748652
0.0263515
0.130287
0.14055
0.0663307
-0.004238
0.00566425
-0.045025
-0.13091
-0.16971
0.0537566
0.0882285
0.119886
0.11115
0.139396
0.180637
0.170912
0.135703
0.015498
-0.00238954
-0.0179074
0.0572515
0.114364
0.137524
0.102965
0.0513845
-0.0388458
-0.089607
-0.0728957
0.108564
0.164017
0.189754
0.174854
0.175696
0.170692
0.146831
0.136603
0.133399
0.095629
-0.00210653
-0.0179919
-0.0149958
0.0118523
0.0503215
-0.0233859
-0.0956223
-0.107913
-0.0706795
0.204203
0.252942
0.21041
0.165118
0.15098
0.185766
0.198487
0.196397
0.146924
0.119568
0.100254
0.0311152
-0.0211433
-0.0458484
-0.0541724
-0.0976728
-0.120234
-0.131141
-0.149685
0.27196
0.281644
0.215721
0.118265
0.143278
0.106062
0.0832366
0.0879198
0.0737437
0.0772106
0.110443
0.101847
0.0376084
-0.00544252
-0.0412597
-0.096949
-0.0884676
-0.129512
-0.12963
0.145556
0.17443
0.111879
0.0300638
0.0483454
0.0624198
0.0779328
0.0450522
-0.00854257
-0.0199243
-0.00769606
0.0387854
0.038606
-0.00687312
-0.0487811
-0.0618279
-0.0716503
-0.0772732
-0.0840925
0.0129649
0.0103583
0.0102552
0.0104122
0.0144344
0.0191206
0.0195819
0.0114986
-0.00408384
-0.0278273
-0.0378208
-0.047866
-0.0449355
-0.0200237
-0.034417
-0.0493897
-0.0654865
-0.0696792
-0.0650245
0.0118611
0.00875331
0.00597081
0.00261413
-0.00160271
-0.0065285
-0.0113675
-0.0152794
-0.0202637
-0.027786
-0.0379976
-0.0477378
-0.0582599
-0.0594042
-0.0496262
-0.0391328
-0.0839817
-0.0921384
-0.0660087
0.010376
0.00724909
0.00412592
0.000717484
-0.00331505
-0.0078741
-0.0126194
-0.0177057
-0.0233985
-0.0297872
-0.0374288
-0.0459532
-0.0548209
-0.0635323
-0.0716264
-0.0719899
-0.0832795
-0.0885231
-0.0807614
0.0085667
0.00555581
0.00251852
-0.000826685
-0.00466769
-0.00894013
-0.0135323
-0.0184956
-0.0239326
-0.0299659
-0.0366424
-0.0438763
-0.0513751
-0.0587687
-0.0656128
-0.071029
-0.075783
-0.0787231
-0.0734121
0.00690718
0.00413281
0.00116444
-0.00210772
-0.00575335
-0.00977515
-0.014129
-0.0188384
-0.0239388
-0.0294696
-0.0354129
-0.0416698
-0.0480462
-0.0542415
-0.0599478
-0.0647027
-0.068209
-0.0692747
-0.0649313
0.00558441
0.00293271
6.07666e-05
-0.00307996
-0.00653029
-0.0103039
-0.0143941
-0.0187958
-0.0235147
-0.0285454
-0.0338551
-0.0393369
-0.0448196
-0.0500609
-0.0548141
-0.058333
-0.0610288
-0.0598411
-0.0582324
0.00445216
0.00192963
-0.000804648
-0.00378198
-0.00702829
-0.0105554
-0.014361
-0.0184355
-0.0227647
-0.0273184
-0.0320648
-0.036895
-0.0416506
-0.0461292
-0.0500939
-0.0528607
-0.0541623
-0.0531864
-0.0547212
0.00348258
0.00110363
-0.00147207
-0.0042665
-0.00729685
-0.0105715
-0.0140877
-0.0178326
-0.0217845
-0.0259044
-0.0301251
-0.034386
-0.038518
-0.0423609
-0.0456982
-0.04822
-0.0485945
-0.0470043
-0.0506937
0.00265935
0.00043514
-0.001968
-0.00456611
-0.0073713
-0.0103888
-0.0136145
-0.0170333
-0.0206196
-0.02433
-0.0280897
-0.0318145
-0.0353967
-0.0387021
-0.0415165
-0.0436459
-0.0445244
-0.0440412
-0.046112
0.00196837
-9.21005e-05
-0.00231246
-0.00470467
-0.00727753
-0.010034
-0.0129682
-0.0160639
-0.0192943
-0.022616
-0.0259532
-0.0292071
-0.0322728
-0.0350347
-0.0373689
-0.0391978
-0.0408379
-0.04124
-0.0415421
0.00139654
-0.000492869
-0.00252283
-0.00470235
-0.00703772
-0.00953015
-0.0121719
-0.0149453
-0.0178218
-0.0207693
-0.0237124
-0.026534
-0.029086
-0.0313536
-0.0333963
-0.0350099
-0.0364647
-0.0366007
-0.0368085
0.000931662
-0.000781334
-0.00261549
-0.00457759
-0.00667198
-0.00889782
-0.0112461
-0.0136948
-0.0162094
-0.0187731
-0.0213528
-0.0237745
-0.0259426
-0.0277978
-0.0295296
-0.0310687
-0.0312663
-0.0307376
-0.0326031
0.000561635
-0.00097104
-0.00260597
-0.00434799
-0.0061998
-0.00815886
-0.0102159
-0.0123483
-0.0144788
-0.0165833
-0.0187901
-0.0209761
-0.0228135
-0.0242857
-0.0249341
-0.0253151
-0.0246925
-0.0259434
-0.0288539
0.000275122
-0.00107505
-0.00250905
-0.00403044
-0.00564096
-0.00733723
-0.00910949
-0.010945
-0.0127698
-0.0142825
-0.0157668
-0.0182206
-0.0197594
-0.0209566
-0.0213678
-0.020372
-0.0210646
-0.0234715
-0.0257087
6.13875e-05
-0.00110546
-0.00233863
-0.00364089
-0.00501373
-0.00645413
-0.00795268
-0.00948653
-0.0110367
-0.0125856
-0.012542
-0.00710798
-0.0107147
-0.0180114
-0.0185987
-0.0180602
-0.0179603
-0.0213987
-0.022468
-8.9355e-05
-0.00107341
-0.00210725
-0.0031935
-0.00433404
-0.00552714
-0.00676598
-0.00803447
-0.00931184
-0.0105777
-0.0111205
-0.00248666
-9.75723e-05
-0.00865862
-0.0157646
-0.0167285
-0.0172972
-0.0185608
-0.0160367
-0.000186069
-0.00098882
-0.001826
-0.00270062
-0.00361506
-0.00456941
-0.00556058
-0.00657752
-0.00760145
-0.00863091
-0.00965809
-0.00598181
0.00308591
0.00326431
-0.00850453
-0.013781
-0.0160374
-0.015569
-0.00771751
-0.000237068
-0.000860857
-0.00150532
-0.00217396
-0.00286944
-0.00359307
-0.00434448
-0.00512093
-0.00591434
-0.00671397
-0.00754603
-0.0083706
-0.00226196
0.00650141
0.00796135
-0.0071996
-0.0139565
-0.0136272
-0.000807316
-0.000249444
-0.000698259
-0.00115616
-0.00162627
-0.00211071
-0.00261148
-0.00313038
-0.00366861
-0.0042264
-0.00480491
-0.00540617
-0.0060911
-0.00673508
0.00267963
0.0101694
0.00967146
-0.00461858
-0.0126179
0.00367426
-0.000232881
-0.000511797
-0.000789647
-0.00106845
-0.00134931
-0.00163443
-0.00192702
-0.00223148
-0.00255254
-0.00289571
-0.00326746
-0.00370365
-0.0042494
-0.0046906
0.00630714
0.0120264
0.00614337
-0.00574887
0.00674232
-0.000197507
-0.000311104
-0.000412639
-0.000503289
-0.000583883
-0.000656975
-0.000726061
-0.00079621
-0.000873988
-0.000967467
-0.00109387
-0.00132153
-0.00170276
-0.00254329
-0.00377279
0.000320423
0.00419837
0.000639142
-0.00102436
)
;

boundaryField
{
    leftWall
    {
        type            fixedFluxPressure;
        gradient        uniform 0;
        value           nonuniform List<scalar> 
50
(
5812.2
5808.77
5803.07
5794.73
5783.17
5716.34
3104.66
1046.85
1043.72
996.433
739.592
667.122
662.656
657.732
370.896
12.691
0.685494
0.203103
0.168698
0.143138
0.124125
0.107656
0.0944693
0.0839341
0.0753601
0.0682335
0.0622051
0.0570171
0.0524811
0.0484566
0.0448373
0.0415147
0.0384388
0.0355624
0.0328438
0.0302478
0.0277445
0.0253055
0.0229102
0.0205446
0.0182046
0.0159026
0.013645
0.0114586
0.00936678
0.00741229
0.00556418
0.00382443
0.00212607
0.000641153
)
;
    }
    rightWall
    {
        type            fixedFluxPressure;
        gradient        uniform 0;
        value           nonuniform List<scalar> 
50
(
3388.61
3383.42
2889.19
2223.57
1315.67
1211.14
1226.07
1236.78
1253.33
1268.81
1296.96
1184
902.165
862.699
869.985
885.594
1007.12
1056.05
783.095
218.54
155.501
3.9461
-0.156165
-0.16971
-0.0728957
-0.0706795
-0.149685
-0.12963
-0.0840925
-0.0650245
-0.0660087
-0.0807614
-0.0734121
-0.0649313
-0.0582324
-0.0547212
-0.0506937
-0.046112
-0.0415421
-0.0368085
-0.0326031
-0.0288539
-0.0257087
-0.022468
-0.0160367
-0.00771751
-0.000807316
0.00367426
0.00674232
-0.00102436
)
;
    }
    lowerWall
    {
        type            fixedFluxPressure;
        gradient        uniform 0;
        value           nonuniform List<scalar> 
62
(
5812.2
5819.83
5832.44
5847.77
5862.49
5872.98
5875.92
5869.03
5850.62
5819.57
5775.7
5718.38
5648.13
5566.86
5478.07
5386.68
5297.79
5216.23
5145.5
5087.66
5043.84
5014.52
4999.77
4999.77
4996.4
4989.63
4979.46
4777.48
2362.19
1091.08
1100.1
1108.59
1110.36
1112.03
1114.54
2761.38
2716.49
1914.56
1104.4
1105.77
1093.17
1089.21
1107.4
2761.38
2767.99
2780.5
2800.19
2832.41
2878.63
2944.31
3030.1
3138.29
3252.22
3343.95
3390.61
3400.44
3398.12
3383.79
3371.63
3377.09
3386.2
3388.61
)
;
    }
    atmosphere
    {
        type            totalPressure;
        rho             rho;
        psi             none;
        gamma           1;
        p0              uniform 0;
        value           nonuniform List<scalar> 
46
(
0
0
0
0
-0.000168951
-0.000305363
-0.000397558
-0.000435183
-0.000440253
-0.000426765
-0.000400027
-0.000364381
-0.000322688
-0.000277216
-0.00022973
-0.000181761
-0.000134777
-9.05131e-05
-5.15768e-05
-2.32939e-05
-1.0815e-05
-1.234e-05
-2.98e-05
-6.41234e-05
-9.17539e-05
-0.000121046
-0.000146607
-0.000175646
-0.000211367
-0.000226401
-0.000222646
-0.000203247
-0.000172142
-0.000133723
-9.30359e-05
-5.56365e-05
-2.5784e-05
-6.24894e-06
0
0
0
0
0
0
0
0
)
;
    }
    defaultFaces
    {
        type            empty;
    }
}


// ************************************************************************* //
