/*--------------------------------*- C++ -*----------------------------------*\
| =========                 |                                                 |
| \\      /  F ield         | OpenFOAM: The Open Source CFD Toolbox           |
|  \\    /   O peration     | Version:  2312                                  |
|   \\  /    A nd           | Website:  www.openfoam.com                      |
|    \\/     M anipulation  |                                                 |
\*---------------------------------------------------------------------------*/
FoamFile
{
    version     2.0;
    format      ascii;
    arch        "LSB;label=32;scalar=64";
    class       volVectorField;
    location    "5.45";
    object      U;
}
// * * * * * * * * * * * * * * * * * * * * * * * * * * * * * * * * * * * * * //

dimensions      [0 1 -1 0 0 0 0];

internalField   nonuniform List<vector> 
2268
(
(0.0115079 -0.0060996 0)
(0.0254194 -0.0036686 0)
(0.0384153 -0.00310772 0)
(0.050602 -0.00273565 0)
(0.0615201 -0.00235824 0)
(0.0708005 -0.00191373 0)
(0.0782408 -0.00148324 0)
(0.0838894 -0.00106085 0)
(0.0877214 -0.000576833 0)
(0.0895146 -7.13304e-05 0)
(0.0891973 0.000414129 0)
(0.0869447 0.000825253 0)
(0.0830335 0.00117876 0)
(0.0775681 0.00152281 0)
(0.0706965 0.00181042 0)
(0.0627462 0.0020691 0)
(0.053779 0.00231728 0)
(0.0438634 0.00249651 0)
(0.0335957 0.00252393 0)
(0.0235216 0.00244881 0)
(0.013911 0.0022612 0)
(0.00519384 0.0018402 0)
(-0.0020045 -0.000307414 0)
(0.00624921 -0.012103 0)
(0.0207337 -0.00960982 0)
(0.0336125 -0.00903502 0)
(0.0460392 -0.00824155 0)
(0.057172 -0.00721862 0)
(0.066632 -0.00597721 0)
(0.07426 -0.00471117 0)
(0.0801831 -0.00352133 0)
(0.0843402 -0.00212946 0)
(0.086429 -0.000626483 0)
(0.0863399 0.000821838 0)
(0.0842636 0.0020979 0)
(0.0805416 0.00321492 0)
(0.0752737 0.00431481 0)
(0.0686128 0.00521286 0)
(0.0609381 0.00600412 0)
(0.0522758 0.00674752 0)
(0.0426642 0.00722112 0)
(0.0327959 0.00723078 0)
(0.0233171 0.00689724 0)
(0.0145536 0.00639926 0)
(0.006572 0.00565299 0)
(0.000813035 0.00174625 0)
(0.00514809 -0.0179842 0)
(0.0193169 -0.0160487 0)
(0.0318997 -0.0150693 0)
(0.0442424 -0.0137671 0)
(0.0552454 -0.0120495 0)
(0.0645466 -0.00999794 0)
(0.0720218 -0.00784931 0)
(0.0779569 -0.00602197 0)
(0.0822672 -0.00366709 0)
(0.0844718 -0.000988497 0)
(0.0844299 0.00151902 0)
(0.0823672 0.00366992 0)
(0.0787057 0.00543285 0)
(0.0735128 0.00718552 0)
(0.0669541 0.00855826 0)
(0.0595332 0.00978908 0)
(0.0511699 0.0110222 0)
(0.0418426 0.0117656 0)
(0.0324036 0.0116898 0)
(0.02366 0.0110057 0)
(0.0158255 0.00990419 0)
(0.00831578 0.00823886 0)
(0.00346527 0.00292757 0)
(0.00578288 -0.0234833 0)
(0.0200593 -0.0221594 0)
(0.0328361 -0.0208255 0)
(0.0452342 -0.0190429 0)
(0.0561034 -0.0167404 0)
(0.0650713 -0.0139663 0)
(0.0720545 -0.0109363 0)
(0.0778064 -0.00828685 0)
(0.0822846 -0.00508744 0)
(0.0845632 -0.00168805 0)
(0.084457 0.00149674 0)
(0.0821797 0.00437222 0)
(0.078299 0.00686731 0)
(0.0728798 0.00964692 0)
(0.0661372 0.0117035 0)
(0.0587801 0.013423 0)
(0.0505216 0.0153364 0)
(0.0413891 0.0165652 0)
(0.0326045 0.0163426 0)
(0.0250782 0.0153518 0)
(0.0187569 0.0142569 0)
(0.0116807 0.0125538 0)
(0.00639782 0.00815769 0)
(0.00709719 -0.0305367 0)
(0.0219864 -0.029359 0)
(0.0355855 -0.0275434 0)
(0.048491 -0.02491 0)
(0.0598591 -0.0213202 0)
(0.0692092 -0.0172983 0)
(0.0760354 -0.0137672 0)
(0.0814369 -0.0114797 0)
(0.0858752 -0.00756854 0)
(0.0883761 -0.00227437 0)
(0.0882802 0.00327262 0)
(0.085601 0.00752066 0)
(0.081132 0.0105405 0)
(0.0746561 0.0137467 0)
(0.0656468 0.0158384 0)
(0.055628 0.0170795 0)
(0.0461676 0.0184212 0)
(0.0383631 0.0184997 0)
(0.0319091 0.0169347 0)
(0.0255496 0.0146121 0)
(0.0206217 0.0127435 0)
(0.0152868 0.0108694 0)
(0.00938458 0.00809505 0)
(0.00771026 -0.0383904 0)
(0.0228952 -0.0368796 0)
(0.0371966 -0.034534 0)
(0.0504851 -0.0315958 0)
(0.0627079 -0.0277611 0)
(0.0745068 -0.0225512 0)
(0.0840987 -0.0164823 0)
(0.0891336 -0.0118497 0)
(0.0892985 -0.00689769 0)
(0.086585 -0.00173592 0)
(0.0829508 0.00387372 0)
(0.0785069 0.00814949 0)
(0.0727151 0.0114884 0)
(0.0655461 0.015642 0)
(0.0567975 0.0181864 0)
(0.0474101 0.0190781 0)
(0.0397671 0.0197798 0)
(0.0356079 0.0195402 0)
(0.0327519 0.019358 0)
(0.0264123 0.0188589 0)
(0.0193068 0.0176105 0)
(0.0111286 0.0172662 0)
(0.00676267 0.019413 0)
(0.007146 -0.0446994 0)
(0.0215012 -0.0425536 0)
(0.0352364 -0.0385698 0)
(0.0471642 -0.033408 0)
(0.0569246 -0.0278964 0)
(0.0668915 -0.0224609 0)
(0.0789344 -0.0169977 0)
(0.0903941 -0.0122953 0)
(0.0980398 -0.0058372 0)
(0.100479 0.00134755 0)
(0.0986564 0.00739156 0)
(0.0941245 0.0120025 0)
(0.0840021 0.0164797 0)
(0.0686531 0.0224463 0)
(0.0518541 0.0284042 0)
(0.0303138 0.0317719 0)
(0.00530663 0.0338553 0)
(-0.018922 0.0322631 0)
(-0.0361905 0.031075 0)
(-0.044309 0.0291918 0)
(-0.0459442 0.0241312 0)
(-0.0390255 0.0194556 0)
(-0.0125423 0.0149336 0)
(0.000242587 -0.0460418 0)
(0.00245145 -0.0468174 0)
(0.00655769 -0.045769 0)
(0.0141133 -0.043607 0)
(0.0246884 -0.0422479 0)
(0.0391593 -0.0402615 0)
(0.0480104 -0.0323989 0)
(0.0228523 -0.0161263 0)
(-0.0338109 -0.00662023 0)
(-0.0356399 -0.00249521 0)
(-0.0303178 0.0032346 0)
(-0.0188289 0.0108477 0)
(-0.0162115 0.0210728 0)
(-0.018364 0.0290087 0)
(-0.0132725 0.0347016 0)
(-0.00675688 0.0363572 0)
(-0.000138203 0.0366 0)
(0.00682669 0.0331015 0)
(0.00968213 0.0290982 0)
(0.007345 0.0258153 0)
(0.00317498 0.0196588 0)
(-0.0124412 0.00705701 0)
(0.00708588 -0.00106997 0)
(0.000210834 -0.00107176 0)
(0.0137473 -0.00253754 0)
(0.0143644 -0.000509782 0)
(0.0166161 3.44409e-05 0)
(0.0165586 -7.09177e-06 0)
(0.0141748 0.00112898 0)
(0.00607398 0.00287371 0)
(-0.00982765 0.00457004 0)
(-0.0339663 0.00595302 0)
(-0.0600325 0.00503765 0)
(-0.0776012 0.00141652 0)
(-0.0810747 -0.00242903 0)
(-0.0752196 -0.00340201 0)
(-0.0654126 -0.00417145 0)
(-0.0500435 -0.00476049 0)
(-0.0356553 -0.00262867 0)
(-0.0279105 -0.00156638 0)
(-0.0195648 -0.00159016 0)
(-0.00642836 -0.00175751 0)
(0.00738871 -0.00520864 0)
(0.018399 -0.00399772 0)
(0.0208631 -0.00184435 0)
(0.0228513 -0.000682127 0)
(0.0206099 0.000230063 0)
(0.0144653 0.00281566 0)
(0.00407107 0.00699184 0)
(-0.0122333 0.0120598 0)
(-0.0330798 0.0160797 0)
(-0.0554043 0.0142892 0)
(-0.0735747 0.00786403 0)
(-0.0776416 -0.000356417 0)
(-0.0726743 -0.00270363 0)
(-0.0658877 -0.00557996 0)
(-0.053 -0.0099846 0)
(-0.0377361 -0.00598443 0)
(-0.0271344 -0.00507069 0)
(-0.0165532 -0.00685886 0)
(-0.00641763 -0.00995987 0)
(-0.00730047 -0.0163176 0)
(-0.00857307 -0.00683041 0)
(0.00102045 -0.00166726 0)
(0.0140949 8.97742e-05 0)
(0.0134066 0.00274636 0)
(0.00141396 0.00659874 0)
(-0.0151356 0.0118226 0)
(-0.0303842 0.0170971 0)
(-0.048743 0.0205867 0)
(-0.0668784 0.0201355 0)
(-0.0843255 0.0112736 0)
(-0.097745 -0.00286486 0)
(-0.0974012 -0.0083298 0)
(-0.0802756 -0.0120224 0)
(-0.0535154 -0.0183662 0)
(-0.0305381 -0.014268 0)
(-0.00709196 -0.00969787 0)
(-0.00425653 -0.00987384 0)
(-0.00272023 -0.0130035 0)
(-0.137014 0.0139019 0)
(-0.154219 -0.00324726 0)
(-0.12986 -0.0135804 0)
(-0.0920085 -0.0054711 0)
(-0.058726 0.00587719 0)
(-0.0511322 0.0176415 0)
(-0.071654 0.0244404 0)
(-0.0846672 0.031621 0)
(-0.104799 0.0365907 0)
(-0.108943 0.0333354 0)
(-0.109893 0.0207093 0)
(-0.107251 0.00156612 0)
(-0.0841569 -0.0124268 0)
(-0.053377 -0.0221796 0)
(-0.014407 -0.0300677 0)
(-0.0112822 -0.0288812 0)
(0.0151501 -0.0158922 0)
(0.00430132 -0.00900168 0)
(0.00690594 -0.0130662 0)
(-0.105809 0.071316 0)
(-0.0983189 0.00163597 0)
(-0.0875967 -0.0349888 0)
(-0.065748 -0.0274116 0)
(-0.0288522 -0.014498 0)
(-0.0125622 0.0177852 0)
(-0.0461406 0.0324852 0)
(-0.0759764 0.0336526 0)
(-0.090475 0.0364879 0)
(-0.0506834 0.0192659 0)
(3.18576e-05 0.0147974 0)
(0.0433591 -0.0128864 0)
(0.0651411 -0.0289252 0)
(0.0769076 -0.0434172 0)
(0.089621 -0.0338924 0)
(0.0168348 -0.0170286 0)
(-0.0272681 -0.0152626 0)
(0.0195791 -0.00780406 0)
(0.0408921 -0.00584113 0)
(-0.0811304 0.102918 0)
(0.000163716 0.00480815 0)
(-0.0409411 -0.0353583 0)
(-0.0396341 -0.0350146 0)
(-0.016699 -0.0265775 0)
(0.0111814 0.0194151 0)
(0.00136871 0.0453529 0)
(-0.0251366 0.0419055 0)
(-0.0346636 0.0267719 0)
(0.0171436 -0.00720877 0)
(0.0708544 -0.0210261 0)
(0.120353 -0.0304096 0)
(0.145107 -0.0231722 0)
(0.148597 -0.0348564 0)
(0.140015 -0.0244892 0)
(0.102789 0.0207154 0)
(0.0371362 -0.0135753 0)
(0.052609 -0.0338296 0)
(0.0807586 0.0149018 0)
(-0.0548702 0.114935 0)
(0.0584806 -0.00698297 0)
(0.0124354 -0.0247812 0)
(-0.0100185 -0.0328351 0)
(-0.00825769 -0.0389089 0)
(0.0239021 0.0115475 0)
(0.0311778 0.0493408 0)
(0.0228136 0.0476556 0)
(0.0312519 0.0222539 0)
(0.0560278 -0.0178072 0)
(0.0908988 -0.044636 0)
(0.139863 -0.0464624 0)
(0.166816 -0.0268676 0)
(0.154647 -0.0314802 0)
(0.12349 -0.0176235 0)
(0.08054 0.033826 0)
(0.0575732 -0.00399181 0)
(0.0444832 -0.0359237 0)
(0.0696418 0.046148 0)
(0.00691296 0.0986316 0)
(0.081079 -0.00288978 0)
(0.0541907 -0.0156051 0)
(0.0207272 -0.0195889 0)
(2.08678e-05 -0.0420652 0)
(0.0223223 0.000540135 0)
(0.0395821 0.0460405 0)
(0.0457043 0.0458624 0)
(0.0578032 0.0169544 0)
(0.0666078 -0.0262133 0)
(0.0862662 -0.0653973 0)
(0.121673 -0.0672746 0)
(0.148673 -0.025756 0)
(0.131941 -0.0180358 0)
(0.096795 0.000276756 0)
(0.0555956 0.0448207 0)
(0.0543299 0.00145126 0)
(0.036409 -0.0325344 0)
(0.0577094 0.0681666 0)
(-0.010287 -0.0503891 0)
(-0.0307163 -0.0499747 0)
(-0.0518385 -0.0468392 0)
(-0.0675173 -0.0425206 0)
(-0.0760094 -0.0379311 0)
(-0.0807657 -0.0262828 0)
(-0.0813567 0.00187616 0)
(-0.0816108 0.0219924 0)
(-0.082673 0.012355 0)
(-0.0732282 -0.00169454 0)
(-0.0612103 -0.0027289 0)
(-0.0468525 0.00498129 0)
(-0.0330399 0.0159889 0)
(-0.0193833 0.0202088 0)
(-0.00582437 0.0240364 0)
(0.0052631 0.0269015 0)
(0.0145439 0.0285263 0)
(0.0224969 0.0282181 0)
(0.0280195 0.0280967 0)
(0.0302164 0.030026 0)
(0.0293383 0.0289296 0)
(0.0273679 0.0187912 0)
(0.0265998 0.0123344 0)
(-0.00968599 -0.00912851 0)
(-0.0289542 -0.00802809 0)
(-0.0464233 -0.010904 0)
(-0.0621383 -0.018592 0)
(-0.0772718 -0.029968 0)
(-0.0911888 -0.0374962 0)
(-0.0952011 -0.0282142 0)
(-0.0877288 -0.0151413 0)
(-0.078507 -0.0121493 0)
(-0.0682626 -0.0173184 0)
(-0.053301 -0.0216122 0)
(-0.0357553 -0.0166808 0)
(-0.0161794 -0.0059483 0)
(-0.00393601 0.00394357 0)
(-0.00363415 0.012973 0)
(-0.00438155 0.0167545 0)
(-0.00246492 0.0181695 0)
(0.000463097 0.01838 0)
(0.00183017 0.01936 0)
(0.00656232 0.0220639 0)
(0.0152154 0.0209761 0)
(0.0214491 0.00975658 0)
(0.0246218 -0.00611233 0)
(-0.00677362 -0.00308719 0)
(-0.0197867 -0.00516648 0)
(-0.02847 -0.00910795 0)
(-0.0412664 -0.00992239 0)
(-0.0576742 -0.0112236 0)
(-0.0774464 -0.00891018 0)
(-0.0864704 -0.00862151 0)
(-0.0784137 -0.00917708 0)
(-0.065234 -0.0110586 0)
(-0.0544732 -0.0281035 0)
(-0.0568922 -0.0341781 0)
(-0.0641351 -0.0281265 0)
(-0.0689187 -0.0106296 0)
(-0.0758009 0.0110036 0)
(-0.077781 0.0219735 0)
(-0.0720577 0.0229817 0)
(-0.0631235 0.021906 0)
(-0.0522928 0.0233799 0)
(-0.0400641 0.0218091 0)
(-0.0254721 0.018243 0)
(-0.00159022 0.0109423 0)
(0.0248236 0.00956623 0)
(0.0354576 0.00551944 0)
(-0.010436 0.0149459 0)
(-0.0291301 0.00923163 0)
(-0.0437916 0.00804202 0)
(-0.0622304 0.0112722 0)
(-0.0817952 0.00736534 0)
(-0.0917919 -0.00271707 0)
(-0.090998 -0.0223808 0)
(-0.0833807 -0.0364294 0)
(-0.071736 -0.0308763 0)
(-0.0778044 -0.0216875 0)
(-0.113895 -0.00834567 0)
(-0.139331 -0.00544494 0)
(-0.146066 0.00040512 0)
(-0.133201 0.00733875 0)
(-0.109757 0.0032025 0)
(-0.0859863 0.00058214 0)
(-0.0654244 -0.00115233 0)
(-0.0481205 -0.000958984 0)
(-0.029305 -0.00498424 0)
(-0.0123278 -0.0103785 0)
(0.00857123 -0.0279731 0)
(0.0353999 -0.0281871 0)
(0.0553678 -0.0103758 0)
(-0.0131841 0.0412542 0)
(-0.0437409 0.0333012 0)
(-0.070799 0.0292471 0)
(-0.091467 0.0271293 0)
(-0.105936 0.016601 0)
(-0.115147 -0.00285625 0)
(-0.122996 -0.02503 0)
(-0.1322 -0.0349224 0)
(-0.140775 -0.0190901 0)
(-0.145108 0.00533453 0)
(-0.143858 0.0108816 0)
(-0.136108 -0.000614778 0)
(-0.114861 -0.0147342 0)
(-0.0880647 -0.0190029 0)
(-0.0605656 -0.0232962 0)
(-0.0394985 -0.0176372 0)
(-0.0216378 -0.0127883 0)
(-0.00702305 -0.0118593 0)
(0.00517729 -0.0145541 0)
(0.0106742 -0.0195197 0)
(0.0212207 -0.0413967 0)
(0.0308985 -0.0462653 0)
(0.0439209 -0.0152489 0)
(-0.0186651 0.059666 0)
(-0.0572358 0.0573686 0)
(-0.0919128 0.0535898 0)
(-0.116197 0.0472975 0)
(-0.132324 0.0357022 0)
(-0.146693 0.0196977 0)
(-0.162359 0.000130316 0)
(-0.17385 -0.0167062 0)
(-0.172933 -0.0188236 0)
(-0.158345 -0.0105658 0)
(-0.1364 -0.0108758 0)
(-0.11149 -0.0251903 0)
(-0.0878893 -0.0430808 0)
(-0.0668904 -0.0483579 0)
(-0.0455859 -0.0478928 0)
(-0.0247295 -0.0417184 0)
(-0.00382837 -0.0346261 0)
(0.0161865 -0.0306465 0)
(0.0342909 -0.0251835 0)
(0.043508 -0.0245808 0)
(0.0492348 -0.0437701 0)
(0.0462681 -0.0499184 0)
(0.0451221 -0.024649 0)
(-0.0221804 0.0867307 0)
(-0.0642115 0.0802622 0)
(-0.0996719 0.0663514 0)
(-0.120456 0.0469961 0)
(-0.131579 0.0284293 0)
(-0.141119 0.0171337 0)
(-0.152635 0.0017388 0)
(-0.162151 -0.0156362 0)
(-0.16465 -0.0274822 0)
(-0.153589 -0.0322077 0)
(-0.131691 -0.0392316 0)
(-0.107165 -0.0525944 0)
(-0.0841701 -0.0647545 0)
(-0.0606068 -0.0704781 0)
(-0.0352662 -0.0699837 0)
(-0.0080684 -0.0644438 0)
(0.0208156 -0.0567447 0)
(0.0458587 -0.053357 0)
(0.0687631 -0.0466051 0)
(0.0880711 -0.0388087 0)
(0.098293 -0.0418323 0)
(0.0915951 -0.0439122 0)
(0.0795527 -0.0271523 0)
(-0.0350853 0.163496 0)
(-0.112327 0.152385 0)
(-0.219022 0.119161 0)
(-0.321519 0.0781893 0)
(-0.358739 0.0523419 0)
(-0.340476 0.037456 0)
(-0.319609 0.0161724 0)
(-0.28946 -0.00533651 0)
(-0.249326 -0.0239584 0)
(-0.205522 -0.037725 0)
(-0.15884 -0.0469486 0)
(-0.119002 -0.0574698 0)
(-0.0862033 -0.0684754 0)
(-0.0559697 -0.0778437 0)
(-0.0270269 -0.0832028 0)
(0.00452478 -0.0852843 0)
(0.037346 -0.0781672 0)
(0.0675162 -0.0721349 0)
(0.0924204 -0.0631963 0)
(0.116699 -0.0532429 0)
(0.13308 -0.0450829 0)
(0.130554 -0.0382605 0)
(0.116241 -0.0253019 0)
(-0.00611744 0.271013 0)
(-0.0116409 0.271276 0)
(-0.0352853 0.253121 0)
(-0.0635674 0.236984 0)
(-0.156146 0.125135 0)
(-0.218932 0.00875473 0)
(-0.473952 -0.0430665 0)
(-0.524455 -0.0947618 0)
(-0.467662 -0.118925 0)
(-0.392671 -0.123979 0)
(-0.310047 -0.122552 0)
(-0.232838 -0.119973 0)
(-0.16418 -0.122534 0)
(-0.106034 -0.125743 0)
(-0.0584939 -0.125467 0)
(-0.0165493 -0.124037 0)
(0.0337224 -0.116479 0)
(0.0762445 -0.103702 0)
(0.113929 -0.0909472 0)
(0.164049 -0.0811038 0)
(0.184172 -0.049075 0)
(0.11812 -0.0141939 0)
(0.08532 0.00132804 0)
(0.0136348 0.207413 0)
(0.0428145 0.218431 0)
(0.0595941 0.233049 0)
(0.0756468 0.264499 0)
(0.0886732 0.176502 0)
(0.185786 0.168005 0)
(0.146759 0.191456 0)
(0.129657 0.0490697 0)
(0.13569 -0.124665 0)
(0.0844626 -0.205384 0)
(0.0489057 -0.224221 0)
(-0.0419124 -0.214912 0)
(-0.0670358 -0.218944 0)
(-0.0780319 -0.203512 0)
(-0.080712 -0.19605 0)
(-0.070398 -0.209987 0)
(-0.0186726 -0.189825 0)
(0.00857621 -0.160272 0)
(0.0297482 -0.149333 0)
(0.0178864 -0.12795 0)
(0.0307495 -0.00393777 0)
(0.0982429 0.0583846 0)
(0.15964 -0.0125733 0)
(0.0148988 0.180526 0)
(0.046274 0.182018 0)
(0.0795847 0.184036 0)
(0.132465 0.155008 0)
(0.176139 0.118663 0)
(0.206042 0.101231 0)
(0.225573 0.0908584 0)
(0.245088 0.0115322 0)
(0.248671 -0.0729306 0)
(0.218791 -0.0959101 0)
(0.190523 -0.0834905 0)
(0.175398 -0.0704953 0)
(0.159595 -0.105546 0)
(0.14447 -0.145305 0)
(0.130708 -0.155129 0)
(0.0963069 -0.180352 0)
(0.065935 -0.169386 0)
(0.0480768 -0.165852 0)
(0.0404767 -0.13259 0)
(0.0582859 -0.11187 0)
(0.100314 -0.0942197 0)
(0.165486 -0.0905395 0)
(0.226422 -0.0916188 0)
(0.0144701 0.146544 0)
(0.0467315 0.144529 0)
(0.0842899 0.146493 0)
(0.124015 0.138991 0)
(0.1514 0.101798 0)
(0.169938 0.0675424 0)
(0.191945 0.046655 0)
(0.211663 -0.00217318 0)
(0.208336 -0.055899 0)
(0.184399 -0.0958678 0)
(0.162254 -0.116473 0)
(0.155462 -0.123112 0)
(0.152875 -0.122375 0)
(0.139893 -0.124808 0)
(0.121545 -0.131297 0)
(0.106544 -0.146902 0)
(0.0926945 -0.146656 0)
(0.0760075 -0.136825 0)
(0.060644 -0.129458 0)
(0.0646555 -0.135098 0)
(0.0957813 -0.138945 0)
(0.143647 -0.134097 0)
(0.192142 -0.119295 0)
(0.0123917 0.116447 0)
(0.0391498 0.111022 0)
(0.067229 0.107243 0)
(0.0962193 0.0955321 0)
(0.118945 0.0745995 0)
(0.134497 0.051602 0)
(0.149435 0.0293194 0)
(0.160237 -0.00298194 0)
(0.158499 -0.039213 0)
(0.145566 -0.0715779 0)
(0.128777 -0.0918804 0)
(0.114709 -0.0990259 0)
(0.102912 -0.104798 0)
(0.0877137 -0.11808 0)
(0.0724677 -0.132834 0)
(0.0606952 -0.137364 0)
(0.0468363 -0.134575 0)
(0.027638 -0.126208 0)
(0.0120959 -0.128574 0)
(0.0148582 -0.154818 0)
(0.0368911 -0.178964 0)
(0.068147 -0.181005 0)
(0.0951688 -0.156969 0)
(0.0102574 0.0936428 0)
(0.0317498 0.0875937 0)
(0.0528217 0.0841458 0)
(0.0736976 0.075475 0)
(0.0912124 0.0601464 0)
(0.104272 0.0408657 0)
(0.114693 0.0198283 0)
(0.120777 -0.00581295 0)
(0.120299 -0.0329932 0)
(0.113044 -0.0586149 0)
(0.0994916 -0.0776966 0)
(0.0843381 -0.0874979 0)
(0.0722085 -0.0932268 0)
(0.0603313 -0.103329 0)
(0.0447892 -0.116859 0)
(0.0263731 -0.120949 0)
(0.00502447 -0.116797 0)
(-0.0170165 -0.110023 0)
(-0.0276438 -0.124874 0)
(-0.0267868 -0.166086 0)
(-0.0176155 -0.202716 0)
(-0.00459895 -0.205052 0)
(-0.00135403 -0.170793 0)
(0.0083267 0.0747497 0)
(0.0254036 0.0688538 0)
(0.0416261 0.0660383 0)
(0.0574961 0.0589322 0)
(0.0711666 0.0466963 0)
(0.0818953 0.0307057 0)
(0.0897012 0.0124593 0)
(0.0937103 -0.00826809 0)
(0.0935493 -0.0291165 0)
(0.0881746 -0.0488412 0)
(0.0783305 -0.0644483 0)
(0.0668725 -0.0744879 0)
(0.0567009 -0.0813915 0)
(0.0460832 -0.0894073 0)
(0.0305724 -0.0976786 0)
(0.0109646 -0.0972442 0)
(-0.0107824 -0.0919409 0)
(-0.0278787 -0.0932547 0)
(-0.0375976 -0.117308 0)
(-0.048705 -0.162528 0)
(-0.0570123 -0.2039 0)
(-0.0675642 -0.19876 0)
(-0.0858092 -0.153053 0)
(0.00665676 0.0594756 0)
(0.0201836 0.0538766 0)
(0.0329424 0.0515122 0)
(0.045595 0.0455168 0)
(0.0566633 0.0354482 0)
(0.0655931 0.0222616 0)
(0.0719756 0.00702208 0)
(0.075197 -0.00950511 0)
(0.0750119 -0.0261551 0)
(0.0710091 -0.0416899 0)
(0.0637828 -0.0545137 0)
(0.0548407 -0.0638852 0)
(0.0454979 -0.070755 0)
(0.0351691 -0.0766516 0)
(0.0217153 -0.0805883 0)
(0.00615601 -0.078253 0)
(-0.00876109 -0.0746418 0)
(-0.0205577 -0.0800966 0)
(-0.0361071 -0.102208 0)
(-0.0586902 -0.14492 0)
(-0.0839435 -0.185088 0)
(-0.116723 -0.17197 0)
(-0.146357 -0.119693 0)
(0.00519473 0.0473223 0)
(0.0158254 0.0420359 0)
(0.0258485 0.0398876 0)
(0.036036 0.0346566 0)
(0.0451119 0.0261624 0)
(0.0525962 0.015154 0)
(0.0579354 0.00255057 0)
(0.0607892 -0.0108339 0)
(0.0608162 -0.0241542 0)
(0.0579524 -0.036517 0)
(0.0526354 -0.0469783 0)
(0.0456852 -0.0550853 0)
(0.0377722 -0.061065 0)
(0.0288216 -0.0653132 0)
(0.018408 -0.0671834 0)
(0.00777787 -0.0651344 0)
(-0.00141254 -0.0622503 0)
(-0.011428 -0.0657433 0)
(-0.0277183 -0.0806886 0)
(-0.052753 -0.115723 0)
(-0.0910109 -0.150174 0)
(-0.136575 -0.136565 0)
(-0.163389 -0.0998024 0)
(0.00393693 0.0378882 0)
(0.0120993 0.0328675 0)
(0.0197404 0.0306896 0)
(0.027829 0.0259002 0)
(0.0351526 0.0185231 0)
(0.0413852 0.00920875 0)
(0.0459401 -0.0012614 0)
(0.0485433 -0.0121936 0)
(0.0488945 -0.0229327 0)
(0.047013 -0.032848 0)
(0.0431824 -0.0413668 0)
(0.0378974 -0.0481731 0)
(0.0316055 -0.0532358 0)
(0.0245006 -0.0565758 0)
(0.0168076 -0.0578668 0)
(0.00939259 -0.0566541 0)
(0.0030575 -0.054184 0)
(-0.00372116 -0.0535197 0)
(-0.0151855 -0.0603002 0)
(-0.0369935 -0.083402 0)
(-0.0768608 -0.107247 0)
(-0.12269 -0.0994793 0)
(-0.150144 -0.086414 0)
(0.00280998 0.0308505 0)
(0.00882359 0.0259919 0)
(0.0143835 0.0236036 0)
(0.0206356 0.0189859 0)
(0.0264601 0.0123128 0)
(0.0315719 0.00422645 0)
(0.0355042 -0.00463113 0)
(0.037934 -0.0136594 0)
(0.038614 -0.0223674 0)
(0.0375338 -0.030352 0)
(0.0348619 -0.0372736 0)
(0.03092 -0.0429089 0)
(0.0260588 -0.0471749 0)
(0.0205614 -0.0499943 0)
(0.0147773 -0.0511999 0)
(0.00927104 -0.0506766 0)
(0.0044595 -0.0488526 0)
(-8.38589e-05 -0.0465288 0)
(-0.00627009 -0.0465653 0)
(-0.0199767 -0.0563372 0)
(-0.0499956 -0.0689035 0)
(-0.0849047 -0.0644085 0)
(-0.115006 -0.0649077 0)
(0.00181538 0.0258708 0)
(0.00597232 0.0211386 0)
(0.00975872 0.0183808 0)
(0.0144348 0.013671 0)
(0.0189534 0.00735503 0)
(0.0231499 3.51857e-05 0)
(0.0265956 -0.00764578 0)
(0.0289029 -0.0152192 0)
(0.0298582 -0.0223369 0)
(0.0293951 -0.0287653 0)
(0.027608 -0.0343419 0)
(0.0247067 -0.0389452 0)
(0.0209687 -0.0425016 0)
(0.0166819 -0.0449366 0)
(0.0121852 -0.0461544 0)
(0.00788552 -0.0461038 0)
(0.00406477 -0.0448888 0)
(0.000626704 -0.0425878 0)
(-0.00285518 -0.0399005 0)
(-0.00894173 -0.0404369 0)
(-0.0246979 -0.0426731 0)
(-0.0450706 -0.0374786 0)
(-0.0635822 -0.0349461 0)
(0.00097222 0.0227344 0)
(0.00352854 0.018051 0)
(0.00577332 0.0147392 0)
(0.00914226 0.00969296 0)
(0.0126105 0.00338044 0)
(0.0160824 -0.00349691 0)
(0.0191161 -0.0103886 0)
(0.0213481 -0.0168666 0)
(0.0225253 -0.0227192 0)
(0.0225332 -0.0278655 0)
(0.0213987 -0.0322797 0)
(0.0192701 -0.0359571 0)
(0.0163703 -0.038854 0)
(0.0129449 -0.0409403 0)
(0.00929879 -0.0421368 0)
(0.00575 -0.0423952 0)
(0.00252925 -0.0416678 0)
(-0.000244311 -0.0397549 0)
(-0.00246074 -0.0366439 0)
(-0.00517188 -0.0336762 0)
(-0.0112138 -0.0300824 0)
(-0.0205595 -0.0239763 0)
(-0.0283784 -0.0174004 0)
(0.000239603 0.0211695 0)
(0.00140924 0.0163679 0)
(0.00237864 0.0123918 0)
(0.00465788 0.00680123 0)
(0.00728487 0.0002189 0)
(0.0102098 -0.0065518 0)
(0.012918 -0.0129358 0)
(0.0150933 -0.0185879 0)
(0.0164354 -0.023408 0)
(0.0167924 -0.0274621 0)
(0.0161359 -0.0308514 0)
(0.0145728 -0.0336707 0)
(0.012272 -0.0359472 0)
(0.00944651 -0.0376585 0)
(0.00636118 -0.0387585 0)
(0.00325627 -0.039191 0)
(0.000354131 -0.0388446 0)
(-0.00208545 -0.0374749 0)
(-0.00382365 -0.0348047 0)
(-0.0051608 -0.0310298 0)
(-0.00687146 -0.0260305 0)
(-0.00879304 -0.0191687 0)
(-0.0101702 -0.012864 0)
(-0.000453772 0.0209195 0)
(-0.000423327 0.0159622 0)
(-0.000460822 0.0111427 0)
(0.000887676 0.00475409 0)
(0.00283778 -0.00229092 0)
(0.00531026 -0.00921448 0)
(0.00777931 -0.0153265 0)
(0.00990385 -0.0203659 0)
(0.0113714 -0.0243312 0)
(0.0119947 -0.0274262 0)
(0.0117001 -0.0298851 0)
(0.0105407 -0.0318934 0)
(0.00867629 -0.0335643 0)
(0.00628031 -0.034866 0)
(0.00356212 -0.0357916 0)
(0.000731714 -0.0362712 0)
(-0.00199488 -0.0362034 0)
(-0.00440009 -0.035377 0)
(-0.00619233 -0.0334581 0)
(-0.00709843 -0.0302098 0)
(-0.00720363 -0.0257178 0)
(-0.0064145 -0.0198529 0)
(-0.00435653 -0.0129477 0)
(-0.0010228 0.021792 0)
(-0.00199759 0.0166372 0)
(-0.0029537 0.010775 0)
(-0.00231753 0.0034448 0)
(-0.000868641 -0.00429171 0)
(0.00122097 -0.0115349 0)
(0.00347636 -0.0175864 0)
(0.00553803 -0.0221809 0)
(0.00710171 -0.0254409 0)
(0.00794338 -0.0276743 0)
(0.00795078 -0.0292733 0)
(0.00711511 -0.0305098 0)
(0.00558389 -0.0315472 0)
(0.00350423 -0.0324243 0)
(0.00104891 -0.0331062 0)
(-0.00156907 -0.0335322 0)
(-0.0041934 -0.0336195 0)
(-0.00664154 -0.0332014 0)
(-0.00864834 -0.0320127 0)
(-0.00982431 -0.0297815 0)
(-0.00984285 -0.0264002 0)
(-0.00871079 -0.0219916 0)
(-0.00619354 -0.0163641 0)
(-0.00153199 0.0236437 0)
(-0.00336837 0.0181755 0)
(-0.00506097 0.0111587 0)
(-0.00504278 0.00275031 0)
(-0.00403653 -0.00587383 0)
(-0.00227634 -0.0135717 0)
(-0.000232834 -0.0196813 0)
(0.00175985 -0.0240093 0)
(0.00339276 -0.0267099 0)
(0.00442478 -0.02818 0)
(0.0046994 -0.0289701 0)
(0.00418643 -0.0294471 0)
(0.0029548 -0.0298366 0)
(0.00113523 -0.0302503 0)
(-0.00109055 -0.0306368 0)
(-0.0035424 -0.0309396 0)
(-0.00607719 -0.0310704 0)
(-0.00854555 -0.0309025 0)
(-0.0107409 -0.0302532 0)
(-0.0123387 -0.02892 0)
(-0.0130116 -0.026762 0)
(-0.0125938 -0.0237305 0)
(-0.0108658 -0.019739 0)
(-0.00197489 0.0263666 0)
(-0.0045811 0.0204942 0)
(-0.00693504 0.0121735 0)
(-0.00742747 0.00250341 0)
(-0.00678523 -0.00710457 0)
(-0.00533147 -0.0153442 0)
(-0.00353966 -0.0216126 0)
(-0.00166437 -0.0258133 0)
(2.36001e-05 -0.0280911 0)
(0.00123112 -0.0289427 0)
(0.00177307 -0.0289793 0)
(0.0015958 -0.0286987 0)
(0.000685566 -0.0284277 0)
(-0.000857271 -0.0283175 0)
(-0.00286304 -0.0283601 0)
(-0.00516119 -0.0284803 0)
(-0.00759896 -0.0285764 0)
(-0.0100447 -0.0285355 0)
(-0.0123417 -0.0282225 0)
(-0.0142516 -0.0275 0)
(-0.0155475 -0.0262636 0)
(-0.0160912 -0.0244017 0)
(-0.015545 -0.0217168 0)
(-0.00238922 0.0298723 0)
(-0.00571435 0.0234737 0)
(-0.00865815 0.0137487 0)
(-0.00957599 0.00266954 0)
(-0.00924613 -0.00802242 0)
(-0.00810614 -0.016818 0)
(-0.00658794 -0.0233538 0)
(-0.00484088 -0.0275638 0)
(-0.00315723 -0.0295666 0)
(-0.00181151 -0.029928 0)
(-0.000990256 -0.0293107 0)
(-0.0008146 -0.0283088 0)
(-0.00135131 -0.0273455 0)
(-0.00256564 -0.0266523 0)
(-0.00432438 -0.0262819 0)
(-0.0064509 -0.0261584 0)
(-0.00877868 -0.0261603 0)
(-0.011173 -0.026165 0)
(-0.0134968 -0.0260525 0)
(-0.0155676 -0.0257149 0)
(-0.0172515 -0.0250789 0)
(-0.0184806 -0.0240421 0)
(-0.0188476 -0.022349 0)
(-0.0028009 0.034122 0)
(-0.0067989 0.027119 0)
(-0.0102998 0.0158478 0)
(-0.0115931 0.00318484 0)
(-0.0115143 -0.00866906 0)
(-0.010705 -0.0179467 0)
(-0.00945487 -0.0248854 0)
(-0.00782629 -0.0292483 0)
(-0.00617188 -0.031111 0)
(-0.00473801 -0.0310985 0)
(-0.00368704 -0.0299557 0)
(-0.0031592 -0.0283072 0)
(-0.00328042 -0.026645 0)
(-0.00410112 -0.0253096 0)
(-0.00554912 -0.0244409 0)
(-0.00745939 -0.0239956 0)
(-0.00964917 -0.0238379 0)
(-0.011967 -0.0238219 0)
(-0.0142769 -0.0238194 0)
(-0.0164217 -0.0237305 0)
(-0.0183067 -0.0235017 0)
(-0.0198907 -0.0230493 0)
(-0.0207486 -0.0221257 0)
(-0.00319022 0.0390974 0)
(-0.00785997 0.0313913 0)
(-0.0118817 0.0184022 0)
(-0.0134454 0.00393861 0)
(-0.0136705 -0.00901538 0)
(-0.0132116 -0.0187399 0)
(-0.0121182 -0.0262674 0)
(-0.0105526 -0.0308712 0)
(-0.00894694 -0.0326695 0)
(-0.00749332 -0.0324049 0)
(-0.00629687 -0.0308737 0)
(-0.00547408 -0.0286931 0)
(-0.00518103 -0.026377 0)
(-0.00555414 -0.0243589 0)
(-0.00661505 -0.022901 0)
(-0.00824394 -0.0220373 0)
(-0.0102514 -0.0216402 0)
(-0.0124619 -0.0215364 0)
(-0.0147259 -0.021577 0)
(-0.0168948 -0.0216566 0)
(-0.0188841 -0.0217254 0)
(-0.0206463 -0.0217205 0)
(-0.0217626 -0.0214276 0)
(-0.00354478 0.0447394 0)
(-0.00881054 0.0362048 0)
(-0.0131973 0.021292 0)
(-0.0150297 0.00494465 0)
(-0.015752 -0.00892663 0)
(-0.0155684 -0.0193587 0)
(-0.0144259 -0.0276218 0)
(-0.0128585 -0.0324589 0)
(-0.0113227 -0.0341974 0)
(-0.0099296 -0.0337556 0)
(-0.00870394 -0.0319686 0)
(-0.0077014 -0.0294073 0)
(-0.00706217 -0.0265446 0)
(-0.00698 -0.0238564 0)
(-0.00758836 -0.0217352 0)
(-0.00885897 -0.0203452 0)
(-0.0106238 -0.0196105 0)
(-0.0126843 -0.0193412 0)
(-0.0148711 -0.0193591 0)
(-0.0170305 -0.0195449 0)
(-0.0190696 -0.0198438 0)
(-0.020937 -0.0202095 0)
(-0.022226 -0.0204579 0)
(-0.00378567 0.0509241 0)
(-0.00950327 0.0414334 0)
(-0.0141062 0.0243909 0)
(-0.016269 0.00644283 0)
(-0.0175433 -0.00835112 0)
(-0.0174461 -0.0200381 0)
(-0.016116 -0.0290549 0)
(-0.0145299 -0.0340196 0)
(-0.0131035 -0.0356357 0)
(-0.0118576 -0.0350412 0)
(-0.0107339 -0.0331034 0)
(-0.0097071 -0.0303247 0)
(-0.00885844 -0.0270819 0)
(-0.00838547 -0.0238162 0)
(-0.00851587 -0.0210092 0)
(-0.0093537 -0.0189921 0)
(-0.0108036 -0.0178069 0)
(-0.0126616 -0.0172817 0)
(-0.01473 -0.0172055 0)
(-0.0168407 -0.0174324 0)
(-0.0188938 -0.0178985 0)
(-0.0208281 -0.0185713 0)
(-0.0222485 -0.0192843 0)
(-0.00375901 0.0575487 0)
(-0.00973524 0.0470522 0)
(-0.0145739 0.0277006 0)
(-0.0171288 0.00842269 0)
(-0.0186978 -0.00750447 0)
(-0.0184288 -0.0209064 0)
(-0.0169227 -0.03059 0)
(-0.0153664 -0.0355189 0)
(-0.0141136 -0.0369121 0)
(-0.0131036 -0.036148 0)
(-0.0122082 -0.0341258 0)
(-0.0113222 -0.0312767 0)
(-0.0104445 -0.0278519 0)
(-0.00972127 -0.0241839 0)
(-0.00941652 -0.0207557 0)
(-0.00977157 -0.0180504 0)
(-0.0108274 -0.016297 0)
(-0.0124175 -0.015409 0)
(-0.0143185 -0.0151562 0)
(-0.016339 -0.0153561 0)
(-0.0183671 -0.015928 0)
(-0.0203342 -0.016839 0)
(-0.0218505 -0.0179345 0)
(-0.00347984 0.0639292 0)
(-0.00941288 0.0528423 0)
(-0.014477 0.0313001 0)
(-0.0173753 0.0106829 0)
(-0.0188959 -0.00674296 0)
(-0.0182689 -0.0219755 0)
(-0.0166737 -0.03218 0)
(-0.0152326 -0.036889 0)
(-0.0142368 -0.0379454 0)
(-0.0135492 -0.0369693 0)
(-0.0129898 -0.0348926 0)
(-0.0123911 -0.0320846 0)
(-0.0116703 -0.02867 0)
(-0.0108887 -0.024829 0)
(-0.0102736 -0.0209475 0)
(-0.0101509 -0.0175751 0)
(-0.0107386 -0.0151562 0)
(-0.0119834 -0.0137831 0)
(-0.013659 -0.0132578 0)
(-0.0155432 -0.0133577 0)
(-0.0175043 -0.0139714 0)
(-0.0194607 -0.0150553 0)
(-0.0210406 -0.016457 0)
(-0.0030222 0.0698629 0)
(-0.00862976 0.0584734 0)
(-0.0137021 0.0351289 0)
(-0.0167343 0.0130328 0)
(-0.0179666 -0.00628214 0)
(-0.016896 -0.023252 0)
(-0.0153021 -0.0337469 0)
(-0.0140798 -0.0380389 0)
(-0.0134404 -0.0386472 0)
(-0.013155 -0.0374122 0)
(-0.0130105 -0.0352871 0)
(-0.0128059 -0.0325908 0)
(-0.0123981 -0.0293417 0)
(-0.0117589 -0.0255647 0)
(-0.0110252 -0.0214815 0)
(-0.0105142 -0.017581 0)
(-0.0105929 -0.0144631 0)
(-0.0114042 -0.0124808 0)
(-0.0127859 -0.0115709 0)
(-0.0144853 -0.0114869 0)
(-0.0163349 -0.0120706 0)
(-0.0182378 -0.0132566 0)
(-0.0198344 -0.0148913 0)
(-0.00238953 0.0750934 0)
(-0.00739744 0.0637855 0)
(-0.0120811 0.0389857 0)
(-0.0150201 0.0152792 0)
(-0.0158188 -0.00620891 0)
(-0.0142649 -0.0247264 0)
(-0.0128272 -0.035168 0)
(-0.0119677 -0.0388452 0)
(-0.0117983 -0.0389204 0)
(-0.0119812 -0.0374041 0)
(-0.0122918 -0.035235 0)
(-0.0125305 -0.0326861 0)
(-0.0125324 -0.0297028 0)
(-0.0122008 -0.0261856 0)
(-0.0115644 -0.0221793 0)
(-0.0108449 -0.0180051 0)
(-0.0104526 -0.0142705 0)
(-0.0107512 -0.0115862 0)
(-0.011751 -0.0101609 0)
(-0.0132033 -0.00979587 0)
(-0.0148927 -0.0102745 0)
(-0.0166961 -0.0114928 0)
(-0.0182749 -0.0132912 0)
(-0.00157879 0.0792747 0)
(-0.00574646 0.0684615 0)
(-0.00978097 0.0423887 0)
(-0.0122885 0.0171767 0)
(-0.0124005 -0.00657339 0)
(-0.0104475 -0.0262813 0)
(-0.00941642 -0.0362415 0)
(-0.00910677 -0.0391495 0)
(-0.0095134 -0.0386715 0)
(-0.0101974 -0.0369055 0)
(-0.0109525 -0.0347179 0)
(-0.0116146 -0.0323309 0)
(-0.0120438 -0.0296542 0)
(-0.0121112 -0.026516 0)
(-0.0117562 -0.0228215 0)