/*--------------------------------*- C++ -*----------------------------------*\
| =========                 |                                                 |
| \\      /  F ield         | OpenFOAM: The Open Source CFD Toolbox           |
|  \\    /   O peration     | Version:  2312                                  |
|   \\  /    A nd           | Website:  www.openfoam.com                      |
|    \\/     M anipulation  |                                                 |
\*---------------------------------------------------------------------------*/
FoamFile
{
    version     2.0;
    format      ascii;
    arch        "LSB;label=32;scalar=64";
    class       volScalarField;
    location    "4.85";
    object      alpha.water_0;
}
// * * * * * * * * * * * * * * * * * * * * * * * * * * * * * * * * * * * * * //

dimensions      [0 0 0 0 0 0 0];

internalField   nonuniform List<scalar> 
2268
(
3.25288e-07
3.26568e-07
2.84007e-07
9.13414e-08
1.34124e-08
2.2862e-09
1.16814e-09
7.43148e-10
3.89122e-10
1.9609e-10
1.24834e-10
9.85306e-11
8.28335e-11
7.42674e-11
7.32163e-11
8.04278e-11
9.90989e-11
1.32473e-10
1.84418e-10
2.87314e-10
6.48121e-10
1.24074e-09
1.41977e-09
2.04678e-07
1.51619e-07
6.5474e-08
2.69364e-08
1.52263e-09
5.00944e-10
4.84587e-10
4.41513e-10
3.73604e-10
3.1251e-10
2.81983e-10
2.3957e-10
2.00116e-10
1.78511e-10
1.49572e-10
1.2388e-10
1.4249e-10
1.98632e-10
3.22551e-10
4.91987e-10
8.89588e-10
1.42445e-09
1.44808e-09
2.89893e-08
2.32419e-08
1.28012e-08
2.64902e-09
4.1889e-09
8.90494e-09
8.91721e-09
7.93096e-09
2.11014e-09
7.93638e-10
7.26394e-10
6.5048e-10
7.6963e-10
9.11108e-10
8.1382e-10
5.16598e-10
3.46112e-10
4.57386e-10
6.9496e-10
8.11337e-10
1.09547e-09
1.24059e-09
1.11529e-09
4.62131e-10
4.76919e-10
3.90665e-10
3.30083e-10
3.50516e-10
4.04917e-10
4.31283e-10
6.22947e-10
4.54853e-10
3.71022e-10
3.81457e-10
4.98007e-10
1.25288e-09
3.0421e-09
3.7588e-09
3.68686e-09
2.28792e-09
8.75968e-10
5.79972e-10
6.86527e-10
7.73976e-10
7.34182e-10
6.5281e-10
0.0619639
0.057239
0.0482521
0.0362681
0.021999
0.00725338
3.93112e-17
1.24893e-21
1.25954e-21
1.13532e-22
-3.95154e-14
2.57332e-30
5.79581e-29
1.53935e-27
1.03713e-25
1.15483e-10
6.23406e-11
4.73262e-11
1.65899e-10
1.82858e-10
1.87725e-10
2.11292e-10
2.09994e-09
0.778125
0.767261
0.743538
0.708333
0.663972
0.614411
0.553853
0.480804
0.406485
0.330152
0.252403
0.175695
0.109135
0.0438039
0.00128686
-3.76795e-11
-1.52109e-10
-1.02946e-14
-4.70789e-15
-1.32995e-15
-3.46979e-15
-1.12994e-13
-1.02543e-19
0.999235
0.999086
0.998311
0.996758
0.99641
0.996764
0.997246
0.994783
0.987022
0.971604
0.944919
0.895597
0.821016
0.72484
0.596199
0.443633
0.334144
0.223728
0.104401
0.0550924
0.0388648
0.0388143
0.0632917
0.999744
0.999744
0.999744
0.999745
0.999745
0.999744
0.999725
0.999733
0.999742
0.999742
0.999725
0.999711
0.999742
0.999742
0.999424
0.985869
0.899741
0.787669
0.740207
0.675171
0.623612
0.615539
0.684624
0.0151223
0.00859606
0.00426626
0.0038604
0.00736875
0.00965415
0.0107676
0.0107382
0.0100759
0.010075
0.0100536
0.00709883
0.00572369
0.00414472
0.00420456
0.00416089
0.00351613
0.00420285
0.00431771
0.0158334
0.00115963
0.00115341
0.0011695
0.001169
0.00120236
0.00125474
0.00125634
0.00157043
0.00202403
0.00168648
0.000741474
0.00021597
6.00288e-05
5.02948e-05
5.73049e-05
4.916e-05
6.16569e-05
0.00180513
0.115828
0.117234
0.101364
0.093317
0.0686049
0.0261464
0.00357564
0.00388755
0.00257549
0.00118735
0.000194545
0.000140643
0.000140287
0.0162332
0.0463186
0.105416
0.254781
0.360495
0.344592
0.689417
0.765443
0.711859
0.709001
0.707288
0.667335
0.607255
0.522276
0.452477
0.439966
0.401817
0.282441
0.227295
0.246947
0.325939
0.624886
0.884828
0.902768
0.655511
0.784284
0.988729
0.975265
0.97798
0.983528
0.951003
0.937994
0.961935
0.975177
0.975183
0.975176
0.967299
0.941239
0.536281
0.472008
0.905053
0.904977
0.900801
0.729831
0.934989
0.990973
0.990978
0.990518
0.990453
0.96996
0.948382
0.973764
0.975183
0.975175
0.941023
0.974701
0.974746
0.618178
0.471976
0.811424
0.85845
0.871018
0.837193
0.959519
0.990126
0.990979
0.953771
0.940553
0.966454
0.965164
0.971174
0.975176
0.924069
0.879797
0.922888
0.974714
0.720627
0.479209
0.549732
0.872458
0.864384
0.909319
0.990971
0.990974
0.990983
0.936318
0.909112
0.921945
0.946657
0.975165
0.975176
0.795073
0.798527
0.876665
0.974709
0.940722
0.523352
0.809712
0.915963
0.864395
0.908739
0.988409
0.99922
0.999712
0.999744
0.999743
0.999744
0.999713
0.999729
0.999742
0.999742
0.999742
0.999742
0.999742
0.999742
0.999742
0.994561
0.969592
0.979846
0.994784
0.989055
0.952828
0.95569
0.961763
0.92256
0.939609
0.953819
0.961349
0.978298
0.977894
0.981255
0.990006
0.996851
0.999742
0.999742
0.999742
0.999742
0.999742
0.999742
0.998436
0.997025
0.997051
0.997008
0.996638
0.992543
0.984871
0.975987
0.251664
0.252475
0.261403
0.303509
0.425619
0.58748
0.762777
0.797379
0.850138
0.929759
0.958982
0.969233
0.991006
0.992315
0.968014
0.94716
0.940426
0.901799
0.852772
0.805091
0.730531
0.610853
0.45406
2.79836e-10
2.79839e-10
2.79846e-10
3.3603e-08
0.00427158
0.0817672
0.222793
0.254639
0.251824
0.3153
0.437556
0.512716
0.498897
0.508924
0.521972
0.469363
0.296089
0.148895
0.0956816
0.0681555
0.0244556
-5.63697e-07
-1.24873e-08
5.30956e-08
2.79836e-10
0.000244618
0.000470836
5.79574e-08
2.62963e-26
-2.1783e-20
-3.36382e-22
-2.70026e-20
2.73806e-19
0.00103716
0.00554704
0.00399735
0.00575189
0.00642515
0.00272448
5.60414e-12
3.4938e-12
-1.3093e-05
-2.57619e-06
9.46461e-07
3.50007e-05
7.77056e-05
1.79298e-08
1.51114e-08
5.09125e-18
3.55897e-06
1.03934e-08
3.59487e-13
-1.70725e-16
-4.83686e-16
-9.69022e-19
1.21984e-15
2.27746e-06
2.66278e-06
4.08276e-06
9.16959e-06
0.000121958
0.000241795
0.000662915
0.0098257
0.0163796
0.0132601
0.00680988
0.000420912
4.12266e-05
-2.59456e-11
-1.16518e-11
2.6077e-20
9.52258e-09
3.11902e-23
8.98926e-23
9.78058e-06
7.37431e-05
0.000169564
0.000188297
0.000184564
0.000227714
0.000216475
0.000343595
0.00013611
0.00112702
0.0140059
0.0187178
0.0187178
0.0187177
0.0155584
0.0014959
4.22173e-05
1.62446e-05
0.000100251
0.000144789
2.29626e-05
4.82941e-05
3.64748e-05
0.000104445
0.00026211
0.000353453
0.00107806
0.00849094
0.013493
0.0127531
0.00242443
0.000138332
0.00128662
0.0149077
0.0187178
0.0181472
0.00314212
0.000603856
0.000812987
0.000312622
5.64889e-05
0.000413075
0.000470146
0.00197601
0.00224732
0.00033803
0.000105607
0.000145287
0.00130826
0.0139062
0.0167959
0.0167935
0.0150174
0.00661958
0.00202193
0.000792498
0.000953168
0.00234655
0.00082321
5.62084e-08
8.58949e-09
8.45571e-09
7.68267e-05
0.000140811
0.000343876
0.000994734
0.00644106
0.00693211
0.00584687
0.00128937
0.000345121
0.00024481
0.0040088
0.0167621
0.0167964
0.0163081
0.00365831
0.00116732
0.000332903
-2.02824e-21
-4.87889e-09
8.51137e-08
9.43856e-07
1.02773e-07
-6.60992e-24
-1.34997e-09
0.000406273
0.000387735
0.000516534
0.00288173
0.00676202
0.00727399
0.00727742
0.00727399
0.00727687
0.00519176
0.00647159
0.0103102
0.00748337
0.000715821
2.47186e-06
2.40457e-06
9.89281e-10
5.5447e-06
1.43472e-05
6.93711e-06
3.90326e-07
4.37438e-06
1.24766e-05
0.000308631
0.000261814
6.46695e-05
-1.74017e-10
-1.50332e-09
0.00100302
0.00430112
0.00721439
0.00727483
0.00728083
0.00571126
0.00119617
4.5927e-06
3.63145e-21
1.87671e-21
1.10929e-08
2.66174e-06
1.45954e-05
1.96691e-05
1.62668e-05
3.64385e-06
1.73374e-05
1.98134e-05
6.71429e-08
6.97683e-08
9.81907e-08
1.13897e-08
1.13878e-08
1.89668e-06
5.41203e-06
0.000322751
0.00103272
0.00104071
0.000225612
-1.79837e-12
-1.20241e-16
-1.73931e-21
9.57395e-09
3.71015e-06
1.52284e-05
1.93734e-05
1.9834e-05
1.00059e-05
1.14026e-05
1.98949e-05
1.98948e-05
1.91044e-07
1.16555e-07
6.94059e-08
1.05328e-08
1.17198e-07
7.24065e-07
2.91112e-06
2.63861e-06
2.58894e-06
1.17268e-06
7.88207e-07
2.95548e-12
1.15014e-22
1.2719e-06
3.62416e-06
4.11912e-06
8.6329e-06
1.96275e-05
1.83445e-05
1.95411e-06
1.11469e-07
1.11385e-05
1.98947e-05
6.83279e-07
3.70769e-07
1.78382e-07
3.78269e-08
1.80817e-07
5.16969e-07
1.05489e-06
1.45798e-06
1.61172e-06
9.12391e-07
2.75127e-07
3.57655e-07
2.04118e-06
2.06285e-06
2.09421e-06
5.48777e-07
6.22237e-07
5.51672e-06
3.05525e-06
3.96539e-07
1.42922e-08
6.20915e-08
1.88252e-06
7.57948e-07
3.81343e-07
9.81405e-08
7.17945e-08
7.12442e-08
2.57785e-07
3.21604e-07
6.02092e-07
1.61284e-06
1.84577e-06
1.83164e-06
1.8366e-06
1.30134e-06
1.08193e-06
6.38219e-08
1.41106e-08
8.16649e-08
9.87622e-09
4.51396e-09
8.02156e-09
1.76151e-09
2.59995e-08
1.89016e-07
4.76045e-07
1.72348e-07
7.47011e-08
7.47871e-08
3.52858e-08
2.27913e-08
5.58979e-08
3.34179e-07
1.60856e-06
1.83987e-06
1.66713e-06
8.58246e-07
1.37363e-07
1.4122e-08
1.4587e-08
1.37905e-08
2.05869e-08
1.11715e-08
4.3658e-09
1.70723e-09
8.94294e-10
1.16581e-07
4.76804e-07
1.13049e-07
4.76228e-08
3.5794e-08
4.58315e-08
3.66438e-08
1.99786e-08
4.26218e-08
1.42376e-07
2.62493e-07
3.80007e-07
1.86495e-07
5.18091e-08
8.47852e-09
6.00428e-09
7.96172e-09
7.27113e-09
6.98254e-09
4.09669e-09
2.10556e-09
8.97762e-10
8.30728e-10
1.51963e-07
5.13702e-07
1.91219e-08
1.23352e-08
1.44468e-08
1.89528e-08
2.06954e-08
1.99291e-08
2.86789e-08
2.83947e-08
1.0397e-08
6.76097e-09
2.97895e-09
1.64002e-09
2.18425e-09
2.59492e-09
2.63249e-09
2.14927e-09
2.03178e-09
1.5081e-09
1.17558e-09
1.00848e-09
8.83362e-10
6.01561e-09
2.7508e-07
1.54982e-08
5.52763e-09
6.76544e-09
9.30507e-09
9.96585e-09
1.06094e-08
1.10425e-08
1.00628e-08
6.25394e-09
2.09531e-09
1.86538e-09
1.64039e-09
1.27924e-09
1.14662e-09
1.04728e-09
9.70077e-10
9.71211e-10
8.64516e-10
8.17532e-10
8.54519e-10
6.99212e-10
6.66047e-09
3.57893e-08
1.61211e-08
3.55556e-09
3.40932e-09
4.69726e-09
4.94454e-09
4.72673e-09
4.16336e-09
3.35631e-09
2.23862e-09
1.30893e-09
1.00491e-09
7.59023e-10
6.06748e-10
5.50858e-10
5.34592e-10
5.16237e-10
4.7815e-10
4.35128e-10
4.35199e-10
5.23133e-10
6.99246e-10
1.22565e-09
5.26853e-09
1.72222e-08
2.53143e-09
1.66735e-09
2.30403e-09
2.2387e-09
1.87953e-09
1.4001e-09
9.89504e-10
6.84091e-10
4.80913e-10
3.63134e-10
2.88572e-10
2.44954e-10
2.27513e-10
2.21863e-10
2.11649e-10
1.97767e-10
1.85376e-10
2.0488e-10
2.71049e-10
3.87308e-10
5.27917e-10
1.50868e-09
1.71871e-08
1.70462e-09
8.27719e-10
1.02189e-09
8.8436e-10
6.79763e-10
4.74282e-10
3.41118e-10
2.43688e-10
1.80373e-10
1.37222e-10
1.10083e-10
9.35427e-11
8.35822e-11
7.83341e-11
7.46856e-11
7.32725e-11
7.55045e-11
8.69937e-11
1.21115e-10
1.95608e-10
2.69786e-10
1.19337e-09
1.6968e-08
1.1783e-09
4.5978e-10
5.18079e-10
4.14682e-10
3.218e-10
2.43385e-10
1.91435e-10
1.49467e-10
1.11878e-10
8.16338e-11
5.95284e-11
4.41288e-11
3.39936e-11
2.83089e-11
2.57886e-11
2.62732e-11
2.92258e-11
3.64858e-11
5.27232e-11
7.56002e-11
1.53216e-10
3.62451e-10
1.68747e-08
7.44044e-10
3.23494e-10
3.27858e-10
2.86235e-10
2.58212e-10
2.35718e-10
2.19983e-10
1.83438e-10
1.34105e-10
8.964e-11
5.73594e-11
3.58513e-11
2.2132e-11
1.44359e-11
1.04988e-11
9.62745e-12
1.11235e-11
1.47548e-11
2.11766e-11
3.47317e-11
4.83825e-11
1.21165e-10
1.66846e-08
4.93578e-10
2.85067e-10
2.96314e-10
3.2559e-10
3.64504e-10
3.6987e-10
3.36361e-10
2.74192e-10
1.9438e-10
1.22906e-10
7.35085e-11
4.22871e-11
2.32954e-11
1.23098e-11
6.7367e-12
4.34022e-12
4.3521e-12
5.88307e-12
8.99946e-12
1.27251e-11
2.56451e-11
3.87632e-11
1.66544e-08
2.87538e-10
2.86735e-10
3.72799e-10
5.3023e-10
6.70401e-10
6.87933e-10
4.98198e-10
4.00825e-10
2.79579e-10
1.67373e-10
9.53867e-11
5.32083e-11
2.84025e-11
1.40744e-11
6.51315e-12
3.01222e-12
1.931e-12
2.32245e-12
3.56469e-12
6.03439e-12
8.66681e-12
1.78427e-11
1.65678e-08
3.08095e-10
3.33729e-10
5.14966e-10
8.09619e-10
1.19733e-09
1.54995e-09
6.92769e-10
5.30808e-10
3.73296e-10
2.11273e-10
1.15429e-10
6.36211e-11
3.41497e-11
1.67281e-11
7.33517e-12
2.97821e-12
1.27231e-12
9.5784e-13
1.41918e-12
2.12507e-12
4.48773e-12
6.5271e-12
1.69602e-08
3.20011e-10
4.31156e-10
4.94311e-10
5.77229e-10
1.76225e-09
4.96956e-09
7.74653e-10
6.1674e-10
4.57037e-10
2.43575e-10
1.26244e-10
6.94389e-11
3.78417e-11
1.89803e-11
8.57655e-12
3.36014e-12
1.22312e-12
4.82025e-13
5.06157e-13
9.34911e-13
1.30925e-12
2.84946e-12
1.70213e-08
4.00118e-10
5.32841e-10
8.58048e-10
1.02952e-08
8.51543e-08
4.19356e-08
6.28169e-10
6.8319e-10
5.50528e-10
2.6317e-10
1.25736e-10
6.81083e-11
3.84782e-11
2.01239e-11
9.37699e-12
3.74028e-12
1.26929e-12
3.8485e-13
2.00491e-13
2.60939e-13
6.00907e-13
8.28401e-13
1.7948e-08
4.13707e-10
1.82059e-09
2.83964e-08
4.09337e-07
5.84493e-07
1.22441e-07
5.88412e-10
7.52346e-10
5.74497e-10
2.3888e-10
1.06298e-10
5.90604e-11
3.493e-11
1.95806e-11
9.62398e-12
4.01235e-12
1.38685e-12
3.92268e-13
8.28495e-14
1.12549e-13
1.61194e-13
3.33107e-13
1.8657e-08
3.78361e-10
3.83744e-10
2.51058e-07
8.48143e-07
6.8255e-07
4.74734e-08
5.8477e-10
1.08825e-09
5.33124e-10
1.90563e-10
7.97536e-11
4.58148e-11
2.88079e-11
1.71069e-11
8.99918e-12
3.98674e-12
1.45428e-12
4.17109e-13
6.56968e-14
3.35036e-14
6.9411e-14
9.58863e-14
1.86992e-08
3.76226e-10
9.57471e-08
7.06158e-07
8.67369e-07
4.53096e-07
1.00428e-09
1.61946e-09
1.37801e-09
4.33751e-10
1.37761e-10
5.52083e-11
3.29836e-11
2.12874e-11
1.32916e-11
7.54593e-12
3.63879e-12
1.42039e-12
4.27688e-13
8.4021e-14
1.32957e-14
1.58179e-14
3.56717e-14
1.40751e-08
3.67277e-10
2.78688e-07
9.16474e-07
8.50013e-07
9.16985e-10
1.00996e-09
2.24724e-09
1.19476e-09
3.10539e-10
9.13093e-11
3.58978e-11
2.19666e-11
1.41811e-11
9.06666e-12
5.56e-12
2.97604e-12
1.27014e-12
4.09278e-13
8.15593e-14
6.08448e-15
6.28073e-15
8.79589e-15
2.05756e-08
4.9649e-09
4.07323e-07
9.15838e-07
3.34357e-07
9.16785e-10
1.49896e-09
1.91968e-09
6.45255e-10
1.96057e-10
5.62564e-11
2.22732e-11
1.35107e-11
8.50836e-12
5.39577e-12
3.50124e-12
2.10031e-12
1.01137e-12
3.63667e-13
7.8871e-14
4.24701e-15
1.47626e-15
2.95726e-15
2.68721e-08
2.39611e-08
3.51895e-07
5.68256e-07
6.42233e-08
9.13195e-10
2.44595e-09
1.32475e-09
3.81516e-10
1.21151e-10
3.19331e-11
1.27956e-11
7.74559e-12
4.62546e-12
2.79411e-12
1.84457e-12
1.23678e-12
6.96661e-13
2.83909e-13
7.39059e-14
4.74734e-15
6.56305e-16
7.62557e-16
3.42243e-08
3.06741e-08
3.41384e-07
1.52671e-07
3.23062e-08
4.2017e-09
2.99626e-09
1.28156e-09
3.49015e-10
7.21011e-11
1.64341e-11
6.82906e-12
4.13437e-12
2.2986e-12
1.26863e-12
7.96435e-13
5.71845e-13
3.83985e-13
1.88791e-13
5.93318e-14
7.15974e-15
3.18963e-16
2.14245e-16
2.91061e-08
2.45828e-08
2.09608e-07
6.75684e-08
5.98602e-09
4.63673e-09
3.37964e-09
1.42639e-09
3.87171e-10
6.09495e-11
8.13694e-12
3.28634e-12
2.0083e-12
1.05531e-12
5.16208e-13
2.85726e-13
2.00311e-13
1.55139e-13
9.89869e-14
3.97294e-14
5.85134e-15
2.69221e-16
5.62688e-17
4.61955e-08
1.28709e-08
4.69231e-09
1.88069e-09
2.29926e-09
7.59484e-09
4.23514e-09
1.50668e-09
3.7687e-10
5.48346e-11
4.48196e-12
1.3854e-12
8.60888e-13
4.34731e-13
1.88379e-13
8.39428e-14
5.18307e-14
4.35238e-14
3.73111e-14
2.06988e-14
4.45526e-15
2.49911e-16
1.78759e-17
5.28003e-08
1.03462e-08
1.60643e-09
1.60575e-09
1.39462e-08
1.16206e-08
4.29024e-09
1.25757e-09
2.71442e-10
3.41324e-11
2.14669e-12
4.6272e-13
2.97577e-13
1.51021e-13
6.02954e-14
2.19184e-14
1.01262e-14
8.06962e-15
8.92833e-15
7.92891e-15
2.36161e-15
2.14305e-16
1.00534e-17
7.50127e-08
6.01269e-09
1.6046e-09
1.6053e-09
2.07091e-08
1.08165e-08
3.21449e-09
7.0213e-10
1.10884e-10
9.70158e-12
4.22165e-13
9.94123e-14
7.0907e-14
3.75998e-14
1.46128e-14
4.4795e-15
1.42578e-15
9.85855e-16
1.47199e-15
2.10459e-15
1.03427e-15
1.50934e-16
1.22795e-17
9.68645e-08
2.02545e-08
1.05469e-08
3.55014e-08
2.02633e-08
5.14597e-09
9.07989e-10
1.23626e-10
1.12409e-11
5.24952e-13
1.67211e-14
1.05487e-14
8.63516e-15
4.97318e-15
2.00454e-15
5.51026e-16
1.297e-16
7.65274e-17
1.77187e-16
4.17461e-16
3.92662e-16
9.11803e-17
8.20575e-18
0.950893
0.939256
0.939577
0.967952
0.976631
0.959868
0.950759
0.939892
0.531713
0.535132
0.404256
0.247529
2.15583e-23
-4.11464e-23
1.84236e-10
1.84342e-10
5.11568e-05
0.000156227
0.000175739
7.55433e-05
0.000363071
0.00119221
0.00111421
0.000302709
0.00126483
0.00195478
0.00194977
0.00195478
0.000326317
0.000587529
0.00093432
0.00134384
7.83337e-06
2.35313e-09
2.21473e-09
2.21417e-09
2.43287e-11
1.54566e-06
1.32634e-08
2.21075e-09
1.6895e-05
1.79133e-05
6.07434e-06
2.21079e-09
1.98814e-05
1.98948e-05
1.94903e-05
1.12608e-05
1.98951e-05
1.98953e-05
1.98065e-05
1.27149e-05
1.93936e-05
1.54707e-05
1.2502e-05
2.10458e-05
1.99639e-06
1.86914e-06
1.78797e-05
4.0123e-05
4.25883e-07
2.38344e-06
3.6333e-05
3.94321e-05
5.32695e-07
5.37664e-07
1.22686e-05
3.83702e-05
4.35015e-07
6.24681e-07
2.21716e-06
1.00654e-06
4.1881e-07
3.23558e-07
9.27911e-09
8.63353e-09
1.13265e-07
1.48472e-07
6.85669e-09
7.36446e-08
1.41277e-08
4.03921e-09
1.58148e-09
4.37897e-08
1.90414e-09
2.53023e-09
1.54091e-09
3.30816e-08
2.08459e-09
2.88721e-09
5.20453e-09
1.429e-08
6.35458e-10
1.07566e-09
1.37864e-09
2.33995e-09
1.81916e-10
1.85328e-10
3.13616e-10
3.9996e-10
5.8786e-11
8.08334e-11
9.03583e-11
1.25928e-10
2.33664e-11
2.72054e-11
4.17434e-11
4.98945e-11
1.00257e-11
1.38398e-11
1.53994e-11
2.14205e-11
3.94011e-12
4.38603e-12
6.59122e-12
7.03926e-12
1.3032e-12
1.83742e-12
1.97234e-12
2.84237e-12
4.33051e-13
5.05274e-13
7.4444e-13
7.65201e-13
1.55117e-13
1.88006e-13
1.98326e-13
2.71209e-13
4.5576e-14
4.94555e-14
6.40802e-14
6.02965e-14
1.50396e-14
1.58694e-14
1.63093e-14
2.033e-14
3.85027e-15
4.32108e-15
5.01267e-15
4.71418e-15
1.11932e-15
1.21706e-15
1.2736e-15
1.41829e-15
2.94405e-16
3.26047e-16
3.53314e-16
3.53178e-16
6.92333e-17
7.3825e-17
7.99063e-17
8.70113e-17
1.3937e-17
1.57276e-17
1.70286e-17
1.80292e-17
2.7893e-18
2.97781e-18
3.34396e-18
3.60436e-18
5.84253e-19
5.51874e-19
5.71806e-19
6.06112e-19
1.36064e-19
8.67983e-20
8.01303e-20
7.80228e-20
0.986432
0.990236
0.99098
0.947479
0.904143
0.919123
0.973384
0.975165
0.957372
0.672031
0.480196
0.611877
0.959272
0.970153
0.945133
0.962447
0.947151
0.905772
0.915381
0.8924
0.931092
0.917637
0.848876
0.886498
0.938771
0.951608
0.91664
0.512903
0.0807196
0.0111535
0.251593
0.765019
0.945832
0.954495
0.944584
0.94558
0.94552
0.934929
0.162659
0.343472
0.484243
0.517995
0.612891
0.613973
0.420858
0.0277839
0.0053716
4.89347e-20
-1.63986e-20
0.0043895
0.0461962
0.39449
0.696557
0.824655
0.926766
0.943837
0.928515
1.964e-10
0.000195084
0.0975306
0.121131
0.0645295
4.7934e-07
2.22701e-06
1.11228e-07
1.97653e-06
7.38417e-05
1.01123e-22
2.33805e-21
-1.95658e-20
-1.44633e-20
0.0421997
0.221216
0.335115
0.257072
0.195511
1.80133e-07
-3.31675e-10
0.0227648
0.0818035
0.0394031
0.00146969
0.000776505
0.000196942
0.000159387
0.00040525
0.000142172
1.23989e-24
-1.98363e-23
3.36236e-05
0.000307284
0.000498267
0.000453919
0.000453158
0.000454453
8.35843e-05
-1.35908e-08
0.0156922
0.0769847
0.0780799
0.0562966
0.0030609
0.000929578
0.000160463
0.000467127
0.000714622
0.000166011
0.000365434
2.69937e-05
0.000195517
0.000415962
0.000513458
0.000472595
0.000660327
0.000857378
0.000468567
0.00890914
0.0283942
0.0331328
0.0424394
0.0254165
0.00460959
0.000527292
0.00012312
0.000288101
0.00177568
0.00177702
0.00177075
0.00151635
0.00129314
0.001253
0.00155929
0.00189117
0.00135726
0.000834196
1.66841e-05
1.67033e-05
1.66819e-05
0.000459817
0.00410392
0.00681916
0.00556505
0.000111807
9.73774e-07
0.000369905
0.00140726
0.00306342
0.0031216
0.003131
0.00313092
0.00313052
0.00190375
4.50651e-05
5.31473e-06
1.75954e-05
3.49582e-05
2.79958e-05
0.000211955
0.00164296
0.00221416
0.000771366
1.83894e-05
3.93249e-07
3.9637e-07
4.88579e-05
3.88793e-05
0.000790768
0.00310626
0.00220508
0.000766804
0.000493034
2.21417e-09
2.20109e-09
1.19196e-07
8.41074e-07
3.12825e-06
4.11144e-06
-2.01608e-10
1.71465e-20
7.92733e-18
1.24452e-09
5.78257e-06
1.30489e-06
1.03912e-07
8.42605e-07
0.00020418
0.000495644
0.000261348
9.56772e-06
7.47462e-06
3.46081e-09
1.99072e-08
1.3726e-08
1.42073e-08
2.24158e-06
9.77387e-06
9.07891e-06
2.24032e-06
5.78837e-06
6.24813e-06
3.20934e-06
1.13364e-07
3.91069e-07
2.9123e-06
2.85623e-06
2.91813e-06
3.07053e-06
5.88521e-06
7.51373e-06
3.40351e-09
2.26223e-08
2.55846e-08
4.02985e-07
1.20507e-05
1.49215e-05
1.39671e-05
1.06456e-05
3.74857e-06
5.44243e-06
9.36648e-08
9.36648e-08
1.74977e-07
5.70539e-06
7.54123e-06
7.37563e-06
3.84571e-06
4.53918e-06
7.17826e-06
3.7491e-06
2.30332e-08
2.34513e-08
1.0577e-06
1.74515e-05
1.26817e-05
1.14284e-05
1.08241e-05
1.98363e-06
2.20126e-06
9.36648e-08
1.15619e-06
5.73308e-07
5.15343e-06
8.48495e-06
8.85257e-06
7.7532e-06
1.33504e-07
3.17761e-06
4.03888e-05
1.98234e-05
2.38765e-08
2.82753e-06
1.73652e-05
7.23352e-06
1.0501e-05
2.67811e-05
9.38664e-06
3.73407e-06
1.17046e-05
1.28169e-05
4.83604e-06
4.10536e-07
2.24667e-06
9.43273e-06
1.85202e-05
5.75775e-07
1.0096e-07
4.13416e-05
4.13636e-05
1.73145e-05
2.5795e-05
1.26312e-05
6.83842e-06
1.92246e-05
3.0038e-05
2.98786e-05
2.26098e-05
1.59679e-05
5.16168e-06
3.79367e-07
3.75852e-07
6.31695e-06
3.46432e-05
3.53947e-05
9.24683e-06
1.04219e-07
3.4863e-05
1.93921e-05
2.91427e-05
2.58587e-05
2.05695e-06
7.26466e-06
2.79396e-05
2.62642e-05
8.35932e-06
5.0611e-06
5.05785e-06
5.06082e-06
3.45031e-06
1.08865e-05
2.40515e-05
3.9422e-05
3.9441e-05
2.47643e-05
7.66634e-08
7.67491e-07
1.53262e-06
1.51538e-05
1.59997e-05
1.64904e-06
7.99414e-06
4.3785e-05
4.42032e-05
3.8436e-05
1.56827e-05
2.72712e-05
2.9624e-05
2.6761e-05
3.39515e-05
3.80377e-05
3.82774e-05
3.91037e-05
1.08366e-05
7.55629e-08
2.26763e-07
8.66764e-07
5.48508e-07
5.73621e-07
5.29304e-07
1.10376e-06
1.22574e-05
4.24332e-05
4.18524e-05
4.13993e-05
4.06085e-05
3.88798e-05
2.65698e-05
6.39837e-06
1.20952e-05
2.62454e-05
1.66363e-05
2.41106e-07
7.55543e-08
3.89267e-07
1.55838e-06
1.43182e-06
4.00132e-07
8.39875e-07
1.72426e-06
2.40181e-06
5.61142e-07
5.28218e-07
1.27094e-05
1.45109e-05
7.46177e-06
4.46785e-07
1.71964e-09
2.01854e-09
4.37517e-09
2.6402e-06
2.96094e-07
7.55543e-08
3.73857e-07
5.42584e-07
2.08356e-07
6.02888e-08
1.72592e-06
1.94352e-06
1.96076e-06
1.79246e-06
8.04099e-07
1.09114e-09
1.09131e-09
1.09115e-09
4.17676e-07
8.1192e-07
5.76998e-07
1.1326e-07
2.35808e-07
8.17341e-07
7.57114e-08
2.80423e-07
1.46003e-07
6.7348e-08
3.62936e-08
1.91843e-07
2.31143e-07
2.81219e-07
2.64023e-07
1.70063e-07
2.86728e-08
8.68837e-09
1.09174e-09
1.30669e-07
7.06167e-07
8.80698e-07
4.56669e-07
2.28158e-07
3.29912e-07
8.10287e-08
1.2342e-07
6.70631e-08
3.24283e-08
1.31398e-08
3.18561e-09
1.14042e-09
1.14348e-09
1.14042e-09
1.14349e-09
1.41166e-09
1.65824e-09
1.73757e-09
1.69588e-09
1.28619e-08
6.82544e-08
1.54843e-07
2.71323e-07
4.06969e-08
1.37759e-07
2.60913e-08
1.66216e-08
7.12463e-09
3.92319e-09
3.39767e-09
3.2895e-09
3.12183e-09
3.07598e-09
3.77346e-09
4.71162e-09
5.70126e-09
1.29607e-08
1.72852e-08
1.61867e-08
6.4328e-08
3.21614e-07
3.22926e-07
4.14254e-08
1.8116e-07
2.99432e-09
2.36359e-09
1.97456e-09
2.07984e-09
2.24858e-09
2.32845e-09
2.50861e-09
3.10023e-09
5.24748e-09
8.01215e-09
1.36813e-08
2.60236e-08
5.4198e-08
1.19365e-07
1.62762e-07
2.00544e-07
1.50013e-07
1.10515e-08
1.8138e-07
5.18203e-10
5.78425e-10
6.97978e-10
8.68777e-10
1.10969e-09
1.44192e-09
1.88651e-09
2.52178e-09
3.67698e-09
7.58058e-09
1.76567e-08
3.05909e-08
4.68705e-08
6.2079e-08
1.07408e-07
9.98431e-08
3.34122e-08
2.65295e-09
1.75097e-07
1.60535e-10
1.99699e-10
2.55926e-10
3.30971e-10
4.3325e-10
5.84893e-10
8.24526e-10
1.30083e-09
2.09604e-09
3.28162e-09
5.2843e-09
7.93402e-09
9.13277e-09
1.20102e-08
2.45324e-08
3.99695e-08
1.70515e-08
2.62565e-09
1.13395e-07
6.50867e-11
8.2513e-11
1.08877e-10
1.45169e-10
2.02123e-10
2.85729e-10
4.13515e-10
6.35072e-10
1.02962e-09
1.68256e-09
2.77974e-09
4.05201e-09
5.40293e-09
8.28154e-09
1.45069e-08
1.94077e-08
7.78667e-09
2.63079e-09
1.17091e-07
2.458e-11
3.41299e-11
4.81857e-11
6.90087e-11
1.01659e-10
1.58908e-10
2.64688e-10
4.49983e-10
8.2062e-10
1.57829e-09
3.10573e-09
5.27358e-09
9.96832e-09
1.61326e-08
2.23466e-08
1.07973e-08
6.33418e-09
5.69758e-09
1.13427e-07
9.78288e-12
1.35896e-11
1.97773e-11
2.94516e-11
4.63404e-11
8.33631e-11
1.5177e-10
2.86427e-10
6.11127e-10
1.38472e-09
3.11961e-09
6.42831e-09
1.36998e-08
2.85463e-08
3.80817e-08
4.17189e-08
9.39031e-09
1.46266e-08
1.20858e-07
3.14888e-12
4.799e-12
7.02959e-12
1.07817e-11
1.78323e-11
2.79403e-11
3.68749e-11
7.7013e-11
2.13707e-10
7.09554e-10
2.24512e-09
6.49416e-09
1.38405e-08
3.22077e-08
5.08689e-08
5.08821e-08
2.44714e-08
4.53357e-08
1.23841e-07
1.08631e-12
1.4748e-12
2.1207e-12
3.27773e-12
5.19129e-12
4.82183e-12
6.05863e-12
1.59159e-11
5.34326e-11
2.05125e-10
8.29507e-10
3.43345e-09
1.159e-08
2.60936e-08
4.68997e-08
4.71119e-08
2.57299e-08
7.17793e-08
1.21976e-07
2.72183e-13
3.89649e-13
5.11744e-13
7.16722e-13
1.09652e-12
1.25275e-12
1.09109e-12
3.52074e-12
1.39369e-11
5.83963e-11
2.78086e-10
1.49687e-09
7.4974e-09
1.86603e-08
3.36825e-08
3.66271e-08
2.36794e-08
1.14775e-07
1.1171e-07
8.05285e-14
9.08525e-14
1.11094e-13
1.39928e-13
1.89876e-13
2.66474e-13
2.87271e-13
9.86445e-13
4.26678e-12
1.82984e-11
8.45872e-11
3.57854e-10
3.14937e-09
8.22424e-09
2.36077e-08
2.32622e-08
3.06261e-08
1.15568e-07
1.17955e-07
2.01557e-14
2.24614e-14
2.53322e-14
3.11706e-14
4.48038e-14
7.48839e-14
1.53488e-13
4.13372e-13
1.68199e-12
7.41995e-12
3.42473e-11
1.35491e-10
1.11833e-09
5.64516e-09
1.00818e-08
2.33079e-08
3.71003e-08
6.94056e-08
2.54067e-07
5.32967e-15
5.49829e-15
6.14304e-15
8.155e-15
1.36592e-14
3.02746e-14
8.46091e-14
2.70713e-13
9.11033e-13
3.67255e-12
1.63136e-11
6.47996e-11
3.04049e-10
1.50593e-09
5.31006e-09
1.4355e-08
3.64265e-08
2.57539e-08
3.83796e-07
1.39809e-15
1.45657e-15
1.68506e-15
2.50497e-15
5.23426e-15
1.47641e-14
4.95073e-14
1.75332e-13
6.2796e-13
2.37494e-12
9.87606e-12
3.98772e-11
1.90926e-10
1.03149e-09
1.92615e-09
4.85328e-09
1.1025e-08
2.20916e-08
3.83794e-07
3.57135e-16
3.87114e-16
4.96017e-16
8.88053e-16
2.25265e-15
7.26888e-15
2.65123e-14
1.00065e-13
3.77215e-13
1.45979e-12
5.99837e-12
2.45913e-11
9.73635e-11
6.4584e-10
2.04917e-09
2.92691e-09
7.62932e-09
1.85783e-08
3.838e-07
8.75408e-17
1.00229e-16
1.47311e-16
3.18672e-16
9.29843e-16
3.22266e-15
1.21449e-14
4.72388e-14
1.84226e-13
7.2168e-13
2.99046e-12
1.3646e-11
6.31016e-11
3.12519e-10
2.08064e-09
3.98045e-09
4.92563e-09
2.1624e-08
2.30216e-07
1.91227e-17
2.32095e-17
3.83679e-17
9.63448e-17
3.19295e-16
1.17736e-15
4.49745e-15
1.73766e-14
6.79746e-14
2.71956e-13
1.12738e-12
5.07282e-12
2.34125e-11
1.17354e-10
6.73386e-10
3.49431e-09
6.77294e-09
2.04462e-08
1.03485e-07
3.69135e-18
4.26284e-18
7.73676e-18
2.26142e-17
8.75751e-17
3.65299e-16
1.53099e-15
6.4414e-15
2.7466e-14
1.19071e-13
5.28805e-13
2.40264e-12
1.171e-11
5.8999e-11
2.84698e-10
1.29402e-09
4.3069e-09
8.14565e-09
7.96797e-09
5.89057e-19
6.46211e-19
1.01355e-18
2.88432e-18
1.27801e-17
6.3368e-17
3.02823e-16
1.37586e-15
6.12287e-15
2.78339e-14
1.32221e-13
6.47934e-13
3.38202e-12
1.84565e-11
1.06468e-10
5.06402e-10
1.40672e-09
1.19784e-09
1.84094e-10
7.27259e-20
7.00482e-20
8.7867e-20
1.89752e-19
7.70635e-19
4.36065e-18
2.52267e-17
1.32041e-16
6.14951e-16
2.57084e-15
1.02949e-14
4.66276e-14
2.57377e-13
1.85741e-12
1.70088e-11
1.2445e-10
3.22736e-10
3.79434e-10
1.6433e-10
)
;

boundaryField
{
    leftWall
    {
        type            zeroGradient;
    }
    rightWall
    {
        type            zeroGradient;
    }
    lowerWall
    {
        type            zeroGradient;
    }
    atmosphere
    {
        type            inletOutlet;
        inletValue      uniform 0;
        value           nonuniform List<scalar> 
46
(
9.68645e-08
2.02545e-08
1.05469e-08
3.55014e-08
2.02633e-08
0
0
0
0
0
0
0
0
0
0
0
0
0
1.77187e-16
4.17461e-16
3.92662e-16
9.11804e-17
8.20575e-18
1.36065e-19
8.67985e-20
0
0
0
0
0
0
0
0
0
0
0
0
0
0
0
1.85741e-12
1.70088e-11
1.2445e-10
3.22736e-10
3.79434e-10
1.6433e-10
)
;
    }
    defaultFaces
    {
        type            empty;
    }
}


// ************************************************************************* //
