/*--------------------------------*- C++ -*----------------------------------*\
| =========                 |                                                 |
| \\      /  F ield         | OpenFOAM: The Open Source CFD Toolbox           |
|  \\    /   O peration     | Version:  2312                                  |
|   \\  /    A nd           | Website:  www.openfoam.com                      |
|    \\/     M anipulation  |                                                 |
\*---------------------------------------------------------------------------*/
FoamFile
{
    version     2.0;
    format      ascii;
    arch        "LSB;label=32;scalar=64";
    class       volScalarField;
    location    "4.85";
    object      alpha.water;
}
// * * * * * * * * * * * * * * * * * * * * * * * * * * * * * * * * * * * * * //

dimensions      [0 0 0 0 0 0 0];

internalField   nonuniform List<scalar> 
2268
(
3.25618e-07
3.26537e-07
2.8424e-07
9.08842e-08
1.33502e-08
2.28063e-09
1.15968e-09
7.37378e-10
3.8336e-10
1.94386e-10
1.24074e-10
9.79739e-11
8.24898e-11
7.42276e-11
7.35385e-11
8.12723e-11
1.00605e-10
1.34848e-10
1.88927e-10
2.91876e-10
6.66956e-10
1.24949e-09
1.42013e-09
2.04369e-07
1.51548e-07
6.53193e-08
2.67335e-08
1.49735e-09
4.95832e-10
4.85183e-10
4.32502e-10
3.71474e-10
3.10345e-10
2.78565e-10
2.37508e-10
1.98783e-10
1.77447e-10
1.47742e-10
1.24718e-10
1.45266e-10
2.05238e-10
3.32451e-10
5.04881e-10
9.10007e-10
1.42615e-09
1.43837e-09
2.89697e-08
2.35819e-08
1.29023e-08
2.7144e-09
4.19799e-09
8.85241e-09
8.86552e-09
7.82249e-09
2.02093e-09
7.88202e-10
7.21089e-10
6.48761e-10
7.73441e-10
9.05538e-10
7.98592e-10
5.02472e-10
3.53203e-10
4.6693e-10
7.03387e-10
8.15105e-10
1.09507e-09
1.2183e-09
1.09678e-09
5.85276e-10
5.90881e-10
4.52743e-10
3.42005e-10
3.8511e-10
4.96023e-10
5.06739e-10
6.8768e-10
4.71201e-10
3.77003e-10
3.90669e-10
5.30976e-10
1.32607e-09
3.03629e-09
3.7296e-09
3.657e-09
2.18382e-09
8.36919e-10
5.7438e-10
6.82635e-10
7.59501e-10
7.185e-10
7.28718e-10
0.0591282
0.054546
0.0457908
0.0338829
0.0194906
0.00452643
4.34113e-17
1.34231e-21
1.34857e-21
8.63097e-23
-7.44992e-14
-7.76915e-13
-2.82319e-12
-2.88552e-22
1.80891e-11
1.24409e-10
6.02352e-11
5.09328e-11
1.58354e-10
1.70196e-10
1.71124e-10
2.11011e-10
1.88356e-09
0.772939
0.762149
0.738534
0.702925
0.657248
0.604667
0.537406
0.461041
0.384184
0.306782
0.229952
0.156676
0.0941204
0.0337425
-1.03209e-12
-4.31404e-11
-1.43351e-10
-1.38158e-14
-3.64811e-15
-1.03085e-15
-2.04211e-15
-4.42292e-14
9.17205e-20
0.999209
0.999069
0.998315
0.996779
0.996394
0.996712
0.996701
0.993175
0.983365
0.964587
0.932348
0.876543
0.798734
0.701337
0.57126
0.427325
0.32859
0.223444
0.114743
0.0711879
0.0574855
0.062417
0.0967834
0.999744
0.999744
0.999744
0.999745
0.999745
0.999744
0.999719
0.999728
0.999742
0.999742
0.999714
0.999702
0.999742
0.999742
0.999404
0.984192
0.892591
0.79224
0.756436
0.708534
0.670568
0.671979
0.74513
0.0151079
0.00852529
0.0042641
0.00376253
0.007302
0.00954958
0.0107377
0.0107366
0.0100746
0.0100734
0.0100734
0.00717768
0.00581471
0.00417453
0.00419241
0.004164
0.00352096
0.00418883
0.00430976
0.015348
0.00113109
0.00112454
0.00114012
0.00113887
0.00115727
0.00124742
0.00125116
0.0015376
0.00200633
0.00171259
0.000781977
0.000232271
4.4955e-05
3.35478e-05
4.25049e-05
3.17165e-05
4.74592e-05
0.00166185
0.126274
0.125859
0.108421
0.098685
0.072247
0.0287743
0.00468457
0.0049237
0.00363757
0.00199557
0.000351293
0.000140638
0.000140279
0.0128476
0.0405959
0.0910418
0.242073
0.357723
0.344376
0.698089
0.779384
0.723163
0.714605
0.711045
0.672192
0.614373
0.53337
0.468356
0.460138
0.42171
0.293519
0.219538
0.233202
0.303335
0.598647
0.883009
0.900341
0.655713
0.791205
0.98903
0.975852
0.978319
0.983931
0.951761
0.938801
0.96406
0.975213
0.975241
0.975213
0.970471
0.948551
0.550826
0.46962
0.904915
0.904944
0.900027
0.729796
0.936132
0.990985
0.99099
0.990542
0.990481
0.970916
0.948611
0.973873
0.975208
0.975014
0.936113
0.974733
0.974767
0.62877
0.469702
0.841109
0.856326
0.870034
0.835948
0.959942
0.990073
0.990991
0.955273
0.939057
0.96568
0.965583
0.971371
0.975186
0.921392
0.879765
0.922114
0.974747
0.718774
0.475966
0.537649
0.870818
0.864387
0.906678
0.990983
0.990986
0.990995
0.940189
0.909144
0.919911
0.946813
0.975182
0.975183
0.795966
0.797261
0.877108
0.974739
0.933396
0.500276
0.787977
0.918594
0.864395
0.905887
0.988259
0.999176
0.999714
0.999743
0.999741
0.999744
0.999712
0.999729
0.999742
0.999742
0.999742
0.999742
0.999742
0.999742
0.999742
0.99592
0.969609
0.97881
0.995463
0.992301
0.958588
0.959787
0.963449
0.919746
0.936701
0.950794
0.956518
0.974868
0.976618
0.979934
0.98951
0.996882
0.999742
0.999742
0.999742
0.999742
0.999742
0.999742
0.998538
0.996963
0.996974
0.996834
0.996348
0.992024
0.983943
0.973672
0.240626
0.242178
0.250133
0.28478
0.400217
0.566238
0.753264
0.793034
0.850544
0.934132
0.960154
0.970568
0.991744
0.993373
0.970214
0.948733
0.941262
0.899416
0.843013
0.789347
0.711808
0.58594
0.44011
2.79835e-10
2.79838e-10
2.79835e-10
2.65755e-09
6.3541e-09
0.0625749
0.204313
0.249646
0.258095
0.331219
0.465519
0.546035
0.53057
0.536221
0.543845
0.484521
0.301322
0.142471
0.0867101
0.0571209
0.0152597
-1.50711e-07
-5.64749e-11
4.90998e-08
2.79835e-10
0.000221091
0.000441396
3.12042e-06
7.22993e-25
2.12971e-35
-1.91961e-21
-2.58544e-20
-3.80984e-19
0.00269063
0.00963222
0.00756926
0.00915519
0.00921711
0.00379822
1.7557e-13
1.67508e-13
-9.96556e-06
-1.23338e-06
3.06709e-06
4.01558e-05
7.3953e-05
1.61904e-08
1.36162e-08
3.52584e-16
3.42195e-06
2.955e-08
2.07436e-12
2.10104e-16
-4.74617e-16
-7.26439e-18
-2.34733e-20
6.40076e-06
4.00991e-06
4.23618e-06
1.21547e-05
9.13462e-05
0.000218485
0.000651077
0.0102578
0.0166215
0.0127976
0.00612498
0.000173465
4.36204e-05
2.69022e-09
-8.89517e-12
2.12594e-08
1.03577e-08
1.5526e-23
1.00137e-22
9.51741e-06
6.99762e-05
0.000161053
0.000177956
0.000173996
0.000213164
0.000200512
0.000238003
0.000142358
0.00135972
0.0146005
0.0187178
0.0187178
0.0187178
0.0144942
0.000724364
4.27459e-05
1.7881e-05
0.000119591
0.000158062
4.00076e-05
5.80048e-05
3.93707e-05
0.000100501
0.000256566
0.00033378
0.000706436
0.00719182
0.012411
0.0110957
0.00204522
0.000138348
0.00139927
0.0154892
0.0187178
0.0175754
0.00209618
0.000490892
0.000791873
0.00030312
5.61751e-05
0.000399083
0.000497888
0.00209884
0.00259397
0.00050586
0.00010144
0.000131379
0.000561689
0.0124668
0.0167964
0.0167939
0.0167964
0.00802464
0.00174442
0.000780549
0.00155928
0.0034992
0.00105999
5.62857e-09
5.3844e-09
6.45379e-09
7.51012e-05
0.000170937
0.000331173
0.000820014
0.0063945
0.00666772
0.00619472
0.00176023
0.000622093
0.000394009
0.00208295
0.0159209
0.0167963
0.0167936
0.00930598
0.0012154
0.000290334
-2.40945e-10
2.64956e-20
8.56426e-10
8.411e-07
1.35879e-07
-2.7453e-24
-3.10335e-10
0.000394994
0.000397173
0.00040488
0.00207911
0.00611006
0.00725152
0.00728127
0.00728034
0.00728548
0.00597497
0.00579289
0.01056
0.0097767
0.00266609
2.64074e-05
6.54286e-06
3.48768e-07
2.71271e-06
1.33837e-05
7.40539e-06
4.63494e-07
3.95473e-06
1.21123e-05
0.00026197
0.000201883
4.82243e-05
2.19882e-12
3.57092e-11
0.000474792
0.00244393
0.00604813
0.00728112
0.00728885
0.00614599
0.00211172
7.33375e-05
-9.69301e-21
9.43375e-23
8.84179e-23
2.18036e-07
1.37695e-05
1.89002e-05
1.77091e-05
3.25774e-06
1.65096e-05
1.97977e-05
1.17643e-08
1.09959e-08
1.11202e-08
1.12754e-08
2.06562e-08
1.76354e-06
5.3633e-06
5.52855e-06
0.00041701
0.000723873
0.00018028
-4.38612e-21
-3.18608e-23
-5.15876e-38
1.51135e-40
2.06056e-06
1.4265e-05
1.84853e-05
1.97485e-05
1.13594e-05
1.1032e-05
1.9895e-05
1.98944e-05
2.64832e-07
1.49222e-07
8.08055e-08
1.52859e-08
1.27335e-07
5.69401e-07
2.16171e-06
2.40747e-06
2.56499e-06
1.15148e-06
9.92451e-07
6.65995e-25
6.65997e-25
8.76307e-07
3.05779e-06
3.9153e-06
9.74105e-06
1.96604e-05
1.97673e-05
2.65585e-06
3.22388e-07
1.08928e-05
1.98952e-05
6.88619e-07
3.66675e-07
1.66014e-07
3.90823e-08
1.87379e-07
4.54788e-07
7.65726e-07
1.21676e-06
1.52766e-06
6.35938e-07
3.09866e-07
3.37219e-07
1.91686e-06
2.2466e-06
2.27112e-06
1.22874e-06
8.87089e-07
7.00438e-06
3.9767e-06
4.4678e-07
1.76907e-08
1.02647e-07
2.49178e-06
7.13733e-07
3.53672e-07
9.09675e-08
7.22033e-08
7.45504e-08
2.45121e-07
2.37703e-07
5.3598e-07
1.77009e-06
1.84577e-06
1.83849e-06
1.84033e-06
1.31462e-06
1.12755e-06
2.23383e-07
1.28101e-08
5.60627e-08
4.24581e-09
4.18381e-09
6.25077e-09
1.62616e-09
2.20796e-08
1.45805e-07
4.31331e-07
1.56215e-07
7.01273e-08
7.03481e-08
3.20901e-08
1.98103e-08
5.96723e-08
3.75866e-07
1.7111e-06
1.84248e-06
1.62225e-06
8.0371e-07
1.02262e-07
1.79921e-08
9.64804e-09
1.24882e-08
1.67227e-08
1.00533e-08
4.11809e-09
2.10811e-09
9.55604e-10
1.00949e-07
4.29893e-07
1.03372e-07
4.39242e-08
3.38232e-08
4.62496e-08
3.51169e-08
1.97588e-08
4.69244e-08
1.36856e-07
2.45261e-07
3.6808e-07
1.83614e-07
4.26495e-08
4.94212e-09
5.19929e-09
7.32837e-09
7.7788e-09
7.91959e-09
4.5823e-09
2.25934e-09
9.71585e-10
8.369e-10
1.48944e-07
4.98043e-07
1.97091e-08
1.23082e-08
1.45445e-08
1.66283e-08
1.91061e-08
1.97103e-08
2.68313e-08
2.59914e-08
6.36896e-09
4.98194e-09
1.82023e-09
1.62052e-09
2.17757e-09
2.79779e-09
2.95289e-09
2.50683e-09
2.37634e-09
1.68125e-09
1.23333e-09
1.00466e-09
8.83406e-10
8.94839e-09
2.93453e-07
1.44309e-08
4.86869e-09
6.06108e-09
8.32691e-09
9.01334e-09
1.03779e-08
1.06947e-08
9.56049e-09
5.84788e-09
2.0709e-09
1.85403e-09
1.61681e-09
1.30713e-09
1.21264e-09
1.13286e-09
1.04148e-09
1.03442e-09
9.00812e-10
8.36466e-10
8.61552e-10
6.98409e-10
6.64866e-09
3.57447e-08
1.609e-08
3.46226e-09
3.33734e-09
4.58423e-09
4.80645e-09
4.57611e-09
4.01575e-09
3.21762e-09
2.14712e-09
1.28123e-09
9.93614e-10
7.65015e-10
6.22512e-10
5.7191e-10
5.55984e-10
5.36703e-10
4.99876e-10
4.54515e-10
4.51817e-10
5.36513e-10
6.98523e-10
1.3582e-09
6.74458e-09
1.70799e-08
2.46917e-09
1.6353e-09
2.24591e-09
2.16812e-09
1.81197e-09
1.34883e-09
9.55709e-10
6.64275e-10
4.71103e-10
3.59667e-10
2.91659e-10
2.51417e-10
2.36093e-10
2.31847e-10
2.22126e-10
2.07851e-10
1.94948e-10
2.13625e-10
2.79825e-10
3.96998e-10
5.57589e-10
1.45647e-09
1.7044e-08
1.65426e-09
8.12184e-10
9.98417e-10
8.59808e-10
6.59018e-10
4.61248e-10
3.3261e-10
2.38713e-10
1.77389e-10
1.35674e-10
1.10506e-10
9.52515e-11
8.6338e-11
8.18117e-11
7.85057e-11
7.7087e-11
7.90664e-11
9.08618e-11
1.25753e-10
2.01051e-10
2.71262e-10
1.19671e-09
1.68168e-08
1.14707e-09
4.52614e-10
5.09038e-10
4.07374e-10
3.1668e-10
2.408e-10
1.89554e-10
1.47841e-10
1.1057e-10
8.06819e-11
5.90375e-11
4.4205e-11
3.45712e-11
2.91562e-11
2.68922e-11
2.74772e-11
3.05041e-11
3.7931e-11
5.45618e-11
7.85242e-11
1.57087e-10
3.81726e-10
1.67182e-08
7.29448e-10
3.2186e-10
3.25808e-10
2.85321e-10
2.57903e-10
2.36402e-10
2.21131e-10
1.83347e-10
1.33304e-10
8.87285e-11
5.66486e-11
3.54465e-11
2.20289e-11
1.45514e-11
1.07298e-11
9.98035e-12
1.15522e-11
1.52855e-11
2.19362e-11
3.56264e-11
4.93884e-11
1.25988e-10
1.65343e-08
4.87401e-10
2.85384e-10
2.97148e-10
3.3159e-10
3.72565e-10
3.77157e-10
3.37607e-10
2.73608e-10
1.93082e-10
1.21695e-10
7.26479e-11
4.17403e-11
2.3002e-11
1.22038e-11
6.73976e-12
4.42348e-12
4.48918e-12
6.07481e-12
9.24751e-12
1.31399e-11
2.62291e-11
4.01071e-11
1.65072e-08
2.87596e-10
2.87536e-10
3.79102e-10
5.41563e-10
6.81909e-10
6.99841e-10
4.98886e-10
3.99252e-10
2.77505e-10
1.65735e-10
9.43554e-11
5.26004e-11
2.80486e-11
1.39029e-11
6.45059e-12
3.01157e-12
1.9703e-12
2.38929e-12
3.66816e-12
6.15062e-12
8.80916e-12
1.81351e-11
1.64267e-08
3.08533e-10
3.35638e-10
5.20951e-10
8.17622e-10
1.23493e-09
1.59777e-09
6.8926e-10
5.27691e-10
3.70027e-10
2.09098e-10
1.14217e-10
6.29642e-11
3.37799e-11
1.65354e-11
7.25118e-12
2.95646e-12
1.2718e-12
9.8007e-13
1.4532e-12
2.18305e-12
4.57498e-12
6.66437e-12
1.6818e-08
3.21791e-10
4.32593e-10
4.98714e-10
7.3341e-10
3.26133e-09
5.60825e-09
7.66881e-10
6.12737e-10
4.52728e-10
2.40935e-10
1.24912e-10
6.87539e-11
3.74774e-11
1.87913e-11
8.48889e-12
3.3251e-12
1.21401e-12
4.87302e-13
5.18304e-13
9.56619e-13
1.32855e-12
2.90413e-12
1.68839e-08
4.01772e-10
5.40911e-10
1.15025e-09
1.54107e-08
9.15594e-08
4.23797e-08
6.27838e-10
6.80904e-10
5.44173e-10
2.59483e-10
1.24209e-10
6.74354e-11
3.81311e-11
1.99476e-11
9.29008e-12
3.70464e-12
1.25955e-12
3.81764e-13
2.03969e-13
2.65085e-13
6.11951e-13
8.37208e-13
1.77926e-08
4.33584e-10
2.42887e-09
3.71467e-08
4.16259e-07
5.73256e-07
1.17951e-07
5.92722e-10
7.57197e-10
5.65504e-10
2.34946e-10
1.04901e-10
5.84577e-11
3.46296e-11
1.94229e-11
9.54554e-12
3.97817e-12
1.37696e-12
3.8596e-13
8.39386e-14
1.14787e-13
1.6399e-13
3.37078e-13
1.85337e-08
3.57651e-10
3.6332e-10
2.69122e-07
8.43981e-07
6.6288e-07
4.49042e-08
5.88998e-10
1.08263e-09
5.22915e-10
1.87071e-10
7.86522e-11
4.53398e-11
2.85548e-11
1.69743e-11
8.93415e-12
3.95634e-12
1.44242e-12
4.1346e-13
6.51876e-14
3.39119e-14
7.06321e-14
9.7744e-14
1.85762e-08
3.55061e-10
1.03394e-07
7.05374e-07
8.57161e-07
4.35689e-07
1.02558e-09
1.60098e-09
1.35402e-09
4.2432e-10
1.35049e-10
5.44226e-11
3.26178e-11
2.10894e-11
1.31875e-11
7.49437e-12
3.61463e-12
1.40998e-12
4.2475e-13
8.2602e-14
1.34956e-14
1.60553e-14
3.62439e-14
1.3968e-08
3.46233e-10
2.86847e-07
9.12334e-07
8.31154e-07
9.1311e-10
1.03123e-09
2.21613e-09
1.16545e-09
3.03267e-10
8.94504e-11
3.53767e-11
2.17011e-11
1.40365e-11
8.99222e-12
5.52294e-12
2.95901e-12
1.26219e-12
4.06823e-13
8.02796e-14
6.09751e-15
6.38261e-15
8.88924e-15
2.03262e-08
9.10516e-09
4.13941e-07
9.10603e-07
3.2798e-07
9.16689e-10
1.50112e-09
1.88299e-09
6.25237e-10
1.91645e-10
5.50994e-11
2.19334e-11
1.33342e-11
8.4122e-12
5.34772e-12
3.47747e-12
2.08944e-12
1.00628e-12
3.61903e-13
7.77325e-14
4.21165e-15
1.49391e-15
2.99999e-15
2.6415e-08
2.34627e-08
3.57656e-07
5.75467e-07
6.37817e-08
9.78701e-10
2.45367e-09
1.30769e-09
3.75718e-10
1.18781e-10
3.12798e-11
1.25971e-11
7.63751e-12
4.56793e-12
2.76668e-12
1.83143e-12
1.23026e-12
6.93973e-13
2.83025e-13
7.29901e-14
4.67762e-15
6.6361e-16
7.76628e-16
3.37684e-08
3.25878e-08
3.50076e-07
1.50099e-07
3.20967e-08
4.18648e-09
2.97802e-09
1.27506e-09
3.46896e-10
7.09115e-11
1.61212e-11
6.72225e-12
4.07369e-12
2.26787e-12
1.25479e-12
7.90316e-13
5.68863e-13
3.82977e-13
1.88271e-13
5.90896e-14
7.05458e-15
3.18243e-16
2.17734e-16
2.84523e-08
2.53957e-08
2.14275e-07
6.88969e-08
5.99854e-09
4.64181e-09
3.39415e-09
1.42188e-09
3.84334e-10
6.03069e-11
8.00704e-12
3.23536e-12
1.9783e-12
1.0405e-12
5.10025e-13
2.83244e-13
1.99245e-13
1.54786e-13
9.89412e-14
3.96629e-14
5.79613e-15
2.66889e-16
5.72205e-17
4.58999e-08
1.36022e-08
5.95473e-09
2.05497e-09
2.30711e-09
7.66852e-09
4.23798e-09
1.49701e-09
3.72697e-10
5.40368e-11
4.40962e-12
1.36374e-12
8.47886e-13
4.28521e-13
1.8597e-13
8.31344e-14
5.15441e-14
4.34173e-14
3.73933e-14
2.0734e-14
4.42882e-15
2.47586e-16
1.80441e-17
5.23838e-08
1.05481e-08
1.60422e-09
1.60371e-09
1.39053e-08
1.16437e-08
4.28944e-09
1.24957e-09
2.67191e-10
3.3478e-11
2.10386e-12
4.55244e-13
2.93055e-13
1.48862e-13
5.95129e-14
2.16854e-14
1.00634e-14
8.05795e-15
8.98144e-15
7.96855e-15
2.35522e-15
2.1277e-16
1.00201e-17
7.38157e-08
6.25061e-09
1.60284e-09
1.60338e-09
2.06266e-08
1.07866e-08
3.20503e-09
6.97747e-10
1.09391e-10
9.49604e-12
4.13532e-13
9.77823e-14
6.98238e-14
3.70704e-14
1.44283e-14
4.43148e-15
1.41633e-15
9.85974e-16
1.48218e-15
2.12706e-15
1.03771e-15
1.50306e-16
1.22077e-17
9.55197e-08
1.96238e-08
1.0114e-08
3.47094e-08
2.03126e-08
5.13754e-09
9.07422e-10
1.23221e-10
1.11649e-11
5.17599e-13
1.64072e-14
1.03693e-14
8.50085e-15
4.90416e-15
1.98045e-15
5.45599e-16
1.28871e-16
7.66593e-17
1.78655e-16
4.23852e-16
3.95847e-16
9.11332e-17
8.17324e-18
0.955248
0.940802
0.941167
0.95764
0.974264
0.958111
0.94796
0.938935
0.516656
0.51207
0.383174
0.235857
-2.00994e-21
3.38355e-16
3.43537e-10
4.54655e-10
6.39018e-05
0.00017084
0.000177793
6.2422e-05
0.000485126
0.00132436
0.00106127
0.000242819
0.00152332
0.00195479
0.00194977
0.00195413
0.000323215
0.000559794
0.000903528
0.0013089
5.95226e-06
2.32781e-09
2.20111e-09
2.19421e-09
3.12885e-08
1.66535e-06
8.70292e-09
2.18225e-09
1.80236e-05
1.80592e-05
6.0635e-06
2.19297e-09
1.98728e-05
1.9899e-05
1.96355e-05
1.18467e-05
1.9895e-05
1.98946e-05
1.98884e-05
1.26463e-05
1.98951e-05
1.61967e-05
1.30082e-05
2.12991e-05
2.89371e-06
2.29561e-06
1.82257e-05
3.99014e-05
3.18954e-07
2.15989e-06
3.58819e-05
3.94541e-05
4.93806e-07
5.04821e-07
1.22113e-05
3.83233e-05
4.11774e-07
6.48246e-07
2.22664e-06
1.54683e-06
4.14729e-07
3.47692e-07
1.24587e-08
1.15495e-08
1.25872e-07
1.72991e-07
1.0501e-08
4.89357e-08
1.87986e-08
4.9536e-09
1.8793e-09
2.99641e-08
2.41761e-09
2.60453e-09
1.60345e-09
2.86801e-08
2.06318e-09
2.76275e-09
5.07499e-09
1.44393e-08
6.62641e-10
1.12706e-09
1.46249e-09
2.62825e-09
1.90433e-10
1.90224e-10
3.36276e-10
4.38243e-10
6.0719e-11
8.28711e-11
9.0796e-11
1.29783e-10
2.38333e-11
2.74284e-11
4.24687e-11
5.07184e-11
1.01834e-11
1.40279e-11
1.54954e-11
2.17078e-11
4.00818e-12
4.43339e-12
6.67225e-12
7.08079e-12
1.31479e-12
1.85987e-12
1.9885e-12
2.8648e-12
4.39068e-13
5.10923e-13
7.50167e-13
7.68118e-13
1.56895e-13
1.89774e-13
1.99963e-13
2.71634e-13
4.60977e-14
4.98597e-14
6.42745e-14
6.05057e-14
1.51835e-14
1.59863e-14
1.64009e-14
2.03147e-14
3.89926e-15
4.3414e-15
5.02033e-15
4.72299e-15
1.13092e-15
1.22681e-15
1.27703e-15
1.41707e-15
2.97965e-16
3.27312e-16
3.54364e-16
3.53063e-16
7.01687e-17
7.45613e-17
8.01173e-17
8.69792e-17
1.41821e-17
1.59007e-17
1.71155e-17
1.80342e-17
2.83792e-18
3.01709e-18
3.36137e-18
3.60246e-18
5.93016e-19
5.58636e-19
5.74782e-19
6.05177e-19
1.37226e-19
8.76844e-20
8.0133e-20
7.78164e-20
0.986321
0.990127
0.990992
0.952011
0.904298
0.9162
0.972437
0.975182
0.963327
0.696986
0.494802
0.623109
0.962465
0.967888
0.925458
0.957486
0.949869
0.907529
0.913343
0.890976
0.926944
0.916126
0.846617
0.884496
0.936971
0.951832
0.926295
0.548534
0.101509
0.0154144
0.280574
0.781415
0.94708
0.951022
0.942544
0.945814
0.945764
0.936826
0.159209
0.338145
0.4726
0.512976
0.608232
0.600403
0.412896
0.0318173
0.00810857
1.60133e-19
-2.04493e-20
0.00659347
0.0512015
0.403484
0.697092
0.827035
0.929102
0.945003
0.929414
4.74614e-10
0.000749052
0.0945231
0.115456
0.0555958
2.09096e-21
1.81014e-06
-1.00977e-07
4.62567e-06
5.51742e-05
-1.21508e-21
-8.5044e-21
1.75011e-21
8.93581e-20
0.0391844
0.221713
0.335771
0.252524
0.193509
9.06808e-08
-7.64705e-11
0.0254101
0.0864373
0.0317786
0.00148008
0.000731347
0.00017764
0.000166129
0.000400386
0.000122365
4.33923e-23
1.23988e-24
3.83474e-05
0.000318933
0.000493325
0.000450696
0.000450039
0.000450865
6.68719e-05
-4.68547e-09
0.0178583
0.0779875
0.0778175
0.0543001
0.00161445
0.000871852
0.000168618
0.000482288
0.000674216
0.00012327
0.000327918
2.79117e-05
0.00019568
0.000420131
0.00051531
0.000469131
0.000643458
0.000734184
0.000411862
0.00979287
0.0288451
0.0334337
0.0432163
0.0243191
0.00400683
0.000426979
0.000125103
0.000312469
0.00177476
0.00177425
0.00175228
0.00152705
0.00132188
0.00128677
0.00160963
0.00194337
0.00131868
0.00076157
1.66824e-05
1.66959e-05
1.66819e-05
0.000773088
0.00448163
0.00672908
0.00536295
7.73745e-06
1.19551e-06
0.000397705
0.00139352
0.00302277
0.00312479
0.00313094
0.00313085
0.00313044
0.00195652
4.34752e-05
1.62064e-05
1.88005e-05
3.0517e-05
1.89783e-05
0.000342525
0.00179035
0.00211051
0.000595354
5.3845e-06
4.03664e-07
4.01972e-07
4.23712e-05
2.89019e-05
0.000840065
0.00312038
0.00210875
0.000720448
0.000488423
2.17543e-09
2.16303e-09
3.75698e-07
1.60579e-06
3.83918e-06
4.08223e-06
-3.53823e-10
1.00076e-24
1.88338e-23
1.37922e-08
5.46689e-06
1.27694e-06
3.1324e-07
4.60464e-06
0.000212148
0.000412894
0.000208528
5.8611e-06
5.79684e-06
3.58864e-09
1.907e-08
1.5701e-08
1.57152e-08
2.36196e-06
1.00017e-05
9.53346e-06
2.61518e-06
5.50427e-06
6.12534e-06
3.30528e-06
1.33643e-07
3.82997e-07
2.92007e-06
2.85626e-06
2.89305e-06
2.85626e-06
5.85651e-06
7.50311e-06
3.5581e-09
2.07433e-08
2.48104e-08
4.47164e-07
1.24129e-05
1.47196e-05
1.37435e-05
1.0991e-05
3.72622e-06
5.50578e-06
9.36653e-08
9.36652e-08
1.88163e-07
5.74637e-06
7.24076e-06
7.14439e-06
3.44663e-06
4.34251e-06
7.02973e-06
3.76786e-06
2.11789e-08
2.16606e-08
9.3226e-07
1.72578e-05
1.25899e-05
1.10597e-05
1.06735e-05
2.02243e-06
2.29795e-06
9.36652e-08
1.11865e-06
5.74893e-07
5.19563e-06
8.35204e-06
8.8854e-06
7.74993e-06
1.71719e-07
3.1209e-06
4.06685e-05
1.98098e-05
2.20502e-08
1.71908e-06
1.71645e-05
7.18972e-06
1.07481e-05
2.78421e-05
8.69925e-06
3.15839e-06
1.1222e-05
1.26284e-05
4.75086e-06
4.40355e-07
2.22114e-06
9.98913e-06
2.07371e-05
8.75919e-07
1.18485e-07
4.12178e-05
4.12345e-05
1.67533e-05
2.51319e-05
1.2614e-05
7.18011e-06
2.05076e-05
2.98158e-05
2.96237e-05
2.27398e-05
1.51889e-05
4.75687e-06
4.20301e-07
4.09448e-07
6.79232e-06
3.67533e-05
3.67734e-05
1.0373e-05
1.26101e-07
3.4391e-05
2.01817e-05
2.84128e-05
2.56947e-05
2.12767e-06
8.09599e-06
2.84382e-05
2.50182e-05
8.34664e-06
5.0448e-06
5.04074e-06
5.05378e-06
3.36548e-06
1.08689e-05
2.4247e-05
3.94288e-05
3.94412e-05
2.49307e-05
7.89489e-08
6.97401e-07
1.68198e-06
1.67084e-05
1.71372e-05
1.77634e-06
1.00471e-05
4.38223e-05
4.37932e-05
3.75714e-05
1.57391e-05
2.78232e-05
2.97662e-05
2.67405e-05
3.3627e-05
3.86434e-05
3.90433e-05
3.91774e-05
8.68385e-06
7.56047e-08
2.54852e-07
8.57259e-07
6.71127e-07
7.11646e-07
5.6216e-07
1.135e-06
1.31566e-05
4.27801e-05
4.17229e-05
4.09712e-05
3.9964e-05
3.82688e-05
2.63383e-05
6.34422e-06
1.04995e-05
2.32153e-05
1.293e-05
1.80457e-07
7.55545e-08
3.71003e-07
1.51267e-06
1.38958e-06
3.77592e-07
7.82501e-07
1.71886e-06
2.43503e-06
6.1834e-07
5.3294e-07
1.22183e-05
1.41751e-05
7.08039e-06
2.53159e-07
-2.66634e-09
-1.43674e-16
5.94513e-13
2.37596e-06
3.22346e-07
7.55545e-08
3.59775e-07
6.1251e-07
2.48837e-07
3.6567e-08
1.67779e-06
1.93441e-06
1.94156e-06
1.7969e-06
8.73496e-07
1.09114e-09
1.09132e-09
1.09116e-09
3.78953e-07
7.89525e-07
6.0773e-07
1.2341e-07
1.50718e-07
7.80698e-07
7.56986e-08
2.80425e-07
1.43965e-07
6.76334e-08
3.64376e-08
2.0714e-07
2.52936e-07
2.89355e-07
2.67421e-07
1.78357e-07
3.34834e-08
8.8302e-09
1.09195e-09
1.03162e-07
6.73959e-07
8.54942e-07
4.91936e-07
2.18031e-07
3.15137e-07
8.1661e-08
1.28427e-07
7.18922e-08
3.54051e-08
1.46124e-08
2.49341e-09
1.14043e-09
1.14349e-09
1.14043e-09
1.14349e-09
1.40879e-09
1.6768e-09
1.89127e-09
1.85431e-09
7.22746e-09
6.29213e-08
1.44763e-07
2.78184e-07
4.70102e-08
1.38141e-07
2.92596e-08
1.87987e-08
8.04623e-09
4.09895e-09
3.39156e-09
3.27214e-09
3.12972e-09
3.05802e-09
3.73538e-09
4.66671e-09
5.73527e-09
1.22452e-08
1.75992e-08
1.49616e-08
5.1559e-08
3.19463e-07
3.2265e-07
4.90667e-08
1.80213e-07
3.58934e-09
2.70898e-09
2.06995e-09
2.09938e-09
2.24962e-09
2.31814e-09
2.48166e-09
3.01916e-09
5.16728e-09
7.85302e-09
1.33747e-08
2.53068e-08
5.16897e-08
1.15616e-07
1.57643e-07
2.0381e-07
1.56956e-07
1.25384e-08
1.80459e-07
5.64656e-10
6.05263e-10
7.0942e-10
8.72085e-10
1.10286e-09
1.42525e-09
1.85909e-09
2.47986e-09
3.6031e-09
7.33681e-09
1.70121e-08
2.97083e-08
4.58834e-08
6.13707e-08
1.06036e-07
1.00788e-07
3.5003e-08
2.69709e-09
1.75254e-07
1.65018e-10
2.02999e-10
2.57751e-10
3.30279e-10
4.29817e-10
5.78417e-10
8.12786e-10
1.27647e-09
2.0525e-09
3.21384e-09
5.17473e-09
7.7944e-09
9.07325e-09
1.20635e-08
2.5338e-08
4.10857e-08
1.71583e-08
2.65955e-09
1.12986e-07
6.58825e-11
8.30774e-11
1.08896e-10
1.44384e-10
2.00438e-10
2.82756e-10
4.08741e-10
6.27011e-10
1.01641e-09
1.66435e-09
2.7568e-09
4.02608e-09
5.37133e-09
8.23315e-09
1.4446e-08
1.99306e-08
8.08311e-09
2.66732e-09
1.16617e-07
2.48057e-11
3.42287e-11
4.80178e-11
6.85724e-11
1.00745e-10
1.57157e-10
2.61301e-10
4.45337e-10
8.11e-10
1.56098e-09
3.07793e-09
5.24807e-09
9.89608e-09
1.59622e-08
2.21207e-08
1.06392e-08
6.32511e-09
5.35794e-09
1.13225e-07
9.83001e-12
1.35722e-11
1.96971e-11
2.92462e-11
4.58861e-11
8.24724e-11
1.49515e-10
2.80519e-10
6.01092e-10
1.36895e-09
3.09614e-09
6.39757e-09
1.36244e-08
2.82649e-08
3.72629e-08
4.07723e-08
9.00541e-09
1.36464e-08
1.20785e-07
3.16044e-12
4.78987e-12
6.99475e-12
1.06999e-11
1.76399e-11
2.7308e-11
3.58773e-11
7.47892e-11
2.07801e-10
6.93007e-10
2.2106e-09
6.45826e-09
1.38095e-08
3.20979e-08
5.08154e-08
5.08298e-08
2.38604e-08
4.44153e-08
1.23679e-07
1.08843e-12
1.47051e-12
2.11143e-12
3.24929e-12
5.12897e-12
4.71741e-12
5.89029e-12
1.54752e-11
5.20541e-11
2.00415e-10
8.16134e-10
3.42263e-09
1.16299e-08
2.62328e-08
4.7035e-08
4.73094e-08
2.6009e-08
6.86067e-08
1.22055e-07
2.71931e-13
3.89022e-13
5.08989e-13
7.10748e-13
1.08247e-12
1.22168e-12
1.0682e-12
3.45488e-12
1.37373e-11
5.80296e-11
2.7873e-10
1.52349e-09
7.57783e-09
1.89743e-08
3.40823e-08
3.74365e-08
2.37699e-08
1.15391e-07
1.12038e-07
8.05085e-14
9.05756e-14
1.1044e-13
1.38774e-13
1.87911e-13
2.62989e-13
2.85838e-13
9.85156e-13
4.27454e-12
1.85073e-11
8.60862e-11
3.62359e-10
3.2382e-09
8.3832e-09
2.41808e-08
2.33567e-08
3.03418e-08
1.16992e-07
1.17784e-07
2.01332e-14
2.23768e-14
2.51852e-14
3.09622e-14
4.45134e-14
7.46386e-14
1.54135e-13
4.18655e-13
1.7119e-12
7.60425e-12
3.51337e-11
1.36444e-10
1.15154e-09
5.74432e-09
1.02851e-08
2.33794e-08
3.70848e-08
7.13679e-08
2.45759e-07
5.32017e-15
5.47803e-15
6.11537e-15
8.12617e-15
1.3668e-14
3.04901e-14
8.57421e-14
2.75518e-13
9.32728e-13
3.78787e-12
1.68132e-11
6.5133e-11
3.09973e-10
1.53668e-09
5.42147e-09
1.46917e-08
3.67166e-08
2.63363e-08
3.83796e-07
1.39576e-15
1.45181e-15
1.68041e-15
2.50817e-15
5.27776e-15
1.49877e-14
5.047e-14
1.79287e-13
6.45332e-13
2.45687e-12
1.02208e-11
4.13474e-11
1.96189e-10
1.05252e-09
1.93978e-09
4.98557e-09
1.15694e-08
2.247e-08
3.83795e-07
3.56668e-16
3.86227e-16
4.959e-16
8.92802e-16
2.28072e-15
7.40468e-15
2.71153e-14
1.02623e-13
3.88327e-13
1.50964e-12
6.20445e-12
2.53886e-11
9.89976e-11
6.68934e-10
2.05571e-09
2.91488e-09
7.71021e-09
1.87385e-08
3.83799e-07
8.74555e-17
1.00098e-16
1.47552e-16
3.20844e-16
9.41574e-16
3.28069e-15
1.24185e-14
4.84665e-14
1.89603e-13
7.46373e-13
3.1089e-12
1.41692e-11
6.5667e-11
3.21349e-10
2.1008e-09
3.97908e-09
4.90457e-09
2.17379e-08
2.34779e-07
1.9106e-17
2.3182e-17
3.84313e-17
9.69357e-17
3.2257e-16
1.19434e-15
4.58246e-15
1.77926e-14
6.99646e-14
2.81267e-13
1.17194e-12
5.26835e-12
2.43439e-11
1.1829e-10
6.98372e-10
3.51467e-09
6.78083e-09
2.07563e-08
1.0729e-07
3.68479e-18
4.25412e-18
7.73542e-18
2.26808e-17
8.80801e-17
3.68601e-16
1.55165e-15
6.56386e-15
2.81488e-14
1.22702e-13
5.4705e-13
2.49472e-12
1.21443e-11
6.10666e-11
2.95893e-10
1.323e-09
4.38273e-09
8.58449e-09
1.09179e-08
5.87383e-19
6.43203e-19
1.0088e-18
2.87626e-18
1.2771e-17
6.34514e-17
3.04066e-16
1.3871e-15
6.20792e-15
2.84102e-14
1.35749e-13
6.6911e-13
3.5015e-12
1.92174e-11
1.10662e-10
5.26884e-10
1.47889e-09
1.22719e-09
1.6433e-10
7.24189e-20
6.9584e-20
8.71262e-20
1.88018e-19
7.64178e-19
4.32987e-18
2.50827e-17
1.31494e-16
6.13569e-16
2.5727e-15
1.03666e-14
4.73837e-14
2.64756e-13
1.95761e-12
1.82531e-11
1.30001e-10
3.35542e-10
3.88146e-10
1.6433e-10
)
;

boundaryField
{
    leftWall
    {
        type            zeroGradient;
    }
    rightWall
    {
        type            zeroGradient;
    }
    lowerWall
    {
        type            zeroGradient;
    }
    atmosphere
    {
        type            inletOutlet;
        inletValue      uniform 0;
        value           nonuniform List<scalar> 
46
(
9.55197e-08
1.96238e-08
1.0114e-08
3.47094e-08
0
0
0
0
0
0
0
0
0
0
0
0
0
0
1.78655e-16
4.23852e-16
3.95847e-16
9.11333e-17
8.17325e-18
1.37227e-19
8.76846e-20
0
0
0
0
0
0
0
0
0
0
0
0
0
0
0
1.95761e-12
1.82531e-11
1.30001e-10
3.35543e-10
3.88146e-10
1.6433e-10
)
;
    }
    defaultFaces
    {
        type            empty;
    }
}


// ************************************************************************* //
