/*--------------------------------*- C++ -*----------------------------------*\
| =========                 |                                                 |
| \\      /  F ield         | OpenFOAM: The Open Source CFD Toolbox           |
|  \\    /   O peration     | Version:  2312                                  |
|   \\  /    A nd           | Website:  www.openfoam.com                      |
|    \\/     M anipulation  |                                                 |
\*---------------------------------------------------------------------------*/
FoamFile
{
    version     2.0;
    format      ascii;
    arch        "LSB;label=32;scalar=64";
    class       volScalarField;
    location    "4.85";
    object      alpha.oil;
}
// * * * * * * * * * * * * * * * * * * * * * * * * * * * * * * * * * * * * * //

dimensions      [0 0 0 0 0 0 0];

internalField   nonuniform List<scalar> 
2268
(
9.25058e-10
9.25058e-10
9.69954e-10
2.47223e-09
8.26672e-09
1.2304e-08
1.11716e-08
8.35107e-09
5.24012e-09
3.25724e-09
2.05513e-09
1.48746e-09
1.10181e-09
8.7036e-10
8.3479e-10
1.04483e-09
1.74673e-09
4.80409e-09
2.55264e-08
1.48668e-07
2.25315e-05
4.4647e-05
4.45873e-05
2.63299e-09
1.24896e-09
2.98711e-09
2.02968e-08
5.49908e-08
7.03294e-08
6.98111e-08
4.98181e-08
2.64924e-08
1.41835e-08
7.25317e-09
4.47814e-09
2.96745e-09
2.59367e-09
2.58305e-09
3.4457e-09
7.59554e-09
2.45463e-08
8.58932e-08
3.07881e-07
4.96766e-06
3.14033e-05
3.52554e-05
1.6328e-08
8.9506e-09
3.34649e-09
2.58046e-08
6.12024e-08
7.30141e-08
7.23754e-08
5.94951e-08
2.5319e-08
1.23122e-08
8.89237e-09
5.19006e-09
4.37368e-09
5.44294e-09
6.78018e-09
1.56821e-08
7.47841e-08
2.67911e-07
3.49801e-07
2.96443e-07
1.27174e-07
1.97653e-09
1.99258e-09
3.49762e-09
3.27318e-09
3.03991e-09
3.27805e-09
3.97496e-09
4.47961e-09
4.91967e-09
5.66055e-09
3.43279e-09
3.42414e-09
3.71491e-09
3.5369e-09
3.52101e-09
3.50782e-09
3.51556e-09
4.34508e-09
2.48613e-08
9.96383e-08
1.97975e-07
1.5686e-07
3.73601e-08
2.87794e-09
1.86164e-08
0.00241906
0.00266393
0.0029105
0.00271284
0.00196295
0.000748045
5.97617e-05
8.26067e-06
5.15745e-05
0.000135951
0.000201044
5.62299e-05
4.12217e-05
4.50608e-05
3.52325e-09
3.5319e-09
3.53627e-09
4.15822e-08
2.00326e-07
1.83114e-07
1.15443e-07
3.84057e-08
2.70889e-08
0.00533746
0.00545345
0.00554658
0.00554689
0.00554658
0.00413912
0.00067797
8.14751e-06
0.000161937
0.000639228
0.000639104
0.00053729
0.00025549
0.000790748
0.00110419
0.000308646
2.99359e-05
3.02198e-05
0.00348485
0.00620484
0.00411181
0.000145512
2.83428e-08
0.000444724
0.000585177
0.00126919
0.00238646
0.0023785
0.0020374
0.00121117
0.000226319
3.70233e-05
0.000239127
0.00063922
0.000637347
0.000179723
0.000774761
0.0024148
0.00236925
0.0016711
0.0302003
0.075047
0.0832026
0.0762016
0.0520668
0.0075238
-4.26823e-24
-1.70153e-23
-8.55438e-23
9.23713e-08
2.11384e-08
1.08899e-06
4.47112e-05
6.24042e-05
3.70675e-05
5.44885e-05
0.00020759
0.000210556
0.000113715
0.000112963
0.000448901
0.00574651
0.0411699
0.0959913
0.0957551
0.0933722
0.097904
0.0979057
0.0322531
0.0268541
0.0281466
0.0274198
0.0265244
0.0265243
0.0265239
0.0265248
0.026528
0.0265309
0.026533
0.0265374
0.0265372
0.0270188
0.0284045
0.028365
0.0273827
0.0267817
0.0267713
0.0267713
0.0519496
0.0568133
0.0490253
0.0382608
0.0346955
0.0303125
0.0269462
0.0275717
0.0281516
0.0282277
0.0284579
0.0296763
0.0423482
0.0658654
0.076606
0.0841518
0.101857
0.125676
0.150597
0.253024
0.252339
0.229487
0.179543
0.159546
0.185632
0.214967
0.225846
0.239556
0.271237
0.33064
0.38661
0.428095
0.459616
0.451863
0.45195
0.436994
0.411144
0.419948
0.253023
0.164795
0.190806
0.177607
0.145979
0.140648
0.144974
0.179951
0.22249
0.234712
0.259957
0.392144
0.494812
0.495081
0.495227
0.342626
0.0915219
0.0573433
0.324748
0.201816
0.00377185
0.00380135
0.00379427
0.00384427
0.0079792
0.0198591
0.02494
0.0145763
0.00862991
0.00681802
0.0147074
0.0399722
0.419934
0.495578
0.059811
0.0293476
0.0293133
0.238584
0.0590671
0.00476272
0.0047928
0.00740068
0.00745637
0.0123974
0.00976886
0.00958509
0.00619899
0.00387112
0.00387112
0.0038773
0.011305
0.346032
0.4959
0.140621
0.0505562
0.0323165
0.113949
0.0340462
0.00720079
0.00694891
0.0422957
0.058366
0.029586
0.0133135
0.0170768
0.00760141
0.0040759
0.00387117
0.00387117
0.00387115
0.274036
0.4962
0.459606
0.102108
0.0402649
0.0344228
0.00368332
0.00364365
0.00566963
0.0575638
0.0875726
0.0769937
0.0497538
0.0214788
0.0202966
0.10355
0.086367
0.00788842
0.00694719
0.0630363
0.495843
0.209284
0.0720419
0.0427674
0.0288729
-1.77407e-21
-2.858e-22
-1.46079e-19
-4.69015e-11
7.15256e-13
2.00214e-08
8.44765e-07
6.79176e-07
1.10979e-06
2.19924e-11
1.61533e-05
7.23e-05
5.27839e-05
0.000112602
0.000230634
0.00405522
0.0302918
0.0210886
0.0044311
0.00731691
0.0376675
0.0361789
0.0323186
0.0399035
0.0434499
0.0445853
0.039208
0.0158162
0.000355527
9.67785e-11
1.00078e-10
2.19041e-11
2.18441e-11
2.12415e-07
1.32048e-06
3.3381e-06
1.47338e-05
1.82287e-05
0.00143658
0.00298885
0.000109565
3.03558e-20
-7.04544e-06
-1.73356e-05
8.59235e-05
0.00931048
0.718961
0.717808
0.736244
0.708448
0.558224
0.355993
0.170712
0.140389
0.0995906
0.0234642
-5.30318e-20
3.27859e-24
-2.95748e-24
-1.59431e-06
-1.72529e-24
1.0782e-08
1.48514e-07
0.0527335
0.123778
0.172319
0.244038
0.371105
0.517876
0.959593
0.985365
0.984919
0.984519
0.942757
0.861256
0.71998
0.674412
0.664696
0.591577
0.489125
0.413906
0.401705
0.392051
0.384173
0.442848
0.658984
0.834013
0.873291
0.900794
0.946323
0.974472
0.99482
0.992577
0.994624
0.961177
0.958074
0.958447
0.925733
0.923654
0.966454
0.976614
0.97112
0.986209
0.971337
0.958236
0.962035
0.974376
0.98837
0.996272
0.991637
0.98439
0.986237
0.999138
0.999137
0.999132
0.998817
0.995268
0.981031
0.97866
0.995189
0.961902
0.95746
0.99897
0.999724
0.999726
0.999726
0.999726
0.999726
0.999726
0.999724
0.99971
0.999323
0.98972
0.96176
0.930414
0.931934
0.968109
0.982048
0.99894
0.998785
0.999729
0.999729
0.999729
0.999606
0.998497
0.999673
0.999725
0.999726
0.999728
0.999728
0.999729
0.999639
0.999724
0.985126
0.848784
0.645255
0.383645
0.241189
0.229803
0.322928
0.383324
0.999459
0.999728
0.999728
0.999729
0.999729
0.999729
0.999729
0.999728
0.999664
0.999294
0.992808
0.987575
0.928515
0.759307
0.504712
0.253212
0.0883761
0.0136652
3.01908e-05
1.3555e-19
5.66307e-20
1.03769e-16
1.17697e-16
0.999495
0.999497
0.999439
0.997814
0.997105
0.999182
0.999692
0.999728
0.999438
0.983201
0.922855
0.706254
0.34657
0.111818
0.00902705
-9.09476e-19
-1.34994e-19
7.77671e-16
5.60904e-11
1.10146e-07
3.25489e-07
6.82339e-07
1.55484e-06
0.95273
0.965199
0.981592
0.98701
0.990497
0.992383
0.997119
0.995932
0.980561
0.884395
0.555211
0.106218
1.5918e-17
2.27626e-17
3.55776e-14
1.26381e-06
4.79556e-06
4.40199e-06
1.48396e-06
1.81171e-07
2.83975e-07
1.44051e-06
6.85533e-06
0.258826
0.294644
0.359448
0.433788
0.493412
0.538124
0.545134
0.510861
0.396427
0.184177
0.0169803
0.000384868
5.23023e-15
3.21459e-14
1.043e-08
1.34835e-09
1.09032e-05
4.94777e-05
3.18601e-05
1.37274e-06
2.26728e-09
3.93524e-06
1.92823e-05
6.81526e-20
1.49325e-20
9.28052e-21
2.45061e-20
-1.62378e-13
-8.3484e-10
-4.01887e-10
-4.30034e-26
2.30293e-17
2.43809e-17
2.5549e-17
1.80109e-14
9.90373e-09
3.54559e-09
3.97039e-09
1.23914e-09
4.16426e-05
4.99706e-05
4.59434e-05
7.79071e-06
5.54445e-09
1.1396e-05
1.888e-05
7.40699e-10
2.9919e-10
1.53733e-10
7.01982e-10
2.88466e-11
7.80129e-14
5.77468e-11
1.62978e-08
3.59763e-08
1.87849e-07
1.19434e-07
3.19574e-09
6.21714e-09
1.15241e-09
1.19522e-09
3.05696e-05
4.85695e-05
4.70253e-05
2.48023e-05
3.39905e-07
1.03764e-07
1.80604e-05
1.91416e-05
5.58468e-09
3.15421e-09
1.0636e-09
8.62687e-09
3.30337e-08
1.28193e-07
3.13241e-08
1.01282e-07
2.2758e-07
2.3438e-07
1.23104e-08
5.50007e-11
1.03355e-10
8.83744e-06
3.61658e-05
4.64522e-05
3.32387e-05
1.47119e-05
2.30885e-07
5.79249e-13
9.74307e-13
1.20043e-05
1.71103e-05
1.05931e-08
6.01553e-09
2.83501e-09
5.57149e-08
2.50017e-07
3.88802e-07
2.37022e-07
5.65156e-08
5.65162e-08
7.54582e-07
1.47516e-06
6.34595e-06
3.49293e-05
4.69539e-05
4.65927e-05
2.81708e-05
9.05008e-07
4.15716e-08
3.89406e-08
1.44015e-08
1.0714e-12
2.2936e-06
2.11747e-06
1.92812e-08
2.41627e-08
2.6996e-08
1.03315e-07
3.36114e-07
3.8948e-07
3.8482e-07
5.65163e-08
5.65155e-08
5.65901e-08
1.90578e-06
1.68102e-05
3.30518e-05
2.55563e-05
1.26379e-05
3.13293e-07
6.47629e-08
7.90856e-08
1.07359e-07
7.70542e-08
3.04222e-08
8.28533e-08
3.58984e-07
1.89788e-08
3.78155e-08
6.71737e-08
1.27323e-07
2.32751e-07
3.86379e-07
3.90401e-07
1.44967e-07
5.65164e-08
8.27068e-07
2.09687e-06
3.40159e-06
1.29705e-06
1.24445e-07
1.23583e-08
3.60229e-08
2.6968e-08
3.4192e-08
4.10081e-08
1.89696e-08
5.23577e-09
2.11104e-07
5.39245e-07
1.89672e-08
3.26187e-08
6.75781e-08
9.64365e-08
1.30159e-07
1.33022e-07
1.7639e-07
1.39121e-07
9.47828e-08
1.23501e-07
1.55673e-07
5.31576e-09
5.3593e-09
1.1329e-08
1.21228e-08
1.65961e-08
1.14019e-08
1.05499e-08
9.03212e-09
3.9092e-09
2.31782e-09
1.06967e-07
5.6664e-07
1.22873e-08
2.164e-08
3.64887e-08
4.67638e-08
5.31091e-08
4.53467e-08
3.89167e-08
4.48053e-08
1.9108e-08
7.94698e-09
5.31165e-09
5.27223e-09
5.47272e-09
6.14715e-09
5.79887e-09
4.89884e-09
4.02657e-09
3.73615e-09
3.53824e-09
3.03393e-09
2.32553e-09
2.36405e-09
4.40052e-07
6.6504e-09
1.38285e-08
2.13504e-08
2.7349e-08
2.8622e-08
3.00499e-08
2.48986e-08
1.81005e-08
1.10488e-08
6.71178e-09
5.55716e-09
4.95833e-09
4.0046e-09
3.10154e-09
2.66401e-09
2.33531e-09
2.38115e-09
2.60054e-09
2.89028e-09
3.07881e-09
2.3182e-09
1.3152e-08
1.93039e-07
4.26975e-09
1.11949e-08
1.69913e-08
2.01049e-08
2.00518e-08
1.80967e-08
1.39017e-08
9.99776e-09
6.67745e-09
5.01164e-09
3.82832e-09
2.87192e-09
2.23981e-09
1.83321e-09
1.64166e-09
1.61583e-09
1.74161e-09
1.99999e-09
2.35663e-09
2.87519e-09
3.37117e-09
3.63248e-09
6.49713e-08
3.17863e-09
8.04969e-09
1.18299e-08
1.36347e-08
1.28737e-08
1.06807e-08
7.71226e-09
5.19073e-09
3.55772e-09
2.58027e-09
1.91912e-09
1.45694e-09
1.15791e-09
9.99905e-10
9.59104e-10
1.01613e-09
1.14876e-09
1.35505e-09
1.69048e-09
2.21272e-09
2.66349e-09
3.62229e-09
7.7886e-09
2.7874e-09
5.89649e-09
7.73609e-09
7.94794e-09
6.95561e-09
5.47386e-09
3.79432e-09
2.54578e-09
1.71132e-09
1.21315e-09
8.83563e-10
6.78258e-10
5.55761e-10
4.9934e-10
5.05211e-10
5.65999e-10
6.76696e-10
8.45616e-10
1.07498e-09
1.43435e-09
1.94024e-09
2.44628e-09
5.94718e-09
2.69324e-09
4.40971e-09
5.29612e-09
4.94496e-09
3.95822e-09
2.88086e-09
1.85582e-09
1.22208e-09
8.53091e-10
6.12244e-10
4.56123e-10
3.52035e-10
2.84904e-10
2.51524e-10
2.55261e-10
2.95979e-10
3.72823e-10
4.90721e-10
6.56049e-10
8.90755e-10
1.10133e-09
1.77447e-09
2.69473e-09
2.60347e-09
3.37551e-09
3.54863e-09
3.04243e-09
2.3116e-09
1.59767e-09
1.02627e-09
7.51482e-10
5.7545e-10
4.55701e-10
3.55139e-10
2.6729e-10
1.98189e-10
1.53411e-10
1.37632e-10
1.52232e-10
1.95934e-10
2.70148e-10
3.76014e-10
5.07512e-10
7.0934e-10
8.47327e-10
1.46417e-09
2.54375e-09
2.66309e-09
2.52431e-09
2.11127e-09
1.59458e-09
1.12272e-09
7.8556e-10
6.38764e-10
5.63125e-10
4.81775e-10
3.85465e-10
2.8431e-10
1.94511e-10
1.28425e-10
9.11126e-11
8.23668e-11
9.9886e-11
1.41687e-10
2.06134e-10
2.94571e-10
3.79633e-10
5.92982e-10
7.33976e-10
2.5241e-09
2.32358e-09
2.07476e-09
1.74825e-09
1.42391e-09
1.07465e-09
7.30747e-10
6.68702e-10
6.21262e-10
5.46855e-10
4.45037e-10
3.2932e-10
2.20317e-10
1.34676e-10
7.91694e-11
5.31831e-11
5.20502e-11
7.18563e-11
1.09086e-10
1.63208e-10
2.43229e-10
3.17062e-10
4.84877e-10
2.53606e-09
2.1508e-09
1.92581e-09
1.72904e-09
1.53855e-09
1.00237e-09
7.30503e-10
7.44486e-10
6.68263e-10
5.91276e-10
4.86805e-10
3.66382e-10
2.47747e-10
1.50431e-10
8.15713e-11
4.34912e-11
3.10421e-11
3.73372e-11
5.88766e-11
9.515e-11
1.38284e-10
2.37323e-10
3.10042e-10
2.60077e-09
2.12681e-09
2.03738e-09
2.62003e-09
3.71141e-09
8.1465e-10
8.20822e-10
1.01049e-09
6.77222e-10
5.89049e-10
4.86253e-10
3.73748e-10
2.59413e-10
1.60369e-10
8.66097e-11
4.25344e-11
2.28092e-11
2.11289e-11
3.27208e-11
5.353e-11
1.00498e-10
1.45017e-10
2.41353e-10
2.61479e-09
2.20517e-09
1.99742e-09
2.9977e-09
7.82959e-09
6.86073e-10
1.20078e-09
1.87043e-09
6.02688e-10
5.06735e-10
4.32598e-10
3.44753e-10
2.46678e-10
1.58145e-10
8.80989e-11
4.2983e-11
1.99456e-11
1.38379e-11
1.96427e-11
3.54306e-11
5.82365e-11
1.18396e-10
1.65575e-10
2.97308e-09
3.85032e-09
4.4811e-09
2.81311e-09
3.22495e-09
9.73708e-10
1.52408e-09
2.88739e-09
4.6742e-10
4.36294e-10
3.63988e-10
2.92713e-10
2.13489e-10
1.40567e-10
8.27302e-11
4.16973e-11
1.84735e-11
1.00923e-11
1.21192e-11
2.1522e-11
4.70339e-11
7.6326e-11
1.34668e-10
3.16136e-09
7.57006e-09
5.42184e-08
1.04159e-07
3.23954e-09
8.44624e-09
2.1787e-08
5.77545e-10
3.94849e-10
3.79445e-10
2.88671e-10
2.28217e-10
1.66631e-10
1.13292e-10
6.97493e-11
3.7102e-11
1.67087e-11
7.78384e-12
7.54622e-12
1.40638e-11
2.63667e-11
6.17293e-11
9.23999e-11
4.23153e-09
4.24022e-09
6.6527e-08
1.98471e-07
4.54518e-09
2.2476e-08
4.74294e-08
3.91739e-10
3.88509e-10
3.17039e-10
2.12875e-10
1.65498e-10
1.20614e-10
8.17153e-11
5.20784e-11
2.9536e-11
1.4062e-11
6.08846e-12
4.52682e-12
8.35985e-12
1.86545e-11
3.34829e-11
7.14702e-11
5.088e-09
4.25319e-09
4.87439e-09
2.03278e-07
2.17102e-08
4.49012e-08
4.89207e-08
6.6613e-09
4.72523e-10
2.52499e-10
1.46738e-10
1.12443e-10
8.06522e-11
5.31223e-11
3.40113e-11
2.05662e-11
1.06889e-11
4.68149e-12
2.77905e-12
4.46631e-12
9.24884e-12
2.59647e-11
3.99893e-11
1.21951e-08
5.95916e-08
3.24637e-07
1.98375e-07
8.08499e-08
1.08273e-07
4.01858e-08
7.83501e-09
9.37907e-10
1.96342e-10
9.57645e-11
7.2413e-11
4.98225e-11
3.11614e-11
1.93317e-11
1.21542e-11
6.96402e-12
3.29565e-12
1.72499e-12
2.35139e-12
5.11726e-12
1.08522e-11
2.63077e-11
1.21855e-08
1.61066e-07
7.98838e-07
4.11817e-07
1.09908e-07
1.257e-07
5.08318e-08
1.03092e-08
1.37576e-09
1.72458e-10
5.92167e-11
4.30939e-11
2.86816e-11
1.66245e-11
9.56759e-12
5.97808e-12
3.76893e-12
2.032e-12
1.03222e-12
1.23195e-12
2.82149e-12
6.81968e-12
1.27822e-11
1.80222e-08
2.71919e-07
8.37423e-07
8.17761e-07
1.32013e-07
1.30945e-07
5.24751e-08
1.3842e-08
2.15754e-09
2.07156e-10
3.53623e-11
2.37082e-11
1.53727e-11
8.16667e-12
4.18135e-12
2.4114e-12
1.59611e-12
1.00549e-12
5.47503e-13
5.0228e-13
1.0734e-12
2.38958e-12
6.98335e-12
1.56269e-08
2.64911e-07
8.37493e-07
8.37157e-07
1.65781e-07
1.01724e-07
4.30082e-08
1.38201e-08
2.58789e-09
2.55208e-10
2.20004e-11
1.16181e-11
7.4847e-12
3.73862e-12
1.66447e-12
8.1904e-13
5.14467e-13
3.68989e-13
2.45908e-13
2.12319e-13
4.49176e-13
1.13722e-12
2.44662e-12
1.31331e-08
1.87736e-07
8.37493e-07
8.37419e-07
1.65446e-07
7.08238e-08
3.1317e-08
1.08213e-08
2.19855e-09
2.41177e-10
1.41492e-11
4.85577e-12
3.19864e-12
1.54259e-12
6.05177e-13
2.33315e-13
1.24412e-13
9.51043e-14
8.29921e-14
7.58697e-14
1.5105e-13
3.57992e-13
9.18442e-13
8.51876e-09
1.34349e-07
8.3749e-07
4.82918e-07
1.25864e-07
5.81074e-08
2.55433e-08
7.86352e-09
1.47231e-09
1.44354e-10
6.65771e-12
1.54865e-12
1.0912e-12
5.3514e-13
1.94558e-13
6.08811e-14
2.34104e-14
1.65013e-14
1.83189e-14
2.33263e-14
4.02474e-14
1.2479e-13
2.89957e-13
4.47902e-09
1.19665e-07
8.09041e-07
2.76696e-07
9.06096e-08
4.3538e-08
1.61293e-08
3.79696e-09
5.49894e-10
3.82127e-11
1.22191e-12
3.13607e-13
2.5267e-13
1.31481e-13
4.691e-14
1.24745e-14
3.263e-15
1.93527e-15
2.95224e-15
5.49479e-15
1.19747e-14
3.42249e-14
8.97943e-14
4.31649e-09
9.54924e-08
2.14882e-07
9.76337e-08
4.99214e-08
2.02356e-08
4.38757e-09
5.83322e-10
4.32142e-11
1.49833e-12
3.50998e-14
3.04125e-14
2.92528e-14
1.68125e-14
6.2281e-15
1.46956e-15
2.8204e-16
1.45753e-16
3.56567e-16
1.11391e-15
3.18219e-15
9.81826e-15
2.39329e-14
0.0244413
0.0172342
0.0191158
0.0124889
0.00748014
0.00713464
0.0149804
0.0234099
0.460076
0.487359
0.61191
0.756354
0.99897
0.998398
0.99678
0.995158
0.99914
0.999139
0.999136
0.999128
0.982385
0.978963
0.980363
0.986429
0.375364
0.351844
0.360516
0.393031
6.18021e-17
1.20703e-14
-4.53714e-26
-2.12675e-27
2.51441e-06
5.1486e-07
6.26699e-08
2.01865e-09
6.45949e-06
1.98589e-06
4.74739e-10
8.7939e-10
1.92768e-05
1.68624e-05
5.99442e-06
8.31967e-10
1.91565e-05
1.92083e-05
1.81631e-05
1.28746e-05
1.92037e-05
1.81689e-05
1.79423e-05
1.49963e-05
1.06206e-05
1.39647e-05
1.1344e-05
9.04389e-06
4.8207e-07
1.27101e-06
7.72808e-06
1.25836e-05
3.01022e-07
1.92361e-06
1.23755e-05
1.27273e-05
2.96724e-07
2.21481e-07
6.12581e-06
1.26115e-05
4.95896e-07
2.33162e-07
9.87772e-07
5.46382e-07
3.80847e-07
2.03855e-07
7.34188e-08
7.20245e-08
2.97426e-07
2.99474e-07
1.37156e-07
1.20875e-07
1.23532e-07
1.40379e-07
1.39104e-07
1.03143e-07
1.818e-08
5.09554e-08
4.70223e-08
3.54419e-08
7.12224e-09
5.48276e-09
1.42023e-08
1.6234e-08
3.33353e-09
4.61246e-09
5.71927e-09
8.24389e-09
1.7875e-09
1.7844e-09
2.60693e-09
3.15326e-09
9.22936e-10
1.11803e-09
1.14406e-09
1.45201e-09
5.62064e-10
6.04614e-10
7.70615e-10
8.44745e-10
3.96477e-10
4.77849e-10
5.22103e-10
6.18376e-10
2.9811e-10
3.434e-10
4.31575e-10
4.67049e-10
2.27639e-10
2.9244e-10
3.3035e-10
3.98485e-10
1.78874e-10
2.16495e-10
2.79753e-10
3.06002e-10
1.40214e-10
1.77219e-10
2.01293e-10
2.52469e-10
9.80046e-11
1.17511e-10
1.52465e-10
1.60606e-10
6.94758e-11
8.10013e-11
9.29377e-11
1.20075e-10
3.75569e-11
4.63858e-11
5.88705e-11
6.27915e-11
2.12453e-11
2.56153e-11
2.99393e-11
3.78109e-11
1.00986e-11
1.24795e-11
1.51252e-11
1.72325e-11
4.26435e-12
5.02348e-12
6.04995e-12
7.48391e-12
1.45459e-12
1.80728e-12
2.16862e-12
2.57512e-12
4.6348e-13
5.70457e-13
7.04617e-13
8.30873e-13
1.34953e-13
1.6146e-13
1.85077e-13
2.12488e-13
3.28132e-14
3.39797e-14
3.68596e-14
3.88797e-14
0.00364321
0.00364316
0.00599131
0.0456744
0.0874422
0.0773666
0.0241387
0.0214955
0.0329387
0.224411
0.38882
0.260816
0.00668041
0.0228226
0.0717204
0.0366954
0.0222515
0.032631
0.0287668
0.0892279
0.0665124
0.0770407
0.0787738
0.0309107
0.0216593
0.0216583
0.0338216
0.397275
0.826107
0.8682
0.603058
0.113333
0.0212234
0.0224024
0.0192025
0.0193264
0.0277539
0.0278744
0.832791
0.61374
0.387767
0.28402
0.192343
0.251324
0.442568
0.933116
0.973687
0.975727
0.887363
0.877031
0.88231
0.569523
0.277524
0.152591
0.0606691
0.0283551
0.0279964
0.993521
0.885187
0.702472
0.682028
0.859987
0.996406
0.997171
0.996498
0.997914
0.997557
0.958313
0.898578
0.986217
0.99434
0.953765
0.771124
0.658118
0.737032
0.790069
0.999121
0.974361
0.788235
0.763836
0.967538
0.997836
0.997913
0.997913
0.997916
0.997916
0.997142
0.972706
0.994673
0.995214
0.997784
0.997784
0.997732
0.99333
0.992175
0.990962
0.986217
0.850322
0.718797
0.823567
0.945045
0.997876
0.997913
0.997913
0.997813
0.997929
0.997923
0.997922
0.997654
0.997784
0.997784
0.997784
0.997784
0.993427
0.453943
0.54859
0.642116
0.660145
0.682695
0.65368
0.801517
0.934817
0.979429
0.971571
0.996633
0.997304
0.997547
0.997604
0.997115
0.996601
0.994102
0.98172
0.917834
4.05527e-23
-1.95528e-21
-1.4724e-20
0.00933549
0.0440345
0.117873
0.188884
0.268468
0.334971
0.34129
0.424515
0.521642
0.551462
0.551814
0.523936
0.519872
0.475828
0.431368
0.447216
1.24216e-10
-9.51039e-14
-1.66593e-12
3.62223e-27
6.22389e-25
2.45867e-16
3.3895e-08
2.10185e-10
2.26466e-10
2.27869e-10
4.77099e-18
-8.8016e-11
8.30874e-29
1.20532e-25
-7.25238e-25
-1.27137e-24
9.6158e-22
0.00042607
0.00722501
1.23588e-08
2.83256e-08
3.78142e-08
2.74915e-08
9.10208e-09
2.12914e-07
1.44912e-05
2.10398e-06
2.26377e-07
9.49627e-08
3.83786e-09
2.55031e-14
2.59435e-10
1.52622e-06
1.34328e-05
4.90068e-06
3.275e-07
3.77822e-15
2.11986e-15
1.6469e-08
5.32881e-08
5.0006e-08
2.14046e-08
1.4295e-06
0.000109679
0.000205637
0.000131594
3.6634e-06
6.22393e-07
3.28766e-07
1.86827e-06
1.51117e-05
2.14925e-05
5.2042e-05
3.17124e-05
2.91252e-05
6.17132e-05
5.48326e-05
1.82552e-07
4.44719e-08
5.84106e-08
2.14121e-08
3.76664e-05
0.00021499
0.000215924
0.00021691
7.75471e-06
1.59895e-07
1.45882e-07
1.44777e-07
1.71187e-05
0.000117453
0.00011736
0.000115882
9.9302e-05
0.000113283
0.000111648
1.57993e-06
4.46043e-08
8.23942e-08
2.14026e-08
8.88369e-05
0.000215786
0.000217126
0.000216678
7.54917e-05
2.22214e-06
1.0525e-05
5.89628e-05
1.51148e-05
5.77264e-05
0.000117444
0.000118281
0.000118188
0.000100481
6.93748e-05
8.7308e-06
3.65986e-06
8.44883e-08
2.02842e-06
0.000154656
0.000216929
0.000169734
0.000200747
0.000107763
1.24959e-05
0.000143742
0.000143347
7.19479e-05
1.78699e-05
6.63117e-05
0.000116022
4.09153e-05
7.6744e-06
9.39787e-06
1.04434e-05
9.72679e-06
6.76155e-06
4.31835e-05
0.000168629
7.53331e-05
9.80845e-06
2.42423e-05
0.000100832
0.000101201
9.46866e-05
5.96451e-05
4.95364e-05
1.7884e-05
6.52372e-05
2.06429e-05
3.12587e-06
3.09696e-06
9.12926e-06
3.77609e-06
4.07389e-06
5.95787e-05
9.94063e-05
0.00011454
3.37918e-06
3.37668e-06
3.37289e-06
6.23017e-06
1.17696e-05
1.15346e-05
1.59481e-05
2.81635e-05
2.82153e-05
2.17326e-05
7.26552e-06
5.259e-06
3.07478e-06
1.28782e-05
1.08001e-07
1.20915e-06
5.01719e-05
0.000102173
3.01917e-05
3.38102e-06
3.37779e-06
3.53771e-06
3.5274e-06
3.52751e-06
1.40511e-05
1.85097e-05
2.08789e-05
1.33517e-05
6.52751e-06
6.72246e-06
5.44953e-06
3.00918e-06
1.28874e-05
9.31177e-08
1.68039e-06
1.12452e-05
2.70981e-05
3.96264e-06
3.38074e-06
3.3836e-06
4.64186e-06
6.53815e-06
7.03701e-06
7.9818e-06
9.28409e-06
8.21548e-06
7.84623e-06
1.92864e-06
6.96082e-06
1.85203e-05
3.30009e-06
6.53442e-06
1.0421e-07
4.95456e-07
3.42253e-06
2.76601e-06
3.49288e-06
3.90894e-06
5.63793e-06
5.6605e-06
5.0586e-06
6.47656e-06
2.13982e-05
3.55427e-05
3.57503e-05
1.47688e-05
1.97121e-06
1.69622e-06
2.09018e-05
8.36079e-06
1.42951e-07
3.80817e-08
3.2693e-08
3.26294e-08
3.25788e-08
6.97622e-06
1.087e-05
1.16228e-05
1.17154e-05
7.89986e-06
2.86394e-08
2.45153e-06
3.00854e-05
3.60294e-05
3.65271e-05
2.5674e-05
1.70528e-06
2.09315e-05
1.98904e-05
1.44276e-07
2.70797e-08
3.15085e-08
3.21853e-08
3.26294e-08
5.94518e-07
1.6629e-06
5.35008e-06
4.75066e-06
1.27224e-06
1.38268e-08
1.37674e-08
1.38257e-08
1.6749e-05
3.57872e-05
3.48543e-05
4.60104e-06
1.21448e-05
1.91255e-05
7.00857e-07
2.43846e-08
5.63595e-08
6.10116e-08
5.95405e-08
4.57846e-08
2.48838e-08
2.4899e-08
2.48838e-08
2.71074e-08
4.46902e-08
2.97499e-08
1.64067e-08
1.47539e-08
2.73594e-06
4.89713e-06
1.51784e-06
4.64472e-06
1.10999e-05
1.13525e-06
2.42919e-08
3.65003e-08
4.52968e-08
4.97483e-08
4.54191e-08
4.17764e-08
3.60086e-08
2.82241e-08
2.33441e-08
2.62424e-08
2.99102e-08
2.87638e-08
2.0063e-08
1.25086e-08
1.24859e-08
1.25079e-08
2.57722e-06
3.97236e-06
9.6967e-07
1.20242e-08
1.53124e-08
1.91199e-08
2.33154e-08
2.54117e-08
2.6359e-08
2.63455e-08
2.45572e-08
2.21801e-08
2.36536e-08
2.93577e-08
3.75337e-08
4.38505e-08
2.96621e-08
1.2399e-08
1.24818e-08
2.26911e-06
3.9468e-06
6.02203e-07
4.42402e-09
5.19416e-09
6.21551e-09
7.3174e-09
8.60851e-09
1.00145e-08
1.14882e-08
1.28021e-08
1.40485e-08
1.65905e-08
2.31336e-08
3.56599e-08
4.8559e-08
3.72184e-08
1.23728e-08
2.06128e-07
1.04543e-06
6.3029e-07
2.34782e-07
1.70227e-09
1.96884e-09
2.29687e-09
2.68251e-09
3.21996e-09
4.0144e-09
5.13649e-09
6.54548e-09
8.07481e-09
1.04386e-08
1.54595e-08
2.41451e-08
3.42175e-08
2.63685e-08
3.52943e-08
3.77608e-07
2.4776e-07
1.85766e-07
8.85784e-08
9.77901e-10
1.11916e-09
1.32257e-09
1.58491e-09
1.98441e-09
2.51053e-09
3.20763e-09
4.16949e-09
5.60232e-09
7.74348e-09
1.11711e-08
1.57296e-08
2.11242e-08
2.18806e-08
3.87906e-08
3.4674e-07
2.17665e-07
8.87769e-08
8.90311e-08
6.77188e-10
8.17717e-10
1.00412e-09
1.2478e-09
1.58743e-09
2.06622e-09
2.72227e-09
3.54588e-09
4.74525e-09
6.5319e-09
9.48838e-09
1.27369e-08
1.64716e-08
3.2843e-08
6.59478e-08
2.24267e-07
1.48472e-07
1.00174e-07
5.77784e-08
5.51529e-10
6.82275e-10
8.6458e-10
1.10814e-09
1.46845e-09
1.98228e-09
2.69385e-09
3.63686e-09
4.79567e-09
6.24048e-09
8.36349e-09
9.81016e-09
1.31198e-08
4.98497e-08
8.71431e-08
1.08951e-07
7.64513e-08
5.15296e-08
4.5698e-08
4.49043e-10
5.80262e-10
7.57001e-10
1.01438e-09
1.4201e-09
2.04362e-09
2.97829e-09
4.23042e-09
5.75299e-09
7.38194e-09
9.54888e-09
1.00036e-08
1.16327e-08
6.18853e-08
7.79365e-08
6.20539e-08
4.06232e-08
2.63987e-08
4.54747e-08
3.74916e-10
4.84999e-10
6.50518e-10
9.13794e-10
1.36346e-09
2.13114e-09
3.50885e-09
5.63658e-09
8.27273e-09
1.07719e-08
1.3893e-08
1.27376e-08
1.17779e-08
4.1915e-08
6.13259e-08
2.83434e-08
2.83871e-08
2.63545e-08
4.78759e-08
2.77563e-10
3.862e-10
5.3184e-10
7.90083e-10
1.27644e-09
2.18045e-09
3.92384e-09
6.8533e-09
1.09784e-08
1.66469e-08
2.94095e-08
3.21597e-08
1.16152e-08
1.79032e-08
4.10005e-08
2.90642e-08
2.69061e-08
8.14095e-08
4.75581e-08
2.09635e-10
2.79497e-10
4.06389e-10
6.43044e-10
1.13017e-09
2.14065e-09
4.21543e-09
8.13807e-09
1.44246e-08
2.45439e-08
6.52278e-08
1.37641e-07
6.18449e-08
1.53444e-08
2.19877e-08
8.51672e-08
1.23594e-07
1.4721e-07
4.55539e-07
1.34481e-10
1.88925e-10
2.85808e-10
4.85081e-10
9.35179e-10
1.96059e-09
4.23774e-09
8.82348e-09
1.68093e-08
3.27616e-08
1.01898e-07
3.93251e-07
8.31723e-07
1.7285e-07
2.25646e-08
7.11251e-08
2.08544e-07
3.33556e-07
2.39552e-06
8.22005e-11
1.13886e-10
1.79804e-10
3.30378e-10
6.99201e-10
1.61871e-09
3.81792e-09
8.57163e-09
1.75903e-08
3.5822e-08
1.06573e-07
4.02333e-07
3.32667e-06
6.69767e-06
8.41743e-07
6.67031e-08
2.04004e-07
4.05466e-07
2.74233e-06
4.28921e-11
6.19201e-11
1.01012e-10
1.98323e-10
4.61028e-10
1.1713e-09
2.98656e-09
7.14021e-09
1.56114e-08
3.42417e-08
1.01328e-07
4.16839e-07
2.82145e-06
6.77879e-06
6.16479e-06
2.22218e-07
1.72434e-07
3.80386e-07
2.7406e-06
2.04002e-11
2.96017e-11
4.96421e-11
1.03577e-10
2.61448e-10
7.23913e-10
1.99394e-09
5.10041e-09
1.18242e-08
2.62035e-08
6.43295e-08
1.79235e-07
5.77475e-07
4.35262e-06
6.59714e-06
4.59019e-06
1.72544e-07
1.72434e-07
1.62378e-06
8.58793e-12
1.24519e-11
2.11273e-11
4.57374e-11
1.2286e-10
3.70184e-10
1.11279e-09
3.09617e-09
7.74203e-09
1.75294e-08
3.85703e-08
9.52553e-08
2.53113e-07
1.00761e-06
6.00598e-06
6.10807e-06
2.2519e-06
5.1174e-07
1.49307e-06
3.12194e-12
4.49784e-12
7.53532e-12
1.61762e-11
4.52933e-11
1.47675e-10
4.89317e-10
1.49511e-09
4.0602e-09
9.88814e-09
2.19897e-08
4.87885e-08
1.05926e-07
2.38636e-07
1.23191e-06
6.10617e-06
6.10806e-06
1.55955e-06
2.12787e-06
9.43464e-13
1.29385e-12
2.18275e-12
4.70798e-12
1.35952e-11
4.8326e-11
1.83521e-10
6.61952e-10
2.12278e-09
5.935e-09
1.48572e-08
3.3464e-08
7.59561e-08
1.61478e-07
3.71083e-07
1.26783e-06
2.97821e-06
2.28175e-06
1.65287e-06
2.31128e-13
3.08424e-13
4.76668e-13
9.40568e-13
2.53597e-12
9.11208e-12
3.84673e-11
1.6446e-10
6.4028e-10
2.18135e-09
6.56643e-09
1.76202e-08
4.47529e-08
1.00777e-07
1.88657e-07
3.72705e-07
7.13901e-07
6.32027e-07
2.08488e-07
4.00335e-14
4.86968e-14
6.9529e-14
1.24579e-13
2.83715e-13
8.57071e-13
3.43249e-12
1.61375e-11
7.54095e-11
3.01949e-10
9.69361e-10
2.8321e-09
7.76863e-09
2.6593e-08
8.95016e-08
1.44852e-07
1.27509e-07
1.26563e-07
1.04669e-07
)
;

boundaryField
{
    leftWall
    {
        type            zeroGradient;
    }
    rightWall
    {
        type            zeroGradient;
    }
    lowerWall
    {
        type            zeroGradient;
    }
    atmosphere
    {
        type            inletOutlet;
        inletValue      uniform 0;
        value           nonuniform List<scalar> 
46
(
4.31649e-09
9.54924e-08
2.14882e-07
9.76337e-08
0
0
0
0
0
0
0
0
0
0
0
0
0
0
3.56567e-16
1.11391e-15
3.18219e-15
9.81826e-15
2.39329e-14
3.28133e-14
3.39798e-14
0
0
0
0
0
0
0
0
0
0
0
0
0
0
0
2.6593e-08
8.95016e-08
1.44852e-07
1.27509e-07
1.26563e-07
1.04669e-07
)
;
    }
    defaultFaces
    {
        type            empty;
    }
}


// ************************************************************************* //
