/*--------------------------------*- C++ -*----------------------------------*\
| =========                 |                                                 |
| \\      /  F ield         | OpenFOAM: The Open Source CFD Toolbox           |
|  \\    /   O peration     | Version:  2312                                  |
|   \\  /    A nd           | Website:  www.openfoam.com                      |
|    \\/     M anipulation  |                                                 |
\*---------------------------------------------------------------------------*/
FoamFile
{
    version     2.0;
    format      ascii;
    arch        "LSB;label=32;scalar=64";
    class       volScalarField;
    location    "4.85";
    object      p;
}
// * * * * * * * * * * * * * * * * * * * * * * * * * * * * * * * * * * * * * //

dimensions      [1 -1 -2 0 0 0 0];

internalField   nonuniform List<scalar> 
2268
(
4686.52
4697.54
4719.31
4751.39
4792.35
4840.7
4895
4954.32
5018.4
5087.47
5161.82
5241.33
5325.13
5411.25
5496.42
5577.3
5651.48
5717.19
5773.52
5820.19
5856.92
5882.87
5895.91
3887.46
3898.69
3920.74
3953.06
3994.35
4043.01
4097.47
4156.81
4220.83
4289.83
4364.24
4443.98
4528.25
4615.14
4701.09
4782.51
4857.04
4922.74
4978.88
5025.31
5061.7
5087.06
5099.7
3086.27
3097.47
3119.84
3152.68
3194.64
3243.94
3298.78
3358.18
3422.07
3490.91
3565.39
3645.58
3730.74
3819.14
3906.68
3989.2
4064.47
4130.11
4185.84
4231.77
4267.52
4291.9
4304.07
2282.44
2293.77
2316.62
2350.31
2393.38
2443.75
2499.18
2558.62
2622.22
2690.67
2765.09
2845.83
2932.16
3022.96
3113.12
3197.39
3273.89
3339.35
3394.29
3439.39
3474.01
3496.78
3508.18
1498.12
1508.1
1528.59
1559.08
1598.13
1644.12
1698.45
1757.89
1821.16
1889.04
1963.31
2044.64
2132.17
2226.19
2320.22
2407.01
2485.59
2550.28
2603.56
2647.48
2680.27
2700.35
2710.52
1006.34
1010.69
1019.44
1032.72
1049.89
1070.05
1096.33
1126.58
1159.99
1197.93
1242.89
1297.64
1363.25
1440.81
1529.05
1619.26
1700.02
1762.49
1815.03
1858.72
1887.82
1903.11
1912.36
864.507
864.928
865.232
865.6
866.066
866.433
866.372
866.413
866.934
868.471
872.272
878.082
891.228
912.235
944.761
986.539
1034.27
1071.56
1102.55
1133.72
1152.2
1155.67
1159.5
804.696
805.367
805.86
806.356
806.836
806.787
806.061
804.036
800.338
794.428
785.713
772.069
757.024
742.831
730.045
720.343
713.145
703.913
701.78
705.961
706.762
701.527
700.642
2549.49
2571.31
2617
2675.31
2732.18
2779.88
2815.37
2841.5
2856.61
2853.09
2825.94
2775.19
2707.93
2628.73
2545.13
2443.81
2347.95
2280.38
2247.95
1790.71
1806.8
1850.18
1908.76
1967.97
2016.09
2050.97
2075.95
2091.4
2088.6
2063.82
2010.93
1944.27
1872.52
1794.97
1693.52
1601.11
1541.34
1520.11
1156.49
1169.32
1197.28
1235.26
1279.14
1322.24
1360.62
1391.13
1411.5
1417.7
1409.65
1380.33
1333.05
1287.28
1228.24
1145.28
1104.68
1085.13
1071.84
862.367
871.575
879.353
887.971
901.807
920.529
943.061
965.3
984.464
1001.92
1011.36
1004.19
982.076
961.894
943.679
929.392
940.508
949.518
943.224
795.238
799.048
801.078
801.283
802.367
804.299
806.417
812.814
822.848
838.482
844.727
841.931
834.15
828.677
837.058
864.118
880.757
891.048
890.966
737.164
739.364
742.614
742.763
743.98
746.397
749.689
752.793
760.111
775.309
781.624
780.07
774.453
779.425
790.776
804.104
819.234
830.58
835.819
677.948
679.839
683.374
683.464
684.694
687.975
691.529
692.016
696.588
710.575
716.515
717.326
715.303
728.416
743.17
754.251
759.376
770.066
778.401
615.511
620.787
623.984
624.78
626.356
629.516
633.1
633.604
636.622
645.619
650.544
653.581
657.325
675.309
696.194
702.231
703.695
710.588
718.326
710.379
711.016
711.749
712.436
713.024
713.052
712.311
710.017
706.06
699.923
691.097
679.254
665.751
651.475
636.276
617.89
595.815
578.506
565.207
553.032
542.253
534.655
531.33
585.576
585.562
585.652
585.389
585.692
586.685
587.107
584.956
580.909
575.001
566.569
555.717
542.959
528.376
512.384
495.654
478.76
461.784
445.141
429.982
416.772
406.236
399.098
485.016
484.557
482.918
480.25
476.891
474.745
473.323
469.45
463.348
455.755
446.939
435.943
422.456
407.166
391.01
374.395
357.109
339.555
323.231
309.112
296.958
288.82
285.198
413.716
412.529
408.408
403.494
398.314
392.608
386.441
379.213
369.586
358.212
345.821
331.697
315.654
298.57
282.118
266.209
251.007
237.132
224.289
213.187
205.961
202.239
200.883
349.814
348.048
344.438
340.645
336.627
330.762
322.961
313.485
301.882
288.316
272.57
255.055
236.72
218.258
200.776
185.131
171.733
159.717
149.735
141.992
137.265
133.938
131.87
286.352
285.04
283.5
280.964
277.654
272.855
265.819
256.481
244.741
230.848
214.405
195.58
175.325
155.092
135.945
118.627
102.962
89.2052
78.3128
70.5059
65.8676
63.6384
61.9933
223.951
223.239
223.054
221.502
219.045
215.427
209.49
201.033
190.029
176.017
158.638
138.256
114.602
91.3307
69.824
51.3309
37.2657
27.0605
20.3735
16.2502
14.4259
13.5115
12.7238
162.461
162.481
162.847
162.53
161.519
159.291
154.985
148.086
137.992
124.159
105.547
82.0206
55.3338
32.0781
16.6317
7.57936
3.62453
2.08207
1.31312
0.825351
0.295808
-0.300837
-0.453913
101.426
102.174
103.468
104.501
105.074
104.65
102.375
97.3627
89.0293
75.9156
56.2575
32.262
13.2475
2.90152
0.0861928
-0.495002
-0.603316
-0.786937
-1.05501
-1.12821
-1.15705
-1.1828
-1.2038
42.7172
44.0928
46.3256
48.6267
50.5588
51.6689
51.4071
49.551
44.5945
33.8144
18.6746
5.89296
1.48386
0.258383
-0.675575
-0.90348
-1.08277
-1.22177
-1.27717
-1.30706
-1.32513
-1.33379
-1.34206
6.37337
7.46333
9.4805
11.9355
14.2659
15.7062
15.8798
14.7421
10.9887
5.0111
1.32227
0.308695
-0.806268
-1.33867
-1.31003
-1.32212
-1.38521
-1.42482
-1.45598
-1.4733
-1.483
-1.4898
-1.49621
-2.20874
-2.20255
-2.16622
-2.08342
-2.01621
-1.90047
-1.71595
-1.61652
-1.77629
-1.891
-1.95118
-2.13678
-2.08993
-1.96503
-1.7586
-1.67949
-1.63795
-1.62851
-1.63512
-1.64031
-1.64385
-1.6474
-1.65197
-2.29754
-2.29874
-2.30203
-2.30708
-2.31066
-2.32415
-2.35027
-2.39035
-2.43265
-2.47082
-2.50436
-2.49101
-2.33009
-2.15521
-2.014
-1.91283
-1.84792
-1.82237
-1.8129
-1.80859
-1.80598
-1.80654
-1.8088
-2.37002
-2.37355
-2.37985
-2.39013
-2.40364
-2.42324
-2.44936
-2.481
-2.51589
-2.54291
-2.54059
-2.50356
-2.40732
-2.28967
-2.17713
-2.09159
-2.03503
-2.00294
-1.98485
-1.97378
-1.96741
-1.96541
-1.96524
-2.46627
-2.47075
-2.47764
-2.48744
-2.49986
-2.51557
-2.53519
-2.55784
-2.579
-2.59033
-2.5802
-2.54108
-2.47353
-2.39386
-2.3098
-2.24743
-2.2007
-2.16868
-2.14729
-2.13293
-2.12447
-2.12045
-2.11877
-2.57341
-2.57704
-2.58276
-2.59033
-2.59934
-2.60986
-2.62188
-2.63447
-2.6442
-2.64527
-2.63178
-2.59977
-2.55067
-2.49325
-2.43623
-2.38898
-2.35078
-2.32202
-2.30086
-2.28587
-2.27639
-2.27105
-2.26873
-2.68563
-2.68827
-2.69257
-2.69805
-2.70416
-2.71072
-2.71725
-2.72264
-2.7244
-2.71911
-2.70421
-2.67818
-2.64235
-2.60142
-2.56029
-2.52355
-2.49251
-2.46782
-2.44824
-2.43376
-2.42398
-2.41808
-2.41543
-2.79994
-2.80175
-2.80471
-2.8084
-2.81226
-2.81593
-2.81878
-2.81972
-2.81712
-2.80917
-2.79451
-2.77301
-2.74563
-2.71496
-2.68382
-2.65484
-2.62941
-2.60812
-2.59076
-2.57736
-2.56784
-2.56172
-2.55844
-2.91476
-2.91599
-2.91793
-2.92024
-2.92242
-2.92401
-2.92441
-2.92277
-2.91802
-2.9092
-2.89571
-2.87769
-2.85593
-2.83193
-2.80744
-2.7841
-2.76302
-2.74479
-2.72958
-2.71742
-2.70837
-2.70223
-2.69834
-3.02989
-3.03068
-3.03186
-3.03313
-3.03404
-3.03418
-3.03302
-3.02993
-3.02424
-3.01545
-3.00337
-2.98812
-2.97034
-2.95099
-2.93122
-2.9121
-2.89448
-2.87888
-2.86557
-2.85465
-2.84618
-2.84013
-2.83597
-3.14532
-3.14581
-3.14643
-3.14693
-3.14695
-3.14611
-3.144
-3.14018
-3.13423
-3.12589
-3.11512
-3.10212
-3.08733
-3.07141
-3.05515
-3.03928
-3.02443
-3.01104
-2.9994
-2.98964
-2.98181
-2.97594
-2.9717
-3.26115
-3.26143
-3.26166
-3.26162
-3.26103
-3.25958
-3.25694
-3.25282
-3.24697
-3.23926
-3.22971
-3.21853
-3.20607
-3.19278
-3.1792
-3.16588
-3.15328
-3.14176
-3.13156
-3.12284
-3.1157
-3.11009
-3.10586
-3.37749
-3.37762
-3.37757
-3.37719
-3.37621
-3.3744
-3.37152
-3.36736
-3.36179
-3.35475
-3.34631
-3.33664
-3.32603
-3.31481
-3.30336
-3.29207
-3.28131
-3.27135
-3.26241
-3.25464
-3.24812
-3.24288
-3.23876
-3.49438
-3.4944
-3.49419
-3.49359
-3.49239
-3.4904
-3.48746
-3.48342
-3.47822
-3.47185
-3.46439
-3.456
-3.44689
-3.43733
-3.42758
-3.41795
-3.4087
-3.40007
-3.39223
-3.38531
-3.3794
-3.37453
-3.37061
-3.61185
-3.61182
-3.61151
-3.61078
-3.60947
-3.60744
-3.60455
-3.60072
-3.59593
-3.5902
-3.58361
-3.57629
-3.56843
-3.56022
-3.55186
-3.54359
-3.53561
-3.5281
-3.52121
-3.51506
-3.50973
-3.50524
-3.50157
-3.72993
-3.72986
-3.72949
-3.72871
-3.72738
-3.72537
-3.72261
-3.71904
-3.71466
-3.70952
-3.70369
-3.6973
-3.69047
-3.68339
-3.67619
-3.66905
-3.66213
-3.65558
-3.64952
-3.64406
-3.63926
-3.63516
-3.63176
-3.8486
-3.8485
-3.8481
-3.84731
-3.84601
-3.84408
-3.84149
-3.83819
-3.83422
-3.82962
-3.82448
-3.81887
-3.81293
-3.80678
-3.80054
-3.79436
-3.78834
-3.78262
-3.77729
-3.77244
-3.76813
-3.7644
-3.76127
-3.96779
-3.96769
-3.9673
-3.96653
-3.96528
-3.96347
-3.96106
-3.95805
-3.95446
-3.95036
-3.94581
-3.9409
-3.9357
-3.93034
-3.92493
-3.91955
-3.91431
-3.9093
-3.90461
-3.90031
-3.89646
-3.89309
-3.89022
-4.08745
-4.08737
-4.08702
-4.08629
-4.08512
-4.08344
-4.08123
-4.07849
-4.07527
-4.07162
-4.06759
-4.06327
-4.05873
-4.05405
-4.04933
-4.04464
-4.04007
-4.03568
-4.03156
-4.02776
-4.02432
-4.02128
-4.01868
-4.20757
-4.20751
-4.2072
-4.20654
-4.20545
-4.20391
-4.2019
-4.19943
-4.19654
-4.19329
-4.18973
-4.18594
-4.18196
-4.17787
-4.17375
-4.16966
-4.16567
-4.16183
-4.15821
-4.15485
-4.15179
-4.14907
-4.14672
-4.32815
-4.32811
-4.32784
-4.32725
-4.32625
-4.32485
-4.32303
-4.3208
-4.31821
-4.31531
-4.31217
-4.30883
-4.30535
-4.30178
-4.29818
-4.29461
-4.29113
-4.28777
-4.28459
-4.28164
-4.27893
-4.27651
-4.2744
-4.44915
-4.44914
-4.4489
-4.44837
-4.44749
-4.44623
-4.44456
-4.44253
-4.4402
-4.43763
-4.43485
-4.43191
-4.42886
-4.42575
-4.42261
-4.41951
-4.41647
-4.41355
-4.41077
-4.40818
-4.4058
-4.40366
-4.40177
-4.57053
-4.57054
-4.57036
-4.56989
-4.5691
-4.56795
-4.56641
-4.56456
-4.56246
-4.56017
-4.55772
-4.55514
-4.55248
-4.54977
-4.54705
-4.54435
-4.54172
-4.53918
-4.53677
-4.53451
-4.53243
-4.53054
-4.52888
-4.69224
-4.69227
-4.69213
-4.69174
-4.69101
-4.68996
-4.68853
-4.68684
-4.68494
-4.6829
-4.68074
-4.6785
-4.67618
-4.67384
-4.67148
-4.66915
-4.66688
-4.66469
-4.66261
-4.66066
-4.65885
-4.65722
-4.65576
-4.81419
-4.81425
-4.81416
-4.81385
-4.81323
-4.8122
-4.81085
-4.80929
-4.80758
-4.80578
-4.80389
-4.80194
-4.79995
-4.79793
-4.79592
-4.79392
-4.79198
-4.79011
-4.78833
-4.78666
-4.78512
-4.78371
-4.78245
-4.9363
-4.93639
-4.93634
-4.93609
-4.93552
-4.93455
-4.9333
-4.93187
-4.93034
-4.92876
-4.92713
-4.92546
-4.92376
-4.92205
-4.92034
-4.91866
-4.91702
-4.91544
-4.91394
-4.91254
-4.91123
-4.91005
-4.90898
-5.05848
-5.05859
-5.05858
-5.05837
-5.05784
-5.05695
-5.0558
-5.05452
-5.05319
-5.05183
-5.05044
-5.04904
-5.04762
-5.04619
-5.04477
-5.04337
-5.04201
-5.04071
-5.03947
-5.03831
-5.03724
-5.03625
-5.03538
-5.18064
-5.18076
-5.18078
-5.1806
-5.18012
-5.17932
-5.17831
-5.17721
-5.17609
-5.17496
-5.17382
-5.17267
-5.17151
-5.17035
-5.1692
-5.16807
-5.16697
-5.16592
-5.16493
-5.164
-5.16314
-5.16236
-5.16165
-5.30272
-5.30285
-5.30288
-5.30273
-5.30231
-5.30164
-5.3008
-5.29992
-5.29903
-5.29814
-5.29724
-5.29633
-5.29542
-5.29452
-5.29362
-5.29275
-5.2919
-5.29109
-5.29033
-5.28963
-5.28897
-5.28837
-5.28784
-5.42477
-5.42482
-5.42486
-5.42474
-5.42441
-5.42389
-5.42328
-5.42265
-5.42201
-5.42136
-5.4207
-5.42004
-5.41937
-5.41871
-5.41805
-5.41742
-5.41681
-5.41623
-5.4157
-5.4152
-5.41474
-5.41433
-5.41396
-5.54676
-5.54676
-5.54678
-5.54665
-5.54638
-5.54606
-5.54575
-5.5454
-5.54502
-5.54462
-5.5442
-5.54377
-5.54334
-5.54291
-5.54249
-5.54209
-5.54171
-5.54136
-5.54104
-5.54075
-5.54048
-5.54024
-5.54002
-5.66876
-5.66866
-5.66871
-5.66853
-5.66815
-5.66818
-5.6682
-5.66814
-5.66803
-5.66787
-5.6677
-5.66751
-5.66731
-5.66712
-5.66694
-5.66677
-5.66661
-5.66647
-5.66636
-5.66627
-5.66619
-5.66612
-5.66606
536.011
536.071
532.782
529.675
396.342
393.434
390.914
390.483
284.381
283.396
282.654
283.31
199.883
199.434
199.606
200.247
130.675
130.2
130.033
130.165
61.3515
61.2279
61.5816
62.3533
12.4961
12.4405
12.5644
13.0439
-0.502962
-0.516765
-0.593802
-0.692094
-1.21112
-1.22401
-1.22792
-1.23297
-1.35003
-1.3545
-1.36239
-1.36824
-1.50151
-1.50343
-1.50687
-1.51174
-1.65515
-1.65738
-1.66021
-1.66292
-1.81018
-1.811
-1.81197
-1.81321
-1.96472
-1.96426
-1.96399
-1.96412
-2.11795
-2.11819
-2.11883
-2.12023
-2.26902
-2.27103
-2.27451
-2.27643
-2.41634
-2.41908
-2.42309
-2.42465
-2.55832
-2.55947
-2.56144
-2.56238
-2.69713
-2.69698
-2.69734
-2.69767
-2.8343
-2.83365
-2.83344
-2.83359
-2.96981
-2.96893
-2.96838
-2.9682
-3.10381
-3.10277
-3.10198
-3.1015
-3.23662
-3.23549
-3.23458
-3.2339
-3.36847
-3.36731
-3.36633
-3.36556
-3.49949
-3.49833
-3.49735
-3.49653
-3.62978
-3.62865
-3.62768
-3.62686
-3.75941
-3.75834
-3.75741
-3.7566
-3.88848
-3.88748
-3.88659
-3.88581
-4.01707
-4.01614
-4.0153
-4.01457
-4.14525
-4.14439
-4.14361
-4.14292
-4.27306
-4.27228
-4.27157
-4.27093
-4.40057
-4.39987
-4.39922
-4.39864
-4.52781
-4.52718
-4.5266
-4.52607
-4.65483
-4.65427
-4.65376
-4.65329
-4.78164
-4.78116
-4.78071
-4.7803
-4.9083
-4.90788
-4.9075
-4.90715
-5.0348
-5.03446
-5.03414
-5.03385
-5.1612
-5.16092
-5.16066
-5.16042
-5.28749
-5.28728
-5.28708
-5.2869
-5.41371
-5.41357
-5.41343
-5.4133
-5.53987
-5.53979
-5.5397
-5.53962
-5.66602
-5.66601
-5.66599
-5.66595
525.683
528.787
531.422
532.584
534.672
537.84
540.921
542.742
546.089
549.624
556.217
561.11
569.675
588.927
610.374
616.158
617.895
618.998
623.956
393.562
399.962
404.794
407.735
410.987
414.22
416.728
417.234
420.799
427.944
440.296
442.277
451.006
469.62
489.207
493.825
495.675
493.961
500.473
285.144
287.958
292.262
296.269
299.981
303.13
306.422
309.885
314.307
325.507
337.505
338.877
343.267
352.779
364.57
369.946
373.07
377.634
385.046
201.644
202.851
205.629
209.881
215.042
219.496
224.587
232.416
239.412
246.548
253.238
256.505
259.98
262.185
265.111
268.572
273.734
279.044
285.789
130.828
132.845
135.228
139.578
146.263
153.654
160.703
168.401
175.905
182.672
187.338
190.792
193.304
194.865
196.084
196.415
196.951
200.974
208.402
64.0861
68.1504
72.7793
76.7544
82.2567
89.365
97.8297
105.964
113.867
121.209
126.793
130.199
131.99
132.991
133.818
134.16
134.696
136.023
141.629
14.174
16.625
20.1242
22.6594
25.8609
31.2851
38.7728
45.9422
52.7669
59.2952
65.0821
69.2347
70.9988
71.8932
72.2043
72.6037
74.2703
76.518
79.9651
-0.759304
-0.911239
-0.926812
-0.66645
0.438413
2.88609
5.60219
8.33638
11.2629
14.1073
17.0929
20.1724
21.7681
22.9695
23.1726
23.9302
26.0582
28.3406
30.8423
-1.23821
-1.22742
-1.22802
-1.25024
-1.27422
-1.23529
-1.12867
-0.996319
-0.7731
-0.685135
-0.655635
-0.662267
-0.345713
0.323851
1.13603
2.29167
3.51109
4.84138
6.03568
-1.37929
-1.38382
-1.39557
-1.42036
-1.45764
-1.48949
-1.51002
-1.5357
-1.56739
-1.57405
-1.57021
-1.56426
-1.57806
-1.55905
-1.40011
-1.28113
-1.31673
-1.12486
-0.663607
-1.52075
-1.53121
-1.54666
-1.56744
-1.58919
-1.61244
-1.63929
-1.6675
-1.69379
-1.70427
-1.7087
-1.70991
-1.72902
-1.7514
-1.76018
-1.76854
-1.78068
-1.8122
-1.83116
-1.66888
-1.68034
-1.69562
-1.71655
-1.73423
-1.75348
-1.77921
-1.80406
-1.8234
-1.82929
-1.8348
-1.84133
-1.85747
-1.87346
-1.88824
-1.89842
-1.90643
-1.91902
-1.93819
-1.81603
-1.82744
-1.84308
-1.86091
-1.87818
-1.89963
-1.92202
-1.94495
-1.95373
-1.96021
-1.9635
-1.97225
-1.98619
-2.0027
-2.0139
-2.02291
-2.03126
-2.04131
-2.05177
-1.96842
-1.97764
-1.9897
-2.00299
-2.02042
-2.04382
-2.06673
-2.08368
-2.08901
-2.09177
-2.09718
-2.10757
-2.11748
-2.12919
-2.14057
-2.14825
-2.15546
-2.16208
-2.17
-2.12567
-2.13351
-2.13857
-2.14654
-2.16257
-2.18665
-2.20421
-2.21804
-2.22427
-2.22608
-2.23437
-2.24305
-2.24824
-2.25523
-2.26562
-2.27314
-2.27799
-2.28333
-2.2891
-2.28043
-2.28722
-2.28861
-2.29217
-2.30709
-2.32392
-2.33567
-2.34683
-2.35491
-2.35959
-2.36475
-2.36966
-2.37472
-2.38175
-2.39135
-2.39916
-2.40297
-2.40825
-2.41023
-2.42619
-2.42986
-2.43397
-2.43898
-2.45062
-2.45983
-2.46957
-2.47781
-2.48484
-2.49016
-2.49453
-2.49819
-2.5029
-2.51057
-2.51923
-2.52629
-2.52952
-2.53281
-2.53127
-2.56168
-2.56599
-2.57231
-2.58012
-2.58914
-2.59502
-2.60374
-2.61162
-2.61821
-2.62348
-2.62788
-2.63146
-2.63447
-2.64021
-2.64702
-2.65213
-2.65405
-2.65434
-2.65192
-2.69849
-2.70188
-2.70729
-2.71414
-2.72223
-2.72883
-2.73547
-2.74254
-2.7486
-2.75401
-2.75848
-2.76147
-2.76389
-2.76717
-2.77153
-2.77487
-2.77571
-2.77485
-2.77406
-2.83429
-2.83709
-2.84132
-2.84648
-2.85323
-2.85977
-2.86548
-2.87104
-2.8762
-2.88121
-2.88544
-2.88833
-2.89026
-2.89237
-2.8949
-2.89683
-2.89754
-2.89661
-2.89754
-2.96842
-2.97022
-2.97347
-2.97775
-2.98322
-2.98891
-2.99399
-2.99854
-3.00289
-3.00702
-3.01075
-3.01393
-3.01621
-3.01793
-3.01929
-3.02018
-3.02048
-3.01992
-3.02066
-3.10115
-3.10205
-3.10444
-3.10779
-3.11195
-3.11652
-3.12093
-3.12501
-3.12888
-3.13257
-3.13599
-3.13898
-3.14141
-3.14319
-3.14418
-3.14438
-3.14427
-3.14391
-3.1442
-3.23315
-3.23335
-3.23489
-3.23736
-3.2405
-3.24408
-3.24782
-3.25155
-3.25511
-3.2585
-3.26164
-3.26439
-3.2666
-3.26816
-3.26898
-3.26913
-3.26886
-3.26854
-3.26858
-3.36458
-3.36432
-3.36519
-3.36692
-3.36928
-3.37215
-3.37532
-3.37857
-3.38176
-3.38484
-3.38771
-3.39025
-3.39229
-3.39368
-3.39442
-3.39444
-3.39407
-3.39375
-3.39373
-3.49545
-3.49489
-3.49528
-3.49645
-3.49824
-3.50055
-3.50316
-3.50591
-3.50871
-3.51145
-3.51405
-3.51637
-3.51824
-3.51953
-3.52018
-3.52016
-3.51973
-3.51934
-3.51932
-3.62574
-3.625
-3.62505
-3.62581
-3.62716
-3.62897
-3.63109
-3.63341
-3.63582
-3.63824
-3.64055
-3.64265
-3.64436
-3.64555
-3.64616
-3.64615
-3.64573
-3.64536
-3.6453
-3.75548
-3.75462
-3.75444
-3.75489
-3.75588
-3.75728
-3.75901
-3.76095
-3.76301
-3.76511
-3.76715
-3.76903
-3.77058
-3.77167
-3.77223
-3.77224
-3.77187
-3.77156
-3.77147
-3.88472
-3.8838
-3.88346
-3.88368
-3.88437
-3.88546
-3.88685
-3.88846
-3.89021
-3.89202
-3.89381
-3.89546
-3.89685
-3.89783
-3.89833
-3.89834
-3.89801
-3.89779
-3.89771
-4.0135
-4.01255
-4.01213
-4.01218
-4.01264
-4.01347
-4.01458
-4.01592
-4.01739
-4.01893
-4.02047
-4.02192
-4.02314
-4.02399
-4.02441
-4.0244
-4.02415
-4.02401
-4.02394
-4.14191
-4.14097
-4.14048
-4.1404
-4.14069
-4.14131
-4.1422
-4.14329
-4.14452
-4.14582
-4.14712
-4.14837
-4.14942
-4.15014
-4.15045
-4.15043
-4.15029
-4.15022
-4.15014
-4.26998
-4.26907
-4.26854
-4.26837
-4.26853
-4.269
-4.26968
-4.27057
-4.27158
-4.27265
-4.27372
-4.27479
-4.27567
-4.27624
-4.27647
-4.27648
-4.27641
-4.27639
-4.27632
-4.39776
-4.39689
-4.39635
-4.39612
-4.39618
-4.39651
-4.39704
-4.39774
-4.39856
-4.39944
-4.40031
-4.40115
-4.40184
-4.40229
-4.40248
-4.40255
-4.40254
-4.40255
-4.40248
-4.52528
-4.52447
-4.52394
-4.52367
-4.52366
-4.52387
-4.52427
-4.52482
-4.52547
-4.52616
-4.52684
-4.52748
-4.52799
-4.52834
-4.52851
-4.52863
-4.52868
-4.52871
-4.52863
-4.65258
-4.65183
-4.65132
-4.65104
-4.65097
-4.6511
-4.65139
-4.6518
-4.6523
-4.65284
-4.65336
-4.65382
-4.65418
-4.6544
-4.65459
-4.65475
-4.65484
-4.65491
-4.65483
-4.77968
-4.779
-4.77853
-4.77825
-4.77814
-4.7782
-4.7784
-4.77871
-4.77909
-4.77949
-4.77989
-4.78024
-4.78051
-4.78065
-4.78078
-4.78096
-4.78106
-4.78118
-4.78112
-4.90661
-4.90602
-4.90559
-4.90532
-4.90519
-4.9052
-4.90533
-4.90554
-4.90583
-4.90614
-4.90644
-4.90673
-4.90701
-4.90716
-4.90719
-4.90729
-4.9074
-4.9075
-4.90749
-5.03339
-5.03289
-5.03252
-5.03227
-5.03213
-5.03211
-5.03218
-5.03233
-5.03253
-5.03276
-5.033
-5.03325
-5.0335
-5.03372
-5.03376
-5.03379
-5.03384
-5.03387
-5.03396
-5.16005
-5.15964
-5.15933
-5.15911
-5.15898
-5.15894
-5.15897
-5.15906
-5.1592
-5.15937
-5.15956
-5.15975
-5.15997
-5.1602
-5.16034
-5.16036
-5.16035
-5.16034
-5.16048
-5.28662
-5.2863
-5.28605
-5.28587
-5.28576
-5.28571
-5.28572
-5.28577
-5.28585
-5.28597
-5.2861
-5.28625
-5.28643
-5.28662
-5.28684
-5.28695
-5.28694
-5.2869
-5.28704
-5.4131
-5.41287
-5.41269
-5.41256
-5.41248
-5.41244
-5.41243
-5.41245
-5.41249
-5.41256
-5.41264
-5.41275
-5.41288
-5.41304
-5.41324
-5.41344
-5.41352
-5.41346
-5.41355
-5.53951
-5.53938
-5.53928
-5.5392
-5.53915
-5.53912
-5.53911
-5.53912
-5.53913
-5.53915
-5.53919
-5.53924
-5.53933
-5.53946
-5.53963
-5.53983
-5.53992
-5.53992
-5.53994
-5.6659
-5.66586
-5.66583
-5.66582
-5.66581
-5.66581
-5.66581
-5.6658
-5.66579
-5.66578
-5.66577
-5.66576
-5.66579
-5.66589
-5.66605
-5.66622
-5.66629
-5.66632
-5.66634
)
;

boundaryField
{
    leftWall
    {
        type            calculated;
        value           nonuniform List<scalar> 
50
(
4686.52
3887.46
3086.27
2282.44
1498.12
1006.34
864.507
804.696
710.379
585.576
485.016
413.716
349.814
286.352
223.951
162.461
101.426
42.7172
6.37337
-2.20874
-2.29754
-2.37002
-2.46627
-2.57341
-2.68563
-2.79994
-2.91476
-3.02989
-3.14532
-3.26115
-3.37749
-3.49438
-3.61185
-3.72993
-3.8486
-3.96779
-4.08745
-4.20757
-4.32815
-4.44915
-4.57053
-4.69224
-4.81419
-4.9363
-5.05848
-5.18064
-5.30272
-5.42477
-5.54676
-5.66876
)
;
    }
    rightWall
    {
        type            calculated;
        value           nonuniform List<scalar> 
50
(
2247.95
1520.11
1071.84
943.224
890.966
835.819
778.401
718.326
623.956
500.473
385.046
285.789
208.402
141.629
79.9651
30.8423
6.03568
-0.663607
-1.83116
-1.93819
-2.05177
-2.17
-2.2891
-2.41023
-2.53127
-2.65192
-2.77406
-2.89754
-3.02066
-3.1442
-3.26858
-3.39373
-3.51932
-3.6453
-3.77147
-3.89771
-4.02394
-4.15014
-4.27632
-4.40248
-4.52863
-4.65483
-4.78112
-4.90749
-5.03396
-5.16048
-5.28704
-5.41355
-5.53994
-5.66634
)
;
    }
    lowerWall
    {
        type            calculated;
        value           nonuniform List<scalar> 
62
(
5084.67
5095.69
5117.46
5149.54
5190.5
5238.85
5293.15
5352.47
5416.55
5485.62
5559.97
5639.48
5723.28
5809.4
5894.57
5975.45
6049.63
6115.34
6171.67
6218.34
6255.07
6281.01
6294.04
5895.91
5099.7
4304.07
3508.18
2710.52
1912.36
1159.5
700.642
605.552
620.407
617.939
610.245
2549.49
1790.71
1156.49
862.367
795.238
737.164
677.948
615.511
2931.68
2955.31
3000.85
3058.8
3114.27
3161.79
3197.47
3224.61
3240
3236.48
3209.34
3159.66
3092.72
3013.49
2929.88
2828.55
2732.66
2664.55
2632.05
)
;
    }
    atmosphere
    {
        type            calculated;
        value           nonuniform List<scalar> 
46
(
-5.7297
-5.72947
-5.72975
-5.72957
-5.72904
-5.72929
-5.72947
-5.72954
-5.72954
-5.7295
-5.72944
-5.72937
-5.7293
-5.72923
-5.72916
-5.72911
-5.72907
-5.72905
-5.72904
-5.72904
-5.72904
-5.72904
-5.72904
-5.72905
-5.72906
-5.72904
-5.72904
-5.72906
-5.72908
-5.72911
-5.72914
-5.72916
-5.72917
-5.72918
-5.72918
-5.72916
-5.72914
-5.72911
-5.72907
-5.72905
-5.72913
-5.72934
-5.72954
-5.72951
-5.72949
-5.72941
)
;
    }
    defaultFaces
    {
        type            empty;
    }
}


// ************************************************************************* //
