/*--------------------------------*- C++ -*----------------------------------*\
| =========                 |                                                 |
| \\      /  F ield         | OpenFOAM: The Open Source CFD Toolbox           |
|  \\    /   O peration     | Version:  2312                                  |
|   \\  /    A nd           | Website:  www.openfoam.com                      |
|    \\/     M anipulation  |                                                 |
\*---------------------------------------------------------------------------*/
FoamFile
{
    version     2.0;
    format      ascii;
    arch        "LSB;label=32;scalar=64";
    class       volScalarField;
    location    "5.35";
    object      alpha.water_0;
}
// * * * * * * * * * * * * * * * * * * * * * * * * * * * * * * * * * * * * * //

dimensions      [0 0 0 0 0 0 0];

internalField   nonuniform List<scalar> 
2268
(
3.25334e-07
3.25321e-07
1.93205e-07
1.16509e-08
4.20133e-10
5.9495e-10
4.72429e-10
2.47894e-10
1.4708e-10
1.12488e-10
1.00305e-10
9.78859e-11
9.80892e-11
1.00249e-10
1.10915e-10
1.36587e-10
1.84056e-10
2.54595e-10
3.62265e-10
7.46517e-10
1.18327e-09
1.37627e-09
1.37627e-09
3.12295e-07
2.23703e-07
4.94199e-08
1.26389e-09
4.22801e-10
3.50449e-10
2.94169e-10
2.83116e-10
2.67824e-10
2.67494e-10
2.90243e-10
3.07838e-10
3.14456e-10
2.81017e-10
2.64862e-10
2.87695e-10
3.86988e-10
5.04877e-10
6.99602e-10
9.83328e-10
1.21729e-09
1.26962e-09
1.24416e-09
6.18259e-08
1.88926e-08
4.01528e-09
4.5482e-09
4.64031e-09
4.64187e-09
2.37904e-09
7.01495e-10
5.88012e-10
7.16924e-10
9.76364e-10
1.1759e-09
1.17836e-09
1.05121e-09
7.37342e-10
5.51837e-10
5.41777e-10
5.95068e-10
6.85693e-10
1.08294e-09
1.08818e-09
7.89708e-10
9.63016e-10
1.10927e-08
5.3023e-09
2.54233e-09
3.01068e-09
3.41197e-09
2.62179e-09
1.33952e-09
6.59596e-10
5.56926e-10
7.42629e-10
1.04755e-09
1.08979e-09
4.22497e-10
3.72559e-10
3.41351e-10
3.33912e-10
3.39368e-10
7.6929e-10
5.06779e-09
1.45086e-08
1.52266e-08
7.78562e-10
7.89742e-10
9.52518e-10
1.11061e-09
3.26685e-10
4.11524e-10
6.62539e-10
4.87089e-10
1.41444e-10
3.56863e-11
-4.14048e-13
-9.07062e-13
-1.52618e-12
-1.42711e-12
5.33114e-22
3.07706e-22
1.28511e-24
-1.74683e-22
-5.33225e-14
0.00618863
0.0147326
0.0243499
0.0324662
0.0425859
0.0749721
-1.67758e-14
-9.5268e-15
-7.04366e-16
-1.59482e-17
5.61509e-22
-3.89349e-21
-1.96643e-29
1.82763e-24
0.00177427
0.0429131
0.103064
0.171111
0.247404
0.337457
0.428657
0.477095
0.494404
0.543594
0.593581
0.634536
0.66211
0.680227
0.718964
0.0384044
0.047299
0.0625433
0.0939648
0.155742
0.240835
0.33584
0.445971
0.583586
0.701852
0.800066
0.880716
0.941197
0.973025
0.989005
0.987928
0.967789
0.946797
0.941752
0.953836
0.963144
0.957355
0.931932
0.644559
0.673558
0.726802
0.793674
0.855451
0.906247
0.95413
0.991145
0.999685
0.999763
0.999758
0.999694
0.999783
0.999786
0.999776
0.999786
0.999786
0.999782
0.999781
0.999782
0.999782
0.999781
0.970287
0.010216
0.00743142
0.00300948
0.00231908
0.00367529
0.00515271
0.00604799
0.00743214
0.00804556
0.00837376
0.00864883
0.00864595
0.00833998
0.00598694
0.00467819
0.00464475
0.00389126
0.0030414
0.00292835
9.46814e-05
9.1404e-05
9.43067e-05
9.28676e-05
0.000440691
0.00091813
1.59291e-11
-7.8683e-17
-3.21227e-06
-6.32608e-06
-3.20166e-06
7.67134e-09
0.000309097
0.000836866
0.000858795
0.00102164
0.000700809
0.000409626
0.000424489
0.253902
0.277806
0.307639
0.332064
0.380603
0.399065
0.390406
0.364214
0.320809
0.273544
0.215768
0.0878107
2.98203e-05
2.98124e-05
2.97629e-05
2.98124e-05
2.98202e-05
2.9869e-05
2.98785e-05
0.773111
0.956807
0.950312
0.909203
0.886285
0.894447
0.922509
0.928424
0.913235
0.892489
0.86277
0.820634
0.542059
0.253306
0.0271771
0.0158692
0.042979
0.101057
0.0974324
0.78098
0.990636
0.990595
0.992428
0.992446
0.97623
0.973273
0.974562
0.944111
0.970678
0.872725
0.864884
0.889215
0.88949
0.608305
0.348186
0.617208
0.754373
0.519586
0.808945
0.970487
0.98146
0.987412
0.990211
0.99039
0.990313
0.976994
0.966073
0.982206
0.901384
0.811597
0.816814
0.858616
0.829004
0.584576
0.879158
0.928737
0.725662
0.948443
0.986175
0.978419
0.977947
0.982444
0.988787
0.990908
0.981825
0.979192
0.982224
0.979182
0.831383
0.800444
0.867785
0.875966
0.824981
0.944538
0.950794
0.775621
0.995593
0.995596
0.995287
0.978968
0.981439
0.990271
0.990922
0.986414
0.982282
0.982252
0.982224
0.866305
0.799591
0.92628
0.949838
0.950752
0.950781
0.950763
0.783879
0.997871
0.998528
0.999109
0.999478
0.999618
0.999668
0.99968
0.999757
0.999786
0.999786
0.999786
0.999786
0.999786
0.999786
0.999773
0.99951
0.998663
0.997815
0.99743
0.997392
0.997526
0.997508
0.998511
0.970869
0.980109
0.988584
0.992348
0.993305
0.996213
0.981798
0.974518
0.97605
0.972976
0.974189
0.97186
0.967739
0.955752
0.906895
0.844956
0.777031
0.762569
0.752789
0.755545
0.788093
0.840136
0.885728
0.388427
0.390056
0.423533
0.458128
0.452394
0.435573
0.461834
0.502999
0.529125
0.595573
0.643339
0.583774
0.476313
0.344666
0.200037
0.114014
0.0681663
0.0589866
0.0434565
0.0351474
0.0524978
0.0929813
0.17322
5.98639e-13
5.53448e-13
3.30453e-13
3.00619e-13
5.12729e-13
0.00090152
0.00137124
0.0030956
0.00494211
0.0134576
0.0367536
0.0250936
0.00439095
1.6624e-19
2.89451e-20
-1.62564e-21
1.08272e-24
-1.62341e-23
1.57079e-06
2.29559e-08
3.13842e-13
3.14046e-13
4.30628e-11
7.61743e-06
1.96768e-05
1.5834e-05
5.00341e-06
1.40653e-05
3.3784e-05
5.13579e-05
3.59946e-05
1.76497e-05
0.000153691
9.48603e-11
1.31831e-20
3.06944e-21
-1.69698e-09
-2.35648e-10
5.92335e-05
8.30871e-05
4.99202e-05
8.99051e-05
0.000788165
0.00051036
4.28359e-05
0.000139806
8.64919e-05
0.000166377
0.000105035
5.64946e-05
8.30896e-05
0.000254577
0.000383794
0.000237602
2.26688e-07
9.8931e-07
1.30619e-12
0
-3.16018e-13
-1.93406e-10
7.833e-05
0.000240172
0.000195045
0.000187329
0.000191223
0.00217338
0.0036676
0.00181375
0.000516487
0.000273659
0.00027325
0.000273403
7.45061e-05
9.76147e-06
8.04151e-05
0.00180106
0.0035693
0.00310927
0.0017881
0.000594942
0.000120648
9.93594e-05
0.000108865
0.000132482
0.000174157
0.0017623
0.0040568
0.00150031
0.00139749
0.010679
0.0174929
0.00784396
0.000106656
0.000170917
8.93872e-05
1.3232e-05
8.25663e-06
1.76582e-05
0.00156099
0.0040415
0.00458171
0.00458053
0.00452127
0.0044105
0.00402624
0.00212793
9.91905e-05
9.9072e-05
0.00208775
0.0112806
0.0111386
0.00388969
0.0129324
0.0197936
0.0197906
2.22048e-08
2.10163e-08
2.0413e-08
1.68454e-06
8.18619e-06
1.59306e-06
5.27792e-08
1.75568e-05
0.000401936
0.00139055
0.00308677
0.00391946
0.00381029
0.00176669
0.000189474
0.000314804
0.00684172
0.0117173
0.0117175
0.0100268
0.0118763
0.0177775
0.0180223
9.92728e-08
4.35413e-08
2.04004e-08
2.67168e-08
6.59833e-08
2.13109e-08
5.14328e-08
5.20409e-08
5.26565e-08
5.51164e-08
4.73326e-05
0.000177011
0.00038478
0.000588409
0.000410163
0.00121414
0.0044342
0.00376074
0.00296247
0.0018842
0.000115465
2.88978e-07
6.94296e-05
2.54881e-07
1.4082e-07
2.88391e-08
2.03581e-08
2.50455e-08
1.03229e-07
3.02355e-07
7.90383e-07
1.11459e-06
8.47062e-07
9.0844e-07
2.83325e-06
1.91216e-06
8.50553e-07
6.1905e-06
0.000311316
1.6926e-05
8.02112e-06
3.3552e-06
1.96376e-06
4.06347e-07
3.31585e-07
1.8422e-10
2.54533e-07
1.48199e-07
4.09746e-08
2.0984e-08
6.97636e-08
1.81249e-07
1.07312e-06
1.84658e-06
1.84658e-06
1.84658e-06
1.47269e-06
4.29892e-07
4.25682e-07
8.68988e-07
2.63169e-06
2.62847e-06
2.63665e-06
4.59694e-06
7.86288e-06
1.02313e-05
8.4366e-06
5.7827e-06
2.19044e-06
1.8612e-07
5.36694e-08
2.50177e-08
2.49742e-08
3.59432e-08
1.45953e-07
5.19059e-07
1.31965e-06
1.01085e-06
5.83318e-08
9.43606e-08
4.12717e-07
3.88999e-07
7.12297e-06
1.45753e-05
1.45629e-05
6.69679e-06
7.69886e-06
1.38327e-05
1.68535e-05
1.70356e-05
1.03181e-05
1.53097e-07
5.24698e-08
1.46233e-08
1.26272e-08
1.36006e-08
2.02314e-08
6.29977e-08
6.56099e-08
2.17166e-09
1.91997e-09
2.27917e-09
9.71847e-09
7.17047e-08
3.55801e-07
7.1458e-06
1.94508e-05
1.94545e-05
1.52542e-05
5.7049e-07
5.82949e-07
1.40475e-05
3.838e-05
2.18209e-05
3.4235e-06
2.03487e-08
8.2453e-09
8.88101e-09
9.80259e-09
1.24221e-08
1.53734e-08
1.49106e-08
7.70851e-09
1.94519e-09
3.92674e-09
9.40744e-09
1.66309e-08
2.56033e-08
3.88293e-09
5.79196e-07
3.12855e-08
2.09095e-09
2.09099e-09
7.63716e-06
3.95734e-05
3.95785e-05
3.95783e-05
2.29179e-05
1.02939e-08
5.09045e-09
6.66623e-09
7.62965e-09
7.25785e-09
2.79056e-09
1.4195e-09
1.40247e-09
1.89211e-09
2.88222e-09
3.39032e-09
3.05082e-09
2.87799e-09
2.87453e-09
3.15046e-09
2.8254e-09
2.30743e-09
2.09142e-09
1.55743e-05
3.95799e-05
3.95816e-05
3.95817e-05
3.67949e-05
1.07523e-08
3.26864e-09
4.36201e-09
4.94704e-09
4.35085e-09
2.37928e-09
1.60579e-09
1.31287e-09
1.55081e-09
1.99356e-09
2.39658e-09
2.83506e-09
3.89645e-09
4.74902e-09
5.83825e-09
6.86471e-09
4.79318e-09
2.09179e-09
8.84604e-07
1.2156e-05
3.9587e-05
3.95842e-05
1.84167e-05
1.29534e-08
2.22665e-09
2.70109e-09
3.11652e-09
2.76213e-09
2.05888e-09
1.46893e-09
1.08852e-09
1.0225e-09
1.2195e-09
1.60952e-09
2.26249e-09
3.22294e-09
4.79531e-09
5.94894e-09
6.2788e-09
4.61271e-09
2.1047e-09
2.62173e-09
1.62282e-08
1.17415e-05
2.01029e-05
2.4695e-06
1.29509e-08
1.60609e-09
1.71542e-09
1.9399e-09
1.67011e-09
1.33792e-09
1.00547e-09
7.3689e-10
6.20842e-10
6.78589e-10
8.82125e-10
1.24393e-09
1.74633e-09
2.43117e-09
3.17521e-09
3.36884e-09
2.22309e-09
2.19503e-09
1.02759e-08
4.87761e-08
3.58852e-08
3.5777e-08
6.32664e-07
1.24721e-08
1.10711e-09
1.05536e-09
1.16714e-09
9.7215e-10
7.56587e-10
5.69927e-10
4.32299e-10
3.53272e-10
3.43357e-10
4.12088e-10
5.04048e-10
6.66353e-10
9.56422e-10
1.27331e-09
1.51243e-09
1.63118e-09
2.0887e-09
8.47024e-09
4.53874e-08
3.60156e-08
4.59983e-08
1.19988e-07
1.197e-08
7.81077e-10
6.17304e-10
6.59473e-10
5.57564e-10
4.4261e-10
3.33913e-10
2.42879e-10
1.91791e-10
1.70376e-10
1.83552e-10
2.0856e-10
2.70907e-10
3.68772e-10
5.04237e-10
6.45635e-10
7.96849e-10
1.47019e-09
9.13012e-09
6.42258e-08
9.30077e-08
4.92906e-08
2.71705e-08
1.15591e-08
5.80745e-10
4.36166e-10
4.60214e-10
4.28675e-10
3.80038e-10
2.89932e-10
1.85297e-10
1.34027e-10
9.79084e-11
8.24649e-11
8.86539e-11
1.12275e-10
1.51802e-10
2.11717e-10
2.907e-10
3.97261e-10
6.4943e-10
2.37375e-09
1.52898e-08
9.2305e-08
9.24894e-08
4.29221e-08
1.12816e-08
4.43938e-10
3.8252e-10
4.75602e-10
7.07574e-10
7.37414e-10
4.86478e-10
2.24211e-10
1.44115e-10
8.79875e-11
5.689e-11
4.39427e-11
4.48935e-11
5.69992e-11
8.15588e-11
1.25954e-10
2.05768e-10
3.16662e-10
3.5674e-10
3.58885e-10
1.09141e-08
4.75342e-08
3.49437e-08
1.11705e-08
4.05314e-10
4.1145e-10
8.69798e-10
1.20995e-09
1.18273e-09
7.28433e-10
2.80895e-10
1.83284e-10
1.05971e-10
5.70388e-11
3.30332e-11
2.31813e-11
2.26734e-11
3.1378e-11
5.15492e-11
9.35497e-11
1.69176e-10
2.99872e-10
3.91903e-10
3.93109e-10
3.88318e-09
5.48046e-09
1.10409e-08
3.90332e-10
5.89968e-10
1.22853e-09
1.77624e-09
1.83405e-09
1.08193e-09
3.38916e-10
2.28265e-10
1.3265e-10
6.88267e-11
3.61569e-11
1.92129e-11
1.25929e-11
1.26458e-11
1.91638e-11
3.51769e-11
6.97843e-11
1.35303e-10
2.56208e-10
4.37113e-10
6.28424e-10
3.36472e-09
1.10026e-08
4.30975e-10
8.91631e-10
1.59255e-09
2.32851e-09
2.73935e-09
1.40789e-09
3.927e-10
2.78068e-10
1.62779e-10
8.25681e-11
4.24256e-11
2.19347e-11
1.07598e-11
6.78172e-12
7.28509e-12
1.20724e-11
2.32748e-11
4.7088e-11
9.00107e-11
1.81402e-10
5.68438e-10
1.01802e-09
1.10078e-08
6.09263e-10
1.30973e-09
1.70603e-09
2.75227e-09
9.06381e-09
1.25447e-09
4.22564e-10
3.21973e-10
1.8761e-10
9.31578e-11
4.80747e-11
2.5026e-11
1.25516e-11
5.70165e-12
3.59683e-12
4.28293e-12
7.50065e-12
1.41635e-11
2.83339e-11
6.09117e-11
1.22133e-10
3.89329e-10
1.11369e-08
8.68201e-10
1.87281e-09
6.52635e-09
2.19672e-08
3.72905e-08
4.29515e-10
4.29885e-10
3.91295e-10
2.02815e-10
9.66366e-11
5.0573e-11
2.75189e-11
1.41276e-11
6.59157e-12
2.84408e-12
1.8166e-12
2.44492e-12
4.4216e-12
7.87181e-12
1.53764e-11
4.47628e-11
7.44609e-11
1.1282e-08
1.08529e-09
7.31701e-09
1.3112e-07
3.49683e-07
4.7138e-08
4.29339e-10
4.56527e-10
4.2261e-10
1.96793e-10
9.02511e-11
4.85359e-11
2.78434e-11
1.50935e-11
7.41736e-12
3.20542e-12
1.1587e-12
8.94721e-13
1.31048e-12
2.44489e-12
4.87892e-12
7.89898e-12
2.02184e-11
1.14184e-08
2.43282e-09
7.49666e-08
6.41055e-07
6.13312e-07
1.68064e-08
4.31318e-10
5.61436e-10
4.19131e-10
1.73996e-10
7.66417e-11
4.19857e-11
2.55782e-11
1.49032e-11
7.71438e-12
3.47594e-12
1.31911e-12
4.49647e-13
4.56418e-13
7.26617e-13
1.26004e-12
2.95887e-12
4.11494e-12
1.16166e-08
8.33189e-09
3.04529e-07
7.28604e-07
6.06412e-07
4.38601e-10
4.53631e-10
6.99231e-10
3.91496e-10
1.4217e-10
5.90911e-11
3.2873e-11
2.12362e-11
1.33654e-11
7.471e-12
3.58113e-12
1.48859e-12
3.42513e-13
1.71585e-13
2.29872e-13
4.30466e-13
6.53681e-13
1.29182e-12
1.21232e-08
1.75119e-08
4.65907e-07
6.96492e-07
1.99776e-07
4.42349e-10
7.22926e-10
7.69435e-10
3.39864e-10
1.0574e-10
4.22699e-11
2.3624e-11
1.59596e-11
1.06915e-11
6.56207e-12
3.45446e-12
1.54656e-12
4.33184e-13
9.09294e-14
7.69215e-14
1.16178e-13
2.40413e-13
3.11381e-13
1.29982e-08
6.33914e-08
5.75145e-07
5.95878e-07
2.35571e-08
4.40936e-10
1.06388e-09
6.93903e-10
2.17917e-10
7.57577e-11
2.83096e-11
1.57238e-11
1.08996e-11
7.64976e-12
5.07962e-12
2.97554e-12
1.45089e-12
5.23718e-13
8.07796e-14
3.05142e-14
3.53567e-14
5.36994e-14
9.35709e-14
1.36446e-08
1.25433e-07
6.36531e-07
4.93253e-07
4.64878e-10
6.13252e-10
1.51073e-09
5.82471e-10
1.61091e-10
5.35731e-11
1.82427e-11
9.9138e-12
6.86596e-12
4.86845e-12
3.42665e-12
2.2432e-12
1.23112e-12
5.36933e-13
9.84169e-14
1.46496e-14
9.55921e-15
1.8257e-14
2.1936e-14
1.77661e-08
1.6277e-07
6.36552e-07
4.00215e-07
4.66095e-10
1.2687e-09
2.09325e-09
6.1727e-10
1.56552e-10
3.82245e-11
1.11267e-11
5.89931e-12
3.98129e-12
2.76284e-12
1.99717e-12
1.43471e-12
9.10095e-13
4.64942e-13
1.12562e-13
1.22902e-14
3.31265e-15
4.01636e-15
6.35418e-15
1.75307e-08
1.41273e-07
6.14435e-07
1.49777e-07
4.64881e-10
2.15209e-09
2.64416e-09
7.15415e-10
1.64062e-10
2.85575e-11
6.47832e-12
3.28743e-12
2.14963e-12
1.40742e-12
9.95233e-13
7.62457e-13
5.58506e-13
3.4216e-13
1.14161e-13
1.42937e-14
1.6553e-15
1.29396e-15
1.64132e-15
1.80886e-08
1.15914e-07
2.9451e-07
3.72716e-08
4.24263e-09
6.77185e-09
3.05212e-09
7.86152e-10
1.67553e-10
2.39815e-11
3.62651e-12
1.70501e-12
1.08793e-12
6.56618e-13
4.26228e-13
3.26481e-13
2.68863e-13
2.00071e-13
9.54171e-14
1.63574e-14
1.53409e-15
3.59847e-16
4.60195e-16
2.24329e-08
1.08632e-07
2.94197e-07
2.68492e-08
5.95135e-09
1.12181e-08
3.23323e-09
7.42622e-10
1.48576e-10
1.90964e-11
1.94287e-12
7.95609e-13
5.08042e-13
2.84762e-13
1.60751e-13
1.11788e-13
9.74682e-14
8.73575e-14
5.78419e-14
1.52816e-14
1.64249e-15
1.47052e-16
1.09979e-16
2.6795e-08
9.146e-08
2.05155e-07
1.95297e-09
1.30358e-08
1.12236e-08
2.83155e-09
5.72579e-10
1.03494e-10
1.21698e-11
9.24622e-13
3.14472e-13
2.08236e-13
1.12442e-13
5.47111e-14
3.09256e-14
2.55544e-14
2.70762e-14
2.5558e-14
1.09942e-14
1.67417e-15
9.59102e-17
2.77366e-17
2.76448e-08
3.20109e-08
7.4693e-09
1.95348e-09
1.62375e-08
8.2863e-09
1.83983e-09
3.55928e-10
5.07581e-11
5.25417e-12
3.23195e-13
9.66715e-14
6.77807e-14
3.73352e-14
1.66179e-14
7.30695e-15
4.79794e-15
5.51225e-15
7.24088e-15
5.87282e-15
1.21192e-15
9.53883e-17
8.37547e-18
3.62902e-08
5.2266e-09
2.34173e-09
8.60229e-09
1.39064e-08
3.0066e-09
7.90286e-10
1.49706e-10
1.47859e-11
1.20513e-12
5.84744e-14
1.91924e-14
1.51395e-14
8.93427e-15
3.9439e-15
1.42108e-15
6.42655e-16
7.5653e-16
1.39227e-15
2.04199e-15
7.49803e-16
8.62078e-17
6.31839e-18
6.67111e-08
1.14656e-08
3.33499e-09
1.73419e-08
4.12437e-09
6.07536e-10
1.50001e-10
2.26979e-11
1.53082e-12
6.5255e-14
2.46874e-15
1.86248e-15
1.7119e-15
1.1283e-15
5.17036e-16
1.70689e-16
5.59236e-17
6.23074e-17
1.88529e-16
4.72184e-16
3.86071e-16
6.69325e-17
5.14849e-18
0.99879
0.998799
0.997395
0.996124
0.918478
0.943318
0.942777
0.917089
0.250975
0.276985
0.269997
0.24036
3.91193e-12
1.69735e-12
-1.2782e-07
2.36389e-25
7.13631e-05
1.84001e-05
2.17248e-07
1.13745e-05
0.00042325
0.000432797
0.000306098
0.00025162
0.00492864
0.00396456
0.00323266
0.00279288
0.0197936
0.01756
0.0153831
0.0134329
0.0142405
0.0124088
0.011071
0.00828517
0.000167745
0.000142838
0.000167223
5.50632e-05
1.24077e-14
1.86389e-14
1.16333e-14
1.56884e-14
1.32222e-09
2.22601e-11
1.23226e-12
9.87323e-10
1.1105e-07
1.22443e-07
5.68277e-08
2.64351e-08
1.77026e-06
5.23918e-07
1.62219e-07
5.62774e-07
2.51773e-06
5.13155e-07
7.33185e-07
1.7358e-06
1.9823e-07
4.83633e-07
9.88561e-07
2.40441e-06
1.89521e-07
9.12666e-07
1.13055e-06
1.18173e-06
1.1566e-05
1.52069e-05
7.86403e-06
1.86282e-06
2.71016e-05
2.86466e-05
2.8632e-05
2.78599e-05
6.49094e-08
4.43306e-06
2.14273e-05
2.15605e-05
1.9375e-08
2.33806e-08
2.31841e-08
3.00128e-06
5.28783e-08
7.86111e-08
8.36882e-08
8.0193e-08
1.22207e-08
7.85394e-08
1.17528e-07
1.17886e-07
7.57656e-09
1.59583e-08
7.38058e-08
1.13658e-07
4.99919e-09
6.59507e-09
3.03626e-08
3.72869e-08
2.85659e-09
3.64006e-09
5.20339e-09
5.20344e-09
6.03381e-10
8.04872e-10
1.03324e-09
9.42862e-10
1.63365e-10
1.93943e-10
2.14498e-10
2.56206e-10
2.99123e-11
3.78628e-11
4.83322e-11
4.93828e-11
7.18577e-12
8.94835e-12
9.98457e-12
1.22292e-11
1.68888e-12
2.10576e-12
2.63665e-12
2.79061e-12
4.64866e-13
5.28153e-13
5.81378e-13
6.92609e-13
1.0445e-13
1.15927e-13
1.35483e-13
1.38654e-13
2.79329e-14
2.85964e-14
2.96511e-14
3.28636e-14
6.36297e-15
6.63605e-15
7.17175e-15
7.02124e-15
1.82092e-15
1.76148e-15
1.7227e-15
1.83704e-15
4.65542e-16
4.48226e-16
4.77957e-16
4.69831e-16
1.23041e-16
1.10911e-16
1.07641e-16
1.19056e-16
2.46924e-17
2.36837e-17
2.58652e-17
2.54997e-17
5.52288e-18
4.92068e-18
4.51666e-18
5.00376e-18
9.80899e-19
8.14769e-19
8.8659e-19
8.19317e-19
2.05676e-19
1.45457e-19
1.26969e-19
1.07113e-19
0.991904
0.995419
0.995395
0.980775
0.976505
0.98947
0.979395
0.974991
0.975175
0.982162
0.976398
0.865041
0.809285
0.931162
0.939807
0.950762
0.950762
0.950782
0.851049
0.900475
0.866885
0.874882
0.865597
0.853792
0.940867
0.977729
0.97767
0.977596
0.913429
0.818039
0.823807
0.817626
0.928152
0.927391
0.947945
0.950762
0.93143
0.928561
0.215709
0.138783
0.189517
0.375349
0.659206
0.822833
0.912066
0.972119
0.850649
0.487113
0.45465
0.567259
0.783052
0.928995
0.928973
0.92204
0.791879
0.745947
0.775255
2.11081e-25
-7.50178e-22
2.43409e-20
0.0151259
0.0979438
0.39136
0.5704
0.46779
0.148426
0.0257861
0.0231298
-4.2642e-06
0.365176
0.846741
0.917394
0.58192
0.155512
0.0951849
0.0832469
7.66402e-07
0.000854444
0.0164337
0.0122133
0.00327663
2.49398e-07
8.88324e-17
-1.00093e-22
-3.12339e-23
-1.08572e-07
4.29666e-18
1.52372e-09
0.0163413
0.237023
0.300358
0.0709411
0.000127784
0.00012817
0.000126095
0.000122063
0.000842761
0.0299136
0.031031
0.0100177
0.00155904
0.000695504
0.000116427
5.53447e-05
6.81272e-05
5.7455e-05
6.63888e-06
-6.24051e-09
-5.51942e-07
0.0010023
0.000973458
0.000300286
0.000317071
0.000702812
0.00157512
0.000924425
0.0245629
0.0405647
0.0406752
0.0166038
0.00267423
0.00106822
0.000314741
7.45374e-05
0.000205975
0.000215622
4.08062e-05
0.000132683
0.000625347
0.000669802
0.000783197
0.000882126
0.00213409
0.00903536
0.00380889
0.0014541
0.0235145
0.0405656
0.0406786
0.0246604
0.0107414
0.00539546
0.00138405
0.000241367
0.000134297
0.000471799
0.000558483
0.000751868
0.00150796
0.00198779
0.00226006
0.00254002
0.00535745
0.00380661
0.00142873
0.000209321
0.00449642
0.0134102
0.0210343
0.0235705
0.0238943
0.0198092
0.00431169
0.000135604
0.000135925
0.000404631
0.00236987
0.00254
0.00254006
0.00254002
0.00254007
1.20399e-09
1.18829e-09
4.289e-05
0.000199998
4.04448e-07
4.40715e-10
1.58299e-17
1.13038e-10
0.00094532
0.0153456
0.0227091
0.0229399
0.00714036
0.000394273
0.00102954
0.00254006
0.00198439
0.000809826
0.00137577
4.03477e-09
1.48357e-09
1.40591e-09
4.06977e-08
7.1332e-08
2.40444e-08
1.52177e-07
5.04878e-08
6.37905e-10
6.82161e-10
0.00111794
0.00484493
0.00374227
0.000342406
2.9493e-06
0.000869459
0.000196345
6.79547e-06
2.93038e-06
1.48566e-08
3.68101e-09
1.10813e-07
5.42582e-07
4.51799e-07
2.23101e-08
1.40933e-06
1.26747e-06
7.33384e-07
2.56788e-08
1.19622e-08
0.000304491
0.00024994
2.90232e-05
2.74228e-06
3.82691e-06
7.46528e-06
2.92842e-06
2.47421e-06
1.26792e-07
6.6344e-07
1.81202e-06
1.8072e-06
1.59054e-06
4.54161e-06
1.67918e-05
1.37886e-05
2.64689e-06
1.11067e-06
9.80578e-08
1.97114e-06
6.57177e-07
5.81657e-07
2.55424e-06
5.80034e-06
2.45963e-05
3.57396e-06
3.64424e-06
1.33634e-06
3.54246e-06
3.54088e-06
1.48499e-06
3.27338e-06
1.74581e-05
1.7677e-05
1.42943e-05
2.09744e-06
2.88089e-06
6.22778e-07
5.7298e-08
6.51901e-08
3.09981e-06
1.02351e-05
2.52672e-05
4.04434e-05
3.73007e-05
5.35879e-06
3.82725e-06
3.02601e-06
5.34952e-08
4.67932e-08
8.41794e-06
1.7302e-05
1.40252e-05
1.42369e-07
1.20583e-06
2.93604e-06
9.39193e-07
4.45279e-08
9.67425e-08
1.11165e-05
1.79042e-05
4.04434e-05
4.04997e-05
2.33771e-05
7.90296e-06
3.56305e-06
1.65864e-07
4.7022e-08
4.78431e-08
2.47226e-06
5.36711e-06
1.19301e-06
1.35694e-07
2.24834e-07
5.541e-07
4.10988e-07
4.53658e-08
4.59656e-08
4.72158e-06
2.34936e-05
4.04997e-05
1.75513e-05
1.30051e-06
4.42977e-06
5.35686e-07
4.65517e-07
3.09622e-06
6.02559e-06
5.99486e-06
2.95082e-06
1.34077e-07
1.27116e-07
1.20352e-07
4.48003e-08
4.42537e-08
4.27126e-08
4.42534e-08
3.86659e-07
1.7458e-05
2.99183e-05
4.42399e-06
3.66984e-07
1.42617e-06
5.5629e-07
6.79853e-07
1.41781e-05
2.48439e-05
3.93451e-05
3.0528e-05
6.84445e-06
3.77659e-06
3.75976e-06
1.53649e-06
2.12756e-06
2.32233e-06
1.04506e-06
3.28807e-06
7.77147e-06
2.82658e-06
8.27408e-07
1.38593e-07
8.03714e-07
2.30402e-06
1.32986e-06
8.37385e-06
4.22202e-05
4.26262e-05
4.26262e-05
4.2626e-05
4.26121e-05
4.26036e-05
4.14296e-05
7.43755e-06
5.4806e-06
9.57093e-06
9.51874e-06
4.12403e-06
9.47923e-07
2.12855e-07
1.04493e-07
8.58409e-08
1.81872e-05
1.37377e-05
7.69645e-06
2.21093e-05
4.26262e-05
4.26262e-05
3.07703e-05
1.32355e-05
1.835e-05
2.52547e-05
1.33094e-05
3.4812e-06
5.52839e-06
5.51701e-06
2.75521e-06
2.41833e-07
2.40307e-07
2.60223e-07
7.85672e-08
9.83524e-06
1.39053e-05
5.57721e-06
8.89888e-07
1.02266e-05
1.55903e-05
1.00788e-05
7.14475e-06
2.27254e-06
6.51087e-07
9.61793e-07
2.96423e-07
7.76825e-08
4.5642e-07
4.72873e-07
3.59316e-07
4.38069e-07
3.17359e-07
7.82412e-08
8.05153e-08
3.13008e-07
3.68681e-07
2.92671e-08
9.67209e-10
9.67209e-10
9.67209e-10
9.67211e-10
9.70139e-10
6.3782e-09
3.42028e-08
1.26833e-08
2.42169e-09
6.61171e-08
9.27823e-08
4.33531e-07
4.54793e-07
2.45138e-07
7.82412e-08
1.07604e-07
9.41262e-09
8.85917e-09
8.84064e-09
9.559e-09
1.79496e-09
9.67211e-10
9.6721e-10
9.67212e-10
9.6716e-10
1.87001e-09
3.69785e-09
2.35574e-09
1.32789e-09
1.30617e-09
1.81167e-07
4.46331e-07
1.81948e-07
7.82412e-08
9.03115e-08
3.53019e-08
1.25693e-08
8.76029e-09
1.18279e-08
5.63232e-09
2.17647e-09
1.79251e-09
1.68087e-09
2.14648e-09
2.22781e-09
4.33892e-09
5.44319e-09
5.89038e-09
2.76138e-09
8.48086e-09
1.11765e-07
2.09625e-07
8.06406e-08
2.77526e-08
9.15787e-09
8.23429e-09
7.52022e-09
7.00218e-09
3.50413e-09
2.25624e-09
2.06055e-09
2.44211e-09
3.60358e-09
5.05721e-09
7.83131e-09
1.00735e-08
1.35732e-08
3.90319e-09
3.92991e-09
1.06631e-07
2.09792e-07
1.6317e-07
3.19335e-09
2.81453e-09
3.70956e-09
3.08163e-09
2.46087e-09
1.66042e-09
1.4356e-09
1.58381e-09
2.04571e-09
3.00076e-09
4.74263e-09
8.45751e-09
1.20869e-08
1.49926e-08
4.15598e-09
1.10929e-07
2.0267e-07
1.68975e-07
2.02577e-07
1.05868e-09
1.03382e-09
1.00706e-09
8.57603e-10
7.67063e-10
6.99955e-10
7.55254e-10
9.42361e-10
1.3274e-09
2.04014e-09
3.41435e-09
6.19874e-09
9.77538e-09
1.24812e-08
1.25523e-08
1.74912e-07
2.02834e-07
1.10731e-07
2.04312e-07
2.57867e-10
2.68811e-10
2.51863e-10
2.48871e-10
2.61447e-10
3.00315e-10
4.00132e-10
5.90507e-10
9.48983e-10
1.57676e-09
2.69676e-09
4.49372e-09
6.95482e-09
9.59453e-09
1.8151e-08
8.01732e-08
1.24337e-07
6.68397e-08
1.89107e-07
5.59414e-11
6.28599e-11
6.99931e-11
8.08649e-11
1.02723e-10
1.51473e-10
2.36503e-10
4.04208e-10
7.66368e-10
1.49833e-09
2.81291e-09
4.55663e-09
5.97644e-09
7.37071e-09
1.22392e-08
1.42912e-08
1.89127e-08
1.82967e-08
1.06263e-07
1.32494e-11
1.61695e-11
2.02184e-11
2.57861e-11
3.41326e-11
4.53261e-11
7.35336e-11
1.70408e-10
4.63771e-10
1.24353e-09
2.97999e-09
6.19207e-09
9.70948e-09
7.06372e-09
5.67272e-09
4.44026e-09
4.40245e-09
7.87082e-09
7.1331e-08
3.3658e-12
4.22949e-12
5.17468e-12
6.04496e-12
6.12698e-12
7.06869e-12
1.59842e-11
5.41516e-11
2.10441e-10
7.98887e-10
2.52953e-09
6.09639e-09
1.52384e-08
2.28333e-08
2.16761e-08
7.02478e-09
4.40514e-09
9.81912e-09
1.04884e-07
7.3031e-13
9.49969e-13
1.07179e-12
1.15956e-12
1.13057e-12
1.59107e-12
4.49957e-12
1.68764e-11
7.2476e-11
3.80008e-10
2.04355e-09
6.19963e-09
2.0702e-08
4.43403e-08
4.27192e-08
6.73697e-09
4.40856e-09
1.85282e-08
1.20933e-07
1.61798e-13
1.73364e-13
1.87739e-13
2.12028e-13
2.81082e-13
6.42496e-13
2.1351e-12
7.77722e-12
3.1362e-11
1.11944e-10
6.93333e-10
6.90683e-09
2.04341e-08
4.5191e-08
4.85287e-08
3.81274e-08
5.87173e-09
1.27528e-08
1.20928e-07
3.28202e-14
3.36408e-14
3.78416e-14
5.4849e-14
1.1934e-13
3.61948e-13
1.34972e-12
5.08486e-12
1.82522e-11
6.52847e-11
3.86516e-10
6.3803e-09
1.62945e-08
3.35411e-08
4.8589e-08
4.85771e-08
2.80443e-08
4.74513e-08
1.02031e-07
7.3513e-15
7.80819e-15
1.11244e-14
2.34143e-14
6.65918e-14
2.30533e-13
7.9495e-13
2.9989e-12
1.06543e-11
3.40868e-11
1.32793e-10
1.4327e-09
8.12492e-09
2.19303e-08
4.21605e-08
4.85826e-08
3.84149e-08
1.05701e-07
1.05801e-07
1.85886e-15
2.23588e-15
4.24036e-15
1.20921e-14
4.01763e-14
1.55682e-13
5.54717e-13
2.05151e-12
7.13762e-12
2.22415e-11
7.08233e-11
3.92842e-10
1.69362e-09
7.51172e-09
2.68086e-08
3.8992e-08
4.70451e-08
1.17297e-07
1.08438e-07
4.96646e-16
6.98444e-16
1.67054e-15
5.68315e-15
2.14839e-14
8.64898e-14
3.31396e-13
1.27988e-12
4.56379e-12
1.45777e-11
4.88558e-11
3.35267e-10
1.05645e-09
1.73435e-09
4.84256e-09
1.67426e-08
4.78279e-08
1.07211e-07
3.20753e-07
1.27255e-16
1.97028e-16
5.39749e-16
2.04327e-15
8.44733e-15
3.72722e-14
1.61072e-13
6.57712e-13
2.63856e-12
9.4222e-12
2.95298e-11
1.32665e-10
8.2083e-10
1.75651e-09
2.34758e-09
7.51913e-09
3.23384e-08
7.1619e-08
3.83322e-07
2.82746e-17
4.39175e-17
1.23856e-16
4.99638e-16
2.25016e-15
1.08476e-14
5.16242e-14
2.34303e-13
1.05619e-12
4.34155e-12
1.50722e-11
5.44772e-11
3.25169e-10
1.59849e-09
2.73855e-09
4.10748e-09
1.16754e-08
4.86294e-08
3.83322e-07
5.12397e-18
6.94204e-18
1.92017e-17
8.39552e-17
4.36144e-16
2.52663e-15
1.33941e-14
7.44713e-14
3.84187e-13
1.84964e-12
7.9538e-12
3.07612e-11
1.237e-10
7.9707e-10
2.6505e-09
3.8077e-09
6.20319e-09
4.10295e-08
3.83316e-07
7.50969e-19
7.77686e-19
1.57456e-18
6.65485e-18
4.00115e-17
2.79885e-16
1.99351e-15
1.40915e-14
9.16971e-14
5.30023e-13
2.8023e-12
1.33517e-11
5.61959e-11
2.41769e-10
1.43762e-09
3.63424e-09
6.20199e-09
3.9994e-08
2.4266e-07
8.63496e-20
7.03562e-20
8.9144e-20
2.55907e-19
1.62475e-18
1.47353e-17
1.38445e-16
1.29432e-15
1.15771e-14
9.06319e-14
6.0292e-13
3.26049e-12
1.35168e-11
5.78761e-11
3.66583e-10
1.82396e-09
5.09374e-09
1.77105e-08
3.29601e-09
)
;

boundaryField
{
    leftWall
    {
        type            zeroGradient;
    }
    rightWall
    {
        type            zeroGradient;
    }
    lowerWall
    {
        type            zeroGradient;
    }
    atmosphere
    {
        type            inletOutlet;
        inletValue      uniform 0;
        value           nonuniform List<scalar> 
46
(
6.67111e-08
1.14656e-08
3.33499e-09
0
0
0
0
0
0
0
0
0
0
0
0
0
0
0
0
0
0
0
0
0
0
0
0
0
0
0
0
0
0
0
0
1.15771e-14
9.06319e-14
6.0292e-13
3.26049e-12
1.35168e-11
5.78761e-11
3.66583e-10
1.82396e-09
5.09374e-09
1.77105e-08
3.29601e-09
)
;
    }
    defaultFaces
    {
        type            empty;
    }
}


// ************************************************************************* //
