/*--------------------------------*- C++ -*----------------------------------*\
| =========                 |                                                 |
| \\      /  F ield         | OpenFOAM: The Open Source CFD Toolbox           |
|  \\    /   O peration     | Version:  2312                                  |
|   \\  /    A nd           | Website:  www.openfoam.com                      |
|    \\/     M anipulation  |                                                 |
\*---------------------------------------------------------------------------*/
FoamFile
{
    version     2.0;
    format      ascii;
    arch        "LSB;label=32;scalar=64";
    class       volScalarField;
    location    "5.35";
    object      alpha.water;
}
// * * * * * * * * * * * * * * * * * * * * * * * * * * * * * * * * * * * * * //

dimensions      [0 0 0 0 0 0 0];

internalField   nonuniform List<scalar> 
2268
(
3.25334e-07
3.25321e-07
1.97432e-07
1.23261e-08
4.29324e-10
5.90678e-10
4.75398e-10
2.53401e-10
1.49498e-10
1.13265e-10
1.00543e-10
9.79273e-11
9.80867e-11
1.0018e-10
1.10792e-10
1.36435e-10
1.83918e-10
2.54532e-10
3.62438e-10
7.47239e-10
1.18405e-09
1.37625e-09
1.37626e-09
3.12194e-07
2.23932e-07
4.99863e-08
1.42671e-09
4.32692e-10
3.5862e-10
2.94727e-10
2.83302e-10
2.67954e-10
2.67121e-10
2.89131e-10
3.07071e-10
3.13705e-10
2.79838e-10
2.63873e-10
2.86848e-10
3.86476e-10
5.04559e-10
6.99309e-10
9.83095e-10
1.21713e-09
1.26959e-09
1.24332e-09
5.78649e-08
1.75916e-08
3.8657e-09
4.52743e-09
4.64031e-09
4.64187e-09
2.44778e-09
7.12593e-10
5.89333e-10
7.10686e-10
9.67894e-10
1.16976e-09
1.173e-09
1.04951e-09
7.36934e-10
5.5174e-10
5.41365e-10
5.9238e-10
6.80776e-10
1.07694e-09
1.08374e-09
7.8967e-10
9.57179e-10
1.09512e-08
5.29056e-09
2.52666e-09
2.95651e-09
3.39189e-09
2.62909e-09
1.36882e-09
6.74739e-10
5.59351e-10
7.38872e-10
1.04176e-09
1.08977e-09
4.36798e-10
3.78206e-10
3.44185e-10
3.34885e-10
3.40496e-10
7.55446e-10
5.07323e-09
1.44215e-08
1.48341e-08
7.78546e-10
7.8967e-10
7.78637e-10
1.0082e-09
3.12273e-10
3.85951e-10
6.37455e-10
4.85614e-10
1.5192e-10
3.82265e-11
4.76374e-13
-8.9541e-13
-1.53564e-12
-1.47722e-12
5.5738e-22
3.25007e-22
1.28187e-24
-5.97064e-23
-4.39667e-14
0.00555006
0.0147093
0.0245781
0.0327663
0.0428643
0.0754246
-1.47425e-14
-8.7314e-15
-7.89472e-16
-1.98278e-16
-1.5991e-20
9.99655e-21
1.04075e-20
1.87197e-24
-7.64364e-16
0.0369542
0.0942569
0.159665
0.233964
0.323435
0.416179
0.467589
0.488838
0.542262
0.594326
0.635805
0.663295
0.681008
0.719109
0.0505644
0.0593946
0.0746272
0.104664
0.162173
0.241674
0.331154
0.435514
0.569339
0.687686
0.786555
0.868938
0.932789
0.968657
0.986977
0.986807
0.966894
0.946477
0.941888
0.954342
0.963462
0.957391
0.931864
0.68076
0.704681
0.750068
0.807993
0.862013
0.907116
0.952184
0.989811
0.999537
0.99976
0.999752
0.999679
0.99978
0.999786
0.999773
0.999786
0.999786
0.999773
0.999781
0.999782
0.999782
0.999781
0.970966
0.0101674
0.00742712
0.00302873
0.00229885
0.00364736
0.00513953
0.00601943
0.00741126
0.00804098
0.00837261
0.0086316
0.00862957
0.00832538
0.00594494
0.00465363
0.00463014
0.00386417
0.00301986
0.0029125
9.03053e-05
8.70572e-05
8.9932e-05
8.85444e-05
0.000456839
0.000929122
1.21754e-11
-6.5086e-17
-2.77178e-06
-6.60009e-06
-3.39207e-06
1.38447e-08
0.00034184
0.00084659
0.000858049
0.00101178
0.000685842
0.000400858
0.00041539
0.261594
0.285779
0.313512
0.335653
0.381068
0.398123
0.387525
0.359655
0.313789
0.264219
0.205289
0.0776804
2.96808e-05
2.96572e-05
2.95998e-05
2.96572e-05
2.96806e-05
2.97374e-05
2.97629e-05
0.775096
0.959476
0.951938
0.910571
0.887143
0.893728
0.921128
0.926556
0.91077
0.889064
0.856286
0.806321
0.517737
0.242382
0.0301446
0.0189408
0.0505845
0.107652
0.099149
0.782778
0.990506
0.990476
0.992442
0.99246
0.976607
0.973252
0.974693
0.944421
0.971487
0.875355
0.865991
0.888068
0.888375
0.623814
0.357358
0.628447
0.763838
0.518888
0.807138
0.970952
0.98131
0.986939
0.989997
0.990358
0.990377
0.977294
0.965841
0.982239
0.909035
0.816959
0.817569
0.855376
0.831591
0.592754
0.877308
0.929966
0.724011
0.944965
0.986511
0.979289
0.978288
0.982474
0.988562
0.990908
0.982374
0.979148
0.982339
0.98048
0.845421
0.799726
0.860959
0.873238
0.822701
0.943356
0.950808
0.780645
0.995593
0.995597
0.995595
0.979832
0.981067
0.990163
0.99092
0.986957
0.9824
0.982369
0.982339
0.879194
0.79914
0.915116
0.948365
0.950791
0.950802
0.950795
0.786976
0.997863
0.998543
0.999128
0.999483
0.999611
0.999668
0.999674
0.999757
0.999786
0.999786
0.999786
0.999786
0.999786
0.999786
0.999786
0.999519
0.998651
0.997757
0.99734
0.997344
0.99751
0.997478
0.998453
0.967191
0.977161
0.986803
0.991338
0.992677
0.996193
0.981653
0.974913
0.976679
0.973354
0.974543
0.972275
0.96822
0.958075
0.908521
0.845489
0.775182
0.758987
0.748939
0.751832
0.784983
0.837419
0.882382
0.369414
0.373986
0.410284
0.448675
0.44727
0.437811
0.469382
0.511529
0.536146
0.598697
0.648753
0.590623
0.484634
0.349828
0.200241
0.112767
0.0663846
0.0562883
0.040882
0.0329275
0.0501806
0.0898139
0.167483
5.5249e-13
5.13525e-13
3.30501e-13
3.00668e-13
4.54764e-12
0.00103146
0.00170952
0.00361783
0.00555907
0.014085
0.0393001
0.0269174
0.00502818
-1.86153e-19
2.77459e-20
-2.14391e-21
1.08272e-24
-3.16011e-23
1.76371e-06
1.76794e-08
3.13842e-13
3.14046e-13
4.59578e-11
7.42584e-06
1.95651e-05
1.5585e-05
5.20462e-06
1.44134e-05
3.45522e-05
5.05559e-05
3.57855e-05
1.81211e-05
0.000180882
2.88666e-10
2.15158e-21
-2.41784e-21
-1.6731e-09
-2.34528e-10
5.9218e-05
8.32036e-05
5.02948e-05
9.25051e-05
0.000797735
0.000512353
5.50888e-05
0.000145348
9.10174e-05
0.000170605
0.000107889
5.64523e-05
8.3273e-05
0.000254988
0.000383505
0.000233573
3.75165e-07
1.44125e-06
3.76543e-12
-9.22394e-16
-3.67188e-13
7.54783e-15
7.79339e-05
0.000240072
0.000198435
0.000187487
0.000190937
0.00216538
0.00375245
0.00199418
0.000514957
0.000273586
0.00027325
0.000273332
7.40831e-05
9.57405e-06
7.60191e-05
0.00178781
0.00355159
0.00306994
0.00172577
0.000538013
9.19426e-05
9.63133e-05
0.00010792
0.000132474
0.000172723
0.00174698
0.00408896
0.00158942
0.00146147
0.0104804
0.0178811
0.0083383
0.000103142
0.000167673
8.57511e-05
1.2687e-05
8.04172e-06
1.42811e-05
0.0016444
0.00410752
0.00458171
0.00458053
0.00450081
0.00436696
0.00397338
0.00211119
9.93921e-05
9.93431e-05
0.00205512
0.0112387
0.0112574
0.00403921
0.0127799
0.0197936
0.0197906
2.03934e-08
2.03906e-08
2.03977e-08
1.5853e-06
7.96345e-06
1.67326e-06
5.0538e-08
2.44832e-05
0.000445592
0.00155404
0.00326253
0.00399585
0.00377519
0.00163257
0.000160436
0.000355511
0.00697675
0.0117168
0.011717
0.00992264
0.0112305
0.016924
0.0181576
1.01386e-07
4.40184e-08
2.03978e-08
2.19437e-08
1.27107e-07
2.37777e-08
4.86458e-08
4.93285e-08
5.00208e-08
5.337e-08
5.88628e-05
0.000160434
0.000380628
0.000555276
0.000398421
0.00133548
0.00424698
0.00327063
0.00256362
0.00154227
1.46007e-06
4.29271e-07
2.05664e-05
2.54881e-07
1.4167e-07
2.89657e-08
2.03799e-08
2.44571e-08
1.03e-07
2.90289e-07
7.41562e-07
1.08365e-06
8.18817e-07
9.68202e-07
2.62137e-06
1.71554e-06
9.17814e-07
5.02725e-06
0.000309414
2.61404e-06
6.67956e-06
3.175e-06
1.48927e-06
5.74916e-07
4.46071e-07
3.12672e-14
2.54704e-07
1.47858e-07
4.09193e-08
2.08927e-08
6.93512e-08
1.75354e-07
1.05647e-06
1.84658e-06
1.84658e-06
1.84658e-06
1.49334e-06
4.2017e-07
3.89228e-07
9.36434e-07
2.64201e-06
2.59897e-06
2.60365e-06
3.89349e-06
7.60662e-06
1.01327e-05
9.12369e-06
6.57502e-06
2.70236e-06
1.83162e-07
5.17768e-08
2.4677e-08
2.48346e-08
3.55174e-08
1.44115e-07
5.09824e-07
1.31403e-06
1.02282e-06
6.72343e-08
8.95018e-08
3.85101e-07
2.59952e-07
6.31011e-06
1.4864e-05
1.48733e-05
7.51947e-06
6.58962e-06
1.25431e-05
1.74961e-05
1.80975e-05
1.1669e-05
3.07269e-07
5.1988e-08
1.45196e-08
1.25735e-08
1.356e-08
2.01545e-08
6.25757e-08
6.52017e-08
1.89707e-09
1.89284e-09
2.29117e-09
9.5908e-09
6.97987e-08
2.30701e-07
6.38851e-06
1.91859e-05
1.92125e-05
1.50611e-05
5.34116e-07
5.39001e-07
1.55909e-05
3.95888e-05
2.52691e-05
4.24158e-06
2.02042e-08
8.19749e-09
8.85202e-09
9.77746e-09
1.23706e-08
1.52458e-08
1.47741e-08
7.66753e-09
1.97692e-09
3.85716e-09
9.29387e-09
1.6377e-08
2.50459e-08
4.35135e-09
2.58381e-07
3.88853e-08
2.09005e-09
2.09009e-09
8.10332e-06
3.95886e-05
3.95903e-05
3.95898e-05
2.46887e-05
1.02978e-08
5.06482e-09
6.63686e-09
7.5982e-09
7.22514e-09
2.78834e-09
1.42174e-09
1.40107e-09
1.88227e-09
2.86581e-09
3.3488e-09
2.99945e-09
2.89607e-09
2.89178e-09
3.25064e-09
2.95243e-09
2.29975e-09
2.09048e-09
1.52283e-05
3.95944e-05
3.95937e-05
3.95912e-05
3.58094e-05
1.07747e-08
3.25406e-09
4.34097e-09
4.92434e-09
4.33157e-09
2.37553e-09
1.60493e-09
1.31042e-09
1.54217e-09
1.97901e-09
2.38054e-09
2.82112e-09
3.8664e-09
4.74195e-09
5.80485e-09
6.83198e-09
4.81171e-09
2.09097e-09
6.56009e-07
1.08401e-05
3.95984e-05
3.95924e-05
1.47215e-05
1.29443e-08
2.21885e-09
2.68862e-09
3.10139e-09
2.74786e-09
2.04926e-09
1.46275e-09
1.08394e-09
1.01633e-09
1.20971e-09
1.59476e-09
2.23964e-09
3.18722e-09
4.73442e-09
5.8788e-09
6.20927e-09
4.57377e-09
2.11031e-09
3.10261e-09
8.74094e-09
9.85522e-06
1.67684e-05
1.93953e-06
1.2942e-08
1.59834e-09
1.70708e-09
1.92958e-09
1.66039e-09
1.32957e-09
9.98964e-10
7.32215e-10
6.16558e-10
6.72611e-10
8.72943e-10
1.22845e-09
1.72252e-09
2.41049e-09
3.14986e-09
3.34772e-09
2.20132e-09
2.20403e-09
1.02351e-08
4.76315e-08
3.57888e-08
3.57277e-08
1.01755e-06
1.24563e-08
1.10222e-09
1.04988e-09
1.16018e-09
9.66003e-10
7.51678e-10
5.6612e-10
4.29168e-10
3.50484e-10
3.40252e-10
4.07733e-10
5.00019e-10
6.60748e-10
9.33875e-10
1.24251e-09
1.47009e-09
1.59885e-09
2.07817e-09
8.58365e-09
4.64851e-08
3.62051e-08
4.63525e-08
1.11836e-07
1.19523e-08
7.782e-10
6.15211e-10
6.56637e-10
5.55419e-10
4.41388e-10
3.33029e-10
2.41825e-10
1.90745e-10
1.69042e-10
1.82045e-10
2.04335e-10
2.64976e-10
3.60078e-10
4.91873e-10
6.38065e-10
7.87543e-10
1.44241e-09
9.08589e-09
6.40066e-08
9.24718e-08
5.1139e-08
2.5326e-08
1.15405e-08
5.78851e-10
4.357e-10
4.60059e-10
4.29716e-10
3.82903e-10
2.92074e-10
1.85457e-10
1.34002e-10
9.77034e-11
8.15726e-11
8.78119e-11
1.10994e-10
1.49991e-10
2.09213e-10
2.87548e-10
3.94122e-10
6.34598e-10
2.27473e-09
1.48362e-08
9.18401e-08
9.11297e-08
4.22608e-08
1.1262e-08
4.43403e-10
3.83216e-10
4.79932e-10
7.16971e-10
7.45644e-10
4.90507e-10
2.25377e-10
1.44885e-10
8.81752e-11
5.68603e-11
4.3734e-11
4.45025e-11
5.64006e-11
8.07273e-11
1.24819e-10
2.04083e-10
3.13854e-10
3.48613e-10
3.50593e-10
1.02247e-08
4.72754e-08
3.40946e-08
1.11487e-08
4.05256e-10
4.13652e-10
8.77972e-10
1.21846e-09
1.19123e-09
7.3276e-10
2.81837e-10
1.83709e-10
1.06354e-10
5.71931e-11
3.30502e-11
2.31017e-11
2.25181e-11
3.11206e-11
5.11746e-11
9.29447e-11
1.68294e-10
2.97513e-10
3.87166e-10
3.88326e-10
3.50569e-09
5.35726e-09
1.10176e-08
3.91323e-10
5.94153e-10
1.23699e-09
1.78508e-09
1.8451e-09
1.08381e-09
3.39716e-10
2.28544e-10
1.32987e-10
6.89646e-11
3.62176e-11
1.9207e-11
1.25591e-11
1.25772e-11
1.90577e-11
3.50329e-11
6.95392e-11
1.34959e-10
2.553e-10
4.30969e-10
6.26048e-10
3.3206e-09
1.09774e-08
4.32684e-10
8.97233e-10
1.5987e-09
2.34049e-09
2.83897e-09
1.40142e-09
3.92973e-10
2.7795e-10
1.62894e-10
8.25871e-11
4.24336e-11
2.19586e-11
1.07534e-11
6.76605e-12
7.25796e-12
1.20371e-11
2.32439e-11
4.70146e-11
9.01362e-11
1.84616e-10
5.66337e-10
1.02293e-09
1.09809e-08
6.12649e-10
1.31383e-09
1.75852e-09
3.05897e-09
9.48179e-09
1.2316e-09
4.20628e-10
3.21738e-10
1.87393e-10
9.29845e-11
4.79969e-11
2.50001e-11
1.254e-11
5.69425e-12
3.59005e-12
4.27311e-12
7.49031e-12
1.41775e-11
2.84413e-11
6.11019e-11
1.2497e-10
3.88328e-10
1.11076e-08
8.73431e-10
1.92031e-09
7.62476e-09
2.21395e-08
3.71351e-08
4.31124e-10
4.28189e-10
3.9115e-10
2.02021e-10
9.62313e-11
5.03972e-11
2.74418e-11
1.41035e-11
6.58399e-12
2.83488e-12
1.8127e-12
2.44329e-12
4.41793e-12
7.89494e-12
1.56507e-11
4.47224e-11
7.51736e-11
1.12502e-08
1.12207e-09
8.27159e-09
1.33473e-07
3.51877e-07
4.50608e-08
4.31614e-10
4.56546e-10
4.20586e-10
1.95548e-10
8.9693e-11
4.82761e-11
2.77195e-11
1.50369e-11
7.3931e-12
3.19515e-12
1.15521e-12
8.93157e-13
1.31275e-12
2.45454e-12
4.87663e-12
8.02574e-12
2.01793e-11
1.13885e-08
2.86876e-09
7.70409e-08
6.46959e-07
6.15157e-07
1.32085e-08
4.31054e-10
5.62399e-10
4.15656e-10
1.7254e-10
7.60207e-11
4.16933e-11
2.54267e-11
1.48267e-11
7.67808e-12
3.46529e-12
1.30838e-12
4.48371e-13
4.56154e-13
7.27719e-13
1.2743e-12
2.95e-12
4.13197e-12
1.16052e-08
1.01551e-08
3.06965e-07
7.27292e-07
5.98501e-07
4.38569e-10
4.54241e-10
7.00479e-10
3.86821e-10
1.40665e-10
5.85265e-11
3.26027e-11
2.10838e-11
1.32788e-11
7.42781e-12
3.56193e-12
1.4806e-12
3.39893e-13
1.71367e-13
2.30757e-13
4.30245e-13
6.5875e-13
1.28782e-12
1.21333e-08
1.77393e-08
4.64985e-07
7.01194e-07
1.88139e-07
4.39627e-10
7.28517e-10
7.63672e-10
3.35875e-10
1.04515e-10
4.1815e-11
2.34051e-11
1.58272e-11
1.0611e-11
6.51695e-12
3.43282e-12
1.53787e-12
4.28944e-13
9.05423e-14
7.6949e-14
1.16454e-13
2.40534e-13
3.11606e-13
1.31377e-08
6.34652e-08
5.78999e-07
5.91209e-07
1.94569e-08
4.38585e-10
1.06389e-09
6.85062e-10
2.14519e-10
7.48445e-11
2.79856e-11
1.5567e-11
1.07996e-11
7.58437e-12
5.03984e-12
2.95441e-12
1.44317e-12
5.17744e-13
7.99331e-14
3.0433e-14
3.53675e-14
5.36523e-14
9.31088e-14
1.39411e-08
1.26772e-07
6.36531e-07
4.87633e-07
4.64867e-10
6.21983e-10
1.51716e-09
5.76362e-10
1.5998e-10
5.29334e-11
1.80202e-11
9.80774e-12
6.79655e-12
4.82234e-12
3.397e-12
2.22551e-12
1.22222e-12
5.33099e-13
9.72349e-14
1.45334e-14
9.5831e-15
1.82434e-14
2.18952e-14
1.79982e-08
1.64681e-07
6.36552e-07
3.96496e-07
4.66076e-10
1.27867e-09
2.09899e-09
6.13629e-10
1.55041e-10
3.78037e-11
1.09868e-11
5.83184e-12
3.93785e-12
2.73432e-12
1.97829e-12
1.42248e-12
9.03133e-13
4.61711e-13
1.11178e-13
1.21414e-14
3.30923e-15
4.00809e-15
6.32209e-15
1.77477e-08
1.42934e-07
6.17974e-07
1.47175e-07
4.6487e-10
2.18914e-09
2.6501e-09
7.12575e-10
1.6253e-10
2.83129e-11
6.39632e-12
3.24797e-12
2.1247e-12
1.39185e-12
9.85133e-13
7.55503e-13
5.53978e-13
3.39825e-13
1.12856e-13
1.41244e-14
1.64834e-15
1.29315e-15
1.63618e-15
1.80017e-08
1.16761e-07
2.94916e-07
3.67392e-08
4.18416e-09
6.86923e-09
3.04725e-09
7.81196e-10
1.65818e-10
2.37676e-11
3.58074e-12
1.68358e-12
1.07463e-12
6.48901e-13
4.21615e-13
3.2334e-13
2.6659e-13
1.98731e-13
9.44322e-14
1.61734e-14
1.51731e-15
3.58653e-16
4.58813e-16
2.23694e-08
1.09203e-07
2.95721e-07
2.66299e-08
5.98743e-09
1.12395e-08
3.22637e-09
7.37407e-10
1.46801e-10
1.88811e-11
1.91724e-12
7.85097e-13
5.01513e-13
2.81221e-13
1.58891e-13
1.10656e-13
9.66243e-14
8.67622e-14
5.73414e-14
1.51205e-14
1.62481e-15
1.46324e-16
1.09361e-16
2.65353e-08
9.2518e-08
2.07111e-07
1.95485e-09
1.3117e-08
1.12446e-08
2.81877e-09
5.67412e-10
1.02544e-10
1.19745e-11
9.10909e-13
3.10089e-13
2.05404e-13
1.10966e-13
5.40356e-14
3.05935e-14
2.53338e-14
2.68817e-14
2.5382e-14
1.09004e-14
1.65733e-15
9.51685e-17
2.76269e-17
2.76757e-08
3.32426e-08
8.15182e-09
1.95531e-09
1.61827e-08
8.20634e-09
1.81786e-09
3.50864e-10
4.95109e-11
5.16597e-12
3.17709e-13
9.52218e-14
6.68045e-14
3.68184e-14
1.64003e-14
7.22157e-15
4.75558e-15
5.47642e-15
7.19819e-15
5.83351e-15
1.20204e-15
9.46416e-17
8.33093e-18
3.53184e-08
5.16063e-09
2.44291e-09
8.62198e-09
1.3887e-08
2.96214e-09
7.72629e-10
1.45644e-10
1.4532e-11
1.18229e-12
5.73962e-14
1.88862e-14
1.49075e-14
8.80356e-15
3.88929e-15
1.40314e-15
6.36699e-16
7.52396e-16
1.38584e-15
2.03109e-15
7.4501e-16
8.56165e-17
6.27083e-18
6.66961e-08
1.13443e-08
3.30494e-09
1.72615e-08
3.99335e-09
5.78198e-10
1.42939e-10
2.22867e-11
1.50284e-12
6.40079e-14
2.42428e-15
1.83062e-15
1.68376e-15
1.11065e-15
5.09453e-16
1.68407e-16
5.53398e-17
6.20065e-17
1.87811e-16
4.69758e-16
3.8393e-16
6.6474e-17
5.10464e-18
0.998752
0.998762
0.997621
0.996441
0.914139
0.939664
0.939711
0.911789
0.241649
0.268472
0.262846
0.228409
3.56847e-12
2.02849e-12
-1.22506e-07
-1.79182e-24
7.63454e-05
2.11124e-05
2.40291e-07
1.25645e-05
0.000420136
0.000431476
0.00031585
0.000241694
0.0052258
0.00414932
0.0033882
0.00294378
0.0197936
0.0179473
0.0155306
0.0135704
0.0149291
0.0126191
0.0112936
0.00836768
0.000173142
0.000185475
0.000251445
0.00011516
2.38115e-14
4.42348e-14
2.25233e-14
2.7445e-14
1.85406e-09
2.2354e-11
1.59646e-10
8.50675e-10
1.38447e-07
1.52241e-07
6.87939e-08
3.01758e-08
1.82847e-06
5.31872e-07
1.56433e-07
5.67327e-07
2.2903e-06
5.07271e-07
7.84885e-07
1.86803e-06
2.22396e-07
5.42607e-07
9.44162e-07
2.42274e-06
2.13647e-07
9.06422e-07
1.129e-06
1.13682e-06
1.37081e-05
1.67022e-05
6.79863e-06
1.71937e-06
2.86088e-05
2.86457e-05
2.86314e-05
2.67755e-05
2.56959e-08
5.21904e-06
2.18712e-05
2.11367e-05
2.01492e-08
2.49308e-08
2.44828e-08
3.08012e-06
5.41345e-08
7.75616e-08
8.45738e-08
8.03076e-08
1.28582e-08
7.98152e-08
1.17355e-07
1.16168e-07
7.64929e-09
1.60868e-08
7.51433e-08
1.1272e-07
4.95478e-09
6.84892e-09
3.00202e-08
3.73817e-08
2.82263e-09
3.61863e-09
5.16583e-09
4.91167e-09
6.04478e-10
8.04745e-10
1.02046e-09
9.14228e-10
1.62797e-10
1.92715e-10
2.14053e-10
2.53838e-10
2.99257e-11
3.78611e-11
4.80366e-11
4.91843e-11
7.16436e-12
8.94453e-12
9.89414e-12
1.21954e-11
1.69014e-12
2.08953e-12
2.62798e-12
2.769e-12
4.6256e-13
5.27467e-13
5.76192e-13
6.88852e-13
1.04122e-13
1.14962e-13
1.34859e-13
1.38377e-13
2.77672e-14
2.84868e-14
2.93796e-14
3.26269e-14
6.33692e-15
6.58017e-15
7.13186e-15
6.98681e-15
1.81126e-15
1.75263e-15
1.70804e-15
1.82729e-15
4.63186e-16
4.44896e-16
4.75289e-16
4.6793e-16
1.22445e-16
1.10399e-16
1.07344e-16
1.1859e-16
2.44954e-17
2.35284e-17
2.57347e-17
2.54118e-17
5.49394e-18
4.89551e-18
4.5011e-18
4.97857e-18
9.74781e-19
8.08786e-19
8.81655e-19
8.13925e-19
2.04279e-19
1.44578e-19
1.26043e-19
1.06331e-19
0.991748
0.995319
0.995595
0.981599
0.97633
0.989217
0.980073
0.975273
0.975312
0.982282
0.976406
0.876147
0.807096
0.924703
0.942505
0.950795
0.950794
0.950802
0.8489
0.892549
0.856572
0.867675
0.864102
0.850775
0.938268
0.977766
0.977712
0.97765
0.91666
0.816726
0.823134
0.816398
0.927363
0.928108
0.947737
0.950795
0.932174
0.929699
0.201382
0.127121
0.179585
0.373005
0.652498
0.821037
0.910286
0.970774
0.850417
0.485925
0.446002
0.551973
0.78001
0.928943
0.928925
0.929457
0.811829
0.76474
0.793514
2.11081e-25
-3.04803e-15
-2.24164e-08
0.013989
0.0892072
0.374128
0.558185
0.454389
0.144126
0.0244675
0.0217654
1.11522e-10
0.348571
0.852056
0.928949
0.624096
0.181228
0.1103
0.0983487
7.40444e-07
0.000797569
0.0166079
0.0127047
0.00339064
2.64175e-07
-1.62602e-22
1.21207e-22
2.40911e-23
-1.37272e-07
1.19461e-17
-1.10946e-10
0.0135948
0.248111
0.331377
0.0908591
0.000117379
0.000119499
0.000116009
0.000124096
0.000670858
0.0298503
0.0312217
0.010897
0.0015862
0.00079987
0.000159879
5.61219e-05
6.67602e-05
5.795e-05
9.73785e-06
4.7262e-10
1.71315e-09
0.00102321
0.00100529
0.000303262
0.000284131
0.000656192
0.00168023
0.000791627
0.023195
0.0405664
0.0406286
0.0186646
0.00327538
0.00119272
0.000405201
6.69608e-05
0.00019351
0.000214273
4.40879e-05
8.26903e-05
0.000612771
0.000688158
0.000751829
0.000840847
0.00197796
0.00919217
0.00384289
0.00136118
0.020977
0.0405667
0.0405971
0.0266096
0.0120457
0.00645915
0.00211682
0.000342996
0.000142601
0.000401758
0.000561481
0.000685757
0.00131325
0.00181821
0.00213311
0.00254003
0.00516954
0.00364156
0.00133843
0.000173944
0.00331744
0.0111014
0.0186435
0.022278
0.0226021
0.021806
0.00667077
0.000149523
0.000142653
0.000245367
0.00218864
0.00254001
0.00254007
0.00254003
0.00254007
1.20342e-09
1.18829e-09
9.51155e-06
0.000165322
3.86935e-07
4.52882e-08
1.03551e-14
1.13051e-10
0.000447734
0.0098268
0.0228529
0.0228778
0.0110676
0.000537435
0.000933741
0.00254007
0.00233778
0.00123214
0.0017116
3.66834e-09
1.79128e-09
1.72985e-09
4.60629e-08
7.90273e-08
3.38855e-08
2.06372e-07
1.0255e-07
6.37904e-10
6.82159e-10
0.000290332
0.0042955
0.00433993
0.000830712
2.23513e-06
0.00107486
0.000421524
3.71943e-06
2.26543e-05
1.75188e-08
2.8233e-09
7.0971e-08
5.24344e-07
4.47448e-07
3.08522e-08
1.70144e-06
1.87072e-06
9.98378e-07
1.0087e-07
1.98971e-08
0.000235237
0.000263594
7.35863e-05
2.16732e-06
2.03552e-06
4.8098e-06
2.91869e-06
2.86738e-06
1.35936e-07
7.07214e-07
1.82649e-06
1.82674e-06
1.61055e-06
4.94002e-06
1.73472e-05
1.48784e-05
2.72658e-06
1.18435e-06
1.28266e-07
2.21158e-06
9.40098e-07
1.35487e-06
1.7952e-06
3.58667e-06
1.52099e-05
2.86972e-06
3.09468e-06
1.41518e-06
3.53089e-06
3.52619e-06
1.41098e-06
3.7419e-06
1.76027e-05
1.75927e-05
1.318e-05
2.05917e-06
2.71582e-06
5.82776e-07
6.08183e-08
1.00654e-07
2.44522e-06
9.06067e-06
2.39655e-05
4.04433e-05
3.23806e-05
5.31485e-06
3.79116e-06
2.81577e-06
4.68147e-08
4.67784e-08
8.76446e-06
1.75936e-05
1.25087e-05
1.24471e-07
1.27074e-06
2.75252e-06
8.00712e-07
4.67525e-08
3.63538e-07
1.28329e-05
1.74811e-05
4.04433e-05
4.04996e-05
2.69541e-05
7.48737e-06
3.47304e-06
1.01978e-07
4.69001e-08
4.76905e-08
2.55442e-06
4.46517e-06
6.01958e-07
1.2755e-07
2.318e-07
5.3988e-07
3.86102e-07
4.28006e-08
4.27075e-08
7.03102e-06
2.71885e-05
4.04996e-05
1.96655e-05
2.08836e-06
5.57505e-06
4.87344e-07
5.04656e-07
3.61783e-06
6.52854e-06
6.53601e-06
2.91018e-06
1.04996e-07
9.81193e-08
9.26925e-08
4.70393e-08
4.70287e-08
4.277e-08
4.27981e-08
6.81333e-07
2.07765e-05
3.23114e-05
4.79645e-06
4.18171e-07
1.48732e-06
4.86284e-07
8.70742e-07
1.43564e-05
2.69454e-05
4.11783e-05
2.96478e-05
6.8288e-06
4.42375e-06
3.86635e-06
1.53975e-06
1.95248e-06
1.83462e-06
8.21355e-07
3.43145e-06
7.65339e-06
3.23416e-06
7.62295e-07
1.43256e-07
7.61994e-07
1.53116e-06
1.78744e-06
9.79808e-06
4.26262e-05
4.26262e-05
4.26262e-05
4.26262e-05
4.26262e-05
4.26262e-05
3.94977e-05
5.06696e-06
5.91402e-06
9.20447e-06
9.10845e-06
3.70061e-06
1.02189e-06
1.9211e-07
8.31889e-08
8.02725e-08
1.85062e-05
1.32731e-05
7.82675e-06
2.31347e-05
4.26262e-05
4.26262e-05
2.90228e-05
1.29431e-05
1.88e-05
2.58282e-05
1.19558e-05
3.28613e-06
5.87611e-06
6.00595e-06
2.71621e-06
2.28268e-07
2.26515e-07
2.41936e-07
7.83516e-08
9.68126e-06
1.33549e-05
5.16812e-06
9.2663e-07
1.05064e-05
1.51378e-05
9.75977e-06
6.80676e-06
2.00272e-06
6.90001e-07
1.11684e-06
2.98642e-07
1.23689e-07
4.73663e-07
5.27784e-07
3.49756e-07
4.3524e-07
3.1775e-07
7.82413e-08
8.0517e-08
2.89074e-07
3.1106e-07
2.26637e-08
9.67206e-10
9.67207e-10
9.6716e-10
9.67161e-10
9.69251e-10
1.01803e-08
5.64615e-08
1.39617e-08
2.27101e-09
7.70393e-08
9.89812e-08
4.35815e-07
4.53149e-07
2.50199e-07
7.82412e-08
1.05096e-07
8.80157e-09
8.78376e-09
8.76706e-09
9.42376e-09
1.75864e-09
9.67161e-10
9.6716e-10
9.67161e-10
9.67263e-10
2.55339e-09
4.00417e-09
2.24291e-09
1.35807e-09
1.33621e-09
2.03374e-07
4.53949e-07
1.80048e-07
7.82412e-08
8.85463e-08
3.47961e-08
1.22332e-08
8.70963e-09
1.17278e-08
5.59633e-09
2.17423e-09
1.79326e-09
1.68526e-09
2.12608e-09
2.20724e-09
4.29222e-09
5.36266e-09
5.53641e-09
2.65004e-09
8.79008e-09
1.28708e-07
2.09441e-07
8.03942e-08
2.74081e-08
8.92446e-09
8.13233e-09
7.4662e-09
6.97061e-09
3.47176e-09
2.24897e-09
2.06029e-09
2.4541e-09
3.61122e-09
5.01911e-09
7.77873e-09
9.9145e-09
1.3315e-08
3.83736e-09
3.85532e-09
9.76601e-08
2.09578e-07
1.5647e-07
3.02869e-09
2.80281e-09
3.6771e-09
3.04861e-09
2.42435e-09
1.64398e-09
1.43027e-09
1.58302e-09
2.05153e-09
3.01607e-09
4.77313e-09
8.50934e-09
1.20244e-08
1.49327e-08
4.06491e-09
1.00163e-07
2.01537e-07
1.75545e-07
2.01531e-07
1.03161e-09
1.02479e-09
9.97152e-10
8.49229e-10
7.56794e-10
6.94712e-10
7.53021e-10
9.43338e-10
1.33247e-09
2.05223e-09
3.44625e-09
6.2962e-09
9.85003e-09
1.25648e-08
1.20484e-08
1.79599e-07
2.0279e-07
1.09247e-07
2.04176e-07
2.55607e-10
2.66186e-10
2.49715e-10
2.47222e-10
2.58925e-10
2.9926e-10
4.00581e-10
5.93549e-10
9.56044e-10
1.58856e-09
2.71309e-09
4.51328e-09
7.04467e-09
9.67611e-09
1.82064e-08
8.42171e-08
1.34691e-07
6.96093e-08
1.96949e-07
5.55418e-11
6.24208e-11
6.95832e-11
8.0576e-11
1.02711e-10
1.51943e-10
2.37868e-10
4.08094e-10
7.74906e-10
1.51324e-09
2.82855e-09
4.56094e-09
5.96845e-09
7.409e-09
1.2618e-08
1.65189e-08
2.1032e-08
2.25927e-08
1.06481e-07
1.31803e-11
1.60931e-11
2.01291e-11
2.56875e-11
3.40405e-11
4.51409e-11
7.41652e-11
1.73424e-10
4.7304e-10
1.26491e-09
3.01387e-09
6.20715e-09
9.55801e-09
6.83194e-09
5.49419e-09
4.39012e-09
4.38872e-09
7.83251e-09
7.11868e-08
3.34956e-12
4.20645e-12
5.14022e-12
5.98941e-12
6.04786e-12
7.10661e-12
1.63765e-11
5.59951e-11
2.17908e-10
8.22042e-10
2.5318e-09
6.15549e-09
1.51954e-08
2.17241e-08
2.11045e-08
6.86592e-09
4.40015e-09
9.8253e-09
1.03323e-07
7.27492e-13
9.43109e-13
1.06291e-12
1.14809e-12
1.1217e-12
1.61963e-12
4.64983e-12
1.69082e-11
7.42398e-11
3.88155e-10
2.10542e-09
6.18942e-09
2.10161e-08
4.4633e-08
4.11726e-08
6.0135e-09
4.40102e-09
1.84493e-08
1.20554e-07
1.60646e-13
1.72062e-13
1.86414e-13
2.11298e-13
2.83271e-13
6.43118e-13
2.1611e-12
7.90743e-12
3.17443e-11
1.13166e-10
7.59485e-10
6.90847e-09
2.08058e-08
4.61063e-08
4.85613e-08
3.6123e-08
5.20566e-09
1.29042e-08
1.20923e-07
3.25862e-14
3.3434e-14
3.78036e-14
5.54657e-14
1.19499e-13
3.66406e-13
1.36891e-12
5.16081e-12
1.84885e-11
6.93238e-11
4.12302e-10
6.53147e-09
1.63754e-08
3.43996e-08
4.85886e-08
4.85595e-08
2.74057e-08
4.26577e-08
1.03424e-07
7.30789e-15
7.79875e-15
1.12268e-14
2.39178e-14
6.68694e-14
2.33368e-13
8.07328e-13
3.04941e-12
1.0812e-11
3.62958e-11
1.58188e-10
1.60537e-09
8.25087e-09
2.24415e-08
4.34793e-08
4.85319e-08
3.80583e-08
1.06278e-07
1.02824e-07
1.85197e-15
2.24676e-15
4.31807e-15
1.24092e-14
4.03633e-14
1.57504e-13
5.62801e-13
2.08518e-12
7.24973e-12
2.25491e-11
7.30401e-11
4.00383e-10
1.83347e-09
7.87004e-09
2.72467e-08
4.0223e-08
4.72001e-08
1.16677e-07
1.03614e-07
4.95889e-16
7.04878e-16
1.70726e-15
5.84372e-15
2.15463e-14
8.73383e-14
3.35765e-13
1.29928e-12
4.63125e-12
1.47635e-11
5.05959e-11
3.49401e-10
1.06365e-09
1.77458e-09
5.0267e-09
1.72412e-08
4.82841e-08
1.091e-07
3.17872e-07
1.27149e-16
1.98987e-16
5.51187e-16
2.099e-15
8.72668e-15
3.72399e-14
1.6266e-13
6.66653e-13
2.68042e-12
9.54721e-12
3.0043e-11
1.39789e-10
8.43278e-10
1.75425e-09
2.44311e-09
7.57351e-09
3.30311e-08
7.3464e-08
3.83322e-07
2.82223e-17
4.42156e-17
1.2595e-16
5.11293e-16
2.31668e-15
1.08707e-14
5.20146e-14
2.37065e-13
1.07236e-12
4.4093e-12
1.52976e-11
5.57384e-11
3.44358e-10
1.61409e-09
2.72601e-09
4.24314e-09
1.21519e-08
4.93731e-08
3.83322e-07
5.10274e-18
6.95686e-18
1.94113e-17
8.55062e-17
4.47679e-16
2.59691e-15
1.38202e-14
7.46758e-14
3.89144e-13
1.87828e-12
8.07585e-12
3.11729e-11
1.27082e-10
8.32912e-10
2.65668e-09
3.79845e-09
6.37295e-09
4.16058e-08
3.83316e-07
7.4632e-19
7.74439e-19
1.57761e-18
6.67572e-18
4.04394e-17
2.8621e-16
2.05168e-15
1.45534e-14
9.21676e-14
5.37545e-13
2.85237e-12
1.35926e-11
5.70933e-11
2.50233e-10
1.48193e-09
3.64955e-09
6.18277e-09
4.05272e-08
2.54112e-07
8.56859e-20
6.98311e-20
8.86143e-20
2.52232e-19
1.63163e-18
1.48724e-17
1.40559e-16
1.31562e-15
1.16469e-14
9.15165e-14
6.10832e-13
3.31111e-12
1.37773e-11
5.88192e-11
3.75952e-10
1.85488e-09
5.12694e-09
1.84143e-08
4.67509e-09
)
;

boundaryField
{
    leftWall
    {
        type            zeroGradient;
    }
    rightWall
    {
        type            zeroGradient;
    }
    lowerWall
    {
        type            zeroGradient;
    }
    atmosphere
    {
        type            inletOutlet;
        inletValue      uniform 0;
        value           nonuniform List<scalar> 
46
(
6.66961e-08
1.13443e-08
3.30494e-09
0
0
0
0
0
0
0
0
0
0
0
0
0
0
0
0
0
0
0
0
0
0
0
0
0
0
0
0
0
0
0
0
1.16469e-14
9.15165e-14
6.10832e-13
3.31111e-12
1.37773e-11
5.88192e-11
3.75952e-10
1.85488e-09
5.12694e-09
1.84143e-08
4.67509e-09
)
;
    }
    defaultFaces
    {
        type            empty;
    }
}


// ************************************************************************* //
