/*--------------------------------*- C++ -*----------------------------------*\
| =========                 |                                                 |
| \\      /  F ield         | OpenFOAM: The Open Source CFD Toolbox           |
|  \\    /   O peration     | Version:  2312                                  |
|   \\  /    A nd           | Website:  www.openfoam.com                      |
|    \\/     M anipulation  |                                                 |
\*---------------------------------------------------------------------------*/
FoamFile
{
    version     2.0;
    format      ascii;
    arch        "LSB;label=32;scalar=64";
    class       volVectorField;
    location    "5.35";
    object      U;
}
// * * * * * * * * * * * * * * * * * * * * * * * * * * * * * * * * * * * * * //

dimensions      [0 1 -1 0 0 0 0];

internalField   nonuniform List<vector> 
2268
(
(0.0115955 -0.00592241 0)
(0.0255678 -0.0031392 0)
(0.0370234 -0.00244716 0)
(0.0466519 -0.0018231 0)
(0.0535709 -0.00115592 0)
(0.0574733 -0.000434646 0)
(0.0585636 0.00012343 0)
(0.0575411 0.000558606 0)
(0.0546768 0.00101156 0)
(0.0500078 0.00139357 0)
(0.0439254 0.00165251 0)
(0.0370131 0.00175139 0)
(0.0298401 0.00174227 0)
(0.0227592 0.00163696 0)
(0.0163322 0.00140419 0)
(0.0109951 0.00117673 0)
(0.00657913 0.000985498 0)
(0.0028713 0.000821961 0)
(-4.92538e-05 0.000678498 0)
(-0.00234058 0.000558744 0)
(-0.00424304 0.000453652 0)
(-0.00535624 0.000114533 0)
(-0.00545105 -0.00204607 0)
(0.00593158 -0.0122732 0)
(0.0204332 -0.00900141 0)
(0.0319117 -0.00773918 0)
(0.0419972 -0.00596873 0)
(0.0492582 -0.00390379 0)
(0.0533802 -0.00171776 0)
(0.0546387 2.21167e-05 0)
(0.053882 0.00123543 0)
(0.0513127 0.00256962 0)
(0.0468533 0.00377058 0)
(0.0408978 0.0046227 0)
(0.0340852 0.00503585 0)
(0.0270294 0.00510275 0)
(0.0200732 0.0048466 0)
(0.0138491 0.00414785 0)
(0.00882502 0.00346135 0)
(0.00477884 0.00286585 0)
(0.00149945 0.00231737 0)
(-0.000882197 0.00174404 0)
(-0.00246388 0.00129456 0)
(-0.00349702 0.00104001 0)
(-0.00397279 0.000499484 0)
(-0.002658 -0.00347547 0)
(0.0044625 -0.0183632 0)
(0.0186648 -0.0152396 0)
(0.0299103 -0.0130799 0)
(0.0401138 -0.0101141 0)
(0.0473987 -0.00652116 0)
(0.0513815 -0.00289512 0)
(0.052378 7.22886e-05 0)
(0.0515805 0.00189191 0)
(0.0491533 0.00424137 0)
(0.044679 0.00644123 0)
(0.0386023 0.00789939 0)
(0.0316606 0.00856789 0)
(0.0245038 0.00856715 0)
(0.0174517 0.00803626 0)
(0.0113168 0.00670669 0)
(0.00664058 0.00547787 0)
(0.00304426 0.00444883 0)
(0.000287811 0.00349731 0)
(-0.00136959 0.00242456 0)
(-0.00195626 0.00161723 0)
(-0.00198811 0.000979541 0)
(-0.00213957 -2.43281e-06 0)
(-2.53906e-05 -0.00483823 0)
(0.00481165 -0.0235135 0)
(0.0192792 -0.0209843 0)
(0.0307519 -0.0182126 0)
(0.041171 -0.0143939 0)
(0.0483369 -0.00949324 0)
(0.0518495 -0.00413531 0)
(0.0521887 0.000358985 0)
(0.0511986 0.00279853 0)
(0.0490094 0.00573496 0)
(0.0444443 0.00851923 0)
(0.0380684 0.0103851 0)
(0.0306872 0.0113062 0)
(0.0230334 0.0115132 0)
(0.0154614 0.0110687 0)
(0.00912213 0.00915727 0)
(0.00462981 0.00732284 0)
(0.00135836 0.00593037 0)
(-0.00078084 0.00467476 0)
(-0.00125601 0.00295517 0)
(-0.000157921 0.00181417 0)
(0.00162743 0.00146017 0)
(0.00190276 0.000366444 0)
(0.00325153 -0.00427848 0)
(0.00647472 -0.0298958 0)
(0.0222404 -0.0272968 0)
(0.0347942 -0.0233939 0)
(0.0459991 -0.017773 0)
(0.0535619 -0.0106451 0)
(0.056573 -0.00399478 0)
(0.0557528 0.000634252 0)
(0.0542929 0.0029594 0)
(0.052627 0.00747126 0)
(0.0483596 0.0126338 0)
(0.0416411 0.0159531 0)
(0.0333761 0.017107 0)
(0.0245526 0.0168458 0)
(0.0152 0.0152154 0)
(0.00638422 0.0117323 0)
(-0.000106375 0.00873107 0)
(-0.00357679 0.00639566 0)
(-0.00351596 0.00421254 0)
(-0.000876882 0.00150511 0)
(0.00210921 -0.000477274 0)
(0.00578252 -0.00094583 0)
(0.00736978 -0.00203949 0)
(0.00679792 -0.00499242 0)
(0.0082755 -0.038262 0)
(0.0260409 -0.0351987 0)
(0.0405536 -0.031221 0)
(0.0534507 -0.0254788 0)
(0.0630015 -0.0163827 0)
(0.0682457 -0.00564573 0)
(0.0676212 0.00257515 0)
(0.061325 0.00555719 0)
(0.0526491 0.00840335 0)
(0.0446664 0.0117957 0)
(0.0371393 0.0142909 0)
(0.0284288 0.0153497 0)
(0.0175805 0.0156065 0)
(0.00791263 0.0156986 0)
(0.000437034 0.0131537 0)
(-0.00593636 0.00986522 0)
(-0.00924226 0.00593078 0)
(-0.0073759 0.00221338 0)
(-0.00285588 -0.000656943 0)
(0.000212213 -0.00202254 0)
(0.00357222 -0.00185345 0)
(0.00378648 6.52529e-05 0)
(0.00515091 0.00518371 0)
(0.00919037 -0.0443745 0)
(0.0279572 -0.0394932 0)
(0.0420883 -0.032004 0)
(0.0519764 -0.023023 0)
(0.0581314 -0.0130144 0)
(0.0635557 -0.00395661 0)
(0.0703914 0.00197848 0)
(0.0743548 0.0067461 0)
(0.072414 0.0127934 0)
(0.0690249 0.0183737 0)
(0.0640229 0.0232884 0)
(0.0513934 0.0288177 0)
(0.018213 0.0330347 0)
(-0.0142766 0.0300479 0)
(-0.0270825 0.0252093 0)
(-0.0330033 0.019027 0)
(-0.036738 0.0113499 0)
(-0.0384522 0.00349348 0)
(-0.0414575 0.000542169 0)
(-0.0437615 -0.00033524 0)
(-0.0426251 -0.00214243 0)
(-0.0378868 -0.00277212 0)
(-0.00994349 -0.00335089 0)
(0.0088839 -0.0486532 0)
(0.0285496 -0.0455491 0)
(0.0476908 -0.0411442 0)
(0.0659498 -0.0345825 0)
(0.079978 -0.0246322 0)
(0.0889535 -0.0121847 0)
(0.0735525 -0.000436289 0)
(0.0210942 0.0147955 0)
(-0.0301352 0.0182574 0)
(-0.0366506 0.0198692 0)
(-0.0354997 0.0257264 0)
(-0.0280116 0.0361229 0)
(-0.0245472 0.0427642 0)
(-0.01756 0.0311215 0)
(-0.00468252 0.0189871 0)
(0.00812639 0.0110845 0)
(0.0192328 0.00639969 0)
(0.0275927 0.00226971 0)
(0.0312844 0.000531638 0)
(0.0304756 -0.000436225 0)
(0.0251549 -0.00145546 0)
(0.00755714 -0.00776929 0)
(0.0183799 -0.0114795 0)
(-6.22615e-05 -0.00139117 0)
(0.0152992 -0.00304537 0)
(0.0169095 -0.00135319 0)
(0.0229983 -0.00138409 0)
(0.0278845 -0.00139347 0)
(0.0317147 -0.00055742 0)
(0.0316295 0.000735687 0)
(0.0268871 0.00137679 0)
(0.0173127 0.00266675 0)
(0.00224158 0.00398462 0)
(-0.0173045 0.00358077 0)
(-0.035082 0.00137951 0)
(-0.0450739 -0.000496222 0)
(-0.0511767 -0.000752502 0)
(-0.048564 -0.00278785 0)
(-0.0418787 -0.00207222 0)
(-0.0366749 -0.00188439 0)
(-0.025482 -0.00240545 0)
(-0.00723334 -0.00186466 0)
(0.00876796 -0.0052439 0)
(0.0228378 -0.00446215 0)
(0.0254437 -0.00285479 0)
(0.0298657 -0.00322522 0)
(0.0310284 -0.00314347 0)
(0.0306645 -0.00146078 0)
(0.0285318 0.00133361 0)
(0.0239185 0.00400337 0)
(0.0170634 0.00751894 0)
(0.00645965 0.0104102 0)
(-0.0113234 0.0123567 0)
(-0.0299891 0.011854 0)
(-0.0413396 0.00673269 0)
(-0.0510755 0.00426596 0)
(-0.0519111 -0.00383862 0)
(-0.0464251 -0.00372275 0)
(-0.0398584 -0.00549857 0)
(-0.0246084 -0.00966248 0)
(-0.00819047 -0.0117807 0)
(-0.00277869 -0.0153166 0)
(0.00365431 -0.00826471 0)
(0.0181993 -0.00279078 0)
(0.0305843 -0.00279771 0)
(0.0292259 -0.00223814 0)
(0.0214172 2.37154e-05 0)
(0.0125609 0.00296255 0)
(0.00793098 0.0052696 0)
(-0.000410583 0.00717004 0)
(-0.00662081 0.0136665 0)
(-0.0109304 0.0159645 0)
(-0.0307499 0.0125122 0)
(-0.062984 0.00803854 0)
(-0.0787169 0.00520736 0)
(-0.0698391 -0.00606152 0)
(-0.0499851 -0.00823237 0)
(-0.0239671 -0.0115228 0)
(-0.00121637 -0.0162851 0)
(0.00324203 -0.0158471 0)
(-0.101847 0.00350393 0)
(-0.122333 -0.0102232 0)
(-0.0776787 -0.019624 0)
(-0.0196594 -0.00907936 0)
(0.0110768 0.00101485 0)
(0.0172275 0.00626925 0)
(-0.00135558 0.00767457 0)
(-0.000546257 0.0122369 0)
(-0.0392755 0.0209608 0)
(-0.0311406 0.0226737 0)
(0.00816976 0.0311983 0)
(-0.0129508 0.0414249 0)
(-0.0532577 0.0231135 0)
(-0.0616604 0.00460133 0)
(-0.048799 -0.0162478 0)
(-0.0282319 -0.0237427 0)
(0.0156506 -0.0233193 0)
(0.0307774 -0.0174468 0)
(0.0221291 -0.0119527 0)
(-0.0876503 0.054682 0)
(-0.0616494 -0.0133507 0)
(-0.0314646 -0.0509893 0)
(0.00938403 -0.0344318 0)
(0.0448044 -0.0152992 0)
(0.0599022 0.00820867 0)
(0.0248341 0.0178324 0)
(-0.0115408 0.0181926 0)
(-0.0298279 0.0178736 0)
(0.0360651 -0.0125119 0)
(0.0870096 -0.000732464 0)
(0.128026 0.0411239 0)
(0.140083 0.0357236 0)
(0.126631 0.00519909 0)
(0.105403 -0.0130582 0)
(0.000144602 -0.0366462 0)
(0.0204688 -0.0408277 0)
(0.047309 -0.0170415 0)
(0.0500282 0.00993781 0)
(-0.0750701 0.0715638 0)
(0.0322255 -0.0331782 0)
(0.0192944 -0.058705 0)
(0.0378755 -0.0489704 0)
(0.0678479 -0.0258742 0)
(0.0888698 0.0106564 0)
(0.0796361 0.0330184 0)
(0.055596 0.0281128 0)
(0.0565622 0.00463087 0)
(0.0947493 -0.0242023 0)
(0.13458 -0.0214067 0)
(0.181626 0.0141287 0)
(0.218002 0.0269642 0)
(0.233152 0.0150728 0)
(0.214396 0.0189559 0)
(0.126858 0.00738413 0)
(0.0543543 -0.0438772 0)
(0.0596278 -0.032891 0)
(0.0888404 0.0361407 0)
(-0.0321593 0.0867285 0)
(0.0885419 -0.0416785 0)
(0.0707782 -0.0581189 0)
(0.0675331 -0.0564709 0)
(0.0850808 -0.0377846 0)
(0.109009 0.00460138 0)
(0.115332 0.0345445 0)
(0.114516 0.0308158 0)
(0.126061 0.00404069 0)
(0.142848 -0.0326199 0)
(0.170333 -0.0395766 0)
(0.206875 -0.00260016 0)
(0.231658 0.019088 0)
(0.22976 0.0189015 0)
(0.200425 0.03826 0)
(0.110915 0.0389539 0)
(0.0806811 -0.0234154 0)
(0.0479175 -0.0333939 0)
(0.0754553 0.0661664 0)
(0.0962404 0.0240307 0)
(0.13284 -0.0461048 0)
(0.114595 -0.0529114 0)
(0.0944153 -0.0533451 0)
(0.0912889 -0.0453103 0)
(0.113481 -0.00372634 0)
(0.128623 0.0305161 0)
(0.138193 0.0270231 0)
(0.148093 -0.00153512 0)
(0.157734 -0.0419563 0)
(0.175215 -0.0567564 0)
(0.205066 -0.0160479 0)
(0.218795 0.019118 0)
(0.202135 0.0280248 0)
(0.16864 0.0627043 0)
(0.0832967 0.0612047 0)
(0.0845844 -0.0137383 0)
(0.0394979 -0.0258883 0)
(0.0610799 0.089188 0)
(-0.00241952 -0.0872017 0)
(-0.00865415 -0.0790035 0)
(-0.0203593 -0.0647293 0)
(-0.0311545 -0.0473137 0)
(-0.0361499 -0.0273428 0)
(-0.0398334 0.00326541 0)
(-0.0339326 0.0335909 0)
(-0.031949 0.043956 0)
(-0.0303026 0.0318533 0)
(-0.0283073 0.0216811 0)
(-0.0263274 0.0212623 0)
(-0.0205664 0.0269832 0)
(-0.00985324 0.0311965 0)
(0.00230809 0.0227463 0)
(0.0107211 0.0126638 0)
(0.0180762 0.00595461 0)
(0.025143 0.000780654 0)
(0.0335179 -0.00278101 0)
(0.0417694 -0.00165687 0)
(0.0482325 0.00169926 0)
(0.0518173 0.0051965 0)
(0.0524295 0.0012484 0)
(0.0535252 0.000497269 0)
(-0.00139747 -0.0375868 0)
(-0.0059827 -0.0279033 0)
(-0.0116999 -0.0202626 0)
(-0.0164674 -0.0180191 0)
(-0.0214606 -0.0175105 0)
(-0.029297 -0.0135474 0)
(-0.0342814 0.00385474 0)
(-0.0339224 0.0209687 0)
(-0.0314742 0.0203117 0)
(-0.0261314 0.0114978 0)
(-0.0165244 0.0115718 0)
(-0.00699304 0.0147452 0)
(0.00327754 0.0170471 0)
(0.00776816 0.0127374 0)
(0.00622913 0.00399423 0)
(0.00488248 -0.00151778 0)
(0.00526497 -0.00985088 0)
(0.00977179 -0.0155677 0)
(0.0153627 -0.0149485 0)
(0.0233584 -0.0115294 0)
(0.0340129 -0.00617711 0)
(0.0407349 -0.00739227 0)
(0.0442211 -0.0173147 0)
(0.00146496 -0.054597 0)
(0.00286716 -0.045711 0)
(0.00859531 -0.0366837 0)
(0.0106788 -0.025487 0)
(0.00902805 -0.0118108 0)
(-0.000848431 0.012669 0)
(-0.00932621 0.0254113 0)
(-0.00534148 0.0276793 0)
(0.00478158 0.0237843 0)
(0.0116907 0.00793988 0)
(0.00391341 0.00954042 0)
(-0.0100481 0.0120433 0)
(-0.0211755 0.0178918 0)
(-0.0346162 0.0218002 0)
(-0.0442686 0.012292 0)
(-0.0459204 0.00680263 0)
(-0.0421153 -0.00794691 0)
(-0.037827 -0.0147882 0)
(-0.031994 -0.0168149 0)
(-0.02093 -0.0185846 0)
(0.00201801 -0.0167386 0)
(0.0281923 -0.0090283 0)
(0.0414939 -0.0106186 0)
(-0.00282415 -0.0532067 0)
(-0.00679536 -0.0506022 0)
(-0.00235742 -0.0399593 0)
(-0.0019521 -0.0239218 0)
(-0.00603856 -0.0106195 0)
(-0.00380291 0.00741205 0)
(0.00959056 0.0108822 0)
(0.0280599 0.00493318 0)
(0.0445256 0.00797367 0)
(0.0407363 0.0150928 0)
(0.00694073 0.0371735 0)
(-0.0262956 0.0399281 0)
(-0.0455036 0.0378403 0)
(-0.0490878 0.0322419 0)
(-0.0445541 0.011392 0)
(-0.0426627 -0.00178717 0)
(-0.0403041 -0.0156954 0)
(-0.0403 -0.0222067 0)
(-0.0345099 -0.0303806 0)
(-0.0238811 -0.0408185 0)
(-0.00612149 -0.053794 0)
(0.025183 -0.0455261 0)
(0.0469798 -0.0246897 0)
(-0.000874866 -0.0430491 0)
(-0.00959186 -0.0437774 0)
(-0.0147483 -0.0356323 0)
(-0.0164963 -0.0193467 0)
(-0.0161339 -0.00860432 0)
(-0.0114506 -0.00444715 0)
(-0.00502888 -0.00678939 0)
(-0.00425185 -0.00835514 0)
(-0.012152 0.0112714 0)
(-0.0210801 0.0405341 0)
(-0.0279279 0.0613015 0)
(-0.0292445 0.0533199 0)
(-0.0228587 0.0375531 0)
(-0.0124025 0.0251612 0)
(-0.00409179 0.00956228 0)
(-0.00134484 0.00070613 0)
(-0.00133947 -0.00838488 0)
(-0.00425484 -0.0173936 0)
(-0.00687814 -0.030018 0)
(-0.010886 -0.0449962 0)
(-0.00785401 -0.0675543 0)
(0.0018564 -0.0658205 0)
(0.0173157 -0.0295496 0)
(-0.00168731 -0.0437093 0)
(-0.00994601 -0.0408905 0)
(-0.0171462 -0.0332058 0)
(-0.0192179 -0.0205916 0)
(-0.0177693 -0.00937575 0)
(-0.0161357 6.18917e-05 0)
(-0.017432 0.00751757 0)
(-0.0251799 0.014593 0)
(-0.034059 0.0264829 0)
(-0.0343236 0.0424185 0)
(-0.0267193 0.0540064 0)
(-0.0166548 0.046182 0)
(-0.00981495 0.0283301 0)
(-0.00608636 0.0144321 0)
(-0.00349922 0.00194851 0)
(-0.00126132 -0.00633608 0)
(0.00170879 -0.0140461 0)
(0.00503769 -0.0211193 0)
(0.0100254 -0.0271681 0)
(0.00705947 -0.0410521 0)
(0.00527853 -0.0710555 0)
(0.00340912 -0.0712696 0)
(0.00699388 -0.0411413 0)
(-0.00132355 -0.0469751 0)
(-0.00659989 -0.044851 0)
(-0.00833788 -0.0416568 0)
(-0.00411403 -0.0362485 0)
(-0.00190655 -0.0283996 0)
(0.00238247 -0.0175026 0)
(0.00434412 -0.00634607 0)
(0.000650906 0.00379563 0)
(-0.00762436 0.0148644 0)
(-0.0147131 0.0302664 0)
(-0.0170099 0.0419089 0)
(-0.0148762 0.0397278 0)
(-0.0131918 0.0273881 0)
(-0.0110423 0.0140706 0)
(-0.00741543 0.00240692 0)
(-0.00157603 -0.00632597 0)
(0.00791989 -0.0155593 0)
(0.0201986 -0.0274957 0)
(0.0340816 -0.0351537 0)
(0.0444778 -0.041141 0)
(0.0466252 -0.0667197 0)
(0.0372027 -0.069373 0)
(0.0306443 -0.0457489 0)
(-0.000983219 -0.0207957 0)
(-0.00900629 -0.0175977 0)
(-0.0296465 -0.0132419 0)
(-0.0912372 -0.00140407 0)
(-0.24198 0.0184946 0)
(-0.174051 -0.00668351 0)
(-0.123203 0.0094541 0)
(-0.0846255 0.0251989 0)
(-0.0628355 0.0353349 0)
(-0.0495467 0.0418475 0)
(-0.0345761 0.0443791 0)
(-0.0221139 0.0402604 0)
(-0.0131791 0.0299752 0)
(-0.00571347 0.0166559 0)
(0.00222448 -0.00102873 0)
(0.0144918 -0.0179678 0)
(0.0321746 -0.0306414 0)
(0.0507339 -0.040176 0)
(0.066633 -0.0415743 0)
(0.0798732 -0.041874 0)
(0.0907168 -0.0536972 0)
(0.086105 -0.058813 0)
(0.0733842 -0.0475205 0)
(0.00399416 -0.0149265 0)
(0.0105006 -0.00239417 0)
(0.0196225 0.0285868 0)
(0.0261311 0.0736082 0)
(0.0510834 0.125688 0)
(0.0714308 -0.109066 0)
(0.00916192 -0.0710507 0)
(-0.125638 -0.0147644 0)
(-0.19057 0.0138165 0)
(-0.248296 0.0336507 0)
(-0.229916 0.0288306 0)
(-0.172628 0.024677 0)
(-0.13578 0.0167212 0)
(-0.101761 0.00360758 0)
(-0.0690563 -0.0128468 0)
(-0.0421093 -0.0268102 0)
(-0.0176604 -0.0393207 0)
(0.01448 -0.0494136 0)
(0.0412997 -0.0529886 0)
(0.0817722 -0.0597125 0)
(0.122423 -0.064361 0)
(0.152159 -0.0497625 0)
(0.172896 -0.0130264 0)
(-0.000663312 -0.0381174 0)
(-0.00164437 -0.0328387 0)
(0.00607971 -0.0117176 0)
(0.0297098 0.00564346 0)
(0.0677763 0.0156462 0)
(0.0685218 -0.000319442 0)
(0.0448682 0.0764697 0)
(0.0458997 0.111735 0)
(0.0803406 0.0830424 0)
(0.100471 0.07868 0)
(0.0474427 0.0437191 0)
(-0.00614891 -0.0637889 0)
(-0.0999438 -0.0592628 0)
(-0.0468145 -0.0686028 0)
(0.00331919 -0.0655737 0)
(-0.117393 -0.0658385 0)
(-0.116199 -0.109594 0)
(-0.0547701 -0.12221 0)
(0.0209638 -0.124369 0)
(0.0537699 -0.136376 0)
(0.0788494 -0.124389 0)
(0.1056 -0.125458 0)
(0.179512 -0.0377364 0)
(-0.00171939 -0.0311506 0)
(-0.00201538 -0.0280472 0)
(0.00248211 -0.0135495 0)
(0.0141305 -0.000677616 0)
(0.0276841 0.00573165 0)
(0.0288074 -0.00315628 0)
(0.0381546 0.0117384 0)
(0.0685048 0.0333101 0)
(0.0937783 0.041299 0)
(0.118135 0.0548241 0)
(0.156835 0.0800106 0)
(0.190665 0.0849314 0)
(0.18232 0.0417068 0)
(0.179152 -0.101294 0)
(0.163324 -0.00514458 0)
(0.119561 0.0765622 0)
(0.163164 -0.100856 0)
(0.147922 -0.198659 0)
(0.143045 -0.172498 0)
(0.16254 -0.139778 0)
(0.192903 -0.120805 0)
(0.234361 -0.170919 0)
(0.281172 -0.139522 0)
(-0.00140497 -0.029577 0)
(-0.000639548 -0.0297075 0)
(0.00189898 -0.0203841 0)
(0.00782845 -0.0120332 0)
(0.0149831 -0.00625172 0)
(0.0205374 -0.00381393 0)
(0.0282995 0.00977663 0)
(0.0448432 0.0166501 0)
(0.0645555 0.0182463 0)
(0.0877641 0.010918 0)
(0.126718 0.0176323 0)
(0.168894 0.0151366 0)
(0.193809 -0.00439372 0)
(0.197583 -0.0270057 0)
(0.204916 -0.0111707 0)
(0.23812 -0.0361471 0)
(0.265642 -0.103403 0)
(0.255849 -0.134928 0)
(0.240211 -0.147858 0)
(0.241298 -0.158909 0)
(0.262483 -0.165376 0)
(0.280927 -0.182992 0)
(0.297222 -0.156559 0)
(-0.00105765 -0.028716 0)
(-0.000484142 -0.0304298 0)
(0.000196225 -0.0232778 0)
(0.00286584 -0.0166329 0)
(0.006637 -0.0118358 0)
(0.0112333 -0.00906214 0)
(0.0183842 -0.00415859 0)
(0.0299976 -0.000335807 0)
(0.0452189 7.66288e-05 0)
(0.0598276 -0.0114655 0)
(0.0754913 -0.0166098 0)
(0.0974406 -0.0148445 0)
(0.115969 -0.0237974 0)
(0.121702 -0.0554797 0)
(0.139754 -0.0626941 0)
(0.172773 -0.0684 0)
(0.191986 -0.100057 0)
(0.187483 -0.131606 0)
(0.174013 -0.153748 0)
(0.168643 -0.171235 0)
(0.17569 -0.184726 0)
(0.188708 -0.188285 0)
(0.203444 -0.168692 0)
(-0.000820088 -0.0278729 0)
(-0.000750704 -0.0302636 0)
(-0.00102188 -0.0242962 0)
(0.000333942 -0.0190508 0)
(0.00277217 -0.0155397 0)
(0.00660022 -0.0135121 0)
(0.0123402 -0.0114269 0)
(0.020499 -0.0110434 0)
(0.0311785 -0.0130819 0)
(0.0402272 -0.0204949 0)
(0.0463202 -0.0245077 0)
(0.054944 -0.0249254 0)
(0.0678819 -0.0318068 0)
(0.074848 -0.0561197 0)
(0.0788779 -0.0757752 0)
(0.0863506 -0.0870229 0)
(0.0891936 -0.101888 0)
(0.0814934 -0.119993 0)
(0.0695293 -0.14415 0)
(0.0621077 -0.174586 0)
(0.063766 -0.197926 0)
(0.0731083 -0.20263 0)
(0.0854513 -0.188171 0)
(-0.0006951 -0.0270919 0)
(-0.000941339 -0.029778 0)
(-0.00139179 -0.0247262 0)
(-0.000253892 -0.0206897 0)
(0.00177341 -0.0183764 0)
(0.00496858 -0.0174556 0)
(0.00933841 -0.0173842 0)
(0.0150359 -0.0187342 0)
(0.0216174 -0.0215712 0)
(0.0272119 -0.0267868 0)
(0.0315914 -0.030947 0)
(0.0376009 -0.0340362 0)
(0.0466119 -0.0410189 0)
(0.0517697 -0.0565072 0)
(0.0486125 -0.0719083 0)
(0.0424085 -0.0782606 0)
(0.0332154 -0.0873776 0)
(0.0213532 -0.103752 0)
(0.010406 -0.132268 0)
(-0.00219188 -0.168838 0)
(-0.0118896 -0.198401 0)
(-0.0129919 -0.209114 0)
(-0.0123835 -0.196686 0)
(-0.000627534 -0.0263537 0)
(-0.00101121 -0.0292401 0)
(-0.00140598 -0.0251676 0)
(-0.000199208 -0.0222407 0)
(0.0017713 -0.020919 0)
(0.00464317 -0.0209042 0)
(0.00821328 -0.0218828 0)
(0.0123772 -0.0238812 0)
(0.0167634 -0.0269185 0)
(0.0205345 -0.0310488 0)
(0.0236999 -0.0351115 0)
(0.0272681 -0.039268 0)
(0.031171 -0.0455812 0)
(0.0324812 -0.0554758 0)
(0.0276449 -0.0651955 0)
(0.0194004 -0.0693078 0)
(0.010267 -0.0758897 0)
(-0.000878439 -0.0912139 0)
(-0.016527 -0.117612 0)
(-0.0407292 -0.151183 0)
(-0.0596633 -0.187233 0)
(-0.0721689 -0.20088 0)
(-0.0892627 -0.177767 0)
(-0.000667232 -0.0255793 0)
(-0.00121816 -0.0286603 0)
(-0.00167387 -0.0256452 0)
(-0.000525722 -0.0237718 0)
(0.00133317 -0.0232948 0)
(0.00393624 -0.0239423 0)
(0.00696732 -0.0254355 0)
(0.0102403 -0.0276453 0)
(0.0134297 -0.0305205 0)
(0.0161426 -0.0340066 0)
(0.0183959 -0.0376476 0)
(0.0204247 -0.0416218 0)
(0.0218528 -0.0466046 0)
(0.0212736 -0.0528116 0)
(0.0174643 -0.0584382 0)
(0.0120608 -0.0612529 0)
(0.00612685 -0.0654619 0)
(-0.00337785 -0.0762281 0)
(-0.0217856 -0.094831 0)
(-0.049035 -0.124937 0)
(-0.07436 -0.16718 0)
(-0.101279 -0.178864 0)
(-0.131731 -0.147792 0)
(-0.000816655 -0.0246042 0)
(-0.00166073 -0.027876 0)
(-0.00240315 -0.0259403 0)
(-0.0015563 -0.0250953 0)
(-1.41588e-06 -0.0254056 0)
(0.00223838 -0.0265863 0)
(0.00482606 -0.028373 0)
(0.00751456 -0.0305953 0)
(0.0100265 -0.0332196 0)
(0.0121373 -0.0361745 0)
(0.0137967 -0.0393136 0)
(0.0150091 -0.0427271 0)
(0.0155013 -0.0465889 0)
(0.0146803 -0.0507657 0)
(0.0123076 -0.0543862 0)
(0.00921255 -0.0565674 0)
(0.00591001 -0.0587514 0)
(0.000304181 -0.0632905 0)
(-0.0116834 -0.0732606 0)
(-0.0326724 -0.0965354 0)
(-0.0639245 -0.136624 0)
(-0.103114 -0.146386 0)
(-0.139746 -0.116858 0)
(-0.00106351 -0.0232516 0)
(-0.00232274 -0.0267145 0)
(-0.00350641 -0.0258509 0)
(-0.00312061 -0.0260211 0)
(-0.0019991 -0.0271134 0)
(-0.000181345 -0.0288067 0)
(0.00199823 -0.0308304 0)
(0.00427285 -0.0330328 0)
(0.0063727 -0.0353721 0)
(0.00811431 -0.0378659 0)
(0.0093982 -0.0405019 0)
(0.0101706 -0.0433139 0)
(0.0103032 -0.0463407 0)
(0.00958043 -0.0494017 0)
(0.00802061 -0.0520549 0)
(0.00604448 -0.0539429 0)
(0.00388055 -0.0553792 0)
(0.000864473 -0.0569499 0)
(-0.00442654 -0.060323 0)
(-0.0153296 -0.07255 0)
(-0.0430725 -0.0999938 0)
(-0.0836767 -0.1075 0)
(-0.115737 -0.0865933 0)
(-0.00135779 -0.0214105 0)
(-0.00310375 -0.0250736 0)
(-0.00480419 -0.0252758 0)
(-0.00493158 -0.0264686 0)
(-0.00426544 -0.0283779 0)
(-0.00284676 -0.0306247 0)
(-0.00101186 -0.0329123 0)
(0.000964902 -0.0350986 0)
(0.00279459 -0.0371893 0)
(0.00427428 -0.0392568 0)
(0.00531032 -0.0413889 0)
(0.00582392 -0.043632 0)
(0.00575556 -0.0459997 0)
(0.00506294 -0.048352 0)
(0.00382633 -0.0504678 0)
(0.00228573 -0.0521507 0)
(0.000565279 -0.0534048 0)
(-0.00154784 -0.0541758 0)
(-0.0044106 -0.0548288 0)
(-0.00985198 -0.0587291 0)
(-0.0269655 -0.0695941 0)
(-0.0564073 -0.0733444 0)
(-0.0784758 -0.0605694 0)
(-0.00167648 -0.0190127 0)
(-0.00394064 -0.0229042 0)
(-0.00616281 -0.0241906 0)
(-0.00678021 -0.0264446 0)
(-0.00652231 -0.0292366 0)
(-0.0054309 -0.0321052 0)
(-0.00385292 -0.0347099 0)
(-0.0020969 -0.0369141 0)
(-0.000459448 -0.0387792 0)
(0.000846092 -0.0404389 0)
(0.00169245 -0.0420631 0)
(0.00200932 -0.0437618 0)
(0.00178544 -0.0455587 0)
(0.00101869 -0.0473872 0)
(-0.000199125 -0.0491045 0)
(-0.00169481 -0.0505763 0)
(-0.00338406 -0.0516836 0)
(-0.00528504 -0.0521588 0)
(-0.00743543 -0.0517758 0)
(-0.0106955 -0.0516067 0)
(-0.0189461 -0.0521257 0)
(-0.0347595 -0.0502315 0)
(-0.0494788 -0.043338 0)
(-0.00199112 -0.0160472 0)
(-0.0047728 -0.0202065 0)
(-0.00749594 -0.0226201 0)
(-0.00855268 -0.0260004 0)
(-0.00863454 -0.0297593 0)
(-0.00779313 -0.0333279 0)
(-0.00639936 -0.0363046 0)
(-0.00479118 -0.0385588 0)
(-0.00328532 -0.0401969 0)
(-0.00211601 -0.0414507 0)
(-0.00142291 -0.0425689 0)
(-0.00126725 -0.0437222 0)
(-0.00165397 -0.0449806 0)
(-0.00255221 -0.0463336 0)
(-0.00388182 -0.0476759 0)
(-0.00552885 -0.048908 0)
(-0.00739995 -0.0498652 0)
(-0.00940344 -0.0502088 0)
(-0.0114028 -0.0494941 0)
(-0.0137158 -0.0477044 0)
(-0.0175108 -0.0445329 0)
(-0.0233912 -0.0387501 0)
(-0.0297023 -0.0320073 0)
(-0.00229865 -0.0125245 0)
(-0.00558262 -0.0170019 0)
(-0.00876556 -0.0206081 0)
(-0.010201 -0.0251993 0)
(-0.0105543 -0.0300181 0)
(-0.00989866 -0.0343623 0)
(-0.00863524 -0.0377585 0)
(-0.00712487 -0.0400826 0)
(-0.00570358 -0.0414989 0)
(-0.00462753 -0.0423341 0)
(-0.0040496 -0.0429296 0)
(-0.00403012 -0.0435315 0)
(-0.0045651 -0.0442605 0)
(-0.00561112 -0.0451312 0)
(-0.00709841 -0.0460833 0)
(-0.00894402 -0.0470257 0)
(-0.0110638 -0.0478029 0)
(-0.0133422 -0.048105 0)
(-0.0155731 -0.0474608 0)
(-0.0175523 -0.0454402 0)
(-0.0194071 -0.041742 0)
(-0.0210907 -0.0358301 0)
(-0.0218713 -0.0280746 0)
(-0.00258886 -0.00847331 0)
(-0.00634918 -0.0133253 0)
(-0.00995247 -0.0182036 0)
(-0.0117111 -0.0241013 0)
(-0.0122791 -0.0300727 0)
(-0.0117672 -0.0352574 0)
(-0.0106076 -0.0391136 0)
(-0.00916673 -0.0415319 0)
(-0.00778924 -0.0427327 0)
(-0.00675424 -0.0431352 0)
(-0.00623488 -0.0431848 0)
(-0.00630212 -0.0432132 0)
(-0.00695048 -0.0433976 0)
(-0.00812649 -0.0437811 0)
(-0.00975737 -0.0443193 0)
(-0.0117705 -0.044926 0)
(-0.0140942 -0.0454683 0)
(-0.0166267 -0.0457058 0)
(-0.0191693 -0.045256 0)
(-0.0213575 -0.0436719 0)
(-0.0228143 -0.0405883 0)
(-0.0234236 -0.0358413 0)
(-0.022636 -0.0292053 0)
(-0.0028701 -0.00392059 0)
(-0.00708331 -0.00921099 0)
(-0.0110652 -0.0154495 0)
(-0.0130986 -0.0227546 0)
(-0.0138389 -0.0299624 0)
(-0.0134551 -0.0360343 0)
(-0.012404 -0.0403847 0)
(-0.011029 -0.042935 0)
(-0.00966742 -0.0439459 0)
(-0.00861893 -0.0439178 0)
(-0.00808319 -0.0434026 0)
(-0.00815674 -0.0428266 0)
(-0.00884916 -0.0424367 0)
(-0.0101046 -0.0423137 0)
(-0.0118371 -0.0424234 0)
(-0.0139628 -0.0426759 0)
(-0.0164087 -0.0429483 0)
(-0.0190909 -0.0430575 0)
(-0.0218481 -0.0427315 0)
(-0.0243563 -0.0416401 0)
(-0.026228 -0.039491 0)
(-0.0272234 -0.0360952 0)
(-0.0268095 -0.0312269 0)
(-0.00314362 0.00110328 0)
(-0.00779369 -0.00468773 0)
(-0.0121295 -0.0123812 0)
(-0.0144022 -0.0211947 0)
(-0.0152864 -0.0297069 0)
(-0.0150389 -0.0366844 0)
(-0.0141261 -0.0415571 0)
(-0.0128328 -0.0442979 0)
(-0.0114782 -0.0451747 0)
(-0.0103749 -0.0447491 0)
(-0.00974661 -0.0436715 0)
(-0.00972668 -0.0424647 0)
(-0.0103602 -0.0414596 0)
(-0.0116069 -0.0407941 0)
(-0.0133718 -0.0404546 0)
(-0.0155491 -0.0403459 0)
(-0.018046 -0.040341 0)
(-0.0207804 -0.0402848 0)
(-0.0236284 -0.0399782 0)
(-0.02635 -0.0391991 0)
(-0.028672 -0.0377617 0)
(-0.0304311 -0.0354985 0)
(-0.0310664 -0.0321058 0)
(-0.0034177 0.0066155 0)
(-0.00850971 0.000201552 0)
(-0.0131964 -0.009025 0)
(-0.0156759 -0.0194478 0)
(-0.0166811 -0.029318 0)
(-0.0165926 -0.0371759 0)
(-0.0158521 -0.0425981 0)
(-0.0146571 -0.045609 0)
(-0.0133177 -0.0464333 0)
(-0.0121456 -0.0456784 0)
(-0.0113722 -0.0440771 0)
(-0.0111654 -0.042235 0)
(-0.0116232 -0.0405728 0)
(-0.0127474 -0.0393111 0)
(-0.014452 -0.0384829 0)
(-0.0166108 -0.037998 0)
(-0.0191042 -0.0377173 0)
(-0.0218344 -0.0374897 0)
(-0.0246881 -0.0371507 0)
(-0.0274781 -0.0365355 0)
(-0.0300449 -0.0355241 0)
(-0.0323399 -0.0340009 0)
(-0.033814 -0.0316452 0)
(-0.00371702 0.0126257 0)
(-0.00926043 0.00553248 0)
(-0.0142841 -0.00537748 0)
(-0.0169592 -0.017542 0)
(-0.0180655 -0.0288146 0)
(-0.0181646 -0.0374592 0)
(-0.0176053 -0.0434885 0)
(-0.0164992 -0.0468574 0)
(-0.0151909 -0.0477145 0)
(-0.0139695 -0.0467217 0)
(-0.0130439 -0.0446764 0)
(-0.0125951 -0.0422355 0)
(-0.0127754 -0.0398955 0)
(-0.013655 -0.0379778 0)
(-0.0151878 -0.0365972 0)
(-0.0172433 -0.0356941 0)
(-0.0196747 -0.0351201 0)
(-0.0223591 -0.0347115 0)
(-0.0251791 -0.0343108 0)
(-0.0279754 -0.0337779 0)
(-0.0306336 -0.033031 0)
(-0.0331573 -0.0319926 0)
(-0.0350326 -0.0303716 0)
(-0.00401036 0.0191566 0)
(-0.0100486 0.0113007 0)
(-0.0154171 -0.0014558 0)
(-0.0182128 -0.0155294 0)
(-0.0194602 -0.0281678 0)
(-0.019786 -0.037515 0)
(-0.0193301 -0.0442708 0)
(-0.0182589 -0.048055 0)
(-0.016995 -0.048996 0)
(-0.0157734 -0.0478526 0)
(-0.0147438 -0.0454738 0)
(-0.0140629 -0.0425221 0)
(-0.013914 -0.0395287 0)
(-0.014446 -0.0369119 0)
(-0.0156901 -0.0349027 0)
(-0.0175449 -0.0335122 0)
(-0.0198465 -0.0326014 0)
(-0.0224423 -0.0319867 0)
(-0.0251983 -0.0315014 0)
(-0.0279651 -0.0310114 0)
(-0.0306491 -0.0304453 0)
(-0.0332467 -0.0297516 0)
(-0.0352807 -0.0287001 0)
(-0.00428728 0.0261802 0)
(-0.0107873 0.0174429 0)
(-0.0163929 0.00266258 0)
(-0.0192922 -0.013398 0)
(-0.0208554 -0.0272521 0)
(-0.0213758 -0.0374439 0)
(-0.0208479 -0.0450582 0)
(-0.0197421 -0.0492341 0)
(-0.0185387 -0.0502423 0)
(-0.0173873 -0.0490035 0)
(-0.0163498 -0.0464085 0)
(-0.0155191 -0.0430812 0)
(-0.0150658 -0.0395246 0)
(-0.0151988 -0.036212 0)
(-0.0160529 -0.0335062 0)
(-0.017603 -0.0315397 0)
(-0.0196954 -0.0302211 0)
(-0.0221488 -0.0293534 0)
(-0.0248085 -0.0287488 0)
(-0.0275244 -0.0282679 0)
(-0.0301913 -0.0278378 0)
(-0.0328047 -0.0274252 0)
(-0.0349243 -0.0268535 0)
(-0.0044469 0.0336038 0)
(-0.0112957 0.0238678 0)
(-0.0170113 0.00686987 0)
(-0.0200713 -0.0110087 0)
(-0.0220503 -0.025988 0)
(-0.022612 -0.0374444 0)
(-0.0218629 -0.0459637 0)
(-0.0206991 -0.0504103 0)
(-0.019592 -0.051401 0)
(-0.0185925 -0.0500764 0)
(-0.0176692 -0.0473634 0)
(-0.016827 -0.0438191 0)
(-0.0161773 -0.0398573 0)
(-0.0159395 -0.0359312 0)
(-0.0163452 -0.032504 0)
(-0.0174925 -0.0298718 0)
(-0.0192873 -0.0280519 0)
(-0.021537 -0.0268642 0)
(-0.0240571 -0.0260922 0)
(-0.0266828 -0.0255769 0)
(-0.0293079 -0.0252374 0)
(-0.0319095 -0.0250567 0)
(-0.0340733 -0.0248984 0)
(-0.00428416 0.0414077 0)
(-0.0112793 0.0306273 0)
(-0.017155 0.0111651 0)
(-0.0204582 -0.00830217 0)
(-0.0226818 -0.0245042 0)
(-0.0230584 -0.0376688 0)
(-0.022068 -0.0470221 0)
(-0.0208946 -0.0515532 0)
(-0.0199462 -0.0524024 0)
(-0.019184 -0.0509625 0)
(-0.0184976 -0.0481948 0)
(-0.0178028 -0.0445833 0)
(-0.0171234 -0.0404161 0)
(-0.0166309 -0.0360471 0)
(-0.0166025 -0.0319568 0)
(-0.0172746 -0.0286001 0)
(-0.0186792 -0.0261736 0)
(-0.0206516 -0.0245761 0)
(-0.0229789 -0.023572 0)
(-0.0254754 -0.0229701 0)
(-0.0280207 -0.0226761 0)
(-0.0305843 -0.0226725 0)
(-0.0327661 -0.0228482 0)
(-0.00389142 0.0485988 0)
(-0.0106748 0.0374284 0)
(-0.016687 0.0156586 0)
(-0.0202453 -0.00538445 0)
(-0.0224109 -0.0230908 0)
(-0.0224009 -0.0381645 0)
(-0.0212522 -0.0481855 0)
(-0.020162 -0.052592 0)
(-0.0194561 -0.0531675 0)
(-0.0190154 -0.0515586 0)
(-0.0186719 -0.0487627 0)
(-0.0182702 -0.0452006 0)
(-0.017744 -0.0410291 0)
(-0.0171779 -0.0364507 0)
(-0.0168196 -0.0318608 0)
(-0.0170006 -0.0277969 0)
(-0.0179275 -0.0246718 0)
(-0.0195383 -0.022554 0)
(-0.0216117 -0.0212355 0)
(-0.02393 -0.0204874 0)
(-0.0263581 -0.0201888 0)
(-0.0288414 -0.0203102 0)
(-0.0310077 -0.0207535 0)
(-0.00335598 0.055246 0)
(-0.00964663 0.0438525 0)
(-0.0155135 0.0202816 0)
(-0.0191651 -0.002432 0)
(-0.0210091 -0.0219969 0)
(-0.0205046 -0.0389312 0)
(-0.0193165 -0.0493633 0)
(-0.018422 -0.0534312 0)
(-0.0180598 -0.0536085 0)
(-0.0180212 -0.0517733 0)
(-0.0180995 -0.0489512 0)
(-0.0180993 -0.0455134 0)
(-0.0178852 -0.041504 0)
(-0.0174462 -0.0369651 0)
(-0.0169406 -0.032131 0)
(-0.0167022 -0.0274944 0)
(-0.0170962 -0.0236364 0)
(-0.0182504 -0.0208808 0)
(-0.0199982 -0.0191467 0)
(-0.0220921 -0.0181799 0)
(-0.024358 -0.0178155 0)
(-0.0267224 -0.0180026 0)
(-0.0288329 -0.0186468 0)
(-0.00263599 0.0610556 0)
(-0.00817536 0.0498253 0)
(-0.0134846 0.0248544 0)
(-0.017013 0.000416775 0)
(-0.0183354 -0.0213367 0)
(-0.0173129 -0.0399339 0)
(-0.0162559 -0.050422 0)
(-0.0157042 -0.0539439 0)
(-0.015805 -0.0536267 0)
(-0.016239 -0.0515327 0)
(-0.0167813 -0.0486845 0)
(-0.0172344 -0.0454094 0)
(-0.0174336 -0.0416729 0)
(-0.0172926 -0.0373848 0)
(-0.0168573 -0.0325984 0)
(-0.0163702 -0.0276446 0)
(-0.0162545 -0.0231307 0)
(-0.0168654 -0.019645 0)
(-0.018198 -0.0173728 0)
(-0.0200015 -0.0161001 0)
(-0.0220596 -0.0156045 0)
(-0.0242612 -0.0157961 0)