/*--------------------------------*- C++ -*----------------------------------*\
| =========                 |                                                 |
| \\      /  F ield         | OpenFOAM: The Open Source CFD Toolbox           |
|  \\    /   O peration     | Version:  2312                                  |
|   \\  /    A nd           | Website:  www.openfoam.com                      |
|    \\/     M anipulation  |                                                 |
\*---------------------------------------------------------------------------*/
FoamFile
{
    version     2.0;
    format      ascii;
    arch        "LSB;label=32;scalar=64";
    class       volScalarField;
    location    "3.8";
    object      alpha.galistan;
}
// * * * * * * * * * * * * * * * * * * * * * * * * * * * * * * * * * * * * * //

dimensions      [0 0 0 0 0 0 0];

internalField   nonuniform List<scalar> 
2268
(
1
1
1
1
1
1
1
1
1
1
1
1
1
1
1
1
1
1
1
1
0.999994
0.999948
0.999948
1
1
1
1
1
1
1
1
1
1
1
1
1
1
1
1
1
1
1
1
0.999999
0.999975
0.99995
1
1
1
1
1
1
1
1
1
1
1
1
1
1
1
1
1
1
1
1
1
0.999999
0.999999
0.999893
0.999919
0.999994
0.999997
1
1
0.999999
0.999999
1
1
1
1
1
1
1
1
1
0.999999
0.999993
0.999996
1
1
1
0.922475
0.923549
0.929976
0.94007
0.952706
0.966773
0.980766
0.994367
0.99989
0.99999
0.999967
0.999939
0.999988
0.999981
0.999977
0.999986
0.999951
0.999973
0.99993
0.999968
1
1
1
0.195283
0.202596
0.213793
0.232504
0.260421
0.296131
0.337811
0.386677
0.453061
0.534904
0.629986
0.742467
0.860533
0.942159
0.994079
0.999708
0.998585
0.998956
1
1
1
0.999908
0.997742
2.29143e-13
2.3155e-13
3.40616e-17
2.58546e-10
-1.69583e-20
1.05735e-20
-7.25373e-09
6.19675e-05
0.000841622
0.00554774
0.0185993
0.0503165
0.142363
0.293465
0.450863
0.634715
0.801484
0.890724
0.917229
0.942024
0.955582
0.961854
0.960004
2.28389e-08
7.34558e-09
9.51858e-18
1.5948e-05
4.90729e-05
4.05785e-05
4.36521e-05
3.14405e-05
3.14365e-05
1.64944e-05
8.20226e-05
6.35574e-05
7.17412e-05
6.24554e-05
0.00280401
0.0121833
0.0478452
0.145015
0.270583
0.335668
0.359736
0.377132
0.392149
0.957726
0.957722
0.956635
0.957382
0.957383
0.956925
0.951622
0.953715
0.955006
0.955239
0.955241
0.955242
0.955242
0.957847
0.961242
0.962291
0.961729
0.958473
0.958165
0.896443
0.894136
0.906459
0.910245
0.920421
0.940708
0.945539
0.944716
0.937738
0.932475
0.944393
0.960814
0.961302
0.960985
0.962343
0.962309
0.962332
0.958512
0.958465
0.274169
0.288944
0.292022
0.330766
0.395991
0.445303
0.476871
0.473188
0.484907
0.53845
0.573414
0.606986
0.648895
0.706524
0.778806
0.761222
0.694804
0.63949
0.603169
1.58683e-22
-1.21899e-05
-1.7768e-05
-1.42292e-05
-3.0296e-22
7.79752e-23
-2.02368e-23
0.00282192
0.00552122
0.0163182
0.113397
0.17642
0.248617
0.315427
0.390173
0.438457
0.443251
0.452076
0.461107
0.00174187
0.00601505
0.00505593
0.00659124
0.00238025
0.000970284
0.00124677
0.00346512
0.00752236
0.00679574
0.00213624
0.00213447
0.00213181
0.00213013
0.0196024
0.0700327
0.0917816
0.0787257
0.0975352
0.00168018
0.00434144
0.00369303
0.00724841
0.0119444
0.0119475
0.0106835
0.00511534
0.0228186
0.0102975
0.0021595
0.00213689
0.00213434
0.00275486
0.00304394
0.0024273
0.00381155
0.00169745
0.00169779
0.00604853
0.00120109
0.000711812
0.00071186
0.00330115
0.00320948
0.00112285
0.0103654
0.0228161
0.00369785
0.00216017
0.00374583
0.0048612
0.00295054
0.002278
0.00217644
0.0027555
0.00169843
0.00169812
0.0317754
0.01812
0.00100295
0.000711735
0.00071448
0.000718048
0.00105879
0.0181769
0.0225669
0.00411373
0.00216397
0.0163995
0.0200308
0.0112493
0.00217007
0.00216908
0.00217103
0.0025883
0.00169845
1.36652e-07
3.89836e-07
3.40254e-06
7.2622e-05
8.80512e-05
8.99787e-05
6.42166e-05
5.2406e-05
2.01054e-05
1.65311e-05
0.000106072
0.00054518
0.000541394
0.000346007
0.000343314
0.00042774
0.000445824
0.0112444
0.0089432
0.000614623
0.000612467
0.000611809
0.00511971
5.70539e-05
1.24109e-05
3.40431e-06
1.00427e-05
8.8701e-05
0.000148772
0.000167073
8.32706e-05
1.5676e-05
1.55591e-05
3.65099e-05
0.000373245
0.00192356
0.00172665
0.000909513
0.000658092
0.00214993
0.00251847
0.00147704
0.00062284
0.000615342
0.00120322
0.000507186
0.000229608
0.000149963
9.86486e-05
0.000851608
0.000669283
0.000779597
0.00034488
0.000148064
0.000106889
6.91886e-05
3.88066e-05
0.00123573
0.0028176
0.00281837
0.00281852
0.00281834
0.00138952
0.000817827
0.000810706
0.000851572
0.00202235
0.00130964
0.000533388
0.000318563
0.000324771
0.00185978
0.00261078
0.00244802
0.00109172
0.000123829
0.00015352
0.000689895
0.00096703
0.00087956
0.00167873
0.00167514
0.000594414
0.000469225
0.000803248
0.00525133
0.00604627
0.00482756
0.00140605
0.00212891
0.00235185
0.000855743
0.000454179
0.000614062
0.00217272
0.00261074
0.00243537
0.00129454
0.000125586
6.91969e-05
0.000305221
0.000965817
0.00100027
0.000525784
1.52187e-05
1.22757e-05
0.0002711
0.00485648
0.0060463
0.00604373
0.00417354
0.00245322
0.00253969
0.00237129
0.000305151
0.000418845
0.000546835
0.000304633
0.000309729
0.000300947
0.000310095
0.000327533
0.000157675
3.50819e-05
3.47128e-05
4.6358e-05
8.27382e-05
6.14267e-05
1.1846e-05
1.19445e-05
0.00117987
0.0043404
0.00262719
0.000768583
0.00122983
0.00209354
0.000878109
8.6165e-05
0.000272124
0.000212647
0.000176971
0.000153938
0.000122029
7.24508e-05
7.47306e-05
7.2192e-05
6.117e-05
5.96505e-05
6.78871e-05
6.12156e-05
5.13402e-05
4.67047e-05
1.5253e-05
1.24268e-07
0.000137554
0.000373052
0.000300487
0.000449555
0.000544347
0.000407808
0.000202808
0.000401211
0.000653657
0.000814163
0.000814642
0.000814164
0.000808238
0.000701612
0.000505733
0.00040072
0.000454699
0.000692662
0.000867002
0.000740176
0.000332379
2.76181e-05
1.24582e-07
2.778e-08
2.46202e-05
8.54584e-05
0.000257846
0.000371307
0.000286314
0.000335037
0.000196751
0.00029077
0.000535005
0.000681283
0.000677904
0.000665584
0.000630402
0.000451741
0.000293228
0.00032976
0.000525973
0.00092714
0.00104244
0.00104106
0.000695531
1.96115e-05
2.77926e-08
4.03978e-08
1.31191e-05
5.15188e-05
0.000123515
0.000166608
0.00107945
9.2769e-27
6.60966e-28
3.76947e-27
-7.21756e-26
7.82532e-26
-1.90054e-27
1.85586e-27
1.7826e-09
6.74897e-08
6.56504e-08
2.54904e-08
2.10335e-08
0.000272568
0.00051363
0.000335321
0.000194689
2.91414e-06
2.71699e-07
2.63438e-07
1.46336e-05
6.22336e-06
2.08929e-05
0.00192948
5.81263e-10
1.35754e-09
2.13557e-09
2.67355e-09
1.40256e-09
4.71985e-10
1.47855e-09
4.41371e-07
6.98243e-07
6.59029e-07
4.81877e-07
4.9309e-07
4.72556e-07
1.44823e-06
5.35544e-06
1.83106e-05
2.53101e-05
2.55282e-05
9.12438e-06
3.46631e-06
3.83567e-06
0.00011106
0.00138252
1.78938e-09
4.62382e-09
1.15891e-08
1.31891e-08
1.65239e-08
1.41328e-08
1.1778e-07
9.45066e-07
1.22865e-06
1.01862e-06
2.97622e-06
3.88831e-06
3.99087e-06
4.53337e-06
4.31391e-06
1.9389e-06
2.77875e-06
4.0997e-06
2.00886e-06
1.29489e-07
1.54049e-07
0.00019373
0.000141193
1.8904e-09
4.66307e-09
1.21009e-08
3.51339e-08
8.32184e-08
1.60305e-07
3.85242e-07
1.23168e-06
1.1445e-06
7.96458e-07
2.83776e-06
3.8652e-06
2.91331e-09
4.05565e-09
2.80724e-09
2.79348e-09
2.81296e-09
8.48721e-08
1.03359e-08
1.08166e-08
1.84275e-05
2.51006e-05
4.04998e-11
1.6188e-09
2.98487e-09
4.86239e-09
4.10241e-08
1.49801e-07
2.32981e-07
1.78174e-07
5.11577e-08
4.68714e-08
4.67624e-08
4.75361e-08
3.9139e-07
2.88004e-09
2.87224e-09
2.83465e-09
3.58306e-09
3.56636e-09
1.42549e-08
4.79802e-08
2.05349e-07
3.31954e-06
9.31143e-10
2.88917e-16
1.42488e-09
2.69903e-09
9.32414e-09
5.44388e-08
2.05223e-07
2.131e-07
5.28973e-08
5.41958e-08
1.16145e-07
2.166e-07
2.24464e-07
1.23039e-07
1.41456e-08
3.16251e-08
2.52826e-08
3.62967e-09
7.19253e-09
4.22529e-09
7.9056e-09
5.15114e-08
3.15137e-07
7.20259e-12
1.21216e-21
1.35487e-09
2.93753e-09
1.1356e-08
4.47301e-08
1.06091e-07
9.23327e-08
5.59635e-08
1.55468e-07
3.2825e-07
3.2917e-07
2.06898e-07
2.497e-07
5.23148e-07
5.58662e-07
2.87309e-07
1.31672e-07
4.72153e-08
3.42956e-08
4.25521e-08
1.77e-07
8.63299e-08
5.55328e-08
5.57479e-07
1.28893e-09
2.63918e-09
7.83112e-09
1.8119e-08
1.94881e-08
1.52573e-09
3.37424e-08
1.03745e-07
5.51184e-08
1.97816e-08
1.36166e-08
3.17261e-07
1.01263e-06
1.01265e-06
1.01263e-06
4.70015e-07
2.06852e-08
3.94545e-07
1.68282e-06
1.62298e-06
1.90092e-06
1.90437e-06
1.89616e-06
1.16296e-09
1.9171e-09
3.28935e-09
3.30121e-09
1.53034e-09
1.55321e-09
1.93223e-09
2.2147e-09
3.16228e-09
5.48918e-09
1.34454e-08
5.71509e-08
5.77934e-07
1.00651e-06
6.35607e-07
1.77489e-08
1.88165e-08
4.99259e-07
9.23954e-07
1.14893e-06
1.11875e-06
9.94607e-07
9.64083e-07
1.0191e-09
1.23763e-09
1.77918e-09
1.56369e-09
1.68633e-09
2.03783e-09
2.4746e-09
3.01408e-09
5.03804e-09
8.82447e-09
1.99822e-08
3.80061e-08
5.0153e-08
6.01076e-08
4.99053e-08
3.40842e-08
1.84695e-08
4.35325e-08
4.90233e-08
9.30183e-09
1.79453e-08
1.26423e-07
2.45318e-07
9.47506e-10
8.21689e-10
1.22924e-09
1.40183e-09
1.70808e-09
2.32399e-09
2.72048e-09
2.78174e-09
2.56212e-09
2.91081e-09
2.92895e-09
1.77143e-09
1.14014e-09
1.42466e-09
2.51602e-09
3.86648e-09
2.60773e-09
3.14486e-09
2.6992e-09
4.01399e-10
3.99776e-10
4.17591e-10
4.38361e-08
9.07293e-10
5.28696e-10
8.18918e-10
1.03642e-09
1.2808e-09
1.52812e-09
1.78168e-09
1.80983e-09
1.74193e-09
1.64858e-09
1.51785e-09
1.33324e-09
1.10152e-09
8.26335e-10
7.23483e-10
7.8574e-10
8.29846e-10
8.78462e-10
7.65731e-10
4.03312e-10
5.09559e-10
9.60677e-10
4.39363e-09
8.8971e-10
3.67197e-10
4.93364e-10
5.84483e-10
6.72653e-10
7.34413e-10
7.66958e-10
7.41861e-10
7.19269e-10
6.40482e-10
5.66955e-10
5.11217e-10
4.5684e-10
3.89572e-10
3.1555e-10
2.67539e-10
2.52039e-10
2.54767e-10
2.51689e-10
1.71567e-10
1.90944e-10
2.83838e-10
5.04864e-10
8.81867e-10
2.36365e-10
2.81573e-10
2.98191e-10
2.97637e-10
2.8497e-10
2.60875e-10
2.40931e-10
2.13049e-10
1.87844e-10
1.65309e-10
1.46945e-10
1.25259e-10
1.0669e-10
9.19375e-11
7.98461e-11
7.18402e-11
7.01282e-11
7.04575e-11
6.08919e-11
6.09174e-11
7.25015e-11
1.15781e-10
8.81121e-10
1.61716e-10
1.41606e-10
1.27157e-10
1.1326e-10
9.70116e-11
7.83097e-11
6.28155e-11
4.78522e-11
3.92817e-11
3.26179e-11
2.91237e-11
2.75883e-11
2.44866e-11
2.11754e-11
1.8799e-11
1.82218e-11
1.92016e-11
2.06485e-11
2.14454e-11
2.23628e-11
3.03585e-11
3.8661e-11
8.87201e-10
1.18095e-10
7.67209e-11
6.29066e-11
5.04357e-11
4.16052e-11
3.3537e-11
2.50735e-11
1.7601e-11
1.18216e-11
8.56617e-12
6.63024e-12
5.60199e-12
4.88899e-12
3.99587e-12
3.93112e-12
4.33341e-12
5.04934e-12
6.06204e-12
7.18909e-12
8.3034e-12
9.24482e-12
1.52174e-11
9.00913e-10
8.65396e-11
4.24312e-11
3.68561e-11
3.8945e-11
4.18468e-11
3.90682e-11
3.00067e-11
1.94194e-11
1.06087e-11
5.41291e-12
2.78028e-12
1.57504e-12
1.10862e-12
9.23702e-13
8.91298e-13
1.01058e-12
1.27918e-12
1.63719e-12
2.10735e-12
2.67961e-12
4.46228e-12
5.60153e-12
9.23596e-10
8.26462e-11
3.08085e-11
4.01186e-11
5.96763e-11
7.82965e-11
7.93657e-11
6.13678e-11
3.89469e-11
1.99523e-11
9.68033e-12
4.28867e-12
1.745e-12
6.99523e-13
3.28781e-13
2.29123e-13
2.38423e-13
3.1196e-13
4.43315e-13
6.53527e-13
9.68009e-13
1.3007e-12
2.25411e-12
9.55535e-10
8.7642e-11
3.56034e-11
6.88419e-11
1.00615e-10
1.51238e-10
1.58813e-10
1.19978e-10
7.43827e-11
3.64771e-11
1.76532e-11
7.84425e-12
3.14342e-12
1.1291e-12
3.69112e-13
1.24612e-13
6.69361e-14
7.30291e-14
1.09718e-13
1.77691e-13
2.7905e-13
5.84127e-13
7.88759e-13
9.99778e-10
1.00544e-10
5.12006e-11
1.1559e-10
2.10884e-10
2.65842e-10
3.0141e-10
2.17976e-10
1.24112e-10
5.97271e-11
2.88078e-11
1.295e-11
5.34525e-12
1.96851e-12
6.36775e-13
1.77564e-13
4.63763e-14
2.11839e-14
2.54879e-14
4.47679e-14
9.8216e-14
1.5095e-13
3.12891e-13
1.05739e-09
1.21871e-10
7.86753e-11
2.62565e-10
5.11232e-10
5.95203e-10
5.03343e-10
3.38892e-10
1.75951e-10
8.68938e-11
4.17459e-11
1.8873e-11
8.04898e-12
3.08611e-12
1.04614e-12
3.00444e-13
7.02755e-14
1.57246e-14
7.39308e-15
1.19927e-14
2.33804e-14
6.621e-14
1.02438e-13
1.15417e-09
1.48251e-10
1.31425e-10
4.87004e-10
9.50144e-10
1.15283e-09
9.83234e-10
4.27809e-10
2.22814e-10
1.10212e-10
5.35318e-11
2.41959e-11
1.06195e-11
4.26846e-12
1.52986e-12
4.72633e-13
1.15685e-13
2.33605e-14
4.56019e-15
3.54692e-15
8.59167e-15
1.76159e-14
4.377e-14
1.23194e-09
1.95751e-10
2.2569e-10
7.72919e-10
1.31451e-09
1.5771e-09
1.43681e-09
7.27252e-10
2.40956e-10
1.18237e-10
6.08013e-11
2.74929e-11
1.2347e-11
5.093e-12
1.92978e-12
6.48692e-13
1.74991e-13
3.7316e-14
5.95354e-15
1.34266e-15
2.16058e-15
8.7035e-15
1.70819e-14
1.36809e-09
2.40163e-10
3.47215e-10
9.75079e-10
1.46658e-09
1.67644e-09
1.53783e-09
9.5692e-10
2.76839e-10
1.1315e-10
6.05308e-11
2.72505e-11
1.23704e-11
5.23292e-12
2.06888e-12
7.49627e-13
2.26838e-13
5.50423e-14
9.62152e-15
1.40153e-15
8.73145e-16
2.11565e-15
8.55678e-15
1.4723e-09
2.98197e-10
3.57012e-10
1.07073e-09
1.45136e-09
1.65713e-09
1.56517e-09
9.85481e-10
2.94035e-10
1.09589e-10
5.36661e-11
2.40496e-11
1.09589e-11
4.67462e-12
1.90237e-12
7.28819e-13
2.48929e-13
6.76721e-14
1.35415e-14
1.94475e-15
4.09747e-16
1.21909e-15
3.37514e-15
1.72681e-09
3.90265e-10
3.32966e-10
8.66227e-10
1.20094e-09
1.43286e-09
1.53124e-09
7.89804e-10
2.84567e-10
9.33752e-11
4.3492e-11
1.89803e-11
8.61684e-12
3.70158e-12
1.49597e-12
5.91698e-13
2.21875e-13
6.96804e-14
1.58733e-14
2.54657e-15
2.95617e-16
2.45113e-16
1.44997e-15
1.89135e-09
5.41345e-10
3.22104e-10
6.3734e-10
8.18242e-10
1.01275e-09
1.22147e-09
6.67817e-10
2.41975e-10
8.02964e-11
3.20971e-11
1.35677e-11
6.06964e-12
2.54592e-12
9.92416e-13
3.92297e-13
1.57628e-13
5.71071e-14
1.54859e-14
2.83142e-15
3.32513e-16
1.50506e-16
4.77994e-16
2.15874e-09
7.9777e-10
3.80787e-10
5.62184e-10
6.38957e-10
8.60585e-10
8.81621e-10
5.49404e-10
1.91251e-10
5.97596e-11
2.10618e-11
8.42937e-12
3.75024e-12
1.52033e-12
5.5845e-13
2.10424e-13
8.66529e-14
3.49033e-14
1.15319e-14
2.52236e-15
3.54167e-16
4.47882e-17
1.58259e-16
2.23997e-09
1.03133e-09
6.71536e-10
5.81533e-10
5.91557e-10
7.96152e-10
6.74018e-10
3.98397e-10
1.37539e-10
3.7901e-11
1.15894e-11
4.53041e-12
2.03151e-12
7.9348e-13
2.67669e-13
9.07162e-14
3.51993e-14
1.494e-14
5.81458e-15
1.65608e-15
2.7666e-16
2.87939e-17
3.57944e-17
2.24822e-09
1.42275e-09
8.41395e-10
6.26333e-10
6.36056e-10
7.22587e-10
5.12482e-10
2.34414e-10
7.65065e-11
1.7526e-11
4.94856e-12
1.99278e-12
9.07486e-13
3.54882e-13
1.11186e-13
3.19053e-14
1.03729e-14
4.07401e-15
1.85211e-15
7.21447e-16
1.71071e-16
1.57535e-17
8.93608e-18
2.139e-09
1.49501e-09
9.06912e-10
6.64185e-10
7.12126e-10
5.80141e-10
3.25416e-10
1.23434e-10
3.30138e-11
5.67257e-12
1.56805e-12
6.97019e-13
3.41348e-13
1.32725e-13
3.93534e-14
9.45726e-15
2.30053e-15
7.10164e-16
3.34774e-16
2.04562e-16
6.54847e-17
8.67806e-18
2.24802e-18
2.01349e-09
1.45657e-09
9.25578e-10
8.11395e-10
6.97208e-10
4.00774e-10
1.59858e-10
4.33687e-11
7.71224e-12
9.90008e-13
3.22517e-13
1.59933e-13
8.68417e-14
3.49758e-14
9.83484e-15
2.00944e-15
3.35585e-16
6.67313e-17
3.53733e-17
3.53696e-17
1.92035e-17
4.32857e-18
7.54315e-19
2.21958e-09
1.60003e-09
1.06091e-09
7.90829e-10
3.95795e-10
1.50406e-10
3.96363e-11
6.7681e-12
6.86982e-13
5.87626e-14
3.25491e-14
1.88048e-14
1.17595e-14
4.93263e-15
1.35443e-15
2.27843e-16
2.54059e-17
2.96238e-18
2.23361e-18
4.1397e-18
4.74002e-18
1.7878e-18
3.05829e-19
0.0292302
0.0893283
0.0923272
0.0918586
0.000142795
6.6967e-05
7.31089e-05
7.90811e-05
6.13347e-05
6.19289e-05
0.000490908
0.00210345
6.03627e-05
0.000386087
0.00169084
0.0022942
5.98329e-05
0.000250049
0.00164827
0.00151652
5.93049e-05
0.000104668
0.000145958
0.000760153
5.80044e-05
4.51025e-05
4.44376e-05
0.00073959
0.000130398
4.45929e-05
0.000620415
0.00493676
0.00245655
0.00305488
0.00556432
0.00558807
0.00257543
0.00299626
0.00442764
0.00458958
0.00127062
0.000699607
0.000371985
0.000245885
6.39988e-06
3.37271e-10
2.67151e-10
3.35656e-10
1.20579e-09
4.71681e-09
7.10328e-09
3.55602e-09
1.12818e-09
8.26009e-09
4.78508e-09
1.9683e-09
2.74767e-21
-1.34917e-10
5.46551e-14
2.80391e-09
1.05737e-06
1.06838e-06
3.95978e-07
1.86643e-09
1.88917e-06
1.88486e-06
7.80305e-07
5.88307e-09
1.01572e-06
9.18808e-07
3.85434e-07
3.8891e-08
2.89233e-07
1.20375e-07
3.42544e-08
2.86204e-08
3.73606e-08
8.36287e-10
5.5539e-09
8.31488e-09
3.18532e-09
8.33431e-10
1.71515e-09
1.96657e-09
4.70047e-10
4.6515e-10
5.56619e-10
5.88958e-10
1.36834e-10
1.60143e-10
1.9735e-10
2.00699e-10
5.17298e-11
6.19614e-11
6.72623e-11
7.25756e-11
1.84309e-11
1.99874e-11
2.61723e-11
2.77325e-11
7.48731e-12
8.88414e-12
9.77926e-12
1.14345e-11
2.7964e-12
3.22487e-12
4.2686e-12
4.81088e-12
1.14967e-12
1.39965e-12
1.61606e-12
2.03656e-12
4.23527e-13
5.07159e-13
7.38396e-13
8.45394e-13
1.70155e-13
2.40768e-13
2.90914e-13
3.98369e-13
7.14822e-14
9.68526e-14
1.6291e-13
2.04629e-13
3.83552e-14
5.85542e-14
8.27071e-14
1.34509e-13
1.75361e-14
2.65775e-14
5.22371e-14
6.62948e-14
1.03729e-14
1.64077e-14
2.69438e-14
5.19675e-14
3.57407e-15
6.22979e-15
1.45838e-14
1.94724e-14
1.56649e-15
2.90673e-15
5.17726e-15
1.1082e-14
4.64563e-16
8.45512e-16
2.2932e-15
3.72219e-15
1.3947e-16
2.66139e-16
4.8001e-16
1.14366e-15
2.86148e-17
5.00289e-17
1.40794e-16
2.36778e-16
5.87262e-18
1.14438e-17
1.95088e-17
5.35848e-17
1.0766e-18
1.94607e-18
4.40416e-18
8.98307e-18
2.03292e-19
3.89302e-19
7.72492e-19
1.35624e-18
0.0625898
0.0393332
0.000984876
0.00071184
0.00372422
0.00291072
0.00363753
0.0181063
0.0224461
0.0224486
0.0197271
0.0200634
0.0200294
0.0122036
0.00580035
0.00517769
0.00449504
0.00567644
0.00435004
0.000120886
0.00114241
0.000756436
0.00755132
0.0110583
0.0110572
0.00445426
0.0100656
0.0127606
0.0164096
0.020102
0.0200576
0.0148577
0.0105298
0.00652572
0.00539785
0.0108929
0.0107724
0.00934263
0.00159022
0.00154811
0.00504721
0.011057
0.0110592
0.00755868
0.000698807
0.000368254
0.00267552
0.00339546
0.0122481
0.0141759
0.00656805
0.00759198
0.0124491
0.0124074
0.0111811
0.00966749
0.0100086
0.00238701
0.000721784
0.00418964
0.00697699
0.0103181
0.00548892
0.000392339
0.00036549
0.00187349
0.00592719
0.00306191
0.00306594
0.00321852
0.0041763
0.0051332
0.00462472
0.00474285
0.00370017
0.00498739
0.00312895
0.000427047
0.000522258
0.000545782
0.00173195
0.000738731
0.000358166
0.000362771
0.000822981
0.00142306
0.000785233
0.00135537
0.00102879
0.00104436
0.000752257
0.000754538
0.00162865
0.00314592
0.00317456
0.00422379
0.000507007
0.000274707
0.000154815
7.28698e-05
7.29114e-05
7.2911e-05
0.000346613
0.00051186
0.000456629
0.000456693
0.00045763
0.000548388
0.000748274
0.000750133
0.00142078
0.00489602
0.00536213
0.00194039
0.00420598
0.000653415
0.000106061
7.29128e-05
7.287e-05
7.30014e-05
0.00055292
0.00215615
0.00294119
0.00269918
0.00156972
0.00149488
0.00167963
0.00251584
0.00434335
0.00764122
0.0078549
0.00566561
0.00084367
0.00558798
0.00319977
0.00012471
7.28502e-05
0.000566986
0.00236276
0.00294037
0.00294122
0.002942
0.00298824
0.0030088
0.00309614
0.00360432
0.00542587
0.00541643
0.00520362
0.00386948
0.00479133
0.00258211
0.00558793
0.00523083
0.00189238
0.000383188
0.00123124
0.00228754
0.00219029
0.00169168
0.00105392
0.000628679
0.00085874
0.00158471
0.00195268
0.00171921
0.000945549
8.70349e-05
4.3739e-07
5.63914e-07
0.000478212
0.00344122
0.00148759
0.000850329
0.000434557
0.00022393
1.89124e-05
9.10106e-06
1.69919e-06
9.34317e-08
9.2928e-08
5.26528e-06
4.35237e-06
7.11912e-06
3.25871e-08
3.07013e-08
2.24933e-08
7.95571e-07
1.4325e-06
5.90348e-07
4.08597e-05
5.77548e-08
4.51971e-08
3.39566e-06
1.58771e-07
1.59111e-07
7.08124e-07
2.68205e-06
4.46571e-07
9.38044e-08
2.36654e-07
1.82956e-07
9.31592e-07
7.57867e-07
1.47189e-06
3.90614e-06
8.11088e-06
8.37469e-06
1.61384e-06
3.51095e-10
6.78479e-09
8.22195e-08
1.20922e-07
3.57516e-07
2.87e-06
3.5681e-06
3.1847e-06
9.36106e-08
9.32091e-08
4.53691e-07
3.13569e-06
3.28761e-06
5.142e-06
1.34468e-05
1.93011e-05
1.84905e-05
1.85166e-05
1.20642e-05
3.40986e-10
2.44061e-08
2.51565e-07
1.39348e-06
5.44619e-06
4.36191e-06
3.13957e-07
3.26253e-07
2.09579e-07
1.01945e-07
7.13234e-07
1.23119e-06
1.3103e-06
5.92342e-06
1.91393e-05
1.92684e-05
1.72954e-05
6.32935e-06
7.2612e-06
1.82886e-09
1.82596e-08
1.65738e-07
1.41136e-06
8.26058e-06
8.26073e-06
1.31566e-06
5.94156e-09
2.7372e-08
1.03496e-07
1.33027e-07
8.63811e-08
2.14216e-07
1.24366e-06
3.6365e-06
8.54504e-06
1.30877e-06
2.95861e-07
3.21744e-07
1.86673e-09
1.76106e-08
1.73377e-08
5.28019e-07
4.08749e-06
8.21886e-06
3.61333e-06
5.94833e-09
6.75907e-09
1.17745e-08
6.19067e-09
6.23637e-09
6.24822e-09
1.52265e-07
4.626e-08
4.10391e-08
4.27732e-08
2.95933e-07
3.10398e-06
1.87082e-09
1.00931e-08
1.01417e-08
1.91966e-07
9.98422e-07
3.55255e-06
3.64242e-06
1.65652e-06
3.05706e-08
6.19231e-09
6.23583e-09
6.24501e-09
6.24206e-09
6.24221e-09
9.67496e-09
3.9727e-08
9.37217e-08
3.92938e-07
5.07298e-06
1.38982e-08
1.0986e-08
1.23814e-08
4.22376e-08
4.18855e-08
1.3141e-07
2.02552e-06
2.08454e-06
2.03974e-06
1.83291e-06
7.68601e-07
1.13165e-07
2.60825e-08
9.26123e-09
9.03429e-09
3.95726e-08
4.11316e-08
4.19687e-06
5.05532e-06
2.50953e-08
8.16309e-09
7.84011e-09
1.97427e-08
6.10642e-08
6.54895e-08
4.05019e-09
1.03554e-06
2.28091e-06
2.28294e-06
2.14026e-06
7.47391e-07
7.64074e-07
1.09577e-07
6.20169e-09
9.04873e-10
6.10751e-07
7.88405e-06
5.1098e-06
1.20532e-08
5.73174e-09
2.47027e-09
5.49132e-09
5.85523e-08
2.90166e-08
8.14286e-10
8.04725e-10
1.53048e-06
2.28382e-06
2.28459e-06
1.36258e-06
7.21168e-07
2.16899e-07
5.77196e-08
6.79504e-10
4.40368e-06
7.88717e-06
6.38318e-07
4.73256e-09
2.57322e-09
1.66939e-09
1.0745e-09
8.44148e-09
2.52163e-09
8.13007e-10
8.19792e-10
4.77236e-07
1.8416e-06
1.8895e-06
8.19587e-07
3.82314e-07
7.88212e-08
8.72914e-08
2.06126e-09
6.46169e-06
6.31585e-06
1.44863e-07
1.00689e-09
1.45898e-09
1.20846e-09
7.36162e-10
7.34477e-10
2.55934e-09
1.81354e-08
7.18063e-08
1.80418e-07
1.53368e-07
1.06153e-07
2.31442e-07
1.69222e-07
7.71789e-08
8.35999e-08
6.59713e-10
6.49512e-06
1.8468e-06
7.15616e-08
4.52593e-10
4.51193e-10
5.54862e-10
6.1416e-10
1.4385e-09
6.15289e-09
1.63764e-08
3.99827e-08
8.61517e-09
1.91383e-09
1.83101e-09
8.89021e-09
7.95574e-08
8.04922e-08
1.61178e-08
8.90233e-10
6.22437e-06
1.65271e-06
4.481e-08
1.88292e-10
1.74074e-10
1.88562e-10
3.08377e-10
7.04395e-10
1.82553e-09
1.65667e-09
6.65917e-10
6.01296e-10
1.91254e-09
2.28948e-09
3.18974e-09
2.52966e-08
3.81708e-08
1.45016e-09
6.11449e-07
4.08021e-06
1.36699e-06
2.51845e-08
7.3409e-11
7.92498e-11
8.95313e-11
1.24193e-10
2.02029e-10
1.82973e-10
3.10777e-10
4.30015e-10
6.00062e-10
1.48869e-09
2.08998e-09
5.1275e-09
8.18882e-09
2.14373e-08
1.5852e-09
9.32661e-07
7.31322e-07
2.3748e-07
2.53541e-08
2.99121e-11
3.48365e-11
4.22713e-11
5.73088e-11
8.55384e-11
1.24656e-10
2.15539e-10
3.18049e-10
4.57901e-10
9.18685e-10
1.43151e-09
3.83938e-09
3.10313e-09
6.29737e-09
1.28133e-09
2.12931e-07
1.19457e-08
4.6515e-08
1.99467e-08
1.26282e-11
1.63407e-11
2.20931e-11
3.24005e-11
5.12415e-11
8.2882e-11
1.3705e-10
2.14352e-10
3.29134e-10
5.75439e-10
9.94408e-10
2.3762e-09
2.66024e-09
1.83941e-09
1.04988e-08
7.78541e-09
7.75865e-09
1.05001e-08
9.44243e-09
5.67248e-12
7.81865e-12
1.14196e-11
1.78416e-11
2.95719e-11
4.9914e-11
8.42859e-11
1.39365e-10
2.26967e-10
3.83319e-10
7.05898e-10
1.61345e-09
2.38054e-09
1.83342e-09
1.41494e-08
1.27751e-08
7.84441e-09
7.43373e-09
7.44604e-09
2.38524e-12
3.55713e-12
5.47556e-12
8.91033e-12
1.5221e-11
2.63401e-11
4.59129e-11
7.93483e-11
1.36688e-10
2.39702e-10
4.57753e-10
1.03686e-09
1.91152e-09
1.82849e-09
1.41328e-08
9.84067e-09
6.99296e-09
6.95882e-09
1.03817e-08
1.06907e-12
1.64478e-12
2.61473e-12
4.33193e-12
7.40692e-12
1.29666e-11
2.30733e-11
4.12937e-11
7.42103e-11
1.35702e-10
2.61616e-10
5.83183e-10
1.30683e-09
1.38723e-09
8.72688e-09
8.48393e-09
6.95248e-09
6.95401e-09
2.23297e-08
5.05753e-13
8.34624e-13
1.41321e-12
2.38131e-12
4.05167e-12
6.97906e-12
1.24441e-11
2.27628e-11
4.34644e-11
8.19328e-11
1.51899e-10
2.91532e-10
4.98917e-10
5.39006e-10
1.9076e-09
3.53787e-08
6.93987e-09
6.94282e-09
1.33452e-08
2.85474e-13
5.17587e-13
9.34341e-13
1.57709e-12
2.75346e-12
4.61715e-12
7.83216e-12
1.33439e-11
2.25768e-11
4.14854e-11
8.38946e-11
1.70192e-10
2.35249e-10
2.72792e-10
5.73396e-10
4.5029e-08
1.31407e-07
1.52996e-08
7.24984e-08
1.78495e-13
3.66981e-13
6.83516e-13
1.26085e-12
2.22675e-12
3.81736e-12
6.40435e-12
1.03692e-11
1.66057e-11
2.71829e-11
4.85497e-11
9.94805e-11
1.89595e-10
2.3961e-10
4.75754e-10
3.68281e-08
1.71835e-07
1.68067e-07
1.45664e-07
1.3279e-13
2.55378e-13
5.1269e-13
9.94146e-13
1.86145e-12
3.40502e-12
6.00227e-12
1.02223e-11
1.67486e-11
2.67499e-11
4.21235e-11
6.96088e-11
1.40576e-10
2.41442e-10
9.02402e-10
1.71855e-08
1.73515e-07
1.76082e-07
1.76179e-07
7.54837e-14
1.66494e-13
3.55808e-13
7.35277e-13
1.47279e-12
2.86497e-12
5.40217e-12
9.82199e-12
1.71862e-11
2.87543e-11
4.55716e-11
7.28192e-11
1.32854e-10
2.45431e-10
1.01717e-09
1.0519e-08
4.88901e-08
1.76519e-07
1.41532e-07
4.28562e-14
9.3561e-14
2.13971e-13
4.76585e-13
1.03759e-12
2.19884e-12
4.49701e-12
8.80977e-12
1.6506e-11
3.00396e-11
5.21646e-11
8.74393e-11
1.49697e-10
2.87542e-10
7.69563e-10
4.07066e-09
2.48682e-08
1.13088e-07
1.21759e-08
1.77312e-14
4.41302e-14
1.08429e-13
2.6333e-13
6.31778e-13
1.48236e-12
3.35529e-12
7.24611e-12
1.48658e-11
2.94337e-11
5.66996e-11
1.05148e-10
1.77495e-10
3.19878e-10
6.36298e-10
1.74366e-09
4.92945e-09
5.49722e-09
1.3861e-09
6.4358e-15
1.71057e-14
4.54449e-14
1.21719e-13
3.26235e-13
8.5998e-13
2.18748e-12
5.28516e-12
1.2017e-11
2.57593e-11
5.31663e-11
1.08866e-10
2.06763e-10
3.43008e-10
6.11657e-10
1.10737e-09
1.31498e-09
1.31932e-09
1.38372e-09
1.93739e-15
5.38457e-15
1.54305e-14
4.58971e-14
1.39749e-13
4.21685e-13
1.22049e-12
3.31851e-12
8.39381e-12
1.97236e-11
4.33787e-11
9.43969e-11
1.98627e-10
3.618e-10
5.97602e-10
1.04679e-09
1.40122e-09
1.45106e-09
1.34045e-09
4.71259e-16
1.35949e-15
4.1554e-15
1.38645e-14
4.82882e-14
1.68164e-13
5.61651e-13
1.73038e-12
4.89213e-12
1.26717e-11
3.04918e-11
6.89404e-11
1.58272e-10
3.30231e-10
5.77607e-10
9.47293e-10
1.41915e-09
1.46936e-09
1.12805e-09
9.38378e-17
2.70731e-16
8.86765e-16
3.30908e-15
1.329e-14
5.39037e-14
2.09027e-13
7.47047e-13
2.4168e-12
7.04784e-12
1.86245e-11
4.4981e-11
1.06504e-10
2.47417e-10
5.01902e-10
8.47144e-10
1.20026e-09
1.40365e-09
9.13726e-10
1.57227e-17
4.37371e-17
1.44354e-16
5.73704e-16
2.57001e-15
1.19084e-14
5.34069e-14
2.21819e-13
8.33231e-13
2.80912e-12
8.50313e-12
2.32232e-11
5.91639e-11
1.48783e-10
3.50771e-10
6.79954e-10
1.0327e-09
1.14353e-09
6.48694e-10
2.2025e-18
5.42484e-18
1.61755e-17
6.30796e-17
2.91721e-16
1.47254e-15
7.49654e-15
3.59849e-14
1.58321e-13
6.3589e-13
2.31793e-12
7.67632e-12
2.30477e-11
6.5034e-11
1.6956e-10
3.66922e-10
6.23045e-10
6.74047e-10
2.84884e-10
)
;

boundaryField
{
    leftWall
    {
        type            zeroGradient;
    }
    rightWall
    {
        type            zeroGradient;
    }
    lowerWall
    {
        type            zeroGradient;
    }
    atmosphere
    {
        type            inletOutlet;
        inletValue      uniform 0;
        value           nonuniform List<scalar> 
46
(
2.21958e-09
1.60003e-09
1.06091e-09
0
0
0
0
0
0
0
0
0
0
0
0
0
0
0
0
0
4.74002e-18
1.7878e-18
3.05829e-19
2.03292e-19
3.89303e-19
7.72492e-19
1.35624e-18
2.2025e-18
5.42484e-18
1.61755e-17
6.30796e-17
2.91721e-16
1.47254e-15
7.49654e-15
3.59849e-14
1.58321e-13
6.3589e-13
2.31793e-12
7.67632e-12
2.30477e-11
6.5034e-11
1.6956e-10
3.66922e-10
6.23045e-10
6.74047e-10
2.84884e-10
)
;
    }
    defaultFaces
    {
        type            empty;
    }
}


// ************************************************************************* //
