/*--------------------------------*- C++ -*----------------------------------*\
| =========                 |                                                 |
| \\      /  F ield         | OpenFOAM: The Open Source CFD Toolbox           |
|  \\    /   O peration     | Version:  2312                                  |
|   \\  /    A nd           | Website:  www.openfoam.com                      |
|    \\/     M anipulation  |                                                 |
\*---------------------------------------------------------------------------*/
FoamFile
{
    version     2.0;
    format      ascii;
    arch        "LSB;label=32;scalar=64";
    class       volScalarField;
    location    "3.8";
    object      alphas;
}
// * * * * * * * * * * * * * * * * * * * * * * * * * * * * * * * * * * * * * //

dimensions      [0 0 0 0 0 0 0];

internalField   nonuniform List<scalar> 
2268
(
2
2
2
2
2
2
2
2
2
2
2
2
2
2
2
2
2
2
2
2
1.99999
1.99995
1.99995
2
2
2
2
2
2
2
2
2
2
2
2
2
2
2
2
2
2
2
2
2
1.99998
1.99995
2
2
2
2
2
2
2
2
2
2
2
2
2
2
2
2
2
2
2
2
2
2
2
1.99989
1.99992
2.00001
2
2
2
2
2
2
2
2
2
2
2
2
2
2
2
1.99999
2
2
2
2
1.85128
1.85399
1.86652
1.88469
1.90742
1.934
1.9617
1.98898
1.99989
2.00001
2.00003
2.00006
2.00001
2
1.99998
1.99999
1.99995
1.99997
1.99993
1.99997
2
2
2
0.401251
0.416405
0.4388
0.475128
0.526632
0.594614
0.676102
0.773859
0.906627
1.0703
1.2619
1.48769
1.7218
1.88441
1.98818
1.99971
1.99863
1.99896
2
2
2
2.00009
2.00223
0.00196679
0.00418766
0.00623195
0.00613261
0.00573464
0.00393541
0.000960404
0.000709167
0.00198886
0.0113656
0.0375547
0.105186
0.285966
0.587784
0.904027
1.27276
1.60383
1.78459
1.84917
1.91192
1.92843
1.93994
1.9424
0.000988412
0.000992686
0.00182199
0.0013926
0.000942583
0.000929049
0.000944269
0.000926547
0.00046806
0.00039699
0.000471554
0.00110734
0.0212156
0.023003
0.0258738
0.0403631
0.112439
0.373246
0.654065
0.797381
0.789335
0.783203
0.808278
1.94321
1.9477
1.95008
1.96084
1.97025
1.96848
1.95788
1.94981
1.94749
1.94834
1.94821
1.94809
1.94808
1.95021
1.957
1.96341
1.97052
1.96463
1.96432
1.82581
1.88727
1.90401
1.9093
1.92042
1.94075
1.95066
1.95698
1.95139
1.94373
1.94924
1.9644
1.96483
1.96416
1.9655
1.96576
1.97779
1.97993
1.97072
0.810789
0.938242
0.947332
1.05083
1.19181
1.28595
1.33191
1.28051
1.25176
1.3895
1.54291
1.61418
1.65459
1.71365
1.78319
1.76483
1.70905
1.66933
1.62818
0.351341
0.205082
0.0733959
0.129537
0.388341
0.439831
0.429182
0.185832
0.0822364
0.198315
0.785078
0.940047
1.05949
1.14313
1.3256
1.44157
1.4622
1.46671
1.47733
0.326091
0.0435633
0.0518152
0.0525061
0.0731193
0.13421
0.0687415
0.048709
0.104686
0.0875102
0.426784
0.291536
0.174596
0.161359
0.279332
0.553192
0.623521
0.702979
0.742861
0.0878657
0.0413735
0.048395
0.0591007
0.0526929
0.0519637
0.0511302
0.0587011
0.389817
0.194144
0.312584
0.267209
0.129799
0.124673
0.124919
0.149527
0.1379
0.14949
0.546763
0.159476
0.125207
0.0395599
0.0597809
0.0686592
0.0662508
0.0708619
0.282897
0.890546
0.583135
0.513709
0.377538
0.340391
0.136771
0.131181
0.199196
0.200431
0.111592
0.533266
0.211356
0.186703
0.128701
0.0578491
0.0712746
0.0713774
0.122097
0.633686
0.934509
0.570922
0.568866
0.604479
0.504151
0.335896
0.208045
0.20367
0.203677
0.145879
0.162141
0.000961603
0.00096228
0.000962338
0.000915725
0.000896416
0.000893562
0.000935594
0.000937232
0.000636432
0.000377432
0.0132642
0.0458806
0.046009
0.0456847
0.0218274
0.0229591
0.0624483
0.188274
0.18358
0.152876
0.10895
0.0219863
0.0225305
0.00115991
0.00368505
0.0022555
0.00100105
0.000922322
0.000862163
0.000898003
0.000924542
0.000791466
0.000693289
0.000712076
0.00420934
0.0403705
0.0471669
0.0457825
0.0285102
0.0369699
0.0684459
0.0567883
0.0416841
0.0414535
0.0233932
0.0204664
0.00246102
0.0123332
0.0365858
0.0419971
0.0519797
0.0532682
0.046118
0.0616926
0.062049
0.0314116
0.0127427
0.0148367
0.0165453
0.0144281
0.0183309
0.023936
0.0390443
0.0497435
0.0393566
0.0321849
0.0296484
0.0376211
0.0808651
0.135089
0.185003
0.285364
0.454292
0.512317
0.461855
0.381345
0.332594
0.341906
0.371557
0.375255
0.374403
0.372513
0.323499
0.264989
0.270646
0.344554
0.327302
0.109525
0.0337835
0.0899414
0.193708
0.727984
0.725291
0.776199
0.916416
1.02166
1.03996
1.06065
1.05493
1.02987
1.03551
1.06429
1.0666
1.0436
1.06903
1.08096
1.03268
1.04507
1.05665
0.979393
0.606187
0.48265
0.655876
0.947609
1.01476
1.12142
1.08765
1.01461
1.00054
1.0005
1.00049
1.0005
1.00775
1.04771
1.02117
1.00078
1.00063
1.00068
1.01617
1.16148
1.12646
1.03118
1.01034
1.00939
1.01127
1.0212
1.0111
1.00182
1.05203
1.00034
1.00022
1.0001
0.999952
0.999697
0.999581
0.99946
0.999328
0.999295
0.999542
0.999816
1.00011
1.00045
1.00596
1.0129
1.00433
1.00167
1.00139
1.0017
1.00161
1.00175
1.00051
1.55443
1.60715
1.63478
1.64686
1.65542
1.66254
1.65924
1.64443
1.62035
1.58243
1.5151
1.40706
1.2624
1.11512
1.03489
1.01193
1.04299
1.11498
1.07216
1.00289
1.00105
1.0002
0.999974
2.96237
2.967
2.97764
2.98294
2.98647
2.9889
2.9861
2.97716
2.96432
2.9453
2.91489
2.86428
2.78586
2.65492
2.41837
1.98818
1.39673
1.11088
0.983469
0.995538
0.999915
1.00018
1.07367
3
3
3
3
3
3
3
3
3
3
2.99947
2.99922
2.99973
2.99949
2.99966
2.99576
2.94219
2.85327
2.51545
1.60137
1.09402
1.18096
1.96783
3
3
3
3
3
3
3
3
3
3
3
2.99999
2.99999
2.99999
2.99999
2.99998
2.99935
2.99935
2.99553
2.8714
2.59504
2.59075
2.89821
3
3
3
2.99999
2.99999
3
3
3
3
3
2.99995
2.99993
2.99994
2.99998
2.99999
2.99999
2.99999
2.99999
2.99999
2.99185
2.95053
2.96887
2.99805
3
3
3
2.99999
2.99999
3
3
3
3
2.99999
2.99994
2.99995
3
3
3
2.99999
2.99999
2.99999
3
2.99983
2.99673
2.99596
2.99986
3
3
3
2.99999
3
3
2.99997
2.99994
2.99998
3
3
3
3
3
3
2.99999
2.99999
3
3
3
3
3
3
3
3
3
3
3
2.99999
2.9999
2.99985
2.99987
2.99994
2.99992
2.99992
2.99998
3
3
3
3
2.99999
3
3
3
3
3
3
3
3
3
3
2.99999
2.9999
2.99985
2.99985
2.99986
2.99984
2.99984
2.99986
2.99995
2.99996
2.99998
2.99998
2.99994
2.99991
2.99991
2.99992
2.99992
2.99989
3
3
3
3
3
3
2.99999
2.99994
2.99994
2.99995
2.99991
2.99987
2.99985
2.99987
2.99994
2.99994
2.99993
2.99994
2.99992
2.99991
2.99991
2.9999
2.9999
3
3
3
3
3
3
3
3
3
3
3
2.99999
2.99997
2.99999
2.99998
2.99998
2.99998
2.99999
2.99999
2.99998
2.99999
2.99998
2.99999
3
3
3
3
3
3
3
3
3
3
3
3
3
3
3
3
3
3
3
3
3
3
3
3
3
3
3
3
3
3
3
3
3
3
3
3
3
3
3
3
3
3
3
3
3
3
3
3
3
3
3
3
3
3
3
3
3
3
3
3
3
3
3
3
3
3
3
3
3
3
3
3
3
3
3
3
3
3
3
3
3
3
3
3
3
3
3
3
3
3
3
3
3
3
3
3
3
3
3
3
3
3
3
3
3
3
3
3
3
3
3
3
3
3
3
3
3
3
3
3
3
3
3
3
3
3
3
3
3
3
3
3
3
3
3
3
3
3
3
3
3
3
3
3
3
3
3
3
3
3
3
3
3
3
3
3
3
3
3
3
3
3
3
3
3
3
3
3
3
3
3
3
3
3
3
3
3
3
3
3
3
3
3
3
3
3
3
3
3
3
3
3
3
3
3
3
3
3
3
3
3
3
3
3
3
3
3
3
3
3
3
3
3
3
3
3
3
3
3
3
3
3
3
3
3
3
3
3
3
3
3
3
3
3
3
3
3
3
3
3
3
3
3
3
3
3
3
3
3
3
3
3
3
3
3
3
3
3
3
3
3
3
3
3
3
3
3
3
3
3
3
3
3
3
3
3
3
3
3
3
3
3
3
3
3
3
3
3
3
3
3
3
3
3
3
3
3
3
3
3
3
3
3
3
3
3
3
3
3
3
3
3
3
3
3
3
3
3
3
3
3
3
3
3
3
3
3
3
3
3
3
3
3
3
3
3
3
3
3
3
3
3
3
3
3
3
3
3
3
3
3
3
3
3
3
3
3
3
3
3
3
3
3
3
3
3
3
3
3
3
3
3
3
3
3
3
3
3
3
3
3
3
3
3
3
3
3
3
3
3
3
3
3
3
3
3
3
3
3
3
3
3
3
3
3
3
3
3
3
3
3
3
3
3
3
3
3
3
3
3
3
3
3
3
3
3
3
3
3
3
3
3
3
3
3
3
3
3
3
3
3
3
3
3
3
3
3
3
3
3
3
3
3
3
3
3
3
3
3
3
3
3
3
3
3
3
3
3
3
3
3
3
3
3
3
3
3
3
3
3
3
3
3
3
3
3
3
3
3
3
3
3
3
3
3
3
3
3
3
3
3
3
3
3
3
3
3
3
3
3
3
3
3
3
3
3
3
3
3
3
3
3
3
3
3
3
3
3
3
3
3
3
3
3
3
3
3
3
3
3
3
3
3
3
3
3
3
3
3
3
3
3
0.0698706
0.236246
0.304336
0.327827
0.0182717
0.0209454
0.14232
0.288368
0.309593
0.685271
0.745909
0.81264
0.994652
1.05182
1.06711
1.00695
1.00555
1.01455
1.004
1.00033
1.00148
1.00209
0.997167
0.981534
0.999219
0.999201
0.985833
0.980512
0.998837
0.985825
0.980393
1.01715
1.30079
1.52981
1.85421
2.20472
2.68747
2.83361
2.94151
2.97241
2.95441
2.96603
2.99636
2.99975
2.99855
2.99946
3
3
3
3
3
3
3
3
3
3
2.99998
2.99998
2.99999
3
2.99989
2.99992
2.99998
3
2.99991
2.99994
2.99999
3
2.99999
3
3
3
3
3
3
3
3
3
3
3
3
3
3
3
3
3
3
3
3
3
3
3
3
3
3
3
3
3
3
3
3
3
3
3
3
3
3
3
3
3
3
3
3
3
3
3
3
3
3
3
3
3
3
3
3
3
3
3
3
3
3
3
3
3
3
3
3
3
3
3
3
3
3
3
3
3
3
3
3
3
3
3
3
3
3
3
3
3
3
3
3
3
3
3
3
3
3
3
0.243969
0.208253
0.277554
0.251659
0.201366
0.194932
0.293707
0.894032
0.910298
0.574737
0.640738
0.755966
0.604825
0.352982
0.30133
0.20426
0.210942
0.15119
0.128771
0.327519
0.319566
0.549842
0.867005
0.734968
0.683288
0.851908
0.906945
1.00232
1.13851
1.15775
1.19339
1.03209
0.82395
0.816513
0.826897
0.82207
0.426653
0.219514
0.97979
0.966237
1.01055
1.05235
1.10537
1.16557
1.00712
0.894038
0.968334
1.04774
1.07055
1.02576
1.01978
1.06406
1.09979
1.06694
1.00237
0.978058
0.858108
1.00521
1.06035
1.01783
1.00801
1.17138
1.11999
0.961498
0.961366
1.12411
1.01716
1.00538
1.00801
1.01207
1.05005
1.09141
1.09429
1.05099
1.0046
1.00855
1.00312
1.00204
1.00154
1.00157
1.14091
1.15472
1.12478
1.28421
1.2474
1.02511
1.00255
1.00363
1.00395
1.00589
1.00616
1.10436
1.1267
1.00347
1.00355
1.00193
1.00116
1.00118
1.00124
1.02604
1.07107
1.02177
1.01454
1.02058
1.00678
0.994645
0.998742
1.00205
1.00299
1.00616
1.1218
1.20618
1.0404
1.00354
0.996058
1.00066
1.00007
0.999825
0.999255
1.00232
1.00553
1.0298
1.06104
1.10501
1.13842
1.15664
1.20287
1.3974
1.63207
1.80093
1.8566
2.00572
1.39097
1.15093
1.1094
1.0603
1.1303
1.2762
1.57198
1.97635
2.29239
2.42781
2.46479
2.46878
2.47748
2.56706
2.77416
2.87304
2.92165
2.93698
2.97562
2.98561
2.4731
2.54842
2.47937
2.57749
2.79953
2.98948
2.99563
2.99804
2.99894
2.99935
2.99914
2.99837
2.99693
2.99764
2.99869
2.99987
3
3
2.99948
2.98227
2.98983
2.9916
2.98619
2.99796
2.99995
2.99995
2.99994
2.99994
2.99999
2.99999
2.99999
2.99998
2.99999
3
3
3
2.99999
2.99999
2.99996
3
2.99963
2.99913
2.9999
2.99992
2.99992
2.99977
2.99975
2.99975
2.99982
2.99998
2.99998
2.99997
2.99995
2.99988
2.99974
2.99967
2.99984
3
3
3
3
2.99986
2.99966
2.99972
2.99975
2.99975
2.99973
2.99973
2.9999
2.99998
2.99997
2.9997
2.99947
2.99947
2.99947
2.99949
2.99999
2.99999
3
3
2.99983
2.99966
2.99967
2.99988
2.99996
2.99991
2.99983
2.99976
2.99978
2.99984
2.99967
2.99947
2.9995
2.99968
2.99957
2.99998
2.99998
3
2.99999
2.99989
2.99975
2.99984
2.99999
3
3
2.99998
2.9999
2.99965
2.99958
2.99959
2.99965
2.9999
2.99994
2.99994
2.99999
2.99999
2.99995
2.99995
2.99994
2.99995
2.99996
2.99994
2.99997
3
3
3
2.99997
2.99984
2.99958
2.99969
2.99993
2.99994
2.99994
3
3
2.99998
2.99994
2.9999
2.99993
2.99997
2.9999
2.99985
2.99985
2.99988
2.99993
2.99998
3
2.99989
2.99969
2.9998
2.99994
2.99984
3
3
3
2.99993
2.99989
2.99989
2.9999
2.99998
2.99991
2.99981
2.99977
2.99978
2.99989
3
2.99999
2.99971
2.99976
2.99994
2.99982
3
3
3
2.99999
2.9999
2.9999
2.9999
2.99999
3
2.99997
2.99978
2.99978
2.99979
2.99996
2.99998
2.99971
2.99976
2.9999
2.99982
3
3
3
3
2.99999
2.99996
2.99998
3
3
3
2.99982
2.99978
2.99978
2.9999
2.99998
2.99968
2.99968
2.99983
2.99995
3
3
3
3
3
3
3
3
3
3
2.99986
2.99978
2.99978
2.99993
2.99996
2.99967
2.99982
2.99995
3
3
3
3
3
3
3
3
3
3
3
2.99997
2.99987
2.9999
2.99998
2.99995
2.9998
2.99994
3
3
3
3
3
3
3
3
3
3
3
3
3
3
3
3
2.99998
2.99999
2.99999
3
3
3
3
3
3
3
3
3
3
3
3
3
3
3
3
3
3
3
3
3
3
3
3
3
3
3
3
3
3
3
3
3
3
3
3
3
3
3
3
3
3
3
3
3
3
3
3
3
3
3
3
3
3
3
3
3
3
3
3
3
3
3
3
3
3
3
3
3
3
3
3
3
3
3
3
3
3
3
3
3
3
3
3
3
3
3
3
3
3
3
3
3
3
3
3
3
3
3
3
3
3
3
3
3
3
3
3
3
3
3
3
3
3
3
3
3
3
3
3
3
3
3
3
3
3
3
3
3
3
3
3
3
3
2.99999
3
3
3
3
3
3
3
3
3
3
3
3
3
3
3
3
3
3
2.99999
3
3
3
3
3
3
3
3
3
3
3
3
3
3
3
3
3
3
2.99999
3
3
3
3
3
3
3
3
3
3
3
3
3
3
3
3
3
3
2.99999
3
3
3
3
3
3
3
3
3
3
3
3
3
3
2.99999
2.99999
3
3
3
3
3
3
3
3
3
3
3
3
3
3
3
3
3
2.99999
2.99999
2.99999
3
3
3
3
3
3
3
3
3
3
3
3
3
3
3
3
3
2.99999
2.99999
2.99999
2.99999
3
3
3
3
3
3
3
3
3
3
3
3
3
3
3
2.99999
2.99999
2.99999
3
3
3
3
3
3
3
3
3
3
3
3
3
3
3
3
3
3
3
3
3
3
3
3
3
3
3
3
3
3
3
3
3
3
3
3
3
3
3
3
3
3
3
3
3
3
3
3
3
3
3
3
3
3
3
3
3
3
3
3
3
3
3
3
3
3
3
3
3
3
3
3
3
3
3
3
3
3
3
3
3
3
3
3
3
3
3
3
3
3
3
3
3
3
3
3
3
3
3
3
3
3
3
3
3
3
3
3
3
3
3
3
3
3
3
)
;

boundaryField
{
    leftWall
    {
        type            calculated;
        value           nonuniform List<scalar> 
50
(
2
2
2
1.99989
1.85128
0.401251
0.00196679
0.000988412
0.000961603
0.00115991
0.00246102
0.135089
0.725291
1.12142
1.05203
1.55443
2.96237
3
3
3
3
3
3
3
3
3
3
3
3
3
3
3
3
3
3
3
3
3
3
3
3
3
3
3
3
3
3
3
3
3
)
;
    }
    rightWall
    {
        type            calculated;
        value           nonuniform List<scalar> 
50
(
1.96432
1.97072
1.62818
1.47733
0.742861
0.546763
0.533266
0.162141
0.128771
0.219514
0.858108
1.00855
1.00355
1.00354
1.39097
2.98561
2.99948
2.99999
2.99984
2.99949
2.99957
2.99994
2.99994
2.99984
2.99982
2.99982
2.99995
3
3
3
3
3
3
3
3
3
2.99999
2.99999
2.99999
2.99999
3
3
2.99999
3
3
3
3
3
3
3
)
;
    }
    lowerWall
    {
        type            calculated;
        value           nonuniform List<scalar> 
62
(
2
2
2
2
2
2
2
2
2
2
2
2
2
2
2
2
2
2
2
2
1.99999
1.99995
1.99995
1.99995
1.99995
2
2
2
2.00223
1.9424
0.808278
0.0698706
0.236246
0.304336
0.327827
1.94321
1.82581
0.810789
0.351341
0.326091
0.0878657
0.159476
0.211356
1.94321
1.9477
1.95008
1.96084
1.97025
1.96848
1.95788
1.94981
1.94749
1.94834
1.94821
1.94809
1.94808
1.95021
1.957
1.96341
1.97052
1.96463
1.96432
)
;
    }
    atmosphere
    {
        type            calculated;
        value           nonuniform List<scalar> 
46
(
3
3
3
3
3
3
3
3
3
3
3
3
3
3
3
3
3
3
3
3
3
3
3
3
3
3
3
3
3
3
3
3
3
3
3
3
3
3
3
3
3
3
3
3
3
3
)
;
    }
    defaultFaces
    {
        type            empty;
    }
}


// ************************************************************************* //
