/*--------------------------------*- C++ -*----------------------------------*\
| =========                 |                                                 |
| \\      /  F ield         | OpenFOAM: The Open Source CFD Toolbox           |
|  \\    /   O peration     | Version:  2312                                  |
|   \\  /    A nd           | Website:  www.openfoam.com                      |
|    \\/     M anipulation  |                                                 |
\*---------------------------------------------------------------------------*/
FoamFile
{
    version     2.0;
    format      ascii;
    arch        "LSB;label=32;scalar=64";
    class       volScalarField;
    location    "3.8";
    object      p;
}
// * * * * * * * * * * * * * * * * * * * * * * * * * * * * * * * * * * * * * //

dimensions      [1 -1 -2 0 0 0 0];

internalField   nonuniform List<scalar> 
2268
(
4619.14
4625.96
4640.66
4663.52
4694.93
4733.94
4782.27
4839.65
4907.28
4986.84
5080.2
5188.23
5309.3
5438.24
5568.72
5695.32
5814.15
5921.58
6014.02
6089.15
6145.69
6183.9
6203.04
3821.04
3827.87
3842.53
3865.32
3896.58
3935.84
3983.85
4040.87
4108.06
4187.16
4280.3
4388.74
4511.02
4641.44
4773.19
4900.75
5020.47
5128.42
5220.94
5295.8
5351.68
5389.07
5407.81
3021.69
3028.28
3042.59
3065.17
3096.35
3135.64
3183.21
3239.54
3305.83
3383.98
3476.57
3585.74
3710.56
3844.03
3978.36
4107.77
4229.15
4338.3
4431.05
4505.45
4560.03
4595.96
4614.28
2221.02
2226.99
2240.92
2263.31
2294.51
2333.84
2380.79
2436.06
2500.86
2577.28
2668.67
2778.66
2907.58
3045.9
3184.33
3316.48
3440.49
3551.38
3644.43
3718.13
3770.52
3804.23
3822.12
1446.15
1451.36
1462.44
1480.88
1507.48
1541.58
1582.46
1631.27
1692.15
1766.39
1856.3
1967.26
2102.6
2247.59
2391.17
2526.43
2652.51
2767.65
2860.58
2933.22
2982.38
3012.82
3030.4
972.201
973.791
977.808
985.122
996.416
1011.67
1030.48
1053.56
1084.39
1124.02
1174.26
1242.33
1343.59
1468.96
1602
1741.14
1876.57
1987
2078.8
2150.84
2194.92
2220.71
2240.31
840.249
839.302
839.076
839.381
840.298
842.405
845.56
850.023
855.689
862.787
871.487
883.685
906.53
950.029
1008.95
1082.52
1162.79
1252.52
1332.72
1395.88
1428.16
1446.66
1470.65
780.809
780.028
779.804
779.789
780.69
782.301
785.191
789.161
793.878
798.475
801.43
800.796
792.868
785.448
786.077
793.045
806.38
824.517
853.437
887.77
901.396
908.609
925.668
2327.21
2332.61
2343.36
2361.69
2391.76
2422.35
2438.22
2443.57
2453.96
2485.04
2545.32
2621.64
2701.04
2794.31
2889.34
2933.89
2931.23
2921.6
2928.61
1583.44
1590.78
1596.89
1613.47
1641.16
1666.98
1682.36
1685.06
1694.92
1726.36
1784.23
1856.58
1936.88
2029.15
2125.28
2170.79
2166.26
2153.33
2158.88
1094.93
1101.34
1101.18
1101.92
1104.18
1106.75
1107.66
1107
1109.52
1120.84
1166.49
1224.11
1289.32
1358.93
1436.02
1489.82
1500.33
1502.72
1517.83
943.523
944.099
939.134
927.05
910.393
896.869
885.617
878.923
873.241
862.851
865.648
888.178
912.832
935.569
967.098
1011.86
1037.89
1043.57
1063.16
892.877
887.852
879.771
868.355
856.917
844.205
831.965
820.426
809.634
793.063
775.419
775.461
773.099
770.859
770.486
783.555
796.478
797.544
799.443
837.52
828.223
818.153
805.383
794.829
783.325
769.092
757.694
740.042
726.172
722.098
722.353
718.119
713.197
708.059
707.497
711.552
716.547
713.289
782.385
774.607
757.334
743.1
731.674
719.733
705.951
694.735
677.089
670.799
668.52
668.913
662.366
655.691
650.082
651.018
655.005
660.826
666.347
706.501
717.986
695.973
682.006
672.717
661.022
647.347
634.243
623.893
624.032
621.755
614.24
604.513
596.599
591.127
594.059
598.834
605.071
614.282
687.156
686.098
685.65
685.431
686.071
687.636
690.246
693.674
697.533
701.388
704.059
704.756
702.016
698.156
696.061
694.186
688.339
682.874
684.231
689.679
692.01
689.518
685.888
561.388
559.666
557.861
556.508
556.209
557.515
560.057
563.381
567.085
570.64
573.758
576.191
576.837
576.391
576.212
576.988
577.28
574.817
573.955
574.215
571.136
562.274
548.793
435.306
433.485
430.464
426.806
425.232
425.974
428.877
432.701
436.137
439.082
441.795
444.403
446.754
449.278
452.498
456.024
459.548
462.109
464.82
464.946
461.313
451.893
435.914
313.431
311.836
309.647
305.904
304.364
304.375
306.376
309.91
313.015
315.711
318.357
320.968
323.72
327.725
332.915
339.356
345.904
351.961
357.913
359.734
356.259
348.565
340.285
213.48
215.033
216.07
216.618
216.514
216.406
216.846
218.209
220.369
223.681
227.664
231.436
235.089
239.029
243.059
249.087
256.039
261.597
266.48
270.242
271.118
270.282
271.906
141.669
143.537
146.685
148.527
148.943
149.286
149.777
150.606
152.5
155.849
160.207
164.877
169.837
174.67
179.496
184.547
190.912
196.716
201.694
205.5
209.383
213.055
214.344
79.0583
79.4572
80.0831
80.5914
80.7317
80.837
81.2263
82.16
84.0701
86.9737
91.264
96.8667
103.265
110.174
117.282
124.221
131.406
138.545
145.414
153.551
159.972
162.917
161.059
23.1959
22.8866
22.6596
22.5872
22.3823
22.2126
22.2665
22.5027
23.1943
24.794
27.6986
32.141
37.9162
45.0626
53.8843
64.0711
75.774
86.4596
95.9407
106.103
114.198
116.621
111.206
-0.714354
-0.679773
-0.647516
-0.61366
-0.66451
-0.708221
-0.687468
-0.665176
-0.564929
-0.223858
0.426046
1.51953
3.16933
5.456
8.50728
14.5479
24.094
32.2749
43.2135
58.967
71.6776
75.0582
65.4829
-1.59552
-1.59413
-1.59615
-1.59831
-1.59958
-1.60361
-1.61049
-1.61492
-1.61929
-1.62719
-1.62928
-1.63005
-1.53604
-1.36695
-1.42991
-1.39643
-0.773484
0.651993
5.5933
18.126
30.4763
33.9705
23.3441
-1.72667
-1.72681
-1.72873
-1.73163
-1.73523
-1.74075
-1.74807
-1.75603
-1.76637
-1.7808
-1.80119
-1.8298
-1.88355
-1.92153
-1.93402
-1.94797
-1.98455
-1.98123
-1.91584
-0.854669
2.92683
3.67616
1.56235
-1.85745
-1.85845
-1.86083
-1.86455
-1.86975
-1.87701
-1.88606
-1.8973
-1.91242
-1.93129
-1.95562
-1.98996
-2.03511
-2.07413
-2.10164
-2.13903
-2.19787
-2.23348
-2.25467
-2.2795
-1.91917
-2.00232
-1.96159
-1.98895
-1.99064
-1.99351
-1.99781
-2.00364
-2.0115
-2.02118
-2.03384
-2.05061
-2.06995
-2.09525
-2.12861
-2.1663
-2.19902
-2.23415
-2.27644
-2.33353
-2.39209
-2.45534
-2.57233
-2.68526
-2.55482
-2.32953
-2.12073
-2.12278
-2.12601
-2.13077
-2.13708
-2.14512
-2.15496
-2.1681
-2.18448
-2.20401
-2.22862
-2.25742
-2.2874
-2.31847
-2.35251
-2.3932
-2.44283
-2.49706
-2.56295
-2.6484
-2.69773
-2.63474
-2.45468
-2.25231
-2.25448
-2.2579
-2.26294
-2.26951
-2.27774
-2.28767
-2.30027
-2.31555
-2.3336
-2.35497
-2.37921
-2.40508
-2.43287
-2.46308
-2.49752
-2.53735
-2.58126
-2.62697
-2.67306
-2.68125
-2.62105
-2.50865
-2.38347
-2.38567
-2.38919
-2.39439
-2.40118
-2.40969
-2.42032
-2.43273
-2.44699
-2.4631
-2.48154
-2.50184
-2.52347
-2.54687
-2.57181
-2.59868
-2.6276
-2.65714
-2.68379
-2.69997
-2.6888
-2.63993
-2.57345
-2.51406
-2.51625
-2.51977
-2.52496
-2.53168
-2.54014
-2.55076
-2.5629
-2.57625
-2.59099
-2.60732
-2.62481
-2.64312
-2.66216
-2.68194
-2.702
-2.72184
-2.73978
-2.75218
-2.7538
-2.73852
-2.70589
-2.66318
-2.64405
-2.64617
-2.64959
-2.65457
-2.66096
-2.66886
-2.67846
-2.68955
-2.70159
-2.71476
-2.7293
-2.74473
-2.76064
-2.77638
-2.79175
-2.80662
-2.82009
-2.83064
-2.83616
-2.83263
-2.81844
-2.79477
-2.76609
-2.77345
-2.77548
-2.77873
-2.7834
-2.78932
-2.79653
-2.80502
-2.81465
-2.82524
-2.83675
-2.84913
-2.86216
-2.8754
-2.88819
-2.90033
-2.91139
-2.92076
-2.92728
-2.92907
-2.92435
-2.91236
-2.89441
-2.8734
-2.9023
-2.90421
-2.90725
-2.91159
-2.91702
-2.92352
-2.93104
-2.93945
-2.94863
-2.9585
-2.96892
-2.97965
-2.99032
-3.00054
-3.00997
-3.01821
-3.02464
-3.02843
-3.02845
-3.02381
-3.01417
-3.00044
-2.9845
-3.0306
-3.03239
-3.03523
-3.03922
-3.04417
-3.05001
-3.05666
-3.064
-3.07192
-3.08032
-3.08902
-3.09782
-3.10642
-3.11452
-3.1218
-3.12788
-3.13226
-3.13435
-3.13348
-3.12932
-3.12163
-3.11101
-3.0987
-3.1584
-3.16008
-3.1627
-3.16636
-3.17085
-3.17607
-3.18193
-3.18832
-3.19512
-3.20222
-3.20947
-3.21667
-3.2236
-3.23001
-3.23561
-3.24008
-3.24307
-3.24415
-3.24295
-3.23928
-3.23309
-3.22476
-3.21511
-3.28576
-3.28732
-3.28974
-3.29308
-3.29713
-3.30179
-3.30694
-3.31247
-3.31827
-3.32423
-3.33023
-3.33611
-3.34168
-3.34674
-3.35105
-3.35435
-3.35639
-3.3569
-3.35567
-3.35241
-3.34736
-3.34073
-3.33304
-3.41275
-3.41421
-3.41644
-3.41948
-3.42313
-3.42726
-3.43175
-3.4365
-3.44141
-3.44639
-3.45133
-3.4561
-3.46056
-3.46454
-3.46785
-3.4703
-3.47168
-3.47181
-3.47055
-3.46778
-3.46366
-3.4583
-3.45207
-3.53947
-3.54083
-3.54289
-3.54565
-3.54891
-3.55255
-3.55645
-3.56049
-3.56461
-3.56873
-3.57276
-3.57661
-3.58016
-3.58328
-3.58582
-3.58763
-3.58856
-3.58847
-3.58728
-3.58495
-3.5815
-3.5771
-3.572
-3.66598
-3.66726
-3.66915
-3.67165
-3.67456
-3.67774
-3.68108
-3.68449
-3.6879
-3.69127
-3.69452
-3.6976
-3.70041
-3.70285
-3.70479
-3.70612
-3.70672
-3.7065
-3.7054
-3.7034
-3.70052
-3.69689
-3.69266
-3.79237
-3.79356
-3.79529
-3.79754
-3.80012
-3.80287
-3.8057
-3.80852
-3.81131
-3.81401
-3.81661
-3.81905
-3.82124
-3.82313
-3.8246
-3.82556
-3.82593
-3.82564
-3.82464
-3.82291
-3.82049
-3.81746
-3.81393
-3.9187
-3.91979
-3.92136
-3.92338
-3.92563
-3.92798
-3.93032
-3.93261
-3.93483
-3.93697
-3.939
-3.9409
-3.9426
-3.94403
-3.94513
-3.94582
-3.94602
-3.94568
-3.94477
-3.94329
-3.94124
-3.93869
-3.93572
-4.04503
-4.04599
-4.0474
-4.04917
-4.05111
-4.05307
-4.05496
-4.05676
-4.05848
-4.06012
-4.06168
-4.06312
-4.06441
-4.06548
-4.06628
-4.06674
-4.06682
-4.06646
-4.06564
-4.06435
-4.06261
-4.06046
-4.05795
-4.17129
-4.17218
-4.17339
-4.17492
-4.17656
-4.17815
-4.17961
-4.18097
-4.18225
-4.18346
-4.18461
-4.18567
-4.18662
-4.18739
-4.18795
-4.18824
-4.18822
-4.18785
-4.18711
-4.18599
-4.18451
-4.18268
-4.18054
-4.2974
-4.29822
-4.29931
-4.30063
-4.30199
-4.30321
-4.30427
-4.30523
-4.30611
-4.30695
-4.30775
-4.3085
-4.30917
-4.3097
-4.31006
-4.31022
-4.31012
-4.30975
-4.30908
-4.30811
-4.30683
-4.30527
-4.30346
-4.42337
-4.42411
-4.42513
-4.42629
-4.4274
-4.42829
-4.42895
-4.42952
-4.43005
-4.43057
-4.43108
-4.43157
-4.43201
-4.43235
-4.43255
-4.4326
-4.43244
-4.43207
-4.43146
-4.43061
-4.42951
-4.42819
-4.42664
-4.54921
-4.54988
-4.5508
-4.55184
-4.55275
-4.55334
-4.55364
-4.55384
-4.55404
-4.55428
-4.55455
-4.55483
-4.55509
-4.55527
-4.55535
-4.55531
-4.55511
-4.55474
-4.55419
-4.55344
-4.5525
-4.55137
-4.55006
-4.67479
-4.67541
-4.67624
-4.67718
-4.67792
-4.67826
-4.67823
-4.67811
-4.67804
-4.67804
-4.67812
-4.67824
-4.67835
-4.67842
-4.67841
-4.6783
-4.67807
-4.67771
-4.6772
-4.67655
-4.67574
-4.67479
-4.67367
-4.80003
-4.80059
-4.80135
-4.80219
-4.80275
-4.80287
-4.80261
-4.80225
-4.80198
-4.80182
-4.80176
-4.80176
-4.80177
-4.80175
-4.80167
-4.80152
-4.80126
-4.80091
-4.80046
-4.79989
-4.7992
-4.79839
-4.79746
-4.92484
-4.92533
-4.92601
-4.92675
-4.92712
-4.92709
-4.9267
-4.92622
-4.92585
-4.92559
-4.92545
-4.92537
-4.92531
-4.92523
-4.92511
-4.92491
-4.92465
-4.92432
-4.9239
-4.92341
-4.92283
-4.92216
-4.92138
-5.04924
-5.04961
-5.05017
-5.05082
-5.05106
-5.05098
-5.05055
-5.05006
-5.04966
-5.04938
-5.0492
-5.04907
-5.04896
-5.04884
-5.04867
-5.04846
-5.0482
-5.04788
-5.04751
-5.04709
-5.04661
-5.04606
-5.04543
-5.17326
-5.17353
-5.17397
-5.17439
-5.17463
-5.17458
-5.17424
-5.17381
-5.17346
-5.1732
-5.17302
-5.17286
-5.17272
-5.17255
-5.17236
-5.17214
-5.17188
-5.17158
-5.17126
-5.1709
-5.17051
-5.17008
-5.16958
-5.29703
-5.29721
-5.2975
-5.2978
-5.29799
-5.298
-5.29781
-5.29754
-5.29729
-5.29709
-5.29692
-5.29676
-5.29658
-5.29638
-5.29617
-5.29593
-5.29567
-5.29539
-5.29511
-5.29482
-5.29451
-5.29418
-5.29381
-5.42064
-5.42074
-5.42089
-5.42107
-5.42126
-5.42138
-5.42139
-5.42131
-5.4212
-5.42107
-5.42093
-5.42076
-5.42056
-5.42033
-5.42008
-5.41982
-5.41956
-5.4193
-5.41905
-5.41881
-5.41859
-5.41836
-5.41811
-5.5442
-5.54422
-5.54422
-5.54429
-5.54453
-5.54482
-5.54503
-5.54516
-5.54519
-5.54515
-5.54504
-5.54486
-5.54463
-5.54438
-5.5441
-5.54382
-5.54355
-5.54329
-5.54307
-5.54288
-5.54275
-5.5426
-5.54245
-5.66778
-5.66776
-5.66766
-5.66758
-5.66796
-5.66845
-5.66886
-5.66915
-5.66931
-5.66934
-5.66924
-5.66906
-5.66881
-5.66852
-5.66821
-5.66791
-5.66762
-5.66736
-5.66714
-5.66698
-5.66689
-5.66686
-5.66683
693.065
693.148
680.726
658.442
532.425
519.255
508.092
496.857
425.67
420.534
414.42
406.192
339.162
338.682
336.332
332.805
272.589
271.684
269.365
266.186
211.944
209.432
206.278
203.151
156.119
152.316
148.154
143.952
102.727
96.4027
89.614
82.449
51.8587
42.7897
34.7396
28.2676
13.6027
9.4531
6.38611
4.24192
0.794319
-0.0524479
-0.855852
-1.27482
-1.84634
-1.81264
-1.78793
-1.77919
-2.17965
-2.09457
-2.03329
-1.99568
-2.3342
-2.27039
-2.22123
-2.18321
-2.43985
-2.39927
-2.36242
-2.33206
-2.53154
-2.50492
-2.48097
-2.46034
-2.63516
-2.617
-2.59968
-2.58409
-2.74523
-2.73169
-2.7182
-2.70562
-2.85709
-2.84651
-2.8361
-2.8262
-2.97168
-2.96326
-2.95499
-2.94706
-3.08864
-3.08198
-3.07538
-3.06883
-3.20714
-3.20182
-3.19648
-3.19107
-3.32662
-3.3223
-3.31794
-3.31348
-3.44683
-3.44329
-3.4397
-3.436
-3.56767
-3.56474
-3.56175
-3.55866
-3.68906
-3.68662
-3.68411
-3.68152
-3.81091
-3.80886
-3.80675
-3.80456
-3.93318
-3.93145
-3.92966
-3.92781
-4.05579
-4.05432
-4.05281
-4.05123
-4.17871
-4.17746
-4.17617
-4.17483
-4.3019
-4.30084
-4.29974
-4.2986
-4.42531
-4.42441
-4.42347
-4.42251
-4.54893
-4.54816
-4.54737
-4.54655
-4.67272
-4.67207
-4.6714
-4.67071
-4.79666
-4.79612
-4.79556
-4.79498
-4.92073
-4.92028
-4.91982
-4.91934
-5.0449
-5.04454
-5.04416
-5.04378
-5.16917
-5.16888
-5.16859
-5.16828
-5.2935
-5.2933
-5.29307
-5.29284
-5.4179
-5.41776
-5.41761
-5.41745
-5.54234
-5.54225
-5.54217
-5.54207
-5.6668
-5.66678
-5.66675
-5.66672
600.727
595.793
592.405
588.556
582.591
571.804
558.09
547.978
537.818
532.778
536.31
522.935
509.146
502.488
499.93
501.458
507.287
515.626
524.04
476.733
463.763
467.528
471.444
466.419
457.612
449.394
442.433
432.186
422.609
423.595
415.545
401.449
394.553
394.818
396.339
398.045
398.001
403.102
391.79
377.702
379.531
381.032
374.853
367.561
362.233
355.395
346.794
341.155
336.085
328.783
319.197
312.638
311.199
309.826
306.059
300.807
300.22
325.416
311.535
309.823
303.6
296.19
289.469
283.021
274.978
270.113
265.783
259.278
253.312
246.649
239.187
235.088
231.484
227.204
226.16
223.696
260.688
250.151
242.901
234.245
225.327
216.631
207.761
203.148
200.474
194.324
190.072
185.705
179.756
171.661
167.633
163.991
159.968
157.62
155.98
196.965
187.649
179.05
170.359
161.819
152.087
145.422
139.786
134.075
127.244
123.396
119.945
114.629
107.222
101.639
98.8077
93.3624
88.8013
90.4166
134.59
124.782
115.245
106.428
97.4403
87.2188
76.5651
69.6212
63.0163
58.7004
56.7655
55.547
52.3048
46.9227
41.434
37.3977
33.2859
29.6813
30.6902
70.026
59.5323
51.7857
44.2282
36.1299
28.0689
21.5984
16.0191
13.0459
11.2743
11.5064
12.32
11.9591
10.1297
7.18237
4.73106
3.22912
3.01713
2.46099
20.2644
13.5719
10.4712
6.86669
3.35036
0.951693
0.600667
0.0911104
-0.521893
-0.808585
-0.573175
0.00333438
0.35679
0.197661
-0.611424
-1.05463
-1.08898
-1.10941
-0.810907
1.8654
0.0135907
-0.521899
-0.825537
-1.28461
-1.40803
-1.45431
-1.48953
-1.53123
-1.53832
-1.50299
-1.47276
-1.4372
-1.40629
-1.40041
-1.33753
-1.28982
-1.29498
-1.30206
-1.55938
-1.58839
-1.58365
-1.59618
-1.60305
-1.58345
-1.60266
-1.63675
-1.66144
-1.65524
-1.63475
-1.60665
-1.58058
-1.56382
-1.54738
-1.48614
-1.45387
-1.4549
-1.46823
-1.76917
-1.75002
-1.74552
-1.75605
-1.75262
-1.7417
-1.74797
-1.76253
-1.77541
-1.77621
-1.76621
-1.74907
-1.73437
-1.72399
-1.70129
-1.66559
-1.64499
-1.64327
-1.63948
-1.95567
-1.92517
-1.91031
-1.90841
-1.90332
-1.8978
-1.8994
-1.90537
-1.90938
-1.91078
-1.90799
-1.90185
-1.89649
-1.89522
-1.88788
-1.86313
-1.84467
-1.83509
-1.82678
-2.13579
-2.09781
-2.07713
-2.07077
-2.0658
-2.05589
-2.04759
-2.04597
-2.04666
-2.0477
-2.04831
-2.05037
-2.05327
-2.05646
-2.05254
-2.03437
-2.01378
-1.9983
-1.98965
-2.29165
-2.25611
-2.23535
-2.22593
-2.22177
-2.21073
-2.19366
-2.1874
-2.18539
-2.18455
-2.18417
-2.18792
-2.19512
-2.19944
-2.19417
-2.17701
-2.15521
-2.14243
-2.13426
-2.43038
-2.4004
-2.38169
-2.37071
-2.36436
-2.35462
-2.33956
-2.33107
-2.32617
-2.32205
-2.31912
-2.31928
-2.32307
-2.32635
-2.32231
-2.30649
-2.28964
-2.27932
-2.27496
-2.56035
-2.53471
-2.51793
-2.5071
-2.49924
-2.49083
-2.48041
-2.47297
-2.46758
-2.46206
-2.4558
-2.45218
-2.4511
-2.4505
-2.44554
-2.43387
-2.42167
-2.41376
-2.41322
-2.68604
-2.6639
-2.64875
-2.63862
-2.6308
-2.62333
-2.61586
-2.60939
-2.60443
-2.59964
-2.59323
-2.58777
-2.58334
-2.57892
-2.57231
-2.56308
-2.55414
-2.55112
-2.55293
-2.81017
-2.79131
-2.77758
-2.76773
-2.76047
-2.75384
-2.74747
-2.74172
-2.73734
-2.73326
-2.72899
-2.72388
-2.71883
-2.71217
-2.70382
-2.69621
-2.69031
-2.69146
-2.69173
-2.93413
-2.91839
-2.90597
-2.89642
-2.88909
-2.88292
-2.87718
-2.87218
-2.86874
-2.86609
-2.86385
-2.85993
-2.85509
-2.84787
-2.83896
-2.83317
-2.83005
-2.83071
-2.82659
-3.05814
-3.04513
-3.0341
-3.0251
-3.01787
-3.01187
-3.00664
-3.00227
-2.99926
-2.9974
-2.9963
-2.99399
-2.9896
-2.98215
-2.97434
-2.97059
-2.96707
-2.96521
-2.96013
-3.18219
-3.17119
-3.16159
-3.15342
-3.14654
-3.14083
-3.13598
-3.13201
-3.12908
-3.12701
-3.12565
-3.12402
-3.12006
-3.11354
-3.10729
-3.10384
-3.10075
-3.09685
-3.09221
-3.30611
-3.29678
-3.28837
-3.28099
-3.2747
-3.26938
-3.26481
-3.26109
-3.25817
-3.25593
-3.25409
-3.2519
-3.24828
-3.24297
-3.23781
-3.23396
-3.23226
-3.22769
-3.22282
-3.42986
-3.42195
-3.41462
-3.40803
-3.40227
-3.39729
-3.39304
-3.38949
-3.38658
-3.38421
-3.38207
-3.37958
-3.3761
-3.37153
-3.36703
-3.36338
-3.36121
-3.35706
-3.35267
-3.55352
-3.5468
-3.54043
-3.53459
-3.52936
-3.52475
-3.52076
-3.51735
-3.51447
-3.51198
-3.50966
-3.50702
-3.5037
-3.49968
-3.49555
-3.49203
-3.48901
-3.48558
-3.48203
-3.67719
-3.67144
-3.66592
-3.66076
-3.65605
-3.65182
-3.64809
-3.64483
-3.64199
-3.63943
-3.63704
-3.63436
-3.63124
-3.62766
-3.62384
-3.62039
-3.61728
-3.61433
-3.61133
-3.8009
-3.79597
-3.79117
-3.78662
-3.7824
-3.77855
-3.77509
-3.77201
-3.76925
-3.76672
-3.76427
-3.76168
-3.75881
-3.75563
-3.75221
-3.74902
-3.74611
-3.74358
-3.74103
-3.92469
-3.92046
-3.91628
-3.91227
-3.9085
-3.90501
-3.90183
-3.89893
-3.8963
-3.89385
-3.89148
-3.88902
-3.8864
-3.88361
-3.88063
-3.87781
-3.87526
-3.87318
-3.87102
-4.04858
-4.04494
-4.0413
-4.03777
-4.03441
-4.03126
-4.02835
-4.02566
-4.02318
-4.02086
-4.01861
-4.01635
-4.01399
-4.01155
-4.009
-4.00659
-4.00446
-4.0028
-4.00103
-4.17257
-4.16943
-4.16627
-4.16317
-4.16018
-4.15735
-4.1547
-4.15223
-4.14993
-4.14775
-4.14567
-4.14361
-4.14152
-4.13938
-4.1372
-4.13522
-4.13346
-4.13219
-4.1308
-4.29667
-4.29396
-4.29122
-4.2885
-4.28585
-4.28332
-4.28093
-4.27868
-4.27656
-4.27456
-4.27264
-4.27078
-4.26893
-4.26708
-4.26519
-4.26361
-4.26221
-4.26121
-4.26016
-4.42086
-4.41853
-4.41616
-4.41378
-4.41145
-4.4092
-4.40706
-4.40502
-4.4031
-4.40128
-4.39954
-4.39786
-4.39623
-4.39463
-4.39303
-4.39177
-4.39071
-4.3899
-4.38918
-4.54515
-4.54316
-4.5411
-4.53904
-4.537
-4.53501
-4.53311
-4.53129
-4.52956
-4.52792
-4.52636
-4.52487
-4.52344
-4.5221
-4.5208
-4.51979
-4.51893
-4.51827
-4.5178
-4.66953
-4.66783
-4.66607
-4.66429
-4.66252
-4.66078
-4.6591
-4.65749
-4.65595
-4.6545
-4.65312
-4.65181
-4.65059
-4.64949
-4.64853
-4.64765
-4.64691
-4.64631
-4.64601
-4.79399
-4.79255
-4.79106
-4.78953
-4.78801
-4.7865
-4.78504
-4.78363
-4.78229
-4.78102
-4.77982
-4.7787
-4.77766
-4.77675
-4.77601
-4.77532
-4.77469
-4.77418
-4.77395
-4.91852
-4.91732
-4.91607
-4.91478
-4.91349
-4.9122
-4.91095
-4.90974
-4.90859
-4.9075
-4.90647
-4.90552
-4.90466
-4.9039
-4.90329
-4.90281
-4.90233
-4.9019
-4.90167
-5.04311
-5.04213
-5.0411
-5.04003
-5.03895
-5.03788
-5.03682
-5.03581
-5.03484
-5.03393
-5.03307
-5.03229
-5.03158
-5.03096
-5.03046
-5.03008
-5.02975
-5.02938
-5.02915
-5.16776
-5.16698
-5.16615
-5.16529
-5.16441
-5.16354
-5.16268
-5.16185
-5.16106
-5.16032
-5.15963
-5.159
-5.15844
-5.15795
-5.15754
-5.15722
-5.15696
-5.15668
-5.15651
-5.29245
-5.29185
-5.29122
-5.29055
-5.28987
-5.2892
-5.28853
-5.28788
-5.28726
-5.28669
-5.28615
-5.28567
-5.28525
-5.28488
-5.28458
-5.28435
-5.28417
-5.28399
-5.28385
-5.41717
-5.41675
-5.4163
-5.41582
-5.41534
-5.41485
-5.41437
-5.4139
-5.41346
-5.41304
-5.41266
-5.41232
-5.41203
-5.41179
-5.41161
-5.41148
-5.41139
-5.4113
-5.41118
-5.54191
-5.54166
-5.54139
-5.5411
-5.54081
-5.54051
-5.54021
-5.53993
-5.53965
-5.5394
-5.53917
-5.53897
-5.53881
-5.53869
-5.53863
-5.53862
-5.53863
-5.5386
-5.53848
-5.66667
-5.66659
-5.66649
-5.66639
-5.66629
-5.66618
-5.66608
-5.66597
-5.66587
-5.66577
-5.66569
-5.66563
-5.6656
-5.66562
-5.66569
-5.66581
-5.66595
-5.66595
-5.66575
)
;

boundaryField
{
    leftWall
    {
        type            calculated;
        value           nonuniform List<scalar> 
50
(
4619.14
3821.04
3021.69
2221.02
1446.15
972.201
840.249
780.809
687.156
561.388
435.306
313.431
213.48
141.669
79.0583
23.1959
-0.714354
-1.59552
-1.72667
-1.85745
-1.98895
-2.12073
-2.25231
-2.38347
-2.51406
-2.64405
-2.77345
-2.9023
-3.0306
-3.1584
-3.28576
-3.41275
-3.53947
-3.66598
-3.79237
-3.9187
-4.04503
-4.17129
-4.2974
-4.42337
-4.54921
-4.67479
-4.80003
-4.92484
-5.04924
-5.17326
-5.29703
-5.42064
-5.5442
-5.66778
)
;
    }
    rightWall
    {
        type            calculated;
        value           nonuniform List<scalar> 
50
(
2928.61
2158.88
1517.83
1063.16
799.443
713.289
666.347
614.282
524.04
403.102
300.22
223.696
155.98
90.4166
30.6902
2.46099
-0.810907
-1.30206
-1.46823
-1.63948
-1.82678
-1.98965
-2.13426
-2.27496
-2.41322
-2.55293
-2.69173
-2.82659
-2.96013
-3.09221
-3.22282
-3.35267
-3.48203
-3.61133
-3.74103
-3.87102
-4.00103
-4.1308
-4.26016
-4.38918
-4.5178
-4.64601
-4.77395
-4.90167
-5.02915
-5.15651
-5.28385
-5.41118
-5.53848
-5.66575
)
;
    }
    lowerWall
    {
        type            calculated;
        value           nonuniform List<scalar> 
62
(
5017.29
5024.11
5038.81
5061.67
5093.08
5132.09
5180.42
5237.8
5305.43
5384.99
5478.35
5586.38
5707.45
5836.39
5966.87
6093.47
6212.3
6319.73
6412.17
6487.3
6543.84
6582.03
6601.17
6203.04
5407.81
4614.28
3822.12
3030.4
2240.31
1470.65
925.668
778.305
824.418
812.832
789.736
2327.21
1583.44
1094.93
943.523
892.877
837.52
782.385
706.501
2709.37
2714.72
2725.02
2743.54
2773.51
2803.95
2817.86
2824.1
2835.02
2866.18
2926.46
3002.78
3082.19
3176.45
3272.73
3317.63
3314.68
3303.82
3310.72
)
;
    }
    atmosphere
    {
        type            calculated;
        value           nonuniform List<scalar> 
46
(
-5.7295
-5.72951
-5.72946
-5.72921
-5.72991
-5.73057
-5.73104
-5.73136
-5.73154
-5.73157
-5.73146
-5.73124
-5.73096
-5.73064
-5.73032
-5.73
-5.7297
-5.72944
-5.72923
-5.72909
-5.72904
-5.72904
-5.72904
-5.72904
-5.72904
-5.72904
-5.72904
-5.72904
-5.72904
-5.72904
-5.72904
-5.72904
-5.72904
-5.72904
-5.72904
-5.72904
-5.72904
-5.72904
-5.72904
-5.72905
-5.72906
-5.72913
-5.72928
-5.72959
-5.72957
-5.72911
)
;
    }
    defaultFaces
    {
        type            empty;
    }
}


// ************************************************************************* //
