/*--------------------------------*- C++ -*----------------------------------*\
| =========                 |                                                 |
| \\      /  F ield         | OpenFOAM: The Open Source CFD Toolbox           |
|  \\    /   O peration     | Version:  2312                                  |
|   \\  /    A nd           | Website:  www.openfoam.com                      |
|    \\/     M anipulation  |                                                 |
\*---------------------------------------------------------------------------*/
FoamFile
{
    version     2.0;
    format      ascii;
    arch        "LSB;label=32;scalar=64";
    class       volScalarField;
    location    "3.8";
    object      p_rgh;
}
// * * * * * * * * * * * * * * * * * * * * * * * * * * * * * * * * * * * * * //

dimensions      [1 -1 -2 0 0 0 0];

internalField   nonuniform List<scalar> 
2268
(
5017.29
5024.11
5038.81
5061.67
5093.08
5132.09
5180.42
5237.8
5305.43
5384.99
5478.35
5586.38
5707.45
5836.39
5966.87
6093.47
6212.3
6319.73
6412.17
6487.3
6543.84
6582.03
6601.17
5015.49
5022.32
5036.98
5059.77
5091.02
5130.29
5178.3
5235.32
5302.5
5381.61
5474.75
5583.18
5705.47
5835.89
5967.64
6095.2
6214.92
6322.87
6415.39
6490.24
6546.13
6583.5
6602.2
5012.44
5019.03
5033.34
5055.92
5087.1
5126.39
5173.96
5230.29
5296.58
5374.73
5467.32
5576.49
5701.31
5834.78
5969.11
6098.52
6219.9
6329.05
6421.8
6496.2
6550.78
6586.7
6605.03
5007.78
5013.83
5027.95
5050.35
5081.56
5120.89
5167.84
5223.1
5287.91
5364.32
5455.72
5565.71
5694.63
5832.95
5971.37
6103.53
6227.53
6338.42
6431.46
6505.17
6557.57
6591.27
6609.17
4771.45
4780.18
4812.65
4864.86
4933.69
5014.62
5101.96
5195.89
5275.12
5349.7
5439.53
5550.39
5685.91
5830.87
5974.44
6109.73
6235.69
6350.9
6443.69
6516.46
6565.73
6596.16
6613.74
2086.44
2117.63
2167.06
2250.44
2375.66
2536.22
2724.27
2945.54
3245.62
3617.19
4052.88
4577.04
5157.48
5613.99
5957.63
6119.56
6250.24
6362.24
6458.45
6530.49
6574.57
6599.96
6610.08
1222.54
1221.26
1220.72
1221.04
1222.04
1224.45
1228.02
1232.82
1242.25
1271.91
1343.16
1506.63
1971.34
2739.18
3552.25
4506.9
5387.02
5904.18
6109.65
6289.29
6388.36
6437.32
6451.9
1222.1
1221.32
1220.98
1221.12
1222.28
1223.84
1226.75
1230.65
1235.41
1239.93
1243.26
1242.38
1230.08
1222.2
1238.8
1298.82
1508.82
2050.47
2769.02
3160.04
3318.31
3430.77
3532.2
2709.37
2714.72
2725.02
2743.54
2773.51
2803.95
2817.86
2824.1
2835.02
2866.18
2926.46
3002.78
3082.19
3176.45
3272.73
3317.63
3314.68
3303.82
3310.72
2661.89
2663.77
2683.86
2704.75
2744.13
2793.28
2814.11
2815.7
2817.5
2842.95
2914.66
3005.94
3086.8
3178.71
3276.39
3321.85
3317.08
3299.64
3305.35
1728.25
1754.9
1760.28
1830.57
1952.25
2045.99
2106.72
2103.38
2131.35
2239.12
2342.23
2461.18
2606.79
2786.83
3002.59
3022.71
2905.5
2801.27
2746.92
1113.7
1129.49
1138.13
1120.29
1077.18
1058.67
1048.72
1074.93
1087.5
1095.25
1308.7
1491.91
1705.48
1905.34
2125.59
2293.11
2330.76
2360.1
2403.5
1121.32
1169.02
1157.02
1150.96
1121.15
1095.3
1092.72
1092.23
1090.68
1072.7
993.286
1012.99
1025.81
1024.49
1070.85
1230.7
1312.46
1254.89
1316.88
1154.93
1164.81
1151.43
1153.07
1163.22
1151.76
1132.18
1096.19
1113.99
1070.83
1008.94
1015.26
1032.69
1031.31
1027.4
1022.2
1033.14
1025.22
957.478
1166.67
1140.11
1136.68
1120.72
1121.61
1109.43
1084.61
1091.06
1023.24
968.288
970.822
1002.87
1010.63
1031.14
1023
1016.92
1023.73
1032.66
957.518
1293.83
1228.01
1115.75
1117.67
1107.19
1095.5
1076.36
1064.69
1005.34
969.453
956.044
1034.99
1074.93
1051.71
1012.15
1015.72
1020.5
1035.55
1032.17
1220.45
1219.39
1218.97
1219.25
1220
1221.58
1224
1227.34
1231.01
1234.88
1234.77
1229.95
1227.14
1221.95
1226.2
1225.26
1210.18
1251.31
1237.3
1189.58
1201.49
1222.19
1250.95
1220.29
1217.63
1216.06
1215.04
1215.44
1217.28
1219.97
1222.56
1225.7
1229.27
1232.57
1236.81
1239.36
1234.92
1227.93
1232.15
1244.58
1238.55
1230.84
1225.51
1222.43
1224.8
1206.47
1220.9
1215.67
1205.79
1208.51
1202.44
1203.99
1204.26
1201.99
1204.9
1215.45
1222.73
1237.17
1255.43
1258.35
1260.15
1262.36
1247.49
1241.35
1246.7
1248.89
1257.94
1239.07
1201.66
1184.12
1154.59
1127.44
1064.97
1041.18
1050.6
1077.29
1103.35
1108.82
1101.04
1090.2
1100.71
1110.37
1126.04
1153.54
1164.24
1204.23
1227.68
1289.93
1274.92
1263.14
1214.35
939.318
913.072
886.932
815.718
766.033
756.776
737.198
735.209
758.358
761.706
759.378
751.046
751.212
745.532
761.388
794.098
857.883
875.494
915.001
1062.76
1102.07
1019.02
865.291
789.447
692.715
706.319
726.869
732.859
733.156
733.644
734.399
730.511
718.96
729.979
740.417
745.699
750.314
749.894
712.686
745.849
828.436
813.89
792.167
804.393
815.86
803.089
794.894
709.355
725.326
725.402
725.577
725.256
724.661
725.163
726.127
727.931
730.828
735.106
740.417
746.495
753.177
757.953
762.406
774.68
786.711
792.468
802.998
811.065
811.636
806.832
540.891
526.852
519.996
515.725
512.562
510.134
509.897
512.353
520.149
536.244
567.293
612.663
666.124
716.314
747.609
765.875
766.404
751.604
777.077
814.833
825.784
827.026
822.625
19.537
19.7694
20.7402
21.7334
20.2653
19.1837
20.1112
20.6431
23.0215
31.9935
48.6483
77.3166
111.108
162.594
248.816
406.283
644.724
764.035
823.899
831.186
842.032
846.135
829.161
0.0646945
0.0660893
0.0640664
0.0619093
0.0606378
0.0566104
0.0497264
0.0453344
0.0425032
0.034954
0.322572
0.461197
6.24602
11.8291
7.76142
6.87156
31.5893
70.3593
215.23
606.714
827.785
790.448
500.685
0.0588051
0.0587348
0.0570485
0.0552574
0.0519968
0.045443
0.0376823
0.0401348
0.0360767
0.0208434
-0.00186097
-0.0277532
-0.0799423
-0.0962071
-0.0183524
0.283555
0.783217
0.793026
2.74128
65.4836
192.809
195.927
85.4102
0.0533178
0.0527723
0.0519793
0.0500304
0.0448407
0.0354094
0.0276977
0.0377902
0.0302005
0.00604725
0.0634846
0.0605367
0.0113959
-0.0352834
-0.0778994
-0.176813
-0.214231
-0.215379
-0.287376
4.8175
31.4693
24.6008
4.74901
0.0470087
0.0457983
0.0451841
0.0428217
0.0383576
0.0305463
0.0252905
0.0359343
0.0174355
-0.00488467
0.0544096
0.047119
-0.129412
-0.162253
-0.197396
-0.237408
-0.29233
-0.348687
-0.418072
-0.42097
2.05947
2.89113
-0.198795
0.0403831
0.0385149
0.0357644
0.034226
0.0305953
0.0255133
0.0261373
0.0285599
-0.0137202
-0.0402338
-0.064103
-0.0841647
-0.12589
-0.156819
-0.190304
-0.228248
-0.276367
-0.333962
-0.399701
-0.480856
-0.439226
-0.473253
-0.29339
0.0339716
0.0319244
0.0288942
0.0255734
0.023879
0.0189758
0.0646465
0.0794263
0.0500316
-0.00437078
-0.014473
-0.0415103
-0.106858
-0.145063
-0.174756
-0.209916
-0.248777
-0.291643
-0.339542
-0.384159
-0.38425
-0.334278
-0.219095
0.0280073
0.0258809
0.0226975
0.0187501
0.0146139
0.00979942
0.0590998
0.0805811
0.0709291
0.0486177
0.0412298
0.0241728
-0.00243914
-0.0809971
-0.123564
-0.163754
-0.200221
-0.206163
-0.205701
-0.218622
-0.217014
-0.170189
-0.0646879
0.0226079
0.0204585
0.0171627
0.012547
0.0062562
-0.00239756
-0.00233931
0.018399
0.00141053
-0.020709
-0.00355714
0.0153009
0.0321886
0.000636077
-0.0588066
-0.0974714
-0.130319
-0.148668
-0.101273
-0.0926809
-0.0709714
-0.0309333
0.0124628
0.0178135
0.0157007
0.0123591
0.00749732
0.00128153
-0.0066214
-0.0163575
-0.0274755
-0.0396651
-0.0526702
-0.0667228
-0.0678998
-0.0549173
-0.0730034
-0.093374
-0.123961
-0.138745
-0.146815
-0.135695
-0.113818
-0.105503
-0.0819909
-0.0615957
0.0136012
0.0115609
0.00835553
0.00370099
-0.00219371
-0.00938742
-0.0179308
-0.0275541
-0.0380653
-0.0494341
-0.0613922
-0.0737439
-0.0865305
-0.098943
-0.111453
-0.123053
-0.132923
-0.138569
-0.140209
-0.13702
-0.124711
-0.102573
-0.0764244
0.009958
0.0080063
0.00498839
0.000669913
-0.00476487
-0.0112466
-0.0187435
-0.0271534
-0.0363509
-0.0462082
-0.0566245
-0.0673998
-0.0780949
-0.0883012
-0.0976903
-0.105861
-0.112341
-0.116111
-0.116172
-0.111622
-0.101985
-0.0882507
-0.0704902
0.00686374
0.0049989
0.00218251
-0.00179165
-0.00673238
-0.0125664
-0.0192027
-0.026548
-0.0344817
-0.0428811
-0.0515919
-0.0603981
-0.0690123
-0.0771241
-0.0844048
-0.0904744
-0.0948565
-0.096942
-0.0960873
-0.0919405
-0.084246
-0.0736
-0.0611388
0.00427811
0.00250068
-0.000116544
-0.00376615
-0.00824658
-0.013472
-0.0193341
-0.0257277
-0.0325349
-0.0396382
-0.0468869
-0.0540929
-0.0610277
-0.0674358
-0.0730372
-0.0775139
-0.080499
-0.0815825
-0.0803794
-0.0767187
-0.0705242
-0.0621908
-0.0525299
0.00212113
0.000440597
-0.00197802
-0.00531422
-0.00936535
-0.0140242
-0.0191742
-0.0247051
-0.0305102
-0.0364772
-0.0424781
-0.0483574
-0.0539299
-0.0589855
-0.0632931
-0.0666002
-0.0686384
-0.0691434
-0.0679199
-0.0646601
-0.0596107
-0.0529759
-0.0452801
0.000332614
-0.0012603
-0.00349195
-0.00653215
-0.0101767
-0.0143078
-0.0188037
-0.0235568
-0.0284695
-0.0334464
-0.0383838
-0.0431571
-0.0476181
-0.0515977
-0.0549099
-0.0573572
-0.0587386
-0.0588703
-0.0576054
-0.0548399
-0.050716
-0.0453546
-0.0391257
-0.00117655
-0.00268674
-0.00474239
-0.0075043
-0.0107697
-0.0144117
-0.0183075
-0.0223562
-0.0264751
-0.0305897
-0.0346204
-0.0384707
-0.0420241
-0.0451459
-0.0476879
-0.0494963
-0.0504209
-0.0503319
-0.0491393
-0.0468162
-0.0433604
-0.0389671
-0.033858
-0.0024806
-0.00391782
-0.00580888
-0.00831004
-0.0112199
-0.014406
-0.0177484
-0.0211573
-0.0245695
-0.0279331
-0.031191
-0.0342702
-0.0370803
-0.0395152
-0.0414576
-0.0427868
-0.0433893
-0.0431703
-0.0420684
-0.0400647
-0.037187
-0.0335553
-0.0293249
-0.00365531
-0.00502232
-0.00675696
-0.00900996
-0.011583
-0.0143401
-0.0171685
-0.0199942
-0.0227764
-0.0254856
-0.0280846
-0.0305194
-0.0327197
-0.0346018
-0.0360734
-0.037039
-0.03741
-0.0371157
-0.0361119
-0.0343875
-0.0319669
-0.0289355
-0.0254046
-0.00476022
-0.00605769
-0.00763544
-0.00964663
-0.0118964
-0.0142437
-0.0165917
-0.018885
-0.0211061
-0.0232457
-0.0252828
-0.0271784
-0.0288772
-0.0303125
-0.0314107
-0.0320962
-0.0322987
-0.0319624
-0.0310542
-0.0295663
-0.0275179
-0.0249688
-0.0220008
-0.00584729
-0.00706095
-0.0084697
-0.0102432
-0.0121747
-0.0141292
-0.0160266
-0.0178343
-0.0195576
-0.0212029
-0.0227621
-0.0242064
-0.0254916
-0.0265637
-0.0273634
-0.0278298
-0.0279067
-0.0275487
-0.0267288
-0.0254406
-0.0236976
-0.0215428
-0.0190323
-0.0068819
-0.00803527
-0.00924261
-0.0105902
-0.0120348
-0.0139209
-0.0154757
-0.0168394
-0.0181223
-0.0193396
-0.0204933
-0.0215609
-0.0225051
-0.0232809
-0.0238399
-0.0241328
-0.0241137
-0.0237455
-0.0230048
-0.0218853
-0.0203967
-0.0185671
-0.0164345
-0.00770183
-0.00887596
-0.00979795
-0.0101444
-0.010923
-0.013576
-0.0147988
-0.015893
-0.016786
-0.017632
-0.018443
-0.0191976
-0.0198619
-0.0203965
-0.0207606
-0.0209145
-0.020821
-0.0204491
-0.0197784
-0.0188023
-0.0175267
-0.0159701
-0.014154
-0.00843654
-0.00956924
-0.0101639
-0.00981237
-0.0102267
-0.0101546
-0.0105948
-0.0145046
-0.0155313
-0.016053
-0.0165743
-0.0170709
-0.0175079
-0.0178481
-0.0180555
-0.018098
-0.0179463
-0.0175749
-0.016966
-0.0161124
-0.0150171
-0.013691
-0.012144
-0.00897716
-0.0101142
-0.0100652
-0.00956117
-0.00935559
-0.00789134
-0.00850623
-0.0114083
-0.0143251
-0.0145676
-0.0148479
-0.0151354
-0.0153915
-0.0155782
-0.015662
-0.0156167
-0.01542
-0.0150523
-0.0144985
-0.013751
-0.0128101
-0.0116815
-0.010366
-0.00935653
-0.0104166
-0.0099879
-0.00940818
-0.00921521
-0.00773693
-0.00774111
-0.010796
-0.0131225
-0.0131336
-0.0132241
-0.0133487
-0.0134653
-0.0135343
-0.0135241
-0.0134122
-0.0131825
-0.0128217
-0.012318
-0.0116637
-0.0108575
-0.00990037
-0.00878639
-0.00915331
-0.0103
-0.00971574
-0.00969649
-0.0104677
-0.0100589
-0.00777965
-0.012016
-0.0118538
-0.0117178
-0.0116708
-0.0116763
-0.0116898
-0.011672
-0.0115931
-0.0114338
-0.0111828
-0.0108325
-0.0103754
-0.00980495
-0.00911821
-0.0083108
-0.00737523
-0.00867569
-0.00977721
-0.0094229
-0.00942119
-0.0115483
-0.0113384
-0.0108915
-0.01076
-0.0105117
-0.0103054
-0.0101713
-0.0100965
-0.010037
-0.00995679
-0.00982949
-0.009639
-0.00937724
-0.00904141
-0.00862905
-0.00813535
-0.00755615
-0.00688365
-0.00610847
-0.00775145
-0.00853789
-0.00913306
-0.00981279
-0.0103513
-0.0099438
-0.00959598
-0.0094502
-0.00916108
-0.00890184
-0.00872619
-0.00860216
-0.00849201
-0.00836624
-0.00820434
-0.00799417
-0.00773034
-0.00741298
-0.00704412
-0.00662193
-0.00614125
-0.00559166
-0.00496278
-0.00654275
-0.00698983
-0.00780452
-0.00849917
-0.00871659
-0.00836825
-0.00836663
-0.00808485
-0.0077784
-0.00753153
-0.00734992
-0.00719849
-0.00705147
-0.00688947
-0.00669984
-0.00647573
-0.00621471
-0.00591849
-0.00559178
-0.00523658
-0.00484762
-0.00441145
-0.00391755
-0.0050758
-0.005315
-0.00608994
-0.00670212
-0.00679512
-0.00668042
-0.00682954
-0.00665138
-0.0064226
-0.00622877
-0.00606356
-0.00589745
-0.00571997
-0.00552456
-0.00530788
-0.00506947
-0.00481076
-0.00453519
-0.00424856
-0.00395602
-0.00365343
-0.00332271
-0.00295429
-0.0039303
-0.00377565
-0.00437844
-0.00468583
-0.00481017
-0.00514901
-0.00525652
-0.00523557
-0.00514094
-0.00501918
-0.00487923
-0.00470567
-0.00450154
-0.00427323
-0.00402703
-0.00376954
-0.00350725
-0.00324678
-0.00299526
-0.00275932
-0.00253706
-0.00230729
-0.00205583
-0.00251372
-0.00234792
-0.00261644
-0.00265579
-0.00297206
-0.00344602
-0.00374905
-0.00389954
-0.00394252
-0.00390058
-0.00378823
-0.0036124
-0.00338657
-0.00312831
-0.0028524
-0.00257195
-0.00229873
-0.00204377
-0.00181788
-0.00163201
-0.00149993
-0.00135139
-0.00120563
-0.000878087
-0.000855592
-0.000801489
-0.000798922
-0.00139565
-0.00197401
-0.00241413
-0.0027093
-0.0028686
-0.00289422
-0.00280027
-0.00261463
-0.00236355
-0.00207406
-0.00176797
-0.00146331
-0.00117523
-0.000917226
-0.00070195
-0.000541315
-0.000443709
-0.000418822
-0.000384006
1419.5
1811.86
1806.56
1777.36
1187.27
1172.51
1132.24
1078.03
1100.07
956.324
931.639
912.979
807.003
797.53
797.016
813.448
789.1
788.486
808.092
804.363
792.216
790.16
790.088
805.5
799.991
795.977
800.346
811.641
810.948
812.16
820.183
880.892
761.819
677.434
596.294
456.064
209.912
154.502
134.109
121.695
59.6188
38.4103
11.8592
6.44997
1.14616
0.442392
0.12334
0.131993
-0.143479
-0.058285
0.00306823
0.0415979
-0.172835
-0.108722
-0.0597109
-0.0204696
-0.143986
-0.100884
-0.0720209
-0.0450901
-0.0074053
-0.00449324
-0.0431173
-0.0486818
0.0371689
0.0271427
-0.0289913
-0.0472004
-0.0411713
-0.0337261
-0.0422124
-0.0423003
-0.058584
-0.0549506
-0.0477495
-0.0380133
-0.0579807
-0.0510153
-0.0425279
-0.0344853
-0.0511301
-0.0445538
-0.0379
-0.0313396
-0.0445566
-0.0392293
-0.0338862
-0.0284724
-0.0388554
-0.0345415
-0.0301758
-0.0257102
-0.03388
-0.0303443
-0.0267457
-0.023044
-0.0295294
-0.026604
-0.0236117
-0.0205231
-0.0257228
-0.0232824
-0.0207772
-0.0181837
-0.0223852
-0.0203365
-0.0182268
-0.0160381
-0.0194553
-0.0177258
-0.0159403
-0.0140861
-0.0168757
-0.0154099
-0.0138939
-0.0123189
-0.014602
-0.0133561
-0.0120656
-0.0107258
-0.0125929
-0.0115323
-0.0104332
-0.00929319
-0.0108151
-0.00991264
-0.00897674
-0.00800791
-0.00923673
-0.00847077
-0.00767647
-0.00685548
-0.00783228
-0.00718569
-0.00651473
-0.00582268
-0.00657657
-0.00603576
-0.00547434
-0.00489575
-0.00544972
-0.0050036
-0.00453959
-0.00406177
-0.00443065
-0.00407029
-0.00369462
-0.00330717
-0.00350176
-0.00321981
-0.00292452
-0.00261931
-0.00264552
-0.00243587
-0.00221491
-0.00198512
-0.0018466
-0.00170406
-0.00155226
-0.00139281
-0.00108724
-0.00100656
-0.000919107
-0.000825367
-0.000354557
-0.000334274
-0.000309955
-0.000280924
1528.59
1363.91
1061.65
1068.68
1105.62
1089.07
1056.56
998.176
998.365
1082.08
1057.17
1024.48
1050.76
1054.8
1017.7
1030.79
1030.31
1057.02
1059.02
1045.39
1041.02
962.773
932.596
1002.29
1010.06
925.608
906.755
884.48
872.724
908.849
888.553
875.885
887.489
849.694
833.854
885.77
1021.14
1080.48
826.802
817.915
832.649
877.809
861.344
831.064
831.925
846.266
793.887
759.122
841.733
863.261
775.763
771.102
813.23
818.119
817.291
807.471
862.275
807.573
761.085
810.878
840.527
837.644
841.792
844.697
836.385
762.888
788.06
749.582
743.068
737.326
732.821
731.138
720.805
728.1
725.059
737.235
819.979
772.612
766.798
758.458
729.873
760.589
746.631
665.419
684.109
730.699
717.509
720.547
710.031
701.65
693.54
664.6
667.449
718.055
716.775
841.827
774.867
762.705
752.159
735.958
721.161
721.277
721.169
715.908
713.764
714.102
708.284
702.479
697.768
691.183
665.222
688.952
739.914
700.218
852.539
778.101
759.538
750.265
741.642
730.386
726.892
739.491
736.142
713.48
683.018
674.679
659.365
605.324
555.432
553.745
535.436
446.38
562.362
833.171
786.646
738.476
706.066
656.152
577.546
439.445
322.317
271.231
256.962
256.099
256.214
234.193
193.077
154.94
131.441
99.4751
102.887
57.3241
345.27
297.755
251.494
179.86
108.588
54.1977
48.733
36.8925
22.9038
13.7908
18.7951
34.4712
43.0108
37.7628
20.7458
2.31203
0.455336
0.437538
10.6762
88.7114
39.8828
24.4077
17.9901
6.40907
0.692426
0.430477
0.236209
0.155721
0.128781
0.275601
0.286222
0.386725
0.258085
0.26169
0.324605
0.388501
0.399092
0.374591
1.21342
0.198919
0.421514
0.786354
0.243966
0.245611
0.237936
0.312974
0.246593
0.243529
0.235339
0.192292
0.235821
0.258787
0.298784
0.447095
0.643856
0.677467
0.429157
0.141973
0.161289
0.167746
0.158215
0.245747
0.431102
0.400414
0.347531
0.259375
0.270526
0.296768
0.295943
0.271331
0.331334
0.695304
0.995944
0.998946
1.00143
0.827763
0.0875314
0.118579
0.132986
0.166564
0.378063
0.457078
0.338807
0.200071
0.15321
0.178553
0.247141
0.300785
0.29927
0.385975
0.835439
0.969013
0.921848
0.545939
0.635555
0.0380994
0.0788441
0.0898215
0.136301
0.409376
0.505928
0.248912
0.123148
0.117083
0.118738
0.127402
0.174858
0.312201
0.37771
0.445656
0.572104
0.250491
0.207521
0.21624
-0.00100994
0.0418643
0.0881606
0.116017
0.230338
0.359816
0.231481
0.144699
0.126654
0.103434
0.103658
0.0999108
0.110453
0.188936
0.345556
0.296612
0.178525
0.190354
0.285375
-0.018584
0.0123832
0.0434049
0.0939765
0.147267
0.213541
0.205722
0.209301
0.206795
0.209458
0.187325
0.139899
0.0976645
0.0875146
0.158143
0.303571
0.247987
0.184376
0.40097
-0.0231893
0.00263568
0.0203635
0.0768928
0.107717
0.11793
0.185909
0.149299
0.217172
0.292308
0.292391
0.260025
0.163216
0.089007
0.100658
0.293047
0.274893
0.308528
0.416574
-0.0232526
-0.00163763
0.0137312
0.0319109
0.0971043
0.110246
0.112632
0.0982747
0.1399
0.171112
0.32103
0.278085
0.274572
0.11729
0.0996787
0.292473
0.300008
0.46164
0.417105
-0.0225811
-0.00386159
0.0097607
0.0197217
0.0383468
0.0616872
0.0546961
0.0467876
0.107425
0.1413
0.285506
0.292709
0.274611
0.169318
0.0968243
0.320478
0.489241
0.513109
0.153492
-0.0216294
-0.0057014
0.00672729
0.0161287
0.0234862
0.029416
0.0350926
0.0412865
0.0625374
0.118684
0.239662
0.272599
0.260424
0.135146
0.110446
0.323525
0.469051
0.36176
0.091839
-0.0206806
-0.00747652
0.00374556
0.0124934
0.0196018
0.0259042
0.0348567
0.0417879
0.0481948
0.047148
0.074807
0.173113
0.146383
0.073758
0.104688
0.225268
0.375481
0.149673
0.0807442
-0.0195971
-0.00859401
0.00103251
0.00920315
0.0162039
0.0228346
0.0295423
0.0351146
0.0354349
0.036333
0.0370554
0.0405424
0.0464223
0.0530183
0.072918
0.06332
0.328629
0.136475
0.072726
-0.0183371
-0.00900759
-0.000588755
0.0068151
0.0131823
0.0186797
0.0232546
0.0269666
0.0298515
0.0320699
0.0338515
0.0360723
0.0406742
0.0480757
0.050809
0.0816396
0.237077
0.120994
0.0670077
-0.0169041
-0.00899328
-0.0016566
0.00494597
0.0107329
0.015712
0.0200114
0.023602
0.0265585
0.0289743
0.0311123
0.0337068
0.0373889
0.0444402
0.0467545
0.093063
0.0856084
0.0674667
0.0625124
-0.015381
-0.00865261
-0.00228649
0.00355871
0.00879833
0.0134173
0.0174396
0.0208791
0.0237893
0.0263136
0.0286654
0.0314188
0.0348091
0.0397889
0.043065
0.0564215
0.0499313
0.0555828
0.0581368
-0.0138522
-0.0081054
-0.00258016
0.0025812
0.00729401
0.0115236
0.0152665
0.0185368
0.0214003
0.0239878
0.0264183
0.0291908
0.0323916
0.0358342
0.0400769
0.043353
0.0465557
0.0504395
0.0531395
-0.0123722
-0.00744631
-0.00264579
0.00190618
0.00612918
0.0099802
0.0134459
0.0165379
0.0193075
0.0218535
0.0243324
0.0270003
0.0299579
0.0330718
0.0371002
0.0401953
0.0431858
0.0463087
0.0484695
-0.0109718
-0.00673764
-0.002563
0.00144749
0.00522055
0.00871146
0.011902
0.0147992
0.0174406
0.0198996
0.0222954
0.0248039
0.0274975
0.0302848
0.0338937
0.0367039
0.0397843
0.0420605
0.0438486
-0.00966679
-0.00602011
-0.00238803
0.00114157
0.00450333
0.00765407
0.010573
0.013262
0.0157471
0.0180785
0.0203349
0.0226302
0.025052
0.0275102
0.0306876
0.0339098
0.0361482
0.03736
0.0459257
-0.00846401
-0.00532041
-0.00216117
0.000940389
0.00392686
0.00675779
0.00941113
0.0118839
0.0141924
0.0163694
0.0184622
0.0205394
0.0226615
0.0248148
0.0272796
0.0315283
0.0321251
0.0333068
0.0420501
-0.00736437
-0.00465532
-0.00191095
0.000807955
0.00345159
0.0059827
0.0083787
0.0106324
0.0127517
0.0147574
0.0166777
0.0185497
0.020442
0.0223937
0.024331
0.0285012
0.0353574
0.0297847
0.0418316
-0.00636488
-0.00403464
-0.001657
0.000718086
0.00304762
0.00529785
0.00744615
0.00948217
0.0114078
0.0132346
0.0149791
0.0166607
0.0183663
0.0209564
0.0268096
0.0297341
0.0343944
0.0349908
0.0422944
-0.00546039
-0.00346327
-0.00141213
0.00065218
0.00269291
0.00467971
0.00659043
0.00841264
0.0101438
0.0117895
0.0133576
0.0148561
0.016421
0.0200156
0.0351248
0.0371322
0.0320769
0.0325106
0.0342633
-0.0046443
-0.00294256
-0.00118421
0.000597688
0.00237183
0.00411101
0.00579397
0.00740699
0.00894498
0.0104104
0.0118059
0.013128
0.0144328
0.016617
0.0304967
0.0345541
0.0338312
0.0300604
0.0283003
-0.00390873
-0.00247119
-0.000977243
0.000546518
0.00207346
0.00357932
0.00504393
0.00645277
0.0077984
0.00908201
0.0103128
0.0114924
0.0125874
0.0138266
0.0176909
0.0321295
0.0341255
0.0347032
0.025414
-0.00324492
-0.00204575
-0.000792376
0.00049389
0.00179037
0.00307554
0.00433064
0.00554104
0.00669751
0.00779834
0.00885345
0.00989221
0.010881
0.0117382
0.0127291
0.0213625
0.0308287
0.0271042
0.0183788
-0.00264365
-0.00166151
-0.000628911
0.000437127
0.00151726
0.00259258
0.00364609
0.00466379
0.00563548
0.00655622
0.00743028
0.00828843
0.00916558
0.00992629
0.0105323
0.0111418
0.0141895
0.0128125
0.0123083
-0.00209514
-0.00131278
-0.000484902
0.000374785
0.00124989
0.00212414
0.00298271
0.00381302
0.00460498
0.00535195
0.00605255
0.0067221
0.00741673
0.0081371
0.00864394
0.00884431
0.00897183
0.00944479
0.00954895
-0.00158945
-0.000993271
-0.00035784
0.000305854
0.00098422
0.00166383
0.00233254
0.00297977
0.00359661
0.00417598
0.00471348
0.00521096
0.0057006
0.00625553
0.00678206
0.00695766
0.00696672
0.00715084
0.00752047
-0.00111658
-0.000696679
-0.000245251
0.000229111
0.000715769
0.00120452
0.00168639
0.00215346
0.00259871
0.00301565
0.00339861
0.00374481
0.00406416
0.00441214
0.00488301
0.00518961
0.00516716
0.00518838
0.00546963
-0.000663009
-0.00041356
-0.000142414
0.000144489
0.000440484
0.000738732
0.0010335
0.00132004
0.00159382
0.00184995
0.00208233
0.00228584
0.00245943
0.00262337
0.00286433
0.00324352
0.00327415
0.00329586
0.00329292
-0.000228543
-0.000146027
-5.20368e-05
4.97512e-05
0.000154768
0.000260896
0.000366839
0.00047129
0.000572753
0.0006682
0.0007525
0.000816422
0.000849409
0.000848644
0.000838041
0.000867657
0.00103685
0.0010256
0.000762539
)
;

boundaryField
{
    leftWall
    {
        type            fixedFluxPressure;
        gradient        uniform 0;
        value           nonuniform List<scalar> 
50
(
5017.29
5015.49
5012.44
5007.78
4771.45
2086.44
1222.54
1222.1
1220.45
1220.29
1220.9
1184.12
913.072
692.715
709.355
540.891
19.537
0.0646945
0.0588051
0.0533178
0.0470087
0.0403831
0.0339716
0.0280073
0.0226079
0.0178135
0.0136012
0.009958
0.00686374
0.00427811
0.00212113
0.000332614
-0.00117655
-0.0024806
-0.00365531
-0.00476022
-0.00584729
-0.0068819
-0.00770183
-0.00843654
-0.00897716
-0.00935653
-0.00915331
-0.00867569
-0.00775145
-0.00654275
-0.0050758
-0.0039303
-0.00251372
-0.000878087
)
;
    }
    rightWall
    {
        type            fixedFluxPressure;
        gradient        uniform 0;
        value           nonuniform List<scalar> 
50
(
3310.72
3305.35
2746.92
2403.5
1316.88
957.478
957.518
1032.17
1059.02
1080.48
862.275
737.235
716.775
700.218
562.362
57.3241
10.6762
0.374591
0.429157
0.827763
0.635555
0.21624
0.285375
0.40097
0.416574
0.417105
0.153492
0.091839
0.0807442
0.072726
0.0670077
0.0625124
0.0581368
0.0531395
0.0484695
0.0438486
0.0459257
0.0420501
0.0418316
0.0422944
0.0342633
0.0283003
0.025414
0.0183788
0.0123083
0.00954895
0.00752047
0.00546963
0.00329292
0.000762539
)
;
    }
    lowerWall
    {
        type            fixedFluxPressure;
        gradient        uniform 0;
        value           nonuniform List<scalar> 
62
(
5017.29
5024.11
5038.81
5061.67
5093.08
5132.09
5180.42
5237.8
5305.43
5384.99
5478.35
5586.38
5707.45
5836.39
5966.87
6093.47
6212.3
6319.73
6412.17
6487.3
6543.84
6582.03
6601.17
6601.17
6602.2
6605.03
6609.17
6613.74
6610.08
6451.9
3532.2
1419.5
1811.86
1806.56
1777.36
2709.37
2661.89
1728.25
1113.7
1121.32
1154.93
1166.67
1293.83
2709.37
2714.72
2725.02
2743.54
2773.51
2803.95
2817.86
2824.1
2835.02
2866.18
2926.46
3002.78
3082.19
3176.45
3272.73
3317.63
3314.68
3303.82
3310.72
)
;
    }
    atmosphere
    {
        type            totalPressure;
        rho             rho;
        psi             none;
        gamma           1;
        p0              uniform 0;
        value           nonuniform List<scalar> 
46
(
0
0
0
-0.000172606
-0.000870563
-0.00152511
-0.00200108
-0.00232137
-0.00250163
-0.00253005
-0.00241759
-0.00220312
-0.00192178
-0.00160497
-0.00127716
-0.000957522
-0.000661155
-0.000400858
-0.000189862
-4.78144e-05
0
0
0
0
0
0
0
0
0
0
0
0
0
0
0
0
0
0
0
0
0
0
0
0
0
0
)
;
    }
    defaultFaces
    {
        type            empty;
    }
}


// ************************************************************************* //
