/*--------------------------------*- C++ -*----------------------------------*\
| =========                 |                                                 |
| \\      /  F ield         | OpenFOAM: The Open Source CFD Toolbox           |
|  \\    /   O peration     | Version:  2312                                  |
|   \\  /    A nd           | Website:  www.openfoam.com                      |
|    \\/     M anipulation  |                                                 |
\*---------------------------------------------------------------------------*/
FoamFile
{
    version     2.0;
    format      ascii;
    arch        "LSB;label=32;scalar=64";
    class       volScalarField;
    location    "4.15";
    object      alpha.oil;
}
// * * * * * * * * * * * * * * * * * * * * * * * * * * * * * * * * * * * * * //

dimensions      [0 0 0 0 0 0 0];

internalField   nonuniform List<scalar> 
2268
(
7.60606e-10
7.60599e-10
8.93368e-10
1.41061e-09
1.41443e-09
1.46769e-09
1.77953e-09
1.64337e-09
9.14696e-10
6.79772e-10
5.68036e-10
5.08917e-10
5.39561e-10
7.19839e-10
1.31825e-09
3.1511e-09
8.29794e-09
1.91473e-08
7.04632e-08
6.90645e-06
4.20721e-05
4.57031e-05
4.55697e-05
9.86614e-10
4.79478e-09
1.81384e-08
3.04126e-08
4.77705e-08
4.69071e-08
1.20881e-08
4.07649e-09
1.75362e-09
1.45209e-09
1.40356e-09
1.43663e-09
1.72402e-09
1.80911e-09
4.12531e-09
2.26995e-08
1.05187e-07
1.7322e-07
1.09921e-07
1.48713e-07
5.0557e-06
1.92882e-05
1.90408e-05
4.85459e-10
5.38169e-09
3.60807e-08
1.20186e-07
1.63713e-07
1.32712e-07
4.04328e-08
1.0604e-09
1.06133e-09
1.06242e-09
1.13847e-09
6.49835e-09
1.98276e-08
1.05701e-08
1.57178e-08
9.79778e-08
1.0258e-06
1.11826e-06
8.88649e-07
-3.87091e-14
-8.59912e-13
-1.56768e-11
-5.5019e-11
4.56841e-10
3.60799e-09
1.86734e-08
3.30003e-08
3.62252e-08
2.43281e-08
9.3014e-09
4.69793e-08
3.74782e-08
2.53285e-08
3.09631e-08
5.39991e-08
8.42674e-08
6.05571e-08
1.61915e-08
1.15538e-08
9.28266e-09
3.64813e-09
1.07449e-09
-2.18213e-21
-3.49779e-22
4.08456e-22
-3.08996e-11
4.55376e-10
7.56385e-10
3.4232e-09
6.11216e-09
1.24813e-09
1.25408e-09
1.24801e-09
1.18909e-05
5.96811e-05
7.92122e-05
5.0579e-05
4.83706e-05
1.60543e-06
1.67014e-08
1.64416e-08
0.000481795
0.0106637
0.0221498
0.0285784
0.0281252
0.00222457
8.32932e-06
4.09618e-10
4.5616e-10
5.33053e-10
1.64819e-09
2.47607e-08
2.57115e-05
9.23497e-05
0.000233393
0.000503221
0.000693406
0.000641888
0.000329015
0.000568753
0.00261972
0.00393455
0.00157429
0.00845464
0.0566631
0.0967328
0.104708
0.104793
0.0755942
0.0352517
0.00371701
0.00475246
0.00491941
0.00274442
0.000694257
2.50827e-05
0.000191422
0.000637364
0.000728139
0.000725473
0.000624442
0.000314519
0.000339965
0.00633559
0.020679
0.0206494
0.0206359
0.040841
0.0440153
0.0502984
0.0774826
0.103109
0.0776086
0.040849
0.00684904
0.00684905
0.00684904
0.00364046
0.000829101
0.000317385
0.000151003
0.000124272
0.000158171
0.000220706
0.000246568
0.000317789
0.000258754
0.0174856
0.0293067
0.0315338
0.0179082
0.0157565
0.014388
0.00969933
0.0454029
0.0795342
0.0569451
0.0278363
0.0278344
0.0278286
0.0276568
0.0275484
0.0267932
0.0267932
0.0270342
0.0273215
0.0271436
0.0267779
0.0267781
0.0267787
0.0267789
0.0267793
0.0267795
0.0267799
0.0267798
0.0267801
0.0669564
0.0793144
0.0807324
0.0845007
0.0802643
0.0690845
0.0525242
0.0427802
0.0409568
0.0533594
0.0319258
0.0268925
0.0280292
0.0297361
0.030207
0.0299338
0.0280722
0.0338314
0.0452382
0.294585
0.278287
0.22308
0.266201
0.354296
0.379152
0.37815
0.287774
0.243419
0.30021
0.347143
0.265438
0.200358
0.212504
0.279093
0.308776
0.316025
0.360883
0.426798
0.275135
0.0518701
0.0364959
0.0282867
0.0189167
0.0160042
0.0177888
0.135662
0.318503
0.351096
0.499618
0.500194
0.501476
0.514065
0.514062
0.514065
0.511112
0.492309
0.501736
0.0478043
0.00771582
0.00427406
0.00425898
0.00427154
0.00430163
0.00430599
0.0289985
0.164029
0.314912
0.241851
0.180431
0.461884
0.453546
0.386168
0.332053
0.148681
0.0900525
0.426667
0.252632
0.138341
0.00745414
0.00444334
0.00425406
0.01807
0.0282757
0.0251301
0.0528925
0.111396
0.0679816
0.0250999
0.219792
0.219528
0.0994333
0.0693809
0.0687078
0.0592674
0.0847585
0.280385
0.181907
0.00889754
0.00548211
0.00426745
0.0545024
0.053878
0.0379932
0.0210548
0.0243852
0.0211678
0.0174234
0.0170064
0.0168683
0.108623
0.0670614
0.0348907
0.0375378
0.0561157
0.26011
0.0741007
0.00506965
0.0050535
0.00901075
0.13224
0.0898334
0.0156283
0.0188301
0.018983
0.0167604
0.0167669
0.0167598
0.0168363
0.145672
0.0501334
0.0349805
0.0470674
0.173496
0.00255431
0.00258954
0.00190228
0.000754389
0.000297255
0.00015579
6.98977e-05
2.64362e-05
7.115e-08
7.05567e-05
0.000143789
0.000127776
0.000103727
0.00324009
0.0293952
0.0306122
0.0222285
0.0143922
0.0126123
0.00533213
0.00512956
0.0052683
0.0110113
2.07651e-06
3.78562e-06
1.68971e-05
1.82399e-05
1.99285e-05
1.16869e-05
6.64184e-07
-6.60025e-25
-5.58508e-15
9.63828e-11
-1.59469e-07
-1.73128e-07
-2.14563e-07
-3.09247e-06
-1.37537e-05
0.010046
0.015679
0.0196582
0.036852
0.0526266
0.0734919
0.128573
0.167872
1.80152e-06
1.88775e-06
1.86242e-06
-6.15348e-12
-1.24319e-08
-5.67263e-09
-5.57947e-10
-1.82411e-20
1.75894e-20
0.00234659
0.0193644
0.0621849
0.142893
0.251663
0.318355
0.298283
0.292757
0.482988
0.656968
0.714305
0.791369
0.873232
0.937107
9.74776e-07
3.38268e-05
0.0201362
0.0545723
0.0589409
0.0641507
0.106906
0.172578
0.30071
0.442299
0.594336
0.743055
0.882142
0.957199
0.923354
0.868363
0.890758
0.936634
0.981996
0.992357
0.999591
0.999591
0.999547
0.50681
0.646485
0.752938
0.822782
0.803304
0.807792
0.866892
0.930501
0.974713
0.931992
0.926636
0.981497
0.999586
0.999586
0.9937
0.933557
0.93945
0.999591
0.999591
0.999591
0.999591
0.999591
0.999591
0.99005
0.991497
0.996607
0.996579
0.996492
0.99673
0.998486
0.998685
0.998667
0.997597
0.999523
0.999552
0.999549
0.999535
0.999579
0.999588
0.999591
0.999591
0.999591
0.999591
0.999185
0.998766
0.999498
0.622265
0.60707
0.598865
0.592505
0.600195
0.632692
0.680518
0.755221
0.811591
0.847637
0.87794
0.900399
0.909957
0.908778
0.911924
0.913629
0.904855
0.894469
0.894086
0.892704
0.888214
0.891261
0.901648
-2.11987e-20
0.00814479
0.0108912
0.00978115
0.0110877
0.0234315
0.038169
0.0568181
0.0831002
0.104954
0.135705
0.156884
0.16529
0.164477
0.167725
0.168707
0.167944
0.173015
0.171045
0.152596
0.149458
0.173093
0.205315
-1.14809e-21
-4.51226e-31
-7.43288e-27
9.31326e-21
-6.81402e-21
-2.30655e-20
2.64282e-26
-1.41178e-09
-5.51161e-10
-3.07468e-11
1.9958e-26
-6.41778e-10
-2.21423e-10
6.52447e-26
3.59938e-25
1.79411e-15
-1.06915e-25
-8.69862e-28
-3.67993e-09
-3.01954e-10
-2.60403e-26
-2.3812e-10
-9.64441e-21
6.75829e-09
9.11787e-09
1.73028e-08
-3.90055e-26
2.7111e-07
2.16137e-06
2.73153e-06
1.30553e-06
3.06429e-07
2.02443e-07
1.0775e-07
4.85501e-08
1.97207e-08
1.25652e-07
1.45838e-07
1.22691e-07
8.54044e-08
5.21056e-08
1.22882e-08
6.94847e-10
1.5919e-08
6.8618e-08
3.08795e-07
2.4688e-08
9.31319e-09
9.27904e-09
1.71902e-06
2.26705e-06
2.28182e-06
2.76182e-06
6.75086e-06
1.22211e-05
6.03167e-06
4.8336e-07
7.95154e-09
7.9522e-09
7.74832e-07
6.0595e-07
4.77646e-07
2.69661e-07
6.30078e-08
3.81589e-07
4.40481e-07
3.18701e-07
8.55185e-08
4.19357e-07
2.54618e-08
3.97815e-08
1.39396e-07
1.09836e-06
1.01616e-06
3.38216e-07
5.82204e-06
5.49134e-05
5.91555e-05
4.73653e-05
6.26822e-06
1.44859e-05
2.29569e-05
1.16326e-05
8.87815e-07
3.53804e-07
7.37356e-07
2.53836e-06
6.50915e-06
5.85133e-06
1.5631e-06
4.49217e-07
9.49689e-07
2.42416e-08
6.57149e-08
8.16514e-08
7.27477e-08
5.98409e-08
6.01812e-08
4.06391e-05
5.94093e-05
6.00418e-05
6.01507e-05
4.57725e-05
5.28889e-05
5.28511e-05
1.46714e-05
4.06851e-07
2.06183e-07
3.01682e-06
1.37205e-05
1.65624e-05
1.43846e-05
1.00736e-06
2.25481e-07
3.25605e-07
2.06189e-08
3.71303e-08
4.87678e-08
5.92076e-08
5.95044e-08
5.64099e-07
5.13099e-06
2.6193e-05
4.82398e-05
5.30116e-05
5.31831e-05
5.12363e-05
3.38958e-05
3.64846e-06
3.12779e-07
3.71172e-07
1.65633e-05
1.6562e-05
1.65637e-05
9.61052e-06
3.55381e-07
1.84313e-07
4.06803e-08
1.89747e-08
2.55802e-08
4.78593e-08
9.44671e-08
1.48961e-07
3.80234e-07
7.5024e-10
7.68472e-10
7.02867e-10
5.05225e-11
5.69836e-06
1.11933e-06
8.31717e-09
6.7227e-07
5.96854e-07
2.30398e-06
8.46826e-06
1.54585e-05
1.65624e-05
1.30973e-05
4.95789e-06
3.87415e-07
2.23172e-09
1.63389e-08
1.78186e-08
4.0434e-08
8.03952e-08
1.10783e-07
5.57651e-09
3.69998e-09
2.29955e-09
8.8019e-10
1.59177e-10
1.14513e-10
2.39154e-10
9.50683e-09
2.2169e-07
3.73724e-07
3.61085e-07
3.23113e-08
6.18615e-07
1.02079e-05
1.42705e-05
1.37547e-05
4.28538e-08
2.07127e-09
1.20838e-08
1.47624e-08
2.98283e-08
4.93878e-08
4.43305e-08
2.5848e-08
9.23065e-09
5.72128e-09
3.38114e-09
2.38528e-09
1.98712e-09
3.21996e-09
3.38748e-08
1.00831e-07
3.58383e-09
2.91636e-09
3.53644e-09
4.89202e-08
9.92955e-07
1.25133e-05
1.36385e-05
7.26878e-06
3.59359e-09
3.94934e-09
1.08757e-08
1.91157e-08
2.41443e-08
1.69715e-08
1.80694e-08
1.0138e-08
7.62558e-09
4.8059e-09
3.5731e-09
3.11431e-09
4.04944e-09
1.01234e-08
1.82273e-09
6.7908e-09
3.07967e-09
3.20283e-09
3.06702e-09
6.98246e-09
1.19874e-07
4.46761e-06
3.55932e-06
4.22119e-09
2.75457e-09
8.4307e-09
1.24885e-08
1.3615e-08
1.27031e-08
1.13318e-08
8.24526e-09
6.10309e-09
4.38385e-09
3.45136e-09
2.91735e-09
2.4213e-09
1.79682e-09
1.70011e-09
2.22123e-09
3.40567e-09
3.46977e-09
3.40927e-09
3.03914e-09
3.05588e-09
4.36232e-09
6.95036e-08
9.81265e-08
2.49733e-09
5.62411e-09
8.30099e-09
8.90149e-09
8.53791e-09
7.14203e-09
5.47647e-09
3.73604e-09
2.67627e-09
2.17198e-09
1.92526e-09
1.84447e-09
1.74146e-09
1.82863e-09
2.21493e-09
2.73867e-09
3.14755e-09
3.49325e-09
3.91243e-09
4.33946e-09
6.46804e-09
1.89804e-08
6.92244e-08
2.49898e-09
4.03382e-09
5.43402e-09
5.9381e-09
5.38971e-09
4.15183e-09
2.86006e-09
1.79077e-09
1.36373e-09
1.10189e-09
1.0297e-09
1.05868e-09
1.1636e-09
1.3246e-09
1.53442e-09
1.85385e-09
2.27442e-09
2.8481e-09
3.75294e-09
5.10401e-09
6.98135e-09
1.28021e-08
2.13051e-08
2.47091e-09
2.79641e-09
3.24027e-09
3.0986e-09
2.63568e-09
1.89588e-09
1.19936e-09
8.82106e-10
6.50766e-10
5.40874e-10
5.0385e-10
5.13044e-10
5.67944e-10
6.69459e-10
8.43706e-10
1.07041e-09
1.37545e-09
1.7888e-09
2.30183e-09
3.1922e-09
4.69934e-09
6.58249e-09
1.16655e-08
2.50615e-09
2.40984e-09
2.239e-09
1.84595e-09
1.43553e-09
1.04699e-09
7.42311e-10
5.58903e-10
4.53088e-10
3.56578e-10
2.87018e-10
2.53608e-10
2.65844e-10
3.23891e-10
4.2693e-10
5.7754e-10
7.84467e-10
1.05831e-09
1.42337e-09
1.89146e-09
2.4622e-09
3.92042e-09
5.49366e-09
2.55254e-09
2.15033e-09
1.7855e-09
1.48429e-09
1.24421e-09
1.00336e-09
6.68069e-10
5.37783e-10
4.4776e-10
3.45791e-10
2.50097e-10
1.77302e-10
1.46399e-10
1.57317e-10
2.06937e-10
2.94397e-10
4.23896e-10
5.88227e-10
8.35416e-10
1.14987e-09
1.57161e-09
2.10299e-09
3.01222e-09
2.73831e-09
2.16745e-09
1.74659e-09
1.52612e-09
1.41337e-09
1.22883e-09
7.30081e-10
6.03148e-10
5.28485e-10
4.1831e-10
2.95244e-10
1.84118e-10
1.14752e-10
8.79004e-11
9.81672e-11
1.39747e-10
2.09603e-10
3.16397e-10
4.59127e-10
6.3687e-10
8.58945e-10
1.22575e-09
1.63378e-09
2.83809e-09
2.25323e-09
1.87641e-09
1.69142e-09
1.73051e-09
1.6059e-09
7.81212e-10
6.61026e-10
6.15885e-10
5.08156e-10
3.6957e-10
2.29378e-10
1.26872e-10
6.99957e-11
5.20733e-11
6.38331e-11
9.75633e-11
1.56839e-10
2.43921e-10
3.60081e-10
5.15432e-10
7.22837e-10
9.45667e-10
3.05675e-09
2.42263e-09
2.03236e-09
1.83514e-09
2.25932e-09
2.0027e-09
7.55716e-10
6.89976e-10
6.85602e-10
5.86171e-10
4.44671e-10
2.86131e-10
1.59584e-10
7.86742e-11
3.90593e-11
3.10927e-11
4.43184e-11
7.50329e-11
1.23419e-10
1.9528e-10
2.8714e-10
4.27453e-10
5.84757e-10
3.18687e-09
2.626e-09
2.17782e-09
2.41119e-09
6.50726e-09
1.94335e-09
6.12621e-10
6.99505e-10
7.23459e-10
6.37476e-10
5.00424e-10
3.41367e-10
1.95641e-10
9.86273e-11
4.2513e-11
2.08099e-11
2.07557e-11
3.45363e-11
6.29576e-11
1.08257e-10
1.78338e-10
2.85822e-10
3.82295e-10
3.50252e-09
3.22669e-09
4.71228e-09
2.06427e-08
4.76628e-08
4.37208e-10
5.94975e-10
8.13634e-10
7.22288e-10
6.57304e-10
5.27443e-10
3.72038e-10
2.24803e-10
1.19882e-10
5.21889e-11
2.0327e-11
1.18692e-11
1.71233e-11
3.28377e-11
6.16725e-11
1.09937e-10
1.77336e-10
2.7426e-10
3.75009e-09
2.22509e-08
1.78236e-07
4.55998e-07
1.69571e-07
4.36645e-10
8.00409e-10
1.81534e-09
6.57695e-10
6.20175e-10
5.07052e-10
3.76337e-10
2.37437e-10
1.34137e-10
6.12579e-11
2.41485e-11
9.84571e-12
9.56839e-12
1.82235e-11
3.59608e-11
6.8332e-11
1.29293e-10
1.89496e-10
6.20619e-09
5.81587e-08
3.59313e-07
8.4737e-07
1.72073e-07
4.48944e-10
1.98969e-09
5.52827e-09
5.26532e-10
5.36235e-10
4.56018e-10
3.52821e-10
2.31778e-10
1.32537e-10
6.7546e-11
2.78786e-11
1.00648e-11
6.12217e-12
1.03703e-11
2.19638e-11
4.56145e-11
8.27479e-11
1.38961e-10
6.35142e-09
7.54534e-08
5.32865e-07
8.47257e-07
8.41422e-08
1.1397e-09
1.24918e-08
1.01517e-08
4.78707e-10
4.90446e-10
3.95807e-10
3.06778e-10
2.00719e-10
1.21479e-10
6.51164e-11
2.92231e-11
1.08343e-11
4.54378e-12
5.63328e-12
1.21071e-11
2.68527e-11
6.06631e-11
9.53239e-11
7.64669e-09
8.77267e-08
5.78226e-07
8.51583e-07
1.02511e-07
8.96204e-09
8.94902e-08
1.18816e-08
4.87881e-10
4.62851e-10
3.24891e-10
2.4502e-10
1.63445e-10
9.90242e-11
5.52535e-11
2.69846e-11
1.08438e-11
3.90574e-12
3.02944e-12
6.53731e-12
1.58923e-11
3.2396e-11
6.63944e-11
7.83613e-09
9.35828e-08
6.53972e-07
8.51651e-07
2.80283e-07
9.17148e-08
1.13706e-07
1.32424e-08
5.63074e-10
4.20073e-10
2.45764e-10
1.80398e-10
1.2307e-10
7.25449e-11
4.08972e-11
2.13787e-11
9.55265e-12
3.48606e-12
1.819e-12
3.11687e-12
7.674e-12
2.23376e-11
3.73552e-11
7.14331e-09
1.02035e-07
8.51124e-07
8.51234e-07
1.35349e-07
1.48496e-07
1.19746e-07
1.67691e-08
9.02543e-10
3.40744e-10
1.70486e-10
1.27301e-10
8.3775e-11
4.8296e-11
2.64317e-11
1.42404e-11
7.03624e-12
2.83981e-12
1.20446e-12
1.53094e-12
3.54632e-12
8.59342e-12
2.23971e-11
4.84365e-09
9.11831e-08
8.0305e-07
7.8706e-07
8.65339e-08
1.59549e-07
7.78287e-08
1.39111e-08
1.12531e-09
2.54259e-10
1.10861e-10
8.09023e-11
5.23419e-11
2.85244e-11
1.4771e-11
7.85762e-12
4.18194e-12
1.92295e-12
7.99458e-13
7.44577e-13
1.74633e-12
4.9369e-12
9.82902e-12
4.3105e-09
8.70999e-08
3.82359e-07
2.66472e-07
9.99741e-08
1.56091e-07
5.14402e-08
1.07207e-08
1.09676e-09
1.72296e-10
6.36452e-11
4.60487e-11
2.95889e-11
1.52046e-11
7.13916e-12
3.57585e-12
1.92986e-12
1.00268e-12
4.48202e-13
2.60888e-13
5.22032e-13
1.41295e-12
5.15268e-12
4.31045e-09
6.23091e-08
1.73547e-07
8.3581e-08
8.08284e-08
9.65962e-08
3.75121e-08
8.13448e-09
9.92699e-10
9.32308e-11
3.02209e-11
2.28313e-11
1.48391e-11
7.28293e-12
3.04996e-12
1.33287e-12
6.75984e-13
3.80181e-13
2.03879e-13
1.21377e-13
2.1061e-13
6.54597e-13
1.54895e-12
5.34127e-09
1.76002e-08
4.97681e-08
2.88055e-08
7.91909e-08
4.99691e-08
2.0471e-08
5.07443e-09
7.00622e-10
5.06466e-11
1.11311e-11
9.37527e-12
6.34434e-12
3.06414e-12
1.16313e-12
4.0619e-13
1.77443e-13
9.8181e-14
6.25925e-14
3.99937e-14
4.63389e-14
1.42166e-13
5.68199e-13
6.13413e-09
8.64164e-09
8.53736e-09
4.15666e-08
7.92881e-08
3.71167e-08
1.13742e-08
2.55665e-09
3.83127e-10
2.2953e-11
3.07471e-12
2.95729e-12
2.16846e-12
1.06166e-12
3.79582e-13
1.1105e-13
3.5717e-14
1.69828e-14
1.27241e-14
1.13169e-14
1.34249e-14
4.79902e-14
1.37618e-13
6.1209e-09
8.8577e-09
8.49368e-09
6.28982e-08
5.12697e-08
1.93718e-08
4.80013e-09
9.16246e-10
1.00788e-10
5.5612e-12
5.33402e-13
6.02641e-13
4.97528e-13
2.57966e-13
8.99862e-14
2.27536e-14
5.10496e-15
1.79287e-15
1.66204e-15
2.13724e-15
2.67106e-15
6.67112e-15
3.99782e-14
2.26827e-08
1.36846e-08
4.63823e-08
5.87957e-08
1.65463e-08
2.85473e-09
5.67709e-10
7.17297e-11
5.22952e-12
2.79003e-13
3.73302e-14
5.98518e-14
5.77854e-14
3.25511e-14
1.15771e-14
2.56793e-15
4.17414e-16
1.02099e-16
1.33839e-16
3.03078e-16
6.39264e-16
2.1501e-15
8.53839e-15
0.0106547
0.01282
0.0209421
0.0215086
0.2143
0.246778
0.243254
0.229743
0.969041
0.965905
0.937715
0.932425
0.988827
0.974927
0.981811
0.998449
0.998828
0.996147
0.997125
0.998554
0.999609
0.999609
0.999607
0.999606
0.915286
0.926707
0.940307
0.963198
0.226397
0.250688
0.284992
0.310842
5.15656e-11
-2.56602e-19
3.65306e-19
-3.99223e-20
1.55955e-07
-1.67393e-25
6.78224e-26
-1.35741e-21
1.20553e-06
2.05521e-06
1.73084e-06
4.58302e-07
1.92767e-06
2.35561e-06
2.4587e-06
2.45798e-06
1.77149e-06
2.40437e-06
2.04487e-06
1.69522e-06
4.32641e-07
5.62904e-07
1.06147e-06
2.47203e-06
2.46109e-09
1.01615e-08
5.21092e-08
6.62936e-07
1.03964e-08
7.17729e-09
9.05147e-07
4.0579e-06
1.22057e-08
2.10915e-07
7.01637e-07
1.35094e-06
4.78917e-08
1.34956e-07
4.19759e-07
1.1458e-08
1.35468e-07
1.16646e-07
4.85676e-08
2.86953e-08
1.20277e-07
9.5582e-08
6.36156e-08
4.28946e-08
4.57365e-08
7.17968e-08
7.32217e-08
8.68665e-08
2.08603e-08
2.93192e-08
4.87464e-08
6.35836e-08
8.40681e-09
1.13033e-08
1.51291e-08
2.06951e-08
4.15063e-09
5.04641e-09
6.39921e-09
7.66464e-09
2.04511e-09
2.65427e-09
3.16547e-09
3.71204e-09
1.23047e-09
1.4027e-09
1.58261e-09
1.85028e-09
7.32193e-10
8.74354e-10
9.9811e-10
1.09087e-09
5.22333e-10
5.97246e-10
6.71766e-10
7.71093e-10
3.63181e-10
4.45148e-10
5.18037e-10
5.75497e-10
2.77408e-10
3.39702e-10
3.91732e-10
4.66052e-10
2.00436e-10
2.51763e-10
3.08071e-10
3.62267e-10
1.50835e-10
1.89787e-10
2.27354e-10
2.85203e-10
9.61227e-11
1.26193e-10
1.62986e-10
1.95531e-10
6.73171e-11
8.29026e-11
1.04564e-10
1.35355e-10
3.3645e-11
4.61738e-11
6.33255e-11
7.58522e-11
1.93177e-11
2.48377e-11
3.20251e-11
4.30679e-11
8.41235e-12
1.16419e-11
1.62899e-11
1.94104e-11
3.49967e-12
4.60676e-12
6.16669e-12
8.67099e-12
1.08487e-12
1.59575e-12
2.27015e-12
2.90857e-12
3.33067e-13
4.75594e-13
6.83716e-13
1.01745e-12
8.60409e-14
1.31682e-13
2.00252e-13
2.71026e-13
2.19921e-14
3.32085e-14
4.74291e-14
6.18914e-14
0.0910601
0.0705168
0.040254
0.00643442
0.105408
0.170156
0.0418381
0.0109972
0.00870782
0.0302651
0.069537
0.0167607
0.0167642
0.101825
0.143819
0.0303308
0.0360951
0.0890841
0.214911
0.294644
0.599685
0.606504
0.358915
0.328045
0.167361
0.0323307
0.0075889
0.00758186
0.149653
0.568801
0.409144
0.205368
0.399009
0.0439738
0.0305332
0.0443652
0.165719
0.210238
0.974678
0.993765
0.950232
0.718318
0.659407
0.784823
0.454943
0.0731299
0.176051
0.715069
0.945276
0.904358
0.831088
0.741968
0.306289
0.281959
0.426879
0.719808
0.743829
0.997214
0.994599
0.964225
0.959812
0.984566
0.966739
0.768573
0.401332
0.275904
0.849267
0.980447
0.980135
0.950541
0.920295
0.874352
0.8848
0.963917
0.983096
0.985696
0.995583
0.993059
0.992451
0.990369
0.998878
0.996725
0.913356
0.692437
0.384724
0.632305
0.994714
0.997495
0.99737
0.99626
0.993867
0.965903
0.963757
0.985649
0.992209
0.996438
0.983719
0.992222
0.999046
0.999045
0.999045
0.999044
0.883611
0.698941
0.58074
0.867321
0.99752
0.99752
0.997519
0.997519
0.996875
0.972899
0.986586
0.992223
0.981443
0.959008
0.960406
0.982236
0.995936
0.998606
0.997109
0.99709
0.966411
0.753471
0.78422
0.974343
0.997519
0.997519
0.997518
0.997518
0.996661
0.996502
0.993213
0.368016
0.437009
0.400207
0.44089
0.616014
0.81447
0.924222
0.980069
0.991404
0.99159
0.968226
0.981334
0.99683
0.997519
0.997518
0.997517
0.997516
0.995835
0.993937
-1.47722e-19
0.00106641
4.78913e-05
0.000184378
3.82535e-09
0.038661
0.158627
0.346067
0.736253
0.916959
0.973709
0.996553
0.997086
0.997112
0.996326
0.997029
0.997513
0.994424
0.991795
2.17677e-08
9.38718e-10
9.31027e-10
5.35223e-08
4.89929e-09
-1.14525e-08
9.53103e-11
4.20438e-11
-2.27534e-07
0.0623202
0.236143
0.527164
0.763591
0.890076
0.98048
0.993635
0.992752
0.992075
0.991507
9.16377e-07
6.34937e-07
2.49518e-08
2.84153e-09
1.83402e-09
3.38957e-06
2.33401e-05
2.28844e-05
5.42719e-06
-1.85754e-08
-2.60657e-19
1.64876e-14
0.0163711
0.125558
0.36078
0.613115
0.642094
0.597699
0.568969
1.8004e-06
8.7191e-07
5.12011e-07
3.75265e-09
2.30922e-05
0.000102255
0.000103274
6.91914e-05
8.14878e-06
3.33691e-06
1.38152e-06
5.88976e-07
2.20278e-11
1.42639e-13
1.02117e-13
0.0212682
0.0241233
0.0142535
0.0104397
1.36042e-06
8.06367e-07
6.31778e-05
0.00011314
0.000120752
0.000117705
2.30763e-05
3.12838e-23
-1.94318e-21
-1.25233e-08
2.70071e-06
1.03068e-05
1.40179e-05
8.85376e-06
2.32746e-06
4.1741e-12
-5.32129e-20
-2.71039e-08
-2.78699e-20
1.67739e-05
0.000100255
0.000123339
0.000125655
9.24837e-05
5.73544e-19
-8.52973e-15
-8.66372e-17
-3.93975e-22
8.18641e-05
0.000220973
0.000221133
0.000137082
6.39413e-06
6.08516e-06
1.17554e-05
2.76274e-05
3.2872e-05
-8.6164e-27
5.01189e-05
0.000100909
7.95139e-05
2.22485e-05
1.29573e-06
-9.54079e-13
3.84396e-23
2.68424e-05
0.000197146
0.000219725
0.000220738
0.000221243
7.819e-05
6.69147e-06
8.12308e-06
5.74011e-05
7.02771e-05
6.97992e-05
5.81314e-05
9.51003e-06
1.24778e-06
1.0225e-06
3.47138e-06
3.26975e-06
1.64127e-06
2.13328e-06
0.000150989
0.000220252
0.00022025
0.000203908
2.57619e-05
1.37574e-05
1.63573e-05
2.90785e-05
3.47459e-05
3.43291e-05
5.55219e-05
6.55009e-05
1.18389e-08
1.71179e-07
1.05532e-06
1.46665e-06
1.46223e-06
1.03956e-06
3.76516e-06
3.74943e-05
0.000196613
0.000219057
4.50155e-05
1.58613e-05
1.37224e-05
3.08421e-05
0.000106424
0.000105889
5.51307e-05
5.39304e-05
4.3073e-05
1.18159e-08
1.18284e-08
9.10425e-06
2.23276e-05
1.48861e-05
4.49055e-08
9.21307e-08
9.47325e-06
3.63868e-05
4.18687e-05
1.76791e-05
1.35912e-05
1.35975e-05
1.68203e-05
5.9336e-05
0.000114596
0.000114755
0.000109132
2.0601e-05
1.18284e-08
1.2189e-08
9.05974e-07
2.18682e-05
3.75258e-05
2.56706e-05
1.57508e-08
1.59968e-08
3.73163e-06
7.15971e-06
4.24431e-06
1.73932e-05
2.67456e-05
3.17845e-05
2.17991e-05
4.18212e-05
0.000115177
6.96055e-05
5.43982e-06
5.0743e-08
3.60048e-08
8.63202e-08
1.21433e-06
2.64658e-05
3.70922e-05
3.0619e-05
1.7686e-05
5.15094e-06
2.88026e-08
2.5276e-08
2.53718e-08
3.42686e-05
3.62649e-05
1.64491e-05
1.85094e-05
0.000114379
4.0564e-05
4.97717e-08
1.01941e-07
1.14413e-07
1.07302e-07
1.34269e-07
2.68704e-07
1.79088e-05
3.91172e-05
3.92226e-05
3.91172e-05
1.69377e-05
2.53718e-08
2.52598e-08
1.9384e-05
3.62683e-05
1.6519e-05
1.61712e-05
0.000111425
3.8361e-05
4.97717e-08
7.87468e-08
1.30181e-07
1.46107e-07
1.00607e-07
6.3127e-08
3.17377e-07
7.41963e-06
2.75889e-05
3.22714e-05
1.22089e-05
8.9722e-07
5.48011e-08
3.32311e-06
2.91545e-05
3.58239e-05
4.606e-05
0.00010746
1.67637e-05
4.97717e-08
2.7065e-08
5.22192e-08
8.55795e-08
7.19544e-08
4.6986e-08
5.51476e-08
3.62871e-07
8.30077e-07
1.05044e-06
8.01438e-07
3.00481e-07
5.83655e-08
1.86274e-07
5.74719e-06
2.09855e-05
6.34653e-05
4.74508e-05
9.43326e-07
5.21915e-08
9.40781e-09
1.56101e-08
2.48772e-08
3.67689e-08
3.53533e-08
5.65518e-08
7.96436e-08
1.04164e-07
1.10825e-07
1.06133e-07
9.09999e-08
5.13975e-08
1.09522e-07
2.42207e-08
3.80795e-06
6.46569e-05
1.20006e-05
9.14288e-08
9.129e-08
4.52654e-09
7.07231e-09
1.1185e-08
1.70041e-08
2.419e-08
3.41386e-08
6.08618e-08
1.08404e-07
1.26785e-07
1.18858e-07
8.20081e-08
4.95557e-08
3.54208e-08
2.49831e-08
2.27316e-06
3.15826e-05
2.09443e-06
9.16209e-08
1.37452e-07
2.14874e-09
3.11612e-09
4.73854e-09
7.26254e-09
1.08772e-08
1.4759e-08
1.92522e-08
3.33692e-08
5.34142e-08
6.36183e-08
6.03344e-08
4.20384e-08
3.22313e-08
4.42279e-08
1.29544e-06
5.95744e-07
1.31649e-07
1.2196e-07
1.37651e-07
1.22971e-09
1.63205e-09
2.26601e-09
3.28828e-09
4.98138e-09
7.49902e-09
1.03878e-08
1.44181e-08
2.25807e-08
3.61562e-08
4.54473e-08
3.5304e-08
3.26515e-08
1.26999e-07
2.25915e-07
6.84937e-08
4.8704e-08
1.22247e-07
1.03285e-07
8.50985e-10
1.10443e-09
1.44546e-09
1.93214e-09
2.70987e-09
3.86718e-09
5.76328e-09
8.6489e-09
1.35474e-08
2.21348e-08
2.99771e-08
2.62777e-08
3.03947e-08
1.65337e-07
6.90106e-08
3.09477e-08
3.43429e-08
8.80438e-08
6.29066e-08
6.59445e-10
8.7061e-10
1.13704e-09
1.48421e-09
1.93333e-09
2.60371e-09
3.52897e-09
4.99108e-09
7.73125e-09
1.19979e-08
1.7111e-08
1.79997e-08
2.43676e-08
1.51221e-07
4.09821e-08
2.60044e-08
2.59883e-08
2.65844e-08
5.2171e-08
5.3317e-10
7.28007e-10
9.72133e-10
1.28162e-09
1.67695e-09
2.21949e-09
2.88298e-09
3.76666e-09
5.1085e-09
7.33781e-09
1.02981e-08
1.24359e-08
1.582e-08
6.57815e-08
2.99583e-08
2.59521e-08
3.41978e-08
8.1301e-08
5.31498e-08
4.39585e-10
6.07597e-10
8.42428e-10
1.15359e-09
1.57228e-09
2.14224e-09
2.82743e-09
3.62139e-09
4.54868e-09
5.97804e-09
7.69942e-09
8.38521e-09
8.62308e-09
2.26594e-08
2.71182e-08
1.2932e-07
1.93051e-07
2.33474e-07
1.23742e-07
3.36071e-10
4.90271e-10
6.98253e-10
1.00849e-09
1.48649e-09
2.16034e-09
3.02809e-09
4.05957e-09
5.16172e-09
6.69699e-09
9.2632e-09
1.10926e-08
8.53293e-09
9.13143e-09
1.85043e-08
1.74093e-07
3.55177e-07
3.70593e-07
2.05456e-06
2.53314e-10
3.58223e-10
5.3442e-10
8.21326e-10
1.32434e-09
2.07702e-09
3.27698e-09
4.77673e-09
6.48889e-09
8.16473e-09
1.44239e-08
4.26837e-08
5.99717e-08
8.31624e-09
8.832e-09
6.86406e-08
3.6648e-07
4.14893e-07
2.99753e-06
1.60058e-10
2.42612e-10
3.73691e-10
6.03133e-10
1.05465e-09
1.85917e-09
3.3598e-09
5.58263e-09
8.53046e-09
1.22758e-08
1.75772e-08
5.0505e-08
2.84731e-07
9.7282e-07
9.27607e-07
2.74196e-08
1.74024e-07
3.7227e-07
2.99789e-06
9.95259e-11
1.47193e-10
2.34846e-10
4.00108e-10
7.39264e-10
1.46394e-09
2.90451e-09
5.80457e-09
1.11794e-08
1.70671e-08
2.67339e-08
6.40382e-08
2.91349e-07
5.05015e-06
7.06791e-06
1.50778e-06
1.65986e-07
2.27387e-07
2.66094e-06
5.12294e-11
8.02645e-11
1.30035e-10
2.28047e-10
4.44563e-10
9.35708e-10
2.11059e-09
5.07199e-09
1.10154e-08
2.11846e-08
3.54952e-08
7.13087e-08
1.94687e-07
4.01182e-06
7.10642e-06
6.91644e-06
2.64764e-07
1.87744e-07
2.16588e-07
2.46858e-11
3.91274e-11
6.43514e-11
1.13607e-10
2.33105e-10
5.34131e-10
1.28644e-09
3.25164e-09
7.74349e-09
1.82167e-08
3.66354e-08
7.34463e-08
1.59402e-07
7.72884e-07
6.04093e-06
7.0702e-06
6.10315e-06
1.0971e-06
2.11886e-06
1.04939e-11
1.69976e-11
2.83085e-11
5.19123e-11
1.09625e-10
2.50648e-10
6.75029e-10
1.82194e-09
4.59882e-09
1.26788e-08
2.94982e-08
6.66542e-08
1.29611e-07
2.42249e-07
1.11564e-06
6.90159e-06
6.85281e-06
4.92522e-06
2.94123e-06
4.08695e-12
6.49062e-12
1.10609e-11
2.07876e-11
4.41124e-11
1.03797e-10
2.79056e-10
7.92368e-10
2.21828e-09
6.20803e-09
1.49804e-08
3.90169e-08
9.60222e-08
1.63889e-07
2.15742e-07
1.08935e-06
3.69249e-06
1.69324e-06
6.80992e-07
1.27476e-12
2.13472e-12
3.76079e-12
7.33891e-12
1.6081e-11
4.15968e-11
1.16228e-10
3.49954e-10
1.08502e-09
3.26291e-09
8.58551e-09
2.16096e-08
5.90294e-08
1.26403e-07
1.59188e-07
1.58044e-07
1.41794e-07
2.51186e-07
1.36381e-07
3.5022e-13
5.8681e-13
1.04768e-12
2.09445e-12
4.76435e-12
1.24492e-11
3.70508e-11
1.20743e-10
4.11656e-10
1.40049e-09
4.48496e-09
1.19945e-08
3.44391e-08
9.80598e-08
1.53598e-07
1.04229e-07
9.19628e-08
9.55687e-08
9.50425e-08
7.78129e-14
1.24624e-13
2.17075e-13
4.34477e-13
9.93015e-13
2.61225e-12
8.02689e-12
2.79581e-11
1.07293e-10
4.1644e-10
1.55553e-09
4.97938e-09
1.35005e-08
3.59002e-08
9.98902e-08
1.61321e-07
1.35573e-07
1.16615e-07
1.32615e-07
)
;

boundaryField
{
    leftWall
    {
        type            zeroGradient;
    }
    rightWall
    {
        type            zeroGradient;
    }
    lowerWall
    {
        type            zeroGradient;
    }
    atmosphere
    {
        type            inletOutlet;
        inletValue      uniform 0;
        value           nonuniform List<scalar> 
46
(
2.26827e-08
1.36846e-08
4.63823e-08
5.87957e-08
0
0
0
0
0
0
0
0
0
0
0
0
0
0
0
0
0
2.1501e-15
8.53839e-15
2.19921e-14
0
0
0
0
0
0
0
0
0
0
0
0
0
1.55553e-09
4.97938e-09
1.35005e-08
3.59002e-08
9.98901e-08
1.61321e-07
1.35573e-07
1.16615e-07
1.32615e-07
)
;
    }
    defaultFaces
    {
        type            empty;
    }
}


// ************************************************************************* //
