/*--------------------------------*- C++ -*----------------------------------*\
| =========                 |                                                 |
| \\      /  F ield         | OpenFOAM: The Open Source CFD Toolbox           |
|  \\    /   O peration     | Version:  2312                                  |
|   \\  /    A nd           | Website:  www.openfoam.com                      |
|    \\/     M anipulation  |                                                 |
\*---------------------------------------------------------------------------*/
FoamFile
{
    version     2.0;
    format      ascii;
    arch        "LSB;label=32;scalar=64";
    class       volScalarField;
    location    "4.15";
    object      alpha.air;
}
// * * * * * * * * * * * * * * * * * * * * * * * * * * * * * * * * * * * * * //

dimensions      [0 0 0 0 0 0 0];

internalField   nonuniform List<scalar> 
2268
(
8.29773e-10
7.75886e-10
7.29586e-10
5.63945e-10
3.0382e-10
1.50399e-10
6.92308e-11
6.0245e-11
5.93303e-11
5.9874e-11
6.77454e-11
8.30613e-11
1.05715e-10
1.44676e-10
1.99876e-10
2.67735e-10
3.12968e-10
2.88761e-10
1.98906e-10
1.98873e-10
5.15766e-08
3.96612e-07
5.55284e-07
1.11853e-09
1.74639e-09
1.88769e-09
1.51359e-09
4.00661e-10
1.1802e-10
1.48527e-10
3.35089e-10
3.78898e-10
2.9919e-10
3.33756e-10
4.22862e-10
3.72466e-10
5.10766e-10
9.06435e-10
1.45266e-09
2.32236e-09
2.64427e-09
2.00417e-09
2.05921e-10
2.4913e-07
9.18899e-07
9.17691e-07
1.20799e-09
1.92089e-09
1.87289e-09
5.70796e-10
1.44974e-10
1.90295e-10
8.3006e-10
2.16387e-09
1.81855e-09
8.26064e-10
1.58111e-09
3.07573e-09
1.433e-09
1.39675e-09
3.78279e-09
3.00399e-09
1.01982e-08
1.20626e-08
1.82509e-08
7.00508e-08
1.78525e-07
1.96822e-07
2.28387e-07
7.42714e-10
1.32899e-09
5.42518e-09
3.32185e-08
1.12338e-07
1.29742e-07
7.45742e-08
2.73955e-08
8.69419e-09
5.90071e-09
7.67319e-09
9.75874e-09
8.80994e-09
1.37678e-09
8.57784e-09
3.90023e-09
3.53272e-09
2.69096e-09
2.3646e-09
2.20769e-09
2.231e-09
4.08516e-05
0.00136973
3.97807e-10
3.97686e-10
6.00322e-10
3.55063e-09
2.69393e-08
9.03857e-08
6.82828e-07
5.27389e-06
1.13476e-05
1.72708e-05
1.04711e-05
7.62912e-07
3.97046e-07
2.23438e-06
8.63876e-09
0.0001932
0.00153653
0.00300579
0.00355069
0.00268129
0.000528829
0.00357343
0.00610924
1.0175e-09
2.71778e-08
4.18571e-10
3.85939e-10
3.92682e-10
3.85939e-10
6.98739e-07
6.64084e-05
0.000167788
0.000192883
0.000166788
8.55973e-05
2.65984e-05
4.35032e-05
0.000267908
0.000889173
0.00512551
0.011424
0.012873
0.0128701
0.00892833
0.00635586
0.00610789
0.00040615
0.000932621
0.00107602
0.00089821
0.000304569
8.45878e-07
5.7999e-06
4.84328e-05
0.000176905
0.000190495
0.00018637
0.000163519
6.24914e-05
6.58739e-05
0.000571592
0.00108465
0.000971254
0.00267482
0.00750629
0.012035
0.01254
0.00546045
0.00463569
0.00132704
0.00132704
0.00132704
0.00132704
0.0013234
0.000680819
0.000159654
0.000111657
8.1761e-05
6.04127e-05
4.31707e-05
4.30704e-05
5.9091e-05
4.74832e-05
5.1415e-05
5.36407e-05
3.9537e-05
4.17356e-05
0.00138077
0.00591164
0.00929284
0.00847287
0.00464406
0.000229968
0.00106143
0.00283477
0.00797931
0.00917632
0.00917412
0.00796151
0.00388758
0.00363905
0.0036186
0.00361698
0.00326932
0.00265541
0.00248926
0.00248914
0.00259701
0.00629807
0.00607323
0.00607323
0.000277835
0.000275531
0.000758042
0.00144401
0.00178407
0.00176945
0.0034582
0.00748943
0.00867241
0.0059969
0.00348243
0.00347297
0.0027911
0.00248922
0.00248863
0.00377039
0.00777298
0.00824214
0.00622531
0.00213756
0.0044525
0.00368436
0.00379405
0.00419209
0.00330316
0.00571947
0.0172896
0.0186927
0.0173275
0.00456833
0.00332212
0.00269398
0.00263394
0.00273958
0.00530145
0.0117446
0.0142099
0.0141822
0.00162768
0.00712265
0.00876615
0.00636722
0.00447512
0.0041952
0.00408273
0.00416505
0.0183343
0.0186857
0.0184887
0.0231784
0.022093
0.0175951
0.0170151
0.0264439
0.0266589
0.0251859
0.0158359
0.00157884
0.00581694
0.00872321
0.0210214
0.029298
0.0283184
0.0130161
0.00610723
0.00660908
0.00814658
0.00666887
0.0084106
0.0216497
0.0218889
0.020714
0.0259398
0.0254257
0.0259061
0.0181604
0.00242899
0.00214467
0.00211342
0.00291021
0.0380408
0.0424454
0.0405971
0.0081547
0.00408556
0.0037772
0.00377848
0.00377721
0.019114
0.0204516
0.0158209
0.0158584
0.0160697
0.025276
0.018131
0.00289006
0.00211973
0.002114
0.00217745
0.00742753
0.0421645
0.0370086
0.0161995
0.00379335
0.0037785
0.00536131
0.00687279
0.00999794
0.0110927
0.028065
0.0363034
0.0451724
0.0446532
0.0288982
0.00252982
0.00229892
0.00211171
0.00211209
0.00211171
0.0364158
0.0210443
0.00513503
0.00403782
0.00664984
0.017412
0.0168231
0.0101345
0.0106382
0.0870043
0.0872936
0.0550708
0.0359958
0.0133363
0.000507518
0.000669047
0.000835037
0.000775747
0.000518558
0.000252877
0.000234726
0.000246418
0.000246147
0.000161998
8.90628e-05
0.000105041
0.000161648
6.70221e-05
5.41799e-05
5.02835e-05
3.94061e-05
0.000792034
0.00254309
0.00917799
0.0106128
0.0140944
0.0214519
0.000266088
0.000266288
0.000266986
0.000275812
0.00023412
0.000219016
0.000217458
0.000203314
0.000202503
0.000253942
0.00101468
0.00136486
0.00160251
0.00238382
0.0044568
0.00841447
0.0119004
0.0200081
0.0263966
0.0354648
0.0618779
0.061901
0.0570276
0.00026606
0.000267588
0.000287376
0.000540882
0.000888191
0.00150567
0.00284464
0.00745587
0.0171666
0.0343519
0.0515547
0.052424
0.0376706
0.020421
0.039042
0.0734077
0.0866589
0.0860967
0.0853275
0.0844649
0.0702968
0.0459977
0.0145353
0.0390617
0.0206917
0.0142993
0.016343
0.0314345
0.059881
0.0730637
0.0739359
0.0739359
0.0739359
0.0739358
0.0739327
0.0421726
0.0196374
0.0534191
0.0904773
0.0904974
0.0605254
0.0151969
0.00626935
0.000144367
0.000167132
0.000370109
0.0465399
0.0465705
0.0269282
0.0137011
0.0224854
0.0315806
0.0287233
0.0200771
0.025216
0.0679348
0.0731385
0.0182803
0.00027314
0.000392701
0.00628046
0.0663099
0.0599979
0.000370251
0.000190145
0.000189252
0.000143542
0.000100858
0.000201485
0.00782547
0.00784778
0.00309797
0.0030784
0.0028823
0.00255142
0.000937072
0.00099146
0.001153
0.00225234
0.000327726
0.000290317
0.000238609
0.0002381
0.000238382
0.000271113
0.000264835
0.000220524
0.000125436
4.72443e-05
3.89579e-05
3.83614e-05
3.89682e-05
0.377334
0.39254
0.400387
0.406374
0.398569
0.366132
0.318343
0.243853
0.187188
0.150249
0.118831
0.0952232
0.0842363
0.084897
0.0822129
0.0815896
0.0923898
0.104989
0.105535
0.10317
0.100557
0.093784
0.0857727
0.99935
0.991051
0.988108
0.988953
0.987642
0.975818
0.961249
0.942568
0.914553
0.886713
0.855459
0.834368
0.825643
0.826035
0.822894
0.821967
0.827171
0.825916
0.828559
0.840092
0.835182
0.810108
0.777909
0.999803
1
0.999994
0.999764
0.999569
0.999768
0.999978
0.999976
0.999808
0.999183
0.996762
0.996394
0.99809
0.999107
0.999554
0.999768
0.999646
0.999444
0.997971
0.999087
0.999012
0.997115
0.994429
1
1
1
1
1
0.999998
0.999997
0.999998
0.999998
0.999999
1
1
1
1
1
1
0.999999
0.999979
0.999982
0.999994
0.999997
0.999997
0.99998
1
1
1
0.999998
0.999998
0.999998
0.999997
0.999991
0.999985
0.999993
0.999999
1
1
0.999999
0.999999
0.999998
0.999994
0.999986
0.999985
0.999994
0.999998
0.999999
0.999999
1
1
1
0.999999
0.999999
0.999999
0.999988
0.999936
0.999932
0.999948
0.999994
0.999983
0.999973
0.999987
0.999995
0.999995
0.999995
0.999995
0.999992
0.999993
0.999998
0.999999
0.999999
1
1
1
1
1
0.999997
0.999951
0.999932
0.999932
0.999934
0.999946
0.999929
0.999929
0.999978
0.999996
0.999996
0.999995
0.999981
0.999966
0.999971
0.999997
0.999999
0.999999
1
1
1
1
1
0.999998
0.99999
0.999969
0.999951
0.99994
0.99993
0.99993
0.999947
0.999977
0.999984
0.999991
0.999978
0.999963
0.999963
0.99997
0.999998
0.999999
0.999999
1
1
1
1
1
1
1
1
1
0.999998
0.999987
0.999987
0.999985
0.999981
0.999981
0.99998
0.999982
0.999969
0.999963
0.999967
0.999994
0.999999
0.999998
1
1
1
1
1
1
1
1
1
1
1
1
1
0.999996
0.999994
0.999999
0.999999
0.999997
0.999971
0.999966
0.999977
0.999999
0.999999
1
1
1
1
1
1
1
1
1
1
1
1
1
1
1
1
1
1
0.999997
0.999973
0.999973
0.999988
1
1
1
1
1
1
1
1
1
1
1
1
1
1
1
1
1
1
1
1
1
0.999991
0.999995
1
1
1
1
1
1
1
1
1
1
1
1
1
1
1
1
1
1
1
1
1
1
1
1
1
1
1
1
1
1
1
1
1
1
1
1
1
1
1
1
1
1
1
1
1
1
1
1
1
1
1
1
1
1
1
1
1
1
1
1
1
1
1
1
1
1
1
1
1
1
1
1
1
1
1
1
1
1
1
1
1
1
1
1
1
1
1
1
1
1
1
1
1
1
1
1
1
1
1
1
1
1
1
1
1
1
1
1
1
1
1
1
1
1
1
1
1
1
1
1
1
1
1
1
1
1
1
1
1
1
1
1
1
1
1
1
1
1
1
1
1
1
1
1
1
1
1
1
1
1
1
1
1
1
1
1
1
1
1
1
1
1
1
1
1
1
1
1
1
1
1
1
1
1
1
1
1
1
1
1
1
1
1
1
1
1
1
1
1
1
1
1
1
1
1
1
1
1
1
1
1
1
1
1
1
1
1
1
1
1
1
1
1
1
1
1
1
1
1
1
1
1
1
1
1
1
1
1
1
1
1
1
1
1
1
1
1
1
1
1
1
1
1
1
1
1
1
1
1
1
1
1
1
1
1
1
1
1
1
1
1
1
1
1
1
1
1
1
1
1
1
1
1
1
1
1
1
1
1
1
0.999999
0.999999
0.999999
0.999999
1
1
1
1
1
1
1
1
1
1
1
1
1
1
1
1
1
1
0.999999
0.999999
0.999999
0.999999
0.999999
1
1
1
1
1
1
1
1
1
1
1
1
1
1
1
1
1
1
0.999999
0.999999
0.999999
0.999999
1
1
1
1
1
1
1
1
1
1
1
1
1
1
1
1
1
1
1
0.999999
0.999999
0.999999
1
1
1
1
1
1
1
1
1
1
1
1
1
1
1
1
1
1
1
1
0.999999
0.999999
1
1
1
1
1
1
1
1
1
1
1
1
1
1
1
1
1
1
1
1
1
0.999999
0.999999
1
1
1
1
1
1
1
1
1
1
1
1
1
1
1
1
1
1
1
1
1
1
1
1
1
1
1
1
1
1
1
1
1
1
1
1
1
1
1
1
1
1
1
1
1
1
1
1
1
1
1
1
1
1
1
1
1
1
1
1
1
1
1
1
1
1
1
1
1
1
1
1
1
1
1
1
1
1
1
1
1
1
1
1
1
1
1
1
1
1
1
1
1
1
1
1
1
1
1
1
1
1
1
1
1
1
1
1
1
1
1
1
1
1
1
1
1
1
1
1
1
1
1
1
1
1
1
1
1
1
1
1
1
1
1
1
1
1
1
1
1
1
1
1
1
1
1
1
1
1
1
1
1
1
1
1
1
0.0157621
0.0105325
0.00274979
0.00229862
0.0207335
0.00232862
0.00231189
0.00229232
0.00235856
0.00234505
0.0177762
0.0263103
0.0110898
0.0249085
0.0177024
8.36405e-13
0.00108604
0.00376623
0.0022387
1.06761e-13
6.70832e-05
0.00011813
0.000119265
1.62669e-05
0.0762641
0.0674746
0.0537465
0.0328119
0.756813
0.732534
0.700214
0.676905
0.992217
0.99272
0.995592
0.995346
0.99998
0.999989
0.999991
0.999993
0.999998
0.999996
0.999996
0.999992
0.999998
0.999997
0.999996
0.999995
0.999998
0.999997
0.999998
0.999998
0.999999
0.999999
0.999998
0.999996
0.999999
0.999999
0.999998
0.999971
0.999999
0.999999
0.999997
0.99997
0.999999
0.999999
0.999999
0.999995
1
1
0.999999
1
1
1
1
1
1
1
1
1
1
1
1
1
1
1
1
1
1
1
1
1
1
1
1
1
1
1
1
1
1
1
1
1
1
1
1
1
1
1
1
1
1
1
1
1
1
1
1
1
1
1
1
1
1
1
1
1
1
1
1
1
1
1
1
1
1
1
1
1
1
1
1
1
1
1
1
1
1
1
1
1
1
1
1
1
1
1
1
1
1
1
1
1
1
1
1
1
0.0027112
0.0100674
0.00628409
0.00211171
0.0229222
0.0325415
0.0153647
0.0153921
0.0162484
0.0188197
0.056817
0.0443691
0.023784
0.0684633
0.0909462
0.0808204
0.0487602
0.0110784
0.0111599
0.0180129
0.0197885
0.0128187
0.0221214
0.0410497
0.0409994
0.0274726
0.0487129
0.0312089
0.0296112
0.0635203
0.0932677
0.0933196
0.0933306
0.0740508
0.0531542
0.0362897
0.0110914
0.0110939
0.0231357
0.00406446
0.0339516
0.0387152
0.0378995
0.0281199
0.141973
0.187503
0.165507
0.0395888
0.0324217
0.0680746
0.0933735
0.0933626
0.0870719
0.0259409
0.0190652
0.0213964
0.0213344
2.17983e-13
0.00457479
0.035349
0.038665
0.00127104
0.0222179
0.187503
0.187503
0.187503
0.057498
0.0015836
0.00495927
0.0325512
0.0619464
0.067737
0.0566448
0.0189963
0.00647396
0.00371089
4.18221e-14
0.000960602
0.00662221
0.00890826
0.000299362
7.82156e-05
0.0773903
0.187503
0.187503
0.14745
0.000897028
0.000890519
0.00087923
0.00190385
0.00456174
0.0319494
0.033446
0.0110815
0.00250061
2.18048e-13
1.72366e-10
4.95164e-06
0.000214184
8.27111e-05
2.39535e-05
0.000422825
0.104243
0.180654
0.173345
0.0756506
0.00169104
0.00111293
0.00106256
0.00158275
0.002746
0.0267171
0.0115413
0.00250106
0.016248
0.0258602
0.0187194
0.00385405
-9.95424e-09
-5.03868e-08
1.79205e-05
0.00158361
0.0320367
0.171187
0.147267
0.0155942
0.0010538
0.000789203
0.00123944
0.00210294
0.00295999
0.00211209
0.00144952
0.62728
0.555311
0.579767
0.537604
0.363261
0.17392
0.0697832
0.0171425
0.00760458
0.00749228
0.0261282
0.0142973
0.000545224
9.35077e-05
6.32267e-05
0.000408969
0.000965289
0.000229991
0.00014711
0.995763
0.994081
0.990595
0.992988
0.990297
0.947292
0.825948
0.638433
0.25473
0.078086
0.0226168
0.00146303
0.000353028
2.16452e-09
2.78255e-13
2.8447e-20
4.20397e-06
-3.43359e-11
3.4336e-11
0.999568
0.999792
0.999996
0.999997
0.999996
0.999993
0.999059
0.993476
0.982773
0.91953
0.745102
0.464623
0.231835
0.105303
0.0129758
1.865e-18
2.90145e-20
7.49378e-18
4.08544e-17
0.999984
0.999984
0.999996
0.999999
0.999998
0.999994
0.999977
0.999977
0.999995
0.999497
0.998353
0.994852
0.977344
0.869647
0.632398
0.376338
0.347361
0.39398
0.423906
0.999993
0.999995
0.999997
0.999994
0.999965
0.999892
0.999894
0.999929
0.999992
0.999997
0.999998
0.999875
0.99971
0.999198
0.998295
0.971689
0.967161
0.978352
0.982805
0.999998
0.999998
0.999914
0.999859
0.99986
0.99988
0.999975
0.999999
1
1
0.999996
0.999988
0.999983
0.99999
0.999983
0.999562
0.998517
0.996964
0.997508
0.999976
0.999852
0.999842
0.999862
0.999906
0.999998
1
1
0.999999
0.999907
0.999751
0.999749
0.999852
0.999993
0.999993
0.999988
0.999972
0.999957
0.999947
0.999896
0.999847
0.999897
0.999976
0.999996
0.999997
0.999999
0.999963
0.999771
0.999748
0.999748
0.99975
0.999899
0.999977
0.999992
0.999942
0.999928
0.999924
0.999928
0.999937
0.999946
0.999987
0.999994
0.999995
0.999995
0.999994
0.999838
0.999755
0.999749
0.999775
0.99996
0.99997
0.999967
0.999963
0.99996
0.99996
0.999934
0.999922
0.999975
0.999953
0.99999
0.999994
0.999994
0.999993
0.999994
0.999958
0.999797
0.999779
0.999954
0.99998
0.999981
0.999967
0.999891
0.999883
0.999927
0.999927
0.99994
0.999997
0.999987
0.999982
0.999973
0.999981
0.999993
0.999991
0.999975
0.999947
0.99993
0.999942
0.999965
0.999981
0.999982
0.99994
0.999879
0.999871
0.999871
0.999969
1
1
0.999998
0.999977
0.99996
0.999971
0.999991
0.999971
0.999943
0.99994
0.999942
0.999929
0.99992
0.999942
0.999977
0.999957
0.999877
0.999915
0.999989
1
1
1
0.999999
0.999973
0.999962
0.999966
0.999967
0.999969
0.999977
0.99998
0.99998
0.99992
0.999918
0.999969
0.999977
0.999881
0.999957
0.999999
1
1
1
1
1
0.999982
0.99996
0.999958
0.999958
0.999981
0.999998
0.999998
0.999971
0.999918
0.999935
0.999974
0.999882
0.99996
1
1
1
1
1
1
1
0.999993
0.999972
0.999967
0.999988
0.999999
0.999999
0.999995
0.999936
0.999916
0.999918
0.999884
0.999981
1
1
1
1
1
1
1
1
0.999999
0.999998
0.999999
0.999999
1
1
0.999974
0.999931
0.999905
0.999942
0.999996
1
1
1
1
1
1
1
1
1
0.999999
0.999999
1
1
1
0.999999
0.99997
0.999911
0.999982
0.999997
1
1
1
1
1
1
1
1
1
1
1
1
1
1
1
0.999998
0.999967
0.999996
0.999999
1
1
1
1
1
1
1
1
1
1
1
1
1
1
1
0.999999
0.999999
1
1
1
1
1
1
1
1
1
1
1
1
1
1
1
1
1
1
1
1
1
1
1
1
1
1
1
1
1
1
1
1
1
1
1
1
1
1
1
1
1
1
1
1
1
1
1
1
1
1
1
1
1
1
1
1
1
1
1
1
1
1
1
1
1
1
1
1
1
1
1
1
1
1
1
1
1
1
1
1
1
1
1
1
1
1
1
1
1
1
1
1
1
1
1
1
1
1
1
1
1
1
1
1
1
1
1
1
1
1
1
1
1
1
1
1
0.999998
1
1
1
1
1
1
1
1
1
1
1
1
1
1
1
1
1
1
0.999997
1
1
1
1
1
1
1
1
1
1
1
1
1
0.999999
0.999999
1
1
1
0.999997
1
1
1
1
1
1
1
1
1
1
1
1
1
0.999995
0.999993
0.999998
1
1
0.999997
1
1
1
1
1
1
1
1
1
1
1
1
1
0.999996
0.999993
0.999993
1
1
0.999999
1
1
1
1
1
1
1
1
1
1
1
1
1
0.999999
0.999994
0.999993
0.999994
0.999999
0.999998
1
1
1
1
1
1
1
1
1
1
1
1
1
1
0.999999
0.999993
0.999993
0.999995
0.999997
1
1
1
1
1
1
1
1
1
1
1
1
1
1
1
0.999999
0.999996
0.999998
0.999999
1
1
1
1
1
1
1
1
1
1
1
1
1
1
1
1
1
1
1
1
1
1
1
1
1
1
1
1
1
1
1
1
1
1
1
1
1
1
1
1
1
1
1
1
1
1
1
1
1
1
1
1
1
1
1
1
1
)
;

boundaryField
{
    leftWall
    {
        type            alphaContactAngle;
        thetaProperties 
6
(
(galistan air) 90 0 0 0
(oil galistan) 90 0 0 0
(water oil) 90 0 0 0
(water air) 90 0 0 0
(oil air) 90 0 0 0
(water galistan) 90 0 0 0
);
        value           nonuniform List<scalar> 
50
(
8.29773e-10
1.11853e-09
1.20799e-09
7.42714e-10
3.97807e-10
1.0175e-09
0.00040615
0.00132704
0.000507518
0.000266088
0.00026606
0.0390617
0.0465399
0.00782547
0.377334
0.99935
0.999803
1
1
1
1
1
1
1
1
1
1
1
1
1
1
1
1
1
1
1
1
1
1
1
1
1
1
1
1
1
1
1
1
1
)
;
    }
    rightWall
    {
        type            alphaContactAngle;
        thetaProperties 
6
(
(galistan air) 90 0 0 0
(oil galistan) 90 0 0 0
(water oil) 90 0 0 0
(water air) 90 0 0 0
(oil air) 90 0 0 0
(water galistan) 90 0 0 0
);
        value           nonuniform List<scalar> 
50
(
0.00607323
0.00622531
0.0141822
0.0158359
0.0181604
0.018131
0.0288982
0.0133363
0.0111599
0.0110939
0.0213344
0.00371089
0.00250061
0.00250106
0.00144952
0.00014711
3.4336e-11
4.08544e-17
0.423906
0.982805
0.997508
0.999947
0.999928
0.999922
0.99994
0.999969
0.999989
0.999999
1
1
1
1
1
1
1
1
1
1
1
0.999998
0.999997
0.999997
0.999997
0.999999
0.999998
0.999997
0.999999
1
1
1
)
;
    }
    lowerWall
    {
        type            alphaContactAngle;
        thetaProperties 
6
(
(galistan air) 90 0 0 0
(oil galistan) 90 0 0 0
(water oil) 90 0 0 0
(water air) 90 0 0 0
(oil air) 90 0 0 0
(water galistan) 90 0 0 0
);
        value           nonuniform List<scalar> 
62
(
8.29773e-10
7.75886e-10
7.29586e-10
5.63945e-10
3.0382e-10
1.50399e-10
6.92308e-11
6.0245e-11
5.93303e-11
5.9874e-11
6.77454e-11
8.30613e-11
1.05715e-10
1.44676e-10
1.99876e-10
2.67735e-10
3.12968e-10
2.88761e-10
1.98906e-10
1.98873e-10
5.15766e-08
3.96612e-07
5.55284e-07
5.55284e-07
9.17691e-07
2.28387e-07
0.00136973
0.00610924
0.00610789
0.00463569
0.00464406
0.0157621
0.0105325
0.00274979
0.00229862
0.000229968
0.000277835
0.00213756
0.00162768
0.00157884
0.00242899
0.00289006
0.00252982
0.000229968
0.00106143
0.00283477
0.00797931
0.00917632
0.00917412
0.00796151
0.00388758
0.00363905
0.0036186
0.00361698
0.00326932
0.00265541
0.00248926
0.00248914
0.00259701
0.00629807
0.00607323
0.00607323
)
;
    }
    atmosphere
    {
        type            inletOutlet;
        inletValue      uniform 1;
        value           nonuniform List<scalar> 
46
(
1
1
1
1
1
1
1
1
1
1
1
1
1
1
1
1
1
1
1
1
1
1
1
1
1
1
1
1
1
1
1
1
1
1
1
1
1
1
1
1
1
1
1
1
1
1
)
;
    }
    defaultFaces
    {
        type            empty;
    }
}


// ************************************************************************* //
