/*--------------------------------*- C++ -*----------------------------------*\
| =========                 |                                                 |
| \\      /  F ield         | OpenFOAM: The Open Source CFD Toolbox           |
|  \\    /   O peration     | Version:  2312                                  |
|   \\  /    A nd           | Website:  www.openfoam.com                      |
|    \\/     M anipulation  |                                                 |
\*---------------------------------------------------------------------------*/
FoamFile
{
    version     2.0;
    format      ascii;
    arch        "LSB;label=32;scalar=64";
    class       volScalarField;
    location    "4.15";
    object      alpha.galistan;
}
// * * * * * * * * * * * * * * * * * * * * * * * * * * * * * * * * * * * * * //

dimensions      [0 0 0 0 0 0 0];

internalField   nonuniform List<scalar> 
2268
(
1
1
1
1
1
1
1
1
1
1
1
1
1
1
1
1
1
1
1
0.999993
0.999958
0.999954
0.999954
1
1
1
1
1
1
1
1
1
1
1
1
1
1
1
1
1
1
1
1
0.999995
0.99998
0.99998
1
1
1
1
1
1
1
1
1
1
1
1
1
1
1
1
0.999999
0.999999
0.999999
1
1
1
1
1
1
1
1
1
1
1
1
1
1
1
1
1
1
1
1
1
1
1
1
1
0.999959
0.99863
1
1
1
1
1
1
0.999999
0.999983
0.999929
0.999904
0.999939
0.999951
0.999998
0.999632
0.996174
0.989744
0.97685
0.962584
0.950172
0.938633
0.932412
0.923944
0.907015
1
1
1
1
0.999974
0.999908
0.999382
0.982833
0.936557
0.86995
0.794413
0.718751
0.646109
0.562181
0.488022
0.422416
0.370513
0.323415
0.288498
0.259123
0.234757
0.220117
0.217722
0.994841
0.994148
0.99618
0.994986
0.914654
0.772786
0.575487
0.370695
0.226359
0.132377
0.0702099
0.0292291
0.00246828
1.01702e-09
6.22399e-15
1.93331e-15
5.07579e-14
3.54301e-14
3.29801e-14
2.86229e-11
1.47783e-10
5.67039e-08
0.00022723
0.78536
0.717276
0.581628
0.382902
0.211125
0.0853541
0.0132992
5.68449e-05
5.26469e-05
1.1572e-05
2.82828e-06
-1.28214e-07
-3.8202e-09
-1.67997e-09
4.70309e-07
7.03652e-05
1.12094e-05
1.04573e-05
4.92308e-05
0.000193445
0.000202808
0.000210268
0.000210726
0.95773
0.95773
0.95773
0.95773
0.95773
0.956653
0.953259
0.956257
0.956258
0.956257
0.955672
0.955631
0.956286
0.961178
0.9647
0.964202
0.962194
0.961795
0.961707
0.845446
0.918892
0.916997
0.912534
0.916413
0.927583
0.942427
0.948129
0.948756
0.938901
0.962185
0.965854
0.965893
0.965905
0.965849
0.964821
0.96258
0.956171
0.946086
0.38625
0.351261
0.300883
0.282557
0.312773
0.399932
0.506281
0.601788
0.618433
0.625197
0.647066
0.730019
0.795725
0.783642
0.716944
0.6847
0.671006
0.622005
0.556116
0.00555489
0.0128881
0.0186988
0.0204919
0.023179
0.0179045
0.0162334
0.0242707
0.0737567
0.148221
0.223814
0.299662
0.391761
0.429816
0.416224
0.317104
0.200137
0.157708
0.17475
0.00299096
0.0135845
0.0125763
0.0228073
0.0323786
0.0324267
0.027139
0.00859621
2.80697e-05
2.80985e-05
2.80697e-05
0.000171554
0.0169107
0.0378047
0.0166699
0.000863501
0.00087758
0.000863392
0.000881948
0.000736628
0.00425702
8.0367e-05
0.000452773
0.0247766
0.0485866
0.0489029
0.0229532
0.00448754
2.80697e-05
0.000260833
0.00218148
0.00102316
0.000993955
0.000964659
0.000936077
0.00137217
0.00163206
0.00115045
0.000745712
0.000353576
8.08716e-05
0.000129076
4.45623e-05
0.0144576
0.0332259
0.0309148
0.00365343
0.000241594
0.00176423
0.00400996
0.00128488
0.00103029
0.00311539
0.00666393
0.00612895
0.00398318
0.00117021
0.000946937
0.000804995
0.00117368
0.000651094
7.63193e-05
1.45067e-05
0.00235658
0.00846416
0.00563515
0.00286876
0.00299823
0.00373564
0.00152463
0.00106689
0.0148243
0.0147511
0.00613811
0.00313587
0.00111504
0.0402066
0.0254342
0.00830012
0.00029429
-1.75764e-09
-1.62847e-23
4.25312e-10
1.99956e-05
4.6744e-05
6.0225e-05
6.00456e-05
6.01903e-05
2.80164e-05
-2.88842e-23
0.000505537
0.00108369
0.00106207
0.000638431
0.000653475
0.00130993
0.00138851
0.00119012
0.000724481
2.75719e-05
2.43362e-05
1.01263e-05
3.58561e-07
4.05552e-05
6.42915e-05
7.71989e-05
0.000100354
9.18937e-05
3.92631e-05
1.21187e-05
6.7534e-06
5.29783e-06
-7.47469e-12
0.00129928
0.00225882
0.00222632
0.00151753
0.00184369
0.00263002
0.0050073
0.00515994
0.00515823
4.15886e-05
2.38578e-05
4.36966e-06
1.89998e-07
5.71484e-05
0.000112528
0.000268787
0.000271516
9.64852e-05
7.18818e-05
0.00021852
0.000529236
0.000458737
0.000497171
0.00198489
0.00225852
0.00127641
0.00373872
0.00584322
0.00584384
0.00563492
0.00485747
0.00431517
0.00041521
0.000138565
0.000184137
0.00101949
0.00252364
0.00259514
0.00164528
0.000178697
7.11581e-05
9.3954e-05
0.00050814
0.00116349
0.0011471
0.000955438
0.000208969
0.000128879
0.00091056
0.00284079
0.00280681
0.00137365
0.000264423
0.0002312
8.26081e-05
0.000588345
0.00058505
0.000913552
0.00235019
0.00259525
0.00259509
0.00258394
0.000518988
7.11599e-05
7.30495e-05
0.000225923
0.000222583
0.000122498
1.99507e-05
1.99188e-05
0.000133392
0.000552029
1.31371e-05
0.000135868
0.000119723
0.000110218
0.000213259
0.000182619
0.000498289
0.000426398
0.000295036
0.000343013
0.000625318
0.000718319
0.000576669
0.000298136
0.000169871
0.000120916
8.64917e-05
2.22731e-05
2.15669e-05
2.13769e-05
4.59096e-05
4.34771e-05
1.62069e-05
4.60304e-06
5.87474e-08
5.80923e-08
5.78086e-08
2.46623e-05
0.000140117
0.000115297
0.00011477
0.000185036
0.000355631
0.000471981
0.00041144
0.000411452
0.000449141
0.000585977
0.000596878
0.000382857
3.68739e-05
8.65701e-05
0.000432839
0.000644263
0.000622939
0.000559744
0.000267826
1.29794e-05
7.90106e-07
7.6935e-08
7.5153e-08
1.37e-07
8.4696e-05
0.00024377
0.000385888
0.000501393
0.000505587
0.000510433
0.000580138
0.000612226
0.000614164
0.000523751
0.000105243
1.78073e-05
0.000344607
0.00098346
0.00102195
0.00103617
0.00103524
0.000741522
8.95776e-05
3.01548e-05
1.64913e-05
1.10281e-05
2.01109e-06
1.86306e-05
2.31117e-09
2.76199e-06
8.88692e-05
0.000148592
0.000109484
5.45853e-09
9.3102e-10
9.24549e-10
9.34159e-10
1.06414e-05
1.8421e-05
6.94628e-05
8.56787e-05
0.000139162
0.00023158
0.00035399
0.000289702
0.000138249
4.7683e-05
3.41543e-05
3.15108e-05
1.93332e-05
1.7766e-08
1.65556e-09
5.77701e-12
-3.95026e-11
2.31873e-13
1.98427e-12
6.70299e-10
1.47223e-09
1.53248e-09
7.96611e-09
3.23958e-08
2.21974e-08
2.26971e-08
1.84484e-08
1.61558e-08
1.22671e-08
1.75529e-07
1.6748e-06
2.33196e-06
3.56362e-06
2.85452e-06
2.89279e-06
1.92765e-05
1.555e-09
1.84098e-09
2.69526e-09
8.59162e-09
2.13307e-08
6.12189e-08
6.01225e-08
6.83061e-08
1.68034e-07
3.54179e-07
3.56075e-07
2.36269e-07
2.26353e-07
2.21592e-07
1.93896e-07
5.39849e-07
2.12552e-06
2.14733e-06
1.56473e-06
1.24053e-07
1.94753e-09
2.13635e-10
1.37973e-10
1.55366e-09
2.64461e-09
2.65335e-09
9.07243e-09
1.2729e-07
1.78688e-07
8.55352e-08
2.78026e-07
3.09433e-07
3.51941e-07
9.98752e-08
8.51895e-08
2.64054e-07
7.78244e-07
7.82767e-07
6.985e-07
4.85771e-07
5.19082e-07
1.22846e-07
1.01621e-08
9.98285e-10
1.45454e-09
1.37456e-10
1.49109e-09
3.016e-09
6.73074e-09
3.59166e-08
1.71257e-07
1.78229e-07
7.45173e-08
4.95765e-08
1.0714e-07
7.33573e-08
3.02798e-08
1.39546e-07
3.71412e-07
4.50677e-07
7.85325e-08
1.84695e-09
1.79161e-09
3.4891e-08
2.55036e-07
2.11364e-07
2.15348e-08
3.38255e-08
3.61985e-07
1.42454e-09
3.3179e-09
1.18076e-08
3.75663e-08
5.26805e-08
1.78769e-08
1.17066e-08
4.86859e-08
1.02478e-07
4.24957e-08
2.12548e-08
4.52096e-07
1.00092e-06
1.00112e-06
3.86189e-07
4.4866e-09
2.74132e-07
1.31958e-06
1.38102e-06
6.95978e-07
3.22371e-08
3.04293e-07
4.4268e-07
1.34668e-09
2.86045e-09
7.46431e-09
4.00194e-09
1.63392e-09
1.63103e-09
1.15327e-08
3.6705e-08
2.11808e-08
1.39023e-08
1.8511e-08
7.54848e-07
9.41928e-07
8.86727e-07
2.65545e-07
1.03269e-07
9.20665e-07
1.60746e-06
1.60702e-06
9.9611e-07
1.07989e-08
1.27651e-08
8.7612e-08
1.19399e-09
1.98248e-09
3.19724e-09
1.63771e-09
1.629e-09
2.48655e-09
8.5702e-09
2.21761e-09
2.18963e-09
4.34075e-09
4.05011e-08
3.79314e-08
2.33195e-07
5.10083e-10
4.54908e-09
1.65061e-07
6.0423e-07
1.425e-06
1.60846e-06
1.03865e-06
4.0944e-07
2.60737e-09
8.13035e-09
1.03133e-09
1.36023e-09
1.81118e-09
1.57953e-09
1.71955e-09
2.30029e-09
1.63221e-09
2.01514e-09
4.16161e-09
7.04979e-09
1.66994e-09
4.87158e-10
4.80467e-10
5.64704e-10
5.57755e-09
3.53414e-08
6.56734e-08
1.83188e-07
7.33403e-07
1.07376e-06
1.05768e-06
3.18952e-07
1.46221e-09
8.7738e-10
9.05273e-10
1.20765e-09
1.28145e-09
1.52886e-09
1.71128e-09
1.63036e-09
2.55163e-09
4.15231e-09
3.96264e-09
7.60909e-10
4.86867e-10
4.95732e-10
7.92938e-10
1.18204e-09
4.90684e-10
4.86005e-10
1.64697e-09
3.04594e-08
3.16014e-07
9.19907e-07
8.87184e-07
2.78464e-07
8.25532e-10
6.64472e-10
8.82485e-10
1.01227e-09
1.27495e-09
1.38665e-09
1.32261e-09
1.50418e-09
1.55326e-09
1.18083e-09
6.81185e-10
5.08286e-10
5.40322e-10
7.70617e-10
8.83302e-10
4.76603e-10
4.67241e-10
4.73077e-10
4.89935e-10
1.24906e-09
2.61588e-08
3.32326e-07
2.02357e-07
7.68165e-10
4.53204e-10
6.12047e-10
7.01915e-10
8.46567e-10
8.80447e-10
8.30508e-10
7.20456e-10
6.06745e-10
5.19253e-10
4.23978e-10
3.91297e-10
3.40852e-10
3.16873e-10
3.44797e-10
4.1655e-10
4.61719e-10
5.68325e-10
7.31359e-10
8.79504e-10
1.02108e-09
1.78494e-09
2.53372e-08
7.35293e-10
3.14358e-10
3.84464e-10
4.20801e-10
4.36167e-10
4.21567e-10
3.78566e-10
3.22206e-10
2.92494e-10
2.58066e-10
2.37812e-10
2.03694e-10
1.82494e-10
1.78597e-10
1.83604e-10
2.05658e-10
2.50411e-10
3.6852e-10
6.2654e-10
9.92342e-10
1.30009e-09
1.60526e-09
2.60075e-09
7.02048e-10
2.02311e-10
2.12265e-10
2.04243e-10
1.86551e-10
1.60209e-10
1.30255e-10
1.1416e-10
9.49523e-11
8.43504e-11
8.05777e-11
7.26164e-11
6.36933e-11
5.92395e-11
6.12716e-11
6.6157e-11
7.72505e-11
1.02347e-10
1.5204e-10
2.53307e-10
3.7552e-10
4.51687e-10
5.50078e-10
6.82329e-10
1.41632e-10
1.16885e-10
9.88117e-11
8.38972e-11
7.08567e-11
5.87139e-11
4.51715e-11
3.49069e-11
2.7206e-11
2.28159e-11
2.00354e-11
1.76062e-11
1.70878e-11
1.77458e-11
1.96342e-11
2.30273e-11
2.86719e-11
3.95613e-11
5.72906e-11
8.12551e-11
1.28969e-10
1.74938e-10
6.67625e-10
9.28948e-11
6.63747e-11
6.14782e-11
6.39878e-11
6.32195e-11
5.29057e-11
3.91059e-11
2.38931e-11
1.34871e-11
8.12466e-12
5.68408e-12
4.59824e-12
4.30162e-12
4.68632e-12
5.63668e-12
7.17594e-12
9.19443e-12
1.30331e-11
1.90194e-11
2.86148e-11
4.14459e-11
6.01997e-11
6.61126e-10
7.00515e-11
5.01882e-11
6.2183e-11
8.31772e-11
9.04837e-11
7.67473e-11
5.74534e-11
3.32164e-11
1.6609e-11
7.79966e-12
3.50413e-12
1.78766e-12
1.22784e-12
1.23111e-12
1.5682e-12
2.14578e-12
3.08835e-12
4.42698e-12
6.36707e-12
9.30509e-12
1.48012e-11
2.16939e-11
6.56574e-10
6.24554e-11
5.13498e-11
8.78822e-11
1.28188e-10
1.47087e-10
1.19649e-10
8.91699e-11
5.08649e-11
2.53435e-11
1.1493e-11
4.6427e-12
1.77064e-12
7.09543e-13
4.14674e-13
4.42947e-13
6.26439e-13
9.78177e-13
1.53259e-12
2.37314e-12
3.6905e-12
5.73376e-12
8.43336e-12
6.66965e-10
6.31405e-11
6.54928e-11
1.38215e-10
2.04002e-10
2.49106e-10
1.92877e-10
1.30051e-10
7.28092e-11
3.6767e-11
1.69315e-11
6.88377e-12
2.58519e-12
8.75542e-13
2.91436e-13
1.5484e-13
1.85076e-13
3.02204e-13
4.99631e-13
8.22536e-13
1.28256e-12
2.14125e-12
3.39784e-12
6.74229e-10
7.42837e-11
9.81211e-11
2.13152e-10
3.61511e-10
4.6049e-10
3.42023e-10
1.76085e-10
9.38822e-11
4.86628e-11
2.29378e-11
9.83089e-12
3.71944e-12
1.29451e-12
3.86165e-13
1.1182e-13
6.1857e-14
8.66173e-14
1.59805e-13
2.87098e-13
5.09154e-13
9.06843e-13
1.36181e-12
6.99874e-10
9.75246e-11
1.95414e-10
4.91269e-10
7.4595e-10
7.66568e-10
4.8106e-10
2.23101e-10
1.0885e-10
5.8223e-11
2.83032e-11
1.24214e-11
4.95674e-12
1.82377e-12
5.63203e-13
1.47584e-13
4.01594e-14
2.72574e-14
4.78204e-14
9.36277e-14
1.77623e-13
3.17286e-13
5.8151e-13
7.24235e-10
1.2924e-10
3.34933e-10
8.6179e-10
1.22453e-09
1.22208e-09
7.36534e-10
2.90844e-10
1.16189e-10
6.3028e-11
3.19717e-11
1.42739e-11
5.9674e-12
2.32568e-12
7.59272e-13
2.18893e-13
5.05997e-14
1.39073e-14
1.51722e-14
3.05821e-14
6.53337e-14
1.45153e-13
2.44915e-13
8.00849e-10
1.68027e-10
4.52606e-10
1.21928e-09
1.47954e-09
1.44793e-09
9.6775e-10
3.79993e-10
1.24755e-10
6.16408e-11
3.24595e-11
1.47845e-11
6.48709e-12
2.58243e-12
9.5287e-13
2.94898e-13
7.31335e-14
1.45737e-14
6.20105e-15
1.12598e-14
2.71303e-14
6.00051e-14
1.25515e-13
8.58828e-10
2.12555e-10
6.11925e-10
1.32706e-09
1.51404e-09
1.46704e-09
1.029e-09
4.22096e-10
1.34817e-10
5.6042e-11
3.00732e-11
1.37975e-11
6.14483e-12
2.63125e-12
1.02705e-12
3.50185e-13
9.82712e-14
2.14035e-14
4.0977e-15
4.12621e-15
1.09198e-14
3.35813e-14
6.77623e-14
9.72624e-10
2.55714e-10
7.13907e-10
1.33437e-09
1.51412e-09
1.43601e-09
1.03394e-09
4.15388e-10
1.38908e-10
5.30001e-11
2.56881e-11
1.15192e-11
5.34098e-12
2.33791e-12
9.62763e-13
3.60722e-13
1.15026e-13
2.9038e-14
5.52833e-15
1.9271e-15
4.34024e-15
1.29971e-14
3.84001e-14
1.0664e-09
2.7556e-10
6.88502e-10
1.27633e-09
1.32494e-09
1.23014e-09
8.94524e-10
3.94794e-10
1.33475e-10
4.71983e-11
2.01435e-11
8.79474e-12
4.21859e-12
1.83544e-12
7.78421e-13
3.16311e-13
1.1445e-13
3.22238e-14
6.88097e-15
1.23016e-15
1.79508e-15
7.79813e-15
1.87138e-14
1.2556e-09
2.92986e-10
5.73422e-10
1.00451e-09
9.05515e-10
8.84538e-10
7.43233e-10
3.73916e-10
1.16268e-10
3.75306e-11
1.43252e-11
6.37061e-12
2.95714e-12
1.29678e-12
5.43938e-13
2.31232e-13
9.44253e-14
3.1269e-14
7.49889e-15
1.21515e-15
6.09817e-16
1.94239e-15
8.09428e-15
1.42073e-09
3.35484e-10
3.99404e-10
6.86187e-10
7.13679e-10
8.06677e-10
6.31886e-10
3.43981e-10
1.01632e-10
2.72299e-11
9.59021e-12
4.11357e-12
1.88439e-12
8.01409e-13
3.27167e-13
1.39532e-13
6.23411e-14
2.44133e-14
7.00822e-15
1.36551e-15
3.54753e-16
9.33675e-16
2.74802e-15
1.66106e-09
4.75252e-10
3.76854e-10
5.48473e-10
6.10546e-10
7.24913e-10
5.5487e-10
2.81291e-10
7.92239e-11
1.80857e-11
5.68077e-12
2.36607e-12
1.07967e-12
4.43048e-13
1.68726e-13
6.91003e-14
3.15851e-14
1.42646e-14
5.16281e-15
1.22858e-15
1.62373e-16
1.54289e-16
9.87283e-16
1.90775e-09
7.52738e-10
4.21427e-10
5.57715e-10
6.21584e-10
6.24721e-10
4.4414e-10
2.10109e-10
5.93137e-11
9.98481e-12
2.82967e-12
1.18735e-12
5.47575e-13
2.18591e-13
7.63241e-14
2.78012e-14
1.1975e-14
5.85192e-15
2.62198e-15
8.38711e-16
1.28644e-16
6.04052e-17
1.75071e-16
2.09963e-09
9.7589e-10
6.72928e-10
6.58181e-10
6.62448e-10
5.53595e-10
3.27536e-10
1.34487e-10
3.57178e-11
4.93087e-12
1.12226e-12
4.96259e-13
2.37177e-13
9.42379e-14
3.04876e-14
9.0539e-15
3.34864e-15
1.57265e-15
8.43291e-16
3.809e-16
9.37359e-17
1.56442e-17
3.55925e-17
2.18052e-09
1.3226e-09
8.92202e-10
7.65172e-10
6.62556e-10
4.31434e-10
2.05218e-10
6.80779e-11
1.59638e-11
1.80638e-12
3.38209e-13
1.60557e-13
8.26205e-14
3.33348e-14
1.02573e-14
2.58976e-15
7.01493e-16
2.69928e-16
1.65665e-16
1.15013e-16
3.98801e-17
6.04085e-18
5.83491e-18
2.15878e-09
1.48119e-09
1.00644e-09
8.50082e-10
5.46479e-10
2.53649e-10
8.85581e-11
2.33374e-11
3.87519e-12
3.52302e-13
6.49222e-14
3.40828e-14
1.9509e-14
8.26799e-15
2.47595e-15
5.41844e-16
1.00973e-16
2.64318e-17
1.98211e-17
2.2139e-17
1.32346e-17
2.7949e-18
1.21437e-18
2.14081e-09
1.59167e-09
1.0846e-09
6.01401e-10
2.22e-10
6.40671e-11
1.69984e-11
3.03844e-12
3.13435e-13
1.86022e-14
5.93824e-15
3.5886e-15
2.36353e-15
1.06879e-15
3.23221e-16
6.13252e-17
7.94892e-18
1.27162e-18
1.42161e-18
2.86811e-18
3.63502e-18
1.33615e-18
3.42273e-19
0.000663415
0.000679856
0.000350085
0.000225018
0.00515798
0.00495932
0.000848704
0.0002246
0.00370764
0.0028324
0.00117631
0.000839378
8.29248e-05
0.000151385
0.00047471
0.00141787
8.27481e-05
8.29254e-05
0.000243026
0.00026631
0.000235208
0.000226433
0.000169166
4.06577e-05
7.21078e-05
0.000296456
0.000296652
0.000188546
1.97013e-06
3.08374e-06
0.000124445
0.000165546
5.15547e-06
2.92868e-06
4.7868e-06
1.5302e-05
1.9826e-05
8.77128e-06
2.41562e-06
2.55526e-06
1.00693e-06
1.91905e-06
8.68266e-07
6.56088e-06
4.59284e-10
3.027e-08
8.01612e-07
2.2293e-06
3.84051e-07
2.19418e-07
2.77886e-07
6.32873e-07
3.97159e-07
5.47628e-08
6.78568e-08
1.03663e-07
9.35596e-08
5.51818e-08
1.34627e-07
2.96705e-06
5.73858e-09
6.38786e-09
5.94734e-07
3.97442e-06
1.26194e-09
2.66224e-08
1.55432e-07
6.51948e-07
1.12262e-09
6.32196e-09
3.45526e-08
2.64608e-09
1.33594e-09
3.77937e-09
8.03443e-09
9.10068e-09
1.50251e-08
1.6115e-08
1.66547e-08
1.63544e-08
6.20702e-09
8.47725e-09
8.83489e-09
6.99292e-09
8.88365e-10
1.05595e-09
1.70973e-09
1.73918e-09
2.25231e-10
2.60968e-10
2.99775e-10
3.67397e-10
7.98794e-11
9.14549e-11
1.06449e-10
1.22917e-10
2.88617e-11
3.5724e-11
4.21892e-11
4.92711e-11
1.23682e-11
1.49544e-11
1.77723e-11
2.17135e-11
4.91127e-12
6.61943e-12
8.42045e-12
1.01223e-11
2.20875e-12
2.80466e-12
3.57151e-12
4.7186e-12
8.80812e-13
1.24016e-12
1.64966e-12
2.06022e-12
4.30027e-13
5.96019e-13
7.76231e-13
1.06225e-12
2.20543e-13
3.22846e-13
4.58999e-13
6.20507e-13
1.40122e-13
2.1222e-13
2.99613e-13
4.47167e-13
7.50674e-14
1.25992e-13
2.02369e-13
2.93905e-13
4.94168e-14
7.69625e-14
1.23803e-13
2.03317e-13
1.75537e-14
3.36629e-14
6.43142e-14
9.85425e-14
8.52271e-15
1.48446e-14
2.61997e-14
4.9946e-14
2.52517e-15
4.89518e-15
1.00697e-14
1.61414e-14
6.33512e-16
1.17042e-15
2.27701e-15
5.00678e-15
1.06826e-16
2.1803e-16
4.57206e-16
8.78656e-16
1.89052e-17
3.70359e-17
7.78174e-17
1.80183e-16
2.9056e-18
5.95243e-18
1.24925e-17
2.34862e-17
4.65632e-19
8.63834e-19
1.57973e-18
2.66571e-18
0.000227523
0.000955876
0.0023378
0.00145358
7.09293e-05
1.55163e-05
0.000231581
0.00211548
0.00354658
0.0048255
0.0199568
0.0128803
0.00177555
0.0132939
0.0187469
0.00379465
0.00263853
0.00360557
0.00111596
0.000991803
0.0023378
0.0023372
0.0010252
6.28401e-05
0.00407103
0.00478244
0.00224093
0.00353325
0.0207599
0.0220554
0.0220578
0.0208128
0.022058
0.0075995
0.00385019
0.0070795
0.0108677
0.00493331
0.00218577
0.00216997
0.000434718
0.000449081
0.00494578
0.0110434
0.0110413
0.00413394
0.00394989
0.0198282
0.0220579
0.0220593
0.0220602
0.0220593
0.0132495
0.0108203
0.0109956
0.0109886
0.010996
0.00209304
0.000825615
0.000426249
0.0015231
0.0103401
0.011043
0.0110312
0.00449622
0.000176145
0.00824754
0.0178343
0.0147708
0.0167731
0.017624
0.0110274
0.0108282
0.00969506
0.00888081
0.00905105
0.000589161
0.00164381
0.000870101
0.000722275
0.000823122
0.00319657
0.00925412
0.00467292
0.000173234
0.000413263
0.00425434
0.00147967
0.00161622
0.00170172
0.00143671
0.00201317
0.00265985
0.00172362
0.00258887
0.000110202
0.00160909
0.00198993
0.000718008
0.000714739
0.000785353
0.000516126
0.000940883
0.000455663
9.07225e-05
0.000422145
0.000654659
0.00123285
0.00128354
0.000763721
0.000244239
0.000248827
0.000250026
0.00190996
1.22129e-05
0.000421342
0.00246817
0.00246381
0.00123625
0.000203226
7.10201e-05
6.86469e-05
6.06578e-05
6.22337e-05
3.99473e-05
3.98051e-05
0.000354086
0.000796459
0.000635461
0.000244736
0.000243921
0.0010624
0.00197394
1.23575e-05
7.96258e-06
0.00162525
0.00309938
0.00310001
0.00239847
0.00102137
0.00052843
0.000103788
4.02479e-05
3.98106e-05
3.98345e-05
4.03849e-05
4.01802e-05
4.41724e-05
4.39765e-05
0.000941736
0.0036343
0.00279516
4.15423e-06
4.46475e-06
0.000188438
0.0007032
0.00153872
0.00221964
0.00272279
0.0027355
0.00160369
0.000604923
0.000420386
0.000925036
0.00239806
0.00150185
0.00032935
4.4376e-05
0.0012371
0.0052788
0.00621902
5.51745e-06
6.33127e-06
1.13943e-06
9.83203e-07
1.6262e-06
2.50705e-06
0.000162654
0.00124302
0.00261764
0.00284324
0.00355713
0.00423878
0.00453591
0.00458409
0.0033731
0.00260249
0.00479015
0.00675571
0.00675571
1.51208e-05
1.51776e-05
4.33486e-06
5.79885e-07
1.73218e-06
2.16259e-06
6.60541e-09
4.89986e-09
5.42665e-09
4.55307e-09
3.72576e-05
0.00117819
0.0036067
0.00475061
0.0052131
0.0067557
0.00675571
0.00675571
0.0067557
5.00757e-06
3.68371e-06
1.57047e-06
1.95095e-07
1.9753e-07
7.47808e-07
1.63401e-06
1.23961e-06
1.77807e-07
5.95316e-08
1.34679e-08
4.35137e-09
8.17457e-05
0.000742409
0.00168799
0.00396868
0.00675569
0.0067557
0.0067557
6.1945e-07
4.72614e-07
3.1144e-07
1.96552e-07
1.29093e-06
1.6493e-06
1.65223e-06
4.65633e-07
5.08547e-08
5.11442e-08
9.05302e-09
3.87944e-08
1.17564e-08
1.17543e-08
1.17543e-08
0.000119396
0.00148081
0.00303557
0.00249215
3.81056e-07
3.23184e-06
9.92414e-07
2.48381e-07
9.10844e-08
4.5574e-07
4.51991e-08
4.51992e-08
1.11686e-06
4.94891e-06
7.08852e-06
7.01176e-06
3.23286e-06
1.17272e-08
1.98015e-07
2.07267e-07
2.00123e-07
9.91998e-06
5.28818e-05
6.14271e-06
5.76024e-06
1.9509e-06
8.68158e-08
8.93144e-08
1.68884e-07
8.63653e-07
7.44675e-06
1.01124e-05
1.0105e-05
9.12799e-06
6.37512e-06
3.85036e-10
1.31834e-07
1.47401e-07
5.02075e-07
1.99894e-06
5.90756e-06
1.31053e-05
6.23943e-06
6.23582e-06
2.40229e-06
4.64839e-07
3.78312e-08
2.17538e-07
3.61055e-06
1.00945e-05
1.00901e-05
8.74386e-06
6.58697e-07
3.40618e-10
3.13324e-10
5.81403e-10
1.73159e-07
9.75105e-07
1.40059e-06
3.39222e-06
3.41744e-06
2.41727e-06
4.89347e-06
4.76402e-06
2.53916e-06
2.10082e-07
4.16925e-08
1.32309e-06
4.55345e-06
6.77856e-06
2.23354e-06
1.61098e-10
4.03214e-10
6.3791e-10
2.40109e-10
1.10771e-09
4.02493e-07
3.83423e-06
5.84579e-06
5.75633e-06
2.63806e-09
2.26293e-07
1.50531e-06
2.6054e-06
1.93566e-06
2.94954e-08
2.23246e-07
1.17329e-06
7.08337e-07
2.82088e-08
1.69517e-10
4.54033e-09
1.14148e-09
2.3964e-10
2.39719e-10
3.54077e-07
2.07959e-06
5.84248e-06
5.78765e-06
6.70241e-09
7.44253e-09
1.10095e-08
6.85154e-07
1.11173e-06
8.0878e-07
2.02491e-07
1.56903e-07
3.27e-07
2.63802e-07
1.12533e-06
1.57045e-06
7.03951e-07
2.95647e-07
3.69098e-08
4.68152e-08
3.05503e-07
5.83968e-06
2.55414e-06
1.2546e-08
6.97973e-09
2.40906e-09
1.11751e-09
2.84647e-07
6.97429e-07
5.96406e-07
1.58321e-07
1.95736e-07
1.19654e-06
2.28884e-06
2.29109e-06
2.28241e-06
1.21062e-06
4.00863e-07
9.77415e-08
6.30865e-08
2.20465e-06
9.50409e-07
4.97742e-09
4.54316e-09
2.83167e-09
1.14171e-09
1.19571e-09
1.77621e-07
4.11207e-07
1.71478e-07
1.48914e-07
4.85691e-07
1.75964e-06
2.28976e-06
2.29113e-06
2.29116e-06
1.28778e-06
2.31855e-08
1.25504e-07
1.23626e-06
2.70158e-07
1.61625e-09
1.94666e-09
1.90499e-09
1.10701e-09
1.77686e-09
3.61886e-09
1.30327e-08
5.76956e-08
4.78676e-08
9.76569e-09
1.63903e-07
5.85206e-07
2.14394e-06
2.29116e-06
1.1216e-06
1.49216e-10
3.21816e-06
2.04209e-06
2.21359e-07
4.14753e-10
6.47692e-10
8.77322e-10
8.21851e-10
1.86947e-09
1.98016e-09
2.30356e-09
2.26583e-09
3.93615e-09
5.17887e-09
1.19606e-08
9.30057e-08
2.9349e-07
4.72974e-07
4.81698e-07
-1.90567e-09
3.90507e-06
3.43189e-06
2.01612e-07
1.44129e-10
2.22263e-10
3.6012e-10
6.04041e-10
1.13784e-09
1.81177e-09
3.70308e-09
6.23234e-09
1.0506e-08
1.1691e-08
5.96497e-09
8.58981e-09
2.51967e-08
-4.91094e-12
1.08256e-25
-1.93604e-10
3.90842e-06
3.10034e-06
1.39463e-07
5.92456e-11
9.21099e-11
1.53176e-10
2.68824e-10
5.00094e-10
9.1246e-10
2.31319e-09
5.15958e-09
8.41578e-09
7.84585e-09
3.71272e-09
2.6132e-09
2.96192e-09
9.0877e-10
5.61316e-10
-2.10737e-28
1.69509e-06
8.13614e-07
1.19317e-07
2.6303e-11
4.09576e-11
6.57022e-11
1.06235e-10
1.72953e-10
2.821e-10
5.24641e-10
1.22008e-09
2.13953e-09
2.49287e-09
1.78391e-09
1.84965e-09
2.73819e-09
4.83783e-09
1.34951e-09
4.78192e-09
1.68614e-07
1.13349e-07
4.01331e-08
1.26657e-11
2.05009e-11
3.37293e-11
5.52188e-11
8.96703e-11
1.41031e-10
2.1401e-10
3.53095e-10
6.12711e-10
9.97041e-10
1.27757e-09
2.38772e-09
3.69368e-09
6.786e-09
1.32412e-09
9.49291e-08
5.1986e-08
1.21726e-08
1.35278e-08
5.89757e-12
9.99629e-12
1.71794e-11
2.95039e-11
5.11799e-11
8.55162e-11
1.42714e-10
2.37543e-10
4.06434e-10
7.20359e-10
1.22629e-09
2.34149e-09
3.59642e-09
7.35781e-09
3.25227e-09
1.11706e-07
5.96269e-08
8.40921e-09
8.43069e-09
2.73024e-12
4.74899e-12
8.37122e-12
1.49288e-11
2.63866e-11
4.82165e-11
8.57299e-11
1.54434e-10
2.94972e-10
5.55773e-10
1.05327e-09
1.95741e-09
2.86388e-09
6.00188e-09
3.27634e-09
1.06447e-07
5.44199e-08
9.11495e-09
8.32149e-09
1.38126e-12
2.44533e-12
4.2986e-12
7.63173e-12
1.37308e-11
2.61265e-11
4.93224e-11
9.46709e-11
1.88295e-10
3.87819e-10
7.87521e-10
1.46691e-09
2.14462e-09
3.8655e-09
6.28133e-09
5.64403e-08
2.78408e-08
8.02569e-09
7.90044e-09
8.67746e-13
1.50992e-12
2.63827e-12
4.55097e-12
7.91112e-12
1.47086e-11
2.83855e-11
5.72984e-11
1.17712e-10
2.587e-10
5.45246e-10
1.07298e-09
1.67045e-09
2.86612e-09
9.10739e-09
1.64637e-08
6.13233e-09
6.58888e-09
7.30898e-09
6.0698e-13
1.12052e-12
1.95115e-12
3.31906e-12
5.59611e-12
9.26996e-12
1.54139e-11
2.80151e-11
5.73385e-11
1.30551e-10
2.9058e-10
5.76723e-10
1.09884e-09
2.4532e-09
8.9259e-09
6.05271e-09
6.05226e-09
6.05283e-09
6.05228e-09
4.65328e-13
8.4107e-13
1.5524e-12
2.77995e-12
4.9058e-12
8.04404e-12
1.31172e-11
2.08342e-11
3.40956e-11
5.85293e-11
1.16563e-10
2.45683e-10
6.59967e-10
1.47632e-09
8.43716e-09
1.48688e-08
6.05273e-09
6.05229e-09
1.55758e-08
2.87666e-13
5.94259e-13
1.17522e-12
2.24519e-12
4.2333e-12
7.45275e-12
1.27486e-11
2.04392e-11
3.17828e-11
4.96225e-11
7.85434e-11
1.29699e-10
2.03597e-10
5.37294e-10
1.08404e-08
7.09517e-08
8.1535e-08
6.0529e-09
6.74127e-08
1.7168e-13
3.64976e-13
7.96116e-13
1.67525e-12
3.38412e-12
6.53355e-12
1.18093e-11
2.04773e-11
3.39946e-11
5.14591e-11
7.97202e-11
1.21079e-10
1.59986e-10
4.61733e-10
7.91874e-09
8.52049e-08
1.67049e-07
9.21557e-08
1.46481e-07
7.65646e-14
1.88866e-13
4.54108e-13
1.06146e-12
2.39076e-12
5.05944e-12
1.02267e-11
1.98809e-11
3.50112e-11
5.71008e-11
8.72897e-11
1.31847e-10
1.76986e-10
6.15452e-10
8.97999e-09
5.05902e-08
1.6762e-07
1.62479e-07
1.66909e-07
2.92063e-14
7.92933e-14
2.13953e-13
5.54534e-13
1.45333e-12
3.55422e-12
7.93345e-12
1.68328e-11
3.25611e-11
5.98018e-11
1.00229e-10
1.57241e-10
2.31076e-10
3.75977e-10
4.34703e-09
2.94124e-08
9.4534e-08
1.68811e-07
1.32324e-07
8.6289e-15
2.61694e-14
7.96406e-14
2.44287e-13
7.44027e-13
2.01909e-12
5.37981e-12
1.26109e-11
2.656e-11
5.45713e-11
9.98505e-11
1.7395e-10
2.86957e-10
4.54556e-10
9.66232e-10
9.37166e-09
3.74919e-08
1.22781e-07
3.0114e-08
2.0597e-15
6.56745e-15
2.31584e-14
8.31479e-14
2.88471e-13
9.20809e-13
2.81443e-12
7.68637e-12
1.86029e-11
4.15981e-11
8.32841e-11
1.61096e-10
2.89107e-10
4.96804e-10
8.14987e-10
1.25136e-09
7.73361e-09
5.7043e-09
1.0905e-09
3.42795e-16
1.23558e-15
4.97269e-15
2.10463e-14
8.60957e-14
3.52727e-13
1.25364e-12
4.00481e-12
1.13359e-11
2.84355e-11
6.28398e-11
1.31069e-10
2.60473e-10
4.75389e-10
7.85875e-10
1.06751e-09
1.11956e-09
1.12759e-09
1.08371e-09
4.44178e-17
1.5472e-16
6.6399e-16
3.27214e-15
1.67328e-14
8.21565e-14
3.67526e-13
1.45215e-12
5.00633e-12
1.50202e-11
3.95173e-11
9.0635e-11
2.01043e-10
4.13324e-10
7.16747e-10
1.08849e-09
1.21919e-09
1.22802e-09
1.10663e-09
4.42423e-18
1.25226e-17
4.8596e-17
2.54474e-16
1.56998e-15
9.97563e-15
5.90251e-14
3.04552e-13
1.37461e-12
5.23237e-12
1.70453e-11
4.68299e-11
1.13801e-10
2.58744e-10
5.33686e-10
9.24627e-10
1.18953e-09
1.20393e-09
8.88059e-10
)
;

boundaryField
{
    leftWall
    {
        type            zeroGradient;
    }
    rightWall
    {
        type            zeroGradient;
    }
    lowerWall
    {
        type            zeroGradient;
    }
    atmosphere
    {
        type            inletOutlet;
        inletValue      uniform 0;
        value           nonuniform List<scalar> 
46
(
2.14081e-09
1.59167e-09
1.0846e-09
6.01401e-10
0
0
0
0
0
0
0
0
0
0
0
0
0
0
0
0
0
1.33615e-18
3.42273e-19
4.65632e-19
0
0
0
0
0
0
0
0
0
0
0
0
0
1.70453e-11
4.68299e-11
1.13801e-10
2.58744e-10
5.33686e-10
9.24627e-10
1.18953e-09
1.20393e-09
8.88059e-10
)
;
    }
    defaultFaces
    {
        type            empty;
    }
}


// ************************************************************************* //
