/*--------------------------------*- C++ -*----------------------------------*\
| =========                 |                                                 |
| \\      /  F ield         | OpenFOAM: The Open Source CFD Toolbox           |
|  \\    /   O peration     | Version:  2312                                  |
|   \\  /    A nd           | Website:  www.openfoam.com                      |
|    \\/     M anipulation  |                                                 |
\*---------------------------------------------------------------------------*/
FoamFile
{
    version     2.0;
    format      ascii;
    arch        "LSB;label=32;scalar=64";
    class       volScalarField;
    location    "4.15";
    object      p_rgh;
}
// * * * * * * * * * * * * * * * * * * * * * * * * * * * * * * * * * * * * * //

dimensions      [1 -1 -2 0 0 0 0];

internalField   nonuniform List<scalar> 
2268
(
6664.59
6622.31
6543.01
6433.5
6302.19
6158.15
6010.03
5865.47
5730.03
5606.89
5496.93
5399.65
5313.66
5237.29
5169.27
5108.58
5054.55
5007.37
4967.77
4935.95
4911.94
4895.28
4886.5
6673.63
6629.74
6549.09
6438.01
6304.91
6159.06
6009.41
5863.39
5727.17
5603.75
5493.84
5396.82
5311.23
5235.18
5167.46
5106.97
5052.95
5005.66
4966.02
4934.17
4910.23
4893.2
4884.26
6691.08
6644.26
6560.82
6446.67
6310.07
6160.56
6007.5
5858.95
5721.29
5597.38
5487.58
5391.12
5306.34
5230.96
5163.86
5103.79
5049.77
5002.23
4962.55
4930.63
4906.93
4889.6
4880.25
6715.84
6665.61
6578.25
6459.63
6317.74
6162.71
6004.65
5852.07
5712.25
5587.64
5478.01
5382.38
5298.91
5224.54
5158.43
5099.04
5045.02
4997.04
4957.43
4925.32
4901.95
4884.37
4870.81
6747.98
6693.99
6601.57
6477.17
6328.12
6165.53
6000.62
5842.21
5699.29
5573.73
5464.42
5370.02
5288.72
5214.5
5139.67
5062.2
4968.4
4875.35
4798.2
4731.79
4694.4
4651.06
4589.16
6787.63
6729.46
6630.71
6499.36
6340.68
6166.85
5992.27
5765.19
5448.44
5077.05
4690.29
4319.23
3972.96
3591.8
3258.12
2962.32
2718.58
2497.85
2337.93
2205.4
2102.06
2044.54
2042.02
6811.13
6745.26
6648.78
6505.5
5980.62
5172.86
4111.82
3045.57
2296.62
1806.85
1481.25
1265.17
1122.27
1099.91
1094.24
1089.97
1082.56
1078.02
1072.04
1063.13
1056.39
1062.39
1070.65
5775.24
5355.86
4537.96
3363.68
2356.96
1624.84
1208.66
1130.11
1126.36
1121.85
1117.31
1112.88
1108.82
1099.42
1091.77
1087.77
1087.07
1084.18
1081.37
1079.72
1069.66
1060.99
1068.55
2693.98
2721.4
2729.63
2751.9
2804.17
2886.52
2977.05
3057.07
3113.63
3172.94
3255.57
3359.03
3449.48
3484.13
3454.07
3387.65
3314.09
3246.22
3206.97
2602.75
2690.4
2693.51
2709.02
2765.35
2861.78
2970.54
3053.61
3105.49
3153.31
3257.08
3369.39
3465.42
3496.62
3458.83
3387.08
3310.59
3239.05
3187.68
1911.12
1840.61
1768.45
1759.2
1851.75
2064.79
2313.34
2533.56
2602.26
2664.78
2766.51
3011.82
3221.66
3236.22
3085.75
2956.85
2858.54
2720.73
2579.71
1071.03
1110.84
1156.11
1194.11
1235.7
1249.82
1261.94
1274.24
1392.1
1602.36
1808.38
2037.85
2314.6
2446.32
2410.32
2122.85
1792.67
1674.49
1717.18
1084.34
1115.24
1137.87
1196.72
1256.01
1287.39
1294.33
1236.62
1188.83
1167.7
1181.16
1198.39
1222.2
1303.98
1250.02
1211.83
1245.63
1256.88
1212.08
1034.99
1056.69
1089.91
1115.68
1223.17
1340.52
1364.68
1286.29
1215.7
1195.84
1209.91
1233.04
1199.86
1204.9
1238.3
1253.88
1261.74
1263.53
1261.25
1026.92
1027.68
1086.81
1111.46
1123.64
1183.68
1295.45
1315.44
1212
1209.58
1225.43
1244.17
1240.77
1248.81
1244.89
1273.36
1278.44
1269.67
1258.6
1031.71
1052.97
1091.07
1111.98
1124.66
1096.32
1139.13
1211.73
1219.8
1221.22
1229.03
1240.98
1242.79
1253.12
1277.3
1299.93
1275.14
1265.18
1234.85
1404.6
1296.35
1173.27
1118.26
1119.7
1123.47
1126.88
1126.8
1124.16
1120.27
1115.81
1111.28
1106.56
1100.81
1092.8
1092.47
1090.81
1086.01
1082.52
1083.16
1081.68
1077.7
1067.87
1119
1119.7
1121.23
1123.01
1124.73
1126.82
1127.65
1126.51
1123.19
1118.29
1112.66
1107.49
1102.47
1097.12
1102.09
1100.26
1092.48
1076.25
1065.57
1058.45
1052.76
1036.12
1028.01
1129.28
1129.11
1129.3
1129.8
1130.74
1130.69
1129.88
1123.66
1110.59
1091.72
1068.77
1050.29
1025.99
994.128
965.145
946.799
928.38
878.64
831.743
809.832
789.739
771.336
768.343
1109.71
1121.54
1118.47
1110.85
1113.01
1086.02
1043.55
995.3
935.197
871.089
807.649
748.389
714.372
698.833
675.279
665.445
665.41
695.881
718.644
708.077
700.622
703.801
705.782
866.712
793.499
763.59
760.691
766.221
756.861
732.328
685.457
655.468
637.042
639.981
671.917
683.095
683.84
682.388
653.533
662.492
686.938
690.235
692.329
695.183
699.954
702.68
649.47
648.302
650.176
651.718
657.607
662.03
664.964
666.03
669.38
672.777
677.081
678.478
680.777
682.714
684.551
685.615
684.863
684.255
684.993
686.735
689.564
693.907
698.543
421.174
411.519
408.119
407.547
415.17
436.596
469.663
521.218
563.537
591.146
611.04
623.193
633.46
640.155
645.691
645.372
635.64
620.659
615.449
619.261
626.966
636.449
643.313
2.81201
11.7305
16.6831
18.5593
19.7381
27.9788
39.6805
54.0379
75.9197
99.1535
115.014
128.969
141.594
153.306
156.298
157.321
150.427
143.102
128.659
123.983
133.252
152.873
176.824
0.801032
0.106042
0.184638
2.22594
3.69795
2.58177
0.126666
0.16143
0.412518
1.36874
5.36803
6.16485
4.54343
3.27061
3.62209
5.12561
7.7613
6.84827
6.18077
2.66791
2.51997
5.46841
9.5376
0.103276
0.092011
0.0954322
0.0797383
0.0694018
0.0709246
0.0790286
0.0822955
0.0757402
0.0610584
0.0558809
0.0744822
0.0972323
0.110505
0.116162
0.122865
0.136968
0.219761
0.245216
0.269986
0.266446
0.277458
0.661958
0.100965
0.0943739
0.0903982
0.0849115
0.0798801
0.0780885
0.0839606
0.0981661
0.104985
0.0956776
0.0839764
0.0853603
0.0966228
0.107396
0.115266
0.131552
0.18103
0.208517
0.212514
0.179576
0.174508
0.177094
0.183515
0.093611
0.0897383
0.0865525
0.0838181
0.0836246
0.0834284
0.0989907
0.157428
0.161561
0.142028
0.089027
0.104909
0.126865
0.129642
0.130841
0.134909
0.135737
0.144608
0.145145
0.149225
0.147359
0.14996
0.155413
0.0869544
0.0852143
0.0831248
0.0815756
0.083325
0.0879386
0.138192
0.1568
0.157913
0.153147
0.144605
0.178775
0.189048
0.134065
0.106476
0.109489
0.115795
0.140719
0.17976
0.172366
0.127551
0.126744
0.138032
0.0820404
0.081136
0.0800191
0.0793358
0.0783581
0.0795829
0.0916648
0.113658
0.131645
0.148938
0.172356
0.187161
0.187461
0.158972
0.135664
0.115227
0.137515
0.20291
0.206455
0.178434
0.110608
0.113959
0.121457
0.0779758
0.0774648
0.0767995
0.0758787
0.0751601
0.0743956
0.0735229
0.0736111
0.0728744
0.0765421
0.0975676
0.125051
0.137747
0.149618
0.134359
0.133225
0.148707
0.191826
0.207325
0.183163
0.102855
0.0954222
0.0997392
0.0744289
0.0740995
0.0736721
0.0730914
0.0725837
0.0719454
0.0716893
0.0710706
0.0709356
0.0712496
0.0730312
0.0738745
0.0816588
0.0857462
0.0924707
0.0873015
0.103065
0.134292
0.191332
0.181763
0.138291
0.0890078
0.0902617
0.0712219
0.0709387
0.0707236
0.0703381
0.069947
0.069628
0.0693066
0.0690874
0.0691146
0.0694281
0.0697423
0.0703989
0.0713146
0.0726561
0.0742954
0.0770256
0.0793083
0.0841888
0.108318
0.165076
0.165264
0.111197
0.0802658
0.068204
0.0679891
0.0678199
0.067558
0.0672911
0.0670838
0.0668679
0.0667485
0.0667868
0.0669528
0.0671951
0.0676744
0.0683288
0.0691658
0.0701718
0.0711156
0.0718132
0.0721566
0.0731579
0.0836924
0.121173
0.111513
0.0816282
0.065307
0.0651186
0.064979
0.064785
0.0645936
0.0644091
0.0642327
0.0641129
0.0640828
0.0641623
0.0643597
0.0646703
0.0650917
0.0656129
0.0661738
0.0666534
0.066944
0.0669662
0.0667339
0.0663734
0.0669634
0.0782662
0.0718005
0.0624736
0.0622893
0.0621624
0.0619937
0.0618209
0.0616423
0.0614701
0.0613276
0.061248
0.0612506
0.061334
0.0614899
0.0617029
0.0619493
0.0621832
0.0623303
0.0623046
0.0620604
0.061587
0.0609151
0.0600937
0.0590002
0.0578309
0.0596747
0.0594807
0.0593482
0.0591787
0.0589962
0.0588045
0.0586143
0.0584429
0.0583116
0.05823
0.0581994
0.0582085
0.0582408
0.0582667
0.0582432
0.0581151
0.0578242
0.0573278
0.0566012
0.0556307
0.0543755
0.0526734
0.0502458
0.0568738
0.0566672
0.0565192
0.0563322
0.0561283
0.0559123
0.0556935
0.0554846
0.0552967
0.0551374
0.0550049
0.0548875
0.0547647
0.054607
0.0543761
0.0540261
0.0535103
0.0527863
0.0518179
0.0505716
0.04899
0.0469422
0.0442472
0.0540585
0.0538301
0.0536628
0.0534514
0.0532193
0.0529739
0.0527232
0.0524746
0.0522356
0.0520088
0.0517899
0.0515657
0.0513146
0.0510075
0.0506093
0.0500807
0.0493809
0.04847
0.0473087
0.0458546
0.04405
0.0418064
0.0389982
0.0512275
0.050964
0.0507663
0.0505279
0.050266
0.0499912
0.0497104
0.0494284
0.0491475
0.0488664
0.0485782
0.0482681
0.0479141
0.0474883
0.0469584
0.0462894
0.0454449
0.0443877
0.0430801
0.0414802
0.039537
0.0371836
0.0343393
0.04837
0.0480626
0.0478257
0.0475559
0.0472659
0.0469665
0.0466633
0.0463581
0.0460477
0.0457272
0.0453869
0.0450112
0.0445784
0.0440622
0.0434327
0.0426583
0.0417062
0.0405427
0.0391332
0.0374399
0.0354195
0.0330231
0.0301873
0.045448
0.0451074
0.0448357
0.0445313
0.0442187
0.0439043
0.0435892
0.0432732
0.0429475
0.0426031
0.0422281
0.0418066
0.0413178
0.0407371
0.0400371
0.0391892
0.038164
0.0369315
0.0354611
0.03372
0.0316726
0.0292804
0.0264977
0.0424631
0.0420787
0.0417816
0.0414493
0.0411251
0.0408106
0.0404947
0.0401808
0.0398551
0.0395029
0.0391105
0.0386623
0.0381387
0.0375172
0.0367731
0.0358806
0.0348137
0.0335458
0.0320505
0.0303003
0.028266
0.0259188
0.0232234
0.0393847
0.0389693
0.0386529
0.0383097
0.0380001
0.0377138
0.0373936
0.0370865
0.0367767
0.0364334
0.0360408
0.035584
0.0350453
0.0344046
0.0336401
0.0327288
0.0316478
0.0303742
0.0288854
0.0271586
0.0251703
0.022898
0.0203186
0.0362258
0.0357675
0.0354504
0.0351572
0.0349803
0.0347857
0.0343648
0.0339946
0.0337177
0.0334009
0.0330247
0.0325764
0.0320405
0.0313999
0.0306359
0.0297285
0.0286576
0.0274038
0.025948
0.0242715
0.0223554
0.0201841
0.0177409
0.0329393
0.0325089
0.0325168
0.0327989
0.0326564
0.0330979
0.0318904
0.0309117
0.0306838
0.0304124
0.0300692
0.0296447
0.0291272
0.0285033
0.0277576
0.0268733
0.0258332
0.0246207
0.02322
0.0216158
0.0197933
0.0177411
0.015451
0.0296338
0.0292061
0.0295561
0.0312538
0.0323391
0.0330693
0.0310922
0.0278466
0.0276863
0.0274785
0.027183
0.0267954
0.0263088
0.0257148
0.025002
0.0241567
0.0231643
0.0220107
0.020683
0.0191687
0.0174564
0.0155389
0.0134124
0.0262731
0.0258434
0.0266225
0.028707
0.0301643
0.0299073
0.0282799
0.0248179
0.0247479
0.0246153
0.0243776
0.0240356
0.023589
0.0230346
0.0223657
0.0215716
0.0206403
0.0195599
0.0183194
0.016909
0.0153195
0.013547
0.0115928
0.0229676
0.0225386
0.0235206
0.0254038
0.0264854
0.0258107
0.022124
0.0218713
0.0219012
0.0218429
0.0216647
0.0213721
0.0209706
0.0204623
0.0198448
0.019111
0.018251
0.0172545
0.0161123
0.0148162
0.0133594
0.0117405
0.009963
0.0197865
0.0193477
0.020534
0.0219875
0.0203508
0.0192496
0.0190387
0.0190626
0.0191724
0.0191766
0.0190528
0.0188084
0.0184538
0.0179952
0.0174342
0.016767
0.0159856
0.0150811
0.0140455
0.0128718
0.0115549
0.0100946
0.00849772
0.0169295
0.0164071
0.0179627
0.017919
0.0157332
0.0159944
0.016324
0.0164132
0.0165709
0.0166237
0.0165436
0.0163427
0.0160343
0.0156278
0.0151271
0.0145307
0.0138333
0.0130267
0.0121036
0.0110582
0.00988627
0.00858909
0.00717403
0.0143142
0.0137459
0.0151326
0.0147796
0.0130396
0.0135001
0.0137131
0.0139117
0.0141025
0.0141821
0.0141309
0.0139665
0.0137029
0.0133503
0.0129131
0.0123916
0.0117821
0.0110779
0.010272
0.00935902
0.0083358
0.00720387
0.005972
0.012093
0.0114163
0.0118012
0.0112612
0.0108444
0.0112481
0.0113438
0.0115669
0.0117584
0.0118382
0.0117993
0.0116645
0.0114447
0.0111482
0.0107786
0.0103363
0.00981868
0.00922068
0.00853564
0.00775841
0.00688655
0.00592216
0.00487353
0.0100877
0.00941865
0.00922393
0.00889622
0.0088618
0.00907579
0.00919344
0.00936079
0.00950737
0.00956491
0.0095267
0.00941629
0.00924068
0.00900377
0.00870687
0.0083491
0.00792813
0.00744011
0.00687947
0.00624093
0.00552267
0.00472703
0.00386244
0.00802528
0.00767593
0.00733697
0.00707449
0.00708102
0.00706645
0.00713429
0.0072297
0.00730649
0.00733128
0.0072915
0.00720355
0.00707331
0.00689937
0.00668007
0.00641265
0.00609397
0.00572046
0.00528778
0.00479104
0.0042284
0.00360336
0.00292351
0.00594769
0.00589498
0.00553002
0.0053275
0.00527046
0.00516118
0.00511778
0.00512221
0.00513
0.00511913
0.00507957
0.00501642
0.00493268
0.00482349
0.00468466
0.0045117
0.0043002
0.00404595
0.00374489
0.00339294
0.00298858
0.00253751
0.00204287
0.00363458
0.00373496
0.00344386
0.00344373
0.00334383
0.00317553
0.00306409
0.00299545
0.00294587
0.00290654
0.00287138
0.00283718
0.00280207
0.00275922
0.00270285
0.00262741
0.00252752
0.00239796
0.00223363
0.00202978
0.00178454
0.00150677
0.00120277
0.00103286
0.00117764
0.00116157
0.00121692
0.00115112
0.00101254
0.000869706
0.000744699
0.00065311
0.000597688
0.000575265
0.000578272
0.000599667
0.000630955
0.000665278
0.000696517
0.00071913
0.000727725
0.000716712
0.000679644
0.000611774
0.000512163
0.000394285
1067.53
1070.98
1073.79
1077.27
1037.4
1037.9
1006.57
1008.06
761.647
756.425
742.599
738.128
704.383
701.531
711.074
733.042
704.233
704.926
710.009
713.868
702.36
703.753
704.599
704.916
650.64
660.026
670.868
683.304
192.686
210.473
234.703
250.7
12.7294
11.8921
7.49593
8.09019
0.672874
0.434803
0.321852
0.333224
0.225007
0.260467
0.239623
0.373262
0.164943
0.172855
0.197454
0.235286
0.145257
0.14628
0.153381
0.168107
0.125191
0.120599
0.128567
0.137732
0.102532
0.104842
0.112168
0.260058
0.0897934
0.0884094
0.109919
0.271138
0.0791183
0.076886
0.0767562
0.0977292
0.0685802
0.0655353
0.0625315
0.0567222
0.0607015
0.0581098
0.0548192
0.0514794
0.0545727
0.0523245
0.0497377
0.0468547
0.0478913
0.0460886
0.0438845
0.041363
0.0418143
0.0400516
0.0380983
0.0359179
0.0365474
0.0348264
0.0329559
0.0309435
0.0319007
0.0302122
0.0283869
0.0264312
0.0277855
0.0261395
0.0243786
0.0225067
0.0241684
0.0225814
0.0208965
0.0191155
0.0209918
0.0194796
0.0178813
0.0162
0.0182014
0.0167724
0.0152697
0.0136929
0.0157507
0.0144122
0.0130083
0.011539
0.0135961
0.0123513
0.0110504
0.0096905
0.011699
0.0105518
0.00935441
0.00810477
0.010024
0.00897514
0.0078834
0.00674439
0.00854128
0.00759238
0.00660541
0.00557688
0.00722363
0.00637408
0.00549249
0.00457409
0.00604792
0.00529821
0.0045206
0.00371162
0.00499323
0.00434222
0.00366858
0.00296841
0.00404178
0.00348955
0.00291857
0.00232635
0.0031772
0.00272279
0.00225438
0.00176948
0.00238498
0.00202863
0.00166183
0.00128331
0.00165075
0.00139177
0.0011265
0.00085388
0.000960127
0.000801151
0.000638042
0.000471335
0.000297536
0.000235609
0.000178402
0.000120814
1065.74
1057.53
1084.98
1112.94
1089.21
1088.76
1144.67
1176.39
1204
1222.48
1300.25
1285.2
1238.01
1281.83
1305.87
1246.32
1258.51
1269.14
1221.37
985.895
893.531
901.717
987.918
1004.53
1108.22
1176.6
1163.28
1197.72
1305.11
1165.12
1210.74
1285.29
1248.08
1268.67
1263.22
1300.65
1307.79
1249.95
741.638
753.261
735.282
835.065
924.583
953.979
1000.97
1060.58
1045.45
1093.98
1053.53
1052.33
1074.84
1124.94
1221.01
1262.72
1217.89
1105.12
1101.39
745.361
733.202
721.685
738.938
873.019
880.046
828.517
929.063
948.828
906.123
1023.9
999.842
1024.04
1032.29
977.902
988.651
982.479
984.18
993.133
723.516
745.216
737.039
738.582
750.09
791.177
843.173
791.416
904.079
833.385
859.849
837.618
852.933
865.129
869.491
871.102
887.452
894.341
916.119
711.703
747.473
755.543
739.842
747.022
756.495
762.073
726.064
748.65
835.678
800.359
829.935
853.011
865.866
867.721
867.97
862.001
878.27
914.151
693.39
707.074
753.872
766.837
753.468
745.487
756.411
768.847
764.072
736.365
761.913
823.024
846.056
866.034
873.674
875.873
883.665
904.569
926.016
278.796
333.955
355.793
415.723
544.634
668.473
724.929
766.043
782.86
798.607
803.625
825.642
848.895
862.088
873.75
883.492
907.095
963.254
953.792
7.27171
9.10205
18.9539
25.2774
46.4208
97.8047
205.959
357.958
637.739
761.669
813.238
853.603
899.657
897.693
889.206
894.552
925.8
1012.03
1036.04
1.11399
0.725077
0.182615
0.16418
0.204387
0.210767
5.16255
38.0027
86.1325
146.285
312.24
559.785
766.306
884.557
952.743
961.412
1015.95
1061.43
1063.87
0.5711
0.55463
0.259251
0.143782
0.14504
0.122593
0.0620193
0.0572554
0.0634738
0.992829
3.97904
36.724
110.12
235.03
467.308
744.998
776.761
735.072
707.944
0.302918
0.262961
0.197098
0.152093
0.172763
0.229595
0.209308
0.137872
0.0486422
0.0389518
0.021011
0.241888
2.56965
19.6986
44.8864
132.835
208.741
198.704
194.058
0.173496
0.170586
0.261783
0.301481
0.295168
0.239039
0.119871
0.0477904
0.0327984
0.023958
0.00475167
-0.0260616
-0.0573403
-0.114281
-0.115015
3.86916
41.5198
85.8144
70.5535
0.181573
0.434003
0.35449
0.267964
0.184845
0.0765729
0.0455159
0.0292434
0.0460716
0.241233
0.459531
0.425931
0.147501
-0.143679
-0.144223
-0.175651
-0.222873
0.0891006
1.33862
0.468998
0.505939
0.292444
0.111043
0.0730992
0.0594895
0.0618771
0.290137
0.593828
0.596381
0.534811
0.416206
0.0219348
-0.109906
-0.18014
-0.11804
-0.0671318
0.0546055
0.261324
0.41186
0.397069
0.173711
0.0882027
0.0615719
0.0526752
0.13954
0.511829
0.608301
0.557158
0.242728
-0.0288092
-0.0607607
-0.0803836
-0.108102
-0.116833
-0.115366
-0.0164189
0.00696627
0.200565
0.332596
0.231632
0.144105
0.0589818
0.0404533
0.0549067
0.18245
0.438262
0.290953
-0.0217986
-0.0668626
-0.0817498
-0.0886198
-0.00942009
0.00751602
0.0482986
0.11026
0.0821394
0.05919
0.086806
0.127167
0.165249
0.123902
0.0324839
0.0239175
0.0612124
0.0635104
0.0612962
0.0483637
-0.0202888
-0.0756066
-0.098043
-0.0637468
0.0179303
0.0851137
0.21223
0.0691594
0.0456959
0.0384306
0.0351632
0.0830906
0.113629
0.0774163
0.0191022
0.0497615
0.107851
0.0935931
0.109092
0.133872
0.105377
0.0104046
-0.0993417
-0.0898153
0.0311043
0.174393
-0.0571694
0.0415454
0.0338308
0.0261537
0.0190474
0.058342
0.080419
0.0581796
0.038127
0.0326318
0.0365038
0.0540825
0.0450206
0.160551
0.118061
-0.0415557
-0.0944606
0.0342334
-0.00671327
-0.115356
0.0367886
0.0294797
0.0214838
0.0126079
0.00274865
0.0257396
0.0562637
0.0362151
0.0190787
-0.0204669
-0.0113483
0.000637552
0.0430131
0.172591
0.107647
-0.0679936
0.061461
-0.0262085
-0.127848
0.0318341
0.0249523
0.017399
0.00874479
-0.00100713
-0.0116236
-0.0125601
0.0092892
0.0021846
-0.0459739
-0.0692929
-0.0624596
0.0010006
0.144358
0.145686
0.0713615
0.205015
-0.0106764
-0.117337
0.027175
0.0204434
0.013484
0.00545374
-0.00357618
-0.0136745
-0.024335
-0.0352998
-0.0456765
-0.0573391
-0.0691392
-0.0762279
-0.0760704
-0.00219854
0.109043
0.100984
0.161346
0.0387225
-0.107174
0.0228334
0.0167734
0.0100978
0.00266609
-0.00558975
-0.0146212
-0.0240855
-0.0337887
-0.0435161
-0.0534029
-0.0641533
-0.073612
-0.0812206
-0.0867329
0.000399576
0.0920661
0.102186
0.036002
-0.0999712
0.0191197
0.0135603
0.00733791
0.000421051
-0.00712807
-0.0153085
-0.0238787
-0.0325416
-0.0414446
-0.0507562
-0.0600841
-0.0686065
-0.0761494
-0.0826407
-0.0848427
-0.0348869
-0.0124186
-0.0597383
-0.0915646
0.0159258
0.0107713
0.00503681
-0.00126735
-0.00821005
-0.0156683
-0.0235448
-0.0316671
-0.0398963
-0.0481242
-0.0561741
-0.06369
-0.0703796
-0.0760945
-0.0791889
-0.0842638
-0.0796424
-0.0835587
-0.0863765
0.0132074
0.00843035
0.00314307
-0.00264796
-0.00893701
-0.0156683
-0.0227792
-0.0301392
-0.0375997
-0.044985
-0.0521279
-0.0587865
-0.0646657
-0.0693635
-0.0736179
-0.0721532
-0.0765707
-0.0796187
-0.0790623
0.0108996
0.00648755
0.00163391
-0.00365308
-0.00935429
-0.015425
-0.0217973
-0.0283854
-0.0350735
-0.0416655
-0.0480328
-0.0539307
-0.0590552
-0.0628634
-0.066701
-0.0634698
-0.0681039
-0.0715675
-0.0714717
0.00894664
0.00489079
0.000456426
-0.0043465
-0.00949653
-0.0149539
-0.0206604
-0.0265374
-0.0324738
-0.0383296
-0.0439773
-0.0491405
-0.053618
-0.0568559
-0.0601371
-0.0566529
-0.0610507
-0.0639575
-0.0641191
0.00729942
0.00359182
-0.000438113
-0.00477912
-0.00940995
-0.0142948
-0.0193816
-0.0245998
-0.0298572
-0.0350286
-0.0399682
-0.0444832
-0.0483935
-0.0514226
-0.0538798
-0.0528903
-0.0557386
-0.0570213
-0.0573361
0.00591467
0.00254702
-0.00109318
-0.00499391
-0.00913487
-0.0134836
-0.0179931
-0.0225997
-0.0272215
-0.03175
-0.0360601
-0.0399922
-0.0433911
-0.0461239
-0.0479096
-0.048882
-0.0503324
-0.0505342
-0.0509426
0.00475415
0.00171798
-0.00154692
-0.00502798
-0.00870609
-0.0125521
-0.0165237
-0.0205636
-0.0245982
-0.0285354
-0.0322701
-0.0356833
-0.0386397
-0.0410041
-0.0424255
-0.0437012
-0.0442293
-0.0447867
-0.0406994
0.00378497
0.00107133
-0.00183224
-0.00491309
-0.00815354
-0.0115276
-0.0149973
-0.0185122
-0.0220066
-0.0254037
-0.0286088
-0.0314872
-0.0339875
-0.0361619
-0.0373361
-0.0381495
-0.0389073
-0.0395444
-0.0315167
0.00297839
0.000578539
-0.00197708
-0.00467607
-0.00750246
-0.0104333
-0.0134355
-0.0164646
-0.0194632
-0.0223639
-0.0250974
-0.0275329
-0.0291844
-0.0293527
-0.0302427
-0.0298456
-0.0296865
-0.0346061
-0.0229887
0.00230999
0.000215285
-0.00200498
-0.00433919
-0.00677343
-0.00928805
-0.0118552
-0.0144356
-0.0169786
-0.0194318
-0.0217326
-0.0237745
-0.0251241
-0.0152997
-0.0112752
-0.0206983
-0.0194132
-0.024592
-0.0136499
0.00175853
-3.90457e-05
-0.00193568
-0.00392087
-0.00598296
-0.00810601
-0.0102671
-0.0124337
-0.0145636
-0.0166074
-0.0185221
-0.0202313
-0.021559
-0.0136165
-0.00660717
-0.00523457
-0.0144358
-0.0153446
-0.0139556
0.00130599
-0.000202021
-0.0017858
-0.00343631
-0.00514424
-0.00689728
-0.00867802
-0.0104617
-0.0122151
-0.0138939
-0.015459
-0.0168609
-0.018019
-0.0177371
-0.00527339
-0.00174558
-0.000265665
-0.00807545
-0.00798614
0.000936291
-0.000289062
-0.00156984
-0.00289857
-0.0042683
-0.00567013
-0.00709155
-0.00851521
-0.00991783
-0.0112644
-0.0125196
-0.0136334
-0.0145893
-0.0153323
-0.0139875
0.000807782
0.00219853
0.00295292
-0.00884599
0.00063491
-0.000314158
-0.00130085
-0.00231941
-0.00336489
-0.00443126
-0.0055105
-0.00659183
-0.00766121
-0.00869945
-0.00968155
-0.0105514
-0.0112685
-0.0118923
-0.0124825
-0.0107877
-0.00385946
-0.00948147
-0.0125913
0.000388877
-0.000289213
-0.000990169
-0.00170949
-0.00244365
-0.0031886
-0.00393965
-0.00469137
-0.0054381
-0.00617537
-0.00689253
-0.00751144
-0.00803006
-0.0084311
-0.00887389
-0.00933257
-0.00970536
-0.00953828
-0.00992238
0.000188151
-0.000224702
-0.000647936
-0.0010778
-0.00151185
-0.00194773
-0.00238338
-0.00281731
-0.00324919
-0.00369148
-0.00420213
-0.00449876
-0.00481004
-0.00501136
-0.00521748
-0.00565101
-0.00588575
-0.00597078
-0.00603333
2.22495e-05
-0.000127215
-0.000277638
-0.000424126
-0.000563943
-0.000696351
-0.000821248
-0.00093861
-0.00104961
-0.00114849
-0.00121923
-0.00145499
-0.00162335
-0.00176223
-0.00180038
-0.00179472
-0.00193343
-0.00204535
-0.00209217
)
;

boundaryField
{
    leftWall
    {
        type            fixedFluxPressure;
        gradient        uniform 0;
        value           nonuniform List<scalar> 
50
(
6664.59
6673.63
6691.08
6715.84
6747.98
6787.63
6811.13
5775.24
1404.6
1119
1129.28
1109.71
866.712
649.47
421.174
2.81201
0.801032
0.103276
0.100965
0.093611
0.0869544
0.0820404
0.0779758
0.0744289
0.0712219
0.068204
0.065307
0.0624736
0.0596747
0.0568738
0.0540585
0.0512275
0.04837
0.045448
0.0424631
0.0393847
0.0362258
0.0329393
0.0296338
0.0262731
0.0229676
0.0197865
0.0169295
0.0143142
0.012093
0.0100877
0.00802528
0.00594769
0.00363458
0.00103286
)
;
    }
    rightWall
    {
        type            fixedFluxPressure;
        gradient        uniform 0;
        value           nonuniform List<scalar> 
50
(
3206.97
3187.68
2579.71
1717.18
1212.08
1261.25
1258.6
1234.85
1221.37
1249.95
1101.39
993.133
916.119
914.151
926.016
953.792
1036.04
1063.87
707.944
194.058
70.5535
1.33862
0.261324
0.00696627
0.0821394
0.0691594
-0.0571694
-0.115356
-0.127848
-0.117337
-0.107174
-0.0999712
-0.0915646
-0.0863765
-0.0790623
-0.0714717
-0.0641191
-0.0573361
-0.0509426
-0.0406994
-0.0315167
-0.0229887
-0.0136499
-0.0139556
-0.00798614
-0.00884599
-0.0125913
-0.00992238
-0.00603333
-0.00209217
)
;
    }
    lowerWall
    {
        type            fixedFluxPressure;
        gradient        uniform 0;
        value           nonuniform List<scalar> 
62
(
6664.59
6622.31
6543.01
6433.5
6302.19
6158.15
6010.03
5865.47
5730.03
5606.89
5496.93
5399.65
5313.66
5237.29
5169.27
5108.58
5054.55
5007.37
4967.77
4935.95
4911.94
4895.28
4886.5
4886.5
4884.26
4880.25
4870.81
4589.16
2042.02
1070.65
1068.55
1067.53
1070.98
1073.79
1077.27
2693.98
2602.75
1911.12
1071.03
1084.34
1034.99
1026.92
1031.71
2693.98
2721.4
2729.63
2751.9
2804.17
2886.52
2977.05
3057.07
3113.63
3172.94
3255.57
3359.03
3449.48
3484.13
3454.07
3387.65
3314.09
3246.22
3206.97
)
;
    }
    atmosphere
    {
        type            totalPressure;
        rho             rho;
        psi             none;
        gamma           1;
        p0              uniform 0;
        value           nonuniform List<scalar> 
46
(
0
0
0
0
-3.59445e-05
-0.00020708
-0.000390205
-0.00053694
-0.000636961
-0.00068764
-0.000690729
-0.000657462
-0.000596795
-0.000518044
-0.000428631
-0.000334843
-0.000242042
-0.000155101
-7.93908e-05
-2.37022e-05
-5.1538e-07
0
0
0
-2.85767e-07
-4.28037e-06
-1.21835e-05
-2.70798e-05
-5.54065e-05
-8.00475e-05
-9.368e-05
-9.51436e-05
-8.6479e-05
-7.09972e-05
-5.17983e-05
-3.1695e-05
-1.33564e-05
-1.07782e-06
0
0
0
0
0
0
0
0
)
;
    }
    defaultFaces
    {
        type            empty;
    }
}


// ************************************************************************* //
