/*--------------------------------*- C++ -*----------------------------------*\
| =========                 |                                                 |
| \\      /  F ield         | OpenFOAM: The Open Source CFD Toolbox           |
|  \\    /   O peration     | Version:  2312                                  |
|   \\  /    A nd           | Website:  www.openfoam.com                      |
|    \\/     M anipulation  |                                                 |
\*---------------------------------------------------------------------------*/
FoamFile
{
    version     2.0;
    format      ascii;
    arch        "LSB;label=32;scalar=64";
    class       volScalarField;
    location    "3.2";
    object      alpha.water_0;
}
// * * * * * * * * * * * * * * * * * * * * * * * * * * * * * * * * * * * * * //

dimensions      [0 0 0 0 0 0 0];

internalField   nonuniform List<scalar> 
2268
(
2.37892e-07
3.86295e-08
2.93861e-09
5.13654e-10
2.13737e-10
9.96463e-11
5.2208e-11
4.23552e-11
3.7074e-11
3.67116e-11
3.85501e-11
4.36768e-11
5.22575e-11
6.4124e-11
8.02984e-11
1.03168e-10
1.51123e-10
2.24775e-10
3.28612e-10
5.3943e-10
9.04859e-10
1.22904e-09
1.38522e-09
4.46425e-07
1.16476e-07
5.55436e-09
4.12306e-10
1.79118e-10
1.26857e-10
9.75826e-11
7.911e-11
6.31394e-11
5.40967e-11
5.67537e-11
6.84587e-11
9.72118e-11
1.05624e-10
1.33022e-10
1.80798e-10
2.47741e-10
4.06649e-10
6.41588e-10
1.00761e-09
1.75473e-09
2.24683e-09
1.69223e-09
4.46425e-07
6.98869e-08
1.13817e-09
2.50526e-10
2.57403e-10
2.72021e-10
2.5712e-10
1.78441e-10
1.40752e-10
1.32191e-10
1.15677e-10
1.50545e-10
2.16914e-10
1.10679e-10
1.72825e-10
6.08154e-10
2.47794e-10
2.794e-10
4.50734e-10
8.93996e-10
1.98262e-09
3.03704e-09
1.51118e-09
1.28525e-07
2.86124e-08
1.35038e-10
1.94265e-10
1.77979e-10
1.79148e-10
1.94635e-10
3.51762e-10
5.14094e-10
4.49079e-10
2.82899e-10
8.60969e-11
7.84205e-11
7.59447e-11
7.58673e-11
1.22946e-09
1.04317e-09
2.05387e-09
6.02181e-11
6.10759e-11
5.81652e-11
5.94771e-11
5.81646e-11
3.87457e-08
8.96522e-09
1.12715e-11
5.41409e-11
4.5503e-11
4.69031e-11
4.20259e-12
-2.18472e-13
-4.24705e-13
-4.74363e-13
-3.30834e-13
-1.38068e-14
1.78328e-22
0.0140723
0.0295635
0.0406188
0.0386295
0.033825
0.0298382
0.028806
0.0278342
0.0266097
0.010981
8.60804e-09
1.37974e-19
6.69899e-11
5.28026e-20
6.58681e-21
-4.60026e-23
2.8226e-26
0.00833784
0.0640633
0.152744
0.260531
0.401643
0.532354
0.613979
0.663411
0.684663
0.683949
0.681117
0.670977
0.66545
0.685644
0.714564
0.644712
-5.19461e-14
5.87143e-20
6.02402e-05
0.0146301
0.0977264
0.26505
0.431047
0.611459
0.757277
0.867911
0.953402
0.987553
0.99009
0.958802
0.955461
0.967121
0.974972
0.978317
0.980576
0.973322
0.933989
0.908486
0.909212
0.0839723
0.158067
0.319226
0.562733
0.791898
0.918619
0.987373
0.999553
0.999553
0.999472
0.999466
0.999553
0.998943
0.955908
0.922392
0.980316
0.980575
0.980577
0.980575
0.897085
0.79404
0.809592
0.883347
0.0179895
0.0179749
0.0120617
0.00698091
0.00880746
0.0183419
0.0195316
0.0194689
0.018963
0.0159344
0.0153646
0.0150149
0.0125008
0.00949999
0.00554391
0.00414587
0.00666216
0.00767854
0.00807179
0.0104662
0.00980772
0.00813406
0.00698205
0.00698076
0.00698189
0.0069806
0.0108442
0.0134404
0.00961053
0.00415244
0.00415519
0.00417105
0.00413011
0.00413054
0.00413109
0.00413493
0.00413611
0.00413631
0.010576
0.0114038
0.01155
0.00698091
0.0461837
0.102752
0.0990961
0.0444428
0.0101242
0.00967934
0.0112661
0.00917327
0.019445
0.0754527
0.117457
0.104949
0.126073
0.189964
0.230871
0.0963296
0.0157502
0.142722
0.349345
0.672228
0.747822
0.673889
0.420158
0.275632
0.257274
0.378719
0.406808
0.570802
0.685121
0.745032
0.723147
0.634466
0.638171
0.662187
0.530653
0.334874
0.569241
0.918962
0.92162
0.917431
0.82327
0.597659
0.417521
0.639712
0.888564
0.88856
0.883431
0.887672
0.885777
0.885683
0.885238
0.884349
0.884326
0.573427
0.471265
0.716985
0.925177
0.782374
0.444126
0.432113
0.422072
0.420022
0.794738
0.888563
0.888631
0.888655
0.887567
0.887072
0.882596
0.883563
0.883827
0.88432
0.526088
0.467578
0.683402
0.925082
0.646394
0.5189
0.47142
0.423645
0.425012
0.517219
0.862932
0.888568
0.8846
0.875128
0.845504
0.856871
0.884329
0.884344
0.884312
0.573895
0.709591
0.624496
0.884317
0.960945
0.960946
0.92342
0.745284
0.565518
0.482588
0.712191
0.862103
0.799856
0.72987
0.771255
0.838369
0.824749
0.767457
0.618925
0.879308
0.913991
0.96894
0.99946
0.999542
0.999543
0.999553
0.999553
0.999553
0.999553
0.999553
0.999553
0.999553
0.976726
0.914235
0.973916
0.980576
0.980575
0.968203
0.806189
0.793346
0.858536
0.969068
0.999201
0.999201
0.999201
0.999201
0.997271
0.996863
0.998494
0.999226
0.997376
0.996592
0.999132
0.999553
0.997305
0.994215
0.955344
0.936667
0.980525
0.975169
0.963266
0.951858
0.960126
0.989832
0.992957
0.998956
0.998348
0.997995
0.995205
0.992943
0.996853
0.982509
0.931614
0.870751
0.899972
0.95739
0.947688
0.939178
0.947194
0.930667
0.901401
0.941861
0.913856
0.861424
0.863511
0.905422
0.900117
0.953208
0.598576
0.560864
0.540059
0.546896
0.530134
0.408802
0.405705
0.422538
0.357922
0.557931
0.735754
0.801326
0.800498
0.600892
0.426928
0.418073
0.496457
0.404583
0.276879
0.234324
0.162004
0.110292
0.547992
0.000114578
0.000114388
0.000114578
0.000114388
0.00924495
0.031426
0.0305759
0.0624947
0.0436934
0.0647208
0.116198
0.134176
0.101598
0.0255736
0.00123358
0.00116302
0.00397946
0.000366254
6.06614e-09
2.63639e-09
1.97793e-07
0.00746383
-2.22563e-09
0.00148641
0.00154491
0.000726532
0.000384487
0.00267006
0.0340167
0.0478905
0.0471549
0.00496675
0.00275965
0.00197116
-4.67408e-06
-4.94463e-08
2.33928e-05
2.86981e-06
8.06228e-07
-8.17473e-07
8.97868e-16
-2.29052e-21
1.73821e-05
0.000157944
0.00108249
0.00143388
0.00424647
0.00376595
0.000967891
0.00458085
0.00601655
0.0193833
0.0351183
0.0293256
0.00660757
0.0014583
0.0013857
0.00105782
0.000209534
5.62203e-05
1.46621e-05
8.2287e-05
0.000161651
0.000175182
0.000252869
0.0005403
0.00136509
0.000171763
2.54998e-05
0.00393762
0.0037131
0.00301627
0.00140948
0.000552765
0.000172717
0.000822352
0.00120098
0.00187762
0.00298909
0.0033717
0.00329768
0.000306391
1.06409e-07
0.000156124
0.000467362
0.00131223
0.00207854
0.00149304
0.00152143
0.0018517
0.00185631
0.00471112
1.43828e-14
2.10177e-14
3.74865e-05
-3.40554e-11
-2.32775e-11
-3.76154e-14
9.26077e-22
-7.61715e-08
2.15757e-07
0.000773029
0.00292585
0.00316274
0.000108451
9.72933e-08
0.0011139
0.00652032
0.0077575
0.00775571
0.00657859
0.000896462
0.000465016
0.00598382
0.0204549
8.88311e-09
8.60388e-09
8.74356e-09
1.5081e-08
3.39122e-09
-1.34822e-16
1.52578e-07
1.35982e-05
2.09651e-05
2.19046e-05
0.000185127
0.000679989
0.00021321
5.349e-06
8.25327e-06
0.00146142
0.00529919
0.00657846
0.00318775
0.000114452
0.000485832
0.0094019
0.0145763
1.1591e-08
1.11931e-08
9.39459e-09
2.44229e-08
7.34578e-08
2.63068e-08
3.24086e-07
1.14565e-05
2.4952e-05
2.19034e-05
3.77654e-06
6.57082e-08
1.22028e-05
2.92072e-06
7.832e-07
2.08542e-08
4.15161e-05
8.14442e-05
0.000100916
0.000114469
4.19115e-05
2.93344e-07
6.27716e-07
1.20223e-08
8.33362e-09
2.45145e-09
9.18063e-08
1.35225e-06
1.23627e-06
3.296e-07
1.14493e-06
1.33105e-05
1.18991e-05
3.50977e-06
1.26151e-07
2.89036e-07
1.8451e-08
5.41032e-08
2.22966e-08
8.20371e-08
7.38614e-09
7.38451e-09
2.0485e-05
1.49254e-05
2.92452e-07
1.80036e-07
1.16533e-08
6.68442e-09
2.44956e-09
5.2092e-07
1.81461e-06
1.81365e-06
1.62682e-06
2.41814e-07
2.68439e-07
2.61967e-07
1.70088e-06
2.01953e-06
4.07913e-07
7.70505e-09
7.08151e-09
7.84819e-09
9.03198e-09
7.47294e-09
7.39926e-09
2.01904e-05
5.76024e-05
5.70458e-05
1.86158e-05
1.13385e-08
5.04537e-09
4.16345e-09
6.51384e-07
1.19307e-06
1.43441e-06
1.18363e-06
4.37784e-08
4.35971e-08
4.35802e-08
2.1007e-06
2.41532e-06
1.82709e-06
7.38759e-07
3.05978e-08
7.77184e-09
2.83655e-05
4.92696e-05
5.57085e-05
5.76024e-05
5.76205e-05
5.48715e-05
3.0032e-05
1.11779e-08
4.5452e-09
2.84982e-09
1.34588e-07
6.15605e-07
2.65858e-07
2.63736e-07
1.0116e-06
2.17734e-05
3.30751e-05
3.9453e-05
4.84758e-05
5.13239e-05
5.12776e-05
3.84265e-05
1.20027e-05
1.00167e-05
1.33491e-05
1.54058e-05
1.65399e-05
2.0333e-05
2.55339e-05
1.60779e-05
1.11061e-08
5.36125e-09
2.83784e-09
8.69286e-10
8.68878e-10
8.70343e-10
2.12097e-06
2.97169e-05
3.37869e-05
3.2657e-05
1.26265e-05
2.25348e-05
2.66229e-05
2.04571e-05
7.27743e-06
9.45544e-07
7.94131e-07
9.27016e-07
1.01666e-06
1.17034e-06
3.13797e-06
6.77357e-06
4.50041e-06
1.11189e-08
5.61659e-09
2.66898e-09
9.61996e-10
5.95431e-09
1.13186e-07
6.97129e-07
3.48005e-06
5.22416e-06
2.10371e-06
9.90295e-10
9.95917e-10
6.29378e-09
9.74987e-10
9.70125e-10
9.7349e-10
9.70124e-10
9.73489e-10
9.90089e-10
6.99761e-08
5.32723e-07
1.41972e-06
3.03925e-06
1.14149e-08
5.78587e-09
4.20697e-09
3.22636e-09
3.61035e-09
1.07841e-08
1.62047e-08
4.26671e-09
1.20883e-09
1.20505e-09
4.62488e-09
5.81756e-09
5.96486e-09
3.80417e-09
1.78438e-09
1.86639e-09
1.81618e-09
1.39336e-09
9.48074e-10
1.24557e-10
1.02631e-10
1.01206e-10
1.20882e-06
1.24038e-08
5.42395e-09
3.97176e-09
3.61285e-09
4.92522e-09
6.29324e-09
6.15828e-09
4.53318e-09
2.28562e-09
1.19856e-09
2.54242e-09
3.42181e-09
3.81065e-09
3.38799e-09
4.13853e-09
4.79806e-09
3.79905e-09
2.19245e-09
1.20799e-09
1.04453e-09
9.1549e-10
6.93477e-10
1.65216e-08
1.3236e-08
4.44187e-09
2.84047e-09
1.1257e-09
7.99099e-10
1.11428e-09
1.66702e-09
1.77539e-09
1.43616e-09
1.19111e-09
1.0843e-09
1.0586e-09
1.00887e-09
1.03959e-09
1.42241e-09
1.93493e-09
2.26137e-09
2.05575e-09
1.60219e-09
1.16002e-09
8.89757e-10
9.82439e-10
1.20626e-09
1.67738e-08
3.19981e-09
1.87482e-09
5.17173e-10
1.82926e-10
1.63425e-10
2.1025e-10
2.7145e-10
3.79298e-10
4.64379e-10
4.94931e-10
4.99078e-10
4.92093e-10
5.63682e-10
7.673e-10
9.41399e-10
1.06675e-09
1.17139e-09
1.07245e-09
7.02514e-10
5.94345e-10
6.40855e-10
9.47018e-10
2.25327e-08
2.28421e-09
1.15378e-09
5.05223e-10
2.02876e-10
1.27344e-10
1.17906e-10
1.2552e-10
1.45188e-10
1.70524e-10
1.95515e-10
2.12753e-10
2.44088e-10
2.89059e-10
3.7344e-10
4.57358e-10
4.99088e-10
5.22838e-10
5.1845e-10
3.91798e-10
3.08545e-10
3.30708e-10
4.39643e-10
5.35107e-08
9.29781e-10
9.12581e-10
4.9311e-10
2.00809e-10
1.13644e-10
9.04945e-11
7.96749e-11
7.77464e-11
8.12763e-11
8.66691e-11
9.2442e-11
1.07189e-10
1.2533e-10
1.55655e-10
1.83417e-10
2.04613e-10
2.22536e-10
2.27274e-10
1.80037e-10
1.51142e-10
1.58327e-10
2.05845e-10
6.14805e-08
1.21108e-09
6.11186e-10
3.77516e-10
2.05196e-10
1.25719e-10
9.08903e-11
6.82925e-11
5.16702e-11
4.35521e-11
3.94051e-11
3.91616e-11
4.28646e-11
4.90201e-11
5.69331e-11
6.47092e-11
7.17125e-11
7.74139e-11
7.99306e-11
7.39739e-11
7.06565e-11
7.95895e-11
9.82807e-11
8.83211e-08
3.61825e-10
2.60792e-10
2.64386e-10
2.1386e-10
1.67441e-10
1.31724e-10
9.79982e-11
6.68205e-11
4.2434e-11
2.89063e-11
2.08824e-11
1.76221e-11
1.71564e-11
1.84961e-11
2.03757e-11
2.24589e-11
2.43832e-11
2.57086e-11
2.70658e-11
2.95338e-11
3.44998e-11
4.60568e-11
8.51739e-08
3.22313e-09
2.04928e-10
2.7118e-10
2.65657e-10
2.36484e-10
1.98179e-10
1.50344e-10
9.98783e-11
6.41599e-11
4.00766e-11
2.32114e-11
1.27631e-11
7.82385e-12
6.14264e-12
5.89762e-12
6.22134e-12
6.7933e-12
7.48328e-12
8.98214e-12
1.07279e-11
1.51095e-11
2.01703e-11
1.38198e-07
8.81938e-09
2.04725e-10
3.18168e-10
3.49707e-10
3.31843e-10
2.95185e-10
2.31807e-10
1.49957e-10
1.01324e-10
6.6239e-11
3.81454e-11
1.90542e-11
8.51597e-12
3.74925e-12
2.08255e-12
1.63921e-12
1.71067e-12
2.0065e-12
2.70579e-12
3.66662e-12
5.30974e-12
8.09953e-12
1.43689e-07
2.60739e-08
2.02127e-10
3.68184e-10
4.46377e-10
4.43654e-10
4.1255e-10
3.46196e-10
2.0249e-10
1.49235e-10
1.04893e-10
6.40612e-11
3.33908e-11
1.4711e-11
5.53258e-12
1.91737e-12
7.47243e-13
4.67154e-13
5.06094e-13
7.39266e-13
1.06365e-12
1.92876e-12
2.96832e-12
1.63267e-07
4.41357e-08
2.02316e-10
3.46156e-10
4.68643e-10
4.73874e-10
5.00736e-10
4.76438e-10
2.56195e-10
2.01319e-10
1.51255e-10
9.81583e-11
5.45901e-11
2.55545e-11
9.88092e-12
3.2493e-12
9.51247e-13
2.90199e-13
1.4721e-13
1.85095e-13
3.27823e-13
5.65527e-13
1.0113e-12
1.63673e-07
4.61871e-08
2.02373e-10
2.61093e-10
2.61126e-10
2.61166e-10
4.56175e-10
4.71003e-10
2.86086e-10
2.4757e-10
1.98618e-10
1.35675e-10
7.97897e-11
3.95464e-11
1.62288e-11
5.74135e-12
1.71681e-12
4.33472e-13
1.04781e-13
5.29232e-14
7.74374e-14
1.79567e-13
3.1986e-13
1.70341e-07
9.2889e-08
2.02567e-10
4.44647e-10
2.73307e-09
1.6615e-08
1.28541e-08
2.86256e-10
2.86497e-10
2.97489e-10
2.46066e-10
1.74188e-10
1.06426e-10
5.47403e-11
2.44738e-11
9.22488e-12
2.92098e-12
7.7494e-13
1.85009e-13
3.0204e-14
2.32204e-14
4.39381e-14
9.33677e-14
1.6328e-07
1.491e-07
7.03175e-09
9.69241e-10
6.9302e-08
1.44755e-07
6.25708e-08
2.34549e-09
2.86466e-10
3.17607e-10
2.81355e-10
2.05861e-10
1.31114e-10
7.00918e-11
3.33809e-11
1.34013e-11
4.48914e-12
1.25707e-12
2.91193e-13
5.65895e-14
9.06502e-15
1.09669e-14
2.43549e-14
1.72772e-07
1.73524e-07
6.26971e-08
4.75318e-10
9.14876e-08
2.54715e-07
4.47151e-07
5.54541e-08
5.48522e-10
3.35649e-10
2.91909e-10
2.19913e-10
1.42764e-10
7.68082e-11
3.78903e-11
1.67644e-11
6.39488e-12
1.90403e-12
4.76058e-13
9.47707e-14
9.89358e-15
2.95467e-15
6.16933e-15
9.92912e-08
1.68547e-07
6.9671e-08
4.75203e-10
2.06378e-08
4.47612e-07
1.43794e-06
6.31059e-07
7.05183e-09
5.14328e-10
2.80209e-10
2.16709e-10
1.41548e-10
7.70817e-11
3.85819e-11
1.7892e-11
7.36191e-12
2.48263e-12
6.57184e-13
1.41593e-13
2.32686e-14
1.54595e-15
1.31576e-15
5.40374e-08
1.49004e-07
5.06828e-08
1.08638e-09
5.86637e-10
4.92699e-07
1.43453e-06
1.19203e-06
4.97559e-08
1.80163e-09
2.66833e-10
1.96793e-10
1.29884e-10
6.96565e-11
3.4529e-11
1.63824e-11
7.20885e-12
2.67956e-12
7.80734e-13
1.77176e-13
3.33753e-14
1.7006e-15
3.39657e-16
1.69313e-08
6.86155e-08
2.66727e-08
2.08811e-09
5.89316e-10
4.59969e-07
1.40954e-06
6.30992e-07
6.59183e-08
4.19248e-09
3.09176e-10
1.62918e-10
1.07304e-10
5.65515e-11
2.70594e-11
1.26389e-11
5.78401e-12
2.35459e-12
7.73198e-13
1.91462e-13
3.70185e-14
3.09651e-15
1.43453e-16
7.31118e-09
2.43182e-08
9.21453e-09
1.44478e-09
5.86732e-10
2.32403e-07
9.71329e-07
1.82307e-07
2.76647e-08
3.39716e-09
2.72146e-10
1.19611e-10
7.81566e-11
4.0407e-11
1.82412e-11
8.09557e-12
3.69298e-12
1.59423e-12
5.89664e-13
1.62518e-13
3.36974e-14
3.73024e-15
1.3321e-16
2.59707e-09
3.01013e-09
1.58425e-09
1.58174e-09
8.59806e-10
6.29503e-09
5.19867e-09
2.68742e-08
1.00669e-08
1.44663e-09
1.49711e-10
7.54076e-11
4.9303e-11
2.4907e-11
1.04794e-11
4.22559e-12
1.79059e-12
7.89504e-13
3.17839e-13
1.0311e-13
2.28976e-14
3.4121e-15
1.52245e-16
8.05958e-09
1.58628e-09
1.58503e-09
1.62459e-09
2.26439e-09
1.57374e-09
2.89167e-10
8.04714e-11
1.83631e-10
1.3944e-10
5.06894e-11
3.88922e-11
2.57111e-11
1.27939e-11
4.94804e-12
1.72646e-12
6.34594e-13
2.54043e-13
1.12402e-13
4.50394e-14
1.27792e-14
1.78034e-15
1.38988e-16
2.85073e-07
9.94479e-08
2.17056e-08
8.66785e-09
6.33644e-09
3.39839e-09
1.12221e-09
2.21957e-10
1.44172e-10
6.26263e-11
2.00877e-11
1.59869e-11
1.07562e-11
5.29084e-12
1.91371e-12
5.60463e-13
1.59761e-13
5.22377e-14
2.27276e-14
1.29391e-14
4.08001e-15
8.16596e-16
1.02621e-16
4.30479e-07
2.8939e-07
5.1137e-08
1.18418e-08
4.82348e-09
1.87301e-09
4.79826e-10
8.23584e-11
3.69411e-11
1.17357e-11
5.05063e-12
4.41057e-12
3.17266e-12
1.55863e-12
5.30673e-13
1.29626e-13
2.65839e-14
5.8245e-15
2.58347e-15
2.30956e-15
1.0107e-15
3.14242e-16
6.13533e-17
3.5809e-07
1.39378e-07
2.60808e-08
4.87766e-09
1.09751e-09
2.01983e-10
1.59164e-11
3.32041e-12
6.69067e-13
1.39634e-13
6.03003e-13
6.44982e-13
4.87916e-13
2.44548e-13
7.73775e-14
1.60464e-14
2.27972e-15
3.21946e-16
1.57605e-16
2.56359e-16
2.26967e-16
9.56872e-17
2.84181e-17
0.966054
0.951646
0.854985
0.829144
0.993017
0.989768
0.985887
0.98315
0.991224
0.988744
0.989885
0.992576
0.711588
0.640998
0.71427
0.842272
1.2468e-26
8.65523e-26
1.89962e-15
0.00510325
3.44663e-07
1.62034e-09
1.39417e-07
3.51023e-06
3.26316e-05
0.000242055
0.000393787
0.000311782
0.0128846
0.0147913
0.0129081
0.00726382
0.020455
0.0204554
0.020455
0.0204549
0.0184192
0.0204555
0.0204554
0.020455
0.000358996
0.00290268
0.00696541
0.00846822
1.60857e-07
1.60413e-06
2.58901e-06
9.81341e-07
1.62814e-07
3.11164e-07
9.10776e-07
1.00076e-06
1.07863e-06
1.99258e-07
2.11029e-07
5.14078e-07
7.58244e-07
1.96994e-07
2.125e-07
3.1997e-07
4.82383e-07
1.99105e-07
1.13585e-06
1.0034e-05
1.02771e-06
1.95273e-07
1.02236e-05
3.77565e-05
9.73841e-07
1.4228e-07
1.32541e-05
2.85804e-05
1.11696e-07
1.41912e-07
6.13904e-07
2.81193e-06
1.20789e-09
3.52658e-09
3.33243e-09
7.67261e-09
1.64319e-09
3.79683e-09
6.62686e-09
1.28803e-08
7.43875e-10
1.15041e-09
2.171e-09
4.01846e-09
2.917e-10
3.74183e-10
5.96981e-10
8.69024e-10
1.34012e-10
1.62377e-10
1.99434e-10
2.69262e-10
6.22405e-11
7.47012e-11
9.87714e-11
1.11988e-10
2.8323e-11
3.6581e-11
4.2842e-11
5.49412e-11
1.19957e-11
1.4669e-11
2.02649e-11
2.2866e-11
4.59087e-12
6.16355e-12
7.37254e-12
9.87529e-12
1.65906e-12
2.09787e-12
3.01862e-12
3.47564e-12
5.54881e-13
7.79371e-13
9.52853e-13
1.31204e-12
1.74267e-13
2.28766e-13
3.47847e-13
4.05229e-13
5.02321e-14
7.83516e-14
9.57441e-14
1.40293e-13
1.31494e-14
1.90555e-14
3.0883e-14
3.64511e-14
3.51357e-15
5.43278e-15
7.3452e-15
1.14592e-14
6.73174e-16
1.03629e-15
1.93243e-15
2.36873e-15
1.52387e-16
2.57697e-16
3.93872e-16
6.90396e-16
2.97778e-17
4.50279e-17
1.01165e-16
1.45878e-16
6.87744e-18
9.6435e-18
1.65414e-17
3.38017e-17
1.75656e-18
1.50277e-18
3.29996e-18
4.98408e-18
1.38509e-18
3.35457e-19
3.84017e-19
9.62648e-19
1.45253e-18
1.39692e-19
7.59746e-20
1.63438e-19
1.37218e-18
9.90286e-20
1.83738e-20
2.36747e-20
0.828891
0.834979
0.62318
0.801473
0.960992
0.960944
0.960944
0.95844
0.852026
0.551963
0.537481
0.640657
0.353693
0.256418
0.33988
0.342756
0.252655
0.116185
0.0317148
0.97708
0.842532
0.687205
0.772265
0.960995
0.960197
0.946352
0.929798
0.811587
0.289805
0.0961526
0.106269
0.0651667
0.0399711
0.000998066
2.49746e-05
3.12571e-05
2.90417e-05
3.50907e-05
0.992417
0.968222
0.964044
0.964705
0.947969
0.807592
0.541598
0.424742
0.530661
0.262213
0.0960714
0.0961512
0.140468
0.0424579
0.00312346
0.00450755
0.00227619
0.00157259
0.000553932
0.911346
0.943357
0.931344
0.808477
0.48116
0.115767
0.0330735
0.103902
0.412119
0.499149
0.499665
0.480562
0.146642
0.00102823
0.00320848
0.00655539
0.00666934
0.00599645
0.00166757
0.12828
0.243366
0.207494
0.0340813
1.86666e-18
8.58287e-15
1.73866e-18
8.5829e-15
0.040499
0.307419
0.378587
0.103662
9.39471e-05
0.0010284
0.00223963
0.00474442
0.00409357
0.00496824
0.00150591
-1.78013e-09
-1.30745e-23
5.44952e-24
5.66917e-10
1.92553e-05
0.000505332
0.000618483
0.000494677
1.78078e-06
1.78212e-06
1.7806e-06
1.78233e-06
9.20037e-05
0.000733284
0.0048704
0.00214382
0.000276083
0.00155895
0.000472527
-1.4002e-08
1.53363e-05
1.24749e-05
1.59935e-05
1.82934e-05
1.42837e-05
2.70217e-05
1.78727e-05
1.74129e-05
1.00601e-05
2.58666e-06
1.79704e-06
1.97878e-06
0.00126125
0.00486771
0.00408328
0.000301995
3.24398e-08
3.24397e-08
0.00161414
0.00024557
6.86025e-05
0.000215724
0.000187167
6.76958e-05
0.000191363
0.000274141
0.000338268
0.000369372
0.000298407
0.000257001
0.000164039
0.000868138
0.00342992
0.00232965
0.000346398
3.25189e-08
3.24398e-08
0.0204544
0.00761181
6.72911e-05
0.000386196
0.000186752
0.000218014
0.00121506
0.0023599
0.00232671
0.0021127
0.00138614
0.00116402
0.00105685
0.00051978
2.06364e-07
4.52584e-09
2.69672e-05
8.48864e-06
4.50034e-08
0.020455
0.0121258
0.00754186
0.00818004
0.00332178
0.0043449
0.00701776
0.00458358
0.00249545
0.00202174
0.00102841
0.000519474
0.000185949
1.44015e-06
1.53036e-07
5.14938e-09
5.36908e-08
7.72071e-07
3.28311e-08
0.00842309
0.00773698
0.00913719
0.00913719
0.00913719
0.00913719
0.00635255
0.000162845
4.01074e-07
5.47731e-07
3.91964e-07
1.15678e-08
1.22936e-08
1.12305e-05
1.23983e-05
4.88906e-06
2.61586e-08
3.1851e-08
2.69685e-08
3.29855e-06
0.00110468
0.00810687
0.00913355
0.00914105
0.0067928
1.48828e-06
1.66941e-06
1.34307e-06
5.22979e-06
1.00228e-05
2.09855e-06
2.44248e-07
9.72265e-05
0.000165524
0.00015541
5.81391e-05
2.59384e-08
1.14583e-07
3.15678e-07
3.92063e-08
0.000549731
0.00366155
0.0055861
0.000376897
1.27832e-05
3.41743e-05
7.74981e-06
6.02364e-05
5.98088e-05
4.15952e-05
1.59818e-08
4.3318e-05
0.000159389
0.000187457
0.000190639
2.70222e-05
1.15798e-07
5.08178e-07
4.2681e-08
8.4546e-09
1.47106e-06
9.95584e-08
2.69142e-07
1.23429e-05
0.000103065
1.04292e-06
4.64788e-06
5.61319e-05
5.05695e-05
1.18449e-06
7.98847e-08
8.0393e-08
6.10067e-05
0.000190244
6.39995e-05
1.17106e-07
5.52786e-07
2.3122e-08
7.93126e-09
7.4856e-09
7.57244e-07
1.86718e-07
3.06109e-08
3.07655e-07
8.28072e-07
1.13807e-06
9.77833e-07
5.13367e-07
6.01463e-07
8.18666e-08
1.38332e-07
1.51431e-05
5.89574e-05
4.56365e-05
1.18984e-07
4.23949e-06
3.11323e-06
5.46179e-06
1.48562e-05
1.28169e-05
5.61011e-07
3.05227e-08
3.05434e-08
6.19966e-06
1.44058e-05
7.3221e-06
1.3062e-06
1.4205e-06
1.08497e-06
1.50998e-06
1.51764e-07
1.38447e-07
5.38797e-06
1.32978e-06
3.83503e-05
3.83193e-05
3.21748e-05
1.82622e-05
7.56264e-06
3.00909e-08
3.0319e-08
3.20221e-07
1.99802e-05
2.65468e-05
2.65545e-05
1.63342e-05
1.42296e-05
1.4604e-05
5.10722e-06
5.15184e-07
1.45031e-06
4.61592e-06
3.15582e-06
3.26265e-05
2.97208e-05
1.76924e-05
4.64537e-06
3.31796e-08
3.00587e-08
3.73862e-08
6.72447e-07
1.09523e-05
2.64986e-05
2.65228e-05
2.65468e-05
2.65468e-05
2.55123e-05
4.28814e-06
5.14364e-07
6.34663e-06
2.18476e-05
1.55459e-05
2.68666e-06
1.32228e-06
2.12487e-07
1.80909e-07
5.98833e-07
1.95227e-06
1.96159e-06
1.07191e-06
4.28617e-09
8.5421e-08
1.91621e-05
2.65468e-05
2.34044e-05
7.05918e-06
4.67411e-09
5.53238e-07
9.87338e-06
2.20351e-05
1.80129e-05
2.40417e-08
1.12326e-08
3.92665e-08
1.73205e-07
5.96206e-07
5.99414e-07
2.91384e-07
1.9019e-08
4.26484e-09
7.83612e-07
2.24003e-06
2.55957e-06
5.23669e-09
4.66839e-09
4.62934e-09
7.35516e-08
2.15447e-05
2.19837e-05
1.33389e-05
1.5561e-08
1.02937e-08
2.80115e-08
5.16178e-08
1.24353e-08
4.46792e-09
5.69988e-09
4.69185e-09
8.98099e-09
1.07677e-08
8.28397e-09
8.06032e-09
7.95262e-09
1.16856e-08
4.58526e-09
4.20833e-06
2.15384e-05
1.40198e-05
2.72523e-06
4.43559e-09
2.1181e-09
2.87576e-09
1.55475e-09
1.59604e-09
3.25251e-09
6.0104e-09
6.51006e-09
9.6463e-09
2.04371e-08
2.37527e-08
2.37669e-08
1.25617e-08
5.44528e-09
4.70108e-09
5.53665e-06
2.15288e-05
2.71675e-06
2.72006e-06
9.54394e-10
6.88646e-10
7.49888e-10
9.1098e-10
1.57253e-09
2.95838e-09
4.56792e-09
5.89508e-09
7.67549e-09
1.28866e-08
1.87291e-08
1.98343e-08
1.14105e-08
4.64279e-09
4.63864e-09
3.882e-06
1.41087e-05
3.27677e-06
3.87703e-06
2.83208e-10
3.40108e-10
4.18683e-10
5.37409e-10
8.46828e-10
1.35069e-09
2.03479e-09
2.66541e-09
3.85274e-09
7.78466e-09
1.19468e-08
1.38696e-08
2.61283e-08
2.12553e-08
4.60188e-09
3.60143e-06
2.11872e-06
2.7449e-06
1.5083e-05
1.33523e-10
1.8105e-10
2.47948e-10
3.38519e-10
4.68157e-10
6.74503e-10
1.06301e-09
1.78384e-09
3.15826e-09
5.17767e-09
8.85376e-09
1.18588e-08
2.85609e-08
5.83747e-08
3.55161e-07
5.44226e-07
2.92102e-07
2.43786e-06
1.5992e-05
6.15339e-11
9.29503e-11
1.37131e-10
1.9634e-10
2.83775e-10
4.28923e-10
6.95566e-10
1.1657e-09
2.01607e-09
3.40613e-09
6.29634e-09
1.58907e-08
3.23799e-08
9.52333e-08
9.52343e-08
4.68072e-08
1.97843e-07
3.57485e-07
1.5992e-05
2.87065e-11
4.3698e-11
6.66267e-11
1.00731e-10
1.52296e-10
2.35992e-10
3.94657e-10
6.82378e-10
1.20079e-09
2.04273e-09
3.53933e-09
6.81125e-09
9.03508e-09
1.265e-08
1.47056e-08
3.27285e-08
2.03505e-08
1.53286e-08
1.15419e-05
1.13899e-11
1.8465e-11
2.88142e-11
4.50334e-11
7.05365e-11
1.09653e-10
1.87356e-10
3.3536e-10
6.04218e-10
1.04091e-09
1.69282e-09
2.49105e-09
3.61828e-09
5.37793e-09
1.63957e-08
9.73964e-09
6.01813e-09
5.48537e-09
3.45751e-06
4.45063e-12
7.14352e-12
1.13003e-11
1.78913e-11
2.82518e-11
4.60892e-11
8.09403e-11
1.52628e-10
2.79518e-10
5.16382e-10
8.42917e-10
1.24387e-09
1.98843e-09
1.95483e-09
7.85954e-09
7.94062e-09
5.49189e-09
5.48293e-09
1.43818e-06
1.58293e-12
2.56307e-12
4.10123e-12
6.494e-12
1.0385e-11
1.72866e-11
3.01264e-11
5.88018e-11
1.19172e-10
2.39601e-10
4.38313e-10
5.99237e-10
7.08639e-10
4.35632e-10
4.96845e-10
3.12651e-09
5.59982e-09
2.99091e-08
2.85152e-09
5.35637e-13
8.67968e-13
1.38176e-12
2.16298e-12
3.44456e-12
5.63753e-12
1.00168e-11
1.92109e-11
3.95689e-11
7.08871e-11
1.18543e-10
2.4388e-10
2.59862e-10
1.03709e-10
9.46446e-11
7.51593e-10
3.99096e-09
3.16742e-08
2.8684e-09
1.69948e-13
2.79513e-13
4.40283e-13
6.67329e-13
1.02604e-12
1.61603e-12
2.71494e-12
4.70539e-12
7.57196e-12
7.22373e-12
1.18743e-11
3.59068e-11
9.28441e-11
5.25005e-11
6.32871e-11
3.6231e-10
1.30715e-09
7.4576e-09
1.60936e-09
5.24626e-14
8.46816e-14
1.29207e-13
1.92094e-13
2.82336e-13
4.29735e-13
6.6365e-13
1.05351e-12
1.51323e-12
1.55357e-12
8.2316e-13
3.42897e-12
1.6508e-11
3.05848e-11
2.6127e-11
1.35445e-10
4.29141e-10
2.96303e-10
1.19164e-09
1.4096e-14
2.42051e-14
3.62353e-14
5.24778e-14
7.4872e-14
1.06697e-13
1.55261e-13
2.31075e-13
3.14827e-13
3.24232e-13
2.18375e-13
4.21423e-13
2.70581e-12
1.2212e-11
1.49538e-11
1.95582e-11
1.34418e-10
2.6751e-10
5.84235e-10
3.94944e-15
6.42749e-15
9.77552e-15
1.39045e-14
1.91577e-14
2.60929e-14
3.67765e-14
5.23419e-14
6.96324e-14
7.73003e-14
6.35474e-14
1.08235e-13
5.51195e-13
3.30136e-12
6.67373e-12
7.3745e-12
1.55328e-11
7.44984e-11
2.13279e-10
9.31431e-16
1.6381e-15
2.50814e-15
3.53662e-15
4.77254e-15
6.47803e-15
8.98502e-15
1.28892e-14
1.7815e-14
2.19858e-14
2.40009e-14
3.62586e-14
1.18618e-13
4.77466e-13
1.79016e-12
3.72122e-12
3.09305e-12
1.89099e-11
4.82148e-11
2.19249e-16
3.86277e-16
6.01104e-16
8.53716e-16
1.16934e-15
1.62071e-15
2.34527e-15
3.60109e-15
5.69656e-15
8.84714e-15
1.36703e-14
2.31803e-14
5.43153e-14
1.76855e-13
5.32541e-13
1.17194e-12
1.68497e-12
2.33928e-12
6.05425e-12
4.54953e-17
8.48401e-17
1.34809e-16
1.96115e-16
2.80575e-16
4.08684e-16
6.48601e-16
1.15626e-15
2.22831e-15
4.406e-15
8.70427e-15
1.73954e-14
3.68259e-14
9.40209e-14
2.83505e-13
6.39292e-13
7.51202e-13
1.04523e-12
1.03304e-12
9.267e-18
1.65117e-17
2.67736e-17
4.17771e-17
6.24548e-17
9.86019e-17
1.78011e-16
3.88028e-16
9.36497e-16
2.31838e-15
5.50928e-15
1.23633e-14
2.56364e-14
5.97779e-14
1.52979e-13
3.78867e-13
5.43985e-13
5.20209e-13
4.76625e-13
1.63143e-18
2.98053e-18
5.03912e-18
8.13155e-18
1.31311e-17
2.30898e-17
4.95906e-17
1.32001e-16
3.89346e-16
1.12602e-15
3.05169e-15
7.571e-15
1.74142e-14
3.97006e-14
9.32282e-14
2.12176e-13
3.65448e-13
4.32686e-13
2.82881e-13
2.40055e-19
4.65735e-19
8.1125e-19
1.39096e-18
2.50769e-18
5.02756e-18
1.27261e-17
4.13576e-17
1.44603e-16
4.80146e-16
1.46157e-15
4.02136e-15
1.00637e-14
2.31091e-14
5.31579e-14
1.22e-13
2.46844e-13
3.13021e-13
1.9452e-13
3.55053e-20
6.7234e-20
1.21528e-19
2.23011e-19
4.38987e-19
1.00274e-18
2.94611e-18
1.0979e-17
4.35173e-17
1.62586e-16
5.50164e-16
1.66168e-15
4.52505e-15
1.11451e-14
2.56249e-14
5.84194e-14
1.17977e-13
1.56341e-13
8.81027e-14
)
;

boundaryField
{
    leftWall
    {
        type            zeroGradient;
    }
    rightWall
    {
        type            zeroGradient;
    }
    lowerWall
    {
        type            zeroGradient;
    }
    atmosphere
    {
        type            inletOutlet;
        inletValue      uniform 0;
        value           nonuniform List<scalar> 
46
(
3.5809e-07
1.39378e-07
2.60808e-08
4.87767e-09
1.09751e-09
2.01983e-10
1.59164e-11
3.32041e-12
0
0
0
0
0
0
0
0
0
0
0
2.56359e-16
2.26967e-16
9.56872e-17
2.84181e-17
1.37218e-18
9.90286e-20
1.83738e-20
2.36747e-20
3.55053e-20
0
0
0
0
0
0
0
0
0
0
0
0
0
0
0
1.17977e-13
1.56341e-13
8.81027e-14
)
;
    }
    defaultFaces
    {
        type            empty;
    }
}


// ************************************************************************* //
