/*--------------------------------*- C++ -*----------------------------------*\
| =========                 |                                                 |
| \\      /  F ield         | OpenFOAM: The Open Source CFD Toolbox           |
|  \\    /   O peration     | Version:  2312                                  |
|   \\  /    A nd           | Website:  www.openfoam.com                      |
|    \\/     M anipulation  |                                                 |
\*---------------------------------------------------------------------------*/
FoamFile
{
    version     2.0;
    format      ascii;
    arch        "LSB;label=32;scalar=64";
    class       volScalarField;
    location    "3.2";
    object      alphas;
}
// * * * * * * * * * * * * * * * * * * * * * * * * * * * * * * * * * * * * * //

dimensions      [0 0 0 0 0 0 0];

internalField   nonuniform List<scalar> 
2268
(
2
2
2
2
2
2
2
2
2
2
2
2
2
2
2
2
2
2
2
2
1.99997
1.99995
1.99995
2
2
2
2
2
2
2
2
2
2
2
2
2
2
2
2
2
2
2
2
2
1.99998
1.99998
2
2
2
2
2
2
2
2
2
2
2
2
2
2
2
2
2
2
2
2
2
2
2
2
2
2
2
2
2
2
2
2
2
2
2
2
2
2
2
2
2
2
2
2
2
2
2
2
1.99999
1.99999
2
2
2
2
2
1.9999
1.99954
1.99943
1.99964
1.97622
1.94342
1.9183
1.91383
1.91786
1.92525
1.9278
1.93426
1.94864
1.98789
2
2
2
1.99992
1.99989
1.99974
1.99975
1.98791
1.88086
1.70756
1.49742
1.21977
0.956594
0.773317
0.663774
0.610052
0.594001
0.596481
0.619262
0.63208
0.600248
0.580681
0.731219
1.99655
1.99678
1.99934
1.96453
1.79724
1.47404
1.155
0.796668
0.504553
0.279918
0.102171
0.0280651
0.0127873
0.042153
0.0471194
0.0349238
0.026128
0.0257287
0.0320012
0.0521576
0.124805
0.159269
0.165825
1.78914
1.63865
1.32284
0.849334
0.409787
0.166033
0.0278192
0.000555288
0.000603732
0.000741817
0.000870536
0.000799409
0.00158975
0.0462949
0.0829524
0.0347713
0.033314
0.0292238
0.0318456
0.167841
0.269061
0.247559
0.154129
1.93743
1.94075
1.95723
1.96973
1.96596
1.9441
1.93956
1.93759
1.93879
1.94456
1.94554
1.9457
1.9468
1.94979
1.95979
1.96493
1.96005
1.95736
1.95571
1.95206
1.95388
1.95794
1.96239
1.93936
1.94521
1.94945
1.94622
1.94342
1.93533
1.93675
1.92995
1.884
1.85533
1.82816
1.80689
1.78295
1.79093
1.79157
1.9517
1.92098
1.77939
1.69246
1.59728
1.52714
1.56395
1.6215
1.59698
1.54904
1.53584
1.52348
1.49992
1.39295
1.30226
1.30366
1.23634
1.10241
1.0151
1.7495
1.50389
1.2405
0.830984
0.410836
0.33213
0.421068
0.720307
0.910803
0.937808
0.756494
0.735255
0.566558
0.431834
0.324452
0.332975
0.405641
0.390806
0.357883
0.741556
0.826085
0.452826
0.105178
0.105036
0.108952
0.209811
0.434909
0.658558
0.436276
0.207609
0.200826
0.207087
0.206491
0.218045
0.214838
0.197651
0.187394
0.144966
0.494091
0.551158
0.266355
0.0910685
0.264892
0.579507
0.610558
0.637959
0.657655
0.29853
0.206826
0.193596
0.19366
0.205543
0.217079
0.240852
0.234586
0.230338
0.20152
0.576209
0.598238
0.300068
0.0920859
0.401151
0.512779
0.556265
0.616506
0.618246
0.540109
0.201951
0.190602
0.19181
0.249987
0.351441
0.315864
0.235252
0.217334
0.209884
0.52589
0.420461
0.431943
0.108435
0.0651835
0.0665882
0.101594
0.272663
0.530227
0.627986
0.396172
0.220919
0.277347
0.451899
0.423972
0.361747
0.347713
0.356549
0.521768
0.219201
0.155593
0.0530561
0.00134546
0.00106624
0.00130507
0.00118917
0.00125762
0.00126821
0.00127807
0.00120053
0.00119169
0.000763126
0.0275026
0.0888196
0.0354333
0.0451123
0.0374593
0.0553643
0.251874
0.2622
0.154954
0.0555128
0.00218359
0.00217905
0.00217277
0.00231822
0.00811595
0.00932072
0.00403609
0.00172382
0.00722465
0.00960572
0.00194411
0.00131747
0.00630825
0.013163
0.0498838
0.0652566
0.0452449
0.0578338
0.0873508
0.0741952
0.0482785
0.0240882
0.0152037
0.0031661
0.00417396
0.00430472
0.0144891
0.0145633
0.00939864
0.050572
0.104474
0.147289
0.110886
0.0948505
0.154931
0.180849
0.151936
0.115386
0.13338
0.157781
0.244862
0.271129
0.180204
0.141991
0.170674
0.0660042
0.486575
0.521981
0.543916
0.592656
0.591698
0.589039
0.612616
0.742761
0.735872
0.455249
0.374292
0.31512
0.318847
0.51662
0.662111
0.658412
0.602652
0.705328
0.845014
0.904773
0.903581
0.937493
0.536957
1.26656
1.21341
1.18294
1.18012
1.1431
1.07239
1.08177
1.07493
0.964096
0.944721
0.961392
0.976384
1.00006
1.02089
1.02867
1.04671
1.11788
1.15654
1.15962
1.15924
1.15029
1.00612
1.00405
2.45827
2.34245
2.08684
1.85067
1.67632
1.48124
1.256
1.03133
0.997751
0.998134
1.00226
1.00905
1.00759
1.0011
1.00115
1.00117
1.00595
1.02461
1.04828
1.06774
1.0889
1.08502
1.05591
2.98719
2.98852
2.97983
2.90385
2.84592
2.72013
2.39799
1.86124
1.38902
1.11781
0.999873
1.00031
1.00091
1.00102
1.0011
1.00087
1.00073
1.00075
1.00048
0.999556
1.00221
1.03155
1.03664
2.98795
2.9886
2.99076
2.99561
2.99809
2.99893
2.9953
2.9662
2.79598
2.53575
2.15034
1.62368
1.2256
1.03119
1.0005
0.999707
0.998863
0.998179
0.99871
0.998661
0.998303
0.998315
0.996091
2.99998
2.99999
2.99981
3
3
3
3
2.99999
2.99996
2.99691
2.98981
2.9423
2.7737
2.47214
2.07961
1.72262
1.48506
1.35141
1.2942
1.28646
1.31331
1.38135
1.43839
3
3
3
3
3
3
3
2.99997
2.99994
2.99994
2.99912
2.99764
2.99934
2.99995
2.99911
2.97514
2.90834
2.8458
2.8189
2.81728
2.85781
2.90495
2.9163
3
3
3
3
3
3
3
2.99997
2.99993
2.99994
2.99999
2.99995
2.99988
2.99998
2.99999
3
2.99985
2.99985
2.99976
2.99966
2.99986
3
2.99999
3
3
3
3
2.99999
2.99999
3
3
2.99996
2.99996
2.99999
2.99993
2.99992
2.99993
2.99999
3
3
3
3
2.99995
2.99995
3
3
3
3
3
2.99998
2.99994
2.99994
2.99995
2.99999
3
3
3
2.99998
2.99994
2.99996
3
3
3
3
3
2.99997
2.99982
2.99977
2.99989
3
3
3
2.99994
2.99994
2.99994
2.99994
3
3
3
3
3
3
3
2.99999
2.99988
2.9998
2.9997
2.9997
2.99971
2.99979
2.99976
2.9998
3
3
3
2.99997
2.99994
2.99999
2.99999
2.99994
2.99979
2.99977
2.99974
2.99973
2.99975
2.99982
2.99983
2.99987
2.99989
2.99989
2.99991
2.99994
2.99992
2.99983
2.99985
3
3
3
3
3
3
2.99996
2.99974
2.99973
2.99975
2.99991
2.99987
2.99988
2.99992
2.99995
2.99996
2.99995
2.99996
2.99998
3
2.99999
2.99994
2.99991
3
3
3
3
3
3
2.99999
2.99996
2.99995
2.99998
3
3
3
3
2.99999
2.99999
3
3
3
3
3
2.99999
2.99999
3
3
3
3
3
3
3
3
3
3
3
3
3
3
3
3
3
3
3
3
3
3
2.99999
3
3
3
3
3
3
3
3
3
3
3
3
3
3
3
3
3
3
3
3
3
3
3
3
3
3
3
3
3
3
3
3
3
3
3
3
3
3
3
3
3
3
3
3
3
3
3
3
3
3
3
3
3
3
3
3
3
3
3
3
3
3
3
3
3
3
3
3
3
3
3
3
3
3
3
3
3
3
3
3
3
3
3
3
3
3
3
3
3
3
3
3
3
3
3
3
3
3
3
3
3
3
3
3
3
3
3
3
3
3
3
3
3
3
3
3
3
3
3
3
3
3
3
3
3
3
3
3
3
3
3
3
3
3
3
3
3
3
3
3
3
3
3
3
3
3
3
3
3
3
3
3
3
3
3
3
3
3
3
3
3
3
3
3
3
3
3
3
3
3
3
3
3
3
3
3
3
3
3
3
3
3
3
3
3
3
3
3
3
3
3
3
3
3
3
3
3
3
3
3
3
3
3
3
3
3
3
3
3
3
3
3
3
3
3
3
3
3
3
3
3
3
3
3
3
3
3
3
3
3
3
3
3
3
3
3
3
3
3
3
3
3
3
3
3
3
3
3
3
3
3
3
3
3
3
3
3
3
3
3
3
3
3
3
3
3
3
3
3
3
3
3
3
3
3
3
3
3
3
3
3
3
3
3
3
3
3
3
3
3
3
3
3
3
3
3
3
3
3
3
3
3
3
3
3
3
3
3
3
3
3
3
3
3
3
3
3
3
3
3
3
3
3
3
3
3
3
3
3
3
3
3
3
3
3
3
3
3
3
3
3
3
3
3
3
3
3
3
3
3
3
3
3
3
3
3
3
3
3
3
3
3
3
3
3
3
3
3
3
3
3
3
3
3
3
3
3
3
3
3
3
3
3
3
3
3
3
3
3
3
3
3
3
3
3
3
3
3
3
3
3
3
3
3
3
3
3
3
3
3
3
3
3
3
3
3
3
3
3
3
3
3
3
3
3
3
3
3
3
3
3
3
3
3
3
3
3
3
3
3
3
3
3
3
3
3
3
3
3
3
3
3
3
3
3
3
3
3
3
3
3
3
3
3
3
3
3
3
3
3
3
3
3
3
3
3
3
3
3
3
3
3
3
3
3
3
3
3
3
3
3
3
3
3
3
3
3
3
3
3
3
3
3
3
3
3
3
3
3
3
3
3
3
3
3
3
3
3
3
3
3
3
3
3
3
3
3
3
3
3
3
3
3
3
3
3
3
3
3
3
3
3
3
3
3
3
3
3
3
3
3
3
0.0778272
0.107187
0.274892
0.29026
0.0138489
0.0207546
0.0276059
0.0384987
0.0273973
0.0337392
0.0245657
0.0146092
0.453508
0.507871
0.368911
0.256426
1.00361
1.00602
1.05395
1.13928
1.00322
1.0024
1.00238
1.00236
1.00459
1.00246
1.00135
1.0011
0.987305
0.985135
0.987197
0.99315
1.44467
1.43965
1.42548
1.39289
2.87847
2.8429
2.79163
2.74868
2.99813
2.98845
2.97608
2.97178
3
2.99999
2.99999
3
3
3
3
3
2.99991
2.99999
3
3
2.9999
2.99996
3
3
2.99995
2.99999
3
2.99998
2.99999
2.99998
2.99996
2.99989
2.99999
2.99996
2.99993
2.99987
3
2.99999
2.99998
2.99997
3
3
3
3
3
3
3
3
3
3
3
3
3
3
3
3
3
3
3
3
3
3
3
3
3
3
3
3
3
3
3
3
3
3
3
3
3
3
3
3
3
3
3
3
3
3
3
3
3
3
3
3
3
3
3
3
3
3
3
3
3
3
3
3
3
3
3
3
3
3
3
3
3
3
3
3
3
3
3
3
3
3
3
3
3
3
3
3
3
3
3
3
0.262486
0.256501
0.442182
0.206788
0.0601037
0.0705937
0.0739181
0.0793196
0.354882
0.673155
0.644722
0.406024
0.698027
0.923266
0.863799
0.869755
0.968162
1.04045
1.04068
0.0643814
0.234055
0.382276
0.233779
0.0626029
0.0900923
0.132064
0.170305
0.385562
0.941112
0.969329
0.914934
0.962378
1.01681
1.09775
1.09823
1.07716
1.01614
1.01575
0.0118972
0.0396264
0.0440815
0.0564663
0.114366
0.381853
0.656725
0.751538
0.644287
0.954079
1.05844
0.957918
0.91432
1.02127
1.009
1.00429
1.00993
1.01148
1.01201
0.139848
0.0998807
0.138596
0.356611
0.748751
1.08019
1.08328
0.997584
0.910296
0.87316
0.868912
0.894533
1.22967
1.07453
1.00604
1.00259
1.00224
1.00206
1.00967
1.02738
0.933461
0.987461
1.14117
1.15275
1.05982
1.01381
1.02717
1.24025
1.07421
1.0194
1.2396
1.07642
1.00381
1.00742
1.01501
1.00796
1.00675
1.01147
1.00369
1.02192
1.02321
1.01803
1.02122
1.01036
1.00563
1.00486
1.07457
1.21912
1.19324
1.01324
1.00385
1.00268
1.01471
1.51865
1.11309
1.01353
1.01834
1.00176
1.00136
1.00219
1.0023
1.00229
1.0027
1.00406
1.00226
1.00225
1.00224
1.00583
1.01227
1.00555
1.00225
1.49838
2.69838
2.19615
1.26189
1.30947
1.00143
1.00534
1.00109
1.00138
1.00179
1.00212
1.00173
1.00149
1.00125
1.00176
1.00769
1.04703
1.15882
1.52574
2.54522
2.97925
2.98504
2.75999
2.52193
1.51253
1.46506
1.13052
1.01542
1.00174
1.00156
1.01303
1.12993
1.37395
1.6713
1.99945
2.30434
2.63657
2.99473
2.99996
3
2.99965
2.99981
2.99988
2.73369
2.71495
2.23127
1.63729
1.42317
1.56079
2.09591
2.56682
2.85538
2.99021
2.9939
2.9969
2.99927
3
3
3
3
3
2.99996
2.9716
2.96977
2.82974
2.68419
2.72705
2.93315
2.98209
2.99863
2.99942
3
3
3
3
2.99995
2.99994
2.99998
3
3
3
2.99998
2.99442
2.97328
2.97105
2.97084
2.98468
2.99993
2.99999
2.99999
2.99997
2.99996
2.99999
2.99997
2.99958
2.99941
2.99941
2.99981
3
3
3
3
2.99789
2.98916
2.98745
2.99999
2.99995
2.99989
2.99996
2.99982
2.99982
2.99988
2.99999
2.99982
2.99931
2.99922
2.99929
2.99992
3
3
3
2.99999
2.99999
2.99999
2.99999
2.99996
2.99973
3
2.99998
2.99984
2.99986
3
2.99999
2.99967
2.99933
2.9993
2.99981
3
3
3
3
2.99997
2.99992
2.99995
3
3
3
3
3
3
3
3
2.99949
2.99945
2.99982
2.99987
3
2.99999
3
2.99999
2.99989
2.99988
2.99992
2.99999
3
2.99998
2.99995
2.99997
2.99999
3
2.99996
2.99949
2.99955
2.99996
2.99999
3
2.99987
2.99987
2.99986
2.99987
2.99989
2.99998
3
3
2.99992
2.9996
2.99953
2.99971
2.9999
2.99961
2.99949
2.99993
2.99998
2.99997
2.99982
2.99987
2.99987
2.99989
2.99993
2.99998
3
3
3
2.99994
2.99937
2.99934
2.99934
2.99934
2.99934
2.99961
2.99996
2.99997
2.99972
2.99947
2.99998
2.99999
2.99999
3
3
2.99999
2.99999
2.99998
2.99997
2.99994
2.99968
2.99949
2.99942
2.99958
2.99995
2.99998
2.99996
2.99946
2.99946
3
3
3
3
3
3
2.99999
3
3
3
2.99999
2.99999
2.99999
3
3
2.99998
2.99985
2.99946
2.99948
3
3
3
3
3
3
3
3
3
3
3
3
3
3
3
2.99994
2.99955
2.99949
2.99968
3
3
3
3
3
3
3
3
3
3
3
3
3
3
3
2.99994
2.99958
2.99972
2.99992
3
3
3
3
3
3
3
3
3
3
3
3
3
3
3
2.99998
2.99993
2.99997
2.99993
3
3
3
3
3
3
3
3
3
3
3
3
3
3
3
2.99998
2.99999
2.99997
2.99968
3
3
3
3
3
3
3
3
3
3
3
3
3
3
3
3
3
2.99996
2.9996
3
3
3
3
3
3
3
3
3
3
3
3
3
3
3
3
3
3
2.9996
3
3
3
3
3
3
3
3
3
3
3
3
3
3
3
3
3
3
2.99972
3
3
3
3
3
3
3
3
3
3
3
3
3
3
3
3
3
3
2.99993
3
3
3
3
3
3
3
3
3
3
3
3
3
3
3
3
3
3
2.99997
3
3
3
3
3
3
3
3
3
3
3
3
3
3
3
3
3
3
3
3
3
3
3
3
3
3
3
3
3
3
3
3
3
2.99999
2.99999
2.99999
3
3
3
3
3
3
3
3
3
3
3
3
3
3
3
3
2.99999
2.99999
2.99999
2.99999
2.99999
3
3
3
3
3
3
3
3
3
3
3
3
3
3
3
2.99999
2.99999
2.99999
2.99999
3
3
3
3
3
3
3
3
3
3
3
3
3
3
3
3
2.99999
2.99999
3
3
3
3
3
3
3
3
3
3
3
3
3
3
3
3
3
3
3
3
3
3
3
3
3
3
3
3
3
3
3
3
3
3
3
3
3
3
3
3
3
3
3
3
3
3
3
3
3
3
3
3
3
3
3
3
3
3
3
3
3
3
3
3
3
3
3
3
3
3
3
3
3
3
3
3
3
3
3
3
3
3
3
3
3
3
3
3
3
3
3
3
3
3
3
3
3
3
3
3
3
3
3
3
3
3
3
3
3
3
3
3
3
3
3
3
3
3
3
3
3
3
3
3
3
3
3
3
3
3
3
3
3
3
3
3
3
3
3
3
3
3
3
3
3
3
3
3
3
3
3
3
3
)
;

boundaryField
{
    leftWall
    {
        type            calculated;
        value           nonuniform List<scalar> 
50
(
2
2
2
2
2
2
1.99655
1.78914
0.219201
0.00218359
0.0031661
0.486575
1.26656
2.45827
2.98719
2.98795
2.99998
3
3
3
3
3
3
3
3
3
3
3
3
3
3
3
3
3
3
3
3
3
3
3
3
3
3
3
3
3
3
3
3
3
)
;
    }
    rightWall
    {
        type            calculated;
        value           nonuniform List<scalar> 
50
(
1.95571
1.79157
1.0151
0.357883
0.144966
0.20152
0.209884
0.521768
1.04068
1.01575
1.01201
1.00967
1.01147
1.01834
1.30947
2.52193
2.99988
2.99996
3
3
3
3
3
3
2.99982
2.99947
2.99946
2.99948
2.99968
2.99992
2.99993
2.99968
2.9996
2.9996
2.99972
2.99993
2.99997
3
3
2.99999
2.99999
3
3
3
3
3
3
3
3
3
)
;
    }
    lowerWall
    {
        type            calculated;
        value           nonuniform List<scalar> 
62
(
2
2
2
2
2
2
2
2
2
2
2
2
2
2
2
2
2
2
2
2
1.99997
1.99995
1.99995
1.99995
1.99998
2
2
1.98789
0.731219
0.165825
0.154129
0.0778272
0.107187
0.274892
0.29026
1.93743
1.95206
1.9517
1.7495
0.741556
0.494091
0.576209
0.52589
1.93743
1.94075
1.95723
1.96973
1.96596
1.9441
1.93956
1.93759
1.93879
1.94456
1.94554
1.9457
1.9468
1.94979
1.95979
1.96493
1.96005
1.95736
1.95571
)
;
    }
    atmosphere
    {
        type            calculated;
        value           nonuniform List<scalar> 
46
(
3
3
3
3
3
3
3
3
3
3
3
3
3
3
3
3
3
3
3
3
3
3
3
3
3
3
3
3
3
3
3
3
3
3
3
3
3
3
3
3
3
3
3
3
3
3
)
;
    }
    defaultFaces
    {
        type            empty;
    }
}


// ************************************************************************* //
