/*--------------------------------*- C++ -*----------------------------------*\
| =========                 |                                                 |
| \\      /  F ield         | OpenFOAM: The Open Source CFD Toolbox           |
|  \\    /   O peration     | Version:  2312                                  |
|   \\  /    A nd           | Website:  www.openfoam.com                      |
|    \\/     M anipulation  |                                                 |
\*---------------------------------------------------------------------------*/
FoamFile
{
    version     2.0;
    format      ascii;
    arch        "LSB;label=32;scalar=64";
    class       volVectorField;
    location    "3.2";
    object      U;
}
// * * * * * * * * * * * * * * * * * * * * * * * * * * * * * * * * * * * * * //

dimensions      [0 1 -1 0 0 0 0];

internalField   nonuniform List<vector> 
2268
(
(0.0182617 -0.00977223 0)
(0.0357186 -0.00390373 0)
(0.0454591 -0.00193425 0)
(0.0521913 -0.000872643 0)
(0.0561318 -0.000219179 0)
(0.0573101 0.000378099 0)
(0.0555939 0.000841297 0)
(0.0519938 0.00115475 0)
(0.0472787 0.00136515 0)
(0.0414929 0.00161343 0)
(0.0348973 0.00168516 0)
(0.0280528 0.00166561 0)
(0.0213384 0.00150653 0)
(0.0154087 0.00123737 0)
(0.0109329 0.000787919 0)
(0.00850637 0.00030592 0)
(0.00804213 -5.75523e-06 0)
(0.00805257 -3.89034e-05 0)
(0.00768919 2.11376e-05 0)
(0.00693639 0.000138466 0)
(0.00524748 0.000348237 0)
(0.00301543 0.000675547 0)
(-0.0021228 -0.000584978 0)
(0.00718718 -0.0173526 0)
(0.024209 -0.0089776 0)
(0.0344069 -0.00640976 0)
(0.0434688 -0.00411635 0)
(0.0493266 -0.00203158 0)
(0.0518435 0.000105769 0)
(0.0509352 0.00191169 0)
(0.0478981 0.00289799 0)
(0.0437029 0.00356376 0)
(0.0382924 0.00431538 0)
(0.0319183 0.00473626 0)
(0.0252449 0.00487623 0)
(0.0186441 0.00460415 0)
(0.012784 0.00384398 0)
(0.00839247 0.00256802 0)
(0.00620439 0.00105303 0)
(0.00620341 0.000148017 0)
(0.00667036 8.0138e-05 0)
(0.00670091 0.000271342 0)
(0.00642677 0.000831979 0)
(0.00535936 0.00170382 0)
(0.00345853 0.00311859 0)
(-0.000946179 0.00107087 0)
(0.00232584 -0.0244094 0)
(0.0171716 -0.0156083 0)
(0.0270424 -0.0117274 0)
(0.0370625 -0.00795425 0)
(0.0439508 -0.00413733 0)
(0.0473319 0.000105232 0)
(0.0468214 0.00305436 0)
(0.0440618 0.00463305 0)
(0.0403443 0.00603187 0)
(0.0353088 0.00745696 0)
(0.0291121 0.00816303 0)
(0.0225129 0.00819814 0)
(0.0159024 0.00760983 0)
(0.0100661 0.00603168 0)
(0.00583113 0.00376937 0)
(0.00415301 0.00130715 0)
(0.00513881 -0.000164047 0)
(0.00655526 -0.000227123 0)
(0.0074982 0.000112688 0)
(0.00820435 0.000653001 0)
(0.00822975 0.00148182 0)
(0.00670773 0.00323123 0)
(0.0030296 -0.000124849 0)
(-0.000654949 -0.0273667 0)
(0.0123376 -0.0206579 0)
(0.0218734 -0.0168135 0)
(0.0326307 -0.0123239 0)
(0.0403817 -0.00736771 0)
(0.0439695 -0.00117688 0)
(0.0432044 0.00353635 0)
(0.0407245 0.00564365 0)
(0.0376007 0.0070957 0)
(0.0327349 0.00868523 0)
(0.0261951 0.00993527 0)
(0.0190784 0.0109082 0)
(0.0118696 0.0109738 0)
(0.00573871 0.00939585 0)
(0.00187277 0.00618474 0)
(0.000962873 0.00188283 0)
(0.00323283 -0.000808416 0)
(0.00647711 -0.00151709 0)
(0.00896672 -0.00105496 0)
(0.0109262 0.000238964 0)
(0.0118737 0.00285071 0)
(0.00948823 0.0072017 0)
(0.00564666 0.00687412 0)
(-0.00128901 -0.0298325 0)
(0.0110196 -0.0255105 0)
(0.0202787 -0.0218302 0)
(0.03125 -0.0158825 0)
(0.0395155 -0.00864447 0)
(0.0432987 2.61276e-05 0)
(0.0419558 0.00528778 0)
(0.0390627 0.00746821 0)
(0.0362145 0.010991 0)
(0.0314468 0.0148525 0)
(0.02439 0.0164933 0)
(0.0154731 0.0157344 0)
(0.00552187 0.0126554 0)
(-0.0023852 0.0085718 0)
(-0.00640342 0.00423892 0)
(-0.00683588 -0.000266029 0)
(-0.00479032 -0.00302073 0)
(3.61478e-05 -0.00284078 0)
(0.00482937 -0.00181169 0)
(0.00896208 -0.000933089 0)
(0.0115266 0.000998983 0)
(0.00965905 0.00545525 0)
(0.00628213 0.0041454 0)
(9.50338e-05 -0.0315111 0)
(0.0134891 -0.0301552 0)
(0.0239807 -0.0281156 0)
(0.036073 -0.0231393 0)
(0.0450411 -0.015288 0)
(0.0494125 -0.00178382 0)
(0.044978 0.00684045 0)
(0.0354868 0.00801094 0)
(0.0262869 0.00812097 0)
(0.0188142 0.0100685 0)
(0.0092808 0.0117255 0)
(-0.000479557 0.0145666 0)
(-0.00862176 0.0159373 0)
(-0.0156615 0.012971 0)
(-0.0190163 0.00718733 0)
(-0.0215211 -0.000382015 0)
(-0.0251505 -0.00691075 0)
(-0.0254351 -0.00879193 0)
(-0.0253752 -0.00660153 0)
(-0.0273724 -0.00228904 0)
(-0.0294756 0.0039022 0)
(-0.00358495 0.0128942 0)
(0.00842452 0.0199383 0)
(0.00254599 -0.0413872 0)
(0.0184802 -0.0399309 0)
(0.030245 -0.0333715 0)
(0.038026 -0.0214608 0)
(0.038566 -0.0113115 0)
(0.0421896 0.000375188 0)
(0.0455408 0.00716105 0)
(0.046011 0.0113345 0)
(0.0432405 0.016683 0)
(0.0271535 0.0262739 0)
(-0.0227254 0.0366152 0)
(-0.0776428 0.0355592 0)
(-0.0984315 0.0289081 0)
(-0.101557 0.0196428 0)
(-0.107933 0.0114564 0)
(-0.143801 0.0071579 0)
(-0.202694 0.00536498 0)
(-0.254834 0.00303641 0)
(-0.291296 0.00448309 0)
(-0.288322 0.000984798 0)
(-0.230438 -0.0128197 0)
(-0.138508 -0.0169144 0)
(-0.104664 0.0109847 0)
(0.003795 -0.0274031 0)
(0.0213666 -0.0299487 0)
(0.0374596 -0.0296367 0)
(0.057978 -0.0257523 0)
(0.0769551 -0.0195837 0)
(0.079475 -0.00180155 0)
(0.0340464 0.0183474 0)
(-0.0567576 0.0199958 0)
(-0.0925657 0.0261636 0)
(-0.109746 0.0412407 0)
(-0.110707 0.0510352 0)
(-0.112111 0.0387092 0)
(-0.115013 0.0229927 0)
(-0.130931 0.0199913 0)
(-0.154029 0.024224 0)
(-0.1904 0.0342551 0)
(-0.230975 0.0335617 0)
(-0.272023 0.0236781 0)
(-0.303513 0.0101331 0)
(-0.301258 -0.0179506 0)
(-0.257954 -0.0561356 0)
(-0.207715 -0.0814706 0)
(-0.232184 -0.107267 0)
(-0.0130034 0.00679554 0)
(0.00642394 0.00262341 0)
(-0.020915 0.00632198 0)
(-0.0477726 0.00527282 0)
(-0.0695106 0.00436054 0)
(-0.0856894 0.00298142 0)
(-0.0916364 -5.64451e-05 0)
(-0.083403 -0.00349161 0)
(-0.0641963 -0.00712753 0)
(-0.0378868 -0.00853805 0)
(-0.0125347 -0.00803849 0)
(0.00579105 -0.00732731 0)
(0.0168855 -0.00521865 0)
(0.0171743 -0.00243981 0)
(0.0119633 -0.00195735 0)
(0.0093757 -0.00174089 0)
(0.00456013 -0.000850286 0)
(0.00678183 0.00134477 0)
(-0.000561226 -0.00251166 0)
(0.00696259 -0.00523062 0)
(0.0390862 0.00132214 0)
(0.0120029 0.0181862 0)
(-0.0219553 0.0172148 0)
(-0.0442263 0.0132857 0)
(-0.056092 0.0085033 0)
(-0.0563824 -0.000570573 0)
(-0.0440477 -0.00854276 0)
(-0.0220855 -0.0138862 0)
(0.00533721 -0.0148769 0)
(0.031188 -0.00930403 0)
(0.0395964 -0.00414865 0)
(0.0383114 -0.000195134 0)
(0.0290221 0.00540915 0)
(0.0076485 0.00529114 0)
(-0.00919711 0.00430787 0)
(-0.0140788 0.00263115 0)
(-0.0114032 0.000842187 0)
(-0.0032292 0.00462275 0)
(0.0106621 -0.0202476 0)
(0.0309963 0.00371355 0)
(0.0142632 0.0287215 0)
(-0.0215465 0.0241389 0)
(-0.0495108 0.013661 0)
(-0.0628156 0.00474292 0)
(-0.0660067 -0.00697228 0)
(-0.058927 -0.016694 0)
(-0.035257 -0.0275461 0)
(-0.0021616 -0.0332434 0)
(0.0304046 -0.0254992 0)
(0.0613053 -0.011363 0)
(0.0446066 -0.00226578 0)
(0.0227882 0.0100563 0)
(-0.000840954 0.0128689 0)
(-0.0233667 0.00546274 0)
(-0.0313911 -0.0022323 0)
(-0.0289953 -0.00344876 0)
(-0.0170364 -0.00953828 0)
(0.00366118 -0.0170405 0)
(0.0216833 0.00531307 0)
(-0.0223782 0.0375081 0)
(-0.0356818 0.0473793 0)
(-0.0456654 0.0354556 0)
(-0.0461517 0.0228995 0)
(-0.0572355 0.00286121 0)
(-0.0640396 -0.0206983 0)
(-0.050814 -0.0388742 0)
(-0.0425618 -0.0400764 0)
(-0.041843 -0.0292535 0)
(-0.0103706 -0.0084314 0)
(0.0364398 0.0130518 0)
(0.0424045 0.0290005 0)
(0.0591599 0.028148 0)
(0.0740119 0.023453 0)
(0.0500446 0.00615992 0)
(-0.0294047 -0.000982112 0)
(-0.00946518 -0.0190988 0)
(0.00255447 -0.0350891 0)
(-0.0118852 0.0216446 0)
(-0.175887 0.0788834 0)
(-0.216893 0.0437217 0)
(-0.173128 0.0135775 0)
(-0.113753 0.00570443 0)
(-0.0519157 -0.00505083 0)
(0.0096877 -0.0232592 0)
(0.0168733 -0.0357549 0)
(-0.103933 -0.0313595 0)
(-0.144945 -0.0363923 0)
(-0.117202 -0.0426476 0)
(-0.070893 -0.0202939 0)
(-0.0196186 -0.000314971 0)
(0.0114445 -0.00361531 0)
(0.0408323 0.0122298 0)
(0.0568561 0.0300604 0)
(0.0383027 0.0220238 0)
(0.00790988 -0.0174024 0)
(-0.0335224 -0.0239072 0)
(-0.137189 0.079795 0)
(-0.24212 0.109507 0)
(-0.254154 0.0329896 0)
(-0.228626 -0.010432 0)
(-0.169741 -0.0229433 0)
(-0.103733 -0.0408455 0)
(-0.0427568 -0.0413089 0)
(0.0186375 -0.00488794 0)
(-0.0330815 0.0173295 0)
(-0.078898 -0.0270701 0)
(-0.0712528 -0.0532703 0)
(-0.0737824 -0.0283166 0)
(-0.0732153 -0.00859297 0)
(-0.0795963 -0.00481964 0)
(-0.0682158 0.00990845 0)
(-0.0402959 0.0159378 0)
(0.00638658 0.0175133 0)
(0.00316305 -0.00731513 0)
(-0.0744464 0.0252842 0)
(-0.150647 0.122194 0)
(-0.23506 0.130581 0)
(-0.265982 0.0397388 0)
(-0.251256 -0.0270762 0)
(-0.196227 -0.052255 0)
(-0.140504 -0.0684972 0)
(-0.0864523 -0.0668904 0)
(-0.0174454 -0.0441467 0)
(0.0592539 0.0316874 0)
(0.00696159 -0.0114521 0)
(-0.0339738 -0.0439247 0)
(-0.093519 -0.0173882 0)
(-0.139897 0.0020592 0)
(-0.165443 0.00138977 0)
(-0.158262 0.00101576 0)
(-0.129118 0.00174113 0)
(-0.0820549 0.0044445 0)
(-0.038385 -0.00996226 0)
(-0.0776005 0.0806953 0)
(-0.131614 0.147258 0)
(-0.208767 0.153544 0)
(-0.247803 0.0439416 0)
(-0.226628 -0.0442838 0)
(-0.178655 -0.075692 0)
(-0.141871 -0.0887371 0)
(-0.105924 -0.0899632 0)
(-0.0614738 -0.0848163 0)
(0.0422588 0.000907877 0)
(0.0783661 0.00891374 0)
(-0.0170078 -0.0134335 0)
(-0.124663 0.0162577 0)
(-0.186474 0.0211447 0)
(-0.205835 0.000357136 0)
(-0.192706 -0.0140631 0)
(-0.1687 -0.0135848 0)
(-0.13168 -0.0207832 0)
(-0.0733953 -0.0635391 0)
(0.0169678 -0.0852164 0)
(0.0490957 -0.0870879 0)
(0.0583397 -0.0711245 0)
(0.0335996 -0.0371558 0)
(-0.0153486 -0.0100412 0)
(-0.0425098 0.0268362 0)
(-0.0441037 0.0595759 0)
(-0.0488782 0.0545641 0)
(-0.054997 0.0430335 0)
(-0.0648427 0.0443998 0)
(-0.06545 0.0477522 0)
(-0.0591452 0.0428489 0)
(-0.0612976 0.0396619 0)
(-0.0804733 0.0422598 0)
(-0.0911381 0.0422071 0)
(-0.139311 0.0701972 0)
(-0.185783 0.062954 0)
(-0.227712 0.0466627 0)
(-0.263934 0.0252452 0)
(-0.28012 -0.0184601 0)
(-0.279958 -0.0613237 0)
(-0.278405 -0.0887092 0)
(-0.289772 -0.0987021 0)
(-0.0101631 -0.0882427 0)
(-0.0162143 -0.0688379 0)
(-0.0207815 -0.0130629 0)
(-0.0182266 0.039153 0)
(-0.0140721 0.0334011 0)
(-0.0100646 0.0322896 0)
(-0.00973701 0.0390337 0)
(-0.0119524 0.041912 0)
(-0.019894 0.0463941 0)
(-0.0294902 0.0464942 0)
(-0.0294977 0.0386975 0)
(-0.0256953 0.0339316 0)
(-0.0305406 0.0413432 0)
(-0.0452192 0.0530579 0)
(-0.0625832 0.0618097 0)
(-0.105365 0.111173 0)
(-0.144526 0.108106 0)
(-0.199989 0.0985505 0)
(-0.268425 0.0758406 0)
(-0.332175 0.0188242 0)
(-0.385463 -0.0460363 0)
(-0.424288 -0.0911446 0)
(-0.445391 -0.106422 0)
(0.000480609 -0.066161 0)
(0.00942734 -0.0645855 0)
(0.0140369 -0.046207 0)
(0.0300414 -0.0255021 0)
(0.0469046 -0.00655669 0)
(0.046077 0.0184254 0)
(0.0250932 0.0394896 0)
(-0.00525962 0.0522423 0)
(-0.0329485 0.0599249 0)
(-0.0391174 0.0504087 0)
(-0.0382669 0.0364801 0)
(-0.0414886 0.0366729 0)
(-0.0472493 0.0479952 0)
(-0.0647041 0.0741283 0)
(-0.107902 0.103167 0)
(-0.141922 0.147139 0)
(-0.180674 0.1551 0)
(-0.229839 0.159688 0)
(-0.292169 0.144689 0)
(-0.367654 0.0841566 0)
(-0.439254 0.00762789 0)
(-0.488109 -0.0532139 0)
(-0.505722 -0.089007 0)
(0.0074143 -0.0776314 0)
(0.0123254 -0.0686962 0)
(0.0153298 -0.0488336 0)
(0.0166449 -0.0185189 0)
(0.00760928 0.00787128 0)
(-0.0177191 0.0574716 0)
(-0.0440047 0.0858486 0)
(-0.0808477 0.0950241 0)
(-0.101277 0.0744738 0)
(-0.107429 0.0545457 0)
(-0.129178 0.0456984 0)
(-0.146626 0.0508244 0)
(-0.167655 0.0719524 0)
(-0.191399 0.110812 0)
(-0.219154 0.146764 0)
(-0.231802 0.178875 0)
(-0.244223 0.192261 0)
(-0.260669 0.205894 0)
(-0.28011 0.204225 0)
(-0.312284 0.155212 0)
(-0.359776 0.0714801 0)
(-0.417465 -0.0197936 0)
(-0.451208 -0.0909371 0)
(-0.0213912 -0.0873428 0)
(-0.0501579 -0.0714518 0)
(-0.0829962 -0.0443333 0)
(-0.112257 -0.00223905 0)
(-0.142034 0.0380397 0)
(-0.144644 0.0744423 0)
(-0.150691 0.109563 0)
(-0.180868 0.118762 0)
(-0.208514 0.10104 0)
(-0.231666 0.0895225 0)
(-0.261753 0.0754535 0)
(-0.289773 0.0770883 0)
(-0.31401 0.0951855 0)
(-0.329715 0.129075 0)
(-0.330507 0.157112 0)
(-0.317844 0.178361 0)
(-0.302462 0.193417 0)
(-0.281764 0.205895 0)
(-0.256096 0.206449 0)
(-0.237623 0.176044 0)
(-0.234884 0.115714 0)
(-0.250105 0.0424344 0)
(-0.28472 -0.041498 0)
(-0.0489813 -0.031188 0)
(-0.0930514 -0.0199717 0)
(-0.128642 -0.00440341 0)
(-0.148041 0.0221008 0)
(-0.173915 0.0460315 0)
(-0.18982 0.0767545 0)
(-0.194438 0.114983 0)
(-0.218302 0.131071 0)
(-0.24559 0.114995 0)
(-0.271194 0.109385 0)
(-0.300976 0.101846 0)
(-0.329004 0.102301 0)
(-0.348697 0.112545 0)
(-0.355489 0.129161 0)
(-0.348936 0.143334 0)
(-0.331166 0.154534 0)
(-0.305189 0.16275 0)
(-0.270598 0.166266 0)
(-0.229034 0.161442 0)
(-0.189076 0.14018 0)
(-0.161783 0.101106 0)
(-0.15538 0.049877 0)
(-0.168585 -0.000987947 0)
(-0.040085 0.0721346 0)
(-0.115216 0.0405552 0)
(-0.277485 0.0411049 0)
(-0.268908 0.0322306 0)
(-0.257863 0.0662187 0)
(-0.261326 0.0942344 0)
(-0.247909 0.125467 0)
(-0.240993 0.145823 0)
(-0.266048 0.136945 0)
(-0.293885 0.13036 0)
(-0.314639 0.123702 0)
(-0.327298 0.117426 0)
(-0.331743 0.117471 0)
(-0.328468 0.121624 0)
(-0.316765 0.125411 0)
(-0.297005 0.127935 0)
(-0.269702 0.127895 0)
(-0.234967 0.12386 0)
(-0.194495 0.114445 0)
(-0.153679 0.09697 0)
(-0.120011 0.0715584 0)
(-0.100549 0.0431717 0)
(-0.0969109 0.012805 0)
(0.0238815 0.106567 0)
(0.106286 0.113225 0)
(0.165191 0.165243 0)
(0.25571 -0.00822665 0)
(0.158582 0.0365912 0)
(0.015348 0.16922 0)
(-0.211123 0.183912 0)
(-0.357848 0.179031 0)
(-0.353178 0.168524 0)
(-0.369951 0.151303 0)
(-0.378532 0.138244 0)
(-0.363985 0.12511 0)
(-0.338591 0.119446 0)
(-0.313795 0.116659 0)
(-0.290002 0.113228 0)
(-0.263489 0.107337 0)
(-0.23265 0.0991675 0)
(-0.197564 0.0876518 0)
(-0.15923 0.0732471 0)
(-0.120859 0.0559762 0)
(-0.0856729 0.0352557 0)
(-0.0576339 0.0150768 0)
(-0.0393286 -0.00389529 0)
(0.041934 -0.04552 0)
(0.0660697 -0.0582249 0)
(0.109729 -0.0124123 0)
(0.104606 0.0757951 0)
(0.0856597 0.195129 0)
(0.0787321 0.288513 0)
(0.0673295 0.326675 0)
(0.0357846 0.333613 0)
(-0.0429978 0.246086 0)
(-0.186234 0.209572 0)
(-0.275581 0.164409 0)
(-0.421033 0.100372 0)
(-0.437505 0.0831053 0)
(-0.393138 0.0863727 0)
(-0.339101 0.0898021 0)
(-0.287594 0.0867873 0)
(-0.240682 0.0798021 0)
(-0.197321 0.0685524 0)
(-0.156219 0.0553142 0)
(-0.117839 0.0413683 0)
(-0.0806461 0.0260868 0)
(-0.0460034 0.0103988 0)
(-0.0195867 -0.00441308 0)
(0.0308727 -0.032741 0)
(0.0574491 0.00108462 0)
(0.0766618 0.0417553 0)
(0.0925448 0.0864184 0)
(0.117609 0.16368 0)
(0.155597 0.235395 0)
(0.191206 0.279021 0)
(0.219948 0.316093 0)
(0.201111 0.327489 0)
(0.184502 0.306048 0)
(0.128316 0.264283 0)
(0.0540681 0.222134 0)
(-0.0425088 0.154508 0)
(-0.116376 0.0244608 0)
(-0.22541 0.0101241 0)
(-0.318412 0.0039899 0)
(-0.293798 0.00335816 0)
(-0.243518 -0.00416766 0)
(-0.193889 -0.0161131 0)
(-0.153019 -0.0323439 0)
(-0.122213 -0.0510885 0)
(-0.0981243 -0.0615952 0)
(-0.0982242 -0.0540245 0)
(0.014437 -0.0942649 0)
(0.0403606 -0.0629529 0)
(0.06542 -0.01839 0)
(0.0952653 0.042754 0)
(0.136444 0.11952 0)
(0.191792 0.201899 0)
(0.244562 0.265594 0)
(0.290415 0.305973 0)
(0.327697 0.29496 0)
(0.358834 0.301931 0)
(0.374565 0.297149 0)
(0.356977 0.281877 0)
(0.320548 0.235652 0)
(0.311241 0.124596 0)
(0.290163 0.113493 0)
(0.269234 0.096877 0)
(0.243762 0.00965085 0)
(0.212447 -0.0521893 0)
(0.178179 -0.061838 0)
(0.141173 -0.0496604 0)
(0.0798915 -0.0247103 0)
(-0.00530028 -0.00215582 0)
(-0.165181 0.0649017 0)
(0.00700856 -0.113897 0)
(0.0277098 -0.0803955 0)
(0.0455375 -0.0344632 0)
(0.0706645 0.0141527 0)
(0.107902 0.0700148 0)
(0.162176 0.133967 0)
(0.223981 0.194757 0)
(0.286568 0.247534 0)
(0.33861 0.280652 0)
(0.378102 0.293949 0)
(0.409215 0.298803 0)
(0.431906 0.279425 0)
(0.455249 0.217063 0)
(0.464437 0.166956 0)
(0.458838 0.135094 0)
(0.451345 0.112157 0)
(0.450481 0.071915 0)
(0.447027 0.0415773 0)
(0.429751 0.0398436 0)
(0.397952 0.0517394 0)
(0.357479 0.0771308 0)
(0.318341 0.122659 0)
(0.269216 0.188965 0)
(0.00114424 -0.125766 0)
(0.0124136 -0.0937644 0)
(0.019312 -0.0510645 0)
(0.035956 -0.0137649 0)
(0.0596282 0.0260365 0)
(0.0970947 0.0774863 0)
(0.14595 0.131509 0)
(0.202714 0.182043 0)
(0.259787 0.21374 0)
(0.312542 0.234097 0)
(0.362082 0.245777 0)
(0.408784 0.246207 0)
(0.443718 0.220821 0)
(0.461628 0.172803 0)
(0.471729 0.128911 0)
(0.485434 0.0876234 0)
(0.503708 0.0525564 0)
(0.51534 0.0277648 0)
(0.515908 0.0245106 0)
(0.508064 0.0442144 0)
(0.491135 0.0827658 0)
(0.468887 0.134915 0)
(0.435922 0.204763 0)
(-0.00427741 -0.126564 0)
(-0.00330295 -0.0951772 0)
(-0.00627113 -0.0559206 0)
(-0.00174027 -0.0269698 0)
(0.00476061 0.00557715 0)
(0.0180468 0.0470417 0)
(0.0398913 0.089117 0)
(0.0809058 0.134366 0)
(0.135731 0.160365 0)
(0.196351 0.180725 0)
(0.252049 0.196251 0)
(0.302923 0.198268 0)
(0.342859 0.176411 0)
(0.370196 0.13889 0)
(0.391849 0.0985866 0)
(0.414242 0.0616344 0)
(0.439473 0.0305164 0)
(0.464341 0.0149199 0)
(0.484594 0.0224336 0)
(0.495215 0.0513574 0)
(0.495244 0.0974743 0)
(0.490127 0.152566 0)
(0.484439 0.21863 0)
(-0.00955906 -0.117261 0)
(-0.0176433 -0.0864873 0)
(-0.0295797 -0.0506828 0)
(-0.0380903 -0.0227222 0)
(-0.0486153 0.00807949 0)
(-0.0552726 0.044779 0)
(-0.0522665 0.074959 0)
(-0.0288386 0.094345 0)
(0.007979 0.100702 0)
(0.0594147 0.11767 0)
(0.110193 0.143453 0)
(0.155101 0.152226 0)
(0.191241 0.14004 0)
(0.219679 0.1102 0)
(0.244397 0.0740753 0)
(0.266222 0.0356081 0)
(0.288117 0.00214977 0)
(0.312222 -0.0132921 0)
(0.348275 0.000932014 0)
(0.381073 0.0405036 0)
(0.403409 0.0936014 0)
(0.422581 0.149112 0)
(0.446238 0.210994 0)
(-0.0135726 -0.100165 0)
(-0.027974 -0.0703974 0)
(-0.0469622 -0.0365877 0)
(-0.0634939 -0.00740341 0)
(-0.0800598 0.0214954 0)
(-0.0889989 0.0496253 0)
(-0.0874785 0.0667983 0)
(-0.0766827 0.0651836 0)
(-0.0580918 0.0619919 0)
(-0.0337282 0.074939 0)
(0.000256274 0.105266 0)
(0.0315467 0.116081 0)
(0.0604997 0.111358 0)
(0.081359 0.0820561 0)
(0.101941 0.0465314 0)
(0.117662 0.00970765 0)
(0.126794 -0.0242707 0)
(0.136557 -0.0496635 0)
(0.159574 -0.0426216 0)
(0.213607 0.00335189 0)
(0.263823 0.0614158 0)
(0.306325 0.11765 0)
(0.352643 0.175456 0)
(-0.0152597 -0.0787386 0)
(-0.0315901 -0.0508987 0)
(-0.0515762 -0.0196755 0)
(-0.0663726 0.00752701 0)
(-0.0773272 0.0315534 0)
(-0.0807588 0.051101 0)
(-0.0771833 0.0618946 0)
(-0.0721843 0.0581567 0)
(-0.0697351 0.0536044 0)
(-0.0651675 0.0604204 0)
(-0.0491779 0.079433 0)
(-0.0254396 0.0878822 0)
(0.000944768 0.0858794 0)
(0.0241362 0.0601806 0)
(0.0440913 0.0294932 0)
(0.0558131 0.0033871 0)
(0.0621797 -0.0211421 0)
(0.060133 -0.0490981 0)
(0.056319 -0.0624534 0)
(0.0641972 -0.0483301 0)
(0.121414 0.00672924 0)
(0.177107 0.0676931 0)
(0.237167 0.124957 0)
(-0.0149978 -0.0568664 0)
(-0.0300278 -0.0323034 0)
(-0.0473963 -0.00535307 0)
(-0.0575769 0.0174505 0)
(-0.0632263 0.0360088 0)
(-0.0634296 0.0497414 0)
(-0.0595684 0.0568028 0)
(-0.0553098 0.0558146 0)
(-0.0532294 0.0527881 0)
(-0.0504763 0.0545434 0)
(-0.0414162 0.0620196 0)
(-0.0246417 0.0661131 0)
(-0.0033239 0.06235 0)
(0.0166074 0.0430761 0)
(0.0283686 0.0194755 0)
(0.0321824 -0.00271484 0)
(0.0328698 -0.0225236 0)
(0.0280172 -0.0430785 0)
(0.0187376 -0.0564193 0)
(0.010787 -0.0591766 0)
(0.0154286 -0.0430978 0)
(0.05825 0.00711984 0)
(0.121225 0.0668496 0)
(-0.0139193 -0.0366526 0)
(-0.0268093 -0.0160914 0)
(-0.0413511 0.00575575 0)
(-0.0479833 0.0235357 0)
(-0.050277 0.0373609 0)
(-0.0481614 0.0469376 0)
(-0.0431355 0.0516042 0)
(-0.0374661 0.0515808 0)
(-0.0326068 0.0498766 0)
(-0.0274109 0.0496261 0)
(-0.0192073 0.0509896 0)
(-0.00674538 0.0503392 0)
(0.00846717 0.0444668 0)
(0.0221956 0.0309095 0)
(0.0301909 0.0144737 0)
(0.0326722 -0.00189465 0)
(0.0307222 -0.0180335 0)
(0.0238359 -0.0334797 0)
(0.012569 -0.0452175 0)
(-9.37474e-05 -0.0503288 0)
(-0.00890365 -0.0456173 0)
(-0.00593334 -0.0303699 0)
(0.0264298 0.0085878 0)
(-0.0128414 -0.018448 0)
(-0.0240664 -0.00195786 0)
(-0.0368891 0.0146072 0)
(-0.0418014 0.0272028 0)
(-0.0425266 0.0365529 0)
(-0.0393335 0.0426621 0)
(-0.0336384 0.0454574 0)
(-0.0268717 0.0453965 0)
(-0.020031 0.0440372 0)
(-0.0128932 0.042779 0)
(-0.00442603 0.0415468 0)
(0.00584691 0.0385607 0)
(0.0169208 0.0322649 0)
(0.0262603 0.0221358 0)
(0.0320187 0.0101396 0)
(0.0339418 -0.00197738 0)
(0.0320247 -0.0137247 0)
(0.026222 -0.0245944 0)
(0.0168087 -0.0330705 0)
(0.00523244 -0.0379629 0)
(-0.00588265 -0.0375552 0)
(-0.0131688 -0.0307929 0)
(-0.0111298 -0.016927 0)
(-0.0120697 -0.00182346 0)
(-0.0223791 0.0109628 0)
(-0.0345031 0.0224358 0)
(-0.0390191 0.0301357 0)
(-0.039703 0.0352646 0)
(-0.0366956 0.0381291 0)
(-0.031201 0.0389902 0)
(-0.0243288 0.038248 0)
(-0.0168533 0.0366375 0)
(-0.00895298 0.0347527 0)
(-0.000509002 0.0324677 0)
(0.00846089 0.0288999 0)
(0.0171905 0.0232955 0)
(0.0242767 0.0155959 0)
(0.0288761 0.00680295 0)
(0.0307218 -0.00217177 0)
(0.0295948 -0.0107924 0)
(0.0256331 -0.018347 0)
(0.0191587 -0.0240626 0)
(0.0108733 -0.0272983 0)
(0.00183929 -0.0276498 0)
(-0.00609738 -0.0246087 0)
(-0.0110622 -0.0175854 0)
(-0.0116239 0.0140312 0)
(-0.0216019 0.0233622 0)
(-0.0336417 0.0301342 0)
(-0.0384796 0.0332895 0)
(-0.0397902 0.0344839 0)
(-0.0376207 0.0343263 0)
(-0.0329741 0.0331409 0)
(-0.0267049 0.0312544 0)
(-0.01949 0.0290277 0)
(-0.0117149 0.0266543 0)
(-0.003629 0.0239651 0)
(0.00443329 0.0205429 0)
(0.0119002 0.0159309 0)
(0.0179554 0.0101445 0)
(0.0221576 0.00371208 0)
(0.0241797 -0.00287886 0)
(0.0240335 -0.00907386 0)
(0.0217575 -0.0142554 0)
(0.0176717 -0.0180527 0)
(0.012354 -0.0200669 0)
(0.00632977 -0.0201814 0)
(0.000508243 -0.0183237 0)
(-0.00424129 -0.0141041 0)
(-0.0114419 0.0295165 0)
(-0.0214665 0.0357278 0)
(-0.0337097 0.0381423 0)
(-0.0391287 0.0371152 0)
(-0.0412586 0.0346448 0)
(-0.0400441 0.0315302 0)
(-0.0363251 0.0281867 0)
(-0.0308024 0.0248834 0)
(-0.0241116 0.0217969 0)
(-0.01676 0.0189454 0)
(-0.00917823 0.0161314 0)
(-0.00180346 0.0130418 0)
(0.00489643 0.00939789 0)
(0.010401 0.0051256 0)
(0.0143682 0.000527938 0)
(0.0166988 -0.00416458 0)
(0.0173373 -0.00844701 0)
(0.0163049 -0.0120199 0)
(0.0139758 -0.0144259 0)
(0.010842 -0.0156331 0)
(0.00727285 -0.0155228 0)
(0.00377095 -0.0141701 0)
(0.00061248 -0.011276 0)
(-0.0113564 0.0449293 0)
(-0.0216705 0.0482744 0)
(-0.0343205 0.0466082 0)
(-0.0403706 0.0416393 0)
(-0.0432673 0.0356523 0)
(-0.0428599 0.0296046 0)
(-0.0398626 0.0239932 0)
(-0.0349009 0.01909 0)
(-0.0286141 0.0150015 0)
(-0.021599 0.0116684 0)
(-0.0144053 0.00884597 0)
(-0.00751848 0.00620344 0)
(-0.00137434 0.00345372 0)
(0.00372557 0.00047138 0)
(0.00755045 -0.00266351 0)
(0.00996077 -0.00581278 0)
(0.01101 -0.00865444 0)
(0.0108269 -0.0109991 0)
(0.00970633 -0.0124677 0)
(0.0080166 -0.013099 0)
(0.00606057 -0.0128941 0)
(0.00418516 -0.0118656 0)
(0.0025032 -0.00992279 0)
(-0.0113783 0.0605687 0)
(-0.0220783 0.061167 0)
(-0.0351892 0.0556068 0)
(-0.0418786 0.046834 0)
(-0.0454438 0.0373747 0)
(-0.0456477 0.0283321 0)
(-0.0431186 0.020307 0)
(-0.0384554 0.0136306 0)
(-0.0323281 0.00843741 0)
(-0.025427 0.00462007 0)
(-0.0184006 0.00187583 0)
(-0.0117814 -0.000210859 0)
(-0.00595448 -0.00203624 0)
(-0.00118443 -0.00384035 0)
(0.00238062 -0.00574358 0)
(0.00478152 -0.00764339 0)
(0.006021 -0.00935056 0)
(0.0062658 -0.0107147 0)
(0.00583894 -0.0115365 0)
(0.00497383 -0.0117979 0)
(0.00399418 -0.0115268 0)
(0.00311476 -0.0107698 0)
(0.00225267 -0.00947334 0)
(-0.0113876 0.0765177 0)
(-0.0224964 0.0744923 0)
(-0.0360757 0.0651469 0)
(-0.0433485 0.0526219 0)
(-0.0474657 0.0396466 0)
(-0.0480929 0.027483 0)
(-0.0458086 0.0168706 0)
(-0.0412059 0.00825791 0)
(-0.0350248 0.00185017 0)
(-0.0280538 -0.00242472 0)
(-0.0210129 -0.00497888 0)
(-0.0144785 -0.00639741 0)
(-0.00884218 -0.00723927 0)
(-0.00432119 -0.00792642 0)
(-0.00097672 -0.00865257 0)
(0.00127691 -0.00943466 0)
(0.00253091 -0.0102271 0)
(0.00296128 -0.0108241 0)
(0.00284163 -0.0111496 0)
(0.00240956 -0.0111443 0)
(0.00188498 -0.0108503 0)
(0.00145924 -0.0103165 0)
(0.00103279 -0.00951317 0)
(-0.0113175 0.0926195 0)
(-0.022705 0.0881403 0)
(-0.0366338 0.0751555 0)
(-0.0443534 0.0588931 0)
(-0.0488596 0.0422978 0)
(-0.0496998 0.0268445 0)
(-0.0474438 0.0134648 0)
(-0.0427282 0.0027678 0)
(-0.0363903 -0.00488126 0)
(-0.0293033 -0.00957709 0)
(-0.0222184 -0.0118733 0)
(-0.0157212 -0.0125292 0)
(-0.0102062 -0.0123061 0)
(-0.00587218 -0.0118061 0)
(-0.00273708 -0.0113781 0)
(-0.000685509 -0.0111365 0)
(0.000451263 -0.0110699 0)
(0.000878548 -0.0110369 0)
(0.000828038 -0.01095 0)
(0.000502472 -0.0107435 0)
(0.00011895 -0.0104473 0)
(-0.000182662 -0.0100586 0)
(-0.000539344 -0.00960259 0)
(-0.0109857 0.108629 0)
(-0.0223575 0.101934 0)
(-0.0364335 0.0854655 0)
(-0.0443873 0.0654633 0)
(-0.0490588 0.0451236 0)
(-0.0498701 0.0262108 0)
(-0.0474333 0.00992041 0)
(-0.0424826 -0.0029291 0)
(-0.0360049 -0.0117798 0)
(-0.0288893 -0.016821 0)
(-0.0218778 -0.0187686 0)
(-0.0155193 -0.018581 0)
(-0.0101836 -0.0172195 0)
(-0.00606454 -0.0154823 0)
(-0.00317186 -0.0138857 0)
(-0.00136834 -0.0126477 0)
(-0.000443998 -0.0117797 0)
(-0.000170021 -0.011179 0)
(-0.000323461 -0.0107384 0)
(-0.000708392 -0.0103704 0)
(-0.00116627 -0.0100408 0)
(-0.00157077 -0.00976928 0)
(-0.00204105 -0.00953455 0)
(-0.0102864 0.124115 0)
(-0.0211893 0.115522 0)
(-0.0350718 0.0958081 0)
(-0.042961 0.072103 0)
(-0.0475495 0.0478913 0)
(-0.0480909 0.0253895 0)
(-0.0452921 0.00613034 0)
(-0.0400719 -0.00881608 0)
(-0.0335505 -0.0187315 0)
(-0.0265994 -0.0239683 0)
(-0.0199041 -0.0254709 0)
(-0.0139108 -0.0244011 0)
(-0.00892105 -0.0218848 0)
(-0.00511973 -0.018893 0)
(-0.00253688 -0.0161135 0)
(-0.0010454 -0.0138806 0)
(-0.000417802 -0.0122542 0)
(-0.00040705 -0.011124 0)
(-0.000788662 -0.010363 0)
(-0.00137806 -0.00984474 0)
(-0.00203547 -0.00948917 0)
(-0.00265985 -0.00928816 0)
(-0.00334185 -0.00918306 0)
(-0.00918792 0.138434 0)
(-0.0189962 0.128414 0)
(-0.0322046 0.105844 0)
(-0.0396733 0.0785563 0)
(-0.0440033 0.0504091 0)
(-0.0441558 0.0242428 0)
(-0.040869 0.00196994 0)
(-0.0354184 -0.0148335 0)
(-0.0290064 -0.025545 0)
(-0.0224761 -0.0307481 0)
(-0.0164013 -0.0316902 0)
(-0.0110657 -0.0297419 0)
(-0.00665073 -0.02613 0)
(-0.00331042 -0.0219329 0)
(-0.00111156 -0.0179915 0)
(1.48443e-05 -0.0147623 0)
(0.000286258 -0.0124089 0)
(-4.08491e-05 -0.01077 0)
(-0.000738553 -0.00971994 0)
(-0.00161493 -0.00906611 0)
(-0.00255677 -0.00868061 0)
(-0.00346568 -0.00850593 0)
(-0.00439068 -0.00847303 0)
(-0.00770062 0.150868 0)
(-0.0156832 0.140021 0)
(-0.0276546 0.115141 0)
(-0.0343026 0.0845723 0)
(-0.0382449 0.0526141 0)
(-0.0380157 0.0227359 0)
(-0.0343304 -0.00258997 0)
(-0.0287846 -0.0208786 0)
(-0.0226998 -0.0319872 0)
(-0.0168685 -0.0368586 0)
(-0.0117172 -0.0371052 0)
(-0.00733089 -0.0343186 0)
(-0.00373013 -0.029751 0)
(-0.0010024 -0.0244843 0)
(0.000765649 -0.0194362 0)
(0.00151187 -0.0152706 0)
(0.00142013 -0.0121895 0)
(0.000734623 -0.0100825 0)
(-0.000332366 -0.00874627 0)
(-0.00154656 -0.00797541 0)
(-0.00280984 -0.00756653 0)
(-0.00403304 -0.00740767 0)
(-0.00523248 -0.00740717 0)
(-0.00590969 0.160684 0)
(-0.0113208 0.149694 0)
(-0.0214472 0.12319 0)
(-0.0268383 0.0899071 0)
(-0.0302837 0.0544485 0)
(-0.0296802 0.0209326 0)
(-0.0258915 -0.00729721 0)
(-0.0206082 -0.0267306 0)
(-0.0152151 -0.0377635 0)
(-0.0103855 -0.0420057 0)
(-0.00641405 -0.0414276 0)
(-0.00320655 -0.0378679 0)
(-0.000615598 -0.0325492 0)
(0.00139188 -0.0264419 0)
(0.00266279 -0.0204723 0)
(0.00306857 -0.0154276 0)
(0.00269768 -0.0116076 0)
(0.00170826 -0.00904253 0)
(0.0003066 -0.007434 0)
(-0.00126228 -0.00654944 0)
(-0.00286005 -0.00612851 0)
(-0.00439886 -0.00599056 0)
(-0.00584786 -0.00600497 0)
(-0.00397127 0.167276 0)
(-0.00615578 0.156779 0)
(-0.0138285 0.129427 0)
(-0.0173572 0.094275 0)
(-0.020144 0.0558472 0)
(-0.019255 0.0190815 0)
(-0.0158019 -0.0117893 0)
(-0.0113823 -0.0319451 0)
(-0.00726376 -0.0424676 0)
(-0.00378448 -0.0459247 0)
(-0.00118261 -0.0444496 0)
(0.000724108 -0.0401959 0)
(0.00219543 -0.0343653 0)
(0.00336935 -0.0277568 0)
(0.00414548 -0.0211697 0)
(0.00433357 -0.0153252 0)
(0.00381413 -0.0107873 0)
(0.00264128 -0.00768926 0)
(0.00100838 -0.0058124 0)
(-0.000856097 -0.00479728 0)
(-0.0027586 -0.00437781 0)
(-0.00458755 -0.00427364 0)
(-0.00627055 -0.00430865 0)
(-0.00213254 0.170357 0)
(-0.00067909 0.160755 0)
(-0.00538109 0.133351 0)
(-0.00615677 0.0972346 0)
(-0.00765207 0.0567288 0)
(-0.00631313 0.0174101 0)
(-0.00421596 -0.0154637 0)
(-0.00169768 -0.0358306 0)
(0.000428062 -0.0456217 0)
(0.00221444 -0.0483575 0)
(0.00331673 -0.04604 0)
(0.0038967 -0.0412454 0)
(0.00420716 -0.0351638 0)
(0.00452144 -0.0284018 0)
(0.00483878 -0.0215135 0)
(0.00491207 -0.0151313 0)
(0.00444827 -0.00991323 0)
(0.00331138 -0.00620829 0)
(0.0016158 -0.00395767 0)
(-0.000408015 -0.00278742 0)
(-0.00256637 -0.00235782 0)
(-0.00463736 -0.00229614 0)
(-0.00648796 -0.00236607 0)
(-0.000637956 0.169938 0)
(0.00441507 0.16111 0)
(0.00304936 0.134329 0)
(0.0057663 0.0978309 0)
(0.00681024 0.0566081 0)
(0.00902122 0.0166969 0)
(0.0088824 -0.0163842 0)
(0.00825175 -0.0369135 0)
(0.00753413 -0.0465305 0)
(0.00721795 -0.0489593 0)
(0.006618 -0.0461243 0)
(0.00587928 -0.041048 0)
(0.0050977 -0.0349734 0)
(0.00461687 -0.0283662 0)
(0.00447859 -0.0215523 0)
(0.00450013 -0.014974 0)
(0.00429481 -0.00920537 0)
(0.00347455 -0.00483954 0)
(0.00196077 -0.00205667 0)
(-5.25771e-05 -0.000642473 0)
(-0.00232094 -0.000150943 0)
(-0.00455876 -0.000134129 0)
(-0.00654381 -0.00025944 0)
(0.000531491 0.166407 0)
(0.00866246 0.157756 0)
(0.0107041 0.131436 0)
(0.0167841 0.094747 0)
(0.0208085 0.054478 0)
(0.0234707 0.0169675 0)
(0.0217836 -0.0139836 0)
(0.0180475 -0.0341801 0)
(0.0141776 -0.044556 0)
(0.0112382 -0.0473371 0)
(0.00862803 -0.0445659 0)
(0.00651584 -0.0395984 0)
(0.00472411 -0.0338474 0)
(0.00355875 -0.0277084 0)
(0.00302534 -0.0213519 0)
(0.00301361 -0.0149378 0)
(0.0031601 -0.00888433 0)
(0.00290609 -0.00386121 0)
(0.00187828 -0.00038172 0)
(0.000109112 0.00146358 0)
(-0.00211175 0.00212858 0)
(-0.00441902 0.00213467 0)
(-0.00644827 0.00192736 0)
(0.00151453 0.160424 0)
(0.0119509 0.151315 0)