/*--------------------------------*- C++ -*----------------------------------*\
| =========                 |                                                 |
| \\      /  F ield         | OpenFOAM: The Open Source CFD Toolbox           |
|  \\    /   O peration     | Version:  2312                                  |
|   \\  /    A nd           | Website:  www.openfoam.com                      |
|    \\/     M anipulation  |                                                 |
\*---------------------------------------------------------------------------*/
FoamFile
{
    version     2.0;
    format      ascii;
    arch        "LSB;label=32;scalar=64";
    class       volScalarField;
    location    "4";
    object      alpha.oil;
}
// * * * * * * * * * * * * * * * * * * * * * * * * * * * * * * * * * * * * * //

dimensions      [0 0 0 0 0 0 0];

internalField   nonuniform List<scalar> 
2268
(
7.56993e-10
7.82264e-10
1.36617e-09
1.41026e-09
1.42228e-09
1.43409e-09
1.62443e-09
2.5265e-09
1.52891e-09
8.28444e-10
5.90907e-10
4.37923e-10
3.85578e-10
4.40953e-10
7.04656e-10
1.47536e-09
2.7539e-09
6.64828e-09
3.04874e-08
2.24846e-06
3.57403e-05
4.74558e-05
4.7258e-05
6.86998e-10
3.7099e-09
1.38754e-08
1.66092e-08
4.30224e-08
7.99063e-08
5.14822e-08
1.77625e-08
7.59708e-09
1.86692e-09
1.63467e-09
1.42693e-09
1.2692e-09
1.40069e-09
1.70194e-09
1.77101e-09
1.77387e-09
1.9416e-08
4.11327e-08
8.25736e-08
4.18217e-06
2.1113e-05
2.5753e-05
5.78524e-10
2.49173e-09
1.07542e-08
2.75574e-08
1.74136e-07
2.20703e-07
1.91554e-07
1.85025e-08
1.8498e-09
1.68214e-09
1.86617e-09
1.86455e-09
1.26997e-09
2.27459e-09
2.2252e-09
1.56692e-08
6.34663e-07
1.60068e-06
1.43888e-06
1.50726e-07
-1.48916e-12
-1.28248e-11
-6.06618e-11
4.42773e-10
4.45502e-10
4.42773e-10
3.20525e-09
1.27164e-08
4.41533e-10
4.39661e-10
1.51646e-09
1.11725e-09
1.119e-09
1.11699e-09
1.1952e-08
3.26875e-07
1.08652e-07
2.30047e-09
1.58384e-07
1.74856e-06
1.05779e-07
1.20268e-07
1.15411e-07
5.62339e-11
-9.79886e-12
-5.03933e-11
0.0016642
0.00144464
0.00025145
1.08478e-09
2.70069e-09
7.7847e-06
2.83948e-06
6.18084e-10
2.28487e-09
6.03619e-07
4.72976e-06
1.40813e-06
6.38609e-06
4.598e-06
2.32423e-09
9.69219e-09
8.69403e-05
0.000716299
0.00217778
0.00262446
-1.87604e-14
-3.16548e-21
-2.41385e-23
0.00723455
0.00723452
0.00686514
0.0032269
2.64257e-05
6.09631e-05
0.000277436
0.000255682
0.000281525
0.000541914
0.000581444
0.000113978
8.68722e-06
4.68176e-06
2.31621e-09
0.000946986
0.0180771
0.0558858
0.0800367
0.0807444
0.0296894
0.00853608
0.000958051
0.00454816
0.00548447
0.00637139
0.0050262
0.00210328
0.000437111
0.000298404
0.000513961
0.000777437
0.000896461
0.000828437
0.00038386
0.00151012
0.00840254
0.0103694
0.00775855
0.0360197
0.0891941
0.114094
0.118948
0.11895
0.0598675
0.0229405
7.38953e-05
0.000232216
0.000654095
0.00100371
0.00102408
0.000548539
0.000120705
0.000147926
0.000236243
0.000351607
0.00050817
0.000344465
0.00298412
0.0190702
0.0264123
0.0234189
0.0234491
0.0158089
0.0144358
0.0534254
0.116694
0.095249
0.0370986
0.0278375
0.0278343
0.0278343
0.0278766
0.0283741
0.0276091
0.0267931
0.0267931
0.0267931
0.0267931
0.0267931
0.0267931
0.0267931
0.026793
0.026793
0.026793
0.0267929
0.0267929
0.0267929
0.0515532
0.11828
0.115684
0.113546
0.108207
0.10021
0.0690123
0.0342113
0.032497
0.0361714
0.037846
0.0319302
0.0301583
0.0318996
0.0324127
0.0319584
0.0274088
0.0267928
0.027669
0.300787
0.289236
0.249878
0.269563
0.369454
0.39611
0.39609
0.313617
0.214951
0.239491
0.330178
0.34698
0.302752
0.292214
0.280478
0.265474
0.228797
0.209719
0.25555
0.300735
0.0955195
0.0295865
0.0231305
0.0214548
0.0260827
0.251592
0.342761
0.317636
0.172505
0.486857
0.495887
0.450256
0.423136
0.513177
0.513208
0.513296
0.513448
0.513513
0.299344
0.105599
0.0443256
0.0205857
0.0164581
0.0164238
0.0508539
0.249449
0.204575
0.0607141
0.0689053
0.354823
0.316043
0.153121
0.224672
0.334066
0.415145
0.406146
0.513397
0.299197
0.0393168
0.0253388
0.0377756
0.0344224
0.0170943
0.0168189
0.0241428
0.0254011
0.0205862
0.0204104
0.0706111
0.0735951
0.111323
0.0736802
0.0739079
0.079383
0.0670771
0.352919
0.0877831
0.011006
0.0043404
0.0101379
0.0570474
0.0461985
0.0171815
0.0130652
0.0200611
0.0520167
0.0363818
0.0583217
0.106699
0.228788
0.114804
0.0619389
0.0511239
0.0569342
0.240196
0.00473007
0.00463728
0.00429197
0.0100366
0.0654408
0.0426055
0.0167975
0.0086573
0.045462
0.309469
0.196528
0.0616197
0.247275
0.247371
0.0467188
0.0302126
0.0302088
0.060563
0.318985
2.48391e-05
3.22654e-05
3.67808e-05
2.43878e-05
5.58473e-05
7.61484e-05
1.8677e-05
9.05983e-07
2.22996e-05
0.000206312
0.000205353
0.000169739
0.00587457
0.038612
0.0428534
0.0428989
0.0243261
0.0156358
0.0110154
0.00510684
0.0152903
0.0525619
0.0775899
3.78977e-06
9.62814e-06
5.37132e-07
6.40699e-10
7.04076e-13
2.58719e-07
4.50866e-08
5.09927e-12
1.73199e-05
9.59786e-05
0.000153528
0.000159125
0.000177855
0.000177933
0.00951772
0.043438
0.0258235
0.0121544
0.00028798
0.000356389
0.000352897
0.00278924
0.00836718
3.80976e-13
9.03386e-14
3.82722e-22
-4.25287e-28
5.86143e-32
4.57351e-26
-1.50185e-27
1.36723e-31
-7.11888e-09
-5.07727e-10
0.000881666
0.00810365
0.0312734
0.0614747
0.0606511
0.0520391
0.055091
0.108716
0.189612
0.285593
0.387717
0.467655
0.481387
0.119195
0.0852087
0.075432
0.0852179
0.109957
0.160073
0.18897
0.228766
0.278371
0.349584
0.424011
0.52507
0.672318
0.748149
0.706147
0.644904
0.671748
0.792256
0.870463
0.941397
0.983049
0.98559
0.987494
0.789817
0.774622
0.813556
0.84546
0.859352
0.895308
0.920251
0.958042
0.967725
0.929969
0.925789
0.950119
0.995239
0.999586
0.987481
0.922443
0.909519
0.949405
0.995466
0.999533
0.999533
0.999533
0.999534
0.966788
0.988683
0.998374
0.998392
0.998353
0.99835
0.998784
0.999496
0.999541
0.999572
0.999586
0.999585
0.999585
0.999585
0.999584
0.997745
0.993201
0.999532
0.999532
0.999533
0.999533
0.999533
0.999534
0.563107
0.548891
0.546038
0.571523
0.628731
0.695119
0.744643
0.790389
0.837294
0.881625
0.92402
0.957308
0.974276
0.984749
0.991588
0.996714
0.999329
0.999405
0.999427
0.99836
0.995611
0.996348
0.998015
6.26369e-09
6.2648e-09
6.26369e-09
6.2648e-09
6.26641e-09
0.00193787
0.0213155
0.0466511
0.0850629
0.125726
0.195795
0.275919
0.332657
0.391509
0.443965
0.522643
0.663305
0.781036
0.781452
0.714351
0.674541
0.691129
0.727198
9.11509e-09
7.70149e-09
4.09774e-08
1.77288e-07
2.60931e-07
-2.37337e-10
-3.54079e-25
-1.19983e-10
4.09424e-29
1.26393e-26
1.96592e-26
5.64111e-27
3.40164e-18
1.90869e-16
-1.68583e-09
-1.3262e-11
1.57956e-20
0.0232333
0.0480629
0.0398364
0.0226902
0.0218594
0.0350469
2.29941e-08
7.75332e-09
1.74955e-07
1.00538e-06
2.60703e-06
2.14408e-06
9.13374e-07
3.37861e-07
2.12874e-07
8.16829e-08
1.62417e-08
7.72567e-09
3.35226e-08
6.35854e-08
6.9361e-08
4.47541e-08
1.17167e-08
9.17641e-15
7.81622e-15
6.92504e-14
2.2245e-13
4.63466e-14
4.80501e-14
3.01354e-08
7.82498e-09
8.32218e-07
2.72083e-06
2.87156e-06
2.98285e-06
3.17321e-07
3.33506e-07
3.2741e-08
3.31935e-08
1.46099e-08
8.10484e-09
1.04144e-07
2.81069e-07
2.81666e-07
1.25099e-07
5.50018e-08
1.42108e-07
2.98475e-07
6.63051e-07
8.66776e-07
7.12786e-07
5.82835e-07
2.76755e-08
7.84426e-08
4.99863e-07
2.0277e-06
1.82423e-06
3.08796e-06
1.08766e-05
3.69753e-05
1.56911e-05
1.41221e-07
1.39176e-07
4.20566e-07
8.47576e-07
3.48687e-07
2.38851e-07
2.08125e-07
2.30559e-07
1.65118e-07
1.74874e-07
1.67321e-06
2.39779e-06
2.4021e-06
2.40284e-06
2.56638e-08
8.91109e-08
1.24745e-07
9.05945e-08
9.13599e-08
4.41272e-06
5.72213e-05
5.87597e-05
5.75061e-05
1.44409e-05
1.9277e-05
2.25135e-05
9.56535e-06
2.9984e-07
1.89338e-07
2.35267e-07
1.68048e-06
4.57124e-06
1.97634e-06
1.01017e-06
1.4479e-06
1.79199e-06
2.19039e-06
2.25163e-08
4.93428e-08
6.40351e-08
8.98548e-08
9.34242e-08
6.60423e-06
5.40796e-05
5.92242e-05
5.91995e-05
5.91768e-05
5.48558e-05
5.48339e-05
2.66599e-05
1.89176e-07
1.88919e-07
9.98835e-07
1.49392e-05
1.72095e-05
8.997e-06
1.42797e-07
1.5396e-07
1.62102e-07
2.78457e-09
1.9636e-08
3.08205e-08
5.71438e-08
9.93362e-08
1.72073e-07
1.16163e-06
2.16398e-06
2.47954e-05
3.63696e-05
3.91572e-05
4.75767e-05
4.86949e-05
2.50851e-05
2.096e-07
4.38278e-07
4.48793e-06
1.7205e-05
1.71989e-05
1.4036e-05
9.56185e-07
1.15545e-06
1.14916e-06
1.06351e-07
1.69548e-08
2.07573e-08
4.75867e-08
9.6444e-08
1.38682e-07
1.55617e-09
1.56332e-09
1.55615e-09
1.56144e-09
1.55433e-09
1.55944e-09
9.91176e-07
4.07562e-06
3.84143e-07
8.69909e-07
2.59212e-06
9.06947e-06
1.6809e-05
1.33896e-05
1.25292e-05
1.42855e-05
7.78391e-06
1.09904e-06
1.54479e-08
1.66215e-08
3.57219e-08
6.37743e-08
7.74682e-08
3.45495e-08
6.64831e-09
4.13535e-09
1.6966e-09
1.55944e-09
1.55232e-09
1.55745e-09
1.57694e-09
7.6221e-07
1.51469e-07
3.36753e-09
3.37021e-09
1.38801e-06
9.44562e-06
1.57612e-05
1.62328e-05
1.62725e-05
5.60565e-06
8.72201e-09
1.20547e-08
2.35116e-08
3.53761e-08
2.78523e-08
2.38667e-08
1.01614e-08
7.58068e-09
4.90753e-09
3.17896e-09
2.28966e-09
1.55054e-09
2.4843e-08
1.11379e-07
5.99542e-08
3.36872e-09
3.36906e-09
3.37017e-09
3.36729e-09
7.5397e-09
7.8274e-06
1.1286e-05
1.6733e-06
3.16005e-09
9.27131e-09
1.49593e-08
1.77727e-08
1.72896e-08
1.46603e-08
1.0322e-08
7.98731e-09
5.95468e-09
4.49336e-09
3.75856e-09
3.20654e-09
2.17856e-09
1.77581e-09
1.77577e-09
3.90873e-09
3.73358e-09
3.36744e-09
3.36881e-09
3.36516e-09
3.36759e-09
3.36516e-09
5.08516e-08
2.42975e-09
6.36429e-09
1.00736e-08
1.13022e-08
1.05244e-08
9.3422e-09
7.73834e-09
5.86619e-09
4.01973e-09
3.34756e-09
2.91611e-09
2.69658e-09
2.38376e-09
2.01618e-09
2.27824e-09
3.5191e-09
3.72371e-09
3.87396e-09
3.93443e-09
3.66786e-09
4.15205e-09
1.34083e-08
3.79674e-08
2.43004e-09
4.28296e-09
6.33155e-09
7.59717e-09
7.41907e-09
6.13202e-09
4.63787e-09
2.75765e-09
2.15117e-09
1.70821e-09
1.59448e-09
1.63909e-09
1.72687e-09
1.87397e-09
2.10228e-09
2.38697e-09
2.77754e-09
3.23122e-09
3.85687e-09
4.93165e-09
6.45856e-09
9.09072e-09
2.05022e-08
2.43685e-09
2.89825e-09
3.63122e-09
3.83683e-09
3.65445e-09
2.84859e-09
1.75333e-09
1.28546e-09
9.33729e-10
7.94124e-10
7.61856e-10
7.72433e-10
8.37546e-10
9.60509e-10
1.13059e-09
1.35651e-09
1.64898e-09
2.02348e-09
2.49944e-09
3.13243e-09
4.15457e-09
6.57409e-09
9.37431e-09
2.49124e-09
2.48468e-09
2.50037e-09
2.14858e-09
1.68858e-09
1.19973e-09
8.95591e-10
6.50738e-10
5.20494e-10
4.12057e-10
3.50299e-10
3.32332e-10
3.59118e-10
4.32402e-10
5.48805e-10
7.08226e-10
9.16196e-10
1.18377e-09
1.53165e-09
1.95786e-09
2.45204e-09
3.2666e-09
5.36824e-09
2.58363e-09
2.2251e-09
1.88604e-09
1.57732e-09
1.29666e-09
1.02884e-09
7.00436e-10
5.34985e-10
4.2692e-10
3.29076e-10
2.43681e-10
1.88559e-10
1.73029e-10
1.96636e-10
2.55822e-10
3.49725e-10
4.82348e-10
6.60195e-10
8.87419e-10
1.17514e-09
1.55021e-09
2.18004e-09
2.78456e-09
2.78159e-09
2.24727e-09
1.81394e-09
1.53195e-09
1.36405e-09
1.17949e-09
7.4929e-10
5.848e-10
4.97492e-10
3.87018e-10
2.70362e-10
1.73781e-10
1.16214e-10
9.85903e-11
1.15081e-10
1.60593e-10
2.34123e-10
3.39458e-10
4.81755e-10
6.60003e-10
8.74254e-10
1.12092e-09
1.68307e-09
2.92334e-09
2.33886e-09
1.9309e-09
1.66757e-09
1.63429e-09
1.62672e-09
8.3845e-10
6.5546e-10
5.95662e-10
4.86443e-10
3.49246e-10
2.17545e-10
1.22222e-10
7.07747e-11
5.6507e-11
6.99393e-11
1.04537e-10
1.60207e-10
2.4265e-10
3.55419e-10
5.00324e-10
7.46895e-10
8.82567e-10
3.1612e-09
2.51975e-09
2.13491e-09
1.7806e-09
1.91401e-09
2.40398e-09
8.7993e-10
6.95611e-10
6.81474e-10
5.84872e-10
4.41855e-10
2.85243e-10
1.58944e-10
7.84425e-11
3.98031e-11
3.23318e-11
4.42746e-11
7.20835e-11
1.18374e-10
1.85097e-10
2.75332e-10
3.76579e-10
5.78653e-10
3.30558e-09
2.79809e-09
2.36402e-09
1.67497e-09
1.67334e-09
3.31681e-09
7.46199e-10
6.89598e-10
7.41213e-10
6.59246e-10
5.22914e-10
3.54074e-10
2.0644e-10
1.02683e-10
4.39002e-11
2.11904e-11
1.95482e-11
3.09727e-11
5.50709e-11
9.47243e-11
1.50831e-10
2.70565e-10
3.40763e-10
3.67583e-09
3.55242e-09
2.52211e-09
3.81808e-09
2.21958e-08
2.64926e-09
5.21205e-10
6.33671e-10
7.73705e-10
7.00594e-10
5.76628e-10
4.06517e-10
2.49395e-10
1.31087e-10
5.70591e-11
2.18483e-11
1.11642e-11
1.40341e-11
2.61995e-11
5.01783e-11
9.47604e-11
1.38757e-10
2.47213e-10
3.63032e-09
3.556e-09
1.11373e-07
4.45925e-07
3.14314e-07
3.55859e-10
4.47518e-10
6.08224e-10
7.68139e-10
7.07349e-10
5.94845e-10
4.30982e-10
2.75843e-10
1.53783e-10
7.18372e-11
2.72364e-11
1.00058e-11
7.7243e-12
1.39063e-11
2.8021e-11
5.06332e-11
1.11391e-10
1.53797e-10
4.32521e-09
1.22414e-08
3.6146e-07
8.55903e-07
4.58312e-07
3.57467e-10
1.28588e-09
1.86274e-09
6.92073e-10
6.3591e-10
5.46799e-10
4.22654e-10
2.78622e-10
1.62687e-10
8.14776e-11
3.3298e-11
1.12508e-11
5.31931e-12
7.72719e-12
1.65242e-11
3.57067e-11
6.01585e-11
1.18115e-10
4.27345e-09
7.77516e-09
5.12219e-07
8.55638e-07
3.06728e-07
1.19958e-09
2.15243e-09
8.54727e-09
5.39738e-10
5.59344e-10
4.865e-10
3.84191e-10
2.57082e-10
1.54209e-10
8.20676e-11
3.63622e-11
1.31087e-11
4.61619e-12
4.23944e-12
8.7131e-12
1.84747e-11
4.99497e-11
7.51382e-11
5.96438e-09
3.49219e-08
5.97293e-07
8.55903e-07
2.38828e-07
1.16925e-09
3.27524e-08
1.7653e-08
5.23315e-10
5.31387e-10
4.15096e-10
3.23636e-10
2.17355e-10
1.31159e-10
7.24946e-11
3.49398e-11
1.37372e-11
4.51153e-12
2.48787e-12
4.22332e-12
1.23645e-11
2.19054e-11
5.53718e-11
5.97196e-09
5.21376e-08
6.8182e-07
8.55638e-07
3.91947e-07
3.76343e-08
1.33418e-07
1.65423e-08
5.21863e-10
5.20396e-10
3.30955e-10
2.52466e-10
1.68726e-10
1.00444e-10
5.60521e-11
2.86434e-11
1.25533e-11
4.3222e-12
1.68888e-12
2.20284e-12
4.95916e-12
1.7793e-11
2.88095e-11
5.24606e-09
8.74128e-08
7.56002e-07
8.55903e-07
1.72721e-07
1.24895e-07
1.33543e-07
2.33829e-08
6.13068e-10
4.66603e-10
2.45086e-10
1.82144e-10
1.20228e-10
6.9288e-11
3.76984e-11
1.99083e-11
9.52367e-12
3.68047e-12
1.28258e-12
1.1214e-12
2.53852e-12
5.64001e-12
1.81732e-11
4.31051e-09
8.18139e-08
6.75952e-07
7.54363e-07
8.43921e-08
1.62946e-07
1.24011e-07
1.93766e-08
1.29136e-09
3.78958e-10
1.66017e-10
1.19889e-10
7.80038e-11
4.26261e-11
2.17991e-11
1.13705e-11
5.82092e-12
2.56272e-12
9.35164e-13
5.78041e-13
1.28895e-12
3.63797e-12
7.6843e-12
4.31051e-09
6.61132e-08
2.55609e-07
1.90072e-07
8.47602e-08
1.63016e-07
6.48471e-08
1.20073e-08
1.32355e-09
2.69615e-10
9.90817e-11
7.04331e-11
4.54894e-11
2.34375e-11
1.09098e-11
5.31126e-12
2.77301e-12
1.36707e-12
5.66209e-13
2.41221e-13
3.6227e-13
9.35465e-13
3.9921e-12
4.31051e-09
3.25009e-08
9.9926e-08
4.71196e-08
8.29915e-08
1.44802e-07
3.84341e-08
7.7211e-09
9.54786e-10
1.4847e-10
4.91683e-11
3.59316e-11
2.34031e-11
1.14913e-11
4.77465e-12
2.02767e-12
9.94922e-13
5.26269e-13
2.6082e-13
1.21163e-13
1.55002e-13
4.73495e-13
1.2151e-12
7.43159e-09
1.13342e-08
1.2853e-08
2.15667e-08
8.90264e-08
6.11879e-08
2.18279e-08
4.65411e-09
6.07445e-10
5.69446e-11
1.84048e-11
1.51244e-11
1.01965e-11
4.92033e-12
1.85075e-12
6.46918e-13
2.65201e-13
1.36453e-13
8.15889e-14
4.52612e-14
3.61137e-14
8.88473e-14
4.5213e-13
8.63863e-09
9.98846e-09
9.97547e-09
5.57735e-08
8.88956e-08
3.42954e-08
1.11037e-08
2.65683e-09
3.32843e-10
2.15887e-11
5.21879e-12
4.92776e-12
3.59015e-12
1.74276e-12
6.15722e-13
1.7773e-13
5.44616e-14
2.36797e-14
1.60802e-14
1.2947e-14
1.07472e-14
3.50095e-14
1.11221e-13
1.29477e-08
1.06544e-08
1.23775e-08
7.41849e-08
5.72471e-08
2.14448e-08
5.41819e-09
9.35388e-10
9.25788e-11
5.55261e-12
9.32635e-13
1.0362e-12
8.4812e-13
4.33756e-13
1.48406e-13
3.66495e-14
7.85936e-15
2.45887e-15
2.02408e-15
2.451e-15
2.47713e-15
5.00383e-15
3.19206e-14
2.87361e-08
1.73773e-08
6.3623e-08
6.07515e-08
1.60363e-08
3.40739e-09
6.69851e-10
7.75714e-11
5.53015e-12
3.82757e-13
6.6954e-14
1.0707e-13
1.02376e-13
5.6484e-14
1.9502e-14
4.15773e-15
6.39787e-16
1.37504e-16
1.56135e-16
3.31276e-16
5.94909e-16
1.66298e-15
7.09929e-15
0.0794659
0.0800451
0.0315157
0.00522174
0.0106576
0.00951835
0.00591028
0.00557463
0.472944
0.437569
0.414611
0.430604
0.986788
0.960823
0.951562
0.97926
0.999534
0.999046
0.995314
0.998849
0.999534
0.999534
0.999534
0.999534
0.998847
0.999163
0.999363
0.999534
0.764216
0.777029
0.791295
0.810824
0.0533541
0.0583645
0.0635103
0.0706283
9.24864e-15
1.31379e-21
4.54275e-22
5.87947e-25
3.60926e-07
3.34026e-07
2.80412e-07
9.49941e-08
2.40308e-06
2.40425e-06
6.3271e-07
1.86589e-07
1.78752e-06
7.78755e-07
7.63797e-07
1.50564e-07
1.45063e-09
1.45293e-09
1.37307e-08
1.16741e-08
7.74745e-08
8.01544e-08
3.50546e-08
8.62666e-09
7.43639e-08
2.24232e-07
1.67295e-07
4.25052e-08
1.05707e-07
1.42567e-07
2.6824e-07
2.64683e-07
5.02355e-08
4.98246e-08
9.99954e-08
1.05988e-07
3.18956e-07
1.51974e-07
4.34058e-08
4.38043e-08
8.59381e-08
9.74808e-08
7.1572e-08
6.40165e-08
2.42839e-08
4.79276e-08
6.19536e-08
8.84797e-08
1.43462e-08
2.2143e-08
3.09306e-08
4.70274e-08
6.57879e-09
8.04986e-09
1.06754e-08
1.40571e-08
3.72514e-09
4.79015e-09
5.09945e-09
6.13117e-09
1.98675e-09
2.21059e-09
2.85268e-09
3.16354e-09
1.16118e-09
1.37349e-09
1.44129e-09
1.66953e-09
6.9478e-10
7.7278e-10
9.38379e-10
9.97438e-10
4.65542e-10
5.53728e-10
5.9565e-10
7.04923e-10
3.20471e-10
3.72306e-10
4.67841e-10
5.01014e-10
2.37742e-10
2.94239e-10
3.28532e-10
4.06917e-10
1.67106e-10
2.05521e-10
2.66498e-10
2.88426e-10
1.24918e-10
1.60243e-10
1.85053e-10
2.38219e-10
7.84742e-11
9.79604e-11
1.38313e-10
1.58639e-10
5.63158e-11
6.88468e-11
8.54728e-11
1.15902e-10
2.77414e-11
3.62837e-11
5.26547e-11
6.31825e-11
1.57289e-11
2.04886e-11
2.66118e-11
3.75348e-11
6.7827e-12
9.51576e-12
1.423e-11
1.70354e-11
2.90435e-12
3.85376e-12
5.22145e-12
7.71518e-12
8.94353e-13
1.33669e-12
1.99832e-12
2.49584e-12
2.7874e-13
4.05959e-13
5.78758e-13
9.31097e-13
7.40605e-14
1.12303e-13
1.8101e-13
2.54821e-13
1.96483e-14
3.06866e-14
4.59739e-14
6.17328e-14
0.00505173
0.005978
0.0612275
0.214106
0.142075
0.0163579
0.0111247
0.00822209
0.194257
0.528947
0.478597
0.440655
0.547964
0.433347
0.0446593
0.0302088
0.0302126
0.0748383
0.271902
0.0291073
0.101647
0.477141
0.611707
0.190378
0.00802869
0.00805224
0.00802581
0.509047
0.894069
0.893165
0.90666
0.835399
0.595854
0.17777
0.0369669
0.0405589
0.0636997
0.0894159
0.644313
0.93141
0.923888
0.818711
0.584325
0.464576
0.231712
0.200592
0.613462
0.952485
0.955617
0.97126
0.952463
0.917771
0.795106
0.626342
0.506735
0.561502
0.513153
0.994728
0.99481
0.975573
0.973137
0.987621
0.928855
0.625456
0.308638
0.394351
0.866218
0.995243
0.996502
0.996629
0.974103
0.949842
0.947934
0.970783
0.984834
0.977372
0.994402
0.997146
0.998376
0.998893
0.996749
0.953417
0.76832
0.419082
0.395632
0.617656
0.97738
0.99743
0.99743
0.996399
0.995123
0.961365
0.965009
0.990653
0.990819
0.993679
0.986108
0.996948
0.999022
0.999027
0.996703
0.888423
0.687999
0.5996
0.663512
0.938523
0.99743
0.997431
0.99743
0.997431
0.993951
0.984358
0.991024
0.992036
0.99854
0.981851
0.98326
0.997961
0.999025
0.997126
0.991605
0.974926
0.938956
0.943634
0.97558
0.993889
0.997431
0.997431
0.997431
0.997431
0.996791
0.992126
0.992068
0.835419
0.885165
0.941641
0.975524
0.996997
0.998616
0.998657
0.998705
0.998706
0.998704
0.998232
0.99633
0.994801
0.995068
0.995408
0.995174
0.973831
0.935705
0.98453
0.0881765
0.153707
0.281476
0.432756
0.5559
0.723301
0.890435
0.959833
0.956979
0.920956
0.85715
0.764845
0.66527
0.576473
0.497295
0.426137
0.34513
0.281469
0.461784
9.25144e-18
-1.34954e-15
-6.57712e-08
-9.57269e-07
0.0137726
0.0462069
0.117915
0.307779
0.372272
0.267306
0.138863
0.065752
0.0293353
0.0109671
0.0026841
0.000114631
-3.51395e-20
1.22728e-19
0.00176469
7.7859e-09
-2.50437e-24
4.93517e-08
2.07431e-06
8.47488e-10
6.19658e-15
2.19968e-17
6.69203e-19
-9.7084e-19
-5.83359e-13
4.3544e-20
-1.24087e-16
-9.24063e-08
2.73651e-07
9.42934e-08
5.5149e-16
-1.86322e-16
-2.11172e-15
-7.47973e-07
2.59824e-08
2.52463e-07
4.31566e-07
1.60816e-05
3.82275e-05
2.7772e-05
4.27451e-06
5.52541e-19
3.56233e-10
3.08389e-09
4.28932e-09
-6.4891e-12
2.89216e-05
0.000116317
0.000114552
0.000142816
0.000144168
8.21868e-05
2.99374e-05
8.42787e-09
1.06829e-05
6.136e-05
0.00012176
0.000126895
6.90769e-05
7.62325e-10
7.73008e-10
3.24156e-09
4.85514e-09
4.68109e-09
3.04014e-05
0.00021623
0.000216648
0.000217319
0.000109644
9.73309e-05
0.000106385
0.000101192
8.38219e-09
5.10357e-05
0.000124063
0.000126895
0.000126895
0.000126895
4.06749e-05
4.97434e-10
1.32006e-09
1.37961e-09
2.01354e-05
0.000203262
0.000218779
0.000218845
2.19348e-05
1.95906e-05
1.97914e-05
4.03596e-05
3.81119e-05
8.58122e-09
3.27973e-05
0.000111617
0.00010609
9.65645e-05
0.000107135
4.69882e-05
5.05669e-10
5.87728e-09
8.41319e-07
0.000129532
0.000217533
0.000218835
0.000166423
1.95873e-05
1.96205e-05
2.08137e-05
2.064e-05
6.2896e-05
1.61573e-07
8.71742e-06
1.51777e-05
9.75084e-06
4.09199e-06
6.30987e-06
1.34105e-05
7.71631e-06
4.50057e-07
3.02849e-06
0.000107977
0.000195471
0.000115327
3.12229e-05
5.36766e-05
9.03737e-05
8.10317e-05
2.23104e-05
6.30119e-05
2.96846e-08
1.22073e-08
1.22074e-08
1.22073e-08
1.22074e-08
3.31989e-07
1.61775e-07
1.71402e-06
2.08875e-06
7.72367e-06
2.17651e-05
1.91626e-05
1.27659e-05
1.30219e-05
1.46262e-05
8.42487e-05
0.000114964
8.41328e-05
4.1064e-05
4.36445e-08
1.22073e-08
1.22073e-08
1.07546e-05
3.57794e-05
2.06976e-05
1.45573e-08
1.45896e-08
5.72801e-08
2.29865e-06
3.38121e-06
9.05162e-06
1.69798e-05
2.44407e-05
1.08772e-05
2.02861e-05
0.000116361
0.000104674
1.13752e-05
2.42551e-08
1.22072e-08
1.22072e-08
5.84673e-06
4.33374e-05
4.26671e-05
3.79333e-05
1.88513e-05
3.96129e-06
3.41716e-08
3.46113e-08
7.53429e-06
2.96476e-05
3.57516e-05
1.15457e-05
1.88218e-05
0.000115976
7.53861e-05
1.9431e-06
7.71952e-08
7.80687e-08
6.72331e-08
2.66377e-07
1.09915e-05
4.17281e-05
4.53361e-05
4.52519e-05
3.30036e-05
7.56724e-07
3.56495e-08
4.0805e-06
3.98349e-05
3.64162e-05
1.31924e-05
2.56062e-05
0.000116269
3.57417e-05
6.05651e-08
1.16003e-07
1.66026e-07
1.63309e-07
1.25454e-07
3.83449e-08
4.51591e-06
2.65156e-05
3.28458e-05
1.87845e-05
5.55691e-07
3.57658e-08
1.92221e-06
4.00898e-05
3.59427e-05
1.37964e-05
9.2265e-05
0.000116116
1.80404e-05
5.78737e-08
6.8307e-08
1.30161e-07
1.60683e-07
1.20048e-07
3.83561e-08
3.83439e-08
1.84693e-07
7.21962e-07
2.63516e-07
1.8239e-07
3.91579e-08
2.86694e-08
2.4848e-05
3.10957e-05
1.08367e-05
9.5743e-05
6.84176e-05
1.14208e-06
4.90218e-08
1.98562e-08
3.9998e-08
6.50041e-08
5.97096e-08
4.10539e-08
6.76006e-08
9.82333e-08
9.98025e-08
1.53261e-07
1.23796e-07
5.28006e-08
2.85627e-08
1.20916e-06
2.36815e-06
4.28749e-06
6.31753e-05
6.54372e-06
5.50677e-08
5.36912e-08
7.54157e-09
1.23513e-08
2.10292e-08
3.0341e-08
3.54223e-08
6.39864e-08
1.47521e-07
1.97616e-07
2.05531e-07
1.55053e-07
4.91566e-08
2.87074e-08
2.87635e-08
3.02347e-08
4.28423e-06
8.2822e-07
5.38591e-08
5.23674e-08
1.27554e-07
3.7722e-09
5.73586e-09
9.26218e-09
1.48888e-08
2.12896e-08
2.4948e-08
4.26674e-08
8.95539e-08
1.09609e-07
9.53084e-08
5.92444e-08
3.46221e-08
2.88245e-08
1.0698e-07
1.81659e-06
1.11171e-07
5.32803e-08
1.28892e-07
1.54604e-07
1.87994e-09
2.59365e-09
3.85553e-09
6.04769e-09
9.36828e-09
1.29919e-08
1.31688e-08
1.44826e-08
2.16717e-08
4.0322e-08
5.36507e-08
3.51515e-08
3.48582e-08
2.20914e-07
3.96944e-08
6.70437e-08
7.36295e-08
1.49198e-07
1.07416e-07
1.12163e-09
1.43063e-09
1.90477e-09
2.6961e-09
4.05797e-09
6.18862e-09
9.03638e-09
1.23375e-08
1.82969e-08
3.03042e-08
3.63086e-08
2.90027e-08
2.96585e-08
2.35639e-07
4.06278e-08
5.63876e-08
4.60073e-08
9.49455e-08
6.24072e-08
7.66944e-10
9.84063e-10
1.2592e-09
1.65664e-09
2.24758e-09
3.17125e-09
4.59867e-09
6.71451e-09
1.00114e-08
1.5451e-08
2.04148e-08
1.99194e-08
2.25515e-08
1.49605e-07
3.10409e-08
2.23887e-08
2.09502e-08
6.06013e-08
6.22354e-08
5.81325e-10
7.65371e-10
9.92776e-10
1.29491e-09
1.68153e-09
2.21739e-09
2.96262e-09
4.02066e-09
5.5744e-09
8.11027e-09
1.13506e-08
1.35603e-08
1.25133e-08
1.66559e-08
1.66125e-08
1.6528e-08
5.3952e-08
1.09205e-07
9.82575e-08
4.51727e-10
6.29415e-10
8.42437e-10
1.10951e-09
1.44663e-09
1.91686e-09
2.49807e-09
3.24231e-09
4.2092e-09
5.63812e-09
7.75796e-09
9.60181e-09
8.57831e-09
8.37915e-09
3.25944e-08
1.79133e-07
3.08721e-07
2.70552e-07
9.91582e-08
3.74273e-10
5.1214e-10
7.19136e-10
9.75495e-10
1.33275e-09
1.80364e-09
2.45039e-09
3.19821e-09
4.06334e-09
5.1295e-09
6.8809e-09
9.15428e-09
8.38884e-09
8.38363e-09
2.65829e-08
2.43711e-07
3.89081e-07
3.90371e-07
2.68937e-06
2.74721e-10
4.22539e-10
5.82268e-10
8.30422e-10
1.21038e-09
1.74751e-09
2.52303e-09
3.52437e-09
4.62053e-09
5.86526e-09
8.15334e-09
1.66445e-08
2.57728e-08
8.3879e-09
8.39085e-09
6.79915e-08
3.96195e-07
4.24481e-07
3.09832e-06
2.15906e-10
2.99928e-10
4.40005e-10
6.47683e-10
1.01389e-09
1.61417e-09
2.55744e-09
3.93408e-09
5.7056e-09
7.8594e-09
1.25843e-08
3.3801e-08
1.46566e-07
4.70484e-07
3.17945e-07
6.37772e-08
1.75781e-07
3.50429e-07
3.09822e-06
1.34505e-10
2.03583e-10
3.03333e-10
4.69357e-10
7.68224e-10
1.32314e-09
2.38498e-09
4.2765e-09
7.26253e-09
1.13512e-08
2.02624e-08
5.10326e-08
1.86116e-07
2.81734e-06
7.01425e-06
2.66831e-06
1.52833e-07
2.10514e-07
2.46419e-06
8.63092e-11
1.23521e-10
1.88622e-10
3.00906e-10
5.12188e-10
9.55896e-10
1.90621e-09
3.93853e-09
7.98417e-09
1.51189e-08
2.76202e-08
5.65829e-08
1.55012e-07
2.59583e-06
7.15322e-06
7.15322e-06
4.95783e-07
1.64731e-07
1.64008e-07
4.42089e-11
6.82933e-11
1.05718e-10
1.71043e-10
3.01215e-10
5.90894e-10
1.27601e-09
2.97711e-09
7.08956e-09
1.61312e-08
3.35447e-08
6.3287e-08
1.30381e-07
7.97737e-07
5.36537e-06
7.15322e-06
6.50419e-06
1.02351e-06
1.90598e-06
2.1466e-11
3.37779e-11
5.31898e-11
8.80274e-11
1.59776e-10
3.22029e-10
7.28618e-10
1.81385e-09
4.75497e-09
1.2422e-08
3.04514e-08
6.38987e-08
1.19951e-07
2.24916e-07
1.01224e-06
6.83271e-06
6.97825e-06
5.56193e-06
3.10442e-06
9.29449e-12
1.49507e-11
2.40343e-11
4.0766e-11
7.62918e-11
1.5826e-10
3.66288e-10
9.37135e-10
2.59333e-09
7.46888e-09
2.10345e-08
5.0986e-08
1.09497e-07
1.80055e-07
2.86165e-07
1.46765e-06
4.38624e-06
2.46162e-06
7.50603e-07
3.70481e-12
5.83053e-12
9.54644e-12
1.67187e-11
3.25231e-11
6.95557e-11
1.65188e-10
4.2876e-10
1.18917e-09
3.52741e-09
1.06835e-08
2.72335e-08
7.05295e-08
1.57596e-07
1.97375e-07
1.24096e-07
2.90981e-07
8.7412e-08
9.91379e-08
1.17494e-12
1.95938e-12
3.33998e-12
6.12238e-12
1.23952e-11
2.80186e-11
7.02908e-11
1.8971e-10
5.37495e-10
1.60064e-09
4.97422e-09
1.51605e-08
3.5452e-08
1.03693e-07
1.78911e-07
1.10611e-07
8.74834e-08
8.75023e-08
1.07331e-07
3.34232e-13
5.61214e-13
9.78625e-13
1.86313e-12
3.92272e-12
9.20536e-12
2.41789e-11
6.9448e-11
2.10526e-10
6.62061e-10
2.1497e-09
7.02228e-09
2.04248e-08
6.03634e-08
1.50064e-07
1.67011e-07
1.08684e-07
8.8911e-08
1.60121e-07
7.93495e-14
1.28744e-13
2.21751e-13
4.30353e-13
9.30312e-13
2.23892e-12
6.05105e-12
1.82285e-11
5.97093e-11
2.06099e-10
7.32719e-10
2.58982e-09
7.54637e-09
2.29641e-08
6.70056e-08
1.69915e-07
1.8158e-07
1.7182e-07
1.23443e-07
)
;

boundaryField
{
    leftWall
    {
        type            zeroGradient;
    }
    rightWall
    {
        type            zeroGradient;
    }
    lowerWall
    {
        type            zeroGradient;
    }
    atmosphere
    {
        type            inletOutlet;
        inletValue      uniform 0;
        value           nonuniform List<scalar> 
46
(
2.87361e-08
1.73773e-08
6.3623e-08
0
0
0
0
0
0
0
0
0
0
0
0
0
0
0
0
0
0
0
0
0
0
0
0
0
0
0
0
9.30312e-13
2.23892e-12
6.05105e-12
1.82285e-11
5.97093e-11
2.06099e-10
7.32719e-10
2.58982e-09
7.54637e-09
2.29641e-08
6.70056e-08
1.69915e-07
1.8158e-07
1.7182e-07
1.23443e-07
)
;
    }
    defaultFaces
    {
        type            empty;
    }
}


// ************************************************************************* //
