/*--------------------------------*- C++ -*----------------------------------*\
| =========                 |                                                 |
| \\      /  F ield         | OpenFOAM: The Open Source CFD Toolbox           |
|  \\    /   O peration     | Version:  2312                                  |
|   \\  /    A nd           | Website:  www.openfoam.com                      |
|    \\/     M anipulation  |                                                 |
\*---------------------------------------------------------------------------*/
FoamFile
{
    version     2.0;
    format      ascii;
    arch        "LSB;label=32;scalar=64";
    class       volScalarField;
    location    "4";
    object      alpha.galistan;
}
// * * * * * * * * * * * * * * * * * * * * * * * * * * * * * * * * * * * * * //

dimensions      [0 0 0 0 0 0 0];

internalField   nonuniform List<scalar> 
2268
(
1
1
1
1
1
1
1
1
1
1
1
1
1
1
1
1
1
1
1
0.999998
0.999964
0.999952
0.999952
1
1
1
1
1
1
1
1
1
1
1
1
1
1
1
1
1
1
1
1
0.999996
0.999978
0.999973
1
1
1
1
1
1
1
1
1
1
1
1
1
1
1
1
0.999999
0.999998
0.999999
1
1
1
1
1
1
1
1
1
1
1
1
1
1
1
1
1
1
1
1
0.999998
1
1
1
1
1
0.999671
0.99832
0.998431
0.999558
0.999949
1
0.999992
0.999997
1
1
0.999999
0.999995
0.999999
0.999992
0.999994
1
0.999993
0.999794
0.999042
0.997596
0.997237
0.999842
0.997656
0.992619
0.763485
0.788277
0.830261
0.881422
0.932409
0.977158
0.999721
0.999733
0.999672
0.999349
0.998932
0.995859
0.98402
0.959014
0.917469
0.863713
0.804164
0.746685
0.693258
0.642117
0.591175
0.554589
0.5187
0.0721291
0.0878267
0.119492
0.169133
0.239497
0.333368
0.451022
0.560179
0.611184
0.61127
0.570423
0.487767
0.388596
0.284365
0.194175
0.126598
0.0737371
0.040233
0.0196149
0.00428389
0.000242755
0.000249279
0.0120622
-5.92072e-12
-1.96849e-12
-3.76861e-16
-3.03711e-08
-3.37099e-08
3.83301e-16
0.000585865
0.0074074
0.0139099
0.0131861
0.00362336
1.36877e-05
1.4032e-05
1.39285e-05
1.42715e-05
1.41878e-05
1.45279e-05
0.000131099
0.000141435
0.00015582
0.000236137
0.000247684
0.00025152
0.957726
0.957726
0.956996
0.957382
0.957382
0.957382
0.9534
0.954051
0.955907
0.955932
0.955845
0.955406
0.955464
0.95849
0.962728
0.963322
0.962101
0.961411
0.961364
0.860253
0.868123
0.862357
0.871385
0.888278
0.896434
0.926843
0.957802
0.957811
0.955988
0.956105
0.961603
0.96349
0.9635
0.9635
0.963497
0.963483
0.961985
0.962049
0.259928
0.170472
0.124699
0.151586
0.233086
0.338286
0.442139
0.548257
0.655877
0.695011
0.649896
0.64789
0.692154
0.701015
0.715063
0.730232
0.763079
0.775021
0.731858
0.000393123
0.000454705
0.00167721
0.000794225
0.000679486
0.000671775
0.00688244
0.0265511
0.0491404
0.135286
0.225743
0.241083
0.201232
0.219293
0.328245
0.428387
0.454699
0.459317
0.465161
0.00040045
0.0120833
0.0274492
0.0171625
0.00605219
0.00483068
0.00167998
0.000160157
0.000142013
0.0048131
0.00850842
0.00183734
0.00133559
0.00387006
0.00167444
0.0260959
0.09101
0.111835
0.120908
0.000323284
0.0408668
0.0505023
0.0503807
0.0278103
0.0109751
0.00876701
0.00383512
0.00231354
0.00577181
0.00825968
0.00272395
0.00132249
0.00131294
0.0013006
0.00129129
0.00129593
0.00137656
0.00138045
0.00310658
0.0013754
0.0286834
0.0505208
0.0503622
0.0143685
0.00438979
0.00400615
0.00479566
0.012651
0.0111068
0.0031857
0.00133489
0.0101242
0.00732464
0.00391525
0.00420033
0.00198478
0.00138406
0.00200256
0.00141716
5.09622e-06
0.0403716
0.0505208
0.0136733
0.00200963
0.00144383
0.00828747
0.0171849
0.00629265
0.00294523
0.00371386
0.0205616
0.018507
0.00657132
0.00376738
0.00184016
0.0016399
8.97601e-09
6.24336e-10
2.96643e-15
3.09576e-05
4.32898e-05
3.55007e-05
2.28257e-05
3.99904e-05
8.32945e-05
5.34012e-05
6.93467e-05
0.00010506
1.4149e-05
0.000228247
0.000698414
0.000823453
0.000405426
0.00030451
0.000758895
0.00096978
0.000674765
0.000421827
0.000254547
4.46366e-05
8.88576e-10
1.75542e-06
2.38214e-05
8.537e-05
0.000101623
0.000100237
9.28238e-05
6.4404e-05
1.75081e-05
1.59999e-05
1.55911e-05
1.44279e-05
0.000158164
0.00246363
0.00265184
0.00144288
0.000713117
0.00167422
0.00291903
0.00308525
0.00194155
0.000819016
0.00020778
0.000101591
1.79043e-06
0.000129406
0.000275352
0.000377931
0.000424358
0.00016581
7.99089e-05
0.00014521
0.000167598
0.000172328
9.09544e-05
0.00141656
0.00265184
0.00264922
0.00113153
0.00298067
0.00585171
0.00584766
0.00585146
0.00499108
0.00362799
0.000442198
0.0002146
0.000627001
0.00223835
0.00259792
0.00222856
0.000655895
7.60924e-05
7.60816e-05
0.000313593
0.000684927
0.00126728
0.00142385
0.0014202
0.000394416
8.91088e-06
0.000310802
0.00536988
0.00584703
0.0049839
0.00328021
0.00242548
0.00195016
0.000581557
0.000609514
0.00117575
0.00245497
0.00259808
0.00259802
0.00202397
0.000161944
7.66161e-05
7.6566e-05
0.00028347
0.000442523
0.000337465
1.38757e-05
8.61313e-06
8.59397e-06
0.000951877
0.00100398
0.0019985
0.000190697
0.000189875
0.000138166
0.000130941
0.000328513
0.000419709
0.000283467
0.000338025
0.000510622
0.000524237
0.000495335
0.000252561
0.000163922
0.000108998
6.57186e-05
4.15325e-05
4.15324e-05
4.84001e-05
4.88359e-05
2.33595e-05
1.79647e-07
1.83896e-07
7.14591e-05
5.26415e-05
7.18887e-05
0.00024168
0.000276924
0.000144549
0.000152547
0.00022913
0.000390645
0.000436085
0.00039923
0.000398678
0.000505093
0.000570941
0.000475435
0.000191681
4.75715e-05
0.000125242
0.000305954
0.000356047
0.000274922
7.20565e-05
2.0776e-06
5.36633e-08
5.32738e-08
5.36362e-08
3.17432e-05
0.000197087
6.26298e-05
0.00013401
0.000276998
0.000376243
0.000435029
0.000451543
0.000506705
0.000695866
0.000781142
0.000781282
0.000420461
4.27858e-05
0.000454196
0.00103766
0.00103765
0.00103766
0.000745468
0.000111563
8.05792e-07
5.72614e-08
1.11642e-07
1.16296e-07
1.16677e-07
1.08176e-09
1.07095e-06
1.96945e-10
1.96515e-10
1.96907e-10
1.96514e-10
1.96907e-10
1.96514e-10
2.35629e-05
8.70119e-05
0.000123142
4.25476e-05
9.77707e-05
0.000398104
0.00086965
0.00101196
0.000777752
0.000299476
9.27293e-05
1.35652e-05
1.20277e-05
7.35964e-06
3.33941e-06
1.08201e-09
1.08063e-09
2.88646e-09
5.19879e-09
1.22124e-08
1.72692e-09
2.17401e-10
6.00635e-08
6.11048e-08
6.22924e-08
6.1955e-08
1.02123e-06
4.13648e-08
4.16892e-08
4.13647e-08
6.49449e-06
4.64389e-06
4.84136e-05
0.000139536
6.26019e-05
2.3476e-05
2.12868e-05
1.3222e-05
1.61105e-09
2.67901e-09
6.68467e-09
2.03056e-08
4.87948e-08
8.02646e-08
4.67811e-08
2.11915e-07
3.65829e-07
4.09728e-07
3.47993e-07
3.60952e-07
8.0599e-07
2.14756e-06
2.14775e-06
1.88507e-06
1.65253e-06
7.88787e-08
5.56706e-07
2.87356e-06
2.23787e-05
2.95138e-05
2.89786e-05
1.60331e-09
3.23256e-09
6.69934e-09
4.87458e-08
1.50361e-07
2.06641e-07
1.22661e-07
4.44163e-07
4.50326e-07
2.39007e-07
1.11781e-07
1.77225e-06
1.89325e-06
1.79822e-06
1.81809e-06
1.75036e-06
5.12824e-07
6.3641e-08
9.58592e-11
9.18504e-11
9.78395e-11
2.13183e-08
1.98985e-08
1.5163e-09
3.40628e-09
1.22399e-08
7.11113e-08
2.06484e-07
2.06311e-07
1.00465e-07
8.07517e-08
1.1111e-07
7.58183e-08
3.93551e-08
3.93213e-08
8.0546e-08
3.40561e-08
1.3617e-08
8.52319e-11
7.96442e-11
9.44617e-11
8.74461e-11
9.86883e-11
7.53801e-08
2.36777e-07
3.4457e-07
1.47027e-09
3.79693e-09
1.47051e-08
5.66621e-08
9.21257e-08
3.18138e-08
2.44695e-08
8.52622e-08
1.21479e-07
7.18929e-08
5.14657e-08
1.48347e-07
4.49558e-07
2.80462e-07
9.09317e-08
2.13941e-08
2.19404e-08
3.06163e-07
1.01933e-07
9.79385e-11
3.152e-07
5.54631e-07
5.56205e-07
1.41606e-09
3.45711e-09
1.04232e-08
1.58298e-08
1.76756e-09
1.76774e-09
2.43616e-08
1.20031e-07
1.19466e-07
7.33354e-08
1.1998e-07
8.93684e-07
1.00982e-06
1.00974e-06
2.89765e-07
3.20817e-08
5.02375e-07
7.1226e-07
1.00224e-06
2.69997e-07
7.33627e-08
2.1987e-09
1.19867e-09
1.27695e-09
2.44705e-09
4.47548e-09
2.55594e-09
1.76777e-09
3.26664e-09
1.95276e-08
1.06542e-08
8.78004e-09
9.95284e-09
1.25721e-07
9.00122e-07
1.00969e-06
8.97932e-07
1.58466e-07
8.96163e-08
7.78148e-07
1.6431e-06
1.44893e-06
1.27509e-06
2.74041e-07
8.56652e-08
7.66333e-09
1.11544e-09
1.63331e-09
2.30833e-09
1.79097e-09
1.78481e-09
2.83743e-09
2.29557e-09
2.55399e-09
3.88431e-09
1.03897e-08
1.57424e-08
4.31666e-09
3.05151e-07
1.0278e-08
3.06389e-09
1.39293e-07
4.55016e-07
1.47837e-06
1.67951e-06
1.68622e-06
1.43223e-06
1.03786e-06
1.022e-07
9.43569e-10
1.06154e-09
1.42934e-09
1.42522e-09
1.63229e-09
1.88749e-09
1.93982e-09
3.14659e-09
6.51991e-09
8.37119e-09
3.14923e-09
5.51876e-10
5.49096e-10
5.51876e-10
2.56955e-09
1.21232e-09
6.21003e-10
6.23437e-10
2.26058e-07
4.28357e-07
1.14225e-06
1.24133e-06
1.00274e-06
8.5608e-10
7.52493e-10
1.02053e-09
1.1575e-09
1.4934e-09
1.70778e-09
1.61999e-09
2.09107e-09
2.74955e-09
2.20489e-09
1.1693e-09
5.74654e-10
5.46326e-10
1.11183e-09
2.38113e-09
6.21771e-10
6.18584e-10
6.21003e-10
6.22447e-10
6.24714e-10
6.27041e-10
4.99382e-07
3.52772e-07
8.09833e-10
5.19413e-10
7.23976e-10
8.49417e-10
1.06955e-09
1.19804e-09
1.19598e-09
1.1181e-09
9.03617e-10
8.23068e-10
5.9681e-10
5.75431e-10
5.41558e-10
4.43283e-10
4.04167e-10
6.3233e-10
6.16195e-10
6.64347e-10
7.40135e-10
9.58219e-10
9.73794e-10
9.69845e-10
4.72481e-09
7.76592e-10
3.51071e-10
4.56754e-10
5.31959e-10
5.88299e-10
6.18732e-10
6.0343e-10
5.18915e-10
4.96024e-10
4.42734e-10
4.22012e-10
3.75351e-10
3.21432e-10
3.04888e-10
3.13245e-10
3.34383e-10
3.57961e-10
4.20301e-10
6.55765e-10
1.20781e-09
1.92827e-09
2.19437e-09
2.48554e-09
7.53069e-10
2.24235e-10
2.52681e-10
2.61219e-10
2.58667e-10
2.40088e-10
2.00067e-10
1.86432e-10
1.65657e-10
1.5522e-10
1.51584e-10
1.37779e-10
1.21005e-10
1.08971e-10
1.05373e-10
1.07953e-10
1.1525e-10
1.3035e-10
1.7317e-10
2.80696e-10
4.71053e-10
6.66393e-10
6.4823e-10
7.39407e-10
1.56681e-10
1.40218e-10
1.2248e-10
1.03971e-10
8.54503e-11
7.42742e-11
6.1002e-11
5.3776e-11
4.57665e-11
4.06973e-11
3.75319e-11
3.29804e-11
3.06391e-11
3.02001e-11
3.13174e-11
3.39685e-11
3.84974e-11
4.69797e-11
6.34791e-11
9.06417e-11
1.28837e-10
2.01522e-10
7.32361e-10
1.03833e-10
7.36793e-11
6.40136e-11
5.99696e-11
5.57474e-11
4.60034e-11
3.37448e-11
2.21882e-11
1.45521e-11
1.09095e-11
8.98922e-12
7.94786e-12
7.30533e-12
7.5162e-12
8.40099e-12
9.9624e-12
1.22285e-11
1.52656e-11
2.0193e-11
2.90371e-11
4.57497e-11
6.21499e-11
7.32975e-10
7.77647e-11
4.92471e-11
5.23144e-11
6.31193e-11
6.75708e-11
5.88053e-11
4.28434e-11
2.54986e-11
1.29884e-11
6.51528e-12
3.4468e-12
2.19548e-12
1.76727e-12
1.78611e-12
2.16273e-12
2.82865e-12
3.78649e-12
5.08158e-12
6.89318e-12
9.62229e-12
1.35436e-11
2.29303e-11
7.3567e-10
6.63992e-11
4.34634e-11
6.38521e-11
9.53752e-11
1.10957e-10
9.42983e-11
7.09424e-11
4.16218e-11
2.02293e-11
9.19059e-12
3.84678e-12
1.56485e-12
7.27903e-13
5.10818e-13
5.64459e-13
7.67335e-13
1.10477e-12
1.62862e-12
2.41954e-12
3.61903e-12
6.03329e-12
7.70752e-12
7.54162e-10
6.56134e-11
4.9233e-11
1.00731e-10
1.48489e-10
1.8599e-10
1.40687e-10
1.12607e-10
6.60296e-11
3.22631e-11
1.47197e-11
6.08704e-12
2.2884e-12
7.88526e-13
2.84738e-13
1.73655e-13
2.0638e-13
3.18108e-13
5.14984e-13
8.16986e-13
1.26537e-12
1.8436e-12
3.32987e-12
7.68385e-10
7.65281e-11
7.13461e-11
1.45114e-10
2.32429e-10
3.32554e-10
2.83756e-10
1.6654e-10
9.43904e-11
4.71725e-11
2.19073e-11
9.26062e-12
3.5829e-12
1.22475e-12
3.65074e-13
1.12236e-13
6.30977e-14
8.4973e-14
1.495e-13
2.64146e-13
4.39322e-13
8.86629e-13
1.18562e-12
8.03956e-10
9.18292e-11
1.25154e-10
3.47475e-10
5.78392e-10
6.00862e-10
4.71334e-10
2.31818e-10
1.19768e-10
6.21421e-11
2.95644e-11
1.27961e-11
5.16755e-12
1.8525e-12
5.73072e-13
1.5187e-13
4.01648e-14
2.4791e-14
4.08926e-14
8.05115e-14
1.60088e-13
2.4103e-13
5.17306e-13
8.44187e-10
1.14659e-10
1.98913e-10
6.95925e-10
1.06725e-09
1.14194e-09
7.19969e-10
2.81477e-10
1.38294e-10
7.30865e-11
3.6004e-11
1.58946e-11
6.70491e-12
2.54086e-12
8.45616e-13
2.34753e-13
5.33997e-14
1.32902e-14
1.23149e-14
2.4149e-14
4.69264e-14
1.2326e-13
1.84528e-13
9.41095e-10
1.42692e-10
3.22399e-10
1.03003e-09
1.42669e-09
1.50721e-09
1.08868e-09
4.57475e-10
1.42416e-10
7.65221e-11
3.96659e-11
1.77939e-11
7.75649e-12
3.09671e-12
1.10531e-12
3.3841e-13
8.19833e-14
1.68537e-14
5.25819e-15
8.01393e-15
1.97443e-14
3.73415e-14
9.4971e-14
9.9951e-10
1.84729e-10
4.85587e-10
1.20339e-09
1.51842e-09
1.52608e-09
1.24686e-09
5.55976e-10
1.68044e-10
6.98159e-11
3.91046e-11
1.76998e-11
7.95281e-12
3.309e-12
1.2649e-12
4.23614e-13
1.17171e-13
2.4041e-14
4.22999e-15
2.76515e-15
6.06592e-15
2.37281e-14
4.38027e-14
1.13884e-09
2.33434e-10
5.9637e-10
1.2436e-09
1.52912e-09
1.52862e-09
1.29614e-09
5.55098e-10
1.76935e-10
6.68001e-11
3.5077e-11
1.58454e-11
7.25098e-12
3.10902e-12
1.24995e-12
4.58084e-13
1.42964e-13
3.48793e-14
6.394e-15
1.48057e-15
2.69636e-15
6.1478e-15
2.54321e-14
1.22053e-09
2.66487e-10
5.60825e-10
1.21357e-09
1.40554e-09
1.45975e-09
1.19338e-09
4.99555e-10
1.76857e-10
6.27262e-11
2.88826e-11
1.28538e-11
5.92537e-12
2.57804e-12
1.06793e-12
4.19484e-13
1.48186e-13
4.08505e-14
8.58064e-15
1.23472e-15
8.63353e-16
4.79335e-15
1.05141e-14
1.48182e-09
3.27317e-10
4.39296e-10
9.24124e-10
9.64136e-10
1.02722e-09
9.81377e-10
4.62207e-10
1.53231e-10
5.34368e-11
2.18363e-11
9.50384e-12
4.35446e-12
1.88685e-12
7.80483e-13
3.22437e-13
1.26669e-13
4.07794e-14
9.55248e-15
1.59432e-15
4.05373e-16
8.23378e-16
5.0164e-15
1.61512e-09
4.02783e-10
3.59548e-10
6.4335e-10
7.34931e-10
8.40451e-10
7.37245e-10
4.26649e-10
1.32351e-10
4.12003e-11
1.50101e-11
6.32795e-12
2.8747e-12
1.21465e-12
4.8626e-13
2.02371e-13
8.65297e-14
3.26446e-14
9.24053e-15
1.7303e-15
3.00995e-16
5.15147e-16
1.56691e-15
1.94403e-09
6.28765e-10
3.59392e-10
5.53029e-10
6.16455e-10
7.87048e-10
6.30106e-10
3.35516e-10
1.05762e-10
2.7991e-11
9.11951e-12
3.73568e-12
1.69164e-12
6.90872e-13
2.59672e-13
1.0307e-13
4.55556e-14
1.95711e-14
6.84378e-15
1.5826e-15
2.01674e-16
8.0256e-17
5.53261e-16
2.12537e-09
8.75235e-10
5.22847e-10
5.82368e-10
6.15289e-10
6.80475e-10
5.04977e-10
2.46336e-10
7.35856e-11
1.58387e-11
4.68725e-12
1.91578e-12
8.75622e-13
3.47736e-13
1.20151e-13
4.25275e-14
1.77777e-14
8.19986e-15
3.48637e-15
1.06369e-15
1.73916e-16
4.21742e-17
1.04686e-16
2.20937e-09
1.17581e-09
7.96714e-10
6.6177e-10
6.6148e-10
5.87494e-10
3.60279e-10
1.54711e-10
4.296e-11
6.75892e-12
1.88327e-12
8.15792e-13
3.84635e-13
1.52163e-13
4.87303e-14
1.45148e-14
5.064e-15
2.22314e-15
1.13242e-15
4.81263e-16
1.1874e-16
1.43824e-17
2.23835e-17
2.20181e-09
1.48035e-09
9.59244e-10
7.42441e-10
6.69932e-10
4.60594e-10
2.24813e-10
8.11058e-11
1.88496e-11
2.38011e-12
5.81523e-13
2.71113e-13
1.37557e-13
5.49278e-14
1.67018e-14
4.17135e-15
1.08415e-15
3.84949e-16
2.15304e-16
1.42096e-16
4.91599e-17
6.53726e-18
4.29007e-18
2.10248e-09
1.50363e-09
9.8668e-10
8.33549e-10
5.63669e-10
2.83536e-10
1.06585e-10
2.82572e-11
4.63027e-12
4.49452e-13
1.14305e-13
5.91969e-14
3.33891e-14
1.39398e-14
4.09368e-15
8.76302e-16
1.57217e-16
3.71145e-17
2.46517e-17
2.62173e-17
1.57061e-17
3.27676e-18
1.01993e-18
2.14369e-09
1.58956e-09
1.07506e-09
5.87246e-10
2.40505e-10
8.06133e-11
2.21693e-11
3.8853e-12
3.92094e-13
2.578e-14
1.08309e-14
6.47497e-15
4.20492e-15
1.85914e-15
5.45401e-16
9.94833e-17
1.22477e-17
1.73451e-18
1.68295e-18
3.30861e-18
4.08288e-18
1.52787e-18
3.31982e-19
0.000293415
0.00033444
0.000403937
0.000870858
0.00031227
0.000895142
0.00258588
0.00258664
0.00268837
0.002478
0.00223916
0.00258459
0.0011988
0.00061253
5.90989e-05
8.54834e-05
5.08082e-05
4.6168e-05
6.23215e-05
0.000644808
0.000250853
0.000184248
7.31536e-05
1.16308e-05
0.000367356
0.00036746
0.000191184
1.32884e-05
4.65389e-05
0.000336721
0.000138069
3.41206e-06
7.67716e-07
7.87394e-07
7.67716e-07
3.16667e-06
6.198e-06
2.75809e-06
1.33649e-06
1.33559e-06
1.0871e-05
7.44436e-07
8.2175e-07
2.00941e-06
8.8291e-08
1.10883e-07
1.24943e-08
7.02119e-09
1.72805e-07
5.82917e-10
1.48772e-07
1.76243e-07
2.09621e-07
6.04898e-10
6.32094e-10
5.60704e-09
1.14236e-09
1.07629e-09
8.83052e-09
5.90772e-08
1.85107e-09
1.79956e-09
9.32065e-10
2.53348e-08
1.67684e-09
9.51258e-10
9.41781e-10
8.53133e-10
2.17908e-09
2.15522e-09
5.0493e-09
5.94912e-09
2.09435e-09
3.76872e-09
1.37558e-08
1.63373e-08
2.3507e-08
2.25783e-08
1.90004e-08
1.60414e-08
3.53025e-09
5.39881e-09
5.95174e-09
4.54652e-09
6.86886e-10
8.44427e-10
9.87327e-10
1.07859e-09
2.32242e-10
2.52899e-10
2.79694e-10
3.06502e-10
8.22032e-11
9.45051e-11
1.00741e-10
1.12476e-10
2.87425e-11
3.26003e-11
4.00139e-11
4.44054e-11
1.13381e-11
1.42365e-11
1.57446e-11
1.90277e-11
4.43454e-12
5.32261e-12
7.28302e-12
8.36411e-12
1.84857e-12
2.43736e-12
2.81666e-12
3.84406e-12
7.38245e-13
9.27307e-13
1.35736e-12
1.56366e-12
3.35481e-13
4.67749e-13
5.64447e-13
8.06688e-13
1.59359e-13
2.21759e-13
3.37793e-13
3.9403e-13
9.46795e-14
1.45779e-13
1.90629e-13
2.97658e-13
4.67526e-14
6.99867e-14
1.33409e-13
1.78976e-13
3.17916e-14
4.73374e-14
7.31352e-14
1.3422e-13
1.06864e-14
1.74587e-14
3.74019e-14
5.85315e-14
5.04058e-15
8.58193e-15
1.48248e-14
3.15323e-14
1.45645e-15
2.75849e-15
6.36407e-15
9.99782e-15
3.97713e-16
7.03283e-16
1.31048e-15
3.14825e-15
7.00164e-17
1.38581e-16
2.84539e-16
5.05562e-16
1.30855e-17
2.47832e-17
4.8627e-17
1.25582e-16
2.16922e-18
4.22315e-18
9.50066e-18
1.84686e-17
3.84862e-19
7.2827e-19
1.40629e-18
2.44272e-18
0.000986433
8.73171e-05
5.03953e-06
0.00828224
0.0138646
0.00456495
0.00157515
0.00140398
0.0193976
0.022003
0.0145497
0.0113071
0.0209193
0.0210403
0.0138001
0.0018924
0.00188419
0.00309792
0.00161884
0.00214995
0.000180806
5.02887e-06
5.03742e-06
5.02681e-06
0.00344245
0.00149414
0.00490215
0.0208794
0.0220045
0.0220069
0.0214008
0.0213591
0.0148191
0.00722974
0.00534114
0.00683284
0.00914777
0.00606586
0.00258714
0.000950047
5.30173e-05
0.000133907
0.00817179
0.0110458
0.0104116
0.00408827
0.00709046
0.0132714
0.014449
0.0130545
0.0153296
0.0114116
0.0108105
0.0107214
0.010704
0.0107275
0.0107275
0.00244592
0.00159231
0.000237545
0.00465155
0.011047
0.0110469
0.0102283
0.00154458
7.76592e-05
0.00444281
0.00364905
0.00237463
0.00227305
0.00574607
0.00593511
0.00781573
0.00902027
0.00868168
0.0101764
0.00151119
0.00232422
0.00081131
0.000807428
0.00306609
0.0109965
0.00905527
0.00168842
7.83407e-05
0.00139697
0.0019201
0.00134196
0.00141651
0.000800409
0.000597078
0.000809216
0.00165455
0.002882
0.00366052
4.39356e-05
0.00249554
0.00103331
0.000606179
0.000775801
0.00221929
0.00225498
0.000749533
9.87743e-05
4.82767e-05
0.000181905
0.000394154
0.00078977
0.000564089
0.000510969
0.000518714
0.000532008
0.00152745
0.00236819
3.98829e-06
0.00217526
0.00289887
0.000731254
0.000463097
0.000151971
4.48831e-05
4.51634e-05
4.18609e-05
4.18544e-05
4.18651e-05
4.18642e-05
4.5432e-05
0.000194189
0.000426504
0.00114695
0.00218508
0.00596768
0.00250475
3.68896e-06
0.000433292
0.00340104
0.00349628
0.00104161
0.000232222
5.80662e-05
4.7453e-05
0.00014062
0.000319565
0.00106008
0.00174165
0.00141847
0.00113664
0.00157334
0.00387968
0.00675516
0.00675514
0.00378679
6.57897e-06
6.53471e-06
0.000832061
0.00447767
0.00481269
0.00294229
0.000157058
4.77879e-05
0.00113739
0.00377711
0.00432265
0.00432672
0.00432934
0.00433031
0.00478179
0.00673566
0.00675514
0.00675515
0.00675513
9.85373e-06
9.92272e-06
8.41024e-07
8.71317e-07
0.00245158
0.00534568
0.00533296
0.00313088
0.00217867
0.00384623
0.0040527
0.00337025
0.00253358
0.00199091
0.00180816
0.00198777
0.00349298
0.00540054
0.00459609
7.11572e-06
9.07898e-06
4.54835e-06
1.30537e-06
4.69921e-07
0.000183028
0.00255713
0.00290443
0.0012745
0.000831769
0.0005701
0.000173399
1.83332e-05
4.48833e-06
4.84372e-06
5.68616e-06
8.64087e-06
0.00020879
0.000117414
8.70512e-07
1.03932e-06
3.02396e-06
1.15784e-06
4.71115e-07
2.36593e-06
3.44899e-05
0.000378651
3.94631e-05
4.81216e-07
1.92624e-07
1.69183e-07
5.22558e-06
1.27223e-05
1.41097e-05
1.00473e-05
8.37762e-06
1.88011e-05
2.91617e-05
2.9501e-08
3.21869e-08
9.74234e-07
1.33128e-06
1.67066e-06
3.59899e-06
3.43437e-06
6.16442e-07
2.33243e-07
2.24051e-07
2.00217e-07
9.14852e-06
1.53038e-05
1.53501e-05
1.46656e-05
5.62832e-06
3.27048e-06
4.24885e-06
3.58717e-06
1.93046e-07
2.00059e-06
2.03474e-06
5.87825e-07
4.80784e-07
7.9577e-07
1.06088e-06
3.4255e-07
2.58356e-07
8.73081e-07
8.14592e-06
1.2642e-05
1.24359e-05
6.55098e-06
1.16023e-06
6.45731e-08
5.65425e-08
1.51408e-06
3.53535e-06
2.8134e-07
5.56821e-06
6.79283e-06
3.31594e-07
6.13375e-09
7.00037e-09
3.77151e-07
7.80794e-07
6.29853e-07
1.97085e-06
1.16644e-05
1.16525e-05
6.07757e-06
4.80492e-09
4.74278e-09
2.16203e-08
6.68473e-07
1.69817e-06
5.13946e-06
1.66776e-07
5.05629e-06
6.81608e-06
5.52433e-06
1.76262e-07
6.13372e-09
2.17396e-08
2.95492e-07
4.98564e-07
1.52809e-06
2.94503e-06
1.91075e-06
1.10329e-08
4.86662e-09
1.44219e-08
6.16813e-08
2.16377e-07
1.61611e-06
5.13989e-06
1.64751e-09
6.36189e-07
5.11977e-06
6.38714e-06
4.55401e-06
1.24354e-06
5.9677e-09
5.94062e-09
2.4568e-08
9.93541e-08
3.5686e-09
4.46735e-09
4.66789e-09
5.35617e-09
5.82857e-09
2.89019e-08
2.18042e-07
5.43774e-06
5.4321e-06
5.59925e-09
5.24535e-09
1.39821e-07
1.63984e-06
3.11881e-06
2.53557e-06
5.74886e-07
6.30756e-08
8.96991e-09
9.81626e-09
2.22061e-07
5.14823e-07
3.3613e-07
8.06432e-08
1.00637e-08
9.96778e-09
1.52753e-08
6.19355e-06
4.78932e-06
1.63119e-08
5.18196e-09
1.43577e-09
3.38692e-09
3.86369e-07
9.9595e-07
8.38134e-07
4.20899e-07
7.04763e-07
1.28328e-06
1.96553e-06
2.20244e-06
1.17245e-06
8.33392e-07
3.9453e-07
1.20794e-08
4.8565e-07
6.21407e-06
1.22974e-06
9.77751e-09
6.49421e-09
2.64357e-09
7.88608e-10
5.73204e-09
3.71883e-07
3.30428e-07
1.37755e-07
3.40391e-07
1.68387e-06
2.2893e-06
2.28957e-06
2.27846e-06
1.46476e-06
6.85844e-07
1.3125e-09
2.55678e-07
5.12403e-06
7.09424e-07
3.13139e-09
3.04319e-09
2.52828e-09
8.35629e-10
4.43579e-09
2.44141e-09
9.60904e-08
4.05028e-08
1.95822e-08
2.29351e-07
1.43434e-06
2.2898e-06
2.28995e-06
1.75899e-06
3.00862e-07
8.5758e-10
2.65102e-06
1.76629e-06
2.13847e-07
1.16699e-09
1.47323e-09
1.44934e-09
7.89722e-10
3.72359e-09
2.43826e-09
2.43275e-09
2.88621e-09
8.88108e-09
2.20002e-08
8.68678e-08
8.9271e-07
9.42948e-07
1.04024e-06
2.1409e-07
4.71922e-11
4.351e-06
2.26465e-06
2.13118e-07
3.50819e-10
4.98785e-10
6.42597e-10
7.62685e-10
1.73282e-09
2.44414e-09
6.40785e-09
1.08891e-08
1.88413e-08
1.65912e-08
1.44506e-09
1.41474e-09
1.41474e-09
1.18555e-08
1.04945e-07
8.19736e-14
4.35265e-06
3.07038e-06
2.24039e-07
1.27786e-10
1.80969e-10
2.8705e-10
4.79561e-10
8.53811e-10
1.72722e-09
5.04257e-09
1.02137e-08
1.51358e-08
1.00236e-08
1.54078e-09
1.41476e-09
1.41474e-09
1.53213e-09
4.50584e-09
-4.55694e-12
3.12656e-06
1.9892e-06
1.25374e-07
5.13304e-11
7.35068e-11
1.16519e-10
2.02306e-10
3.52472e-10
5.36571e-10
1.02267e-09
2.61504e-09
2.89798e-09
1.7577e-09
1.41741e-09
1.83291e-09
3.26484e-09
8.20873e-09
4.13766e-09
6.8346e-08
2.08428e-07
1.5369e-07
7.23064e-08
2.23247e-11
3.29669e-11
5.13034e-11
8.34177e-11
1.36901e-10
2.05916e-10
2.29469e-10
3.01504e-10
4.37492e-10
8.51816e-10
1.35988e-09
2.66926e-09
4.95287e-09
1.02045e-08
4.12158e-09
1.57722e-07
3.7955e-08
3.37928e-08
1.00075e-08
1.04149e-11
1.61578e-11
2.60511e-11
4.28957e-11
7.07997e-11
1.13329e-10
1.71037e-10
2.5643e-10
4.12209e-10
7.38219e-10
1.24333e-09
2.64737e-09
3.79072e-09
8.81997e-09
4.19188e-09
1.66066e-07
5.19499e-08
7.15461e-09
7.15483e-09
4.64087e-12
7.62493e-12
1.27641e-11
2.21054e-11
3.81739e-11
6.50346e-11
1.08638e-10
1.80237e-10
3.06973e-10
5.53562e-10
1.03129e-09
2.07457e-09
2.73864e-09
5.67695e-09
4.95868e-09
1.02752e-07
2.63211e-08
7.31281e-09
8.27215e-09
2.08e-12
3.51272e-12
6.0283e-12
1.07631e-11
1.91002e-11
3.42486e-11
6.10065e-11
1.08638e-10
1.96133e-10
3.76612e-10
7.56408e-10
1.50358e-09
2.02377e-09
2.28893e-09
9.6807e-09
1.0594e-08
1.23608e-08
7.20449e-09
9.51906e-09
9.84065e-13
1.76979e-12
3.07712e-12
5.38687e-12
9.50227e-12
1.77662e-11
3.28905e-11
6.19876e-11
1.18531e-10
2.34652e-10
4.89564e-10
1.01395e-09
1.60687e-09
1.93516e-09
1.04934e-08
6.80028e-09
6.30563e-09
6.68394e-09
7.29515e-09
6.18235e-13
1.05489e-12
1.89177e-12
3.23746e-12
5.5827e-12
9.75102e-12
1.82739e-11
3.513e-11
6.97659e-11
1.43123e-10
2.95004e-10
5.85694e-10
1.0178e-09
1.54102e-09
7.99694e-09
6.30563e-09
6.30563e-09
6.30563e-09
1.25001e-08
3.94016e-13
8.1252e-13
1.39442e-12
2.41492e-12
4.12759e-12
6.76223e-12
1.10511e-11
1.81373e-11
3.25217e-11
6.77934e-11
1.4309e-10
2.65499e-10
4.6931e-10
1.12759e-09
6.15733e-09
3.00959e-08
6.30563e-09
6.30563e-09
1.79014e-08
3.18099e-13
5.76189e-13
1.09202e-12
1.96103e-12
3.53522e-12
6.04169e-12
9.87912e-12
1.56642e-11
2.49039e-11
4.1053e-11
7.34858e-11
1.33474e-10
2.03168e-10
4.03033e-10
4.31937e-09
6.41392e-08
1.25671e-07
6.30563e-09
7.27773e-08
1.85142e-13
3.96434e-13
7.97172e-13
1.56496e-12
2.97146e-12
5.37709e-12
9.40388e-12
1.57242e-11
2.53344e-11
3.97756e-11
6.30488e-11
1.03585e-10
1.5558e-10
1.55575e-10
2.66605e-09
5.75999e-08
1.71681e-07
1.46137e-07
1.64937e-07
1.11473e-13
2.32015e-13
5.12846e-13
1.1034e-12
2.26995e-12
4.51898e-12
8.5212e-12
1.52999e-11
2.61018e-11
4.24743e-11
6.74957e-11
1.0704e-10
1.61382e-10
1.65273e-10
3.67373e-09
3.84506e-08
1.72938e-07
1.72053e-07
1.72907e-07
4.69596e-14
1.16067e-13
2.80371e-13
6.61598e-13
1.52016e-12
3.36519e-12
7.02331e-12
1.39116e-11
2.60725e-11
4.60172e-11
7.5931e-11
1.20283e-10
1.91121e-10
2.90979e-10
1.34062e-09
2.27436e-08
5.74565e-08
1.73103e-07
1.21103e-07
1.74047e-14
4.69175e-14
1.25662e-13
3.34658e-13
8.74407e-13
2.17471e-12
5.12672e-12
1.13175e-11
2.33332e-11
4.51914e-11
8.30746e-11
1.42016e-10
2.31418e-10
3.97442e-10
7.70012e-10
3.96085e-09
2.66111e-08
9.99756e-08
1.09254e-08
5.15897e-15
1.5171e-14
4.54189e-14
1.38012e-13
4.15599e-13
1.18789e-12
3.1907e-12
7.93407e-12
1.81875e-11
3.87453e-11
7.7691e-11
1.4367e-10
2.53283e-10
4.36638e-10
7.55232e-10
1.12356e-09
4.72782e-09
2.16723e-09
1.18011e-09
1.29022e-15
3.78258e-15
1.25714e-14
4.4158e-14
1.56298e-13
5.19579e-13
1.61912e-12
4.63441e-12
1.19283e-11
2.81635e-11
6.18401e-11
1.24256e-10
2.38176e-10
4.30684e-10
7.36693e-10
1.11024e-09
1.11238e-09
1.11921e-09
1.17787e-09
2.25117e-16
7.39127e-16
2.74143e-15
1.11139e-14
4.60591e-14
1.83238e-13
6.75175e-13
2.24191e-12
6.63053e-12
1.75995e-11
4.25846e-11
9.55258e-11
1.9354e-10
3.86197e-10
6.7248e-10
1.06869e-09
1.29914e-09
1.29508e-09
1.16165e-09
3.36815e-17
1.06348e-16
4.09418e-16
1.86115e-15
9.09632e-15
4.38961e-14
1.96236e-13
7.83602e-13
2.76004e-12
8.57921e-12
2.37656e-11
5.982e-11
1.37737e-10
2.98996e-10
5.89292e-10
9.92814e-10
1.30978e-09
1.34351e-09
1.02924e-09
4.08504e-18
1.10026e-17
3.88588e-17
1.84068e-16
1.04284e-15
6.21951e-15
3.46712e-14
1.71867e-13
7.46355e-13
2.83661e-12
9.4605e-12
2.78785e-11
7.01458e-11
1.71365e-10
3.79789e-10
7.09856e-10
1.04083e-09
1.11838e-09
6.65865e-10
)
;

boundaryField
{
    leftWall
    {
        type            zeroGradient;
    }
    rightWall
    {
        type            zeroGradient;
    }
    lowerWall
    {
        type            zeroGradient;
    }
    atmosphere
    {
        type            inletOutlet;
        inletValue      uniform 0;
        value           nonuniform List<scalar> 
46
(
2.14369e-09
1.58956e-09
1.07506e-09
0
0
0
0
0
0
0
0
0
0
0
0
0
0
0
0
0
0
0
0
0
0
0
0
0
0
0
0
1.04284e-15
6.21951e-15
3.46712e-14
1.71867e-13
7.46355e-13
2.83661e-12
9.4605e-12
2.78785e-11
7.01458e-11
1.71365e-10
3.79789e-10
7.09856e-10
1.04083e-09
1.11838e-09
6.65865e-10
)
;
    }
    defaultFaces
    {
        type            empty;
    }
}


// ************************************************************************* //
