/*--------------------------------*- C++ -*----------------------------------*\
| =========                 |                                                 |
| \\      /  F ield         | OpenFOAM: The Open Source CFD Toolbox           |
|  \\    /   O peration     | Version:  2312                                  |
|   \\  /    A nd           | Website:  www.openfoam.com                      |
|    \\/     M anipulation  |                                                 |
\*---------------------------------------------------------------------------*/
FoamFile
{
    version     2.0;
    format      ascii;
    arch        "LSB;label=32;scalar=64";
    class       volScalarField;
    location    "4";
    object      alpha.water;
}
// * * * * * * * * * * * * * * * * * * * * * * * * * * * * * * * * * * * * * //

dimensions      [0 0 0 0 0 0 0];

internalField   nonuniform List<scalar> 
2268
(
3.71908e-07
3.21376e-07
7.07451e-08
4.00848e-09
2.02608e-09
4.968e-10
1.60618e-10
1.23472e-10
7.59478e-11
5.98749e-11
5.37699e-11
5.15502e-11
5.43047e-11
6.28439e-11
7.7577e-11
1.04952e-10
1.36935e-10
1.87279e-10
2.66769e-10
4.99578e-10
9.41981e-10
1.31969e-09
1.4315e-09
3.30118e-07
2.57821e-07
4.59789e-08
2.73922e-09
3.44928e-10
2.6347e-10
1.80303e-10
1.28035e-10
9.89634e-11
9.22163e-11
8.8733e-11
8.35294e-11
8.91676e-11
1.01435e-10
1.22085e-10
1.46988e-10
1.87365e-10
2.88503e-10
5.00853e-10
8.35511e-10
1.36481e-09
1.66656e-09
1.66293e-09
7.58221e-08
3.50648e-08
1.53921e-08
3.08404e-09
3.33269e-10
1.89848e-10
2.07749e-10
4.04256e-10
6.14068e-10
6.19575e-10
3.39896e-10
1.62699e-10
1.30236e-10
1.38572e-10
1.45803e-10
2.1198e-10
8.0566e-10
1.74977e-09
1.71211e-09
7.4733e-10
9.99822e-10
1.30298e-09
1.07608e-09
1.15899e-08
5.97382e-09
2.48234e-09
5.94447e-10
1.41142e-10
7.54638e-11
6.24333e-10
1.60221e-09
3.10242e-09
3.30052e-09
2.22285e-09
3.33311e-10
5.24246e-11
7.12365e-11
7.17732e-11
2.83612e-10
2.09827e-09
4.07849e-09
2.53774e-09
7.49198e-10
5.88416e-08
1.0672e-08
1.07611e-09
3.69899e-18
9.91231e-19
1.86809e-19
1.28529e-20
9.71243e-22
1.09912e-21
1.23145e-11
1.1918e-10
2.32297e-10
9.51985e-11
1.2564e-21
-1.18279e-21
3.2276e-21
2.02915e-19
8.19366e-09
1.99932e-21
5.0906e-20
-1.26299e-14
-9.37497e-15
1.6855e-07
0.000157443
0.000690094
0.00215846
0.228099
0.203182
0.161554
0.114099
0.0669186
0.0227806
9.03942e-23
1.816e-22
-9.24719e-27
-1.75818e-20
0.000360108
0.00397049
0.0159566
0.0409701
0.0824915
0.135248
0.175842
0.190114
0.216384
0.267975
0.374676
0.43087
0.474339
0.922544
0.905436
0.87281
0.824514
0.757073
0.665211
0.548679
0.439307
0.387996
0.387623
0.428503
0.511603
0.609767
0.707179
0.79504
0.8647
0.888179
0.861675
0.850911
0.86119
0.86969
0.934776
0.959782
0.999645
0.999464
0.998382
0.997757
0.99787
0.998677
0.998968
0.992368
0.985838
0.98642
0.995814
0.999514
0.996838
0.980857
0.973182
0.975878
0.976162
0.983987
0.982826
0.933109
0.8697
0.901047
0.959765
0.014207
0.0132387
0.0124989
0.00924503
0.00510233
0.00583102
0.0106314
0.0132748
0.0138296
0.0138045
0.0138923
0.0143314
0.0143308
0.0121495
0.00791197
0.00728793
0.00501002
0.00572368
0.00577132
0.0879649
0.0132298
0.0212791
0.0140452
0.00233896
0.00210196
0.0021021
0.00216226
0.00227338
0.00216578
0.00216662
0.00312397
0.00313668
0.00203316
0.00151866
0.00158841
0.00198771
0.00244459
0.00356367
0.438602
0.535704
0.620007
0.573432
0.392504
0.262031
0.15703
0.12276
0.110369
0.0466955
0.0131566
0.00139138
0.00136228
0.0013584
0.00136045
0.00135848
0.00138333
0.00138549
0.00138767
0.697315
0.900643
0.965333
0.97183
0.971895
0.969628
0.737919
0.615625
0.615221
0.67875
0.271382
0.236878
0.322253
0.331809
0.139181
0.0385462
0.0119648
0.0117247
0.00633218
0.696237
0.876923
0.921449
0.957919
0.971704
0.971651
0.942637
0.746312
0.791297
0.929152
0.915017
0.625324
0.656343
0.826873
0.758132
0.611481
0.46168
0.451205
0.348957
0.696802
0.913051
0.902341
0.891953
0.928929
0.964767
0.970494
0.968091
0.968349
0.960148
0.947961
0.910929
0.909603
0.870377
0.909497
0.909279
0.90379
0.909891
0.632765
0.906732
0.985256
0.947895
0.891696
0.861402
0.931584
0.970814
0.970811
0.960318
0.879648
0.896123
0.910467
0.87649
0.705546
0.835656
0.909879
0.909929
0.909878
0.745593
0.990905
0.991579
0.980668
0.90202
0.845238
0.935455
0.970811
0.970815
0.898081
0.614448
0.742869
0.908161
0.717892
0.639732
0.843485
0.909852
0.909985
0.90912
0.666439
0.999692
0.999692
0.999693
0.999693
0.999693
0.999685
0.999678
0.999693
0.999693
0.999692
0.999692
0.999692
0.994073
0.961109
0.956397
0.956226
0.975217
0.983987
0.983987
0.983987
0.970854
0.935375
0.916674
0.999669
0.999444
0.999693
0.999693
0.999694
0.999694
0.999694
0.999694
0.999693
0.999693
0.999692
0.999692
0.999692
0.999576
0.987967
0.953311
0.97223
0.983979
0.982407
0.966905
0.960859
0.970923
0.984609
0.993423
0.998734
0.997785
0.995866
0.996035
0.993815
0.992034
0.987474
0.978635
0.970731
0.970316
0.970383
0.953318
0.918574
0.905627
0.901033
0.894733
0.833582
0.718795
0.622971
0.533739
0.498071
0.502966
0.822302
0.881181
0.901069
0.880529
0.829693
0.765107
0.73765
0.698392
0.647617
0.576166
0.501368
0.399726
0.280959
0.21477
0.220857
0.264338
0.237192
0.111626
0.0395976
0.00257388
5.01212e-11
-2.6137e-13
8.62777e-13
0.152209
0.17463
0.160725
0.137526
0.11571
0.0768666
0.0549507
0.0242114
0.00185262
6.28516e-11
2.73182e-20
6.73726e-11
3.91108e-11
1.43288e-06
4.81407e-11
1.93681e-21
1.20662e-24
-5.92103e-24
2.27383e-22
1.17638e-05
1.7188e-05
5.0382e-11
6.40993e-16
-2.77926e-10
-1.14147e-11
3.2399e-22
-1.14766e-21
-1.38468e-20
-1.44102e-13
3.10971e-21
-8.02447e-08
4.41305e-05
6.34641e-05
9.69776e-05
0.000128345
0.000128518
0.000119534
0.000120173
4.1457e-05
4.54153e-06
9.32379e-05
0.000118569
0.000204268
0.000268964
0.00016368
9.58278e-05
0.000339218
0.000414911
0.000636166
0.00076486
0.000764854
0.000764864
0.00073105
0.000653154
0.00107378
0.00208101
0.00304342
0.00370934
0.00395043
0.00359
0.00247514
0.0014543
0.000536315
0.000531745
0.000511071
0.00157966
0.00432821
0.00356359
0.00173048
0.000264741
0.000466276
0.000627998
0.000637834
0.000676003
0.000691963
0.000660598
0.00036978
0.000157698
0.00399839
0.0087296
0.00872966
0.00872935
0.00872862
0.00872884
0.00782342
0.00134727
0.000470963
0.00482843
0.0146201
0.0167655
0.0167888
0.0133628
1.13054e-06
4.41445e-06
5.62514e-10
5.62503e-10
5.62509e-10
5.62491e-10
5.62506e-10
5.62491e-10
5.62506e-10
5.62491e-10
0.000817326
0.00514809
0.00811581
0.00705613
0.00594422
0.00286229
1.34318e-07
1.12388e-05
0.00745317
0.0159612
0.0165037
0.0131527
0.0106693
1.63674e-08
2.71348e-08
6.85931e-08
5.6852e-08
6.09879e-08
1.41916e-08
6.01981e-09
5.25788e-09
5.62491e-10
1.6887e-08
1.73468e-08
4.04848e-05
6.31398e-07
6.30427e-07
6.32535e-07
1.02693e-06
1.48486e-06
1.90677e-07
1.24462e-07
0.00147943
0.000322352
3.43522e-07
1.12605e-12
2.09988e-08
8.31201e-08
1.07019e-07
1.06737e-07
1.36539e-07
7.73392e-08
1.01721e-07
1.18872e-07
1.92829e-09
5.6779e-10
1.96342e-08
1.08283e-06
8.6372e-07
5.66484e-06
8.04326e-06
8.7356e-06
8.91569e-06
8.24235e-06
3.19065e-07
-1.04754e-24
1.04145e-24
2.91363e-08
1.42567e-08
1.54338e-08
2.09238e-08
7.06092e-08
6.31736e-08
1.04867e-07
1.36507e-06
5.73713e-06
6.48893e-06
1.46421e-06
5.68118e-10
2.11131e-09
4.6028e-06
7.6688e-06
8.22603e-06
8.31981e-06
7.70018e-06
1.8413e-06
2.6695e-08
2.28522e-08
1.38729e-07
3.2494e-07
3.25786e-07
1.54953e-07
9.65476e-09
5.31044e-09
9.89084e-09
2.33958e-08
1.30188e-07
4.8712e-06
9.24726e-06
9.19248e-06
5.64422e-06
2.10248e-07
2.4598e-06
4.16782e-06
1.73089e-07
1.62078e-07
1.20113e-07
7.30896e-08
7.21945e-08
4.14271e-07
2.30788e-07
2.21332e-07
1.77163e-07
1.53946e-07
1.11203e-07
7.47584e-09
5.34194e-09
1.1629e-08
5.43537e-08
2.26359e-07
4.93917e-06
9.24617e-06
8.65281e-06
7.38273e-06
8.19146e-06
1.45615e-05
1.45197e-05
7.91865e-06
1.14591e-06
1.94577e-06
7.83171e-07
2.66945e-06
1.23953e-05
1.18966e-05
1.56125e-06
3.50881e-07
1.58477e-07
2.28659e-07
7.43092e-09
5.64599e-09
1.74569e-08
6.58912e-08
1.8535e-07
4.64978e-07
2.22452e-06
1.20683e-06
3.44516e-07
1.25963e-05
1.81084e-05
1.81044e-05
1.81084e-05
1.50706e-05
1.71562e-05
1.28023e-05
1.47922e-05
1.65445e-05
1.91864e-05
9.33151e-06
4.43916e-07
3.77473e-07
9.56398e-07
7.06802e-09
5.04911e-09
1.5357e-08
3.58757e-08
6.41806e-08
4.02804e-09
4.05731e-09
4.08715e-09
4.11757e-09
5.70227e-07
7.75465e-06
1.30739e-05
1.5929e-05
1.90166e-05
1.90168e-05
1.57309e-05
2.67263e-06
1.38811e-05
1.92986e-05
1.94216e-05
1.08226e-05
2.78045e-06
4.86733e-07
7.95999e-09
3.84474e-09
8.56027e-09
1.34335e-08
2.20238e-09
3.99977e-09
8.90839e-09
9.69564e-09
1.45523e-08
8.19034e-10
8.21266e-10
8.20369e-10
8.18073e-10
2.55856e-06
3.42888e-06
8.11212e-10
8.10048e-10
2.92607e-07
1.31022e-05
1.93926e-05
1.93293e-05
1.59276e-05
8.65324e-10
1.35276e-08
2.32658e-09
4.12586e-09
4.9095e-09
1.15806e-09
3.99306e-09
5.58471e-09
3.50559e-09
1.41169e-09
8.17513e-10
8.19462e-10
8.18095e-10
8.15898e-10
8.13817e-10
8.11216e-10
8.10027e-10
8.08286e-10
7.04032e-10
7.01552e-10
2.70114e-06
1.1119e-05
6.43846e-06
1.21032e-09
1.98054e-08
1.34237e-09
1.74606e-09
1.95633e-09
8.78961e-10
4.78172e-10
3.53749e-10
3.56998e-10
6.09213e-10
8.15354e-10
9.0877e-10
8.92196e-10
1.11499e-09
1.36855e-09
1.67268e-09
1.76907e-09
1.61166e-09
7.46705e-10
6.99142e-10
5.23677e-10
5.26369e-10
5.2785e-10
2.60847e-07
2.06548e-08
8.5652e-10
7.00608e-10
7.65973e-10
5.14186e-10
3.95621e-10
3.52238e-10
3.58325e-10
4.31379e-10
5.63918e-10
7.13141e-10
9.47451e-10
1.3878e-09
1.81656e-09
2.18514e-09
2.22043e-09
1.767e-09
1.13182e-09
1.35136e-09
2.04571e-09
3.41322e-09
1.06772e-08
1.74609e-08
2.2131e-08
6.00033e-10
3.42347e-10
3.91935e-10
3.19574e-10
2.76544e-10
2.39598e-10
2.08894e-10
2.03844e-10
1.92177e-10
2.09954e-10
2.87055e-10
4.01159e-10
5.28196e-10
6.64336e-10
7.4788e-10
6.3049e-10
5.15351e-10
6.39407e-10
1.04711e-09
1.65631e-09
2.0448e-09
2.701e-09
2.2342e-08
4.91203e-10
2.49051e-10
2.42701e-10
2.02914e-10
1.64604e-10
1.25985e-10
1.0447e-10
8.92651e-11
8.15595e-11
8.74626e-11
1.04857e-10
1.31668e-10
1.67016e-10
2.02451e-10
2.29891e-10
2.37147e-10
2.20795e-10
2.37894e-10
3.24726e-10
5.37324e-10
1.00052e-09
1.5601e-09
2.39852e-08
3.28761e-10
2.38753e-10
1.9383e-10
1.63182e-10
1.37616e-10
1.15771e-10
9.34608e-11
7.06264e-11
5.16486e-11
4.1796e-11
3.97211e-11
4.4413e-11
5.4062e-11
6.68735e-11
7.9674e-11
8.90549e-11
9.43855e-11
1.03971e-10
1.33513e-10
1.99933e-10
3.49731e-10
7.42806e-10
2.45899e-08
3.21789e-10
2.56472e-10
2.15435e-10
2.17371e-10
2.15394e-10
1.92106e-10
1.5055e-10
1.0269e-10
6.14831e-11
3.72867e-11
2.41727e-11
1.86482e-11
1.81464e-11
2.09487e-11
2.54617e-11
3.06132e-11
3.619e-11
4.32452e-11
5.70338e-11
8.81244e-11
1.61314e-10
2.59922e-10
2.67254e-08
2.76422e-10
2.76306e-10
2.91673e-10
2.93391e-10
2.93869e-10
2.76599e-10
2.28715e-10
1.5982e-10
9.05421e-11
5.11362e-11
2.85487e-11
1.50754e-11
8.81444e-12
7.01843e-12
7.67737e-12
9.64833e-12
1.25862e-11
1.68142e-11
2.35755e-11
3.55766e-11
5.62603e-11
1.11456e-10
2.78512e-08
3.47154e-10
2.91753e-10
3.33853e-10
3.64062e-10
3.96924e-10
4.00837e-10
3.56867e-10
2.62366e-10
1.41352e-10
7.52237e-11
4.12932e-11
2.0534e-11
9.22657e-12
4.21004e-12
2.77094e-12
2.9556e-12
4.0515e-12
6.06512e-12
9.46899e-12
1.54946e-11
2.9771e-11
4.27695e-11
3.19276e-08
3.01948e-10
3.01913e-10
3.87021e-10
4.26971e-10
4.95555e-10
5.27841e-10
5.13874e-10
4.1684e-10
2.19433e-10
1.07216e-10
5.94242e-11
3.03492e-11
1.34577e-11
5.23331e-12
1.98418e-12
1.13063e-12
1.33257e-12
2.1541e-12
3.62759e-12
6.15355e-12
1.00481e-11
2.09868e-11
3.35778e-08
8.2335e-10
3.19495e-10
3.95143e-10
4.22307e-10
4.72501e-10
5.35583e-10
6.34836e-10
6.0995e-10
3.33105e-10
1.44586e-10
7.96784e-11
4.25159e-11
1.97072e-11
7.71745e-12
2.65337e-12
8.18746e-13
4.85912e-13
6.92878e-13
1.25572e-12
2.23457e-12
5.21713e-12
7.59979e-12
4.16568e-08
2.99413e-10
2.68599e-10
2.94368e-10
2.89406e-10
2.88148e-10
2.88599e-10
7.35455e-10
7.86752e-10
4.85138e-10
1.85215e-10
9.8451e-11
5.46815e-11
2.68221e-11
1.12223e-11
3.96933e-12
1.26858e-12
2.94592e-13
2.30258e-13
4.04886e-13
8.48266e-13
1.34308e-12
3.17793e-12
4.1919e-08
1.16968e-09
2.44886e-10
5.08725e-10
1.43605e-08
6.4404e-08
1.98758e-08
1.25648e-09
8.68363e-10
6.57077e-10
2.26553e-10
1.12038e-10
6.40559e-11
3.3242e-11
1.49903e-11
5.63138e-12
1.73173e-12
4.65209e-13
1.16215e-13
1.25499e-13
2.35183e-13
6.25498e-13
9.25306e-13
5.87545e-08
2.44866e-10
2.44855e-10
9.55043e-08
4.75068e-07
1.04017e-06
6.77013e-07
1.13467e-08
8.45566e-10
8.45346e-10
2.91976e-10
1.1756e-10
6.8035e-11
3.70643e-11
1.78923e-11
7.37713e-12
2.44435e-12
6.86678e-13
1.15044e-13
4.70254e-14
8.25844e-14
1.43012e-13
3.36629e-13
6.52803e-08
9.79712e-10
1.42031e-08
2.64359e-07
8.5136e-07
1.18673e-06
1.13698e-06
5.78087e-08
8.46412e-10
9.31156e-10
3.2164e-10
1.13426e-10
6.53163e-11
3.68538e-11
1.89401e-11
8.50692e-12
3.17645e-12
9.05705e-13
2.10699e-13
2.5047e-14
2.20376e-14
6.16843e-14
9.58283e-14
7.3584e-08
4.15607e-09
4.40113e-08
3.018e-07
9.16583e-07
1.17066e-06
9.04709e-07
1.83191e-08
8.4727e-10
1.07788e-09
3.11259e-10
1.00228e-10
5.68019e-11
3.27297e-11
1.76058e-11
8.60529e-12
3.57815e-12
1.17597e-12
3.02804e-13
3.48636e-14
8.05031e-15
1.11185e-14
3.19389e-14
6.45288e-08
4.05278e-09
2.81322e-08
2.61269e-07
4.6634e-07
6.83605e-07
6.54419e-08
2.91374e-09
2.9162e-09
1.06679e-09
2.69119e-10
8.06118e-11
4.47959e-11
2.59591e-11
1.43177e-11
7.46898e-12
3.47925e-12
1.27606e-12
3.63896e-13
5.99816e-14
4.91316e-15
4.18129e-15
7.46068e-15
1.16847e-07
4.54805e-09
1.21535e-08
6.3519e-08
1.93826e-10
1.93186e-10
1.94174e-10
4.29869e-09
3.52596e-09
8.13559e-10
2.02209e-10
5.85943e-11
3.20285e-11
1.83464e-11
1.0081e-11
5.50652e-12
2.82604e-12
1.19319e-12
3.74445e-13
8.32107e-14
5.556e-15
1.03942e-15
2.11045e-15
1.16625e-07
5.65546e-09
2.07478e-09
5.97432e-09
4.41756e-10
3.39341e-09
9.42341e-10
3.90736e-09
1.99561e-09
5.02256e-10
1.27549e-10
3.75915e-11
2.06689e-11
1.14722e-11
6.08423e-12
3.34896e-12
1.86031e-12
9.07252e-13
3.37434e-13
8.70268e-14
8.31633e-15
5.73148e-16
4.87651e-16
1.68623e-07
3.15471e-08
2.06868e-09
2.72756e-09
2.08817e-09
8.63241e-09
2.24292e-09
1.78291e-09
6.02958e-10
2.49667e-10
6.3903e-11
2.09762e-11
1.194e-11
6.36075e-12
3.15362e-12
1.66323e-12
9.57556e-13
5.28142e-13
2.37361e-13
7.30285e-14
1.10278e-14
4.87996e-16
1.30863e-16
1.70428e-07
9.86698e-08
2.85e-08
1.96578e-08
3.54934e-09
4.72837e-09
2.36197e-09
7.9622e-10
2.25562e-10
9.0685e-11
2.39604e-11
1.01234e-11
6.09764e-12
3.12477e-12
1.41196e-12
6.68935e-13
3.70656e-13
2.21189e-13
1.19672e-13
4.70648e-14
9.88853e-15
5.79241e-16
4.31383e-17
1.70555e-07
1.63829e-07
9.64456e-08
3.79466e-08
8.49317e-09
2.80704e-09
1.94885e-09
8.49036e-10
2.08149e-10
2.84959e-11
7.0725e-12
4.16166e-12
2.65803e-12
1.33737e-12
5.51704e-13
2.20245e-13
1.05125e-13
6.21597e-14
4.05545e-14
2.15191e-14
6.78433e-15
5.38237e-16
2.24253e-17
1.45781e-07
1.64779e-07
8.80896e-08
3.02908e-08
6.55981e-09
3.71866e-09
1.69152e-09
6.00885e-10
1.3349e-10
1.52505e-11
2.43127e-12
1.42481e-12
9.49415e-13
4.75456e-13
1.83666e-13
6.10389e-14
2.23752e-14
1.14698e-14
8.44254e-15
6.5969e-15
2.84987e-15
4.02768e-16
2.14565e-17
8.64309e-08
1.27976e-07
6.32648e-08
2.00205e-08
6.49246e-09
2.59614e-09
9.47727e-10
2.58507e-10
4.35029e-11
3.88036e-12
4.52959e-13
3.2107e-13
2.31921e-13
1.20439e-13
4.47764e-14
1.26929e-14
3.28059e-15
1.24136e-15
1.09862e-15
1.30372e-15
9.41902e-16
2.39291e-16
2.50711e-17
3.90772e-08
6.12867e-08
2.58463e-08
5.48127e-09
2.11102e-09
7.3304e-10
2.15936e-10
3.95592e-11
3.96114e-12
1.75765e-13
3.38572e-14
3.69477e-14
2.97481e-14
1.63867e-14
6.15365e-15
1.52917e-15
2.88629e-16
7.34914e-17
8.57759e-17
1.79013e-16
2.53744e-16
1.18611e-16
1.69594e-17
0.916555
0.917097
0.965664
0.991484
0.985216
0.985757
0.980541
0.970365
0.520008
0.527986
0.534788
0.518419
-7.95487e-15
1.09805e-13
1.92485e-23
8.26831e-12
1.76228e-12
-5.53114e-14
2.68306e-05
0.000507953
3.13655e-05
2.24464e-05
0.000102742
0.000106854
0.000731803
0.0004143
0.000393771
0.000115692
0.00940252
0.0096033
0.00889079
0.00411169
0.00941941
0.011132
0.0119986
0.0119385
6.07516e-20
-7.02909e-13
0.00110188
0.00204859
5.69298e-10
2.26609e-27
2.48654e-35
1.18452e-14
8.25162e-09
8.27682e-10
1.23557e-24
4.20313e-08
1.12563e-07
1.17168e-07
2.61384e-07
4.93124e-07
4.57742e-07
1.23633e-06
1.98207e-06
1.14399e-06
2.28098e-06
2.74095e-06
1.58814e-06
9.20584e-07
1.96692e-06
2.77796e-06
2.3667e-06
1.22701e-06
1.7366e-07
4.73219e-07
4.5983e-07
4.34001e-07
6.13577e-09
2.23756e-09
3.47819e-08
1.46972e-07
9.98031e-09
2.24086e-09
2.24089e-09
1.47269e-08
2.00175e-08
7.5559e-09
4.35499e-09
1.56277e-08
4.08866e-09
6.11065e-09
7.34459e-09
9.04272e-09
2.32754e-09
3.01059e-09
3.4532e-09
4.04255e-09
1.03512e-09
1.24722e-09
1.50405e-09
1.75338e-09
4.05748e-10
5.31903e-10
6.04324e-10
7.39833e-10
1.57307e-10
1.92424e-10
2.61451e-10
3.11072e-10
7.09051e-11
9.69438e-11
1.12028e-10
1.4346e-10
3.06849e-11
3.8604e-11
5.59346e-11
6.58493e-11
1.29978e-11
1.80372e-11
2.1299e-11
2.99743e-11
4.75474e-12
6.11609e-12
9.24926e-12
1.06673e-11
1.69969e-12
2.35136e-12
2.79551e-12
4.02938e-12
5.12399e-13
6.77371e-13
9.81737e-13
1.09415e-12
1.73138e-13
2.30866e-13
2.71909e-13
3.7621e-13
4.57174e-14
5.74593e-14
8.50545e-14
9.79915e-14
1.50915e-14
1.83657e-14
2.2525e-14
3.03014e-14
3.44883e-15
4.50374e-15
6.45475e-15
7.46929e-15
9.70225e-16
1.24134e-15
1.57139e-15
2.10716e-15
2.18181e-16
3.04713e-16
4.42773e-16
5.01901e-16
4.89059e-17
6.60887e-17
8.72808e-17
1.21281e-16
8.68629e-18
1.28186e-17
1.92579e-17
2.26444e-17
1.79439e-18
2.26198e-18
3.08844e-18
4.94841e-18
4.2619e-19
4.00862e-19
6.20955e-19
8.57115e-19
2.5037e-19
9.36482e-20
1.06725e-19
1.34306e-19
0.991529
0.991581
0.923243
0.729897
0.807765
0.969737
0.970814
0.970811
0.737372
0.399044
0.465558
0.492357
0.337919
0.452356
0.848284
0.904667
0.910044
0.904002
0.716717
0.95891
0.895803
0.498328
0.340558
0.761901
0.959781
0.961134
0.941888
0.423373
0.0542818
0.0261101
0.00254186
0.0500182
0.322055
0.745713
0.910608
0.910534
0.90657
0.889334
0.33177
0.0584913
0.0335419
0.133439
0.371939
0.495834
0.621696
0.607996
0.309982
0.00460225
0.000139774
0.000139774
0.000139774
0.0287114
0.137288
0.34352
0.465324
0.405459
0.453812
0.000706522
4.75008e-07
4.17234e-07
0.000149752
0.00114819
2.72343e-19
0.176978
0.502482
0.428986
0.0797113
0.000139774
0.000139774
0.000139773
0.000139773
0.000139773
0.000139791
0.00283024
0.00251125
0.00224434
0.00408636
0.000529759
7.07869e-05
2.18768e-07
-1.44354e-09
-5.29537e-11
0.0361073
0.391861
0.416991
0.227376
0.00147157
0.000143688
0.000139775
0.000139773
0.000139773
0.000139772
0.00100131
0.00249822
0.00299064
0.00618776
0.011395
0.00201911
0.000253036
1.32254e-05
4.31836e-23
0.0280095
0.123886
0.212909
0.149071
0.0192791
0.00111909
0.00110183
0.0004797
0.000139772
0.000139772
0.000432704
0.00282493
0.00339527
0.00145584
0.0159739
0.0138414
0.00129867
0.000268805
0.00270112
0.0053213
0.000665538
0.000787682
0.00449139
0.00811046
0.00606969
0.00243535
0.0022021
0.0016031
0.000318825
0.000315877
0.00122023
0.00340063
0.00120303
0.0157844
0.019622
0.01438
0.00170259
0.00114953
0.0012823
0.000887039
0.000586699
0.000605218
0.000706105
0.00192799
0.00378018
0.00379555
0.00301893
0.000946649
0.00035794
0.00108848
0.00282579
0.00150455
0.0065036
0.019328
0.0197629
0.0198752
0.00735291
0.00200437
0.0022949
0.00290939
0.00246121
0.000436107
0.000407147
0.00255733
0.0038301
0.00382691
0.00167432
0.000849218
0.00102572
0.000361578
0.00160517
4.04452e-05
0.000781121
0.00975299
0.0198712
0.0203362
0.0203352
0.0135774
0.00405369
0.00175791
0.000108072
5.58187e-07
0.000188405
0.0013063
0.00124718
0.000558584
0.00030803
0.000192354
7.61857e-07
1.14573e-14
1.20809e-14
1.22206e-14
1.604e-14
0.000319366
0.00303359
0.00573324
0.00635199
0.00346991
0.000286094
2.13604e-06
5.25252e-07
5.34767e-07
5.6122e-07
5.78568e-07
4.06967e-07
5.14432e-08
4.80013e-08
7.09579e-08
1.71223e-07
2.08309e-07
1.33116e-07
5.7276e-08
5.61157e-08
1.80247e-07
4.88842e-09
8.79551e-05
0.000219148
5.50924e-07
4.4389e-07
1.38132e-06
5.35461e-06
1.00627e-05
4.18428e-06
2.5535e-06
1.59264e-06
7.09343e-08
7.48103e-08
4.72044e-07
5.46346e-06
2.41015e-05
1.01782e-05
3.12243e-06
4.15336e-11
6.5904e-09
8.79005e-08
-6.26728e-22
6.62492e-24
-1.05454e-25
3.61935e-06
2.00842e-05
2.03147e-05
2.04313e-05
2.04519e-05
1.80043e-05
8.55226e-06
1.32538e-06
1.20207e-06
2.99369e-05
4.25959e-05
2.97865e-05
8.55744e-06
5.05965e-11
1.3407e-06
1.56895e-06
1.75772e-22
1.80854e-23
4.3441e-06
1.9773e-05
2.04531e-05
2.04811e-05
2.04709e-05
1.52859e-05
8.09202e-06
8.2028e-06
5.57008e-06
2.55302e-06
4.22929e-05
4.88328e-05
3.41097e-05
3.32557e-07
3.91771e-07
6.10247e-06
6.9455e-06
6.11018e-06
1.30601e-06
6.08567e-06
1.77346e-05
2.04964e-05
2.04862e-05
1.69461e-05
7.76756e-06
5.82101e-06
5.78599e-06
8.98857e-06
1.81182e-06
3.21006e-05
4.88173e-05
4.0627e-05
1.14665e-06
3.45311e-07
2.69625e-06
6.32335e-06
5.03743e-06
1.14654e-06
9.87195e-07
1.50733e-06
4.4848e-06
6.18905e-06
5.3697e-06
4.92642e-06
6.33812e-06
8.87445e-06
9.70497e-06
9.87429e-07
1.91978e-05
4.28075e-05
2.17061e-05
1.13868e-06
2.00699e-06
5.29197e-06
1.57334e-05
8.08698e-06
1.99257e-06
4.36558e-06
1.10477e-05
4.37492e-06
9.21213e-07
8.26372e-07
1.68822e-06
9.3656e-06
1.38775e-05
9.76962e-06
9.09763e-07
7.58429e-06
8.96568e-06
5.73308e-06
2.54925e-06
8.12876e-07
4.56461e-06
1.73972e-05
4.4841e-05
5.45919e-05
5.4458e-05
5.45919e-05
5.18e-05
2.23047e-05
1.73524e-06
4.17683e-07
8.13058e-06
1.38347e-05
2.83338e-06
5.71189e-08
3.76646e-08
2.26038e-09
2.25916e-09
6.97657e-07
6.00591e-07
1.94579e-06
1.13998e-05
1.7979e-05
2.13979e-05
2.9292e-05
4.91912e-05
5.3201e-05
4.77796e-05
7.37906e-06
4.34286e-07
6.59223e-06
1.27735e-05
1.58407e-06
1.66585e-08
2.41124e-08
4.36793e-09
1.96041e-09
1.04838e-08
5.05208e-07
5.94359e-07
6.63456e-07
3.98318e-07
1.44259e-08
2.27462e-07
3.52713e-06
3.91045e-05
4.66414e-05
4.05616e-05
6.95455e-06
7.23995e-06
1.14904e-06
1.73823e-07
9.64519e-09
8.90017e-09
8.34683e-09
4.09202e-09
1.49022e-09
3.39206e-08
1.54466e-07
7.13307e-08
1.4643e-08
1.2113e-08
6.38549e-11
1.44329e-10
2.39591e-05
4.66169e-05
4.6678e-05
1.92424e-05
5.66739e-06
5.12897e-07
1.24041e-07
4.66477e-09
6.20733e-09
7.31183e-09
4.08679e-09
1.49024e-09
1.48847e-09
8.96331e-08
4.29871e-07
5.5559e-07
3.24906e-07
8.67529e-08
6.24491e-11
1.22989e-05
4.67711e-05
4.66332e-05
1.72365e-05
2.76369e-06
8.24779e-09
1.14229e-07
2.09582e-09
3.14425e-09
4.31023e-09
4.44647e-09
4.87879e-09
2.01386e-08
2.83572e-07
5.7295e-07
5.72843e-07
4.67697e-07
1.40322e-07
1.44357e-10
1.57977e-06
1.97546e-05
9.23247e-06
6.21522e-06
4.5529e-07
8.19226e-09
2.12244e-07
9.1823e-10
1.51535e-09
2.64744e-09
4.55222e-09
7.43995e-09
2.15056e-08
1.35471e-07
3.30036e-07
3.91899e-07
2.66851e-07
5.68547e-08
3.63943e-09
1.68173e-09
1.6578e-09
1.65383e-09
1.64609e-09
1.65386e-09
8.12958e-09
2.40068e-07
3.91429e-10
6.53034e-10
1.15746e-09
2.14208e-09
3.86129e-09
6.24204e-09
6.12269e-09
4.39955e-08
4.51717e-08
2.10733e-08
7.30545e-09
4.64465e-09
1.69523e-09
2.16795e-08
6.13498e-09
1.02824e-08
5.52952e-09
2.65729e-08
2.40073e-07
1.76645e-10
2.8303e-10
4.62133e-10
7.665e-10
1.2544e-09
1.78577e-09
1.21851e-09
1.22566e-09
1.2325e-09
3.54559e-09
5.97031e-09
4.63164e-09
1.68369e-08
7.2199e-08
7.58368e-08
4.85939e-08
7.14247e-09
6.14774e-08
2.10718e-07
8.42632e-11
1.34654e-10
2.16815e-10
3.49789e-10
5.61188e-10
8.63858e-10
1.21802e-09
1.74752e-09
2.67731e-09
4.52037e-09
6.79263e-09
9.5097e-09
3.05251e-08
9.29166e-08
9.33031e-08
4.74121e-08
8.01822e-09
5.71664e-08
1.95761e-07
3.6525e-11
6.061e-11
1.00129e-10
1.69445e-10
2.86769e-10
4.82698e-10
8.04617e-10
1.34209e-09
2.26993e-09
3.92121e-09
6.75654e-09
1.18534e-08
2.97694e-08
7.50519e-08
3.98089e-08
2.26149e-08
7.99665e-09
1.47606e-07
1.31431e-07
1.43701e-11
2.43328e-11
4.15183e-11
7.38835e-11
1.31876e-10
2.40319e-10
4.38642e-10
8.03306e-10
1.47733e-09
2.82798e-09
5.51377e-09
1.05636e-08
1.99969e-08
1.75636e-08
1.01697e-08
1.02258e-08
2.88418e-08
1.62172e-07
1.22633e-07
4.85435e-12
8.68714e-12
1.52414e-11
2.76835e-11
5.17955e-11
1.04722e-10
2.08984e-10
4.21882e-10
8.50522e-10
1.73126e-09
3.62693e-09
7.63713e-09
1.4336e-08
9.38271e-09
1.03221e-08
1.37578e-08
6.35178e-08
1.61889e-07
1.22552e-07
1.64348e-12
2.64918e-12
4.72469e-12
8.65609e-12
1.69355e-11
3.53007e-11
8.14084e-11
1.87626e-10
4.25095e-10
9.5045e-10
2.02621e-09
4.06728e-09
7.51116e-09
8.17041e-09
1.2683e-08
3.58449e-08
6.61975e-08
4.05683e-08
2.60153e-07
4.49508e-13
7.74273e-13
1.21271e-12
2.05962e-12
3.80294e-12
7.24566e-12
1.47355e-11
3.16602e-11
8.77524e-11
2.66688e-10
6.62585e-10
1.11975e-09
1.71305e-09
4.66347e-09
9.35754e-09
2.49372e-08
4.15878e-08
8.41885e-09
3.97752e-07
1.36223e-13
1.90728e-13
2.84837e-13
4.34745e-13
7.18544e-13
1.19686e-12
1.90729e-12
2.94015e-12
9.801e-12
3.69386e-11
1.1636e-10
2.25194e-10
2.18604e-10
1.08592e-09
3.41922e-09
3.10631e-09
9.37002e-09
6.03103e-09
3.97747e-07
3.42065e-14
4.81492e-14
6.58942e-14
9.30456e-14
1.38714e-13
2.16853e-13
3.40622e-13
4.76737e-13
1.13972e-12
4.32139e-12
1.57888e-11
4.33188e-11
7.05985e-11
1.70204e-10
8.3851e-10
1.7083e-09
4.06767e-09
9.35783e-09
3.97746e-07
9.52939e-15
1.20441e-14
1.55671e-14
2.05876e-14
2.88628e-14
4.44357e-14
7.51961e-14
1.36258e-13
2.70089e-13
8.44831e-13
3.3649e-12
1.18382e-11
3.33351e-11
8.081e-11
7.33292e-10
2.09356e-09
5.05808e-09
1.13427e-08
2.2022e-07
2.33765e-15
3.03392e-15
3.80458e-15
4.9022e-15
6.81893e-15
1.06061e-14
1.89794e-14
4.05429e-14
1.00216e-13
2.7294e-13
9.57163e-13
4.14346e-12
1.7429e-11
5.05194e-11
3.85987e-10
2.34864e-09
5.87613e-09
1.14064e-08
1.6945e-08
5.79929e-16
7.49588e-16
9.4698e-16
1.2643e-15
1.8967e-15
3.23449e-15
6.30161e-15
1.42994e-14
3.83568e-14
1.19769e-13
4.28314e-13
1.69715e-12
7.50841e-12
3.01125e-11
1.52036e-10
1.51892e-09
5.00283e-09
9.36539e-09
4.90186e-10
1.35127e-16
1.78549e-16
2.3338e-16
3.39185e-16
5.92782e-16
1.21065e-15
2.71962e-15
6.49216e-15
1.687e-14
5.03718e-14
1.75116e-13
6.39574e-13
2.76781e-12
1.35165e-11
6.0469e-11
4.04156e-10
2.12112e-09
3.6959e-09
4.88271e-10
3.0122e-17
3.90012e-17
5.26821e-17
8.61103e-17
1.82047e-16
4.55603e-16
1.22113e-15
3.25504e-15
8.46129e-15
2.2977e-14
6.98553e-14
2.13665e-13
7.74263e-13
4.15885e-12
2.19235e-11
1.05563e-10
3.8554e-10
3.8124e-10
4.41036e-10
5.74877e-18
7.70237e-18
1.10185e-17
2.00943e-17
5.03438e-17
1.55278e-16
5.02209e-16
1.54405e-15
4.38396e-15
1.18105e-14
3.22807e-14
9.50751e-14
2.57185e-13
1.10461e-12
5.85518e-12
2.34645e-11
5.85353e-11
1.57274e-10
1.94188e-10
1.01448e-18
1.33492e-18
1.93367e-18
3.71299e-18
1.04471e-17
3.84956e-17
1.51191e-16
5.58423e-16
1.85891e-15
5.58312e-15
1.56201e-14
4.318e-14
1.19088e-13
3.67595e-13
1.68511e-12
9.77433e-12
1.67178e-11
4.47656e-11
7.98081e-11
1.55064e-19
1.93953e-19
2.71791e-19
5.10638e-19
1.44015e-18
5.9469e-18
2.82415e-17
1.28504e-16
5.24353e-16
1.89579e-15
6.12623e-15
1.81108e-14
4.70694e-14
1.27709e-13
3.65488e-13
1.52327e-12
3.05677e-12
5.76174e-12
2.10087e-11
)
;

boundaryField
{
    leftWall
    {
        type            zeroGradient;
    }
    rightWall
    {
        type            zeroGradient;
    }
    lowerWall
    {
        type            zeroGradient;
    }
    atmosphere
    {
        type            inletOutlet;
        inletValue      uniform 0;
        value           nonuniform List<scalar> 
46
(
3.90772e-08
6.12867e-08
2.58463e-08
0
0
0
0
0
0
0
0
0
0
0
0
0
0
0
0
0
0
0
0
0
0
0
0
0
0
0
0
1.44015e-18
5.9469e-18
2.82415e-17
1.28504e-16
5.24353e-16
1.89579e-15
6.12623e-15
1.81108e-14
4.70694e-14
1.27709e-13
3.65488e-13
1.52327e-12
3.05677e-12
5.76174e-12
2.10087e-11
)
;
    }
    defaultFaces
    {
        type            empty;
    }
}


// ************************************************************************* //
