/*--------------------------------*- C++ -*----------------------------------*\
| =========                 |                                                 |
| \\      /  F ield         | OpenFOAM: The Open Source CFD Toolbox           |
|  \\    /   O peration     | Version:  2312                                  |
|   \\  /    A nd           | Website:  www.openfoam.com                      |
|    \\/     M anipulation  |                                                 |
\*---------------------------------------------------------------------------*/
FoamFile
{
    version     2.0;
    format      ascii;
    arch        "LSB;label=32;scalar=64";
    class       volScalarField;
    location    "4";
    object      alpha.water_0;
}
// * * * * * * * * * * * * * * * * * * * * * * * * * * * * * * * * * * * * * //

dimensions      [0 0 0 0 0 0 0];

internalField   nonuniform List<scalar> 
2268
(
3.72148e-07
3.19883e-07
7.4131e-08
4.75205e-09
2.16039e-09
5.23712e-10
1.6402e-10
1.25607e-10
7.75488e-11
6.02088e-11
5.38356e-11
5.13315e-11
5.37967e-11
6.20859e-11
7.635e-11
1.03692e-10
1.35229e-10
1.84845e-10
2.63693e-10
4.9234e-10
9.33163e-10
1.31571e-09
1.42972e-09
3.30509e-07
2.57584e-07
4.80517e-08
3.35448e-09
3.67248e-10
2.66571e-10
1.83886e-10
1.306e-10
9.98311e-11
9.23336e-11
8.80566e-11
8.31846e-11
8.8247e-11
1.00244e-10
1.20887e-10
1.46387e-10
1.84533e-10
2.71494e-10
4.78692e-10
8.2954e-10
1.36015e-09
1.66928e-09
1.66894e-09
7.26828e-08
3.47041e-08
1.55463e-08
3.30747e-09
3.65938e-10
1.87293e-10
2.03626e-10
3.89683e-10
6.1506e-10
6.31438e-10
3.39436e-10
1.62159e-10
1.30693e-10
1.38617e-10
1.46753e-10
2.02129e-10
7.42013e-10
1.71808e-09
1.721e-09
7.5067e-10
1.12147e-09
1.33676e-09
1.09153e-09
1.02254e-08
5.36615e-09
2.3145e-09
5.44923e-10
1.42738e-10
6.52219e-11
5.57054e-10
1.51743e-09
3.09441e-09
3.37226e-09
2.34788e-09
3.74831e-10
5.36194e-11
7.3396e-11
7.40396e-11
2.58533e-10
2.04597e-09
4.23202e-09
2.66299e-09
3.10802e-10
7.69352e-10
8.7891e-10
4.40304e-10
2.57598e-18
7.18134e-19
1.41483e-19
9.45887e-21
5.60372e-22
6.18177e-22
3.19753e-19
9.10988e-11
2.2282e-10
1.05826e-10
-4.0964e-24
-5.82826e-22
7.44797e-22
4.68535e-20
6.35678e-09
-3.54711e-20
-7.38349e-21
1.58803e-19
-1.25705e-14
3.34881e-11
7.01756e-08
0.000136962
0.000974853
0.260701
0.234299
0.190031
0.138984
0.0874296
0.0377212
0.00146545
6.46163e-23
1.04249e-21
-3.58594e-21
0.000140471
0.00247785
0.0118186
0.0330393
0.070236
0.119194
0.158749
0.174055
0.198682
0.249073
0.348608
0.403606
0.448345
0.939513
0.924551
0.895698
0.852381
0.790383
0.702774
0.591219
0.466826
0.396395
0.384409
0.414244
0.48679
0.582711
0.682817
0.774127
0.847912
0.875469
0.849023
0.839596
0.853408
0.869759
0.934721
0.959792
0.999672
0.999544
0.998563
0.997959
0.997978
0.998713
0.999537
0.994929
0.987269
0.985264
0.992282
0.999519
0.996953
0.981107
0.973338
0.975829
0.976193
0.983987
0.979186
0.924975
0.869661
0.904162
0.959749
0.0142071
0.0132365
0.012516
0.00926262
0.00510702
0.00580916
0.0106434
0.0132693
0.0138349
0.0138442
0.0139238
0.0143348
0.0143345
0.0121678
0.00795324
0.007306
0.00501362
0.00573762
0.00579585
0.087866
0.0138281
0.0210365
0.0133647
0.00241983
0.00210604
0.00210619
0.0021461
0.00227729
0.00216134
0.00216205
0.00312999
0.00311621
0.00200001
0.00150042
0.00156419
0.00198106
0.00247006
0.00358848
0.442161
0.536691
0.614946
0.565773
0.388744
0.264398
0.161645
0.126864
0.112949
0.0464832
0.0134778
0.00146785
0.00137413
0.00136943
0.00137115
0.00136925
0.00139204
0.0013923
0.00139259
0.697189
0.894259
0.967303
0.971779
0.971827
0.967121
0.724097
0.608517
0.626761
0.685471
0.264908
0.233996
0.326876
0.350488
0.15991
0.0476878
0.0117652
0.00789852
0.00285827
0.696542
0.875785
0.922975
0.961586
0.971736
0.971815
0.932789
0.746929
0.807961
0.933343
0.908851
0.614211
0.668712
0.834287
0.773931
0.635631
0.464189
0.418245
0.318329
0.70175
0.905758
0.898217
0.891654
0.936178
0.966021
0.970808
0.969161
0.969373
0.956241
0.947246
0.909255
0.908894
0.864493
0.909782
0.909788
0.903741
0.909841
0.613282
0.916991
0.986535
0.935624
0.885927
0.865128
0.939425
0.970812
0.970809
0.952338
0.86558
0.889502
0.908894
0.85525
0.70128
0.837955
0.909815
0.90982
0.909832
0.731004
0.990659
0.991471
0.974862
0.890645
0.851584
0.941713
0.970809
0.970813
0.877309
0.58104
0.738061
0.89778
0.68093
0.644952
0.851386
0.9098
0.90981
0.909261
0.658612
0.999692
0.999692
0.999692
0.999692
0.999692
0.999688
0.999681
0.999692
0.999692
0.999692
0.999692
0.999692
0.992917
0.959909
0.956648
0.956463
0.974514
0.983987
0.983987
0.983987
0.966238
0.928339
0.915447
0.999665
0.999419
0.999692
0.999692
0.999692
0.999693
0.999692
0.999692
0.999692
0.999692
0.999692
0.999692
0.999692
0.999567
0.9857
0.953713
0.972389
0.98398
0.983214
0.967759
0.963074
0.974982
0.986631
0.993351
0.998547
0.99754
0.995536
0.995438
0.992949
0.991321
0.986824
0.978198
0.970965
0.971355
0.972615
0.956818
0.925091
0.914074
0.908868
0.903403
0.847387
0.734843
0.644992
0.576416
0.548247
0.556586
0.817032
0.878432
0.898313
0.875274
0.819565
0.753598
0.728196
0.692153
0.645654
0.578621
0.507973
0.408189
0.290854
0.227746
0.235381
0.28144
0.252643
0.126523
0.0504474
0.0113772
9.51167e-09
9.68038e-24
2.13431e-09
0.14632
0.173326
0.159485
0.13325
0.107696
0.0695982
0.0497311
0.021367
0.00145424
6.28516e-11
2.49332e-20
6.7918e-11
3.67057e-11
7.85347e-07
6.10932e-11
5.16826e-21
1.20662e-24
-5.92103e-24
-2.23917e-23
7.34913e-06
2.16738e-05
2.00597e-06
7.24229e-08
-2.37238e-10
-1.94283e-11
-2.02183e-10
-1.31368e-20
5.4529e-20
-2.87206e-11
-1.1143e-20
-5.72761e-08
5.0061e-05
6.58642e-05
9.82895e-05
0.000129828
0.000130136
0.0001206
0.000122648
3.97129e-05
4.24889e-06
8.26687e-05
0.00010678
0.000187591
0.000237872
0.00013529
7.08702e-05
0.00034592
0.000419324
0.000639466
0.00076486
0.000764854
0.000764864
0.000731602
0.000673724
0.00112368
0.00214288
0.00308687
0.00370933
0.00391184
0.00352023
0.00238281
0.00135265
0.000500615
0.000538154
0.000479596
0.00141442
0.00368997
0.00270788
0.00124165
0.000263903
0.000462416
0.00063327
0.000649898
0.000683347
0.000698913
0.000673668
0.000376848
0.000191391
0.004201
0.00872855
0.00872757
0.00872641
0.00872501
0.00872383
0.00765388
0.0012246
0.000597232
0.00506333
0.0144258
0.0167654
0.0167888
0.0126137
4.25841e-07
2.48434e-06
5.62707e-10
5.62508e-10
5.62681e-10
5.62503e-10
5.6251e-10
5.62499e-10
5.62505e-10
5.62499e-10
0.000793054
0.00504089
0.00815849
0.00718989
0.00603335
0.00292037
1.72621e-08
8.11066e-09
0.00795186
0.0163774
0.0166548
0.0137407
0.0116769
1.60261e-08
3.83631e-08
6.88602e-08
5.47155e-08
5.89776e-08
1.29359e-08
6.63205e-09
6.0885e-09
5.6249e-10
1.87897e-08
1.9304e-08
3.88093e-05
6.33813e-07
6.3299e-07
6.35129e-07
1.56336e-06
1.49451e-06
3.90493e-09
0.000100772
0.00212122
0.000623431
9.14304e-07
5.57114e-12
2.17723e-08
8.59619e-08
1.07801e-07
1.07112e-07
1.3836e-07
7.80621e-08
5.05517e-08
8.07573e-08
5.62498e-10
5.6251e-10
2.80917e-08
1.17828e-06
9.01197e-07
6.12998e-06
8.36801e-06
8.99645e-06
9.24902e-06
7.27053e-06
1.01286e-11
-7.18591e-26
6.57638e-26
1.61786e-08
4.78861e-09
1.57123e-08
2.28099e-08
7.26473e-08
6.51326e-08
1.13872e-07
1.33562e-06
5.54288e-06
6.12654e-06
1.24941e-06
5.63062e-10
1.62919e-09
5.08498e-06
8.08249e-06
8.55746e-06
8.6396e-06
7.34418e-06
1.34542e-06
9.10924e-08
3.66403e-08
2.213e-07
3.2125e-07
3.24694e-07
1.05324e-07
9.7511e-09
5.299e-09
1.09156e-08
2.39884e-08
1.45826e-07
4.83219e-06
9.24481e-06
9.2134e-06
5.32797e-06
1.51666e-07
2.08137e-06
3.52988e-06
1.59158e-07
1.6401e-07
1.52946e-07
7.29861e-08
7.21025e-08
2.70376e-07
1.28565e-07
1.62022e-07
1.65236e-07
1.52982e-07
1.15308e-07
7.47738e-09
5.33365e-09
1.16604e-08
5.41937e-08
2.36792e-07
5.06411e-06
9.24406e-06
8.77008e-06
7.50713e-06
7.80948e-06
1.46519e-05
1.44289e-05
6.80298e-06
9.49492e-07
1.68677e-06
5.77466e-07
2.51502e-06
1.16669e-05
1.09393e-05
1.25124e-06
2.74223e-07
1.53165e-07
2.11234e-07
7.44775e-09
5.67574e-09
1.74101e-08
6.58494e-08
1.87091e-07
5.57372e-07
2.61784e-06
1.46464e-06
5.0235e-07
1.28929e-05
1.81084e-05
1.81044e-05
1.81084e-05
1.47539e-05
1.68588e-05
1.23225e-05
1.44696e-05
1.67277e-05
1.89691e-05
8.32823e-06
3.9098e-07
3.76915e-07
9.02119e-07
7.10909e-09
5.06993e-09
1.56273e-08
3.75184e-08
6.92619e-08
4.14936e-09
4.18189e-09
4.21077e-09
4.23986e-09
7.92774e-07
8.39997e-06
1.38816e-05
1.67689e-05
1.90166e-05
1.90168e-05
1.62681e-05
3.43129e-06
1.42842e-05
1.88674e-05
1.9476e-05
1.03227e-05
2.83659e-06
4.36644e-07
7.91561e-09
3.8863e-09
8.69771e-09
1.37827e-08
3.29917e-09
4.11804e-09
9.25486e-09
1.01248e-08
1.54101e-08
8.26729e-10
8.29019e-10
8.30516e-10
8.27966e-10
3.02311e-06
4.03659e-06
1.88172e-07
8.18043e-10
5.24757e-07
1.38566e-05
1.9425e-05
1.94279e-05
1.66281e-05
1.51337e-09
1.32683e-08
2.36072e-09
4.20406e-09
5.03777e-09
1.20997e-09
4.10109e-09
5.8369e-09
3.69894e-09
1.45418e-09
8.25341e-10
8.2708e-10
8.27966e-10
8.25296e-10
8.22728e-10
8.2034e-10
8.18043e-10
8.15871e-10
7.14588e-10
7.11818e-10
3.11321e-06
1.16233e-05
7.15496e-06
1.82316e-09
1.96341e-08
1.37012e-09
1.78109e-09
2.00476e-09
8.95684e-10
4.82288e-10
3.57382e-10
3.60426e-10
6.16298e-10
8.23193e-10
9.17231e-10
8.87171e-10
1.09024e-09
1.37951e-09
1.68905e-09
1.76088e-09
1.62223e-09
7.60325e-10
7.09137e-10
5.25633e-10
5.28535e-10
5.29473e-10
2.72645e-07
2.07017e-08
8.69136e-10
7.1287e-10
7.80279e-10
5.21961e-10
4.00179e-10
3.56236e-10
3.63517e-10
4.38743e-10
5.77113e-10
7.31581e-10
9.69344e-10
1.41798e-09
1.86113e-09
2.24752e-09
2.2939e-09
1.83116e-09
1.15217e-09
1.35483e-09
2.07759e-09
3.48245e-09
1.07032e-08
1.72605e-08
2.21399e-08
6.26816e-10
3.45728e-10
3.97205e-10
3.23825e-10
2.80785e-10
2.44072e-10
2.12855e-10
2.08456e-10
1.9653e-10
2.13633e-10
2.92243e-10
4.09524e-10
5.39898e-10
6.80901e-10
7.69837e-10
6.50865e-10
5.22939e-10
6.40373e-10
1.054e-09
1.68762e-09
2.10059e-09
2.89302e-09
2.24273e-08
4.97172e-10
2.50366e-10
2.44642e-10
2.04664e-10
1.6609e-10
1.26708e-10
1.05146e-10
9.01201e-11
8.27126e-11
8.89648e-11
1.06912e-10
1.3439e-10
1.70658e-10
2.0702e-10
2.35359e-10
2.43063e-10
2.24814e-10
2.39696e-10
3.23626e-10
5.3046e-10
9.97695e-10
1.55163e-09
2.40103e-08
3.58059e-10
2.40289e-10
1.94153e-10
1.62994e-10
1.36834e-10
1.14414e-10
9.22668e-11
7.00167e-11
5.17148e-11
4.20156e-11
4.02436e-11
4.5206e-11
5.51396e-11
6.82686e-11
8.13826e-11
9.09428e-11
9.6058e-11
1.04991e-10
1.33621e-10
1.97909e-10
3.39659e-10
7.42773e-10
2.47095e-08
3.23475e-10
2.56566e-10
2.13737e-10
2.14468e-10
2.12179e-10
1.892e-10
1.48161e-10
1.01051e-10
6.05602e-11
3.70007e-11
2.41387e-11
1.87935e-11
1.8427e-11
2.13381e-11
2.59428e-11
3.11549e-11
3.67333e-11
4.36195e-11
5.69812e-11
8.6968e-11
1.60305e-10
2.57699e-10
2.68131e-08
2.76381e-10
2.76795e-10
2.90306e-10
2.91641e-10
2.91173e-10
2.73367e-10
2.2537e-10
1.57226e-10
8.93174e-11
5.06335e-11
2.83036e-11
1.50014e-11
8.84959e-12
7.09919e-12
7.78981e-12
9.78095e-12
1.27224e-11
1.69166e-11
2.35711e-11
3.5405e-11
5.49037e-11
1.11197e-10
2.79998e-08
3.48053e-10
2.91297e-10
3.32398e-10
3.61857e-10
3.93918e-10
3.97393e-10
3.52871e-10
2.5866e-10
1.39528e-10
7.46124e-11
4.10021e-11
2.04009e-11
9.17275e-12
4.21145e-12
2.79109e-12
2.98216e-12
4.07376e-12
6.07125e-12
9.43342e-12
1.52458e-11
2.97601e-11
4.21991e-11
3.20876e-08
3.02263e-10
3.02215e-10
3.85827e-10
4.26062e-10
4.94567e-10
5.27654e-10
5.11352e-10
4.12825e-10
2.16945e-10
1.06612e-10
5.91878e-11
3.02305e-11
1.34089e-11
5.21895e-12
1.98447e-12
1.13453e-12
1.33383e-12
2.14993e-12
3.60862e-12
6.12114e-12
9.78812e-12
2.09019e-11
3.38324e-08
8.28895e-10
3.18726e-10
3.95602e-10
4.25735e-10
4.77562e-10
5.42904e-10
6.32325e-10
6.07685e-10
3.3021e-10
1.44089e-10
7.96053e-11
4.24864e-11
1.96943e-11
7.70981e-12
2.65337e-12
8.20448e-13
4.85627e-13
6.88931e-13
1.24692e-12
2.21332e-12
5.16556e-12
7.49906e-12
4.18238e-08
3.82559e-10
2.70052e-10
2.96891e-10
2.93953e-10
2.92799e-10
2.93282e-10
7.13023e-10
7.88379e-10
4.82958e-10
1.84964e-10
9.86347e-11
5.48072e-11
2.68821e-11
1.12433e-11
3.97726e-12
1.27029e-12
2.95679e-13
2.28474e-13
3.9872e-13
8.45996e-13
1.31177e-12
3.1641e-12
4.24296e-08
1.20038e-09
2.44861e-10
4.25974e-10
1.14945e-08
5.51816e-08
1.66304e-08
1.22378e-09
8.72857e-10
6.57491e-10
2.26559e-10
1.1254e-10
6.43812e-11
3.34082e-11
1.50642e-11
5.65671e-12
1.73973e-12
4.67999e-13
1.1602e-13
1.24249e-13
2.31919e-13
6.19179e-13
9.10852e-13
5.90861e-08
2.44847e-10
2.4484e-10
8.96958e-08
4.56906e-07
1.01193e-06
6.62896e-07
1.38985e-08
8.49186e-10
8.49101e-10
2.92326e-10
1.18394e-10
6.85599e-11
3.73479e-11
1.80243e-11
7.43076e-12
2.45971e-12
6.9139e-13
1.16829e-13
4.65734e-14
8.20355e-14
1.40096e-13
3.34827e-13
6.57158e-08
1.05565e-09
1.49824e-08
2.55434e-07
8.37255e-07
1.18796e-06
1.14009e-06
6.40088e-08
8.50028e-10
9.39397e-10
3.24742e-10
1.14541e-10
6.5978e-11
3.722e-11
1.91228e-11
8.5848e-12
3.20522e-12
9.12659e-13
2.12493e-13
2.51338e-14
2.17428e-14
6.09859e-14
9.45364e-14
7.40488e-08
3.93192e-09
4.51209e-08
2.95766e-07
9.07333e-07
1.17073e-06
9.38767e-07
2.5443e-08
8.50878e-10
1.09123e-09
3.1552e-10
1.01488e-10
5.75053e-11
3.31247e-11
1.78101e-11
8.70045e-12
3.6157e-12
1.18733e-12
3.05713e-13
3.55347e-14
8.02367e-15
1.102e-14
3.15831e-14
6.56056e-08
3.95284e-09
2.77695e-08
2.58352e-07
4.79385e-07
7.16598e-07
8.67559e-08
2.90549e-09
2.9076e-09
1.09411e-09
2.73881e-10
8.18316e-11
4.54441e-11
2.6326e-11
1.45123e-11
7.56351e-12
3.52122e-12
1.29064e-12
3.67673e-13
6.12851e-14
4.93916e-15
4.13925e-15
7.42233e-15
1.17425e-07
4.57999e-09
1.17523e-08
6.34876e-08
1.9429e-10
1.93663e-10
3.61626e-10
4.34031e-09
3.60392e-09
8.31912e-10
2.06541e-10
5.96327e-11
3.25541e-11
1.86439e-11
1.02378e-11
5.58602e-12
2.86387e-12
1.20818e-12
3.79019e-13
8.42618e-14
5.68084e-15
1.03925e-15
2.08093e-15
1.18251e-07
5.88502e-09
2.05176e-09
6.01586e-09
4.29473e-10
3.25064e-09
8.97536e-10
3.99922e-09
2.06317e-09
5.14957e-10
1.30709e-10
3.8334e-11
2.10442e-11
1.16792e-11
6.18986e-12
3.40277e-12
1.88757e-12
9.19472e-13
3.41716e-13
8.81247e-14
8.49334e-15
5.76325e-16
4.85639e-16
1.68724e-07
3.26075e-08
2.04648e-09
2.75794e-09
2.05431e-09
8.75944e-09
2.21367e-09
1.82124e-09
6.1905e-10
2.5663e-10
6.56354e-11
2.14151e-11
1.21737e-11
6.48489e-12
3.21339e-12
1.69255e-12
9.72825e-13
5.35676e-13
2.40465e-13
7.3864e-14
1.1271e-14
4.9694e-16
1.29858e-16
1.70486e-07
1.00392e-07
2.97612e-08
1.96024e-08
3.43868e-09
4.79654e-09
2.35874e-09
7.87838e-10
2.25425e-10
9.31128e-11
2.46066e-11
1.03413e-11
6.22434e-12
3.18938e-12
1.44046e-12
6.81667e-13
3.77016e-13
2.24505e-13
1.21237e-13
4.75595e-14
1.00739e-14
5.91089e-16
4.32333e-17
1.70558e-07
1.65067e-07
9.64017e-08
3.76261e-08
8.28791e-09
2.73303e-09
1.94993e-09
8.50507e-10
2.08536e-10
2.88794e-11
7.23072e-12
4.25254e-12
2.71552e-12
1.36621e-12
5.63366e-13
2.24677e-13
1.07033e-13
6.31081e-14
4.10748e-14
2.17559e-14
6.8541e-15
5.47576e-16
2.27437e-17
1.44857e-07
1.64864e-07
8.74999e-08
2.97069e-08
6.62206e-09
3.7164e-09
1.69463e-09
6.0419e-10
1.34505e-10
1.5459e-11
2.49325e-12
1.45853e-12
9.71427e-13
4.86258e-13
1.8774e-13
6.23337e-14
2.28059e-14
1.16479e-14
8.5415e-15
6.66401e-15
2.87329e-15
4.08071e-16
2.17984e-17
8.4174e-08
1.2597e-07
6.24623e-08
1.97795e-08
6.44818e-09
2.60379e-09
9.54612e-10
2.61029e-10
4.39821e-11
3.93997e-12
4.6525e-13
3.29225e-13
2.37664e-13
1.23332e-13
4.58077e-14
1.29707e-14
3.3456e-15
1.25989e-15
1.10963e-15
1.31479e-15
9.47894e-16
2.4145e-16
2.53357e-17
3.88518e-08
6.08667e-08
2.56085e-08
5.53279e-09
2.12526e-09
7.41356e-10
2.19141e-10
4.01283e-11
4.01426e-12
1.7827e-13
3.4811e-14
3.79714e-14
3.05505e-14
1.68106e-14
6.30385e-15
1.56361e-15
2.94399e-16
7.45578e-17
8.64954e-17
1.80244e-16
2.55137e-16
1.19322e-16
1.71068e-17
0.915984
0.917837
0.982846
0.991436
0.986838
0.986967
0.97934
0.973167
0.578096
0.580967
0.577684
0.551418
-3.02512e-25
6.77929e-10
1.96794e-10
2.13437e-09
2.36293e-09
-3.18888e-11
1.38538e-05
0.000495607
1.71091e-05
1.24462e-05
9.10774e-05
0.000107676
0.000423793
0.000200651
0.000237573
0.000115675
0.00891906
0.00880091
0.00785136
0.00317647
0.0103688
0.0122642
0.0124263
0.0114725
1.35908e-12
1.30124e-05
0.00194676
0.00304938
2.38148e-11
3.23866e-21
-6.75061e-14
1.604e-14
9.219e-10
3.22205e-28
7.42583e-26
6.03469e-08
1.09213e-07
1.01322e-07
2.68677e-07
5.54649e-07
4.44278e-07
1.23861e-06
2.0267e-06
1.1169e-06
2.29784e-06
2.78982e-06
1.68649e-06
7.4238e-07
1.85001e-06
2.82489e-06
2.5131e-06
1.16085e-06
1.43255e-07
4.32394e-07
4.48967e-07
3.9033e-07
5.08207e-09
2.23956e-09
2.04014e-08
9.8378e-08
1.04245e-08
2.24124e-09
2.24131e-09
1.13136e-08
2.10418e-08
7.74181e-09
4.1639e-09
1.56282e-08
4.10764e-09
5.93529e-09
7.29171e-09
9.01619e-09
2.29738e-09
3.03185e-09
3.43802e-09
4.02597e-09
1.02999e-09
1.23838e-09
1.49779e-09
1.7401e-09
3.99798e-10
5.31854e-10
5.98536e-10
7.31348e-10
1.56059e-10
1.91128e-10
2.56558e-10
3.06971e-10
7.03865e-11
9.56901e-11
1.1104e-10
1.41929e-10
3.03841e-11
3.83543e-11
5.50838e-11
6.49289e-11
1.29129e-11
1.77889e-11
2.1156e-11
2.94847e-11
4.70596e-12
6.05727e-12
9.14766e-12
1.0544e-11
1.69051e-12
2.32135e-12
2.77439e-12
3.97802e-12
5.0632e-13
6.7211e-13
9.76246e-13
1.07206e-12
1.72545e-13
2.28469e-13
2.7072e-13
3.72065e-13
4.5371e-14
5.7087e-14
8.42235e-14
9.83081e-14
1.49146e-14
1.82402e-14
2.24248e-14
3.01553e-14
3.43257e-15
4.48269e-15
6.40284e-15
7.40121e-15
9.58221e-16
1.23193e-15
1.56382e-15
2.09998e-15
2.15946e-16
3.02917e-16
4.40463e-16
5.0036e-16
4.84567e-17
6.56073e-17
8.68181e-17
1.2092e-16
8.60443e-18
1.27213e-17
1.918e-17
2.24917e-17
1.78746e-18
2.24885e-18
3.06545e-18
4.93226e-18
4.27001e-19
3.97991e-19
6.1808e-19
8.55753e-19
2.53282e-19
9.35789e-20
1.06578e-19
1.34307e-19
0.991399
0.991502
0.907139
0.731644
0.826421
0.970739
0.970812
0.970078
0.691306
0.386907
0.457758
0.463233
0.321849
0.457839
0.852272
0.905441
0.909819
0.904156
0.719253
0.967509
0.901022
0.463597
0.35512
0.790085
0.959903
0.958509
0.937266
0.361644
0.050159
0.0226617
0.00111945
0.0547378
0.320426
0.734814
0.910126
0.910041
0.907003
0.89059
0.359318
0.0687585
0.0348725
0.141666
0.379649
0.492415
0.60927
0.587578
0.292045
0.00453879
0.000139774
0.000139774
0.000139774
0.0242679
0.124226
0.316335
0.444074
0.401775
0.460735
0.00102225
3.57169e-07
3.13351e-07
0.000145159
0.0011179
-1.30531e-19
0.186568
0.49917
0.425456
0.0795357
0.000139774
0.000139774
0.000139774
0.000139774
0.000139774
0.000139781
0.00167956
0.00165565
0.00405815
0.00406263
0.000428975
6.27707e-05
9.44048e-08
-8.58813e-10
-2.37066e-13
0.0480575
0.398565
0.412182
0.213898
0.000699007
0.000140887
0.000139774
0.000139774
0.000139774
0.000139774
0.00108037
0.00257045
0.00297203
0.00664139
0.0104594
0.00165254
0.00025488
4.68384e-06
5.28486e-24
0.0349431
0.12571
0.197575
0.132607
0.0179286
0.00125551
0.00120022
0.000552
0.000139773
0.000139774
0.000508566
0.00283995
0.00338926
0.0017082
0.0167144
0.0123392
0.000841977
0.000278934
0.00304743
0.00507748
0.000378004
0.000424151
0.00316183
0.00721808
0.00587623
0.00242098
0.00217232
0.00158793
0.000313651
0.000307771
0.00125901
0.00339547
0.00106636
0.0165164
0.0202427
0.0124394
0.00118259
0.00109565
0.0012715
0.000917458
0.000622777
0.000661241
0.000719577
0.00212383
0.0038255
0.00382691
0.00300386
0.0009339
0.000430164
0.00111944
0.00264746
0.00126853
0.0088225
0.0201284
0.0202404
0.0187374
0.00575119
0.00211334
0.00259127
0.00305439
0.0024114
0.000359076
0.00039553
0.00251965
0.00383556
0.00377156
0.00142667
0.000855156
0.000970128
0.000264068
0.00181223
0.000236544
0.00200521
0.0132704
0.0203351
0.0203362
0.0203351
0.0106693
0.00365821
0.00161902
7.88276e-05
5.49474e-07
0.000174808
0.00112051
0.000961312
0.000432694
0.000263306
0.000142463
2.44731e-07
1.61519e-14
1.83337e-14
1.88906e-14
1.19695e-06
0.00133016
0.00390099
0.00567076
0.00555719
0.00236286
0.000170766
9.67578e-06
5.28535e-07
5.49547e-07
5.42892e-07
7.82805e-07
4.68027e-07
1.78135e-07
7.09792e-08
7.09767e-08
1.60233e-07
3.19679e-07
4.66904e-08
5.6992e-08
5.79488e-08
2.05632e-07
4.99118e-11
9.73494e-05
5.67374e-05
9.62201e-09
5.33495e-07
1.65256e-06
6.96739e-06
1.18871e-05
6.14419e-06
3.76595e-06
2.39277e-06
7.09711e-08
7.18794e-08
5.00911e-07
4.47901e-06
2.14648e-05
9.91369e-06
3.06263e-06
5.81158e-14
3.32073e-13
5.82622e-08
1.82823e-13
-1.17434e-11
-1.41563e-23
3.58265e-06
1.95888e-05
2.02767e-05
2.04451e-05
2.04399e-05
1.92762e-05
1.03772e-05
2.09719e-06
9.3382e-07
2.75592e-05
4.2473e-05
2.88251e-05
1.12985e-05
1.76689e-10
1.34147e-06
2.14853e-06
2.92771e-07
-1.93395e-10
4.17036e-06
1.85969e-05
2.04533e-05
2.04586e-05
2.04488e-05
1.51219e-05
7.93091e-06
7.91657e-06
6.28322e-06
1.7911e-06
3.93597e-05
4.88327e-05
3.91109e-05
3.35578e-07
3.123e-07
4.95979e-06
8.1977e-06
7.87519e-06
2.64334e-06
4.20218e-06
1.69169e-05
2.04725e-05
2.04622e-05
1.77834e-05
7.65887e-06
5.73481e-06
5.7041e-06
8.73874e-06
1.66198e-06
2.90825e-05
4.88176e-05
4.59767e-05
1.1995e-06
3.35702e-07
2.23498e-06
5.72358e-06
5.19943e-06
1.90181e-06
3.45586e-07
5.35763e-07
3.3095e-06
5.45889e-06
4.73032e-06
4.69181e-06
6.4453e-06
8.78169e-06
9.70438e-06
9.33619e-07
1.77102e-05
4.15255e-05
2.57355e-05
1.29798e-06
1.6691e-06
4.59397e-06
1.60361e-05
1.15605e-05
4.28573e-06
7.06727e-06
1.3527e-05
5.76751e-06
6.54832e-07
5.80938e-07
1.39807e-06
9.35982e-06
1.39235e-05
9.75211e-06
8.23953e-07
7.34294e-06
8.80502e-06
5.75164e-06
2.74781e-06
7.45275e-07
3.90235e-06
1.75094e-05
4.19751e-05
5.45919e-05
5.44579e-05
5.45919e-05
5.25773e-05
2.37748e-05
1.46275e-06
3.4443e-07
8.11826e-06
1.38864e-05
2.72926e-06
4.57376e-08
5.14921e-08
2.02646e-09
2.01393e-09
6.56093e-07
6.47675e-07
1.70249e-06
1.00687e-05
1.61491e-05
1.87414e-05
2.77412e-05
4.87463e-05
5.33333e-05
4.79486e-05
8.01237e-06
3.7488e-07
6.771e-06
1.27473e-05
1.51753e-06
1.65247e-08
2.36199e-08
4.50151e-09
1.99908e-09
1.53017e-09
4.87949e-07
5.4976e-07
5.83768e-07
1.42598e-07
2.42786e-08
1.15238e-07
3.19394e-06
3.85354e-05
4.6854e-05
4.06161e-05
7.71909e-06
7.28204e-06
1.10851e-06
1.6517e-07
9.70407e-09
8.64284e-09
8.43819e-09
4.11944e-09
1.51695e-09
2.89098e-08
1.2978e-07
6.60433e-08
2.52562e-08
2.17294e-08
2.63199e-10
1.44959e-10
2.46432e-05
4.68504e-05
4.69013e-05
1.84119e-05
5.80177e-06
4.32131e-07
1.26718e-07
4.65313e-09
6.17256e-09
7.30501e-09
4.08307e-09
1.48793e-09
1.48724e-09
1.00562e-07
4.55646e-07
5.68385e-07
3.36274e-07
8.95632e-08
6.24491e-11
1.30241e-05
4.69912e-05
4.46745e-05
1.65071e-05
2.36232e-06
8.49827e-09
1.16247e-07
2.07796e-09
3.12412e-09
4.28934e-09
4.45862e-09
4.98563e-09
2.12985e-08
2.91281e-07
5.62465e-07
5.73348e-07
4.62761e-07
1.28138e-07
1.44329e-10
1.60869e-06
1.79429e-05
7.35574e-06
4.8573e-06
3.84334e-07
8.43504e-09
2.13842e-07
9.04963e-10
1.48748e-09
2.59847e-09
4.49164e-09
7.21702e-09
2.16647e-08
1.28433e-07
3.27724e-07
3.84333e-07
2.55566e-07
4.66055e-08
4.15444e-09
1.74811e-09
1.73467e-09
1.71342e-09
1.68436e-09
2.65942e-09
8.36296e-09
2.40063e-07
3.85328e-10
6.39885e-10
1.13063e-09
2.08799e-09
3.77585e-09
6.03583e-09
5.50292e-09
3.47218e-08
3.17959e-08
1.04451e-08
7.03759e-09
4.64543e-09
1.83661e-09
2.42969e-08
1.00222e-08
1.24202e-08
6.08219e-09
2.8546e-08
2.40078e-07
1.74265e-10
2.78556e-10
4.53928e-10
7.52849e-10
1.22785e-09
1.75459e-09
1.25805e-09
1.26533e-09
1.27866e-09
3.79213e-09
5.92577e-09
4.62643e-09
1.82868e-08
7.62877e-08
7.89243e-08
5.05295e-08
7.1416e-09
6.35668e-08
2.07061e-07
8.32139e-11
1.3272e-10
2.13407e-10
3.44033e-10
5.51165e-10
8.48585e-10
1.2055e-09
1.73775e-09
2.68172e-09
4.52041e-09
6.81797e-09
9.84958e-09
3.06327e-08
9.43236e-08
9.35596e-08
4.64999e-08
7.98577e-09
6.08562e-08
1.93096e-07
3.60319e-11
5.97229e-11
9.84173e-11
1.66377e-10
2.81244e-10
4.72688e-10
7.88293e-10
1.31699e-09
2.232e-09
3.86377e-09
6.69685e-09
1.1895e-08
2.91063e-08
7.04656e-08
3.37526e-08
2.00619e-08
7.96815e-09
1.51385e-07
1.33702e-07
1.4176e-11
2.39609e-11
4.07469e-11
7.24341e-11
1.29059e-10
2.34573e-10
4.27593e-10
7.82882e-10
1.43846e-09
2.75807e-09
5.40471e-09
1.04082e-08
1.99004e-08
1.64279e-08
1.02452e-08
1.02947e-08
3.15183e-08
1.63204e-07
1.22502e-07
4.77747e-12
8.55079e-12
1.49599e-11
2.71098e-11
5.04735e-11
1.01905e-10
2.02847e-10
4.09132e-10
8.24373e-10
1.67573e-09
3.51295e-09
7.43838e-09
1.40343e-08
9.81351e-09
1.04575e-08
1.4679e-08
6.51272e-08
1.59586e-07
1.22289e-07
1.62708e-12
2.6072e-12
4.64071e-12
8.46782e-12
1.65022e-11
3.41638e-11
7.84905e-11
1.80391e-10
4.07688e-10
9.12451e-10
1.93781e-09
3.87153e-09
7.28958e-09
8.09199e-09
1.26867e-08
3.62702e-08
6.65218e-08
3.36799e-08
2.76078e-07
4.4369e-13
7.67018e-13
1.19638e-12
2.0227e-12
3.7269e-12
7.07432e-12
1.42191e-11
2.98991e-11
8.21265e-11
2.51383e-10
6.41041e-10
1.0582e-09
1.43536e-09
4.54302e-09
9.15236e-09
2.36369e-08
4.00193e-08
8.56697e-09
3.97754e-07
1.35007e-13
1.89324e-13
2.82306e-13
4.33739e-13
7.11676e-13
1.17484e-12
1.88328e-12
2.77e-12
9.08648e-12
3.43764e-11
1.10285e-10
2.18301e-10
2.0889e-10
8.73483e-10
3.06014e-09
2.74623e-09
7.15316e-09
5.85928e-09
3.97746e-07
3.40443e-14
4.79451e-14
6.55235e-14
9.23117e-14
1.37301e-13
2.14404e-13
3.37243e-13
4.62605e-13
1.06635e-12
4.02716e-12
1.48614e-11
4.19423e-11
6.89579e-11
1.59526e-10
8.2203e-10
1.62657e-09
4.10969e-09
9.38782e-09
3.97746e-07
9.51467e-15
1.20136e-14
1.55135e-14
2.04746e-14
2.86029e-14
4.38535e-14
7.39498e-14
1.32711e-13
2.58681e-13
7.90883e-13
3.16624e-12
1.14942e-11
3.25211e-11
7.6945e-11
7.04435e-10
2.11857e-09
5.10601e-09
1.13029e-08
1.98629e-07
2.33232e-15
3.02871e-15
3.79477e-15
4.87813e-15
6.75941e-15
1.0456e-14
1.8564e-14
3.92052e-14
9.61065e-14
2.60288e-13
8.98894e-13
4.00999e-12
1.69993e-11
4.90814e-11
3.62563e-10
2.30029e-09
5.88281e-09
1.12539e-08
1.48717e-08
5.78728e-16
7.48269e-16
9.44012e-16
1.25625e-15
1.87641e-15
3.1827e-15
6.15803e-15
1.38237e-14
3.66403e-14
1.13293e-13
4.01822e-13
1.55758e-12
7.2833e-12
2.92527e-11
1.42762e-10
1.42297e-09
4.92878e-09
9.21593e-09
4.9744e-10
1.3482e-16
1.78168e-16
2.32357e-16
3.3605e-16
5.84058e-16
1.18735e-15
2.65775e-15
6.30746e-15
1.62288e-14
4.78514e-14
1.65034e-13
6.07001e-13
2.66194e-12
1.29539e-11
5.78873e-11
3.64849e-10
1.91366e-09
3.45552e-09
4.95736e-10
3.0074e-17
3.89149e-17
5.23804e-17
8.50535e-17
1.7867e-16
4.45242e-16
1.19164e-15
3.17138e-15
8.20719e-15
2.20809e-14
6.65549e-14
2.10604e-13
7.40175e-13
3.93847e-12
2.08621e-11
9.87312e-11
3.55686e-10
3.47492e-10
4.36211e-10
5.73962e-18
7.68475e-18
1.09515e-17
1.98249e-17
4.92896e-17
1.5144e-16
4.89221e-16
1.50389e-15
4.26732e-15
1.14563e-14
3.1055e-14
9.11548e-14
2.53639e-13
1.05317e-12
5.52032e-12
2.2395e-11
5.489e-11
1.43823e-10
1.85125e-10
1.01376e-18
1.33317e-18
1.92499e-18
3.67112e-18
1.02455e-17
3.75679e-17
1.47073e-16
5.42789e-16
1.80713e-15
5.42546e-15
1.51349e-14
4.16056e-14
1.13817e-13
3.58211e-13
1.59114e-12
9.25695e-12
1.61078e-11
4.18396e-11
7.51704e-11
1.55183e-19
1.94066e-19
2.71467e-19
5.07972e-19
1.4234e-18
5.82291e-18
2.74644e-17
1.24546e-16
5.07534e-16
1.83457e-15
5.92665e-15
1.75152e-14
4.50788e-14
1.25995e-13
3.52211e-13
1.40477e-12
2.85557e-12
5.29733e-12
1.88136e-11
)
;

boundaryField
{
    leftWall
    {
        type            zeroGradient;
    }
    rightWall
    {
        type            zeroGradient;
    }
    lowerWall
    {
        type            zeroGradient;
    }
    atmosphere
    {
        type            inletOutlet;
        inletValue      uniform 0;
        value           nonuniform List<scalar> 
46
(
3.88518e-08
6.08667e-08
2.56085e-08
0
0
0
0
0
0
0
0
0
0
0
0
0
0
0
0
0
0
0
0
0
0
0
0
0
0
0
0
1.4234e-18
5.82292e-18
2.74644e-17
1.24546e-16
5.07534e-16
1.83457e-15
5.92665e-15
1.75152e-14
4.50788e-14
1.25995e-13
3.52211e-13
1.40477e-12
2.85557e-12
5.29733e-12
1.88136e-11
)
;
    }
    defaultFaces
    {
        type            empty;
    }
}


// ************************************************************************* //
