/*--------------------------------*- C++ -*----------------------------------*\
| =========                 |                                                 |
| \\      /  F ield         | OpenFOAM: The Open Source CFD Toolbox           |
|  \\    /   O peration     | Version:  2312                                  |
|   \\  /    A nd           | Website:  www.openfoam.com                      |
|    \\/     M anipulation  |                                                 |
\*---------------------------------------------------------------------------*/
FoamFile
{
    version     2.0;
    format      ascii;
    arch        "LSB;label=32;scalar=64";
    class       volScalarField;
    location    "4";
    object      alphas;
}
// * * * * * * * * * * * * * * * * * * * * * * * * * * * * * * * * * * * * * //

dimensions      [0 0 0 0 0 0 0];

internalField   nonuniform List<scalar> 
2268
(
2
2
2
2
2
2
2
2
2
2
2
2
2
2
2
2
2
2
2
2
1.99996
1.99995
1.99995
2
2
2
2
2
2
2
2
2
2
2
2
2
2
2
2
2
2
2
2
2
1.99998
1.99998
2
2
2
2
2
2
2
2
2
2
2
2
2
2
2
2
2
2
2
2
2
2
2
2
2
2
2
2
2
2
2
2
2
2
2
2
2
2
2
2
2
2
2
2
2
2.00033
1.99835
1.99868
1.99994
2.00005
2
1.99999
2
2
2
2
2
2
1.99999
2
2
2.00001
2.00003
1.99953
1.99805
1.99751
1.99969
2.00027
2.00091
1.53775
1.58771
1.67135
1.76983
1.86678
1.95438
1.99972
1.99976
1.99977
1.99957
1.99882
1.992
1.96809
1.91807
1.83506
1.72865
1.63216
1.5712
1.49752
1.39247
1.22542
1.13573
1.05637
0.151142
0.184896
0.249336
0.347272
0.485077
0.670124
0.902343
1.12087
1.22327
1.22407
1.14241
0.976655
0.779082
0.577294
0.399965
0.263784
0.189686
0.196354
0.199465
0.174252
0.152789
0.075688
0.0627117
0.000916436
0.00114429
0.00354539
0.00472114
0.0043431
0.00287195
0.00227002
0.015192
0.0281026
0.0268496
0.00791889
0.000754772
0.00350514
0.0192752
0.0276148
0.0255154
0.0246022
0.0162907
0.0225103
0.0936661
0.157274
0.106114
0.0462569
1.94398
1.94689
1.94984
1.95913
1.97056
1.96991
1.96112
1.95254
1.94902
1.94907
1.94889
1.94801
1.94796
1.95148
1.95995
1.96123
1.96928
1.96783
1.96774
1.77275
1.85563
1.84244
1.85939
1.88829
1.89684
1.92883
1.96729
1.97037
1.96517
1.9617
1.96516
1.96678
1.9666
1.96712
1.96782
1.97574
1.9771
1.97192
0.822691
0.643945
0.515523
0.588991
0.850496
1.0834
1.29459
1.45623
1.58311
1.68592
1.65028
1.65398
1.69826
1.71048
1.7199
1.73474
1.77518
1.80138
1.75288
0.306192
0.106578
0.0431508
0.0374556
0.0407265
0.038278
0.276178
0.441052
0.469923
0.483455
0.986396
1.05651
0.931497
0.939007
1.22786
1.42956
1.48281
1.47861
1.48882
0.312202
0.14595
0.119552
0.0679079
0.0459182
0.0473684
0.0687014
0.262006
0.216817
0.0863026
0.10863
0.412545
0.397549
0.209269
0.274585
0.471328
0.693659
0.722258
0.805427
0.310878
0.141345
0.191798
0.19821
0.116558
0.0605342
0.0461133
0.0436053
0.0418369
0.0726125
0.107035
0.123266
0.12268
0.16491
0.122847
0.123055
0.128569
0.134796
0.394486
0.10113
0.0208434
0.118951
0.254116
0.251336
0.0984811
0.0488056
0.0574316
0.0741294
0.244371
0.227762
0.148771
0.155796
0.415663
0.256099
0.142569
0.163764
0.154513
0.281445
0.0158223
0.0145713
0.0494077
0.233496
0.282885
0.0947496
0.0519635
0.0687973
0.206547
0.520534
0.372045
0.149333
0.34806
0.5655
0.357599
0.203447
0.20586
0.149673
0.361071
0.000873268
0.000858207
0.000847948
0.000841465
0.000764949
0.000758403
0.000905802
0.000878234
0.000793395
0.000456546
0.000442659
0.000479043
0.00601725
0.039221
0.0444037
0.0447
0.025292
0.0164615
0.02525
0.0368544
0.0561817
0.0883299
0.0945426
0.000941052
0.00164767
0.000918281
0.000895999
0.000833357
0.000815289
0.000817215
0.000825826
0.000820974
0.00071184
0.000599581
0.00058901
0.000554044
0.00075855
0.0145993
0.0505405
0.0302191
0.0230398
0.0505285
0.0956531
0.11363
0.0797111
0.0286188
0.0195238
0.00369738
0.00664291
0.0122719
0.0116208
0.0181767
0.0234741
0.0374131
0.0640162
0.0876608
0.0871218
0.0724719
0.0774094
0.119913
0.159165
0.190175
0.204488
0.278841
0.458539
0.554053
0.617497
0.565486
0.5247
0.294261
0.185825
0.145302
0.185739
0.288409
0.382305
0.408455
0.447216
0.500331
0.572019
0.647189
0.749413
0.811064
0.857972
0.924741
0.917168
0.944616
1.07524
1.13443
1.1045
1.03062
1.0264
1.02306
0.963158
0.926258
0.889539
0.894048
0.93157
0.976185
0.992622
1.01112
1.05892
1.13998
1.14814
1.09932
1.00918
1.00081
1.02503
1.15511
1.18001
1.10019
1.00707
1.00071
1.00069
1.0008
1.0008
1.0661
1.02221
1.00297
1.00288
1.00278
1.00278
1.00194
1.00076
1.00062
1.00056
1.00047
1.0004
1.0004
1.00042
1.00042
1.00436
1.01358
1.00066
1.00051
1.00027
1.00006
1.0002
1.00037
1.87262
1.90082
1.90579
1.85427
1.73981
1.60707
1.50812
1.41676
1.32162
1.23003
1.14264
1.07421
1.03947
1.01943
1.00904
1.00193
0.999662
0.999593
0.999613
0.998541
0.995793
0.996582
0.998581
2.99914
2.99847
2.99784
2.99771
2.99754
2.9936
2.95488
2.90489
2.82862
2.73577
2.5818
2.42193
2.30804
2.18976
2.08485
1.93021
1.6686
1.4364
1.42261
1.52744
1.60062
1.56738
1.50552
3
2.99999
3
3
3
3
3
3
2.99998
2.99991
2.99742
2.98451
2.97555
2.97843
2.9813
2.9904
2.99922
2.9532
2.88142
2.87243
2.9051
2.91682
2.8979
3
3
3
3
2.99999
3
3
3
3
3
3
2.99988
3
3
3
2.99999
2.99999
2.99995
2.99986
2.9955
2.99901
2.99998
2.99999
3
3
3
2.99999
2.99999
2.99999
3
3
3
3
3
3
3
2.99998
2.99997
2.99997
2.99997
2.99997
3
3
2.99998
2.99997
2.99997
3
3
3
3
3
2.99999
2.99996
2.99991
2.99996
3
3
2.99998
2.99997
2.99997
2.99997
2.99997
2.99999
3
3
3
2.99999
2.99999
2.99999
3
3
3
3
3
2.99998
2.99986
2.99985
2.99987
2.99997
2.99995
2.99994
2.99998
3
3
3
3
2.99999
3
3
3
3
2.99999
3
3
3
3
3
2.99997
2.99986
2.99986
2.99986
2.99986
2.99985
2.99985
2.99992
3
2.99999
3
2.99996
2.99993
2.99995
3
3
3
3
3
3
3
3
3
3
2.99999
2.99995
2.99993
2.99988
2.99985
2.99985
2.99989
2.99995
2.99995
2.99995
2.99992
2.99992
2.99991
2.99997
3
3
3
3
3
3
3
3
3
3
3
3
3
2.99998
2.99996
2.99994
2.99994
2.99994
2.99995
2.99997
2.99992
2.99991
2.99992
2.99994
2.99998
3
3
3
3
3
3
3
3
3
3
3
3
3
3
2.99999
2.99999
3
3
2.99999
2.99994
2.99991
2.99991
2.99992
2.99999
3
3
3
3
3
3
3
3
3
3
3
3
3
3
3
3
3
3
3
2.99999
2.99995
2.99996
3
3
3
3
3
3
3
3
3
3
3
3
3
3
3
3
3
3
3
3
3
3
3
3
3
3
3
3
3
3
3
3
3
3
3
3
3
3
3
3
3
3
3
3
3
3
3
3
3
3
3
3
3
3
3
3
3
3
3
3
3
3
3
3
3
3
3
3
3
3
3
3
3
3
3
3
3
3
3
3
3
3
3
3
3
3
3
3
3
3
3
3
3
3
3
3
3
3
3
3
3
3
3
3
3
3
3
3
3
3
3
3
3
3
3
3
3
3
3
3
3
3
3
3
3
3
3
3
3
3
3
3
3
3
3
3
3
3
3
3
3
3
3
3
3
3
3
3
3
3
3
3
3
3
3
3
3
3
3
3
3
3
3
3
3
3
3
3
3
3
3
3
3
3
3
3
3
3
3
3
3
3
3
3
3
3
3
3
3
3
3
3
3
3
3
3
3
3
3
3
3
3
3
3
3
3
3
3
3
3
3
3
3
3
3
3
3
3
3
3
3
3
3
3
3
3
3
3
3
3
3
3
3
3
3
3
3
3
3
3
3
3
3
3
3
3
3
3
3
3
3
3
3
3
3
3
3
3
3
3
3
3
3
3
3
3
3
3
3
3
3
3
3
3
3
3
3
3
3
3
3
3
3
3
3
3
3
3
3
3
3
3
3
3
3
3
3
3
3
3
3
3
3
3
3
3
3
3
3
3
3
3
3
3
3
3
3
3
3
3
3
3
3
3
3
3
3
3
3
3
3
3
3
3
3
3
3
3
3
3
3
3
3
3
3
3
3
3
3
3
3
3
3
3
3
3
3
3
3
3
3
3
3
3
3
3
3
3
3
3
3
3
3
3
3
3
3
3
3
3
3
3
3
3
3
3
3
3
3
3
3
3
3
3
3
3
3
3
3
3
3
3
3
3
3
3
3
3
3
3
3
3
3
3
3
3
3
3
3
3
3
3
3
3
3
3
3
3
3
3
3
3
3
3
3
3
3
3
3
3
3
3
3
3
3
3
3
3
3
3
3
3
3
3
3
3
3
3
3
3
3
3
3
3
3
3
3
3
3
3
3
3
3
3
3
3
3
3
3
3
3
3
3
3
3
3
3
3
3
3
3
3
3
3
3
3
3
3
3
3
3
3
3
3
3
3
3
3
3
3
3
3
3
3
3
3
3
3
3
3
3
3
3
3
3
3
3
3
3
3
3
3
3
3
3
3
3
3
3
3
3
3
3
3
3
3
3
3
3
3
3
3
3
0.0911106
0.0882831
0.0395729
0.0142333
0.0227242
0.0227973
0.0439708
0.0751694
0.491401
0.538425
0.564175
0.580952
1.02522
1.07774
1.09682
1.0414
1.00088
1.00186
1.00923
1.00013
1.00059
1.00068
1.00055
1.0006
0.999743
1.00006
0.999902
1.00057
1.44331
1.4168
1.3906
1.36601
2.86503
2.84987
2.83698
2.82292
2.99999
3
2.99669
2.99385
2.99999
3
3
3
3
3
3
3
3
3
3
3
3
3
2.99999
3
2.99999
2.99999
3
3
2.99999
2.99999
2.99999
3
3
3
3
3
3
3
3
3
3
3
3
3
3
3
3
3
3
3
3
3
3
3
3
3
3
3
3
3
3
3
3
3
3
3
3
3
3
3
3
3
3
3
3
3
3
3
3
3
3
3
3
3
3
3
3
3
3
3
3
3
3
3
3
3
3
3
3
3
3
3
3
3
3
3
3
3
3
3
3
3
3
3
3
3
3
3
3
3
3
3
3
3
3
3
3
3
3
3
3
3
3
3
3
3
0.014324
0.0132141
0.10781
0.373814
0.27869
0.053507
0.063733
0.0697195
0.379973
0.722971
0.63158
0.630312
0.869395
0.755198
0.35203
0.223689
0.20756
0.13522
0.304426
0.0629067
0.109117
0.550729
0.754907
0.333535
0.101158
0.0990006
0.153381
0.690908
1.02701
1.11333
1.15765
1.15779
0.82731
0.400094
0.188901
0.180447
0.143742
0.147101
0.713477
0.960757
1.05155
0.962126
0.707361
0.572301
0.661078
0.77074
0.83604
1.06795
1.0739
1.04401
1.07933
1.06691
0.987115
0.706035
0.579852
0.649893
0.601532
1.00598
1.00879
1.04861
1.04862
1.01027
1.13124
1.20793
0.873734
0.924263
1.02399
1.00545
1.0042
1.00405
1.04563
1.09396
1.0959
1.04092
1.01412
1.02835
0.997425
1.00179
1.00223
1.00141
1.00344
1.08217
1.34598
0.984565
0.957685
1.08116
1.0389
1.00337
1.0033
1.00598
1.00874
1.07604
1.06532
1.00832
1.00573
0.994034
0.991104
0.999014
1.00059
1.00113
1.00438
1.13687
1.2516
1.16197
1.22572
1.06493
1.00139
1.00104
1.00314
1.00421
1.01116
1.02945
1.00795
1.00337
0.998548
0.986201
0.989057
0.999451
1.00068
0.997492
1.00078
1.04811
1.11968
1.09922
1.02447
0.993971
0.997787
0.998337
0.999902
1.00303
1.00329
1.00612
1.00316
1.32555
1.18188
1.05445
1.00231
0.999857
0.999088
0.998782
0.999881
1.00069
1.00046
1.00036
0.999814
0.997638
0.997341
0.998554
1.00293
1.04451
1.11857
1.01868
2.81913
2.67307
2.37823
2.07072
1.82376
1.5284
1.21296
1.0734
1.07618
1.14693
1.28007
1.46476
1.65746
1.83123
1.98915
2.13597
2.30044
2.42723
2.06859
2.99517
2.99987
2.99766
2.97074
2.91039
2.84123
2.69783
2.34058
2.24112
2.45627
2.7179
2.86512
2.93823
2.97216
2.98908
2.99611
2.99558
2.99402
2.99187
2.99999
2.99999
3
2.99999
2.99904
2.99072
2.98024
2.97804
2.98832
2.99831
2.99942
2.99983
2.99998
2.99999
2.99999
2.99999
2.99999
2.99979
2.99988
3
3
3
2.99997
2.99992
2.99994
2.99996
2.99936
2.9993
3
3
3
2.99992
2.99972
2.99974
2.9997
2.9997
2.99982
2.99991
3
2.99996
2.9998
2.99972
2.99974
2.99986
3
3
3
3
3
2.99992
2.99949
2.99949
2.99949
2.99971
2.99975
2.99976
2.99979
3
2.99981
2.99962
2.99966
2.99972
2.99975
2.99991
2.99999
3
3
2.99994
2.99952
2.99949
2.99949
2.99989
2.99991
2.99994
2.99989
2.9999
2.99999
2.9998
2.99962
2.99969
2.99981
2.99978
2.99989
2.99998
2.99998
2.99999
2.99971
2.9995
2.99949
2.99961
2.99991
2.99994
2.99994
2.99994
2.99984
2.99999
2.99988
2.99982
2.99985
2.99999
2.99999
2.99997
2.99997
2.99998
2.99999
2.99978
2.9996
2.99976
2.99992
2.99988
2.9998
2.99982
2.99993
2.99984
3
2.99994
2.99987
2.99993
2.99999
2.99999
2.99998
2.99995
2.99997
2.99998
2.99994
2.99993
2.99996
2.99997
2.99997
2.99983
2.99974
2.99978
2.99988
3
2.99998
2.99997
2.99996
2.99992
2.99995
2.99999
2.99995
2.99987
2.99983
2.99983
2.99982
2.99981
2.99988
2.99997
2.99996
2.99974
2.99974
2.99996
3
3
3
2.99999
2.99991
2.99991
2.99992
2.99993
2.99994
2.99993
2.99991
2.99984
2.99978
2.99978
2.99995
2.99996
2.99975
2.9998
2.99999
3
3
3
3
2.99998
2.99991
2.99991
2.99991
2.99993
3
3
2.99998
2.9998
2.99979
2.99985
2.99993
2.99975
2.99992
3
3
3
3
3
3
2.99999
2.99995
2.99993
2.99996
3
3
2.99999
2.99985
2.99979
2.99983
2.99976
2.99975
2.99996
3
3
3
3
3
3
3
3
3
3
3
3
3
2.99991
2.9998
2.99984
2.99976
2.99985
3
3
3
3
3
3
3
3
3
3
3
3
3
3
2.99999
2.99994
2.99996
2.99986
2.99998
3
3
3
3
3
3
3
3
3
3
3
3
3
3
3
3
2.99999
3
3
3
3
3
3
3
3
3
3
3
3
3
3
3
3
3
3
3
3
3
3
3
3
3
3
3
3
3
3
3
3
3
3
3
3
3
3
3
3
3
3
3
3
3
3
3
3
3
3
3
3
3
3
3
3
3
3
3
3
3
3
3
3
3
3
3
3
3
3
3
3
3
3
3
3
3
3
3
3
3
3
3
3
3
3
3
3
3
3
3
3
3
3
3
3
3
3
3
3
3
3
3
3
3
3
3
3
3
3
3
3
3
3
3
3
3
3
3
3
3
3
3
3
3
3
3
3
3
3
3
3
3
3
3
3
2.99999
3
3
3
3
3
3
3
3
3
3
3
3
3
3
3
3
3
3
2.99999
3
3
3
3
3
3
3
3
3
3
3
3
3
3
3
3
3
3
2.99999
3
3
3
3
3
3
3
3
3
3
3
3
3
2.99999
2.99999
2.99999
3
3
2.99999
3
3
3
3
3
3
3
3
3
3
3
3
3
2.99999
2.99999
2.99999
3
3
3
3
3
3
3
3
3
3
3
3
3
3
3
3
3
2.99999
2.99999
2.99999
3
3
3
3
3
3
3
3
3
3
3
3
3
3
3
3
3
2.99999
2.99999
2.99999
2.99999
3
3
3
3
3
3
3
3
3
3
3
3
3
3
3
3
2.99999
3
3
3
3
3
3
3
3
3
3
3
3
3
3
3
3
3
3
3
3
3
3
3
3
3
3
3
3
3
3
3
3
3
3
3
3
3
3
3
3
3
3
3
3
3
3
3
3
3
3
3
3
3
3
3
3
3
3
3
3
3
3
3
3
3
3
3
3
3
3
3
3
3
3
3
3
3
3
)
;

boundaryField
{
    leftWall
    {
        type            calculated;
        value           nonuniform List<scalar> 
50
(
2
2
2
2
1.99835
1.53775
0.151142
0.000916436
0.000873268
0.000941052
0.0195238
0.294261
0.963158
1.0661
1.87262
2.99914
3
3
3
3
3
3
3
3
3
3
3
3
3
3
3
3
3
3
3
3
3
3
3
3
3
3
3
3
3
3
3
3
3
3
)
;
    }
    rightWall
    {
        type            calculated;
        value           nonuniform List<scalar> 
50
(
1.96774
1.97192
1.75288
1.48882
0.805427
0.394486
0.281445
0.361071
0.304426
0.147101
0.601532
1.02835
1.00573
1.00337
1.00316
1.01868
2.06859
2.99187
2.99988
2.99991
2.99979
2.9999
2.99984
2.99984
2.99988
2.99996
2.99999
3
3
3
3
3
3
3
3
3
3
3
2.99999
2.99999
2.99999
2.99999
3
3
2.99999
3
3
3
3
3
)
;
    }
    lowerWall
    {
        type            calculated;
        value           nonuniform List<scalar> 
62
(
2
2
2
2
2
2
2
2
2
2
2
2
2
2
2
2
2
2
2
2
1.99996
1.99995
1.99995
1.99995
1.99998
2
2.00033
2.00091
1.05637
0.0627117
0.0462569
0.0911106
0.0882831
0.0395729
0.0142333
1.94398
1.77275
0.822691
0.306192
0.312202
0.310878
0.10113
0.0158223
1.94398
1.94689
1.94984
1.95913
1.97056
1.96991
1.96112
1.95254
1.94902
1.94907
1.94889
1.94801
1.94796
1.95148
1.95995
1.96123
1.96928
1.96783
1.96774
)
;
    }
    atmosphere
    {
        type            calculated;
        value           nonuniform List<scalar> 
46
(
3
3
3
3
3
3
3
3
3
3
3
3
3
3
3
3
3
3
3
3
3
3
3
3
3
3
3
3
3
3
3
3
3
3
3
3
3
3
3
3
3
3
3
3
3
3
)
;
    }
    defaultFaces
    {
        type            empty;
    }
}


// ************************************************************************* //
