/*--------------------------------*- C++ -*----------------------------------*\
| =========                 |                                                 |
| \\      /  F ield         | OpenFOAM: The Open Source CFD Toolbox           |
|  \\    /   O peration     | Version:  2312                                  |
|   \\  /    A nd           | Website:  www.openfoam.com                      |
|    \\/     M anipulation  |                                                 |
\*---------------------------------------------------------------------------*/
FoamFile
{
    version     2.0;
    format      ascii;
    arch        "LSB;label=32;scalar=64";
    class       volScalarField;
    location    "4";
    object      alpha.air;
}
// * * * * * * * * * * * * * * * * * * * * * * * * * * * * * * * * * * * * * //

dimensions      [0 0 0 0 0 0 0];

internalField   nonuniform List<scalar> 
2268
(
8.33849e-10
8.19167e-10
8.14929e-10
7.61539e-10
5.09989e-10
2.76125e-10
1.11847e-10
6.96386e-11
5.15854e-11
4.5907e-11
4.21763e-11
4.71176e-11
6.14772e-11
8.77174e-11
1.24792e-10
1.81367e-10
2.14759e-10
2.13496e-10
1.85658e-10
1.85476e-10
1.69666e-08
2.96709e-07
5.31635e-07
1.02159e-09
1.792e-09
2.25482e-09
2.37971e-09
1.74897e-09
2.76587e-10
7.35903e-11
1.01457e-10
2.627e-10
2.91529e-10
1.8169e-10
1.96238e-10
2.81922e-10
3.82045e-10
5.68915e-10
8.8333e-10
1.24834e-09
1.17643e-09
1.1119e-09
1.91147e-09
1.38227e-07
8.95159e-07
1.00489e-06
9.92098e-10
2.04373e-09
1.93281e-09
2.10125e-09
1.69375e-09
2.82572e-10
3.28215e-09
1.08549e-09
5.49842e-09
8.17116e-10
7.90526e-10
1.05049e-09
2.64325e-10
2.63543e-10
1.98193e-09
1.60318e-09
8.60849e-09
1.60691e-08
1.57038e-08
7.67334e-08
2.05383e-07
3.85668e-07
4.23738e-07
6.52359e-10
6.5392e-10
6.52359e-10
6.5392e-10
2.79831e-09
1.93934e-07
2.86468e-07
4.80664e-08
6.73085e-10
6.74471e-10
8.3743e-10
2.37782e-08
4.99349e-08
9.76728e-08
2.3457e-08
1.49208e-09
1.48637e-09
2.87526e-09
4.18668e-09
1.00972e-08
6.65552e-08
1.00336e-07
0.000329104
1.58229e-05
0.000124007
0.000190069
5.14369e-05
8.874e-10
1.31784e-08
2.67525e-07
1.71152e-07
7.02726e-10
1.1753e-08
5.0973e-08
2.33014e-08
1.27076e-06
1.12423e-06
2.465e-08
6.49527e-06
0.000119247
0.00024215
0.00022614
0.000138137
5.93975e-08
0.00165397
0.00522283
0.00118219
0.0013071
0.00131984
0.00125214
0.000646381
9.14327e-09
1.23391e-06
1.10584e-05
4.6557e-05
0.000108952
0.000126227
5.67246e-05
1.47135e-05
1.16705e-05
3.93204e-05
9.25765e-05
0.00191738
0.00731493
0.0103213
0.00916375
0.00445913
0.00600504
0.00600343
0.000778589
0.00125262
0.00132672
0.00132671
0.00132671
0.000983861
2.85245e-07
2.81375e-07
4.2473e-05
0.000211167
0.000245866
0.000245831
0.000126458
5.35177e-05
0.000415286
0.000943175
0.00206397
0.00889807
0.0153804
0.0155787
0.011118
0.00510731
0.00521561
0.000280847
0.000304025
0.000963764
0.00123916
0.00110636
0.000774469
0.000325863
7.6436e-05
1.55092e-05
4.19431e-05
5.46649e-05
0.000127644
0.00016432
5.9069e-05
0.000391317
0.000689362
0.000374694
7.3225e-05
0.00259721
0.0133097
0.0133691
0.00345665
0.0028851
0.000229286
0.00120075
0.00267063
0.00549629
0.00914155
0.00917787
0.00917576
0.00588151
0.00347039
0.00346993
0.00346948
0.00346925
0.00341172
0.00256749
0.00256748
0.0025969
0.00609561
0.00607216
0.00607164
0.000229286
0.000366428
0.000679888
0.00102397
0.00117595
0.00125401
0.00204292
0.00582492
0.00741843
0.00567527
0.00388211
0.00334279
0.00321481
0.00256774
0.0025685
0.00295593
0.0071205
0.00877742
0.00671818
0.000682411
0.00458843
0.00541571
0.00541865
0.00495651
0.00357207
0.0047413
0.0153652
0.0188028
0.0188031
0.00676965
0.00373873
0.00373154
0.005413
0.00309871
0.00293511
0.00674089
0.0138744
0.0112044
0.00155707
0.00338288
0.0034033
0.00424555
0.00597092
0.00361723
0.00360728
0.015063
0.0180021
0.0134594
0.0160179
0.026152
0.0262589
0.0257615
0.0193964
0.0198587
0.0200398
0.0155106
0.014993
0.00401908
0.00539468
0.00677585
0.00433245
0.00578524
0.0070944
0.0048292
0.00407876
0.00398606
0.00532076
0.00756919
0.018016
0.0262781
0.0161358
0.0155214
0.0283569
0.0321647
0.0308138
0.016738
0.00367833
0.00676485
0.0218181
0.0198909
0.00883834
0.00716325
0.00392012
0.00393076
0.00393626
0.0134942
0.0233686
0.0157358
0.0154798
0.0169872
0.0155219
0.0155214
0.0155315
0.0216553
0.0129354
0.00237788
0.00236219
0.0190812
0.0476456
0.031188
0.00784857
0.00761483
0.0121181
0.0148257
0.0556839
0.0563888
0.0280261
0.0154756
0.0555424
0.0422152
0.0242665
0.0347463
0.0312032
0.0128269
0.00236237
0.00236655
0.0150352
0.047572
0.0388009
0.00826586
0.0103822
0.0190841
0.0481699
0.0588984
0.0543109
0.0272742
0.031119
0.0923355
0.0912888
0.053364
0.0560386
0.0284765
0.0129353
0.000282804
0.000275313
0.000270389
0.000251721
0.000207507
0.000203751
0.000280491
0.000265782
0.000201502
4.78106e-05
3.28708e-05
3.30612e-05
3.81276e-05
5.08319e-05
5.11728e-05
5.14235e-05
5.16721e-05
7.22202e-05
0.00423896
0.009936
0.0131806
0.0116414
0.0054812
0.000282663
0.000546014
0.000304744
0.000282785
0.000220872
0.000203928
0.000205565
0.000213393
0.000224949
0.000193615
0.000138018
0.000132901
0.000115778
8.80964e-05
5.14413e-05
0.000599608
0.00050326
0.00315305
0.0156307
0.0298196
0.0357024
0.0243462
0.00620452
0.00636941
0.00116473
0.00221311
0.00400438
0.00369003
0.00580694
0.00754178
0.0123605
0.0212855
0.0291235
0.028635
0.0213412
0.015318
0.0185352
0.0310702
0.044279
0.0490448
0.0547211
0.085741
0.0855884
0.0726923
0.0292831
0.0120191
0.0580606
0.0333958
0.022872
0.0320148
0.0577519
0.0725917
0.0727241
0.0727661
0.073936
0.073936
0.073936
0.073936
0.0452996
0.035661
0.0726016
0.0907486
0.0907486
0.0907482
0.0840927
0.0510448
0.0136706
0.0119848
0.0105553
0.0573925
0.0501392
0.0245439
0.0145596
0.0223408
0.025227
0.0227744
0.0175843
0.0303458
0.0699542
0.0739275
0.0494381
0.00442376
0.000398825
0.0125102
0.0775486
0.0895288
0.0495912
0.00253524
0.000264585
0.000259667
0.000328488
0.000335452
0.0328833
0.0108972
0.00134297
0.00126992
0.00113665
0.00112613
0.000720551
0.000251304
0.000251337
0.000255434
0.000251529
0.000245124
0.000244858
0.000246578
0.000247155
0.00219039
0.00679432
0.000374602
0.000277674
0.000210495
0.000126287
6.13383e-05
9.33118e-05
0.43641
0.450541
0.453097
0.427322
0.370068
0.303717
0.254227
0.208453
0.161061
0.115819
0.072745
0.0389351
0.0216483
0.0113552
0.00558087
0.00155696
6.30853e-05
6.1297e-05
6.19429e-05
6.00891e-05
6.07214e-05
5.67986e-05
5.71927e-05
0.999673
0.9994
0.999095
0.998986
0.998889
0.996919
0.977517
0.952283
0.913998
0.869495
0.795055
0.715308
0.65816
0.598725
0.546269
0.468496
0.334603
0.218382
0.213719
0.271029
0.308694
0.292082
0.259439
0.999999
0.999995
1
1
1
1
1
1
0.999976
0.999913
0.99906
0.994809
0.991786
0.992546
0.993186
0.996126
0.999222
0.976456
0.944391
0.944189
0.960794
0.964981
0.954281
1
1
1
0.999999
0.999997
0.999998
0.999999
1
1
1
1
0.999958
0.999999
0.999999
0.999999
0.999992
0.999994
0.999951
0.99986
0.998458
0.999654
0.999978
0.999987
1
1
0.999999
0.999997
0.999997
0.999997
1
0.999999
1
1
1
0.999999
0.999998
0.999992
0.99999
0.999989
0.999989
0.999992
0.999999
0.999996
0.999977
0.99997
0.99997
1
1
0.999999
0.999998
0.999998
0.999995
0.999983
0.999956
0.999982
1
1
0.999993
0.99999
0.99999
0.99999
0.99999
0.999997
1
1
0.999998
0.999997
0.999997
0.999997
1
1
1
1
1
0.999991
0.999933
0.999932
0.999937
0.999985
0.999978
0.999973
0.99999
1
1
1
0.999998
0.999995
0.999998
0.999999
0.999998
0.999998
0.999997
1
1
1
1
1
0.999988
0.999937
0.999932
0.999933
0.999933
0.999931
0.99993
0.999965
0.999998
0.999998
0.999998
0.999982
0.99997
0.999979
0.999998
0.999999
0.999999
0.999999
1
1
1
1
1
0.999998
0.999996
0.999974
0.999963
0.999948
0.999934
0.999932
0.999956
0.999984
0.999982
0.999983
0.999968
0.999966
0.999966
0.999989
0.999998
0.999998
0.999999
1
1
1
1
1
1
1
1
1
0.999999
0.999992
0.999985
0.999979
0.99998
0.99998
0.999982
0.999987
0.999968
0.999966
0.999967
0.999975
0.999989
0.999998
1
1
1
1
1
1
1
1
1
1
1
1
1
0.999997
0.999996
1
1
0.999997
0.999976
0.999963
0.999963
0.999967
0.999994
1
1
1
1
1
1
1
1
1
1
1
1
1
1
1
1
1
1
1
0.999997
0.99998
0.999981
0.999997
1
1
1
1
1
1
1
1
1
1
1
1
1
1
1
1
1
1
1
1
1
0.999999
0.999999
1
1
1
1
1
1
1
1
1
1
1
1
1
1
1
1
1
1
1
1
1
1
1
1
1
1
1
1
1
1
1
1
1
1
1
1
1
1
1
1
1
1
1
1
1
1
1
1
1
1
1
1
1
1
1
1
1
1
1
1
1
1
1
1
1
1
1
1
1
1
1
1
1
1
1
1
1
1
1
1
1
1
1
1
1
1
1
1
1
1
1
1
1
1
1
1
1
1
1
1
1
1
1
1
1
1
1
1
1
1
1
1
1
1
1
1
1
1
1
1
1
1
1
1
1
1
1
1
1
1
1
1
1
1
1
1
1
1
1
1
1
1
1
1
1
1
1
1
1
1
1
1
1
1
1
1
1
1
1
1
1
1
1
1
1
1
1
1
1
1
1
1
1
1
1
1
1
1
1
1
1
1
1
1
1
1
1
1
1
1
1
1
1
1
1
1
1
1
1
1
1
1
1
1
1
1
1
1
1
1
1
1
1
1
1
1
1
1
1
1
1
1
1
1
1
1
1
1
1
1
1
1
1
1
1
1
1
1
1
1
1
1
1
1
1
1
1
1
1
1
1
1
1
1
1
1
0.999999
0.999999
0.999999
0.999999
1
1
1
1
1
1
1
1
1
1
1
1
1
1
1
1
1
1
0.999999
0.999999
0.999999
0.999999
0.999999
1
1
1
1
1
1
1
1
1
1
1
1
1
1
1
1
1
1
0.999999
0.999999
0.999999
0.999999
0.999999
1
1
1
1
1
1
1
1
1
1
1
1
1
1
1
1
1
1
0.999999
0.999999
0.999999
0.999999
1
1
1
1
1
1
1
1
1
1
1
1
1
1
1
1
1
1
1
0.999999
0.999999
1
1
1
1
1
1
1
1
1
1
1
1
1
1
1
1
1
1
1
1
1
0.999999
0.999999
1
1
1
1
1
1
1
1
1
1
1
1
1
1
1
1
1
1
1
1
1
1
1
1
1
1
1
1
1
1
1
1
1
1
1
1
1
1
1
1
1
1
1
1
1
1
1
1
1
1
1
1
1
1
1
1
1
1
1
1
1
1
1
1
1
1
1
1
1
1
1
1
1
1
1
1
1
1
1
1
1
1
1
1
1
1
1
1
1
1
1
1
1
1
1
1
1
1
1
1
1
1
1
1
1
1
1
1
1
1
1
1
1
1
1
1
1
1
1
1
1
1
1
1
1
1
1
1
1
1
1
1
1
1
1
1
1
1
1
1
1
1
1
1
1
1
1
1
1
1
1
1
1
1
1
1
1
0.00368596
0.00252304
0.00241645
0.00242329
0.00381402
0.00382956
0.0109629
0.0214738
0.00436001
0.0319665
0.0483617
0.0483929
0.0120128
0.0385648
0.0483789
0.020655
0.000415485
0.000907899
0.00459666
-1.6158e-06
0.000183806
0.000259064
0.000289691
0.00034717
5.35159e-05
5.48385e-05
5.23093e-05
0.000336964
0.226335
0.213031
0.199676
0.185061
0.937226
0.930503
0.92449
0.91743
0.999994
0.999997
0.998897
0.99795
0.999989
0.999999
0.999999
0.999998
0.999998
0.999997
0.999999
1
0.999998
0.999999
0.999999
0.999999
0.999999
0.999999
0.999998
0.999999
0.999998
0.999997
0.999998
0.999999
0.999998
0.999997
0.999997
0.999999
1
0.999999
0.999999
0.999999
1
1
1
1
1
1
1
1
1
1
1
1
1
1
1
1
1
1
1
1
1
1
1
1
1
1
1
1
1
1
1
1
1
1
1
1
1
1
1
1
1
1
1
1
1
1
1
1
1
1
1
1
1
1
1
1
1
1
1
1
1
1
1
1
1
1
1
1
1
1
1
1
1
1
1
1
1
1
1
1
1
1
1
1
1
1
1
1
1
1
1
1
1
1
1
1
1
1
1
1
0.00243315
0.00235381
0.0155242
0.0477147
0.0362954
0.00933974
0.016486
0.0195631
0.0489739
0.0500061
0.0412946
0.0556809
0.0931976
0.0932568
0.0932568
0.0632318
0.0578597
0.0180618
0.00976218
0.00983317
0.00236956
0.0245259
0.0477302
0.0477158
0.0287481
0.02932
0.0451838
0.0467005
0.0296444
0.0587181
0.069397
0.0932233
0.0672727
0.0692882
0.0470838
0.0420742
0.0205822
0.0151844
0.0213299
0.00914905
0.0425171
0.0477158
0.0355644
0.0285446
0.136181
0.187324
0.0694654
0.0296418
0.0297945
0.0155455
0.0320678
0.0421065
0.0567958
0.019417
0.0172364
0.0223121
0.0223081
0.00211931
0.00359676
0.0241886
0.0220614
0.000184301
0.0600984
0.187338
0.187336
0.176586
0.0496276
0.000968141
0.000983112
0.000957946
0.0200108
0.0440835
0.0441101
0.0173669
0.00397271
0.0102071
-3.65708e-08
-2.77414e-09
0.000742349
0.000299551
0.000184558
0.035586
0.186517
0.187369
0.187299
0.153571
0.0192279
0.0010845
0.00101384
0.00266056
0.00413995
0.0376864
0.0323349
0.00396688
0.0025302
8.88916e-05
1.6663e-06
7.25924e-10
0.000118661
0.000184176
0.00107817
0.0813123
0.187366
0.187392
0.187369
0.0420159
0.00105686
0.000677596
0.00152602
0.00191865
0.00539015
0.0146769
0.00462356
0.00220007
2.7424e-09
7.14412e-10
2.73087e-09
9.36841e-06
0.000243529
2.04958e-05
0.00302911
0.0243635
0.0602141
0.0518327
0.0162681
-4.53724e-07
8.87092e-05
0.000172356
0.00053951
0.00110298
0.000708105
0.00068642
0.0020267
0.163374
0.0986176
0.0353358
0.00659926
0.00025889
2.5623e-06
3.04696e-06
0.000360398
0.000567084
0.000370905
1.62943e-06
8.6035e-15
3.59353e-20
6.8327e-21
2.25942e-20
-2.137e-21
0.0190564
0.0564516
0.0088573
0.910312
0.839783
0.698364
0.543004
0.419412
0.266403
0.107404
0.0378245
0.0389738
0.0728052
0.138091
0.230421
0.327844
0.415366
0.494096
0.565453
0.647266
0.71075
0.531099
0.998385
0.99995
0.999218
0.990247
0.963905
0.928111
0.856417
0.675513
0.621496
0.72709
0.856977
0.930877
0.967943
0.985736
0.994261
0.997339
0.996199
0.994407
0.993638
0.999993
0.999991
0.999995
0.999997
0.99968
0.996783
0.99171
0.990744
0.995256
0.998882
0.999428
0.999826
0.999981
0.999995
0.999994
0.999994
0.999991
0.999791
0.999883
0.999999
0.999998
0.999996
0.999983
0.999961
0.99997
0.999961
0.999533
0.999741
0.999999
0.999999
0.999998
0.99996
0.999861
0.999867
0.999845
0.999846
0.999899
0.999941
0.999999
0.999984
0.999914
0.999867
0.999868
0.999927
0.999997
0.999999
1
1
1
0.999957
0.999748
0.999748
0.999748
0.999864
0.999881
0.999881
0.999894
0.999999
0.999917
0.999831
0.999843
0.999864
0.999872
0.999957
0.999998
1
0.999999
0.999967
0.999764
0.999748
0.999754
0.999956
0.999965
0.999972
0.99995
0.999953
0.999997
0.999919
0.999833
0.999859
0.999903
0.999892
0.999947
0.999992
0.999993
0.999996
0.999853
0.999753
0.999755
0.999813
0.999963
0.999973
0.999973
0.999972
0.999923
0.999998
0.999954
0.999929
0.999944
0.999995
0.999993
0.999984
0.999986
0.999994
0.999994
0.999888
0.999801
0.99988
0.999963
0.999941
0.999905
0.999912
0.999967
0.999922
0.999999
0.99998
0.999952
0.999972
0.999994
0.999996
0.999995
0.999983
0.99999
0.99999
0.999974
0.99997
0.999983
0.999986
0.999985
0.999914
0.999875
0.999897
0.999944
0.999999
0.999992
0.999991
0.999982
0.999959
0.999976
0.999995
0.999983
0.999955
0.999943
0.999942
0.999936
0.999931
0.999953
0.999987
0.999979
0.999875
0.999875
0.999981
1
1
1
0.999994
0.999956
0.999956
0.999959
0.999969
0.999977
0.999977
0.999969
0.999941
0.999916
0.999916
0.999981
0.999981
0.999877
0.999906
0.999995
1
1
1
1
0.999989
0.999957
0.999954
0.999954
0.999966
0.999998
0.999997
0.99999
0.999919
0.999915
0.999946
0.999967
0.999876
0.999958
0.999999
1
1
1
1
1
0.999995
0.999973
0.999967
0.999981
0.999999
0.999999
0.999996
0.999934
0.999916
0.999939
0.999888
0.999876
0.99998
1
1
1
1
1
1
1
1
0.999999
0.999999
0.999999
1
0.999999
0.999962
0.999921
0.999942
0.999887
0.999924
0.999997
1
1
1
1
1
1
1
1
0.999999
0.999999
0.999999
1
1
0.999997
0.999978
0.999986
0.999931
0.999989
0.999997
1
1
1
1
1
1
1
1
0.999999
0.999999
1
1
1
1
1
0.999996
0.999999
0.999997
0.999998
1
1
1
1
1
1
1
1
1
1
1
1
1
1
1
0.999998
1
1
1
1
1
1
1
1
1
1
1
1
1
1
1
1
1
1
1
1
1
1
1
1
1
1
1
1
1
1
1
1
1
1
1
1
1
1
1
1
1
1
1
1
1
1
1
1
1
1
1
1
1
1
1
1
1
1
1
1
1
1
1
1
1
1
1
1
1
1
1
1
1
1
1
1
1
1
1
1
1
1
1
1
1
1
1
1
1
1
1
1
1
1
1
1
1
1
1
1
1
1
1
1
1
1
1
1
1
1
1
1
1
1
1
1
1
0.999997
1
1
1
1
1
1
1
1
1
1
1
1
1
1
1
1
1
1
0.999996
1
1
1
1
1
1
1
1
1
1
1
1
1
1
1
1
1
1
0.999996
1
1
1
1
1
1
1
1
1
1
1
1
1
0.999997
0.999993
0.999997
1
1
0.999997
1
1
1
1
1
1
1
1
1
1
1
1
1
0.999997
0.999993
0.999993
0.999999
1
0.999999
1
1
1
1
1
1
1
1
1
1
1
1
1
0.999999
0.999995
0.999993
0.999993
0.999999
0.999998
1
1
1
1
1
1
1
1
1
1
1
1
1
1
0.999999
0.999993
0.999993
0.999994
0.999997
1
1
1
1
1
1
1
1
1
1
1
1
1
1
1
0.999999
0.999996
0.999998
0.999999
1
1
1
1
1
1
1
1
1
1
1
1
1
1
1
1
1
1
1
1
1
1
1
1
1
1
1
1
1
1
1
1
1
1
1
1
1
1
1
1
1
1
1
1
1
1
1
1
1
1
1
1
1
1
1
1
1
1
1
1
1
1
1
1
1
1
1
1
1
1
1
1
1
1
1
1
)
;

boundaryField
{
    leftWall
    {
        type            alphaContactAngle;
        thetaProperties 
6
(
(galistan air) 90 0 0 0
(oil galistan) 90 0 0 0
(water oil) 90 0 0 0
(water air) 90 0 0 0
(oil air) 90 0 0 0
(water galistan) 90 0 0 0
);
        value           nonuniform List<scalar> 
50
(
8.33849e-10
1.02159e-09
9.92098e-10
6.52359e-10
1.58229e-05
0.00118219
0.000778589
0.000280847
0.000282804
0.000282663
0.00636941
0.0580606
0.0573925
0.0328833
0.43641
0.999673
0.999999
1
1
1
1
1
1
1
1
1
1
1
1
1
1
1
1
1
1
1
1
1
1
1
1
1
1
1
1
1
1
1
1
1
)
;
    }
    rightWall
    {
        type            alphaContactAngle;
        thetaProperties 
6
(
(galistan air) 90 0 0 0
(oil galistan) 90 0 0 0
(water oil) 90 0 0 0
(water air) 90 0 0 0
(oil air) 90 0 0 0
(water galistan) 90 0 0 0
);
        value           nonuniform List<scalar> 
50
(
0.00607164
0.00671818
0.0112044
0.014993
0.016738
0.0129354
0.0128269
0.0129353
0.00976218
0.0151844
0.0223081
0.0102071
0.0025302
0.00220007
0.0020267
0.0088573
0.531099
0.993638
0.999883
0.999941
0.999894
0.999953
0.999923
0.999922
0.999944
0.999981
0.999995
0.999999
1
1
1
1
1
1
1
1
1
1
0.999997
0.999996
0.999996
0.999997
0.999999
0.999998
0.999997
0.999999
1
1
1
1
)
;
    }
    lowerWall
    {
        type            alphaContactAngle;
        thetaProperties 
6
(
(galistan air) 90 0 0 0
(oil galistan) 90 0 0 0
(water oil) 90 0 0 0
(water air) 90 0 0 0
(oil air) 90 0 0 0
(water galistan) 90 0 0 0
);
        value           nonuniform List<scalar> 
62
(
8.33849e-10
8.19167e-10
8.14929e-10
7.61539e-10
5.09989e-10
2.76125e-10
1.11847e-10
6.96386e-11
5.15854e-11
4.5907e-11
4.21763e-11
4.71176e-11
6.14772e-11
8.77174e-11
1.24792e-10
1.81367e-10
2.14759e-10
2.13496e-10
1.85658e-10
1.85476e-10
1.69666e-08
2.96709e-07
5.31635e-07
5.31635e-07
1.00489e-06
4.23738e-07
0.000329104
0.00522283
0.00600343
0.00521561
0.0028851
0.00368596
0.00252304
0.00241645
0.00242329
0.000229286
0.000229286
0.000682411
0.00155707
0.00401908
0.00367833
0.00237788
0.00236237
0.000229286
0.00120075
0.00267063
0.00549629
0.00914155
0.00917787
0.00917576
0.00588151
0.00347039
0.00346993
0.00346948
0.00346925
0.00341172
0.00256749
0.00256748
0.0025969
0.00609561
0.00607216
0.00607164
)
;
    }
    atmosphere
    {
        type            inletOutlet;
        inletValue      uniform 1;
        value           nonuniform List<scalar> 
46
(
1
1
1
1
1
1
1
1
1
1
1
1
1
1
1
1
1
1
1
1
1
1
1
1
1
1
1
1
1
1
1
1
1
1
1
1
1
1
1
1
1
1
1
1
1
1
)
;
    }
    defaultFaces
    {
        type            empty;
    }
}


// ************************************************************************* //
