/*--------------------------------*- C++ -*----------------------------------*\
| =========                 |                                                 |
| \\      /  F ield         | OpenFOAM: The Open Source CFD Toolbox           |
|  \\    /   O peration     | Version:  2312                                  |
|   \\  /    A nd           | Website:  www.openfoam.com                      |
|    \\/     M anipulation  |                                                 |
\*---------------------------------------------------------------------------*/
FoamFile
{
    version     2.0;
    format      ascii;
    arch        "LSB;label=32;scalar=64";
    class       volScalarField;
    location    "4";
    object      p;
}
// * * * * * * * * * * * * * * * * * * * * * * * * * * * * * * * * * * * * * //

dimensions      [1 -1 -2 0 0 0 0];

internalField   nonuniform List<scalar> 
2268
(
5179.17
5197.15
5231.56
5278.19
5331.8
5386.24
5434.7
5470.65
5489.44
5489.11
5469.36
5431.7
5379.48
5317.18
5249.79
5181.75
5116.68
5057.8
5007.15
4965.47
4933.4
4911.54
4900.25
4377.84
4395.73
4431.05
4478.98
4534.19
4590.44
4640.66
4677.9
4697.27
4697.03
4676.76
4638.21
4584.9
4521.44
4452.98
4384.1
4318.33
4258.95
4208.03
4166.14
4133.89
4111.53
4099.84
3570.68
3588.8
3625.82
3676.27
3734.64
3794.56
3848.44
3888.47
3909.12
3909.09
3887.87
3847.56
3792.1
3726.3
3655.73
3585.17
3517.99
3457.65
3406.23
3363.92
3331.36
3308.3
3296.17
2756.08
2775.59
2815.54
2869.92
2933.06
2998.64
3058.29
3102.65
3125.12
3125.42
3102.74
3059.8
3001.14
2931.8
2857.98
2784.87
2715.48
2653.69
2601.51
2558.49
2525.53
2501.66
2489.07
1933.6
1955.84
1999.85
2059.61
2129.15
2202.53
2270.26
2320.71
2345.45
2346.29
2321.42
2274.87
2212.03
2137.82
2059.42
1982.72
1910.12
1846.71
1794.15
1750.22
1715.7
1692.06
1680.65
1188.7
1205.45
1238.49
1285.64
1344.49
1412.65
1484.66
1544.02
1570.95
1572.61
1546.04
1495.98
1432.03
1360.24
1290.95
1229.73
1175.3
1132.16
1100.15
1074.02
1055.17
1046.04
1047.67
808.355
810.593
816.744
827.551
843.895
866.901
898.019
930.047
947.447
948.261
934.405
908.917
878.568
847.192
821.887
803.66
790.225
782.521
779.262
777.754
778.751
782.096
789.554
716.544
713.801
709.143
702.712
694.532
685.097
675.741
668.115
664.791
665.637
668.662
673.339
678.765
684.854
691.831
698.073
703.748
708.955
714.035
718.521
721.824
725.304
731.456
2262.93
2250.74
2276.18
2325.04
2388.42
2457.43
2539.21
2630.35
2713.63
2782.3
2818.85
2840.14
2868.95
2910.95
2980.43
3053.3
3114.57
3151.1
3159.01
1533.5
1514.83
1542.14
1588.89
1648.42
1713.83
1786.89
1870.14
1954.68
2025.17
2057.28
2073.39
2100.14
2140.06
2211.76
2287.3
2351.14
2386.92
2389.92
1067.44
1076.88
1124.67
1157.63
1184.07
1204.97
1227.73
1261.83
1309.62
1372.97
1414.26
1426.62
1430.03
1462.98
1536.86
1611.53
1666.89
1697.2
1706.27
922.771
954.659
1014.27
1043.94
1041.08
1025.63
1011.49
1003.4
1004.03
1022.61
1048.99
1052.24
1047.63
1066.09
1099.56
1138.3
1174.73
1195.49
1211.63
861.355
885.056
940.146
976.22
978.877
963.055
950.241
940.352
931.082
919.016
916.756
919.765
925.16
930.912
930.237
926.696
932.426
942.44
951.676
802.408
796.148
849.873
890.403
905.056
894.891
885.214
880.908
874.131
862.758
858.056
863.395
868.439
872.69
874.572
864.573
853.925
857.447
863.263
748.654
728.96
761.056
796.164
819.192
821.561
818.396
817.753
814.029
802.198
796.421
802.163
806.529
812.646
816.196
808.97
805.005
807.184
811.638
676.192
682.491
693.071
709.196
730.815
746.862
754.008
756.169
753.981
742.241
736.873
740.725
745.761
750.942
754.895
751.526
752.756
755.454
758.107
618.732
616.825
613.42
608.402
601.894
594.327
586.509
579.262
574.708
574.637
579.02
583.881
589.118
594.912
601.16
606.564
611.453
616.04
620.269
624.44
627.94
629.703
630.059
486.953
486.387
484.611
481.349
476.686
471.173
465.687
460.994
458.347
458.764
460.14
463.23
467.131
471.824
476.509
481.11
485.157
489.049
491.762
493.997
496.587
498.797
499.994
356.222
357.303
357.253
355.571
352.11
347.928
344.02
340.951
339.395
339.29
340.57
342.81
345.695
349.071
352.596
357.356
361.958
366.577
369.932
372.802
375.896
377.842
378.398
232.234
233.245
234.242
234.096
233.152
231.888
230.868
230.312
231.183
233.393
236.815
241.201
246.263
251.016
255.333
259.702
265.149
271.025
277.275
281.98
286.305
289.213
290.891
137.111
136.904
137.626
138.82
140.749
143.221
145.827
148.909
152.79
157.513
162.93
168.956
175.595
181.949
187.696
192.51
197.475
202.315
208.816
213.225
216.535
219.95
223.004
68.4482
68.4935
69.3767
70.9
73.8114
77.4449
81.4017
86.1045
91.3261
97.0748
102.85
108.525
114.172
120.005
125.605
131.178
135.942
140.107
143.845
147.056
149.218
151.937
155.339
16.7978
16.483
16.7443
17.8361
19.7658
22.0362
24.8378
28.2778
32.3096
36.8968
42.2113
47.6082
52.866
58.1027
62.9283
67.8709
73.0912
77.8546
80.8697
81.8615
82.0841
83.7113
86.7447
-1.12339
-1.0899
-1.00245
-0.902556
-0.829857
-0.713933
-0.156039
0.769738
2.0545
3.66749
5.93275
8.46147
11.0343
13.6692
16.0208
18.4246
21.506
25.0649
26.8333
26.3669
24.8469
24.9088
26.5381
-1.3694
-1.37508
-1.38309
-1.38414
-1.38157
-1.37729
-1.38536
-1.37988
-1.36471
-1.32422
-1.25794
-1.13844
-0.942358
-0.741812
-0.411907
-0.400483
-0.79818
-0.499036
0.480967
0.826376
0.387293
0.100655
0.30353
-1.49741
-1.5051
-1.51297
-1.51656
-1.51768
-1.52005
-1.52897
-1.53801
-1.54683
-1.55848
-1.57931
-1.60644
-1.62039
-1.61752
-1.61148
-1.60528
-1.61129
-1.61639
-1.63084
-1.62459
-1.62289
-1.61778
-1.62282
-1.63978
-1.64329
-1.64783
-1.65132
-1.65405
-1.65736
-1.66248
-1.66865
-1.67688
-1.68721
-1.69901
-1.71454
-1.72957
-1.73943
-1.74415
-1.74613
-1.75852
-1.79785
-1.82241
-1.81663
-1.78458
-1.77335
-1.77689
-1.77847
-1.78047
-1.78352
-1.78666
-1.78973
-1.79303
-1.79688
-1.80304
-1.81112
-1.82022
-1.82925
-1.84081
-1.85324
-1.86309
-1.86845
-1.87138
-1.8764
-1.88975
-1.90863
-1.91974
-1.92197
-1.91838
-1.91569
-1.91531
-1.91672
-1.91904
-1.9219
-1.92508
-1.92862
-1.93253
-1.93853
-1.9452
-1.95189
-1.959
-1.96836
-1.97899
-1.98809
-1.9944
-1.99934
-2.005
-2.01501
-2.02908
-2.04108
-2.04695
-2.04623
-2.04058
-2.05082
-2.05196
-2.05391
-2.0566
-2.0599
-2.06393
-2.06893
-2.07435
-2.07997
-2.08494
-2.09089
-2.0982
-2.10671
-2.11421
-2.12016
-2.12525
-2.13058
-2.1388
-2.15048
-2.1621
-2.16976
-2.1727
-2.17126
-2.18524
-2.18628
-2.18798
-2.19052
-2.19368
-2.19779
-2.20324
-2.20863
-2.21416
-2.21904
-2.22472
-2.23086
-2.23726
-2.24306
-2.24841
-2.2534
-2.25893
-2.26622
-2.27581
-2.28515
-2.29203
-2.29562
-2.2964
-2.31875
-2.31968
-2.32123
-2.32353
-2.32647
-2.33
-2.33513
-2.34023
-2.34549
-2.35091
-2.3567
-2.36288
-2.36846
-2.37349
-2.37831
-2.38312
-2.38866
-2.39522
-2.40271
-2.40944
-2.41473
-2.41841
-2.42115
-2.45146
-2.4523
-2.45372
-2.45582
-2.45851
-2.46184
-2.46604
-2.47058
-2.47536
-2.48043
-2.48597
-2.4919
-2.49744
-2.50249
-2.50717
-2.512
-2.51747
-2.52405
-2.53048
-2.53599
-2.54002
-2.54353
-2.54723
-2.58346
-2.58424
-2.58554
-2.58747
-2.58994
-2.59298
-2.59662
-2.60065
-2.60498
-2.6096
-2.61453
-2.6197
-2.62483
-2.6297
-2.63448
-2.63938
-2.64483
-2.651
-2.65719
-2.66268
-2.66716
-2.67072
-2.67422
-2.71486
-2.71558
-2.71679
-2.71856
-2.72083
-2.7236
-2.72683
-2.73045
-2.73437
-2.73855
-2.74298
-2.74758
-2.75223
-2.75685
-2.76147
-2.76625
-2.77136
-2.77684
-2.78241
-2.78777
-2.79281
-2.79701
-2.80102
-2.84572
-2.8464
-2.84752
-2.84917
-2.85125
-2.85378
-2.8567
-2.85996
-2.86351
-2.86731
-2.87132
-2.87548
-2.87973
-2.88403
-2.88841
-2.89294
-2.89768
-2.90263
-2.90768
-2.91266
-2.91748
-2.92209
-2.92668
-2.97611
-2.97675
-2.97781
-2.97934
-2.98127
-2.98358
-2.98624
-2.98921
-2.99244
-2.99589
-2.99953
-3.00332
-3.00722
-3.01121
-3.0153
-3.01953
-3.02391
-3.02844
-3.03307
-3.03772
-3.04234
-3.04694
-3.05169
-3.1061
-3.10672
-3.10772
-3.10915
-3.11094
-3.11307
-3.1155
-3.11821
-3.12115
-3.12429
-3.12761
-3.13107
-3.13464
-3.13833
-3.14213
-3.14605
-3.1501
-3.15427
-3.15854
-3.16287
-3.16724
-3.17169
-3.17629
-3.23575
-3.23635
-3.2373
-3.23865
-3.24032
-3.24229
-3.24452
-3.24699
-3.24967
-3.25253
-3.25555
-3.25871
-3.26199
-3.26538
-3.26889
-3.27251
-3.27625
-3.28009
-3.28403
-3.28805
-3.29214
-3.29632
-3.30061
-3.36513
-3.36572
-3.36663
-3.3679
-3.36946
-3.37128
-3.37333
-3.37558
-3.37802
-3.38061
-3.38336
-3.38623
-3.38923
-3.39234
-3.39557
-3.3989
-3.40234
-3.40589
-3.40952
-3.41323
-3.41703
-3.42091
-3.42485
-3.4943
-3.49487
-3.49574
-3.49695
-3.49841
-3.50008
-3.50195
-3.504
-3.5062
-3.50855
-3.51104
-3.51365
-3.51638
-3.51922
-3.52217
-3.52523
-3.52838
-3.53164
-3.53498
-3.5384
-3.5419
-3.54546
-3.54906
-3.62331
-3.62386
-3.62469
-3.62583
-3.62719
-3.62873
-3.63042
-3.63226
-3.63424
-3.63635
-3.63859
-3.64095
-3.64342
-3.646
-3.64869
-3.65148
-3.65437
-3.65735
-3.66042
-3.66355
-3.66676
-3.67001
-3.67328
-3.75219
-3.75272
-3.75351
-3.75458
-3.75583
-3.75723
-3.75875
-3.76039
-3.76215
-3.76403
-3.76603
-3.76815
-3.77038
-3.77271
-3.77515
-3.77768
-3.78032
-3.78303
-3.78583
-3.78869
-3.79161
-3.79457
-3.79753
-3.88093
-3.88148
-3.88223
-3.88322
-3.88436
-3.88561
-3.88695
-3.88839
-3.88994
-3.89159
-3.89337
-3.89525
-3.89725
-3.89934
-3.90154
-3.90383
-3.90621
-3.90868
-3.91122
-3.91381
-3.91646
-3.91915
-3.92182
-4.00957
-4.01013
-4.01086
-4.01177
-4.0128
-4.01389
-4.01504
-4.01628
-4.01761
-4.01905
-4.0206
-4.02227
-4.02404
-4.02591
-4.02788
-4.02993
-4.03208
-4.0343
-4.03659
-4.03894
-4.04133
-4.04375
-4.04615
-4.13818
-4.13872
-4.13942
-4.14026
-4.14116
-4.14207
-4.14303
-4.14407
-4.14518
-4.14641
-4.14775
-4.1492
-4.15076
-4.15241
-4.15416
-4.156
-4.15791
-4.1599
-4.16196
-4.16406
-4.16621
-4.16838
-4.17053
-4.26674
-4.26726
-4.26791
-4.26868
-4.26947
-4.27021
-4.27095
-4.27176
-4.27266
-4.27366
-4.2748
-4.27605
-4.2774
-4.27886
-4.2804
-4.28202
-4.28372
-4.28549
-4.28732
-4.2892
-4.29112
-4.29305
-4.29497
-4.39521
-4.3957
-4.39632
-4.39704
-4.39773
-4.3983
-4.3988
-4.39935
-4.40002
-4.40082
-4.40175
-4.40281
-4.40398
-4.40524
-4.40659
-4.40801
-4.40951
-4.41107
-4.41268
-4.41435
-4.41605
-4.41776
-4.41946
-4.52352
-4.52398
-4.52459
-4.52521
-4.52586
-4.52625
-4.52652
-4.52681
-4.52725
-4.52785
-4.5286
-4.52949
-4.53049
-4.53157
-4.53274
-4.53397
-4.53527
-4.53663
-4.53805
-4.53951
-4.541
-4.54251
-4.544
-4.65158
-4.65204
-4.65265
-4.65338
-4.65378
-4.65397
-4.654
-4.65408
-4.65433
-4.65476
-4.65535
-4.65608
-4.65692
-4.65784
-4.65884
-4.6599
-4.66102
-4.66219
-4.66341
-4.66468
-4.66598
-4.6673
-4.66859
-4.77929
-4.77972
-4.7803
-4.78092
-4.78126
-4.78132
-4.78119
-4.78113
-4.78124
-4.78153
-4.78199
-4.78258
-4.78328
-4.78406
-4.78491
-4.7858
-4.78675
-4.78775
-4.78879
-4.78987
-4.79098
-4.79212
-4.79324
-4.90662
-4.90698
-4.9075
-4.90807
-4.90833
-4.90833
-4.90811
-4.90797
-4.90799
-4.90819
-4.90854
-4.90902
-4.90959
-4.91024
-4.91093
-4.91168
-4.91247
-4.91329
-4.91416
-4.91507
-4.91601
-4.91697
-4.91792
-5.0336
-5.03387
-5.03433
-5.03478
-5.035
-5.03499
-5.03479
-5.03463
-5.03461
-5.03475
-5.03503
-5.03541
-5.03586
-5.03638
-5.03694
-5.03754
-5.03817
-5.03884
-5.03954
-5.04028
-5.04105
-5.04185
-5.04264
-5.1603
-5.1605
-5.16084
-5.16117
-5.16136
-5.16137
-5.16125
-5.16115
-5.16114
-5.16126
-5.16148
-5.16177
-5.16212
-5.1625
-5.16293
-5.16338
-5.16386
-5.16438
-5.16492
-5.1655
-5.16612
-5.16676
-5.1674
-5.28684
-5.28695
-5.28717
-5.28738
-5.28754
-5.28761
-5.2876
-5.28759
-5.28764
-5.28775
-5.28793
-5.28814
-5.28838
-5.28864
-5.28892
-5.28923
-5.28956
-5.28992
-5.29031
-5.29074
-5.2912
-5.29169
-5.29218
-5.41331
-5.41335
-5.41341
-5.41347
-5.41364
-5.41381
-5.41393
-5.41403
-5.41414
-5.41426
-5.41439
-5.41452
-5.41465
-5.41479
-5.41494
-5.4151
-5.41528
-5.41548
-5.41572
-5.41599
-5.41629
-5.41663
-5.41698
-5.53977
-5.53976
-5.53968
-5.53963
-5.53982
-5.54008
-5.54031
-5.54051
-5.54067
-5.54079
-5.54088
-5.54093
-5.54096
-5.54097
-5.54098
-5.541
-5.54102
-5.54106
-5.54114
-5.54125
-5.5414
-5.54159
-5.5418
-5.66631
-5.66628
-5.66611
-5.66594
-5.6662
-5.66655
-5.66689
-5.66716
-5.66734
-5.66744
-5.66747
-5.66743
-5.66735
-5.66724
-5.6671
-5.66696
-5.66682
-5.6667
-5.66659
-5.66653
-5.66651
-5.66655
-5.66662
624.022
619.69
616.199
611.029
497.113
493.742
490.803
487.959
376.815
375.501
375.659
377.485
291.365
292.475
295.046
297.906
225.347
226.929
228.624
230.645
158.349
160.308
162.208
163.971
89.5011
91.3343
93.186
95.0514
28.2945
29.3066
30.2394
31.0832
0.723564
0.977176
1.32727
1.55221
-1.62844
-1.62781
-1.61437
-1.59817
-1.79135
-1.80306
-1.81413
-1.80998
-1.91937
-1.92215
-1.92278
-1.92051
-2.03469
-2.02982
-2.02623
-2.02451
-2.16602
-2.16134
-2.15746
-2.15567
-2.29637
-2.29688
-2.29858
-2.30122
-2.42312
-2.42488
-2.42757
-2.43135
-2.55093
-2.55377
-2.5573
-2.56155
-2.67806
-2.68105
-2.68464
-2.68873
-2.80457
-2.80731
-2.81054
-2.8141
-2.93029
-2.93285
-2.93566
-2.93865
-3.05536
-3.05783
-3.06041
-3.063
-3.17981
-3.18215
-3.18452
-3.18687
-3.30387
-3.30602
-3.30819
-3.31036
-3.42781
-3.42974
-3.4317
-3.43367
-3.55174
-3.55348
-3.55523
-3.55699
-3.6757
-3.67726
-3.67882
-3.68039
-3.7997
-3.8011
-3.8025
-3.8039
-3.92377
-3.92502
-3.92627
-3.92752
-4.0479
-4.04901
-4.05013
-4.05124
-4.17209
-4.17309
-4.17408
-4.17508
-4.29635
-4.29724
-4.29812
-4.29901
-4.42068
-4.42147
-4.42225
-4.42303
-4.54508
-4.54577
-4.54645
-4.54714
-4.66953
-4.67014
-4.67073
-4.67134
-4.79405
-4.79457
-4.79508
-4.7956
-4.91861
-4.91905
-4.91949
-4.91993
-5.04322
-5.04358
-5.04395
-5.04431
-5.16786
-5.16816
-5.16845
-5.16875
-5.29254
-5.29277
-5.29299
-5.29322
-5.41724
-5.4174
-5.41757
-5.41772
-5.54196
-5.54206
-5.54215
-5.54225
-5.66668
-5.66672
-5.66675
-5.66678
595.995
595.082
599.227
606.305
624.58
644.537
657.604
662.65
659.932
652.702
649.378
650.152
654.632
657.236
660.736
664.66
670.023
670.761
674.605
480.969
472.342
476.245
492.907
510.656
524.685
536.074
540.385
538.66
539.541
539.56
540.552
541.986
540.517
539.197
545.741
550.017
550.232
556.666
380.097
379.788
387.924
402.916
413.651
422.324
429.804
436.381
438.846
443.04
444.018
444.345
443.807
440.988
435.871
435.493
435.766
435.164
440.648
303.029
313.401
322.847
331.968
336.501
341.07
345.573
354.13
359.703
362.487
363.428
363.552
362.053
359.122
354.267
350.123
348.346
349.544
351.964
234.708
249.706
260.575
266.135
268.361
272.91
277.554
282.569
289.401
292.117
293.461
293.762
292.043
288.091
284.768
282.261
280.669
281.238
282.801
167.6
181.025
194.207
201.846
205.744
209.721
215.857
219.791
224.313
228.137
228.471
227.261
224.783
221.445
218.965
218.172
217.689
218.016
218.93
98.7481
109.793
125.314
137.447
144.747
150.923
158.054
163.756
167.023
168.613
166.891
163.247
159.156
155.126
152.498
152.043
152.293
152.565
154.719
33.0034
40.8195
54.615
70.2295
82.2983
92.134
100.751
108.012
111.331
110.502
105.111
98.4308
92.1562
86.5931
82.6428
80.9753
80.216
81.4073
87.1183
1.63551
3.76392
9.24567
17.6623
27.0385
37.5293
46.4541
54.441
56.4139
52.3064
44.6824
36.97
30.7731
26.207
23.3064
22.4225
23.1171
25.7589
29.5178
-1.57291
-1.59276
-1.55837
-1.12762
1.65333
5.61744
10.6042
15.5432
15.6298
11.4887
7.18203
3.92137
1.84005
0.82106
0.400024
0.448209
1.6387
3.49376
3.29536
-1.79365
-1.79058
-1.83016
-1.89765
-1.96056
-1.71827
-0.0352662
0.182609
-0.253673
-1.01793
-1.2547
-1.41052
-1.44673
-1.46888
-1.48992
-1.49675
-1.52401
-1.45209
-1.29689
-1.91437
-1.93139
-1.98229
-2.05889
-2.14783
-2.25331
-2.45978
-2.44317
-2.06911
-1.89829
-1.84786
-1.7654
-1.68334
-1.66295
-1.67184
-1.68304
-1.70496
-1.7331
-1.68133
-2.02733
-2.04912
-2.10402
-2.17743
-2.26552
-2.37911
-2.52204
-2.57095
-2.35928
-2.11841
-2.0136
-1.9437
-1.8924
-1.87478
-1.87286
-1.87285
-1.87574
-1.87602
-1.85589
-2.16149
-2.18637
-2.23093
-2.29092
-2.36224
-2.44743
-2.52643
-2.53114
-2.41578
-2.27908
-2.1875
-2.12671
-2.09207
-2.06908
-2.05477
-2.04147
-2.0342
-2.02164
-2.00841
-2.3075
-2.32552
-2.3584
-2.40048
-2.4497
-2.50069
-2.53797
-2.53263
-2.47448
-2.40445
-2.34891
-2.30302
-2.26715
-2.23769
-2.21262
-2.19411
-2.18182
-2.17146
-2.15699
-2.43918
-2.45988
-2.48414
-2.51018
-2.53913
-2.56687
-2.58291
-2.57614
-2.54628
-2.51156
-2.48581
-2.45588
-2.42294
-2.39166
-2.36714
-2.34828
-2.3339
-2.32276
-2.31806
-2.57001
-2.58838
-2.60688
-2.62263
-2.63653
-2.64941
-2.65649
-2.6525
-2.63792
-2.62133
-2.60727
-2.58639
-2.55745
-2.53072
-2.51232
-2.49875
-2.48592
-2.47334
-2.47206
-2.69646
-2.71138
-2.72704
-2.73765
-2.74308
-2.74744
-2.75026
-2.74935
-2.74376
-2.73593
-2.72638
-2.71049
-2.68565
-2.6634
-2.64905
-2.64061
-2.63195
-2.62476
-2.62154
-2.82061
-2.83216
-2.84402
-2.85222
-2.85589
-2.85707
-2.8581
-2.85872
-2.85792
-2.85478
-2.8489
-2.83609
-2.81643
-2.79712
-2.78356
-2.77639
-2.77061
-2.76857
-2.76431
-2.94402
-2.95285
-2.96249
-2.96892
-2.97257
-2.97387
-2.97456
-2.97518
-2.97539
-2.97414
-2.97005
-2.9613
-2.94675
-2.93116
-2.91862
-2.91048
-2.90505
-2.90602
-2.90113
-3.0676
-3.07479
-3.08205
-3.08755
-3.09136
-3.09361
-3.09467
-3.09502
-3.09492
-3.09397
-3.09112
-3.08505
-3.07582
-3.06412
-3.05371
-3.04482
-3.03895
-3.03922
-3.03556
-3.19103
-3.19709
-3.20288
-3.20771
-3.21133
-3.21376
-3.21524
-3.2157
-3.21532
-3.21425
-3.21233
-3.20865
-3.20336
-3.19589
-3.1876
-3.17957
-3.17405
-3.17084
-3.16842
-3.3141
-3.31944
-3.32437
-3.32859
-3.33196
-3.33435
-3.33578
-3.33635
-3.33613
-3.3353
-3.33381
-3.33145
-3.32836
-3.32425
-3.31807
-3.31208
-3.30715
-3.30285
-3.29997
-3.43701
-3.44164
-3.44595
-3.44973
-3.45283
-3.4551
-3.4566
-3.45731
-3.45735
-3.45688
-3.45583
-3.4541
-3.4518
-3.44896
-3.44431
-3.44024
-3.43703
-3.43329
-3.42977
-3.55995
-3.56398
-3.56774
-3.57106
-3.57389
-3.57604
-3.57754
-3.57841
-3.57877
-3.57864
-3.57799
-3.5768
-3.57501
-3.57256
-3.56889
-3.56532
-3.56331
-3.56042
-3.55747
-3.68302
-3.68655
-3.68985
-3.69281
-3.69529
-3.69728
-3.69876
-3.69973
-3.70028
-3.70042
-3.70011
-3.69928
-3.69784
-3.69575
-3.69271
-3.68956
-3.68751
-3.68543
-3.68342
-3.80624
-3.80935
-3.81224
-3.81484
-3.81707
-3.8189
-3.82031
-3.82132
-3.82198
-3.82227
-3.82217
-3.82156
-3.82038
-3.81858
-3.81608
-3.8135
-3.81164
-3.81001
-3.80849
-3.9296
-3.93235
-3.9349
-3.9372
-3.93919
-3.94085
-3.94218
-3.94317
-3.94386
-3.94423
-3.94425
-3.94379
-3.94281
-3.9413
-3.93929
-3.93729
-3.93568
-3.93439
-3.9332
-4.0531
-4.05553
-4.05779
-4.05982
-4.0616
-4.06311
-4.06433
-4.06527
-4.06594
-4.06633
-4.0664
-4.06607
-4.06528
-4.06406
-4.06246
-4.06094
-4.05962
-4.05865
-4.0577
-4.17673
-4.17888
-4.18088
-4.18268
-4.18426
-4.18561
-4.18673
-4.18759
-4.18822
-4.1886
-4.18871
-4.18847
-4.18786
-4.1869
-4.18563
-4.18451
-4.18349
-4.18279
-4.182
-4.30047
-4.30238
-4.30415
-4.30574
-4.30714
-4.30834
-4.30934
-4.31013
-4.3107
-4.31105
-4.31117
-4.31102
-4.31056
-4.30982
-4.30884
-4.30805
-4.30728
-4.30681
-4.30616
-4.42433
-4.42601
-4.42756
-4.42896
-4.4302
-4.43126
-4.43214
-4.43285
-4.43336
-4.43368
-4.43381
-4.43371
-4.43338
-4.43281
-4.43208
-4.43156
-4.43098
-4.4307
-4.43021
-4.54829
-4.54976
-4.55111
-4.55234
-4.55342
-4.55435
-4.55512
-4.55574
-4.55619
-4.55648
-4.5566
-4.55655
-4.55632
-4.55589
-4.55533
-4.55503
-4.55466
-4.55446
-4.55415
-4.67233
-4.67361
-4.67479
-4.67584
-4.67678
-4.67758
-4.67825
-4.67879
-4.67918
-4.67944
-4.67956
-4.67955
-4.67941
-4.67913
-4.67874
-4.67857
-4.67837
-4.67818
-4.67807
-4.79646
-4.79756
-4.79856
-4.79947
-4.80026
-4.80094
-4.80152
-4.80198
-4.80232
-4.80255
-4.80267
-4.80269
-4.80264
-4.80255
-4.80236
-4.80221
-4.80205
-4.80192
-4.80191
-4.92066
-4.92158
-4.92243
-4.92319
-4.92385
-4.92442
-4.9249
-4.92529
-4.92558
-4.92579
-4.92591
-4.92596
-4.92598
-4.92601
-4.92601
-4.9259
-4.92576
-4.92564
-4.92568
-5.04492
-5.04568
-5.04638
-5.047
-5.04754
-5.048
-5.0484
-5.04871
-5.04896
-5.04914
-5.04926
-5.04934
-5.04939
-5.04947
-5.04958
-5.04959
-5.04951
-5.0494
-5.04942
-5.16923
-5.16984
-5.17039
-5.17088
-5.1713
-5.17167
-5.17198
-5.17223
-5.17243
-5.17258
-5.1727
-5.17278
-5.17286
-5.17296
-5.17308
-5.17321
-5.17322
-5.17313
-5.17308
-5.29359
-5.29405
-5.29446
-5.29482
-5.29514
-5.29541
-5.29564
-5.29583
-5.29598
-5.29611
-5.2962
-5.29629
-5.29638
-5.29648
-5.2966
-5.29673
-5.29679
-5.29671
-5.29667
-5.41798
-5.4183
-5.41858
-5.41882
-5.41904
-5.41922
-5.41938
-5.4195
-5.41961
-5.4197
-5.41977
-5.41985
-5.41994
-5.42005
-5.42017
-5.42029
-5.42036
-5.42034
-5.4203
-5.5424
-5.54258
-5.54274
-5.54287
-5.54299
-5.5431
-5.54318
-5.54325
-5.5433
-5.54335
-5.54341
-5.54347
-5.54355
-5.54366
-5.5438
-5.54394
-5.54403
-5.54405
-5.54402
-5.66683
-5.66689
-5.66693
-5.66696
-5.66698
-5.66701
-5.66703
-5.66704
-5.66705
-5.66706
-5.66709
-5.66714
-5.66722
-5.66734
-5.66751
-5.66771
-5.6678
-5.66784
-5.66783
)
;

boundaryField
{
    leftWall
    {
        type            calculated;
        value           nonuniform List<scalar> 
50
(
5179.17
4377.84
3570.68
2756.08
1933.6
1188.7
808.355
716.544
618.732
486.953
356.222
232.234
137.111
68.4482
16.7978
-1.12339
-1.3694
-1.49741
-1.63978
-1.77847
-1.91531
-2.05082
-2.18524
-2.31875
-2.45146
-2.58346
-2.71486
-2.84572
-2.97611
-3.1061
-3.23575
-3.36513
-3.4943
-3.62331
-3.75219
-3.88093
-4.00957
-4.13818
-4.26674
-4.39521
-4.52352
-4.65158
-4.77929
-4.90662
-5.0336
-5.1603
-5.28684
-5.41331
-5.53977
-5.66631
)
;
    }
    rightWall
    {
        type            calculated;
        value           nonuniform List<scalar> 
50
(
3159.01
2389.92
1706.27
1211.63
951.676
863.263
811.638
758.107
674.605
556.666
440.648
351.964
282.801
218.93
154.719
87.1183
29.5178
3.29536
-1.29689
-1.68133
-1.85589
-2.00841
-2.15699
-2.31806
-2.47206
-2.62154
-2.76431
-2.90113
-3.03556
-3.16842
-3.29997
-3.42977
-3.55747
-3.68342
-3.80849
-3.9332
-4.0577
-4.182
-4.30616
-4.43021
-4.55415
-4.67807
-4.80191
-4.92568
-5.04942
-5.17308
-5.29667
-5.4203
-5.54402
-5.66783
)
;
    }
    lowerWall
    {
        type            calculated;
        value           nonuniform List<scalar> 
62
(
5577.32
5595.3
5629.71
5676.34
5729.95
5784.39
5832.85
5868.8
5887.59
5887.26
5867.51
5829.85
5777.63
5715.33
5647.94
5579.9
5514.83
5455.95
5405.3
5363.61
5331.53
5309.68
5298.38
4900.25
4099.84
3296.17
2489.07
1680.65
1047.67
789.554
731.456
684.132
679.886
677.975
673.994
2262.93
1533.5
1067.44
922.771
861.355
802.408
748.654
676.192
2645.07
2632.85
2657.98
2706.91
2770.17
2839.19
2919.52
3010.99
3095.03
3163.71
3200.22
3221.35
3250.19
3293.33
3364.37
3437.45
3498.17
3534.45
3542.34
)
;
    }
    atmosphere
    {
        type            calculated;
        value           nonuniform List<scalar> 
46
(
-5.72951
-5.72956
-5.72945
-5.72913
-5.72958
-5.73005
-5.73042
-5.73069
-5.73086
-5.73092
-5.7309
-5.7308
-5.73064
-5.73045
-5.73024
-5.73001
-5.72979
-5.72957
-5.72937
-5.7292
-5.72909
-5.72905
-5.72904
-5.72904
-5.72904
-5.72904
-5.72904
-5.72905
-5.72905
-5.72905
-5.72904
-5.72904
-5.72904
-5.72904
-5.72904
-5.72904
-5.72904
-5.72904
-5.72905
-5.72907
-5.72912
-5.72926
-5.72958
-5.72964
-5.72962
-5.72944
)
;
    }
    defaultFaces
    {
        type            empty;
    }
}


// ************************************************************************* //
