/*--------------------------------*- C++ -*----------------------------------*\
| =========                 |                                                 |
| \\      /  F ield         | OpenFOAM: The Open Source CFD Toolbox           |
|  \\    /   O peration     | Version:  2312                                  |
|   \\  /    A nd           | Website:  www.openfoam.com                      |
|    \\/     M anipulation  |                                                 |
\*---------------------------------------------------------------------------*/
FoamFile
{
    version     2.0;
    format      ascii;
    arch        "LSB;label=32;scalar=64";
    class       volScalarField;
    location    "4";
    object      p_rgh;
}
// * * * * * * * * * * * * * * * * * * * * * * * * * * * * * * * * * * * * * //

dimensions      [1 -1 -2 0 0 0 0];

internalField   nonuniform List<scalar> 
2268
(
5577.32
5595.3
5629.71
5676.34
5729.95
5784.39
5832.85
5868.8
5887.59
5887.26
5867.51
5829.85
5777.63
5715.33
5647.94
5579.9
5514.83
5455.95
5405.3
5363.61
5331.53
5309.68
5298.38
5572.29
5590.18
5625.5
5673.43
5728.64
5784.89
5835.11
5872.35
5891.72
5891.47
5871.21
5832.66
5779.35
5715.88
5647.43
5578.55
5512.78
5453.4
5402.48
5360.59
5328.33
5305.96
5294.26
5561.43
5579.55
5616.57
5667.02
5725.39
5785.31
5839.19
5879.22
5899.87
5899.84
5878.62
5838.31
5782.85
5717.05
5646.48
5575.92
5508.74
5448.4
5396.97
5354.67
5322.11
5299.05
5286.92
5543.13
5562.63
5602.59
5656.97
5720.11
5785.69
5845.34
5889.7
5912.17
5912.47
5889.78
5846.85
5788.19
5718.84
5645.03
5571.92
5502.53
5440.74
5388.55
5345.54
5312.58
5288.71
5275.21
5511.15
5533.76
5581.65
5642.78
5712.5
5785.85
5853.6
5904.06
5928.8
5929.63
5904.75
5858.21
5795.35
5721.15
5642.77
5566.04
5492.74
5426.72
5369.18
5324.02
5298.53
5267.2
5238.12
4607.51
4724.77
4928.15
5183.42
5449.78
5699.64
5863.13
5922.54
5949.2
5949.49
5921.22
5858.79
5746.86
5573.65
5335.85
5056.42
4757.11
4472.97
4219.38
3986.09
3770.41
3615.81
3473.11
1535.51
1612.63
1770.37
2019.38
2373.56
2846.98
3442.46
3997.67
4259.49
4260.63
4050.98
3629.38
3123.5
2591.21
2133.08
1791.23
1518.58
1337.49
1228.16
1152.16
1135.49
1152.47
1223.57
1157.84
1155.06
1150.01
1143.38
1135.26
1126.07
1120.25
1150.46
1183.11
1179.91
1130.01
1114.72
1119.55
1122.14
1127.35
1134.12
1139.93
1147.6
1151.93
1143.16
1132.92
1145.57
1164.83
2645.07
2632.85
2657.98
2706.91
2770.17
2839.19
2919.52
3010.99
3095.03
3163.71
3200.22
3221.35
3250.19
3293.33
3364.37
3437.45
3498.17
3534.45
3542.34
2571.07
2558.15
2579.17
2635.97
2714.41
2789.18
2897.19
3015.89
3100.37
3168.84
3201.16
3223.66
3252.59
3292.5
3364.18
3439.7
3503.35
3537.36
3540.58
1671.56
1516.36
1482.53
1563.61
1733.02
1946.12
2160.17
2394.41
2647.36
2781.06
2734.27
2742.14
2830.41
2880.22
2981.2
3084.97
3203.02
3255.71
3182.23
1098.49
1151.3
1220.86
1248.74
1245.4
1229.94
1208.6
1239.53
1300.45
1557.26
1784.2
1824.03
1721.24
1789.21
2095.93
2393.04
2497.34
2530.94
2562.26
1086.84
1174.61
1288.44
1294.16
1260.11
1239.9
1212.67
1171.63
1168.27
1190.4
1198.73
1138.97
1145.65
1184.07
1166.8
1226.41
1435.82
1516.49
1545.35
1077.82
1277.07
1367.27
1405.92
1333.15
1258.04
1240.51
1215.01
1201.85
1202.19
1204.42
1181.65
1180.61
1178.23
1186.62
1176.55
1165.03
1168.89
1131.28
1128.43
1115.13
1273
1400.76
1420.35
1261.18
1215.82
1212.41
1210.09
1214.19
1203.73
1178.15
1169.18
1178.76
1195.79
1189.2
1184.66
1176.46
1150
1126.62
1129.7
1126.96
1350.73
1420.12
1250.88
1198.28
1195.27
1209.98
1184.45
1145.79
1172.83
1139.44
1210.78
1248.12
1199.11
1183.65
1181.15
1132.51
1152.04
1150.14
1146.73
1141.94
1135.52
1127.9
1119.97
1112.85
1108.62
1108.38
1112.88
1117.99
1121.09
1119.58
1127.84
1134.06
1141.11
1147.33
1153.61
1157.73
1154.81
1145.77
1141.61
1145.8
1144.69
1143.09
1140.02
1135.91
1130.54
1125.04
1120.28
1117.39
1117.41
1118.79
1121.88
1125.78
1131.67
1152.33
1146.96
1146.89
1147.52
1153.86
1157.01
1157.1
1156.54
1158.58
1137.13
1141.24
1139.39
1137.56
1135.78
1130.95
1126.14
1116.76
1107.37
1101.77
1103.3
1108.47
1106.19
1108.23
1114.39
1112.16
1096.93
1094.25
1069.8
1035.13
1008.34
1004.5
999.804
1039.42
1075.68
1095.38
1100.83
1069.37
1027.64
995.454
970.167
947.429
919.976
893.798
858.883
824.806
803.805
781.982
793.316
790
798.723
780.905
773.549
773.48
767.029
763.726
711.161
726.669
741.04
752.628
741.188
722.082
706.886
671.659
656.242
639.565
645.719
666.527
694.981
699.054
698.478
669.726
681.219
707.373
751.56
732.786
736.091
738.765
741.718
634.106
648.249
652.602
654.991
660.587
664.433
668.187
669.494
673.402
678.33
683.473
688.805
694.453
700.383
705.989
710.007
711.736
719.667
724.552
727.568
730.107
735.367
739.243
382
372.808
372.855
393.256
432.648
476.834
511.33
545.843
581.627
614.265
643.06
668.145
685.939
700.568
709.217
714.726
716.918
720.509
723.476
725.156
727.143
728.812
733.435
1.8538
3.5325
6.57482
8.58139
9.82902
11.6457
26.8437
48.7913
78.4266
114.058
165.399
217.093
267.427
322.591
361.846
418.325
505.669
578.728
584.814
550.918
524.414
536.179
558.358
0.167383
0.188961
0.151973
0.151025
0.153661
0.157734
0.149665
0.155145
0.659621
2.01767
4.08758
9.17465
15.0685
19.8806
28.2975
26.538
16.8877
25.0682
52.186
57.6332
44.8605
38.7018
45.1142
0.16288
0.155198
0.147573
0.144706
0.145076
0.142006
0.132017
0.123847
0.114942
0.103229
0.082343
0.143865
0.041831
0.0447321
0.0507706
0.202543
0.155698
1.13149
3.16348
3.89535
1.09923
0.521101
0.334351
0.145732
0.142337
0.138677
0.137201
0.135342
0.132788
0.124529
0.122391
0.117405
0.108126
0.0948586
0.0815317
0.0769393
0.108204
0.107734
0.100501
0.0827585
0.00429146
-0.0227152
0.0387814
0.542121
0.725593
0.708987
0.132237
0.130335
0.127874
0.127257
0.126706
0.128463
0.138218
0.166689
0.128882
0.0966967
0.084387
0.124791
0.121745
0.110026
0.105261
0.0993599
0.0512002
0.0227069
0.00218553
-0.00727155
-0.00845465
-0.00431077
-0.00198288
0.120577
0.119281
0.117248
0.115996
0.116761
0.127255
0.182971
0.177884
0.163561
0.101095
0.102469
0.0998734
0.0690942
0.0492797
0.042215
0.036851
0.0326603
0.0262847
0.00919826
-0.00379647
-0.00724092
-0.00177884
0.00716257
0.110255
0.109211
0.10761
0.106266
0.104383
0.115782
0.171054
0.171683
0.164355
0.159656
0.162203
0.157609
0.113274
0.0576637
0.0478971
0.0391408
0.0529337
0.0764642
0.048876
0.0024238
0.00136901
0.00503184
0.00648861
0.101035
0.10007
0.0986405
0.096424
0.0931887
0.0908427
0.0912571
0.11232
0.118008
0.142858
0.160815
0.179868
0.150138
0.109022
0.0864212
0.0681387
0.0962122
0.099409
0.101205
0.0317965
-0.0012382
-0.00719115
-0.00786598
0.0927113
0.0918256
0.0903986
0.0881414
0.0852932
0.0814989
0.0769021
0.0715096
0.0661896
0.0621715
0.077469
0.110552
0.119137
0.113457
0.0850985
0.0722009
0.065465
0.123426
0.118544
0.105403
0.0488574
0.0118349
-0.00701578
0.0851986
0.0843694
0.0830084
0.0809397
0.0782336
0.0748891
0.0706512
0.0661193
0.061389
0.0565122
0.0511518
0.0448274
0.049617
0.0418954
0.038392
0.0293641
0.0347333
0.0657579
0.108888
0.127541
0.115235
0.0896217
-4.10784e-05
0.0783917
0.0775981
0.0763236
0.0744162
0.0719321
0.0689008
0.0652548
0.0612545
0.0570343
0.052482
0.0473617
0.0421024
0.0370004
0.0322394
0.0274723
0.0224477
0.016974
0.0107989
0.012726
0.0217094
0.0757055
0.0678608
0.0258855
0.0722037
0.0714355
0.0702432
0.0684789
0.0662195
0.063457
0.060211
0.0566104
0.0527144
0.0485079
0.0440405
0.0394138
0.0347622
0.0301708
0.0255913
0.0207504
0.0156383
0.0101616
0.00458669
-0.000769295
-0.00580751
0.00879571
4.67071e-05
0.0665432
0.0658
0.0646841
0.0630487
0.0609686
0.0584495
0.0555248
0.0522541
0.0486917
0.0448916
0.0408776
0.0367163
0.0324652
0.0281568
0.0237748
0.0192627
0.0145209
0.0095665
0.00452508
-0.000450483
-0.00526428
-0.0098416
-0.0142213
0.0613539
0.0606271
0.0595743
0.0580512
0.0561249
0.0538124
0.0511493
0.0481768
0.0449469
0.0414921
0.0378514
0.034061
0.0301593
0.0261662
0.0220725
0.0178491
0.0134672
0.00893674
0.00432062
-0.000302137
-0.00488833
-0.00947005
-0.0141911
0.0565611
0.0558503
0.0548507
0.0534208
0.05163
0.0494989
0.0470611
0.0443549
0.0414133
0.0382697
0.0349541
0.0314945
0.0279144
0.0242259
0.0204272
0.0165077
0.0124587
0.00828775
0.00402324
-0.000298683
-0.00466317
-0.00909152
-0.0136873
0.0521102
0.0514071
0.0504531
0.0491052
0.0474339
0.0454648
0.0432306
0.0407598
0.0380808
0.0352194
0.0321995
0.0290417
0.0257615
0.0223673
0.0188605
0.0152389
0.011502
0.00765626
0.00371733
-0.000297438
-0.00438841
-0.00856376
-0.0128478
0.0479285
0.0472338
0.0463199
0.0450466
0.0434851
0.0416647
0.039616
0.0373632
0.0349277
0.0323286
0.0295836
0.0267072
0.02371
0.0205983
0.0173747
0.0140407
0.0105992
0.00705638
0.00342278
-0.000290401
-0.00408512
-0.00795744
-0.0118963
0.0439681
0.0432755
0.0423991
0.0411953
0.0397371
0.0380579
0.0361861
0.0341411
0.0319368
0.0295856
0.0270994
0.0244884
0.02176
0.018919
0.0159683
0.0129111
0.00975151
0.0064959
0.00315346
-0.000266344
-0.00376272
-0.00732279
-0.0109183
0.0401613
0.0394814
0.0386445
0.0375095
0.0361539
0.0346147
0.0329164
0.0310739
0.0290928
0.0269788
0.024739
0.0223803
0.019908
0.017326
0.0146375
0.011846
0.00895663
0.00597597
0.00291303
-0.000222376
-0.00342594
-0.00667983
-0.00994858
0.0364982
0.0358102
0.0350197
0.0339568
0.0327067
0.0313118
0.0297867
0.0281449
0.0263819
0.0244971
0.0224935
0.0203756
0.0181478
0.0158136
0.0133764
0.0108399
0.00820975
0.00549288
0.00269862
-0.00016264
-0.00308367
-0.00604386
-0.00900373
0.0329673
0.0322568
0.0315014
0.0305117
0.0293733
0.0281325
0.0267854
0.0253402
0.0237921
0.0221302
0.0203539
0.0184668
0.0164726
0.0143753
0.0121785
0.00988641
0.00750474
0.00504088
0.0025044
-9.36928e-05
-0.00274446
-0.00542565
-0.00809558
0.0295628
0.0288016
0.0280686
0.0271691
0.0261925
0.0250625
0.0238978
0.0226489
0.0213131
0.0198695
0.0183128
0.0166467
0.0148757
0.0130044
0.0110374
0.00897911
0.00683538
0.00461382
0.00232422
-2.23476e-05
-0.00241597
-0.00483378
-0.00723286
0.0261571
0.0254078
0.0249278
0.0248199
0.0237243
0.0223674
0.0212017
0.020063
0.0189374
0.0177094
0.0163654
0.0149108
0.0133521
0.0116958
0.00994758
0.00811241
0.00619612
0.00420621
0.00215232
4.53426e-05
-0.00210453
-0.00427421
-0.00642116
0.0228758
0.0220814
0.0221831
0.0229193
0.0229295
0.0236376
0.0213239
0.017622
0.0166607
0.0156482
0.0145105
0.0132575
0.0118995
0.0104461
0.00890502
0.00728188
0.00558228
0.00381326
0.00198396
0.000104632
-0.00181454
-0.00375122
-0.00566326
0.0196431
0.0188326
0.0193954
0.0205849
0.0212837
0.0215252
0.0207935
0.0154499
0.0144932
0.013691
0.0127514
0.0116881
0.0105178
0.00925406
0.00790744
0.00648452
0.00499049
0.00343149
0.00181563
0.000152362
-0.00154861
-0.00326578
-0.00495891
0.0165882
0.0158194
0.0166961
0.0178618
0.0186212
0.018846
0.0174323
0.0130368
0.0124552
0.011852
0.0110942
0.0102057
0.00920813
0.00811969
0.00695389
0.00571861
0.00441859
0.00305855
0.00164522
0.000186768
-0.0013079
-0.00281897
-0.00430758
0.0137002
0.0130058
0.0139885
0.0147878
0.0142788
0.0142851
0.0115804
0.0108907
0.0105827
0.0101411
0.00954289
0.00881065
0.00796995
0.00704231
0.00604361
0.00498312
0.00386531
0.00269322
0.0014716
0.000207074
-0.00109259
-0.00240913
-0.00370719
0.011462
0.0106093
0.0116794
0.011567
0.00929252
0.00912348
0.00927828
0.00905815
0.00886997
0.00855885
0.00809416
0.00749813
0.00679858
0.00601844
0.00517442
0.00427663
0.0033296
0.00233476
0.00129451
0.000213575
-0.000901571
-0.00203517
-0.00315409
0.00934538
0.00854659
0.00946334
0.0091303
0.00720588
0.00741912
0.00752158
0.0073991
0.00730663
0.00709385
0.00673472
0.00625558
0.0056834
0.00504004
0.00434099
0.00359599
0.00280965
0.00198241
0.00111406
0.00020718
-0.000733038
-0.00169293
-0.00264376
0.00786646
0.00696389
0.00681355
0.00621971
0.00573542
0.0059887
0.00589608
0.00590108
0.00587427
0.00572251
0.0054415
0.00506258
0.00460732
0.00409362
0.0035336
0.00293501
0.00230186
0.00163425
0.000930007
0.000189035
-0.000584778
-0.00138037
-0.00217124
0.00640163
0.00582239
0.00526306
0.00475522
0.0045792
0.00473858
0.00456008
0.00455777
0.0045333
0.00440895
0.00418376
0.00389269
0.00354813
0.00316089
0.00273799
0.00228362
0.0018
0.00128684
0.000741068
0.000159785
-0.000454797
-0.00109247
-0.00173173
0.00509883
0.00488504
0.004294
0.00377932
0.00365048
0.00347124
0.00335465
0.00329436
0.00322766
0.00310953
0.00293133
0.00272083
0.00248377
0.00222223
0.00193724
0.00162841
0.00129484
0.000934754
0.000544625
0.000119652
-0.000340605
-0.000826906
-0.00131908
0.00372201
0.00373568
0.00322186
0.00294979
0.00273417
0.00239419
0.00218304
0.00204063
0.00191972
0.00179869
0.00166696
0.00153404
0.00140161
0.00126426
0.00111735
0.000955981
0.000775344
0.000570715
0.000336924
6.77661e-05
-0.000239935
-0.000577357
-0.000927031
0.00214748
0.00234168
0.00202602
0.00199643
0.00166651
0.00126795
0.000962627
0.000740492
0.00057625
0.000456646
0.000372934
0.000319241
0.000290328
0.000275453
0.00026565
0.000252471
0.000227859
0.000183779
0.000111887
2.83444e-06
-0.000151138
-0.000343862
-0.000551815
0.000604254
0.000684502
0.00073813
0.000753498
0.000320401
-9.16298e-05
-0.000444004
-0.000715649
-0.00090017
-0.00100045
-0.00102411
-0.000988221
-0.000905896
-0.000792342
-0.000659986
-0.000519763
-0.000381554
-0.00025506
-0.000150805
-8.27471e-05
-6.82809e-05
-0.000108362
-0.000178334
1136.29
1132.7
1142.67
1147.63
1152.33
1154.14
1161.64
1152
998.299
987.166
981.137
980.063
754.639
736.762
728.326
744.075
742.94
744.205
744.228
756.72
741.77
742.674
742.925
743.728
738.403
740.033
738.922
737.449
581.464
597.307
603.484
608.768
57.5871
64.3052
69.9253
75.5601
0.170986
0.094351
1.90339
3.48975
0.256949
0.000628283
-0.00862366
0.0240484
-0.00417838
-0.00638269
-0.011243
-0.00946434
0.00791696
0.00702619
0.0149776
0.0173019
0.00208919
0.00234902
0.00785133
0.00796941
-0.00485052
-0.00430711
-0.00844483
-0.0110943
-0.00684301
-0.00647213
-0.0102553
-0.0161309
-0.0137154
-0.0157799
-0.0191831
-0.0235087
-0.0161259
-0.0191264
-0.0224585
-0.0262148
-0.0170483
-0.0199845
-0.0229817
-0.0264099
-0.0170163
-0.0196382
-0.0226336
-0.0257125
-0.0178066
-0.0201614
-0.0226879
-0.025294
-0.0171961
-0.0195163
-0.0218663
-0.0241861
-0.0160981
-0.0182429
-0.0204114
-0.0225755
-0.0148533
-0.0167888
-0.0187466
-0.0207133
-0.0135956
-0.0153342
-0.0170835
-0.018847
-0.0123631
-0.0139224
-0.0154862
-0.0170595
-0.0111776
-0.0125751
-0.0139707
-0.0153745
-0.0100469
-0.0112984
-0.0125453
-0.0137974
-0.00898102
-0.0100999
-0.0112118
-0.0123297
-0.00798145
-0.00897952
-0.00997073
-0.0109669
-0.00705137
-0.00793838
-0.00881795
-0.00970416
-0.00618645
-0.00697117
-0.00774975
-0.00853444
-0.00538715
-0.00607709
-0.00676086
-0.00745222
-0.004648
-0.00524953
-0.00584646
-0.00644968
-0.00396624
-0.00448523
-0.00499925
-0.00551997
-0.0033338
-0.00377481
-0.00421223
-0.00465413
-0.0027469
-0.00311452
-0.00347761
-0.00384486
-0.00219752
-0.00249457
-0.00278821
-0.00308313
-0.00168012
-0.00190993
-0.00213497
-0.00236077
-0.00118583
-0.00135024
-0.00151132
-0.0016703
-0.000708265
-0.000808015
-0.000903432
-0.000996934
-0.000237655
-0.000275593
-0.00031066
-0.000342202
1133.41
1126.28
1108.12
1112.59
1193.48
1199.18
1189.85
1192.88
1245.14
1165.5
1130.43
1111.98
1132.09
1166.04
1224.83
1169.02
1177.19
1195.35
1141.16
1141.32
1097.46
961.673
918.75
1075.26
1190.19
1185.12
1207.13
1171.25
1065.84
1047.05
1031.57
1040.45
1080.97
1153.38
1205.32
1224.02
1249.86
1225.95
920.134
800.765
776.909
829.847
1020.9
1110.23
1118.46
1035.08
997.508
960.717
971.913
963.571
979.806
944.244
969.797
1063.96
1112.64
1086.83
1111.27
785.883
785.154
769.214
831.647
922.306
899.174
916.704
970.362
930.031
883.352
860.797
845.82
843.129
872.69
859.155
877.272
903.116
906.235
923.409
774.307
798.422
788.284
793.983
826.704
919.846
839.11
928.385
926.552
866.389
827.295
828.482
827.802
814.698
807.872
790.911
803.918
836.441
849.49
751.519
805.048
790.707
790.801
797.085
822.342
798.835
774.25
820.535
786.601
797.806
812.973
816.68
809.081
805.375
802.69
797.205
819.772
835.12
742.067
798.779
825.042
792.831
794.832
797.506
802.599
791.639
771.947
781.289
804.69
810.164
803.741
801.998
802.638
813.055
830.932
895.11
839.844
623.899
695.442
810.975
844.86
807.364
802.122
807.634
814.17
818.843
821.452
829.995
836.696
825.791
815.062
818.585
857.822
896.06
871.458
857.352
73.1555
133.144
273.302
473.966
584.798
665.471
736.377
795.697
819.053
841.482
793.206
714.831
635.713
565.103
510.924
492.807
430.592
384.742
525.599
2.97089
0.357393
1.41621
16.7273
102.742
199.347
263.453
365.019
381.353
323.898
215.083
135.749
85.0184
58.4482
46.9627
47.774
82.2602
126.766
109.644
0.163636
0.214113
0.065149
-0.0788563
0.405828
9.89861
73.7385
83.4484
38.5038
21.3675
14.3042
4.56395
0.782354
0.426189
0.413602
0.426728
0.470197
5.37634
3.3239
0.0190912
0.00671325
0.00714397
-0.102916
-0.188497
-0.254731
0.346359
9.42218
1.27977
0.0258114
0.0685728
0.152212
0.400121
0.706587
0.72066
0.628292
0.562674
0.741942
1.0117
0.0102499
0.00953409
0.0699598
0.039423
-0.0484523
-0.174019
-0.39164
-0.517989
-0.317052
-0.076437
0.0277195
0.382303
0.825382
0.84517
0.829157
0.470932
0.385626
0.402262
0.384201
0.00775843
0.152774
0.215289
0.0884042
-0.0318837
-0.126339
-0.287664
-0.356745
-0.247228
-0.0925569
0.242727
0.665729
0.712551
0.56363
0.207988
0.175539
0.167262
0.244853
0.309058
-0.00677122
0.266886
0.376734
0.0948961
-0.0523995
-0.0911649
-0.172577
-0.20643
-0.15485
-0.0533666
0.459705
0.632227
0.503464
0.28529
0.134761
0.132872
0.162081
0.204008
0.380434
-0.0177932
0.204266
0.285457
0.191022
-0.114307
-0.146858
-0.148185
-0.130597
-0.105958
-0.0439236
0.153946
0.256674
0.138379
0.0723652
0.122244
0.185725
0.197317
0.189566
0.360197
-0.0308319
0.0186969
0.213879
0.188139
0.0592228
-0.0646518
-0.106086
-0.0736813
-0.0773579
-0.0665153
-0.0319563
0.00259351
0.00652968
0.0248586
0.0450644
0.149741
0.227386
0.391492
0.327652
-0.0320048
-0.0292317
-0.0363726
0.0127065
0.0853022
0.0352844
-0.0556234
-0.0390287
0.0376503
0.0744174
0.0926867
0.127015
0.148525
0.0930542
0.0321483
0.0495733
0.206552
0.435852
0.23533
-0.0328326
-0.0448716
-0.0569744
-0.0569841
0.00785442
0.028461
0.0186442
0.00207157
0.0111876
0.0401948
0.0937747
0.18135
0.204098
0.204017
0.0548859
0.0384222
0.214313
0.393084
0.0761364
-0.0313104
-0.040245
-0.0501084
-0.0563329
-0.0441769
0.0150522
0.0182273
0.0101038
-0.000694874
0.00550084
0.0330141
0.0572554
0.226825
0.227317
0.15774
0.0591821
0.207205
0.26329
0.0395725
-0.0299038
-0.0370329
-0.0443195
-0.0499601
-0.05376
-0.049208
-0.0127082
-0.00599623
-0.0282449
-0.046308
0.00522856
0.0493043
0.18909
0.241439
0.158557
0.190804
0.300526
0.0996075
0.0110447
-0.0283041
-0.0342491
-0.039991
-0.0449267
-0.0485518
-0.0510424
-0.0520108
-0.0505272
-0.0502134
-0.0494417
-0.0457304
-0.00786158
0.0776018
0.208008
0.148543
0.188534
0.291354
0.0904321
0.00369066
-0.0263007
-0.0315922
-0.0364696
-0.0407006
-0.0440568
-0.0463174
-0.0466606
-0.0460688
-0.0454103
-0.0450758
-0.0454474
-0.0435955
-0.0333822
0.0327931
0.011697
0.0997266
0.186417
0.121574
-0.00147415
-0.0240466
-0.028664
-0.0329484
-0.0367041
-0.0397588
-0.0419002
-0.0427108
-0.0424333
-0.0420274
-0.0423022
-0.0425367
-0.0410362
-0.038743
-0.0358863
-0.0238574
-0.025881
0.120361
0.0716099
-0.0100028
-0.0218063
-0.0258305
-0.0295791
-0.0328823
-0.0356822
-0.037816
-0.0392607
-0.039832
-0.0401402
-0.0401725
-0.0396562
-0.038501
-0.0366609
-0.0337647
-0.0273274
-0.0236774
-0.0150894
-0.0146115
-0.0147479
-0.0196867
-0.0232155
-0.0265038
-0.0294625
-0.0319345
-0.0339142
-0.0353857
-0.0363542
-0.0368872
-0.0369561
-0.0365971
-0.0357322
-0.0341428
-0.0312427
-0.0288246
-0.0181148
-0.0221385
-0.0199262
-0.0186271
-0.0177101
-0.0208199
-0.0237104
-0.0263081
-0.0285299
-0.03035
-0.03175
-0.0327507
-0.0333847
-0.0336359
-0.0334908
-0.0328067
-0.0314854
-0.0288071
-0.0269122
-0.0161824
-0.0203371
-0.0207242
-0.0187403
-0.0158775
-0.0186272
-0.021178
-0.0234729
-0.0254628
-0.0271218
-0.028439
-0.0294243
-0.0300946
-0.0304385
-0.0304072
-0.0298778
-0.0287814
-0.0266959
-0.0250891
-0.017998
-0.0204962
-0.019592
-0.0184027
-0.0141828
-0.0166185
-0.0188748
-0.0209076
-0.022684
-0.0241853
-0.0254033
-0.026339
-0.0269986
-0.0273697
-0.0274043
-0.0270078
-0.0261499
-0.0249138
-0.0229392
-0.0213683
-0.0198048
-0.0184684
-0.0175704
-0.0126171
-0.0147742
-0.0167709
-0.0185718
-0.0201528
-0.0214999
-0.0226091
-0.0234742
-0.0240953
-0.0244617
-0.0245381
-0.0242561
-0.0235828
-0.0226213
-0.0208248
-0.0195847
-0.0181168
-0.0170673
-0.0167682
-0.0111699
-0.0130771
-0.0148409
-0.0164328
-0.0178339
-0.0190342
-0.0200291
-0.0208135
-0.0213826
-0.0217283
-0.0218295
-0.0216463
-0.021149
-0.020372
-0.0189667
-0.0177023
-0.0164994
-0.0161292
-0.00926433
-0.00983214
-0.0115119
-0.0130639
-0.0144644
-0.0156983
-0.016758
-0.0176398
-0.0183398
-0.0188517
-0.0191692
-0.0192809
-0.0191593
-0.018791
-0.0182111
-0.017154
-0.0150089
-0.0150454
-0.0148506
-0.00606803
-0.00859366
-0.0100647
-0.0114218
-0.0126453
-0.0137231
-0.0146491
-0.015421
-0.0160362
-0.0164875
-0.0167713
-0.0168792
-0.0167759
-0.0162831
-0.0151043
-0.0146404
-0.0112428
-0.00681324
-0.0135578
-0.00116974
-0.00744553
-0.0087228
-0.00989878
-0.0109573
-0.0118889
-0.012689
-0.0133563
-0.0138886
-0.0142795
-0.014527
-0.0146234
-0.0145345
-0.0140783
-0.00767742
0.00264216
-0.00382851
-0.00226996
-0.00354046
0.00481093
-0.006378
-0.00747424
-0.00848052
-0.00938407
-0.0101783
-0.0108604
-0.0114298
-0.0118839
-0.0122183
-0.0124297
-0.0125175
-0.012468
-0.0121808
-0.0062568
0.00505832
0.00747157
0.000444267
-0.00024057
0.000824782
-0.00538204
-0.0063076
-0.0071538
-0.00791111
-0.00857561
-0.00914642
-0.009624
-0.0100065
-0.01029
-0.0104704
-0.0105466
-0.0105252
-0.0103745
-0.00875919
0.00251478
0.00844028
0.00931365
0.00371616
0.00240623
-0.00444804
-0.00521175
-0.00590611
-0.00652481
-0.00706662
-0.00753248
-0.00792377
-0.00823932
-0.00847747
-0.00863528
-0.0087066
-0.00869476
-0.00860688
-0.00840866
-0.00650636
0.00833989
0.0103509
0.0119207
-0.000398134
-0.00356699
-0.00417625
-0.00472607
-0.00521308
-0.00563876
-0.00600572
-0.00631498
-0.00656564
-0.00675984
-0.00689737
-0.00697159
-0.00697616
-0.00689816
-0.00679905
-0.00662752
-0.00367879
0.00409649
-0.000948458
-0.00539532
-0.00272965
-0.00319122
-0.00360317
-0.00396504
-0.00428099
-0.004555
-0.00478484
-0.00497172
-0.00512143
-0.00523551
-0.00531218
-0.0053499
-0.00531592
-0.0051754
-0.0051702
-0.00546019
-0.00507993
-0.00554176
-0.005459
-0.00192853
-0.00224797
-0.00252805
-0.00277106
-0.00298398
-0.00317024
-0.00332358
-0.00344903
-0.0035522
-0.00363626
-0.00370316
-0.00374895
-0.00377468
-0.00368289
-0.00358184
-0.00385913
-0.00397681
-0.00395045
-0.00387268
-0.00114834
-0.00133339
-0.0014908
-0.0016227
-0.00174
-0.00184838
-0.00193086
-0.00199834
-0.00205458
-0.00210347
-0.00214917
-0.00219314
-0.00223086
-0.00221902
-0.00208831
-0.00215815
-0.00238799
-0.00245643
-0.00225155
-0.000391141
-0.000447902
-0.000489396
-0.000515534
-0.00053391
-0.000562637
-0.000582645
-0.000595465
-0.000605471
-0.000618719
-0.000643082
-0.000685868
-0.000749541
-0.000818909
-0.000847314
-0.000728834
-0.000761675
-0.000828499
-0.000987708
)
;

boundaryField
{
    leftWall
    {
        type            fixedFluxPressure;
        gradient        uniform 0;
        value           nonuniform List<scalar> 
50
(
5577.32
5572.29
5561.43
5543.13
5511.15
4607.51
1535.51
1157.84
1152.04
1145.8
1137.13
1039.42
711.161
634.106
382
1.8538
0.167383
0.16288
0.145732
0.132237
0.120577
0.110255
0.101035
0.0927113
0.0851986
0.0783917
0.0722037
0.0665432
0.0613539
0.0565611
0.0521102
0.0479285
0.0439681
0.0401613
0.0364982
0.0329673
0.0295628
0.0261571
0.0228758
0.0196431
0.0165882
0.0137002
0.011462
0.00934538
0.00786646
0.00640163
0.00509883
0.00372201
0.00214748
0.000604254
)
;
    }
    rightWall
    {
        type            fixedFluxPressure;
        gradient        uniform 0;
        value           nonuniform List<scalar> 
50
(
3542.34
3540.58
3182.23
2562.26
1545.35
1131.28
1150
1132.51
1141.16
1225.95
1111.27
923.409
849.49
835.12
839.844
857.352
525.599
109.644
3.3239
1.0117
0.384201
0.309058
0.380434
0.360197
0.327652
0.23533
0.0761364
0.0395725
0.0110447
0.00369066
-0.00147415
-0.0100028
-0.0147479
-0.0186271
-0.0187403
-0.0184027
-0.0175704
-0.0167682
-0.00926433
-0.00606803
-0.00116974
0.00481093
0.000824782
0.00240623
-0.000398134
-0.00539532
-0.005459
-0.00387268
-0.00225155
-0.000987708
)
;
    }
    lowerWall
    {
        type            fixedFluxPressure;
        gradient        uniform 0;
        value           nonuniform List<scalar> 
62
(
5577.32
5595.3
5629.71
5676.34
5729.95
5784.39
5832.85
5868.8
5887.59
5887.26
5867.51
5829.85
5777.63
5715.33
5647.94
5579.9
5514.83
5455.95
5405.3
5363.61
5331.53
5309.68
5298.38
5298.38
5294.26
5286.92
5275.21
5238.12
3473.11
1223.57
1164.83
1136.29
1132.7
1142.67
1147.63
2645.07
2571.07
1671.56
1098.49
1086.84
1077.82
1128.43
1126.62
2645.07
2632.85
2657.98
2706.91
2770.17
2839.19
2919.52
3010.99
3095.03
3163.71
3200.22
3221.35
3250.19
3293.33
3364.37
3437.45
3498.17
3534.45
3542.34
)
;
    }
    atmosphere
    {
        type            totalPressure;
        rho             rho;
        psi             none;
        gamma           1;
        p0              uniform 0;
        value           nonuniform List<scalar> 
46
(
0
0
0
-8.89943e-05
-0.000537084
-0.00100941
-0.00138485
-0.00165172
-0.00181763
-0.00188334
-0.00185536
-0.00175552
-0.00160179
-0.00141141
-0.00119821
-0.000973812
-0.000748082
-0.000529823
-0.000328216
-0.000158
-4.52758e-05
-5.50739e-06
-1.36908e-07
-8.97401e-08
-6.59375e-07
-2.50663e-06
-4.9806e-06
-7.33311e-06
-1.04034e-05
-8.99212e-06
-3.89047e-06
-7.61445e-08
0
0
0
0
0
0
0
0
0
0
0
0
0
0
)
;
    }
    defaultFaces
    {
        type            empty;
    }
}


// ************************************************************************* //
