/*--------------------------------*- C++ -*----------------------------------*\
| =========                 |                                                 |
| \\      /  F ield         | OpenFOAM: The Open Source CFD Toolbox           |
|  \\    /   O peration     | Version:  2312                                  |
|   \\  /    A nd           | Website:  www.openfoam.com                      |
|    \\/     M anipulation  |                                                 |
\*---------------------------------------------------------------------------*/
FoamFile
{
    version     2.0;
    format      ascii;
    arch        "LSB;label=32;scalar=64";
    class       surfaceScalarField;
    location    "4";
    object      phi;
}
// * * * * * * * * * * * * * * * * * * * * * * * * * * * * * * * * * * * * * //

dimensions      [0 3 -1 0 0 0 0];

oriented        oriented;

internalField   nonuniform List<scalar> 
4432
(
-9.69535e-07
9.6954e-07
-2.54907e-06
1.57953e-06
-4.19903e-06
1.64996e-06
-5.83033e-06
1.6313e-06
-7.35661e-06
1.52628e-06
-8.68313e-06
1.32652e-06
-9.70446e-06
1.02133e-06
-1.03452e-05
6.40745e-07
-1.05912e-05
2.46035e-07
-1.04817e-05
-1.09525e-07
-1.00815e-05
-4.00247e-07
-9.48147e-06
-5.99993e-07
-8.77138e-06
-7.10086e-07
-8.01438e-06
-7.56999e-07
-7.23645e-06
-7.7793e-07
-6.44561e-06
-7.90843e-07
-5.65682e-06
-7.88787e-07
-4.86931e-06
-7.87519e-07
-4.03805e-06
-8.31257e-07
-3.16371e-06
-8.74345e-07
-2.28646e-06
-8.77258e-07
-1.40617e-06
-8.80296e-07
-1.40617e-06
-1.70552e-06
2.67507e-06
-3.36445e-06
3.23847e-06
-5.00702e-06
3.29254e-06
-6.5824e-06
3.20667e-06
-8.04458e-06
2.98845e-06
-9.31216e-06
2.59409e-06
-1.02754e-05
1.98459e-06
-1.08562e-05
1.22155e-06
-1.10414e-05
4.31153e-07
-1.08734e-05
-2.7746e-07
-1.04179e-05
-8.55746e-07
-9.7685e-06
-1.2494e-06
-9.01738e-06
-1.4612e-06
-8.22817e-06
-1.54619e-06
-7.42546e-06
-1.58064e-06
-6.60993e-06
-1.60637e-06
-5.79282e-06
-1.60589e-06
-4.9808e-06
-1.59955e-06
-4.1137e-06
-1.69837e-06
-3.19517e-06
-1.79289e-06
-2.2471e-06
-1.82535e-06
-1.30847e-06
-1.81894e-06
-2.71466e-06
-2.0247e-06
4.69978e-06
-3.80702e-06
5.02079e-06
-5.50798e-06
4.99349e-06
-7.11907e-06
4.81776e-06
-8.61256e-06
4.48193e-06
-9.89813e-06
3.87966e-06
-1.086e-05
2.94648e-06
-1.14112e-05
1.77269e-06
-1.15433e-05
5.63277e-07
-1.13152e-05
-5.0558e-07
-1.0793e-05
-1.37793e-06
-1.00797e-05
-1.96264e-06
-9.27631e-06
-2.26462e-06
-8.45079e-06
-2.37171e-06
-7.61866e-06
-2.41277e-06
-6.76631e-06
-2.45871e-06
-5.90719e-06
-2.46501e-06
-5.06591e-06
-2.44083e-06
-4.14745e-06
-2.61684e-06
-3.16769e-06
-2.77265e-06
-2.14103e-06
-2.85202e-06
-1.15631e-06
-2.80368e-06
-3.87098e-06
-2.12144e-06
6.82123e-06
-4.01164e-06
6.91099e-06
-5.78457e-06
6.76642e-06
-7.46453e-06
6.49771e-06
-9.03648e-06
6.05387e-06
-1.03988e-05
5.24196e-06
-1.14113e-05
3.95896e-06
-1.19754e-05
2.33681e-06
-1.20885e-05
6.76345e-07
-1.18324e-05
-7.61678e-07
-1.12611e-05
-1.9492e-06
-1.0491e-05
-2.73274e-06
-9.63081e-06
-3.12479e-06
-8.75991e-06
-3.24261e-06
-7.88619e-06
-3.28648e-06
-6.96999e-06
-3.37491e-06
-6.02029e-06
-3.4147e-06
-5.10942e-06
-3.3517e-06
-4.10202e-06
-3.62424e-06
-3.04995e-06
-3.82473e-06
-1.95194e-06
-3.95004e-06
-8.95968e-07
-3.85966e-06
-4.76695e-06
-1.95703e-06
8.77825e-06
-3.74295e-06
8.69691e-06
-5.50539e-06
8.52885e-06
-7.27611e-06
8.26843e-06
-9.00391e-06
7.78167e-06
-1.05396e-05
6.77761e-06
-1.17017e-05
5.12111e-06
-1.23754e-05
3.0105e-06
-1.25541e-05
8.55e-07
-1.23331e-05
-9.82635e-07
-1.17309e-05
-2.55141e-06
-1.09116e-05
-3.55201e-06
-1.00066e-05
-4.0298e-06
-9.10188e-06
-4.14733e-06
-8.16392e-06
-4.22444e-06
-7.11201e-06
-4.42683e-06
-5.95798e-06
-4.56873e-06
-4.89915e-06
-4.41053e-06
-3.7391e-06
-4.7843e-06
-2.63962e-06
-4.9242e-06
-1.57593e-06
-5.01372e-06
-4.70519e-07
-4.96506e-06
-5.23747e-06
-1.73934e-06
1.05176e-05
-3.41728e-06
1.03749e-05
-5.10647e-06
1.0218e-05
-6.81553e-06
9.97749e-06
-8.50551e-06
9.47165e-06
-1.00551e-05
8.32724e-06
-1.12726e-05
6.3386e-06
-1.19328e-05
3.67068e-06
-1.20366e-05
9.58771e-07
-1.18164e-05
-1.20278e-06
-1.1261e-05
-3.10682e-06
-1.06203e-05
-4.19271e-06
-9.90893e-06
-4.74117e-06
-9.12014e-06
-4.93611e-06
-8.17988e-06
-5.16469e-06
-6.9898e-06
-5.6169e-06
-5.62767e-06
-5.93085e-06
-4.41588e-06
-5.6223e-06
-3.09405e-06
-6.10611e-06
-1.96381e-06
-6.05442e-06
-1.16221e-06
-5.81529e-06
-1.31572e-07
-5.99568e-06
-5.36901e-06
-5.48784e-07
1.10664e-05
-1.84186e-06
1.16679e-05
-3.48399e-06
1.18602e-05
-5.30245e-06
1.17959e-05
-7.20622e-06
1.13754e-05
-9.08428e-06
1.02053e-05
-1.0605e-05
7.8593e-06
-1.13763e-05
4.44199e-06
-1.14847e-05
1.06716e-06
-1.11318e-05
-1.55564e-06
-1.06577e-05
-3.58087e-06
-1.01584e-05
-4.69198e-06
-9.28218e-06
-5.6174e-06
-8.16197e-06
-6.0563e-06
-6.77403e-06
-6.5526e-06
-5.30809e-06
-7.0828e-06
-3.84616e-06
-7.39275e-06
-2.37516e-06
-7.09326e-06
-7.75737e-07
-7.70548e-06
3.24292e-07
-7.15439e-06
5.14018e-07
-6.00496e-06
6.66296e-07
-6.1479e-06
-4.70268e-06
1.77794e-06
9.28843e-06
2.34676e-06
1.10991e-05
2.44295e-06
1.1764e-05
2.35383e-06
1.18851e-05
2.24142e-06
1.14878e-05
1.98354e-06
1.04632e-05
1.23942e-06
8.60342e-06
2.29931e-08
5.65842e-06
-9.38285e-07
2.02845e-06
-1.20366e-06
-1.29025e-06
-1.43883e-06
-3.34568e-06
-1.44358e-06
-4.68722e-06
-8.63947e-07
-6.19701e-06
-3.26678e-07
-6.59355e-06
5.21335e-07
-7.4006e-06
8.14416e-07
-7.37586e-06
1.42012e-06
-7.99843e-06
3.47633e-06
-9.14944e-06
5.31156e-06
-9.54068e-06
6.79513e-06
-8.63794e-06
7.53887e-06
-6.74867e-06
5.67845e-06
-4.28745e-06
9.75803e-07
2.44486e-07
-2.44481e-07
-4.07228e-07
6.51721e-07
-6.77869e-07
2.70647e-07
-5.84246e-07
-9.36187e-08
-7.21957e-07
1.37715e-07
-1.26464e-06
5.42681e-07
-1.88442e-06
6.19783e-07
-2.26782e-06
3.83403e-07
-2.38313e-06
1.15319e-07
-1.85058e-06
-5.32555e-07
-1.08373e-06
-7.66845e-07
-1.02045e-06
-6.3283e-08
-1.50564e-06
4.85188e-07
-2.35853e-06
8.52897e-07
-3.01621e-06
6.5768e-07
-3.66591e-06
6.49702e-07
-3.75928e-06
9.3383e-08
-2.41021e-06
-1.34907e-06
-2.41021e-06
4.64593e-08
-2.90945e-07
-2.52154e-07
9.50339e-07
7.045e-08
-5.19418e-08
5.59143e-07
-5.82297e-07
5.17706e-07
1.79163e-07
1.57008e-07
9.03388e-07
-3.02086e-07
1.07888e-06
-8.49474e-07
9.30798e-07
-1.0058e-06
2.71655e-07
-2.84646e-07
-1.25371e-06
7.10322e-07
-1.76181e-06
7.69303e-07
-1.22258e-07
-1.99755e-07
1.45425e-06
-1.67964e-06
2.33279e-06
-3.06953e-06
2.04757e-06
-4.12872e-06
1.70891e-06
-4.24551e-06
2.1018e-07
-2.70726e-06
-2.88731e-06
-5.11746e-06
-4.58412e-06
4.2932e-06
-5.40494e-06
1.77121e-06
-5.42548e-07
-4.9143e-06
2.94836e-06
-4.07317e-06
3.55813e-06
-4.30582e-07
2.79991e-06
1.66163e-06
1.12976e-06
2.74905e-06
-2.91681e-07
2.35225e-06
-1.42612e-06
1.4061e-06
-2.1264e-06
-5.53428e-07
-1.22066e-06
-2.66755e-06
-3.04417e-07
-1.03851e-06
-5.08815e-07
1.65864e-06
-2.44409e-06
4.26806e-06
-5.39696e-06
5.00043e-06
-6.65466e-06
2.9666e-06
-5.83791e-06
-6.0658e-07
-3.6504e-06
-5.07482e-06
-8.76787e-06
-1.48067e-05
1.90999e-05
-7.72216e-06
-5.31332e-06
6.7839e-06
-1.94203e-05
1.71581e-05
-1.44473e-05
2.30506e-05
-6.32306e-06
2.4133e-05
5.79313e-07
2.03442e-05
6.53782e-06
1.33333e-05
9.36322e-06
5.3098e-06
9.42965e-06
9.3287e-07
3.82354e-06
-6.34427e-07
-1.10022e-06
-4.91948e-07
-1.18095e-06
-7.21081e-07
1.88781e-06
-3.0245e-06
6.57151e-06
-6.52663e-06
8.5026e-06
-8.50521e-06
4.94522e-06
-7.96186e-06
-1.1499e-06
-5.14206e-06
-7.8946e-06
-1.39099e-05
-5.62947e-06
2.47294e-05
4.52676e-06
-1.54695e-05
1.16409e-05
-2.65344e-05
1.89539e-05
-2.17603e-05
2.3058e-05
-1.04271e-05
2.34813e-05
1.5604e-07
2.33431e-05
6.67597e-06
2.19308e-05
1.07756e-05
2.12028e-05
1.01576e-05
2.04678e-05
4.55861e-06
1.74315e-05
1.936e-06
9.73486e-06
6.5157e-06
2.42899e-06
9.19366e-06
2.27767e-06
6.7228e-06
1.35745e-06
9.42278e-06
-4.35104e-06
1.06537e-05
-6.31549e-06
8.14522e-07
-2.47521e-06
-1.17349e-05
-1.63852e-05
3.20102e-06
2.15284e-05
1.33349e-05
-2.56034e-05
1.66306e-05
-2.983e-05
2.06936e-05
-2.58233e-05
2.37995e-05
-1.3533e-05
2.23341e-05
1.62151e-06
2.12035e-05
7.80652e-06
2.18018e-05
1.01773e-05
2.30901e-05
8.86932e-06
2.17192e-05
5.9296e-06
1.72613e-05
6.39392e-06
1.19512e-05
1.18258e-05
6.95027e-06
1.41946e-05
7.46437e-06
6.20874e-06
9.75628e-06
7.13091e-06
1.13637e-05
9.04628e-06
1.13699e-05
8.08412e-07
9.24895e-06
-9.61394e-06
-7.13609e-06
1.64435e-05
5.08497e-06
2.01863e-05
-2.93462e-05
2.09865e-05
-3.06302e-05
2.23141e-05
-2.71508e-05
2.43702e-05
-1.55891e-05
2.33866e-05
2.60513e-06
2.15118e-05
9.68135e-06
2.15358e-05
1.01534e-05
2.2507e-05
7.89819e-06
2.0459e-05
7.97755e-06
1.57413e-05
1.11117e-05
1.10961e-05
1.64711e-05
7.23562e-06
1.80551e-05
8.85297e-06
4.59144e-06
1.2723e-05
3.26091e-06
1.39239e-05
7.84544e-06
1.27637e-05
1.9687e-06
1.03624e-05
-7.21259e-06
3.22629e-06
3.12564e-05
-2.61714e-05
2.97749e-05
-2.78646e-05
2.56952e-05
-2.65505e-05
2.3062e-05
-2.45176e-05
2.19692e-05
-1.44964e-05
2.18659e-05
2.70842e-06
2.05516e-05
1.09957e-05
2.00207e-05
1.06843e-05
1.89757e-05
8.9432e-06
1.70243e-05
9.92897e-06
1.35543e-05
1.45817e-05
1.01684e-05
1.9857e-05
8.4543e-06
1.97693e-05
9.3099e-06
3.73587e-06
1.17293e-05
8.41563e-07
1.13516e-05
8.22308e-06
8.05875e-06
5.2616e-06
5.77493e-06
-4.92879e-06
9.00127e-06
2.93243e-06
6.35599e-06
4.78739e-06
9.24416e-06
5.99888e-06
1.05525e-05
7.70718e-06
1.01768e-05
9.82006e-06
9.37496e-06
1.17862e-05
8.49702e-06
1.33103e-05
7.07941e-06
1.40067e-05
4.96194e-06
1.38964e-05
2.13877e-06
1.29904e-05
-3.84254e-07
1.24923e-05
-2.8475e-06
1.24718e-05
-4.66675e-06
1.23049e-05
-6.03011e-06
1.30463e-05
-7.33496e-06
1.48233e-05
-9.17762e-06
1.6805e-05
-9.35755e-06
1.81292e-05
-9.3226e-06
1.95406e-05
-1.05608e-05
2.1569e-05
-1.1569e-05
2.4731e-05
-1.17999e-05
2.97243e-05
-1.1742e-05
3.6916e-05
-1.14791e-05
-9.93813e-06
4.783e-05
1.03088e-06
5.32512e-06
2.2239e-06
8.05114e-06
3.87342e-06
8.90298e-06
6.28519e-06
7.765e-06
8.24867e-06
7.41148e-06
9.84164e-06
6.90406e-06
1.11858e-05
5.73523e-06
1.19076e-05
4.24013e-06
1.18986e-05
2.14777e-06
1.20801e-05
-5.6575e-07
1.24221e-05
-3.18949e-06
1.30062e-05
-5.25079e-06
1.35687e-05
-6.59264e-06
1.47263e-05
-8.4926e-06
1.58679e-05
-1.03192e-05
1.74588e-05
-1.09484e-05
1.89594e-05
-1.08232e-05
2.10569e-05
-1.26583e-05
2.26443e-05
-1.31565e-05
2.46728e-05
-1.38284e-05
2.93349e-05
-1.64041e-05
3.60581e-05
-1.82023e-05
-1.85572e-05
4.46771e-05
9.23895e-07
4.40122e-06
3.11859e-06
5.85644e-06
6.16779e-06
5.85378e-06
8.4985e-06
5.43429e-06
8.59398e-06
7.31601e-06
8.04404e-06
7.45401e-06
7.83321e-06
5.94606e-06
8.71713e-06
3.3562e-06
1.03174e-05
5.47457e-07
1.1915e-05
-2.16329e-06
1.32357e-05
-4.51022e-06
1.40058e-05
-6.02089e-06
1.44049e-05
-6.99173e-06
1.45594e-05
-8.64718e-06
1.36944e-05
-9.4542e-06
1.35907e-05
-1.08447e-05
1.35359e-05
-1.07685e-05
1.50686e-05
-1.4191e-05
1.60397e-05
-1.41276e-05
1.76292e-05
-1.54179e-05
2.14097e-05
-2.01845e-05
2.66164e-05
-2.34091e-05
-2.45091e-05
3.25684e-05
-4.22246e-07
4.82347e-06
3.19208e-06
2.24211e-06
7.18375e-06
1.86211e-06
9.19491e-06
3.42313e-06
9.47002e-06
7.0409e-06
9.53133e-06
7.39269e-06
9.64676e-06
5.83063e-06
1.00928e-05
2.91011e-06
1.09138e-05
-2.73497e-07
1.10576e-05
-2.30715e-06
1.05532e-05
-4.00582e-06
9.91115e-06
-5.37884e-06
9.9452e-06
-7.02579e-06
9.36593e-06
-8.06793e-06
8.01383e-06
-8.10212e-06
5.07776e-06
-7.90866e-06
3.24036e-06
-8.93111e-06
3.04815e-06
-1.39988e-05
5.16498e-06
-1.62444e-05
6.54111e-06
-1.6794e-05
8.26738e-06
-2.19108e-05
1.03504e-05
-2.54921e-05
-2.62096e-05
1.20508e-05
-2.65216e-06
7.47562e-06
1.58625e-07
-5.68684e-07
3.49331e-06
-1.47258e-06
5.75601e-06
1.16041e-06
8.97644e-06
3.82046e-06
1.22234e-05
4.14573e-06
1.44956e-05
3.55837e-06
1.45692e-05
2.83659e-06
1.28632e-05
1.43243e-06
9.86291e-06
6.93153e-07
6.85991e-06
-1.00283e-06
5.16624e-06
-3.68519e-06
4.51522e-06
-6.37479e-06
3.69334e-06
-7.24607e-06
2.79697e-06
-7.20578e-06
4.5578e-07
-5.5675e-06
-1.51e-07
-8.32436e-06
-3.09007e-07
-1.38409e-05
1.0344e-07
-1.66569e-05
-6.40274e-07
-1.60504e-05
-2.16547e-06
-2.03856e-05
-3.70575e-06
-2.39518e-05
-2.39073e-05
-6.00816e-06
2.25233e-06
5.22328e-06
3.15693e-06
-1.47329e-06
3.28125e-06
-1.5969e-06
5.46197e-06
-1.02031e-06
9.60124e-06
-3.18812e-07
1.36329e-05
1.14055e-07
1.66041e-05
5.87216e-07
1.83818e-05
1.05888e-06
1.88476e-05
9.66622e-07
1.87367e-05
8.04048e-07
1.75858e-05
1.48068e-07
1.50904e-05
-1.18987e-06
1.15354e-05
-2.81982e-06
8.32477e-06
-4.03542e-06
6.06066e-06
-4.9417e-06
6.32251e-06
-5.82939e-06
6.77847e-06
-8.78036e-06
5.42497e-06
-1.24874e-05
1.94753e-06
-1.31795e-05
-5.41915e-07
-1.3561e-05
-2.64626e-06
-1.82813e-05
-3.84939e-06
-2.27488e-05
-2.42376e-05
-3.51915e-06
9.16749e-06
-3.94417e-06
8.42438e-06
-7.30153e-07
7.63545e-06
-8.07945e-07
9.32951e-06
-2.71435e-06
1.27431e-05
-3.73236e-06
1.59118e-05
-3.05471e-06
1.85029e-05
-2.00388e-06
2.03632e-05
-8.01347e-07
2.09973e-05
3.3253e-07
2.05548e-05
1.24648e-06
1.96397e-05
1.06322e-06
1.78499e-05
5.99924e-07
1.50201e-05
9.93574e-09
1.1837e-05
-8.52364e-07
9.0254e-06
-2.13008e-06
9.01133e-06
-5.81534e-06
1.0554e-05
-1.03231e-05
1.05659e-05
-1.24993e-05
8.63022e-06
-1.12438e-05
6.38911e-06
-1.13199e-05
4.80328e-06
-1.66955e-05
4.43907e-06
-2.23846e-05
-2.55202e-05
5.72164e-06
-9.6981e-06
5.75417e-06
-1.45818e-05
4.15375e-06
-9.74717e-06
-5.6425e-06
-5.39624e-06
-7.0652e-06
-5.54467e-06
-3.58387e-06
-6.52423e-06
-2.0751e-06
-7.61963e-07
-7.76608e-06
4.52229e-06
-6.08553e-06
7.20621e-06
-2.35134e-06
8.9306e-06
-4.77871e-07
1.04781e-05
-4.84241e-07
1.17998e-05
-7.21803e-07
1.2999e-05
-1.1892e-06
1.35511e-05
-1.40446e-06
1.4115e-05
-2.69401e-06
1.42435e-05
-5.94387e-06
1.49209e-05
-1.10004e-05
1.61985e-05
-1.37769e-05
1.67563e-05
-1.18016e-05
1.59174e-05
-1.0481e-05
1.43555e-05
-1.51336e-05
1.40392e-05
-2.20682e-05
-2.6345e-05
1.48641e-05
8.75212e-06
-2.99771e-06
1.54736e-05
-2.56751e-06
1.64586e-05
-6.62724e-06
1.78529e-05
-8.45931e-06
2.13103e-05
-7.0411e-06
2.42282e-05
-4.99292e-06
2.08148e-05
-4.35252e-06
1.62884e-05
-1.55903e-06
1.27139e-05
1.22334e-06
5.51683e-06
6.71931e-06
-8.18454e-06
1.32172e-05
-1.2445e-05
3.53872e-06
-7.60274e-06
-6.03136e-06
-1.1651e-06
-7.842e-06
4.95384e-06
-8.81282e-06
-1.65009e-06
6.60203e-07
-1.20097e-05
-6.40658e-07
-3.45421e-06
-2.23323e-05
1.02432e-05
-2.54989e-05
1.9837e-05
-2.00747e-05
2.08359e-05
-1.61322e-05
1.94417e-05
-2.06735e-05
-2.59183e-05
1.90156e-05
7.0223e-06
-1.00197e-05
1.34031e-05
-8.94808e-06
1.62706e-05
-9.4945e-06
1.79748e-05
-1.01634e-05
2.07171e-05
-9.78321e-06
2.45596e-05
-8.83533e-06
2.87191e-05
-8.51192e-06
3.48975e-05
-7.73724e-06
4.12154e-05
-5.09443e-06
4.64052e-05
1.5297e-06
5.41261e-05
5.49653e-06
5.89734e-05
-1.3083e-06
6.12265e-05
-8.28422e-06
6.28101e-05
-9.42522e-06
5.99336e-05
-5.93593e-06
5.62393e-05
4.35493e-06
4.30508e-05
1.25483e-05
2.67877e-05
-6.06885e-06
1.90261e-05
-1.7737e-05
2.69395e-05
-2.79875e-05
3.53879e-05
-2.45796e-05
3.66135e-05
-2.18987e-05
-2.11148e-05
3.18119e-05
3.82361e-06
-1.38432e-05
7.83223e-06
-1.29565e-05
1.03204e-05
-1.19825e-05
1.18558e-05
-1.16987e-05
1.33313e-05
-1.12585e-05
1.53698e-05
-1.08737e-05
1.8851e-05
-1.1993e-05
2.39254e-05
-1.28116e-05
2.87869e-05
-9.95571e-06
3.60301e-05
-5.71336e-06
4.59136e-05
-4.38679e-06
5.33799e-05
-8.77438e-06
5.7455e-05
-1.2359e-05
6.16353e-05
-1.36053e-05
6.72878e-05
-1.15881e-05
7.8501e-05
-6.85795e-06
9.4574e-05
-3.52427e-06
9.83181e-05
-9.81252e-06
9.70218e-05
-1.64401e-05
8.981e-05
-2.07752e-05
8.67593e-05
-2.15283e-05
8.29682e-05
-1.81064e-05
-1.86875e-05
8.05412e-05
2.09143e-06
-1.59344e-05
4.2881e-06
-1.5153e-05
5.76446e-06
-1.34587e-05
6.54818e-06
-1.24823e-05
6.98625e-06
-1.16965e-05
7.78174e-06
-1.16691e-05
1.08276e-05
-1.50387e-05
1.46107e-05
-1.65946e-05
1.85078e-05
-1.38527e-05
2.29615e-05
-1.01669e-05
2.93932e-05
-1.08183e-05
3.49634e-05
-1.43444e-05
3.82415e-05
-1.56369e-05
4.05215e-05
-1.58851e-05
4.43382e-05
-1.54044e-05
5.1882e-05
-1.44014e-05
6.33653e-05
-1.50071e-05
7.25013e-05
-1.89481e-05
7.85968e-05
-2.25352e-05
8.13392e-05
-2.3517e-05
8.18031e-05
-2.19914e-05
8.22353e-05
-1.85387e-05
-1.82317e-05
8.17803e-05
1.02051e-06
-1.69548e-05
2.05451e-06
-1.6187e-05
2.80154e-06
-1.42057e-05
3.16222e-06
-1.28429e-05
3.26663e-06
-1.18008e-05
3.77313e-06
-1.21755e-05
5.61126e-06
-1.68767e-05
7.11444e-06
-1.80977e-05
9.25311e-06
-1.59913e-05
1.26031e-05
-1.35167e-05
1.71714e-05
-1.53865e-05
2.11054e-05
-1.82783e-05
2.34801e-05
-1.80113e-05
2.49842e-05
-1.7389e-05
2.74122e-05
-1.78321e-05
3.17341e-05
-1.87231e-05
3.79983e-05
-2.1271e-05
4.41168e-05
-2.50662e-05
4.85583e-05
-2.69763e-05
5.0656e-05
-2.56143e-05
5.10222e-05
-2.23576e-05
5.07492e-05
-1.8265e-05
-1.62375e-05
4.8755e-05
2.83304e-07
-1.7238e-05
6.45536e-07
-1.65491e-05
1.01115e-06
-1.45712e-05
1.38656e-06
-1.32183e-05
1.89237e-06
-1.23066e-05
2.59139e-06
-1.28745e-05
2.56523e-06
-1.68505e-05
2.4736e-06
-1.8006e-05
3.09101e-06
-1.66086e-05
5.37238e-06
-1.5798e-05
7.93041e-06
-1.79444e-05
1.03597e-05
-2.07074e-05
1.2343e-05
-1.99945e-05
1.35473e-05
-1.85931e-05
1.47593e-05
-1.9044e-05
1.62832e-05
-2.02467e-05
1.86202e-05
-2.36077e-05
2.10558e-05
-2.75016e-05
2.26475e-05
-2.85678e-05
2.2781e-05
-2.57477e-05
2.1979e-05
-2.15554e-05
2.00475e-05
-1.63339e-05
-1.12805e-05
1.50904e-05
-2.00961e-07
-1.70371e-05
-2.96249e-07
-1.64538e-05
-1.37437e-07
-1.473e-05
2.75856e-07
-1.36315e-05
1.09314e-06
-1.31238e-05
1.89988e-06
-1.36812e-05
1.24299e-06
-1.61936e-05
5.40637e-07
-1.73036e-05
5.53561e-07
-1.66214e-05
1.48444e-06
-1.67288e-05
2.2757e-06
-1.87356e-05
3.01167e-06
-2.14432e-05
4.14068e-06
-2.11234e-05
5.05265e-06
-1.95049e-05
5.20898e-06
-1.92001e-05
4.95926e-06
-1.99968e-05
4.27065e-06
-2.29189e-05
3.35593e-06
-2.65867e-05
1.75487e-06
-2.69666e-05
-4.85921e-07
-2.35069e-05
-4.13728e-06
-1.79043e-05
-8.78585e-06
-1.16853e-05
-5.16635e-06
-1.48999e-05
-5.58434e-07
-1.64785e-05
-9.65485e-07
-1.60467e-05
-1.04392e-06
-1.46515e-05
-8.11693e-07
-1.38637e-05
-2.45221e-07
-1.36902e-05
3.3724e-07
-1.42636e-05
-4.34788e-08
-1.58128e-05
-7.04555e-07
-1.66424e-05
-7.16286e-07
-1.66096e-05
-4.54174e-07
-1.69908e-05
-5.60055e-07
-1.86296e-05
-1.29751e-06
-2.07056e-05
-1.50937e-06
-2.09114e-05
-1.26956e-06
-1.97445e-05
-1.54508e-06
-1.89244e-05
-2.42502e-06
-1.91167e-05
-4.51227e-06
-2.08315e-05
-7.4301e-06
-2.36687e-05
-1.09102e-05
-2.34865e-05
-1.40401e-05
-2.03769e-05
-1.63335e-05
-1.56109e-05
-1.76668e-05
-1.03523e-05
-3.13965e-06
-1.96935e-05
-8.28673e-07
-1.56498e-05
-1.47774e-06
-1.53976e-05
-1.7974e-06
-1.43318e-05
-1.83453e-06
-1.38266e-05
-1.66441e-06
-1.38603e-05
-1.48505e-06
-1.44429e-05
-1.86851e-06
-1.54293e-05
-2.36801e-06
-1.61428e-05
-2.45214e-06
-1.65254e-05
-2.31741e-06
-1.71254e-05
-2.67959e-06
-1.82673e-05
-3.84943e-06
-1.95356e-05
-4.81211e-06
-1.99485e-05
-5.24461e-06
-1.93118e-05
-5.52794e-06
-1.86409e-05
-6.1696e-06
-1.84748e-05
-7.7584e-06
-1.92425e-05
-1.0788e-05
-2.06389e-05
-1.39136e-05
-2.03608e-05
-1.62966e-05
-1.79939e-05
-1.7114e-05
-1.47935e-05
-1.71076e-05
-1.03588e-05
-3.2572e-06
-1.69899e-05
-1.0282e-06
-1.46215e-05
-1.86828e-06
-1.45574e-05
-2.39211e-06
-1.3808e-05
-2.66829e-06
-1.35504e-05
-2.80459e-06
-1.3724e-05
-2.97135e-06
-1.42761e-05
-3.36595e-06
-1.50346e-05
-3.80583e-06
-1.57029e-05
-4.07122e-06
-1.62599e-05
-4.27751e-06
-1.6919e-05
-4.77152e-06
-1.77731e-05
-5.73982e-06
-1.85672e-05
-6.80496e-06
-1.88832e-05
-7.46808e-06
-1.86485e-05
-7.8284e-06
-1.82804e-05
-8.15506e-06
-1.8148e-05
-8.96772e-06
-1.84296e-05
-1.08419e-05
-1.87645e-05
-1.29958e-05
-1.82069e-05
-1.46127e-05
-1.6377e-05
-1.53156e-05
-1.40905e-05
-1.51257e-05
-1.05486e-05
-4.77311e-06
-1.36097e-05
-1.18473e-06
-1.34369e-05
-2.17752e-06
-1.35647e-05
-2.85749e-06
-1.3128e-05
-3.29667e-06
-1.31112e-05
-3.59926e-06
-1.34214e-05
-3.88979e-06
-1.39856e-05
-4.25385e-06
-1.46705e-05
-4.63204e-06
-1.53246e-05
-4.96925e-06
-1.59226e-05
-5.35227e-06
-1.65358e-05
-5.94887e-06
-1.71764e-05
-6.80483e-06
-1.7711e-05
-7.73532e-06
-1.79526e-05
-8.49262e-06
-1.78911e-05
-9.05838e-06
-1.77145e-05
-9.59491e-06
-1.76113e-05
-1.03717e-05
-1.76526e-05
-1.1536e-05
-1.76001e-05
-1.27565e-05
-1.69862e-05
-1.35147e-05
-1.56187e-05
-1.3995e-05
-1.36101e-05
-1.36842e-05
-1.08594e-05
-6.57552e-06
-1.18816e-05
-1.32331e-06
-1.21134e-05
-2.45562e-06
-1.24323e-05
-3.27111e-06
-1.23125e-05
-3.83144e-06
-1.25508e-05
-4.22313e-06
-1.30297e-05
-4.53768e-06
-1.3671e-05
-4.83666e-06
-1.43715e-05
-5.12643e-06
-1.50348e-05
-5.42147e-06
-1.56274e-05
-5.79271e-06
-1.61645e-05
-6.32864e-06
-1.66403e-05
-7.04685e-06
-1.69927e-05
-7.85265e-06
-1.71466e-05
-8.63472e-06
-1.71088e-05
-9.37786e-06
-1.69711e-05
-1.01558e-05
-1.68332e-05
-1.10897e-05
-1.67184e-05
-1.21957e-05
-1.64941e-05
-1.32448e-05
-1.59369e-05
-1.39477e-05
-1.49156e-05
-1.41334e-05
-1.34244e-05
-1.36483e-05
-1.13444e-05
-8.3831e-06
-1.18405e-05
-1.46691e-06
-1.06465e-05
-2.74493e-06
-1.11542e-05
-3.70096e-06
-1.13564e-05
-4.38262e-06
-1.18691e-05
-4.85528e-06
-1.25569e-05
-5.18809e-06
-1.33381e-05
-5.43834e-06
-1.41212e-05
-5.64678e-06
-1.48262e-05
-5.86077e-06
-1.54133e-05
-6.14579e-06
-1.58793e-05
-6.56116e-06
-1.62248e-05
-7.12136e-06
-1.64323e-05
-7.7849e-06
-1.64829e-05
-8.50191e-06
-1.63916e-05
-9.2634e-06
-1.62094e-05
-1.01072e-05
-1.59893e-05
-1.10833e-05
-1.57421e-05
-1.21749e-05
-1.54022e-05
-1.32437e-05
-1.4868e-05
-1.40956e-05
-1.40636e-05
-1.45458e-05
-1.2974e-05
-1.43657e-05
-1.15243e-05
-9.5138e-06
-1.32348e-05
-1.61832e-06
-9.02808e-06
-3.051e-06
-9.7215e-06
-4.15594e-06
-1.02514e-05
-4.96479e-06
-1.10602e-05
-5.52275e-06
-1.19989e-05
-5.88288e-06
-1.29779e-05
-6.10278e-06
-1.39012e-05
-6.2447e-06
-1.46842e-05
-6.37794e-06
-1.528e-05
-6.57162e-06
-1.56855e-05
-6.87623e-06
-1.592e-05
-7.30683e-06
-1.60016e-05
-7.84522e-06
-1.59443e-05
-8.46635e-06
-1.57703e-05
-9.16385e-06
-1.55118e-05
-9.95495e-06
-1.5198e-05
-1.08614e-05
-1.48355e-05
-1.18667e-05
-1.43967e-05
-1.28983e-05
-1.38363e-05
-1.38386e-05
-1.31231e-05
-1.45613e-05
-1.22512e-05
-1.49122e-05
-1.11734e-05
-9.71871e-06
-1.47069e-05
-1.77341e-06
-7.25475e-06
-3.35986e-06
-8.13504e-06
-4.60798e-06
-9.00324e-06
-5.53351e-06
-1.01346e-05
-6.16399e-06
-1.13684e-05
-6.54155e-06
-1.26003e-05
-6.72745e-06
-1.37152e-05
-6.80185e-06
-1.46097e-05
-6.85312e-06
-1.52286e-05
-6.95971e-06
-1.55788e-05
-7.17331e-06
-1.57063e-05
-7.5112e-06
-1.56635e-05
-7.96346e-06
-1.54919e-05
-8.51121e-06
-1.52224e-05
-9.14334e-06
-1.48794e-05
-9.86205e-06
-1.44791e-05
-1.0672e-05
-1.40253e-05
-1.1563e-05
-1.35056e-05
-1.24959e-05
-1.29032e-05
-1.34115e-05
-1.22074e-05
-1.42405e-05
-1.14221e-05
-1.48996e-05
-1.0514e-05
-9.32968e-06
-1.52884e-05
-1.92142e-06
-5.33317e-06
-3.65049e-06
-6.4059e-06
-5.02389e-06
-7.62978e-06
-6.04219e-06
-9.11628e-06
-6.71881e-06
-1.06917e-05
-7.09039e-06
-1.22286e-05
-7.22554e-06
-1.358e-05
-7.22209e-06
-1.4613e-05
-7.18582e-06
-1.52647e-05
-7.20559e-06
-1.55589e-05
-7.338e-06
-1.55737e-05
-7.604e-06
-1.53973e-05
-7.99727e-06
-1.50984e-05
-8.49827e-06
-1.47212e-05
-9.0882e-06
-1.42893e-05
-9.75558e-06
-1.38115e-05
-1.04939e-05
-1.32869e-05
-1.1291e-05
-1.27083e-05
-1.21247e-05
-1.20692e-05
-1.29622e-05
-1.13698e-05
-1.37623e-05
-1.06219e-05
-1.44802e-05
-9.79611e-06
-8.76668e-06
-1.50429e-05
-2.05852e-06
-3.27468e-06
-3.91112e-06
-4.55326e-06
-5.38413e-06
-6.15672e-06
-6.46476e-06
-8.03559e-06
-7.15709e-06
-9.99932e-06
-7.4973e-06
-1.18883e-05
-7.56512e-06
-1.3512e-05
-7.47696e-06
-1.47011e-05
-7.35274e-06
-1.53888e-05
-7.28838e-06
-1.56231e-05
-7.34454e-06
-1.55174e-05
-7.54609e-06
-1.51956e-05
-7.89028e-06
-1.47541e-05
-8.35719e-06
-1.42541e-05
-8.92118e-06
-1.37252e-05
-9.55942e-06
-1.31731e-05
-1.02548e-05
-1.25913e-05
-1.09917e-05
-1.19713e-05
-1.17529e-05
-1.13079e-05
-1.25154e-05
-1.06071e-05
-1.32548e-05
-9.8824e-06
-1.3934e-05
-9.11666e-06
-8.19562e-06
-1.45049e-05
-2.18291e-06
-1.09161e-06
-4.13592e-06
-2.60016e-06
-5.67926e-06
-4.61331e-06
-6.79067e-06
-6.92411e-06
-7.46957e-06
-9.32034e-06
-7.75621e-06
-1.16016e-05
-7.74515e-06
-1.3523e-05
-7.57282e-06
-1.48733e-05
-7.36829e-06
-1.55932e-05
-7.22851e-06
-1.57627e-05
-7.21493e-06
-1.55308e-05
-7.35516e-06
-1.50552e-05
-7.65099e-06
-1.44581e-05
-8.08467e-06
-1.38203e-05
-8.62709e-06
-1.31826e-05
-9.24742e-06
-1.25526e-05
-9.91945e-06
-1.19191e-05
-1.06236e-05
-1.1267e-05
-1.1342e-05
-1.05894e-05
-1.20572e-05
-9.89177e-06
-1.27482e-05
-9.19127e-06
-1.33859e-05
-8.479e-06
-7.65839e-06
-1.39229e-05
-2.29778e-06
1.2061e-06
-4.32573e-06
-5.72167e-07
-5.90525e-06
-3.03373e-06
-7.01626e-06
-5.81302e-06
-7.65654e-06
-8.67998e-06
-7.8728e-06
-1.13852e-05
-7.77733e-06
-1.36184e-05
-7.52871e-06
-1.51218e-05
-7.2579e-06
-1.58639e-05
-7.05601e-06
-1.59645e-05
-6.98208e-06
-1.56046e-05
-7.06477e-06
-1.49724e-05
-7.31071e-06
-1.4212e-05
-7.70707e-06
-1.34238e-05
-8.22516e-06
-1.26643e-05
-8.82954e-06
-1.19481e-05
-9.48743e-06
-1.12611e-05
-1.01732e-05
-1.05811e-05
-1.08688e-05
-9.89364e-06
-1.1558e-05
-9.20254e-06
-1.22228e-05
-8.52642e-06
-1.28371e-05
-7.86446e-06
-7.13144e-06
-1.33639e-05
-2.38745e-06
3.59372e-06
-4.47269e-06
1.51317e-06
-6.05491e-06
-1.45143e-06
-7.13875e-06
-4.7291e-06
-7.72279e-06
-8.09585e-06
-7.85893e-06
-1.1249e-05
-7.67999e-06
-1.37972e-05
-7.37009e-06
-1.54316e-05
-7.05181e-06
-1.61821e-05
-6.80426e-06
-1.62119e-05
-6.68193e-06
-1.57268e-05
-6.71223e-06
-1.49419e-05
-6.90613e-06
-1.4018e-05
-7.25855e-06
-1.30712e-05
-7.74569e-06
-1.21771e-05
-8.33078e-06
-1.13628e-05
-8.97593e-06
-1.06158e-05
-9.65056e-06
-9.90636e-06
-1.03339e-05
-9.21025e-06
-1.10108e-05
-8.52555e-06
-1.16653e-05
-7.8718e-06
-1.22733e-05
-7.25664e-06
-6.60781e-06
-1.27966e-05
-2.44624e-06
6.03994e-06
-4.55389e-06
3.62086e-06
-6.11377e-06
1.08516e-07
-7.15169e-06
-3.6911e-06
-7.67191e-06
-7.57554e-06
-7.72628e-06
-1.11945e-05
-7.47093e-06
-1.40524e-05
-7.12124e-06
-1.57811e-05
-6.77841e-06
-1.65248e-05
-6.50478e-06
-1.64854e-05
-6.34924e-06
-1.58822e-05
-6.33538e-06
-1.49557e-05
-6.4762e-06
-1.3877e-05
-6.77599e-06
-1.27713e-05
-7.22131e-06
-1.17316e-05
-7.77904e-06
-1.0805e-05
-8.40779e-06
-9.98696e-06
-9.07168e-06
-9.24237e-06
-9.74564e-06
-8.5362e-06
-1.04154e-05
-7.85572e-06
-1.10669e-05
-7.22034e-06
-1.16785e-05
-6.64479e-06
-6.06746e-06
-1.22188e-05
-2.35755e-06
8.39764e-06
-4.49641e-06
5.7598e-06
-6.03601e-06
1.64819e-06
-7.03201e-06
-2.69502e-06
-7.49983e-06
-7.10764e-06
-7.47324e-06
-1.1221e-05
-7.15459e-06
-1.4371e-05
-6.79493e-06
-1.61407e-05
-6.45412e-06
-1.68655e-05
-6.17878e-06
-1.67607e-05
-6.01072e-06
-1.60502e-05
-5.96666e-06
-1.49996e-05
-6.05785e-06
-1.37857e-05
-6.2968e-06
-1.25322e-05
-6.68529e-06
-1.1343e-05
-7.20162e-06
-1.02886e-05
-7.80504e-06
-9.38345e-06
-8.4539e-06
-8.59342e-06
-9.11845e-06
-7.87159e-06
-9.78155e-06
-7.19258e-06
-1.04324e-05
-6.56937e-06
-1.10526e-05
-6.02483e-06
-5.51243e-06
-1.16073e-05
-2.07958e-06
1.04772e-05
-4.14704e-06
7.82728e-06
-5.73142e-06
3.23261e-06
-6.70914e-06
-1.71725e-06
-7.14511e-06
-6.67159e-06
-7.0724e-06
-1.12936e-05
-6.72392e-06
-1.47194e-05
-6.38245e-06
-1.64821e-05
-6.0728e-06
-1.7175e-05
-5.82778e-06
-1.70056e-05
-5.67676e-06
-1.62011e-05
-5.62563e-06
-1.50507e-05
-5.67938e-06
-1.37319e-05
-5.85495e-06
-1.23566e-05
-6.17107e-06
-1.10269e-05
-6.62605e-06
-9.83352e-06
-7.18851e-06
-8.82093e-06
-7.81296e-06
-7.96891e-06
-8.46225e-06
-7.22225e-06
-9.1151e-06
-6.53971e-06
-9.76159e-06
-5.92291e-06
-1.03864e-05
-5.39971e-06
-4.93822e-06
-1.09606e-05
-1.73105e-06
1.22083e-05
-3.56821e-06
9.6645e-06
-5.11259e-06
4.77704e-06
-6.07734e-06
-7.52454e-07
-6.49655e-06
-6.25232e-06
-6.43216e-06
-1.1358e-05
-6.12947e-06
-1.5022e-05
-5.8393e-06
-1.67722e-05
-5.59965e-06
-1.74146e-05
-5.42963e-06
-1.71755e-05
-5.33714e-06
-1.62936e-05
-5.31322e-06
-1.50745e-05
-5.35371e-06
-1.36914e-05
-5.4744e-06
-1.22359e-05
-5.7081e-06
-1.07931e-05
-6.07922e-06
-9.46236e-06
-6.57785e-06
-8.32226e-06
-7.1623e-06
-7.38442e-06
-7.78707e-06
-6.59747e-06
-8.42335e-06
-5.90343e-06
-9.05909e-06
-5.28709e-06
-9.68248e-06
-4.77657e-06
-4.35876e-06
-1.02617e-05
-1.30943e-06
1.35177e-05
-2.83401e-06
1.11891e-05
-4.18139e-06
6.12443e-06
-5.06897e-06
1.3515e-07
-5.4707e-06
-5.85056e-06
-5.44408e-06
-1.13846e-05
-5.26835e-06
-1.51977e-05
-5.0935e-06
-1.6947e-05
-4.9833e-06
-1.75248e-05
-4.94789e-06
-1.72109e-05
-4.96597e-06
-1.62755e-05
-5.01273e-06
-1.50278e-05
-5.07477e-06
-1.36293e-05
-5.16314e-06
-1.21475e-05
-5.31694e-06
-1.06393e-05
-5.58594e-06
-9.19336e-06
-5.99304e-06
-7.91515e-06
-6.51399e-06
-6.86347e-06
-7.09878e-06
-6.01268e-06
-7.70797e-06
-5.29427e-06
-8.32342e-06
-4.67176e-06
-8.93456e-06
-4.16521e-06
-3.7771e-06
-9.51629e-06
-7.94115e-07
1.43119e-05
-1.91022e-06
1.23052e-05
-2.93344e-06
7.14764e-06
-3.70719e-06
9.08899e-07
-4.03932e-06
-5.51843e-06
-4.07749e-06
-1.13464e-05
-4.07275e-06
-1.52025e-05
-4.09582e-06
-1.6924e-05
-4.19258e-06
-1.7428e-05
-4.35523e-06
-1.70483e-05
-4.53568e-06
-1.6095e-05
-4.69698e-06
-1.48665e-05
-4.81981e-06
-1.35065e-05
-4.90919e-06
-1.20581e-05
-5.00249e-06
-1.0546e-05
-5.16403e-06
-9.03185e-06
-5.45352e-06
-7.62568e-06
-5.88152e-06
-6.43551e-06
-6.40593e-06
-5.48832e-06
-6.97465e-06
-4.72562e-06
-7.55952e-06
-4.08689e-06
-8.14956e-06
-3.57549e-06
-3.20878e-06
-8.71774e-06
-2.43103e-07
1.45548e-05
-8.81207e-07
1.29432e-05
-1.52314e-06
7.78954e-06
-2.06045e-06
1.44618e-06
-2.26498e-06
-5.31393e-06
-2.3764e-06
-1.1235e-05
-2.59633e-06
-1.49826e-05
-2.88718e-06
-1.66331e-05
-3.25232e-06
-1.70629e-05
-3.65498e-06
-1.66457e-05
-4.03089e-06
-1.57191e-05
-4.33742e-06
-1.456e-05
-4.55444e-06
-1.32895e-05
-4.6819e-06
-1.19307e-05
-4.74829e-06
-1.04797e-05
-4.818e-06
-8.96221e-06
-4.97618e-06
-7.46756e-06
-5.28015e-06
-6.13161e-06
-5.71638e-06
-5.05216e-06
-6.22789e-06
-4.21421e-06
-6.77036e-06
-3.54458e-06
-7.32633e-06
-3.01935e-06
-2.66032e-06
-7.87491e-06
2.75331e-07
1.42796e-05
1.01278e-07
1.31173e-05
-1.56512e-07
8.04728e-06
-3.3404e-07
1.62366e-06
-3.24528e-07
-5.32349e-06
-5.17069e-07
-1.10425e-05
-1.01167e-06
-1.4488e-05
-1.59514e-06
-1.60497e-05
-2.23985e-06
-1.64183e-05
-2.88302e-06
-1.60025e-05
-3.45405e-06
-1.51482e-05
-3.91162e-06
-1.41025e-05
-4.23963e-06
-1.29616e-05
-4.43589e-06
-1.17345e-05
-4.51672e-06
-1.03989e-05
-4.53117e-06
-8.94784e-06
-4.56807e-06
-7.43076e-06
-4.72553e-06
-5.97423e-06
-5.04283e-06
-4.73496e-06
-5.47643e-06
-3.78073e-06
-5.96446e-06
-3.05658e-06
-6.47729e-06
-2.50691e-06