/*--------------------------------*- C++ -*----------------------------------*\
| =========                 |                                                 |
| \\      /  F ield         | OpenFOAM: The Open Source CFD Toolbox           |
|  \\    /   O peration     | Version:  2312                                  |
|   \\  /    A nd           | Website:  www.openfoam.com                      |
|    \\/     M anipulation  |                                                 |
\*---------------------------------------------------------------------------*/
FoamFile
{
    version     2.0;
    format      ascii;
    arch        "LSB;label=32;scalar=64";
    class       volVectorField;
    location    "4";
    object      U;
}
// * * * * * * * * * * * * * * * * * * * * * * * * * * * * * * * * * * * * * //

dimensions      [0 1 -1 0 0 0 0];

internalField   nonuniform List<vector> 
2268
(
(-0.00252922 0.000336077 0)
(-0.0194478 0.00338726 0)
(-0.0382551 0.00414029 0)
(-0.0571077 0.00435422 0)
(-0.0752347 0.00420241 0)
(-0.0916578 0.00376782 0)
(-0.105257 0.00301103 0)
(-0.114929 0.00200437 0)
(-0.120112 0.000929714 0)
(-0.120919 -6.01621e-05 0)
(-0.117961 -0.000885179 0)
(-0.112169 -0.00147235 0)
(-0.104614 -0.00181624 0)
(-0.0961697 -0.00197934 0)
(-0.0873451 -0.00205249 0)
(-0.0783552 -0.0020961 0)
(-0.0693479 -0.00209801 0)
(-0.0603646 -0.00211032 0)
(-0.0510789 -0.00225491 0)
(-0.0412686 -0.0023984 0)
(-0.03117 -0.00243155 0)
(-0.021022 -0.00260221 0)
(-0.0112789 -0.00461335 0)
(-0.0107087 0.0102445 0)
(-0.0285008 0.013566 0)
(-0.0478027 0.0136705 0)
(-0.0660659 0.0133297 0)
(-0.0834741 0.0123963 0)
(-0.0991853 0.0107231 0)
(-0.112126 0.00818913 0)
(-0.12113 0.00505452 0)
(-0.125613 0.00181639 0)
(-0.125731 -0.00107674 0)
(-0.122126 -0.00341307 0)
(-0.115732 -0.00498611 0)
(-0.107655 -0.00582479 0)
(-0.0987963 -0.00616632 0)
(-0.0896468 -0.00631046 0)
(-0.0803568 -0.00642429 0)
(-0.0710496 -0.00643636 0)
(-0.0618053 -0.00642389 0)
(-0.0522114 -0.0067998 0)
(-0.0418929 -0.00715358 0)
(-0.0311352 -0.00723064 0)
(-0.0204663 -0.00726478 0)
(-0.00974296 -0.0112265 0)
(-0.0135382 0.0191468 0)
(-0.0330987 0.0216109 0)
(-0.0532522 0.0217998 0)
(-0.0720332 0.0211499 0)
(-0.0898377 0.0197406 0)
(-0.105841 0.0171663 0)
(-0.118884 0.0131339 0)
(-0.127693 0.00804028 0)
(-0.131692 0.0027762 0)
(-0.131156 -0.00190828 0)
(-0.126818 -0.00579571 0)
(-0.119663 -0.00849131 0)
(-0.110914 -0.00998975 0)
(-0.101549 -0.0106116 0)
(-0.0920293 -0.0108532 0)
(-0.0823635 -0.0110282 0)
(-0.0726081 -0.011001 0)
(-0.0629755 -0.0108803 0)
(-0.0529377 -0.0115512 0)
(-0.0419171 -0.0121683 0)
(-0.0303171 -0.0124613 0)
(-0.0192494 -0.0123883 0)
(-0.00744898 -0.0178996 0)
(-0.0139622 0.0323656 0)
(-0.0349482 0.0333274 0)
(-0.0560189 0.0327543 0)
(-0.0755889 0.0314078 0)
(-0.0942653 0.0291376 0)
(-0.11117 0.0251721 0)
(-0.124939 0.0190561 0)
(-0.134107 0.0113597 0)
(-0.138068 0.00341738 0)
(-0.137286 -0.00354308 0)
(-0.132523 -0.00918041 0)
(-0.124742 -0.0128218 0)
(-0.115313 -0.0145732 0)
(-0.105365 -0.015052 0)
(-0.0953719 -0.0151658 0)
(-0.085094 -0.015433 0)
(-0.074451 -0.0155091 0)
(-0.0639304 -0.0152411 0)
(-0.0529126 -0.0164581 0)
(-0.0409018 -0.0174535 0)
(-0.0284047 -0.0180051 0)
(-0.0171345 -0.01761 0)
(-0.00361169 -0.0234548 0)
(-0.0124684 0.0393513 0)
(-0.0323847 0.0397197 0)
(-0.0526988 0.039314 0)
(-0.0727878 0.0384071 0)
(-0.0929623 0.0364424 0)
(-0.111785 0.0319287 0)
(-0.127396 0.024109 0)
(-0.138041 0.0140252 0)
(-0.143066 0.00386613 0)
(-0.143013 -0.00469985 0)
(-0.138224 -0.0120643 0)
(-0.129851 -0.0170561 0)
(-0.119879 -0.0196158 0)
(-0.109575 -0.0203475 0)
(-0.0991112 -0.0206159 0)
(-0.0876407 -0.0213113 0)
(-0.0749832 -0.0218323 0)
(-0.062382 -0.0214147 0)
(-0.0493645 -0.0234118 0)
(-0.0362723 -0.0246605 0)
(-0.0235947 -0.0255103 0)
(-0.0134044 -0.025098 0)
(0.00259929 -0.0287745 0)
(-0.0105721 0.0462362 0)
(-0.0292736 0.0458725 0)
(-0.0487885 0.0454772 0)
(-0.0681767 0.0446945 0)
(-0.0876916 0.0426915 0)
(-0.106241 0.0380117 0)
(-0.12208 0.0298324 0)
(-0.13292 0.0185423 0)
(-0.137375 0.00577938 0)
(-0.136777 -0.00653335 0)
(-0.132232 -0.0157804 0)
(-0.125366 -0.0210571 0)
(-0.11788 -0.0231829 0)
(-0.109597 -0.0238547 0)
(-0.0997386 -0.0250206 0)
(-0.087039 -0.0274727 0)
(-0.0724591 -0.029525 0)
(-0.057693 -0.0293104 0)
(-0.0421809 -0.0316724 0)
(-0.0283859 -0.0327849 0)
(-0.0170092 -0.0335853 0)
(-0.0102084 -0.0337521 0)
(0.00817042 -0.0339415 0)
(-0.000853262 0.0670727 0)
(-0.0121878 0.0660111 0)
(-0.0300037 0.0640166 0)
(-0.0501667 0.0612191 0)
(-0.0718942 0.0568293 0)
(-0.0938168 0.0489714 0)
(-0.113232 0.0370067 0)
(-0.125774 0.0228344 0)
(-0.130307 0.00897644 0)
(-0.128852 -0.00370263 0)
(-0.123832 -0.0127788 0)
(-0.119641 -0.0188501 0)
(-0.112441 -0.0232079 0)
(-0.101115 -0.0258034 0)
(-0.0859636 -0.0284917 0)
(-0.0684967 -0.0320191 0)
(-0.0535001 -0.0340056 0)
(-0.0356528 -0.0316341 0)
(-0.0161836 -0.0343751 0)
(-0.00135987 -0.0322046 0)
(0.00791887 -0.0281365 0)
(0.00409535 -0.0319836 0)
(0.0168744 -0.0354054 0)
(0.0127511 0.0582485 0)
(0.0260511 0.0658975 0)
(0.0286341 0.0687699 0)
(0.0278356 0.0697497 0)
(0.0262856 0.0683285 0)
(0.0237303 0.0620107 0)
(0.0194137 0.0483979 0)
(0.00563354 0.026832 0)
(-0.00689423 0.00413667 0)
(-0.0116831 -0.0130112 0)
(-0.0150629 -0.025961 0)
(-0.017644 -0.0331689 0)
(-0.0140261 -0.0399398 0)
(-0.00698352 -0.0412185 0)
(0.000768239 -0.0431699 0)
(0.012063 -0.0426679 0)
(0.0050691 -0.0450173 0)
(0.0288748 -0.0466671 0)
(0.0523537 -0.0482562 0)
(0.068125 -0.0423953 0)
(0.0833468 -0.0321548 0)
(0.0834602 -0.0232192 0)
(0.0611204 0.00624327 0)
(0.00297044 0.0011869 0)
(0.000502729 0.00439055 0)
(-0.00850941 0.00275632 0)
(-0.00665994 0.000808085 0)
(-0.00662297 0.00127099 0)
(-0.0105344 0.00129312 0)
(-0.0178038 0.000909301 0)
(-0.0234882 0.00025907 0)
(-0.0266246 -0.000234142 0)
(-0.0253951 -0.00193093 0)
(-0.0169518 -0.00281848 0)
(-0.0105921 -0.00140949 0)
(-0.0141117 -0.00144823 0)
(-0.0232282 -0.00105379 0)
(-0.0298445 -0.00023536 0)
(-0.0370394 0.000467098 0)
(-0.0430595 -0.00123184 0)
(-0.0386852 -0.00381933 0)
(-0.0147082 -0.005373 0)
(0.00116515 -0.00403948 0)
(-0.00121182 0.000601936 0)
(-0.00335392 -0.00101148 0)
(0.00472462 -0.00236185 0)
(0.00684562 -0.000431835 0)
(0.00393396 0.00323269 0)
(-0.000272101 0.00477119 0)
(-0.00626533 0.00419256 0)
(-0.0120081 0.00186895 0)
(-0.00930664 -0.00324482 0)
(0.00211897 -0.00437726 0)
(0.0110381 0.000461426 0)
(0.00556892 0.00597021 0)
(-0.0108049 0.0093558 0)
(-0.0263272 0.00663578 0)
(-0.0417106 0.00585961 0)
(-0.0484758 0.00243588 0)
(-0.0438529 -0.0092685 0)
(-0.0167994 -0.0185885 0)
(-0.0411336 0.00143232 0)
(-0.0700139 0.0110248 0)
(-0.0357187 0.00251951 0)
(0.0226008 -0.00138296 0)
(0.0393675 0.0032093 0)
(0.037687 0.00517111 0)
(0.0228573 0.00456034 0)
(0.00262651 0.00343219 0)
(-0.00905003 0.000700046 0)
(-0.0202017 -0.00740624 0)
(-0.0247379 -0.0122774 0)
(-0.0066251 -0.00127743 0)
(-0.00248859 0.00775692 0)
(-0.0102987 0.0114194 0)
(-0.0438431 0.0125392 0)
(-0.0742332 0.0107053 0)
(-0.0724983 0.000321486 0)
(-0.0571441 -0.0164114 0)
(-0.0228652 -0.0287777 0)
(-0.162938 0.0558028 0)
(-0.153082 0.00799885 0)
(0.0121529 -0.0617402 0)
(0.134625 -0.0427705 0)
(0.231253 -0.00982252 0)
(0.281174 0.0107207 0)
(0.265722 0.0267757 0)
(0.197313 0.0262535 0)
(0.101652 0.0189675 0)
(0.0309686 0.00341709 0)
(-0.00281789 -0.0118749 0)
(-0.0151192 -0.0108558 0)
(-0.000593294 0.00544243 0)
(-0.0138155 0.0257294 0)
(-0.0563167 0.030249 0)
(-0.091952 0.0147227 0)
(-0.0956294 -0.00651912 0)
(-0.0818384 -0.0331439 0)
(-0.0269141 -0.0610516 0)
(-0.152411 0.100671 0)
(0.0320242 -0.0615989 0)
(0.0980362 -0.118371 0)
(0.170273 -0.0929687 0)
(0.241131 -0.0438432 0)
(0.269855 -0.00342103 0)
(0.27341 0.03082 0)
(0.262026 0.0533879 0)
(0.242336 0.0564649 0)
(0.230685 0.0259788 0)
(0.226717 0.00220103 0)
(0.177366 0.00533897 0)
(0.0492504 0.018355 0)
(0.0154081 0.0357344 0)
(0.0335133 0.0537574 0)
(-0.0133062 0.0403505 0)
(-0.0835708 -0.00625319 0)
(-0.0510233 -0.047473 0)
(0.000542937 -0.0681255 0)
(-0.11659 0.127547 0)
(0.167749 -0.116886 0)
(0.173426 -0.142177 0)
(0.208826 -0.120938 0)
(0.2544 -0.0610448 0)
(0.269099 0.00585826 0)
(0.247593 0.0347666 0)
(0.243644 0.0510044 0)
(0.254512 0.0477084 0)
(0.257814 0.0247748 0)
(0.233638 0.0185183 0)
(0.173362 0.0466253 0)
(0.0943712 0.0612014 0)
(0.0755108 0.0352761 0)
(0.102347 0.0415879 0)
(0.11534 0.0516636 0)
(0.126735 0.00958933 0)
(0.132199 -0.0587441 0)
(0.0897225 -0.0762654 0)
(0.0867514 0.123002 0)
(0.247169 -0.114378 0)
(0.243499 -0.147791 0)
(0.242241 -0.13306 0)
(0.264518 -0.0744898 0)
(0.2795 0.00724228 0)
(0.256035 0.0422553 0)
(0.242251 0.0482698 0)
(0.249041 0.038614 0)
(0.24864 0.031724 0)
(0.215646 0.041025 0)
(0.155394 0.069359 0)
(0.0933745 0.0786773 0)
(0.0829296 0.0241149 0)
(0.12461 0.0250532 0)
(0.154484 0.0417665 0)
(0.159875 0.00497745 0)
(0.129052 -0.0360156 0)
(0.111382 -0.00353342 0)
(0.369133 -0.0967618 0)
(0.35684 -0.149686 0)
(0.319025 -0.140686 0)
(0.272785 -0.125781 0)
(0.253898 -0.0749462 0)
(0.253187 0.0106677 0)
(0.24125 0.0497588 0)
(0.232109 0.0494888 0)
(0.219254 0.0378708 0)
(0.203716 0.0452708 0)
(0.179644 0.0680276 0)
(0.137044 0.0934226 0)
(0.0998529 0.095443 0)
(0.0961786 0.0182919 0)
(0.119938 0.00287588 0)
(0.139974 0.0323096 0)
(0.124087 0.0144566 0)
(0.0578598 -0.0305487 0)
(0.070607 0.0310748 0)
(0.00667737 0.0385422 0)
(0.0242407 0.0520602 0)
(0.0284941 0.0593547 0)
(0.035712 0.0611074 0)
(0.0464797 0.0587934 0)
(0.0578355 0.054134 0)
(0.0673996 0.0457196 0)
(0.073215 0.0321246 0)
(0.0744891 0.0151169 0)
(0.072184 0.000858716 0)
(0.0685169 -0.0101313 0)
(0.0669484 -0.0183234 0)
(0.0661212 -0.0268542 0)
(0.0680092 -0.0313586 0)
(0.0751119 -0.0390412 0)
(0.0849895 -0.0384987 0)
(0.0934623 -0.0378665 0)
(0.101114 -0.045047 0)
(0.110311 -0.0524618 0)
(0.123139 -0.0536215 0)
(0.144339 -0.0488235 0)
(0.176952 -0.0386152 0)
(0.232373 -0.0108939 0)
(0.00168458 0.0313246 0)
(0.0104359 0.0484209 0)
(0.0144223 0.054443 0)
(0.0269025 0.0486574 0)
(0.0389442 0.0438731 0)
(0.0482072 0.0398282 0)
(0.05644 0.0333937 0)
(0.0622217 0.0244701 0)
(0.0638494 0.0115924 0)
(0.064046 -0.00355866 0)
(0.065381 -0.017499 0)
(0.0681524 -0.0285631 0)
(0.0714207 -0.0360302 0)
(0.0762939 -0.045089 0)
(0.0826205 -0.0556416 0)
(0.0894692 -0.0593426 0)
(0.0975389 -0.0601274 0)
(0.10717 -0.0675186 0)
(0.117509 -0.0704664 0)
(0.126173 -0.0722591 0)
(0.142659 -0.0788644 0)
(0.172949 -0.0835902 0)
(0.221163 -0.0843691 0)
(0.000350691 0.0286234 0)
(0.0119037 0.0397556 0)
(0.0234704 0.0403294 0)
(0.0411007 0.0343153 0)
(0.046432 0.0380056 0)
(0.0440167 0.0370102 0)
(0.0412331 0.0307582 0)
(0.0434615 0.0226759 0)
(0.0504327 0.0114986 0)
(0.0596627 -0.00395176 0)
(0.0678525 -0.0189927 0)
(0.0736823 -0.029521 0)
(0.0768263 -0.0365457 0)
(0.0784789 -0.0464337 0)
(0.0766649 -0.0541004 0)
(0.073451 -0.0596424 0)
(0.0726621 -0.0590992 0)
(0.075533 -0.071557 0)
(0.0833909 -0.0734222 0)
(0.0900268 -0.0798434 0)
(0.103263 -0.101169 0)
(0.126983 -0.116674 0)
(0.161903 -0.122746 0)
(-0.0124744 0.0160164 0)
(0.00892967 0.0208489 0)
(0.0280583 0.0221239 0)
(0.0458655 0.0239635 0)
(0.050821 0.038747 0)
(0.0504278 0.0400683 0)
(0.0500589 0.0300886 0)
(0.0525259 0.0110854 0)
(0.0566712 -0.00707304 0)
(0.0598379 -0.0200826 0)
(0.0587534 -0.0295944 0)
(0.0553946 -0.0354258 0)
(0.0535035 -0.0407229 0)
(0.0523581 -0.0474331 0)
(0.0472418 -0.0492562 0)
(0.0361831 -0.0534576 0)
(0.0211318 -0.0547548 0)
(0.0159517 -0.07794 0)
(0.0210393 -0.0826844 0)
(0.0322526 -0.0876696 0)
(0.0403555 -0.115075 0)
(0.0489539 -0.134101 0)
(0.0602834 -0.139711 0)
(-0.02237 0.0344777 0)
(-0.008558 0.00362114 0)
(0.0107052 -0.000391036 0)
(0.0252555 0.0176094 0)
(0.0398407 0.0377036 0)
(0.0567579 0.037833 0)
(0.0715314 0.0302801 0)
(0.0800004 0.0188931 0)
(0.0765083 0.00430739 0)
(0.061646 -0.00415147 0)
(0.0438082 -0.0145164 0)
(0.0317617 -0.0266722 0)
(0.0270821 -0.0387792 0)
(0.0226593 -0.0430155 0)
(0.0186637 -0.0418332 0)
(0.00687375 -0.0345117 0)
(-0.000605501 -0.0466957 0)
(-0.00197956 -0.0784901 0)
(0.000197984 -0.0929498 0)
(-0.000469053 -0.0915545 0)
(-0.00691958 -0.117143 0)
(-0.0162531 -0.135577 0)
(-0.0248049 -0.134048 0)
(-0.00216847 0.0514428 0)
(0.0224254 -0.00603261 0)
(0.0145643 -0.00993248 0)
(0.0219571 -0.000996191 0)
(0.0399524 0.0102579 0)
(0.0624838 0.0134319 0)
(0.0819045 0.0139711 0)
(0.0950953 0.0150387 0)
(0.101547 0.012441 0)
(0.102366 0.0103086 0)
(0.0987377 0.0029829 0)
(0.08896 -0.0108404 0)
(0.0725381 -0.0255513 0)
(0.0533303 -0.0331609 0)
(0.0377176 -0.0352906 0)
(0.0314611 -0.0309873 0)
(0.0350961 -0.0455813 0)
(0.0356807 -0.0709459 0)
(0.0207491 -0.081172 0)
(0.00199226 -0.0807536 0)
(-0.00926268 -0.105469 0)
(-0.0197816 -0.125262 0)
(-0.0217946 -0.126312 0)
(0.0406676 -0.00505069 0)
(0.0492195 -0.0181777 0)
(0.0421442 -0.0168719 0)
(0.0439203 -0.0173712 0)
(0.058916 -0.017247 0)
(0.0765482 -0.0141175 0)
(0.0928404 -0.0104572 0)
(0.105224 -0.00668657 0)
(0.112367 -0.00435467 0)
(0.112865 -0.00217221 0)
(0.109255 -0.00111708 0)
(0.102243 -0.00203664 0)
(0.0896562 -0.00409099 0)
(0.0724672 -0.0079003 0)
(0.0543212 -0.0158333 0)
(0.0468087 -0.0321882 0)
(0.0532623 -0.0545657 0)
(0.0592726 -0.0696065 0)
(0.0511722 -0.0673775 0)
(0.0370884 -0.0690636 0)
(0.0297816 -0.0973487 0)
(0.0229822 -0.125666 0)
(0.0269824 -0.139393 0)
(-0.0275541 -0.0139995 0)
(-0.0775776 0.012722 0)
(-0.0623545 0.00136107 0)
(-0.034581 -0.0171221 0)
(-0.033259 -0.0218976 0)
(-0.0421891 -0.0189781 0)
(-0.017213 -0.0150315 0)
(0.0144068 -0.00508104 0)
(0.0329278 0.00672219 0)
(0.0453049 0.0123194 0)
(0.0551634 0.0106304 0)
(0.0616408 0.00801431 0)
(0.0671741 0.00411476 0)
(0.0715089 -0.00164409 0)
(0.0743466 -0.0103776 0)
(0.0780155 -0.027123 0)
(0.0797811 -0.0449977 0)
(0.0836706 -0.051485 0)
(0.0875057 -0.048984 0)
(0.0859818 -0.057933 0)
(0.0819282 -0.0912065 0)
(0.0751759 -0.124296 0)
(0.0780797 -0.145085 0)
(0.0270065 0.0466455 0)
(0.0634883 0.0277275 0)
(0.0880498 -0.0361755 0)
(0.0934106 -0.0398513 0)
(0.104955 -0.0166751 0)
(0.122353 -0.00782258 0)
(0.121628 -0.040383 0)
(0.0960985 -0.0281089 0)
(0.0792043 -0.0138221 0)
(0.0626748 -0.00896024 0)
(-0.0170383 -0.00602442 0)
(-0.0669246 -0.0133751 0)
(-0.0543693 -0.0157604 0)
(-0.0352845 -0.0102223 0)
(0.0286217 -0.0186841 0)
(0.0192015 -0.0351063 0)
(-0.0553418 -0.0696477 0)
(-0.0472684 -0.0859861 0)
(0.0236135 -0.0678774 0)
(0.0825939 -0.0560979 0)
(0.113532 -0.0726612 0)
(0.109083 -0.111417 0)
(0.102159 -0.139472 0)
(0.0168649 -0.0530872 0)
(0.0555457 -0.042772 0)
(0.0808571 -0.0479887 0)
(0.0932391 -0.0533337 0)
(0.103932 -0.0501365 0)
(0.120473 -0.0414067 0)
(0.141794 -0.0309956 0)
(0.169198 -0.0103322 0)
(0.20443 0.0064739 0)
(0.244106 0.051932 0)
(0.26095 0.0984525 0)
(0.295419 0.040428 0)
(0.331821 -0.0345379 0)
(0.339917 -0.0599095 0)
(0.340777 -0.0534188 0)
(0.304797 0.0356458 0)
(0.278895 0.0604203 0)
(0.187248 -0.133688 0)
(0.106807 -0.183872 0)
(0.110984 -0.169277 0)
(0.165565 -0.127781 0)
(0.200555 -0.132758 0)
(0.19149 -0.142042 0)
(0.00814864 -0.0664803 0)
(0.0317442 -0.0621181 0)
(0.0491795 -0.060866 0)
(0.0604632 -0.0610555 0)
(0.0677989 -0.0579664 0)
(0.076194 -0.0537854 0)
(0.0905787 -0.0547601 0)
(0.113096 -0.0554508 0)
(0.139561 -0.0430383 0)
(0.172783 -0.0252044 0)
(0.221902 -0.0152536 0)
(0.265596 -0.0490861 0)
(0.298219 -0.0667265 0)
(0.320487 -0.0589341 0)
(0.346782 -0.0308709 0)
(0.388796 0.013536 0)
(0.45734 0.0576111 0)
(0.524352 0.0405069 0)
(0.535899 -0.0269563 0)
(0.508693 -0.0950278 0)
(0.473203 -0.0931676 0)
(0.44943 -0.0685527 0)
(0.43679 -0.0826164 0)
(0.00397208 -0.081844 0)
(0.0177079 -0.0778271 0)
(0.0269889 -0.0705832 0)
(0.0338621 -0.0669784 0)
(0.0364543 -0.0634021 0)
(0.0386777 -0.0620473 0)
(0.0487115 -0.074582 0)
(0.0666171 -0.0822673 0)
(0.0871782 -0.0669665 0)
(0.111927 -0.0431679 0)
(0.141218 -0.0409539 0)
(0.171422 -0.0607514 0)
(0.19691 -0.0755844 0)
(0.212361 -0.0820982 0)
(0.226877 -0.0812957 0)
(0.256026 -0.0756959 0)
(0.307268 -0.082202 0)
(0.363953 -0.113597 0)
(0.408286 -0.136357 0)
(0.433637 -0.145733 0)
(0.44068 -0.136855 0)
(0.441498 -0.112401 0)
(0.439784 -0.0973447 0)
(0.00142089 -0.089724 0)
(0.00891236 -0.085713 0)
(0.0127356 -0.0755918 0)
(0.016594 -0.0690576 0)
(0.0171078 -0.0638 0)
(0.0181701 -0.0646449 0)
(0.0245359 -0.0882103 0)
(0.0332435 -0.0958914 0)
(0.0419833 -0.0818931 0)
(0.0591388 -0.0645934 0)
(0.0803999 -0.0731963 0)
(0.101203 -0.091743 0)
(0.120219 -0.0939607 0)
(0.131179 -0.0919617 0)
(0.140347 -0.0909509 0)
(0.158105 -0.09016 0)
(0.186438 -0.0982561 0)
(0.218646 -0.118838 0)
(0.24777 -0.13228 0)
(0.268308 -0.129562 0)
(0.275854 -0.117639 0)
(0.276637 -0.10256 0)
(0.26801 -0.101486 0)
(-0.00034992 -0.0928639 0)
(0.00313843 -0.0888843 0)
(0.00389451 -0.0779686 0)
(0.00662915 -0.0703389 0)
(0.00829323 -0.0647984 0)
(0.0125923 -0.0676633 0)
(0.0144012 -0.0919294 0)
(0.0128556 -0.0980945 0)
(0.0130306 -0.0883928 0)
(0.0222696 -0.0799258 0)
(0.0361937 -0.0918174 0)
(0.0478419 -0.107261 0)
(0.060694 -0.103865 0)
(0.0708957 -0.0984072 0)
(0.0767208 -0.101708 0)
(0.0842083 -0.108872 0)
(0.0941187 -0.126847 0)
(0.104669 -0.149809 0)
(0.114772 -0.159652 0)
(0.122869 -0.149612 0)
(0.122911 -0.130012 0)
(0.116339 -0.107746 0)
(0.0977507 -0.0940756 0)
(-0.00177264 -0.0928686 0)
(-0.000870605 -0.0893547 0)
(-0.00190312 -0.0792735 0)
(0.00012141 -0.0725411 0)
(0.00300907 -0.0686963 0)
(0.00933118 -0.0718878 0)
(0.00962464 -0.089219 0)
(0.00391055 -0.0954703 0)
(0.00160024 -0.0899963 0)
(0.0049426 -0.0887825 0)
(0.0106048 -0.100093 0)
(0.0133786 -0.115298 0)
(0.0184537 -0.112489 0)
(0.0259135 -0.103886 0)
(0.0287976 -0.104368 0)
(0.0289964 -0.10988 0)
(0.0259578 -0.127419 0)
(0.0202071 -0.148947 0)
(0.0126388 -0.153042 0)
(0.00353293 -0.134989 0)
(-0.00930125 -0.105575 0)
(-0.0325667 -0.0690058 0)
(-0.0569136 -0.0303427 0)
(-0.00283056 -0.0906843 0)
(-0.00375244 -0.0879007 0)
(-0.00619232 -0.0794666 0)
(-0.00528055 -0.0743874 0)
(-0.0031003 -0.0726567 0)
(0.00144256 -0.0757868 0)
(0.0018264 -0.0863016 0)
(-0.00261008 -0.0913979 0)
(-0.00431209 -0.0897278 0)
(-0.00283684 -0.0912953 0)
(-0.00206484 -0.101368 0)
(-0.00522063 -0.114313 0)
(-0.00821206 -0.114129 0)
(-0.00704259 -0.106579 0)
(-0.00628414 -0.103057 0)
(-0.00900356 -0.105699 0)
(-0.0172199 -0.118276 0)
(-0.0324231 -0.134957 0)
(-0.0506952 -0.133577 0)
(-0.0685811 -0.113979 0)
(-0.0823217 -0.0859385 0)
(-0.0905326 -0.0568809 0)
(-0.0961072 -0.0220699 0)
(-0.00360689 -0.0868442 0)
(-0.00591476 -0.0849777 0)
(-0.00956601 -0.0783428 0)
(-0.00998937 -0.0748947 0)
(-0.00943775 -0.074611 0)
(-0.00805039 -0.0777488 0)
(-0.00882005 -0.0843206 0)
(-0.0117488 -0.088366 0)
(-0.013211 -0.0894979 0)
(-0.012523 -0.0922921 0)
(-0.0128177 -0.0997147 0)
(-0.0174789 -0.108559 0)
(-0.023711 -0.110211 0)
(-0.0270931 -0.10531 0)
(-0.028348 -0.100963 0)
(-0.030172 -0.100772 0)
(-0.0360143 -0.10741 0)
(-0.0499191 -0.118516 0)
(-0.0678021 -0.116762 0)
(-0.0827595 -0.101553 0)
(-0.0907468 -0.0798316 0)
(-0.0919466 -0.0530145 0)
(-0.088787 -0.0135525 0)
(-0.00416388 -0.0817777 0)
(-0.00753305 -0.0809133 0)
(-0.0121725 -0.0760133 0)
(-0.0137839 -0.0739651 0)
(-0.0147324 -0.074536 0)
(-0.0153333 -0.077531 0)
(-0.0169911 -0.0820903 0)
(-0.019467 -0.0858104 0)
(-0.0212559 -0.0884827 0)
(-0.0221898 -0.0919753 0)
(-0.0239136 -0.0972941 0)
(-0.0281345 -0.102735 0)
(-0.0339576 -0.104692 0)
(-0.0385682 -0.102377 0)
(-0.0409743 -0.0995115 0)
(-0.0423415 -0.098501 0)
(-0.0452173 -0.101092 0)
(-0.0532201 -0.105779 0)
(-0.0649774 -0.103915 0)
(-0.0751834 -0.0930498 0)
(-0.0813584 -0.0783437 0)
(-0.0824149 -0.0564992 0)
(-0.0766472 -0.0208683 0)
(-0.00459542 -0.0757856 0)
(-0.00881789 -0.0759536 0)
(-0.0142361 -0.0727424 0)
(-0.0167406 -0.0719806 0)
(-0.0186266 -0.0732411 0)
(-0.0200892 -0.0761609 0)
(-0.0219004 -0.0799589 0)
(-0.0239599 -0.0835336 0)
(-0.0257923 -0.0867185 0)
(-0.0275399 -0.0901726 0)
(-0.0300883 -0.0941408 0)
(-0.0341377 -0.0976863 0)
(-0.0391492 -0.0992697 0)
(-0.0437223 -0.0985956 0)
(-0.0471306 -0.0971927 0)
(-0.0498704 -0.0964946 0)
(-0.0533843 -0.0971232 0)
(-0.0590491 -0.0977467 0)
(-0.0659741 -0.0947702 0)
(-0.0714074 -0.0865417 0)
(-0.0746406 -0.0752395 0)
(-0.07529 -0.0582109 0)
(-0.0700734 -0.0304019 0)
(-0.00497177 -0.0690199 0)
(-0.0099695 -0.0702264 0)
(-0.0160988 -0.0687141 0)
(-0.0193444 -0.0692822 0)
(-0.0218329 -0.0713536 0)
(-0.0236226 -0.0745221 0)
(-0.0252548 -0.0781865 0)
(-0.0268153 -0.0817261 0)
(-0.0283013 -0.084959 0)
(-0.0299748 -0.0880593 0)
(-0.0323572 -0.0910345 0)
(-0.0357838 -0.0934122 0)
(-0.0399791 -0.0945534 0)
(-0.044288 -0.0944016 0)
(-0.0483354 -0.0936384 0)
(-0.0523355 -0.093007 0)
(-0.0569724 -0.092745 0)
(-0.062727 -0.0919608 0)
(-0.0688852 -0.088913 0)
(-0.0737684 -0.0826417 0)
(-0.0761774 -0.0733627 0)
(-0.0757156 -0.0605432 0)
(-0.0706961 -0.0413461 0)
(-0.00536676 -0.0614923 0)
(-0.0111638 -0.0637271 0)
(-0.0180402 -0.0639419 0)
(-0.0220424 -0.065941 0)
(-0.0250989 -0.0690354 0)
(-0.0271633 -0.0728006 0)
(-0.028673 -0.0767378 0)
(-0.029838 -0.080397 0)
(-0.0308825 -0.0835741 0)
(-0.0321324 -0.0862748 0)
(-0.0339658 -0.0884766 0)
(-0.0366009 -0.089984 0)
(-0.0399357 -0.0905681 0)
(-0.0436746 -0.0902756 0)
(-0.0476345 -0.0894616 0)
(-0.051918 -0.0885179 0)
(-0.0568393 -0.0875466 0)
(-0.0625541 -0.0860792 0)
(-0.0686015 -0.0832754 0)
(-0.0739271 -0.0785896 0)
(-0.0775133 -0.0718786 0)
(-0.0785626 -0.0627327 0)
(-0.0757238 -0.0498076 0)
(-0.00578925 -0.053162 0)
(-0.0124227 -0.0564071 0)
(-0.0200992 -0.0583745 0)
(-0.0248927 -0.0619122 0)
(-0.0285354 -0.0662494 0)
(-0.030906 -0.0709325 0)
(-0.03238 -0.0754771 0)
(-0.0332515 -0.079457 0)
(-0.0338856 -0.0826372 0)
(-0.0346772 -0.0849877 0)
(-0.0359704 -0.0865537 0)
(-0.0379459 -0.087341 0)
(-0.0405764 -0.0873427 0)
(-0.0437156 -0.086654 0)
(-0.0472611 -0.0854859 0)
(-0.0512541 -0.0840507 0)
(-0.0558357 -0.0824043 0)
(-0.061057 -0.0803331 0)
(-0.0666595 -0.0774614 0)
(-0.0720442 -0.0735293 0)
(-0.0765913 -0.0684504 0)
(-0.0797502 -0.0619279 0)
(-0.0802924 -0.0529313 0)
(-0.00623512 -0.0439978 0)
(-0.0137071 -0.0482455 0)
(-0.0221673 -0.0520066 0)
(-0.0277041 -0.05721 0)
(-0.0318628 -0.0630196 0)
(-0.0344732 -0.0689229 0)
(-0.0358777 -0.0743685 0)
(-0.0364462 -0.0788631 0)
(-0.0366589 -0.0821322 0)
(-0.0369899 -0.0841779 0)
(-0.0378037 -0.0851692 0)
(-0.0392826 -0.085294 0)
(-0.0414294 -0.0847012 0)
(-0.0441442 -0.0835285 0)
(-0.0473313 -0.0819203 0)
(-0.050968 -0.0799965 0)
(-0.0550905 -0.0777907 0)
(-0.0597042 -0.0752133 0)
(-0.0646654 -0.0721079 0)
(-0.069653 -0.0683804 0)
(-0.0743939 -0.0640162 0)
(-0.0786112 -0.0587973 0)
(-0.0812164 -0.0518565 0)
(-0.0066708 -0.0340132 0)
(-0.0149337 -0.0392805 0)
(-0.0241039 -0.0449085 0)
(-0.0302642 -0.0519365 0)
(-0.0347958 -0.0594639 0)
(-0.037505 -0.0668777 0)
(-0.0387295 -0.0734868 0)
(-0.0389234 -0.0786645 0)
(-0.0386732 -0.0820903 0)
(-0.0385276 -0.0838392 0)
(-0.0388873 -0.084242 0)
(-0.0399535 -0.0836766 0)
(-0.0417498 -0.082438 0)
(-0.044188 -0.0807229 0)
(-0.04715 -0.0786523 0)
(-0.0505492 -0.0762901 0)
(-0.0543424 -0.0736474 0)
(-0.0584933 -0.070684 0)
(-0.0629085 -0.0673388 0)
(-0.0673938 -0.0635992 0)
(-0.0718221 -0.0595016 0)
(-0.0760943 -0.0548773 0)
(-0.079246 -0.0489893 0)
(-0.00708744 -0.023258 0)
(-0.0160683 -0.0295948 0)
(-0.0258253 -0.0372023 0)
(-0.0324478 -0.0462442 0)
(-0.0371808 -0.055743 0)
(-0.0398305 -0.0649368 0)
(-0.040758 -0.0729302 0)
(-0.0405167 -0.0789152 0)
(-0.0397915 -0.0825344 0)
(-0.0391806 -0.0839713 0)
(-0.0391075 -0.0837421 0)
(-0.0397926 -0.0824202 0)
(-0.0412831 -0.0804514 0)
(-0.0435035 -0.0781167 0)
(-0.0463156 -0.075552 0)
(-0.0495789 -0.0727908 0)
(-0.0531857 -0.0698131 0)
(-0.0570558 -0.066582 0)
(-0.0611011 -0.06307 0)
(-0.0651842 -0.0592962 0)
(-0.0692451 -0.055328 0)
(-0.0732209 -0.0510483 0)
(-0.0762806 -0.0458176 0)
(-0.0074762 -0.0118177 0)
(-0.0170919 -0.0193057 0)
(-0.0272903 -0.0290401 0)
(-0.0341981 -0.0403045 0)
(-0.0389612 -0.0520217 0)
(-0.0414053 -0.0632324 0)
(-0.0419398 -0.0727762 0)
(-0.0412385 -0.0796315 0)
(-0.0400718 -0.0834423 0)
(-0.039047 -0.0845421 0)
(-0.0385851 -0.0836418 0)
(-0.0389145 -0.0815054 0)
(-0.0401058 -0.0787256 0)
(-0.0421081 -0.0756847 0)
(-0.0447803 -0.0725663 0)
(-0.0479472 -0.069401 0)
(-0.0514509 -0.0661379 0)
(-0.0551715 -0.0627138 0)
(-0.0590098 -0.0591009 0)
(-0.0628533 -0.0553326 0)
(-0.0666507 -0.0514935 0)
(-0.0703731 -0.0475097 0)
(-0.0732783 -0.042829 0)
(-0.00785285 0.00016357 0)
(-0.0180189 -0.00858304 0)
(-0.0284843 -0.0205991 0)
(-0.0354885 -0.0342922 0)
(-0.040124 -0.0484515 0)
(-0.0422434 -0.0618724 0)
(-0.0423193 -0.073072 0)
(-0.041172 -0.0807913 0)
(-0.0396367 -0.0847541 0)
(-0.0382782 -0.0854899 0)
(-0.0374922 -0.0838967 0)
(-0.0375018 -0.0809131 0)
(-0.0383964 -0.0772644 0)
(-0.0401596 -0.0734409 0)
(-0.0426694 -0.0697001 0)
(-0.045736 -0.0660943 0)
(-0.0491644 -0.062552 0)
(-0.0528009 -0.0589723 0)
(-0.0565298 -0.0552976 0)
(-0.0602424 -0.0515582 0)
(-0.063903 -0.0478532 0)
(-0.0674735 -0.0441548 0)
(-0.0702999 -0.0399761 0)
(-0.00817314 0.0129001 0)
(-0.018774 0.00245013 0)
(-0.0293585 -0.0120727 0)
(-0.0362849 -0.0283716 0)
(-0.0406725 -0.045153 0)
(-0.0423896 -0.0609263 0)
(-0.0419768 -0.0738277 0)
(-0.0404383 -0.0823315 0)
(-0.0386392 -0.086379 0)
(-0.0370459 -0.0867334 0)
(-0.0360151 -0.0844506 0)
(-0.0357532 -0.0806222 0)
(-0.0363576 -0.0760795 0)
(-0.0378515 -0.0714139 0)
(-0.040157 -0.0669794 0)
(-0.0430944 -0.0628786 0)
(-0.0464443 -0.0590328 0)
(-0.0500185 -0.055302 0)
(-0.0536843 -0.0515835 0)
(-0.0573369 -0.0478806 0)
(-0.060933 -0.0443017 0)
(-0.0644539 -0.040869 0)
(-0.0672831 -0.0371542 0)
(-0.00838273 0.0257928 0)
(-0.0192677 0.0138181 0)
(-0.0298035 -0.00364242 0)
(-0.0365235 -0.0226713 0)
(-0.0406018 -0.042192 0)
(-0.0418864 -0.060428 0)
(-0.04099 -0.0750255 0)
(-0.039156 -0.0841498 0)
(-0.0372232 -0.0882026 0)
(-0.035511 -0.088176 0)
(-0.0343322 -0.0852315 0)
(-0.0338651 -0.0805994 0)
(-0.0341995 -0.0751832 0)
(-0.0353918 -0.0696466 0)
(-0.0374315 -0.0644495 0)
(-0.0401837 -0.059783 0)
(-0.0434246 -0.0555878 0)
(-0.0469318 -0.0516845 0)
(-0.0505443 -0.0479173 0)
(-0.0541527 -0.0442473 0)
(-0.0577271 -0.0407786 0)
(-0.0612364 -0.0375773 0)
(-0.0641139 -0.0342791 0)
(-0.00777857 0.0393694 0)
(-0.0188773 0.025163 0)
(-0.0295297 0.00469122 0)
(-0.0360321 -0.0172347 0)
(-0.0398436 -0.0395662 0)
(-0.0407079 -0.0603954 0)
(-0.0393702 -0.076625 0)
(-0.037382 -0.0861086 0)
(-0.0354641 -0.0900923 0)
(-0.0337726 -0.0897029 0)
(-0.0325719 -0.086146 0)
(-0.0319968 -0.080788 0)
(-0.0321125 -0.0745741 0)
(-0.0329868 -0.0681902 0)
(-0.0346876 -0.0621822 0)
(-0.0371674 -0.0568647 0)
(-0.0402354 -0.0522481 0)
(-0.0436436 -0.048132 0)
(-0.0471921 -0.0442955 0)
(-0.0507616 -0.040643 0)
(-0.0543152 -0.0372578 0)
(-0.0578382 -0.0342478 0)
(-0.0607924 -0.0313198 0)
(-0.00655917 0.051229 0)
(-0.0169665 0.036929 0)
(-0.0279078 0.0130158 0)
(-0.0344404 -0.0119952 0)
(-0.0380356 -0.0372127 0)
(-0.03859 -0.060756 0)
(-0.037031 -0.0785175 0)
(-0.0350888 -0.0880712 0)
(-0.0333168 -0.0919082 0)
(-0.0318159 -0.0911698 0)
(-0.0307672 -0.0870631 0)
(-0.030229 -0.0810905 0)
(-0.0302271 -0.0742137 0)
(-0.0308113 -0.0670807 0)
(-0.0321151 -0.0602667 0)
(-0.0342121 -0.0542176 0)
(-0.0370043 -0.0490789 0)
(-0.0402487 -0.0446814 0)
(-0.0436994 -0.0407404 0)
(-0.0472018 -0.0370831 0)
(-0.0507235 -0.0337511 0)
(-0.0542336 -0.0308806 0)
(-0.0572395 -0.0282675 0)
(-0.00528322 0.0613809 0)
(-0.0143214 0.0472861 0)
(-0.0245569 0.0216729 0)
(-0.0312368 -0.00681497 0)
(-0.0345878 -0.0350149 0)
(-0.0349783 -0.0612502 0)
(-0.0335891 -0.0804003 0)
(-0.0320212 -0.0898836 0)
(-0.0305731 -0.0934804 0)
(-0.0294916 -0.0923732 0)
(-0.0288336 -0.0877904 0)
(-0.0285373 -0.08135 0)
(-0.0285793 -0.0740031 0)
(-0.0289684 -0.0663059 0)
(-0.0298689 -0.0587808 0)
(-0.0314791 -0.0519621 0)
(-0.0338576 -0.0461832 0)
(-0.0368319 -0.0413947 0)
(-0.0401234 -0.0372868 0)
(-0.0435266 -0.033591 0)
(-0.0469721 -0.0302788 0)
(-0.0504447 -0.0274998 0)
(-0.0534756 -0.0251421 0)
(-0.00382801 0.0696914 0)
(-0.0110812 0.0563789 0)
(-0.0198662 0.0294495 0)
(-0.0260805 -0.00167934 0)
(-0.0290894 -0.0328799 0)
(-0.0293322 -0.0615974 0)
(-0.0284863 -0.0818194 0)
(-0.027695 -0.0912548 0)
(-0.0269059 -0.0945318 0)
(-0.0265762 -0.0930149 0)
(-0.0266063 -0.0880617 0)
(-0.0268058 -0.0813463 0)
(-0.0271027 -0.073776 0)
(-0.0274601 -0.0657799 0)
(-0.028033 -0.0577503 0)
(-0.0291044 -0.0502188 0)
(-0.0309228 -0.043703 0)
(-0.0334782 -0.0383782 0)
(-0.0365109 -0.0340004 0)
(-0.0397454 -0.0302141 0)
(-0.0430731 -0.0268877 0)
(-0.0464495 -0.0241512 0)
(-0.0494448 -0.0219907 0)
(-0.00210253 0.0755502 0)
(-0.00709762 0.0636564 0)
(-0.0138293 0.0359209 0)
(-0.0189072 0.0030031 0)
(-0.0215426 -0.030846 0)
(-0.021484 -0.0615689 0)
(-0.021484 -0.0823723 0)
(-0.0217848 -0.09174 0)
(-0.0221078 -0.0946445 0)
(-0.0229188 -0.092729 0)
(-0.0239356 -0.0875726 0)
(-0.0248813 -0.0808265 0)
(-0.0256525 -0.0733189 0)
(-0.0261815 -0.065343 0)
(-0.0265858 -0.0571162 0)
(-0.0271633 -0.0490611 0)
(-0.028317 -0.0417934 0)
(-0.0302785 -0.035776 0)
(-0.0329125 -0.0309761 0)
(-0.0359015 -0.0270153 0)
(-0.0390433 -0.0236312 0)
(-0.0422769 -0.0208938 0)
(-0.0452002 -0.0188701 0)
(-0.000298892 0.078534 0)
(-0.00271107 0.0685891 0)
(-0.00710165 0.0406501 0)
(-0.0103095 0.00670883 0)
(-0.0122429 -0.0291238 0)
(-0.0117474 -0.0610792 0)
(-0.0128919 -0.0817701 0)
(-0.0145505 -0.0908976 0)
(-0.0163654 -0.0934041 0)
(-0.0185858 -0.0912045 0)
(-0.020779 -0.0860729 0)
(-0.0226355 -0.0795723 0)
(-0.0240475 -0.0724219 0)
(-0.0249407 -0.0647921 0)
(-0.0253864 -0.0567276 0)
(-0.0256277 -0.0484655 0)
(-0.0261187 -0.0405753 0)
(-0.0273318 -0.0337587 0)
(-0.0293917 -0.0283429 0)
(-0.0320161 -0.0240761 0)
(-0.0349112 -0.0205727 0)
(-0.0379364 -0.0177856 0)
(-0.0407144 -0.0158424 0)
(0.00119136 0.0785471 0)
(0.0014867 0.0711449 0)
(-0.000508925 0.0433629 0)
(-0.00157797 0.00883112 0)
(-0.0020354 -0.0282827 0)
(-0.00128386 -0.060277 0)
(-0.00368304 -0.0798275 0)
(-0.00681305 -0.0884815 0)
(-0.0102333 -0.0906118 0)
(-0.0138703 -0.0883201 0)
(-0.0172241 -0.0834652 0)
(-0.0200009 -0.0774758 0)
(-0.0221087 -0.0709395 0)
(-0.0234939 -0.0639327 0)
(-0.0241866 -0.0563691 0)