/*--------------------------------*- C++ -*----------------------------------*\
| =========                 |                                                 |
| \\      /  F ield         | OpenFOAM: The Open Source CFD Toolbox           |
|  \\    /   O peration     | Version:  2312                                  |
|   \\  /    A nd           | Website:  www.openfoam.com                      |
|    \\/     M anipulation  |                                                 |
\*---------------------------------------------------------------------------*/
FoamFile
{
    version     2.0;
    format      ascii;
    arch        "LSB;label=32;scalar=64";
    class       volScalarField;
    location    "0.35";
    object      alpha.water_0;
}
// * * * * * * * * * * * * * * * * * * * * * * * * * * * * * * * * * * * * * //

dimensions      [0 0 0 0 0 0 0];

internalField   nonuniform List<scalar> 
2268
(
3.2059e-13
3.30048e-13
3.13641e-13
3.09397e-13
3.54361e-13
4.73216e-13
7.16274e-13
1.0218e-12
1.36719e-12
1.71392e-12
1.97273e-12
2.40102e-12
3.05634e-12
5.25538e-12
1.38258e-11
3.66871e-11
9.27739e-11
1.44295e-10
1.55059e-10
1.58001e-10
1.58051e-10
3.12865e-10
3.18976e-10
3.4666e-12
3.78856e-12
3.62658e-12
3.7106e-12
4.19614e-12
5.29186e-12
7.18338e-12
9.76163e-12
1.25478e-11
1.55477e-11
1.8358e-11
2.04748e-11
2.35734e-11
2.99786e-11
3.84623e-11
7.07703e-11
2.98017e-10
1.50456e-09
1.53616e-09
1.80093e-09
1.66646e-09
1.91548e-08
3.2174e-10
2.23564e-11
2.27582e-11
2.10745e-11
2.27688e-11
2.48906e-11
2.87695e-11
3.59783e-11
4.50714e-11
5.39323e-11
6.26041e-11
7.15489e-11
7.57502e-11
7.96418e-11
8.95849e-11
9.7773e-11
9.18621e-11
1.59027e-10
4.49685e-09
1.18642e-08
6.73309e-09
3.73731e-09
9.00798e-08
8.41484e-08
8.74273e-11
8.63456e-11
8.0606e-11
8.21906e-11
7.95277e-11
8.29483e-11
9.42367e-11
1.10177e-10
1.18451e-10
1.20332e-10
1.19341e-10
1.0806e-10
1.1712e-10
9.98715e-11
9.51515e-11
4.46956e-11
3.59048e-11
2.01626e-08
2.56124e-08
2.1182e-08
3.40245e-08
1.52404e-07
1.7881e-07
4.01113e-10
3.4479e-10
2.85787e-10
2.56912e-10
2.22634e-10
1.96103e-10
1.90627e-10
2.15607e-10
1.48522e-10
1.05864e-10
8.70318e-11
8.50245e-11
3.36299e-11
-3.56413e-13
-1.81656e-13
-3.27253e-14
-3.41175e-30
3.22103e-26
-1.20091e-16
3.2295e-10
2.51196e-08
1.53289e-07
1.78695e-07
7.87863e-09
6.19168e-09
5.46144e-09
4.63728e-09
3.9645e-09
3.24188e-09
2.53097e-09
2.83184e-09
2.26108e-09
2.77801e-09
0.00203528
0.0228017
0.0676932
0.132944
0.206448
0.266263
0.267056
0.178475
0.0014019
8.57182e-09
9.05095e-09
1.12848e-07
1.06812e-07
0.0184349
0.0187705
0.022454
0.0301554
0.0431689
0.0639492
0.0960895
0.147659
0.224357
0.329051
0.477584
0.639239
0.77575
0.874997
0.938357
0.978218
0.983319
0.931522
0.646527
0.0733994
-2.19728e-19
-8.94432e-10
0
0.492836
0.494147
0.511348
0.542711
0.586284
0.641317
0.714928
0.805857
0.889346
0.96196
1
1
1
1
1
1
1
1
0.999999
0.605553
0.00964629
5.75576e-05
3.76305e-06
1.21953e-11
1.3908e-11
1.60664e-11
1.75716e-11
1.94708e-11
2.10364e-11
2.17987e-11
2.18037e-11
2.14384e-11
1.70687e-11
1.14128e-11
7.13956e-12
3.16337e-12
1.24266e-12
6.66773e-13
3.03027e-13
6.79162e-14
5.10365e-15
8.51021e-16
1.4754e-11
2.7879e-11
4.26912e-11
5.45197e-11
6.02305e-11
6.20554e-11
6.25707e-11
6.458e-11
5.01093e-11
3.77615e-11
2.9292e-11
1.88316e-11
1.14347e-11
7.99076e-12
3.71798e-12
1.0894e-12
1.77301e-13
1.23728e-14
1.65299e-15
1.86274e-11
4.75394e-11
8.2055e-11
1.09393e-10
1.21168e-10
1.25232e-10
1.28896e-10
1.27356e-10
1.18717e-10
7.16276e-11
5.10967e-11
3.33537e-11
2.33477e-11
1.64389e-11
1.02397e-11
3.92644e-12
8.42796e-13
7.54319e-14
3.71238e-15
2.58546e-11
7.0181e-11
1.2422e-10
1.7026e-10
1.86857e-10
1.97366e-10
2.10137e-10
2.41366e-10
2.35687e-10
1.66279e-10
9.19858e-11
6.04941e-11
3.56422e-11
2.22011e-11
1.36196e-11
7.9914e-12
2.47612e-12
3.06104e-13
1.37392e-14
3.40826e-11
8.42668e-11
1.75235e-10
2.08457e-10
2.18152e-10
2.23623e-10
2.47425e-10
3.46742e-10
4.61944e-10
5.91582e-10
4.22864e-10
1.65503e-10
5.50253e-11
2.76978e-11
1.71399e-11
1.07758e-11
4.46332e-12
1.01208e-12
3.76831e-14
3.76415e-11
1.01193e-10
1.7992e-10
2.00586e-10
1.87647e-10
1.75528e-10
2.2539e-10
3.43346e-10
4.91529e-10
9.58447e-10
1.11643e-09
6.13962e-10
2.27737e-10
7.23211e-11
3.30432e-11
1.37762e-11
5.25032e-12
1.20687e-12
8.33793e-14
3.78485e-11
1.07905e-10
1.69491e-10
1.21179e-10
8.43129e-11
5.67393e-11
8.82817e-11
1.40835e-10
2.29114e-10
7.98936e-10
1.31619e-09
1.30494e-09
5.65662e-10
1.86508e-10
5.6143e-11
1.74187e-11
7.00353e-12
1.82925e-12
1.88076e-13
2.6674e-11
7.38967e-11
1.06984e-10
6.88745e-11
4.50118e-11
1.98959e-11
1.77803e-11
1.89577e-11
2.16803e-11
3.64897e-10
1.18381e-09
1.74416e-09
1.21322e-09
5.57686e-10
9.40385e-11
3.07781e-11
9.28909e-12
2.6147e-12
3.19657e-13
0.953869
0.954155
0.9593
0.968057
0.979078
0.991423
1
1
1
1
1
1
1
1
1
1
1
1
1
0.999992
0.490339
-8.39484e-19
-1.06049e-21
1
1
1
1
1
1
1
1
1
1
1
1
1
1
1
1
1
1
1
1
0.998107
0.528402
0.010653
1
1
1
1
1
1
1
1
1
1
1
1
1
1
1
1
1
1
1
1
0.998817
0.999186
0.626507
1
1
1
1
1
1
1
1
1
1
1
1
1
1
1
1
0.999997
0.999998
1
1
0.99998
0.999996
0.999771
1
1
1
1
1
1
1
1
1
1
1
1
1
1
0.999772
0.994855
0.985054
0.995909
0.999999
1
0.999999
0.999996
0.999997
1
1
1
1
1
1
1
1
1
1
1
1
0.999997
0.940687
0.71698
0.488065
0.350407
0.39149
0.55281
0.803729
0.999999
0.999997
0.999997
0.981499
0.981637
0.980959
0.979654
0.978114
0.976728
0.976193
0.977719
0.982333
0.990253
0.997336
0.995534
0.8339
0.302775
1.88997e-14
2.3266e-20
2.57518e-15
2.3266e-20
0.00582893
0.0623257
0.219811
0.493923
0.771846
0.36693
0.367889
0.364609
0.358737
0.352086
0.346499
0.344927
0.352704
0.377649
0.433345
0.530609
0.545414
0.123043
2.28475e-08
3.01421e-08
2.0035e-12
3.34592e-13
2.78659e-14
1.48235e-14
4.38004e-12
1.62792e-08
0.00716972
0.0690711
-2.96495e-14
8.66116e-24
3.4328e-25
6.58058e-26
1.60364e-27
1.45328e-26
1.5492e-27
2.74519e-26
1.11983e-16
2.77112e-16
0.00791766
0.0269584
3.86146e-05
6.39629e-05
1.55887e-05
2.09295e-12
4.78986e-07
3.32359e-08
2.07926e-12
2.09402e-12
2.46678e-10
1.46611e-10
1.46961e-10
1.93994e-12
2.99202e-12
3.73236e-12
1.33198e-12
3.72773e-14
2.34403e-14
-4.75731e-27
9.48458e-09
1.01356e-07
1.54145e-07
2.38484e-09
3.34362e-09
5.85205e-05
0.000131527
4.42699e-05
5.54486e-09
3.20504e-06
1.31984e-06
2.86598e-07
3.0293e-08
1.81014e-09
1.72496e-10
1.63382e-10
5.9626e-12
4.54428e-11
1.04246e-10
3.5668e-11
1.47712e-12
1.10345e-12
-1.4424e-20
2.18799e-08
4.33212e-07
1.6461e-06
2.20516e-06
4.06576e-06
4.05565e-05
0.000131371
5.40386e-05
8.36219e-06
3.19908e-06
2.25484e-06
9.52939e-07
4.36864e-07
1.55772e-07
5.31859e-08
1.7742e-08
9.64772e-12
6.94438e-11
1.49948e-10
5.81119e-11
4.30899e-12
7.31528e-12
2.56195e-12
8.37701e-10
9.70301e-08
1.0712e-06
1.97839e-06
1.3316e-06
-2.44288e-10
1.35344e-05
7.42546e-06
4.14068e-06
4.69787e-07
3.45923e-07
5.79108e-07
5.02373e-07
3.2608e-07
1.72738e-07
8.59603e-08
1.02784e-11
7.28548e-11
1.55896e-10
6.5161e-11
5.17071e-12
1.5332e-11
3.25116e-11
3.96127e-11
3.55448e-11
3.64562e-11
1.70924e-10
1.53412e-12
1.95624e-12
1.18671e-28
4.28682e-32
5.86605e-35
2.82686e-36
-6.78652e-38
1.01404e-37
1.37661e-23
7.75733e-09
4.0184e-08
4.84138e-08
8.44185e-12
5.98117e-11
1.35792e-10
5.4891e-11
3.86365e-12
1.6063e-11
5.51543e-11
1.79946e-10
2.34427e-10
2.95673e-10
1.58641e-10
5.1109e-11
6.98231e-12
4.25581e-13
5.80998e-14
1.69749e-15
1.31222e-17
1.87547e-18
6.88384e-20
3.75079e-19
3.23016e-30
7.1672e-30
6.10928e-19
4.55291e-12
3.41292e-11
8.34081e-11
3.42407e-11
2.57386e-12
1.19995e-11
5.0846e-11
1.98106e-10
5.03154e-10
6.92814e-10
3.09447e-10
6.37852e-11
5.00956e-12
3.35456e-13
4.40705e-14
7.62873e-16
6.63296e-19
4.17524e-21
1.18968e-19
4.15869e-18
2.5903e-17
3.78531e-17
2.16911e-15
1.90016e-12
1.60378e-11
3.89504e-11
1.6469e-11
1.64566e-12
6.58318e-12
3.35163e-11
1.07694e-10
3.11512e-10
5.4319e-10
1.52248e-10
2.44132e-11
2.10158e-12
3.5272e-14
8.14719e-17
5.55902e-21
-1.2698e-20
-2.53582e-21
3.45751e-19
9.24906e-18
4.47649e-17
6.57623e-17
5.23645e-15
4.93548e-13
4.53652e-12
1.21514e-11
5.13766e-12
7.58536e-13
3.27002e-12
9.25952e-12
3.39133e-11
9.46191e-11
1.93597e-10
2.579e-11
1.23832e-12
1.54135e-15
5.14519e-29
-1.89783e-20
-1.37576e-20
-4.3084e-21
4.75279e-21
5.35189e-19
9.6018e-18
2.8997e-17
5.12892e-17
8.54597e-17
7.46789e-14
6.50243e-13
1.65022e-12
7.54917e-13
1.92216e-13
7.77745e-13
2.38979e-12
6.79282e-12
1.64575e-11
2.32475e-11
1.34302e-13
2.60552e-34
-3.65142e-21
-5.18605e-21
-4.6082e-21
-2.35337e-21
2.41052e-23
4.05926e-21
3.51903e-20
2.79122e-19
1.6135e-18
6.19221e-18
1.11506e-17
1.57148e-19
1.17117e-17
3.61366e-16
3.75736e-15
2.05625e-14
7.78883e-14
2.12531e-13
4.81944e-13
8.96137e-13
7.17323e-13
-1.24816e-22
-3.49706e-22
-6.38756e-22
-7.36585e-22
-5.34699e-22
-2.20909e-22
1.14223e-40
1.95465e-22
1.47921e-21
6.43001e-21
8.05049e-20
3.56906e-19
6.61069e-19
3.50944e-43
2.54429e-41
1.10973e-39
3.12048e-38
7.19209e-37
1.34878e-35
1.92304e-34
2.05857e-33
6.12026e-32
8.27083e-31
9.6076e-30
9.95664e-29
9.8208e-28
9.93667e-27
9.20182e-26
7.98869e-25
5.78341e-24
3.27515e-23
1.70142e-22
7.46967e-22
2.36592e-21
1.3889e-20
2.61566e-20
1.57999e-43
1.41698e-41
6.54295e-40
2.0955e-38
5.27582e-37
1.11333e-35
2.04164e-34
3.28534e-33
4.40037e-32
5.88545e-31
6.01928e-30
5.23381e-29
3.76751e-28
2.06186e-27
8.95299e-27
3.69629e-26
1.556e-25
5.78426e-25
2.03183e-24
7.30127e-24
9.61408e-23
4.0863e-22
7.94202e-22
4.69431e-44
4.65944e-42
2.37139e-40
8.33782e-39
2.27477e-37
5.07455e-36
9.48165e-35
1.48319e-33
1.8595e-32
2.31034e-31
2.16643e-30
1.71579e-29
1.10113e-28
5.27926e-28
1.97446e-27
7.5015e-27
3.71107e-26
2.53712e-25
7.64309e-25
1.89328e-24
5.07657e-24
1.53014e-23
3.30014e-23
7.09917e-45
7.77226e-43
4.32271e-41
1.62107e-39
4.58982e-38
1.03599e-36
1.92825e-35
3.00104e-34
3.59565e-33
4.30666e-32
3.9194e-31
3.08653e-30
2.12154e-29
1.22367e-28
5.6326e-28
2.50437e-27
8.70324e-27
2.64682e-26
7.13535e-26
1.68133e-25
6.23792e-25
1.43896e-24
2.54651e-24
8.8088e-46
1.12293e-43
6.75513e-42
2.72454e-40
8.27853e-39
2.0041e-37
3.94963e-36
6.28276e-35
7.7354e-34
9.51412e-33
8.84313e-32
7.08498e-31
4.83019e-30
2.69607e-29
1.19222e-28
5.04536e-28
1.6964e-27
5.01771e-27
1.27475e-26
2.66005e-26
8.91509e-26
2.29785e-25
3.55056e-25
6.71125e-47
8.8311e-45
5.75208e-43
2.45621e-41
7.71016e-40
1.8859e-38
3.70902e-37
5.92096e-36
7.53926e-35
9.33963e-34
8.9257e-33
7.25646e-32
5.05242e-31
2.93352e-30
1.35283e-29
5.93069e-29
2.05094e-28
6.21185e-28
1.64587e-27
3.84491e-27
8.29479e-27
2.83325e-26
5.78775e-26
1.76309e-48
2.83642e-46
1.93443e-44
8.60656e-43
2.78966e-41
6.99134e-40
1.41238e-38
2.37416e-37
3.36469e-36
3.98895e-35
3.93692e-34
3.30701e-33
2.44397e-32
1.58362e-31
8.59559e-31
4.23673e-30
1.63234e-29
5.42473e-29
1.57608e-28
4.34558e-28
1.01044e-27
3.06268e-27
8.79563e-27
3.85741e-50
5.60286e-48
4.02935e-46
1.89694e-44
6.5371e-43
1.74479e-41
3.72584e-40
6.49763e-39
9.39021e-38
1.13926e-36
1.17838e-35
1.06087e-34
8.50513e-34
6.06597e-33
3.70854e-32
2.10666e-31
9.02868e-31
3.49854e-30
1.31743e-29
4.20296e-29
1.09985e-28
2.56851e-28
9.02016e-28
4.19541e-52
6.63368e-50
5.17707e-48
2.60029e-46
9.54775e-45
2.71962e-43
6.21075e-42
1.15849e-40
1.78861e-39
2.31942e-38
2.57457e-37
2.49947e-36
2.15157e-35
1.62366e-34
1.06186e-33
6.72501e-33
3.30871e-32
1.49499e-31
5.69e-31
2.32799e-30
7.53488e-30
2.90062e-29
7.27896e-29
3.69595e-54
6.15697e-52
5.06049e-50
2.71719e-48
1.06836e-46
3.26364e-45
8.02426e-44
1.62752e-42
2.77893e-41
4.05845e-40
5.12235e-39
5.65752e-38
5.54502e-37
4.78097e-36
3.55179e-35
2.30207e-34
1.50044e-33
7.26781e-33
3.10214e-32
1.2388e-31
4.4735e-31
1.5269e-30
5.43793e-30
2.54665e-56
4.59567e-54
4.05703e-52
2.34296e-50
9.94556e-49
3.30232e-47
8.90753e-46
2.00102e-44
3.80995e-43
6.23234e-42
8.85992e-41
1.10504e-39
1.21609e-38
1.17998e-37
1.00092e-36
7.37002e-36
4.85347e-35
2.98232e-34
1.50013e-33
6.94607e-33
2.7088e-32
1.34786e-31
3.97936e-31
1.37803e-58
2.72222e-56
2.65391e-54
1.69319e-52
7.91673e-51
2.89635e-49
8.62125e-48
2.1438e-46
4.53929e-45
8.30291e-44
1.32599e-42
1.86119e-41
2.30132e-40
2.50602e-39
2.40535e-38
2.04189e-37
1.54055e-36
1.04188e-35
6.22974e-35
3.31047e-34
1.57613e-33
7.3403e-33
2.66184e-32
4.19553e-61
9.84464e-59
1.0609e-56
7.48197e-55
3.88423e-53
1.58205e-51
5.25879e-50
1.46514e-48
3.4884e-47
7.20615e-46
1.30696e-44
2.09776e-43
2.98926e-42
3.77979e-41
4.23456e-40
4.19627e-39
3.66428e-38
2.80594e-37
1.89584e-36
1.14429e-35
6.32811e-35
3.2667e-34
1.3079e-33
1.08163e-63
2.68873e-61
3.24726e-59
2.56175e-57
1.4869e-55
6.77333e-54
2.52054e-52
7.87022e-51
2.10145e-49
4.86983e-48
9.92467e-47
1.80035e-45
2.92937e-44
4.27392e-43
5.55619e-42
6.40451e-41
6.5372e-40
5.88318e-39
4.62993e-38
3.19512e-37
1.98658e-36
1.15562e-35
6.24766e-35
2.10308e-66
6.16772e-64
8.52404e-62
7.6448e-60
5.01667e-58
2.57073e-56
1.07158e-54
3.73744e-53
1.1138e-51
2.88317e-50
6.56927e-49
1.33118e-47
2.41661e-46
3.94683e-45
5.80553e-44
7.67896e-43
9.10081e-42
9.61961e-41
9.02452e-40
7.45921e-39
5.05101e-38
3.49057e-37
1.87345e-36
2.93808e-69
1.02199e-66
1.6897e-64
1.80761e-62
1.41501e-60
8.65788e-59
4.31518e-57
1.80202e-55
6.43243e-54
1.99123e-52
5.40246e-51
1.29443e-49
2.75309e-48
5.21345e-47
8.80025e-46
1.3238e-44
1.7735e-43
2.11675e-42
2.25914e-41
2.18038e-40
1.95283e-39
1.68446e-38
1.4277e-37
2.04367e-72
1.04466e-69
2.14926e-67
2.85521e-65
2.73521e-63
2.05047e-61
1.25205e-59
6.39737e-58
2.79001e-56
1.05354e-54
3.47793e-53
1.01235e-51
2.63066e-50
6.18053e-49
1.30903e-47
2.46934e-46
4.19109e-45
6.36549e-44
8.61087e-43
1.03216e-41
1.00498e-40
1.07348e-39
9.18893e-39
1.03673e-75
6.10498e-73
1.55151e-70
2.48188e-68
2.87002e-66
2.57097e-64
1.86309e-62
1.13142e-60
5.94378e-59
2.75532e-57
1.12848e-55
4.06815e-54
1.30204e-52
3.73858e-51
9.5932e-50
2.18955e-48
4.43639e-47
7.99178e-46
1.28065e-44
1.8136e-43
2.32461e-42
3.10203e-41
3.61884e-40
1.82453e-79
1.77955e-76
5.86672e-74
1.1929e-71
1.74792e-69
1.99006e-67
1.84056e-65
1.425e-63
9.44266e-62
5.44396e-60
2.76243e-58
1.24342e-56
4.99055e-55
1.79213e-53
5.77022e-52
1.66623e-50
4.30333e-49
9.88747e-48
2.01459e-46
3.65789e-45
5.95596e-44
8.60213e-43
1.08777e-41
9.65136e-84
1.72199e-80
7.76471e-78
2.08187e-75
3.97144e-73
5.85731e-71
7.00651e-69
7.00861e-67
5.98638e-65
4.43216e-63
2.87645e-61
1.65075e-59
8.43823e-58
3.86758e-56
1.59803e-54
5.96142e-53
2.00328e-51
6.05787e-50
1.63279e-48
3.47864e-47
8.73968e-46
1.64773e-44
2.62535e-43
1.5315e-88
4.41499e-85
2.92589e-82
1.09722e-79
2.88171e-77
5.81267e-75
9.48211e-73
1.29223e-70
1.50398e-68
1.51844e-66
1.34529e-64
1.05516e-62
7.37893e-61
4.62595e-59
2.60914e-57
1.3472e-55
6.28723e-54
2.65906e-52
1.00974e-50
3.39164e-49
9.93105e-48
2.52031e-46
5.53474e-45
5.66928e-95
7.09327e-91
7.95574e-88
4.71299e-85
1.91488e-82
5.93542e-80
1.48424e-77
3.09505e-75
5.49574e-73
8.42856e-71
1.12799e-68
1.32705e-66
1.37929e-64
1.27075e-62
1.04047e-60
7.58735e-59
4.93222e-57
2.85596e-55
1.47057e-53
6.78342e-52
3.38286e-50
1.64786e-48
6.73689e-47
1.14374e-107
2.09296e-99
5.5385e-96
6.94261e-93
5.86497e-90
3.75e-87
1.92478e-84
8.20862e-82
2.97183e-79
9.25214e-77
2.50764e-74
6.04414e-72
1.28918e-69
2.40882e-67
3.98672e-65
5.93356e-63
7.90548e-61
9.37022e-59
1.00052e-56
9.67059e-55
8.46429e-53
6.61038e-51
4.3322e-49
-2.01825e-09
-6.33724e-09
-2.4896e-10
5.70796e-08
2.24045e-05
3.21154e-07
9.45106e-10
2.0154e-06
0.251539
0.000290106
7.75281e-08
5.26104e-08
0.917448
0.812364
0.728344
0.497362
0.998012
0.993044
0.963938
0.982356
0.999997
0.999997
0.999727
0.999072
0.934655
0.999942
0.999951
0.99995
0.150929
0.240295
0.313781
0.352973
1.46616e-10
1.46855e-10
1.46635e-10
1.46741e-10
1.73847e-10
1.87668e-10
1.72504e-10
1.51159e-10
7.82539e-09
3.85058e-09
3.70663e-09
4.06118e-09
5.6059e-08
3.70119e-08
2.64952e-08
2.07006e-08
4.31358e-08
3.93902e-08
3.31654e-08
2.31897e-08
3.23813e-18
3.6463e-28
7.40505e-20
1.63119e-16
1.10484e-15
2.2499e-16
7.24941e-17
2.54675e-13
2.23136e-16
6.75838e-16
8.32704e-16
6.8151e-16
1.12982e-16
1.05496e-16
7.31745e-17
3.07345e-17
1.11083e-17
7.04482e-18
4.03952e-18
2.63212e-18
6.52231e-19
4.90733e-19
3.06638e-19
1.83647e-19
2.66353e-20
2.05968e-20
1.39843e-20
1.04428e-20
8.581e-22
7.34105e-22
6.36778e-22
5.18168e-22
3.69262e-23
3.51603e-23
3.15182e-23
2.91214e-23
2.87521e-24
2.78546e-24
2.81084e-24
2.52136e-24
4.00564e-25
4.02545e-25
3.8629e-25
3.7284e-25
6.86289e-26
6.8979e-26
7.1311e-26
6.94341e-26
1.23467e-26
1.33566e-26
1.37788e-26
1.39275e-26
1.71966e-27
2.04746e-27
2.38216e-27
2.4976e-27
2.13927e-28
2.92704e-28
3.64545e-28
4.2006e-28
1.89619e-29
3.32022e-29
4.69315e-29
6.00434e-29
1.14705e-30
2.96799e-30
4.90519e-30
7.29968e-30
7.43521e-32
1.7154e-31
3.96634e-31
7.01055e-31
4.43742e-33
8.32869e-33
2.3375e-32
6.07245e-32
2.28338e-34
4.53688e-34
8.69323e-34
3.67464e-33
8.69372e-36
2.07079e-35
4.28761e-35
1.32897e-34
1.02682e-36
3.38232e-36
7.77517e-36
1.14279e-35
7.44266e-38
2.6186e-37
8.13369e-37
2.16148e-36
3.1294e-39
1.32063e-38
5.14737e-38
1.88356e-37
1.21596e-40
6.21901e-40
2.90286e-39
1.21824e-38
3.62087e-42
2.47611e-41
1.38102e-40
6.89265e-40
1.02928e-43
8.23134e-43
5.83281e-42
3.60218e-41
1.83854e-45
2.15241e-44
2.06303e-43
1.67038e-42
2.05854e-47
3.8229e-46
5.65149e-45
6.59803e-44
6.11173e-15
1.39638e-14
4.57853e-16
1.66228e-16
4.0162e-13
8.20385e-12
8.82826e-12
9.46088e-12
1.14179e-08
4.06187e-10
1.25533e-08
7.71725e-09
2.67301e-09
6.27471e-10
6.87459e-11
1.90274e-11
1.08602e-11
4.2037e-12
5.64378e-13
2.24557e-06
2.19973e-06
1.98479e-06
6.63452e-07
3.13698e-08
2.4444e-11
1.91498e-08
3.70554e-07
1.2424e-07
6.70838e-08
6.30411e-08
2.45516e-08
2.52741e-09
2.36457e-10
1.91715e-11
1.20211e-11
9.63793e-12
5.07145e-12
1.34074e-12
3.40949e-08
1.96842e-06
5.53877e-06
3.60985e-06
1.95701e-06
2.54976e-06
3.13349e-06
1.36521e-06
3.18613e-07
2.86439e-07
2.38338e-07
2.89061e-08
9.78996e-12
6.10075e-11
1.49518e-11
6.99628e-12
7.41494e-12
4.80754e-12
1.75924e-12
0.117113
0.00108134
6.03674e-06
3.54865e-06
1.15224e-05
1.49872e-05
1.37575e-05
1.44811e-06
5.33511e-07
3.16329e-07
5.97417e-08
7.84955e-12
9.51634e-12
2.76887e-11
8.60148e-12
3.40022e-12
5.20194e-12
4.18916e-12
1.68046e-12
0.873229
0.47057
0.159967
0.0204754
1.13169e-05
1.05163e-05
1.50451e-05
3.81559e-06
1.98873e-07
2.0244e-12
2.01947e-12
7.42868e-12
6.7527e-12
9.15623e-12
3.43543e-12
1.45997e-12
3.54977e-12
3.37004e-12
1.53321e-12
0.999751
0.994637
0.942173
0.246555
0.000489912
3.43995e-08
3.12448e-08
6.9251e-09
7.90461e-09
5.54991e-10
2.02646e-12
2.32501e-12
3.25047e-12
4.67494e-12
1.29379e-12
4.78722e-13
2.26011e-12
2.8852e-12
1.42309e-12
0.999766
0.999285
0.912711
0.251463
6.52332e-10
5.06675e-09
2.18236e-09
8.06112e-13
7.97835e-13
1.46657e-12
2.38821e-12
1.61806e-12
2.07411e-12
1.617e-12
9.11676e-13
3.2103e-13
1.34906e-12
2.39581e-12
1.23704e-12
0.524168
0.463708
0.151665
1.94507e-10
6.3217e-10
1.34642e-12
1.35449e-12
2.64469e-12
1.35307e-12
1.85297e-12
2.52147e-12
1.15199e-12
1.17366e-12
1.04916e-12
6.4503e-13
2.5884e-13
7.85956e-13
1.86623e-12
1.09487e-12
0.000520008
1.53539e-10
1.56083e-10
1.89286e-10
1.98505e-10
1.62041e-10
7.25337e-11
1.12238e-11
1.37814e-12
2.97799e-13
5.45428e-14
3.24195e-13
5.01116e-13
5.71089e-13
3.7485e-13
1.68987e-13
3.42143e-13
1.39904e-12
9.4271e-13
1.50049e-10
1.64797e-10
1.94476e-10
1.69925e-10
1.18979e-10
4.48526e-11
1.95142e-11
4.79788e-12
1.03894e-12
9.34512e-14
7.18352e-15
7.18864e-14
1.53396e-13
2.58272e-13
2.22701e-13
1.21443e-13
1.02811e-13
9.99136e-13
7.80717e-13
2.5937e-09
1.57065e-09
8.91692e-10
3.4586e-10
1.58545e-10
3.7736e-11
9.77114e-12
1.51324e-12
1.53717e-14
5.66998e-17
6.00192e-16
1.85313e-15
7.03375e-15
8.83319e-14
8.5601e-14
8.06802e-14
6.72378e-14
6.82305e-13
6.28912e-13
1.01245e-08
3.61464e-09
1.19991e-09
4.28981e-10
4.84735e-11
4.24909e-12
1.91129e-13
2.8741e-21
8.92636e-21
9.44617e-20
2.02558e-18
2.55472e-18
1.54349e-17
1.30725e-14
3.37051e-14
5.60362e-14
4.9557e-14
4.49449e-13
5.01851e-13
1.05121e-08
7.28239e-10
5.56994e-12
1.85711e-13
1.35401e-14
9.10578e-22
9.20706e-22
2.29406e-21
3.6799e-21
7.36371e-21
1.77964e-20
3.92714e-20
7.87654e-20
9.55135e-17
4.37769e-15
3.04346e-14
3.80964e-14
2.84739e-13
4.24087e-13
1.34189e-16
8.95491e-12
1.01373e-12
1.08973e-17
1.98592e-17
1.43007e-19
7.3793e-22
1.55226e-21
3.24026e-21
7.99385e-21
1.94782e-20
4.51045e-20
9.2535e-20
2.58846e-19
3.21263e-16
1.82049e-14
3.20091e-14
1.59484e-13
3.54316e-13
1.20099e-14
8.06543e-17
1.61226e-16
1.07385e-17
2.01469e-18
5.75066e-21
3.91171e-22
1.0114e-21
2.56673e-21
7.25309e-21
1.93512e-20
5.1763e-20
1.21373e-19
6.28001e-19
5.18097e-17
1.28187e-14
2.34604e-14
6.1698e-14
2.72318e-13
3.80615e-16
7.94788e-17
1.35393e-17
1.31674e-18
1.75324e-19
3.54027e-22
2.20655e-22
5.89158e-22
1.67839e-21
5.24657e-21
1.59233e-20
4.39704e-20
1.21474e-19
3.76192e-19
6.54274e-18
1.02391e-14
1.48542e-14
1.21619e-14
1.94626e-13
1.87968e-17
8.8097e-18
1.39437e-18
1.49802e-19
1.27724e-20
5.51731e-23
1.08246e-22
3.05462e-22
9.24021e-22
2.70244e-21
7.35779e-21
2.35279e-20
8.5195e-20
2.67281e-19
2.92482e-18
7.72684e-15
8.16786e-15
2.54806e-15
1.31219e-13
1.78495e-18
7.49355e-19
1.30971e-19
1.57889e-20
8.8646e-22
1.7227e-23
4.53439e-23
1.3635e-22
4.28885e-22
1.30175e-21
4.58684e-21
1.60371e-20
4.58572e-20
1.27361e-19
3.90904e-18
4.90748e-15
3.8548e-15
1.14346e-15
8.48112e-14
1.36188e-19
5.70211e-20
1.03659e-20
1.48058e-21
6.2449e-23
6.52269e-24
1.69712e-23
5.87195e-23
1.93675e-22
6.17318e-22
2.31145e-21
1.08111e-20
5.99896e-20
4.63253e-19
6.71628e-18
2.29626e-15
2.16847e-15
8.77108e-16
5.36881e-14
7.7471e-21
3.70711e-21
7.6877e-22
1.41874e-22
5.3233e-24
2.3369e-24
8.25644e-24
3.24228e-23
1.28723e-22
4.51466e-22
1.46562e-21
6.50612e-21
3.10311e-20
2.68179e-19
5.29455e-18
3.96604e-16
9.24153e-16
6.89612e-16
3.31175e-14
4.21283e-22
2.31718e-22
5.3272e-23
1.44313e-23
8.9269e-25
8.42078e-25
3.76702e-24
1.82552e-23
8.43288e-23
3.49129e-22
1.30288e-21
4.62143e-21
1.80624e-20
9.22092e-20
9.18073e-19
1.44721e-17
5.54217e-16
5.54631e-16
2.34894e-14
2.44754e-23
1.51682e-23
4.78371e-24
1.55944e-24
2.63028e-25
3.1229e-25
1.16592e-24
5.56722e-24
2.57071e-23
1.10995e-22
4.63798e-22
2.16884e-21
8.29592e-21
3.76567e-20
1.80528e-19
3.59364e-18
3.44326e-16
4.0753e-16
1.67286e-14
2.26171e-24
1.35555e-24
6.23968e-25
2.42673e-25
8.27507e-26
9.33293e-26
3.4833e-25
1.69779e-24
8.09776e-24
3.69154e-23
1.68545e-22
9.41671e-22
8.56514e-21
2.6804e-20
1.00582e-19
2.24798e-18
1.50224e-16
3.1139e-16
1.14159e-14
3.3134e-25
2.17439e-25
1.1997e-25
5.45242e-26
2.47526e-26
2.58731e-26
1.00453e-25
5.39341e-25
2.91229e-24
1.58559e-23
7.5272e-23
5.02302e-22
2.5177e-21
1.87283e-20
8.0821e-20
4.79044e-19
2.83385e-17
2.3382e-16
7.43043e-15
6.5341e-26
4.7112e-26
2.88008e-26
1.42472e-26
7.17095e-27
6.87986e-27
3.01009e-26
2.04701e-25
1.4064e-24
7.94798e-24
6.97834e-23
3.84441e-22
2.38849e-21
1.27992e-20
6.21778e-20
1.75443e-19
5.75709e-18
2.15349e-16
3.67704e-15
1.3413e-26
1.08367e-26
7.13134e-27
3.90274e-27
1.76313e-27
1.59989e-27
6.34665e-27
4.4513e-26
2.64985e-25
3.28521e-24
2.55499e-23
1.80115e-22
1.30853e-21
7.01075e-21
2.69479e-20
1.23285e-19
2.19129e-18
1.60213e-16
1.15437e-15
2.50501e-27
2.30688e-27
1.6481e-27
1.0012e-27
4.39e-28
3.46559e-28
1.36049e-27
9.33346e-27
5.07197e-26
4.25376e-25
2.66629e-24
2.08993e-23
2.53333e-22
2.94722e-21
2.58357e-20
1.15912e-19
8.93721e-19
7.52724e-17
6.77283e-16
4.4792e-28
4.43864e-28
3.52023e-28
2.34569e-28
1.09736e-28
7.35081e-29
2.69408e-28
1.67527e-27
1.74294e-26
1.50044e-25
2.21497e-24
3.7136e-23
4.73649e-22
4.31131e-21
2.67277e-20
1.00951e-19
5.2674e-19
3.06286e-17
5.0187e-16
7.16188e-29
7.72089e-29
6.7836e-29
4.91074e-29
2.57504e-29
1.47388e-29
3.62397e-29
4.40106e-28
3.79213e-27
3.52241e-26
4.65968e-25
8.26366e-24
1.29582e-22
1.74054e-21
1.79619e-20
9.3967e-20
4.08482e-19
1.57635e-17
3.17406e-16
1.02569e-29
1.24618e-29
1.21812e-29
9.6276e-30
5.73574e-30
2.88592e-30
7.53649e-30
6.75218e-29
6.49672e-28
5.98377e-27
5.79367e-26
7.67416e-25
1.22904e-23
1.1778e-22
3.41428e-21
3.84783e-20
2.77477e-19
8.5281e-18
9.90728e-17
1.24124e-30
1.82933e-30
1.97093e-30
1.75406e-30
1.18543e-30
5.85825e-31
1.00877e-30
9.83284e-30
1.12637e-28
1.16263e-27
1.09888e-26
1.05898e-25
8.69527e-25
4.96971e-24
1.12709e-22
5.04878e-21
1.01555e-19
1.54248e-18
9.20439e-18
1.40668e-31
2.52215e-31
3.01146e-31
2.96228e-31
2.30788e-31
1.13767e-31
1.39767e-31
1.25622e-30
1.58126e-29
1.78489e-28
1.74622e-27
1.48186e-26
1.46004e-25
1.12409e-24
8.05118e-24
1.19216e-22
7.21173e-21
7.10154e-20
1.60734e-19
1.40733e-32
3.09985e-32
4.33134e-32
4.71695e-32
4.14113e-32
2.14283e-32
1.88463e-32
1.33531e-31
1.80608e-30
2.25623e-29
2.47129e-28
2.45345e-27
2.38757e-26
2.26675e-25
1.95475e-24
1.70234e-23
1.56224e-22
2.87892e-21
2.66599e-20
1.23637e-33
3.46358e-33
5.82801e-33
7.10218e-33
6.82469e-33
3.86304e-33
2.58493e-33
1.19702e-32
1.69984e-31
2.3624e-30
2.83973e-29
3.06588e-28
3.13679e-27
3.30743e-26
3.53517e-25
3.62151e-24
3.17607e-23
4.88413e-22
1.45461e-21
8.49293e-35
3.57489e-34
7.36873e-34
1.00166e-33
1.04117e-33
6.59022e-34
3.75753e-34
1.03033e-33
1.37633e-32
2.07345e-31
2.71211e-30
3.14198e-29
3.32546e-28
3.53623e-27
4.05555e-26
4.68014e-25
4.92082e-24
5.99617e-23
2.06913e-22
4.8254e-36
3.39511e-35
8.70956e-35
1.31857e-34
1.47243e-34
1.04886e-34
5.51921e-35
9.13338e-35
9.80951e-34
1.54382e-32
2.18338e-31
2.71205e-30
2.98648e-29
3.11819e-28
3.46656e-27
4.14605e-26
4.77809e-25
5.36715e-24
7.34933e-24
5.86445e-37
2.65499e-36
9.62576e-36
1.62781e-35
1.94289e-35
1.54997e-35
7.91876e-36
8.84692e-36
6.39028e-35
9.91982e-34
1.50368e-32
1.99763e-31
2.31516e-30
2.41577e-29
2.50554e-28
2.82748e-27
3.3151e-26
3.58475e-25
5.46237e-25
4.27591e-38
2.55402e-37
9.58018e-37
1.89751e-36
2.41618e-36
2.12097e-36
1.09482e-36
9.47112e-37
4.10262e-36
5.61915e-35
9.0388e-34
1.28044e-32
1.56285e-31
1.6728e-30
1.64767e-29
1.65118e-28
1.79813e-27
1.84182e-26
2.09821e-26
2.79751e-39
2.16373e-38
8.70641e-38
2.05344e-37
2.7947e-37
2.69678e-37
1.45246e-37
1.07171e-37
2.89778e-37
2.89022e-36
4.74802e-35
6.71228e-34
9.30743e-33
1.03638e-31
1.00049e-30
8.47011e-30
8.35616e-29
6.70266e-28
5.95935e-28
1.82393e-40
1.70698e-39
8.10839e-39
2.14285e-38
3.10537e-38
3.19995e-38
1.83706e-38
1.21748e-38
2.40443e-38
1.44472e-37
2.31084e-36
3.49458e-35
4.9778e-34
5.79584e-33
5.64035e-32
4.31015e-31
3.3057e-30
1.82085e-29
2.07368e-29
1.12473e-41
1.21844e-40
6.68669e-40
2.10751e-39
3.27501e-39
3.5651e-39
2.20608e-39
1.35024e-39
2.23941e-39
7.86772e-39
1.02896e-37
1.65992e-36
2.42661e-35
2.96506e-34
2.97593e-33
2.10651e-32
1.49212e-31
5.2785e-31
1.14155e-30
6.12602e-43
8.57356e-42
5.74006e-41
1.95584e-40
3.27549e-40
3.75157e-40
2.50913e-40
1.44786e-40
2.15936e-40
5.18474e-40
4.34013e-39
7.0267e-38
1.08683e-36
1.40102e-35
1.47499e-34
1.02635e-33
7.55282e-33
2.47585e-32
5.84573e-32
)
;

boundaryField
{
    leftWall
    {
        type            zeroGradient;
    }
    rightWall
    {
        type            zeroGradient;
    }
    lowerWall
    {
        type            zeroGradient;
    }
    atmosphere
    {
        type            inletOutlet;
        inletValue      uniform 0;
        value           nonuniform List<scalar> 
46
(
0
0
0
0
0
0
0
0
0
0
0
0
0
0
0
0
0
0
0
0
0
0
0
0
0
0
6.59803e-44
6.12603e-43
8.57356e-42
5.74006e-41
1.95584e-40
3.27549e-40
3.75157e-40
2.50913e-40
1.44786e-40
2.15936e-40
5.18474e-40
4.34013e-39
7.0267e-38
1.08683e-36
1.40102e-35
1.47499e-34
1.02635e-33
7.55282e-33
2.47585e-32
5.84573e-32
)
;
    }
    defaultFaces
    {
        type            empty;
    }
}


// ************************************************************************* //
