/*--------------------------------*- C++ -*----------------------------------*\
| =========                 |                                                 |
| \\      /  F ield         | OpenFOAM: The Open Source CFD Toolbox           |
|  \\    /   O peration     | Version:  2312                                  |
|   \\  /    A nd           | Website:  www.openfoam.com                      |
|    \\/     M anipulation  |                                                 |
\*---------------------------------------------------------------------------*/
FoamFile
{
    version     2.0;
    format      ascii;
    arch        "LSB;label=32;scalar=64";
    class       volScalarField;
    location    "0.35";
    object      p;
}
// * * * * * * * * * * * * * * * * * * * * * * * * * * * * * * * * * * * * * //

dimensions      [1 -1 -2 0 0 0 0];

internalField   nonuniform List<scalar> 
2268
(
6828.2
6830.23
6808.24
6769.8
6716.44
6648.15
6565.72
6471.05
6366.65
6255.95
6143.98
6038.45
5950.6
5896.64
5899.79
5992.5
6215.74
6610.35
7193.02
7923.88
8703.54
9385.7
9976.3
6022.17
6024.11
6001.93
5963.41
5909.84
5841.2
5758.34
5663.18
5558.21
5446.76
5333.74
5226.81
5136.98
5080.07
5078.57
5164.25
5379.27
5767.85
6353.51
7097.04
7894.43
8588.36
9193.41
5210.53
5212.47
5190.17
5151.65
5097.87
5028.78
4945.25
4849.3
4743.38
4630.57
4515.47
4405.59
4311.49
4248.1
4236.52
4307.19
4503.31
4877.02
5464.67
6226.42
7046.79
7747.06
8346.37
4392.69
4394.46
4371.89
4333.18
4278.95
4209.09
4124.36
4027.11
3919.67
3804.75
3686.37
3571.94
3471.24
3397.97
3371.05
3418.02
3581.02
3925.68
4514.74
5304.59
6158.38
6866.23
7453.45
3568.7
3570.29
3547.46
3508.47
3453.62
3382.71
3296.16
3197.03
3087.45
2969.52
2846.39
2725.66
2615.85
2529.03
2481.57
2501.3
2623.16
2918.41
3506.52
4334.92
5234.08
5950.59
6519.55
2736.39
2737.9
2714.96
2675.62
2620.06
2547.88
2458.6
2356.85
2244.38
2122.3
1994.41
1875.54
1772.93
1693.55
1641.39
1619.36
1668.24
1863.4
2387.28
3283.61
4267.12
5000.43
5532.75
1906.83
1908.13
1886.88
1850.72
1800.45
1736.51
1658.31
1576.62
1493.9
1411.63
1342.07
1292.45
1259.75
1244.14
1243.99
1256.13
1288.59
1365.34
1562.09
2211.79
3266
4025.6
4477.19
1282.41
1283.51
1270.8
1250.15
1222.72
1189.78
1157.92
1131.53
1110.81
1097.11
1095.33
1103.14
1117.01
1134.65
1155.94
1181.12
1211.08
1250.27
1308.41
1500.99
2318.88
3074.56
3343.41
977.25
834.133
727.671
656.194
630.726
651.317
720.679
828.445
925.318
976.053
984.396
955.294
915.224
887.707
880.98
890.201
903.614
906.078
907.461
939.272
795.356
689.223
617.748
592.015
610.472
675.695
782.86
882.65
936.074
947.059
920.2
881.554
854.141
847.79
858.227
873.192
879.488
881.699
886.871
749.222
644.691
574.061
549.645
564.294
622.286
730.436
837.924
894.002
904.849
880.822
843.766
815.991
809.952
822.263
839.268
849.688
856.017
829.754
700.142
594.816
525.355
503.38
512.859
559.663
672.7
792.478
849.066
856.472
834.987
799.349
771.002
765.928
781.485
801.795
815.994
828.616
778.537
654.502
543.334
475.415
456.398
459.192
489.843
612.766
750.349
802.456
801.906
782.043
747.249
717.898
714.862
735.519
760.526
778.711
797.028
740.657
617.514
492.117
431.018
422.509
422.109
437.172
556.659
717.949
756.393
740.846
721.533
685.873
654.25
655.34
683.775
715.007
737.989
761.172
721.152
592.664
447.184
419.137
415.031
412.249
419.561
486.077
697.383
700.943
670.18
652.28
614.067
576.831
585.573
625.447
664.578
693.156
721.091
721.887
579.568
433.438
419.495
414.329
410.619
416.238
450.151
615.571
605.843
584.414
570.461
529.892
481.663
504.515
560.426
608.837
643.731
676.13
973.654
974.801
972.867
970.165
967.17
964.935
966.161
970.372
977.148
985.895
994.57
1004.4
1017.43
1033.62
1053.13
1076.26
1103.63
1137
1171.42
1201.25
1373.13
1722.37
1294.63
812.044
813.46
815.089
817.766
821.339
825.636
829.62
834.333
840.505
848.049
856.477
866.048
877.278
890.547
906.328
925.293
947.506
972.104
994.091
991.516
930.775
961.979
934.382
675.183
676.47
677.86
680.035
682.922
686.438
690.426
695.219
701.104
708.05
715.782
724.052
732.714
741.999
752.683
766.052
782.184
798.659
809.992
801.695
750.484
644.426
602.535
536.443
537.619
538.78
540.552
542.919
545.912
549.603
554.171
559.726
566.131
572.938
579.317
584.358
588.076
591.751
597.803
607.728
618.588
625.167
616.021
571.091
481.575
364.644
395.305
396.382
397.311
398.707
400.616
403.176
406.582
411.036
416.593
422.956
429.288
433.806
434.337
430.565
424.943
422.271
425.018
433.75
441.925
440.937
415.149
351.569
260.005
250.774
251.745
252.361
253.301
254.684
256.788
260.018
264.822
271.46
279.517
287.352
291.33
287.599
278.637
271.691
271.193
274.022
279.423
285.71
288.551
281.027
251.953
199.446
106.956
107.626
107.711
107.88
108.3
109.32
111.542
115.837
123.263
134.353
147.201
154.977
157.317
163.839
168.331
173.128
179.277
184.482
187.236
188.685
189.326
183.022
165.848
18.26
18.3615
18.232
17.9897
17.7348
17.5775
17.7216
18.5351
20.7697
26.0554
37.0218
51.0776
68.4791
79.3267
87.3217
95.7163
105.753
116.311
124.645
129.843
131.156
130.626
126.7
-1.20187
-1.19229
-1.17782
-1.15254
-1.11333
-1.05026
-0.941497
-0.745408
-0.382842
0.17396
1.10605
5.90812
16.7665
14.9711
19.0822
27.1672
37.3129
48.1698
59.7377
70.4382
78.9694
85.0484
89.4881
-1.34428
-1.33745
-1.3243
-1.30081
-1.26268
-1.21209
-1.15243
-1.0203
-0.83822
-0.513448
1.27806
0.998119
-1.01267
-1.41049
-1.39393
-0.21896
2.85971
7.35139
13.2223
20.2102
27.5265
35.6
44.2082
-1.49049
-1.48584
-1.47647
-1.46129
-1.44112
-1.43268
-1.45935
-1.43743
-1.30072
-1.46001
-1.74001
-1.82502
-1.83964
-1.75835
-1.77919
-1.8539
-1.88273
-1.88807
-1.95989
-1.71843
0.462191
4.62641
10.634
-1.64058
-1.63842
-1.63423
-1.62907
-1.62685
-1.64137
-1.70697
-1.8752
-2.004
-2.01091
-1.98892
-1.96742
-1.9438
-1.89967
-1.94226
-1.99956
-2.04329
-2.08277
-2.143
-2.21469
-2.3224
-2.3936
-2.46503
-1.79358
-1.79359
-1.79402
-1.79668
-1.80606
-1.83318
-1.89696
-2.00935
-2.08209
-2.09443
-2.08924
-2.08477
-2.06967
-2.06603
-2.09446
-2.1389
-2.18522
-2.23547
-2.29782
-2.37486
-2.45731
-2.52459
-2.58059
-1.94745
-1.94902
-1.95262
-1.95997
-1.97435
-2.00065
-2.04296
-2.10349
-2.15634
-2.18468
-2.19482
-2.2026
-2.20531
-2.21737
-2.24411
-2.2831
-2.3291
-2.3813
-2.44069
-2.50436
-2.56856
-2.63596
-2.70146
-2.10047
-2.10294
-2.10828
-2.11771
-2.13309
-2.1562
-2.18807
-2.22685
-2.26393
-2.29134
-2.30966
-2.32496
-2.33907
-2.35855
-2.38679
-2.42449
-2.47013
-2.52231
-2.5788
-2.63404
-2.69081
-2.75755
-2.81687
-2.25153
-2.25441
-2.26043
-2.2703
-2.28487
-2.30467
-2.32958
-2.3579
-2.38617
-2.41069
-2.43123
-2.4503
-2.46997
-2.49353
-2.5235
-2.56106
-2.60593
-2.65678
-2.71033
-2.76233
-2.81792
-2.87967
-2.92331
-2.40015
-2.40311
-2.40914
-2.41861
-2.4318
-2.44874
-2.46902
-2.49147
-2.51443
-2.53628
-2.55686
-2.57736
-2.59929
-2.6247
-2.65535
-2.69219
-2.73502
-2.78258
-2.83163
-2.88061
-2.93391
-2.98114
-3.01282
-2.54623
-2.54908
-2.55479
-2.56351
-2.57524
-2.58983
-2.60695
-2.6257
-2.64526
-2.66494
-2.68471
-2.7053
-2.72762
-2.7532
-2.78315
-2.81802
-2.85739
-2.89979
-2.94313
-2.9867
-3.02932
-3.06656
-3.09359
-2.68988
-2.69254
-2.69778
-2.70565
-2.71605
-2.72878
-2.74352
-2.75975
-2.77698
-2.79488
-2.81352
-2.83336
-2.85511
-2.87967
-2.90776
-2.93962
-2.97477
-3.01203
-3.05002
-3.08775
-3.12366
-3.15533
-3.18162
-2.83132
-2.83373
-2.83847
-2.84553
-2.85475
-2.86596
-2.8789
-2.89324
-2.90868
-2.92507
-2.94246
-2.96119
-2.98174
-3.00471
-3.03051
-3.05923
-3.09041
-3.12321
-3.15665
-3.18974
-3.22124
-3.24999
-3.27559
-2.97076
-2.97294
-2.97719
-2.98349
-2.9917
-3.00165
-3.01315
-3.02598
-3.03995
-3.05498
-3.07113
-3.0886
-3.10776
-3.12895
-3.15243
-3.17821
-3.20594
-3.23502
-3.2647
-3.29417
-3.32252
-3.34912
-3.37374
-3.10844
-3.1104
-3.1142
-3.11983
-3.12716
-3.13605
-3.14635
-3.15792
-3.17063
-3.18443
-3.19936
-3.21557
-3.23328
-3.25272
-3.27403
-3.29718
-3.32194
-3.34788
-3.37444
-3.40095
-3.4268
-3.45155
-3.475
-3.24456
-3.24631
-3.24972
-3.25475
-3.26131
-3.2693
-3.27858
-3.28906
-3.30065
-3.31332
-3.32709
-3.34206
-3.35837
-3.37616
-3.3955
-3.41635
-3.43856
-3.46181
-3.48568
-3.50969
-3.53336
-3.55638
-3.57854
-3.3793
-3.38087
-3.38392
-3.38844
-3.39433
-3.40151
-3.40991
-3.41942
-3.43
-3.44162
-3.45429
-3.46808
-3.48305
-3.4993
-3.51687
-3.53571
-3.55569
-3.57661
-3.59814
-3.61993
-3.64163
-3.66299
-3.68376
-3.51282
-3.51424
-3.51697
-3.52102
-3.52632
-3.5328
-3.54039
-3.54904
-3.5587
-3.56933
-3.58096
-3.59361
-3.60732
-3.62215
-3.6381
-3.65515
-3.67318
-3.69203
-3.71149
-3.73128
-3.75115
-3.77086
-3.79021
-3.64526
-3.64653
-3.64898
-3.65262
-3.65739
-3.66323
-3.67011
-3.67796
-3.68675
-3.69647
-3.7071
-3.71866
-3.73118
-3.74468
-3.75916
-3.77458
-3.79086
-3.80787
-3.82545
-3.8434
-3.86154
-3.87967
-3.89756
-3.77674
-3.77788
-3.78007
-3.78334
-3.78762
-3.79289
-3.79911
-3.80622
-3.81421
-3.82304
-3.83273
-3.84326
-3.85465
-3.8669
-3.88001
-3.89394
-3.90863
-3.92396
-3.93983
-3.95608
-3.97257
-3.98914
-4.00558
-3.90736
-3.90838
-3.91034
-3.91326
-3.91711
-3.92185
-3.92745
-3.93387
-3.9411
-3.9491
-3.95788
-3.96743
-3.97775
-3.98882
-4.00065
-4.0132
-4.02641
-4.0402
-4.05448
-4.06913
-4.08406
-4.09912
-4.1141
-4.03721
-4.03811
-4.03987
-4.04248
-4.04592
-4.05016
-4.05518
-4.06096
-4.06746
-4.07468
-4.0826
-4.0912
-4.10049
-4.11046
-4.12108
-4.13233
-4.14417
-4.15652
-4.16931
-4.18246
-4.1959
-4.20948
-4.22303
-4.16637
-4.16717
-4.16873
-4.17105
-4.17411
-4.17789
-4.18237
-4.18754
-4.19335
-4.19982
-4.2069
-4.21461
-4.22292
-4.23183
-4.24131
-4.25134
-4.26189
-4.27289
-4.28429
-4.29602
-4.30801
-4.32018
-4.33231
-4.29492
-4.29562
-4.29699
-4.29904
-4.30175
-4.3051
-4.30907
-4.31365
-4.31881
-4.32455
-4.33085
-4.33769
-4.34507
-4.35297
-4.36137
-4.37025
-4.37958
-4.38931
-4.39939
-4.40976
-4.42038
-4.43116
-4.44193
-4.42292
-4.42353
-4.42473
-4.42652
-4.42889
-4.43183
-4.43532
-4.43934
-4.44389
-4.44893
-4.45447
-4.46049
-4.46698
-4.47391
-4.48128
-4.48907
-4.49724
-4.50577
-4.51459
-4.52368
-4.53299
-4.54244
-4.55188
-4.55043
-4.55096
-4.552
-4.55355
-4.5556
-4.55815
-4.56118
-4.56467
-4.56862
-4.573
-4.57782
-4.58304
-4.58867
-4.59469
-4.60108
-4.60783
-4.6149
-4.62228
-4.62992
-4.63779
-4.64584
-4.65402
-4.66219
-4.67752
-4.67797
-4.67885
-4.68017
-4.68193
-4.68411
-4.68669
-4.68968
-4.69306
-4.69681
-4.70092
-4.70539
-4.7102
-4.71534
-4.7208
-4.72655
-4.73258
-4.73887
-4.74538
-4.75209
-4.75895
-4.76592
-4.77286
-4.80424
-4.80461
-4.80535
-4.80646
-4.80792
-4.80975
-4.81191
-4.81442
-4.81724
-4.82039
-4.82383
-4.82758
-4.8316
-4.8359
-4.84046
-4.84527
-4.85031
-4.85556
-4.861
-4.8666
-4.87233
-4.87814
-4.88394
-4.93064
-4.93094
-4.93154
-4.93244
-4.93364
-4.93512
-4.93689
-4.93893
-4.94123
-4.94379
-4.94659
-4.94963
-4.95291
-4.9564
-4.9601
-4.964
-4.9681
-4.97236
-4.97678
-4.98133
-4.98599
-4.99072
-4.99544
-5.05679
-5.05703
-5.05749
-5.0582
-5.05913
-5.06029
-5.06167
-5.06326
-5.06505
-5.06705
-5.06923
-5.0716
-5.07415
-5.07687
-5.07975
-5.08279
-5.08598
-5.0893
-5.09274
-5.0963
-5.09995
-5.10366
-5.10736
-5.18272
-5.18291
-5.18325
-5.18377
-5.18445
-5.1853
-5.1863
-5.18746
-5.18877
-5.19021
-5.1918
-5.19352
-5.19538
-5.19735
-5.19945
-5.20166
-5.20398
-5.2064
-5.20891
-5.21152
-5.21421
-5.21696
-5.21971
-5.30849
-5.30864
-5.30886
-5.30921
-5.30965
-5.31019
-5.31083
-5.31157
-5.3124
-5.31332
-5.31433
-5.31543
-5.3166
-5.31787
-5.31921
-5.32062
-5.32211
-5.32367
-5.3253
-5.327
-5.32877
-5.33061
-5.33247
-5.43411
-5.43424
-5.43435
-5.43453
-5.43474
-5.435
-5.43529
-5.43562
-5.43599
-5.4364
-5.43684
-5.43733
-5.43786
-5.43843
-5.43904
-5.4397
-5.44039
-5.44113
-5.44192
-5.44275
-5.44365
-5.44461
-5.44564
-5.55967
-5.5598
-5.55981
-5.55984
-5.55982
-5.55979
-5.55974
-5.55967
-5.55959
-5.5595
-5.5594
-5.55929
-5.55918
-5.55908
-5.55898
-5.55889
-5.55882
-5.55877
-5.55875
-5.55877
-5.55883
-5.55895
-5.55917
-5.68526
-5.68548
-5.6854
-5.68526
-5.68502
-5.6847
-5.6843
-5.68382
-5.68329
-5.68268
-5.68203
-5.68132
-5.68057
-5.67978
-5.67897
-5.67814
-5.67731
-5.67649
-5.67568
-5.6749
-5.67417
-5.67349
-5.6729
-110.501
507.797
589.182
620.348
659.272
419.882
151.842
350.06
530.466
445.791
381.974
360.341
277.822
208.137
159.918
173.052
167.441
114.36
89.0874
83.1784
137.194
93.5656
55.2778
17.0995
134.151
106.582
83.1539
61.9042
114.825
103.244
94.5939
86.4167
85.6502
79.9097
75.2002
70.4168
44.3714
41.8794
39.1964
35.7576
14.9689
16.2814
16.0581
15.3874
-2.50501
-2.52067
-2.52611
-2.53841
-2.61237
-2.62643
-2.635
-2.63651
-2.7383
-2.75053
-2.75466
-2.75784
-2.84324
-2.8433
-2.84038
-2.8354
-2.93357
-2.9363
-2.93953
-2.9434
-3.02112
-3.02447
-3.02836
-3.03229
-3.10602
-3.11295
-3.11938
-3.12509
-3.19614
-3.20448
-3.21226
-3.21932
-3.29109
-3.30016
-3.30868
-3.31651
-3.38942
-3.39876
-3.40764
-3.41593
-3.49044
-3.49976
-3.5087
-3.5172
-3.59346
-3.60258
-3.61141
-3.61992
-3.698
-3.70679
-3.71536
-3.72372
-3.80366
-3.81201
-3.82022
-3.82833
-3.91013
-3.918
-3.92577
-3.93351
-4.01722
-4.02454
-4.03181
-4.03911
-4.12479
-4.13154
-4.13825
-4.14505
-4.23275
-4.23889
-4.24503
-4.25127
-4.34106
-4.3466
-4.35213
-4.35778
-4.44971
-4.45463
-4.45956
-4.46461
-4.55871
-4.56305
-4.56737
-4.57181
-4.6681
-4.67186
-4.6756
-4.67945
-4.77791
-4.78112
-4.7843
-4.78757
-4.88816
-4.89084
-4.89351
-4.89624
-4.99889
-5.00108
-5.00326
-5.00549
-5.11009
-5.11183
-5.11356
-5.11533
-5.22177
-5.2231
-5.22442
-5.22578
-5.33391
-5.33485
-5.3358
-5.3368
-5.44648
-5.44706
-5.44767
-5.44833
-5.55947
-5.55972
-5.56003
-5.56045
-5.67259
-5.67247
-5.67239
-5.67238
745.195
576.63
448.333
414.036
411.674
409.347
395.461
337.309
414.516
433.692
440.3
426.059
386.82
308.149
360.202
450.721
517.442
563.908
602.414
775.523
582.394
477.394
437.914
399.139
379.431
237.599
175.288
217.41
255.205
252.313
189.109
102.858
33.0899
133.974
277.696
380.777
445.737
492.512
355.659
366.679
386.171
373.953
320.302
135.815
38.9992
96.6676
100.901
128.614
100.546
24.5116
5.96787
6.23587
13.119
115.161
244.005
320.691
371.119
275.127
164.92
54.3519
130.208
192.122
142.12
39.807
25.3313
51.7931
50.2292
18.2337
1.77034
1.06214
1.97676
2.72307
9.34321
133.695
211.531
258.804
80.0677
160.63
160.116
96.7776
22.3371
-5.37237
10.7703
16.7208
14.5307
8.24814
0.729314
-0.131598
0.473572
1.03064
1.18699
2.78643
56.1825
131.433
170.379
-38.1753
-64.173
-48.5324
-37.1535
-16.3291
-10.0094
-10.3226
-6.40715
-2.17674
0.0476609
-1.33124
-0.868408
-0.315065
0.173494
0.145103
-0.787097
0.548638
79.7012
108.228
33.0476
13.131
5.1228
0.538578
-6.82498
-9.02262
-9.41481
-4.90195
-0.107759
-1.89523
-1.5429
-1.28985
-0.938392
-0.563791
-0.344651
-0.56822
0.382801
50.1722
67.903
75.083
59.892
38.1596
22.0989
6.2023
-1.88782
-1.06682
-0.233636
-2.21188
-1.93601
-1.81221
-1.6163
-1.35642
-1.07644
-0.81053
-0.913794
1.19132
27.4417
41.5115
61.6718
49.3851
32.8105
15.2226
4.28802
6.48917
-0.491192
-2.35111
-2.18803
-2.12858
-2.04084
-1.88511
-1.67929
-1.48818
-1.30355
-1.55039
-0.883362
7.90485
23.3611
30.8096
24.6223
17.223
13.6586
4.69997
-2.4069
-2.43571
-2.375
-2.35098
-2.30033
-2.20916
-2.08459
-1.93286
-1.8145
-1.76678
-2.03183
-2.5075
-2.32988
12.3037
13.1842
8.81401
2.03314
-2.48786
-2.5452
-2.47574
-2.5078
-2.48761
-2.45778
-2.40834
-2.33726
-2.24879
-2.14924
-2.07498
-2.09891
-2.16671
-2.21396
-2.14335
7.12815
-2.55913
-2.57016
-2.5813
-2.56847
-2.60579
-2.5941
-2.5881
-2.58003
-2.55173
-2.51236
-2.4636
-2.40593
-2.34566
-2.28628
-2.2913
-2.25727
-2.22618
-2.73889
4.2197
-2.64427
-2.65651
-2.66724
-2.66407
-2.67221
-2.68466
-2.68403
-2.675
-2.65601
-2.62909
-2.59586
-2.56016
-2.52572
-2.47427
-2.46896
-2.40308
-2.26617
-2.39862
3.04244
-2.76131
-2.75719
-2.7578
-2.76706
-2.77578
-2.7814
-2.78258
-2.77739
-2.7654
-2.74824
-2.72758
-2.70524
-2.68243
-2.64353
-2.64596
-2.56426
-2.2591
-1.74419
3.05099
-2.8405
-2.85344
-2.8616
-2.8689
-2.8771
-2.8834
-2.88622
-2.88465
-2.87856
-2.8691
-2.85728
-2.84248
-2.82392
-2.80417
-2.81045
-2.75752
-2.48421
-0.6493
2.99273
-2.94628
-2.95293
-2.96173
-2.97095
-2.98005
-2.98772
-2.99296
-2.99517
-2.99437
-2.99133
-2.9865
-2.9774
-2.96166
-2.96207
-2.9519
-2.90235
-3.05083
0.0512467
1.13499
-3.03937
-3.05096
-3.06235
-3.07359
-3.08431
-3.0939
-3.10185
-3.10787
-3.11204
-3.11495
-3.11685
-3.11503
-3.10803
-3.13279
-3.10233
-3.1135
-3.59336
-4.69419
-2.84315
-3.13469
-3.14933
-3.16321
-3.17656
-3.18928
-3.20117
-3.21204
-3.22185
-3.23083
-3.23952
-3.24852
-3.25692
-3.26758
-3.3177
-3.28625
-3.40501
-3.65937
-3.55703
-2.02372
-3.23121
-3.24849
-3.2646
-3.27999
-3.29479
-3.30905
-3.32286
-3.33636
-3.34993
-3.3642
-3.38014
-3.3987
-3.42473
-3.47451
-3.46124
-3.5154
-3.6427
-3.66469
-1.80179
-3.32968
-3.34874
-3.36663
-3.38382
-3.40057
-3.41712
-3.43373
-3.45073
-3.46861
-3.48816
-3.51048
-3.53762
-3.57223
-3.61626
-3.61851
-3.63347
-3.72716
-3.79271
-1.29172
-3.42989
-3.45007
-3.46926
-3.4879
-3.50635
-3.52496
-3.54413
-3.56433
-3.58618
-3.61055
-3.6386
-3.67195
-3.71073
-3.74965
-3.75552
-3.77586
-3.82741
-3.86253
-0.853563
-3.53153
-3.5523
-3.57233
-3.59205
-3.61186
-3.63221
-3.6536
-3.67661
-3.70202
-3.73081
-3.76417
-3.80272
-3.84445
-3.8801
-3.88481
-3.94702
-3.95861
-4.00479
-1.11763
-3.63431
-3.6552
-3.67566
-3.69606
-3.71684
-3.73851
-3.76166
-3.78701
-3.81549
-3.84833
-3.88688
-3.93173
-3.98009
-4.02095
-4.03705
-4.12588
-4.02412
-4.38752
-4.19202
-3.7379
-3.75856
-3.77905
-3.79973
-3.82105
-3.84355
-3.86792
-3.89501
-3.92596
-3.96231
-4.00586
-4.05776
-4.11563
-4.17253
-4.21844
-4.26589
-4.2473
-4.76598
-0.807148
-3.84209
-3.86219
-3.88234
-3.90288
-3.92427
-3.94709
-3.97207
-4.00021
-4.0329
-4.07199
-4.11986
-4.17825
-4.24515
-4.3179
-4.40896
-4.52955
-4.56574
-4.56808
0.203327
-3.94669
-3.96595
-3.98542
-4.00542
-4.02639
-4.04895
-4.07386
-4.10221
-4.13562
-4.17635
-4.22741
-4.29182
-4.36953
-4.45709
-4.57101
-4.77804
-4.56987
-4.48671
-5.80102
-4.05156
-4.06974
-4.08822
-4.10729
-4.12738
-4.14907
-4.17317
-4.20065
-4.23339
-4.27378
-4.32539
-4.39229
-4.47899
-4.58612
-4.73992
-5.00456
-4.69148
-4.68618
-9.77401
-4.15665
-4.17353
-4.19075
-4.20853
-4.22728
-4.24754
-4.27013
-4.29531
-4.3256
-4.36347
-4.41237
-4.47726
-4.56604
-4.68956
-4.88073
-5.13892
-4.88052
-5.56932
-1.57848
-4.26193
-4.27736
-4.29309
-4.30929
-4.32626
-4.34451
-4.36385
-4.38656
-4.41313
-4.44586
-4.48784
-4.5434
-4.62087
-4.74207
-4.94449
-5.2023
-5.25722
-6.68021
7.57831
-4.36743
-4.3813
-4.39538
-4.40977
-4.42461
-4.44002
-4.45686
-4.47553
-4.49689
-4.52225
-4.55337
-4.5925
-4.64458
-4.73038
-4.86486
-5.13064
-5.61042
-7.99793
11.8733
-4.47322
-4.48547
-4.49781
-4.51027
-4.52287
-4.53567
-4.54903
-4.56321
-4.57849
-4.59515
-4.61315
-4.63197
-4.64982
-4.67109
-4.71882
-4.90539
-5.04173
-4.60345
1.65364
-4.57937
-4.58999
-4.60057
-4.61106
-4.62134
-4.63139
-4.64126
-4.65088
-4.66002
-4.66803
-4.67348
-4.67337
-4.66235
-4.63187
-4.58054
-4.5436
-4.31534
-3.09618
-2.31616
-4.68597
-4.69501
-4.70387
-4.71241
-4.72044
-4.72784
-4.73443
-4.73985
-4.74346
-4.74406
-4.73943
-4.72575
-4.69671
-4.64342
-4.55345
-4.42455
-4.22057
-3.44726
-2.8775
-4.7931
-4.80062
-4.80786
-4.81457
-4.82055
-4.82558
-4.8293
-4.83118
-4.83034
-4.82533
-4.81378
-4.79196
-4.75434
-4.69329
-4.59917
-4.45839
-4.26289
-4.01842
-3.53163
-4.90083
-4.90696
-4.91269
-4.91778
-4.92198
-4.92501
-4.92642
-4.92559
-4.92156
-4.91289
-4.89739
-4.87194
-4.83228
-4.77301
-4.68794
-4.57025
-4.41479
-4.23514
-4.12529
-5.00922
-5.01408
-5.01849
-5.02218
-5.02492
-5.02638
-5.02609
-5.02342
-5.01746
-5.0069
-4.98993
-4.96417
-4.92663
-4.87391
-4.80265
-4.71025
-4.59591
-4.46382
-4.36701
-5.11828
-5.12202
-5.12529
-5.12784
-5.12946
-5.12979
-5.12841
-5.12473
-5.11794
-5.10697
-5.09042
-5.06659
-5.03355
-4.98941
-4.93282
-4.86371
-4.7849
-4.70495
-4.65426
-5.22802
-5.23079
-5.2331
-5.23478
-5.23558
-5.23521
-5.23329
-5.2293
-5.22261
-5.21237
-5.19758
-5.17708
-5.14974
-5.11466
-5.07163
-5.02184
-4.96888
-4.92013
-4.89147
-5.33843
-5.34036
-5.3419
-5.34291
-5.3432
-5.34249
-5.34049
-5.33679
-5.3309
-5.32223
-5.31008
-5.29373
-5.27256
-5.24624
-5.21509
-5.18055
-5.14571
-5.11557
-5.09832
-5.44945
-5.45065
-5.45159
-5.45214
-5.45214
-5.4514
-5.44968
-5.44672
-5.44216
-5.43562
-5.42666
-5.41487
-5.39995
-5.38183
-5.36095
-5.33851
-5.31672
-5.29865
-5.28838
-5.56121
-5.56166
-5.56206
-5.56229
-5.56219
-5.56163
-5.56048
-5.55857
-5.5557
-5.55165
-5.54621
-5.53916
-5.53038
-5.51991
-5.50806
-5.49558
-5.48376
-5.47416
-5.46875
-5.67237
-5.67274
-5.67297
-5.67307
-5.67303
-5.67283
-5.67243
-5.67178
-5.67082
-5.6695
-5.66774
-5.66551
-5.66277
-5.65954
-5.65594
-5.65218
-5.64865
-5.64579
-5.64415
)
;

boundaryField
{
    leftWall
    {
        type            calculated;
        value           nonuniform List<scalar> 
50
(
6828.2
6022.17
5210.53
4392.69
3568.7
2736.39
1906.83
1282.41
973.654
812.044
675.183
536.443
395.305
250.774
106.956
18.26
-1.20187
-1.34428
-1.49049
-1.64058
-1.79358
-1.94745
-2.10047
-2.25153
-2.40015
-2.54623
-2.68988
-2.83132
-2.97076
-3.10844
-3.24456
-3.3793
-3.51282
-3.64526
-3.77674
-3.90736
-4.03721
-4.16637
-4.29492
-4.42292
-4.55043
-4.67752
-4.80424
-4.93064
-5.05679
-5.18272
-5.30849
-5.43411
-5.55967
-5.68526
)
;
    }
    rightWall
    {
        type            calculated;
        value           nonuniform List<scalar> 
50
(
907.461
881.699
856.017
828.616
797.028
761.172
721.091
676.13
602.414
492.512
371.119
258.804
170.379
108.228
67.903
41.5115
23.3611
12.3037
7.12815
4.2197
3.04244
3.05099
2.99273
1.13499
-2.84315
-2.02372
-1.80179
-1.29172
-0.853563
-1.11763
-4.19202
-0.807148
0.203327
-5.80102
-9.77401
-1.57848
7.57831
11.8733
1.65364
-2.31616
-2.8775
-3.53163
-4.12529
-4.36701
-4.65426
-4.89147
-5.09832
-5.28838
-5.46875
-5.64415
)
;
    }
    lowerWall
    {
        type            calculated;
        value           nonuniform List<scalar> 
62
(
7226.35
7228.38
7206.39
7167.95
7114.59
7046.3
6963.87
6869.2
6764.8
6654.1
6542.13
6436.6
6348.75
6294.79
6297.94
6390.65
6613.89
7008.5
7591.17
8322.03
9101.69
9783.85
10374.3
9976.3
9193.41
8346.37
7453.45
6519.55
5532.75
4477.19
3343.41
735.999
1233.06
643.559
669.932
977.25
939.272
886.871
829.754
778.537
740.657
721.152
721.887
991.964
848.847
742.385
670.908
645.44
666.031
735.393
843.159
940.033
990.767
999.111
970.008
929.936
902.407
895.681
904.914
917.909
918.662
920.045
)
;
    }
    atmosphere
    {
        type            calculated;
        value           nonuniform List<scalar> 
46
(
-5.74808
-5.74863
-5.74848
-5.74823
-5.74786
-5.74738
-5.74679
-5.7461
-5.74532
-5.74445
-5.7435
-5.74248
-5.74139
-5.74025
-5.73907
-5.73786
-5.73664
-5.73542
-5.73422
-5.73306
-5.73195
-5.73091
-5.73
-5.72942
-5.72921
-5.72909
-5.72904
-5.72904
-5.72904
-5.72904
-5.72904
-5.72904
-5.72904
-5.72904
-5.72904
-5.72904
-5.72904
-5.72904
-5.72904
-5.72904
-5.72904
-5.72904
-5.72904
-5.72904
-5.72904
-5.72904
)
;
    }
    defaultFaces
    {
        type            empty;
    }
}


// ************************************************************************* //
