/*--------------------------------*- C++ -*----------------------------------*\
| =========                 |                                                 |
| \\      /  F ield         | OpenFOAM: The Open Source CFD Toolbox           |
|  \\    /   O peration     | Version:  2312                                  |
|   \\  /    A nd           | Website:  www.openfoam.com                      |
|    \\/     M anipulation  |                                                 |
\*---------------------------------------------------------------------------*/
FoamFile
{
    version     2.0;
    format      ascii;
    arch        "LSB;label=32;scalar=64";
    class       surfaceScalarField;
    location    "0.35";
    object      phi;
}
// * * * * * * * * * * * * * * * * * * * * * * * * * * * * * * * * * * * * * //

dimensions      [0 3 -1 0 0 0 0];

oriented        oriented;

internalField   nonuniform List<scalar> 
4432
(
3.57448e-06
-3.57447e-06
7.15486e-06
-3.58038e-06
1.07139e-05
-3.559e-06
1.42766e-05
-3.56271e-06
1.78405e-05
-3.56395e-06
2.13978e-05
-3.55727e-06
2.49408e-05
-3.54301e-06
2.84578e-05
-3.51699e-06
3.19289e-05
-3.47106e-06
3.53217e-05
-3.39283e-06
3.85845e-05
-3.26275e-06
4.16387e-05
-3.05421e-06
4.43676e-05
-2.72891e-06
4.65967e-05
-2.2291e-06
4.80689e-05
-1.47219e-06
4.8421e-05
-3.52088e-07
4.72082e-05
1.2128e-06
4.40456e-05
3.16258e-06
3.88199e-05
5.22565e-06
3.17297e-05
7.09023e-06
2.31804e-05
8.54929e-06
1.29555e-05
1.02249e-05
1.29555e-05
3.58407e-06
-7.15854e-06
7.1574e-06
-7.15371e-06
1.07243e-05
-7.12594e-06
1.42924e-05
-7.13077e-06
1.78592e-05
-7.13076e-06
2.14201e-05
-7.11808e-06
2.49682e-05
-7.09113e-06
2.84924e-05
-7.04117e-06
3.1974e-05
-6.95264e-06
3.53825e-05
-6.80138e-06
3.86677e-05
-6.54794e-06
4.17529e-05
-6.13939e-06
4.45248e-05
-5.50084e-06
4.68132e-05
-4.51749e-06
4.83647e-05
-3.02369e-06
4.88012e-05
-7.88555e-07
4.76329e-05
2.38102e-06
4.44302e-05
6.36527e-06
3.90675e-05
1.05883e-05
3.17581e-05
1.43997e-05
2.2862e-05
1.74453e-05
1.23708e-05
2.07161e-05
2.53262e-05
3.58251e-06
-1.0741e-05
7.14977e-06
-1.0721e-05
1.07201e-05
-1.06963e-05
1.42911e-05
-1.07018e-05
1.78597e-05
-1.06993e-05
2.14238e-05
-1.06822e-05
2.49782e-05
-1.06455e-05
2.85128e-05
-1.05758e-05
3.20113e-05
-1.04512e-05
3.54468e-05
-1.02368e-05
3.87711e-05
-9.87225e-06
4.191e-05
-9.27827e-06
4.47577e-05
-8.34856e-06
4.71543e-05
-6.91407e-06
4.88595e-05
-4.72891e-06
4.94763e-05
-1.4054e-06
4.84329e-05
3.42444e-06
4.51964e-05
9.60178e-06
3.9653e-05
1.61318e-05
3.20834e-05
2.19693e-05
2.29178e-05
2.66109e-05
1.22683e-05
3.13657e-05
3.75945e-05
3.58265e-06
-1.43237e-05
7.1454e-06
-1.42837e-05
1.07186e-05
-1.42695e-05
1.42928e-05
-1.42759e-05
1.78642e-05
-1.42708e-05
2.14333e-05
-1.42513e-05
2.49963e-05
-1.42085e-05
2.85441e-05
-1.41236e-05
3.20631e-05
-1.39702e-05
3.55303e-05
-1.37039e-05
3.8898e-05
-1.324e-05
4.20945e-05
-1.24747e-05
4.50268e-05
-1.12809e-05
4.75544e-05
-9.4416e-06
4.94758e-05
-6.6503e-06
5.04254e-05
-2.3551e-06
4.96152e-05
4.23471e-06
4.63412e-05
1.28757e-05
4.05431e-05
2.19299e-05
3.26546e-05
2.98577e-05
2.32669e-05
3.59987e-05
1.25051e-05
4.21275e-05
5.00995e-05
3.58025e-06
-1.79039e-05
7.13415e-06
-1.78376e-05
1.07068e-05
-1.78421e-05
1.42794e-05
-1.78485e-05
1.78479e-05
-1.78392e-05
2.1415e-05
-1.78185e-05
2.49768e-05
-1.77703e-05
2.85238e-05
-1.76706e-05
3.20442e-05
-1.74906e-05
3.55182e-05
-1.71779e-05
3.88917e-05
-1.66134e-05
4.20922e-05
-1.56752e-05
4.50531e-05
-1.42418e-05
4.76697e-05
-1.20583e-05
4.97848e-05
-8.76536e-06
5.10626e-05
-3.6329e-06
5.08142e-05
4.48314e-06
4.75589e-05
1.6131e-05
4.15348e-05
2.7954e-05
3.33244e-05
3.80681e-05
2.37924e-05
4.55306e-05
1.29966e-05
5.29234e-05
6.30961e-05
3.56586e-06
-2.14698e-05
7.09602e-06
-2.13678e-05
1.06535e-05
-2.13996e-05
1.42065e-05
-2.14015e-05
1.77497e-05
-2.13825e-05
2.12878e-05
-2.13566e-05
2.48143e-05
-2.12967e-05
2.83156e-05
-2.1172e-05
3.17798e-05
-2.09547e-05
3.51873e-05
-2.05855e-05
3.84515e-05
-1.98776e-05
4.1507e-05
-1.87308e-05
4.43335e-05
-1.70683e-05
4.68855e-05
-1.46102e-05
4.92247e-05
-1.11045e-05
5.09733e-05
-5.38151e-06
5.0929e-05
4.52741e-06
4.77535e-05
1.93064e-05
4.11942e-05
3.45134e-05
3.28615e-05
4.64009e-05
2.36829e-05
5.47093e-05
1.34225e-05
6.31837e-05
7.65186e-05
3.53195e-06
-2.50018e-05
7.00876e-06
-2.48446e-05
1.05208e-05
-2.49116e-05
1.40169e-05
-2.48976e-05
1.74907e-05
-2.48562e-05
2.0948e-05
-2.48139e-05
2.43732e-05
-2.47219e-05
2.7747e-05
-2.45458e-05
3.10536e-05
-2.42613e-05
3.42882e-05
-2.38201e-05
3.73064e-05
-2.28958e-05
4.00523e-05
-2.14767e-05
4.23209e-05
-1.93369e-05
4.38341e-05
-1.61234e-05
4.45358e-05
-1.18062e-05
4.38629e-05
-4.70868e-06
4.30046e-05
5.38576e-06
4.18844e-05
2.04267e-05
3.60764e-05
4.03214e-05
2.91688e-05
5.33084e-05
2.19066e-05
6.19714e-05
1.35204e-05
7.157e-05
9.0039e-05
3.47142e-06
-2.84732e-05
6.86751e-06
-2.82407e-05
1.03105e-05
-2.83546e-05
1.37163e-05
-2.83034e-05
1.70746e-05
-2.82144e-05
2.03973e-05
-2.81367e-05
2.36508e-05
-2.79754e-05
2.6739e-05
-2.76339e-05
2.94511e-05
-2.69734e-05
3.13156e-05
-2.56846e-05
3.20439e-05
-2.36241e-05
3.23653e-05
-2.17981e-05
3.24608e-05
-1.94323e-05
3.23437e-05
-1.60063e-05
3.17179e-05
-1.11805e-05
3.08439e-05
-3.83464e-06
3.05644e-05
5.6653e-06
3.1181e-05
1.981e-05
2.84529e-05
4.30495e-05
2.33635e-05
5.83978e-05
1.8973e-05
6.63619e-05
1.37741e-05
7.67688e-05
0.000103813
-4.03867e-05
4.03867e-05
-6.55712e-05
2.51844e-05
-7.96695e-05
1.40984e-05
-8.52118e-05
5.54229e-06
-8.35944e-05
-1.61744e-06
-7.63435e-05
-7.25088e-06
-6.28841e-05
-1.34594e-05
-4.14786e-05
-2.14054e-05
-1.25841e-05
-2.88945e-05
1.52505e-05
-2.78346e-05
3.56537e-05
-2.04031e-05
4.7581e-05
-1.19273e-05
5.09829e-05
-3.40179e-06
4.68302e-05
4.15277e-06
3.72494e-05
9.58082e-06
2.49649e-05
1.22845e-05
1.16011e-05
1.33639e-05
-7.99139e-07
1.24003e-05
-7.99107e-07
-3.33403e-05
7.3727e-05
-5.59562e-05
4.78003e-05
-6.9739e-05
2.78812e-05
-7.50362e-05
1.08394e-05
-7.30633e-05
-3.59024e-06
-6.56061e-05
-1.47081e-05
-5.20632e-05
-2.70021e-05
-3.05067e-05
-4.29617e-05
-3.01473e-06
-5.63863e-05
2.19884e-05
-5.28376e-05
4.11515e-05
-3.95661e-05
5.31147e-05
-2.38905e-05
5.6668e-05
-6.95501e-06
5.25104e-05
8.31046e-06
4.28172e-05
1.92741e-05
3.03491e-05
2.47527e-05
1.75124e-05
2.62006e-05
5.98846e-06
2.39242e-05
5.18942e-06
-2.70536e-05
0.000100781
-4.67082e-05
6.74549e-05
-5.9656e-05
4.0829e-05
-6.40074e-05
1.51908e-05
-6.08253e-05
-6.77232e-06
-5.2898e-05
-2.26353e-05
-3.94157e-05
-4.04843e-05
-1.76202e-05
-6.47572e-05
7.20973e-06
-8.12162e-05
2.90407e-05
-7.46685e-05
4.73798e-05
-5.79052e-05
5.92251e-05
-3.57357e-05
6.27764e-05
-1.05063e-05
5.83217e-05
1.27652e-05
4.82754e-05
2.93204e-05
3.55163e-05
3.75119e-05
2.22776e-05
3.94393e-05
1.06035e-05
3.55984e-05
1.57929e-05
-2.08582e-05
0.000121639
-3.69614e-05
8.35581e-05
-4.87794e-05
5.2647e-05
-5.14513e-05
1.78626e-05
-4.63974e-05
-1.18261e-05
-3.78201e-05
-3.12126e-05
-2.44668e-05
-5.38375e-05
-3.51772e-06
-8.57061e-05
1.87473e-05
-0.000103481
3.79229e-05
-9.38441e-05
5.48242e-05
-7.48066e-05
6.62572e-05
-4.71687e-05
6.94252e-05
-1.36743e-05
6.42452e-05
1.79452e-05
5.34856e-05
4.008e-05
4.01863e-05
5.08112e-05
2.6366e-05
5.32596e-05
1.34058e-05
4.85586e-05
2.91988e-05
-1.42539e-05
0.000135893
-2.63509e-05
9.56551e-05
-3.7479e-05
6.37751e-05
-3.82763e-05
1.86599e-05
-3.16937e-05
-1.84087e-05
-2.20603e-05
-4.08461e-05
-7.65601e-06
-6.82417e-05
1.14851e-05
-0.000104847
3.13958e-05
-0.000123392
4.82696e-05
-0.000110718
6.33298e-05
-8.98668e-05
7.41497e-05
-5.79886e-05
7.66531e-05
-1.61776e-05
7.02659e-05
2.43324e-05
5.83996e-05
5.19464e-05
4.43152e-05
6.48956e-05
2.9714e-05
6.78608e-05
1.53695e-05
6.29031e-05
4.45683e-05
-6.99288e-06
0.000142886
-1.48419e-05
0.000103504
-2.58019e-05
7.47352e-05
-2.8726e-05
2.15838e-05
-2.26262e-05
-2.45085e-05
-1.07053e-05
-5.27671e-05
6.43889e-06
-8.5386e-05
2.72456e-05
-0.000125654
4.5923e-05
-0.000142069
5.94659e-05
-0.000124261
7.23244e-05
-0.000102725
8.26667e-05
-6.83309e-05
8.43532e-05
-1.78642e-05
7.62353e-05
3.24502e-05
6.29066e-05
6.52751e-05
4.78541e-05
7.99481e-05
3.23625e-05
8.33524e-05
1.68698e-05
7.83959e-05
6.14381e-05
8.28379e-07
0.000142057
-3.27007e-06
0.000107602
-8.12858e-09
7.14732e-05
-7.07903e-06
2.86546e-05
-1.35834e-05
-1.80042e-05
-5.24581e-06
-6.1105e-05
2.47031e-05
-0.000115335
5.29413e-05
-0.000153892
6.22499e-05
-0.000151378
7.00845e-05
-0.000132096
8.08566e-05
-0.000113497
9.10957e-05
-7.85702e-05
9.22299e-05
-1.89986e-05
8.17199e-05
4.296e-05
6.67204e-05
8.02746e-05
5.06539e-05
9.60145e-05
3.43331e-05
9.96731e-05
1.79585e-05
9.47704e-05
7.93966e-05
1.19621e-05
0.000130095
1.77631e-05
0.000101801
3.09953e-05
5.8241e-05
3.25962e-05
2.70536e-05
2.06249e-05
-6.03339e-06
2.48458e-05
-6.53271e-05
6.46577e-05
-0.000155147
6.87749e-05
-0.00015801
7.20017e-05
-0.000154605
7.76514e-05
-0.000137745
8.81966e-05
-0.000124043
9.83691e-05
-8.87427e-05
9.99363e-05
-2.05659e-05
8.59923e-05
5.6904e-05
6.94173e-05
9.68495e-05
5.25363e-05
0.000112896
3.5605e-05
0.000116604
1.86962e-05
0.000111679
9.80927e-05
6.90316e-06
-3.53763e-05
1.38314e-05
-3.51689e-05
2.06532e-05
-3.51763e-05
2.72246e-05
-3.48749e-05
3.33841e-05
-3.43739e-05
3.88486e-05
-3.36011e-05
4.34474e-05
-3.25743e-05
4.72502e-05
-3.14366e-05
5.03439e-05
-3.00671e-05
5.30691e-05
-2.84098e-05
5.59446e-05
-2.64996e-05
5.86472e-05
-2.45007e-05
6.11781e-05
-2.19632e-05
6.33475e-05
-1.81757e-05
6.46226e-05
-1.24555e-05
6.48397e-05
-4.05171e-06
6.31206e-05
7.38437e-06
6.01598e-05
2.27708e-05
5.78139e-05
4.53955e-05
4.22065e-05
7.40052e-05
4.04644e-05
6.8104e-05
4.5386e-05
7.18473e-05
8.1386e-05
6.78131e-05
4.95618e-06
-4.03325e-05
9.97455e-06
-4.01873e-05
1.47353e-05
-3.9937e-05
1.92828e-05
-3.94224e-05
2.35801e-05
-3.86711e-05
2.76798e-05
-3.77008e-05
3.16615e-05
-3.65559e-05
3.55336e-05
-3.53087e-05
3.94465e-05
-3.398e-05
4.36248e-05
-3.2588e-05
4.82744e-05
-3.11491e-05
5.33152e-05
-2.95415e-05
5.86568e-05
-2.73047e-05
6.39502e-05
-2.34691e-05
6.84884e-05
-1.69937e-05
7.16877e-05
-7.25104e-06
7.30302e-05
6.04187e-06
7.27658e-05
2.30352e-05
7.28198e-05
4.53414e-05
7.3427e-05
7.3398e-05
5.51347e-05
8.63962e-05
5.58913e-05
7.10908e-05
7.06323e-05
6.6645e-05
4.89454e-06
-4.5227e-05
9.8153e-06
-4.5108e-05
1.46067e-05
-4.47284e-05
1.92595e-05
-4.40751e-05
2.37604e-05
-4.3172e-05
2.81212e-05
-4.20616e-05
3.23701e-05
-4.08047e-05
3.65479e-05
-3.94865e-05
4.07702e-05
-3.82022e-05
4.52426e-05
-3.70604e-05
5.02409e-05
-3.61474e-05
5.59249e-05
-3.52255e-05
6.22814e-05
-3.36612e-05
6.89247e-05
-3.01124e-05
7.51868e-05
-2.32558e-05
8.05759e-05
-1.26401e-05
8.49473e-05
1.67039e-06
8.83451e-05
1.96375e-05
9.25311e-05
4.11554e-05
9.84817e-05
6.74474e-05
9.76424e-05
8.72355e-05
7.81818e-05
9.05514e-05
7.27541e-05
7.60599e-05
5.22896e-06
-5.04559e-05
1.04285e-05
-5.03074e-05
1.55131e-05
-4.98129e-05
2.04456e-05
-4.90076e-05
2.51901e-05
-4.79165e-05
2.9723e-05
-4.65944e-05
3.404e-05
-4.51217e-05
3.81731e-05
-4.36196e-05
4.22315e-05
-4.22606e-05
4.64716e-05
-4.13006e-05
5.13327e-05
-4.10084e-05
5.71065e-05
-4.09993e-05
6.37968e-05
-4.03515e-05
7.10476e-05
-3.73631e-05
7.8223e-05
-3.04312e-05
8.5116e-05
-1.9533e-05
9.18468e-05
-5.06045e-06
9.86722e-05
1.28122e-05
0.000106491
3.33367e-05
0.000117528
5.64107e-05
0.000127315
7.74484e-05
0.000130572
8.72941e-05
8.53068e-05
0.000118019
5.5436e-06
-5.59995e-05
1.10374e-05
-5.58012e-05
1.64139e-05
-5.51894e-05
2.16125e-05
-5.42061e-05
2.65668e-05
-5.28707e-05
3.12119e-05
-5.12395e-05
3.54904e-05
-4.94001e-05
3.93773e-05
-4.75065e-05
4.29227e-05
-4.5806e-05
4.64194e-05
-4.47972e-05
5.05025e-05
-4.50916e-05
5.55248e-05
-4.60215e-05
6.14088e-05
-4.62355e-05
6.79863e-05
-4.39407e-05
7.47091e-05
-3.7154e-05
8.18323e-05
-2.66563e-05
8.94296e-05
-1.26577e-05
9.9209e-05
3.03276e-06
0.000109865
2.26808e-05
0.000123786
4.24895e-05
0.000139798
6.14361e-05
0.000152905
7.41874e-05
7.59415e-05
0.00016227
5.89018e-06
-6.18896e-05
1.16956e-05
-6.16066e-05
1.73861e-05
-6.08798e-05
2.28729e-05
-5.9693e-05
2.80511e-05
-5.80489e-05
3.27917e-05
-5.59802e-05
3.69326e-05
-5.3541e-05
4.03033e-05
-5.08771e-05
4.2787e-05
-4.82897e-05
4.46578e-05
-4.6668e-05
4.67745e-05
-4.72082e-05
4.94289e-05
-4.86759e-05
5.22697e-05
-4.90763e-05
5.56334e-05
-4.73044e-05
5.97031e-05
-4.12237e-05
6.57436e-05
-3.26968e-05
7.41723e-05
-2.10864e-05
8.58232e-05
-8.61814e-06
0.000100692
7.81173e-06
0.000116828
2.63534e-05
0.000134952
4.3313e-05
0.000153182
5.59568e-05
6.01073e-05
0.000169016
6.25514e-06
-6.81448e-05
1.23492e-05
-6.77006e-05
1.83296e-05
-6.68602e-05
2.41068e-05
-6.54702e-05
2.95517e-05
-6.34938e-05
3.44675e-05
-6.0896e-05
3.8522e-05
-5.75955e-05
4.12108e-05
-5.3566e-05
4.19314e-05
-4.90102e-05
4.0652e-05
-4.53887e-05
3.88123e-05
-4.53685e-05
3.65247e-05
-4.63883e-05
3.08782e-05
-4.34298e-05
2.57974e-05
-4.22236e-05
2.3569e-05
-3.89952e-05
2.63795e-05
-3.55073e-05
3.43379e-05
-2.90448e-05
4.77374e-05
-2.20176e-05
6.87407e-05
-1.31916e-05
9.34385e-05
1.65557e-06
0.000117248
1.95034e-05
0.00013882
3.43846e-05
4.16486e-05
0.000157279
6.54294e-06
-7.46878e-05
1.27055e-05
-7.38632e-05
1.89018e-05
-7.30565e-05
2.48866e-05
-7.14549e-05
3.0583e-05
-6.91901e-05
3.57684e-05
-6.60811e-05
3.99781e-05
-6.1805e-05
4.23071e-05
-5.58944e-05
4.10653e-05
-4.77682e-05
3.41872e-05
-3.85105e-05
2.47628e-05
-3.5944e-05
9.91358e-06
-3.15391e-05
-3.39465e-06
-3.01215e-05
-1.22201e-05
-3.33982e-05
-1.24813e-05
-3.87339e-05
-8.0716e-06
-3.9917e-05
-3.95258e-07
-3.67212e-05
9.92965e-06
-3.23425e-05
2.54327e-05
-2.86946e-05
4.93805e-05
-2.22923e-05
7.82939e-05
-9.41001e-06
0.000107242
5.43672e-06
1.64316e-05
0.000132459
3.69691e-06
-7.83856e-05
6.81412e-06
-7.69813e-05
9.12613e-06
-7.53693e-05
1.00828e-05
-7.24122e-05
7.98242e-06
-6.70903e-05
-1.14005e-06
-5.69589e-05
-2.11064e-05
-4.18386e-05
-4.53371e-05
-3.16635e-05
-4.98921e-05
-4.32129e-05
-3.22592e-05
-5.61431e-05
-2.55555e-05
-4.26477e-05
-2.88439e-05
-2.82506e-05
-2.37866e-05
-3.51789e-05
-3.05888e-05
-2.65961e-05
-2.92713e-05
-4.00515e-05
-2.19237e-05
-4.72646e-05
-1.16669e-05
-4.69779e-05
-4.44839e-07
-4.35646e-05
1.06677e-05
-3.98071e-05
2.35396e-05
-3.51643e-05
4.26322e-05
-2.85026e-05
6.70882e-05
-1.90193e-05
-9.52515e-06
9.3045e-05
-1.61007e-06
-7.67761e-05
-3.45673e-06
-7.51356e-05
-6.94712e-06
-7.188e-05
-1.41348e-05
-6.52257e-05
-2.91532e-05
-5.20728e-05
-5.80189e-05
-2.80939e-05
-9.29282e-05
-6.92994e-06
-9.76321e-05
-2.69603e-05
-7.29075e-05
-6.79377e-05
-6.22209e-05
-6.68297e-05
-4.46621e-05
-6.02065e-05
-1.87435e-05
-5.41694e-05
-1.52701e-05
-3.86528e-05
-4.23588e-05
4.92003e-07
-4.30425e-05
-3.9368e-05
-2.83899e-05
-6.19174e-05
-1.30618e-05
-6.23062e-05
4.50868e-07
-5.70775e-05
1.22381e-05
-5.15946e-05
2.32663e-05
-4.61924e-05
3.51211e-05
-4.03575e-05
4.99226e-05
-3.38207e-05
-2.80475e-05
6.8445e-05
-4.1529e-06
-7.26244e-05
-8.23031e-06
-7.10592e-05
-1.37255e-05
-6.63858e-05
-2.16422e-05
-5.73099e-05
-3.33155e-05
-4.04004e-05
-4.78849e-05
-1.35253e-05
-6.17444e-05
6.92893e-06
-5.93687e-05
-2.93361e-05
-5.42736e-05
-7.3033e-05
-3.86669e-05
-8.24366e-05
-2.19056e-05
-7.69682e-05
5.72896e-06
-8.18045e-05
8.83553e-06
-4.17601e-05
2.33368e-05
-1.40101e-05
3.01168e-05
-4.61488e-05
2.22375e-05
-5.40389e-05
1.34066e-05
-5.34764e-05
4.19518e-06
-4.78672e-05
8.45906e-07
-4.82462e-05
1.69225e-05
-6.22693e-05
3.46299e-05
-5.80649e-05
5.01931e-05
-4.93836e-05
-4.20496e-05
6.41956e-05
-4.6833e-06
-6.79414e-05
-9.03791e-06
-6.67052e-05
-1.36892e-05
-6.17354e-05
-1.79424e-05
-5.30576e-05
-1.9668e-05
-3.86758e-05
-1.60009e-05
-1.71932e-05
-9.81747e-06
7.44717e-07
-1.53179e-05
-2.38361e-05
-1.92203e-05
-6.91311e-05
-1.66507e-05
-8.50067e-05
-9.75629e-06
-8.38632e-05
-4.18009e-06
-8.73812e-05
1.23947e-05
-5.83354e-05
4.58137e-05
-4.74296e-05
5.77973e-05
-5.8133e-05
6.78128e-05
-6.40552e-05
7.83334e-05
-6.39978e-05
9.14053e-05
-6.09401e-05
0.000101928
-5.87694e-05
9.90113e-05
-5.93539e-05
9.55413e-05
-5.45956e-05
9.35859e-05
-4.74287e-05
-4.55783e-05
9.71147e-05
-4.18513e-06
-6.37571e-05
-7.7487e-06
-6.31423e-05
-1.06715e-05
-5.88133e-05
-1.1602e-05
-5.21278e-05
-7.4099e-06
-4.28687e-05
7.47039e-06
-3.20744e-05
3.05621e-05
-2.23478e-05
3.46786e-05
-2.79533e-05
2.18295e-05
-5.62825e-05
1.2719e-05
-7.58966e-05
9.13182e-06
-8.02763e-05
6.43159e-06
-8.46813e-05
1.96868e-05
-7.1591e-05
4.00246e-05
-6.77678e-05
5.30654e-05
-7.11743e-05
6.37216e-05
-7.47119e-05
7.48208e-05
-7.50977e-05
8.68094e-05
-7.29292e-05
9.74862e-05
-6.94469e-05
0.000103963
-6.5831e-05
0.000110754
-6.13874e-05
0.000118169
-5.48448e-05
-4.82625e-05
0.000120853
-3.26907e-06
-6.0488e-05
-5.80791e-06
-6.06039e-05
-7.38105e-06
-5.72407e-05
-6.93781e-06
-5.25716e-05
-2.80429e-06
-4.70028e-05
6.7554e-06
-4.16347e-05
2.2858e-05
-3.8451e-05
3.59467e-05
-4.10424e-05
3.37395e-05
-5.40757e-05
2.56598e-05
-6.78172e-05
2.08724e-05
-7.5489e-05
1.66742e-05
-8.04832e-05
2.30493e-05
-7.79662e-05
3.30786e-05
-7.77972e-05
4.22883e-05
-8.03843e-05
5.04556e-05
-8.28795e-05
5.84632e-05
-8.31056e-05
6.61023e-05
-8.05687e-05
7.23418e-05
-7.56867e-05
7.6361e-05
-6.98506e-05
8.06707e-05
-6.56974e-05
8.46254e-05
-5.87999e-05
-4.9045e-05
8.54083e-05
-2.3691e-06
-5.81197e-05
-4.0484e-06
-5.8925e-05
-4.787e-06
-5.65025e-05
-3.91655e-06
-5.34425e-05
-6.77278e-07
-5.02426e-05
5.39048e-06
-4.77029e-05
1.39318e-05
-4.69928e-05
2.23858e-05
-4.94968e-05
2.49669e-05
-5.6657e-05
2.27175e-05
-6.5568e-05
1.99976e-05
-7.27692e-05
1.75994e-05
-7.8085e-05
1.99163e-05
-8.02831e-05
2.4759e-05
-8.264e-05
3.0058e-05
-8.56834e-05
3.49475e-05
-8.77691e-05
3.92434e-05
-8.74017e-05
4.26065e-05
-8.3932e-05
4.43547e-05
-7.74351e-05
4.40026e-05
-6.9499e-05
4.46334e-05
-6.63284e-05
4.34952e-05
-5.76614e-05
-4.66801e-05
4.11305e-05
-1.67286e-06
-5.64465e-05
-2.78125e-06
-5.78167e-05
-3.11928e-06
-5.61647e-05
-2.29763e-06
-5.42645e-05
-5.15446e-09
-5.25354e-05
3.80494e-06
-5.15134e-05
8.68e-06
-5.18682e-05
1.34328e-05
-5.42499e-05
1.58151e-05
-5.90394e-05
1.55703e-05
-6.53233e-05
1.42536e-05
-7.14525e-05
1.28515e-05
-7.66829e-05
1.32233e-05
-8.06549e-05
1.49049e-05
-8.43215e-05
1.67578e-05
-8.75362e-05
1.80604e-05
-8.90717e-05
1.8413e-05
-8.77543e-05
1.76903e-05
-8.32094e-05
1.57941e-05
-7.5539e-05
1.29996e-05
-6.67046e-05
7.89246e-06
-6.12212e-05
6.3183e-07
-5.04013e-05
-3.3785e-05
-1.22626e-05
-1.22161e-06
-5.52254e-05
-2.01843e-06
-5.70201e-05
-2.23837e-06
-5.59449e-05
-1.66951e-06
-5.48336e-05
-2.04143e-07
-5.4001e-05
2.08324e-06
-5.3801e-05
4.83828e-06
-5.46234e-05
7.40334e-06
-5.68151e-05
8.82963e-06
-6.04657e-05
8.75262e-06
-6.52463e-05
7.67092e-06
-7.03707e-05
6.23913e-06
-7.5251e-05
5.199e-06
-7.96147e-05
4.3652e-06
-8.34876e-05
3.0633e-06
-8.62342e-05
7.82348e-07
-8.67907e-05
-2.52717e-06
-8.44448e-05
-6.76296e-06
-7.89736e-05
-1.15534e-05
-7.07486e-05
-1.67838e-05
-6.14744e-05
-2.61768e-05
-5.18285e-05
-3.71028e-05
-3.94746e-05
-2.44026e-05
-4.64852e-05
-9.66878e-07
-5.42581e-05
-1.63853e-06
-5.63485e-05
-1.90291e-06
-5.56807e-05
-1.65173e-06
-5.50849e-05
-8.65689e-07
-5.47872e-05
3.5169e-07
-5.50185e-05
1.74767e-06
-5.60195e-05
2.91125e-06
-5.79787e-05
3.39145e-06
-6.0946e-05
2.88659e-06
-6.47414e-05
1.47615e-06
-6.89602e-05
-5.81036e-07
-7.31936e-05
-2.97887e-06
-7.72167e-05
-5.91242e-06
-8.05539e-05
-9.73648e-06
-8.24101e-05
-1.46182e-05
-8.19089e-05
-2.04925e-05
-7.85705e-05
-2.70427e-05
-7.24233e-05
-3.37525e-05
-6.40388e-05
-4.07114e-05
-5.45155e-05
-4.81049e-05
-4.44349e-05
-5.3994e-05
-3.35861e-05
-2.3199e-05
-5.51967e-05
-8.58355e-07
-5.34003e-05
-1.52198e-06
-5.5685e-05
-1.90995e-06
-5.52928e-05
-1.97611e-06
-5.50188e-05
-1.73844e-06
-5.5025e-05
-1.29461e-06
-5.54624e-05
-8.35498e-07
-5.64787e-05
-6.32835e-07
-5.81814e-05
-9.88339e-07
-6.05904e-05
-2.12627e-06
-6.36034e-05
-4.09363e-06
-6.69927e-05
-6.80963e-06
-7.04775e-05
-1.03001e-05
-7.37261e-05
-1.46814e-05
-7.61724e-05
-2.00326e-05
-7.70587e-05
-2.62333e-05
-7.57081e-05
-3.29658e-05
-7.1838e-05
-3.97447e-05
-6.56443e-05
-4.60184e-05
-5.77652e-05
-5.14834e-05
-4.90506e-05
-5.5833e-05
-4.00854e-05
-5.81471e-05
-3.12711e-05
-2.35018e-05
-5.78441e-05
-8.38836e-07
-5.2561e-05
-1.5611e-06
-5.49626e-05
-2.10585e-06
-5.4748e-05
-2.46184e-06
-5.46629e-05
-2.6638e-06
-5.4823e-05
-2.7999e-06
-5.53264e-05
-3.01677e-06
-5.62618e-05
-3.50976e-06
-5.76884e-05
-4.49152e-06
-5.96086e-05
-6.14342e-06
-6.19513e-05
-8.57115e-06
-6.45648e-05
-1.18264e-05
-6.7222e-05
-1.59696e-05
-6.95827e-05
-2.1016e-05
-7.11258e-05
-2.68466e-05
-7.12279e-05
-3.31592e-05
-6.93954e-05
-3.95184e-05
-6.54787e-05
-4.54364e-05
-5.97263e-05
-5.04955e-05
-5.27061e-05
-5.44519e-05
-4.50942e-05
-5.70871e-05
-3.745e-05
-5.80938e-05
-3.02652e-05
-2.40672e-05
-5.75275e-05
-8.73658e-07
-5.16877e-05
-1.68455e-06
-5.41518e-05
-2.38724e-06
-5.40453e-05
-2.99114e-06
-5.4059e-05
-3.53729e-06
-5.42769e-05
-4.10296e-06
-5.47607e-05
-4.80345e-06
-5.55613e-05
-5.78515e-06
-5.67066e-05
-7.2078e-06
-5.81858e-05
-9.2204e-06
-5.99386e-05
-1.19391e-05
-6.18459e-05
-1.54441e-05
-6.37169e-05
-1.97712e-05
-6.52554e-05
-2.48582e-05
-6.60387e-05
-3.04929e-05
-6.5593e-05
-3.63212e-05
-6.3567e-05
-4.19183e-05
-5.98816e-05
-4.68806e-05
-5.47639e-05
-5.09159e-05
-4.86708e-05
-5.38698e-05
-4.21403e-05
-5.56513e-05
-3.56688e-05
-5.62338e-05
-2.96818e-05
-2.44966e-05
-5.58044e-05
-9.30269e-07
-5.07569e-05
-1.83678e-06
-5.32451e-05
-2.68326e-06
-5.31988e-05
-3.48939e-06
-5.32528e-05
-4.29735e-06
-5.34689e-05
-5.17387e-06
-5.38841e-05
-6.21069e-06
-5.45244e-05
-7.51968e-06
-5.53975e-05
-9.22248e-06
-5.64829e-05
-1.14366e-05
-5.77242e-05
-1.4261e-05
-5.90214e-05
-1.77612e-05
-6.02165e-05
-2.19431e-05
-6.10733e-05
-2.67105e-05
-6.12712e-05
-3.18392e-05
-6.04642e-05
-3.70025e-05
-5.84036e-05
-4.18379e-05
-5.50461e-05
-4.60242e-05
-5.05775e-05
-4.93441e-05
-4.5351e-05
-5.16984e-05
-3.9786e-05
-5.30812e-05
-3.42856e-05
-5.35817e-05
-2.9182e-05
-2.46804e-05
-5.33968e-05
-9.93339e-07
-4.9764e-05
-1.98706e-06
-5.22515e-05
-2.9523e-06
-5.22335e-05
-3.91438e-06
-5.22906e-05
-4.91344e-06
-5.24697e-05
-6.00616e-06
-5.27913e-05
-7.26541e-06
-5.3265e-05
-8.77672e-06
-5.38861e-05
-1.06313e-05
-5.46281e-05
-1.29169e-05
-5.54385e-05
-1.57061e-05
-5.6232e-05
-1.90402e-05
-5.68821e-05
-2.29044e-05
-5.72089e-05
-2.71974e-05
-5.69779e-05
-3.17209e-05
-5.59406e-05
-3.62053e-05
-5.39191e-05
-4.03642e-05
-5.08872e-05
-4.39498e-05
-4.69918e-05
-4.67947e-05
-4.2506e-05
-4.88282e-05
-3.77525e-05
-5.00753e-05
-3.30385e-05
-5.06511e-05
-2.8605e-05
-2.45895e-05
-5.07417e-05
-1.04764e-06
-4.87159e-05
-2.11241e-06
-5.11865e-05
-3.16926e-06
-5.11765e-05
-4.24479e-06
-5.1215e-05
-5.37574e-06
-5.13387e-05
-6.60966e-06
-5.15572e-05
-8.00413e-06
-5.18704e-05
-9.62396e-06
-5.22661e-05
-1.1536e-05
-5.27159e-05
-1.38026e-05
-5.31717e-05
-1.64718e-05
-5.35626e-05
-1.9564e-05
-5.37897e-05
-2.30529e-05
-5.37199e-05
-2.68453e-05
-5.31854e-05
-3.0777e-05
-5.20087e-05
-3.4637e-05
-5.00589e-05
-3.821e-05
-4.73141e-05
-4.13156e-05
-4.38861e-05
-4.38315e-05
-3.99901e-05
-4.57041e-05
-3.58799e-05
-4.69557e-05
-3.17865e-05
-4.76852e-05
-2.78763e-05
-2.42349e-05
-4.80388e-05
-1.08932e-06
-4.76268e-05
-2.20446e-06
-5.00714e-05
-3.32401e-06
-5.00569e-05
-4.47436e-06
-5.00645e-05
-5.68799e-06
-5.01249e-05
-7.00422e-06
-5.02409e-05
-8.46816e-06
-5.04063e-05
-1.01283e-05
-5.06058e-05
-1.20329e-05
-5.08112e-05
-1.42241e-05
-5.09803e-05
-1.67315e-05
-5.1055e-05
-1.95614e-05
-5.09596e-05
-2.26834e-05
-5.05977e-05
-2.60168e-05
-4.98518e-05
-2.94292e-05
-4.85962e-05
-3.27562e-05
-4.67318e-05
-3.58375e-05
-4.42327e-05
-3.85477e-05
-4.11759e-05
-4.08077e-05
-3.773e-05
-4.25846e-05
-3.4103e-05
-4.38916e-05
-3.04797e-05
-4.4792e-05
-2.69748e-05
-2.36332e-05
-4.53937e-05
-1.11291e-06
-4.65134e-05
-2.25716e-06
-4.89269e-05
-3.41313e-06
-4.89008e-05
-4.60521e-06
-4.88723e-05
-5.86158e-06
-4.88684e-05
-7.21448e-06
-4.88878e-05
-8.69904e-06
-4.89216e-05
-1.03513e-05
-4.89533e-05
-1.22053e-05
-4.8957e-05
-1.4289e-05
-4.88964e-05
-1.6619e-05
-4.87249e-05
-1.91936e-05
-4.83848e-05
-2.19835e-05
-4.78076e-05
-2.49224e-05
-4.69128e-05
-2.7905e-05
-4.56134e-05
-3.08022e-05
-4.38346e-05
-3.349e-05
-4.15448e-05
-3.58793e-05
-3.87866e-05
-3.79252e-05
-3.5684e-05
-3.96176e-05
-3.24106e-05
-4.09693e-05
-2.91276e-05
-4.20171e-05
-2.59278e-05
-2.28274e-05
-4.28221e-05
-1.11979e-06
-4.5394e-05
-2.27218e-06
-4.77746e-05
-3.43983e-06
-4.77331e-05
-4.64508e-06
-4.7667e-05
-5.91185e-06
-4.76015e-05
-7.26632e-06
-4.75332e-05
-8.73565e-06
-4.74521e-05
-1.03465e-05
-4.73423e-05
-1.21226e-05
-4.71807e-05
-1.40818e-05
-4.6937e-05
-1.62326e-05
-4.65739e-05
-1.85693e-05
-4.6048e-05
-2.10662e-05
-4.53105e-05
-2.36713e-05
-4.43076e-05
-2.63032e-05
-4.29814e-05
-2.88601e-05
-4.12777e-05
-3.12417e-05
-3.91631e-05
-3.33776e-05
-3.66507e-05
-3.52415e-05
-3.382e-05
-3.68436e-05
-3.08086e-05
-3.82074e-05
-2.77641e-05
-3.93566e-05
-2.47775e-05
-2.18594e-05
-4.03246e-05
-1.10855e-06
-4.4285e-05
-2.25022e-06
-4.66327e-05
-3.40871e-06
-4.65744e-05
-4.60371e-06
-4.64718e-05
-5.85526e-06
-4.63498e-05
-7.18455e-06
-4.62038e-05
-8.61258e-06
-4.60239e-05
-1.0159e-05
-4.57957e-05
-1.18403e-05
-4.54993e-05
-1.36675e-05
-4.51096e-05
-1.5644e-05
-4.45972e-05
-1.77625e-05
-4.39293e-05
-2.00018e-05
-4.30711e-05
-2.23224e-05
-4.19869e-05
-2.46634e-05
-4.06402e-05
-2.69463e-05
-3.89947e-05
-2.90887e-05
-3.70206e-05
-3.10285e-05
-3.47109e-05
-3.27443e-05
-3.21042e-05
-3.42554e-05
-2.92974e-05
-3.55985e-05
-2.64207e-05
-3.68015e-05
-2.35755e-05
-2.07838e-05
-3.78764e-05
-1.0822e-06
-4.3203e-05
-2.19613e-06
-4.55187e-05
-3.32695e-06
-4.54435e-05
-4.49209e-06
-4.53066e-05
-5.70805e-06
-4.51337e-05
-6.99186e-06
-4.49198e-05
-8.3597e-06
-4.46559e-05
-9.82609e-06
-4.43292e-05
-1.14024e-05
-4.39228e-05
-1.30953e-05
-4.34165e-05
-1.49052e-05
-4.27871e-05
-1.68246e-05
-4.20097e-05
-1.88363e-05
-4.10593e-05
-2.09108e-05
-3.99122e-05
-2.30044e-05
-3.85465e-05
-2.50586e-05
-3.69405e-05
-2.7007e-05
-3.50722e-05
-2.87926e-05
-3.29252e-05
-3.03904e-05
-3.05064e-05
-3.18179e-05
-2.78699e-05
-3.312e-05
-2.51189e-05
-3.43342e-05
-2.23602e-05
-1.96435e-05
-3.54747e-05
-1.0407e-06
-4.21619e-05
-2.11267e-06
-4.44466e-05
-3.20105e-06
-4.4355e-05
-4.32079e-06
-4.41867e-05
-5.48533e-06
-4.39691e-05
-6.70833e-06
-4.36967e-05
-8.00234e-06
-4.33618e-05
-9.37812e-06
-4.29532e-05
-1.08436e-05
-4.24572e-05
-1.24027e-05
-4.18573e-05
-1.40543e-05
-4.11354e-05
-1.57914e-05
-4.02725e-05
-1.76001e-05
-3.92505e-05
-1.94587e-05
-3.80535e-05
-2.13364e-05
-3.66687e-05
-2.31915e-05
-3.50853e-05
-2.4973e-05
-3.32907e-05
-2.66301e-05
-3.12681e-05
-2.81316e-05
-2.90049e-05
-2.94848e-05
-2.65167e-05
-3.07341e-05
-2.38692e-05
-3.19307e-05
-2.11644e-05
-1.84801e-05
-3.30933e-05
-9.86918e-07
-4.11754e-05
-2.00495e-06
-4.34287e-05
-3.03837e-06
-4.33216e-05
-4.10018e-06
-4.31249e-05
-5.20099e-06
-4.28682e-05
-6.35168e-06
-4.25459e-05
-7.56198e-06
-4.21514e-05
-8.83996e-06
-4.16752e-05
-1.01913e-05
-4.11058e-05
-1.16182e-05
-4.04302e-05
-1.31192e-05
-3.96343e-05
-1.46879e-05
-3.87037e-05
-1.63133e-05
-3.7625e-05
-1.79794e-05
-3.63873e-05
-1.96648e-05
-3.49833e-05
-2.1341e-05
-3.3409e-05
-2.29715e-05
-3.16602e-05
-2.45136e-05
-2.97259e-05
-2.59323e-05
-2.75861e-05
-2.72214e-05
-2.52276e-05
-2.84157e-05
-2.2675e-05
-2.95725e-05
-2.00065e-05
-1.73223e-05
-3.07302e-05
-9.20541e-07
-4.02545e-05
-1.87569e-06
-4.24734e-05
-2.84517e-06
-4.23521e-05
-3.83978e-06
-4.21302e-05
-4.86775e-06
-4.18402e-05
-5.9377e-06
-4.14759e-05
-7.05721e-06
-4.10318e-05
-8.23248e-06
-4.04998e-05
-9.46769e-06
-3.98705e-05
-1.07644e-05
-3.91335e-05
-1.21209e-05
-3.82777e-05
-1.35322e-05
-3.72923e-05
-1.49896e-05
-3.61675e-05
-1.64813e-05
-3.48956e-05
-1.79922e-05
-3.34724e-05
-1.95039e-05
-3.18974e-05
-2.09916e-05
-3.01724e-05
-2.24233e-05
-2.82941e-05
-2.37641e-05
-2.62453e-05
-2.49948e-05
-2.39969e-05
-2.61341e-05
-2.15353e-05
-2.72395e-05
-1.89018e-05
-1.61976e-05
-2.83635e-05
-8.43648e-07
-3.94112e-05
-1.72945e-06
-4.15878e-05
-2.62833e-06
-4.14533e-05
-3.54903e-06
-4.12096e-05
-4.49769e-06
-4.08916e-05
-5.48098e-06
-4.04927e-05
-6.50481e-06
-4.0008e-05
-7.57405e-06
-3.94306e-05
-8.69198e-06
-3.87526e-05
-9.85987e-06
-3.79656e-05
-1.10766e-05
-3.7061e-05
-1.23384e-05
-3.60305e-05
-1.36388e-05
-3.48671e-05
-1.49693e-05
-3.35652e-05
-1.63192e-05
-3.21224e-05
-1.76768e-05
-3.05398e-05
-1.90271e-05
-2.88222e-05
-2.03483e-05
-2.6973e-05
-2.16105e-05
-2.49831e-05
-2.27861e-05
-2.28214e-05
-2.38747e-05
-2.0447e-05
-2.49213e-05
-1.78543e-05
-1.5124e-05
-2.59952e-05
-7.55546e-07
-3.86554e-05
-1.56876e-06
-4.07747e-05
-2.39381e-06
-4.06284e-05
-3.23683e-06
-4.03667e-05
-4.10233e-06
-4.00262e-05
-4.99538e-06
-3.95997e-05
-5.9206e-06
-3.90829e-05
-6.88187e-06
-3.84694e-05
-7.88193e-06
-3.77526e-05
-8.92209e-06
-3.69255e-05
-1.0002e-05
-3.59812e-05
-1.11192e-05
-3.49133e-05
-1.22697e-05
-3.37167e-05
-1.34474e-05
-3.23876e-05
-1.46455e-05
-3.09245e-05
-1.58563e-05
-2.93291e-05
-1.70717e-05
-2.76069e-05
-1.82794e-05
-2.57653e-05
-1.94575e-05
-2.38051e-05
-2.05757e-05
-2.17032e-05
-2.16153e-05
-1.9407e-05
-2.26025e-05
-1.6868e-05
-1.41171e-05
-2.36089e-05
-6.57941e-07
-3.79982e-05
-1.39779e-06
-4.00352e-05
-2.14798e-06
-3.98785e-05
-2.91176e-06
-3.96032e-05
-3.69254e-06
-3.92456e-05
-4.49398e-06
-3.87985e-05
-5.31963e-06
-3.82574e-05
-6.17256e-06
-3.76167e-05
-7.05509e-06
-3.68702e-05
-7.96866e-06
-3.60121e-05
-8.9136e-06
-3.50364e-05
-9.88905e-06
-3.3938e-05
-1.08929e-05
-3.27129e-05
-1.1922e-05
-3.13586e-05
-1.29723e-05
-2.98743e-05
-1.40398e-05
-2.82618e-05
-1.51206e-05
-2.65261e-05
-1.62099e-05
-2.46762e-05
-1.72952e-05
-2.27199e-05
-1.83505e-05
-2.06481e-05
-1.93447e-05
-1.84131e-05
-2.02766e-05
-1.59353e-05
-1.31838e-05
-2.12102e-05
-5.50349e-07
-3.74477e-05
-1.21864e-06
-3.93671e-05
-1.89548e-06
-3.92019e-05
-2.58066e-06
-3.89183e-05
-3.27721e-06
-3.85493e-05
-3.98772e-06
-3.80882e-05
-4.71493e-06
-3.75304e-05
-5.46115e-06
-3.68707e-05
-6.22825e-06
-3.61033e-05
-7.01755e-06
-3.5223e-05
-7.8298e-06
-3.42243e-05
-8.66527e-06
-3.31027e-05
-9.52373e-06
-3.18547e-05
-1.04045e-05
-3.0478e-05
-1.13067e-05
-2.89723e-05
-1.22294e-05
-2.73392e-05
-1.31724e-05
-2.55833e-05
-1.4136e-05
-2.37127e-05
-1.51168e-05
-2.17393e-05
-1.60974e-05
-1.96676e-05
-1.70428e-05
-1.74676e-05
-1.79263e-05
-1.50527e-05
-1.2326e-05
-1.87839e-05
-4.35569e-07