/*--------------------------------*- C++ -*----------------------------------*\
| =========                 |                                                 |
| \\      /  F ield         | OpenFOAM: The Open Source CFD Toolbox           |
|  \\    /   O peration     | Version:  2312                                  |
|   \\  /    A nd           | Website:  www.openfoam.com                      |
|    \\/     M anipulation  |                                                 |
\*---------------------------------------------------------------------------*/
FoamFile
{
    version     2.0;
    format      ascii;
    arch        "LSB;label=32;scalar=64";
    class       volScalarField;
    location    "2.4";
    object      alpha.galistan;
}
// * * * * * * * * * * * * * * * * * * * * * * * * * * * * * * * * * * * * * //

dimensions      [0 0 0 0 0 0 0];

internalField   nonuniform List<scalar> 
2268
(
1
1
1
1
1
1
1
1
1
1
1
1
1
1
1
1
1
1
1
1
1
0.999946
0.999941
1
1
1
1
1
1
1
1
1
1
1
1
1
1
1
1
1
1
1
1
1
0.999975
0.999959
0.999999
1
1
1
1
0.999997
0.999999
1
1
1
1
1
1
1
1
1
1
1
1
1
1
1
0.999999
0.999999
0.999982
1
0.999957
0.999906
0.999978
1
1
1
1
1
1
1
1
1
1
1
1
1
0.999999
1
1
0.999954
0.998799
0.993568
0.994014
0.997119
0.999746
0.999976
0.999977
0.999992
1
1
1
1
1
1
1
1
0.999997
0.999996
0.999999
0.999999
1
0.999998
0.999275
0.56573
0.527512
0.504033
0.540269
0.634733
0.736901
0.838865
0.919502
0.967036
0.989682
0.99779
0.999852
0.999932
0.999948
0.999973
0.999992
0.999995
0.983155
0.915638
0.821146
0.744174
0.66534
0.537332
2.73176e-14
5.72893e-09
9.13082e-11
5.87348e-09
-1.4074e-06
0.0371082
0.102536
0.197972
0.310604
0.426199
0.51934
0.578699
0.626096
0.656636
0.652223
0.589007
0.487379
0.333566
0.224476
0.149436
0.0776605
0.0477221
0.0615093
4.90052e-06
1.40795e-05
8.25793e-05
1.85123e-07
2.40671e-05
0.000297499
0.000305571
0.000216206
0.00030304
0.000400466
0.000455099
0.0101128
0.0206312
0.0293359
0.0307554
0.0592992
0.0770047
0.0719172
0.0437597
0.0140015
0.0131795
0.00599846
0.0249141
0.91063
0.92371
0.926657
0.929239
0.92921
0.9292
0.929173
0.928746
0.925948
0.927316
0.927484
0.927485
0.926465
0.93702
0.945825
0.94583
0.945835
0.94584
0.945835
0.818492
0.806164
0.848224
0.878989
0.915079
0.929092
0.929164
0.921511
0.884123
0.826647
0.764351
0.741089
0.731769
0.722768
0.746038
0.816416
0.902592
0.945845
0.945831
0.166619
0.190436
0.270035
0.403667
0.563447
0.69637
0.728834
0.634998
0.598548
0.576516
0.537199
0.509746
0.414802
0.256902
0.241109
0.380459
0.485668
0.662061
0.827961
0.0313862
0.0547331
0.0661188
0.0785274
0.148334
0.207037
0.257335
0.276131
0.216695
0.211672
0.199186
0.14942
0.118678
0.117994
0.149052
0.141318
0.290542
0.406194
0.525086
0.000452715
0.00136292
0.0145761
0.0369674
0.0424601
0.0727159
0.0683485
0.0217357
0.0273402
0.0317202
0.0352709
0.0736317
0.0880575
0.115486
0.0897128
0.0465548
0.0414607
0.204888
0.486835
0.000633806
3.35493e-06
3.1381e-06
3.25038e-06
0.00328919
0.00244333
0.00691015
0.0186493
0.0363594
0.0342402
0.0252697
0.0316283
0.0480406
0.0576242
0.0440153
0.0221344
0.0194122
0.0212164
0.167237
0.000985503
8.03615e-05
5.43758e-05
5.97686e-05
4.11861e-05
1.51263e-06
1.50989e-06
0.0218099
0.0439101
0.00825282
0.006514
0.00653708
0.00707239
0.0170888
0.0234769
0.0227663
0.0194132
0.00595707
0.00420702
0.00079474
8.15545e-05
8.43564e-05
8.92386e-05
6.21472e-05
2.95005e-06
1.51263e-06
0.0263251
0.0331486
0.00893493
0.0065276
0.01021
0.0111365
0.0151399
0.0190219
0.0137518
0.00909401
0.00420807
0.00420702
4.13258e-07
0.000221537
0.000562605
0.000196071
0.00036054
0.000424037
0.000352369
2.38889e-06
3.1693e-06
2.71732e-05
1.56526e-05
0.00012422
0.00403175
0.0111895
0.0131773
0.0111778
0.000686011
0.000567979
0.00269358
0.00030606
0.000849716
0.000150636
5.37865e-05
8.65638e-09
0.000382425
0.00131431
0.000653094
3.90049e-05
3.83659e-05
1.9722e-05
2.34267e-06
2.01053e-06
2.98214e-06
2.90934e-06
0.00151107
0.00352026
0.00328212
0.00270198
0.00115
0.000950495
0.000568318
0.000478125
9.58135e-05
1.61461e-05
1.60093e-05
5.37788e-05
2.56138e-07
5.22582e-05
0.000857965
0.000818213
0.000348601
4.8012e-06
9.30496e-07
9.32617e-07
7.08651e-06
4.65872e-05
6.06405e-05
3.57858e-05
1.63921e-05
8.8042e-05
0.00019161
0.00119754
0.00529025
0.00529044
0.00496927
0.00128562
1.60097e-05
1.60098e-05
3.27452e-05
6.77686e-07
6.34101e-06
0.000122932
0.000268853
0.00058191
0.000581093
7.10584e-05
1.50746e-06
1.30027e-05
2.1072e-05
8.5107e-06
6.49348e-06
1.61354e-05
2.15357e-05
2.17516e-05
0.000157059
0.00223995
0.00527174
0.0052903
0.0052903
0.00222267
0.000118251
3.4164e-05
2.10946e-06
2.5387e-06
2.0001e-06
4.92132e-06
0.000210278
0.000610778
0.000611102
0.000219244
2.54487e-05
2.56049e-05
9.18777e-06
5.49729e-06
1.28814e-05
3.92121e-05
3.89448e-05
1.67668e-05
4.20689e-06
0.000488828
0.00168801
0.00155391
0.00136178
0.000860048
0.000851736
2.45296e-06
2.41717e-06
2.00676e-06
2.00629e-06
2.03842e-06
0.000116158
0.00029228
0.000295672
0.000207037
9.80993e-06
6.20108e-06
6.78016e-06
1.93021e-05
3.37864e-05
9.55443e-06
4.13209e-06
4.19975e-06
4.24976e-06
7.80761e-05
5.70635e-05
5.67767e-05
0.000113664
0.000395894
2.49818e-06
3.40112e-06
1.99743e-06
2.28591e-06
2.04084e-06
7.9374e-06
4.55033e-05
6.92387e-05
6.80251e-05
1.86415e-05
1.1881e-05
5.54273e-05
0.000125548
0.000101332
9.73209e-06
4.11804e-06
9.19128e-06
1.18015e-05
1.1447e-05
0.000140654
0.000160076
0.000153581
0.000153573
0.00121031
1.28142e-06
1.09923e-05
1.13733e-05
3.35565e-06
3.34251e-06
3.67561e-06
3.70607e-06
5.48802e-05
0.000112363
0.000128253
0.000132032
0.00013181
8.09856e-05
2.37136e-05
1.17564e-05
2.65794e-05
9.61613e-05
8.25717e-05
9.40326e-05
9.50858e-05
0.0016905
0.0117229
0.00477088
1.13973e-06
1.11099e-05
4.73045e-06
3.34403e-06
5.82384e-06
1.39956e-05
2.97606e-05
4.80143e-05
6.32984e-05
0.000109839
7.48689e-05
7.38297e-05
7.85143e-05
9.02852e-05
5.1366e-05
0.000210576
0.000449363
0.000344082
0.000295538
0.00354821
0.00636076
0.00634295
0.0057724
1.14171e-06
6.68892e-06
4.16992e-05
2.12951e-05
3.3955e-05
0.000170136
0.000437805
0.000176393
0.000401325
0.00046893
0.00041652
0.000232621
0.000201744
0.000170715
3.59469e-05
9.80926e-05
0.000414762
0.000487743
0.000486673
0.000244447
0.000365524
0.000156134
0.0057458
5.22596e-05
6.82033e-06
0.000318496
0.000767904
0.000992943
0.00620918
0.0107393
0.0107359
0.00797012
0.00367707
0.00118339
7.59955e-05
5.26157e-05
1.99207e-05
7.44071e-06
2.5303e-06
1.6324e-06
6.74459e-08
8.23544e-09
8.4549e-09
1.12343e-08
2.04873e-07
0.00576835
0.00220404
0.000291828
0.000329998
0.00124048
0.00392449
0.00612421
0.00546702
0.00229253
0.000218154
1.09016e-05
2.09964e-06
2.99723e-08
2.70974e-08
1.61879e-06
4.47509e-06
1.0945e-06
6.30682e-07
8.22083e-07
6.00118e-07
5.76661e-07
6.50703e-07
5.10082e-07
0.00411265
0.00426623
0.00248338
0.000631948
0.000857744
0.00586031
0.00630981
0.00629008
0.00230585
2.21445e-06
2.24859e-06
8.54906e-07
4.35205e-08
2.64747e-08
1.29328e-06
3.68817e-06
7.54288e-06
7.77855e-06
7.59497e-06
1.70878e-06
8.30623e-08
1.69916e-07
2.16772e-07
5.75693e-05
0.000247056
0.000557642
0.00079267
0.00175018
0.00424411
0.00585726
0.00338816
0.000190564
2.68522e-06
1.3119e-06
3.49898e-07
3.7007e-08
2.66414e-08
4.85342e-08
6.14946e-08
2.76009e-07
4.60717e-07
2.31597e-07
1.74402e-07
8.16833e-08
3.69652e-08
2.11324e-08
6.35607e-05
0.000141555
0.000202368
0.000351655
1.02193e-05
9.28763e-07
8.97757e-07
9.28064e-07
2.18992e-05
4.42024e-06
4.22347e-07
8.42276e-08
3.46126e-08
1.53504e-08
7.42266e-09
7.41565e-09
7.02827e-09
6.2303e-09
5.80846e-09
3.21755e-09
5.47923e-09
3.55766e-09
2.85124e-09
0.000350899
0.000667476
0.000670282
0.000642313
0.000153005
9.0871e-06
1.55903e-06
1.47443e-05
1.14388e-05
1.24746e-06
2.82558e-07
2.83488e-07
2.48117e-07
4.19587e-08
7.7967e-09
1.11464e-08
2.09775e-08
2.18512e-08
9.29522e-09
3.2267e-09
1.85602e-09
1.44109e-09
1.33164e-09
0.0003272
0.000135455
0.000191273
5.61249e-05
5.78809e-05
4.49533e-05
1.14486e-05
5.14559e-06
1.44583e-06
1.72123e-07
2.81099e-07
2.92102e-07
1.65427e-07
5.34357e-08
1.69605e-08
1.7297e-08
2.7995e-08
2.79561e-08
1.88484e-08
5.41307e-09
1.7689e-09
1.0827e-09
8.90465e-10
5.70231e-05
3.51801e-07
3.5337e-07
3.51981e-07
5.98824e-06
2.80367e-05
3.61204e-06
1.5211e-07
7.63008e-09
1.4056e-08
8.49757e-08
5.7363e-08
1.52511e-08
1.65917e-08
8.14777e-09
9.12008e-09
1.66097e-08
1.5216e-08
7.89852e-09
2.72992e-09
9.33244e-10
5.64269e-10
4.56746e-10
7.94459e-08
1.06873e-06
2.22031e-06
3.8563e-07
2.8463e-07
1.52555e-06
8.35784e-09
7.52216e-09
7.26401e-09
2.21016e-09
1.15009e-09
1.16187e-09
1.703e-09
2.95556e-09
2.49445e-09
3.26318e-09
4.96343e-09
4.0725e-09
2.18586e-09
8.59243e-10
4.36082e-10
2.58572e-10
2.47501e-10
7.77176e-08
3.50478e-06
4.91622e-06
1.92852e-06
7.82993e-27
1.10711e-10
9.09576e-09
1.42199e-08
1.35289e-08
6.52969e-09
1.93355e-09
1.16757e-09
1.05543e-09
1.11969e-09
1.06052e-09
1.03272e-09
9.61205e-10
7.03801e-10
4.10598e-10
1.90665e-10
1.57973e-10
1.33199e-10
1.20573e-10
7.6074e-08
2.20542e-06
4.90273e-06
7.25479e-07
-2.32881e-13
1.3989e-08
2.48315e-08
2.14613e-08
1.35796e-08
4.79504e-09
1.56086e-09
8.16294e-10
6.64645e-10
6.12375e-10
5.22156e-10
3.9549e-10
2.80838e-10
1.96351e-10
1.31307e-10
8.57656e-11
6.91457e-11
5.03986e-11
4.33627e-11
4.68525e-08
3.15125e-08
1.66467e-07
4.13923e-07
5.72241e-26
1.89677e-08
2.47918e-08
1.55204e-08
4.31355e-09
1.89799e-09
7.47633e-10
4.57028e-10
3.53157e-10
2.84925e-10
2.15212e-10
1.50987e-10
1.01015e-10
6.85064e-11
4.89185e-11
3.35727e-11
2.31692e-11
1.77228e-11
1.39011e-11
2.08211e-08
1.99073e-08
1.16749e-08
1.57335e-09
1.09146e-08
1.93615e-08
1.51596e-08
4.62561e-09
1.13656e-09
6.41821e-10
3.3169e-10
2.03535e-10
1.45072e-10
1.03096e-10
6.93902e-11
4.5151e-11
3.02509e-11
2.10877e-11
1.51323e-11
1.07415e-11
7.53417e-12
4.23586e-12
3.52349e-12
2.45888e-08
5.03241e-08
2.78256e-08
1.31717e-09
5.78535e-09
9.59303e-09
5.59583e-09
1.27891e-09
4.46676e-10
2.48906e-10
1.19876e-10
7.22274e-11
4.76232e-11
3.06145e-11
1.89182e-11
1.17029e-11
7.69538e-12
5.37133e-12
3.89277e-12
2.76187e-12
1.71813e-12
9.71425e-13
7.88656e-13
3.93959e-08
9.00109e-08
4.85372e-08
1.31323e-09
1.60297e-09
2.64477e-09
1.60149e-09
4.99387e-10
2.11888e-10
9.23373e-11
4.49776e-11
2.42124e-11
1.35688e-11
7.69169e-12
4.40478e-12
2.59337e-12
1.61742e-12
1.10915e-12
7.8766e-13
5.39466e-13
3.17931e-13
1.60986e-13
1.36486e-13
2.54718e-08
9.02523e-08
9.15349e-08
3.02727e-08
1.14478e-09
9.98441e-10
6.62572e-10
2.65943e-10
9.75466e-11
3.45178e-11
1.19589e-11
5.7222e-12
3.20999e-12
1.72819e-12
8.86693e-13
4.8148e-13
2.87679e-13
1.88539e-13
1.28632e-13
7.95588e-14
4.5672e-14
2.77671e-14
2.09356e-14
2.55209e-08
2.67782e-08
9.11435e-08
4.7709e-08
1.02766e-08
1.69183e-09
4.74578e-10
1.55442e-10
4.21973e-11
9.34448e-12
2.59106e-12
1.09282e-12
5.86598e-13
3.15007e-13
1.65395e-13
8.78894e-14
5.01368e-14
2.82378e-14
1.68849e-14
1.04898e-14
5.89111e-15
2.86789e-15
2.69773e-15
4.57931e-08
1.0574e-08
2.05581e-08
3.34892e-08
1.70123e-08
4.23272e-09
6.33375e-10
1.16137e-10
2.43913e-11
5.09105e-12
1.95844e-12
1.03002e-12
5.7102e-13
3.11781e-13
1.51598e-13
6.5917e-14
2.60337e-14
9.8831e-15
3.87982e-15
1.60847e-15
7.27279e-16
3.30633e-16
2.99471e-16
5.12285e-08
2.74325e-08
1.93114e-08
8.39193e-09
8.3482e-09
4.58587e-09
1.24119e-09
1.89759e-10
1.96881e-11
4.88905e-12
2.73651e-12
1.84227e-12
1.20158e-12
7.16493e-13
3.57069e-13
1.50379e-13
5.39363e-14
1.71536e-14
4.88449e-15
1.25727e-15
3.32282e-16
7.48638e-17
3.37168e-17
5.15313e-08
1.44408e-05
4.21696e-05
1.08069e-05
1.99596e-07
2.81383e-10
2.41701e-10
2.1765e-10
5.31303e-11
6.37009e-12
5.11263e-12
3.82831e-12
2.83551e-12
1.7809e-12
9.09409e-13
3.8167e-13
1.34579e-13
4.1564e-14
1.11782e-14
2.58107e-15
5.69663e-16
1.014e-16
1.34206e-17
8.00404e-06
0.000299434
0.000373662
0.000157927
3.57786e-10
4.97378e-10
6.75584e-09
7.05765e-09
9.12318e-10
2.85802e-11
1.12274e-11
7.86346e-12
6.32297e-12
4.03798e-12
2.09855e-12
8.76245e-13
3.09177e-13
9.35901e-14
2.41837e-14
5.49439e-15
1.13374e-15
1.88769e-16
2.21372e-17
0.000303851
0.000396806
0.000398479
0.000194793
4.81384e-10
1.98117e-09
2.75822e-08
1.34236e-08
5.09042e-10
2.94649e-11
2.56424e-11
1.69631e-11
1.2847e-11
7.7066e-12
4.18663e-12
1.74698e-12
6.24036e-13
1.9312e-13
4.80832e-14
1.0739e-14
2.18731e-15
3.19364e-16
3.86754e-17
0.000368977
0.000371857
0.000198531
2.8203e-05
3.57769e-10
2.80883e-08
3.13198e-08
7.61543e-09
1.02445e-10
5.18978e-11
6.06781e-11
3.72674e-11
2.445e-11
1.47051e-11
7.24066e-12
3.12847e-12
1.12225e-12
3.43108e-13
8.73709e-14
1.7592e-14
3.39304e-15
4.89828e-16
5.81713e-17
0.000137615
8.3173e-10
8.48027e-10
8.37334e-10
6.29435e-09
2.88717e-08
2.02948e-08
8.26794e-10
9.88538e-11
1.06329e-10
1.18625e-10
8.33492e-11
4.92875e-11
2.63825e-11
1.18446e-11
5.00237e-12
1.8012e-12
5.47118e-13
1.37321e-13
2.8853e-14
5.6695e-15
7.43239e-16
7.40895e-17
8.29938e-10
8.30942e-10
8.96314e-10
2.56795e-09
4.53197e-09
6.90722e-09
1.43668e-09
1.54983e-10
1.26278e-10
2.04614e-10
2.54743e-10
1.94949e-10
9.10519e-11
4.27864e-11
1.86602e-11
7.88062e-12
2.81951e-12
8.25141e-13
1.9598e-13
3.60342e-14
6.51989e-15
8.29579e-16
7.54987e-17
1.00426e-09
8.31792e-10
1.41468e-09
1.92338e-09
1.69851e-09
2.07347e-10
2.01655e-10
1.7302e-10
2.33116e-10
3.77679e-10
4.34506e-10
3.14265e-10
1.28967e-10
4.96377e-11
2.15355e-11
8.79834e-12
3.07755e-12
8.84299e-13
2.05607e-13
3.7215e-14
6.31053e-15
7.33354e-16
6.98259e-17
1.85118e-09
9.18008e-10
8.20754e-10
9.53593e-10
6.89103e-10
2.26731e-10
2.2158e-10
2.27422e-10
4.59486e-10
6.55982e-10
6.4025e-10
3.83942e-10
1.42567e-10
5.01398e-11
2.20361e-11
8.61985e-12
2.83776e-12
7.53733e-13
1.68882e-13
2.82694e-14
4.35361e-15
4.26057e-16
2.85316e-17
2.81556e-09
6.37538e-10
4.70025e-10
5.32751e-10
3.94148e-10
2.24095e-10
2.41645e-10
4.5558e-10
7.89933e-10
9.05991e-10
7.91057e-10
3.95941e-10
1.32144e-10
4.45329e-11
1.94605e-11
6.84142e-12
1.9493e-12
4.57667e-13
8.6405e-14
1.37703e-14
1.67388e-15
1.47155e-16
1.03568e-17
6.09291e-09
4.31135e-10
2.47405e-10
2.49828e-10
2.33977e-10
2.27745e-10
3.89327e-10
8.4411e-10
1.21701e-09
1.33143e-09
8.64645e-10
2.96077e-10
9.10825e-11
3.81907e-11
1.44713e-11
4.18485e-12
9.59935e-13
1.75202e-13
2.69794e-14
3.11653e-15
3.31826e-16
2.45243e-17
1.32463e-18
8.07074e-09
1.20135e-09
2.47468e-10
2.81198e-10
3.18623e-10
4.1921e-10
7.54023e-10
1.75336e-09
2.08536e-09
1.57031e-09
6.44031e-10
2.05679e-10
6.98615e-11
2.75961e-11
7.98744e-12
1.72146e-12
2.74591e-13
3.47909e-14
3.58215e-15
3.50853e-16
2.67157e-17
1.99038e-18
1.20902e-19
9.90356e-09
2.24687e-09
3.65047e-10
5.69964e-10
7.47548e-10
8.62133e-10
2.37929e-09
3.17938e-09
2.51321e-09
1.2096e-09
4.01343e-10
1.38389e-10
5.74775e-11
1.72965e-11
3.63145e-12
5.1022e-13
4.8422e-14
3.38378e-15
2.07305e-16
1.27485e-17
9.08921e-19
6.74695e-20
4.6901e-21
1.10083e-08
6.48509e-09
3.17755e-09
3.70423e-09
4.09532e-09
4.7075e-09
4.75845e-09
3.0809e-09
1.38746e-09
4.6613e-10
1.51663e-10
6.27493e-11
2.06634e-11
4.52817e-12
6.20297e-13
5.17253e-14
2.7154e-15
1.00175e-16
3.22248e-18
1.14359e-19
8.64634e-21
9.92879e-22
8.48702e-23
0.000137657
0.0003327
0.000366083
0.000857775
0.00118444
0.00323075
0.00633019
0.00797201
0.0047857
0.00734121
0.00722509
0.00750649
0.000666769
0.00180211
0.00193301
0.00510102
0.000901735
0.000754391
0.000729867
0.0175094
0.000670727
0.000685237
0.00725141
0.021127
0.00138491
0.0192007
0.0211367
0.0211319
0.0116719
0.0105184
0.0149788
0.0211371
0.00648653
0.00557227
0.00365593
0.00230315
4.31791e-07
2.01883e-07
1.85156e-07
1.82196e-07
9.53157e-07
9.58412e-07
7.57295e-07
2.7394e-07
1.52354e-07
2.9079e-07
2.59189e-07
2.58366e-07
7.11199e-08
7.69306e-08
9.86122e-07
2.06518e-06
1.12127e-06
1.84298e-06
3.3518e-06
3.39493e-06
3.15409e-08
1.0193e-07
2.59106e-07
3.54448e-07
1.35877e-09
7.55398e-10
2.40899e-09
3.27051e-09
8.38547e-10
7.56356e-10
7.53669e-10
7.64277e-10
4.33875e-10
4.35234e-10
4.32882e-10
4.24119e-10
2.42461e-10
2.30175e-10
2.14916e-10
2.07e-10
1.1291e-10
1.0272e-10
9.52728e-11
8.4108e-11
3.83964e-11
3.18185e-11
2.7871e-11
2.57782e-11
1.16814e-11
9.54269e-12
8.47231e-12
7.27917e-12
2.84854e-12
2.26398e-12
2.04977e-12
1.94931e-12
5.88596e-13
4.74674e-13
4.70303e-13
4.79955e-13
1.05197e-13
8.15914e-14
8.68346e-14
1.09378e-13
1.72968e-14
1.43822e-14
1.72174e-14
2.19074e-14
2.25623e-15
1.82419e-15
2.44432e-15
4.03156e-15
2.7621e-16
2.49337e-16
3.53021e-16
5.62571e-16
2.95473e-17
2.6296e-17
4.3846e-17
9.8973e-17
5.95252e-18
4.41069e-18
6.52927e-18
1.66695e-17
4.78994e-18
1.54178e-18
1.38806e-18
5.10348e-18
7.88001e-18
1.60289e-18
5.03358e-19
1.84246e-18
1.00177e-17
1.77897e-18
3.37137e-19
7.62355e-19
1.08998e-17
2.00035e-18
2.6846e-19
2.61877e-19
1.10242e-17
1.8453e-18
2.1734e-19
5.23175e-20
9.42299e-18
1.35216e-18
1.36952e-19
1.16601e-20
3.43916e-18
4.02132e-19
3.53168e-20
1.77544e-21
1.07107e-18
1.22667e-19
6.38795e-21
2.41775e-22
1.13592e-19
1.10167e-20
3.0661e-22
2.10667e-23
1.01635e-20
8.99547e-22
7.63497e-24
2.03568e-24
4.26763e-22
3.31225e-23
2.39958e-25
2.11397e-25
9.35607e-24
6.30478e-25
8.57419e-27
1.8482e-26
0.00212963
0.00354493
0.000981021
7.08963e-05
2.30798e-06
2.29574e-06
0.00103774
0.0212259
0.020469
0.0153989
0.0149986
0.0289924
0.0303798
0.0313228
0.0191514
0.0061584
0.00629435
0.0098935
0.00651348
0.00840815
0.00861137
0.00288435
9.77961e-07
5.37116e-06
0.000141318
0.0015273
0.0188529
0.0138192
0.00232109
0.00819713
0.0112572
0.0275099
0.0313227
0.0188495
0.00612722
0.0143937
0.0199942
0.0162366
0.00818979
0.00873597
0.00436957
1.4895e-05
0.000180551
0.000611842
0.000793563
0.0153745
0.00549462
0.0010109
0.000902458
0.000907619
0.00560606
0.0210511
0.0138663
0.0106589
0.0199796
0.0199944
0.0199962
0.0129517
0.0122572
0.00431007
2.90357e-05
0.0004073
0.00196098
0.00109091
0.001205
0.00121974
0.00432415
0.0036776
0.00090123
0.0036718
0.00550327
0.00424489
0.00472534
0.00862132
0.018988
0.0199906
0.0211182
0.0156034
0.00440141
0.000405036
6.90419e-07
0.00188266
0.00895766
0.00968073
0.0116711
0.0116714
0.0105787
0.00445873
0.00206103
0.00206373
0.00424599
0.00299295
0.00289361
0.00361128
0.0168225
0.021118
0.0125555
0.000145214
9.53868e-06
7.09254e-07
6.89967e-07
0.00539531
0.00972739
0.0097915
0.0101748
0.00840428
0.00356
0.00182576
0.00392147
0.00443829
0.00442634
0.00287711
0.00269319
0.00974704
0.0210802
0.0147551
0.000640811
8.57832e-06
0.00222415
0.00281539
0.00280783
0.00174783
0.000598054
0.00104436
0.00138463
0.000665627
0.000415764
0.000573582
0.000109898
0.00031824
0.00110974
0.00126498
0.000842913
0.0211258
0.0155684
0.00352309
0.000520059
0.000327995
0.000126209
4.23993e-06
4.23994e-06
1.5712e-05
3.30242e-06
4.02478e-11
6.4275e-18
4.02478e-11
5.74406e-08
2.41021e-07
2.22133e-16
3.25785e-15
2.22133e-16
3.25785e-15
0.000326406
3.98934e-05
0.000284185
0.000311229
4.41126e-05
2.02418e-05
7.4567e-06
1.87074e-05
1.67345e-05
8.58809e-06
1.53482e-06
5.66324e-07
8.23373e-11
1.73021e-07
1.11032e-06
7.84067e-07
2.78122e-07
5.61584e-08
1.12354e-07
3.43109e-06
2.39876e-09
4.75226e-09
1.37742e-06
7.53111e-06
1.37715e-06
9.58646e-06
1.50589e-05
2.00862e-05
2.00131e-05
1.33286e-05
9.68893e-07
2.33025e-09
5.84015e-06
2.15534e-05
1.68312e-05
1.06409e-06
7.48139e-08
2.16181e-07
8.36654e-07
1.40439e-06
2.42332e-06
4.68296e-06
2.03587e-06
5.25373e-07
6.4004e-07
7.73386e-08
1.43982e-06
1.00948e-05
1.32097e-05
5.21217e-06
7.01482e-06
2.17058e-05
2.17058e-05
2.00337e-05
5.19508e-06
1.1926e-07
4.69304e-07
8.78785e-07
3.42946e-06
4.85298e-06
4.85685e-06
4.02794e-06
1.66033e-06
3.56839e-07
9.16264e-10
9.45065e-10
7.41649e-09
5.25007e-07
9.26272e-06
1.01887e-05
9.51512e-06
2.14389e-05
1.53509e-05
1.20498e-06
2.70756e-07
4.70301e-07
2.97834e-06
3.33944e-06
3.10774e-06
2.21612e-06
3.18105e-07
1.37798e-08
4.92383e-09
6.25764e-08
8.67965e-09
8.73907e-10
2.39126e-11
2.24385e-11
2.80542e-11
2.14241e-11
1.68887e-06
7.86909e-06
3.91154e-07
2.23449e-07
4.41827e-07
3.39533e-06
2.99347e-06
1.26888e-06
6.33264e-08
1.95819e-09
5.67549e-10
6.59277e-10
7.05954e-10
7.38086e-10
7.85071e-10
4.62714e-10
9.7524e-11
1.61733e-10
5.70364e-11
5.37284e-11
2.49117e-06
1.50129e-08
1.84606e-07
3.78655e-07
3.08671e-07
1.25067e-08
7.05829e-10
7.11809e-10
1.11018e-09
1.28993e-09
1.12485e-09
5.72345e-10
7.87959e-10
7.70719e-10
3.79092e-10
1.8537e-10
7.5038e-10
3.10193e-09
3.1781e-07
3.98366e-07
8.31499e-10
3.31224e-08
1.83238e-07
2.66193e-09
8.62843e-10
7.43554e-10
7.18121e-10
1.12147e-09
1.1206e-09
9.11344e-10
5.66795e-10
5.70676e-10
3.49732e-10
1.10136e-10
3.28268e-10
1.83274e-09
1.62284e-08
7.40251e-08
8.72949e-08
3.44408e-10
3.44393e-10
2.75116e-09
6.79531e-10
6.58655e-10
4.48513e-10
3.15185e-10
4.06479e-10
4.7069e-10
3.90063e-10
2.54827e-10
1.36526e-10
9.9475e-11
6.9163e-11
5.04625e-10
9.72483e-10
7.83282e-10
3.67353e-10
6.88581e-09
4.81126e-10
1.21555e-09
1.92152e-09
3.91271e-10
3.20515e-10
2.21509e-10
1.54106e-10
1.39578e-10
1.47827e-10
1.38157e-10
8.27332e-11
4.94493e-11
4.48314e-11
6.22295e-11
4.61874e-10
9.4569e-10
7.86285e-10
3.68217e-10
3.31592e-10
8.17607e-10
2.10808e-09
3.18324e-09
1.83466e-10
1.35267e-10
9.08769e-11
7.49925e-11
6.35737e-11
6.0729e-11
5.83776e-11
4.22015e-11
3.70983e-11
3.61653e-11
3.88485e-11
1.99795e-10
5.23861e-10
5.66163e-10
3.15458e-10
3.33846e-10
8.52248e-10
2.11508e-09
3.3904e-09
6.73689e-11
4.86021e-11
3.79458e-11
3.65406e-11
3.43127e-11
3.30723e-11
3.2004e-11
2.78972e-11
2.58856e-11
2.64758e-11
2.4736e-11
3.25709e-11
7.38395e-11
1.47022e-10
1.55763e-10
2.59265e-10
7.66049e-10
2.02242e-09
3.39746e-09
2.04842e-11
1.60914e-11
1.64591e-11
1.77266e-11
1.84722e-11
1.82435e-11
1.72664e-11
1.61315e-11
1.49985e-11
1.42638e-11
1.63051e-11
1.64516e-11
2.09336e-11
3.76719e-11
6.71048e-11
1.40568e-10
5.83797e-10
2.10726e-09
3.38877e-09
6.15106e-12
6.08565e-12
6.89188e-12
7.76826e-12
8.32376e-12
8.28392e-12
7.84916e-12
7.70841e-12
7.83439e-12
7.75905e-12
9.03929e-12
9.20722e-12
1.12723e-11
1.67703e-11
2.90977e-11
8.56624e-11
4.98671e-10
1.98352e-09
3.09455e-09
1.93989e-12
2.27091e-12
2.7226e-12
3.08846e-12
3.32561e-12
3.32258e-12
3.26527e-12
3.30727e-12
3.4141e-12
3.27145e-12
2.88587e-12
4.7221e-12
6.36007e-12
1.00527e-11
1.76911e-11
5.46673e-11
3.89995e-10
1.86844e-09
2.31232e-09
5.69293e-13
7.46363e-13
9.90658e-13
1.14809e-12
1.19922e-12
1.1809e-12
1.2187e-12
1.30711e-12
1.4424e-12
1.52427e-12
1.52698e-12
2.6338e-12
4.57677e-12
8.07652e-12
1.56175e-11
4.35313e-11
2.32757e-10
1.83527e-09
2.01328e-09
1.51073e-13
2.35527e-13
3.10725e-13
3.62265e-13
4.01928e-13
4.25226e-13
4.50121e-13
5.06003e-13
6.20197e-13
8.84984e-13
1.34645e-12
2.51413e-12
4.68108e-12
9.77489e-12
2.0176e-11
5.32519e-11
2.37542e-10
1.83853e-09
1.87321e-09
3.42578e-14
6.06633e-14
8.93246e-14
1.1703e-13
1.34959e-13
1.47132e-13
1.69191e-13
2.24513e-13
3.76806e-13
7.38679e-13
1.55755e-12
3.3977e-12
7.19412e-12
1.47829e-11
3.06198e-11
7.29742e-11
3.51466e-10
1.84609e-09
1.79752e-09
6.95266e-15
1.42962e-14
2.26427e-14
3.07686e-14
4.02952e-14
5.28324e-14
7.85893e-14
1.47471e-13
3.26981e-13
7.76181e-13
1.89529e-12
4.40408e-12
9.92171e-12
2.2748e-11
5.07518e-11
1.23592e-10
5.14543e-10
1.87389e-09
1.62411e-09
1.13363e-15
2.69926e-15
4.85558e-15
8.30173e-15
1.34012e-14
2.41715e-14
5.1665e-14
1.27777e-13
3.22972e-13
8.10964e-13
1.9873e-12
4.7254e-12
1.10134e-11
3.21508e-11
8.36776e-11
2.27781e-10
7.00673e-10
1.87992e-09
1.26576e-09
2.22686e-16
5.65936e-16
1.24229e-15
2.68465e-15
6.34331e-15
1.61599e-14
4.31991e-14
1.16406e-13
3.04836e-13
7.71243e-13
1.946e-12
4.70778e-12
1.08896e-11
3.54678e-11
1.25256e-10
3.05622e-10
8.66591e-10
1.8607e-09
8.84891e-10
4.76045e-17
1.62889e-16
4.68885e-16
1.41523e-15
4.22802e-15
1.25895e-14
3.57347e-14
9.83014e-14
2.59935e-13
6.73243e-13
1.73987e-12
4.49993e-12
1.12987e-11
3.40446e-11
1.43804e-10
3.68977e-10
8.88152e-10
1.51414e-09
7.26045e-10
1.75418e-17
7.57105e-17
2.70762e-16
9.30951e-16
3.01453e-15
9.09086e-15
2.59079e-14
7.25513e-14
1.93353e-13
5.14904e-13
1.39512e-12
3.82743e-12
1.03824e-11
2.7116e-11
1.14537e-10
3.90041e-10
8.19425e-10
1.05495e-09
5.81113e-10
8.58168e-18
3.79081e-17
1.56232e-16
5.65083e-16
1.8603e-15
5.61901e-15
1.62078e-14
4.48137e-14
1.2184e-13
3.43966e-13
9.83599e-13
2.8665e-12
8.17304e-12
2.20168e-11
7.19905e-11
2.94866e-10
6.58516e-10
8.21155e-10
4.01096e-10
3.28982e-18
1.72183e-17
7.14477e-17
2.64575e-16
9.07434e-16
2.78201e-15
8.08322e-15
2.25773e-14
6.49939e-14
1.91308e-13
5.92649e-13
1.85332e-12
5.47785e-12
1.46861e-11
3.7336e-11
1.64283e-10
4.61029e-10
5.7893e-10
2.36147e-10
1.13459e-18
6.44777e-18
2.77183e-17
1.04508e-16
3.57161e-16
1.1041e-15
3.18312e-15
9.53731e-15
2.8934e-14
9.38612e-14
3.17879e-13
1.07594e-12
3.35085e-12
9.1199e-12
2.22555e-11
6.32534e-11
2.14804e-10
3.632e-10
1.19692e-10
2.85861e-19
1.84911e-18
8.33386e-18
3.3032e-17
1.13724e-16
3.50091e-16
1.03467e-15
3.12762e-15
1.03105e-14
3.71893e-14
1.41787e-13
5.31877e-13
1.74561e-12
4.90146e-12
1.15709e-11
2.71141e-11
7.63211e-11
1.62328e-10
6.60934e-11
6.55547e-20
3.91396e-19
1.83062e-18
7.38108e-18
2.64016e-17
8.44875e-17
2.67554e-16
8.9471e-16
3.18593e-15
1.2782e-14
5.50185e-14
2.26108e-13
8.08528e-13
2.41217e-12
5.90182e-12
1.29896e-11
2.69988e-11
5.92983e-11
3.37623e-11
1.08919e-20
6.12858e-20
2.90892e-19
1.1898e-18
4.2381e-18
1.41032e-17
4.91503e-17
1.81533e-16
7.39279e-16
3.46941e-15
1.74921e-14
8.28712e-14
3.24532e-13
1.01322e-12
2.60883e-12
5.69412e-12
1.13624e-11
1.8217e-11
1.82798e-11
1.16639e-21
7.09645e-21
3.21811e-20
1.28924e-19
4.75751e-19
1.67319e-18
6.35683e-18
2.64018e-17
1.25867e-16
6.93293e-16
4.17004e-15
2.3377e-14
1.03428e-13
3.48687e-13
9.31153e-13
2.00255e-12
3.56398e-12
6.28644e-12
7.51174e-12
1.21751e-22
5.9098e-22
2.25925e-21
8.048e-21
2.97124e-20
1.12435e-19
5.14317e-19
2.76156e-18
1.63399e-17
1.10302e-16
7.71565e-16
5.126e-15
2.59814e-14
9.66663e-14
2.75408e-13
6.32681e-13
1.20268e-12
1.97356e-12
3.12964e-12
9.96999e-24
3.94088e-23
1.30565e-22
4.9129e-22
2.15544e-21
1.08928e-20
6.07853e-20
3.66595e-19
2.53411e-18
1.86277e-17
1.44066e-16
1.0591e-15
5.8904e-15
2.31967e-14
6.83993e-14
1.57734e-13
2.52646e-13
6.51658e-13
1.0379e-12
7.19171e-25
2.14603e-24
6.04145e-24
2.30845e-23
1.24784e-22
8.02322e-22
5.70683e-21
4.18697e-20
3.36432e-19
2.71658e-18
2.19614e-17
1.57279e-16
9.59216e-16
4.19007e-15
1.38326e-14
3.42488e-14
5.6568e-14
1.49586e-13
1.8513e-13
4.25172e-26
9.1578e-26
2.11683e-25
8.64676e-25
5.73558e-24
4.38496e-23
3.65365e-22
3.4355e-21
3.12943e-20
2.55914e-19
2.02737e-18
1.37331e-17
8.64704e-17
4.12556e-16
1.48752e-15
4.07759e-15
8.18115e-15
1.65858e-14
6.08425e-15
)
;

boundaryField
{
    leftWall
    {
        type            zeroGradient;
    }
    rightWall
    {
        type            zeroGradient;
    }
    lowerWall
    {
        type            zeroGradient;
    }
    atmosphere
    {
        type            inletOutlet;
        inletValue      uniform 0;
        value           nonuniform List<scalar> 
46
(
0
0
3.17755e-09
3.70423e-09
4.09532e-09
4.7075e-09
4.75845e-09
0
0
0
0
0
0
0
0
0
0
0
0
0
8.64634e-21
9.92879e-22
8.48702e-23
9.35607e-24
6.30479e-25
8.57419e-27
1.8482e-26
4.25172e-26
9.1578e-26
2.11683e-25
8.64676e-25
5.73558e-24
4.38496e-23
3.65365e-22
3.4355e-21
3.12943e-20
2.55914e-19
2.02737e-18
1.37331e-17
8.64704e-17
4.12556e-16
1.48752e-15
4.07759e-15
8.18115e-15
1.65858e-14
6.08425e-15
)
;
    }
    defaultFaces
    {
        type            empty;
    }
}


// ************************************************************************* //
