/*--------------------------------*- C++ -*----------------------------------*\
| =========                 |                                                 |
| \\      /  F ield         | OpenFOAM: The Open Source CFD Toolbox           |
|  \\    /   O peration     | Version:  2312                                  |
|   \\  /    A nd           | Website:  www.openfoam.com                      |
|    \\/     M anipulation  |                                                 |
\*---------------------------------------------------------------------------*/
FoamFile
{
    version     2.0;
    format      ascii;
    arch        "LSB;label=32;scalar=64";
    class       surfaceScalarField;
    location    "2.4";
    object      phi;
}
// * * * * * * * * * * * * * * * * * * * * * * * * * * * * * * * * * * * * * //

dimensions      [0 3 -1 0 0 0 0];

oriented        oriented;

internalField   nonuniform List<scalar> 
4432
(
2.15021e-06
-2.15023e-06
2.96997e-06
-8.19778e-07
3.73572e-06
-7.65769e-07
4.66478e-06
-9.29067e-07
5.81463e-06
-1.14986e-06
7.09523e-06
-1.2806e-06
8.39175e-06
-1.29652e-06
9.60472e-06
-1.21297e-06
1.0656e-05
-1.05131e-06
1.14579e-05
-8.01835e-07
1.1924e-05
-4.66145e-07
1.20225e-05
-9.84661e-08
1.17889e-05
2.33567e-07
1.12865e-05
5.02455e-07
1.05823e-05
7.04116e-07
9.72043e-06
8.61904e-07
8.70639e-06
1.01403e-06
7.51556e-06
1.19083e-06
6.16405e-06
1.35151e-06
4.67251e-06
1.49154e-06
3.10962e-06
1.56289e-06
1.41488e-06
1.69475e-06
1.41488e-06
9.45856e-07
-3.09612e-06
1.73533e-06
-1.60928e-06
2.60813e-06
-1.6386e-06
3.69798e-06
-2.01893e-06
5.03584e-06
-2.48774e-06
6.48421e-06
-2.72898e-06
7.91351e-06
-2.72582e-06
9.22647e-06
-2.52594e-06
1.03576e-05
-2.18247e-06
1.12173e-05
-1.66153e-06
1.17189e-05
-9.67736e-07
1.18321e-05
-2.11608e-07
1.16051e-05
4.60517e-07
1.11035e-05
1.00403e-06
1.04013e-05
1.40631e-06
9.54445e-06
1.71875e-06
8.54566e-06
2.01282e-06
7.36124e-06
2.37524e-06
6.0008e-06
2.71194e-06
4.491e-06
3.00134e-06
2.93831e-06
3.11558e-06
1.26625e-06
3.36683e-06
2.68113e-06
3.19872e-07
-3.41602e-06
8.91475e-07
-2.1809e-06
1.69551e-06
-2.44264e-06
2.83295e-06
-3.15638e-06
4.28477e-06
-3.93957e-06
5.86034e-06
-4.30456e-06
7.40908e-06
-4.27456e-06
8.82575e-06
-3.9426e-06
1.00536e-05
-3.4103e-06
1.10034e-05
-2.61137e-06
1.15738e-05
-1.53814e-06
1.17336e-05
-3.71354e-07
1.15296e-05
6.64441e-07
1.10297e-05
1.50398e-06
1.0325e-05
2.11096e-06
9.47572e-06
2.56806e-06
8.51403e-06
2.97451e-06
7.37148e-06
3.51779e-06
6.06744e-06
4.01599e-06
4.60219e-06
4.46658e-06
3.07356e-06
4.64422e-06
1.48989e-06
4.95049e-06
4.17103e-06
-7.81041e-08
-3.33794e-06
2.91369e-07
-2.5504e-06
9.55427e-07
-3.10672e-06
2.0637e-06
-4.26467e-06
3.58652e-06
-5.4624e-06
5.29283e-06
-6.01089e-06
6.99156e-06
-5.97329e-06
8.55638e-06
-5.50743e-06
9.93826e-06
-4.79217e-06
1.10237e-05
-3.69685e-06
1.16623e-05
-2.17672e-06
1.18257e-05
-5.34714e-07
1.15946e-05
8.95572e-07
1.10578e-05
2.0407e-06
1.03443e-05
2.82452e-06
9.5236e-06
3.38871e-06
8.67364e-06
3.82447e-06
7.63288e-06
4.55853e-06
6.42819e-06
5.22068e-06
4.98819e-06
5.90659e-06
3.44174e-06
6.19067e-06
1.94915e-06
6.44309e-06
6.12018e-06
-3.72506e-07
-2.96543e-06
-1.60305e-07
-2.7626e-06
3.53125e-07
-3.62015e-06
1.35092e-06
-5.26246e-06
2.83798e-06
-6.94944e-06
4.61434e-06
-7.78724e-06
6.46595e-06
-7.8249e-06
8.19126e-06
-7.23273e-06
9.72149e-06
-6.3224e-06
1.09731e-05
-4.94845e-06
1.1754e-05
-2.9576e-06
1.19466e-05
-7.27328e-07
1.16312e-05
1.21092e-06
1.09477e-05
2.72428e-06
1.01388e-05
3.63339e-06
9.30267e-06
4.22482e-06
8.63607e-06
4.49106e-06
7.78088e-06
5.41372e-06
6.8542e-06
6.14736e-06
5.5039e-06
7.25689e-06
3.65633e-06
8.03824e-06
2.0036e-06
8.09583e-06
8.12377e-06
-8.54786e-07
-2.11071e-06
-7.31928e-07
-2.8855e-06
-6.37907e-08
-4.28831e-06
9.8085e-07
-6.30712e-06
2.33009e-06
-8.29869e-06
3.96224e-06
-9.41939e-06
5.704e-06
-9.56666e-06
7.36488e-06
-8.89362e-06
8.76827e-06
-7.72578e-06
9.82112e-06
-6.00131e-06
1.04569e-05
-3.59334e-06
1.05756e-05
-8.46048e-07
1.03516e-05
1.43487e-06
9.76869e-06
3.30721e-06
9.18358e-06
4.2185e-06
8.44903e-06
4.95936e-06
7.78141e-06
5.15868e-06
7.18223e-06
6.0129e-06
6.53066e-06
6.79892e-06
5.73576e-06
8.05179e-06
4.35069e-06
9.42331e-06
2.56013e-06
9.88638e-06
1.06839e-05
-5.51065e-06
3.39988e-06
-6.03802e-06
-2.35822e-06
-3.21377e-06
-7.11262e-06
-8.66732e-07
-8.6542e-06
7.39178e-07
-9.90463e-06
2.36112e-06
-1.10413e-05
4.05711e-06
-1.12627e-05
5.89229e-06
-1.07288e-05
7.35309e-06
-9.18659e-06
8.07605e-06
-6.72428e-06
8.37994e-06
-3.89724e-06
8.71455e-06
-1.18067e-06
8.69801e-06
1.4514e-06
8.37202e-06
3.63318e-06
7.72329e-06
4.86723e-06
7.96712e-06
4.71552e-06
7.99101e-06
5.13478e-06
8.90118e-06
5.10271e-06
9.36738e-06
6.33271e-06
9.16181e-06
8.25734e-06
8.45356e-06
1.01316e-05
4.10747e-06
1.42325e-05
1.47913e-05
-6.50128e-06
9.90106e-06
-7.31203e-06
-1.54753e-06
-5.66408e-06
-8.76061e-06
-4.28924e-06
-1.00291e-05
-3.34533e-06
-1.08486e-05
-2.99617e-06
-1.13905e-05
-3.81417e-06
-1.04447e-05
-4.86931e-06
-9.67367e-06
-5.16211e-06
-8.8938e-06
-4.31806e-06
-7.56833e-06
-2.29404e-06
-5.92127e-06
3.54805e-07
-3.82953e-06
2.10594e-06
-2.99756e-07
2.09619e-06
3.64291e-06
1.19689e-06
5.76651e-06
2.00235e-06
3.91005e-06
2.41232e-06
4.7248e-06
4.0593e-06
3.45572e-06
6.2432e-06
4.14879e-06
6.31494e-06
8.1856e-06
6.90002e-06
9.54647e-06
3.75154e-06
1.73809e-05
1.85429e-05
-2.34956e-06
2.34957e-06
-3.07227e-06
7.22713e-07
-4.62034e-06
1.54807e-06
-6.06775e-06
1.4474e-06
-7.56982e-06
1.50208e-06
-8.04374e-06
4.73911e-07
-6.22858e-06
-1.81516e-06
-2.17585e-06
-4.05273e-06
1.23793e-06
-3.41379e-06
2.43242e-06
-1.19449e-06
2.4046e-06
2.78211e-08
2.72737e-06
-3.22768e-07
2.98888e-06
-2.61512e-07
2.23379e-06
7.55084e-07
4.92693e-07
1.7411e-06
-2.20031e-06
2.693e-06
-4.63216e-06
2.43185e-06
-4.59695e-06
-3.52091e-08
-4.59696e-06
1.63191e-06
7.17679e-07
9.64365e-07
1.39027e-06
3.40075e-08
2.47844e-06
-6.89471e-07
2.17089e-06
-9.10871e-07
1.72348e-06
-4.34054e-08
-3.93553e-07
2.29385e-06
-4.15241e-06
5.37387e-06
-7.13275e-06
7.93791e-06
-5.97784e-06
1.01001e-05
-3.35664e-06
1.19728e-05
-1.84492e-06
1.30068e-05
-1.35675e-06
1.27168e-05
2.85021e-08
9.83842e-06
3.63343e-06
5.76516e-06
5.81436e-06
1.3883e-06
7.06987e-06
-2.45182e-06
6.27198e-06
-3.411e-06
9.23967e-07
-8.00795e-06
2.5401e-07
4.63686e-07
-4.6574e-07
2.11003e-06
-8.68614e-07
2.88131e-06
-8.42518e-07
2.14479e-06
2.81037e-07
5.99918e-07
2.16961e-06
-2.28213e-06
4.7957e-06
-6.7785e-06
9.07015e-06
-1.14072e-05
1.28171e-05
-9.72483e-06
1.58958e-05
-6.43531e-06
1.86458e-05
-4.59495e-06
1.97834e-05
-2.49435e-06
2.02594e-05
-4.4748e-07
1.86165e-05
5.27629e-06
1.36271e-05
1.08038e-05
5.86559e-06
1.48314e-05
8.60282e-07
1.12773e-05
-3.35743e-07
2.11999e-06
-8.3437e-06
1.14119e-07
3.49668e-07
2.2536e-06
-2.93861e-08
4.05422e-06
1.08073e-06
3.62862e-06
2.57042e-06
1.33069e-06
2.89787e-06
2.03755e-06
-2.98897e-06
4.35751e-06
-9.09846e-06
7.97893e-06
-1.50286e-05
1.17971e-05
-1.35429e-05
1.4217e-05
-8.85522e-06
1.62548e-05
-6.63272e-06
1.71424e-05
-3.38196e-06
1.85814e-05
-1.88645e-06
2.2711e-05
1.14663e-06
2.20217e-05
1.14931e-05
1.32593e-05
2.35938e-05
5.42222e-06
1.91143e-05
8.38171e-07
6.70404e-06
-7.50552e-06
2.25074e-06
-1.90107e-06
6.23756e-06
-4.0162e-06
9.46229e-06
-2.14401e-06
1.38336e-05
-1.80094e-06
1.39295e-05
2.80201e-06
1.01703e-05
7.70219e-07
4.88566e-06
-3.81386e-06
3.10585e-06
-1.32488e-05
6.20715e-06
-1.66443e-05
6.7698e-06
-9.41789e-06
7.80293e-06
-7.66586e-06
1.09219e-05
-6.50092e-06
1.29607e-05
-3.92529e-06
1.81632e-05
-4.05592e-06
1.91955e-05
1.04608e-05
1.50381e-05
2.77512e-05
6.71261e-06
2.74398e-05
1.1471e-06
1.22695e-05
-6.35843e-06
1.78215e-06
-3.68315e-06
6.41102e-06
-8.64502e-06
1.05151e-05
-6.24806e-06
1.62311e-05
-7.5169e-06
2.22018e-05
-3.16866e-06
1.83946e-05
4.57747e-06
6.70979e-06
7.87095e-06
6.84981e-07
-7.22399e-06
5.11989e-07
-1.64713e-05
1.36791e-06
-1.02738e-05
3.67356e-06
-9.97149e-06
5.01156e-06
-7.83891e-06
5.33937e-06
-4.25309e-06
5.75447e-06
-4.47101e-06
7.3647e-06
8.85058e-06
8.50922e-06
2.66067e-05
9.66167e-06
2.62874e-05
4.88584e-06
1.70454e-05
-1.47256e-06
5.37351e-07
-4.22045e-06
2.67783e-06
-1.07855e-05
6.43538e-06
-1.00056e-05
1.14276e-05
-1.25091e-05
1.73928e-05
-9.13381e-06
1.57637e-05
6.20656e-06
7.16536e-06
1.64693e-05
-8.03602e-07
7.44993e-07
-5.62543e-06
-1.16494e-05
-7.91429e-06
-7.98491e-06
-6.55756e-06
-1.13282e-05
-6.44912e-06
-7.94733e-06
-7.31704e-06
-3.38516e-06
-6.22336e-06
-5.56467e-06
-2.57245e-06
5.19968e-06
1.85319e-06
2.21811e-05
5.95836e-06
2.21822e-05
9.16746e-06
1.38363e-05
7.69491e-06
-1.84156e-07
-4.03627e-06
1.23919e-06
-1.22088e-05
3.94058e-06
-1.2707e-05
8.09771e-06
-1.66662e-05
1.32542e-05
-1.42903e-05
1.13538e-05
8.10697e-06
2.55958e-06
2.52636e-05
-7.32384e-06
1.06284e-05
-1.27532e-05
-6.22001e-06
-1.20696e-05
-8.66857e-06
-8.77992e-06
-1.46178e-05
-3.95677e-06
-1.27705e-05
-3.00046e-06
-4.34147e-06
-5.33382e-06
-3.2313e-06
-7.70508e-06
7.57096e-06
-6.27499e-06
2.0751e-05
-2.24428e-06
1.81515e-05
4.21079e-06
7.38124e-06
1.19057e-05
-1.15447e-05
2.14457e-05
-2.11576e-05
8.06538e-06
-2.27819e-05
-7.13631e-06
-2.57082e-05
-7.10279e-06
-2.9208e-05
-7.34875e-06
-3.30933e-05
-7.50516e-06
-3.55692e-05
-7.96881e-06
-3.64768e-05
-8.76606e-06
-3.5661e-05
-9.70971e-06
-3.28158e-05
-1.04135e-05
-2.83665e-05
-1.03706e-05
-2.3894e-05
-8.30201e-06
-2.16775e-05
-2.51628e-06
-2.0437e-05
2.40243e-06
-1.86491e-05
3.97859e-06
-1.54237e-05
6.84599e-07
-1.16925e-05
9.9357e-07
-8.42256e-06
1.85796e-07
-5.3068e-06
1.03303e-06
-2.1862e-06
5.06499e-06
-1.02812e-06
8.38838e-06
4.01268e-07
1.59515e-05
1.93351e-05
-3.90988e-07
1.03162e-05
1.11294e-05
-9.7711e-06
2.81526e-05
-3.01531e-05
1.32456e-05
-3.52501e-05
-2.00578e-06
-3.55423e-05
-7.05655e-06
-3.67885e-05
-6.25898e-06
-3.8649e-05
-6.10827e-06
-4.00751e-05
-7.33997e-06
-4.04983e-05
-9.28655e-06
-3.93794e-05
-1.15323e-05
-3.67713e-05
-1.29788e-05
-3.32407e-05
-1.18326e-05
-2.98931e-05
-5.86388e-06
-2.66135e-05
-8.77185e-07
-2.30333e-05
3.98355e-07
-1.84698e-05
-3.87889e-06
-1.24317e-05
-5.04457e-06
-1.14002e-05
-8.45687e-07
-1.25796e-05
2.21245e-06
-1.34162e-05
5.90158e-06
-1.26496e-05
7.62178e-06
-6.79184e-06
1.00937e-05
1.39995e-05
-1.4562e-06
3.32687e-05
-2.21393e-05
3.11961e-05
3.02252e-05
6.20593e-06
3.82359e-05
-1.46091e-05
1.88093e-05
-2.45358e-05
2.87018e-06
-2.79932e-05
-2.80162e-06
-3.21201e-05
-1.98138e-06
-3.63148e-05
-3.14534e-06
-3.91619e-05
-6.43946e-06
-3.94028e-05
-1.12915e-05
-3.75083e-05
-1.48733e-05
-3.39066e-05
-1.54343e-05
-2.7957e-05
-1.18135e-05
-2.07456e-05
-8.08858e-06
-1.17339e-05
-8.61334e-06
-4.914e-06
-1.06988e-05
-2.70817e-06
-7.2504e-06
-4.4601e-06
9.0624e-07
-7.24435e-06
4.9967e-06
-7.2852e-06
5.94242e-06
-6.90575e-06
7.24232e-06
-3.18367e-06
6.37167e-06
8.15586e-06
2.6599e-06
2.97012e-05
-5.18405e-05
4.0133e-05
1.97935e-05
3.21456e-05
4.62232e-05
1.3972e-05
3.69828e-05
3.55547e-07
1.64866e-05
-7.26731e-06
4.82122e-06
-1.0903e-05
1.65427e-06
-1.49185e-05
8.70159e-07
-1.89802e-05
-2.37771e-06
-2.12202e-05
-9.05157e-06
-2.08884e-05
-1.52051e-05
-1.85704e-05
-1.77523e-05
-1.54405e-05
-1.49433e-05
-1.03392e-05
-1.31899e-05
-2.97621e-06
-1.59764e-05
4.21375e-06
-1.78888e-05
8.0356e-06
-1.10723e-05
8.08318e-06
8.58654e-07
8.54051e-06
4.53937e-06
1.20574e-05
2.42552e-06
1.54027e-05
3.89709e-06
1.59846e-05
5.78967e-06
6.30462e-06
1.78359e-05
2.62013e-05
-7.80417e-05
3.0792e-05
1.52028e-05
3.33826e-05
4.36325e-05
3.0949e-05
3.94165e-05
2.78555e-05
1.95801e-05
2.30463e-05
9.63037e-06
1.98832e-05
4.81744e-06
1.81163e-05
2.63697e-06
1.69894e-05
-1.2508e-06
1.54844e-05
-7.54656e-06
1.4428e-05
-1.41487e-05
1.3828e-05
-1.71523e-05
1.35707e-05
-1.4686e-05
1.47699e-05
-1.43891e-05
1.6579e-05
-1.77854e-05
1.68468e-05
-1.81566e-05
1.73629e-05
-1.15884e-05
1.91534e-05
-9.31868e-07
2.05195e-05
3.17327e-06
2.22381e-05
7.06987e-07
2.54197e-05
7.1545e-07
2.87938e-05
2.41561e-06
1.64591e-06
3.34525e-05
1.91053e-05
-9.7147e-05
9.31968e-06
2.49885e-05
1.7113e-05
3.58392e-05
2.96546e-05
2.68749e-05
3.93734e-05
9.86141e-06
4.45317e-05
4.47202e-06
4.70696e-05
2.27951e-06
4.91612e-05
5.45354e-07
5.03527e-05
-2.44233e-06
5.03077e-05
-7.50155e-06
4.94335e-05
-1.32745e-05
4.81411e-05
-1.586e-05
4.76387e-05
-1.41836e-05
4.61295e-05
-1.28799e-05
4.29795e-05
-1.46355e-05
3.98039e-05
-1.4981e-05
3.93789e-05
-1.11633e-05
4.18245e-05
-3.37753e-06
4.20486e-05
2.94922e-06
4.05397e-05
2.21587e-06
4.08297e-05
4.25509e-07
4.37083e-05
-4.63028e-07
-3.33224e-06
4.86864e-05
5.57386e-06
-0.000102721
-1.18361e-05
4.23987e-05
-1.47874e-06
2.54819e-05
2.13478e-05
4.04838e-06
3.90028e-05
-7.79349e-06
4.88892e-05
-5.41446e-06
5.42309e-05
-3.06216e-06
5.72943e-05
-2.51814e-06
5.85181e-05
-3.66611e-06
5.81915e-05
-7.17503e-06
5.68588e-05
-1.19418e-05
5.60371e-05
-1.50384e-05
5.64515e-05
-1.45979e-05
5.69107e-05
-1.33391e-05
5.51552e-05
-1.288e-05
5.22135e-05
-1.20393e-05
5.06753e-05
-9.62521e-06
5.22685e-05
-4.97072e-06
5.43696e-05
8.48153e-07
5.41318e-05
2.45369e-06
5.39725e-05
5.84807e-07
5.57983e-05
-2.28887e-06
-5.43655e-06
5.79026e-05
-8.40283e-08
-0.000102637
-4.27372e-06
4.65886e-05
-4.87954e-06
2.60878e-05
1.31159e-05
-1.39471e-05
3.35258e-05
-2.82033e-05
4.60934e-05
-1.79822e-05
5.26198e-05
-9.58858e-06
5.58478e-05
-5.74611e-06
5.65699e-05
-4.38831e-06
5.58796e-05
-6.48467e-06
5.45671e-05
-1.06295e-05
5.35422e-05
-1.40135e-05
5.4318e-05
-1.53738e-05
5.54288e-05
-1.445e-05
5.4323e-05
-1.17742e-05
5.18798e-05
-9.5961e-06
5.03041e-05
-8.04951e-06
5.05463e-05
-5.21295e-06
5.2442e-05
-1.04759e-06
5.30191e-05
1.87663e-06
5.32528e-05
3.51087e-07
5.48651e-05
-3.90118e-06
-1.10568e-05
6.04854e-05
-6.12074e-06
-9.65157e-05
1.96442e-05
2.08239e-05
1.67567e-05
2.89755e-05
2.56119e-05
-2.28021e-05
3.41913e-05
-3.67828e-05
4.09032e-05
-2.4694e-05
4.48766e-05
-1.35619e-05
4.71856e-05
-8.05513e-06
4.67533e-05
-3.95591e-06
4.51132e-05
-4.84465e-06
4.31769e-05
-8.6932e-06
4.29142e-05
-1.37508e-05
4.57087e-05
-1.81682e-05
4.81991e-05
-1.69404e-05
4.74301e-05
-1.10052e-05
4.51771e-05
-7.34317e-06
4.25933e-05
-5.46567e-06
4.30227e-05
-5.6424e-06
4.77497e-05
-5.77469e-06
5.28369e-05
-3.21058e-06
5.94055e-05
-6.21765e-06
5.53614e-05
1.42958e-07
-6.01253e-06
5.0317e-05
-1.95483e-05
-7.69674e-05
2.35064e-05
-2.22307e-05
4.08358e-05
1.1646e-05
4.38488e-05
-2.58151e-05
3.83263e-05
-3.12603e-05
3.5971e-05
-2.23387e-05
3.47913e-05
-1.23822e-05
3.38831e-05
-7.14684e-06
3.09537e-05
-1.02651e-06
2.75438e-05
-1.43469e-06
2.5113e-05
-6.26242e-06
2.76279e-05
-1.62657e-05
3.70706e-05
-2.76111e-05
5.10279e-05
-3.08978e-05
6.33304e-05
-2.33079e-05
8.09711e-05
-2.49843e-05
7.18413e-05
3.66352e-06
6.32986e-05
2.89979e-06
6.59325e-05
-8.40897e-06
7.12379e-05
-8.51623e-06
6.71724e-05
-2.15219e-06
7.20931e-05
-4.77802e-06
5.27568e-06
6.08051e-05
-1.81667e-05
-5.88008e-05
1.42615e-06
-4.18238e-05
2.85236e-05
-1.54517e-05
3.12873e-05
-2.85789e-05
2.82486e-05
-2.82216e-05
2.03908e-05
-1.44809e-05
1.11669e-05
-3.15828e-06
6.55979e-06
-2.53962e-06
9.08037e-06
-3.54692e-06
1.71691e-05
-9.5227e-06
3.96628e-05
-2.87555e-05
7.40224e-05
-5.06252e-05
7.21344e-05
-2.5724e-05
7.07655e-05
-2.95308e-05
5.94731e-05
-1.2018e-05
3.87537e-05
-4.26726e-06
2.57179e-05
1.66975e-05
1.186e-05
1.67563e-05
-8.36358e-08
3.5337e-06
-1.18476e-05
3.24705e-06
-1.78949e-05
3.89476e-06
-2.52661e-05
2.59337e-06
1.30358e-05
-3.30265e-05
-8.63465e-06
-5.01666e-05
1.4101e-06
-5.1869e-05
2.61624e-05
-4.02043e-05
4.03691e-05
-4.27857e-05
5.52024e-05
-4.30549e-05
8.09402e-05
-4.02187e-05
0.000114812
-3.70297e-05
0.000148899
-3.66275e-05
0.000178888
-3.35363e-05
0.00015917
1.01967e-05
0.000110865
1.95503e-05
4.57892e-05
1.44507e-05
1.04938e-06
1.90141e-05
-3.22787e-05
3.79471e-06
-4.65907e-05
2.29137e-06
-5.46382e-05
3.778e-06
-4.7549e-05
9.60666e-06
-4.25901e-05
1.17961e-05
-4.71408e-05
8.08336e-06
-5.03306e-05
6.43632e-06
-5.15202e-05
5.08408e-06
-5.38642e-05
4.93677e-06
1.07526e-05
-5.1581e-05
9.7444e-06
-5.99118e-05
2.77748e-05
-6.99e-05
5.52096e-05
-6.76395e-05
8.09266e-05
-6.85029e-05
0.000109531
-7.1659e-05
0.000145167
-7.58545e-05
0.000183819
-7.56824e-05
0.000219725
-7.25348e-05
0.000232616
-4.64257e-05
0.000180019
6.27861e-05
0.000106416
9.31538e-05
3.00962e-05
9.07769e-05
-3.64724e-06
5.27565e-05
-2.59997e-05
2.61457e-05
-3.82954e-05
1.45855e-05
-4.45511e-05
1.00322e-05
-4.59649e-05
1.10192e-05
-4.50561e-05
1.08861e-05
-4.58812e-05
8.90762e-06
-4.79728e-05
8.52733e-06
-5.0125e-05
7.23577e-06
-5.07653e-05
5.57726e-06
7.44451e-06
-4.74577e-05
2.28352e-05
-8.27479e-05
4.57259e-05
-9.27911e-05
6.99295e-05
-9.18433e-05
9.05138e-05
-8.90873e-05
0.000109985
-9.11299e-05
0.000131601
-9.74699e-05
0.000157556
-0.000101636
0.000187687
-0.000102668
0.000130305
1.09537e-05
7.99513e-05
0.00011314
4.04572e-05
0.000132652
2.79956e-05
0.000103239
1.59347e-05
6.48172e-05
2.29434e-06
3.97852e-05
-1.16642e-05
2.85429e-05
-2.25664e-05
2.09331e-05
-2.84752e-05
1.69269e-05
-3.12485e-05
1.36584e-05
-3.3507e-05
1.11653e-05
-3.50594e-05
1.00793e-05
-3.64029e-05
8.57916e-06
-3.66461e-05
5.81966e-06
4.76551e-06
-3.39669e-05
2.83953e-05
-0.000111143
5.03871e-05
-0.000114783
7.0209e-05
-0.000111665
8.92176e-05
-0.000108096
0.00011033
-0.000112242
0.000132945
-0.000120082
0.000123129
-9.18157e-05
5.85882e-05
-3.81265e-05
8.18321e-06
6.13572e-05
-6.13823e-06
0.000127464
1.88911e-06
0.000124625
1.04702e-05
9.46586e-05
1.13019e-05
6.39853e-05
7.29736e-06
4.37892e-05
1.26141e-06
3.45781e-05
-5.10337e-06
2.7297e-05
-9.66478e-06
2.14874e-05
-1.2754e-05
1.67468e-05
-1.48099e-05
1.32205e-05
-1.57944e-05
1.10632e-05
-1.6366e-05
9.15039e-06
-1.71756e-05
6.62982e-06
4.50675e-06
-1.69174e-05
2.63157e-05
-0.000137458
5.03381e-05
-0.000138805
6.94118e-05
-0.000130738
8.88419e-05
-0.000127524
0.000100826
-0.000124225
6.50601e-05
-8.4316e-05
5.89807e-06
-3.26526e-05
-5.66321e-05
2.44065e-05
-6.57355e-05
7.04618e-05
-4.63446e-05
0.000108074
-2.22266e-05
0.000100508
-4.52279e-06
7.6955e-05
4.30904e-06
5.51534e-05
6.33949e-06
4.17584e-05
6.78146e-06
3.41357e-05
4.97057e-06
2.91073e-05
2.56706e-06
2.38902e-05
9.03774e-08
1.92228e-05
-2.06807e-06
1.53784e-05
-3.43822e-06
1.2433e-05
-4.13545e-06
9.84753e-06
-4.78976e-06
7.28319e-06
5.0392e-06
-5.32217e-06
2.32668e-05
-0.000160725
4.38843e-05
-0.000159421
6.14866e-05
-0.000148339
6.0972e-05
-0.000127008
1.56319e-05
-7.88842e-05
-3.99918e-05
-2.86918e-05
-7.99519e-05
7.30754e-06
-9.22396e-05
3.66949e-05
-8.85373e-05
6.67602e-05
-6.08904e-05
8.04271e-05
-3.26078e-05
7.22253e-05
-1.31642e-05
5.75115e-05
-3.02415e-06
4.50133e-05
2.14622e-06
3.65879e-05
4.78964e-06
3.14919e-05
6.18705e-06
2.77095e-05
6.41441e-06
2.36624e-05
5.85098e-06
1.97857e-05
4.87096e-06
1.6358e-05
3.93168e-06
1.33719e-05
3.119e-06
1.06597e-05
2.31706e-06
8.08556e-06
5.88195e-06
1.4735e-06
2.07557e-05
-0.000181481
2.35325e-05
-0.000162197
7.45684e-06
-0.000132263
-3.01326e-05
-8.94186e-05
-7.30358e-05
-3.59799e-05
-9.33086e-05
-8.41783e-06
-0.000103003
1.70026e-05
-0.000102805
3.64979e-05
-8.66729e-05
5.06286e-05
-5.96854e-05
5.34398e-05
-3.56953e-05
4.82353e-05
-1.92068e-05
4.10231e-05
-9.37026e-06
3.51767e-05
-3.54656e-06
3.07641e-05
3.91185e-07
2.7554e-05
3.17326e-06
2.49271e-05
4.82419e-06
2.20111e-05
5.55433e-06
1.90552e-05
5.70109e-06
1.62108e-05
5.55474e-06
1.3518e-05
5.23533e-06
1.0979e-05
4.7257e-06
8.59419e-06
6.53994e-06
4.06766e-06
1.10636e-06
-0.000182586
-1.63573e-05
-0.000144734
-5.15811e-05
-9.70385e-05
-8.92622e-05
-5.17365e-05
-0.000106614
-1.86272e-05
-0.000112741
-2.28943e-06
-0.000109459
1.37211e-05
-9.81821e-05
2.52217e-05
-7.78611e-05
3.03081e-05
-5.5243e-05
3.08219e-05
-3.69305e-05
2.99229e-05
-2.41566e-05
2.82492e-05
-1.55129e-05
2.6533e-05
-9.51699e-06
2.47681e-05
-5.1256e-06
2.31625e-05
-1.75683e-06
2.15581e-05
6.7699e-07
1.9577e-05
2.28476e-06
1.74471e-05
3.29646e-06
1.51988e-05
3.87204e-06
1.29421e-05
4.12997e-06
1.07206e-05
4.07941e-06
8.64515e-06
6.82018e-06
3.7985e-06
-1.88347e-05
-0.000163751
-4.83028e-05
-0.000115265
-7.92775e-05
-6.60629e-05
-0.000100844
-3.01689e-05
-0.000108983
-1.04879e-05
-0.000109199
-2.07283e-06
-0.000100782
5.30506e-06
-8.55552e-05
9.99541e-06
-6.72512e-05
1.20045e-05
-5.0756e-05
1.4327e-05
-3.77879e-05
1.6955e-05
-2.8102e-05
1.85634e-05
-2.07678e-05
1.91988e-05
-1.51128e-05
1.91132e-05
-1.05932e-05
1.86427e-05
-6.89607e-06
1.78608e-05
-4.01331e-06
1.6694e-05
-1.80434e-06
1.52379e-05
-1.80459e-07
1.35746e-05
9.97625e-07
1.17638e-05
1.73669e-06
9.9814e-06
2.11408e-06
8.26676e-06
6.74939e-06
2.18462e-06
-3.16506e-05
-0.0001321
-6.23246e-05
-8.45904e-05
-8.46526e-05
-4.37343e-05
-9.66355e-05
-1.81855e-05
-9.93792e-05
-7.7437e-06
-9.5184e-05
-6.26758e-06
-8.45056e-05
-5.37287e-06
-7.03448e-05
-4.165e-06
-5.72389e-05
-1.10108e-06
-4.66112e-05
3.69964e-06
-3.78351e-05
8.179e-06
-3.05116e-05
1.12401e-05
-2.4349e-05
1.30362e-05
-1.91699e-05
1.39341e-05
-1.47801e-05
1.42529e-05
-1.10433e-05
1.41238e-05
-7.92908e-06
1.35797e-05
-5.39023e-06
1.26988e-05
-3.37873e-06
1.1563e-05
-1.88016e-06
1.0265e-05
-8.18054e-07
8.91878e-06
-1.53921e-07
7.60284e-06
6.3921e-06
2.02594e-07
-3.35121e-05
-9.85881e-05
-5.9415e-05
-5.86874e-05
-7.55625e-05
-2.75866e-05
-8.26281e-05
-1.11196e-05
-8.26233e-05
-7.74824e-06
-7.62573e-05
-1.26333e-05
-6.6138e-05
-1.54918e-05
-5.64541e-05
-1.38486e-05
-4.89749e-05
-8.57998e-06
-4.26245e-05
-2.65046e-06
-3.66023e-05
2.15692e-06
-3.09542e-05
5.59207e-06
-2.57961e-05
7.87809e-06
-2.11943e-05
9.3323e-06
-1.71299e-05
1.01884e-05
-1.35706e-05
1.05644e-05
-1.05126e-05
1.05216e-05
-7.9461e-06
1.01321e-05
-5.8585e-06
9.47518e-06
-4.23369e-06
8.64002e-06
-3.02751e-06
7.71253e-06
-2.19656e-06
6.77111e-06
5.89632e-06
-1.70094e-06
-3.00175e-05
-6.85705e-05
-5.06351e-05
-3.80696e-05
-6.20752e-05
-1.61464e-05
-6.61786e-05
-7.01593e-06
-6.38692e-05
-1.00574e-05
-5.7353e-05
-1.91492e-05
-5.04851e-05
-2.23594e-05
-4.57891e-05
-1.85443e-05
-4.20351e-05
-1.23337e-05
-3.80773e-05
-6.60802e-06
-3.38694e-05
-2.05083e-06
-2.95188e-05
1.24158e-06
-2.53176e-05
3.6769e-06
-2.14103e-05
5.42506e-06
-1.78433e-05
6.62136e-06
-1.46535e-05
7.37462e-06
-1.18615e-05
7.72952e-06
-9.47964e-06
7.7502e-06
-7.50834e-06
7.5038e-06
-5.93457e-06
7.0661e-06
-4.72908e-06
6.50675e-06
-3.85753e-06
5.89984e-06
5.32334e-06
-3.28489e-06
-2.22482e-05
-4.63221e-05
-3.6667e-05
-2.36508e-05
-4.44958e-05
-8.31762e-06
-4.71542e-05
-4.35757e-06
-4.49694e-05
-1.22423e-05
-4.05991e-05
-2.35196e-05
-3.80126e-05
-2.49459e-05
-3.67643e-05
-1.97925e-05
-3.51476e-05
-1.39502e-05
-3.28073e-05
-8.94814e-06
-2.98858e-05
-4.9722e-06
-2.67265e-05
-1.91758e-06
-2.35471e-05
4.97632e-07
-2.04035e-05
2.28147e-06
-1.74495e-05
3.66732e-06
-1.47455e-05
4.67057e-06
-1.23308e-05
5.3148e-06
-1.02377e-05
5.65703e-06
-8.47735e-06
5.74339e-06
-7.04318e-06
5.63188e-06
-5.91837e-06
5.38194e-06
-5.07418e-06
5.05514e-06
4.73285e-06
-4.48377e-06
-1.36107e-05
-3.2712e-05
-2.0908e-05
-1.63543e-05
-2.47562e-05
-4.47034e-06
-2.72295e-05
-1.88517e-06
-2.65355e-05
-1.29371e-05
-2.563e-05
-2.44256e-05
-2.68117e-05
-2.37645e-05
-2.78658e-05
-1.87384e-05
-2.79919e-05
-1.38239e-05
-2.71758e-05
-9.76416e-06
-2.56116e-05
-6.53627e-06
-2.35714e-05
-3.95765e-06
-2.12282e-05
-1.84547e-06
-1.88386e-05
-1.0807e-07
-1.64963e-05
1.32498e-06
-1.42764e-05
2.45067e-06
-1.22517e-05
3.29009e-06
-1.04671e-05
3.87234e-06
-8.93997e-06
4.21628e-06
-7.6738e-06
4.36565e-06
-6.65895e-06
4.36686e-06
-5.87875e-06
4.27512e-06
4.15924e-06
-5.30545e-06
-4.43032e-06
-2.82824e-05
-3.6722e-06
-1.71137e-05
-3.04816e-06
-5.09596e-06
-4.49773e-06
-4.37256e-07
-7.30808e-06
-1.01279e-05
-1.13802e-05
-2.03543e-05
-1.57959e-05
-1.93491e-05
-1.90688e-05
-1.54656e-05
-2.09988e-05
-1.1894e-05
-2.17046e-05
-9.05829e-06
-2.14405e-05
-6.80036e-06
-2.04589e-05
-4.93918e-06
-1.89831e-05
-3.32114e-06
-1.72308e-05
-1.86033e-06
-1.53679e-05
-5.37942e-07
-1.35665e-05
6.49266e-07
-1.18686e-05
1.59224e-06
-1.03549e-05
2.35854e-06
-9.04059e-06
2.90198e-06
-7.93751e-06
3.26255e-06
-7.04066e-06
3.47001e-06
-6.3353e-06
3.56942e-06
3.63141e-06
-5.80755e-06
3.67542e-06
-3.19596e-05
1.47747e-05
-2.82147e-05
2.39822e-05
-1.43051e-05
2.52165e-05
-1.67286e-06
1.6468e-05
-1.38058e-06
4.56665e-06
-8.45367e-06
-4.63149e-06
-1.01514e-05
-1.06213e-05
-9.47598e-06
-1.44963e-05
-8.01916e-06
-1.67402e-05
-6.8144e-06
-1.77044e-05
-5.83615e-06
-1.7675e-05
-4.96861e-06
-1.6921e-05
-4.07509e-06
-1.57063e-05
-3.07501e-06
-1.42651e-05
-1.97908e-06
-1.27493e-05
-8.6654e-07
-1.13187e-05
1.61565e-07
-1.0014e-05
1.05388e-06
-8.88296e-06
1.77092e-06
-7.92787e-06
2.30742e-06
-7.14661e-06
2.68862e-06
-6.52903e-06
2.95195e-06
3.15743e-06
-6.05521e-06
5.94509e-06
-3.79062e-05
3.12886e-05
-5.35594e-05
5.54573e-05
-3.84749e-05
6.14244e-05
-7.63997e-06
4.70291e-05
1.30145e-05
2.3047e-05
1.5528e-05
6.37483e-06
6.52054e-06
-2.95493e-06
-1.46455e-07
-8.80647e-06
-2.1678e-06
-1.25075e-05
-3.11346e-06
-1.45854e-05
-3.75831e-06
-1.5362e-05
-4.19205e-06
-1.51676e-05
-4.26953e-06
-1.43422e-05
-3.9004e-06
-1.31814e-05
-3.13986e-06
-1.19028e-05
-2.14518e-06
-1.06571e-05
-1.08418e-06
-9.52093e-06
-8.22857e-08
-8.53447e-06
7.84433e-07
-7.70948e-06
1.48241e-06
-7.03906e-06
2.01819e-06
-6.50984e-06
2.42251e-06
2.75431e-06
-6.10681e-06
5.45877e-06
-4.33671e-05
3.96886e-05
-8.77918e-05
8.34204e-05
-8.2209e-05
0.000105722
-2.99407e-05
8.47698e-05
3.39677e-05
4.89415e-05
5.13567e-05
2.06682e-05
3.47938e-05
4.06871e-06
1.6453e-05
-4.13078e-06
6.03156e-06
-9.12818e-06
1.88381e-06
-1.2157e-05
-7.29603e-07
-1.35512e-05
-2.7979e-06
-1.37346e-05
-4.08621e-06
-1.31434e-05
-4.4917e-06
-1.21467e-05
-4.13661e-06
-1.10093e-05
-3.28257e-06
-9.89538e-06
-2.19814e-06
-8.89028e-06
-1.08743e-06
-8.02968e-06
-7.61693e-08
-7.32252e-06
7.752e-07
-6.75956e-06
1.45512e-06
-6.32372e-06
1.98667e-06
2.4267e-06
-5.99627e-06
6.91687e-06
-5.02865e-05
3.40026e-05
-0.000114879
6.68264e-05
-0.000115033
0.000113337
-7.6454e-05
0.000100312
4.69937e-05
7.09566e-05
8.07132e-05
4.038e-05
6.53709e-05
1.5644e-05
4.1189e-05
8.74201e-07
2.08012e-05
-6.47075e-06
9.22863e-06
-1.03952e-05
3.19469e-06
-1.21819e-05
-1.01132e-06
-1.25424e-05
-3.72576e-06
-1.20365e-05
-4.99767e-06
-1.11042e-05
-5.06897e-06
-1.00421e-05
-4.34481e-06
-9.02154e-06
-3.21872e-06
-8.12515e-06
-1.98385e-06
-7.38113e-06
-8.2024e-07
-6.78961e-06
1.83632e-07
-6.33591e-06
1.00137e-06
-5.99929e-06
1.64992e-06
2.18469e-06
-5.75741e-06
3.24023e-05
-8.26905e-05
2.9161e-05
-0.000111637
3.20721e-05
-0.000117944
5.54188e-05
-9.98011e-05
7.23897e-05
3.00203e-05
5.7876e-05
9.52273e-05
3.63485e-05
8.68997e-05
1.82258e-05
5.93119e-05
3.63208e-06
3.5395e-05
-4.99026e-06
1.78509e-05
-9.37807e-06
7.58238e-06
-1.11756e-05
7.86095e-07
-1.1474e-05
-3.4275e-06
-1.09095e-05
-5.56229e-06
-9.96821e-06
-6.01035e-06
-8.94883e-06
-5.36427e-06
-8.01072e-06
-4.1569e-06
-7.22192e-06
-2.77272e-06
-6.59744e-06
-1.44476e-06
-6.12628e-06
-2.87568e-07
-5.78697e-06
6.61977e-07
-5.55424e-06
1.41713e-06
2.0345e-06
-5.40414e-06
2.03487e-05
-0.000103039
2.48505e-05
-0.000116139
2.65758e-05
-0.000119669
2.59065e-05
-9.91318e-05
2.56942e-05
3.02324e-05
1.91111e-05
0.000101811
1.40572e-05
9.19541e-05
6.57559e-06
6.67937e-05
-1.17267e-06
4.31433e-05
-6.6628e-06
2.3341e-05
-9.59382e-06
1.05133e-05
-1.05692e-05
1.76132e-06
-1.04319e-05
-3.56492e-06
-9.6672e-06
-6.32709e-06
-8.67195e-06
-7.00572e-06
-7.69132e-06
-6.34499e-06
-6.84809e-06
-5.00021e-06
-6.18313e-06
-3.43773e-06
-5.69205e-06
-1.9359e-06
-5.35242e-06
-6.27236e-07
-5.13577e-06
4.45279e-07
-5.0139e-06
1.29523e-06
1.98403e-06
-4.96352e-06
1.3665e-05
-0.000116704
2.23869e-05
-0.00012486
3.18596e-05
-0.000129142
1.84096e-05
-8.56813e-05
-1.21663e-05
6.08087e-05
-1.30307e-05
0.000102676
-9.12709e-06
8.8051e-05
-7.67637e-06
6.53432e-05
-7.86344e-06
4.33305e-05
-9.36937e-06
2.48469e-05
-1.01877e-05
1.13316e-05
-1.00306e-05
1.60406e-06
-9.25944e-06
-4.33617e-06
-8.22994e-06
-7.35671e-06
-7.18453e-06
-8.05124e-06
-6.26908e-06
-7.26054e-06
-5.55057e-06
-5.7188e-06
-5.03284e-06
-3.95553e-06
-4.69294e-06
-2.27583e-06
-4.49451e-06
-8.25698e-07
-4.40633e-06
3.57096e-07
-4.39906e-06
1.28791e-06
2.03091e-06
-4.44596e-06
2.18475e-05
-0.000138551
2.76192e-05
-0.000130631
1.65057e-06
-0.000103172
-5.02617e-05
-3.37679e-05
-5.51986e-05
6.57459e-05
-3.88605e-05
8.63373e-05
-2.64326e-05
7.56235e-05
-1.85444e-05
5.74553e-05
-1.41055e-05
3.88917e-05
-1.19564e-05
2.26979e-05
-1.04923e-05
9.86743e-06
-9.15431e-06
2.65985e-07
-7.78599e-06
-5.70459e-06
-6.55155e-06
-8.59127e-06
-5.52034e-06
-9.08256e-06
-4.72319e-06
-8.05779e-06
-4.16721e-06
-6.27485e-06
-3.82135e-06
-4.30144e-06
-3.64334e-06
-2.45389e-06
-3.59178e-06
-8.77274e-07
-3.63169e-06
3.96986e-07
-3.73519e-06
1.39147e-06
2.17496e-06
-3.87929e-06
-2.11137e-06
-0.000136438
-2.29211e-05
-0.000109821
-5.88819e-05
-6.72104e-05
-8.89623e-05
-3.68685e-06
-7.18927e-05
4.86769e-05
-5.22921e-05
6.6737e-05
-3.66414e-05
5.99731e-05
-2.54843e-05
4.62984e-05
-1.81238e-05
3.15313e-05
-1.33684e-05
1.79425e-05
-1.00749e-05
6.57393e-06
-7.70254e-06
-2.10642e-06
-5.93384e-06
-7.47338e-06
-4.66333e-06
-9.86188e-06
-3.75533e-06
-9.99067e-06
-3.1551e-06
-8.65809e-06
-2.79271e-06
-6.63732e-06
-2.62887e-06
-4.46534e-06
-2.60813e-06
-2.47465e-06
-2.69037e-06
-7.95043e-07
-2.84577e-06
5.5242e-07
-3.04775e-06
1.59343e-06
2.40352e-06
-3.27631e-06
-2.88057e-05
-0.000107632
-5.86859e-05
-7.99395e-05
-8.30023e-05
-4.2893e-05
-8.59801e-05
-7.08358e-07
-7.39251e-05
3.66224e-05
-5.57258e-05
4.8538e-05
-3.98634e-05
4.4111e-05
-2.7781e-05
3.42162e-05
-1.91103e-05
2.28607e-05
-1.29658e-05
1.17981e-05
-8.59211e-06
2.20022e-06
-5.66685e-06
-5.03173e-06
-3.81837e-06
-9.32193e-06
-2.67669e-06
-1.10036e-05
-2.01317e-06
-1.06543e-05
-1.67415e-06
-8.99719e-06
-1.54558e-06
-6.76594e-06
-1.55501e-06
-4.45594e-06
-1.66329e-06
-2.36639e-06
-1.85069e-06
-6.07621e-07
-2.0933e-06
7.9505e-07
-2.37431e-06
1.87451e-06
2.69686e-06
-2.66764e-06
-3.25684e-05
-7.50627e-05
-5.84538e-05
-5.40534e-05
-7.34299e-05
-2.79161e-05
-7.61795e-05
2.04189e-06
-6.57207e-05
2.61641e-05
-5.06116e-05
3.34292e-05
-3.6895e-05
3.03947e-05
-2.57163e-05
2.30377e-05
-1.70532e-05
1.41976e-05
-1.0611e-05
5.3559e-06
-6.00801e-06
-2.40271e-06
-3.1462e-06
-7.89357e-06
-1.53811e-06
-1.09301e-05
-7.53216e-07
-1.17886e-05
-4.76163e-07
-1.09314e-05
-4.43981e-07
-9.02943e-06