/*--------------------------------*- C++ -*----------------------------------*\
| =========                 |                                                 |
| \\      /  F ield         | OpenFOAM: The Open Source CFD Toolbox           |
|  \\    /   O peration     | Version:  2312                                  |
|   \\  /    A nd           | Website:  www.openfoam.com                      |
|    \\/     M anipulation  |                                                 |
\*---------------------------------------------------------------------------*/
FoamFile
{
    version     2.0;
    format      ascii;
    arch        "LSB;label=32;scalar=64";
    class       volVectorField;
    location    "2.4";
    object      U;
}
// * * * * * * * * * * * * * * * * * * * * * * * * * * * * * * * * * * * * * //

dimensions      [0 1 -1 0 0 0 0];

internalField   nonuniform List<vector> 
2268
(
(0.0185799 -0.0106896 0)
(0.0298376 -0.0041812 0)
(0.0386921 -0.00277044 0)
(0.0482107 -0.00258503 0)
(0.0600316 -0.00291057 0)
(0.0739818 -0.00320328 0)
(0.0888148 -0.00328138 0)
(0.103222 -0.00312618 0)
(0.11618 -0.00274042 0)
(0.126824 -0.0020609 0)
(0.134195 -0.00108805 0)
(0.137512 -3.02037e-05 0)
(0.13669 0.000873761 0)
(0.13234 0.00158434 0)
(0.125301 0.00210383 0)
(0.116177 0.00252832 0)
(0.105274 0.0029703 0)
(0.0923053 0.00345023 0)
(0.0773891 0.00386919 0)
(0.0608553 0.00406071 0)
(0.0440229 0.00393592 0)
(0.0254168 0.00414901 0)
(0.00592899 0.00378269 0)
(0.00464971 -0.0144474 0)
(0.0162993 -0.00581006 0)
(0.0247328 -0.00602238 0)
(0.0360646 -0.00763494 0)
(0.0500741 -0.00960205 0)
(0.0661378 -0.0107138 0)
(0.0827115 -0.0108231 0)
(0.0984327 -0.0100829 0)
(0.112376 -0.00870857 0)
(0.12379 -0.00667821 0)
(0.131701 -0.00401311 0)
(0.135293 -0.00107545 0)
(0.13459 0.00166786 0)
(0.130292 0.00394934 0)
(0.123271 0.00567746 0)
(0.114169 0.00701201 0)
(0.103363 0.00822896 0)
(0.0905043 0.00967402 0)
(0.0756159 0.0109777 0)
(0.0589318 0.0122925 0)
(0.0420377 0.0130989 0)
(0.0236694 0.01427 0)
(0.00414606 0.0113507 0)
(-0.000845452 -0.0181936 0)
(0.00735053 -0.0105766 0)
(0.0140736 -0.011049 0)
(0.0257512 -0.0138013 0)
(0.0407672 -0.0170935 0)
(0.0583107 -0.0187293 0)
(0.0763418 -0.0186769 0)
(0.0933157 -0.0172969 0)
(0.108366 -0.0149427 0)
(0.120835 -0.0113024 0)
(0.129665 -0.00635856 0)
(0.133956 -0.00110638 0)
(0.133676 0.00341798 0)
(0.129521 0.00691491 0)
(0.122484 0.00939543 0)
(0.113364 0.0113107 0)
(0.102773 0.0131334 0)
(0.0903162 0.0156188 0)
(0.0760187 0.0179195 0)
(0.059928 0.0198458 0)
(0.0436465 0.0204799 0)
(0.0252886 0.0217418 0)
(0.00721065 0.0180561 0)
(-0.00357453 -0.0178741 0)
(0.0012082 -0.0122994 0)
(0.00588019 -0.014678 0)
(0.0169914 -0.0198883 0)
(0.0321739 -0.0253333 0)
(0.0510112 -0.0277847 0)
(0.0707566 -0.027554 0)
(0.0894371 -0.0253338 0)
(0.106149 -0.0219047 0)
(0.120331 -0.0169208 0)
(0.130446 -0.0102425 0)
(0.135122 -0.00288837 0)
(0.13463 0.00388888 0)
(0.130083 0.00953131 0)
(0.122748 0.0135962 0)
(0.113721 0.0166369 0)
(0.103869 0.0191388 0)
(0.0926666 0.0227042 0)
(0.0796209 0.0257833 0)
(0.0641759 0.0288037 0)
(0.0480979 0.0302413 0)
(0.0297143 0.0323829 0)
(0.0125596 0.0271907 0)
(-0.00625693 -0.0165533 0)
(-0.00367003 -0.0143131 0)
(-0.000579297 -0.0195667 0)
(0.00950878 -0.0277227 0)
(0.0235511 -0.0351936 0)
(0.0426656 -0.0383815 0)
(0.0637623 -0.0380525 0)
(0.0844582 -0.035137 0)
(0.102841 -0.0307455 0)
(0.118616 -0.0237542 0)
(0.13075 -0.0137203 0)
(0.136737 -0.00284418 0)
(0.135773 0.00589147 0)
(0.129759 0.0127834 0)
(0.12085 0.017153 0)
(0.111138 0.0200363 0)
(0.10217 0.0216687 0)
(0.0929869 0.0261571 0)
(0.0827458 0.0300781 0)
(0.0702423 0.0344666 0)
(0.0536802 0.0357515 0)
(0.0289167 0.0350968 0)
(0.0145849 0.0356807 0)
(-0.0106359 -0.0205619 0)
(-0.0106449 -0.0215739 0)
(-0.00694942 -0.0270144 0)
(0.00548419 -0.0360418 0)
(0.0183996 -0.043973 0)
(0.0361443 -0.0473459 0)
(0.055443 -0.0465866 0)
(0.0755758 -0.0424951 0)
(0.0932069 -0.0369992 0)
(0.106493 -0.0294103 0)
(0.116184 -0.018489 0)
(0.121068 -0.00554092 0)
(0.12046 0.00712239 0)
(0.115738 0.0166493 0)
(0.108577 0.0221097 0)
(0.101003 0.0262256 0)
(0.0923477 0.0283242 0)
(0.0842672 0.0318554 0)
(0.0766676 0.0336809 0)
(0.0691064 0.0380082 0)
(0.0580307 0.0428764 0)
(0.0382414 0.0432519 0)
(0.0239795 0.042151 0)
(-0.0438756 0.00332485 0)
(-0.0726438 -0.00828327 0)
(-0.0568909 -0.0208846 0)
(-0.0207997 -0.0339267 0)
(-0.00169302 -0.0464938 0)
(0.0187693 -0.0539693 0)
(0.036385 -0.0540026 0)
(0.0574458 -0.0488104 0)
(0.0783279 -0.0405667 0)
(0.0897757 -0.0293029 0)
(0.0927867 -0.0154222 0)
(0.0969594 -0.00152737 0)
(0.100042 0.0116233 0)
(0.098789 0.0217621 0)
(0.0918572 0.0274747 0)
(0.0899207 0.0296788 0)
(0.0901806 0.0295834 0)
(0.09331 0.0321768 0)
(0.102138 0.0378394 0)
(0.104957 0.047528 0)
(0.103785 0.0605631 0)
(0.0748259 0.0702476 0)
(0.0373297 0.0762921 0)
(-0.0509814 0.0371166 0)
(-0.0823046 -0.00865755 0)
(-0.0772745 -0.0476215 0)
(-0.0519205 -0.0542614 0)
(-0.0465712 -0.061073 0)
(-0.0338279 -0.0680285 0)
(-0.0352406 -0.0681075 0)
(-0.0536736 -0.0641036 0)
(-0.059871 -0.0565516 0)
(-0.0563202 -0.0442304 0)
(-0.0407073 -0.0298384 0)
(-0.0126154 -0.0135353 0)
(0.0197449 0.00138939 0)
(0.0309794 0.0182515 0)
(0.0153002 0.0284186 0)
(0.0151351 0.0229192 0)
(0.0258774 0.0290202 0)
(0.03337 0.0251596 0)
(0.0593626 0.0314402 0)
(0.0750097 0.0472966 0)
(0.0742205 0.0528942 0)
(0.074517 0.0852406 0)
(0.0132603 0.0924383 0)
(-0.036775 0.0135241 0)
(-0.0211619 0.00121522 0)
(-0.0456548 0.00551085 0)
(-0.0578231 0.00468183 0)
(-0.0761169 0.00613366 0)
(-0.0902089 0.00311454 0)
(-0.0914926 -0.00737318 0)
(-0.0489725 -0.0168141 0)
(0.000220394 -0.0132551 0)
(0.0263663 -0.00123562 0)
(0.0268823 0.00400045 0)
(0.0293114 5.79024e-05 0)
(0.0308333 -0.00358791 0)
(0.0318291 -0.00268543 0)
(0.0186792 0.00105281 0)
(-0.00776506 0.0040995 0)
(-0.0404988 0.00377965 0)
(-0.0603213 -0.0013031 0)
(-0.0300663 -0.0108487 0)
(0.0122794 0.00700979 0)
(0.0202398 0.00421858 0)
(0.00514738 0.00775823 0)
(-0.00278647 0.0092438 0)
(-0.0113493 0.00970048 0)
(-0.00846211 0.00166964 0)
(0.00781459 -0.0115439 0)
(0.0448498 -0.0225156 0)
(0.0758876 -0.0203206 0)
(0.100406 -0.0101496 0)
(0.126542 -0.00358047 0)
(0.144551 -0.00308385 0)
(0.148152 0.000826537 0)
(0.133045 0.00920841 0)
(0.0915447 0.0138752 0)
(0.041106 0.0195713 0)
(-0.00856133 0.0188494 0)
(-0.0452608 0.00105233 0)
(-0.0189918 -0.0343739 0)
(0.00999348 -0.000213803 0)
(-0.00270934 0.00912469 0)
(-0.00775999 0.0139088 0)
(-0.0118593 0.00870678 0)
(-0.00592029 0.00533425 0)
(0.0152239 -0.00407849 0)
(0.0378966 -0.0234155 0)
(0.0764742 -0.0432984 0)
(0.124116 -0.0382538 0)
(0.164743 -0.0251504 0)
(0.197378 -0.0168028 0)
(0.220651 -0.0111308 0)
(0.233096 -0.0009198 0)
(0.227855 0.0236473 0)
(0.189038 0.0426423 0)
(0.110629 0.0472372 0)
(0.0330248 0.0397566 0)
(-0.0155014 0.00614104 0)
(0.0125945 -0.0370246 0)
(-0.0113086 0.0039538 0)
(0.015564 0.00956827 0)
(0.0386468 0.0143496 0)
(0.0534301 0.0155354 0)
(0.0206833 0.00375515 0)
(0.0126758 -0.018083 0)
(0.0380412 -0.0409682 0)
(0.0696868 -0.0643826 0)
(0.108875 -0.0555123 0)
(0.151094 -0.0377416 0)
(0.172504 -0.0276803 0)
(0.193975 -0.0123628 0)
(0.204329 -0.00250107 0)
(0.239047 0.0227949 0)
(0.258982 0.0585009 0)
(0.21881 0.0930994 0)
(0.0987701 0.064986 0)
(0.0134379 0.0200732 0)
(0.018231 -0.0479311 0)
(-0.00212247 -9.55833e-05 0)
(0.054779 -0.00818836 0)
(0.0880322 -0.00270624 0)
(0.137375 0.00704373 0)
(0.161881 0.0202612 0)
(0.144624 -0.00862061 0)
(0.0897339 -0.0448486 0)
(0.0370153 -0.0792567 0)
(0.0395605 -0.0788123 0)
(0.0805551 -0.0469129 0)
(0.0793082 -0.0350397 0)
(0.109311 -0.0230866 0)
(0.13878 -0.0152618 0)
(0.170318 -0.010429 0)
(0.222285 0.0450068 0)
(0.218144 0.124545 0)
(0.13007 0.123098 0)
(0.000768948 0.0441761 0)
(0.0396541 -0.0194583 0)
(-0.00684193 -0.0170294 0)
(0.0478308 -0.0334065 0)
(0.0947954 -0.0188297 0)
(0.148192 -0.02231 0)
(0.222227 0.00460558 0)
(0.250692 0.0190258 0)
(0.163395 0.0126859 0)
(0.0239581 -0.0541165 0)
(-0.0143775 -0.0836048 0)
(0.018662 -0.0479779 0)
(0.0229331 -0.0434162 0)
(0.0543942 -0.0407372 0)
(0.0699735 -0.0270489 0)
(0.0503207 -0.0280774 0)
(0.0722163 0.0555761 0)
(0.107338 0.143555 0)
(0.110607 0.137606 0)
(0.0674635 0.0759917 0)
(0.0695128 -0.0295505 0)
(-0.011069 -0.0221086 0)
(0.0198697 -0.0479577 0)
(0.0470105 -0.0394439 0)
(0.097568 -0.0491456 0)
(0.162339 -0.0320601 0)
(0.206691 0.0229608 0)
(0.152074 0.0569585 0)
(0.0425774 -0.0145409 0)
(-0.0693235 -0.0695339 0)
(-0.0773011 -0.0411358 0)
(-0.0841722 -0.0461373 0)
(-0.0653122 -0.0288856 0)
(-0.0853454 -0.00951254 0)
(-0.0895825 -0.0134889 0)
(-0.0518329 0.0376436 0)
(0.00427062 0.123108 0)
(0.0474819 0.119983 0)
(0.0727936 0.0805081 0)
(0.112551 0.011354 0)
(-0.019255 -0.0153648 0)
(0.0103807 -0.0562762 0)
(0.0226595 -0.0583787 0)
(0.0669143 -0.0757549 0)
(0.115842 -0.061598 0)
(0.15674 0.0325387 0)
(0.123247 0.0963777 0)
(-0.0487163 0.0263181 0)
(-0.145195 -0.0376493 0)
(-0.148735 -0.0381551 0)
(-0.118453 -0.062566 0)
(-0.0705602 -0.0508384 0)
(-0.0317019 -0.0199776 0)
(-0.0392086 -0.0344024 0)
(-0.0881461 0.0214592 0)
(-0.079541 0.10276 0)
(-0.0464185 0.103185 0)
(-0.0164864 0.0562617 0)
(0.0990662 0.0513041 0)
(-0.0287217 0.0693992 0)
(-0.0900962 -0.0205006 0)
(-0.119476 -0.0569886 0)
(-0.126839 -0.0478909 0)
(-0.149845 -0.0420549 0)
(-0.170084 -0.0386795 0)
(-0.187594 -0.0368857 0)
(-0.196401 -0.0393223 0)
(-0.196082 -0.0429434 0)
(-0.185293 -0.0448499 0)
(-0.164993 -0.0432469 0)
(-0.141148 -0.033414 0)
(-0.121963 -0.00850156 0)
(-0.110937 0.0151711 0)
(-0.105091 0.0249783 0)
(-0.0925571 0.0099848 0)
(-0.0708581 0.0149337 0)
(-0.0539166 0.00488483 0)
(-0.0372116 0.00685738 0)
(-0.0178279 0.0311228 0)
(-0.0116513 0.0503262 0)
(0.00431016 0.103333 0)
(0.00544037 0.113953 0)
(0.0713668 0.177179 0)
(0.0286294 0.125991 0)
(-0.13545 -0.00743858 0)
(-0.179661 -0.0371027 0)
(-0.187997 -0.0440865 0)
(-0.193857 -0.0449698 0)
(-0.204276 -0.0467428 0)
(-0.213917 -0.0512001 0)
(-0.218702 -0.0567744 0)
(-0.216078 -0.0628988 0)
(-0.205595 -0.0647021 0)
(-0.18977 -0.0529827 0)
(-0.170042 -0.0175272 0)
(-0.151169 0.0135948 0)
(-0.133059 0.0212973 0)
(-0.110827 -0.00256267 0)
(-0.0800774 -0.00976388 0)
(-0.0613375 -0.0053551 0)
(-0.0634674 0.0061252 0)
(-0.071885 0.0290475 0)
(-0.0742473 0.0454625 0)
(-0.0522585 0.0725285 0)
(-0.0189504 0.0888204 0)
(0.124604 -0.0494434 0)
(0.197142 0.166645 0)
(0.113437 0.160919 0)
(-0.0313306 0.0229204 0)
(-0.120429 -0.025501 0)
(-0.140425 -0.0261919 0)
(-0.162415 -0.0228933 0)
(-0.187333 -0.0308085 0)
(-0.206807 -0.0466165 0)
(-0.213606 -0.0652947 0)
(-0.208386 -0.0772062 0)
(-0.193934 -0.0735118 0)
(-0.168587 -0.0467212 0)
(-0.131994 -0.0229331 0)
(-0.0864104 -0.018984 0)
(-0.0402572 -0.0372085 0)
(-0.0149566 -0.0352043 0)
(-0.017696 -0.00144394 0)
(-0.0328275 0.017776 0)
(-0.0399857 0.0320568 0)
(-0.0396959 0.03576 0)
(-0.0311444 0.0349517 0)
(-0.00266631 0.0546228 0)
(0.0614045 -0.219434 0)
(0.223595 0.128929 0)
(0.217097 0.229374 0)
(0.126383 0.163355 0)
(0.0359568 0.0572933 0)
(-0.030702 0.000263854 0)
(-0.0511688 0.00317817 0)
(-0.0714936 -0.00179143 0)
(-0.0944873 -0.0236444 0)
(-0.112373 -0.0576365 0)
(-0.113727 -0.0846419 0)
(-0.106416 -0.0941321 0)
(-0.095793 -0.0798757 0)
(-0.0724177 -0.0688081 0)
(-0.0341011 -0.0776102 0)
(0.00547057 -0.085043 0)
(0.0386746 -0.0510708 0)
(0.0476114 0.00859481 0)
(0.0404605 0.0333044 0)
(0.0533614 0.02946 0)
(0.073343 0.0387594 0)
(0.0881748 0.0395038 0)
(0.0896754 0.0403972 0)
(0.0398334 -0.360851 0)
(0.186107 0.0894117 0)
(0.186266 0.243589 0)
(0.171529 0.220319 0)
(0.153185 0.107997 0)
(0.13711 0.0443309 0)
(0.113935 0.0177235 0)
(0.0962537 0.013605 0)
(0.0906531 -0.00166362 0)
(0.0852804 -0.0365057 0)
(0.0826618 -0.0740849 0)
(0.0766465 -0.091933 0)
(0.0707269 -0.0807223 0)
(0.0713372 -0.0792344 0)
(0.0875486 -0.100931 0)
(0.0951058 -0.105293 0)
(0.0942142 -0.0629041 0)
(0.093541 0.00391344 0)
(0.0998944 0.0209768 0)
(0.117838 0.00100812 0)
(0.128536 0.00727439 0)
(0.144824 0.0217224 0)
(0.165562 0.0257963 0)
(0.00383143 -0.487539 0)
(0.123728 0.0615252 0)
(0.0256634 0.231013 0)
(0.132232 0.197978 0)
(0.182545 0.0961202 0)
(0.225245 0.0494511 0)
(0.247083 0.0255269 0)
(0.256075 0.010083 0)
(0.265198 -0.011461 0)
(0.270738 -0.0431965 0)
(0.268566 -0.0771051 0)
(0.263332 -0.0933512 0)
(0.25766 -0.0796286 0)
(0.252883 -0.0705496 0)
(0.241184 -0.0833149 0)
(0.224175 -0.0885207 0)
(0.211414 -0.0664788 0)
(0.21528 -0.0170466 0)
(0.221422 0.0141775 0)
(0.223528 0.0059548 0)
(0.219026 -0.00079514 0)
(0.222836 0.00176365 0)
(0.249471 -0.00901076 0)
(-0.066838 -0.552098 0)
(0.0699589 0.202858 0)
(-0.114357 0.175259 0)
(0.0841838 0.0902359 0)
(0.161291 0.0214067 0)
(0.236882 0.00763409 0)
(0.279163 0.00442788 0)
(0.300315 -0.00126109 0)
(0.311622 -0.0139018 0)
(0.314463 -0.0367983 0)
(0.309675 -0.0652493 0)
(0.302567 -0.0803589 0)
(0.301556 -0.0743126 0)
(0.304993 -0.0671322 0)
(0.302536 -0.0706696 0)
(0.290042 -0.0707247 0)
(0.275076 -0.0558236 0)
(0.273153 -0.0227243 0)
(0.284817 0.0130631 0)
(0.292918 0.0176842 0)
(0.291335 0.00571546 0)
(0.294567 -0.00635874 0)
(0.307059 -0.0243667 0)
(-0.134577 -0.569153 0)
(0.0956857 0.273203 0)
(-0.0993921 0.124742 0)
(0.0291654 -0.0330848 0)
(0.126796 -0.112046 0)
(0.216272 -0.0685422 0)
(0.268481 -0.0364939 0)
(0.292995 -0.0247657 0)
(0.303993 -0.0243754 0)
(0.303856 -0.0386857 0)
(0.296711 -0.0621593 0)
(0.289266 -0.0790256 0)
(0.288388 -0.0804694 0)
(0.293865 -0.0740194 0)
(0.296168 -0.0655564 0)
(0.287756 -0.0572373 0)
(0.274028 -0.0474174 0)
(0.266745 -0.0298275 0)
(0.274465 -0.00401286 0)
(0.284431 0.0082202 0)
(0.286635 0.000742064 0)
(0.287311 -0.0158412 0)
(0.299652 -0.036441 0)
(-0.158069 -0.543662 0)
(0.124684 0.247064 0)
(0.0406181 0.154465 0)
(0.140723 -0.132904 0)
(0.148312 -0.198696 0)
(0.20055 -0.130463 0)
(0.233343 -0.069582 0)
(0.248191 -0.037453 0)
(0.254649 -0.0217036 0)
(0.248845 -0.0294762 0)
(0.237131 -0.0520554 0)
(0.229687 -0.0744069 0)
(0.233449 -0.0894538 0)
(0.248953 -0.0873479 0)
(0.260144 -0.0713873 0)
(0.25413 -0.0566878 0)
(0.23733 -0.0468873 0)
(0.2231 -0.03511 0)
(0.235464 -0.0127442 0)
(0.268858 0.00619046 0)
(0.302444 0.00210847 0)
(0.318308 -0.0171177 0)
(0.289698 -0.0558627 0)
(-0.142915 -0.456616 0)
(-0.00772342 -0.0509547 0)
(0.206465 0.125156 0)
(0.243307 -0.133285 0)
(0.203629 -0.184937 0)
(0.195382 -0.136994 0)
(0.188813 -0.0854542 0)
(0.179666 -0.0522231 0)
(0.177829 -0.0181697 0)
(0.157636 -0.0215194 0)
(0.138429 -0.0397515 0)
(0.134567 -0.0683551 0)
(0.162656 -0.0980325 0)
(0.220156 -0.0972512 0)
(0.306141 -0.0637208 0)
(0.379063 -0.0380578 0)
(0.441531 -0.0209182 0)
(0.383333 -0.0261888 0)
(0.329997 -0.0422702 0)
(0.353895 -0.0430551 0)
(0.386942 -0.0557888 0)
(0.368486 0.0101807 0)
(0.363186 -0.0227835 0)
(-0.116323 -0.351804 0)
(-0.0904174 -0.176764 0)
(0.116692 -0.0146414 0)
(0.151752 -0.126497 0)
(0.167915 -0.15289 0)
(0.140227 -0.0832457 0)
(0.0748739 -0.0181159 0)
(0.0272021 -0.0121602 0)
(0.0393151 0.00162661 0)
(0.0622458 -0.00525375 0)
(0.131882 -0.0298126 0)
(0.264721 -0.0930247 0)
(0.426917 -0.150802 0)
(0.43549 -0.209849 0)
(0.376688 -0.163786 0)
(0.270051 -0.162843 0)
(0.171181 0.061117 0)
(0.113431 0.0662814 0)
(0.0188106 -0.030815 0)
(-0.0307557 -0.0209338 0)
(-0.101275 0.0193702 0)
(-0.118314 -0.0345454 0)
(-0.125068 0.0789447 0)
(-0.0740423 -0.280945 0)
(-0.0302844 -0.237042 0)
(0.0577228 -0.133614 0)
(0.193347 -0.164327 0)
(0.2496 -0.140793 0)
(0.347703 -0.0861922 0)
(0.44506 -0.033784 0)
(0.666703 -0.0350651 0)
(0.847507 -0.0340078 0)
(0.986929 -0.0423336 0)
(0.879955 -0.150591 0)
(0.425072 -0.306516 0)
(0.0740557 -0.116756 0)
(-0.100521 -0.0619946 0)
(-0.227988 0.0317777 0)
(-0.290328 0.0838854 0)
(-0.256091 0.109952 0)
(-0.227218 0.0945737 0)
(-0.252637 0.0644066 0)
(-0.266032 0.043161 0)
(-0.280478 0.0330893 0)
(-0.282658 0.036225 0)
(-0.275226 0.0570273 0)
(-0.00777629 -0.273752 0)
(0.108509 -0.317393 0)
(0.21507 -0.287002 0)
(0.359211 -0.298966 0)
(0.497176 -0.324463 0)
(0.641018 -0.339249 0)
(0.800188 -0.347109 0)
(1.01856 -0.347977 0)
(1.14615 -0.323027 0)
(1.40155 0.116305 0)
(0.845044 0.29433 0)
(0.266662 0.405034 0)
(0.0376887 0.271945 0)
(-0.0897527 0.0878826 0)
(-0.179047 -0.00220238 0)
(-0.225572 -0.0237038 0)
(-0.243383 0.0146485 0)
(-0.242009 0.0354272 0)
(-0.243841 0.0277291 0)
(-0.253571 0.0306434 0)
(-0.267018 0.0300421 0)
(-0.273185 0.0302125 0)
(-0.266286 0.056329 0)
(0.0467973 -0.368825 0)
(0.19293 -0.43963 0)
(0.312447 -0.443102 0)
(0.426086 -0.441799 0)
(0.52852 -0.453602 0)
(0.624509 -0.469973 0)
(0.744712 -0.463989 0)
(0.897794 -0.449055 0)
(0.97962 -0.210415 0)
(0.675731 0.468068 0)
(0.208582 0.613524 0)
(0.181815 0.536276 0)
(0.0996294 0.309913 0)
(0.051065 0.181731 0)
(-0.0294326 0.137453 0)
(-0.0951375 0.111887 0)
(-0.139288 0.0940236 0)
(-0.160986 0.0786865 0)
(-0.174193 0.0642687 0)
(-0.184959 0.0559832 0)
(-0.19399 0.0420873 0)
(-0.199761 0.0253317 0)
(-0.195335 0.0272763 0)
(0.0781713 -0.53342 0)
(0.219867 -0.570535 0)
(0.321717 -0.55254 0)
(0.422485 -0.522508 0)
(0.523467 -0.522728 0)
(0.627925 -0.55949 0)
(0.736467 -0.582301 0)
(0.557038 -0.574913 0)
(0.215603 0.260005 0)
(-0.0563962 0.692604 0)
(-0.011902 0.739921 0)
(0.0208877 0.541249 0)
(0.058381 0.359392 0)
(0.0497413 0.231328 0)
(0.023306 0.171346 0)
(-0.0120398 0.121534 0)
(-0.0413501 0.0932432 0)
(-0.061 0.0740224 0)
(-0.074662 0.060574 0)
(-0.0827323 0.0546458 0)
(-0.087858 0.0469834 0)
(-0.0924038 0.0316859 0)
(-0.0939912 0.0208865 0)
(0.0711186 -0.661801 0)
(0.209396 -0.651678 0)
(0.318487 -0.636468 0)
(0.414508 -0.62713 0)
(0.523439 -0.662849 0)
(0.51521 -0.715938 0)
(0.27924 -0.454028 0)
(-0.258692 0.105051 0)
(-0.289013 0.45677 0)
(-0.309577 0.707443 0)
(-0.184025 0.637896 0)
(-0.0667584 0.476422 0)
(0.007725 0.327626 0)
(0.0287662 0.234349 0)
(0.0348262 0.189068 0)
(0.0315837 0.159663 0)
(0.0206036 0.129118 0)
(0.00700365 0.100674 0)
(-0.00589237 0.0779922 0)
(-0.0157778 0.0626647 0)
(-0.0217058 0.0500347 0)
(-0.0252097 0.0362164 0)
(-0.027236 0.0245231 0)
(0.0585775 -0.782951 0)
(0.18426 -0.795363 0)
(0.292002 -0.751644 0)
(0.351685 -0.741239 0)
(0.293726 -0.662309 0)
(-0.0976915 -0.260504 0)
(-0.354727 0.0565274 0)
(-0.485925 0.198583 0)
(-0.48783 0.413953 0)
(-0.405992 0.531292 0)
(-0.247008 0.475771 0)
(-0.114304 0.367588 0)
(-0.0362765 0.272716 0)
(0.00037442 0.213898 0)
(0.0186096 0.179547 0)
(0.0294756 0.155964 0)
(0.0340996 0.130866 0)
(0.0332624 0.107993 0)
(0.0289429 0.0883254 0)
(0.0232669 0.0713528 0)
(0.018149 0.0559735 0)
(0.0140987 0.0414073 0)
(0.0102821 0.028994 0)
(0.0419158 -0.943046 0)
(0.146177 -0.949492 0)
(0.112672 -0.851675 0)
(-0.0163653 -0.647966 0)
(-0.310215 -0.24596 0)
(-0.464231 -0.0571579 0)
(-0.538391 0.0723781 0)
(-0.56593 0.209068 0)
(-0.514907 0.318042 0)
(-0.395208 0.35544 0)
(-0.250064 0.321168 0)
(-0.139892 0.264458 0)
(-0.072684 0.216938 0)
(-0.0325116 0.18288 0)
(-0.00771223 0.160149 0)
(0.00977989 0.142522 0)
(0.0218511 0.123904 0)
(0.0281927 0.105836 0)
(0.0303685 0.089118 0)
(0.0301711 0.0737326 0)
(0.0288127 0.0591371 0)
(0.0267346 0.0455355 0)
(0.0236546 0.0338415 0)
(-0.00824036 -1.04813 0)
(-0.000841377 -0.86552 0)
(-0.172293 -0.632696 0)
(-0.390013 -0.345333 0)
(-0.561322 -0.125835 0)
(-0.596968 -0.024398 0)
(-0.600217 0.0926943 0)
(-0.565569 0.172794 0)
(-0.475658 0.214211 0)
(-0.354688 0.218052 0)
(-0.242264 0.204224 0)
(-0.159587 0.184272 0)
(-0.104309 0.166338 0)
(-0.0662655 0.150651 0)
(-0.039016 0.137595 0)
(-0.0178627 0.125935 0)
(-0.00215815 0.112771 0)
(0.00825571 0.0990607 0)
(0.0151278 0.0853924 0)
(0.0193253 0.0720973 0)
(0.0215504 0.0591219 0)
(0.0222106 0.0470039 0)
(0.0212427 0.036418 0)
(-0.0693578 -0.964774 0)
(-0.155868 -0.699509 0)
(-0.355308 -0.421755 0)
(-0.49608 -0.203936 0)
(-0.581918 -0.0702096 0)
(-0.593406 -0.00537952 0)
(-0.568552 0.0552726 0)
(-0.50448 0.0941118 0)
(-0.408736 0.106838 0)
(-0.312706 0.113415 0)
(-0.234498 0.121021 0)
(-0.174708 0.124059 0)
(-0.130152 0.122966 0)
(-0.0959366 0.118804 0)
(-0.0689466 0.113337 0)
(-0.0468118 0.1068 0)
(-0.0290611 0.098364 0)
(-0.0153564 0.0887239 0)
(-0.00485372 0.0780584 0)
(0.00262556 0.066942 0)
(0.00751985 0.0560781 0)
(0.0106001 0.0458132 0)
(0.0116693 0.0367674 0)
(-0.11991 -0.79989 0)
(-0.248072 -0.522311 0)
(-0.417384 -0.268845 0)
(-0.498669 -0.114212 0)
(-0.535937 -0.0421472 0)
(-0.527238 -0.0189764 0)
(-0.485571 -0.000862498 0)
(-0.415292 0.00973452 0)
(-0.338999 0.0204467 0)
(-0.276134 0.0421576 0)
(-0.225391 0.0644487 0)
(-0.182673 0.0791601 0)
(-0.146867 0.0867521 0)
(-0.116644 0.0893467 0)
(-0.091084 0.0890417 0)
(-0.0692551 0.0865484 0)
(-0.0508042 0.081891 0)
(-0.0355796 0.0755545 0)
(-0.0233073 0.0679442 0)
(-0.0138388 0.0595229 0)
(-0.00694174 0.051024 0)
(-0.00215595 0.0428161 0)
(0.000344911 0.0354692 0)
(-0.138564 -0.616008 0)
(-0.255283 -0.382629 0)
(-0.383731 -0.194779 0)
(-0.435893 -0.0782755 0)
(-0.452988 -0.0386987 0)
(-0.428346 -0.0502014 0)
(-0.381322 -0.0606529 0)
(-0.32487 -0.0578 0)
(-0.280781 -0.0331661 0)
(-0.245285 -0.000861306 0)
(-0.21253 0.0263102 0)
(-0.181194 0.0448175 0)
(-0.152204 0.0562857 0)
(-0.126045 0.0628104 0)
(-0.102815 0.0659998 0)
(-0.0823365 0.0666178 0)
(-0.0645269 0.0649717 0)
(-0.0493732 0.0614892 0)
(-0.0368316 0.0566296 0)
(-0.0268237 0.0508737 0)
(-0.0192315 0.0447506 0)
(-0.0136497 0.0386915 0)
(-0.0103429 0.0331182 0)
(-0.132512 -0.443897 0)
(-0.226461 -0.251922 0)
(-0.318852 -0.113887 0)
(-0.355691 -0.0474524 0)
(-0.357527 -0.0486366 0)
(-0.322414 -0.089259 0)
(-0.284835 -0.1095 0)
(-0.255159 -0.0942097 0)
(-0.235202 -0.0601634 0)
(-0.215057 -0.0273753 0)
(-0.193362 -0.000992233 0)
(-0.170201 0.0178115 0)
(-0.147138 0.030828 0)
(-0.125355 0.0395755 0)
(-0.10529 0.0451871 0)
(-0.0871347 0.0482195 0)
(-0.0710421 0.0490264 0)
(-0.0571116 0.0480077 0)
(-0.0453894 0.0455764 0)
(-0.0358539 0.0421646 0)
(-0.0283997 0.0381921 0)
(-0.0227214 0.034049 0)
(-0.0191074 0.0301809 0)
(-0.105594 -0.310039 0)
(-0.165445 -0.168029 0)
(-0.233145 -0.0651562 0)
(-0.259786 -0.0311464 0)
(-0.253 -0.0634086 0)
(-0.222042 -0.120787 0)
(-0.206004 -0.134308 0)
(-0.199843 -0.106777 0)
(-0.193223 -0.0729524 0)
(-0.182553 -0.0437003 0)
(-0.16825 -0.0207362 0)
(-0.151982 -0.00302218 0)
(-0.134929 0.0103248 0)
(-0.117901 0.0202378 0)
(-0.101523 0.027405 0)
(-0.0863142 0.0322027 0)
(-0.0725447 0.0349341 0)
(-0.0604133 0.0359249 0)
(-0.0500478 0.0355101 0)
(-0.0414608 0.034051 0)
(-0.034599 0.031907 0)
(-0.0292117 0.0294195 0)
(-0.0256049 0.0270431 0)
(-0.0728837 -0.21352 0)
(-0.0950266 -0.10282 0)
(-0.138471 -0.0306839 0)
(-0.153909 -0.0182434 0)
(-0.145318 -0.0722789 0)
(-0.129555 -0.135312 0)
(-0.138504 -0.135708 0)
(-0.147028 -0.106055 0)
(-0.150293 -0.0763739 0)
(-0.148294 -0.0515485 0)
(-0.141768 -0.0319478 0)
(-0.132005 -0.0167117 0)
(-0.120165 -0.00466399 0)
(-0.107489 0.00521073 0)
(-0.0947621 0.0130018 0)
(-0.0824844 0.0188817 0)
(-0.0710721 0.0229709 0)
(-0.0608246 0.0254987 0)
(-0.0519207 0.0266817 0)
(-0.0444202 0.0268029 0)
(-0.0382992 0.0261553 0)
(-0.0333873 0.0250525 0)
(-0.0299841 0.0239054 0)
(-0.0369973 -0.155574 0)
(-0.0178745 -0.0814064 0)
(-0.0284577 -0.0191876 0)
(-0.0292549 -0.00926803 0)
(-0.0270269 -0.0689019 0)
(-0.0398047 -0.127445 0)
(-0.0739818 -0.119447 0)
(-0.0943535 -0.0943835 0)
(-0.108085 -0.070932 0)
(-0.115006 -0.0520256 0)
(-0.116023 -0.0369488 0)
(-0.112568 -0.0247002 0)
(-0.105886 -0.0144155 0)
(-0.0971544 -0.0056941 0)
(-0.0874004 0.00176437 0)
(-0.0775379 0.00799932 0)
(-0.0681221 0.0129659 0)
(-0.0594895 0.0166112 0)
(-0.0518939 0.0190528 0)
(-0.0454096 0.0204456 0)
(-0.0400517 0.0210234 0)
(-0.0356824 0.0210618 0)
(-0.0325776 0.0209395 0)
(-0.00648174 -0.154733 0)
(0.0560406 -0.112149 0)
(0.104435 -0.0396388 0)
(0.128085 -0.00278141 0)
(0.122706 -0.0433294 0)
(0.0603877 -0.0865296 0)
(-0.00635925 -0.0834079 0)
(-0.0424329 -0.0696052 0)
(-0.0682696 -0.0554662 0)
(-0.0845066 -0.0441797 0)
(-0.092909 -0.0350911 0)
(-0.0952671 -0.0274 0)
(-0.0930045 -0.0203626 0)
(-0.0875873 -0.0135463 0)
(-0.0803655 -0.006937 0)
(-0.0723669 -0.000826469 0)
(-0.0644304 0.00459395 0)
(-0.057081 0.00905265 0)
(-0.0505461 0.0124774 0)
(-0.0449623 0.0149136 0)
(-0.0403132 0.0165111 0)
(-0.0365018 0.0175003 0)
(-0.0337709 0.0182398 0)
(-0.0109672 -0.185885 0)
(0.101484 -0.182139 0)
(0.239981 -0.107486 0)
(0.306117 -0.00907505 0)
(0.313579 0.0334539 0)
(0.194229 0.0101794 0)
(0.0686044 -0.0215047 0)
(0.00469998 -0.0298702 0)
(-0.0331731 -0.029566 0)
(-0.0583212 -0.0282048 0)
(-0.0735384 -0.026855 0)
(-0.0809573 -0.0252958 0)
(-0.0822595 -0.0228171 0)
(-0.0792962 -0.0189527 0)
(-0.0738071 -0.0138735 0)
(-0.0671698 -0.00817373 0)
(-0.0603573 -0.00255684 0)
(-0.0539606 0.00253056 0)
(-0.0482751 0.00678342 0)
(-0.0434314 0.0101181 0)
(-0.039444 0.0125961 0)
(-0.0361809 0.0144023 0)
(-0.0338608 0.0158682 0)
(-0.028765 -0.204074 0)
(0.119044 -0.397639 0)
(0.329877 -0.310354 0)
(0.511721 -0.0388116 0)
(0.538114 0.144908 0)
(0.38838 0.163589 0)
(0.178224 0.0947165 0)
(0.0503334 0.0256971 0)
(-0.0048171 0.00500888 0)
(-0.0374329 -0.00506113 0)
(-0.0584327 -0.0130149 0)
(-0.0698817 -0.0193198 0)
(-0.0737128 -0.0227531 0)
(-0.0722938 -0.0227238 0)
(-0.0678175 -0.0196746 0)
(-0.0619746 -0.0146898 0)
(-0.0558883 -0.00892309 0)
(-0.0501997 -0.00324633 0)
(-0.0452103 0.00180169 0)
(-0.041035 0.00597767 0)
(-0.0376544 0.00925892 0)
(-0.0349433 0.0117907 0)
(-0.0330813 0.0138857 0)
(-0.0415868 -0.208463 0)
(0.14867 -0.632457 0)
(0.20797 -0.635675 0)
(0.462387 -0.35615 0)
(0.64258 0.227294 0)
(0.497722 0.397444 0)
(0.305345 0.283097 0)
(0.136871 0.156612 0)
(0.0285037 0.0626151 0)
(-0.0202628 0.0264302 0)
(-0.0472323 0.00571728 0)
(-0.0617961 -0.0106445 0)
(-0.0669572 -0.0212695 0)
(-0.0661444 -0.0257266 0)
(-0.0620311 -0.0249419 0)
(-0.0565562 -0.0206898 0)
(-0.0509268 -0.0147384 0)
(-0.0457886 -0.00841928 0)
(-0.0414123 -0.00255435 0)
(-0.0378628 0.00245349 0)
(-0.035098 0.00650239 0)
(-0.032945 0.0096981 0)
(-0.0315701 0.0123423 0)
(0.132264 -0.421729 0)
(0.146726 -0.585244 0)
(0.148156 -0.612097 0)
(0.188101 -0.541851 0)
(0.375195 0.206855 0)
(0.406274 0.451684 0)
(0.242103 0.418239 0)
(0.140178 0.283117 0)
(0.0477769 0.159211 0)
(-0.0136143 0.072083 0)
(-0.0415153 0.0289515 0)
(-0.0566368 -0.000603243 0)
(-0.0614219 -0.0195487 0)
(-0.0602181 -0.028728 0)
(-0.0559237 -0.0301216 0)
(-0.050558 -0.0264177 0)
(-0.0452772 -0.0201117 0)
(-0.0406581 -0.0130305 0)
(-0.0368968 -0.00629015 0)
(-0.0339952 -0.00044032 0)
(-0.0318587 0.00434677 0)
(-0.0303 0.00815221 0)
(-0.0294579 0.0112807 0)
(0.0598445 -0.514263 0)
(0.130529 -0.581427 0)
(0.146835 -0.602787 0)
(0.143294 -0.494222 0)
(0.144774 0.0764825 0)
(0.130104 0.527498 0)
(0.0947058 0.48929 0)
(0.0462024 0.345938 0)
(0.00970229 0.216342 0)
(-0.0257681 0.112798 0)
(-0.0466533 0.049704 0)
(-0.0553629 0.00777274 0)
(-0.0568608 -0.0191191 0)
(-0.0539964 -0.0324082 0)
(-0.0490606 -0.0354619 0)
(-0.0436978 -0.0319193 0)
(-0.0388026 -0.025001 0)
(-0.0347802 -0.0170127 0)
(-0.0317124 -0.00933963 0)
(-0.029516 -0.00265164 0)
(-0.0280649 0.00283321 0)
(-0.0271232 0.00718905 0)
(-0.0268428 0.0107351 0)
(0.0355257 -0.543032 0)
(0.109733 -0.608402 0)
(0.15045 -0.60486 0)
(0.157996 -0.487623 0)
(-0.00280488 0.257961 0)
(-0.0857913 0.574547 0)
(-0.0555721 0.494958 0)
(-0.0497141 0.360755 0)
(-0.0426028 0.23554 0)
(-0.0494476 0.131941 0)
(-0.0551845 0.0602373 0)
(-0.0552163 0.0106001 0)
(-0.0520214 -0.0215186 0)
(-0.0468533 -0.0372983 0)
(-0.0411668 -0.0410419 0)
(-0.0358976 -0.0371067 0)
(-0.031539 -0.0292689 0)
(-0.0282537 -0.0202403 0)
(-0.0259884 -0.0116028 0)
(-0.0245741 -0.00411261 0)
(-0.023837 0.00200907 0)
(-0.0235387 0.00684194 0)
(-0.0238423 0.010727 0)
(0.0617873 -0.606291 0)
(0.154012 -0.678292 0)
(0.119637 -0.738044 0)
(-0.124688 -0.435883 0)
(-0.338348 0.38778 0)
(-0.237558 0.523633 0)
(-0.175234 0.449646 0)
(-0.123918 0.335976 0)
(-0.0880668 0.22476 0)
(-0.0717718 0.130342 0)
(-0.0618571 0.058825 0)
(-0.0532717 0.00630851 0)
(-0.0453718 -0.0272613 0)
(-0.0382338 -0.0434365 0)
(-0.0321644 -0.0466946 0)
(-0.0273133 -0.0417684 0)
(-0.0237336 -0.0327316 0)
(-0.0213462 -0.0225768 0)
(-0.0199715 -0.0129952 0)
(-0.0193774 -0.00477582 0)
(-0.0193729 0.00189346 0)
(-0.0196988 0.0071179 0)
(-0.020567 0.0112573 0)
(0.0215389 -0.853916 0)
(-0.047121 -0.759309 0)
(-0.223423 -0.471953 0)
(-0.46096 0.00604042 0)
(-0.413291 0.334849 0)
(-0.327235 0.424734 0)
(-0.240239 0.37226 0)
(-0.166829 0.284374 0)
(-0.116889 0.192961 0)
(-0.085107 0.111663 0)
(-0.0634479 0.0458586 0)
(-0.0474342 -0.00427473 0)
(-0.0361029 -0.0356519 0)
(-0.0280494 -0.0501619 0)
(-0.022315 -0.0519193 0)
(-0.0183762 -0.0455311 0)
(-0.0158562 -0.0351935 0)
(-0.0144985 -0.0239232 0)
(-0.0140307 -0.0134932 0)
(-0.0142216 -0.00465346 0)
(-0.0148738 0.00245302 0)
(-0.0157695 0.00796835 0)
(-0.0171502 0.0122878 0)
(-0.0848039 -0.70534 0)
(-0.249103 -0.497078 0)
(-0.404694 -0.249626 0)
(-0.471024 -0.0243022 0)
(-0.425639 0.239136 0)
(-0.343455 0.316767 0)
(-0.256364 0.284409 0)
(-0.179314 0.220269 0)
(-0.125186 0.149097 0)
(-0.0856683 0.0819174 0)
(-0.0574411 0.0249539 0)
(-0.0370902 -0.0189472 0)
(-0.0245046 -0.0454156 0)
(-0.0168135 -0.0566378 0)
(-0.0122924 -0.0561303 0)
(-0.00978777 -0.0480388 0)
(-0.00858855 -0.0364786 0)
(-0.00827982 -0.0242841 0)
(-0.00863532 -0.0131917 0)
(-0.00945007 -0.00386246 0)
(-0.010615 0.00357923 0)
(-0.0119318 0.00930981 0)
(-0.0137111 0.0137251 0)
(-0.109989 -0.472222 0)
(-0.263737 -0.352154 0)
(-0.372465 -0.195633 0)
(-0.414953 0.00383237 0)
(-0.383236 0.165908 0)
(-0.309767 0.218851 0)
(-0.233282 0.200941 0)
(-0.165416 0.155422 0)
(-0.113684 0.101269 0)
(-0.0732807 0.0473203 0)
(-0.0430046 -0.000175522 0)
(-0.0228639 -0.0348244 0)
(-0.0114164 -0.0548703 0)
(-0.00545938 -0.061887 0)
(-0.00293765 -0.0586724 0)
(-0.002335 -0.0490138 0)
(-0.00265632 -0.0365016 0)
(-0.00333127 -0.0237723 0)
(-0.00426068 -0.0122917 0)
(-0.00541511 -0.00263442 0)
(-0.00682365 0.00507647 0)
(-0.00836992 0.0109895 0)
(-0.0103937 0.015449 0)
(-0.0849886 -0.339415 0)
(-0.208279 -0.236664 0)
(-0.296148 -0.117352 0)
(-0.329343 0.0098525 0)
(-0.306656 0.111655 0)
(-0.248163 0.143321 0)
(-0.187889 0.131942 0)