/*--------------------------------*- C++ -*----------------------------------*\
| =========                 |                                                 |
| \\      /  F ield         | OpenFOAM: The Open Source CFD Toolbox           |
|  \\    /   O peration     | Version:  2312                                  |
|   \\  /    A nd           | Website:  www.openfoam.com                      |
|    \\/     M anipulation  |                                                 |
\*---------------------------------------------------------------------------*/
FoamFile
{
    version     2.0;
    format      ascii;
    arch        "LSB;label=32;scalar=64";
    class       volScalarField;
    location    "1.7";
    object      alpha.water_0;
}
// * * * * * * * * * * * * * * * * * * * * * * * * * * * * * * * * * * * * * //

dimensions      [0 0 0 0 0 0 0];

internalField   nonuniform List<scalar> 
2268
(
6.69275e-10
3.37309e-10
1.28796e-10
5.75746e-11
3.86743e-11
3.07706e-11
2.8301e-11
2.71928e-11
2.6729e-11
2.61474e-11
2.57418e-11
2.58176e-11
2.62215e-11
2.74243e-11
2.99682e-11
3.55548e-11
4.51721e-11
6.22039e-11
9.63395e-11
1.66226e-10
2.90952e-10
4.52198e-10
6.16213e-10
1.02287e-09
7.1932e-10
3.36955e-10
1.54131e-10
1.07109e-10
7.00173e-11
5.28602e-11
4.64787e-11
4.28335e-11
4.49826e-11
4.31924e-11
4.28023e-11
4.33671e-11
4.44165e-11
5.06021e-11
6.07824e-11
8.39638e-11
1.34848e-10
2.40835e-10
4.60251e-10
1.16561e-09
2.07841e-09
2.13638e-09
8.14164e-10
7.89784e-10
4.77904e-10
2.75107e-10
1.52459e-10
1.30998e-10
9.49931e-11
8.07891e-11
6.9922e-11
7.59588e-11
5.64349e-11
4.45087e-11
4.88433e-11
4.45772e-11
5.61705e-11
7.08022e-11
9.7665e-11
1.72717e-10
3.29876e-10
6.58484e-10
1.50726e-09
2.54942e-09
2.55046e-09
3.80168e-11
3.78868e-11
3.79571e-11
3.78868e-11
3.80168e-11
3.78868e-11
4.5848e-11
4.47712e-11
3.72209e-11
3.86592e-11
3.65917e-11
2.99628e-11
3.83938e-11
3.2436e-11
3.88987e-11
5.43583e-11
6.86281e-11
9.12969e-11
1.92832e-10
6.44212e-10
1.27174e-09
1.79125e-09
2.05368e-09
0.0462354
0.036534
0.0471535
0.0336511
0.0285415
0.0209222
0.00542691
2.2917e-11
2.29251e-11
2.3214e-11
2.34065e-11
2.22316e-11
2.21874e-11
2.21346e-11
2.22164e-11
2.21843e-11
3.96676e-11
1.4516e-10
5.35256e-10
8.9538e-10
6.83849e-10
2.34719e-10
2.85215e-10
0.320581
0.335432
0.426101
0.595195
0.648912
0.636002
0.53627
0.390717
0.298756
0.266425
0.269418
0.267813
0.231472
0.160181
0.0763815
0.00928884
6.9799e-14
-5.28334e-16
1.41113e-20
3.69653e-20
-2.53332e-20
5.5844e-20
-1.04058e-19
0.0348504
0.0458238
0.283192
0.876224
0.988453
0.998865
0.998872
0.988784
0.959525
0.947239
0.945975
0.943947
0.922701
0.864858
0.751282
0.571166
0.353301
0.198547
0.125899
0.0971529
0.0909994
0.0944159
0.130629
4.04212e-08
0.000822522
0.0287707
0.232677
0.572477
0.988949
0.998873
0.999186
0.999189
0.999193
0.999261
0.999315
0.999323
0.999699
0.999683
0.999248
0.976034
0.904626
0.818067
0.776639
0.734809
0.693813
0.721272
0.125552
0.125506
0.0608737
0.0408885
0.0314577
0.0314203
0.0314072
0.031394
0.0309219
0.0306693
0.0305997
0.0298342
0.0316039
0.0296724
0.0299226
0.0272214
0.0276314
0.0256382
0.0151571
0.0554901
0.0321141
0.0673545
0.105341
0.154168
0.101974
0.0314373
0.058247
0.114798
0.107936
0.0269675
0.00856966
0.00857682
0.00856774
0.0111828
0.0194714
0.0123479
0.0122627
0.0122913
0.012109
0.0121142
0.0143463
0.0143723
0.0536269
0.292446
0.378128
0.454696
0.45026
0.448578
0.279903
0.093623
0.0142479
0.00857805
0.00857144
0.116123
0.239171
0.241445
0.266799
0.0928603
0.177801
0.168844
0.171104
0.0887604
0.218972
0.378809
0.214258
0.197512
0.312457
0.422575
0.328151
0.156069
0.00861901
0.00863606
0.0429659
0.253634
0.787801
0.63448
0.611238
0.852747
0.813151
0.684377
0.24833
0.147165
0.14859
0.131411
0.256286
0.345373
0.53255
0.583258
0.279899
0.115104
0.103254
0.238374
0.522005
0.898603
0.658875
0.949928
0.972973
0.977161
0.961397
0.466152
0.153302
0.132636
0.13123
0.435208
0.750964
0.857884
0.941524
0.874131
0.360295
0.19765
0.378243
0.863007
0.898609
0.861469
0.780676
0.70945
0.876587
0.991041
0.816978
0.306112
0.132323
0.144893
0.397889
0.823896
0.943447
0.999847
0.999972
0.702364
0.381357
0.544612
0.898601
0.898617
0.898633
0.615776
0.594787
0.762452
0.990624
0.990288
0.84988
0.607291
0.452547
0.541734
0.622023
0.824957
0.997871
0.999972
0.781059
0.349248
0.857146
0.898583
0.897581
0.898595
3.99136e-08
3.86495e-06
0.000792537
0.000369622
0.00359572
0.340901
0.868893
0.947406
0.975394
0.999221
0.9992
0.998906
0.99925
0.999834
0.999834
0.99984
0.999784
0.999787
0.999658
0.99934
0.996226
0.958151
0.92373
1.55768e-05
6.67616e-06
8.47473e-05
3.00247e-05
0.00277143
0.00302563
0.0984023
0.362085
0.654614
0.852766
0.948054
0.994432
0.99852
0.962333
0.946212
0.973071
0.997616
0.981714
0.975235
0.965931
0.938909
0.826391
0.577468
3.51679e-05
3.49678e-05
2.29177e-05
0.000180169
0.00433224
0.00596894
0.0260527
0.0249706
0.0437062
0.129505
0.360288
0.637701
0.899683
0.930486
0.928243
0.798047
0.822657
0.865575
0.813621
0.679681
0.376591
0.146229
0.000164112
1.52165e-05
4.96316e-05
2.25725e-05
1.221e-05
3.57366e-05
0.000722871
7.98337e-06
1.70359e-09
7.27476e-20
-8.72356e-20
-1.61311e-19
0.0280729
0.119238
0.200802
0.301452
0.428758
0.359261
0.345291
0.398076
0.389873
0.167493
0.0233507
0.00196995
7.0941e-06
4.42865e-05
3.98923e-05
1.54008e-05
2.00282e-06
4.21638e-06
4.21578e-06
0.000238173
0.00121186
0.000444099
-2.74653e-09
0.000200903
6.98616e-06
7.09403e-06
7.00542e-06
7.11511e-06
7.0942e-06
7.43606e-06
0.00175739
0.0505775
0.115764
0.108004
0.0619596
7.11319e-06
8.08313e-06
4.16987e-05
1.43447e-05
2.00006e-06
2.00276e-06
0.000552303
0.00479117
0.00421869
0.00100244
0.00126735
0.000306444
0.000148796
0.000209063
0.000637089
0.00250536
0.00440802
0.0032665
0.00057275
2.07147e-08
4.1575e-08
2.07147e-08
0.0029637
3.17133e-05
1.19207e-05
8.7342e-06
4.38735e-06
1.47494e-05
3.46659e-05
0.00363225
0.00513406
0.00513234
0.00473198
0.0055416
0.00558025
0.0051201
0.00643114
0.0128526
0.0177924
0.0178306
0.0154245
0.00408414
6.73771e-08
2.59901e-05
1.67316e-05
4.08885e-13
4.23412e-05
4.23408e-05
1.91824e-05
2.11721e-05
2.11081e-05
1.1563e-05
0.00308969
0.00471455
0.00033653
0.000792952
0.00519786
0.00790893
0.00927557
0.0098547
0.0138268
0.0140549
0.0124084
0.00326827
0.000513101
0.000117464
9.17044e-05
6.7214e-05
2.73038e-05
4.23412e-05
3.98314e-05
3.64517e-05
3.14166e-05
1.4216e-05
1.13775e-05
0.000989912
0.00111424
1.62799e-07
1.39801e-09
1.53375e-09
1.88643e-09
1.02711e-10
9.46808e-27
-2.06711e-09
-5.90347e-25
3.00589e-24
-1.06609e-24
-2.82252e-10
1.56402e-05
5.86127e-05
3.08384e-05
7.47849e-06
4.09619e-05
3.76595e-06
2.56607e-06
2.62978e-06
1.71663e-05
1.78962e-05
3.22928e-07
3.21667e-07
3.22187e-07
1.21256e-06
1.0111e-06
3.25849e-07
8.24581e-09
8.83198e-20
9.69639e-07
3.22888e-06
3.30738e-06
7.80021e-07
3.72916e-09
7.13225e-10
7.05031e-10
7.12946e-10
7.05198e-10
1.05472e-05
3.5108e-06
2.55208e-06
2.9538e-06
4.47771e-06
1.15126e-05
3.21707e-07
3.21707e-07
2.3625e-06
2.62316e-06
2.54227e-06
8.69024e-07
1.40997e-07
3.78381e-15
1.50675e-06
3.07497e-06
3.03177e-06
3.51218e-07
1.23536e-08
2.44124e-09
4.39276e-09
7.06773e-10
1.88332e-05
2.53488e-06
3.30054e-06
3.2018e-06
1.4707e-06
3.68248e-07
5.13053e-07
8.87263e-07
1.53445e-06
2.34335e-06
1.34e-06
5.9665e-07
3.92011e-07
2.83373e-08
2.17811e-09
1.90152e-10
1.86064e-10
1.90555e-10
1.86439e-10
1.46702e-09
5.62301e-09
1.01291e-08
2.22879e-07
0.000102063
3.03695e-08
9.24408e-08
3.80638e-08
3.21562e-08
3.56452e-07
4.56268e-07
5.36912e-07
6.04533e-07
2.46433e-07
3.41082e-11
6.26853e-11
9.56546e-09
1.8385e-08
8.27086e-10
2.32352e-10
3.69722e-10
9.64289e-10
1.82402e-09
3.63818e-09
5.50503e-09
6.47076e-09
6.45148e-09
0.000101864
3.04178e-08
3.04546e-08
3.06767e-08
3.21959e-08
3.85624e-08
6.38878e-08
9.01619e-08
5.00855e-08
3.94894e-09
7.31923e-09
1.3192e-09
2.88793e-10
2.87357e-10
3.28238e-10
3.72886e-10
7.06157e-10
1.31338e-09
2.09089e-09
2.64777e-09
3.34644e-09
2.57075e-09
1.40963e-08
3.93212e-06
3.39549e-08
3.10116e-08
5.29403e-08
7.97348e-08
7.54557e-08
4.72449e-08
4.55025e-10
4.04813e-10
4.04604e-10
4.30482e-10
4.01931e-10
3.85034e-10
2.86962e-10
2.53121e-10
3.11342e-10
5.33725e-10
8.58992e-10
1.21e-09
1.80696e-09
2.28778e-09
2.55793e-09
1.03036e-09
2.86811e-11
9.31526e-08
3.13966e-08
7.85662e-08
7.71248e-08
1.26849e-08
1.19442e-09
1.08132e-09
1.08308e-09
7.92619e-10
5.01578e-10
3.60478e-10
2.3617e-10
1.54614e-10
1.44633e-10
1.8596e-10
2.80396e-10
4.47316e-10
7.2564e-10
1.00333e-09
1.04884e-09
9.52867e-10
4.41897e-10
7.90987e-11
4.17521e-07
4.1596e-09
8.59482e-09
8.95746e-09
1.91608e-09
1.81595e-09
1.46372e-09
9.43884e-10
5.29276e-10
2.94554e-10
1.73798e-10
1.15394e-10
1.01678e-10
9.17139e-11
9.86956e-11
1.39492e-10
2.31663e-10
3.66166e-10
4.94624e-10
4.86854e-10
2.52799e-10
1.24102e-10
1.03163e-10
7.43283e-07
3.93812e-09
3.7045e-09
3.68722e-09
2.25781e-09
1.3024e-09
7.14382e-10
4.17965e-10
2.57357e-10
1.47413e-10
8.82449e-11
7.03246e-11
5.46628e-11
4.45392e-11
4.42891e-11
5.73607e-11
8.76034e-11
1.33464e-10
1.76536e-10
1.77058e-10
9.17581e-11
7.75013e-11
1.0042e-10
7.03984e-07
2.62712e-10
3.69711e-09
3.91209e-09
2.2189e-09
7.27749e-10
3.23841e-10
2.60607e-10
1.80482e-10
1.15363e-10
7.19837e-11
4.70901e-11
3.06872e-11
2.14386e-11
1.79176e-11
2.03624e-11
2.87956e-11
4.18355e-11
5.48693e-11
5.86156e-11
5.09462e-11
5.35007e-11
7.90218e-11
9.11788e-07
1.09542e-10
1.7593e-09
3.92351e-09
2.34037e-09
5.63297e-10
2.71188e-10
2.44816e-10
1.71133e-10
1.15531e-10
6.79051e-11
3.90277e-11
2.15998e-11
1.22666e-11
7.96629e-12
7.07602e-12
8.91566e-12
1.29958e-11
1.84533e-11
2.37047e-11
2.73435e-11
3.08185e-11
3.99326e-11
1.27356e-06
5.20596e-11
3.39413e-10
3.3859e-09
1.97827e-09
3.76431e-10
3.77889e-10
3.22717e-10
2.02733e-10
1.35419e-10
7.32302e-11
3.77007e-11
1.88953e-11
9.28922e-12
4.68935e-12
2.78813e-12
2.39048e-12
3.11628e-12
4.57435e-12
6.40309e-12
8.47713e-12
1.17192e-11
2.86343e-11
1.36619e-06
7.87371e-08
8.94628e-13
1.50712e-09
1.13169e-09
6.41013e-10
6.00487e-10
3.90379e-10
2.38473e-10
1.54126e-10
8.23439e-11
3.94724e-11
1.84203e-11
8.457e-12
3.78256e-12
1.73075e-12
7.99899e-13
6.74587e-13
9.88208e-13
1.73472e-12
3.14084e-12
5.93985e-12
1.2413e-11
1.37945e-06
4.48275e-07
1.03255e-12
3.26171e-10
8.24071e-10
1.15612e-09
1.10181e-09
4.64078e-10
2.8104e-10
1.75505e-10
8.7887e-11
4.01819e-11
1.81877e-11
8.04906e-12
3.4234e-12
1.42111e-12
5.43789e-13
2.04428e-13
1.94531e-13
3.29151e-13
6.60127e-13
1.56591e-12
4.82998e-12
1.38188e-06
1.57001e-06
9.30721e-13
1.87536e-10
1.12044e-09
2.06389e-09
2.13417e-09
5.74443e-10
3.36128e-10
1.97152e-10
9.18216e-11
4.01072e-11
1.75305e-11
7.5238e-12
3.11167e-12
1.22878e-12
4.7168e-13
1.22345e-13
5.4528e-14
8.66653e-14
2.18296e-13
5.45635e-13
1.33797e-12
6.5808e-07
1.68458e-06
1.07042e-12
6.77804e-11
1.07366e-09
2.94186e-09
3.09118e-09
7.50064e-10
4.04094e-10
2.17801e-10
9.5026e-11
3.92028e-11
1.63436e-11
6.77159e-12
2.73419e-12
1.04402e-12
3.75692e-13
1.25306e-13
2.44111e-14
1.71469e-14
3.71608e-14
1.10548e-13
3.50442e-13
2.86239e-07
1.69384e-06
1.3371e-06
4.7034e-11
1.85185e-10
3.21489e-09
3.3394e-09
9.79848e-10
4.9043e-10
2.38085e-10
9.79053e-11
3.77279e-11
1.48044e-11
5.85343e-12
2.29119e-12
8.55625e-13
2.98497e-13
9.81833e-14
1.9584e-14
6.23674e-15
1.00073e-14
2.87931e-14
8.22229e-14
1.61887e-07
1.48696e-06
3.05041e-06
3.67079e-07
1.13973e-08
3.17855e-09
3.25355e-09
1.15384e-09
5.95941e-10
2.85493e-10
1.0219e-10
3.63704e-11
1.31222e-11
4.89697e-12
1.82068e-12
6.6496e-13
2.2509e-13
6.96878e-14
1.86285e-14
2.86319e-15
1.62143e-15
4.15661e-15
1.47767e-14
1.61552e-07
1.30558e-06
3.05073e-06
2.97545e-06
2.75376e-07
6.94959e-09
2.30674e-09
1.32687e-09
7.07504e-10
3.40123e-10
1.16009e-10
3.56405e-11
1.14526e-11
3.96369e-12
1.39769e-12
4.86108e-13
1.58663e-13
4.77681e-14
1.23181e-14
2.21611e-15
5.56424e-16
8.65579e-16
2.86099e-15
3.50237e-07
1.28424e-06
3.0504e-06
2.80141e-06
2.74021e-07
2.09163e-08
2.13342e-09
1.45355e-09
8.09524e-10
4.17664e-10
1.42444e-10
3.82073e-11
1.00389e-11
3.1302e-12
1.02981e-12
3.36132e-13
1.05705e-13
3.01915e-14
7.42446e-15
1.58195e-15
2.18192e-16
1.11906e-16
3.54435e-16
6.72797e-07
5.11995e-07
1.92662e-06
5.63933e-07
1.42413e-07
1.25314e-08
2.3584e-09
1.59239e-09
8.99326e-10
5.01925e-10
1.84993e-10
4.66278e-11
9.41334e-12
2.41053e-12
7.26229e-13
2.20852e-13
6.56896e-14
1.79378e-14
4.30038e-15
8.23878e-16
1.16049e-16
2.25668e-17
4.52137e-17
6.72402e-07
6.15057e-08
3.17319e-08
5.44385e-08
1.2968e-08
3.88185e-09
2.6557e-09
1.89379e-09
9.74923e-10
5.65117e-10
2.46969e-10
6.44937e-11
1.07427e-11
1.91133e-12
4.87002e-13
1.38572e-13
3.78591e-14
9.80527e-15
2.20643e-15
3.73953e-16
6.24216e-17
5.22257e-18
4.34315e-18
4.91806e-07
9.55847e-08
3.22768e-09
3.23925e-09
3.58453e-09
3.35951e-09
5.27206e-09
2.73986e-09
1.08835e-09
6.27772e-10
3.02624e-10
9.06054e-11
1.62001e-11
1.87416e-12
3.2172e-13
8.08343e-14
2.02588e-14
4.69787e-15
9.81606e-16
1.66311e-16
2.36089e-17
1.98859e-18
5.25362e-19
9.1059e-07
1.43482e-07
1.08385e-08
3.22774e-09
6.05869e-09
1.53857e-08
1.25989e-08
4.1239e-09
1.16867e-09
6.9124e-10
3.43454e-10
1.17641e-10
2.39262e-11
2.87869e-12
2.58298e-13
4.48399e-14
9.86368e-15
2.09462e-15
4.08122e-16
5.68683e-17
9.57174e-18
6.91333e-19
6.27103e-20
1.18593e-06
8.55478e-08
1.58711e-08
1.09958e-08
1.88699e-08
1.95058e-08
1.32436e-08
5.0049e-09
1.36344e-09
7.62822e-10
3.62169e-10
1.26013e-10
3.00166e-11
4.30183e-12
3.54729e-13
2.72998e-14
4.68813e-15
8.26896e-16
1.44822e-16
2.40986e-17
2.72609e-18
2.37102e-19
1.52969e-20
1.19055e-06
7.31438e-08
1.32187e-08
1.31478e-08
1.61753e-08
1.4527e-08
7.72824e-09
2.54092e-09
1.30855e-09
7.662e-10
3.46646e-10
1.25705e-10
3.10526e-11
5.06886e-12
5.07101e-13
3.03486e-14
2.23026e-15
3.53898e-16
5.6398e-17
6.92541e-18
9.14733e-19
8.3726e-20
3.56601e-21
1.1906e-06
1.00671e-06
3.19941e-07
2.00017e-09
1.9667e-09
2.04731e-09
1.56994e-09
1.51592e-09
1.16283e-09
6.69259e-10
3.05542e-10
1.04149e-10
2.63787e-11
4.6859e-12
5.45738e-13
3.8064e-14
1.79403e-15
1.43314e-16
2.01651e-17
2.56974e-18
2.62139e-19
2.36317e-20
1.07317e-21
2.52674e-07
1.12664e-06
1.12643e-06
9.78065e-07
3.37489e-07
1.29507e-09
1.28943e-09
1.22343e-09
8.68907e-10
4.74438e-10
2.00037e-10
6.56117e-11
1.6405e-11
3.06454e-12
4.04422e-13
3.48303e-14
1.81588e-15
7.5376e-17
6.87325e-18
6.9341e-19
6.69993e-20
5.65084e-21
2.59359e-22
1.77965e-08
5.5082e-07
1.06034e-06
9.86714e-07
2.74254e-07
1.30064e-09
1.36559e-09
1.04712e-09
5.89106e-10
2.66276e-10
9.82241e-11
2.9517e-11
7.09889e-12
1.33444e-12
1.90005e-13
1.95126e-14
1.33325e-15
5.70683e-17
2.42718e-18
2.03457e-19
1.57561e-20
1.06387e-21
4.25639e-23
1.44778e-08
8.7581e-09
1.31539e-07
9.27971e-08
2.31438e-08
4.3915e-09
1.96416e-09
8.946e-10
3.31946e-10
1.1001e-10
3.23513e-11
8.32494e-12
1.82855e-12
3.34602e-13
5.00458e-14
6.04764e-15
5.58027e-16
3.45861e-17
1.26383e-18
6.50736e-20
3.89801e-21
2.04481e-22
7.76045e-24
3.16209e-09
5.98668e-09
2.56331e-09
3.44538e-09
3.39232e-09
1.64253e-09
6.89202e-10
2.5609e-10
8.64796e-11
2.57312e-11
6.52269e-12
1.41413e-12
2.67321e-13
4.55891e-14
7.1904e-15
1.03506e-15
1.32267e-16
1.33746e-17
8.42921e-19
3.64735e-20
1.23417e-21
4.96414e-23
1.84019e-24
9.101e-10
2.80374e-09
2.55859e-09
1.72005e-09
8.03502e-10
3.26438e-10
1.24431e-10
4.18324e-11
1.19877e-11
2.88402e-12
5.93466e-13
1.09236e-13
1.91862e-14
3.40873e-15
6.11178e-16
1.08853e-16
1.84103e-17
2.73618e-18
3.24757e-19
2.57011e-20
8.1304e-22
2.55577e-23
4.8906e-25
2.10699e-10
5.60099e-10
5.56228e-10
2.8706e-10
1.01708e-10
3.15872e-11
9.29155e-12
2.32451e-12
5.09177e-13
1.0082e-13
1.88939e-14
3.49783e-15
6.71648e-16
1.33958e-16
2.93592e-17
6.29136e-18
1.25266e-18
2.34008e-19
3.89794e-20
5.4448e-21
5.73106e-22
3.60792e-23
5.46577e-25
0.774458
0.737001
0.607999
0.58494
0.494846
0.503011
0.541354
0.540967
0.00016395
0.000163638
0.000163952
0.000163949
0.000163566
0.000183778
0.000163949
0.000163974
0.0115106
0.0122919
0.00998939
0.00346831
0.0360118
0.0532506
0.0531297
0.0468861
1.01731e-08
3.50957e-07
2.54573e-07
1.07736e-06
1.38645e-05
8.19554e-06
8.50802e-06
1.25918e-05
4.69468e-06
5.0546e-06
1.18305e-05
3.315e-05
3.22839e-05
0.000179188
0.000243025
0.000220472
0.000332259
0.000371603
0.000392087
0.000392278
0.0003822
0.000378713
0.000377326
0.000351889
0.000338658
0.000207237
6.15517e-05
5.0427e-05
5.69942e-05
9.63118e-05
5.50804e-05
2.29576e-05
2.85007e-11
2.42954e-07
4.0489e-05
3.48878e-05
2.86883e-11
2.16449e-11
2.25031e-11
2.30362e-11
1.1764e-10
1.34709e-10
1.10143e-10
9.91166e-11
2.24421e-10
6.00633e-10
1.25946e-09
3.04793e-09
1.17031e-10
5.15399e-10
1.87692e-09
3.80016e-09
8.008e-11
2.33798e-10
5.48622e-10
7.99472e-10
6.63875e-11
1.03744e-10
1.72915e-10
2.19563e-10
3.29986e-11
4.88431e-11
7.66057e-11
1.06462e-10
1.08003e-11
1.721e-11
3.12513e-11
4.35778e-11
3.53581e-12
5.79242e-12
9.91407e-12
1.50422e-11
8.76849e-13
1.61126e-12
2.89567e-12
4.38353e-12
2.31006e-13
4.12713e-13
7.42234e-13
1.22148e-12
4.61751e-14
9.11864e-14
1.72337e-13
2.9411e-13
8.77253e-15
1.59995e-14
3.35985e-14
5.98801e-14
1.21376e-15
2.52219e-15
5.4168e-15
1.02972e-14
1.53301e-16
3.12669e-16
7.44976e-16
1.45011e-15
1.53549e-17
3.52304e-17
8.18296e-17
1.68694e-16
1.35819e-18
3.25129e-18
8.37383e-18
1.77628e-17
9.16703e-20
2.52159e-19
7.15763e-19
1.68775e-18
7.17822e-21
2.11629e-20
5.7507e-20
1.39755e-19
3.6917e-22
1.02977e-21
4.06241e-21
1.16366e-20
3.36167e-23
6.67178e-23
2.37416e-22
8.08906e-22
3.7927e-24
3.59285e-24
1.47877e-23
5.70257e-23
7.56735e-25
2.12957e-25
6.67479e-25
3.20279e-24
1.78032e-25
1.90587e-26
2.19633e-26
1.25981e-25
5.24536e-26
3.63334e-27
1.34916e-27
5.04097e-27
1.36541e-26
9.39016e-28
1.33054e-28
2.47893e-28
5.63497e-27
2.89776e-28
2.42132e-29
1.25925e-29
0.417814
0.511986
0.819828
0.996829
0.999319
0.999293
0.994467
0.982149
0.972717
0.978533
0.990566
0.997923
0.999972
0.648752
0.281158
0.756589
0.658842
0.579516
0.898471
0.276019
0.305836
0.749844
0.990577
0.998319
0.999302
0.999972
0.999972
0.999972
0.999972
0.999972
0.999972
0.999972
0.850104
0.27974
0.329687
0.584339
0.521884
0.83311
0.000163985
0.000842749
0.0140392
0.323108
0.756289
0.934319
0.964326
0.978519
0.998515
0.999877
0.999972
0.999972
0.999972
0.952515
0.338822
0.308607
0.586936
0.543541
0.316774
0.0210164
0.0212405
0.00210668
0.00013349
0.0140749
0.0590734
0.189256
0.596137
0.965402
0.99877
0.998792
0.968687
0.985771
0.978527
0.537601
0.395863
0.618879
0.438897
0.156484
0.0316209
0.0483299
0.035677
0.00212533
9.6904e-05
0.000118101
1.14437e-06
0.015716
0.105285
0.546037
0.93094
0.90187
0.937225
0.978449
0.939601
0.577408
0.649482
0.494177
0.156196
0.0166691
0.0244733
0.0324509
0.0223408
0.000515343
9.83722e-07
8.09902e-07
0.000973521
0.00459816
0.029596
0.216404
0.521704
0.88456
0.973645
0.973722
0.907334
0.883696
0.728589
0.169549
5.35918e-05
0.001254
0.00809808
0.00956362
0.00356229
8.14621e-07
8.09904e-07
8.09902e-07
8.09904e-07
0.0178117
0.019257
0.0293402
0.39049
0.792447
0.916519
0.887517
0.881894
0.862828
0.224778
1.06405e-08
6.88609e-09
6.15994e-09
0.000360834
0.000815757
0.000176626
1.82285e-06
5.04601e-06
8.09926e-07
0.000131342
0.00647077
0.00574902
0.0168459
0.130289
0.138644
0.490417
0.876616
0.856126
0.281157
3.16883e-05
9.65277e-06
9.43766e-09
3.0904e-21
4.49989e-21
1.9759e-05
3.42647e-06
9.47128e-06
2.04625e-05
2.58379e-11
2.9485e-18
0.00320995
0.00877861
0.0092295
2.59177e-09
0.25617
0.790837
0.734613
0.261508
0.000217418
0.00028234
0.000206093
3.8168e-05
5.29349e-21
6.26309e-23
4.44922e-07
1.07088e-05
3.56225e-05
4.24935e-06
1.46122e-20
0.000519074
0.00659416
0.00076321
2.70478e-09
0.18605
0.712327
0.71814
0.224284
0.000392087
0.000372666
0.000261792
5.15135e-05
1.56805e-14
-4.28029e-13
4.36613e-08
1.7845e-05
3.54394e-05
1.34431e-06
1.84232e-11
9.29063e-07
0.000113353
4.32171e-05
-4.65753e-08
0.109776
0.620789
0.673072
0.134046
0.000299459
7.06307e-05
4.94014e-06
8.30148e-06
6.80338e-09
4.59085e-09
6.62976e-07
2.91094e-05
3.23253e-05
7.44327e-07
2.44416e-06
4.2759e-05
8.68825e-05
0.000116075
0.00139822
0.0129649
0.102868
0.15843
0.0516913
4.87165e-05
2.6522e-05
2.56687e-05
1.57584e-06
1.55451e-08
4.94069e-08
5.1865e-07
2.11063e-05
2.75319e-05
2.45174e-06
2.36989e-06
0.000285586
0.00534532
0.00801855
0.00313126
4.04687e-05
4.074e-05
4.04688e-05
4.09452e-05
2.32424e-05
6.804e-05
0.000128515
5.56087e-05
1.44748e-06
4.59697e-08
8.80201e-07
2.89073e-06
5.30147e-06
6.51941e-05
0.000470948
0.0003808
0.00789253
0.0121602
0.0106261
0.00162982
4.03775e-05
4.08442e-05
4.12692e-05
2.31452e-05
8.36358e-05
0.000172873
0.000171812
9.35053e-05
8.31698e-06
8.74501e-07
1.15702e-06
2.95332e-06
0.000558136
0.000916402
0.000423014
0.00170579
0.0106868
0.0121972
0.0111578
0.000189047
4.20923e-05
0.000188072
2.27031e-08
4.03569e-06
3.69737e-05
0.000111935
0.000112689
2.9175e-05
9.96966e-07
7.72094e-06
8.55878e-05
0.000536439
0.000919707
0.000790329
0.000128055
0.000529909
0.00942569
0.0112382
0.00406895
4.22748e-05
0.00040328
-2.00405e-12
-9.0028e-12
6.16461e-07
1.10019e-05
3.1505e-05
1.46814e-05
3.85975e-06
6.2448e-05
0.000121384
0.000113205
0.000684471
0.000891029
0.000125605
1.24231e-09
9.10012e-10
0.00122873
0.00238302
0.000572462
0.00028864
7.48019e-09
3.20849e-08
3.31782e-07
4.81827e-07
7.21879e-07
2.21992e-06
3.31756e-06
3.27572e-05
6.85363e-05
9.87261e-06
3.79734e-05
0.000901153
0.000262198
4.60373e-07
6.20948e-10
2.42359e-13
2.60322e-13
0.000113574
3.52212e-05
5.69038e-09
1.03312e-08
1.14225e-08
2.23843e-08
6.64852e-09
2.50664e-07
6.32878e-07
2.57293e-07
2.00972e-07
3.35215e-07
2.95977e-06
0.000299053
0.000123827
2.96385e-06
2.34655e-07
4.35756e-11
3.1689e-10
1.21992e-14
1.03104e-14
1.36431e-09
2.57649e-09
3.91546e-09
4.32689e-09
2.03759e-09
1.02391e-08
9.39588e-08
4.41493e-08
9.12904e-09
7.38429e-09
1.06133e-06
1.27414e-09
1.24937e-05
3.33759e-06
5.26055e-09
4.37409e-09
3.64354e-09
7.44591e-12
8.21736e-12
2.68218e-10
3.81142e-10
5.11711e-10
6.98831e-10
7.41851e-10
1.05903e-09
4.158e-09
1.00368e-09
9.56456e-10
1.17038e-08
8.77936e-08
1.17673e-09
8.87442e-08
3.29082e-07
1.09978e-07
2.43748e-08
6.00617e-09
6.61621e-11
9.41582e-12
1.43102e-10
2.46357e-10
3.67175e-10
4.58023e-10
5.32995e-10
7.61956e-10
9.49332e-10
1.03236e-09
9.39133e-10
1.88241e-09
2.88647e-10
2.80041e-10
2.21977e-10
1.65897e-09
1.80173e-08
1.18166e-08
3.00427e-09
2.17508e-10
1.02128e-11
6.356e-11
1.09426e-10
1.71107e-10
2.47169e-10
3.04273e-10
3.69628e-10
4.84353e-10
6.16029e-10
6.6807e-10
6.18852e-10
3.74276e-10
2.33764e-10
2.20237e-10
1.9601e-10
1.95842e-10
8.10031e-10
5.49267e-10
1.49441e-10
1.13482e-11
2.15052e-11
4.13483e-11
6.72855e-11
1.00323e-10
1.3782e-10
1.67874e-10
2.02234e-10
2.68073e-10
3.51486e-10
3.8397e-10
3.71328e-10
2.84161e-10
2.55111e-10
2.10727e-10
1.86519e-10
1.68482e-10
1.72187e-10
6.42382e-11
5.41632e-12
6.95215e-12
1.39685e-11
2.50519e-11
4.00383e-11
5.54378e-11
7.04008e-11
8.50123e-11
1.11571e-10
1.4558e-10
1.8537e-10
2.12074e-10
2.20708e-10
2.09133e-10
1.79099e-10
1.45629e-10
1.16022e-10
9.55916e-11
2.33773e-11
2.97783e-12
1.90006e-12
4.31708e-12
8.66543e-12
1.55628e-11
2.3676e-11
3.06999e-11
3.79084e-11
4.94381e-11
6.70133e-11
8.60591e-11
1.01602e-10
1.20031e-10
1.24826e-10
1.18914e-10
1.00394e-10
7.07577e-11
3.51052e-11
9.00689e-12
1.79264e-12
4.90898e-13
1.17858e-12
2.5714e-12
5.24868e-12
9.30372e-12
1.37438e-11
1.82514e-11
2.39455e-11
3.17306e-11
4.13519e-11
4.91987e-11
5.62948e-11
6.35429e-11
6.72125e-11
6.92244e-11
4.49577e-11
1.79747e-11
3.00839e-12
1.4709e-12
1.03839e-13
2.71324e-13
6.59672e-13
1.49786e-12
3.02772e-12
5.09148e-12
7.50798e-12
1.0369e-11
1.3787e-11
1.83718e-11
2.3477e-11
2.7878e-11
3.20159e-11
3.56778e-11
3.3621e-11
2.12616e-11
7.14623e-12
1.94283e-12
1.19921e-12
1.92697e-14
5.28723e-14
1.41665e-13
3.59902e-13
8.14225e-13
1.53569e-12
2.51455e-12
3.76027e-12
5.26694e-12
7.27167e-12
1.00811e-11
1.23957e-11
1.43846e-11
1.69662e-11
1.21256e-11
5.38227e-12
2.09557e-12
1.31695e-12
1.04128e-12
2.80294e-15
8.20254e-15
2.32554e-14
6.63469e-14
1.67068e-13
3.47728e-13
6.1494e-13
9.79617e-13
1.2683e-12
1.35005e-12
1.1798e-12
1.41334e-12
2.09277e-12
5.6083e-12
4.22023e-12
6.88232e-13
6.41898e-13
1.17011e-12
8.64273e-13
3.42335e-16
1.07626e-15
3.11821e-15
9.25177e-15
2.47954e-14
5.24335e-14
7.97566e-14
6.04847e-14
3.45526e-14
2.37956e-14
2.10837e-14
3.65867e-14
1.00202e-13
7.70565e-13
5.4262e-13
2.27534e-13
4.89885e-13
9.97924e-13
7.82114e-13
3.62416e-17
1.23384e-16
3.65393e-16
1.11134e-15
2.99056e-15
6.01047e-15
8.38995e-15
3.39706e-15
7.41539e-16
1.60776e-15
4.53838e-15
9.69861e-15
1.67978e-14
9.34715e-14
1.16575e-13
2.15044e-13
4.90152e-13
9.04987e-13
6.15086e-13
3.54442e-18
1.3153e-17
3.96595e-17
1.2165e-16
3.3085e-16
6.45656e-16
8.19633e-16
4.36451e-16
6.65269e-16
1.57435e-15
3.44755e-15
7.28439e-15
1.74236e-14
4.87396e-14
1.13121e-13
2.37507e-13
4.95366e-13
7.91527e-13
4.74371e-13
3.42086e-19
1.23983e-18
4.29824e-18
1.35202e-17
3.72272e-17
7.58611e-17
1.18811e-16
1.94963e-16
5.23086e-16
1.40764e-15
3.35999e-15
7.56059e-15
1.81297e-14
4.62724e-14
1.27669e-13
2.62875e-13
4.76385e-13
6.84902e-13
3.76114e-13
2.77948e-20
1.26154e-19
4.29895e-19
1.54385e-18
4.46218e-18
1.19942e-17
3.11114e-17
9.51845e-17
3.11347e-16
9.21318e-16
2.5051e-15
6.30983e-15
1.54651e-14
4.07139e-14
1.10778e-13
2.56716e-13
4.36289e-13
5.2722e-13
2.60334e-13
2.52555e-21
1.199e-20
4.72389e-20
1.90883e-19
7.46798e-19
2.52624e-18
9.26168e-18
3.59571e-17
1.30143e-16
4.3442e-16
1.3378e-15
3.83015e-15
1.04061e-14
2.71175e-14
7.31749e-14
1.85303e-13
3.52655e-13
4.24935e-13
1.4322e-13
1.96911e-22
1.06757e-21
5.08483e-21
2.46237e-20
1.15596e-19
4.90095e-19
2.20773e-18
9.62158e-18
3.95183e-17
1.505e-16
5.42478e-16
1.79488e-15
5.37397e-15
1.49099e-14
3.6823e-14
9.71277e-14
2.10648e-13
2.58745e-13
9.75784e-14
1.24373e-23
8.4393e-23
4.86538e-22
2.82326e-21
1.4896e-20
7.64676e-20
4.0639e-19
2.02951e-18
9.56777e-18
4.26018e-17
1.76469e-16
6.58952e-16
2.23563e-15
6.81877e-15
1.85287e-14
4.07116e-14
7.67027e-14
1.39365e-13
5.39412e-14
7.22069e-25
5.74272e-24
3.89966e-23
2.06455e-22
1.04152e-21
5.86787e-21
3.53007e-20
2.45853e-19
1.54274e-18
8.26309e-18
4.05548e-17
1.83332e-16
7.32384e-16
2.4367e-15
6.81224e-15
1.84962e-14
3.62742e-14
5.74068e-14
2.9068e-14
2.77381e-26
3.59701e-25
2.56523e-24
1.53865e-23
9.21913e-23
6.08638e-22
4.39635e-21
3.20073e-20
2.22373e-19
1.44489e-18
8.5568e-18
4.59834e-17
2.13779e-16
8.00471e-16
2.44232e-15
6.74383e-15
1.12277e-14
2.17902e-14
1.7025e-14
1.43715e-27
1.74345e-26
1.3941e-25
9.13004e-25
5.87324e-24
4.51941e-23
3.91459e-22
3.41214e-21
2.84907e-20
2.24345e-19
1.61133e-18
1.03173e-17
5.6009e-17
2.39417e-16
8.06805e-16
2.25136e-15
3.75642e-15
9.46837e-15
9.01219e-15
5.96205e-29
7.21664e-28
6.39469e-27
4.62967e-26
3.20432e-25
2.80152e-24
2.94766e-23
3.13027e-22
3.1572e-21
2.99495e-20
2.59761e-19
1.99482e-18
1.28374e-17
6.31869e-17
2.32909e-16
6.75661e-16
1.33783e-15
3.40988e-15
2.82918e-15
)
;

boundaryField
{
    leftWall
    {
        type            zeroGradient;
    }
    rightWall
    {
        type            zeroGradient;
    }
    lowerWall
    {
        type            zeroGradient;
    }
    atmosphere
    {
        type            inletOutlet;
        inletValue      uniform 0;
        value           nonuniform List<scalar> 
46
(
2.10699e-10
5.60099e-10
5.56228e-10
2.8706e-10
1.01708e-10
3.15872e-11
0
0
0
0
0
0
0
0
0
0
0
0
0
0
0
0
5.46577e-25
5.63497e-27
2.89776e-28
2.42132e-29
1.25925e-29
5.96205e-29
7.21664e-28
6.39469e-27
4.62967e-26
3.20432e-25
2.80152e-24
2.94766e-23
3.13027e-22
3.1572e-21
2.99495e-20
2.59761e-19
1.99482e-18
1.28374e-17
6.31869e-17
2.32909e-16
6.75661e-16
1.33783e-15
3.40988e-15
2.82918e-15
)
;
    }
    defaultFaces
    {
        type            empty;
    }
}


// ************************************************************************* //
