/*--------------------------------*- C++ -*----------------------------------*\
| =========                 |                                                 |
| \\      /  F ield         | OpenFOAM: The Open Source CFD Toolbox           |
|  \\    /   O peration     | Version:  2312                                  |
|   \\  /    A nd           | Website:  www.openfoam.com                      |
|    \\/     M anipulation  |                                                 |
\*---------------------------------------------------------------------------*/
FoamFile
{
    version     2.0;
    format      ascii;
    arch        "LSB;label=32;scalar=64";
    class       volScalarField;
    location    "1.7";
    object      alpha.oil;
}
// * * * * * * * * * * * * * * * * * * * * * * * * * * * * * * * * * * * * * //

dimensions      [0 0 0 0 0 0 0];

internalField   nonuniform List<scalar> 
2268
(
5.72553e-10
1.86311e-10
3.78456e-11
6.71128e-12
1.44966e-12
4.8226e-13
3.66461e-13
7.37255e-13
4.50981e-12
1.47299e-11
2.04255e-11
2.77836e-11
2.83522e-11
2.69991e-11
3.12869e-11
4.86233e-11
7.68707e-11
1.2124e-10
2.00151e-10
4.95918e-10
2.78202e-09
1.90166e-05
6.43503e-05
1.39758e-09
5.17738e-10
9.01666e-11
1.47537e-11
6.05609e-12
4.74875e-12
2.84371e-12
1.2228e-11
7.69085e-11
1.89819e-10
2.76176e-10
4.40871e-10
3.64973e-10
1.88897e-10
1.08036e-10
1.12069e-10
1.84977e-10
3.38165e-10
5.88909e-10
1.53066e-09
6.84706e-09
1.29042e-05
6.43503e-05
1.35832e-09
5.45477e-10
6.75292e-11
2.14131e-11
1.50008e-11
6.80204e-11
9.69915e-12
6.8495e-11
3.67929e-10
7.72521e-10
1.3867e-09
1.76265e-09
1.71265e-09
1.25802e-09
4.01332e-10
1.79099e-10
1.99127e-10
3.26948e-10
4.13278e-10
5.39528e-10
8.95032e-09
4.25999e-06
1.63169e-05
5.6501e-10
2.47943e-10
3.22449e-11
1.20899e-11
1.20945e-11
3.5474e-08
9.93925e-11
7.86632e-11
8.30063e-11
2.0763e-10
3.22634e-10
3.46953e-10
8.75205e-10
1.6036e-09
7.31321e-10
2.39616e-10
3.36345e-10
4.98154e-10
3.42655e-10
3.42656e-10
3.42655e-10
3.70348e-09
3.29284e-09
1.20112e-11
1.20116e-11
1.20112e-11
1.20116e-11
1.19e-06
4.70089e-07
9.95194e-11
4.69633e-07
4.72341e-12
4.97438e-12
-7.25167e-11
3.31898e-19
-2.64498e-14
-3.60057e-12
9.86878e-11
1.68055e-10
9.33003e-10
1.79821e-09
3.42718e-10
3.42655e-10
4.36121e-07
3.11822e-07
1.51093e-07
0.150562
0.167201
0.129288
0.0351302
0.00222457
4.70014e-07
2.43483e-05
7.8943e-05
1.10607e-05
0.000747008
0.00119782
0.00100037
0.000313955
5.93395e-05
1.5477e-14
1.39114e-14
1.71104e-09
2.34248e-07
3.99209e-06
1.46496e-05
6.31129e-06
5.80052e-07
1.7062e-07
0.955861
0.940765
0.704511
0.11277
0.00559845
2.55598e-05
0.000269702
0.00108777
0.00164848
0.00164843
0.0012323
0.000570449
0.000355737
0.00053412
0.000524656
2.95468e-05
2.07275e-06
2.27696e-05
0.000136067
0.000162036
1.75775e-07
1.74013e-07
1.72295e-07
0.998521
0.99858
0.971
0.74869
0.392237
2.5861e-15
-6.43563e-08
0.000450423
0.000803766
0.000803537
0.000735572
0.000572116
0.00065667
0.000251632
0.00020067
6.78145e-05
5.4434e-06
0.000158732
0.000221152
0.000346148
0.00121693
0.00268234
0.00100244
0.0623745
0.0623745
0.0623745
0.0770885
0.0861139
0.0602556
0.0536728
0.0504517
0.0406483
0.0315095
0.027017
0.0271219
0.0243866
0.0214679
0.0209106
0.020913
0.0208804
0.0231691
0.0339079
0.33283
0.378992
0.335318
0.228397
0.0861764
0.107596
0.25527
0.254979
0.197871
0.175833
0.239236
0.276238
0.344925
0.298402
0.133683
0.0377803
0.0382084
0.0542192
0.0711783
0.690879
0.692524
0.703202
0.703241
0.497991
0.107217
0.134469
0.215552
0.230056
0.232006
0.366204
0.534683
0.573233
0.573247
0.573255
0.398634
0.171906
0.280638
0.351268
0.55865
0.551569
0.550684
0.566562
0.568982
0.408841
0.281363
0.424684
0.453187
0.361649
0.331741
0.505305
0.57324
0.573249
0.573251
0.573237
0.523109
0.190925
0.351466
0.0810363
0.000498467
0.0102354
0.0250131
0.55136
0.707058
0.673519
0.693529
0.59001
0.489708
0.389879
0.38833
0.521934
0.573263
0.573263
0.573248
0.456973
0.093021
0.341228
0.0103102
0.000520616
0.000287078
0.00026153
0.385103
0.717465
0.717482
0.717458
0.473117
0.187402
0.121958
0.0549191
0.100179
0.367209
0.564932
0.57324
0.131453
0.0888524
0.13773
0.000293539
0.000265532
0.000264985
0.000262953
0.0747727
0.536116
0.710959
0.717474
0.533755
0.107226
0.022046
1.40182e-05
1.40932e-05
0.125225
0.433672
0.436096
0.0925886
0.0886354
0.0951091
0.0438102
0.0556079
0.00640675
0.0014736
1.43405e-05
0.0668677
0.27798
0.484836
0.409868
0.355315
0.177098
0.00228414
2.48203e-05
0.100728
0.496637
0.131799
0.0898631
0.0886344
0.0886394
0.988103
0.998565
0.998928
0.998946
0.991406
0.6501
0.11706
3.49697e-15
-9.51321e-22
0.000257
0.000797871
0.00105769
0.000696963
4.54631e-05
4.5367e-05
4.52145e-05
3.33506e-05
8.79753e-06
0.000208768
0.000622371
0.00329127
0.0399614
0.0718117
0.907283
0.845337
0.944397
0.996891
0.99641
0.99619
0.900087
0.607742
0.226955
0.0503551
0.00068935
0.000687735
0.00159894
0.0378189
0.0536933
0.025851
1.5533e-06
1.53212e-06
0.00347131
0.0198531
0.0584756
0.173533
0.427683
0.875754
0.556447
0.968268
0.996703
0.920393
0.877017
0.816266
0.799362
0.777488
0.721821
0.53903
0.286932
0.0479246
0.03778
0.054774
0.190965
0.180586
0.115361
0.0900346
0.197841
0.521868
0.786391
0.929674
0.896419
0.528281
0.682834
0.996589
0.9985
0.942419
0.969669
0.992193
0.977229
0.978735
0.978902
0.950956
0.842103
0.748869
0.65844
0.538866
0.633736
0.680622
0.604811
0.531875
0.742268
0.882914
0.834911
0.987508
0.605663
0.552432
0.828411
0.99997
0.99997
0.999949
0.999578
0.967756
0.96581
0.996111
0.998396
0.996959
0.997272
0.986482
0.963625
0.976851
0.994069
0.994406
0.963883
0.888904
0.883384
0.883537
0.999394
0.94736
0.552041
0.889039
0.99997
0.99997
0.981786
0.711233
0.52025
0.85866
0.949124
0.998382
0.998621
0.998608
0.998283
0.996252
0.994143
0.99221
0.981419
0.950716
0.898922
0.830562
0.776824
0.999381
0.999394
0.944124
0.991172
0.993447
0.885837
0.660547
0.36867
0.306216
0.40865
0.566785
0.74059
0.819455
0.831706
0.782314
0.703591
0.602639
0.497557
0.383957
0.259734
0.14979
0.0681612
0.0287718
0.738962
0.788425
0.846643
0.738153
0.563729
0.467361
0.241912
0.0316225
0.0137021
9.52365e-06
9.75404e-06
0.0535099
0.0867273
0.083546
0.0528108
0.014378
-7.38752e-20
1.42258e-23
1.65903e-19
7.5356e-16
1.4414e-14
3.34889e-13
3.1259e-13
0.0690313
0.078824
0.111054
0.0822185
0.0601571
0.0439977
0.00109069
3.73159e-09
4.12454e-09
6.4474e-05
4.27636e-05
8.36681e-06
4.01981e-06
1.18032e-12
-2.87691e-09
-5.39912e-26
7.33051e-10
6.8743e-13
3.10774e-09
1.53297e-07
6.4545e-07
2.13183e-06
5.43075e-06
1.3778e-08
1.37781e-08
2.84306e-07
1.21607e-07
3.66332e-09
3.69116e-09
3.48258e-09
3.70575e-09
3.73159e-09
0.000136867
0.000539944
0.000540561
0.000233414
2.23764e-06
3.50941e-07
3.86882e-08
1.45749e-08
8.88775e-11
5.08943e-08
6.35256e-07
2.03121e-06
6.50688e-06
1.36046e-05
7.4676e-07
2.51429e-06
3.88068e-06
1.95634e-06
3.96348e-09
1.31784e-08
8.25395e-08
1.38267e-07
1.45767e-07
7.50359e-08
0.000398117
0.000550974
0.000506481
2.51136e-05
2.4424e-08
6.46942e-08
2.36183e-08
9.2464e-09
2.08622e-07
2.34169e-06
4.64023e-06
1.25813e-05
1.90959e-05
4.45384e-06
6.99063e-06
6.99241e-06
6.01721e-06
1.15083e-07
1.60104e-08
8.48556e-08
2.32114e-07
1.78889e-07
7.49746e-08
7.50359e-08
6.36308e-05
1.4258e-05
3.4478e-06
2.40471e-08
2.3665e-08
7.34322e-09
3.79092e-08
3.76049e-07
1.95806e-06
1.73707e-06
3.98997e-09
3.60063e-06
4.46909e-06
4.61937e-06
5.21758e-06
1.50265e-06
1.71938e-07
1.63971e-08
3.73573e-08
1.1835e-07
8.305e-08
7.50359e-08
7.49746e-08
7.50359e-08
7.49746e-08
6.47991e-08
1.11101e-07
3.15778e-09
7.30312e-09
6.32234e-08
1.49243e-07
1.61934e-09
1.64497e-09
1.61934e-09
1.44229e-05
3.86163e-09
6.24732e-09
3.7442e-08
1.70198e-07
8.18464e-07
7.69966e-07
6.17242e-07
2.6262e-07
1.35073e-07
8.57858e-08
9.67062e-08
1.22693e-07
8.14275e-08
1.3124e-08
1.09682e-09
2.77007e-09
8.26002e-09
8.00101e-09
3.12741e-09
3.23323e-09
2.32471e-09
4.27741e-08
2.09532e-05
3.94608e-09
4.4842e-08
4.36235e-07
1.09145e-06
1.0905e-06
7.51713e-07
1.35333e-07
2.79956e-07
2.53482e-07
9.83478e-08
2.53369e-09
6.39652e-08
8.00595e-10
8.08641e-10
1.13818e-09
2.69765e-09
3.03558e-09
2.64358e-09
3.06204e-09
5.08614e-09
5.88074e-09
5.80022e-09
2.83393e-06
9.11852e-09
8.89362e-08
6.32647e-07
8.96046e-07
3.23437e-08
6.08622e-09
2.78581e-09
1.62424e-09
8.38628e-10
8.38883e-10
8.27953e-10
8.05745e-10
8.08037e-10
8.26648e-10
1.30588e-09
1.75619e-09
2.03575e-09
2.656e-09
4.11638e-09
6.66064e-09
9.3944e-09
1.16451e-08
1.03138e-08
2.30362e-08
2.88388e-08
4.81658e-09
2.25815e-09
2.49739e-09
3.54978e-09
3.13115e-09
2.53757e-09
2.06859e-09
1.65576e-09
1.30078e-09
8.48486e-10
8.57209e-10
7.70412e-10
8.0586e-10
9.80315e-10
1.39055e-09
2.21098e-09
3.80696e-09
6.81765e-09
1.1397e-08
1.6947e-08
3.02624e-08
6.1603e-08
1.50093e-09
1.82682e-09
3.65255e-09
5.47796e-09
5.20585e-09
3.95503e-09
2.93429e-09
2.3754e-09
1.95127e-09
1.4753e-09
1.00483e-09
6.83849e-10
5.12804e-10
4.80881e-10
6.11161e-10
9.92028e-10
1.80117e-09
3.54325e-09
6.39252e-09
1.14586e-08
2.54389e-08
3.37135e-08
7.03838e-08
1.72554e-09
5.4218e-09
8.04058e-09
8.18295e-09
6.53875e-09
4.22114e-09
2.89038e-09
2.42378e-09
1.95897e-09
1.39841e-09
8.86541e-10
5.53105e-10
3.73293e-10
3.21535e-10
4.09944e-10
7.05768e-10
1.36696e-09
2.68939e-09
5.43766e-09
1.00605e-08
1.84688e-08
3.29648e-08
1.14354e-07
1.82425e-09
7.7738e-09
1.04649e-08
9.39469e-09
6.06815e-09
3.18038e-09
2.59133e-09
2.36742e-09
1.9515e-09
1.31492e-09
7.8646e-10
4.58698e-10
2.79762e-10
2.13655e-10
2.52233e-10
4.3426e-10
8.67964e-10
1.80538e-09
3.66382e-09
6.92909e-09
1.22216e-08
1.98686e-08
1.41333e-07
3.71384e-09
9.25209e-09
1.41068e-08
9.93862e-09
4.59385e-09
2.76712e-09
2.42055e-09
2.38642e-09
2.02844e-09
1.26114e-09
7.03724e-10
3.83551e-10
2.12733e-10
1.39081e-10
1.39402e-10
2.17298e-10
4.1036e-10
7.94072e-10
1.44624e-09
2.35235e-09
3.30775e-09
6.51854e-09
1.2597e-07
1.93492e-09
8.4325e-09
2.94999e-08
5.68899e-08
7.35888e-08
3.93799e-09
2.46762e-09
2.51925e-09
2.13356e-09
1.21804e-09
6.34546e-10
3.24415e-10
1.65222e-10
9.23856e-11
7.38161e-11
9.80823e-11
1.76351e-10
3.46581e-10
6.70659e-10
1.19172e-09
1.87485e-09
2.6969e-09
1.33972e-07
1.94792e-09
7.57736e-09
6.53834e-08
3.15625e-07
2.99035e-07
1.1404e-08
2.6004e-09
2.81486e-09
2.27311e-09
1.17391e-09
5.72953e-10
2.75259e-10
1.30485e-10
6.42239e-11
4.04911e-11
4.2345e-11
6.68013e-11
1.20082e-10
2.16986e-10
3.81125e-10
6.90045e-10
1.48169e-09
1.91528e-07
1.99699e-09
1.02308e-08
1.27227e-07
3.44257e-07
3.3767e-07
5.96153e-08
2.76906e-09
3.35124e-09
2.39526e-09
1.11769e-09
5.1094e-10
2.32047e-10
1.03314e-10
4.65434e-11
2.40243e-11
1.86841e-11
2.45306e-11
4.32465e-11
8.58004e-11
1.69727e-10
3.05055e-10
5.07481e-10
6.15294e-07
1.95121e-09
1.34732e-08
1.16462e-07
3.44687e-07
3.27378e-07
1.54648e-08
3.01032e-09
3.99411e-09
2.45925e-09
1.05288e-09
4.49626e-10
1.92251e-10
8.13731e-11
3.45752e-11
1.54074e-11
9.08926e-12
9.03603e-12
1.36424e-11
2.39091e-11
4.28804e-11
8.04491e-11
1.64842e-10
6.243e-07
1.12682e-08
7.48633e-09
8.92706e-08
2.70203e-07
3.34337e-07
1.61227e-08
3.67699e-09
4.6454e-09
2.47037e-09
9.84007e-10
3.91594e-10
1.5821e-10
6.33547e-11
2.56697e-11
1.05184e-11
4.96762e-12
3.60522e-12
4.49239e-12
7.45856e-12
1.38425e-11
2.60182e-11
4.67893e-11
5.41148e-07
1.30569e-08
7.46282e-09
7.35774e-08
2.57085e-07
3.42939e-07
2.89792e-08
5.72471e-09
5.25167e-09
2.43663e-09
9.27518e-10
3.41088e-10
1.29264e-10
4.90893e-11
1.86814e-11
7.28937e-12
3.00273e-12
1.64525e-12
1.4975e-12
2.00857e-12
3.14814e-12
5.60456e-12
1.19088e-11
5.36681e-07
1.29286e-08
1.05644e-06
1.96928e-07
1.15738e-07
3.5796e-07
4.6102e-08
1.03821e-08
5.88202e-09
2.42935e-09
8.92307e-10
2.99509e-10
1.04222e-10
3.72931e-11
1.35336e-11
4.94487e-12
1.84224e-12
8.19646e-13
5.57877e-13
6.31775e-13
9.62144e-13
1.76815e-12
3.47613e-12
8.47923e-06
4.57687e-06
3.55348e-06
1.33191e-07
9.03968e-08
3.70679e-07
9.25419e-08
1.3204e-08
6.66472e-09
2.43853e-09
8.79936e-10
2.69439e-10
8.31399e-11
2.79104e-11
9.54589e-12
3.26458e-12
1.1331e-12
4.25944e-13
2.24725e-13
2.0271e-13
2.63413e-13
4.55888e-13
1.10271e-12
2.74905e-05
2.17413e-05
4.25539e-06
1.24763e-07
1.71609e-07
3.73846e-07
1.27629e-07
1.56864e-08
8.03007e-09
2.50513e-09
8.87804e-10
2.60311e-10
6.78204e-11
2.02163e-11
6.48306e-12
2.07352e-12
6.71071e-13
2.26127e-13
9.72608e-14
6.78011e-14
8.19252e-14
1.65838e-13
4.55883e-13
2.93447e-05
1.38006e-05
2.77425e-06
1.70537e-07
3.47217e-07
3.74285e-07
7.43238e-08
2.0333e-08
1.23482e-08
2.83642e-09
9.05952e-10
2.78643e-10
6.13475e-11
1.45546e-11
4.17672e-12
1.26605e-12
3.74599e-13
1.15637e-13
4.22685e-14
2.44675e-14
2.78558e-14
5.38307e-14
1.96981e-13
2.95837e-05
3.7021e-06
2.90179e-07
2.30372e-07
3.58745e-07
2.1143e-07
7.82155e-08
1.13644e-07
3.04343e-08
4.10389e-09
8.86296e-10
3.01753e-10
6.82378e-11
1.16175e-11
2.60502e-12
7.19856e-13
1.95921e-13
5.33253e-14
1.7205e-14
8.65887e-15
8.35502e-15
2.06358e-14
8.51123e-14
2.95837e-05
3.73706e-06
3.07012e-08
1.23939e-07
2.02111e-07
1.7296e-07
5.85317e-07
6.39265e-07
5.56555e-08
5.0865e-09
9.07412e-10
2.9121e-10
7.58208e-11
1.25931e-11
1.80367e-12
3.89429e-13
9.39965e-14
2.34255e-14
6.91914e-15
2.95705e-15
2.71742e-15
6.25549e-15
3.1272e-14
2.95837e-05
2.58514e-06
3.06767e-08
3.58828e-08
3.0692e-08
4.79206e-07
1.09861e-06
8.20293e-07
3.025e-08
3.12161e-09
8.07423e-10
2.65008e-10
7.47627e-11
1.38961e-11
1.74092e-12
2.18027e-13
4.44124e-14
9.2613e-15
2.49295e-15
1.11109e-15
8.0244e-16
2.29459e-15
1.05263e-14
2.95837e-05
3.14227e-08
3.07012e-08
3.06842e-08
3.07019e-08
8.2829e-07
1.1028e-06
3.06968e-07
8.03676e-09
1.62416e-09
5.4046e-10
2.14188e-10
6.41969e-11
1.3524e-11
1.8374e-12
1.77309e-13
2.06792e-14
4.0049e-15
9.7595e-16
3.5267e-16
2.49964e-16
4.43108e-16
2.78417e-15
2.30966e-05
2.46929e-05
6.31445e-06
3.07019e-08
3.0692e-08
6.73128e-07
1.38946e-07
2.11866e-09
1.21461e-09
6.69475e-10
3.59931e-10
1.49051e-10
4.71391e-11
1.07387e-11
1.6731e-12
1.69267e-13
1.35843e-14
1.63818e-15
3.67438e-16
1.33758e-16
7.69827e-17
1.47827e-16
7.28563e-16
1.75436e-06
4.00981e-05
4.00952e-05
3.14305e-05
1.42174e-05
2.9218e-09
3.4366e-09
1.79296e-09
9.35305e-10
4.96767e-10
2.36131e-10
9.19157e-11
2.80702e-11
6.61785e-12
1.14602e-12
1.35505e-13
1.06246e-14
7.8471e-16
1.32821e-16
4.31602e-17
2.21482e-17
2.62515e-17
1.77776e-16
7.32883e-09
1.94285e-05
4.0138e-05
3.97436e-05
1.16517e-05
2.79064e-09
3.82052e-09
1.80571e-09
7.42926e-10
3.21403e-10
1.30112e-10
4.50981e-11
1.29223e-11
3.00768e-12
5.53467e-13
7.62626e-14
7.24776e-15
4.81581e-16
4.83688e-17
1.46369e-17
6.33489e-18
5.62471e-18
2.7852e-17
7.31858e-09
8.90102e-08
6.21275e-06
4.94786e-06
8.86906e-07
2.65653e-09
1.27688e-09
7.20365e-10
3.38789e-10
1.40502e-10
4.93954e-11
1.48921e-11
3.89302e-12
8.80898e-13
1.69375e-13
2.69953e-14
3.2894e-15
2.7991e-16
2.16684e-17
5.08983e-18
1.85868e-18
1.00569e-18
4.20146e-18
4.27312e-09
3.81808e-09
1.00326e-09
1.00416e-09
1.00328e-09
1.60636e-09
7.68103e-10
3.1461e-10
1.17684e-10
3.92385e-11
1.1439e-11
2.96877e-12
7.0091e-13
1.5435e-13
3.15462e-14
5.76625e-15
9.11659e-16
1.14408e-16
1.13961e-17
2.00498e-18
5.93285e-19
2.00977e-19
3.77931e-19
1.52355e-09
3.02824e-09
2.67239e-09
1.86618e-09
1.00894e-09
4.69714e-10
1.89599e-10
6.74889e-11
2.09837e-11
5.70061e-12
1.39282e-12
3.19713e-13
7.2099e-14
1.6317e-14
3.59227e-15
7.56831e-16
1.47708e-16
2.57115e-17
4.20987e-18
8.35713e-19
2.07122e-19
5.33448e-20
3.11259e-20
3.79172e-10
8.31919e-10
7.62363e-10
4.13882e-10
1.63885e-10
5.49935e-11
1.72713e-11
4.81832e-12
1.22735e-12
2.94014e-13
6.84492e-14
1.57926e-14
3.7118e-15
8.78762e-16
2.1953e-16
5.23577e-17
1.16267e-17
2.552e-18
6.11599e-19
1.85623e-19
6.37151e-20
1.81621e-20
3.88964e-21
0.0779543
0.0828801
0.0992016
0.119602
0.523587
0.508932
0.463948
0.467487
0.937967
0.956644
0.970394
0.971089
0.600316
0.580931
0.584442
0.669205
0.884161
0.818997
0.250669
0.0357725
0.759086
0.763688
0.766156
0.441158
0.0130134
0.0163788
0.168767
0.304177
1.28071e-10
1.9042e-10
8.27961e-11
1.04058e-10
1.35291e-05
1.2307e-05
6.45428e-06
5.99867e-06
5.43791e-05
5.38533e-05
2.07899e-05
3.55257e-05
5.43298e-05
4.44067e-05
2.29701e-05
6.1535e-06
4.02745e-05
4.81362e-05
5.52742e-05
1.99236e-05
9.24356e-05
0.000225571
0.000258935
0.000212153
0.00025842
0.000259176
0.000259149
0.000255954
0.000188704
0.000259149
0.000259993
0.000259149
1.39806e-08
0.00013895
0.000259848
0.000259993
3.16064e-08
2.24585e-08
2.2917e-06
9.96423e-05
3.23092e-08
2.26191e-08
2.06272e-08
2.5566e-08
3.0442e-08
1.9273e-08
1.87728e-08
1.60031e-08
1.99103e-08
1.5217e-08
1.53122e-08
1.55383e-08
9.2962e-09
1.03146e-08
1.22887e-08
1.1997e-08
5.08777e-09
5.78937e-09
7.21721e-09
7.9401e-09
2.24713e-09
2.83338e-09
3.92352e-09
4.35098e-09
8.73045e-10
1.08713e-09
1.43953e-09
1.78679e-09
2.67032e-10
3.70764e-10
5.19915e-10
6.51862e-10
8.56595e-11
1.17068e-10
1.6545e-10
2.24154e-10
2.26391e-11
3.44314e-11
5.1629e-11
7.20673e-11
7.0142e-12
1.01635e-11
1.68789e-11
2.47424e-11
2.51445e-12
4.2212e-12
7.26943e-12
1.15464e-11
1.21462e-12
2.13671e-12
4.26081e-12
7.10793e-12
6.22119e-13
1.26034e-12
2.52648e-12
4.62153e-12
2.9979e-13
6.54189e-13
1.52027e-12
2.87947e-12
1.22998e-13
3.03442e-13
7.482e-13
1.61036e-12
4.96494e-14
1.33577e-13
3.36242e-13
7.38334e-13
1.33425e-14
3.68648e-14
1.212e-13
3.09679e-13
4.67084e-15
1.21708e-14
3.59522e-14
9.93152e-14
9.16943e-16
3.20956e-15
1.08051e-14
3.14705e-14
2.0208e-16
7.03593e-16
2.37014e-15
7.99414e-15
3.29352e-17
1.21302e-16
4.0269e-16
1.47398e-15
4.00102e-18
1.79404e-17
7.20849e-17
2.53681e-16
2.72217e-19
1.62501e-18
8.26321e-18
3.55499e-17
7.28754e-21
6.1803e-20
4.92545e-19
2.9977e-18
0.36403
0.319268
0.0850916
1.60456e-08
1.20435e-06
1.45977e-10
5.09324e-05
0.00917064
0.0240872
0.0218351
0.00987063
0.00214809
2.46753e-05
0.2166
0.498789
0.205724
0.259028
0.359528
0.0886373
0.734427
0.69285
0.239852
4.37166e-12
1.98241e-13
1.6394e-13
4.18938e-08
1.27919e-05
2.05759e-05
1.96255e-05
1.41663e-05
6.13711e-06
2.20363e-06
0.0376644
0.491133
0.464458
0.300989
0.390628
0.140093
0.971552
0.971679
0.961168
0.659484
0.219329
0.0297838
7.46315e-14
1.16668e-13
7.5194e-14
7.06478e-07
6.48984e-07
5.67497e-08
1.22477e-09
6.15426e-21
0.442642
0.524378
0.301122
0.345791
0.629652
0.705602
0.870655
0.979815
0.984517
0.969835
0.8946
0.762852
0.36523
0.00254847
-5.42342e-21
3.92307e-27
-1.30877e-25
1.05221e-28
-5.43468e-12
0.348517
0.524911
0.351404
0.45525
0.790609
0.0115046
0.0753432
0.559699
0.966485
0.989966
0.989691
0.987629
0.957813
0.870785
0.45948
0.0315888
1.48202e-20
-4.26246e-12
-1.77798e-12
0.0554355
0.420493
0.327931
0.438076
0.789644
0.0139749
0.000551212
0.000240043
0.049109
0.398531
0.896352
0.992077
0.992075
0.992077
0.971602
0.773396
0.367014
0.00983529
1.10945e-21
0.0163493
0.0848413
0.0804387
0.212594
0.781751
0.209138
0.00943583
0.00107451
8.03376e-06
0.00947767
0.0915633
0.26634
0.585838
0.971072
0.975386
0.975533
0.931508
0.503571
0.147506
0.056976
0.0786547
0.0789949
0.0793356
0.737916
0.0176508
0.0193684
0.00123235
2.67695e-06
-5.49907e-15
1.17794e-10
1.24828e-05
0.0260498
0.271125
0.787518
0.975336
0.975544
0.951781
0.832316
0.780532
0.435451
0.0797957
0.0795331
0.678424
5.63677e-06
0.000158126
0.000102859
3.74635e-05
1.18812e-06
1.24741e-06
2.00693e-06
1.07244e-06
1.09254e-09
0.215997
0.84098
0.975283
0.970783
0.970195
0.919296
0.612506
0.0901088
0.0861853
0.698042
4.83797e-05
4.6112e-05
6.24818e-05
2.12181e-05
6.63178e-07
8.28842e-07
6.45149e-07
1.09254e-09
2.50729e-11
0.00791565
0.476629
0.953172
0.970579
0.914853
0.900032
0.680662
0.0899517
0.0865035
0.719078
6.45066e-06
2.5869e-05
7.64636e-05
6.63293e-07
6.61313e-07
7.27472e-08
1.12904e-09
2.53245e-08
3.30926e-07
1.10779e-05
0.147986
0.685118
0.822348
0.718633
0.947361
0.794991
0.175808
0.117854
0.688054
2.80509e-05
0.000343944
0.000586884
0.000101712
1.0326e-07
5.31037e-09
1.12896e-09
1.8161e-07
1.92908e-06
6.19522e-06
4.19438e-06
0.0528634
0.528391
0.940231
0.957288
0.896611
0.695182
0.624574
0.742723
0.000197637
0.000563724
0.000793187
0.000575704
1.36977e-08
1.72046e-09
1.12405e-09
6.18245e-08
1.56229e-06
4.85375e-06
4.51554e-06
0.00208755
0.438413
0.944606
0.957289
0.95698
0.856162
0.811139
0.885834
0.0002398
0.000323063
0.000762069
0.000810047
0.000509018
1.00178e-07
1.13233e-09
1.12954e-09
4.32544e-06
2.45387e-05
4.2041e-05
1.81248e-05
0.0745314
0.673671
0.941618
0.957321
0.957204
0.943144
0.94603
0.000256192
0.000152711
0.000194849
0.000719368
0.000738458
0.000680268
0.000249857
1.32117e-06
1.36552e-06
0.000165634
8.04356e-05
1.71317e-05
3.06758e-12
0.157133
0.790537
0.933756
0.95562
0.954664
0.945814
0.000259338
0.000201932
3.92575e-05
8.53861e-05
0.000514591
0.000697207
0.00069682
0.000482881
7.53204e-05
0.000166514
7.77781e-05
1.99235e-05
-3.06758e-12
3.4058e-19
0.179048
0.792929
0.935707
0.939824
0.938923
0.000177602
0.000181687
3.68618e-05
1.33716e-05
1.92814e-05
0.000143779
0.000328294
0.000346142
0.00022208
8.39652e-05
2.32797e-05
1.57642e-05
1.04722e-06
3.40619e-21
5.43387e-20
0.0852654
0.642512
0.911451
0.932392
2.49166e-08
7.75198e-08
2.04591e-05
4.16892e-05
2.58734e-05
-4.50964e-09
-5.41101e-12
6.17859e-06
7.77695e-05
9.84303e-06
5.19284e-06
5.49789e-06
8.96948e-07
2.14998e-08
3.39881e-21
1.60762e-08
0.0081351
0.175397
0.313729
1.65186e-08
4.25844e-08
2.29448e-07
5.18875e-06
9.49912e-06
1.89031e-06
-3.82129e-12
-1.18713e-09
-1.40824e-09
1.31363e-05
3.08982e-05
2.22745e-08
-3.31571e-24
-1.60625e-11
2.15627e-07
1.18204e-05
2.20637e-08
2.2189e-08
2.22738e-08
1.48848e-08
2.04615e-08
5.77007e-08
1.43027e-07
6.53218e-07
2.38117e-06
8.25078e-07
1.32974e-07
1.59709e-07
2.52097e-05
5.53894e-05
5.2498e-05
1.93094e-05
1.98158e-05
5.71116e-05
6.85596e-05
2.90218e-05
2.22714e-08
2.24086e-08
1.26465e-08
1.6954e-08
3.15373e-08
9.09286e-08
4.01353e-07
2.27078e-06
2.25821e-06
1.52063e-06
5.4718e-07
9.58285e-06
5.02529e-05
6.88431e-05
6.87976e-05
6.85208e-05
6.88307e-05
6.88372e-05
3.73346e-05
8.84897e-08
2.25273e-08
8.54219e-09
1.04444e-08
1.77257e-08
6.65836e-08
3.41246e-07
2.07574e-06
2.24506e-06
1.35626e-06
2.24668e-07
6.34202e-08
3.68032e-06
2.67537e-05
3.5792e-05
2.56533e-05
2.93293e-05
1.69106e-05
1.48296e-06
9.94607e-08
2.26719e-08
5.2088e-09
6.44036e-09
9.28788e-09
3.33549e-08
1.4954e-07
4.7821e-07
7.34744e-07
1.12547e-07
3.02383e-08
1.50998e-08
4.3231e-08
3.94487e-08
3.6706e-08
3.46976e-08
4.39717e-08
6.12984e-08
1.75405e-08
1.9803e-08
1.08959e-07
2.14039e-09
3.1324e-09
4.2135e-09
7.56788e-09
2.20422e-08
4.57746e-08
6.06109e-08
1.57908e-08
5.21362e-09
7.72218e-09
2.02106e-08
1.78538e-08
1.47951e-08
1.48833e-08
1.52429e-08
1.40219e-08
1.45743e-08
5.90126e-09
4.63697e-06
8.55285e-10
1.30139e-09
1.81523e-09
2.37499e-09
3.38102e-09
5.01777e-09
6.59445e-09
3.64346e-09
2.67214e-09
4.1571e-09
8.54106e-09
1.43002e-08
1.42937e-08
1.28275e-08
1.13909e-08
1.01585e-08
1.01464e-08
9.28394e-09
8.02055e-06
2.92794e-10
5.02408e-10
7.82457e-10
1.11334e-09
1.39918e-09
1.58353e-09
1.79367e-09
1.93672e-09
2.29193e-09
3.07589e-09
4.22202e-09
7.51079e-09
9.86419e-09
9.29701e-09
7.91787e-09
6.02625e-09
5.62755e-09
4.78002e-07
8.02252e-06
1.00348e-10
1.81942e-10
3.10768e-10
5.06424e-10
7.44877e-10
9.62009e-10
1.16938e-09
1.43434e-09
1.81077e-09
2.36014e-09
2.88445e-09
3.62167e-09
4.59959e-09
4.75033e-09
3.13517e-09
8.15352e-08
3.26985e-08
9.42008e-06
5.98131e-06
3.59508e-11
7.16503e-11
1.33672e-10
2.36896e-10
3.90228e-10
5.74519e-10
7.85326e-10
1.03145e-09
1.32599e-09
1.70447e-09
2.09102e-09
2.35749e-09
2.50914e-09
2.61232e-09
1.55379e-09
3.45908e-07
8.78523e-06
1.08629e-05
1.15952e-06
1.81806e-11
3.85845e-11
7.69108e-11
1.42588e-10
2.46942e-10
3.91016e-10
5.7803e-10
8.06442e-10
1.07273e-09
1.38439e-09
1.7305e-09
2.02538e-09
2.03427e-09
1.77872e-09
1.3495e-09
6.02462e-07
1.08629e-05
1.08624e-05
6.26737e-07
1.181e-11
2.72874e-11
5.749e-11
1.12608e-10
2.01862e-10
3.34669e-10
5.20111e-10
7.60585e-10
1.05829e-09
1.43652e-09
1.92923e-09
2.46005e-09
2.6519e-09
1.55964e-09
1.3279e-09
5.00293e-07
2.73805e-06
7.88435e-06
2.13647e-07
8.23163e-12
2.10231e-11
4.69315e-11
9.67079e-11
1.82307e-10
3.1959e-10
5.17311e-10
7.83372e-10
1.113e-09
1.52612e-09
2.05117e-09
3.36963e-09
6.29771e-09
1.40058e-09
1.32083e-09
4.22283e-08
2.13733e-08
2.11228e-07
3.13605e-08
5.3206e-12
1.51842e-11
3.61913e-11
7.96373e-11
1.5929e-10
2.94744e-10
5.01383e-10
7.83664e-10
1.14076e-09
1.55027e-09
1.91625e-09
2.37933e-09
8.32489e-09
5.55108e-08
5.25271e-08
5.87571e-09
3.08367e-09
3.00199e-09
1.16716e-07
3.10034e-12
9.89211e-12
2.50636e-11
5.8942e-11
1.27704e-10
2.47433e-10
4.37543e-10
7.11595e-10
1.08468e-09
1.52303e-09
1.93094e-09
2.30381e-09
6.4381e-09
9.0873e-08
2.36539e-07
1.92867e-07
1.3406e-08
5.23575e-08
2.62128e-07
1.64822e-12
5.3209e-12
1.55635e-11
3.87348e-11
8.90868e-11
1.81836e-10
3.40727e-10
5.89604e-10
9.10775e-10
1.34028e-09
1.83276e-09
2.4648e-09
5.35334e-09
3.80519e-08
2.42485e-07
2.96535e-07
2.65832e-07
2.55209e-07
2.75663e-07
6.7797e-13
2.64101e-12
7.77486e-12
2.18831e-11
5.33879e-11
1.20836e-10
2.33394e-10
4.14395e-10
6.74616e-10
1.01012e-09
1.44088e-09
2.06276e-09
3.45633e-09
1.09827e-08
6.22226e-08
2.96841e-07
2.9978e-07
3.01261e-07
1.39812e-07
2.66219e-13
1.05265e-12
3.388e-12
1.02677e-11
2.88615e-11
6.52548e-11
1.3592e-10
2.55005e-10
4.28692e-10
6.57538e-10
9.51147e-10
1.37142e-09
2.22932e-09
4.57205e-09
1.31394e-08
1.08677e-07
3.0183e-07
3.01165e-07
3.03693e-08
8.69401e-14
3.58721e-13
1.25219e-12
4.27322e-12
1.25372e-11
3.04332e-11
6.71711e-11
1.32892e-10
2.34909e-10
3.75529e-10
5.51702e-10
7.85408e-10
1.22153e-09
2.37419e-09
5.10302e-09
1.62151e-08
1.30896e-07
1.75744e-07
1.54464e-08
2.26441e-14
1.04694e-13
4.01984e-13
1.50149e-12
4.6258e-12
1.2177e-11
2.91454e-11
6.12357e-11
1.15649e-10
1.95282e-10
2.95324e-10
4.1312e-10
6.03864e-10
1.11262e-09
2.52963e-09
4.83665e-09
9.36391e-09
2.61528e-08
1.10111e-08
5.5485e-15
2.61277e-14
1.12762e-13
4.08906e-13
1.28362e-12
3.57989e-12
9.15279e-12
2.18964e-11
4.60066e-11
8.45552e-11
1.35827e-10
1.93299e-10
2.67544e-10
4.40421e-10
9.37235e-10
2.09678e-09
1.11867e-09
4.05369e-09
7.40615e-09
8.07847e-16
5.5027e-15
2.48131e-14
9.95403e-14
3.46986e-13
1.08292e-12
3.04573e-12
7.74024e-12
1.75021e-11
3.51503e-11
6.08905e-11
8.96133e-11
1.18971e-10
1.73127e-10
3.5002e-10
7.97909e-10
8.39439e-10
1.60548e-09
5.79854e-09
1.34979e-16
8.75347e-16
4.45473e-15
1.96626e-14
7.6015e-14
2.66371e-13
8.42744e-13
2.38948e-12
6.00833e-12
1.32469e-11
2.5042e-11
3.90904e-11
5.18563e-11
6.89977e-11
1.34136e-10
3.16779e-10
5.13305e-10
1.35234e-09
4.35915e-09
1.44942e-17
1.1116e-16
6.62678e-16
3.33721e-15
1.47045e-14
5.86449e-14
2.09489e-13
6.64613e-13
1.8615e-12
4.52803e-12
9.37101e-12
1.57458e-11
2.14824e-11
2.66932e-11
4.90593e-11
1.24322e-10
2.89562e-10
8.81355e-10
2.29497e-09
)
;

boundaryField
{
    leftWall
    {
        type            zeroGradient;
    }
    rightWall
    {
        type            zeroGradient;
    }
    lowerWall
    {
        type            zeroGradient;
    }
    atmosphere
    {
        type            inletOutlet;
        inletValue      uniform 0;
        value           nonuniform List<scalar> 
46
(
3.79172e-10
8.31919e-10
7.62363e-10
4.13882e-10
1.63885e-10
5.49935e-11
0
0
0
0
0
0
0
0
0
0
0
0
0
0
0
0
3.88964e-21
7.28754e-21
6.1803e-20
4.92545e-19
2.9977e-18
1.44942e-17
1.1116e-16
6.62678e-16
3.33721e-15
1.47045e-14
5.86449e-14
2.09489e-13
6.64613e-13
1.8615e-12
4.52803e-12
9.37101e-12
1.57458e-11
2.14824e-11
2.66932e-11
4.90593e-11
1.24322e-10
2.89562e-10
8.81355e-10
2.29497e-09
)
;
    }
    defaultFaces
    {
        type            empty;
    }
}


// ************************************************************************* //
