/*--------------------------------*- C++ -*----------------------------------*\
| =========                 |                                                 |
| \\      /  F ield         | OpenFOAM: The Open Source CFD Toolbox           |
|  \\    /   O peration     | Version:  2312                                  |
|   \\  /    A nd           | Website:  www.openfoam.com                      |
|    \\/     M anipulation  |                                                 |
\*---------------------------------------------------------------------------*/
FoamFile
{
    version     2.0;
    format      ascii;
    arch        "LSB;label=32;scalar=64";
    class       volScalarField;
    location    "1.7";
    object      p;
}
// * * * * * * * * * * * * * * * * * * * * * * * * * * * * * * * * * * * * * //

dimensions      [1 -1 -2 0 0 0 0];

internalField   nonuniform List<scalar> 
2268
(
4506.73
4497.15
4496.43
4503.18
4526.76
4570.01
4634.42
4709.2
4786.59
4862.26
4937.1
5016.22
5102.49
5200
5308.43
5423.39
5537.45
5644.34
5740.18
5822.63
5887.87
5929.6
5949.88
3709.17
3698.34
3698.1
3703.21
3725.95
3768.96
3835.47
3912.07
3990.27
4065.41
4138.5
4215.99
4301.45
4399.37
4509.36
4626.54
4742.5
4850.44
4945.86
5026.87
5090.26
5130.46
5149.08
2914.9
2903.51
2897.98
2900.35
2920.52
2962.84
3033.63
3114.24
3193.95
3267.78
3337.02
3410.66
3494.34
3593.26
3706.82
3828.87
3948.81
4058.75
4153.4
4231.76
4291.88
4328.87
4343.97
2122.46
2106.54
2094.56
2093.68
2109.99
2150.61
2227.41
2316.53
2399.11
2470.08
2533.27
2600.3
2680.65
2780.73
2899.72
3029.6
3156
3269.06
3362.73
3436.63
3491.65
3523.45
3532.6
1346.97
1325.58
1308.41
1294.32
1301.34
1337.56
1418.11
1518.58
1605.49
1672.14
1725.84
1783.3
1858.94
1961.02
2088.1
2229.35
2364.81
2482.37
2574.02
2640.36
2688.27
2712.8
2712.89
752.525
731.355
721.187
721.921
737.286
765.203
812.66
871.802
926.879
969.424
1005.06
1043.32
1097.33
1177.8
1290.08
1429.54
1577.09
1700.81
1789.05
1845.95
1883.21
1898.95
1884.35
511.656
504.759
511.367
530.595
545.787
567.798
583.578
590.793
601.241
619.497
645.755
672.623
698.397
726.917
766.66
826.916
913.938
1001.86
1067.93
1099.7
1119.14
1130.66
1109.15
473.054
463.709
469.168
478.647
487.728
505.063
524.787
532.251
536.301
547.713
566.378
585.761
599.29
604.407
602.602
599.035
604.849
619.914
633.195
640.092
641.05
644.259
630.432
2801.52
2743.96
2727.46
2713.41
2766.55
2782.47
2644.94
2507.49
2479.19
2487.62
2495.04
2514.43
2545.87
2659.86
2856.66
2977.89
3007.51
2932.02
2878.34
2212.21
2156.95
2119.78
2073.36
2128.16
2141.08
1992.59
1842.11
1822.28
1821.46
1813.03
1837.94
1899.88
2006.74
2147.04
2244.26
2273.88
2183.93
2117.01
1831.53
1795.02
1741.53
1677.94
1655.32
1609.29
1509.57
1417.41
1414.42
1418.41
1389.87
1397.67
1467.58
1565.74
1655.17
1709.64
1704.16
1611.88
1562.59
1556.66
1550.44
1486.41
1412.02
1324.07
1238.12
1195.32
1187.02
1193.34
1209.03
1199.56
1206.43
1233.81
1297.89
1371.56
1398.84
1376.45
1367.35
1364.89
1265.92
1350.8
1274.25
1136.05
1072.07
1040.85
1035.98
1035.08
1043.67
1068.83
1097.64
1134.09
1153.53
1166.64
1217.43
1222.58
1247.84
1294.1
1305.83
1088.47
1212.96
1132.79
972.558
926.301
936.721
938.779
933.518
943.504
982.225
1027.34
1074.39
1108.51
1115.18
1156.86
1147.51
1189.17
1228.17
1247.12
898.016
1028.66
979.547
852.343
803.447
823.675
834.28
842.278
872.262
917.357
964.367
1011.12
1050.66
1071.94
1098.92
1106.18
1135.85
1162.68
1186.37
553.119
746.007
733.6
713.079
700.395
710.068
733.026
767.552
818.152
862.394
904.106
950.35
992.34
1019.45
1034.18
1057.72
1080.7
1099.24
1123.67
414.334
406.24
414.48
421.327
424.188
427.189
439.405
450.068
457.723
466.665
478.692
492.768
503.677
507.745
505.818
500.77
496.969
492.98
488.996
480.718
463.719
457.888
450.18
343.866
329.515
347.132
352.27
354.555
349.969
347.383
349.674
350.785
353.528
360.418
369.416
377.242
380.299
378.483
371.4
370.623
374.631
372.826
362.182
344.97
329.137
311.266
287.415
278.462
284.015
290.421
293.109
289.727
285.144
279.106
272.726
267.144
263.218
261
261.927
262.499
260.477
258.089
255.581
259.048
262.252
259.534
248.956
235.332
220.032
236.685
238.738
226.125
228.111
232.368
231.4
224.499
216.698
208.126
201.248
194.988
189.086
184.719
181.792
178.634
176.45
173.093
171.901
172.258
171.358
168.805
163.823
156.463
187.423
194.917
174.865
168.612
169.608
168.615
155.705
141.898
134.377
135.202
136.339
135.077
133.144
130.833
126.353
120.265
114.828
109.925
105.927
102.787
100.088
97.1351
95.6149
136.362
141.008
133.333
122.693
116.067
111.488
99.146
82.5314
74.0215
72.9629
72.6604
79.6435
84.2852
82.7391
77.4796
70.0715
61.8979
54.3895
47.6062
41.614
35.9159
30.6669
27.6659
79.4011
81.338
86.251
72.976
63.4162
58.8699
44.7832
23.0716
12.6784
12.5075
18.5175
27.0227
30.4538
30.5304
27.9544
23.3559
19.4746
15.6401
11.315
7.35603
4.08338
1.67622
0.456897
25.6184
27.3005
31.7825
24.9735
19.9062
16.9626
9.69356
1.57698
-0.495734
-0.978072
-0.716115
0.963101
2.05719
2.01152
1.35757
0.194049
-0.419291
-0.87163
-1.02001
-1.04964
-1.00969
-1.00303
-1.04787
0.701818
0.982164
1.96205
1.07192
0.351944
-0.344358
-0.677068
-1.08693
-1.35343
-1.33922
-1.334
-1.29413
-1.27523
-1.26964
-1.26254
-1.25366
-1.25839
-1.24912
-1.25977
-1.26566
-1.26537
-1.25416
-1.25017
-1.5702
-1.58659
-1.60648
-1.61793
-1.68433
-1.78758
-1.62096
-1.54289
-1.58136
-1.52644
-1.4895
-1.44493
-1.41661
-1.4061
-1.39661
-1.39048
-1.38611
-1.3843
-1.38522
-1.38862
-1.39055
-1.38626
-1.38165
-1.6928
-1.70386
-1.71065
-1.71694
-1.75621
-1.77427
-1.71237
-1.62032
-1.64824
-1.63425
-1.60109
-1.5668
-1.54404
-1.53089
-1.52037
-1.51332
-1.50999
-1.51021
-1.51305
-1.51677
-1.52
-1.52074
-1.52044
-1.80344
-1.8073
-1.80901
-1.80431
-1.79985
-1.78339
-1.72725
-1.67156
-1.69698
-1.69861
-1.68942
-1.67953
-1.67011
-1.6569
-1.64703
-1.64142
-1.63976
-1.64156
-1.64587
-1.65116
-1.65612
-1.66037
-1.66608
-1.91689
-1.91862
-1.91781
-1.91194
-1.89548
-1.866
-1.79764
-1.76425
-1.77391
-1.78051
-1.78412
-1.78794
-1.78835
-1.78412
-1.77906
-1.77593
-1.7759
-1.77863
-1.78299
-1.78852
-1.79489
-1.80256
-1.81434
-2.02949
-2.03095
-2.02948
-2.0235
-2.00837
-1.98376
-1.92226
-1.89541
-1.89226
-1.89793
-1.90563
-1.91278
-1.9165
-1.91592
-1.91461
-1.91395
-1.91492
-1.9175
-1.9215
-1.92686
-1.93368
-1.94258
-1.95533
-2.141
-2.1429
-2.14215
-2.13762
-2.12565
-2.10295
-2.06445
-2.04225
-2.0365
-2.03832
-2.043
-2.04775
-2.05078
-2.05182
-2.05214
-2.05265
-2.054
-2.05643
-2.06003
-2.06491
-2.07126
-2.07938
-2.08915
-2.25206
-2.2553
-2.25607
-2.25335
-2.2445
-2.22805
-2.20515
-2.18939
-2.18309
-2.18221
-2.18395
-2.18635
-2.18825
-2.1894
-2.19021
-2.19117
-2.19268
-2.19496
-2.19815
-2.20238
-2.20782
-2.21445
-2.22156
-2.36665
-2.37195
-2.37474
-2.37439
-2.36905
-2.35837
-2.34468
-2.334
-2.32787
-2.32545
-2.32523
-2.32594
-2.32682
-2.32761
-2.3284
-2.32942
-2.3309
-2.33299
-2.33579
-2.33936
-2.34379
-2.34893
-2.35381
-2.48878
-2.49504
-2.49954
-2.50115
-2.49877
-2.49245
-2.4839
-2.47612
-2.47063
-2.46748
-2.46604
-2.46559
-2.46562
-2.46591
-2.46645
-2.46733
-2.46867
-2.47055
-2.473
-2.47604
-2.47966
-2.48365
-2.4871
-2.61684
-2.62333
-2.6287
-2.63208
-2.63189
-2.62829
-2.62257
-2.6166
-2.61168
-2.60822
-2.60605
-2.6048
-2.60417
-2.60398
-2.60421
-2.60486
-2.606
-2.60766
-2.60984
-2.6125
-2.6156
-2.61891
-2.6217
-2.74942
-2.75625
-2.76211
-2.76626
-2.7672
-2.76509
-2.76092
-2.756
-2.75146
-2.74784
-2.7452
-2.74339
-2.74224
-2.74164
-2.74155
-2.74196
-2.7429
-2.74437
-2.74634
-2.74879
-2.75162
-2.75469
-2.75746
-2.88677
-2.89276
-2.89821
-2.9024
-2.90375
-2.90238
-2.89901
-2.89464
-2.89027
-2.8865
-2.88351
-2.88128
-2.87973
-2.87879
-2.87842
-2.87861
-2.87937
-2.88068
-2.88253
-2.88487
-2.88765
-2.89076
-2.89387
-3.0261
-3.03094
-3.03568
-3.03955
-3.04092
-3.03984
-3.03683
-3.03267
-3.02829
-3.02432
-3.02104
-3.01847
-3.0166
-3.01539
-3.0148
-3.01481
-3.01542
-3.01663
-3.0184
-3.02072
-3.02356
-3.02686
-3.03042
-3.16558
-3.16939
-3.17349
-3.17698
-3.1782
-3.17717
-3.17428
-3.17012
-3.1656
-3.1614
-3.15783
-3.15499
-3.15287
-3.15143
-3.15067
-3.15055
-3.15107
-3.15221
-3.15396
-3.15631
-3.15927
-3.1628
-3.16681
-3.30409
-3.30717
-3.31083
-3.31408
-3.31516
-3.31411
-3.31122
-3.30695
-3.30222
-3.29776
-3.29393
-3.29085
-3.28852
-3.28692
-3.28603
-3.28583
-3.28629
-3.28741
-3.28918
-3.2916
-3.29469
-3.29846
-3.30283
-3.44092
-3.44354
-3.44705
-3.45029
-3.45138
-3.45038
-3.44748
-3.44309
-3.43812
-3.43341
-3.42934
-3.42606
-3.42357
-3.42186
-3.4209
-3.42065
-3.4211
-3.42223
-3.42404
-3.42654
-3.42977
-3.43373
-3.4384
-3.57567
-3.57792
-3.58159
-3.58517
-3.5865
-3.58569
-3.58287
-3.57843
-3.57326
-3.56832
-3.56405
-3.56062
-3.55803
-3.55626
-3.55527
-3.55502
-3.55548
-3.55665
-3.55852
-3.5611
-3.56444
-3.56855
-3.57343
-3.70835
-3.71044
-3.71417
-3.71803
-3.72018
-3.7199
-3.7173
-3.71291
-3.70757
-3.70248
-3.69807
-3.69455
-3.69191
-3.69013
-3.68915
-3.68893
-3.68944
-3.69066
-3.69259
-3.69524
-3.69866
-3.70287
-3.70787
-3.83933
-3.84142
-3.8451
-3.84899
-3.85178
-3.85234
-3.85048
-3.84635
-3.84099
-3.83584
-3.83138
-3.82783
-3.82522
-3.82348
-3.82256
-3.8224
-3.82297
-3.82425
-3.82623
-3.82894
-3.8324
-3.83665
-3.84168
-3.96945
-3.97158
-3.97505
-3.97867
-3.98143
-3.98268
-3.98181
-3.97839
-3.9734
-3.96837
-3.96397
-3.9605
-3.95798
-3.95634
-3.95551
-3.95544
-3.95608
-3.95742
-3.95945
-3.96218
-3.96564
-3.96987
-3.97486
-4.09972
-4.10186
-4.1047
-4.10767
-4.11016
-4.11166
-4.11142
-4.10904
-4.10475
-4.10007
-4.09589
-4.09258
-4.09022
-4.08873
-4.08804
-4.08808
-4.08881
-4.0902
-4.09225
-4.09497
-4.09839
-4.10254
-4.10741
-4.2303
-4.23235
-4.23411
-4.23636
-4.2386
-4.24023
-4.2404
-4.23864
-4.23513
-4.23104
-4.22723
-4.22416
-4.222
-4.22072
-4.2202
-4.22036
-4.22117
-4.2226
-4.22465
-4.22733
-4.23067
-4.23467
-4.23936
-4.3606
-4.36223
-4.36316
-4.36492
-4.36693
-4.36859
-4.369
-4.36769
-4.36483
-4.36136
-4.35804
-4.35536
-4.35346
-4.35237
-4.35202
-4.35232
-4.35321
-4.35466
-4.35668
-4.35928
-4.36248
-4.3663
-4.37074
-4.49057
-4.49165
-4.49192
-4.49334
-4.49519
-4.49681
-4.49734
-4.49635
-4.49405
-4.49119
-4.48844
-4.48622
-4.48468
-4.48382
-4.48362
-4.48403
-4.48497
-4.48642
-4.48838
-4.49086
-4.49388
-4.49747
-4.50161
-4.62027
-4.62063
-4.6204
-4.62159
-4.62331
-4.62488
-4.62545
-4.6247
-4.62291
-4.62069
-4.61856
-4.61686
-4.61571
-4.61514
-4.61509
-4.61555
-4.61651
-4.61793
-4.61978
-4.6221
-4.62491
-4.62821
-4.63201
-4.7498
-4.74893
-4.74862
-4.74967
-4.75126
-4.75276
-4.75336
-4.75285
-4.75158
-4.75002
-4.74854
-4.74739
-4.74666
-4.74636
-4.74648
-4.74698
-4.74789
-4.74922
-4.75093
-4.75305
-4.7556
-4.75858
-4.762
-4.87959
-4.87758
-4.87709
-4.8777
-4.87914
-4.88055
-4.88114
-4.88096
-4.88027
-4.87938
-4.87855
-4.87793
-4.8776
-4.87756
-4.8778
-4.87833
-4.87917
-4.88034
-4.88188
-4.88375
-4.886
-4.88863
-4.89164
-5.00931
-5.00782
-5.0069
-5.00692
-5.00786
-5.00883
-5.00937
-5.0095
-5.00931
-5.00899
-5.00872
-5.00857
-5.00858
-5.00875
-5.00908
-5.00961
-5.01035
-5.01135
-5.01264
-5.01424
-5.01616
-5.0184
-5.02097
-5.13938
-5.13915
-5.13837
-5.13794
-5.13799
-5.13818
-5.13853
-5.13878
-5.1389
-5.13901
-5.13916
-5.13936
-5.13962
-5.13993
-5.14032
-5.14081
-5.14144
-5.14224
-5.14326
-5.14455
-5.1461
-5.14794
-5.15006
-5.27001
-5.27011
-5.26971
-5.26919
-5.2686
-5.26839
-5.26853
-5.2688
-5.26912
-5.2695
-5.26991
-5.27033
-5.27072
-5.27111
-5.27149
-5.27191
-5.27241
-5.27301
-5.27376
-5.2747
-5.27588
-5.27729
-5.27894
-5.40093
-5.40088
-5.4004
-5.39987
-5.3994
-5.3992
-5.39926
-5.39954
-5.39997
-5.40047
-5.40099
-5.40147
-5.40189
-5.40226
-5.40258
-5.40289
-5.40323
-5.40362
-5.40411
-5.40472
-5.4055
-5.40648
-5.40765
-5.53208
-5.53194
-5.53153
-5.53109
-5.53075
-5.53061
-5.53068
-5.53095
-5.53139
-5.53189
-5.53238
-5.53281
-5.53315
-5.5334
-5.5336
-5.53376
-5.53391
-5.53409
-5.53432
-5.53462
-5.53501
-5.53554
-5.53626
-5.66344
-5.6634
-5.6632
-5.66291
-5.66269
-5.6626
-5.66268
-5.66293
-5.6633
-5.6637
-5.66408
-5.66437
-5.66456
-5.66466
-5.66467
-5.66462
-5.66454
-5.66447
-5.66442
-5.66443
-5.66451
-5.66466
-5.66482
504.035
511.636
529.245
518.957
290.916
276.669
261.52
250.234
202.488
189.562
176.906
166.654
149.409
143.373
131.849
103.805
90.71
82.7251
62.1098
55.5384
26.82
28.9554
29.0371
29.1908
-0.00173412
0.0633185
3.18099
8.48294
-1.13615
-1.23669
-1.37044
-1.43302
-1.27526
-1.30341
-1.34432
-1.38776
-1.39226
-1.41292
-1.44454
-1.47129
-1.53284
-1.54895
-1.56515
-1.57819
-1.68115
-1.69442
-1.70619
-1.71644
-1.82574
-1.83565
-1.844
-1.85585
-1.96478
-1.96997
-1.9762
-1.98682
-2.09721
-2.10153
-2.1057
-2.11264
-2.22782
-2.23122
-2.23434
-2.2393
-2.35756
-2.35979
-2.36205
-2.36624
-2.48931
-2.49032
-2.49156
-2.49489
-2.62332
-2.62406
-2.625
-2.62731
-2.75923
-2.76021
-2.76134
-2.76336
-2.89613
-2.89757
-2.89916
-2.90132
-3.03324
-3.03514
-3.03722
-3.03971
-3.17012
-3.17241
-3.17492
-3.17777
-3.30656
-3.30916
-3.312
-3.31518
-3.44243
-3.44525
-3.44833
-3.45174
-3.57766
-3.58062
-3.58385
-3.58739
-3.71221
-3.71524
-3.71853
-3.72211
-3.84604
-3.84908
-3.85237
-3.85592
-3.97916
-3.98215
-3.98538
-3.98885
-4.11159
-4.11449
-4.1176
-4.12093
-4.24336
-4.24611
-4.24907
-4.25224
-4.37451
-4.37711
-4.37988
-4.38283
-4.50511
-4.50751
-4.51007
-4.5128
-4.63521
-4.6374
-4.63973
-4.6422
-4.76487
-4.76683
-4.76892
-4.77113
-4.89416
-4.89588
-4.8977
-4.89964
-5.02313
-5.02459
-5.02615
-5.0278
-5.15183
-5.15305
-5.15433
-5.15569
-5.28033
-5.28128
-5.28228
-5.28334
-5.40864
-5.40933
-5.41005
-5.41081
-5.53685
-5.53726
-5.5377
-5.53816
-5.665
-5.66513
-5.66527
-5.66542
418.528
455.875
475.382
530.221
571.415
592.508
624.918
671.93
723.197
768.306
814.562
860.992
904.46
938.038
947.305
964.715
989.085
1009.76
1028.57
234.987
259.62
296.289
356.059
414.567
454.712
493.449
540.259
591.515
641.797
692.503
742.79
789.356
830.697
844.017
851.277
873.921
903.088
914.323
157.392
176.324
208.141
242.964
276.215
311.499
353.123
404.59
461.119
516.53
572.82
627.651
678.204
724.076
752.359
765.203
782.562
808.311
818.427
78.3491
89.0956
123.856
157.35
175.713
199.809
231.333
272.832
326.838
387.974
452.053
513.09
568.87
619.383
663.82
684.28
706.024
729.096
741.849
45.8018
36.9357
37.1895
56.4672
86.7471
119.409
148.582
180.027
219.503
269.246
330.791
397.596
459.789
513.597
565.808
597.506
622.816
652.544
667.453
26.323
15.5626
13.3737
14.3076
18.2588
40.6026
67.6584
99.9836
141.017
185.291
234.129
291.457
351.911
407.683
461.245
502.561
527.429
558.656
579.473
5.87035
5.08605
3.44785
2.44857
2.21243
3.22451
8.53429
23.1878
60.1671
111.923
164.868
215.028
261.89
308.218
357.689
397.354
423.781
447.936
473.173
-1.28768
-0.521095
-0.572137
-0.36131
-0.010839
0.0539443
0.236833
0.961129
8.47862
39.6756
101.709
159.831
201.851
234.959
269.704
296.257
319.25
334.631
360.293
-1.42462
-1.32769
-1.22314
-0.974231
-0.638917
-0.297886
-0.0829519
0.125801
0.0778866
0.303325
44.0745
113.562
158.33
187.884
203.673
215.643
225.257
235.059
259.91
-1.48033
-1.41377
-1.30592
-1.17071
-0.929662
-0.654342
-0.398983
-0.110444
0.0290805
0.25084
5.39541
73.0327
122.093
148.514
153.737
153.872
151.3
161.123
186.359
-1.59434
-1.59094
-1.52609
-1.39954
-1.19528
-0.962606
-0.699417
-0.399336
-0.156199
-0.098922
0.803643
40.8798
92.7867
111.89
106.145
99.431
102.304
117.492
142.598
-1.7359
-1.7526
-1.71849
-1.59493
-1.42907
-1.22558
-0.995552
-0.755875
-0.559647
-0.541473
0.0667212
13.6287
54.977
73.349
74.4949
73.3504
80.3598
99.7522
124.353
-1.87695
-1.89159
-1.86515
-1.75461
-1.61133
-1.44905
-1.27339
-1.12859
-1.03126
-1.04553
-1.19332
-0.191541
19.9246
43.4736
56.3533
65.6558
77.154
98.0878
117.365
-2.00535
-2.01694
-1.99729
-1.89333
-1.76098
-1.62704
-1.51259
-1.44912
-1.45926
-1.48215
-1.50409
-1.14145
1.47763
20.4
40.3036
56.3565
73.2714
94.073
109.699
-2.12553
-2.13192
-2.12019
-2.0584
-1.94244
-1.81551
-1.73101
-1.71358
-1.79462
-1.89295
-1.8553
-2.13815
0.87017
9.14709
24.9815
44.1489
63.8232
82.9819
94.2979
-2.24766
-2.24904
-2.24236
-2.22293
-2.16803
-2.09349
-2.02985
-2.03861
-2.17444
-2.42052
-2.47697
-2.9775
-3.16531
-0.37236
10.6072
28.6346
49.4303
62.7265
70.5038
-2.37363
-2.37497
-2.37127
-2.36278
-2.35402
-2.34505
-2.34882
-2.39575
-2.5293
-2.75785
-2.94602
-3.27962
-3.66879
-3.60627
2.52036
11.8039
25.9995
40.3332
46.3117
-2.50103
-2.5029
-2.50266
-2.50309
-2.50659
-2.52097
-2.55511
-2.62054
-2.74231
-2.91374
-3.09917
-3.32365
-3.60523
-3.61446
-3.66606
-2.6478
8.26074
18.5292
22.4813
-2.63162
-2.63455
-2.63863
-2.64531
-2.65615
-2.67615
-2.71273
-2.77779
-2.88004
-3.02312
-3.17635
-3.36244
-3.56426
-3.65575
-3.64063
-3.61431
-3.6675
-3.53465
-2.94986
-2.76717
-2.77176
-2.77837
-2.78816
-2.80368
-2.8283
-2.86699
-2.92659
-3.01076
-3.13202
-3.26092
-3.40059
-3.53792
-3.62795
-3.67763
-3.6835
-3.68547
-3.62202
-3.64096
-2.90537
-2.91169
-2.92024
-2.93247
-2.95076
-2.97765
-3.01645
-3.07094
-3.1432
-3.24277
-3.34536
-3.44895
-3.54523
-3.61708
-3.65844
-3.68137
-3.69299
-3.67834
-3.6835
-3.04436
-3.05221
-3.06257
-3.07685
-3.09682
-3.12437
-3.16172
-3.21109
-3.27376
-3.35238
-3.43508
-3.51447
-3.58639
-3.64464
-3.68694
-3.71455
-3.72507
-3.72219
-3.72212
-3.18309
-3.19228
-3.20412
-3.21972
-3.24042
-3.26761
-3.30269
-3.34684
-3.40044
-3.46304
-3.5311
-3.59311
-3.6497
-3.69803
-3.73538
-3.76058
-3.7735
-3.77655
-3.77645
-3.32107
-3.33131
-3.34403
-3.36026
-3.38094
-3.40704
-3.43941
-3.47861
-3.52454
-3.57623
-3.63069
-3.68142
-3.72769
-3.76823
-3.80041
-3.82331
-3.83654
-3.84205
-3.84305
-3.45801
-3.46882
-3.482
-3.49831
-3.51843
-3.54299
-3.57249
-3.60711
-3.64652
-3.68964
-3.73432
-3.77654
-3.8153
-3.84957
-3.87738
-3.8978
-3.91076
-3.91696
-3.9188
-3.59386
-3.60484
-3.61808
-3.63406
-3.65325
-3.67604
-3.70269
-3.73318
-3.76708
-3.80345
-3.84072
-3.87629
-3.90917
-3.93839
-3.96251
-3.98062
-3.99256
-3.99887
-4.00135
-3.72862
-3.73953
-3.75249
-3.76783
-3.78585
-3.80678
-3.83071
-3.85753
-3.88679
-3.91774
-3.94918
-3.9794
-4.00749
-4.03256
-4.0535
-4.06952
-4.08039
-4.08685
-4.08927
-3.86234
-3.87297
-3.88542
-3.89992
-3.91665
-3.93571
-3.95711
-3.98067
-4.00601
-4.03249
-4.05925
-4.08513
-4.10921
-4.13078
-4.14897
-4.1631
-4.17287
-4.17887
-4.1812
-3.99507
-4.00527
-4.01706
-4.0306
-4.04597
-4.06322
-4.08229
-4.10299
-4.12496
-4.14771
-4.17058
-4.19297
-4.21363
-4.23221
-4.248
-4.26044
-4.26926
-4.27484
-4.2777
-4.12688
-4.13653
-4.14756
-4.16006
-4.17408
-4.18961
-4.20655
-4.22471
-4.24379
-4.26336
-4.28278
-4.30268
-4.32022
-4.33621
-4.34989
-4.36078
-4.36867
-4.37364
-4.37594
-4.25785
-4.26686
-4.27706
-4.2885
-4.30119
-4.31509
-4.33008
-4.346
-4.3626
-4.37954
-4.39645
-4.4131
-4.42843
-4.44225
-4.45408
-4.46354
-4.4704
-4.47481
-4.47678
-4.38807
-4.39638
-4.40571
-4.41608
-4.42747
-4.43983
-4.45305
-4.46697
-4.48138
-4.49603
-4.5106
-4.52478
-4.53804
-4.54994
-4.56013
-4.5683
-4.57422
-4.57804
-4.57978
-4.51761
-4.52518
-4.53362
-4.54292
-4.55306
-4.56397
-4.57555
-4.58767
-4.60015
-4.61276
-4.62527
-4.63739
-4.64872
-4.65898
-4.66768
-4.6747
-4.67979
-4.6831
-4.68462
-4.64656
-4.65336
-4.6609
-4.66914
-4.67807
-4.68762
-4.6977
-4.70818
-4.7189
-4.72971
-4.74038
-4.75068
-4.76034
-4.76904
-4.77645
-4.78246
-4.78681
-4.78968
-4.79098
-4.77501
-4.78102
-4.78765
-4.79487
-4.80263
-4.81089
-4.81955
-4.82852
-4.83766
-4.84683
-4.85585
-4.86453
-4.87266
-4.87998
-4.88622
-4.89137
-4.89504
-4.89751
-4.89862
-4.90303
-4.90825
-4.91397
-4.92017
-4.92682
-4.93385
-4.94119
-4.94876
-4.95644
-4.96411
-4.97163
-4.97885
-4.9856
-4.99168
-4.9969
-5.00125
-5.00423
-5.0064
-5.00733
-5.03069
-5.0351
-5.03993
-5.04514
-5.0507
-5.05656
-5.06265
-5.06891
-5.07523
-5.08153
-5.08768
-5.09357
-5.09907
-5.10403
-5.10831
-5.11188
-5.11434
-5.11618
-5.11694
-5.15806
-5.16167
-5.16561
-5.16985
-5.17435
-5.17908
-5.18398
-5.189
-5.19406
-5.19908
-5.20397
-5.20865
-5.21301
-5.21694
-5.22035
-5.2232
-5.22515
-5.22672
-5.22731
-5.28519
-5.288
-5.29107
-5.29435
-5.29782
-5.30145
-5.30521
-5.30905
-5.31291
-5.31673
-5.32045
-5.324
-5.32731
-5.33029
-5.33289
-5.33507
-5.33658
-5.33779
-5.33827
-5.41214
-5.41416
-5.41635
-5.41868
-5.42114
-5.42372
-5.42637
-5.42908
-5.43179
-5.43448
-5.43708
-5.43957
-5.44189
-5.44398
-5.44581
-5.44735
-5.44843
-5.44932
-5.44965
-5.53897
-5.54019
-5.5415
-5.54289
-5.54437
-5.54591
-5.5475
-5.54911
-5.55073
-5.55231
-5.55385
-5.55531
-5.55667
-5.5579
-5.55899
-5.55991
-5.56057
-5.56114
-5.56134
-5.66569
-5.6661
-5.66653
-5.66699
-5.66747
-5.66796
-5.66847
-5.66898
-5.66951
-5.67003
-5.67055
-5.67105
-5.67151
-5.67194
-5.67234
-5.67269
-5.67299
-5.67329
-5.67335
)
;

boundaryField
{
    leftWall
    {
        type            calculated;
        value           nonuniform List<scalar> 
50
(
4506.73
3709.17
2914.9
2122.46
1346.97
752.525
511.656
473.054
414.334
343.866
287.415
236.685
187.423
136.362
79.4011
25.6184
0.701818
-1.5702
-1.6928
-1.80344
-1.91689
-2.02949
-2.141
-2.25206
-2.36665
-2.48878
-2.61684
-2.74942
-2.88677
-3.0261
-3.16558
-3.30409
-3.44092
-3.57567
-3.70835
-3.83933
-3.96945
-4.09972
-4.2303
-4.3606
-4.49057
-4.62027
-4.7498
-4.87959
-5.00931
-5.13938
-5.27001
-5.40093
-5.53208
-5.66344
)
;
    }
    rightWall
    {
        type            calculated;
        value           nonuniform List<scalar> 
50
(
2878.34
2117.01
1562.59
1364.89
1305.83
1247.12
1186.37
1123.67
1028.57
914.323
818.427
741.849
667.453
579.473
473.173
360.293
259.91
186.359
142.598
124.353
117.365
109.699
94.2979
70.5038
46.3117
22.4813
-2.94986
-3.64096
-3.6835
-3.72212
-3.77645
-3.84305
-3.9188
-4.00135
-4.08927
-4.1812
-4.2777
-4.37594
-4.47678
-4.57978
-4.68462
-4.79098
-4.89862
-5.00733
-5.11694
-5.22731
-5.33827
-5.44965
-5.56134
-5.67335
)
;
    }
    lowerWall
    {
        type            calculated;
        value           nonuniform List<scalar> 
62
(
4904.88
4895.3
4894.58
4901.33
4924.91
4968.16
5032.57
5107.35
5184.74
5260.41
5335.25
5414.37
5500.64
5598.15
5706.58
5821.54
5935.6
6042.49
6138.33
6220.78
6286.02
6327.74
6348.01
5949.88
5149.08
4343.97
3532.6
2712.89
1884.35
1109.15
630.432
674.591
703.984
812.359
802.853
2801.52
2212.21
1831.53
1556.66
1265.92
1088.47
898.016
553.119
3127.86
3071.87
3079.91
3067.07
3120.1
3145.95
3010.95
2873.49
2845.34
2857.06
2867.4
2887.02
2918.46
3033.61
3232.25
3355.43
3385.06
3309.55
3255.72
)
;
    }
    atmosphere
    {
        type            calculated;
        value           nonuniform List<scalar> 
46
(
-5.72904
-5.72905
-5.72905
-5.72904
-5.72904
-5.72904
-5.72906
-5.72924
-5.72956
-5.7299
-5.7302
-5.7304
-5.73049
-5.73046
-5.73033
-5.73014
-5.72991
-5.72966
-5.72943
-5.72923
-5.7291
-5.72904
-5.72904
-5.72904
-5.72904
-5.72904
-5.72904
-5.72904
-5.72904
-5.72904
-5.72904
-5.72904
-5.72904
-5.72904
-5.72904
-5.72904
-5.72904
-5.72904
-5.72904
-5.72904
-5.72904
-5.72904
-5.72904
-5.72904
-5.72904
-5.72905
)
;
    }
    defaultFaces
    {
        type            empty;
    }
}


// ************************************************************************* //
