/*--------------------------------*- C++ -*----------------------------------*\
| =========                 |                                                 |
| \\      /  F ield         | OpenFOAM: The Open Source CFD Toolbox           |
|  \\    /   O peration     | Version:  2312                                  |
|   \\  /    A nd           | Website:  www.openfoam.com                      |
|    \\/     M anipulation  |                                                 |
\*---------------------------------------------------------------------------*/
FoamFile
{
    version     2.0;
    format      ascii;
    arch        "LSB;label=32;scalar=64";
    class       volScalarField;
    location    "1.7";
    object      p_rgh;
}
// * * * * * * * * * * * * * * * * * * * * * * * * * * * * * * * * * * * * * //

dimensions      [1 -1 -2 0 0 0 0];

internalField   nonuniform List<scalar> 
2268
(
4904.88
4895.3
4894.58
4901.33
4924.91
4968.16
5032.57
5107.35
5184.74
5260.41
5335.25
5414.37
5500.64
5598.15
5706.58
5821.54
5935.6
6042.49
6138.33
6220.78
6286.02
6327.74
6348.01
4903.62
4892.79
4892.55
4897.66
4920.4
4963.41
5029.91
5106.52
5184.72
5259.86
5332.95
5410.44
5495.9
5593.82
5703.81
5820.99
5936.95
6044.89
6140.31
6221.32
6284.71
6324.89
6343.46
4905.65
4894.26
4888.73
4891.1
4911.27
4953.58
5024.38
5104.99
5184.7
5258.53
5327.77
5401.4
5485.09
5584.01
5697.57
5819.62
5939.56
6049.5
6144.15
6222.5
6282.63
6319.61
6334.68
4909.51
4893.59
4881.61
4880.73
4897.04
4937.65
5014.46
5103.58
5186.16
5257.13
5320.32
5387.35
5467.7
5567.78
5686.77
5816.65
5943.05
6056.11
6149.78
6223.68
6278.69
6310.49
6319.65
4777.74
4788.68
4735.31
4764.85
4787.48
4847.87
4980.93
5101.8
5188.84
5255.48
5309.19
5366.65
5442.29
5544.37
5671.45
5812.7
5948.16
6065.72
6157.37
6223.7
6271.61
6296.14
6296.23
3187.83
3037.34
2816.69
2528.59
2460.37
2542.99
2984.81
3644.7
4097.73
4297.07
4342.55
4402.68
4608.9
4968.79
5402.72
5788.18
5956.74
6080.46
6168.69
6225.53
6262.75
6278.51
6263.99
756.094
769.515
792.559
889.682
925.717
949.941
970.049
1015.75
1173.17
1264.56
1311.83
1361
1502.39
1825.91
2430.25
3360.03
4460.23
5242.69
5621.22
5763.26
5794.37
5776.83
5562.55
693.448
685.973
696.182
752.608
863.141
974.986
972.247
975.271
977.573
988.976
1007.66
1027.59
1040.59
1045.77
1043.95
1047
1197.03
1602.79
2049.23
2234.34
2409.77
2583.74
2458.02
3127.86
3071.87
3079.91
3067.07
3120.1
3145.95
3010.95
2873.49
2845.34
2857.06
2867.4
2887.02
2918.46
3033.61
3232.25
3355.43
3385.06
3309.55
3255.72
2953.84
2876.23
2853.06
2874.87
3017.93
3103.3
2858.66
2675.8
2651.95
2675.22
2679.34
2680.14
2658.92
2811.32
3133.38
3348.53
3400.71
3294.35
3207.65
2463.86
2428.19
2353.17
2289.42
2544.81
2800.24
2550.19
2087.28
2063.82
2011.79
2003.28
2089.79
2270.78
2376.35
2463.49
2627.34
2877.92
2610.86
2380.78
2540.44
2318.47
2300.04
2222.26
2327.4
2225.03
1997.84
1907.43
1877.14
1851.18
1624
1495.65
1656.73
1964.77
2196.95
2312.08
2060.8
1626.72
1550.39
2444.87
2054.1
2018.46
2243.15
1872.07
1489.93
1479.95
1594.53
1599.21
1546.84
1420.66
1352.63
1299.3
1456.01
1558.43
1747.42
1512.36
1564.89
1533.32
1527.17
1660.59
1545.44
1366.64
1564.95
1488.64
1547.33
1573.52
1433.91
1345.63
1332.51
1389.19
1412.02
1307.59
1472.56
1413.57
1524.86
1585.83
1558.14
2327.75
2842.51
2001.03
1279.61
1432.14
1618.47
1596.77
1496.73
1195.15
1252.48
1329.24
1393.66
1433.24
1376.85
1588.65
1441.46
1540.42
1588.18
1579.5
2849.79
3032.02
2491.12
1207.41
1154.03
1439.69
1464.61
1193.52
1146.2
1213.88
1306.67
1391.31
1433.79
1391.83
1594.17
1532.64
1564.5
1595.33
1613.6
677.902
672.603
681.374
687.997
697.445
802.329
954.313
961.393
979.021
999.786
1011.96
1026.01
1036.94
1041.14
1039.22
1034.24
1030.39
1026.62
1022.43
1014.09
996.398
980.642
963.716
642.773
608.038
658.254
680.604
684.823
680.122
713.818
796.842
864.686
938.224
986.62
1025.22
1035.38
1026.51
1019.46
1021.46
1028
1021.52
1021.13
1012.75
986.455
930.738
828.647
630.847
497.052
663.553
681.261
657.466
638.262
627.481
613.484
615.486
657.92
767.977
881.385
988.374
1006.78
1008.86
959.194
966.421
978.264
936.408
906.688
787.976
685.152
613.392
644.274
479.52
536.874
681.111
686.258
660.538
665.32
668.074
653.072
646.531
639.96
648.658
677.569
703.894
741.852
794.015
768.705
766.307
777.386
755.028
683.08
627.854
560.517
698.108
508.742
461.243
597.301
686.724
685.773
673.179
661.601
640.205
639.265
653.184
652.381
648.894
646.559
636.51
618.626
620.015
623.999
621.787
634.212
664.918
663.411
624.309
715.74
690.306
454.153
638.326
695.772
691.237
672.504
505.516
385.692
573.959
626.365
660.276
663.875
662.206
657.159
650.934
644.039
634.13
617.669
594.115
559.911
515.346
480.261
721.363
723.283
692.82
709.665
701.551
629.245
478.957
270.283
216.986
282.223
390.999
510.561
563.911
573.438
547.87
499.503
431.126
356.935
265.7
181.495
108.306
53.5439
26.5459
546.951
583.431
628.846
545.727
417.931
347.502
190.93
33.1318
11.1908
1.80739
8.07066
50.8531
76.975
75.5365
59.423
31.5154
18.536
6.00116
3.59773
2.94079
4.04753
3.25082
1.72834
55.1794
62.9562
88.6179
65.6327
47.9878
34.9102
8.69518
3.25273
0.303223
0.245226
0.233815
0.264038
0.361772
0.475447
0.357526
0.518645
0.336504
0.51036
0.275269
0.284455
0.340951
0.323096
0.300983
0.15888
0.0796267
0.0585226
0.0473546
0.00871133
-0.0906267
2.05816
0.48039
0.143312
0.251133
0.620079
0.663771
0.437011
0.255969
0.265516
0.274807
0.279341
0.277325
0.27505
0.272399
0.271501
0.279367
0.289876
0.111682
0.0903793
0.0829236
0.0755643
0.0379913
0.0430185
0.0888336
0.198899
0.152975
0.1611
0.546446
0.713369
0.694805
0.277638
0.267954
0.277838
0.280872
0.275908
0.272738
0.271696
0.270016
0.275895
0.333656
0.115955
0.116316
0.114368
0.11469
0.111633
0.128682
0.187069
0.249007
0.219246
0.215361
0.225359
0.295907
0.257551
0.26007
0.264836
0.270391
0.27142
0.269216
0.265539
0.262338
0.256446
0.251036
0.48812
0.12364
0.122074
0.123448
0.125513
0.14128
0.170818
0.239378
0.273014
0.2639
0.257532
0.255284
0.251549
0.251171
0.253508
0.257753
0.260381
0.259998
0.257238
0.25308
0.2475
0.241215
0.23713
0.477052
0.131786
0.130397
0.131842
0.138138
0.154075
0.179543
0.242851
0.269744
0.272651
0.264401
0.256971
0.250509
0.245695
0.245269
0.246391
0.247048
0.246089
0.243516
0.239512
0.234151
0.227405
0.219832
0.23723
0.145611
0.143785
0.145068
0.15113
0.163596
0.185459
0.223223
0.244579
0.250033
0.248267
0.243546
0.239236
0.235412
0.234373
0.234052
0.233542
0.232198
0.229769
0.226179
0.221329
0.215
0.20682
0.200275
0.159952
0.156582
0.156589
0.159632
0.167022
0.183369
0.206291
0.222069
0.228343
0.229176
0.22744
0.225042
0.223136
0.221993
0.221183
0.22022
0.218713
0.216432
0.213248
0.209027
0.203592
0.196952
0.189883
0.171416
0.164791
0.161884
0.162231
0.167554
0.178232
0.191916
0.202587
0.20871
0.211134
0.211358
0.210641
0.209758
0.208975
0.208187
0.207164
0.205684
0.203593
0.2008
0.197233
0.192806
0.187677
0.18282
0.175454
0.16688
0.162275
0.16066
0.163035
0.169339
0.177888
0.185656
0.191151
0.194298
0.195736
0.196188
0.196155
0.195862
0.195323
0.194442
0.193106
0.191229
0.188779
0.185746
0.182132
0.178162
0.174721
0.17265
0.163787
0.158325
0.154938
0.155106
0.158695
0.164412
0.170377
0.175293
0.178749
0.180918
0.182168
0.182801
0.182985
0.182763
0.182109
0.180969
0.179308
0.177131
0.174472
0.171384
0.168085
0.165317
0.166046
0.15612
0.150106
0.145947
0.144996
0.147083
0.151253
0.156169
0.160707
0.164328
0.166969
0.168778
0.169926
0.170523
0.170616
0.170203
0.169266
0.167798
0.165821
0.163383
0.160549
0.157494
0.154736
0.155218
0.144883
0.139174
0.134998
0.133634
0.134984
0.138351
0.142721
0.147091
0.150866
0.153855
0.156082
0.157631
0.15857
0.158938
0.158744
0.157988
0.156674
0.154828
0.152492
0.149712
0.146605
0.1435
0.141634
0.132292
0.126893
0.123057
0.121732
0.122839
0.125734
0.129889
0.134268
0.138233
0.141519
0.144081
0.145948
0.147164
0.147756
0.147742
0.147128
0.145922
0.144149
0.141832
0.138993
0.135695
0.132135
0.127621
0.120391
0.114319
0.110879
0.110072
0.111079
0.113496
0.117635
0.122153
0.126351
0.129915
0.132757
0.134881
0.136313
0.137079
0.137198
0.136681
0.135538
0.133787
0.131437
0.128481
0.124943
0.120944
0.114484
0.11188
0.102317
0.0990868
0.09838
0.0994243
0.101836
0.105997
0.11073
0.115186
0.119013
0.122095
0.124423
0.126018
0.126907
0.127112
0.126648
0.125528
0.12376
0.121344
0.118253
0.114483
0.110109
0.101139
0.101363
0.0914721
0.0880564
0.0873847
0.0883589
0.0906986
0.0950586
0.100026
0.104735
0.1088
0.112081
0.114564
0.116271
0.117236
0.117484
0.117035
0.115902
0.114092
0.111594
0.108371
0.104404
0.0997332
0.09019
0.09245
0.0865112
0.0783604
0.0773447
0.078285
0.0805119
0.0849126
0.0900856
0.0950141
0.0992791
0.102711
0.105297
0.107067
0.108061
0.108314
0.107848
0.106678
0.10481
0.102229
0.0988932
0.094776
0.0898964
0.0820227
0.0842804
0.0862996
0.0718783
0.0689027
0.0693129
0.0713028
0.0756303
0.0809624
0.0860509
0.090457
0.0939803
0.0966135
0.0983951
0.0993754
0.0995964
0.0990875
0.0978655
0.0959358
0.0932831
0.0898661
0.0856553
0.0806514
0.07621
0.0776424
0.0829825
0.0767237
0.0632955
0.0621359
0.0633471
0.0673938
0.0727459
0.0778866
0.0823455
0.0858856
0.0885007
0.09024
0.091164
0.0913233
0.0907524
0.0894709
0.0874851
0.0847811
0.0813204
0.0770727
0.0720348
0.0879692
0.082066
0.083647
0.0722939
0.0588835
0.0571119
0.0573087
0.0605539
0.0655333
0.0705516
0.0749461
0.0784143
0.0809377
0.0825779
0.0834055
0.0834765
0.0828307
0.0814899
0.0794612
0.0767324
0.0732697
0.0690473
0.0640528
0.124409
0.109971
0.0769864
0.0595603
0.0550617
0.0533189
0.0529794
0.0551104
0.0593826
0.0640421
0.0682233
0.0715297
0.0738924
0.0753751
0.0760674
0.0760291
0.0753017
0.0739081
0.0718557
0.0691342
0.065714
0.0615709
0.0566995
0.124784
0.0869821
0.0616832
0.0537911
0.0516269
0.0499386
0.0490811
0.0507128
0.0542038
0.0582668
0.06208
0.0651421
0.0673025
0.0685865
0.0691074
0.0689434
0.0681344
0.066701
0.0646496
0.0619705
0.0586375
0.0546328
0.0499473
0.121316
0.0609892
0.0522657
0.0503326
0.0484824
0.0464252
0.0457053
0.04707
0.0497355
0.0531536
0.0564581
0.0591433
0.0610405
0.062131
0.0624728
0.0621732
0.0612889
0.0598351
0.0578138
0.0552148
0.0520143
0.0481951
0.0437591
0.120369
0.0572601
0.0480804
0.0467979
0.0450673
0.0433665
0.0437556
0.0448193
0.0457779
0.0485214
0.0512564
0.0534756
0.0550141
0.0558721
0.0560742
0.0556642
0.0547187
0.0532697
0.051312
0.0488325
0.0458079
0.0422265
0.0380864
0.119083
0.0507791
0.0447334
0.043517
0.0417935
0.0412409
0.0420729
0.0421231
0.0420518
0.0442112
0.0463331
0.048032
0.0491726
0.0497475
0.0497966
0.0493356
0.0483741
0.0469606
0.0451035
0.0427841
0.0399794
0.0366743
0.0328793
0.116777
0.0416226
0.0416641
0.0406052
0.0390136
0.0393973
0.0394082
0.0379839
0.0385251
0.0400693
0.0415421
0.0426918
0.04342
0.0437171
0.0436045
0.0431017
0.0421914
0.0408637
0.0391461
0.037028
0.0344832
0.031499
0.0280813
0.0982564
0.103236
0.0552537
0.0377185
0.0362615
0.0364202
0.0345001
0.0343323
0.0350129
0.0359004
0.0367303
0.0373433
0.0376767
0.0377199
0.0374758
0.0369429
0.0361092
0.0349326
0.0334
0.0315227
0.0292762
0.0266427
0.0236383
0.0369572
0.139268
0.140177
0.117541
0.0701349
0.0316927
0.0311323
0.0309853
0.0311701
0.0314805
0.031751
0.0318978
0.031892
0.0317251
0.0313872
0.0308595
0.0301153
0.0291226
0.0278302
0.0262298
0.0243147
0.0220681
0.0194969
0.0263907
0.0795683
0.136377
0.135434
0.0592382
0.0275293
0.0271626
0.0269002
0.0267656
0.0266561
0.0265072
0.0263033
0.0260458
0.0257313
0.025343
0.0248529
0.0242256
0.0234235
0.0224013
0.0211181
0.0195621
0.0177208
0.0156083
0.0209457
0.0210469
0.0383396
0.0353279
0.0247647
0.0225025
0.0223421
0.0220704
0.0217426
0.021362
0.020949
0.0205339
0.0201353
0.0197522
0.0193656
0.018945
0.0184536
0.0178533
0.0171021
0.0161576
0.0149831
0.01357
0.0119211
0.0151571
0.0152225
0.0156848
0.0162166
0.0166783
0.0168704
0.0167986
0.0165173
0.0160887
0.0155809
0.015061
0.0145794
0.0141589
0.0137973
0.0134747
0.0131618
0.0128245
0.012429
0.0119424
0.0113298
0.0105509
0.00957223
0.0084045
0.00917805
0.00933514
0.0097439
0.0101717
0.0105034
0.0106393
0.01057
0.010296
0.00986195
0.00935914
0.00886852
0.00844225
0.00810147
0.00784343
0.0076487
0.00749096
0.00733942
0.00716169
0.00693207
0.00663049
0.00623425
0.00570591
0.00498652
0.00300856
0.00304834
0.00324591
0.00353685
0.00375828
0.00384155
0.00376087
0.00351194
0.00314624
0.0027392
0.0023643
0.00207054
0.00187855
0.00178671
0.00177766
0.00182509
0.00190125
0.00197703
0.00202414
0.00201322
0.00193026
0.00178128
0.00162043
1957.54
2150.86
2942
2938.37
774.086
760.064
760.756
751.926
592.725
570.473
559.86
548.481
429.613
410.85
398.803
410.088
563.822
520.48
206.623
79.2361
490.243
529.743
534.04
346.13
12.4674
12.454
112.907
204.918
1.71343
1.45908
1.04875
0.802196
0.279204
0.251155
0.216468
0.198738
0.39744
0.661931
0.739865
0.691914
1.0047
1.01055
1.06166
1.35946
1.0547
1.01637
1.01573
1.52205
0.983275
0.765219
0.632901
1.28552
0.591167
0.714013
0.674075
0.601186
0.404256
0.512521
0.68099
0.59839
0.184117
0.348403
0.489718
0.484932
0.179074
0.176818
0.17743
0.296462
0.172517
0.171488
0.170258
0.166937
0.163701
0.162944
0.162013
0.159718
0.152968
0.151983
0.150848
0.148835
0.141238
0.139807
0.138215
0.13606
0.12932
0.127424
0.125342
0.122859
0.117631
0.115343
0.112836
0.109985
0.106387
0.103786
0.10094
0.0977682
0.0957098
0.0928891
0.0898029
0.0864003
0.0856687
0.0827057
0.0794764
0.0759414
0.0763168
0.0732873
0.069992
0.0664108
0.0676752
0.064637
0.0613498
0.0577944
0.0597498
0.0567622
0.053536
0.0500671
0.0525171
0.0496217
0.0465124
0.0431778
0.0459476
0.043188
0.0402279
0.0370677
0.0399859
0.0373888
0.0346183
0.0316628
0.0345847
0.0321818
0.0296179
0.0268938
0.0296784
0.027485
0.025157
0.0226819
0.0252125
0.0232507
0.0211648
0.018955
0.0211169
0.0193938
0.017572
0.0156376
0.0173439
0.0158754
0.0143163
0.0126675
0.0138309
0.0126174
0.0113374
0.00997858
0.0105254
0.00958056
0.00857779
0.00751943
0.0074108
0.00672676
0.00600855
0.00524455
0.00439383
0.00398523
0.00354661
0.00308324
0.00144572
0.00131466
0.00117335
0.00102069
2367.94
1905.3
1519.11
1083.39
1106.08
1127.04
1161.13
1197.36
1247.57
1295.72
1345.8
1393.95
1437.94
1355.37
1473.19
1614.92
1585.34
1535.11
1603.43
646.32
669.886
855.279
1021.83
1086.62
1118.94
1152.16
1198.91
1250.17
1300.5
1351.26
1401.6
1448.19
1420.46
1290.57
1352.13
1478.32
1514.91
1591.33
541.04
564.772
599.415
743.768
955.926
1102.82
1165.62
1202.59
1244.53
1300.36
1356.72
1411.57
1462.21
1475
1210.4
1230.14
1382.26
1519.17
1426.7
426.474
519.823
580.508
609.005
631.219
706.748
819.751
1041.94
1254.08
1299.08
1364.11
1414.69
1475.32
1512.32
1314.98
1320.08
1460.11
1460.99
1338.58
87.2268
140.637
380.421
562.474
600.012
634.605
667.463
738.567
832.51
1071.95
1350.07
1465.72
1521.22
1549.91
1572.76
1418.64
1731.27
1614.59
1339.97
58.4147
60.1727
70.9187
84.1889
251.796
560.551
642.796
686.281
737.314
781.772
970.15
1273.52
1541.23
1566.83
1635.83
1656.56
2071.53
2038.94
1361.15
141.369
27.5154
35.5303
28.811
16.3371
63.2052
180.553
400.014
683.941
761.258
817.757
965.172
1203.35
1470.62
1713.58
2080.52
2201.36
2177.4
1361.02
12.744
16.0506
5.23388
4.01047
3.43236
1.94713
1.70671
20.7102
200.627
595.438
801.504
871.29
902.385
1023.85
1532.88
1922.87
2261.75
2039.16
1350.18
0.190198
0.362705
0.452785
0.601811
1.10862
1.48952
1.65512
1.74953
1.63885
167.287
690.87
870.656
916.138
945.931
1468.87
1761.66
2136.2
1600.63
1322.25
0.676556
0.982528
0.782338
0.581165
0.74287
1.21702
1.47412
1.64286
1.75853
8.50029
401.919
865.434
939.379
1088.11
1522.7
1641.8
1700.68
1598.57
1343.27
1.48318
1.72049
1.11229
0.494641
0.591094
0.89224
1.22749
1.4766
1.74262
1.70199
134.433
655.644
1032.36
1178.74
1092.67
1089.66
1524.57
1650.37
1205.57
1.89492
1.73559
1.4251
0.431746
0.482067
0.692212
0.920773
1.31003
1.52217
1.49466
29.4176
385.682
930.161
1290.44
1055.76
1021.48
1029.95
1162.3
1154.62
1.66558
1.99324
1.93631
0.867655
0.424931
0.588934
0.765244
1.02941
1.17452
1.13244
1.11926
144.52
871.903
1314.23
1110.74
1107.6
1016.68
992.072
1094.08
0.91913
1.45389
1.88221
1.48041
0.949306
0.535028
0.651118
0.722629
0.745042
1.32095
4.92918
17.5824
471.68
1424.62
1423.1
1170.84
1179.65
1236.15
1484.18
0.510503
0.529573
1.16978
2.20923
2.16922
1.72939
0.903334
0.589349
0.672184
7.17761
8.2303
14.4463
190.691
902.834
1643.98
1666.99
1341.13
1388.42
1658.34
0.476015
0.417409
0.318504
0.650974
2.04284
2.89106
2.91311
2.61093
2.86544
6.51416
8.20926
5.30556
2.38399
344.37
976.434
1736.35
1911.58
1904.95
1925.33
0.387752
0.39158
0.223817
0.253986
0.419461
1.20534
1.83969
1.68129
1.97716
0.70159
4.23853
2.83588
-0.431392
-0.580513
351.77
887.885
1610.23
1958.66
1988.05
0.160821
0.159133
0.187886
0.217937
0.197714
0.165246
0.136841
0.159493
0.397645
-0.21551
-0.288796
2.42072
-0.143915
-0.944265
-0.978931
44.3828
525.834
973.004
1192.43
0.155418
0.152601
0.14891
0.149549
0.144781
0.115678
0.0763815
0.0112271
-0.0904115
-0.217085
-0.338291
0.423069
-0.350145
-0.86072
-0.839483
-0.810824
-0.880376
-0.737145
33.5552
0.145026
0.140443
0.133901
0.124243
0.109493
0.0875335
0.0467901
-0.0139824
-0.0982124
-0.183157
-0.264765
-0.412097
-0.557307
-0.6752
-0.675756
-0.657646
-0.730215
-0.709785
-0.728733
0.132007
0.1257
0.117172
0.105035
0.0872158
0.063179
0.0243859
-0.0312439
-0.104994
-0.190835
-0.231326
-0.307195
-0.403272
-0.474448
-0.515258
-0.533733
-0.596316
-0.640788
-0.645927
0.118208
0.110359
0.100014
0.0858108
0.0662821
0.0414737
0.00439979
-0.0463792
-0.110837
-0.18971
-0.266699
-0.309663
-0.367311
-0.441501
-0.477933
-0.52507
-0.560126
-0.559331
-0.559249
0.104664
0.0954756
0.0836488
0.068086
0.0475767
0.0209227
-0.0137319
-0.0589025
-0.112631
-0.175265
-0.243278
-0.305289
-0.361859
-0.410202
-0.447556
-0.472726
-0.485703
-0.488632
-0.488236
0.091875
0.0816355
0.0689189
0.0526954
0.0320387
0.00598123
-0.0263641
-0.065638
-0.111584
-0.163271
-0.217706
-0.268439
-0.314716
-0.355257
-0.387439
-0.410332
-0.423528
-0.428932
-0.42194
0.080123
0.0693186
0.0561442
0.0398301
0.0197126
-0.00484774
-0.0343431
-0.0689702
-0.108376
-0.151499
-0.196165
-0.238379
-0.27714
-0.311404
-0.339223
-0.359627
-0.37254
-0.378609
-0.366248
0.0694724
0.0584908
0.0452516
0.0292698
0.010084
-0.0127098
-0.03936
-0.0698481
-0.103749
-0.140116
-0.177384
-0.212941
-0.245825
-0.275039
-0.29916
-0.317256
-0.329141
-0.334441
-0.3231
0.0599032
0.0489972
0.0360351
0.0206934
0.00267466
-0.0182548
-0.0421878
-0.0689988
-0.0982642
-0.129206
-0.160653
-0.19087
-0.218955
-0.244022
-0.264966
-0.280824
-0.291715
-0.280282
-0.289201
0.0513775
0.0407509
0.0282953
0.0137952
-0.00292851
-0.0219916
-0.0433904
-0.0669515
-0.0922867
-0.118772
-0.145524
-0.171407
-0.195481
-0.217058
-0.235249
-0.248691
-0.24191
-0.243688
-0.265052
0.0438405
0.0336487
0.0218536
0.00831722
-0.00705821
-0.0243096
-0.0433769
-0.0640703
-0.0860455
-0.108796
-0.131664
-0.154055
-0.17471
-0.193297
-0.209086
-0.2203
-0.208372
-0.213791
-0.237404
0.0372238
0.0275827
0.0165504
0.0040455
-0.00997585
-0.0255002
-0.0424372
-0.0605986
-0.0796815
-0.0992489
-0.118672
-0.138564
-0.15611
-0.172099
-0.185778
-0.195618
-0.198784
-0.192902
-0.211294
0.0314482
0.0224426
0.0122397
0.000798594
-0.0118903
-0.0257835
-0.0407783
-0.0566994
-0.0732935
-0.0902314
-0.107139
-0.123787
-0.139117
-0.152942
-0.164769
-0.174124
-0.180959
-0.184869
-0.187325
0.0264305
0.0181212
0.00878816
-0.00157973
-0.0129721
-0.0253299
-0.0385485
-0.0524701
-0.0668829
-0.0815265
-0.0961023
-0.110279
-0.123526
-0.13532
-0.145505
-0.153749
-0.15961
-0.163377
-0.164967
0.0220853
0.0145149
0.00607597
-0.00322514
-0.013364
-0.0242763
-0.0358618
-0.0479805
-0.0604539
-0.0730685
-0.0855779
-0.0976904
-0.109013
-0.119079
-0.127434
-0.134532
-0.139967
-0.143169
-0.144291
0.0183277
0.0115244
0.00399043
-0.00425774
-0.0131882
-0.0227366
-0.0328106
-0.0432875
-0.0540154
-0.0648166
-0.0754876
-0.0857906
-0.095435
-0.104065
-0.110978
-0.11684
-0.121228
-0.124112
-0.125425
0.015075
0.00905609
0.00242968
-0.00478416
-0.0125502
-0.0208075
-0.0294729
-0.0384401
-0.0475799
-0.0567433
-0.0657622
-0.0744451
-0.0825688
-0.0898731
-0.0959765
-0.100541
-0.104178
-0.10666
-0.10819
0.0122502
0.00702444
0.00130511
-0.00489649
-0.0115399
-0.0185694
-0.0259127
-0.0334789
-0.0411591
-0.048829
-0.0563503
-0.0635704
-0.0703163
-0.0763917
-0.0815832
-0.0856815
-0.0881739
-0.0903469
-0.0919681
0.00978343
0.0053697
0.000537628
-0.0046746
-0.0102323
-0.0160882
-0.0221812
-0.0284356
-0.0347615
-0.0410571
-0.0472107
-0.0531027
-0.0586006
-0.0635558
-0.0678242
-0.0713634
-0.0735234
-0.0752463
-0.0764272
0.00760918
0.00399633
5.24954e-05
-0.00418645
-0.00868908
-0.0134162
-0.0183181
-0.0233337
-0.0283913
-0.0334102
-0.038304
-0.0429806
-0.0473399
-0.0512724
-0.0546754
-0.0575158
-0.0594572
-0.0609737
-0.061618
0.00566998
0.00285617
-0.000207148
-0.00348759
-0.00696053
-0.0105958
-0.014355
-0.0181914
-0.02205
-0.0258711
-0.0295904
-0.0331394
-0.036446
-0.0394326
-0.0420291
-0.0442019
-0.045713
-0.0469161
-0.0473908
0.00391377
0.00189568
-0.000292277
-0.00262607
-0.00509001
-0.00766358
-0.0103194
-0.0130242
-0.0157387
-0.0184221
-0.0210301
-0.0235159
-0.0258319
-0.0279271
-0.0297579
-0.0312955
-0.0323709
-0.0332647
-0.0335805
0.00227814
0.00106181
-0.000249538
-0.0016447
-0.00311737
-0.00465702
-0.00624747
-0.00786406
-0.00947865
-0.0110647
-0.0125995
-0.0140594
-0.0154198
-0.0166545
-0.0177438
-0.0186645
-0.0193166
-0.0198911
-0.0200794
0.000752099
0.000346021
-9.13272e-05
-0.000549331
-0.00102615
-0.00151891
-0.00202469
-0.00254116
-0.0030658
-0.00359087
-0.00410635
-0.00460227
-0.00507059
-0.00550208
-0.00589225
-0.00625105
-0.00654154
-0.00684601
-0.00690436
)
;

boundaryField
{
    leftWall
    {
        type            fixedFluxPressure;
        gradient        uniform 0;
        value           nonuniform List<scalar> 
50
(
4904.88
4903.62
4905.65
4909.51
4777.74
3187.83
756.094
693.448
677.902
642.773
630.847
644.274
698.108
715.74
721.363
546.951
55.1794
0.15888
0.111682
0.115955
0.12364
0.131786
0.145611
0.159952
0.171416
0.175454
0.17265
0.166046
0.155218
0.141634
0.127621
0.114484
0.101139
0.09019
0.0820227
0.07621
0.0879692
0.124409
0.124784
0.121316
0.120369
0.119083
0.116777
0.0982564
0.0369572
0.0263907
0.0209457
0.0151571
0.00917805
0.00300856
)
;
    }
    rightWall
    {
        type            fixedFluxPressure;
        gradient        uniform 0;
        value           nonuniform List<scalar> 
50
(
3255.72
3207.65
2380.78
1550.39
1533.32
1558.14
1579.5
1613.6
1603.43
1591.33
1426.7
1338.58
1339.97
1361.15
1361.02
1350.18
1322.25
1343.27
1205.57
1154.62
1094.08
1484.18
1658.34
1925.33
1988.05
1192.43
33.5552
-0.728733
-0.645927
-0.559249
-0.488236
-0.42194
-0.366248
-0.3231
-0.289201
-0.265052
-0.237404
-0.211294
-0.187325
-0.164967
-0.144291
-0.125425
-0.10819
-0.0919681
-0.0764272
-0.061618
-0.0473908
-0.0335805
-0.0200794
-0.00690436
)
;
    }
    lowerWall
    {
        type            fixedFluxPressure;
        gradient        uniform 0;
        value           nonuniform List<scalar> 
62
(
4904.88
4895.3
4894.58
4901.33
4924.91
4968.16
5032.57
5107.35
5184.74
5260.41
5335.25
5414.37
5500.64
5598.15
5706.58
5821.54
5935.6
6042.49
6138.33
6220.78
6286.02
6327.74
6348.01
6348.01
6343.46
6334.68
6319.65
6296.23
6263.99
5562.55
2458.02
1957.54
2150.86
2942
2938.37
3127.86
2953.84
2463.86
2540.44
2444.87
1527.17
2327.75
2849.79
3127.86
3071.87
3079.91
3067.07
3120.1
3145.95
3010.95
2873.49
2845.34
2857.06
2867.4
2887.02
2918.46
3033.61
3232.25
3355.43
3385.06
3309.55
3255.72
)
;
    }
    atmosphere
    {
        type            totalPressure;
        rho             rho;
        psi             none;
        gamma           1;
        p0              uniform 0;
        value           nonuniform List<scalar> 
46
(
0
0
0
0
0
0
-1.9e-05
-0.000202523
-0.000515262
-0.000861671
-0.00116108
-0.0013632
-0.00144815
-0.00141898
-0.00129365
-0.00110053
-0.000866643
-0.000620297
-0.000386768
-0.000192329
-5.86095e-05
-1.96454e-06
0
0
0
0
0
0
0
0
0
0
0
0
0
0
0
0
0
0
0
0
0
0
0
0
)
;
    }
    defaultFaces
    {
        type            empty;
    }
}


// ************************************************************************* //
