/*--------------------------------*- C++ -*----------------------------------*\
| =========                 |                                                 |
| \\      /  F ield         | OpenFOAM: The Open Source CFD Toolbox           |
|  \\    /   O peration     | Version:  2312                                  |
|   \\  /    A nd           | Website:  www.openfoam.com                      |
|    \\/     M anipulation  |                                                 |
\*---------------------------------------------------------------------------*/
FoamFile
{
    version     2.0;
    format      ascii;
    arch        "LSB;label=32;scalar=64";
    class       volScalarField;
    location    "5.75";
    object      p;
}
// * * * * * * * * * * * * * * * * * * * * * * * * * * * * * * * * * * * * * //

dimensions      [1 -1 -2 0 0 0 0];

internalField   nonuniform List<scalar> 
2268
(
4690.27
4693.19
4699.07
4708.17
4720.82
4737.69
4759.92
4789.08
4827.05
4875.6
4935.87
5008.23
5092.54
5188.1
5293.89
5408.53
5529.27
5651.65
5770.15
5878.14
5967.82
6031.79
6065.82
3892.93
3895.9
3901.87
3910.95
3923.48
3940.12
3961.99
3990.72
4028.32
4076.63
4136.84
4209.26
4293.76
4389.62
4495.67
4610.91
4732.64
4856.2
4976.15
5085.85
5177.12
5242.16
5276.94
3095
3097.97
3103.89
3112.86
3125.12
3141.26
3162.39
3190.24
3227.01
3274.8
3334.9
3407.46
3492.37
3588.76
3695.4
3811.89
3935.6
4061.5
4184.34
4297.43
4391.86
4459.06
4495.44
2296.28
2299.17
2305.02
2313.86
2325.73
2341.12
2361.11
2387.53
2422.98
2469.97
2529.97
2602.78
2688.37
2785.62
2892.96
3011.34
3138.11
3267.5
3394.71
3513.11
3612.44
3682.96
3721.65
1501.55
1504.09
1509.55
1517.9
1528.68
1542.21
1559.67
1583.16
1615.97
1661.39
1721.49
1794.85
1881.7
1980.33
2088.2
2208.99
2339.88
2473.79
2606.98
2733.01
2839.35
2914.49
2956.01
927.026
927.773
929.739
933.192
937.745
943.673
952.031
963.839
980.381
1003.59
1036.97
1083.86
1143.4
1217.62
1308.76
1416.57
1542.47
1682.58
1825.69
1959.96
2073.15
2154.21
2199
718.776
718.231
717.349
716.608
716.179
716.473
718.228
721.256
724.586
728.109
733.672
745.08
762.236
786.554
822.457
869.643
933.855
1021.33
1125.12
1236.28
1345.07
1428.52
1469.94
659.795
659.15
658.215
657.47
656.965
657.029
658.607
661.587
664.94
667.917
671.202
673.59
676.261
679.05
681.96
685.483
691.792
705.887
732.212
773.191
826.902
875.528
898.142
3040.94
3027.29
3000.69
2951.54
2891.07
2827.96
2772.87
2729.44
2699.79
2679.4
2666.98
2656.65
2639.6
2611.07
2573.57
2536.11
2499.75
2470.99
2454.85
2267.12
2256.39
2233.17
2183.72
2121.79
2057.65
2002.7
1960.04
1932.98
1915.3
1904.8
1895.58
1877.01
1847.2
1808.57
1772.03
1741.49
1720.07
1710.73
1560.13
1548.6
1533.15
1493.56
1434.97
1377.37
1332
1300.11
1283.09
1275.25
1269.5
1259.16
1245.92
1224.27
1197.59
1174.47
1159.19
1150.12
1145.87
1107.08
1098.17
1090.41
1073.48
1045.83
1018.04
997.777
985.287
978.949
977.018
972.741
956.01
943.726
933.818
925.68
915.436
914.426
914.599
909.696
949.602
942.813
936.854
934.11
931.296
925.288
919.791
915.444
912.199
910.374
904.574
881.504
867.54
862.772
859.68
850.644
853.26
853.664
850.793
892.108
883.979
878.621
875.517
872.784
867.123
861.683
856.23
851.824
850.247
840.093
819.186
808.057
805.524
802.962
798.862
800.587
795.852
793.072
828.791
821.51
816.514
813.78
811.833
808.196
802.417
796.299
791.095
788.069
771.754
754.267
747.057
745.899
743.962
744.777
745.075
737.061
733.821
760.876
757.589
754.474
751.732
750.025
748.049
743.205
736.868
730.723
722.268
705.998
691.065
688.171
688.21
685.222
687.128
685.958
677.404
675.404
567.585
566.677
565.459
564.347
563.468
563.875
565.687
567.969
570.729
573.487
576.275
579.147
582.343
585.49
588.579
591.69
593.908
594.845
595.373
596.32
598.922
605.917
615.765
444.735
443.592
442.576
441.759
441.272
441.949
443.685
446.068
448.281
450.397
451.845
453.152
455.575
458.615
461.883
465.105
467.651
469.96
471.857
474.241
477.935
484.274
495.037
343.076
343.264
343.869
344.815
346.162
347.584
348.713
349.669
350.283
350.367
349.716
348.641
347.665
347.483
347.913
349.242
351.015
353.013
355.354
358.549
363.152
369.114
377.972
270.326
271.5
273.207
275.312
277.538
279.44
280.473
280.655
279.991
277.905
275.707
273.051
269.649
266.432
263.986
262.753
262.943
263.792
265.597
268.558
272.919
277.942
282.705
206.29
207.298
209.144
211.542
213.897
215.86
217.189
217.651
217.569
215.37
211.809
207.522
203.359
199.778
197.358
196.147
196.241
197.422
199.576
202.733
206.598
210.435
213.23
140.337
141.644
144.101
147.207
150.299
152.993
155.393
156.72
155.645
152.72
147.698
142.437
137.636
133.896
131.59
130.775
131.427
133.258
135.929
139.403
143.617
148.129
151.883
73.0778
74.8812
78.1184
82.1951
86.3752
90.3491
93.9455
96.092
94.9456
90.5937
84.0719
77.1294
71.1998
66.9428
64.6171
64.2135
65.5488
68.2219
71.6239
75.5799
80.1897
85.2778
90.6001
18.3536
19.635
22.121
25.5209
29.4099
33.2713
37.0436
39.4645
38.6906
34.1656
27.7955
21.9213
17.8315
15.3209
14.2256
14.3504
15.4478
17.4708
19.9443
22.5376
25.7352
29.322
33.6088
-1.20249
-1.13826
-0.827874
0.0629271
1.44513
3.14843
4.77606
5.74392
5.29971
3.13294
1.2321
0.0453681
-0.66602
-0.947801
-1.00588
-0.969723
-0.907567
-0.717013
-0.299583
0.185939
0.853681
1.72887
3.03814
-1.59314
-1.59557
-1.59671
-1.58464
-1.56728
-1.52535
-1.37755
-1.18663
-1.18944
-1.24016
-1.26285
-1.29416
-1.33304
-1.32464
-1.35816
-1.41172
-1.46461
-1.52473
-1.57357
-1.56472
-1.54877
-1.53145
-1.51315
-1.70821
-1.71728
-1.72589
-1.73213
-1.73314
-1.74384
-1.7524
-1.73727
-1.66434
-1.57686
-1.57939
-1.57293
-1.56696
-1.57832
-1.6004
-1.62158
-1.64546
-1.68435
-1.71157
-1.71594
-1.7075
-1.70084
-1.70482
-1.83011
-1.83649
-1.84473
-1.8552
-1.86856
-1.88802
-1.90379
-1.89272
-1.86911
-1.83266
-1.81759
-1.80324
-1.78769
-1.79307
-1.79341
-1.79358
-1.80752
-1.82974
-1.8458
-1.85082
-1.85358
-1.85931
-1.87151
-1.95873
-1.96308
-1.97002
-1.97977
-1.99126
-2.00478
-2.01703
-2.02083
-2.02043
-2.02279
-1.99772
-1.97655
-1.95693
-1.94443
-1.94218
-1.94714
-1.95942
-1.97366
-1.98378
-1.99164
-2.00144
-2.01421
-2.03006
-2.09295
-2.09591
-2.10143
-2.10946
-2.11925
-2.12951
-2.13805
-2.1425
-2.14243
-2.13838
-2.12507
-2.11242
-2.10088
-2.09429
-2.09309
-2.09629
-2.10388
-2.11314
-2.12155
-2.13043
-2.14119
-2.1544
-2.16972
-2.22665
-2.22894
-2.23316
-2.23923
-2.24654
-2.25416
-2.26081
-2.2651
-2.26614
-2.26356
-2.25622
-2.24831
-2.24152
-2.23744
-2.23635
-2.23829
-2.24325
-2.24995
-2.25719
-2.26399
-2.27195
-2.28346
-2.2971
-2.35903
-2.36076
-2.36399
-2.36852
-2.37386
-2.37941
-2.38439
-2.38799
-2.38958
-2.38864
-2.38478
-2.38004
-2.37585
-2.37326
-2.37267
-2.3743
-2.37809
-2.38325
-2.38877
-2.39416
-2.40083
-2.41074
-2.42239
-2.49035
-2.49166
-2.49411
-2.49744
-2.50132
-2.50533
-2.50898
-2.51174
-2.51321
-2.51309
-2.51132
-2.50886
-2.50654
-2.50525
-2.50533
-2.507
-2.51027
-2.51467
-2.51951
-2.52482
-2.53132
-2.5394
-2.54825
-2.62062
-2.62161
-2.62343
-2.62591
-2.62879
-2.63174
-2.63444
-2.63656
-2.63785
-2.63817
-2.6376
-2.63657
-2.63563
-2.63533
-2.63599
-2.63781
-2.64087
-2.64501
-2.64991
-2.65548
-2.66245
-2.66998
-2.67612
-2.75007
-2.75082
-2.7522
-2.75406
-2.75622
-2.75844
-2.7605
-2.76219
-2.76336
-2.76396
-2.76408
-2.76394
-2.76389
-2.76429
-2.76539
-2.76736
-2.77033
-2.7743
-2.77918
-2.78502
-2.79221
-2.7996
-2.80622
-2.87888
-2.87945
-2.88051
-2.88194
-2.88359
-2.8853
-2.88692
-2.88832
-2.88942
-2.8902
-2.89073
-2.89112
-2.89164
-2.8925
-2.8939
-2.89597
-2.89883
-2.90254
-2.9071
-2.91259
-2.9192
-2.92683
-2.9338
-3.0072
-3.00764
-3.00847
-3.00958
-3.01087
-3.01222
-3.01354
-3.01474
-3.01579
-3.01668
-3.01745
-3.01818
-3.01905
-3.02019
-3.02175
-3.02383
-3.02654
-3.02991
-3.03399
-3.03881
-3.04439
-3.05054
-3.05681
-3.13513
-3.13548
-3.13614
-3.13702
-3.13805
-3.13915
-3.14026
-3.14132
-3.14233
-3.14328
-3.14418
-3.14511
-3.14617
-3.14747
-3.1491
-3.15113
-3.15365
-3.15667
-3.16024
-3.16435
-3.16895
-3.17386
-3.17875
-3.26275
-3.26304
-3.26357
-3.26429
-3.26513
-3.26605
-3.267
-3.26797
-3.26893
-3.2699
-3.27087
-3.27191
-3.27307
-3.27443
-3.27605
-3.278
-3.28031
-3.28301
-3.2861
-3.28958
-3.29339
-3.29738
-3.30133
-3.39013
-3.39037
-3.39081
-3.3914
-3.39211
-3.3929
-3.39374
-3.39462
-3.39555
-3.3965
-3.3975
-3.39858
-3.39977
-3.40114
-3.40271
-3.40454
-3.40665
-3.40904
-3.41173
-3.41468
-3.41785
-3.42113
-3.42438
-3.5173
-3.51751
-3.51788
-3.51839
-3.51899
-3.51968
-3.52043
-3.52125
-3.52213
-3.52306
-3.52405
-3.52513
-3.52631
-3.52764
-3.52914
-3.53084
-3.53274
-3.53487
-3.5372
-3.53971
-3.54237
-3.54509
-3.54777
-3.64431
-3.64449
-3.64481
-3.64525
-3.64578
-3.64639
-3.64708
-3.64783
-3.64867
-3.64956
-3.65052
-3.65157
-3.65271
-3.65398
-3.65538
-3.65694
-3.65866
-3.66054
-3.66257
-3.66472
-3.66697
-3.66924
-3.67148
-3.77118
-3.77134
-3.77162
-3.772
-3.77247
-3.77303
-3.77366
-3.77436
-3.77514
-3.77599
-3.77691
-3.77791
-3.779
-3.78018
-3.78148
-3.7829
-3.78444
-3.7861
-3.78787
-3.78973
-3.79164
-3.79356
-3.79543
-3.89793
-3.89808
-3.89832
-3.89866
-3.89909
-3.8996
-3.90017
-3.90083
-3.90155
-3.90235
-3.90322
-3.90416
-3.90517
-3.90627
-3.90746
-3.90875
-3.91012
-3.91159
-3.91314
-3.91474
-3.91637
-3.918
-3.91958
-4.02459
-4.02473
-4.02494
-4.02525
-4.02564
-4.0261
-4.02663
-4.02723
-4.02791
-4.02865
-4.02945
-4.03033
-4.03127
-4.03227
-4.03335
-4.03451
-4.03573
-4.03703
-4.03837
-4.03976
-4.04116
-4.04255
-4.04389
-4.15118
-4.15131
-4.15151
-4.15178
-4.15214
-4.15256
-4.15304
-4.15359
-4.1542
-4.15488
-4.15562
-4.15642
-4.15728
-4.1582
-4.15917
-4.1602
-4.16129
-4.16242
-4.1636
-4.1648
-4.166
-4.16719
-4.16834
-4.27772
-4.27784
-4.27803
-4.27829
-4.27862
-4.27898
-4.27941
-4.2799
-4.28045
-4.28106
-4.28173
-4.28246
-4.28324
-4.28406
-4.28493
-4.28585
-4.28681
-4.2878
-4.28882
-4.28986
-4.29089
-4.29191
-4.29289
-4.40422
-4.40434
-4.40452
-4.40476
-4.40505
-4.40536
-4.40573
-4.40616
-4.40665
-4.40719
-4.40779
-4.40844
-4.40913
-4.40987
-4.41064
-4.41145
-4.41229
-4.41316
-4.41404
-4.41494
-4.41583
-4.4167
-4.41754
-4.5307
-4.53081
-4.53097
-4.53121
-4.53144
-4.53171
-4.53202
-4.53238
-4.5328
-4.53328
-4.5338
-4.53437
-4.53498
-4.53563
-4.53631
-4.53702
-4.53775
-4.5385
-4.53927
-4.54004
-4.5408
-4.54155
-4.54227
-4.65714
-4.65726
-4.65741
-4.65761
-4.65781
-4.65802
-4.65827
-4.65857
-4.65891
-4.65931
-4.65977
-4.66025
-4.66078
-4.66135
-4.66195
-4.66256
-4.6632
-4.66384
-4.6645
-4.66516
-4.66581
-4.66645
-4.66707
-4.78356
-4.78368
-4.78382
-4.78399
-4.78415
-4.78429
-4.78447
-4.7847
-4.78498
-4.78531
-4.78568
-4.7861
-4.78655
-4.78704
-4.78755
-4.78808
-4.78862
-4.78918
-4.78973
-4.79029
-4.79085
-4.79139
-4.79192
-4.90994
-4.91005
-4.91018
-4.91033
-4.91044
-4.91052
-4.91064
-4.91079
-4.911
-4.91126
-4.91157
-4.91191
-4.91229
-4.9127
-4.91313
-4.91358
-4.91404
-4.9145
-4.91497
-4.91544
-4.91591
-4.91637
-4.91682
-5.03626
-5.03637
-5.03647
-5.03658
-5.03665
-5.03667
-5.03672
-5.03682
-5.03697
-5.03717
-5.03741
-5.03769
-5.038
-5.03833
-5.03869
-5.03906
-5.03944
-5.03983
-5.04022
-5.0406
-5.04099
-5.04137
-5.04175
-5.1625
-5.1626
-5.16268
-5.16275
-5.16276
-5.16274
-5.16274
-5.16279
-5.16289
-5.16304
-5.16323
-5.16344
-5.16368
-5.16395
-5.16423
-5.16453
-5.16483
-5.16515
-5.16546
-5.16577
-5.16608
-5.16639
-5.1667
-5.28867
-5.28875
-5.28881
-5.28882
-5.28877
-5.28871
-5.28869
-5.2887
-5.28877
-5.28888
-5.28901
-5.28916
-5.28934
-5.28954
-5.28976
-5.28999
-5.29022
-5.29046
-5.2907
-5.29094
-5.29118
-5.29142
-5.29167
-5.41476
-5.41482
-5.4149
-5.41478
-5.41468
-5.41459
-5.41457
-5.41457
-5.41461
-5.41468
-5.41477
-5.41486
-5.41499
-5.41513
-5.41528
-5.41544
-5.4156
-5.41577
-5.41594
-5.41611
-5.41628
-5.41646
-5.41665
-5.54077
-5.54085
-5.54101
-5.54066
-5.54052
-5.5404
-5.54037
-5.54038
-5.54041
-5.54046
-5.54047
-5.54053
-5.54061
-5.5407
-5.54079
-5.54088
-5.54098
-5.54108
-5.54118
-5.54128
-5.54139
-5.5415
-5.54162
-5.6667
-5.66696
-5.66726
-5.66654
-5.66634
-5.66618
-5.66615
-5.66613
-5.66613
-5.66612
-5.66615
-5.66619
-5.66622
-5.66626
-5.66629
-5.66632
-5.66635
-5.66639
-5.66642
-5.66646
-5.6665
-5.66655
-5.66661
617.678
615.4
609.426
610.206
504.971
510.892
516.516
522.839
387.89
394.25
400.678
407.436
287.953
292.15
296.463
301.139
214.924
216.475
218.613
221.529
154.491
156.684
159.032
161.338
94.8944
97.7559
100.49
103.159
37.3803
39.9022
42.4247
45.1049
4.04826
4.7497
5.72522
7.10139
-1.48883
-1.46977
-1.45597
-1.46476
-1.72748
-1.75553
-1.79149
-1.8307
-1.89258
-1.90986
-1.92969
-1.95464
-2.04858
-2.06209
-2.07665
-2.09372
-2.18357
-2.19336
-2.20431
-2.21655
-2.30779
-2.3152
-2.323
-2.33127
-2.43079
-2.43637
-2.4422
-2.44835
-2.55511
-2.55931
-2.56333
-2.568
-2.68203
-2.68571
-2.68922
-2.6926
-2.81118
-2.81453
-2.81766
-2.82031
-2.93838
-2.94146
-2.94445
-2.94687
-3.06158
-3.06427
-3.06642
-3.06848
-3.18228
-3.18447
-3.18646
-3.18828
-3.30414
-3.30588
-3.30752
-3.30906
-3.4267
-3.42816
-3.42949
-3.43076
-3.54969
-3.55088
-3.55199
-3.55305
-3.67307
-3.67406
-3.67498
-3.67586
-3.79676
-3.79758
-3.79836
-3.79909
-3.9207
-3.92138
-3.92203
-3.92265
-4.04483
-4.04541
-4.04596
-4.04649
-4.16913
-4.16962
-4.17009
-4.17054
-4.29357
-4.29399
-4.29439
-4.29478
-4.41812
-4.41848
-4.41883
-4.41916
-4.54277
-4.54308
-4.54338
-4.54366
-4.66749
-4.66776
-4.66802
-4.66827
-4.79229
-4.79252
-4.79274
-4.79295
-4.91713
-4.91732
-4.91752
-4.9177
-5.04201
-5.04218
-5.04234
-5.0425
-5.16692
-5.16706
-5.1672
-5.16733
-5.29185
-5.29196
-5.29208
-5.29219
-5.41679
-5.41688
-5.41697
-5.41707
-5.54173
-5.5418
-5.54187
-5.54195
-5.66667
-5.66672
-5.66677
-5.66683
647.661
661.905
661.563
658.502
655.61
654.483
651.159
644.37
634.268
621.88
611.211
603.016
600.364
598.197
596.109
595.609
592.44
584.447
585.628
534.339
540.045
538.981
534.805
531.298
529.903
526.083
517.997
509.142
500.164
489.803
485.694
481.092
476.864
473.197
469.358
463.61
459.536
464.354
415.945
417.624
418.543
417.155
414.571
410.678
409.308
406.714
402.355
393.362
382.04
373.597
365.978
359.637
352.948
345.469
338.547
336.836
341.57
307.373
311.595
316.326
319.376
318.886
316.338
315.742
315.699
312.688
305.824
297.144
287.398
277.596
267.936
257.228
247.684
239.368
233.559
232.958
226.947
234.573
240.99
245.79
248.241
249.057
246.471
243.223
240.392
237.304
231.062
221.698
211.104
198.498
184.961
173.206
162.889
154.781
150.222
165.611
172.316
178.773
184.085
187.79
189.073
187.142
184.113
180.617
176.05
168.959
158.882
146.241
131.642
116.064
101.872
89.6629
80.0024
74.3434
107.67
113.983
120.519
125.882
129.514
130.819
129.459
126.43
122.147
116.658
109.015
98.1324
83.3669
66.2845
48.7393
36.2163
26.6016
20.1578
17.3933
50.0788
57.3755
64.2194
68.9102
71.7537
73.5824
73.3596
71.0147
66.858
60.7522
52.281
41.5866
29.4935
17.5123
8.30148
3.51716
1.37709
0.632534
0.488433
10.1053
15.454
20.1724
23.0917
24.4445
25.4701
25.7483
25.089
23.2025
19.4635
13.3896
6.95074
2.45999
0.571275
-0.628783
-1.18997
-1.19316
-1.18771
-1.18878
-1.4651
-0.964736
-0.0340378
0.663026
0.966025
0.529031
0.369136
0.60847
0.186977
-0.331369
-0.656692
-1.10141
-1.42003
-1.50221
-1.47325
-1.42273
-1.37453
-1.3548
-1.34518
-1.89787
-1.94607
-1.95702
-1.96273
-2.01575
-2.04124
-2.0572
-2.05097
-2.00515
-1.95327
-1.8814
-1.80568
-1.72536
-1.67819
-1.63773
-1.58521
-1.55008
-1.53078
-1.52107
-2.00258
-2.05466
-2.10618
-2.1413
-2.14117
-2.13635
-2.14706
-2.14255
-2.09995
-2.04601
-2.00523
-1.95054
-1.88809
-1.82128
-1.79608
-1.75418
-1.72161
-1.70251
-1.69243
-2.12222
-2.15462
-2.18451
-2.20552
-2.21455
-2.21885
-2.22454
-2.21966
-2.18833
-2.14322
-2.10175
-2.06483
-2.01874
-1.96171
-1.93244
-1.90732
-1.88287
-1.86652
-1.85513
-2.23531
-2.2542
-2.26949
-2.28169
-2.29109
-2.29712
-2.29811
-2.2898
-2.26826
-2.23725
-2.20511
-2.17391
-2.1398
-2.10393
-2.07947
-2.0601
-2.04066
-2.02347
-2.01345
-2.34427
-2.35795
-2.36839
-2.37584
-2.38178
-2.38521
-2.38466
-2.37843
-2.36381
-2.3421
-2.31682
-2.29086
-2.26552
-2.24284
-2.22491
-2.20886
-2.19152
-2.17631
-2.16917
-2.45825
-2.46905
-2.47704
-2.48186
-2.48503
-2.48657
-2.48566
-2.4814
-2.47113
-2.45456
-2.4346
-2.41337
-2.39496
-2.37925
-2.36487
-2.34995
-2.33316
-2.32495
-2.32022
-2.57556
-2.58465
-2.5919
-2.59556
-2.59797
-2.59881
-2.59732
-2.59325
-2.58447
-2.5715
-2.5561
-2.53997
-2.52623
-2.51319
-2.49897
-2.48592
-2.47463
-2.46987
-2.46587
-2.69812
-2.70551
-2.71114
-2.71472
-2.71646
-2.71637
-2.71444
-2.70978
-2.70156
-2.69091
-2.67892
-2.66805
-2.65699
-2.64555
-2.63299
-2.62251
-2.61464
-2.6099
-2.60626
-2.82434
-2.82953
-2.8332
-2.83587
-2.83721
-2.83666
-2.83385
-2.8292
-2.82175
-2.8126
-2.80289
-2.79402
-2.78543
-2.77631
-2.76728
-2.75873
-2.75146
-2.74694
-2.74307
-2.9501
-2.95317
-2.95567
-2.95774
-2.95876
-2.95764
-2.95437
-2.94964
-2.94379
-2.93685
-2.92878
-2.9206
-2.91268
-2.90508
-2.89777
-2.89041
-2.88446
-2.88042
-2.87762
-3.07163
-3.07442
-3.07664
-3.07847
-3.07902
-3.07766
-3.0748
-3.07034
-3.06568
-3.06043
-3.05454
-3.04791
-3.04072
-3.03398
-3.02727
-3.021
-3.01633
-3.01308
-3.01083
-3.19116
-3.19423
-3.19622
-3.19769
-3.19818
-3.19737
-3.19505
-3.19127
-3.18717
-3.1828
-3.17834
-3.17322
-3.16773
-3.16216
-3.15655
-3.15091
-3.1472
-3.14459
-3.14271
-3.31156
-3.31427
-3.31609
-3.31723
-3.31759
-3.31691
-3.31514
-3.31238
-3.30909
-3.30545
-3.30162
-3.29746
-3.29313
-3.28882
-3.28453
-3.28029
-3.27699
-3.27474
-3.27365
-3.4328
-3.43507
-3.43666
-3.43758
-3.43782
-3.43728
-3.43597
-3.43396
-3.43144
-3.42855
-3.4254
-3.42199
-3.41843
-3.41485
-3.41141
-3.40826
-3.40544
-3.40359
-3.40286
-3.55472
-3.5566
-3.55796
-3.55875
-3.55896
-3.55858
-3.55764
-3.55617
-3.55426
-3.55202
-3.5495
-3.54675
-3.54384
-3.54088
-3.53799
-3.53533
-3.53307
-3.53142
-3.5308
-3.67725
-3.67881
-3.67997
-3.68066
-3.68089
-3.68066
-3.68
-3.67893
-3.6775
-3.67578
-3.6738
-3.67163
-3.6693
-3.66688
-3.66447
-3.66224
-3.66033
-3.65895
-3.6583
-3.80025
-3.80157
-3.80256
-3.80318
-3.80344
-3.80334
-3.80289
-3.80213
-3.80107
-3.79977
-3.79825
-3.79656
-3.79473
-3.79278
-3.79079
-3.78891
-3.78729
-3.78608
-3.78548
-3.92364
-3.92476
-3.92561
-3.92618
-3.92646
-3.92646
-3.92619
-3.92567
-3.92491
-3.92395
-3.92281
-3.92153
-3.9201
-3.91855
-3.91693
-3.91536
-3.91398
-3.91293
-3.91242
-4.04732
-4.04829
-4.04904
-4.04956
-4.04986
-4.04994
-4.0498
-4.04947
-4.04895
-4.04827
-4.04744
-4.04649
-4.0454
-4.04417
-4.04286
-4.04157
-4.04041
-4.0395
-4.03908
-4.17126
-4.17209
-4.17275
-4.17324
-4.17354
-4.17368
-4.17365
-4.17347
-4.17314
-4.17268
-4.17211
-4.17142
-4.1706
-4.16964
-4.16858
-4.16752
-4.16656
-4.16578
-4.16542
-4.29539
-4.29611
-4.2967
-4.29715
-4.29746
-4.29764
-4.29769
-4.29762
-4.29744
-4.29715
-4.29676
-4.29627
-4.29567
-4.29492
-4.29407
-4.2932
-4.29241
-4.29179
-4.29147
-4.41969
-4.42032
-4.42084
-4.42126
-4.42156
-4.42177
-4.42187
-4.42189
-4.4218
-4.42163
-4.42137
-4.42103
-4.42058
-4.42
-4.41932
-4.41862
-4.41798
-4.41751
-4.41726
-4.54412
-4.54467
-4.54514
-4.54552
-4.54581
-4.54603
-4.54617
-4.54623
-4.54621
-4.5461
-4.54593
-4.54568
-4.54534
-4.54488
-4.54434
-4.5438
-4.54333
-4.54299
-4.54283
-4.66867
-4.66915
-4.66956
-4.6699
-4.67018
-4.6704
-4.67055
-4.67063
-4.67064
-4.67058
-4.67044
-4.67023
-4.66996
-4.6696
-4.66918
-4.66881
-4.66852
-4.66835
-4.66827
-4.7933
-4.79372
-4.79409
-4.79439
-4.79465
-4.79485
-4.795
-4.7951
-4.79512
-4.79507
-4.79493
-4.79473
-4.79451
-4.79423
-4.79395
-4.79375
-4.79365
-4.79366
-4.79365
-4.918
-4.91837
-4.9187
-4.91897
-4.9192
-4.91939
-4.91953
-4.91962
-4.91965
-4.91961
-4.9195
-4.91929
-4.91907
-4.91885
-4.91869
-4.91868
-4.91877
-4.91896
-4.91902
-5.04276
-5.04309
-5.04337
-5.04362
-5.04382
-5.04398
-5.04411
-5.04419
-5.04423
-5.04421
-5.04415
-5.04401
-5.04376
-5.04352
-5.04344
-5.04362
-5.04391
-5.04426
-5.04442
-5.16756
-5.16785
-5.1681
-5.16831
-5.16848
-5.16863
-5.16874
-5.16881
-5.16885
-5.16886
-5.16883
-5.16878
-5.16857
-5.16833
-5.16819
-5.16855
-5.1691
-5.16965
-5.16997
-5.29238
-5.29263
-5.29285
-5.29303
-5.29319
-5.29331
-5.29341
-5.29347
-5.29351
-5.29353
-5.29352
-5.29351
-5.29343
-5.29331
-5.29303
-5.29353
-5.29445
-5.29523
-5.29578
-5.41722
-5.41743
-5.41762
-5.41778
-5.41792
-5.41802
-5.41811
-5.41817
-5.4182
-5.41822
-5.41823
-5.41824
-5.41824
-5.41831
-5.41808
-5.41875
-5.42014
-5.42109
-5.42206
-5.54207
-5.54225
-5.5424
-5.54254
-5.54266
-5.54275
-5.54282
-5.54287
-5.54291
-5.54294
-5.54296
-5.54302
-5.54311
-5.54332
-5.54346
-5.54432
-5.54666
-5.54718
-5.54912
-5.66692
-5.66706
-5.66719
-5.6673
-5.6674
-5.66748
-5.66753
-5.66757
-5.6676
-5.66763
-5.66767
-5.66777
-5.66796
-5.66842
-5.66974
-5.67129
-5.67484
-5.67304
-5.67717
)
;

boundaryField
{
    leftWall
    {
        type            calculated;
        value           nonuniform List<scalar> 
50
(
4690.27
3892.93
3095
2296.28
1501.55
927.026
718.776
659.795
567.585
444.735
343.076
270.326
206.29
140.337
73.0778
18.3536
-1.20249
-1.59314
-1.70821
-1.83011
-1.95873
-2.09295
-2.22665
-2.35903
-2.49035
-2.62062
-2.75007
-2.87888
-3.0072
-3.13513
-3.26275
-3.39013
-3.5173
-3.64431
-3.77118
-3.89793
-4.02459
-4.15118
-4.27772
-4.40422
-4.5307
-4.65714
-4.78356
-4.90994
-5.03626
-5.1625
-5.28867
-5.41476
-5.54077
-5.6667
)
;
    }
    rightWall
    {
        type            calculated;
        value           nonuniform List<scalar> 
50
(
2454.85
1710.73
1145.87
909.696
850.793
793.072
733.821
675.404
585.628
464.354
341.57
232.958
150.222
74.3434
17.3933
0.488433
-1.18878
-1.34518
-1.52107
-1.69243
-1.85513
-2.01345
-2.16917
-2.32022
-2.46587
-2.60626
-2.74307
-2.87762
-3.01083
-3.14271
-3.27365
-3.40286
-3.5308
-3.6583
-3.78548
-3.91242
-4.03908
-4.16542
-4.29147
-4.41726
-4.54283
-4.66827
-4.79365
-4.91902
-5.04442
-5.16997
-5.29578
-5.42206
-5.54912
-5.67717
)
;
    }
    lowerWall
    {
        type            calculated;
        value           nonuniform List<scalar> 
62
(
5088.42
5091.34
5097.22
5106.32
5118.97
5135.84
5158.07
5187.22
5225.2
5273.75
5334.02
5406.38
5490.69
5586.25
5692.04
5806.68
5927.42
6049.8
6168.3
6276.29
6365.96
6429.93
6463.95
6065.82
5276.94
4495.44
3721.65
2956.01
2199
1469.94
898.142
680.013
677.343
671.679
674.509
3040.94
2267.12
1560.13
1107.08
949.602
892.108
828.791
760.876
3426.2
3412.6
3385.53
3336.03
3275.32
3212.55
3157.71
3114.29
3084.64
3064.19
3051.6
3041.34
3025.45
2996.94
2959.43
2921.97
2885.58
2856.82
2840.61
)
;
    }
    atmosphere
    {
        type            calculated;
        value           nonuniform List<scalar> 
46
(
-5.72928
-5.73027
-5.73135
-5.72938
-5.72906
-5.72905
-5.72904
-5.72904
-5.72904
-5.72904
-5.72904
-5.72904
-5.72904
-5.72904
-5.72904
-5.72904
-5.72904
-5.72904
-5.72904
-5.72904
-5.72904
-5.72904
-5.72906
-5.72911
-5.72915
-5.7292
-5.72925
-5.72933
-5.72946
-5.72957
-5.72968
-5.72976
-5.72983
-5.72987
-5.7299
-5.72992
-5.72993
-5.72995
-5.73
-5.7301
-5.73043
-5.73101
-5.73296
-5.74417
-5.73515
-5.74447
)
;
    }
    defaultFaces
    {
        type            empty;
    }
}


// ************************************************************************* //
