/*--------------------------------*- C++ -*----------------------------------*\
| =========                 |                                                 |
| \\      /  F ield         | OpenFOAM: The Open Source CFD Toolbox           |
|  \\    /   O peration     | Version:  2312                                  |
|   \\  /    A nd           | Website:  www.openfoam.com                      |
|    \\/     M anipulation  |                                                 |
\*---------------------------------------------------------------------------*/
FoamFile
{
    version     2.0;
    format      ascii;
    arch        "LSB;label=32;scalar=64";
    class       volScalarField;
    location    "5.75";
    object      p_rgh;
}
// * * * * * * * * * * * * * * * * * * * * * * * * * * * * * * * * * * * * * //

dimensions      [1 -1 -2 0 0 0 0];

internalField   nonuniform List<scalar> 
2268
(
5088.42
5091.34
5097.22
5106.32
5118.97
5135.84
5158.07
5187.22
5225.2
5273.75
5334.02
5406.38
5490.69
5586.25
5692.04
5806.68
5927.42
6049.8
6168.3
6276.29
6365.96
6429.93
6463.95
5087.38
5090.35
5096.32
5105.4
5117.93
5134.57
5156.44
5185.17
5222.77
5271.07
5331.29
5403.71
5488.21
5584.07
5690.12
5805.36
5927.08
6050.65
6170.6
6280.3
6371.56
6436.57
6471.36
5085.75
5088.72
5094.64
5103.61
5115.87
5132
5153.14
5180.98
5217.75
5265.55
5325.65
5398.21
5483.12
5579.51
5686.15
5802.64
5926.35
6052.25
6175.09
6288.18
6382.61
6449.8
6486.19
5083.33
5086.22
5092.07
5100.91
5112.78
5128.16
5148.16
5174.58
5210.02
5257.01
5317.02
5389.83
5475.42
5572.67
5680.01
5798.38
5925.16
6054.54
6181.76
6300.16
6399.49
6470.01
6508.7
5041.49
5045.65
5053.3
5064.43
5080.12
5100.58
5125.62
5156.14
5194.97
5244.22
5304.41
5377.6
5464.14
5563.02
5671.26
5792.21
5923.2
6057.13
6190.33
6316.36
6422.7
6497.84
6539.36
2887.71
2901.84
2935.28
2985.36
3044.85
3112.82
3191.82
3295.06
3452.22
3690.45
4007.02
4328.01
4677.61
5037.12
5370.89
5659.67
5906.1
6036.35
6151.9
6308.6
6452.8
6533.86
6576.58
1100.7
1100.31
1099.41
1098.42
1097.8
1098.17
1100.07
1103.44
1106.94
1110.56
1138.94
1277.85
1489.09
1801
2255.21
2867.68
3638.84
4500.24
5275.23
5834.45
6120.3
6261
6395.32
1101
1100.35
1099.51
1098.99
1098.08
1098.27
1099.91
1102.91
1106.25
1109.22
1112.49
1114.92
1117.65
1120.51
1123.52
1125.91
1190.37
1434.04
1915.33
2624.74
3528.82
4236.58
4474.3
3426.2
3412.6
3385.53
3336.03
3275.32
3212.55
3157.71
3114.29
3084.64
3064.19
3051.6
3041.34
3025.45
2996.94
2959.43
2921.97
2885.58
2856.82
2840.61
3415.36
3415.12
3391.96
3342.14
3276.17
3207.37
3149.54
3103.75
3071.47
3046.73
3035.23
3029.4
3012.88
2985.69
2945.51
2904.9
2851.26
2807.22
2775.97
3106.2
3143.76
3128.34
3047.75
2944.73
2843.68
2751.36
2668.48
2620.89
2579.98
2560.79
2563.82
2525.32
2455.25
2355.79
2268.2
2204.81
2166.28
2167.23
1980.26
1963.6
1973.28
1859.29
1652.74
1466.66
1338.92
1263.86
1232.49
1233.93
1233.24
1261.98
1279.26
1250.66
1205.78
1190.87
1159.2
1135.18
1128.49
1180.15
1198.13
1190.39
1190.11
1187.16
1178.27
1172.37
1172.75
1175.1
1173.52
1167.76
1144.55
1122.13
1104.91
1099.06
1061.51
1088.81
1109.41
1089.91
1205.5
1211.88
1216.57
1216.8
1202.39
1185.68
1181.14
1180.47
1177.37
1177.74
1200.52
1148.55
1128.79
1141.7
1132.12
1068.26
1089.53
1115.64
1094.2
1209.49
1232.14
1226.7
1224
1218.5
1190.79
1184.56
1180.62
1175.81
1201.79
1230.65
1160.63
1131.03
1125.28
1118.86
1088.81
1123.97
1118.43
1080.98
1216.45
1219.52
1206.81
1218.33
1221.09
1206.21
1183.52
1177.4
1175.77
1255.8
1192.18
1150.9
1118.59
1114.64
1112.23
1120.35
1125.74
1117.49
1072.97
1099.73
1099.86
1098.96
1099.9
1100.57
1095.79
1096.56
1100.82
1103.15
1104.83
1108.28
1112.69
1115.82
1118.98
1122.07
1125.01
1126.84
1127.56
1127.37
1126.94
1136.5
1170.34
1190.6
1085.51
1080.58
1067.33
1055.03
1037.28
1034.78
1039.05
1051.83
1052.89
1050.47
1057.03
1078.92
1101.17
1111.26
1118.73
1121.46
1121.95
1121.15
1124.33
1128.97
1133.35
1147.91
1160.03
865.388
843.135
823.743
806.862
796.167
784.688
793.962
802.936
829.479
853.691
857.316
853.385
885.272
926.33
967.664
1004.97
1016.71
1045.37
1061.2
1070.56
1074.66
1086.89
1154.6
722.672
726.926
726.457
719.827
722.962
733.277
735.703
747.338
725.433
710.651
711.92
724.557
725.376
733.182
732.845
741.36
751.274
756
761.074
767.509
785.151
809.908
839.99
724.443
725.286
726.635
727.786
730.225
732.943
727.487
710.865
724.45
715.099
729.558
725.274
721.373
716.762
713.839
713.416
714.441
715.575
718.021
722.213
727.854
738.222
757.349
721.808
722.731
724.4
727.02
730.096
732.673
731.763
721.482
728.249
733.808
728.369
722.969
717.961
713.766
711.454
710.66
711.49
713.309
715.985
722.113
730.956
737.342
733.114
720.498
720.598
721.666
725.205
728.889
735.621
743.093
741.595
740.146
736.285
730.579
724.713
716.789
710.29
707.201
707.522
710.764
714.598
716.317
720.791
729.137
753.981
771.595
451.109
478.733
523.119
561.115
589.762
607.593
638.301
659.951
651.751
613.06
548.117
474.081
415.799
374.05
351.861
350.811
369.534
404.994
442.189
483.284
531.417
581.995
628.162
6.78964
8.02895
15.9353
39.3111
74.4402
114.168
145.744
161.056
153.551
101.124
54.226
26.6671
11.6297
3.82998
2.75365
5.12351
9.18772
16.0686
29.1268
40.8354
57.3052
79.7033
113.846
0.0671806
0.198604
0.338148
0.7438
0.271135
2.08784
8.09685
11.5121
7.04549
2.14779
2.31592
1.70375
0.466086
0.683286
0.642393
0.251268
0.226392
0.53873
0.446463
0.214731
0.268023
0.374938
0.461441
0.0773163
0.0682421
0.0596725
0.0534533
0.0524192
0.0417032
0.0358545
0.0495179
0.121723
0.209216
0.206684
0.213042
0.23425
0.227571
0.206518
0.185826
0.164697
0.126265
0.0876082
0.0996768
0.10065
0.12033
0.112639
0.0806978
0.0745341
0.0669434
0.0576068
0.0446746
0.0261016
0.0104073
0.0195549
0.0426275
0.0799079
0.0956445
0.110591
0.135278
0.140312
0.141201
0.146891
0.144027
0.121436
0.0751675
0.0885888
0.223466
0.231973
0.183235
0.077511
0.0736188
0.0684186
0.0588553
0.0474348
0.0329693
0.0207009
0.0161238
0.0168111
0.0153857
0.0417944
0.0629983
0.0867962
0.103226
0.0999932
0.11237
0.111404
0.0816623
0.0879888
0.174386
0.267179
0.227038
0.154045
0.0684969
0.0657514
0.0614361
0.0536058
0.0430728
0.0327909
0.0240143
0.0192209
0.019432
0.0240624
0.0383728
0.0503499
0.0620004
0.0683133
0.0694775
0.0725919
0.0730747
0.0651162
0.163215
0.164851
0.0725254
0.0229297
-0.0053756
0.059912
0.0578289
0.0542151
0.0482464
0.040409
0.0327006
0.025947
0.0214947
0.0204454
0.0231254
0.0306945
0.0383258
0.0451122
0.0491497
0.0503888
0.0492222
0.0501237
0.0624855
0.0687966
0.0259827
0.0165909
0.00514272
-0.00699649
0.0525501
0.0509395
0.0478504
0.0433162
0.0378848
0.0322799
0.0272536
0.0235688
0.0219469
0.0228671
0.0267556
0.0314614
0.0356427
0.0382402
0.0388521
0.0374274
0.0393943
0.0422
0.0257839
0.0188685
0.0287183
0.0298192
-0.00765714
0.0463284
0.0450546
0.0426318
0.0393058
0.0354338
0.0314122
0.0277338
0.0249511
0.0234573
0.023568
0.0253377
0.0277878
0.0301139
0.0314039
0.031333
0.0298565
0.0283749
0.0231552
0.0180481
0.0147368
0.0853022
0.117798
-0.00801504
0.0412284
0.0402467
0.0384341
0.0359675
0.0330965
0.0301306
0.0274173
0.0252844
0.0239813
0.0236497
0.024223
0.0252509
0.026195
0.0265059
0.0258573
0.0241153
0.0213648
0.0170399
0.0123931
0.00781228
0.0777942
0.121513
0.0677014
0.0369649
0.0362097
0.0348411
0.0329807
0.0308194
0.028587
0.0265175
0.0248237
0.0236452
0.0230383
0.0229185
0.0230627
0.0231139
0.0227234
0.0216344
0.0196838
0.0167942
0.012806
0.00829977
0.00345474
0.00207192
0.087059
0.156245
0.0333529
0.0327568
0.0317026
0.0302761
0.0286206
0.0269
0.0252738
0.0238698
0.0227676
0.0219828
0.0214511
0.0210557
0.020538
0.0196825
0.0182969
0.0162368
0.0134028
0.00972772
0.00560593
0.00187634
-0.00213204
-0.00557063
-0.0158566
0.0302282
0.0297488
0.0289244
0.0278114
0.0265189
0.0251585
0.0238356
0.0226279
0.0215787
0.0206851
0.019917
0.0191825
0.0183197
0.0171802
0.015626
0.013546
0.0108583
0.00751654
0.00370711
0.000556707
-0.00182485
-0.00878491
-0.0165168
0.0274898
0.0270946
0.0264389
0.0255532
0.0245203
0.0234153
0.0223055
0.0212361
0.0202306
0.0192812
0.018375
0.0174439
0.0163829
0.0150888
0.0134651
0.0114313
0.00892697
0.00591884
0.00243828
-0.00103183
-0.00379533
-0.00622223
-0.011203
0.0250578
0.0247247
0.024193
0.0234739
0.022629
0.0217073
0.0207496
0.019782
0.0188156
0.017849
0.016876
0.0158399
0.0146778
0.0133186
0.0116955
0.00975232
0.00744784
0.0047586
0.00168679
-0.0017312
-0.00484648
-0.00662094
-0.00869827
0.0228749
0.0225868
0.022147
0.0215506
0.0208434
0.0200551
0.0192094
0.0183214
0.0173957
0.0164385
0.01544
0.0143636
0.0131673
0.011804
0.0102283
0.00840251
0.00630016
0.00390921
0.00123382
-0.00170441
-0.00483018
-0.00763039
-0.00969327
0.0208945
0.0206405
0.02027
0.0197657
0.0191601
0.0184709
0.01771
0.0168882
0.0160062
0.0150755
0.0140824
0.0130072
0.0118215
0.0104945
0.00899615
0.00730188
0.00539609
0.00327467
0.000947339
-0.00156168
-0.00420344
-0.00690815
-0.00931386
0.0190826
0.0188538
0.0185373
0.0181034
0.0175761
0.0169642
0.0162645
0.0155012
0.0146671
0.0137736
0.0128076
0.0117614
0.0106159
0.0093512
0.00794797
0.00639124
0.00467281
0.00279353
0.000765144
-0.00138723
-0.0036218
-0.00586944
-0.00805798
0.0174093
0.0172013
0.0169282
0.0165515
0.0160962
0.0155528
0.0148795
0.0141704
0.0133879
0.012538
0.0116149
0.010616
0.00952965
0.0083431
0.00704473
0.00562609
0.00408406
0.00242237
0.00065309
-0.00120181
-0.00310808
-0.0050204
-0.00688655
0.0158516
0.0156607
0.0154282
0.0151238
0.0147913
0.0142307
0.0135566
0.0128993
0.0121707
0.0113703
0.0105007
0.00956113
0.00854523
0.00744578
0.00625626
0.00497262
0.00359487
0.00212835
0.000584567
-0.00101722
-0.00264938
-0.00427652
-0.00585974
0.0143862
0.0142183
0.0140838
0.0140468
0.0140776
0.0128916
0.012293
0.0116856
0.0110123
0.0102673
0.00946216
0.00858743
0.00764809
0.0066397
0.0055591
0.00440503
0.00317926
0.00188777
0.000541188
-0.000843779
-0.00224416
-0.00363298
-0.00497769
0.0129953
0.0128832
0.0131528
0.0145735
0.0134558
0.0115835
0.0110793
0.010525
0.0099092
0.00922885
0.00848751
0.00768501
0.00682585
0.0059094
0.00493519
0.00390383
0.00281807
0.00168371
0.000510431
-0.000687564
-0.00189149
-0.00307971
-0.00422661
0.0116582
0.0116694
0.0123431
0.013845
0.0121035
0.0103643
0.00990872
0.0094118
0.00885673
0.00824341
0.00757249
0.00684622
0.00606824
0.00524264
0.00437071
0.00345447
0.00249716
0.00150413
0.000483775
-0.000552021
-0.0015879
-0.002607
-0.00358744
0.0103745
0.0105294
0.0115427
0.0126469
0.00992005
0.0091815
0.00877964
0.00834231
0.00785135
0.00730694
0.00670999
0.00606181
0.00536712
0.00462989
0.00385519
0.00304621
0.00220649
0.00134079
0.000456083
-0.00043797
-0.00132894
-0.0022029
-0.00304279
0.00910583
0.00949526
0.0114594
0.0104459
0.00839532
0.00803323
0.00769275
0.0073159
0.00689101
0.00641679
0.00589358
0.00532562
0.004714
0.00406317
0.00338065
0.00267129
0.00193913
0.00118839
0.00042455
-0.000344615
-0.00110923
-0.00185914
-0.00257894
0.00787911
0.00848577
0.0106149
0.00875338
0.00725505
0.00692438
0.00665102
0.00633056
0.00597468
0.00557298
0.00511894
0.00463208
0.0041021
0.0035361
0.00294099
0.00232416
0.00169041
0.00104367
0.000388199
-0.000270214
-0.000924026
-0.00156511
-0.00218217
0.00666976
0.00752115
0.00959704
0.00766745
0.00611544
0.00587787
0.00566704
0.00539281
0.00510361
0.00477425
0.00440376
0.00398081
0.00352703
0.00304227
0.00253118
0.00200062
0.00145715
0.000904869
0.000347061
-0.000212192
-0.00076744
-0.0013134
-0.00184014
0.00551834
0.00674189
0.00861134
0.00618671
0.00501244
0.00488168
0.00469532
0.00449923
0.00427788
0.00401498
0.00370937
0.00336064
0.00298295
0.00257646
0.00214604
0.00169732
0.00123723
0.000771183
0.000302115
-0.000167515
-0.000634207
-0.00109421
-0.00154122
0.00439931
0.00572661
0.00771294
0.00466944
0.00397648
0.00395384
0.0038132
0.00366665
0.00350217
0.0032988
0.00305626
0.00277823
0.00246892
0.0021353
0.00178099
0.00141055
0.00102911
0.000642579
0.00025474
-0.000132869
-0.000518779
-0.000901479
-0.001276
0.00335389
0.00446461
0.00657696
0.00472306
0.00307911
0.00310299
0.00298462
0.00289028
0.00277428
0.00262313
0.0024382
0.00222288
0.00198056
0.00171565
0.00143286
0.00113646
0.000830521
0.000519196
0.000206796
-0.000104917
-0.000416206
-0.000726516
-0.00103498
0.00238296
0.00321364
0.00582456
0.00435701
0.0024917
0.00231096
0.00221984
0.00216794
0.00208973
0.00198267
0.00185023
0.00169598
0.00151481
0.00131423
0.00109892
0.000872536
0.000638554
0.000400108
0.000159896
-8.00162e-05
-0.000321362
-0.000563605
-0.000809709
0.00149301
0.00296719
0.00494455
0.00361456
0.00178952
0.00154729
0.00150971
0.0014917
0.00144276
0.0013697
0.00128452
0.00119014
0.0010673
0.00092731
0.000776082
0.00061651
0.000451437
0.000283252
0.000114181
-5.41239e-05
-0.000231177
-0.000404127
-0.000592751
0.000674797
0.00256647
0.00321784
0.00188128
0.000918838
0.000881988
0.000888174
0.000870758
0.000840884
0.000789908
0.000780745
0.000715173
0.000637328
0.000552703
0.000461713
0.000366534
0.000267959
0.000167499
6.64541e-05
-3.47604e-05
-0.000139777
-0.000250276
-0.000374336
-2.39737e-05
0.000697539
0.00147023
0.000237498
0.000125197
0.000267791
0.000290121
0.000315812
0.000316935
0.000324331
0.000290708
0.000253753
0.000219907
0.000187075
0.000154952
0.000122226
8.89695e-05
5.50644e-05
2.04784e-05
-1.51321e-05
-5.38216e-05
-0.000103022
-0.000167086
1148.92
1143.3
1139.96
1158.21
1163.13
1167.96
1169.61
1176.19
1161.44
1175.55
1184.04
1195.59
960.217
1058.07
1082.78
1107.85
771.409
747.112
745.654
794.102
728.187
730.304
740.938
744.888
763.061
747.524
748.146
750.086
682.978
726.396
758.254
766.648
138.727
153.333
174.759
211.918
0.195212
0.55585
1.73874
3.28011
0.0845657
0.127457
0.0572084
-0.0115213
0.174466
0.176415
0.156942
0.132029
0.0651856
0.00666755
-0.00379965
-0.00679266
-0.0193773
-0.0285393
-0.0397554
-0.0495426
-0.0158711
-0.0239081
-0.03402
-0.0422431
-0.0148904
-0.0184604
-0.0205788
-0.0253605
-0.012858
0.0340567
0.0934547
0.0823912
0.0432153
0.140812
0.19895
0.181868
0.115807
0.165336
0.21201
0.208247
0.074928
0.13753
0.0916536
0.1008
-0.0221513
-0.0265498
-0.0288003
-0.0304606
-0.0152468
-0.0176224
-0.0229147
-0.0250416
-0.0113879
-0.0137227
-0.0170533
-0.0196126
-0.0114986
-0.0114981
-0.0142108
-0.0160003
-0.0109689
-0.0118731
-0.0126549
-0.014203
-0.0095926
-0.0105395
-0.0115033
-0.0124027
-0.008211
-0.00902915
-0.00980094
-0.0105424
-0.00697145
-0.00765666
-0.00830796
-0.00892987
-0.00591577
-0.0064948
-0.00704642
-0.00757331
-0.0050225
-0.00551354
-0.00598365
-0.00643325
-0.00426575
-0.0046858
-0.00508826
-0.00547336
-0.00362244
-0.00398152
-0.00432768
-0.00465975
-0.0030754
-0.00338446
-0.00368253
-0.00396952
-0.00260816
-0.00287348
-0.00313098
-0.00337931
-0.00220527
-0.00243384
-0.00265554
-0.00287061
-0.00185256
-0.00204791
-0.00223935
-0.00242537
-0.00153983
-0.00170673
-0.00187006
-0.00203028
-0.00125535
-0.00139523
-0.0015339
-0.00166975
-0.00098962
-0.00110556
-0.00122051
-0.00133494
-0.000733214
-0.000825397
-0.000919247
-0.00101299
-0.00048208
-0.000553748
-0.000626542
-0.000701062
-0.000231349
-0.000277697
-0.000329333
-0.000384203
1197.87
1196.68
1194.46
1195.08
1215.23
1197.4
1184.33
1178.58
1197.77
1200.53
1170.05
1098.82
1116.49
1112.96
1112.99
1115.8
1124.57
1109.08
1064.01
1189.89
1198.12
1189.18
1180.37
1171.99
1189.37
1196.38
1200.18
1133.69
1060.14
1092.96
1125.65
1112
1107.85
1105.31
1126.32
1148.97
1114.62
1092.36
1226.02
1244.64
1179.37
1115.5
1116.52
1153.56
1114.69
1022.36
999.018
1009.3
976.653
1016.23
1041.06
1037.25
1063.49
1060.5
1053.19
1112.27
1096.18
1063.29
969.697
961.622
935.209
910.423
817.751
900.801
982.998
969.576
845.957
784.578
777.159
745.353
766.367
793.727
780.271
785.483
817.867
881.367
812.379
812.079
805.619
802.819
778.492
750.014
770.528
768.468
765.547
760.447
752.934
741.74
742.041
738.941
722.482
722.976
710.93
699.684
694.829
747.28
753.892
767.017
773.765
771.236
767.712
766.835
768.321
772.196
767.484
755.141
744.686
736.531
725.896
710.416
697.176
691.951
693.02
685.942
753.667
757.597
767.776
785.612
788.412
774.483
772.897
771.218
776.692
777.39
767.413
748.131
733.386
716.45
652.991
565.673
450.636
342.737
272.581
767.321
771.155
780.116
804.86
820.196
802.061
784.071
780.416
778.329
792.566
783.512
713.945
589.731
368.925
183.194
105.665
57.3636
39.0183
35.8236
287.699
405.142
499.218
554.757
575.76
634.128
662.47
648.432
617.655
528.872
368.93
206.523
94.6653
52.0295
21.3998
0.472145
0.350938
0.34924
0.351102
8.29807
26.7469
52.6872
72.6832
80.912
69.1786
65.3249
72.0107
59.2945
44.1615
34.5725
20.4922
4.21522
0.312379
0.198615
0.261395
0.329143
0.311293
0.337829
-0.0920205
-0.133005
-0.0371666
4.4068
1.693
-0.218079
-0.233856
-0.173333
-0.212491
-0.162439
1.89558
1.86339
1.97736
0.135997
0.182318
0.309452
0.416062
0.351389
0.378164
0.0539163
-0.0854554
-0.157213
-0.21345
-0.224315
-0.221102
-0.234271
-0.231266
-0.18883
-0.135152
-0.0946124
0.80903
0.678413
0.302878
0.145624
0.367817
0.397259
0.392855
0.359991
-0.0289267
-0.093276
-0.127959
-0.151211
-0.162762
-0.17946
-0.187939
-0.182846
-0.14822
-0.104701
-0.0658973
-0.0290352
0.0206282
0.0775026
0.1596
0.361823
0.393261
0.269224
0.302942
-0.0670824
-0.0864302
-0.104198
-0.114864
-0.125729
-0.132274
-0.133092
-0.117181
-0.0858781
-0.055185
-0.0351438
-0.00473818
0.0458244
0.135367
0.199198
0.351045
0.325239
0.180313
0.275829
-0.0539785
-0.0667207
-0.0760727
-0.0825282
-0.0882727
-0.0910339
-0.0699389
-0.039021
-0.00940738
-0.0168455
-0.00763403
0.0224722
0.0788986
0.159803
0.19046
0.163959
0.111617
0.191406
0.255753
-0.0376493
-0.0491287
-0.0516309
-0.0336463
0.00169674
0.0397563
0.0417036
0.0253988
0.00901853
-0.0329461
-0.0175846
0.045409
0.17608
0.218405
0.0989959
0.0861958
0.102453
0.210389
0.231494
0.0511767
0.0459779
0.033868
0.0612027
0.0799423
0.0744651
0.0756263
0.0310462
-0.0404702
-0.0293074
-0.0137443
0.139899
0.165282
0.188678
0.096524
0.109024
0.183316
0.174606
0.130396
0.165211
0.129791
0.0947653
0.0966061
0.106599
0.0887509
0.0781603
0.072789
0.0337044
-0.00482105
0.000353796
0.077997
0.15776
0.17419
0.216927
0.208095
0.14433
0.0666908
0.0702833
0.201085
0.15082
0.0946476
0.0893372
0.108088
0.121976
0.0914094
0.075234
0.0760794
0.081634
0.0747838
0.0432393
0.0461061
0.0771109
0.111061
0.0734209
0.0684061
0.0596435
0.0542331
0.116097
0.0770645
0.0793531
0.0847349
0.0659353
0.00714506
0.0289309
0.012054
0.0544698
0.0850062
0.109381
0.119471
0.0684059
0.0716324
0.0560393
0.0513619
0.0715885
0.0669526
0.0522872
-0.0318126
0.00574179
-0.00162273
-0.00517676
-0.0145997
0.00838614
0.0133489
-0.0136852
-0.0216439
-0.0143883
0.0402987
0.0702677
0.0884766
0.0781103
0.0522093
0.0628629
0.0672846
0.079436
0.0750036
-0.0283798
-0.0316068
-0.0326569
-0.0310099
-0.0266186
-0.0284557
-0.0255634
-0.0219239
-0.0172144
-0.0185597
-0.0154907
-0.0102318
0.00740087
0.0332956
0.0531496
0.0594829
0.0601503
0.0508775
0.0703036
-0.0229959
-0.0261736
-0.0281929
-0.0293405
-0.0295443
-0.029106
-0.0273426
-0.0245868
-0.0212993
-0.0170479
-0.0131955
-0.00932453
-0.00523143
-0.00093191
0.01318
0.0500291
0.0299162
0.0184397
0.0546774
-0.0192958
-0.0217619
-0.0235044
-0.0244945
-0.02476
-0.0242556
-0.022963
-0.0209661
-0.0184524
-0.0155421
-0.0123077
-0.00888477
-0.00532227
-0.00175897
0.00163485
0.00495533
0.00959
0.011499
0.0215452
-0.0162911
-0.0182889
-0.0197204
-0.0205141
-0.0207309
-0.0203746
-0.0194431
-0.0179837
-0.0160855
-0.0138399
-0.0113014
-0.0085332
-0.0056064
-0.00262116
0.00029727
0.0030484
0.00561309
0.00763565
0.014511
-0.0138389
-0.015437
-0.0165923
-0.0172851
-0.017518
-0.0172995
-0.0166384
-0.0155702
-0.0141413
-0.0124088
-0.0104221
-0.00822611
-0.00586868
-0.00342213
-0.00100733
0.00128574
0.00325772
0.00521285
0.0113261
-0.0117108
-0.0130296
-0.0140183
-0.0146429
-0.0149001
-0.0147985
-0.0143532
-0.0135867
-0.0125281
-0.0112152
-0.00968789
-0.00797626
-0.0061064
-0.00412094
-0.00212537
-0.000172214
0.00161974
0.00365841
0.0100278
-0.00991223
-0.011033
-0.0118895
-0.012459
-0.0127386
-0.0127356
-0.0124625
-0.011935
-0.0111731
-0.0102035
-0.0090548
-0.00774811
-0.00629148
-0.00470169
-0.00305372
-0.00133646
0.000445849
0.0038609
0.00809839
-0.00840731
-0.00936961
-0.0101192
-0.010643
-0.0109397
-0.011015
-0.0108785
-0.0105415
-0.0100182
-0.00932648
-0.00848474
-0.00750533
-0.00638862
-0.0051319
-0.00378563
-0.00221055
-0.000271108
0.00344081
0.0042727
-0.00714682
-0.00797797
-0.00863916
-0.00912316
-0.00942985
-0.00956422
-0.00953342
-0.00934519
-0.00900855
-0.00853743
-0.00794146
-0.00721946
-0.00636263
-0.00537243
-0.00429086
-0.0030379
-0.000656743
0.00297812
0.00164863
-0.0060858
-0.00680814
-0.0073946
-0.00784189
-0.00815099
-0.00832624
-0.00837219
-0.00829398
-0.00809412
-0.0077931
-0.00738558
-0.00685848
-0.00618883
-0.00539264
-0.00450643
-0.00354309
-0.0017531
0.00147751
-0.000305436
-0.00518974
-0.00582001
-0.00634172
-0.00675365
-0.00705738
-0.00725652
-0.00735427
-0.00735029
-0.00723364
-0.00704236
-0.00678024
-0.00638818
-0.00581796
-0.00514312
-0.00446635
-0.00370484
-0.00286049
-0.00120703
-0.00170839
-0.00442849
-0.00498033
-0.00544457
-0.00582117
-0.00611234
-0.00632069
-0.0064475
-0.0064853
-0.00639909
-0.00623481
-0.00611843
-0.00579758
-0.00530617
-0.00470598
-0.00417377
-0.0036552
-0.00330786
-0.00293942
-0.00200598
-0.00377809
-0.00426153
-0.00467362
-0.00501436
-0.00528654
-0.00549202
-0.00563036
-0.00568922
-0.00559937
-0.0052626
-0.00523954
-0.00507292
-0.00465467
-0.00402565
-0.00370451
-0.00345898
-0.00318357
-0.00108458
-0.00218827
-0.00321661
-0.00364036
-0.00400446
-0.00431041
-0.00456026
-0.00475475
-0.00489242
-0.00496152
-0.00491083
-0.00436858
-0.00296196
-0.00306378
-0.00378284
-0.00320235
-0.0019843
-0.00181177
5.20318e-05
5.1375e-05
-0.00246009
-0.00272616
-0.00309741
-0.00341973
-0.00369325
-0.00391883
-0.00409671
-0.00422449
-0.00429398
-0.00428935
-0.00399377
-0.000135043
0.00784269
0.000519937
-0.00280597
-0.00133179
0.000859442
0.000903138
-0.000491194
-0.00298605
-0.00228974
-0.0026175
-0.00290235
-0.00314425
-0.00334411
-0.00350287
-0.00361839
-0.00368489
-0.00369203
-0.00350967
-0.00113036
0.00956738
0.0104372
-0.000456451
-0.00165117
2.66905e-05
0.00120139
-0.0018109
-0.00313637
-0.00189089
-0.00218427
-0.00243123
-0.00264302
-0.00281827
-0.00295759
-0.00306003
-0.00312089
-0.00313422
-0.00307093
-0.00253267
0.00338162
0.0116164
0.0120904
0.000452122
-0.000995229
-0.000535962
-0.00233026
0.000102089
-0.00152299
-0.00177141
-0.00198788
-0.00217349
-0.00232693
-0.00244905
-0.00253963
-0.00259626
-0.00261308
-0.00259128
-0.00252529
-0.00221504
0.0065062
0.0135652
0.0131975
0.0012897
-0.00238931
-0.00259068
0.00465151
-0.00116909
-0.00137782
-0.00156474
-0.00172693
-0.00186199
-0.00196963
-0.00205022
-0.00210369
-0.00212883
-0.00212352
-0.00209729
-0.00203854
-0.0018175
0.008215
0.0154801
0.0112635
-0.00205942
-0.00325677
0.00875408
-0.000826557
-0.000998701
-0.0011565
-0.00129586
-0.001413
-0.00150612
-0.00157586
-0.00162387
-0.00165266
-0.00166403
-0.00166065
-0.00166997
-0.00169067
-0.00194984
0.00582544
0.013109
0.00143084
-0.00367092
0.00877208
-0.000479125
-0.000616913
-0.000746147
-0.000861389
-0.000958202
-0.00103451
-0.00109023
-0.00112825
-0.00115476
-0.00117885
-0.00121151
-0.0012907
-0.00146863
-0.00194969
-0.00329202
-0.000968381
0.0065753
-0.000551168
0.00453827
)
;

boundaryField
{
    leftWall
    {
        type            fixedFluxPressure;
        gradient        uniform 0;
        value           nonuniform List<scalar> 
50
(
5088.42
5087.38
5085.75
5083.33
5041.49
2887.71
1100.7
1101
1099.73
1085.51
865.388
722.672
724.443
721.808
720.498
451.109
6.78964
0.0671806
0.0773163
0.0806978
0.077511
0.0684969
0.059912
0.0525501
0.0463284
0.0412284
0.0369649
0.0333529
0.0302282
0.0274898
0.0250578
0.0228749
0.0208945
0.0190826
0.0174093
0.0158516
0.0143862
0.0129953
0.0116582
0.0103745
0.00910583
0.00787911
0.00666976
0.00551834
0.00439931
0.00335389
0.00238296
0.00149301
0.000674797
-2.39737e-05
)
;
    }
    rightWall
    {
        type            fixedFluxPressure;
        gradient        uniform 0;
        value           nonuniform List<scalar> 
50
(
2840.61
2775.97
2167.23
1128.49
1089.91
1094.2
1080.98
1072.97
1064.01
1092.36
1096.18
881.367
694.829
685.942
272.581
35.8236
0.351102
0.337829
0.378164
0.359991
0.302942
0.275829
0.255753
0.231494
0.130396
0.0702833
0.0542331
0.0522872
0.0750036
0.0703036
0.0546774
0.0215452
0.014511
0.0113261
0.0100278
0.00809839
0.0042727
0.00164863
-0.000305436
-0.00170839
-0.00200598
-0.00218827
-0.00246009
-0.00298605
-0.00313637
0.000102089
0.00465151
0.00875408
0.00877208
0.00453827
)
;
    }
    lowerWall
    {
        type            fixedFluxPressure;
        gradient        uniform 0;
        value           nonuniform List<scalar> 
62
(
5088.42
5091.34
5097.22
5106.32
5118.97
5135.84
5158.07
5187.22
5225.2
5273.75
5334.02
5406.38
5490.69
5586.25
5692.04
5806.68
5927.42
6049.8
6168.3
6276.29
6365.96
6429.93
6463.95
6463.95
6471.36
6486.19
6508.7
6539.36
6576.58
6395.32
4474.3
1148.92
1143.3
1139.96
1158.21
3426.2
3415.36
3106.2
1980.26
1180.15
1205.5
1209.49
1216.45
3426.2
3412.6
3385.53
3336.03
3275.32
3212.55
3157.71
3114.29
3084.64
3064.19
3051.6
3041.34
3025.45
2996.94
2959.43
2921.97
2885.58
2856.82
2840.61
)
;
    }
    atmosphere
    {
        type            totalPressure;
        rho             rho;
        psi             none;
        gamma           1;
        p0              uniform 0;
        value           nonuniform List<scalar> 
46
(
0
0
0
0
0
0
0
-1.58197e-08
-9.55419e-08
-7.78364e-08
-1.23695e-08
0
0
0
0
0
0
0
0
0
0
0
-1.64834e-05
-6.57379e-05
-0.000109724
-0.000160369
-0.000211683
-0.00029322
-0.000418629
-0.000534438
-0.000636515
-0.000721097
-0.000786568
-0.000832304
-0.00086055
-0.000877254
-0.00089071
-0.000911158
-0.000956936
-0.00105967
-0.00139162
-0.00196997
-3.84066e-08
0
0
0
)
;
    }
    defaultFaces
    {
        type            empty;
    }
}


// ************************************************************************* //
