/*--------------------------------*- C++ -*----------------------------------*\
| =========                 |                                                 |
| \\      /  F ield         | OpenFOAM: The Open Source CFD Toolbox           |
|  \\    /   O peration     | Version:  2312                                  |
|   \\  /    A nd           | Website:  www.openfoam.com                      |
|    \\/     M anipulation  |                                                 |
\*---------------------------------------------------------------------------*/
FoamFile
{
    version     2.0;
    format      ascii;
    arch        "LSB;label=32;scalar=64";
    class       surfaceScalarField;
    location    "5.75";
    object      phi;
}
// * * * * * * * * * * * * * * * * * * * * * * * * * * * * * * * * * * * * * //

dimensions      [0 3 -1 0 0 0 0];

oriented        oriented;

internalField   nonuniform List<scalar> 
4432
(
6.41549e-07
-6.41577e-07
9.71368e-07
-3.2984e-07
1.26112e-06
-2.89764e-07
1.52632e-06
-2.65201e-07
1.77109e-06
-2.44759e-07
2.00292e-06
-2.31828e-07
2.22876e-06
-2.25832e-07
2.45248e-06
-2.23706e-07
2.66848e-06
-2.15992e-07
2.86375e-06
-1.95254e-07
3.02175e-06
-1.57989e-07
3.1272e-06
-1.05436e-07
3.16935e-06
-4.21455e-08
3.14024e-06
2.91259e-08
3.03733e-06
1.02927e-07
2.87689e-06
1.60451e-07
2.66802e-06
2.08872e-07
2.35814e-06
3.09895e-07
1.91249e-06
4.45655e-07
1.36366e-06
5.48842e-07
7.53184e-07
6.10479e-07
1.31661e-07
6.21527e-07
1.31648e-07
2.74917e-07
-9.16537e-07
6.09893e-07
-6.64843e-07
9.13324e-07
-5.93213e-07
1.18555e-06
-5.37436e-07
1.43473e-06
-4.93945e-07
1.67169e-06
-4.68774e-07
1.90409e-06
-4.58221e-07
2.139e-06
-4.58601e-07
2.36894e-06
-4.45911e-07
2.58043e-06
-4.06714e-07
2.7559e-06
-3.33431e-07
2.87777e-06
-2.27281e-07
2.93558e-06
-9.99248e-08
2.92197e-06
4.27686e-08
2.83296e-06
1.91965e-07
2.69198e-06
3.01474e-07
2.51995e-06
3.80943e-07
2.24543e-06
5.84466e-07
1.82841e-06
8.62713e-07
1.322e-06
1.05529e-06
7.77806e-07
1.15471e-06
2.41832e-07
1.15753e-06
3.73528e-07
2.20105e-07
-1.13664e-06
5.42664e-07
-9.87398e-07
8.353e-07
-8.85837e-07
1.09241e-06
-7.94525e-07
1.32285e-06
-7.24373e-07
1.54446e-06
-6.90354e-07
1.76741e-06
-6.81144e-07
1.99604e-06
-6.872e-07
2.22023e-06
-6.70069e-07
2.42856e-06
-6.15015e-07
2.60248e-06
-5.07321e-07
2.7212e-06
-3.45973e-07
2.77531e-06
-1.54019e-07
2.75864e-06
5.94555e-08
2.66255e-06
2.88075e-07
2.52379e-06
4.40249e-07
2.40127e-06
5.03466e-07
2.16952e-06
8.16213e-07
1.7811e-06
1.25113e-06
1.32176e-06
1.51463e-06
8.36661e-07
1.6398e-06
3.38349e-07
1.65583e-06
7.11847e-07
2.89194e-07
-1.42585e-06
6.26476e-07
-1.32469e-06
9.28534e-07
-1.1879e-06
1.18333e-06
-1.04933e-06
1.4081e-06
-9.4914e-07
1.63194e-06
-9.14183e-07
1.86206e-06
-9.1125e-07
2.0851e-06
-9.10223e-07
2.29027e-06
-8.75206e-07
2.47653e-06
-8.01253e-07
2.62843e-06
-6.59206e-07
2.72437e-06
-4.41899e-07
2.75644e-06
-1.86078e-07
2.72032e-06
9.55992e-08
2.58724e-06
4.21192e-07
2.42754e-06
5.99992e-07
2.35942e-06
5.71645e-07
2.16313e-06
1.01254e-06
1.78535e-06
1.62894e-06
1.37927e-06
1.92071e-06
9.6662e-07
2.05241e-06
4.73576e-07
2.14884e-06
1.18541e-06
3.75123e-07
-1.80096e-06
7.4218e-07
-1.69173e-06
1.07189e-06
-1.51759e-06
1.36219e-06
-1.33961e-06
1.63141e-06
-1.21834e-06
1.90706e-06
-1.18981e-06
2.1818e-06
-1.18597e-06
2.40802e-06
-1.13643e-06
2.57206e-06
-1.03923e-06
2.69889e-06
-9.28085e-07
2.78669e-06
-7.46995e-07
2.81074e-06
-4.65954e-07
2.78721e-06
-1.62549e-07
2.72704e-06
1.55765e-07
2.53869e-06
6.0955e-07
2.28139e-06
8.57291e-07
2.25385e-06
5.99176e-07
2.07398e-06
1.1924e-06
1.70016e-06
2.00274e-06
1.37945e-06
2.24138e-06
1.07803e-06
2.35378e-06
6.17076e-07
2.60973e-06
1.80242e-06
4.80469e-07
-2.28152e-06
9.22006e-07
-2.13331e-06
1.31953e-06
-1.91513e-06
1.70539e-06
-1.72546e-06
2.07643e-06
-1.58938e-06
2.40526e-06
-1.51861e-06
2.6969e-06
-1.47758e-06
2.93881e-06
-1.37831e-06
3.1012e-06
-1.20158e-06
3.15323e-06
-9.80059e-07
3.1429e-06
-7.36643e-07
3.09471e-06
-4.17747e-07
2.94102e-06
-8.82692e-09
2.67346e-06
4.23365e-07
2.25729e-06
1.02577e-06
1.76439e-06
1.35026e-06
1.36001e-06
1.00362e-06
1.18906e-06
1.3634e-06
1.18224e-06
2.00958e-06
1.1602e-06
2.26342e-06
1.02655e-06
2.48738e-06
6.79175e-07
2.95706e-06
2.48158e-06
1.00519e-06
-3.28679e-06
1.91077e-06
-3.039e-06
2.62313e-06
-2.62758e-06
3.35435e-06
-2.45675e-06
3.94446e-06
-2.17952e-06
3.8809e-06
-1.45507e-06
3.24982e-06
-8.46494e-07
2.66926e-06
-7.97708e-07
2.07863e-06
-6.1089e-07
1.10659e-06
-7.95246e-09
1.48348e-07
2.2168e-07
-1.69771e-07
-9.95103e-08
-8.58169e-08
-9.26353e-08
2.6896e-07
6.8762e-08
7.17692e-07
5.77235e-07
7.83418e-07
1.28475e-06
3.0764e-07
1.47957e-06
3.4352e-07
1.32764e-06
5.6958e-07
1.78358e-06
5.40434e-07
2.29259e-06
4.34004e-07
2.59383e-06
4.5372e-07
2.93735e-06
2.93532e-06
3.30486e-07
-3.61738e-06
7.22415e-07
-3.431e-06
1.01609e-06
-2.92131e-06
1.48459e-06
-2.92528e-06
2.09709e-06
-2.79204e-06
2.36378e-06
-1.72176e-06
2.06232e-06
-5.45034e-07
1.14847e-06
1.16167e-07
4.28352e-08
4.94773e-07
-9.79016e-07
1.01397e-06
-2.07968e-06
1.32245e-06
-3.33317e-06
1.15411e-06
-4.30223e-06
8.76576e-07
-4.65851e-06
4.2522e-07
-4.7387e-06
6.57627e-07
-5.19212e-06
1.73834e-06
-5.90816e-06
2.19576e-06
-5.623e-06
1.04256e-06
-4.28818e-06
4.48791e-07
-2.90068e-06
9.05092e-07
-1.85068e-06
1.54381e-06
-7.08066e-07
1.79474e-06
2.22732e-06
-4.53477e-06
4.5347e-06
-6.88827e-06
2.35346e-06
-7.79659e-06
9.08302e-07
-7.70832e-06
-8.82487e-08
-6.89686e-06
-8.1144e-07
-5.81379e-06
-1.08306e-06
-4.72721e-06
-1.08658e-06
-3.82019e-06
-9.07027e-07
-3.09262e-06
-7.27573e-07
-2.74725e-06
-3.45376e-07
-2.70384e-06
-4.34094e-08
-2.67196e-06
-3.18811e-08
-2.36384e-06
-3.08129e-07
-1.83806e-06
-5.25781e-07
-1.40247e-06
-4.35594e-07
-7.96395e-07
-6.06073e-07
-2.05466e-07
-5.9093e-07
1.22773e-07
-3.28237e-07
1.22776e-07
-3.80156e-06
8.33615e-06
-6.51387e-06
5.06573e-06
-7.60905e-06
2.00346e-06
-7.58802e-06
-1.09284e-07
-6.94178e-06
-1.45766e-06
-5.99156e-06
-2.03328e-06
-4.96402e-06
-2.11412e-06
-4.09245e-06
-1.77861e-06
-3.34063e-06
-1.4794e-06
-2.88453e-06
-8.01489e-07
-2.66342e-06
-2.64536e-07
-2.50487e-06
-1.9044e-07
-2.19032e-06
-6.22686e-07
-1.80191e-06
-9.14195e-07
-1.43439e-06
-8.03117e-07
-9.24351e-07
-1.11612e-06
-5.69255e-07
-9.46038e-07
-3.99638e-07
-4.97864e-07
-2.76872e-07
-4.86203e-06
1.31982e-05
-8.2095e-06
8.4132e-06
-9.08295e-06
2.87692e-06
-8.70458e-06
-4.87621e-07
-7.88845e-06
-2.27375e-06
-6.99915e-06
-2.92253e-06
-6.21492e-06
-2.89832e-06
-5.6848e-06
-2.30871e-06
-5.2733e-06
-1.89089e-06
-4.71383e-06
-1.36097e-06
-3.65478e-06
-1.32357e-06
-3.03844e-06
-8.06779e-07
-2.32579e-06
-1.33534e-06
-1.58624e-06
-1.65373e-06
-8.3262e-07
-1.55673e-06
-6.95824e-07
-1.25291e-06
-1.40134e-06
-2.40511e-07
-1.2614e-06
-6.37795e-07
-1.53825e-06
-6.88888e-06
2.00868e-05
-1.1127e-05
1.26511e-05
-1.20729e-05
3.82275e-06
-1.0966e-05
-1.59455e-06
-9.09791e-06
-4.14191e-06
-8.09222e-06
-3.92825e-06
-7.79993e-06
-3.19065e-06
-7.86918e-06
-2.23951e-06
-7.43924e-06
-2.32089e-06
-4.26636e-06
-4.53393e-06
1.5955e-06
-7.18554e-06
2.57759e-06
-1.7889e-06
9.85616e-07
2.5659e-07
1.42692e-06
-2.09508e-06
2.13384e-06
-2.26371e-06
-1.53009e-06
2.41097e-06
-2.06796e-06
2.97282e-07
1.2314e-06
-3.93722e-06
-3.06968e-07
-6.39982e-06
2.64862e-05
-7.69139e-06
1.39425e-05
-7.39355e-06
3.52492e-06
-6.09937e-06
-2.88874e-06
-6.42623e-06
-3.81508e-06
-1.00959e-05
-2.5861e-07
-1.1945e-05
-1.34154e-06
-1.13087e-05
-2.87579e-06
-8.55521e-06
-5.07441e-06
-2.59358e-06
-1.04956e-05
7.19652e-06
-1.69757e-05
9.8539e-06
-4.44629e-06
6.19887e-06
3.91164e-06
4.85641e-06
-7.52612e-07
5.88904e-06
-3.29633e-06
-1.61453e-06
9.91456e-06
-2.65498e-07
-1.05172e-06
6.56151e-06
-1.07642e-05
6.25462e-06
-6.22849e-06
3.27147e-05
-7.43423e-06
1.51483e-05
-7.24782e-06
3.3384e-06
-5.71519e-06
-4.42151e-06
-4.03472e-06
-5.49571e-06
-6.28671e-06
1.99324e-06
-8.31148e-06
6.83096e-07
-8.02304e-06
-3.16435e-06
-6.2159e-06
-6.88154e-06
-1.63767e-06
-1.50739e-05
4.62288e-06
-2.32363e-05
7.66724e-06
-7.49074e-06
6.53909e-06
5.0397e-06
5.08778e-06
6.98628e-07
3.95284e-06
-2.16149e-06
1.7568e-06
1.21105e-05
4.02884e-06
-3.32384e-06
5.34219e-06
-1.20776e-05
1.15967e-05
-6.42336e-06
3.91385e-05
-7.59263e-06
1.63177e-05
-7.66828e-06
3.41402e-06
-6.70218e-06
-5.38771e-06
-4.33632e-06
-7.86166e-06
-3.67558e-06
1.33238e-06
-5.04499e-06
2.0524e-06
-5.1742e-06
-3.03517e-06
-4.20654e-06
-7.84931e-06
-1.1788e-06
-1.81017e-05
-8.20276e-08
-2.43331e-05
3.6392e-06
-1.1212e-05
5.32309e-06
3.3557e-06
3.66104e-06
2.36059e-06
1.19963e-06
2.99835e-07
1.39694e-06
1.19131e-05
4.08902e-06
-6.01597e-06
4.66243e-06
-1.26511e-05
1.62591e-05
-6.98058e-06
4.61191e-05
-7.22883e-06
1.6566e-05
-6.93817e-06
3.12335e-06
-6.96602e-06
-5.35988e-06
-5.72046e-06
-9.10725e-06
-3.39919e-06
-9.88903e-07
-3.11217e-06
1.76532e-06
-3.02649e-06
-3.12094e-06
-2.47903e-06
-8.39676e-06
-2.17168e-06
-1.84091e-05
-3.90688e-06
-2.25979e-05
-1.52349e-06
-1.35955e-05
9.04369e-07
9.27801e-07
-1.15347e-06
4.41839e-06
-2.76856e-06
1.91489e-06
5.80418e-07
8.56409e-06
3.01051e-06
-8.4461e-06
3.09536e-06
-1.27359e-05
1.93545e-05
-9.25672e-07
-2.69173e-06
-1.20197e-06
-3.15472e-06
-1.15856e-06
-2.96472e-06
-8.077e-07
-3.2761e-06
-1.04749e-06
-2.5522e-06
-1.76968e-06
-9.99516e-07
-2.64008e-06
3.25428e-07
-2.94669e-06
4.22845e-07
-3.40865e-06
9.56831e-07
-5.3165e-06
2.92194e-06
-8.30242e-06
4.30852e-06
-1.14119e-05
4.26371e-06
-1.37217e-05
3.18656e-06
-1.53782e-05
2.08196e-06
-1.67796e-05
2.05924e-06
-1.76738e-05
2.63267e-06
-1.8453e-05
2.97516e-06
-1.98937e-05
2.48342e-06
-2.12913e-05
1.84651e-06
-2.21697e-05
1.78358e-06
-2.27608e-05
2.13501e-06
-2.28009e-05
1.83502e-06
1.68202e-06
-2.22554e-05
2.56831e-07
-2.94858e-06
4.09136e-07
-3.307e-06
4.89878e-07
-3.04541e-06
-9.01761e-08
-2.69598e-06
-1.30568e-06
-1.33661e-06
-1.89287e-06
-4.12247e-07
-1.38548e-06
-1.8187e-07
-1.36775e-06
4.0521e-07
-2.19035e-06
1.77955e-06
-3.86986e-06
4.6016e-06
-6.77943e-06
7.21825e-06
-1.029e-05
7.77445e-06
-1.34206e-05
6.31737e-06
-1.66812e-05
5.34272e-06
-1.95865e-05
4.96462e-06
-2.14615e-05
4.50784e-06
-2.30354e-05
4.54921e-06
-2.4561e-05
4.00922e-06
-2.62858e-05
3.57149e-06
-2.8442e-05
3.94005e-06
-3.16438e-05
5.33714e-06
-3.64315e-05
6.62288e-06
6.34476e-06
-4.10939e-05
3.58195e-06
-6.53045e-06
6.22762e-06
-5.95258e-06
7.44126e-06
-4.25894e-06
6.14419e-06
-1.39879e-06
5.15467e-06
-3.46971e-07
5.47558e-06
-7.33038e-07
6.07944e-06
-7.856e-07
4.37646e-06
2.1083e-06
-5.22435e-07
6.67857e-06
-6.50127e-06
1.05806e-05
-1.22378e-05
1.29549e-05
-1.70025e-05
1.25393e-05
-2.17768e-05
1.10918e-05
-2.54312e-05
8.99729e-06
-2.79188e-05
7.45223e-06
-2.93701e-05
5.9593e-06
-3.0184e-05
5.36317e-06
-3.0815e-05
4.64037e-06
-3.18502e-05
4.60677e-06
-3.38073e-05
5.89727e-06
-3.67938e-05
8.32368e-06
-4.06598e-05
1.04891e-05
9.95022e-06
-4.4265e-05
2.71406e-06
-9.24421e-06
5.60177e-06
-8.84003e-06
7.55457e-06
-6.21153e-06
8.49038e-06
-2.33444e-06
9.40133e-06
-1.2578e-06
1.03918e-05
-1.72337e-06
7.89134e-06
1.71492e-06
7.73258e-07
9.22646e-06
-7.36812e-06
1.482e-05
-1.44805e-05
1.7693e-05
-1.85487e-05
1.7023e-05
-2.116e-05
1.51505e-05
-2.42847e-05
1.42164e-05
-2.77498e-05
1.24622e-05
-3.13985e-05
1.11008e-05
-3.48225e-05
9.3832e-06
-3.70865e-05
7.62723e-06
-3.88395e-05
6.3934e-06
-4.01477e-05
5.91503e-06
-4.07241e-05
6.47375e-06
-4.04246e-05
8.02429e-06
-3.95911e-05
9.65566e-06
9.47937e-06
-3.91203e-05
2.7227e-06
-1.19665e-05
4.48316e-06
-1.06001e-05
5.87395e-06
-7.60207e-06
7.42914e-06
-3.88947e-06
8.12105e-06
-1.94961e-06
6.78799e-06
-3.90238e-07
3.23249e-06
5.27048e-06
-3.09428e-06
1.55532e-05
-7.58419e-06
1.93099e-05
-1.08705e-05
2.09791e-05
-1.36695e-05
1.98216e-05
-1.72832e-05
1.87637e-05
-2.10049e-05
1.79376e-05
-2.52501e-05
1.67069e-05
-2.93097e-05
1.51601e-05
-3.30436e-05
1.31167e-05
-3.62493e-05
1.08327e-05
-3.86512e-05
8.79529e-06
-4.00146e-05
7.27847e-06
-3.97828e-05
6.24195e-06
-3.74005e-05
5.64216e-06
-3.34218e-05
5.67719e-06
5.46596e-06
-2.94082e-05
2.3557e-06
-1.43217e-05
4.27305e-06
-1.25172e-05
5.59675e-06
-8.92572e-06
6.09716e-06
-4.38995e-06
4.94573e-06
-7.9827e-07
2.86042e-06
1.69505e-06
1.32559e-06
6.80539e-06
-1.26275e-07
1.70052e-05
-2.55535e-06
2.17391e-05
-5.17773e-06
2.36016e-05
-9.32326e-06
2.3967e-05
-1.42802e-05
2.37203e-05
-1.92235e-05
2.28805e-05
-2.37284e-05
2.12112e-05
-2.7502e-05
1.89334e-05
-3.05645e-05
1.61789e-05
-3.29944e-05
1.32627e-05
-3.47616e-05
1.05625e-05
-3.60083e-05
8.52537e-06
-3.65941e-05
6.82796e-06
-3.58563e-05
4.9046e-06
-3.31454e-05
2.96647e-06
1.35055e-06
-2.90297e-05
2.77201e-06
-1.70932e-05
5.72917e-06
-1.5474e-05
8.50526e-06
-1.17018e-05
1.0301e-05
-6.18581e-06
9.72329e-06
-2.20689e-07
7.12832e-06
4.29009e-06
4.6333e-06
9.30071e-06
3.86063e-06
1.77786e-05
1.70152e-06
2.3899e-05
-2.08649e-06
2.73901e-05
-7.26128e-06
2.91421e-05
-1.31648e-05
2.96239e-05
-1.83315e-05
2.80472e-05
-2.25443e-05
2.5424e-05
-2.5671e-05
2.206e-05
-2.77629e-05
1.82708e-05
-2.91013e-05
1.46012e-05
-2.96479e-05
1.11093e-05
-2.97218e-05
8.59951e-06
-2.98256e-05
6.93195e-06
-3.02234e-05
5.30251e-06
-3.01432e-05
2.88648e-06
5.01968e-07
-2.92944e-05
3.4501e-06
-2.0544e-05
6.37075e-06
-1.83937e-05
8.83597e-06
-1.41657e-05
1.09469e-05
-8.29613e-06
1.31321e-05
-2.40577e-06
1.43422e-05
3.08018e-06
1.37841e-05
9.85935e-06
1.30787e-05
1.84847e-05
1.02488e-05
2.67295e-05
4.06908e-06
3.35708e-05
-4.27595e-06
3.7488e-05
-1.2889e-05
3.82375e-05
-2.00874e-05
3.52453e-05
-2.69561e-05
3.2289e-05
-3.2102e-05
2.72e-05
-3.5024e-05
2.11881e-05
-3.58375e-05
1.54116e-05
-3.43687e-05
9.63892e-06
-3.09476e-05
5.17776e-06
-2.73121e-05
3.29594e-06
-2.49967e-05
2.98706e-06
-2.41697e-05
2.05935e-06
1.97565e-06
-2.56433e-05
5.68907e-06
-2.62374e-05
1.06339e-05
-2.33437e-05
1.61671e-05
-1.97013e-05
2.38675e-05
-1.59976e-05
3.23251e-05
-1.08635e-05
3.68644e-05
-1.45798e-06
3.66406e-05
1.00844e-05
3.54054e-05
1.97198e-05
2.94208e-05
3.27146e-05
1.69015e-05
4.60879e-05
8.3935e-06
4.59902e-05
4.45185e-06
4.21707e-05
-4.98971e-06
4.46788e-05
-2.00594e-05
4.73371e-05
-3.08742e-05
3.79943e-05
-4.40358e-05
3.43423e-05
-6.01343e-05
3.15058e-05
-7.04162e-05
1.99195e-05
-7.02517e-05
5.01337e-06
-6.16429e-05
-5.31242e-06
-5.25011e-05
-6.1543e-06
-4.59988e-05
-4.44192e-06
-2.22302e-06
-4.18009e-05
4.91305e-06
-3.11554e-05
1.11293e-05
-2.95661e-05
1.15444e-05
-2.01239e-05
5.39588e-06
-9.85377e-06
-2.26473e-06
-3.20191e-06
5.25251e-06
-8.97279e-06
2.19957e-05
-6.65802e-06
3.15943e-05
1.01227e-05
3.07223e-05
3.35842e-05
1.87302e-05
5.8057e-05
1.34072e-05
5.13015e-05
7.2775e-06
4.82944e-05
-2.2051e-06
5.41582e-05
8.58129e-06
3.6556e-05
1.67405e-05
2.9844e-05
1.4277e-05
3.68114e-05
8.04558e-06
3.77407e-05
2.51865e-06
2.54467e-05
-4.61243e-06
1.21454e-05
-1.06404e-05
7.18048e-07
-1.12695e-05
-5.52089e-06
-1.24993e-05
-3.20879e-06
9.59205e-06
-2.43132e-05
-2.6627e-06
-2.84892e-05
-9.80301e-06
-2.24224e-05
-1.63696e-05
-1.35562e-05
-2.05187e-05
-5.70593e-06
-2.13093e-05
-2.41195e-06
-2.79096e-05
-2.37209e-06
-3.46756e-05
1.06547e-07
-3.52369e-05
1.06833e-05
-2.37216e-05
2.207e-05
-3.99512e-08
3.43809e-05
4.84493e-06
4.64224e-05
4.53092e-06
4.86173e-05
1.08617e-05
4.78383e-05
1.96796e-05
2.77631e-05
2.16015e-05
2.79452e-05
2.24998e-05
3.59222e-05
2.7012e-05
3.32333e-05
2.72386e-05
2.52216e-05
2.36804e-05
1.5703e-05
2.08311e-05
3.56692e-06
2.25891e-05
-7.27862e-06
2.5913e-05
-6.53115e-06
4.93623e-06
3.05709e-05
-8.04354e-06
-2.04418e-05
-1.45564e-05
-1.59058e-05
-1.72087e-05
-1.09007e-05
-1.78679e-05
-5.04447e-06
-1.89178e-05
-1.3608e-06
-2.34664e-05
2.17691e-06
-2.90245e-05
5.66498e-06
-3.10443e-05
1.27045e-05
-2.61726e-05
1.72061e-05
-8.84492e-06
1.70783e-05
-2.86419e-07
3.78756e-05
5.61153e-06
4.2726e-05
1.47571e-05
3.86987e-05
1.16821e-05
3.08408e-05
9.92632e-06
2.97026e-05
1.54873e-05
3.03626e-05
2.12046e-05
2.75175e-05
2.22577e-05
2.41695e-05
2.1601e-05
1.63596e-05
2.41619e-05
1.00465e-06
2.84111e-05
-1.15288e-05
3.43622e-05
-1.24834e-05
-4.51105e-06
4.381e-05
-7.65732e-06
-1.27826e-05
-1.30833e-05
-1.04777e-05
-1.63213e-05
-7.66077e-06
-1.70562e-05
-4.30813e-06
-1.74274e-05
-9.88702e-07
-1.85702e-05
3.32001e-06
-2.01815e-05
7.27577e-06
-1.8972e-05
1.14944e-05
-1.70347e-05
1.52689e-05
-1.92881e-05
1.93323e-05
-1.05299e-05
2.91177e-05
-9.13381e-07
3.31095e-05
5.94089e-06
3.18442e-05
8.32785e-06
2.84538e-05
1.03811e-05
2.76492e-05
1.38226e-05
2.69206e-05
1.58672e-05
2.54722e-05
1.60838e-05
2.3952e-05
1.93597e-05
1.30827e-05
2.35228e-05
-3.15945e-06
2.61432e-05
-1.41501e-05
2.88799e-05
-1.52203e-05
-9.90706e-06
3.42751e-05
-4.60913e-06
-8.17238e-06
-8.34306e-06
-6.74282e-06
-1.09983e-05
-5.00472e-06
-1.32047e-05
-2.10108e-06
-1.49666e-05
7.73494e-07
-1.59598e-05
4.31328e-06
-1.64347e-05
7.75034e-06
-1.59875e-05
1.10464e-05
-1.51017e-05
1.43822e-05
-1.38712e-05
1.8101e-05
-8.27523e-06
2.35209e-05
-1.71091e-06
2.65444e-05
3.53389e-06
2.65987e-05
6.40283e-06
2.55842e-05
8.83446e-06
2.5217e-05
1.09358e-05
2.48187e-05
1.21796e-05
2.42278e-05
1.44931e-05
2.16378e-05
1.79845e-05
9.59067e-06
1.9167e-05
-4.34247e-06
1.81749e-05
-1.31584e-05
1.66202e-05
-1.36661e-05
-9.46679e-06
1.61797e-05
-3.3816e-06
-4.79081e-06
-6.23259e-06
-3.89172e-06
-8.79642e-06
-2.44076e-06
-1.06654e-05
-2.32012e-07
-1.21116e-05
2.21962e-06
-1.28808e-05
5.08241e-06
-1.3041e-05
7.9103e-06
-1.25992e-05
1.06042e-05
-1.1585e-05
1.33673e-05
-9.80535e-06
1.63205e-05
-5.99431e-06
1.97091e-05
-1.4928e-06
2.20422e-05
2.32981e-06
2.27755e-05
5.10543e-06
2.28082e-05
7.50047e-06
2.28216e-05
9.46957e-06
2.28492e-05
1.14345e-05
2.22625e-05
1.43827e-05
1.86892e-05
1.47466e-05
9.22645e-06
1.20067e-05
-1.60287e-06
8.19459e-06
-9.34659e-06
4.77087e-06
-1.02421e-05
-6.52893e-06
1.83291e-06
-2.58376e-06
-2.20719e-06
-4.8381e-06
-1.63757e-06
-6.85506e-06
-4.23989e-07
-8.46556e-06
1.37832e-06
-9.66792e-06
3.42183e-06
-1.02192e-05
5.63356e-06
-1.01816e-05
7.87249e-06
-9.65324e-06
1.00756e-05
-8.62991e-06
1.23436e-05
-6.97318e-06
1.46634e-05
-4.27121e-06
1.70067e-05
-1.05225e-06
1.88229e-05
1.96715e-06
1.97559e-05
4.57378e-06
2.02014e-05
6.91645e-06
2.04788e-05
9.05365e-06
2.07119e-05
1.11277e-05
2.01884e-05
1.23875e-05
1.74292e-05
1.04872e-05
1.11267e-05
5.83335e-06
3.05088e-06
1.51589e-06
-5.02911e-06
-9.3604e-07
-7.7905e-06
-2.8919e-06
-4.57288e-06
-2.09945e-06
-1.08167e-07
-3.98122e-06
2.43867e-07
-5.63713e-06
1.23166e-06
-6.92329e-06
2.66427e-06
-7.73816e-06
4.23655e-06
-8.05042e-06
5.94569e-06
-7.88473e-06
7.7067e-06
-7.30055e-06
9.49129e-06
-6.28599e-06
1.13289e-05
-4.79509e-06
1.31724e-05
-2.71698e-06
1.49284e-05
-2.46125e-07
1.6352e-05
2.22828e-06
1.72815e-05
4.57522e-06
1.78545e-05
6.80678e-06
1.82473e-05
8.95319e-06
1.85655e-05
1.07599e-05
1.83817e-05
1.12944e-05
1.68948e-05
8.94066e-06
1.34804e-05
3.73708e-06
8.25443e-06
-7.28095e-07
-5.64144e-07
-2.7602e-06
-5.75815e-06
-1.2183e-06
-4.43375e-06
-1.71743e-06
1.6091e-06
-3.26949e-06
1.7957e-06
-4.61823e-06
2.58019e-06
-5.58693e-06
3.6328e-06
-6.15917e-06
4.80869e-06
-6.30196e-06
6.08842e-06
-6.04835e-06
7.45307e-06
-5.43002e-06
8.87296e-06
-4.45449e-06
1.03534e-05
-3.11259e-06
1.18305e-05
-1.3958e-06
1.32117e-05
6.06626e-07
1.43496e-05
2.71815e-06
1.51701e-05
4.82626e-06
1.57466e-05
6.91657e-06
1.61572e-05
9.00347e-06
1.64788e-05
1.08696e-05
1.65157e-05
1.17826e-05
1.59818e-05
1.07627e-05
1.45004e-05
7.1598e-06
1.18573e-05
1.10661e-06
5.48906e-06
-2.74321e-06
-1.90862e-06
-1.93371e-06
-2.02756e-06
-1.43642e-06
3.04527e-06
-2.74117e-06
3.10032e-06
-3.81685e-06
3.65577e-06
-4.56277e-06
4.37867e-06
-4.95047e-06
5.19635e-06
-4.96811e-06
6.10608e-06
-4.64319e-06
7.12819e-06
-4.00558e-06
8.23541e-06
-3.07542e-06
9.42335e-06
-1.85796e-06
1.06131e-05
-3.59299e-07
1.17132e-05
1.35001e-06
1.26405e-05
3.18838e-06
1.3332e-05
5.09512e-06
1.38401e-05
7.05139e-06
1.42012e-05
9.08184e-06
1.44486e-05
1.10647e-05
1.45329e-05
1.2666e-05
1.43807e-05
1.3415e-05
1.37514e-05
1.30872e-05
1.21851e-05
9.03505e-06
9.54106e-06
3.27004e-06
3.85657e-06
-7.67939e-08
1.41339e-06
-1.22638e-06
4.27184e-06
-2.34856e-06
4.2226e-06
-3.23333e-06
4.54059e-06
-3.8117e-06
4.95708e-06
-4.05711e-06
5.44181e-06
-3.98513e-06
6.03417e-06
-3.60151e-06
6.74466e-06
-2.9503e-06
7.58432e-06
-2.05883e-06
8.53202e-06
-9.3815e-07
9.49264e-06
3.92922e-07
1.03823e-05
1.90158e-06
1.11321e-05
3.52914e-06
1.17047e-05
5.25075e-06
1.21188e-05
7.06863e-06
1.23836e-05
8.99952e-06
1.25179e-05
1.10158e-05
1.25168e-05
1.30095e-05
1.23872e-05
1.47766e-05
1.19844e-05
1.6119e-05
1.08426e-05
1.67732e-05
8.8868e-06
1.44926e-05
6.13687e-06
3.4369e-06
1.09793e-05
-1.07539e-06
5.34732e-06
-2.06558e-06
5.21294e-06
-2.81783e-06
5.293e-06
-3.27324e-06
5.41263e-06
-3.41756e-06
5.58626e-06
-3.25557e-06
5.87231e-06
-2.82512e-06
6.31435e-06
-2.16809e-06
6.92746e-06
-1.30831e-06
7.67242e-06
-2.68575e-07
8.45311e-06
9.32314e-07
9.18167e-06
2.27169e-06
9.793e-06
3.71575e-06
1.02609e-05
5.25948e-06
1.05753e-05
6.90876e-06
1.07346e-05
8.68279e-06
1.07441e-05
1.05897e-05
1.06101e-05
1.26285e-05
1.03486e-05
1.47108e-05
9.90214e-06
1.66002e-05
8.95322e-06
1.80619e-05
7.42486e-06
1.88403e-05
5.35858e-06
3.01709e-06
1.92604e-05
-9.72912e-07
6.32072e-06
-1.86992e-06
6.11026e-06
-2.52324e-06
5.94657e-06
-2.8839e-06
5.7735e-06
-2.94209e-06
5.64464e-06
-2.71452e-06
5.64492e-06
-2.24476e-06
5.84478e-06
-1.58102e-06
6.26392e-06
-7.50164e-07
6.84179e-06
2.24415e-07
7.47877e-06
1.3038e-06
8.10255e-06
2.48977e-06
8.60732e-06
3.76521e-06
8.98579e-06
5.12664e-06
9.21418e-06
6.58206e-06
9.27949e-06
8.14666e-06
9.17981e-06
9.83855e-06
8.91845e-06
1.1678e-05
8.50933e-06
1.36385e-05
7.9418e-06
1.55017e-05
7.08987e-06
1.71084e-05
5.81818e-06
1.83027e-05
4.16411e-06
2.31993e-06
1.90004e-05
-9.07452e-07
7.22835e-06
-1.73354e-06
6.93668e-06
-2.31529e-06
6.52863e-06
-2.60186e-06
6.06035e-06
-2.59427e-06
5.63731e-06
-2.31527e-06
5.36617e-06
-1.81864e-06
5.34838e-06
-1.15187e-06
5.59739e-06
-3.53562e-07
6.04374e-06
5.43768e-07
6.58171e-06
1.53323e-06
7.11338e-06
2.58597e-06
7.55487e-06
3.70132e-06
7.87074e-06
4.88188e-06
8.03393e-06
6.13347e-06
8.02819e-06
7.4649e-06
7.84866e-06
8.88811e-06
7.49549e-06
1.04185e-05
6.97913e-06
1.2056e-05
6.30442e-06
1.37017e-05
5.44414e-06
1.51693e-05
4.35053e-06
1.63558e-05
2.97784e-06
1.52495e-06
1.71512e-05
-8.64777e-07
8.09386e-06
-1.64999e-06
7.72242e-06
-2.17378e-06
7.05284e-06
-2.40195e-06
6.28888e-06
-2.34059e-06
5.57626e-06
-2.02915e-06
5.05503e-06
-1.51971e-06
4.83922e-06
-8.57456e-07
4.93542e-06
-8.57189e-08
5.27229e-06
7.55062e-07
5.74123e-06
1.65097e-06
6.21777e-06
2.585e-06
6.62115e-06
3.55382e-06
6.90223e-06
4.56373e-06
7.02432e-06
5.61764e-06
6.97458e-06
6.7201e-06
6.74647e-06
7.87424e-06
6.34161e-06
9.08423e-06
5.76935e-06
1.03524e-05
5.03635e-06
1.16472e-05
4.14932e-06
1.28847e-05
3.11315e-06
1.39185e-05
1.94387e-06
7.34553e-07
1.47095e-05
-8.46415e-07
8.94064e-06
-1.60426e-06
8.48074e-06
-2.0883e-06
7.53734e-06
-2.27218e-06
6.47315e-06
-2.17462e-06
5.47906e-06
-1.84889e-06
4.72963e-06
-1.34033e-06
4.33098e-06
-6.90794e-07
4.2862e-06
5.51571e-08
4.52666e-06
8.5009e-07
4.94662e-06
1.67142e-06
5.39676e-06
2.50431e-06
5.78857e-06
3.34735e-06
6.05951e-06
4.2036e-06
6.16838e-06
5.07846e-06
6.10001e-06
5.9725e-06
5.85271e-06
6.8824e-06
5.43195e-06
7.81298e-06
4.83901e-06
8.75626e-06
4.09321e-06
9.69644e-06
3.20912e-06
1.05941e-05
2.21545e-06
1.14018e-05
1.13642e-06
7.55567e-08
1.20612e-05
-8.46452e-07
9.78798e-06
-1.59399e-06
9.22889e-06
-2.05586e-06
7.99971e-06
-2.21147e-06
6.62921e-06
-2.09253e-06
5.36052e-06
-1.76382e-06
4.40129e-06
-1.27736e-06
3.84487e-06
-6.51646e-07
3.66084e-06
6.56871e-08
3.80967e-06
8.24762e-07
4.18788e-06
1.5912e-06
4.63066e-06
2.34878e-06
5.03131e-06
3.09124e-06
5.31737e-06
3.82015e-06
5.43977e-06
4.54153e-06
5.37892e-06
5.25902e-06
5.1355e-06
5.97207e-06
4.71916e-06
6.67366e-06
4.13763e-06
7.35561e-06
3.41141e-06
8.006e-06
2.5587e-06
8.61347e-06
1.60807e-06
9.15047e-06
5.99273e-07
-3.90277e-07
9.61704e-06
-8.64579e-07
1.06528e-05
-1.61872e-06
9.98354e-06
-2.07194e-06
8.45343e-06
-2.21102e-06
6.76877e-06
-2.0844e-06
5.23433e-06
-1.78298e-06
4.10028e-06
-1.32187e-06
3.38414e-06
-7.32684e-07
3.07202e-06
-5.23688e-08
3.12971e-06
6.77812e-07
3.45804e-06
1.40959e-06
3.89921e-06
2.11716e-06
4.32407e-06
2.7885e-06
4.64633e-06
3.42056e-06
4.80801e-06
4.01992e-06
4.77984e-06
4.59404e-06
4.56164e-06
5.14382e-06
4.16961e-06
5.66878e-06
3.61289e-06
6.15785e-06
2.92247e-06
6.60364e-06
2.11289e-06
6.99716e-06
1.21453e-06
7.32956e-06
2.6727e-07
-6.8913e-07
7.62891e-06
-9.01395e-07
1.15552e-05
-1.67812e-06
1.0761e-05
-2.14072e-06
8.9166e-06
-2.26756e-06
6.8961e-06
-2.1418e-06
5.10901e-06
-1.891e-06
3.84989e-06
-1.4674e-06
2.96093e-06
-9.11655e-07
2.51664e-06
-2.73917e-07
2.49232e-06
4.23487e-07
2.76098e-06
1.12873e-06
3.1943e-06
1.80813e-06
3.64498e-06
2.43674e-06
4.01802e-06
3.00507e-06
4.23996e-06
3.51479e-06
4.27039e-06
3.97753e-06
4.09915e-06
4.40304e-06
3.74433e-06
4.78837e-06
3.22775e-06
5.1344e-06
2.57658e-06
5.43344e-06
1.81386e-06
5.687e-06
9.6111e-07
5.89869e-06
5.53663e-08
-8.77031e-07
6.08734e-06
-9.5463e-07
1.25102e-05
-1.77154e-06
1.15784e-05
-2.25509e-06
9.40067e-06
-2.36226e-06
7.00375e-06
-2.28212e-06
5.02931e-06
-2.07591e-06
3.64407e-06
-1.67967e-06
2.56508e-06
-1.1602e-06
1.99752e-06
-5.60779e-07
1.89325e-06
8.57569e-08
2.11477e-06
7.65653e-07
2.51471e-06
1.42688e-06
2.98405e-06
2.03665e-06
3.40853e-06
2.57126e-06
3.70561e-06
3.02655e-06
3.81534e-06
3.41104e-06
3.71488e-06
3.74007e-06
3.41551e-06
4.02003e-06
2.94799e-06
4.25622e-06
2.34051e-06
4.44929e-06
1.62079e-06
4.60271e-06
8.07641e-07
4.72606e-06
-6.74988e-08
-9.94031e-07
4.84345e-06
-1.01331e-06
1.35244e-05
-1.87103e-06
1.24367e-05
-2.36709e-06
9.89721e-06
-2.51415e-06
7.15124e-06
-2.5101e-06
5.02567e-06
-2.30977e-06
3.44412e-06
-1.91952e-06
2.17518e-06
-1.4254e-06
1.50373e-06
-8.73698e-07
1.34186e-06
-2.7564e-07
1.51701e-06
3.57448e-07
1.8819e-06
9.98499e-07
2.34326e-06
1.59945e-06
2.80782e-06
2.12238e-06
3.1829e-06
2.55056e-06
3.38737e-06
2.88809e-06
3.37755e-06
3.14971e-06
3.15406e-06
3.35225e-06
2.74561e-06
3.50486e-06
2.18803e-06
3.6148e-06
1.51085e-06
3.68938e-06
7.33256e-07
3.74697e-06
-1.25293e-07
-1.05657e-06
3.81035e-06
-1.06254e-06
1.4587e-05
-1.95035e-06
1.33249e-05
-2.45399e-06
1.04012e-05
-2.69574e-06
7.39336e-06
-2.7673e-06
5.09757e-06
-2.53037e-06
3.2075e-06
-2.12849e-06
1.7736e-06
-1.65822e-06
1.03373e-06
-1.15504e-06
8.38936e-07
-6.19078e-07
9.81286e-07
-4.74364e-08
1.31048e-06
5.51914e-07
1.74411e-06
1.13757e-06
2.22235e-06
1.66181e-06
2.65884e-06
2.08726e-06
2.96208e-06
2.40436e-06
3.0606e-06
2.62625e-06
2.93231e-06
2.77488e-06
2.59711e-06
2.86756e-06
2.09544e-06
2.91618e-06
1.46223e-06
2.93468e-06
7.14742e-07
2.93995e-06
-1.29964e-07
-1.06291e-06
2.94675e-06
-1.08974e-06
1.56774e-05
-2.00339e-06
1.42389e-05
-2.5257e-06
1.09239e-05
-2.85586e-06
7.72381e-06
-2.93753e-06
5.17949e-06
-2.66599e-06
2.9362e-06
-2.25286e-06
1.36069e-06
-1.80884e-06
5.89912e-07
-1.3624e-06
3.92676e-07
-8.99973e-07
5.19028e-07
-4.04964e-07
8.15618e-07
1.25666e-07
1.21361e-06
6.78534e-07
1.6696e-06
1.19902e-06
2.13845e-06
1.6346e-06
2.52659e-06
1.95466e-06
2.74063e-06
2.16254e-06
2.72451e-06
2.27996e-06
2.47977e-06
2.33113e-06
2.04433e-06
2.33597e-06
1.45737e-06
2.31043e-06
7.40451e-07
2.26854e-06
-8.84231e-08
-1.02598e-06
2.23232e-06
-1.07981e-06
1.67572e-05
-2.00434e-06
1.51636e-05
-2.56222e-06
1.14819e-05
-2.93411e-06
8.09586e-06
-2.96868e-06
5.21422e-06
-2.66775e-06
2.63541e-06
-2.25011e-06
9.43161e-07
-1.8426e-06
1.82507e-07
-1.46291e-06
1.30666e-08
-1.08608e-06
1.42272e-07
-6.83787e-07
4.13374e-07
-2.36623e-07
7.66485e-07
2.51431e-07
1.18157e-06
7.47906e-07
1.64199e-06
1.19312e-06
2.08139e-06
1.53314e-06
2.40063e-06
1.74875e-06
2.50891e-06
1.8563e-06
2.37224e-06
1.88481e-06
2.01581e-06
1.86041e-06
1.48169e-06
1.80137e-06
7.99298e-07
1.72669e-06
-1.3256e-08
-9.50956e-07
1.65181e-06
-1.02389e-06
1.77815e-05
-1.93745e-06
1.60773e-05
-2.52925e-06
1.20738e-05
-2.87885e-06
8.4455e-06
-2.85855e-06
5.19394e-06
-2.5155e-06
2.29237e-06
-2.10126e-06
5.28924e-07
-1.74353e-06
-1.75244e-07
-1.44165e-06
-2.88841e-07
-1.15851e-06
-1.40909e-07
-8.59792e-07
1.14607e-07
-5.1482e-07
4.21451e-07
-1.15427e-07
7.82108e-07
3.28315e-07
1.19818e-06
7.66722e-07
1.6429e-06
1.13136e-06
2.03591e-06
1.37446e-06
2.26575e-06
1.49314e-06
2.25349e-06
1.51668e-06
1.99219e-06
1.47622e-06
1.52199e-06
1.39493e-06
8.80636e-07
1.29683e-06
8.43574e-08
-8.4839e-07
1.19479e-06
-9.18972e-07
1.87e-05
-1.79068e-06
1.69488e-05
-2.36852e-06
1.26515e-05
-2.67855e-06
8.75544e-06
-2.58561e-06
5.1009e-06
-2.20093e-06
1.90759e-06
-1.80748e-06
1.35366e-07
-1.51739e-06
-4.65464e-07
-1.305e-06
-5.01363e-07
-1.12253e-06
-3.23528e-07
-9.26553e-07
-8.15246e-08
-6.91783e-07
1.86519e-07
-3.97352e-07
4.87513e-07
-3.53566e-08
8.36015e-07
3.65814e-07
1.24157e-06
7.43782e-07
1.65779e-06
1.02513e-06
1.98426e-06
1.1754e-06
2.1031e-06
1.21194e-06
1.95551e-06
1.16941e-06
1.56431e-06
1.08259e-06
9.67181e-07
9.69271e-07
1.98082e-07
-7.25735e-07
8.46646e-07
-7.6548e-07
1.94657e-05
-1.55902e-06
1.77423e-05
-2.07907e-06
1.31714e-05
-2.31202e-06
8.98821e-06
-2.13215e-06
4.92084e-06
-1.71399e-06
1.48922e-06
-1.3883e-06
-1.90532e-07
-1.19033e-06
-6.63652e-07
-1.07765e-06
-6.14276e-07
-9.93669e-07
-4.07736e-07
-9.00416e-07
-1.75016e-07
-7.70545e-07
5.64076e-08
-5.80568e-07
2.97295e-07
-3.19774e-07
5.74983e-07
9.86825e-09
9.11698e-07
3.71132e-07
1.2963e-06
6.86074e-07
1.66912e-06
8.84488e-07
1.90449e-06
9.51352e-07
1.88845e-06
9.24603e-07
1.59082e-06
8.39791e-07
1.05194e-06
7.22427e-07
3.14774e-07
-5.96121e-07
5.93056e-07
-5.72167e-07
2.00373e-05
-1.25551e-06
1.84254e-05
-1.69558e-06
1.36112e-05
-1.78636e-06
9.07874e-06
-1.49698e-06
4.63121e-06
-1.10109e-06
1.09306e-06
-8.90056e-07
-4.01836e-07
-8.11151e-07
-7.42834e-07
-8.01905e-07
-6.23802e-07
-8.07583e-07
-4.02343e-07
-7.99433e-07
-1.83452e-07
-7.59109e-07
1.57962e-08
-6.70247e-07
2.08149e-07
-5.13942e-07
4.184e-07
-2.76688e-07
6.74174e-07
2.87783e-08
9.90583e-07
3.50285e-07
1.34737e-06
5.98747e-07
1.65582e-06
7.15676e-07
1.77129e-06
7.1484e-07
1.59139e-06
6.41679e-07
1.12467e-06
5.36295e-07
4.20418e-07
-4.72177e-07
4.12082e-07
-3.55714e-07
2.03932e-05
-9.02181e-07
1.89717e-05
-1.27929e-06
1.39881e-05
-1.17033e-06
8.9695e-06