/*--------------------------------*- C++ -*----------------------------------*\
| =========                 |                                                 |
| \\      /  F ield         | OpenFOAM: The Open Source CFD Toolbox           |
|  \\    /   O peration     | Version:  2312                                  |
|   \\  /    A nd           | Website:  www.openfoam.com                      |
|    \\/     M anipulation  |                                                 |
\*---------------------------------------------------------------------------*/
FoamFile
{
    version     2.0;
    format      ascii;
    arch        "LSB;label=32;scalar=64";
    class       volScalarField;
    location    "2.85";
    object      alpha.water;
}
// * * * * * * * * * * * * * * * * * * * * * * * * * * * * * * * * * * * * * //

dimensions      [0 0 0 0 0 0 0];

internalField   nonuniform List<scalar> 
2268
(
2.12692e-07
5.00132e-08
4.0959e-09
6.6727e-10
3.30906e-10
2.01645e-10
1.02678e-10
6.17833e-11
4.50595e-11
3.61309e-11
3.28504e-11
3.28724e-11
3.52864e-11
4.10366e-11
5.17679e-11
6.98037e-11
1.00154e-10
1.47952e-10
2.12964e-10
4.11736e-10
7.40023e-10
1.10837e-09
1.32132e-09
5.64212e-07
2.24144e-07
2.55332e-09
2.93578e-10
2.93341e-10
1.78919e-10
1.62786e-10
1.44867e-10
9.54291e-11
6.42943e-11
4.91553e-11
4.45541e-11
4.89885e-11
6.17513e-11
8.38963e-11
1.17364e-10
1.61714e-10
2.66589e-10
4.60345e-10
8.0937e-10
1.38882e-09
1.78963e-09
1.71449e-09
3.87061e-07
2.03134e-07
2.53852e-13
8.15094e-10
2.02019e-10
2.04969e-10
4.21019e-10
4.11321e-10
3.04601e-10
1.35647e-10
7.11639e-11
5.58389e-11
5.95407e-11
8.86661e-11
1.35899e-10
1.84436e-10
2.32786e-10
3.15771e-10
4.64266e-10
7.9035e-10
1.55285e-09
2.74598e-09
1.3895e-09
4.3209e-09
4.57867e-09
9.33141e-13
3.57753e-11
1.25986e-11
2.19952e-11
8.57715e-11
1.13059e-10
9.99508e-11
4.98868e-11
2.98731e-11
2.46718e-11
2.81224e-11
5.41099e-11
9.30128e-11
1.15707e-10
1.23756e-10
1.46632e-10
1.9673e-10
3.2917e-10
2.64923e-09
1.92963e-08
1.20601e-09
0.00452101
-2.12527e-09
1.79285e-31
1.58759e-25
7.28602e-25
5.04042e-25
5.42088e-26
5.88679e-26
5.41896e-26
5.88672e-26
8.14615e-13
1.15849e-12
1.10687e-12
1.12422e-12
1.10686e-12
1.24882e-12
4.04101e-09
1.90652e-20
3.51777e-11
-7.38939e-20
3.51636e-11
-8.12599e-20
3.51509e-11
0.558365
0.543718
0.520748
0.499204
0.466921
0.411283
0.316287
0.196732
0.0849181
0.0109872
8.07688e-18
8.08813e-18
1.88783e-09
9.52537e-08
1.74014e-05
0.00210471
0.00992526
0.0279563
0.05735
0.0986906
0.139737
0.171691
0.169064
0.993263
0.993233
0.994094
0.99467
0.993432
0.987474
0.968959
0.910515
0.787457
0.605128
0.400231
0.2826
0.259646
0.300931
0.382229
0.462982
0.560098
0.659886
0.741316
0.809902
0.853644
0.885921
0.881535
0.997007
0.998188
0.998734
0.999496
0.999496
0.999496
0.999496
0.999496
0.999496
0.999496
0.98702
0.95329
0.933291
0.934794
0.932871
0.939156
0.949843
0.977466
0.973392
0.966372
0.973373
0.979978
0.975477
0.0259978
0.0260056
0.0259983
0.0247482
0.011628
0.0110712
0.0142654
0.0176155
0.0196989
0.0196992
0.0191458
0.0169001
0.0166885
0.0167032
0.0149982
0.0109157
0.01025
0.00887846
0.00816672
0.101858
0.0430134
0.0178277
0.0122887
0.00933686
0.00934467
0.00892969
0.0107445
0.0143308
0.0162671
0.0166434
0.00871423
0.00709278
0.0060545
0.00603205
0.0059912
0.00601369
0.00806456
0.00811896
0.587093
0.458389
0.370066
0.278963
0.140597
0.0170829
0.00572886
0.00573754
0.00573781
0.00576872
0.00962261
0.0260456
0.0363204
0.0352718
0.0281071
0.112525
0.0360716
0.00807231
0.00808224
0.630507
0.662342
0.679993
0.588355
0.484983
0.236684
0.111608
0.236544
0.278082
0.204227
0.27736
0.357125
0.371771
0.354477
0.321544
0.333604
0.171166
0.0816758
0.105199
0.629632
0.894435
0.947794
0.758068
0.678393
0.465124
0.565283
0.92921
0.922614
0.838518
0.484041
0.458694
0.427749
0.43974
0.632713
0.749495
0.777706
0.696331
0.4534
0.629827
0.942473
0.993813
0.985482
0.933305
0.543765
0.871646
0.967363
0.967366
0.955854
0.517762
0.455272
0.461344
0.81842
0.864242
0.864012
0.867081
0.8672
0.798711
0.87076
0.886752
0.988179
0.999691
0.999686
0.84242
0.633503
0.967354
0.945429
0.640433
0.465859
0.463131
0.508408
0.861917
0.868261
0.868242
0.868195
0.866078
0.861261
0.88963
0.921886
0.987491
0.999694
0.99969
0.9173
0.614427
0.966605
0.937214
0.786391
0.718429
0.715358
0.656365
0.741454
0.868267
0.868255
0.853448
0.835221
0.767835
0.998233
0.999101
0.999491
0.999491
0.999451
0.999391
0.999496
0.999496
0.999496
0.999496
0.999496
0.999461
0.998995
0.961993
0.89497
0.773783
0.81091
0.978288
0.978266
0.978833
0.979978
0.979963
0.977195
0.999123
0.999123
0.996694
0.993987
0.994235
0.990222
0.988935
0.991794
0.993178
0.99089
0.972678
0.965055
0.972458
0.899203
0.7282
0.715692
0.882156
0.88126
0.854007
0.82507
0.780425
0.735673
0.69217
0.999107
0.999123
0.99905
0.995656
0.988987
0.975487
0.795177
0.767308
0.762141
0.67904
0.575939
0.534642
0.51818
0.479362
0.429554
0.46342
0.372023
0.243211
0.171141
0.128426
0.0956609
0.0701817
0.0495801
0.781006
0.789278
0.774031
0.684752
0.617719
0.721543
0.626944
0.188082
0.086147
0.0415771
0.014565
0.00815838
0.00596019
0.00777858
0.012787
2.29033e-07
-4.05727e-07
1.54718e-09
8.61873e-06
1.25083e-05
6.15686e-10
2.92191e-11
-3.67675e-10
0.00194474
0.00541694
0.0113386
0.0139264
0.0139442
0.0283709
0.289307
0.203715
0.00236895
3.26434e-06
2.79202e-06
2.87892e-06
3.30106e-06
4.85705e-06
5.57579e-05
0.000234429
0.00038244
0.000627895
0.000473609
0.000331871
0.000176442
6.39496e-05
1.23047e-05
0.00209843
0.000100975
0.000100764
0.000100976
0.000100764
0.00267758
0.0590314
0.106994
0.0518023
0.00033837
9.0581e-06
4.74601e-05
0.000137047
0.000113063
5.68063e-05
5.19807e-05
5.19726e-05
0.00251042
0.0115783
0.0101538
0.0035249
0.000452286
2.41778e-05
0.00542126
0.00181112
0.00313448
0.00470103
0.00311734
0.0033855
0.00485525
0.00716309
0.008817
0.00616402
0.00186609
0.000528344
0.00274251
0.00637936
0.00477316
0.000840816
5.22434e-05
5.20019e-05
0.0144933
0.0207114
0.0206975
0.0128722
0.00419031
0.00542126
0.0053523
0.00542098
0.00542081
0.00250575
0.000419014
0.000505036
0.000655654
0.000546354
0.000714657
0.000564845
0.000316281
0.000228434
0.00620016
0.0105741
0.0105856
0.00825259
0.00221472
0.00213023
0.00777796
0.0190802
0.0203357
0.0174532
0.00393972
0.000726595
0.00328751
0.00354254
0.000620123
1.73566e-07
1.30093e-07
4.43523e-07
9.48931e-07
1.42197e-06
0.000101426
0.000300934
0.000194687
8.3783e-05
8.45504e-05
9.96184e-05
0.00650642
0.0115713
0.0115879
0.00607249
0.00386596
0.00363711
0.0156479
0.00339668
0.000187427
1.39808e-05
3.61282e-05
1.01813e-08
2.19831e-09
5.55756e-08
6.33755e-07
9.37366e-07
1.06138e-06
9.8532e-07
8.66203e-07
4.04688e-05
0.000312048
0.000316945
0.000196862
4.13498e-07
4.13714e-07
0.000498966
0.00352543
0.00397537
0.00186181
0.000198144
0.000871198
0.0010792
0.000124919
3.48089e-07
2.94534e-08
2.19831e-09
1.49587e-08
1.4102e-06
3.04351e-05
3.55535e-05
1.20652e-05
2.60883e-06
1.59391e-06
4.14719e-05
0.000305306
0.00027194
2.8477e-05
5.95723e-07
5.2605e-07
2.04846e-05
0.000167247
0.000195191
0.000197903
1.73336e-07
0.00108085
0.000651417
7.32924e-06
5.23134e-06
9.61701e-07
1.30471e-06
3.7352e-05
6.23069e-05
6.22713e-05
3.42643e-05
2.61312e-06
1.53925e-06
1.38278e-06
1.37295e-06
1.38204e-06
1.45325e-06
8.30036e-07
3.65614e-07
3.65611e-07
3.65611e-07
5.16076e-07
1.75585e-06
1.68085e-07
0.000179017
0.000170922
5.01458e-05
1.96223e-05
2.51118e-05
5.71445e-05
6.13813e-05
6.22753e-05
4.39365e-05
8.49941e-06
2.40024e-06
1.52986e-06
1.90618e-06
2.59327e-06
2.14164e-06
5.6256e-07
3.65614e-07
3.65611e-07
3.65611e-07
3.6561e-07
3.65611e-07
3.71686e-07
1.63037e-07
1.61909e-07
1.67062e-07
1.72428e-07
8.33069e-06
4.76719e-05
5.59561e-05
4.25176e-05
4.79824e-06
4.46741e-06
6.76395e-06
3.46209e-06
3.73125e-06
6.95055e-06
9.22834e-06
1.59163e-05
6.31379e-06
3.65612e-07
1.71584e-05
7.18815e-05
7.16625e-05
4.78134e-05
4.03006e-06
3.83041e-08
2.03039e-07
3.80359e-07
6.74214e-07
7.21646e-07
7.73979e-07
8.30735e-07
8.35785e-07
1.13248e-06
1.45902e-06
6.32018e-06
6.50093e-06
2.08952e-05
4.78689e-05
6.90282e-05
7.00046e-05
7.07706e-05
3.9885e-05
1.53711e-05
2.77736e-05
2.85244e-05
1.08198e-05
1.45122e-06
3.77171e-08
1.6522e-07
8.7544e-07
8.79248e-07
8.31766e-07
7.88742e-07
9.12963e-07
1.14082e-06
2.23951e-06
4.11695e-06
1.0726e-06
5.27889e-06
6.77302e-05
7.94423e-05
7.63289e-05
8.09496e-06
5.83384e-08
2.43811e-06
5.76618e-06
6.35068e-06
2.11365e-06
2.35268e-07
1.09539e-07
3.32697e-08
1.14854e-07
7.34931e-07
8.85915e-07
9.55072e-07
1.88324e-06
2.50999e-06
2.48913e-06
2.21346e-06
8.98003e-07
1.57001e-07
6.07309e-06
1.42709e-05
1.18626e-05
2.25582e-09
2.55844e-08
6.14806e-08
9.61627e-07
1.50618e-06
8.49635e-07
2.7094e-08
1.4521e-09
5.47413e-09
2.6288e-08
8.11835e-08
1.25665e-07
4.58265e-07
1.28139e-06
1.84568e-06
1.51449e-06
5.62961e-07
4.17276e-08
1.57966e-07
1.56811e-07
1.69237e-08
2.16514e-09
2.08909e-09
2.18635e-09
2.19686e-08
9.12495e-08
1.06224e-07
2.5139e-08
7.6021e-10
7.61364e-10
1.46732e-09
2.10558e-09
9.42663e-09
3.84192e-08
3.2458e-08
1.70068e-08
1.14297e-09
3.98525e-08
3.03728e-09
3.01516e-09
4.22545e-08
8.19189e-08
5.11905e-08
1.4645e-08
5.21283e-09
2.93533e-09
5.0492e-09
1.20023e-08
2.59107e-08
3.78294e-08
2.76549e-08
1.18261e-09
8.35113e-10
1.23742e-09
7.74406e-10
9.27851e-09
1.98032e-08
1.46875e-08
1.14335e-09
1.35451e-09
2.09007e-09
4.89137e-09
7.42618e-09
1.87152e-08
3.11119e-08
2.27566e-08
2.53832e-09
2.24311e-09
1.94717e-09
1.91513e-09
2.4375e-09
3.19559e-09
3.29377e-09
4.34371e-09
4.91351e-09
2.76703e-09
1.45376e-09
8.79457e-10
9.30847e-09
9.39353e-09
1.24086e-08
1.39159e-08
1.50088e-08
1.44647e-08
6.30471e-09
1.98875e-10
1.62802e-09
3.04529e-09
2.85881e-09
1.34947e-09
1.16622e-09
1.09389e-09
1.01468e-09
9.67517e-10
1.22188e-09
1.7013e-09
1.81908e-09
1.956e-09
1.74371e-09
1.0903e-09
6.03348e-10
1.62295e-08
9.14774e-09
8.89128e-09
8.01883e-09
8.10347e-09
6.84002e-09
1.92744e-09
1.74884e-10
1.81367e-10
1.83279e-10
1.85926e-10
3.83829e-10
4.89292e-10
4.95237e-10
4.77039e-10
4.66146e-10
5.53399e-10
7.40338e-10
8.29269e-10
8.1885e-10
7.41567e-10
5.42106e-10
2.95491e-10
1.85228e-08
9.96818e-09
7.15538e-09
4.34732e-09
1.11922e-09
1.02307e-10
1.02271e-10
1.69565e-10
1.86533e-10
1.90881e-10
2.0284e-10
2.05857e-10
2.13281e-10
2.12228e-10
2.15379e-10
2.25174e-10
2.56292e-10
3.02993e-10
3.2551e-10
3.37576e-10
3.34452e-10
2.26389e-10
1.20907e-10
2.10629e-08
1.04948e-08
6.18213e-09
3.94028e-09
2.17385e-09
5.7296e-10
1.02232e-10
9.14662e-11
8.76192e-11
8.41896e-11
8.4775e-11
8.6679e-11
8.93051e-11
9.24175e-11
9.49505e-11
9.88255e-11
1.06782e-10
1.16562e-10
1.22581e-10
1.24195e-10
1.15356e-10
8.2149e-11
5.80558e-11
2.04915e-08
9.11151e-09
3.77593e-09
2.75345e-09
1.65842e-09
5.41836e-10
1.30295e-10
7.17116e-11
5.79051e-11
4.67387e-11
3.9854e-11
3.67594e-11
3.55769e-11
3.58752e-11
3.69141e-11
3.80962e-11
3.91293e-11
3.99635e-11
4.04291e-11
3.92704e-11
3.66398e-11
3.04059e-11
2.55748e-11
1.20719e-07
6.47555e-09
2.19117e-09
7.42865e-10
4.81991e-10
2.55221e-10
1.42498e-10
9.98852e-11
7.2599e-11
4.65889e-11
3.03024e-11
2.13891e-11
1.64721e-11
1.38257e-11
1.27724e-11
1.25233e-11
1.22731e-11
1.18417e-11
1.14666e-11
1.11133e-11
1.02376e-11
9.67785e-12
1.00435e-11
1.68379e-07
1.45447e-08
2.20281e-09
2.17345e-10
2.36196e-10
2.29072e-10
2.00566e-10
1.68533e-10
1.26316e-10
7.76219e-11
4.68248e-11
2.76102e-11
1.52315e-11
8.59788e-12
5.44092e-12
4.16502e-12
3.41526e-12
2.96122e-12
2.74117e-12
2.71073e-12
2.8269e-12
3.13615e-12
3.59823e-12
2.00033e-07
1.27157e-07
2.174e-10
2.17405e-10
3.59086e-10
3.73055e-10
3.35318e-10
2.87445e-10
2.26402e-10
1.36033e-10
8.27147e-11
4.93227e-11
2.6081e-11
1.25797e-11
5.53921e-12
2.49483e-12
1.32492e-12
7.99257e-13
6.25198e-13
6.22496e-13
6.80313e-13
8.09044e-13
1.21049e-12
1.98471e-07
2.16127e-07
2.65553e-09
2.17144e-10
4.29611e-10
5.15028e-10
5.05434e-10
4.88515e-10
3.84777e-10
2.1596e-10
1.38641e-10
8.57996e-11
4.87126e-11
2.37322e-11
1.00748e-11
3.79989e-12
1.33796e-12
4.87197e-13
2.0334e-13
1.3529e-13
1.52962e-13
2.40308e-13
3.52572e-13
1.60886e-07
2.31589e-07
2.12208e-08
2.17051e-10
4.34082e-10
5.64039e-10
5.83646e-10
6.42435e-10
5.97466e-10
2.90053e-10
1.92567e-10
1.33926e-10
7.95686e-11
4.22276e-11
1.87756e-11
7.17044e-12
2.40199e-12
7.07229e-13
1.9794e-13
5.48587e-14
3.57346e-14
4.87543e-14
1.06904e-13
8.82087e-08
2.43758e-07
1.34964e-07
2.16982e-10
3.83104e-10
4.26338e-10
4.60366e-10
8.19612e-10
6.85109e-10
3.50526e-10
2.42484e-10
1.78234e-10
1.16633e-10
6.64317e-11
3.1386e-11
1.25637e-11
4.34814e-12
1.28637e-12
3.28031e-13
7.78338e-14
1.60404e-14
1.34366e-14
2.45895e-14
7.41442e-08
2.49858e-07
1.9185e-07
2.17051e-10
6.67108e-10
1.61762e-09
4.61191e-10
7.27394e-09
4.67574e-10
3.38607e-10
2.97036e-10
2.19095e-10
1.52071e-10
9.11312e-11
4.5393e-11
1.93409e-11
7.11148e-12
2.20218e-12
5.60654e-13
1.14566e-13
2.43926e-14
4.21259e-15
5.47003e-15
1.27213e-08
1.1487e-07
1.38598e-07
2.17147e-10
2.04538e-09
5.78935e-08
1.25813e-07
1.69432e-08
3.34964e-10
3.34758e-10
3.43854e-10
2.6763e-10
1.91753e-10
1.10552e-10
5.76244e-11
2.57915e-11
1.00731e-11
3.31902e-12
8.88931e-13
1.9198e-13
3.67628e-14
3.14672e-15
1.24325e-15
6.58277e-09
1.90296e-08
1.53518e-08
4.6599e-09
1.44039e-09
1.01214e-07
3.01395e-07
2.64565e-08
3.34605e-10
3.3796e-10
3.65589e-10
2.85936e-10
2.05537e-10
1.20882e-10
6.34017e-11
2.99408e-11
1.24043e-11
4.33461e-12
1.21565e-12
2.75752e-13
5.70471e-14
6.07313e-15
4.13045e-16
1.26596e-09
4.33574e-10
4.33567e-10
4.33566e-10
1.44558e-09
1.17023e-07
4.85132e-07
2.70515e-07
3.34988e-10
3.68477e-10
3.75322e-10
2.96058e-10
2.07388e-10
1.19239e-10
6.19829e-11
2.96628e-11
1.2842e-11
4.77534e-12
1.42232e-12
3.38797e-13
7.0338e-14
7.97574e-15
3.28424e-16
1.38289e-09
7.06952e-10
7.4912e-10
1.4317e-09
9.87904e-09
4.26731e-07
1.46419e-06
6.98093e-07
3.3455e-10
4.19809e-10
3.55866e-10
2.85301e-10
1.96798e-10
1.08469e-10
5.36237e-11
2.509e-11
1.10138e-11
4.28866e-12
1.38895e-12
3.47214e-13
7.39971e-14
9.8316e-15
5.08154e-16
8.09894e-10
8.06807e-10
9.18871e-10
2.73964e-09
2.74301e-09
1.1058e-06
1.46413e-06
8.51286e-07
7.32096e-10
4.34498e-10
3.00487e-10
2.48446e-10
1.69147e-10
8.87523e-11
4.08778e-11
1.78994e-11
7.62718e-12
3.0153e-12
1.03764e-12
2.83387e-13
6.21213e-14
7.12103e-15
6.43716e-16
2.67131e-07
1.25927e-08
1.39656e-09
2.74733e-09
2.74638e-09
1.04662e-06
1.45705e-06
2.2699e-07
2.66911e-10
3.74261e-10
2.17028e-10
1.88418e-10
1.25995e-10
6.35096e-11
2.68009e-11
1.051e-11
4.10694e-12
1.57509e-12
5.62984e-13
1.63676e-13
3.67298e-14
5.51195e-15
5.90027e-16
5.08357e-07
1.10822e-07
2.13315e-09
3.10686e-09
2.75025e-09
1.32192e-07
4.93243e-07
2.39194e-08
2.66051e-10
2.65175e-10
1.309e-10
1.17325e-10
7.75873e-11
3.82253e-11
1.46079e-11
4.89601e-12
1.62335e-12
5.55233e-13
1.92944e-13
6.55395e-14
1.72844e-14
2.25879e-15
3.62215e-16
5.08357e-07
2.10404e-07
5.47467e-09
4.45283e-09
8.75966e-09
-2.50522e-13
-1.42689e-19
1.1244e-17
7.39833e-10
1.5248e-10
6.15516e-11
5.60332e-11
3.75747e-11
1.82696e-11
6.36641e-12
1.76865e-12
4.50233e-13
1.1988e-13
4.05162e-14
1.66638e-14
4.5739e-15
8.61368e-16
1.69331e-16
3.71468e-07
1.17731e-07
4.76443e-09
2.39968e-09
6.11807e-09
8.06599e-10
4.71119e-11
1.12145e-11
1.92961e-10
3.5873e-11
1.98493e-11
1.85852e-11
1.28653e-11
6.12873e-12
1.97266e-12
4.45946e-13
7.9657e-14
1.39859e-14
4.34994e-15
2.70052e-15
8.75267e-16
2.47301e-16
6.37466e-17
3.11261e-322
-8.31423e-31
3.01066e-10
1.44743e-10
1.92975e-11
2.27012e-12
2.7226e-13
1.38931e-11
8.16195e-13
5.77438e-13
3.2647e-12
3.15506e-12
2.31949e-12
1.08934e-12
3.2208e-13
5.80943e-14
7.08732e-15
7.52837e-16
2.40639e-16
2.70563e-16
1.6639e-16
5.77059e-17
2.0845e-17
0.909594
0.875881
0.851314
0.772389
0.616473
0.517377
0.387258
0.3572
0.0242552
0.00167261
0.00836095
-1.34576e-36
-2.52242e-11
-3.80851e-13
-3.04018e-12
-9.90016e-12
1.10459e-24
5.48419e-25
5.57479e-06
1.53647e-05
1.24236e-05
1.36495e-05
1.95995e-06
6.29787e-06
0.000642227
0.000174626
1.16018e-06
1.16108e-06
0.00679766
0.000199393
9.01119e-06
1.17646e-06
0.0190679
0.0190714
0.0190698
0.00957742
0.00473234
0.0190764
0.019072
0.019076
0.000227621
0.000299825
0.000245787
0.00469752
3.65225e-07
3.65277e-07
1.12247e-06
0.000141409
3.65474e-07
3.65324e-07
3.66205e-07
4.18968e-06
1.06156e-06
4.2745e-06
7.44456e-06
8.78645e-06
8.80028e-07
3.6713e-06
5.27814e-06
4.26496e-06
1.38919e-07
2.55761e-07
1.46244e-07
2.44473e-07
8.83964e-10
8.54556e-10
8.60138e-10
8.5668e-10
9.64795e-10
1.12977e-09
1.27028e-09
1.48116e-09
7.6283e-10
8.44529e-10
9.51718e-10
1.03266e-09
4.69968e-10
5.1965e-10
5.57257e-10
5.96975e-10
3.07016e-10
3.09123e-10
3.32749e-10
3.41339e-10
1.82247e-10
1.855e-10
1.90032e-10
1.98752e-10
1.02889e-10
1.03979e-10
1.07445e-10
1.1037e-10
5.3531e-11
5.47331e-11
5.68035e-11
6.11974e-11
2.55267e-11
2.6457e-11
2.88985e-11
3.06716e-11
1.0962e-11
1.18839e-11
1.30526e-11
1.5029e-11
4.3738e-12
4.8508e-12
5.80693e-12
6.52822e-12
1.59091e-12
1.89288e-12
2.23986e-12
2.67606e-12
5.49405e-13
6.6191e-13
8.61851e-13
1.06097e-12
1.68699e-13
2.21857e-13
2.89563e-13
3.58716e-13
4.83238e-14
6.64539e-14
8.98305e-14
1.23588e-13
1.14304e-14
1.72203e-14
2.58536e-14
3.34636e-14
2.71927e-15
4.43918e-15
6.48028e-15
1.01535e-14
4.99244e-16
8.64863e-16
1.57732e-15
2.127e-15
9.76294e-17
1.74551e-16
2.86971e-16
5.16123e-16
1.79244e-17
2.6396e-17
6.47008e-17
9.00309e-17
7.06377e-18
5.59625e-18
9.06666e-18
2.07169e-17
6.25242e-18
1.25551e-18
1.72821e-18
2.78666e-18
6.96748e-18
5.8795e-19
2.16183e-19
5.23223e-19
6.39811e-18
4.52772e-19
5.55826e-20
4.77016e-20
4.68576e-18
3.56804e-19
2.14435e-20
6.95262e-21
2.81608e-18
2.23089e-19
1.37871e-20
9.00186e-22
0.694925
0.920576
0.988545
0.998151
0.999597
0.974395
0.696707
0.968553
0.954693
0.943978
0.927641
0.711051
0.543756
0.663841
0.868264
0.868267
0.767933
0.622904
0.430801
0.444524
0.911101
0.969574
0.930955
0.946602
0.99407
0.986526
0.992029
0.945479
0.891016
0.87514
0.771504
0.529872
0.739876
0.837579
0.771907
0.774568
0.713498
0.429492
7.83254e-17
0.149324
0.448847
0.645035
0.888515
0.947922
0.984191
0.970689
0.916192
0.746001
0.586878
0.483848
0.45926
0.535593
0.483418
0.288688
0.369961
0.58134
0.589175
-5.20335e-13
-1.63061e-25
0.0112646
0.076168
0.267481
0.643106
0.816807
0.615002
0.178683
0.0836121
0.230992
0.445033
0.421703
0.496315
0.37019
0.265262
0.265058
0.266122
0.590121
6.83804e-06
9.01575e-07
0.000142632
2.11096e-08
6.37008e-07
0.0304618
0.110564
0.037895
3.46107e-05
3.13619e-05
3.1367e-05
0.011535
0.0716136
0.385191
0.441896
0.455563
0.289084
0.174632
0.169064
0.000172426
6.71849e-05
4.47588e-06
2.19345e-08
5.84445e-06
6.00525e-06
6.17134e-06
6.34082e-06
2.93765e-05
5.42072e-05
0.001208
0.00143102
0.000654775
0.0141375
0.0661965
0.383265
0.402777
0.183305
0.081913
0.000857762
0.00136964
0.000412118
6.23442e-05
7.70667e-06
6.18432e-06
6.34095e-06
6.51487e-06
8.16454e-06
1.68106e-05
7.52854e-07
0.000239396
0.000641475
0.00351871
0.00161089
0.0144878
0.133343
0.172842
0.0843594
0.00228556
0.00274819
0.00227465
0.000786009
0.000912901
0.0012862
0.000973004
0.000550149
0.000351276
0.000135382
2.37492e-07
2.5851e-07
0.00183927
0.00304952
0.00161422
0.000899278
0.000109609
0.113357
0.117893
0.000940336
0.000670763
0.000236232
0.00101345
0.00393134
0.00424677
0.00424692
0.00424612
0.00241218
4.47623e-05
2.44722e-07
1.29719e-06
1.35299e-06
0.00716438
0.00723373
0.00082143
0.000118209
0.0414309
0.113561
0.00877576
1.80849e-05
-1.77052e-10
0.000124036
0.000106401
0.00106191
0.00339672
0.00235913
0.000662713
0.000179631
2.78053e-07
2.87351e-07
0.000375752
0.00848867
0.00937881
0.0051246
0.000109639
0.00472539
0.0370429
0.0045182
0.000127832
4.55534e-07
-5.39454e-09
-7.75916e-09
6.41422e-06
0.000134367
8.43358e-05
2.25375e-05
1.64424e-05
3.06377e-06
2.7987e-07
0.0013759
0.00937974
0.00938084
0.00583308
0.000168074
0.00454004
0.000148418
0.000415215
0.000108941
8.74393e-08
1.89541e-06
5.86363e-06
1.01291e-05
1.11593e-05
1.11907e-05
6.7586e-06
3.04448e-07
2.84615e-07
2.85099e-07
9.77613e-06
0.00758722
0.00772794
0.00314556
4.00223e-05
0.00203394
0.000151185
6.29601e-05
4.81932e-05
8.76357e-06
9.21126e-06
2.52146e-06
1.75582e-06
1.7391e-06
9.49375e-05
0.00021624
0.00021667
0.000176989
5.02122e-05
8.7063e-05
0.00128357
0.000553256
0.00012558
3.2373e-06
0.000657138
7.15233e-05
1.51356e-05
4.01307e-05
3.99114e-05
1.39838e-05
3.57754e-05
4.50169e-05
4.45466e-05
9.57e-05
0.000213328
0.000185653
0.000114128
5.24855e-05
5.76325e-06
1.61497e-06
1.58984e-06
1.64127e-06
2.54336e-06
1.08597e-06
4.06649e-06
3.67957e-06
8.01069e-06
8.28018e-06
2.25418e-06
6.35171e-06
2.23655e-05
4.86076e-05
5.9461e-05
5.90091e-05
1.42943e-05
2.22442e-05
5.08747e-05
3.99542e-05
4.57941e-06
1.69546e-06
1.666e-06
8.2446e-06
4.94385e-07
3.9968e-08
1.99594e-09
1.99601e-09
1.99555e-09
1.99565e-09
1.99517e-09
1.1229e-06
1.19202e-05
1.77154e-05
7.12129e-06
2.55449e-06
3.74708e-05
5.96712e-05
5.97916e-05
2.63589e-05
4.62834e-06
6.17287e-06
8.87181e-06
1.21491e-06
3.99905e-08
2.00734e-09
2.74318e-09
3.01131e-09
2.70045e-09
2.60446e-09
2.60112e-09
2.48651e-09
2.48916e-09
7.08176e-09
1.66865e-06
2.36494e-05
4.32863e-05
2.41974e-05
1.79258e-05
1.53307e-05
1.48586e-05
3.59412e-06
5.77965e-07
3.9972e-08
1.79161e-09
2.55169e-09
3.2906e-09
3.53108e-09
3.60775e-09
3.38722e-09
2.96875e-09
4.47596e-09
2.62101e-08
1.79686e-07
3.08862e-07
1.19364e-06
4.21063e-06
7.89986e-06
7.47929e-06
5.11252e-06
3.15458e-07
1.40914e-07
1.34353e-07
1.19989e-09
1.63138e-09
1.93657e-09
2.25324e-09
2.74128e-09
4.13053e-09
8.63593e-09
2.05791e-08
2.51291e-08
8.44324e-09
2.09356e-09
2.09375e-09
4.99566e-07
1.58702e-06
5.22604e-06
1.24826e-05
6.17647e-06
1.29134e-06
3.02454e-07
6.65969e-10
8.48973e-10
9.74193e-10
1.16458e-09
1.76638e-09
5.98609e-09
1.2781e-08
1.9483e-08
2.57625e-08
2.14675e-08
5.83665e-09
2.09391e-09
2.0941e-09
4.91012e-06
1.50983e-05
1.51018e-05
1.50983e-05
1.44467e-05
4.53605e-07
3.85685e-10
4.72736e-10
5.67649e-10
7.45868e-10
1.17825e-09
3.10256e-09
7.48488e-09
1.1265e-08
2.23562e-08
2.14949e-08
8.95067e-09
2.09408e-09
1.23776e-06
9.76463e-06
1.51019e-05
1.50983e-05
1.51019e-05
1.41987e-05
4.44471e-07
2.19287e-10
2.8323e-10
3.57814e-10
4.96892e-10
7.47949e-10
1.18604e-09
2.07723e-09
3.37374e-09
7.06434e-09
8.23213e-09
8.19092e-09
2.50422e-07
1.68662e-06
2.98309e-06
2.65316e-06
5.96012e-06
3.77656e-06
9.31754e-06
1.19809e-05
1.24785e-10
1.59068e-10
2.10608e-10
3.14807e-10
4.85376e-10
7.22487e-10
1.10745e-09
1.82275e-09
2.84288e-09
5.52107e-09
3.64475e-08
1.68455e-07
2.54471e-07
4.48701e-10
5.06995e-10
4.84371e-10
6.76185e-10
1.76964e-06
1.77273e-05
6.81902e-11
8.9891e-11
1.22032e-10
1.88849e-10
3.05704e-10
4.63297e-10
7.15929e-10
1.24116e-09
2.42573e-09
4.88437e-09
1.11061e-08
6.03568e-09
5.69235e-09
1.14471e-08
1.85819e-08
9.83652e-09
8.35406e-10
1.11603e-06
1.77272e-05
3.58551e-11
4.95419e-11
6.97681e-11
1.08463e-10
1.74974e-10
2.72018e-10
4.23762e-10
7.33551e-10
1.39811e-09
2.65985e-09
4.05665e-09
2.92568e-09
1.43358e-08
3.33883e-08
3.33658e-08
2.01179e-08
5.12995e-09
7.64231e-07
1.67608e-05
1.75924e-11
2.484e-11
3.59935e-11
5.61829e-11
9.05077e-11
1.43052e-10
2.27488e-10
3.93774e-10
7.52138e-10
1.44062e-09
2.38342e-09
2.93169e-09
1.13202e-08
2.63252e-08
3.05502e-08
1.91434e-08
1.57577e-08
2.24025e-07
1.94e-06
7.77844e-12
1.15555e-11
1.68652e-11
2.63752e-11
4.25694e-11
6.78308e-11
1.08857e-10
1.88908e-10
3.62526e-10
7.08527e-10
1.25267e-09
1.80278e-09
2.74415e-09
4.01977e-09
1.05959e-08
1.20962e-08
9.83063e-09
2.223e-09
2.74883e-09
3.35798e-12
4.88969e-12
7.29498e-12
1.13878e-11
1.83065e-11
2.92558e-11
4.726e-11
8.24697e-11
1.59751e-10
3.18244e-10
5.78797e-10
8.5694e-10
6.52708e-10
1.53661e-10
1.26641e-10
1.17615e-09
2.38443e-09
2.09311e-09
7.84796e-09
1.27007e-12
1.96073e-12
2.93872e-12
4.56351e-12
7.24545e-12
1.15237e-11
1.86007e-11
3.25612e-11
6.38573e-11
1.3154e-10
2.58646e-10
4.30956e-10
4.37037e-10
1.38281e-10
7.77005e-11
7.88619e-11
2.28155e-10
1.5852e-09
6.70189e-09
4.7411e-13
7.39975e-13
1.1154e-12
1.71319e-12
2.66807e-12
4.18977e-12
6.63247e-12
1.13669e-11
2.19037e-11
4.55328e-11
9.49671e-11
1.3975e-10
1.82299e-10
9.90602e-11
6.48677e-11
6.505e-11
7.89226e-11
5.84298e-10
2.21522e-09
1.55332e-13
2.61087e-13
3.99395e-13
6.06527e-13
9.1696e-13
1.39453e-12
2.13204e-12
3.37004e-12
5.84816e-12
9.89421e-12
9.57289e-12
1.47654e-11
3.08619e-11
4.78775e-11
3.37747e-11
3.50469e-11
4.42516e-11
5.25639e-11
1.08512e-10
5.19873e-14
8.61231e-14
1.34723e-13
2.03627e-13
3.02674e-13
4.43731e-13
6.36082e-13
9.48073e-13
1.47886e-12
2.12619e-12
9.44017e-13
7.54787e-13
4.12512e-12
1.57579e-11
1.6219e-11
1.14062e-11
1.04106e-11
1.12447e-11
1.84202e-12
1.34794e-14
2.51022e-14
4.04156e-14
6.17229e-14
8.84921e-14
1.25977e-13
1.8236e-13
2.57263e-13
3.59194e-13
4.98822e-13
3.05613e-13
1.36403e-13
3.30932e-13
2.91946e-12
5.77203e-12
5.84613e-12
3.35896e-12
2.01992e-12
1.14654e-12
3.72034e-15
6.85637e-15
1.13239e-14
1.72821e-14
2.55572e-14
3.6039e-14
4.89633e-14
6.50347e-14
8.7098e-14
1.1453e-13
8.46815e-14
4.01954e-14
4.37004e-14
2.88609e-13
1.09186e-12
2.2427e-12
1.9759e-12
1.43233e-12
7.5045e-13
7.0822e-16
1.64577e-15
2.90668e-15
4.78497e-15
6.9874e-15
9.38554e-15
1.20548e-14
1.62008e-14
2.24703e-14
2.89753e-14
2.77329e-14
2.13121e-14
3.46433e-14
9.55634e-14
3.73554e-13
7.19477e-13
1.25551e-12
9.62039e-13
5.66687e-13
1.75704e-16
4.04225e-16
7.28912e-16
1.17753e-15
1.72701e-15
2.34865e-15
3.16762e-15
4.25303e-15
6.01338e-15
8.50578e-15
1.11446e-14
1.48551e-14
2.71763e-14
6.3267e-14
1.87328e-13
3.70137e-13
6.16342e-13
6.99312e-13
4.87919e-13
3.18531e-17
7.53337e-17
1.56827e-16
2.63503e-16
4.02556e-16
5.78559e-16
7.91152e-16
1.15201e-15
1.809e-15
3.09147e-15
5.52495e-15
1.03398e-14
2.09022e-14
4.70742e-14
1.19391e-13
2.82772e-13
4.40125e-13
5.33142e-13
4.14339e-13
6.17305e-18
1.53603e-17
3.18934e-17
5.75604e-17
9.18893e-17
1.35131e-16
1.96406e-16
3.02646e-16
5.79658e-16
1.27569e-15
2.88399e-15
6.51331e-15
1.44642e-14
3.1406e-14
8.06128e-14
2.04132e-13
3.46704e-13
4.32411e-13
3.01848e-13
8.99775e-19
2.82098e-18
6.2737e-18
1.18854e-17
1.97653e-17
3.00999e-17
4.81059e-17
8.76445e-17
2.06614e-16
5.54005e-16
1.48919e-15
3.80418e-15
9.22974e-15
2.07175e-14
4.65231e-14
1.1706e-13
2.48033e-13
3.30135e-13
2.07924e-13
1.23003e-19
3.57292e-19
8.68911e-19
1.7181e-18
3.1978e-18
5.7117e-18
1.00417e-17
2.2226e-17
6.63398e-17
2.10479e-16
6.45388e-16
1.89633e-15
4.98475e-15
1.19785e-14
2.67348e-14
5.96667e-14
1.40098e-13
2.04303e-13
1.24908e-13
1.54216e-20
4.73817e-20
1.14005e-19
2.45198e-19
5.0102e-19
9.6057e-19
2.02541e-18
5.35656e-18
1.94308e-17
7.20804e-17
2.62086e-16
8.50443e-16
2.41154e-15
6.28449e-15
1.46678e-14
3.13875e-14
7.05339e-14
1.05939e-13
6.67396e-14
1.76731e-21
6.22126e-21
1.74805e-20
4.08775e-20
8.62744e-20
1.72295e-19
3.99336e-19
1.24292e-18
5.23371e-18
2.25399e-17
9.24145e-17
3.30238e-16
1.036e-15
2.84993e-15
7.07457e-15
1.56082e-14
2.99905e-14
4.46224e-14
3.34616e-14
)
;

boundaryField
{
    leftWall
    {
        type            zeroGradient;
    }
    rightWall
    {
        type            zeroGradient;
    }
    lowerWall
    {
        type            zeroGradient;
    }
    atmosphere
    {
        type            inletOutlet;
        inletValue      uniform 0;
        value           nonuniform List<scalar> 
46
(
0
0
0
0
0
0
0
0
0
0
0
0
0
0
0
0
0
0
0
0
0
0
2.0845e-17
2.81608e-18
2.23089e-19
1.37871e-20
9.00186e-22
1.76731e-21
6.22126e-21
1.74805e-20
4.08775e-20
8.62744e-20
1.72295e-19
3.99336e-19
1.24292e-18
5.23371e-18
2.25399e-17
9.24145e-17
3.30238e-16
1.036e-15
2.84993e-15
7.07457e-15
1.56082e-14
2.99905e-14
4.46224e-14
3.34616e-14
)
;
    }
    defaultFaces
    {
        type            empty;
    }
}


// ************************************************************************* //
