/*--------------------------------*- C++ -*----------------------------------*\
| =========                 |                                                 |
| \\      /  F ield         | OpenFOAM: The Open Source CFD Toolbox           |
|  \\    /   O peration     | Version:  2312                                  |
|   \\  /    A nd           | Website:  www.openfoam.com                      |
|    \\/     M anipulation  |                                                 |
\*---------------------------------------------------------------------------*/
FoamFile
{
    version     2.0;
    format      ascii;
    arch        "LSB;label=32;scalar=64";
    class       volScalarField;
    location    "2.85";
    object      alpha.water_0;
}
// * * * * * * * * * * * * * * * * * * * * * * * * * * * * * * * * * * * * * //

dimensions      [0 0 0 0 0 0 0];

internalField   nonuniform List<scalar> 
2268
(
2.12327e-07
5.00398e-08
4.10876e-09
6.72555e-10
3.32331e-10
2.02473e-10
1.03456e-10
6.20733e-11
4.52166e-11
3.61973e-11
3.28507e-11
3.28158e-11
3.51442e-11
4.07663e-11
5.13077e-11
6.90282e-11
9.89989e-11
1.46489e-10
2.11137e-10
4.06619e-10
7.34171e-10
1.10494e-09
1.31961e-09
5.64741e-07
2.24571e-07
2.89992e-09
2.94743e-10
2.9438e-10
1.78973e-10
1.63256e-10
1.45874e-10
9.63604e-11
6.46829e-11
4.93041e-11
4.4475e-11
4.86708e-11
6.11931e-11
8.29963e-11
1.16114e-10
1.60442e-10
2.63679e-10
4.55395e-10
8.02166e-10
1.38015e-09
1.78143e-09
1.71599e-09
3.87197e-07
2.04728e-07
-3.88406e-15
8.23113e-10
2.01589e-10
2.02207e-10
4.22358e-10
4.14458e-10
3.08703e-10
1.37435e-10
7.16827e-11
5.57852e-11
5.92808e-11
8.75857e-11
1.34643e-10
1.83486e-10
2.32233e-10
3.1371e-10
4.62316e-10
7.85535e-10
1.52614e-09
2.54689e-09
1.38991e-09
3.28243e-09
3.53982e-09
6.60853e-13
3.08543e-11
1.12296e-11
2.01973e-11
8.27727e-11
1.11063e-10
9.92842e-11
4.99283e-11
2.9679e-11
2.4416e-11
2.75817e-11
5.30223e-11
9.24207e-11
1.16415e-10
1.23326e-10
1.49023e-10
2.01017e-10
3.32068e-10
2.56083e-09
1.98361e-08
1.24048e-09
0.00682926
-2.18529e-09
-6.04062e-32
1.23415e-25
5.601e-25
4.42343e-25
5.42395e-26
5.88679e-26
5.42203e-26
1.21242e-24
7.0192e-13
1.08882e-12
1.23682e-12
1.22355e-12
1.29374e-12
5.94703e-11
4.09066e-09
3.78321e-20
3.51777e-11
5.79911e-20
3.51777e-11
-3.74906e-20
3.51777e-11
0.567257
0.554612
0.531911
0.510895
0.478598
0.422417
0.326976
0.206579
0.0929525
0.0152953
4.04249e-18
7.35411e-27
2.22312e-23
4.28426e-08
4.33102e-06
0.00159273
0.00790058
0.0235126
0.0496436
0.0876671
0.12703
0.159183
0.157461
0.99351
0.993621
0.994669
0.995454
0.994541
0.989135
0.972104
0.917054
0.799142
0.622828
0.418873
0.293625
0.264995
0.300945
0.377052
0.452415
0.543647
0.64237
0.723787
0.794122
0.840815
0.875491
0.871733
0.997008
0.998188
0.998734
0.999496
0.999496
0.999496
0.999496
0.999496
0.999496
0.999496
0.989508
0.957722
0.936282
0.93573
0.931768
0.937577
0.950096
0.976818
0.973113
0.966159
0.972024
0.979978
0.975253
0.0259883
0.0259996
0.0259887
0.0247696
0.0116618
0.0111597
0.0140851
0.017519
0.0196998
0.0197
0.0191924
0.0169606
0.0167287
0.016713
0.0150795
0.0110132
0.0103293
0.0088983
0.00818271
0.099226
0.0416002
0.0175966
0.0125601
0.00930739
0.00931444
0.00897834
0.0106615
0.0142505
0.0162504
0.0168449
0.00894065
0.00719835
0.00606615
0.00605315
0.00601733
0.00603944
0.00810002
0.00814119
0.583462
0.454714
0.365263
0.278806
0.144666
0.0195182
0.00581919
0.00582574
0.00582807
0.00585758
0.0090193
0.024547
0.0351487
0.0352012
0.0279442
0.112529
0.0373082
0.00810738
0.00811738
0.629993
0.660238
0.67936
0.589695
0.491965
0.250777
0.123769
0.249177
0.28611
0.200154
0.270188
0.352647
0.370002
0.354838
0.324735
0.337878
0.168595
0.0749212
0.094975
0.628913
0.89117
0.947085
0.760273
0.686774
0.465039
0.568053
0.932855
0.924634
0.834461
0.482975
0.458727
0.429438
0.434902
0.627968
0.750279
0.772759
0.682968
0.451555
0.629091
0.944795
0.994372
0.986071
0.941134
0.556399
0.86135
0.967385
0.967354
0.957613
0.520689
0.45513
0.458654
0.80993
0.863805
0.863784
0.867103
0.867247
0.790681
0.867534
0.88715
0.990004
0.999695
0.999698
0.856752
0.620191
0.967552
0.947397
0.647885
0.467774
0.46526
0.504827
0.85858
0.868216
0.868197
0.868156
0.866016
0.856716
0.889514
0.922968
0.987993
0.999698
0.999694
0.921871
0.604123
0.967371
0.93832
0.790773
0.721225
0.719119
0.657218
0.742881
0.868226
0.868212
0.852786
0.835151
0.752399
0.998231
0.999103
0.99949
0.99949
0.999449
0.999394
0.999496
0.999496
0.999496
0.999496
0.999496
0.99946
0.99878
0.960721
0.893941
0.77455
0.80957
0.978463
0.978445
0.979011
0.979978
0.979963
0.977284
0.999123
0.999123
0.996702
0.993952
0.994154
0.990029
0.988985
0.991651
0.992817
0.990178
0.971541
0.964455
0.971998
0.89455
0.724839
0.715899
0.885694
0.884905
0.858944
0.830576
0.786553
0.741088
0.698046
0.999104
0.999123
0.999038
0.995686
0.98921
0.972752
0.790588
0.763565
0.754897
0.664211
0.558792
0.520151
0.507751
0.473621
0.42831
0.46607
0.375379
0.249628
0.177606
0.133884
0.100176
0.0735593
0.0520841
0.779951
0.789408
0.776822
0.689563
0.630815
0.734031
0.620194
0.176765
0.0804375
0.0365672
0.0116542
0.00643822
0.0050049
0.00733852
0.0126442
2.0533e-07
-4.1554e-07
1.88147e-09
7.18201e-06
9.97265e-06
5.84226e-10
-2.15451e-16
-5.89072e-10
0.00190907
0.00574279
0.0118621
0.015005
0.0149416
0.0352206
0.297586
0.199072
0.00162797
2.37758e-06
2.21426e-06
2.56513e-06
2.75055e-06
4.14469e-06
6.27531e-05
0.00024821
0.000387531
0.00062581
0.00043957
0.000328067
0.000176193
5.89699e-05
9.47401e-06
0.00203416
0.000100975
0.000100764
0.000100976
0.000100764
0.0030705
0.0597973
0.105448
0.0504712
0.000246585
1.38231e-05
5.15875e-05
0.000133926
9.24395e-05
5.32055e-05
5.22268e-05
5.22164e-05
0.00319674
0.0115962
0.00968947
0.00307848
0.000419183
1.48372e-05
0.00542126
0.00165266
0.00316571
0.00467472
0.00316474
0.00343078
0.00492945
0.00726624
0.00867015
0.00585361
0.00173421
0.000666487
0.00313058
0.00632274
0.00436286
0.000638347
5.34344e-05
5.44606e-05
0.0162637
0.0207114
0.020696
0.0116548
0.00399691
0.00542126
0.00539765
0.00542099
0.00542083
0.00229458
0.000441375
0.000586572
0.000741083
0.000630246
0.000763638
0.000551921
0.000307482
0.000310454
0.00706255
0.0106208
0.0106327
0.0074887
0.00213997
0.00206559
0.00897065
0.0195213
0.0204389
0.016395
0.00380922
0.000871795
0.00346509
0.00345079
0.000471234
1.30091e-07
1.79489e-07
4.92638e-07
1.03716e-06
1.52541e-06
0.000139966
0.000302842
0.000184829
8.11572e-05
8.20145e-05
0.000118042
0.00796477
0.0115835
0.0116006
0.00518993
0.00400142
0.00418722
0.0170918
0.00357968
0.000128951
8.50053e-06
3.16451e-05
2.19831e-09
2.19831e-09
1.0064e-07
7.20488e-07
9.91126e-07
1.07444e-06
8.35141e-07
7.19576e-07
9.3761e-05
0.000317968
0.000317925
0.000160103
4.13004e-07
4.14043e-07
0.000819874
0.00381475
0.00401314
0.00145279
0.000197554
0.00134529
0.00106778
9.43286e-05
9.69986e-08
7.93466e-08
2.19831e-09
4.4006e-08
2.30368e-06
3.01192e-05
3.11197e-05
8.66374e-06
2.61602e-06
1.55701e-06
8.79501e-05
0.000316716
0.000244165
1.41018e-05
6.20127e-07
5.42054e-07
2.57866e-05
0.000162683
0.000195794
0.000197899
1.96629e-07
0.00114718
0.000616496
2.29297e-06
4.56976e-06
6.17029e-07
9.24153e-07
3.88889e-05
6.25677e-05
6.25926e-05
2.75846e-05
2.70414e-06
1.5751e-06
1.38243e-06
1.37295e-06
1.38204e-06
1.46129e-06
6.88252e-07
3.65989e-07
3.65874e-07
3.65706e-07
5.09607e-07
9.11068e-07
1.9038e-07
0.000234707
0.000206309
4.62609e-05
2.20959e-05
2.54398e-05
5.67075e-05
6.11071e-05
6.24831e-05
4.26941e-05
7.88806e-06
2.20685e-06
1.55895e-06
2.13701e-06
2.78777e-06
2.04521e-06
5.18777e-07
3.6599e-07
3.65874e-07
3.65706e-07
3.65612e-07
3.65706e-07
3.66414e-07
1.84484e-07
1.89928e-07
1.96501e-07
5.72446e-07
1.2985e-05
5.31541e-05
5.61916e-05
4.44576e-05
5.35978e-06
5.12905e-06
6.72672e-06
3.39128e-06
3.86722e-06
6.80968e-06
8.11897e-06
1.46476e-05
5.54952e-06
3.66069e-07
1.82479e-05
7.26023e-05
7.23954e-05
4.68118e-05
3.92129e-06
3.83552e-08
2.04823e-07
3.73089e-07
6.95019e-07
9.99753e-07
7.85308e-07
8.52582e-07
8.55192e-07
1.24855e-06
1.54051e-06
6.46758e-06
6.5201e-06
1.94647e-05
4.52052e-05
6.71799e-05
7.10253e-05
7.17557e-05
4.05806e-05
1.59755e-05
2.75139e-05
2.81431e-05
1.08182e-05
1.51758e-06
3.84457e-08
1.74233e-07
8.59081e-07
8.61805e-07
8.22268e-07
7.86572e-07
8.56787e-07
1.13685e-06
2.18894e-06
4.27246e-06
1.27923e-06
4.23008e-06
6.43018e-05
8.09705e-05
7.94188e-05
1.13335e-05
4.78897e-08
2.31615e-06
5.64728e-06
6.44713e-06
2.32415e-06
2.88586e-07
1.07251e-07
3.41835e-08
1.24319e-07
7.66203e-07
8.70142e-07
9.02669e-07
1.76132e-06
2.51566e-06
2.51215e-06
2.26551e-06
1.03905e-06
1.64258e-07
5.39073e-06
1.5032e-05
1.29892e-05
2.53786e-09
2.32463e-08
5.0218e-08
8.98991e-07
1.51655e-06
9.29207e-07
4.15974e-08
1.39783e-09
6.37357e-09
2.75983e-08
8.64119e-08
2.02189e-07
5.7645e-07
1.34631e-06
1.9765e-06
1.64471e-06
6.39491e-07
5.41677e-08
1.62952e-07
1.64291e-07
3.78253e-08
2.0625e-09
2.01377e-09
2.46662e-09
2.03635e-08
8.645e-08
1.13005e-07
3.27265e-08
7.59497e-10
7.6154e-10
1.41451e-09
2.12456e-09
1.01646e-08
4.08238e-08
3.48724e-08
2.12327e-08
2.44627e-10
6.03469e-08
3.02635e-09
3.00665e-09
4.07033e-08
8.17163e-08
5.42532e-08
1.6631e-08
5.78555e-09
3.05347e-09
4.99747e-09
1.17008e-08
2.54515e-08
3.84126e-08
2.95663e-08
1.65899e-09
8.3426e-10
1.25848e-09
7.69361e-10
9.1927e-09
2.1122e-08
1.56714e-08
2.49605e-10
4.61083e-10
1.15431e-09
4.68305e-09
7.12802e-09
1.85404e-08
3.24708e-08
2.46258e-08
2.88376e-09
2.33155e-09
1.96819e-09
1.92346e-09
2.45969e-09
3.33763e-09
3.4395e-09
4.38183e-09
5.02566e-09
2.8266e-09
1.4774e-09
8.95307e-10
9.19743e-09
9.24726e-09
1.22715e-08
1.40596e-08
1.54255e-08
1.49732e-08
6.92723e-09
2.41939e-10
1.70004e-09
3.2563e-09
3.10887e-09
1.39686e-09
1.18949e-09
1.11151e-09
1.03124e-09
9.80245e-10
1.22229e-09
1.72262e-09
1.83808e-09
1.96428e-09
1.76114e-09
1.12359e-09
6.13801e-10
1.54356e-08
9.22859e-09
9.23985e-09
8.30847e-09
8.36172e-09
7.59663e-09
2.29065e-09
1.86508e-10
1.89183e-10
1.89711e-10
1.90234e-10
3.8339e-10
4.94986e-10
5.02985e-10
4.83972e-10
4.7186e-10
5.53935e-10
7.39446e-10
8.32026e-10
8.26473e-10
7.50326e-10
5.51905e-10
3.03293e-10
1.84226e-08
9.8696e-09
7.36682e-09
4.62445e-09
1.25142e-09
1.03003e-10
1.02726e-10
1.70774e-10
1.88653e-10
1.92885e-10
2.05042e-10
2.08995e-10
2.16946e-10
2.16209e-10
2.18845e-10
2.2645e-10
2.5652e-10
3.04013e-10
3.28381e-10
3.39173e-10
3.37129e-10
2.31981e-10
1.22367e-10
2.128e-08
1.04691e-08
6.44469e-09
4.18113e-09
2.27669e-09
5.98103e-10
1.0245e-10
9.29664e-11
8.94908e-11
8.60199e-11
8.6517e-11
8.8639e-11
9.12348e-11
9.34692e-11
9.59022e-11
9.95897e-11
1.07376e-10
1.17155e-10
1.23348e-10
1.2493e-10
1.17035e-10
8.33843e-11
5.84531e-11
1.98207e-08
9.44444e-09
3.97471e-09
2.89299e-09
1.73985e-09
5.69566e-10
1.32181e-10
7.14278e-11
5.80748e-11
4.71346e-11
4.05605e-11
3.71988e-11
3.60211e-11
3.63168e-11
3.73318e-11
3.84895e-11
3.94853e-11
4.03002e-11
4.07462e-11
3.95608e-11
3.69378e-11
3.08044e-11
2.56266e-11
1.14395e-07
7.09479e-09
2.33014e-09
7.96671e-10
5.11547e-10
2.62119e-10
1.42226e-10
9.86393e-11
7.15679e-11
4.62588e-11
3.04754e-11
2.14071e-11
1.65957e-11
1.39779e-11
1.29234e-11
1.26759e-11
1.24212e-11
1.19709e-11
1.15712e-11
1.12109e-11
1.03572e-11
9.69122e-12
1.00376e-11
1.68689e-07
1.36058e-08
2.45549e-09
2.17372e-10
2.33116e-10
2.27934e-10
1.99992e-10
1.66087e-10
1.24766e-10
7.68903e-11
4.6115e-11
2.74178e-11
1.51726e-11
8.60658e-12
5.48007e-12
4.20944e-12
3.46617e-12
3.00077e-12
2.76694e-12
2.72906e-12
2.83083e-12
3.15325e-12
3.57575e-12
2.00743e-07
1.26345e-07
6.60936e-10
2.17421e-10
3.56961e-10
3.68075e-10
3.30538e-10
2.87017e-10
2.27536e-10
1.3517e-10
8.2051e-11
4.8995e-11
2.58877e-11
1.25201e-11
5.52887e-12
2.50354e-12
1.33575e-12
8.12108e-13
6.30242e-13
6.25508e-13
6.80818e-13
8.01288e-13
1.20344e-12
1.98999e-07
2.16355e-07
4.1854e-09
2.17428e-10
4.26709e-10
5.12232e-10
5.01172e-10
4.84696e-10
3.8247e-10
2.17757e-10
1.38471e-10
8.54081e-11
4.85559e-11
2.36417e-11
1.00494e-11
3.79927e-12
1.34214e-12
4.89938e-13
2.06602e-13
1.35618e-13
1.51617e-13
2.38538e-13
3.4848e-13
1.597e-07
2.31912e-07
2.24659e-08
2.17385e-10
4.3303e-10
5.67165e-10
5.85124e-10
6.42963e-10
5.99501e-10
2.93064e-10
1.93399e-10
1.33954e-10
7.94436e-11
4.21784e-11
1.87683e-11
7.17746e-12
2.40918e-12
7.10961e-13
1.99367e-13
5.56375e-14
3.55858e-14
4.75713e-14
1.0574e-13
8.799e-08
2.44995e-07
1.36141e-07
2.17311e-10
3.85324e-10
4.39078e-10
4.61936e-10
7.78873e-10
6.97406e-10
3.54906e-10
2.42918e-10
1.78353e-10
1.16697e-10
6.65368e-11
3.1463e-11
1.26025e-11
4.36615e-12
1.29376e-12
3.30672e-13
7.86349e-14
1.61326e-14
1.32441e-14
2.41335e-14
7.34225e-08
2.50494e-07
1.93836e-07
2.17385e-10
6.25933e-10
1.33381e-09
4.6305e-10
7.11682e-09
4.89271e-10
3.41119e-10
2.9666e-10
2.19412e-10
1.52355e-10
9.14605e-11
4.55877e-11
1.94381e-11
7.15313e-12
2.21758e-12
5.65491e-13
1.15612e-13
2.47244e-14
4.1935e-15
5.36327e-15
1.24474e-08
1.14222e-07
1.40438e-07
2.17486e-10
2.00549e-09
5.43705e-08
1.17623e-07
1.7658e-08
3.35243e-10
3.35041e-10
3.43928e-10
2.67942e-10
1.92333e-10
1.11098e-10
5.79862e-11
2.59574e-11
1.01432e-11
3.34528e-12
8.94928e-13
1.96133e-13
3.71968e-14
3.20646e-15
1.21857e-15
6.53287e-09
1.89821e-08
1.55201e-08
4.74165e-09
1.41324e-09
9.90884e-08
3.00191e-07
2.49419e-08
3.349e-10
3.37957e-10
3.66112e-10
2.86588e-10
2.06467e-10
1.21649e-10
6.38663e-11
3.01785e-11
1.25074e-11
4.37292e-12
1.22728e-12
2.78572e-13
5.76547e-14
6.23817e-15
4.11892e-16
1.24909e-09
4.33686e-10
4.33679e-10
4.33678e-10
1.42091e-09
1.12866e-07
4.55729e-07
2.66318e-07
3.35296e-10
3.68726e-10
3.76607e-10
2.97083e-10
2.08536e-10
1.20097e-10
6.25125e-11
2.99346e-11
1.2963e-11
4.82155e-12
1.43622e-12
3.42257e-13
7.11587e-14
8.07114e-15
3.36151e-16
1.39463e-09
7.1135e-10
7.4967e-10
1.42204e-09
9.98053e-09
4.1476e-07
1.46453e-06
6.83174e-07
3.34842e-10
4.2009e-10
3.58021e-10
2.87072e-10
1.98215e-10
1.09406e-10
5.41495e-11
2.53517e-11
1.11296e-11
4.3331e-12
1.40319e-12
3.50688e-13
7.48065e-14
9.94641e-15
5.22122e-16
8.2195e-10
8.19046e-10
9.19779e-10
2.75313e-09
2.75639e-09
1.10133e-06
1.46452e-06
8.56017e-07
6.82623e-10
4.36999e-10
3.03254e-10
2.50551e-10
1.70758e-10
8.96751e-11
4.13416e-11
1.81116e-11
7.71655e-12
3.04876e-12
1.04845e-12
2.86187e-13
6.27655e-14
7.18189e-15
6.58888e-16
2.70473e-07
1.24435e-08
1.3539e-09
2.77471e-09
2.75966e-09
1.06597e-06
1.46175e-06
2.37265e-07
2.70386e-10
3.7807e-10
2.19627e-10
1.90611e-10
1.27527e-10
6.42997e-11
2.71518e-11
1.06513e-11
4.1606e-12
1.59398e-12
5.6905e-13
1.65211e-13
3.70487e-14
5.55527e-15
6.01293e-16
5.08357e-07
1.09899e-07
2.23353e-09
3.12732e-09
2.76334e-09
1.47371e-07
5.2289e-07
2.44514e-08
2.69511e-10
2.68617e-10
1.32857e-10
1.1907e-10
7.8733e-11
3.87874e-11
1.48251e-11
4.96902e-12
1.64667e-12
5.62405e-13
1.95e-13
6.61074e-14
1.74191e-14
2.27261e-15
3.64719e-16
5.08357e-07
2.0874e-07
5.53087e-09
4.48451e-09
8.83055e-09
-2.67811e-13
-1.31645e-19
1.52999e-17
7.57132e-10
1.54721e-10
6.26642e-11
5.70327e-11
3.8231e-11
1.85847e-11
6.47387e-12
1.79779e-12
4.57251e-13
1.21505e-13
4.0944e-14
1.67995e-14
4.59796e-15
8.68336e-16
1.69953e-16
3.70904e-07
1.1746e-07
4.83045e-09
2.4524e-09
6.2292e-09
7.955e-10
4.47067e-11
1.10034e-11
1.98306e-10
3.66041e-11
2.02714e-11
1.89752e-11
1.3128e-11
6.25004e-12
2.01006e-12
4.53946e-13
8.09657e-14
1.41789e-14
4.39269e-15
2.72095e-15
8.81021e-16
2.47972e-16
6.39068e-17
3.11261e-322
-8.33717e-31
3.08651e-10
1.4588e-10
1.91547e-11
2.30433e-12
2.72442e-13
1.42407e-11
8.17152e-13
5.9114e-13
3.34557e-12
3.23173e-12
2.37414e-12
1.11372e-12
3.2878e-13
5.919e-14
7.20475e-15
7.62986e-16
2.42784e-16
2.72433e-16
1.67099e-16
5.78122e-17
2.08106e-17
0.91025
0.877071
0.852849
0.77079
0.624274
0.526935
0.395657
0.366189
0.0261191
0.00315801
0.00844869
-3.17129e-22
2.66867e-17
2.333e-13
-1.42673e-12
-1.03583e-11
7.96971e-08
2.48367e-13
6.20838e-06
1.64704e-05
1.30128e-05
1.34709e-05
1.38584e-06
1.16986e-05
0.000577208
0.000131025
1.15683e-06
1.15803e-06
0.00568793
0.000129193
3.20732e-06
1.15671e-06
0.019059
0.0190593
0.0190591
0.00558786
0.0106021
0.019062
0.019061
0.0190647
0.000230117
0.000176348
0.000492733
0.00623822
3.65388e-07
3.65424e-07
2.66663e-06
0.00023167
3.6548e-07
3.65434e-07
3.69206e-07
5.86526e-06
1.3045e-06
4.66739e-06
7.75833e-06
9.04627e-06
8.8557e-07
3.53004e-06
5.04245e-06
4.15526e-06
1.16769e-07
2.19958e-07
1.11429e-07
1.98931e-07
8.83679e-10
8.58835e-10
8.64325e-10
8.60881e-10
9.69563e-10
1.12431e-09
1.26712e-09
1.45856e-09
7.54766e-10
8.33373e-10
9.43111e-10
1.01575e-09
4.6675e-10
5.1514e-10
5.52565e-10
5.89442e-10
3.07389e-10
3.07805e-10
3.30969e-10
3.37164e-10
1.82121e-10
1.84988e-10
1.89376e-10
1.96957e-10
1.02868e-10
1.03725e-10
1.0718e-10
1.09219e-10
5.34823e-11
5.46e-11
5.6466e-11
6.11188e-11
2.54865e-11
2.63832e-11
2.86999e-11
3.06192e-11
1.09157e-11
1.18181e-11
1.2927e-11
1.50099e-11
4.35023e-12
4.82478e-12
5.73788e-12
6.52127e-12
1.57578e-12
1.8739e-12
2.22874e-12
2.62368e-12
5.44002e-13
6.57561e-13
8.45884e-13
1.04919e-12
1.66247e-13
2.18574e-13
2.86171e-13
3.52508e-13
4.75344e-14
6.53988e-14
8.82383e-14
1.21948e-13
1.11936e-14
1.6848e-14
2.55119e-14
3.25632e-14
2.65339e-15
4.35804e-15
6.38447e-15
9.94162e-15
4.86365e-16
8.50397e-16
1.54142e-15
2.05588e-15
9.52091e-17
1.70393e-16
2.81733e-16
5.03642e-16
1.76925e-17
2.57403e-17
6.30253e-17
8.96477e-17
7.12921e-18
5.47375e-18
8.86346e-18
2.01009e-17
6.45088e-18
1.25136e-18
1.67642e-18
2.7707e-18
7.16305e-18
5.97884e-19
2.12604e-19
5.05088e-19
6.53045e-18
4.62093e-19
5.51476e-20
4.64516e-20
4.74579e-18
3.61235e-19
2.16685e-20
6.71718e-21
2.83007e-18
2.24732e-19
1.38837e-20
8.72122e-22
0.698868
0.921468
0.988513
0.997369
0.999603
0.976651
0.704987
0.968622
0.953798
0.943723
0.929238
0.715393
0.542081
0.659577
0.868222
0.868226
0.767061
0.620982
0.429831
0.450136
0.910292
0.968488
0.929412
0.944679
0.994837
0.989706
0.992667
0.94526
0.891188
0.875361
0.775339
0.526265
0.738905
0.842276
0.782267
0.784732
0.716644
0.42947
4.11232e-17
0.150953
0.445509
0.632533
0.879721
0.945367
0.982431
0.970086
0.915669
0.750904
0.590646
0.48374
0.456887
0.532857
0.492712
0.298763
0.373831
0.58554
0.59227
-2.88551e-13
4.9646e-26
0.0112863
0.0729223
0.251449
0.621169
0.802262
0.60027
0.172531
0.0854605
0.237345
0.44788
0.420892
0.495593
0.371671
0.264504
0.26432
0.268133
0.593229
7.04767e-06
1.08634e-06
0.000113064
1.4733e-08
5.16998e-07
0.0251054
0.0989713
0.0325391
3.634e-05
3.13482e-05
3.13533e-05
0.0125366
0.0719414
0.386965
0.443723
0.456686
0.28619
0.177721
0.179535
0.000179835
6.82626e-05
4.79753e-06
1.53888e-08
6.51426e-06
6.69286e-06
6.87584e-06
7.06305e-06
3.05845e-05
8.60727e-05
0.00123287
0.00144314
0.00070919
0.014093
0.0703369
0.38887
0.406671
0.181738
0.0816077
0.00093317
0.00138432
0.000388823
5.81282e-05
8.06468e-06
6.87584e-06
7.06321e-06
7.25575e-06
1.01859e-05
1.70898e-05
3.37516e-07
0.000273048
0.000695176
0.00358228
0.00160112
0.0169259
0.136648
0.172443
0.0831539
0.00243068
0.00279222
0.00219045
0.000772816
0.000968084
0.00134085
0.000983838
0.000538144
0.000337883
0.000114206
2.67094e-07
2.88824e-07
0.00204428
0.00310331
0.00160476
0.000822443
7.91164e-05
0.117369
0.11799
0.000780109
0.000670586
0.000221014
0.00115203
0.0040222
0.00424704
0.00424719
0.00424632
0.00215541
1.55857e-05
2.72995e-07
1.53292e-06
1.53879e-06
0.00780762
0.00707263
0.000663605
8.63241e-05
0.0438582
0.113274
0.0059101
-4.25915e-16
-3.39212e-12
0.000121224
9.08995e-05
0.00122938
0.00338315
0.00221275
0.000586143
0.000161742
2.84581e-07
3.00949e-07
0.000766897
0.00884809
0.00937896
0.00481532
7.91351e-05
0.00460529
0.0365215
0.00329283
4.81973e-07
8.51858e-09
-1.12946e-08
-1.54934e-08
1.21771e-05
0.000131432
7.35273e-05
2.03237e-05
1.46127e-05
2.48062e-06
2.99659e-07
0.00189389
0.00937975
0.00938086
0.00534581
0.000109781
0.00453439
0.000137232
0.000409749
6.33864e-05
3.31032e-07
2.80484e-06
7.53213e-06
1.01472e-05
1.11421e-05
1.08109e-05
5.619e-06
3.77436e-07
2.99731e-07
3.00191e-07
0.000194156
0.00765559
0.00733167
0.0027765
2.12424e-05
0.00200451
0.000140006
7.24343e-05
4.13063e-05
9.89908e-06
9.35763e-06
2.16775e-06
1.70426e-06
1.69643e-06
0.000122033
0.000217133
0.000217717
0.000172165
6.03197e-05
9.30394e-05
0.00114261
0.000413648
0.000105924
3.17198e-06
0.000629202
6.31915e-05
1.58916e-05
3.93712e-05
3.92318e-05
1.46257e-05
3.6516e-05
4.58271e-05
4.53969e-05
0.000105327
0.000206676
0.000175031
0.000104557
5.07762e-05
2.07225e-06
1.69809e-06
1.68387e-06
1.73074e-06
2.72805e-06
9.69633e-07
2.99795e-06
3.18413e-06
7.63244e-06
7.70234e-06
2.09525e-06
6.0738e-06
2.2352e-05
4.82803e-05
5.92251e-05
5.81256e-05
1.1562e-05
2.14413e-05
5.03888e-05
4.24893e-05
5.91135e-06
1.73076e-06
1.71658e-06
8.31063e-06
5.60118e-07
3.98684e-08
1.99592e-09
1.99604e-09
1.99592e-09
1.99783e-09
1.99775e-09
1.07573e-06
1.16358e-05
1.70825e-05
6.10372e-06
2.66733e-06
3.83927e-05
6.01269e-05
6.02397e-05
2.71527e-05
5.83468e-06
7.6347e-06
8.93762e-06
1.18613e-06
3.98946e-08
2.00309e-09
2.78461e-09
3.07445e-09
2.74633e-09
2.64343e-09
2.73067e-09
2.49698e-09
2.49822e-09
7.27359e-09
1.62909e-06
2.24221e-05
4.10172e-05
2.18989e-05
1.6744e-05
1.46032e-05
1.45091e-05
3.34772e-06
5.46317e-07
3.98684e-08
1.76675e-09
2.53383e-09
3.27636e-09
3.53124e-09
3.6231e-09
3.44589e-09
3.01094e-09
4.32472e-09
2.46675e-08
1.52283e-07
1.65282e-07
7.43033e-07
3.46383e-06
7.20268e-06
7.39412e-06
5.09258e-06
2.46637e-07
1.54227e-07
1.48995e-07
1.18103e-09
1.6205e-09
1.9189e-09
2.23149e-09
2.71926e-09
4.10659e-09
8.47505e-09
2.03915e-08
2.53177e-08
1.04194e-08
2.09424e-09
2.09442e-09
3.09309e-07
1.08489e-06
5.6416e-06
1.26045e-05
6.56149e-06
1.7868e-06
3.12083e-07
6.59826e-10
8.40414e-10
9.59349e-10
1.16451e-09
1.72844e-09
5.70498e-09
1.28944e-08
1.89844e-08
2.58735e-08
2.22865e-08
6.46665e-09
2.09456e-09
2.09472e-09
5.23155e-06
1.5098e-05
1.51018e-05
1.50983e-05
1.46938e-05
4.1405e-07
3.83403e-10
4.66702e-10
5.60444e-10
7.31016e-10
1.16869e-09
2.99271e-09
7.20236e-09
1.09258e-08
2.19564e-08
2.18022e-08
9.31688e-09
2.09471e-09
1.29117e-06
9.45646e-06
1.46619e-05
1.50983e-05
1.51019e-05
1.41841e-05
4.06391e-07
2.17968e-10
2.79346e-10
3.52956e-10
4.88422e-10
7.44172e-10
1.16527e-09
2.03554e-09
3.24337e-09
6.8054e-09
8.06204e-09
8.06264e-09
2.56925e-07
1.62665e-06
2.67186e-06
2.15729e-06
4.94722e-06
3.07655e-06
8.65705e-06
1.35342e-05
1.24189e-10
1.56638e-10
2.07105e-10
3.09157e-10
4.77155e-10
7.08032e-10
1.09208e-09
1.78884e-09
2.90416e-09
5.59434e-09
3.59114e-08
1.5705e-07
2.15482e-07
8.93517e-10
9.47013e-10
8.99024e-10
1.09916e-09
1.64793e-06
1.77272e-05
6.76633e-11
8.84571e-11
1.19868e-10
1.85031e-10
3.00279e-10
4.54443e-10
6.97835e-10
1.20974e-09
2.35462e-09
4.74174e-09
1.06226e-08
4.95187e-09
4.71975e-09
1.24219e-08
2.0221e-08
1.11324e-08
1.9879e-09
1.09844e-06
1.77272e-05
3.53141e-11
4.88942e-11
6.854e-11
1.06287e-10
1.7154e-10
2.66462e-10
4.12731e-10
7.0992e-10
1.34941e-09
2.58121e-09
3.90788e-09
3.01447e-09
1.44118e-08
3.35532e-08
3.35153e-08
2.04108e-08
6.04952e-09
7.26364e-07
1.57938e-05
1.73198e-11
2.44868e-11
3.53411e-11
5.50244e-11
8.85894e-11
1.39821e-10
2.21282e-10
3.8053e-10
7.25039e-10
1.39397e-09
2.33358e-09
2.92652e-09
1.08279e-08
2.53354e-08
3.04479e-08
1.93724e-08
1.64707e-08
1.85938e-07
1.35462e-06
7.64332e-12
1.13889e-11
1.65531e-11
2.58137e-11
4.16173e-11
6.61898e-11
1.05696e-10
1.82186e-10
3.48392e-10
6.82176e-10
1.21421e-09
1.76576e-09
2.54759e-09
3.47873e-09
9.26979e-09
1.1384e-08
9.42615e-09
2.08789e-09
8.20272e-09
3.3165e-12
4.81502e-12
7.15914e-12
1.11421e-11
1.78804e-11
2.85077e-11
4.5816e-11
7.93965e-11
1.53176e-10
3.05468e-10
5.58026e-10
8.35235e-10
6.62609e-10
1.66368e-10
9.36438e-11
9.26813e-10
2.08524e-09
2.11285e-09
8.60662e-09
1.25199e-12
1.93081e-12
2.88412e-12
4.46544e-12
7.07283e-12
1.12171e-11
1.80055e-11
3.12846e-11
6.10412e-11
1.25663e-10
2.48454e-10
4.18357e-10
4.33548e-10
1.3984e-10
7.79083e-11
8.04284e-11
2.10675e-10
1.4913e-09
6.43203e-09
4.67438e-13
7.28582e-13
1.09498e-12
1.67698e-12
2.6041e-12
4.07743e-12
6.41623e-12
1.0905e-11
2.08517e-11
4.31518e-11
8.97371e-11
1.31469e-10
1.74445e-10
9.88908e-11
6.43411e-11
6.45105e-11
7.7882e-11
5.13196e-10
1.99959e-09
1.52764e-13
2.56919e-13
3.92148e-13
5.94086e-13
8.95362e-13
1.35702e-12
2.06469e-12
3.23249e-12
5.55887e-12
9.33098e-12
8.80308e-12
1.32847e-11
2.85499e-11
4.59261e-11
3.29531e-11
3.35967e-11
4.18186e-11
4.4552e-11
8.1715e-11
5.11847e-14
8.46713e-14
1.32252e-13
1.99476e-13
2.95821e-13
4.32525e-13
6.16396e-13
9.12293e-13
1.41197e-12
2.02467e-12
9.37686e-13
6.67896e-13
3.80143e-12
1.5113e-11
1.53943e-11
1.10304e-11
9.53731e-12
9.65387e-12
1.77295e-12
1.32067e-14
2.46347e-14
3.96102e-14
6.04411e-14
8.63779e-14
1.22481e-13
1.76959e-13
2.48355e-13
3.43297e-13
4.77008e-13
2.98194e-13
1.33513e-13
2.99718e-13
2.70834e-12
5.54019e-12
5.56279e-12
3.2339e-12
1.95732e-12
1.10749e-12
3.64978e-15
6.72048e-15
1.10901e-14
1.68894e-14
2.49594e-14
3.51325e-14
4.75283e-14
6.2751e-14
8.35261e-14
1.09462e-13
8.19315e-14
3.82455e-14
4.24736e-14
2.67366e-13
1.01347e-12
2.15598e-12
1.96609e-12
1.4003e-12
7.40331e-13
6.87296e-16
1.60776e-15
2.83767e-15
4.67876e-15
6.82563e-15
9.141e-15
1.1674e-14
1.56317e-14
2.16569e-14
2.78702e-14
2.69537e-14
2.08136e-14
3.45281e-14
9.16269e-14
3.64294e-13
6.97866e-13
1.21889e-12
9.53911e-13
5.62528e-13
1.70355e-16
3.95013e-16
7.11986e-16
1.14866e-15
1.68283e-15
2.28384e-15
3.07738e-15
4.11541e-15
5.80192e-15
8.21634e-15
1.08563e-14
1.46068e-14
2.66494e-14
6.2733e-14
1.8374e-13
3.58012e-13
6.04253e-13
6.87046e-13
4.86706e-13
3.09207e-17
7.30016e-17
1.5261e-16
2.56356e-16
3.91443e-16
5.62562e-16
7.66686e-16
1.11488e-15
1.74917e-15
2.99771e-15
5.39232e-15
1.01548e-14
2.05331e-14
4.60936e-14
1.18359e-13
2.80125e-13
4.32662e-13
5.31007e-13
4.10611e-13
5.95389e-18
1.49345e-17
3.09767e-17
5.59664e-17
8.93318e-17
1.31125e-16
1.90282e-16
2.91798e-16
5.59566e-16
1.23768e-15
2.81166e-15
6.3764e-15
1.41958e-14
3.06838e-14
7.88181e-14
2.01424e-13
3.43701e-13
4.27292e-13
2.97944e-13
8.91429e-19
2.72673e-18
6.0906e-18
1.15418e-17
1.91847e-17
2.91448e-17
4.65081e-17
8.46081e-17
1.99707e-16
5.37327e-16
1.45031e-15
3.7162e-15
9.04404e-15
2.03134e-14
4.52761e-14
1.1544e-13
2.44428e-13
3.26983e-13
2.06232e-13
1.1938e-19
3.40238e-19
8.30391e-19
1.63799e-18
3.06693e-18
5.49434e-18
9.6316e-18
2.12999e-17
6.38376e-17
2.0325e-16
6.24866e-16
1.8447e-15
4.86154e-15
1.1709e-14
2.61061e-14
5.78037e-14
1.38282e-13
2.01191e-13
1.21621e-13
1.48387e-20
4.69557e-20
1.12984e-19
2.43715e-19
4.79526e-19
9.18185e-19
1.93874e-18
5.12043e-18
1.86381e-17
6.93291e-17
2.53448e-16
8.25205e-16
2.34461e-15
6.12764e-15
1.43226e-14
3.05446e-14
6.80167e-14
1.031e-13
6.54434e-14
1.69912e-21
5.98863e-21
1.68775e-20
3.95058e-20
8.30168e-20
1.6528e-19
3.81892e-19
1.18751e-18
5.00833e-18
2.16345e-17
8.90143e-17
3.18978e-16
1.00405e-15
2.76547e-15
6.87837e-15
1.51871e-14
2.93721e-14
4.35407e-14
3.31174e-14
)
;

boundaryField
{
    leftWall
    {
        type            zeroGradient;
    }
    rightWall
    {
        type            zeroGradient;
    }
    lowerWall
    {
        type            zeroGradient;
    }
    atmosphere
    {
        type            inletOutlet;
        inletValue      uniform 0;
        value           nonuniform List<scalar> 
46
(
0
0
0
0
0
0
0
0
0
0
0
0
0
0
0
0
0
0
0
0
0
0
2.08106e-17
2.83007e-18
2.24732e-19
1.38837e-20
8.72122e-22
1.69912e-21
5.98863e-21
1.68775e-20
3.95058e-20
8.30168e-20
1.6528e-19
3.81892e-19
1.18751e-18
5.00833e-18
2.16345e-17
8.90143e-17
3.18978e-16
1.00405e-15
2.76547e-15
6.87837e-15
1.51871e-14
2.93721e-14
4.35407e-14
3.31174e-14
)
;
    }
    defaultFaces
    {
        type            empty;
    }
}


// ************************************************************************* //
