/*--------------------------------*- C++ -*----------------------------------*\
| =========                 |                                                 |
| \\      /  F ield         | OpenFOAM: The Open Source CFD Toolbox           |
|  \\    /   O peration     | Version:  2312                                  |
|   \\  /    A nd           | Website:  www.openfoam.com                      |
|    \\/     M anipulation  |                                                 |
\*---------------------------------------------------------------------------*/
FoamFile
{
    version     2.0;
    format      ascii;
    arch        "LSB;label=32;scalar=64";
    class       volScalarField;
    location    "2.85";
    object      alphas;
}
// * * * * * * * * * * * * * * * * * * * * * * * * * * * * * * * * * * * * * //

dimensions      [0 0 0 0 0 0 0];

internalField   nonuniform List<scalar> 
2268
(
2
2
2
2
2
2
2
2
2
2
2
2
2
2
2
2
2
2
2
2
1.99999
1.99995
1.99995
2
2
2
2
2
2
2
2
2
2
2
2
2
2
2
2
2
2
2
2
2
1.99998
1.99996
2
2
2
2
2
2
2
2
2
2
2
2
2
2
2
2
2
2
2
2
2
2
2.00001
2
2
2
1.99995
1.99991
2
2
2
2
2
2
2
2
2
2
2
2
2
2
2
2
2
2
1.98823
1.99369
1.99666
1.99883
2.00004
1.99999
1.99989
1.99992
2
2
2
2
2
2
2
2
2
2
2
1.99979
1.99965
1.99998
2.00062
0.876581
0.905624
0.952045
1.002
1.06682
1.17709
1.36675
1.60587
1.82956
1.97771
1.99995
2.00001
2
2
1.99996
1.99579
1.98015
1.93768
1.8682
1.77929
1.69737
1.65102
1.67023
0.00857242
0.010893
0.0108971
0.0118487
0.0137096
0.024824
0.0615172
0.178356
0.424482
0.789321
1.19945
1.43064
1.47363
1.39427
1.2356
1.07436
0.87199
0.650705
0.480364
0.342121
0.256342
0.218172
0.24474
0.00483295
0.00516994
0.00374539
0.00134464
0.00123057
0.00123618
0.00105948
0.00100454
0.00103389
0.000948416
0.0259227
0.0923057
0.127515
0.11812
0.105647
0.0723299
0.0548441
0.0296074
0.0343316
0.0363384
0.0293047
0.0374217
0.0544228
1.90794
1.90793
1.90798
1.91497
1.95595
1.95931
1.95546
1.94614
1.94019
1.93862
1.9385
1.94299
1.94361
1.94307
1.94522
1.95384
1.9549
1.95498
1.95568
1.75622
1.85293
1.89288
1.911
1.92926
1.94938
1.9541
1.95146
1.94572
1.94132
1.9317
1.94118
1.93755
1.93191
1.92992
1.91833
1.89353
1.90595
1.83394
0.644084
0.799508
0.964324
1.16373
1.43089
1.61668
1.60512
1.67257
1.68704
1.64076
1.57486
1.5234
1.49413
1.48006
1.53627
1.49096
1.59352
1.53916
1.46683
0.436344
0.373285
0.359416
0.46581
0.584552
1.00505
1.27055
1.09631
1.04015
1.0852
0.923305
0.760484
0.738156
0.790603
0.848612
0.961758
1.21646
1.31876
1.26611
0.445636
0.180834
0.08213
0.291302
0.360313
0.556237
0.469013
0.108371
0.105704
0.204522
0.542135
0.557347
0.650173
0.681773
0.48879
0.295358
0.275215
0.361173
0.573752
0.44552
0.111321
0.0143014
0.0326025
0.0839796
0.483917
0.152866
0.0617751
0.0577069
0.0750894
0.505246
0.567651
0.576439
0.279088
0.255254
0.257116
0.247593
0.243356
0.236861
0.239268
0.188016
0.0167791
0.000898804
0.000906129
0.186937
0.440164
0.0618311
0.0886353
0.421949
0.587753
0.59534
0.558824
0.226938
0.223346
0.223437
0.237681
0.255651
0.198822
0.250516
0.162711
0.0254926
0.000890314
0.000899137
0.105546
0.458048
0.0520743
0.0889609
0.265641
0.329247
0.322675
0.390505
0.402395
0.220398
0.225175
0.290311
0.348387
0.365897
0.00368205
0.00252483
0.00144886
0.00144497
0.00160796
0.0018265
0.00150913
0.00150983
0.00150981
0.00149624
0.00110236
0.00117978
0.00144185
0.0407267
0.113664
0.243277
0.19526
0.0360292
0.0422614
0.0403268
0.0345166
0.0342606
0.0451513
0.00227243
0.00245195
0.00991216
0.0180073
0.0168568
0.0226414
0.0306476
0.0246135
0.0204556
0.0273136
0.0818361
0.104509
0.0823932
0.14477
0.306552
0.326663
0.172
0.213506
0.263387
0.293716
0.333807
0.363723
0.373499
0.0024098
0.00237772
0.00262907
0.012913
0.0329802
0.0382016
0.235689
0.33187
0.351945
0.436601
0.553114
0.594411
0.610774
0.650414
0.682955
0.63234
0.738234
0.899785
0.975085
1.0209
1.06962
1.09773
1.11809
0.284346
0.2883
0.322772
0.398675
0.474138
0.439084
0.458009
0.871066
0.974217
1.02167
1.04195
1.04934
1.04303
1.03258
1.01911
1.02579
1.01582
1.00266
1.00124
1.00123
1.01997
1.12674
1.16582
1.13368
1.12319
1.10542
1.09544
1.09382
1.29051
1.18215
0.891536
0.998996
1.00138
1.00136
1.00135
1.00135
1.00135
1.00119
1.00065
1.00021
0.99993
1.00008
1.00026
1.00057
1.00079
1.00094
1.18502
1.20625
1.22864
1.28625
1.26575
1.41659
1.82583
1.62691
1.36265
1.05192
1.00135
1.00131
1.00314
1.00783
1.00602
1.00159
1.00108
1.00096
0.989116
0.990404
0.997024
1.0001
1.00179
2.4155
2.43585
2.47364
2.63362
2.64916
2.37892
2.09348
1.8962
1.70427
1.67154
1.67688
1.67732
1.66565
1.58082
1.49962
1.64029
1.93744
1.91233
1.65384
1.46348
1.38172
1.34
1.34453
2.98352
2.98373
2.98166
2.98374
2.99248
2.99874
2.99849
2.99803
2.99836
2.99781
2.99816
2.99887
2.99914
2.98132
2.94371
2.79104
2.60023
2.59877
2.70263
2.7977
2.76494
2.68619
2.65956
2.98797
2.99726
2.98701
2.98752
2.99813
3
3
3
3
3
2.9997
2.99907
2.99937
2.99971
2.99972
2.9997
2.98048
2.96338
2.96107
2.97556
2.98113
2.98342
2.9524
2.98972
2.99941
2.99992
2.99979
2.99998
3
3
3
3
3
3
2.99996
2.99965
2.99883
2.99882
2.99919
2.99997
3
2.9985
2.98941
2.98799
2.99391
2.99876
2.99738
2.99664
2.99933
2.9997
2.9998
2.99999
3
2.99999
2.9999
2.99989
2.99996
2.99999
2.99999
2.99976
2.99892
2.99912
2.99991
3
3
2.99994
2.9995
2.9994
2.99925
2.99999
2.9967
2.99794
2.99975
2.99982
2.99998
2.99999
2.99986
2.99978
2.9998
2.9999
2.99999
2.99999
2.99999
2.99999
2.99994
2.99997
3
3
3
3
3
2.99999
2.99999
2.99946
2.99949
2.99985
2.99994
2.99991
2.99979
2.99978
2.99978
2.99986
2.99997
2.99998
2.99998
2.99992
2.99991
2.99992
2.99999
3
3
3
3
3
2.99996
3
3
3
3
2.99997
2.99984
2.9998
2.99985
2.99998
2.99998
2.99997
2.99992
2.99986
2.99986
2.99993
2.99992
2.99997
3
2.99993
2.99973
2.99973
2.99981
2.99996
3
3
3
2.99999
2.99999
3
3
3
2.99999
2.99996
2.9999
2.9999
2.99979
2.99971
2.99965
2.99964
2.99964
2.99986
2.99993
2.99988
2.99986
2.99993
2.99999
3
3
3
3
3
3
3
2.99997
2.99994
2.99992
2.99996
2.99994
2.99959
2.99955
2.99956
2.99992
3
2.99998
2.99992
2.99992
2.99994
3
3
3
3
3
3
3
2.99999
2.99994
2.99992
2.99992
2.99998
3
2.99996
2.99979
2.99979
2.99999
3
3
2.99998
2.99994
2.99996
3
3
3
3
3
3
3
3
2.99997
2.99993
2.99993
2.99997
3
3
3
3
3
3
3
3
3
3
3
3
3
3
3
3
3
3
3
2.99999
2.99996
2.99997
3
3
3
3
3
3
3
3
3
3
3
3
3
3
3
3
3
3
3
3
3
3
3
3
3
3
3
3
3
3
3
3
3
3
3
3
3
3
3
3
3
3
3
3
3
3
3
3
3
3
3
3
3
3
3
3
3
3
3
3
3
3
3
3
3
3
3
3
3
3
3
3
3
3
3
3
3
3
3
3
3
3
3
3
3
3
3
3
3
3
3
3
3
3
3
3
3
3
3
3
3
3
3
3
3
3
3
3
3
3
3
3
3
3
3
3
3
3
3
3
3
3
3
3
3
3
3
3
3
3
3
3
3
3
3
3
3
3
3
3
3
3
3
3
3
3
3
3
3
3
3
3
3
3
3
3
3
3
3
3
3
3
3
3
3
3
3
3
3
3
3
3
3
3
3
3
3
3
3
3
3
3
3
3
3
3
3
3
3
3
3
3
3
3
3
3
3
3
3
3
3
3
3
3
3
3
3
3
3
3
3
3
3
3
3
3
3
3
3
3
3
3
3
3
3
3
3
3
3
3
3
3
3
3
3
3
3
3
3
3
3
3
3
3
3
3
3
3
3
3
3
3
3
3
3
3
3
3
3
3
3
3
3
3
3
3
3
3
3
3
3
3
3
3
3
3
3
3
3
3
3
3
3
3
3
3
3
3
3
3
3
3
3
3
3
3
3
3
3
3
3
3
3
3
3
3
3
3
3
3
3
3
3
3
3
3
3
3
3
3
3
3
3
3
3
3
3
3
3
3
3
3
3
3
3
3
3
3
3
3
3
3
3
3
3
3
3
3
3
3
3
3
3
3
3
3
3
3
3
3
3
3
3
3
3
3
3
3
3
3
3
3
3
3
3
3
3
3
3
3
3
3
3
3
3
3
3
3
3
3
3
3
3
3
3
3
3
3
3
3
3
3
3
3
3
3
3
3
3
3
3
3
3
3
3
3
3
3
3
3
3
3
3
3
3
3
3
3
3
3
3
3
3
3
3
3
3
3
3
3
3
3
3
3
3
3
3
3
3
3
3
3
3
3
3
3
3
3
3
3
3
3
3
3
3
3
3
3
3
3
3
3
3
3
3
3
3
3
3
3
3
3
3
3
3
3
3
3
3
3
3
3
3
3
3
3
3
3
3
3
3
3
3
3
3
3
3
3
3
3
3
3
3
3
3
3
3
3
3
3
3
3
3
3
3
3
3
3
3
3
3
3
3
3
3
3
3
3
3
3
3
3
3
3
0.167818
0.208093
0.245004
0.352282
0.407744
0.491403
0.621537
0.712941
1.13295
1.03448
1.00569
1.02922
1.16586
1.16583
1.12738
1.00978
1.00141
1.00254
1.00241
1.0023
1.00421
1.00411
1.00223
1.00149
1.36648
1.38007
1.35349
1.25231
2.69973
2.74706
2.73176
2.59611
2.94221
2.94222
2.94232
2.9708
2.98537
2.94268
2.94272
2.94272
2.99908
2.99899
2.99925
2.98591
2.99999
2.99999
2.99998
2.99957
2.99996
2.99996
2.99996
2.99998
2.99997
2.99997
2.99997
2.99997
2.99999
2.99995
2.9999
2.99989
2.99998
2.99996
2.99998
2.99998
3
3
3
3
3
3
3
3
3
3
3
3
3
3
3
3
3
3
3
3
3
3
3
3
3
3
3
3
3
3
3
3
3
3
3
3
3
3
3
3
3
3
3
3
3
3
3
3
3
3
3
3
3
3
3
3
3
3
3
3
3
3
3
3
3
3
3
3
3
3
3
3
3
3
3
3
3
3
3
3
3
3
3
3
3
3
3
3
3
3
3
3
3
3
3
3
3
3
3
3
3
3
3
3
0.407481
0.121156
0.0290113
0.00554143
0.000988066
0.031578
0.373576
0.0429976
0.0602004
0.0742091
0.0985738
0.34466
0.649286
0.587388
0.225725
0.210756
0.417489
0.56071
0.747031
0.585606
0.0922985
0.0432346
0.198542
0.159896
0.00962766
0.0264669
0.0198405
0.0886471
0.141403
0.137713
0.331205
0.74991
0.487487
0.17734
0.252876
0.286793
0.415351
0.730107
1.05901
0.871431
0.562729
0.524623
0.28391
0.155597
0.0473529
0.0878013
0.211948
0.429337
0.485845
0.550384
0.724755
0.796863
0.569011
0.737695
0.678875
0.53656
0.530196
1.03319
1.08515
1.02206
0.969751
0.898017
0.523282
0.345676
0.467897
0.952783
1.10353
0.956546
0.589472
0.753027
0.894358
0.951031
0.800398
0.778159
0.826671
0.49051
1.0206
1.09258
1.09251
1.03956
1.03479
1.06697
0.982639
0.996176
1.01503
1.11961
1.12967
1.1
1.12569
1.00552
0.943165
0.870946
0.742652
0.860016
0.954124
1.00142
1.02632
1.04606
1.01546
1.00872
1.03794
1.04757
1.01105
1.00724
1.00693
1.11295
1.13471
1.09759
1.07526
1.24892
0.947546
0.702971
0.842271
1.10392
1.04905
1.00155
1.00215
1.0025
1.00267
1.00267
1.02178
1.02775
1.02299
1.00366
1.02742
1.11643
1.05146
1.02441
1.03155
1.12209
1.00428
0.864968
1.09705
2.43451
2.25754
1.75777
1.10987
1.00162
1.00133
1.00162
1.00204
1.00259
1.00326
1.00371
1.01636
1.03307
1.01967
1.0161
1.01937
1.02764
0.922851
0.99691
2.99272
2.99417
2.96856
2.82155
2.57046
2.20794
1.839
1.77774
1.71851
1.37193
1.00847
1.00529
1.016
1.04983
1.02245
1.01812
1.01952
0.970577
0.989585
2.9735
2.99989
2.99986
2.99931
2.99937
2.99595
2.97362
2.96683
2.96662
2.92771
2.79904
2.41523
1.56775
1.35135
1.32119
1.15131
1.0223
1.00733
1.04551
2.98645
2.99962
3
3
2.99998
2.99996
2.99959
2.99975
2.99993
2.99972
2.99911
2.99932
2.88264
2.67547
2.7443
1.94373
1.03469
1.00793
1.0764
2.99875
2.99967
2.99999
2.99998
2.99998
2.99997
2.99997
2.99997
2.99997
2.99998
2.99998
2.99997
2.99994
2.97723
2.97093
2.58405
1.14063
1.01593
1.05248
2.99981
2.99986
2.99997
2.99997
2.99997
2.99969
2.99957
2.99942
2.99923
2.9993
2.99946
2.99982
2.9997
2.99614
2.99815
2.96159
1.87598
1.03239
1.05991
2.99991
2.99961
2.99942
2.99937
2.9993
2.99927
2.99927
2.99921
2.99918
2.99935
2.99953
2.99977
2.99995
2.99999
2.99999
2.99732
2.90469
1.86664
1.26387
2.99989
2.9999
2.99988
2.99978
2.99961
2.99936
2.99926
2.99923
2.99923
2.99941
2.99983
2.99983
2.99987
2.99998
2.99999
2.99992
2.99721
2.95455
2.61417
2.99998
3
3
3
2.99999
2.99988
2.99956
2.9994
2.99961
2.99979
2.99987
2.99981
2.99982
2.99992
2.99998
2.99998
2.99997
3
2.99998
3
3
3
3
3
3
2.99998
2.99996
2.99999
2.99999
2.99992
2.99986
2.99992
2.99995
2.99995
2.99995
2.99999
3
3
3
3
3
3
3
3
3
3
3
3
3
2.99999
2.99994
2.99995
2.99998
2.99998
3
3
3
3
3
3
3
3
3
3
3
3
3
3
3
2.99995
2.99981
2.9999
2.99991
2.99974
2.99998
3
3
3
3
3
3
3
3
3
3
3
3
3
3
2.99983
2.99948
2.99943
2.99943
2.99948
2.99998
3
3
3
3
3
3
3
3
3
3
3
3
3
2.99996
2.99982
2.99966
2.99954
2.99944
2.99998
3
3
3
3
3
3
3
3
3
3
3
3
2.99999
2.99999
2.99999
2.99998
2.99995
2.99945
2.99992
3
3
3
3
3
3
3
3
3
3
3
3
3
3
3
3
3
2.99979
2.99953
3
3
3
3
3
3
3
3
3
3
3
3
3
3
3
3
3
2.99999
2.99952
3
3
3
3
3
3
3
3
3
3
3
3
3
3
3
3
3
2.99999
2.99957
3
3
3
3
3
3
3
3
3
3
3
3
3
3
3
3
3
3
2.99996
3
3
3
3
3
3
3
3
3
3
3
3
3
3
3
3
3
3
3
3
3
3
3
3
3
3
3
3
3
3
3
3
3
3
3
3
3
3
3
3
3
3
3
3
3
3
3
3
3
3
3
3
3
2.99999
2.99999
2.99999
2.99999
3
3
3
3
3
3
3
3
3
3
3
3
3
3
3
2.99999
2.99999
2.99999
2.99999
3
3
3
3
3
3
3
3
3
3
3
3
3
3
3
3
2.99999
2.99999
3
3
3
3
3
3
3
3
3
3
3
3
3
3
3
3
3
3
2.99999
3
3
3
3
3
3
3
3
3
3
3
3
3
3
3
3
3
3
3
3
3
3
3
3
3
3
3
3
3
3
3
3
3
3
3
3
3
3
3
3
3
3
3
3
3
3
3
3
3
3
3
3
3
3
3
3
3
3
3
3
3
3
3
3
3
3
3
3
3
3
3
3
3
3
3
3
3
3
3
3
3
3
3
3
3
3
3
3
3
3
3
3
3
3
3
3
3
3
3
3
3
3
3
3
3
3
3
3
3
3
3
3
3
3
3
3
3
3
3
3
3
3
3
3
3
3
3
3
3
3
3
3
3
3
3
3
3
3
3
3
3
3
3
3
3
3
3
3
3
3
3
3
3
3
3
3
3
3
3
3
3
3
3
3
3
3
3
3
3
3
3
3
3
3
3
3
3
3
3
3
3
3
3
3
3
3
3
3
3
3
3
)
;

boundaryField
{
    leftWall
    {
        type            calculated;
        value           nonuniform List<scalar> 
50
(
2
2
2
2
1.98823
0.876581
0.00857242
0.00483295
0.00368205
0.00227243
0.0024098
0.284346
1.13368
1.18502
2.4155
2.98352
2.98797
2.98972
2.99738
2.99999
2.99999
3
3
3
3
3
3
3
3
3
3
3
3
3
3
3
3
3
3
3
3
3
3
3
3
3
3
3
3
3
)
;
    }
    rightWall
    {
        type            calculated;
        value           nonuniform List<scalar> 
50
(
1.95568
1.83394
1.46683
1.26611
0.573752
0.236861
0.198822
0.365897
0.747031
0.730107
0.530196
0.49051
0.954124
1.10392
1.09705
0.99691
0.989585
1.04551
1.0764
1.05248
1.05991
1.26387
2.61417
2.99998
3
3
3
2.99998
2.99998
2.99992
2.99953
2.99952
2.99957
2.99996
3
3
2.99999
2.99999
3
3
3
3
3
3
3
3
3
3
3
3
)
;
    }
    lowerWall
    {
        type            calculated;
        value           nonuniform List<scalar> 
62
(
2
2
2
2
2
2
2
2
2
2
2
2
2
2
2
2
2
2
2
2
1.99999
1.99995
1.99995
1.99995
1.99996
2.00001
2
2.00062
1.67023
0.24474
0.0544228
0.167818
0.208093
0.245004
0.352282
1.90794
1.75622
0.644084
0.436344
0.445636
0.44552
0.239268
0.250516
1.90794
1.90793
1.90798
1.91497
1.95595
1.95931
1.95546
1.94614
1.94019
1.93862
1.9385
1.94299
1.94361
1.94307
1.94522
1.95384
1.9549
1.95498
1.95568
)
;
    }
    atmosphere
    {
        type            calculated;
        value           nonuniform List<scalar> 
46
(
3
3
3
3
3
3
3
3
3
3
3
3
3
3
3
3
3
3
3
3
3
3
3
3
3
3
3
3
3
3
3
3
3
3
3
3
3
3
3
3
3
3
3
3
3
3
)
;
    }
    defaultFaces
    {
        type            empty;
    }
}


// ************************************************************************* //
