/*--------------------------------*- C++ -*----------------------------------*\
| =========                 |                                                 |
| \\      /  F ield         | OpenFOAM: The Open Source CFD Toolbox           |
|  \\    /   O peration     | Version:  2312                                  |
|   \\  /    A nd           | Website:  www.openfoam.com                      |
|    \\/     M anipulation  |                                                 |
\*---------------------------------------------------------------------------*/
FoamFile
{
    version     2.0;
    format      ascii;
    arch        "LSB;label=32;scalar=64";
    class       volScalarField;
    location    "2.85";
    object      alpha.air;
}
// * * * * * * * * * * * * * * * * * * * * * * * * * * * * * * * * * * * * * //

dimensions      [0 0 0 0 0 0 0];

internalField   nonuniform List<scalar> 
2268
(
6.87539e-10
6.79064e-10
5.22088e-10
2.64754e-10
1.44562e-10
1.02992e-10
5.25398e-11
2.64691e-11
1.52268e-11
9.5929e-12
8.03378e-12
8.76332e-12
1.06048e-11
1.52373e-11
2.53982e-11
4.39331e-11
6.93935e-11
6.56991e-11
5.88712e-11
5.89035e-11
4.94468e-10
4.87835e-09
1.85083e-08
6.98378e-10
9.61736e-10
6.18115e-10
2.27689e-09
1.20875e-09
6.47402e-10
1.97851e-10
7.17127e-11
5.60635e-11
5.05446e-11
5.13935e-11
5.66652e-11
6.33748e-11
9.71809e-11
2.04616e-10
4.30946e-10
7.70654e-10
6.02247e-10
3.12649e-10
5.88611e-11
1.41611e-08
4.40472e-07
1.39815e-06
6.97645e-10
1.52357e-09
1.04534e-08
1.99742e-08
1.11972e-08
1.35094e-09
6.4497e-11
8.17859e-11
1.09198e-10
1.19663e-10
1.63237e-10
1.758e-10
1.41488e-10
2.96998e-10
8.66445e-10
1.75824e-09
6.25508e-09
2.11167e-08
2.81791e-08
1.38207e-08
2.12658e-08
1.97694e-06
5.04593e-06
6.97761e-10
6.97645e-10
3.28226e-08
6.06973e-11
6.06897e-11
6.06973e-11
6.07761e-11
6.29245e-11
6.98425e-11
9.71554e-11
1.61765e-10
1.6499e-09
7.34489e-09
1.02744e-08
6.91808e-09
2.56116e-09
6.46428e-09
6.33644e-08
9.81559e-08
8.22212e-08
9.91117e-08
3.1169e-06
3.19976e-06
0.000415768
3.77547e-05
3.29621e-08
3.86833e-05
8.6666e-05
4.17166e-05
5.48424e-06
4.88373e-11
4.8799e-11
4.87585e-11
4.89077e-11
4.90056e-11
1.68822e-08
3.18573e-08
2.95784e-08
8.88955e-09
4.11792e-09
1.86957e-08
1.1963e-07
3.78272e-07
4.6792e-06
4.10711e-05
0.000659236
0.000665026
0.000412488
0.000895461
0.00162265
0.000709772
2.61291e-05
7.00276e-06
1.30653e-05
1.97509e-05
2.65867e-05
7.37643e-06
1.06045e-05
1.29413e-09
1.70958e-10
3.75342e-19
9.81909e-23
-8.89614e-16
3.59495e-08
1.03852e-07
5.31867e-07
0.000939097
0.00501921
0.0139076
0.000665226
0.0016521
0.00166664
0.00166652
0.000623986
2.74896e-05
7.06633e-06
7.13109e-06
7.19706e-06
6.26371e-05
0.000392615
0.000421893
0.000355125
5.31925e-05
6.21125e-05
0.000433533
0.00108563
0.00151726
0.00138512
0.000321588
0.00201862
0.00958812
0.0177688
0.000914209
0.00165302
0.00121323
0.000363744
0.000279262
0.000311241
0.000205032
0.000176971
0.000182365
0.000120569
0.000168988
0.00026424
0.000212319
9.95452e-05
0.000356249
0.00182639
0.00234376
0.00353687
0.00386178
0.00135502
0.0013388
0.0086967
0.0149525
0.000235869
0.000235875
0.000253935
0.00307271
0.0117548
0.0117548
0.0117548
0.00900749
0.00722271
0.00566356
0.00443528
0.00447124
0.00467538
0.00441262
0.00463609
0.00690201
0.00709778
0.00645347
0.00645028
0.000235869
0.000267883
0.000397371
0.000672341
0.00153014
0.00384507
0.00598778
0.00556181
0.00449477
0.00419073
0.0044451
0.00685111
0.00684944
0.00439731
0.00354766
0.00373914
0.0115431
0.017346
0.0109031
0.00152709
0.00303072
0.00622781
0.00412946
0.0013025
0.00130246
0.00339557
0.0138936
0.00658019
0.00431034
0.00474977
0.00621779
0.00661748
0.00480545
0.00354782
0.00498158
0.0190739
0.0237429
0.0171136
0.0305324
0.0178133
0.0197047
0.0246998
0.00867876
0.00241337
0.0179401
0.0312696
0.0312553
0.0229932
0.00798885
0.00470562
0.0116628
0.0295249
0.0151821
0.00494327
0.0102587
0.0162378
0.0106287
0.0376343
0.0376343
0.0149622
0.0246851
0.0193532
0.0106804
0.0111537
0.01374
0.00947925
0.0182029
0.00977087
0.00470313
0.0356438
0.0573774
0.0573818
0.0189215
0.00928785
0.00821523
0.00779752
0.0376343
0.0265998
0.0040364
0.00904212
0.00864245
0.013841
0.0100266
0.0036564
0.00522942
0.00936304
0.00818679
0.00814417
0.0155741
0.0452429
0.0545354
0.0561016
0.052709
0.0487104
0.0120079
0.0376343
0.0265788
0.00119164
0.000294536
0.00029258
0.014648
0.0315609
0.003762
0.014297
0.0250654
0.0233241
0.0259182
0.0302067
0.0302815
0.0307969
0.0308531
0.0450207
0.0587619
0.0242634
0.0376028
0.0144367
0.00328578
0.00029048
0.000292124
0.0108779
0.030977
0.00499202
0.0103535
0.0227901
0.0143304
0.00898871
0.0168868
0.0574626
0.0313973
0.0392088
0.0681599
0.0897848
0.0646519
0.000923199
0.000725989
0.000430899
0.000429977
0.000520567
0.000608198
0.000502402
0.000502749
0.000502736
0.00049556
0.000124925
0.000103176
0.000102057
0.000100951
0.000657266
0.00320797
0.00308481
0.00714909
0.0102163
0.0094479
0.00708077
0.00702723
0.00911477
0.000644011
0.000698659
0.00330093
0.00599489
0.0055454
0.0064312
0.00979056
0.00820199
0.00681148
0.00909332
0.0271929
0.03462
0.0273088
0.0208068
0.0146108
0.0200267
0.027027
0.047376
0.0585921
0.0586485
0.0560988
0.0487153
0.0324741
0.000622811
0.000624433
0.000728089
0.00422465
0.0109549
0.00674089
0.0152794
0.0494557
0.0569062
0.0576753
0.0643545
0.0643542
0.0643548
0.0643542
0.0559
0.0477966
0.0551218
0.071495
0.0731105
0.0746064
0.0817298
0.0829095
0.0829356
0.0324132
0.0385262
0.0482439
0.0414
0.0450235
0.0789442
0.0415657
0.0293045
0.0300708
0.031517
0.028151
0.0286613
0.0244414
0.0201538
0.015916
0.0128542
0.00788658
0.00132525
0.000610606
0.000611976
0.00997167
0.0633547
0.0829059
0.0676857
0.0641739
0.0582512
0.0534476
0.0518647
0.157402
0.233739
0.0470695
0.000681493
0.000682247
0.000676596
0.000676159
0.000675525
0.000673124
0.000622102
0.000439276
0.000289393
0.000273986
0.00027373
0.000273733
0.000273558
0.000273568
0.000322211
0.0934935
0.103045
0.114042
0.142595
0.131546
0.207592
0.440703
0.366534
0.207224
0.0261304
0.000679955
0.000676057
0.00163501
0.0039722
0.00303835
0.000808171
0.000501458
0.00165083
0.000293725
0.000273577
0.000273731
0.000273381
0.00027357
0.710364
0.718775
0.738389
0.819162
0.826139
0.690966
0.548921
0.451516
0.356512
0.338839
0.339332
0.338855
0.334127
0.293568
0.252197
0.320567
0.46868
0.455886
0.33384
0.241927
0.201205
0.176435
0.173805
0.994368
0.994437
0.993506
0.994579
0.997494
0.999581
0.999495
0.999345
0.999454
0.999235
0.999286
0.999505
0.999593
0.993716
0.977135
0.90081
0.804241
0.800457
0.852069
0.902393
0.891739
0.853206
0.838471
0.995849
0.998932
0.995089
0.995513
0.999378
0.999999
0.999999
0.999999
0.999998
0.999998
0.999899
0.999683
0.999774
0.999891
0.999896
0.999896
0.993493
0.987451
0.986288
0.990611
0.992144
0.993175
0.983698
0.996517
0.999798
0.999968
0.999913
0.99999
0.999999
0.999999
0.999999
0.999999
0.999998
0.999998
0.99998
0.999845
0.999571
0.999566
0.999693
0.999987
0.999999
0.999501
0.99646
0.995937
0.997634
0.99916
0.999125
0.998853
0.999724
0.99985
0.999901
0.999997
0.999999
0.999997
0.999965
0.999961
0.999987
0.999997
0.999997
0.999902
0.999611
0.999698
0.999971
0.999999
0.999999
0.999979
0.999831
0.999795
0.999645
0.999996
0.998884
0.999294
0.999879
0.99991
0.999989
0.999995
0.999948
0.999921
0.999929
0.999965
0.999997
0.999997
0.999997
0.999996
0.999971
0.999985
0.999999
0.999999
0.999999
0.999999
0.999999
0.999998
0.999997
0.999817
0.999828
0.999949
0.999979
0.999965
0.999925
0.999921
0.999921
0.999952
0.999991
0.999991
0.99999
0.999962
0.999957
0.999963
0.999997
0.999999
1
1
1
0.999999
0.999979
0.999998
1
0.999999
0.999998
0.99999
0.999941
0.999928
0.999947
0.999994
0.999994
0.999987
0.999959
0.99993
0.999934
0.99997
0.999969
0.999989
0.999999
0.999975
0.999901
0.999901
0.999928
0.999983
1
1
1
0.999997
0.999996
0.999999
0.999999
0.999999
0.999998
0.999983
0.999954
0.999953
0.999905
0.999881
0.999859
0.999852
0.999854
0.999951
0.999975
0.999951
0.99994
0.999968
0.999995
1
1
0.999999
0.999999
0.999999
0.999999
0.999998
0.999986
0.999972
0.999962
0.99998
0.99997
0.999828
0.999817
0.99982
0.999965
1
0.999992
0.999962
0.99996
0.999967
0.999998
0.999999
1
1
0.999999
0.999999
0.999999
0.999995
0.999972
0.999963
0.999963
0.999989
0.999999
0.999983
0.999904
0.999902
0.999997
1
1
0.999991
0.99997
0.999978
1
1
1
1
1
1
1
0.999999
0.999988
0.999965
0.999965
0.999986
1
0.999999
0.999999
1
1
1
1
1
0.999999
1
1
1
1
1
1
1
1
1
1
0.999996
0.99998
0.999985
1
1
1
1
1
1
1
1
1
1
1
1
1
1
1
1
1
1
1
1
1
1
1
1
1
1
1
1
1
1
1
1
1
1
1
1
1
1
1
1
1
1
1
1
1
1
1
1
1
1
1
1
1
1
1
1
1
1
1
1
1
1
1
1
1
1
1
1
1
1
1
1
1
1
1
1
1
1
1
1
1
1
1
1
1
1
1
1
1
1
1
1
1
1
1
1
1
1
1
1
1
1
1
1
1
1
1
1
1
1
1
1
1
1
1
1
1
1
1
1
1
1
1
1
1
1
1
1
1
1
1
1
1
1
1
1
1
1
1
1
1
1
1
1
1
1
1
1
1
1
1
1
1
1
1
1
1
1
1
1
1
1
1
1
1
1
1
1
1
1
1
1
1
1
1
1
1
1
1
1
1
1
1
1
1
1
1
1
1
1
1
1
1
1
1
1
1
1
1
1
1
1
1
1
1
1
1
1
1
1
1
1
1
1
1
1
1
1
1
1
1
1
1
1
1
1
1
1
1
1
1
1
1
1
1
1
1
1
1
1
1
1
1
1
1
1
1
1
1
1
1
1
1
1
1
1
1
1
1
1
1
1
1
1
1
1
1
1
1
1
1
1
1
0.999999
0.999999
1
1
1
1
1
1
1
1
1
1
1
1
1
1
1
1
1
1
1
1
0.999999
0.999999
0.999999
0.999999
1
1
1
1
1
1
1
1
1
1
1
1
1
1
1
1
1
1
1
0.999999
0.999999
0.999999
0.999999
1
1
1
1
1
1
1
1
1
1
1
1
1
1
1
1
1
1
1
1
0.999999
0.999999
0.999999
1
1
1
1
1
1
1
1
1
1
1
1
1
1
1
1
1
1
1
1
0.999999
0.999999
1
1
1
1
1
1
1
1
1
1
1
1
1
1
1
1
1
1
1
1
1
1
0.999998
0.999999
1
1
1
1
1
1
1
1
1
1
1
1
1
1
1
1
1
1
1
1
0.999999
0.999998
0.999999
1
1
1
1
1
1
1
1
1
1
1
1
1
1
1
1
1
1
1
1
0.999999
0.999998
1
1
1
1
1
1
1
1
1
1
1
1
1
1
1
1
0.999999
1
1
1
1
1
0.999999
1
1
1
1
1
1
1
1
1
1
1
1
1
1
1
1
0.999999
1
1
1
1
1
1
1
1
1
1
1
1
1
1
1
1
1
1
1
1
1
1
0.999999
1
1
1
1
1
1
1
1
1
1
1
1
1
1
1
1
1
1
1
1
1
1
1
1
1
1
1
1
1
1
1
1
1
1
1
1
1
1
1
1
1
1
1
1
1
0.0191611
0.0224502
0.0297879
0.0367042
0.0121083
0.00439016
0.00439749
0.0350706
0.0784517
0.0180745
0.00667185
0.0134722
0.0829277
0.0829143
0.0636912
0.00488863
0.000613159
0.00123009
0.00116571
0.00111578
0.000273381
0.00027378
0.000273577
0.000273903
0.180411
0.186969
0.173593
0.123001
0.853138
0.870894
0.862732
0.794903
0.980349
0.980366
0.980459
0.989952
0.994834
0.980831
0.98086
0.980876
0.99954
0.999594
0.999744
0.995302
0.999994
0.999986
0.999987
0.999857
0.999976
0.999976
0.999978
0.99999
0.999987
0.999988
0.99999
0.99999
0.999995
0.999978
0.999953
0.999948
0.999991
0.999982
0.999991
0.999992
0.999999
0.999999
1
1
1
1
1
1
1
1
1
1
1
1
1
1
1
1
1
1
1
1
1
1
1
1
1
1
1
1
1
1
1
1
1
1
1
1
1
1
1
1
1
1
1
1
1
1
1
1
1
1
1
1
1
1
1
1
1
1
1
1
1
1
1
1
1
1
1
1
1
1
1
1
1
1
1
1
1
1
1
1
1
1
1
1
1
1
1
1
1
1
1
1
1
1
1
1
1
1
1
1
1
1
0.0187132
0.00170217
0.00610399
0.00184384
0.000289861
0.00274723
0.0317167
0.0047288
0.00472244
0.00525613
0.00439986
0.0118488
0.0805112
0.111535
0.0445711
0.0370774
0.0897142
0.0897931
0.0869028
0.0150652
0.00169968
0.00471903
0.0604529
0.0531006
0.00179455
0.00643988
0.00488113
0.0140479
0.013029
0.00439911
0.0482252
0.125066
0.110659
0.00503565
0.00503728
0.0224755
0.0610856
0.0777861
0.0283748
0.0100531
0.00472199
0.0791137
0.0810773
0.0514408
0.0157357
0.0291799
0.0639621
0.0848014
0.0331019
0.0146989
0.0867302
0.1639
0.0234209
0.00514956
0.0162176
0.0519861
0.057672
0.0159409
0.0414372
0.0158386
0.0205163
0.0773069
0.07914
0.0790191
0.0372236
0.0612373
0.0900538
0.0900583
0.0146982
0.0862453
0.194453
0.159728
0.0315228
0.0148331
0.0394016
0.0332408
0.0102696
0.0462127
0.0461429
0.0195422
0.0161882
0.0465095
0.044647
0.0155566
0.00320323
0.052625
0.0576589
0.0509187
0.0977052
0.194462
0.190923
0.161631
0.0143755
0.0107965
0.0530114
0.000546424
0.0131697
0.0230088
0.00772485
0.00436066
0.0189657
0.0237186
0.00552376
0.00323256
0.00266439
0.0531976
0.0643237
0.0475891
0.0439017
0.156302
0.163672
0.0514219
0.0107905
0.0851109
0.0232706
0.00127284
0.0012732
0.00127284
0.00133307
0.00133372
0.0108903
0.0138743
0.0114974
0.00182955
0.0137021
0.0574078
0.0239785
0.0130222
0.0157929
0.0674994
0.0676293
0.0171053
0.0840872
0.715243
0.627041
0.378654
0.0553123
0.00124483
0.00125395
0.0012481
0.00127562
0.00143093
0.00166324
0.00184585
0.00816898
0.0153767
0.0073618
0.00737325
0.00926106
0.0130086
0.0164728
0.0510374
0.995534
0.995511
0.982499
0.910444
0.787175
0.606073
0.421568
0.389462
0.358565
0.184102
0.00374997
0.00248161
0.0079845
0.0239188
0.00735653
0.00736707
0.00870328
0.00512374
0.0437186
0.991077
0.999931
0.999857
0.999558
0.999579
0.998434
0.988505
0.984385
0.981937
0.961743
0.897324
0.706788
0.284048
0.176814
0.157184
0.0705783
0.00983829
0.00514522
0.0328166
0.995482
0.999872
0.999998
0.999998
0.999986
0.999975
0.999857
0.999915
0.999977
0.999754
0.999118
0.999319
0.941975
0.842419
0.868803
0.465673
0.0144172
0.00533291
0.029795
0.999585
0.999891
0.999993
0.999989
0.999989
0.999988
0.999988
0.999988
0.999988
0.999988
0.999988
0.999971
0.999955
0.992404
0.98639
0.784458
0.0627323
0.0052976
0.0191589
0.999937
0.999952
0.999989
0.999989
0.999988
0.999848
0.999785
0.999738
0.999702
0.999748
0.999815
0.999917
0.999875
0.998706
0.999255
0.975206
0.430397
0.00894439
0.0288063
0.999962
0.999826
0.99973
0.999693
0.999662
0.999649
0.999648
0.999644
0.999688
0.999762
0.999813
0.999894
0.999963
0.999992
0.999993
0.997326
0.944893
0.425751
0.131918
0.999948
0.999952
0.999946
0.99989
0.999806
0.99969
0.999655
0.999644
0.999644
0.999708
0.999917
0.999934
0.999949
0.999993
0.999993
0.999926
0.997228
0.974581
0.807064
0.999992
1
1
1
0.999995
0.999941
0.999787
0.99971
0.999806
0.999894
0.999951
0.999934
0.999937
0.999973
0.99999
0.999989
0.999991
0.999999
0.999981
1
1
1
1
1
1
0.999991
0.99998
0.999996
0.999998
0.999971
0.999949
0.999969
0.999981
0.999981
0.999984
0.999996
0.999999
0.999999
1
1
1
1
1
1
1
1
1
1
0.999999
0.999992
0.999965
0.999973
0.999992
0.999995
0.999999
1
1
1
1
1
1
1
1
1
1
1
1
1
0.999999
0.999968
0.999897
0.999946
0.999959
0.999869
0.999991
0.999998
1
1
1
1
1
1
1
1
1
1
1
1
0.999998
0.999909
0.99974
0.999714
0.999714
0.99974
0.99999
1
1
1
1
1
1
1
1
1
1
1
1
0.999999
0.999983
0.999914
0.999833
0.99977
0.999718
0.99999
1
1
1
1
1
1
1
1
1
1
1
1
0.999998
0.999997
0.999997
0.999993
0.999975
0.999723
0.999963
1
1
1
1
1
1
1
1
1
1
1
1
1
1
1
1
1
0.999897
0.999769
1
1
1
1
1
1
1
1
1
1
1
1
1
1
1
1
1
0.999994
0.999765
1
1
1
1
1
1
1
1
1
1
1
1
1
0.999999
0.999998
0.999998
0.999999
0.999996
0.999793
1
1
1
1
1
1
1
1
1
1
1
1
1
0.999999
0.999998
0.999998
0.999999
0.999998
0.999982
1
1
1
1
1
1
1
1
1
1
1
1
1
1
0.999999
0.999999
1
1
1
1
1
1
1
1
1
1
1
1
1
1
1
1
1
1
0.999999
0.999999
1
1
1
1
1
1
1
1
1
1
1
1
1
1
1
1
0.999999
0.999994
0.999993
0.999994
0.999995
1
1
1
1
1
1
1
1
1
1
1
1
1
1
1
0.999994
0.999993
0.999993
0.999993
1
1
1
1
1
1
1
1
1
1
1
1
1
1
1
0.999998
0.999993
0.999993
0.999999
1
1
1
1
1
1
1
1
1
1
1
1
1
1
1
1
0.999998
0.999996
1
1
1
1
1
1
1
1
1
1
1
1
1
1
1
1
1
1
1
1
1
1
1
1
1
1
1
1
1
1
1
1
1
1
1
1
1
1
1
1
1
1
1
1
1
1
1
1
1
1
1
1
1
1
1
1
1
1
1
1
1
1
1
1
1
1
1
1
1
1
1
1
1
1
1
1
1
1
1
1
1
1
1
1
1
1
1
1
1
1
1
1
1
1
1
1
1
1
1
1
1
1
1
1
1
1
1
1
1
1
1
1
1
1
1
1
1
1
1
1
1
1
1
1
1
1
1
1
1
1
1
1
1
1
1
1
1
1
1
1
1
1
1
1
1
1
1
1
1
1
1
1
1
1
1
1
1
1
1
1
1
1
1
1
1
1
1
1
1
1
1
1
1
1
1
1
1
1
1
1
1
1
1
1
1
1
1
1
1
1
1
)
;

boundaryField
{
    leftWall
    {
        type            alphaContactAngle;
        thetaProperties 
6
(
(galistan air) 90 0 0 0
(oil galistan) 90 0 0 0
(water oil) 90 0 0 0
(water air) 90 0 0 0
(oil air) 90 0 0 0
(water galistan) 90 0 0 0
);
        value           nonuniform List<scalar> 
50
(
6.87539e-10
6.98378e-10
6.97645e-10
6.97761e-10
0.000415768
0.000665026
0.000665226
0.000914209
0.000923199
0.000644011
0.000622811
0.0324132
0.0676857
0.0934935
0.710364
0.994368
0.995849
0.996517
0.999125
0.999996
0.999997
0.999998
1
1
1
1
1
1
1
1
1
1
1
1
1
1
1
1
1
1
1
1
1
1
1
1
0.999999
0.999999
0.999999
1
)
;
    }
    rightWall
    {
        type            alphaContactAngle;
        thetaProperties 
6
(
(galistan air) 90 0 0 0
(oil galistan) 90 0 0 0
(water oil) 90 0 0 0
(water air) 90 0 0 0
(oil air) 90 0 0 0
(water galistan) 90 0 0 0
);
        value           nonuniform List<scalar> 
50
(
0.00645028
0.0109031
0.0171136
0.0106287
0.00779752
0.0120079
0.0242634
0.0646519
0.0869028
0.0777861
0.057672
0.0332408
0.0530114
0.0851109
0.0840872
0.0510374
0.0437186
0.0328166
0.029795
0.0191589
0.0288063
0.131918
0.807064
0.999981
0.999999
1
0.999998
0.99999
0.99999
0.999963
0.999769
0.999765
0.999793
0.999982
1
1
0.999995
0.999993
0.999999
1
1
1
1
1
1
1
1
1
1
1
)
;
    }
    lowerWall
    {
        type            alphaContactAngle;
        thetaProperties 
6
(
(galistan air) 90 0 0 0
(oil galistan) 90 0 0 0
(water oil) 90 0 0 0
(water air) 90 0 0 0
(oil air) 90 0 0 0
(water galistan) 90 0 0 0
);
        value           nonuniform List<scalar> 
62
(
6.87539e-10
6.79064e-10
5.22088e-10
2.64754e-10
1.44562e-10
1.02992e-10
5.25398e-11
2.64691e-11
1.52268e-11
9.5929e-12
8.03378e-12
8.76332e-12
1.06048e-11
1.52373e-11
2.53982e-11
4.39331e-11
6.93935e-11
6.56991e-11
5.88712e-11
5.89035e-11
4.94468e-10
4.87835e-09
1.85083e-08
1.85083e-08
1.39815e-06
5.04593e-06
3.19976e-06
0.000659236
0.0139076
0.0177688
0.0149525
0.0191611
0.0224502
0.0297879
0.0367042
0.000235869
0.000235869
0.00152709
0.0305324
0.0376343
0.0376343
0.0376343
0.0376028
0.000235869
0.000235875
0.000253935
0.00307271
0.0117548
0.0117548
0.0117548
0.00900749
0.00722271
0.00566356
0.00443528
0.00447124
0.00467538
0.00441262
0.00463609
0.00690201
0.00709778
0.00645347
0.00645028
)
;
    }
    atmosphere
    {
        type            inletOutlet;
        inletValue      uniform 1;
        value           nonuniform List<scalar> 
46
(
1
1
1
1
1
1
1
1
1
1
1
1
1
1
1
1
1
1
1
1
1
1
1
1
1
1
1
1
1
1
1
1
1
1
1
1
1
1
1
1
1
1
1
1
1
1
)
;
    }
    defaultFaces
    {
        type            empty;
    }
}


// ************************************************************************* //
