/*--------------------------------*- C++ -*----------------------------------*\
| =========                 |                                                 |
| \\      /  F ield         | OpenFOAM: The Open Source CFD Toolbox           |
|  \\    /   O peration     | Version:  2312                                  |
|   \\  /    A nd           | Website:  www.openfoam.com                      |
|    \\/     M anipulation  |                                                 |
\*---------------------------------------------------------------------------*/
FoamFile
{
    version     2.0;
    format      ascii;
    arch        "LSB;label=32;scalar=64";
    class       volScalarField;
    location    "2.85";
    object      p;
}
// * * * * * * * * * * * * * * * * * * * * * * * * * * * * * * * * * * * * * //

dimensions      [1 -1 -2 0 0 0 0];

internalField   nonuniform List<scalar> 
2268
(
4747.88
4757.68
4778.58
4809.77
4853.99
4914.18
4992.74
5087.92
5192.18
5293.26
5377.66
5435.28
5462.41
5461.26
5437.09
5395.72
5343.21
5285.76
5229.17
5178.38
5137.65
5109.99
5094.84
3949.19
3958.8
3979.38
4010.08
4053.58
4113.29
4192.25
4289.05
4395.99
4500.17
4586.97
4645.6
4672.39
4670.11
4644.52
4601.52
4547.21
4487.94
4429.72
4377.57
4335.93
4307.82
4292.69
3148.44
3157.68
3177.57
3207.11
3249
3307.52
3387.09
3487.1
3599.53
3710.1
3801.86
3862.58
3888.67
3884.07
3855.63
3809.44
3751.61
3688.81
3627.47
3572.68
3529.27
3500.39
3486.01
2345.09
2353.95
2373.33
2401.2
2440.37
2496.63
2576.91
2681.79
2802.74
2923.37
3022.83
3086.62
3111.39
3103.14
3070.52
3019.52
2956.38
2888.16
2821.99
2762.99
2716.88
2687.44
2674.9
1540.02
1548.95
1566.96
1591.92
1626.89
1679.9
1760.99
1872.58
2005.56
2140.82
2251.21
2318.94
2341.3
2327.23
2288.79
2231.43
2160.89
2084.94
2012.11
1947
1896.91
1867.75
1859.21
942.995
947.037
955.231
966.418
982.318
1008.22
1052.82
1128.59
1237.73
1367.15
1488.64
1561.13
1579.7
1557.98
1510.8
1445.87
1368.7
1292.06
1226.33
1171.24
1131.27
1111.51
1110.28
721.732
720.486
720.058
720.148
721.159
722.814
724.692
733.776
760.278
809.821
873.403
915.706
924.943
908.611
875.022
832.299
789.426
759.991
738.97
724.191
715.775
713.635
712.876
661.591
660.226
659.346
658.431
657.766
655.978
649.767
637.776
622.519
609.111
598.208
590.491
585.232
582.112
579.152
575.947
573.592
586.692
597.902
607.424
615.383
621.427
617.806
2336.5
2375.73
2442.1
2536.1
2674.88
2823
2911.37
2937.05
2925.38
2887.19
2830.95
2783.55
2765.55
2785.22
2854.07
2934.43
2948.89
2917.76
2855.56
1608.55
1636.33
1694.79
1785.63
1919.68
2069.81
2160.66
2185.75
2173.69
2135.01
2074.3
2021.66
2004.16
2027.24
2102.18
2193.84
2220.95
2185.99
2142.62
1144.12
1151.76
1175.19
1215.53
1298.1
1433.74
1533.25
1542.49
1528.28
1504.96
1459.48
1414.82
1402.54
1427.22
1499.14
1596.25
1641.89
1629.29
1615.86
1005.57
1007.28
1005.23
1002.97
1017.73
1067.28
1139.44
1158.36
1145.34
1142.22
1131.85
1125.62
1129.69
1160.61
1193.75
1227.55
1254.69
1264.53
1265.8
954.972
956.124
951.549
950.65
950.268
940.77
963.528
1004.31
998.874
1007.75
1020.2
1038.57
1049.69
1079.44
1092.97
1079.48
1068.12
1069.06
1086.16
906.471
900.783
892.406
894.996
896.663
895.254
905.116
934.858
933.979
946.563
967.403
987.649
998.249
1026.89
1035.12
1024.52
1003.6
999.508
1027.35
838.172
835.51
825.491
832.765
836.839
842.035
841.963
859.11
869.499
885.285
917.368
939.11
944.986
960.588
963.862
957.335
943.539
938.533
960.774
738.629
745.248
750.569
767.422
773.686
783.019
782.384
790.977
809.703
827.897
858.306
878.732
888.623
888.778
889.128
887.82
882.895
879.118
894.215
567.956
566.053
564.628
563.142
562.235
560.107
553.357
542.509
529.605
516.791
502.536
489.186
481.387
478.596
479.321
484.637
488.285
494.813
504.342
513.015
520.727
527.223
528.527
441.403
439.116
436.998
434.544
432.931
432.627
427.008
415.34
403.572
392.684
382.17
373.483
367.963
365.567
365.252
367.233
372.156
375.594
382.446
389.66
396.612
402.025
405.921
313.28
310.45
306.843
303.48
303.418
305.1
303.019
293.007
284.584
278.578
273.52
269.184
266.143
265.403
266.426
269.427
274.637
281.393
289.279
297.124
305.009
312.586
320.47
198.435
195.97
192.588
190.705
191.205
192.756
196.588
196.975
194.9
194.524
194.21
192.931
191.861
192.45
194.75
198.255
204.166
212.221
220.852
229.425
237.769
246.252
254.989
112.669
110.727
109.11
107.691
107.529
106.741
110.238
119.673
126.455
130.537
132.1
132.01
131.681
132.439
134.642
137.693
141.979
148.039
155.558
163.514
171.574
180.146
189.027
49.9437
48.5017
47.168
43.7752
43.0972
47.311
51.567
58.8307
66.1511
70.1952
71.6825
71.831
71.9316
73.4554
75.884
78.0006
79.8373
83.4624
89.6766
96.5163
103.422
110.581
118.184
11.6195
10.3896
9.22934
6.28946
5.03529
8.96317
13.7303
17.119
19.9051
20.1994
20.0827
20.089
20.302
22.0628
24.268
26.4166
29.104
31.421
33.3235
35.3886
38.79
42.595
46.594
0.871425
0.242938
-0.142066
-0.467411
-0.787553
-0.986104
-1.05058
-1.06315
-1.07382
-1.04906
-0.988739
-0.936987
-0.874143
-0.717316
-0.233002
2.04361
5.3087
6.37263
5.87325
5.66695
6.70873
8.12628
10.257
-0.427804
-0.785059
-0.866995
-1.03714
-1.17102
-1.22579
-1.24724
-1.25831
-1.26513
-1.27723
-1.28632
-1.28547
-1.29243
-1.31566
-1.31224
-1.29337
-1.18183
-0.670012
-0.46147
-0.00309084
0.503144
1.1108
2.09012
-1.17161
-1.23115
-1.31568
-1.36321
-1.37375
-1.38334
-1.40926
-1.4217
-1.42594
-1.43566
-1.45039
-1.46474
-1.47877
-1.50838
-1.55681
-1.60704
-1.62712
-1.58362
-1.51301
-1.37135
-1.16577
-0.89421
-0.564502
-1.53821
-1.46547
-1.46771
-1.49169
-1.50647
-1.53183
-1.55725
-1.57378
-1.58548
-1.59946
-1.61755
-1.63861
-1.66516
-1.70138
-1.73608
-1.76536
-1.7847
-1.78325
-1.7523
-1.73586
-1.69783
-1.66175
-1.58712
-1.71579
-1.67696
-1.65229
-1.6594
-1.67535
-1.69473
-1.71604
-1.73579
-1.75259
-1.76804
-1.78372
-1.80184
-1.82648
-1.86143
-1.90291
-1.93329
-1.94447
-1.93432
-1.91036
-1.88732
-1.86921
-1.8556
-1.86266
-1.86595
-1.86829
-1.85325
-1.84392
-1.85274
-1.86823
-1.88804
-1.90841
-1.92472
-1.93541
-1.94366
-1.95527
-1.97418
-2.00413
-2.04057
-2.0707
-2.08496
-2.08097
-2.05969
-2.0361
-2.01885
-2.00981
-2.01177
-2.01698
-2.02199
-2.02026
-2.02098
-2.03174
-2.04902
-2.06749
-2.08248
-2.09144
-2.09422
-2.09372
-2.09921
-2.11246
-2.13658
-2.16542
-2.19142
-2.20682
-2.20579
-2.18915
-2.17185
-2.16011
-2.15539
-2.1557
-2.16423
-2.17058
-2.1774
-2.18769
-2.20261
-2.22052
-2.23568
-2.24482
-2.24683
-2.24334
-2.23599
-2.23534
-2.24802
-2.26882
-2.29133
-2.31121
-2.3206
-2.31855
-2.3109
-2.3036
-2.29899
-2.29597
-2.29226
-2.30548
-2.31401
-2.32541
-2.34056
-2.35705
-2.37282
-2.38381
-2.38772
-2.38412
-2.37849
-2.37563
-2.37692
-2.38554
-2.40022
-2.41712
-2.43065
-2.43692
-2.43552
-2.43166
-2.42932
-2.42736
-2.42367
-2.4189
-2.43676
-2.44665
-2.45947
-2.47554
-2.49096
-2.5035
-2.51062
-2.51216
-2.50979
-2.50676
-2.50625
-2.51037
-2.51928
-2.5299
-2.53997
-2.54648
-2.55077
-2.55287
-2.55285
-2.55187
-2.54959
-2.54546
-2.54155
-2.55734
-2.56759
-2.57991
-2.59469
-2.60802
-2.61831
-2.62438
-2.62663
-2.62726
-2.62843
-2.63125
-2.63682
-2.64475
-2.6523
-2.65833
-2.6635
-2.66769
-2.67112
-2.67247
-2.67133
-2.66902
-2.66656
-2.66441
-2.67147
-2.68157
-2.69303
-2.70654
-2.71878
-2.72873
-2.73605
-2.74116
-2.74506
-2.74896
-2.75372
-2.75966
-2.76628
-2.77246
-2.77781
-2.78243
-2.78633
-2.78932
-2.79083
-2.79082
-2.78996
-2.78894
-2.78822
-2.78536
-2.79532
-2.80638
-2.81942
-2.83166
-2.84234
-2.85118
-2.85819
-2.8641
-2.86978
-2.87561
-2.88172
-2.88783
-2.89348
-2.89846
-2.90279
-2.90646
-2.90934
-2.91122
-2.91216
-2.91248
-2.91261
-2.91283
-2.90306
-2.9128
-2.92368
-2.93655
-2.94895
-2.96014
-2.96974
-2.97787
-2.98499
-2.99157
-2.99788
-3.00402
-3.00987
-3.01524
-3.02002
-3.02421
-3.02781
-3.03076
-3.03301
-3.03462
-3.0358
-3.03681
-3.0379
-3.02569
-3.03497
-3.04552
-3.05802
-3.07023
-3.08145
-3.0913
-3.09988
-3.10747
-3.11438
-3.12082
-3.12688
-3.13253
-3.1377
-3.14235
-3.14647
-3.15006
-3.15314
-3.1557
-3.15781
-3.15962
-3.16132
-3.16309
-3.15264
-3.16123
-3.1712
-3.18302
-3.19469
-3.20552
-3.21518
-3.2237
-3.23128
-3.23816
-3.24449
-3.25036
-3.25579
-3.26078
-3.2653
-3.26936
-3.27298
-3.27618
-3.27899
-3.28149
-3.28377
-3.28599
-3.2883
-3.28278
-3.29057
-3.29975
-3.31067
-3.32151
-3.33166
-3.34081
-3.34895
-3.35623
-3.36283
-3.36888
-3.37447
-3.37965
-3.38443
-3.38881
-3.3928
-3.39643
-3.39973
-3.40273
-3.4055
-3.40813
-3.41074
-3.41344
-3.4151
-3.42204
-3.43034
-3.44024
-3.45012
-3.45943
-3.46787
-3.47542
-3.48219
-3.48834
-3.49398
-3.49922
-3.50409
-3.50862
-3.51283
-3.51673
-3.52034
-3.52369
-3.52682
-3.52978
-3.53265
-3.53553
-3.53852
-3.54882
-3.55495
-3.56233
-3.57119
-3.58006
-3.58845
-3.59607
-3.6029
-3.60904
-3.61462
-3.61976
-3.62457
-3.62908
-3.63333
-3.63733
-3.64109
-3.64464
-3.648
-3.6512
-3.65428
-3.65731
-3.66036
-3.66352
-3.68345
-3.6888
-3.69531
-3.70314
-3.71101
-3.71844
-3.72518
-3.73121
-3.73663
-3.74156
-3.74614
-3.75046
-3.75457
-3.75851
-3.76227
-3.76587
-3.76932
-3.77263
-3.77584
-3.77897
-3.78208
-3.78523
-3.78847
-3.81865
-3.82328
-3.82897
-3.83584
-3.84273
-3.8492
-3.85504
-3.86022
-3.86485
-3.86908
-3.87305
-3.87685
-3.88053
-3.88412
-3.88761
-3.89102
-3.89433
-3.89756
-3.90072
-3.90384
-3.90696
-3.91013
-3.91339
-3.95417
-3.95815
-3.9631
-3.96907
-3.97502
-3.98056
-3.98547
-3.98976
-3.99358
-3.99707
-4.0004
-4.00366
-4.00689
-4.01012
-4.01332
-4.0165
-4.01964
-4.02275
-4.02582
-4.02888
-4.03195
-4.03508
-4.03829
-4.08975
-4.09317
-4.09744
-4.10261
-4.10768
-4.11231
-4.11629
-4.11969
-4.12268
-4.12544
-4.12813
-4.13084
-4.13362
-4.13647
-4.13937
-4.14231
-4.14525
-4.14819
-4.15113
-4.15408
-4.15706
-4.16009
-4.1632
-4.22514
-4.22806
-4.23173
-4.23618
-4.24045
-4.24421
-4.2473
-4.24983
-4.25202
-4.25407
-4.25615
-4.25834
-4.26067
-4.26315
-4.26574
-4.26841
-4.27112
-4.27387
-4.27664
-4.27944
-4.28228
-4.28518
-4.28814
-4.36005
-4.36253
-4.36569
-4.3695
-4.37303
-4.376
-4.37827
-4.37999
-4.38144
-4.38285
-4.38438
-4.38609
-4.38802
-4.39013
-4.39241
-4.39479
-4.39726
-4.39978
-4.40235
-4.40496
-4.40762
-4.41034
-4.41311
-4.49442
-4.49643
-4.499
-4.50225
-4.50514
-4.50741
-4.50896
-4.50998
-4.5108
-4.51167
-4.51274
-4.51405
-4.51561
-4.51739
-4.51935
-4.52144
-4.52363
-4.5259
-4.52823
-4.53062
-4.53307
-4.53558
-4.53815
-4.62738
-4.62913
-4.63139
-4.63417
-4.63651
-4.6382
-4.63917
-4.63964
-4.63999
-4.64046
-4.64117
-4.64216
-4.64341
-4.64489
-4.64654
-4.64833
-4.65023
-4.65223
-4.65429
-4.65643
-4.65864
-4.66091
-4.66324
-4.7594
-4.76086
-4.76271
-4.76509
-4.76697
-4.76824
-4.76881
-4.76891
-4.76894
-4.76916
-4.76964
-4.77038
-4.77138
-4.77258
-4.77394
-4.77543
-4.77703
-4.77873
-4.78051
-4.78237
-4.78432
-4.78633
-4.7884
-4.89039
-4.89156
-4.89295
-4.89495
-4.89648
-4.89753
-4.89788
-4.89781
-4.89768
-4.89777
-4.89811
-4.89869
-4.89947
-4.90042
-4.9015
-4.9027
-4.90399
-4.90538
-4.90686
-4.90843
-4.91009
-4.91183
-4.91363
-5.02045
-5.0213
-5.02244
-5.02395
-5.02516
-5.026
-5.02637
-5.02637
-5.02623
-5.0263
-5.02659
-5.02705
-5.02764
-5.02836
-5.02918
-5.03009
-5.03107
-5.03215
-5.03332
-5.03458
-5.03595
-5.03741
-5.03892
-5.14973
-5.15035
-5.15122
-5.15234
-5.15332
-5.15406
-5.15449
-5.15465
-5.15467
-5.1548
-5.15508
-5.15545
-5.15588
-5.15637
-5.15693
-5.15755
-5.15823
-5.15899
-5.15985
-5.16081
-5.16188
-5.16305
-5.16427
-5.27855
-5.27896
-5.2796
-5.28046
-5.2813
-5.28202
-5.28255
-5.28289
-5.28312
-5.28336
-5.28362
-5.2839
-5.28416
-5.28443
-5.28472
-5.28505
-5.28543
-5.28589
-5.28644
-5.2871
-5.28787
-5.28874
-5.28968
-5.40715
-5.40746
-5.40795
-5.40863
-5.4094
-5.41013
-5.41077
-5.4113
-5.41172
-5.41204
-5.41227
-5.41242
-5.41249
-5.41252
-5.41254
-5.41258
-5.41267
-5.41283
-5.41307
-5.41342
-5.4139
-5.41448
-5.41514
-5.53558
-5.536
-5.53645
-5.53704
-5.53779
-5.53857
-5.53933
-5.54002
-5.54056
-5.54091
-5.54107
-5.54106
-5.54092
-5.54069
-5.54043
-5.54018
-5.53996
-5.53981
-5.53974
-5.53979
-5.53997
-5.54027
-5.54066
-5.66512
-5.66496
-5.66521
-5.66576
-5.66656
-5.66744
-5.66834
-5.6692
-5.66984
-5.67019
-5.67022
-5.67001
-5.6696
-5.66908
-5.6685
-5.66792
-5.66737
-5.66688
-5.66649
-5.66621
-5.66608
-5.66609
-5.6662
548.472
556.599
560.748
571.284
410.915
416.051
421.761
426.594
327.026
331.308
335.722
341.597
261.958
266.37
270.525
274.245
195.703
199.641
203.195
206.629
124.912
129.376
133.453
137.655
51.4892
56.0505
60.6554
65.3688
11.8372
13.4642
15.4016
17.2183
3.31415
4.04073
4.57774
4.68323
-0.272425
-0.0178874
0.050252
0.343261
-1.54894
-1.56044
-1.53791
-1.47376
-1.86294
-1.85552
-1.84785
-1.86488
-2.01504
-2.01409
-2.01068
-2.00927
-2.1555
-2.15401
-2.1506
-2.14613
-2.28896
-2.28585
-2.28148
-2.27545
-2.41421
-2.41085
-2.40718
-2.40209
-2.53809
-2.53556
-2.53267
-2.52898
-2.66237
-2.66079
-2.65901
-2.65678
-2.78736
-2.78663
-2.78581
-2.78476
-2.91288
-2.91282
-2.91274
-2.91256
-3.03863
-3.03908
-3.03956
-3.04001
-3.16438
-3.16522
-3.1661
-3.16699
-3.29002
-3.29114
-3.29231
-3.29352
-3.41548
-3.41681
-3.41819
-3.41962
-3.54078
-3.54224
-3.54377
-3.54534
-3.66592
-3.66747
-3.66909
-3.67075
-3.79093
-3.79253
-3.79418
-3.79588
-3.91585
-3.91747
-3.91912
-3.92082
-4.04072
-4.04231
-4.04394
-4.04561
-4.16555
-4.16709
-4.16867
-4.17029
-4.29038
-4.29185
-4.29335
-4.2949
-4.41522
-4.41661
-4.41802
-4.41947
-4.5401
-4.54138
-4.54268
-4.54403
-4.66502
-4.66618
-4.66737
-4.66859
-4.78999
-4.79103
-4.79209
-4.79318
-4.91501
-4.91592
-4.91685
-4.91781
-5.0401
-5.04087
-5.04166
-5.04248
-5.16523
-5.16587
-5.16652
-5.1672
-5.29043
-5.29093
-5.29144
-5.29197
-5.41568
-5.41603
-5.4164
-5.41678
-5.54098
-5.54119
-5.54142
-5.54164
-5.66631
-5.66639
-5.66646
-5.66655
575.466
599.028
632.816
662.378
674.226
687.707
687.118
696.469
714.506
731.871
750.961
765.988
785.734
783.53
790.568
797.206
801.38
799.105
810.326
431.447
452.92
491.83
524.701
546.235
559.36
561.635
568.339
583.692
597.835
614.051
629.352
643.272
648.069
661.851
676.623
690.591
698.812
718.903
348.448
360.43
379.482
400.677
422.643
437.943
444.224
447.612
460.86
474.437
495.369
515.962
524.971
536.459
547.468
565.508
585.621
604.935
634.318
279.995
288.004
297.425
306.997
317.47
328.811
335.901
342.014
360
375.02
396.711
422.786
430.958
445.702
458.076
476.523
496.648
516.382
539.114
212.465
220.857
229.451
237.112
242.33
245.484
249.307
256.878
275.2
294.405
316.108
338.126
354.056
366.458
380.815
400.842
419.458
433.924
445.44
144.495
152.946
161.64
170.206
176.948
181.896
186.186
193.695
206.18
222.518
242.639
265.534
286.78
299.938
313.633
330.542
351.312
364.611
375.054
73.0068
81.6529
91.9052
103.316
112.169
119.864
126.813
134.672
145.566
160.323
177.815
197.981
219.937
239.972
257.478
272.787
290.608
306.396
317.813
20.7146
24.5121
30.1498
38.4367
46.5115
56.397
66.1997
74.7793
84.9869
99.0922
115.407
132.362
151.951
176.837
201.972
221.861
238.429
254.167
268.1
4.39323
2.66102
2.82703
3.54634
6.00366
11.5547
17.7875
22.1655
28.6585
37.5946
48.8267
62.9006
84.1464
108.768
140.012
170.054
192.085
207.993
221.096
-0.191414
-0.964398
-1.2231
-1.30978
-1.27454
-1.17522
-0.956701
-0.494254
1.7768
3.78157
6.89007
11.4518
25.2139
43.297
72.8274
112.041
144.572
163.779
175.343
-1.47449
-1.50955
-1.59877
-1.65854
-1.64505
-1.60578
-1.59096
-1.54845
-1.47788
-1.32655
-0.89336
-0.551403
0.679866
5.2109
21.3953
54.7773
96.3331
120.139
130.288
-1.87735
-1.79457
-1.76116
-1.76713
-1.7704
-1.75166
-1.72738
-1.69677
-1.68919
-1.66243
-1.60449
-1.4419
-1.27727
-0.769612
2.75957
18.4049
53.5485
80.4042
86.6389
-2.00698
-1.95335
-1.90876
-1.90047
-1.89857
-1.88994
-1.87929
-1.87709
-1.87996
-1.8649
-1.82424
-1.7393
-1.67409
-1.63798
-1.75605
0.984124
21.5225
45.7178
49.2301
-2.1349
-2.09999
-2.07177
-2.06172
-2.05877
-2.06017
-2.06833
-2.09531
-2.11185
-2.10191
-2.07411
-2.04086
-2.02431
-1.99357
-2.04071
-1.52817
4.18365
21.8306
23.8677
-2.26348
-2.24592
-2.23398
-2.22892
-2.23216
-2.24
-2.25324
-2.27729
-2.2971
-2.30108
-2.29663
-2.29187
-2.30161
-2.29264
-2.34103
-2.74994
-0.901058
2.12573
3.1663
-2.39319
-2.38364
-2.37801
-2.37813
-2.38523
-2.39764
-2.41613
-2.43889
-2.45808
-2.46951
-2.473
-2.4866
-2.51632
-2.55309
-2.63988
-2.86066
-2.91854
-2.92859
-2.92893
-2.52308
-2.51833
-2.51657
-2.51921
-2.52727
-2.54069
-2.56035
-2.58137
-2.59826
-2.6121
-2.62588
-2.64949
-2.68332
-2.72534
-2.79411
-2.90444
-3.008
-2.98794
-2.99657
-2.65346
-2.65189
-2.65271
-2.65694
-2.66523
-2.67775
-2.69434
-2.71223
-2.72902
-2.74569
-2.76468
-2.7905
-2.82227
-2.86072
-2.89269
-2.95778
-3.02651
-3.05128
-3.06515
-2.78341
-2.784
-2.78657
-2.7918
-2.80013
-2.81166
-2.82604
-2.84187
-2.85824
-2.87568
-2.8956
-2.92063
-2.9516
-2.98135
-2.9976
-3.04349
-3.08823
-3.1235
-3.13907
-2.91262
-2.91468
-2.9184
-2.92424
-2.93251
-2.94325
-2.95616
-2.97061
-2.98623
-3.00337
-3.02284
-3.04596
-3.07421
-3.10206
-3.12119
-3.15216
-3.18138
-3.20537
-3.21824
-3.04107
-3.04414
-3.04861
-3.0548
-3.06293
-3.07302
-3.08491
-3.0983
-3.11304
-3.12933
-3.14765
-3.1686
-3.19279
-3.21988
-3.24507
-3.27235
-3.29464
-3.30891
-3.31298
-3.16876
-3.17253
-3.17747
-3.18383
-3.19176
-3.20129
-3.21236
-3.22482
-3.23862
-3.25386
-3.27075
-3.28961
-3.31071
-3.33356
-3.35715
-3.38239
-3.40327
-3.4183
-3.40976
-3.29578
-3.30001
-3.30523
-3.31162
-3.31929
-3.3283
-3.33861
-3.35019
-3.36301
-3.3771
-3.39254
-3.40944
-3.42784
-3.44737
-3.46725
-3.48775
-3.50519
-3.52291
-3.51302
-3.42221
-3.42673
-3.43207
-3.43838
-3.44576
-3.45424
-3.46383
-3.47453
-3.48632
-3.49922
-3.51323
-3.52833
-3.54441
-3.56117
-3.57811
-3.59545
-3.60921
-3.623
-3.6218
-3.54815
-3.55281
-3.55816
-3.56431
-3.57134
-3.57929
-3.58817
-3.59799
-3.60875
-3.62043
-3.63302
-3.64645
-3.66055
-3.67502
-3.68944
-3.70379
-3.71553
-3.72687
-3.73229
-3.67367
-3.67836
-3.68364
-3.68957
-3.69622
-3.70363
-3.71181
-3.72076
-3.73049
-3.74097
-3.75217
-3.764
-3.77631
-3.7888
-3.80112
-3.81306
-3.82307
-3.83223
-3.83887
-3.79885
-3.8035
-3.80862
-3.81429
-3.82054
-3.8274
-3.83489
-3.843
-3.85173
-3.86104
-3.8709
-3.88122
-3.89184
-3.90251
-3.9129
-3.92263
-3.93067
-3.93719
-3.94111
-3.92378
-3.9283
-3.93322
-3.93858
-3.94441
-3.95073
-3.95756
-3.96486
-3.97264
-3.98085
-3.98945
-3.99835
-4.0074
-4.01637
-4.02494
-4.03267
-4.03882
-4.04316
-4.04579
-4.0485
-4.05284
-4.05752
-4.06254
-4.06795
-4.07374
-4.07992
-4.08647
-4.09336
-4.10056
-4.108
-4.11561
-4.12325
-4.13071
-4.13771
-4.14381
-4.14846
-4.15126
-4.15314
-4.17307
-4.1772
-4.18159
-4.18626
-4.19124
-4.19651
-4.20208
-4.20792
-4.21399
-4.22027
-4.22669
-4.23316
-4.23958
-4.24578
-4.25152
-4.25648
-4.26009
-4.26199
-4.26339
-4.29754
-4.30141
-4.3055
-4.30981
-4.31435
-4.31912
-4.32411
-4.32929
-4.33463
-4.34008
-4.3456
-4.3511
-4.35649
-4.36164
-4.36639
-4.37051
-4.3735
-4.37503
-4.37605
-4.42194
-4.42554
-4.4293
-4.43324
-4.43735
-4.44163
-4.44607
-4.45064
-4.45531
-4.46003
-4.46477
-4.46944
-4.47397
-4.47827
-4.48221
-4.48565
-4.48828
-4.48968
-4.49041
-4.54631
-4.5496
-4.55303
-4.55659
-4.56028
-4.56409
-4.56801
-4.57202
-4.57608
-4.58016
-4.58421
-4.58817
-4.59199
-4.59558
-4.59887
-4.60173
-4.604
-4.60534
-4.60595
-4.67067
-4.67364
-4.67672
-4.6799
-4.68317
-4.68653
-4.68997
-4.69345
-4.69696
-4.70046
-4.70391
-4.70726
-4.71047
-4.71348
-4.71622
-4.71861
-4.72054
-4.72177
-4.72234
-4.79504
-4.79768
-4.8004
-4.8032
-4.80606
-4.80898
-4.81195
-4.81495
-4.81795
-4.82093
-4.82385
-4.82667
-4.82936
-4.83187
-4.83415
-4.83614
-4.83775
-4.83886
-4.83938
-4.91944
-4.92173
-4.92409
-4.92651
-4.92897
-4.93146
-4.93399
-4.93653
-4.93906
-4.94156
-4.944
-4.94636
-4.94859
-4.95067
-4.95255
-4.95419
-4.95552
-4.95649
-4.95696
-5.04387
-5.04582
-5.04781
-5.04984
-5.0519
-5.05399
-5.05609
-5.05819
-5.06028
-5.06235
-5.06435
-5.06628
-5.06811
-5.0698
-5.07133
-5.07266
-5.07375
-5.07458
-5.07499
-5.16834
-5.16993
-5.17156
-5.17321
-5.17488
-5.17657
-5.17825
-5.17994
-5.18162
-5.18327
-5.18488
-5.18642
-5.18787
-5.18921
-5.19043
-5.19149
-5.19236
-5.19304
-5.1934
-5.29285
-5.2941
-5.29536
-5.29663
-5.29791
-5.29921
-5.3005
-5.30179
-5.30308
-5.30434
-5.30556
-5.30674
-5.30784
-5.30887
-5.3098
-5.31062
-5.31129
-5.31183
-5.31212
-5.41742
-5.4183
-5.4192
-5.4201
-5.42101
-5.42191
-5.42282
-5.42373
-5.42464
-5.42552
-5.42639
-5.42722
-5.428
-5.42873
-5.4294
-5.42999
-5.43048
-5.43089
-5.43111
-5.54203
-5.54256
-5.54309
-5.54363
-5.54416
-5.5447
-5.54523
-5.54577
-5.5463
-5.54683
-5.54734
-5.54783
-5.54831
-5.54876
-5.54918
-5.54956
-5.54989
-5.55016
-5.55031
-5.66668
-5.66685
-5.66703
-5.6672
-5.66737
-5.66754
-5.66771
-5.66788
-5.66805
-5.66822
-5.66839
-5.66856
-5.66874
-5.66892
-5.66912
-5.66933
-5.66952
-5.66967
-5.66971
)
;

boundaryField
{
    leftWall
    {
        type            calculated;
        value           nonuniform List<scalar> 
50
(
4747.88
3949.19
3148.44
2345.09
1540.02
942.995
721.732
661.591
567.956
441.403
313.28
198.435
112.669
49.9437
11.6195
0.871425
-0.427804
-1.17161
-1.53821
-1.71579
-1.86595
-2.01698
-2.16423
-2.30548
-2.43676
-2.55734
-2.67147
-2.78536
-2.90306
-3.02569
-3.15264
-3.28278
-3.4151
-3.54882
-3.68345
-3.81865
-3.95417
-4.08975
-4.22514
-4.36005
-4.49442
-4.62738
-4.7594
-4.89039
-5.02045
-5.14973
-5.27855
-5.40715
-5.53558
-5.66512
)
;
    }
    rightWall
    {
        type            calculated;
        value           nonuniform List<scalar> 
50
(
2855.56
2142.62
1615.86
1265.8
1086.16
1027.35
960.774
894.215
810.326
718.903
634.318
539.114
445.44
375.054
317.813
268.1
221.096
175.343
130.288
86.6389
49.2301
23.8677
3.1663
-2.92893
-2.99657
-3.06515
-3.13907
-3.21824
-3.31298
-3.40976
-3.51302
-3.6218
-3.73229
-3.83887
-3.94111
-4.04579
-4.15314
-4.26339
-4.37605
-4.49041
-4.60595
-4.72234
-4.83938
-4.95696
-5.07499
-5.1934
-5.31212
-5.43111
-5.55031
-5.66971
)
;
    }
    lowerWall
    {
        type            calculated;
        value           nonuniform List<scalar> 
62
(
5146.03
5155.83
5176.73
5207.92
5252.14
5312.33
5390.89
5486.07
5590.33
5691.41
5775.81
5833.43
5860.56
5859.41
5835.24
5793.87
5741.36
5683.91
5627.32
5576.53
5535.79
5508.12
5492.97
5094.84
4292.69
3486.01
2674.9
1859.21
1110.28
712.876
617.806
639.522
646.479
647.727
667.42
2336.5
1608.55
1144.12
1005.57
954.972
906.471
838.172
738.629
2709.52
2748.75
2815.12
2909.1
3051.58
3200.77
3288.93
3314.53
3302.8
3265.22
3209.68
3163.07
3145.07
3164.74
3233.56
3313.83
3328.28
3297.14
3234.93
)
;
    }
    atmosphere
    {
        type            calculated;
        value           nonuniform List<scalar> 
46
(
-5.72905
-5.72918
-5.72957
-5.73027
-5.73122
-5.73218
-5.73326
-5.73434
-5.73506
-5.73536
-5.73527
-5.73488
-5.73427
-5.73353
-5.73274
-5.73196
-5.73121
-5.73052
-5.72992
-5.72944
-5.72914
-5.72904
-5.72904
-5.72904
-5.72904
-5.72904
-5.72904
-5.72904
-5.72904
-5.72904
-5.72904
-5.72904
-5.72904
-5.72904
-5.72904
-5.72904
-5.72904
-5.72904
-5.72904
-5.72904
-5.72904
-5.72904
-5.72904
-5.72905
-5.72905
-5.72905
)
;
    }
    defaultFaces
    {
        type            empty;
    }
}


// ************************************************************************* //
