/*--------------------------------*- C++ -*----------------------------------*\
| =========                 |                                                 |
| \\      /  F ield         | OpenFOAM: The Open Source CFD Toolbox           |
|  \\    /   O peration     | Version:  2312                                  |
|   \\  /    A nd           | Website:  www.openfoam.com                      |
|    \\/     M anipulation  |                                                 |
\*---------------------------------------------------------------------------*/
FoamFile
{
    version     2.0;
    format      ascii;
    arch        "LSB;label=32;scalar=64";
    class       volScalarField;
    location    "2.85";
    object      p_rgh;
}
// * * * * * * * * * * * * * * * * * * * * * * * * * * * * * * * * * * * * * //

dimensions      [1 -1 -2 0 0 0 0];

internalField   nonuniform List<scalar> 
2268
(
5146.03
5155.83
5176.73
5207.92
5252.14
5312.33
5390.89
5486.07
5590.33
5691.41
5775.81
5833.43
5860.56
5859.41
5835.24
5793.87
5741.36
5683.91
5627.32
5576.53
5535.79
5508.12
5492.97
5143.64
5153.25
5173.83
5204.53
5248.03
5307.74
5386.7
5483.5
5590.44
5694.62
5781.42
5840.05
5866.84
5864.56
5838.97
5795.97
5741.66
5682.39
5624.17
5572.02
5530.38
5502.25
5487.1
5139.19
5148.43
5168.32
5197.86
5239.75
5298.26
5377.83
5477.84
5590.28
5700.85
5792.61
5853.33
5879.42
5874.82
5846.38
5800.19
5742.36
5679.56
5618.22
5563.43
5520.02
5491.13
5476.75
5132.14
5141
5160.38
5188.11
5227.16
5283.68
5363.95
5468.84
5589.79
5710.42
5809.88
5873.66
5898.44
5890.18
5857.56
5806.57
5743.42
5675.2
5609.04
5550.04
5503.92
5474.48
5461.94
5096.02
5110.26
5138.79
5170.96
5209.75
5262.93
5343.93
5455.64
5588.89
5724.17
5834.55
5902.29
5924.64
5910.58
5872.14
5814.78
5744.23
5668.29
5595.45
5529.64
5479.02
5450.74
5440.05
3024.03
3088.58
3187.82
3309.1
3464.85
3718.05
4146.74
4707.39
5270.23
5700.66
5868.04
5940.73
5959.35
5937.63
5890.38
5816.98
5708.09
5531.29
5301.24
5052.22
4838.42
4728.04
4719.92
1105.42
1105.55
1109.45
1117.27
1131.74
1164.02
1253.18
1542.16
2158.57
3082.42
4126.46
4712.02
4817.44
4622.25
4218.48
3786.21
3230.64
2610.29
2162.99
1824.92
1598.09
1495.85
1521.7
1102.24
1101.2
1100.54
1100.33
1100
1097.87
1091.89
1079.91
1064.76
1051.59
1109.24
1280.77
1359.18
1312.33
1223.14
1048.61
1003.45
1022.38
1032.62
1041.14
1050.65
1056.57
1050.51
2709.52
2748.75
2815.12
2909.1
3051.58
3200.77
3288.93
3314.53
3302.8
3265.22
3209.68
3163.07
3145.07
3164.74
3233.56
3313.83
3328.28
3297.14
3234.93
2643.68
2712.36
2786.39
2890.8
3040.32
3208.17
3298.94
3324.16
3312.27
3271.57
3199.64
3142.8
3119.19
3140.29
3214.91
3292.74
3273.05
3241.22
3130.18
1698.13
1741.65
1892.74
2142.2
2472.57
2718.52
2765.07
2862.63
2904.73
2801.62
2635.76
2519.4
2469.89
2472.58
2642.93
2815.63
2850.61
2659.82
2533.64
1185.91
1176.67
1176.25
1176.82
1309.85
1830.3
2181.52
2008.05
1960.13
1917.31
1758.31
1555.33
1502.23
1528
1703.52
2130.63
2359.61
2361.91
2318.1
1165.81
1202.03
1207.52
1180.21
1169.98
1133.39
1210.72
1292.85
1284.53
1271.72
1238.34
1254.02
1256.95
1285.85
1324.87
1332.86
1420.84
1434.36
1317.49
1164.53
1213.4
1214.65
1214.91
1208.19
1142.89
1225.25
1344.76
1313.22
1313.16
1239.73
1249.87
1260.25
1343.53
1372.03
1354.82
1336.34
1349.27
1365.3
1362.11
1299.07
1218.42
1215.23
1219.34
1191.98
1200.98
1342.7
1266.18
1255.37
1228.03
1247.12
1261.75
1452
1464.97
1458.22
1371.24
1305.24
1369.79
1520.93
1486.76
1225.41
1208.75
1215.02
1210.08
1192.41
1273.96
1266.45
1254.28
1343.81
1370.72
1325.82
1426.85
1443.37
1377.89
1319.76
1287.64
1295.64
1101.18
1100.29
1098.39
1096.89
1095.54
1093.26
1086.56
1075.71
1062.81
1050
1038.26
1025.5
1016.18
1019.4
1035.47
1030.89
970.498
1020.72
1029.95
1040.15
1049.29
1054.65
1082.1
1100.49
1098.79
1093.52
1089.29
1087.88
1085.96
1078.82
1068.64
1057.84
1045.5
1024
1012.04
1010.58
1004.44
977.057
945.431
983.998
979.7
975.574
984.211
981.974
974.491
958.712
1099.31
1096.29
1092.31
1085.2
1079.26
1078.83
1003.77
969.04
955.749
917.052
869.521
848.999
838.484
830.939
812.089
825.991
790.951
740.733
719.741
711.363
721.061
720.986
717.79
999.47
997.987
980.774
945.107
927.511
971.873
938.786
730.083
677.577
656.227
645.111
640.238
639.274
642.005
648.6
647.875
655.641
666.299
675.453
683.948
688.039
672.413
671.967
599.309
600.983
605.493
637.757
659.504
612.251
709.903
732.83
644.476
647.531
649.026
648.823
648.497
649.268
651.526
654.82
659.285
665.477
672.93
681.282
691.334
701.308
710.152
578.726
572.534
570.821
558.525
588.525
570.09
462.745
501.085
556.039
635.013
651.034
651.22
650.822
650.962
653.882
657.712
661.242
666.173
677.547
682.13
685.053
690.42
716.97
205.304
194.986
180.228
126.517
119.773
216.704
315.455
380.122
440.335
449.684
447.39
447.923
452.505
481.289
507.99
463.783
373.229
391.833
481.906
541.545
565.537
580.098
598.774
13.9026
13.176
10.9409
8.57727
4.15142
1.01387
1.07033
1.2699
1.1055
2.33183
4.06028
4.33597
4.26895
11.0304
24.9683
80.6998
150.256
150.933
124.351
93.9957
107.593
129.247
138.823
11.4878
4.50341
9.35306
7.39191
1.31676
0.332539
0.305703
0.283667
0.273162
0.260354
0.404279
0.841542
0.925076
0.689693
0.632097
0.450456
10.3348
20.3904
22.082
21.533
25.2638
24.8909
41.1668
8.01393
0.811597
0.442018
0.482268
0.308328
0.278731
0.252893
0.242276
0.238434
0.227677
0.212022
0.213254
0.344315
0.776127
0.741148
0.486103
0.0481464
0.0779841
0.975132
6.47021
9.05882
15.1796
15.8314
1.84728
2.59061
0.7188
0.428083
0.367987
0.257211
0.231195
0.223201
0.28205
0.268979
0.190878
0.152684
0.145191
0.251686
0.711741
0.546337
0.0519251
0.00364133
0.0344365
0.0869926
0.387393
0.677631
4.33283
0.241732
2.654
1.71834
0.374773
0.327788
0.228657
0.204994
0.292082
0.325303
0.30278
0.200808
0.114489
0.0888211
0.0540642
0.0140264
0.00701835
-0.0167804
-0.0195797
0.00352522
0.0263412
0.0432102
0.0571924
0.0680751
0.173414
0.59446
0.553333
0.295988
0.23123
0.246615
0.312927
0.300875
0.284701
0.208097
0.110213
0.0921192
0.0765296
0.0807255
0.0472733
0.0118553
-0.0397324
-0.041907
-0.0219506
0.00153942
0.0186251
0.0279021
0.142587
0.147097
0.139867
0.142019
0.1431
0.165572
0.246843
0.248409
0.195443
0.0817602
0.0787547
0.089296
0.121524
0.175652
0.148667
0.0452093
0.0372014
-0.00838494
-0.026753
0.0284304
0.178134
0.186963
0.147495
0.0579021
0.12261
0.116384
0.110151
0.105736
0.0889436
0.0698453
0.0538474
0.0444948
0.044225
0.0665852
0.136229
0.170172
0.228232
0.223186
0.234888
0.228198
0.225263
0.0790243
0.032989
0.107804
0.21153
0.161886
0.0866777
0.106284
0.0978605
0.0881878
0.0732106
0.0566762
0.0408848
0.031933
0.0428174
0.0696693
0.107433
0.113015
0.125107
0.316797
0.327225
0.302711
0.0352688
-0.0142216
0.0975348
0.180796
0.186616
0.172482
0.0279402
0.00736026
0.100029
0.0902879
0.0790807
0.0634583
0.0487043
0.0430982
0.0677079
0.0776721
0.0850677
0.0623973
0.0393135
0.05601
0.157416
0.146089
0.000827012
-0.00490881
-0.0054766
0.114536
0.180283
0.0755198
-0.0125385
-0.0073915
-0.00292324
0.104644
0.0944768
0.0823618
0.0685389
0.0582888
0.063964
0.0879055
0.083681
0.0542496
0.0340385
0.0316325
0.02639
0.0173066
0.00977758
0.00396123
0.000433517
0.000647863
-0.00196398
-0.00565941
-0.00815349
-0.00682177
-0.00439445
-0.00217465
0.115671
0.105574
0.0941457
0.080659
0.068501
0.0649549
0.0792444
0.0667678
0.0423259
0.038667
0.033973
0.0279258
0.0212831
0.0148687
0.00934046
0.00467146
0.00085773
-0.00199245
-0.00356986
-0.00375619
-0.00281364
-0.0018258
-0.00115674
0.126975
0.116954
0.105901
0.0928574
0.0806871
0.0699373
0.0611889
0.0542075
0.0485386
0.0429668
0.0371243
0.0310845
0.0248842
0.0190331
0.0139
0.00947183
0.00578733
0.00290297
0.00104166
0.00012563
-0.000218747
-0.00037998
-0.000625516
0.134477
0.124629
0.113756
0.10091
0.0885532
0.0774019
0.0678382
0.0597239
0.0527475
0.0463598
0.0400612
0.0337615
0.0277627
0.022346
0.0174953
0.0132441
0.00960713
0.00664236
0.00438926
0.00278352
0.00160716
0.000580177
-0.000512892
0.137101
0.127649
0.117076
0.104586
0.0923893
0.0811925
0.0713539
0.0627939
0.0551894
0.0482795
0.0418524
0.035795
0.0301505
0.0249621
0.0202893
0.0161419
0.0125239
0.00943739
0.00687446
0.00476029
0.00295139
0.0012505
-0.000522854
0.135371
0.126583
0.116581
0.104754
0.0930915
0.0822619
0.0726049
0.0640861
0.0565014
0.0496286
0.0433032
0.0374341
0.0320007
0.0270116
0.0224837
0.0184122
0.0147813
0.0115754
0.00876111
0.00626896
0.00398853
0.00176811
-0.000541945
0.130465
0.122445
0.113222
0.102296
0.0914502
0.0812917
0.0721431
0.0640016
0.0567215
0.0501274
0.0440782
0.038484
0.0333049
0.0285284
0.0241475
0.0201498
0.0165151
0.0132163
0.0102127
0.00744148
0.00481335
0.00220769
-0.000499791
0.123354
0.116169
0.10782
0.0979146
0.0880283
0.0787141
0.070273
0.0627212
0.0559457
0.0497998
0.0441551
0.0389225
0.034052
0.0295199
0.0253118
0.0214127
0.0178016
0.0144502
0.0113197
0.00835504
0.00548264
0.00260392
-0.000382355
0.115135
0.108458
0.101015
0.0921513
0.0832761
0.0748885
0.0672664
0.0604341
0.0542954
0.0487147
0.0435684
0.0387664
0.0342546
0.0300052
0.0260034
0.0222363
0.0186866
0.0153303
0.0121338
0.00905176
0.00602317
0.00296824
-0.000192749
0.105893
0.0998442
0.0932365
0.0853909
0.0775249
0.0700917
0.0633475
0.0573145
0.0518982
0.0469627
0.0423819
0.0380632
0.0339511
0.0300191
0.0262562
0.0226554
0.0192066
0.0158924
0.0126874
0.00955552
0.00644751
0.00330005
5.22976e-05
0.0960413
0.0910277
0.0847639
0.0778917
0.0710043
0.0645283
0.0586934
0.0535106
0.0488755
0.0446403
0.0406714
0.036873
0.0331911
0.0296036
0.0261072
0.022704
0.0193925
0.0161642
0.0130024
0.00988058
0.00675978
0.00359166
0.000332516
0.0857322
0.0817514
0.0758535
0.0698639
0.0639127
0.0583785
0.0534668
0.0491645
0.0453455
0.0418432
0.0385132
0.0352565
0.0320232
0.0287991
0.0255911
0.0224118
0.0192704
0.0161675
0.0130953
0.0100362
0.00696057
0.00383316
0.000624592
0.0752085
0.0720491
0.0667951
0.0615354
0.0564752
0.0518845
0.0478843
0.0444335
0.0414368
0.0386719
0.0359835
0.0332707
0.0304906
0.0276397
0.0247358
0.021803
0.0188608
0.0159191
0.0129783
0.0100286
0.00704852
0.00401434
0.000908702
0.0647212
0.06246
0.058217
0.0531555
0.0491892
0.0463337
0.043087
0.0395583
0.0373002
0.0352377
0.0331611
0.0309702
0.0286316
0.026153
0.0235632
0.0208961
0.0181799
0.0154324
0.0126609
0.00986202
0.00702182
0.00412579
0.00116642
0.0549643
0.0532461
0.0497495
0.0450619
0.042613
0.040333
0.0380632
0.035879
0.0331392
0.0316546
0.0301281
0.0284108
0.0264833
0.0243647
0.0220924
0.0197067
0.0172412
0.0147186
0.0121511
0.00954058
0.00687887
0.00415953
0.00138308
0.0455027
0.0439141
0.0414289
0.0375583
0.0360626
0.0344542
0.0332261
0.0316977
0.0293126
0.0280319
0.0269622
0.0256484
0.0240855
0.0223033
0.0203446
0.0182518
0.0160588
0.0137894
0.0114577
0.00906886
0.00661945
0.00410938
0.00154558
0.0377105
0.0359448
0.0336625
0.030808
0.0293687
0.0291326
0.029115
0.0268897
0.0250908
0.0244504
0.0237256
0.0227326
0.0214796
0.0200037
0.0183486
0.0165546
0.0146518
0.01266
0.0105921
0.00845407
0.00624587
0.00397244
0.00164594
0.0308541
0.0292822
0.0274317
0.0250475
0.023358
0.0240826
0.0253389
0.0225813
0.0211925
0.0209465
0.0204584
0.0197048
0.0187083
0.0175072
0.0161424
0.0146483
0.0130472
0.0113522
0.00957074
0.0077075
0.0057641
0.0037489
0.00167884
0.025125
0.0238407
0.0224107
0.0204051
0.0189575
0.0200828
0.024858
0.0210158
0.0176557
0.0175315
0.0171789
0.0165969
0.0158127
0.0148607
0.013773
0.0125754
0.0112814
0.00989476
0.00841581
0.00684503
0.00518413
0.00344392
0.00164515
0.0203561
0.0194699
0.0185292
0.0170353
0.0158803
0.0204241
0.0217834
0.0185207
0.0142915
0.014193
0.0138953
0.0134322
0.0128302
0.0121101
0.0112903
0.0103844
0.00939652
0.00832224
0.00715383
0.0058861
0.00451905
0.00306448
0.00154721
0.0178659
0.0157711
0.01512
0.0140186
0.0130701
0.0176899
0.0189976
0.0122849
0.0110262
0.0108822
0.0105963
0.0102222
0.00978831
0.00929321
0.00873728
0.00811956
0.0074341
0.00666983
0.00581276
0.00485174
0.00378322
0.0026186
0.00138975
0.0163473
0.0131834
0.0117854
0.0109334
0.00995669
0.00982203
0.011138
0.00815503
0.00775664
0.00751356
0.00724051
0.00696187
0.00670078
0.00643351
0.00614198
0.00581085
0.00542457
0.00496614
0.00441706
0.0037615
0.00299164
0.0021172
0.00117734
0.0131472
0.0106766
0.00822678
0.00751556
0.00675194
0.00596381
0.00531037
0.00476377
0.0043421
0.00402039
0.0037871
0.0036346
0.0035647
0.00353548
0.00351282
0.00346911
0.00338059
0.00322536
0.00298156
0.00262934
0.00215607
0.00156944
0.000912286
0.00897317
0.00630142
0.00487224
0.00423866
0.00350613
0.00268782
0.00192638
0.00123387
0.000689869
0.000335737
0.000178052
0.000186308
0.000332568
0.00055968
0.000819182
0.00107245
0.00128837
0.00144057
0.00150449
0.00145725
0.00128039
0.0009735
0.000591361
0.00134052
0.00148504
0.00123686
0.000681567
-0.000112777
-0.00099452
-0.00190123
-0.0027605
-0.00340067
-0.00374423
-0.00378179
-0.0035665
-0.0031594
-0.00263506
-0.00205779
-0.00147659
-0.000928185
-0.000441846
-4.5041e-05
0.000231452
0.000364224
0.000350194
0.000245436
1324.42
1322.57
1302
1390.58
939.29
914.327
877.178
862.035
700.843
716.821
735.558
751.471
678.927
683.312
696.164
726.557
715.047
717.217
720.855
724.346
760.06
762.897
738.435
731.503
684.044
684.179
697.247
734.392
125.937
206.304
229.226
278.755
46.1944
46.5101
45.1337
30.6773
18.9712
35.352
34.8734
34.681
6.24298
3.31461
0.926765
8.69259
0.198339
0.39871
0.383504
0.354419
0.16904
0.168062
0.115895
0.0462529
0.0931216
0.0979456
0.0727209
0.0478846
0.00831926
0.0470056
0.0852541
0.0828871
0.0121314
0.0228689
0.015017
0.0201587
0.000910586
0.00179525
0.00399875
0.00768434
-0.000396781
0.00113608
0.00286953
0.00510432
-0.000332455
0.000400899
0.00122417
0.00226993
-0.000682439
-0.000622592
-0.000542117
-0.000365024
-0.00125838
-0.00170795
-0.00217946
-0.00263015
-0.00182138
-0.00265625
-0.00353508
-0.00443064
-0.00226539
-0.00338538
-0.00456043
-0.00577093
-0.00253751
-0.00386543
-0.00524958
-0.00667763
-0.00263724
-0.0041063
-0.00563197
-0.00720504
-0.00258387
-0.00414298
-0.00575535
-0.00741332
-0.00240539
-0.00400771
-0.00565823
-0.00735846
-0.00213519
-0.00374556
-0.00540069
-0.00710307
-0.0018059
-0.00339298
-0.00502155
-0.00669591
-0.00144583
-0.00298475
-0.0045614
-0.00618139
-0.00107979
-0.00254893
-0.00405085
-0.00559529
-0.000727525
-0.00210965
-0.00352076
-0.00497168
-0.000407019
-0.00168612
-0.00299132
-0.00433488
-0.000130623
-0.00129464
-0.00248218
-0.00370651
9.5249e-05
-0.000944187
-0.00200661
-0.00310248
0.000264279
-0.000644371
-0.00157477
-0.00253476
0.000374908
-0.000398931
-0.00119212
-0.00201077
0.000430151
-0.000206756
-0.000860081
-0.00153404
0.000430966
-6.77491e-05
-0.000579216
-0.00110627
0.000377882
1.89784e-05
-0.000349107
-0.000727721
0.000271466
5.4463e-05
-0.000168044
-0.000396749
0.000134951
5.71922e-05
-2.22115e-05
-0.000102895
1474.22
1377.25
1198.78
1194.89
1207.54
1216.94
1178.86
1234.84
1272.5
1302.34
1385
1441.74
1398.63
1393.37
1310.72
1319.5
1290.73
1236.08
1196.82
902.222
1081.75
1167.84
1214.49
1172.41
1216.41
1214.71
1240.86
1271.53
1270.9
1264.94
1250.63
1360.45
1236.58
1306.97
1384.74
1408.45
1300.35
1198.67
752.343
813.572
967.25
1131.2
1235.98
1187.77
1216.47
1209.9
1189.05
1184.15
1170.94
1141.14
1170.77
1121.74
1176.76
1232.82
1283.69
1346.62
1275.72
742.792
750.658
769.429
844.704
987.422
1135.78
1178.48
1159.28
974.461
909.972
1003.27
1133.42
1064.56
1058.53
1029.31
1068.29
1225.43
1239.69
1414.38
725.165
716.18
727.711
750.55
783.618
813.85
853.238
825.427
907.327
978.245
997.341
965.584
883.339
1006.44
1071.26
1113.88
1118.87
1211.7
1253.94
731.553
725.85
728.819
745.553
754.245
750.853
754.341
770.323
796.14
825.796
909.582
922.013
885.676
886.47
879.299
1090.13
1178.65
1104.71
1188.84
757.336
730.342
733.895
745.079
753.755
761.442
762.264
768.21
780.628
801.798
811.668
834.678
916.743
907.768
917.139
907.565
1014.86
1109.01
1181.89
339.89
404.226
520.585
705.657
751.926
763.269
772.784
779.882
790.653
804.146
819.379
831.878
923.67
1025.53
957.298
953.002
966.18
1087.32
1254.01
62.0192
84.4794
93.855
107.911
174.387
318.914
467.799
555.774
599.252
739.475
832.871
835.119
846.146
1046.65
1206.82
1016.77
997.604
1038.58
1356.45
18.8929
1.81288
3.65369
7.70354
7.63622
5.8722
13.2224
25.0881
92.671
132.597
188.701
291.889
620.946
868.304
1131.01
1218.48
1025.7
1031.67
1374.95
8.37208
0.513513
0.220657
0.156747
0.436629
0.63778
0.637819
0.401782
0.357187
6.03472
22.1381
17.666
57.0093
155.98
522.321
961.67
1116.41
1054.16
1391.03
0.82579
0.324342
0.188456
0.231284
0.232349
0.22972
0.223848
0.245421
0.248665
0.321369
0.442474
1.21522
1.56766
15.8557
171.455
683.815
1327.54
1216.02
1380.13
0.156891
0.182419
0.196511
0.19986
0.159025
0.308617
0.538982
1.59832
1.76169
1.27577
0.710678
1.27029
1.51561
3.28694
6.68801
328.145
1004.98
1457.18
1100.79
0.101873
0.336759
0.468721
0.475497
0.74947
0.894134
0.922956
0.964126
1.00488
0.79241
0.965271
1.22629
1.04007
0.333647
0.291322
78.7546
485.459
1069.35
963.241
0.0980613
0.117955
0.129938
0.200643
0.320546
0.500861
0.583538
0.575111
0.60523
0.61269
0.512329
0.398249
0.405597
0.0710667
0.114107
1.76908
86.8693
193.827
226.733
0.0282848
0.0277833
0.033412
0.0332983
0.0317064
0.0864591
0.281557
0.382361
0.245532
0.11048
0.0681086
0.176947
0.136214
-0.0455922
-0.0268984
-0.265217
-0.477616
-0.506133
0.112431
0.0135843
0.0183337
0.0200952
0.0174404
0.00936301
-0.00405353
-0.0123517
-0.019951
-0.0570385
-0.0712182
-0.0221684
0.108402
0.118881
-0.10919
-0.108662
-0.286954
-0.453738
-0.441277
-0.442543
0.00842178
0.00997602
0.00914759
0.00490707
-0.00339212
-0.0159056
-0.0324985
-0.0503643
-0.0671401
-0.0833606
-0.101524
-0.00890943
0.350676
0.212436
-0.176487
-0.2734
-0.354909
-0.380147
-0.393987
0.00362093
0.00303441
0.000465938
-0.00476031
-0.0130453
-0.0243231
-0.0386036
-0.0547099
-0.0711665
-0.0886484
-0.108613
-0.109663
0.317096
0.507891
0.400415
0.0449823
0.231421
-0.272441
-0.337208
-0.000425549
-0.00247615
-0.00618903
-0.0120134
-0.020122
-0.0305225
-0.0434185
-0.0578658
-0.0738559
-0.0911032
-0.110566
-0.133689
-0.113905
0.369238
0.766003
0.815455
0.786262
0.691753
-0.264071
-0.00368984
-0.00675726
-0.0112248
-0.0174081
-0.0254912
-0.0352939
-0.0469632
-0.0604069
-0.075534
-0.0918704
-0.110177
-0.130814
-0.147862
-0.126627
0.0663274
0.421578
0.610324
0.818294
-0.232096
-0.00619659
-0.00996197
-0.014907
-0.0212644
-0.0291804
-0.0386787
-0.0496395
-0.0621145
-0.0759971
-0.0912336
-0.108103
-0.125351
-0.141112
-0.160272
-0.184909
-0.195615
-0.158354
0.782383
-0.0338497
-0.00802765
-0.0122558
-0.0174765
-0.023864
-0.031535
-0.0405344
-0.0508437
-0.0624166
-0.0752165
-0.0892871
-0.104597
-0.120489
-0.137271
-0.157642
-0.178139
-0.198638
-0.216082
0.00291782
0.580213
-0.00926858
-0.0137819
-0.0191267
-0.0254374
-0.0328079
-0.0412858
-0.050877
-0.0615671
-0.0733456
-0.0862222
-0.10019
-0.115243
-0.130973
-0.146461
-0.161806
-0.178914
-0.194857
-0.193301
0.634417
-0.0100096
-0.0146688
-0.0200223
-0.0261752
-0.0332027
-0.0411487
-0.0500291
-0.0598436
-0.0705887
-0.0822595
-0.0948383
-0.108274
-0.12232
-0.134925
-0.14527
-0.155975
-0.167427
-0.169789
0.484454
-0.0103368
-0.0150317
-0.0203045
-0.0262369
-0.0328883
-0.0402949
-0.0484726
-0.0574232
-0.0671409
-0.0776118
-0.0888025
-0.100635
-0.112912
-0.123666
-0.132204
-0.139511
-0.144624
-0.152629
-0.127862
-0.0103282
-0.0149722
-0.0200947
-0.0257585
-0.032009
-0.0388733
-0.0463621
-0.054473
-0.0631938
-0.0725016
-0.0823531
-0.0926659
-0.103282
-0.113565
-0.122228
-0.128027
-0.129895
-0.135199
-0.143978
-0.0100566
-0.0145796
-0.0194971
-0.0248559
-0.0306887
-0.0370134
-0.0438336
-0.0511404
-0.0589142
-0.0671231
-0.0757158
-0.0846074
-0.0936554
-0.102628
-0.111033
-0.117299
-0.119404
-0.119319
-0.123287
-0.00958365
-0.0139304
-0.0186005
-0.0236273
-0.0290325
-0.0348256
-0.0410032
-0.0475503
-0.0544405
-0.0616349
-0.0690765
-0.0766805
-0.0843167
-0.0917773
-0.0977619
-0.0929102
-0.0946208
-0.0986056
-0.0978391
-0.0089625
-0.0130891
-0.0174792
-0.0221547
-0.0271283
-0.0324022
-0.0379675
-0.0438043
-0.0498818
-0.0561569
-0.0625711
-0.0690438
-0.0754602
-0.0816518
-0.0865596
-0.0791154
-0.080544
-0.0822333
-0.084492
-0.00823755
-0.0121098
-0.0161951
-0.0205062
-0.0250486
-0.0298187
-0.0348038
-0.0399815
-0.0453189
-0.050772
-0.0562837
-0.0617812
-0.0671708
-0.0723208
-0.0770215
-0.0769321
-0.0682634
-0.0698443
-0.0842129
-0.00744696
-0.0110376
-0.0147995
-0.0187377
-0.022852
-0.0271353
-0.0315727
-0.036141
-0.0408079
-0.0455313
-0.0502572
-0.0549191
-0.0594462
-0.0637516
-0.0676865
-0.0711069
-0.0699114
-0.0660208
-0.0757808
-0.00662141
-0.00990945
-0.013334
-0.016894
-0.0205856
-0.0243992
-0.0283197
-0.0323246
-0.0363842
-0.0404602
-0.0445048
-0.0484561
-0.0522216
-0.0557844
-0.0591131
-0.0619998
-0.0641969
-0.0655043
-0.0661289
-0.0057862
-0.00875533
-0.0118321
-0.0150111
-0.0182858
-0.0216462
-0.0250777
-0.0285602
-0.0320672
-0.0355651
-0.0390134
-0.0423614
-0.0455233
-0.0481949
-0.0508845
-0.0536348
-0.0555606
-0.0567533
-0.0573228
-0.00496109
-0.00759883
-0.0103203
-0.0131168
-0.0159808
-0.0189028
-0.02187
-0.0248652
-0.0278654
-0.0308423
-0.0337614
-0.0365832
-0.0392446
-0.0415148
-0.0434993
-0.0455064
-0.0475526
-0.0486538
-0.0487838
-0.00416099
-0.00645789
-0.00881847
-0.0112322
-0.0136915
-0.0161884
-0.0187125
-0.0212497
-0.023781
-0.0262824
-0.0287254
-0.0310779
-0.0333018
-0.0353316
-0.0367686
-0.0382259
-0.0397126
-0.0409473
-0.0410018
-0.00339625
-0.00534544
-0.00734136
-0.00937284
-0.0114335
-0.0135173
-0.0156165
-0.01772
-0.0198126
-0.0218747
-0.0238826
-0.0258103
-0.0276299
-0.0293054
-0.030749
-0.0314899
-0.032548
-0.0333713
-0.0338174
-0.00267328
-0.00427019
-0.00589933
-0.00755033
-0.0092186
-0.0109003
-0.0125902
-0.0142802
-0.0159583
-0.017609
-0.0192136
-0.0207512
-0.0222001
-0.0235373
-0.024724
-0.0255608
-0.0259577
-0.0266321
-0.0274826
-0.00199564
-0.00323758
-0.00449954
-0.00577308
-0.00705581
-0.00834596
-0.0096403
-0.0109332
-0.0122159
-0.0134768
-0.0147018
-0.0158752
-0.0169811
-0.0180029
-0.0189242
-0.0197199
-0.0199372
-0.0202517
-0.0211999
-0.00136487
-0.00225072
-0.00314685
-0.00404738
-0.00495197
-0.00586047
-0.00677114
-0.00768044
-0.00858262
-0.0094698
-0.0103325
-0.0111606
-0.0119438
-0.0126716
-0.0133338
-0.0139205
-0.0143804
-0.014707
-0.0150245
-0.000780118
-0.00131024
-0.00184371
-0.00237703
-0.00291128
-0.00344727
-0.00398432
-0.00452067
-0.00505331
-0.00557811
-0.00609036
-0.00658532
-0.00705901
-0.00750754
-0.00792593
-0.00830866
-0.00862626
-0.00889144
-0.00904394
-0.000235185
-0.00041196
-0.000586622
-0.000757761
-0.000927257
-0.00109638
-0.00126579
-0.00143552
-0.00160526
-0.00177486
-0.00194485
-0.00211708
-0.00229455
-0.00248033
-0.002677
-0.00288374
-0.00307078
-0.00322112
-0.00325858
)
;

boundaryField
{
    leftWall
    {
        type            fixedFluxPressure;
        gradient        uniform 0;
        value           nonuniform List<scalar> 
50
(
5146.03
5143.64
5139.19
5132.14
5096.02
3024.03
1105.42
1102.24
1101.18
1100.49
1099.31
999.47
599.309
578.726
205.304
13.9026
11.4878
8.01393
1.84728
0.241732
0.173414
0.147097
0.12261
0.106284
0.100029
0.104644
0.115671
0.126975
0.134477
0.137101
0.135371
0.130465
0.123354
0.115135
0.105893
0.0960413
0.0857322
0.0752085
0.0647212
0.0549643
0.0455027
0.0377105
0.0308541
0.025125
0.0203561
0.0178659
0.0163473
0.0131472
0.00897317
0.00134052
)
;
    }
    rightWall
    {
        type            fixedFluxPressure;
        gradient        uniform 0;
        value           nonuniform List<scalar> 
50
(
3234.93
3130.18
2533.64
2318.1
1317.49
1365.3
1369.79
1295.64
1196.82
1198.67
1275.72
1414.38
1253.94
1188.84
1181.89
1254.01
1356.45
1374.95
1391.03
1380.13
1100.79
963.241
226.733
0.112431
-0.442543
-0.393987
-0.337208
-0.264071
-0.232096
-0.0338497
0.580213
0.634417
0.484454
-0.127862
-0.143978
-0.123287
-0.0978391
-0.084492
-0.0842129
-0.0757808
-0.0661289
-0.0573228
-0.0487838
-0.0410018
-0.0338174
-0.0274826
-0.0211999
-0.0150245
-0.00904394
-0.00325858
)
;
    }
    lowerWall
    {
        type            fixedFluxPressure;
        gradient        uniform 0;
        value           nonuniform List<scalar> 
62
(
5146.03
5155.83
5176.73
5207.92
5252.14
5312.33
5390.89
5486.07
5590.33
5691.41
5775.81
5833.43
5860.56
5859.41
5835.24
5793.87
5741.36
5683.91
5627.32
5576.53
5535.79
5508.12
5492.97
5492.97
5487.1
5476.75
5461.94
5440.05
4719.92
1521.7
1050.51
1324.42
1322.57
1302
1390.58
2709.52
2643.68
1698.13
1185.91
1165.81
1164.53
1362.11
1520.93
2709.52
2748.75
2815.12
2909.1
3051.58
3200.77
3288.93
3314.53
3302.8
3265.22
3209.68
3163.07
3145.07
3164.74
3233.56
3313.83
3328.28
3297.14
3234.93
)
;
    }
    atmosphere
    {
        type            totalPressure;
        rho             rho;
        psi             none;
        gamma           1;
        p0              uniform 0;
        value           nonuniform List<scalar> 
46
(
-1.07633e-05
-0.000140279
-0.000533486
-0.00123493
-0.00218051
-0.0031441
-0.00421893
-0.00530249
-0.00601885
-0.00631539
-0.0062271
-0.00583654
-0.00522715
-0.00448978
-0.00370236
-0.00291727
-0.00216801
-0.0014798
-0.000877921
-0.0004022
-0.00010268
-8.05781e-07
0
0
0
0
0
0
0
0
0
0
0
0
0
0
0
0
0
0
0
0
0
0
0
0
)
;
    }
    defaultFaces
    {
        type            empty;
    }
}


// ************************************************************************* //
