/*--------------------------------*- C++ -*----------------------------------*\
| =========                 |                                                 |
| \\      /  F ield         | OpenFOAM: The Open Source CFD Toolbox           |
|  \\    /   O peration     | Version:  2312                                  |
|   \\  /    A nd           | Website:  www.openfoam.com                      |
|    \\/     M anipulation  |                                                 |
\*---------------------------------------------------------------------------*/
FoamFile
{
    version     2.0;
    format      ascii;
    arch        "LSB;label=32;scalar=64";
    class       surfaceScalarField;
    location    "2.85";
    object      phi;
}
// * * * * * * * * * * * * * * * * * * * * * * * * * * * * * * * * * * * * * //

dimensions      [0 3 -1 0 0 0 0];

oriented        oriented;

internalField   nonuniform List<scalar> 
4432
(
3.59462e-07
-3.59454e-07
-2.30059e-07
5.8953e-07
-1.06135e-06
8.313e-07
-2.05062e-06
9.89272e-07
-3.07511e-06
1.02449e-06
-4.09167e-06
1.01657e-06
-5.11518e-06
1.02351e-06
-6.15323e-06
1.03805e-06
-7.18288e-06
1.02964e-06
-8.16913e-06
9.86251e-07
-9.03378e-06
8.64652e-07
-9.68684e-06
6.53052e-07
-1.00835e-05
3.96621e-07
-1.01941e-05
1.1065e-07
-9.99607e-06
-1.9803e-07
-9.48527e-06
-5.10795e-07
-8.68331e-06
-8.01956e-07
-7.62416e-06
-1.05915e-06
-6.34663e-06
-1.27752e-06
-4.9103e-06
-1.43633e-06
-3.38677e-06
-1.52353e-06
-1.8512e-06
-1.53557e-06
-1.8512e-06
-6.39897e-07
2.80455e-07
-1.36881e-06
1.31845e-06
-2.17283e-06
1.63534e-06
-3.02798e-06
1.84443e-06
-3.89234e-06
1.88886e-06
-4.75943e-06
1.88366e-06
-5.66664e-06
1.93072e-06
-6.6197e-06
1.99111e-06
-7.59146e-06
2.0014e-06
-8.5387e-06
1.93348e-06
-9.37664e-06
1.70258e-06
-1.00057e-05
1.28213e-06
-1.03811e-05
7.72017e-07
-1.048e-05
2.09505e-07
-1.02685e-05
-4.09538e-07
-9.73926e-06
-1.03999e-06
-8.91326e-06
-1.62795e-06
-7.82326e-06
-2.14914e-06
-6.50773e-06
-2.59303e-06
-5.02283e-06
-2.92123e-06
-3.44534e-06
-3.10101e-06
-1.87256e-06
-3.10835e-06
-3.72376e-06
-1.19048e-06
1.47094e-06
-2.06518e-06
2.19315e-06
-2.89652e-06
2.46669e-06
-3.73948e-06
2.68739e-06
-4.57543e-06
2.72481e-06
-5.3861e-06
2.69433e-06
-6.22701e-06
2.77163e-06
-7.11979e-06
2.88388e-06
-8.03949e-06
2.9211e-06
-8.95265e-06
2.84664e-06
-9.76649e-06
2.51643e-06
-1.03637e-05
1.87931e-06
-1.07036e-05
1.11198e-06
-1.07787e-05
2.84541e-07
-1.05444e-05
-6.43819e-07
-9.98289e-06
-1.60148e-06
-9.11117e-06
-2.49966e-06
-7.95973e-06
-3.30057e-06
-6.56143e-06
-3.99133e-06
-4.97799e-06
-4.50466e-06
-3.30686e-06
-4.77214e-06
-1.67821e-06
-4.737e-06
-5.40196e-06
-1.53951e-06
3.01045e-06
-2.55305e-06
3.2067e-06
-3.43292e-06
3.34657e-06
-4.31232e-06
3.56679e-06
-5.16478e-06
3.57727e-06
-5.93631e-06
3.46587e-06
-6.71987e-06
3.55519e-06
-7.57525e-06
3.73925e-06
-8.48277e-06
3.82862e-06
-9.40735e-06
3.77121e-06
-1.02327e-05
3.34181e-06
-1.08168e-05
2.4634e-06
-1.11246e-05
1.41978e-06
-1.1172e-05
3.31859e-07
-1.08941e-05
-9.21698e-07
-1.02687e-05
-2.2268e-06
-9.31798e-06
-3.45042e-06
-8.06639e-06
-4.55216e-06
-6.5327e-06
-5.52501e-06
-4.79586e-06
-6.24149e-06
-3.02019e-06
-6.5478e-06
-1.3787e-06
-6.37849e-06
-6.78065e-06
-1.37242e-06
4.38287e-06
-2.31694e-06
4.15122e-06
-3.22045e-06
4.25008e-06
-4.17523e-06
4.52156e-06
-5.18846e-06
4.5905e-06
-6.16099e-06
4.4384e-06
-7.05445e-06
4.44864e-06
-7.95448e-06
4.63928e-06
-8.92389e-06
4.79804e-06
-9.94055e-06
4.78786e-06
-1.08524e-05
4.25362e-06
-1.14815e-05
3.09255e-06
-1.17792e-05
1.7175e-06
-1.18163e-05
3.68913e-07
-1.14942e-05
-1.24378e-06
-1.07544e-05
-2.9666e-06
-9.62946e-06
-4.57537e-06
-8.17283e-06
-6.00879e-06
-6.4228e-06
-7.27504e-06
-4.47127e-06
-8.19303e-06
-2.61844e-06
-8.40062e-06
-1.05532e-06
-7.94161e-06
-7.83597e-06
-7.44637e-07
5.1275e-06
-1.75309e-06
5.15967e-06
-2.83368e-06
5.33067e-06
-3.89442e-06
5.58229e-06
-4.93516e-06
5.63124e-06
-5.85666e-06
5.35988e-06
-6.64933e-06
5.24131e-06
-7.463e-06
5.45294e-06
-8.44753e-06
5.78256e-06
-9.67263e-06
6.01296e-06
-1.08171e-05
5.39811e-06
-1.15816e-05
3.85703e-06
-1.20053e-05
2.14123e-06
-1.21913e-05
5.54841e-07
-1.19979e-05
-1.43719e-06
-1.11929e-05
-3.77151e-06
-9.85495e-06
-5.91337e-06
-8.22171e-06
-7.64201e-06
-6.3074e-06
-9.18934e-06
-4.19654e-06
-1.03039e-05
-2.3431e-06
-1.02541e-05
-9.39703e-07
-9.345e-06
-8.77566e-06
1.48308e-06
3.64441e-06
2.1077e-06
4.53504e-06
2.34179e-06
5.09655e-06
2.54941e-06
5.37464e-06
2.60866e-06
5.57197e-06
1.51586e-06
6.45264e-06
-1.78187e-06
8.53901e-06
-5.46546e-06
9.1365e-06
-7.87732e-06
8.1944e-06
-9.46817e-06
7.60379e-06
-1.08843e-05
6.81419e-06
-1.21915e-05
5.1642e-06
-1.32454e-05
3.19517e-06
-1.35039e-05
8.13375e-07
-1.26776e-05
-2.26353e-06
-1.1199e-05
-5.25005e-06
-9.91813e-06
-7.19425e-06
-8.25882e-06
-9.30129e-06
-6.31352e-06
-1.11346e-05
-4.31074e-06
-1.23066e-05
-2.66617e-06
-1.18986e-05
-1.40789e-06
-1.06032e-05
-1.01835e-05
6.85158e-07
2.95924e-06
1.18097e-06
4.03922e-06
1.18662e-06
5.09089e-06
1.52551e-06
5.03575e-06
2.38773e-06
4.70974e-06
3.69006e-06
5.1503e-06
4.47766e-06
7.75139e-06
4.3534e-06
9.26075e-06
3.34588e-06
9.2019e-06
1.36223e-06
9.58742e-06
-1.85235e-06
1.00288e-05
-5.09791e-06
8.40975e-06
-7.47537e-06
5.57263e-06
-9.13719e-06
2.47521e-06
-9.88523e-06
-1.51549e-06
-9.89781e-06
-5.23745e-06
-1.1572e-05
-5.52006e-06
-9.34276e-06
-1.15305e-05
-7.627e-06
-1.28503e-05
-6.78789e-06
-1.31457e-05
-6.14934e-06
-1.25371e-05
-5.22334e-06
-1.15292e-05
-1.54068e-05
7.3284e-07
-7.3284e-07
2.34621e-06
-1.61337e-06
2.64126e-06
-2.95043e-07
1.65152e-06
9.89743e-07
-5.62228e-07
2.21374e-06
-3.95605e-06
3.39383e-06
-7.86563e-06
3.90958e-06
-1.17238e-05
3.85818e-06
-1.38654e-05
2.14162e-06
-1.37449e-05
-1.20539e-07
-1.23951e-05
-1.34984e-06
-1.08896e-05
-1.50542e-06
-9.66671e-06
-1.22292e-06
-9.07897e-06
-5.87739e-07
-7.6898e-06
-1.38917e-06
-4.68925e-06
-3.00055e-06
-2.05955e-06
-2.6297e-06
-7.88832e-07
-1.27072e-06
-7.88832e-07
3.07694e-06
-3.80978e-06
4.83401e-06
-3.37045e-06
5.788e-06
-1.24903e-06
5.35326e-06
1.42448e-06
3.45544e-06
4.11157e-06
2.63802e-07
6.58547e-06
-3.79153e-06
7.96491e-06
-7.76252e-06
7.82917e-06
-9.43183e-06
3.81094e-06
-8.51597e-06
-1.0364e-06
-6.58544e-06
-3.28037e-06
-5.02805e-06
-3.0628e-06
-4.28314e-06
-1.96783e-06
-4.65782e-06
-2.13052e-07
-5.18716e-06
-8.59833e-07
-4.30197e-06
-3.88575e-06
-2.28683e-06
-4.64483e-06
-9.37595e-07
-2.61995e-06
-1.72643e-06
3.39001e-06
-7.19979e-06
4.69161e-06
-4.67204e-06
6.26989e-06
-2.8273e-06
6.43319e-06
1.26118e-06
4.11891e-06
6.42585e-06
-2.8193e-07
1.09863e-05
-4.75862e-06
1.24416e-05
-7.84143e-06
1.0912e-05
-9.1639e-06
5.13341e-06
-7.72104e-06
-2.47926e-06
-4.94492e-06
-6.0565e-06
-3.01433e-06
-4.99339e-06
-1.85032e-06
-3.13184e-06
-1.97677e-06
-8.66034e-08
-4.95615e-06
2.11955e-06
-7.90382e-06
-9.38079e-07
-7.69873e-06
-4.84992e-06
-5.2641e-06
-5.05459e-06
-6.99052e-06
9.72514e-08
-7.29704e-06
1.5498e-06
-6.12458e-06
1.48209e-06
-2.75959e-06
-1.23934e-06
3.98262e-06
-3.73564e-06
8.92215e-06
-6.65823e-06
1.39089e-05
-9.4787e-06
1.52621e-05
-7.52764e-06
8.96092e-06
-6.41578e-06
4.02156e-06
-5.42916e-06
-3.46588e-06
-5.21145e-06
-6.27419e-06
-5.08241e-06
-5.12243e-06
-6.38838e-06
-1.82586e-06
-6.14484e-06
-3.30127e-07
-8.25027e-06
4.22498e-06
-1.11891e-05
2.00077e-06
-9.57433e-06
-6.46469e-06
-3.95548e-06
-1.06734e-05
-1.0946e-05
-3.74186e-06
-3.55518e-06
-2.16864e-06
-7.6978e-06
-3.26607e-06
-1.66216e-06
-4.78376e-06
5.50031e-06
-6.34735e-06
1.04857e-05
-1.34153e-05
2.09768e-05
-1.74752e-05
1.93221e-05
-4.87847e-06
-3.63586e-06
3.93366e-06
-4.79056e-06
3.04148e-06
-2.5737e-06
-6.06365e-06
2.83093e-06
-1.28534e-05
1.66732e-06
-1.72763e-05
2.59701e-06
-8.85367e-06
-8.75272e-06
1.84823e-06
-6.47692e-06
3.66389e-06
1.85112e-07
6.06208e-07
-3.40701e-06
1.0756e-06
-1.11428e-05
-9.87039e-06
4.05166e-06
-7.60684e-06
4.93674e-06
-8.58288e-06
3.02424e-08
3.24434e-06
-3.72704e-06
9.2576e-06
-6.62135e-06
1.33801e-05
-1.16697e-05
2.60252e-05
-1.40405e-05
2.16929e-05
-6.55219e-06
-1.11242e-05
-2.13377e-06
-9.20897e-06
-1.59842e-06
-3.10905e-06
-5.84019e-06
7.07272e-06
-8.18271e-06
4.00984e-06
-1.10996e-05
5.51391e-06
-3.12927e-06
-1.6723e-05
8.19589e-06
-1.78021e-05
1.71852e-05
-8.80415e-06
1.71054e-05
-3.32727e-06
1.05006e-05
-4.53795e-06
6.30212e-07
1.15907e-05
-1.91975e-05
1.15327e-05
-8.52484e-06
4.39643e-06
1.03806e-05
-1.79839e-06
1.54524e-05
-5.34864e-06
1.69303e-05
-8.89106e-06
2.95676e-05
-1.27113e-05
2.55132e-05
-1.0915e-05
-1.29205e-05
-1.16199e-05
-8.50401e-06
-1.26282e-05
-2.1008e-06
-1.08317e-05
5.27622e-06
-6.95007e-06
1.28259e-07
-5.73934e-06
4.30319e-06
-1.88496e-06
-2.05774e-05
3.82086e-06
-2.35079e-05
1.28292e-05
-1.78125e-05
1.74199e-05
-7.91801e-06
1.3311e-05
-4.29024e-07
1.39412e-05
9.18711e-06
-2.83846e-05
1.04011e-05
-9.73886e-06
5.56356e-06
1.52181e-05
-1.61335e-07
2.11773e-05
-3.87704e-06
2.0646e-05
-6.83278e-06
3.25233e-05
-1.18852e-05
3.05656e-05
-1.46439e-05
-1.01618e-05
-1.65468e-05
-6.60112e-06
-1.72479e-05
-1.3997e-06
-1.25638e-05
5.92117e-07
-6.03686e-06
-6.3987e-06
-3.18629e-06
1.45263e-06
-4.48764e-06
-1.92761e-05
-4.42084e-06
-2.35747e-05
2.10696e-06
-2.43403e-05
1.00746e-05
-1.58857e-05
1.03011e-05
-6.55438e-07
2.42423e-05
-4.23744e-06
7.19668e-06
-5.8924e-06
5.69417e-06
-6.28453e-06
5.48302e-06
-5.51219e-06
4.26341e-06
-1.39011e-06
5.87659e-07
4.75175e-06
-9.91564e-07
9.70784e-06
2.79531e-06
1.29634e-05
6.00521e-06
1.45181e-05
7.64718e-06
1.49885e-05
9.11703e-06
1.48448e-05
1.01725e-05
1.36733e-05
9.58115e-06
1.10714e-05
8.17462e-06
7.17193e-06
6.37464e-06
1.07304e-06
4.58341e-06
-3.67128e-06
-4.93123e-07
-5.95498e-06
-3.23635e-06
-5.63638e-06
-1.18491e-05
-6.3132e-06
-1.21735e-05
-8.05952e-06
-1.13994e-05
-1.06338e-05
-9.96282e-06
-1.40973e-05
-8.06572e-06
-9.58301e-06
-1.99211e-05
-4.74149e-06
1.19382e-05
-6.72965e-06
7.68233e-06
-5.61019e-06
4.36357e-06
-5.56897e-07
-7.89883e-07
6.94037e-06
-6.9096e-06
1.49469e-05
-8.99806e-06
2.00432e-05
-2.30102e-06
2.16175e-05
4.43089e-06
2.15403e-05
7.7244e-06
1.91215e-05
1.15359e-05
1.46704e-05
1.46235e-05
1.12999e-05
1.29517e-05
1.01453e-05
9.32919e-06
8.1988e-06
8.32119e-06
6.18127e-06
6.60095e-06
7.52306e-06
-1.83492e-06
1.27375e-05
-8.45076e-06
1.24418e-05
-1.15534e-05
1.15825e-05
-1.13142e-05
1.07945e-05
-1.06114e-05
1.09382e-05
-1.01065e-05
1.17463e-05
-8.87382e-06
-7.85574e-06
1.00191e-05
1.51704e-06
1.04211e-05
3.07129e-06
6.1281e-06
6.12366e-06
1.31121e-06
1.13213e-05
-5.98751e-06
1.66004e-05
-1.21887e-05
2.2729e-05
-1.51267e-05
2.80824e-05
-7.65444e-06
2.66591e-05
5.85421e-06
2.31639e-05
1.12196e-05
1.95097e-05
1.51902e-05
1.62751e-05
1.78582e-05
1.37162e-05
1.55106e-05
1.26689e-05
1.03764e-05
1.39889e-05
7.00118e-06
1.75749e-05
3.01498e-06
2.01858e-05
-4.4458e-06
2.08507e-05
-9.11568e-06
1.96297e-05
-1.03324e-05
1.84462e-05
-1.01307e-05
1.71504e-05
-9.31558e-06
1.54921e-05
-8.44825e-06
1.25577e-05
-5.93939e-06
-3.24166e-06
7.94361e-06
1.21725e-05
-1.75131e-06
2.03462e-05
-2.04566e-06
2.63988e-05
-4.74135e-06
2.93639e-05
-8.95262e-06
2.98569e-05
-1.26816e-05
2.66558e-05
-1.19256e-05
2.62127e-05
-7.21127e-06
2.3518e-05
8.54889e-06
1.86649e-05
1.60727e-05
1.80164e-05
1.58386e-05
2.10834e-05
1.47912e-05
2.47228e-05
1.18711e-05
2.76337e-05
7.46561e-06
3.11103e-05
3.52451e-06
3.46856e-05
-5.60355e-07
3.47397e-05
-4.4999e-06
3.28737e-05
-7.24966e-06
3.1308e-05
-8.76668e-06
3.05131e-05
-9.33587e-06
2.98888e-05
-8.69127e-06
2.8212e-05
-6.77145e-06
2.5933e-05
-3.66044e-06
-1.07754e-06
2.37689e-05
1.34228e-05
-1.51741e-05
2.34368e-05
-1.20597e-05
2.92093e-05
-1.05138e-05
3.24157e-05
-1.21591e-05
3.54736e-05
-1.57395e-05
3.2089e-05
-8.54103e-06
2.41898e-05
6.87992e-07
2.10822e-05
1.16565e-05
2.1549e-05
1.56059e-05
2.6618e-05
1.07696e-05
3.31176e-05
8.29161e-06
3.92288e-05
5.76e-06
4.3995e-05
2.69938e-06
4.76493e-05
-1.29774e-07
4.94157e-05
-2.32678e-06
4.83415e-05
-3.42567e-06
4.56326e-05
-4.54072e-06
4.31302e-05
-6.26433e-06
4.1596e-05
-7.80173e-06
4.05788e-05
-7.67398e-06
3.97941e-05
-5.98677e-06
3.97044e-05
-3.57073e-06
-1.8275e-06
4.04543e-05
8.02271e-06
-2.31968e-05
1.35411e-05
-1.7578e-05
1.40357e-05
-1.10084e-05
1.07897e-05
-8.9131e-06
9.64476e-06
-1.45945e-05
1.14971e-05
-1.03934e-05
1.11791e-05
1.00601e-06
1.80432e-05
4.79241e-06
3.07821e-05
2.86702e-06
4.21619e-05
-6.10241e-07
5.19293e-05
-1.47573e-06
5.97243e-05
-2.03507e-06
6.54572e-05
-3.03345e-06
6.95372e-05
-4.20983e-06
7.06186e-05
-3.40816e-06
6.79127e-05
-7.198e-07
6.24625e-05
9.09462e-07
5.75931e-05
-1.39491e-06
5.45989e-05
-4.80751e-06
5.24055e-05
-5.48064e-06
5.06808e-05
-4.262e-06
4.90401e-05
-1.93001e-06
-7.67028e-07
4.79796e-05
1.23581e-05
-3.55549e-05
1.48857e-05
-2.01055e-05
6.39195e-06
-2.5146e-06
-6.47833e-06
3.95722e-06
-1.26271e-05
-8.44566e-06
1.93168e-06
-2.49521e-05
1.8367e-05
-1.54292e-05
3.3985e-05
-1.08254e-05
4.89589e-05
-1.21067e-05
5.97072e-05
-1.13584e-05
6.77072e-05
-9.47565e-06
7.32828e-05
-7.6105e-06
7.73058e-05
-7.05639e-06
8.1397e-05
-8.30101e-06
8.40292e-05
-6.04038e-06
8.46566e-05
-1.34716e-06
8.31394e-05
2.42662e-06
7.93357e-05
2.40876e-06
7.413e-05
3.98249e-07
6.88986e-05
-2.49246e-07
6.47501e-05
-1.13466e-07
6.12309e-05
1.58914e-06
3.51622e-06
5.69477e-05
3.15437e-05
-6.70986e-05
5.13401e-05
-3.99019e-05
5.87248e-05
-9.89927e-06
5.75827e-05
5.09935e-06
3.28539e-05
1.62834e-05
1.43907e-05
-6.48869e-06
2.80515e-05
-2.90898e-05
4.49669e-05
-2.77407e-05
5.56798e-05
-2.28195e-05
6.64333e-05
-2.2112e-05
7.34815e-05
-1.65238e-05
7.07942e-05
-4.92327e-06
6.07099e-05
3.02783e-06
5.69199e-05
-4.51117e-06
6.49965e-05
-1.41171e-05
8.33878e-05
-1.97383e-05
9.69698e-05
-1.11553e-05
0.000103399
-4.01994e-06
9.87265e-05
5.07031e-06
8.73043e-05
1.11729e-05
7.64932e-05
1.06977e-05
6.90349e-05
9.04737e-06
1.02812e-05
6.227e-05
2.55383e-05
-9.26369e-05
3.57676e-05
-5.01312e-05
4.89155e-05
-2.30471e-05
5.1354e-05
2.66086e-06
5.05982e-05
1.70394e-05
4.84024e-05
-4.29292e-06
4.71467e-05
-2.7834e-05
5.34408e-05
-3.40348e-05
6.47653e-05
-3.41441e-05
7.47596e-05
-3.21064e-05
8.59679e-05
-2.77322e-05
9.99631e-05
-1.89186e-05
0.000113259
-1.02682e-05
0.000115571
-6.82313e-06
0.000108272
-6.81886e-06
9.41751e-05
-5.64157e-06
9.96925e-05
-1.66726e-05
0.000106783
-1.11098e-05
0.000110578
1.27512e-06
0.000115074
6.6771e-06
0.000116606
9.16533e-06
0.000117302
8.35096e-06
1.08535e-05
0.00011673
1.02295e-05
-0.000102866
2.3444e-05
-6.33457e-05
1.92853e-05
-1.88885e-05
2.55342e-05
-3.58801e-06
5.03205e-05
-7.74701e-06
6.78039e-05
-2.17762e-05
7.50203e-05
-3.50504e-05
8.28827e-05
-4.18972e-05
9.21822e-05
-4.34435e-05
0.000101414
-4.1338e-05
0.000110581
-3.68998e-05
0.00012303
-3.13676e-05
0.000139536
-2.67737e-05
0.000157029
-2.43159e-05
0.000169766
-1.95563e-05
0.000174644
-1.05199e-05
0.000162195
-4.22355e-06
0.000145741
5.34469e-06
0.000137585
9.43116e-06
0.000139484
4.77786e-06
0.000140677
7.97193e-06
0.000141446
7.58208e-06
9.50996e-06
0.000142789
-1.7813e-07
-0.000102688
1.37196e-05
-7.72435e-05
3.35108e-05
-3.86799e-05
5.67405e-05
-2.68178e-05
7.75002e-05
-2.85068e-05
9.05158e-05
-3.47919e-05
9.77821e-05
-4.23168e-05
0.000103384
-4.7499e-05
0.000108742
-4.88015e-05
0.000114187
-4.67834e-05
0.00012004
-4.2752e-05
0.000127354
-3.8682e-05
0.000135761
-3.51807e-05
0.000143869
-3.24242e-05
0.000152181
-2.78681e-05
0.000160939
-1.9277e-05
0.000164709
-7.99367e-06
0.000166818
3.23551e-06
0.000166192
1.00573e-05
0.000159309
1.16606e-05
0.000154135
1.31462e-05
0.000148254
1.34621e-05
9.18346e-06
0.000148581
4.054e-06
-0.000106743
1.98042e-05
-9.29939e-05
4.60587e-05
-6.49345e-05
6.71653e-05
-4.79247e-05
8.41358e-05
-4.54775e-05
9.5874e-05
-4.65303e-05
0.000102878
-4.93214e-05
0.000106461
-5.10815e-05
0.000108119
-5.04594e-05
0.000108964
-4.76288e-05
0.000109935
-4.3723e-05
0.000111707
-4.04537e-05
0.000114358
-3.78318e-05
0.000116838
-3.4904e-05
0.00011848
-2.95106e-05
0.000120248
-2.10449e-05
0.000122605
-1.03498e-05
0.000125562
2.77922e-07
0.000127264
8.35518e-06
0.000126921
1.20043e-05
0.000126199
1.38682e-05
0.000125205
1.4456e-05
1.3256e-05
0.000121132
1.08534e-05
-0.000117597
2.26694e-05
-0.00010481
4.10412e-05
-8.33066e-05
6.05606e-05
-6.74443e-05
7.58102e-05
-6.07275e-05
8.66336e-05
-5.73539e-05
9.258e-05
-5.52679e-05
9.40601e-05
-5.25618e-05
9.19964e-05
-4.83957e-05
8.79718e-05
-4.36043e-05
8.35318e-05
-3.9283e-05
7.89228e-05
-3.58448e-05
7.53962e-05
-3.43051e-05
7.29835e-05
-3.24912e-05
7.09245e-05
-2.74515e-05
6.97216e-05
-1.98419e-05
6.84368e-05
-9.06484e-06
6.73604e-05
1.35438e-06
6.84307e-05
7.28506e-06
7.12098e-05
9.22541e-06
7.46843e-05
1.03938e-05
7.68648e-05
1.22757e-05
1.37678e-05
7.63528e-05
1.09597e-05
-0.000128557
2.03763e-05
-0.000114227
3.40546e-05
-9.69853e-05
4.90403e-05
-8.24302e-05
6.0731e-05
-7.24183e-05
6.82551e-05
-6.48782e-05
7.0851e-05
-5.7864e-05
6.89033e-05
-5.06141e-05
6.3035e-05
-4.25275e-05
5.43722e-05
-3.49416e-05
4.51233e-05
-3.00341e-05
3.47448e-05
-2.54663e-05
2.57084e-05
-2.52686e-05
1.78141e-05
-2.4597e-05
1.14206e-05
-2.10579e-05
8.04528e-06
-1.64665e-05
8.29281e-06
-9.31229e-06
1.01889e-05
-5.41582e-07
1.32001e-05
4.27396e-06
1.66841e-05
5.74169e-06
2.009e-05
6.98818e-06
2.12998e-05
1.10659e-05
1.51683e-05
1.98992e-05
7.4238e-06
-0.000135981
1.48174e-05
-0.000121621
2.36515e-05
-0.00010582
3.26149e-05
-9.13938e-05
3.90946e-05
-7.88982e-05
4.15945e-05
-6.73783e-05
3.98674e-05
-5.6137e-05
3.40664e-05
-4.48133e-05
2.49754e-05
-3.34366e-05
1.25126e-05
-2.2479e-05
-2.71667e-06
-1.48049e-05
-1.64155e-05
-1.17675e-05
-2.45829e-05
-1.71013e-05
-2.91138e-05
-2.0066e-05
-3.10616e-05
-1.91101e-05
-3.24127e-05
-1.51153e-05
-3.30658e-05
-8.65917e-06
-3.11921e-05
-2.41526e-06
-2.81033e-05
1.18531e-06
-2.51755e-05
2.81413e-06
-2.29559e-05
4.76876e-06
-2.13269e-05
9.43711e-06
1.38705e-05
-2.00293e-05
2.76976e-06
-0.000138751
5.83059e-06
-0.000124682
9.18772e-06
-0.000109177
1.19346e-05
-9.41409e-05
1.25557e-05
-7.95195e-05
1.0003e-05
-6.48257e-05
3.87773e-06
-5.00119e-05
-6.1437e-06
-3.4792e-05
-2.01049e-05
-1.94755e-05
-3.39501e-05
-8.63378e-06
-4.24459e-05
-6.30916e-06
-4.48289e-05
-9.38451e-06
-4.69458e-05
-1.49843e-05
-4.91523e-05
-1.78595e-05
-5.16236e-05
-1.66388e-05
-5.41694e-05
-1.25694e-05
-5.52656e-05
-7.56295e-06
-5.31534e-05
-4.52741e-06
-4.90604e-05
-2.90765e-06
-4.571e-05
-5.3607e-07
-4.38895e-05
2.94846e-06
-4.19145e-05
7.46211e-06
1.10432e-05
-3.90874e-05
-2.23768e-06
-0.000136513
-4.33218e-06
-0.000122588
-6.71788e-06
-0.000106791
-9.96169e-06
-9.08973e-05
-1.51916e-05
-7.42897e-05
-2.29772e-05
-5.70402e-05
-3.31839e-05
-3.98053e-05
-4.4203e-05
-2.3773e-05
-5.17831e-05
-1.18954e-05
-5.34023e-05
-7.0146e-06
-5.23552e-05
-7.35631e-06
-5.19835e-05
-9.7563e-06
-5.34481e-05
-1.35197e-05
-5.58393e-05
-1.54684e-05
-5.81943e-05
-1.42838e-05
-5.92542e-05
-1.15094e-05
-5.83184e-05
-8.49871e-06
-5.62541e-05
-6.59172e-06
-5.39221e-05
-5.23949e-06
-5.18693e-05
-2.58878e-06
-5.02474e-05
1.3267e-06
-4.76086e-05
4.82346e-06
7.24892e-06
-4.38146e-05
-6.89847e-06
-0.000129615
-1.39061e-05
-0.00011558
-2.11703e-05
-9.95274e-05
-2.91279e-05
-8.29398e-05
-3.78991e-05
-6.55186e-05
-4.68016e-05
-4.81378e-05
-5.40268e-05
-3.25801e-05
-5.74165e-05
-2.03833e-05
-5.64735e-05
-1.28385e-05
-5.36493e-05
-9.83883e-06
-5.1373e-05
-9.63257e-06
-5.01826e-05
-1.09467e-05
-5.08442e-05
-1.28581e-05
-5.2472e-05
-1.38406e-05
-5.35069e-05
-1.32488e-05
-5.34725e-05
-1.15438e-05
-5.24715e-05
-9.49977e-06
-5.12894e-05
-7.77372e-06
-5.04679e-05
-6.06099e-06
-4.93991e-05
-3.65748e-06
-4.73908e-05
-6.81369e-07
-4.46574e-05
2.08992e-06
4.02359e-06
-4.14322e-05
-1.06283e-05
-0.000118987
-2.10327e-05
-0.000105176
-3.10824e-05
-8.94778e-05
-4.05455e-05
-7.34768e-05
-4.86535e-05
-5.74107e-05
-5.43224e-05
-4.2469e-05
-5.67558e-05
-3.01467e-05
-5.59422e-05
-2.11969e-05
-5.30941e-05
-1.56866e-05
-4.97882e-05
-1.31448e-05
-4.70282e-05
-1.23926e-05
-4.5309e-05
-1.26659e-05
-4.48649e-05
-1.33022e-05
-4.51683e-05
-1.35371e-05
-4.54408e-05
-1.29764e-05
-4.52776e-05
-1.17071e-05
-4.46906e-05
-1.00867e-05
-4.40349e-05
-8.42943e-06
-4.34487e-05
-6.6471e-06
-4.26071e-05
-4.49905e-06
-4.11972e-05
-2.09118e-06
-3.92328e-05
1.25683e-07
1.82672e-06
-3.70363e-05
-1.27328e-05
-0.000106254
-2.45863e-05
-9.33226e-05
-3.50883e-05
-7.89758e-05
-4.36398e-05
-6.49254e-05
-4.95406e-05
-5.15099e-05
-5.24221e-05
-3.95875e-05
-5.25882e-05
-2.99807e-05
-5.07256e-05
-2.30595e-05
-4.77314e-05
-1.86809e-05
-4.46246e-05
-1.62516e-05
-4.19894e-05
-1.50279e-05
-4.0159e-05
-1.44963e-05
-3.92236e-05
-1.42375e-05
-3.89122e-05
-1.38485e-05
-3.88105e-05
-1.30781e-05
-3.86242e-05
-1.18934e-05
-3.82821e-05
-1.04288e-05
-3.7882e-05
-8.82951e-06
-3.74421e-05
-7.08704e-06
-3.67993e-05
-5.14171e-06
-3.58186e-05
-3.07189e-06
-3.45698e-05
-1.12318e-06
4.56914e-07
-3.32003e-05
-1.32894e-05
-9.29647e-05
-2.51445e-05
-8.14675e-05
-3.49691e-05
-6.91513e-05
-4.22688e-05
-5.76257e-05
-4.67388e-05
-4.70399e-05
-4.84773e-05
-3.7849e-05
-4.80007e-05
-3.04572e-05
-4.60426e-05
-2.50176e-05
-4.33896e-05
-2.13339e-05
-4.06958e-05
-1.89454e-05
-3.83695e-05
-1.73542e-05
-3.66381e-05
-1.62277e-05
-3.55437e-05
-1.53319e-05
-3.49462e-05
-1.4446e-05
-3.46168e-05
-1.34074e-05
-3.43601e-05
-1.21501e-05
-3.40841e-05
-1.07049e-05
-3.37816e-05
-9.13201e-06
-3.3426e-05
-7.4426e-06
-3.29317e-05
-5.63591e-06
-3.22361e-05
-3.76752e-06
-3.13846e-05
-1.97463e-06
-4.39899e-07
-3.04881e-05
-1.28544e-05
-8.01104e-05
-2.40222e-05
-7.02997e-05
-3.29461e-05
-6.02274e-05
-3.93284e-05
-5.12434e-05
-4.31172e-05
-4.32511e-05
-4.4562e-05
-3.64043e-05
-4.41769e-05
-3.08423e-05
-4.2615e-05
-2.65796e-05
-4.05101e-05
-2.34388e-05
-3.83436e-05
-2.11119e-05
-3.64012e-05
-1.92965e-05
-3.48358e-05
-1.77931e-05
-3.36893e-05
-1.64785e-05
-3.29101e-05
-1.52253e-05
-3.23849e-05
-1.39325e-05
-3.19931e-05
-1.2542e-05
-3.16542e-05
-1.10437e-05
-3.13268e-05
-9.45943e-06
-3.09738e-05
-7.79562e-06
-3.05436e-05
-6.06605e-06
-3.00046e-05
-4.30641e-06
-2.93774e-05
-2.60203e-06
-1.08615e-06
-2.87313e-05
-1.19692e-05
-6.8141e-05
-2.22426e-05
-6.00263e-05
-3.03397e-05
-5.21303e-05
-3.61022e-05
-4.54809e-05
-3.96031e-05
-3.97502e-05
-4.11266e-05
-3.48808e-05
-4.11203e-05
-3.08486e-05
-4.0109e-05
-2.75909e-05
-3.85814e-05
-2.49664e-05
-3.69054e-05
-2.27879e-05
-3.53044e-05
-2.08975e-05
-3.39012e-05
-1.91963e-05
-3.27552e-05
-1.76245e-05
-3.18654e-05
-1.61151e-05
-3.11872e-05
-1.46107e-05
-3.06569e-05
-1.30723e-05
-3.0216e-05
-1.14846e-05
-2.98232e-05
-9.85227e-06
-2.94409e-05
-8.17789e-06
-2.90318e-05
-6.47512e-06
-2.85705e-05
-4.76774e-06
-2.80621e-05
-3.11035e-06
-1.59946e-06
-2.7549e-05
-1.09684e-05
-5.71727e-05
-2.03562e-05
-5.06385e-05
-2.77495e-05
-4.4737e-05
-3.30626e-05
-4.01677e-05
-3.64152e-05
-3.63976e-05
-3.80816e-05
-3.32144e-05
-3.84396e-05
-3.04906e-05
-3.79037e-05
-2.81268e-05
-3.68505e-05
-2.60196e-05
-3.55663e-05
-2.40721e-05
-3.42419e-05
-2.22219e-05
-3.29961e-05
-2.04422e-05
-3.1902e-05
-1.87185e-05
-3.09867e-05
-1.70304e-05
-3.02406e-05
-1.53569e-05
-2.96347e-05
-1.36781e-05
-2.91307e-05
-1.19886e-05
-2.86972e-05
-1.02858e-05
-2.82995e-05
-8.57561e-06
-2.79066e-05
-6.86798e-06
-2.74946e-05
-5.17973e-06
-2.70603e-05
-3.5447e-06
-2.02742e-06
-2.66325e-05
-1.00081e-05
-4.71645e-05
-1.85954e-05
-4.20511e-05
-2.53965e-05
-3.79359e-05
-3.03541e-05
-3.521e-05
-3.35937e-05
-3.3158e-05
-3.53612e-05
-3.14469e-05
-3.5972e-05
-2.98798e-05
-3.57591e-05
-2.83397e-05
-3.50239e-05
-2.67549e-05
-3.40053e-05
-2.50907e-05
-3.28784e-05
-2.33487e-05
-3.17664e-05
-2.15541e-05
-3.07498e-05
-1.97351e-05
-2.98685e-05
-1.79117e-05
-2.91308e-05
-1.60946e-05
-2.85212e-05
-1.42878e-05
-2.80163e-05
-1.24935e-05
-2.75885e-05
-1.07135e-05
-2.72092e-05
-8.955e-06
-2.6851e-05
-7.22614e-06
-2.6492e-05
-5.5387e-06
-2.61261e-05
-3.91058e-06
-2.38131e-06
-2.57724e-05
-9.14185e-06
-3.80226e-05
-1.70315e-05
-3.41614e-05
-2.33409e-05
-3.16265e-05
-2.80138e-05
-3.05371e-05
-3.1156e-05
-3.00158e-05
-3.29746e-05
-2.96283e-05
-3.37306e-05
-2.91238e-05
-3.36993e-05
-2.8371e-05
-3.31369e-05
-2.73172e-05
-3.22606e-05
-2.5967e-05
-3.12435e-05
-2.43658e-05
-3.0216e-05
-2.25817e-05
-2.92653e-05
-2.06858e-05
-2.84374e-05
-1.87396e-05
-2.77449e-05
-1.67872e-05
-2.71778e-05
-1.48549e-05
-2.67153e-05
-1.2956e-05
-2.63322e-05
-1.10966e-05
-2.60029e-05
-9.28427e-06
-2.57028e-05
-7.52629e-06
-2.54118e-05
-5.82962e-06
-2.51219e-05
-4.20064e-06
-2.65445e-06
-2.48489e-05
-8.36281e-06
-2.96597e-05
-1.56359e-05
-2.68883e-05
-2.15285e-05
-2.57338e-05
-2.59662e-05
-2.60994e-05
-2.90191e-05
-2.69629e-05
-3.08495e-05
-2.77979e-05
-3.16714e-05
-2.83018e-05
-3.17205e-05
-2.83219e-05
-3.12283e-05
-2.78094e-05
-3.04045e-05
-2.67909e-05
-2.94268e-05
-2.53435e-05
-2.84347e-05
-2.35738e-05
-2.75228e-05
-2.15977e-05
-2.67412e-05
-1.95212e-05
-2.61032e-05
-1.74252e-05
-2.55975e-05
-1.53606e-05
-2.52015e-05
-1.3352e-05
-2.48874e-05
-1.14107e-05
-2.46301e-05
-9.54162e-06
-2.44063e-05
-7.75007e-06
-2.41969e-05
-6.03908e-06
-2.39944e-05
-4.40309e-06
-2.83957e-06
-2.38094e-05
-7.62882e-06
-2.20309e-05
-1.432e-05
-2.01971e-05
-1.98245e-05
-2.02293e-05
-2.40402e-05
-2.18836e-05
-2.69911e-05
-2.40121e-05
-2.87928e-05
-2.59962e-05
-2.96211e-05
-2.74734e-05
-2.96868e-05
-2.82562e-05
-2.92097e-05
-2.82865e-05
-2.83971e-05
-2.76034e-05
-2.74305e-05
-2.63101e-05
-2.6455e-05
-2.45494e-05
-2.5571e-05
-2.24817e-05
-2.48323e-05
-2.02599e-05
-2.42528e-05
-1.80047e-05
-2.38183e-05
-1.57951e-05
-2.35012e-05
-1.36692e-05
-2.32707e-05
-1.16411e-05
-2.30994e-05
-9.71302e-06
-2.29634e-05
-7.88602e-06
-2.28454e-05
-6.15712e-06
-2.27367e-05
-4.51187e-06
-2.93098e-06
-2.26454e-05
-6.88669e-06
-1.51441e-05
-1.29771e-05
-1.41066e-05
-1.80654e-05
-1.5141e-05
-2.20268e-05
-1.79221e-05
-2.48322e-05
-2.12066e-05
-2.65529e-05
-2.42755e-05
-2.73366e-05
-2.66897e-05
-2.73823e-05
-2.82105e-05
-2.69069e-05
-2.87619e-05
-2.61139e-05
-2.83964e-05
-2.51794e-05
-2.72446e-05
-2.42446e-05
-2.54841e-05
-2.341e-05
-2.33162e-05
-2.2732e-05
-2.09379e-05
-2.22257e-05
-1.8511e-05
-2.18757e-05
-1.6145e-05
-2.16506e-05
-1.38943e-05
-2.15159e-05
-1.17759e-05
-2.14411e-05
-9.78777e-06
-2.14016e-05
-7.9255e-06
-2.13807e-05
-6.17815e-06
-2.13692e-05
-4.52337e-06
-2.92833e-06
-2.1372e-05
-6.09694e-06
-9.04715e-06
-1.15211e-05
-8.68242e-06
-1.61147e-05
-1.05473e-05
-1.97484e-05
-1.42884e-05
-2.23374e-05
-1.86176e-05
-2.39134e-05
-2.26995e-05
-2.46068e-05
-2.59963e-05
-2.46161e-05
-2.82012e-05
-2.41608e-05
-2.92172e-05
-2.34341e-05
-2.91231e-05
-2.25931e-05
-2.80857e-05
-2.1761e-05
-2.63161e-05
-2.10286e-05
-2.40487e-05
-2.04509e-05
-2.15156e-05
-2.0046e-05
-1.89159e-05
-1.98009e-05
-1.63902e-05
-1.96833e-05
-1.4012e-05
-1.96562e-05
-1.1803e-05
-1.96869e-05
-9.75713e-06
-1.97505e-05
-7.86184e-06
-1.98303e-05
-6.09838e-06
-1.99163e-05
-4.43739e-06
-2.83302e-06
-2.00118e-05
-5.24346e-06
-3.80357e-06
-9.90649e-06
-4.01933e-06
-1.38985e-05
-6.55527e-06
-1.71014e-05
-1.10855e-05
-1.93877e-05
-1.63313e-05
-2.07601e-05
-2.1327e-05
-2.13331e-05
-2.54233e-05
-2.13049e-05
-2.82293e-05
-2.09095e-05
-2.96126e-05
-2.03184e-05
-2.97141e-05
-1.96544e-05
-2.87497e-05
-1.9007e-05
-2.69635e-05
-1.84454e-05
-2.46103e-05
-1.80184e-05
-2.19426e-05
-1.77486e-05
-1.91857e-05
-1.76295e-05
-1.65092e-05
-1.76336e-05
-1.4008e-05
-1.77237e-05
-1.17128e-05
-1.78665e-05
-9.61437e-06
-1.80379e-05
-7.6905e-06
-1.82191e-05
-5.9172e-06
-1.84018e-05
-4.25474e-06
-2.64897e-06
-1.85859e-05
-4.33495e-06
5.31402e-07
-8.14279e-06
-2.11445e-07
-1.14153e-05
-3.28273e-06
-1.40731e-05
-8.42765e-06
-1.59739e-05
-1.44304e-05
-1.71037e-05
-2.01973e-05
-1.75511e-05
-2.49759e-05
-1.75062e-05
-2.82742e-05
-1.72213e-05
-2.98975e-05
-1.68407e-05
-3.00946e-05
-1.64388e-05
-2.91517e-05
-1.60577e-05
-2.73445e-05
-1.57339e-05
-2.49341e-05
-1.55043e-05
-2.21722e-05
-1.53961e-05
-1.92938e-05
-1.54156e-05
-1.64897e-05
-1.55454e-05
-1.38782e-05
-1.57544e-05
-1.15038e-05
-1.60102e-05
-9.35855e-06
-1.62871e-05
-7.41368e-06
-1.65683e-05
-5.63602e-06
-1.6843e-05
-3.97996e-06
-2.38183e-06
-1.71103e-05
-3.40204e-06
3.93356e-06
-6.26528e-06
2.65187e-06
-8.71514e-06
-8.32819e-07
-1.07268e-05
-6.41595e-06
-1.21809e-05
-1.29763e-05
-1.30593e-05
-1.93188e-05
-1.34065e-05
-2.46287e-05
-1.33954e-05
-2.82852e-05
-1.32794e-05
-3.00135e-05
-1.31747e-05
-3.01994e-05
-1.3103e-05
-2.92234e-05
-1.3052e-05
-2.73955e-05
-1.30179e-05
-2.49683e-05
-1.3018e-05
-2.21721e-05
-1.30826e-05
-1.92291e-05
-1.32354e-05
-1.6337e-05
-1.34781e-05
-1.36354e-05
-1.37923e-05
-1.11896e-05
-1.41493e-05
-9.00154e-06
-1.45233e-05
-7.0397e-06
-1.48962e-05
-5.26309e-06
-1.52556e-05
-3.62057e-06
-2.04121e-06
-1.55963e-05
-2.39801e-06
6.33162e-06
-4.30666e-06
4.56059e-06
-5.87194e-06
7.3252e-07
-7.16618e-06
-5.12165e-06
-8.13958e-06
-1.20028e-05
-8.80478e-06
-1.86536e-05
-9.13116e-06
-2.43023e-05
-9.22772e-06
-2.81886e-05
-9.34652e-06
-2.98946e-05
-9.5626e-06
-2.99833e-05
-9.85607e-06
-2.89299e-05
-1.0165e-05
-2.70865e-05
-1.04453e-05
-2.46879e-05
-1.06886e-05
-2.19287e-05
-1.09208e-05
-1.89969e-05
-1.11829e-05
-1.60749e-05
-1.15048e-05
-1.33135e-05
-1.189e-05
-1.08044e-05
-1.23204e-05
-8.57116e-06
-1.27711e-05
-6.58901e-06
-1.32202e-05
-4.81399e-06
-1.36515e-05
-3.18929e-06
-1.63754e-06
-1.40552e-05
-1.35969e-06
7.69144e-06
-2.29153e-06
5.49252e-06
-2.97773e-06
1.41879e-06
-3.50417e-06
-4.59514e-06
-3.98953e-06
-1.15174e-05
-4.54032e-06
-1.81028e-05
-4.99176e-06
-2.38508e-05
-5.31076e-06
-2.78696e-05
-5.72893e-06
-2.94764e-05
-6.28652e-06
-2.94256e-05
-6.93531e-06
-2.8281e-05
-7.58486e-06
-2.64369e-05
-8.16413e-06
-2.41086e-05
-8.63813e-06
-2.14547e-05
-9.01791e-06
-1.86171e-05
-9.35337e-06
-1.57394e-05
-9.70365e-06
-1.29632e-05
-1.01065e-05
-1.04016e-05
-1.05646e-05
-8.11308e-06
-1.10565e-05
-6.09701e-06
-1.15571e-05
-4.31337e-06
-1.20423e-05
-2.70413e-06
-1.18829e-06
-1.24916e-05
-3.39416e-07
8.03091e-06
-3.28282e-07
5.48145e-06
-1.91904e-07
1.28248e-06
8.7301e-08
-4.87429e-06
3.04157e-08
-1.14605e-05
-4.84316e-07
-1.7588e-05
-1.23521e-06
-2.30998e-05
-1.9464e-06
-2.71584e-05
-2.72653e-06
-2.86963e-05
-3.62108e-06
-2.8531e-05
-4.57321e-06
-2.73289e-05
-5.49249e-06
-2.55176e-05
-6.30503e-06
-2.3296e-05
-6.96092e-06
-2.07988e-05
-7.4511e-06
-1.81269e-05
-7.81918e-06
-1.53713e-05
-8.14325e-06
-1.26391e-05
-8.49809e-06
-1.00467e-05
-8.92125e-06
-7.68991e-06
-9.40669e-06
-5.61155e-06
-9.92433e-06