/*--------------------------------*- C++ -*----------------------------------*\
| =========                 |                                                 |
| \\      /  F ield         | OpenFOAM: The Open Source CFD Toolbox           |
|  \\    /   O peration     | Version:  2312                                  |
|   \\  /    A nd           | Website:  www.openfoam.com                      |
|    \\/     M anipulation  |                                                 |
\*---------------------------------------------------------------------------*/
FoamFile
{
    version     2.0;
    format      ascii;
    arch        "LSB;label=32;scalar=64";
    class       volScalarField;
    location    "2.35";
    object      alpha.galistan;
}
// * * * * * * * * * * * * * * * * * * * * * * * * * * * * * * * * * * * * * //

dimensions      [0 0 0 0 0 0 0];

internalField   nonuniform List<scalar> 
2268
(
1
1
1
1
1
1
1
1
1
1
1
1
1
1
1
1
1
1
1
1
0.999998
0.999945
0.99994
1
1
1
1
1
1
1
1
1
1
1
1
1
1
1
1
1
1
1
1
0.999999
0.999975
0.999962
0.999999
1
1
1
1
0.999999
1
1
1
1
1
1
1
1
1
1
1
1
1
1
1
1
1
0.999976
1
1
1
0.999952
0.99999
1
1
1
1
1
1
1
1
1
1
1
1
0.999999
0.999999
1
1
0.999939
0.999438
0.996134
0.997418
0.998505
0.999774
0.999998
0.999997
1
1
1
1
1
1
1
1
1
0.999994
0.999994
0.999999
0.999999
1
0.999988
0.960475
0.68692
0.696653
0.73858
0.8207
0.905799
0.962798
0.990956
0.998918
0.999775
0.999794
0.999859
0.999907
0.999925
0.999937
0.992322
0.974727
0.93859
0.836244
0.737955
0.601901
0.486403
0.402281
0.359447
0.0265106
0.0211042
0.0371804
0.0878467
0.177814
0.297021
0.427938
0.538561
0.603233
0.602932
0.574815
0.538277
0.486604
0.421089
0.37282
0.282849
0.207573
0.158947
0.0920103
0.0459157
0.00976892
0.00975665
0.0395807
6.39549e-11
9.27162e-10
1.38408e-07
5.17403e-09
-1.10143e-06
0.000251264
0.00025605
0.000310968
0.00202586
0.0111767
0.0084614
0.00592987
0.00458467
0.00472892
0.00440639
0.0460431
0.05699
0.0419107
0.0178995
0.00493938
0.00585385
0.00461534
0.00570484
0.904583
0.922207
0.922251
0.924833
0.928947
0.928972
0.928996
0.928558
0.925807
0.927479
0.927475
0.927474
0.926979
0.938202
0.944014
0.944478
0.945745
0.945764
0.945764
0.822094
0.804227
0.835929
0.870562
0.90142
0.928196
0.929027
0.92906
0.883385
0.804765
0.750774
0.748557
0.727731
0.69307
0.714341
0.762247
0.849887
0.945765
0.945764
0.173615
0.186145
0.24942
0.372673
0.527285
0.689919
0.75617
0.68738
0.621606
0.576417
0.535549
0.451367
0.293329
0.196383
0.225578
0.318202
0.430386
0.635527
0.83325
0.0444436
0.0621423
0.0672645
0.0800948
0.132975
0.216675
0.318034
0.419301
0.376137
0.317666
0.237328
0.116816
0.118941
0.111507
0.0920507
0.103288
0.206085
0.411151
0.523459
0.000386868
0.00474526
0.0271125
0.0444324
0.0431525
0.0878257
0.127354
0.115723
0.0896762
0.0620716
0.0747102
0.0945731
0.0940936
0.110842
0.0596347
0.0339616
0.0316158
0.0983684
0.474773
0.000560143
5.09999e-06
5.07419e-06
0.0027461
0.00498703
0.00143882
0.0183034
0.0423755
0.0460362
0.0551053
0.0519581
0.0679068
0.0646607
0.0668523
0.0343645
0.019555
0.0195522
0.0269106
0.105641
0.00105156
0.000151227
7.63164e-05
2.85934e-05
2.38072e-05
1.51263e-06
1.50989e-06
0.0299732
0.0584569
0.0217339
0.00660683
0.00665404
0.0081689
0.0191942
0.0238367
0.02388
0.0232479
0.00473463
0.0042096
0.000982254
0.000117231
0.000112809
0.000103526
5.71593e-05
1.50989e-06
1.51263e-06
0.0233406
0.0457175
0.00654984
0.00659157
0.00766661
0.009607
0.0142137
0.0243303
0.0217005
0.00583968
0.00420839
0.00420843
2.4689e-09
9.01016e-05
0.000490581
0.000123396
0.000244947
0.000553396
0.000553655
0.000264109
5.04093e-05
2.64125e-05
0.000109535
3.0883e-05
0.00118055
0.00778221
0.0104695
0.0105434
0.00352396
0.000712614
0.00109568
0.000504647
0.000525448
0.000476701
7.89911e-05
8.6868e-10
0.000343298
0.00181347
0.00104509
8.10504e-05
8.12862e-05
8.50944e-05
1.86757e-05
1.2811e-06
1.33213e-06
2.02513e-06
4.10164e-05
0.00230818
0.00369322
0.0030976
0.00173558
0.00119789
0.000661081
0.000617904
0.000263295
1.60191e-05
1.60297e-05
1.82834e-05
8.71412e-10
7.68321e-05
0.000377434
0.000767998
0.000572292
0.0001899
9.30494e-07
9.65438e-07
2.36089e-06
2.0611e-05
4.5173e-05
8.63711e-05
7.50828e-05
6.10695e-05
0.000102413
0.000542211
0.00487781
0.0052911
0.00529129
0.00275537
1.60174e-05
1.60122e-05
1.60193e-05
2.17343e-06
2.27645e-06
2.3849e-05
1.64453e-05
0.000634084
0.00063388
0.000207459
9.91154e-07
1.38776e-05
2.19339e-05
8.37456e-06
1.50692e-05
2.16723e-05
2.3411e-05
2.3599e-05
0.000158081
0.0028944
0.00529058
0.00529111
0.00525954
0.00205061
1.60142e-05
0.000131603
2.16592e-06
2.37386e-06
6.56796e-06
2.36332e-06
0.000162985
0.000612243
0.000602969
0.000123545
2.86218e-05
2.93675e-05
8.30915e-06
4.4864e-06
1.60093e-05
4.58303e-05
4.60257e-05
3.83794e-05
5.0347e-06
0.000556735
0.0016275
0.0013621
0.00117454
0.000870265
0.00104379
2.16483e-06
2.72172e-06
2.39489e-06
2.36349e-06
2.5036e-06
0.000135726
0.000258238
0.000228564
5.93662e-05
1.11275e-05
7.2609e-06
7.28007e-06
1.52068e-05
1.45694e-05
1.94602e-05
1.04262e-05
4.94833e-06
1.36428e-05
6.59168e-05
6.668e-05
6.74966e-05
0.000347212
0.000557103
2.39771e-06
4.02269e-06
6.02245e-06
4.28929e-06
2.4729e-06
2.10217e-05
1.63702e-05
5.68203e-05
2.39549e-05
1.17458e-05
1.82705e-05
9.43155e-05
0.000100574
4.27556e-05
3.08155e-06
3.11281e-06
6.14301e-06
5.91263e-06
0.000128187
0.00022152
0.000159461
0.000170073
0.00854204
0.000511282
1.31038e-06
1.44266e-05
1.38613e-05
2.92586e-06
2.77904e-06
2.86602e-06
1.98804e-05
0.000121151
0.000146665
0.000146666
0.000145755
9.41652e-05
4.0611e-05
6.59029e-06
8.80598e-06
3.13943e-05
7.027e-05
6.86902e-05
0.000578264
0.00212691
0.0075483
0.015957
0.00222909
1.29761e-06
1.44202e-05
6.1485e-06
3.65357e-06
1.72969e-05
3.02214e-05
5.2891e-05
6.89609e-05
7.57267e-05
0.000103813
6.63484e-05
3.69862e-05
4.75678e-05
7.89914e-05
8.78859e-05
0.000309565
0.000790129
0.000823663
0.00352541
0.00610918
0.00613446
0.00646891
0.00371813
1.27327e-06
6.11057e-06
4.04071e-06
4.03366e-06
4.04073e-06
4.04785e-06
4.05389e-06
5.91518e-06
1.58382e-05
6.87208e-05
8.39721e-05
0.000124627
0.000196334
0.00019573
9.22355e-05
0.000367283
0.00079007
0.000787535
0.000348961
0.000302657
0.000161353
1.52482e-07
0.00499069
1.29793e-06
9.41214e-06
0.000457788
0.000575778
0.00123631
0.00468126
0.0108472
0.0108594
0.0100447
0.0043692
0.00133022
0.000506057
6.19999e-05
4.32459e-05
9.57899e-06
9.75577e-08
2.90565e-12
3.71398e-11
4.921e-13
-4.59472e-15
-2.77876e-10
8.96279e-07
0.0062817
0.000439958
8.25737e-06
0.000343905
0.00252311
0.00445872
0.00447739
0.00336677
0.00106946
0.000108873
7.04809e-07
1.81684e-08
1.77361e-08
1.81523e-08
2.86142e-07
5.58066e-06
5.65783e-06
2.36629e-06
8.07888e-07
9.37174e-07
4.06087e-07
8.74151e-07
1.09981e-06
0.00647372
0.00617306
0.000442802
9.17791e-05
0.000522994
0.00178735
0.000833166
1.52285e-05
9.69167e-07
3.59805e-08
4.66619e-08
1.36283e-07
8.8545e-08
1.83189e-08
1.85289e-08
9.24821e-07
3.49317e-06
7.89812e-06
8.91519e-06
8.51842e-06
1.12151e-06
5.99726e-08
2.9407e-07
0.00240041
0.00512109
0.00694902
0.00706263
0.00706151
0.00360401
1.96878e-05
6.35795e-06
4.03687e-08
3.6939e-08
4.10542e-08
4.37753e-08
2.01696e-08
2.43689e-08
4.17665e-08
2.17976e-08
2.63761e-10
2.58427e-10
2.62821e-10
2.58427e-10
9.54481e-08
5.69797e-08
2.13215e-08
2.08459e-05
2.0524e-05
0.000519134
0.00364512
0.00401791
0.0017417
1.20857e-06
5.89999e-07
4.1302e-07
3.60649e-07
3.45727e-07
2.09083e-07
6.93467e-08
1.19551e-08
5.04797e-09
8.58367e-09
1.06496e-08
5.94015e-09
3.72926e-09
1.98106e-09
1.98495e-09
3.97127e-09
1.32257e-09
3.87067e-05
6.51425e-05
7.44207e-05
9.87987e-08
1.07287e-07
7.79942e-05
5.99589e-05
9.91439e-06
1.4692e-07
2.78728e-07
3.7349e-07
3.73356e-07
2.32716e-07
4.86878e-08
1.05056e-08
1.48838e-08
2.58046e-08
2.57186e-08
1.10618e-08
3.66442e-09
2.05531e-09
1.53229e-09
1.34119e-09
3.87379e-05
0.000719083
0.000889102
0.00031601
2.45176e-05
0.000104706
3.75432e-05
1.7744e-06
5.68981e-08
8.22175e-08
1.3135e-07
9.79108e-08
5.99064e-08
4.42463e-08
1.83916e-08
1.81954e-08
2.8196e-08
2.83157e-08
1.79647e-08
4.78268e-09
1.69733e-09
1.01381e-09
8.69221e-10
0.00042655
0.000896023
0.000893124
0.000387305
5.39697e-07
2.37698e-05
3.87256e-06
8.6973e-09
9.23965e-09
1.76106e-08
1.71773e-08
9.41355e-09
4.01477e-09
2.56661e-09
3.86943e-09
6.73683e-09
1.37209e-08
1.08891e-08
5.01547e-09
1.81668e-09
7.09744e-10
4.92736e-10
4.28155e-10
0.000668889
0.000423096
0.000269419
7.07796e-05
6.56648e-12
1.02168e-11
-2.05842e-12
8.9563e-09
1.57535e-08
1.38286e-08
4.1859e-09
1.36252e-09
7.6429e-10
7.21278e-10
1.31116e-09
1.79392e-09
1.67157e-09
1.60382e-09
1.14615e-09
6.78459e-10
3.82963e-10
2.37128e-10
2.36334e-10
0.000333686
1.47147e-06
1.68306e-06
2.35172e-05
2.29775e-11
8.01189e-09
1.6258e-08
1.37184e-08
2.53533e-08
1.50805e-08
3.29306e-09
1.09676e-09
7.78314e-10
8.59435e-10
8.00861e-10
5.61782e-10
3.23522e-10
2.1037e-10
1.65764e-10
1.31159e-10
1.25198e-10
1.20701e-10
1.13129e-10
2.70761e-08
1.28333e-06
4.81328e-06
1.51479e-05
2.42763e-11
4.95223e-09
1.78633e-08
2.95201e-08
2.49916e-08
7.62685e-09
1.66064e-09
8.02702e-10
6.15588e-10
5.45925e-10
4.4407e-10
3.19332e-10
2.18029e-10
1.5226e-10
1.0798e-10
7.41012e-11
6.10104e-11
4.6746e-11
3.9344e-11
5.80169e-08
1.32738e-06
6.01499e-07
3.02407e-07
4.16616e-10
7.56848e-09
2.21968e-08
2.93103e-08
1.12772e-08
2.07672e-09
7.48799e-10
4.37311e-10
3.23971e-10
2.46452e-10
1.77819e-10
1.20581e-10
7.98201e-11
5.51396e-11
3.98458e-11
2.91548e-11
1.96542e-11
1.55261e-11
1.26929e-11
1.20379e-08
1.2352e-07
2.59374e-07
7.42889e-08
2.46072e-10
1.1296e-08
2.19832e-08
1.47243e-08
2.888e-09
8.64948e-10
3.92093e-10
2.0938e-10
1.40128e-10
9.56302e-11
6.1018e-11
3.7912e-11
2.47591e-11
1.72384e-11
1.24762e-11
9.47187e-12
6.83818e-12
3.94393e-12
3.21131e-12
1.13455e-08
4.74928e-08
7.98097e-08
3.05152e-08
1.63274e-09
9.7914e-09
1.18519e-08
3.80494e-09
8.96681e-10
3.82331e-10
1.58719e-10
8.5348e-11
5.22269e-11
3.15582e-11
1.83022e-11
1.06675e-11
6.79053e-12
4.67209e-12
3.40574e-12
2.50755e-12
1.51652e-12
8.68529e-13
7.2863e-13
1.39154e-08
9.08311e-08
9.94031e-08
5.10318e-08
4.16921e-09
3.59426e-09
3.17295e-09
9.85619e-10
3.48746e-10
1.40787e-10
6.19104e-11
3.17121e-11
1.71452e-11
9.1535e-12
4.86152e-12
2.67083e-12
1.55952e-12
1.03336e-12
7.13808e-13
5.057e-13
2.97911e-13
1.54818e-13
1.27356e-13
1.87701e-08
6.62032e-08
9.83827e-08
7.44991e-08
1.24602e-08
1.20011e-09
1.08321e-09
4.13065e-10
1.57173e-10
5.70913e-11
1.90439e-11
8.24842e-12
4.4161e-12
2.22793e-12
1.08015e-12
5.45623e-13
3.05966e-13
1.9081e-13
1.25449e-13
7.75019e-14
4.44135e-14
2.61617e-14
1.97922e-14
2.24567e-08
1.97044e-08
7.43415e-08
4.43056e-08
1.06802e-08
1.5771e-09
6.13094e-10
2.23402e-10
7.15375e-11
1.50186e-11
3.63067e-12
1.38464e-12
7.12351e-13
3.75321e-13
1.94846e-13
1.02571e-13
5.67499e-14
3.07885e-14
1.73318e-14
1.09991e-14
6.02648e-15
2.80601e-15
2.57356e-15
4.65878e-08
4.47991e-09
5.94628e-09
2.29725e-08
5.92657e-09
1.22644e-09
4.64396e-10
1.43601e-10
3.36068e-11
6.77648e-12
2.19789e-12
1.05799e-12
5.62171e-13
2.97484e-13
1.45728e-13
6.50454e-14
2.65638e-14
1.03918e-14
4.09321e-15
1.75435e-15
7.60273e-16
3.23532e-16
2.83953e-16
5.5425e-08
4.81714e-09
1.64566e-09
9.00843e-09
1.97276e-09
9.85072e-10
4.44573e-10
1.12113e-10
2.15681e-11
5.40395e-12
2.71568e-12
1.707e-12
1.06592e-12
6.23099e-13
3.13721e-13
1.36154e-13
5.05669e-14
1.6586e-14
4.89903e-15
1.3405e-15
3.52493e-16
7.90132e-17
3.26502e-17
5.46786e-08
8.7287e-09
2.53498e-09
6.6697e-10
5.23594e-10
6.14931e-10
7.39691e-10
2.85572e-10
2.02246e-11
6.37993e-12
5.02002e-12
3.58619e-12
2.48776e-12
1.53913e-12
7.9217e-13
3.41724e-13
1.23977e-13
3.94914e-14
1.09949e-14
2.68044e-15
5.87003e-16
1.07675e-16
1.4032e-17
3.35781e-08
-1.78794e-13
-1.1006e-11
7.56689e-16
3.36208e-08
6.9572e-08
3.19763e-08
1.37161e-09
4.05174e-11
1.01063e-11
1.13463e-11
7.75355e-12
5.69691e-12
3.58144e-12
1.86024e-12
7.93018e-13
2.85344e-13
8.96759e-14
2.43561e-14
5.57952e-15
1.18755e-15
1.9942e-16
2.36571e-17
9.03573e-07
0.000160791
0.000143151
2.84826e-05
4.58456e-09
5.85305e-08
2.17971e-08
1.22239e-09
7.29173e-11
2.52162e-11
2.76099e-11
1.69049e-11
1.22716e-11
7.4869e-12
3.86944e-12
1.6273e-12
5.86103e-13
1.82784e-13
4.86193e-14
1.08029e-14
2.26064e-15
3.38934e-16
4.10853e-17
0.000351405
0.000500529
0.000484134
4.41937e-05
4.54227e-09
1.08669e-08
5.40915e-09
6.26075e-10
7.48154e-11
6.73185e-11
6.77069e-11
3.77595e-11
2.37008e-11
1.37331e-11
6.99421e-12
2.93464e-12
1.05961e-12
3.3044e-13
8.63421e-14
1.79415e-14
3.52601e-15
5.21285e-16
6.15112e-17
0.000521536
0.000529301
0.00018063
1.0392e-09
4.49826e-09
5.58713e-10
7.96209e-10
1.88347e-10
1.01427e-10
1.36283e-10
1.30053e-10
8.02167e-11
4.58881e-11
2.36785e-11
1.11076e-11
4.66054e-12
1.70432e-12
5.31676e-13
1.36451e-13
2.90366e-14
5.88726e-15
7.81399e-16
7.87745e-17
0.000278526
8.20705e-05
2.9179e-08
1.05703e-09
2.86677e-09
5.60774e-10
4.18764e-10
1.41877e-10
1.69117e-10
2.41097e-10
2.69126e-10
1.92307e-10
8.42057e-11
4.08735e-11
1.79417e-11
7.56135e-12
2.75729e-12
8.20771e-13
1.98144e-13
3.68773e-14
6.7649e-15
8.83313e-16
7.94927e-17
1.99972e-09
1.80577e-09
1.6087e-09
1.1321e-09
1.7884e-09
3.65937e-10
1.87407e-10
1.68841e-10
2.9333e-10
4.26611e-10
4.54017e-10
3.07033e-10
1.24393e-10
4.91089e-11
2.10483e-11
8.67254e-12
3.06341e-12
8.88072e-13
2.08153e-13
3.80961e-14
6.5795e-15
7.63942e-16
7.37159e-17
2.68168e-09
1.80093e-09
8.30555e-10
8.24707e-10
5.92438e-10
1.98008e-10
1.85279e-10
2.66516e-10
5.0866e-10
6.99826e-10
6.45452e-10
3.7527e-10
1.37007e-10
4.96884e-11
2.15839e-11
8.51787e-12
2.82748e-12
7.50541e-13
1.68963e-13
2.82777e-14
4.43632e-15
4.4233e-16
2.91453e-17
2.24152e-09
1.1902e-09
4.95573e-10
4.23065e-10
2.19739e-10
1.95854e-10
2.4102e-10
5.04767e-10
8.50579e-10
9.42076e-10
7.80349e-10
3.85353e-10
1.27776e-10
4.28552e-11
1.89179e-11
6.66596e-12
1.89666e-12
4.44866e-13
8.32978e-14
1.33269e-14
1.66884e-15
1.45165e-16
1.04325e-17
6.07438e-09
1.11564e-09
2.99335e-10
2.28445e-10
2.1034e-10
2.37882e-10
3.83433e-10
8.8353e-10
1.28845e-09
1.33172e-09
8.3391e-10
2.75562e-10
8.51661e-11
3.79866e-11
1.37365e-11
3.95131e-12
9.03014e-13
1.64422e-13
2.52555e-14
2.87688e-15
3.09758e-16
2.28379e-17
1.15895e-18
8.98403e-09
1.84231e-09
3.27341e-10
3.14899e-10
4.69881e-10
4.32248e-10
8.62977e-10
1.89037e-09
2.12626e-09
1.51384e-09
5.97921e-10
1.78089e-10
6.61156e-11
2.43945e-11
6.98532e-12
1.51083e-12
2.45164e-13
3.11923e-14
3.24487e-15
3.21234e-16
2.45549e-17
1.6363e-18
9.34373e-20
1.06096e-08
3.16324e-09
3.93247e-10
6.72356e-10
9.99623e-10
1.33822e-09
2.9995e-09
3.34491e-09
2.44518e-09
1.12563e-09
3.38619e-10
1.37072e-10
5.03889e-11
1.44769e-11
2.9278e-12
4.03538e-13
3.87408e-14
2.86648e-15
1.86148e-16
1.17133e-17
7.43256e-19
3.92562e-20
1.85334e-21
1.14001e-08
7.93273e-09
4.16801e-09
4.84584e-09
5.23551e-09
5.81776e-09
4.93194e-09
3.14493e-09
1.53326e-09
4.86666e-10
1.62745e-10
5.91902e-11
1.79532e-11
3.62093e-12
4.63969e-13
3.7513e-14
2.01072e-15
8.01234e-17
2.85197e-18
1.0755e-19
4.43556e-21
1.80828e-22
6.74997e-24
0.000110294
0.000290006
0.000289704
0.000443505
0.000639627
0.00299776
0.00490741
0.00669859
0.00363678
0.00777895
0.00777427
0.00774311
0.00116943
0.00203909
0.00393368
0.00817373
0.0011422
0.00240814
0.0166297
0.0204002
0.000690671
0.0167067
0.0204002
0.0204113
0.0204009
0.0203888
0.0204113
0.0204031
0.0168277
0.0181406
0.0203376
0.020416
0.00542599
0.00384425
0.00231285
0.000545066
1.5481e-07
1.1721e-07
1.17094e-07
1.1721e-07
1.26006e-06
1.25966e-06
6.52951e-07
8.97295e-07
6.67933e-07
8.93238e-08
9.72202e-08
2.09011e-07
1.03524e-07
8.70956e-08
1.61656e-07
1.49096e-06
1.39949e-09
6.40854e-07
2.35427e-06
3.47161e-06
1.20383e-09
1.9297e-09
2.85955e-09
6.63343e-09
1.34159e-09
1.32127e-09
1.1327e-09
1.2111e-09
8.24554e-10
7.61482e-10
7.64857e-10
7.75832e-10
4.18505e-10
4.29684e-10
4.26426e-10
4.18268e-10
2.34517e-10
2.19371e-10
2.0789e-10
2.02462e-10
1.06776e-10
9.82296e-11
9.10734e-11
8.00686e-11
3.51592e-11
2.88031e-11
2.58107e-11
2.42176e-11
1.08088e-11
9.06843e-12
7.96235e-12
6.84246e-12
2.65725e-12
2.04237e-12
1.88418e-12
1.81707e-12
5.47258e-13
4.45663e-13
4.30864e-13
4.34253e-13
9.95726e-14
7.37305e-14
7.56668e-14
9.46753e-14
1.64593e-14
1.33097e-14
1.51957e-14
1.80647e-14
2.16745e-15
1.62563e-15
1.95561e-15
3.17125e-15
2.67012e-16
2.2656e-16
2.92163e-16
4.08057e-16
2.86039e-17
2.3331e-17
3.09702e-17
6.819e-17
6.16306e-18
4.06037e-18
4.55608e-18
9.86667e-18
5.32154e-18
1.71813e-18
8.37324e-19
2.72375e-18
8.87572e-18
2.02174e-18
3.69986e-19
7.29701e-19
1.11593e-17
2.30213e-18
2.9769e-19
3.30171e-19
1.21476e-17
2.35299e-18
2.94073e-19
1.25423e-19
1.22363e-17
2.04262e-18
2.67155e-19
2.75641e-20
1.03091e-17
1.46824e-18
1.65031e-19
8.63401e-21
3.58478e-18
4.22845e-19
3.85343e-20
1.441e-21
1.07634e-18
1.22423e-19
6.61656e-21
1.664e-22
9.36876e-20
9.00431e-21
1.39654e-22
1.54999e-23
7.47726e-21
6.35355e-22
3.8995e-24
1.60075e-24
1.50194e-22
8.27503e-24
7.024e-26
1.67758e-25
4.60817e-25
3.76056e-27
4.40966e-27
1.43864e-26
0.00133859
0.00258941
0.000759986
9.82128e-05
1.57741e-05
1.51281e-06
0.000739331
0.0168152
0.026783
0.0178995
0.0122885
0.0256858
0.0283801
0.0309883
0.0269952
0.00475336
0.00547936
0.00982948
0.00888124
0.00783539
0.00783665
0.00305791
1.29087e-08
2.70009e-08
0.000291266
0.00225248
0.0166354
0.0153316
0.00598257
0.014915
0.0182109
0.0288038
0.0318304
0.0238908
0.00477547
0.0119851
0.0197622
0.015084
0.00783558
0.0078364
0.00432384
1.28827e-08
2.84925e-05
0.00045467
0.0014283
0.00808974
0.00208703
0.000910638
0.000895516
0.000910217
0.00242405
0.015088
0.00566503
0.00604915
0.0199962
0.0199964
0.0199964
0.00780196
0.00770573
0.00338882
0.000118557
0.00026433
0.00140884
0.00121084
0.000956225
0.000966096
0.00441105
0.00401092
0.00108835
0.00197472
0.00476086
0.00304334
0.00307348
0.00958217
0.0199948
0.0199959
0.0175862
0.00899016
0.00205982
6.51485e-07
5.72002e-05
0.00335337
0.0114435
0.0106815
0.0117197
0.0117218
0.00872547
0.00505441
0.00210324
0.00262101
0.00418579
0.00283539
0.00283563
0.00845858
0.017553
0.0204002
0.00526677
6.51195e-07
6.51047e-07
6.51195e-07
0.00204981
0.00945142
0.0107245
0.00815189
0.00454
0.00390169
0.00200149
0.00128298
0.00268123
0.0049519
0.00494291
0.0034242
0.0030594
0.0147228
0.0198563
0.00605419
0.000103122
0.000460679
0.00401702
0.00405668
0.00266001
0.000620164
0.000132116
9.99448e-05
5.34739e-07
5.02422e-07
3.75534e-05
0.000128706
6.17877e-05
0.000133449
0.000321065
0.00356634
0.00552188
0.016339
0.00832393
0.00173255
0.000694389
0.000209195
3.58311e-06
2.45241e-06
1.0316e-06
1.96405e-06
1.14834e-05
1.06834e-06
4.61083e-07
4.32042e-08
8.33248e-08
1.13346e-07
2.52625e-14
1.95304e-14
2.28612e-14
1.95304e-14
2.99003e-05
1.72023e-05
0.000413378
0.000371815
2.61957e-06
9.17025e-07
2.32206e-06
1.7533e-05
1.99107e-05
1.56204e-05
6.30988e-06
2.61018e-06
3.6615e-07
8.66625e-07
3.07247e-07
3.10198e-08
1.74747e-08
1.73667e-07
1.65362e-07
9.75576e-06
5.17947e-13
6.11976e-10
1.81411e-06
3.33108e-07
1.36311e-06
7.19369e-06
8.79195e-06
1.9914e-05
2.01112e-05
2.00345e-05
2.0018e-06
6.41855e-07
1.70175e-05
1.31974e-05
1.14347e-06
1.78514e-07
4.924e-07
3.76591e-07
8.47195e-07
1.11115e-06
2.22464e-06
2.62177e-06
4.86703e-06
3.29303e-06
1.59551e-07
5.84762e-10
5.82488e-10
8.56646e-06
1.33656e-05
8.41958e-06
1.44232e-05
2.17594e-05
2.17724e-05
7.72486e-06
1.18389e-23
4.93527e-07
5.21182e-07
1.92262e-07
1.29693e-06
4.90149e-06
4.9e-06
4.89484e-06
2.37563e-06
8.7484e-07
8.28292e-10
2.28537e-09
2.99595e-10
1.25031e-08
1.36857e-05
1.69663e-05
1.86193e-05
2.17435e-05
8.86786e-06
-7.0594e-10
2.97438e-07
4.40923e-07
2.83887e-06
3.26399e-06
3.24184e-06
2.27898e-06
3.89428e-07
2.1841e-11
1.94051e-11
7.18923e-08
9.64438e-09
3.00941e-10
8.83736e-11
1.30267e-11
1.30464e-11
1.30304e-11
1.32466e-05
5.37039e-06
2.31388e-09
1.5638e-07
3.17481e-07
3.47641e-06
3.12821e-06
1.84225e-06
1.78544e-07
4.48478e-10
4.53756e-10
5.99859e-10
6.10778e-10
6.6161e-10
7.87965e-10
3.55535e-10
4.24524e-11
5.7766e-11
1.30464e-11
1.68934e-12
2.38107e-06
3.25248e-10
3.25565e-08
1.61409e-07
8.31448e-09
6.97864e-10
6.93311e-10
6.97595e-10
1.1033e-09
1.30972e-09
1.13875e-09
6.10295e-10
8.62788e-10
8.59964e-10
3.63785e-10
1.28873e-10
4.451e-10
1.30357e-11
2.02107e-07
8.06493e-07
3.27176e-10
3.25248e-10
6.09984e-09
1.17317e-09
9.0077e-10
7.74246e-10
7.55624e-10
1.19881e-09
1.19415e-09
9.80087e-10
6.08741e-10
6.42588e-10
3.92209e-10
1.26517e-10
2.63658e-10
1.00479e-09
6.90235e-09
4.17436e-08
2.58202e-08
3.25736e-10
9.99859e-10
2.49682e-09
6.91093e-10
6.78312e-10
4.70743e-10
3.42746e-10
4.48914e-10
5.26188e-10
4.35075e-10
2.87523e-10
1.70887e-10
1.18296e-10
5.97775e-11
4.11382e-10
9.94445e-10
8.40756e-10
2.85259e-10
2.89652e-10
5.41328e-10
1.78254e-09
2.84076e-09
3.91581e-10
3.2441e-10
2.29952e-10
1.59751e-10
1.49662e-10
1.63397e-10
1.54362e-10
9.15554e-11
5.41478e-11
4.6592e-11
4.68613e-11
3.57213e-10
9.65391e-10
9.34493e-10
4.37696e-10
2.94083e-10
7.3002e-10
1.94196e-09
3.36315e-09
1.81576e-10
1.35315e-10
9.29735e-11
7.76852e-11
6.62675e-11
6.41277e-11
6.184e-11
4.51857e-11
3.88552e-11
3.79111e-11
3.54331e-11
1.36154e-10
4.96493e-10
6.157e-10
2.78797e-10
2.79613e-10
6.93593e-10
1.91022e-09
3.39806e-09
6.57214e-11
4.87059e-11
3.89319e-11
3.77914e-11
3.55719e-11
3.44628e-11
3.36872e-11
2.93517e-11
2.74397e-11
2.81911e-11
2.48415e-11
2.80469e-11
4.76125e-11
8.58584e-11
1.16411e-10
1.69446e-10
5.9019e-10
1.89008e-09
3.39871e-09
1.98254e-11
1.61113e-11
1.68106e-11
1.82647e-11
1.91864e-11
1.90638e-11
1.81836e-11
1.70214e-11
1.57539e-11
1.47451e-11
1.67559e-11
1.61437e-11
1.72793e-11
2.33768e-11
4.20456e-11
9.68001e-11
4.29864e-10
2.03331e-09
3.38469e-09
5.95683e-12
6.08612e-12
7.03263e-12
7.99885e-12
8.62328e-12
8.62755e-12
8.21606e-12
8.05765e-12
8.20108e-12
7.92027e-12
9.32484e-12
8.9871e-12
1.0306e-11
1.38722e-11
2.14893e-11
6.48961e-11
4.04764e-10
1.89145e-09
2.83271e-09
1.8732e-12
2.25244e-12
2.74917e-12
3.16816e-12
3.42462e-12
3.4692e-12
3.395e-12
3.43743e-12
3.55404e-12
3.44415e-12
2.71673e-12
4.53135e-12
5.78485e-12
8.75637e-12
1.50323e-11
4.4102e-11
3.01572e-10
1.83735e-09
2.15751e-09
5.42683e-13
7.30736e-13
9.92607e-13
1.1683e-12
1.24086e-12
1.21325e-12
1.26227e-12
1.34263e-12
1.48511e-12
1.56416e-12
1.43676e-12
2.43603e-12
4.24996e-12
7.51132e-12
1.47502e-11
4.05086e-11
1.9359e-10
1.83082e-09
1.96024e-09
1.40509e-13
2.31039e-13
3.10799e-13
3.65658e-13
4.08803e-13
4.37845e-13
4.58709e-13
5.13453e-13
6.12122e-13
8.57195e-13
1.24477e-12
2.32723e-12
4.33542e-12
9.41282e-12
2.05311e-11
5.46047e-11
2.52166e-10
1.84198e-09
1.85826e-09
3.10115e-14
5.77101e-14
8.73982e-14
1.1776e-13
1.36385e-13
1.48518e-13
1.69304e-13
2.16411e-13
3.4547e-13
6.64063e-13
1.38284e-12
3.07772e-12
6.72862e-12
1.4465e-11
3.13192e-11
7.81743e-11
4.00538e-10
1.84883e-09
1.77615e-09
6.06564e-15
1.34702e-14
2.19252e-14
3.00646e-14
3.9833e-14
5.17407e-14
7.30772e-14
1.31503e-13
2.84943e-13
6.76794e-13
1.66263e-12
3.95973e-12
9.16206e-12
2.21328e-11
5.29989e-11
1.34236e-10
5.4899e-10
1.88259e-09
1.52793e-09
9.68083e-16
2.44728e-15
4.48179e-15
7.83127e-15
1.24901e-14
2.1775e-14
4.52008e-14
1.08648e-13
2.76207e-13
7.01316e-13
1.74584e-12
4.24349e-12
1.01968e-11
2.96967e-11
8.55791e-11
2.36442e-10
7.21932e-10
1.88472e-09
1.15873e-09
1.87189e-16
4.98655e-16
1.10787e-15
2.36974e-15
5.41571e-15
1.36442e-14
3.62514e-14
9.8493e-14
2.61272e-13
6.7222e-13
1.69649e-12
4.21455e-12
1.02069e-11
3.19714e-11
1.17092e-10
3.13258e-10
8.69462e-10
1.83524e-09
8.25189e-10
3.67629e-17
1.35321e-16
3.83376e-16
1.16179e-15
3.51322e-15
1.03796e-14
2.98687e-14
8.34473e-14
2.23077e-13
5.80981e-13
1.50864e-12
3.93016e-12
1.03419e-11
3.06705e-11
1.27038e-10
3.6327e-10
8.74627e-10
1.37419e-09
7.03822e-10
1.28296e-17
6.08573e-17
2.13618e-16
7.47427e-16
2.46857e-15
7.59826e-15
2.20709e-14
6.17864e-14
1.66467e-13
4.43421e-13
1.19899e-12
3.30247e-12
9.09767e-12
2.52489e-11
1.00354e-10
3.62735e-10
7.99941e-10
9.87112e-10
5.36715e-10
6.22528e-18
3.15288e-17
1.19785e-16
4.54572e-16
1.53731e-15
4.72012e-15
1.38735e-14
3.90253e-14
1.0677e-13
2.94481e-13
8.38455e-13
2.44885e-12
7.05431e-12
1.96011e-11
6.3549e-11
2.52765e-10
6.13048e-10
7.69402e-10
3.62978e-10
2.60946e-18
1.31752e-17
5.57058e-17
2.11272e-16
7.54988e-16
2.36965e-15
7.04896e-15
1.968e-14
5.66704e-14
1.64682e-13
5.0384e-13
1.584e-12
4.78207e-12
1.30333e-11
3.42937e-11
1.34892e-10
4.12191e-10
5.36422e-10
1.95049e-10
9.15414e-19
4.90201e-18
2.17503e-17
8.50124e-17
3.01622e-16
9.65221e-16
2.79171e-15
8.44341e-15
2.52418e-14
8.03962e-14
2.67927e-13
9.13477e-13
2.92112e-12
8.07745e-12
2.00856e-11
5.51212e-11
1.77926e-10
3.19236e-10
1.04522e-10
2.19672e-19
1.36975e-18
6.55529e-18
2.73862e-17
9.86894e-17
3.12574e-16
9.35367e-16
2.80005e-15
9.0329e-15
3.17162e-14
1.18625e-13
4.51288e-13
1.54054e-12
4.37843e-12
1.05351e-11
2.27591e-11
5.84631e-11
1.37136e-10
5.56539e-11
4.67865e-20
2.96599e-19
1.45792e-18
6.19697e-18
2.33937e-17
7.70387e-17
2.45939e-16
8.19663e-16
2.8353e-15
1.09677e-14
4.64293e-14
1.92606e-13
7.04997e-13
2.16933e-12
5.3424e-12
1.16066e-11
2.3747e-11
4.6643e-11
2.98721e-11
7.78587e-21
4.67148e-20
2.3527e-19
1.02922e-18
3.84913e-18
1.31335e-17
4.62833e-17
1.69386e-16
6.67648e-16
3.01161e-15
1.48762e-14
7.14186e-14
2.87144e-13
9.13165e-13
2.38021e-12
5.14947e-12
9.74898e-12
1.56271e-11
1.54738e-11
8.60755e-22
5.50706e-21
2.65755e-20
1.13812e-19
4.43881e-19
1.6038e-18
6.14844e-18
2.52042e-17
1.16464e-16
6.14084e-16
3.60005e-15
2.04518e-14
9.26188e-14
3.17081e-13
8.55332e-13
1.82815e-12
3.26875e-12
5.08255e-12
6.49404e-12
9.28494e-23
4.63376e-22
1.86587e-21
7.07884e-21
2.77545e-20
1.08643e-19
5.04118e-19
2.69115e-18
1.54868e-17
1.01087e-16
6.83438e-16
4.56758e-15
2.35258e-14
8.85586e-14
2.53409e-13
5.77424e-13
1.05168e-12
1.79774e-12
2.68246e-12
7.66188e-24
3.11685e-23
1.09896e-22
4.50113e-22
2.09324e-21
1.09459e-20
6.18815e-20
3.71981e-19
2.50876e-18
1.78295e-17
1.33441e-16
9.75592e-16
5.45558e-15
2.14483e-14
6.27367e-14
1.43659e-13
2.27471e-13
5.70135e-13
8.37195e-13
5.51173e-25
1.66505e-24
4.98912e-24
2.06168e-23
1.19102e-22
7.94226e-22
5.74949e-21
4.24231e-20
3.39992e-19
2.67276e-18
2.10882e-17
1.4695e-16
8.8863e-16
3.83773e-15
1.25514e-14
3.07325e-14
4.79397e-14
1.24473e-13
1.14554e-13
3.12022e-26
6.70814e-26
1.63213e-25
7.38426e-25
5.28682e-24
4.20852e-23
3.57757e-22
3.41408e-21
3.1113e-20
2.50824e-19
1.93131e-18
1.25775e-17
7.6544e-17
3.53149e-16
1.22418e-15
3.22517e-15
6.40736e-15
1.06234e-14
6.84695e-16
)
;

boundaryField
{
    leftWall
    {
        type            zeroGradient;
    }
    rightWall
    {
        type            zeroGradient;
    }
    lowerWall
    {
        type            zeroGradient;
    }
    atmosphere
    {
        type            inletOutlet;
        inletValue      uniform 0;
        value           nonuniform List<scalar> 
46
(
1.14001e-08
7.93273e-09
4.16801e-09
4.84584e-09
5.23551e-09
5.81776e-09
4.93194e-09
3.14493e-09
0
0
0
0
0
0
0
0
0
0
0
0
0
0
0
0
0
0
0
0
0
0
0
0
0
0
0
0
0
0
0
0
0
0
0
0
0
0
)
;
    }
    defaultFaces
    {
        type            empty;
    }
}


// ************************************************************************* //
