/*--------------------------------*- C++ -*----------------------------------*\
| =========                 |                                                 |
| \\      /  F ield         | OpenFOAM: The Open Source CFD Toolbox           |
|  \\    /   O peration     | Version:  2312                                  |
|   \\  /    A nd           | Website:  www.openfoam.com                      |
|    \\/     M anipulation  |                                                 |
\*---------------------------------------------------------------------------*/
FoamFile
{
    version     2.0;
    format      ascii;
    arch        "LSB;label=32;scalar=64";
    class       volScalarField;
    location    "2.35";
    object      alphas;
}
// * * * * * * * * * * * * * * * * * * * * * * * * * * * * * * * * * * * * * //

dimensions      [0 0 0 0 0 0 0];

internalField   nonuniform List<scalar> 
2268
(
2
2
2
2
2
2
2
2
2
2
2
2
2
2
2
2
2
2
2
2
2
1.99994
1.99994
2
2
2
2
2
2
2
2
2
2
2
2
2
2
2
2
2
2
2
2
2
1.99998
1.99996
2
2
2
2
2
2
2
2
2
2
2
2
2
2
2
2
2
2
2
2
2
2
2
1.99997
2
2
2
1.99995
1.99999
2
2
2
2
2
2
2
2
2
2
2
2
2
2
2
2
2.00006
1.99988
1.99625
1.99742
1.9985
1.99977
2
2
2
2
2
2
2
2
2
2
2
1.99999
1.99999
2
2
2
2.00001
1.92287
1.37912
1.40424
1.48589
1.64474
1.81204
1.92594
1.98235
1.99821
1.99983
1.99983
1.9999
1.99994
1.99994
1.99994
1.98466
1.94946
1.87719
1.67249
1.47591
1.2038
0.98829
0.81947
0.724032
0.061525
0.0515846
0.0818663
0.182939
0.359512
0.594917
0.857123
1.07849
1.20832
1.20736
1.15023
1.07667
0.973287
0.842275
0.745645
0.565699
0.415145
0.32158
0.239703
0.189843
0.11379
0.0630409
0.0843277
0.00388775
0.00374785
0.0066936
0.00802407
0.00372398
0.001202
0.00101275
0.00107003
0.00442166
0.0227219
0.0172163
0.012034
0.00917109
0.00945947
0.0144253
0.17477
0.226589
0.25275
0.270798
0.196536
0.0831546
0.168067
0.22669
1.85742
1.89294
1.89302
1.89951
1.90567
1.92275
1.93539
1.93452
1.92847
1.91841
1.91915
1.91916
1.91748
1.92871
1.93452
1.93442
1.93695
1.93976
1.94721
1.7415
1.73921
1.79429
1.84471
1.87741
1.91064
1.93545
1.93424
1.83902
1.76145
1.74374
1.7424
1.68041
1.56017
1.60848
1.7243
1.8425
1.94803
1.94786
0.590431
0.640478
0.78078
1.02764
1.34222
1.66582
1.74737
1.67807
1.61225
1.5671
1.51594
1.31685
0.814869
0.566398
0.667372
1.20552
1.49908
1.70536
1.85501
0.408694
0.408483
0.411489
0.42426
0.565865
0.784723
1.09599
1.30054
1.20839
1.08782
0.925403
0.616959
0.445012
0.457577
0.516991
0.993149
1.20112
1.4959
1.53092
0.469021
0.533285
0.553052
0.552446
0.571382
0.61079
0.677304
0.696376
0.502616
0.412482
0.42366
0.430882
0.437541
0.779059
0.851831
0.829132
0.520854
0.594457
1.43701
0.51784
0.376613
0.448086
0.366083
0.328229
0.430945
0.493409
0.495741
0.674527
0.774926
0.774869
0.75044
0.829649
0.841524
0.516697
0.421769
0.449904
0.439525
0.718932
0.395048
0.0164666
0.00348096
0.000729066
0.000812227
0.0244205
0.261074
0.339148
0.786666
0.691098
0.575042
0.723009
0.409525
0.312381
0.321757
0.405114
0.519084
0.46276
0.50872
0.072633
0.000779173
0.000765116
0.000748793
0.000797509
0.0346055
0.0278175
0.187473
0.650355
0.115485
0.120348
0.307549
0.269016
0.293468
0.424871
0.451119
0.360498
0.255737
0.431182
0.432373
0.0936352
0.0070624
0.00746252
0.00165624
0.00133042
0.00133259
0.00162346
0.00185522
0.00187839
0.0017861
0.00189695
0.0423142
0.282108
0.39746
0.389831
0.33896
0.10617
0.0180637
0.0438559
0.194428
0.403189
0.383451
1.29155
0.840687
0.0466036
0.00945504
0.00536365
0.00447406
0.00182896
0.00189796
0.00191412
0.00191397
0.0019126
0.0103152
0.202973
0.408925
0.406005
0.213746
0.0178982
0.0168519
0.0161805
0.0156418
0.0130094
0.0279453
0.0440495
1.14508
1.23583
0.932541
0.256753
0.0121749
0.0374929
0.0776127
0.0512426
0.0103249
0.0018952
0.00194299
0.00258728
0.0700805
0.178397
0.263687
0.227551
0.168562
0.220372
0.300932
0.339245
0.316992
0.30122
0.479163
1.09914
1.09928
1.4026
1.05002
0.578666
0.244965
0.196242
0.290865
0.290065
0.173349
0.0221239
0.0126595
0.0665566
0.222147
0.364783
0.465471
0.816568
1.0509
1.02164
0.993168
0.989485
0.992563
0.999118
1.19485
1.13704
1.44239
1.27158
1.01554
0.92487
0.816301
0.782939
0.728012
0.682279
0.638806
0.664588
0.837437
0.904264
0.951018
1.06852
1.13378
1.13432
1.04619
1.00285
1.00274
1.00245
1.00199
1.73849
1.70626
1.44624
1.20832
1.00779
1.00187
1.0025
1.01408
1.03294
1.04514
1.04278
1.18363
1.21304
1.20859
1.01821
1.00474
1.03796
1.13379
1.11419
1.01346
1.00385
1.00184
1.00114
1.80556
2.4635
1.38835
1.08288
1.0017
1.00174
1.00181
1.00185
1.00188
1.00968
1.01444
1.02282
1.10194
1.07589
1.00959
1.00471
1.00468
1.02796
1.11333
1.04413
1.00365
1.0024
1.14514
1.49501
2.52728
1.6677
1.00592
1.00171
1.03986
1.04113
1.03181
1.05991
1.06001
1.02258
1.00414
1.00445
1.00432
1.00444
1.00445
1.00442
1.00862
1.04395
1.13232
1.24045
1.64101
2.58168
1.43971
2.52681
2.49781
1.78193
1.01177
1.01588
1.04079
1.03502
1.0357
1.02538
1.00418
1.00365
1.00351
1.0059
1.10936
1.23636
1.40987
1.76014
2.10019
2.4634
2.82028
2.97798
2.97625
1.31771
2.53203
2.53277
1.64485
1.00053
1.00053
1.0026
1.00515
1.00268
1.00218
1.00703
1.03825
1.24679
1.91183
2.52766
2.78576
2.94298
2.99474
2.9962
2.99895
2.99903
2.99955
2.99988
1.17039
1.42496
1.8216
1.02765
1.00113
1.00182
1.0034
1.16412
1.7065
2.15813
2.44477
2.63339
2.90888
2.99804
2.99938
2.99983
2.99993
2.99995
2.99998
2.99999
3
3
2.9997
1.16493
1.03759
1.03422
1.02922
1.10059
1.82945
2.50396
2.91275
2.98342
2.99925
2.99999
3
3
2.99975
2.99942
2.99943
2.99994
3
3
3
2.99998
2.99944
2.99923
1.35039
1.47482
1.11187
1.42876
2.22359
2.88399
2.99896
2.99998
2.99998
2.99997
2.99996
2.99992
2.99992
2.99996
2.99995
2.99978
2.99972
2.99982
2.99999
2.99998
2.99978
2.99953
2.99943
1.13196
1.26152
1.43904
1.84695
2.78546
2.99587
2.99989
2.99991
2.99988
2.99991
2.99996
2.9999
2.99991
2.99996
2.99995
2.99995
2.99999
3
3
3
2.99998
2.99968
2.99955
1.0464
1.04617
1.04666
1.14894
2.35688
2.99377
2.99953
2.99989
2.99988
2.99997
2.99994
2.99982
2.99983
2.99983
3
3
3
3
3
3
3
2.99999
2.99998
1.04689
1.04486
1.22973
2.04853
2.76665
2.99905
2.99993
2.99989
2.99994
2.99999
2.99999
2.99999
2.99997
2.99995
2.99993
2.99999
3
3
3
3
3
3
3
1.04674
1.04589
2.42622
2.94873
2.99668
2.99965
2.99994
2.99993
3
3
3
3
3
3
3
3
3
3
3
3
3
3
3
1.11641
2.16823
2.9006
2.96685
2.99999
2.99994
2.99999
3
3
3
3
3
3
3
3
3
3
3
3
3
3
3
3
2.47902
2.93801
2.97739
2.99745
3
2.99999
3
3
3
3
3
3
3
3
3
3
3
3
3
3
3
3
3
2.95379
2.99995
2.99995
2.99956
3
3
3
3
3
3
3
3
3
3
3
3
3
3
3
3
3
3
3
2.99999
2.99992
2.99987
2.99958
3
3
3
3
3
3
3
3
3
3
3
3
3
3
3
3
3
3
3
2.99998
2.99966
3
2.99998
3
3
3
3
3
3
3
3
3
3
3
3
3
3
3
3
3
3
3
3
3
3
3
3
3
3
3
3
3
3
3
3
3
3
3
3
3
3
3
3
3
3
3
3
3
3
3
3
3
3
3
3
3
3
3
3
3
3
3
3
3
3
3
3
3
3
3
3
3
3
3
3
3
3
3
3
3
3
3
3
3
3
3
3
3
3
3
3
3
3
3
3
3
3
3
3
3
3
3
3
3
3
3
3
3
3
3
3
3
3
3
3
3
3
3
3
3
3
3
3
3
3
3
3
3
3
3
3
3
3
3
3
3
3
2.99999
3
3
3
3
3
3
3
3
3
3
3
3
3
3
3
3
3
3
3
3
3
3
2.99999
3
3
3
3
3
3
3
3
3
3
3
3
3
3
3
3
3
3
3
3
3
3
2.99999
3
3
3
3
3
3
3
3
3
3
3
3
3
3
3
3
3
3
3
3
3
3
2.99999
2.99895
2.99958
2.99998
2.99999
2.99998
2.99999
3
3
3
3
3
3
3
3
3
3
3
3
3
3
3
3
2.98977
2.96804
2.96797
2.99355
3
2.99998
2.99999
3
3
3
3
3
3
3
3
3
3
3
3
3
3
3
3
2.94478
2.91817
2.92215
2.97525
3
3
3
3
3
3
3
3
3
3
3
3
3
3
3
3
3
3
3
2.91715
2.91856
2.95029
2.98988
3
3
3
3
3
3
3
3
3
3
3
3
3
3
3
3
3
3
3
2.94829
2.98161
2.99999
2.99896
3
3
3
3
3
3
3
3
3
3
3
3
3
3
3
3
3
3
3
3
3
3
3
3
3
3
3
3
3
3
3
3
3
3
3
3
3
3
3
3
3
3
3
3
3
3
3
3
3
3
3
3
3
3
3
3
3
3
3
3
3
3
3
3
3
3
3
3
3
3
3
3
3
3
3
3
3
3
3
3
3
3
3
3
3
3
3
3
3
3
3
3
3
3
3
3
3
3
3
3
3
3
3
3
3
3
3
3
3
3
3
3
3
3
3
3
3
3
3
3
3
3
3
3
3
3
3
3
3
3
3
3
3
3
3
3
3
3
3
3
2.99999
2.99999
3
3
3
3
3
3
3
3
3
3
3
3
3
3
3
2.99999
3
3
3
3
2.99999
2.99999
3
3
3
3
3
3
3
3
3
3
3
3
3
3
3
3
0.11103
0.00277149
0.00367077
0.00688243
0.040767
0.0662345
0.179181
0.27437
0.753476
0.858348
0.959983
1.0169
1.00053
1.0022
1.00393
1.00817
1.00038
0.999778
1.01515
1.02915
0.994112
1.08576
1.41948
1.92867
1.58299
2.29117
2.77212
2.88502
2.94936
2.94805
2.95891
2.97893
2.98382
2.99257
2.99751
2.99937
2.99995
2.99989
2.99988
2.99992
2.99923
2.99923
2.99981
2.99997
2.99922
2.99922
2.99925
2.99992
2.99947
2.99975
2.99981
2.99985
2.99954
2.99956
2.9996
2.99993
2.99999
3
3
3
3
3
3
3
3
3
3
3
3
3
3
3
3
3
3
3
3
3
3
3
3
3
3
3
3
3
3
3
3
3
3
3
3
3
3
3
3
3
3
3
3
3
3
3
3
3
3
3
3
3
3
3
3
3
3
3
3
3
3
3
3
3
3
3
3
3
3
3
3
3
3
3
3
3
3
3
3
3
3
3
3
3
3
3
3
3
3
3
3
3
3
3
3
3
3
3
3
3
3
3
3
3
3
3
3
3
3
3
0.0180237
0.0396616
0.00666386
0.000757411
0.0215462
0.277523
0.121754
0.349785
0.105961
0.0900565
0.0829969
0.303365
0.505196
0.648634
0.657959
0.307124
0.1556
0.147456
0.17763
0.322243
0.335095
0.165865
0.0469199
0.113366
0.715608
0.869034
0.757159
0.328295
0.10169
0.0859512
0.183567
0.701454
0.989936
0.731572
0.292285
0.336529
0.23066
0.170492
1.01741
0.971113
0.745302
0.430927
0.241761
0.681858
1.02795
0.909755
0.903608
0.3935
0.316022
0.318251
0.552543
1.03475
1.0339
0.644964
0.844168
0.747296
0.577971
1.00867
1.08205
1.17406
1.11505
0.914923
0.708483
0.766848
0.738616
0.72006
0.925705
1.44246
1.33536
0.871235
0.725432
0.886862
0.805534
0.874722
1.3193
1.44644
1.02519
1.01695
1.03855
1.06085
1.04019
1.13515
1.44742
1.41226
1.64313
2.13112
2.01224
1.8123
1.50902
1.15156
0.883997
0.813323
0.921904
1.33813
1.89328
1.91416
1.05398
1.01582
1.01583
1.02461
1.30072
2.03531
2.53198
2.91239
2.99457
2.84858
2.61615
2.60211
2.56512
2.27523
2.08343
1.98189
1.83501
2.28455
2.88843
2.02922
1.61833
1.9222
2.46647
2.86338
2.99722
2.99938
2.99986
2.9998
2.99961
2.9996
2.99975
2.99978
2.99743
2.94164
2.9046
2.95895
2.96888
2.98366
2.99168
2.99827
2.99849
2.99892
2.99968
2.99989
2.99981
2.9995
2.99951
2.99962
2.99964
2.99985
2.99988
2.99988
2.99988
2.99995
2.99998
3
2.99994
2.99992
2.99904
2.99874
2.99988
2.99995
2.99989
2.99944
2.99931
2.99966
2.99991
2.99997
2.99998
2.99994
2.9999
2.99984
2.99989
2.99999
3
2.9999
2.99987
2.99981
2.99967
2.99989
2.99959
2.99909
2.99909
2.99912
2.9992
2.99948
2.99999
2.99999
2.99949
2.99945
2.99976
2.99996
3
3
2.99997
2.99998
2.99998
2.99991
2.99923
2.99907
2.99907
2.99906
2.99912
2.99953
2.9996
2.99984
2.99952
2.99932
2.99932
2.99953
2.99997
3
3
2.99997
2.99997
2.99997
2.99991
2.9997
2.99974
2.99971
2.99971
2.99989
3
3
2.99956
2.99955
2.99957
2.9993
2.9996
2.99998
3
3
2.99988
2.99988
2.99988
2.99987
2.99997
3
3
3
3
3
3
3
3
2.99999
2.99982
2.99977
2.99999
3
3
2.99998
2.99996
2.99993
2.99996
3
3
3
3
3
3
3
3
3
2.99998
2.99994
2.99993
3
3
3
3
3
3
3
3
3
3
3
3
3
3
3
3
2.99999
2.99996
2.99999
3
3
2.99999
3
3
3
3
3
3
3
3
3
3
3
3
3
3
3
3
3
2.99999
2.99999
3
3
3
3
3
3
3
3
3
3
3
3
3
3
3
3
3
2.99999
2.99999
3
3
3
3
3
3
3
3
3
3
3
3
3
3
3
3
3
3
2.99999
3
3
3
3
3
3
3
3
3
3
3
3
3
3
3
3
3
3
2.99999
3
3
3
3
3
3
3
3
3
3
3
3
3
3
3
3
3
3
3
3
3
3
3
3
3
3
3
3
3
3
3
3
3
3
3
3
2.99999
3
3
3
3
3
3
3
3
3
3
3
3
3
3
3
3
3
3
2.99998
2.99999
3
3
3
3
3
3
3
3
3
3
3
3
3
3
3
3
3
2.99998
2.99998
3
3
3
3
3
3
3
3
3
3
3
3
3
3
3
3
3
2.99998
2.99999
3
3
3
3
3
3
3
3
3
3
3
3
3
3
3
3
3
3
3
3
3
3
3
3
3
3
3
3
3
3
3
3
3
3
3
3
3
3
3
3
3
3
3
3
3
3
3
3
3
3
3
3
3
3
3
3
3
3
3
3
3
3
3
3
3
3
3
3
3
3
3
3
3
3
3
3
3
3
3
3
3
3
3
3
3
3
3
3
3
3
3
3
3
3
3
3
3
3
3
3
3
3
3
3
3
3
3
3
3
3
3
3
3
3
3
3
3
3
3
3
3
3
3
3
3
3
3
3
3
3
3
3
3
3
3
3
3
3
3
3
3
3
3
3
3
3
3
3
3
3
3
3
3
3
3
3
3
3
3
3
3
3
3
3
3
3
3
3
3
3
3
3
3
3
3
3
3
3
3
3
3
3
3
3
3
3
3
3
3
3
3
3
3
3
3
3
3
3
3
3
3
3
3
3
3
3
3
3
3
3
3
3
3
3
3
3
3
3
3
3
3
3
3
3
3
3
3
3
3
3
3
3
3
3
3
3
3
3
3
3
3
3
3
3
3
3
3
3
3
3
3
3
3
3
3
3
3
3
3
3
3
3
3
3
3
3
3
3
3
3
3
3
3
3
3
3
3
3
3
3
3
3
3
3
3
3
3
3
3
3
3
3
3
3
3
3
3
3
3
3
3
3
3
3
3
3
3
3
3
3
3
3
3
3
3
3
3
3
3
3
3
3
3
3
3
3
3
3
3
3
3
3
3
3
3
3
3
3
3
3
3
3
)
;

boundaryField
{
    leftWall
    {
        type            calculated;
        value           nonuniform List<scalar> 
50
(
2
2
2
1.99997
1.99988
1.37912
0.061525
0.00388775
0.432373
1.29155
1.14508
1.09914
1.19485
1.73849
1.80556
1.49501
1.43971
1.31771
1.17039
1.16493
1.35039
1.13196
1.0464
1.04689
1.04674
1.11641
2.47902
2.95379
2.99999
2.99998
3
3
3
3
3
2.99999
2.99999
2.99999
2.99999
2.98977
2.94478
2.91715
2.94829
3
3
3
3
3
3
2.99999
)
;
    }
    rightWall
    {
        type            calculated;
        value           nonuniform List<scalar> 
50
(
1.94721
1.94786
1.85501
1.53092
1.43701
0.718932
0.50872
0.431182
0.17763
0.170492
0.577971
1.44644
1.89328
2.28455
2.96888
3
3
3
3
3
3
3
2.99999
2.99999
2.99999
2.99999
2.99999
3
3
2.99999
2.99998
2.99999
3
3
3
3
3
3
3
3
3
3
3
3
3
3
3
3
3
3
)
;
    }
    lowerWall
    {
        type            calculated;
        value           nonuniform List<scalar> 
62
(
2
2
2
2
2
2
2
2
2
2
2
2
2
2
2
2
2
2
2
2
2
1.99994
1.99994
1.99994
1.99996
2
2.00006
1.92287
0.724032
0.0843277
0.22669
0.11103
0.00277149
0.00367077
0.00688243
1.85742
1.7415
0.590431
0.408694
0.469021
0.51784
0.395048
0.072633
1.85742
1.89294
1.89302
1.89951
1.90567
1.92275
1.93539
1.93452
1.92847
1.91841
1.91915
1.91916
1.91748
1.92871
1.93452
1.93442
1.93695
1.93976
1.94721
)
;
    }
    atmosphere
    {
        type            calculated;
        value           nonuniform List<scalar> 
46
(
2.99999
3
3
3
3
2.99999
2.99999
3
3
3
3
3
3
3
3
3
3
3
3
3
3
3
3
3
3
3
3
3
3
3
3
3
3
3
3
3
3
3
3
3
3
3
3
3
3
3
)
;
    }
    defaultFaces
    {
        type            empty;
    }
}


// ************************************************************************* //
