/*--------------------------------*- C++ -*----------------------------------*\
| =========                 |                                                 |
| \\      /  F ield         | OpenFOAM: The Open Source CFD Toolbox           |
|  \\    /   O peration     | Version:  2312                                  |
|   \\  /    A nd           | Website:  www.openfoam.com                      |
|    \\/     M anipulation  |                                                 |
\*---------------------------------------------------------------------------*/
FoamFile
{
    version     2.0;
    format      ascii;
    arch        "LSB;label=32;scalar=64";
    class       volScalarField;
    location    "2.35";
    object      p_rgh;
}
// * * * * * * * * * * * * * * * * * * * * * * * * * * * * * * * * * * * * * //

dimensions      [1 -1 -2 0 0 0 0];

internalField   nonuniform List<scalar> 
2268
(
5636.17
5658.51
5704.8
5769.89
5843.92
5916.06
5978.07
6024.73
6053.2
6062.78
6055.32
6034.02
6000.84
5956.38
5899.72
5828.81
5742.16
5641.1
5532.04
5424.92
5332.71
5264.88
5228.59
5625.86
5648.78
5698.07
5765.35
5841.76
5916.05
5979.84
6027.79
6056.91
6066.41
6058.33
6036.59
6003.14
5958.66
5902.26
5831.47
5744.39
5641.83
5530.63
5420.95
5326.72
5257.57
5220.12
5611.47
5634.32
5685.7
5756.49
5837.62
5916.32
5983.75
6034.28
6064.68
6073.88
6064.57
6041.84
6007.65
5962.9
5906.88
5836.27
5748.41
5642.84
5527.44
5412.65
5314.49
5243.08
5203.46
5591.79
5613.01
5666.18
5742.42
5831.15
5917.1
5990.45
6045.02
6077.2
6085.55
6073.73
6049.47
6013.93
5968.65
5913.43
5843.41
5754.88
5644.74
5523.12
5400.18
5295.91
5221.5
5176.79
5564.06
5571.39
5629.86
5718.15
5822.54
5919.1
6000.6
6060.76
6095.08
6101.5
6085.55
6059.27
6021.41
5975.07
5921.46
5852.69
5764.37
5647.65
5517.82
5382.81
5269.53
5191.67
5024.82
4375.33
4428.14
4640.28
5040.83
5469.92
5788.94
5984.91
6080.84
6120.36
6123.26
6100.51
6071.73
6029.81
5980.53
5901.03
5769.04
5549.88
5046.06
4545.23
3894.32
3344.74
2958.29
2779.58
1445.92
1431.8
1527.85
1791.03
2247.54
2852.01
3516.31
4076.57
4400.19
4395.14
4242.65
4042.81
3765.9
3421.04
3164.13
2711.04
2319.69
2050.71
1675.8
1412.7
1216.47
1210.67
1357.18
1306.62
1320.06
1332.66
1336.2
1330.94
1323.89
1314.92
1306.13
1305.77
1348.5
1323.75
1298.93
1280.73
1272.74
1262.55
1475.79
1523.42
1417.29
1259.92
1182.24
1199.86
1160.61
1140.22
2504.86
2532.51
2612.5
2734.51
2884.17
3034.82
3127.13
3164.88
3120.71
3003.77
2867.35
2749.17
2638.45
2575.7
2591.05
2688.35
2889.25
3175.19
3470.28
2436.47
2429.98
2536.59
2686.77
2861.57
3045.07
3141.14
3182.8
3093.2
2905.51
2728.95
2608.31
2479.12
2369.62
2392.36
2520.39
2804.54
3192.04
3515.2
1466.6
1504.25
1652.35
1932.76
2292.46
2696.43
2918.11
2847.52
2700.23
2546.34
2393.93
2154.13
1826.99
1624
1653.96
1821.48
2139.75
2734.83
3410.83
1170.89
1223.71
1245.61
1286.27
1419.41
1655.68
1956.48
2273.8
2162.05
1966.3
1730.6
1410.4
1438.24
1419.98
1333.42
1313.25
1615.51
2236.03
2771.98
1022.71
1028.4
1101.34
1155.8
1131.72
1273.65
1415.21
1401.29
1343.01
1231.36
1272.23
1356.45
1357.17
1383.16
1184.94
1095.79
1124.58
1344.1
2701.35
1015.47
1029.64
1006.95
1015.94
1010.58
955.036
1017.39
1151.13
1145.93
1148.08
1128.39
1204.65
1193.16
1205.77
1119.85
1083.66
1084.27
1092.62
1374.36
1036.49
1086.99
1077.68
1060.85
1040.07
1011
965.46
1126.32
1192.65
1005.24
949.012
929.166
996.449
1067.49
1101.94
1104.22
1084.67
980.774
938
1096.39
1088.22
1075.93
1058.3
1035.17
1003.36
1005.1
1122.86
1153.01
1034.3
1036.86
1007.9
1025.92
1048.49
1092.85
1081.73
1008.3
1003.9
959.534
1205.97
1291.77
1332.42
1336.42
1337.7
1333.36
1323.92
1311.1
1299.44
1288.55
1279.92
1269.24
1257.18
1234.62
1215.06
1208.49
1160
1190.71
1207.19
1186.21
1140.03
1071.92
1058.64
966.113
1101.55
1336.22
1344.62
1340.99
1339.92
1334.29
1324.37
1313.12
1302.01
1291.48
1279.33
1232.81
1169.26
1155.5
1189.24
1238.38
1218.91
1204.15
1186.83
1171.66
1154.57
1132.28
965.939
930.961
1011.39
1262.41
1360.34
1348.02
1328.26
1323.85
1322.28
1313.54
1303.49
1293.63
1257.81
1213.89
1186.58
1190.9
1234.5
1198.38
1146.49
1088.15
1054.27
1047.13
962.441
939.215
917.801
843.387
945.165
1130.5
1278.76
1307.47
1268.92
1254.93
1277.01
1310.75
1302.2
1268.23
1200.96
1143.94
1089.79
951.481
862.868
846.028
838.047
789.047
751.52
740.591
883.399
873.984
806.991
853.324
916.472
955.285
1009.87
1034.71
1056.6
1068.49
1077.61
1053.79
943.437
870.316
836.159
785.897
758.373
759.06
784.641
781.713
769.833
755.414
746.826
714.409
689.712
795.573
869.035
922.327
913.769
900.316
880.052
855.859
836.857
825.493
774.719
754.65
748.306
797.494
796.712
782.091
746.775
741.186
758.61
751.361
745.732
737.564
684.786
450.763
813.984
915.653
936.399
923.761
908.575
893.534
876.981
859.22
844.792
832.083
796.596
794.015
804.448
797.468
789.791
773.624
737.644
750.127
751.745
741.656
827.884
803.783
424.249
726.168
959.425
951.719
923.964
908.022
895.951
872.489
858.303
857.521
850.859
837.306
823.123
808.879
797.683
788.433
777.661
755.252
724.568
707.387
661.591
480.146
881.818
418.694
422.931
689.973
969.263
947.821
921.313
907.502
891.52
880.512
874.378
859.519
844.388
826.775
771.846
713.039
643.976
513.505
378.76
291.376
204.189
141.718
149.255
998.663
412.189
407.861
759.363
993.992
969.352
947.959
928.556
912.304
896.987
880.76
855.723
758.901
472.978
208.843
95.2361
33.8628
21.2963
20.3443
8.7867
7.56822
4.13728
0.414154
1135.24
893.283
712.541
1048.96
1026.13
1008.46
1064.31
1122.78
867.919
637.555
365.581
203.462
55.4791
3.01712
1.6893
0.629047
0.362143
0.345084
0.293272
0.240914
0.19359
0.20577
0.485936
1210.23
1112.43
1088.43
1065.7
1042.51
706.493
364.041
132.316
37.2207
3.87092
0.499769
0.452203
0.377235
0.444406
0.561482
0.677655
0.445116
0.34278
0.280746
0.260726
0.240063
0.609171
0.781122
1157.82
1080.15
1100.1
888.942
446.689
117.846
25.1278
1.48339
0.861916
0.611592
0.495338
0.443889
0.392959
0.333151
0.314579
0.417374
0.512131
0.575486
0.501542
0.482851
0.375654
0.513027
0.623131
1187.5
1191.13
1133.14
884.677
342.815
108.528
1.74927
1.32244
0.885468
0.557563
0.474977
0.433627
0.387191
0.332837
0.313666
0.292985
0.255334
0.241779
0.238182
0.232262
0.23945
0.399878
0.478812
1200.21
1193.15
1194.18
1201.41
496.889
57.579
1.03454
0.769927
0.577458
0.450436
0.417362
0.43262
0.395016
0.375611
0.267092
0.253665
0.244878
0.237278
0.231038
0.225893
0.22203
0.223753
0.230385
1230.82
1222.91
1102.42
587.614
142.585
2.51624
2.02819
0.691
0.377832
0.344014
0.324594
0.299839
0.288508
0.285135
0.28758
0.240894
0.230144
0.225347
0.220392
0.217233
0.214806
0.212799
0.212867
1260.37
1289.59
418.136
52.9623
2.27355
3.01237
0.953972
0.122953
0.190862
0.236068
0.246645
0.240975
0.234204
0.228767
0.224307
0.219819
0.21633
0.213142
0.21033
0.208157
0.206914
0.206447
0.207423
1284.69
606.781
118.936
42.1679
-1.042
0.128214
-0.266794
-0.0871631
0.0823325
0.153531
0.183717
0.194943
0.199645
0.201352
0.201737
0.201496
0.200968
0.200021
0.199082
0.198541
0.198489
0.199105
0.200621
410.593
73.185
30.2138
3.96479
-0.839396
-0.625858
-0.349628
-0.107624
0.0266193
0.0986274
0.13742
0.158513
0.17059
0.17766
0.181866
0.184502
0.186097
0.187127
0.187885
0.18864
0.189595
0.190945
0.192821
57.9882
-0.566851
-0.788455
0.45786
-0.685812
-0.489414
-0.27397
-0.101709
0.001872
0.0651825
0.104659
0.129801
0.146024
0.156639
0.163738
0.168634
0.172095
0.174654
0.176662
0.178452
0.180209
0.182105
0.18427
-0.418813
-0.373645
-0.275935
0.427932
-0.490571
-0.344918
-0.199063
-0.0824603
-0.00548763
0.0466833
0.0830745
0.108508
0.126266
0.138733
0.147613
0.154072
0.158882
0.16258
0.165552
0.168109
0.170461
0.172784
0.175205
-0.181283
0.133303
-0.298376
-0.31359
-0.292378
-0.213098
-0.12632
-0.055782
-0.00178366
0.0392422
0.0704611
0.0937859
0.111146
0.124026
0.13365
0.14094
0.146568
0.151022
0.154667
0.157767
0.160555
0.163216
0.165844
0.0252626
-0.061573
-0.116197
-0.147083
-0.142784
-0.110945
-0.0675103
-0.0271696
0.00870619
0.0393159
0.0643612
0.0841769
0.0999371
0.112178
0.121714
0.129213
0.135188
0.140038
0.144077
0.147566
0.150686
0.153589
0.156371
0.173837
0.0956471
0.0314386
-0.0187162
-0.0423795
-0.0397923
-0.0225179
-0.000914925
0.0219575
0.0434356
0.0623825
0.0785829
0.0917663
0.102605
0.11147
0.118724
0.1247
0.129689
0.133934
0.137639
0.140961
0.144024
0.146907
0.24956
0.19312
0.129472
0.0643903
0.0216754
0.00872757
0.0115074
0.021636
0.0347781
0.04875
0.0622177
0.0745188
0.0852984
0.0945968
0.102534
0.109281
0.115027
0.119957
0.124243
0.128033
0.131451
0.134592
0.137526
0.296317
0.254412
0.189245
0.115325
0.0643681
0.0433071
0.0380671
0.0400806
0.0459322
0.0538711
0.0626783
0.0715426
0.0799508
0.0876518
0.0945518
0.100657
0.106032
0.110773
0.11498
0.118754
0.122184
0.125342
0.128278
0.337593
0.301889
0.236269
0.150671
0.0948739
0.0688758
0.0583381
0.0543086
0.0546158
0.0578025
0.062786
0.0687364
0.0750341
0.0812575
0.0871532
0.0925962
0.0975505
0.102034
0.106093
0.109785
0.113167
0.116291
0.119194
0.390641
0.354357
0.290306
0.187021
0.118132
0.0859963
0.0719778
0.0639749
0.0603037
0.059873
0.0618357
0.0654356
0.0699978
0.0749836
0.0800157
0.0848663
0.0894204
0.0936374
0.09752
0.101093
0.104391
0.107447
0.110286
0.462281
0.425313
0.358464
0.244775
0.145044
0.0983481
0.0800907
0.0690036
0.0628152
0.0596832
0.0593249
0.061143
0.0644142
0.0684881
0.0728791
0.0772762
0.0815067
0.0854902
0.0892016
0.0926447
0.0958386
0.0988039
0.10156
0.543977
0.541754
0.477391
0.325093
0.172414
0.110677
0.0853899
0.0716626
0.0623637
0.0568993
0.0548115
0.0554562
0.0579605
0.061525
0.0655604
0.0696918
0.0737126
0.077525
0.0810926
0.0844116
0.0874946
0.0903576
0.0930136
0.638074
1.73322
0.997654
0.390347
0.192393
0.141954
0.10344
0.0704
0.0573793
0.0508373
0.0477582
0.0480525
0.0504499
0.0539758
0.0579764
0.0620511
0.065991
0.0697058
0.0731669
0.076376
0.0793483
0.0821001
0.0846466
11.8228
54.1185
55.0706
11.2598
0.0473199
0.0832705
0.0695785
0.051371
0.0431682
0.0385955
0.0375392
0.0388439
0.0419314
0.0458975
0.0501679
0.0543755
0.0583494
0.062032
0.0654199
0.0685322
0.0713945
0.0740302
0.0764569
100.19
151.138
146.108
39.9378
-0.0979083
-0.0307468
0.00657171
0.0179233
0.020915
0.0223367
0.0250098
0.0284062
0.0327809
0.0375446
0.0422989
0.0467656
0.0508457
0.0545346
0.0578665
0.0608859
0.0636344
0.0661444
0.0684407
157.379
156.904
88.1517
15.3341
-0.202864
-0.108184
-0.0476836
-0.0176016
-0.0036235
0.00451275
0.0113085
0.0178235
0.0236416
0.0293255
0.0346253
0.0393781
0.0435739
0.0472679
0.0505358
0.0534506
0.0560729
0.0584447
0.0605961
99.7092
33.8634
-0.694977
1.16285
-0.302117
-0.16634
-0.0851648
-0.0463816
-0.0245169
-0.0107261
0.00091112
0.00911964
0.0152762
0.0217049
0.0274342
0.03239
0.0366374
0.0402901
0.0434591
0.0462436
0.0487182
0.0509318
0.0529205
-0.470731
-0.508682
-0.540192
-0.437137
-0.288628
-0.174455
-0.102137
-0.0631344
-0.0384237
-0.0212967
-0.00800001
0.00152982
0.00819874
0.0150333
0.0209736
0.0259555
0.0301253
0.0336474
0.0366632
0.039281
0.0415758
0.0436071
0.0454118
-0.329706
-0.343778
-0.333001
-0.293342
-0.217739
-0.151365
-0.100979
-0.0678125
-0.0446211
-0.0265109
-0.013625
-0.0044721
0.00274342
0.00966539
0.0154507
0.020203
0.0241209
0.0273938
0.0301717
0.0325629
0.0346435
0.0364678
0.038063
-0.219169
-0.221187
-0.215797
-0.193087
-0.155487
-0.120667
-0.0884688
-0.0631002
-0.0433123
-0.0275281
-0.0159686
-0.00806037
-0.000793916
0.00566512
0.0109247
0.015185
0.0186669
0.0215612
0.0240087
0.0261068
0.0279233
0.029509
0.0308648
-0.148281
-0.1518
-0.144113
-0.131747
-0.112146
-0.092401
-0.0718313
-0.053569
-0.0369341
-0.0249793
-0.0160041
-0.00922577
-0.00256056
0.00292816
0.00733284
0.0108698
0.0137516
0.0161476
0.0181747
0.0199112
0.02141
0.0227097
0.0238236
-0.0946324
-0.0959055
-0.0937921
-0.0885405
-0.0788834
-0.0672336
-0.0507588
-0.0340882
-0.0279461
-0.0209811
-0.0141165
-0.00811021
-0.00297034
0.00118847
0.00449959
0.00714755
0.00930907
0.0111141
0.0126467
0.0139614
0.0150945
0.0160726
0.0169111
-0.0513021
-0.0549971
-0.0546084
-0.0527887
-0.0490988
-0.0433592
-0.0263832
-0.0171402
-0.0185748
-0.0139906
-0.00944082
-0.00557808
-0.00237793
0.000206862
0.00225468
0.00389283
0.0052448
0.00639065
0.00737453
0.00822194
0.0089495
0.00957358
0.0101031
-0.0118324
-0.0157036
-0.0179555
-0.0182912
-0.0170173
-0.00929444
-0.00653165
-0.00927706
-0.00791696
-0.00527549
-0.00347461
-0.00210322
-0.00104184
-0.000244127
0.000364175
0.000876411
0.00135025
0.00179801
0.00221061
0.00257544
0.00288431
0.00313788
0.00333938
1108.49
1129.46
1121.71
1115.45
1123.38
1128.25
1112.01
1100.3
883.815
886.05
857.821
842.742
745.115
750.88
770.891
817.652
739.646
752.391
937.492
978.289
733.154
944.933
894.941
737.776
878.627
643.433
484.513
442.986
362.689
385.444
418.565
407.478
123.181
85.181
49.9084
12.0958
0.383805
0.404449
0.364506
0.34256
0.774629
0.752272
0.382063
0.317577
0.782085
0.769976
0.759419
0.339867
0.609052
0.423041
0.387908
0.403029
0.486409
0.495063
0.525283
0.380418
0.22373
0.223295
0.226683
0.230923
0.21508
0.217213
0.219842
0.222728
0.209428
0.211079
0.213033
0.215189
0.2025
0.203929
0.205553
0.207333
0.194661
0.195979
0.197433
0.198998
0.186129
0.187407
0.188773
0.190213
0.177116
0.178389
0.179715
0.181086
0.167813
0.169104
0.170414
0.171745
0.158392
0.15969
0.160992
0.162296
0.148956
0.150257
0.151544
0.152822
0.139578
0.14087
0.142141
0.143389
0.130314
0.131589
0.132832
0.13405
0.121192
0.122439
0.123652
0.124833
0.112235
0.113447
0.11462
0.11576
0.103444
0.104612
0.105744
0.106838
0.0948249
0.0959465
0.0970283
0.0980727
0.0863757
0.0874437
0.088474
0.0894643
0.0780977
0.0791088
0.0800798
0.0810116
0.0699838
0.0709315
0.0718407
0.0727092
0.0620323
0.062912
0.0637519
0.0645524
0.0542381
0.0550419
0.0558078
0.056535
0.0465979
0.0473192
0.0480032
0.0486512
0.0391044
0.039735
0.0403309
0.0408942
0.0317513
0.0322849
0.0327857
0.0332579
0.0245384
0.0249653
0.0253619
0.0257373
0.0174493
0.0177728
0.0180428
0.0183332
0.0104388
0.0106355
0.0108147
0.0109843
0.00345987
0.00353014
0.00359365
0.00365083
1108.22
1096.36
1075.44
1053.81
1023.41
946.481
977.257
1033.03
1160.3
1101.02
1072.7
1113.98
1075.81
1074.3
1076.39
990.574
1030.45
1063.71
1057.75
1088.62
1070.14
1057.93
1042.99
1005.65
813.643
767.963
895.011
992.306
992.262
1088.76
1089.39
1028.61
983.755
1026.82
971.429
1014.12
1125.71
1117.56
837.889
838.667
871.154
925.683
977.056
832.059
703.624
771.719
692.662
868.794
883.119
889.436
845.525
806.222
716.911
822.631
897.846
951.509
1033.88
803.937
766.293
674.211
637.851
719.056
840.664
820.034
778.799
786.868
742.238
556.831
551.498
737.484
789.551
696.154
719.046
772.806
769.642
739.99
928.724
796.764
681.371
633.502
626.102
632.886
701.455
703.11
613.311
427.834
415.986
422.627
483.751
617.007
716.583
725.869
690.111
625.803
606.895
730.494
734.174
654.005
642.889
626.641
563.578
452.826
317.944
159.713
76.7974
110.398
150.365
142.982
177.526
307.709
368.247
373.384
410.625
464.024
423.226
451.24
471.375
372.627
251.916
119.139
49.0503
11.8209
3.06039
2.62058
0.937268
0.91638
1.47486
3.03789
2.57282
22.0376
37.9707
77.5938
109.404
325.728
166.163
35.5871
14.8845
5.08805
0.823434
0.714744
0.699979
0.835601
1.05321
0.859775
0.82608
0.668297
0.5807
0.440833
0.3064
0.268687
0.224805
0.240363
1.16517
0.920774
9.42271
8.70421
0.623836
0.553586
0.593742
1.09836
1.21991
1.02539
0.7541
0.628457
0.553988
0.544754
0.472162
0.385879
0.304343
0.243062
0.259263
0.624059
0.432161
0.40614
0.518693
0.469011
0.664067
1.01779
1.04416
1.28258
1.26748
1.15916
0.551515
0.519985
1.05115
0.909372
0.439502
0.299483
0.284885
0.291993
0.357119
0.362926
0.368301
0.427685
0.843602
0.90023
0.830213
0.83263
0.813776
0.820055
0.914306
0.716439
0.990953
1.20869
1.15628
0.676895
0.278738
0.279745
0.287585
0.314198
0.345397
0.439927
0.478079
0.603673
0.530886
0.510559
0.499104
0.414882
0.357093
0.360831
0.926561
0.995724
0.992956
1.16376
0.658933
0.256299
0.262931
0.271841
0.416572
0.427941
0.433246
0.416633
0.320855
0.302568
0.310808
0.31951
0.324589
0.329186
0.328911
0.316815
0.29676
0.278105
0.690081
0.482942
0.243294
0.247857
0.258774
0.365058
0.371153
0.352027
0.299777
0.279634
0.287013
0.294177
0.299867
0.304461
0.306837
0.304558
0.295159
0.277117
0.265413
0.265229
0.325345
0.231771
0.239357
0.250006
0.237089
0.242936
0.249948
0.258067
0.265738
0.27263
0.27857
0.283231
0.286512
0.287871
0.285597
0.277986
0.263933
0.253908
0.263843
0.251173
0.230934
0.237539
0.246721
0.22761
0.233574
0.239822
0.246858
0.253226
0.259009
0.263972
0.267815
0.270563
0.271534
0.269829
0.263835
0.253823
0.242103
0.23474
0.232803
0.231513
0.237409
0.243084
0.218997
0.224383
0.229936
0.235754
0.241192
0.246103
0.250293
0.253537
0.256075
0.256868
0.25556
0.251149
0.244951
0.237663
0.231965
0.230826
0.230073
0.234261
0.23869
0.21049
0.215191
0.220048
0.224955
0.229607
0.233816
0.237406
0.240199
0.242395
0.243319
0.242185
0.239598
0.2359
0.231771
0.228296
0.226545
0.225984
0.228155
0.233013
0.201754
0.205885
0.210137
0.214365
0.218381
0.222026
0.225149
0.227656
0.229309
0.230258
0.229737
0.228439
0.226325
0.2239
0.221888
0.220422
0.219492
0.219165
0.221768
0.192719
0.196425
0.200196
0.203907
0.207426
0.210633
0.213401
0.215597
0.217129
0.217951
0.218055
0.217501
0.216413
0.215098
0.213774
0.212603
0.211716
0.211005
0.210772
0.183437
0.186832
0.190237
0.193553
0.196681
0.199549
0.202005
0.203994
0.205456
0.206371
0.206764
0.206693
0.206253
0.205578
0.204708
0.203799
0.2053
0.21096
0.202182
0.173991
0.177157
0.180286
0.1833
0.186128
0.1887
0.190932
0.192769
0.19418
0.195165
0.195752
0.195995
0.195954
0.195676
0.195139
0.194471
0.197032
0.206579
0.200767
0.164464
0.167459
0.170372
0.173149
0.175741
0.178091
0.180146
0.181866
0.183235
0.18426
0.184971
0.185408
0.185609
0.185583
0.185286
0.184781
0.186499
0.197654
0.197319
0.154927
0.157786
0.160529
0.16312
0.165523
0.167701
0.169615
0.17124
0.172568
0.17361
0.174391
0.174939
0.175279
0.175422
0.175293
0.174945
0.175234
0.188089
0.179644
0.145438
0.148182
0.150785
0.153223
0.155474
0.15751
0.159308
0.160852
0.162139
0.16318
0.163993
0.164598
0.165006
0.165214
0.165249
0.165061
0.164922
0.165242
0.1646
0.136039
0.138678
0.141158
0.143466
0.145587
0.147504
0.149203
0.150674
0.151919
0.152945
0.153766
0.154396
0.154845
0.155122
0.155245
0.155187
0.155106
0.154891
0.15491
0.126758
0.129295
0.131662
0.133851
0.135856
0.137668
0.139277
0.140681
0.141881
0.142884
0.1437
0.144337
0.144805
0.145124
0.145353
0.14538
0.14539
0.145361
0.145361
0.117614
0.120046
0.122303
0.12438
0.126277
0.127989
0.129515
0.130853
0.132007
0.132981
0.133783
0.134417
0.134894
0.135248
0.135644
0.135831
0.135743
0.135809
0.135935
0.108615
0.110938
0.113083
0.115049
0.116841
0.118457
0.119901
0.121174
0.12228
0.123222
0.124005
0.124633
0.125114
0.125483
0.12601
0.126513
0.126325
0.126297
0.126747
0.0997654
0.101973
0.104002
0.105856
0.107541
0.109063
0.110425
0.111631
0.112687
0.113595
0.114357
0.114975
0.115458
0.11583
0.116229
0.116959
0.117193
0.117051
0.117311
0.0910662
0.0931497
0.0950575
0.0967947
0.0983721
0.0997969
0.101076
0.102215
0.103219
0.10409
0.104828
0.105435
0.105918
0.106297
0.106632
0.107265
0.10776
0.10789
0.107865
0.0825149
0.0844655
0.0862446
0.0878605
0.0893268
0.0906531
0.091848
0.0929179
0.0938668
0.0946963
0.0954066
0.0959991
0.0964796
0.0968651
0.0971862
0.0975427
0.0983451
0.0984956
0.0980512
0.074107
0.075915
0.0775581
0.0790477
0.0803996
0.0816251
0.0827335
0.0837309
0.084621
0.0854049
0.0860824
0.0866549
0.087127
0.0875129
0.0878344
0.0881407
0.0886904
0.0891118
0.0885432
0.0658371
0.0674927
0.0689925
0.0703508
0.0715851
0.072707
0.0737256
0.0746464
0.0754723
0.0762043
0.0768424
0.0773879
0.0778443
0.0782227
0.0785371
0.0788009
0.0790509
0.0794279
0.0792092
0.057699
0.0591923
0.0605419
0.0617645
0.0628775
0.0638921
0.0648162
0.0656546
0.0664096
0.0670822
0.0676731
0.0681836
0.0686162
0.0689787
0.0692794
0.069527
0.0697336
0.0698451
0.0699066
0.0496863
0.051008
0.0522011
0.0532832
0.0542703
0.0551723
0.0559956
0.0567442
0.0574203
0.0580252
0.0585603
0.059027
0.0594272
0.0597658
0.060047
0.060279
0.0604666
0.0605617
0.060611
0.0417923
0.0429339
0.0439642
0.0449002
0.0457553
0.0465373
0.0472518
0.0479021
0.0484907
0.0490194
0.0494901
0.0499043
0.0502633
0.0505696
0.050825
0.0510351
0.0512004
0.0512898
0.0513353
0.0340106
0.0349637
0.0358242
0.0366066
0.0373212
0.0379742
0.0385709
0.0391144
0.0396074
0.040052
0.0404503
0.0408037
0.0411131
0.0413792
0.041602
0.0417842
0.041924
0.0420082
0.0420452
0.0263318
0.0270889
0.027771
0.0283907
0.0289557
0.0294699
0.0299409
0.0303706
0.0307613
0.0311154
0.0314347
0.0317204
0.0319728
0.0321915
0.0323752
0.0325239
0.0326353
0.0326991
0.0327198
0.0187379
0.0192979
0.0197937
0.0202421
0.0206489
0.0210193
0.0213582
0.0216686
0.0219525
0.0222115
0.022447
0.0226597
0.0228492
0.0230143
0.0231529
0.0232632
0.0233427
0.0233821
0.0233376
0.0112458
0.0115806
0.011878
0.0121458
0.0123876
0.012608
0.0128106
0.0129981
0.0131724
0.0133343
0.0134843
0.013622
0.0137467
0.0138563
0.0139486
0.0140214
0.0140771
0.0141252
0.0142231
0.0037351
0.00383287
0.00391293
0.0039819
0.00404398
0.00410292
0.0041612
0.0042204
0.0042814
0.0043445
0.00440933
0.00447464
0.00453884
0.00459925
0.00465266
0.00469529
0.00472647
0.00474537
0.00476479
)
;

boundaryField
{
    leftWall
    {
        type            fixedFluxPressure;
        gradient        uniform 0;
        value           nonuniform List<scalar> 
50
(
5636.17
5625.86
5611.47
5591.79
5564.06
4375.33
1445.92
1306.62
1205.97
966.113
965.939
939.215
883.399
714.409
684.786
803.783
881.818
998.663
1135.24
1210.23
1157.82
1187.5
1200.21
1230.82
1260.37
1284.69
410.593
57.9882
-0.418813
-0.181283
0.0252626
0.173837
0.24956
0.296317
0.337593
0.390641
0.462281
0.543977
0.638074
11.8228
100.19
157.379
99.7092
-0.470731
-0.329706
-0.219169
-0.148281
-0.0946324
-0.0513021
-0.0118324
)
;
    }
    rightWall
    {
        type            fixedFluxPressure;
        gradient        uniform 0;
        value           nonuniform List<scalar> 
50
(
3470.28
3515.2
3410.83
2771.98
2701.35
1374.36
938
959.534
1057.75
1117.56
1033.88
739.99
606.895
464.024
109.404
0.240363
0.259263
0.291993
0.287585
0.271841
0.258774
0.250006
0.246721
0.243084
0.23869
0.233013
0.221768
0.210772
0.202182
0.200767
0.197319
0.179644
0.1646
0.15491
0.145361
0.135935
0.126747
0.117311
0.107865
0.0980512
0.0885432
0.0792092
0.0699066
0.060611
0.0513353
0.0420452
0.0327198
0.0233376
0.0142231
0.00476479
)
;
    }
    lowerWall
    {
        type            fixedFluxPressure;
        gradient        uniform 0;
        value           nonuniform List<scalar> 
62
(
5636.17
5658.51
5704.8
5769.89
5843.92
5916.06
5978.07
6024.73
6053.2
6062.78
6055.32
6034.02
6000.84
5956.38
5899.72
5828.81
5742.16
5641.1
5532.04
5424.92
5332.71
5264.88
5228.59
5228.59
5220.12
5203.46
5176.79
5024.82
2779.58
1357.18
1140.22
1108.49
1129.46
1121.71
1115.45
2504.86
2436.47
1466.6
1170.89
1022.71
1015.47
1036.49
1096.39
2504.86
2532.51
2612.5
2734.51
2884.17
3034.82
3127.13
3164.88
3120.71
3003.77
2867.35
2749.17
2638.45
2575.7
2591.05
2688.35
2889.25
3175.19
3470.28
)
;
    }
    atmosphere
    {
        type            totalPressure;
        rho             rho;
        psi             none;
        gamma           1;
        p0              uniform 0;
        value           nonuniform List<scalar> 
46
(
0
0
0
0
0
0
0
0
-6.53722e-05
-0.000382536
-0.000613936
-0.000717532
-0.000755235
-0.000786935
-0.000809743
-0.000783707
-0.000691687
-0.00055173
-0.000394703
-0.000249399
-0.000135528
-6.31875e-05
-3.02653e-05
-2.36752e-05
-2.72614e-05
-3.55302e-05
-4.79229e-05
-7.60506e-05
-0.000120701
-0.00017105
-0.000217549
-0.000256962
-0.00028725
-0.000307265
-0.000316311
-0.000314121
-0.000300919
-0.000277306
-0.000244649
-0.000204739
-0.000160227
-0.000114728
-7.33462e-05
-3.92583e-05
-1.7738e-05
-7.79611e-07
)
;
    }
    defaultFaces
    {
        type            empty;
    }
}


// ************************************************************************* //
