/*--------------------------------*- C++ -*----------------------------------*\
| =========                 |                                                 |
| \\      /  F ield         | OpenFOAM: The Open Source CFD Toolbox           |
|  \\    /   O peration     | Version:  2312                                  |
|   \\  /    A nd           | Website:  www.openfoam.com                      |
|    \\/     M anipulation  |                                                 |
\*---------------------------------------------------------------------------*/
FoamFile
{
    version     2.0;
    format      ascii;
    arch        "LSB;label=32;scalar=64";
    class       volVectorField;
    location    "2.35";
    object      U;
}
// * * * * * * * * * * * * * * * * * * * * * * * * * * * * * * * * * * * * * //

dimensions      [0 1 -1 0 0 0 0];

internalField   nonuniform List<vector> 
2268
(
(0.0220425 -0.0124589 0)
(0.0386558 -0.00574078 0)
(0.0537054 -0.00421316 0)
(0.0691467 -0.0037768 0)
(0.0852957 -0.0035867 0)
(0.101189 -0.00329192 0)
(0.115416 -0.00280327 0)
(0.126854 -0.00218156 0)
(0.13502 -0.00145912 0)
(0.139768 -0.000572543 0)
(0.140776 0.000443412 0)
(0.137704 0.00145048 0)
(0.130619 0.00231334 0)
(0.120089 0.00301029 0)
(0.106905 0.00353015 0)
(0.0916779 0.00391525 0)
(0.0752784 0.00410567 0)
(0.0584245 0.00398236 0)
(0.0425869 0.00358226 0)
(0.0287986 0.00286752 0)
(0.0182395 0.00202381 0)
(0.00815982 0.00176401 0)
(-0.000313833 0.000833284 0)
(0.00742994 -0.0186628 0)
(0.0248181 -0.0103902 0)
(0.0398977 -0.0106912 0)
(0.057605 -0.0116572 0)
(0.0763195 -0.0120453 0)
(0.0944712 -0.0113051 0)
(0.110383 -0.00956403 0)
(0.122921 -0.00726806 0)
(0.131797 -0.00483893 0)
(0.137044 -0.00229268 0)
(0.138399 0.000463489 0)
(0.135543 0.0033357 0)
(0.128586 0.00605952 0)
(0.118107 0.00840658 0)
(0.104891 0.0101812 0)
(0.0895337 0.0113859 0)
(0.0729935 0.0118283 0)
(0.0559985 0.0115198 0)
(0.0400451 0.0103454 0)
(0.0261248 0.00912176 0)
(0.01569 0.00783867 0)
(0.00594985 0.00754202 0)
(-0.00231242 0.00262423 0)
(0.00131376 -0.0241773 0)
(0.0150193 -0.0178617 0)
(0.0289482 -0.0190971 0)
(0.0477726 -0.0207393 0)
(0.0680964 -0.0212157 0)
(0.0879279 -0.0196337 0)
(0.105214 -0.0164135 0)
(0.118726 -0.0124247 0)
(0.128365 -0.00829966 0)
(0.134423 -0.00364437 0)
(0.136657 0.00143208 0)
(0.134533 0.00633012 0)
(0.127989 0.0106356 0)
(0.117594 0.0141442 0)
(0.104222 0.0166963 0)
(0.0885504 0.0185282 0)
(0.071762 0.0191942 0)
(0.0547103 0.0187544 0)
(0.0392053 0.0168945 0)
(0.0260179 0.0143114 0)
(0.016511 0.0113308 0)
(0.0067777 0.0102315 0)
(0.000461924 0.00311545 0)
(-0.00201614 -0.0257084 0)
(0.00771644 -0.0227063 0)
(0.0203627 -0.0268392 0)
(0.0397399 -0.0303059 0)
(0.0612753 -0.0313765 0)
(0.0829485 -0.0290132 0)
(0.101921 -0.0241265 0)
(0.116659 -0.0181196 0)
(0.127505 -0.012315 0)
(0.134795 -0.00632159 0)
(0.13775 0.000227391 0)
(0.135778 0.00723274 0)
(0.129064 0.0140854 0)
(0.118322 0.0200753 0)
(0.10465 0.0244468 0)
(0.0888438 0.0275885 0)
(0.0721625 0.0285707 0)
(0.0557524 0.027719 0)
(0.0411394 0.0246057 0)
(0.0285633 0.0211248 0)
(0.0196692 0.0175921 0)
(0.00990018 0.0166162 0)
(0.0050921 0.00508678 0)
(-0.0053169 -0.0273228 0)
(0.00149078 -0.028626 0)
(0.0130908 -0.0361007 0)
(0.032521 -0.0413316 0)
(0.0540936 -0.0431445 0)
(0.077452 -0.0400496 0)
(0.0990204 -0.0333208 0)
(0.115726 -0.0253772 0)
(0.127472 -0.0178536 0)
(0.135649 -0.00875268 0)
(0.139518 0.00118131 0)
(0.137721 0.0105404 0)
(0.130099 0.0190627 0)
(0.117484 0.0261533 0)
(0.102029 0.0305947 0)
(0.085303 0.0336922 0)
(0.0686709 0.0335168 0)
(0.0533469 0.0319126 0)
(0.0415636 0.0274961 0)
(0.0326473 0.0229823 0)
(0.0230554 0.0176609 0)
(0.00564843 0.0138805 0)
(0.00634478 0.0104323 0)
(-0.00891863 -0.033658 0)
(-0.00396531 -0.0387756 0)
(0.00818198 -0.046857 0)
(0.0282665 -0.0511997 0)
(0.0470461 -0.052578 0)
(0.0681073 -0.0496066 0)
(0.0896148 -0.0417371 0)
(0.107693 -0.030774 0)
(0.118186 -0.0211156 0)
(0.122378 -0.0114618 0)
(0.122858 -0.000265651 0)
(0.120317 0.0116454 0)
(0.11367 0.0225582 0)
(0.102482 0.0315615 0)
(0.0894504 0.0368443 0)
(0.0751685 0.0414388 0)
(0.0584684 0.0415276 0)
(0.0440428 0.0379799 0)
(0.0339205 0.030959 0)
(0.0268565 0.0260319 0)
(0.024713 0.0254723 0)
(0.0233087 0.0217801 0)
(0.0224102 0.00640852 0)
(-0.0214344 -0.0154105 0)
(-0.0288991 -0.0302962 0)
(-0.0113861 -0.047962 0)
(0.0180734 -0.0567803 0)
(0.0374531 -0.0582699 0)
(0.0560261 -0.0542806 0)
(0.0718083 -0.0441456 0)
(0.0901409 -0.0312382 0)
(0.103289 -0.0198636 0)
(0.103251 -0.0074488 0)
(0.0939587 0.00501757 0)
(0.0902992 0.0165299 0)
(0.0877024 0.0277772 0)
(0.0812758 0.0384264 0)
(0.0684245 0.0445955 0)
(0.0618842 0.0496492 0)
(0.0512472 0.0499528 0)
(0.0424565 0.0432309 0)
(0.0492939 0.0387474 0)
(0.057152 0.0344165 0)
(0.0728183 0.0302874 0)
(0.0742689 0.0309765 0)
(0.047984 0.0409575 0)
(-0.0200833 0.00333888 0)
(-0.034195 -0.0312638 0)
(-0.0295721 -0.0639124 0)
(-0.00605672 -0.073095 0)
(-0.00550688 -0.0783946 0)
(0.012293 -0.0791542 0)
(-0.00407783 -0.0648884 0)
(-0.0496782 -0.0451814 0)
(-0.0718977 -0.0283869 0)
(-0.0845657 -0.00958709 0)
(-0.0830885 0.00244588 0)
(-0.0745259 0.0122 0)
(-0.0597611 0.0259536 0)
(-0.0454596 0.0416462 0)
(-0.0531239 0.0506086 0)
(-0.0295192 0.0474581 0)
(-0.0135911 0.0536764 0)
(-0.0157928 0.0428386 0)
(-0.01329 0.031568 0)
(-0.000855571 0.0229814 0)
(0.00521386 0.00996418 0)
(0.027694 0.0349213 0)
(-0.0367189 0.047312 0)
(-0.0347068 0.0120143 0)
(-0.00400736 -0.00401786 0)
(-0.01468 0.00233381 0)
(-0.0165252 0.00269731 0)
(-0.0321575 0.0074531 0)
(-0.0560556 0.01056 0)
(-0.0896961 -0.000158413 0)
(-0.0735112 -0.013672 0)
(-0.0324947 -0.013373 0)
(-0.00707538 -0.00204032 0)
(-0.00211407 0.00286523 0)
(0.00284102 -0.000610355 0)
(0.00764803 -0.00575441 0)
(0.024774 -0.00934259 0)
(0.0348317 -0.00566418 0)
(0.0342774 -0.00246106 0)
(0.0252827 0.00116869 0)
(0.0118363 0.00188487 0)
(0.00605811 0.0033151 0)
(0.0193776 0.00141012 0)
(0.0375649 -0.00419782 0)
(0.0366528 0.00148683 0)
(0.0379539 0.00506149 0)
(0.0331762 0.0127883 0)
(0.0261293 0.0139266 0)
(0.0191096 0.00575087 0)
(0.0349847 -0.0096285 0)
(0.0487296 -0.0179816 0)
(0.069351 -0.0107591 0)
(0.100017 -0.00600556 0)
(0.119297 -0.00462401 0)
(0.121192 -0.00432737 0)
(0.115356 -0.004585 0)
(0.097087 -0.00187292 0)
(0.0786898 0.00425336 0)
(0.0550779 0.0122198 0)
(0.0301864 0.00908613 0)
(0.0182574 0.00312942 0)
(0.0241542 -0.0155799 0)
(0.0280195 -0.00519677 0)
(0.031777 0.0012791 0)
(0.0302118 0.00150991 0)
(0.0348088 0.0108687 0)
(0.0487584 0.0124112 0)
(0.0579807 0.00125302 0)
(0.0837622 -0.0251214 0)
(0.127783 -0.0321841 0)
(0.166478 -0.0239682 0)
(0.1971 -0.0180849 0)
(0.213049 -0.0100875 0)
(0.221465 -0.00381458 0)
(0.221686 0.00563388 0)
(0.18845 0.013636 0)
(0.143633 0.0123294 0)
(0.112777 0.0241509 0)
(0.0768488 0.0216803 0)
(0.0568217 0.0184332 0)
(-0.00356892 -0.021613 0)
(0.0290648 -0.00671584 0)
(0.0592945 -0.00113383 0)
(0.0708433 0.0110503 0)
(0.0322768 0.0141339 0)
(0.03393 0.00608268 0)
(0.0551897 -0.00919387 0)
(0.0969561 -0.0423395 0)
(0.135402 -0.0463166 0)
(0.173283 -0.0365122 0)
(0.204043 -0.0285038 0)
(0.232434 -0.00505328 0)
(0.242163 -0.0101424 0)
(0.269804 0.00405262 0)
(0.276117 0.0367946 0)
(0.211658 0.0384695 0)
(0.146492 0.0353743 0)
(0.0927273 0.0414575 0)
(0.0682273 0.0413719 0)
(-0.00370252 -0.0268514 0)
(0.0497845 -0.0237371 0)
(0.0759875 -0.0210551 0)
(0.128402 0.00387811 0)
(0.153344 0.0305431 0)
(0.129455 -0.000480285 0)
(0.0936139 -0.024101 0)
(0.073411 -0.0651509 0)
(0.0644541 -0.0745249 0)
(0.0943125 -0.0528317 0)
(0.117059 -0.0438605 0)
(0.162132 -0.0204075 0)
(0.188969 -0.0230747 0)
(0.201111 -0.0161582 0)
(0.23347 0.0357574 0)
(0.202527 0.0732528 0)
(0.0971931 0.0715317 0)
(0.0536506 0.0754809 0)
(0.0739065 0.0751493 0)
(-0.0141851 -0.0399853 0)
(0.0391136 -0.0447826 0)
(0.0740462 -0.0322712 0)
(0.121272 -0.0265384 0)
(0.20738 0.015748 0)
(0.252063 0.0359181 0)
(0.172285 0.0261832 0)
(0.0368834 -0.0426139 0)
(-0.00600183 -0.0754867 0)
(0.0243319 -0.0571107 0)
(0.0568276 -0.057675 0)
(0.0962682 -0.0421984 0)
(0.110301 -0.031902 0)
(0.0658573 -0.0200038 0)
(0.0408454 0.0594635 0)
(0.0511944 0.0951383 0)
(0.0483607 0.0715897 0)
(0.0462116 0.0888787 0)
(0.0851984 0.083563 0)
(-0.0308832 -0.0395044 0)
(-0.00870632 -0.0569617 0)
(0.0179579 -0.0487818 0)
(0.0650394 -0.0555891 0)
(0.137352 -0.0330313 0)
(0.202526 0.0266919 0)
(0.173126 0.0714718 0)
(0.0466864 0.0105758 0)
(-0.0614922 -0.0679929 0)
(-0.0705702 -0.0589762 0)
(-0.0589578 -0.0622025 0)
(-0.062545 -0.0296563 0)
(-0.10056 0.00087365 0)
(-0.108353 0.00833528 0)
(-0.0706727 0.0424837 0)
(-0.0345737 0.0758833 0)
(-0.0196382 0.0671045 0)
(-0.026657 0.0744089 0)
(0.0894617 0.112911 0)
(-0.0487243 -0.0171532 0)
(-0.02962 -0.0625032 0)
(-0.0121488 -0.0687771 0)
(0.0323838 -0.0826453 0)
(0.0866214 -0.0681911 0)
(0.141306 0.0218241 0)
(0.138046 0.106072 0)
(-0.0323338 0.054616 0)
(-0.15805 -0.0368039 0)
(-0.170529 -0.051682 0)
(-0.142091 -0.0674146 0)
(-0.0998868 -0.0396832 0)
(-0.0587474 -0.0137849 0)
(-0.0388013 -0.0180214 0)
(-0.0727446 0.028559 0)
(-0.102696 0.0758491 0)
(-0.11436 0.0663972 0)
(-0.102943 0.0440325 0)
(0.0720274 0.121545 0)
(0.00263234 0.00490234 0)
(-0.0315282 -0.0447944 0)
(-0.0678993 -0.0737248 0)
(-0.0860329 -0.0637229 0)
(-0.138034 -0.0418583 0)
(-0.180888 -0.0226983 0)
(-0.219085 -0.00788764 0)
(-0.2434 -0.00507423 0)
(-0.254092 -0.00695893 0)
(-0.251761 -0.00661048 0)
(-0.237685 -0.0059661 0)
(-0.215643 -0.00306195 0)
(-0.192358 0.00787575 0)
(-0.176312 0.028264 0)
(-0.167147 0.0412236 0)
(-0.156683 0.0316716 0)
(-0.136614 0.0333193 0)
(-0.108894 0.028783 0)
(-0.0920332 0.0117979 0)
(-0.0776926 0.0120227 0)
(-0.0785144 0.0158801 0)
(-0.0768778 0.0487497 0)
(-0.0781902 0.0548784 0)
(0.0981899 0.0434049 0)
(0.0560724 0.0733637 0)
(-0.10089 -1.81413e-05 0)
(-0.155652 -0.0157875 0)
(-0.18168 -0.0201276 0)
(-0.204035 -0.0144888 0)
(-0.230218 -0.00888917 0)
(-0.254604 -0.00879527 0)
(-0.271505 -0.0130505 0)
(-0.277528 -0.0196517 0)
(-0.272923 -0.02454 0)
(-0.260907 -0.0227354 0)
(-0.245071 -0.00770213 0)
(-0.22417 0.0222054 0)
(-0.201615 0.0354178 0)
(-0.174825 0.0215333 0)
(-0.143825 0.00194389 0)
(-0.116945 0.00631899 0)
(-0.11275 0.00974633 0)
(-0.123772 0.0169923 0)
(-0.135563 0.0235434 0)
(-0.129809 0.0329272 0)
(-0.108187 0.0368039 0)
(0.103899 -0.180059 0)
(0.22267 0.124125 0)
(0.134364 0.156783 0)
(-0.0142285 0.0237561 0)
(-0.108813 0.0166125 0)
(-0.14553 0.0254292 0)
(-0.181413 0.0328472 0)
(-0.21727 0.0285907 0)
(-0.249904 0.0114062 0)
(-0.273546 -0.0096403 0)
(-0.283462 -0.0277855 0)
(-0.279249 -0.0355447 0)
(-0.262419 -0.0293464 0)
(-0.228017 -0.0135402 0)
(-0.177493 -0.00911834 0)
(-0.121725 -0.0219773 0)
(-0.0811106 -0.0297389 0)
(-0.0726718 0.000886744 0)
(-0.0836599 0.0208691 0)
(-0.0929717 0.0244199 0)
(-0.094665 0.0247042 0)
(-0.094443 0.0106867 0)
(-0.0830215 0.00631139 0)
(0.0329245 -0.353226 0)
(0.223088 0.0717844 0)
(0.215286 0.236017 0)
(0.13016 0.175704 0)
(0.0272206 0.0978497 0)
(-0.046128 0.063573 0)
(-0.0856951 0.0694382 0)
(-0.118731 0.0677961 0)
(-0.148511 0.0466522 0)
(-0.174455 0.0157104 0)
(-0.195271 -0.0206512 0)
(-0.20373 -0.0477389 0)
(-0.197789 -0.0586377 0)
(-0.173017 -0.0644911 0)
(-0.128172 -0.0753537 0)
(-0.0800042 -0.0844877 0)
(-0.0436624 -0.0592492 0)
(-0.0235461 0.00624352 0)
(-0.0202891 0.0386321 0)
(-0.0072679 0.0242565 0)
(0.0127874 0.0288187 0)
(0.0233065 0.0239157 0)
(0.0141393 0.00577176 0)
(-0.0153365 -0.476944 0)
(0.158156 0.0385114 0)
(0.150661 0.246275 0)
(0.142048 0.225885 0)
(0.116365 0.162938 0)
(0.0855082 0.115723 0)
(0.0512337 0.0951601 0)
(0.0254479 0.0920128 0)
(0.00890622 0.0684739 0)
(-0.00157228 0.0363858 0)
(-0.00553271 1.41543e-05 0)
(-0.0154091 -0.0282137 0)
(-0.029715 -0.0501587 0)
(-0.0337651 -0.0783742 0)
(-0.0167992 -0.109462 0)
(0.00187143 -0.116752 0)
(0.00615476 -0.0733866 0)
(0.00663913 -0.00438442 0)
(0.0176774 0.0132724 0)
(0.0459729 -0.0117612 0)
(0.0604488 -0.0010573 0)
(0.0731236 0.0102647 0)
(0.0838822 0.00312041 0)
(-0.0603383 -0.557781 0)
(0.100274 0.00813687 0)
(-0.00308154 0.222154 0)
(0.0838197 0.204036 0)
(0.117869 0.161216 0)
(0.137838 0.135687 0)
(0.142269 0.116331 0)
(0.145998 0.101739 0)
(0.153274 0.074132 0)
(0.160287 0.0344148 0)
(0.169728 -0.00943387 0)
(0.175274 -0.0331135 0)
(0.169524 -0.0391881 0)
(0.163789 -0.061353 0)
(0.154888 -0.0966123 0)
(0.141024 -0.105348 0)
(0.129536 -0.0770528 0)
(0.126562 -0.0204429 0)
(0.131578 0.00132599 0)
(0.136847 -0.017116 0)
(0.136623 -0.00970594 0)
(0.140837 -0.0024474 0)
(0.16565 -0.0236799 0)
(-0.124702 -0.598798 0)
(0.0730538 0.166168 0)
(-0.0954955 0.204899 0)
(0.0132107 0.132455 0)
(0.0836779 0.112008 0)
(0.13179 0.114688 0)
(0.155568 0.106199 0)
(0.174151 0.0903559 0)
(0.18941 0.0661783 0)
(0.199582 0.0281855 0)
(0.207547 -0.013033 0)
(0.213223 -0.0285608 0)
(0.220367 -0.0359786 0)
(0.225624 -0.059825 0)
(0.22198 -0.0853618 0)
(0.208749 -0.0874373 0)
(0.196217 -0.0661697 0)
(0.2008 -0.0234834 0)
(0.212337 0.00653222 0)
(0.213386 -0.00383051 0)
(0.209042 -0.00698722 0)
(0.211042 -0.00707766 0)
(0.207996 -0.035008 0)
(-0.170175 -0.578856 0)
(0.0605769 0.160771 0)
(-0.0889251 0.194025 0)
(-0.0379701 0.0649453 0)
(0.0303937 0.0343076 0)
(0.0979945 0.0723082 0)
(0.125793 0.0794723 0)
(0.148415 0.0685985 0)
(0.166642 0.0508127 0)
(0.17773 0.0163698 0)
(0.183149 -0.0210085 0)
(0.189708 -0.037696 0)
(0.200651 -0.0492574 0)
(0.212387 -0.0700178 0)
(0.216172 -0.0792693 0)
(0.208363 -0.0740619 0)
(0.195965 -0.0631884 0)
(0.196534 -0.0404831 0)
(0.214229 -0.0119513 0)
(0.225693 -0.00712157 0)
(0.220773 -0.00844292 0)
(0.21804 -0.0145909 0)
(0.22002 -0.0276456 0)
(-0.187328 -0.513872 0)
(0.0176686 0.112538 0)
(-0.0120182 0.238727 0)
(0.00592016 -0.02798 0)
(0.00273621 -0.034492 0)
(0.0408883 0.0345795 0)
(0.0590187 0.0560993 0)
(0.0796715 0.0473993 0)
(0.100726 0.0348847 0)
(0.113904 0.00613168 0)
(0.118205 -0.0244343 0)
(0.122945 -0.0437012 0)
(0.134499 -0.0687926 0)
(0.152946 -0.0894905 0)
(0.170877 -0.0824239 0)
(0.170835 -0.066949 0)
(0.155435 -0.0571308 0)
(0.147965 -0.0500037 0)
(0.178333 -0.0279979 0)
(0.231969 -0.0147438 0)
(0.265701 0.0029379 0)
(0.24717 -0.0140982 0)
(0.215062 0.00987733 0)
(-0.18911 -0.398765 0)
(-0.0761475 -0.0504972 0)
(0.065484 0.225788 0)
(0.0254482 0.0116145 0)
(-0.0199962 -0.00572517 0)
(-0.03238 0.0326716 0)
(-0.0343761 0.0407923 0)
(-0.0186524 0.012842 0)
(0.00547382 0.0102524 0)
(0.0183232 -0.009262 0)
(0.0175445 -0.021294 0)
(0.0134542 -0.0392974 0)
(0.0268837 -0.0742631 0)
(0.079486 -0.102323 0)
(0.159517 -0.0815392 0)
(0.240517 -0.0539131 0)
(0.292998 -0.0511906 0)
(0.27573 -0.0645 0)
(0.25266 -0.0826615 0)
(0.315876 -0.085063 0)
(0.344321 -0.0137219 0)
(0.34155 0.0374713 0)
(0.20741 0.0733576 0)
(-0.181151 -0.24613 0)
(-0.172135 -0.0385468 0)
(-0.0831338 0.102559 0)
(-0.0697702 0.0490104 0)
(-0.0976411 0.0383553 0)
(-0.137688 0.0594211 0)
(-0.173303 0.0455953 0)
(-0.186916 0.0134347 0)
(-0.149072 0.00955446 0)
(-0.100795 -0.00351069 0)
(-0.0350273 -0.0114693 0)
(0.0547617 -0.0407895 0)
(0.203588 -0.120195 0)
(0.323623 -0.183084 0)
(0.274145 -0.194231 0)
(0.180186 -0.152497 0)
(0.0761965 -0.0350787 0)
(0.00393925 0.0286213 0)
(-0.10522 -0.126454 0)
(-0.165908 -0.0408183 0)
(-0.237891 -0.0161722 0)
(-0.187759 0.14817 0)
(-0.155795 0.200391 0)
(-0.132431 -0.105248 0)
(-0.13735 -0.0476117 0)
(-0.109547 0.04225 0)
(-0.0859852 0.0560238 0)
(-0.114887 0.0781696 0)
(-0.120974 0.0846821 0)
(-0.112063 0.0619568 0)
(-0.0476032 -0.0357188 0)
(0.0868239 -0.0695559 0)
(0.213949 -0.137292 0)
(0.221908 -0.122615 0)
(-0.0872511 -0.233729 0)
(-0.24546 -0.330248 0)
(-0.359346 -0.102424 0)
(-0.414127 -0.0275881 0)
(-0.437472 0.0403888 0)
(-0.416554 0.0649415 0)
(-0.360548 0.0447156 0)
(-0.356575 0.0108839 0)
(-0.367098 0.00352522 0)
(-0.373282 0.0334418 0)
(-0.345169 0.0975581 0)
(-0.299735 0.119223 0)
(-0.0565189 -0.0227299 0)
(-0.00929733 -0.032378 0)
(0.00676736 0.0343243 0)
(0.0799704 0.0680287 0)
(0.169818 0.0906353 0)
(0.328977 0.10443 0)
(0.385273 0.0235753 0)
(0.480631 -0.108314 0)
(0.201777 -0.216678 0)
(-0.0157069 -0.0119956 0)
(-0.0770184 0.215637 0)
(-0.167028 0.16178 0)
(-0.24343 0.0235102 0)
(-0.281637 -0.0339549 0)
(-0.301878 -0.0744399 0)
(-0.315653 -0.08093 0)
(-0.31373 -0.0614817 0)
(-0.304413 -0.0458718 0)
(-0.30404 -0.0438175 0)
(-0.314331 -0.023806 0)
(-0.320418 0.0165572 0)
(-0.308993 0.0604831 0)
(-0.277451 0.0849241 0)
(-0.0119461 -0.0352954 0)
(0.151107 -0.102733 0)
(0.270022 -0.134262 0)
(0.439264 -0.191801 0)
(0.66081 -0.211164 0)
(0.837414 -0.175605 0)
(1.35851 0.0919713 0)
(0.961537 0.123256 0)
(0.133528 0.206381 0)
(0.109177 0.11112 0)
(-0.024137 0.0993532 0)
(-0.0173669 0.0178045 0)
(-0.0328424 -0.0462949 0)
(-0.0834826 -0.0257518 0)
(-0.127892 -0.00178973 0)
(-0.160855 0.00997626 0)
(-0.184442 0.0132692 0)
(-0.19969 0.00351779 0)
(-0.212376 -0.00482483 0)
(-0.224111 0.00268075 0)
(-0.226364 0.0233757 0)
(-0.215787 0.037077 0)
(-0.1916 0.0347031 0)
(0.0242408 -0.136812 0)
(0.188089 -0.2717 0)
(0.29989 -0.300294 0)
(0.398242 -0.34441 0)
(0.511009 -0.363391 0)
(0.681099 -0.323439 0)
(0.732196 0.260836 0)
(0.235027 0.50524 0)
(0.242313 0.475612 0)
(0.14582 0.268568 0)
(0.0824096 0.185117 0)
(0.0732363 0.108005 0)
(0.0403376 0.0497285 0)
(0.00449963 0.0182756 0)
(-0.0205051 0.0170276 0)
(-0.0481219 0.0064909 0)
(-0.0696329 -0.00054673 0)
(-0.0870712 -0.00311495 0)
(-0.102416 -0.00440316 0)
(-0.111596 0.000824679 0)
(-0.110269 0.0129985 0)
(-0.101168 0.0192884 0)
(-0.0855404 0.0105978 0)
(0.0511134 -0.270712 0)
(0.202209 -0.403421 0)
(0.294876 -0.418047 0)
(0.379769 -0.43669 0)
(0.510194 -0.459299 0)
(0.786423 -0.0800546 0)
(0.391429 0.407565 0)
(0.0757545 0.635554 0)
(0.141794 0.505316 0)
(0.0933416 0.314636 0)
(0.0908875 0.191485 0)
(0.0876526 0.10594 0)
(0.0720503 0.0534796 0)
(0.0505292 0.0367738 0)
(0.0352847 0.0427301 0)
(0.024987 0.0493681 0)
(0.0105782 0.0382087 0)
(-0.00585338 0.02466 0)
(-0.0208831 0.0143528 0)
(-0.0322007 0.0104172 0)
(-0.0359715 0.0105304 0)
(-0.0318588 0.00871147 0)
(-0.0236355 0.000281776 0)
(0.0559265 -0.429938 0)
(0.210584 -0.5123 0)
(0.275682 -0.544007 0)
(0.385729 -0.637586 0)
(0.323266 -0.80443 0)
(-0.116583 0.283004 0)
(-0.15285 0.54735 0)
(-0.100668 0.704228 0)
(-0.0480629 0.48099 0)
(0.0148851 0.298022 0)
(0.0448437 0.183846 0)
(0.0575564 0.114114 0)
(0.0560953 0.0724721 0)
(0.0474252 0.0515713 0)
(0.0390603 0.0460584 0)
(0.0360459 0.0463498 0)
(0.034347 0.0407855 0)
(0.0295499 0.0336665 0)
(0.0225789 0.0260137 0)
(0.0157256 0.0190613 0)
(0.0115605 0.013089 0)
(0.0114704 0.0064144 0)
(0.0132433 -0.00256136 0)
(0.01455 -0.537418 0)
(0.175977 -0.593064 0)
(0.232677 -0.623662 0)
(0.242422 -0.601174 0)
(-0.0307901 -0.083805 0)
(-0.339616 0.364358 0)
(-0.337062 0.594823 0)
(-0.272753 0.580069 0)
(-0.154454 0.392837 0)
(-0.0574155 0.243801 0)
(-0.00874294 0.155359 0)
(0.0149861 0.102887 0)
(0.0237214 0.0718946 0)
(0.0251812 0.055432 0)
(0.0250237 0.0490475 0)
(0.0264306 0.0462195 0)
(0.0285548 0.041522 0)
(0.0292624 0.0354413 0)
(0.0284984 0.0286356 0)
(0.0273009 0.0215647 0)
(0.0266505 0.0141223 0)
(0.0269789 0.00612872 0)
(0.0272164 -0.00265313 0)
(-0.000582647 -0.583017 0)
(0.165836 -0.669435 0)
(0.204641 -0.596415 0)
(0.142946 -0.469242 0)
(-0.334217 0.255511 0)
(-0.434751 0.436182 0)
(-0.404609 0.496972 0)
(-0.313846 0.425866 0)
(-0.188641 0.279854 0)
(-0.101891 0.177179 0)
(-0.0531932 0.11926 0)
(-0.0263469 0.0856822 0)
(-0.0127047 0.0650041 0)
(-0.00561134 0.0528685 0)
(-0.00055207 0.0463892 0)
(0.00471941 0.0426632 0)
(0.00984618 0.0386103 0)
(0.0141515 0.0334471 0)
(0.0175888 0.0273096 0)
(0.0203616 0.0204094 0)
(0.0227301 0.0129462 0)
(0.0247684 0.00502929 0)
(0.0257958 -0.00310984 0)
(0.00517856 -0.722773 0)
(0.168226 -0.805255 0)
(0.0640594 -0.667759 0)
(-0.241116 -0.0717303 0)
(-0.529836 0.426714 0)
(-0.457403 0.447568 0)
(-0.415257 0.405617 0)
(-0.295073 0.292956 0)
(-0.192021 0.180491 0)
(-0.125235 0.117973 0)
(-0.0863747 0.0859533 0)
(-0.0624935 0.0670705 0)
(-0.0473654 0.0541516 0)
(-0.036748 0.0452808 0)
(-0.0280918 0.0398299 0)
(-0.0198016 0.036154 0)
(-0.0118305 0.032483 0)
(-0.00451387 0.0280178 0)
(0.0019085 0.0225116 0)
(0.00731868 0.016258 0)
(0.011791 0.0095096 0)
(0.0153144 0.00245416 0)
(0.0174097 -0.00454976 0)
(-0.0222474 -0.926792 0)
(-0.000936461 -0.72248 0)
(-0.321404 -0.25599 0)
(-0.467368 0.187075 0)
(-0.553904 0.448861 0)
(-0.463646 0.394567 0)
(-0.385224 0.305142 0)
(-0.266157 0.181352 0)
(-0.188639 0.106543 0)
(-0.140934 0.0737994 0)
(-0.11181 0.059232 0)
(-0.0909033 0.0494265 0)
(-0.0748078 0.0411767 0)
(-0.0615976 0.0346626 0)
(-0.0501701 0.0302186 0)
(-0.0396426 0.0269742 0)
(-0.0297279 0.0237999 0)
(-0.0206015 0.0200712 0)
(-0.0124813 0.0155664 0)
(-0.00552174 0.01039 0)
(0.000119758 0.00475538 0)
(0.00449816 -0.00104476 0)
(0.00725741 -0.00670539 0)
(-0.113626 -0.81475 0)
(-0.167136 -0.455017 0)
(-0.463652 -0.0649159 0)
(-0.509841 0.227005 0)
(-0.537941 0.394788 0)
(-0.431251 0.307774 0)
(-0.340063 0.192777 0)
(-0.239703 0.0931464 0)
(-0.186239 0.0547428 0)
(-0.152634 0.0421771 0)
(-0.129027 0.0368329 0)
(-0.109226 0.0315106 0)
(-0.0921529 0.0261107 0)
(-0.077345 0.0216902 0)
(-0.0642816 0.0185201 0)
(-0.0524516 0.0161085 0)
(-0.041625 0.0137372 0)
(-0.0318297 0.0109619 0)
(-0.0232005 0.0076278 0)
(-0.0158558 0.00376769 0)
(-0.00991217 -0.000483043 0)
(-0.00519324 -0.00491549 0)
(-0.00218199 -0.00926944 0)
(-0.179997 -0.585104 0)
(-0.343575 -0.243106 0)
(-0.470036 0.062544 0)
(-0.500047 0.255508 0)
(-0.482188 0.320742 0)
(-0.375339 0.204701 0)
(-0.287004 0.0893381 0)
(-0.217597 0.0314487 0)
(-0.182695 0.0192205 0)
(-0.157466 0.0173179 0)
(-0.136383 0.0158346 0)
(-0.117193 0.0129275 0)
(-0.0999714 0.00984605 0)
(-0.0847142 0.0074346 0)
(-0.0712128 0.00581312 0)
(-0.0591333 0.0046201 0)
(-0.0483003 0.00338733 0)
(-0.0386865 0.00180435 0)
(-0.0303348 -0.000262046 0)
(-0.0232757 -0.00279575 0)
(-0.0175432 -0.00570856 0)
(-0.0129507 -0.00882674 0)
(-0.00998507 -0.011938 0)
(-0.181715 -0.35836 0)
(-0.310789 -0.104227 0)
(-0.416112 0.126204 0)
(-0.438762 0.248852 0)
(-0.400801 0.242942 0)
(-0.305034 0.10914 0)
(-0.235741 0.0139698 0)
(-0.197276 -0.00716385 0)
(-0.173909 -0.00650844 0)
(-0.153537 -0.00440911 0)
(-0.134498 -0.00411242 0)
(-0.116638 -0.00512478 0)
(-0.100475 -0.00617119 0)
(-0.0860299 -0.00670996 0)
(-0.0731087 -0.00673894 0)
(-0.0615725 -0.00655244 0)
(-0.0513335 -0.00649821 0)
(-0.0423563 -0.00681458 0)
(-0.0346383 -0.00761686 0)
(-0.0281551 -0.00890348 0)
(-0.0228908 -0.0105924 0)
(-0.0186229 -0.0125474 0)
(-0.0158465 -0.0145504 0)
(-0.146685 -0.18407 0)
(-0.240977 0.0273191 0)
(-0.335377 0.178964 0)
(-0.348906 0.237611 0)
(-0.306708 0.174406 0)
(-0.231142 0.0338004 0)
(-0.192682 -0.0271213 0)
(-0.17427 -0.0303613 0)
(-0.157813 -0.0259296 0)
(-0.141814 -0.0225523 0)
(-0.126093 -0.0213021 0)
(-0.110966 -0.0210431 0)
(-0.0968335 -0.0207051 0)
(-0.0838496 -0.0198092 0)
(-0.0720391 -0.0184617 0)
(-0.061425 -0.0169691 0)
(-0.0520248 -0.0156441 0)
(-0.0438308 -0.0147215 0)
(-0.0368318 -0.0143159 0)
(-0.0309859 -0.0144428 0)
(-0.0262403 -0.0150329 0)
(-0.022388 -0.0159524 0)
(-0.0198788 -0.0170015 0)
(-0.100275 -0.0146354 0)
(-0.169629 0.115557 0)
(-0.235586 0.22298 0)
(-0.246253 0.233394 0)
(-0.21086 0.123921 0)
(-0.163823 -0.0122082 0)
(-0.155176 -0.044309 0)
(-0.146823 -0.0439711 0)
(-0.136724 -0.0393252 0)
(-0.125927 -0.0365526 0)
(-0.114324 -0.0352765 0)
(-0.102556 -0.0344659 0)
(-0.0909576 -0.0333194 0)
(-0.0797945 -0.0314881 0)
(-0.0693082 -0.0290956 0)
(-0.0597112 -0.0264844 0)
(-0.0511655 -0.0239977 0)
(-0.0437335 -0.0219069 0)
(-0.0374188 -0.0203681 0)
(-0.0321822 -0.0194217 0)
(-0.0279638 -0.0190135 0)
(-0.024551 -0.0190122 0)
(-0.022345 -0.0192106 0)
(-0.0536151 0.0666349 0)
(-0.0858417 0.170922 0)
(-0.123992 0.253105 0)
(-0.133914 0.239767 0)
(-0.111414 0.0977997 0)
(-0.103754 -0.0240287 0)
(-0.114969 -0.0480333 0)
(-0.11532 -0.049745 0)
(-0.112308 -0.0470423 0)
(-0.107447 -0.045545 0)
(-0.10077 -0.0450284 0)
(-0.0928864 -0.0446401 0)
(-0.0840698 -0.0436268 0)
(-0.0747992 -0.0415762 0)
(-0.0656093 -0.0385977 0)
(-0.0569616 -0.0351237 0)
(-0.0491837 -0.0316124 0)
(-0.0424311 -0.028433 0)
(-0.03674 -0.025822 0)
(-0.0320781 -0.0238656 0)
(-0.0283665 -0.0225325 0)
(-0.0254103 -0.0217004 0)
(-0.0235532 -0.0211389 0)
(-0.023176 0.108073 0)
(-0.0093657 0.18555 0)
(-0.0016008 0.263584 0)
(-0.000417626 0.257072 0)
(0.0154074 0.0926923 0)
(-0.0378234 -0.0151308 0)
(-0.0687247 -0.0430454 0)
(-0.0800168 -0.0477114 0)
(-0.0850972 -0.0476282 0)
(-0.0872675 -0.0483773 0)
(-0.0863281 -0.0498769 0)
(-0.0826986 -0.051258 0)
(-0.0767397 -0.0515618 0)
(-0.0692672 -0.0501373 0)
(-0.0612217 -0.0470882 0)
(-0.0533817 -0.0430139 0)
(-0.0462595 -0.0385928 0)
(-0.0401092 -0.0343781 0)
(-0.0349964 -0.0307228 0)
(-0.0308876 -0.0277897 0)
(-0.0277057 -0.0255805 0)
(-0.0252236 -0.0239795 0)
(-0.0237574 -0.0227418 0)
(-0.00925923 0.1149 0)
(0.0537753 0.142777 0)
(0.126606 0.227005 0)
(0.167298 0.248837 0)
(0.182275 0.161503 0)
(0.0927402 0.0580875 0)
(0.00246148 -0.0172333 0)
(-0.0367603 -0.0366746 0)
(-0.0547875 -0.0394144 0)
(-0.0657181 -0.0438645 0)
(-0.0713985 -0.0492483 0)
(-0.0722172 -0.054234 0)
(-0.0690068 -0.0572834 0)
(-0.0631439 -0.0573941 0)
(-0.0560755 -0.0547568 0)
(-0.0489252 -0.0502889 0)
(-0.0423941 -0.0450232 0)
(-0.0368184 -0.0397812 0)
(-0.0322856 -0.0350823 0)
(-0.0287554 -0.031183 0)
(-0.0261211 -0.028128 0)
(-0.0241592 -0.0258084 0)
(-0.023143 -0.0239583 0)
(-0.0305067 0.0770758 0)
(0.0968954 0.0958812 0)
(0.271608 0.18168 0)
(0.370665 0.25072 0)
(0.374199 0.243328 0)
(0.255784 0.170213 0)
(0.126064 0.0790333 0)
(0.0366815 0.0170092 0)
(-0.0193502 -0.0177177 0)
(-0.0430315 -0.030583 0)
(-0.0561701 -0.0428445 0)
(-0.0613228 -0.0538275 0)
(-0.0605236 -0.0611404 0)
(-0.0560275 -0.0636095 0)
(-0.0498306 -0.0617476 0)
(-0.043362 -0.0570062 0)
(-0.0374647 -0.0509039 0)
(-0.0325288 -0.0446096 0)
(-0.0286465 -0.0388525 0)
(-0.0257584 -0.0339912 0)
(-0.0237483 -0.0301161 0)
(-0.0223497 -0.0271251 0)
(-0.0218363 -0.0247321 0)
(-0.0102111 0.0934779 0)
(0.14969 -0.297742 0)
(0.367795 -0.207857 0)
(0.540469 0.155923 0)
(0.525244 0.382077 0)
(0.37392 0.321434 0)
(0.210802 0.204597 0)
(0.0979723 0.110333 0)
(0.0240252 0.0422575 0)
(-0.022299 -0.00598465 0)
(-0.0413362 -0.0310944 0)
(-0.0498587 -0.0507661 0)
(-0.0507874 -0.0635716 0)
(-0.0473936 -0.0689273 0)
(-0.0420731 -0.0680371 0)
(-0.0364238 -0.0630594 0)
(-0.031332 -0.0561028 0)
(-0.0272027 -0.0487359 0)
(-0.0241131 -0.0419216 0)
(-0.021981 -0.0361243 0)
(-0.0206651 -0.0314746 0)
(-0.019907 -0.027873 0)
(-0.0199565 -0.0250101 0)
(0.106565 -0.124318 0)
(0.128963 -0.20793 0)
(0.123626 -0.25391 0)
(0.229443 -0.0512752 0)
(0.384596 0.4025 0)
(0.277372 0.419175 0)
(0.165114 0.307451 0)
(0.0902791 0.191193 0)
(0.0337171 0.0999422 0)
(-0.00819653 0.0285814 0)
(-0.0298037 -0.0164032 0)
(-0.0381039 -0.0462625 0)
(-0.0395948 -0.064991 0)
(-0.0370021 -0.0733074 0)
(-0.0326281 -0.0734034 0)
(-0.028024 -0.0681761 0)
(-0.0239972 -0.0603615 0)
(-0.020905 -0.0519446 0)
(-0.0187922 -0.0441243 0)
(-0.0175465 -0.0374615 0)
(-0.0170308 -0.0321188 0)
(-0.0169602 -0.0279933 0)
(-0.0176201 -0.0247439 0)
(0.00491573 -0.100688 0)
(0.0852229 -0.197964 0)
(0.115833 -0.189354 0)
(0.11954 -0.0620705 0)
(0.191456 0.473795 0)
(0.12937 0.487445 0)
(0.0796479 0.371871 0)
(0.0500978 0.241742 0)
(0.0208214 0.139054 0)
(-0.0034584 0.057749 0)
(-0.0202707 -0.00236661 0)
(-0.0261449 -0.0417987 0)
(-0.02716 -0.0658305 0)
(-0.0250792 -0.0767061 0)
(-0.0217631 -0.0775894 0)
(-0.0184312 -0.0720549 0)
(-0.0157214 -0.0634016 0)
(-0.0138818 -0.0540134 0)
(-0.0129095 -0.0452932 0)
(-0.0126633 -0.0378902 0)
(-0.0129995 -0.0319738 0)
(-0.0136596 -0.0274327 0)
(-0.0149513 -0.0239023 0)
(0.0140522 -0.213547 0)
(0.114258 -0.270989 0)
(0.17008 -0.308628 0)
(0.236786 -0.135563 0)
(0.0200589 0.506214 0)
(-0.0114706 0.522801 0)
(0.00541795 0.385416 0)
(0.00332285 0.258951 0)
(0.000671041 0.156162 0)
(-0.00579964 0.0718172 0)
(-0.0120414 0.00682043 0)
(-0.0143184 -0.0390268 0)
(-0.0139515 -0.0666192 0)
(-0.0122199 -0.0791929 0)
(-0.0100839 -0.080437 0)
(-0.00822613 -0.0744726 0)
(-0.00702348 -0.0650144 0)
(-0.00657579 -0.0547778 0)
(-0.00682614 -0.0453229 0)
(-0.00761714 -0.0373473 0)
(-0.00882197 -0.0310115 0)
(-0.0101897 -0.0261834 0)
(-0.0120877 -0.0224886 0)
(0.105591 -0.168323 0)
(0.2379 -0.320874 0)
(0.249612 -0.438212 0)
(-0.153518 0.17494 0)
(-0.221783 0.548643 0)
(-0.103887 0.494625 0)
(-0.0685317 0.359666 0)
(-0.0340351 0.248897 0)
(-0.0175727 0.153334 0)
(-0.0089173 0.0722505 0)
(-0.00488346 0.00765433 0)
(-0.00238816 -0.039111 0)
(-0.000514024 -0.0676819 0)
(0.000811457 -0.0806876 0)
(0.00159206 -0.0817645 0)
(0.00178733 -0.07525 0)
(0.0013776 -0.0650875 0)
(0.00040282 -0.0541859 0)
(-0.00102619 -0.0442104 0)
(-0.00277787 -0.0358587 0)
(-0.00475053 -0.0292763 0)
(-0.00675463 -0.024306 0)
(-0.00918582 -0.0205518 0)
(0.0203758 -0.663795 0)
(-0.157561 -0.50285 0)
(-0.326756 0.0526014 0)
(-0.343547 0.297264 0)
(-0.301352 0.477361 0)
(-0.166132 0.40507 0)
(-0.107825 0.31059 0)
(-0.0563517 0.219513 0)
(-0.0270574 0.135759 0)
(-0.00796517 0.061752 0)
(0.00344981 0.00167813 0)
(0.00956366 -0.0421244 0)
(0.0124225 -0.0691825 0)
(0.0130553 -0.0812154 0)
(0.01227 -0.0815101 0)
(0.0106693 -0.0743098 0)
(0.00862263 -0.0635992 0)
(0.0063349 -0.0523014 0)
(0.00391991 -0.042072 0)
(0.00143622 -0.0335765 0)
(-0.00111004 -0.0269096 0)
(-0.00356465 -0.0219038 0)
(-0.00638848 -0.018203 0)
(-0.0641755 -0.264264 0)
(-0.254692 -0.1541 0)
(-0.337184 0.0175526 0)
(-0.343431 0.241891 0)
(-0.272582 0.354346 0)
(-0.173482 0.307849 0)
(-0.109358 0.250219 0)
(-0.0591702 0.179414 0)
(-0.0245888 0.108973 0)
(-0.0009612 0.0445463 0)
(0.0138717 -0.00818682 0)
(0.0215097 -0.0468433 0)
(0.0242512 -0.0705918 0)
(0.0235878 -0.0804613 0)
(0.0209184 -0.0794474 0)
(0.0174207 -0.0715862 0)
(0.0138418 -0.0606556 0)
(0.0105141 -0.0493679 0)
(0.0074765 -0.0392135 0)
(0.00462589 -0.030775 0)
(0.00184676 -0.0241375 0)
(-0.000828151 -0.0191657 0)
(-0.00385244 -0.0155919 0)
(-0.0532491 -0.200423 0)
(-0.187848 -0.0686131 0)
(-0.256471 0.0724567 0)