/*--------------------------------*- C++ -*----------------------------------*\
| =========                 |                                                 |
| \\      /  F ield         | OpenFOAM: The Open Source CFD Toolbox           |
|  \\    /   O peration     | Version:  2312                                  |
|   \\  /    A nd           | Website:  www.openfoam.com                      |
|    \\/     M anipulation  |                                                 |
\*---------------------------------------------------------------------------*/
FoamFile
{
    version     2.0;
    format      ascii;
    arch        "LSB;label=32;scalar=64";
    class       volScalarField;
    location    "5.55";
    object      alpha.water;
}
// * * * * * * * * * * * * * * * * * * * * * * * * * * * * * * * * * * * * * //

dimensions      [0 0 0 0 0 0 0];

internalField   nonuniform List<scalar> 
2268
(
3.10605e-07
3.0712e-07
2.66118e-07
1.25491e-07
9.17374e-10
5.49545e-10
5.49361e-10
4.45202e-10
3.05225e-10
2.11975e-10
1.52515e-10
1.21371e-10
1.03099e-10
9.95076e-11
1.02191e-10
1.14489e-10
1.45888e-10
1.99563e-10
2.9233e-10
5.5014e-10
1.08734e-09
1.3598e-09
1.37499e-09
2.17447e-07
1.88902e-07
7.84813e-08
1.39497e-08
1.00444e-09
1.1015e-09
8.68814e-10
6.37282e-10
4.13261e-10
3.24435e-10
2.97316e-10
2.97609e-10
3.02162e-10
2.90118e-10
2.54109e-10
2.38706e-10
2.69366e-10
3.73927e-10
5.54008e-10
7.98035e-10
1.15709e-09
1.30568e-09
1.26302e-09
3.11269e-08
4.70199e-09
8.95795e-10
2.05317e-09
3.86769e-09
4.07159e-09
4.52595e-09
2.47029e-09
1.23966e-09
7.97022e-10
7.27588e-10
8.84552e-10
1.01812e-09
1.02295e-09
8.77798e-10
7.07065e-10
5.29608e-10
5.32859e-10
5.67578e-10
8.03398e-10
9.73393e-10
8.97063e-10
9.47206e-10
2.36061e-20
9.18262e-10
8.82987e-10
7.99408e-10
1.19424e-09
1.65631e-09
9.57269e-09
2.95622e-09
7.41499e-10
5.38873e-10
6.75981e-10
8.48919e-10
8.42081e-10
6.71478e-10
5.6531e-10
4.3296e-10
3.77657e-10
4.3843e-10
4.80572e-10
5.66651e-10
5.91583e-10
5.77064e-10
5.46804e-10
2.34212e-20
1.27124e-19
-4.61581e-15
-2.68405e-14
-1.10815e-13
-1.17877e-12
-1.29805e-11
3.3984e-20
-5.89693e-13
-5.11407e-13
-5.73377e-13
-5.69972e-13
-3.74551e-13
-9.77713e-16
-1.17932e-18
-2.03155e-28
1.61559e-28
-1.39622e-12
-5.05314e-13
-5.16988e-28
-8.0463e-13
-1.0416e-12
-4.75743e-13
0.204672
0.194958
0.176616
0.153138
0.127951
0.101756
0.0765549
0.0555092
0.0389997
0.0266377
0.0173553
0.0144441
0.0186325
0.0267816
0.0340664
0.0455593
0.0444405
0.0537218
0.0854358
0.129001
0.172254
0.210922
0.254165
0.927799
0.921981
0.908417
0.887932
0.863813
0.833397
0.797246
0.756281
0.712317
0.67071
0.636871
0.618408
0.614632
0.625442
0.655033
0.694276
0.680412
0.699743
0.756784
0.808215
0.846695
0.867695
0.887806
0.998941
0.999448
0.999445
0.998784
0.998568
0.998484
0.999004
0.999737
0.999789
0.999772
0.999678
0.999514
0.999611
0.999788
0.999569
0.99537
0.983416
0.96939
0.97362
0.990277
0.993905
0.991931
0.974676
0.00892032
0.00712981
0.00374931
0.0019507
0.00332651
0.0047349
0.00547585
0.00694434
0.00758827
0.00806058
0.00805393
0.00801464
0.00613399
0.00375914
0.0037167
0.00385362
0.0033567
0.00258862
0.00258852
0.0061131
0.00346248
-1.85118e-06
-1.50419e-06
-3.37748e-06
2.46829e-17
2.56069e-17
0.000384793
0.000762923
0.00072298
0.000486409
0.00047756
0.000479056
0.000473375
0.000477592
0.000617859
0.000318106
0.000119823
0.000119822
0.445543
0.454444
0.423027
0.350822
0.252834
0.151406
0.0620012
0.0106888
0.000749142
0.00253723
0.0141445
0.0259579
0.0352008
0.0422784
0.018871
0.00120103
0.00184252
0.00187031
0.000119822
0.836992
0.985257
0.940863
0.898456
0.839071
0.741485
0.624055
0.517745
0.478771
0.529169
0.586795
0.616451
0.587002
0.588756
0.47433
0.309826
0.308551
0.324051
0.267573
0.985425
0.990731
0.990415
0.990437
0.988922
0.963037
0.946474
0.928934
0.929241
0.951408
0.951991
0.950035
0.904123
0.88779
0.885826
0.626035
0.759968
0.915712
0.645773
0.971491
0.988954
0.985935
0.986103
0.988603
0.988455
0.986353
0.970337
0.965411
0.984052
0.989019
0.988806
0.969197
0.89041
0.843175
0.666495
0.836275
0.951263
0.727487
0.850991
0.982546
0.991576
0.985949
0.986143
0.989949
0.990903
0.987497
0.979131
0.989199
0.989185
0.989019
0.984688
0.905376
0.807628
0.762341
0.89204
0.951221
0.778965
0.847467
0.972026
0.995474
0.989019
0.987221
0.988551
0.990904
0.990903
0.989226
0.989213
0.98401
0.986566
0.923204
0.849199
0.888816
0.923219
0.951309
0.951322
0.844465
0.996897
0.999284
0.999448
0.999418
0.999306
0.997513
0.997879
0.999776
0.999789
0.999681
0.999518
0.999725
0.999788
0.999788
0.999788
0.999788
0.999788
0.999766
0.999751
0.999783
0.999789
0.999789
0.999577
0.910658
0.932537
0.94557
0.945498
0.937991
0.946177
0.948471
0.957844
0.958595
0.945158
0.942807
0.943618
0.957121
0.977073
0.984712
0.952102
0.915716
0.915093
0.911835
0.918101
0.921667
0.911356
0.884032
0.277809
0.284738
0.313716
0.3165
0.284468
0.308562
0.336172
0.353061
0.3679
0.390816
0.402918
0.374866
0.353644
0.280963
0.212967
0.17938
0.17971
0.179566
0.173889
0.167885
0.158904
0.145896
0.148285
-6.19248e-20
3.94007e-20
-6.88152e-20
-3.55463e-20
3.03591e-25
1.23906e-23
7.53957e-12
4.17848e-14
-2.10669e-09
-3.17637e-24
4.93558e-24
-1.86751e-25
5.14764e-24
-5.78202e-24
-3.55012e-09
-4.08989e-09
-1.9481e-08
-3.63944e-08
-7.11445e-08
-5.50063e-07
-1.46718e-07
3.10684e-08
-5.5263e-07
1.82144e-27
1.03398e-27
-3.76074e-22
-8.72512e-23
9.34074e-06
2.50842e-05
2.07364e-05
2.08438e-05
4.02397e-05
2.51987e-05
5.04024e-23
7.01118e-07
1.49734e-05
1.62872e-05
6.30461e-05
0.000110539
9.47937e-05
6.14412e-05
0.000117596
0.000771923
0.000999738
0.000302806
0.000362112
1.72663e-05
3.70142e-05
4.95147e-05
0.000118485
0.000168254
0.000189461
0.000290884
7.91564e-05
4.11389e-06
6.17093e-06
4.30395e-05
0.000122263
0.000132542
8.89915e-05
0.000118262
0.000240808
0.000284951
0.000277508
0.000260837
0.000260671
0.00342567
0.00896937
0.00516589
0.000165665
0.000130539
6.10754e-05
6.13813e-05
0.000471771
0.00336532
0.00445333
0.00222759
0.00137514
0.00169548
0.00179869
0.00136113
0.000789785
0.000174917
0.000118144
0.000266131
0.0012929
0.00662416
0.00816997
0.003426
0.00312565
0.0133554
0.0198383
0.000270339
0.000214928
0.000224487
0.00328993
0.00459052
0.00459206
0.00459052
0.00390807
0.00318886
0.00279582
0.00213469
0.00130628
0.000624718
0.000232793
0.00030613
0.0010205
0.00199031
0.00933978
0.00961305
0.00960315
0.00472121
0.0108415
0.0198384
0.000269366
0.000202566
0.00016256
0.0026203
0.00325372
0.00172862
0.000162701
9.1463e-08
8.07762e-08
8.84073e-08
7.52171e-08
8.32145e-08
4.33577e-06
0.000192811
0.000548741
0.000874838
0.00111565
0.000316283
0.00165598
0.00139183
0.00231986
0.00701329
0.00860801
0.000196033
5.44772e-05
3.05365e-05
0.000172301
6.46466e-05
4.31056e-06
1.09524e-06
6.79701e-07
2.7669e-07
3.89695e-07
6.55577e-07
8.83712e-07
2.60181e-06
1.05889e-05
9.74018e-06
9.84844e-07
9.18519e-07
8.96215e-07
2.01152e-06
2.34266e-06
7.98046e-06
9.60649e-05
3.00675e-09
4.67817e-06
1.01497e-08
9.73591e-09
9.67548e-09
9.58407e-09
1.71675e-07
3.56828e-08
3.40904e-08
2.84845e-07
7.02715e-07
1.07337e-06
1.10563e-06
2.89769e-07
2.62343e-08
2.53027e-08
2.61098e-06
5.33515e-06
2.96262e-06
1.82814e-06
1.82226e-06
8.90133e-06
1.0403e-05
1.82672e-05
4.28267e-08
4.02669e-08
4.27981e-08
1.98961e-08
9.5182e-09
1.19906e-08
5.56523e-08
6.57013e-08
7.36793e-07
1.45023e-06
1.4695e-06
1.05016e-06
1.66828e-07
2.53137e-08
2.47333e-06
1.02568e-05
1.1443e-05
7.45479e-06
1.90889e-06
2.14047e-05
4.09804e-05
4.0985e-05
4.09744e-05
1.43728e-07
1.36801e-07
9.23464e-08
1.32111e-08
9.4238e-09
9.5324e-09
9.59978e-09
2.44882e-07
5.55071e-07
3.4324e-07
2.55075e-07
2.46315e-08
1.7603e-08
3.25499e-08
4.20707e-06
1.26277e-05
1.23992e-05
1.58845e-06
1.26503e-05
4.0923e-05
4.0986e-05
4.09752e-05
3.10563e-05
1.67411e-07
1.23371e-07
4.94064e-08
1.06522e-08
9.35496e-09
1.69521e-08
7.12e-08
6.80352e-08
1.02096e-08
3.35821e-09
4.86161e-09
8.90381e-09
1.80289e-08
6.49616e-08
2.60601e-08
1.48936e-06
6.64479e-09
3.56926e-07
2.60067e-05
4.07817e-05
4.09686e-05
2.47729e-05
7.8163e-07
9.62755e-08
5.58876e-08
2.12616e-08
9.43715e-09
9.27797e-09
1.84429e-08
2.46018e-08
1.40893e-08
6.53468e-09
2.99679e-09
2.74938e-09
5.41566e-09
7.08284e-09
4.51784e-09
1.76953e-09
1.7353e-09
1.7234e-09
7.34378e-08
1.77392e-05
3.44538e-05
2.12863e-05
8.2799e-07
1.00428e-06
3.53213e-08
1.95146e-08
9.43707e-09
8.33021e-09
8.87119e-09
8.09614e-09
4.34699e-09
2.11635e-09
1.54023e-09
1.93724e-09
2.36074e-09
2.10579e-09
2.75884e-09
2.79941e-09
3.38373e-09
4.02219e-09
2.19703e-09
7.11693e-08
1.69064e-07
1.06484e-08
1.54254e-08
8.23081e-07
1.16333e-06
1.28634e-08
6.01822e-09
5.0779e-09
5.5967e-09
5.37552e-09
3.98504e-09
2.44535e-09
1.63423e-09
1.37579e-09
1.46119e-09
1.70512e-09
2.08629e-09
2.68073e-09
3.73179e-09
4.93465e-09
5.60683e-09
4.659e-09
5.84328e-09
5.96887e-09
6.08156e-09
1.04705e-06
1.01276e-05
5.56903e-06
1.25697e-08
3.61327e-09
3.01806e-09
3.5831e-09
3.31384e-09
2.50321e-09
1.77383e-09
1.25953e-09
9.82045e-10
9.38645e-10
1.09674e-09
1.43489e-09
1.99326e-09
2.90926e-09
3.83078e-09
4.31852e-09
3.17112e-09
2.4399e-09
9.81991e-09
2.91424e-08
8.25708e-07
1.76373e-05
1.85314e-05
1.28227e-08
2.75898e-09
1.97295e-09
2.21001e-09
1.93894e-09
1.50146e-09
1.09542e-09
7.82191e-10
5.97334e-10
5.42643e-10
6.11175e-10
7.76741e-10
1.04893e-09
1.44989e-09
1.93917e-09
2.21796e-09
1.82362e-09
2.22282e-09
1.34999e-08
3.9448e-08
9.82224e-08
6.08167e-06
1.91738e-05
1.26083e-08
1.87459e-09
1.19887e-09
1.29629e-09
1.08587e-09
8.18512e-10
5.90999e-10
4.30574e-10
3.30413e-10
2.84206e-10
2.96709e-10
3.43356e-10
4.31112e-10
5.90078e-10
7.87213e-10
9.73825e-10
1.13972e-09
1.69322e-09
1.05821e-08
5.47131e-08
4.92302e-08
3.663e-08
3.18112e-07
1.20437e-08
1.20673e-09
7.14328e-10
7.30953e-10
6.053e-10
4.69948e-10
3.53192e-10
2.52182e-10
1.88742e-10
1.52247e-10
1.41735e-10
1.48376e-10
1.80443e-10
2.39746e-10
3.28725e-10
4.45228e-10
5.7829e-10
1.04721e-09
6.84163e-09
5.04727e-08
8.1269e-08
4.78141e-08
2.32126e-08
1.15781e-08
7.78584e-10
4.78604e-10
4.86791e-10
4.53466e-10
4.30853e-10
3.48474e-10
2.17016e-10
1.48198e-10
1.04142e-10
7.70226e-11
6.9586e-11
8.0177e-11
1.04765e-10
1.46612e-10
2.07348e-10
2.98885e-10
4.69221e-10
1.12894e-09
9.1415e-09
6.85192e-08
7.34517e-08
3.73408e-08
1.11752e-08
5.00599e-10
4.00016e-10
5.02378e-10
7.67759e-10
8.45953e-10
5.87331e-10
2.81093e-10
1.75786e-10
1.0534e-10
6.29894e-11
4.22489e-11
3.58596e-11
4.04912e-11
5.69677e-11
8.95377e-11
1.51686e-10
2.48162e-10
2.88321e-10
3.21553e-10
5.10976e-09
3.62166e-08
2.3247e-08
1.08914e-08
4.17869e-10
4.23887e-10
9.05378e-10
1.29278e-09
1.3397e-09
8.43334e-10
3.29866e-10
2.09692e-10
1.25133e-10
6.79428e-11
3.70015e-11
2.27272e-11
1.88637e-11
2.35321e-11
3.91713e-11
7.39408e-11
1.37611e-10
2.42046e-10
3.2978e-10
3.30093e-10
3.30005e-10
4.88409e-09
1.06304e-08
4.09939e-10
6.09037e-10
1.31043e-09
1.88774e-09
2.18452e-09
1.1407e-09
3.69809e-10
2.50305e-10
1.48899e-10
7.78055e-11
4.06059e-11
2.07256e-11
1.21881e-11
1.06039e-11
1.55536e-11
2.94397e-11
5.98746e-11
1.18947e-10
2.21251e-10
3.87088e-10
7.48301e-10
2.50678e-09
1.04599e-08
4.48737e-10
9.26452e-10
1.71052e-09
2.84791e-09
4.73543e-09
1.29136e-09
3.93348e-10
2.89949e-10
1.71233e-10
8.72593e-11
4.50971e-11
2.3596e-11
1.11719e-11
6.45251e-12
6.35443e-12
1.04767e-11
2.08145e-11
4.26018e-11
8.94122e-11
2.07742e-10
5.1035e-10
1.06768e-09
1.0334e-08
6.39938e-10
1.344e-09
2.69286e-09
9.02842e-09
1.47189e-08
8.25576e-10
4.15268e-10
3.42022e-10
1.86877e-10
9.16539e-11
4.784e-11
2.54111e-11
1.27881e-11
5.71221e-12
3.38404e-12
3.86098e-12
6.97997e-12
1.39002e-11
2.87446e-11
6.30684e-11
1.4933e-10
3.4306e-10
1.03342e-08
9.5759e-10
3.05265e-09
1.48068e-08
5.6391e-08
3.0521e-08
4.32799e-10
4.36099e-10
3.83777e-10
1.8626e-10
8.90589e-11
4.7338e-11
2.63934e-11
1.38078e-11
6.53674e-12
2.70227e-12
1.69703e-12
2.30222e-12
4.21371e-12
8.4346e-12
1.8327e-11
3.96245e-11
7.949e-11
1.04326e-08
2.76736e-09
2.21397e-08
1.52605e-07
3.07422e-07
1.91078e-08
4.34151e-10
5.00106e-10
3.81478e-10
1.68528e-10
7.83969e-11
4.31726e-11
2.54003e-11
1.40248e-11
6.97568e-12
3.04089e-12
1.08559e-12
8.52642e-13
1.3305e-12
2.51772e-12
4.64103e-12
9.37488e-12
1.82539e-11
1.07505e-08
1.01879e-08
1.31209e-07
6.89012e-07
4.92373e-07
4.39838e-10
4.43819e-10
5.77495e-10
3.5432e-10
1.40148e-10
6.30637e-11
3.54687e-11
2.22981e-11
1.33177e-11
7.01355e-12
3.22187e-12
1.12918e-12
4.18072e-13
4.44064e-13
7.55785e-13
1.40611e-12
2.56015e-12
4.25721e-12
1.21404e-08
4.02573e-08
2.97654e-07
6.91781e-07
3.93689e-07
4.44694e-10
5.68254e-10
6.4001e-10
3.08949e-10
1.07767e-10
4.60544e-11
2.67051e-11
1.79203e-11
1.14974e-11
6.59942e-12
3.17555e-12
1.32083e-12
2.91655e-13
1.67419e-13
2.41642e-13
4.15523e-13
7.02946e-13
1.13354e-12
1.29688e-08
6.57072e-08
4.09935e-07
6.91329e-07
5.71747e-08
4.60755e-10
8.71384e-10
6.24194e-10
2.37139e-10
7.73746e-11
3.17994e-11
1.85573e-11
1.28988e-11
8.92749e-12
5.61147e-12
2.97871e-12
1.35921e-12
3.43316e-13
8.26825e-14
7.70835e-14
1.26393e-13
2.09981e-13
3.00979e-13
1.49422e-08
9.76618e-08
6.3581e-07
4.14319e-07
7.65691e-10
6.35091e-10
1.16035e-09
5.24961e-10
1.52353e-10
5.46241e-11
2.09349e-11
1.22308e-11
8.70399e-12
6.1322e-12
4.1707e-12
2.529e-12
1.27353e-12
4.06084e-13
6.36115e-14
2.86317e-14
3.37152e-14
5.52562e-14
7.94972e-14
1.78902e-08
1.4631e-07
6.35872e-07
3.54347e-07
4.70365e-10
9.90814e-10
1.5729e-09
5.04083e-10
1.33017e-10
3.79924e-11
1.30385e-11
7.29877e-12
5.17994e-12
3.77185e-12
2.76234e-12
1.85079e-12
1.04659e-12
4.46163e-13
7.32929e-14
1.24569e-14
1.01218e-14
1.61423e-14
1.97456e-14
2.03391e-08
2.18016e-07
6.35811e-07
3.12151e-07
4.73413e-10
1.70426e-09
2.10499e-09
5.62116e-10
1.32928e-10
2.76917e-11
7.74744e-12
4.30803e-12
2.92817e-12
2.10376e-12
1.56862e-12
1.15963e-12
7.58232e-13
3.93334e-13
8.34149e-14
9.22914e-15
3.15593e-15
4.01059e-15
5.37184e-15
2.34035e-08
2.25413e-07
6.35872e-07
1.37382e-07
4.70302e-10
3.09592e-09
2.58776e-09
6.3802e-10
1.37115e-10
2.22053e-11
4.62717e-12
2.38374e-12
1.56174e-12
1.04649e-12
7.63351e-13
6.07951e-13
4.60309e-13
2.90809e-13
8.63733e-14
1.06459e-14
1.48775e-15
1.20515e-15
1.47003e-15
2.19349e-08
1.83263e-07
4.13238e-07
2.57658e-08
3.9808e-09
8.84508e-09
2.91064e-09
6.68014e-10
1.3473e-10
1.83413e-11
2.54701e-12
1.17564e-12
7.7761e-13
4.77218e-13
3.19662e-13
2.54812e-13
2.1837e-13
1.70178e-13
7.43225e-14
1.22851e-14
1.17093e-15
3.41248e-16
4.07818e-16
2.15948e-08
1.28647e-07
3.18151e-07
1.98382e-08
6.36935e-09
1.13372e-08
2.99005e-09
6.02858e-10
1.11224e-10
1.38226e-11
1.33018e-12
5.56033e-13
3.59009e-13
2.03942e-13
1.18509e-13
8.62903e-14
7.89714e-14
7.39293e-14
4.70178e-14
1.18711e-14
1.25107e-15
1.28057e-16
9.83179e-17
2.17141e-08
1.28292e-07
3.01953e-07
4.17653e-09
1.40923e-08
1.11512e-08
2.5249e-09
4.61936e-10
7.39446e-11
8.25453e-12
6.19686e-13
2.16599e-13
1.44803e-13
7.91676e-14
3.9447e-14
2.34647e-14
2.06457e-14
2.27736e-14
2.16554e-14
8.91561e-15
1.30312e-15
7.87795e-17
2.42872e-17
2.27186e-08
9.5454e-08
9.55102e-08
2.25792e-09
1.4802e-08
6.47953e-09
1.34732e-09
2.66161e-10
3.21504e-11
3.19856e-12
2.0077e-13
6.43286e-14
4.58294e-14
2.56534e-14
1.17075e-14
5.39001e-15
3.86243e-15
4.73492e-15
6.30346e-15
4.98811e-15
9.81714e-16
7.72093e-17
7.34804e-18
2.19842e-08
1.85181e-08
3.20773e-09
6.75474e-09
1.2717e-08
2.28926e-09
5.26347e-10
1.04803e-10
9.66353e-12
7.29201e-13
3.58608e-14
1.25925e-14
1.009e-14
6.06057e-15
2.73263e-15
1.02168e-15
5.12929e-16
6.7408e-16
1.26013e-15
1.79899e-15
6.30537e-16
7.15391e-17
5.17126e-18
4.72133e-08
7.28651e-09
3.2423e-09
1.6588e-08
2.05896e-09
3.33973e-10
9.24181e-11
1.56388e-11
9.88805e-13
3.94177e-14
1.5373e-15
1.18809e-15
1.11144e-15
7.47904e-16
3.5196e-16
1.2055e-16
4.33416e-17
5.71872e-17
1.76622e-16
4.22489e-16
3.37496e-16
5.51761e-17
3.99018e-18
0.998325
0.998443
0.998437
0.995901
0.846576
0.841269
0.876795
0.90374
0.124785
0.114115
0.15104
0.267559
1.3016e-16
1.05917e-16
1.558e-15
1.77678e-09
0.000225488
2.6537e-05
6.01054e-10
5.38365e-10
0.00123259
0.000267337
0.000127954
-2.7529e-08
0.0198386
0.0140142
0.0026953
0.00121113
0.0198384
0.0198383
0.0198072
0.019769
0.011975
0.0120749
0.0132043
0.0163859
1.07512e-10
2.70913e-10
1.74183e-08
3.37998e-08
2.95176e-05
2.38288e-05
8.50892e-06
2.1049e-06
4.03598e-05
3.62768e-05
9.78995e-06
1.25825e-15
9.87263e-06
1.69787e-06
6.91474e-07
5.14039e-07
8.57377e-07
8.76915e-07
1.72644e-06
1.91422e-06
1.69043e-06
2.50084e-06
2.47292e-06
2.34588e-06
2.03106e-06
1.82016e-06
3.06397e-07
2.37862e-07
4.02825e-07
2.38263e-07
2.38265e-07
2.37187e-07
2.56223e-07
2.45987e-07
2.46583e-07
2.38548e-07
1.06499e-05
1.00225e-05
6.5838e-06
7.22046e-06
1.84166e-05
1.95158e-05
1.95413e-05
1.5821e-05
2.32378e-08
1.40828e-07
1.31807e-06
3.68603e-06
6.22058e-08
7.14777e-08
2.64851e-08
8.43533e-10
1.34179e-08
8.62735e-08
1.01645e-07
9.74396e-08
6.68319e-09
1.25265e-08
7.02178e-08
9.46809e-08
4.34177e-09
7.4794e-09
2.50106e-08
3.06305e-08
2.27991e-09
3.22193e-09
3.78957e-09
2.87691e-09
5.57034e-10
6.82481e-10
7.29055e-10
7.21628e-10
1.37337e-10
1.494e-10
1.78573e-10
1.89201e-10
2.80183e-11
3.30618e-11
3.68112e-11
4.01028e-11
6.55496e-12
7.36392e-12
8.73579e-12
9.65063e-12
1.61181e-12
1.87059e-12
2.11195e-12
2.38543e-12
3.92049e-13
4.28488e-13
5.00431e-13
5.35319e-13
9.01909e-14
9.87345e-14
1.04589e-13
1.158e-13
2.31547e-14
2.25994e-14
2.40614e-14
2.40882e-14
5.44478e-15
5.44114e-15
5.51142e-15
5.75488e-15
1.49071e-15
1.39692e-15
1.42571e-15
1.46873e-15
3.93581e-16
3.72493e-16
3.80092e-16
4.03507e-16
1.01997e-16
8.9535e-17
9.11678e-17
1.01418e-16
2.08837e-17
2.0143e-17
2.06283e-17
2.14759e-17
4.59456e-18
3.91465e-18
3.72924e-18
3.95086e-18
8.04925e-19
6.74629e-19
6.83364e-19
6.42644e-19
1.65503e-19
1.10348e-19
9.80746e-20
8.14398e-20
0.936251
0.994602
0.995476
0.990107
0.965296
0.98828
0.990903
0.988482
0.978902
0.988738
0.911415
0.917308
0.836093
0.849485
0.951287
0.951309
0.951302
0.951313
0.871745
0.938763
0.944003
0.965346
0.949917
0.828953
0.968575
0.988457
0.97744
0.97286
0.801562
0.491715
0.507375
0.893874
0.942568
0.942624
0.949422
0.951255
0.941093
0.93065
0.449858
0.259686
0.459023
0.734198
0.79077
0.861125
0.940096
0.852008
0.464323
0.130236
0.0618993
0.369154
0.895485
0.942487
0.940612
0.950812
0.950788
0.928733
0.9304
0.0017651
4.57742e-19
0.00302881
0.123523
0.172075
0.329439
0.446702
0.132031
3.24224e-33
3.58108e-25
1.85364e-07
0.000197385
0.22032
0.72608
0.837646
0.748591
0.669703
0.693067
0.777367
-3.44878e-07
-1.51036e-09
0.00893389
0.00653639
0.00032344
0.000298622
0.00500107
-1.68273e-07
1.12416e-11
-3.96079e-20
-1.09713e-23
7.90651e-09
8.99466e-05
0.0422277
0.116619
0.0591664
0.0465886
0.0556021
0.0662493
3.99963e-05
-2.98718e-08
0.00893655
0.029739
0.0127433
0.000273891
0.000249692
0.000216873
7.96653e-06
4.00425e-05
4.96323e-05
9.9331e-06
5.73869e-22
5.89142e-18
3.04246e-05
5.54819e-07
-8.78363e-14
1.69606e-21
0.000162118
0.000305687
0.000262173
0.000625522
0.0253008
0.0375649
0.0247868
0.00368749
0.00129038
0.00116931
0.000751467
0.000247348
0.000182284
0.000109205
9.19512e-05
0.000489323
0.000559106
0.000258276
0.00041202
0.000559962
0.0181126
0.00753178
0.000622788
0.00731996
0.037453
0.0375865
0.0353038
0.0226386
0.0134795
0.00870989
0.00673031
0.0019381
0.000443156
0.000438045
0.00054162
0.00083721
0.000922292
0.000878591
0.00247023
0.0130217
0.0127274
0.00644475
0.00109726
0.011616
0.0263019
0.0243113
0.01736
0.0159534
0.0159673
0.0159601
0.0159673
0.0123166
0.00560126
0.00107937
0.000836297
0.00123378
0.00223913
0.00254526
3.92405e-10
0.000272844
0.00173405
0.00112147
6.26767e-05
0.000809271
0.000639305
0.000651961
0.00332159
0.00793507
0.00940989
0.0135246
0.0132599
0.00716295
0.00044368
0.00135793
0.00254507
0.00254526
0.00254573
3.16737e-12
4.96805e-13
-3.23611e-09
0.000186905
6.36484e-05
-7.79222e-22
-2.17422e-21
9.12577e-22
-2.15124e-21
-3.28064e-20
3.44337e-05
0.000454399
0.000227391
0.000492295
0.000450525
0.00118056
0.00251503
0.00254507
0.0025446
8.33661e-20
1.25241e-15
-3.27714e-11
1.25207e-15
1.44397e-05
2.78903e-06
-9.76802e-24
-6.0364e-12
-1.51825e-12
-1.58319e-13
5.11997e-08
9.1939e-07
3.74798e-06
4.05313e-08
3.99816e-08
5.52224e-05
0.000176868
0.000545633
0.00106946
7.59088e-07
5.22518e-07
4.39643e-07
4.19759e-07
4.51805e-07
5.37268e-07
5.49025e-07
7.35446e-07
6.37225e-06
1.21385e-05
1.23925e-05
8.8773e-06
8.44096e-07
5.23723e-08
4.02714e-08
1.31362e-05
6.91053e-07
6.99266e-07
7.22354e-07
2.8196e-06
3.08128e-06
2.56026e-06
1.05111e-06
4.90122e-06
1.19073e-05
1.29247e-05
1.28198e-05
1.04299e-05
6.76851e-06
6.33703e-06
3.87944e-06
3.31583e-07
3.98838e-08
4.04868e-08
6.03766e-07
6.93952e-07
7.05024e-07
1.8827e-06
8.7739e-07
6.53447e-07
1.40218e-06
8.32795e-06
8.8952e-06
7.06085e-06
3.14164e-06
3.10847e-06
1.27294e-06
1.30866e-06
7.58873e-07
5.87635e-08
4.00268e-08
3.99292e-08
4.00272e-08
4.01402e-08
7.49596e-08
9.3041e-06
6.73852e-06
3.43559e-07
3.41406e-07
6.06977e-07
1.44879e-06
6.97245e-07
1.50821e-07
1.78823e-07
5.56953e-08
1.23588e-07
5.4103e-08
2.0454e-07
3.01556e-06
2.66694e-06
3.98838e-08
3.95503e-08
3.97262e-08
1.87765e-05
2.25627e-05
9.44203e-06
5.90078e-06
1.93561e-05
2.49757e-05
1.38589e-05
2.07292e-06
1.09581e-07
6.01758e-08
5.29876e-08
5.34022e-08
5.4265e-08
1.65911e-06
9.82428e-06
1.02203e-05
1.41326e-05
1.39668e-05
2.69134e-05
3.36664e-05
2.19819e-05
1.02839e-05
6.96718e-06
3.81224e-05
4.27143e-05
4.27136e-05
3.80395e-05
1.98915e-05
6.03264e-06
2.91772e-06
4.55119e-07
5.4127e-08
7.61043e-07
5.1938e-06
2.28513e-05
4.02256e-05
4.02251e-05
4.02256e-05
1.49091e-05
2.35573e-06
2.42666e-06
7.39851e-06
2.38428e-05
4.27142e-05
4.27138e-05
4.27135e-05
4.27117e-05
4.26843e-05
2.31537e-05
6.53623e-07
1.10536e-06
8.57767e-07
3.41387e-06
1.39899e-05
2.27103e-05
2.06339e-05
7.75633e-06
1.19148e-06
4.34153e-07
8.21321e-07
6.46425e-06
9.07669e-06
2.01893e-05
4.27135e-05
4.22012e-05
1.35467e-05
9.03214e-06
1.52101e-05
1.5824e-05
7.70741e-06
2.60969e-06
4.2984e-06
5.90389e-06
4.24742e-06
4.42143e-06
4.02609e-07
1.03813e-07
1.03744e-07
4.65968e-07
5.41224e-06
3.47278e-07
7.82074e-07
8.5171e-06
9.64474e-06
5.33996e-06
3.85101e-06
6.14987e-07
2.58096e-06
3.23043e-06
1.92384e-06
3.34279e-06
5.06209e-06
4.19366e-06
4.37385e-07
1.36001e-07
1.73696e-07
1.04701e-07
9.77888e-08
8.32887e-10
8.4354e-10
8.44813e-10
8.44334e-10
8.46951e-10
8.50594e-10
8.50981e-10
8.56559e-10
3.11246e-08
3.46441e-07
2.67478e-07
1.97725e-07
6.67e-07
7.54376e-07
3.29658e-07
4.02325e-07
4.38314e-07
2.48579e-07
8.02346e-08
6.9785e-08
1.24839e-08
8.09801e-09
8.09654e-09
7.9269e-09
2.21624e-09
1.1741e-09
9.4647e-10
9.45259e-10
9.79627e-09
3.41203e-08
1.54651e-08
1.07502e-08
4.08657e-08
5.7131e-08
4.03288e-07
4.43584e-07
2.47394e-07
7.82365e-08
7.10337e-08
2.80229e-08
1.1124e-08
8.0887e-09
1.00645e-08
5.84766e-09
2.72533e-09
1.95906e-09
1.76666e-09
1.97004e-09
3.44529e-09
4.57312e-09
3.49445e-09
2.53604e-09
2.54042e-09
1.13636e-07
4.43453e-07
2.06095e-07
7.8248e-08
1.93651e-08
6.94317e-09
6.23955e-09
6.18061e-09
5.70611e-09
3.29226e-09
2.20352e-09
1.99296e-09
2.41356e-09
3.24346e-09
3.93127e-09
5.32615e-09
5.97584e-09
6.46562e-09
3.59846e-09
3.85087e-09
1.66075e-07
2.00615e-07
7.83536e-08
2.22796e-09
2.29568e-09
2.83833e-09
2.35317e-09
1.9304e-09
1.37863e-09
1.26261e-09
1.4663e-09
1.96389e-09
2.92929e-09
4.55506e-09
7.42397e-09
1.02175e-08
1.25136e-08
5.58026e-09
4.12376e-09
7.12023e-08
2.01338e-07
1.23553e-07
7.4697e-10
7.73926e-10
7.33405e-10
6.33681e-10
5.86843e-10
5.81469e-10
6.68191e-10
8.8491e-10
1.30681e-09
2.08926e-09
3.58119e-09
6.35306e-09
9.78591e-09
1.25054e-08
5.50001e-09
4.95977e-08
1.47452e-07
2.01486e-07
1.98479e-07
1.92888e-10
1.97813e-10
1.89213e-10
1.92766e-10
2.09265e-10
2.6424e-10
3.73138e-10
5.91106e-10
9.79966e-10
1.64928e-09
2.82684e-09
4.93459e-09
7.8059e-09
9.74332e-09
7.72463e-09
1.35561e-07
1.85376e-07
1.44048e-07
2.02098e-07
4.27382e-11
4.80321e-11
5.45365e-11
6.53607e-11
9.02918e-11
1.33908e-10
2.22945e-10
4.06202e-10
8.24619e-10
1.62156e-09
2.8891e-09
4.48108e-09
6.11726e-09
8.39746e-09
1.28499e-08
9.61545e-08
1.85693e-07
1.01393e-07
2.01986e-07
1.07006e-11
1.29309e-11
1.58545e-11
2.03254e-11
2.13181e-11
3.06418e-11
6.35385e-11
1.80337e-10
5.36709e-10
1.46261e-09
3.29896e-09
5.97932e-09
8.24881e-09
7.36174e-09
1.04249e-08
3.90939e-08
7.40534e-08
5.05949e-08
1.78128e-07
2.64147e-12
3.23691e-12
3.71445e-12
3.3697e-12
3.664e-12
6.42922e-12
1.98392e-11
7.56352e-11
2.95294e-10
1.06597e-09
3.23063e-09
7.13612e-09
1.20973e-08
1.25169e-08
1.18495e-08
4.48612e-09
6.92051e-09
1.91544e-08
7.39847e-08
5.97073e-13
7.03812e-13
7.44883e-13
6.45281e-13
8.78142e-13
2.16517e-12
7.69055e-12
3.07408e-11
1.2523e-10
4.50323e-10
3.54521e-09
8.46045e-09
2.24896e-08
2.8045e-08
1.1181e-08
4.48576e-09
5.17931e-09
1.67411e-08
8.60102e-08
1.20752e-13
1.24279e-13
1.36194e-13
1.81219e-13
3.46039e-13
1.11e-12
3.7773e-12
1.30709e-11
4.35339e-11
1.54322e-10
2.67203e-09
1.15049e-08
2.86991e-08
4.28726e-08
2.62884e-08
4.48547e-09
4.48612e-09
2.03872e-08
1.1673e-07
2.55837e-14
2.68544e-14
3.68037e-14
7.60705e-14
2.16248e-13
6.79247e-13
2.17751e-12
7.51489e-12
3.00871e-11
1.56516e-10
2.94604e-09
1.03026e-08
2.78208e-08
4.78187e-08
4.77983e-08
1.18795e-08
4.49015e-09
1.54458e-08
1.18468e-07
5.77261e-15
7.54236e-15
1.48755e-14
4.21531e-14
1.33414e-13
4.52599e-13
1.38906e-12
4.44415e-12
1.94732e-11
1.30026e-10
1.04605e-09
6.26175e-09
1.64791e-08
4.10949e-08
4.78658e-08
4.61676e-08
1.60936e-08
2.1902e-08
9.15539e-08
1.66859e-15
2.65511e-15
7.01009e-15
2.39269e-14
8.64098e-14
3.08921e-13
1.05279e-12
3.37714e-12
1.00658e-11
3.47509e-11
1.20346e-10
1.22488e-09
7.74324e-09
1.93718e-08
4.71464e-08
4.74776e-08
3.86329e-08
8.23515e-08
8.46916e-08
4.72495e-16
8.9334e-16
2.91743e-15
1.11144e-14
4.4797e-14
1.7374e-13
6.35197e-13
2.05703e-12
6.56864e-12
2.60786e-11
1.2681e-10
6.63496e-10
1.79857e-09
7.55701e-09
2.40351e-08
4.59502e-08
5.3767e-08
1.28743e-07
9.14417e-08
1.22732e-16
2.60234e-16
9.12428e-16
3.97035e-15
1.76134e-14
7.68502e-14
3.19428e-13
1.22201e-12
4.03032e-12
1.39833e-11
7.24353e-11
4.2937e-10
1.2097e-09
1.94295e-09
6.75639e-09
1.87653e-08
5.13127e-08
1.28964e-07
3.63332e-07
2.56379e-17
5.16006e-17
1.87346e-16
8.98602e-16
4.58687e-15
2.24905e-14
1.05426e-13
4.61371e-13
1.92067e-12
6.57138e-12
2.53923e-11
1.35994e-10
8.71827e-10
1.82117e-09
2.68059e-09
5.73591e-09
3.61076e-08
8.8917e-08
3.80892e-07
4.27846e-18
6.64012e-18
2.31299e-17
1.2218e-16
7.77089e-16
5.0151e-15
2.95676e-14
1.60366e-13
7.7512e-13
3.27285e-12
1.14267e-11
4.78697e-11
2.8486e-10
1.48884e-09
2.71489e-09
4.10755e-09
1.26304e-08
6.09769e-08
3.81844e-07
5.79359e-19
6.26454e-19
1.47451e-18
7.63294e-18
5.79938e-17
4.96648e-16
4.11909e-15
3.03804e-14
1.92565e-13
1.05731e-12
4.99901e-12
1.82915e-11
8.32884e-11
4.8877e-10
2.1282e-09
3.69629e-09
7.67817e-09
4.98938e-08
3.82325e-07
6.39793e-20
5.12621e-20
6.64502e-20
2.1193e-19
1.62541e-18
1.75525e-17
1.99126e-16
2.11707e-15
1.93163e-14
1.4926e-13
8.9028e-13
4.3227e-12
1.7033e-11
7.29787e-11
4.0215e-10
1.93075e-09
5.07434e-09
3.96714e-08
1.7863e-07
)
;

boundaryField
{
    leftWall
    {
        type            zeroGradient;
    }
    rightWall
    {
        type            zeroGradient;
    }
    lowerWall
    {
        type            zeroGradient;
    }
    atmosphere
    {
        type            inletOutlet;
        inletValue      uniform 0;
        value           nonuniform List<scalar> 
46
(
4.72133e-08
7.28651e-09
3.24229e-09
1.6588e-08
0
0
0
0
0
0
0
0
0
0
0
0
0
0
0
0
0
0
0
0
0
0
0
0
0
0
0
0
0
0
0
0
0
0
0
0
0
0
1.93075e-09
5.07434e-09
3.96714e-08
1.7863e-07
)
;
    }
    defaultFaces
    {
        type            empty;
    }
}


// ************************************************************************* //
