/*--------------------------------*- C++ -*----------------------------------*\
| =========                 |                                                 |
| \\      /  F ield         | OpenFOAM: The Open Source CFD Toolbox           |
|  \\    /   O peration     | Version:  2312                                  |
|   \\  /    A nd           | Website:  www.openfoam.com                      |
|    \\/     M anipulation  |                                                 |
\*---------------------------------------------------------------------------*/
FoamFile
{
    version     2.0;
    format      ascii;
    arch        "LSB;label=32;scalar=64";
    class       volScalarField;
    location    "0.55";
    object      alpha.air;
}
// * * * * * * * * * * * * * * * * * * * * * * * * * * * * * * * * * * * * * //

dimensions      [0 0 0 0 0 0 0];

internalField   nonuniform List<scalar> 
2268
(
7.37893e-16
7.71509e-16
8.90345e-16
1.19406e-15
1.40717e-15
1.40334e-15
1.27468e-15
9.77933e-16
6.41651e-16
4.60936e-16
2.90759e-16
1.46597e-16
6.45487e-17
3.36516e-17
2.06782e-17
1.54476e-17
1.59219e-17
2.26625e-17
3.75558e-17
5.87898e-17
5.99299e-17
3.02368e-17
8.04659e-18
1.33008e-14
1.49528e-14
1.95755e-14
2.55597e-14
2.89479e-14
2.84569e-14
2.58347e-14
2.01468e-14
1.43343e-14
1.07836e-14
7.39467e-15
4.11885e-15
1.70871e-15
7.84759e-16
3.48605e-16
2.33825e-16
1.80906e-16
2.06659e-16
2.75382e-16
3.99937e-16
3.813e-16
1.85662e-16
3.7716e-17
1.56916e-13
1.67322e-13
2.19303e-13
2.63928e-13
2.76028e-13
2.65333e-13
2.3868e-13
1.90645e-13
1.51921e-13
1.17545e-13
9.04873e-14
6.37185e-14
3.42633e-14
1.06343e-14
4.67127e-15
1.54301e-15
9.84888e-16
8.38477e-16
9.47896e-16
1.15334e-15
1.50605e-15
8.37594e-16
1.71183e-16
5.86378e-12
5.6206e-12
5.65083e-12
5.59285e-12
5.46795e-12
5.24661e-12
4.92627e-12
4.47987e-12
3.90276e-12
3.19329e-12
2.35117e-12
1.38695e-12
5.14004e-13
2.47454e-13
1.01634e-13
4.20431e-14
9.51349e-15
2.77175e-15
2.98204e-15
4.81e-15
4.20768e-15
2.1465e-15
3.59927e-16
5.00414e-11
4.97474e-11
5.03938e-11
5.01525e-11
4.8767e-11
4.62242e-11
4.30745e-11
3.99262e-11
3.641e-11
3.25258e-11
2.80016e-11
2.17515e-11
1.4013e-11
7.3362e-12
2.87321e-12
5.88426e-13
1.88045e-13
5.49931e-14
2.8134e-14
1.32656e-14
1.32096e-14
1.02351e-14
1.94554e-15
1.00737e-10
1.01992e-10
1.02977e-10
1.0211e-10
9.8208e-11
9.21829e-11
8.54041e-11
8.00892e-11
7.43055e-11
6.90229e-11
6.36855e-11
5.88385e-11
5.13846e-11
3.65033e-11
1.94336e-11
6.52277e-12
1.38648e-12
3.68284e-13
9.20241e-14
5.29251e-14
4.94416e-14
5.27126e-14
9.59255e-15
1.41631e-10
1.44729e-10
1.45275e-10
1.4365e-10
1.37339e-10
1.28623e-10
1.1848e-10
1.12582e-10
1.04961e-10
9.97683e-11
9.33892e-11
8.68671e-11
7.39307e-11
5.81586e-11
4.15035e-11
1.72888e-11
4.87173e-12
1.1674e-12
3.02014e-13
1.6906e-13
1.16869e-13
1.12255e-13
3.42464e-14
1.97467e-10
2.00056e-10
1.97169e-10
1.93543e-10
1.85462e-10
1.76756e-10
1.65313e-10
1.57782e-10
1.4552e-10
1.39834e-10
1.3464e-10
1.32411e-10
1.09249e-10
8.21025e-11
6.97386e-11
4.17597e-11
1.31592e-11
3.05534e-12
8.46734e-13
3.99384e-13
3.36174e-13
4.1334e-13
7.49082e-14
6.52043e-05
1.75788e-05
2.21286e-07
5.4241e-07
6.42555e-07
9.89436e-08
0.0850135
0.790692
0.924072
0.932092
0.935877
0.954781
0.953863
0.919534
0.890252
0.841355
0.655292
0.187144
0.147946
6.52019e-05
2.79731e-05
1.31214e-09
1.57096e-09
1.31414e-07
9.25718e-08
5.12341e-11
0.259138
0.814528
0.985909
0.997704
0.998945
0.995196
0.952963
0.934492
0.917442
0.746536
0.739057
0.289179
6.42485e-05
2.82637e-05
0.000444913
7.92453e-05
4.45342e-08
-1.80278e-10
7.64815e-17
0.000261602
0.0758827
0.46706
0.980202
0.998931
0.998967
0.96037
0.414852
0.381843
0.76063
0.782617
0.455223
4.98831e-05
0.0111438
0.0385098
0.0337059
0.010998
0.000196114
5.12341e-11
1.21389e-08
-1.22419e-06
0.00898519
0.358658
0.89982
0.949912
0.608897
0.0902697
0.0466679
0.178409
0.728578
0.523918
4.60093e-05
0.057437
0.0607857
0.0609993
0.0556016
0.015395
2.63907e-06
1.92747e-08
0.00111004
0.00153899
0.00690325
0.18465
0.20517
0.0734788
0.0134585
0.0020162
0.00732638
0.217115
0.438784
0.0224089
0.0530917
0.0387642
0.0270142
0.0441186
0.046165
0.0122731
8.22099e-06
0.000824131
0.00181913
0.00182529
0.00183462
0.00187468
0.00280392
0.00740819
0.00440244
0.00443647
0.0333964
0.138553
0.0424678
0.0194832
5.07842e-12
4.68938e-11
0.00704962
0.0412928
0.0393774
0.0162006
0.00282897
0.0016465
0.00156786
0.00167853
0.00182622
0.0115417
0.0162824
0.015258
0.0110673
0.00203452
1.43543e-09
0.0124513
3.83744e-08
4.69162e-08
1.6766e-08
7.59971e-10
0.0197768
0.0420747
0.0420607
0.0231745
0.000676641
0.000560555
0.00519292
0.0152141
0.0166738
0.0167766
0.00978794
0.00509513
0.00074495
1.45615e-09
2.62851e-10
2.70604e-10
2.55086e-10
2.49466e-10
2.47354e-10
2.44698e-10
2.40559e-10
2.28568e-10
2.20953e-10
2.2882e-10
2.37229e-10
2.13826e-10
1.72834e-10
1.29683e-10
1.22609e-10
1.39911e-10
9.04016e-11
1.7625e-11
4.30568e-12
2.46967e-12
2.89395e-12
2.6155e-12
7.50393e-14
3.29566e-10
3.52196e-10
3.18039e-10
3.64903e-10
3.89819e-10
3.50189e-10
3.35245e-10
3.19018e-10
3.0186e-10
3.27165e-10
3.72535e-10
3.26327e-10
2.34023e-10
2.15674e-10
2.23414e-10
3.0666e-10
3.10492e-10
1.69871e-10
8.63708e-11
6.95667e-11
2.62521e-12
2.62037e-12
2.46321e-09
3.24911e-10
3.25614e-10
4.09738e-10
7.00857e-10
8.35736e-10
8.10966e-10
3.38318e-10
3.18188e-10
3.01741e-10
3.27295e-10
6.91988e-10
7.46692e-10
5.58913e-10
2.86383e-10
2.16564e-11
3.01293e-11
9.74154e-13
1.03447e-12
2.39556e-12
2.60252e-12
6.29127e-08
1.02359e-07
3.00993e-08
0.097282
0.0845107
0.0630386
0.0356519
0.0112508
0.000443277
2.96538e-10
2.95542e-10
2.95588e-10
8.58188e-10
3.13482e-05
0.01184
0.0168721
0.0103964
0.00392966
0.000160876
2.71475e-07
2.32761e-06
3.46026e-06
3.46879e-06
2.12853e-06
5.38422e-07
7.13556e-13
0.811902
0.79112
0.750161
0.674028
0.552118
0.415647
0.305436
0.220657
0.183111
0.194133
0.221305
0.16821
0.074367
0.0407491
0.0205579
0.0111273
0.00292823
2.4259e-06
2.73678e-06
1.27507e-12
1.11312e-20
-1.03788e-11
-7.13556e-13
1
0.999999
0.999995
0.99999
0.999867
0.980397
0.935665
0.877898
0.824681
0.761325
0.506988
0.139569
0.0383216
0.0377489
0.0330107
0.0115815
0.0129665
0.00810824
0.00661786
0.0106983
0.0225894
0.055694
0.120151
1
1
1
0.999999
0.999992
0.99996
0.999811
0.987114
0.865581
0.709271
0.646051
0.640117
0.487988
0.307483
0.203384
0.149975
0.113759
0.107026
0.109685
0.131507
0.187339
0.295209
0.467268
1
0.999998
0.999983
0.999988
0.999992
0.996918
0.988724
0.990525
1
0.999999
0.999994
0.999983
0.999974
0.999974
0.95267
0.904002
0.869746
0.856424
0.864331
0.905736
0.959638
1
1
1
0.999997
0.999983
0.999999
0.99901
0.997793
0.998597
0.999999
0.999999
1
1
0.999999
0.999984
0.999982
0.999972
0.99997
0.999977
0.99999
0.999998
0.999999
1
1
1
1
0.999999
0.999989
1
0.999738
0.998389
0.999632
0.999944
0.999987
0.999998
1
1
1
1
0.999992
0.999971
0.99997
0.999979
0.999999
1
1
1
1
1
1
1
1
1
1
1
0.999996
0.999987
0.999995
1
1
1
1
1
1
1
1
0.999999
1
1
1
1
1
1
1
1
1
1
1
1
1
1
1
1
1
1
1
1
1
1
1
1
1
1
0.999977
1
1
1
1
1
1
1
1
1
1
1
1
1
1
1
1
1
1
1
1
0.999991
0.999997
0.999939
1
1
1
1
1
1
1
1
1
1
1
1
1
1
1
1
1
1
1
0.999999
0.999987
0.99999
0.999942
1
1
1
1
1
1
1
1
1
1
1
1
1
1
1
1
1
1
1
0.999999
0.999989
0.99999
1
1
1
1
1
1
1
1
1
1
1
1
1
1
1
1
1
1
1
1
0.999999
1
1
1
1
1
1
1
1
1
1
1
1
1
1
1
1
1
1
1
1
1
1
1
1
1
1
1
1
1
1
1
1
1
1
1
1
1
1
1
1
1
1
1
1
1
1
1
1
1
1
1
1
1
1
1
1
1
1
1
1
1
1
1
1
1
1
1
1
1
1
1
1
1
1
1
1
1
1
1
1
1
1
1
1
1
1
1
1
1
1
1
1
1
1
1
1
1
1
1
1
1
1
1
1
1
1
1
1
1
1
1
1
1
1
1
1
1
1
1
1
1
1
1
1
1
1
1
1
1
1
1
1
1
1
1
1
1
1
1
1
1
1
1
1
1
1
1
1
1
1
1
1
1
1
1
1
1
1
1
1
1
1
1
1
1
1
1
1
1
1
1
1
1
1
1
1
1
1
1
1
1
1
1
1
1
1
1
1
1
1
1
1
1
1
1
1
1
1
1
1
1
1
1
1
1
1
1
1
1
1
1
1
1
1
1
1
1
1
1
1
1
1
1
1
1
1
1
1
1
1
1
1
1
1
1
1
1
1
1
1
1
1
1
1
1
1
1
1
1
1
1
1
1
1
1
1
1
1
1
1
1
1
1
1
1
1
1
1
1
1
1
1
1
1
1
1
1
1
1
1
1
1
1
1
1
1
1
1
1
1
1
1
1
1
1
1
1
1
1
1
1
1
1
1
1
1
1
1
1
1
1
1
1
1
1
1
1
1
1
1
1
1
1
1
1
1
1
1
1
1
1
1
1
1
1
1
1
1
1
1
1
1
1
1
1
1
1
1
1
1
1
1
1
1
1
1
1
1
1
1
1
1
1
1
1
1
1
1
1
1
1
1
1
1
1
1
1
1
1
1
1
1
1
1
1
1
1
1
1
1
1
1
1
1
1
1
1
1
1
1
1
1
1
1
1
1
1
1
1
1
1
1
1
1
1
1
1
1
1
1
1
1
1
1
1
1
1
1
1
1
1
1
1
1
1
1
1
1
1
1
1
1
1
1
1
1
1
1
1
1
1
1
1
1
1
1
1
1
1
1
1
1
1
1
1
1
1
1
1
1
1
1
1
1
1
1
1
1
1
1
1
1
1
1
1
1
1
1
1
1
1
1
1
1
1
1
1
1
1
1
1
1
1
1
1
1
1
1
1
1
1
1
1
1
1
1
1
1
1
1
1
1
1
1
1
1
1
1
1
1
1
1
1
1
1
1
1
1
1
1
1
1
1
1
1
1
1
1
1
1
1
1
1
1
1
1
1
1
1
1
1
1
1
1
1
1
1
1
1
1
1
1
1
1
1
1
1
1
1
1
1
1
1
1
1
1
1
1
1
1
1
1
1
1
1
1
1
1
1
1
1
6.40842e-12
9.08969e-13
1.56622e-06
8.58548e-06
1.1231e-09
9.13171e-13
9.70086e-06
1.48805e-05
3.56914e-09
3.3629e-09
1.4964e-11
1.02893e-07
2.68964e-19
1.0989e-20
-1.4964e-11
-8.89526e-10
-2.84826e-19
2.63621e-05
0.00632523
0.0337735
0.163884
0.215526
0.274741
0.318274
0.605093
0.693783
0.79843
0.913411
1
1
1
1
1
1
1
1
1
1
1
1
1
1
1
0.999825
0.999991
0.999973
0.999893
0.999675
0.999946
0.9999
0.999846
0.999959
0.99995
1
1
1
1
1
1
1
1
1
1
1
1
1
1
1
1
1
1
1
1
1
1
1
1
1
1
1
1
1
1
1
1
1
1
1
1
1
1
1
1
1
1
1
1
1
1
1
1
1
1
1
1
1
1
1
1
1
1
1
1
1
1
1
1
1
1
1
1
1
1
1
1
1
1
1
1
1
1
1
1
1
1
1
1
1
1
1
1
1
1
1
1
1
1
1
1
1
1
1
1
1
1
1
1
1
1
1
1
1
1
1
1
1
1
1
1.9943e-07
2.14312e-07
4.76998e-07
2.90829e-07
4.72548e-09
1.77333e-11
0.0275984
0.0332867
0.015828
0.00023378
0.000500733
0.00720533
0.014412
0.0121559
0.00899057
0.00377891
2.94156e-05
1.25451e-05
7.25519e-07
7.5206e-06
1.02943e-06
5.30173e-07
4.09199e-07
2.10789e-08
6.26772e-11
1.69685e-08
3.85238e-10
1.11375e-06
1.5875e-06
1.3048e-06
8.53233e-05
0.0028158
0.00747486
0.0059688
0.00065521
5.05223e-08
4.04646e-08
2.12042e-07
-4.85139e-13
-7.4068e-09
-2.79429e-09
-8.41152e-10
-5.61078e-12
0.00191562
0.00457193
0.0078084
0.0142824
0.0315259
0.0381891
0.0450825
0.0484006
0.0440258
0.0178957
1.15617e-07
3.19661e-07
8.72375e-08
8.31092e-08
-4.83771e-19
0.00866286
0.0890327
0.152357
0.221585
0.264168
0.278004
0.287288
0.311822
0.333709
0.33251
0.335852
0.323076
0.210434
0.0195775
1.07474e-07
2.10912e-07
1.03485e-07
7.89644e-08
0.143686
0.331921
0.36976
0.473592
0.571668
0.654168
0.726077
0.790004
0.842181
0.879085
0.889494
0.856891
0.689584
0.35973
0.0106509
1.06357e-07
1.00795e-07
1.009e-07
0.00679628
0.467245
0.704169
0.924604
1
1
1
1
1
1
1
1
1
0.984899
0.48331
0.00870588
6.63994e-07
6.15746e-05
3.01499e-06
0.0117425
1
1
1
1
0.999999
1
1
1
1
0.999999
1
1
0.999998
0.60831
0.028269
0.000123695
0.000260077
6.48508e-06
0.0135624
1
0.999996
0.999968
0.999973
0.999997
1
1
1
0.999996
0.999973
0.999972
0.999994
0.999986
0.767797
0.0246946
0.000145272
0.000351556
3.73226e-06
0.00929047
0.999995
0.999746
0.999712
0.999944
1
1
1
1
0.999978
0.999965
0.99996
0.999968
0.999974
0.733168
0.000146749
0.000146675
0.000483714
3.10996e-06
4.67549e-05
0.99976
0.999616
0.999719
0.999989
1
1
1
1
0.999999
0.999999
0.991204
0.999968
0.890988
0.319842
0.000108878
0.000134321
0.000878161
0.00838239
0.000980515
0.999627
0.999659
1
1
1
1
1
1
0.998763
0.777282
0.407017
0.268435
0.175566
0.00204207
0.000105284
0.000149399
0.000980204
0.0584222
0.0867298
0.999679
1
1
1
1
1
1
0.999052
0.678227
0.0509589
2.89375e-07
2.58567e-07
2.58701e-07
2.58567e-07
0.00039737
0.000859418
0.000877601
0.0465581
0.0915749
1
1
1
1
1
1
1
0.922648
0.204568
9.59546e-08
2.00967e-07
2.69988e-07
2.58567e-07
2.58701e-07
0.000424291
0.000846414
0.000870786
0.0081043
0.0699019
1
1
1
1
1
1
1
0.951083
0.320662
9.34018e-08
9.60039e-08
1.89954e-07
7.96151e-06
2.15944e-05
6.27149e-05
0.000157993
0.000180496
3.77861e-06
0.00226254
1
1
1
1
1
1
1
0.999999
0.878447
0.195272
1.32514e-07
5.02613e-07
6.71227e-06
7.89984e-06
2.7758e-07
2.78466e-07
2.80379e-07
3.70785e-06
1.5294e-08
1
1
1
1
1
1
1
1
0.999999
0.806219
0.127306
1.1284e-07
1.40653e-07
7.15754e-08
2.67399e-07
3.99011e-07
5.30617e-07
2.35936e-06
1.52952e-08
1
1
1
1
1
1
1
1
1
0.999998
0.787847
0.131925
4.08782e-08
2.13679e-08
7.03547e-08
1.69143e-07
3.82991e-08
2.32622e-08
2.03607e-08
1
1
1
1
1
1
1
1
1
1
0.999998
0.888505
0.261605
1.14209e-08
4.43097e-09
1.37858e-11
1.87921e-11
3.84816e-10
5.92716e-09
1
1
1
1
1
1
1
1
1
1
1
0.999999
0.9979
0.739004
0.268815
0.050892
0.00824455
3.59664e-10
5.18137e-10
1
1
1
1
1
1
1
1
1
1
1
1
1
0.999999
0.999999
0.911689
0.532987
0.100815
5.17217e-10
1
1
1
1
1
1
1
1
1
1
1
1
1
1
0.999351
0.997772
0.999718
0.615778
5.17643e-10
1
1
1
1
1
1
1
1
1
1
1
1
1
1
0.999917
0.997204
0.999713
0.931576
0.0789278
1
1
1
1
1
1
1
1
1
1
1
1
1
1
1
0.998486
0.999587
0.995485
0.275609
1
1
1
1
1
1
1
1
1
1
1
1
1
1
1
0.999999
0.999916
1
0.343582
1
1
1
1
1
1
1
1
1
1
1
1
1
1
1
1
1
1
0.324386
1
1
1
1
1
1
1
1
1
1
1
1
1
1
1
1
1
0.985824
0.323592
1
1
1
1
1
1
1
1
1
1
1
1
1
1
1
1
1
0.95663
0.416504
1
1
1
1
1
1
1
1
1
1
1
1
1
1
1
1
1
0.998506
0.8446
1
1
1
1
1
1
1
1
1
1
1
1
1
1
1
1
1
1
0.795541
1
1
1
1
1
1
1
1
1
1
1
1
1
1
1
1
1
1
0.374749
1
1
1
1
1
1
1
1
1
1
1
1
1
1
1
1
1
0.993609
0.20851
1
1
1
1
1
1
1
1
1
1
1
1
1
1
1
1
1
0.92537
0.20851
1
1
1
1
1
1
1
1
1
1
1
1
1
1
1
1
1
0.805962
0.397909
1
1
1
1
1
1
1
1
1
1
1
1
1
1
1
1
0.972673
0.936203
0.999999
1
1
1
1
1
1
1
1
1
1
1
1
1
1
1
0.999861
0.986686
0.999998
0.999999
1
1
1
1
1
1
1
1
1
1
1
1
1
1
1
0.999954
0.999527
0.999893
0.984495
1
1
1
1
1
1
1
1
1
1
1
1
1
1
1
0.999998
1
1
0.73607
1
1
1
1
1
1
1
1
1
1
1
1
1
1
1
1
1
1
0.407286
1
1
1
1
1
1
1
1
1
1
1
1
1
1
1
1
1
1
0.269108
1
1
1
1
1
1
1
1
1
1
1
1
1
1
1
1
1
1
0.293645
1
1
1
1
1
1
1
1
1
1
1
1
1
1
1
1
1
1
0.543729
1
1
1
1
1
1
1
1
1
1
1
1
1
1
1
1
1
1
0.960356
)
;

boundaryField
{
    leftWall
    {
        type            alphaContactAngle;
        thetaProperties 
6
(
(galistan air) 90 0 0 0
(oil galistan) 90 0 0 0
(water oil) 90 0 0 0
(water air) 90 0 0 0
(oil air) 90 0 0 0
(water galistan) 90 0 0 0
);
        value           nonuniform List<scalar> 
50
(
7.37893e-16
1.33008e-14
1.56916e-13
5.86378e-12
5.00414e-11
1.00737e-10
1.41631e-10
1.97467e-10
2.62851e-10
3.29566e-10
3.24911e-10
0.097282
0.811902
1
1
1
1
1
1
1
1
1
1
1
1
1
1
1
1
1
1
1
1
1
1
1
1
1
1
1
1
1
1
1
1
1
1
1
1
1
)
;
    }
    rightWall
    {
        type            alphaContactAngle;
        thetaProperties 
6
(
(galistan air) 90 0 0 0
(oil galistan) 90 0 0 0
(water oil) 90 0 0 0
(water air) 90 0 0 0
(oil air) 90 0 0 0
(water galistan) 90 0 0 0
);
        value           nonuniform List<scalar> 
50
(
0.147946
0.289179
0.455223
0.523918
0.438784
0.138553
1.43543e-09
1.45615e-09
7.25519e-07
2.12042e-07
8.31092e-08
7.89644e-08
0.00679628
0.0117425
0.0135624
0.00929047
4.67549e-05
0.000980515
0.0867298
0.0915749
0.0699019
0.00226254
1.5294e-08
1.52952e-08
2.03607e-08
5.92716e-09
5.18137e-10
5.17217e-10
5.17643e-10
0.0789278
0.275609
0.343582
0.324386
0.323592
0.416504
0.8446
0.795541
0.374749
0.20851
0.20851
0.397909
0.999999
0.999999
0.984495
0.73607
0.407286
0.269108
0.293645
0.543729
0.960356
)
;
    }
    lowerWall
    {
        type            alphaContactAngle;
        thetaProperties 
6
(
(galistan air) 90 0 0 0
(oil galistan) 90 0 0 0
(water oil) 90 0 0 0
(water air) 90 0 0 0
(oil air) 90 0 0 0
(water galistan) 90 0 0 0
);
        value           nonuniform List<scalar> 
62
(
7.37893e-16
7.71509e-16
8.90345e-16
1.19406e-15
1.40717e-15
1.40334e-15
1.27468e-15
9.77933e-16
6.41651e-16
4.60936e-16
2.90759e-16
1.46597e-16
6.45487e-17
3.36516e-17
2.06782e-17
1.54476e-17
1.59219e-17
2.26625e-17
3.75558e-17
5.87898e-17
5.99299e-17
3.02368e-17
8.04659e-18
8.04659e-18
3.7716e-17
1.71183e-16
3.59927e-16
1.94554e-15
9.59255e-15
3.42464e-14
7.49082e-14
6.40842e-12
9.08969e-13
1.56622e-06
8.58548e-06
6.52043e-05
6.52019e-05
6.42485e-05
4.98831e-05
4.60093e-05
0.0224089
0.0424678
0.0124513
6.52043e-05
1.75788e-05
2.21286e-07
5.4241e-07
6.42555e-07
9.89436e-08
0.0850135
0.790692
0.924072
0.932092
0.935877
0.954781
0.953863
0.919534
0.890252
0.841355
0.655292
0.187144
0.147946
)
;
    }
    atmosphere
    {
        type            inletOutlet;
        inletValue      uniform 1;
        value           nonuniform List<scalar> 
46
(
1
1
1
1
1
1
1
1
1
1
1
1
1
1
1
1
1
1
1
1
1
1
1
1
1
1
1
1
1
1
1
1
1
1
1
1
1
1
1
1
1
1
1
1
1
0.960355
)
;
    }
    defaultFaces
    {
        type            empty;
    }
}


// ************************************************************************* //
