/*--------------------------------*- C++ -*----------------------------------*\
| =========                 |                                                 |
| \\      /  F ield         | OpenFOAM: The Open Source CFD Toolbox           |
|  \\    /   O peration     | Version:  2312                                  |
|   \\  /    A nd           | Website:  www.openfoam.com                      |
|    \\/     M anipulation  |                                                 |
\*---------------------------------------------------------------------------*/
FoamFile
{
    version     2.0;
    format      ascii;
    arch        "LSB;label=32;scalar=64";
    class       volScalarField;
    location    "0.55";
    object      alphas;
}
// * * * * * * * * * * * * * * * * * * * * * * * * * * * * * * * * * * * * * //

dimensions      [0 0 0 0 0 0 0];

internalField   nonuniform List<scalar> 
2268
(
2
2
2
2
2
2
2
2
2
2
2
2
2
2
2
2
2
2
2
2
2
2
1.99993
2
2
2
2
2
2
2
2
2
2
2
2
2
2
2
2
2
2
2
2
2
2
1.99993
2
2
2
2
2
2
2
2
2
2
2
2
2
2
2
2
2
2
2
2
2
2
1.99996
1.9659
1.97011
1.9699
1.96919
1.96822
1.96699
1.96582
1.96548
1.96736
1.97271
1.98264
1.99535
2
2
2
2
2
2
2
2
2
2
2
0.747676
0.771467
0.769921
0.765899
0.760475
0.753562
0.746965
0.74455
0.753834
0.783393
0.851411
0.99097
1.24685
1.60435
1.99486
2
2
2
2
2
2
2
2
3.0221e-10
3.05977e-10
3.0893e-10
3.06331e-10
2.94624e-10
2.76549e-10
2.56213e-10
2.40269e-10
2.22929e-10
2.07129e-10
1.91223e-10
1.76797e-10
0.011493
0.143349
0.616424
1.63385
2
2
2
2
2
2
2
4.24894e-10
4.34188e-10
4.35824e-10
4.30951e-10
4.12016e-10
3.85868e-10
3.55441e-10
3.37749e-10
3.1492e-10
2.99485e-10
2.80605e-10
2.61236e-10
2.22727e-10
1.75924e-10
1.25614e-10
0.341767
1.6953
2
2
2
2
2
1.99977
5.92402e-10
6.00169e-10
5.91506e-10
5.80628e-10
5.56386e-10
5.30269e-10
4.95943e-10
4.73352e-10
4.3664e-10
4.19841e-10
4.04684e-10
3.98343e-10
3.29889e-10
2.86659e-10
3.25529e-10
2.07898e-09
0.549681
1.95692
2
2
2
2
1.99962
1.00013
1.00004
1
1
1
1
1.18525
2.62432
2.89106
2.8991
2.88966
2.91905
2.92031
2.87391
2.85883
2.81467
2.52102
1.55422
1.38777
1.00013
1.00006
1
1
1
1
1.00185
1.54564
2.65483
2.98575
2.99755
2.99808
2.99117
2.91231
2.88313
2.88765
2.74178
2.73602
1.6746
1.00013
1.00006
1.00089
1.00016
1
1
1
1.00183
1.16181
1.94771
2.96601
2.99867
2.99868
2.92105
1.82976
1.76375
2.5729
2.77935
2.08068
1.0001
1.02229
1.16407
1.13923
1.02494
1.00039
1
1
1.0002
1.02073
1.72131
2.8016
2.89991
2.21786
1.20275
1.13021
1.38803
2.58747
2.34249
1.0001
1.40124
1.87303
1.85631
1.53129
1.05766
1.00001
1.00001
1.00225
1.00308
1.01409
1.36976
1.41033
1.14759
1.06743
1.10123
1.10911
1.59917
2.23488
1.16094
1.94978
2.00536
1.96301
1.95395
1.55364
1.04273
1.00002
1.00165
1.00364
1.00365
1.00367
1.00375
1.00684
1.10108
1.17918
1.25962
1.37737
1.63367
1.98973
1.99036
1.92684
1.8083
1.78652
1.76637
1.31242
1.03705
1.00672
1.00347
1.0034
1.00352
1.00366
1.10944
1.04581
0.803128
0.840237
1.23395
1.35767
1.9744
1.93735
1.48257
0.741692
0.73279
1.13602
1.31815
1.24441
1.20871
1.16003
1.12193
1.12205
1.17596
0.978661
0.489606
0.416249
0.755818
1.22464
1.3573
7.88554e-10
8.11813e-10
7.65259e-10
7.48399e-10
7.42062e-10
7.34097e-10
7.21692e-10
6.85718e-10
6.63019e-10
6.87076e-10
7.12998e-10
6.43262e-10
5.22151e-10
4.00427e-10
3.9092e-10
4.36969e-10
0.0071327
0.920308
1.91893
2
2
1.99999
1.99968
9.88699e-10
1.05659e-09
9.54116e-10
1.09471e-09
1.16946e-09
1.05072e-09
1.01269e-09
9.5708e-10
9.05835e-10
9.82379e-10
1.12004e-09
9.81501e-10
7.07137e-10
6.64708e-10
6.93757e-10
9.51595e-10
9.44894e-10
0.0021676
0.398204
1.19899
1.47131
1.56995
1.70945
9.74735e-10
9.76841e-10
1.22921e-09
2.10257e-09
2.50723e-09
2.43293e-09
1.32832e-09
9.54589e-10
9.0545e-10
9.83663e-10
2.14178e-09
2.2426e-09
1.74933e-09
9.85242e-10
6.93407e-11
1.29242e-10
3.44382e-11
1.28334e-08
3.57361e-08
0.0136507
3.54233e-06
3.54996e-06
0.0999201
0.291846
0.253532
0.189116
0.106956
0.0337523
0.00132984
1.48915e-06
8.86651e-10
8.87235e-10
2.64953e-09
9.40446e-05
0.0355203
0.0545257
0.0361347
0.0120573
0.000482628
8.14429e-07
6.98335e-06
1.03923e-05
1.04178e-05
6.53115e-06
2.96754e-06
0.000168977
2.4357
2.37336
2.25048
2.02208
1.65636
1.24695
0.916382
0.662371
0.549332
0.582398
0.716464
0.792798
0.73092
0.655366
0.49912
0.298353
0.0845447
7.55419e-06
8.28895e-06
0.00236808
0.0100198
0.0349459
0.108913
3
3
2.99999
2.99998
2.99961
2.94124
2.80704
2.64409
2.50524
2.38103
1.97808
1.27914
1.07664
1.0755
1.06168
0.997391
0.905158
0.770971
0.633234
0.544862
0.606361
0.76597
1.02216
3
3
3
3
2.99998
2.99992
2.99962
2.97423
2.73116
2.41854
2.2921
2.28023
1.97597
1.61496
1.40677
1.29995
1.22752
1.21405
1.21937
1.26301
1.37468
1.59042
1.93454
3
3
2.99997
2.99998
2.99998
2.99384
2.97745
2.98105
3
3
2.99998
2.99995
2.99992
2.99992
2.90533
2.80799
2.73949
2.71285
2.72866
2.81147
2.91928
3
3
3
2.99999
2.99997
3
2.99802
2.99559
2.99719
3
3
3
3
3
2.99995
2.99995
2.99991
2.99991
2.99993
2.99997
2.99999
3
3
3
3
3
3
2.99998
3
2.99948
2.99678
2.99926
2.99989
2.99997
3
3
3
3
3
2.99998
2.99991
2.99991
2.99994
3
3
3
3
3
3
3
3
3
3
3
3
2.99999
2.99997
2.99999
3
3
3
3
3
3
3
3
3
3
3
3
3
3
3
3
3
3
3
3
3
3
3
3
3
3
3
3
3
3
3
3
3
3
3
2.99995
3
3
3
3
3
3
3
3
3
3
3
3
3
3
3
3
3
3
3
3
2.99998
2.99999
2.99988
3
3
3
3
3
3
3
3
3
3
3
3
3
3
3
3
3
3
3
3
2.99997
2.99998
2.99988
3
3
3
3
3
3
3
3
3
3
3
3
3
3
3
3
3
3
3
3
2.99998
2.99998
3
3
3
3
3
3
3
3
3
3
3
3
3
3
3
3
3
3
3
3
3
3
3
3
3
3
3
3
3
3
3
3
3
3
3
3
3
3
3
3
3
3
3
3
3
3
3
3
3
3
3
3
3
3
3
3
3
3
3
3
3
3
3
3
3
3
3
3
3
3
3
3
3
3
3
3
3
3
3
3
3
3
3
3
3
3
3
3
3
3
3
3
3
3
3
3
3
3
3
3
3
3
3
3
3
3
3
3
3
3
3
3
3
3
3
3
3
3
3
3
3
3
3
3
3
3
3
3
3
3
3
3
3
3
3
3
3
3
3
3
3
3
3
3
3
3
3
3
3
3
3
3
3
3
3
3
3
3
3
3
3
3
3
3
3
3
3
3
3
3
3
3
3
3
3
3
3
3
3
3
3
3
3
3
3
3
3
3
3
3
3
3
3
3
3
3
3
3
3
3
3
3
3
3
3
3
3
3
3
3
3
3
3
3
3
3
3
3
3
3
3
3
3
3
3
3
3
3
3
3
3
3
3
3
3
3
3
3
3
3
3
3
3
3
3
3
3
3
3
3
3
3
3
3
3
3
3
3
3
3
3
3
3
3
3
3
3
3
3
3
3
3
3
3
3
3
3
3
3
3
3
3
3
3
3
3
3
3
3
3
3
3
3
3
3
3
3
3
3
3
3
3
3
3
3
3
3
3
3
3
3
3
3
3
3
3
3
3
3
3
3
3
3
3
3
3
3
3
3
3
3
3
3
3
3
3
3
3
3
3
3
3
3
3
3
3
3
3
3
3
3
3
3
3
3
3
3
3
3
3
3
3
3
3
3
3
3
3
3
3
3
3
3
3
3
3
3
3
3
3
3
3
3
3
3
3
3
3
3
3
3
3
3
3
3
3
3
3
3
3
3
3
3
3
3
3
3
3
3
3
3
3
3
3
3
3
3
3
3
3
3
3
3
3
3
3
3
3
3
3
3
3
3
3
3
3
3
3
3
3
3
3
3
3
3
3
3
3
3
3
3
3
3
3
3
3
3
3
3
3
3
3
3
3
3
3
3
3
3
3
3
3
3
3
3
3
3
3
3
3
3
3
3
3
3
3
3
3
3
3
3
3
3
3
3
3
3
3
3
3
3
3
3
3
3
3
3
3
3
3
3
3
3
3
3
3
3
3
3
3
3
3
3
3
3
3
3
3
3
3
3
3
3
3
3
3
3
3
3
3
3
3
3
3
3
3
3
3
3
3
3
3
3
3
3
3
3
3
3
3
3
3
3
3
3
3
3
3
3
3
3
3
3
3
3
3
3
3
3
3
3
3
3
3
3
3
3
3
3
3
3
3
3
3
3
3
3
3
3
3
3
3
3
3
3
3
3
3
3
3
3
3
3
3
3
3
3
3
3
3
3
3
1.99978
1.99979
1.99976
1.99977
1.7065
1.65544
1.56036
1.37827
0.167828
0.141582
0.062835
0.00759379
0.000551082
0.000972261
0.00134541
0.00575886
0.176781
0.236323
0.323196
0.489836
1.19866
1.35346
1.53048
1.63655
2.21019
2.38757
2.59686
2.82682
3
3
3
3
3
3
3
3
3
3
3
3
3
3
3
2.99965
2.99998
2.99995
2.99979
2.99935
2.99989
2.9998
2.99969
2.99992
2.9999
3
3
3
3
3
3
3
3
3
3
3
3
3
3
3
3
3
3
3
3
3
3
3
3
3
3
3
3
3
3
3
3
3
3
3
3
3
3
3
3
3
3
3
3
3
3
3
3
3
3
3
3
3
3
3
3
3
3
3
3
3
3
3
3
3
3
3
3
3
3
3
3
3
3
3
3
3
3
3
3
3
3
3
3
3
3
3
3
3
3
3
3
3
3
3
3
3
3
3
3
3
3
3
3
3
3
3
3
3
3
3
3
3
3
3
1.88941
1.12849
0.38217
0.043961
0.0531155
0.214658
0.607118
0.839155
0.847566
0.869461
0.948349
0.982623
0.827255
0.245214
0.135277
0.121843
0.560877
1.21974
1.35251
0.537156
0.0113721
0.00813583
0.00801413
0.00805422
0.00925442
0.00997145
0.0210559
0.0738773
0.100695
0.118765
0.125588
0.112139
0.0965037
0.0875115
0.465472
0.962201
1.01339
1.09488
0.0058353
0.00839786
0.0605199
0.170013
0.287039
0.342162
0.331994
0.33032
0.353231
0.418058
0.523103
0.64473
0.56537
0.434579
0.550755
0.946523
0.999983
0.999984
1.05243
0.0917595
0.352769
0.805372
1.135
1.35027
1.47781
1.51917
1.54655
1.61354
1.66742
1.66502
1.67
1.62988
1.36514
1.0066
0.997438
0.999982
0.99998
1.12845
1.00553
1.63152
1.73952
1.94718
2.14334
2.30834
2.45215
2.58001
2.68436
2.75817
2.77899
2.71378
2.37917
1.71946
1.0213
0.999066
0.999942
0.99999
1.14509
1.93449
2.40834
2.84921
3
3
3
3
3
3
3
3
3
2.9698
1.96663
1.01734
0.999755
1.0001
1.00001
1.15173
3
3
3
3
3
3
3
3
3
3
3
3
3
2.21664
1.05652
1.00025
1.00053
1.00002
1.13894
3
2.99999
2.99994
2.99995
2.99999
3
3
3
2.99999
2.99992
2.99992
2.99999
2.99998
2.5356
1.04939
1.00029
1.00072
1.00002
1.02773
2.99999
2.99949
2.99942
2.99989
3
3
3
3
2.99993
2.9999
2.99989
2.99992
2.99995
2.46634
1.00029
1.00029
1.00097
1.00002
1.00011
2.99952
2.99923
2.99944
2.99998
3
3
3
3
3
3
2.9824
2.99991
2.78198
1.63969
1.00026
1.00028
1.00176
1.01684
1.00197
2.99925
2.99932
3
3
3
3
3
3
2.99753
2.55456
1.81403
1.53687
1.35118
1.00424
1.00031
1.00033
1.00197
1.11699
1.17367
2.99936
3
3
3
3
3
3
2.9981
2.35645
1.10192
1
1
1.00006
1.00015
1.00095
1.00184
1.00178
1.0932
1.1834
3
3
3
3
3
3
3
2.8453
1.40914
1
1
1
1.00001
1.00011
1.001
1.00184
1.00177
1.01622
1.13999
3
3
3
3
3
3
3
2.90217
1.64132
1
1
1
1.00002
1.00006
1.00017
1.00037
1.00037
1.00001
1.00453
3
3
3
3
3
3
3
3
2.75689
1.39054
1
1
1.00001
1.00002
1
1
1
1.00001
1
3
3
3
3
3
3
3
3
3
2.61244
1.25461
1
1
1
1
1
1
1
1
3
3
3
3
3
3
3
3
3
3
2.57569
1.26385
1
1
1
1
1
1
1
3
3
3
3
3
3
3
3
3
3
3
2.77701
1.52321
1
1
1
1
1
1
3
3
3
3
3
3
3
3
3
3
3
3
2.9958
2.47801
1.53763
1.10178
1.01649
1
1
3
3
3
3
3
3
3
3
3
3
3
3
3
3
3
2.82338
2.06597
1.20163
1
3
3
3
3
3
3
3
3
3
3
3
3
3
3
2.9987
2.99554
2.99944
2.23156
1
3
3
3
3
3
3
3
3
3
3
3
3
3
3
2.99984
2.99441
2.99943
2.86315
1.15786
3
3
3
3
3
3
3
3
3
3
3
3
3
3
3
2.99697
2.99917
2.99097
1.55122
3
3
3
3
3
3
3
3
3
3
3
3
3
3
3
3
2.99983
3
1.68716
3
3
3
3
3
3
3
3
3
3
3
3
3
3
3
3
3
3
1.64877
3
3
3
3
3
3
3
3
3
3
3
3
3
3
3
3
3
2.97165
1.64718
3
3
3
3
3
3
3
3
3
3
3
3
3
3
3
3
3
2.91326
1.83301
3
3
3
3
3
3
3
3
3
3
3
3
3
3
3
3
3
2.99701
2.6892
3
3
3
3
3
3
3
3
3
3
3
3
3
3
3
3
3
3
2.59108
3
3
3
3
3
3
3
3
3
3
3
3
3
3
3
3
3
3
1.7495
3
3
3
3
3
3
3
3
3
3
3
3
3
3
3
3
3
2.98722
1.41702
3
3
3
3
3
3
3
3
3
3
3
3
3
3
3
3
3
2.85074
1.41702
3
3
3
3
3
3
3
3
3
3
3
3
3
3
3
3
3
2.61192
1.79582
3
3
3
3
3
3
3
3
3
3
3
3
3
3
3
3
2.94535
2.87241
3
3
3
3
3
3
3
3
3
3
3
3
3
3
3
3
2.99972
2.97337
3
3
3
3
3
3
3
3
3
3
3
3
3
3
3
3
3
2.99991
2.99905
2.99979
2.96899
3
3
3
3
3
3
3
3
3
3
3
3
3
3
3
3
3
3
2.47214
3
3
3
3
3
3
3
3
3
3
3
3
3
3
3
3
3
3
1.81457
3
3
3
3
3
3
3
3
3
3
3
3
3
3
3
3
3
3
1.53822
3
3
3
3
3
3
3
3
3
3
3
3
3
3
3
3
3
3
1.58729
3
3
3
3
3
3
3
3
3
3
3
3
3
3
3
3
3
3
2.08746
3
3
3
3
3
3
3
3
3
3
3
3
3
3
3
3
3
3
2.92071
)
;

boundaryField
{
    leftWall
    {
        type            calculated;
        value           nonuniform List<scalar> 
50
(
2
2
2
1.9659
0.747676
3.0221e-10
4.24894e-10
5.92402e-10
7.88554e-10
9.88699e-10
9.74735e-10
0.291846
2.4357
3
3
3
3
3
3
3
3
3
3
3
3
3
3
3
3
3
3
3
3
3
3
3
3
3
3
3
3
3
3
3
3
3
3
3
3
3
)
;
    }
    rightWall
    {
        type            calculated;
        value           nonuniform List<scalar> 
50
(
1.38777
1.6746
2.08068
2.34249
2.23488
1.63367
1.35767
1.3573
1.35251
1.09488
1.05243
1.12845
1.14509
1.15173
1.13894
1.02773
1.00011
1.00197
1.17367
1.1834
1.13999
1.00453
1
1
1
1
1
1
1
1.15786
1.55122
1.68716
1.64877
1.64718
1.83301
2.6892
2.59108
1.7495
1.41702
1.41702
1.79582
3
3
2.96899
2.47214
1.81457
1.53822
1.58729
2.08746
2.92071
)
;
    }
    lowerWall
    {
        type            calculated;
        value           nonuniform List<scalar> 
62
(
2
2
2
2
2
2
2
2
2
2
2
2
2
2
2
2
2
2
2
2
2
2
1.99993
1.99993
1.99993
1.99996
2
2
2
1.99977
1.99962
1.99978
1.99979
1.99976
1.99977
1.00013
1.00013
1.00013
1.0001
1.0001
1.16094
1.98973
1.9744
1.00013
1.00004
1
1
1
1
1.18525
2.62432
2.89106
2.8991
2.88966
2.91905
2.92031
2.87391
2.85883
2.81467
2.52102
1.55422
1.38777
)
;
    }
    atmosphere
    {
        type            calculated;
        value           nonuniform List<scalar> 
46
(
3
3
3
3
3
3
3
3
3
3
3
3
3
3
3
3
3
3
3
3
3
3
3
3
3
3
3
3
3
3
3
3
3
3
3
3
3
3
3
3
3
3
3
3
3
2.92071
)
;
    }
    defaultFaces
    {
        type            empty;
    }
}


// ************************************************************************* //
