/*--------------------------------*- C++ -*----------------------------------*\
| =========                 |                                                 |
| \\      /  F ield         | OpenFOAM: The Open Source CFD Toolbox           |
|  \\    /   O peration     | Version:  2312                                  |
|   \\  /    A nd           | Website:  www.openfoam.com                      |
|    \\/     M anipulation  |                                                 |
\*---------------------------------------------------------------------------*/
FoamFile
{
    version     2.0;
    format      ascii;
    arch        "LSB;label=32;scalar=64";
    class       volScalarField;
    location    "0.55";
    object      alpha.oil;
}
// * * * * * * * * * * * * * * * * * * * * * * * * * * * * * * * * * * * * * //

dimensions      [0 0 0 0 0 0 0];

internalField   nonuniform List<scalar> 
2268
(
1.38011e-27
6.9976e-27
2.79866e-25
4.60021e-24
4.63271e-23
2.00499e-22
4.64413e-22
7.86109e-22
2.18002e-21
9.16858e-21
2.58836e-20
3.36672e-20
2.39164e-20
2.07584e-20
1.91793e-20
2.11406e-20
1.36079e-15
1.58768e-14
7.44268e-13
4.03814e-11
1.14499e-10
1.46425e-12
7.41608e-05
2.97053e-26
1.96644e-25
8.17875e-24
1.17724e-22
1.06742e-21
4.50872e-21
1.0692e-20
1.79805e-20
5.30662e-20
2.39964e-19
7.93812e-19
1.4797e-18
8.65921e-19
5.75022e-19
3.71828e-19
2.12881e-20
8.43723e-14
3.59536e-12
6.18038e-11
3.03293e-10
3.98125e-10
6.59216e-29
7.41809e-05
4.62837e-25
2.65314e-24
1.07704e-22
1.43698e-21
9.93364e-21
4.16921e-20
1.02976e-19
1.74086e-19
5.77443e-19
2.76485e-18
1.03895e-17
3.37848e-17
2.66055e-17
1.14194e-17
5.7503e-18
2.13023e-20
8.08831e-14
3.86989e-12
6.26769e-11
2.86803e-10
2.09349e-10
-4.33097e-14
4.02759e-05
4.68575e-22
4.01291e-22
2.02822e-20
1.54395e-19
7.33905e-19
2.65646e-18
6.2557e-18
1.22099e-17
5.84015e-17
2.79764e-16
7.88345e-16
1.08528e-15
6.77448e-16
3.63085e-16
1.6319e-16
5.98489e-17
6.63625e-14
2.51971e-12
4.63702e-11
1.09975e-10
8.00686e-20
-1.53452e-15
8.32064e-08
4.69899e-20
1.22489e-20
8.48287e-19
5.19579e-18
2.13831e-17
7.10368e-17
1.50596e-16
3.26869e-16
2.39854e-15
1.21741e-14
3.52654e-14
5.39698e-14
4.34105e-14
2.95159e-14
1.43517e-14
3.03785e-15
2.33455e-14
1.29144e-11
3.18979e-11
3.18243e-11
7.22549e-08
4.9374e-08
7.58004e-09
3.58938e-19
4.63521e-20
3.85671e-18
2.09707e-17
8.11883e-17
2.59647e-16
5.19256e-16
1.23833e-15
1.19333e-14
6.0554e-14
1.66934e-13
2.81928e-13
3.74818e-13
3.31886e-13
2.22841e-13
9.006e-14
3.35234e-14
1.98015e-11
5.34056e-12
1.13388e-08
1.18243e-07
5.09162e-08
4.95948e-09
2.32761e-18
1.59578e-19
1.26088e-17
5.69627e-17
2.04845e-16
6.27128e-16
1.19461e-15
3.14898e-15
3.77805e-14
1.80401e-13
4.37597e-13
6.34252e-13
9.35499e-13
1.44847e-12
1.10391e-12
4.45782e-13
1.05603e-13
1.97823e-11
8.10982e-11
1.32044e-08
3.25579e-08
2.74667e-08
0.00023019
1.49118e-17
5.70998e-19
3.75332e-17
1.3232e-16
4.32702e-16
1.27308e-15
2.93153e-15
6.61746e-15
7.88257e-14
3.38791e-13
7.63515e-13
1.10698e-12
1.8819e-12
3.70944e-12
3.24269e-12
1.68364e-12
8.85582e-13
1.05733e-11
9.42608e-12
9.24975e-12
9.91793e-08
5.13531e-07
0.00038251
0.999935
0.999982
1
0.999999
0.999999
1
0.899763
0.166374
0.0330119
0.0329929
0.0462185
0.0357338
0.0335517
0.0456242
0.0314263
0.0266837
0.134274
0.632928
0.760172
0.999935
0.999972
1
1
1
1
0.998154
0.713497
0.159697
0.000154244
0.000154244
0.000869283
0.00402034
0.0406477
0.0513629
0.0297959
0.0047591
0.00303261
0.614582
0.999936
0.999972
0.999555
0.999921
1
1
0.999999
0.99843
0.91407
0.51935
0.0141957
0.000256865
0.000284183
0.0393226
0.585085
0.618095
0.187734
0.00326613
0.374541
0.99995
0.988856
0.874435
0.894457
0.986059
0.999804
1
1
0.999799
0.988251
0.637343
0.0982187
0.0500037
0.391033
0.887517
0.916451
0.790374
0.141105
0.181431
0.99995
0.656178
0.176384
0.178459
0.51452
0.95773
0.999995
0.999991
0.998859
0.998461
0.992816
0.814885
0.794815
0.925889
0.946033
0.900782
0.898221
0.617944
0.203901
0.861465
0.0933347
0.000245594
0.000245596
0.000245594
0.484894
0.969545
0.99999
0.999176
0.998181
0.998173
0.998163
0.998124
0.995965
0.747772
0.475556
0.561796
0.597706
0.503499
0.0402027
0.000245594
0.000245594
0.000245594
0.000245596
0.0373131
0.680934
0.97915
0.996105
0.998173
0.998163
0.998163
0.998163
0.882917
0.333554
0.0428592
0.0919715
0.513252
0.642323
0.000245616
0.000245609
0.000245593
0.000245594
0.000245594
0.000245667
0.181241
0.565849
0.68473
0.792752
0.878628
0.883141
0.839249
0.519137
0.0568501
0.037559
0.0433599
0.507051
0.642701
6.06375e-17
2.09682e-18
9.92591e-17
2.75443e-16
8.45241e-16
3.14334e-15
1.58164e-14
1.33406e-14
1.58433e-13
6.15449e-13
1.31107e-12
1.78194e-12
3.34761e-12
7.75293e-12
8.03656e-12
6.34814e-12
2.33082e-12
9.40465e-14
6.9828e-07
2.2384e-06
2.7609e-06
1.41301e-05
0.00032147
4.07506e-16
1.22113e-17
3.0847e-16
5.77383e-16
2.12503e-15
1.48753e-13
6.95187e-12
2.47597e-14
2.54526e-13
8.8343e-13
2.43104e-12
2.51539e-12
5.06027e-12
1.76445e-11
2.23602e-11
2.11326e-11
1.21269e-11
9.42526e-14
4.49347e-07
2.02634e-06
2.92945e-07
0.000188471
0.00073693
2.60749e-15
1.97722e-17
3.52581e-16
7.7086e-16
2.23567e-14
3.18177e-14
3.13367e-10
2.57958e-14
2.27958e-13
1.77822e-12
6.58146e-11
2.52065e-12
7.25847e-11
1.26086e-10
4.33797e-12
3.69266e-11
3.02242e-11
1.3881e-11
7.14955e-13
7.72813e-07
2.96105e-07
3.24616e-07
0.000265555
1.10245e-11
6.26908e-27
-1.9126e-25
-3.51952e-24
-4.35229e-22
1.10149e-08
1.48827e-06
2.59699e-14
4.71027e-13
7.49611e-11
6.61096e-11
2.85182e-07
0.00390936
0.00494551
0.000268284
1.12559e-09
3.07589e-19
6.0649e-20
1.11104e-19
6.16853e-20
5.32417e-21
1.34562e-06
0.000168977
1.42907e-09
4.7833e-08
5.7934e-07
1.95288e-06
1.65032e-06
9.70537e-06
7.42721e-05
0.000398478
1.36384e-20
1.21916e-19
0.0525495
0.288169
0.507819
0.533119
0.437446
0.264971
0.07576
2.765e-07
7.81242e-08
0.00236804
0.0100198
0.0349458
0.108913
2.10271e-08
6.76991e-07
4.94912e-06
1.03162e-05
9.91665e-06
4.28269e-05
4.38946e-05
0.0104
0.031195
0.0970556
0.457115
0.860431
0.961678
0.962251
0.962651
0.962646
0.866258
0.746647
0.613381
0.512767
0.538592
0.598888
0.661706
1.06674e-08
1.6354e-08
2.01096e-08
9.19797e-07
8.19988e-06
3.96935e-05
0.000188545
0.0128859
0.134419
0.290729
0.353949
0.35988
0.512005
0.692514
0.796616
0.850025
0.886241
0.892974
0.890315
0.868493
0.812661
0.704791
0.532732
9.57477e-09
2.31885e-06
1.70715e-05
1.23469e-05
7.67075e-06
0.0030817
0.0112755
0.00947442
-6.96275e-10
4.71702e-16
-7.67278e-11
-5.74205e-27
2.50995e-19
1.15888e-12
0.0473188
0.095987
0.130249
0.143575
0.135669
0.0942643
0.0403617
4.23217e-15
1.60728e-21
9.50071e-09
3.12763e-06
1.72497e-05
7.04948e-07
0.000989326
0.0022069
0.00140268
5.51773e-07
7.02219e-07
2.36154e-07
6.94605e-08
1.99596e-08
1.22287e-08
2.45232e-09
1.2788e-25
1.11883e-25
-1.64382e-20
1.8669e-25
2.54798e-19
2.12259e-26
1.02655e-27
3.06685e-10
1.0299e-09
1.03732e-08
1.35117e-06
1.13732e-05
3.68407e-07
0.000262007
0.00161106
0.000368321
5.64288e-05
1.27179e-05
2.15379e-06
1.09342e-07
4.64485e-08
3.41393e-08
6.44191e-08
1.1569e-07
1.15409e-07
9.07763e-08
3.64698e-08
6.71738e-09
5.05798e-09
8.32317e-09
1.20496e-08
6.1375e-09
5.23082e-09
1.65176e-07
1.062e-07
3.68346e-07
2.23874e-08
1.60669e-08
1.33625e-08
3.57498e-06
1.3016e-05
5.43449e-06
4.5793e-08
3.23604e-08
1.093e-08
1.64329e-08
8.20341e-08
1.06401e-07
8.56555e-08
3.41403e-08
2.66773e-08
8.97518e-08
2.17201e-08
1.97694e-08
3.34478e-09
1.05527e-09
1.02072e-09
1.77713e-09
9.27709e-08
2.95181e-07
1.72128e-07
1.91193e-08
5.78991e-09
4.40537e-09
1.11288e-09
2.59248e-08
1.32042e-08
2.4142e-09
3.61881e-10
2.7459e-10
3.71247e-10
4.5779e-10
3.27691e-10
1.59382e-08
3.33178e-07
3.19205e-07
1.96648e-08
2.33379e-05
2.77281e-10
1.26553e-09
3.52237e-09
8.65121e-09
5.21553e-08
1.86797e-08
8.49431e-09
5.25254e-09
3.13882e-09
1.04543e-09
3.57006e-10
2.03606e-10
1.79134e-10
2.4794e-10
5.24749e-10
1.51328e-09
3.37484e-09
3.39639e-10
8.66842e-08
2.64033e-07
9.33386e-06
2.62244e-06
6.0944e-05
2.8369e-11
3.34014e-10
1.05755e-09
1.7424e-09
2.53291e-09
8.03893e-10
9.79187e-10
1.54275e-09
1.73378e-09
1.25895e-09
6.38579e-10
2.84951e-10
1.84048e-10
3.137e-10
8.06966e-10
2.48303e-09
6.10821e-09
3.27795e-10
1.37698e-07
8.56366e-07
1.29295e-05
9.66109e-06
5.76066e-05
4.14207e-12
4.34823e-11
1.47205e-10
2.38219e-10
1.80058e-10
2.07489e-10
3.83229e-10
5.43773e-10
5.45042e-10
3.81919e-10
1.98252e-10
8.83949e-11
9.57592e-11
2.69608e-10
8.26893e-10
2.73414e-09
7.6482e-09
4.07607e-09
4.44671e-08
1.23702e-06
1.06027e-05
9.98395e-06
9.26388e-10
1.51053e-13
1.70365e-12
1.04726e-11
1.84251e-11
2.85861e-11
4.00382e-11
3.21027e-11
1.59885e-11
4.60495e-12
7.43065e-13
1.84709e-12
1.27979e-11
6.5283e-11
2.43268e-10
8.08787e-10
2.4368e-09
7.43746e-09
5.91385e-09
4.29886e-08
7.65519e-07
4.47046e-10
4.52041e-10
4.38472e-09
9.4221e-15
9.23591e-14
4.87758e-13
1.42694e-12
4.22632e-12
6.70547e-12
5.38403e-12
2.94649e-12
9.6768e-13
5.01262e-13
2.16385e-12
1.33668e-11
5.83813e-11
2.16301e-10
7.18246e-10
1.91982e-09
4.87369e-09
4.53056e-09
1.22262e-09
5.44226e-10
5.42268e-10
2.34873e-09
5.46546e-09
2.38943e-16
3.76486e-15
2.81468e-14
1.53359e-13
4.67577e-13
7.12157e-13
5.00769e-13
2.23042e-13
8.85009e-14
3.44972e-13
2.08439e-12
1.10363e-11
4.59112e-11
1.69247e-10
5.60435e-10
1.44965e-09
2.6916e-09
3.22122e-09
2.11268e-09
1.12462e-09
5.11459e-10
8.07757e-11
5.72176e-11
1.27534e-17
1.4883e-16
1.25214e-15
5.09122e-15
1.26567e-14
1.55536e-14
9.11861e-15
8.10989e-15
4.19422e-14
2.82017e-13
1.60436e-12
7.88167e-12
3.15322e-11
1.14527e-10
3.9323e-10
1.00424e-09
1.80119e-09
2.44626e-09
2.17182e-09
1.20119e-09
4.15589e-10
6.99081e-11
3.12752e-11
1.68168e-21
9.30555e-22
2.18214e-20
3.57519e-19
4.63333e-18
5.00978e-17
4.60761e-16
3.97705e-15
2.99956e-14
1.97018e-13
1.03508e-12
4.8288e-12
1.84602e-11
6.62938e-11
2.06972e-10
4.81463e-10
8.73164e-10
1.17042e-09
1.04905e-09
6.02388e-10
1.76788e-10
4.137e-11
1.95639e-11
8.12122e-24
3.57693e-22
9.36976e-21
1.68243e-19
2.36192e-18
2.6797e-17
2.66445e-16
2.27874e-15
1.72139e-14
1.09482e-13
5.74675e-13
2.46857e-12
8.8231e-12
2.71654e-11
6.44617e-11
1.25041e-10
1.89774e-10
2.39511e-10
2.21776e-10
1.33146e-10
5.10917e-11
2.48071e-11
1.07997e-11
2.0841e-24
1.01814e-22
3.00291e-21
5.95487e-20
9.04079e-19
1.09586e-17
1.12114e-16
9.60199e-16
7.40229e-15
4.63674e-14
2.42684e-13
9.82793e-13
3.15029e-12
7.5547e-12
1.34051e-11
2.0746e-11
2.63118e-11
3.09999e-11
3.25961e-11
3.04344e-11
2.26207e-11
1.22364e-11
6.04626e-12
3.94407e-25
2.11728e-23
6.82758e-22
1.45406e-20
2.32882e-19
2.93662e-18
3.09904e-17
2.73783e-16
2.06346e-15
1.28212e-14
6.9831e-14
2.9234e-13
9.67077e-13
2.42796e-12
4.94441e-12
8.49944e-12
1.25241e-11
1.57564e-11
1.67908e-11
1.46528e-11
1.03948e-11
6.48026e-12
3.28604e-12
4.34472e-26
2.5635e-24
8.96804e-23
2.05311e-21
3.50251e-20
4.67394e-19
5.04289e-18
4.7032e-17
3.65307e-16
2.40787e-15
1.35027e-14
5.94997e-14
2.00693e-13
5.55219e-13
1.27494e-12
2.4339e-12
3.94651e-12
5.3685e-12
6.16714e-12
5.99246e-12
4.74479e-12
2.80022e-12
1.64062e-12
3.14325e-27
1.98294e-25
7.34358e-24
1.82249e-22
3.31715e-21
4.72311e-20
5.49189e-19
5.42289e-18
4.57834e-17
3.26326e-16
1.91929e-15
8.94655e-15
3.33266e-14
1.02085e-13
2.51051e-13
5.25388e-13
9.37101e-13
1.43754e-12
1.81733e-12
1.91537e-12
1.62936e-12
1.3157e-12
6.94981e-13
1.49042e-28
1.07192e-26
4.28116e-25
1.18968e-23
2.37352e-22
3.72482e-21
4.76408e-20
5.07719e-19
4.53788e-18
3.426e-17
2.07174e-16
1.05079e-15
4.37875e-15
1.42959e-14
4.00196e-14
9.50758e-14
1.86015e-13
3.09993e-13
4.39738e-13
5.30807e-13
5.27348e-13
3.77064e-13
2.80686e-13
5.99064e-30
4.61257e-28
2.04956e-26
6.18542e-25
1.354e-23
2.3255e-22
3.23365e-21
3.71682e-20
3.58083e-19
2.86375e-18
1.88028e-17
1.01823e-16
4.54898e-16
1.67378e-15
5.17698e-15
1.3455e-14
2.96053e-14
5.60189e-14
9.02747e-14
1.17044e-13
1.24873e-13
1.28416e-13
8.81355e-14
1.81771e-31
1.58068e-29
7.53799e-28
2.43799e-26
5.75807e-25
1.07567e-23
1.62599e-22
2.08175e-21
2.18324e-20
1.86158e-19
1.3172e-18
7.66191e-18
3.67592e-17
1.49523e-16
5.2686e-16
1.55182e-15
3.8209e-15
8.18352e-15
1.49176e-14
2.28504e-14
2.81605e-14
2.59002e-14
2.50892e-14
4.27902e-33
4.02133e-31
2.16617e-29
7.75279e-28
2.01187e-26
4.13091e-25
6.9548e-24
9.69529e-23
1.09027e-21
1.0031e-20
7.6911e-20
4.9112e-19
2.62779e-18
1.17799e-17
4.4508e-17
1.42156e-16
3.92779e-16
9.39284e-16
1.92734e-15
3.29978e-15
4.58373e-15
6.10232e-15
5.62669e-15
7.73263e-35
8.32159e-33
4.93327e-31
1.96119e-29
5.6733e-28
1.29852e-26
2.38578e-25
3.54369e-24
4.29455e-23
4.29714e-22
3.58981e-21
2.52186e-20
1.49705e-19
7.53316e-19
3.22421e-18
1.18008e-17
3.71576e-17
1.00333e-16
2.33608e-16
4.73948e-16
7.75442e-16
9.66829e-16
1.11777e-15
9.29156e-37
1.21116e-34
8.26931e-33
3.6737e-31
1.19951e-29
3.0652e-28
6.18248e-27
1.01395e-25
1.36504e-24
1.53405e-23
1.43969e-22
1.14487e-21
7.65259e-21
4.3354e-20
2.10253e-19
8.68499e-19
3.07539e-18
9.35168e-18
2.43928e-17
5.3889e-17
9.86463e-17
1.57909e-16
1.85313e-16
7.87384e-39
1.22564e-36
9.56835e-35
4.82351e-33
1.77543e-31
4.98863e-30
1.11968e-28
2.05265e-27
3.11669e-26
3.93369e-25
4.19977e-24
3.75784e-23
2.86855e-22
1.85627e-21
1.02731e-20
4.87309e-20
1.98569e-19
6.9592e-19
2.09634e-18
5.39003e-18
1.15218e-17
1.97059e-17
2.7108e-17
4.14917e-41
8.65266e-39
8.03024e-37
4.62148e-35
1.91046e-33
6.08094e-32
1.53398e-30
3.17035e-29
5.48096e-28
7.89645e-27
9.6282e-26
9.95058e-25
8.72688e-24
6.51884e-23
4.15749e-22
2.2758e-21
1.07773e-20
4.4199e-20
1.54257e-19
4.49331e-19
1.11437e-18
2.24495e-18
3.50399e-18
1.44893e-43
4.1709e-41
4.60454e-39
3.08265e-37
1.47152e-35
5.38459e-34
1.57181e-32
3.73602e-31
7.41729e-30
1.2313e-28
1.74753e-27
2.10726e-26
2.17654e-25
1.92624e-24
1.45933e-23
9.45514e-23
5.22872e-22
2.45449e-21
9.78721e-21
3.30072e-20
9.36793e-20
2.18318e-19
4.03084e-19
2.6013e-46
1.26699e-43
1.79111e-41
1.4367e-39
8.02424e-38
3.40425e-36
1.15442e-34
3.18477e-33
7.3043e-32
1.42491e-30
2.34833e-29
3.29811e-28
3.99691e-27
4.13051e-26
3.68218e-25
2.83898e-24
1.87658e-23
1.05463e-22
4.97265e-22
1.98342e-21
6.66389e-21
1.85288e-20
4.03879e-20
2.53858e-49
2.3374e-46
4.37781e-44
4.33476e-42
2.92229e-40
1.48144e-38
5.95422e-37
1.95751e-35
5.36612e-34
1.24166e-32
2.45377e-31
4.12749e-30
6.01128e-29
7.47763e-28
8.00343e-27
7.35284e-26
5.77072e-25
3.84541e-24
2.15737e-23
1.01722e-22
4.12829e-22
1.35653e-21
3.52115e-21
1.01959e-52
2.27011e-49
6.14823e-47
7.77524e-45
6.46978e-43
3.98556e-41
1.93446e-39
7.67983e-38
2.54318e-36
7.07496e-35
1.66512e-33
3.35027e-32
5.78524e-31
8.60929e-30
1.10927e-28
1.24129e-27
1.20345e-26
1.00224e-25
7.09451e-25
4.15828e-24
2.06411e-23
7.89464e-23
2.8249e-22
1.54199e-56
1.25713e-52
5.44893e-50
9.04323e-48
9.53128e-46
7.40983e-44
4.48338e-42
2.20492e-40
9.0144e-39
3.10618e-37
9.08869e-36
2.27258e-34
4.95195e-33
9.20339e-32
1.47509e-30
2.03662e-29
2.41341e-28
2.44228e-27
2.10261e-26
1.53324e-25
9.36494e-25
4.61625e-24
1.76727e-23
4.76498e-61
1.86403e-56
1.67076e-53
3.91953e-51
5.53006e-49
5.59386e-47
4.37958e-45
2.76332e-43
1.43892e-41
6.27861e-40
2.32021e-38
7.32042e-37
1.98435e-35
4.64278e-34
9.40427e-33
1.65186e-31
2.51497e-30
3.30417e-29
3.74704e-28
3.544e-27
2.93197e-26
1.89619e-25
9.83662e-25
1.77775e-66
5.37864e-61
1.37883e-57
5.00101e-55
1.0146e-52
1.44383e-50
1.57702e-48
1.38297e-46
9.98437e-45
6.02214e-43
3.06204e-41
1.32041e-39
4.85219e-38
1.52682e-36
4.13641e-35
9.70593e-34
1.98223e-32
3.52007e-31
5.35669e-30
6.87747e-29
7.86194e-28
6.68842e-27
4.46627e-26
7.73808e-74
7.05947e-67
7.56812e-63
4.93147e-60
1.60507e-57
3.55062e-55
5.94092e-53
7.91878e-51
8.65797e-49
7.90927e-47
6.11402e-45
4.03666e-43
2.29191e-41
1.12386e-39
4.76364e-38
1.73993e-36
5.44429e-35
1.44994e-33
3.2648e-32
6.17358e-31
9.72923e-30
1.16606e-28
1.46687e-27
5.11067e-86
1.1881e-75
1.02714e-70
1.6772e-67
1.19277e-64
5.61511e-62
1.98881e-59
5.60049e-57
1.29089e-54
2.477e-52
3.99935e-50
5.47401e-48
6.38479e-46
6.36412e-44
5.42143e-42
3.93825e-40
2.43136e-38
1.27067e-36
5.58689e-35
2.04312e-33
6.0879e-32
1.41995e-30
2.3992e-29
0.000223719
0.000150288
0.00011189
0.000109994
0.00105798
0.00124263
0.0011378
0.00125851
0.00055433
0.00111117
0.00135423
0.00293482
0.000551082
0.000972261
0.00134541
0.00575887
0.176781
0.236244
0.30422
0.388516
0.707005
0.706876
0.706256
0.681726
0.394907
0.306217
0.20157
0.0865888
-2.39077e-25
-1.01157e-11
3.19877e-09
4.78782e-09
1.38799e-09
1.16445e-09
1.91041e-08
4.37204e-08
4.03532e-09
1.38217e-09
3.46478e-08
1.25979e-07
4.12165e-09
2.96357e-07
3.50878e-08
0.000175213
9.07631e-06
2.70787e-05
0.000106753
0.000324933
5.39168e-05
0.000100066
0.00015441
4.14229e-05
5.02824e-05
1.66943e-08
5.07453e-08
1.53207e-08
9.10301e-10
2.60827e-08
5.61227e-08
5.6912e-08
8.9415e-10
1.54474e-10
8.10803e-11
7.9966e-11
1.46688e-09
2.70331e-10
7.74848e-11
1.02902e-10
5.20846e-11
5.69354e-11
6.43924e-11
6.61856e-11
2.87732e-11
2.82159e-11
2.8007e-11
3.09019e-11
1.38727e-11
1.27665e-11
1.35117e-11
1.50463e-11
6.81776e-12
6.26808e-12
6.28874e-12
7.16163e-12
3.39999e-12
2.8799e-12
2.98916e-12
3.55139e-12
1.67981e-12
1.36939e-12
1.31617e-12
1.58995e-12
7.70964e-13
5.95846e-13
6.09798e-13
8.02684e-13
3.43391e-13
2.67894e-13
2.60603e-13
3.83214e-13
1.3482e-13
1.05512e-13
1.23581e-13
2.15077e-13
4.78919e-14
4.02851e-14
5.46869e-14
1.24095e-13
1.42168e-14
1.34397e-14
2.35359e-14
6.13908e-14
3.91675e-15
4.23542e-15
8.64788e-15
2.57602e-14
8.81446e-16
9.45061e-16
1.94582e-15
6.5245e-15
1.69516e-16
1.91647e-16
4.15588e-16
1.52731e-15
2.84397e-17
3.45107e-17
9.05668e-17
4.20251e-16
4.63533e-18
8.16489e-18
3.09021e-17
1.63376e-16
6.57134e-19
1.74295e-18
9.65909e-18
6.33344e-17
7.84134e-20
2.10071e-19
1.28651e-18
9.91838e-18
8.04783e-21
2.31522e-20
1.63944e-19
1.43759e-18
7.309e-22
2.15357e-21
1.62731e-20
1.59004e-19
6.1364e-23
2.17224e-22
1.98444e-21
2.31099e-20
4.06586e-24
1.79789e-23
1.98718e-22
2.54611e-21
2.34041e-25
9.61534e-25
1.14804e-23
2.09616e-22
1.03461e-26
4.42021e-26
5.07274e-25
1.14463e-23
2.72267e-28
1.28504e-27
8.64121e-27
1.85845e-25
0.000442063
0.000275403
0.00131247
0.00349598
0.00363498
0.003168
0.00379786
0.0424203
0.0929686
0.154041
0.219846
0.233829
0.166561
0.0531067
0.0422273
0.049488
0.443987
0.676366
0.64749
0.00232853
0.00436264
0.00813424
0.0080129
0.00805415
0.00925442
0.0099714
0.00840372
0.00853444
0.00952758
0.0205186
0.0309223
0.0412514
0.0609297
0.0685772
0.463507
0.962201
0.977544
0.905058
0.0058353
0.00839788
0.0605199
0.170013
0.287039
0.336415
0.318278
0.306895
0.310384
0.32348
0.408535
0.509472
0.420169
0.302502
0.497068
0.946523
0.999982
0.999982
0.947508
0.0917595
0.32678
0.538274
0.677927
0.685511
0.68531
0.68516
0.68469
0.678077
0.666289
0.667487
0.662435
0.660647
0.733835
0.947865
0.997438
0.999982
0.99998
0.871543
0.574476
0.635756
0.63024
0.526408
0.428332
0.345832
0.273923
0.209996
0.157819
0.120915
0.110504
0.143107
0.310415
0.64027
0.989349
0.999051
0.999917
0.999984
0.861702
0.532755
0.295831
0.0753964
2.22865e-19
9.23713e-09
1.26414e-08
5.75489e-09
2.8205e-09
7.32989e-10
2.98103e-12
3.94115e-12
8.62641e-09
0.0151005
0.516678
0.991219
0.999706
0.999867
0.999984
0.860009
1.26204e-07
1.85358e-07
3.21095e-07
2.48855e-07
6.29546e-07
9.58264e-08
2.26679e-08
8.57963e-09
4.54568e-09
1.5245e-09
1.22557e-09
1.53174e-07
7.78896e-09
0.391672
0.971684
0.999851
0.999698
0.999984
0.874621
1.2799e-07
4.45138e-06
3.17352e-05
2.72582e-05
2.60204e-06
1.37695e-07
3.11097e-08
1.09308e-08
7.29386e-09
6.06994e-09
3.36645e-08
1.00052e-07
7.74605e-09
0.232187
0.975301
0.999851
0.999631
0.999985
0.981564
4.50027e-06
0.00025404
0.00028795
5.56624e-05
6.38311e-08
9.45957e-09
9.19894e-09
8.78339e-09
2.26562e-08
2.86691e-08
8.24374e-09
7.97359e-09
8.01164e-09
0.266829
0.999852
0.999851
0.999513
0.999985
0.999942
0.000239626
0.000383834
0.000280753
1.05775e-05
1.75991e-09
3.66036e-09
2.93441e-09
2.82597e-09
6.12378e-09
6.56475e-07
0.00878562
1.97175e-06
0.108997
0.680152
0.999853
0.999852
0.999115
0.991542
0.999008
0.000373464
0.000340814
4.72523e-08
8.75714e-10
1.78105e-09
2.71423e-09
2.63882e-09
2.66702e-09
0.00123658
0.222718
0.592983
0.731563
0.824386
0.997805
0.999792
0.99982
0.999013
0.941432
0.913055
0.000321473
2.57278e-08
3.85966e-09
1.0356e-09
2.11243e-09
2.49025e-09
2.52163e-09
0.000947789
0.321773
0.949041
1
1
0.999938
0.999847
0.99945
0.999019
0.999099
0.953359
0.908178
9.64461e-09
1.03612e-08
1.82848e-08
1.49339e-09
2.07645e-09
2.06205e-08
2.50901e-07
0.0773517
0.795432
1
1
1
0.999992
0.999889
0.999423
0.999003
0.999105
0.991887
0.929914
1.5304e-08
5.51888e-09
7.93901e-10
1.62813e-09
2.26688e-09
2.30332e-09
3.32955e-07
0.0489169
0.679337
1
1
1
0.999991
0.999966
0.999889
0.999793
0.99981
0.999996
0.997733
2.81832e-08
3.29758e-10
7.73597e-10
1.7516e-09
3.09179e-09
3.56632e-09
3.62988e-09
8.79132e-07
0.121553
0.804728
1
0.999999
0.999993
0.999992
1
1
1
0.999996
1
8.04169e-11
3.13221e-10
6.78689e-10
1.48575e-09
2.981e-09
4.85484e-09
5.30052e-09
5.39501e-09
1.19151e-06
0.193781
0.872694
1
1
1
1
1
0.999999
0.999998
1
1.28258e-10
2.22448e-10
5.22172e-10
1.16483e-09
2.47356e-09
4.59825e-09
7.02014e-09
7.13115e-09
7.2639e-09
1.60578e-06
0.212153
0.868075
1
1
1
1
1
1
1
8.1055e-11
1.53282e-10
4.01798e-10
9.56984e-10
2.08917e-09
4.13067e-09
7.28752e-09
9.76752e-09
9.04677e-09
9.1834e-09
1.50065e-06
0.111495
0.738395
1
1
1
1
1
1
3.92872e-11
8.8606e-11
2.52175e-10
6.72376e-10
1.63325e-09
3.54163e-09
7.13918e-09
1.12453e-08
1.45947e-08
1.26486e-08
1.28245e-08
6.88741e-07
0.00209993
0.260996
0.731185
0.949108
0.991755
1
1
1.80565e-11
4.05324e-11
1.13645e-10
3.15646e-10
8.39397e-10
2.08963e-09
5.06934e-09
1.06288e-08
1.7283e-08
2.2785e-08
2.06918e-08
9.05294e-09
9.22215e-09
6.92222e-07
1.15054e-06
0.0883112
0.467013
0.899185
1
9.5602e-12
2.27371e-11
6.65611e-11
1.82576e-10
4.71489e-10
1.13121e-09
2.69516e-09
6.51032e-09
1.48424e-08
2.75114e-08
3.03951e-08
2.47134e-08
9.08255e-09
8.06514e-09
0.000648872
0.00222776
0.000281565
0.384222
1
4.95505e-12
1.5915e-11
4.86417e-11
1.42272e-10
3.73664e-10
8.70488e-10
1.8545e-09
3.9475e-09
9.19877e-09
2.27304e-08
2.93626e-08
2.50349e-08
1.5808e-08
7.86914e-09
8.22519e-05
0.00279589
0.000287286
0.0684236
0.921072
2.56844e-12
9.2297e-12
3.06676e-11
9.3125e-11
2.53624e-10
6.11779e-10
1.32605e-09
2.64572e-09
5.56141e-09
1.48061e-08
3.24661e-08
2.89322e-08
2.29575e-08
9.75582e-09
4.69706e-09
0.00151364
0.0004129
0.00451454
0.724391
1.38188e-12
6.35156e-12
2.22699e-11
7.19044e-11
2.01834e-10
4.86984e-10
1.01348e-09
1.81401e-09
3.4608e-09
1.04669e-08
5.04606e-08
1.0657e-07
4.65293e-08
2.04888e-08
4.83266e-09
9.90882e-07
8.38354e-05
2.89661e-07
0.656418
8.31222e-13
4.24289e-12
1.7309e-11
6.11326e-11
1.87222e-10
4.8851e-10
1.08695e-09
2.03877e-09
3.21333e-09
6.30806e-09
4.39762e-08
1.16519e-07
7.54742e-08
4.80915e-08
7.67663e-09
4.35523e-09
4.35101e-09
2.90834e-07
0.675614
5.43346e-13
3.43115e-12
1.46206e-11
5.62241e-11
1.85393e-10
5.21355e-10
1.25051e-09
2.57393e-09
4.50084e-09
7.63107e-09
1.59413e-08
7.47029e-08
2.38325e-07
1.03312e-07
2.09969e-08
4.35101e-09
4.33138e-09
0.0141763
0.676408
3.68784e-13
2.35107e-12
1.09886e-11
4.40092e-11
1.53267e-10
4.56612e-10
1.16642e-09
2.49596e-09
4.3314e-09
8.30694e-09
2.02435e-08
1.38939e-07
2.85014e-07
2.10285e-07
4.06019e-08
4.33655e-09
2.88209e-08
0.0433699
0.583496
1.90184e-13
1.44457e-12
6.89658e-12
2.94576e-11
1.09013e-10
3.46728e-10
9.47886e-10
2.19012e-09
4.10857e-09
7.85684e-09
1.79773e-08
7.49131e-08
2.90408e-07
3.13058e-07
1.39619e-07
1.11441e-08
7.86241e-09
0.00149448
0.1554
8.25253e-14
7.22545e-13
3.77347e-12
1.75704e-11
7.06399e-11
2.42043e-10
7.0109e-10
1.75701e-09
3.68554e-09
7.63055e-09
2.01047e-08
7.79826e-08
2.89778e-07
3.37409e-07
2.04365e-07
3.45588e-08
1.1213e-08
1.16975e-08
0.204459
2.21363e-14
2.20263e-13
1.30906e-12
6.94324e-12
3.1743e-11
1.23997e-10
4.10545e-10
1.15899e-09
2.81668e-09
6.67224e-09
2.41417e-08
1.65806e-07
3.4086e-07
3.43933e-07
1.15645e-07
5.23818e-08
2.54555e-08
1.22584e-08
0.625251
7.1446e-15
7.77189e-14
5.42203e-13
3.33986e-12
1.77154e-11
8.01875e-11
3.06303e-10
9.70861e-10
2.546e-09
6.33418e-09
1.83751e-08
1.34008e-07
3.44575e-07
3.32552e-07
1.38151e-07
4.23178e-08
2.56098e-08
0.00639091
0.79149
2.03074e-15
2.73559e-14
2.28797e-13
1.6806e-12
1.05742e-11
5.61334e-11
2.4503e-10
8.47332e-10
2.48021e-09
6.31176e-09
1.3979e-08
1.15388e-07
3.44782e-07
3.35293e-07
2.17535e-07
3.95527e-08
2.57315e-08
0.0746298
0.79149
1.08486e-15
1.47467e-14
1.37275e-13
1.08569e-12
7.33427e-12
4.16367e-11
1.92154e-10
6.90631e-10
2.14085e-09
6.01379e-09
1.21946e-08
4.85961e-08
2.84143e-07
3.3734e-07
2.74621e-07
3.75823e-08
2.58248e-08
0.194038
0.602091
4.1966e-16
6.54087e-15
6.76089e-14
5.98272e-13
4.48206e-12
2.8033e-11
1.4062e-10
5.48286e-10
1.99435e-09
5.94751e-09
1.2954e-08
4.72786e-08
2.57579e-07
3.21019e-07
1.95051e-07
3.79446e-08
0.0273271
0.063797
1.37741e-06
7.92423e-17
1.30467e-15
1.59602e-14
1.64689e-13
1.43367e-12
1.03879e-11
6.11956e-11
2.88788e-10
1.18021e-09
3.91157e-09
9.18367e-09
3.34689e-08
1.84414e-07
3.06459e-07
9.47453e-08
0.000139447
0.0133145
1.61547e-06
1.48947e-06
1.19032e-17
2.13608e-16
2.99334e-15
3.5991e-14
3.6618e-13
3.09121e-12
2.1001e-11
1.13459e-10
5.34811e-10
2.10259e-09
6.18993e-09
1.93228e-08
6.96059e-08
2.20406e-07
9.43255e-08
4.58305e-05
0.000473374
0.000107265
0.0155054
1.58276e-18
3.28646e-17
5.30321e-16
7.33223e-15
8.56473e-14
8.2703e-13
6.51481e-12
4.26371e-11
2.28117e-10
1.05786e-09
3.78809e-09
1.28697e-08
3.32545e-08
6.57944e-08
9.38869e-08
1.55775e-06
9.32604e-08
2.8033e-08
0.26393
2.60522e-19
6.56668e-18
1.23333e-16
1.95639e-15
2.57746e-14
2.8246e-13
2.61651e-12
1.95233e-11
1.13569e-10
5.90345e-10
2.32432e-09
7.69825e-09
2.36636e-08
6.97296e-08
1.26428e-07
6.37089e-08
1.33242e-08
9.83178e-09
0.592714
4.31839e-20
1.13203e-18
2.48026e-17
4.50416e-16
6.7066e-15
8.07931e-14
8.0368e-13
7.14145e-12
5.08528e-11
2.88099e-10
1.21906e-09
4.39449e-09
1.74577e-08
8.57359e-08
1.55708e-07
6.78594e-08
3.56792e-08
1.22442e-08
0.730892
3.67151e-21
1.22393e-19
3.21017e-18
6.85214e-17
1.19173e-15
1.71962e-14
2.1079e-13
2.10009e-12
1.57854e-11
9.94173e-11
4.80403e-10
1.92404e-09
7.78355e-09
4.45289e-08
1.55656e-07
1.52996e-07
6.53036e-08
1.47692e-08
0.706355
2.55885e-22
1.03793e-20
3.3508e-19
8.72359e-18
1.82764e-16
3.08226e-15
4.29002e-14
5.02774e-13
4.50048e-12
3.36076e-11
1.8797e-10
8.32562e-10
3.47524e-09
1.23544e-08
9.43842e-08
1.16499e-07
6.82101e-08
2.60584e-08
0.456271
5.98209e-24
3.39307e-22
1.42878e-20
4.70738e-19
1.30906e-17
3.1587e-16
6.07264e-15
8.27482e-14
8.45166e-13
6.32822e-12
3.74707e-11
1.57593e-10
6.03447e-10
9.3159e-10
5.37139e-09
1.89215e-10
1.69742e-08
1.18933e-08
0.0396445
)
;

boundaryField
{
    leftWall
    {
        type            zeroGradient;
    }
    rightWall
    {
        type            zeroGradient;
    }
    lowerWall
    {
        type            zeroGradient;
    }
    atmosphere
    {
        type            inletOutlet;
        inletValue      uniform 0;
        value           nonuniform List<scalar> 
46
(
0
0
0
0
0
0
0
0
0
0
0
0
0
0
0
0
0
0
0
0
0
0
0
0
0
0
0
0
3.39307e-22
1.42878e-20
4.70738e-19
1.30906e-17
3.1587e-16
6.07264e-15
8.27482e-14
8.45166e-13
6.32822e-12
0
0
0
0
0
0
0
0
0.0396445
)
;
    }
    defaultFaces
    {
        type            empty;
    }
}


// ************************************************************************* //
