/*--------------------------------*- C++ -*----------------------------------*\
| =========                 |                                                 |
| \\      /  F ield         | OpenFOAM: The Open Source CFD Toolbox           |
|  \\    /   O peration     | Version:  2312                                  |
|   \\  /    A nd           | Website:  www.openfoam.com                      |
|    \\/     M anipulation  |                                                 |
\*---------------------------------------------------------------------------*/
FoamFile
{
    version     2.0;
    format      ascii;
    arch        "LSB;label=32;scalar=64";
    class       volScalarField;
    location    "0.55";
    object      p;
}
// * * * * * * * * * * * * * * * * * * * * * * * * * * * * * * * * * * * * * //

dimensions      [1 -1 -2 0 0 0 0];

internalField   nonuniform List<scalar> 
2268
(
3915.82
3928.59
3933.66
3940.67
3949.79
3961.12
3975.96
3997.12
4029.4
4080.6
4163.19
4295.68
4502.26
4812.46
5241.78
5773.67
6359.2
6925.27
7406.35
7776.69
8049.73
8212.97
8321.73
3112.77
3125.57
3130.64
3137.65
3146.68
3157.83
3172.35
3192.92
3224.15
3273.52
3353.14
3481.1
3682
3988.38
4419.63
4960.27
5560.58
6140.7
6628.78
7000.66
7274.33
7438.24
7548.95
2305.24
2318.25
2323.39
2330.48
2339.44
2350.31
2364.24
2383.61
2412.71
2458.39
2532.1
2651.26
2837.54
3133.71
3567.34
4123.91
4754.64
5364.57
5867.48
6241.79
6514.96
6677.92
6787.55
1498.11
1510.55
1515.64
1522.74
1531.63
1542.19
1555.23
1572.59
1597.81
1636.46
1699.11
1803.92
1969.51
2249.4
2686.08
3263.81
3941.89
4599.31
5124.43
5501.45
5774.83
5938.45
6048.88
926.247
933.631
939.027
946.888
956.763
968.437
981.963
997.86
1017.4
1042.5
1076.91
1127.23
1210.35
1384.11
1750.23
2362.25
3118.42
3847.92
4401.91
4779.59
5053.42
5218.44
5330.28
727.726
730.796
736.526
745.071
755.917
768.794
783.358
799.35
816.633
835.288
855.485
877.552
903.759
959.83
1092.6
1477.9
2272.85
3111.47
3700.59
4075.01
4350.19
4518.51
4631.96
667.003
670.064
675.854
684.453
695.358
708.281
722.843
738.777
755.95
774.436
794.463
816.441
840.87
867.663
899.974
990.358
1476.36
2390.62
3011.89
3388.32
3664.97
3839.09
3952.96
605.526
608.612
614.508
623.23
634.275
647.311
661.923
677.817
694.839
713.032
732.585
753.781
776.664
802.022
832.639
854.829
971.82
1662.06
2343.94
2717.73
3000.16
3206.01
3308.77
2915.13
2940.43
2971.39
2905.09
2757.92
2588.19
2419.04
2262.55
2135.49
2074.18
2049.32
2037.43
2034.39
2058.92
2168.82
2472.51
3024.73
3787.11
4223.89
2879.83
2911.8
2942.38
2876.8
2726.6
2549.48
2368.71
2200.26
2087.07
2044.67
2041.9
2033.77
2026.86
2028.4
2111.22
2366.64
2818.71
3639.39
4153.43
2841.92
2879.9
2918.57
2847.41
2688.12
2501.01
2309.35
2148.83
2059.29
2034.02
2036.09
2032.46
2025.87
2027.95
2099.61
2360
2717.21
3432.81
4133.14
2803.12
2842.05
2872.24
2787.13
2632.57
2444.87
2240.58
2095.26
2021.14
2002.58
2016.16
2026.43
2022.42
2014.29
2049.74
2323.41
2733.05
3363.95
4191.53
2776.15
2701.23
2546.21
2441.87
2445.69
2334.55
2154.71
2031.76
1982.49
1967.15
1976.96
1996.57
1998.1
1968.85
2002.4
2251.89
2693.72
3413.3
4558.85
2668.34
2371.49
2035.2
1882.16
1926.06
2029.95
2043.57
1959.9
1939.8
1926.43
1927.48
1938.16
1930.8
1908.94
1859.89
2013.31
2503.2
3348.75
4876.28
1959.59
1857.72
1465.87
1249.75
1275.89
1501.68
1798.02
1893.98
1896.93
1882.47
1878.43
1883.7
1868.35
1770.45
1506.97
1578.78
2069.14
3001.1
4804.42
790.146
1291.68
942.887
759.85
781.43
961.129
1332.06
1714.97
1762.74
1758.58
1773.06
1775.06
1732.45
1405.7
1145.93
1192.59
1508.56
2362.14
4177.93
508.357
511.53
517.662
526.688
538.093
551.443
566.248
582.148
598.953
616.658
635.421
655.452
676.804
699.725
724.425
751.872
757.678
901.108
1360.1
1692.06
1947.61
2089.29
2262.31
372.756
376.181
382.851
392.69
405.099
419.39
434.869
451.014
467.536
484.386
501.699
519.699
538.561
557.925
575.311
588.737
570.999
506.842
535.272
679.797
823.391
904.57
1010.24
233.513
237.315
244.77
255.997
270.22
286.167
302.812
319.41
335.56
351.234
366.569
381.895
398.084
414.808
428.807
434.672
418.32
358.682
268.608
228.765
231.013
237.159
244.903
92.6923
96.9838
105.377
118.107
134.356
152.481
170.428
187.538
203.38
217.693
230.786
243.505
256.822
271.043
286.523
294.456
290.001
259.842
211.536
163.315
153.244
150.779
143.541
11.7566
13.036
15.5337
20.162
27.9482
40.0945
54.2216
68.6281
83.1746
96.9752
111.583
127.446
140.513
151.466
161.407
172.249
178.258
173.499
159.131
143.926
125.516
111.893
95.3095
-0.178022
-0.180189
-0.17985
-0.182505
-0.101054
0.525238
4.39122
10.0787
19.8428
30.0218
40.116
51.481
63.0416
73.0271
81.1892
86.9945
89.9539
91.9064
89.5792
81.554
70.2567
58.3105
44.9819
-0.263784
-0.295882
-0.351261
-0.430115
-0.509762
-0.455661
0.0621673
0.986909
3.46165
9.31722
10.9382
10.5416
15.1358
21.0223
26.4692
30.6955
33.476
33.8309
31.8056
28.3927
24.5066
21.1557
15.9543
-0.500442
-0.540266
-0.640849
-0.818192
-1.00629
-1.03968
-0.673658
-0.727279
-0.961115
-0.921518
-0.876034
-0.882125
-0.93321
-0.750735
0.427057
2.01031
3.09477
3.50385
3.20498
1.83868
0.057219
-0.766687
-0.862489
-0.745955
-0.793726
-0.909784
-1.10423
-1.33842
-1.4882
-1.32145
-1.21185
-1.13816
-1.08353
-1.05098
-1.04337
-1.04495
-1.01956
-1.05809
-1.06966
-1.0769
-1.08372
-1.09041
-1.08515
-1.0532
-0.950882
-0.94363
-0.97366
-1.01431
-1.11398
-1.27164
-1.45834
-1.53675
-1.45617
-1.35103
-1.27842
-1.22216
-1.18849
-1.17101
-1.16591
-1.17258
-1.19237
-1.19595
-1.1968
-1.19696
-1.19474
-1.18362
-1.15495
-1.09934
-1.05724
-1.16571
-1.19463
-1.26457
-1.37511
-1.50454
-1.56764
-1.52339
-1.45069
-1.39411
-1.3525
-1.32571
-1.31129
-1.30587
-1.3078
-1.31359
-1.31572
-1.31467
-1.31069
-1.30224
-1.28623
-1.25857
-1.21815
-1.17476
-1.32757
-1.34469
-1.38634
-1.4518
-1.52612
-1.56889
-1.56324
-1.53101
-1.49891
-1.47395
-1.45682
-1.44661
-1.44165
-1.44077
-1.44141
-1.44041
-1.43691
-1.43039
-1.41953
-1.40229
-1.37685
-1.34333
-1.30442
-1.47503
-1.48386
-1.50679
-1.54349
-1.58634
-1.61769
-1.62804
-1.62065
-1.60729
-1.59494
-1.58536
-1.57869
-1.57451
-1.57215
-1.57035
-1.56753
-1.56277
-1.55526
-1.54393
-1.52743
-1.5048
-1.47632
-1.44289
-1.61985
-1.62455
-1.63768
-1.65931
-1.68604
-1.70975
-1.72348
-1.72657
-1.72347
-1.71855
-1.71372
-1.70962
-1.70635
-1.70365
-1.7009
-1.69728
-1.69203
-1.68441
-1.67359
-1.65863
-1.63904
-1.61499
-1.58734
-1.76574
-1.76871
-1.77725
-1.79125
-1.8089
-1.82616
-1.83857
-1.84477
-1.84631
-1.84538
-1.84342
-1.8411
-1.83869
-1.83616
-1.83322
-1.82942
-1.82422
-1.81701
-1.80719
-1.79407
-1.77765
-1.75794
-1.73532
-1.91259
-1.91476
-1.92083
-1.93044
-1.94263
-1.9553
-1.96526
-1.97161
-1.97478
-1.97574
-1.97536
-1.97418
-1.97246
-1.97027
-1.9675
-1.9639
-1.9591
-1.95265
-1.94417
-1.93318
-1.91973
-1.90392
-1.88535
-2.05974
-2.06144
-2.06591
-2.07283
-2.08173
-2.0908
-2.09847
-2.10405
-2.10752
-2.10925
-2.1097
-2.10922
-2.10804
-2.10625
-2.10383
-2.10067
-2.09661
-2.09124
-2.08414
-2.07521
-2.06454
-2.05228
-2.03814
-2.20685
-2.2082
-2.21162
-2.21689
-2.22333
-2.2299
-2.23575
-2.24036
-2.24357
-2.24548
-2.2463
-2.24625
-2.24549
-2.24412
-2.24217
-2.23972
-2.23651
-2.23218
-2.22658
-2.2197
-2.21169
-2.20274
-2.1927
-2.35374
-2.35488
-2.35759
-2.36154
-2.3662
-2.37104
-2.37551
-2.37923
-2.38201
-2.38385
-2.38483
-2.38506
-2.38466
-2.38372
-2.3824
-2.38067
-2.37826
-2.37503
-2.37092
-2.36601
-2.36048
-2.35453
-2.34816
-2.50033
-2.50131
-2.50339
-2.50631
-2.50976
-2.51339
-2.51683
-2.51982
-2.52218
-2.52387
-2.5249
-2.52534
-2.52526
-2.5248
-2.5241
-2.52302
-2.52142
-2.51928
-2.51662
-2.51353
-2.51024
-2.50697
-2.5038
-2.64652
-2.64728
-2.64886
-2.65107
-2.65367
-2.65644
-2.65913
-2.66155
-2.66356
-2.6651
-2.66616
-2.66678
-2.66701
-2.66704
-2.66686
-2.66639
-2.6656
-2.66451
-2.66317
-2.66174
-2.66042
-2.65948
-2.65906
-2.79224
-2.79282
-2.79403
-2.79572
-2.79773
-2.79989
-2.80204
-2.80403
-2.80577
-2.80719
-2.80828
-2.80906
-2.80962
-2.81006
-2.81035
-2.81046
-2.81043
-2.81031
-2.81017
-2.81019
-2.81059
-2.81163
-2.81349
-2.93751
-2.93797
-2.93892
-2.94024
-2.94182
-2.94355
-2.94531
-2.94699
-2.94853
-2.94987
-2.951
-2.95194
-2.9528
-2.95359
-2.9543
-2.95497
-2.95563
-2.95637
-2.95729
-2.95856
-2.96041
-2.96308
-2.96677
-3.08241
-3.08278
-3.08353
-3.08459
-3.08587
-3.08729
-3.08877
-3.09024
-3.09163
-3.09293
-3.09411
-3.09522
-3.09632
-3.0974
-3.09851
-3.09967
-3.10095
-3.10244
-3.10426
-3.10657
-3.1096
-3.11358
-3.11871
-3.22699
-3.2273
-3.22791
-3.22878
-3.22984
-3.23105
-3.23233
-3.23364
-3.23494
-3.23621
-3.23746
-3.23872
-3.24001
-3.24136
-3.2428
-3.2444
-3.24621
-3.24833
-3.25089
-3.25405
-3.25801
-3.263
-3.2692
-3.3713
-3.37156
-3.37207
-3.3728
-3.37371
-3.37476
-3.3759
-3.3771
-3.37834
-3.37961
-3.38092
-3.38229
-3.38375
-3.38532
-3.38705
-3.38901
-3.39126
-3.39389
-3.39704
-3.40085
-3.40553
-3.41126
-3.41821
-3.51537
-3.51559
-3.51603
-3.51667
-3.51746
-3.51839
-3.51943
-3.52056
-3.52175
-3.52303
-3.52439
-3.52585
-3.52744
-3.52919
-3.53116
-3.5334
-3.53599
-3.53902
-3.54261
-3.54691
-3.55209
-3.55831
-3.56575
-3.65923
-3.65942
-3.65981
-3.66037
-3.66108
-3.66193
-3.66289
-3.66396
-3.66513
-3.66641
-3.6678
-3.66932
-3.67101
-3.6729
-3.67504
-3.6775
-3.68034
-3.68365
-3.68755
-3.69217
-3.69767
-3.70419
-3.71186
-3.80289
-3.80307
-3.80341
-3.80392
-3.80456
-3.80534
-3.80625
-3.80728
-3.80842
-3.80969
-3.81109
-3.81266
-3.81441
-3.81639
-3.81865
-3.82125
-3.82425
-3.82775
-3.83183
-3.83663
-3.84228
-3.84892
-3.85664
-3.94639
-3.94655
-3.94686
-3.94732
-3.94791
-3.94864
-3.9495
-3.95048
-3.95159
-3.95284
-3.95425
-3.95582
-3.95761
-3.95964
-3.96196
-3.96463
-3.96771
-3.97128
-3.97544
-3.9803
-3.98596
-3.99256
-4.00017
-4.08973
-4.08987
-4.09015
-4.09058
-4.09113
-4.09181
-4.09262
-4.09356
-4.09463
-4.09585
-4.09723
-4.0988
-4.10058
-4.10261
-4.10494
-4.10761
-4.1107
-4.11427
-4.1184
-4.1232
-4.12876
-4.13518
-4.14254
-4.23293
-4.23306
-4.23331
-4.2337
-4.23421
-4.23485
-4.23561
-4.2365
-4.23752
-4.2387
-4.24004
-4.24157
-4.24331
-4.2453
-4.24758
-4.25021
-4.25323
-4.25672
-4.26074
-4.26538
-4.27073
-4.27687
-4.28387
-4.376
-4.37611
-4.37634
-4.3767
-4.37717
-4.37776
-4.37847
-4.3793
-4.38027
-4.38139
-4.38267
-4.38413
-4.3858
-4.38771
-4.3899
-4.39242
-4.39532
-4.39865
-4.40248
-4.40688
-4.41193
-4.4177
-4.42424
-4.51894
-4.51905
-4.51926
-4.51958
-4.52001
-4.52055
-4.5212
-4.52197
-4.52287
-4.52391
-4.52511
-4.52648
-4.52805
-4.52985
-4.53191
-4.53428
-4.53699
-4.54011
-4.54368
-4.54777
-4.55245
-4.55777
-4.56378
-4.66178
-4.66188
-4.66206
-4.66235
-4.66274
-4.66322
-4.66381
-4.66452
-4.66534
-4.66629
-4.66738
-4.66864
-4.67008
-4.67173
-4.67363
-4.6758
-4.67828
-4.68113
-4.68439
-4.68811
-4.69235
-4.69716
-4.70257
-4.80452
-4.80461
-4.80476
-4.80502
-4.80536
-4.80579
-4.80632
-4.80694
-4.80767
-4.80852
-4.80949
-4.81062
-4.81191
-4.81338
-4.81507
-4.81701
-4.81923
-4.82176
-4.82466
-4.82795
-4.83171
-4.83595
-4.84072
-4.94717
-4.94725
-4.94738
-4.94761
-4.9479
-4.94827
-4.94872
-4.94926
-4.94989
-4.95062
-4.95146
-4.95243
-4.95355
-4.95482
-4.95628
-4.95796
-4.95987
-4.96205
-4.96454
-4.96738
-4.97059
-4.97423
-4.97831
-5.08975
-5.08983
-5.08993
-5.09013
-5.09037
-5.09067
-5.09105
-5.09149
-5.09201
-5.09261
-5.09331
-5.09411
-5.09503
-5.09608
-5.09729
-5.09867
-5.10025
-5.10205
-5.1041
-5.10644
-5.10909
-5.11208
-5.11544
-5.23226
-5.23233
-5.23242
-5.23258
-5.23276
-5.233
-5.23329
-5.23364
-5.23404
-5.23451
-5.23505
-5.23567
-5.23638
-5.2372
-5.23813
-5.2392
-5.24042
-5.24182
-5.2434
-5.24521
-5.24726
-5.24959
-5.2522
-5.37471
-5.37478
-5.37484
-5.37496
-5.37509
-5.37527
-5.37547
-5.37571
-5.37599
-5.37632
-5.37669
-5.37712
-5.37762
-5.37818
-5.37883
-5.37957
-5.38042
-5.38139
-5.3825
-5.38376
-5.3852
-5.38683
-5.38867
-5.51711
-5.51718
-5.51722
-5.5173
-5.51738
-5.51749
-5.5176
-5.51774
-5.51789
-5.51807
-5.51828
-5.51851
-5.51878
-5.51908
-5.51943
-5.51984
-5.5203
-5.52083
-5.52145
-5.52215
-5.52295
-5.52387
-5.52493
-5.65966
-5.65975
-5.65978
-5.65982
-5.65985
-5.65987
-5.6599
-5.65992
-5.65995
-5.65997
-5.65999
-5.66002
-5.66005
-5.66008
-5.66013
-5.66018
-5.66024
-5.66031
-5.66041
-5.66052
-5.66066
-5.66083
-5.66104
2243.89
2166.83
2021.6
1719.64
989.561
928.341
839.18
695.135
213.414
183.321
162.285
153.386
125.431
114.405
106.936
99.6264
78.6065
66.7336
56.9146
49.4294
33.9021
26.8754
21.0886
17.209
11.6345
8.77687
5.33098
1.85505
-0.813654
-0.776945
-0.724527
-0.650922
-0.90798
-0.87777
-0.840547
-0.794333
-1.01694
-0.986208
-0.952176
-0.914564
-1.13528
-1.10762
-1.07948
-1.05023
-1.27112
-1.24858
-1.22634
-1.2035
-1.4156
-1.39675
-1.37665
-1.35953
-1.56378
-1.54778
-1.53189
-1.51604
-1.71549
-1.70201
-1.6882
-1.67467
-1.86928
-1.85854
-1.84762
-1.83715
-2.02603
-2.01794
-2.00989
-2.00237
-2.18426
-2.17868
-2.17331
-2.16854
-2.34297
-2.33966
-2.33668
-2.33436
-2.50145
-2.5001
-2.49918
-2.49894
-2.6591
-2.65938
-2.66016
-2.66161
-2.81548
-2.81709
-2.81922
-2.82199
-2.97031
-2.97295
-2.97611
-2.97989
-3.12342
-3.12683
-3.13075
-3.13525
-3.27476
-3.27871
-3.28316
-3.28814
-3.42433
-3.42865
-3.43343
-3.43869
-3.57221
-3.57672
-3.58167
-3.58705
-3.71847
-3.72306
-3.72804
-3.73342
-3.86323
-3.86779
-3.8727
-3.87797
-4.00662
-4.01105
-4.01581
-4.02089
-4.14874
-4.15299
-4.15753
-4.16235
-4.28973
-4.29373
-4.298
-4.30252
-4.4297
-4.43342
-4.43738
-4.44156
-4.56878
-4.57218
-4.57578
-4.57959
-4.70707
-4.71012
-4.71335
-4.71676
-4.84467
-4.84736
-4.85019
-4.85319
-4.9817
-4.984
-4.98642
-4.98898
-5.11823
-5.12013
-5.12213
-5.12425
-5.25438
-5.25586
-5.25743
-5.25909
-5.39022
-5.39128
-5.39241
-5.39361
-5.52586
-5.52651
-5.52721
-5.52798
-5.66125
-5.6614
-5.66156
-5.66174
717.558
740.349
571.446
516.934
531.158
587.82
719.686
881.832
990.493
1072.73
1139.84
1115.99
1041.76
892.706
830.948
855.526
956.734
1381.56
2670.64
373.362
302.382
314.253
336.976
343.993
346.701
356.515
379.939
404.385
415.242
409.14
426.163
461.734
527.523
569.916
596.399
636.594
750.82
1284.9
155.975
185.546
187.553
187.594
184.922
181.471
181.649
183.43
179.56
177.365
183.829
200.931
242.451
316.625
384.912
433.249
486.273
486.733
741.127
87.5316
85.788
82.0188
76.325
70.7426
65.4541
60.7005
55.9671
50.4859
47.0774
50.1727
65.3899
107.299
181.246
259.398
313.717
379.442
354.234
584.042
39.5826
29.8321
22.6128
17.2559
13.6961
11.1836
8.9711
7.04852
5.49011
4.40037
4.12763
5.65507
22.2122
94.0649
172.064
218.683
285.822
256.528
399.819
14.2989
8.7035
2.07029
0.292687
0.173781
0.180535
0.219312
0.26726
0.31443
0.380948
0.52653
0.822857
1.75329
24.8108
98.8863
137.977
201.142
175.018
270.308
-0.309729
-0.378479
-0.255897
-0.100079
-0.0308416
0.0171141
0.0666576
0.110558
0.141188
0.165153
0.256986
0.524326
0.61432
0.946932
50.0089
76.3892
130.528
112.114
178.015
-0.524928
-0.47972
-0.387018
-0.275917
-0.18791
-0.116711
-0.0592383
-0.0151587
0.0142026
0.0437407
0.110297
0.355224
0.726117
-0.0735595
18.7245
32.8954
75.9404
59.8275
84.339
-0.705055
-0.61642
-0.519762
-0.42236
-0.326389
-0.231877
-0.158828
-0.127346
-0.0782502
-0.0127451
0.0852663
0.176358
0.7749
-0.74441
-0.595596
9.11133
34.4137
28.5418
55.7712
-0.84944
-0.766522
-0.678533
-0.581654
-0.483116
-0.379306
-0.299294
-0.226222
-0.24517
-0.238613
-0.370846
-0.142504
-2.09341
-13.2511
-14.525
-3.99217
16.3688
19.8954
47.3122
-1.00124
-0.933776
-0.848512
-0.760963
-0.664341
-0.554899
-0.412226
-0.134338
-0.240948
-6.6215
-17.3367
-22.6888
-22.7274
-25.5632
-19.635
-5.38742
16.8081
28.2197
55.5872
-1.16383
-1.10218
-1.02719
-0.951417
-0.871696
-0.789649
-0.670596
-0.168659
-5.34286
-11.7081
-9.21763
-13.3808
-19.3444
-21.9114
-13.4613
4.98264
31.0961
50.1566
76.8343
-1.32844
-1.27022
-1.20724
-1.14776
-1.0787
-1.00636
-0.974941
-1.36799
-0.675201
-6.39399
-11.5444
-15.3386
-16.988
-13.3918
0.0784239
23.5494
53.9779
79.5439
103.293
-1.4882
-1.44042
-1.38873
-1.34035
-1.28066
-1.23758
-1.20995
-0.672534
1.46666
-4.83389
-10.2119
-13.3688
-11.5365
-2.40756
16.5562
45.0134
79.4942
110.125
129.935
-1.65198
-1.61596
-1.57821
-1.5428
-1.51385
-1.48171
-1.51659
-1.64779
-0.283516
-2.36896
-7.39022
-9.52254
-4.39502
8.81433
31.8327
64.1337
101.882
135.725
152.494
-1.82006
-1.79502
-1.77091
-1.75003
-1.73905
-1.75864
-1.78943
-1.88718
-2.03121
0.27535
-5.45897
-8.26374
0.486243
16.4461
41.6834
76.1541
115.974
151.072
165.687
-1.9906
-1.97538
-1.96325
-1.95721
-1.9623
-1.99281
-2.07213
-2.17189
-2.3406
-2.38039
1.18018
-5.22286
2.62357
18.0108
43.0854
77.2106
117.723
153.411
167.041
-2.16166
-2.15498
-2.15305
-2.15864
-2.17696
-2.21586
-2.29
-2.4171
-2.55414
-2.70833
-2.9874
-1.03119
16.2119
19.9998
38.4054
65.6155
103.661
140.77
156.869
-2.33175
-2.33207
-2.33798
-2.35228
-2.37918
-2.42453
-2.49564
-2.60373
-2.76128
-2.93658
-3.17234
-3.44237
-2.82579
3.64107
19.4448
32.7462
66.3004
110.623
136.581
-2.49987
-2.50569
-2.51749
-2.53768
-2.56952
-2.61725
-2.6859
-2.78083
-2.906
-3.07513
-3.25609
-3.38101
-3.30769
-3.41678
-3.18505
-1.91833
11.6726
56.5383
98.2442
-2.66538
-2.67535
-2.69125
-2.71508
-2.74922
-2.79659
-2.86046
-2.94425
-3.04451
-3.16734
-3.31741
-3.442
-3.51679
-3.62379
-3.54551
-3.66468
-2.71078
2.83377
51.3669
-2.82793
-2.84086
-2.85942
-2.88516
-2.91977
-2.96511
-3.02306
-3.095
-3.1784
-3.27211
-3.37422
-3.4822
-3.56319
-3.63673
-3.66667
-3.6073
-3.55121
-3.5057
14.7595
-2.98742
-3.00235
-3.02242
-3.04882
-3.08269
-3.12515
-3.1771
-3.23877
-3.30808
-3.38342
-3.46082
-3.53606
-3.60208
-3.66009
-3.69367
-3.70928
-3.59399
-3.6206
-0.503184
-3.14389
-3.16002
-3.18076
-3.20697
-3.2394
-3.27865
-3.32505
-3.37827
-3.43664
-3.49874
-3.56212
-3.62285
-3.67619
-3.71569
-3.73543
-3.73651
-3.63346
-3.62867
-2.48523
-3.29748
-3.3142
-3.335
-3.36045
-3.39107
-3.42712
-3.46861
-3.51507
-3.56506
-3.61749
-3.67073
-3.72188
-3.76736
-3.79719
-3.7954
-3.76076
-3.67574
-3.62316
-2.18922
-3.44839
-3.46524
-3.48566
-3.51003
-3.53868
-3.57169
-3.60894
-3.65001
-3.69348
-3.73892
-3.78487
-3.82916
-3.86742
-3.89273
-3.8781
-3.82392
-3.74319
-3.75282
-1.69473
-3.59686
-3.61348
-3.63322
-3.65632
-3.68296
-3.71316
-3.74675
-3.78332
-3.82206
-3.86226
-3.90305
-3.94272
-3.97651
-4.00002
-3.98104
-3.91921
-3.82748
-3.50218
2.27814
-3.74312
-3.75925
-3.7781
-3.79982
-3.82451
-3.85215
-3.88255
-3.91544
-3.95039
-3.98653
-4.02389
-4.06031
-4.09278
-4.11494
-4.09905
-4.05487
-3.99015
-4.27364
-4.0944
-3.8874
-3.90284
-3.92066
-3.94094
-3.96373
-3.98899
-4.01659
-4.04631
-4.07787
-4.11092
-4.14553
-4.17961
-4.21176
-4.23146
-4.21339
-4.15743
-4.04885
-4.09394
-3.88022
-4.02993
-4.04454
-4.06122
-4.08002
-4.10096
-4.12399
-4.14901
-4.17586
-4.2044
-4.23454
-4.26618
-4.29855
-4.32854
-4.349
-4.31607
-4.22688
-4.04443
-4.01755
-2.29019
-4.1709
-4.18457
-4.20004
-4.21734
-4.23647
-4.25738
-4.27997
-4.30412
-4.32975
-4.35687
-4.38552
-4.41526
-4.44217
-4.45911
-4.41216
-4.30767
-4.0912
-4.17051
-1.34064
-4.3105
-4.32315
-4.33737
-4.35316
-4.37052
-4.38938
-4.40966
-4.43123
-4.45397
-4.47783
-4.50275
-4.52817
-4.55052
-4.56104
-4.51721
-4.46032
-4.1047
-5.09851
-0.703246
-4.44891
-4.46048
-4.47341
-4.4877
-4.50333
-4.52024
-4.53832
-4.55743
-4.57737
-4.59796
-4.61897
-4.63969
-4.65684
-4.66044
-4.62537
-4.57171
-4.0198
-4.0656
14.4497
-4.58627
-4.59672
-4.60835
-4.62115
-4.63509
-4.65014
-4.66617
-4.68302
-4.70046
-4.71814
-4.73558
-4.75196
-4.76548
-4.7726
-4.77613
-4.84322
-4.74225
-4.0434
-4.33876
-4.72273
-4.73202
-4.74234
-4.75366
-4.76598
-4.77924
-4.79338
-4.80826
-4.82364
-4.83922
-4.85448
-4.86865
-4.88237
-4.90689
-4.96756
-5.19449
-5.68372
-5.99128
-5.10802
-4.85842
-4.86653
-4.87552
-4.88537
-4.89609
-4.90766
-4.92003
-4.93313
-4.94689
-4.96117
-4.97585
-4.99089
-5.0086
-5.05085
-5.13798
-5.42821
-5.87852
-6.02559
-5.46544
-4.99345
-5.00036
-5.008
-5.01639
-5.02553
-5.03543
-5.04609
-5.05752
-5.06978
-5.08305
-5.09774
-5.11464
-5.13505
-5.18283
-5.25638
-5.448
-5.74019
-5.86958
-5.8077
-5.12793
-5.13362
-5.13991
-5.1468
-5.15435
-5.16259
-5.17152
-5.18122
-5.19189
-5.2039
-5.21803
-5.2354
-5.25402
-5.29941
-5.35311
-5.44606
-5.56086
-5.67035
-3.23636
-5.26198
-5.26643
-5.27134
-5.27671
-5.28265
-5.28919
-5.29633
-5.30414
-5.31293
-5.32315
-5.33565
-5.35153
-5.36561
-5.40261
-5.44629
-5.49391
-5.56297
-5.71918
-2.3348
-5.3957
-5.39888
-5.40236
-5.40602
-5.41026
-5.41509
-5.42032
-5.42621
-5.43289
-5.4409
-5.45155
-5.46735
-5.47765
-5.51061
-5.55203
-5.57127
-5.67108
-5.84152
-2.84875
-5.52932
-5.53145
-5.53383
-5.53583
-5.5383
-5.54103
-5.54418
-5.54765
-5.55148
-5.55535
-5.55886
-5.56297
-5.57405
-5.5979
-5.62148
-5.63043
-5.75794
-5.9341
-5.85517
-5.66204
-5.66246
-5.66294
-5.66405
-5.66512
-5.66613
-5.66728
-5.66865
-5.67042
-5.67315
-5.6779
-5.68604
-5.68973
-5.7001
-5.72634
-5.79577
-6.1904
-6.53881
-16.377
)
;

boundaryField
{
    leftWall
    {
        type            calculated;
        value           nonuniform List<scalar> 
50
(
3915.82
3112.77
2305.24
1498.11
926.247
727.726
667.003
605.526
508.357
372.756
233.513
92.6923
11.7566
-0.178022
-0.263784
-0.500442
-0.745955
-0.97366
-1.16571
-1.32757
-1.47503
-1.61985
-1.76574
-1.91259
-2.05974
-2.20685
-2.35374
-2.50033
-2.64652
-2.79224
-2.93751
-3.08241
-3.22699
-3.3713
-3.51537
-3.65923
-3.80289
-3.94639
-4.08973
-4.23293
-4.376
-4.51894
-4.66178
-4.80452
-4.94717
-5.08975
-5.23226
-5.37471
-5.51711
-5.65966
)
;
    }
    rightWall
    {
        type            calculated;
        value           nonuniform List<scalar> 
50
(
4223.89
4153.43
4133.14
4191.53
4558.85
4876.28
4804.42
4177.93
2670.64
1284.9
741.127
584.042
399.819
270.308
178.015
84.339
55.7712
47.3122
55.5872
76.8343
103.293
129.935
152.494
165.687
167.041
156.869
136.581
98.2442
51.3669
14.7595
-0.503184
-2.48523
-2.18922
-1.69473
2.27814
-4.0944
-3.88022
-2.29019
-1.34064
-0.703246
14.4497
-4.33876
-5.10802
-5.46544
-5.8077
-3.23636
-2.3348
-2.84875
-5.85517
-16.377
)
;
    }
    lowerWall
    {
        type            calculated;
        value           nonuniform List<scalar> 
62
(
4313.97
4326.74
4331.81
4338.82
4347.94
4359.27
4374.11
4395.27
4427.55
4478.75
4561.34
4693.83
4900.41
5210.61
5639.93
6171.82
6757.35
7323.42
7804.5
8174.84
8447.88
8611.12
8719.85
8321.73
7548.95
6787.55
6048.88
5330.28
4631.96
3952.96
3308.77
3090.58
3013.57
2868.34
2566.37
2915.13
2879.83
2841.92
2803.12
2776.15
2668.34
1959.59
790.146
2929.85
2955.14
2986.11
2919.8
2772.64
2602.9
2438.34
2282.11
2153.09
2088.6
2057.16
2041.76
2039.92
2073.49
2200.5
2525.47
3110.5
3868.07
4271.66
)
;
    }
    atmosphere
    {
        type            calculated;
        value           nonuniform List<scalar> 
46
(
-5.73105
-5.73127
-5.73127
-5.73129
-5.73128
-5.73127
-5.73124
-5.73121
-5.73116
-5.7311
-5.73103
-5.73095
-5.73085
-5.73074
-5.73062
-5.73049
-5.73034
-5.73018
-5.73001
-5.72983
-5.72964
-5.72945
-5.72926
-5.72913
-5.72909
-5.72906
-5.72905
-5.72904
-5.72904
-5.72904
-5.72904
-5.72904
-5.72904
-5.72904
-5.72904
-5.72904
-5.72904
-5.72905
-5.72928
-5.72983
-5.74074
-5.74169
-5.77533
-5.76
-5.79797
-119.064
)
;
    }
    defaultFaces
    {
        type            empty;
    }
}


// ************************************************************************* //
