/*--------------------------------*- C++ -*----------------------------------*\
| =========                 |                                                 |
| \\      /  F ield         | OpenFOAM: The Open Source CFD Toolbox           |
|  \\    /   O peration     | Version:  2312                                  |
|   \\  /    A nd           | Website:  www.openfoam.com                      |
|    \\/     M anipulation  |                                                 |
\*---------------------------------------------------------------------------*/
FoamFile
{
    version     2.0;
    format      ascii;
    arch        "LSB;label=32;scalar=64";
    class       volScalarField;
    location    "0.55";
    object      p_rgh;
}
// * * * * * * * * * * * * * * * * * * * * * * * * * * * * * * * * * * * * * //

dimensions      [1 -1 -2 0 0 0 0];

internalField   nonuniform List<scalar> 
2268
(
4313.97
4326.74
4331.81
4338.82
4347.94
4359.27
4374.11
4395.27
4427.55
4478.75
4561.34
4693.83
4900.41
5210.61
5639.93
6171.82
6757.35
7323.42
7804.5
8174.84
8447.88
8611.12
8719.85
4307.22
4320.02
4325.09
4332.1
4341.13
4352.27
4366.8
4387.37
4418.6
4467.97
4547.59
4675.55
4876.45
5182.83
5614.08
6154.72
6755.03
7335.15
7823.23
8195.11
8468.78
8632.69
8743.31
4295.99
4309
4314.14
4321.23
4330.19
4341.06
4354.98
4374.36
4403.46
4449.14
4522.85
4642.01
4828.29
5124.46
5558.08
6114.66
6745.39
7355.32
7858.23
8232.54
8505.71
8668.67
8778.22
4241.15
4259.02
4263.84
4270.03
4277.67
4286.64
4298.17
4315.08
4342.74
4388.29
4463.75
4584.96
4756.55
5036.45
5473.13
6050.86
6728.94
7386.36
7911.48
8288.5
8561.88
8725.5
8835.92
2431.69
2478.55
2481.38
2482.56
2483.44
2483.64
2486.22
2498.11
2533.06
2607.21
2754.47
3036.35
3544.05
4310.97
5325.04
5945.6
6701.77
7431.27
7985.26
8362.94
8636.77
8801.78
8913.63
1051.45
1054.52
1060.25
1068.79
1079.64
1092.52
1107.08
1123.07
1140.36
1159.01
1179.21
1201.27
1250.79
1574.26
2666.4
5115
6652.5
7491.11
8080.24
8454.66
8729.83
8898.16
9011.61
1049.58
1052.65
1058.44
1067.03
1077.94
1090.86
1105.42
1121.36
1138.53
1157.02
1177.05
1199.02
1223.45
1250.25
1282.56
2192.05
5922.03
7566.56
8187.84
8564.27
8840.92
9015.03
9127.76
1046.97
1050.05
1055.95
1064.67
1075.72
1088.75
1103.36
1119.26
1136.28
1154.47
1174.03
1195.22
1218.1
1243.46
1274.08
1296.27
2933.35
7515.17
8316.19
8689.98
8972.41
9178.26
9278.82
2929.85
2955.14
2986.11
2919.8
2772.64
2602.9
2438.34
2282.11
2153.09
2088.6
2057.16
2041.76
2039.92
2073.49
2200.5
2525.47
3110.5
3868.07
4271.66
2923.97
2955.95
2986.52
2920.94
2770.74
2593.62
2414.98
2264.46
2124.98
2061.41
2044.55
2034.12
2028.06
2037.91
2130.47
2431.06
3116.05
3947.65
4295.54
2915.48
2953.47
2992.11
2920.97
2761.69
2574.59
2382.93
2224.89
2146.55
2099.36
2048.43
2034.25
2027.53
2031.59
2142.84
2405.65
2833.93
3859.42
4499.66
2906.12
2943.91
3204.94
3079.45
2742.34
2547.85
2343.58
2198.26
2124.69
2112.08
2093.03
2042.19
2028
2054.88
2203.08
2520.61
2901.5
3741.84
5031.54
2908.59
3814.34
5284.21
5147.28
4038
2557.68
2287.15
2164.22
2114.89
2099.38
2109.45
2106.2
2103.43
2093.75
2272.84
2719.5
3151.13
4086.24
5866.35
3316.36
6104.74
6176.8
6013.16
5929.11
4146.77
2280.14
2121.77
2101.53
2087.99
2089.06
2099.73
2092.37
2075.54
2731.61
3658.79
4122.74
4942.87
6522.71
6685.31
6862.4
6465.83
5965.62
5886.19
5708.44
3265.64
2105.35
2092.99
2074.34
2070.76
2075.46
2059.34
2439.66
3409.51
3659.74
4143.68
4997.39
6778.6
6582.07
7089.93
5483.48
3251.64
3248.6
4370.6
4509.9
3540.53
3299.59
3034.82
2688.51
2636.89
2786.87
2857.64
2624.99
2587.45
3866.14
4669.57
6453.66
1041.82
1045
1051.13
1060.15
1071.56
1084.91
1099.71
1115.61
1132.42
1150.13
1168.89
1188.92
1210.27
1233.19
1257.89
1285.34
1314.98
4510.16
8306.46
8909.32
9164.86
9306.47
9477.35
1031.42
1034.84
1041.51
1051.35
1063.76
1078.05
1093.53
1109.68
1126.2
1143.05
1160.36
1178.36
1197.22
1216.59
1233.97
1247.4
1229.66
1174.45
2837
6285.7
7552.97
8040.28
8719.13
1017.37
1021.17
1028.63
1039.85
1054.08
1070.02
1086.67
1103.27
1119.42
1135.09
1150.43
1165.75
1181.94
1198.66
1212.66
1218.53
1202.18
1142.54
1052.46
1079.65
1014.88
1021.03
1518
913.397
929.287
957.18
994.781
1033.19
1061.13
1079.48
1096.59
1112.43
1126.74
1139.81
1141.8
1148.77
1168.4
1191.88
1203.36
1199.05
1168.89
1120.58
1072.36
1062.29
1059.83
1052.52
207.136
229.887
274.704
357.994
491.738
644.884
772.849
874.682
928.228
930.64
889.999
838.876
835.317
867.921
948.198
1057.97
1170.3
1207.74
1193.37
1176.95
1154.58
1128.07
1073.23
0.98143
0.979643
0.982453
0.982903
1.20649
24.3651
80.0432
146.637
205.986
251.369
347.323
550.452
620.59
630.907
644.326
674.955
732.188
809.109
885.765
931.341
891.299
806.054
681.649
1.02086
0.988763
0.933386
0.855109
0.780128
0.854418
1.46766
10.5318
90.913
196.969
239.115
242.525
344.641
466.235
538.411
576.874
602.87
607.541
603.811
586.409
546.733
474.234
358.737
0.909394
0.871194
0.781011
0.600394
0.409122
2.53834
8.66863
7.34799
0.449227
0.490257
0.542007
0.552223
0.513578
0.696067
35.1412
70.9628
96.143
105.921
100.059
69.5641
29.8619
0.643301
0.547439
0.789075
0.743693
0.638462
0.43148
0.954711
1.73756
1.28819
0.323698
0.397466
0.451743
0.484301
0.492959
0.515342
0.543335
0.520601
0.511779
0.492973
0.466436
0.447398
0.450725
0.482278
0.584408
0.591506
0.686567
0.647024
0.555657
0.388943
0.419191
1.45826
0.50918
0.355936
0.392334
0.439843
0.47182
0.489245
0.494334
0.48769
0.480711
0.51183
0.512774
0.498582
0.466619
0.476838
0.505369
0.560923
0.602994
0.619704
0.590929
0.520942
0.410628
0.280901
0.217785
0.262032
0.337905
0.402895
0.437758
0.459743
0.474155
0.479555
0.477624
0.471895
0.469787
0.470823
0.474754
0.484714
0.499638
0.526862
0.567282
0.610656
0.583037
0.565916
0.524264
0.458893
0.384766
0.341877
0.347386
0.379601
0.411703
0.436662
0.453817
0.464014
0.468955
0.469842
0.469192
0.470193
0.473698
0.480213
0.491096
0.508637
0.534058
0.567299
0.628432
0.560771
0.551943
0.529017
0.492317
0.449519
0.418134
0.407771
0.415155
0.428516
0.44086
0.450444
0.457113
0.461293
0.463654
0.465453
0.468271
0.473038
0.480542
0.491958
0.508638
0.540488
0.562146
0.654822
0.541147
0.536446
0.523321
0.501691
0.474956
0.451245
0.437518
0.434431
0.437526
0.442451
0.447281
0.451378
0.454648
0.45735
0.460093
0.463716
0.468971
0.476591
0.487557
0.503293
0.535898
0.556429
0.635772
0.520447
0.517479
0.508942
0.49494
0.477291
0.460026
0.447621
0.441424
0.439883
0.440811
0.442776
0.445089
0.447497
0.450032
0.452971
0.45677
0.461979
0.469185
0.47905
0.493527
0.520635
0.539644
0.550869
0.498796
0.496621
0.490559
0.480946
0.468754
0.456085
0.446125
0.439778
0.436609
0.435648
0.436028
0.437209
0.438925
0.441113
0.443885
0.447491
0.452295
0.458739
0.467264
0.47913
0.491657
0.507463
0.526036
0.476837
0.475137
0.47067
0.463747
0.454851
0.445781
0.438112
0.432528
0.429055
0.427328
0.426884
0.427362
0.42854
0.430327
0.432752
0.435917
0.439973
0.445348
0.452441
0.461369
0.472043
0.484304
0.498447
0.454919
0.45357
0.450153
0.444888
0.43844
0.431877
0.426028
0.421416
0.418205
0.416298
0.415478
0.415526
0.416282
0.417657
0.419606
0.422051
0.425267
0.4296
0.435201
0.44208
0.450085
0.459032
0.469071
0.433229
0.432089
0.429384
0.425432
0.420764
0.415929
0.411459
0.40774
0.404954
0.403117
0.402143
0.40191
0.402312
0.403254
0.404572
0.406304
0.408713
0.411947
0.41605
0.42096
0.426494
0.432441
0.438812
0.411835
0.410855
0.408776
0.405852
0.402401
0.398776
0.395331
0.392344
0.389979
0.388292
0.38726
0.38682
0.386901
0.387359
0.388063
0.389148
0.390741
0.39288
0.395546
0.398631
0.401927
0.405198
0.408363
0.390838
0.390073
0.388493
0.386292
0.383689
0.380919
0.378225
0.375806
0.373796
0.372257
0.371196
0.370581
0.370348
0.370322
0.370494
0.370968
0.371758
0.372851
0.374185
0.37562
0.376934
0.377877
0.378299
0.370316
0.36973
0.368518
0.366831
0.364826
0.362664
0.360514
0.358519
0.356783
0.355362
0.354273
0.353494
0.352935
0.352493
0.352206
0.352088
0.352118
0.352245
0.352378
0.352359
0.351958
0.350921
0.349066
0.350237
0.349777
0.34883
0.34751
0.34593
0.3442
0.342441
0.340754
0.339219
0.337879
0.33675
0.335803
0.334949
0.334161
0.333448
0.33278
0.332114
0.331377
0.330457
0.329188
0.327342
0.324671
0.320975
0.330531
0.330162
0.329407
0.328349
0.327071
0.325649
0.324169
0.322702
0.321307
0.320015
0.318834
0.317718
0.316622
0.315536
0.314434
0.31327
0.311987
0.310498
0.308682
0.306369
0.303338
0.299359
0.294231
0.311144
0.31084
0.310224
0.309354
0.308291
0.307089
0.305807
0.304496
0.303195
0.301925
0.300678
0.299418
0.298126
0.296777
0.295332
0.293737
0.291925
0.289803
0.287247
0.284088
0.280122
0.275134
0.268934
0.292031
0.291775
0.291259
0.290525
0.289618
0.288572
0.287431
0.286228
0.28499
0.283723
0.282412
0.281038
0.279583
0.278011
0.276276
0.274321
0.272073
0.269438
0.266292
0.262478
0.257802
0.252075
0.245123
0.273156
0.272936
0.272494
0.271859
0.271064
0.270133
0.269093
0.267968
0.26677
0.265495
0.264136
0.262675
0.261087
0.259333
0.257366
0.255124
0.252534
0.249503
0.245914
0.241617
0.236439
0.230212
0.22278
0.254493
0.254299
0.253912
0.253352
0.25264
0.251794
0.25083
0.249763
0.248589
0.247313
0.245923
0.244398
0.24271
0.240819
0.238676
0.236222
0.233381
0.230067
0.226168
0.221549
0.216052
0.209532
0.201855
0.23602
0.235846
0.235502
0.234998
0.234351
0.23357
0.232666
0.231639
0.230495
0.229227
0.227821
0.226256
0.224502
0.222519
0.22026
0.217664
0.214662
0.211169
0.207084
0.202285
0.196631
0.189998
0.182272
0.217717
0.217561
0.21725
0.216791
0.216197
0.215469
0.214613
0.21363
0.212517
0.211267
0.209863
0.208284
0.206499
0.204471
0.202151
0.199483
0.1964
0.192825
0.188666
0.183813
0.178144
0.171551
0.163939
0.199572
0.199429
0.199148
0.198726
0.198176
0.197494
0.196686
0.195747
0.194673
0.193453
0.192071
0.190505
0.188725
0.186694
0.184367
0.181691
0.178603
0.175034
0.170901
0.166106
0.160543
0.15412
0.14676
0.181568
0.181438
0.181186
0.180793
0.180285
0.17965
0.17889
0.178
0.176973
0.175798
0.174458
0.172931
0.171189
0.169198
0.166914
0.164289
0.161266
0.157781
0.153762
0.149122
0.14377
0.137627
0.13063
0.163697
0.163578
0.163349
0.162991
0.162522
0.161933
0.161224
0.160389
0.15942
0.158305
0.157027
0.155566
0.153895
0.151982
0.149788
0.147268
0.144371
0.141041
0.137211
0.13281
0.127758
0.121987
0.115447
0.145945
0.145837
0.145631
0.145305
0.144878
0.144338
0.143685
0.142913
0.142012
0.140972
0.139776
0.138406
0.136836
0.135037
0.132974
0.130608
0.127892
0.124777
0.121205
0.117115
0.112436
0.107115
0.101107
0.128303
0.128204
0.128022
0.127729
0.127345
0.126857
0.126266
0.125565
0.124744
0.123794
0.122699
0.121441
0.12
0.118347
0.116454
0.114284
0.111797
0.108949
0.105693
0.101973
0.0977316
0.0929219
0.08751
0.110757
0.110669
0.110512
0.110251
0.109912
0.109481
0.108957
0.108335
0.107605
0.106758
0.105781
0.104658
0.10337
0.101893
0.100201
0.0982636
0.0960468
0.0935126
0.0906194
0.0873214
0.0835694
0.0793253
0.0745585
0.0932969
0.0932167
0.0930861
0.0928574
0.092567
0.0921962
0.0917459
0.0912098
0.090581
0.0898506
0.0890071
0.0880369
0.0869232
0.0856468
0.0841852
0.0825127
0.0806008
0.0784176
0.0759286
0.0730951
0.0698765
0.0662386
0.0621608
0.075911
0.0758366
0.0757322
0.0755363
0.0752968
0.0749899
0.0746179
0.0741752
0.0736561
0.073053
0.0723563
0.0715548
0.0706347
0.06958
0.0683724
0.0669912
0.065413
0.0636123
0.0615606
0.0592269
0.0565764
0.0535821
0.0502245
0.0585953
0.0585265
0.0584391
0.0582804
0.0580943
0.0578542
0.0575645
0.0572207
0.0568182
0.0563509
0.0558116
0.0551912
0.0544791
0.0536629
0.0527283
0.0516591
0.0504374
0.0490432
0.0474549
0.0456477
0.0435942
0.0412693
0.0386615
0.0413459
0.0412786
0.0412141
0.0410926
0.0409593
0.0407881
0.0405836
0.0403425
0.0400615
0.0397364
0.0393618
0.0389315
0.0384379
0.037872
0.0372238
0.0364817
0.0356328
0.0346629
0.0335561
0.0322947
0.030858
0.0292257
0.0273841
0.0241364
0.0240698
0.0240277
0.0239434
0.0238632
0.0237625
0.0236457
0.0235106
0.0233552
0.0231771
0.0229731
0.0227396
0.0224723
0.0221657
0.021814
0.02141
0.0209462
0.0204137
0.019803
0.0191029
0.0183002
0.0173748
0.0163142
0.00678716
0.00668804
0.00666611
0.0066207
0.00659535
0.00656864
0.00654419
0.00652057
0.00649729
0.00647374
0.00644921
0.00642276
0.00639313
0.0063587
0.00631749
0.00626717
0.00620509
0.00612837
0.00603402
0.00591899
0.0057798
0.00560991
0.0054041
9459.61
9382.88
9237.67
8935.65
8684.84
8412.12
7930.97
7034.99
1818.44
1656.52
1247.51
958.968
1034.23
1023.01
1015.37
1006.06
1021.43
978.784
927.305
847.869
593.653
526.885
452.87
412.788
266.067
206.356
135.829
58.6459
0.596251
0.632952
0.68537
0.758977
0.627122
0.657313
0.694541
0.740769
0.64328
0.674011
0.70807
0.745758
0.650136
0.678061
0.705964
0.891282
0.648141
0.687844
0.786047
1.01689
0.674972
0.740706
0.816008
0.718349
0.651437
0.613234
0.629162
0.644977
0.570701
0.584205
0.598057
0.611588
0.542102
0.552848
0.563761
0.574231
0.510552
0.518642
0.526692
0.534213
0.477519
0.483094
0.488466
0.493234
0.444
0.447313
0.450285
0.452606
0.410709
0.41206
0.41298
0.413227
0.378256
0.377973
0.377196
0.375748
0.347069
0.345461
0.343336
0.34056
0.317438
0.314801
0.311639
0.307859
0.289522
0.286111
0.282188
0.277689
0.263379
0.259422
0.254973
0.249993
0.238997
0.234681
0.229904
0.224642
0.216318
0.211802
0.206858
0.201473
0.195249
0.190662
0.185682
0.180303
0.175681
0.171128
0.166216
0.160946
0.157493
0.153059
0.1483
0.143219
0.140563
0.136315
0.131777
0.12695
0.124768
0.120763
0.116497
0.111973
0.109989
0.106268
0.102316
0.0981346
0.096108
0.0927071
0.0891016
0.0852934
0.0830134
0.0799585
0.076728
0.073318
0.0706023
0.0679185
0.0650807
0.0620885
0.0587728
0.0564746
0.0540499
0.0514907
0.0474302
0.0455352
0.0435322
0.0414182
0.0364793
0.0349954
0.0334293
0.0317697
0.0258304
0.0247696
0.0236422
0.0224435
0.0153887
0.0147394
0.0140379
0.0132727
0.00519574
0.00504592
0.00488327
0.00470197
7563.65
5044.13
2377.35
1184.7
1229.01
1827.22
2976.98
3715.13
3853.83
3953.5
4043.97
4013.4
3586.6
1925.66
1569.19
1577.7
1762.1
3550.39
5387.5
3237.96
988.516
970.235
992.999
1000
1002.32
1011.89
1088.04
1329.84
1446.92
1466.41
1464.14
1362.6
1215.46
1206.31
1101.98
978.373
1235.46
2428.73
937.544
966.111
947.69
904.817
856.28
831.976
837.183
840.891
830.584
809.753
777.664
749.862
823.73
947.447
959.939
846.136
878.208
878.681
1668.83
954.875
838.442
665.556
538.879
466.981
423.113
405.861
392.91
368.155
350.244
353.892
368.368
422.679
565.652
719.842
769.407
833.975
808.768
2559.98
628.296
392.369
348.907
289.963
235.788
190.698
151.374
116.459
87.9731
67.8413
62.2215
80.5764
183.461
425.537
683.691
736.391
803.146
773.693
2685.43
323.69
181.019
46.8511
1.45214
1.33347
1.34029
1.37895
1.42679
1.47407
1.54053
1.68723
1.98672
11.6534
325.085
673.658
718.209
781.211
754.863
2780.59
0.975016
0.906304
1.02897
1.18474
1.25421
1.30182
1.35132
1.39522
1.42623
1.45102
1.5419
1.81046
1.92952
253.613
674.447
718.886
773.086
754.569
2683.16
0.885059
0.933291
1.04516
1.1531
1.22375
1.29322
1.35062
1.39491
1.42937
1.49173
1.56707
1.86133
2.37786
164.939
706.34
737.744
780.902
764.935
950.713
0.833446
1.11319
1.23582
1.1553
1.20868
1.30315
1.37623
1.40812
1.49049
1.579
1.77985
1.92116
2.59554
205.203
766.829
776.536
801.625
796.282
823.479
1.0093
1.21168
1.21427
1.08733
1.1771
1.28092
1.36096
1.43455
1.41616
1.42281
8.58431
1.6322
90.0528
552.007
816.319
826.29
845.898
844.705
876.86
1.1169
1.15527
0.936942
1.02445
1.12107
1.23052
1.37321
1.65118
2.64619
193.588
512.75
630.864
714.67
868.884
875.357
887.901
908.797
872.257
876.024
1.05327
0.808453
0.883416
0.959191
1.03891
1.12096
1.24002
2.64558
303.344
895.012
946.086
941.926
937.484
937.201
945.273
962.49
986.148
963.139
950.98
0.707367
0.765597
0.828575
0.888044
0.957104
1.02947
1.06112
79.2467
809.413
1011.51
1006.36
1002.56
1001.13
1007.44
1021.61
1044.58
1071.63
1089.44
1055.06
0.672811
0.720585
0.772271
0.820646
0.880343
0.923423
0.951414
54.2376
736.184
1075.67
1070.29
1067.13
1068.97
1078.41
1098.35
1126.73
1160.06
1190.62
1208.12
0.634238
0.670229
0.707977
0.74339
0.772342
0.804488
0.769615
0.639435
140.672
917.958
1135.7
1133.57
1138.69
1151.9
1174.93
1207.23
1244.98
1278.82
1295.59
0.591325
0.616361
0.640474
0.661359
0.672343
0.65275
0.621968
0.524231
0.381644
235.86
1047.05
1197.43
1206.18
1222.14
1247.38
1281.85
1321.67
1356.76
1371.38
0.545981
0.561196
0.573332
0.579371
0.574279
0.543777
0.464461
0.364707
0.196019
0.15831
272.25
1096.08
1270.91
1286.3
1311.38
1345.5
1386.01
1421.7
1435.33
0.500112
0.506793
0.508728
0.503132
0.484817
0.445923
0.371783
0.244693
0.10766
-0.0464781
-0.323403
149.722
999.628
1350.89
1369.29
1396.5
1434.55
1471.66
1487.76
0.45522
0.4549
0.448991
0.434686
0.40779
0.362442
0.291342
0.18325
0.0257162
-0.149567
-0.385217
-0.653892
2.88226
369.394
1039.09
1355.46
1448.32
1504.11
1530.06
0.412295
0.406469
0.394678
0.374488
0.342648
0.29492
0.226272
0.131351
0.00618564
-0.162928
-0.343874
-0.468573
-0.394548
-0.502354
-0.271212
129.325
693.233
1366.12
1554.33
0.371982
0.362012
0.346104
0.322282
0.288138
0.240769
0.176901
0.0931145
-0.00713157
-0.129944
-0.279994
-0.404535
-0.479114
-0.58436
0.476698
2.74923
0.753331
588.214
1570.05
0.334621
0.321688
0.303129
0.277389
0.242788
0.19744
0.139493
0.0675609
-0.015829
-0.109526
-0.211617
-0.319606
-0.400615
-0.473307
-0.361222
3.96993
0.0648977
107.637
1471.48
0.300324
0.2854
0.265327
0.238924
0.205056
0.162603
0.110647
0.048985
-0.0203289
-0.0956506
-0.173024
-0.248267
-0.314293
-0.372325
-0.386035
2.08214
0.380197
7.07369
1191.21
0.26905
0.252918
0.232182
0.205973
0.173541
0.134296
0.0878965
0.0346694
-0.02369
-0.0857822
-0.149088
-0.209726
-0.263167
-0.30271
-0.306273
-0.300159
-0.061596
-0.214913
1118.85
0.240658
0.223933
0.20314
0.177682
0.147062
0.111014
0.0695238
0.023067
-0.0269143
-0.0793476
-0.132512
-0.183541
-0.229093
-0.258894
-0.250312
-0.200176
-0.124911
-0.0843188
1194.17
0.214941
0.198091
0.177672
0.153297
0.124651
0.0916443
0.0543955
0.0133256
-0.0301408
-0.0755724
-0.121512
-0.165693
-0.203657
-0.229208
-0.211155
-0.14583
-0.0734766
25.8248
1238.44
0.191669
0.175047
0.155307
0.132201
0.105565
0.075363
0.0417809
0.00520727
-0.0335304
-0.073721
-0.114486
-0.153931
-0.187449
-0.2111
-0.189197
-0.126924
-0.0369654
82.276
1109.15
0.170603
0.154473
0.135623
0.113898
0.0892064
0.0615739
0.031168
-0.00171717
-0.0366637
-0.0727909
-0.110132
-0.146441
-0.178495
-0.200608
-0.184001
-0.138189
-0.0747418
2.55887
303.307
0.151513
0.13607
0.118255
0.0979749
0.0751833
0.0499221
0.0223258
-0.00738993
-0.0389463
-0.0719872
-0.106579
-0.140541
-0.172262
-0.191864
-0.174065
-0.117142
-0.00905701
-0.0549157
412.23
0.13418
0.119569
0.10289
0.0840918
0.0631531
0.040121
0.0151038
-0.0117469
-0.0402817
-0.0704218
-0.102026
-0.134096
-0.163724
-0.184179
-0.151717
-0.0625852
0.119938
0.146602
1301.08
0.118402
0.104732
0.0892592
0.0719611
0.0528341
0.0319279
0.00933784
-0.0148149
-0.0404377
-0.0675499
-0.096177
-0.125669
-0.152129
-0.169092
-0.122557
-0.0182218
0.19827
13.7977
1697.02
0.103993
0.0913437
0.0771246
0.0613332
0.0439779
0.0251132
0.00483501
-0.0167301
-0.0394628
-0.0633155
-0.0882265
-0.113417
-0.135267
-0.145801
-0.102232
-0.0456924
0.309909
163.713
1747.23
0.0907829
0.0792124
0.066278
0.0519893
0.0363624
0.0194555
0.0013721
-0.0177347
-0.0376751
-0.058256
-0.0792529
-0.0998862
-0.116505
-0.11998
-0.0850555
-0.0319099
0.519967
440.031
1382.91
0.0786155
0.0681673
0.0565368
0.0437392
0.0297918
0.0147505
-0.00128109
-0.0181355
-0.0355652
-0.0532347
-0.0706629
-0.0869676
-0.0999912
-0.106964
-0.110785
-0.178233
63.5342
149.127
0.329328
0.0673504
0.0580571
0.0477427
0.036422
0.024106
0.0108372
-0.00330198
-0.0181734
-0.0335554
-0.0491299
-0.0643721
-0.0784923
-0.0918494
-0.116079
-0.177254
-0.0710865
30.9313
-1.19734
-0.314383
0.0568594
0.0487469
0.0397595
0.0299065
0.0191864
0.00761924
-0.00475126
-0.0178573
-0.0316085
-0.0458873
-0.0605551
-0.0755693
-0.0931515
-0.135029
-0.222477
-0.400523
0.197807
-0.847228
37.4804
0.0470236
0.0401145
0.0324671
0.0240838
0.0149443
0.00504321
-0.00561683
-0.0170472
-0.0293097
-0.0425741
-0.0572642
-0.0741385
-0.0944992
-0.142195
-0.215671
-0.403607
-0.699488
-0.829037
663.069
0.0377312
0.0320452
0.0257564
0.0188616
0.0113105
0.00307744
-0.00585732
-0.0155599
-0.0262217
-0.038236
-0.0523564
-0.0697181
-0.0882923
-0.133564
-0.187115
-0.280227
-0.395163
-0.50466
1529.75
0.0288771
0.0244292
0.019519
0.0141517
0.00820872
0.00166668
-0.00546949
-0.0132819
-0.0220747
-0.0322908
-0.0447886
-0.0606548
-0.0747041
-0.111521
-0.155015
-0.202873
-0.272014
-0.428291
1932.61
0.0203544
0.0171688
0.0136967
0.0100386
0.00579468
0.000964443
-0.00426299
-0.010152
-0.0168328
-0.0248411
-0.0354957
-0.0512889
-0.0615721
-0.0944336
-0.135559
-0.154799
-0.254845
-0.425431
1911.57
0.0119284
0.00979904
0.00741469
0.00542058
0.00294998
0.000219917
-0.00292882
-0.0064064
-0.0102365
-0.0141022
-0.0176133
-0.0217219
-0.0327919
-0.0566194
-0.0799735
-0.0888588
-0.216502
-0.392775
1261.31
0.00440553
0.00398283
0.00350077
0.00239739
0.00132684
0.000308903
-0.000834161
-0.00221096
-0.00397881
-0.00671
-0.0114613
-0.0195975
-0.0232823
-0.0336554
-0.0598785
-0.129329
-0.523908
-0.872335
101.386
)
;

boundaryField
{
    leftWall
    {
        type            fixedFluxPressure;
        gradient        uniform 0;
        value           nonuniform List<scalar> 
50
(
4313.97
4307.22
4295.99
4241.15
2431.69
1051.45
1049.58
1046.97
1041.82
1031.42
1017.37
913.397
207.136
0.98143
1.02086
0.909394
0.789075
0.686567
0.619704
0.583037
0.560771
0.541147
0.520447
0.498796
0.476837
0.454919
0.433229
0.411835
0.390838
0.370316
0.350237
0.330531
0.311144
0.292031
0.273156
0.254493
0.23602
0.217717
0.199572
0.181568
0.163697
0.145945
0.128303
0.110757
0.0932969
0.075911
0.0585953
0.0413459
0.0241364
0.00678716
)
;
    }
    rightWall
    {
        type            fixedFluxPressure;
        gradient        uniform 0;
        value           nonuniform List<scalar> 
50
(
4271.66
4295.54
4499.66
5031.54
5866.35
6522.71
6778.6
6453.66
5387.5
2428.73
1668.83
2559.98
2685.43
2780.59
2683.16
950.713
823.479
876.86
876.024
950.98
1055.06
1208.12
1295.59
1371.38
1435.33
1487.76
1530.06
1554.33
1570.05
1471.48
1191.21
1118.85
1194.17
1238.44
1109.15
303.307
412.23
1301.08
1697.02
1747.23
1382.91
0.329328
-0.314383
37.4804
663.069
1529.75
1932.61
1911.57
1261.31
101.386
)
;
    }
    lowerWall
    {
        type            fixedFluxPressure;
        gradient        uniform 0;
        value           nonuniform List<scalar> 
62
(
4313.97
4326.74
4331.81
4338.82
4347.94
4359.27
4374.11
4395.27
4427.55
4478.75
4561.34
4693.83
4900.41
5210.61
5639.93
6171.82
6757.35
7323.42
7804.5
8174.84
8447.88
8611.12
8719.85
8719.85
8743.31
8778.22
8835.92
8913.63
9011.61
9127.76
9278.82
9459.61
9382.88
9237.67
8935.65
2929.85
2923.97
2915.48
2906.12
2908.59
3316.36
6685.31
6582.07
2929.85
2955.14
2986.11
2919.8
2772.64
2602.9
2438.34
2282.11
2153.09
2088.6
2057.16
2041.76
2039.92
2073.49
2200.5
2525.47
3110.5
3868.07
4271.66
)
;
    }
    atmosphere
    {
        type            totalPressure;
        rho             rho;
        psi             none;
        gamma           1;
        p0              uniform 0;
        value           nonuniform List<scalar> 
46
(
-0.00200676
-0.00222663
-0.00223491
-0.00224992
-0.00224452
-0.00223012
-0.00220487
-0.00216894
-0.00212191
-0.00206325
-0.00199243
-0.00190899
-0.0018126
-0.00170316
-0.00158077
-0.00144577
-0.00129866
-0.00114012
-0.000970806
-0.000791248
-0.000601733
-0.000405341
-0.000217903
-9.11589e-05
-4.63141e-05
-2.01289e-05
-8.27638e-06
-4.38789e-06
0
0
0
0
0
0
0
0
0
-1.19611e-05
-0.00024016
-0.00079463
-0.0117048
-0.0126547
-0.0462942
-0.0309602
-0.0689305
0
)
;
    }
    defaultFaces
    {
        type            empty;
    }
}


// ************************************************************************* //
