/*--------------------------------*- C++ -*----------------------------------*\
| =========                 |                                                 |
| \\      /  F ield         | OpenFOAM: The Open Source CFD Toolbox           |
|  \\    /   O peration     | Version:  2312                                  |
|   \\  /    A nd           | Website:  www.openfoam.com                      |
|    \\/     M anipulation  |                                                 |
\*---------------------------------------------------------------------------*/
FoamFile
{
    version     2.0;
    format      ascii;
    arch        "LSB;label=32;scalar=64";
    class       volScalarField;
    location    "1.35";
    object      alpha.water;
}
// * * * * * * * * * * * * * * * * * * * * * * * * * * * * * * * * * * * * * //

dimensions      [0 0 0 0 0 0 0];

internalField   nonuniform List<scalar> 
2268
(
2.06413e-10
7.40019e-11
4.38876e-11
3.31721e-11
2.80895e-11
2.63424e-11
2.51933e-11
2.43809e-11
2.33836e-11
2.16911e-11
2.04713e-11
2.03023e-11
2.14911e-11
2.60189e-11
3.51066e-11
5.14193e-11
8.57702e-11
1.42082e-10
2.29904e-10
3.30901e-10
3.41882e-10
3.96333e-10
5.35172e-10
8.65055e-10
3.41535e-10
1.73789e-10
9.84599e-11
5.95013e-11
4.19498e-11
3.89071e-11
3.80417e-11
3.76245e-11
3.77062e-11
3.81076e-11
3.88116e-11
4.13075e-11
4.81711e-11
6.60633e-11
1.03126e-10
1.98505e-10
3.82806e-10
7.24456e-10
1.52339e-09
4.13373e-09
6.78386e-09
2.55219e-09
1.47515e-09
1.0437e-09
5.44268e-10
3.0829e-10
1.66487e-10
9.92242e-11
6.23524e-11
5.19763e-11
5.24658e-11
5.18734e-11
4.98902e-11
5.01457e-11
5.38269e-11
6.62922e-11
8.78088e-11
1.29245e-10
2.07758e-10
3.45038e-10
7.17185e-10
1.99677e-09
3.48635e-09
2.66425e-09
2.53217e-09
1.44432e-09
1.35677e-09
5.31863e-10
3.06198e-10
1.53383e-10
5.24616e-10
1.6405e-10
6.26328e-11
8.61039e-11
8.09141e-11
5.31956e-11
4.50256e-11
4.06224e-11
4.593e-11
5.87106e-11
8.05097e-11
6.98728e-11
4.0199e-11
-2.02393e-12
-8.38059e-28
2.94183e-28
-2.30209e-28
-2.31233e-15
5.17186e-11
5.32661e-11
5.26357e-11
5.41824e-11
5.35524e-11
4.78328e-09
2.52716e-09
6.49066e-11
1.1041e-10
1.82847e-10
6.70978e-11
2.01702e-10
6.03876e-11
2.37251e-11
1.52246e-11
1.19161e-11
4.76191e-12
2.09955e-12
0.0279685
0.157561
0.311635
0.428852
0.494002
0.107776
0.210755
0.282636
0.256161
0.180417
0.0908273
0.0248618
0.000486449
5.84363e-10
1.27262e-09
5.13855e-11
5.06592e-11
6.54956e-10
9.1722e-11
3.22644e-13
2.01809e-13
0.0207449
0.260153
0.651807
0.878949
0.970163
0.990499
0.981942
0.815781
0.925452
0.953825
0.959215
0.916709
0.821147
0.663973
0.445541
0.248384
0.103388
0.0221899
0.000534945
6.65243e-08
3.70165e-22
4.39266e-28
0.106344
0.541765
0.932518
0.999693
0.999821
0.99993
0.999997
0.990483
0.931041
0.930119
0.933739
0.969488
0.994652
0.995234
0.9954
0.9954
0.931038
0.784341
0.559954
0.348611
0.227301
0.231103
0.426892
0.808339
0.996019
0.999983
1
1
1
1
0.999565
0.0156172
0.013129
0.0331347
0.149047
0.156017
0.104457
0.0525798
0.0330863
0.0294641
0.0333652
0.0438046
0.0437016
0.0389996
0.0400848
0.0422644
0.0422639
0.0353835
0.0268476
0.0173009
0.0124837
0.0131815
0.0259337
0.161923
0.348058
0.462124
0.466634
0.221889
0.0281373
0.00383508
0.00810905
0.0158534
0.0374015
0.0431564
0.0371958
0.014592
0.0141087
0.0140797
0.0140978
0.0127723
0.0265563
0.116192
0.442902
0.516037
0.599362
0.626853
0.626677
0.329495
0.0173058
0.00812152
0.00813471
0.0112336
0.0143908
0.014349
0.0146793
0.0371978
0.0771463
0.066543
0.0174192
0.134118
0.446723
0.0943929
0.0149431
0.183565
0.31078
0.298165
0.078214
0.0156794
0.160734
0.296893
0.0937348
0.014348
0.0413144
0.242364
0.551451
0.636631
0.427987
0.051012
0.500943
0.589316
0.012436
0.0114842
0.011483
0.208071
0.547971
0.332892
0.0946532
0.403542
0.562092
0.563457
0.385624
0.369645
0.535339
0.862871
0.861122
0.399395
0.103391
0.684549
0.684528
0.0639617
0.0140221
0.0116797
0.076711
0.702784
0.660763
0.372066
0.627851
0.857777
0.857597
0.853607
0.834673
0.879051
0.881006
0.716218
0.154931
0.174422
0.73637
0.620389
0.112669
0.0880707
0.0427887
0.0214844
0.725953
0.877814
0.773998
0.878178
0.854338
0.804489
0.870166
0.879286
0.880999
0.881014
0.349588
0.139305
0.236105
0.674476
0.429578
0.386477
0.18504
0.0757973
0.0212847
0.663116
0.87769
0.87817
0.878169
0.459977
0.212399
0.505356
0.777985
0.740655
0.603059
0.173434
0.0973839
0.224458
0.222809
0.292114
0.56744
0.891436
0.99045
0.9954
0.9954
0.995176
0.994596
0.994578
0.970497
0.950318
0.955785
0.985892
0.999994
1
1
1
1
0.999987
0.999964
0.999999
1.16672e-14
7.69318e-15
6.51387e-15
7.69318e-15
0.0134368
0.497956
0.933192
0.986259
0.974493
0.960249
0.983542
0.998793
0.999877
0.99996
0.999984
0.999982
0.999996
0.999999
0.999999
0.999999
0.999936
0.999929
0.999945
2.61428e-11
6.69064e-06
0.000209697
0.000322986
0.000130932
0.000160411
0.0791785
0.553329
0.689503
0.554548
0.526189
0.648215
0.820094
0.952922
0.996143
0.998937
0.999996
0.999971
0.999956
0.999977
0.999989
0.999989
0.999996
1.3979e-07
2.77928e-08
0.000359753
0.000405417
0.000316859
6.68835e-05
8.53522e-05
0.115978
0.22138
0.137311
0.0152007
0.0593792
0.172816
0.423202
0.93563
0.999994
0.999994
0.999316
0.99903
0.999248
0.999984
0.999991
0.988031
2.94451e-07
5.91812e-08
2.08275e-05
0.000148034
5.67807e-05
4.75235e-05
4.75594e-05
0.00559619
0.0899023
0.0719898
0.00392996
1.04369e-17
0.000139562
0.265481
0.87572
0.999945
0.999782
0.999308
0.999431
0.999583
0.9871
0.91161
0.809186
1.49847e-06
2.71946e-06
2.17607e-06
2.05084e-06
1.90569e-06
0.000552375
0.000146762
7.28878e-05
1.92013e-05
0.00647333
0.00196659
3.6999e-18
0.0669323
0.761453
0.999708
0.999746
0.999468
0.998024
0.9956
0.924775
0.876252
0.872235
0.871875
3.04295e-06
3.54326e-06
2.34264e-05
2.7956e-05
2.63882e-05
0.0011955
0.00154021
0.000265169
1.6867e-05
1.4671e-05
5.77936e-05
-3.9663e-07
0.418909
0.955077
0.968498
0.980579
0.99007
0.944994
0.892494
0.860492
0.847865
0.830426
0.842296
8.56927e-07
1.69453e-06
1.14462e-05
1.24672e-06
4.21619e-06
0.000432254
0.00231223
0.00363237
0.0035946
0.000492639
2.23233e-08
0.0592529
0.569379
0.788005
0.751713
0.68147
0.582557
0.464886
0.370954
0.339368
0.280708
0.202096
0.213967
4.01518e-07
4.10441e-07
6.07261e-06
1.14556e-06
9.17399e-07
9.61937e-08
4.37346e-05
0.000587968
0.000976413
0.000227443
2.04465e-08
0.270189
0.587409
0.46021
0.109478
0.0170807
0.000379179
0.000343722
0.000157982
0.00189513
0.00252402
0.00248949
0.00178222
4.02012e-07
4.02533e-07
1.41092e-05
2.546e-06
1.68529e-07
7.00455e-08
1.17159e-06
0.000217985
0.000215674
5.3714e-05
0.00390821
0.203618
0.152465
0.012517
0.00013978
0.000139828
0.000428303
0.000437595
0.000156778
0.000204365
0.000264538
0.000251027
0.00020685
4.14131e-07
1.69139e-06
2.15988e-05
4.32011e-06
9.31362e-07
7.89949e-09
7.83817e-09
0.000406967
0.000638535
8.77968e-05
0.0206454
0.0120436
0.000475392
0.000185594
0.000139778
0.000167369
8.88182e-05
2.24878e-05
2.21803e-06
9.93234e-10
1.73902e-10
-4.9133e-14
-1.72589e-09
1.44895e-05
3.07884e-05
2.82201e-05
2.17564e-05
4.1832e-06
8.38408e-09
8.14271e-09
1.20783e-07
0.000286194
0.000665489
0.00138297
2.7486e-05
1.22443e-06
5.02336e-07
4.75621e-07
7.15166e-07
6.66094e-07
8.24769e-05
0.000125451
4.15277e-05
1.84832e-05
2.94037e-06
6.05785e-07
3.07971e-05
4.39142e-05
4.41392e-05
4.33239e-05
3.21052e-05
2.69348e-05
2.18571e-05
9.58426e-06
3.58807e-06
3.6344e-06
5.12169e-06
5.76286e-06
1.15837e-06
8.01505e-06
5.06506e-05
4.16379e-05
3.07148e-05
0.000133663
0.000151465
0.000149301
2.62599e-05
1.05642e-09
3.43996e-08
7.38166e-06
1.52443e-05
2.0411e-05
2.33558e-05
4.09004e-05
6.62041e-05
6.86783e-05
6.88567e-05
4.46693e-05
8.13563e-06
4.74449e-06
2.46186e-05
2.20007e-05
0.000172625
0.000196404
0.000196978
0.000121223
1.6405e-05
7.26678e-05
7.21412e-05
4.34721e-06
1.10507e-09
9.46597e-09
1.772e-07
1.76971e-07
1.61817e-07
1.89791e-07
3.43401e-06
1.78348e-05
4.48719e-05
6.71512e-05
6.78761e-05
3.38549e-05
8.66476e-06
0.000151911
0.00025913
0.000262104
0.000138014
9.47636e-05
3.3912e-05
9.24522e-06
2.54505e-06
1.42174e-09
1.22288e-08
1.20113e-09
2.9885e-09
1.76025e-07
1.76011e-07
6.81416e-07
7.60591e-07
-8.24105e-10
4.4953e-10
3.33786e-10
7.62891e-07
3.45869e-06
5.70273e-06
3.70553e-05
4.35842e-05
4.96304e-05
2.7313e-05
1.10249e-05
1.42083e-09
1.42233e-09
2.73526e-08
1.42094e-09
1.36562e-09
1.18002e-09
1.19002e-09
1.43899e-09
1.76011e-07
1.80911e-07
8.07195e-07
1.036e-06
8.19137e-07
6.83574e-08
4.56079e-10
-1.26435e-15
-2.25923e-10
1.81164e-12
9.28183e-15
-4.87022e-12
5.37587e-29
-1.97214e-20
-3.38082e-12
3.36345e-09
1.5112e-09
1.4209e-09
1.41832e-09
1.44326e-09
1.27353e-09
8.78349e-10
6.58179e-10
1.76256e-07
7.24489e-07
1.42935e-07
5.73992e-07
7.06939e-07
1.29746e-07
5.77593e-08
2.21004e-07
4.33301e-07
2.11818e-07
2.73119e-15
8.66734e-11
1.51871e-09
2.60782e-09
3.19423e-09
3.17792e-09
2.09916e-09
1.72757e-09
1.40574e-09
1.07612e-09
7.31441e-10
4.1707e-10
2.98279e-10
7.19644e-07
1.13181e-06
1.43797e-07
1.44657e-07
1.51638e-07
4.02844e-08
3.18489e-07
7.55594e-07
7.86967e-07
4.246e-07
5.86568e-10
1.9916e-09
4.33644e-09
4.08297e-09
2.95135e-09
2.57095e-09
1.95207e-09
1.50956e-09
9.66151e-10
5.21741e-10
2.9195e-10
1.67672e-10
9.05716e-11
2.53832e-06
2.53552e-06
8.78554e-07
1.2379e-07
9.53238e-09
2.12648e-08
3.81024e-07
7.04021e-07
4.39717e-07
1.24654e-09
2.21881e-09
6.64374e-09
7.59065e-09
4.69631e-09
3.17391e-09
2.23915e-09
1.45243e-09
9.08779e-10
4.3252e-10
2.23469e-10
1.07291e-10
5.3643e-11
2.61744e-11
2.53552e-06
2.53832e-06
1.61207e-06
2.51569e-07
3.61524e-08
6.99577e-09
8.45629e-09
1.31971e-08
1.54149e-08
2.1925e-08
1.20698e-08
1.14432e-08
9.49704e-09
5.85248e-09
3.04948e-09
1.6769e-09
8.29517e-10
3.93267e-10
1.83087e-10
7.00647e-11
3.05669e-11
1.592e-11
4.5982e-12
1.74279e-06
2.53552e-06
2.33194e-06
1.39893e-06
3.21924e-07
9.1994e-09
1.98249e-08
3.20483e-08
3.20749e-08
2.85681e-08
2.32678e-08
1.66295e-08
9.48729e-09
4.32426e-09
1.69419e-09
6.46509e-10
2.80219e-10
1.31518e-10
5.61584e-11
2.15832e-11
9.24976e-12
3.4336e-12
9.64538e-13
6.786e-07
1.19629e-06
3.43359e-06
3.43359e-06
1.65614e-06
2.52924e-08
2.0548e-08
3.58821e-08
3.65292e-08
3.19701e-08
1.3957e-08
4.83495e-09
2.64796e-09
1.18967e-09
4.22277e-10
1.66211e-10
8.68993e-11
3.90081e-11
1.75269e-11
7.31629e-12
2.99271e-12
1.25053e-12
2.25045e-13
1.30457e-07
3.20703e-07
2.07806e-06
3.43359e-06
3.3783e-06
2.83923e-07
1.41974e-08
1.1779e-08
1.80053e-08
9.87277e-09
8.16598e-10
3.62909e-10
3.55492e-10
2.25946e-10
9.17476e-11
6.29534e-11
3.22053e-11
1.72618e-11
8.95661e-12
3.84903e-12
1.55109e-12
4.81854e-13
6.9484e-14
6.12595e-08
6.17484e-08
8.56846e-07
3.43359e-06
3.43359e-06
2.43881e-06
1.29908e-08
1.86425e-12
7.22522e-12
3.50463e-10
6.06667e-10
3.65706e-10
2.15993e-10
1.38178e-10
6.66372e-11
4.54968e-11
2.72714e-11
1.35806e-11
6.42744e-12
2.54364e-12
8.36446e-13
2.86191e-13
4.86483e-14
8.21338e-08
6.25335e-08
3.36372e-07
2.50111e-06
3.4159e-06
1.99106e-06
9.49578e-11
1.15057e-10
1.38124e-09
1.65495e-09
7.31397e-10
4.85464e-10
1.79281e-10
1.1483e-10
7.35971e-11
4.21768e-11
2.33451e-11
1.04334e-11
4.70282e-12
1.61115e-12
5.20883e-13
1.37308e-13
3.02447e-14
4.67184e-07
6.37062e-08
2.18331e-07
6.31037e-07
1.07235e-06
1.34903e-06
2.60917e-08
2.87891e-09
3.80949e-09
2.45677e-09
3.11101e-10
3.15323e-10
2.03477e-10
1.23229e-10
7.11271e-11
3.71967e-11
1.81241e-11
7.89774e-12
3.04337e-12
9.67908e-13
2.75931e-13
6.88071e-14
1.2045e-14
8.43876e-07
6.50194e-08
7.95582e-08
1.33933e-07
1.79738e-07
1.00447e-07
5.5943e-08
4.33014e-08
4.74545e-10
4.84072e-10
4.23023e-10
3.37841e-10
1.95782e-10
1.10711e-10
5.84158e-11
2.79419e-11
1.20559e-11
4.91101e-12
1.74451e-12
5.30906e-13
1.34782e-13
2.54665e-14
5.42618e-15
8.39007e-07
7.19457e-08
5.6291e-08
6.8033e-08
3.5805e-08
7.40107e-09
1.18048e-08
5.60976e-09
1.47656e-09
9.37481e-10
5.65046e-10
2.9928e-10
1.6489e-10
8.48813e-11
4.13861e-11
1.84342e-11
7.49156e-12
2.7075e-12
9.13822e-13
2.32458e-13
5.55316e-14
1.09577e-14
1.36632e-15
8.11548e-07
7.30318e-08
3.46299e-08
8.80869e-09
7.10465e-09
6.87808e-09
5.50452e-09
2.39816e-09
1.84961e-09
8.58371e-10
4.51828e-10
2.4462e-10
1.25136e-10
5.81902e-11
2.60506e-11
1.08515e-11
4.03668e-12
1.39278e-12
3.98798e-13
1.01015e-13
2.22472e-14
3.08336e-15
5.7916e-16
8.27458e-07
1.04686e-07
4.52748e-08
4.09928e-09
3.02045e-09
3.01111e-09
3.03128e-09
2.83557e-09
1.54772e-09
6.84229e-10
3.53583e-10
1.78548e-10
8.36173e-11
3.58879e-11
1.51383e-11
5.89531e-12
1.90776e-12
6.02309e-13
1.65511e-13
3.67987e-14
6.94592e-15
1.1451e-15
1.34056e-16
8.52307e-07
1.25488e-07
6.11771e-08
3.60787e-08
1.71266e-08
1.93905e-09
1.90111e-09
1.64716e-09
1.04986e-09
5.19762e-10
2.61004e-10
1.22556e-10
5.48665e-11
2.21196e-11
8.08743e-12
2.82666e-12
8.88196e-13
2.43992e-13
5.8912e-14
1.23654e-14
2.15693e-15
2.30295e-16
3.7775e-17
1.01899e-06
1.73714e-07
4.71074e-08
4.58962e-08
3.64889e-08
8.09491e-09
1.96877e-09
1.25351e-09
7.56832e-10
3.9777e-10
1.90366e-10
8.2752e-11
3.29776e-11
1.22052e-11
3.98425e-12
1.22455e-12
3.43767e-13
8.48061e-14
1.81231e-14
3.26421e-15
4.45696e-16
6.49313e-17
6.24147e-18
1.16122e-06
1.33652e-06
3.4203e-08
1.51788e-08
1.77199e-08
4.4784e-09
1.63803e-09
1.00681e-09
6.10583e-10
3.182e-10
1.42491e-10
5.43795e-11
1.89752e-11
6.15246e-12
1.77976e-12
4.92074e-13
1.21451e-13
2.49338e-14
4.67772e-15
7.83106e-16
1.1097e-16
1.09328e-17
1.2571e-18
8.0931e-07
1.52195e-06
6.75457e-07
1.11905e-08
1.08457e-08
2.47733e-09
1.20236e-09
9.20753e-10
5.36753e-10
2.54241e-10
1.02573e-10
3.59618e-11
1.0596e-11
2.89238e-12
7.22628e-13
1.70637e-13
3.69357e-14
6.93845e-15
1.18666e-15
1.51669e-16
1.91579e-17
2.18179e-18
1.78551e-19
3.4794e-07
1.39489e-06
1.33116e-06
8.29759e-08
1.12851e-08
2.03014e-09
1.66662e-09
1.03268e-09
5.01436e-10
1.96224e-10
6.64002e-11
1.95388e-11
5.06347e-12
1.2161e-12
2.81732e-13
5.92263e-14
1.12724e-14
1.84474e-15
2.77502e-16
3.57732e-17
3.78556e-18
3.41968e-19
2.74273e-20
1.0216e-07
1.70845e-07
3.02305e-07
7.66116e-08
1.33847e-08
3.97946e-09
2.01454e-09
9.87777e-10
4.03077e-10
1.3538e-10
4.08303e-11
1.06314e-11
2.63524e-12
5.85223e-13
1.14227e-13
1.96515e-14
3.36988e-15
4.73803e-16
6.35408e-17
6.26991e-18
5.91177e-19
4.7245e-20
3.10086e-21
5.83602e-08
1.65167e-08
1.33271e-08
1.53481e-08
8.81154e-09
3.80847e-09
1.67604e-09
6.72657e-10
2.39591e-10
7.4184e-11
2.07235e-11
5.16689e-12
1.15448e-12
2.33602e-13
4.22603e-14
6.51224e-15
9.31767e-16
1.1444e-16
1.26471e-17
1.20392e-18
9.28358e-20
5.80719e-21
3.38178e-22
1.60916e-08
1.77282e-08
1.329e-08
9.93493e-09
5.05361e-09
2.25648e-09
9.44634e-10
3.58275e-10
1.20372e-10
3.43276e-11
8.58093e-12
1.94976e-12
4.07346e-13
7.875e-14
1.39706e-14
2.18837e-15
2.84575e-16
3.01215e-17
2.96828e-18
2.36616e-19
1.4919e-20
7.54408e-22
3.59079e-23
6.75921e-09
1.04803e-08
9.42523e-09
5.46503e-09
2.23677e-09
8.99567e-10
3.42677e-10
1.19696e-10
3.69825e-11
1.0357e-11
2.65609e-12
6.23459e-13
1.33488e-13
2.53459e-14
4.29996e-15
6.36822e-16
8.24963e-17
8.79474e-18
7.60716e-19
5.09787e-20
2.70774e-21
1.15811e-22
4.49887e-24
1.98428e-09
2.67493e-09
2.61532e-09
1.43282e-09
6.43803e-10
2.74069e-10
1.00986e-10
3.32133e-11
9.98488e-12
2.76954e-12
7.18974e-13
1.7386e-13
3.74479e-14
7.28046e-15
1.26937e-15
1.95783e-16
2.52164e-17
2.7753e-18
2.5364e-19
1.74514e-20
8.31936e-22
2.50274e-23
6.16699e-25
5.74321e-10
8.29146e-10
7.13317e-10
3.63641e-10
1.46772e-10
5.63751e-11
1.84286e-11
5.75722e-12
1.645e-12
4.3909e-13
1.07639e-13
2.42503e-14
5.47319e-15
1.14774e-15
2.0136e-16
3.26621e-17
4.54419e-18
5.58319e-19
5.61223e-20
4.49746e-21
2.70426e-22
1.11122e-23
2.49267e-25
0.999999
0.999999
0.999999
0.999999
0.999991
0.999999
0.999999
0.999999
0.999999
0.999999
0.97427
0.840727
0.913995
0.682439
0.657337
0.65852
0.656214
0.655871
0.655897
0.689421
0.870869
0.869646
0.791983
0.810428
0.861857
0.855099
0.733934
0.439277
0.240192
0.235081
0.164097
0.0395288
0.000808648
1.66794e-06
9.53864e-10
9.53316e-10
0.000171279
9.61907e-05
3.26978e-06
9.53657e-10
-2.0695e-10
-1.83596e-10
1.82406e-08
2.19273e-08
6.73273e-08
4.20275e-08
5.21755e-08
4.69297e-08
1.72664e-08
4.56869e-08
5.50525e-08
5.50899e-08
6.30028e-09
1.75822e-08
3.84987e-08
3.69841e-08
3.06256e-09
7.10591e-09
6.04993e-09
1.48814e-08
1.20751e-09
8.94827e-10
2.13493e-09
1.72643e-09
4.93339e-10
4.54067e-10
4.59956e-10
6.33921e-10
1.76915e-10
1.10513e-10
1.62157e-10
1.42865e-10
5.53173e-11
3.75816e-11
3.30195e-11
4.10585e-11
9.0192e-12
5.95204e-12
8.32743e-12
5.49305e-12
1.78229e-12
1.22823e-12
1.10604e-12
1.04205e-12
2.54205e-13
1.52204e-13
2.21016e-13
1.67715e-13
3.75351e-14
3.03783e-14
3.07832e-14
3.45021e-14
5.71378e-15
4.41925e-15
6.62883e-15
7.03336e-15
2.88506e-15
9.7964e-16
9.10186e-16
1.18211e-15
2.65255e-15
5.66991e-16
1.93489e-16
1.86961e-16
2.14474e-15
4.9698e-16
8.82724e-17
4.18993e-17
7.31633e-16
2.09323e-16
4.17655e-17
1.20137e-17
2.84102e-16
5.68422e-17
1.17282e-17
3.49018e-18
8.39867e-17
1.32076e-17
3.36336e-18
7.50047e-19
2.27543e-17
3.86391e-18
6.77372e-19
1.60377e-19
4.97076e-18
7.17267e-19
1.34435e-19
2.0747e-20
9.49742e-19
1.41726e-19
1.77115e-20
3.36674e-21
1.46499e-19
2.12113e-20
3.09143e-21
3.87375e-22
2.0381e-20
2.75433e-21
3.05807e-22
4.22201e-23
2.80756e-21
3.55589e-22
3.99672e-23
3.62831e-24
3.22974e-22
3.80518e-23
4.01329e-24
3.02393e-25
3.24268e-23
3.39192e-24
3.05666e-25
2.18418e-26
3.12296e-24
2.76585e-25
1.98437e-26
1.37426e-27
2.87135e-25
2.13589e-26
1.27756e-27
8.02412e-29
2.66055e-26
1.60446e-27
7.82153e-29
4.9288e-30
4.48264e-27
1.26908e-28
4.81574e-30
4.48226e-31
0.612178
0.475918
0.412386
0.571667
0.563887
0.270233
0.0227374
0.142298
0.518729
0.802851
0.743126
0.233424
0.00702975
0.102681
0.163664
0.120405
0.0681917
0.02745
0.00144716
0.999565
0.741577
0.413613
0.59096
0.673611
0.613722
0.303898
0.028839
0.0288188
0.151714
0.132228
0.0555609
0.00775519
1.91811e-06
1.63307e-12
-2.86753e-25
-4.9914e-26
1.23626e-22
-3.31384e-16
0.958917
0.764436
0.427242
0.56745
0.674838
0.673666
0.564744
0.141316
0.00196672
0.0140964
0.0163707
0.0106871
0.00202121
2.20319e-06
1.09528e-06
1.6422e-06
1.63512e-06
2.06235e-07
1.31484e-10
0.886194
0.706248
0.50965
0.56549
0.659202
0.532125
0.356196
0.0601227
0.000340465
0.00130057
0.0055788
0.0124233
0.00479026
2.11127e-07
2.0342e-07
4.21695e-07
8.03099e-07
6.7867e-07
2.54742e-08
0.896194
0.895937
0.894546
0.650029
0.332271
0.0125701
0.0131797
0.0070781
0.000410242
0.000235523
0.00830137
0.0123807
0.00485654
8.80915e-05
1.14827e-11
1.14826e-11
1.97324e-07
3.90527e-07
1.35017e-08
0.688482
0.636639
0.475193
0.187775
0.000289878
6.36523e-08
6.2681e-08
6.36523e-08
2.8561e-06
0.00173802
0.0089962
0.0072806
0.000531006
5.0999e-05
1.3215e-06
1.14827e-11
1.56376e-09
2.47989e-08
3.89154e-09
0.198789
0.0655523
0.0183265
1.5731e-06
9.16222e-07
2.51305e-07
5.61496e-07
7.19879e-05
0.00106398
0.0057816
0.00702329
0.00111716
2.27632e-10
2.27408e-10
6.20023e-08
1.14826e-11
2.02029e-11
1.11427e-10
3.74935e-10
9.53568e-10
9.53873e-10
9.53849e-10
5.34111e-06
6.28582e-06
2.32612e-06
1.77803e-05
0.000422679
0.00471008
0.00470016
3.09949e-06
5.39328e-07
9.35988e-07
2.32238e-10
1.34694e-10
1.26328e-10
8.20263e-11
3.72854e-11
1.22642e-11
9.53873e-10
9.53609e-10
2.17026e-09
2.11634e-09
4.55202e-09
6.15223e-06
3.06933e-05
0.00127095
0.00254954
0.000733947
5.40241e-07
5.2948e-07
4.83431e-07
1.13556e-10
2.21384e-10
2.75136e-10
1.9873e-10
7.63707e-11
9.99028e-12
9.55349e-10
9.5503e-10
3.93922e-08
1.34756e-08
4.52066e-09
3.20897e-06
0.000219415
0.000717255
1.22124e-06
2.86191e-07
1.01682e-06
3.65737e-07
2.14271e-10
2.13176e-10
4.39443e-10
4.4456e-10
3.14834e-10
1.23473e-10
1.10234e-11
1.72842e-08
3.72749e-08
4.59443e-08
2.86217e-08
1.15197e-06
2.99343e-05
0.000107635
1.31564e-05
1.18979e-07
4.09171e-07
1.02005e-06
1.24998e-07
2.15424e-10
4.61182e-10
7.29336e-10
6.18076e-10
4.11453e-10
1.48203e-10
1.19442e-11
3.96371e-08
6.20003e-08
6.0981e-08
1.83858e-07
1.58509e-06
1.64165e-05
1.5803e-05
3.01059e-07
1.97416e-07
8.64073e-07
3.14935e-07
1.50249e-08
2.33542e-09
1.47387e-09
1.01373e-09
7.40499e-10
4.23867e-10
1.46264e-10
9.787e-12
5.48869e-08
4.31703e-08
4.33838e-08
1.25112e-07
2.70566e-07
4.96633e-08
4.73028e-10
4.51996e-10
1.44804e-07
5.26655e-07
3.91141e-08
7.16561e-09
5.76936e-09
3.48652e-09
1.53487e-09
7.33928e-10
4.03208e-10
1.28695e-10
7.30228e-12
3.3964e-08
2.4955e-08
1.20519e-08
3.07695e-09
4.29644e-10
4.27378e-10
8.17855e-10
5.19868e-09
3.67999e-08
1.72886e-08
3.33553e-09
4.49205e-09
2.49079e-09
1.42093e-09
9.67212e-10
6.0093e-10
2.96901e-10
6.63299e-11
6.10698e-12
1.13176e-08
1.07718e-08
5.78794e-09
9.15255e-10
4.27381e-10
4.23734e-10
1.20804e-09
5.8053e-09
6.93209e-10
6.92459e-10
1.01388e-09
1.32708e-09
8.33916e-10
5.41197e-10
4.01365e-10
3.05237e-10
1.68871e-10
5.22466e-11
4.64016e-12
3.06887e-09
3.47176e-09
2.49786e-09
6.87667e-10
4.43387e-10
4.17518e-10
8.17711e-10
2.47924e-09
7.26544e-10
7.84956e-10
9.40109e-10
8.87288e-10
6.55396e-10
4.27328e-10
2.76254e-10
1.76013e-10
9.42115e-11
3.15488e-11
2.83882e-12
7.6518e-10
8.97866e-10
4.71403e-10
1.94284e-10
2.50582e-10
2.93745e-10
4.69061e-10
8.24795e-10
6.44242e-10
7.49757e-10
7.59844e-10
6.06934e-10
3.98754e-10
2.40137e-10
1.45559e-10
9.71329e-11
5.79382e-11
1.39566e-11
2.08642e-12
1.72874e-10
1.33942e-10
1.22232e-11
3.93647e-11
7.25813e-11
1.30756e-10
2.36365e-10
3.23666e-10
3.86181e-10
4.14842e-10
3.57008e-10
2.50467e-10
1.53375e-10
1.05015e-10
7.13525e-11
5.10981e-11
2.72273e-11
5.36212e-12
1.73389e-12
3.20957e-11
1.38683e-11
3.34892e-12
1.02722e-11
2.29005e-11
4.12601e-11
8.82692e-11
1.32172e-10
1.5377e-10
1.42236e-10
1.16229e-10
8.11921e-11
5.92863e-11
4.37208e-11
3.35158e-11
2.61999e-11
1.40755e-11
2.99623e-12
1.54199e-12
5.22592e-12
2.44446e-12
1.38016e-12
3.3387e-12
6.92412e-12
1.31101e-11
3.2124e-11
4.82581e-11
4.95879e-11
4.73563e-11
3.90425e-11
3.03656e-11
2.53434e-11
2.03335e-11
1.58178e-11
1.17369e-11
3.95968e-12
1.83801e-12
1.42827e-12
7.81282e-13
6.52718e-13
6.14038e-13
1.10849e-12
2.4149e-12
4.62658e-12
1.02018e-11
1.56716e-11
1.81874e-11
1.78687e-11
1.54677e-11
1.28547e-11
1.08524e-11
8.69028e-12
6.87413e-12
4.20414e-12
1.35522e-12
1.43854e-12
1.32917e-12
1.49309e-13
1.88859e-13
2.56456e-13
5.2162e-13
9.30411e-13
1.55024e-12
3.62296e-12
5.39731e-12
6.09884e-12
6.3909e-12
5.84433e-12
5.20617e-12
4.17773e-12
2.64124e-12
1.17704e-12
1.18522e-12
5.79684e-13
1.32545e-12
1.19739e-12
3.49096e-14
5.05947e-14
9.40208e-14
2.14686e-13
3.4179e-13
5.82959e-13
1.12352e-12
1.70667e-12
2.06775e-12
2.1956e-12
2.15859e-12
1.56407e-12
7.08847e-13
1.26553e-13
3.1692e-14
3.35528e-13
3.46206e-13
1.21373e-12
1.0566e-12
7.53993e-15
1.06011e-14
2.84827e-14
6.45219e-14
1.19298e-13
1.99843e-13
3.51727e-13
5.24464e-13
6.40417e-13
7.22759e-13
3.78135e-13
7.88793e-14
1.10952e-14
1.63095e-15
9.28295e-15
8.0109e-14
3.2111e-13
1.07663e-12
9.3113e-13
1.46706e-15
2.48736e-15
6.72376e-15
1.99543e-14
3.68872e-14
6.37144e-14
1.04639e-13
1.47235e-13
1.80044e-13
6.88936e-14
7.70018e-15
5.25235e-16
2.95774e-16
1.12868e-15
1.00005e-14
6.81364e-14
3.39e-13
9.79975e-13
8.40901e-13
2.35642e-16
4.95589e-16
1.93322e-15
5.68767e-15
1.05259e-14
1.79334e-14
2.70654e-14
3.53219e-14
1.48222e-14
8.7895e-16
3.22956e-17
3.95786e-17
2.94871e-16
2.06331e-15
1.20693e-14
7.53421e-14
3.73714e-13
9.23376e-13
6.94073e-13
3.62664e-17
1.02487e-16
5.50622e-16
1.42494e-15
2.62434e-15
4.11506e-15
5.35922e-15
3.66462e-15
1.48793e-16
8.43079e-18
7.78706e-18
5.06543e-17
4.04333e-16
3.04128e-15
1.67691e-14
8.87644e-14
3.96177e-13
8.22429e-13
5.18912e-13
6.88183e-18
2.84209e-17
1.22872e-16
2.95261e-16
5.24469e-16
7.53887e-16
9.04657e-16
3.83492e-17
1.6553e-18
1.01174e-18
7.89425e-18
7.57371e-17
5.95862e-16
4.54665e-15
2.68411e-14
1.24653e-13
4.32581e-13
6.88687e-13
3.73282e-13
1.47978e-18
6.01432e-18
2.11117e-17
4.83597e-17
8.02989e-17
1.00768e-16
2.27578e-17
5.91781e-19
1.22396e-19
1.02825e-18
1.13478e-17
1.14118e-16
9.42636e-16
7.01137e-15
4.08711e-14
1.78389e-13
4.61592e-13
6.09687e-13
2.53276e-13
2.9331e-19
8.85872e-19
2.83646e-18
6.17207e-18
9.68623e-18
1.10168e-17
8.55439e-19
5.99697e-20
1.24425e-19
1.43987e-18
1.63442e-17
1.65021e-16
1.35649e-15
9.49249e-15
4.64431e-14
1.77339e-13
4.28279e-13
4.70825e-13
1.72174e-13
4.76026e-20
9.86785e-20
3.01054e-19
6.23583e-19
9.47245e-19
1.04063e-18
1.96494e-19
2.39483e-20
1.16104e-19
1.27576e-18
1.37032e-17
1.39007e-16
1.24613e-15
8.50569e-15
3.569e-14
1.23229e-13
2.9446e-13
2.94408e-13
1.05904e-13
5.91088e-21
8.86093e-21
2.56935e-20
5.13303e-20
7.65234e-20
8.34091e-20
2.57245e-20
9.05695e-21
7.61068e-20
7.38005e-19
6.36873e-18
4.71984e-17
4.41872e-16
4.75642e-15
1.9612e-14
6.1034e-14
1.24875e-13
1.41443e-13
6.25061e-14
5.91464e-22
6.53311e-22
1.77214e-21
3.50506e-21
5.24779e-21
5.61558e-21
2.54274e-21
3.49081e-21
3.4864e-20
3.0203e-19
2.45965e-18
1.69771e-17
9.30252e-17
1.7133e-15
8.28458e-15
2.32414e-14
4.64265e-14
6.87557e-14
2.80518e-14
5.72761e-23
3.65203e-23
9.11836e-23
1.65482e-22
2.53524e-22
2.76666e-22
2.14935e-22
9.80151e-22
9.14912e-21
1.03935e-19
8.08615e-19
5.14693e-18
2.52301e-17
4.39418e-16
2.44094e-15
6.90835e-15
1.63716e-14
2.1564e-14
1.33314e-14
4.23848e-24
1.80822e-24
4.68572e-24
8.33756e-24
1.22523e-23
1.51644e-23
2.77228e-23
1.81766e-22
2.01231e-21
1.87387e-20
1.56412e-19
1.05119e-18
5.41477e-18
9.16352e-17
5.64508e-16
1.52482e-15
3.4426e-15
6.52788e-15
4.23889e-15
3.339e-25
9.15391e-26
2.16567e-25
4.24935e-25
7.99877e-25
1.99589e-24
7.16708e-24
3.78273e-23
2.70974e-22
2.55259e-21
2.25503e-20
1.65212e-19
8.90277e-19
1.54247e-17
1.00407e-16
2.95419e-16
7.32072e-16
1.07607e-15
1.57779e-15
2.31418e-26
5.36598e-27
1.41128e-26
4.72065e-26
1.92247e-25
8.40825e-25
3.20091e-24
1.1673e-23
4.45006e-23
2.59571e-22
2.11539e-21
1.69574e-20
1.09648e-19
2.18932e-18
1.6001e-17
4.12546e-17
7.64164e-17
1.88674e-16
3.54247e-16
1.46089e-27
6.00611e-28
3.2738e-27
1.87837e-26
9.50432e-26
3.92489e-25
1.46209e-24
4.53954e-24
1.26341e-23
3.71412e-23
1.77435e-22
1.30035e-21
9.12984e-21
2.44502e-19
1.96545e-18
5.57711e-18
1.16427e-17
2.0819e-17
9.31633e-17
9.96244e-29
2.10907e-28
1.57409e-27
9.22841e-27
4.42827e-26
1.7775e-25
5.92479e-25
1.69574e-24
4.19818e-24
9.7589e-24
2.51838e-23
1.1112e-22
7.33829e-22
2.6847e-20
2.41318e-19
6.97792e-19
9.28668e-19
3.2899e-18
1.57351e-17
1.41995e-29
1.03777e-28
7.65656e-28
4.18936e-27
1.77346e-26
6.2063e-26
1.78305e-25
4.55197e-25
1.06422e-24
2.07742e-24
4.06084e-24
9.20982e-24
4.21114e-23
1.73063e-21
1.76041e-20
5.59008e-20
1.33809e-19
4.47601e-19
3.31152e-18
5.22944e-30
4.81938e-29
3.21829e-28
1.55114e-27
5.76693e-27
1.74392e-26
4.72473e-26
1.08163e-25
2.2096e-25
4.50551e-25
8.14026e-25
1.39338e-24
3.70022e-24
1.20904e-22
1.42257e-21
5.52727e-21
1.25576e-20
9.99491e-20
7.35243e-19
2.33433e-30
1.91698e-29
1.03125e-28
4.0494e-28
1.27851e-27
3.51474e-27
8.69965e-27
1.90476e-26
3.7807e-26
7.30543e-26
1.30186e-25
2.12451e-25
4.12147e-25
6.93506e-24
9.85655e-23
5.19254e-22
2.02359e-21
2.00717e-20
1.02499e-19
)
;

boundaryField
{
    leftWall
    {
        type            zeroGradient;
    }
    rightWall
    {
        type            zeroGradient;
    }
    lowerWall
    {
        type            zeroGradient;
    }
    atmosphere
    {
        type            inletOutlet;
        inletValue      uniform 0;
        value           nonuniform List<scalar> 
46
(
0
0
0
0
0
0
0
0
0
0
0
0
0
0
0
0
0
0
0
0
0
1.11122e-23
2.49267e-25
4.48264e-27
1.26908e-28
4.81573e-30
4.48226e-31
2.33433e-30
1.91698e-29
1.03125e-28
4.0494e-28
1.27851e-27
3.51474e-27
8.69965e-27
1.90476e-26
3.7807e-26
7.30543e-26
1.30186e-25
2.12451e-25
4.12147e-25
6.93506e-24
9.85655e-23
5.19254e-22
2.02359e-21
2.00717e-20
1.02499e-19
)
;
    }
    defaultFaces
    {
        type            empty;
    }
}


// ************************************************************************* //
