/*--------------------------------*- C++ -*----------------------------------*\
| =========                 |                                                 |
| \\      /  F ield         | OpenFOAM: The Open Source CFD Toolbox           |
|  \\    /   O peration     | Version:  2312                                  |
|   \\  /    A nd           | Website:  www.openfoam.com                      |
|    \\/     M anipulation  |                                                 |
\*---------------------------------------------------------------------------*/
FoamFile
{
    version     2.0;
    format      ascii;
    arch        "LSB;label=32;scalar=64";
    class       volScalarField;
    location    "1.35";
    object      alpha.oil;
}
// * * * * * * * * * * * * * * * * * * * * * * * * * * * * * * * * * * * * * //

dimensions      [0 0 0 0 0 0 0];

internalField   nonuniform List<scalar> 
2268
(
4.42746e-11
5.59887e-12
1.15095e-12
3.34321e-13
1.44034e-13
1.46277e-13
1.81771e-13
2.71355e-13
8.4839e-13
1.77492e-12
3.39027e-12
6.20413e-12
1.25179e-11
2.76832e-11
5.48642e-11
9.78536e-11
1.73606e-10
3.00797e-10
4.67504e-10
4.481e-10
1.04725e-06
5.12893e-05
7.11761e-05
3.90622e-10
5.97214e-11
1.21821e-11
3.02492e-12
1.15644e-12
1.15976e-12
1.59202e-12
2.20871e-12
1.20545e-11
1.16833e-11
1.15627e-11
1.68881e-11
3.0725e-11
6.18533e-11
1.31099e-10
2.50928e-10
4.49381e-10
8.8275e-10
2.60032e-09
4.41613e-10
1.28637e-07
1.82642e-05
5.34434e-05
1.73726e-09
3.27264e-10
4.74871e-11
1.59534e-11
1.0965e-11
1.31172e-11
9.52055e-12
2.26811e-11
2.87678e-10
3.23689e-10
7.7074e-11
3.87081e-11
4.98065e-11
9.48256e-11
1.72103e-10
2.78942e-10
3.77228e-10
5.03549e-10
8.10337e-10
4.42416e-10
4.42948e-10
9.24712e-10
1.0142e-09
2.9999e-09
6.3577e-10
5.97836e-11
3.66225e-11
3.71886e-11
8.3953e-11
3.22323e-11
6.67373e-10
2.16887e-09
2.78867e-09
1.36034e-09
3.62467e-10
5.19243e-11
5.62116e-11
8.26049e-11
1.02536e-10
3.97975e-11
4.06273e-11
3.96321e-11
4.06355e-11
1.59238e-05
0.000241833
0.000644321
6.14139e-11
6.48017e-11
3.68757e-11
3.67487e-11
3.68753e-11
1.84586e-10
3.21098e-11
5.18006e-09
4.13965e-09
5.60777e-09
5.79049e-08
2.54673e-08
8.45858e-10
4.41952e-10
4.66905e-11
2.68211e-11
1.65091e-09
9.53629e-05
0.000301412
0.000311332
0.000248008
0.0015948
0.00928764
3.66269e-06
1.78292e-05
9.51083e-06
4.20385e-06
7.7582e-07
1.8615e-10
5.82619e-07
2.1168e-09
2.07634e-09
-6.05317e-12
1.81277e-07
2.9442e-07
2.40226e-07
2.23822e-11
2.22663e-11
1.11568e-05
0.000293234
0.000577556
0.000577955
0.000577981
0.000337945
0.00105857
0.0092916
9.44283e-06
9.54131e-06
0.000109644
1.95274e-05
1.4206e-05
2.51643e-06
1.17514e-06
1.36759e-05
7.66426e-13
-2.41686e-21
7.67286e-13
1.88878e-08
8.61911e-06
1.78284e-05
2.68982e-05
0.00011166
0.000366057
0.000396552
0.000307431
0.00017875
6.94981e-05
8.07536e-08
0.00570023
9.0998e-06
0.0139853
0.00780584
9.24476e-06
9.2439e-06
9.31129e-06
3.60796e-07
0.000352147
0.00129838
0.000597774
2.0157e-12
2.0157e-12
4.93743e-06
5.43144e-05
8.11759e-05
9.88338e-05
8.31037e-05
1.66825e-05
3.73746e-07
7.93656e-10
-3.58939e-12
-1.0277e-27
0.000415937
0.598128
0.612443
0.53976
0.0968516
0.0540193
0.05365
0.0543182
0.0647725
0.0600428
0.0550237
0.0427706
0.041499
0.0414991
0.0416264
0.040584
0.0297146
0.0191099
0.0220018
0.0632385
0.608332
0.763686
0.757599
0.597947
0.421836
0.342373
0.301711
0.256213
0.35798
0.378414
0.349602
0.295334
0.155232
0.0566226
0.0223113
0.0223614
0.0228248
0.0327752
0.0468854
0.622626
0.763298
0.650077
0.187528
0.122535
0.122064
0.149039
0.174671
0.422856
0.565135
0.565176
0.565599
0.540017
0.274994
0.1064
0.0908181
0.121028
0.153257
0.171051
0.652143
0.564384
0.149311
0.397812
0.408178
0.22459
0.149522
0.17172
0.445839
0.564258
0.565606
0.565604
0.565604
0.561549
0.506648
0.361808
0.264166
0.269986
0.490105
0.649726
0.169531
0.126815
0.665207
0.818725
0.585561
0.255622
0.0893187
0.300757
0.565609
0.565602
0.422935
0.403562
0.516225
0.52039
0.421064
0.132529
0.134132
0.595621
0.687468
0.0926112
0.127703
0.865148
0.867616
0.867588
0.647075
0.130525
0.233028
0.565603
0.365533
0.12281
0.119753
0.120164
0.141658
0.102212
0.10121
0.277881
0.840208
0.721857
0.0926112
0.241814
0.814116
0.867561
0.8676
0.790239
0.166703
0.0944923
0.219095
0.106647
0.111802
0.159894
0.0930017
0.0918993
0.0921036
0.100923
0.642162
0.854729
0.722231
0.191029
0.35588
0.438921
0.740507
0.867576
0.86633
0.225253
0.0909904
0.0917013
0.0861895
0.341987
0.607324
0.435418
0.219123
0.256486
0.394099
0.810802
0.854691
0.675424
0.640537
0.554957
0.280147
0.0492933
5.54373e-05
1.46071e-06
0.000461929
0.00381681
0.00532101
0.00220247
4.29202e-05
7.50428e-06
1.1358e-05
1.45975e-05
5.83631e-06
8.59221e-10
1.1973e-11
1.15371e-11
1.19966e-11
1.26675e-05
3.60145e-05
1.35347e-06
0.999444
0.99942
0.997142
0.901645
0.851813
0.367292
0.00374006
0.000140758
0.0208583
0.039751
0.0164583
0.00120735
0.000123385
3.84874e-05
8.58893e-07
1.7128e-07
2.77916e-08
1.15647e-11
1.16065e-11
1.15684e-11
6.32288e-05
6.97382e-05
5.40677e-05
0.999465
0.998058
0.998479
0.99898
0.999137
0.999144
0.703188
0.126162
0.0357947
0.300042
0.418528
0.339776
0.179891
0.0451028
0.001019
9.64432e-09
8.7735e-09
4.13132e-08
6.68228e-07
5.9007e-07
4.14601e-06
1.03443e-05
3.89939e-06
0.999588
0.800118
0.702845
0.793723
0.955283
0.996246
0.995435
0.654439
0.0606723
0.167647
0.62859
0.693845
0.693845
0.52394
0.0585977
3.16002e-06
3.3288e-06
2.02635e-05
3.42763e-05
3.39331e-05
4.78191e-06
2.98218e-06
1.06734e-06
0.999639
0.618629
0.425863
0.425905
0.807431
0.995686
0.840571
0.323044
0.162527
0.179616
0.284402
0.673211
0.693845
0.608184
0.124225
3.01844e-06
0.00011092
0.000115442
6.55233e-05
2.26468e-05
4.47364e-06
2.43962e-06
0.0834872
0.99969
0.871889
0.425932
0.610193
0.874326
0.942566
0.770091
0.258376
0.251465
0.245326
0.339117
0.676183
0.685468
0.168041
0.000209465
0.000198567
0.00040333
0.000397343
6.43847e-05
0.00328646
0.0209516
0.024621
0.053766
0.999966
0.99985
0.544082
0.999855
0.999855
0.879037
0.770561
0.342313
0.251657
0.250798
0.251208
0.566362
0.302344
0.00176152
0.000154003
0.000154087
0.000153999
0.00319387
0.0115211
0.0435096
0.0796294
0.154245
0.154379
0.999958
0.997403
0.999986
0.995823
0.999856
0.935102
0.812993
0.703695
0.586411
0.364554
0.437017
0.466769
0.061737
0.00122087
0.104314
0.228714
0.370154
0.483422
0.559267
0.638094
0.718432
0.797828
0.785957
0.999924
0.999898
0.999991
0.90202
0.983398
0.999867
0.99987
0.99933
0.997871
0.936265
0.812462
0.32032
0.107525
0.266302
0.751177
0.97684
0.995747
0.997733
0.997734
0.997735
0.997307
0.997318
0.99708
0.999385
0.999569
0.999982
0.882376
0.900808
0.979373
0.999526
0.999613
0.99821
0.929853
0.732871
0.478005
0.702694
0.971883
0.998576
0.99848
0.993559
0.989844
0.978652
0.906567
0.800772
0.687721
0.527567
0.999457
0.99949
0.999978
0.921142
0.902907
0.926893
0.979746
0.982066
0.990479
0.964375
0.810406
0.902563
0.976655
0.977048
0.930461
0.787061
0.624589
0.442568
0.274809
0.138626
0.0555927
-2.63834e-08
2.55643e-08
0.99991
0.9987
0.999972
0.999972
0.981856
0.983015
0.96585
0.915094
0.895553
0.903135
0.891944
0.857958
0.836229
0.858879
0.928311
0.880139
0.842953
0.746566
0.277418
-3.97302e-07
-1.46845e-08
-1.66297e-08
5.71848e-08
0.569799
0.507569
0.592348
0.771531
0.903867
0.977996
0.999252
0.999769
0.963618
0.681109
0.490725
0.482476
0.551824
0.743079
0.836454
0.835998
0.837769
0.787098
0.421223
0.00548648
-2.50336e-21
1.90591e-09
1.35452e-07
3.34493e-25
-1.59905e-10
-5.99636e-10
0.0476165
0.174747
0.35624
0.575601
0.78568
0.880539
0.887776
0.759144
0.423745
0.295959
0.288695
0.321347
0.331841
0.262391
0.0580144
7.34262e-10
6.21403e-05
1.53111e-07
5.0879e-08
1.57527e-07
-1.56472e-15
3.23881e-09
5.33114e-11
4.79176e-07
-9.33195e-25
-7.61664e-09
-7.00678e-10
0.0428229
0.195017
0.365525
0.445525
0.462012
0.422766
0.0871314
6.54049e-19
3.50663e-23
9.19965e-25
1.19762e-21
8.61036e-10
7.34263e-10
6.64908e-09
7.11027e-08
1.04605e-07
1.8548e-07
3.75525e-06
5.52835e-15
1.48512e-05
2.46632e-06
1.16248e-07
4.40051e-10
2.48499e-14
5.39412e-14
1.8404e-14
-2.19978e-10
1.27124e-09
-5.80792e-20
9.0883e-15
7.3865e-06
2.57802e-05
4.39087e-06
3.33709e-19
3.15375e-09
9.92888e-09
1.13693e-08
2.74743e-08
4.87152e-08
9.56633e-05
0.00103237
0.000716701
6.65906e-05
1.80997e-07
6.71321e-11
3.10546e-11
1.47618e-07
7.92019e-07
7.215e-07
1.16677e-07
2.98806e-08
5.97472e-07
7.11221e-06
1.73208e-05
1.36462e-05
9.00601e-10
9.67062e-10
4.78535e-09
6.11282e-09
6.26912e-09
8.75063e-09
1.01935e-08
0.000346969
0.001681
0.00168094
5.10113e-05
6.38978e-09
9.93107e-09
6.02931e-07
2.58833e-06
3.99513e-06
2.49413e-06
2.30604e-08
1.12289e-07
8.24727e-07
1.11847e-06
1.13509e-06
9.91182e-08
7.45067e-09
1.87374e-09
3.1702e-09
3.38131e-09
2.59548e-09
2.02416e-09
2.12189e-09
0.000454871
0.00168051
0.0015436
2.57627e-10
1.21063e-08
3.11878e-07
3.25576e-06
4.57401e-06
3.8258e-06
3.86446e-08
1.47531e-08
5.31798e-08
4.52289e-08
6.80446e-09
1.54082e-08
7.01771e-09
4.19526e-09
2.50426e-09
1.95925e-09
1.47648e-09
1.03797e-09
7.81723e-10
7.60129e-10
0.000281765
0.00157283
0.00016462
2.29144e-09
5.05963e-08
5.15971e-07
2.73252e-06
2.0465e-06
3.8672e-09
4.71219e-09
5.91068e-09
4.49653e-09
3.28636e-09
3.26015e-09
3.19429e-09
2.98553e-09
2.64138e-09
2.03953e-09
1.22043e-09
8.75914e-10
5.98117e-10
4.88747e-10
5.49523e-10
2.18981e-05
1.40829e-05
5.53166e-11
5.24733e-09
1.85403e-08
1.23969e-08
3.02463e-09
3.40815e-09
5.23627e-09
8.82655e-09
6.89102e-09
5.25947e-09
4.67414e-09
4.44611e-09
4.07577e-09
3.33198e-09
2.46191e-09
1.65528e-09
1.00406e-09
5.63207e-10
3.88881e-10
3.46271e-10
3.73838e-10
1.42273e-19
3.13462e-19
5.76505e-11
8.89669e-09
1.799e-08
1.01847e-08
3.61688e-09
6.62704e-09
8.40858e-09
9.1339e-09
8.36118e-09
8.30198e-09
8.31243e-09
7.71009e-09
6.26852e-09
4.4105e-09
2.77136e-09
1.47646e-09
7.73147e-10
4.07447e-10
2.65084e-10
2.19993e-10
2.488e-10
1.40753e-08
1.42275e-19
7.9273e-09
8.8534e-09
1.65418e-08
8.86631e-09
3.49387e-09
4.93357e-09
7.34962e-09
9.04823e-09
2.26592e-08
2.50868e-08
1.90378e-08
1.26758e-08
7.94571e-09
4.66876e-09
2.67058e-09
1.32435e-09
5.825e-10
2.6947e-10
1.63169e-10
1.39405e-10
1.47476e-10
4.91895e-07
5.20323e-07
8.1291e-08
6.93055e-08
5.99402e-09
5.71578e-09
6.37629e-09
1.37034e-08
1.96079e-08
3.8912e-08
5.28168e-08
3.83932e-08
1.75769e-08
8.41749e-09
4.95433e-09
2.96264e-09
1.5969e-09
8.31983e-10
3.78317e-10
1.5905e-10
9.14448e-11
7.21079e-11
7.82415e-11
6.56106e-07
2.09521e-06
2.55637e-06
2.27021e-07
4.52328e-09
7.04669e-09
3.72007e-08
5.70233e-08
1.07921e-07
1.42536e-07
7.602e-08
1.39721e-08
4.14415e-09
2.95342e-09
2.72957e-09
2.12337e-09
1.17144e-09
4.5884e-10
1.92462e-10
7.99102e-11
4.45189e-11
3.81562e-11
3.87377e-11
7.50685e-07
7.98073e-06
1.30332e-05
1.27275e-06
7.97113e-10
2.42511e-08
1.11942e-07
1.89181e-07
3.87327e-07
2.1589e-07
1.85495e-08
8.42203e-09
3.49382e-09
2.94413e-09
2.21997e-09
1.25785e-09
5.87953e-10
2.19952e-10
9.36731e-11
3.72914e-11
2.10513e-11
1.71127e-11
1.75063e-11
3.06482e-06
7.20151e-06
1.30113e-05
4.23961e-06
7.89174e-10
3.44515e-08
3.5322e-07
4.26427e-07
4.26477e-07
1.40151e-07
1.51503e-08
5.90089e-09
4.39081e-09
2.87387e-09
1.62209e-09
7.44669e-10
3.17922e-10
1.23703e-10
4.67692e-11
1.77968e-11
9.51149e-12
7.72174e-12
7.46394e-12
2.62693e-05
9.70736e-09
9.65727e-09
9.619e-08
5.39509e-08
2.26759e-07
4.26427e-07
4.26477e-07
2.82088e-07
2.77811e-08
9.23559e-09
6.07878e-09
3.73584e-09
2.0426e-09
9.60236e-10
3.98339e-10
1.56184e-10
6.16229e-11
2.26717e-11
8.44923e-12
3.95698e-12
2.92551e-12
2.83361e-12
3.17096e-05
2.08625e-08
5.30891e-08
9.10948e-08
2.09501e-07
4.124e-07
4.26477e-07
3.74596e-07
3.31144e-08
1.93991e-08
9.66841e-09
4.75698e-09
2.53325e-09
1.17047e-09
5.14107e-10
2.10698e-10
8.2397e-11
2.99639e-11
1.08436e-11
3.51794e-12
1.60745e-12
1.12588e-12
9.7793e-13
3.17372e-05
1.218e-08
6.47277e-08
1.81549e-07
3.73394e-07
4.25675e-07
4.0485e-07
7.89428e-08
2.41891e-08
1.41335e-08
6.19912e-09
3.29656e-09
1.57477e-09
6.51549e-10
2.74613e-10
1.10563e-10
4.0956e-11
1.45856e-11
4.55774e-12
1.47712e-12
6.17408e-13
3.71941e-13
3.33124e-13
3.03082e-05
7.72549e-09
4.23261e-08
1.4214e-07
2.60182e-07
3.56666e-07
1.28791e-07
4.38955e-08
2.02419e-08
8.41375e-09
4.36988e-09
2.09669e-09
8.98665e-10
3.59711e-10
1.48062e-10
5.71353e-11
1.87005e-11
6.1525e-12
1.85957e-12
5.42814e-13
2.15502e-13
1.37222e-13
1.04574e-13
3.07074e-05
7.75464e-09
1.16577e-08
7.10049e-08
1.11069e-07
1.16987e-07
4.81729e-08
2.50953e-08
1.13988e-08
5.74249e-09
2.85206e-09
1.26822e-09
5.4607e-10
2.1048e-10
7.54319e-11
2.64819e-11
8.52354e-12
2.46048e-12
6.61856e-13
1.87994e-13
7.28155e-14
3.76108e-14
2.91991e-14
3.06622e-05
7.66358e-09
1.76308e-08
3.83327e-08
4.47679e-08
5.28014e-08
2.09954e-08
1.34003e-08
7.11301e-09
3.73172e-09
1.76112e-09
7.48117e-10
2.91426e-10
1.06649e-10
3.49821e-11
1.1011e-11
3.22276e-12
8.49956e-13
2.0783e-13
5.41281e-14
1.97403e-14
1.22557e-14
7.68181e-15
2.87724e-05
4.42004e-05
1.76997e-08
2.46238e-07
1.03615e-06
9.49391e-08
2.04371e-08
9.59288e-09
4.77044e-09
2.32885e-09
1.04949e-09
4.08096e-10
1.45796e-10
4.87939e-11
1.469e-11
4.27607e-12
1.12127e-12
2.50756e-13
5.57178e-14
1.4965e-14
6.18648e-15
3.17336e-15
1.96495e-15
1.62824e-05
5.8818e-05
1.26794e-05
3.45208e-07
3.59732e-06
9.66098e-07
4.3713e-08
1.14446e-08
3.91692e-09
1.478e-09
5.93399e-10
2.22407e-10
7.10768e-11
2.10033e-11
5.67804e-12
1.44956e-12
3.40171e-13
7.11548e-14
1.51226e-14
3.64887e-15
1.54346e-15
8.63409e-16
4.53896e-16
1.2825e-06
5.89733e-05
5.36721e-05
3.74322e-06
3.61196e-06
9.1676e-07
2.74552e-08
7.72182e-09
2.47e-09
8.24004e-10
2.94047e-10
9.88811e-11
2.98633e-11
8.28166e-12
2.15649e-12
5.015e-13
1.05028e-13
1.95635e-14
3.84858e-15
1.02819e-15
4.26653e-16
2.06019e-16
9.90849e-17
8.49617e-09
9.32203e-06
1.71439e-05
4.60041e-06
4.73327e-07
9.48629e-09
6.09942e-09
2.65039e-09
1.07745e-09
4.02339e-10
1.46278e-10
4.73223e-11
1.44678e-11
3.82134e-12
8.62529e-13
1.67618e-13
3.20984e-14
5.24227e-15
9.81643e-16
2.47558e-16
1.02431e-16
4.55768e-17
1.92621e-17
8.49387e-09
8.49592e-09
8.49746e-09
4.2799e-07
7.7113e-08
5.42117e-09
2.05431e-09
9.74762e-10
4.39747e-10
1.79298e-10
6.58502e-11
2.13804e-11
6.03345e-12
1.48524e-12
3.16144e-13
5.59739e-14
9.07701e-15
1.33954e-15
2.30074e-16
6.30322e-17
2.44205e-17
9.47679e-18
3.60026e-18
7.74236e-09
1.40431e-08
1.2868e-08
9.34516e-09
4.59101e-09
2.50773e-09
1.22289e-09
5.55826e-10
2.31019e-10
8.44396e-11
2.75478e-11
8.10902e-12
2.13313e-12
5.02185e-13
1.0467e-13
1.87494e-14
2.78604e-15
3.66002e-16
6.22176e-17
1.65477e-17
5.62382e-18
1.89301e-18
6.2972e-19
5.9174e-09
8.74876e-09
7.59321e-09
4.41091e-09
2.13101e-09
1.08493e-09
5.07691e-10
2.17902e-10
8.34996e-11
2.93728e-11
9.49269e-12
2.77328e-12
7.21082e-13
1.6213e-13
3.2063e-14
5.44417e-15
8.09943e-16
1.08091e-16
1.76224e-17
4.58229e-18
1.38466e-18
3.89307e-19
1.12572e-19
2.78474e-09
3.69539e-09
3.05119e-09
1.76206e-09
8.97723e-10
4.34009e-10
1.87111e-10
7.37003e-11
2.69648e-11
9.15684e-12
2.90025e-12
8.43423e-13
2.15048e-13
4.85544e-14
9.66863e-15
1.68405e-15
2.46777e-16
3.38451e-17
5.57496e-18
1.35864e-18
3.6848e-19
8.53675e-20
1.91667e-20
1.02019e-09
1.42109e-09
1.09938e-09
5.75927e-10
2.57628e-10
1.12375e-10
4.32006e-11
1.60474e-11
5.5115e-12
1.76597e-12
5.15675e-13
1.36837e-13
3.55882e-14
8.44061e-15
1.65596e-15
2.98297e-16
4.70384e-17
7.39549e-18
1.41819e-18
3.72512e-19
9.86471e-20
2.09767e-20
3.64549e-21
1.28185e-06
7.12074e-07
5.28508e-07
5.23989e-07
8.82001e-06
6.9479e-07
6.13106e-07
5.13844e-07
1.08155e-06
7.13873e-07
0.0218392
0.133972
0.022264
0.213173
0.238103
0.238134
0.236479
0.237361
0.2376
0.238182
0.0840811
0.108085
0.187974
0.140475
0.1378
0.144825
0.188307
0.252713
0.759732
0.764843
0.825459
0.881021
0.993205
0.97929
0.946205
0.881896
0.375411
0.255852
0.135274
0.00870719
5.51314e-14
3.05751e-17
2.13223e-15
1.31966e-06
4.79226e-08
1.51705e-08
6.14634e-07
1.31162e-05
1.15577e-07
4.75825e-07
1.34697e-06
3.56934e-06
1.31678e-07
3.98628e-07
7.71809e-07
2.75955e-08
9.12768e-08
2.18249e-07
3.41952e-08
2.75379e-08
2.23617e-08
2.47382e-09
1.61655e-08
4.65122e-09
3.62087e-09
1.42515e-09
3.12323e-09
2.50936e-09
1.13251e-09
1.06258e-09
1.61968e-09
1.44751e-09
8.27185e-10
9.66138e-10
1.11107e-09
1.43713e-09
6.33709e-10
7.63832e-10
1.04886e-09
1.2605e-09
4.73595e-10
6.28384e-10
7.3545e-10
9.1638e-10
3.02356e-10
3.56569e-10
4.61452e-10
5.14445e-10
1.73018e-10
1.9984e-10
2.17706e-10
2.49601e-10
8.44314e-11
9.01211e-11
1.02629e-10
1.06238e-10
4.01208e-11
4.02182e-11
4.07875e-11
4.22575e-11
1.67397e-11
1.63171e-11
1.61413e-11
1.60493e-11
7.11965e-12
6.46775e-12
6.05039e-12
5.52858e-12
2.41303e-12
2.2133e-12
2.00855e-12
1.77307e-12
8.82011e-13
7.2531e-13
6.2014e-13
5.43496e-13
2.71548e-13
2.18398e-13
1.914e-13
1.50054e-13
8.62426e-14
6.75546e-14
5.12193e-14
4.03647e-14
2.13723e-14
1.63309e-14
1.29612e-14
9.15654e-15
5.64353e-15
4.05425e-15
2.75982e-15
2.20555e-15
1.28432e-15
8.93979e-16
6.35615e-16
5.32342e-16
2.72751e-16
1.86094e-16
1.29224e-16
1.44308e-16
5.42523e-17
3.43816e-17
2.75123e-17
4.47784e-17
1.05328e-17
6.42034e-18
5.95773e-18
1.53593e-17
1.83374e-18
1.08594e-18
1.39171e-18
5.54406e-18
3.05044e-19
1.84385e-19
3.83975e-19
2.26232e-18
4.87472e-20
3.34651e-20
1.26973e-19
9.73305e-19
7.56323e-21
6.76841e-21
4.43291e-20
4.16732e-19
1.16844e-21
1.16711e-21
1.19716e-20
1.49194e-19
0.355397
0.396213
0.397157
0.241278
0.246065
0.557089
0.865996
0.749246
0.372035
0.0910174
0.0995664
0.477901
0.703696
0.819109
0.821902
0.844137
0.844045
0.842631
0.854729
1.92039e-05
0.152916
0.440742
0.243731
0.14574
0.142757
0.428041
0.847148
0.862273
0.735075
0.754489
0.827474
0.718807
0.898369
0.8988
0.782424
0.507699
0.304114
0.612725
0.011596
0.120303
0.44124
0.350892
0.241523
0.161749
0.155075
0.571602
0.870116
0.869449
0.86816
0.866093
0.778601
0.884801
0.685074
0.11422
1.70037e-05
1.70063e-05
0.0608881
0.0430204
0.258496
0.440743
0.371488
0.263535
0.38792
0.424824
0.502892
0.73227
0.869584
0.851455
0.634724
0.619457
0.586037
0.249195
0.00275194
1.70072e-05
1.70026e-05
1.69925e-05
0.0876551
0.0863801
0.0845362
0.298908
0.476782
0.444552
0.437773
0.448001
0.334755
0.368763
0.25703
0.122103
0.18678
0.0991381
0.00647941
0.000363784
0.000326348
0.000110625
1.79607e-05
0.0788479
0.0790822
0.32161
0.518898
0.478539
0.222544
0.099394
0.124236
0.00715221
6.55153e-05
2.10672e-07
2.50265e-09
3.5361e-09
2.50265e-09
0.000821656
0.000755627
0.000134756
3.67541e-05
1.85434e-05
0.478324
0.665709
0.664789
0.520734
0.0799135
3.2271e-05
3.16159e-05
1.1784e-18
-1.29444e-06
0.00012378
0.00115411
0.000503607
0.000383257
0.000392776
0.000277449
8.88403e-05
1.09597e-05
1.51716e-06
1.51523e-06
0.876419
0.751866
0.323501
4.36415e-05
4.18654e-05
4.18523e-05
1.26673e-05
-3.54612e-08
0.000197408
0.00116262
0.00116292
0.000153312
0.000195343
0.000132974
5.38037e-08
3.97353e-08
2.58336e-05
3.97143e-05
6.04679e-06
0.520235
0.0250347
8.49728e-05
8.51007e-05
5.20994e-05
3.25329e-05
1.53711e-06
2.02713e-05
0.000495823
0.000683778
0.000119656
0.00012836
4.99794e-05
3.66301e-08
1.14657e-08
9.04362e-09
5.78512e-05
0.000129765
0.000127595
4.13956e-05
4.18076e-05
8.51067e-05
4.94331e-05
6.13574e-06
5.72162e-06
1.55076e-06
5.03051e-05
0.000159424
2.00234e-05
1.93933e-05
4.80002e-05
1.84903e-06
7.13563e-09
9.90531e-09
9.01539e-09
1.7861e-05
0.000129745
9.96482e-05
4.01297e-05
6.54722e-05
7.00201e-05
2.42944e-06
1.43135e-06
1.43927e-06
1.40152e-06
1.09562e-05
1.81962e-05
1.48881e-05
3.26772e-05
6.40403e-05
7.13563e-09
7.07659e-09
6.61654e-08
9.17197e-09
2.16013e-07
7.33949e-05
3.18602e-07
4.09588e-05
5.52219e-05
1.16665e-05
1.94704e-06
1.46483e-06
7.92434e-06
7.25427e-06
2.17853e-05
8.829e-05
0.000165184
0.000246907
0.000247591
0.000227517
5.33938e-05
7.79936e-09
7.81119e-09
4.81135e-06
4.65702e-07
2.85456e-07
2.96658e-06
2.30862e-06
5.37152e-07
1.85188e-06
1.89201e-06
1.53149e-05
0.000118605
0.000193439
0.000196399
0.00019756
0.000199457
0.000206699
0.000230911
9.89717e-05
7.80975e-09
2.91563e-08
7.81109e-06
2.11191e-06
2.04052e-07
2.00036e-07
1.57503e-07
1.5367e-07
1.2179e-06
2.39285e-06
1.45144e-05
7.15555e-05
0.000106286
0.000111269
5.0587e-05
1.82721e-05
1.67223e-05
2.04642e-05
1.63487e-05
1.74416e-06
2.94198e-08
5.8785e-06
1.64533e-06
2.06489e-08
1.31195e-08
1.89289e-08
5.32602e-08
2.45562e-07
1.0465e-06
4.23355e-06
6.51053e-07
2.71727e-07
6.73377e-07
5.14289e-06
3.57893e-06
2.03784e-08
2.00755e-08
1.97752e-08
3.22454e-07
5.68493e-08
2.46158e-07
8.62435e-08
2.30626e-09
2.80134e-09
7.12639e-09
2.15532e-08
4.91478e-08
1.45379e-07
1.28826e-07
5.51812e-08
2.5346e-08
1.2239e-06
6.89516e-06
6.86463e-06
8.04159e-07
3.80697e-08
1.94792e-08
1.53611e-08
9.37376e-09
2.24795e-09
4.59054e-09
2.21039e-09
1.82431e-09
5.50551e-09
2.76755e-08
4.99876e-08
5.65898e-08
5.13268e-08
3.50558e-08
1.97105e-08
1.51727e-06
5.31921e-06
3.99114e-06
4.67277e-07
4.19269e-08
1.82914e-08
8.21264e-09
3.76835e-09
2.22433e-09
4.52246e-09
2.26837e-08
1.70093e-09
5.43453e-09
3.63187e-08
6.18214e-08
6.08861e-08
5.0194e-08
2.79484e-08
1.95863e-08
3.06781e-07
2.76819e-07
1.19729e-07
9.2141e-08
2.92283e-08
1.22235e-08
5.12573e-09
2.33259e-09
1.81e-09
1.8053e-09
1.84451e-07
1.7896e-09
4.93568e-09
2.20188e-08
4.64691e-08
4.81477e-08
2.95917e-08
1.43353e-08
1.21999e-08
1.16516e-08
1.08297e-08
1.61013e-08
1.47792e-08
9.87466e-09
4.67195e-09
2.40608e-09
1.4576e-09
1.0778e-09
1.05002e-06
8.73823e-06
1.60313e-09
2.98952e-09
6.45689e-09
1.23715e-08
1.46367e-08
9.14562e-09
6.20029e-09
4.37421e-09
4.49774e-09
5.16641e-09
5.24683e-09
4.50545e-09
3.12764e-09
1.8595e-09
1.3541e-09
1.10126e-09
1.07606e-09
7.60388e-06
1.07104e-05
1.06805e-09
1.52591e-09
2.04767e-09
1.47207e-09
2.63024e-09
2.25854e-09
2.176e-09
1.6707e-09
1.95656e-09
1.80607e-09
1.69899e-09
1.46649e-09
1.17201e-09
1.09519e-09
1.05144e-09
9.97551e-10
9.96456e-10
1.22235e-05
5.44329e-06
5.8169e-10
6.91917e-10
7.7014e-10
6.01745e-10
7.4544e-10
6.71771e-10
8.93816e-10
7.17906e-10
6.62034e-10
5.87335e-10
5.98162e-10
6.67087e-10
8.02183e-10
1.00934e-09
1.02858e-09
9.96351e-10
7.36558e-06
1.23621e-05
2.3771e-06
2.67308e-10
2.86415e-10
2.8845e-10
2.70393e-10
2.7653e-10
2.86772e-10
3.12399e-10
2.72574e-10
2.55466e-10
2.74954e-10
3.86641e-10
5.84915e-10
8.27336e-10
1.10917e-09
1.31734e-09
9.9748e-10
8.24937e-06
1.19181e-05
9.86716e-07
1.09436e-10
1.03378e-10
1.05193e-10
9.53066e-11
1.0288e-10
1.02821e-10
1.05261e-10
1.06772e-10
1.30571e-10
2.15062e-10
4.04469e-10
6.78963e-10
9.4198e-10
1.24352e-09
2.71944e-09
5.98378e-09
1.53704e-06
1.5562e-06
1.36428e-07
4.17938e-11
3.80278e-11
3.31638e-11
3.25802e-11
3.27237e-11
3.39113e-11
3.90794e-11
5.61036e-11
1.06269e-10
2.37555e-10
4.94312e-10
8.31255e-10
1.07314e-09
1.32782e-09
7.98294e-09
1.52836e-08
2.96667e-08
3.55411e-08
5.32024e-08
1.5088e-11
1.257e-11
1.07205e-11
9.71029e-12
9.93724e-12
1.26906e-11
2.1373e-11
4.67075e-11
1.1766e-10
2.90144e-10
6.12238e-10
1.01099e-09
1.22298e-09
1.29818e-09
1.74321e-08
2.52546e-08
3.93564e-08
4.53687e-08
4.11912e-08
5.09226e-12
3.88187e-12
3.14744e-12
2.90872e-12
3.74284e-12
7.29181e-12
1.79272e-11
5.07005e-11
1.40088e-10
3.5301e-10
7.38701e-10
1.20037e-09
1.39853e-09
1.48264e-09
4.31108e-08
5.53833e-08
6.35996e-08
5.6276e-08
7.84972e-08
1.58521e-12
1.14693e-12
9.30398e-13
1.06684e-12
2.20236e-12
6.09272e-12
1.83571e-11
5.7676e-11
1.64303e-10
4.14034e-10
8.56191e-10
1.38239e-09
1.68484e-09
4.43476e-09
9.82066e-08
2.64179e-07
2.21276e-07
2.73015e-07
2.66641e-07
4.61229e-13
3.26004e-13
3.14242e-13
5.86862e-13
1.7372e-12
5.78259e-12
1.94594e-11
6.38935e-11
1.84086e-10
4.60985e-10
9.4573e-10
1.54058e-09
2.03999e-09
5.67184e-09
6.68244e-08
3.05543e-07
3.07391e-07
3.05843e-07
2.74881e-07
1.2343e-13
9.64809e-14
1.40003e-13
4.20522e-13
1.53862e-12
5.64775e-12
1.96161e-11
6.62495e-11
1.92955e-10
4.82562e-10
9.83719e-10
1.61402e-09
2.11098e-09
3.76033e-09
2.59874e-08
1.84778e-07
3.07391e-07
3.07391e-07
1.11641e-07
3.19909e-14
3.25887e-14
8.34595e-14
3.26514e-13
1.34071e-12
5.24409e-12
1.91489e-11
6.41344e-11
1.86851e-10
4.61474e-10
9.4487e-10
1.55578e-09
1.94528e-09
2.15311e-09
7.58778e-09
4.35388e-08
2.93601e-07
2.79767e-07
4.36349e-08
8.39722e-15
1.41083e-14
5.61173e-14
2.51174e-13
1.09406e-12
4.46362e-12
1.67841e-11
5.60355e-11
1.64626e-10
4.05081e-10
8.2265e-10
1.34518e-09
1.63766e-09
1.40806e-09
2.33983e-09
1.33546e-08
6.45826e-08
7.72413e-08
2.33181e-08
2.28139e-15
7.3293e-15
3.62632e-14
1.76624e-13
8.31038e-13
3.47295e-12
1.32169e-11
4.42256e-11
1.27876e-10
3.10717e-10
6.36152e-10
1.0456e-09
1.27574e-09
1.00556e-09
8.43062e-10
2.7805e-09
1.28307e-08
1.97162e-08
9.93218e-09
8.50924e-16
3.93072e-15
2.19198e-14
1.10605e-13
5.40554e-13
2.36507e-12
9.04277e-12
3.03658e-11
8.60829e-11
2.15081e-10
4.28215e-10
6.97905e-10
8.67526e-10
6.85666e-10
4.45838e-10
5.40425e-10
2.693e-09
3.2055e-09
6.91455e-09
3.21953e-16
1.95747e-15
1.22625e-14
6.72144e-14
3.30368e-13
1.44347e-12
5.48791e-12
1.81985e-11
5.22291e-11
1.19956e-10
2.37103e-10
3.83734e-10
4.93038e-10
3.9211e-10
2.70333e-10
2.02052e-10
5.54444e-10
1.37611e-09
5.15574e-09
1.40133e-16
9.89038e-16
6.28641e-15
3.60243e-14
1.90798e-13
8.2811e-13
3.05755e-12
9.998e-12
2.67509e-11
6.29183e-11
1.21736e-10
1.95625e-10
2.50719e-10
2.01805e-10
1.37757e-10
1.13246e-10
3.09605e-10
9.50559e-10
4.35847e-09
6.17735e-17
4.78313e-16
3.29356e-15
1.94988e-14
9.87629e-14
4.31018e-13
1.53286e-12
4.78903e-12
1.24147e-11
2.73685e-11
5.25354e-11
8.30938e-11
1.11531e-10
8.66904e-11
6.25105e-11
5.29611e-11
1.46428e-10
6.78189e-10
2.41096e-09
2.6725e-17
2.37845e-16
1.7156e-15
1.01458e-14
4.98011e-14
1.96278e-13
6.92017e-13
2.01744e-12
5.02544e-12
1.05938e-11
1.97462e-11
3.00183e-11
3.91375e-11
3.00074e-11
1.93937e-11
2.04088e-11
8.40117e-11
3.10312e-10
1.36625e-09
1.27939e-17
1.18406e-16
8.64411e-16
4.86965e-15
2.2462e-14
8.65678e-14
2.76842e-13
7.57382e-13
1.76929e-12
3.68803e-12
6.68428e-12
9.89769e-12
1.30834e-11
9.07171e-12
5.36171e-12
6.80727e-12
2.5618e-11
1.42913e-10
4.58888e-10
6.132e-18
5.76604e-17
4.08996e-16
2.15473e-15
8.82377e-15
2.98846e-14
8.29947e-14
2.04178e-13
4.56461e-13
8.4233e-13
1.46616e-12
2.08404e-12
2.69901e-12
1.63372e-12
7.76309e-13
1.40287e-12
9.1878e-12
3.70074e-11
1.66159e-10
2.89006e-18
2.62807e-17
1.69778e-16
7.92039e-16
2.85966e-15
8.41212e-15
2.21472e-14
4.91497e-14
9.67827e-14
1.87981e-13
3.16397e-13
4.52903e-13
5.53004e-13
2.92964e-13
1.16887e-13
2.80957e-13
1.50559e-12
1.07028e-11
5.23515e-11
1.30462e-18
1.03259e-17
5.40986e-17
2.07372e-16
6.40062e-16
1.71986e-15
4.15084e-15
8.84143e-15
1.69804e-14
3.13561e-14
5.26436e-14
7.79076e-14
9.28355e-14
4.11375e-14
1.4676e-14
4.24303e-14
2.84438e-13
2.35308e-12
8.99798e-12
)
;

boundaryField
{
    leftWall
    {
        type            zeroGradient;
    }
    rightWall
    {
        type            zeroGradient;
    }
    lowerWall
    {
        type            zeroGradient;
    }
    atmosphere
    {
        type            inletOutlet;
        inletValue      uniform 0;
        value           nonuniform List<scalar> 
46
(
0
0
0
0
0
0
0
0
0
0
0
0
0
0
0
0
0
0
0
0
0
2.09767e-20
3.64549e-21
1.16844e-21
1.16711e-21
1.19716e-20
1.49194e-19
1.30462e-18
1.03259e-17
5.40986e-17
2.07372e-16
6.40062e-16
1.71986e-15
4.15084e-15
8.84143e-15
1.69804e-14
3.13561e-14
5.26436e-14
7.79076e-14
9.28355e-14
4.11375e-14
1.4676e-14
4.24303e-14
2.84438e-13
2.35308e-12
8.99798e-12
)
;
    }
    defaultFaces
    {
        type            empty;
    }
}


// ************************************************************************* //
