/*--------------------------------*- C++ -*----------------------------------*\
| =========                 |                                                 |
| \\      /  F ield         | OpenFOAM: The Open Source CFD Toolbox           |
|  \\    /   O peration     | Version:  2312                                  |
|   \\  /    A nd           | Website:  www.openfoam.com                      |
|    \\/     M anipulation  |                                                 |
\*---------------------------------------------------------------------------*/
FoamFile
{
    version     2.0;
    format      ascii;
    arch        "LSB;label=32;scalar=64";
    class       volScalarField;
    location    "1.35";
    object      alpha.air;
}
// * * * * * * * * * * * * * * * * * * * * * * * * * * * * * * * * * * * * * //

dimensions      [0 0 0 0 0 0 0];

internalField   nonuniform List<scalar> 
2268
(
3.43905e-12
1.52487e-12
1.05944e-12
1.0983e-12
1.35635e-12
1.84384e-12
9.67941e-13
3.85445e-13
1.20049e-13
4.14315e-14
3.78445e-14
5.0686e-14
8.83267e-14
1.59774e-13
2.22059e-13
3.56122e-13
1.42734e-12
3.53611e-12
1.28475e-12
1.31312e-13
5.17593e-13
2.70125e-12
1.22962e-12
9.08822e-12
5.53884e-12
1.0591e-12
1.05808e-12
2.5575e-11
2.84635e-11
1.32247e-11
4.62523e-12
1.23025e-12
4.33786e-13
3.29856e-13
4.44266e-13
6.69461e-13
1.00653e-12
1.58377e-12
4.60075e-12
7.39584e-11
8.16253e-14
8.13923e-14
8.15193e-14
2.46756e-13
2.8119e-13
2.72666e-13
1.66833e-11
5.53722e-12
2.18478e-09
2.72856e-09
2.44705e-09
4.8124e-10
8.91167e-11
2.44696e-11
9.85973e-12
3.41236e-12
1.63445e-12
1.88325e-12
2.20144e-12
3.53553e-12
8.09771e-12
2.17235e-11
2.29423e-10
1.5375e-08
1.63704e-09
8.1446e-14
8.16248e-14
8.15839e-14
8.16272e-14
3.86117e-10
1.79973e-08
1.23672e-07
6.29991e-08
1.30842e-08
1.22893e-09
1.93848e-10
7.97272e-11
3.51328e-11
9.68962e-12
4.23351e-12
1.74511e-11
7.1341e-12
3.32443e-12
4.65794e-12
2.9501e-12
9.05877e-13
1.26817e-07
3.25768e-06
2.56313e-05
0.000131401
0.000409396
0.000631477
1.16364e-08
7.53547e-08
1.94427e-07
1.56231e-07
1.11577e-08
6.11018e-10
1.29807e-10
1.09193e-10
5.1046e-11
3.48699e-11
4.16544e-12
6.3109e-10
3.11847e-10
5.1139e-11
2.96764e-12
9.09474e-13
9.09458e-13
6.25815e-08
4.46546e-08
3.76184e-05
0.000574458
0.00301894
0.00715138
1.14778e-09
1.32581e-21
3.3852e-21
-8.384e-22
-1.64222e-21
-1.69922e-17
-7.33365e-18
1.69638e-23
-4.99589e-25
-6.70391e-14
5.85649e-08
8.8035e-09
2.3337e-09
5.05723e-09
1.2095e-08
6.42265e-08
1.16703e-07
1.1506e-07
4.42329e-08
9.29305e-06
1.3509e-06
0.00158073
0.00715306
1.11279e-09
0.00324259
0.0106022
0.00556219
0.00171998
0.000698129
0.000292879
2.64064e-05
2.72169e-06
2.59585e-06
6.25388e-07
6.04472e-12
6.36111e-12
5.07794e-09
1.40383e-07
1.97516e-07
1.96799e-07
1.36196e-07
4.58243e-08
6.60128e-09
7.17683e-09
2.97834e-07
0.00381725
0.0200289
0.0471951
0.0584548
0.0305024
0.0053384
0.0047565
0.00393581
0.00217143
0.00033505
1.3657e-05
4.48112e-08
9.12094e-09
1.63189e-10
5.73721e-09
1.1228e-07
1.37039e-07
1.04443e-07
3.07482e-08
1.118e-08
6.49571e-09
7.43141e-09
2.58909e-07
1.95557e-05
0.0124307
0.0053565
0.000647281
0.000640664
0.000634471
0.000156273
1.52797e-09
5.77526e-10
3.68031e-05
0.000994895
0.00262592
0.00502398
0.00825058
0.00703695
0.00590077
0.00575046
0.00574161
0.00569416
0.00523592
0.00549081
0.00246806
0.00143531
0.00851757
0.0119069
0.00474241
5.95569e-06
7.97058e-10
2.11867e-05
0.00276121
0.0154404
0.0230522
0.0230083
0.0190871
0.0175702
0.0175717
0.0176054
0.00768082
0.00633134
0.00444107
0.00441387
0.0180717
0.106767
0.133296
0.0742427
0.0260316
0.000537089
0.025738
0.117339
0.100427
0.0303148
0.0221718
0.0406516
0.0536564
0.0467593
0.0219207
0.0158845
0.0159624
0.00453255
0.0247105
0.0700079
0.159835
0.242182
0.248957
0.210579
0.200818
0.220097
0.223564
0.11233
0.0070038
0.0266421
0.0535093
0.0536581
0.0515568
0.0204866
0.0113144
0.0146445
0.0163905
0.0484838
0.0262363
0.00914971
0.0182788
0.203182
0.27222
0.272216
0.272365
0.228822
0.017267
0.00138901
0.00686776
0.0352604
0.0496229
0.0217162
-5.06587e-06
2.41316e-11
0.00029154
0.0199895
0.0449068
0.0094227
0.00914955
0.00919179
0.0248556
0.208587
0.155325
0.100988
0.0570569
0.00138419
0.00138423
0.00182457
0.00288146
0.00515834
0.00183783
0.00130016
4.53794e-05
2.78134e-05
0.0203503
0.085694
0.0282694
0.00918111
0.0109742
0.0402042
0.168325
0.101541
0.021097
0.0016787
0.00167976
0.00352915
0.00424528
0.0055055
0.00264473
0.00195884
0.00083975
2.7813e-05
2.78142e-05
0.0416401
0.118705
0.0686835
0.0268899
0.0466422
0.0509726
0.106826
0.106069
0.0246453
0.018586
0.0195486
0.16673
0.148907
0.0486224
0.000181424
0.000182665
0.000180049
0.00950558
0.0403124
0.100062
0.136654
0.152929
0.152413
0.0592707
0.00949465
0.00459854
0.00413809
0.00100677
8.25257e-05
8.53519e-06
1.11428e-09
2.41747e-08
3.02025e-08
3.98191e-09
3.95756e-09
3.97914e-09
3.95373e-09
3.97483e-09
6.37721e-09
6.48294e-09
2.13222e-08
2.41053e-08
0.000555951
0.000579591
0.00285808
0.098355
0.13475
0.134751
0.0630677
0.0135998
0.00464824
-8.77045e-08
-2.54356e-08
-1.42826e-10
8.44718e-08
1.89044e-06
1.1845e-05
1.75201e-05
3.94893e-06
8.66649e-07
9.40018e-07
1.04789e-06
1.13461e-06
1.14461e-06
5.61162e-07
0.000534526
0.00193136
0.00130582
0.00069353
0.000730102
0.000692847
0.21763
0.320505
0.274701
0.14541
0.0552819
0.0120062
1.29275e-05
0.00197451
0.00283773
0.00106347
3.56986e-06
2.87707e-05
4.37898e-05
2.22822e-05
6.66217e-06
3.47063e-07
3.28151e-07
0.000412045
0.199871
0.296764
0.20584
0.0443766
0.00367898
0.00447934
0.229582
0.717946
0.695042
0.356209
0.246755
0.133309
0.0528522
0.00577278
3.11011e-06
2.95088e-06
0.000664213
0.000935487
0.000718127
1.10102e-05
5.70494e-06
0.0106123
0.000360821
0.381365
0.574084
0.573915
0.192481
0.00425053
0.159382
0.671359
0.74757
0.748394
0.711667
0.326771
0.305986
0.126323
5.56055e-05
5.16824e-05
0.00010734
0.000577019
0.000503468
0.00039475
0.012557
0.0807113
0.0967747
0.000308931
0.128108
0.574037
0.389796
0.125672
0.0568734
0.229752
0.74155
0.748515
0.748201
0.658916
0.323802
0.247573
0.0704925
8.25159e-05
5.56055e-05
5.98116e-05
0.00132868
0.00385035
0.0660695
0.0922768
0.0926232
0.0642821
3.06028e-05
0.000145548
0.455893
0.000117024
0.000118544
0.119766
0.227876
0.657398
0.748308
0.749169
0.748719
0.433624
0.278642
0.0427132
0.0303492
0.0186149
0.0084737
0.0450477
0.0879504
0.0879654
0.0661849
0.0127993
0.00231146
4.07846e-05
0.00259454
2.70665e-06
0.00417578
0.000139884
0.0644656
0.184692
0.292655
0.409975
0.634943
0.562973
0.473897
0.366983
0.208304
0.141411
0.0872557
0.0446478
0.0477974
0.0657343
0.0215475
0.000839199
7.6219e-05
7.6219e-05
7.51807e-05
0.000101573
2.95262e-06
0.0979777
0.0166009
0.000132583
8.48644e-05
7.11765e-05
0.000955451
0.0634979
0.187528
0.407549
0.302317
0.270723
0.137953
0.00564088
0.00385114
0.00190918
0.00210693
0.000368972
0.000168803
0.000192591
0.00113793
0.000614373
0.000430455
3.27559e-06
0.117619
0.0991891
0.0206249
0.000471922
0.00016771
9.56821e-05
0.0682881
0.260785
0.315464
0.14275
0.0153013
0.00123786
0.00136155
0.00600152
0.00964795
0.0210903
0.0931229
0.1989
0.311972
0.472201
0.000542734
0.000508405
-3.62664e-23
0.0788532
0.0970889
0.0731041
0.0202523
0.0175258
0.0083571
0.0326802
0.165986
0.0832031
0.0226083
0.0226248
0.0693001
0.212714
0.3753
0.557385
0.725072
0.861234
0.944267
0.999869
0.999942
7.5873e-05
0.00126935
6.56251e-19
6.25375e-06
0.0181386
0.0169842
0.0341489
0.0848952
0.104151
0.0960602
0.105956
0.14145
0.16342
0.14102
0.0715916
0.119665
0.156848
0.253186
0.722423
0.999955
0.999981
0.999997
0.999999
0.43017
0.492387
0.407608
0.228425
0.0961013
0.0219774
0.000725233
0.000218581
0.0363741
0.318883
0.509265
0.517515
0.448173
0.256912
0.163494
0.163959
0.162198
0.212767
0.578574
0.994314
0.999963
1
1
0.999993
0.999985
0.999979
0.95236
0.825211
0.643693
0.424331
0.214251
0.119416
0.112213
0.240844
0.576223
0.704013
0.711131
0.678455
0.667961
0.737486
0.941922
0.999848
0.99979
0.999989
1
1
1
1
1
0.999999
0.999996
0.999982
0.999955
0.95711
0.804915
0.634441
0.554467
0.537836
0.576974
0.912605
0.999861
0.999904
0.99992
0.99991
0.999918
0.999979
1
1
1
1
0.999996
0.999999
0.999984
0.999998
1
1
0.999999
0.999996
0.999994
0.999963
0.999956
0.99995
0.999973
0.999977
0.999947
0.999945
0.999962
0.999993
1
1
1
1
0.999904
0.998967
0.999282
0.999932
0.999999
1
1
1
0.999999
0.999999
1
1
0.999999
0.99999
0.999977
0.999982
0.999998
1
1
1
1
1
1
0.999653
0.998318
0.998319
0.999948
0.999999
1
0.999999
0.999997
0.999995
0.999997
1
1
0.999999
0.999999
0.999999
1
1
1
1
1
1
1
1
0.999544
0.998318
0.998456
1
1
1
0.999996
0.999994
0.999995
1
1
1
1
1
1
1
1
1
1
1
1
1
1
0.999716
0.998425
0.999834
1
1
0.999999
0.999997
0.999997
1
1
1
1
1
1
1
1
1
1
1
1
1
1
1
0.999976
0.999983
0.999998
1
1
1
1
1
1
1
1
1
1
1
1
1
1
1
1
1
1
1
1
0.999998
0.999997
0.999998
0.999999
1
1
1
1
1
1
1
1
1
1
1
1
1
1
1
1
1
1
1
0.999999
0.999999
0.999997
0.999997
0.999998
1
1
1
1
1
1
1
1
1
1
1
1
1
1
1
1
1
1
0.999999
0.999999
0.999998
0.999996
0.999997
1
1
1
1
1
1
1
1
1
1
1
1
1
1
1
1
1
1
0.999999
0.999998
0.999997
0.999996
0.999997
0.999998
1
1
1
1
1
1
1
1
1
1
1
1
1
1
1
1
1
0.999999
0.999992
0.999987
0.999996
0.999997
0.999998
1
1
1
1
1
1
1
1
1
1
1
1
1
1
1
1
1
0.999996
0.999993
0.999987
0.999995
0.999999
0.999999
1
1
1
1
1
1
1
1
1
1
1
1
1
1
1
1
1
0.999973
1
1
1
1
1
1
1
1
1
1
1
1
1
1
1
1
1
1
1
1
1
1
0.999967
1
1
1
1
1
1
1
1
1
1
1
1
1
1
1
1
1
1
1
1
1
1
0.999967
1
1
1
1
1
1
1
1
1
1
1
1
1
1
1
1
1
1
1
1
1
1
0.999969
1
1
1
1
1
1
1
1
1
1
1
1
1
1
1
1
1
1
1
1
1
1
0.999968
1
1
1
1
1
1
1
1
1
1
1
1
1
1
1
1
1
1
1
1
1
1
0.999968
1
1
1
1
1
1
1
1
1
1
1
1
1
1
1
1
1
1
1
1
1
1
0.99997
0.999954
1
1
0.999999
1
1
1
1
1
1
1
1
1
1
1
1
1
1
1
1
1
1
0.999983
0.99994
0.999987
1
0.999996
0.999999
1
1
1
1
1
1
1
1
1
1
1
1
1
1
1
1
1
0.999998
0.99994
0.999945
0.999996
0.999996
0.999999
1
1
1
1
1
1
1
1
1
1
1
1
1
1
1
1
1
1
0.999991
0.999983
0.999995
1
1
1
1
1
1
1
1
1
1
1
1
1
1
1
1
1
1
1
1
1
1
1
1
1
1
1
1
1
1
1
1
1
1
1
1
1
1
1
1
1
1
1
1
1
1
1
1
1
1
1
1
1
1
1
1
1
1
1
1
1
1
1
1
1
1
1
1
1
1
1
1
1
1
1
1
1
1
1
1
1
1
1
1
1
1
1
1
1
1
1
1
1
1
1
1
1
1
1
1
1
1
1
1
1
1
1
1
1
1
1
1
1
1
1
1
1
1
1
1
1
1
1
1
1
1
1
1
1
1
1
1
1
1
9.00754e-08
5.19872e-07
5.1921e-07
5.14854e-07
1.62285e-07
3.40643e-07
4.21681e-07
4.31441e-07
2.66023e-07
2.75667e-07
2.77188e-07
0.0202791
0.0547727
0.0939219
0.0940896
0.0943149
0.0967554
0.0962768
0.0964221
0.067543
0.0387349
0.0200346
0.0197915
0.0441236
0.000217632
7.6219e-05
0.0777588
0.288154
7.6219e-05
7.6219e-05
0.0104437
0.0745911
0.00598638
0.0207086
0.0537579
0.117686
0.624391
0.744029
0.864712
0.991293
0.999952
0.999964
0.999984
0.999994
1
1
0.999999
0.999987
1
0.999999
0.999999
0.999996
1
1
0.999999
1
1
1
1
1
1
1
1
1
1
1
1
1
1
1
1
1
1
1
1
1
1
1
1
1
1
1
1
1
1
1
1
1
1
1
1
1
1
1
1
1
1
1
1
1
1
1
1
1
1
1
1
1
1
1
1
1
1
1
1
1
1
1
1
1
1
1
1
1
1
1
1
1
1
1
1
1
1
1
1
1
1
1
1
1
1
1
1
1
1
1
1
1
1
1
1
1
1
1
1
1
1
1
1
1
1
1
1
1
1
1
1
1
0.0324246
0.119036
0.0600252
0.0393231
0.135104
0.166666
0.105705
0.102897
0.102581
0.0997991
0.149901
0.271018
0.271052
0.0730905
0.0116948
0.0314539
0.0808194
0.115648
0.135651
0.000416088
0.105507
0.102529
0.0399193
0.125566
0.227373
0.251911
0.114027
0.102898
0.1072
0.107271
0.107301
0.265847
0.0984913
0.09297
0.201833
0.475022
0.678605
0.376701
0.0292625
0.115261
0.116543
0.047407
0.0416493
0.14373
0.273061
0.273922
0.114041
0.107286
0.107303
0.107307
0.20446
0.112041
0.302758
0.869909
0.985598
0.992705
0.931438
0.070719
0.0352568
0.031952
0.0249061
0.0421579
0.0708064
0.217433
0.423304
0.251144
0.112823
0.126688
0.33658
0.359488
0.404583
0.746446
0.99444
0.999656
0.999866
0.999182
0.0158647
0.0162446
0.0133055
0.0133422
0.152838
0.514964
0.547263
0.540295
0.648557
0.614717
0.718391
0.849246
0.795281
0.89736
0.993521
0.999636
0.999647
0.999866
0.999981
0.209466
0.251018
0.169902
0.263759
0.510899
0.777456
0.900547
0.875728
0.979689
0.981919
0.974734
0.97882
0.997084
0.999502
0.999147
0.999244
0.999865
0.999963
0.999981
0.291638
0.242923
0.297611
0.476901
0.920086
0.999967
0.999968
0.999892
0.9962
0.984042
0.985834
0.998122
0.999617
0.999607
0.99972
0.999911
0.999989
0.999998
0.999998
0.110517
0.239625
0.676318
0.999951
0.999952
0.999955
0.999968
0.999541
0.99476
0.993918
0.998834
0.999846
0.999804
0.999867
1
1
0.999974
0.99996
0.999994
0.479687
0.974959
0.999911
0.999913
0.999947
0.99996
0.999965
0.998696
0.996953
0.998581
0.999872
0.999861
0.999949
1
1
1
0.999942
0.99987
0.999872
0.999958
0.999938
0.999912
0.99995
0.999993
0.99999
0.999778
0.999232
0.999837
0.999966
0.999965
0.99994
0.999998
1
1
1
0.999982
0.99987
0.9999
0.999959
0.999927
0.99993
0.999998
0.999997
0.999969
0.999891
0.999976
0.999978
0.999972
0.999953
0.999933
1
1
1
1
1
0.999927
1
0.999959
0.999943
0.999988
0.999998
0.999997
0.999976
0.999977
0.999978
0.999909
0.999827
0.999752
0.999752
0.999772
0.999947
1
1
0.999995
1
1
0.999997
0.999998
0.999999
0.999998
0.999998
0.999985
0.999881
0.999806
0.999803
0.999802
0.9998
0.999793
0.999769
0.999901
1
1
0.999992
0.999998
1
1
1
1
0.999999
0.999998
0.999985
0.999928
0.999894
0.999889
0.999949
0.999982
0.999983
0.99998
0.999984
0.999998
1
0.999994
0.999998
1
1
1
1
1
0.999999
0.999996
0.999999
1
0.999999
0.999995
0.999996
1
1
1
1
1
1
1
1
1
1
1
1
1
1
1
1
0.999999
0.999993
0.999993
0.999999
1
1
1
1
1
1
1
1
1
1
1
1
1
1
1
0.999998
0.999995
0.999996
1
1
1
1
1
1
1
1
1
1
1
1
1
1
1
1
1
1
1
1
1
1
1
1
1
1
1
1
1
1
1
1
1
1
1
1
1
1
1
1
1
1
1
1
0.999999
0.999991
1
1
1
1
1
1
1
1
1
1
1
1
1
1
1
1
1
0.999992
0.999989
1
1
1
1
1
1
1
1
1
1
1
1
1
1
1
1
1
0.999988
0.999995
1
1
1
1
1
1
1
1
1
1
1
1
1
1
1
1
0.999993
0.999988
0.999998
1
1
1
1
1
1
1
1
1
1
1
1
1
1
1
1
0.999992
0.999988
0.999999
1
1
1
1
1
1
1
1
1
1
1
1
1
1
1
1
0.999998
0.999998
1
1
1
1
1
1
1
1
1
1
1
1
1
1
1
1
1
1
1
1
1
1
1
1
1
1
1
1
1
1
1
1
1
1
1
1
1
1
1
1
1
1
1
1
1
1
1
1
1
1
1
1
1
1
1
1
1
1
1
1
1
1
1
1
1
1
1
1
1
1
1
1
1
1
1
1
1
1
1
1
1
1
1
1
1
1
1
1
1
1
1
1
1
1
1
1
1
1
1
1
1
1
1
1
1
1
1
1
1
1
1
1
1
1
1
1
1
1
1
1
1
1
1
1
1
1
1
1
1
1
1
1
1
1
1
1
1
1
1
1
1
1
1
1
1
1
1
1
1
1
1
1
1
1
1
1
1
1
1
1
1
1
1
1
1
1
1
1
1
1
1
1
1
1
1
1
1
1
1
1
1
1
1
1
1
1
1
1
1
1
1
1
1
1
1
1
1
1
1
1
1
1
1
1
1
1
1
1
1
1
1
1
1
1
1
1
1
1
1
1
1
1
1
1
1
1
1
1
1
1
1
1
1
1
1
1
1
1
1
1
1
1
1
1
1
1
1
1
1
1
1
1
1
1
1
1
1
1
1
1
1
1
1
1
1
1
1
1
1
1
1
1
1
1
1
1
1
1
1
1
1
1
1
1
1
1
1
1
1
1
1
1
1
1
1
1
1
1
1
1
1
1
1
1
1
1
1
1
1
1
1
1
1
1
1
1
1
1
1
1
1
1
1
1
1
1
1
1
1
1
1
1
1
1
1
1
1
1
1
1
1
1
1
)
;

boundaryField
{
    leftWall
    {
        type            alphaContactAngle;
        thetaProperties 
6
(
(galistan air) 90 0 0 0
(oil galistan) 90 0 0 0
(water oil) 90 0 0 0
(water air) 90 0 0 0
(oil air) 90 0 0 0
(water galistan) 90 0 0 0
);
        value           nonuniform List<scalar> 
50
(
3.43905e-12
9.08822e-12
1.66833e-11
3.86117e-10
1.16364e-08
1.14778e-09
1.11279e-09
0.0200289
0.100062
0.000555951
0.000534526
0.000412045
0.000360821
0.000308931
3.06028e-05
4.07846e-05
7.51807e-05
0.000614373
0.000542734
7.5873e-05
0.43017
0.999993
1
1
0.999904
0.999653
0.999544
0.999716
0.999976
0.999998
0.999999
0.999999
0.999999
0.999999
0.999996
0.999973
0.999967
0.999967
0.999969
0.999968
0.999968
0.99997
0.999983
0.999998
1
1
1
1
1
1
)
;
    }
    rightWall
    {
        type            alphaContactAngle;
        thetaProperties 
6
(
(galistan air) 90 0 0 0
(oil galistan) 90 0 0 0
(water oil) 90 0 0 0
(water air) 90 0 0 0
(oil air) 90 0 0 0
(water galistan) 90 0 0 0
);
        value           nonuniform List<scalar> 
50
(
0.00523592
0.00633134
0.0159624
0.0146445
0.00029154
2.78134e-05
2.78142e-05
0.0403124
0.135651
0.376701
0.931438
0.999182
0.999981
0.999981
0.999998
0.999994
0.999872
0.9999
1
1
1
1
1
1
1
1
0.999991
0.999989
0.999995
0.999998
0.999999
1
1
1
1
1
1
1
1
1
1
1
1
1
1
1
1
1
1
1
)
;
    }
    lowerWall
    {
        type            alphaContactAngle;
        thetaProperties 
6
(
(galistan air) 90 0 0 0
(oil galistan) 90 0 0 0
(water oil) 90 0 0 0
(water air) 90 0 0 0
(oil air) 90 0 0 0
(water galistan) 90 0 0 0
);
        value           nonuniform List<scalar> 
62
(
3.43905e-12
1.52487e-12
1.05944e-12
1.0983e-12
1.35635e-12
1.84384e-12
9.67941e-13
3.85445e-13
1.20049e-13
4.14315e-14
3.78445e-14
5.0686e-14
8.83267e-14
1.59774e-13
2.22059e-13
3.56122e-13
1.42734e-12
3.53611e-12
1.28475e-12
1.31312e-13
5.17593e-13
2.70125e-12
1.22962e-12
1.22962e-12
2.72666e-13
8.16272e-14
0.000631477
0.00715138
0.00715306
0.00381725
1.95557e-05
9.00754e-08
5.19872e-07
5.1921e-07
5.14854e-07
0.0124307
0.00549081
0.00444107
0.00453255
0.0163905
0.0199895
0.0203503
0.0416401
0.0124307
0.0053565
0.000647281
0.000640664
0.000634471
0.000156273
1.52797e-09
5.77526e-10
3.68031e-05
0.000994895
0.00262592
0.00502398
0.00825058
0.00703695
0.00590077
0.00575046
0.00574161
0.00569416
0.00523592
)
;
    }
    atmosphere
    {
        type            inletOutlet;
        inletValue      uniform 1;
        value           nonuniform List<scalar> 
46
(
1
1
1
1
1
1
1
1
1
1
1
1
1
1
1
1
1
1
1
1
1
1
1
1
1
1
1
1
1
1
1
1
1
1
1
1
1
1
1
1
1
1
1
1
1
1
)
;
    }
    defaultFaces
    {
        type            empty;
    }
}


// ************************************************************************* //
