/*--------------------------------*- C++ -*----------------------------------*\
| =========                 |                                                 |
| \\      /  F ield         | OpenFOAM: The Open Source CFD Toolbox           |
|  \\    /   O peration     | Version:  2312                                  |
|   \\  /    A nd           | Website:  www.openfoam.com                      |
|    \\/     M anipulation  |                                                 |
\*---------------------------------------------------------------------------*/
FoamFile
{
    version     2.0;
    format      ascii;
    arch        "LSB;label=32;scalar=64";
    class       volScalarField;
    location    "1.35";
    object      p;
}
// * * * * * * * * * * * * * * * * * * * * * * * * * * * * * * * * * * * * * //

dimensions      [1 -1 -2 0 0 0 0];

internalField   nonuniform List<scalar> 
2268
(
5453.68
5435.2
5433.48
5466.7
5543.88
5653.41
5785.26
5927.93
6070.31
6200.99
6306.72
6372.94
6386.95
6339.94
6227.39
6046.77
5804.42
5521.12
5231.42
4970.66
4764.65
4625.78
4557.22
4659.29
4634.24
4629.4
4660.15
4737.42
4847.77
4981.14
5125.88
5271.07
5405.55
5515.74
5586.27
5603.58
5558.54
5445.86
5262.45
5014.02
4722.24
4424.66
4159.1
3951.42
3812.86
3744.52
3872.48
3833.03
3818.44
3842.72
3919.95
4032.82
4169.92
4319.08
4469.79
4611.59
4730.52
4809.43
4832.88
4790.51
4677.86
4488.27
4226.86
3917.61
3604.61
3330.2
3120.09
2982.95
2915.65
3091.51
3025.23
2995.07
3013.04
3087.18
3206.66
3350.81
3507.2
3666.12
3818.7
3950.91
4042.87
4076.08
4038.08
3925.68
3726.54
3444.77
3107.5
2770.24
2482.57
2269.88
2136.22
2069.23
2327.67
2213.68
2160.63
2162.71
2238.42
2366.69
2522
2688.92
2858.74
3025.39
3175.69
3285.94
3333.07
3301
3190.95
2979.07
2667.49
2286.95
1920.98
1664.68
1514.71
1439.82
1412.48
1600.86
1450.24
1378.9
1380.38
1443.06
1551.81
1694.47
1864.12
2046.1
2229.71
2403.07
2536.8
2602.45
2576.8
2473.64
2243.02
1892.29
1535.74
1314.08
1215.78
1173.4
1158.88
1161.21
1152.81
1062.13
1028.32
1017.94
1032.56
1068.98
1127.64
1210.71
1325.99
1471.63
1642.46
1796.76
1883.36
1862.45
1776.62
1550.71
1297.1
1154.31
1113.09
1102.19
1095.19
1090.36
1101.41
1024.24
979.709
952.78
940.813
939.19
941.703
944.137
946.701
963.136
1005.09
1084.49
1186.13
1260.7
1289.76
1217.33
1106.3
1062.9
1058.97
1049.16
1038.06
1029.68
1022.73
1029.88
2355.66
2203.61
2224.69
2345.71
2250.18
2135.65
2062.13
2112.79
2104.52
2084.51
2046.79
2091.59
2234.11
2405.03
2496.24
2491.58
2422.09
2311.45
2273.04
2040.33
1920.27
1919.13
1910.89
1796.22
1694.53
1615.14
1532.28
1467.83
1460.07
1408.71
1440.51
1545.74
1695.67
1776.7
1757.01
1664.16
1548.91
1521.43
1761.97
1693.55
1722.79
1680.7
1579.42
1488.76
1374.76
1214.26
1131.33
1082.42
1000.96
983.907
1039.88
1088.69
1105.92
1056.33
938.798
838.162
798.526
1483.68
1421.99
1460.65
1402.12
1314.43
1226.52
1134.98
981.291
895.426
842.239
759.313
718.18
706.694
670.332
634.21
582.543
514.11
464.172
434.797
1209.93
1099.36
1160.89
1119.71
1071.92
987.093
875.398
765.458
724.461
687.297
639.483
604.062
536.543
480.325
437.374
409.23
399.197
378.744
360.255
969.087
836.288
908.486
939.845
918.157
822.387
728.981
688.689
646.993
604.919
578.278
534.842
469.718
410.961
372.145
350.872
337.32
317.614
312.765
814.315
684.578
728.285
849.657
822.039
723.749
659.82
631.127
591.345
550.5
508.834
453.555
393.495
344.343
310.878
287.762
271.425
261.892
265.761
750.363
613.075
619.93
745.818
743.298
658.293
611.916
573.124
525.623
485.011
431.403
373.293
324.476
280.706
251.486
227.672
213.626
213.343
218.082
945.605
924.312
891.819
866.027
850.255
848.241
850.3
848.524
841.46
835.525
837.352
854.429
883.678
912.939
931.464
945.818
959.368
959.18
949.428
937.282
924.112
902.285
839.815
849.884
828.826
796.117
771.435
757.695
746.011
731.298
719.379
707.154
701.949
704.689
715.112
737.069
769.49
803.41
828.4
836.72
831.243
818.932
803.823
785.805
761.518
726.334
743.048
720.601
693.962
683.932
676.609
654.587
628.389
608.454
593.365
582.88
584.01
597.924
623.531
659.579
694.543
712.884
713.822
704.271
689.354
672.5
651.969
626.514
592.955
642.69
621.141
599.554
599.19
598.755
576.224
546.366
513.977
501.936
501.356
502.933
515.245
532.051
558.703
583.572
592.86
586.826
573.843
557.883
540.41
521.656
498.225
468.233
563.527
550.758
539.215
542.246
530.862
499.157
457.964
443.365
449.306
457.286
460.553
467.652
479.79
491.936
493.451
486.01
471.856
455.488
438.729
421.53
404.183
383.54
359.085
497.057
491.432
492.687
493.509
471.709
435.992
406.801
405.787
415.492
423.587
427.095
431.323
439.118
432.753
414.652
393.79
372.837
352.672
332.679
313.4
297.802
280.643
261.145
432.468
429.809
443.559
431.621
415.208
389.372
374.609
382.884
393.837
397.583
397.113
394.634
390.074
368.354
340.618
313.04
286.959
262.669
240.107
219.683
204.656
189.178
173.509
364.656
363.413
378.195
364.093
359.419
349.358
346.736
358.372
367.368
368.848
363.805
352.429
332.467
299.426
267.435
238.929
211.522
186.303
164.099
147.113
132.01
117.058
103.246
293.275
294.806
305.188
301.129
301.386
303.021
307.265
317.384
322.659
320.59
311.66
297.122
266.129
229.934
202.479
178.245
154.109
131.359
107.982
87.702
71.5223
60.592
50.5011
219.342
222.806
233.268
239.538
243.525
249.491
257.764
265.64
266.815
261.58
250.839
232.411
199.952
172.603
148.778
125.983
106.815
88.8732
61.6096
37.9077
26.959
20.9668
15.6149
142.869
147.512
158.888
172.37
182.091
191.607
202.726
212.454
214.582
208.802
195.276
175.164
152.328
128.636
100.795
76.6791
65.328
62.3729
46.3127
7.0643
1.25182
-0.433842
-0.963438
69.0079
73.4995
83.0167
97.6341
111.868
125.716
139.276
153.578
162.59
158.928
140.609
113.083
85.1242
66.3786
56.6985
48.5892
41.6517
33.6146
1.682
1.03504
0.46203
-0.2585
-1.14637
15.4552
14.0254
17.9168
27.3392
39.729
54.3121
69.4309
84.6379
96.3528
96.5729
91.1843
77.5908
61.412
45.7293
33.5514
24.0956
17.5212
11.0478
4.2271
-0.44518
-0.844657
-1.03918
-1.2792
-2.22408
-2.19607
-2.21077
-1.14506
2.55605
8.07419
14.7693
23.0414
33.479
44.1853
46.5493
37.4439
28.4073
14.6097
6.16566
6.65009
4.05779
-4.51337
-4.62854
-2.87863
-2.07948
-1.70994
-1.64526
-2.42216
-2.46018
-2.57687
-2.76937
-2.92852
-3.02466
-3.0489
-2.30044
2.21175
7.4894
10.0993
11.5337
9.97067
-1.00399
-3.29694
-3.60127
-3.79591
-4.23704
-4.33087
-3.50639
-2.69769
-2.23541
-2.04173
-2.5889
-2.63403
-2.76278
-2.92569
-3.05083
-3.15582
-3.27872
-3.47694
-3.62188
-3.70455
-3.73213
-3.678
-3.64879
-3.62866
-3.57693
-3.64877
-3.85818
-3.96113
-3.79861
-3.39259
-2.88137
-2.54014
-2.34921
-2.75432
-2.8039
-2.95685
-3.0928
-3.17463
-3.25689
-3.34809
-3.44854
-3.52861
-3.57975
-3.61306
-3.58787
-3.56546
-3.62119
-3.68405
-3.72505
-3.7549
-3.74101
-3.57557
-3.28046
-2.95639
-2.7263
-2.56917
-2.91332
-2.97375
-3.1225
-3.21796
-3.28277
-3.35495
-3.42635
-3.49362
-3.55328
-3.58158
-3.60357
-3.6254
-3.61453
-3.59743
-3.61788
-3.65547
-3.66008
-3.60264
-3.45906
-3.24715
-3.03279
-2.86419
-2.73948
-3.02719
-3.0974
-3.20848
-3.28105
-3.34691
-3.4124
-3.47039
-3.51811
-3.56145
-3.59393
-3.60548
-3.61303
-3.61863
-3.62138
-3.61392
-3.60681
-3.58134
-3.51652
-3.40402
-3.25813
-3.10995
-2.98369
-2.88498
-3.09958
-3.15712
-3.24198
-3.29559
-3.35791
-3.41707
-3.46959
-3.51193
-3.54393
-3.57142
-3.59565
-3.61133
-3.61748
-3.61364
-3.60355
-3.58216
-3.54534
-3.48513
-3.39929
-3.29589
-3.19016
-3.09494
-3.01652
-3.14884
-3.19929
-3.2498
-3.30384
-3.36511
-3.42423
-3.47723
-3.52308
-3.56117
-3.59147
-3.61423
-3.6281
-3.63225
-3.62641
-3.61138
-3.58571
-3.54764
-3.49606
-3.43007
-3.35412
-3.27595
-3.2029
-3.14017
-3.19386
-3.2326
-3.27533
-3.33258
-3.39558
-3.4573
-3.51319
-3.561
-3.60019
-3.63068
-3.65201
-3.66336
-3.66471
-3.65683
-3.64039
-3.61516
-3.58061
-3.53667
-3.48488
-3.42719
-3.36749
-3.31032
-3.25954
-3.26088
-3.29314
-3.3355
-3.39293
-3.45608
-3.51838
-3.57527
-3.62384
-3.66251
-3.69065
-3.70811
-3.71541
-3.71369
-3.70427
-3.68793
-3.66478
-3.63475
-3.598
-3.55605
-3.51084
-3.46403
-3.41844
-3.37686
-3.35555
-3.38573
-3.42733
-3.48289
-3.54376
-3.60385
-3.65874
-3.7051
-3.74079
-3.76485
-3.77763
-3.78077
-3.77635
-3.76597
-3.75034
-3.72958
-3.70378
-3.67325
-3.63887
-3.60225
-3.56474
-3.52776
-3.49325
-3.47334
-3.50214
-3.5422
-3.59441
-3.65091
-3.70646
-3.75694
-3.79885
-3.82973
-3.84866
-3.85664
-3.85619
-3.84984
-3.83908
-3.82442
-3.80597
-3.7838
-3.75825
-3.72992
-3.69974
-3.66892
-3.63849
-3.60955
-3.60671
-3.63369
-3.67132
-3.71902
-3.76964
-3.81901
-3.86351
-3.89966
-3.9249
-3.93858
-3.94238
-3.93928
-3.93179
-3.92111
-3.90755
-3.89118
-3.8721
-3.85055
-3.82693
-3.80185
-3.77613
-3.75071
-3.72619
-3.74916
-3.7737
-3.80791
-3.84992
-3.89364
-3.93609
-3.97421
-4.0042
-4.02377
-4.03272
-4.03324
-4.02844
-4.02045
-4.01016
-3.99773
-3.98323
-3.96675
-3.94844
-3.92857
-3.90753
-3.88587
-3.86435
-3.84345
-3.89605
-3.91744
-3.94681
-3.98196
-4.01913
-4.05493
-4.08685
-4.11085
-4.12515
-4.13014
-4.12833
-4.12256
-4.11455
-4.10484
-4.09355
-4.08072
-4.06642
-4.05075
-4.03389
-4.01608
-3.99772
-3.97935
-3.96138
-4.04259
-4.06019
-4.08428
-4.11386
-4.14528
-4.17533
-4.20062
-4.21888
-4.22851
-4.23035
-4.22699
-4.22083
-4.21308
-4.20407
-4.19388
-4.18254
-4.17009
-4.15659
-4.14217
-4.12699
-4.11133
-4.09557
-4.08005
-4.18622
-4.20106
-4.2198
-4.24442
-4.27039
-4.29463
-4.31457
-4.3278
-4.3335
-4.33299
-4.32874
-4.32257
-4.31524
-4.30698
-4.29784
-4.28782
-4.27695
-4.26527
-4.25286
-4.23986
-4.22643
-4.21289
-4.19944
-4.32547
-4.33659
-4.3523
-4.37286
-4.39405
-4.41308
-4.42841
-4.43731
-4.43991
-4.4378
-4.43315
-4.4272
-4.42039
-4.41289
-4.40472
-4.39587
-4.38637
-4.37624
-4.36553
-4.35434
-4.3428
-4.33113
-4.31947
-4.46072
-4.46869
-4.48177
-4.49894
-4.51627
-4.53168
-4.54204
-4.54735
-4.54768
-4.5446
-4.53985
-4.53423
-4.52799
-4.52124
-4.51397
-4.50618
-4.49788
-4.48908
-4.47982
-4.47018
-4.46025
-4.4502
-4.4401
-4.59133
-4.59687
-4.60822
-4.62245
-4.6363
-4.64771
-4.65497
-4.65775
-4.65663
-4.65314
-4.64845
-4.64322
-4.63759
-4.63157
-4.62516
-4.61833
-4.61108
-4.60345
-4.59545
-4.58715
-4.57862
-4.56996
-4.56126
-4.71866
-4.72235
-4.73165
-4.74339
-4.75438
-4.76276
-4.7673
-4.76832
-4.76646
-4.76299
-4.75861
-4.75383
-4.74883
-4.74355
-4.73793
-4.73197
-4.72568
-4.71908
-4.71219
-4.70507
-4.69776
-4.69035
-4.68288
-4.84327
-4.84592
-4.85261
-4.86197
-4.8704
-4.87666
-4.8791
-4.87895
-4.877
-4.87391
-4.8701
-4.86587
-4.86147
-4.85689
-4.85202
-4.84687
-4.84144
-4.83576
-4.82986
-4.82378
-4.81756
-4.81127
-4.80492
-4.96503
-4.9675
-4.97184
-4.97897
-4.985
-4.98919
-4.99055
-4.99009
-4.98841
-4.98585
-4.98271
-4.97917
-4.97536
-4.97138
-4.96722
-4.96279
-4.95815
-4.95331
-4.9483
-4.94317
-4.93794
-4.93265
-4.92732
-5.0844
-5.08658
-5.08969
-5.09433
-5.09847
-5.10115
-5.10221
-5.10194
-5.10073
-5.09881
-5.09636
-5.0935
-5.09033
-5.08692
-5.08334
-5.07959
-5.07566
-5.07159
-5.0674
-5.06313
-5.05879
-5.05443
-5.05004
-5.20196
-5.20313
-5.20509
-5.20839
-5.21143
-5.21347
-5.21455
-5.21468
-5.21402
-5.21274
-5.21094
-5.20873
-5.20617
-5.20334
-5.20031
-5.19711
-5.19384
-5.19047
-5.18704
-5.18356
-5.18006
-5.17656
-5.17304
-5.31869
-5.31908
-5.3201
-5.32235
-5.3248
-5.32668
-5.3279
-5.32842
-5.3283
-5.32759
-5.32638
-5.32473
-5.32273
-5.32045
-5.31795
-5.31531
-5.3126
-5.30986
-5.30712
-5.30438
-5.30167
-5.29898
-5.29628
-5.43563
-5.43551
-5.43591
-5.43742
-5.4393
-5.441
-5.44232
-5.44315
-5.44346
-5.44325
-5.44255
-5.44141
-5.43992
-5.43814
-5.43616
-5.43405
-5.43189
-5.42972
-5.42759
-5.42553
-5.42354
-5.42163
-5.4197
-5.55274
-5.55218
-5.55239
-5.55348
-5.55486
-5.55632
-5.55765
-5.5587
-5.55934
-5.55953
-5.55927
-5.55859
-5.55756
-5.55626
-5.55477
-5.55318
-5.55156
-5.54996
-5.54844
-5.54701
-5.54571
-5.54456
-5.54334
-5.67072
-5.67028
-5.6702
-5.67062
-5.67153
-5.67273
-5.67399
-5.67509
-5.67589
-5.67629
-5.67629
-5.67593
-5.67527
-5.67439
-5.67338
-5.67231
-5.67126
-5.67027
-5.66939
-5.66862
-5.66796
-5.66734
-5.66695
713.001
698.857
716.796
729.357
685.163
662.857
647.632
632.309
558.066
535.123
515.261
498.187
440.363
424.267
410.136
396.508
339.957
328.629
317.87
307.421
246.463
237.276
229.016
220.525
161.554
153.165
143.937
134.748
91.8106
83.4758
74.6516
65.8979
41.4929
35.6892
30.6753
24.7156
10.4115
6.40173
2.41199
-0.720831
-1.11351
-1.20502
-1.28204
-1.31871
-1.19184
-1.26089
-1.34377
-1.41825
-1.3728
-1.43412
-1.49288
-1.54843
-1.67989
-1.70844
-1.73665
-1.76504
-2.00457
-1.9948
-1.99366
-1.99763
-2.2789
-2.2482
-2.22803
-2.21508
-2.49608
-2.45927
-2.43135
-2.40985
-2.67394
-2.63816
-2.60878
-2.58425
-2.82832
-2.79574
-2.76784
-2.74326
-2.96839
-2.93972
-2.91426
-2.89098
-3.09945
-3.07454
-3.0519
-3.03061
-3.22513
-3.20368
-3.18373
-3.16459
-3.34766
-3.32917
-3.31171
-3.29472
-3.4684
-3.45251
-3.43727
-3.42229
-3.58827
-3.57457
-3.56132
-3.5482
-3.70792
-3.69612
-3.68459
-3.67312
-3.82771
-3.81749
-3.80747
-3.79747
-3.94779
-3.93897
-3.93025
-3.92154
-4.06829
-4.06064
-4.05307
-4.04549
-4.18925
-4.18263
-4.17604
-4.16946
-4.31065
-4.30491
-4.2992
-4.29349
-4.43247
-4.42752
-4.42257
-4.41763
-4.55468
-4.55041
-4.54615
-4.54189
-4.67724
-4.67359
-4.66994
-4.6663
-4.80013
-4.79703
-4.79393
-4.79084
-4.92331
-4.92071
-4.91811
-4.91553
-5.04674
-5.0446
-5.04247
-5.04035
-5.1704
-5.16869
-5.16699
-5.16531
-5.29426
-5.29296
-5.29166
-5.29038
-5.41828
-5.41738
-5.41647
-5.41558
-5.54248
-5.54194
-5.54141
-5.54088
-5.66671
-5.66657
-5.66642
-5.66626
715.143
574.874
531.608
577.735
601.521
580.161
543.397
491.391
433.62
383.811
334.021
290.664
255.263
220.686
191.268
166.471
150.018
144.575
150.187
591.428
494.667
415.802
407.875
452.681
469.635
435.123
384.252
332.328
284.52
244.151
212.794
185.6
155.522
122.243
89.0991
67.6413
55.8146
64.512
467.469
404.725
339.419
301.568
317.171
327.388
302.059
266.427
239.766
211.034
181.859
151.797
122.053
89.1681
52.1609
25.7608
13.6663
8.182
12.6921
374.428
334.3
282.704
229.193
194.138
177.252
157.323
145.627
143.147
135.111
114.699
87.4298
60.9487
32.1666
10.875
2.63472
0.864118
0.884414
1.21075
293.192
263.573
212.606
143.668
88.6276
58.7373
41.5385
48.3483
62.5484
66.9828
56.4139
37.746
15.9144
3.82428
0.203112
-0.00174222
0.0891403
0.21501
0.182503
207.193
175.791
121.632
58.5663
19.1252
6.76135
2.74985
4.75
19.3591
27.6242
21.4376
8.13644
1.51652
-0.190428
-0.180912
-0.226173
-0.199472
-0.0908065
-0.0511464
118.707
84.0552
42.2325
13.2491
0.903246
-0.581773
-0.556248
-0.287864
0.949877
8.04779
4.42236
-0.107702
-0.33392
-0.530513
-0.508551
-0.427503
-0.369571
-0.29338
-0.261907
51.0769
26.2092
7.18077
-0.988321
-1.22548
-1.05575
-0.924238
-0.786176
-0.685828
-0.381857
-0.588819
-0.638585
-0.654461
-0.674022
-0.660583
-0.611572
-0.556618
-0.497337
-0.47343
14.1863
-0.617742
-1.44622
-1.1587
-1.3432
-1.26622
-1.1735
-1.09446
-1.06182
-1.00129
-0.990621
-0.900872
-0.881212
-0.860714
-0.831551
-0.798031
-0.75792
-0.712226
-0.691525
-1.47451
-1.30877
-1.36657
-1.39044
-1.39928
-1.37778
-1.34235
-1.32017
-1.31884
-1.24443
-1.18595
-1.11593
-1.07574
-1.04325
-1.01192
-0.983479
-0.955745
-0.925021
-0.909934
-1.41576
-1.48216
-1.48414
-1.50026
-1.5048
-1.49162
-1.47676
-1.47002
-1.46325
-1.41675
-1.36378
-1.30211
-1.25289
-1.21885
-1.189
-1.16356
-1.14163
-1.12256
-1.10893
-1.51027
-1.57463
-1.60374
-1.61818
-1.62124
-1.612
-1.60294
-1.60165
-1.60626
-1.57518
-1.52995
-1.47498
-1.42483
-1.38955
-1.36155
-1.33807
-1.31808
-1.30401
-1.28915
-1.63185
-1.69732
-1.73353
-1.74654
-1.74568
-1.73903
-1.73398
-1.73677
-1.74333
-1.7225
-1.68732
-1.64285
-1.59771
-1.55955
-1.53084
-1.50827
-1.48987
-1.47643
-1.46533
-1.81011
-1.8523
-1.87782
-1.8847
-1.88081
-1.87478
-1.87186
-1.87205
-1.87917
-1.85981
-1.83144
-1.79582
-1.75902
-1.72379
-1.69576
-1.67441
-1.65763
-1.64541
-1.63747
-2.00816
-2.02255
-2.03147
-2.03057
-2.02414
-2.01677
-2.01186
-2.00826
-2.00639
-1.99041
-1.96641
-1.93759
-1.90771
-1.87933
-1.85538
-1.8363
-1.82128
-1.81048
-1.80413
-2.20138
-2.19338
-2.18811
-2.18023
-2.17097
-2.16023
-2.15171
-2.14366
-2.1363
-2.12174
-2.10168
-2.0784
-2.05438
-2.03143
-2.01132
-1.99466
-1.98138
-1.97196
-1.96663
-2.38215
-2.35945
-2.34393
-2.33015
-2.31716
-2.30437
-2.29272
-2.28165
-2.27088
-2.25676
-2.23953
-2.2203
-2.2006
-2.18169
-2.16469
-2.15029
-2.13864
-2.13042
-2.12579
-2.55024
-2.51938
-2.49712
-2.4788
-2.4627
-2.44788
-2.4342
-2.42122
-2.40866
-2.39483
-2.37946
-2.36303
-2.34644
-2.33052
-2.31606
-2.30362
-2.29345
-2.28625
-2.28214
-2.70755
-2.67308
-2.6469
-2.62551
-2.60714
-2.59071
-2.57575
-2.56173
-2.54834
-2.53473
-2.5206
-2.50613
-2.4918
-2.47816
-2.46574
-2.45499
-2.44611
-2.43977
-2.43626
-2.85623
-2.82104
-2.79309
-2.77001
-2.75025
-2.73278
-2.71702
-2.70252
-2.68886
-2.67553
-2.66231
-2.64924
-2.6366
-2.62472
-2.61395
-2.60463
-2.59686
-2.59137
-2.58851
-2.99819
-2.96402
-2.93586
-2.91222
-2.89186
-2.8739
-2.85779
-2.8431
-2.82946
-2.8165
-2.80408
-2.79208
-2.78074
-2.77026
-2.76084
-2.75272
-2.74586
-2.74125
-2.73877
-3.13508
-3.1029
-3.07556
-3.05219
-3.03188
-3.01393
-2.99783
-2.98322
-2.96979
-2.95727
-2.94551
-2.93446
-2.92417
-2.91483
-2.90653
-2.89943
-2.89338
-2.88946
-2.88708
-3.26825
-3.23853
-3.21264
-3.19013
-3.17036
-3.15278
-3.13701
-3.12271
-3.10965
-3.09761
-3.08649
-3.07624
-3.06687
-3.05848
-3.05111
-3.04487
-3.03965
-3.03621
-3.03384
-3.39878
-3.37167
-3.34757
-3.3263
-3.3074
-3.29049
-3.27527
-3.26147
-3.2489
-3.23741
-3.22691
-3.21737
-3.20878
-3.20125
-3.19467
-3.18911
-3.18452
-3.18143
-3.17918
-3.52745
-3.50295
-3.4808
-3.46097
-3.44317
-3.42713
-3.41262
-3.39946
-3.38748
-3.37659
-3.36671
-3.35784
-3.34993
-3.34318
-3.33725
-3.33225
-3.32801
-3.32516
-3.3232
-3.65487
-3.63286
-3.61269
-3.5944
-3.57782
-3.56278
-3.54911
-3.53668
-3.52537
-3.51512
-3.50587
-3.49764
-3.49042
-3.48419
-3.47887
-3.47438
-3.47042
-3.4678
-3.46605
-3.78146
-3.76178
-3.74354
-3.72681
-3.71152
-3.69755
-3.68479
-3.67316
-3.66257
-3.65298
-3.64437
-3.63675
-3.63013
-3.62445
-3.61954
-3.61552
-3.61178
-3.60944
-3.60784
-3.90752
-3.88999
-3.87358
-3.85839
-3.84439
-3.83152
-3.81971
-3.80891
-3.79907
-3.79016
-3.78217
-3.77514
-3.76906
-3.76388
-3.75939
-3.75557
-3.75217
-3.75011
-3.74866
-4.03324
-4.01768
-4.00298
-3.98927
-3.97655
-3.96478
-3.95395
-3.944
-3.93491
-3.92668
-3.9193
-3.91281
-3.90721
-3.90244
-3.8983
-3.89475
-3.89166
-3.88981
-3.88855
-4.15876
-4.14499
-4.1319
-4.1196
-4.10811
-4.09743
-4.08755
-4.07845
-4.07012
-4.06256
-4.05578
-4.04979
-4.0446
-4.04017
-4.03631
-4.03305
-4.03029
-4.02868
-4.02761
-4.28417
-4.27203
-4.26043
-4.24945
-4.23915
-4.22952
-4.22058
-4.21232
-4.20475
-4.19785
-4.19164
-4.18613
-4.18132
-4.17718
-4.17358
-4.17064
-4.16818
-4.16684
-4.16593
-4.40955
-4.39889
-4.38866
-4.37893
-4.36975
-4.36114
-4.35312
-4.34568
-4.33884
-4.33259
-4.32695
-4.32191
-4.31748
-4.31364
-4.31031
-4.30769
-4.30552
-4.30441
-4.30364
-4.53492
-4.52562
-4.51666
-4.5081
-4.49999
-4.49236
-4.48521
-4.47858
-4.47245
-4.46685
-4.46177
-4.45721
-4.45318
-4.44967
-4.44666
-4.44435
-4.44242
-4.4415
-4.44084
-4.66032
-4.65227
-4.64449
-4.63703
-4.62993
-4.62323
-4.61694
-4.61108
-4.60566
-4.60069
-4.59617
-4.5921
-4.58848
-4.58534
-4.58267
-4.58067
-4.57896
-4.5782
-4.57761
-4.78577
-4.77888
-4.77219
-4.76576
-4.75963
-4.75382
-4.74836
-4.74325
-4.73852
-4.73417
-4.7302
-4.72662
-4.72344
-4.72069
-4.71837
-4.71665
-4.71515
-4.71453
-4.71398
-4.91128
-4.90546
-4.89981
-4.89436
-4.88915
-4.8842
-4.87953
-4.87515
-4.87109
-4.86734
-4.86392
-4.86083
-4.85809
-4.85572
-4.85374
-4.85227
-4.85096
-4.85051
-4.84994
-5.03686
-5.03206
-5.02738
-5.02286
-5.01852
-5.01439
-5.01049
-5.00683
-5.00342
-5.00026
-4.99738
-4.99477
-4.99246
-4.99047
-4.98881
-4.98756
-4.98645
-4.98615
-4.98552
-5.16253
-5.15868
-5.15493
-5.15129
-5.1478
-5.14446
-5.1413
-5.13833
-5.13555
-5.13298
-5.13063
-5.1285
-5.12661
-5.12499
-5.12363
-5.12259
-5.12168
-5.12142
-5.12082
-5.28828
-5.28534
-5.28248
-5.27969
-5.27701
-5.27444
-5.272
-5.2697
-5.26755
-5.26555
-5.26372
-5.26207
-5.2606
-5.25933
-5.25827
-5.25744
-5.25673
-5.25645
-5.25597
-5.41411
-5.41206
-5.41004
-5.40808
-5.40618
-5.40436
-5.40262
-5.40098
-5.39945
-5.39803
-5.39672
-5.39553
-5.39448
-5.39357
-5.3928
-5.3922
-5.39169
-5.39141
-5.39111
-5.54002
-5.53882
-5.53763
-5.53647
-5.53533
-5.53424
-5.5332
-5.53222
-5.53129
-5.53044
-5.52965
-5.52894
-5.5283
-5.52775
-5.52728
-5.52692
-5.52662
-5.52646
-5.52633
-5.666
-5.66563
-5.66525
-5.66486
-5.66447
-5.6641
-5.66375
-5.66342
-5.66311
-5.66282
-5.66255
-5.66231
-5.66209
-5.66191
-5.66175
-5.66164
-5.66157
-5.66158
-5.66166
)
;

boundaryField
{
    leftWall
    {
        type            calculated;
        value           nonuniform List<scalar> 
50
(
5453.68
4659.29
3872.48
3091.51
2327.67
1600.86
1152.81
1024.24
945.605
849.884
743.048
642.69
563.527
497.057
432.468
364.656
293.275
219.342
142.869
69.0079
15.4552
-2.22408
-2.42216
-2.5889
-2.75432
-2.91332
-3.02719
-3.09958
-3.14884
-3.19386
-3.26088
-3.35555
-3.47334
-3.60671
-3.74916
-3.89605
-4.04259
-4.18622
-4.32547
-4.46072
-4.59133
-4.71866
-4.84327
-4.96503
-5.0844
-5.20196
-5.31869
-5.43563
-5.55274
-5.67072
)
;
    }
    rightWall
    {
        type            calculated;
        value           nonuniform List<scalar> 
50
(
2273.04
1521.43
798.526
434.797
360.255
312.765
265.761
218.082
150.187
64.512
12.6921
1.21075
0.182503
-0.0511464
-0.261907
-0.47343
-0.691525
-0.909934
-1.10893
-1.28915
-1.46533
-1.63747
-1.80413
-1.96663
-2.12579
-2.28214
-2.43626
-2.58851
-2.73877
-2.88708
-3.03384
-3.17918
-3.3232
-3.46605
-3.60784
-3.74866
-3.88855
-4.02761
-4.16593
-4.30364
-4.44084
-4.57761
-4.71398
-4.84994
-4.98552
-5.12082
-5.25597
-5.39111
-5.52633
-5.66166
)
;
    }
    lowerWall
    {
        type            calculated;
        value           nonuniform List<scalar> 
62
(
5851.83
5833.35
5831.63
5864.85
5942.03
6051.56
6183.41
6326.08
6468.46
6599.14
6704.87
6771.09
6785.1
6738.09
6625.54
6444.92
6202.57
5919.27
5629.57
5368.81
5162.8
5023.91
4955.35
4557.22
3744.52
2915.65
2069.23
1412.48
1161.21
1101.41
1029.88
775.598
761.454
779.393
791.954
2355.66
2040.33
1761.97
1483.68
1209.93
969.087
814.315
750.363
2513.76
2359.96
2403.4
2651.51
2569.84
2474.65
2420.06
2473.91
2468.77
2448.86
2411.34
2455.72
2598.68
2769.64
2860.89
2860.46
2797.58
2689
2638.48
)
;
    }
    atmosphere
    {
        type            calculated;
        value           nonuniform List<scalar> 
46
(
-5.72959
-5.72918
-5.7293
-5.72987
-5.73084
-5.73202
-5.73321
-5.73419
-5.73484
-5.73512
-5.73502
-5.73461
-5.73396
-5.73316
-5.73229
-5.73144
-5.73066
-5.73001
-5.72952
-5.7292
-5.72906
-5.72904
-5.72904
-5.72904
-5.72904
-5.72904
-5.72904
-5.72904
-5.72904
-5.72904
-5.72904
-5.72904
-5.72904
-5.72904
-5.72904
-5.72904
-5.72904
-5.72904
-5.72904
-5.72904
-5.72904
-5.72904
-5.72904
-5.72904
-5.72904
-5.72904
)
;
    }
    defaultFaces
    {
        type            empty;
    }
}


// ************************************************************************* //
