/*--------------------------------*- C++ -*----------------------------------*\
| =========                 |                                                 |
| \\      /  F ield         | OpenFOAM: The Open Source CFD Toolbox           |
|  \\    /   O peration     | Version:  2312                                  |
|   \\  /    A nd           | Website:  www.openfoam.com                      |
|    \\/     M anipulation  |                                                 |
\*---------------------------------------------------------------------------*/
FoamFile
{
    version     2.0;
    format      ascii;
    arch        "LSB;label=32;scalar=64";
    class       volScalarField;
    location    "1.35";
    object      p_rgh;
}
// * * * * * * * * * * * * * * * * * * * * * * * * * * * * * * * * * * * * * //

dimensions      [1 -1 -2 0 0 0 0];

internalField   nonuniform List<scalar> 
2268
(
5851.83
5833.35
5831.63
5864.85
5942.03
6051.56
6183.41
6326.08
6468.46
6599.14
6704.87
6771.09
6785.1
6738.09
6625.54
6444.92
6202.57
5919.27
5629.57
5368.81
5162.8
5023.91
4955.35
5853.74
5828.69
5823.85
5854.6
5931.86
6042.22
6175.59
6320.33
6465.52
6600
6710.19
6780.72
6798.03
6752.99
6640.31
6456.9
6208.47
5916.69
5619.11
5353.55
5145.87
5007.28
4938.91
5863.23
5823.78
5809.19
5833.47
5910.7
6023.56
6160.67
6309.83
6460.54
6602.34
6721.27
6800.18
6823.63
6781.26
6668.61
6479.02
6217.61
5908.36
5595.36
5320.95
5110.84
4973.7
4906.4
5878.55
5812.28
5782.12
5800.09
5874.23
5993.7
6137.86
6294.25
6453.17
6605.75
6737.96
6829.92
6863.13
6825.13
6712.73
6513.59
6231.81
5894.55
5557.28
5269.54
5056.52
4921.48
4852.79
5911.02
5797.03
5743.98
5746.06
5821.77
5950.04
6105.35
6272.27
6442.09
6608.74
6759.04
6869.28
6916.42
6884.35
6774.3
6562.42
6250.84
5869.97
5410.48
4723.95
4060.99
3583.71
3298.81
5543.36
4975.01
4612.16
4721.04
5090.95
5563.06
5973.28
6241.8
6425.75
6609.36
6782.72
6916.44
6982.1
6956.44
6853.29
6622.62
6186.56
4857.79
3047.61
2028
1616.71
1509.75
1487.66
2418.37
1785.21
1576.81
1567.14
1805.42
2305.25
3119.4
4250.81
5311.33
6151.99
6712.04
6970.14
7059.27
7038.31
6952.43
6216.35
3874.34
1858.38
1495.61
1484.74
1477.76
1472.95
1481.44
1727.42
1445.37
1366.72
1368.8
1378.27
1381.04
1387.51
1398.59
1776.53
2635.78
3959.74
5230.27
5975.76
5983.51
4828.06
2607.21
1525.88
1500.4
1490.6
1479.5
1471.12
1464.17
1471.22
2513.76
2359.96
2403.4
2651.51
2569.84
2474.65
2420.06
2473.91
2468.77
2448.86
2411.34
2455.72
2598.68
2769.64
2860.89
2860.46
2797.58
2689
2638.48
2514.64
2218.72
2211.7
2228.23
2106.2
1978.29
1946.35
2186.56
2219.35
2211.68
2173.6
2250.16
2492.78
2754.46
2883.36
2888.61
2795.72
2680.91
2638.79
2526.65
2163.17
2217.04
2282.86
2118.54
1992.71
1872.29
1713.72
1652.7
1724.22
1693.28
1814.96
1930.48
2444.78
2759.42
2752.82
2585.3
2361.24
2306.89
2462.76
2279.17
2498.82
2432.35
2292.42
2243.17
2131.72
1978.21
1670.57
1451.29
1300.34
1201.31
1659.46
1764
1805.22
1629.25
1111.71
851.862
760.915
2323.12
2261.58
2256.97
2333.43
1726.32
1783.6
1910.75
1246.77
1189.32
1184.78
869.969
857.628
832.804
876.195
820.436
685.195
661.793
641.596
561.736
1942.26
1852.18
1931.85
1370.99
1541.26
1386.51
1154.8
987.154
921.516
840.03
863.608
911.366
857.937
808.998
746.348
725.997
711.096
620.094
520.085
1450.66
1425.68
1578.81
1379.94
1194.54
1161.83
922.54
970.825
979.408
915.593
935.061
958.792
894.242
857.191
800.309
771.516
716.941
561.036
513.295
1014.16
1047.33
1759.25
1895.49
1154.54
917.037
845.777
948.825
973.026
961.858
934.203
838.868
739.706
663.246
659.469
627.22
582.725
506.244
495.2
1245.96
1214.1
1195.76
1243.54
1338.99
1376.63
1381.32
1379.66
1373.37
1367.53
1391.69
1584.79
1749.16
1741.85
1559.13
1479.28
1492.84
1492.65
1482.89
1470.75
1457.58
1435.74
1373.28
1179.03
1157.97
1124.51
1068.44
1047.17
1195.05
1347.23
1369.05
1355.89
1347.52
1357.93
1373.38
1395.69
1428.14
1462.09
1487.05
1495.38
1489.9
1477.59
1462.48
1444.45
1420.16
1384.98
1134.77
1111.82
1085.51
1075.75
1068.32
1046.33
966.266
1091.93
1148.09
1135.28
1160.56
1239.24
1336.9
1424.21
1475.78
1495.91
1497.68
1488.1
1473.18
1456.34
1435.82
1410.37
1376.81
1097.03
985.126
919.997
960.904
1033.57
1029.2
998.906
917.092
731.422
703.012
802.787
885.067
1005
1181.68
1460.75
1501.91
1495.87
1482.28
1466.07
1448.79
1430.69
1407.27
1383.09
1080.46
871.142
760.5
763.684
949.105
1014.32
892.859
616.903
627.11
625.4
612.426
816.365
839.462
1081.32
1463.4
1520.2
1505.93
1489.08
1472.42
1455.36
1429.84
1433.87
1386.9
1076.6
997.036
740.728
847.854
978.722
983.246
853.832
556.529
562.165
574.182
626.734
823.93
914.817
1413.32
1573.87
1553.05
1532.98
1513.97
1494.67
1479.67
1491.03
1471.35
1461.34
1074.77
1072.05
793.68
1073.88
1057.47
955.708
872.233
604.353
556.775
559.974
559.765
759.237
1124.61
1604.26
1602.29
1584.18
1581.58
1596.31
1533.78
1492.78
1454.94
1399.04
1372.34
1069.54
1066.51
1083.12
1066.07
1064.24
1009.23
923.408
860.284
786.757
627.614
672.847
767.205
1215.48
1458.66
1449.81
1409.87
1344.19
1256.84
1158.55
1094.29
1034.59
964.379
958.935
1060.73
1062.24
1072.71
993.62
1056.19
1070.44
1074.77
1085.51
1094.13
1039.84
935.727
998.664
1307.88
1198.6
976.187
963.313
919.423
897.951
874.019
856.401
840.843
829.868
818.509
1048.94
1052.56
1063.39
972.249
991.52
1062.55
1087.5
1095.81
1129
1074.22
920.844
1033.21
1083.58
1006.88
978.984
955.477
932.542
912.88
876.561
793.323
693.88
594.041
455.242
1035.09
1039.77
1051.61
994.846
988.364
1019.25
1077.42
1089.93
1112.63
1138.93
1027.44
1055.44
1031.4
1004.64
934.197
781.373
624.27
459.083
295.766
135.741
55.95
4.50974
2.21365
1024.25
1027.62
1038.35
1052.95
1049.91
1064.86
1062.05
1028.21
1019.13
1026.75
1014.06
947.626
893.335
889.731
946.157
894.681
852.344
751.748
269.178
3.12661
2.41583
1.65773
0.765484
596.393
531.773
621.794
813.24
960.038
1049.92
1086.64
1102.4
1077.41
790.647
591.877
569.848
624.068
802.688
885.453
875.516
870.719
812.98
435.903
8.8426
1.53618
0.996656
0.75719
-0.0460629
-0.000966447
0.000323007
52.4211
193.25
394.532
637.772
872.579
985.254
1003.76
867.545
496.813
349.916
328.496
355.312
367.114
289.479
61.63
-0.000570417
1.71263
0.268212
0.451142
0.516257
-0.135395
-0.173154
-0.290115
-0.478718
-0.628699
-0.689406
-0.651739
48.9954
227.131
426.847
520.664
541.235
495.159
101.324
-0.651496
-1.05428
-0.000810913
0.575306
0.420509
-0.57855
-0.41139
0.0509206
0.244733
-0.176813
-0.217643
-0.349689
-0.494338
-0.636275
-0.742402
-0.861095
-1.05755
-1.1984
-1.27548
-1.22713
-1.15905
-1.1155
-1.14913
-0.983707
-0.305229
0.217943
-0.316929
-1.16384
-0.981178
-0.469958
-0.128681
0.0622923
-0.0960074
1.04028
0.48934
-0.468231
-0.635138
-0.719693
-0.810656
-0.904919
-0.980033
-1.03151
-1.06828
-1.04799
-1.02292
-0.986799
-0.925289
-1.00533
-1.16085
-1.20297
-1.0388
-0.743705
-0.419791
-0.189682
-0.0325611
0.210648
1.92531
1.77536
-0.484037
-0.617647
-0.69178
-0.757425
-0.814413
-0.871637
-0.90314
-0.939774
-0.963418
-0.950365
-0.927472
-0.945352
-0.993532
-0.998101
-0.940015
-0.796781
-0.585286
-0.371002
-0.202407
-0.0776992
0.395511
2.03319
1.72897
-0.490329
-0.55745
-0.622136
-0.666954
-0.712049
-0.759021
-0.805539
-0.818428
-0.825919
-0.831542
-0.834339
-0.826799
-0.819799
-0.794271
-0.729388
-0.616958
-0.471145
-0.32298
-0.196716
-0.0980082
0.230002
2.05056
-0.0846129
-0.380288
-0.44451
-0.502559
-0.548237
-0.591386
-0.630249
-0.659015
-0.683236
-0.698924
-0.705165
-0.701419
-0.691347
-0.669963
-0.633151
-0.57295
-0.487114
-0.383725
-0.277992
-0.182775
-0.104351
-0.0705008
-0.132803
-0.207152
-0.265189
-0.326802
-0.386513
-0.439686
-0.4855
-0.523456
-0.553713
-0.576559
-0.590514
-0.594745
-0.588976
-0.573986
-0.548335
-0.510266
-0.458693
-0.392712
-0.316762
-0.238593
-0.165541
-0.102812
-0.0257212
-0.0619553
-0.105323
-0.164873
-0.230215
-0.293448
-0.350394
-0.398167
-0.437253
-0.467759
-0.489196
-0.500644
-0.502069
-0.494233
-0.477814
-0.452596
-0.418053
-0.374116
-0.322324
-0.264639
-0.204935
-0.147767
-0.0969891
0.0292134
-0.00137025
-0.036179
-0.0926318
-0.16103
-0.228898
-0.287029
-0.335841
-0.374462
-0.402595
-0.420185
-0.42758
-0.425895
-0.416496
-0.400167
-0.377022
-0.347002
-0.310252
-0.268306
-0.223088
-0.17628
-0.130692
-0.0891139
0.0587814
0.0293826
-0.00683399
-0.0573054
-0.11807
-0.188766
-0.245161
-0.291975
-0.327709
-0.351739
-0.36457
-0.367755
-0.363372
-0.353011
-0.337385
-0.316638
-0.290834
-0.260311
-0.225932
-0.189313
-0.151798
-0.114821
-0.0803076
0.0662779
0.0401195
0.00379355
-0.043389
-0.100178
-0.159379
-0.218517
-0.260564
-0.291395
-0.310259
-0.318366
-0.318031
-0.311694
-0.300934
-0.286281
-0.267826
-0.245666
-0.220113
-0.191788
-0.161605
-0.130781
-0.100355
-0.0714101
0.058395
0.0446471
0.0173518
-0.0438918
-0.0935464
-0.148186
-0.199916
-0.235948
-0.260837
-0.274844
-0.279006
-0.275935
-0.268457
-0.257771
-0.244212
-0.227844
-0.208772
-0.187217
-0.163595
-0.138523
-0.112798
-0.087384
-0.062861
0.0470293
0.0288715
0.00632569
-0.0506799
-0.100886
-0.142301
-0.184855
-0.214815
-0.234398
-0.243916
-0.244686
-0.239898
-0.23192
-0.221629
-0.209202
-0.194704
-0.178225
-0.159918
-0.140042
-0.119006
-0.0973487
-0.0758299
-0.0549284
0.0723708
-0.00330332
-0.0324985
-0.0672702
-0.104443
-0.140314
-0.172029
-0.196081
-0.210865
-0.216364
-0.214585
-0.208827
-0.200818
-0.191117
-0.179828
-0.167003
-0.152702
-0.137032
-0.120166
-0.10236
-0.0839959
-0.0656324
-0.0476608
0.0637061
-0.0208551
-0.044893
-0.0743187
-0.105674
-0.135498
-0.160749
-0.179167
-0.189515
-0.191392
-0.188055
-0.181906
-0.174158
-0.165154
-0.154967
-0.143629
-0.131177
-0.117678
-0.103252
-0.0880752
-0.0724123
-0.0566611
-0.0411369
0.0473055
-0.0365461
-0.055337
-0.0798377
-0.105421
-0.129566
-0.149575
-0.163506
-0.169327
-0.16885
-0.164615
-0.158454
-0.151131
-0.142872
-0.133727
-0.12371
-0.112839
-0.101161
-0.0887552
-0.0757473
-0.0623228
-0.0487782
-0.0353282
0.032337
-0.0467563
-0.0626483
-0.0831838
-0.104148
-0.122984
-0.138808
-0.147899
-0.150557
-0.148478
-0.143839
-0.137892
-0.131087
-0.123585
-0.115413
-0.106572
-0.0970698
-0.0869371
-0.0762304
-0.0650404
-0.0535019
-0.0418284
-0.0301657
0.0252776
-0.0535559
-0.0669248
-0.0840843
-0.101425
-0.116898
-0.127424
-0.132785
-0.133154
-0.130084
-0.125348
-0.119726
-0.113493
-0.106738
-0.0994725
-0.0916862
-0.0833815
-0.0745806
-0.0653265
-0.0556845
-0.0457556
-0.0357009
-0.025606
0.0225417
-0.0562903
-0.0682282
-0.0824345
-0.0963209
-0.107851
-0.115217
-0.118025
-0.11692
-0.113442
-0.108755
-0.103524
-0.0978991
-0.0918825
-0.0854661
-0.0786351
-0.0713911
-0.0637546
-0.0557603
-0.0474586
-0.0389241
-0.0302717
-0.0215687
0.0187005
0.0517729
-0.0665204
-0.0778345
-0.0869805
-0.0976208
-0.102359
-0.103402
-0.101555
-0.0980972
-0.0937203
-0.0889379
-0.0839476
-0.0786639
-0.0730467
-0.0670882
-0.0607959
-0.0541912
-0.0473062
-0.0401809
-0.0328706
-0.0254653
-0.0179958
-0.0103511
0.0921793
-0.0289183
-0.0709867
-0.0716541
-0.0842559
-0.0889033
-0.0888344
-0.0869095
-0.0838208
-0.0800162
-0.0757905
-0.0713858
-0.0668062
-0.0619423
-0.0567854
-0.0513548
-0.0456757
-0.0397796
-0.0337014
-0.0274826
-0.0211877
-0.0148399
-0.0448882
0.0994029
0.0817305
-0.0540737
-0.0607977
-0.0716529
-0.0752011
-0.0747912
-0.073122
-0.0705758
-0.0674379
-0.0638968
-0.0600815
-0.0561072
-0.0519395
-0.0475193
-0.0428731
-0.0380324
-0.0330294
-0.0278948
-0.0226612
-0.0173778
-0.0120441
-0.0433882
-0.0217372
-0.00446316
-0.0418653
-0.0567387
-0.0606363
-0.0617162
-0.0614575
-0.0602523
-0.0583365
-0.0558866
-0.0530332
-0.0498622
-0.0464496
-0.042872
-0.0391207
-0.0351918
-0.0311173
-0.0269286
-0.0226557
-0.0183234
-0.0139616
-0.00957031
-0.0359687
-0.0373375
-0.0392778
-0.0415178
-0.0455163
-0.0477755
-0.0488753
-0.0490056
-0.0483536
-0.0470732
-0.0452769
-0.0430605
-0.0405046
-0.0376776
-0.0346465
-0.0314457
-0.0281775
-0.0248097
-0.0213725
-0.0178948
-0.0143952
-0.0108939
-0.00737319
-0.0277207
-0.0280885
-0.0291202
-0.0314071
-0.0338997
-0.0357973
-0.0370308
-0.0375606
-0.0374348
-0.0367298
-0.0355165
-0.03387
-0.0318682
-0.0295864
-0.0270953
-0.0244484
-0.0217384
-0.019001
-0.0162573
-0.0135233
-0.0108077
-0.00811726
-0.0054188
-0.0195197
-0.0193715
-0.019783
-0.0213257
-0.023228
-0.0249348
-0.0262598
-0.027099
-0.0274098
-0.0271979
-0.0264958
-0.0253598
-0.0238629
-0.022085
-0.0201054
-0.017998
-0.0158337
-0.0136665
-0.0115398
-0.00947716
-0.00748773
-0.00557216
-0.00364148
-0.0114778
-0.0109077
-0.0111168
-0.0122158
-0.0136026
-0.0150652
-0.0164004
-0.0174466
-0.0180915
-0.0182834
-0.0180208
-0.0173419
-0.0163122
-0.0150121
-0.0135257
-0.0119335
-0.0103099
-0.00871431
-0.00718854
-0.00576306
-0.00446248
-0.00331466
-0.00209376
-0.00426839
-0.00382555
-0.00375307
-0.00417782
-0.00509005
-0.00629139
-0.00754786
-0.00864985
-0.00944228
-0.00984538
-0.0098471
-0.00948475
-0.00882436
-0.00794746
-0.00693769
-0.00587224
-0.00481843
-0.00382967
-0.0029439
-0.00217932
-0.001519
-0.000897417
-0.000510408
1246.47
1232.32
1250.26
1262.82
1343.82
1321.52
1306.29
1290.97
1341.92
1318.98
1328.77
1262.97
1391.69
1270.33
1244.77
1214.52
1288.67
1276.6
1260.25
1211.61
1404.03
1343.3
1260.21
1319.67
1359.42
1344.68
1207.83
1206.84
965.986
954.049
887.893
835.456
805.041
787.34
757.743
710.445
323.974
220.703
116.385
8.15721
1.83008
1.44802
0.892049
0.584902
0.718977
0.649836
0.567543
0.505227
0.663359
0.602282
0.544433
0.491132
0.481372
0.453048
0.425289
0.396092
0.281763
0.291671
0.292593
0.288639
0.132528
0.16319
0.183381
0.196323
0.0405079
0.0773092
0.105239
0.126739
-0.0121681
0.0236193
0.0529983
0.0775306
-0.0413504
-0.00876861
0.0191282
0.0437119
-0.0562232
-0.0275553
-0.00210024
0.0211887
-0.062091
-0.0371798
-0.0145451
0.00674849
-0.0625784
-0.0411294
-0.0211798
-0.00203727
-0.0599162
-0.0414226
-0.0239635
-0.00697348
-0.0554563
-0.0395701
-0.0243322
-0.00935117
-0.0501358
-0.0364339
-0.0231872
-0.0100681
-0.0445941
-0.0327895
-0.0212613
-0.00979152
-0.0391829
-0.028965
-0.0189447
-0.00894396
-0.0340713
-0.0252466
-0.0165305
-0.00781732
-0.0293773
-0.0217248
-0.0141553
-0.00657844
-0.025142
-0.0185199
-0.0119365
-0.00534896
-0.0213452
-0.0156071
-0.0098971
-0.00418383
-0.0179713
-0.013018
-0.0080719
-0.00313034
-0.0149858
-0.0107139
-0.00645392
-0.00220104
-0.0123571
-0.00870433
-0.00505126
-0.00141296
-0.0100505
-0.00694609
-0.003847
-0.000763829
-0.00802987
-0.00543284
-0.00283407
-0.000256427
-0.00626804
-0.00413036
-0.00199746
0.000116279
-0.00473351
-0.00302946
-0.00132446
0.000357792
-0.00339844
-0.00209866
-0.000804216
0.000474309
-0.00222891
-0.00132511
-0.000419439
0.00047335
-0.00123193
-0.000690606
-0.000161191
0.000363764
-0.000268894
-0.000123481
2.46195e-05
0.000178237
1136.53
998.255
1798.93
2013.3
1364.59
916.395
826.72
807.333
857.668
882.138
810.542
670.238
578.371
530.929
517.582
484.773
461.691
487.036
438.002
1249.81
1033.54
1217.65
1994.77
1435.29
1064.92
920.336
771.306
688.911
680.167
633.359
608.088
495.245
479.413
491.646
487.203
389.126
310.406
360.774
1226.07
1051.17
1006.16
1247.16
1386.13
1140.12
881.242
741.007
729.575
660.154
621.638
668.461
587.152
469.501
449.926
239.497
166.974
86.1489
118.661
1200.46
1093.84
1163.48
1380.9
1344.95
949.883
693.437
597.505
676.315
732.016
707.1
587.658
547.226
414.266
178.419
39.3164
5.79031
3.23775
11.9739
1269.42
1255
1288.03
1498.35
1212.21
692.735
307.082
352.627
464.513
486.405
426.419
342.22
301.394
103.874
4.58133
1.22028
1.65567
1.6304
1.23454
1415.38
1481.8
1381.5
1041.2
458.606
136.676
62.3444
78.3386
231.01
286.148
288.205
235.732
40.6977
8.03761
1.92035
1.37048
1.03977
1.09653
1.11911
1224.78
1044.85
828.137
389.406
53.4162
0.723872
0.749819
1.72312
51.1752
191.529
119.537
7.39549
1.19639
1.0059
1.00497
0.914118
0.922126
0.99229
1.02379
918.203
718.857
239.632
0.459838
0.222712
0.402393
0.556821
1.91781
13.8415
12.6393
1.64737
0.883529
0.897767
0.829355
0.749291
0.798377
0.87146
0.940558
0.940885
415.84
20.2177
0.245702
0.488716
0.252601
0.340245
0.468665
2.66366
4.78906
2.20768
0.794776
0.938484
0.713042
0.674338
0.703496
0.737027
0.821437
0.9223
0.941486
0.224352
0.830531
0.435066
0.317458
0.284203
0.315004
0.695635
1.57699
0.538002
0.74207
0.824259
0.849373
0.586006
0.61697
0.648314
0.676757
0.719274
0.842742
0.833108
0.429544
0.543453
0.364883
0.287806
0.286022
0.350134
0.502154
0.354504
0.439418
0.685611
0.778129
0.604576
0.532528
0.56657
0.596475
0.621869
0.643973
0.728274
0.677002
0.445435
0.430091
0.318284
0.294817
0.29392
0.337767
0.345068
0.335855
0.463823
0.681715
0.642865
0.674217
0.702702
0.571966
0.549068
0.572551
0.597119
0.60707
0.621941
0.407095
0.340939
0.303115
0.291605
0.292729
0.312546
0.422501
0.499175
0.501407
0.519767
0.551403
0.602991
0.67272
0.57681
0.504975
0.527563
0.553872
0.561555
0.570892
0.351212
0.308976
0.283502
0.277755
0.282893
0.301995
0.36646
0.403703
0.401911
0.35583
0.349329
0.38328
0.42408
0.45485
0.467122
0.486622
0.509709
0.517412
0.523779
0.278095
0.263725
0.254855
0.255929
0.263279
0.274321
0.275162
0.278274
0.280594
0.301685
0.323911
0.348664
0.378515
0.406886
0.431177
0.44996
0.465188
0.475874
0.482302
0.210024
0.218041
0.223325
0.231224
0.240597
0.251325
0.259777
0.26778
0.276571
0.297961
0.317977
0.333954
0.357058
0.379975
0.400084
0.416733
0.43001
0.439521
0.445003
0.154439
0.177144
0.192686
0.20649
0.219496
0.23228
0.243908
0.254967
0.267627
0.286561
0.302102
0.316872
0.33603
0.354916
0.371896
0.386298
0.397947
0.406275
0.411048
0.11154
0.142406
0.164703
0.183052
0.199154
0.213966
0.227618
0.240586
0.253522
0.26731
0.282471
0.298867
0.315373
0.331272
0.345725
0.358155
0.368329
0.375681
0.380104
0.0794173
0.113895
0.140102
0.161522
0.179897
0.196301
0.211244
0.225251
0.238646
0.252256
0.266389
0.280858
0.295179
0.308817
0.321233
0.331979
0.340863
0.348844
0.363069
0.0559374
0.0911298
0.119081
0.142167
0.161935
0.179397
0.195151
0.209649
0.223309
0.236646
0.249865
0.262929
0.275568
0.287446
0.298211
0.307533
0.315309
0.332062
0.339401
0.0391725
0.0733385
0.101498
0.12514
0.145501
0.163456
0.179567
0.194264
0.207902
0.220857
0.233285
0.24528
0.256617
0.267098
0.276515
0.284636
0.291515
0.314866
0.307009
0.0274751
0.059654
0.0869937
0.110358
0.130669
0.148624
0.164721
0.179333
0.192762
0.205284
0.21704
0.228089
0.238379
0.247723
0.256027
0.263128
0.280813
0.292839
0.27936
0.0194925
0.0492188
0.0751084
0.0976145
0.117389
0.134962
0.150741
0.165038
0.178101
0.190135
0.201257
0.21151
0.220882
0.229272
0.236638
0.242882
0.261654
0.271288
0.255634
0.0141625
0.0412731
0.0653676
0.0866433
0.105542
0.122447
0.137674
0.151475
0.164044
0.175534
0.186033
0.195571
0.204159
0.211698
0.218274
0.22384
0.231077
0.234308
0.234076
0.0106836
0.0351872
0.0573345
0.0771672
0.0949693
0.111007
0.125513
0.138679
0.150654
0.161549
0.171424
0.180301
0.188209
0.194959
0.200897
0.205913
0.210248
0.213189
0.215111
0.00845863
0.0304676
0.05064
0.0689303
0.0855086
0.10055
0.114218
0.126651
0.137958
0.148214
0.157458
0.165689
0.172913
0.17914
0.184494
0.189001
0.193079
0.195767
0.19742
0.00706324
0.02674
0.0449869
0.0617129
0.0770078
0.0909795
0.103735
0.11537
0.125958
0.13555
0.144161
0.151777
0.158398
0.164074
0.169064
0.173116
0.176955
0.179314
0.180866
0.00620119
0.0237301
0.0401434
0.0553323
0.0693324
0.0822017
0.0940056
0.104805
0.114646
0.12356
0.131547
0.138582
0.144663
0.149844
0.154518
0.158684
0.162045
0.164201
0.165602
0.00567563
0.0212386
0.0359308
0.0496394
0.0623647
0.0741295
0.0849683
0.0949161
0.104
0.112234
0.119613
0.126106
0.131711
0.136481
0.140757
0.144804
0.147923
0.149768
0.150933
0.00534837
0.019121
0.0322117
0.0445126
0.0560026
0.0666815
0.0765614
0.0856584
0.0939848
0.101546
0.108334
0.114323
0.119513
0.123947
0.127858
0.131459
0.1345
0.136099
0.136743
0.00512849
0.01727
0.0288773
0.0398505
0.0501568
0.059781
0.0687207
0.0769789
0.0845572
0.0914559
0.0976682
0.103176
0.107987
0.112129
0.11574
0.118769
0.121771
0.123081
0.123473
0.00495115
0.0156059
0.0258412
0.0355678
0.044747
0.0533559
0.0613817
0.068819
0.075662
0.0819079
0.0875533
0.0925882
0.0970215
0.100865
0.10419
0.106841
0.10913
0.110268
0.110913
0.00477526
0.0140697
0.0230348
0.0315922
0.0397017
0.0473365
0.0544785
0.0611159
0.0672386
0.0728416
0.0779242
0.0824813
0.086517
0.0900261
0.0930383
0.0953465
0.0973032
0.0982391
0.0988735
0.00456969
0.012615
0.0204014
0.027861
0.0349559
0.0416578
0.0479461
0.0538059
0.0592249
0.0641962
0.0687195
0.0727898
0.0764042
0.0795437
0.0822147
0.0842132
0.085929
0.0866985
0.0872908
0.00431511
0.0112054
0.0178919
0.024318
0.0304492
0.0362579
0.0417222
0.0468271
0.05156
0.0559123
0.0598816
0.0634606
0.0666397
0.0693925
0.0717131
0.0734329
0.0749367
0.075559
0.0761115
0.00399745
0.00981228
0.0154667
0.0209152
0.0261283
0.0310803
0.0357501
0.0401229
0.0441873
0.0479338
0.0513573
0.0544465
0.0571885
0.0595554
0.0615354
0.0630081
0.0643158
0.0647656
0.0653449
0.00360631
0.00841099
0.0130909
0.0176109
0.0219467
0.0260756
0.0299784
0.0336417
0.0370549
0.0402079
0.0430937
0.045699
0.0480098
0.0500004
0.0516596
0.0529086
0.05402
0.0543243
0.0549564
0.00313579
0.00698304
0.010736
0.0143698
0.0178649
0.0212008
0.0243616
0.0273351
0.0301123
0.0326825
0.0350384
0.0371654
0.0390527
0.0406782
0.0420339
0.0430728
0.0439799
0.0442426
0.0448481
0.00258183
0.00551476
0.00838096
0.0111642
0.0138494
0.0164188
0.0188586
0.0211584
0.0233104
0.025305
0.0271364
0.0287903
0.0302598
0.0315271
0.0325892
0.0334172
0.0341263
0.0344094
0.0348881
0.00194483
0.00399691
0.00600949
0.00797235
0.00987314
0.0116971
0.0134324
0.0150695
0.0166037
0.0180274
0.0193371
0.020521
0.0215749
0.0224851
0.0232526
0.0238581
0.0243677
0.024639
0.0249414
0.00122688
0.00242854
0.00361544
0.00478253
0.00591826
0.00701085
0.00805127
0.00903298
0.00995397
0.0108097
0.0115981
0.0123113
0.0129483
0.0134986
0.0139644
0.0143297
0.0146262
0.0147918
0.0149144
0.000438253
0.000813257
0.00119736
0.0015874
0.00196982
0.00233848
0.00268942
0.00302045
0.00333183
0.00362134
0.00388864
0.00413076
0.00434779
0.00453446
0.00469057
0.00480176
0.00487194
0.00486698
0.00477983
)
;

boundaryField
{
    leftWall
    {
        type            fixedFluxPressure;
        gradient        uniform 0;
        value           nonuniform List<scalar> 
50
(
5851.83
5853.74
5863.23
5878.55
5911.02
5543.36
2418.37
1727.42
1245.96
1179.03
1134.77
1097.03
1080.46
1076.6
1074.77
1069.54
1060.73
1048.94
1035.09
1024.25
596.393
-0.0460629
-0.135395
-0.176813
-0.0960074
0.210648
0.395511
0.230002
-0.0705008
-0.0257212
0.0292134
0.0587814
0.0662779
0.058395
0.0470293
0.0723708
0.0637061
0.0473055
0.032337
0.0252776
0.0225417
0.0187005
-0.0103511
-0.0448882
-0.0433882
-0.0359687
-0.0277207
-0.0195197
-0.0114778
-0.00426839
)
;
    }
    rightWall
    {
        type            fixedFluxPressure;
        gradient        uniform 0;
        value           nonuniform List<scalar> 
50
(
2638.48
2638.79
2306.89
760.915
561.736
520.085
513.295
495.2
438.002
360.774
118.661
11.9739
1.23454
1.11911
1.02379
0.940885
0.941486
0.833108
0.677002
0.621941
0.570892
0.523779
0.482302
0.445003
0.411048
0.380104
0.363069
0.339401
0.307009
0.27936
0.255634
0.234076
0.215111
0.19742
0.180866
0.165602
0.150933
0.136743
0.123473
0.110913
0.0988735
0.0872908
0.0761115
0.0653449
0.0549564
0.0448481
0.0348881
0.0249414
0.0149144
0.00477983
)
;
    }
    lowerWall
    {
        type            fixedFluxPressure;
        gradient        uniform 0;
        value           nonuniform List<scalar> 
62
(
5851.83
5833.35
5831.63
5864.85
5942.03
6051.56
6183.41
6326.08
6468.46
6599.14
6704.87
6771.09
6785.1
6738.09
6625.54
6444.92
6202.57
5919.27
5629.57
5368.81
5162.8
5023.91
4955.35
4955.35
4938.91
4906.4
4852.79
3298.81
1487.66
1481.44
1471.22
1246.47
1232.32
1250.26
1262.82
2513.76
2514.64
2526.65
2462.76
2323.12
1942.26
1450.66
1014.16
2513.76
2359.96
2403.4
2651.51
2569.84
2474.65
2420.06
2473.91
2468.77
2448.86
2411.34
2455.72
2598.68
2769.64
2860.89
2860.46
2797.58
2689
2638.48
)
;
    }
    atmosphere
    {
        type            totalPressure;
        rho             rho;
        psi             none;
        gamma           1;
        p0              uniform 0;
        value           nonuniform List<scalar> 
46
(
-0.000550667
-0.000144555
-0.000260007
-0.000826974
-0.00179533
-0.00298357
-0.00416608
-0.00514759
-0.0058016
-0.00607653
-0.00598269
-0.00557207
-0.00492238
-0.00412021
-0.00325269
-0.00239758
-0.00162007
-0.000969592
-0.000478611
-0.000162677
-1.72397e-05
0
0
0
0
0
0
0
0
0
0
0
0
0
0
0
0
0
0
0
0
0
0
0
0
0
)
;
    }
    defaultFaces
    {
        type            empty;
    }
}


// ************************************************************************* //
