/*--------------------------------*- C++ -*----------------------------------*\
| =========                 |                                                 |
| \\      /  F ield         | OpenFOAM: The Open Source CFD Toolbox           |
|  \\    /   O peration     | Version:  2312                                  |
|   \\  /    A nd           | Website:  www.openfoam.com                      |
|    \\/     M anipulation  |                                                 |
\*---------------------------------------------------------------------------*/
FoamFile
{
    version     2.0;
    format      ascii;
    arch        "LSB;label=32;scalar=64";
    class       surfaceScalarField;
    location    "1.35";
    object      phi;
}
// * * * * * * * * * * * * * * * * * * * * * * * * * * * * * * * * * * * * * //

dimensions      [0 3 -1 0 0 0 0];

oriented        oriented;

internalField   nonuniform List<scalar> 
4432
(
1.55589e-06
-1.55589e-06
1.02453e-06
5.31353e-07
1.05868e-06
-3.41426e-08
1.84011e-06
-7.81435e-07
3.37092e-06
-1.53081e-06
5.39025e-06
-2.01933e-06
7.67259e-06
-2.28234e-06
1.00429e-05
-2.37033e-06
1.23668e-05
-2.3239e-06
1.45128e-05
-2.14596e-06
1.63278e-05
-1.81501e-06
1.76345e-05
-1.30675e-06
1.82544e-05
-6.1989e-07
1.80499e-05
2.04516e-07
1.69266e-05
1.12328e-06
1.48836e-05
2.04299e-06
1.21069e-05
2.77669e-06
9.04915e-06
3.0578e-06
6.22183e-06
2.82732e-06
3.98654e-06
2.23529e-06
2.36291e-06
1.62363e-06
1.34495e-06
1.01796e-06
1.34495e-06
5.24177e-07
-2.08007e-06
1.33703e-07
9.21824e-07
3.0581e-07
-2.06251e-07
1.25049e-06
-1.72612e-06
2.91588e-06
-3.1962e-06
5.04156e-06
-4.14501e-06
7.40186e-06
-4.64263e-06
9.83455e-06
-4.80302e-06
1.22134e-05
-4.70275e-06
1.44141e-05
-4.34662e-06
1.6281e-05
-3.68192e-06
1.76294e-05
-2.65522e-06
1.82829e-05
-1.27332e-06
1.80806e-05
4.06759e-07
1.69359e-05
2.26803e-06
1.48306e-05
4.14827e-06
1.1946e-05
5.66129e-06
8.76624e-06
6.23754e-06
5.8475e-06
5.74606e-06
3.57268e-06
4.51012e-06
1.96616e-06
3.23015e-06
9.05367e-07
2.07875e-06
2.25032e-06
-9.60451e-07
-1.11962e-06
-1.46784e-06
1.42921e-06
-1.18082e-06
-4.93276e-07
2.61172e-08
-2.93306e-06
1.88447e-06
-5.05455e-06
4.2158e-06
-6.47634e-06
6.73877e-06
-7.16561e-06
9.3026e-06
-7.36685e-06
1.1801e-05
-7.20115e-06
1.41218e-05
-6.66738e-06
1.61099e-05
-5.67007e-06
1.75659e-05
-4.11123e-06
1.82911e-05
-1.9985e-06
1.81354e-05
5.62431e-07
1.6982e-05
3.42151e-06
1.47869e-05
6.34328e-06
1.17177e-05
8.7305e-06
8.31079e-06
9.64449e-06
5.26322e-06
8.79363e-06
2.99663e-06
6.7767e-06
1.53463e-06
4.69215e-06
6.41653e-07
2.97173e-06
2.89197e-06
-2.72994e-06
1.61031e-06
-3.74884e-06
2.44812e-06
-3.27151e-06
-9.70616e-07
-1.72739e-06
-4.47718e-06
4.95515e-07
-7.27746e-06
3.09988e-06
-9.08071e-06
5.82048e-06
-9.88621e-06
8.54441e-06
-1.00908e-05
1.11927e-05
-9.84942e-06
1.36782e-05
-9.15291e-06
1.58509e-05
-7.84281e-06
1.74928e-05
-5.75303e-06
1.8383e-05
-2.88873e-06
1.83453e-05
6.00141e-07
1.72455e-05
4.5213e-06
1.49656e-05
8.62314e-06
1.16648e-05
1.20313e-05
7.98852e-06
1.33208e-05
4.81961e-06
1.19625e-05
2.6172e-06
8.97911e-06
1.34337e-06
5.96598e-06
5.50205e-07
3.76489e-06
3.44218e-06
-4.4509e-06
6.06121e-06
-5.57572e-06
3.57294e-06
-4.85456e-06
-1.69178e-06
-2.96834e-06
-6.3634e-06
-3.54065e-07
-9.89173e-06
2.42349e-06
-1.18583e-05
5.27179e-06
-1.27345e-05
8.09235e-06
-1.29113e-05
1.08416e-05
-1.25986e-05
1.34674e-05
-1.17788e-05
1.583e-05
-1.02054e-05
1.76744e-05
-7.59736e-06
1.87703e-05
-3.98463e-06
1.88964e-05
4.74004e-07
1.79054e-05
5.51224e-06
1.55795e-05
1.09491e-05
1.2072e-05
1.55388e-05
8.13111e-06
1.72617e-05
4.91902e-06
1.51746e-05
2.78167e-06
1.11165e-05
1.30754e-06
7.44011e-06
1.81286e-07
4.89114e-06
3.62346e-06
-4.49128e-06
1.05525e-05
-5.86131e-06
4.94296e-06
-4.77941e-06
-2.77368e-06
-2.50489e-06
-8.63793e-06
1.81184e-07
-1.25778e-05
2.97268e-06
-1.46498e-05
5.78723e-06
-1.55491e-05
8.5899e-06
-1.5714e-05
1.13566e-05
-1.53653e-05
1.40774e-05
-1.44996e-05
1.66283e-05
-1.27563e-05
1.87274e-05
-9.69644e-06
2.01369e-05
-5.39416e-06
2.06117e-05
-7.44338e-10
2.00896e-05
6.03429e-06
1.82675e-05
1.27712e-05
1.53134e-05
1.84929e-05
1.23991e-05
2.0176e-05
1.08572e-05
1.67165e-05
9.34866e-06
1.2625e-05
6.16543e-06
1.06233e-05
1.65064e-06
9.40593e-06
5.2741e-06
-3.62204e-07
1.09147e-05
7.17154e-07
3.86359e-06
6.97928e-07
-2.75447e-06
1.13665e-06
-9.07667e-06
2.49958e-06
-1.39408e-05
4.76493e-06
-1.69151e-05
7.47855e-06
-1.82627e-05
1.02194e-05
-1.84549e-05
1.29417e-05
-1.80876e-05
1.57205e-05
-1.72784e-05
1.84956e-05
-1.55314e-05
2.09553e-05
-1.21561e-05
2.27869e-05
-7.22581e-06
2.38188e-05
-1.03262e-06
2.41331e-05
5.72003e-06
2.3538e-05
1.33662e-05
2.20971e-05
1.99338e-05
2.12069e-05
2.10662e-05
2.21043e-05
1.58191e-05
2.26322e-05
1.20971e-05
2.17736e-05
1.1482e-05
1.67832e-05
1.43963e-05
2.20573e-05
9.88971e-06
1.02498e-06
1.82761e-05
-4.5228e-06
2.12804e-05
-5.75876e-06
2.05441e-05
-8.3404e-06
1.8388e-05
-1.17847e-05
1.61009e-05
-1.4628e-05
1.41621e-05
-1.63239e-05
1.34713e-05
-1.77641e-05
1.48686e-05
-1.94849e-05
1.74329e-05
-1.98427e-05
2.04106e-05
-1.85092e-05
2.32531e-05
-1.49986e-05
2.56234e-05
-9.59606e-06
2.7483e-05
-2.89228e-06
2.78981e-05
5.30494e-06
2.68748e-05
1.43896e-05
2.71664e-05
1.96421e-05
2.97263e-05
1.85064e-05
3.16498e-05
1.38956e-05
3.26876e-05
1.10593e-05
3.17117e-05
1.24579e-05
2.5571e-05
2.0537e-05
4.76284e-05
-7.51311e-07
7.5131e-07
-1.37629e-05
1.30116e-05
-2.41395e-05
1.03766e-05
-2.06345e-05
-3.50505e-06
-1.90144e-05
-1.62003e-06
-1.86662e-05
-3.48213e-07
-1.82471e-05
-4.19128e-07
-1.36146e-05
-4.63247e-06
-9.54045e-06
-4.07417e-06
-6.55407e-06
-2.98638e-06
-6.50203e-06
-5.20459e-08
-8.54804e-06
2.04601e-06
-1.0078e-05
1.52995e-06
-9.40861e-06
-6.69379e-07
-7.69517e-06
-1.71344e-06
-5.92804e-06
-1.76712e-06
-4.62752e-06
-1.30052e-06
-1.20795e-06
-3.41958e-06
-1.20795e-06
-6.58179e-06
7.3331e-06
-1.28431e-05
1.92728e-05
-8.63456e-06
6.16812e-06
5.26701e-06
-1.74066e-05
1.17557e-05
-8.10868e-06
8.77084e-06
2.6366e-06
-1.19882e-06
9.55053e-06
-5.30451e-06
-5.26783e-07
-5.41743e-06
-3.96125e-06
-5.50154e-06
-2.90227e-06
-7.36383e-06
1.81025e-06
-1.05322e-05
5.21436e-06
-1.35163e-05
4.51404e-06
-1.4433e-05
2.47388e-07
-1.3504e-05
-2.64251e-06
-1.23561e-05
-2.91495e-06
-1.01844e-05
-3.47225e-06
-6.11368e-06
-7.49031e-06
-7.32162e-06
-1.31505e-05
2.04836e-05
-1.52857e-05
2.14081e-05
-5.32836e-06
-3.78919e-06
5.9089e-06
-2.86439e-05
1.02366e-05
-1.24364e-05
1.3825e-05
-9.51736e-07
1.98824e-05
3.49308e-06
1.82189e-05
1.13679e-06
8.30027e-06
5.95734e-06
-4.57004e-07
5.855e-06
-6.68875e-06
8.04199e-06
-1.3334e-05
1.18596e-05
-1.79626e-05
9.1426e-06
-2.0054e-05
2.33883e-06
-1.92022e-05
-3.49432e-06
-1.62835e-05
-5.8337e-06
-1.20403e-05
-7.71543e-06
-7.60186e-06
-1.19287e-05
-1.49235e-05
-1.66465e-05
3.71301e-05
-1.59663e-05
2.07278e-05
-3.51167e-06
-1.62439e-05
5.87293e-06
-3.80285e-05
6.98744e-06
-1.35509e-05
7.66911e-06
-1.63341e-06
1.21111e-05
-9.48927e-07
1.42051e-05
-9.57198e-07
1.1054e-05
9.10848e-06
4.58307e-06
1.23259e-05
-4.72992e-06
1.7355e-05
-1.31687e-05
2.02984e-05
-1.69326e-05
1.29065e-05
-1.78851e-05
3.2914e-06
-1.68967e-05
-4.48272e-06
-1.30212e-05
-9.70922e-06
-8.30706e-06
-1.24296e-05
-4.68293e-06
-1.55529e-05
-1.96064e-05
-1.51196e-05
5.22497e-05
-1.20656e-05
1.76739e-05
1.69605e-06
-3.00055e-05
9.5605e-06
-4.58929e-05
1.25738e-05
-1.65642e-05
1.10785e-05
-1.38143e-07
9.03722e-06
1.09239e-06
8.26342e-06
-1.83393e-07
6.83086e-06
1.0541e-05
2.276e-08
1.9134e-05
-5.5144e-06
2.28921e-05
-2.09658e-06
1.68806e-05
-1.17832e-06
1.19882e-05
-6.01033e-07
2.71411e-06
2.42277e-07
-5.32603e-06
2.60871e-06
-1.20757e-05
5.35842e-06
-1.51793e-05
4.33064e-06
-1.45251e-05
-1.52758e-05
-1.10781e-05
6.33277e-05
-6.08785e-06
1.26837e-05
7.22598e-06
-4.33193e-05
1.33276e-05
-5.19945e-05
2.09112e-05
-2.41479e-05
2.79497e-05
-7.17655e-06
1.63976e-05
1.26444e-05
3.9434e-06
1.22708e-05
-1.93204e-07
1.46776e-05
-4.18122e-06
2.3122e-05
-4.24951e-06
2.29604e-05
1.29474e-06
1.13363e-05
7.55609e-06
5.72686e-06
1.13297e-05
-1.05953e-06
1.22483e-05
-6.24462e-06
1.13867e-05
-1.1214e-05
1.09424e-05
-1.4735e-05
6.96285e-06
-1.05455e-05
-8.31292e-06
-3.88392e-06
6.72116e-05
2.60453e-06
6.19522e-06
1.0262e-05
-5.09768e-05
1.81776e-05
-5.99102e-05
2.23173e-05
-2.82875e-05
2.49294e-05
-9.78864e-06
1.58112e-05
2.17625e-05
2.90118e-06
2.51809e-05
-3.43566e-06
2.10145e-05
-3.6893e-06
2.33756e-05
-3.61266e-07
1.96324e-05
5.24424e-06
5.73082e-06
9.00684e-06
1.96425e-06
1.06119e-05
-2.66456e-06
1.25478e-05
-8.18052e-06
1.30215e-05
-1.16878e-05
1.19967e-05
-1.37102e-05
7.40996e-06
-5.95878e-06
-9.02968e-07
1.44845e-05
5.27271e-05
1.6164e-05
4.51572e-06
1.59545e-05
-5.07672e-05
2.00741e-05
-6.40298e-05
2.84866e-05
-3.67e-05
2.86053e-05
-9.90742e-06
2.33958e-05
2.69721e-05
1.03573e-05
3.82194e-05
8.83234e-07
3.04885e-05
3.52238e-10
2.42585e-05
5.21642e-06
1.44163e-05
1.01589e-05
7.88357e-07
1.23926e-05
-2.69458e-07
1.22812e-05
-2.5532e-06
1.33633e-05
-9.26255e-06
1.28132e-05
-1.11377e-05
1.00364e-05
-1.09334e-05
7.92725e-06
-3.84964e-06
7.02428e-06
4.811e-05
-4.7085e-05
7.06362e-05
-2.7049e-05
7.60624e-05
-1.1185e-05
7.1545e-05
-3.82293e-06
6.42481e-05
-4.48784e-06
5.80013e-05
-8.38118e-06
5.16956e-05
-1.00182e-05
4.5804e-05
-1.18726e-05
4.13349e-05
-1.50158e-05
4.00379e-05
-1.85457e-05
4.25454e-05
-2.10167e-05
4.71507e-05
-1.96039e-05
5.13107e-05
-1.3756e-05
5.48268e-05
-6.40841e-06
5.80004e-05
2.13138e-06
6.46044e-05
7.7856e-06
7.36616e-05
1.05849e-05
8.18e-05
1.0368e-05
8.68485e-05
8.84716e-06
8.97357e-05
8.17207e-06
9.23138e-05
9.87976e-06
9.81792e-05
1.46715e-05
2.37131e-05
0.000122095
4.42601e-05
-9.13451e-05
7.55507e-05
-5.83397e-05
9.47738e-05
-3.0408e-05
0.000104053
-1.31024e-05
0.000103517
-3.95208e-06
9.32898e-05
1.84651e-06
7.66001e-05
6.67149e-06
5.81849e-05
6.5426e-06
4.143e-05
1.73909e-06
3.04714e-05
-7.58699e-06
2.61438e-05
-1.66892e-05
2.74523e-05
-2.09124e-05
3.37608e-05
-2.00645e-05
4.50559e-05
-1.77035e-05
6.03758e-05
-1.31885e-05
7.54895e-05
-7.32814e-06
8.84769e-05
-2.40244e-06
9.83478e-05
4.96981e-07
0.00010512
2.07466e-06
0.000109679
3.61315e-06
0.000113233
6.3259e-06
0.000116928
1.09768e-05
1.83345e-05
0.000122306
3.26865e-05
-0.000124032
5.85823e-05
-8.42355e-05
7.47916e-05
-4.66173e-05
9.55929e-05
-3.39037e-05
0.000119611
-2.79701e-05
0.000132252
-1.07948e-05
0.000126587
1.23366e-05
0.000104451
2.86787e-05
7.15311e-05
3.46591e-05
4.26304e-05
2.13137e-05
3.15683e-05
-5.62713e-06
3.242e-05
-2.1764e-05
3.95955e-05
-2.724e-05
5.31681e-05
-3.1276e-05
7.03925e-05
-3.04129e-05
8.63886e-05
-2.33243e-05
9.92681e-05
-1.5282e-05
0.000108516
-8.7513e-06
0.000114486
-3.89495e-06
0.000117861
2.3794e-07
0.000119276
4.9108e-06
0.000119914
1.03396e-05
1.69749e-05
0.000121273
2.26782e-05
-0.00014671
4.46868e-05
-0.000106244
5.21806e-05
-5.41111e-05
6.67246e-05
-4.84477e-05
9.43884e-05
-5.56338e-05
0.000121982
-3.83883e-05
0.000139336
-5.01706e-06
0.000130169
3.78449e-05
0.000106169
5.86597e-05
7.21924e-05
5.529e-05
4.83029e-05
1.82624e-05
4.10123e-05
-1.44735e-05
4.38049e-05
-3.00326e-05
5.58068e-05
-4.3278e-05
6.99272e-05
-4.45333e-05
8.22574e-05
-3.56545e-05
9.20147e-05
-2.50393e-05
9.88501e-05
-1.55867e-05
0.000102436
-7.48105e-06
0.000103098
-4.23754e-07
0.000102379
5.62967e-06
0.000101985
1.07331e-05
1.68156e-05
0.000102145
8.19907e-06
-0.000154909
2.49503e-05
-0.000122995
2.85706e-05
-5.77314e-05
4.35028e-05
-6.338e-05
6.51064e-05
-7.72374e-05
9.12164e-05
-6.44983e-05
0.000112274
-2.60745e-05
0.000112134
3.79843e-05
0.000103245
6.75494e-05
8.83467e-05
7.0188e-05
7.18741e-05
3.4735e-05
5.92768e-05
-1.87621e-06
5.67093e-05
-2.74651e-05
6.1819e-05
-4.83876e-05
6.67071e-05
-4.94215e-05
7.13332e-05
-4.02805e-05
7.47231e-05
-2.84292e-05
7.65105e-05
-1.73741e-05
7.62517e-05
-7.22221e-06
7.49291e-05
8.98763e-07
7.39909e-05
6.56792e-06
7.4294e-05
1.043e-05
1.58403e-05
7.52693e-05
-4.6628e-06
-0.000150246
2.74296e-06
-0.000130401
1.03658e-05
-6.53542e-05
2.4929e-05
-7.79431e-05
3.55596e-05
-8.78681e-05
4.82556e-05
-7.71942e-05
6.30557e-05
-4.08747e-05
7.66438e-05
2.43962e-05
8.52492e-05
5.8944e-05
8.66393e-05
6.87978e-05
7.70788e-05
4.42956e-05
6.66673e-05
8.53524e-06
6.35728e-05
-2.43707e-05
5.88306e-05
-4.36454e-05
5.48182e-05
-4.54091e-05
5.18224e-05
-3.72847e-05
4.98311e-05
-2.6438e-05
4.9315e-05
-1.68579e-05
4.84824e-05
-6.38961e-06
4.83944e-05
9.86774e-07
4.93063e-05
5.65598e-06
5.08573e-05
8.87901e-06
1.31831e-05
5.35145e-05
-9.1389e-06
-0.000141107
-1.04406e-05
-0.000129099
5.14851e-06
-8.09433e-05
8.80548e-06
-8.16e-05
9.77327e-06
-8.88358e-05
1.29025e-05
-8.03234e-05
2.29921e-05
-5.09643e-05
4.51396e-05
2.24868e-06
7.16037e-05
3.24799e-05
8.18399e-05
5.85617e-05
7.28086e-05
5.33268e-05
6.46272e-05
1.67166e-05
5.81154e-05
-1.78588e-05
4.80782e-05
-3.36083e-05
3.87452e-05
-3.60761e-05
3.21716e-05
-3.07111e-05
2.91085e-05
-2.33749e-05
2.91336e-05
-1.6883e-05
3.00179e-05
-7.27399e-06
3.19927e-05
-9.87981e-07
3.48873e-05
2.76136e-06
3.77949e-05
5.97141e-06
8.76107e-06
4.2217e-05
-9.11173e-06
-0.000131995
-1.13008e-05
-0.00012691
2.11386e-06
-9.43579e-05
-6.86273e-09
-7.94793e-05
-6.06985e-06
-8.27729e-05
-1.13293e-05
-7.5064e-05
-5.1522e-06
-5.71413e-05
1.92953e-05
-2.21989e-05
4.5908e-05
5.86723e-06
6.37345e-05
4.07351e-05
6.50785e-05
5.19829e-05
6.28715e-05
1.89236e-05
5.48493e-05
-9.83669e-06
4.16121e-05
-2.03711e-05
2.98573e-05
-2.43213e-05
2.32904e-05
-2.41442e-05
2.07348e-05
-2.08193e-05
2.03049e-05
-1.64532e-05
2.19662e-05
-8.93529e-06
2.55622e-05
-4.58394e-06
2.96767e-05
-1.35317e-06
3.45591e-05
1.08902e-06
1.82172e-06
4.14985e-05
-6.88793e-06
-0.000125107
-7.37804e-06
-0.00012642
2.89652e-06
-0.000104632
1.66326e-06
-7.82461e-05
-4.34086e-06
-7.67687e-05
-8.35296e-06
-7.10519e-05
-6.6203e-06
-5.8874e-05
8.89247e-06
-3.77116e-05
3.06054e-05
-1.58457e-05
4.86705e-05
2.267e-05
5.66744e-05
4.3979e-05
5.6292e-05
1.93059e-05
5.16775e-05
-5.22215e-06
4.4134e-05
-1.28276e-05
3.47105e-05
-1.48979e-05
2.59839e-05
-1.54177e-05
1.93088e-05
-1.41442e-05
1.52244e-05
-1.23689e-05
1.47805e-05
-8.49137e-06
1.64734e-05
-6.27689e-06
2.02857e-05
-5.16546e-06
2.66324e-05
-5.25764e-06
-7.63327e-06
3.60874e-05
-3.2335e-06
-0.000121874
-2.52173e-06
-0.000127132
5.74996e-06
-0.000112904
1.01984e-05
-8.26945e-05
8.22779e-06
-7.47981e-05
5.70161e-06
-6.85257e-05
5.25779e-06
-5.84302e-05
9.54538e-06
-4.19992e-05
2.16483e-05
-2.79486e-05
4.02487e-05
4.06949e-06
5.53477e-05
2.888e-05
5.70864e-05
1.75671e-05
4.87144e-05
3.1498e-06
3.76463e-05
-1.75947e-06
2.4789e-05
-2.04058e-06
1.28304e-05
-3.45911e-06
6.83951e-06
-8.1534e-06
5.01286e-06
-1.05423e-05
5.59022e-06
-9.06877e-06
7.1272e-06
-7.81385e-06
1.52613e-05
-1.32996e-05
2.74608e-05
-1.74571e-05
-2.44461e-05
4.42736e-05
1.34615e-06
-0.00012322
3.17385e-06
-0.00012896
9.0083e-06
-0.000118739
1.9414e-05
-9.31002e-05
2.39146e-05
-7.92987e-05
2.47631e-05
-6.93741e-05
2.37968e-05
-5.74638e-05
2.27347e-05
-4.09371e-05
2.08039e-05
-2.60177e-05
3.0051e-05
-5.17761e-06
4.42634e-05
1.46675e-05
4.40155e-05
1.78151e-05
3.48546e-05
1.23106e-05
2.77407e-05
5.3544e-06
2.89079e-05
-3.20779e-06
3.89701e-05
-1.35214e-05
5.61062e-05
-2.52896e-05
7.45333e-05
-2.89695e-05
8.60599e-05
-2.05954e-05
5.76796e-05
2.05672e-05
7.57619e-05
-3.13817e-05
9.20215e-05
-3.37165e-05
-2.06757e-05
8.82515e-05
6.76064e-06
-0.000129981
1.00474e-05
-0.000132246
1.44092e-05
-0.0001231
2.57314e-05
-0.000104422
3.56307e-05
-8.91979e-05
4.26987e-05
-7.64421e-05
4.73742e-05
-6.21392e-05
5.10435e-05
-4.46064e-05
5.0991e-05
-2.59651e-05
5.43793e-05
-8.56593e-06
6.58555e-05
3.19131e-06
8.15843e-05
2.08614e-06
0.000102868
-8.97301e-06
0.000130038
-2.18152e-05
0.000161493
-3.46635e-05
0.000196324
-4.8352e-05
0.000233487
-6.24523e-05
0.000279415
-7.48973e-05
0.000347538
-8.87186e-05
0.00036627
1.82981e-06
0.000251017
8.38713e-05
0.000143802
7.35052e-05
3.87149e-05
8.44121e-05
1.15603e-05
-0.000141541
1.67666e-05
-0.000137453
2.10916e-05
-0.000127425
3.01296e-05
-0.00011346
4.05897e-05
-9.9658e-05
5.06849e-05
-8.65373e-05
6.17359e-05
-7.31902e-05
7.72451e-05
-6.01156e-05
9.75047e-05
-4.62248e-05
0.000120005
-3.10664e-05
0.000141662
-1.84655e-05
0.000160584
-1.68362e-05
0.000177232
-2.56213e-05
0.00019141
-3.59932e-05
0.000204896
-4.81486e-05
0.000217855
-6.13118e-05
0.000229847
-7.44434e-05
0.000243287
-8.83375e-05
0.000267307
-0.000112739
0.000224016
4.51188e-05
0.000160509
0.000147378
9.80424e-05
0.000135974
9.03988e-05
4.63592e-05
1.50382e-05
-0.000156579
2.2686e-05
-0.0001451
2.57663e-05
-0.000130505
3.3442e-05
-0.000121135
4.36962e-05
-0.000109911
5.2825e-05
-9.56649e-05
6.10307e-05
-8.13954e-05
7.11876e-05
-7.02724e-05
8.55485e-05
-6.05856e-05
0.00010595
-5.14675e-05
0.000134029
-4.65453e-05
0.000164812
-4.76186e-05
0.000189773
-5.05828e-05
0.000199152
-4.53717e-05
0.0002066
-5.55967e-05
0.000219146
-7.38571e-05
0.000236651
-9.1947e-05
0.000218564
-7.02501e-05
0.000125329
-1.95041e-05
6.2867e-05
0.00010758
3.69022e-05
0.000173344
3.53674e-05
0.000137509
0.000108443
1.73236e-05
2.46243e-05
-0.000181203
4.81712e-05
-0.000168646
6.55766e-05
-0.00014791
6.8338e-05
-0.000123896
6.55641e-05
-0.000107137
5.97196e-05
-8.98199e-05
5.67533e-05
-7.84296e-05
6.57268e-05
-7.92464e-05
8.01985e-05
-7.50571e-05
9.79022e-05
-6.91702e-05
0.000119309
-6.79519e-05
0.000143194
-7.15023e-05
0.000176513
-8.38996e-05
0.000188796
-5.76553e-05
0.0001779
-4.47012e-05
0.000140255
-3.62121e-05
7.84863e-05
-3.01782e-05
2.42792e-06
5.80807e-06
-5.83976e-05
4.13212e-05
-5.63457e-05
0.000105529
-2.6397e-05
0.000143395
-1.15487e-05
0.000122661
0.000102959
-6.06485e-06
2.16945e-05
-0.000202896
4.30767e-05
-0.000190027
6.14808e-05
-0.000166313
7.29613e-05
-0.000135376
8.29003e-05
-0.000117077
9.32144e-05
-0.000100135
0.000100695
-8.59111e-05
9.83161e-05
-7.68689e-05
9.68877e-05
-7.36298e-05
0.000102183
-7.44671e-05
0.000108716
-7.44857e-05
0.000110741
-7.35265e-05
8.96602e-05
-6.28184e-05
6.39079e-05
-3.19027e-05
3.30309e-05
-1.3824e-05
-8.79818e-06
5.61637e-06
-5.10474e-05
1.20699e-05
-7.68295e-05
3.15896e-05
-9.72448e-05
6.17364e-05
-8.93906e-05
9.76745e-05
-5.72806e-05
0.000111285
-3.58835e-05
0.000101264
8.96231e-05
-2.25473e-05
1.05074e-05
-0.000213403
2.17411e-05
-0.000201261
3.39012e-05
-0.000178473
4.33239e-05
-0.000144799
5.18994e-05
-0.000125652
6.01347e-05
-0.00010837
6.61211e-05
-9.18967e-05
6.74334e-05
-7.81804e-05
6.3253e-05
-6.94495e-05
5.57845e-05
-6.69997e-05
3.68988e-05
-5.56011e-05
8.91098e-07
-3.75198e-05
-4.3619e-05
-1.83095e-05
-7.3315e-05
-2.20641e-06
-9.02169e-05
3.07856e-06
-9.34613e-05
8.86084e-06
-0.000105277
2.38858e-05
-0.000114336
4.0648e-05
-0.000112872
6.02729e-05
-9.43953e-05
7.91976e-05
-6.8359e-05
8.5249e-05
-4.82091e-05
8.11143e-05
7.4745e-05
-3.33308e-05
1.68109e-06
-0.000215083
6.56223e-07
-0.000200235
1.40361e-06
-0.00017922
2.56941e-06
-0.000145964
3.23843e-06
-0.00012632
3.53002e-06
-0.000108661
2.01843e-06
-9.03843e-05
-3.69969e-06
-7.24614e-05
-1.88352e-05
-5.4313e-05
-5.02572e-05
-3.55768e-05
-8.66417e-05
-1.92161e-05
-0.000115973
-8.18808e-06
-0.000126512
-7.76978e-06
-0.000126217
-2.50175e-06
-0.000127359
4.22114e-06
-0.000129867
1.1369e-05
-0.000128836
2.28545e-05
-0.000123968
3.57802e-05
-0.000112275
4.85802e-05
-9.26211e-05
5.95434e-05
-7.14711e-05
6.40992e-05
-5.40842e-05
6.37276e-05
6.1136e-05
-4.0475e-05
-7.04107e-06
-0.000208042
-1.71485e-05
-0.000190128
-2.90506e-05
-0.000167318
-3.8961e-05
-0.000136054
-4.89188e-05
-0.000116362
-6.08593e-05
-9.67202e-05
-7.64723e-05
-7.47708e-05
-9.71668e-05
-5.17662e-05
-0.00012043
-3.10486e-05
-0.00013957
-1.6437e-05
-0.000148497
-1.02879e-05
-0.000147775
-8.90976e-06
-0.000148509
-7.03642e-06
-0.000146846
-4.16365e-06
-0.000142426
-1.98913e-07
-0.000137203
6.14571e-06
-0.000129517
1.51693e-05
-0.000118768
2.50312e-05
-0.000104745
3.45572e-05
-8.78503e-05
4.26484e-05
-7.1201e-05
4.74501e-05
-5.69019e-05
4.94286e-05
4.92699e-05
-4.50357e-05
-1.47951e-05
-0.000193246
-3.24193e-05
-0.000172503
-5.50135e-05
-0.000144723
-7.50574e-05
-0.00011601
-9.50409e-05
-9.63786e-05
-0.000115502
-7.62591e-05
-0.0001345
-5.57723e-05
-0.000148708
-3.75576e-05
-0.000156122
-2.36339e-05
-0.000157541
-1.50179e-05
-0.000156684
-1.11439e-05
-0.000155302
-1.02913e-05
-0.000151651
-1.06872e-05
-0.000145755
-1.00593e-05
-0.000138431
-7.52322e-06
-0.000129842
-2.44315e-06
-0.000119762
5.09008e-06
-0.000108301
1.35695e-05
-9.56507e-05
2.19072e-05
-8.22163e-05
2.92142e-05
-6.93171e-05
3.4551e-05
-5.77608e-05
3.78725e-05
3.92593e-05
-4.77501e-05
-2.02061e-05
-0.00017304
-4.51517e-05
-0.000147558
-7.3031e-05
-0.000116844
-9.67519e-05
-9.22887e-05
-0.000118283
-7.48469e-05
-0.000136181
-5.83615e-05
-0.000149123
-4.28293e-05
-0.000156921
-2.976e-05
-0.000160002
-2.05525e-05
-0.000159292
-1.57272e-05
-0.000155566
-1.48698e-05
-0.000149656
-1.62009e-05
-0.000142376
-1.79674e-05
-0.000134137
-1.82976e-05
-0.000125529
-1.61316e-05
-0.000116639
-1.1333e-05
-0.000107188
-4.36092e-06
-9.72769e-05
3.65876e-06
-8.70011e-05
1.16315e-05
-7.65547e-05
1.87679e-05
-6.64801e-05
2.44765e-05
-5.71611e-05
2.85536e-05
3.08701e-05
-4.87718e-05
-2.34309e-05
-0.000149609
-5.17976e-05
-0.000119191
-7.85859e-05
-9.00556e-05
-0.000101814
-6.90609e-05
-0.000121484
-5.51762e-05
-0.000136682
-4.31635e-05
-0.000146867
-3.26448e-05
-0.000151973
-2.4653e-05
-0.000152526
-1.99994e-05
-0.000149279
-1.89739e-05
-0.000143247
-2.09017e-05
-0.000135312
-2.41362e-05
-0.000126582
-2.66967e-05
-0.000117945
-2.69343e-05
-0.000109883
-2.41942e-05
-0.000102355
-1.88599e-05
-9.48511e-05
-1.18651e-05
-8.70368e-05
-4.15538e-06
-7.90216e-05
3.61632e-06
-7.09163e-05
1.06627e-05
-6.29804e-05
1.65407e-05
-5.5444e-05
2.10172e-05
2.39438e-05
-4.85176e-05
-2.4725e-05
-0.000124884
-5.13327e-05
-9.25832e-05
-7.58638e-05
-6.55244e-05
-9.70912e-05
-4.78335e-05
-0.000114447
-3.78202e-05
-0.000127191
-3.04199e-05
-0.000135041
-2.47939e-05
-0.000138128
-2.15658e-05
-0.000136879
-2.12491e-05
-0.000132087
-2.37659e-05
-0.000124805
-2.81827e-05
-0.000116387
-3.25544e-05
-0.00010811
-3.49736e-05
-0.000100799
-3.42449e-05
-9.45541e-05
-3.04391e-05
-8.89147e-05
-2.44991e-05
-8.33685e-05
-1.74113e-05
-7.76264e-05
-9.89737e-06
-7.15323e-05
-2.47764e-06
-6.52613e-05
4.39173e-06
-5.89988e-05
1.02782e-05
-5.29183e-05
1.49369e-05
1.82052e-05
-4.71797e-05
-2.38924e-05
-0.000100992
-4.72426e-05
-6.92331e-05
-6.84651e-05
-4.4302e-05
-8.65393e-05
-2.97593e-05
-0.000101038
-2.33218e-05
-0.000111351
-2.01068e-05
-0.000117261
-1.8883e-05
-0.000118811
-2.00165e-05
-0.000116437
-2.36228e-05
-0.000110961
-2.9242e-05
-0.000103722
-3.54208e-05
-9.62543e-05
-4.00223e-05
-8.97918e-05
-4.1436e-05
-8.47117e-05
-3.9325e-05
-8.05929e-05
-3.45578e-05
-7.68095e-05
-2.82824e-05
-7.29694e-05
-2.12513e-05
-6.88682e-05
-1.39984e-05
-6.43945e-05
-6.95127e-06
-5.96153e-05
-3.8742e-07
-5.47007e-05
5.36363e-06
-4.98196e-05
1.00558e-05
1.35231e-05
-4.51375e-05
-2.19526e-05
-7.90395e-05
-4.18119e-05
-4.93739e-05
-5.90869e-05
-2.70271e-05
-7.34747e-05
-1.53717e-05
-8.49006e-05
-1.18959e-05
-9.28186e-05
-1.21888e-05
-9.70161e-05
-1.46855e-05
-9.74888e-05
-1.95437e-05
-9.46292e-05
-2.64824e-05
-8.93935e-05
-3.44776e-05
-8.32518e-05
-4.15625e-05
-7.77253e-05
-4.55487e-05
-7.36193e-05
-4.55419e-05
-7.07379e-05
-4.22063e-05
-6.83871e-05
-3.69085e-05
-6.60978e-05
-3.05717e-05
-6.36176e-05
-2.37314e-05
-6.08077e-05
-1.68083e-05
-5.76281e-05
-1.01308e-05
-5.40639e-05
-3.95155e-06
-5.02656e-05
1.56534e-06
-4.63836e-05
6.17396e-06
9.69857e-06
-4.25591e-05
-1.95776e-05
-5.9462e-05
-3.6242e-05
-3.27097e-05
-4.97476e-05
-1.35217e-05
-6.05737e-05
-4.54565e-06
-6.90206e-05
-3.449e-06
-7.46622e-05
-6.54726e-06
-7.73859e-05
-1.19618e-05
-7.71387e-05
-1.97909e-05
-7.43251e-05
-2.9296e-05
-6.99428e-05
-3.88598e-05
-6.54741e-05
-4.60312e-05
-6.21321e-05
-4.88906e-05
-6.01549e-05
-4.7519e-05
-5.89454e-05
-4.34157e-05
-5.79023e-05
-3.79515e-05
-5.67412e-05
-3.17327e-05
-5.531e-05
-2.51625e-05
-5.35072e-05
-1.8611e-05
-5.12896e-05
-1.23484e-05
-4.86987e-05
-6.54239e-06
-4.58196e-05
-1.31372e-06
-4.27601e-05
3.11435e-06
6.62861e-06
-3.96901e-05
-1.68883e-05
-4.25741e-05
-3.08489e-05
-1.87493e-05
-4.1312e-05
-3.05874e-06
-4.92147e-05
3.35684e-06
-5.51002e-05
2.43651e-06
-5.8857e-05
-2.79049e-06
-6.03224e-05
-1.04964e-05
-5.95269e-05
-2.05864e-05
-5.69123e-05
-3.19105e-05
-5.35564e-05
-4.22157e-05
-5.08017e-05
-4.87858e-05
-4.93841e-05
-5.03081e-05
-4.89906e-05
-4.79124e-05
-4.89366e-05
-4.34697e-05
-4.88497e-05
-3.80383e-05
-4.85567e-05
-3.20258e-05
-4.79279e-05
-2.57912e-05
-4.68988e-05
-1.96401e-05
-4.54553e-05
-1.37919e-05
-4.36147e-05
-8.38298e-06
-4.14487e-05
-3.4798e-06
-3.90904e-05
7.56206e-07
4.17948e-06
-3.66414e-05
-1.36555e-05
-2.89188e-05
-2.4719e-05
-7.68607e-06
-3.29173e-05
5.13939e-06
-3.91469e-05
9.58626e-06
-4.34037e-05
6.69323e-06
-4.57366e-05
-4.57639e-07
-4.61412e-05
-1.00919e-05
-4.48198e-05
-2.19079e-05
-4.24032e-05
-3.43271e-05
-4.00142e-05
-4.46046e-05
-3.88002e-05
-4.99998e-05
-3.88825e-05
-5.02258e-05
-3.95664e-05
-4.72285e-05
-4.03295e-05
-4.27065e-05
-4.09676e-05
-3.74002e-05
-4.13339e-05
-3.16594e-05
-4.13285e-05
-2.57966e-05
-4.0902e-05
-2.00666e-05
-4.00525e-05
-1.46413e-05
-3.88156e-05
-9.61993e-06
-3.72398e-05
-5.0555e-06
-3.54588e-05
-1.02491e-06
2.27361e-06
-3.3553e-05
-1.13135e-05
-1.76057e-05
-2.0265e-05
1.26516e-06
-2.69537e-05
1.18279e-05
-3.12451e-05
1.38775e-05
-3.38624e-05
9.31043e-06
-3.48917e-05
5.71624e-07
-3.43113e-05
-1.06723e-05
-3.25253e-05
-2.36938e-05
-3.02662e-05
-3.65862e-05
-2.88278e-05
-4.60431e-05
-2.89597e-05
-4.98679e-05
-3.01239e-05
-4.90617e-05
-3.15485e-05
-4.58039e-05
-3.2926e-05
-4.1329e-05
-3.41084e-05
-3.62178e-05
-3.49719e-05
-3.07958e-05
-3.54372e-05
-2.53314e-05
-3.54717e-05
-2.00321e-05
-3.5087e-05
-1.5026e-05
-3.43278e-05
-1.03791e-05
-3.32469e-05
-6.13649e-06
-3.19283e-05
-2.34337e-06
8.23543e-07
-3.04784e-05
-9.15358e-06
-8.45233e-06
-1.66171e-05
8.72848e-06
-2.15264e-05
1.6737e-05
-2.43548e-05
1.67058e-05
-2.56761e-05
1.06316e-05
-2.55546e-05
4.50131e-07
-2.41884e-05
-1.20386e-05
-2.19664e-05
-2.59159e-05
-1.99991e-05
-3.85536e-05
-1.96253e-05
-4.64169e-05
-2.08882e-05
-4.8605e-05
-2.27917e-05
-4.71581e-05
-2.47542e-05
-4.38414e-05
-2.65818e-05
-3.95014e-05
-2.81502e-05
-3.46494e-05
-2.93673e-05
-2.95787e-05
-3.01717e-05
-2.4527e-05
-3.05506e-05
-1.96531e-05
-3.05253e-05
-1.50513e-05
-3.01375e-05
-1.07669e-05
-2.94513e-05
-6.82266e-06
-2.85228e-05
-3.27209e-06
-2.29628e-07
-2.74696e-05
-7.22063e-06
-1.23196e-06
-1.30908e-05
1.45985e-05
-1.65606e-05
2.02066e-05
-1.82467e-05
1.83918e-05
-1.84885e-05
1.08733e-05
-1.73422e-05
-6.96239e-07
-1.51812e-05
-1.41998e-05
-1.26479e-05
-2.84492e-05
-1.1344e-05
-3.98574e-05
-1.21667e-05
-4.55943e-05
-1.42683e-05
-4.65034e-05
-1.6672e-05
-4.47545e-05
-1.90185e-05
-4.14949e-05
-2.11517e-05
-3.73682e-05
-2.29752e-05
-3.28258e-05
-2.4419e-05
-2.8135e-05
-2.54534e-05
-2.34925e-05
-2.60821e-05
-1.90245e-05
-2.63334e-05
-1.48001e-05
-2.62501e-05
-1.08503e-05
-2.58843e-05
-7.1885e-06
-2.52989e-05
-3.85738e-06
-9.60433e-07
-2.45682e-05
-5.42646e-06
4.1943e-06
-9.24704e-06
1.84189e-05
-1.17523e-05
2.27117e-05
-1.25559e-05
1.91954e-05
-1.18585e-05
1.01757e-05
-9.81182e-06
-2.74301e-06
-6.83248e-06
-1.71792e-05
-4.38747e-06
-3.08943e-05
-4.30274e-06
-3.99422e-05
-6.22138e-06
-4.36757e-05
-8.85222e-06
-4.38726e-05
-1.15777e-05
-4.2029e-05
-1.41702e-05
-3.89024e-05
-1.64859e-05
-3.50526e-05
-1.84522e-05
-3.08596e-05
-2.00292e-05
-2.6558e-05
-2.12101e-05
-2.23117e-05
-2.20174e-05
-1.82172e-05
-2.24817e-05
-1.43358e-05
-2.26416e-05
-1.06905e-05
-2.25387e-05
-7.29139e-06
-2.22295e-05
-4.16672e-06
-1.41553e-06
-2.17744e-05
-4.11706e-06
8.31117e-06
-5.34208e-06
1.96437e-05
-6.88964e-06
2.42591e-05
-6.93642e-06
1.9242e-05
-5.34173e-06
8.58092e-06
-2.39945e-06
-5.68538e-06
1.15303e-06
-2.07317e-05
2.51584e-06
-3.22572e-05
1.16029e-06
-3.85867e-05
-1.48997e-06
-4.10255e-05
-4.42028e-06
-4.09423e-05
-7.32518e-06
-3.91242e-05
-1.00418e-05
-3.61859e-05
-1.24445e-05
-3.26499e-05
-1.44741e-05
-2.883e-05
-1.61137e-05
-2.49183e-05
-1.73833e-05
-2.10422e-05
-1.83118e-05
-1.72888e-05
-1.89359e-05
-1.37116e-05
-1.92891e-05
-1.03373e-05
-1.94068e-05
-7.17369e-06
-1.93338e-05
-4.23975e-06
-1.63034e-06
-1.91191e-05
-2.22574e-06
1.05367e-05
-2.02759e-06
1.94454e-05
-2.2142e-06
2.44456e-05
-1.47795e-06
1.85057e-05
1.23525e-06
5.86762e-06
5.29965e-06
-9.74986e-06
7.7086e-06
-2.31408e-05
7.27005e-06
-3.18187e-05
5.12362e-06
-3.64403e-05
2.30603e-06
-3.8208e-05
-7.43475e-07
-3.78929e-05
-3.74764e-06
-3.61201e-05
-6.49925e-06
-3.34343e-05
-8.9103e-06
-3.02389e-05
-1.09465e-05
-2.67938e-05
-1.26056e-05
-2.32593e-05
-1.39169e-05
-1.97309e-05
-1.49248e-05
-1.6281e-05
-1.56677e-05
-1.29687e-05
-1.61745e-05
-9.83063e-06
-1.64704e-05
-6.87784e-06
-1.65896e-05
-4.12065e-06
-1.63667e-06
-1.65834e-05
4.27532e-08
1.04938e-05
6.39488e-07
1.88485e-05
1.84329e-06
2.32417e-05
4.08061e-06
1.62682e-05
8.26923e-06
1.67891e-06
1.16316e-05
-1.31123e-05
1.21015e-05
-2.36107e-05
1.06903e-05
-3.04075e-05
8.28628e-06
-3.40364e-05
5.35292e-06
-3.52747e-05
2.25274e-06
-3.47928e-05
-7.29979e-07
-3.31374e-05
-3.44354e-06
-3.07208e-05
-5.80807e-06
-2.78745e-05
-7.8019e-06
-2.48001e-05
-9.44308e-06
-2.16182e-05
-1.07688e-05
-1.84052e-05
-1.18233e-05
-1.52265e-05
-1.26496e-05
-1.21425e-05
-1.32757e-05
-9.20459e-06
-1.37196e-05
-6.434e-06
-1.40041e-05
-3.83606e-06
-1.45951e-06
-1.41814e-05
1.95816e-06
8.53557e-06
3.1846e-06
1.7622e-05
5.57617e-06
2.085e-05
9.80338e-06
1.20409e-05
1.36876e-05
-2.20541e-06
1.53507e-05
-1.47755e-05
1.503e-05
-2.329e-05
1.3266e-05
-2.86436e-05
1.06831e-05
-3.14535e-05
7.70909e-06
-3.23007e-05
4.66718e-06
-3.17509e-05
1.77809e-06
-3.02484e-05
-8.10114e-07
-2.81326e-05
-3.0661e-06
-2.56185e-05
-4.98014e-06
-2.28861e-05
-6.57823e-06
-2.00201e-05
-7.89547e-06
-1.7088e-05
-8.97598e-06
-1.4146e-05
-9.85695e-06
-1.12616e-05
-1.05733e-05
-8.48826e-06
-1.11384e-05
-5.86897e-06
-1.15633e-05
-3.41126e-06
-1.13807e-06
-1.18848e-05
2.93211e-06
5.60337e-06
5.40944e-06
1.51446e-05
8.97311e-06
1.72862e-05
1.39686e-05
7.04535e-06
1.71688e-05
-5.40561e-06
1.7864e-05
-1.54708e-05
1.69495e-05
-2.23756e-05
1.49353e-05
-2.66294e-05
1.22912e-05
-2.88095e-05
9.40653e-06
-2.94161e-05
6.54272e-06