/*--------------------------------*- C++ -*----------------------------------*\
| =========                 |                                                 |
| \\      /  F ield         | OpenFOAM: The Open Source CFD Toolbox           |
|  \\    /   O peration     | Version:  2312                                  |
|   \\  /    A nd           | Website:  www.openfoam.com                      |
|    \\/     M anipulation  |                                                 |
\*---------------------------------------------------------------------------*/
FoamFile
{
    version     2.0;
    format      ascii;
    arch        "LSB;label=32;scalar=64";
    class       volVectorField;
    location    "1.35";
    object      U;
}
// * * * * * * * * * * * * * * * * * * * * * * * * * * * * * * * * * * * * * //

dimensions      [0 1 -1 0 0 0 0];

internalField   nonuniform List<vector> 
2268
(
(0.020674 -0.0075544 0)
(0.0139416 0.000631497 0)
(0.0101755 -0.00033661 0)
(0.0153947 -0.00216203 0)
(0.029402 -0.00421535 0)
(0.0501842 -0.00556172 0)
(0.0749179 -0.00624146 0)
(0.101648 -0.00638439 0)
(0.128693 -0.00613684 0)
(0.154491 -0.00555083 0)
(0.17738 -0.00457598 0)
(0.195436 -0.00316381 0)
(0.206563 -0.00131301 0)
(0.208851 0.000964868 0)
(0.200948 0.00347797 0)
(0.182234 0.00596423 0)
(0.153782 0.00789592 0)
(0.119394 0.00849026 0)
(0.0851039 0.00766166 0)
(0.0560441 0.00591778 0)
(0.0352471 0.00423967 0)
(0.0190931 0.00241898 0)
(0.0118558 0.00481938 0)
(0.00712909 -0.0106769 0)
(0.00309236 0.00448823 0)
(-7.54311e-05 -4.02879e-05 0)
(0.00766478 -0.00614932 0)
(0.0233482 -0.0122942 0)
(0.0455747 -0.0163827 0)
(0.0713982 -0.0185902 0)
(0.0989652 -0.0193557 0)
(0.126692 -0.019019 0)
(0.153125 -0.0176228 0)
(0.176639 -0.0149599 0)
(0.195259 -0.0108183 0)
(0.20682 -0.00520094 0)
(0.209321 0.00161388 0)
(0.201349 0.00918488 0)
(0.182183 0.0167784 0)
(0.152686 0.0228543 0)
(0.11683 0.0252225 0)
(0.0812238 0.023371 0)
(0.0514248 0.0184791 0)
(0.0302395 0.0133759 0)
(0.0150975 0.00849918 0)
(0.00575351 0.00964754 0)
(-0.0102246 -0.0106435 0)
(-0.0147004 0.00651735 0)
(-0.0187224 -0.00152363 0)
(-0.00856371 -0.0117178 0)
(0.0101199 -0.0214179 0)
(0.0350009 -0.027973 0)
(0.06295 -0.031349 0)
(0.0922094 -0.0324171 0)
(0.121377 -0.0317319 0)
(0.149195 -0.0293542 0)
(0.174117 -0.0249421 0)
(0.194077 -0.0181123 0)
(0.206691 -0.00886755 0)
(0.209863 0.00233446 0)
(0.202144 0.01489 0)
(0.182424 0.0277112 0)
(0.151202 0.0382151 0)
(0.112818 0.0422831 0)
(0.0750415 0.0387658 0)
(0.0445614 0.0301779 0)
(0.0241529 0.0214298 0)
(0.0115709 0.0140503 0)
(0.00303118 0.0152475 0)
(-0.0286486 -0.00237872 0)
(-0.0390547 0.00814408 0)
(-0.0442595 -0.00304638 0)
(-0.0306406 -0.0188345 0)
(-0.00768623 -0.0324517 0)
(0.0208611 -0.0413433 0)
(0.0514032 -0.0455562 0)
(0.082695 -0.0467607 0)
(0.113633 -0.04571 0)
(0.143268 -0.0423714 0)
(0.170216 -0.0360861 0)
(0.192331 -0.0261463 0)
(0.206989 -0.0126285 0)
(0.211826 0.00385436 0)
(0.205125 0.0223178 0)
(0.185292 0.0415762 0)
(0.152088 0.0576447 0)
(0.110392 0.0641175 0)
(0.0700583 0.0583763 0)
(0.0394843 0.0442944 0)
(0.0207738 0.0292412 0)
(0.0107759 0.017285 0)
(0.00166911 0.0135306 0)
(-0.0479448 0.0227665 0)
(-0.0614622 0.0214469 0)
(-0.0635162 -0.00447061 0)
(-0.0460808 -0.0300361 0)
(-0.0196549 -0.0473911 0)
(0.0121483 -0.0570566 0)
(0.0444276 -0.0610743 0)
(0.0769761 -0.0618336 0)
(0.109031 -0.0602205 0)
(0.140083 -0.0560565 0)
(0.168995 -0.048208 0)
(0.193408 -0.035594 0)
(0.210389 -0.0183351 0)
(0.217411 0.00293513 0)
(0.212349 0.0267815 0)
(0.192669 0.0517142 0)
(0.157535 0.0715705 0)
(0.112552 0.0759026 0)
(0.0711825 0.0621794 0)
(0.0420562 0.0421437 0)
(0.0233721 0.0259256 0)
(0.00779142 0.016379 0)
(-0.0031411 0.0183933 0)
(-0.0535148 0.0383574 0)
(-0.063961 0.0102479 0)
(-0.06419 -0.0218387 0)
(-0.0421201 -0.0494051 0)
(-0.0132719 -0.0672914 0)
(0.0186597 -0.0759604 0)
(0.0506473 -0.0789349 0)
(0.08276 -0.0785471 0)
(0.114666 -0.075908 0)
(0.146375 -0.0709084 0)
(0.176906 -0.0616725 0)
(0.203829 -0.0461777 0)
(0.22393 -0.0246316 0)
(0.23446 0.00155646 0)
(0.233459 0.0314574 0)
(0.218051 0.0642205 0)
(0.188652 0.0893585 0)
(0.154195 0.0960003 0)
(0.129557 0.0866456 0)
(0.118951 0.0708756 0)
(0.103542 0.0567106 0)
(0.0389255 0.0415921 0)
(0.00727827 0.0138017 0)
(-0.0276783 0.0648563 0)
(0.0106784 0.0355605 0)
(0.00760509 -0.0108425 0)
(0.0092533 -0.0489297 0)
(0.0191268 -0.074794 0)
(0.0405037 -0.0880245 0)
(0.069857 -0.0931446 0)
(0.102015 -0.0933082 0)
(0.13283 -0.0904209 0)
(0.164677 -0.0849003 0)
(0.196727 -0.0750794 0)
(0.226614 -0.0585276 0)
(0.250609 -0.0339292 0)
(0.265325 -0.00138603 0)
(0.270098 0.0380976 0)
(0.264936 0.0737219 0)
(0.254135 0.103323 0)
(0.250324 0.121887 0)
(0.255901 0.101007 0)
(0.25782 0.0747588 0)
(0.259391 0.0641265 0)
(0.221872 0.066718 0)
(0.188896 0.0595119 0)
(0.0211679 0.068761 0)
(0.173875 0.00994817 0)
(0.243305 -0.0182124 0)
(0.246782 -0.0430732 0)
(0.224752 -0.0676854 0)
(0.195436 -0.0858878 0)
(0.168891 -0.0957922 0)
(0.151499 -0.100822 0)
(0.157888 -0.103065 0)
(0.184153 -0.0987299 0)
(0.217209 -0.0870286 0)
(0.249977 -0.0650989 0)
(0.278433 -0.0365981 0)
(0.300034 -0.0060256 0)
(0.311317 0.030159 0)
(0.313819 0.0735213 0)
(0.313211 0.117019 0)
(0.321135 0.113296 0)
(0.350767 0.0798315 0)
(0.37187 0.0614362 0)
(0.375257 0.0649375 0)
(0.337026 0.0993071 0)
(0.265687 0.213714 0)
(0.0236021 -0.0137324 0)
(-0.0516024 0.0327281 0)
(-0.259701 0.0228093 0)
(-0.259808 -0.00312897 0)
(-0.220607 -0.0100489 0)
(-0.219384 -0.0188521 0)
(-0.218772 -0.0230928 0)
(-0.180468 -0.0193808 0)
(-0.128445 -0.0170548 0)
(-0.0906519 -0.0133483 0)
(-0.0699587 -0.00373716 0)
(-0.084087 0.000419448 0)
(-0.109087 -0.00173496 0)
(-0.109772 -0.00630141 0)
(-0.0981549 -0.00716961 0)
(-0.0789431 -0.00745492 0)
(-0.0551802 -0.00439797 0)
(-0.0605855 -0.00746108 0)
(0.0363999 0.00660568 0)
(-0.0757764 0.0178246 0)
(-0.103218 0.0876489 0)
(-0.159426 0.0601096 0)
(-0.0219964 -0.0362668 0)
(0.12579 -0.0112714 0)
(0.15345 0.0170513 0)
(0.04432 0.0234831 0)
(-0.073764 -0.0270931 0)
(-0.045184 -0.0298658 0)
(-0.0679085 -0.01857 0)
(-0.0711092 0.00234812 0)
(-0.100953 0.0181638 0)
(-0.138045 0.0154813 0)
(-0.16016 2.15094e-05 0)
(-0.160363 -0.0100543 0)
(-0.148517 -0.0085415 0)
(-0.133831 -0.00679211 0)
(-0.111521 -0.0228879 0)
(-0.0189912 -0.0159836 0)
(-0.156402 0.0663511 0)
(-0.171698 0.108801 0)
(-0.139447 0.0135403 0)
(0.0155186 -0.121835 0)
(0.106417 -0.0569368 0)
(0.14275 0.00455266 0)
(0.178606 0.045783 0)
(0.2457 0.0202543 0)
(0.176483 0.00366557 0)
(0.0274169 -0.0024432 0)
(-0.0440894 0.0173523 0)
(-0.113927 0.0306936 0)
(-0.179462 0.0286322 0)
(-0.223101 0.00380699 0)
(-0.229303 -0.0134578 0)
(-0.207803 -0.0189696 0)
(-0.168286 -0.030068 0)
(-0.115992 -0.054691 0)
(-0.0498992 -0.0639338 0)
(-0.1976 0.14038 0)
(-0.207544 0.0964341 0)
(-0.122988 -0.0514563 0)
(0.0358595 -0.163879 0)
(0.0908704 -0.0617409 0)
(0.0756823 -0.0144196 0)
(0.110239 -0.00221474 0)
(0.144079 -0.00442244 0)
(0.173666 0.040361 0)
(0.097256 0.0488922 0)
(-0.00565893 0.0527847 0)
(-0.106174 0.0777553 0)
(-0.175693 0.0511983 0)
(-0.204617 0.0157151 0)
(-0.208244 -0.0180813 0)
(-0.177487 -0.0356329 0)
(-0.124858 -0.0493787 0)
(-0.071331 -0.0700094 0)
(-0.0336839 -0.0889209 0)
(-0.194098 0.207277 0)
(-0.191229 0.0872674 0)
(-0.0461409 -0.113386 0)
(0.0787534 -0.204492 0)
(0.139734 -0.0741772 0)
(0.153781 0.00453085 0)
(0.0878954 -0.00973844 0)
(0.0961237 -0.0124625 0)
(0.113702 0.0490352 0)
(0.0475582 0.0763669 0)
(-0.05331 0.116963 0)
(-0.048063 0.110131 0)
(-0.013703 0.0789592 0)
(-0.0175574 0.0201957 0)
(0.00115846 -0.0262691 0)
(0.00199549 -0.0619936 0)
(0.0660545 -0.0724953 0)
(0.0478452 -0.0727061 0)
(0.0425692 -0.0880834 0)
(-0.15841 0.270069 0)
(-0.14452 0.0704453 0)
(0.0387868 -0.189252 0)
(0.122565 -0.237246 0)
(0.188671 -0.0982092 0)
(0.269941 -0.00926813 0)
(0.324334 0.0270405 0)
(0.0834949 0.0168544 0)
(0.00460053 0.0644344 0)
(-0.0135579 0.112048 0)
(-0.0640957 0.114314 0)
(-0.028291 0.0689281 0)
(0.0535791 0.0418339 0)
(0.108367 0.00409696 0)
(0.144455 -0.0261595 0)
(0.133742 -0.0541476 0)
(0.139832 -0.0711081 0)
(0.095934 -0.062099 0)
(0.0633518 -0.0592243 0)
(-0.0926179 0.322376 0)
(-0.0354388 0.0591132 0)
(0.112682 -0.245054 0)
(0.156752 -0.282015 0)
(0.238864 -0.120309 0)
(0.240438 -0.0512202 0)
(0.306422 0.0758084 0)
(0.0909191 0.0904821 0)
(-0.0300069 0.0839019 0)
(-0.0406167 0.115206 0)
(-0.0375508 0.105659 0)
(0.0279108 0.0408843 0)
(0.0885725 0.0145504 0)
(0.109493 -0.0131104 0)
(0.13691 -0.032016 0)
(0.144473 -0.0501216 0)
(0.153273 -0.0657638 0)
(0.112378 -0.0384684 0)
(0.0683724 -0.0235207 0)
(0.0250541 0.322008 0)
(0.210521 6.03899e-05 0)
(0.203507 -0.247328 0)
(0.196062 -0.304004 0)
(0.261664 -0.167409 0)
(0.33331 -0.0413815 0)
(0.35199 0.132611 0)
(0.185997 0.158007 0)
(0.0375964 0.116141 0)
(-0.015311 0.103225 0)
(0.0113868 0.0723262 0)
(0.104159 0.00939163 0)
(0.130431 0.00242173 0)
(0.142687 -0.0128441 0)
(0.146156 -0.0451011 0)
(0.148951 -0.0580338 0)
(0.138184 -0.0601786 0)
(0.103351 -0.0209242 0)
(0.0775315 0.0149144 0)
(0.175146 -0.119312 0)
(0.323815 -0.0723244 0)
(0.407129 -0.0279613 0)
(0.404507 -0.0267831 0)
(0.367776 -0.0510313 0)
(0.329859 -0.0702925 0)
(0.293454 -0.0787453 0)
(0.258634 -0.087965 0)
(0.22885 -0.104502 0)
(0.212623 -0.121008 0)
(0.218772 -0.129179 0)
(0.242609 -0.119969 0)
(0.266791 -0.0899808 0)
(0.285521 -0.0437941 0)
(0.30104 0.0142922 0)
(0.326847 0.0709029 0)
(0.368574 0.0860377 0)
(0.41756 0.0775539 0)
(0.456032 0.0621951 0)
(0.477306 0.0531689 0)
(0.492052 0.0622418 0)
(0.521308 0.101188 0)
(0.570476 0.210467 0)
(0.141929 -0.410924 0)
(0.318645 -0.246901 0)
(0.461626 -0.10706 0)
(0.552779 -0.0133557 0)
(0.576561 0.0147663 0)
(0.534771 -0.00570451 0)
(0.461775 -0.0219063 0)
(0.362203 -0.0404684 0)
(0.260994 -0.0602624 0)
(0.184085 -0.0804969 0)
(0.144318 -0.0990451 0)
(0.139295 -0.095495 0)
(0.161481 -0.0668584 0)
(0.210159 -0.0327785 0)
(0.282305 -0.00234495 0)
(0.364136 0.020268 0)
(0.441237 0.0343021 0)
(0.504291 0.0376102 0)
(0.549567 0.0346479 0)
(0.579719 0.03469 0)
(0.600387 0.0441814 0)
(0.61795 0.0663631 0)
(0.641159 0.097038 0)
(0.0863079 -0.604099 0)
(0.245704 -0.403371 0)
(0.36083 -0.232393 0)
(0.456342 -0.139834 0)
(0.579001 -0.0699711 0)
(0.692282 0.0180335 0)
(0.719735 0.0972618 0)
(0.64039 0.121567 0)
(0.480009 0.083007 0)
(0.28452 -0.00711434 0)
(0.180885 -0.0903921 0)
(0.16405 -0.13358 0)
(0.188903 -0.143512 0)
(0.247045 -0.146937 0)
(0.330317 -0.132363 0)
(0.421072 -0.0958322 0)
(0.50097 -0.0587283 0)
(0.561505 -0.0304794 0)
(0.60258 -0.0109478 0)
(0.627395 0.00480902 0)
(0.639184 0.0235014 0)
(0.642697 0.0503477 0)
(0.646527 0.0864434 0)
(0.0441291 -0.753773 0)
(0.178788 -0.527344 0)
(0.273933 -0.295966 0)
(0.316527 -0.237118 0)
(0.416906 -0.234552 0)
(0.574427 -0.137681 0)
(0.718434 0.0243453 0)
(0.753585 0.162109 0)
(0.661864 0.263284 0)
(0.482458 0.227388 0)
(0.298817 0.0252317 0)
(0.22445 -0.113242 0)
(0.217557 -0.163663 0)
(0.26696 -0.207317 0)
(0.336875 -0.20954 0)
(0.407934 -0.166621 0)
(0.470095 -0.115118 0)
(0.516129 -0.0711062 0)
(0.54486 -0.0361031 0)
(0.555488 -0.00549757 0)
(0.552809 0.0248759 0)
(0.546928 0.0561765 0)
(0.545657 0.0925291 0)
(0.00189953 -0.829223 0)
(0.0736277 -0.628599 0)
(0.163259 -0.294807 0)
(0.193374 -0.289699 0)
(0.275606 -0.367197 0)
(0.387727 -0.289439 0)
(0.54544 -0.0879703 0)
(0.654198 0.223055 0)
(0.601822 0.366988 0)
(0.510296 0.368074 0)
(0.424623 0.173453 0)
(0.350712 -0.0412039 0)
(0.299776 -0.165267 0)
(0.315053 -0.266624 0)
(0.341752 -0.26942 0)
(0.369774 -0.220345 0)
(0.394225 -0.158211 0)
(0.408554 -0.0991868 0)
(0.412372 -0.045277 0)
(0.406899 0.000315111 0)
(0.399802 0.0356813 0)
(0.394141 0.0617714 0)
(0.39996 0.0924215 0)
(-0.026094 -0.828537 0)
(-0.0301561 -0.691286 0)
(0.0508512 -0.313619 0)
(0.0933994 -0.393622 0)
(0.147774 -0.461955 0)
(0.201024 -0.39465 0)
(0.292867 -0.188874 0)
(0.406984 0.176163 0)
(0.452276 0.358351 0)
(0.464513 0.386377 0)
(0.447365 0.201181 0)
(0.391396 0.0257329 0)
(0.344624 -0.137104 0)
(0.320444 -0.248336 0)
(0.30175 -0.259593 0)
(0.285303 -0.212361 0)
(0.273279 -0.148292 0)
(0.263568 -0.0901171 0)
(0.26252 -0.0348099 0)
(0.260917 0.00912482 0)
(0.262359 0.0386495 0)
(0.264992 0.0576094 0)
(0.280181 0.0841036 0)
(-0.0381683 -0.78511 0)
(-0.0719094 -0.699323 0)
(-0.00865023 -0.38701 0)
(0.0456458 -0.439187 0)
(0.0442179 -0.484518 0)
(0.0425259 -0.434459 0)
(0.0871611 -0.225243 0)
(0.196147 0.0909466 0)
(0.320688 0.275883 0)
(0.426685 0.369455 0)
(0.435426 0.286892 0)
(0.365571 0.0745481 0)
(0.323878 -0.113217 0)
(0.281856 -0.204834 0)
(0.228712 -0.21817 0)
(0.18609 -0.178035 0)
(0.162021 -0.125841 0)
(0.150939 -0.0814465 0)
(0.159477 -0.0280001 0)
(0.166607 0.00875937 0)
(0.180095 0.033693 0)
(0.193333 0.0499243 0)
(0.21623 0.0710306 0)
(-0.0386465 -0.73388 0)
(-0.073073 -0.685019 0)
(-0.0169792 -0.478448 0)
(0.0281364 -0.432613 0)
(-0.0225911 -0.459912 0)
(-0.0539313 -0.413584 0)
(-0.0796476 -0.300601 0)
(0.0382418 -0.0472643 0)
(0.173256 0.0940781 0)
(0.310395 0.256481 0)
(0.371913 0.284014 0)
(0.342342 0.0959312 0)
(0.313083 -0.0714557 0)
(0.260755 -0.142491 0)
(0.183855 -0.154401 0)
(0.135745 -0.138061 0)
(0.114326 -0.112561 0)
(0.105489 -0.0892316 0)
(0.114344 -0.0445497 0)
(0.126427 -0.0162069 0)
(0.149394 0.00602692 0)
(0.171634 0.018765 0)
(0.20689 0.0273372 0)
(-0.0324524 -0.689077 0)
(-0.0496221 -0.679652 0)
(-0.0113768 -0.534739 0)
(0.0324649 -0.415203 0)
(-0.0119739 -0.425301 0)
(-0.0381451 -0.388628 0)
(-0.0529501 -0.307901 0)
(-0.00490041 -0.176995 0)
(0.0951227 -0.0328529 0)
(0.226259 0.168717 0)
(0.312656 0.260001 0)
(0.300538 0.101041 0)
(0.275974 -0.0394453 0)
(0.266439 -0.0902172 0)
(0.214752 -0.114484 0)
(0.157623 -0.119316 0)
(0.119428 -0.110465 0)
(0.0863476 -0.0939337 0)
(0.0760701 -0.0595351 0)
(0.0810633 -0.0394817 0)
(0.0985724 -0.0240523 0)
(0.123549 -0.0155734 0)
(0.170783 -0.0126891 0)
(-0.0204658 -0.659806 0)
(-0.0182696 -0.68198 0)
(-0.000756063 -0.585886 0)
(0.0559683 -0.41932 0)
(0.0518312 -0.399396 0)
(0.0372399 -0.374451 0)
(0.0265139 -0.319302 0)
(0.0364262 -0.224124 0)
(0.0602301 -0.13476 0)
(0.172108 0.0781098 0)
(0.278028 0.203532 0)
(0.305274 0.1069 0)
(0.288227 -0.0166138 0)
(0.237201 -0.0637204 0)
(0.165203 -0.0689641 0)
(0.0949063 -0.0663995 0)
(0.0480695 -0.0568644 0)
(0.0276738 -0.0492006 0)
(0.0234452 -0.0294147 0)
(0.029209 -0.0193051 0)
(0.0552574 -0.021703 0)
(0.112461 -0.0293754 0)
(0.192693 -0.0546944 0)
(-0.00373699 -0.657042 0)
(0.0168649 -0.691868 0)
(0.0211098 -0.628161 0)
(0.0791282 -0.469267 0)
(0.121302 -0.402887 0)
(0.135271 -0.358765 0)
(0.138329 -0.300198 0)
(0.127516 -0.21611 0)
(0.109566 -0.151931 0)
(0.111204 -0.0245503 0)
(0.216544 0.116757 0)
(0.247124 0.0996793 0)
(0.21941 0.0645165 0)
(0.164215 0.0531847 0)
(0.133226 0.050739 0)
(0.163241 0.0240301 0)
(0.272453 -0.0305516 0)
(0.361148 -0.0457298 0)
(0.387451 -0.00766686 0)
(0.399109 -0.0655344 0)
(0.324465 -0.130759 0)
(0.453262 -0.167014 0)
(0.535602 -0.197944 0)
(0.0179029 -0.680286 0)
(0.0531704 -0.702919 0)
(0.0571906 -0.654894 0)
(0.105156 -0.54044 0)
(0.165691 -0.456133 0)
(0.214308 -0.388649 0)
(0.249652 -0.312379 0)
(0.271539 -0.207927 0)
(0.275341 -0.103205 0)
(0.271007 -0.0169459 0)
(0.311636 0.0549767 0)
(0.380846 0.0645707 0)
(0.488052 0.0290085 0)
(0.609617 -0.0243958 0)
(0.759969 -0.0929528 0)
(0.938564 -0.177658 0)
(1.11724 -0.262611 0)
(1.26909 -0.315211 0)
(1.4045 -0.300632 0)
(2.1707 0.205066 0)
(2.06118 0.0437882 0)
(0.669675 -0.0473111 0)
(0.785451 -0.000859374 0)
(0.0364263 -0.732443 0)
(0.083271 -0.738724 0)
(0.0975043 -0.688855 0)
(0.134118 -0.600833 0)
(0.188949 -0.519469 0)
(0.24576 -0.448682 0)
(0.300664 -0.374224 0)
(0.370737 -0.295665 0)
(0.462132 -0.203839 0)
(0.582617 -0.0974511 0)
(0.702746 -0.019234 0)
(0.810721 -0.0276498 0)
(0.907227 -0.0901335 0)
(0.990729 -0.166502 0)
(1.06176 -0.240139 0)
(1.13257 -0.313081 0)
(1.20303 -0.370921 0)
(1.26316 -0.406142 0)
(1.29908 -0.431128 0)
(1.46406 -0.14836 0)
(1.1145 0.561768 0)
(0.611789 0.656393 0)
(0.410541 0.38368 0)
(0.051099 -0.786728 0)
(0.110832 -0.751408 0)
(0.123718 -0.699527 0)
(0.155873 -0.634227 0)
(0.208755 -0.563854 0)
(0.260967 -0.493984 0)
(0.305442 -0.424679 0)
(0.351924 -0.361167 0)
(0.4178 -0.30017 0)
(0.512152 -0.240176 0)
(0.628573 -0.199703 0)
(0.80542 -0.194675 0)
(0.961437 -0.222647 0)
(1.05137 -0.23462 0)
(1.09236 -0.27759 0)
(1.13357 -0.324513 0)
(1.19886 -0.391134 0)
(1.25105 -0.459433 0)
(1.06816 -0.580914 0)
(0.487699 0.481105 0)
(0.11111 0.91648 0)
(0.236536 0.750219 0)
(0.1121 0.543139 0)
(0.0745953 -0.910372 0)
(0.195499 -0.822143 0)
(0.306308 -0.717093 0)
(0.367792 -0.6541 0)
(0.35879 -0.59408 0)
(0.33822 -0.506733 0)
(0.292819 -0.443029 0)
(0.329976 -0.393567 0)
(0.391066 -0.34843 0)
(0.472756 -0.31518 0)
(0.577754 -0.299764 0)
(0.70157 -0.303011 0)
(0.833382 -0.314636 0)
(0.941682 -0.293603 0)
(1.03672 -0.303552 0)
(0.955971 -0.425352 0)
(0.59007 -0.500618 0)
(0.143238 -0.211751 0)
(-0.142993 0.246665 0)
(-0.352432 0.656225 0)
(-0.19495 0.929822 0)
(-0.0979868 0.713307 0)
(-0.056986 0.579875 0)
(0.0642031 -1.04293 0)
(0.170004 -0.965191 0)
(0.275287 -0.835716 0)
(0.369972 -0.685068 0)
(0.419186 -0.585291 0)
(0.473123 -0.49507 0)
(0.520273 -0.422074 0)
(0.531014 -0.422417 0)
(0.519235 -0.403739 0)
(0.533272 -0.375629 0)
(0.575165 -0.378622 0)
(0.607797 -0.397009 0)
(0.555517 -0.500567 0)
(0.451891 -0.336892 0)
(0.282108 -0.22987 0)
(0.0510594 -0.0270899 0)
(-0.194147 0.0817339 0)
(-0.334207 0.143281 0)
(-0.479112 0.294104 0)
(-0.510839 0.624049 0)
(-0.383059 0.705705 0)
(-0.251589 0.617336 0)
(-0.1587 0.528902 0)
(0.0363646 -1.14293 0)
(0.079409 -1.07879 0)
(0.1292 -0.956127 0)
(0.224646 -0.768619 0)
(0.255431 -0.661284 0)
(0.299899 -0.564635 0)
(0.337137 -0.478503 0)
(0.36433 -0.423669 0)
(0.358798 -0.40945 0)
(0.338514 -0.437958 0)
(0.23734 -0.448564 0)
(0.199683 -0.439987 0)
(-0.173063 -0.203516 0)
(-0.344546 0.0151522 0)
(-0.455713 0.0613594 0)
(-0.496373 0.0575734 0)
(-0.544022 0.0982746 0)
(-0.592139 0.212677 0)
(-0.610083 0.353555 0)
(-0.557724 0.481361 0)
(-0.434426 0.530168 0)
(-0.3108 0.498939 0)
(-0.218901 0.447988 0)
(0.0110849 -1.17384 0)
(0.00453856 -1.10456 0)
(-0.0106862 -0.990213 0)
(0.0279948 -0.813012 0)
(0.0115408 -0.714623 0)
(0.0167209 -0.630305 0)
(0.0142523 -0.547553 0)
(0.00548906 -0.475561 0)
(-0.0526018 -0.413686 0)
(-0.142978 -0.354769 0)
(-0.376433 -0.190926 0)
(-0.584596 -0.0290865 0)
(-0.655693 -0.0424495 0)
(-0.682378 -0.0320877 0)
(-0.691429 0.00902423 0)
(-0.701576 0.0769435 0)
(-0.698497 0.148797 0)
(-0.679193 0.222095 0)
(-0.633435 0.298402 0)
(-0.548132 0.370895 0)
(-0.436857 0.400256 0)
(-0.334125 0.391052 0)
(-0.254187 0.367706 0)
(-0.0195239 -1.15084 0)
(-0.0672368 -1.06377 0)
(-0.129211 -0.941662 0)
(-0.175164 -0.77563 0)
(-0.237557 -0.671792 0)
(-0.295623 -0.570963 0)
(-0.365643 -0.456967 0)
(-0.453476 -0.324269 0)
(-0.584077 -0.171151 0)
(-0.720635 -0.0553313 0)
(-0.783043 -0.0360903 0)
(-0.790396 -0.0470778 0)
(-0.799838 -0.0320323 0)
(-0.797464 -0.00726261 0)
(-0.782705 0.0164395 0)
(-0.756693 0.0523153 0)
(-0.71893 0.106063 0)
(-0.666438 0.16411 0)
(-0.597756 0.221982 0)
(-0.513834 0.271825 0)
(-0.423376 0.297709 0)
(-0.341207 0.303865 0)
(-0.275033 0.297549 0)
(-0.0418837 -1.08724 0)
(-0.128872 -0.975162 0)
(-0.230266 -0.851303 0)
(-0.349927 -0.680325 0)
(-0.457313 -0.569449 0)
(-0.567088 -0.45256 0)
(-0.677188 -0.327289 0)
(-0.7704 -0.216979 0)
(-0.8258 -0.142901 0)
(-0.844565 -0.0971354 0)
(-0.845497 -0.0626112 0)
(-0.839829 -0.0454466 0)
(-0.826258 -0.0396682 0)
(-0.801235 -0.0323123 0)
(-0.766084 -0.0165138 0)
(-0.72266 0.0107212 0)
(-0.670971 0.0518239 0)
(-0.611167 0.0993891 0)
(-0.545127 0.147213 0)
(-0.474683 0.189379 0)
(-0.404115 0.218248 0)
(-0.338885 0.233938 0)
(-0.28493 0.238132 0)
(-0.0601335 -0.99112 0)
(-0.17084 -0.874719 0)
(-0.317295 -0.703634 0)
(-0.459244 -0.557865 0)
(-0.582892 -0.45558 0)
(-0.690485 -0.356618 0)
(-0.773992 -0.261521 0)
(-0.828777 -0.177282 0)
(-0.85651 -0.112131 0)
(-0.861019 -0.0744629 0)
(-0.847648 -0.0629161 0)
(-0.82126 -0.0668691 0)
(-0.785197 -0.0735571 0)
(-0.743069 -0.0742337 0)
(-0.69748 -0.0637563 0)
(-0.650108 -0.0391118 0)
(-0.600691 -0.00201035 0)
(-0.547631 0.0411908 0)
(-0.492871 0.0855768 0)
(-0.437159 0.125673 0)
(-0.382029 0.156764 0)
(-0.330121 0.177749 0)
(-0.28654 0.18831 0)
(-0.0713959 -0.871575 0)
(-0.197212 -0.716879 0)
(-0.352881 -0.554963 0)
(-0.489902 -0.432231 0)
(-0.606778 -0.347602 0)
(-0.700854 -0.270376 0)
(-0.769145 -0.20008 0)
(-0.809258 -0.144115 0)
(-0.822934 -0.107617 0)
(-0.814206 -0.0918957 0)
(-0.787889 -0.0944177 0)
(-0.748858 -0.107416 0)
(-0.702703 -0.120507 0)
(-0.655245 -0.123798 0)
(-0.610346 -0.112153 0)
(-0.568654 -0.085646 0)
(-0.528544 -0.0483999 0)
(-0.487698 -0.00565805 0)
(-0.444686 0.0373185 0)
(-0.401266 0.0765101 0)
(-0.35809 0.108655 0)
(-0.316554 0.13236 0)
(-0.281193 0.146962 0)
(-0.0793103 -0.739938 0)
(-0.199834 -0.568494 0)
(-0.345713 -0.4171 0)
(-0.470574 -0.312628 0)
(-0.575649 -0.248547 0)
(-0.656489 -0.196653 0)
(-0.711635 -0.153644 0)
(-0.740016 -0.123663 0)
(-0.743583 -0.110509 0)
(-0.72584 -0.114844 0)
(-0.69144 -0.132515 0)
(-0.647135 -0.154241 0)
(-0.600696 -0.169078 0)
(-0.558483 -0.168909 0)
(-0.522672 -0.151873 0)
(-0.491425 -0.121454 0)
(-0.461715 -0.0831899 0)
(-0.431701 -0.0416032 0)
(-0.400183 0.0002207 0)
(-0.366529 0.0383822 0)
(-0.332612 0.0707111 0)
(-0.299444 0.0958358 0)
(-0.27097 0.112873 0)
(-0.0812558 -0.608191 0)
(-0.187734 -0.434512 0)
(-0.315864 -0.293831 0)
(-0.422276 -0.207109 0)
(-0.510945 -0.163344 0)
(-0.577434 -0.13529 0)
(-0.6208 -0.117385 0)
(-0.640017 -0.112203 0)
(-0.636495 -0.121606 0)
(-0.613444 -0.144272 0)
(-0.576726 -0.173702 0)
(-0.534912 -0.199167 0)
(-0.496458 -0.210378 0)
(-0.465984 -0.202866 0)
(-0.442358 -0.179428 0)
(-0.421823 -0.146054 0)
(-0.401614 -0.107654 0)
(-0.380455 -0.067428 0)
(-0.35768 -0.0278822 0)
(-0.332807 0.00906732 0)
(-0.306249 0.0409051 0)
(-0.279907 0.0664676 0)
(-0.256978 0.0849254 0)
(-0.0786936 -0.484132 0)
(-0.169985 -0.318205 0)
(-0.277097 -0.189821 0)
(-0.361556 -0.119112 0)
(-0.431703 -0.0930238 0)
(-0.483418 -0.0859705 0)
(-0.515897 -0.0901729 0)
(-0.52784 -0.107087 0)
(-0.51997 -0.136433 0)
(-0.495715 -0.174071 0)
(-0.462273 -0.210762 0)
(-0.429076 -0.234873 0)
(-0.403232 -0.238868 0)
(-0.385722 -0.223642 0)
(-0.37267 -0.195907 0)
(-0.360595 -0.161594 0)
(-0.34796 -0.123944 0)
(-0.333904 -0.0854378 0)
(-0.317952 -0.0480736 0)
(-0.300038 -0.013245 0)
(-0.279794 0.0176036 0)
(-0.259009 0.0429634 0)
(-0.24078 0.0620331 0)
(-0.0731165 -0.371671 0)
(-0.150808 -0.219326 0)
(-0.238349 -0.107342 0)
(-0.30151 -0.0515186 0)
(-0.353271 -0.0394587 0)
(-0.390859 -0.0490474 0)
(-0.413617 -0.0711509 0)
(-0.419749 -0.106269 0)
(-0.409744 -0.151733 0)
(-0.387496 -0.200054 0)
(-0.360974 -0.239326 0)
(-0.339124 -0.258378 0)
(-0.325911 -0.25435 0)
(-0.318708 -0.233608 0)
(-0.313204 -0.204132 0)
(-0.307523 -0.169973 0)
(-0.300759 -0.133538 0)
(-0.292129 -0.097077 0)
(-0.281353 -0.0621286 0)
(-0.268543 -0.0296289 0)
(-0.253834 -0.000302662 0)
(-0.237565 0.0243312 0)
(-0.223099 0.0435063 0)
(-0.0649635 -0.27348 0)
(-0.130368 -0.136622 0)
(-0.202906 -0.0426756 0)
(-0.248684 -0.00117723 0)
(-0.283431 -0.000334268 0)
(-0.310525 -0.0234104 0)
(-0.324741 -0.0596286 0)
(-0.32572 -0.10885 0)
(-0.314415 -0.166063 0)
(-0.295267 -0.220579 0)
(-0.276684 -0.258421 0)
(-0.265861 -0.270462 0)
(-0.262615 -0.259728 0)
(-0.262329 -0.236184 0)
(-0.262215 -0.206519 0)
(-0.261402 -0.173299 0)
(-0.25908 -0.138585 0)
(-0.254718 -0.104159 0)
(-0.248063 -0.0714145 0)
(-0.239206 -0.0412029 0)
(-0.228476 -0.013886 0)
(-0.216228 0.00982294 0)
(-0.204912 0.0286711 0)
(-0.0546668 -0.192666 0)
(-0.10556 -0.0719955 0)
(-0.163208 0.00559541 0)
(-0.19796 0.0362866 0)
(-0.22609 0.0257608 0)
(-0.243449 -0.00730448 0)
(-0.250876 -0.0547594 0)
(-0.247166 -0.114484 0)
(-0.234586 -0.179328 0)
(-0.218541 -0.235792 0)
(-0.207771 -0.268797 0)
(-0.206235 -0.273351 0)
(-0.209781 -0.258245 0)
(-0.214147 -0.233793 0)
(-0.218082 -0.204659 0)
(-0.220967 -0.172824 0)
(-0.222062 -0.14006 0)
(-0.220971 -0.107882 0)
(-0.217547 -0.0773586 0)
(-0.211859 -0.0491796 0)
(-0.204175 -0.0237296 0)
(-0.195369 -0.00129011 0)
(-0.186641 0.0170036 0)
(-0.0462114 -0.125407 0)
(-0.0877007 -0.0163079 0)
(-0.13436 0.0483877 0)
(-0.161082 0.0641919 0)
(-0.1792 0.0438987 0)
(-0.188345 0.00136095 0)
(-0.189391 -0.055241 0)
(-0.181383 -0.12289 0)
(-0.167422 -0.191922 0)
(-0.154731 -0.246179 0)
(-0.151649 -0.271471 0)
(-0.157165 -0.269401 0)
(-0.16507 -0.252174 0)
(-0.172894 -0.227709 0)
(-0.179911 -0.199465 0)
(-0.185572 -0.169228 0)
(-0.189236 -0.138568 0)
(-0.19062 -0.108733 0)
(-0.189663 -0.0805261 0)
(-0.186508 -0.0543947 0)
(-0.181421 -0.0306428 0)
(-0.175097 -0.00965848 0)
(-0.168767 0.00795793 0)
(-0.0381212 -0.0700507 0)
(-0.071568 0.0286614 0)
(-0.109482 0.0781197 0)
(-0.128229 0.0829994 0)
(-0.138467 0.0543708 0)
(-0.141085 0.00348751 0)
(-0.136616 -0.0606019 0)
(-0.124625 -0.133829 0)
(-0.109705 -0.203634 0)
(-0.10186 -0.251339 0)
(-0.106181 -0.267366 0)
(-0.116404 -0.260741 0)
(-0.12734 -0.242766 0)
(-0.137764 -0.218816 0)
(-0.147007 -0.191809 0)
(-0.154616 -0.163397 0)
(-0.160094 -0.134952 0)
(-0.163284 -0.107457 0)
(-0.164207 -0.0815038 0)
(-0.163043 -0.0573918 0)
(-0.16002 -0.0353067 0)
(-0.155708 -0.0155884 0)
(-0.151417 0.00122344 0)
(-0.0304604 -0.025433 0)
(-0.0555746 0.0650781 0)
(-0.0863475 0.100179 0)
(-0.0984367 0.0949019 0)
(-0.102574 0.0584 0)
(-0.0996109 0.00025673 0)
(-0.089779 -0.0701785 0)
(-0.0736385 -0.146704 0)
(-0.0597786 -0.213079 0)
(-0.0590995 -0.250251 0)
(-0.0694308 -0.257866 0)
(-0.0825366 -0.248868 0)
(-0.0956782 -0.230934 0)
(-0.107924 -0.207935 0)
(-0.118626 -0.182467 0)
(-0.127475 -0.15605 0)
(-0.134157 -0.129848 0)
(-0.138614 -0.104619 0)
(-0.140944 -0.0807958 0)
(-0.141345 -0.0585734 0)
(-0.140038 -0.0380534 0)
(-0.137487 -0.0195186 0)
(-0.13476 -0.00360624 0)
(-0.0244321 0.00986316 0)
(-0.0391097 0.0917646 0)
(-0.0630482 0.115813 0)
(-0.0698024 0.101391 0)
(-0.0694913 0.0569159 0)
(-0.0614778 -0.00809755 0)
(-0.0460541 -0.0840113 0)
(-0.0265256 -0.16092 0)
(-0.0182339 -0.217774 0)
(-0.0257408 -0.242555 0)
(-0.0396298 -0.244756 0)
(-0.0545567 -0.234809 0)
(-0.069143 -0.217435 0)
(-0.0825001 -0.195772 0)
(-0.0940485 -0.172099 0)
(-0.103579 -0.147774 0)
(-0.110979 -0.123764 0)
(-0.116293 -0.100654 0)
(-0.119665 -0.0787875 0)
(-0.121299 -0.0583031 0)
(-0.121377 -0.0392605 0)
(-0.120291 -0.021867 0)
(-0.118835 -0.00674934 0)
(-0.0221191 0.0362456 0)
(-0.0237063 0.104382 0)
(-0.0382408 0.126912 0)
(-0.0410675 0.103616 0)
(-0.037118 0.0505331 0)
(-0.0235839 -0.0215972 0)
(-0.00227612 -0.102295 0)
(0.0150762 -0.173573 0)
(0.013087 -0.214313 0)
(0.000191211 -0.22979 0)
(-0.0154188 -0.229552 0)
(-0.0314904 -0.219409 0)
(-0.0467928 -0.202944 0)
(-0.0606541 -0.182907 0)
(-0.0725861 -0.161211 0)
(-0.0824065 -0.139005 0)
(-0.0901761 -0.117074 0)
(-0.096033 -0.0959032 0)
(-0.100167 -0.0757909 0)
(-0.10276 -0.0568653 0)
(-0.103966 -0.0391728 0)
(-0.104079 -0.0228446 0)
(-0.10377 -0.00846442 0)
(-0.0133619 0.0556559 0)
(-0.00988332 0.106949 0)
(-0.0150054 0.13235 0)
(-0.0124477 0.10234 0)
(-0.00555147 0.0405571 0)
(0.0180729 -0.0401838 0)
(0.0396049 -0.121912 0)
(0.0446111 -0.175338 0)
(0.0351882 -0.203095 0)
(0.0209172 -0.214156 0)
(0.00458501 -0.213183 0)
(-0.0123045 -0.20332 0)
(-0.0278396 -0.188029 0)
(-0.0417408 -0.169801 0)
(-0.053678 -0.150159 0)
(-0.0635206 -0.130046 0)
(-0.0714268 -0.110059 0)
(-0.0776027 -0.0906281 0)
(-0.0822686 -0.0720547 0)
(-0.0856011 -0.0545019 0)
(-0.087716 -0.0380157 0)
(-0.0888428 -0.0226842 0)
(-0.089528 -0.0090126 0)
(-0.00393211 0.0581197 0)
(0.00434972 0.104682 0)
(0.00229617 0.130662 0)
(0.0154554 0.0964309 0)
(0.0272282 0.0212068 0)
(0.0596216 -0.0651092 0)
(0.0675859 -0.127575 0)
(0.0636648 -0.168173 0)
(0.0523966 -0.190416 0)
(0.0373579 -0.198463 0)
(0.0206808 -0.196247 0)
(0.0039987 -0.187099 0)
(-0.011698 -0.173181 0)
(-0.0252759 -0.15684 0)
(-0.0368942 -0.13923 0)
(-0.0465893 -0.121106 0)
(-0.0544786 -0.102916 0)
(-0.0607954 -0.0850286 0)
(-0.0658067 -0.0677843 0)
(-0.0696858 -0.0514124 0)
(-0.0725373 -0.0359948 0)
(-0.0745207 -0.0215734 0)
(-0.0760741 -0.00854451 0)
(0.0012712 0.0529466 0)
(0.0186748 0.0999169 0)
(0.0154053 0.121964 0)
(0.0407997 0.0787201 0)
(0.0619297 -0.0020042 0)
(0.082693 -0.0756494 0)
(0.0846995 -0.126836 0)
(0.0777563 -0.15953 0)
(0.0653453 -0.176846 0)
(0.0498651 -0.182393 0)
(0.0333164 -0.179514 0)
(0.0171472 -0.170973 0)
(0.0022937 -0.158859 0)
(-0.0108792 -0.144332 0)
(-0.0219577 -0.128662 0)
(-0.0313213 -0.112341 0)
(-0.0390914 -0.0957696 0)
(-0.0454421 -0.0792575 0)
(-0.0506426 -0.0631514 0)
(-0.0549081 -0.0477622 0)
(-0.0583401 -0.0332468 0)
(-0.0610173 -0.0196423 0)
(-0.0633142 -0.0071842 0)
(0.00268363 0.0397582 0)
(0.027477 0.0903071 0)
(0.0298152 0.10598 0)
(0.0628037 0.0528595 0)
(0.0863357 -0.0210738 0)
(0.0970863 -0.0815702 0)
(0.0958071 -0.123368 0)
(0.0869598 -0.149243 0)
(0.0737973 -0.162571 0)
(0.0585092 -0.166397 0)
(0.0427844 -0.163419 0)
(0.0277498 -0.155818 0)
(0.0140468 -0.145182 0)
(0.00192382 -0.132615 0)
(-0.00861437 -0.11861 0)
(-0.0174879 -0.103882 0)
(-0.025027 -0.0887099 0)
(-0.031354 -0.073417 0)
(-0.0366528 -0.0582951 0)
(-0.041149 -0.0437076 0)
(-0.0450372 -0.0299324 0)
(-0.0483015 -0.0170226 0)
(-0.0512119 -0.00508264 0)
(0.00235515 0.0234177 0)
(0.0279646 0.0738775 0)
(0.0430311 0.0823889 0)
(0.0779286 0.0259639 0)
(0.0976137 -0.0362159 0)
(0.103507 -0.0841111 0)
(0.100123 -0.117418 0)
(0.0905674 -0.137969 0)
(0.0777417 -0.148449 0)
(0.0636268 -0.151306 0)
(0.0495102 -0.148635 0)
(0.0361817 -0.142077 0)
(0.0240293 -0.132814 0)
(0.0131597 -0.121673 0)
(0.00356521 -0.109248 0)
(-0.00484997 -0.0958378 0)
(-0.0120841 -0.0818388 0)
(-0.0183201 -0.0676123 0)
(-0.0237081 -0.0533473 0)
(-0.0283647 -0.0393896 0)
(-0.0325453 -0.0261646 0)
(-0.0362661 -0.0137729 0)
(-0.039715 -0.00225615 0)
(0.00315912 0.00908368 0)
(0.0252426 0.0504352 0)
(0.0512235 0.0515429 0)
(0.0827217 0.0014636 0)
(0.0978931 -0.0473538 0)
(0.101386 -0.0845162 0)
(0.0974446 -0.110733 0)