/*--------------------------------*- C++ -*----------------------------------*\
| =========                 |                                                 |
| \\      /  F ield         | OpenFOAM: The Open Source CFD Toolbox           |
|  \\    /   O peration     | Version:  2312                                  |
|   \\  /    A nd           | Website:  www.openfoam.com                      |
|    \\/     M anipulation  |                                                 |
\*---------------------------------------------------------------------------*/
FoamFile
{
    version     2.0;
    format      ascii;
    arch        "LSB;label=32;scalar=64";
    class       volScalarField;
    location    "1.75";
    object      alpha.galistan;
}
// * * * * * * * * * * * * * * * * * * * * * * * * * * * * * * * * * * * * * //

dimensions      [0 0 0 0 0 0 0];

internalField   nonuniform List<scalar> 
2268
(
1
1
1
1
1
1
1
1
1
1
1
1
1
1
1
1
1
1
1
1
1
0.999968
0.999936
1
1
1
1
1
1
1
1
1
1
1
1
1
1
1
1
1
1
1
1
1
0.999981
0.999937
1
1
1
1
1
1
1
1
1
1
1
1
1
1
1
1
1
1
1
1
1
0.999998
0.999999
1
1
1
1
1
1
1
1
1
1
1
1
1
1
1
1
1
1
0.999999
0.999999
1
1
1
0.959469
0.967681
0.957766
0.969146
0.970101
0.972481
0.983716
0.998533
1
1
1
1
1
1
1
1
1
1
1
0.999995
0.999993
0.999999
0.999999
0.536654
0.524239
0.4713
0.388245
0.342897
0.327713
0.378251
0.532464
0.719151
0.878595
0.961405
0.999521
0.999939
0.999996
1
1
0.999999
0.999994
0.999973
0.997186
0.979344
0.946606
0.918749
0.00498894
0.0212683
0.0295601
-2.13778e-06
-4.95735e-06
0.000316086
0.000222075
2.55483e-05
0.0640686
0.169819
0.302139
0.432454
0.563729
0.668818
0.740815
0.774384
0.774646
0.736242
0.640905
0.496004
0.357147
0.253775
0.210601
3.21538e-07
0.0006744
2.79015e-06
0.000497577
0.00317407
0.00284239
0.000126198
1.46095e-23
-7.56566e-11
-1.46677e-10
1.1022e-06
0.00047282
0.00917666
0.0313063
0.0596584
0.0745557
0.0680331
0.0471692
0.015005
0.00122366
6.6974e-10
1.54021e-12
1.53942e-12
0.812597
0.831607
0.89566
0.895729
0.897706
0.919236
0.919285
0.922687
0.922745
0.923403
0.927552
0.928353
0.928263
0.932309
0.941647
0.945493
0.945493
0.945494
0.945493
0.744022
0.624606
0.65363
0.753029
0.777155
0.793838
0.727222
0.668276
0.639684
0.630044
0.65881
0.627177
0.567366
0.584231
0.699947
0.868656
0.928553
0.945493
0.945493
0.322672
0.317016
0.312292
0.313397
0.471686
0.644491
0.541768
0.335488
0.25942
0.235138
0.195984
0.238352
0.349592
0.347492
0.358324
0.358969
0.496162
0.631199
0.643656
0.29997
0.18778
0.220115
0.173974
0.29912
0.502262
0.478912
0.267743
0.164222
0.151297
0.0843689
0.0441212
0.0375312
0.101321
0.146165
0.243164
0.272005
0.189228
0.123428
0.202844
0.103758
0.0969574
0.16802
0.250034
0.178641
0.118393
0.114658
0.1013
0.0600352
0.0306395
0.000700773
2.85661e-06
2.90368e-06
0.00963541
0.0307606
0.045587
0.00170193
0.00174015
0.120323
0.189646
0.143626
0.0873832
0.116236
0.088572
0.0894624
0.109312
0.101711
0.0321371
0.00052677
2.85753e-06
2.85833e-06
1.25956e-05
0.0184569
0.00747233
0.00745887
0.00597616
0.00172037
0.17615
0.326991
0.328386
0.188751
0.0430876
0.0849226
0.101252
0.111075
0.067935
0.00148652
2.98144e-06
2.85803e-06
2.9533e-06
2.84863e-06
0.0449144
0.00769705
0.00851189
0.0123544
0.00174015
0.265348
0.261213
0.258969
0.17503
0.00830574
0.0685811
0.10126
0.0796023
0.0170947
3.7187e-05
3.74545e-05
1.36485e-05
4.20971e-06
2.85141e-06
0.0449049
0.00783835
0.0108064
0.0124266
0.00990284
1.34466e-06
4.44397e-05
2.95556e-06
1.70683e-05
0.00204831
0.0031455
0.00223783
0.000104944
-5.72196e-10
2.35252e-06
4.4376e-06
6.11384e-06
0.00017107
0.000359118
0.000319443
0.00027264
2.69116e-24
-1.52853e-09
-2.18725e-09
-2.15606e-07
8.35048e-05
3.46178e-05
1.54022e-12
7.3843e-06
1.08637e-06
5.7518e-07
6.13557e-07
0.000152408
0.000377985
0.000675438
0.000487145
7.55207e-06
4.21675e-07
7.13763e-07
6.5933e-07
3.81938e-12
8.7142e-06
1.20295e-05
3.39771e-06
1.19785e-05
1.15269e-06
3.60223e-10
0.000131113
0.00100539
0.00171635
0.00118457
7.21334e-06
4.65164e-06
4.57747e-07
5.39297e-06
2.11581e-05
4.7936e-05
0.000188513
0.000171442
7.03299e-05
1.77479e-06
6.14941e-08
1.19015e-10
1.18653e-10
1.51723e-09
2.84383e-07
1.05826e-06
1.29908e-06
3.08582e-07
8.29654e-08
8.85526e-08
0.000184739
0.0019285
0.00268529
9.36576e-07
1.28139e-05
4.51779e-07
1.17314e-06
8.19985e-07
2.51754e-06
4.17078e-06
6.73909e-06
3.87123e-05
2.81561e-05
2.46152e-06
2.52087e-09
1.19015e-10
1.8601e-07
4.4737e-07
1.42658e-06
1.02993e-06
2.1033e-07
2.66497e-07
3.28519e-07
3.49493e-07
4.66585e-07
7.75345e-07
4.06972e-07
1.2831e-05
1.1757e-05
8.03277e-06
5.74232e-07
2.10258e-06
1.52146e-05
5.86715e-05
0.000229991
0.000236811
0.000197418
6.37008e-05
1.74586e-05
7.78784e-06
2.27927e-06
1.94678e-06
7.75021e-06
1.45501e-05
5.3744e-06
3.34176e-07
3.14412e-05
0.000141106
0.000144008
8.24139e-08
3.41935e-06
1.2754e-05
1.1734e-05
1.08825e-06
1.04212e-06
0.00013263
0.000262651
0.000263551
0.000114381
9.82304e-05
9.82692e-05
4.31384e-05
1.20287e-05
1.15533e-05
2.82471e-05
5.84498e-05
5.87866e-05
2.60745e-05
3.65556e-07
6.43999e-05
0.000317323
0.000335519
2.00396e-08
2.00567e-08
8.87629e-06
2.9569e-06
8.636e-08
1.82082e-05
0.000247364
0.000263552
8.75086e-05
4.69318e-06
3.59465e-06
2.02341e-06
7.12092e-06
6.68858e-06
2.73194e-05
5.60962e-05
5.50038e-05
4.53169e-05
2.14005e-05
1.71004e-05
2.87504e-05
6.2917e-05
9.75594e-05
3.4787e-08
3.22258e-08
2.79314e-07
3.76225e-07
8.94273e-08
3.54315e-09
0.000242423
0.000244142
1.47222e-05
5.66229e-06
1.24699e-07
4.67689e-07
1.92016e-06
3.80835e-06
7.20664e-06
2.42854e-06
1.43211e-07
2.23152e-07
1.40512e-06
4.84314e-07
3.32505e-09
4.53529e-15
5.09546e-09
6.09248e-08
5.39171e-08
8.36168e-09
8.54873e-09
2.64253e-08
2.90272e-09
0.000196912
0.00020051
1.64069e-05
2.85714e-07
7.64911e-09
5.61302e-13
5.92671e-15
8.95887e-14
4.32305e-13
1.08385e-13
3.7715e-26
4.38165e-17
9.63498e-14
7.80366e-14
2.27876e-09
7.79956e-15
7.21889e-08
5.41526e-08
2.19849e-08
8.83787e-09
1.21521e-08
8.74037e-08
3.53496e-09
0.000123646
0.00012335
8.41581e-06
6.97699e-07
3.51814e-07
6.02673e-08
3.4034e-08
2.08375e-08
1.86196e-08
1.57626e-08
1.18809e-08
3.23858e-09
5.59534e-09
1.88648e-08
8.75192e-09
7.30054e-08
8.27841e-07
1.88786e-08
7.93255e-09
4.36521e-09
3.3891e-09
4.34796e-08
4.04559e-07
8.17558e-06
2.88129e-05
4.88965e-06
4.47193e-07
2.50982e-07
2.09242e-07
1.45099e-07
1.21184e-07
6.74112e-08
4.45514e-08
1.86114e-08
4.41092e-09
1.47026e-08
2.37993e-08
1.13675e-08
3.76646e-07
8.61126e-07
5.15017e-09
5.38576e-09
4.39026e-09
2.68213e-09
1.08795e-08
9.39542e-08
2.16812e-08
2.19609e-08
1.38272e-06
3.50314e-07
4.69023e-08
1.18873e-07
1.39692e-07
1.21825e-07
4.64126e-08
2.25178e-08
6.29081e-09
2.2724e-09
1.01708e-08
2.33139e-08
3.82219e-08
3.17648e-07
4.64639e-07
5.77001e-09
6.68967e-09
4.92004e-09
3.19988e-09
3.18467e-09
5.71461e-09
2.20256e-08
4.55745e-08
2.92215e-08
2.92034e-08
4.57472e-08
7.98213e-08
7.95192e-08
8.63305e-09
5.61651e-09
1.32392e-09
8.58815e-11
1.74626e-10
3.39274e-09
1.42718e-08
4.62784e-08
4.65863e-08
5.11406e-08
9.70923e-09
1.12296e-08
1.34004e-08
2.5772e-08
2.44896e-08
4.00181e-08
5.96438e-08
1.03731e-07
1.13261e-07
5.81287e-08
1.17611e-08
3.59265e-08
3.57194e-11
3.59214e-11
4.22606e-11
5.24791e-11
1.02822e-10
2.57277e-10
6.39228e-10
2.00799e-09
1.65672e-09
9.75069e-10
2.76677e-07
1.16282e-08
1.16661e-08
1.97945e-08
3.94775e-08
4.63602e-08
4.63672e-08
4.50665e-08
1.88855e-08
1.5646e-09
3.1605e-09
4.9662e-09
5.12257e-09
3.86208e-11
4.40592e-11
6.03646e-11
8.83748e-11
1.56066e-10
2.86508e-10
5.03791e-10
5.77054e-10
3.89367e-10
1.23752e-09
1.19445e-07
1.08342e-08
6.39978e-09
6.10683e-09
4.10007e-09
1.85798e-09
3.57313e-09
4.30032e-09
1.4965e-09
6.48934e-10
2.33408e-11
2.34895e-11
2.69216e-11
4.0001e-11
4.85868e-11
5.26973e-11
6.49861e-11
9.58367e-11
1.43799e-10
1.87498e-10
2.40423e-10
4.89951e-10
1.16201e-09
5.5662e-11
9.765e-09
1.50829e-09
3.63726e-10
3.60134e-10
3.29652e-10
2.07396e-10
8.8363e-11
2.92247e-11
2.52058e-11
2.44833e-11
2.30096e-11
2.75862e-11
3.00168e-11
2.85681e-11
2.81414e-11
3.26098e-11
4.52966e-11
6.54112e-11
8.72137e-11
1.06649e-10
1.51878e-10
1.99566e-10
1.21654e-10
9.58322e-09
2.47442e-09
6.6081e-10
4.02987e-10
2.61571e-10
1.55766e-10
7.43493e-11
3.77166e-11
2.13354e-11
1.2374e-11
9.39651e-12
1.15049e-11
1.10512e-11
9.93261e-12
9.86116e-12
1.16891e-11
1.60989e-11
2.33157e-11
3.26515e-11
4.41499e-11
6.58694e-11
1.09439e-10
1.80435e-10
1.0676e-08
2.31492e-09
6.63732e-10
3.95345e-10
2.63602e-10
1.22087e-10
4.19082e-11
1.8159e-11
7.64748e-12
3.82372e-12
3.15064e-12
2.96031e-12
2.73159e-12
2.57635e-12
2.67863e-12
3.24414e-12
4.47944e-12
6.60261e-12
9.83728e-12
1.55737e-11
2.43269e-11
5.68439e-11
1.11395e-10
1.21908e-08
2.72018e-09
5.69e-10
2.99148e-10
1.77695e-10
6.09846e-11
2.24215e-11
1.11584e-11
4.83176e-12
2.12808e-12
1.1431e-12
7.00765e-13
5.64245e-13
5.22419e-13
5.88829e-13
7.56496e-13
1.10619e-12
1.74764e-12
2.76239e-12
4.79012e-12
9.14724e-12
1.82645e-11
5.18599e-11
1.33704e-08
3.51831e-09
2.49116e-10
1.986e-10
1.35212e-10
4.91781e-11
2.30355e-11
1.11287e-11
4.32908e-12
1.74576e-12
6.75342e-13
2.72169e-13
1.35582e-13
9.64278e-14
9.8551e-14
1.37668e-13
2.14766e-13
3.5629e-13
6.4293e-13
1.17241e-12
2.41992e-12
7.7025e-12
2.08545e-11
1.41045e-08
5.17939e-09
1.52456e-10
1.45438e-10
1.29268e-10
6.49615e-11
3.32236e-11
1.27537e-11
4.34091e-12
1.625e-12
5.39616e-13
1.84272e-13
6.44962e-14
2.66545e-14
1.61886e-14
1.91774e-14
3.34271e-14
6.80366e-14
1.53759e-13
3.86645e-13
9.86705e-13
2.34606e-12
7.68642e-12
1.5519e-08
9.37184e-09
1.45521e-10
1.4549e-10
1.5356e-10
1.24086e-10
5.76383e-11
1.38276e-11
4.42302e-12
1.57648e-12
4.85254e-13
1.56051e-13
4.94552e-14
1.57629e-14
5.35652e-15
3.00932e-15
4.41385e-15
9.78364e-15
2.64188e-14
7.36619e-14
1.93528e-13
7.4012e-13
2.0044e-12
1.58633e-08
1.42851e-08
7.95162e-10
1.45424e-10
1.9245e-10
1.90095e-10
7.9989e-11
1.5671e-11
4.46022e-12
1.50356e-12
4.42313e-13
1.36026e-13
4.21545e-14
1.27648e-14
3.69601e-15
1.10665e-15
7.09889e-16
1.57939e-15
5.00269e-15
1.68094e-14
5.26565e-14
1.37496e-13
4.91971e-13
1.20017e-08
1.7346e-08
3.50349e-09
1.45522e-10
2.77875e-10
2.67361e-10
1.01907e-10
1.76927e-11
4.65584e-12
1.41374e-12
3.96139e-13
1.15483e-13
3.50174e-14
1.03916e-14
2.94206e-15
7.60756e-16
2.17604e-16
2.01448e-16
6.41822e-16
2.19725e-15
6.7248e-15
2.84453e-14
8.53062e-14
9.42881e-09
1.73497e-08
6.44511e-09
2.67637e-10
3.67103e-10
3.32842e-10
1.16739e-10
2.03588e-11
5.06779e-12
1.3695e-12
3.45975e-13
9.43396e-14
2.75703e-14
7.91176e-15
2.2007e-15
5.60837e-16
1.31679e-16
5.2266e-17
1.12392e-16
4.25334e-16
1.45527e-15
4.24252e-15
1.6207e-14
6.54912e-09
1.73488e-08
8.10574e-09
9.45953e-10
5.36456e-10
4.20925e-10
1.27759e-10
2.41418e-11
5.74505e-12
1.38247e-12
3.02371e-13
7.51954e-14
2.04078e-14
5.56872e-15
1.48909e-15
3.75594e-16
8.46025e-17
1.93826e-17
1.5772e-17
5.01303e-17
1.58847e-16
7.27182e-16
2.32593e-15
3.65646e-09
1.06434e-08
7.84923e-09
1.84507e-09
8.59526e-10
5.40696e-10
1.51898e-10
3.10693e-11
6.75067e-12
1.48454e-12
2.93015e-13
6.01261e-14
1.42375e-14
3.60679e-15
9.20384e-16
2.21575e-16
4.77041e-17
9.73914e-18
3.57654e-18
9.72992e-18
3.52287e-17
1.06531e-16
4.09333e-16
2.45348e-09
3.99763e-09
7.27535e-09
3.44184e-09
1.18507e-09
7.64364e-10
2.43728e-10
4.55205e-11
8.36125e-12
1.74971e-12
3.23013e-13
5.44682e-14
9.79495e-15
2.17004e-15
5.12976e-16
1.15321e-16
2.41131e-17
4.46602e-18
8.77816e-19
1.01116e-18
3.27174e-18
1.59406e-17
5.38885e-17
1.87118e-09
4.18937e-09
5.93511e-09
3.90025e-09
1.86197e-09
9.61613e-10
3.05813e-10
6.80763e-11
1.1405e-11
2.26526e-12
4.15599e-13
6.41216e-14
8.06412e-15
1.23672e-15
2.5617e-16
5.26483e-17
1.04123e-17
1.84356e-18
2.83743e-19
1.28919e-19
4.6817e-19
1.64855e-18
8.02378e-18
1.62664e-09
4.02451e-09
5.72161e-09
4.6723e-09
2.40256e-09
1.06921e-09
3.15474e-10
7.99855e-11
1.46625e-11
3.16496e-12
6.20957e-13
1.02828e-13
1.10052e-14
8.79703e-16
1.1503e-16
2.15656e-17
3.84783e-18
6.46268e-19
8.89194e-20
1.67896e-20
3.78872e-20
2.29121e-19
9.94141e-19
1.58501e-09
3.26034e-09
5.44695e-09
4.80473e-09
2.40767e-09
9.75582e-10
3.59535e-10
9.14824e-11
1.7338e-11
4.29463e-12
8.6604e-13
1.88496e-13
2.43163e-14
1.51502e-15
6.80355e-17
7.50956e-18
1.22931e-18
1.76978e-19
2.18335e-20
2.84773e-21
4.26064e-21
2.30193e-20
2.04881e-19
1.55862e-09
2.11522e-09
4.19126e-09
3.6283e-09
2.02438e-09
6.78899e-10
3.29143e-10
1.41781e-10
3.10724e-11
7.14043e-12
1.53325e-12
3.34316e-13
5.2199e-14
4.46805e-15
1.72512e-16
3.16312e-18
3.03986e-19
4.04463e-20
4.85056e-21
3.82305e-22
2.59882e-22
3.51832e-21
2.60494e-20
1.54123e-09
1.40045e-09
2.57708e-09
2.41079e-09
1.40024e-09
5.57513e-10
2.7536e-10
1.57648e-10
4.56059e-11
1.15393e-11
2.66444e-12
6.00434e-13
9.54837e-14
8.68477e-15
5.52262e-16
1.24769e-17
1.06956e-19
7.59736e-21
8.10176e-22
9.16695e-23
4.45509e-23
3.93767e-22
4.81936e-21
1.42311e-09
1.34023e-09
1.50762e-09
1.40084e-09
8.61438e-10
4.55066e-10
3.12245e-10
1.63297e-10
4.97611e-11
1.45465e-11
3.61968e-12
7.67584e-13
1.27385e-13
1.47125e-14
1.05738e-15
3.9176e-17
5.97918e-19
2.79005e-21
1.96654e-22
1.33239e-23
2.21242e-24
2.45548e-23
2.95363e-22
1.22957e-09
1.44232e-09
1.20714e-09
9.22024e-10
6.62489e-10
4.99834e-10
2.9635e-10
1.42585e-10
5.23894e-11
1.60446e-11
4.39745e-12
9.18005e-13
1.41862e-13
1.51446e-14
1.1975e-15
6.04839e-17
1.44245e-18
1.42812e-20
5.24417e-23
3.44251e-24
3.3636e-25
2.218e-24
3.29619e-23
6.31361e-10
1.49973e-09
1.37969e-09
1.07524e-09
8.75865e-10
6.78925e-10
4.003e-10
1.55332e-10
5.09774e-11
1.60054e-11
3.64106e-12
6.46291e-13
9.08994e-14
9.07033e-15
7.59031e-16
3.98419e-17
1.48644e-18
2.76105e-20
1.63627e-22
6.05171e-25
3.85597e-26
9.04803e-26
1.51072e-24
1.15361e-10
1.2139e-09
1.40623e-09
1.32904e-09
1.13304e-09
6.49297e-10
2.50766e-10
8.06908e-11
2.60991e-11
6.20677e-12
1.17005e-12
1.79317e-13
2.02648e-14
2.12863e-15
1.61445e-16
1.07942e-17
4.94315e-19
1.32583e-20
1.63282e-22
6.10622e-25
6.17222e-27
4.33389e-27
7.61247e-26
7.03175e-12
4.22426e-10
1.09305e-09
1.05166e-09
7.52089e-10
2.44725e-10
4.65056e-11
1.0997e-11
2.66493e-12
6.27305e-13
1.08975e-13
1.53753e-14
1.67007e-15
1.72229e-16
1.36067e-17
9.78876e-19
5.19832e-20
1.82628e-21
3.49662e-23
2.99259e-25
1.59132e-27
2.39991e-28
3.33588e-27
5.17303e-13
6.16452e-11
3.33235e-10
2.95516e-10
1.32182e-10
3.09989e-11
4.67422e-12
9.72754e-13
2.08515e-13
3.72231e-14
5.56911e-15
6.63853e-16
6.82146e-17
5.14541e-18
4.01581e-19
2.70654e-20
1.61053e-21
8.31094e-23
3.04407e-24
6.67576e-26
7.30631e-28
1.93715e-29
2.21276e-28
8.56842e-15
8.14616e-12
6.19545e-11
4.29646e-11
1.27172e-11
2.05858e-12
2.37362e-13
2.37917e-14
3.78334e-15
5.83956e-16
7.79082e-17
8.1648e-18
6.44761e-19
5.12812e-20
4.09883e-21
3.80622e-22
4.07682e-23
4.32603e-24
3.81841e-25
2.24533e-26
4.91057e-28
8.20717e-30
1.26986e-29
1.03701e-15
1.08141e-12
9.47807e-12
5.19027e-12
1.06967e-12
1.06557e-13
6.19154e-15
2.93172e-16
2.84206e-17
3.36453e-18
3.1962e-19
2.73588e-20
2.65572e-21
2.96175e-22
4.48388e-23
7.53264e-24
1.19533e-24
1.81466e-25
2.46774e-26
2.81832e-27
2.43823e-28
1.2393e-29
5.30326e-31
0.0696306
0.0741739
0.147142
0.148518
-4.39655e-06
-1.49766e-06
-2.07254e-06
3.63128e-06
0.00266426
0.00295026
0.00295264
0.00261611
0.000131118
0.00280623
0.0024419
0.000489734
8.75597e-05
2.44617e-05
2.59947e-05
2.19993e-05
0.000335467
0.000335645
0.000335533
0.000237291
8.03175e-05
9.77891e-05
0.000138334
0.000124621
-3.43794e-11
1.00302e-24
-3.65838e-24
2.82313e-21
5.43563e-07
9.07475e-07
3.06803e-06
7.47995e-06
8.8879e-07
3.40596e-06
3.29834e-05
4.51468e-05
4.77959e-07
1.01385e-05
4.51327e-05
4.51283e-05
4.71455e-07
1.29099e-05
4.34579e-05
4.43622e-05
8.52985e-07
6.00289e-06
7.3807e-06
1.02698e-05
1.69964e-06
8.9596e-07
5.53543e-10
5.55956e-10
2.14617e-07
3.67096e-10
1.23582e-09
5.26916e-10
5.45454e-11
8.08396e-10
4.55708e-09
3.03875e-09
1.39867e-10
1.76014e-10
2.0494e-10
1.31753e-08
3.90438e-10
6.21535e-10
1.00117e-09
1.11385e-09
3.25638e-10
6.81243e-10
9.87208e-10
1.11371e-09
1.1627e-10
1.37922e-10
1.52103e-10
1.68653e-10
4.68611e-11
7.08637e-11
9.16949e-11
1.07618e-10
1.86909e-11
2.60063e-11
3.64427e-11
4.86623e-11
4.91367e-12
8.79077e-12
1.30423e-11
1.80203e-11
1.37828e-12
2.15266e-12
3.39354e-12
5.1051e-12
2.35691e-13
4.9834e-13
7.94016e-13
1.24741e-12
5.0786e-14
8.56712e-14
1.58464e-13
2.58441e-13
7.3664e-15
1.6669e-14
2.84916e-14
4.97922e-14
1.25006e-15
2.34403e-15
4.8471e-15
8.36152e-15
1.50244e-16
4.12767e-16
7.48843e-16
1.43881e-15
2.76077e-17
5.25609e-17
1.33615e-16
2.43477e-16
5.16008e-18
1.33394e-17
3.24074e-17
8.32626e-17
1.07858e-18
3.06181e-18
1.33829e-17
3.28826e-17
1.44745e-19
1.06934e-18
3.73962e-18
1.36087e-17
4.20601e-20
1.57663e-19
9.94605e-19
3.45335e-18
2.52108e-21
2.68314e-20
1.30355e-19
6.44142e-19
4.37374e-22
2.51658e-21
1.61649e-20
7.88628e-20
1.74472e-23
2.22709e-22
1.42651e-21
8.76897e-21
1.34783e-24
1.17085e-23
8.5847e-23
5.45995e-22
4.74407e-26
4.94454e-25
4.2624e-24
3.43711e-23
3.34606e-27
2.46315e-26
1.92175e-25
1.4679e-24
2.23257e-28
1.54023e-27
1.02059e-26
7.01272e-26
1.01216e-29
6.98634e-29
5.47122e-28
3.4723e-27
0.0931675
0.0146082
1.28242e-05
0.0285137
0.00647037
0.00641775
0.0193167
0.00454374
6.37381e-07
3.70539e-05
5.53214e-05
3.38815e-05
8.25476e-06
8.92214e-06
0.0280889
0.0259159
0.021258
0.0155434
0.0104853
1.07624e-06
1.04951e-06
1.43782e-05
0.000293759
0.00190968
5.83471e-05
1.26169e-05
1.30276e-06
6.36078e-07
4.51168e-06
8.78723e-06
1.58113e-05
1.91288e-05
8.81919e-06
0.00837931
0.0243361
0.0135403
0.0155884
0.00935673
3.71603e-05
0.000198835
0.000706314
0.000432258
0.000468362
0.00161473
0.00305651
0.00305805
0.000243255
5.43833e-06
4.97468e-06
6.76556e-06
1.28958e-05
8.21525e-05
0.00332664
0.00323413
0.00182458
0.0115532
0.0110323
1.05006e-05
0.000357648
0.000695097
0.0006176
0.000342141
0.000721524
0.00574801
0.00575247
0.00524031
0.00121756
5.2526e-06
0.000106478
0.000174291
0.000171613
0.000171854
0.00247363
0.00224503
0.00785986
0.00808415
1.0948e-05
4.91191e-06
0.000413261
0.00073115
0.000510961
0.000377502
0.00107907
0.00296129
0.00524705
0.00246168
0.00137018
0.00551758
0.00555647
0.00116011
0.000172124
0.000188136
0.013779
0.0199425
0.00814294
1.33553e-05
4.63612e-06
2.5503e-06
0.000587753
0.0010338
0.000559466
0.000148815
0.000635976
0.00266795
0.00117628
0.00140345
0.00977084
0.00974636
0.00244443
0.0011213
0.000184437
0.0219852
0.03327
0.0138589
8.47023e-05
3.11342e-05
2.67604e-06
0.000183012
0.00102685
0.00103449
0.000169618
5.37373e-05
0.000139618
9.59351e-05
0.000217974
0.00885328
0.00927335
0.00197009
0.00351702
0.0193842
0.0340641
0.0340622
0.0198894
3.80143e-06
3.57093e-06
2.37463e-06
8.34808e-09
0.000775506
0.00102707
0.000284507
6.75357e-23
4.90002e-18
6.14656e-06
0.000129766
0.00208895
0.00191312
0.000693772
0.0217068
0.0340728
0.0340726
0.0340626
0.0170705
9.01355e-06
5.35217e-06
2.28995e-06
8.69253e-09
0.000304216
0.000657275
0.000141919
3.51583e-19
-7.45568e-26
3.0715e-08
0.000144295
0.000397726
0.000120504
0.000202136
0.0208749
0.0340726
0.0339491
0.0186408
0.00611496
4.21048e-05
3.56834e-05
1.9126e-06
8.52219e-09
6.8783e-08
1.4298e-05
1.85373e-05
0
3.81464e-18
5.02603e-06
5.40923e-05
6.28792e-05
0.00109143
0.0075409
0.0130167
0.0193718
0.0162906
0.00599281
0.00587959
4.51294e-05
4.45075e-05
1.24312e-06
8.69029e-09
1.17781e-08
1.55538e-22
-3.30992e-08
1.38355e-19
0.00031477
0.0014931
0.00232492
0.00725594
0.0107507
0.010815
0.00244231
0.00244212
0.00696113
0.0069426
0.00687624
4.4937e-05
2.67581e-05
3.82259e-08
8.12022e-08
4.53116e-07
2.93079e-06
1.66909e-06
7.64374e-17
0.0011156
0.0162793
0.0200231
0.020048
0.00688473
0.00344852
0.00244212
0.00244279
0.00348936
0.00809231
0.00809046
1.91726e-05
8.26782e-06
1.4305e-06
4.65922e-08
9.93571e-07
8.45043e-06
8.50609e-06
7.15777e-07
6.9453e-05
0.00103729
0.0142664
0.0200719
0.0200938
0.0049584
0.00337317
0.00244222
0.00244398
0.00384839
0.0040453
6.81089e-08
7.91279e-06
2.44319e-06
3.52284e-08
2.91138e-07
5.83903e-06
8.60957e-06
1.75168e-06
9.8476e-06
5.13886e-06
5.12224e-06
0.0129755
0.0221291
0.022155
0.00746273
0.00661555
0.00245838
0.00535376
0.0108908
2.10912e-06
1.30976e-05
1.18719e-05
2.87993e-06
8.1884e-08
2.13579e-07
3.40039e-06
2.51307e-06
2.2574e-06
5.10002e-06
7.37335e-05
8.82734e-05
0.0124225
0.0222227
0.0222225
0.0128609
0.0120389
0.011518
0.0135465
6.38812e-09
1.93245e-06
1.57366e-05
1.58549e-05
2.41543e-06
9.48983e-09
8.01627e-09
3.62955e-07
8.83038e-07
7.04987e-05
0.000165135
4.64012e-05
4.14725e-05
0.00717311
0.0198558
0.021097
0.0210717
0.018363
0.0209821
3.85753e-08
9.4278e-10
4.31718e-06
2.30052e-05
3.06052e-05
1.21394e-05
8.50724e-07
1.21032e-06
4.23944e-06
0.000163837
0.00016513
6.90849e-05
1.06075e-05
3.90355e-05
0.000141133
0.0114889
0.0189227
0.0215542
0.0217049
1.13614e-09
1.06998e-09
1.09435e-09
8.09513e-06
3.22021e-05
3.43725e-05
3.43423e-05
2.17644e-05
2.15373e-05
0.000114924
9.00758e-05
6.34704e-05
1.1552e-05
7.20226e-07
2.12131e-06
9.45101e-09
6.08071e-06
0.00128558
0.00230196
2.58191e-09
5.72902e-09
7.26611e-09
6.19209e-09
5.87913e-06
1.94204e-05
1.854e-05
2.2113e-05
3.25042e-05
1.39711e-05
4.45027e-06
4.40554e-06
2.60987e-06
7.11144e-07
9.46048e-09
1.13308e-08
-1.21852e-21
1.53398e-17
2.23705e-09
2.12073e-10
6.99222e-10
1.30759e-09
2.75418e-10
4.59428e-09
3.40977e-08
2.02607e-08
4.07682e-06
2.10525e-05
2.6171e-06
2.68505e-07
9.59545e-10
4.96465e-10
4.95906e-10
2.48641e-08
8.68712e-08
6.77625e-08
5.93406e-09
3.43677e-09
1.25941e-10
1.66216e-10
2.36974e-10
3.35317e-10
5.43151e-10
6.68529e-10
9.61831e-10
5.04363e-10
1.01366e-07
2.8393e-10
2.7782e-10
6.03406e-10
6.66446e-10
5.0082e-10
1.2086e-09
4.234e-08
4.23413e-08
8.76814e-09
6.36327e-09
6.24731e-11
9.32316e-11
1.32759e-10
2.00688e-10
3.6529e-10
6.01912e-10
1.01043e-09
4.94453e-10
2.75848e-10
2.94773e-10
3.80589e-10
6.35659e-10
7.78054e-10
1.16795e-09
2.20752e-09
1.64343e-10
1.65689e-10
2.01193e-09
5.81989e-09
2.44838e-11
4.06302e-11
6.2607e-11
8.53117e-11
1.16947e-10
3.00794e-10
4.73589e-10
3.70133e-10
2.74013e-10
2.33494e-10
2.66152e-10
4.09189e-10
6.51258e-10
8.46884e-10
5.18591e-10
2.54576e-10
3.68044e-10
2.01174e-09
5.61075e-09
7.41524e-12
1.41231e-11
2.08689e-11
3.20727e-11
4.09482e-11
6.8044e-11
1.0399e-10
1.4209e-10
1.48539e-10
1.25755e-10
1.10223e-10
1.44813e-10
2.99668e-10
2.7271e-10
1.69418e-10
1.8479e-10
6.07156e-10
3.07265e-09
5.00984e-09
1.92692e-12
4.09046e-12
7.20621e-12
9.57237e-12
1.35306e-11
1.70884e-11
2.51622e-11
4.08741e-11
4.80608e-11
4.6586e-11
4.45833e-11
4.89223e-11
7.92106e-11
7.44165e-11
8.97752e-11
2.16083e-10
1.01751e-09
3.26424e-09
5.06497e-09
4.34852e-13
1.02731e-12
2.06754e-12
3.3392e-12
3.84047e-12
4.49704e-12
5.92312e-12
1.01482e-11
1.69328e-11
1.88268e-11
1.89056e-11
2.00053e-11
2.67327e-11
3.15413e-11
6.58556e-11
2.60695e-10
1.06303e-09
3.83024e-09
4.98907e-09
8.46892e-14
2.25752e-13
5.05271e-13
9.40469e-13
1.35868e-12
1.64389e-12
2.02261e-12
3.22491e-12
4.95067e-12
6.30191e-12
6.98392e-12
8.19727e-12
1.05627e-11
1.76189e-11
5.85712e-11
1.77492e-10
1.22784e-09
4.09708e-09
4.26926e-09
1.54653e-14
4.29204e-14
1.09925e-13
2.31936e-13
3.94465e-13
5.27619e-13
6.50606e-13
9.42245e-13
1.44182e-12
2.08142e-12
2.66587e-12
3.26641e-12
4.30633e-12
9.38248e-12
3.32407e-11
1.32267e-10
1.24814e-09
4.14796e-09
2.89716e-09
2.61245e-15
7.66291e-15
2.17279e-14
5.12682e-14
9.91654e-14
1.53679e-13
2.13113e-13
3.11357e-13
4.84108e-13
7.60636e-13
1.16385e-12
1.67063e-12
2.33117e-12
5.87523e-12
1.91532e-11
1.01916e-10
1.15436e-09
4.13797e-09
2.21862e-09
4.86712e-16
1.55639e-15
4.55867e-15
1.20977e-14
2.72506e-14
5.23476e-14
9.07678e-14
1.57804e-13
2.78678e-13
4.93509e-13
8.66698e-13
1.48338e-12
2.75051e-12
7.19655e-12
2.17475e-11
1.12249e-10
1.15241e-09
4.11575e-09
1.73927e-09
1.77481e-16
6.14085e-16
2.08035e-15
5.97483e-15
1.54929e-14
3.72044e-14
8.15444e-14
1.72499e-13
3.52083e-13
6.63628e-13
1.11584e-12
2.10519e-12
4.40326e-12
1.64348e-11
5.2037e-11
2.17245e-10
1.36231e-09
3.19449e-09
1.53263e-09
9.53974e-17
4.04092e-16
1.47039e-15
5.19257e-15
1.55845e-14
4.42803e-14
1.14696e-13
2.70448e-13
5.81795e-13
1.17155e-12
2.17831e-12
4.15686e-12
1.02609e-11
3.23514e-11
1.10198e-10
5.13666e-10
1.52998e-09
2.62366e-09
1.1106e-09
3.89224e-17
1.97846e-16
8.30967e-16
3.39994e-15
1.20037e-14
3.88433e-14
1.10365e-13
3.00531e-13
7.59556e-13
1.78475e-12
3.79471e-12
7.95347e-12
2.14617e-11
6.70991e-11
2.08433e-10
6.28481e-10
1.60461e-09
2.1193e-09
7.19872e-10
1.17243e-17
6.82743e-17
3.49915e-16
1.50291e-15
6.25904e-15
2.21211e-14
7.42453e-14
2.32961e-13
6.42735e-13
1.67824e-12
4.03581e-12
9.40192e-12
2.45815e-11
7.21814e-11
2.63912e-10
6.69536e-10
1.32622e-09
1.46293e-09
5.27939e-10
2.36658e-18
1.63217e-17
9.40142e-17
4.94279e-16
2.34812e-15
1.00193e-14
3.52229e-14
1.22381e-13
3.90283e-13
1.12433e-12
3.03821e-12
7.85099e-12
2.08116e-11
6.28524e-11
2.15315e-10
5.94352e-10
1.01363e-09
9.48748e-10
3.17935e-10
3.81344e-19
2.85873e-18
1.94013e-17
1.21966e-16
6.49489e-16
2.91774e-15
1.18325e-14
4.52914e-14
1.59155e-13
5.26653e-13
1.6255e-12
4.72014e-12
1.34854e-11
3.84211e-11
1.20833e-10
3.62143e-10
7.25508e-10
6.21554e-10
1.67201e-10
4.25521e-20
3.82207e-19
3.04507e-18
2.16619e-17
1.28856e-16
6.1643e-16
2.79346e-15
1.19105e-14
4.80151e-14
1.79502e-13
6.46736e-13
2.13288e-12
6.59002e-12
1.89476e-11
5.18388e-11
1.50315e-10
3.56313e-10
3.8141e-10
9.96158e-11
3.60729e-21
3.77359e-20
3.44696e-19
2.7284e-18
1.75253e-17
9.58845e-17
5.01993e-16
2.45885e-15
1.10765e-14
4.80943e-14
2.01263e-13
7.57942e-13
2.62708e-12
8.23882e-12
2.20583e-11
5.29729e-11
1.12777e-10
1.74586e-10
5.91413e-11
2.18864e-22
2.75527e-21
2.51165e-20
1.85331e-19
1.15073e-18
6.95742e-18
4.33494e-17
2.88538e-16
1.75628e-15
9.35272e-15
4.55478e-14
2.09099e-13
8.22167e-13
2.76855e-12
8.19182e-12
2.1235e-11
3.79095e-11
7.83234e-11
2.97262e-11
1.14825e-23
1.4275e-22
1.39389e-21
1.13488e-20
8.6234e-20
6.48674e-19
4.81945e-18
3.45207e-17
2.44086e-16
1.58439e-15
9.40614e-15
4.95711e-14
2.29625e-13
8.40479e-13
2.62834e-12
7.05757e-12
1.33642e-11
2.4854e-11
1.75816e-11
4.93875e-25
6.30886e-24
6.00621e-23
5.04752e-22
4.51144e-21
4.25257e-20
3.95525e-19
3.54171e-18
3.13344e-17
2.52305e-16
1.82943e-15
1.1554e-14
6.03926e-14
2.48151e-13
8.44067e-13
2.3113e-12
3.89825e-12
1.08756e-11
9.48267e-12
2.00808e-26
2.195e-25
1.90106e-24
1.69353e-23
1.90711e-22
2.34275e-21
2.81128e-20
3.16653e-19
3.47507e-18
3.42084e-17
2.98836e-16
2.22449e-15
1.36246e-14
6.36908e-14
2.3438e-13
6.69622e-13
1.39161e-12
3.72388e-12
3.26313e-12
)
;

boundaryField
{
    leftWall
    {
        type            zeroGradient;
    }
    rightWall
    {
        type            zeroGradient;
    }
    lowerWall
    {
        type            zeroGradient;
    }
    atmosphere
    {
        type            inletOutlet;
        inletValue      uniform 0;
        value           nonuniform List<scalar> 
46
(
1.03701e-15
1.08141e-12
9.47807e-12
5.19027e-12
1.06967e-12
1.06557e-13
6.19154e-15
2.93172e-16
0
0
0
0
0
0
0
0
0
0
0
0
2.43823e-28
1.2393e-29
5.30326e-31
1.01216e-29
6.98634e-29
5.47122e-28
3.4723e-27
2.00808e-26
2.195e-25
1.90106e-24
0
0
0
0
0
0
0
0
0
0
0
0
0
0
3.72388e-12
3.26313e-12
)
;
    }
    defaultFaces
    {
        type            empty;
    }
}


// ************************************************************************* //
