/*--------------------------------*- C++ -*----------------------------------*\
| =========                 |                                                 |
| \\      /  F ield         | OpenFOAM: The Open Source CFD Toolbox           |
|  \\    /   O peration     | Version:  2312                                  |
|   \\  /    A nd           | Website:  www.openfoam.com                      |
|    \\/     M anipulation  |                                                 |
\*---------------------------------------------------------------------------*/
FoamFile
{
    version     2.0;
    format      ascii;
    arch        "LSB;label=32;scalar=64";
    class       volScalarField;
    location    "1.75";
    object      alpha.water_0;
}
// * * * * * * * * * * * * * * * * * * * * * * * * * * * * * * * * * * * * * //

dimensions      [0 0 0 0 0 0 0];

internalField   nonuniform List<scalar> 
2268
(
6.99579e-10
3.72312e-10
1.41465e-10
6.24925e-11
3.97931e-11
3.11844e-11
2.85548e-11
2.72729e-11
2.67548e-11
2.61446e-11
2.57545e-11
2.58985e-11
2.66048e-11
2.84219e-11
3.29093e-11
4.10703e-11
5.46388e-11
8.19394e-11
1.38027e-10
2.36162e-10
4.01834e-10
6.38119e-10
8.19186e-10
9.94739e-10
7.30387e-10
3.40826e-10
1.56376e-10
1.07921e-10
7.07686e-11
5.3773e-11
4.68159e-11
4.25921e-11
4.40522e-11
4.17195e-11
4.13077e-11
4.20755e-11
4.60769e-11
5.56068e-11
7.41107e-11
1.0961e-10
1.92521e-10
3.74972e-10
7.2152e-10
1.53814e-09
2.22339e-09
2.21172e-09
7.87423e-10
7.82796e-10
4.64779e-10
2.65056e-10
1.48835e-10
1.2642e-10
9.6066e-11
8.58438e-11
6.92062e-11
7.25198e-11
5.37583e-11
4.47459e-11
4.71863e-11
4.72099e-11
6.575e-11
8.328e-11
1.32739e-10
2.46373e-10
4.53902e-10
9.54732e-10
1.8652e-09
2.43022e-09
2.42449e-09
1.77253e-09
3.73731e-11
3.7366e-11
3.73731e-11
3.73677e-11
3.73748e-11
1.38396e-09
1.06278e-09
4.57982e-11
4.26169e-11
3.87638e-11
3.13883e-11
3.79817e-11
3.73754e-11
4.92877e-11
6.4451e-11
8.5978e-11
1.40696e-10
4.18068e-10
7.81339e-10
9.22549e-10
8.87728e-10
8.45818e-10
0.0407089
0.0324382
0.0427384
0.0318387
0.0310715
0.0287043
0.0163399
0.00135895
1.62719e-11
1.61723e-11
1.62817e-11
1.62206e-11
1.69864e-11
1.83484e-11
2.25124e-11
3.83441e-11
1.06045e-10
2.87852e-10
3.94829e-10
5.38227e-11
5.84226e-11
5.38227e-11
5.9346e-11
0.314808
0.33319
0.431115
0.585812
0.659814
0.675262
0.621765
0.466199
0.283227
0.129415
0.0488177
0.00753637
4.44634e-17
1.60542e-25
8.23089e-27
-8.5198e-30
-1.65443e-14
-1.2728e-14
8.19599e-20
0.000806969
0.012128
0.03702
0.0607426
0.0186004
0.036425
0.39919
0.996061
0.998049
0.998921
0.998921
0.998546
0.937135
0.839379
0.721023
0.607269
0.484472
0.370103
0.28402
0.235873
0.223755
0.249438
0.331652
0.458669
0.594339
0.693753
0.73907
1.49219e-06
0.000133216
0.0706024
0.671252
0.958545
0.994111
0.998565
0.997211
0.999141
0.999176
0.999271
0.9994
0.995638
0.978734
0.951253
0.930774
0.929913
0.943683
0.973861
0.997434
0.997384
0.982828
0.974902
0.123284
0.107884
0.042221
0.0306987
0.0306844
0.0306223
0.030599
0.0285353
0.0271437
0.0271118
0.0270791
0.0270455
0.0291686
0.0272767
0.0273035
0.0261239
0.0267512
0.0269674
0.0162628
0.0821363
0.0405833
0.0543215
0.0974607
0.13151
0.0600587
0.0331055
0.100562
0.17674
0.165597
0.0320523
0.00855336
0.00855745
0.00854694
0.0100012
0.0273206
0.0251734
0.0111039
0.0109553
0.0157107
0.0158052
0.0194622
0.0193955
0.0205988
0.195688
0.330424
0.426672
0.416907
0.417108
0.327779
0.121993
0.0243617
0.00855407
0.00860586
0.0663346
0.178823
0.12557
0.0676123
0.190061
0.492314
0.349547
0.141704
0.0297786
0.16817
0.331297
0.294727
0.205626
0.241246
0.417686
0.379666
0.231525
0.0683727
0.024963
0.0240454
0.088853
0.443765
0.515508
0.772267
0.892955
0.892745
0.796389
0.410937
0.18303
0.22357
0.128157
0.166741
0.361428
0.552491
0.614089
0.456922
0.198757
0.164208
0.251985
0.377283
0.865505
0.642731
0.874528
0.815405
0.867516
0.914288
0.797834
0.221709
0.131289
0.125236
0.189316
0.669501
0.852657
0.962601
0.999105
0.650692
0.281362
0.436293
0.845757
0.898683
0.745514
0.802448
0.579274
0.611072
0.829553
0.935001
0.379389
0.135991
0.125488
0.164426
0.818038
0.956014
0.999962
0.999972
0.882242
0.48857
0.581283
0.898683
0.898683
0.898683
0.440081
0.223942
0.399446
0.804899
0.981557
0.78717
0.441117
0.184307
0.257284
0.605452
0.806545
0.995073
0.999972
0.911549
0.473145
0.846086
0.898683
0.898683
0.898683
4.67389e-06
2.80024e-05
0.000844614
0.0274621
0.122048
0.541846
0.93363
0.967198
0.996824
0.999275
0.999271
0.999413
0.999616
0.999593
0.999576
0.999613
0.999608
0.997441
0.996122
0.997307
0.997388
0.986246
0.923209
2.6983e-05
1.33184e-05
0.000406629
0.000926479
0.00243674
0.0051405
0.107703
0.513186
0.848607
0.953528
0.990085
0.999396
0.994192
0.958148
0.954816
0.98978
0.99939
0.988708
0.968566
0.95122
0.943431
0.870521
0.706967
2.69145e-05
1.31453e-05
1.69752e-05
0.000676313
0.00344831
0.00305192
0.0324705
0.0470376
0.146715
0.358713
0.605385
0.794196
0.936228
0.924619
0.876047
0.758921
0.609918
0.488761
0.452297
0.47176
0.494106
0.347986
0.0755494
1.16371e-05
4.22537e-05
1.99977e-05
4.68167e-05
0.000150469
0.00120559
0.000562932
-1.78365e-20
-3.88809e-20
4.64191e-19
0.0229859
0.072774
0.130566
0.159265
0.129223
0.110744
0.0735842
0.00892613
0.00175012
0.000884014
0.00177791
0.0378646
0.0624662
9.84056e-06
4.47632e-05
3.38649e-05
1.50681e-05
2.65507e-06
3.35464e-06
3.73928e-06
-1.04691e-09
0.000295706
0.000227758
1.38004e-07
3.18927e-08
9.08476e-06
6.28871e-08
2.77831e-07
2.22883e-07
3.69233e-07
0.000511417
0.00188439
0.000439867
2.47231e-14
3.86204e-14
2.47231e-14
1.0331e-05
1.83272e-05
3.47598e-05
3.01344e-05
2.95197e-06
2.00447e-06
0.0002359
0.00323725
0.00185552
0.00104342
0.00172413
0.00114491
0.000999771
0.001307
0.00295804
0.00649374
0.0109727
0.0121398
0.012038
0.00359714
7.85855e-07
2.20877e-05
1.03729e-06
4.21751e-05
1.74906e-05
2.30472e-05
1.17722e-05
8.39195e-06
2.00176e-06
0.00322153
0.00545558
0.00547123
0.00548976
0.00643688
0.00644394
0.00632509
0.00603031
0.00967362
0.0130438
0.0127446
0.0110363
0.00485944
0.00176904
0.000638434
0.000179919
4.50385e-05
4.23409e-05
4.23015e-05
2.47702e-05
2.47764e-05
1.77152e-05
2.00447e-06
0.00293944
0.00543609
0.00407697
0.00202809
0.00240825
0.00193875
0.00120279
0.00106982
0.000469051
1.60703e-05
4.15903e-07
5.68928e-08
4.8075e-11
4.82621e-11
1.23701e-05
4.88914e-05
1.44479e-05
4.2338e-05
2.66686e-05
2.24658e-05
2.44676e-05
1.50696e-05
2.0018e-06
0.000615902
0.00541746
0.00214928
-4.72728e-21
-6.66285e-10
-1.54483e-24
-6.12331e-10
-1.6341e-10
-2.19116e-17
-3.48756e-10
3.58138e-07
2.57313e-07
3.69256e-08
4.79354e-11
4.79441e-11
4.79354e-11
5.47949e-06
2.89606e-05
2.84668e-06
2.17695e-06
2.33496e-06
7.13151e-06
1.00581e-05
4.52891e-07
0.00266889
0.000376223
2.15164e-06
1.86448e-06
1.30646e-06
4.36779e-07
1.14423e-13
2.68311e-08
1.03335e-06
1.35235e-06
7.57708e-07
3.92651e-08
1.28725e-10
2.50484e-10
1.37383e-07
0.00018707
3.98661e-06
2.61529e-06
1.49867e-06
7.1517e-07
7.58042e-07
1.32305e-05
4.94989e-07
2.42146e-07
2.41826e-07
1.9241e-06
1.95451e-06
1.95792e-06
4.8786e-07
1.33161e-10
5.172e-08
5.17896e-07
9.60201e-07
5.44623e-08
4.34564e-09
6.18518e-09
1.01629e-09
3.52094e-05
0.000340409
2.29662e-08
1.18401e-06
1.3056e-06
2.71106e-07
3.93265e-07
1.02409e-06
3.00877e-07
2.41897e-07
7.96726e-07
1.39314e-06
5.00049e-07
1.19572e-10
9.79458e-10
9.80242e-09
1.05781e-10
9.69654e-11
9.0807e-11
9.9634e-11
1.76823e-09
3.14611e-08
1.27147e-07
5.5846e-05
0.000231217
2.29782e-08
2.29662e-08
2.67577e-08
2.64316e-08
2.70994e-07
4.88545e-07
6.18366e-07
6.13239e-07
6.09485e-07
1.07743e-07
1.25287e-10
1.26711e-10
1.25292e-10
7.54572e-10
3.36548e-10
5.3231e-10
1.07016e-09
1.59211e-09
7.18356e-09
3.63128e-08
6.12687e-07
1.09035e-05
6.41795e-06
2.42656e-08
2.52523e-08
3.2035e-08
3.78592e-08
3.914e-08
1.37831e-07
2.75463e-07
2.72502e-07
3.60218e-08
3.59391e-10
1.37789e-09
3.86768e-10
2.17436e-10
2.27969e-10
3.90149e-10
7.01999e-10
1.1509e-09
1.8574e-09
2.21513e-09
2.653e-09
8.57414e-10
2.75856e-11
2.76155e-11
5.94914e-08
4.09637e-08
7.39501e-08
7.22433e-08
6.02581e-08
2.47531e-08
1.33339e-08
1.37052e-09
3.59391e-10
3.59043e-10
3.58679e-10
2.93887e-10
2.13498e-10
2.02327e-10
2.79195e-10
4.72134e-10
7.39159e-10
1.03684e-09
1.34038e-09
1.22948e-09
9.20635e-10
1.23665e-10
2.77051e-11
1.93224e-07
2.8648e-08
6.15077e-08
3.84253e-08
1.06301e-09
1.05004e-09
8.79153e-10
8.75309e-10
6.18647e-10
3.76301e-10
2.44137e-10
1.54029e-10
1.17087e-10
1.23228e-10
1.6444e-10
2.54665e-10
4.03236e-10
5.80046e-10
6.47413e-10
5.11626e-10
3.00466e-10
1.35135e-10
9.00406e-11
4.41416e-07
4.29143e-09
5.43248e-09
3.80889e-09
1.64376e-09
1.44313e-09
1.05316e-09
6.44506e-10
3.51607e-10
1.95918e-10
1.11797e-10
8.51502e-11
7.43249e-11
6.94592e-11
8.22717e-11
1.22276e-10
1.94195e-10
2.771e-10
3.16959e-10
2.00877e-10
1.13052e-10
1.19456e-10
2.65173e-10
5.4547e-07
4.27911e-09
3.08168e-09
2.66705e-09
1.38945e-09
8.90347e-10
4.85543e-10
2.9806e-10
1.77979e-10
1.08582e-10
6.91189e-11
5.24988e-11
3.908e-11
3.22435e-11
3.46504e-11
4.79786e-11
7.1972e-11
1.00819e-10
1.17094e-10
9.43711e-11
7.47223e-11
1.02139e-10
3.84262e-10
4.64365e-07
5.63213e-10
3.11857e-09
2.76323e-09
1.34893e-09
4.88887e-10
2.73272e-10
2.15257e-10
1.49426e-10
9.76278e-11
5.96565e-11
3.66522e-11
2.25586e-11
1.5463e-11
1.36539e-11
1.64517e-11
2.32613e-11
3.25736e-11
4.01346e-11
4.35074e-11
4.41846e-11
6.2505e-11
1.1686e-10
5.26496e-07
3.23287e-10
2.79288e-09
2.92451e-09
1.44076e-09
4.08748e-10
2.61961e-10
2.24005e-10
1.58437e-10
1.03538e-10
5.74199e-11
3.17534e-11
1.67881e-11
9.19477e-12
5.98454e-12
5.55698e-12
7.19185e-12
1.04885e-11
1.44468e-11
1.87895e-11
2.44776e-11
3.46805e-11
7.81538e-11
9.0906e-07
2.10382e-10
1.81413e-09
2.86116e-09
1.27713e-09
3.92837e-10
3.92131e-10
2.94041e-10
1.88527e-10
1.20132e-10
6.38638e-11
3.1324e-11
1.51175e-11
7.18553e-12
3.57397e-12
2.06319e-12
1.92113e-12
2.60063e-12
4.05205e-12
6.07568e-12
9.32909e-12
2.20541e-11
5.37345e-11
1.18389e-06
4.69235e-10
5.79177e-10
1.94984e-09
9.23991e-10
6.15618e-10
5.73465e-10
3.4681e-10
2.24739e-10
1.3764e-10
7.00502e-11
3.25479e-11
1.47691e-11
6.58423e-12
2.86307e-12
1.27561e-12
6.10629e-13
6.10083e-13
1.01334e-12
2.03975e-12
4.26681e-12
9.04655e-12
2.47701e-11
1.36035e-06
1.11173e-10
8.53064e-11
7.53748e-10
9.61167e-10
1.16549e-09
1.06834e-09
4.05535e-10
2.68443e-10
1.56359e-10
7.42939e-11
3.28982e-11
1.44853e-11
6.23748e-12
2.59221e-12
1.07102e-12
3.43706e-13
1.70383e-13
2.19492e-13
4.73889e-13
1.07411e-12
3.26035e-12
8.33396e-12
1.36064e-06
4.28988e-07
8.79501e-12
4.59514e-10
1.3516e-09
2.07971e-09
1.85194e-09
5.13925e-10
3.23928e-10
1.76385e-10
7.79608e-11
3.28533e-11
1.38876e-11
5.79626e-12
2.33957e-12
9.00123e-13
3.3383e-13
8.51575e-14
5.97131e-14
1.31707e-13
3.57698e-13
8.7559e-13
2.57918e-12
1.26579e-06
1.40853e-06
8.12893e-12
2.93114e-10
1.55507e-09
2.91808e-09
2.61435e-09
6.71986e-10
3.97802e-10
1.99997e-10
8.16048e-11
3.23741e-11
1.29594e-11
5.20941e-12
2.04997e-12
7.67117e-13
2.78814e-13
7.29381e-14
2.06613e-14
2.55059e-14
6.50444e-14
2.23414e-13
6.23259e-13
8.33904e-07
1.65603e-06
6.90814e-12
6.87339e-12
5.42798e-10
3.1743e-09
2.86861e-09
8.80624e-10
4.89879e-10
2.346e-10
8.79791e-11
3.18218e-11
1.18327e-11
4.52506e-12
1.72123e-12
6.295e-13
2.14166e-13
6.85598e-14
1.30459e-14
7.30758e-15
1.67505e-14
4.65037e-14
1.49143e-13
2.03657e-07
1.65321e-06
1.3089e-06
1.08763e-08
1.62217e-10
3.11396e-09
2.82912e-09
1.07095e-09
6.00947e-10
2.89681e-10
1.02314e-10
3.17066e-11
1.06657e-11
3.81724e-12
1.38341e-12
4.92342e-13
1.63512e-13
4.96026e-14
1.22381e-14
2.29703e-15
2.32753e-15
8.49803e-15
2.66296e-14
1.62052e-07
1.33534e-06
3.05076e-06
1.44862e-06
1.99288e-07
7.95029e-09
2.20894e-09
1.27655e-09
7.19516e-10
3.60349e-10
1.2512e-10
3.46646e-11
9.65284e-12
3.13872e-12
1.07413e-12
3.64161e-13
1.16175e-13
3.4307e-14
8.73912e-15
1.42037e-15
6.40476e-16
1.35003e-15
4.90476e-15
1.62113e-07
1.18309e-06
3.05044e-06
3.05076e-06
5.51375e-07
3.42091e-08
2.60586e-09
1.47373e-09
8.39143e-10
4.49696e-10
1.63035e-10
4.20907e-11
9.18265e-12
2.53906e-12
8.02779e-13
2.56149e-13
7.89667e-14
2.22026e-14
5.33452e-15
1.11637e-15
1.67707e-16
1.81627e-16
6.13651e-16
4.0475e-07
1.1799e-06
3.05071e-06
2.72088e-06
3.50374e-07
4.31834e-08
3.38609e-09
1.70601e-09
9.68306e-10
5.45169e-10
2.20205e-10
5.63377e-11
1.0225e-11
2.08035e-12
5.77037e-13
1.71743e-13
4.99902e-14
1.34659e-14
3.12038e-15
6.0511e-16
7.47027e-17
2.39978e-17
7.46029e-17
5.59604e-07
4.48663e-07
1.50895e-06
4.71463e-07
1.07276e-07
1.3877e-08
2.94711e-09
2.2108e-09
1.12126e-09
6.32024e-10
2.94603e-10
8.48491e-11
1.42752e-11
1.95515e-12
4.04049e-13
1.09787e-13
2.94481e-14
7.47671e-15
1.66432e-15
2.85131e-16
3.90193e-17
4.7392e-18
6.27661e-18
4.76896e-07
5.19385e-08
4.22762e-09
4.22766e-09
2.50392e-08
5.37507e-09
5.06216e-09
3.74881e-09
1.3362e-09
7.13935e-10
3.5299e-10
1.23442e-10
2.44443e-11
2.69019e-12
3.10434e-13
6.6091e-14
1.61611e-14
3.70491e-15
7.46766e-16
1.28864e-16
1.67648e-17
1.38684e-18
6.82237e-19
8.5711e-07
1.35095e-07
4.22766e-09
4.22762e-09
4.22766e-09
1.10278e-08
1.34858e-08
6.88132e-09
1.49431e-09
8.04097e-10
4.03584e-10
1.56269e-10
3.72466e-11
5.13773e-12
4.00697e-13
4.04193e-14
8.08698e-15
1.69061e-15
3.23416e-16
4.56541e-17
7.00007e-18
4.85089e-19
6.52085e-20
1.18769e-06
1.52043e-07
8.77361e-09
5.92737e-09
1.27368e-08
1.70952e-08
1.54329e-08
7.80211e-09
1.81231e-09
8.80075e-10
4.2744e-10
1.70646e-10
4.61589e-11
7.50844e-12
7.41632e-13
4.12302e-14
4.10434e-15
6.85815e-16
1.18863e-16
1.97487e-17
2.25758e-18
1.71954e-19
1.28365e-20
1.18749e-06
1.6216e-08
9.36452e-09
9.07947e-09
1.35231e-08
1.66356e-08
1.08815e-08
4.00372e-09
1.44221e-09
8.56466e-10
4.27435e-10
1.68244e-10
4.65982e-11
8.96494e-12
1.05796e-12
6.84837e-14
3.16717e-15
3.09335e-16
4.84008e-17
5.88699e-18
7.7435e-19
6.55478e-20
2.66227e-21
1.18808e-06
6.82136e-07
4.86345e-09
4.11907e-09
3.98606e-09
3.94915e-09
2.12491e-09
1.47864e-09
1.17271e-09
7.44773e-10
3.68859e-10
1.41067e-10
3.99786e-11
7.75828e-12
1.05506e-12
8.95254e-14
4.01179e-15
1.76547e-16
1.79717e-17
2.25698e-18
2.30522e-19
1.92704e-20
8.28612e-22
5.95231e-07
1.02233e-06
9.65755e-07
6.45694e-07
2.80773e-07
1.2039e-09
1.17827e-09
1.19385e-09
9.23e-10
5.46947e-10
2.51295e-10
8.93679e-11
2.46382e-11
4.75751e-12
7.30568e-13
6.77341e-14
4.39522e-15
1.66069e-16
7.40506e-18
6.31485e-19
6.07082e-20
4.88844e-21
2.11545e-22
3.28899e-08
8.34835e-07
1.10638e-06
1.10623e-06
5.27358e-07
1.18961e-09
1.19944e-09
1.11643e-09
7.01639e-10
3.37067e-10
1.29786e-10
4.09416e-11
9.67372e-12
2.00722e-12
2.87565e-13
3.41146e-14
2.67778e-15
1.29835e-16
4.23221e-18
2.05125e-19
1.47084e-20
9.74235e-22
3.64883e-23
1.39268e-08
6.34439e-08
4.60796e-07
4.00861e-07
1.27784e-07
4.92124e-09
2.00179e-09
1.10243e-09
4.49661e-10
1.57927e-10
4.60879e-11
1.16863e-11
2.40612e-12
4.56279e-13
6.61888e-14
8.55598e-15
8.39925e-16
5.77836e-17
2.41221e-18
8.66235e-20
3.85166e-21
1.9543e-22
7.07173e-24
4.70315e-09
4.46076e-09
1.76582e-09
1.75466e-09
2.05544e-09
2.17504e-09
9.57854e-10
3.66096e-10
1.21531e-10
3.51334e-11
8.70331e-12
1.78368e-12
3.31007e-13
5.00073e-14
7.97188e-15
1.14917e-15
1.48433e-16
1.57181e-17
1.10768e-18
5.10071e-20
1.51624e-21
4.91478e-23
1.77639e-24
1.26865e-09
3.15458e-09
2.33753e-09
1.74839e-09
1.11733e-09
5.16855e-10
1.77882e-10
5.42747e-11
1.52519e-11
3.46158e-12
6.91732e-13
1.21108e-13
1.88474e-14
3.25683e-15
5.67852e-16
9.97402e-17
1.70016e-17
2.59628e-18
3.22437e-19
2.74923e-20
1.00932e-21
2.81734e-23
5.06921e-25
3.35606e-10
9.82867e-10
9.36527e-10
5.57378e-10
2.22708e-10
6.44106e-11
1.4242e-11
2.79584e-12
5.63403e-13
1.07032e-13
1.83615e-14
3.12391e-15
5.97667e-16
1.15472e-16
2.49993e-17
5.42061e-18
1.09463e-18
2.10254e-19
3.60434e-20
5.18521e-21
5.65275e-22
3.67066e-23
5.47781e-25
0.808979
0.769674
0.663754
0.664785
0.506181
0.239511
0.0860967
0.153219
0.0237282
0.00591751
0.00109871
9.99498e-05
0.0429056
0.0410137
0.0389973
0.00915355
0.0476805
0.0674491
0.0672137
0.0421104
6.93633e-08
6.42749e-08
6.91753e-08
6.42852e-08
2.95477e-05
2.08944e-05
1.30367e-05
6.90922e-06
1.37464e-05
1.69582e-05
3.83509e-05
6.51071e-05
0.000198642
0.000277169
0.000365792
0.000398948
0.000396029
0.000398297
0.000398948
0.000399299
0.000324336
0.000252011
0.000171987
0.000175349
9.08317e-05
3.06044e-05
1.02563e-05
1.03481e-05
5.03589e-05
3.41366e-05
1.2718e-05
1.64095e-05
1.42079e-05
3.46451e-05
1.84383e-05
3.4504e-05
2.78573e-11
4.1364e-06
1.1601e-05
1.28196e-05
1.50667e-10
5.55716e-11
6.79489e-11
5.73408e-09
1.13872e-09
2.72743e-09
3.37001e-09
3.57512e-09
2.91067e-09
6.02962e-09
2.19361e-08
3.36267e-08
9.83608e-10
3.64788e-09
4.82497e-09
5.27866e-09
3.35961e-10
7.97825e-10
1.16298e-09
1.52538e-09
1.19546e-10
1.8011e-10
2.45561e-10
2.98725e-10
6.0869e-11
8.49174e-11
1.20577e-10
1.6358e-10
1.97961e-11
3.38039e-11
5.13228e-11
7.08169e-11
7.046e-12
1.07686e-11
1.66118e-11
2.46234e-11
1.61496e-12
3.17025e-12
5.00296e-12
7.6507e-12
4.49175e-13
7.25718e-13
1.30184e-12
2.04503e-12
8.24893e-14
1.75924e-13
2.96822e-13
5.0527e-13
1.53196e-14
2.84053e-14
5.90403e-14
9.98411e-14
1.78764e-15
5.00724e-15
9.26482e-15
1.80587e-14
2.68085e-16
5.00435e-16
1.29588e-15
2.32406e-15
2.64542e-17
6.0793e-17
1.28833e-16
2.85735e-16
2.17049e-18
4.88616e-18
1.37849e-17
2.62482e-17
1.29742e-19
4.68472e-19
1.11789e-18
2.6683e-18
1.18397e-20
3.06353e-20
9.77529e-20
2.246e-19
4.90347e-22
2.07775e-21
6.44713e-21
1.88297e-20
4.5234e-23
1.16387e-22
4.40743e-22
1.36097e-21
3.84582e-24
6.87597e-24
2.74209e-23
1.07986e-22
6.28181e-25
3.70554e-25
1.48618e-24
6.14206e-24
1.47081e-25
2.50141e-26
6.50212e-26
3.63971e-25
4.66344e-26
3.75686e-27
3.34193e-27
1.58268e-26
1.35869e-26
9.49088e-28
2.36076e-28
8.0767e-28
5.83293e-27
3.02266e-28
3.1316e-29
3.83287e-29
0.302661
0.0743029
0.477697
0.938568
0.994211
0.991919
0.964966
0.897287
0.865004
0.896288
0.96495
0.996554
0.999972
0.770466
0.423741
0.827667
0.684193
0.62106
0.898683
0.125958
0.0203735
0.286982
0.977444
0.998073
0.99989
0.999959
0.999972
0.999972
0.999972
0.999972
0.999972
0.999972
0.968615
0.444247
0.386962
0.567923
0.554974
0.892332
9.93882e-05
9.90573e-05
9.93882e-05
0.132298
0.722968
0.978475
0.980195
0.980126
0.996771
0.999972
0.999972
0.999972
0.999972
0.974565
0.425514
0.334714
0.551577
0.539155
0.506174
0.00013109
0.0046291
0.00654314
0.0267495
0.0631797
0.213851
0.388683
0.650606
0.954007
0.990314
0.999969
0.993077
0.994718
0.979226
0.438776
0.334922
0.615214
0.463366
0.181515
0.0064207
0.00320298
0.0316044
0.0368074
0.0198702
0.00289093
0.000757825
0.0329676
0.221598
0.636039
0.982127
0.938031
0.949839
0.97961
0.823398
0.48699
0.69137
0.562077
0.181482
0.000184877
0.0098464
0.0355689
0.0369876
0.0368074
0.0172902
0.000842112
0.00325161
0.00108099
0.0479529
0.404617
0.712145
0.897923
0.977466
0.977251
0.886233
0.895557
0.858238
0.21943
4.72848e-06
4.92842e-06
0.00350965
0.0118576
0.0304466
0.0277027
0.00396239
5.66356e-05
4.42233e-06
0.00651776
0.00759048
0.119617
0.649761
0.950083
0.965853
0.881435
0.888627
0.881604
0.266343
4.2103e-05
4.39942e-05
-2.31062e-08
3.09334e-08
0.0023602
0.00967131
0.00507688
8.24086e-06
7.22806e-15
0.00485376
0.0071364
0.0044461
0.119198
0.383362
0.171413
0.209197
0.759527
0.880149
0.359169
0.000341781
0.000169032
6.86344e-05
3.44435e-07
5.22383e-10
4.02415e-10
0.00215747
7.22799e-15
7.22686e-15
0.000738102
0.00344512
0.0044327
0.00424463
0.00278187
1.4722e-07
0.0193535
0.615507
0.846782
0.436244
0.000398644
0.000395601
0.000213495
1.2001e-05
4.34456e-15
4.47493e-08
7.70965e-08
2.53097e-06
4.0653e-06
6.25671e-07
0.000685368
0.00406994
0.00413053
0.000441776
1.83372e-07
0.0714597
0.636139
0.745977
0.336931
6.46528e-05
2.00822e-05
0.000112679
8.7266e-06
-2.80565e-10
7.69205e-08
6.43117e-08
2.93869e-06
4.21439e-06
1.32542e-06
0.000195371
0.000860597
0.000904897
0.000551617
0.00217407
0.153012
0.69901
0.721276
0.30389
1.03449e-05
1.067e-05
1.09009e-05
1.15137e-05
3.10165e-09
6.1107e-08
5.87285e-07
1.40063e-06
9.94756e-07
9.17008e-05
0.00274403
0.0046959
0.00392045
0.00236426
0.00159945
0.0349798
0.279968
0.493458
0.257729
3.93938e-05
5.2344e-05
8.21627e-06
2.35977e-06
4.09771e-11
1.347e-11
7.78494e-06
1.99971e-05
1.03467e-06
1.98076e-05
0.00633911
0.0112364
0.0112343
0.00530428
0.00159254
-9.60482e-06
1.33729e-12
0.0337924
0.0631657
0.00010417
0.000114604
2.22777e-05
1.18051e-07
1.15952e-08
3.13865e-07
1.49029e-05
2.70916e-05
6.43622e-06
8.96239e-06
0.000627803
0.00706551
0.0112361
0.0112338
0.00344416
0.00115324
-1.33729e-12
2.099e-09
3.79657e-20
7.23198e-05
0.000116529
8.70282e-05
2.24868e-05
1.34782e-07
1.08689e-06
1.9047e-05
2.70851e-05
1.40202e-05
8.00727e-06
0.00031243
0.000149411
0.00316446
0.0106517
0.00931776
0.000800464
2.23996e-05
4.37878e-05
0.000152335
4.6022e-06
6.13517e-05
0.000103566
5.63047e-05
1.02312e-05
1.15355e-06
1.05562e-05
2.31961e-05
1.02792e-05
0.000216442
0.000828967
0.000127195
2.456e-05
5.30772e-07
0.00261294
0.00279877
3.50773e-05
9.73307e-05
0.000279833
3.68174e-07
8.89194e-06
5.91921e-05
6.89701e-05
2.22991e-05
9.30407e-07
6.78347e-06
1.02728e-05
5.99049e-06
0.000734662
0.000832627
0.000779573
2.67159e-05
1.5416e-06
4.56218e-08
3.44265e-07
0.000503799
0.000194126
0.000100031
3.32853e-08
5.60912e-09
2.59728e-06
2.30263e-05
2.10346e-05
1.42233e-06
2.68367e-06
2.726e-06
1.01757e-05
0.000293597
0.000519369
0.000779895
0.000572823
3.4329e-05
4.19672e-08
7.13528e-07
2.7391e-06
1.05259e-16
6.90985e-20
6.17876e-09
5.51978e-09
2.27621e-09
1.16486e-09
1.29199e-06
2.09524e-06
4.47155e-06
4.1262e-05
5.21509e-05
7.35419e-06
2.81499e-06
0.000523739
0.000588955
0.000249953
4.64544e-08
6.92967e-08
1.39924e-11
1.46679e-11
5.69872e-12
2.22447e-09
3.20781e-09
2.22061e-09
1.14104e-09
1.18033e-08
8.4419e-07
3.49718e-06
2.68374e-05
5.30174e-05
9.8744e-06
1.11629e-06
3.21266e-05
9.77556e-05
6.22136e-05
1.37968e-05
5.67199e-07
1.13245e-08
1.34897e-11
1.28069e-11
3.84658e-10
6.70065e-10
1.08939e-09
1.11263e-09
7.75153e-09
9.59863e-08
7.3203e-07
1.21362e-06
7.15801e-06
1.56434e-06
7.57462e-08
3.40077e-06
1.06458e-05
5.33297e-06
2.16828e-06
1.37418e-07
1.82881e-10
2.01059e-10
3.00656e-11
2.14127e-10
3.35282e-10
4.94097e-10
6.67223e-10
1.75087e-09
1.61511e-08
2.1575e-09
4.61855e-08
3.26727e-09
1.5953e-08
5.25824e-08
1.75132e-10
1.75124e-10
7.17661e-09
1.75113e-10
9.02423e-09
3.72182e-09
7.91837e-10
3.83373e-11
9.67837e-11
1.63593e-10
2.58409e-10
3.3993e-10
3.80979e-10
2.05287e-09
2.15734e-09
5.9384e-10
3.18828e-09
2.44961e-09
5.12377e-09
7.60725e-10
1.7512e-10
1.75116e-10
1.75111e-10
1.75102e-10
3.32854e-10
1.63087e-10
2.71641e-11
3.53798e-11
6.70562e-11
1.04972e-10
1.63942e-10
2.05661e-10
2.38325e-10
3.90533e-10
4.21956e-10
6.73388e-10
7.48729e-10
3.42736e-10
2.90402e-10
2.22084e-10
1.99599e-10
1.86505e-10
1.74274e-10
1.48368e-10
7.53831e-11
7.39579e-12
1.15769e-11
2.3899e-11
4.27224e-11
6.27582e-11
9.33764e-11
1.15419e-10
1.44292e-10
2.13979e-10
2.36883e-10
2.76907e-10
2.64119e-10
2.4799e-10
2.2385e-10
1.97041e-10
1.65356e-10
1.36004e-10
1.0236e-10
3.05677e-11
4.5727e-12
3.36106e-12
7.63867e-12
1.53148e-11
2.6129e-11
3.57042e-11
4.72472e-11
6.00518e-11
8.3232e-11
1.17106e-10
1.38395e-10
1.45807e-10
1.51665e-10
1.49878e-10
1.37148e-10
1.16561e-10
8.77874e-11
4.3213e-11
1.18877e-11
1.96183e-12
8.33401e-13
2.14259e-12
4.73076e-12
9.16528e-12
1.49251e-11
2.11411e-11
2.77786e-11
3.74153e-11
4.93824e-11
6.07858e-11
6.82844e-11
7.47288e-11
7.89137e-11
7.78744e-11
7.49903e-11
5.66202e-11
2.51399e-11
4.33925e-12
1.40347e-12
1.83272e-13
4.94058e-13
1.2611e-12
2.74837e-12
5.14775e-12
8.09309e-12
1.14191e-11
1.54589e-11
2.03276e-11
2.58586e-11
3.08715e-11
3.4471e-11
3.75807e-11
4.0623e-11
3.93943e-11
2.87454e-11
1.00584e-11
2.91296e-12
1.18021e-12
3.29529e-14
9.69041e-14
2.79064e-13
6.80692e-13
1.42378e-12
2.49056e-12
3.8562e-12
5.512e-12
7.42714e-12
9.83544e-12
1.31578e-11
1.60046e-11
1.79478e-11
1.99623e-11
1.68532e-11
8.89354e-12
2.89808e-12
1.45398e-12
1.02815e-12
4.66125e-15
1.53563e-14
4.6769e-14
1.30394e-13
3.07467e-13
6.1015e-13
1.02278e-12
1.54315e-12
2.14165e-12
2.49636e-12
2.40726e-12
2.27664e-12
2.88471e-12
7.05259e-12
6.21042e-12
1.78391e-12
7.3268e-13
1.12161e-12
8.72852e-13
5.53304e-16
1.77121e-15
6.26149e-15
1.86888e-14
4.77903e-14
1.01296e-13
1.61145e-13
1.95336e-13
8.50876e-14
6.75962e-14
4.30264e-14
5.59897e-14
1.26459e-13
9.50028e-13
9.54441e-13
3.47625e-13
4.62245e-13
9.63188e-13
7.92547e-13
5.88048e-17
2.02637e-16
6.48076e-16
2.23668e-15
5.67342e-15
1.09328e-14
1.53079e-14
4.60292e-15
9.08741e-16
1.73212e-15
5.61179e-15
1.12566e-14
1.66974e-14
1.06114e-13
1.485e-13
2.16377e-13
4.58823e-13
8.81621e-13
6.40308e-13
5.56689e-18
2.04259e-17
6.69663e-17
2.09083e-16
5.5173e-16
1.05917e-15
1.25968e-15
6.17362e-16
7.22214e-16
1.65292e-15
3.56375e-15
7.40374e-15
1.71723e-14
4.65911e-14
1.07302e-13
2.19848e-13
4.75818e-13
7.99877e-13
4.92434e-13
5.19546e-19
1.97194e-18
7.00343e-18
2.14388e-17
5.79191e-17
1.08897e-16
1.57739e-16
2.3518e-16
5.97052e-16
1.51261e-15
3.50945e-15
7.75046e-15
1.83115e-14
4.5634e-14
1.22624e-13
2.52173e-13
4.65977e-13
6.98938e-13
4.02086e-13
4.51157e-20
1.94958e-19
7.19911e-19
2.41922e-18
6.72793e-18
1.67424e-17
4.04764e-17
1.18946e-16
3.69448e-16
1.03299e-15
2.69133e-15
6.6068e-15
1.60808e-14
4.17909e-14
1.12496e-13
2.545e-13
4.40223e-13
5.63548e-13
2.87726e-13
4.16321e-21
1.94783e-20
8.0984e-20
3.15823e-19
1.09466e-18
3.60962e-18
1.26902e-17
4.54117e-17
1.56114e-16
5.02233e-16
1.49775e-15
4.15515e-15
1.11032e-14
2.8717e-14
7.79128e-14
1.98802e-13
3.74458e-13
4.4568e-13
1.70884e-13
3.465e-22
1.90378e-21
9.27368e-21
4.26889e-20
1.8199e-19
7.22429e-19
3.0207e-18
1.2603e-17
4.88933e-17
1.78652e-16
6.26093e-16
1.9913e-15
5.86298e-15
1.58695e-14
4.06076e-14
1.09685e-13
2.38805e-13
3.04708e-13
1.09656e-13
2.58364e-23
1.68784e-22
9.4979e-22
4.98055e-21
2.40013e-20
1.13779e-19
5.62854e-19
2.68233e-18
1.18671e-17
5.08144e-17
2.04626e-16
7.50926e-16
2.51377e-15
7.57464e-15
1.96679e-14
4.66695e-14
1.00043e-13
1.62594e-13
6.6201e-14
1.57423e-24
1.2601e-23
7.31765e-23
3.56938e-22
1.66193e-21
8.70189e-21
5.1853e-20
3.28183e-19
1.95383e-18
1.01895e-17
4.86258e-17
2.18761e-16
8.40807e-16
2.75555e-15
7.96116e-15
2.0938e-14
4.15061e-14
7.79521e-14
3.39343e-14
8.90566e-26
7.43672e-25
4.64082e-24
2.45219e-23
1.34367e-22
8.58524e-22
5.97886e-21
4.14621e-20
2.8516e-19
1.81374e-18
1.06014e-17
5.50832e-17
2.51445e-16
9.04277e-16
2.78487e-15
7.51655e-15
1.53127e-14
2.70727e-14
2.02426e-14
4.32473e-27
4.05621e-26
2.52662e-25
1.34309e-24
7.9638e-24
6.0562e-23
5.18551e-22
4.43207e-21
3.78347e-20
2.97556e-19
2.12808e-18
1.33266e-17
6.90905e-17
2.80373e-16
9.41088e-16
2.59278e-15
4.64546e-15
1.21862e-14
1.11255e-14
1.8394e-28
1.71418e-27
1.10031e-26
6.23032e-26
4.09431e-25
3.66763e-24
3.91573e-23
4.15344e-22
4.35737e-21
4.17138e-20
3.59898e-19
2.66925e-18
1.63142e-17
7.55995e-17
2.74378e-16
7.86107e-16
1.69628e-15
4.30878e-15
3.93678e-15
)
;

boundaryField
{
    leftWall
    {
        type            zeroGradient;
    }
    rightWall
    {
        type            zeroGradient;
    }
    lowerWall
    {
        type            zeroGradient;
    }
    atmosphere
    {
        type            inletOutlet;
        inletValue      uniform 0;
        value           nonuniform List<scalar> 
46
(
3.35606e-10
9.82867e-10
9.36527e-10
5.57378e-10
2.22708e-10
6.44106e-11
1.4242e-11
2.79584e-12
0
0
0
0
0
0
0
0
0
0
0
0
5.65275e-22
3.67066e-23
5.47781e-25
5.83293e-27
3.02266e-28
3.1316e-29
3.83287e-29
1.8394e-28
1.71418e-27
1.10031e-26
6.23032e-26
0
0
0
0
0
0
0
0
0
0
0
0
0
4.30878e-15
3.93678e-15
)
;
    }
    defaultFaces
    {
        type            empty;
    }
}


// ************************************************************************* //
