/*--------------------------------*- C++ -*----------------------------------*\
| =========                 |                                                 |
| \\      /  F ield         | OpenFOAM: The Open Source CFD Toolbox           |
|  \\    /   O peration     | Version:  2312                                  |
|   \\  /    A nd           | Website:  www.openfoam.com                      |
|    \\/     M anipulation  |                                                 |
\*---------------------------------------------------------------------------*/
FoamFile
{
    version     2.0;
    format      ascii;
    arch        "LSB;label=32;scalar=64";
    class       volScalarField;
    location    "1.75";
    object      p;
}
// * * * * * * * * * * * * * * * * * * * * * * * * * * * * * * * * * * * * * //

dimensions      [1 -1 -2 0 0 0 0];

internalField   nonuniform List<scalar> 
2268
(
4527.08
4522.47
4521.93
4525.21
4543.88
4584.73
4660.73
4765.53
4894.12
5034.73
5172.12
5293.12
5389.4
5458.09
5499.83
5517.36
5514.53
5495.86
5465.21
5427.94
5389.42
5356.07
5335.24
3729.03
3723.72
3724.43
3725.61
3742.42
3782.15
3856.7
3963.46
4094.79
4238.24
4377.84
4500.32
4597.38
4666.46
4708.18
4725.29
4721.56
4701.54
4668.45
4627.93
4586.11
4550.06
4527.17
2933.11
2929.7
2926.35
2923.31
2935.52
2971.74
3045.29
3155.74
3292.33
3441.37
3584.96
3709.87
3808.41
3878.6
3920.8
3937.39
3932.04
3909.2
3871.56
3824.89
3776.7
3734.83
3708.05
2138.13
2134.2
2127.63
2118.3
2123.47
2153.98
2227.64
2343.52
2487.16
2644.82
2793.95
2921.97
3022.36
3094.17
3137.17
3153.11
3144.63
3118.87
3074.47
3018.31
2960.37
2909.14
2876.82
1356.42
1354.68
1345.28
1321.29
1314.85
1334.77
1404.24
1522.01
1677.73
1848.63
2004.97
2136.76
2239.34
2313.47
2357.68
2372.99
2360.38
2331.04
2277.22
2207.77
2135.66
2070.75
2031.14
749.846
751.275
759.631
751.503
753.337
770.118
804.092
865.144
970.161
1097.58
1229.83
1350.75
1455.91
1535.16
1582.84
1598.15
1578.46
1548.59
1483.42
1396.98
1311.78
1241.76
1203.49
507.699
512.378
529.318
548.955
563.405
582.712
598.048
605.687
621.652
654.88
708.731
765.028
823.438
872.862
902.86
910.716
904.803
876.68
831.017
780.229
737.954
710.842
694.684
471.541
468.177
476.595
490.187
499.223
517.578
535.686
544.173
543.239
540.934
542.436
547.507
552.86
555.935
552.416
545.296
539.914
534.18
531.06
535.665
542.7
553.627
554.314
2893.3
2814.49
2820.69
2818.06
2872.38
2956.27
2860.06
2658.73
2539.45
2487.6
2454.95
2444.74
2471.7
2539.04
2689.96
2895.09
3057.47
3138.04
3172.34
2248.9
2199.72
2188.63
2148.94
2205.21
2290.97
2210.24
2003.45
1890.85
1846.85
1803.39
1804.42
1855.75
1909.16
2022.17
2164.82
2317.64
2394.04
2414.67
1802.67
1803.93
1783.78
1705.78
1699.83
1750.69
1734.3
1580.5
1500.5
1472.81
1432.45
1427.7
1468.63
1509.18
1581.16
1663.08
1752.15
1779.33
1766.95
1522.76
1558
1539.33
1463.86
1385.01
1355.57
1351.93
1322.14
1299.2
1285.4
1274.08
1274.67
1288.44
1301.41
1354.03
1400.08
1434.98
1423.8
1419.83
1268.73
1373
1365.35
1269.52
1135.97
1086.57
1105.54
1145.91
1164.91
1165.92
1185.56
1209.91
1236.36
1233.19
1264.8
1267.57
1287.2
1302.61
1316.7
1064.87
1186.15
1185.88
1078.21
936.307
954.863
1000.48
1036.34
1060.07
1081.52
1115.77
1151.6
1184.87
1194.79
1223.89
1219.55
1226.99
1249.57
1264.61
831.217
909.875
902.972
855.847
793.892
847.012
901.167
933.503
963.002
1007.84
1049.87
1085.38
1122.21
1143.47
1165.31
1173.8
1180.43
1195.65
1212.29
531.765
597.92
594.971
595.911
679.37
734.347
793.274
837.89
890.938
944.823
983.976
1022.1
1060.46
1086.01
1097.03
1119.3
1126.12
1138.8
1156.49
415.188
411.647
420.442
423.583
424.374
430.061
443.02
454.128
457.006
456.772
457.945
459.849
458.643
451.698
440.693
429.944
425.982
429.275
435.31
441.427
447.911
456.664
459.515
346.849
337.161
351.735
352.459
351.976
346.866
346.047
348.423
347.026
344.837
343.427
342.453
339.91
333.196
322.442
310.979
305.654
306.472
309.388
312.038
314.271
314.14
305.038
289.958
276.159
285.655
288.362
291.006
286.825
281.531
273.708
263.66
252.414
242.403
234.726
228.597
222.303
214.194
205.83
199.767
198.781
200.009
200.884
201.508
202.036
202.518
232.485
227.367
219.992
220.562
227.391
228.406
223.501
214.021
200.969
186.498
172.694
160.718
151.5
145.18
138.174
131.495
126.3
123.043
120.696
118.593
116.759
116.238
118.311
174.693
181.687
162.468
155.95
161.932
167.52
162.259
150.087
138.341
127.584
118.86
110.628
103.691
95.6691
87.2344
77.932
68.8469
60.6133
53.7386
48.1098
43.6087
40.6976
39.0215
120.776
130.596
117.747
110.084
108.224
109.24
104.742
93.5506
79.1575
67.2346
60.1622
55.6272
50.4406
44.057
36.6773
28.7635
21.3061
15.5845
10.8011
7.38858
5.13303
3.85906
3.24833
63.3763
67.6555
70.0658
66.481
58.1582
57.998
57.618
45.8877
24.356
10.3193
10.159
10.6529
10.1158
8.27283
5.47029
2.27348
-0.0303554
-0.234763
-0.485352
-0.593003
-0.605158
-0.574184
-0.50974
13.3703
14.8464
22.9296
18.5976
13.8324
16.9549
21.3625
12.7774
0.881904
-0.707947
-0.774415
-0.963383
-1.00731
-1.02011
-1.02768
-1.02331
-0.985366
-0.977873
-0.938262
-0.896271
-0.856302
-0.812271
-0.752405
-1.28637
-1.35053
-1.2284
-1.27415
-1.22085
-0.506407
1.32369
-0.39667
-1.22743
-1.19452
-1.20978
-1.21913
-1.20338
-1.18993
-1.17527
-1.15716
-1.13284
-1.11264
-1.08642
-1.05539
-1.0197
-0.984437
-0.932702
-1.45504
-1.47055
-1.47508
-1.47662
-1.52171
-1.61252
-1.65684
-1.653
-1.52728
-1.39216
-1.37304
-1.36418
-1.34361
-1.32525
-1.30795
-1.28951
-1.27004
-1.25196
-1.23267
-1.21069
-1.18563
-1.15655
-1.1241
-1.5967
-1.60553
-1.6224
-1.62811
-1.66523
-1.73376
-1.76918
-1.75652
-1.6523
-1.5493
-1.51757
-1.50096
-1.48248
-1.46322
-1.44323
-1.42561
-1.40972
-1.39594
-1.38272
-1.36852
-1.3534
-1.33785
-1.3284
-1.73082
-1.73761
-1.74981
-1.76107
-1.78575
-1.82463
-1.83619
-1.80932
-1.73444
-1.6774
-1.64388
-1.62404
-1.61063
-1.59687
-1.58102
-1.56676
-1.55463
-1.54455
-1.53534
-1.52682
-1.51992
-1.51778
-1.52315
-1.86185
-1.86769
-1.87684
-1.88723
-1.90013
-1.91363
-1.90758
-1.88065
-1.8344
-1.79687
-1.77011
-1.75333
-1.7427
-1.73354
-1.72099
-1.71109
-1.70201
-1.69424
-1.68783
-1.68313
-1.68127
-1.68527
-1.69492
-1.98733
-1.99281
-2.00035
-2.00908
-2.01581
-2.01648
-2.00132
-1.9733
-1.94426
-1.91961
-1.90199
-1.89043
-1.88201
-1.87379
-1.86471
-1.85651
-1.84925
-1.84326
-1.83885
-1.83645
-1.83694
-1.84192
-1.85145
-2.10737
-2.11314
-2.12023
-2.12771
-2.1322
-2.12857
-2.11084
-2.08713
-2.06874
-2.05451
-2.04191
-2.03187
-2.02356
-2.01585
-2.00835
-2.00154
-1.99568
-1.99108
-1.98805
-1.987
-1.98856
-1.99365
-2.00255
-2.22483
-2.23155
-2.2389
-2.24566
-2.24879
-2.24488
-2.23161
-2.21572
-2.20311
-2.19163
-2.18147
-2.17272
-2.16502
-2.15801
-2.15156
-2.14586
-2.14111
-2.13756
-2.13549
-2.13521
-2.13718
-2.1418
-2.14865
-2.34539
-2.35345
-2.36124
-2.36766
-2.37023
-2.36711
-2.35852
-2.34802
-2.33821
-2.32898
-2.32051
-2.31286
-2.30596
-2.29971
-2.29412
-2.28932
-2.28547
-2.28275
-2.28136
-2.28153
-2.28357
-2.28757
-2.2928
-2.47184
-2.48018
-2.48804
-2.49431
-2.49707
-2.49531
-2.48967
-2.48206
-2.47413
-2.46641
-2.45914
-2.45242
-2.44629
-2.44077
-2.43593
-2.43189
-2.42878
-2.42674
-2.42591
-2.42644
-2.42851
-2.43208
-2.43638
-2.60291
-2.6107
-2.61846
-2.62484
-2.62788
-2.62712
-2.62304
-2.61707
-2.61044
-2.60378
-2.5974
-2.59145
-2.586
-2.58114
-2.57696
-2.57357
-2.57109
-2.56963
-2.56929
-2.57019
-2.57242
-2.57594
-2.58015
-2.73783
-2.7453
-2.75251
-2.75844
-2.76135
-2.76096
-2.75777
-2.75277
-2.74698
-2.74106
-2.73534
-2.72999
-2.72512
-2.72083
-2.71722
-2.71439
-2.71245
-2.7115
-2.71162
-2.7129
-2.71544
-2.7192
-2.72383
-2.87638
-2.88267
-2.88884
-2.89402
-2.89655
-2.89621
-2.89343
-2.88895
-2.88367
-2.87821
-2.87295
-2.86805
-2.86365
-2.85984
-2.85672
-2.85438
-2.85292
-2.85242
-2.85297
-2.85465
-2.85755
-2.86167
-2.86691
-3.0164
-3.02137
-3.02644
-3.0308
-3.03284
-3.03236
-3.02971
-3.02544
-3.02039
-3.01519
-3.01022
-3.00566
-3.00163
-2.99821
-2.99551
-2.99359
-2.99254
-2.99245
-2.99338
-2.99544
-2.9987
-3.00322
-3.00898
-3.15639
-3.16027
-3.16447
-3.16814
-3.16971
-3.16904
-3.1663
-3.16205
-3.15704
-3.15194
-3.14713
-3.14279
-3.13904
-3.13595
-3.1336
-3.13205
-3.13137
-3.13163
-3.13292
-3.13531
-3.1389
-3.14377
-3.14994
-3.29551
-3.29862
-3.30226
-3.30546
-3.30669
-3.30578
-3.30293
-3.2986
-3.29351
-3.28838
-3.28363
-3.27943
-3.27589
-3.27307
-3.27101
-3.26978
-3.26943
-3.27001
-3.2716
-3.27428
-3.27815
-3.28328
-3.28973
-3.43318
-3.43582
-3.43921
-3.44224
-3.44331
-3.44228
-3.43934
-3.43488
-3.42964
-3.42442
-3.41965
-3.41554
-3.41216
-3.40956
-3.40777
-3.40682
-3.40675
-3.40761
-3.40946
-3.41238
-3.41646
-3.42176
-3.42838
-3.56891
-3.57127
-3.57472
-3.57797
-3.57914
-3.57817
-3.57525
-3.57072
-3.56531
-3.55996
-3.55514
-3.55108
-3.54784
-3.54544
-3.54388
-3.54318
-3.54336
-3.54446
-3.54652
-3.54963
-3.55385
-3.55925
-3.56591
-3.70254
-3.70465
-3.70826
-3.71201
-3.71378
-3.71318
-3.71045
-3.70592
-3.70036
-3.69489
-3.69003
-3.68602
-3.68291
-3.68069
-3.67935
-3.67887
-3.67927
-3.68057
-3.68281
-3.68604
-3.69034
-3.69576
-3.70236
-3.83423
-3.83625
-3.83992
-3.84386
-3.84642
-3.84672
-3.84467
-3.8402
-3.83461
-3.82908
-3.82424
-3.82032
-3.81736
-3.81533
-3.81419
-3.81392
-3.81451
-3.81598
-3.81834
-3.82165
-3.82596
-3.83132
-3.83779
-3.96452
-3.96658
-3.97021
-3.97398
-3.97682
-3.97801
-3.97702
-3.97312
-3.96786
-3.9624
-3.95771
-3.95395
-3.95119
-3.94937
-3.94844
-3.94836
-3.94912
-3.95072
-3.95316
-3.95649
-3.96076
-3.96599
-3.97225
-4.09445
-4.0965
-4.09992
-4.10329
-4.10591
-4.10733
-4.10667
-4.10435
-4.1
-4.09474
-4.09044
-4.08694
-4.08441
-4.08283
-4.08212
-4.08223
-4.08313
-4.08482
-4.0873
-4.09061
-4.09477
-4.09983
-4.1058
-4.22498
-4.22695
-4.22968
-4.23231
-4.2346
-4.23617
-4.23619
-4.23443
-4.2309
-4.22658
-4.22258
-4.21936
-4.2171
-4.21576
-4.21528
-4.21557
-4.21659
-4.21834
-4.22082
-4.22405
-4.22806
-4.23287
-4.23852
-4.35596
-4.35787
-4.35939
-4.36123
-4.36322
-4.36483
-4.36519
-4.36395
-4.36115
-4.35757
-4.35411
-4.3513
-4.34934
-4.34825
-4.34797
-4.34844
-4.34956
-4.35133
-4.35376
-4.35687
-4.36068
-4.36521
-4.37047
-4.48679
-4.48833
-4.48882
-4.4901
-4.49182
-4.49338
-4.49394
-4.49308
-4.49087
-4.48797
-4.48513
-4.48282
-4.48124
-4.48042
-4.48029
-4.48093
-4.48209
-4.48385
-4.48619
-4.48914
-4.4927
-4.4969
-4.50174
-4.61737
-4.61829
-4.61795
-4.61885
-4.62036
-4.62185
-4.6225
-4.62191
-4.62021
-4.61796
-4.61577
-4.61401
-4.61286
-4.61234
-4.61242
-4.61307
-4.61424
-4.61595
-4.61817
-4.62091
-4.62419
-4.62802
-4.63241
-4.74766
-4.74749
-4.74679
-4.74744
-4.74879
-4.75022
-4.7509
-4.75053
-4.7493
-4.74771
-4.74618
-4.745
-4.74428
-4.74406
-4.7443
-4.745
-4.74613
-4.74771
-4.74976
-4.75225
-4.75521
-4.75865
-4.76256
-4.87799
-4.87636
-4.87551
-4.87594
-4.87716
-4.87853
-4.87921
-4.87905
-4.87833
-4.8774
-4.87652
-4.8759
-4.8756
-4.87564
-4.87602
-4.87674
-4.8778
-4.87922
-4.88102
-4.88323
-4.88584
-4.88886
-4.89227
-5.00826
-5.00616
-5.00531
-5.00529
-5.0061
-5.0072
-5.0078
-5.00789
-5.00764
-5.00727
-5.00697
-5.00682
-5.00687
-5.00713
-5.0076
-5.0083
-5.00926
-5.01049
-5.01203
-5.0139
-5.01613
-5.0187
-5.02161
-5.13836
-5.13768
-5.13674
-5.13631
-5.13648
-5.13686
-5.13723
-5.13743
-5.13749
-5.13752
-5.13763
-5.13784
-5.13814
-5.13854
-5.13905
-5.1397
-5.14053
-5.14155
-5.14281
-5.14433
-5.14614
-5.14825
-5.15064
-5.26928
-5.26926
-5.26878
-5.26825
-5.26776
-5.26748
-5.26757
-5.26774
-5.26794
-5.26822
-5.26857
-5.26898
-5.26941
-5.26987
-5.27037
-5.27094
-5.27161
-5.27241
-5.27338
-5.27455
-5.27593
-5.27756
-5.27942
-5.40049
-5.40046
-5.40012
-5.39959
-5.39899
-5.39863
-5.39859
-5.39873
-5.399
-5.39939
-5.39983
-5.40029
-5.40073
-5.40115
-5.40157
-5.40201
-5.40251
-5.40308
-5.40376
-5.40457
-5.40554
-5.40669
-5.40801
-5.53188
-5.5318
-5.53145
-5.53099
-5.53055
-5.53027
-5.53021
-5.53038
-5.53065
-5.53099
-5.53138
-5.53175
-5.53209
-5.53239
-5.53267
-5.53294
-5.53324
-5.53357
-5.53397
-5.53441
-5.53501
-5.53568
-5.53647
-5.66343
-5.66345
-5.66328
-5.66296
-5.66265
-5.66246
-5.66242
-5.66251
-5.6627
-5.66293
-5.66317
-5.66339
-5.66356
-5.66369
-5.66377
-5.66383
-5.66389
-5.66397
-5.66408
-5.66427
-5.66442
-5.66462
-5.66486
457.063
445.001
438.492
428.361
285.847
276.247
270.856
270.926
199.909
198.693
199.334
201.292
119.428
120.399
123.483
128.125
37.4302
36.2204
35.4764
36.391
2.82707
2.45423
2.0545
2.31163
-0.456163
-0.404219
-0.313831
-0.229839
-0.695587
-0.660678
-0.622579
-0.58563
-0.897766
-0.87792
-0.853541
-0.847989
-1.11306
-1.10748
-1.10813
-1.1206
-1.33381
-1.33879
-1.35132
-1.37315
-1.53217
-1.54164
-1.557
-1.5778
-1.70547
-1.71657
-1.7307
-1.74898
-1.86087
-1.86878
-1.87786
-1.89197
-2.00995
-2.01485
-2.02084
-2.03075
-2.15592
-2.1605
-2.16581
-2.174
-2.29851
-2.30306
-2.30832
-2.31564
-2.44071
-2.44394
-2.44823
-2.45511
-2.58427
-2.58736
-2.59144
-2.59752
-2.72838
-2.7318
-2.73609
-2.74189
-2.87198
-2.87572
-2.88012
-2.88541
-3.01447
-3.01848
-3.02302
-3.02825
-3.15574
-3.15994
-3.16466
-3.16993
-3.29573
-3.30005
-3.30485
-3.3101
-3.43444
-3.43878
-3.44357
-3.44874
-3.57194
-3.57623
-3.58091
-3.58595
-3.70828
-3.71245
-3.71698
-3.72182
-3.84352
-3.84753
-3.85185
-3.85646
-3.97773
-3.98154
-3.98563
-3.98997
-4.11099
-4.11458
-4.11841
-4.12246
-4.24337
-4.24672
-4.25029
-4.25402
-4.37495
-4.37803
-4.38128
-4.38472
-4.50584
-4.50864
-4.51162
-4.51471
-4.6361
-4.63861
-4.64125
-4.64404
-4.76584
-4.76806
-4.7704
-4.77286
-4.89512
-4.89705
-4.89909
-4.90122
-5.02402
-5.02566
-5.02738
-5.02919
-5.15262
-5.15396
-5.15537
-5.15685
-5.28096
-5.28201
-5.28311
-5.28426
-5.40912
-5.40987
-5.41066
-5.41149
-5.53714
-5.53759
-5.53807
-5.53858
-5.66508
-5.66523
-5.66539
-5.66556
377.962
406.492
420.035
457.591
537.816
603.588
665.283
727.754
792.589
845.453
887.694
928.838
967.683
1000.59
1005.92
1024.16
1037.02
1054.74
1066.71
275.453
310.188
327.005
344.277
403.653
467.73
526.472
593.582
659.048
715.172
764.52
810.625
850.717
885.187
896.022
903.34
923.836
946.549
955.3
206.565
226.609
244.085
256.032
287.069
334.668
391.558
457.331
526.53
589.493
647.051
698.149
740.755
774.369
799.215
805.534
828.96
852.97
856.945
137.611
154.527
163.175
168.308
190.902
222.652
267.356
325.326
394.2
464.739
531.212
588.786
637.239
677.809
714.587
729.346
752.751
773.573
778.446
54.4039
79.0183
83.5906
80.8681
101.063
135.976
178.546
227.429
283.847
348.209
417.207
482.762
536.416
582.373
628.888
653.596
670.448
696.53
707.016
4.85238
14.681
25.5534
31.6656
36.6568
56.7611
98.6356
152.706
209.51
267.271
323.297
382.578
438.951
488.356
534.298
567.917
580.047
604.829
624.461
-0.254681
0.0841212
3.06075
8.85634
11.8877
17.3719
31.2813
76.2924
141.793
210.915
262.626
307.61
353.625
397.739
437.598
465.654
481.556
501.245
522.783
-0.580723
-0.668289
-0.578532
0.622947
2.54972
5.44468
8.09741
20.5431
71.4948
159.734
217.944
259.925
293.534
323.658
349.253
366.069
377.44
393.06
407.876
-0.866169
-0.998246
-1.0992
-1.08329
-0.672409
1.02813
2.86681
4.75179
14.2542
107.327
179.305
224.333
254.145
270.369
274.422
281.098
280.793
283.339
300.085
-1.15634
-1.27247
-1.39227
-1.30326
-1.08232
-0.183237
1.27951
2.16821
3.32906
67.99
149.543
196.032
220.383
226.76
213.19
208.917
202.36
199.679
220.955
-1.41597
-1.51049
-1.5524
-1.4177
-1.14735
-0.613802
0.33456
1.137
3.16608
52.3383
120.583
164.565
180.059
177.322
165.256
155.987
149.299
149.998
171.957
-1.61918
-1.68421
-1.67615
-1.55697
-1.3405
-1.13845
-0.733494
-0.533058
-0.859162
12.5745
59.714
106.727
127.817
128.734
125.39
121.922
120.008
131.394
147.635
-1.78668
-1.81959
-1.79551
-1.71772
-1.59865
-1.58169
-1.77246
-2.2253
-3.08219
-3.07078
8.78199
39.1063
68.5526
85.5527
91.8504
97.4689
105.201
119.208
135.969
-1.92345
-1.94014
-1.91947
-1.87517
-1.85166
-1.93546
-2.29664
-2.8566
-3.41693
-3.64289
-3.20985
4.48798
22.0002
41.8845
58.6315
72.531
89.7631
109.733
125.228
-2.05179
-2.07405
-2.05943
-2.03255
-2.05441
-2.17204
-2.45939
-2.89309
-3.28113
-3.50607
-3.45645
-3.2485
2.3662
12.2194
26.8061
41.9661
63.2799
84.2666
95.879
-2.18868
-2.20906
-2.21729
-2.20105
-2.2262
-2.33794
-2.56018
-2.85157
-3.15826
-3.4085
-3.52524
-3.52814
-3.52245
1.49297
8.41455
17.4072
31.0026
44.9471
51.3235
-2.32847
-2.34596
-2.36541
-2.37818
-2.40073
-2.49073
-2.65629
-2.87937
-3.11451
-3.36678
-3.60561
-3.6528
-3.68174
-3.80091
-3.48679
5.83619
16.1652
19.6167
20.5197
-2.46832
-2.48416
-2.50483
-2.53891
-2.58054
-2.65467
-2.77898
-2.95966
-3.15797
-3.42974
-3.60367
-3.68782
-3.74929
-3.7483
-3.64993
-3.65883
-3.46732
-2.43021
-1.6515
-2.60897
-2.62583
-2.64796
-2.68096
-2.73203
-2.80573
-2.91211
-3.04742
-3.224
-3.45705
-3.58154
-3.62649
-3.66803
-3.70834
-3.6818
-3.65384
-3.55607
-3.52342
-3.5107
-2.75276
-2.76847
-2.79111
-2.82199
-2.86511
-2.92872
-3.01085
-3.11262
-3.25154
-3.41856
-3.54016
-3.61083
-3.6469
-3.67232
-3.66843
-3.65015
-3.60948
-3.5876
-3.57327
-2.89519
-2.91137
-2.93346
-2.96279
-3.00098
-3.05092
-3.11361
-3.18783
-3.29003
-3.41229
-3.52363
-3.6018
-3.65371
-3.67091
-3.67197
-3.66025
-3.64081
-3.62676
-3.61619
-3.03785
-3.05416
-3.0754
-3.10267
-3.13704
-3.17971
-3.23091
-3.28817
-3.36282
-3.45618
-3.54685
-3.61782
-3.66534
-3.6891
-3.69667
-3.69308
-3.68389
-3.67529
-3.66771
-3.17948
-3.19572
-3.21616
-3.24153
-3.27254
-3.30983
-3.35338
-3.40163
-3.46091
-3.53198
-3.60328
-3.66321
-3.70606
-3.73121
-3.74247
-3.74409
-3.74055
-3.73568
-3.73049
-3.31958
-3.33552
-3.35506
-3.37871
-3.40691
-3.44
-3.4777
-3.51948
-3.56837
-3.62439
-3.68068
-3.7298
-3.7671
-3.79127
-3.80452
-3.80956
-3.80947
-3.80706
-3.80374
-3.45803
-3.47347
-3.49199
-3.51396
-3.53963
-3.56922
-3.60224
-3.63867
-3.67976
-3.72503
-3.77009
-3.81027
-3.84224
-3.86467
-3.87852
-3.88547
-3.88754
-3.88689
-3.88503
-3.59494
-3.6097
-3.6271
-3.64738
-3.6707
-3.69711
-3.7262
-3.758
-3.79284
-3.83
-3.86671
-3.89994
-3.92734
-3.94777
-3.96141
-3.96919
-3.97253
-3.9731
-3.97232
-3.73042
-3.74438
-3.76061
-3.77923
-3.80031
-3.82385
-3.8495
-3.87718
-3.90686
-3.93779
-3.96818
-3.996
-4.01956
-4.03795
-4.05089
-4.05888
-4.0629
-4.06433
-4.06432
-3.8646
-3.8777
-3.89271
-3.90971
-3.92871
-3.94964
-3.97226
-3.99631
-4.0217
-4.04773
-4.07321
-4.09674
-4.11704
-4.1335
-4.1455
-4.15334
-4.15768
-4.15966
-4.16007
-3.99761
-4.00979
-4.02359
-4.03903
-4.05609
-4.07467
-4.09457
-4.11549
-4.13727
-4.15937
-4.18093
-4.20108
-4.21898
-4.23333
-4.24421
-4.25166
-4.25616
-4.25839
-4.25901
-4.12956
-4.14079
-4.15338
-4.16734
-4.1826
-4.19906
-4.21654
-4.23475
-4.25351
-4.27238
-4.29067
-4.30818
-4.32363
-4.33636
-4.34615
-4.35309
-4.35763
-4.35995
-4.36062
-4.26056
-4.27082
-4.28225
-4.29479
-4.30838
-4.32291
-4.33823
-4.3541
-4.3703
-4.38657
-4.4026
-4.41737
-4.4307
-4.44196
-4.45066
-4.45747
-4.46157
-4.46374
-4.4644
-4.39071
-4.40002
-4.4103
-4.42149
-4.43354
-4.44632
-4.45971
-4.47354
-4.48755
-4.50156
-4.51524
-4.52805
-4.53964
-4.54959
-4.55751
-4.56343
-4.56719
-4.56927
-4.56994
-4.52012
-4.52848
-4.53766
-4.54758
-4.55819
-4.56938
-4.58103
-4.593
-4.60519
-4.61721
-4.62889
-4.63992
-4.64998
-4.65876
-4.66609
-4.67102
-4.67432
-4.67621
-4.6769
-4.64889
-4.65633
-4.66443
-4.67315
-4.68241
-4.69214
-4.70222
-4.71256
-4.723
-4.73332
-4.74328
-4.75271
-4.76136
-4.76894
-4.7752
-4.77968
-4.78265
-4.78436
-4.78503
-4.77713
-4.78364
-4.79071
-4.79828
-4.80629
-4.81466
-4.82332
-4.83215
-4.84102
-4.84977
-4.85822
-4.86621
-4.87362
-4.88003
-4.88533
-4.8893
-4.89195
-4.89351
-4.89416
-4.90491
-4.91052
-4.91659
-4.92305
-4.92988
-4.93698
-4.94431
-4.95175
-4.9592
-4.96654
-4.97361
-4.98031
-4.98646
-4.99187
-4.99631
-4.99972
-5.00205
-5.00344
-5.004
-5.03231
-5.03704
-5.04213
-5.04754
-5.05323
-5.05914
-5.06521
-5.07136
-5.0775
-5.08353
-5.08935
-5.09484
-5.09988
-5.10432
-5.10797
-5.11085
-5.11282
-5.11404
-5.1145
-5.15941
-5.16326
-5.1674
-5.17179
-5.17639
-5.18116
-5.18604
-5.19098
-5.1959
-5.20072
-5.20536
-5.20974
-5.21375
-5.2173
-5.22027
-5.2227
-5.22414
-5.22518
-5.22556
-5.28626
-5.28925
-5.29246
-5.29584
-5.29939
-5.30306
-5.30681
-5.31059
-5.31436
-5.31805
-5.32159
-5.32493
-5.32799
-5.33069
-5.33297
-5.3348
-5.3359
-5.33674
-5.33705
-5.41292
-5.41506
-5.41734
-5.41974
-5.42226
-5.42487
-5.42753
-5.43021
-5.43288
-5.4355
-5.438
-5.44036
-5.44251
-5.4444
-5.44599
-5.44724
-5.44798
-5.44859
-5.44884
-5.53944
-5.54073
-5.5421
-5.54354
-5.54504
-5.5466
-5.54821
-5.54983
-5.55145
-5.55303
-5.55455
-5.55596
-5.55724
-5.55834
-5.55924
-5.5599
-5.56018
-5.56063
-5.56082
-5.66586
-5.66629
-5.66674
-5.6672
-5.66773
-5.66828
-5.66885
-5.66943
-5.67001
-5.67058
-5.67111
-5.6716
-5.67203
-5.67237
-5.67261
-5.6728
-5.67307
-5.67314
-5.67314
)
;

boundaryField
{
    leftWall
    {
        type            calculated;
        value           nonuniform List<scalar> 
50
(
4527.08
3729.03
2933.11
2138.13
1356.42
749.846
507.699
471.541
415.188
346.849
289.958
232.485
174.693
120.776
63.3763
13.3703
-1.28637
-1.45504
-1.5967
-1.73082
-1.86185
-1.98733
-2.10737
-2.22483
-2.34539
-2.47184
-2.60291
-2.73783
-2.87638
-3.0164
-3.15639
-3.29551
-3.43318
-3.56891
-3.70254
-3.83423
-3.96452
-4.09445
-4.22498
-4.35596
-4.48679
-4.61737
-4.74766
-4.87799
-5.00826
-5.13836
-5.26928
-5.40049
-5.53188
-5.66343
)
;
    }
    rightWall
    {
        type            calculated;
        value           nonuniform List<scalar> 
50
(
3172.34
2414.67
1766.95
1419.83
1316.7
1264.61
1212.29
1156.49
1066.71
955.3
856.945
778.446
707.016
624.461
522.783
407.876
300.085
220.955
171.957
147.635
135.969
125.228
95.879
51.3235
20.5197
-1.6515
-3.5107
-3.57327
-3.61619
-3.66771
-3.73049
-3.80374
-3.88503
-3.97232
-4.06432
-4.16007
-4.25901
-4.36062
-4.4644
-4.56994
-4.6769
-4.78503
-4.89416
-5.004
-5.1145
-5.22556
-5.33705
-5.44884
-5.56082
-5.67314
)
;
    }
    lowerWall
    {
        type            calculated;
        value           nonuniform List<scalar> 
62
(
4925.23
4920.62
4920.08
4923.36
4942.03
4982.88
5058.88
5163.68
5292.27
5432.88
5570.27
5691.27
5787.55
5856.24
5897.98
5915.51
5912.68
5894.01
5863.36
5826.09
5787.57
5754.21
5733.37
5335.24
4527.17
3708.05
2876.82
2031.14
1203.49
694.684
554.314
570.595
560.832
610.303
601.276
2893.3
2248.9
1802.67
1522.76
1268.73
1064.87
831.217
531.765
3221.37
3149.63
3179.44
3176.68
3231.76
3323.9
3227.71
3027.54
2908.17
2856.56
2825.56
2815.65
2842.6
2911.44
3065.99
3272.62
3435.02
3515.6
3549.75
)
;
    }
    atmosphere
    {
        type            calculated;
        value           nonuniform List<scalar> 
46
(
-5.72904
-5.72905
-5.72905
-5.72905
-5.72904
-5.72904
-5.72904
-5.72904
-5.72905
-5.72914
-5.72927
-5.72939
-5.72945
-5.72946
-5.72941
-5.72934
-5.72924
-5.72915
-5.72908
-5.72904
-5.72904
-5.72904
-5.72904
-5.72904
-5.72904
-5.72904
-5.72904
-5.72904
-5.72904
-5.72904
-5.72904
-5.72905
-5.72908
-5.72913
-5.72919
-5.72926
-5.72933
-5.72939
-5.72943
-5.72945
-5.72943
-5.72935
-5.72922
-5.72906
-5.72904
-5.72905
)
;
    }
    defaultFaces
    {
        type            empty;
    }
}


// ************************************************************************* //
