/*--------------------------------*- C++ -*----------------------------------*\
| =========                 |                                                 |
| \\      /  F ield         | OpenFOAM: The Open Source CFD Toolbox           |
|  \\    /   O peration     | Version:  2312                                  |
|   \\  /    A nd           | Website:  www.openfoam.com                      |
|    \\/     M anipulation  |                                                 |
\*---------------------------------------------------------------------------*/
FoamFile
{
    version     2.0;
    format      ascii;
    arch        "LSB;label=32;scalar=64";
    class       volScalarField;
    location    "0.9";
    object      alphas;
}
// * * * * * * * * * * * * * * * * * * * * * * * * * * * * * * * * * * * * * //

dimensions      [0 0 0 0 0 0 0];

internalField   nonuniform List<scalar> 
2268
(
2
2
2
2
2
2
2
2
2
2
2
2
2
2
2
2
2
2
2
2
2
1.99997
1.99993
2
2
2
2
2
2
2
2
2
2
2
2
2
2
2
2
2
2
2
2
2
1.99998
1.99993
2
2
2
2
2
2
2
2
2
2
2
2
2
2
2
2
2
2
2
2
2
2
2
1.46662
1.92032
2
2
2
2
2
2
2
2
2
2
2
2
2
2
2
2
2
2
2
2
1.99999
0.155244
1.16641
1.96202
2
2
2
2
2
2
2
2
2
2
2
2
2
2
2
2
2
2
1.99998
1.99996
8.39922e-10
0.227487
1.6088
2
2
2
2
1.99952
1.95458
1.89713
1.88904
1.90659
1.92938
1.94713
1.96003
1.96689
1.96629
1.95394
1.92619
1.89086
1.86334
1.84464
1.81623
9.37437e-10
0.000190415
0.774147
1.87855
1.99922
1.93075
1.6602
1.18423
0.696653
0.502218
0.486238
0.535216
0.606161
0.674067
0.734683
0.770778
0.765642
0.7007
0.594106
0.497488
0.445892
0.446692
0.469309
1.03602e-09
7.06109e-10
0.0369712
0.746424
1.08955
0.734253
0.243983
0.0180235
2.34927e-06
5.86001e-06
1.38586e-05
3.29554e-05
6.10669e-05
0.000102831
0.000163552
0.000340384
0.000655161
0.00115796
0.00162774
0.00287407
0.00534124
0.0372109
0.183169
1.42592
1.35882
1.17657
1.17426
1.17613
1.17715
1.22266
1.52272
1.81437
1.8984
1.90021
1.911
1.86964
1.86607
1.93971
1.99677
1.6096
1.2573
1.18785
1.42801
1.27368
1.11237
1.09947
1.12092
1.12364
1.01483
0.907716
0.883393
1.04336
1.4011
1.76124
1.90626
1.89958
1.90981
1.97113
1.62826
1.22789
1.04099
1.10764
1.24202
1.09842
0.879033
0.704955
0.572177
0.562827
0.521373
0.374661
0.31394
0.326515
0.46023
1.21953
1.57988
1.80987
1.91264
1.5427
1.12503
0.515795
1.00728
1.28106
1.45222
1.01782
0.184439
0.0327136
0.0177548
0.128869
0.410276
0.383524
0.119015
0.221086
0.307662
1.0336
1.79459
1.79679
1.35569
0.887731
0.307653
1.07222
1.13805
1.57678
0.47603
0.0191111
0.0344801
0.492996
0.979104
1.01216
0.921212
0.262618
0.139935
0.619113
1.45621
1.8635
1.74726
1.21426
0.642997
0.340556
1.01595
1.13264
1.39464
0.241321
0.0546848
0.597911
1.09447
1.23821
1.22235
1.1138
0.831502
0.681881
1.04221
1.49738
1.8952
1.66113
1.11615
0.708185
0.341471
1.85131
1.21431
1.36213
0.238405
0.192204
0.796429
0.998816
1.09887
1.69608
1.94078
1.25969
1.48156
1.61435
1.75412
1.93137
1.5768
1.02601
0.809421
0.649587
2.06417
1.38839
1.19385
0.316581
0.272283
0.617634
0.389596
0.533435
1.94606
2.14722
2.10328
2.03545
1.85562
1.52655
1.86263
1.51637
1.1673
0.931004
0.742262
8.46085e-10
8.37515e-10
6.34423e-10
0.000693845
0.00606627
1.32344e-08
1.36682e-07
6.03782e-07
1.35754e-06
1.94968e-06
5.20484e-06
1.74395e-05
1.75608e-05
1.79333e-05
1.83587e-05
0.000316895
0.00101317
0.00102022
0.00210447
0.061872
0.263208
0.57631
0.952628
8.25694e-10
8.32157e-10
8.50007e-10
6.80899e-10
6.57925e-10
1.39915e-09
7.85226e-10
4.62184e-10
7.72847e-07
1.30233e-07
1.2198e-08
1.51196e-08
0.00228746
0.0104408
0.00548658
0.00375127
0.0222805
0.104625
0.402181
0.890566
1.37154
1.53381
1.7525
8.45855e-10
8.46769e-10
8.58148e-10
7.43557e-10
8.26809e-10
7.54429e-10
6.59759e-10
3.64904e-10
9.15895e-11
1.48832e-07
0.00523336
0.0595421
0.134235
0.173311
0.130525
0.082536
0.388271
1.07184
1.25054
1.45917
2.57046
2.96877
2.96878
7.55571e-10
7.36291e-10
6.72139e-10
1.03856e-07
1.30143e-07
1.16652e-07
8.59774e-08
4.17228e-10
3.00133e-05
0.0898051
0.235164
0.607379
0.938404
0.737507
0.333183
0.868575
1.02309
1.2042
2.63102
2.96875
2.96878
2.96878
2.96878
1.54894e-09
4.16975e-10
6.53035e-10
3.23211e-07
3.32823e-07
0.00880448
0.0204847
0.0291114
0.160049
0.907507
1.63274
1.4228
0.668568
0.763811
0.992382
0.999958
1.00004
1.16297
2.55704
2.96876
2.96878
2.96878
2.96879
1.24489e-09
2.26512e-06
2.17651e-05
1.78696e-07
1.96168e-07
0.0836316
0.337952
1.25562
2.1246
2.12771
1.49071
0.772963
0.883506
0.997925
1.00003
1.00005
1.00003
1.00712
1.07334
1.14487
1.14757
1.37782
2.32487
1.24503e-08
1.25438e-08
1.31438e-05
0.0801119
0.32618
0.775245
2.01804
2.17606
2.21542
1.44584
1.01449
0.956663
0.999974
0.999977
0.999982
1.00001
1.00001
1.00002
1.00002
1.00035
1.0016
1.0015
1.00508
0.719489
0.550452
0.469508
0.748135
1.76206
2.0507
2.11388
1.74125
1.18639
1.00023
1.00004
0.999898
0.999906
1.00005
1.21074
1.92775
2.37068
2.53125
2.5222
1.92275
1.46449
1.30668
1.1966
2.68559
2.51508
2.14824
1.47474
1.47164
1.55463
1.21314
1.02467
1.00038
0.999931
0.999705
0.999692
1.25661
2.15383
2.75565
2.97655
3
3
3
2.99875
3
3
2.95068
2.92945
2.77743
1.49536
1.00454
1.00237
1.00079
1.00064
1.00062
1.00055
1.02599
1.48247
2.16707
2.76117
2.99801
3
3
3
3
3
3
3
3
3
2.94258
2.3992
1.00109
1.00087
1.00087
1.05937
1.43584
1.7746
2.12712
2.53463
2.85721
2.99712
2.99988
3
3
3
2.99999
2.99999
2.99999
3
3
3
3
2.94494
2.55188
1.56759
1.52783
2.10302
2.62985
2.86181
2.96102
2.99832
3
3
3
3
3
3
3
2.99998
2.99998
2.99999
2.99999
2.99999
2.99999
3
2.95211
2.91461
2.89265
2.91697
2.99183
2.99999
3
3
3
3
3
3
3
3
3
3
3
2.99999
2.99999
3
3
3
3
2.99717
2.99997
2.99999
3
3
3
3
3
3
3
3
3
3
3
3
3
3
3
3
3
3
3
3
3
2.99997
2.99999
3
3
3
3
3
3
3
3
3
3
3
3
3
3
3
3
3
3
3
3
3
2.99999
3
3
3
3
3
3
3
3
3
3
3
3
3
3
3
3
3
3
3
3
3
3
3
3
3
3
3
3
3
3
3
3
3
3
3
3
3
3
3
3
3
3
3
3
3
3
3
3
3
3
3
3
3
3
3
3
3
3
3
3
3
3
3
3
3
3
3
3
3
3
3
3
3
3
3
3
3
3
3
3
3
3
3
3
3
3
3
3
3
3
2.99998
2.99999
3
3
3
3
3
3
3
3
3
3
3
3
3
3
3
3
3
3
3
3
3
2.99991
2.99991
2.99995
3
3
3
3
3
3
3
3
3
3
3
3
3
3
3
3
3
3
3
3
2.99994
2.99991
2.99995
3
3
3
3
3
3
3
3
3
3
3
3
3
3
3
3
3
3
3
3
3
2.99992
2.99998
3
3
3
3
3
3
3
3
3
3
3
3
3
3
3
3
3
3
3
3
3
2.99999
3
3
3
3
3
3
3
3
3
3
3
3
3
3
3
3
3
3
3
3
3
3
3
3
3
3
3
3
3
3
3
3
3
3
3
3
3
3
3
3
3
3
3
3
3
3
3
3
3
3
3
3
3
3
3
3
3
3
3
3
3
3
3
3
3
3
3
3
3
3
3
3
3
3
3
3
3
3
3
3
3
3
3
3
3
3
3
3
3
3
3
3
3
3
3
3
3
3
3
3
3
3
3
3
3
3
3
3
3
3
3
3
3
3
3
3
3
3
3
3
3
3
3
3
3
3
3
3
3
3
3
3
3
3
3
3
3
3
3
3
3
3
3
3
3
3
3
3
3
3
3
3
3
3
3
3
3
3
3
3
3
3
3
3
3
3
3
3
3
3
3
3
3
3
3
3
3
3
3
3
3
3
3
3
3
3
3
3
3
3
3
3
3
3
3
3
3
3
3
3
3
3
3
3
3
3
3
3
3
3
3
3
3
3
3
3
3
3
3
3
3
3
3
3
3
3
3
3
3
3
3
3
3
3
3
3
3
3
3
3
3
3
3
3
3
3
3
3
3
3
3
3
3
3
3
3
3
3
3
3
3
3
3
3
3
3
3
3
3
3
3
3
3
3
3
3
3
3
3
3
3
3
3
3
3
3
3
3
3
3
3
3
3
3
3
3
3
3
3
3
3
3
3
3
3
3
3
3
3
3
3
3
3
3
3
3
3
3
3
3
3
3
3
3
3
3
3
3
3
3
3
3
3
3
3
3
3
3
3
3
3
3
3
3
3
3
3
3
3
3
3
3
3
3
3
3
3
3
3
3
3
3
3
3
3
3
3
3
3
3
3
3
3
3
3
3
3
3
3
3
3
3
3
3
3
3
3
3
3
3
3
3
3
3
3
3
3
3
3
3
3
3
3
3
3
3
3
3
3
3
3
3
3
3
3
3
3
3
3
3
3
3
3
3
3
3
3
3
3
3
3
3
3
3
3
1.25153
1.30923
1.49045
1.45774
2.17151
2.47566
2.77942
2.71396
2.96475
2.9687
2.96777
2.45364
2.96879
2.96878
2.96878
2.95891
2.96878
2.96547
2.96267
2.96394
2.38844
1.67664
1.52108
1.65347
1.00612
1.00002
1.00001
1.00002
1.11989
1.0735
1.04471
1.02593
2.65193
2.4271
2.29236
2.1771
3
3
3
3
3
3
3
3
3
2.99999
2.99999
2.99999
3
3
2.99998
2.99998
3
3
2.99998
2.99996
3
3
3
3
3
3
3
3
3
3
3
3
3
3
3
3
3
3
3
3
3
3
3
3
3
3
3
3
3
3
3
3
3
3
3
3
3
3
3
3
3
3
3
3
3
3
3
3
3
3
3
3
3
3
3
3
3
3
3
3
3
3
3
3
3
3
3
3
3
3
3
3
3
3
3
3
3
3
3
3
3
3
3
3
3
3
3
3
3
3
3
3
3
3
3
3
3
3
3
3
3
3
3
3
3
3
3
3
3
3
3
3
2.08975
1.86193
0.616671
0.141116
0.0610318
0.101445
0.0864299
0.297567
1.66281
2.11591
2.08017
1.86913
1.20469
1.27436
1.56189
1.68482
1.20069
0.536994
1.03045
2.04355
1.05217
0.35032
0.0413207
0.0319959
0.0313214
0.0297179
0.203773
1.09601
2.03841
1.91815
1.25831
1.20002
1.18967
1.39696
1.14349
0.820332
0.514206
1.292
1.73176
1.1864
0.691159
0.398101
0.155213
0.0767879
0.0747255
0.223852
0.616241
1.74094
2.15337
2.13105
1.36243
1.22776
1.19976
0.814538
0.291151
0.374893
1.00212
2.4101
1.63074
1.38285
0.881584
0.689474
0.640199
0.702839
0.786969
0.834615
0.988479
1.71584
2.28334
2.22985
1.96204
1.76004
0.604071
0.215656
0.165349
0.998185
2.87068
1.91921
1.51754
1.48612
1.52609
1.5074
1.49369
1.55185
1.495
1.35908
1.17941
1.52407
1.98729
2.08872
1.97485
0.30977
0.14766
0.196897
1.00684
1.7856
1.8904
1.98042
1.97975
1.98069
1.93681
1.22603
1.04444
1.0426
1.1223
1.15325
1.1329
0.943429
0.777387
0.498331
0.194854
0.152489
0.684868
1.01512
1.00002
1.03829
1.48152
1.76306
1.58666
1.12329
1.02126
1.03808
1.03194
1.00337
1.00034
1.00034
1.02614
1.05157
0.850973
0.693969
0.708068
1.28245
1.63258
1.00833
1.00001
1.00001
1.00003
1.00008
1.00015
1.00172
1.03867
1.04664
1.03489
1.00028
1.00022
1.00017
0.998609
0.989423
0.970624
1.19947
1.57495
2.90231
1.92971
1.5885
1.30289
1.1128
1.02288
1.0003
1.00038
1.00033
1.00049
1.00038
1.00031
1.00526
1.04933
1.15522
1.31858
1.63462
2.2167
2.81465
2.9925
3
3
2.90806
2.53288
2.08554
1.58037
1.22738
1.06862
1.02228
1.01735
1.12826
1.64261
2.28249
2.60429
2.78202
2.93696
2.99329
2.99951
2.99945
3
3
3
3
2.99999
2.99996
2.72225
2.36446
2.16609
2.14838
2.56899
2.96884
2.97691
2.99082
2.99946
2.99927
2.99923
2.99938
2.99937
3
3
3
3
3
3
2.99999
2.9999
2.99955
2.99882
2.99909
3
2.9996
2.99698
2.99483
2.99493
2.99592
2.99937
2.99937
2.99999
3
3
3
3
3
3
2.99996
2.99992
3
2.99999
3
2.99942
2.99271
2.99124
2.99119
2.99339
2.998
2.99752
2.99996
2.99999
3
3
2.99997
2.99995
2.99999
3
3
3
3
3
2.99987
2.99907
2.99813
2.99946
2.99999
2.99568
2.99567
2.99995
2.99995
2.99999
3
2.99996
2.99948
2.99955
2.99994
3
3
3
2.99999
2.99999
3
3
3
2.99999
3
3
2.99998
2.99995
2.99997
3
2.99999
2.99935
2.99934
2.9995
2.99998
3
3
3
3
3
3
3
2.99998
3
3
3
2.99996
2.99997
3
3
2.9995
2.99934
2.99941
2.99995
3
3
3
3
3
3
3
3
3
3
3
2.99997
2.99996
2.99998
3
2.99986
2.99961
2.99986
3
3
3
3
3
3
3
3
3
3
3
3
3
2.99998
2.99997
2.99997
3
3
3
3
3
3
3
3
3
3
3
3
2.99912
2.99944
3
3
3
3
3
3
3
3
3
3
3
3
3
3
3
3
2.99991
2.99658
2.99886
3
3
3
3
3
3
3
3
3
3
3
3
3
3
3
3
2.99782
2.99659
2.99937
3
3
3
3
3
3
3
3
3
3
3
3
3
3
3
3
2.99686
2.99691
2.9999
3
3
3
3
3
3
3
3
3
3
3
3
3
3
3
3
2.99882
2.99999
3
3
3
3
3
3
3
3
3
3
3
3
3
3
3
3
3
3
3
3
3
3
3
3
3
3
3
3
3
3
3
3
3
3
3
2.99997
2.99999
3
3
3
3
3
3
3
3
3
3
3
3
3
3
3
3
3
2.99994
2.99996
3
3
3
3
3
3
3
3
3
3
3
3
3
3
3
3
3
2.99996
2.99997
3
3
3
3
3
3
3
3
3
3
3
3
3
3
3
3
3
3
3
3
3
3
3
3
3
3
3
3
3
3
3
3
3
3
3
3
3
3
3
3
3
3
3
3
3
3
3
3
3
3
3
3
3
3
3
3
3
3
3
3
3
3
3
3
3
3
3
3
3
3
3
3
3
3
3
3
3
3
3
3
3
3
3
3
3
3
3
3
3
3
3
3
3
3
3
3
3
3
3
3
3
3
3
3
3
3
3
3
3
3
3
3
3
3
3
3
3
3
3
3
3
3
3
3
3
3
3
3
3
3
3
3
3
3
3
3
3
3
3
3
3
3
3
3
3
3
3
3
3
3
3
3
3
3
3
3
3
3
3
3
3
3
3
3
3
3
3
3
3
3
3
3
3
3
3
3
3
3
3
3
3
3
3
3
3
3
3
3
3
3
3
3
3
3
3
3
3
3
3
3
3
3
3
3
3
3
3
3
3
3
3
3
3
3
3
3
3
3
3
3
3
3
3
3
3
3
3
3
3
3
3
3
3
3
3
3
3
3
3
3
3
3
3
3
3
3
3
3
3
3
3
3
3
3
3
3
3
3
3
3
3
3
3
3
3
3
3
3
3
3
3
3
3
3
3
3
3
3
3
3
3
3
3
3
3
3
3
)
;

boundaryField
{
    leftWall
    {
        type            calculated;
        value           nonuniform List<scalar> 
50
(
2
2
2
1.46662
0.155244
8.39922e-10
9.37437e-10
1.03602e-09
8.46085e-10
8.25694e-10
8.45855e-10
7.55571e-10
1.54894e-09
1.24489e-09
1.24503e-08
0.719489
2.68559
2.92945
2.94258
2.94494
2.95211
2.99717
3
3
3
3
3
2.99998
2.99991
2.99994
3
3
3
3
3
3
3
3
3
3
3
3
3
3
3
3
3
3
3
3
)
;
    }
    rightWall
    {
        type            calculated;
        value           nonuniform List<scalar> 
50
(
1.18785
1.04099
0.515795
0.307653
0.340556
0.341471
0.649587
0.742262
1.03045
1.292
1.00212
0.998185
1.00684
1.01512
1.63258
2.90231
2.9925
2.99945
2.99937
2.99937
2.99752
2.99567
3
3
3
3
2.99944
2.99886
2.99937
2.9999
3
3
3
3
3
3
3
3
3
3
3
3
3
3
3
3
3
3
3
3
)
;
    }
    lowerWall
    {
        type            calculated;
        value           nonuniform List<scalar> 
62
(
2
2
2
2
2
2
2
2
2
2
2
2
2
2
2
2
2
2
2
2
2
1.99997
1.99993
1.99993
1.99993
2
1.99999
1.99996
1.81623
0.469309
0.183169
1.25153
1.30923
1.49045
1.45774
1.42592
1.42801
1.10764
1.00728
1.07222
1.01595
1.85131
2.06417
1.42592
1.35882
1.17657
1.17426
1.17613
1.17715
1.22266
1.52272
1.81437
1.8984
1.90021
1.911
1.86964
1.86607
1.93971
1.99677
1.6096
1.2573
1.18785
)
;
    }
    atmosphere
    {
        type            calculated;
        value           nonuniform List<scalar> 
46
(
3
3
3
3
3
3
3
3
3
3
3
3
3
3
3
3
3
3
3
3
3
3
3
3
3
3
3
3
3
3
3
3
3
3
3
3
3
3
3
3
3
3
3
3
3
3
)
;
    }
    defaultFaces
    {
        type            empty;
    }
}


// ************************************************************************* //
