/*--------------------------------*- C++ -*----------------------------------*\
| =========                 |                                                 |
| \\      /  F ield         | OpenFOAM: The Open Source CFD Toolbox           |
|  \\    /   O peration     | Version:  2312                                  |
|   \\  /    A nd           | Website:  www.openfoam.com                      |
|    \\/     M anipulation  |                                                 |
\*---------------------------------------------------------------------------*/
FoamFile
{
    version     2.0;
    format      ascii;
    arch        "LSB;label=32;scalar=64";
    class       volScalarField;
    location    "0.9";
    object      p_rgh;
}
// * * * * * * * * * * * * * * * * * * * * * * * * * * * * * * * * * * * * * //

dimensions      [1 -1 -2 0 0 0 0];

internalField   nonuniform List<scalar> 
2268
(
5929.88
6070.48
6265.31
6404.39
6471.03
6470.55
6412.59
6318.49
6215.32
6127.37
6064.8
6023.81
5995.38
5970.8
5943.23
5907.49
5860.33
5801.4
5734.45
5667.01
5607.87
5558.16
5532.66
5842.9
6030.78
6262.2
6415.79
6485.25
6481.44
6416.74
6315.83
6208.06
6119.08
6058.1
6019.39
5992.9
5969.71
5943.04
5907.65
5860.18
5800.2
5731.68
5662.65
5602.37
5553.09
5527.1
5626.09
5935.4
6250.34
6436.51
6512.14
6502.49
6424.58
6310.53
6193.7
6102.85
6045.31
6011.26
5988.71
5968.32
5943.5
5908.93
5860.94
5798.88
5727.17
5654.87
5592.28
5543.14
5515.25
4624.48
5669.18
6227.13
6467.48
6552.61
6534.21
6436.22
6302.42
6171.7
6078.46
6026.63
5999.72
5983.01
5966.72
5944.69
5911.42
5862.69
5797.39
5720.61
5643.2
5577.08
5528.05
5497.89
2414.16
4320.19
6137.31
6506.54
6603.15
6569.61
6445.73
6287.6
6138.81
6043.93
6001.61
5984.99
5976.21
5965.28
5947.02
5915.59
5865.9
5795.88
5711.53
5626.49
5555.07
5506.17
5473.65
1970.85
2353.01
5414.09
6538.98
6647.42
6598.46
6447.19
6260.53
6006.14
5806.05
5763.89
5794.22
5838.01
5866.52
5877.15
5861.31
5809.88
5710.98
5565.05
5403.93
5272.94
5188.98
5097.99
1862.21
1710.98
3514.26
6286.77
6683.63
6480.85
5698.17
4429.71
3183.62
2689.22
2640.44
2748.42
2904.88
3049.01
3170.01
3222.47
3161.93
2942.08
2612.69
2307.51
2113.03
2036.54
1958.65
1766.04
1637.21
1533.86
3363.44
4395.76
3440.32
2045.85
1412.23
1374.44
1382.65
1378.49
1363.32
1339.37
1309.75
1275.28
1234.97
1187.56
1134.41
1078.56
1021.72
964.461
923.553
875.514
1666.12
1590.53
1508.95
1573.43
1656.14
1739.51
1856.5
2119.12
2318.79
2454.51
2717.3
3115.12
3666.01
4335.28
4982.1
5371.6
5332.67
4926
4901.01
1679.25
1537.93
1508.37
1567.28
1661.26
1782.9
1857.34
1864.7
1832.83
2026.19
2492.67
3032.74
3717.73
4434.09
5054.38
5430.19
5300.1
4824.69
4818.33
1282.94
1145.07
1387.87
1688.39
1861.9
1938
1980.54
1940.63
1751.9
1610.62
1658.21
2022.83
3182.98
4230.51
5073.05
5490.58
5137.97
4684.7
4790.82
961.365
996.289
997.797
1166.63
1306.64
1362.2
1375.12
1365.16
1307.84
1265.79
1304.73
1732.32
2159.01
3573.62
4975.81
5378.87
4692.41
4383.14
4777.22
993.318
1041.44
983.373
1158.8
1258.99
1326.24
1334.88
1314.7
1294.55
1206.14
1279.16
1477.85
2198.96
3458.52
5046.92
5027.08
4214.95
3953.75
4739.43
1017.16
1076.39
993.884
1181.64
1247.4
1291.13
1464.19
1527.34
1466.11
1293.64
1185.97
1280.11
1864.47
2457.8
5196.96
4660.88
3870.54
3743.2
4585.39
917.093
1031.35
988.187
1182.89
1240.48
1458.14
1608.52
1634.47
1534.87
1449.85
1325.95
1639.16
1938.65
2667.9
5253.85
4477.56
3091.37
3608.59
5083.97
867.845
937.58
1014.34
1171.6
1275.09
1610.12
1734.03
1737.3
1508.57
1354.97
1316.72
1778.92
1850.73
2088.85
5348.58
4325.72
2874.18
3823.56
5107.83
1643.8
1547.62
1360.1
1263.05
1302.57
1317.24
1328.18
1345.59
1363.16
1374.35
1373.77
1362.26
1340.31
1311.47
1278.12
1238.13
1189.24
1133.34
1074.4
1003.19
895.553
801.447
728.055
1578.9
1530.15
1441.16
1369.04
1331.65
1327.57
1345.33
1361.54
1370.93
1374.52
1371.77
1361.22
1345.58
1319.28
1290.42
1252.54
1193.99
1109.35
962.939
766.799
608.008
552.654
509.593
1562.15
1536.8
1488.71
1439.59
1407.46
1401.1
1393.38
1387.93
1383.48
1377.97
1370.47
1331.78
1280.65
1266.6
1272.32
1261.57
1114.17
791.975
680.385
607.918
374.283
295.256
294.651
1560.38
1545.2
1515.98
1482.04
1453.4
1432.45
1416.69
1407.27
1398.27
1342.71
1273.72
1180.77
1082.43
1112.37
1200.18
930.022
820.544
723.067
374.132
293.635
292.46
292.963
294.08
1566.37
1556.6
1537.62
1512.96
1488.64
1464.59
1442.81
1411.88
1331.37
1062.47
829.418
885.854
1126.68
1013.32
886.019
863.376
829.043
753.127
396.074
291.828
292.352
293.716
294.411
1578.11
1572.12
1559.07
1539.47
1517.65
1448.78
1285.24
892.447
594.7
603.74
829.667
1041.63
938.498
861.654
848.753
831.046
804.318
780.243
769.207
784.393
789.908
730.829
467.586
1595.18
1592.78
1583.15
1516.89
1343.78
1129.09
599.513
536.88
521.322
771.222
899.713
898.662
851.741
832.798
808.218
777.533
748.217
728.967
732.615
758.896
778.449
801.036
823.997
1286.93
1369.26
1380.26
1186.88
699.851
564.392
526.013
651.445
844.526
897.233
877.114
854.145
827.717
793.314
683.255
399.559
231.282
172.143
175.402
395.719
564.105
622.353
672.519
316.62
408.003
545.212
763.511
748.016
708.08
837.951
903.721
901.262
885.061
863.307
837.001
709.522
338.398
96.9538
9.12985
-0.291236
-0.410239
-0.435402
0.0438679
-0.457013
-0.299495
19.5523
176.945
242.636
753.705
942.642
937.479
929.158
916.731
903.811
890.85
865.382
658.417
358.327
101.86
0.750014
-0.463029
-0.519118
-0.55495
-0.617713
-0.650489
-0.674994
-0.652307
-0.617624
-0.585501
142.235
401.027
987.062
961.227
942.892
901.954
723.13
564.979
402.116
214.293
65.2747
1.20446
-0.462192
-0.493538
-0.519312
-0.585397
-0.661045
-0.727518
-0.782025
-0.807572
-0.791299
-0.728409
-0.664488
93.6946
286.041
720.43
725.516
439.813
181.137
67.2252
18.5525
0.448503
-0.415024
-0.466778
-0.438467
-0.472267
-0.50808
-0.567457
-0.645309
-0.727684
-0.801634
-0.843556
-0.842738
-0.792515
-0.726457
-0.66603
41.0896
49.1019
53.0953
40.8336
2.7451
-1.11826
-0.881429
-0.692802
-0.53508
-0.486249
-0.46573
-0.46417
-0.48284
-0.519229
-0.587503
-0.667198
-0.74687
-0.808868
-0.841592
-0.837557
-0.79116
-0.725868
-0.661749
4.59138
-0.757568
-2.24752
-1.941
-1.46709
-1.13995
-0.906374
-0.742565
-0.618121
-0.53883
-0.493817
-0.476973
-0.490925
-0.526036
-0.585253
-0.653441
-0.720607
-0.769394
-0.790445
-0.776425
-0.733244
-0.678357
-0.624178
0.969044
-0.323978
-1.224
-1.42445
-1.24449
-1.03095
-0.855011
-0.729955
-0.631224
-0.557396
-0.510448
-0.490029
-0.4957
-0.521813
-0.566743
-0.617882
-0.666897
-0.700456
-0.708521
-0.695462
-0.664588
-0.62561
-0.586078
0.831166
0.1546
-0.505578
-0.87007
-0.901647
-0.827355
-0.743644
-0.668644
-0.601282
-0.545301
-0.506518
-0.487349
-0.488268
-0.505193
-0.535504
-0.570073
-0.601466
-0.621454
-0.626245
-0.617141
-0.59743
-0.571695
-0.544201
0.449118
0.115717
-0.212324
-0.470142
-0.575047
-0.603342
-0.596153
-0.571586
-0.53913
-0.506139
-0.480311
-0.466278
-0.465462
-0.4758
-0.494625
-0.516414
-0.535944
-0.548533
-0.552532
-0.547989
-0.536392
-0.520122
-0.501675
0.204309
0.106803
-0.0552654
-0.219931
-0.34015
-0.414356
-0.451817
-0.463967
-0.459875
-0.44814
-0.436465
-0.429867
-0.430429
-0.437657
-0.449843
-0.463963
-0.476848
-0.485868
-0.489728
-0.488165
-0.481782
-0.4718
-0.459612
0.117669
0.0953865
0.00339653
-0.101054
-0.200303
-0.28041
-0.333997
-0.365546
-0.380072
-0.384319
-0.38465
-0.385447
-0.388993
-0.395727
-0.404947
-0.415158
-0.424625
-0.431801
-0.435713
-0.435997
-0.432868
-0.426939
-0.418951
0.104401
0.0896701
0.028946
-0.0454169
-0.121505
-0.191107
-0.246364
-0.284845
-0.308953
-0.323295
-0.332153
-0.33891
-0.345648
-0.35321
-0.361567
-0.370122
-0.378021
-0.384361
-0.388453
-0.389924
-0.388848
-0.385509
-0.380286
0.147578
0.139808
0.0735016
-0.0157739
-0.0742883
-0.132532
-0.182416
-0.220887
-0.248863
-0.268572
-0.282707
-0.29366
-0.303097
-0.311926
-0.32046
-0.328584
-0.335947
-0.342136
-0.346475
-0.348758
-0.349018
-0.347354
-0.343927
0.121647
0.13945
0.0849192
0.00329393
-0.0425337
-0.0904329
-0.133902
-0.170048
-0.198636
-0.220678
-0.237744
-0.251393
-0.262855
-0.272933
-0.282052
-0.290333
-0.29769
-0.303935
-0.308646
-0.311583
-0.312773
-0.312247
-0.310112
0.0831153
0.139756
0.0690147
0.019598
-0.0179984
-0.057906
-0.09562
-0.128691
-0.156428
-0.179135
-0.19763
-0.212873
-0.225719
-0.236816
-0.246584
-0.255233
-0.262806
-0.269236
-0.274318
-0.277787
-0.279635
-0.279917
-0.278675
0.091566
0.0867173
0.0658297
0.0359851
0.00344785
-0.0309167
-0.0641766
-0.0944058
-0.120804
-0.143314
-0.162314
-0.178365
-0.192048
-0.203857
-0.214158
-0.223176
-0.231005
-0.237642
-0.243018
-0.246908
-0.24925
-0.250115
-0.249524
0.103555
0.0937251
0.0785516
0.0519696
0.0225942
-0.00807567
-0.0380576
-0.065881
-0.0908155
-0.112666
-0.131576
-0.147871
-0.161936
-0.174138
-0.184776
-0.194053
-0.202078
-0.208882
-0.214436
-0.218631
-0.221351
-0.222641
-0.22254
0.115455
0.107065
0.090683
0.0658523
0.0386909
0.0106789
-0.0167287
-0.0424309
-0.0658365
-0.0867279
-0.105137
-0.121248
-0.135318
-0.147613
-0.158363
-0.16774
-0.175849
-0.182729
-0.188376
-0.192751
-0.195735
-0.197335
-0.197615
0.124135
0.116549
0.0991939
0.0759013
0.0507773
0.0251086
3.95548e-05
-0.0236096
-0.0453824
-0.0650774
-0.0826733
-0.0982699
-0.112033
-0.12415
-0.134793
-0.1441
-0.152159
-0.159012
-0.164665
-0.169101
-0.172241
-0.174076
-0.174648
0.126097
0.119348
0.102387
0.0811829
0.0584147
0.0352156
0.0125378
-0.00898782
-0.0289945
-0.0472946
-0.0638343
-0.0786553
-0.0918577
-0.103567
-0.113907
-0.12298
-0.130858
-0.137578
-0.143147
-0.14756
-0.15079
-0.152774
-0.153562
0.12125
0.115351
0.100309
0.0818796
0.061884
0.0413927
0.0212319
0.0019277
-0.0161941
-0.0329457
-0.0482463
-0.0620936
-0.0745367
-0.0856521
-0.0955225
-0.10422
-0.111798
-0.118284
-0.123688
-0.128007
-0.131229
-0.133307
-0.134263
0.111649
0.106674
0.0943475
0.0789959
0.0619796
0.044311
0.0267216
0.00968625
-0.00648247
-0.0215886
-0.0355269
-0.04826
-0.0597973
-0.0701761
-0.0794449
-0.0876498
-0.094826
-0.100994
-0.106161
-0.110325
-0.11348
-0.115591
-0.116671
0.0998608
0.0958488
0.0861972
0.0737743
0.0596524
0.0447292
0.029648
0.0148483
0.000634982
-0.0127888
-0.0252987
-0.0368307
-0.0473636
-0.0569042
-0.0654733
-0.0730953
-0.0797904
-0.0855706
-0.0904397
-0.0943955
-0.0974348
-0.0995299
-0.100692
0.0877237
0.0845803
0.0771534
0.0672653
0.0557494
0.043348
0.0306118
0.0179402
0.00562284
-0.00613652
-0.0172028
-0.0274937
-0.0369663
-0.0456041
-0.0534071
-0.060382
-0.0665363
-0.0718745
-0.0763968
-0.0801003
-0.0829813
-0.0850241
-0.0862307
0.0761341
0.0736951
0.0679958
0.0601938
0.0509141
0.0407393
0.0301256
0.0194225
0.00889522
-0.00126143
-0.01091
-0.0199587
-0.0283503
-0.0360529
-0.0430506
-0.049337
-0.0549096
-0.0597666
-0.0639052
-0.0673213
-0.0700113
-0.071975
-0.0731863
0.0653989
0.0635044
0.059123
0.0529996
0.0455891
0.0373332
0.0285975
0.0196772
0.0108051
0.00215947
-0.00612768
-0.0139624
-0.0212807
-0.0280409
-0.0342169
-0.0397932
-0.0447596
-0.0491096
-0.0528378
-0.05594
-0.0584133
-0.0602571
-0.0614493
0.0555509
0.0540763
0.0507046
0.045923
0.0400572
0.0334331
0.0263362
0.0190069
0.0116423
0.00439881
-0.00260283
-0.00927271
-0.0155457
-0.0213758
-0.0267316
-0.0315914
-0.0359405
-0.0397688
-0.0430694
-0.0458379
-0.0480721
-0.0497726
-0.0509175
0.0465132
0.0453677
0.0427809
0.0390763
0.034485
0.0292418
0.0235643
0.0176425
0.0116371
0.00568057
-0.000121886
-0.00568867
-0.0109581
-0.0158843
-0.020434
-0.024583
-0.0283139
-0.0316147
-0.0344777
-0.0368987
-0.0388767
-0.0404122
-0.0414843
0.0381704
0.0372901
0.0353259
0.0324949
0.02896
0.0248865
0.0204363
0.0157545
0.0109681
0.00618456
0.00149182
-0.00303983
-0.0073554
-0.0114125
-0.0151791
-0.0186309
-0.0217501
-0.0245241
-0.0269449
-0.029009
-0.0307164
-0.0320699
-0.0330498
0.0303996
0.0297386
0.0282797
0.0261678
0.0235174
0.0204401
0.0170538
0.013465
0.00977012
0.00605248
0.00238213
-0.00118353
-0.00459833
-0.00782573
-0.0108372
-0.0136105
-0.0161291
-0.018381
-0.0203588
-0.02206
-0.0234866
-0.024644
-0.0255446
0.0230799
0.0226058
0.0215673
0.0200583
0.0181582
0.0159377
0.0134798
0.0108585
0.00814294
0.00539433
0.00266496
-1.24989e-06
-0.00256824
-0.00500672
-0.00729328
-0.00940944
-0.0113411
-0.013078
-0.014614
-0.0159476
-0.0170818
-0.0180249
-0.0187882
0.0160941
0.0157857
0.0151071
0.0141144
0.0128615
0.011388
0.00974896
0.00799074
0.00615913
0.00429492
0.00243356
0.000605504
-0.00116382
-0.00285315
-0.00444519
-0.00592623
-0.00728561
-0.00851547
-0.00961149
-0.0105733
-0.0114049
-0.012112
-0.0126974
0.00932548
0.00917466
0.00881458
0.00827507
0.0075918
0.00678069
0.00587427
0.00489532
0.00386917
0.00281812
0.00176199
0.000718025
-0.000298837
-0.00127568
-0.00220198
-0.00306935
-0.00387092
-0.00460164
-0.00525933
-0.00584563
-0.00636843
-0.00684874
-0.00731976
0.00264152
0.00266082
0.00259167
0.00245966
0.00228912
0.00207863
0.00184072
0.00157811
0.00129764
0.00100465
0.000704346
0.000401534
0.000101017
-0.000192785
-0.0004762
-0.000746084
-0.000999338
-0.00123315
-0.00144545
-0.00163395
-0.0017967
-0.00193489
-0.00206148
878.835
873.235
872.435
943.42
443.587
401.84
352.464
390.701
297.907
300.942
303.994
406.417
296.93
299.022
300.625
304.81
296.514
299.379
301.475
301.795
449.977
654.322
698.301
659.75
824.43
824.513
824.797
829.746
717.278
743.823
763.234
780.237
138.071
227.746
281.567
327.567
-0.567128
-0.54413
-0.52519
-0.516678
-0.630329
-0.606289
-0.576952
-0.55123
-0.622555
-0.596085
-0.575232
-0.557749
-0.617436
-0.589017
-0.557146
-0.536975
-0.589297
-0.570132
-0.543318
-0.520225
-0.560268
-0.545459
-0.532617
-0.519583
-0.524817
-0.513514
-0.503856
-0.495413
-0.487806
-0.479512
-0.472335
-0.465754
-0.449694
-0.443583
-0.438032
-0.432933
-0.411806
-0.407217
-0.402361
-0.398093
-0.375002
-0.371428
-0.367192
-0.363911
-0.339888
-0.337124
-0.334571
-0.331841
-0.307002
-0.304766
-0.302631
-0.3003
-0.276266
-0.274461
-0.272692
-0.270681
-0.247671
-0.246207
-0.244728
-0.243012
-0.221138
-0.219972
-0.218752
-0.217281
-0.196585
-0.195659
-0.19465
-0.193404
-0.173917
-0.173204
-0.17239
-0.171335
-0.153074
-0.152525
-0.151869
-0.150998
-0.133979
-0.133579
-0.133071
-0.132356
-0.116558
-0.116278
-0.115895
-0.115327
-0.100717
-0.100547
-0.100278
-0.0998377
-0.0863622
-0.0862752
-0.0861021
-0.085784
-0.0733975
-0.0733843
-0.073297
-0.0730846
-0.0617257
-0.0617702
-0.0617555
-0.0616408
-0.0512411
-0.0513375
-0.0513869
-0.051356
-0.0418384
-0.0419723
-0.0420763
-0.0421228
-0.0334234
-0.0335883
-0.0337356
-0.0338445
-0.0259022
-0.0260769
-0.0262538
-0.0264137
-0.0191317
-0.0193199
-0.0195198
-0.0197186
-0.0129812
-0.0131883
-0.013405
-0.0136382
-0.00761396
-0.00772963
-0.00789853
-0.00812815
-0.00217994
-0.00234911
-0.00258706
-0.00287246
763.017
765.428
1054.85
1203.11
1300.7
1403.06
1458.67
1663.07
1536.29
1142.85
894.966
949.992
1301.53
2047.96
3836.74
3702.43
2501.39
4029.94
4769.8
552.484
835.212
1071.79
1217.29
1261.4
1268.35
1267.84
1260.4
1258.81
991.504
917.883
1017.15
1328.17
1409.25
1839.74
2749.07
2860.68
3739.17
3995.24
583.727
780.173
948.977
1086.49
1197.28
1238.44
1252.82
1208.98
1254.45
1267.61
1074.11
816.199
935.325
960.2
1136.29
2165.18
2731.94
2982.13
1181.92
437.887
654.984
751.737
916.839
986.406
1016.75
1010.55
1003.55
1155.4
1519.81
1360.81
1136.9
822.85
779.901
901.152
1896.11
2284.07
1611.98
1090.72
327.303
585.156
701.217
715.895
709.758
721.346
739.998
753.908
852.273
965.912
1383.82
1463.58
1276.7
1128.97
1156.37
1720.48
1432.36
1295.08
1047.82
617.47
585.524
562.187
567.477
574.188
596.346
810.992
875.43
885.95
876.826
884.535
1049.84
1386.75
1556.6
1522.7
1353.85
1354.03
1029.76
1074.54
838.042
832.596
698.258
615.28
679.245
835.976
874.724
877.505
889.863
913.582
932.612
949.545
946.634
944.038
1049.67
1086.28
1093.76
897.469
946.927
800.125
816.358
833.167
849.569
861.127
870.77
881.275
877.452
884.48
901.945
932.496
951.804
957.539
948.239
933.669
990.269
1060.19
875.567
483.916
426.289
563.457
685.086
777.334
830.737
859.608
875.563
887.825
895.812
909.118
928.706
1042.96
1255.86
1342.75
1316.57
1120.74
820.985
404.459
154.597
-0.498204
-0.314823
39.1434
200.231
393.771
618.325
777.906
853.415
877.438
886.916
1016.65
1441.82
1291.14
1138.45
904.219
496.783
149.008
4.88899
3.48416
-0.518839
-0.482222
-0.454511
-0.427151
-0.205827
0.661591
129.864
293.685
385.893
406.618
592.864
642.393
576.39
228.376
6.68428
1.54015
1.23386
1.68134
1.46194
-0.529514
-0.512759
-0.508099
-0.510784
-0.503389
-0.470572
-0.404758
1.60317
9.66863
27.9444
23.0487
-0.702262
-0.41238
1.09683
2.8112
3.05426
2.68674
1.19658
1.29365
-0.520866
-0.5228
-0.515559
-0.509029
-0.4936
-0.473247
-0.456606
0.640097
1.75866
-0.598732
-0.66293
-0.58609
-0.231072
3.36277
4.43981
4.68243
3.75122
1.65417
1.98012
-0.502338
-0.507423
-0.500223
-0.49359
-0.473572
-0.449056
-0.467251
-0.49175
-0.516018
-0.522248
-0.531803
-0.505364
-0.397107
0.120168
0.776633
0.204917
0.103833
2.64076
2.72258
-0.479325
-0.463283
-0.471823
-0.472672
-0.444734
-0.161492
-0.197077
-0.421081
-0.468675
-0.468931
-0.463421
-0.449202
-0.418977
-0.356616
-0.246106
-0.121592
0.00662369
0.107575
0.179751
-0.472577
-0.438713
-0.438302
-0.445025
-0.435128
-0.0378021
-0.0269242
-0.117359
-0.407656
-0.418074
-0.411605
-0.39713
-0.365526
-0.305526
-0.215807
-0.116629
-0.018037
0.0493422
0.108115
-0.454771
-0.412927
-0.409269
-0.415406
-0.407305
-0.0857945
0.0258138
-0.00976614
-0.340536
-0.363719
-0.35069
-0.329379
-0.294053
-0.239097
-0.164353
-0.0847857
-0.0134638
0.0392701
0.0799861
-0.423862
-0.389623
-0.367597
-0.372876
-0.37383
-0.274384
-0.0958818
-0.252409
-0.326455
-0.310741
-0.291221
-0.264268
-0.22646
-0.175314
-0.111585
-0.0458562
0.0140208
0.055982
0.0838596
-0.390672
-0.378817
-0.352759
-0.33164
-0.319918
-0.330714
-0.318839
-0.302625
-0.284069
-0.264327
-0.241077
-0.211633
-0.173959
-0.12687
-0.070717
-0.014088
0.0435264
0.693912
0.49063
-0.358157
-0.347053
-0.334752
-0.321936
-0.309239
-0.296305
-0.282426
-0.26594
-0.24697
-0.225817
-0.201452
-0.172327
-0.137138
-0.0952978
-0.0467324
0.00181084
0.125152
2.57076
0.923023
-0.326217
-0.316098
-0.30457
-0.292227
-0.279161
-0.265383
-0.250513
-0.233805
-0.215039
-0.194167
-0.170638
-0.143629
-0.112501
-0.0771504
-0.0379205
-0.000596476
1.70738
2.64509
0.54777
-0.295487
-0.286569
-0.275966
-0.264234
-0.251455
-0.237655
-0.222712
-0.206311
-0.188259
-0.168455
-0.146653
-0.122504
-0.0958761
-0.067087
-0.0375216
-0.0120643
2.49018
2.45787
0.12742
-0.266528
-0.258689
-0.249064
-0.238133
-0.225983
-0.21267
-0.198214
-0.182535
-0.165554
-0.147233
-0.127506
-0.106296
-0.0837265
-0.0602485
-0.0377762
-0.0196944
0.950065
0.00779172
0.0343337
-0.239443
-0.232547
-0.223879
-0.213841
-0.202521
-0.19
-0.176377
-0.161704
-0.146005
-0.129316
-0.111678
-0.093122
-0.0737891
-0.0538734
-0.0347094
-0.016841
-0.0129524
0.0111167
0.0331907
-0.214197
-0.208142
-0.200392
-0.19128
-0.18089
-0.169324
-0.156724
-0.143214
-0.128887
-0.113836
-0.098151
-0.0818829
-0.0650513
-0.0475087
-0.0295524
0.0173648
0.0100833
0.0212514
0.0383246
-0.19076
-0.185461
-0.178578
-0.170385
-0.160964
-0.150428
-0.13894
-0.126656
-0.113709
-0.100227
-0.0863211
-0.0720336
-0.0572532
-0.0415857
-0.024407
0.0456839
0.0463891
0.0297263
0.0460445
-0.169072
-0.164473
-0.158407
-0.151109
-0.142658
-0.133171
-0.122816
-0.11176
-0.100153
-0.0881394
-0.0758497
-0.0633236
-0.0503657
-0.0364201
-0.0202032
0.038326
0.0447409
0.0361057
0.052706
-0.1491
-0.145145
-0.139846
-0.133405
-0.1259
-0.117447
-0.10821
-0.0983496
-0.0880197
-0.077376
-0.066565
-0.0556501
-0.0444082
-0.0321664
-0.0172385
0.00109266
0.0217227
0.038658
0.0556849
-0.130777
-0.127425
-0.122844
-0.117217
-0.110622
-0.103174
-0.0950195
-0.0863105
-0.0771948
-0.0678329
-0.0583882
-0.0489672
-0.0393727
-0.0288669
-0.0153655
0.00195516
0.0213182
0.0375918
0.0537317
-0.114048
-0.111248
-0.107338
-0.10248
-0.0967584
-0.0902759
-0.0831661
-0.0755645
-0.0676079
-0.0594553
-0.0512779
-0.0432265
-0.0351644
-0.0262382
-0.014135
0.00127336
0.0185709
0.0330312
0.0475529
-0.0988233
-0.0965356
-0.0932525
-0.0891249
-0.0842363
-0.0786825
-0.0725795
-0.0660466
-0.0592041
-0.0522025
-0.0452007
-0.0383767
-0.0316614
-0.0240254
-0.0139106
-0.000793594
0.0140598
0.0265511
0.0387457
-0.0850229
-0.0832059
-0.0805081
-0.0770716
-0.07298
-0.0683191
-0.0631876
-0.0576885
-0.0519219
-0.046023
-0.0401178
-0.0343851
-0.0288075
-0.0227688
-0.0140389
-0.00336201
0.00869677
0.0186904
0.0288817
-0.0725481
-0.0711672
-0.0690171
-0.0662368
-0.0629081
-0.0591054
-0.0549108
-0.050411
-0.0456834
-0.0408447
-0.0359736
-0.0312309
-0.0266148
-0.0217192
-0.014941
-0.00618892
0.00321359
0.0106755
0.0190096
-0.0613112
-0.0603266
-0.0586886
-0.0565321
-0.053934
-0.0509564
-0.0476641
-0.0441279
-0.0404008
-0.03658
-0.0326919
-0.0288725
-0.0251001
-0.0211149
-0.015844
-0.00956742
-0.00224645
0.00286959
0.00983344
-0.0512065
-0.0505856
-0.0494279
-0.0478663
-0.0459695
-0.0437855
-0.0413618
-0.0387524
-0.0359831
-0.0331323
-0.0301759
-0.0272255
-0.0242174
-0.0210435
-0.0169301
-0.0126165
-0.00739239
-0.0037368
0.0016427
-0.0421373
-0.0418447
-0.0411388
-0.0401472
-0.038926
-0.0375077
-0.0359205
-0.0341995
-0.0323406
-0.0304009
-0.0283122
-0.0261653
-0.0238521
-0.0214172
-0.0182249
-0.0153631
-0.0115112
-0.00935004
-0.00539303
-0.0339962
-0.034002
-0.0337246
-0.0332828
-0.0327161
-0.0320387
-0.0312572
-0.0303838
-0.0293826
-0.0282831
-0.0269831
-0.0255567
-0.0238676
-0.022097
-0.0195916
-0.0179007
-0.0148895
-0.0139539
-0.011133
-0.0266831
-0.0269562
-0.0270868
-0.0271774
-0.0272461
-0.027287
-0.0272818
-0.0272132
-0.0270116
-0.0266747
-0.0260802
-0.0252946
-0.0241665
-0.02297
-0.0209563
-0.0202266
-0.0174865
-0.0176319
-0.0153252
-0.0200804
-0.020592
-0.0211138
-0.021724
-0.0224158
-0.0231572
-0.0238972
-0.0245802
-0.0251098
-0.0254608
-0.0255083
-0.0253122
-0.024709
-0.0239841
-0.0223073
-0.0221581
-0.0199483
-0.0200581
-0.0180015
-0.0140901
-0.0148235
-0.0157371
-0.0168607
-0.0181559
-0.0195577
-0.0209771
-0.0223333
-0.023527
-0.02452
-0.0251909
-0.0255701
-0.0254966
-0.0251949
-0.0240792
-0.0236568
-0.0218458
-0.0217445
-0.0196099
-0.00863041
-0.00956604
-0.0108691
-0.0124732
-0.0143017
-0.0162748
-0.0182964
-0.0202863
-0.022145
-0.0238079
-0.0251401
-0.0261207
-0.0265888
-0.0266683
-0.0259272
-0.025344
-0.0236315
-0.0229557
-0.0209304
-0.00345799
-0.00458502
-0.00617592
-0.00813373
-0.010424
-0.0129716
-0.0156634
-0.0183965
-0.0210382
-0.0234924
-0.0255713
-0.0272416
-0.0282653
-0.0287444
-0.0282754
-0.0276015
-0.0256206
-0.0243607
-0.0216358
)
;

boundaryField
{
    leftWall
    {
        type            fixedFluxPressure;
        gradient        uniform 0;
        value           nonuniform List<scalar> 
50
(
5929.88
5842.9
5626.09
4624.48
2414.16
1970.85
1862.21
1766.04
1643.8
1578.9
1562.15
1560.38
1566.37
1578.11
1595.18
1286.93
316.62
176.945
142.235
93.6946
41.0896
4.59138
0.969044
0.831166
0.449118
0.204309
0.117669
0.104401
0.147578
0.121647
0.0831153
0.091566
0.103555
0.115455
0.124135
0.126097
0.12125
0.111649
0.0998608
0.0877237
0.0761341
0.0653989
0.0555509
0.0465132
0.0381704
0.0303996
0.0230799
0.0160941
0.00932548
0.00264152
)
;
    }
    rightWall
    {
        type            fixedFluxPressure;
        gradient        uniform 0;
        value           nonuniform List<scalar> 
50
(
4901.01
4818.33
4790.82
4777.22
4739.43
4585.39
5083.97
5107.83
4769.8
3995.24
1181.92
1090.72
1047.82
1074.54
946.927
483.916
154.597
3.48416
1.46194
1.29365
1.98012
2.72258
0.179751
0.108115
0.0799861
0.0838596
0.49063
0.923023
0.54777
0.12742
0.0343337
0.0331907
0.0383246
0.0460445
0.052706
0.0556849
0.0537317
0.0475529
0.0387457
0.0288817
0.0190096
0.00983344
0.0016427
-0.00539303
-0.011133
-0.0153252
-0.0180015
-0.0196099
-0.0209304
-0.0216358
)
;
    }
    lowerWall
    {
        type            fixedFluxPressure;
        gradient        uniform 0;
        value           nonuniform List<scalar> 
62
(
5929.88
6070.48
6265.31
6404.39
6471.03
6470.55
6412.59
6318.49
6215.32
6127.37
6064.8
6023.81
5995.38
5970.8
5943.23
5907.49
5860.33
5801.4
5734.45
5667.01
5607.87
5558.16
5532.66
5532.66
5527.1
5515.25
5497.89
5473.65
5097.99
1958.65
875.514
878.835
873.235
872.435
943.42
1666.12
1679.25
1282.94
961.365
993.318
1017.16
917.093
867.845
1666.12
1590.53
1508.95
1573.43
1656.14
1739.51
1856.5
2119.12
2318.79
2454.51
2717.3
3115.12
3666.01
4335.28
4982.1
5371.6
5332.67
4926
4901.01
)
;
    }
    atmosphere
    {
        type            totalPressure;
        rho             rho;
        psi             none;
        gamma           1;
        p0              uniform 0;
        value           nonuniform List<scalar> 
46
(
0
0
0
0
0
0
0
0
0
0
0
0
0
0
0
0
0
0
0
0
0
0
0
0
0
-2.09749e-05
-0.00013761
-0.000516832
-0.00152487
-0.00316878
-0.00538169
-0.00808319
-0.0111177
-0.0143306
-0.0176121
-0.0208039
-0.0238132
-0.0263686
-0.0285222
-0.0298605
-0.0306096
-0.0302312
-0.0296696
-0.0270429
-0.0256305
-0.0202855
)
;
    }
    defaultFaces
    {
        type            empty;
    }
}


// ************************************************************************* //
