/*--------------------------------*- C++ -*----------------------------------*\
| =========                 |                                                 |
| \\      /  F ield         | OpenFOAM: The Open Source CFD Toolbox           |
|  \\    /   O peration     | Version:  2312                                  |
|   \\  /    A nd           | Website:  www.openfoam.com                      |
|    \\/     M anipulation  |                                                 |
\*---------------------------------------------------------------------------*/
FoamFile
{
    version     2.0;
    format      ascii;
    arch        "LSB;label=32;scalar=64";
    class       volVectorField;
    location    "0.9";
    object      U;
}
// * * * * * * * * * * * * * * * * * * * * * * * * * * * * * * * * * * * * * //

dimensions      [0 1 -1 0 0 0 0];

internalField   nonuniform List<vector> 
2268
(
(-0.0572569 0.0251948 0)
(-0.158357 0.021192 0)
(-0.236914 0.0146376 0)
(-0.28459 0.00793275 0)
(-0.302865 0.00244829 0)
(-0.299751 -0.00155403 0)
(-0.282666 -0.00405189 0)
(-0.258615 -0.00519567 0)
(-0.233522 -0.00520383 0)
(-0.211133 -0.00460465 0)
(-0.192474 -0.00399346 0)
(-0.17665 -0.00364573 0)
(-0.162226 -0.00356599 0)
(-0.148027 -0.0036765 0)
(-0.133252 -0.00391946 0)
(-0.117353 -0.00424589 0)
(-0.100082 -0.00458588 0)
(-0.0816514 -0.00483824 0)
(-0.0627369 -0.00489353 0)
(-0.0439417 -0.00467655 0)
(-0.0254456 -0.00414677 0)
(-0.0146675 -0.00329602 0)
(0.00264412 0.000194164 0)
(-0.0598419 0.0849104 0)
(-0.164386 0.0686017 0)
(-0.244213 0.0451442 0)
(-0.291252 0.0222894 0)
(-0.308097 0.00414168 0)
(-0.303426 -0.00858827 0)
(-0.284941 -0.0158222 0)
(-0.259749 -0.0183025 0)
(-0.233901 -0.0172239 0)
(-0.211249 -0.0144765 0)
(-0.192684 -0.0119613 0)
(-0.177059 -0.0104656 0)
(-0.162808 -0.00993867 0)
(-0.148751 -0.0100947 0)
(-0.134113 -0.0107248 0)
(-0.11835 -0.0116565 0)
(-0.101187 -0.0126443 0)
(-0.0828243 -0.0133543 0)
(-0.0639844 -0.0134494 0)
(-0.0454268 -0.0127579 0)
(-0.0276871 -0.0112676 0)
(-0.0172737 -0.00934401 0)
(-0.00292291 -0.00539819 0)
(-0.0657522 0.1235 0)
(-0.177127 0.105942 0)
(-0.259168 0.071724 0)
(-0.305108 0.0358785 0)
(-0.319434 0.00706313 0)
(-0.312031 -0.0134322 0)
(-0.290983 -0.0255378 0)
(-0.263628 -0.0298904 0)
(-0.236387 -0.0281925 0)
(-0.213305 -0.0236564 0)
(-0.194992 -0.0196087 0)
(-0.179787 -0.0173067 0)
(-0.165875 -0.016577 0)
(-0.152073 -0.0169046 0)
(-0.137662 -0.0179654 0)
(-0.122081 -0.0195165 0)
(-0.104965 -0.0211646 0)
(-0.0864218 -0.0223289 0)
(-0.0671624 -0.0223889 0)
(-0.0480759 -0.0210054 0)
(-0.0300254 -0.0180879 0)
(-0.0186024 -0.0141723 0)
(-0.0049156 -0.00938408 0)
(-0.102881 0.177433 0)
(-0.232396 0.149436 0)
(-0.305265 0.0988558 0)
(-0.339304 0.046919 0)
(-0.343975 0.00637702 0)
(-0.330289 -0.0220159 0)
(-0.305026 -0.0380908 0)
(-0.274331 -0.043411 0)
(-0.244705 -0.0401553 0)
(-0.220566 -0.0329912 0)
(-0.202175 -0.0270152 0)
(-0.18713 -0.0238187 0)
(-0.173284 -0.0228962 0)
(-0.159484 -0.0234028 0)
(-0.145108 -0.0249231 0)
(-0.12956 -0.0271926 0)
(-0.112315 -0.0296803 0)
(-0.0932893 -0.0315336 0)
(-0.0731165 -0.0317809 0)
(-0.0527915 -0.0298719 0)
(-0.0335074 -0.025658 0)
(-0.0196722 -0.0203208 0)
(-0.00470828 -0.0150847 0)
(-0.157978 0.317785 0)
(-0.333913 0.203652 0)
(-0.386596 0.120458 0)
(-0.402681 0.0530259 0)
(-0.393423 0.0031006 0)
(-0.369284 -0.0320032 0)
(-0.334318 -0.0521384 0)
(-0.295665 -0.0585861 0)
(-0.260576 -0.0532245 0)
(-0.233727 -0.0427136 0)
(-0.214326 -0.0345008 0)
(-0.198646 -0.0303337 0)
(-0.184101 -0.0291924 0)
(-0.169642 -0.029798 0)
(-0.154826 -0.0317051 0)
(-0.139008 -0.0347408 0)
(-0.121398 -0.0382702 0)
(-0.101617 -0.0411455 0)
(-0.0801809 -0.0419295 0)
(-0.0581763 -0.0397896 0)
(-0.037116 -0.0345002 0)
(-0.0199499 -0.027949 0)
(-0.00426063 -0.0198645 0)
(-0.0852905 0.43811 0)
(-0.384997 0.286532 0)
(-0.460863 0.125978 0)
(-0.470081 0.045125 0)
(-0.45173 -0.0122527 0)
(-0.412033 -0.0529372 0)
(-0.362478 -0.0750851 0)
(-0.314466 -0.0802109 0)
(-0.274846 -0.0713345 0)
(-0.24593 -0.0570229 0)
(-0.225401 -0.0459953 0)
(-0.208493 -0.0400004 0)
(-0.19272 -0.0377855 0)
(-0.177458 -0.0377549 0)
(-0.162466 -0.0394194 0)
(-0.146822 -0.0427738 0)
(-0.129199 -0.0471908 0)
(-0.108819 -0.0513176 0)
(-0.0860755 -0.0532171 0)
(-0.0621673 -0.0518656 0)
(-0.0394185 -0.0469624 0)
(-0.0194862 -0.0398851 0)
(-0.0108217 -0.030786 0)
(-0.0170291 0.485379 0)
(-0.185588 0.432202 0)
(-0.449624 0.140731 0)
(-0.483937 0.0345813 0)
(-0.468704 -0.0293789 0)
(-0.421113 -0.0775234 0)
(-0.368202 -0.0983549 0)
(-0.322029 -0.100518 0)
(-0.283719 -0.0871294 0)
(-0.252849 -0.067343 0)
(-0.228885 -0.0539836 0)
(-0.208415 -0.048021 0)
(-0.190709 -0.0462902 0)
(-0.175507 -0.046158 0)
(-0.161658 -0.0474087 0)
(-0.147121 -0.0504429 0)
(-0.129487 -0.0549569 0)
(-0.107337 -0.0596022 0)
(-0.0805529 -0.0618631 0)
(-0.0507476 -0.0601889 0)
(-0.024255 -0.0538099 0)
(-0.00369982 -0.0440411 0)
(-0.0197776 -0.0356596 0)
(0.0146976 0.504802 0)
(0.00467578 0.503528 0)
(-0.186278 0.290902 0)
(-0.382392 0.0359835 0)
(-0.407872 -0.0499966 0)
(-0.385962 -0.0979825 0)
(-0.341933 -0.118746 0)
(-0.307862 -0.117697 0)
(-0.285559 -0.097449 0)
(-0.251673 -0.0770518 0)
(-0.204367 -0.064121 0)
(-0.158629 -0.056794 0)
(-0.12753 -0.0519178 0)
(-0.114717 -0.0494125 0)
(-0.10871 -0.0525704 0)
(-0.097427 -0.0605184 0)
(-0.0763174 -0.0704609 0)
(-0.045688 -0.0791747 0)
(-0.00799428 -0.0835855 0)
(0.0356064 -0.0797214 0)
(0.0639565 -0.06239 0)
(0.0847431 -0.0301303 0)
(0.00260862 -0.0241678 0)
(-0.0733938 -0.00721035 0)
(0.103338 0.0122279 0)
(0.0321882 0.015589 0)
(0.0132819 -0.0156685 0)
(-0.0287455 -0.0113379 0)
(-0.0249743 -0.0310954 0)
(0.0773881 -0.0432405 0)
(0.17488 -0.0380426 0)
(0.239937 -0.029812 0)
(0.289131 -0.0231558 0)
(0.314656 -0.0117714 0)
(0.311283 -0.000359477 0)
(0.276017 0.00417938 0)
(0.240156 -0.00382969 0)
(0.25354 -0.011623 0)
(0.299687 -0.00438376 0)
(0.258553 0.0525745 0)
(-0.172923 0.040858 0)
(-0.199972 -0.0829087 0)
(-0.115067 -0.004659 0)
(0.187129 -0.0655784 0)
(0.184097 0.0350048 0)
(0.206576 0.0389784 0)
(0.232254 0.0211818 0)
(0.285955 -0.0180231 0)
(0.329821 -0.0423096 0)
(0.37246 -0.0451593 0)
(0.40501 -0.021579 0)
(0.418096 -0.0133963 0)
(0.411624 -0.000331243 0)
(0.379444 0.0168013 0)
(0.322536 0.02953 0)
(0.262619 0.0143007 0)
(0.231733 -0.0119279 0)
(0.239447 0.000381654 0)
(0.157931 0.123904 0)
(-0.195799 0.161724 0)
(-0.162973 -0.112132 0)
(0.143943 -0.0531594 0)
(0.167918 -0.086118 0)
(0.247826 -0.0213874 0)
(0.281496 -0.0288313 0)
(0.313519 -0.0381514 0)
(0.341246 -0.0553838 0)
(0.356908 -0.0658218 0)
(0.386317 -0.0661718 0)
(0.415594 -0.0452656 0)
(0.437619 -0.026471 0)
(0.388172 0.0074225 0)
(0.293087 0.041734 0)
(0.229976 0.0528716 0)
(0.1458 0.0354826 0)
(0.125978 0.00117539 0)
(0.156962 0.0258656 0)
(0.0210129 0.216643 0)
(-0.276916 0.226889 0)
(-0.173751 -0.215917 0)
(0.1376 -0.11739 0)
(0.0658889 -0.115933 0)
(0.116823 0.00139447 0)
(0.0845031 0.00144306 0)
(0.087257 -0.01606 0)
(0.0474688 -0.0387247 0)
(-0.0266803 -0.06015 0)
(-0.0796122 -0.0709682 0)
(-0.0239819 -0.0446183 0)
(0.0821212 -0.00713986 0)
(0.0383941 0.0674487 0)
(0.0372753 0.0853292 0)
(-0.141522 0.11484 0)
(-0.0921241 0.039732 0)
(-0.00191773 -0.0249707 0)
(0.0577202 0.0535482 0)
(-0.159942 0.313558 0)
(-0.374922 0.27128 0)
(-0.142926 -0.342042 0)
(0.126447 -0.134652 0)
(-0.0260054 -0.101137 0)
(-0.135924 0.0338505 0)
(-0.275654 -0.0203097 0)
(-0.355046 -0.0211576 0)
(-0.416534 -0.0112023 0)
(-0.423889 -0.0333651 0)
(-0.365134 -0.0886477 0)
(-0.261144 -0.115971 0)
(-0.138337 -0.0386538 0)
(-0.175574 0.0656235 0)
(-0.237391 0.116629 0)
(-0.213413 0.0976897 0)
(-0.0776231 -0.0258271 0)
(-0.0500687 -0.0569079 0)
(-0.0663371 0.105591 0)
(-0.318224 0.391032 0)
(-0.442478 0.231831 0)
(-0.101999 -0.460169 0)
(0.156465 -0.161811 0)
(-0.0836299 -0.0473863 0)
(-0.276724 0.130946 0)
(-0.429232 0.059697 0)
(-0.538746 0.0364331 0)
(-0.592209 0.00274926 0)
(-0.524322 -0.0772355 0)
(-0.414831 -0.142852 0)
(-0.319166 -0.155708 0)
(-0.250192 -0.0452992 0)
(-0.300287 0.128148 0)
(-0.335828 0.116605 0)
(-0.188128 0.0475837 0)
(-0.0781044 -0.0366428 0)
(-0.0846084 -0.0432084 0)
(-0.196741 0.178444 0)
(-0.43499 0.461476 0)
(-0.461172 0.172446 0)
(-0.0688412 -0.568022 0)
(0.1673 -0.171786 0)
(-0.186491 0.050577 0)
(-0.384682 0.201297 0)
(-0.510125 0.0999926 0)
(-0.569674 0.0532145 0)
(-0.558892 -0.0189887 0)
(-0.484258 -0.108462 0)
(-0.401569 -0.182449 0)
(-0.329866 -0.187701 0)
(-0.258248 -0.0766416 0)
(-0.189862 0.112565 0)
(-0.119315 0.0608226 0)
(-0.00885298 -0.0137839 0)
(-4.65402e-05 -0.0352648 0)
(-0.138975 0.00899095 0)
(-0.29672 0.259249 0)
(-0.576479 0.514483 0)
(-0.426839 0.0752108 0)
(-0.0329792 -0.679759 0)
(0.123614 -0.124347 0)
(-0.352976 0.178176 0)
(-0.464692 0.253561 0)
(-0.543973 0.129962 0)
(-0.550915 0.052035 0)
(-0.518076 -0.0355966 0)
(-0.460648 -0.134561 0)
(-0.409732 -0.212479 0)
(-0.363309 -0.221484 0)
(-0.293988 -0.11498 0)
(-0.181749 0.073306 0)
(-0.107445 0.0199442 0)
(-0.0788463 -0.0324845 0)
(-0.104481 -0.00978663 0)
(-0.245943 0.0842993 0)
(-0.367671 0.336518 0)
(-0.644148 0.530117 0)
(-0.270618 -0.100916 0)
(-0.0115646 -0.748206 0)
(0.0405746 0.46573 0)
(0.139405 0.485264 0)
(0.172125 0.409654 0)
(0.129085 0.22762 0)
(0.0301291 0.0129362 0)
(-0.104643 -0.114137 0)
(-0.187372 -0.149869 0)
(-0.22785 -0.14634 0)
(-0.220796 -0.133538 0)
(-0.187456 -0.122127 0)
(-0.1458 -0.106824 0)
(-0.107705 -0.0868644 0)
(-0.0862368 -0.0653319 0)
(-0.0901163 -0.0548486 0)
(-0.102753 -0.0578949 0)
(-0.103614 -0.0711176 0)
(-0.0889143 -0.0876756 0)
(-0.0663773 -0.101418 0)
(-0.0416041 -0.110557 0)
(-0.0149545 -0.107769 0)
(0.00831669 -0.0849097 0)
(0.0285291 -0.0289441 0)
(0.00572589 0.0158399 0)
(0.0423366 0.369274 0)
(0.13749 0.373159 0)
(0.217727 0.317362 0)
(0.247974 0.206261 0)
(0.238512 0.106376 0)
(0.208084 0.0616537 0)
(0.154174 0.0142148 0)
(0.103201 -0.0443272 0)
(0.0719052 -0.102246 0)
(0.0550805 -0.133907 0)
(0.0478657 -0.133146 0)
(0.0473794 -0.110588 0)
(0.0388616 -0.0549347 0)
(0.0215299 -0.0156157 0)
(0.00280495 -0.03455 0)
(-0.0160925 -0.0743213 0)
(-0.0378183 -0.107753 0)
(-0.067137 -0.119436 0)
(-0.0903534 -0.123702 0)
(-0.10498 -0.11887 0)
(-0.0838095 -0.0915789 0)
(-0.0478785 -0.0435451 0)
(-0.0129992 -0.0249309 0)
(0.0367018 0.281077 0)
(0.110355 0.275547 0)
(0.183126 0.240609 0)
(0.232609 0.174437 0)
(0.245864 0.100239 0)
(0.235665 0.0315336 0)
(0.227074 -0.0236494 0)
(0.221578 -0.0663534 0)
(0.208578 -0.0951491 0)
(0.190583 -0.110046 0)
(0.167985 -0.100906 0)
(0.147862 -0.100942 0)
(0.125561 -0.0808915 0)
(0.0566819 -0.0324969 0)
(-0.0479052 -0.00432462 0)
(-0.157573 -0.0108464 0)
(-0.26048 -0.0215465 0)
(-0.319549 -0.0289037 0)
(-0.389624 -0.0624505 0)
(-0.457771 -0.129504 0)
(-0.475199 -0.152371 0)
(-0.526418 -0.0259007 0)
(-0.830999 0.029254 0)
(0.0321104 0.213571 0)
(0.087073 0.208638 0)
(0.14148 0.18275 0)
(0.187205 0.141341 0)
(0.21225 0.0922876 0)
(0.220037 0.0474234 0)
(0.216335 0.00402422 0)
(0.207999 -0.0409835 0)
(0.198117 -0.0695196 0)
(0.175569 -0.106228 0)
(0.127503 -0.110798 0)
(-0.0474917 -0.0463924 0)
(-0.347159 0.111702 0)
(-0.507321 0.159963 0)
(-0.620504 0.149979 0)
(-0.713829 0.111689 0)
(-0.819153 0.0411454 0)
(-0.897613 -0.0143954 0)
(-0.927024 -0.0316115 0)
(-0.995875 0.0136018 0)
(-1.27475 0.0589694 0)
(-1.39402 0.228685 0)
(-1.44719 0.257104 0)
(0.0292448 0.158202 0)
(0.0665553 0.160967 0)
(0.102804 0.137846 0)
(0.137354 0.109981 0)
(0.15437 0.0793568 0)
(0.155541 0.0460491 0)
(0.151735 0.00239512 0)
(0.142903 -0.0439884 0)
(0.105234 -0.0628293 0)
(-0.0842792 -0.0234184 0)
(-0.474548 0.209338 0)
(-0.667437 0.285662 0)
(-0.811346 0.287432 0)
(-0.910151 0.271083 0)
(-1.03761 0.249506 0)
(-1.18085 0.210516 0)
(-1.30829 0.142425 0)
(-1.43423 0.0869973 0)
(-1.52711 0.0898706 0)
(-1.63936 0.206495 0)
(-1.65571 0.200522 0)
(-1.62674 0.188189 0)
(-1.59744 0.277091 0)
(0.00936884 0.11683 0)
(0.0351155 0.130795 0)
(0.0537897 0.106795 0)
(0.0709207 0.0940126 0)
(0.068433 0.0828405 0)
(0.0565582 0.0519136 0)
(0.0157024 0.00570197 0)
(-0.125741 -0.00425938 0)
(-0.434075 0.221033 0)
(-0.652836 0.36117 0)
(-0.874442 0.409926 0)
(-0.971127 0.393912 0)
(-1.06119 0.392658 0)
(-1.17359 0.4014 0)
(-1.27758 0.393354 0)
(-1.37061 0.349855 0)
(-1.45923 0.279005 0)
(-1.54245 0.205821 0)
(-1.59319 0.153406 0)
(-1.58061 0.106295 0)
(-1.52526 0.070985 0)
(-1.47189 0.057939 0)
(-1.41237 0.0757632 0)
(-0.024742 0.11777 0)
(-0.0117184 0.120604 0)
(-0.0129716 0.0980379 0)
(-0.0245788 0.101439 0)
(-0.0837008 0.108554 0)
(-0.190388 0.109922 0)
(-0.372852 0.198555 0)
(-0.627082 0.335572 0)
(-0.835246 0.468073 0)
(-0.971644 0.50409 0)
(-1.04019 0.495391 0)
(-1.10765 0.478032 0)
(-1.19528 0.486611 0)
(-1.27703 0.486069 0)
(-1.35376 0.456192 0)
(-1.43053 0.387067 0)
(-1.50884 0.287667 0)
(-1.57868 0.196219 0)
(-1.61775 0.140475 0)
(-1.60315 0.112499 0)
(-1.5507 0.0909632 0)
(-1.4918 0.0738655 0)
(-1.42892 0.0510364 0)
(-0.0631315 0.141936 0)
(-0.0810281 0.121384 0)
(-0.146286 0.133905 0)
(-0.289608 0.186671 0)
(-0.448542 0.243495 0)
(-0.641386 0.323309 0)
(-0.856688 0.446748 0)
(-0.997547 0.516401 0)
(-1.04583 0.545597 0)
(-1.07426 0.550957 0)
(-1.11451 0.550969 0)
(-1.16449 0.550812 0)
(-1.22211 0.556678 0)
(-1.28084 0.550678 0)
(-1.3441 0.518523 0)
(-1.41862 0.462085 0)
(-1.50183 0.377249 0)
(-1.56886 0.276528 0)
(-1.59104 0.159813 0)
(-1.54963 0.0279561 0)
(-1.50297 -0.0454773 0)
(-1.47318 -0.0695188 0)
(-1.45216 -0.0819033 0)
(-0.161612 0.273537 0)
(-0.35563 0.224951 0)
(-0.580981 0.30473 0)
(-0.808677 0.395624 0)
(-0.972048 0.450655 0)
(-1.06955 0.490256 0)
(-1.10589 0.520438 0)
(-1.11125 0.540158 0)
(-1.11331 0.559056 0)
(-1.12059 0.573049 0)
(-1.1402 0.582879 0)
(-1.16976 0.589031 0)
(-1.20544 0.593857 0)
(-1.24804 0.593105 0)
(-1.30274 0.574505 0)
(-1.34864 0.558738 0)
(-1.3615 0.519182 0)
(-1.44711 0.336128 0)
(-1.47998 0.222573 0)
(-1.53837 0.110601 0)
(-1.63448 0.0529601 0)
(-1.65843 0.0223462 0)
(-1.51799 -0.0548913 0)
(-0.265596 0.865175 0)
(-0.970179 0.630953 0)
(-1.13108 0.525269 0)
(-1.17432 0.50351 0)
(-1.20167 0.493556 0)
(-1.20663 0.493335 0)
(-1.18711 0.50302 0)
(-1.16349 0.52193 0)
(-1.14558 0.54693 0)
(-1.13561 0.572506 0)
(-1.13697 0.593164 0)
(-1.14864 0.605236 0)
(-1.16599 0.614525 0)
(-1.1157 0.658618 0)
(-1.12345 0.66532 0)
(-1.21649 0.665254 0)
(-1.22401 0.560844 0)
(-1.25398 0.411952 0)
(-1.28669 0.261087 0)
(-1.30355 0.135144 0)
(-1.29147 -0.0222303 0)
(-1.2425 -0.14205 0)
(-1.189 -0.182407 0)
(-0.337532 1.62832 0)
(-1.21544 0.720224 0)
(-1.28274 0.567017 0)
(-1.30815 0.509371 0)
(-1.29832 0.478089 0)
(-1.26636 0.463155 0)
(-1.22074 0.472052 0)
(-1.17807 0.499802 0)
(-1.14528 0.533811 0)
(-1.12223 0.565868 0)
(-1.10674 0.594021 0)
(-1.00034 0.628634 0)
(-1.01838 0.571204 0)
(-1.03527 0.734502 0)
(-0.993172 0.642955 0)
(-0.977967 0.607124 0)
(-0.940644 0.508093 0)
(-0.913873 0.36499 0)
(-0.900218 0.227437 0)
(-0.887451 0.0982697 0)
(-0.869486 -0.00285472 0)
(-0.860747 -0.064081 0)
(-0.86403 -0.11339 0)
(-0.0448318 2.2149 0)
(-1.19485 0.944497 0)
(-1.32771 0.60088 0)
(-1.34782 0.504796 0)
(-1.32019 0.459082 0)
(-1.27205 0.434255 0)
(-1.219 0.437453 0)
(-1.17027 0.469004 0)
(-1.1135 0.511212 0)
(-1.07193 0.510074 0)
(-1.02709 0.477763 0)
(-0.943743 0.614895 0)
(-0.884148 0.564865 0)
(-0.829384 0.627935 0)
(-0.752124 0.591739 0)
(-0.681716 0.549818 0)
(-0.602582 0.463931 0)
(-0.532768 0.346232 0)
(-0.471447 0.223281 0)
(-0.413627 0.107714 0)
(-0.354695 -0.00656506 0)
(-0.349242 -0.112024 0)
(-0.357449 -0.194985 0)
(0.0840894 2.62342 0)
(-0.959695 1.59039 0)
(-1.22469 0.700829 0)
(-1.3137 0.514806 0)
(-1.26824 0.386023 0)
(-1.21661 0.298211 0)
(-1.1616 0.314769 0)
(-1.08673 0.35707 0)
(-0.988658 0.397059 0)
(-0.891546 0.413504 0)
(-0.815584 0.43319 0)
(-0.73557 0.490956 0)
(-0.644988 0.497996 0)
(-0.556642 0.523273 0)
(-0.452861 0.498619 0)
(-0.356745 0.457614 0)
(-0.251859 0.377033 0)
(-0.149983 0.266013 0)
(-0.0533577 0.138107 0)
(0.0293256 0.0127778 0)
(0.119652 -0.0767782 0)
(0.163719 -0.118473 0)
(0.177198 -0.133144 0)
(0.386855 3.30688 0)
(0.425133 3.11165 0)
(0.0561017 1.48793 0)
(-0.229459 0.649047 0)
(-0.413954 0.399475 0)
(-0.507034 0.316903 0)
(-0.57068 0.30843 0)
(-0.579729 0.328447 0)
(-0.551859 0.335969 0)
(-0.509016 0.3446 0)
(-0.451759 0.36685 0)
(-0.385567 0.399321 0)
(-0.302609 0.409365 0)
(-0.217218 0.419845 0)
(-0.10802 0.392381 0)
(0.00033734 0.341426 0)
(0.112587 0.256922 0)
(0.218225 0.150568 0)
(0.305817 0.0403962 0)
(0.377838 -0.0549838 0)
(0.411949 -0.116977 0)
(0.42551 -0.150767 0)
(0.427168 -0.164266 0)
(0.252768 2.39795 0)
(0.695115 2.80712 0)
(0.584131 1.59394 0)
(0.449892 0.865842 0)
(0.233572 0.574185 0)
(0.0730928 0.462738 0)
(-0.0394193 0.400168 0)
(-0.0958604 0.359671 0)
(-0.107004 0.329917 0)
(-0.0993366 0.31963 0)
(-0.0641588 0.323036 0)
(-0.0133867 0.332633 0)
(0.0566731 0.331765 0)
(0.132845 0.324197 0)
(0.225925 0.288999 0)
(0.318356 0.233435 0)
(0.409045 0.156258 0)
(0.487138 0.0669461 0)
(0.545684 -0.0202494 0)
(0.576835 -0.0887301 0)
(0.586179 -0.132792 0)
(0.584236 -0.153606 0)
(0.576949 -0.155766 0)
(0.0560313 1.6346 0)
(0.653149 2.30486 0)
(0.731019 1.6036 0)
(0.672028 1.07064 0)
(0.506739 0.767388 0)
(0.372296 0.588454 0)
(0.282714 0.478668 0)
(0.230261 0.398022 0)
(0.210297 0.33778 0)
(0.210549 0.303699 0)
(0.2322 0.288256 0)
(0.270108 0.280046 0)
(0.322494 0.267794 0)
(0.383238 0.247158 0)
(0.451391 0.208921 0)
(0.517908 0.154903 0)
(0.577 0.0877956 0)
(0.621492 0.0161598 0)
(0.647352 -0.0485541 0)
(0.654126 -0.0978513 0)
(0.649023 -0.129469 0)
(0.638015 -0.144466 0)
(0.624807 -0.145658 0)
(-0.0359858 1.36586 0)
(0.452184 1.9945 0)
(0.622877 1.59371 0)
(0.637304 1.15948 0)
(0.561209 0.858407 0)
(0.48873 0.662157 0)
(0.436517 0.527196 0)
(0.404781 0.423515 0)
(0.391486 0.345358 0)
(0.391537 0.294104 0)
(0.405371 0.262919 0)
(0.431502 0.241447 0)
(0.467504 0.219929 0)
(0.509629 0.192517 0)
(0.554095 0.154115 0)
(0.595063 0.10542 0)
(0.62748 0.0499343 0)
(0.647758 -0.00581099 0)
(0.654458 -0.0547737 0)
(0.650595 -0.0929294 0)
(0.640146 -0.118437 0)
(0.626858 -0.131334 0)
(0.613516 -0.132996 0)
(-0.0665564 1.24672 0)
(0.244222 1.67575 0)
(0.440872 1.46977 0)
(0.511895 1.14881 0)
(0.507228 0.889957 0)
(0.491151 0.696208 0)
(0.478216 0.549985 0)
(0.471351 0.43444 0)
(0.470418 0.346471 0)
(0.474213 0.285446 0)
(0.484259 0.24472 0)
(0.501115 0.215019 0)
(0.523628 0.1879 0)
(0.549446 0.157781 0)
(0.575418 0.121291 0)
(0.597735 0.0787179 0)
(0.613181 0.0328337 0)
(0.620047 -0.0119975 0)
(0.618523 -0.0517093 0)
(0.610608 -0.0834805 0)
(0.59875 -0.105751 0)
(0.585537 -0.118193 0)
(0.573189 -0.121504 0)
(-0.0611574 1.19712 0)
(0.121324 1.45483 0)
(0.2795 1.33987 0)
(0.379562 1.09894 0)
(0.419693 0.876505 0)
(0.446415 0.691662 0)
(0.465943 0.544579 0)
(0.480694 0.427845 0)
(0.491619 0.339157 0)
(0.499857 0.276003 0)
(0.508176 0.231817 0)
(0.518553 0.198461 0)
(0.53128 0.168827 0)
(0.54533 0.138125 0)
(0.558784 0.103879 0)
(0.569322 0.0661668 0)
(0.57501 0.026941 0)
(0.574896 -0.0108752 0)
(0.569355 -0.044704 0)
(0.559511 -0.0724651 0)
(0.54711 -0.0929241 0)
(0.534086 -0.105667 0)
(0.522463 -0.111023 0)
(-0.0478826 1.18136 0)
(0.0691345 1.31398 0)
(0.178642 1.22063 0)
(0.287935 1.02373 0)
(0.351775 0.827657 0)
(0.404094 0.656058 0)
(0.443241 0.517148 0)
(0.470751 0.408117 0)
(0.488313 0.325927 0)
(0.498555 0.266407 0)
(0.505111 0.223158 0)
(0.51078 0.189267 0)
(0.516802 0.158993 0)
(0.523075 0.128547 0)
(0.528584 0.096148 0)
(0.531918 0.0618952 0)
(0.53184 0.0272141 0)
(0.527637 -0.00588031 0)
(0.519672 -0.0356433 0)
(0.508614 -0.0606257 0)
(0.495774 -0.0799476 0)
(0.482725 -0.0933214 0)
(0.471143 -0.100925 0)
(-0.0357402 1.174 0)
(0.0567828 1.21988 0)
(0.136997 1.11608 0)
(0.24578 0.937847 0)
(0.320126 0.760441 0)
(0.382414 0.604869 0)
(0.428038 0.479947 0)
(0.458536 0.383656 0)
(0.476501 0.311605 0)
(0.485518 0.258495 0)
(0.489539 0.218298 0)
(0.491545 0.185354 0)
(0.493071 0.155279 0)
(0.494401 0.12533 0)
(0.494978 0.0943733 0)
(0.493876 0.0626375 0)
(0.490249 0.0312234 0)
(0.483582 0.00153536 0)
(0.474185 -0.0252187 0)
(0.462525 -0.048162 0)
(0.449583 -0.0667346 0)
(0.436539 -0.0808246 0)
(0.424774 -0.0905922 0)
(-0.0240545 1.16045 0)
(0.0646466 1.14181 0)
(0.137061 1.02046 0)
(0.2408 0.850351 0)
(0.316696 0.68892 0)
(0.377511 0.551335 0)
(0.419981 0.44316 0)
(0.446481 0.361227 0)
(0.460607 0.299961 0)
(0.466414 0.253596 0)
(0.467642 0.216776 0)
(0.46692 0.185105 0)
(0.465584 0.15546 0)
(0.463916 0.126042 0)
(0.461533 0.0962577 0)
(0.457782 0.0664483 0)
(0.452097 0.0374811 0)
(0.444171 0.0103338 0)
(0.434187 -0.0141836 0)
(0.422638 -0.0356114 0)
(0.410164 -0.0536885 0)
(0.397655 -0.068418 0)
(0.386063 -0.0800099 0)
(-0.00996602 1.13206 0)
(0.0833856 1.06392 0)
(0.15933 0.927902 0)
(0.255284 0.766307 0)
(0.325892 0.621881 0)
(0.378322 0.503601 0)
(0.412421 0.412701 0)
(0.431767 0.344434 0)
(0.440641 0.292674 0)
(0.443013 0.251929 0)
(0.442 0.217825 0)
(0.439576 0.187183 0)
(0.436652 0.157943 0)
(0.433351 0.12904 0)
(0.429356 0.100254 0)
(0.42421 0.0719622 0)
(0.417561 0.0448379 0)
(0.409283 0.0195536 0)
(0.399476 -0.00337132 0)
(0.388636 -0.0237311 0)
(0.377166 -0.0414763 0)
(0.36574 -0.0567119 0)
(0.354998 -0.0697314 0)
(0.00767594 1.08403 0)
(0.106961 0.979125 0)
(0.188042 0.837472 0)
(0.273571 0.68974 0)
(0.334175 0.564561 0)
(0.375227 0.465711 0)
(0.399628 0.39075 0)
(0.411871 0.33394 0)
(0.41628 0.289447 0)
(0.416237 0.252673 0)
(0.41402 0.220374 0)
(0.410897 0.19042 0)
(0.407361 0.161542 0)
(0.403392 0.133162 0)
(0.398728 0.105258 0)
(0.393074 0.0781833 0)
(0.386244 0.0524429 0)
(0.378223 0.0284959 0)
(0.369141 0.00664236 0)
(0.359352 -0.0130206 0)
(0.349243 -0.0305777 0)
(0.339262 -0.046254 0)
(0.329815 -0.0603803 0)
(0.028204 1.0141 0)
(0.12918 0.888462 0)
(0.211311 0.752468 0)
(0.284345 0.623867 0)
(0.332889 0.519207 0)
(0.362882 0.43828 0)
(0.379129 0.376535 0)
(0.386297 0.328307 0)
(0.388124 0.288774 0)
(0.387124 0.25452 0)
(0.384766 0.223339 0)
(0.381758 0.193887 0)
(0.378307 0.165407 0)
(0.37433 0.137594 0)
(0.369642 0.110503 0)
(0.364078 0.0844238 0)
(0.357574 0.0597314 0)
(0.350188 0.0367381 0)
(0.342082 0.0156103 0)
(0.333495 -0.00363441 0)
(0.324821 -0.0211729 0)
(0.31629 -0.0372799 0)
(0.30826 -0.0522898 0)
(0.047612 0.923832 0)
(0.143802 0.796964 0)
(0.221552 0.676609 0)
(0.281395 0.5701 0)
(0.318744 0.485152 0)
(0.340378 0.419247 0)
(0.351534 0.367482 0)
(0.356298 0.325194 0)
(0.357498 0.288884 0)
(0.356814 0.256249 0)
(0.355113 0.225881 0)
(0.352765 0.196944 0)
(0.349847 0.168975 0)
(0.346287 0.141801 0)
(0.341984 0.115485 0)
(0.336879 0.0902516 0)
(0.33099 0.0663772 0)
(0.324421 0.0440761 0)
(0.317344 0.0234352 0)
(0.30996 0.00440646 0)
(0.302575 -0.0132022 0)
(0.295385 -0.0296864 0)
(0.288616 -0.04539 0)
(0.0599033 0.820597 0)
(0.14611 0.710789 0)
(0.215699 0.612157 0)
(0.26389 0.527435 0)
(0.293145 0.459471 0)
(0.310105 0.405197 0)
(0.319315 0.360609 0)
(0.323925 0.322433 0)
(0.325906 0.288391 0)
(0.326334 0.257037 0)
(0.325739 0.227488 0)
(0.324344 0.199214 0)
(0.322205 0.171909 0)
(0.319304 0.145458 0)
(0.315618 0.119909 0)
(0.311163 0.0954322 0)
(0.306017 0.0722322 0)
(0.300313 0.0504601 0)
(0.294224 0.0301583 0)
(0.287935 0.0112478 0)
(0.281665 -0.0064543 0)
(0.275568 -0.0232705 0)
(0.26979 -0.0395171 0)
(0.06115 0.716715 0)
(0.135458 0.634481 0)
(0.195837 0.558577 0)
(0.235608 0.492815 0)
(0.260479 0.438391 0)
(0.275921 0.392873 0)
(0.285391 0.353616 0)
(0.291168 0.318624 0)
(0.294616 0.286538 0)
(0.296476 0.256493 0)
(0.297136 0.22794 0)
(0.296789 0.200528 0)
(0.295524 0.174044 0)
(0.293386 0.148401 0)
(0.290416 0.123635 0)
(0.286683 0.0998716 0)
(0.282302 0.0772668 0)
(0.277426 0.0559334 0)
(0.272225 0.0358942 0)
(0.266867 0.017067 0)
(0.261491 -0.000722586 0)
(0.25628 -0.0177871 0)
(0.25128 -0.0344267 0)
(0.0530849 0.624 0)
(0.116109 0.569383 0)
(0.168023 0.513299 0)
(0.202594 0.462793 0)
(0.225757 0.418897 0)
(0.241443 0.380214 0)
(0.252142 0.345335 0)
(0.259502 0.313212 0)
(0.26452 0.283118 0)
(0.267782 0.254566 0)
(0.269637 0.227224 0)
(0.270297 0.200865 0)
(0.269896 0.175339 0)
(0.268529 0.150585 0)
(0.26628 0.126629 0)
(0.263258 0.103568 0)
(0.259599 0.0815248 0)
(0.255469 0.0605897 0)
(0.251034 0.0407854 0)
(0.246446 0.0220436 0)
(0.241825 0.0042056 0)
(0.237268 -0.012995 0)
(0.232837 -0.0298781 0)
(0.0412954 0.548367 0)
(0.0943082 0.514462 0)
(0.138955 0.473782 0)
(0.17024 0.435114 0)
(0.192763 0.399523 0)
(0.209114 0.366514 0)
(0.221058 0.335564 0)
(0.229809 0.306259 0)
(0.236149 0.278286 0)
(0.240585 0.251412 0)
(0.243455 0.225463 0)
(0.244997 0.200302 0)
(0.245375 0.175839 0)
(0.244717 0.152038 0)
(0.243139 0.128925 0)
(0.240768 0.106576 0)
(0.237755 0.0850883 0)
(0.234267 0.064544 0)
(0.23047 0.0449749 0)
(0.226505 0.0263387 0)
(0.22247 0.00850456 0)
(0.218436 -0.00876467 0)
(0.214439 -0.0257595 0)
(0.030573 0.48945 0)
(0.0747439 0.468203 0)
(0.113067 0.438704 0)
(0.141645 0.409047 0)
(0.163455 0.380117 0)
(0.180106 0.351985 0)
(0.192822 0.324668 0)
(0.202499 0.298146 0)
(0.209761 0.272372 0)
(0.215054 0.247291 0)
(0.218705 0.222845 0)
(0.220953 0.198976 0)
(0.221981 0.175644 0)
(0.221933 0.152843 0)
(0.220939 0.130599 0)
(0.219135 0.108977 0)
(0.216674 0.0880563 0)
(0.213723 0.0679143 0)
(0.210442 0.0485977 0)
(0.206968 0.0300964 0)
(0.203391 0.0123199 0)
(0.199749 -0.00492239 0)
(0.196084 -0.0219447 0)
(0.0226827 0.44388 0)
(0.0592003 0.429403 0)
(0.0919113 0.407674 0)
(0.117724 0.384752 0)
(0.138333 0.361154 0)
(0.15468 0.337208 0)
(0.167572 0.313206 0)
(0.177655 0.289349 0)
(0.185418 0.265758 0)
(0.191241 0.242497 0)
(0.195418 0.219593 0)
(0.19818 0.197054 0)
(0.199708 0.174885 0)
(0.200148 0.153104 0)
(0.199635 0.131746 0)
(0.198303 0.110865 0)
(0.1963 0.09053 0)
(0.193783 0.0708125 0)
(0.19091 0.0517736 0)
(0.187815 0.0334373 0)
(0.184591 0.015759 0)
(0.181236 -0.0014079 0)
(0.177804 -0.0183588 0)
(0.017356 0.408082 0)
(0.0474838 0.397014 0)
(0.0752174 0.38056 0)
(0.0981338 0.362588 0)
(0.117091 0.343203 0)
(0.132593 0.32278 0)
(0.145139 0.301718 0)
(0.15517 0.280323 0)
(0.163056 0.25881 0)
(0.169104 0.237317 0)
(0.173566 0.215931 0)
(0.176648 0.194712 0)
(0.17852 0.173702 0)
(0.179322 0.152939 0)
(0.179182 0.132468 0)
(0.178227 0.112338 0)
(0.17659 0.092606 0)
(0.174417 0.0733398 0)
(0.171855 0.0546085 0)
(0.169039 0.0364663 0)
(0.166063 0.0189178 0)
(0.162927 0.0018629 0)
(0.159665 -0.0149374 0)
(0.0137447 0.379345 0)
(0.0386608 0.370033 0)
(0.0620517 0.357151 0)
(0.0820819 0.342787 0)
(0.0991184 0.326681 0)
(0.113403 0.309162 0)
(0.125212 0.290636 0)
(0.134832 0.271445 0)
(0.142528 0.251842 0)
(0.148537 0.232008 0)
(0.153066 0.21207 0)
(0.156289 0.192122 0)
(0.158357 0.172235 0)
(0.159397 0.152466 0)
(0.159526 0.132867 0)
(0.158856 0.113485 0)
(0.157504 0.0943707 0)
(0.155597 0.075583 0)
(0.153268 0.0571923 0)
(0.150648 0.0392749 0)
(0.147839 0.0218845 0)
(0.144856 0.00498321 0)
(0.141689 -0.0116261 0)
(0.0111794 0.355846 0)
(0.0318561 0.347557 0)
(0.0514875 0.337135 0)
(0.0687642 0.325402 0)
(0.0837762 0.311826 0)
(0.096625 0.29666 0)
(0.107435 0.280277 0)
(0.11638 0.263008 0)
(0.123642 0.245113 0)
(0.129396 0.226793 0)
(0.133804 0.208196 0)
(0.137008 0.189441 0)
(0.139136 0.170616 0)
(0.1403 0.151795 0)
(0.1406 0.133036 0)
(0.140133 0.114389 0)
(0.138996 0.095898 0)
(0.137291 0.0776129 0)
(0.135134 0.0595974 0)
(0.132646 0.0419384 0)
(0.129935 0.02473 0)
(0.127029 0.00800577 0)
(0.123907 -0.00836232 0)
(0.00924054 0.336399 0)
(0.0264156 0.328848 0)
(0.0427938 0.320171 0)
(0.0575127 0.310371 0)
(0.0705039 0.298737 0)
(0.0818115 0.285459 0)
(0.0914592 0.270854 0)
(0.0995475 0.255227 0)
(0.106192 0.238826 0)
(0.111517 0.221854 0)
(0.115645 0.204471 0)
(0.11869 0.186807 0)
(0.120757 0.168964 0)
(0.12194 0.151025 0)
(0.122323 0.13306 0)
(0.121986 0.11512 0)
(0.121004 0.0972472 0)
(0.119455 0.0794827 0)
(0.117428 0.061878 0)
(0.11503 0.0445158 0)
(0.112365 0.0275153 0)
(0.109492 0.0109822 0)
(0.106345 -0.00511883 0)
(0.00771206 0.320214 0)
(0.021931 0.31334 0)
(0.0354539 0.305941 0)
(0.0478183 0.297575 0)
(0.0588471 0.28743 0)
(0.0685809 0.275652 0)
(0.0769749 0.262504 0)
(0.0840842 0.248256 0)
(0.0899767 0.233137 0)
(0.0947373 0.217342 0)
(0.0984562 0.201032 0)
(0.101222 0.184342 0)
(0.103119 0.167384 0)
(0.104225 0.15025 0)
(0.104609 0.133016 0)
(0.104333 0.115739 0)
(0.103454 0.0984644 0)
(0.102026 0.0812276 0)
(0.100109 0.0640659 0)
(0.0977791 0.0470457 0)
(0.0951278 0.0302891 0)
(0.0922297 0.0139616 0)
(0.0890222 -0.00187131 0)
(0.00645321 0.30675 0)
(0.0181116 0.30061 0)
(0.0290973 0.294177 0)
(0.0393003 0.286878 0)
(0.0484511 0.277872 0)
(0.0566229 0.267277 0)
(0.0637201 0.255308 0)
(0.069775 0.242201 0)
(0.0748214 0.228161 0)
(0.0789145 0.213372 0)
(0.0821193 0.197992 0)
(0.0845034 0.182154 0)
(0.0861336 0.165976 0)
(0.0870729 0.149555 0)
(0.0873775 0.132976 0)
(0.0870968 0.116303 0)
(0.0862713 0.0995877 0)
(0.0849346 0.0828679 0)
(0.0831172 0.0661704 0)
(0.0808586 0.049541 0)
(0.0782169 0.0330836 0)
(0.0752599 0.0169972 0)
(0.0719445 0.00145958 0)
(0.00538742 0.295617 0)
(0.0147786 0.290335 0)
(0.0234697 0.28465 0)
(0.0316808 0.278146 0)
(0.0390466 0.270006 0)
(0.0456942 0.260336 0)
(0.0514851 0.249308 0)
(0.056446 0.237129 0)
(0.0605855 0.223983 0)
(0.063938 0.210038 0)
(0.0665483 0.195444 0)
(0.0684674 0.180334 0)
(0.0697471 0.164826 0)
(0.0704386 0.149022 0)
(0.0705867 0.133012 0)
(0.0702308 0.11687 0)
(0.0694026 0.100656 0)
(0.06812 0.0844186 0)
(0.0663904 0.068185 0)
(0.0642205 0.0519865 0)
(0.0616184 0.0358996 0)
(0.0586004 0.0201185 0)
(0.0551765 0.00489617 0)
(0.00443756 0.286553 0)
(0.0117739 0.282272 0)
(0.0183769 0.277176 0)
(0.02475 0.271253 0)
(0.0304283 0.263765 0)
(0.0356058 0.254805 0)
(0.0401055 0.244516 0)
(0.0439616 0.233079 0)
(0.0471626 0.220657 0)
(0.04973 0.207404 0)
(0.0516919 0.193463 0)
(0.0530854 0.178959 0)
(0.0539508 0.164014 0)
(0.054328 0.148729 0)
(0.0542512 0.133199 0)
(0.0537525 0.117505 0)
(0.0528598 0.101721 0)
(0.0515818 0.0859056 0)
(0.0499131 0.0701051 0)
(0.0478385 0.0543509 0)
(0.04532 0.0387062 0)
(0.0422646 0.0233579 0)
(0.0386331 0.00864439 0)
(0.00354061 0.279395 0)
(0.00897907 0.276228 0)
(0.0136761 0.2716 0)
(0.018348 0.266089 0)