/*--------------------------------*- C++ -*----------------------------------*\
| =========                 |                                                 |
| \\      /  F ield         | OpenFOAM: The Open Source CFD Toolbox           |
|  \\    /   O peration     | Version:  2312                                  |
|   \\  /    A nd           | Website:  www.openfoam.com                      |
|    \\/     M anipulation  |                                                 |
\*---------------------------------------------------------------------------*/
FoamFile
{
    version     2.0;
    format      ascii;
    arch        "LSB;label=32;scalar=64";
    class       volScalarField;
    location    "1.25";
    object      alpha.galistan;
}
// * * * * * * * * * * * * * * * * * * * * * * * * * * * * * * * * * * * * * //

dimensions      [0 0 0 0 0 0 0];

internalField   nonuniform List<scalar> 
2268
(
1
1
1
1
1
1
1
1
1
1
1
1
1
1
1
1
1
1
1
1
0.999999
0.99995
0.999928
1
1
1
1
1
1
1
1
1
1
1
1
1
1
1
1
1
1
1
1
1
0.99998
0.999943
1
1
1
1
1
1
1
1
1
1
1
1
1
1
1
1
1
1
1
1
1
1
1
1
1
1
1
1
1
1
1
1
1
1
1
1
1
1
1
1
0.999987
0.999978
0.999958
0.999865
0.999641
0.999622
0.996298
1
0.999999
1
1
1
1
1
1
1
1
1
1
0.999995
0.969666
0.876683
0.785189
0.719738
0.685904
0.671975
0.661951
0.642097
0.621934
0.508426
0.864417
0.999997
0.999999
1
1
1
1
1
1
0.999997
0.99998
0.928957
0.645196
0.320532
0.148661
0.0639189
0.0256884
0.0101283
0.00584724
0.00707022
0.0105328
1.21161e-08
0.0120954
0.139563
0.615886
0.929039
0.997822
1
1
1
1
1
0.994197
0.774544
0.290335
0.0299522
-1.94474e-19
-2.89434e-19
-6.00121e-16
-8.59672e-17
-8.175e-15
-4.75873e-30
-6.33069e-30
-6.26697e-14
1.21769e-30
7.21516e-18
1.48272e-17
0.024288
0.294525
0.620649
0.811716
0.904447
0.958553
0.967707
0.866963
0.49696
0.0883057
1.62439e-10
1.62442e-10
2.89636e-10
2.19699e-10
8.3492e-11
2.71218e-11
4.52689e-11
6.93716e-11
9.80648e-11
8.74374e-11
2.44873e-11
0.373922
0.373922
0.327817
0.167421
0.443846
0.818696
0.849435
0.884903
0.901554
0.911797
0.911794
0.910181
0.910182
0.910135
0.911484
0.911696
0.933331
0.945831
0.911204
0.340841
0.313059
0.18052
0.167357
0.167746
0.167446
0.169418
0.417627
0.728175
0.781461
0.741577
0.687634
0.675388
0.772065
0.860442
0.920853
0.944293
0.945789
0.905517
0.170318
0.156398
0.162044
0.180949
0.177151
0.18023
0.192298
0.211519
0.384673
0.343818
0.341498
0.356503
0.370143
0.372392
0.491619
0.666411
0.808455
0.913987
0.913828
0.0413724
0.112255
0.230193
0.234484
0.291233
0.349484
0.354332
0.342739
0.187058
0.161525
0.145871
0.096538
0.0457891
0.0544573
0.164173
0.295259
0.474442
0.711449
0.89367
0.0120922
0.0662642
0.132516
0.343036
0.345407
0.332892
0.29762
0.151279
0.0517566
0.0163039
0.0137162
0.0137086
0.013703
0.0161735
0.0162465
0.0289154
0.0834744
0.214625
0.665249
0.0120882
0.0276852
0.121366
0.320105
0.261193
0.0553288
0.00677517
0.00564006
0.00838761
0.0135852
0.0137085
0.0137151
0.0236896
0.0353289
0.032102
0.0214638
0.0198491
0.0250987
0.116585
0.0122995
0.0327067
0.172619
0.264423
0.11734
0.0625281
0.00564397
0.00564459
0.00958301
0.0144947
0.0136971
0.0203121
0.0305005
0.0353225
0.0275708
0.0251875
0.0198559
0.0121901
0.0499896
0.0122165
0.049845
0.197627
0.190448
0.111385
0.0548536
0.00573622
0.00606938
0.00743381
0.00654876
0.00858667
0.0262662
0.0305379
0.00743103
0.00131352
0.00263045
0.00243927
0.00925012
0.0181912
6.9826e-17
9.02362e-09
7.86494e-09
0.000791346
0.0487325
0.145373
0.230311
0.262176
0.229348
0.108892
0.00944603
1.6244e-10
1.6244e-10
2.01427e-10
2.15062e-10
1.21068e-10
6.5477e-11
6.29029e-11
8.32907e-11
8.85578e-11
2.24254e-11
1.96731e-12
1.93321e-12
4.32514e-13
1.84908e-07
1.0192e-06
-2.99108e-09
-6.64163e-11
-2.62028e-12
-2.00315e-25
1.89953e-16
2.21382e-24
8.23714e-21
3.17319e-10
5.02786e-10
6.12394e-10
5.90943e-10
4.9507e-10
3.2832e-10
2.40865e-10
1.59763e-10
9.20531e-11
4.70867e-11
1.33333e-11
0.00371027
0.00223091
4.719e-09
8.62671e-10
9.06431e-06
1.07071e-05
2.85438e-06
-1.77547e-11
4.71052e-08
1.4843e-07
-3.96338e-24
2.299e-24
8.95904e-13
3.7568e-10
4.04597e-10
3.4767e-10
2.18949e-10
1.35022e-10
7.58837e-11
4.22339e-11
4.06838e-11
3.83722e-11
0.00629828
0.011156
0.00843208
2.43397e-08
7.54408e-10
1.79707e-09
3.6568e-09
1.6537e-08
2.97506e-08
3.01176e-08
1.53569e-06
2.94193e-06
1.0586e-06
7.21221e-08
3.87345e-10
3.96594e-09
5.61684e-09
5.58055e-10
2.93778e-09
6.12482e-12
6.0164e-12
6.12477e-12
0.00735783
0.0116394
0.0122073
0.00530014
2.43139e-08
1.83688e-07
3.10062e-09
3.67241e-09
1.20475e-07
2.5439e-07
1.44424e-07
1.34152e-07
1.7843e-05
2.88769e-05
1.60488e-05
3.98448e-06
6.09005e-07
3.79996e-07
2.95686e-07
6.88342e-09
1.05775e-05
-1.74594e-07
0.00734028
0.0102439
0.00959684
0.00534162
0.00123028
2.1649e-08
1.28397e-06
4.81532e-06
2.53047e-06
2.58071e-06
5.15823e-06
4.17909e-06
8.04558e-06
3.951e-05
3.98972e-05
3.06815e-05
1.9985e-05
1.93499e-06
3.09981e-09
-1.59856e-10
-2.33154e-11
0.000892266
0.00760201
0.00916324
0.00795254
0.00379501
0.000447892
0.000281808
2.29156e-08
7.79613e-06
3.11293e-05
2.69405e-05
2.10815e-05
4.05816e-05
4.36503e-05
4.36618e-05
4.37647e-05
2.40893e-05
3.42953e-07
3.51295e-07
3.70545e-07
3.6395e-05
0.000329968
0.00101471
0.00389046
0.00795701
0.0054611
0.000440785
1.6351e-21
-4.96859e-22
1.7763e-05
1.59469e-07
2.00365e-05
3.20888e-05
2.67908e-05
1.51307e-05
1.2116e-05
1.19523e-05
1.12793e-05
1.10662e-05
1.10015e-05
0.000138242
0.00191444
0.00172486
0.00169108
0.0028023
0.00280489
0.00184793
0.00108288
6.89767e-05
-1.71148e-08
-6.97734e-25
5.60714e-07
1.95636e-06
2.95553e-07
2.17804e-05
3.1514e-05
1.21398e-07
1.19392e-07
1.2141e-07
7.08484e-07
3.88212e-07
2.18598e-05
0.00147555
0.00325783
0.00326252
0.0032625
0.00236473
0.00112728
0.000770794
6.3983e-06
6.31481e-06
6.4563e-06
1.0325e-05
1.73084e-05
6.43758e-07
6.56181e-05
1.0643e-07
7.95156e-06
1.93575e-05
1.21056e-07
8.60486e-07
1.56235e-06
1.23813e-06
3.8713e-07
0.000788245
0.00326078
0.0032598
0.00258052
0.000395442
0.00031014
4.93077e-05
4.95479e-05
1.61544e-05
2.82002e-05
0.000112408
0.000151969
9.33954e-05
5.08489e-05
0.00021763
1.77656e-08
1.27931e-06
1.2831e-05
1.23677e-07
9.17664e-07
1.63616e-06
1.51095e-06
3.86882e-07
0.000434596
0.00131812
0.00135509
0.000405416
0.000226192
0.000218387
0.000258973
0.000202397
2.41052e-06
4.14866e-06
9.84632e-05
0.000152727
0.000152721
8.96503e-05
8.90021e-05
1.75787e-08
2.39646e-07
8.36669e-06
3.74152e-07
2.42119e-07
2.41628e-07
6.34057e-06
5.24185e-05
0.000121965
0.000116025
0.000259861
0.000405616
0.000349574
0.000195895
0.000101274
6.40735e-05
2.45783e-05
4.52613e-07
1.69589e-05
4.74172e-05
3.83002e-05
8.38289e-06
1.37403e-07
1.74165e-08
3.16118e-08
2.28511e-07
9.70631e-06
3.10607e-06
1.00311e-06
1.06262e-06
6.71751e-06
6.11598e-07
1.08708e-10
2.69797e-11
0.00015798
0.000181916
3.90574e-05
1.70802e-06
6.18703e-08
3.71156e-07
6.32163e-08
2.11222e-07
1.44218e-07
1.32575e-07
7.77042e-08
7.75882e-09
1.31741e-08
2.37079e-08
2.23763e-07
9.73366e-06
1.28802e-05
1.20223e-05
6.54995e-06
2.80017e-07
2.64131e-07
1.50528e-08
1.07685e-10
3.88719e-10
2.41367e-06
1.37606e-06
2.75692e-07
2.15634e-08
4.54198e-08
1.61733e-08
9.47147e-09
5.78846e-09
4.23429e-09
2.13884e-09
2.57265e-09
1.7132e-09
4.41782e-09
4.91096e-10
3.77743e-07
5.69697e-06
1.0357e-05
9.15025e-06
5.98853e-06
3.46828e-06
2.13148e-06
2.42451e-07
4.03568e-10
7.89795e-07
2.78029e-07
8.68386e-08
9.48477e-09
6.129e-09
2.83859e-09
7.74003e-10
2.33749e-10
1.5307e-10
9.30565e-11
1.71523e-10
4.91038e-10
4.86324e-10
4.87561e-10
4.85776e-10
4.87561e-10
9.98874e-07
5.11971e-06
7.301e-06
7.4723e-06
7.4848e-06
3.74716e-06
1.87957e-08
1.32861e-07
1.34125e-07
3.85646e-08
4.0641e-09
1.44928e-09
5.66325e-10
1.91939e-10
6.86599e-11
3.91142e-11
1.89725e-11
1.4391e-11
7.46225e-10
4.92229e-10
4.80039e-08
3.05684e-09
2.30209e-09
5.06583e-10
5.02227e-10
2.19953e-07
3.14344e-06
7.4723e-06
3.92677e-06
1.35467e-07
8.30635e-08
7.5494e-08
1.95294e-08
1.73921e-09
5.92286e-10
2.34424e-10
9.93401e-11
3.34763e-11
1.61226e-11
6.44024e-12
3.54042e-12
9.45525e-10
5.56144e-09
1.33354e-07
3.01235e-07
2.28108e-07
4.9158e-08
5.14021e-09
1.73859e-09
1.36827e-09
9.43035e-07
2.93944e-06
1.6534e-07
1.05985e-07
4.4548e-08
5.8069e-09
1.0202e-09
3.77794e-10
1.47346e-10
5.68304e-11
1.80871e-11
6.80657e-12
1.81322e-12
8.68879e-13
6.82333e-09
2.61788e-07
5.12027e-07
5.10406e-07
4.26609e-07
1.10094e-07
3.44148e-08
1.27246e-07
8.05817e-08
1.52137e-06
1.20733e-06
8.50272e-08
8.81386e-08
1.40074e-08
1.36823e-09
7.01075e-10
2.70657e-10
9.5091e-11
3.1947e-11
8.15539e-12
2.34482e-12
6.6394e-13
2.30147e-13
1.11197e-07
4.69883e-07
5.10406e-07
4.46711e-07
1.137e-07
1.04044e-07
1.60297e-07
2.46131e-07
1.66807e-07
2.82865e-07
6.04198e-08
8.41458e-08
4.59721e-08
3.98576e-09
1.03046e-09
5.47421e-10
1.80543e-10
5.15965e-11
1.50487e-11
3.78625e-12
9.39593e-13
1.51576e-13
3.92713e-14
1.66678e-07
1.1473e-07
3.03005e-07
5.01448e-08
2.9041e-08
1.4358e-07
1.8392e-07
1.0809e-07
2.53887e-08
2.64589e-08
4.62533e-08
6.89312e-08
2.43191e-08
1.10188e-09
9.05832e-10
3.4843e-10
9.00784e-11
2.10307e-11
5.97816e-12
1.1973e-12
2.22586e-13
4.28235e-14
8.65379e-15
4.62646e-08
5.88136e-09
6.33421e-09
4.06224e-08
3.30403e-08
1.49903e-07
1.41473e-07
7.8378e-09
3.9879e-08
7.55446e-08
7.53216e-08
3.31774e-08
3.10242e-09
8.94642e-10
6.49148e-10
1.46388e-10
3.05522e-11
7.25806e-12
1.449e-12
2.63911e-13
4.12928e-14
4.52128e-15
1.0958e-15
2.59404e-09
5.48556e-09
6.46336e-09
2.31349e-08
4.68128e-08
1.02989e-07
5.52798e-08
7.59893e-09
2.57181e-08
6.16033e-08
4.91069e-08
1.56812e-09
8.67136e-10
8.01132e-10
2.16582e-10
3.89227e-11
8.36018e-12
1.47481e-12
2.67358e-13
3.6623e-14
5.29621e-15
9.36331e-16
1.97563e-16
2.58961e-09
1.41918e-08
2.68489e-08
2.5932e-08
2.06441e-08
2.61593e-08
9.69817e-09
7.85106e-09
1.48629e-08
2.03946e-08
7.5147e-09
8.14865e-10
6.38953e-10
3.6729e-10
5.35463e-11
9.16051e-12
1.441e-12
2.71738e-13
4.66011e-14
7.03372e-15
1.25525e-15
1.64134e-16
3.99088e-17
2.81919e-09
2.97612e-08
4.52155e-08
3.0782e-08
1.26771e-08
1.04342e-08
5.12088e-09
6.97414e-09
9.15273e-09
6.35875e-09
1.29394e-09
9.99104e-10
3.76004e-10
9.03823e-11
1.22207e-11
1.4214e-12
3.63818e-13
8.70818e-14
1.79997e-14
2.99571e-15
4.62054e-16
6.86521e-17
9.44751e-18
3.11034e-09
3.02644e-08
4.48474e-08
2.3281e-08
7.10501e-09
9.70893e-09
4.79698e-09
4.33809e-09
5.37159e-09
2.8403e-09
1.25172e-09
7.90085e-10
1.46899e-10
1.94063e-11
1.46491e-12
4.57268e-13
1.52632e-13
4.17776e-14
9.51892e-15
1.68833e-15
2.7222e-16
3.40038e-17
4.25663e-18
2.55102e-09
1.03423e-08
2.80951e-08
7.65209e-09
5.46807e-09
8.32726e-09
4.59657e-09
2.8609e-09
2.61325e-09
1.38564e-09
8.14027e-10
2.6886e-10
3.93818e-11
3.21868e-12
1.03939e-12
3.8522e-13
1.17048e-13
2.97963e-14
6.39099e-15
1.04187e-15
1.46769e-16
1.7028e-17
1.06425e-18
2.31721e-09
2.51006e-09
2.99624e-09
3.67595e-09
3.38148e-09
4.22059e-09
3.82733e-09
1.78179e-09
1.02749e-09
9.06521e-10
3.15843e-10
7.39315e-11
7.01091e-12
2.20751e-12
8.4413e-13
2.72484e-13
7.47441e-14
1.6968e-14
3.16808e-15
4.85371e-16
6.25047e-17
6.44187e-18
6.0243e-19
1.87133e-09
1.63414e-09
2.11437e-09
1.83759e-09
1.52149e-09
1.57883e-09
1.4163e-09
9.62933e-10
6.91677e-10
3.78717e-10
9.9741e-11
1.36324e-11
3.90067e-12
1.48445e-12
4.96494e-13
1.44082e-13
3.47359e-14
6.873e-15
1.13864e-15
1.48321e-16
1.7966e-17
1.82995e-18
8.95165e-20
1.85967e-09
1.61141e-09
1.54847e-09
1.2553e-09
1.03397e-09
8.11027e-10
5.28754e-10
4.54564e-10
3.26226e-10
1.20871e-10
2.21585e-11
6.1488e-12
2.30279e-12
7.55873e-13
2.30279e-13
5.75802e-14
1.20434e-14
2.11053e-15
3.07337e-16
3.6346e-17
3.94659e-18
2.91322e-19
2.33035e-20
1.80334e-09
1.41862e-09
1.03725e-09
9.76963e-10
7.79258e-10
6.23892e-10
3.23646e-10
2.21408e-10
1.10053e-10
3.25076e-11
8.7786e-12
3.33146e-12
1.10677e-12
2.89186e-13
7.74758e-14
1.71173e-14
3.08888e-15
4.80351e-16
6.31595e-17
7.05331e-18
6.42753e-19
5.35003e-20
2.94372e-21
1.74126e-09
1.7517e-09
7.11226e-10
6.50938e-10
5.04558e-10
3.99459e-10
1.82877e-10
9.79251e-11
3.69731e-11
1.12787e-11
4.07052e-12
1.37172e-12
4.18166e-13
9.88132e-14
2.11764e-14
4.15457e-15
6.84936e-16
9.17429e-17
1.08293e-17
1.0812e-18
8.76355e-20
5.13993e-21
3.85987e-22
1.41568e-09
2.30736e-09
7.48491e-10
3.94514e-10
3.04062e-10
2.08095e-10
1.13794e-10
4.17459e-11
1.2814e-11
4.57908e-12
1.57369e-12
4.69181e-13
1.21432e-13
2.61954e-14
4.62895e-15
7.22287e-16
1.05114e-16
1.26564e-17
1.30084e-18
1.15307e-19
8.29558e-21
5.77262e-22
3.47303e-23
9.44019e-10
2.5339e-09
1.40051e-09
4.01796e-10
2.45228e-10
1.34267e-10
4.5666e-11
1.17292e-11
4.26646e-12
1.45513e-12
4.36903e-13
1.17266e-13
2.56169e-14
5.02182e-15
7.36597e-16
1.01148e-16
1.29637e-17
1.37424e-18
1.31028e-19
1.05776e-20
7.39307e-22
4.19362e-23
2.68922e-24
3.53748e-10
2.33257e-09
1.99581e-09
4.27879e-10
2.20062e-10
6.06657e-11
1.26472e-11
3.13437e-12
1.0149e-12
3.25375e-13
8.93645e-14
2.12152e-14
4.18117e-15
6.78537e-16
9.94773e-17
1.27067e-17
1.49304e-18
1.52676e-19
1.36187e-20
9.1142e-22
6.19866e-23
3.87358e-24
2.0134e-25
4.62433e-11
1.13695e-09
1.8894e-09
3.39122e-10
1.24257e-10
1.47035e-11
2.5763e-12
6.25814e-13
1.92524e-13
5.40941e-14
1.40518e-14
3.02466e-15
5.42913e-16
8.83648e-17
1.29291e-17
1.66088e-18
1.93831e-19
1.80666e-20
1.52251e-21
1.07226e-22
6.07115e-24
2.99532e-25
1.5477e-26
1.47858e-12
1.97217e-10
9.32898e-10
1.59908e-10
2.34715e-11
3.90495e-12
8.32246e-13
2.03724e-13
4.30431e-14
1.01309e-14
2.08176e-15
4.18154e-16
7.63757e-17
1.29373e-17
1.86991e-18
2.18026e-19
2.39604e-20
2.1195e-21
1.6753e-22
9.33969e-24
5.05868e-25
2.42277e-26
1.07501e-27
2.11309e-13
2.53489e-11
2.13503e-10
4.02866e-11
5.83529e-12
1.1426e-12
2.43714e-13
4.85159e-14
8.66699e-15
1.62832e-15
3.21314e-16
6.07393e-17
1.07675e-17
1.68217e-18
2.38261e-19
2.7207e-20
2.74477e-21
2.28714e-22
1.66137e-23
9.6864e-25
4.58329e-26
1.867e-27
7.5251e-29
4.19104e-14
4.49098e-12
4.32471e-11
7.58405e-12
1.38755e-12
2.78499e-13
6.0199e-14
1.1211e-14
1.87277e-15
3.14462e-16
5.34767e-17
8.70943e-18
1.4167e-18
2.21624e-19
3.01149e-20
3.46539e-21
3.28419e-22
2.61599e-23
1.7952e-24
9.76906e-26
4.2701e-27
1.56219e-28
5.58345e-30
1.26254e-14
7.50325e-13
5.50662e-12
1.22034e-12
2.26594e-13
4.78906e-14
9.7418e-15
1.83809e-15
2.95649e-16
4.55999e-17
7.38479e-18
1.26817e-18
2.03121e-19
2.91185e-20
3.71874e-21
3.87218e-22
3.35914e-23
2.45077e-24
1.6144e-25
8.80171e-27
3.89778e-28
1.35755e-29
4.5837e-31
2.683e-15
1.34282e-13
5.30223e-13
1.50325e-13
3.62999e-14
7.9594e-15
1.55976e-15
2.72105e-16
4.38078e-17
7.06254e-18
1.17427e-18
1.98574e-19
3.02822e-20
4.1355e-21
4.77647e-22
4.91421e-23
4.25827e-24
3.06388e-25
1.84216e-26
9.28571e-28
3.78426e-29
1.21603e-30
3.62632e-32
4.97942e-16
2.65778e-14
6.82232e-14
2.20565e-14
5.18641e-15
1.01424e-15
1.87731e-16
3.15441e-17
5.05815e-18
8.35169e-19
1.44585e-19
2.44979e-20
3.76084e-21
4.9027e-22
5.24612e-23
4.76972e-24
3.69039e-25
2.61917e-26
1.82062e-27
9.12943e-29
3.51008e-30
1.04189e-31
3.77485e-33
1.84371e-12
1.63155e-12
0.000934458
0.0302837
0.000485189
0.00107484
0.00558591
0.037068
0.00586874
0.00570075
0.00917104
0.0242681
0.00519708
0.0124607
0.024864
0.0264519
0.00969916
0.0314595
0.0341428
0.0342502
0.0165431
0.0342118
0.0342516
0.034214
0.00887118
0.0227985
0.0263658
0.0168025
0.000492248
0.00229139
0.00409563
0.00378026
0.00145421
0.00194697
0.00199853
0.00146563
0.00128743
0.00123034
0.000423667
3.314e-05
2.24792e-05
2.65027e-07
2.63537e-07
1.25606e-09
2.65456e-07
1.33918e-08
5.13162e-09
1.26008e-09
3.61895e-09
1.09162e-09
7.91762e-10
4.44094e-10
1.13873e-10
1.62638e-10
1.47312e-10
6.2003e-11
2.8929e-11
2.4517e-11
1.93811e-11
1.45728e-11
1.0059e-11
7.4157e-12
5.21998e-12
3.5436e-12
2.46852e-12
1.48471e-12
8.75255e-13
4.27598e-13
2.84242e-13
8.78795e-14
4.29451e-14
1.4635e-14
3.03016e-14
2.62242e-15
6.10097e-16
7.01967e-16
8.29678e-16
9.71091e-17
1.69776e-16
2.34093e-16
1.30198e-16
3.37692e-17
4.82801e-17
8.2868e-17
4.55097e-17
1.07048e-17
1.58303e-17
2.16765e-17
3.47273e-17
3.34616e-18
2.96179e-18
4.18504e-18
4.4307e-18
4.98045e-19
5.34445e-19
5.76241e-19
2.12271e-18
3.24682e-19
9.35421e-20
1.21007e-19
6.64514e-19
1.1072e-19
3.61978e-20
2.97435e-20
2.23533e-19
5.47815e-20
1.20181e-20
9.81531e-21
7.32992e-20
9.08105e-21
2.77228e-21
2.05083e-21
1.19555e-20
1.84287e-21
5.03722e-22
5.09976e-22
2.94606e-21
3.61695e-22
1.10668e-22
1.01304e-22
3.47794e-22
4.73788e-23
1.91414e-23
2.38574e-23
4.552e-23
5.72531e-24
3.5181e-24
4.26797e-24
3.86217e-24
6.86397e-25
4.67054e-25
7.63088e-25
2.92174e-25
6.75519e-26
6.93168e-26
1.162e-25
2.23665e-26
7.1264e-27
8.43892e-27
1.85937e-26
1.83316e-27
7.96736e-28
1.21283e-27
2.26378e-27
1.49083e-28
9.42263e-29
1.51757e-28
2.30152e-28
1.22133e-29
1.06676e-29
1.62333e-29
3.90707e-29
1.13782e-30
1.20841e-30
2.64641e-30
2.16457e-29
1.22508e-31
2.06163e-31
1.55656e-30
2.39404e-29
1.92548e-32
1.00727e-31
1.82845e-30
3.29787e-29
6.88638e-33
1.06717e-31
2.35307e-30
3.76333e-29
0.0147385
0.148529
0.195058
0.0892353
0.0253185
0.0143059
0.0137968
0.00608908
0.0060958
0.00610471
0.00714815
0.0199772
0.0243285
0.00539986
0.00130375
0.00239243
0.00415331
0.0116228
0.00976735
0.047946
0.126215
0.150311
0.0638821
0.0116489
0.0117006
0.0146507
0.0162054
0.0112083
0.00676722
0.00679967
0.0152779
0.0101043
0.00242323
0.00735692
0.0148553
0.017989
0.0151467
0.00597292
0.0572994
0.0576957
0.0533413
0.0150407
0.0153873
0.0132784
0.0160613
0.01621
0.0162088
0.0162204
0.0162307
0.0162349
0.0130801
0.00243449
0.0159452
0.0183758
0.0183158
0.0126615
0.00526416
0.0300969
0.0158426
0.00852665
0.00857089
0.012598
0.0132526
0.0111903
0.00918675
0.0108722
0.0131235
0.0161823
0.0162326
0.0106514
0.00578412
0.0118141
0.00702732
0.000853696
9.18845e-05
7.81711e-05
0.0156666
0.0113163
0.016226
0.0153578
0.0126748
0.00575745
0.000307114
5.58684e-05
0.000347637
0.00146062
0.00567386
0.0107465
0.00436613
0.00315526
0.000317555
2.56554e-05
1.82901e-10
1.79267e-10
1.82901e-10
0.0309303
0.0232934
0.0231682
0.0120687
-9.35123e-14
-3.46882e-08
-7.88498e-11
8.81143e-06
3.67143e-05
2.85409e-07
7.037e-07
0.000671431
0.000695395
0.000440155
1.90828e-10
5.13415e-10
8.70342e-09
9.16016e-09
3.54602e-09
0.0143782
0.0126012
0.0110204
0.00410811
0.000897478
2.19094e-05
1.56551e-08
2.64156e-16
1.80382e-08
1.99492e-06
6.73641e-06
5.62431e-06
3.33721e-06
1.4362e-10
2.05904e-09
7.12461e-09
1.30029e-08
1.27667e-08
7.69786e-09
0.00463978
0.00330409
9.68069e-05
0.000114541
1.37762e-08
1.42928e-06
2.8572e-13
2.43365e-16
2.54934e-16
5.73925e-06
2.86297e-05
2.84572e-05
2.52056e-05
1.46582e-10
1.51226e-09
5.61076e-09
5.82166e-09
5.79739e-09
8.88554e-09
0.00052789
7.79636e-09
5.81502e-09
1.55037e-08
1.33927e-08
2.2578e-09
2.05033e-09
6.38848e-17
3.46838e-20
4.96121e-06
2.06677e-05
2.20308e-05
6.08374e-06
1.43595e-10
9.16335e-10
2.41583e-09
3.08933e-10
1.58853e-09
1.18809e-08
5.13932e-07
2.1806e-09
5.91002e-09
1.56078e-08
1.44276e-08
5.6618e-09
2.45183e-09
2.95721e-10
1.35645e-07
2.80692e-06
3.28798e-06
2.5579e-06
4.29681e-08
6.99659e-10
5.54065e-10
8.42304e-10
3.05672e-10
2.72925e-09
1.22088e-08
1.46284e-09
2.21119e-09
7.62916e-09
1.29992e-08
1.45282e-08
1.1773e-08
4.18804e-09
5.69959e-10
2.85967e-08
1.03254e-07
2.36381e-08
1.97158e-10
1.96349e-10
1.95348e-10
1.33891e-10
1.97272e-10
3.35154e-11
2.7229e-09
1.21936e-08
2.7046e-09
4.09402e-09
5.67343e-09
6.05803e-09
5.7644e-09
8.28082e-09
9.51272e-09
8.67741e-09
7.74741e-09
1.6432e-09
1.58805e-09
7.05628e-10
2.10732e-10
7.1121e-11
4.76846e-11
2.33875e-11
8.9615e-12
2.21148e-09
1.12458e-08
1.24887e-09
2.08244e-09
2.41212e-09
1.88013e-09
1.85427e-09
1.856e-09
4.25931e-09
5.89648e-09
7.37665e-09
6.35416e-09
4.65693e-09
1.9601e-09
4.91789e-10
1.19149e-10
5.64228e-11
2.87773e-11
8.95771e-12
2.23525e-09
9.74701e-09
1.47453e-10
2.61687e-10
3.49051e-10
2.78844e-10
2.87739e-10
9.08647e-11
1.81727e-10
5.59573e-10
1.36393e-09
1.55691e-09
9.76978e-10
4.71867e-10
3.24387e-10
1.50604e-10
6.57985e-11
2.1473e-11
8.95467e-12
2.89124e-09
9.26261e-09
1.24808e-11
1.97782e-11
5.38056e-12
1.89616e-11
3.07919e-11
2.26724e-11
2.47037e-11
2.20353e-11
2.38564e-11
2.60409e-11
1.68026e-11
1.5552e-11
1.92423e-11
2.34768e-11
1.98183e-11
1.16633e-11
8.95016e-12
3.64649e-09
8.90828e-09
1.89133e-12
6.67447e-13
4.83087e-13
9.1622e-13
3.22856e-12
1.20895e-11
1.80688e-11
2.02278e-11
1.99358e-11
1.74468e-11
1.17108e-11
7.79813e-12
7.11513e-12
7.90533e-12
7.97318e-12
3.9487e-12
4.83775e-11
4.31548e-09
8.49027e-09
1.60594e-13
8.72595e-14
1.51208e-13
5.48764e-13
1.66131e-12
4.01509e-12
9.82253e-12
1.27664e-11
1.26651e-11
1.07795e-11
7.30805e-12
4.60789e-12
4.1711e-12
4.4112e-12
4.40529e-12
2.46602e-12
8.18072e-11
5.04492e-09
7.20917e-09
5.99661e-15
1.67326e-14
7.49591e-14
2.11456e-13
4.95117e-13
1.26492e-12
2.89794e-12
3.928e-12
3.69524e-12
3.16466e-12
2.55219e-12
2.36249e-12
2.55466e-12
2.96027e-12
2.86068e-12
2.23332e-12
4.45484e-11
6.21584e-09
6.43941e-09
7.0225e-16
5.56831e-15
2.46267e-14
6.43439e-14
1.56446e-13
3.59625e-13
6.95711e-13
8.181e-13
8.58285e-13
9.45005e-13
1.19672e-12
1.45284e-12
1.70322e-12
1.73704e-12
1.83303e-12
1.31674e-12
1.92861e-10
6.78853e-09
5.67946e-09
3.76677e-16
1.53725e-15
8.04606e-15
3.11491e-14
6.43001e-14
1.07102e-13
1.63395e-13
2.30528e-13
3.36056e-13
5.27316e-13
7.82919e-13
8.83226e-13
9.16251e-13
7.53432e-13
1.31258e-12
1.31465e-12
4.57538e-10
6.91515e-09
4.19844e-09
1.49223e-16
6.16389e-16
3.70567e-15
1.41737e-14
2.49561e-14
4.07921e-14
6.51681e-14
1.1904e-13
2.0635e-13
3.41693e-13
4.01463e-13
4.21654e-13
3.24962e-13
1.6838e-13
1.34647e-12
1.31674e-12
6.84182e-10
6.93376e-09
3.33971e-09
5.03391e-17
2.59384e-16
1.57943e-15
5.58388e-15
1.12913e-14
1.88711e-14
3.73893e-14
7.10113e-14
1.22507e-13
1.51308e-13
1.60891e-13
1.16402e-13
9.56302e-14
1.02725e-13
1.33387e-12
1.31884e-12
7.71497e-10
5.74095e-09
2.55764e-09
1.01094e-17
1.13097e-16
6.43471e-16
2.17636e-15
5.00367e-15
1.02766e-14
2.09278e-14
3.60715e-14
4.62136e-14
5.0316e-14
3.02265e-14
1.74663e-14
8.05264e-14
1.31964e-13
9.19434e-13
7.70756e-12
1.21364e-09
3.67068e-09
1.89376e-09
2.95084e-18
4.28211e-17
2.51437e-16
9.49587e-16
2.35565e-15
5.09277e-15
8.91393e-15
1.16224e-14
1.29223e-14
7.14804e-15
2.23288e-15
1.07401e-14
1.28835e-13
2.19997e-13
1.23311e-12
6.51942e-11
1.93928e-09
3.34017e-09
1.65386e-09
7.36147e-19
1.22054e-17
8.80564e-17
3.86182e-16
1.07294e-15
1.85604e-15
2.4287e-15
2.63282e-15
1.65088e-15
5.35913e-16
4.7662e-16
1.28775e-14
1.86022e-13
3.45234e-13
3.76603e-12
1.67194e-10
2.19182e-09
3.22921e-09
1.3546e-09
1.98522e-19
3.49044e-18
2.9265e-17
1.40932e-16
3.50289e-16
4.588e-16
5.05165e-16
4.88164e-16
1.38452e-16
3.48861e-17
4.19325e-16
1.59855e-14
2.35022e-13
6.41513e-13
1.11483e-11
2.09159e-10
2.08168e-09
2.41551e-09
6.34784e-10
4.62476e-20
9.94929e-19
1.00172e-17
4.0602e-17
5.99077e-17
7.39208e-17
7.47252e-17
2.44969e-17
6.55924e-18
2.03202e-17
4.53856e-16
1.75859e-14
2.58544e-13
8.4982e-13
2.60672e-11
2.96749e-10
1.33261e-09
1.08978e-09
2.92984e-10
1.50569e-20
3.3474e-19
2.70019e-18
6.44208e-18
8.63698e-18
8.96427e-18
8.44103e-18
1.92308e-18
1.55132e-18
2.06228e-17
4.30231e-16
1.35455e-14
2.09188e-13
1.16704e-12
4.60486e-11
4.11868e-10
8.22054e-10
6.85508e-10
1.97443e-10
4.01217e-21
8.39029e-20
4.49094e-19
7.26813e-19
9.70594e-19
9.85389e-19
8.00323e-19
1.85071e-19
1.42681e-18
2.19583e-17
3.72487e-16
8.23349e-15
1.39802e-13
2.08605e-12
5.28438e-11
3.53805e-10
6.49146e-10
5.11952e-10
1.50878e-10
1.15521e-21
1.81496e-20
5.47056e-20
7.69437e-20
8.34588e-20
7.95916e-20
5.08604e-20
9.7429e-20
1.55637e-18
2.40273e-17
3.99984e-16
7.50351e-15
1.34258e-13
3.72993e-12
3.93453e-11
1.78524e-10
3.87e-10
3.38178e-10
1.03723e-10
2.28727e-22
2.26699e-21
4.36765e-21
5.95017e-21
6.05025e-21
4.62204e-21
5.80395e-21
8.40351e-20
1.49897e-18
2.46552e-17
4.35789e-16
7.18838e-15
7.98806e-14
3.07682e-12
1.98499e-11
6.8073e-11
1.49718e-10
1.45534e-10
4.95011e-11
4.87739e-23
2.24233e-22
3.35722e-22
3.84577e-22
3.45955e-22
3.91342e-22
3.31328e-21
6.4186e-20
1.04555e-18
1.58816e-17
2.42459e-16
3.23829e-15
2.86318e-14
9.34793e-13
7.10761e-12
1.86882e-11
3.45229e-11
4.45877e-11
1.77698e-11
5.56713e-24
1.47816e-23
2.19474e-23
2.2937e-23
3.42307e-23
2.08695e-22
2.37992e-21
3.43825e-20
4.83554e-19
6.46571e-18
1.08549e-16
1.52503e-15
1.36945e-14
3.31126e-13
1.81359e-12
4.59209e-12
7.52122e-12
9.30108e-12
5.03548e-12
5.73268e-25
1.03271e-24
1.37113e-24
3.17047e-24
2.19453e-23
1.73911e-22
1.36432e-21
1.29026e-20
1.37553e-19
1.84323e-18
2.87489e-17
4.04693e-16
3.75351e-15
8.14271e-14
4.08928e-13
8.1379e-13
1.32499e-12
2.01781e-12
1.47263e-12
4.37895e-26
7.13241e-26
2.47733e-25
2.14354e-24
1.92217e-23
1.38514e-22
8.58987e-22
5.01413e-21
3.09923e-20
2.60561e-19
3.73139e-18
5.78341e-17
5.72437e-16
1.11878e-14
7.09021e-14
1.41824e-13
2.14304e-13
1.78425e-13
3.80247e-13
4.11604e-27
1.65234e-26
1.76291e-25
1.85813e-24
1.60387e-23
1.04948e-22
5.55778e-22
2.40983e-21
9.28984e-21
4.05575e-20
3.53977e-19
5.63184e-18
6.84208e-17
1.06024e-15
8.96229e-15
2.57218e-14
3.66755e-14
3.91199e-14
8.69148e-14
9.58158e-28
1.08672e-26
1.47038e-25
1.53794e-24
1.22152e-23
7.11998e-23
3.29058e-22
1.23959e-21
3.86356e-21
1.04373e-20
3.38495e-20
2.53492e-19
3.00326e-18
1.41626e-16
1.32862e-15
2.39482e-15
2.29991e-15
3.94287e-15
1.56759e-14
5.81702e-28
8.81565e-27
1.24595e-25
1.20013e-24
8.34585e-24
4.25467e-23
1.72139e-22
5.85267e-22
1.62435e-21
3.72418e-21
7.88135e-21
2.03087e-20
1.39865e-19
9.75961e-18
9.76144e-17
1.58628e-16
1.84602e-16
4.4715e-16
2.21029e-15
4.42924e-28
7.93393e-27
1.03475e-25
8.56101e-25
4.94366e-24
2.16656e-23
7.60756e-23
2.20169e-22
5.35428e-22
1.13993e-21
2.16784e-21
3.36958e-21
5.9079e-21
2.04679e-19
3.55236e-18
7.31609e-18
1.2889e-17
7.02705e-17
3.22408e-16
4.60808e-28
7.47885e-27
7.79034e-26
5.16495e-25
2.39251e-24
8.23657e-24
2.26058e-23
5.3904e-23
1.13773e-22
2.21546e-22
3.71775e-22
5.24438e-22
7.48028e-22
6.93998e-22
1.97783e-20
2.27969e-19
2.31215e-18
1.53889e-17
7.17849e-17
4.98602e-28
6.0206e-27
4.5705e-26
2.19471e-25
7.84176e-25
2.30909e-24
5.85505e-24
1.22659e-23
2.27048e-23
4.13355e-23
6.52229e-23
9.53308e-23
1.24104e-22
8.69913e-23
2.51395e-21
3.42897e-20
2.91349e-19
2.29825e-18
8.11329e-18
3.8698e-28
2.94877e-27
1.38387e-26
4.71396e-26
1.28014e-25
2.99715e-25
6.29857e-25
1.20234e-24
2.04016e-24
3.01535e-24
4.31954e-24
5.5593e-24
6.95631e-24
2.79826e-24
3.21301e-23
8.11697e-22
1.09768e-20
7.21427e-20
1.96197e-19
)
;

boundaryField
{
    leftWall
    {
        type            zeroGradient;
    }
    rightWall
    {
        type            zeroGradient;
    }
    lowerWall
    {
        type            zeroGradient;
    }
    atmosphere
    {
        type            inletOutlet;
        inletValue      uniform 0;
        value           nonuniform List<scalar> 
46
(
4.97942e-16
2.65778e-14
6.82232e-14
2.20565e-14
5.18641e-15
0
0
0
0
0
0
0
0
0
0
0
3.69039e-25
2.61917e-26
1.82062e-27
9.12943e-29
3.51008e-30
1.04189e-31
3.77485e-33
6.88638e-33
1.06717e-31
2.35307e-30
3.76333e-29
3.8698e-28
2.94877e-27
1.38387e-26
0
0
0
0
0
0
0
0
0
0
0
0
8.11697e-22
1.09768e-20
7.21427e-20
1.96197e-19
)
;
    }
    defaultFaces
    {
        type            empty;
    }
}


// ************************************************************************* //
