/*--------------------------------*- C++ -*----------------------------------*\
| =========                 |                                                 |
| \\      /  F ield         | OpenFOAM: The Open Source CFD Toolbox           |
|  \\    /   O peration     | Version:  2312                                  |
|   \\  /    A nd           | Website:  www.openfoam.com                      |
|    \\/     M anipulation  |                                                 |
\*---------------------------------------------------------------------------*/
FoamFile
{
    version     2.0;
    format      ascii;
    arch        "LSB;label=32;scalar=64";
    class       volScalarField;
    location    "1.25";
    object      alpha.water_0;
}
// * * * * * * * * * * * * * * * * * * * * * * * * * * * * * * * * * * * * * //

dimensions      [0 0 0 0 0 0 0];

internalField   nonuniform List<scalar> 
2268
(
9.12748e-11
4.29402e-11
3.01689e-11
2.61982e-11
2.42853e-11
2.30523e-11
2.20411e-11
2.09145e-11
1.94254e-11
1.88056e-11
1.94168e-11
2.16658e-11
2.60582e-11
3.35846e-11
4.62771e-11
7.04386e-11
1.06855e-10
1.67433e-10
2.48399e-10
3.36286e-10
3.6787e-10
3.67995e-10
5.10642e-10
5.17018e-10
2.14337e-10
7.40921e-11
3.81738e-11
3.15003e-11
3.20669e-11
3.42001e-11
3.54359e-11
3.58875e-11
3.70987e-11
3.9416e-11
4.47988e-11
5.59568e-11
7.22097e-11
1.05617e-10
1.68756e-10
2.91331e-10
4.9805e-10
8.73454e-10
1.65947e-09
3.66878e-09
6.38937e-09
2.73086e-09
1.89698e-09
8.85784e-10
3.78422e-10
1.40091e-10
5.86995e-11
4.0445e-11
4.11075e-11
4.53884e-11
4.93491e-11
5.0559e-11
5.23677e-11
5.52248e-11
6.88925e-11
9.8495e-11
1.34643e-10
1.89892e-10
2.6642e-10
3.93691e-10
8.49175e-10
1.61367e-09
1.6212e-08
3.64728e-08
1.97837e-08
1.64372e-09
1.64122e-09
9.86764e-10
4.56082e-10
1.51926e-10
7.18339e-11
5.61344e-11
5.62491e-11
5.48698e-11
5.18662e-11
3.46538e-11
2.51867e-11
2.0579e-11
2.20287e-11
5.86407e-12
4.44112e-29
6.38298e-29
-2.20913e-29
-2.56962e-21
-1.43374e-20
-1.40859e-12
-1.62218e-13
-4.99111e-13
0.00201412
1.16608e-09
1.16288e-09
7.97099e-10
4.06311e-10
2.03526e-10
7.09342e-11
4.3478e-11
3.41525e-11
2.71577e-11
1.15849e-11
1.45415e-12
6.63743e-13
4.66111e-13
0.0392918
0.131709
0.22002
0.282074
0.313076
0.324614
0.331674
0.346901
0.35546
0.467961
0.119131
4.06307e-10
4.04271e-10
4.06307e-10
1.32621e-09
5.76952e-10
1.0593e-10
1.77874e-11
2.38644e-12
2.54292e-15
6.43343e-23
0.0964582
0.397741
0.70413
0.86159
0.939633
0.975004
0.98918
0.992584
0.990684
0.983484
0.977577
0.966356
0.838911
0.350281
0.0550985
0.000625989
9.56931e-09
8.85819e-09
2.37354e-09
1.76624e-13
1.45015e-13
0.0169649
0.281042
0.761857
0.980978
0.999962
0.999969
0.999991
1
1
0.999989
0.999967
0.999999
0.990454
0.965748
0.981954
0.960464
0.661068
0.33951
0.161566
0.0794368
0.0325396
0.031439
0.158493
0.561301
0.94097
0.999984
0.999998
1
1
1
1
1
0.999998
0.999998
0.999999
0.999988
0.0157266
0.0181769
0.00452681
0.0105583
0.0702217
0.117954
0.10863
0.0739091
0.0571554
0.0424232
0.0453063
0.0453042
0.0408629
0.0409052
0.0411463
0.0414618
0.0414623
0.0308747
0.0175568
0.0138755
0.0122277
0.0045283
0.00903913
0.128607
0.422638
0.506311
0.374863
0.0636309
0.00176039
0.0170881
0.0197751
0.0232864
0.0435573
0.0484526
0.0338072
0.0170922
0.0174447
0.0160138
0.0173653
0.0124063
0.0141304
0.140733
0.630206
0.6733
0.672961
0.526885
0.0624099
0.00163211
0.00162838
0.0121461
0.0421795
0.0446036
0.0309861
0.0174327
0.0153431
0.014593
0.0146034
0.075739
0.0602474
0.304137
0.535678
0.509574
0.371362
0.284545
0.0894412
0.0814102
0.0435007
0.121608
0.306011
0.385868
0.374407
0.235523
0.0944888
0.0870356
0.0429942
0.0167069
0.0961582
0.615114
0.735568
0.508721
0.141752
0.0807908
0.197489
0.472605
0.553437
0.373734
0.409921
0.477565
0.764835
0.809751
0.668669
0.532121
0.536155
0.458169
0.14301
0.160504
0.760826
0.746807
0.324896
0.0137802
0.0137931
0.304983
0.759719
0.880694
0.806185
0.723329
0.832325
0.880771
0.880796
0.880843
0.880316
0.86683
0.796159
0.243743
0.629285
0.760672
0.712156
0.139766
0.0140932
0.0139088
0.0415742
0.761662
0.880694
0.880694
0.880694
0.880693
0.87981
0.880777
0.880843
0.88084
0.88084
0.682195
0.308126
0.730265
0.760724
0.639404
0.0469873
0.0199899
0.0267055
0.00983292
0.291737
0.773297
0.856321
0.878499
0.744108
0.519787
0.659439
0.854212
0.827342
0.796262
0.277711
0.30463
0.708324
0.950112
0.99505
0.997939
0.937304
0.834379
0.751087
0.727647
0.773761
0.906105
0.994772
1
1
1
1
1
1
0.999988
0.999938
0.999953
0.999997
0.999999
0.999999
0.0400539
0.412647
0.945088
0.997889
0.997965
0.998202
0.998792
0.999455
0.999896
0.999997
1
1
0.999999
0.999997
0.999997
0.999999
0.999999
0.999842
0.999798
0.999945
0.999997
0.846877
0.828805
0.000143633
0.000147252
0.277243
0.656677
0.69578
0.762331
0.856889
0.950786
0.990638
0.999996
1
1
1
1
1
1
1
0.999971
0.99997
0.993848
0.696101
0.629271
0.630318
0.00015215
0.000761362
0.000476564
0.0286579
0.164257
0.170018
0.139573
0.247665
0.511377
0.756445
0.926795
0.97721
0.994555
0.999947
0.998204
0.997574
0.99805
0.999943
0.994681
0.763975
0.661027
0.744849
0.824805
0.000109057
0.00224876
0.00117664
7.54599e-06
4.58618e-10
1.61605e-13
2.74796e-13
1.61604e-13
5.09002e-13
0.101175
0.265865
0.575847
0.913509
0.998923
0.999342
0.99898
0.999118
0.994705
0.855538
0.755361
0.812453
0.876412
0.87711
2.33823e-05
0.00218852
0.00119415
1.57799e-05
3.31039e-11
6.95376e-10
1.34477e-05
1.06443e-05
2.1656e-06
2.09875e-06
0.097858
0.501888
0.945899
0.999114
0.99894
0.997248
0.997427
0.936442
0.804239
0.814337
0.82924
0.787603
0.696348
3.15719e-06
7.43317e-05
1.84389e-05
1.78131e-05
1.69809e-05
0.000215016
0.000311526
8.39512e-05
2.17078e-06
0.0651834
0.269621
0.693469
0.905391
0.999117
0.998505
0.997789
0.954205
0.85751
0.659045
0.52232
0.316751
0.147534
0.0764544
4.93166e-07
2.80094e-07
6.64147e-07
0.000103415
0.000181695
0.000825351
0.00452054
0.00740263
0.0068716
0.0205743
0.172862
0.646614
0.708392
0.852794
0.86473
0.720189
0.494892
0.244397
0.110546
0.0244891
8.73216e-05
9.7821e-06
9.27418e-05
4.43971e-07
1.75456e-06
2.5313e-05
0.000158169
0.000199875
0.000190165
0.000337081
0.000485054
0.000213059
0.000216624
0.0791693
0.474194
0.592624
0.457345
0.18228
0.0558214
0.00642484
0.000283607
0.000387956
0.000447898
4.79694e-05
9.79233e-06
2.34477e-05
6.9676e-07
4.06096e-06
1.84852e-05
9.61554e-07
1.00696e-08
3.42935e-09
8.69403e-08
1.05833e-05
0.000151416
0.00043439
0.00785743
0.0364796
0.0481575
0.0160176
7.53129e-06
0.000514901
0.000349944
0.000153483
0.000218702
7.92025e-05
1.12654e-05
1.27167e-05
1.18618e-05
1.59774e-06
2.13311e-06
2.30525e-06
4.25505e-06
3.57096e-09
3.41396e-09
2.58721e-05
0.00070678
0.000863517
0.00073933
6.4255e-08
5.91739e-09
5.94598e-09
1.12191e-05
7.57691e-06
1.23783e-05
9.53599e-06
5.33251e-08
5.44341e-07
1.29222e-06
1.05146e-05
1.25065e-05
1.24806e-06
1.59916e-06
2.38795e-07
3.60302e-08
1.88297e-06
3.41423e-09
3.42935e-09
4.27859e-09
0.000179843
0.000860881
0.000859006
3.13491e-06
5.94277e-09
2.2689e-06
4.6862e-06
2.36343e-06
1.11654e-08
1.11767e-08
1.15836e-08
1.86235e-08
3.94711e-07
1.52664e-06
1.08313e-06
1.92382e-09
1.50226e-06
4.43401e-07
4.23985e-08
4.20777e-08
2.95554e-08
6.7597e-09
3.16481e-09
3.11241e-09
5.22313e-05
0.000264559
0.000175712
3.30424e-06
1.52332e-07
1.45537e-07
1.3553e-08
1.35347e-08
1.90567e-08
2.25257e-08
1.76607e-08
4.89793e-09
3.53874e-09
1.86064e-09
1.91897e-09
2.36602e-06
1.75701e-06
2.40531e-07
2.87608e-07
2.95506e-08
1.00853e-07
4.11225e-08
2.03066e-08
4.27182e-09
6.58495e-09
1.18963e-05
6.56676e-06
4.35062e-07
1.68832e-08
1.50568e-08
1.18916e-08
1.2951e-08
1.39309e-08
1.07314e-08
4.84429e-09
3.18075e-09
1.86654e-09
1.7659e-09
1.71432e-06
1.17668e-06
1.18349e-06
3.37402e-06
1.48715e-05
3.03997e-06
5.50405e-07
1.03196e-07
7.50327e-09
4.29424e-09
4.35091e-09
8.17945e-07
2.20615e-07
4.11223e-08
1.58462e-08
1.24085e-08
8.80924e-09
6.45336e-09
4.09917e-09
2.30861e-09
1.67939e-09
1.0983e-09
8.79712e-10
1.09193e-05
3.38492e-05
5.16008e-05
9.72809e-06
3.19556e-05
1.55674e-05
6.21518e-08
6.23888e-09
1.18492e-05
1.91905e-05
3.30732e-06
6.19849e-08
4.79913e-08
3.64345e-08
1.39191e-08
1.24249e-08
7.37257e-09
4.15208e-09
2.20993e-09
1.06207e-09
7.02374e-10
4.03866e-10
3.20829e-10
3.96934e-05
8.05662e-05
8.07603e-05
6.94305e-05
4.57057e-05
7.45373e-05
9.84273e-05
0.000134277
0.000246479
0.000234758
4.06895e-05
5.97492e-08
7.95297e-08
2.06187e-08
1.50182e-08
1.20792e-08
6.01215e-09
2.86277e-09
1.40622e-09
5.44486e-10
3.15973e-10
1.58492e-10
1.07006e-10
3.04239e-05
4.90561e-06
4.21549e-05
8.04767e-05
0.000107441
0.000127446
0.000208761
0.000289208
0.000290878
0.000264468
3.57418e-05
5.10997e-07
4.76727e-08
2.03583e-08
2.40955e-08
1.16764e-08
4.62685e-09
1.97835e-09
8.45712e-10
3.17752e-10
1.45267e-10
5.21404e-11
3.36322e-11
8.43743e-06
3.23051e-06
1.78913e-06
1.69337e-06
8.12697e-06
1.71604e-05
2.04462e-05
3.57176e-05
2.44092e-05
5.00476e-05
1.15412e-05
2.76014e-08
3.44327e-08
6.72599e-08
3.2733e-08
1.18544e-08
3.972e-09
1.39048e-09
5.14832e-10
1.567e-10
5.84528e-11
2.28807e-11
1.11785e-11
6.88591e-06
1.85521e-05
2.01591e-05
6.89882e-06
3.74626e-07
4.64496e-07
4.04902e-07
2.7325e-09
9.90672e-11
4.81959e-10
2.28057e-08
2.6115e-08
4.30581e-08
8.49601e-08
4.2905e-08
1.22974e-08
3.36471e-09
8.51236e-10
2.66131e-10
8.28325e-11
2.85793e-11
7.87997e-12
3.35882e-12
1.15543e-05
2.03264e-05
2.64847e-05
1.71101e-05
1.13655e-06
2.25702e-06
2.87685e-06
4.93563e-09
1.93662e-27
1.92845e-27
-2.81204e-25
4.26402e-10
1.17466e-07
5.35228e-08
3.63853e-08
8.60465e-09
1.74481e-09
3.62402e-10
1.16992e-10
3.37065e-11
1.11609e-11
3.97019e-12
1.39521e-12
4.67752e-06
3.73187e-07
2.52226e-05
1.11237e-05
2.56466e-07
9.98786e-07
1.08557e-06
2.20646e-10
2.73343e-10
2.7495e-08
1.40419e-07
4.61482e-07
8.61075e-08
2.3441e-08
2.03419e-08
2.49774e-09
5.08122e-10
1.34897e-10
4.26319e-11
1.56804e-11
6.15278e-12
1.85399e-12
6.51517e-13
3.77815e-07
3.74122e-07
4.41292e-06
2.56761e-06
4.01751e-08
1.47929e-07
5.8831e-07
1.8222e-06
3.07125e-06
3.26352e-06
3.0957e-06
9.3293e-07
6.30731e-09
1.25994e-08
1.23336e-09
4.43121e-10
1.40037e-10
5.39021e-11
2.61088e-11
1.03694e-11
4.11046e-12
1.35373e-12
3.77113e-13
3.77821e-07
3.77814e-07
3.77849e-07
2.64993e-06
2.86636e-08
5.38861e-07
2.43552e-06
3.38419e-06
3.45783e-06
3.4546e-06
3.25953e-06
1.14091e-07
1.63294e-09
5.37293e-09
3.42821e-10
1.58724e-10
7.68394e-11
4.22064e-11
2.05408e-11
8.21536e-12
3.15321e-12
7.79489e-13
2.18727e-13
3.77815e-07
3.91578e-07
1.01423e-06
2.72833e-06
1.38869e-08
3.75732e-07
2.174e-06
3.47996e-06
3.47001e-06
3.35741e-06
4.45264e-07
6.21124e-08
2.55893e-10
4.5268e-10
1.93438e-10
1.08201e-10
6.80973e-11
3.58615e-11
1.68279e-11
6.15252e-12
1.94918e-12
5.44366e-13
1.07343e-13
3.77906e-07
7.98253e-07
2.58118e-06
2.43076e-06
1.45314e-08
1.29287e-07
7.2641e-07
1.89665e-06
2.23891e-06
7.31811e-07
9.67727e-08
2.17841e-08
2.48754e-10
2.48043e-10
1.51736e-10
1.05688e-10
5.99599e-11
2.89115e-11
1.22518e-11
4.19309e-12
1.27322e-12
2.87887e-13
6.08941e-14
8.77907e-07
7.85988e-07
1.8651e-06
8.48041e-07
1.28987e-08
6.21669e-08
1.98078e-07
3.13386e-07
3.26896e-07
8.30804e-08
3.58436e-08
2.21557e-09
5.67296e-10
2.45363e-10
1.68691e-10
9.77485e-11
4.81612e-11
2.07622e-11
8.05096e-12
2.4667e-12
6.57342e-13
1.50652e-13
2.15466e-14
1.08869e-06
9.1297e-08
5.9435e-08
1.00347e-07
3.02503e-08
8.08386e-08
1.05264e-07
2.78695e-08
1.50844e-08
2.3232e-08
4.20143e-09
1.19067e-09
4.07151e-10
2.60991e-10
1.50578e-10
7.49548e-11
3.31668e-11
1.28458e-11
4.35861e-12
1.29776e-12
3.31183e-13
6.55501e-14
1.12582e-14
1.08621e-06
1.77914e-07
3.89205e-08
4.90833e-08
5.29897e-08
7.18167e-08
3.97649e-08
7.39587e-09
8.17939e-09
4.87658e-09
1.78384e-09
6.63325e-10
3.83714e-10
2.15026e-10
1.07374e-10
4.83067e-11
1.94657e-11
6.95847e-12
2.21416e-12
5.84864e-13
1.34563e-13
2.601e-14
2.69989e-15
1.08994e-06
3.00207e-07
3.50385e-08
3.49137e-08
5.30068e-08
1.93971e-08
8.61231e-09
7.19349e-09
6.57379e-09
2.45661e-09
9.88748e-10
5.39227e-10
2.9096e-10
1.41686e-10
6.56974e-11
2.71943e-11
1.01017e-11
3.33934e-12
9.64695e-13
2.30124e-13
4.85968e-14
7.30174e-15
1.11246e-15
1.0828e-06
5.59969e-07
3.49473e-08
5.00707e-08
5.94353e-08
1.34746e-08
2.02693e-09
4.42488e-09
3.56377e-09
1.42317e-09
7.16573e-10
3.84218e-10
1.89442e-10
8.21892e-11
3.56776e-11
1.38497e-11
4.71228e-12
1.40672e-12
3.63923e-13
8.08326e-14
1.458e-14
2.34888e-15
2.61486e-16
8.32128e-07
9.14786e-07
3.50398e-08
5.31196e-08
5.97825e-08
3.61593e-08
2.03522e-09
2.14047e-09
1.86146e-09
9.01312e-10
4.68845e-10
2.36412e-10
1.13969e-10
4.73659e-11
1.82524e-11
6.48452e-12
2.00753e-12
5.32749e-13
1.24568e-13
2.50389e-14
4.18016e-15
5.00112e-16
6.62554e-17
8.22466e-07
1.53195e-06
6.83446e-08
2.51584e-08
4.6816e-08
2.16489e-08
3.13979e-09
1.7043e-09
1.05759e-09
5.71816e-10
2.98207e-10
1.44153e-10
6.40732e-11
2.52967e-11
8.52769e-12
2.61288e-12
7.23373e-13
1.72367e-13
3.57206e-14
6.34976e-15
8.88651e-16
1.13584e-16
1.19164e-17
8.25452e-07
1.6193e-06
1.03538e-06
8.48302e-09
8.29202e-09
2.39888e-09
1.78155e-09
1.08346e-09
6.75536e-10
3.73854e-10
1.85499e-10
8.32204e-11
3.20869e-11
1.14789e-11
3.35196e-12
9.40665e-13
2.35671e-13
4.9553e-14
8.88508e-15
1.38447e-15
1.83833e-16
1.95392e-17
1.92507e-18
5.66368e-07
1.46686e-06
1.38265e-06
8.55959e-09
1.12034e-08
1.32594e-09
1.07343e-09
7.59893e-10
4.65419e-10
2.42661e-10
1.0844e-10
4.3373e-11
1.50977e-11
4.50174e-12
1.24579e-12
3.05793e-13
6.55083e-14
1.21861e-14
1.97988e-15
2.54631e-16
3.10247e-17
3.25338e-18
2.71972e-19
2.76408e-07
1.40222e-07
3.72033e-07
6.32665e-08
1.46332e-08
2.17e-09
1.33668e-09
7.33826e-10
3.48795e-10
1.47655e-10
5.84667e-11
2.00113e-11
6.03778e-12
1.68441e-12
4.21708e-13
9.18914e-14
1.79415e-14
2.9045e-15
4.25493e-16
5.30521e-17
5.40368e-18
4.72731e-19
3.58977e-20
1.14603e-07
2.17209e-08
1.56098e-08
2.10849e-08
8.59085e-09
3.29638e-09
1.47466e-09
6.33993e-10
2.35784e-10
8.39701e-11
2.64948e-11
8.0324e-12
2.26389e-12
5.88149e-13
1.31011e-13
2.45456e-14
4.3659e-15
6.34439e-16
8.32971e-17
8.13841e-18
7.6224e-19
5.99427e-20
3.67969e-21
4.72215e-08
2.46277e-08
1.51704e-08
1.01255e-08
5.17945e-09
2.53598e-09
1.00269e-09
3.64241e-10
1.18187e-10
3.72583e-11
1.06932e-11
2.88357e-12
7.20729e-13
1.62165e-13
3.39956e-14
5.8803e-15
9.20237e-16
1.22901e-16
1.40983e-17
1.33746e-18
1.04379e-19
6.66381e-21
3.35462e-22
1.12693e-08
1.56964e-08
1.27459e-08
7.14115e-09
3.23205e-09
1.28376e-09
4.82845e-10
1.58853e-10
4.73796e-11
1.34627e-11
3.49384e-12
8.34988e-13
1.92858e-13
4.17964e-14
7.92812e-15
1.31749e-15
1.8789e-16
2.29973e-17
2.42684e-18
2.03792e-19
1.35914e-20
7.0913e-22
2.79755e-23
5.08618e-09
6.1446e-09
5.82355e-09
3.10163e-09
1.24854e-09
4.66848e-10
1.5849e-10
5.11593e-11
1.49355e-11
4.04775e-12
1.03664e-12
2.4537e-13
5.0392e-14
9.441e-15
1.65977e-15
2.4709e-16
3.25784e-17
3.61591e-18
3.57703e-19
2.81509e-20
1.7137e-21
7.66018e-23
2.39722e-24
1.70618e-09
1.94444e-09
1.77888e-09
9.41218e-10
3.97476e-10
1.45326e-10
4.88345e-11
1.52192e-11
4.36744e-12
1.16688e-12
2.81219e-13
6.28242e-14
1.23143e-14
2.21427e-15
3.52207e-16
5.08852e-17
6.31194e-18
6.58166e-19
5.68631e-20
3.95402e-21
2.10327e-22
8.04817e-24
1.69641e-25
5.51282e-10
6.32864e-10
5.54184e-10
2.82753e-10
1.11478e-10
3.80569e-11
1.22941e-11
3.69414e-12
1.00136e-12
2.52562e-13
5.94381e-14
1.27387e-14
2.46345e-15
4.18433e-16
6.09741e-17
7.80601e-18
8.72073e-19
9.35747e-20
7.95717e-21
5.05868e-22
2.35818e-23
7.63966e-25
1.47075e-26
0.999999
0.999999
0.635204
0.257741
0.896088
0.828218
0.550287
0.247395
0.642372
0.760447
0.801359
0.663283
0.851097
0.852232
0.851806
0.851912
0.847217
0.674436
0.575597
0.573454
0.360874
0.158254
0.147086
0.148472
0.00880539
3.76953e-06
0.00759734
0.0120997
2.28032e-06
3.73063e-06
3.22682e-09
9.64356e-06
2.25468e-06
1.19705e-06
3.90735e-09
1.84662e-09
2.35435e-06
1.90858e-09
1.90814e-09
1.04574e-08
3.97062e-09
3.95655e-09
2.15185e-08
3.12736e-08
5.43204e-09
8.47858e-09
2.23613e-08
5.19202e-08
3.3781e-09
5.40995e-09
8.27047e-09
1.20207e-08
1.68048e-09
1.69808e-09
1.57774e-09
1.63168e-09
7.66647e-10
6.02138e-10
5.19507e-10
4.87344e-10
2.78077e-10
2.2201e-10
1.73378e-10
1.29717e-10
8.6202e-11
5.97194e-11
4.07579e-11
2.39804e-11
1.79493e-11
8.89942e-12
5.778e-12
3.06363e-12
4.22107e-12
1.57117e-12
6.89955e-13
6.09513e-13
6.80026e-13
2.03202e-13
1.93624e-13
1.9038e-13
1.70148e-13
5.05343e-14
4.50949e-14
5.86166e-14
7.14445e-14
9.65503e-15
1.1916e-14
1.3192e-14
6.28998e-14
3.20178e-15
2.17189e-15
2.92767e-15
2.42344e-14
1.3508e-15
4.97166e-16
4.65036e-16
2.50947e-14
3.6358e-15
3.4933e-16
1.19758e-16
1.32034e-14
2.72445e-15
4.56251e-16
8.43631e-17
7.25433e-15
2.20813e-15
3.66427e-16
8.74054e-17
2.29836e-15
5.08709e-16
1.22979e-16
2.24467e-17
7.20669e-16
1.69155e-16
2.91061e-17
6.30251e-18
2.34479e-16
4.0892e-17
6.86126e-18
1.09922e-18
5.3769e-17
9.21335e-18
1.47672e-18
2.68465e-19
1.19259e-17
1.59083e-18
2.41777e-19
2.44906e-20
1.9559e-18
2.88834e-19
3.47934e-20
5.00499e-21
2.74212e-19
3.55831e-20
4.87389e-21
4.38244e-22
3.43576e-20
3.78122e-21
3.72883e-22
4.10296e-23
4.0728e-21
4.55372e-22
4.47115e-23
2.48059e-24
3.58459e-22
3.25249e-23
2.51975e-24
1.77123e-25
2.47318e-23
1.80182e-24
1.10712e-25
3.30833e-27
1.59559e-24
8.06096e-26
3.47006e-27
1.05103e-28
8.39652e-26
3.28337e-27
1.02407e-28
1.50587e-30
5.16777e-27
1.34303e-28
2.55175e-30
1.88014e-31
3.52114e-28
5.99846e-30
5.35984e-32
1.95134e-31
0.26833
0.505495
0.230986
0.0846166
0.0937061
0.0508829
0.00824184
0.0129476
0.107431
0.291078
0.439733
0.237976
0.0672458
0.171489
0.272397
0.15541
0.136694
0.0908612
0.175961
0.243317
0.564209
0.473828
0.385448
0.228565
0.0398785
0.0150952
7.07522e-05
7.06909e-05
0.00233186
0.00526466
-7.1566e-08
2.21941e-23
-5.6344e-14
3.38098e-25
-2.38994e-24
1.41107e-16
1.90263e-32
0.00602698
0.352697
0.75711
0.784888
0.524842
0.33733
0.0297629
0.00899029
0.00228466
6.97326e-05
0.0020406
0.0138296
0.00467863
9.30542e-05
-4.03193e-11
2.03582e-06
2.51758e-06
2.33928e-07
3.62671e-26
-7.21007e-11
0.822811
0.822202
0.622603
0.474909
0.0971262
0.0409738
0.00119887
0.000292486
6.78151e-05
9.04625e-05
0.0151867
0.015147
3.22318e-12
2.58314e-07
2.74883e-06
2.60333e-06
1.18887e-06
2.66034e-08
1.21035e-08
0.616178
0.541411
0.324368
0.0297305
0.0209601
0.0089586
0.00183598
5.52457e-06
5.66385e-06
0.00431456
0.0151763
0.00907431
7.01486e-28
4.79358e-09
9.30867e-13
1.96902e-10
4.4682e-11
4.80892e-09
7.28081e-09
0.169758
0.0838916
0.0597645
0.0317535
1.29574e-11
-4.24751e-09
-2.98384e-08
5.53332e-06
0.000207812
0.00478656
0.00634958
0.000995909
-7.93969e-10
1.54534e-07
9.30576e-13
1.58991e-10
4.42813e-11
6.93749e-12
6.90406e-12
0.0140165
0.01864
0.00783373
-5.55172e-09
1.08475e-09
3.46319e-06
7.25559e-06
5.42634e-06
0.000162719
0.000775135
3.28093e-06
3.50965e-06
1.70763e-05
5.98056e-07
7.65977e-11
1.13994e-10
1.00941e-10
2.81897e-11
6.87543e-12
0.00256646
0.000322733
4.18523e-08
8.55981e-07
1.23349e-06
4.02538e-06
7.25815e-06
6.75854e-06
2.32314e-05
3.22074e-06
3.23479e-06
1.70318e-06
4.44606e-06
3.40118e-11
6.94223e-11
1.50226e-10
1.26503e-10
6.02029e-11
6.43596e-12
1.84022e-09
1.84661e-09
4.19709e-08
7.42325e-08
1.42264e-07
4.51172e-07
6.24156e-07
6.38039e-07
1.18959e-06
3.7066e-06
2.90562e-06
1.19456e-06
8.98344e-08
3.36677e-11
1.86704e-10
2.40959e-10
2.31407e-10
9.57615e-11
7.03138e-12
1.95151e-08
2.16034e-08
1.00698e-07
1.01982e-07
8.28895e-08
4.82806e-08
2.63946e-08
2.62607e-08
2.13674e-07
1.69937e-06
9.88968e-07
3.22207e-07
2.40459e-10
2.40808e-10
3.91035e-10
3.93462e-10
3.04663e-10
1.17302e-10
9.15222e-12
3.53394e-08
3.00776e-08
4.2864e-08
6.29735e-08
1.06691e-07
1.12885e-07
1.10246e-07
3.95386e-08
1.52019e-09
1.56324e-09
1.03601e-09
6.52194e-10
6.52798e-10
7.27633e-10
6.81871e-10
4.97699e-10
3.28e-10
1.21876e-10
9.62171e-12
5.97406e-08
5.96717e-08
5.36339e-08
3.48022e-08
2.96378e-08
4.88104e-08
6.48558e-08
7.06532e-08
5.49433e-08
4.31313e-08
2.0628e-08
5.16708e-09
1.90736e-09
1.19218e-09
8.56103e-10
5.21206e-10
3.10892e-10
9.2221e-11
6.5739e-12
1.72014e-08
2.26889e-08
2.05124e-08
1.50651e-08
1.1996e-08
6.69421e-09
2.69155e-09
2.12348e-08
2.41415e-08
2.04624e-08
1.13716e-08
7.04787e-09
4.75053e-09
2.20528e-09
9.54943e-10
4.80453e-10
2.34694e-10
5.74689e-11
3.92741e-12
1.692e-09
1.91273e-09
2.03352e-09
1.69818e-09
1.84465e-09
6.97354e-10
5.35587e-10
5.432e-10
5.58396e-10
5.98273e-10
6.97974e-10
5.59003e-10
6.78962e-10
7.89052e-10
6.7133e-10
3.70578e-10
1.5141e-10
3.68399e-11
3.07526e-12
4.06556e-10
3.24805e-10
1.40378e-10
2.08576e-10
3.81778e-10
5.26423e-10
7.13363e-10
9.22677e-10
9.93635e-10
1.01548e-09
9.39403e-10
6.45923e-10
4.29037e-10
3.33837e-10
2.45416e-10
1.67775e-10
1.0131e-10
2.36447e-11
2.62429e-12
8.95998e-11
4.31484e-11
3.37821e-11
4.06229e-11
7.15784e-11
2.41049e-10
4.49492e-10
6.79211e-10
9.75323e-10
1.02545e-09
9.20533e-10
6.195e-10
3.61782e-10
2.25959e-10
1.45548e-10
9.99375e-11
5.36603e-11
1.10798e-11
2.24715e-12
1.35518e-11
9.37901e-12
8.59051e-12
1.45706e-11
2.86312e-11
5.07453e-11
1.39805e-10
2.48596e-10
3.4855e-10
3.43435e-10
2.81307e-10
1.80712e-10
1.23591e-10
8.77924e-11
6.75458e-11
5.18669e-11
2.62317e-11
5.39546e-12
1.93075e-12
1.50357e-12
2.11511e-12
3.18611e-12
5.30899e-12
9.3067e-12
1.93104e-11
4.20944e-11
6.77018e-11
7.20405e-11
6.60003e-11
5.53279e-11
4.41666e-11
3.99981e-11
3.75706e-11
3.25922e-11
2.59625e-11
9.90064e-12
2.84337e-12
1.6912e-12
3.67541e-13
5.77962e-13
9.30072e-13
1.62301e-12
3.38678e-12
7.91914e-12
1.63618e-11
1.97965e-11
2.07597e-11
2.04403e-11
2.05585e-11
2.13698e-11
2.16358e-11
2.05778e-11
1.67051e-11
1.01261e-11
3.15017e-12
2.04488e-12
1.54855e-12
1.84849e-13
2.01062e-13
2.95983e-13
7.71067e-13
1.66302e-12
3.08213e-12
4.63249e-12
6.14742e-12
7.75397e-12
9.75503e-12
1.12073e-11
1.12488e-11
1.08077e-11
8.68353e-12
5.52693e-12
2.36973e-12
1.20527e-12
1.6395e-12
1.39612e-12
6.40828e-14
7.05399e-14
1.09924e-13
3.29006e-13
6.06412e-13
9.9703e-13
1.47653e-12
2.34322e-12
3.52457e-12
4.78523e-12
4.89653e-12
4.76374e-12
3.22593e-12
1.24062e-12
4.52784e-13
3.2548e-13
6.34998e-13
1.51614e-12
1.25528e-12
1.61245e-14
1.81701e-14
3.41346e-14
9.82004e-14
1.92891e-13
2.97523e-13
5.45489e-13
9.85652e-13
1.59612e-12
1.74942e-12
1.72896e-12
1.19754e-12
4.96069e-13
1.00826e-13
3.12458e-14
1.00082e-13
5.08966e-13
1.41767e-12
1.11588e-12
2.96397e-15
3.85248e-15
8.47904e-15
2.38392e-14
5.15348e-14
1.03709e-13
2.2136e-13
3.96409e-13
4.86103e-13
5.0455e-13
3.00476e-13
1.0602e-13
1.96283e-14
2.03283e-15
1.10197e-14
8.06124e-14
4.1982e-13
1.22525e-12
9.74569e-13
5.63803e-16
8.18683e-16
2.12538e-15
7.01624e-15
1.76033e-14
4.2064e-14
8.16396e-14
1.08228e-13
1.18286e-13
6.37443e-14
2.13967e-14
3.70296e-15
4.44832e-16
9.28305e-16
1.1557e-14
7.80771e-14
4.2336e-13
1.08903e-12
8.67984e-13
9.14509e-17
1.35975e-16
5.44687e-16
2.39562e-15
7.39692e-15
1.42117e-14
1.94522e-14
2.13249e-14
1.31476e-14
4.56389e-15
6.56902e-16
6.23994e-17
2.56048e-16
1.38601e-15
1.25e-14
8.8815e-14
4.34333e-13
9.7062e-13
7.45343e-13
1.97162e-17
2.60174e-17
1.55126e-16
8.36824e-16
2.34029e-15
3.21309e-15
3.6186e-15
3.51103e-15
9.86287e-16
1.29052e-16
7.58057e-18
3.30496e-17
3.14521e-16
2.77483e-15
1.61423e-14
9.72984e-14
4.30986e-13
8.63114e-13
5.05273e-13
9.7857e-18
5.78073e-18
4.92554e-17
2.31101e-16
3.60336e-16
4.62283e-16
4.74823e-16
1.53574e-16
3.75669e-17
5.01366e-18
1.26812e-18
3.3449e-17
3.68067e-16
3.4592e-15
2.35629e-14
1.20211e-13
4.56053e-13
7.09193e-13
3.6022e-13
2.15073e-18
1.523e-18
1.22352e-17
3.23921e-17
4.59246e-17
4.89497e-17
4.69333e-17
1.07392e-17
1.15376e-18
8.23372e-20
7.82121e-19
3.12626e-17
3.75237e-16
3.91929e-15
3.39061e-14
1.70963e-13
4.81467e-13
6.03394e-13
2.44432e-13
5.72603e-19
3.35239e-19
1.79953e-18
3.17888e-18
4.49206e-18
4.67092e-18
3.87437e-18
5.98736e-19
3.13905e-20
3.27483e-20
7.88063e-19
2.08351e-17
3.0737e-16
4.28505e-15
3.75675e-14
1.859e-13
4.543e-13
4.6187e-13
1.69047e-13
9.19724e-20
6.22241e-20
1.91587e-19
2.93651e-19
3.32813e-19
3.27612e-19
2.15697e-19
5.09946e-20
3.96479e-21
3.83484e-20
8.36425e-19
1.62928e-17
2.26218e-16
4.50285e-15
3.15859e-14
1.40403e-13
3.0249e-13
2.96068e-13
1.04471e-13
1.9934e-20
6.92638e-21
1.34075e-20
1.95666e-20
2.06753e-20
1.60726e-20
7.04329e-21
1.08697e-21
2.16436e-21
4.21037e-20
8.98036e-19
1.52818e-17
1.57698e-16
3.69291e-15
1.94938e-14
6.70122e-14
1.41683e-13
1.41214e-13
5.12345e-14
1.79898e-21
5.86271e-22
9.04005e-22
1.10216e-21
9.92054e-22
5.6879e-22
1.32695e-22
1.01349e-22
1.4917e-21
2.8744e-20
5.35452e-19
7.56934e-18
6.27311e-17
1.32963e-15
9.11721e-15
2.50099e-14
4.54757e-14
5.47488e-14
2.30206e-14
2.82951e-22
3.73181e-23
5.22801e-23
5.369e-23
3.65246e-23
1.2416e-23
7.07083e-24
5.52538e-23
7.15624e-22
1.12265e-20
2.30153e-19
3.35291e-18
2.72709e-17
4.96258e-16
3.02808e-15
7.76858e-15
1.24984e-14
1.49842e-14
7.8052e-15
2.67948e-23
2.15427e-24
2.54769e-24
2.20102e-24
1.0855e-24
8.72333e-25
4.52458e-24
2.96794e-23
2.3116e-22
3.24095e-21
6.11305e-20
9.18131e-19
7.95074e-18
1.315e-16
7.57969e-16
1.58794e-15
2.46102e-15
3.53793e-15
2.56106e-15
1.69543e-24
1.01034e-25
9.09527e-26
6.00603e-26
1.01838e-25
6.04876e-25
3.59268e-24
1.80255e-23
8.03748e-23
4.96942e-22
7.80257e-21
1.38598e-19
1.42451e-18
2.18542e-17
1.34323e-16
2.68847e-16
3.90623e-16
3.17272e-16
6.15849e-16
9.51497e-26
4.59069e-27
3.80935e-27
9.63309e-27
7.33344e-26
4.84362e-25
2.56941e-24
1.09091e-23
3.8198e-23
1.22899e-22
7.20732e-22
1.21209e-20
1.62582e-19
2.25053e-18
1.66049e-17
4.63046e-17
6.46911e-17
6.40998e-17
1.47299e-16
3.92989e-27
2.06212e-28
7.48353e-28
7.2153e-27
5.81855e-26
3.42625e-25
1.58919e-24
5.97056e-24
1.83743e-23
4.70067e-23
1.15753e-22
4.81553e-22
5.54284e-21
2.60109e-19
2.25408e-18
4.00812e-18
3.57916e-18
6.95288e-18
2.65005e-17
6.26835e-29
4.78177e-29
5.96509e-28
5.86736e-27
4.12733e-26
2.11806e-25
8.5805e-25
2.9048e-24
8.01169e-24
1.82401e-23
3.74249e-23
6.91711e-23
2.585e-22
1.50469e-20
1.48002e-19
2.45779e-19
3.50155e-19
1.17802e-18
5.68151e-18
3.19469e-30
3.86039e-29
5.16013e-28
4.32541e-27
2.51643e-26
1.10646e-25
3.88534e-25
1.12028e-24
2.71133e-24
5.74735e-24
1.08831e-23
1.67869e-23
2.65118e-23
2.72847e-22
5.45458e-21
1.44796e-20
4.76222e-20
3.31064e-19
1.34945e-18
2.29386e-30
3.80557e-29
3.99653e-28
2.67336e-27
1.24025e-26
4.27474e-26
1.17325e-25
2.79515e-25
5.88566e-25
1.14266e-24
1.90784e-24
2.68752e-24
3.90707e-24
3.41429e-24
8.03306e-23
9.87975e-22
1.1521e-20
8.06457e-20
3.81259e-19
2.564e-30
3.12357e-29
2.37889e-28
1.14649e-27
4.10548e-27
1.20998e-26
3.06874e-26
6.42675e-26
1.18858e-25
2.15636e-25
3.39013e-25
4.93178e-25
6.37813e-25
4.4312e-25
1.16468e-23
1.65353e-22
1.44456e-21
1.19423e-20
4.65149e-20
2.01186e-30
1.53942e-29
7.25953e-29
2.48606e-28
6.77047e-28
1.58905e-27
3.34328e-27
6.38676e-27
1.08376e-26
1.60048e-26
2.28921e-26
2.93769e-26
3.67235e-26
1.4908e-26
1.7039e-25
4.12223e-24
5.21911e-23
3.11611e-22
9.44438e-22
)
;

boundaryField
{
    leftWall
    {
        type            zeroGradient;
    }
    rightWall
    {
        type            zeroGradient;
    }
    lowerWall
    {
        type            zeroGradient;
    }
    atmosphere
    {
        type            inletOutlet;
        inletValue      uniform 0;
        value           nonuniform List<scalar> 
46
(
5.51282e-10
6.32864e-10
5.54184e-10
2.82753e-10
1.11478e-10
0
0
0
0
0
0
0
0
0
0
0
8.72073e-19
9.35747e-20
7.95717e-21
5.05868e-22
2.35818e-23
7.63966e-25
1.47075e-26
3.52114e-28
5.99846e-30
5.35983e-32
1.95134e-31
2.01186e-30
1.53942e-29
7.25953e-29
0
0
0
0
0
0
0
0
0
0
0
0
4.12223e-24
5.21911e-23
3.11611e-22
9.44438e-22
)
;
    }
    defaultFaces
    {
        type            empty;
    }
}


// ************************************************************************* //
