/*--------------------------------*- C++ -*----------------------------------*\
| =========                 |                                                 |
| \\      /  F ield         | OpenFOAM: The Open Source CFD Toolbox           |
|  \\    /   O peration     | Version:  2312                                  |
|   \\  /    A nd           | Website:  www.openfoam.com                      |
|    \\/     M anipulation  |                                                 |
\*---------------------------------------------------------------------------*/
FoamFile
{
    version     2.0;
    format      ascii;
    arch        "LSB;label=32;scalar=64";
    class       volScalarField;
    location    "1.25";
    object      p;
}
// * * * * * * * * * * * * * * * * * * * * * * * * * * * * * * * * * * * * * //

dimensions      [1 -1 -2 0 0 0 0];

internalField   nonuniform List<scalar> 
2268
(
5822.24
5933.32
6112.65
6314.61
6497.37
6634.8
6713.25
6725.83
6669.45
6544.43
6353.11
6103.62
5813.02
5509.86
5226.9
4989.15
4807.52
4680.54
4599.56
4550.23
4521.57
4503.64
4495.47
4985.86
5110.6
5307.74
5519.01
5707.24
5848.34
5929.54
5944.08
5888.74
5762.73
5568.39
5313.48
5015.49
4705.01
4417.15
4178.8
3997.79
3873.6
3795.95
3749.12
3721.87
3704.89
3697.03
4121.1
4269.92
4496.7
4724.88
4923.81
5072.02
5158.5
5176.63
5122.34
4994.31
4793.36
4526.94
4213.77
3888.8
3591.49
3352.85
3173.98
3055.6
2984.75
2943.74
2919.29
2903.67
2896.03
3223.36
3411.97
3679.73
3931.94
4146.95
4305.91
4400.65
4424.66
4372.14
4240.95
4029.62
3745.25
3408.08
3060.46
2750.45
2508.31
2335.88
2227.13
2171.21
2134.37
2113.83
2100
2092.89
2283.35
2528.75
2856.84
3140.65
3376.58
3549.86
3656.37
3688.97
3639.15
3504.29
3279
2969.46
2596.77
2213.28
1892.04
1683.05
1557.17
1487.76
1451.54
1438.16
1431.38
1427.87
1429.19
1467.46
1677.91
2027.98
2353.86
2613.8
2803.63
2925.44
2970.72
2925.21
2786
2540.81
2194.23
1789.99
1469.05
1294.1
1211.91
1168.21
1145.35
1135.13
1129.16
1126.23
1126.98
1136.82
1176.62
1203.35
1354.66
1604.24
1863.12
2069.05
2207.96
2266.79
2206.64
2082.06
1814.58
1492.64
1245.73
1138.78
1104.53
1091.3
1081.77
1076.44
1070.8
1065.86
1062.22
1064.14
1084.51
1093.01
1079.01
1064.57
1115.01
1251.36
1405.98
1531.31
1596.26
1586.17
1447.58
1244.64
1108.01
1069.56
1059.49
1043.23
1030.74
1022.57
1016.15
1010.22
1004.84
1000.56
1000.37
1017.52
1928.28
1913.4
1889.31
1843.23
1864.95
1904.74
1824.23
1881.91
2011.72
2007.11
1956.98
1913.26
1907.83
2002.99
2213.45
2434.31
2759.8
3002.44
3286.66
1628.01
1617.32
1657.11
1662.61
1578.31
1485.51
1392.38
1327.79
1357.9
1321.39
1282.38
1252.84
1247.26
1305.09
1474.13
1708.36
2015.42
2261.4
2589.9
1388.61
1401.58
1489.38
1506.72
1424.23
1304.34
1186.03
1046.23
924.145
856.008
832.998
811.669
795.763
808.147
908.443
1059.45
1287.05
1524.99
1918.28
1240.94
1251.49
1304.26
1323.86
1206.27
1052.27
925.683
798.447
661.604
623.112
612.367
598.842
594.906
598.481
606.315
625.538
704.445
867.272
1252.54
1153.49
1124.78
1122.53
1092.42
935.932
749.931
622.01
570.798
530.574
519.079
513.354
514.1
522.171
519.248
490.808
455.103
440.188
470.778
676.969
1080.87
1023.9
976.975
852.751
686.008
558.543
470.042
472.65
459.36
457.128
450.964
451.451
453.262
443.336
417.37
382
350.233
330.336
358.174
999.748
935.405
830.366
647.952
527.185
468.492
427.22
415.898
396.123
385.893
380.403
379.977
372.229
351.504
334.118
309.314
283.771
261.317
258.755
913.476
840.067
678.533
489.54
413.748
381.537
386.928
358.462
330.851
315.339
309.186
306.017
296.449
278.244
263.673
244.47
225.785
210.585
197.165
993.667
975.441
952.377
925.126
921.115
952.709
1003.02
1037.16
1035.11
997.571
969.088
969.2
969.999
961.459
948.887
938.321
930.152
922.589
914.963
906.713
897.247
884.646
854.733
895.444
871.434
825.124
780.861
748.877
731.479
729.511
742.383
763.183
789.836
821.236
838.196
840.71
834.174
824.385
814.466
805.445
796.511
785.89
772.99
757.049
739.794
721.796
806.385
775.285
725.473
662.033
626.254
610.098
608.652
626.644
652.122
679.874
704.686
717.317
719.368
713.552
704.151
694.095
684.324
673.587
660.441
643.104
625.223
607.302
587.884
703.706
674.416
622.985
583.851
560.779
545.707
536.971
541.388
551.377
566.669
584.403
596.123
599.173
592.655
582.482
572.823
563.58
552.397
536.983
519.514
503.978
480.977
457.003
611.872
589.113
559.044
541.704
523.818
512.943
507.048
499.127
492.316
493.122
497.686
500.085
493.325
479.09
465.693
454.834
445.099
433.237
416.783
402.042
383.998
358.918
335.012
535.505
518.117
499.024
491.248
485.649
476.252
462.784
451.103
443.47
440.872
439.322
428.69
404.376
377.541
357.37
344.633
334.378
321.081
304.518
289.109
269.61
245.52
224.905
474.18
456.816
439.988
432.925
427.694
417.24
410.5
409.595
404.58
394.8
382.883
359.288
320.538
290.64
265.663
248.841
235.197
220.348
206.603
192.544
177.541
160.841
143.349
430.47
415.225
406.786
402.124
393.413
378.988
377.879
379.127
354.331
334.34
312.505
285.413
246.199
212.276
186.099
168.316
154.672
143.526
134.904
125.337
114.655
101.865
85.5826
402.06
393.575
391.837
383.383
369.031
352.393
342.351
320.886
292.97
267.824
242.361
210.95
174.157
142.146
121.173
108.081
97.9664
90.2023
82.8999
73.9197
63.0939
50.2746
35.7398
379.473
377.883
378.487
362.906
341.988
321.544
300.948
273.39
239.323
205.908
173.326
138.652
109.051
86.6475
71.095
60.0593
51.4541
43.7473
36.6563
29.2698
21.6179
14.0249
6.25483
350.524
350.881
362.427
335.979
311.088
287.509
264.397
232.313
193.488
147.589
103.136
68.5225
47.0843
34.8095
27.0718
21.9916
17.091
11.9373
7.11275
3.23749
-0.0493843
-1.1103
-1.18319
314.177
314.768
331.236
307.629
279.401
251.347
232.166
209.642
156.365
91.1806
34.306
11.7628
6.65392
3.6858
1.48961
0.153772
-0.917775
-1.20544
-1.27592
-1.36566
-1.46028
-1.47049
-1.49303
272.667
274.985
282.517
280.678
257.94
209.915
174.404
152.136
113.853
47.9804
6.68413
0.898602
-0.0336301
-0.514266
-0.853285
-1.06163
-1.25299
-1.36737
-1.46012
-1.54488
-1.602
-1.60216
-1.60569
228.474
231.181
234.193
236.134
207.738
174.87
150.966
128.792
96.3762
50.0996
1.00547
-0.194579
-0.412794
-0.717949
-1.11623
-1.26236
-1.42383
-1.52477
-1.6087
-1.67427
-1.71608
-1.73152
-1.73907
182.851
184.955
186.31
186.354
168.674
143.893
121.436
99.1938
68.7112
22.4305
-0.210803
-0.89579
-0.947861
-1.19054
-1.3447
-1.48172
-1.61242
-1.703
-1.77183
-1.82209
-1.85468
-1.87152
-1.87979
138.648
137.744
137.031
131.771
117.542
99.8945
87.1755
69.2676
39.9623
2.45669
-1.99702
-1.77875
-1.6248
-1.63184
-1.65168
-1.74957
-1.83576
-1.89931
-1.94755
-1.9828
-2.00638
-2.02001
-2.02674
96.5297
91.4112
86.4511
76.5878
62.9926
49.2421
37.5936
28.6278
13.6222
-2.22935
-2.69513
-2.48054
-2.22293
-2.04261
-2.00539
-2.03541
-2.07281
-2.10544
-2.13223
-2.15265
-2.16667
-2.17492
-2.17857
52.9173
44.3438
38.5778
30.2787
17.9903
10.2718
4.291
0.724296
-2.55522
-4.88628
-3.68818
-3.06843
-2.72928
-2.43792
-2.34511
-2.31427
-2.30978
-2.31435
-2.32136
-2.32782
-2.33227
-2.33424
-2.33384
10.1662
7.94161
9.74696
4.53848
-3.586
-4.99643
-5.26083
-5.49564
-5.79289
-5.81755
-4.95586
-3.7749
-3.14449
-2.79624
-2.64789
-2.57398
-2.53831
-2.5203
-2.51051
-2.50463
-2.50014
-2.49577
-2.49102
-6.45767
-1.41168
-2.23778
-4.77738
-4.9673
-5.05757
-5.19962
-5.3728
-5.58955
-5.50421
-4.8994
-3.97962
-3.41368
-3.07727
-2.90377
-2.80857
-2.75305
-2.71876
-2.69607
-2.68008
-2.66784
-2.65772
-2.64873
0.60725
-4.44394
-4.94074
-4.84046
-4.86177
-4.91173
-5.02534
-5.17426
-5.18811
-5.01693
-4.55298
-3.96789
-3.55325
-3.27981
-3.11552
-3.01653
-2.95152
-2.90719
-2.87554
-2.85194
-2.83353
-2.81853
-2.80581
-4.75337
-4.69781
-4.71455
-4.69147
-4.70973
-4.74957
-4.80677
-4.85355
-4.82871
-4.64471
-4.31281
-3.93252
-3.64199
-3.43388
-3.29457
-3.20094
-3.13385
-3.08467
-3.0476
-3.0188
-2.99587
-2.97713
-2.96137
-4.43461
-4.48864
-4.57419
-4.55475
-4.56289
-4.60012
-4.6275
-4.62726
-4.5674
-4.41482
-4.18268
-3.93092
-3.72375
-3.56621
-3.45181
-3.36681
-3.30187
-3.2515
-3.21194
-3.18
-3.15412
-3.13278
-3.11489
-4.28648
-4.37963
-4.45315
-4.44623
-4.46713
-4.49213
-4.49794
-4.47635
-4.41163
-4.29233
-4.13026
-3.95858
-3.80858
-3.68825
-3.59406
-3.51868
-3.45796
-3.4087
-3.36825
-3.33532
-3.30794
-3.28502
-3.26563
-4.21951
-4.30752
-4.37965
-4.40202
-4.41303
-4.42618
-4.42058
-4.3924
-4.33424
-4.24319
-4.12781
-4.00707
-3.89696
-3.804
-3.72587
-3.6601
-3.60446
-3.55761
-3.51829
-3.4853
-3.45745
-3.43382
-3.41364
-4.15829
-4.23779
-4.31946
-4.37388
-4.38012
-4.39041
-4.38284
-4.35685
-4.30947
-4.24114
-4.1578
-4.07067
-3.98867
-3.91557
-3.85044
-3.79294
-3.74302
-3.69967
-3.66235
-3.63035
-3.60289
-3.57928
-3.55891
-4.11319
-4.18553
-4.26776
-4.33063
-4.35973
-4.3756
-4.37344
-4.3548
-4.31952
-4.26955
-4.20921
-4.14524
-4.08325
-4.02461
-3.97006
-3.92028
-3.87565
-3.83611
-3.80139
-3.77106
-3.74463
-3.7216
-3.70153
-4.11471
-4.18157
-4.25126
-4.31077
-4.35419
-4.38087
-4.38775
-4.37818
-4.35429
-4.31884
-4.27523
-4.22792
-4.17969
-4.13192
-4.08603
-4.04306
-4.00368
-3.96811
-3.9363
-3.90807
-3.8831
-3.86108
-3.84169
-4.16571
-4.22182
-4.28137
-4.33649
-4.38173
-4.41215
-4.42506
-4.42292
-4.40813
-4.38353
-4.35193
-4.31617
-4.27764
-4.23828
-4.19963
-4.16274
-4.1283
-4.09664
-4.06788
-4.04196
-4.01875
-3.99804
-3.97962
-4.25378
-4.29814
-4.3475
-4.39648
-4.43859
-4.4681
-4.48322
-4.48558
-4.47701
-4.45993
-4.43658
-4.40834
-4.37702
-4.34446
-4.31195
-4.2804
-4.25046
-4.22253
-4.1968
-4.1733
-4.152
-4.1328
-4.11556
-4.36613
-4.39982
-4.43888
-4.48001
-4.51696
-4.54322
-4.55794
-4.56221
-4.5573
-4.5449
-4.52657
-4.50369
-4.47807
-4.45104
-4.4237
-4.3968
-4.37092
-4.34646
-4.32364
-4.30256
-4.28325
-4.26566
-4.24975
-4.49063
-4.51434
-4.54451
-4.57911
-4.60988
-4.63184
-4.64459
-4.64893
-4.64555
-4.63567
-4.62064
-4.60199
-4.58089
-4.55833
-4.53535
-4.51247
-4.4902
-4.46893
-4.44887
-4.43015
-4.41284
-4.39693
-4.38241
-4.61899
-4.63462
-4.65888
-4.68714
-4.71163
-4.72902
-4.73902
-4.74219
-4.73915
-4.7305
-4.71811
-4.70274
-4.68527
-4.66651
-4.6472
-4.62783
-4.60869
-4.59036
-4.57288
-4.55643
-4.54107
-4.52686
-4.51379
-4.74649
-4.75693
-4.77661
-4.79902
-4.81769
-4.83059
-4.8377
-4.8394
-4.8359
-4.82862
-4.81825
-4.80553
-4.79108
-4.77552
-4.75936
-4.74301
-4.72681
-4.71108
-4.69598
-4.68167
-4.66822
-4.65568
-4.64408
-4.87059
-4.87891
-4.89453
-4.91122
-4.92491
-4.9343
-4.93855
-4.93879
-4.93537
-4.9291
-4.92051
-4.91007
-4.89821
-4.88538
-4.87196
-4.85829
-4.84466
-4.83131
-4.81842
-4.80612
-4.7945
-4.7836
-4.77347
-4.99209
-4.99816
-5.01045
-5.02205
-5.0315
-5.03793
-5.04043
-5.03982
-5.03676
-5.03159
-5.02462
-5.01615
-5.00653
-4.99606
-4.98504
-4.97375
-4.96242
-4.95125
-4.9404
-4.92999
-4.92011
-4.91079
-4.90209
-5.10995
-5.11361
-5.12206
-5.13084
-5.1373
-5.14155
-5.14303
-5.14237
-5.13991
-5.13582
-5.13031
-5.12359
-5.1159
-5.10749
-5.09859
-5.08942
-5.08017
-5.07101
-5.06206
-5.05344
-5.04521
-5.03742
-5.03013
-5.2246
-5.22671
-5.23167
-5.23821
-5.24267
-5.24549
-5.24679
-5.24644
-5.24465
-5.24157
-5.23735
-5.23216
-5.22618
-5.21959
-5.21258
-5.20533
-5.19799
-5.19068
-5.18351
-5.17658
-5.16994
-5.16361
-5.15774
-5.33735
-5.33835
-5.34112
-5.3455
-5.34876
-5.35097
-5.35204
-5.35196
-5.35078
-5.3486
-5.34553
-5.34168
-5.33721
-5.33225
-5.32696
-5.32147
-5.3159
-5.31034
-5.30482
-5.29953
-5.29441
-5.28953
-5.28498
-5.44924
-5.44958
-5.45109
-5.45374
-5.45602
-5.45771
-5.45863
-5.45875
-5.45808
-5.45667
-5.4546
-5.45196
-5.44885
-5.44538
-5.44166
-5.4378
-5.43389
-5.43002
-5.42597
-5.42223
-5.41864
-5.4152
-5.41197
-5.56093
-5.56102
-5.56173
-5.56304
-5.56431
-5.56552
-5.56624
-5.56647
-5.56622
-5.56549
-5.56432
-5.56279
-5.56095
-5.55888
-5.55666
-5.55437
-5.55211
-5.55017
-5.54773
-5.54521
-5.5429
-5.54078
-5.53884
-5.67372
-5.67363
-5.67373
-5.67398
-5.67424
-5.67438
-5.67461
-5.67478
-5.67482
-5.67467
-5.67434
-5.67384
-5.6732
-5.67246
-5.67164
-5.67077
-5.66978
-5.66851
-5.66801
-5.66743
-5.66679
-5.66616
-5.66557
801.553
803.101
813.13
806.283
717.212
715.487
710.398
695.748
578.882
570.454
556.414
530.045
444.171
431.124
409.071
380.47
316.84
300.769
280.143
258.698
207.852
196.808
183.33
169.1
129.963
121.392
107.953
95.6498
70.2603
58.7908
46.9098
36.8164
22.9052
16.8376
11.2017
5.84305
1.44526
-0.227795
-0.927391
-1.02319
-1.27048
-1.31134
-1.34151
-1.36102
-1.48917
-1.48425
-1.46827
-1.45993
-1.60484
-1.60277
-1.59852
-1.59383
-1.73928
-1.73827
-1.7366
-1.73439
-1.8813
-1.88129
-1.88051
-1.87918
-2.02826
-2.02846
-2.028
-2.0271
-2.17891
-2.17857
-2.17775
-2.17652
-2.33229
-2.331
-2.32943
-2.32762
-2.48725
-2.48477
-2.48224
-2.47964
-2.64267
-2.63897
-2.63539
-2.63189
-2.79768
-2.79279
-2.78818
-2.78379
-2.95152
-2.94558
-2.94005
-2.93484
-3.10359
-3.09684
-3.09052
-3.08462
-3.25338
-3.24605
-3.23922
-3.23281
-3.40082
-3.39312
-3.38595
-3.37923
-3.54587
-3.53802
-3.53067
-3.52379
-3.68856
-3.68072
-3.67336
-3.66643
-3.82905
-3.82139
-3.81417
-3.80736
-3.96751
-3.96015
-3.95319
-3.9466
-4.10414
-4.09717
-4.09056
-4.08429
-4.23912
-4.23262
-4.22643
-4.22055
-4.37267
-4.36668
-4.36096
-4.35552
-4.50496
-4.49953
-4.49433
-4.48936
-4.6362
-4.63134
-4.62667
-4.62221
-4.76654
-4.76225
-4.75815
-4.75421
-4.89612
-4.89239
-4.8888
-4.88535
-5.02509
-5.02197
-5.01896
-5.01605
-5.15364
-5.1511
-5.14865
-5.1463
-5.28182
-5.27987
-5.27798
-5.27617
-5.40974
-5.40836
-5.40703
-5.40576
-5.53751
-5.53667
-5.5359
-5.53515
-5.66516
-5.66491
-5.66467
-5.66443
796.325
628.743
458.96
340.022
302.201
295.876
314.809
287.732
257.518
237.838
228.566
223.784
218.024
207.995
195.404
179.357
163.928
146.948
128.633
640.247
422.045
261.972
191.982
196.179
199.969
205.431
191.458
169.355
155.65
148.63
149.635
150.361
136.846
118.594
98.995
81.9599
64.1264
47.3534
465.895
277.357
154.303
116.252
116.894
109.218
94.1959
79.3264
75.7158
77.7762
82.6763
88.6471
90.4551
73.0921
50.7443
33.2794
20.1309
12.5311
6.47145
325.648
204.24
124.706
87.4722
64.1048
39.6157
16.8315
9.27819
13.0154
20.7562
31.7579
41.9546
39.0886
23.6744
10.5557
5.60735
0.610333
0.115828
0.193949
225.679
160.723
102.906
59.4832
26.8294
7.45976
0.640297
0.345328
0.994132
3.24503
7.06446
11.912
8.34509
2.48906
0.0467459
-0.21647
-0.163934
-0.161553
-0.141598
147.793
106.908
61.7486
22.2649
2.42992
-0.455233
-0.396121
-0.263683
-0.0638432
0.188198
0.0698153
0.202434
0.025525
-0.339373
-0.422517
-0.429324
-0.41601
-0.377737
-0.360253
75.342
41.9594
16.4309
2.37375
-0.448308
-0.643481
-0.579303
-0.550616
-0.5185
-0.573044
-0.696738
-0.760345
-0.754947
-0.765111
-0.692773
-0.654783
-0.623019
-0.583196
-0.56329
21.0468
5.45489
-0.758056
-0.81682
-0.939547
-0.953964
-0.827881
-0.764886
-0.764792
-0.831987
-0.895201
-0.929136
-0.941594
-0.932977
-0.884203
-0.84347
-0.803735
-0.768287
-0.750987
0.0140232
-0.767876
-0.702903
-0.97759
-1.06724
-1.0263
-0.968566
-0.931234
-0.939096
-0.997821
-1.0606
-1.09597
-1.10405
-1.08718
-1.04646
-1.00475
-0.972409
-0.9424
-0.926028
-1.08898
-1.1156
-1.07311
-1.10582
-1.12437
-1.1135
-1.08973
-1.07617
-1.09406
-1.14588
-1.20133
-1.23259
-1.23504
-1.21724
-1.18548
-1.15342
-1.12816
-1.10589
-1.09135
-1.36662
-1.29181
-1.27087
-1.27182
-1.26253
-1.2466
-1.23287
-1.22968
-1.24708
-1.28499
-1.32433
-1.34546
-1.34756
-1.33699
-1.31658
-1.29414
-1.275
-1.26003
-1.24997
-1.45513
-1.43176
-1.42443
-1.42001
-1.40784
-1.39546
-1.38994
-1.39424
-1.40863
-1.43238
-1.45675
-1.46839
-1.46972
-1.46276
-1.44884
-1.43264
-1.41785
-1.4076
-1.39944
-1.58685
-1.57559
-1.57042
-1.56467
-1.5561
-1.54855
-1.5469
-1.55273
-1.56616
-1.58403
-1.59928
-1.60566
-1.60295
-1.59468
-1.58341
-1.57095
-1.55906
-1.55092
-1.54331
-1.73005
-1.72149
-1.71677
-1.71169
-1.70584
-1.70118
-1.7002
-1.7041
-1.713
-1.72411
-1.73356
-1.73848
-1.73632
-1.7286
-1.71944
-1.70958
-1.69996
-1.69212
-1.68655
-1.87601
-1.86974
-1.86515
-1.8605
-1.85581
-1.8521
-1.85077
-1.85251
-1.8571
-1.86305
-1.86818
-1.87059
-1.86915
-1.86405
-1.85704
-1.84917
-1.84122
-1.83453
-1.83013
-2.02398
-2.01886
-2.01431
-2.00973
-2.00536
-2.00178
-1.99976
-1.99977
-2.00156
-2.00417
-2.00635
-2.00709
-2.00566
-2.00185
-1.99641
-1.99007
-1.98348
-1.97797
-1.97432
-2.17375
-2.16852
-2.16369
-2.15888
-2.15437
-2.15053
-2.14777
-2.14637
-2.14622
-2.14665
-2.14693
-2.1465
-2.14484
-2.14177
-2.13734
-2.13216
-2.12673
-2.1221
-2.11899
-2.32417
-2.31853
-2.31306
-2.30775
-2.30284
-2.29853
-2.29505
-2.29256
-2.29098
-2.28994
-2.28901
-2.28777
-2.28587
-2.28311
-2.2794
-2.27509
-2.2706
-2.26661
-2.26391
-2.4751
-2.4685
-2.46218
-2.45623
-2.45076
-2.4459
-2.44176
-2.43843
-2.43584
-2.43378
-2.43198
-2.43016
-2.42806
-2.42551
-2.42251
-2.41894
-2.41489
-2.41138
-2.40904
-2.62608
-2.61824
-2.61095
-2.60424
-2.59815
-2.59271
-2.58797
-2.58396
-2.58063
-2.57785
-2.57543
-2.57318
-2.57091
-2.56844
-2.56568
-2.56255
-2.55912
-2.5563
-2.55434
-2.77669
-2.76754
-2.75924
-2.75173
-2.74499
-2.73899
-2.73372
-2.72916
-2.72526
-2.72194
-2.71906
-2.71649
-2.71408
-2.71167
-2.70912
-2.70636
-2.70335
-2.70107
-2.69935
-2.92654
-2.91613
-2.90687
-2.89861
-2.89125
-2.88473
-2.87899
-2.87398
-2.86963
-2.8659
-2.86268
-2.85986
-2.85735
-2.855
-2.85264
-2.85019
-2.84762
-2.84563
-2.84384
-3.0753
-3.06381
-3.0537
-3.04477
-3.03686
-3.02988
-3.02375
-3.01837
-3.01368
-3.00963
-3.00615
-3.00314
-3.00059
-2.9983
-2.99611
-2.99389
-2.99167
-2.98981
-2.98807
-3.22272
-3.21038
-3.19958
-3.1901
-3.18174
-3.17439
-3.16792
-3.16226
-3.15732
-3.15304
-3.14938
-3.14633
-3.14373
-3.14148
-3.13943
-3.13735
-3.13522
-3.13342
-3.13188
-3.36863
-3.3557
-3.3444
-3.33451
-3.32583
-3.31819
-3.31148
-3.30561
-3.3005
-3.29606
-3.2923
-3.28918
-3.2866
-3.28446
-3.28251
-3.28054
-3.27842
-3.27669
-3.27527
-3.51299
-3.49968
-3.48809
-3.47795
-3.46906
-3.46125
-3.45439
-3.44838
-3.44315
-3.43865
-3.43484
-3.43169
-3.42913
-3.42708
-3.42525
-3.42339
-3.42129
-3.41965
-3.41832
-3.65546
-3.64225
-3.63059
-3.62038
-3.61141
-3.60352
-3.59663
-3.59053
-3.58527
-3.58076
-3.57694
-3.5738
-3.57126
-3.56928
-3.56754
-3.56578
-3.56373
-3.56222
-3.56101
-3.79658
-3.7834
-3.7719
-3.76179
-3.75286
-3.74498
-3.73804
-3.73205
-3.72684
-3.72235
-3.71857
-3.71546
-3.71296
-3.711
-3.70928
-3.70761
-3.70563
-3.70434
-3.70325
-3.93617
-3.92333
-3.91203
-3.90207
-3.89333
-3.88565
-3.87888
-3.87298
-3.86785
-3.86344
-3.85972
-3.85665
-3.85418
-3.85221
-3.85048
-3.84885
-3.84701
-3.84598
-3.84501
-4.07433
-4.06201
-4.05112
-4.04152
-4.03305
-4.02559
-4.01903
-4.0133
-4.00832
-4.00403
-4.00039
-3.99737
-3.9949
-3.99291
-3.99116
-3.98956
-3.98799
-3.98717
-3.98631
-4.21118
-4.19952
-4.18919
-4.18004
-4.17195
-4.16481
-4.15853
-4.15303
-4.14824
-4.14412
-4.1406
-4.13765
-4.1352
-4.13317
-4.13139
-4.12996
-4.12858
-4.12796
-4.12721
-4.34683
-4.33596
-4.32629
-4.3177
-4.31008
-4.30333
-4.29739
-4.29219
-4.28765
-4.28373
-4.28037
-4.27753
-4.27514
-4.27314
-4.27144
-4.27014
-4.26888
-4.26841
-4.26777
-4.48142
-4.47143
-4.46252
-4.45455
-4.44749
-4.4412
-4.43566
-4.43081
-4.42657
-4.4229
-4.41973
-4.41703
-4.41475
-4.41284
-4.41125
-4.41009
-4.40899
-4.40855
-4.40803
-4.61507
-4.60601
-4.59796
-4.59066
-4.58425
-4.57845
-4.57338
-4.56893
-4.56503
-4.56164
-4.5587
-4.55618
-4.55405
-4.55227
-4.55082
-4.54979
-4.54882
-4.54844
-4.54801
-4.7479
-4.73973
-4.73237
-4.72594
-4.72015
-4.71511
-4.71059
-4.70658
-4.70306
-4.69998
-4.6973
-4.695
-4.69305
-4.69142
-4.69012
-4.6892
-4.68833
-4.68811
-4.68764
-4.87977
-4.87283
-4.86651
-4.86086
-4.85581
-4.85134
-4.84736
-4.84382
-4.8407
-4.83796
-4.83557
-4.83351
-4.83177
-4.83032
-4.82916
-4.82832
-4.82756
-4.82748
-4.82689
-5.01138
-5.00547
-5.00012
-4.99532
-4.99102
-4.98717
-4.98374
-4.98069
-4.97799
-4.97562
-4.97355
-4.97176
-4.97024
-4.96898
-4.96797
-4.9672
-4.96654
-4.96648
-4.96584
-5.1425
-5.13767
-5.1333
-5.12937
-5.12581
-5.12262
-5.11977
-5.11723
-5.11498
-5.113
-5.11128
-5.10979
-5.10852
-5.10746
-5.10659
-5.10589
-5.10533
-5.10514
-5.10462
-5.27324
-5.26951
-5.26612
-5.26307
-5.26027
-5.25775
-5.2555
-5.2535
-5.25172
-5.25017
-5.2488
-5.24763
-5.24664
-5.24581
-5.24512
-5.24448
-5.24399
-5.2437
-5.24334
-5.4037
-5.40105
-5.39865
-5.39648
-5.39444
-5.39262
-5.39099
-5.38954
-5.38827
-5.38715
-5.38617
-5.38533
-5.38462
-5.38405
-5.38361
-5.38301
-5.38259
-5.3823
-5.38208
-5.53393
-5.53235
-5.5309
-5.52954
-5.52833
-5.52723
-5.52625
-5.52538
-5.52461
-5.52393
-5.52333
-5.52281
-5.52237
-5.52202
-5.5218
-5.52139
-5.52113
-5.52096
-5.52085
-5.66404
-5.6635
-5.66297
-5.66249
-5.6621
-5.66176
-5.66145
-5.66116
-5.6609
-5.66067
-5.66045
-5.66025
-5.66007
-5.65988
-5.6596
-5.65966
-5.65966
-5.65965
-5.65965
)
;

boundaryField
{
    leftWall
    {
        type            calculated;
        value           nonuniform List<scalar> 
50
(
5822.24
4985.86
4121.1
3223.36
2283.35
1467.46
1176.62
1093.01
993.667
895.444
806.385
703.706
611.872
535.505
474.18
430.47
402.06
379.473
350.524
314.177
272.667
228.474
182.851
138.648
96.5297
52.9173
10.1662
-6.45767
0.60725
-4.75337
-4.43461
-4.28648
-4.21951
-4.15829
-4.11319
-4.11471
-4.16571
-4.25378
-4.36613
-4.49063
-4.61899
-4.74649
-4.87059
-4.99209
-5.10995
-5.2246
-5.33735
-5.44924
-5.56093
-5.67372
)
;
    }
    rightWall
    {
        type            calculated;
        value           nonuniform List<scalar> 
50
(
3286.66
2589.9
1918.28
1252.54
676.969
358.174
258.755
197.165
128.633
47.3534
6.47145
0.193949
-0.141598
-0.360253
-0.56329
-0.750987
-0.926028
-1.09135
-1.24997
-1.39944
-1.54331
-1.68655
-1.83013
-1.97432
-2.11899
-2.26391
-2.40904
-2.55434
-2.69935
-2.84384
-2.98807
-3.13188
-3.27527
-3.41832
-3.56101
-3.70325
-3.84501
-3.98631
-4.12721
-4.26777
-4.40803
-4.54801
-4.68764
-4.82689
-4.96584
-5.10462
-5.24334
-5.38208
-5.52085
-5.65965
)
;
    }
    lowerWall
    {
        type            calculated;
        value           nonuniform List<scalar> 
62
(
6220.39
6331.47
6510.8
6712.76
6895.52
7032.95
7111.4
7123.98
7067.6
6942.58
6751.26
6501.77
6211.17
5908.01
5625.05
5387.3
5205.67
5078.69
4997.71
4948.38
4919.72
4901.77
4893.59
4495.47
3697.03
2896.03
2092.89
1429.19
1136.82
1084.51
1017.52
864.15
865.698
866.913
866.597
1928.28
1628.01
1388.61
1240.94
1153.49
1080.87
999.748
913.476
2086.41
2071.64
2029.77
1922.28
2050.94
2235.15
2166.24
2237
2372.96
2372.04
2321.95
2277.58
2272.03
2367.17
2578.18
2799.13
3132.91
3380.2
3650.94
)
;
    }
    atmosphere
    {
        type            calculated;
        value           nonuniform List<scalar> 
46
(
-5.72905
-5.72905
-5.72905
-5.72904
-5.72904
-5.72907
-5.72917
-5.72929
-5.72937
-5.7294
-5.72938
-5.72932
-5.72924
-5.72916
-5.7291
-5.72906
-5.72904
-5.72904
-5.72904
-5.72904
-5.72904
-5.72904
-5.72904
-5.72904
-5.72904
-5.72904
-5.72904
-5.72904
-5.72904
-5.72904
-5.72906
-5.72908
-5.72911
-5.72913
-5.72914
-5.72915
-5.72914
-5.72913
-5.7291
-5.72908
-5.72905
-5.72904
-5.72904
-5.72904
-5.72904
-5.72904
)
;
    }
    defaultFaces
    {
        type            empty;
    }
}


// ************************************************************************* //
