/*--------------------------------*- C++ -*----------------------------------*\
| =========                 |                                                 |
| \\      /  F ield         | OpenFOAM: The Open Source CFD Toolbox           |
|  \\    /   O peration     | Version:  2312                                  |
|   \\  /    A nd           | Website:  www.openfoam.com                      |
|    \\/     M anipulation  |                                                 |
\*---------------------------------------------------------------------------*/
FoamFile
{
    version     2.0;
    format      ascii;
    arch        "LSB;label=32;scalar=64";
    class       volScalarField;
    location    "1.55";
    object      alpha.air;
}
// * * * * * * * * * * * * * * * * * * * * * * * * * * * * * * * * * * * * * //

dimensions      [0 0 0 0 0 0 0];

internalField   nonuniform List<scalar> 
2268
(
3.14925e-11
6.43044e-12
1.76247e-12
1.18408e-12
1.63693e-12
4.06233e-12
3.94064e-12
2.70253e-12
1.3715e-12
5.62858e-13
3.62091e-13
2.90253e-13
3.90724e-13
8.21209e-13
9.75423e-13
8.03619e-13
1.0241e-12
2.61568e-12
2.00544e-12
1.69563e-12
1.21246e-12
1.30342e-12
1.45916e-12
4.25577e-10
1.08789e-10
1.76114e-12
1.77628e-12
6.60417e-11
1.07015e-10
5.18678e-11
2.70449e-11
1.16514e-11
5.61836e-12
3.03887e-12
2.17484e-12
3.72168e-12
1.33873e-11
1.3222e-11
9.36209e-12
9.73707e-12
7.63352e-11
5.5861e-11
1.67363e-11
1.39658e-12
7.60205e-13
9.74477e-13
1.36695e-09
2.83237e-09
5.27274e-09
1.98823e-10
2.38216e-09
9.83565e-10
1.80453e-10
7.88176e-11
3.29845e-11
1.91555e-11
7.04979e-12
7.67023e-11
5.52223e-11
1.12154e-10
8.32767e-11
7.68254e-11
5.85085e-11
6.73804e-10
1.53772e-09
1.71027e-11
-2.14279e-16
-1.93068e-17
1.16675e-21
1.37036e-09
2.04335e-08
1.023e-07
4.75329e-08
7.53979e-09
6.57788e-10
1.53871e-10
6.83504e-11
2.88716e-11
5.40308e-12
5.40331e-12
4.95416e-09
1.8572e-09
1.51394e-09
3.56922e-10
6.00997e-10
4.25736e-10
2.42719e-10
1.62327e-10
1.41792e-07
1.24745e-06
3.85276e-07
1.94906e-08
4.52513e-05
2.04539e-08
2.04744e-08
9.82757e-08
2.36974e-07
1.71234e-09
1.52837e-17
2.09528e-24
2.96986e-24
4.63376e-06
2.01218e-07
3.19995e-08
3.06118e-08
9.94059e-09
1.33078e-08
3.16757e-09
9.16233e-10
1.63465e-10
1.62275e-10
7.41924e-08
2.97315e-06
3.28189e-07
1.94163e-08
0.0025952
0.00147677
0.000393774
9.84067e-08
0.000105458
0.000362349
0.000506462
0.000655793
0.000796726
0.00021877
4.25598e-05
1.22846e-08
4.77906e-08
1.87216e-08
4.10907e-08
3.14552e-09
1.28357e-08
2.62756e-07
4.03012e-08
2.49543e-08
1.89174e-07
4.43906e-05
5.60126e-06
0.00336667
0.00397857
0.00563091
0.00314794
0.000159745
0.000112687
0.000112177
0.0004503
0.00163898
0.000324379
7.12431e-05
-7.57658e-11
4.58366e-08
5.45151e-24
8.10703e-07
5.2544e-05
0.000110418
6.51987e-05
8.43123e-06
4.84235e-09
3.85359e-08
7.21803e-05
9.42959e-06
3.03263e-05
3.03685e-05
0.00337471
0.0199365
0.0201279
0.00673739
0.00327551
0.0148372
0.0059105
0.00157017
0.000214332
-4.04254e-12
1.51147e-08
-1.14281e-13
6.26111e-06
0.000124175
0.000213982
9.27336e-05
1.61645e-05
4.79977e-09
4.83903e-09
6.17123e-05
9.71245e-06
0.00824313
0.00154272
0.00107218
0.000828975
0.000822912
3.87415e-05
6.45527e-06
6.45527e-06
0.00145692
0.00609047
0.00687452
0.00769387
0.00768071
0.0079557
0.00616314
0.0061643
0.00607134
0.00576243
0.00533854
0.00766579
0.00223798
0.0102767
0.0469783
0.0904196
0.0536129
0.0023395
7.08136e-06
0.000861555
0.00671616
0.0224551
0.0273646
0.0333623
0.0356555
0.0301434
0.0177926
0.00953764
0.00834608
0.00827258
0.00219968
0.00219995
0.00235141
0.0506657
0.0998379
0.115257
0.0952277
0.0579551
0.00298225
0.00253351
0.00682705
0.0348618
0.0505072
0.0536091
0.0536091
0.0342913
0.013075
0.0121087
0.0126203
0.00374505
0.00607052
0.0167542
0.0192801
0.0388398
0.0579816
0.107292
0.155797
0.155815
0.0876488
0.0119269
0.0107053
0.0108155
0.0462107
0.0536113
0.033865
0.00463955
0.00136797
0.00516539
0.0177664
0.0158362
0.0238805
0.00978864
0.00978702
0.0125864
0.0123874
0.0417003
0.124205
0.146425
0.115519
0.0520153
0.0552332
0.0151612
0.0136846
0.00234092
0.00138754
0.00108108
0.000297892
0.0228526
0.0229367
0.0585211
0.0554938
0.0485272
0.0434987
0.036258
0.0454991
0.0409462
0.0279472
0.124889
0.270302
0.260024
0.0794802
0.000595654
0.000598814
0.000514191
0.000514698
0.000212413
0.0111731
0.0124089
0.0452158
0.0718233
0.0733278
0.0753411
0.0753462
0.0726173
0.0486732
0.023526
0.0710606
0.269746
0.272519
0.181078
0.00814322
0.00608727
0.005177
0.00124399
0.000125071
0.0015331
2.62111e-07
2.74412e-07
0.00502588
0.0156707
0.0121254
0.00389276
0.00495838
0.0212761
0.0228524
0.0311176
0.256115
0.272519
0.256397
0.0599426
0.0652321
0.041297
0.00244079
8.87179e-05
3.03263e-05
3.03768e-05
3.03962e-05
0.000727967
0.00122463
0.00124474
0.0720682
0.127506
0.127532
0.0332104
0.00145849
-1.16314e-13
-2.9957e-12
-5.8419e-24
3.70542e-05
0.000115912
0.000214283
6.91835e-06
1.06681e-05
6.84995e-06
6.49044e-08
9.98355e-08
8.30756e-05
3.03263e-05
0.0423051
0.0615168
0.0204322
0.00607686
0.00144249
0.0286527
0.0291547
0.0743509
0.100498
0.100481
0.0493344
0.00205833
4.16671e-24
2.51954e-05
5.22733e-05
4.41765e-05
1.34764e-07
1.34764e-07
6.76292e-07
5.25455e-06
8.60544e-08
0.000105509
0.000281871
0.24483
0.449099
0.206759
0.14354
0.231165
0.231595
0.213254
0.0490997
0.00733143
0.0384508
0.0698514
0.069945
0.0296072
0.000486716
0.00500065
1.34851e-07
1.34765e-07
1.34763e-07
0.00251592
0.00318776
0.0016026
0.000687735
0.00366421
0.334877
0.5581
0.555559
0.204961
0.170305
0.0941444
9.56731e-05
0.00424775
0.00448785
0.00473021
0.0147937
0.0698128
0.0549487
0.0117549
0.0466155
0.071878
0.0655707
0.0165419
0.0106874
0.0198508
0.0349631
0.0389862
2.84315e-05
0.0639612
0.321186
0.208123
3.02428e-05
3.002e-05
2.39894e-05
2.36565e-05
0.00913344
0.0345572
0.00656976
0.00666245
0.0199071
0.0164639
0.00520912
0.0298425
0.383924
0.486592
0.130423
0.0146876
0.0102008
0.0361775
0.0617293
2.22388e-05
2.1978e-05
0.000445723
2.93284e-05
5.6134e-05
2.71228e-05
2.36893e-05
2.36165e-05
2.318e-05
0.267626
0.162828
0.00672119
0.00679296
0.00521596
0.00520899
0.00520912
0.303497
0.752211
0.522838
0.0749769
0.00395323
0.00527188
0.00669729
2.1027e-05
2.01164e-05
2.25974e-05
2.76866e-05
0.00114906
0.011384
0.0158708
2.60282e-05
0.0472615
0.522894
0.676649
0.366772
0.006937
0.00521535
0.00520912
0.00520899
0.36294
0.773534
0.745998
0.34169
0.00289576
0.00277269
0.0063549
0.151103
0.200924
0.257899
0.328534
0.451963
0.570332
0.592533
0.36708
0.16769
0.539997
0.723241
0.723155
0.541829
0.18739
0.0414968
0.158608
0.699604
0.773262
0.746526
0.349163
0.00307015
0.00627127
0.0265154
0.624045
0.850312
0.94259
0.980036
0.999969
0.99997
0.999991
0.979138
0.740976
0.439228
0.430604
0.710364
0.706359
0.705792
0.702485
0.762576
0.773262
0.773044
0.398347
0.304969
0.317369
0.439195
0.616733
0.999254
0.999968
0.99999
0.99999
0.999978
0.999985
0.999991
0.999991
0.999976
0.672981
0.410158
0.246699
0.246001
0.353732
0.619109
0.763228
0.492528
0.490693
0.525097
0.643424
0.914693
0.999984
0.999984
0.999975
0.999992
0.999995
0.999978
0.999394
0.999
0.999277
0.999843
0.999998
1
0.999958
0.843951
0.701812
0.560504
0.418235
0.4104
0.519946
0.687511
0.9813
1
0.999999
0.999982
0.999935
0.999992
0.999992
0.999995
0.999997
0.999729
0.998622
0.998616
0.998668
0.99985
1
1
0.999984
0.999998
1
1
1
1
1
1
1
0.999969
0.999811
0.999789
0.999986
0.999986
0.999994
0.999998
0.999998
0.999939
0.999562
0.999708
0.999974
1
1
1
1
1
0.999999
0.999999
0.999999
1
1
0.999999
0.999864
0.999824
0.999879
0.999992
0.999998
1
1
0.999999
0.999999
0.999999
0.999999
0.999999
0.999999
1
0.999999
0.999999
0.999999
0.999999
0.999999
1
1
1
0.999981
1
1
1
1
1
1
0.999999
0.999999
0.999999
0.999999
0.999999
0.999999
0.999999
0.999999
0.999999
0.999999
1
1
1
1
1
1
1
1
1
1
1
1
1
0.999999
0.999998
0.999999
1
1
1
1
1
0.999999
1
1
1
1
1
1
1
1
1
1
1
1
1
1
0.999999
1
1
1
1
1
1
1
1
1
1
1
1
1
1
1
1
1
1
1
0.999999
1
1
1
1
1
1
1
1
1
1
1
1
1
1
1
1
1
1
1
1
1
1
0.999998
1
1
1
1
1
1
1
1
1
1
1
1
1
1
1
1
1
1
1
1
1
1
0.999998
0.999999
1
1
1
1
1
1
1
1
1
1
1
1
1
1
1
1
1
1
1
1
1
0.999999
0.999998
1
1
1
1
1
1
1
1
1
1
1
1
1
1
1
1
1
1
1
1
1
0.999999
0.999998
1
1
1
1
1
1
1
1
1
1
1
1
1
1
1
1
1
1
1
1
1
0.999999
0.999998
0.999999
1
1
1
1
1
1
1
1
1
1
1
1
1
1
1
1
1
1
1
1
0.999999
0.999998
0.999998
1
1
1
1
1
1
1
1
1
1
1
1
1
1
1
1
1
1
1
1
0.999998
0.999998
0.999997
1
1
1
1
1
1
1
1
1
1
1
1
1
1
1
1
1
1
1
1
0.999998
0.999992
0.999996
0.999998
1
1
1
1
1
1
1
1
1
1
1
1
1
1
1
1
1
1
1
0.999991
0.999988
0.999994
0.999998
1
1
1
1
1
1
1
1
1
1
1
1
1
1
1
1
1
1
1
0.999973
0.999991
0.999994
0.999999
1
1
1
1
1
1
1
1
1
1
1
1
1
1
1
1
1
1
1
0.999973
0.999997
0.999998
1
1
1
1
1
1
1
1
1
1
1
1
1
1
1
1
1
1
1
1
0.999973
0.999999
1
1
1
1
1
1
1
1
1
1
1
1
1
1
1
1
1
1
1
1
1
0.999975
1
1
1
1
1
1
1
1
1
1
1
1
1
1
1
1
1
1
1
1
1
1
0.999972
1
1
1
1
1
1
1
1
1
1
1
1
1
1
1
1
1
1
1
1
1
1
0.999969
0.999999
1
1
1
1
1
1
1
1
1
1
1
1
1
1
1
1
1
1
1
1
1
0.999969
1
1
1
1
0.999999
0.999999
1
1
1
1
1
1
1
1
1
1
1
1
1
1
1
1
0.99997
0.999971
1
1
0.999998
0.999998
0.999999
1
1
1
1
1
1
1
1
1
1
1
1
1
1
1
1
0.999993
0.999953
0.999963
0.999992
0.999998
1
1
1
1
1
1
1
1
1
1
1
1
1
1
1
1
1
1
1
0.999958
0.999956
0.999964
0.999998
1
1
1
1
1
1
1
1
1
1
1
1
1
1
1
1
1
1
1
0.999997
0.999981
0.99999
0.999999
1
1
1
1
1
1
1
1
1
1
1
1
1
1
1
1
1
1
1
1
1
1
1
1
1
1
1
1
1
1
1
1
1
1
1
1
1
1
1
1
1
1
1
1
1
1
1
1
1
1
1
1
1
1
1
1
1
1
1
1
1
1
1
1
1
1
1
1
1
1
1
1
1
1
1
1
1
1
1
1
1
1
1
1
1
1
1
1
1
1
1
1
1
1
1
1
1
1
1
1
1
1
1
1
1
1
1
1
1
1
0.00271788
0.00345447
0.00345447
0.00345447
0.00020557
0.000320543
0.000484323
0.00066199
0.000734171
0.000858725
0.000473453
0.000120981
0.0443642
0.0493169
0.0374246
0.0105981
0.0679352
0.0679418
0.0679419
0.0594468
0.0100694
0.0614289
0.0679418
0.032995
0.00730395
0.0073065
0.00741619
0.00734532
0.056616
0.084767
0.112621
0.149753
0.745573
0.810197
0.853968
0.902354
0.99998
0.999977
0.999978
0.999979
0.999884
0.999827
0.999904
0.999995
0.999787
0.999828
0.999971
0.999999
0.999984
0.999999
0.999997
0.999997
1
0.999999
1
1
1
1
1
0.999997
1
1
1
1
1
1
1
1
1
1
1
1
1
1
1
1
1
1
1
1
1
1
1
1
1
1
1
1
1
1
1
1
1
1
1
1
1
1
1
1
1
1
1
1
1
1
1
1
1
1
1
1
1
1
1
1
1
1
1
1
1
1
1
1
1
1
1
1
1
1
1
1
1
1
1
1
1
1
1
1
1
1
1
1
1
1
1
1
1
1
1
1
1
1
1
1
1
1
1
1
1
1
1
1
1
1
1
1
0.00108985
0.00010747
3.34748e-05
8.84214e-06
2.20551e-07
5.75521e-08
5.79957e-08
5.83063e-08
5.78182e-08
5.7824e-08
0.128772
0.231644
0.236244
0.105199
0.0898665
0.133572
0.122609
0.00917857
9.94487e-05
0.000377891
8.57112e-06
8.87397e-06
6.78066e-06
5.89521e-06
6.16058e-06
2.21663e-05
5.05977e-05
5.40177e-05
5.4163e-05
0.0336666
0.162239
0.161339
0.0575519
0.041894
0.108554
0.173048
0.0340368
0.000154299
0.00010951
0.00415681
0.00504125
0.00155234
1.93226e-05
0.000189264
0.00654888
0.0123434
0.00849177
0.00121365
0.00335954
0.0399749
0.0690267
0.0485625
0.041305
0.111731
0.182518
0.0779663
0.0133247
0.00334665
0.0436745
0.0549666
0.0202247
1.3519e-05
1.40932e-05
0.0729599
0.113146
0.113143
0.0547504
0.00450486
0.00600742
0.00597516
0.00883994
0.0538159
0.14084
0.187407
0.143111
0.0746119
0.01905
0.0501415
0.0553308
0.0355993
0.000205759
0.00697601
0.0894931
0.113138
0.113146
0.0442236
0.00467263
0.00489145
0.00515739
0.0240369
0.0939468
0.163152
0.187019
0.153227
0.0821
0.00826516
0.00865812
0.0243692
0.0304624
0.02496
0.0319264
0.0269747
0.0156456
0.0155566
0.0702989
0.186827
0.12758
0.100518
0.0719129
0.0708296
0.11838
0.114056
0.0803855
0.0845338
0.00735771
0.014078
0.0381103
0.0704182
0.127966
0.178582
0.172024
0.132494
0.0773581
0.0765977
0.257808
0.512309
0.246589
0.0606672
0.0606395
0.0606433
0.060615
0.0711601
0.084452
0.282185
0.509407
0.667361
0.768145
0.860942
0.929834
0.934897
0.916538
0.730217
0.377478
0.499388
0.696711
0.508269
0.179821
0.0606403
0.0606117
0.0606092
0.0605899
0.0748474
0.99999
0.99996
0.999921
0.999909
0.999913
0.999937
0.999936
0.999899
0.99765
0.953292
0.953531
0.967884
0.952411
0.779909
0.300992
0.0606084
0.0605758
0.0605746
0.0633807
0.99999
0.999998
0.999994
0.999989
0.99999
0.99999
0.999847
0.999697
0.999694
0.999692
0.998624
0.998923
0.999352
0.998796
0.912974
0.432991
0.0721389
0.0605216
0.0612048
0.999999
0.999998
0.999995
0.999991
0.999991
0.999991
0.999134
0.998998
0.999682
0.998824
0.99833
0.998857
0.999762
0.999992
0.999003
0.963584
0.589951
0.0605357
0.0623018
0.999999
0.999993
0.99998
0.999955
0.999949
0.99911
0.998416
0.999057
0.999234
0.998797
0.999311
0.999863
0.999999
0.999999
0.999998
0.997853
0.972019
0.458466
0.0626138
0.999992
0.999951
0.999851
0.999595
0.999425
0.998702
0.998394
0.999611
0.999447
0.999818
0.999983
0.999997
0.999999
0.999999
0.999999
0.999976
0.987932
0.954067
0.399088
0.99991
0.999631
0.999619
0.99971
0.999705
0.999371
0.999139
0.999653
0.999995
0.999999
0.999999
0.999998
0.999969
0.999957
0.999999
0.999999
0.998433
0.980222
0.963852
0.999817
0.99962
0.999618
0.999619
0.999738
0.999754
0.999732
0.999805
0.999999
1
1
0.999996
0.999917
0.999907
0.999959
0.999999
0.999999
0.99662
0.986306
0.999972
0.999692
0.999618
0.999707
0.999759
0.999759
0.999759
0.999755
0.9998
0.999993
1
0.999999
0.99995
0.999907
0.999908
0.999951
0.99999
0.999991
0.999775
1
0.999927
0.999677
0.999667
0.999707
0.999759
0.999755
0.999755
0.999865
0.999979
1
1
0.999998
0.99995
0.999908
0.999908
0.999948
0.999991
0.999993
1
0.999989
0.999819
0.999758
0.999764
0.999932
0.99995
0.999976
0.999989
0.999989
0.999996
0.999999
1
1
0.999984
0.99997
0.999979
0.999994
1
1
0.999999
0.999985
0.999966
0.99997
0.999999
1
1
1
0.999999
0.999997
0.999997
1
1
1
1
1
1
1
1
1
1
1
1
1
1
0.999999
0.999998
0.999999
1
1
0.999999
1
1
1
1
1
1
1
1
1
1
1
1
1
0.999998
0.999998
0.999999
1
1
1
1
1
1
1
1
1
1
1
1
1
1
1
1
1
0.999999
1
1
1
1
1
1
1
1
1
1
1
1
1
1
1
1
1
1
1
1
1
1
1
1
1
1
1
1
0.999992
1
1
1
1
1
1
1
1
1
1
1
1
1
1
1
1
1
0.999998
0.99999
1
1
1
1
1
1
1
1
1
1
1
1
1
1
1
1
0.999999
0.999989
0.999992
1
1
1
1
1
1
1
1
1
1
1
1
1
1
1
0.999999
0.999989
0.999989
0.999999
1
1
1
1
1
1
1
1
1
1
1
1
1
1
1
0.999999
0.99999
0.999989
1
1
1
1
1
1
1
1
1
1
1
1
1
1
1
1
1
0.999999
0.999995
1
1
1
1
1
1
1
1
1
1
1
1
1
1
1
1
1
1
1
1
1
1
1
1
1
1
1
1
1
1
1
1
1
1
1
1
1
1
1
1
1
1
1
1
1
1
1
1
1
1
1
1
1
1
1
1
1
1
1
1
1
1
1
1
1
1
1
1
1
1
1
1
1
1
1
1
1
1
1
1
1
1
1
1
1
1
1
1
1
1
1
1
1
1
1
1
1
1
1
1
1
1
1
1
1
1
1
1
1
1
1
1
1
1
1
1
1
1
1
1
1
1
1
1
1
1
1
1
1
1
1
1
1
1
1
1
1
1
1
1
1
1
1
1
1
1
1
1
1
1
1
1
1
1
1
1
1
1
1
1
1
1
1
1
1
1
1
1
1
1
1
1
1
1
1
1
1
1
1
1
1
1
1
1
1
1
1
1
1
1
1
1
1
1
1
1
1
1
1
1
1
1
1
1
1
1
1
1
1
1
1
1
1
1
1
1
1
1
1
1
1
1
1
1
1
1
1
1
1
1
1
1
1
1
1
1
1
1
1
1
1
1
1
1
1
1
1
1
1
1
1
1
1
1
1
1
1
1
1
1
1
1
1
1
1
1
1
)
;

boundaryField
{
    leftWall
    {
        type            alphaContactAngle;
        thetaProperties 
6
(
(galistan air) 90 0 0 0
(oil galistan) 90 0 0 0
(water oil) 90 0 0 0
(water air) 90 0 0 0
(oil air) 90 0 0 0
(water galistan) 90 0 0 0
);
        value           nonuniform List<scalar> 
50
(
3.14925e-11
4.25577e-10
1.36695e-09
1.37036e-09
4.52513e-05
0.0025952
0.00336667
3.03263e-05
3.03263e-05
3.03263e-05
0.000281871
0.00366421
2.84315e-05
2.22388e-05
2.1027e-05
0.151103
0.624045
0.999254
0.999975
0.999992
0.999986
0.999992
1
1
1
0.999999
0.999998
0.999998
0.999999
0.999999
0.999999
0.999999
0.999998
0.999998
0.999991
0.999973
0.999973
0.999973
0.999975
0.999972
0.999969
0.999969
0.99997
0.999993
1
1
1
1
1
1
)
;
    }
    rightWall
    {
        type            alphaContactAngle;
        thetaProperties 
6
(
(galistan air) 90 0 0 0
(oil galistan) 90 0 0 0
(water oil) 90 0 0 0
(water air) 90 0 0 0
(oil air) 90 0 0 0
(water galistan) 90 0 0 0
);
        value           nonuniform List<scalar> 
50
(
0.00533854
0.00827258
0.0126203
0.00516539
0.000297892
0.000212413
0.000125071
8.87179e-05
9.94487e-05
0.000154299
0.0133247
0.0746119
0.0821
0.0845338
0.084452
0.0748474
0.0633807
0.0612048
0.0623018
0.0626138
0.399088
0.963852
0.986306
0.999775
0.999993
1
1
1
1
1
0.999992
0.99999
0.999992
0.999999
1
1
1
1
1
1
1
1
1
1
1
1
1
1
1
1
)
;
    }
    lowerWall
    {
        type            alphaContactAngle;
        thetaProperties 
6
(
(galistan air) 90 0 0 0
(oil galistan) 90 0 0 0
(water oil) 90 0 0 0
(water air) 90 0 0 0
(oil air) 90 0 0 0
(water galistan) 90 0 0 0
);
        value           nonuniform List<scalar> 
62
(
3.14925e-11
6.43044e-12
1.76247e-12
1.18408e-12
1.63693e-12
4.06233e-12
3.94064e-12
2.70253e-12
1.3715e-12
5.62858e-13
3.62091e-13
2.90253e-13
3.90724e-13
8.21209e-13
9.75423e-13
8.03619e-13
1.0241e-12
2.61568e-12
2.00544e-12
1.69563e-12
1.21246e-12
1.30342e-12
1.45916e-12
1.45916e-12
9.74477e-13
1.16675e-21
1.94906e-08
1.94163e-08
5.60126e-06
9.42959e-06
9.71245e-06
0.00271788
0.00345447
0.00345447
0.00345447
0.00824313
0.00766579
0.00219968
0.00374505
0.0177664
0.0228526
0.0111731
0.0015331
0.00824313
0.00154272
0.00107218
0.000828975
0.000822912
3.87415e-05
6.45527e-06
6.45527e-06
0.00145692
0.00609047
0.00687452
0.00769387
0.00768071
0.0079557
0.00616314
0.0061643
0.00607134
0.00576243
0.00533854
)
;
    }
    atmosphere
    {
        type            inletOutlet;
        inletValue      uniform 1;
        value           nonuniform List<scalar> 
46
(
1
1
1
1
1
1
1
1
1
1
1
1
1
1
1
1
1
1
1
1
1
1
1
1
1
1
1
1
1
1
1
1
1
1
1
1
1
1
1
1
1
1
1
1
1
1
)
;
    }
    defaultFaces
    {
        type            empty;
    }
}


// ************************************************************************* //
