/*--------------------------------*- C++ -*----------------------------------*\
| =========                 |                                                 |
| \\      /  F ield         | OpenFOAM: The Open Source CFD Toolbox           |
|  \\    /   O peration     | Version:  2312                                  |
|   \\  /    A nd           | Website:  www.openfoam.com                      |
|    \\/     M anipulation  |                                                 |
\*---------------------------------------------------------------------------*/
FoamFile
{
    version     2.0;
    format      ascii;
    arch        "LSB;label=32;scalar=64";
    class       volScalarField;
    location    "1.55";
    object      alpha.water_0;
}
// * * * * * * * * * * * * * * * * * * * * * * * * * * * * * * * * * * * * * //

dimensions      [0 0 0 0 0 0 0];

internalField   nonuniform List<scalar> 
2268
(
5.19496e-10
2.1203e-10
8.16509e-11
4.25716e-11
3.18387e-11
2.81146e-11
2.72617e-11
2.68717e-11
2.65718e-11
2.60495e-11
2.56213e-11
2.5685e-11
2.5861e-11
2.65899e-11
2.82999e-11
3.20965e-11
3.85223e-11
5.02508e-11
7.38135e-11
1.15521e-10
2.05789e-10
2.5159e-10
3.37008e-10
1.1253e-09
6.29273e-10
2.56249e-10
1.23362e-10
8.03042e-11
5.6835e-11
4.85932e-11
4.57559e-11
4.45686e-11
4.79351e-11
4.5717e-11
4.5028e-11
4.51483e-11
4.56576e-11
4.90174e-11
5.49493e-11
6.78674e-11
9.28325e-11
1.67869e-10
2.47757e-10
6.99824e-10
1.88698e-09
1.99397e-09
8.99377e-10
9.23384e-10
5.93089e-10
3.19388e-10
1.72608e-10
1.4889e-10
9.01246e-11
7.90499e-11
7.70897e-11
9.20816e-11
6.32068e-11
4.984e-11
5.77485e-11
4.64972e-11
5.57612e-11
6.21546e-11
7.93431e-11
1.20329e-10
2.02533e-10
4.06801e-10
9.8778e-10
2.47544e-09
2.62208e-09
1.89806e-10
1.89604e-10
1.89437e-10
1.89211e-10
6.62608e-11
6.42673e-11
3.56657e-11
3.345e-11
3.34235e-11
3.344e-11
3.34136e-11
3.34301e-11
2.15547e-10
4.65435e-11
5.89729e-11
6.00314e-11
8.15927e-11
6.3719e-11
9.87738e-11
2.01966e-10
6.17268e-10
2.27448e-09
2.51823e-09
0.0531915
0.012938
3.70124e-05
1.16055e-10
3.39533e-11
3.40052e-11
3.38936e-11
0.00524587
0.0316543
0.0471282
0.0489443
0.0393361
0.0229935
0.00682596
2.75667e-11
2.75522e-11
2.75667e-11
2.75522e-11
2.75966e-11
4.51734e-11
3.31265e-10
1.241e-09
1.95494e-09
0.323307
0.324441
0.2895
0.260502
0.257294
0.308167
0.435875
0.597292
0.695456
0.737925
0.741587
0.715767
0.657565
0.554996
0.389579
0.231748
0.0984126
0.0118331
5.07253e-06
1.79907e-07
1.3944e-09
2.57707e-10
1.02444e-09
0.216188
0.344022
0.644027
0.874386
0.899656
0.943002
0.988807
0.997721
0.997726
0.997729
0.997979
0.998844
0.999256
0.999315
0.999327
0.949717
0.852364
0.622248
0.204297
5.05697e-19
2.22348e-19
8.64409e-11
1.46211e-10
4.07598e-08
4.06263e-08
4.06218e-08
0.227763
0.889691
0.983252
0.993223
0.983671
0.993613
0.998351
0.998589
0.999323
0.999326
0.999326
0.999327
0.99928
0.999339
0.999815
0.956732
0.616306
0.0529694
6.14574e-14
5.66698e-14
0.0413527
0.14713
0.144825
0.0820072
0.0600676
0.0373687
0.0330559
0.0330565
0.0331943
0.042547
0.0425167
0.0432834
0.0432832
0.0401467
0.0335915
0.0284561
0.0285964
0.0223816
0.0166254
0.0128554
0.051297
0.102332
0.180721
0.213508
0.369577
0.420504
0.172457
0.010664
0.0131796
0.0210234
0.0397317
0.0186305
0.0113956
0.0137576
0.0218369
0.0218123
0.0268942
0.0185942
0.0125466
0.0125465
0.181036
0.13728
0.116378
0.174923
0.429634
0.506408
0.506083
0.35937
0.0536551
0.00787924
0.00787966
0.0115893
0.126029
0.394662
0.523635
0.514473
0.393252
0.0125465
0.012551
0.334456
0.186977
0.116496
0.0984246
0.0984471
0.133218
0.430804
0.455439
0.314459
0.0259052
0.0197553
0.160537
0.337712
0.538277
0.848526
0.894745
0.642387
0.102421
0.0328808
0.401013
0.358907
0.28071
0.352644
0.401715
0.273168
0.24017
0.375984
0.304554
0.0438991
0.0356547
0.347548
0.569671
0.866683
0.894837
0.894786
0.70441
0.319068
0.408598
0.583242
0.646488
0.67511
0.701765
0.719227
0.691054
0.444311
0.390871
0.189122
0.0203754
0.0202867
0.310554
0.87451
0.888321
0.888317
0.888331
0.888557
0.548638
0.76483
0.749979
0.674103
0.616689
0.616579
0.65265
0.787301
0.789448
0.562356
0.30936
0.0617052
0.0208057
0.185962
0.61791
0.778038
0.872601
0.873082
0.887797
0.893881
0.971856
0.961437
0.907256
0.838233
0.729236
0.730375
0.759131
0.927362
0.894807
0.466731
0.081857
0.0998609
0.17946
0.450002
0.484225
0.527066
0.683587
0.879313
4.96014e-07
4.07975e-08
4.05056e-08
0.00020768
0.0884914
0.379554
0.59137
0.694528
0.870193
0.967905
0.998554
0.998657
0.996241
0.999233
0.99935
0.999354
0.999359
0.999984
0.999988
0.997385
0.873162
0.548382
0.107169
6.65346e-07
1.109e-06
4.06217e-08
9.34886e-05
0.0141445
0.018022
0.0148525
0.0335388
0.0843541
0.187936
0.622617
0.950193
0.965341
0.959931
0.930748
0.87961
0.999949
0.999998
0.999998
0.999998
0.999997
0.999995
0.952853
5.55353e-07
1.62123e-05
2.14395e-05
1.63803e-05
1.45298e-05
2.35816e-05
6.40612e-05
0.000467368
2.13238e-05
1.99467e-05
0.0238494
0.183872
0.694
0.930801
0.764823
0.613392
0.979054
0.998222
0.995122
0.994913
0.996585
0.998747
0.999491
5.55353e-07
3.17001e-05
9.14831e-05
8.81855e-05
1.53884e-05
3.35465e-06
3.43991e-06
4.41675e-05
0.000597736
0.000371124
0.0002047
5.68058e-05
0.082637
0.697003
0.70492
0.45572
0.755594
0.766225
0.523275
0.502034
0.612168
0.767852
0.874548
1.40961e-06
9.00248e-06
2.02252e-05
1.96267e-05
1.55785e-07
2.63799e-07
9.38389e-06
9.27904e-05
0.000978884
0.00136434
0.000801085
5.96479e-05
3.31676e-05
0.321323
0.461015
0.325517
0.335823
0.200602
0.00737604
0.00156916
0.00154381
0.0343531
0.12985
7.41743e-06
7.99455e-06
5.45681e-07
1.56781e-07
1.57698e-07
2.06261e-06
1.7891e-05
5.86013e-05
6.05649e-05
0.00136396
0.000590122
3.33486e-05
3.30812e-05
0.0552412
0.0850608
0.0849293
0.125309
0.0563295
0.0142075
0.00951599
0.00229694
0.00124886
9.7107e-05
1.10598e-05
1.77815e-05
7.23781e-06
5.39239e-07
8.41515e-06
2.46461e-05
2.05278e-05
3.51683e-06
6.31074e-05
0.00170431
0.000297924
3.44504e-05
3.31968e-05
0.0230061
0.0422342
0.0398837
0.0337503
0.0430476
0.066433
0.0665659
0.0220089
0.00453678
0.000520381
3.86791e-05
4.23296e-05
2.80467e-05
1.60601e-05
3.03025e-05
3.0572e-05
2.44172e-05
3.37135e-06
0.000153275
0.0030109
0.0100457
0.0110544
0.0447677
0.0471862
0.0348151
0.00342694
0.0114328
0.0388851
0.0665317
0.0666202
0.0421398
0.00130056
5.03775e-21
4.23296e-05
4.23413e-05
2.48367e-05
1.69477e-05
2.81411e-05
2.80228e-05
7.60904e-06
3.26029e-06
0.000858819
0.0020952
0.00492928
0.0208163
0.024891
0.0186508
0.00407854
0.00129164
0.00491865
0.0145954
0.0497273
0.0312425
0.00689456
5.98838e-07
1.63197e-06
4.23413e-05
2.91958e-05
7.38816e-06
3.45677e-06
6.4594e-06
1.20497e-05
4.56811e-06
3.16646e-06
1.43843e-08
1.0782e-05
1.09921e-05
1.12028e-05
0.000978517
0.0018967
0.00123381
0.00120431
0.00363887
0.00296307
5.89578e-06
7.93518e-07
4.70237e-07
5.83053e-07
6.59594e-06
2.15932e-05
5.34631e-06
2.21113e-06
5.21292e-07
3.74604e-07
5.16455e-08
2.37649e-09
2.38285e-09
1.39427e-08
8.61821e-08
1.41287e-05
2.2777e-05
1.05734e-06
0.00289975
0.00365312
0.0032321
3.44125e-05
1.65337e-06
7.15344e-08
7.0288e-08
4.41561e-07
2.4277e-06
5.29147e-06
2.84243e-06
2.53044e-06
2.48504e-06
2.46288e-06
2.28828e-06
6.78867e-07
4.32409e-09
2.37712e-09
2.70167e-09
2.73982e-10
2.65159e-10
1.7574e-05
1.65632e-06
5.5692e-08
1.46302e-07
4.80603e-08
4.77899e-08
6.1229e-08
1.08669e-07
7.21454e-08
3.85647e-07
6.75251e-07
4.78129e-07
1.93032e-06
2.23832e-06
2.37333e-06
2.00881e-06
1.5749e-06
1.45884e-06
2.83256e-07
1.35579e-07
1.10001e-07
2.84675e-08
1.22492e-09
9.0388e-11
1.07018e-08
5.49405e-08
3.45246e-08
4.65331e-08
4.60057e-08
4.3966e-09
2.31754e-09
9.66317e-08
2.63904e-09
2.58056e-09
2.60325e-09
1.01144e-06
6.5632e-07
3.46843e-07
2.95009e-07
1.96225e-07
4.2308e-07
5.12226e-07
5.13281e-07
2.81772e-07
7.02401e-08
9.77157e-11
1.01532e-10
2.98526e-12
1.47711e-27
2.98547e-12
8.00512e-10
4.3057e-10
4.78842e-10
1.31414e-09
2.75144e-09
4.51361e-09
9.64928e-09
2.28244e-08
8.05186e-08
6.81019e-08
4.09715e-08
4.05734e-08
1.15462e-07
3.29086e-07
3.5757e-07
2.28367e-07
7.87652e-08
8.04303e-10
8.15099e-10
7.26339e-10
6.15538e-10
4.22919e-10
3.45664e-10
3.8059e-10
6.51973e-10
3.65036e-09
5.21343e-09
6.88214e-09
9.55774e-09
9.46583e-09
7.16571e-09
7.84097e-08
4.12899e-08
4.07745e-08
1.57786e-07
2.17028e-07
5.3582e-08
1.2957e-09
1.31694e-09
1.29702e-09
1.71753e-09
1.31537e-09
9.23981e-10
7.02676e-10
5.0161e-10
4.57653e-10
7.47722e-10
1.62926e-09
3.32658e-09
4.36344e-09
4.15568e-09
3.77544e-09
3.96225e-09
5.28723e-09
9.94955e-08
4.35747e-08
4.36443e-08
9.95068e-08
5.27313e-08
3.07772e-09
2.90429e-09
2.66253e-09
2.28511e-09
1.63565e-09
1.0448e-09
6.76219e-10
4.81927e-10
3.70152e-10
3.36191e-10
3.66751e-10
5.44088e-10
8.03465e-10
1.56673e-09
2.86524e-09
3.19425e-09
3.2366e-09
5.59827e-09
5.47739e-07
4.66353e-08
9.37773e-09
6.77948e-09
5.56691e-09
4.94285e-09
3.5625e-09
2.75741e-09
1.94649e-09
1.14057e-09
6.51756e-10
4.0141e-10
2.80689e-10
2.33408e-10
2.15639e-10
2.19604e-10
2.70661e-10
4.22903e-10
6.42292e-10
8.40789e-10
1.27578e-09
2.64683e-09
3.45469e-09
1.37149e-06
6.43434e-08
6.77084e-09
6.73051e-09
7.76745e-09
5.20787e-09
2.32569e-09
1.29845e-09
8.97947e-10
5.70404e-10
3.08678e-10
1.88978e-10
1.50781e-10
1.2654e-10
1.03686e-10
9.34014e-11
9.47765e-11
1.1828e-10
1.75367e-10
3.17174e-10
4.82458e-10
4.63148e-10
2.19343e-10
1.37248e-06
1.24365e-06
6.96825e-09
6.25839e-09
9.19997e-09
5.74066e-09
8.76218e-10
4.00281e-10
3.64626e-10
2.38602e-10
1.4703e-10
9.9705e-11
8.01643e-11
5.82273e-11
4.2858e-11
3.45204e-11
3.33931e-11
4.11587e-11
6.09948e-11
9.7335e-11
1.52946e-10
1.91632e-10
1.03671e-10
1.04226e-06
1.86023e-06
4.50442e-09
2.71751e-09
8.27272e-09
3.64107e-09
4.15227e-10
3.1501e-10
2.746e-10
1.89459e-10
1.24497e-10
7.73973e-11
4.73569e-11
2.96585e-11
1.87386e-11
1.25486e-11
1.01268e-11
1.0225e-11
1.35587e-11
2.13882e-11
3.19118e-11
3.76337e-11
4.59002e-11
9.75785e-07
2.04134e-06
4.56092e-07
1.85545e-13
3.07909e-09
1.29071e-09
4.37826e-10
4.45703e-10
2.78524e-10
1.82891e-10
1.16842e-10
6.84571e-11
3.78207e-11
2.08229e-11
1.13021e-11
6.24558e-12
3.64031e-12
2.39681e-12
2.37656e-12
3.49174e-12
5.8196e-12
8.85436e-12
9.5698e-12
6.02404e-07
2.03616e-06
7.79496e-07
1.70994e-13
1.74515e-10
5.49154e-10
7.42112e-10
6.66961e-10
3.22728e-10
2.09573e-10
1.29997e-10
7.04159e-11
3.71067e-11
1.89823e-11
9.42675e-12
4.55091e-12
2.14022e-12
1.00916e-12
4.75581e-13
4.88722e-13
7.79685e-13
1.19299e-12
1.90516e-12
1.97663e-07
1.51007e-06
2.45672e-06
1.85545e-13
1.46659e-10
1.00122e-09
1.57012e-09
8.54243e-10
3.83051e-10
2.39602e-10
1.4326e-10
7.6178e-11
3.78963e-11
1.86408e-11
8.89875e-12
4.08106e-12
1.77822e-12
7.47124e-13
2.10002e-13
8.80056e-14
1.09886e-13
2.21715e-13
3.57996e-13
1.3778e-07
1.53172e-06
3.05092e-06
4.64074e-07
2.34762e-11
1.68837e-09
3.15258e-09
9.55895e-10
4.49464e-10
2.77048e-10
1.53911e-10
7.69542e-11
3.74619e-11
1.78257e-11
8.22895e-12
3.63369e-12
1.51033e-12
5.7934e-13
2.02644e-13
3.59481e-14
1.55526e-14
2.27334e-14
6.6285e-14
1.37755e-07
1.24727e-06
3.05135e-06
1.84893e-06
2.93997e-11
2.30721e-09
5.2425e-09
1.08382e-09
5.11886e-10
3.12546e-10
1.58106e-10
7.50224e-11
3.52619e-11
1.61662e-11
7.1936e-12
3.05272e-12
1.22436e-12
4.5456e-13
1.53444e-13
3.11196e-14
5.73417e-15
4.67732e-15
1.05681e-14
6.31189e-07
8.47937e-07
3.05086e-06
2.28593e-06
7.90066e-08
2.30572e-09
5.34473e-09
1.26845e-09
6.08302e-10
3.33325e-10
1.56122e-10
7.023e-11
3.14031e-11
1.37908e-11
5.90959e-12
2.41152e-12
9.30111e-13
3.30576e-13
1.02774e-13
2.83595e-14
3.90648e-15
9.08316e-16
1.64932e-15
7.11688e-07
3.29556e-07
9.20931e-07
7.52941e-07
1.8024e-07
6.95277e-09
4.5529e-09
1.343e-09
7.00677e-10
3.41003e-10
1.49205e-10
6.3295e-11
2.66934e-11
1.11367e-11
4.52628e-12
1.77733e-12
6.53055e-13
2.22404e-13
6.59161e-14
1.58781e-14
3.45011e-15
3.90374e-16
2.95426e-16
7.11688e-07
5.49327e-08
1.41896e-08
6.40341e-08
3.78087e-08
5.74139e-09
1.76983e-09
1.51644e-09
7.66237e-10
3.44431e-10
1.40918e-10
5.50482e-11
2.16743e-11
8.50263e-12
3.28072e-12
1.2216e-12
4.2222e-13
1.36368e-13
3.84419e-14
8.34421e-15
2.02773e-15
2.87438e-16
5.36021e-17
7.06095e-07
6.74536e-08
1.30559e-08
8.53987e-09
6.79989e-09
4.19327e-09
2.02163e-09
1.39829e-09
7.94357e-10
3.5618e-10
1.34666e-10
4.72399e-11
1.70629e-11
6.19049e-12
2.2174e-12
7.70239e-13
2.51878e-13
7.68019e-14
2.06591e-14
4.36362e-15
8.65026e-16
1.09166e-16
2.05574e-17
6.30228e-07
7.13754e-08
1.69946e-08
3.34009e-09
3.42153e-09
2.68377e-09
2.20856e-09
1.24827e-09
7.97876e-10
3.90115e-10
1.34366e-10
4.05551e-11
1.28647e-11
4.34923e-12
1.42172e-12
4.59593e-13
1.38882e-13
3.89335e-14
9.62032e-15
1.95092e-15
4.00305e-16
4.07733e-17
4.37334e-18
6.42949e-07
7.61765e-08
2.25226e-08
3.33516e-09
3.62846e-09
5.53659e-09
2.5527e-09
1.17253e-09
7.91133e-10
4.11776e-10
1.49829e-10
3.72139e-11
9.52264e-12
2.79033e-12
8.22169e-13
2.46841e-13
7.06812e-14
1.81825e-14
4.15789e-15
7.66903e-16
1.22588e-16
1.40536e-17
2.04043e-18
1.00229e-06
6.04312e-08
4.75388e-08
2.59441e-08
2.69912e-08
1.52078e-08
2.50402e-09
1.16868e-09
8.03133e-10
4.2715e-10
1.59933e-10
3.91311e-11
7.3578e-12
1.74185e-12
4.68567e-13
1.257e-13
3.13038e-14
7.09696e-15
1.49803e-15
2.22782e-16
3.70015e-17
4.27722e-18
3.32072e-19
1.1232e-06
2.88597e-08
2.88101e-08
2.34382e-08
2.78546e-08
1.37339e-08
2.49357e-09
1.46534e-09
8.91058e-10
4.51403e-10
1.63874e-10
4.13555e-11
6.9942e-12
1.09474e-12
2.41247e-13
5.6327e-14
1.29752e-14
2.56549e-15
4.68552e-16
8.18813e-17
1.10718e-17
1.03623e-18
1.35322e-19
1.26314e-06
1.07665e-06
1.2668e-08
1.26292e-08
1.31956e-08
5.9312e-09
3.2226e-09
1.73442e-09
9.40561e-10
4.49689e-10
1.56433e-10
3.99144e-11
7.05306e-12
8.75757e-13
1.26351e-13
2.5449e-14
4.9008e-15
8.97495e-16
1.53272e-16
2.05417e-17
2.60013e-18
3.29325e-19
2.21832e-20
5.95086e-07
1.32043e-06
1.10874e-06
3.155e-07
2.05168e-09
2.0517e-09
2.23995e-09
1.69036e-09
9.48742e-10
4.0563e-10
1.34418e-10
3.42237e-11
6.40939e-12
8.34247e-13
8.38596e-14
1.13503e-14
2.00877e-15
3.16105e-16
4.70858e-17
6.40451e-18
7.07852e-19
6.76186e-20
5.7757e-21
5.24122e-08
1.06519e-06
1.11157e-06
8.45683e-07
3.87068e-08
2.05168e-09
2.13511e-09
1.42751e-09
7.08931e-10
2.91035e-10
9.47736e-11
2.4284e-11
4.76659e-12
6.91959e-13
7.10029e-14
6.06487e-15
7.76445e-16
1.06544e-16
1.42449e-17
1.49148e-18
1.46397e-19
1.26279e-20
8.76463e-22
5.23679e-08
7.59761e-08
3.93665e-07
1.87203e-07
3.46674e-08
4.41387e-09
1.66581e-09
8.72428e-10
3.98029e-10
1.55466e-10
5.08894e-11
1.30998e-11
2.64308e-12
4.15723e-13
5.02814e-14
4.44574e-15
3.42211e-16
3.50532e-17
3.84712e-18
3.7335e-19
3.00036e-20
2.00769e-21
1.26956e-22
1.28812e-08
1.04527e-08
8.84255e-09
9.37967e-09
7.30754e-09
2.37901e-09
9.11076e-10
3.9086e-10
1.6321e-10
5.95004e-11
1.82407e-11
4.72226e-12
9.86646e-13
1.68798e-13
2.39262e-14
2.74781e-15
2.3192e-16
1.52834e-17
1.22446e-18
9.69112e-20
6.27619e-21
3.34726e-22
1.57138e-23
2.81674e-09
8.97413e-09
8.83429e-09
6.07304e-09
2.02135e-09
7.84873e-10
3.43017e-10
1.47583e-10
5.42275e-11
1.67644e-11
4.48347e-12
1.05755e-12
2.15889e-13
4.10053e-14
6.86653e-15
9.98623e-16
1.20637e-16
1.07698e-17
5.87862e-19
3.43338e-20
1.59707e-21
6.70315e-23
2.81524e-24
8.82244e-10
1.84486e-09
1.85253e-09
1.08821e-09
5.03782e-10
2.25762e-10
9.41371e-11
3.33549e-11
1.00261e-11
2.64071e-12
6.24119e-13
1.36711e-13
2.87242e-14
5.86061e-15
1.1106e-15
1.97776e-16
3.16018e-17
4.20801e-18
4.31194e-19
2.88675e-20
8.14708e-22
2.43736e-23
5.46657e-25
2.00673e-10
3.09465e-10
2.72519e-10
1.56242e-10
7.88855e-11
3.02696e-11
9.52486e-12
2.66878e-12
6.7943e-13
1.58809e-13
3.52796e-14
7.57503e-15
1.62839e-15
3.46315e-16
7.63745e-17
1.54208e-17
2.82311e-18
4.75962e-19
7.02755e-20
8.54616e-21
7.71561e-22
4.23297e-23
6.19478e-25
0.107385
0.200079
0.772896
0.992803
0.956989
0.967912
0.953794
0.967766
0.999474
0.999467
0.999746
0.999889
0.923049
0.933767
0.945085
0.971736
0.248095
0.329894
0.315614
0.325178
-2.43792e-22
-1.54399e-07
-1.06362e-07
-4.30828e-08
2.21538e-21
1.23333e-12
6.11059e-12
2.39044e-18
-1.57844e-24
-5.73821e-16
1.06649e-07
1.11853e-08
1.55942e-06
1.71408e-06
9.20993e-06
4.55734e-06
9.99548e-06
1.24967e-05
1.24993e-05
1.20634e-05
1.29068e-05
1.29503e-05
8.90248e-06
2.77356e-07
1.10694e-09
3.70328e-10
1.10694e-09
5.12691e-09
5.20703e-09
2.81822e-08
2.61384e-08
1.63228e-08
4.1674e-08
3.28748e-08
7.55437e-09
7.24273e-09
8.59632e-09
7.504e-09
7.25012e-09
1.72411e-07
7.52661e-09
7.98588e-09
6.94296e-09
6.27835e-09
6.24132e-09
8.11709e-09
1.0796e-08
5.84917e-09
4.80297e-09
2.08627e-09
2.49497e-10
1.10978e-10
8.12257e-11
1.11999e-10
1.44739e-10
1.78239e-10
8.06146e-11
8.11106e-11
8.39744e-11
9.54299e-11
3.34903e-11
3.31798e-11
3.80303e-11
3.82917e-11
1.03228e-11
1.13606e-11
1.29586e-11
1.69364e-11
2.12712e-12
2.64659e-12
3.81452e-12
4.3318e-12
5.75251e-13
7.72336e-13
1.06183e-12
1.55599e-12
1.19701e-13
1.78183e-13
2.9575e-13
3.64376e-13
2.74313e-14
4.54297e-14
7.2047e-14
1.17275e-13
4.49861e-15
8.70463e-15
1.74655e-14
2.46218e-14
8.20591e-16
1.47274e-15
2.99427e-15
4.94635e-15
1.0301e-16
2.18396e-16
4.81873e-16
9.13329e-16
1.30373e-17
2.71717e-17
6.35202e-17
1.09324e-16
1.32264e-18
2.71176e-18
6.30627e-18
1.52476e-17
1.4253e-19
2.29262e-19
6.38602e-19
1.21135e-18
1.68668e-20
1.76902e-20
3.90231e-20
1.43041e-19
2.90329e-21
1.51944e-21
4.07612e-21
8.94137e-21
4.91203e-22
1.1409e-22
1.82056e-22
6.74602e-22
1.14811e-22
1.27231e-23
1.2788e-23
4.04282e-23
2.20824e-23
2.21392e-24
7.81845e-25
2.17494e-24
4.03025e-24
3.05532e-25
6.02123e-26
1.03535e-25
6.85142e-25
5.33827e-26
6.59653e-27
5.78835e-27
1.25587e-25
9.41546e-27
9.47313e-28
4.11642e-28
2.39877e-26
1.72788e-27
1.56517e-28
4.79603e-29
6.39847e-27
3.48012e-28
2.68926e-29
5.55762e-30
0.999033
0.999891
0.999969
0.99999
0.999985
0.999887
0.987523
0.966748
0.982599
0.992869
0.642532
0.146828
0.145231
0.377137
0.718167
0.698191
0.254878
0.149268
0.211263
0.999108
0.999973
0.99999
0.99999
0.999981
0.999962
0.999957
0.999945
0.999944
0.999943
0.952356
0.504737
0.217037
0.376989
0.734495
0.74016
0.389034
0.0535237
0.0866385
0.999904
0.995617
0.995693
0.998828
0.999979
0.999403
0.991936
0.987286
0.992235
0.998752
0.995296
0.848991
0.31402
0.323716
0.673302
0.740227
0.519832
0.0277408
0.0650396
0.976904
0.930891
0.92827
0.980051
0.999964
0.999246
0.895957
0.847663
0.862194
0.956774
0.99453
0.993326
0.519697
0.382926
0.704028
0.726943
0.484365
0.0117998
0.00349901
0.353202
0.333791
0.357096
0.484968
0.705763
0.751623
0.600903
0.436756
0.473611
0.761618
0.953789
0.864857
0.665464
0.737224
0.741053
0.707719
0.258081
0.00015889
1.8435e-05
-5.67803e-09
2.88205e-13
1.49616e-12
0.00160303
0.0146375
0.08478
0.110894
0.0802241
0.0659161
0.0986063
0.266797
0.340395
0.450722
0.682354
0.735592
0.422357
0.0306305
1.85576e-05
1.87776e-05
2.11087e-16
1.29343e-05
2.74859e-05
1.69541e-14
-5.51176e-13
-5.26604e-25
-7.61869e-24
3.48723e-18
1.86672e-08
0.000799341
2.08104e-08
0.0095734
0.0693679
0.18176
0.209126
0.045658
0.0143926
0.00159974
3.9272e-05
4.74215e-16
7.0931e-05
0.00011408
0.00011379
5.44381e-05
1.14651e-06
2.41653e-05
6.66502e-05
6.66177e-05
2.76264e-05
3.24149e-08
1.3653e-08
2.70827e-08
0.0464111
0.0447335
0.0166824
0.0129688
0.00228527
3.45836e-05
7.58481e-08
5.02857e-05
8.60066e-05
8.77212e-05
8.06643e-05
5.63201e-05
5.27243e-05
6.23098e-05
4.4884e-05
1.23655e-05
2.78741e-05
0.000479655
0.000318902
2.43422e-05
0.0161541
0.0182248
0.0126865
0.00224111
0.000316207
8.65187e-06
1.68898e-06
2.99611e-19
1.68498e-18
8.43252e-07
5.56059e-06
1.84544e-05
3.71705e-05
2.65015e-05
0.000158919
0.00110581
0.00114482
0.000603736
2.6837e-05
5.44567e-08
0.0163759
0.0141897
0.00555141
0.000813871
2.79593e-10
1.11177e-22
2.99507e-19
6.32989e-14
7.50813e-14
1.66461e-07
1.92738e-06
6.03005e-06
1.37256e-05
0.000888025
0.00125054
0.000978819
0.000172185
4.54766e-06
5.18903e-08
0.00287833
0.0131032
0.00668225
0.00077596
-8.58505e-19
1.15813e-18
1.85613e-21
4.09006e-11
1.57916e-11
1.53564e-11
3.24431e-06
3.82156e-06
0.000467537
0.00080896
0.000392367
4.98937e-05
6.95621e-07
4.80682e-07
5.13344e-08
-1.462e-12
0.00243711
0.00271264
0.000433681
3.09455e-06
2.73565e-05
7.46426e-05
1.21568e-06
1.54429e-11
1.02917e-05
8.94135e-05
4.2031e-05
0.000383109
8.45027e-05
7.57839e-10
7.8399e-10
2.22171e-07
5.92662e-08
3.74402e-08
-3.89965e-13
-1.97571e-21
6.56768e-21
2.32517e-05
6.98576e-05
0.000320242
0.000301878
0.00013753
8.90796e-05
0.000296358
0.000318918
0.000315997
3.38704e-09
1.73043e-07
1.13772e-09
7.66594e-10
1.12998e-08
6.6067e-08
6.79048e-08
2.70143e-09
1.25637e-13
1.76225e-10
9.29585e-12
0.000158465
0.000353188
0.000353106
0.000351479
0.000208866
0.000182534
0.000231465
8.8034e-05
2.74139e-09
4.48755e-08
1.13579e-09
7.93622e-10
1.27216e-08
6.05677e-08
7.25277e-08
4.89737e-08
1.50911e-13
5.40503e-10
9.29585e-12
2.07215e-05
0.000269577
0.000343041
0.000231753
5.73429e-05
3.75253e-05
5.13152e-05
2.45882e-05
4.32022e-09
8.37278e-09
8.8155e-10
7.98404e-10
5.11813e-09
2.54283e-08
5.23999e-08
4.57769e-08
2.09615e-09
2.20826e-10
1.27071e-11
1.10412e-10
5.76674e-06
8.55263e-05
0.000101389
5.95733e-05
3.24215e-06
6.3042e-06
6.71187e-06
3.97783e-09
4.70697e-09
8.7472e-10
9.28022e-10
9.45846e-10
4.06278e-09
1.11911e-08
1.14573e-08
4.58038e-09
1.43992e-11
1.436e-11
1.10658e-10
1.10822e-10
1.10825e-10
5.87754e-06
1.03193e-05
3.01207e-06
8.75329e-08
2.28733e-09
8.29831e-09
4.47523e-09
8.98567e-10
1.18141e-09
8.31062e-10
3.47844e-10
2.84936e-10
1.1157e-09
2.19116e-09
1.79453e-11
1.24642e-11
1.92645e-10
1.78264e-10
1.30007e-10
1.30009e-10
1.76917e-10
4.85339e-07
1.27224e-09
2.28327e-09
4.41001e-09
1.56869e-09
1.11718e-09
1.19299e-09
8.76695e-10
4.65604e-10
2.81864e-10
1.9563e-10
3.21153e-10
2.71356e-11
8.66399e-12
1.14331e-10
1.85078e-10
2.78092e-10
3.60353e-10
1.04375e-09
3.08459e-09
1.21227e-09
1.18558e-09
8.02325e-10
8.08853e-10
9.76765e-10
8.96916e-10
6.86594e-10
4.78087e-10
3.11144e-10
1.78971e-10
1.07609e-10
2.77626e-11
5.8045e-12
5.62063e-11
1.20331e-10
2.49709e-10
4.01853e-10
5.56335e-10
6.96594e-10
7.96535e-10
5.94241e-10
5.29142e-10
5.46357e-10
5.43847e-10
4.38627e-10
3.88294e-10
3.31168e-10
2.47279e-10
1.55691e-10
7.66502e-11
2.34285e-11
3.31169e-12
2.41135e-11
5.29985e-11
1.00515e-10
2.42569e-10
3.41675e-10
3.88132e-10
3.95604e-10
3.30577e-10
3.40961e-10
2.93142e-10
2.40861e-10
2.02403e-10
1.6972e-10
1.80833e-10
1.55813e-10
1.0193e-10
5.44157e-11
1.44931e-11
2.59317e-12
9.70026e-12
2.03665e-11
4.5242e-11
9.17411e-11
1.55265e-10
1.74586e-10
1.53925e-10
1.33632e-10
1.35648e-10
1.15579e-10
9.73952e-11
1.14117e-10
9.79549e-11
9.4241e-11
9.27375e-11
7.19269e-11
3.26783e-11
6.27593e-12
1.78241e-12
2.67875e-12
6.53667e-12
1.50368e-11
3.21425e-11
5.46467e-11
6.88658e-11
6.47244e-11
5.37119e-11
5.26502e-11
4.76423e-11
5.15234e-11
6.1151e-11
5.74136e-11
5.4866e-11
5.2153e-11
3.45818e-11
1.65588e-11
3.19205e-12
1.55546e-12
8.20088e-13
1.88138e-12
4.49141e-12
9.80053e-12
1.78848e-11
2.548e-11
2.82475e-11
2.87961e-11
2.94685e-11
2.73157e-11
2.66313e-11
2.99355e-11
3.0664e-11
3.06966e-11
3.1585e-11
2.21036e-11
6.27798e-12
1.66312e-12
1.42301e-12
2.12232e-13
5.10939e-13
1.2205e-12
2.79866e-12
5.42981e-12
8.55951e-12
1.08816e-11
1.229e-11
1.32613e-11
1.30449e-11
1.2398e-11
1.33699e-11
1.45171e-11
1.52401e-11
1.16789e-11
7.48199e-12
1.55227e-12
1.30732e-12
1.20333e-12
4.87708e-14
1.27041e-13
3.10506e-13
7.31962e-13
1.49714e-12
2.55682e-12
3.60995e-12
4.44028e-12
5.06217e-12
5.33052e-12
5.29108e-12
6.04523e-12
6.48479e-12
6.16672e-12
2.66769e-12
1.04827e-12
5.58562e-13
1.23017e-12
1.03823e-12
9.77401e-15
2.69892e-14
6.9809e-14
1.72363e-13
3.72223e-13
6.79798e-13
1.04095e-12
1.38078e-12
1.67394e-12
1.83016e-12
1.45895e-12
9.08339e-13
8.43795e-13
6.07206e-13
5.00953e-13
1.94981e-13
4.52293e-13
1.12375e-12
9.09961e-13
1.64058e-15
4.89275e-15
1.37202e-14
3.5255e-14
7.95536e-14
1.51463e-13
2.40986e-13
3.31594e-13
2.86344e-13
1.21195e-13
5.79953e-14
2.62044e-14
2.08626e-14
1.90134e-14
5.4256e-14
1.50207e-13
4.51878e-13
9.87595e-13
7.89514e-13
2.54816e-16
7.85533e-16
2.24196e-15
6.02953e-15
1.38089e-14
2.56361e-14
3.49278e-14
1.22402e-14
4.15875e-15
1.20497e-15
1.06105e-15
1.80967e-15
4.80558e-15
1.17701e-14
4.72148e-14
1.62371e-13
4.56477e-13
9.04607e-13
6.3008e-13
3.19624e-17
1.08565e-16
3.16723e-16
8.8454e-16
2.02036e-15
3.5591e-15
4.04389e-15
6.71961e-17
1.3048e-16
3.89687e-16
1.03651e-15
2.41809e-15
6.49863e-15
1.91615e-14
6.27448e-14
1.98084e-13
4.82415e-13
7.79984e-13
4.86079e-13
3.65506e-18
1.307e-17
4.04332e-17
1.16e-16
2.58881e-16
4.22659e-16
4.08176e-16
3.59113e-17
1.27264e-16
4.38067e-16
1.36763e-15
3.56134e-15
1.03325e-14
2.95156e-14
9.58358e-14
2.35346e-13
4.76696e-13
6.73503e-13
3.45341e-13
3.49019e-19
1.41774e-18
4.76785e-18
1.39438e-17
3.01112e-17
4.68856e-17
3.78175e-17
2.30416e-17
9.42294e-17
3.57344e-16
1.24015e-15
3.84373e-15
1.00329e-14
2.96114e-14
9.06674e-14
2.41109e-13
4.47205e-13
5.2726e-13
2.52225e-13
3.23758e-20
1.36863e-19
5.13374e-19
1.52517e-18
3.32875e-18
4.91532e-18
4.90976e-18
1.12177e-17
5.0272e-17
2.08502e-16
7.92214e-16
2.69778e-15
7.77679e-15
2.26707e-14
6.55559e-14
1.88397e-13
3.46335e-13
4.26318e-13
1.33958e-13
2.13864e-21
1.09601e-20
5.32421e-20
1.70631e-19
3.81424e-19
5.86746e-19
9.50201e-19
3.96075e-18
1.92843e-17
8.64019e-17
3.48412e-16
1.35003e-15
4.6021e-15
1.31569e-14
3.52398e-14
9.88304e-14
2.1509e-13
2.33675e-13
9.28591e-14
1.47864e-22
8.64603e-22
4.58978e-21
1.77506e-20
4.22904e-20
7.53455e-20
1.94935e-19
1.02155e-18
5.35527e-18
2.60303e-17
1.20585e-16
5.20947e-16
1.9657e-15
6.29201e-15
1.76641e-14
4.214e-14
7.67408e-14
1.27038e-13
4.77173e-14
7.91e-24
6.5457e-23
4.07697e-22
1.47312e-21
3.78061e-21
9.63346e-21
3.40379e-20
1.99344e-19
1.13441e-18
6.0838e-18
3.12008e-17
1.50255e-16
6.43995e-16
2.47667e-15
6.91032e-15
1.82953e-14
3.64e-14
4.73675e-14
3.02644e-14
4.4875e-25
4.06983e-24
3.01076e-23
1.25943e-22
3.81592e-22
9.40785e-22
4.49521e-21
3.14223e-20
1.92644e-19
1.13142e-18
6.39006e-18
3.4978e-17
1.81129e-16
7.75178e-16
2.55219e-15
6.26967e-15
1.05354e-14
2.32977e-14
1.22192e-14
2.44193e-26
2.38667e-25
1.74993e-24
7.94259e-24
2.5732e-23
8.93557e-23
4.81172e-22
3.32944e-21
2.18893e-20
1.42605e-19
9.31555e-19
5.75973e-18
3.45499e-17
2.03233e-16
6.77645e-16
1.93771e-15
4.3178e-15
5.91524e-15
5.55691e-15
1.21968e-27
1.43503e-26
1.03123e-25
5.64698e-25
2.12516e-24
8.38709e-24
4.76696e-23
4.0312e-22
2.93975e-21
2.07807e-20
1.44673e-19
9.80931e-19
7.08826e-18
5.08088e-17
1.85963e-16
5.31204e-16
8.08157e-16
1.89499e-15
2.20738e-15
1.03335e-28
9.41325e-28
7.06878e-27
3.99801e-26
1.69754e-25
7.25803e-25
4.57228e-24
3.90913e-23
3.21267e-22
2.44424e-21
1.84552e-20
1.31638e-19
1.14086e-18
1.11439e-17
4.47934e-17
1.31234e-16
2.26429e-16
5.74646e-16
9.54223e-16
1.18323e-29
9.66569e-29
6.83893e-28
3.84449e-27
1.72922e-26
7.62027e-26
4.37309e-25
3.58107e-24
3.18482e-23
2.77455e-22
2.20086e-21
1.70845e-20
1.60331e-19
2.19769e-18
9.87525e-18
3.00275e-17
5.73839e-17
1.51921e-16
1.90671e-16
)
;

boundaryField
{
    leftWall
    {
        type            zeroGradient;
    }
    rightWall
    {
        type            zeroGradient;
    }
    lowerWall
    {
        type            zeroGradient;
    }
    atmosphere
    {
        type            inletOutlet;
        inletValue      uniform 0;
        value           nonuniform List<scalar> 
46
(
0
0
0
0
0
0
0
0
0
0
0
0
0
0
0
0
0
0
0
0
0
0
0
0
0
2.68926e-29
5.55762e-30
1.18323e-29
9.66569e-29
6.83893e-28
3.84449e-27
1.72922e-26
7.62027e-26
4.37309e-25
3.58107e-24
3.18482e-23
2.77455e-22
2.20086e-21
1.70845e-20
1.60331e-19
2.19769e-18
9.87525e-18
3.00275e-17
5.73839e-17
1.51921e-16
1.90671e-16
)
;
    }
    defaultFaces
    {
        type            empty;
    }
}


// ************************************************************************* //
