/*--------------------------------*- C++ -*----------------------------------*\
| =========                 |                                                 |
| \\      /  F ield         | OpenFOAM: The Open Source CFD Toolbox           |
|  \\    /   O peration     | Version:  2312                                  |
|   \\  /    A nd           | Website:  www.openfoam.com                      |
|    \\/     M anipulation  |                                                 |
\*---------------------------------------------------------------------------*/
FoamFile
{
    version     2.0;
    format      ascii;
    arch        "LSB;label=32;scalar=64";
    class       volScalarField;
    location    "1.55";
    object      p;
}
// * * * * * * * * * * * * * * * * * * * * * * * * * * * * * * * * * * * * * //

dimensions      [1 -1 -2 0 0 0 0];

internalField   nonuniform List<scalar> 
2268
(
4682
4702.61
4742.81
4773.06
4785.44
4770.73
4734.26
4690.71
4657.59
4647.32
4663.89
4711.24
4790.67
4902.92
5048.23
5226.38
5437.92
5681.59
5949.15
6222.61
6479.02
6678.21
6818.58
3875.07
3899.04
3947.63
3980.36
3994.27
3979.04
3939.55
3892.13
3856.13
3845.03
3860.46
3907.38
3986.5
4098.6
4243.98
4422.19
4634.28
4880.12
5151.92
5431.1
5694.89
5900.85
6046.92
3064.01
3095.88
3154.23
3192.27
3210.3
3192.73
3146.69
3091.02
3048.79
3035.62
3049.91
3096.17
3174.72
3286.54
3432.1
3610.23
3823.07
4072.94
4353.18
4643.49
4921.41
5139.63
5295.22
2246.31
2291.1
2361.6
2408.83
2431.2
2412.61
2356.22
2287.64
2235.59
2225.54
2233.17
2277.5
2355.03
2466.51
2612.71
2790.57
3003.85
3259.23
3552.5
3859.74
4159.74
4396.93
4568.37
1438.69
1487.78
1570.39
1631.67
1663.4
1641.58
1568.33
1480.44
1421.86
1403.24
1418.86
1462.2
1534.28
1639.88
1784.35
1962.68
2177.57
2439.94
2748.82
3079.03
3410.44
3674
3869.16
819.63
839.93
896.442
960.884
1001.44
986.591
935.288
887.885
870.351
871.267
891.675
921.755
962.131
1016.3
1090.98
1201.69
1361.29
1609.12
1942.12
2300.49
2673.91
2971.45
3200.47
592.57
582.939
577.71
604.827
645.285
661.994
664.592
673.683
691.976
712.912
734.208
755.465
774.63
791.395
804.947
831.705
892.205
999.858
1199.4
1515.38
1948.89
2286.86
2564.5
552.552
541.158
524.778
525.179
549.655
578.896
597.653
609.32
627.837
650.223
672.998
694.793
713.712
730.626
743.156
754.678
776.836
799.755
827.46
933.076
1251.45
1616.17
1962.9
2651.96
2740.16
2551.35
2441.52
2334.87
2289.14
2322.48
2480.79
2667.59
2905.41
3185.29
3318.6
3334.75
3210.15
3005.29
2869.79
2807.01
2760.55
2766.8
2246.82
2198.64
2048.5
1908.55
1799.41
1788.16
1823.95
1917.7
2033.21
2205.95
2484.3
2611.67
2617.52
2479.53
2263.84
2119.89
2064.28
2024.95
2042
1969.53
1842.7
1764.77
1635.49
1557.52
1527.05
1567.88
1601.83
1637.79
1744.47
1946.56
2043.17
2059.61
1910.95
1689.35
1597.76
1585.91
1578.28
1580.38
1699.88
1613.06
1542.74
1456.15
1406.24
1343.28
1358.95
1389.98
1407.29
1468.01
1577.53
1676.48
1693.99
1564.75
1448.8
1442.01
1446.43
1452.59
1452.95
1399.05
1379.19
1321.87
1283.47
1253.93
1209.9
1183.02
1200.24
1232.93
1270.56
1327.95
1400.13
1422.97
1403.88
1374.54
1381.54
1385.6
1392.25
1399.18
1098.99
1123.9
1120.33
1121.5
1111.24
1090.04
1065.27
1072.97
1115.23
1137.84
1157.19
1199.71
1245.19
1284.79
1307.06
1312.61
1319.11
1324.51
1338.57
879.132
941.521
989.714
1019.04
1021.09
1007.6
994.11
1002.07
1029.35
1046.5
1055.73
1078.32
1126.71
1176.87
1227.77
1238.78
1249.42
1253.94
1271.59
772.058
865.887
918.13
952.967
961.408
951.426
942.204
947.908
962.75
977.878
989.234
1002.04
1040.35
1097.78
1154.27
1173.9
1185.88
1189.23
1203.82
488.706
479.597
467.4
469.341
482.014
500.471
514.592
524.776
537.778
556.221
577.28
596.653
616.715
634.18
642.922
651.342
672.939
697.374
722.104
736.304
788.595
963.185
1136.7
408.413
393.54
382.336
393.189
409.881
423.181
436.019
445.173
449.836
452.594
457.476
472.373
491.93
506.259
506.648
502.309
520.65
545.642
564.762
576.596
583.406
592.4
604.007
344.232
327.027
323.892
336.012
353.629
369.712
381.675
387.202
385.338
377.739
370.76
368.515
371.584
389.319
391.542
365.742
370.172
393.846
413.099
431.763
444.074
446.31
434.708
295.337
287.804
289.276
292.542
301.967
314.236
321.351
322.568
313.413
297.533
289.401
287.686
286.202
290.136
287.633
265.834
249.087
255.552
275.864
300.817
320.721
331.518
334.57
244.42
240.911
244.183
242.227
242.287
248.207
249.401
244.364
227.072
203.79
198.4
208.613
215.477
213.572
207.669
192.162
173.293
164.585
178.091
205.69
230.276
242.45
245.803
183.954
178.731
179.175
177.057
173.047
174.269
173.541
167.078
142.476
118.027
112.099
133.5
152.614
156.212
151.761
141.411
126.47
118.537
117.449
136.641
162.918
176.61
179.047
118.222
110.478
106.171
100.206
93.8909
90.3434
89.1548
89.5078
77.3561
66.6873
71.6806
82.812
103.526
113.05
112.166
104.803
92.7914
89.0271
85.8532
88.7893
105.71
114.297
114.38
50.518
37.1544
28.0856
22.1425
16.3893
12.5325
13.1167
22.3052
31.9683
42.7725
54.6556
61.5248
74.4482
83.0988
84.2095
79.8884
71.7878
68.422
64.9854
56.2659
56.1898
55.5401
50.5841
10.85
3.43322
0.591785
-0.62088
-0.884946
-0.953411
-0.925846
-0.580148
3.48779
17.97
35.5486
49.4604
56.4033
60.0881
60.0945
57.6206
56.2839
50.7146
39.6048
27.894
18.1159
14.7223
10.0843
-1.3317
-1.34371
-1.32472
-1.28955
-1.17132
-1.20162
-1.29714
-1.42564
-1.33469
8.08995
14.5807
25.2671
32.975
38.3883
41.4136
40.8338
33.6471
26.0858
11.6332
7.8202
0.639189
-1.71399
-1.94604
-1.47492
-1.47697
-1.46223
-1.4362
-1.37781
-1.37392
-1.45004
-1.58019
-1.58803
-1.75071
-1.44094
2.97648
7.54204
12.5241
18.9457
21.5938
13.8567
7.99059
-1.09942
-1.92523
-1.91029
-1.93156
-2.04026
-1.5716
-1.58214
-1.58966
-1.59169
-1.59403
-1.60862
-1.65328
-1.7217
-1.77291
-1.83009
-1.72462
-1.7967
-1.81609
-1.82773
-1.85566
-1.88395
-1.90166
-1.93236
-1.89402
-1.95511
-2.03316
-2.10116
-2.1827
-1.69611
-1.70765
-1.72803
-1.74653
-1.77106
-1.80973
-1.84795
-1.87862
-1.88478
-1.89207
-1.88571
-1.9241
-1.93285
-1.94852
-1.97445
-2.00189
-2.0248
-2.05066
-2.06517
-2.1033
-2.16188
-2.22532
-2.29677
-1.85545
-1.86479
-1.88108
-1.90025
-1.92406
-1.95515
-1.98713
-2.00627
-2.0082
-2.00541
-2.00356
-2.01879
-2.03804
-2.06197
-2.08956
-2.11754
-2.14341
-2.1699
-2.19714
-2.2333
-2.28264
-2.33851
-2.39809
-2.01166
-2.02006
-2.03294
-2.0499
-2.07051
-2.09446
-2.11683
-2.13066
-2.13369
-2.13413
-2.13754
-2.14916
-2.16695
-2.18862
-2.21322
-2.23903
-2.26497
-2.29237
-2.3224
-2.35787
-2.3997
-2.44631
-2.49461
-2.15901
-2.16705
-2.17826
-2.19367
-2.21189
-2.23114
-2.24784
-2.25895
-2.26462
-2.2691
-2.27612
-2.28796
-2.30407
-2.32331
-2.34503
-2.36829
-2.39267
-2.41879
-2.44723
-2.47908
-2.51498
-2.55409
-2.59344
-2.29815
-2.30682
-2.31843
-2.33368
-2.35067
-2.3675
-2.3819
-2.39254
-2.40012
-2.40712
-2.41583
-2.42748
-2.44205
-2.4591
-2.47822
-2.49899
-2.52126
-2.54524
-2.57118
-2.59948
-2.63043
-2.66336
-2.69582
-2.43481
-2.44494
-2.45803
-2.47422
-2.49115
-2.50693
-2.5201
-2.53032
-2.53849
-2.54631
-2.55528
-2.56621
-2.57925
-2.59431
-2.61117
-2.62964
-2.64967
-2.67127
-2.69448
-2.71941
-2.74615
-2.77408
-2.80129
-2.57549
-2.58656
-2.60083
-2.61758
-2.63421
-2.64897
-2.66096
-2.67032
-2.67808
-2.68559
-2.69395
-2.70378
-2.7153
-2.7285
-2.74331
-2.75965
-2.77746
-2.79669
-2.81728
-2.8392
-2.86241
-2.88635
-2.90961
-2.72186
-2.73262
-2.74684
-2.76309
-2.77873
-2.79217
-2.80277
-2.81091
-2.81766
-2.82421
-2.83151
-2.84005
-2.85004
-2.86152
-2.87446
-2.88881
-2.90451
-2.92148
-2.93963
-2.95886
-2.97906
-2.99975
-3.01988
-2.87185
-2.88214
-2.89476
-2.90934
-2.92344
-2.93534
-2.94441
-2.95113
-2.95656
-2.96186
-2.96787
-2.97504
-2.98353
-2.9934
-3.00461
-3.01712
-3.03087
-3.04575
-3.06165
-3.07845
-3.09603
-3.11397
-3.13144
-3.02079
-3.02936
-3.04112
-3.05472
-3.06726
-3.07765
-3.08518
-3.09041
-3.09442
-3.09835
-3.10302
-3.10881
-3.11587
-3.12424
-3.13386
-3.14469
-3.15665
-3.16962
-3.18348
-3.19811
-3.21338
-3.22894
-3.24408
-3.16869
-3.17606
-3.18648
-3.19867
-3.2097
-3.21855
-3.22461
-3.22842
-3.23103
-3.23362
-3.23697
-3.24146
-3.24719
-3.25418
-3.26236
-3.27167
-3.282
-3.29326
-3.3053
-3.318
-3.33123
-3.34471
-3.35779
-3.31475
-3.32092
-3.32996
-3.34079
-3.35032
-3.35767
-3.36243
-3.36496
-3.3663
-3.36764
-3.36979
-3.37308
-3.37761
-3.38335
-3.39024
-3.39818
-3.40708
-3.41681
-3.42724
-3.43824
-3.4497
-3.46135
-3.47265
-3.45795
-3.463
-3.47086
-3.48051
-3.48865
-3.49471
-3.49846
-3.49995
-3.50018
-3.50044
-3.50153
-3.50378
-3.50724
-3.51188
-3.51762
-3.52436
-3.53199
-3.54038
-3.5494
-3.55893
-3.56884
-3.57891
-3.58868
-3.59801
-3.60202
-3.60882
-3.61762
-3.62457
-3.62974
-3.63272
-3.6334
-3.63273
-3.63208
-3.63229
-3.63364
-3.63618
-3.63987
-3.64462
-3.65031
-3.65682
-3.66405
-3.67184
-3.68009
-3.68867
-3.69739
-3.70584
-3.73507
-3.73856
-3.74399
-3.75245
-3.75826
-3.76287
-3.76531
-3.76539
-3.76401
-3.76265
-3.76213
-3.76275
-3.76453
-3.76741
-3.77131
-3.77609
-3.78165
-3.78785
-3.79459
-3.80173
-3.80916
-3.81672
-3.82406
-3.87003
-3.8732
-3.87771
-3.88424
-3.88971
-3.89428
-3.89642
-3.8961
-3.89416
-3.89225
-3.89118
-3.89121
-3.89236
-3.89458
-3.89776
-3.90177
-3.9065
-3.91183
-3.91765
-3.92383
-3.93029
-3.93685
-3.94324
-4.00324
-4.00579
-4.00926
-4.01445
-4.01949
-4.02383
-4.02616
-4.02568
-4.02331
-4.021
-4.0195
-4.01909
-4.01976
-4.02144
-4.02403
-4.02739
-4.03142
-4.036
-4.04102
-4.04638
-4.05199
-4.0577
-4.06326
-4.13451
-4.13647
-4.1392
-4.14351
-4.14798
-4.15208
-4.15433
-4.15394
-4.15154
-4.14896
-4.14718
-4.14646
-4.14678
-4.14806
-4.15017
-4.153
-4.15643
-4.16037
-4.16471
-4.16935
-4.17421
-4.17918
-4.18403
-4.26415
-4.26565
-4.26792
-4.27168
-4.27571
-4.27937
-4.28141
-4.28099
-4.27875
-4.27622
-4.27429
-4.27339
-4.2735
-4.27449
-4.27624
-4.27863
-4.28156
-4.28494
-4.28868
-4.29269
-4.29692
-4.30123
-4.30545
-4.39253
-4.39369
-4.39564
-4.39906
-4.40278
-4.40605
-4.40775
-4.40722
-4.40518
-4.40287
-4.401
-4.4
-4.39999
-4.4008
-4.40228
-4.40432
-4.40683
-4.40973
-4.41294
-4.4164
-4.42005
-4.42379
-4.42745
-4.52012
-4.52079
-4.52249
-4.52569
-4.52919
-4.53209
-4.5334
-4.53281
-4.53105
-4.52905
-4.52743
-4.52649
-4.52637
-4.52707
-4.52836
-4.53011
-4.53225
-4.53473
-4.53747
-4.54044
-4.54357
-4.54679
-4.54995
-4.64723
-4.64687
-4.64856
-4.65158
-4.65484
-4.65746
-4.65848
-4.65794
-4.65653
-4.65495
-4.65367
-4.65295
-4.65283
-4.65338
-4.65453
-4.65604
-4.65786
-4.65995
-4.66227
-4.66478
-4.66744
-4.67019
-4.6729
-4.77428
-4.77294
-4.77408
-4.77686
-4.77982
-4.78217
-4.78308
-4.78277
-4.78182
-4.78075
-4.77989
-4.77944
-4.77944
-4.77987
-4.78089
-4.78215
-4.78367
-4.7854
-4.78733
-4.78941
-4.79163
-4.79394
-4.79623
-4.90103
-4.89986
-4.90017
-4.90205
-4.90447
-4.90647
-4.90747
-4.90756
-4.90715
-4.90663
-4.90623
-4.90608
-4.90624
-4.90668
-4.90742
-4.90844
-4.90969
-4.91108
-4.91263
-4.91431
-4.91612
-4.91801
-4.9199
-5.02757
-5.02767
-5.02739
-5.02816
-5.02965
-5.03117
-5.03221
-5.03266
-5.03277
-5.03277
-5.0328
-5.03295
-5.03324
-5.03368
-5.03426
-5.03499
-5.03592
-5.03698
-5.03816
-5.03945
-5.04085
-5.04236
-5.04387
-5.15447
-5.15511
-5.15486
-5.15499
-5.15558
-5.15663
-5.1576
-5.15832
-5.15885
-5.15929
-5.15969
-5.16008
-5.16047
-5.16088
-5.16132
-5.16181
-5.16238
-5.16309
-5.1639
-5.1648
-5.16582
-5.16694
-5.1681
-5.28174
-5.28187
-5.28153
-5.28144
-5.28195
-5.2828
-5.28375
-5.28466
-5.2855
-5.28626
-5.28692
-5.28746
-5.2879
-5.28825
-5.28854
-5.2888
-5.28906
-5.28939
-5.28981
-5.29034
-5.29097
-5.29172
-5.29254
-5.40933
-5.40902
-5.40853
-5.40855
-5.40904
-5.4098
-5.41074
-5.41176
-5.41277
-5.4137
-5.41447
-5.41505
-5.41546
-5.41571
-5.41583
-5.41587
-5.41586
-5.41584
-5.41588
-5.41602
-5.41628
-5.41667
-5.41716
-5.53725
-5.53688
-5.53661
-5.53661
-5.53696
-5.53763
-5.53855
-5.53961
-5.54066
-5.54159
-5.54233
-5.54284
-5.54311
-5.54319
-5.54311
-5.5429
-5.54263
-5.54233
-5.54205
-5.54183
-5.54172
-5.54176
-5.54194
-5.66546
-5.66528
-5.66518
-5.66521
-5.66557
-5.66626
-5.6672
-5.66824
-5.66924
-5.67006
-5.67064
-5.67094
-5.67098
-5.67079
-5.67042
-5.66992
-5.66932
-5.66873
-5.66815
-5.66765
-5.66722
-5.66693
-5.66678
993.445
927.747
813.526
769.087
587.928
581.738
597.024
610.428
419.006
413.995
423.242
439.106
332.137
330.48
332.391
335.869
242.003
238.486
236.756
236.024
173.364
168.461
165.406
163.334
107.47
101.956
98.1384
94.6348
42.5267
37.1011
33.3493
29.8626
6.07685
3.53408
2.01765
0.346177
-1.99594
-2.03276
-2.0576
-2.08119
-2.10989
-2.14747
-2.19649
-2.23377
-2.25931
-2.30676
-2.35208
-2.39201
-2.35377
-2.39173
-2.43165
-2.47336
-2.44586
-2.47851
-2.51285
-2.55048
-2.53322
-2.55924
-2.58658
-2.61877
-2.62456
-2.64579
-2.66844
-2.69561
-2.7213
-2.73881
-2.75782
-2.78061
-2.82227
-2.8365
-2.85185
-2.8701
-2.92728
-2.93907
-2.95155
-2.96593
-3.03496
-3.04489
-3.05521
-3.06666
-3.14438
-3.15282
-3.16144
-3.17072
-3.25519
-3.26241
-3.26969
-3.27738
-3.36734
-3.37352
-3.37972
-3.38619
-3.48086
-3.48617
-3.49147
-3.49699
-3.59577
-3.60035
-3.60491
-3.60965
-3.71199
-3.71596
-3.71991
-3.72401
-3.82942
-3.83287
-3.83631
-3.83988
-3.94791
-3.95093
-3.95394
-3.95706
-4.06735
-4.07
-4.07264
-4.07538
-4.18761
-4.18993
-4.19225
-4.19467
-4.30858
-4.31062
-4.31266
-4.31479
-4.43018
-4.43196
-4.43375
-4.43562
-4.55231
-4.55386
-4.55543
-4.55707
-4.67492
-4.67626
-4.67761
-4.67904
-4.79795
-4.79909
-4.80024
-4.80146
-4.92133
-4.92228
-4.92326
-4.92429
-5.04503
-5.04581
-5.04661
-5.04746
-5.169
-5.16961
-5.17024
-5.17091
-5.2932
-5.29365
-5.29412
-5.29463
-5.41759
-5.41789
-5.4182
-5.41853
-5.54216
-5.54232
-5.54251
-5.54272
-5.66676
-5.66677
-5.6668
-5.66684
731.365
773.931
814.652
840.77
849.343
847.209
845.625
853.31
868.629
887.361
909.709
938.982
972.503
1014.62
1054.27
1083.63
1109.43
1115.94
1121.56
609.342
633.23
661.437
681.212
691.156
695.384
700.85
714.046
734.926
762.311
800.376
848.177
888.921
918.66
945.011
974.214
1007.64
1023.16
1028.13
466.882
491.32
509.905
524.037
533.797
541.074
549.519
567.698
592.447
624.865
668.957
722.258
774.138
811.191
837.463
864.799
898.303
916.9
926.699
343.789
356.112
364.603
372.275
380.366
388.066
396.451
415.375
443.235
480.499
526.538
579.295
633.698
680.676
717.426
748.831
780.294
800.624
813.672
236.494
238.436
238.379
237.654
238.417
242.264
250.744
264.715
290.171
328.884
376.912
425.144
475.094
526.272
573.53
616.353
653.392
685.536
699.48
159.822
154.073
146.769
139.474
133.106
130.759
137.057
148.96
171.574
198.705
231.405
266.615
312.517
362.841
413.948
474.775
528.096
569.581
589.009
87.8653
76.4811
64.8179
54.9724
45.4426
37.1821
37.26
45.6028
71.0187
100.777
120.573
134.694
175.491
218.848
276.801
347.648
413.979
460.958
486.886
22.6892
13.5245
8.57229
5.34115
2.45251
0.483841
0.516738
1.41963
6.9678
21.9235
32.436
32.6923
61.3548
104.858
170.009
244.539
310.849
358.631
389.833
-1.83702
-2.02335
-2.07655
-2.08916
-2.03406
-1.92713
-1.81675
-1.71229
-1.84287
-1.55728
2.12555
2.88177
5.25774
21.8988
70.69
146.894
214.919
260.624
292.369
-2.09703
-2.18792
-2.2711
-2.30758
-2.27606
-2.17529
-2.05143
-1.96651
-2.03577
-2.19275
-1.5002
-0.600552
-0.779261
-0.0440219
12.0404
57.9399
119.529
167.234
197.944
-2.28201
-2.37961
-2.49539
-2.57683
-2.57079
-2.4785
-2.35286
-2.26264
-2.21347
-2.15319
-1.62041
-1.28455
-1.25839
-1.34677
-0.997925
10.7057
46.162
88.5448
118.858
-2.45147
-2.56734
-2.70656
-2.81664
-2.82576
-2.74793
-2.62993
-2.49931
-2.41007
-2.34809
-2.04637
-1.71686
-1.60771
-1.62969
-1.69948
-1.07722
9.93706
36.8466
63.6336
-2.54664
-2.67675
-2.82969
-2.94769
-3.00098
-2.9555
-2.82034
-2.66
-2.5413
-2.44587
-2.23312
-2.01205
-1.90796
-1.86314
-1.87529
-1.90988
-0.968886
13.7866
27.6851
-2.62034
-2.74645
-2.88394
-2.98717
-3.03021
-2.99524
-2.86773
-2.72022
-2.62198
-2.5227
-2.374
-2.21703
-2.12099
-2.09488
-2.05119
-1.95818
-1.74941
5.23477
9.59607
-2.67959
-2.77745
-2.87796
-2.94752
-2.97923
-2.95651
-2.87129
-2.76885
-2.68842
-2.60707
-2.49759
-2.38753
-2.30934
-2.28174
-2.29337
-2.25671
-2.26519
-1.07788
4.7089
-2.74563
-2.81796
-2.88787
-2.94048
-2.96655
-2.9527
-2.89639
-2.8245
-2.7619
-2.69269
-2.61321
-2.53908
-2.48528
-2.45831
-2.49151
-2.50641
-2.56937
-2.89178
-3.10847
-2.82006
-2.87443
-2.92428
-2.96272
-2.98005
-2.97088
-2.93609
-2.88905
-2.83956
-2.78389
-2.72725
-2.67749
-2.64339
-2.62823
-2.64802
-2.71895
-2.77157
-2.81147
-2.70907
-2.90135
-2.9402
-2.97685
-3.00375
-3.01645
-3.01175
-2.99056
-2.95902
-2.92178
-2.88037
-2.8404
-2.80689
-2.78541
-2.77985
-2.79415
-2.83585
-2.9067
-2.93499
-2.88563
-2.99023
-3.0197
-3.04688
-3.06593
-3.07512
-3.07186
-3.05791
-3.03593
-3.00927
-2.98017
-2.95252
-2.93021
-2.91702
-2.91575
-2.92793
-2.95273
-2.98842
-3.03408
-3.02218
-3.08572
-3.10848
-3.12844
-3.14271
-3.14914
-3.14758
-3.13854
-3.12332
-3.10431
-3.08379
-3.06474
-3.04998
-3.04208
-3.04274
-3.05237
-3.06887
-3.08692
-3.10644
-3.11178
-3.18603
-3.20397
-3.21909
-3.22988
-3.23529
-3.23506
-3.22928
-3.2188
-3.20538
-3.19094
-3.17774
-3.16792
-3.16325
-3.16471
-3.17209
-3.1837
-3.19577
-3.20652
-3.20889
-3.28998
-3.3046
-3.3167
-3.32542
-3.33018
-3.33077
-3.32722
-3.32013
-3.31077
-3.30067
-3.29152
-3.28495
-3.28222
-3.28393
-3.2897
-3.29821
-3.30718
-3.31502
-3.31783
-3.39677
-3.40898
-3.41906
-3.4265
-3.43089
-3.43207
-3.43013
-3.4255
-3.4191
-3.41213
-3.40586
-3.4015
-3.39998
-3.4017
-3.40631
-3.41277
-3.41941
-3.42497
-3.42746
-3.50599
-3.51636
-3.52499
-3.53151
-3.53565
-3.53731
-3.53655
-3.53373
-3.52954
-3.52485
-3.52065
-3.51784
-3.51713
-3.51879
-3.52257
-3.52764
-3.53265
-3.5367
-3.53883
-3.61738
-3.62629
-3.63378
-3.63959
-3.64353
-3.64553
-3.64565
-3.64418
-3.64162
-3.63862
-3.63593
-3.63424
-3.63409
-3.6357
-3.63889
-3.64302
-3.64693
-3.65016
-3.65202
-3.7307
-3.73842
-3.745
-3.75022
-3.75397
-3.7562
-3.75697
-3.75649
-3.75513
-3.75339
-3.75181
-3.75093
-3.75118
-3.75275
-3.75552
-3.75903
-3.76224
-3.76495
-3.76639
-3.8457
-3.85247
-3.85829
-3.86302
-3.86658
-3.86896
-3.87018
-3.87042
-3.86995
-3.86912
-3.86835
-3.86806
-3.86861
-3.87014
-3.87259
-3.87567
-3.87851
-3.88071
-3.88169
-3.96216
-3.96813
-3.97332
-3.97763
-3.98102
-3.98347
-3.98501
-3.98576
-3.98593
-3.98576
-3.98559
-3.98573
-3.98647
-3.98796
-3.99013
-3.99278
-3.99527
-3.99718
-3.99781
-4.07986
-4.08515
-4.08981
-4.09376
-4.09697
-4.09944
-4.10119
-4.1023
-4.10291
-4.10322
-4.10348
-4.10392
-4.10478
-4.10619
-4.10808
-4.11033
-4.11236
-4.11404
-4.11457
-4.19862
-4.20332
-4.20751
-4.21114
-4.21417
-4.21661
-4.21847
-4.21981
-4.22073
-4.22138
-4.22192
-4.22256
-4.22348
-4.22478
-4.2264
-4.22826
-4.22992
-4.23137
-4.23186
-4.31828
-4.32245
-4.32622
-4.32954
-4.33238
-4.33475
-4.33665
-4.33812
-4.33923
-4.34009
-4.34082
-4.34157
-4.34249
-4.34364
-4.345
-4.34654
-4.3479
-4.34919
-4.34965
-4.43869
-4.4424
-4.44578
-4.44879
-4.45143
-4.45368
-4.45555
-4.45707
-4.45828
-4.45925
-4.46007
-4.46086
-4.46172
-4.46272
-4.46384
-4.46512
-4.46626
-4.46745
-4.4679
-4.55976
-4.56304
-4.56606
-4.56876
-4.57117
-4.57327
-4.57506
-4.57655
-4.57778
-4.57878
-4.57963
-4.5804
-4.58118
-4.58202
-4.58293
-4.58401
-4.58498
-4.58611
-4.58655
-4.68138
-4.68425
-4.6869
-4.68931
-4.69149
-4.69341
-4.69507
-4.69648
-4.69767
-4.69865
-4.69948
-4.7002
-4.70089
-4.70158
-4.70233
-4.70324
-4.70408
-4.70517
-4.70559
-4.80348
-4.80595
-4.80826
-4.81038
-4.8123
-4.81402
-4.81552
-4.81682
-4.81792
-4.81885
-4.81962
-4.82029
-4.82089
-4.82147
-4.82209
-4.82288
-4.82358
-4.8246
-4.825
-4.92599
-4.92807
-4.93005
-4.93188
-4.93354
-4.93504
-4.93636
-4.93751
-4.93851
-4.93935
-4.94006
-4.94067
-4.94121
-4.94171
-4.94224
-4.94292
-4.94349
-4.94441
-4.94477
-5.04887
-5.05061
-5.05223
-5.05376
-5.05516
-5.05642
-5.05755
-5.05855
-5.05941
-5.06015
-5.06079
-5.06133
-5.06182
-5.06227
-5.06274
-5.06332
-5.06376
-5.06457
-5.06486
-5.17204
-5.17343
-5.17474
-5.17597
-5.17711
-5.17814
-5.17906
-5.17988
-5.1806
-5.18123
-5.18178
-5.18226
-5.18269
-5.1831
-5.1835
-5.184
-5.18434
-5.18502
-5.18523
-5.29547
-5.29652
-5.29753
-5.29847
-5.29934
-5.30014
-5.30086
-5.3015
-5.30207
-5.30257
-5.30302
-5.30342
-5.30378
-5.30413
-5.30448
-5.30489
-5.30514
-5.30572
-5.30584
-5.41913
-5.41986
-5.42057
-5.42123
-5.42184
-5.4224
-5.42291
-5.42337
-5.42378
-5.42415
-5.42448
-5.42478
-5.42506
-5.42533
-5.4256
-5.42593
-5.42613
-5.42659
-5.42666
-5.54301
-5.54341
-5.54381
-5.5442
-5.54456
-5.54489
-5.54519
-5.54547
-5.54571
-5.54593
-5.54613
-5.54632
-5.5465
-5.54668
-5.54686
-5.5471
-5.54726
-5.54762
-5.5477
-5.66693
-5.66708
-5.66722
-5.66735
-5.66747
-5.66757
-5.66767
-5.66775
-5.66782
-5.66789
-5.66795
-5.66801
-5.66807
-5.66815
-5.66825
-5.66841
-5.66857
-5.66888
-5.66909
)
;

boundaryField
{
    leftWall
    {
        type            calculated;
        value           nonuniform List<scalar> 
50
(
4682
3875.07
3064.01
2246.31
1438.69
819.63
592.57
552.552
488.706
408.413
344.232
295.337
244.42
183.954
118.222
50.518
10.85
-1.3317
-1.47492
-1.5716
-1.69611
-1.85545
-2.01166
-2.15901
-2.29815
-2.43481
-2.57549
-2.72186
-2.87185
-3.02079
-3.16869
-3.31475
-3.45795
-3.59801
-3.73507
-3.87003
-4.00324
-4.13451
-4.26415
-4.39253
-4.52012
-4.64723
-4.77428
-4.90103
-5.02757
-5.15447
-5.28174
-5.40933
-5.53725
-5.66546
)
;
    }
    rightWall
    {
        type            calculated;
        value           nonuniform List<scalar> 
50
(
2766.8
2042
1580.38
1452.95
1399.18
1338.57
1271.59
1203.82
1121.56
1028.13
926.699
813.672
699.48
589.009
486.886
389.833
292.369
197.944
118.858
63.6336
27.6851
9.59607
4.7089
-3.10847
-2.70907
-2.88563
-3.02218
-3.11178
-3.20889
-3.31783
-3.42746
-3.53883
-3.65202
-3.76639
-3.88169
-3.99781
-4.11457
-4.23186
-4.34965
-4.4679
-4.58655
-4.70559
-4.825
-4.94477
-5.06486
-5.18523
-5.30584
-5.42666
-5.5477
-5.66909
)
;
    }
    lowerWall
    {
        type            calculated;
        value           nonuniform List<scalar> 
62
(
5080.15
5100.76
5140.96
5171.21
5183.59
5168.88
5132.41
5088.86
5055.74
5045.47
5062.04
5109.39
5188.82
5301.07
5446.38
5624.53
5836.07
6079.74
6347.3
6620.76
6877.17
7076.36
7216.7
6818.58
6046.92
5295.22
4568.37
3869.16
3200.47
2564.5
1962.9
1751.38
1635.12
1098.13
831.352
2651.96
2246.82
1969.53
1699.88
1399.05
1098.99
879.132
772.058
2887.47
3059.55
2871.98
2785.88
2682.32
2636.27
2669.22
2830.81
3028.34
3267.09
3546.96
3679.86
3702.52
3581.4
3380.63
3247.01
3184.23
3137.68
3137.24
)
;
    }
    atmosphere
    {
        type            calculated;
        value           nonuniform List<scalar> 
46
(
-5.72966
-5.72936
-5.72937
-5.72963
-5.73019
-5.73103
-5.73207
-5.73314
-5.73409
-5.73482
-5.73525
-5.73537
-5.73521
-5.7348
-5.7342
-5.73347
-5.73266
-5.73184
-5.73105
-5.73034
-5.72977
-5.72936
-5.72913
-5.72906
-5.72904
-5.72904
-5.72904
-5.72904
-5.72904
-5.72904
-5.72904
-5.72904
-5.72904
-5.72904
-5.72904
-5.72904
-5.72904
-5.72904
-5.72904
-5.72904
-5.72904
-5.72904
-5.72904
-5.72904
-5.72904
-5.72904
)
;
    }
    defaultFaces
    {
        type            empty;
    }
}


// ************************************************************************* //
