/*--------------------------------*- C++ -*----------------------------------*\
| =========                 |                                                 |
| \\      /  F ield         | OpenFOAM: The Open Source CFD Toolbox           |
|  \\    /   O peration     | Version:  2312                                  |
|   \\  /    A nd           | Website:  www.openfoam.com                      |
|    \\/     M anipulation  |                                                 |
\*---------------------------------------------------------------------------*/
FoamFile
{
    version     2.0;
    format      ascii;
    arch        "LSB;label=32;scalar=64";
    class       surfaceScalarField;
    location    "1.55";
    object      phi;
}
// * * * * * * * * * * * * * * * * * * * * * * * * * * * * * * * * * * * * * //

dimensions      [0 3 -1 0 0 0 0];

oriented        oriented;

internalField   nonuniform List<scalar> 
4432
(
3.09082e-06
-3.09081e-06
3.60252e-06
-5.11706e-07
4.01271e-06
-4.10188e-07
4.10874e-06
-9.6024e-08
3.94929e-06
1.59443e-07
3.46504e-06
4.84252e-07
2.76401e-06
7.01037e-07
2.06979e-06
6.94213e-07
1.62182e-06
4.47971e-07
1.51143e-06
1.10388e-07
1.71036e-06
-1.98925e-07
2.14914e-06
-4.38778e-07
2.75113e-06
-6.01996e-07
3.4386e-06
-6.87464e-07
4.12104e-06
-6.82446e-07
4.69613e-06
-5.75091e-07
5.08834e-06
-3.92211e-07
5.24276e-06
-1.54415e-07
5.09683e-06
1.45926e-07
4.56964e-06
5.27196e-07
3.60839e-06
9.61247e-07
2.12536e-06
1.48303e-06
2.12536e-06
1.77207e-06
-4.86288e-06
2.54862e-06
-1.28826e-06
3.24142e-06
-1.10298e-06
3.54567e-06
-4.00268e-07
3.52982e-06
1.75289e-07
3.09578e-06
9.18298e-07
2.38429e-06
1.41253e-06
1.66632e-06
1.41219e-06
1.21943e-06
8.9486e-07
1.13246e-06
1.97359e-07
1.36875e-06
-4.35211e-07
1.84562e-06
-9.15657e-07
2.48371e-06
-1.24008e-06
3.20589e-06
-1.40965e-06
3.92251e-06
-1.39907e-06
4.52471e-06
-1.17728e-06
4.93755e-06
-8.05054e-07
5.11224e-06
-3.29106e-07
4.9822e-06
2.75968e-07
4.44086e-06
1.06853e-06
3.45021e-06
1.9519e-06
1.93231e-06
3.00093e-06
4.05767e-06
3.81608e-07
-5.24448e-06
1.2445e-06
-2.15115e-06
2.11378e-06
-1.97226e-06
2.66419e-06
-9.50686e-07
2.79047e-06
4.90179e-08
2.42799e-06
1.28077e-06
1.71362e-06
2.1269e-06
9.82659e-07
2.14315e-06
5.62688e-07
1.31483e-06
5.50761e-07
2.09286e-07
8.76329e-07
-7.60779e-07
1.43189e-06
-1.47122e-06
2.13576e-06
-1.94395e-06
2.9143e-06
-2.18819e-06
3.68262e-06
-2.16739e-06
4.3138e-06
-1.80846e-06
4.73965e-06
-1.23091e-06
4.93139e-06
-5.20847e-07
4.83705e-06
3.70307e-07
4.32679e-06
1.5788e-06
3.37581e-06
2.90288e-06
1.86173e-06
4.51501e-06
5.9194e-06
-8.55974e-07
-4.3885e-06
-9.97436e-08
-2.90738e-06
8.1195e-07
-2.88395e-06
1.66717e-06
-1.8059e-06
2.07661e-06
-3.60421e-07
1.9011e-06
1.45629e-06
1.2113e-06
2.8167e-06
4.98145e-07
2.85631e-06
1.27104e-07
1.68587e-06
2.77429e-07
5.89632e-08
6.76807e-07
-1.16016e-06
1.31877e-06
-2.11318e-06
2.08825e-06
-2.71342e-06
2.91191e-06
-3.01185e-06
3.72131e-06
-2.97679e-06
4.35482e-06
-2.44197e-06
4.74905e-06
-1.62513e-06
4.91201e-06
-6.83808e-07
4.84599e-06
4.36327e-07
4.36565e-06
2.05914e-06
3.48332e-06
3.78521e-06
1.95037e-06
6.04795e-06
7.86978e-06
-1.33244e-06
-3.05607e-06
-6.8452e-07
-3.55529e-06
5.30117e-07
-4.09859e-06
1.75186e-06
-3.02765e-06
2.43555e-06
-1.04411e-06
2.33044e-06
1.5614e-06
1.47692e-06
3.67022e-06
5.76811e-07
3.75641e-06
1.91725e-07
2.07096e-06
3.51631e-07
-1.00945e-07
8.98914e-07
-1.70744e-06
1.6714e-06
-2.88567e-06
2.52219e-06
-3.56422e-06
3.36872e-06
-3.85838e-06
4.21842e-06
-3.82649e-06
4.87179e-06
-3.09534e-06
5.2356e-06
-1.98894e-06
5.32765e-06
-7.75866e-07
5.24462e-06
5.19362e-07
4.70675e-06
2.59701e-06
3.87793e-06
4.61403e-06
2.23963e-06
7.68625e-06
1.01094e-05
1.65687e-07
-3.22171e-06
1.07608e-06
-4.46566e-06
1.93034e-06
-4.95283e-06
2.85131e-06
-3.94861e-06
3.43118e-06
-1.62398e-06
2.82127e-06
2.17132e-06
1.19843e-06
5.29306e-06
-4.5698e-07
5.41183e-06
-1.20681e-06
2.8208e-06
-1.06579e-06
-2.41959e-07
-1.87688e-07
-2.58554e-06
1.09861e-06
-4.17196e-06
2.52795e-06
-4.99355e-06
3.74834e-06
-5.07876e-06
4.69484e-06
-4.77298e-06
5.6204e-06
-4.02089e-06
6.21085e-06
-2.57938e-06
6.43877e-06
-1.00378e-06
6.65473e-06
3.03401e-07
5.87911e-06
3.37263e-06
4.99884e-06
5.4943e-06
2.99832e-06
9.68677e-06
1.31077e-05
1.12675e-05
-1.44891e-05
1.15932e-05
-4.79132e-06
8.8954e-06
-2.25499e-06
7.04631e-06
-2.09949e-06
4.92964e-06
4.92715e-07
-7.74615e-07
7.87559e-06
-7.25638e-06
1.17748e-05
-1.07797e-05
8.93514e-06
-1.11227e-05
3.16383e-06
-1.04533e-05
-9.11346e-07
-9.38057e-06
-3.65824e-06
-7.66712e-06
-5.88538e-06
-5.47793e-06
-7.18272e-06
-3.66997e-06
-6.88669e-06
-2.7892e-06
-5.65373e-06
-1.34646e-07
-6.67543e-06
4.18657e-06
-6.90058e-06
7.81813e-06
-4.63534e-06
8.94047e-06
-8.1893e-07
7.80033e-06
4.51277e-06
6.87556e-06
6.41908e-06
4.2835e-06
1.22788e-05
1.73912e-05
1.63331e-05
-3.08221e-05
2.54237e-05
-1.38819e-05
2.29243e-05
2.44528e-07
1.61255e-05
4.69925e-06
1.04119e-05
6.20637e-06
5.58871e-06
1.26988e-05
1.46642e-06
1.58971e-05
-1.01724e-06
1.14188e-05
-2.76255e-06
4.90915e-06
-4.51467e-06
8.40783e-07
-5.79486e-06
-2.37803e-06
-6.30993e-06
-5.3703e-06
-6.53335e-06
-6.95929e-06
-7.77362e-06
-5.64641e-06
-1.07531e-05
-2.67423e-06
-1.22475e-05
-5.18107e-06
-7.64125e-06
-1.15068e-05
-1.7373e-06
-1.05393e-05
3.4967e-06
-6.05292e-06
7.67137e-06
3.38102e-07
8.31569e-06
5.77475e-06
5.62936e-06
1.49652e-05
2.30206e-05
-7.57747e-06
7.57748e-06
-9.87896e-06
2.30149e-06
-1.22601e-05
2.3811e-06
-1.49948e-05
2.73473e-06
-1.68012e-05
1.80644e-06
-1.84227e-05
1.62145e-06
-1.98902e-05
1.46756e-06
-1.94851e-05
-4.05126e-07
-1.85073e-05
-9.77799e-07
-1.70163e-05
-1.49099e-06
-1.17694e-05
-5.24694e-06
-6.88743e-06
-4.88193e-06
-2.34069e-06
-4.54675e-06
1.3912e-08
-2.3546e-06
8.30534e-07
-8.16622e-07
1.62146e-06
-7.90929e-07
1.31007e-06
3.11387e-07
1.47069e-06
-1.60613e-07
1.47069e-06
4.81679e-06
2.76071e-06
4.48005e-06
2.63825e-06
8.38387e-06
-1.52271e-06
6.91431e-06
4.2043e-06
2.19906e-06
6.5217e-06
-3.39218e-06
7.21269e-06
-9.97619e-06
8.05158e-06
-1.38932e-05
3.51189e-06
-1.63335e-05
1.46252e-06
-1.57361e-05
-2.0884e-06
-1.07974e-05
-1.01856e-05
-6.92809e-06
-8.75125e-06
-3.18705e-06
-8.28779e-06
-2.01473e-06
-3.52692e-06
-2.37618e-06
-4.5517e-07
-2.76746e-06
-3.99651e-07
-2.11536e-06
-3.40705e-07
-1.9092e-06
-3.66772e-07
-4.38517e-07
1.1905e-05
-9.14431e-06
1.35852e-05
9.58147e-07
1.93869e-05
-7.3245e-06
1.52082e-05
8.38303e-06
5.97891e-06
1.5751e-05
7.04676e-07
1.24869e-05
2.98399e-06
5.77227e-06
5.20093e-06
1.29496e-06
3.54184e-06
3.12161e-06
2.60223e-08
1.42742e-06
-3.10808e-06
-7.05154e-06
-1.45567e-06
-1.04037e-05
2.39346e-06
-1.21369e-05
1.77824e-06
-2.9117e-06
-1.54608e-06
2.86915e-06
-2.87715e-06
9.3142e-07
-1.32057e-06
-1.89729e-06
-1.19243e-06
-4.9491e-07
-1.63095e-06
7.21673e-06
-1.6361e-05
1.38094e-05
-5.63446e-06
1.65057e-05
-1.00208e-05
1.38414e-05
1.10473e-05
1.08084e-05
1.8784e-05
7.01576e-06
1.62796e-05
1.07386e-05
2.04943e-06
1.46437e-05
-2.61014e-06
1.31749e-05
4.59044e-06
1.21347e-05
2.46759e-06
9.86155e-06
-4.77839e-06
1.03236e-05
-1.08657e-05
1.5341e-05
-1.71543e-05
1.71471e-05
-4.71779e-06
7.44033e-06
1.2576e-05
2.86306e-06
5.50869e-06
4.43543e-06
-3.46967e-06
6.85089e-06
-2.91037e-06
5.21994e-06
2.95077e-06
-1.93118e-05
1.21356e-05
-1.48193e-05
1.22838e-05
-1.0169e-05
1.22666e-05
1.10646e-05
1.39138e-05
1.71368e-05
1.61995e-05
1.39939e-05
1.86341e-05
-3.85178e-07
2.04956e-05
-4.47164e-06
2.12062e-05
3.87982e-06
2.07591e-05
2.91473e-06
1.92974e-05
-3.31671e-06
1.86436e-05
-1.02119e-05
1.83964e-05
-1.69072e-05
1.32025e-05
4.76089e-07
8.3523e-06
1.74262e-05
9.35352e-06
4.50747e-06
9.11913e-06
-3.23528e-06
8.09731e-06
-1.88854e-06
1.33172e-05
9.78788e-07
-2.02906e-05
8.53739e-06
-2.23779e-05
1.04655e-05
-1.20971e-05
1.36237e-05
7.90639e-06
1.70097e-05
1.37507e-05
2.18372e-05
9.16648e-06
2.34373e-05
-1.98533e-06
2.51663e-05
-6.20063e-06
3.01347e-05
-1.08858e-06
3.2429e-05
6.20442e-07
3.16503e-05
-2.53804e-06
2.8791e-05
-7.35256e-06
2.12305e-05
-9.3467e-06
1.41853e-05
7.52133e-06
1.32942e-05
1.83172e-05
1.41205e-05
3.68116e-06
1.27535e-05
-1.86835e-06
8.63193e-06
2.23307e-06
2.19492e-05
1.87111e-06
-2.21617e-05
6.79574e-06
-2.73025e-05
1.0433e-05
-1.57343e-05
1.79903e-05
3.49105e-07
2.60465e-05
5.6945e-06
3.16869e-05
3.52612e-06
3.28717e-05
-3.17022e-06
3.34046e-05
-6.73348e-06
3.78881e-05
-5.57211e-06
4.12636e-05
-2.75498e-06
4.04373e-05
-1.71178e-06
3.65039e-05
-3.41914e-06
2.67868e-05
3.70345e-07
1.77459e-05
1.65623e-05
1.72322e-05
1.88309e-05
1.67209e-05
4.19237e-06
1.36421e-05
1.2105e-06
7.66896e-06
8.20619e-06
2.96181e-05
1.40773e-05
-3.62389e-05
1.75648e-05
-3.07901e-05
2.23794e-05
-2.05488e-05
3.08275e-05
-8.09907e-06
3.86139e-05
-2.09182e-06
4.3856e-05
-1.71605e-06
4.51784e-05
-4.49255e-06
4.46996e-05
-6.25473e-06
4.56548e-05
-6.52733e-06
4.79155e-05
-5.01567e-06
4.7127e-05
-9.23301e-07
3.92715e-05
4.43636e-06
2.59167e-05
1.37251e-05
1.91724e-05
2.33067e-05
2.11349e-05
1.68685e-05
2.04612e-05
4.86603e-06
1.42645e-05
7.40715e-06
6.18612e-06
1.62846e-05
3.58042e-05
2.54216e-05
-5.62437e-05
4.55868e-05
-3.40471e-05
5.10683e-05
-5.23687e-06
4.65564e-05
9.21112e-06
3.80929e-05
1.46699e-05
3.39665e-05
1.68252e-05
3.25239e-05
1.73398e-05
3.03442e-05
1.35985e-05
2.33318e-05
1.19216e-05
1.00752e-05
1.40973e-05
-2.9558e-06
1.0653e-05
-1.11923e-05
2.86623e-06
-1.49066e-05
-3.24501e-06
-2.03179e-05
-2.35052e-07
-2.84202e-05
5.42809e-06
-3.1199e-05
-2.40233e-06
-2.20287e-05
-2.06771e-05
-9.40764e-06
-2.31603e-05
-9.14066e-07
-1.45465e-05
5.63017e-06
-6.20613e-06
1.27628e-05
-1.35791e-06
2.38053e-05
3.92273e-06
2.17933e-06
4.46465e-05
1.5713e-05
-7.19567e-05
2.79971e-05
-4.63313e-05
2.89934e-05
-6.23318e-06
2.88723e-05
9.33227e-06
3.0569e-05
1.29732e-05
3.27619e-05
1.46323e-05
4.07495e-05
9.35222e-06
4.84814e-05
5.86663e-06
4.94142e-05
1.09888e-05
4.27784e-05
2.07332e-05
2.9045e-05
2.43864e-05
9.46845e-06
2.24428e-05
-7.16223e-06
1.33857e-05
-1.54525e-05
8.05526e-06
-2.3096e-05
1.30715e-05
-2.57288e-05
2.30555e-07
-1.7129e-05
-2.92769e-05
-4.20217e-06
-3.60871e-05
1.1471e-05
-3.02197e-05
2.75077e-05
-2.22429e-05
4.087e-05
-1.47202e-05
5.34238e-05
-8.63105e-06
-1.41541e-05
6.97573e-05
5.89581e-07
-7.25463e-05
1.91229e-06
-4.7654e-05
-1.14873e-05
7.16639e-06
-1.8779e-05
1.6624e-05
-8.42768e-06
2.62188e-06
7.93304e-06
-1.72841e-06
3.01039e-05
-1.28187e-05
5.25597e-05
-1.65892e-05
6.79836e-05
-4.43508e-06
7.23338e-05
1.6383e-05
6.4241e-05
3.24792e-05
4.92737e-05
3.74102e-05
3.30315e-05
2.96279e-05
2.14359e-05
1.96508e-05
7.66415e-06
2.68433e-05
-3.74792e-06
1.16426e-05
-3.76837e-06
-2.92565e-05
2.07718e-06
-4.19327e-05
1.31138e-05
-4.12563e-05
2.80287e-05
-3.71577e-05
4.61837e-05
-3.28752e-05
6.77062e-05
-3.01536e-05
-3.21937e-05
8.57458e-05
-1.59962e-05
-5.65501e-05
-3.25925e-05
-3.10577e-05
-4.10029e-05
1.55769e-05
-3.81547e-05
1.37757e-05
-1.84358e-05
-1.7097e-05
5.37524e-06
-2.55395e-05
2.79121e-05
-3.53555e-05
5.18186e-05
-4.04957e-05
7.42466e-05
-2.68631e-05
8.35419e-05
7.08768e-06
8.32299e-05
3.27913e-05
7.59066e-05
4.47334e-05
6.25171e-05
4.30174e-05
5.27461e-05
2.94218e-05
4.69386e-05
3.26508e-05
3.35309e-05
2.50503e-05
1.69352e-05
-1.26608e-05
1.00419e-05
-3.50393e-05
1.50868e-05
-4.63012e-05
2.73703e-05
-4.94412e-05
4.23668e-05
-4.78716e-05
5.81024e-05
-4.58893e-05
-4.55756e-05
7.14844e-05
-2.0356e-05
-3.61941e-05
-3.17175e-05
-1.96962e-05
-2.10823e-05
4.94173e-06
-1.06265e-05
3.31986e-06
-5.22215e-06
-2.25014e-05
3.0167e-06
-3.37783e-05
1.56204e-05
-4.79592e-05
3.5197e-05
-6.00724e-05
6.18803e-05
-5.35463e-05
7.69792e-05
-8.01126e-06
7.95885e-05
3.0182e-05
7.96373e-05
4.46846e-05
7.69231e-05
4.57315e-05
7.06332e-05
3.57118e-05
6.80411e-05
3.5243e-05
6.45314e-05
2.856e-05
4.2416e-05
9.45463e-06
2.30514e-05
-1.56746e-05
2.38531e-05
-4.71029e-05
3.62679e-05
-6.1856e-05
5.1506e-05
-6.31096e-05
6.59733e-05
-6.03566e-05
-5.7736e-05
7.81338e-05
-1.76111e-05
-1.8583e-05
-2.60793e-05
-1.1228e-05
-1.89377e-05
-2.19975e-06
-1.17942e-05
-3.82365e-06
-1.49817e-05
-1.93139e-05
-1.38434e-05
-3.49166e-05
-7.69754e-06
-5.41052e-05
5.49101e-06
-7.3261e-05
3.0629e-05
-7.86843e-05
5.42957e-05
-3.1678e-05
6.11695e-05
2.33081e-05
6.59064e-05
3.99477e-05
7.16266e-05
4.00113e-05
7.26518e-05
3.46865e-05
7.51636e-05
3.27312e-05
7.81744e-05
2.55493e-05
6.59926e-05
2.16365e-05
5.10076e-05
-6.89402e-07
5.08126e-05
-4.69078e-05
6.31637e-05
-7.4207e-05
7.75366e-05
-7.74825e-05
9.14014e-05
-7.42214e-05
-6.98046e-05
0.00010347
-1.66871e-05
-1.89591e-06
-2.62299e-05
-1.68516e-06
-2.61377e-05
-2.29198e-06
-2.38727e-05
-6.08857e-06
-2.71031e-05
-1.60836e-05
-3.22509e-05
-2.97688e-05
-3.45187e-05
-5.18374e-05
-2.90992e-05
-7.86805e-05
-1.80122e-05
-8.97714e-05
1.37362e-05
-6.34265e-05
3.99808e-05
-2.93667e-06
4.74198e-05
3.25086e-05
5.68395e-05
3.05916e-05
6.42278e-05
2.72983e-05
7.13099e-05
2.56491e-05
7.63081e-05
2.05511e-05
7.98167e-05
1.81279e-05
8.77033e-05
-8.5759e-06
9.29398e-05
-5.21442e-05
0.000100364
-8.16313e-05
0.000109748
-8.68663e-05
0.000120129
-8.46025e-05
-8.00046e-05
0.000130329
-1.592e-05
1.40241e-05
-2.74845e-05
9.87935e-06
-3.10014e-05
1.22494e-06
-3.01646e-05
-6.92537e-06
-3.49758e-05
-1.12724e-05
-4.7845e-05
-1.68994e-05
-5.68432e-05
-4.28393e-05
-5.53786e-05
-8.01451e-05
-5.5693e-05
-8.94571e-05
-4.45764e-05
-7.45431e-05
-5.44817e-06
-4.2065e-05
2.37809e-05
3.27943e-06
4.12954e-05
1.30771e-05
5.42168e-05
1.43768e-05
6.54729e-05
1.4393e-05
7.57292e-05
1.02948e-05
9.57545e-05
-1.89739e-06
0.000117878
-3.06993e-05
0.000129705
-6.39712e-05
0.000131854
-8.37805e-05
0.000136682
-9.16937e-05
0.000143784
-9.17053e-05
-8.73388e-05
0.000151119
-1.14451e-05
2.54692e-05
-2.12033e-05
1.96376e-05
-2.58129e-05
5.8347e-06
-2.00642e-05
-1.26739e-05
-3.7733e-05
6.39659e-06
-6.67728e-05
1.21405e-05
-7.77133e-05
-3.18985e-05
-7.35399e-05
-8.43184e-05
-6.54921e-05
-9.75049e-05
-5.54522e-05
-8.4583e-05
-3.71464e-05
-6.03709e-05
-5.39669e-06
-2.84703e-05
2.46153e-05
-1.6935e-05
4.67298e-05
-7.73767e-06
6.76855e-05
-6.56275e-06
8.89277e-05
-1.09474e-05
0.000118441
-3.14109e-05
0.000135866
-4.81238e-05
0.000141833
-6.9939e-05
0.000145512
-8.74589e-05
0.000149424
-9.56055e-05
0.000155292
-9.7574e-05
-9.38145e-05
0.000161768
-1.56068e-05
4.10761e-05
-1.78287e-05
2.18597e-05
-1.10003e-05
-9.93364e-07
-7.64634e-06
-1.60275e-05
7.57941e-06
-8.82873e-06
1.67052e-05
3.01523e-06
-9.81653e-06
-5.37642e-06
-4.99473e-05
-4.41875e-05
-9.1021e-05
-5.64311e-05
-4.29248e-05
-0.000132679
-2.63576e-05
-7.69381e-05
-2.05206e-06
-5.27758e-05
1.91224e-05
-3.81095e-05
4.31359e-05
-3.17512e-05
7.05402e-05
-3.3967e-05
9.96858e-05
-4.0093e-05
0.000118368
-5.00928e-05
0.00013469
-6.44464e-05
0.000139787
-7.50354e-05
0.000151488
-9.91602e-05
0.000163783
-0.000107901
0.000163504
-9.72953e-05
-0.000102261
0.000171951
7.07206e-06
3.40041e-05
2.50976e-05
3.83424e-06
4.03371e-05
-1.62328e-05
4.86099e-05
-2.43e-05
6.7423e-05
-2.76415e-05
9.39213e-05
-2.34828e-05
0.000105244
-1.66983e-05
7.54153e-05
-1.4359e-05
3.94359e-05
-2.04512e-05
-2.27427e-05
-7.05001e-05
-4.07689e-05
-5.89116e-05
-8.0645e-07
-9.2738e-05
2.16946e-05
-6.06102e-05
4.31021e-05
-5.31584e-05
6.60319e-05
-5.68965e-05
9.03739e-05
-6.44348e-05
0.000108619
-6.83372e-05
0.000141718
-9.75461e-05
0.000144473
-7.77899e-05
0.00013363
-8.83171e-05
0.000127826
-0.000102096
0.000131078
-0.000100547
-9.74143e-05
0.000126231
2.88104e-05
5.19343e-06
5.0032e-05
-1.73876e-05
6.14212e-05
-2.76221e-05
6.98674e-05
-3.27462e-05
7.8732e-05
-3.65061e-05
9.20874e-05
-3.6838e-05
0.000106784
-3.13942e-05
0.000115343
-2.29182e-05
0.000111477
-1.65841e-05
7.2564e-05
-3.15866e-05
5.91961e-05
-4.55429e-05
3.26436e-05
-6.61847e-05
3.92776e-05
-6.72434e-05
5.52339e-05
-6.91141e-05
7.1102e-05
-7.2764e-05
7.94663e-05
-7.27984e-05
8.81253e-05
-7.69957e-05
8.06114e-05
-9.00316e-05
9.1432e-05
-8.86102e-05
9.27804e-05
-8.96649e-05
8.62005e-05
-9.55158e-05
8.22761e-05
-9.66226e-05
-9.60048e-05
8.08668e-05
3.37947e-05
-2.86014e-05
4.88223e-05
-3.24155e-05
5.83361e-05
-3.71361e-05
6.58605e-05
-4.02708e-05
7.10378e-05
-4.16834e-05
7.57378e-05
-4.15379e-05
8.08281e-05
-3.64843e-05
8.57641e-05
-2.78539e-05
9.22799e-05
-2.30995e-05
8.91497e-05
-2.8456e-05
8.17956e-05
-3.81883e-05
6.72451e-05
-5.16339e-05
6.06718e-05
-6.06698e-05
5.81361e-05
-6.65781e-05
5.63156e-05
-7.09433e-05
5.76679e-05
-7.41505e-05
5.8375e-05
-7.77027e-05
5.17107e-05
-8.3367e-05
4.81492e-05
-8.50484e-05
4.41352e-05
-8.56504e-05
3.64259e-05
-8.78062e-05
2.7523e-05
-8.7719e-05
-8.68026e-05
1.83202e-05
1.93201e-05
-4.79221e-05
3.09877e-05
-4.40834e-05
3.75942e-05
-4.37429e-05
4.10759e-05
-4.37527e-05
4.2291e-05
-4.28987e-05
4.1233e-05
-4.048e-05
4.04508e-05
-3.57021e-05
4.26143e-05
-3.00175e-05
4.70392e-05
-2.75242e-05
4.91375e-05
-3.05543e-05
4.83307e-05
-3.73814e-05
4.29728e-05
-4.62759e-05
3.64993e-05
-5.41963e-05
3.03899e-05
-6.04686e-05
2.52443e-05
-6.57977e-05
2.1357e-05
-7.02631e-05
1.71957e-05
-7.35411e-05
1.01269e-05
-7.62982e-05
2.38734e-06
-7.73088e-05
-5.91068e-06
-7.7352e-05
-1.69095e-05
-7.6807e-05
-2.85179e-05
-7.61108e-05
-7.70177e-05
-3.83028e-05
8.00386e-06
-5.59261e-05
1.26049e-05
-4.86847e-05
1.3569e-05
-4.47073e-05
1.17454e-05
-4.19293e-05
8.22197e-06
-3.93754e-05
4.35365e-06
-3.66118e-05
2.06628e-06
-3.34149e-05
2.66019e-06
-3.06115e-05
5.06953e-06
-2.99337e-05
7.02967e-06
-3.25146e-05
7.48461e-06
-3.78365e-05
5.83894e-06
-4.46305e-05
2.90616e-06
-5.12638e-05
-6.97734e-07
-5.68649e-05
-4.93243e-06
-6.15631e-05
-1.00364e-05
-6.51592e-05
-1.62373e-05
-6.73404e-05
-2.38929e-05
-6.86427e-05
-3.23537e-05
-6.8848e-05
-4.11324e-05
-6.85733e-05
-4.95915e-05
-6.83479e-05
-5.70958e-05
-6.8606e-05
-6.94298e-05
-6.46843e-05
-1.1864e-06
-5.47402e-05
-4.00579e-06
-4.58656e-05
-8.93653e-06
-3.97768e-05
-1.50049e-05
-3.58612e-05
-2.12054e-05
-3.31751e-05
-2.64449e-05
-3.13726e-05
-2.95481e-05
-3.03119e-05
-2.98615e-05
-3.02984e-05
-2.79199e-05
-3.18756e-05
-2.50305e-05
-3.54043e-05
-2.23728e-05
-4.04947e-05
-2.08532e-05
-4.61504e-05
-2.07624e-05
-5.13551e-05
-2.19889e-05
-5.56389e-05
-2.45705e-05
-5.89818e-05
-2.8432e-05
-6.1298e-05
-3.31026e-05
-6.267e-05
-3.84314e-05
-6.33141e-05
-4.4029e-05
-6.32506e-05
-4.99437e-05
-6.26587e-05
-5.64929e-05
-6.17986e-05
-6.40859e-05
-6.10136e-05
-6.0314e-05
-7.3202e-05
-8.31366e-06
-4.64266e-05
-1.71618e-05
-3.70177e-05
-2.61356e-05
-3.08033e-05
-3.45887e-05
-2.74083e-05
-4.16491e-05
-2.6115e-05
-4.64663e-05
-2.65556e-05
-4.84011e-05
-2.83773e-05
-4.73923e-05
-3.13075e-05
-4.41154e-05
-3.51529e-05
-3.98301e-05
-3.96899e-05
-3.58333e-05
-4.44919e-05
-3.29845e-05
-4.89997e-05
-3.15532e-05
-5.27867e-05
-3.14818e-05
-5.57108e-05
-3.2673e-05
-5.7791e-05
-3.49e-05
-5.90713e-05
-3.7911e-05
-5.96593e-05
-4.15951e-05
-5.96303e-05
-4.58658e-05
-5.89801e-05
-5.0792e-05
-5.77327e-05
-5.65734e-05
-5.60175e-05
-6.3521e-05
-5.40659e-05
-5.19463e-05
-7.18894e-05
-1.28915e-05
-3.35356e-05
-2.50355e-05
-2.4874e-05
-3.57722e-05
-2.00667e-05
-4.44453e-05
-1.87353e-05
-5.04125e-05
-2.0148e-05
-5.33478e-05
-2.36205e-05
-5.33608e-05
-2.83645e-05
-5.09966e-05
-3.3672e-05
-4.71551e-05
-3.89947e-05
-4.2907e-05
-4.39384e-05
-3.91772e-05
-4.82221e-05
-3.65021e-05
-5.16752e-05
-3.50356e-05
-5.42536e-05
-3.47307e-05
-5.60161e-05
-3.54624e-05
-5.70597e-05
-3.70486e-05
-5.74855e-05
-3.93212e-05
-5.7387e-05
-4.21629e-05
-5.67889e-05
-4.55169e-05
-5.56264e-05
-4.94448e-05
-5.3805e-05
-5.41431e-05
-5.13193e-05
-5.98814e-05
-4.83281e-05
-4.50162e-05
-6.68121e-05
-1.45226e-05
-1.9013e-05
-2.73991e-05
-1.19975e-05
-3.7841e-05
-9.62505e-06
-4.53616e-05
-1.12148e-05
-4.98524e-05
-1.56574e-05
-5.1515e-05
-2.19581e-05
-5.07978e-05
-2.90819e-05
-4.83549e-05
-3.61151e-05
-4.49889e-05
-4.2361e-05
-4.15213e-05
-4.74062e-05
-3.8596e-05
-5.11477e-05
-3.65598e-05
-5.37118e-05
-3.55043e-05
-5.53094e-05
-3.53819e-05
-5.61389e-05
-3.60828e-05
-5.63591e-05
-3.74737e-05
-5.60949e-05
-3.94339e-05
-5.54271e-05
-4.18672e-05
-5.4356e-05
-4.47109e-05
-5.27829e-05
-4.79647e-05
-5.05514e-05
-5.17186e-05
-4.75656e-05
-5.61416e-05
-4.39052e-05
-3.97978e-05
-6.13607e-05
-1.38482e-05
-5.16506e-06
-2.58657e-05
1.97526e-08
-3.51831e-05
-3.07795e-07
-4.15826e-05
-4.81538e-06
-4.52828e-05
-1.19573e-05
-4.65726e-05
-2.06685e-05
-4.59055e-05
-2.97491e-05
-4.38834e-05
-3.81375e-05
-4.12084e-05
-4.50362e-05
-3.85641e-05
-5.00508e-05
-3.6447e-05
-5.3265e-05
-3.50957e-05
-5.50634e-05
-3.4555e-05
-5.58504e-05
-3.47718e-05
-5.59223e-05
-3.56547e-05
-5.54764e-05
-3.7104e-05
-5.46458e-05
-3.90267e-05
-5.35048e-05
-4.13373e-05
-5.20456e-05
-4.39613e-05
-5.01593e-05
-4.68471e-05
-4.76658e-05
-4.99918e-05
-4.44211e-05
-5.34495e-05
-4.04479e-05
-3.59683e-05
-5.72797e-05
-1.18126e-05
6.64768e-06
-2.24273e-05
1.06344e-05
-3.06253e-05
7.89007e-06
-3.62134e-05
7.72715e-07
-3.95099e-05
-8.66097e-06
-4.07694e-05
-1.94091e-05
-4.03884e-05
-3.01303e-05
-3.88925e-05
-3.96335e-05
-3.68976e-05
-4.70314e-05
-3.50018e-05
-5.19467e-05
-3.36126e-05
-5.46545e-05
-3.28952e-05
-5.5781e-05
-3.28584e-05
-5.58875e-05
-3.34442e-05
-5.53367e-05
-3.45756e-05
-5.43452e-05
-3.61763e-05
-5.30454e-05
-3.81748e-05
-5.15066e-05
-4.04987e-05
-4.97219e-05
-4.30687e-05
-4.75895e-05
-4.58032e-05
-4.49315e-05
-4.8639e-05
-4.15855e-05
-5.15519e-05
-3.75352e-05
-3.2974e-05
-5.45469e-05
-9.26189e-06
1.59093e-05
-1.8046e-05
1.94185e-05
-2.51235e-05
1.49676e-05
-3.02919e-05
5.94101e-06
-3.33684e-05
-5.58455e-06
-3.47651e-05
-1.80124e-05
-3.47805e-05
-3.0115e-05
-3.38352e-05
-4.05789e-05
-3.24653e-05
-4.84014e-05
-3.12222e-05
-5.319e-05
-3.04587e-05
-5.54182e-05
-3.02888e-05
-5.59511e-05
-3.06962e-05
-5.54803e-05
-3.16203e-05
-5.44128e-05
-3.29938e-05
-5.29719e-05
-3.47547e-05
-5.12847e-05
-3.68463e-05
-4.94152e-05
-3.92088e-05
-4.73596e-05
-4.17675e-05
-4.5031e-05
-4.44315e-05
-4.22676e-05
-4.71126e-05
-3.89045e-05
-4.97506e-05
-3.48975e-05
-3.04072e-05
-5.23181e-05
-6.32561e-06
2.22352e-05
-1.33148e-05
2.64077e-05
-1.9371e-05
2.10238e-05
-2.41138e-05
1.06839e-05
-2.71769e-05
-2.52153e-06
-2.88293e-05
-1.63601e-05
-2.92976e-05
-2.96467e-05
-2.88898e-05
-4.09868e-05
-2.80791e-05
-4.92122e-05
-2.73994e-05
-5.38699e-05
-2.71656e-05
-5.56521e-05
-2.74532e-05
-5.56637e-05
-2.82299e-05
-5.47037e-05
-2.94363e-05
-5.32066e-05
-3.10121e-05
-5.13963e-05
-3.29038e-05
-4.93933e-05
-3.50636e-05
-4.72555e-05
-3.74413e-05
-4.49822e-05
-3.99703e-05
-4.25022e-05
-4.25636e-05
-3.96744e-05
-4.51294e-05
-3.63388e-05
-4.76001e-05
-3.24271e-05
-2.80658e-05
-4.9942e-05
-3.42121e-06
2.56563e-05
-8.53243e-06
3.15189e-05
-1.36506e-05
2.6142e-05
-1.80069e-05
1.50401e-05
-2.11369e-05
6.08505e-07
-2.30926e-05
-1.44044e-05
-2.40285e-05
-2.87109e-05
-2.41193e-05
-4.08962e-05
-2.38015e-05
-4.95301e-05
-2.36124e-05
-5.40591e-05
-2.38303e-05
-5.54343e-05
-2.4498e-05
-5.49961e-05
-2.55757e-05
-5.36261e-05
-2.70077e-05
-5.17747e-05
-2.87397e-05
-4.96644e-05
-3.07237e-05
-4.74094e-05
-3.29178e-05
-4.50616e-05
-3.52782e-05
-4.2622e-05
-3.77464e-05
-4.00342e-05
-4.02427e-05
-3.71782e-05
-4.26802e-05
-3.39014e-05
-4.49946e-05
-3.01129e-05
-2.59023e-05
-4.71587e-05
-9.47151e-07
2.66037e-05
-4.09489e-06
3.46668e-05
-8.197e-06
3.02442e-05
-1.21168e-05
1.896e-05
-1.536e-05
3.85164e-06
-1.76374e-05
-1.2127e-05
-1.90102e-05
-2.73381e-05
-1.95347e-05
-4.03717e-05
-1.9648e-05
-4.94168e-05
-1.9896e-05
-5.38112e-05
-2.05067e-05
-5.48236e-05
-2.14945e-05
-5.40084e-05
-2.28184e-05
-5.23023e-05
-2.44286e-05
-5.01646e-05
-2.62765e-05
-4.78166e-05
-2.83189e-05
-4.53671e-05
-3.05182e-05
-4.28625e-05
-3.2836e-05
-4.03043e-05
-3.52215e-05
-3.76488e-05
-3.76032e-05
-3.47966e-05
-3.98996e-05
-3.16051e-05
-4.20507e-05
-2.79621e-05
-2.39161e-05
-4.40373e-05
9.48922e-07
2.56547e-05
-5.15087e-07
3.61308e-05
-3.46681e-06
3.3196e-05
-6.86415e-06
2.23574e-05
-1.00339e-05
7.02138e-06
-1.25549e-05
-9.60598e-06
-1.42656e-05
-2.56274e-05
-1.51297e-05
-3.95077e-05
-1.56229e-05
-4.89237e-05
-1.62707e-05
-5.31635e-05
-1.72293e-05
-5.3865e-05
-1.8491e-05
-5.27468e-05
-2.00191e-05
-5.07742e-05
-2.17711e-05
-4.84128e-05
-2.37038e-05
-4.5884e-05
-2.57788e-05
-4.32923e-05
-2.79628e-05
-4.06785e-05
-3.02236e-05
-3.80437e-05
-3.25177e-05
-3.53547e-05
-3.47818e-05
-3.25326e-05
-3.69393e-05
-2.94478e-05
-3.893e-05
-2.59714e-05
-2.2107e-05
-4.07397e-05
2.20064e-06
2.34544e-05
1.93359e-06
3.63981e-05
2.09969e-08
3.51086e-05
-2.51258e-06
2.4891e-05
-5.3331e-06
9.84193e-06
-7.9364e-06
-7.00267e-06
-9.80512e-06
-2.37587e-05
-1.08927e-05
-3.84201e-05
-1.17353e-05
-4.80811e-05
-1.27576e-05
-5.21413e-05
-1.40264e-05
-5.25963e-05
-1.55244e-05
-5.12489e-05
-1.72239e-05
-4.90748e-05
-1.90893e-05
-4.65474e-05
-2.10834e-05
-4.389e-05
-2.31727e-05
-4.1203e-05
-2.5329e-05
-3.85224e-05
-2.75256e-05
-3.58472e-05
-2.97279e-05
-3.31525e-05
-3.18817e-05
-3.03788e-05
-3.39151e-05
-2.74145e-05
-3.57663e-05
-2.41206e-05
-2.04538e-05
-3.74198e-05
2.70676e-06
2.07476e-05
3.34272e-06
3.57622e-05
2.69351e-06
3.57579e-05
9.83086e-07
2.66015e-05
-1.37989e-06
1.22049e-05
-3.80422e-06
-4.57832e-06
-5.58326e-06
-2.19796e-05
-6.80084e-06
-3.72025e-05
-7.99642e-06
-4.68855e-05
-9.37466e-06
-5.0763e-05
-1.09192e-05
-5.10518e-05
-1.26216e-05
-4.95465e-05
-1.44663e-05
-4.72301e-05
-1.64233e-05
-4.45906e-05
-1.84611e-05
-4.18522e-05
-2.05524e-05
-3.91118e-05
-2.2674e-05
-3.64009e-05
-2.48051e-05
-3.37162e-05
-2.69197e-05
-3.10379e-05
-2.89742e-05
-2.83245e-05
-3.09029e-05
-2.54859e-05
-3.2641e-05
-2.23825e-05
-1.89274e-05
-3.41679e-05
2.51837e-06
1.82295e-05
3.81008e-06
3.44706e-05
4.09301e-06
3.54751e-05
3.40267e-06
2.72919e-05
1.79751e-06
1.38101e-05
-4.12634e-08
-2.73952e-06
-1.45827e-06
-2.05626e-05
-2.8007e-06
-3.58601e-05
-4.39665e-06
-4.52896e-05
-6.1215e-06
-4.90382e-05
-7.91468e-06
-4.92586e-05
-9.79704e-06
-4.76642e-05
-1.17677e-05
-4.52594e-05
-1.38007e-05
-4.25577e-05
-1.58699e-05
-3.9783e-05
-1.79552e-05
-3.70266e-05
-2.00393e-05
-3.43169e-05
-2.21068e-05
-3.16487e-05
-2.41397e-05
-2.90051e-05
-2.61053e-05
-2.63588e-05
-2.79473e-05
-2.3644e-05
-2.95996e-05
-2.07305e-05
-1.7495e-05
-3.10323e-05
2.10544e-06
1.61241e-05
3.78908e-06
3.2787e-05
4.81268e-06
3.44516e-05
5.01638e-06
2.70883e-05
4.41585e-06
1.44107e-05
3.48879e-06
-1.81243e-06
2.62894e-06
-1.97027e-05
1.19331e-06
-3.44244e-05
-8.68994e-07
-4.32273e-05
-2.96737e-06
-4.69398e-05
-4.9991e-06
-4.72269e-05
-7.05133e-06
-4.56119e-05
-9.13829e-06
-4.31725e-05
-1.12392e-05
-4.04568e-05
-1.33331e-05
-3.76891e-05
-1.54079e-05
-3.49518e-05
-1.74543e-05
-3.22705e-05
-1.94624e-05
-2.96407e-05
-2.14205e-05
-2.70472e-05
-2.33067e-05
-2.44727e-05
-2.50762e-05
-2.18746e-05
-2.66641e-05
-1.91425e-05
-1.61297e-05
-2.803e-05
1.79952e-06
1.43248e-05
3.72874e-06
3.0858e-05
5.33367e-06
3.28468e-05
6.26589e-06
2.61561e-05
6.51165e-06
1.4165e-05
6.67575e-06
-1.97649e-06
6.33078e-06
-1.93577e-05
4.82807e-06
-3.29217e-05
2.59675e-06
-4.09959e-05
1.86376e-07
-4.45294e-05
-2.1427e-06
-4.48978e-05
-4.3795e-06
-4.33751e-05
-6.5845e-06
-4.09675e-05
-8.75202e-06
-3.82893e-05
-1.08688e-05
-3.55723e-05
-1.29318e-05
-3.28888e-05
-1.49413e-05
-3.02611e-05
-1.68943e-05
-2.76877e-05
-1.87846e-05
-2.5157e-05
-2.05991e-05
-2.26582e-05
-2.23053e-05
-2.01685e-05
-2.38448e-05
-1.76034e-05
-1.48075e-05
-2.51672e-05
1.65394e-06
1.26709e-05
3.90165e-06
2.86104e-05
6.00892e-06
3.07396e-05
7.54031e-06
2.46248e-05
8.60566e-06
1.30997e-05
9.68057e-06
-3.05134e-06
9.62934e-06
-1.93065e-05
8.15195e-06
-3.14442e-05
5.84999e-06
-3.86939e-05
3.2413e-06
-4.19207e-05
6.52793e-07
-4.23092e-05
-1.78928e-06
-4.0933e-05
-4.11929e-06
-3.86374e-05
-6.3543e-06
-3.60542e-05
-8.49406e-06
-3.34325e-05
-1.0545e-05
-3.08379e-05
-1.25178e-05
-2.82883e-05
-1.44184e-05
-2.57872e-05
-1.62461e-05
-2.33292e-05
-1.7995e-05
-2.09094e-05
-1.96442e-05
-1.85194e-05
-2.11447e-05
-1.61028e-05
-1.35134e-05
-2.24392e-05
1.35959e-06
1.13116e-05
4.47928e-06
2.54908e-05
7.08185e-06
2.81371e-05
9.11114e-06
2.25956e-05
1.10103e-05
1.12006e-05
1.26227e-05
-4.66368e-06
1.26325e-05
-1.93162e-05
1.11629e-05
-2.99746e-05
8.82564e-06
-3.63566e-05
6.10989e-06
-3.92049e-05
3.33117e-06
-3.95305e-05
6.79931e-07
-3.82817e-05
-1.76791e-06
-3.61895e-05
-4.06773e-06
-3.37544e-05
-6.22789e-06
-3.12723e-05
-8.26525e-06
-2.88005e-05
-1.02e-05
-2.63535e-05
-1.20479e-05
-2.39393e-05
-1.38158e-05
-2.15614e-05
-1.55029e-05
-1.92222e-05
-1.70986e-05
-1.69238e-05
-1.85656e-05
-1.46361e-05
-1.2235e-05
-1.9844e-05
9.55869e-07
1.03558e-05
5.42249e-06
2.10243e-05
8.59378e-06
2.4966e-05
1.10744e-05
2.01151e-05
1.36405e-05
8.63465e-06
1.53698e-05
-6.3929e-06
1.53298e-05
-1.92761e-05
1.38278e-05
-2.84725e-05
1.14451e-05
-3.39738e-05
8.65104e-06
-3.64107e-05
5.76542e-06
-3.66448e-05
2.98526e-06
-3.55015e-05
4.16149e-07
-3.36203e-05
-1.92253e-06
-3.14156e-05
-4.09261e-06
-2.91022e-05
-6.11047e-06
-2.67826e-05
-8.00296e-06
-2.4461e-05
-9.79453e-06
-2.21477e-05
-1.1501e-05
-1.98549e-05
-1.31274e-05
-1.75959e-05
-1.46702e-05
-1.53811e-05
-1.61041e-05
-1.32019e-05
-1.09672e-05
-1.73723e-05
8.49995e-07
9.50603e-06
5.85051e-06
1.6024e-05
1.00702e-05
2.07464e-05
1.32558e-05
1.69297e-05
1.62355e-05
5.65503e-06
1.77795e-05
-7.93682e-06
1.75879e-05
-1.90844e-05
1.60141e-05
-2.68985e-05
1.35809e-05
-3.15405e-05
1.07413e-05
-3.3571e-05
7.8177e-06
-3.3721e-05
5.00461e-06
-3.26883e-05
2.40025e-06
-3.10159e-05
3.59888e-08
-2.90512e-05
-2.1144e-06
-2.69517e-05
-4.09812e-06
-2.47988e-05
-5.94003e-06
-2.2619e-05
-7.66813e-06
-2.04195e-05
-9.30727e-06
-1.82158e-05
-1.08697e-05
-1.60334e-05
-1.23574e-05
-1.38933e-05
-1.37566e-05
-1.18029e-05
-9.70653e-06
-1.50173e-05
1.75592e-06
7.7502e-06
5.79468e-06
1.19853e-05
1.0524e-05
1.60172e-05
1.4816e-05
1.26378e-05
1.81705e-05
2.30065e-06
1.95342e-05
-9.3004e-06
1.91574e-05
-1.87074e-05
1.74963e-05
-2.52374e-05
1.50393e-05
-2.90833e-05
1.22195e-05
-3.07511e-05
9.34786e-06
-3.08493e-05
6.60724e-06
-2.99475e-05
4.07605e-06
-2.84846e-05
1.76655e-06
-2.67416e-05
-3.26172e-07
-2.48589e-05
-2.24745e-06
-2.28774e-05
-4.02275e-06
-2.08437e-05
-5.67703e-06
-1.87652e-05
-7.23918e-06
-1.66535e-05
-8.72952e-06
-1.4543e-05
-1.01564e-05
-1.24664e-05
-1.15144e-05
-1.04446e-05
-8.45864e-06
-1.27625e-05
3.53279e-06
4.21762e-06
6.30462e-06
9.21368e-06
1.03138e-05
1.20081e-05
1.50687e-05
7.88303e-06
1.86679e-05
-1.29838e-06
2.0078e-05
-1.07104e-05
1.96576e-05
-1.82869e-05
1.79821e-05