/*--------------------------------*- C++ -*----------------------------------*\
| =========                 |                                                 |
| \\      /  F ield         | OpenFOAM: The Open Source CFD Toolbox           |
|  \\    /   O peration     | Version:  2312                                  |
|   \\  /    A nd           | Website:  www.openfoam.com                      |
|    \\/     M anipulation  |                                                 |
\*---------------------------------------------------------------------------*/
FoamFile
{
    version     2.0;
    format      ascii;
    arch        "LSB;label=32;scalar=64";
    class       volScalarField;
    location    "1.45";
    object      alphas;
}
// * * * * * * * * * * * * * * * * * * * * * * * * * * * * * * * * * * * * * //

dimensions      [0 0 0 0 0 0 0];

internalField   nonuniform List<scalar> 
2268
(
2
2
2
2
2
2
2
2
2
2
2
2
2
2
2
2
2
2
2
2
2
1.99997
1.99994
2
2
2
2
2
2
2
2
2
2
2
2
2
2
2
2
2
2
2
2
2
1.99999
1.99994
2
2
2
2
2
2
2
2
2
2
2
2
2
2
2
2
2
2
2
2
2
2
1.99999
2
2
2
2
2
2
2
2
2
2
2
2
2
2
2
2
2
2
2
2
2.00001
2
2
2
2
2
2
2
1.98077
1.97418
1.98443
1.99717
2
2
2
2
2
2
2
2
2
2
2
2.00002
2.00009
2.00011
1.78448
1.70795
1.60851
1.36472
1.05815
0.84785
0.798628
0.875203
1.04949
1.29935
1.51703
1.72072
1.88692
1.98298
2
2
2
2
1.99999
1.99989
1.99997
2.0006
1.96847
0.506543
0.411283
0.267911
0.096977
0.0178564
0.0119271
0.00936954
0.00869133
0.00718803
0.00339856
0.0869059
0.233401
0.478245
0.861401
1.31854
1.64942
1.8656
1.97419
1.99969
1.97557
1.74076
1.17879
0.786595
0.803839
0.700848
0.426507
0.177079
0.141507
0.146971
0.0958014
0.0173359
0.00729903
0.00429235
0.0026716
0.00137703
0.000998092
0.000799001
0.0377573
0.2232
0.523894
0.838299
0.944489
0.773807
0.333711
0.0323871
0.0273722
1.39998
1.66295
1.58936
1.61732
1.78371
1.81646
1.83522
1.8437
1.86377
1.8709
1.87618
1.87687
1.87989
1.89026
1.89726
1.91594
1.92721
1.93273
1.91267
1.37558
1.31465
1.24181
1.23646
1.22948
0.884398
0.767833
1.09679
1.57182
1.6303
1.82339
1.87926
1.89844
1.95037
1.97517
1.96211
1.9392
1.90959
1.91154
1.25612
1.21212
1.06269
1.16987
1.3237
1.22497
0.844534
0.676756
0.639032
1.06877
1.47816
1.62346
1.79879
1.78535
1.71284
1.44267
1.1
0.903578
1.00726
1.32887
1.24488
0.784606
1.04186
1.11926
1.42552
1.54006
1.34841
1.15118
1.10465
1.38491
1.4415
1.45606
1.17606
0.84368
0.494125
0.206501
0.153755
0.4452
1.33535
1.22382
0.572358
0.718463
0.828934
1.0116
1.19025
1.52648
1.38779
1.61865
1.56238
1.44231
0.934965
0.468763
0.307835
0.178652
0.131062
0.125911
0.381503
1.1779
0.69728
0.610219
0.532851
0.494122
0.604863
0.97277
1.06699
1.28997
1.50435
1.69129
1.29617
0.503673
0.138814
0.137069
0.137245
0.137151
0.134223
0.438709
1.18621
0.631067
0.597245
0.536389
0.570544
0.561227
0.653963
0.95387
0.986675
1.19114
1.40718
0.95263
0.432214
0.246015
0.255081
0.189609
0.127311
0.296749
0.646487
1.08484
0.816922
0.698242
0.713652
0.521274
0.49461
0.730281
1.0856
0.903195
0.80317
0.734196
0.456734
0.30648
0.783177
1.00724
0.749748
0.607245
0.597198
0.905852
1.00062
1.01684
1.01289
0.984148
1.12796
1.03769
0.679236
0.248961
0.0222551
0.0110284
0.00335543
0.00188032
0.000679063
0.000675296
0.000676786
0.000966251
0.000770392
0.000133183
0.00207756
0.00067278
6.08641e-05
1.36379e-05
0.00662251
1.00009
1.02651
1.03893
1.02876
1.03097
1.03055
1.03613
1.21987
1.07499
0.421235
0.0508358
0.0551622
0.0646841
0.0579886
0.0801758
0.0565842
0.00281525
4.73454e-07
7.52758e-07
2.06561e-06
4.21528e-07
4.11031e-07
3.65422e-07
1.00009
1.00748
1.589
1.53595
1.44082
1.42139
1.16987
1.00854
1.01569
1.15396
0.787649
0.280881
0.281173
0.564392
0.705487
0.299729
0.000738433
4.3232e-07
4.31677e-07
2.98948e-06
0.000123442
0.000226179
0.000227971
1.00009
1.10087
2.12377
2.12323
2.12361
1.8022
1.15067
1.00802
1.00815
1.01152
1.0533
0.529189
0.558238
1.16386
1.19602
0.358704
0.00122895
1.54354e-06
8.51306e-07
3.77279e-06
0.000370875
0.000256895
5.10349e-05
1.00009
1.12722
1.8265
1.6778
1.20144
1.01101
1.01048
1.06385
1.05791
1.01173
1.01277
0.773711
0.831219
1.54637
1.38071
0.374841
0.00374088
0.0108836
0.0219358
0.0163214
0.00749702
0.0106298
0.0435861
1.00021
1.00003
1.0001
1.00011
1.00578
1.01092
1.01036
1.09836
1.73112
1.58411
1.32736
1.54471
1.6512
1.60003
1.69965
0.787281
0.252063
0.304361
0.368005
0.373245
0.275304
0.210932
0.258287
1.00005
1.00003
1.00052
1.04212
1.04998
1.01743
1.02107
1.13145
1.89651
2.52121
2.47629
2.54624
2.53145
2.11788
2.32719
1.46434
0.975231
0.941357
1.01125
1.07457
1.01174
0.948987
0.785557
1.00952
1.00058
1.0003
1.08191
1.07492
1.00355
1.00084
1.00069
1.08688
2.51994
2.53974
2.54581
2.5592
2.56775
2.46747
1.86466
1.12151
1.01456
1.01593
1.01612
1.01619
1.01627
1.01638
2.03808
1.84446
1.48103
1.21691
1.08278
1.00108
1.00105
1.00092
1.00119
1.22122
2.24975
2.55791
2.56726
2.54325
2.30298
1.53513
0.969047
1.01335
1.01454
1.01612
1.01612
1.01618
1.01626
2.99994
2.99097
2.84813
2.56489
2.23504
1.77756
1.28595
1.02223
1.00131
1.00183
1.0683
1.42077
2.06495
2.13123
1.63635
1.02932
1.01
1.01392
1.01567
1.01901
1.05971
1.17531
1.38073
2.99997
2.99997
2.99997
2.99997
2.99995
2.98325
2.71677
2.11162
1.41237
1.05182
1.04641
1.09694
1.30476
1.28376
1.11143
1.06322
1.06056
1.17298
1.51438
1.92095
2.27947
2.58994
2.81997
2.99996
2.9993
2.9986
2.99897
2.99982
3
2.99995
2.9999
2.85042
2.33111
1.58976
1.29286
1.15702
1.15127
1.16992
1.19053
1.38284
2.1824
2.95072
2.9997
2.99968
2.99967
2.99977
2.9999
2.99739
2.99675
2.99675
2.99823
3
3
3
2.99998
2.99994
2.99259
2.8063
2.56236
2.4791
2.54201
2.6284
2.74611
2.94139
2.9994
2.9994
2.99987
2.99998
2.99999
2.99977
2.99963
2.99821
2.9977
2.9988
3
3
3
3
2.99999
3
2.99999
2.99999
2.99999
2.99999
2.99999
2.99997
2.99996
2.99307
2.99569
2.99998
3
3
2.99997
2.99999
3
3
3
3
3
3
3
3
3
3
3
3
3
2.99999
2.99999
2.99999
2.99957
2.99989
3
3
3
2.99999
2.99999
3
3
3
2.99999
2.99999
2.99999
3
3
3
3
3
3
3
3
3
3
3
3
3
3
3
3
3
3
3
2.99999
2.99999
2.99999
3
3
3
3
3
3
3
3
3
3
3
3
3
3
3
3
3
3
3
3
3
3
3
3
3
3
3
3
3
3
3
3
3
3
3
3
3
3
3
3
3
3
3
3
3
3
3
3
3
3
3
3
3
3
3
3
3
3
3
3
3
3
3
3
3
3
3
3
3
3
3
3
3
3
3
3
3
3
3
3
3
3
3
3
3
3
2.99999
3
3
3
3
3
3
3
3
3
3
3
3
3
3
3
3
3
3
3
3
3
3
2.99999
2.99999
3
3
3
3
3
3
3
3
3
3
3
3
3
3
3
3
3
3
3
3
3
2.99999
2.99999
3
3
3
3
3
3
3
3
3
3
3
3
3
3
3
3
3
3
3
3
3
2.99999
2.99999
3
3
3
3
3
3
3
3
3
3
3
3
3
3
3
3
3
3
3
3
2.99999
2.99998
2.99999
2.99999
3
3
3
3
3
3
3
3
3
3
3
3
3
3
3
3
3
3
3
2.99999
2.99998
2.99998
2.99999
3
3
3
3
3
3
3
3
3
3
3
3
3
3
3
3
3
3
3
2.99996
2.99998
2.99998
3
3
3
3
3
3
3
3
3
3
3
3
3
3
3
3
3
3
3
3
2.99995
3
3
3
3
3
3
3
3
3
3
3
3
3
3
3
3
3
3
3
3
3
3
2.99995
3
3
3
3
3
3
3
3
3
3
3
3
3
3
3
3
3
3
3
3
3
3
2.99995
3
3
3
3
3
3
3
3
3
3
3
3
3
3
3
3
3
3
3
3
3
3
2.99995
3
3
3
3
3
3
3
3
3
3
3
3
3
3
3
3
3
3
3
3
3
3
2.99994
3
3
3
3
3
3
3
3
3
3
3
3
3
3
3
3
3
3
3
3
3
3
2.99994
3
3
3
3
3
3
3
3
3
3
3
3
3
3
3
3
3
3
3
3
3
3
2.99994
2.99999
3
3
3
3
3
3
3
3
3
3
3
3
3
3
3
3
3
3
3
3
3
2.99995
2.99988
3
3
2.99999
3
3
3
3
3
3
3
3
3
3
3
3
3
3
3
3
3
3
2.99999
2.99988
2.9999
2.99998
2.99999
3
3
3
3
3
3
3
3
3
3
3
3
3
3
3
3
3
3
3
2.99994
2.99991
2.99997
3
3
3
3
3
3
3
3
3
3
3
3
3
3
3
3
3
3
3
3
3
3
3
3
3
3
3
3
3
3
3
3
3
3
3
3
3
3
3
3
3
3
3
3
3
3
3
3
3
3
3
3
3
3
3
3
3
3
3
3
3
3
3
3
3
3
3
3
3
3
3
3
3
3
3
3
3
3
3
3
3
3
3
3
3
3
3
3
3
3
3
3
3
3
3
3
3
3
3
3
3
3
3
3
3
3
3
3
3
3
3
3
3
3
3
3
3
3
3
3
3
3
3
3
3
3
3
3
3
3
3
3
3
3
0.00494875
0.000953646
7.74456e-07
7.60126e-07
0.000146286
0.000118991
4.14501e-05
4.56722e-06
0.000224635
0.000138449
1.24873e-05
1.1775e-05
4.14736e-05
1.97859e-05
1.25157e-05
1.25652e-05
0.0995188
0.136268
0.0983489
0.0212585
0.367689
0.3894
0.389381
0.370739
0.631696
0.622262
0.66904
0.655103
1.01642
1.01672
1.01887
1.02493
1.01634
1.01825
1.05942
1.06768
1.53386
1.70666
2.14667
2.29684
2.93852
2.99645
2.99998
2.99997
2.99982
2.99982
2.99984
2.99997
3
3
3
2.99999
3
2.99999
2.99994
2.99992
3
2.99996
2.99993
2.99993
3
2.99999
2.99999
3
3
3
3
3
3
3
3
3
3
3
3
3
3
3
3
3
3
3
3
3
3
3
3
3
3
3
3
3
3
3
3
3
3
3
3
3
3
3
3
3
3
3
3
3
3
3
3
3
3
3
3
3
3
3
3
3
3
3
3
3
3
3
3
3
3
3
3
3
3
3
3
3
3
3
3
3
3
3
3
3
3
3
3
3
3
3
3
3
3
3
3
3
3
3
3
3
3
3
3
3
3
3
3
3
0.0140334
0.00357556
0.0285391
0.227552
0.312901
0.411012
0.689691
0.924394
1.00047
0.788706
0.399104
0.264121
0.430085
0.936724
1.41065
1.08773
0.966299
0.93268
0.926556
4.49525e-06
4.66927e-06
5.41966e-06
7.74384e-05
0.000648417
0.024368
0.267657
0.688841
1.02531
0.999769
0.836195
0.279687
0.323373
0.927792
1.44997
1.23324
1.1935
1.1747
1.16658
8.25272e-06
6.27186e-06
0.000139281
0.000620307
0.038746
0.0669234
0.242704
0.506717
0.581666
0.720288
0.729465
0.850781
0.948574
1.0855
1.17988
1.17397
1.19231
1.18769
1.18655
0.0121078
0.0335757
0.111225
0.226259
0.20283
0.0914964
0.230041
0.528107
0.527031
0.64361
0.685008
0.937949
1.1247
1.13676
1.15224
1.17951
1.19006
1.38026
1.19501
0.112203
0.442733
0.491806
0.496963
0.285369
0.199987
0.308407
0.841831
1.37346
1.14427
0.804768
1.03215
1.13738
1.15169
1.22344
1.7011
1.65039
2.31714
2.17469
0.163328
0.114006
0.272802
0.895289
1.1183
1.35085
1.70568
2.11805
2.47496
1.91808
1.17367
1.14596
1.22786
1.78632
2.64099
2.92727
2.87396
2.98172
2.98192
0.44974
0.490524
0.836262
1.52492
1.73322
2.04698
2.60593
2.86323
2.64911
2.25142
2.17427
2.31465
2.68415
2.93524
2.98527
2.99882
2.99978
2.99671
2.98449
1.0357
1.18403
1.50921
2.11919
2.91945
2.99994
2.99995
2.99996
2.9383
2.96501
2.97942
2.98292
2.99033
2.99857
2.99955
2.99983
2.99999
2.99998
2.99855
1.03845
1.29236
2.65113
2.99996
2.99997
2.99995
2.99995
2.9999
2.99136
2.99107
2.99588
2.99963
2.99988
2.99991
2.99985
2.99986
2.99999
2.99998
2.99999
1.743
1.71134
2.63631
2.99969
2.99998
2.99995
2.99995
2.99459
2.99268
2.99706
2.99978
2.99998
2.99999
3
3
3
3
2.99999
2.99999
2.99974
2.93615
2.87834
2.98468
2.99997
2.99997
2.99907
2.99473
2.99972
2.9999
3
3
3
3
2.99997
2.99984
2.99987
2.99998
2.99997
2.99997
2.9999
2.99991
2.99928
2.99996
2.99981
2.99836
2.99941
2.99998
3
3
3
3
3
2.99997
2.99977
2.99977
2.99977
2.99988
2.99992
2.99984
2.99999
2.99999
2.99987
2.9985
2.99835
2.99978
2.99982
2.99961
2.99966
2.99996
3
3
3
2.99991
2.99981
2.99985
2.99996
2.99992
2.99996
3
2.99999
2.9997
2.99926
2.99936
2.99968
2.99956
2.99956
2.99956
2.99956
2.99993
3
3
3
2.99999
3
3
3
3
3
2.99996
2.99987
2.9998
2.99957
2.99957
2.99957
2.99968
2.99974
2.99979
2.99988
3
3
3
3
3
3
3
3
3
2.99999
2.99998
2.99971
2.99961
2.99972
2.99994
2.99999
3
3
2.99998
2.99999
3
3
3
3
3
3
3
3
3
2.99997
2.99991
2.99992
2.99999
3
3
3
3
3
3
3
3
3
3
3
3
3
3
3
2.99999
3
3
3
3
2.99999
2.99999
3
3
3
3
3
3
3
3
3
3
3
3
3
3
3
3
3
2.99999
2.99999
3
3
3
3
3
3
3
3
3
3
3
3
3
3
3
3
3
3
3
3
3
3
3
3
3
3
2.99999
3
3
3
3
3
3
3
3
3
3
3
3
3
3
3
3
3
3
2.99998
3
3
3
3
3
3
3
3
3
3
3
3
3
3
3
3
3
2.99998
2.99998
3
3
3
3
3
3
3
3
3
3
3
3
3
3
3
3
3
2.99998
2.99999
3
3
3
3
3
3
3
3
3
3
3
3
3
3
3
3
2.99998
2.99998
3
3
3
3
3
3
3
3
3
3
3
3
3
3
3
3
3
2.99999
2.99998
3
3
3
3
3
3
3
3
3
3
3
3
3
3
3
3
3
3
3
3
3
3
3
3
3
3
3
3
3
3
3
3
3
3
3
3
3
3
3
3
3
3
3
3
3
3
3
3
3
3
3
3
3
3
3
3
3
3
3
3
3
3
3
3
3
3
3
3
3
3
3
3
3
3
3
3
3
3
3
3
3
3
3
3
3
3
3
3
3
3
3
3
3
3
3
3
3
3
3
3
3
3
3
3
3
3
3
3
3
3
3
3
3
3
3
3
3
3
3
3
3
3
3
3
3
3
3
3
3
3
3
3
3
3
3
3
3
3
3
3
3
3
3
3
3
3
3
3
3
3
3
3
3
3
3
3
3
3
3
3
3
3
3
3
3
3
3
3
3
3
3
3
3
3
3
3
3
3
3
3
3
3
3
3
3
3
3
3
3
3
3
3
3
3
3
3
3
3
3
3
3
3
3
3
3
3
3
3
3
3
3
3
3
3
3
3
3
3
3
3
3
3
3
3
3
3
3
3
3
3
3
3
3
3
3
3
3
3
3
3
3
3
3
3
3
3
3
3
3
3
3
3
3
3
3
3
3
3
3
3
3
3
3
3
3
3
3
3
3
3
3
3
3
3
3
3
3
3
3
3
3
3
3
3
3
3
3
3
3
3
3
3
3
3
3
3
3
3
3
3
3
3
3
3
3
3
3
3
3
3
3
3
3
3
3
3
3
3
3
3
3
3
3
3
)
;

boundaryField
{
    leftWall
    {
        type            calculated;
        value           nonuniform List<scalar> 
50
(
2
2
2
2
2
1.78448
0.506543
0.803839
1.00062
1.00009
1.00009
1.00009
1.00009
1.00021
1.00005
1.00952
2.03808
2.99994
2.99997
2.99996
2.9999
2.99977
2.99997
2.99999
3
3
3
3
3
3
3
3
2.99999
2.99999
2.99996
2.99995
2.99995
2.99995
2.99995
2.99994
2.99994
2.99994
2.99995
2.99999
3
3
3
3
3
3
)
;
    }
    rightWall
    {
        type            calculated;
        value           nonuniform List<scalar> 
50
(
1.91267
1.91154
1.00726
0.4452
0.381503
0.438709
0.646487
0.905852
0.926556
1.16658
1.18655
1.19501
2.17469
2.98192
2.98449
2.99855
2.99999
2.99999
2.99997
2.99988
2.99996
3
3
3
3
3
3
2.99999
2.99998
2.99998
2.99999
3
3
3
3
3
3
3
3
3
3
3
3
3
3
3
3
3
3
3
)
;
    }
    lowerWall
    {
        type            calculated;
        value           nonuniform List<scalar> 
62
(
2
2
2
2
2
2
2
2
2
2
2
2
2
2
2
2
2
2
2
2
2
1.99997
1.99994
1.99994
1.99994
1.99999
2
2.00011
1.96847
0.786595
0.0273722
0.00494875
0.000953646
7.74456e-07
7.60126e-07
1.39998
1.37558
1.25612
1.32887
1.33535
1.1779
1.18621
1.08484
1.39998
1.66295
1.58936
1.61732
1.78371
1.81646
1.83522
1.8437
1.86377
1.8709
1.87618
1.87687
1.87989
1.89026
1.89726
1.91594
1.92721
1.93273
1.91267
)
;
    }
    atmosphere
    {
        type            calculated;
        value           nonuniform List<scalar> 
46
(
3
3
3
3
3
3
3
3
3
3
3
3
3
3
3
3
3
3
3
3
3
3
3
3
3
3
3
3
3
3
3
3
3
3
3
3
3
3
3
3
3
3
3
3
3
3
)
;
    }
    defaultFaces
    {
        type            empty;
    }
}


// ************************************************************************* //
