/*--------------------------------*- C++ -*----------------------------------*\
| =========                 |                                                 |
| \\      /  F ield         | OpenFOAM: The Open Source CFD Toolbox           |
|  \\    /   O peration     | Version:  2312                                  |
|   \\  /    A nd           | Website:  www.openfoam.com                      |
|    \\/     M anipulation  |                                                 |
\*---------------------------------------------------------------------------*/
FoamFile
{
    version     2.0;
    format      ascii;
    arch        "LSB;label=32;scalar=64";
    class       volScalarField;
    location    "1.45";
    object      alpha.galistan;
}
// * * * * * * * * * * * * * * * * * * * * * * * * * * * * * * * * * * * * * //

dimensions      [0 0 0 0 0 0 0];

internalField   nonuniform List<scalar> 
2268
(
1
1
1
1
1
1
1
1
1
1
1
1
1
1
1
1
1
1
1
1
1
0.99997
0.999935
1
1
1
1
1
1
1
1
1
1
1
1
1
1
1
1
1
1
1
1
1
0.99999
0.999935
1
1
1
1
1
1
1
1
1
1
1
1
1
1
1
1
1
1
1
1
1
1
0.999988
1
1
1
1
1
1
1
1
1
1
1
1
1
1
1
1
1
1
1
0.999998
0.999995
1
1
1
1
1
1
1
0.990386
0.98709
0.992213
0.998587
1
1
1
1
1
1
1
1
1
1
1
0.999982
0.999776
0.999885
0.89224
0.853975
0.804254
0.682361
0.528616
0.422863
0.398297
0.436832
0.524379
0.649542
0.758417
0.860308
0.943456
0.991491
1
1
1
1
0.99999
0.999891
0.999963
0.998735
0.972841
0.194154
0.18203
0.130328
0.048197
0.00538769
8.09158e-06
1.1854e-22
1.40465e-22
1.18122e-22
1.35196e-05
0.0422419
0.116025
0.238836
0.430609
0.65925
0.824706
0.932798
0.987071
0.999692
0.987512
0.870195
0.58827
0.379698
3.72299e-09
3.73176e-09
0.0160711
0.0130969
0.00114163
5.38875e-06
1.24552e-11
1.66829e-10
2.11806e-12
1.32166e-22
1.09189e-33
-3.27431e-25
6.04939e-35
7.7611e-25
0.0185717
0.111376
0.261863
0.419107
0.472022
0.386629
0.166627
0.0161913
8.99204e-05
0.390922
0.726367
0.757996
0.773639
0.861004
0.873514
0.873383
0.872958
0.891528
0.906786
0.910504
0.909206
0.906458
0.916018
0.924856
0.938694
0.944323
0.944323
0.91855
0.375691
0.328593
0.313969
0.316915
0.321764
0.245496
0.221863
0.388961
0.593686
0.631587
0.814051
0.877713
0.894132
0.923742
0.936773
0.936745
0.929817
0.907634
0.910304
0.262029
0.234006
0.231734
0.141146
0.191592
0.237894
0.218
0.218026
0.235549
0.369597
0.47313
0.576572
0.714636
0.686948
0.648142
0.55518
0.419929
0.294378
0.301599
0.334758
0.23272
0.264087
0.116237
0.125211
0.208043
0.300441
0.301934
0.279058
0.29054
0.39473
0.402526
0.385961
0.225936
0.0598282
0.00303249
0.0030368
0.00302631
0.00304244
0.354811
0.30023
0.203087
0.111815
0.111342
0.118583
0.157058
0.195812
0.217438
0.210764
0.228228
0.359065
0.161212
0.0133328
0.00513626
0.00514812
0.00831795
0.00715468
0.00314142
0.354861
0.2666
0.117174
0.107577
0.121179
0.121889
0.0999378
0.100638
0.101391
0.139678
0.183154
0.126509
0.0182172
0.013525
0.0170823
0.0173183
0.017284
0.0148209
0.00384117
0.308424
0.160048
0.0209153
0.0112356
0.0909543
0.119371
0.119258
0.0646181
0.0335853
0.0105153
0.0206172
0.00456281
0.0047306
0.024808
0.0271642
0.0184582
0.00732519
0.0120163
0.00578327
0.211601
0.0959701
0.00357317
0.00133572
0.000572227
0.0371056
0.0776503
0.047134
0.00469988
0.00480721
0.00401361
0.00400883
0.0207569
0.0273686
0.0220193
0.00580298
0.00246273
0.004703
0.00452265
6.59309e-09
4.30846e-09
3.752e-09
1.698e-06
1.83278e-05
2.48598e-06
2.61074e-10
8.56803e-09
1.82325e-09
1.42005e-12
4.78934e-16
9.28548e-24
3.0085e-16
3.92512e-12
2.76364e-15
2.43153e-20
3.39476e-20
2.43153e-20
0.00101946
0.000288654
7.45977e-09
6.82774e-06
3.43449e-09
3.50599e-08
2.47379e-08
3.94073e-09
6.26863e-07
4.4441e-07
4.41129e-07
1.54579e-07
1.17822e-08
7.16725e-08
1.58118e-07
8.44843e-08
3.64491e-08
3.04842e-16
4.60108e-08
3.70169e-07
9.50228e-09
1.40573e-09
5.50359e-10
2.43002e-10
2.44707e-10
7.27622e-09
1.76157e-07
3.645e-08
3.74982e-08
2.46527e-08
5.60158e-06
1.4798e-05
2.32152e-05
2.61572e-05
2.61467e-05
1.85046e-05
2.74592e-06
8.35404e-07
1.18723e-06
7.75387e-07
2.48013e-06
1.18336e-05
6.30854e-06
1.05647e-08
3.23846e-07
1.67619e-08
1.05563e-08
4.02944e-09
3.43193e-09
4.6288e-09
2.33593e-09
3.23878e-08
1.62355e-07
2.22291e-05
2.8536e-05
2.51939e-05
2.3558e-05
2.41661e-05
2.35954e-05
2.11374e-05
1.74844e-06
5.73865e-07
8.53428e-08
8.08229e-06
1.85119e-05
1.0537e-05
4.00203e-07
1.28064e-05
7.8337e-08
3.52441e-08
1.77594e-10
6.57656e-12
7.15578e-12
6.58184e-12
1.02716e-08
4.17432e-07
2.92408e-06
7.2422e-06
3.1055e-08
3.13067e-08
3.10549e-08
1.69719e-06
6.65703e-06
1.94093e-06
4.10243e-07
8.58306e-08
9.07394e-06
1.84557e-05
1.04952e-05
0.000392595
0.000170399
0.000524601
0.00117032
0.00092439
0.00016609
0.000486534
0.00197316
8.51826e-09
7.12116e-09
7.66796e-09
8.61536e-09
1.17373e-07
3.10672e-08
3.13067e-08
1.23688e-05
1.15571e-05
5.13933e-06
6.07957e-07
8.88005e-08
6.85258e-06
-1.58054e-08
5.17589e-05
0.00115389
0.00186006
0.0016823
0.00463885
0.00557715
0.00449182
0.0038527
0.00872717
5.34892e-09
6.63085e-09
6.93484e-08
1.06203e-06
1.86078e-06
6.82862e-07
2.48686e-06
3.02626e-05
6.88372e-05
1.18083e-05
3.77615e-07
8.95356e-08
2.85398e-07
-1.9271e-10
6.13058e-05
0.00234773
0.0023911
0.00151995
0.00247123
0.00521748
0.00541667
0.00536164
0.0020537
7.35081e-09
7.07025e-09
1.27173e-07
1.6818e-06
2.59203e-06
2.60944e-06
4.98683e-06
4.64237e-05
0.000304093
1.00275e-05
5.84135e-06
7.73453e-07
2.88355e-07
5.20834e-26
1.33304e-05
0.00218458
0.00221848
0.000462365
5.75469e-05
1.8046e-06
3.81145e-07
2.59179e-07
2.58795e-07
2.34177e-08
4.73036e-08
8.36206e-08
1.77945e-07
1.44954e-06
2.2997e-06
3.62852e-06
4.61755e-05
0.000303883
0.000282246
8.24203e-08
8.09311e-08
5.82838e-08
2.33919e-08
0.000813633
0.00173337
0.000599982
6.99989e-05
3.34912e-05
2.8056e-07
2.73397e-07
8.92991e-07
5.00169e-06
2.4997e-08
7.79817e-08
1.08913e-07
6.0576e-08
2.50365e-08
2.5041e-08
1.75496e-07
1.76646e-06
0.000178728
0.000696204
0.000605673
6.64497e-05
5.54211e-08
0.00194967
0.0024636
0.00170572
3.65481e-05
5.49945e-07
1.26535e-07
7.43853e-07
4.4399e-07
3.51367e-07
3.89191e-07
2.0283e-08
2.93084e-08
9.56079e-08
6.01922e-08
2.50401e-08
2.50374e-08
3.37995e-08
8.06758e-07
2.85084e-07
8.15933e-05
0.00070715
0.00209378
0.00275973
0.0027597
0.00214628
0.000902749
3.66559e-05
1.27133e-07
1.26069e-07
1.26097e-07
1.3298e-07
6.98253e-06
9.883e-06
7.94339e-09
1.46439e-08
3.07178e-08
3.41153e-08
3.23257e-08
2.58558e-08
7.95376e-08
3.14282e-07
2.75532e-07
2.65563e-08
1.70138e-08
1.75699e-08
7.93738e-06
0.000147745
0.000292897
0.000294815
6.52087e-05
1.26704e-07
1.26709e-07
1.41614e-07
1.45087e-06
1.52667e-05
1.59895e-05
5.39573e-09
5.64996e-08
7.89872e-08
7.32007e-08
3.43751e-08
1.83256e-08
3.18833e-08
1.22441e-08
1.21221e-08
1.05869e-07
1.58905e-07
6.67807e-08
7.88859e-09
7.88434e-09
7.85509e-09
7.85617e-09
2.24355e-06
1.35869e-06
3.13956e-06
3.44741e-06
1.56787e-05
1.57339e-05
1.25327e-05
3.65683e-09
3.49343e-08
9.3378e-08
9.33794e-08
8.16091e-08
1.40587e-08
1.27975e-08
1.28324e-08
1.20898e-08
7.95829e-08
1.93769e-07
1.77271e-07
1.67873e-07
1.10782e-07
4.67185e-07
3.42958e-06
5.92397e-06
6.12358e-06
1.27729e-05
1.5058e-05
9.25114e-06
2.17654e-06
6.10756e-09
3.15071e-09
1.86039e-09
3.2064e-08
9.33794e-08
8.21458e-08
6.23785e-08
2.48208e-08
1.93738e-08
4.17364e-08
1.86481e-07
1.91074e-07
2.69526e-07
4.22599e-07
9.67166e-07
1.53916e-06
5.63742e-06
5.35361e-06
6.0711e-06
1.21492e-05
1.26975e-05
3.92096e-10
3.96931e-10
5.87302e-09
1.86338e-09
1.86244e-09
2.35597e-09
5.43926e-08
1.34024e-07
1.67237e-07
1.59806e-07
1.41063e-07
1.83456e-07
1.58091e-07
5.8387e-08
3.04243e-07
1.07541e-06
1.20324e-06
1.74984e-06
1.75172e-06
5.71147e-10
5.73458e-10
5.71147e-10
5.73482e-10
2.28726e-09
6.54123e-09
8.55271e-09
1.88259e-09
2.11408e-09
5.78156e-09
2.12429e-08
1.55276e-07
1.53346e-07
1.51266e-07
8.33848e-08
2.23077e-08
4.91248e-10
7.90122e-08
4.03695e-07
3.59109e-07
7.96876e-10
6.48772e-10
6.43448e-10
6.38067e-10
6.92336e-10
8.58329e-10
1.19724e-09
1.22e-09
8.9723e-10
8.07992e-10
3.0007e-09
7.17997e-09
6.14472e-09
1.4688e-08
3.58078e-08
4.28619e-08
4.9456e-10
4.91958e-10
4.89575e-10
4.88686e-10
4.08354e-10
4.11504e-10
3.77746e-10
3.73418e-10
6.52743e-10
6.91925e-10
8.32974e-10
8.32885e-10
6.83469e-10
7.34777e-10
7.25527e-10
3.83264e-10
3.1781e-10
5.24351e-09
1.30723e-08
1.45952e-08
2.03724e-09
1.52101e-09
1.57952e-09
2.10035e-09
1.90473e-09
1.23765e-09
7.58458e-10
4.57953e-10
3.18956e-10
3.96488e-10
5.65425e-10
6.26079e-10
5.59129e-10
3.6376e-10
2.09303e-10
2.04902e-10
2.41655e-10
2.38968e-10
1.687e-10
1.61069e-10
6.32694e-09
2.01374e-08
1.92993e-08
6.42972e-09
2.41626e-09
2.74571e-09
3.10694e-09
2.64015e-09
1.37268e-09
7.44875e-10
3.92857e-10
1.87463e-10
1.06261e-10
1.02867e-10
1.21499e-10
1.12551e-10
9.36841e-11
7.0668e-11
5.48861e-11
5.48892e-11
5.60175e-11
4.72269e-11
4.44378e-11
5.16663e-09
2.46812e-08
2.89966e-08
1.10466e-08
2.57513e-09
2.54234e-09
2.78752e-09
1.23139e-09
3.97258e-10
1.8839e-10
9.85379e-11
4.46907e-11
2.2781e-11
1.829e-11
1.73047e-11
1.50879e-11
1.34434e-11
1.21209e-11
1.0849e-11
9.33949e-12
7.8016e-12
6.67735e-12
8.38665e-12
3.81783e-09
2.11441e-08
2.91569e-08
1.4955e-08
2.10404e-09
9.77444e-10
1.05361e-09
4.10329e-10
1.34184e-10
6.0411e-11
3.11593e-11
1.43216e-11
7.61078e-12
4.59026e-12
3.02457e-12
2.1732e-12
1.57685e-12
1.27887e-12
1.17019e-12
1.01321e-12
8.4677e-13
8.4584e-13
1.109e-12
3.13948e-09
1.32364e-08
2.91053e-08
1.06615e-08
3.29484e-09
2.60497e-10
2.82236e-10
2.3063e-10
8.29579e-11
3.5234e-11
1.3015e-11
5.93368e-12
2.74043e-12
1.28526e-12
6.53716e-13
3.49196e-13
1.95646e-13
1.16904e-13
8.36757e-14
7.2664e-14
5.82145e-14
5.57288e-14
1.21656e-13
2.78972e-09
6.08808e-09
8.84842e-09
7.65304e-09
2.38986e-09
2.57983e-10
2.09173e-10
1.4018e-10
6.2515e-11
2.71797e-11
1.07628e-11
3.40937e-12
1.12736e-12
4.20663e-13
1.61334e-13
6.1988e-14
2.45372e-14
1.0986e-14
6.06102e-15
3.95992e-15
3.10113e-15
4.16857e-15
8.63875e-15
2.79181e-09
5.29522e-09
6.16276e-09
3.99253e-09
9.9615e-10
4.74615e-10
3.56376e-10
1.5029e-10
5.75235e-11
2.35023e-11
7.58997e-12
2.15557e-12
6.41054e-13
2.03917e-13
6.99509e-14
2.41385e-14
7.66669e-15
2.28249e-15
6.42528e-16
2.54605e-16
1.47024e-16
1.78228e-16
5.66073e-16
2.61239e-09
5.13492e-09
5.91378e-09
3.20587e-09
1.0865e-09
6.85237e-10
5.26185e-10
1.92918e-10
5.70043e-11
1.85362e-11
4.95259e-12
1.56937e-12
4.96194e-13
1.65024e-13
5.76444e-14
1.9199e-14
5.573e-15
1.4385e-15
3.243e-16
5.51373e-17
1.47246e-17
1.00116e-17
2.85318e-17
2.09818e-09
5.01181e-09
5.91607e-09
3.24274e-09
1.16243e-09
8.17848e-10
5.5454e-10
1.79529e-10
5.12879e-11
1.32496e-11
3.64671e-12
1.22598e-12
4.05312e-13
1.42657e-13
4.92384e-14
1.55205e-14
4.29678e-15
1.08938e-15
2.3378e-16
3.29548e-17
7.07262e-18
9.468e-19
1.4926e-18
1.857e-09
4.04806e-09
5.55562e-09
3.18718e-09
1.57829e-09
7.43824e-10
4.42581e-10
1.23492e-10
3.52727e-11
9.59883e-12
2.91686e-12
9.27268e-13
3.14014e-13
1.08147e-13
3.48357e-14
1.00535e-14
2.70337e-15
6.41019e-16
1.29336e-16
2.04139e-17
2.73631e-18
3.1949e-19
3.10524e-19
1.656e-09
2.60168e-09
4.09646e-09
3.00651e-09
1.32589e-09
7.96332e-10
2.78257e-10
8.32429e-11
2.27459e-11
7.06551e-12
1.98518e-12
6.36786e-13
2.10423e-13
6.68741e-14
2.03676e-14
5.60465e-15
1.35133e-15
2.82998e-16
5.20175e-17
6.44456e-18
9.36989e-19
9.11328e-20
2.18957e-20
1.58809e-09
1.8191e-09
2.34277e-09
1.94659e-09
1.05145e-09
5.20776e-10
1.50209e-10
5.43911e-11
1.60143e-11
4.17516e-12
1.22388e-12
3.93176e-13
1.20563e-13
3.44724e-14
9.58999e-15
2.43773e-15
5.17081e-16
1.03613e-16
1.65833e-17
2.28172e-18
2.59473e-19
1.68544e-20
3.91321e-21
1.5326e-09
1.30717e-09
1.42045e-09
1.09159e-09
5.92111e-10
2.56837e-10
1.05353e-10
3.44781e-11
9.70599e-12
2.52365e-12
7.22701e-13
2.14916e-13
6.02681e-14
1.50853e-14
3.71901e-15
8.42528e-16
1.58461e-16
2.85145e-17
4.40128e-18
5.16331e-19
5.60645e-20
4.29095e-21
4.39939e-22
1.55577e-09
1.1083e-09
1.0057e-09
7.68294e-10
4.40171e-10
2.03828e-10
8.10171e-11
2.36097e-11
6.3215e-12
1.59803e-12
4.02104e-13
1.0425e-13
2.64309e-14
5.97712e-15
1.21471e-15
2.37593e-16
4.35451e-17
6.8091e-18
8.82337e-19
1.04971e-19
9.53231e-21
4.02281e-22
7.37555e-23
1.54669e-09
1.15359e-09
8.38193e-10
6.49084e-10
3.59001e-10
1.74471e-10
5.98373e-11
1.52139e-11
3.94221e-12
1.09598e-12
2.19542e-13
4.37285e-14
9.27852e-15
1.87731e-15
3.30059e-16
5.49547e-17
8.73592e-18
1.14297e-18
1.39831e-19
1.0849e-20
8.95046e-22
7.93133e-23
5.32816e-24
1.40415e-09
1.48741e-09
7.6184e-10
4.58506e-10
2.64839e-10
1.42598e-10
3.76205e-11
7.47436e-12
1.96143e-12
5.86419e-13
1.27439e-13
1.78446e-14
2.7027e-15
4.55756e-16
6.74658e-17
9.45321e-18
1.29344e-18
1.42347e-19
1.51646e-20
1.60862e-21
1.36367e-22
5.61169e-24
8.2397e-25
1.05425e-09
1.97964e-09
8.73308e-10
4.57173e-10
2.67824e-10
1.22287e-10
2.22778e-11
3.54676e-12
8.583e-13
2.51674e-13
5.25004e-14
7.97446e-15
7.52167e-16
9.21274e-17
1.23288e-17
1.68259e-18
2.06725e-19
2.30435e-20
2.47777e-21
1.68141e-22
1.21365e-23
1.01518e-24
5.93198e-26
3.7107e-10
1.97924e-09
1.51653e-09
6.89854e-10
3.15492e-10
8.28412e-11
1.3291e-11
2.56536e-12
5.69958e-13
1.30039e-13
2.3882e-14
3.46127e-15
3.38085e-16
2.32996e-17
2.67719e-18
3.26355e-19
3.84601e-20
3.71767e-21
3.32379e-22
2.84284e-23
1.79163e-24
9.36749e-26
7.18172e-27
2.95357e-11
1.40154e-09
1.57871e-09
1.09496e-09
3.53543e-10
6.06632e-11
1.05749e-11
2.62783e-12
4.69113e-13
9.09031e-14
1.527e-14
1.96487e-15
1.91962e-16
1.3514e-17
7.7984e-19
7.25299e-20
7.50429e-21
6.54588e-22
5.63217e-23
3.34067e-24
1.90961e-25
1.00934e-26
6.65748e-28
1.40247e-12
4.22161e-10
1.12172e-09
7.74435e-10
2.26852e-10
2.75824e-11
4.16532e-12
7.25673e-13
1.77842e-13
4.07742e-14
6.98781e-15
8.89889e-16
8.69024e-17
6.56255e-18
3.88757e-19
1.93623e-20
1.56729e-21
1.15475e-22
8.10299e-24
4.90115e-25
2.35826e-26
9.85876e-28
7.31934e-29
1.06108e-13
5.34604e-11
3.27013e-10
1.80268e-10
4.66181e-11
6.84044e-12
1.00415e-12
2.22487e-13
6.33885e-14
1.31428e-14
2.18721e-15
2.81575e-16
2.8916e-17
2.39003e-18
1.69157e-19
1.04667e-20
4.95733e-22
2.72421e-23
1.58524e-24
7.97234e-26
3.27199e-27
1.16873e-28
8.25234e-30
1.741e-14
4.82953e-12
3.26346e-11
1.65222e-11
3.79481e-12
7.10224e-13
1.78661e-13
4.42258e-14
9.89456e-15
1.69468e-15
2.63713e-16
3.48637e-17
4.07765e-18
4.26995e-19
4.01795e-20
3.45316e-21
2.56259e-22
1.40399e-23
4.50399e-25
1.73189e-26
5.59909e-28
1.71444e-29
1.08017e-30
2.54133e-15
1.6829e-13
1.20892e-12
6.36131e-13
2.02947e-13
6.00743e-14
1.60588e-14
3.84534e-15
7.6146e-16
1.37917e-16
2.0916e-17
2.88298e-18
3.7565e-19
4.75531e-20
5.67904e-21
6.61036e-22
7.01497e-23
5.98154e-24
3.83187e-25
1.58211e-26
2.65621e-28
4.37016e-30
1.39728e-31
3.28879e-16
1.86815e-14
6.74927e-14
3.43931e-14
1.1826e-14
3.08447e-15
7.16328e-16
1.44507e-16
2.57415e-17
3.95646e-18
5.69504e-19
7.90742e-20
1.14062e-20
1.75209e-21
2.75512e-22
4.02846e-23
5.2265e-24
6.09776e-25
6.01518e-26
4.72503e-27
2.70738e-28
9.6e-30
1.28605e-31
2.89137e-09
2.11917e-08
3.05614e-08
2.13368e-08
2.2274e-09
6.05785e-09
2.99313e-08
2.12315e-08
9.84099e-10
1.0219e-10
7.04519e-11
2.95828e-08
7.1505e-12
6.58763e-12
7.12812e-09
2.0164e-08
0.00354259
0.00307176
0.00166259
0.000179487
0.00946176
0.00947665
0.00997564
0.0099663
2.89462e-07
3.06643e-07
2.90509e-07
3.05715e-07
2.60222e-06
1.16982e-05
1.24823e-05
1.46114e-06
7.18338e-06
7.99416e-05
9.1353e-05
9.16059e-05
3.20871e-07
3.06641e-07
5.70606e-07
5.47866e-05
7.11474e-06
2.7649e-06
1.70011e-07
1.35755e-07
1.60543e-05
1.21686e-05
3.30357e-06
1.3788e-07
2.78546e-06
1.75964e-06
4.56079e-07
1.35899e-07
6.32918e-09
6.54709e-09
4.00367e-07
1.41461e-06
2.43109e-08
2.42664e-07
2.64582e-07
4.0135e-08
7.6232e-09
8.17501e-09
5.30269e-09
8.38605e-10
7.94589e-10
6.40701e-10
7.4472e-10
8.44827e-10
5.26722e-10
6.44889e-10
7.14774e-10
8.9618e-10
2.23796e-10
2.83789e-10
3.43293e-10
3.64804e-10
7.36244e-11
9.01524e-11
9.83363e-11
1.00659e-10
1.3069e-11
1.62597e-11
1.97201e-11
1.5969e-11
2.27777e-12
2.80098e-12
3.02678e-12
2.75538e-12
2.58919e-13
3.75976e-13
5.02331e-13
4.68801e-13
2.58482e-14
4.14631e-14
5.74323e-14
6.55703e-14
1.6725e-15
3.10305e-15
5.56535e-15
6.87053e-15
1.17077e-16
2.53087e-16
4.95955e-16
9.1548e-16
8.37746e-18
2.39405e-17
6.73822e-17
1.50147e-16
1.7167e-18
5.34703e-18
1.48353e-17
3.72896e-17
2.49171e-19
8.85793e-19
3.19311e-18
7.80132e-18
3.05216e-20
1.64422e-19
4.69298e-19
1.26538e-18
2.3603e-21
2.37911e-20
6.51566e-20
1.66517e-19
1.42023e-22
1.54273e-21
5.74126e-21
1.67537e-20
2.35449e-23
1.45331e-22
4.54495e-22
1.37109e-21
1.82359e-24
6.93618e-24
2.64756e-23
9.23173e-23
1.13971e-25
4.06788e-25
1.41355e-24
5.46553e-24
8.96633e-27
3.19655e-26
1.16567e-25
4.79927e-25
1.50936e-27
6.53296e-27
2.55594e-26
1.0302e-25
3.56834e-28
1.71319e-27
7.79726e-27
3.32106e-26
7.87067e-29
4.5888e-28
2.399e-27
1.09088e-26
1.39725e-29
1.02338e-28
6.36388e-28
3.26015e-27
1.669e-30
1.68965e-29
1.33775e-28
8.02487e-28
6.79985e-32
1.24451e-30
1.60576e-29
1.43496e-28
0.00116615
1.28495e-08
0.00131245
0.00138569
0.000124268
2.9299e-08
0.0211267
0.0270503
0.0079442
0.00540689
0.00400972
0.00579001
0.0099023
0.0273066
0.0201097
0.00279802
0.00246311
0.00424529
0.0043105
1.60252e-08
1.35611e-08
5.12077e-07
2.13741e-07
1.39737e-07
3.1276e-08
0.00181029
0.0233822
0.0327201
0.0105914
0.00615858
0.0041877
0.00616919
0.012494
0.00980201
0.00275293
0.00468927
0.0146684
0.0113974
1.8301e-07
1.0465e-07
6.7517e-05
0.000127072
6.45847e-05
1.02241e-05
1.01623e-05
0.0155942
0.0327251
0.0210566
0.0108034
0.00427627
0.00414137
0.00801155
0.00521304
0.00409431
0.00741759
0.014592
0.0156031
0.000365686
0.000902553
0.00421388
0.00539299
0.00320758
0.000329488
1.05387e-05
0.0224832
0.0327317
0.0327547
0.00688019
0.00414376
0.0041434
0.00919601
0.0166376
0.0117342
0.0120013
0.0163967
0.0169606
0.00759483
0.00901086
0.00797404
0.0102343
0.00995395
0.00459915
0.0112115
0.0327251
0.032761
0.031349
0.00864969
0.00422122
0.0097025
0.0166568
0.0166533
0.0165806
0.0163263
0.0171624
0.0171608
0.00643126
0.000341099
0.00171406
0.0254062
0.0282289
0.0282734
0.0226768
0.00677124
0.00602222
0.00702174
0.0142011
0.0155189
0.0166517
0.0166566
0.0166566
0.0142769
0.00902655
0.0165334
0.0171624
3.07182e-07
3.06838e-07
0.00438756
0.0129882
0.0116078
0.00246183
-1.12023e-20
3.05418e-24
-6.33009e-21
0.00838988
0.0166463
0.0166477
0.0166508
0.0156904
0.00591249
0.000736602
3.16295e-05
0.00328153
0.0154967
6.34808e-05
0.000286037
6.84539e-07
8.3815e-14
-1.13005e-22
-9.16029e-15
-1.94746e-13
1.37536e-05
0.000784776
0.00667572
0.0126283
0.0113454
0.00524991
0.000241592
6.41524e-11
6.46486e-11
6.41524e-11
4.67766e-09
0.00143463
7.48678e-05
0.000127433
8.51495e-05
1.00984e-05
2.98301e-06
4.69171e-07
5.24447e-06
7.59089e-05
0.00118547
0.000387002
0.000121811
2.05093e-11
2.05027e-11
2.05143e-11
9.8786e-11
2.13548e-10
1.16394e-09
3.96535e-09
1.05616e-07
0.000200455
0.000215039
0.000215037
0.000131354
8.52223e-06
1.02336e-06
7.76519e-06
0.000291546
0.000358585
1.32309e-05
1.69943e-11
2.32009e-11
6.26051e-11
1.63406e-10
4.92421e-10
1.29189e-09
2.87603e-09
5.02978e-09
1.10304e-08
1.40214e-07
0.000114228
0.000215039
6.42073e-05
3.47693e-06
1.56923e-06
1.6986e-05
0.000112962
3.06502e-06
1.94649e-06
1.68532e-11
5.61565e-11
2.29084e-10
4.12361e-10
9.44256e-10
3.02362e-09
5.39249e-09
6.58929e-09
9.36074e-09
3.2817e-07
2.93379e-07
3.47482e-05
1.0633e-05
1.06765e-06
8.54839e-06
1.74235e-05
9.14106e-06
9.86166e-06
3.9183e-06
1.69943e-11
5.49401e-11
2.55856e-10
4.39563e-10
8.46057e-10
2.78816e-09
6.46429e-09
1.01562e-08
1.13849e-08
4.31219e-06
5.99971e-06
1.08064e-08
5.05952e-07
7.7545e-07
8.46586e-06
1.46329e-05
9.29196e-06
9.9103e-06
3.44989e-06
1.68532e-11
2.96169e-11
1.68914e-10
3.3535e-10
4.81095e-10
1.27537e-09
3.92948e-09
8.52158e-09
1.13907e-08
2.04306e-06
1.05792e-06
1.50788e-09
1.49559e-07
4.71399e-07
1.53197e-06
2.85677e-06
3.70895e-06
4.11666e-06
8.87645e-07
1.00389e-10
8.88613e-10
1.77109e-10
2.04745e-10
1.54323e-10
1.82074e-10
7.87938e-10
4.13338e-09
8.96728e-09
7.75283e-10
7.87258e-10
1.50424e-09
1.50791e-09
1.54236e-08
7.62001e-08
4.96222e-07
7.17537e-07
8.93604e-07
3.45624e-07
1.43518e-10
1.83439e-09
4.34459e-10
1.75086e-10
7.74172e-11
4.87195e-11
2.47867e-10
2.48076e-09
7.59725e-09
1.11553e-09
1.99283e-09
2.3574e-09
1.63922e-09
6.89371e-09
2.25953e-08
8.46113e-08
1.2239e-09
2.45854e-10
2.45863e-10
1.0885e-09
1.64021e-09
4.43328e-10
1.69543e-10
6.97821e-11
3.80705e-11
1.2105e-10
2.48258e-09
7.75201e-09
1.54996e-09
2.42485e-09
2.80619e-09
3.01619e-09
5.10685e-09
2.90591e-09
2.45854e-10
2.45853e-10
2.45856e-10
2.68348e-10
7.53184e-10
6.0474e-10
3.11614e-10
1.22003e-10
5.40905e-11
2.70485e-11
1.38773e-10
2.57693e-09
7.75034e-09
1.06157e-09
1.40325e-09
1.54493e-09
1.58882e-09
1.56214e-09
3.30558e-10
2.45851e-10
2.45877e-10
2.67525e-10
2.76395e-10
2.99891e-10
1.15658e-10
1.05002e-10
5.1086e-11
2.88553e-11
1.48981e-11
1.67771e-10
3.00747e-09
7.23666e-09
3.75622e-10
3.20441e-10
2.30775e-10
2.29377e-10
2.62562e-10
2.25168e-10
2.55901e-10
2.07176e-10
1.88425e-10
1.74435e-10
1.21819e-10
1.61887e-11
2.99008e-11
1.56284e-11
1.17667e-11
1.37513e-11
2.15593e-10
3.47524e-09
6.53953e-09
6.85852e-11
3.5848e-11
2.70391e-11
2.07505e-11
5.99977e-11
1.37445e-10
1.72819e-10
9.9564e-11
4.84571e-11
3.60648e-11
2.11333e-11
3.40322e-12
7.81813e-12
7.00164e-12
5.12954e-12
1.46798e-11
2.494e-10
3.93989e-09
5.86658e-09
1.08883e-11
6.14419e-12
3.53284e-12
3.08531e-12
1.66471e-11
4.62391e-11
5.1667e-11
2.14926e-11
6.47619e-12
5.8593e-12
3.80622e-12
1.94505e-12
2.46624e-12
3.10554e-12
3.449e-12
1.27034e-11
3.04311e-10
4.83447e-09
5.02898e-09
1.51588e-12
9.75445e-13
7.99269e-13
1.04213e-12
5.00918e-12
1.32486e-11
1.51935e-11
6.73527e-12
2.00234e-12
2.01011e-12
1.57418e-12
1.30725e-12
1.49111e-12
1.72268e-12
2.36761e-12
1.2812e-11
3.87525e-10
5.33154e-09
4.7941e-09
2.6328e-13
1.62894e-13
1.61035e-13
2.87808e-13
1.06456e-12
3.13722e-12
3.82776e-12
2.20722e-12
9.39116e-13
9.58415e-13
8.58331e-13
8.01321e-13
8.36351e-13
9.39877e-13
1.61412e-12
7.41049e-12
4.42292e-10
5.35335e-09
4.06555e-09
4.61158e-14
3.66961e-14
4.59835e-14
9.95924e-14
2.57963e-13
7.31325e-13
9.42415e-13
7.07042e-13
4.45843e-13
4.51014e-13
4.27295e-13
4.13088e-13
4.28409e-13
5.30198e-13
1.26788e-12
4.76183e-12
4.68571e-10
5.27283e-09
2.89419e-09
7.89968e-15
9.5224e-15
1.57414e-14
3.38174e-14
7.74448e-14
1.74685e-13
2.44401e-13
2.23792e-13
1.87109e-13
1.92159e-13
1.89007e-13
1.96011e-13
2.38658e-13
3.44144e-13
1.61793e-12
1.31348e-11
5.48063e-10
4.41452e-09
2.08581e-09
1.38838e-15
2.75385e-15
5.32852e-15
1.08666e-14
2.23002e-14
4.41811e-14
6.47901e-14
6.94034e-14
6.84561e-14
7.22758e-14
7.08268e-14
9.20604e-14
2.12407e-13
5.23931e-13
3.23565e-12
4.44423e-11
8.57647e-10
3.26566e-09
1.73238e-09
3.26024e-16
7.86293e-16
1.65601e-15
3.26865e-15
6.20441e-15
1.12742e-14
1.68874e-14
1.97708e-14
2.0074e-14
1.52224e-14
2.50803e-14
9.0813e-14
3.06199e-13
9.74348e-13
8.59707e-12
1.18264e-10
1.57639e-09
3.0944e-09
1.56311e-09
7.54972e-17
2.06024e-16
4.55743e-16
8.93986e-16
1.61849e-15
2.72714e-15
3.89058e-15
4.29159e-15
2.71197e-15
7.61499e-15
3.29166e-14
1.3594e-13
5.24744e-13
2.05049e-12
1.78794e-11
2.13242e-10
1.80182e-09
2.90005e-09
1.09474e-09
1.59158e-17
4.59971e-17
1.0647e-16
2.1123e-16
3.70716e-16
5.84364e-16
8.23369e-16
8.12178e-16
2.72673e-15
1.36734e-14
6.81164e-14
3.01185e-13
1.304e-12
5.15234e-12
3.80773e-11
3.49063e-10
1.64523e-09
1.9404e-09
6.09161e-10
2.77276e-18
8.45296e-18
2.06576e-17
4.20663e-17
7.26479e-17
1.08897e-16
1.61925e-16
8.98076e-16
5.21051e-15
2.97725e-14
1.5474e-13
7.1311e-13
3.31661e-12
1.49832e-11
8.88442e-11
4.54129e-10
1.17544e-09
1.18188e-09
3.38412e-10
3.84665e-19
1.26256e-18
3.33996e-18
7.33325e-18
1.44058e-17
3.53249e-17
1.63576e-16
1.09616e-15
7.03921e-15
4.23821e-14
2.33471e-13
1.1678e-12
5.53395e-12
2.26152e-11
9.43246e-11
4.40291e-10
9.92176e-10
7.91578e-10
2.19516e-10
4.35684e-20
1.5738e-19
4.68887e-19
1.21914e-18
3.51377e-18
1.63628e-17
1.09228e-16
7.73235e-16
5.1719e-15
3.20922e-14
1.82307e-13
9.60307e-13
4.79016e-12
1.9837e-11
7.20603e-11
3.09677e-10
5.95529e-10
5.28822e-10
1.2811e-10
3.98425e-21
1.72614e-20
6.18543e-20
2.15763e-19
9.90128e-19
6.31415e-18
4.54114e-17
3.2789e-16
2.31307e-15
1.53502e-14
9.40718e-14
5.4872e-13
2.81892e-12
1.19659e-11
4.23277e-11
1.23592e-10
2.82159e-10
2.82031e-10
8.37132e-11
3.34443e-22
1.76769e-21
8.14571e-21
4.1033e-20
2.5828e-19
1.87547e-18
1.38784e-17
9.89365e-17
7.08013e-16
4.89309e-15
3.18366e-14
2.00872e-13
1.16991e-12
5.39545e-12
1.63326e-11
4.49373e-11
7.56585e-11
1.11312e-10
4.72594e-11
2.15509e-23
1.6971e-22
1.05512e-21
7.26751e-21
5.58276e-20
4.38547e-19
3.41143e-18
2.47941e-17
1.75129e-16
1.18911e-15
7.74234e-15
4.85815e-14
2.57364e-13
1.64406e-12
5.72448e-12
1.4311e-11
2.70431e-11
4.68133e-11
2.3693e-11
2.1144e-24
1.84479e-23
1.39929e-22
1.1038e-21
9.47385e-21
7.76446e-20
6.0549e-19
3.96163e-18
2.53281e-17
1.6544e-16
1.05063e-15
6.21734e-15
3.34909e-14
4.0652e-13
1.42879e-12
4.33404e-12
1.00656e-11
1.67531e-11
1.03026e-11
4.23123e-25
3.14493e-24
2.32301e-23
1.7659e-22
1.27009e-21
1.00818e-20
7.8892e-20
6.41082e-19
4.62006e-18
2.97901e-17
1.82829e-16
1.05449e-15
5.35898e-15
8.39761e-14
4.20745e-13
1.03731e-12
2.41036e-12
5.28543e-12
3.67086e-12
1.32996e-25
9.48713e-25
5.77191e-24
3.24598e-23
2.18113e-22
1.51953e-21
1.13549e-20
8.6402e-20
6.33456e-19
4.31845e-18
2.74733e-17
1.58446e-16
7.91284e-16
1.50551e-14
8.95452e-14
2.6401e-13
7.06645e-13
1.13832e-12
1.19824e-12
4.46669e-26
3.25038e-25
1.86313e-24
9.38963e-24
4.52008e-23
2.30193e-22
1.36763e-21
9.65319e-21
7.28625e-20
5.39005e-19
3.71607e-18
2.22224e-17
1.17561e-16
2.67689e-15
1.82221e-14
5.20743e-14
1.05192e-13
2.39781e-13
2.83773e-13
1.39687e-26
9.89779e-26
5.57049e-25
2.6281e-24
1.09528e-23
4.36339e-23
1.96494e-22
1.05362e-21
7.27903e-21
5.70882e-20
4.36842e-19
2.86163e-18
1.52182e-17
4.40314e-16
2.99682e-15
9.43115e-15
1.88104e-14
3.11642e-14
9.49688e-14
3.80337e-27
2.83911e-26
1.64597e-25
7.72818e-25
3.10378e-24
1.10462e-23
3.79605e-23
1.41665e-22
7.28555e-22
5.37914e-21
4.48754e-20
3.32889e-19
1.93313e-18
6.54191e-17
4.68824e-16
1.55855e-15
1.72244e-15
7.17138e-15
2.69811e-14
8.97583e-28
7.16108e-27
4.29316e-26
1.99561e-25
7.82281e-25
2.66324e-24
8.38411e-24
2.55091e-23
9.10427e-23
5.05797e-22
4.18914e-21
3.47601e-20
2.29413e-19
8.70631e-18
6.90723e-17
2.36483e-16
3.1236e-16
1.25929e-15
3.689e-15
)
;

boundaryField
{
    leftWall
    {
        type            zeroGradient;
    }
    rightWall
    {
        type            zeroGradient;
    }
    lowerWall
    {
        type            zeroGradient;
    }
    atmosphere
    {
        type            inletOutlet;
        inletValue      uniform 0;
        value           nonuniform List<scalar> 
46
(
0
0
0
0
0
0
0
0
0
0
0
0
0
0
0
0
0
0
0
0
0
0
0
6.79985e-32
1.24451e-30
1.60576e-29
1.43496e-28
8.97583e-28
7.16108e-27
4.29316e-26
1.99561e-25
7.82281e-25
2.66324e-24
8.38411e-24
2.55091e-23
9.10427e-23
5.05797e-22
4.18914e-21
3.47601e-20
2.29413e-19
8.70631e-18
6.90723e-17
2.36483e-16
3.1236e-16
1.25929e-15
3.689e-15
)
;
    }
    defaultFaces
    {
        type            empty;
    }
}


// ************************************************************************* //
