/*--------------------------------*- C++ -*----------------------------------*\
| =========                 |                                                 |
| \\      /  F ield         | OpenFOAM: The Open Source CFD Toolbox           |
|  \\    /   O peration     | Version:  2312                                  |
|   \\  /    A nd           | Website:  www.openfoam.com                      |
|    \\/     M anipulation  |                                                 |
\*---------------------------------------------------------------------------*/
FoamFile
{
    version     2.0;
    format      ascii;
    arch        "LSB;label=32;scalar=64";
    class       volScalarField;
    location    "1.45";
    object      alpha.water;
}
// * * * * * * * * * * * * * * * * * * * * * * * * * * * * * * * * * * * * * //

dimensions      [0 0 0 0 0 0 0];

internalField   nonuniform List<scalar> 
2268
(
3.06174e-10
1.13579e-10
5.01815e-11
3.51605e-11
2.95499e-11
2.75412e-11
2.71051e-11
2.64756e-11
2.58957e-11
2.47263e-11
2.38146e-11
2.36711e-11
2.36547e-11
2.45128e-11
2.73119e-11
3.35562e-11
4.44452e-11
6.70847e-11
1.15494e-10
2.05909e-10
2.90884e-10
3.6373e-10
4.66773e-10
1.09493e-09
4.22138e-10
1.7634e-10
1.05854e-10
7.18667e-11
5.80588e-11
4.8459e-11
4.49322e-11
4.28626e-11
4.22368e-11
4.28054e-11
4.27799e-11
4.32029e-11
4.53718e-11
5.03476e-11
5.93031e-11
8.44283e-11
1.38857e-10
3.23113e-10
4.77508e-10
1.87039e-09
3.82763e-09
2.65503e-09
1.38639e-09
1.01358e-09
5.24045e-10
2.96518e-10
1.5631e-10
1.59816e-10
9.1399e-11
7.43439e-11
5.79025e-11
8.98257e-11
6.41786e-11
5.54594e-11
5.19458e-11
5.3559e-11
5.95211e-11
7.27197e-11
1.08957e-10
1.93672e-10
3.41628e-10
8.14122e-10
1.99848e-09
3.36399e-09
2.52942e-09
9.4369e-10
1.14355e-09
4.37983e-10
1.61064e-10
5.8371e-11
5.82747e-11
5.81829e-11
5.80893e-11
5.79959e-11
5.0962e-10
1.52091e-10
5.85171e-11
4.2331e-11
4.341e-11
4.15933e-11
4.92065e-11
6.78825e-11
1.02269e-10
1.70499e-10
3.53871e-10
9.03553e-10
1.30112e-09
1.01503e-09
4.37078e-11
4.36909e-11
4.37078e-11
4.36909e-11
8.12902e-09
0.00961428
0.0129095
0.0077837
0.00141243
1.58845e-09
1.57505e-09
1.34117e-11
1.34013e-11
1.34467e-11
1.34554e-11
1.34925e-11
1.6091e-11
2.14998e-11
4.14096e-11
7.28645e-11
5.27005e-11
1.29539e-11
9.43066e-12
0.10776
0.146025
0.19574
0.317637
0.471076
0.576427
0.601024
0.562647
0.475284
0.350222
0.241383
0.139591
0.0565387
0.00850869
6.08377e-09
2.1121e-11
1.7872e-20
1.94007e-21
1.00641e-12
4.96912e-15
5.64134e-15
4.98793e-15
0.0153117
0.696601
0.777805
0.867253
0.951608
0.992241
0.996014
0.996876
0.997103
0.997426
0.997564
0.955402
0.882624
0.760591
0.569208
0.340715
0.175287
0.0672017
0.0128848
9.62502e-13
0.0119407
0.129439
0.41072
0.605801
0.218269
0.324714
0.647635
0.929578
0.95245
0.951008
0.968066
0.994221
0.997567
0.997571
0.997575
0.998623
0.999002
0.999201
0.980816
0.888295
0.738054
0.580819
0.527532
0.612823
0.832917
0.983805
0.985413
0.0139477
0.0669142
0.171015
0.162678
0.0780908
0.0576364
0.0381705
0.0292611
0.0281324
0.0401282
0.0433077
0.0433074
0.0409944
0.0409763
0.0407294
0.0348404
0.0292051
0.0232989
0.0164516
0.0127824
0.0174501
0.10163
0.226091
0.251372
0.431094
0.463901
0.292188
0.0234631
0.00802745
0.0157065
0.0387988
0.0408794
0.0254089
0.0127914
0.0127853
0.0127849
0.0136929
0.015142
0.0127824
0.0306859
0.240461
0.0875032
0.106612
0.319626
0.53165
0.597924
0.59854
0.302366
0.0104063
0.00790375
0.00897392
0.00900287
0.0427048
0.185565
0.351482
0.419681
0.32325
0.0127824
0.0202194
0.562675
0.0930896
0.0642688
0.0455271
0.149873
0.345772
0.422761
0.289532
0.0293595
0.00790463
0.0101773
0.156895
0.323152
0.579597
0.808583
0.851683
0.569129
0.0411516
0.110422
0.653924
0.412038
0.301091
0.142574
0.0636131
0.141107
0.364051
0.125305
0.02574
0.0221243
0.257803
0.56707
0.722637
0.833331
0.881839
0.881843
0.621663
0.2116
0.603417
0.660251
0.660254
0.660242
0.552258
0.16219
0.0935008
0.188741
0.179061
0.0355691
0.148416
0.520797
0.876499
0.881785
0.881788
0.881832
0.88185
0.565157
0.155863
0.666777
0.599454
0.650574
0.660246
0.658296
0.576039
0.170521
0.214572
0.325038
0.157167
0.303626
0.578263
0.793318
0.787905
0.837573
0.880649
0.715272
0.359302
0.168761
0.361865
0.431425
0.428952
0.623498
0.708003
0.615829
0.278592
0.293443
0.425464
0.415728
0.601262
0.765236
0.490583
0.248219
0.316999
0.395223
0.40751
0.0986754
-7.05071e-09
2.96356e-21
0.00406911
0.0660016
0.141899
0.256772
0.615172
0.914932
0.992581
0.995787
0.99739
0.99812
0.999321
0.999325
0.999328
0.999366
0.999577
0.999935
0.998948
0.999616
0.999939
0.999993
0.996398
1.06029e-06
1.87345e-07
2.04898e-07
0.000708797
8.58427e-05
0.000186926
0.0146873
0.00571792
0.159742
0.771749
0.97642
0.946565
0.935316
0.942011
0.919825
0.946862
0.998186
1
1
0.999999
1
1
1
1.0689e-06
4.10518e-07
1.14894e-05
1.37662e-06
8.51754e-05
0.000314268
0.000283641
4.0281e-05
4.01802e-05
0.0103589
0.392915
0.854457
0.735979
0.452559
0.364607
0.708734
0.999262
1
1
0.999997
0.999954
0.99992
0.99992
8.93116e-07
2.61084e-06
4.13703e-05
0.000144665
0.000127155
0.000103255
0.000200487
0.000115713
5.35167e-05
2.91606e-05
0.0152317
0.526617
0.464667
0.14338
0.135614
0.663624
0.998803
0.999999
1
0.999996
0.999857
0.999888
0.999957
4.92841e-07
4.28277e-06
1.06728e-05
1.35552e-05
1.3824e-07
1.38362e-07
0.000632479
0.00119786
0.00037218
3.09088e-05
2.97792e-05
0.239199
0.243822
0.0101722
0.105194
0.800281
0.998697
0.996197
0.992298
0.994251
0.997446
0.996295
0.984814
4.93224e-07
4.25516e-06
6.91177e-06
1.38635e-07
1.3824e-07
1.3824e-07
0.000653455
0.00140061
0.000500047
2.96278e-05
0.0103793
0.111451
0.0410331
0.000468236
0.0885024
0.697967
0.875047
0.724656
0.700937
0.759051
0.851251
0.897446
0.887029
6.27743e-07
6.74617e-06
4.33579e-06
8.57578e-07
1.3824e-07
1.3824e-07
0.000231899
0.00139281
0.000491283
0.00350193
0.0246315
0.0211166
0.00355208
0.000440197
0.0474192
0.418507
0.333146
0.074584
0.038561
0.0702328
0.148454
0.210912
0.290726
8.67214e-06
1.77899e-05
2.13952e-05
7.57757e-07
1.3824e-07
1.38407e-07
7.25344e-05
0.000263079
0.00173978
0.00315501
0.024547
0.0225229
0.00933828
0.000468236
0.0599672
0.221393
0.0828875
0.000367774
4.6681e-05
1.1981e-06
8.37093e-10
1.02544e-10
5.17301e-11
2.55283e-05
4.24964e-05
4.24946e-05
2.43816e-05
1.04209e-05
4.90695e-06
4.63112e-06
3.15056e-05
2.39391e-05
0.000390875
0.00552322
0.0108915
0.00130029
0.0252047
0.114441
0.169547
0.0501848
0.000920249
0.000516875
9.00176e-07
6.80885e-07
2.44018e-06
1.25674e-06
1.75388e-05
4.096e-05
4.21995e-05
3.70444e-05
3.0891e-05
3.21803e-05
2.03027e-05
3.00855e-05
2.36852e-05
1.25694e-05
1.11394e-05
1.16842e-05
1.11758e-05
0.03561
0.119729
0.0754574
0.00466954
0.000702506
0.000138545
7.57564e-07
4.33283e-05
0.000105884
9.64413e-05
6.08222e-06
5.60687e-06
5.62807e-06
4.98493e-06
1.37864e-05
3.26947e-05
3.8849e-05
3.87932e-05
3.54528e-05
1.12093e-05
1.28587e-05
1.11155e-05
0.0171883
0.0226003
0.00908682
7.02701e-07
2.05606e-06
7.21762e-07
7.20792e-07
3.08194e-05
0.000153884
0.000153509
0.000154104
4.64832e-08
4.66687e-08
6.444e-08
6.43817e-08
8.15542e-08
5.57505e-07
1.81507e-05
3.1975e-05
2.84105e-05
1.12083e-05
0.000107718
0.000478629
7.55435e-07
7.19199e-07
7.19471e-07
7.23186e-07
7.24303e-07
8.82837e-06
1.0709e-06
7.4637e-05
0.000107569
0.00010373
6.97915e-05
1.88361e-07
9.70941e-07
6.51628e-07
2.5134e-07
2.21459e-09
2.00675e-09
2.3974e-09
4.84749e-08
5.74828e-06
1.87197e-05
7.50592e-06
1.46809e-06
1.02074e-06
9.7401e-07
1.25228e-06
1.47096e-06
7.27748e-07
4.59594e-05
5.84459e-05
4.53906e-05
6.45825e-06
1.46736e-09
1.46741e-09
3.03397e-06
4.46313e-06
2.2324e-06
4.3158e-07
2.95742e-07
2.2254e-07
3.6354e-08
1.04004e-08
4.00911e-09
1.66047e-06
7.5195e-07
2.77548e-06
2.51695e-06
2.37877e-06
1.73227e-06
1.55163e-06
9.05557e-06
1.14487e-05
2.53781e-05
9.31193e-06
1.46939e-09
1.47061e-09
1.4667e-09
4.44777e-06
4.44682e-06
1.18735e-06
2.98524e-07
4.44788e-07
4.9942e-07
3.54743e-07
7.28015e-08
2.19671e-08
-4.09873e-12
1.70097e-17
3.18995e-09
3.02323e-10
5.4717e-12
2.9549e-07
6.36408e-08
3.91023e-11
3.14655e-14
8.65455e-09
8.12518e-09
4.95939e-07
2.70561e-09
1.4672e-09
1.96646e-06
3.30428e-06
8.49086e-08
2.08296e-08
3.06651e-07
4.99288e-07
4.97933e-07
3.18294e-07
6.33656e-08
5.13625e-09
5.00558e-11
4.40453e-11
3.10902e-10
-7.4704e-14
1.46886e-17
1.02015e-12
2.39585e-09
9.75015e-09
3.2154e-08
4.1615e-08
3.22878e-08
1.46082e-08
1.45773e-08
7.6921e-08
6.03881e-08
1.24402e-08
3.14677e-08
3.73582e-07
4.65594e-07
3.93606e-07
1.04424e-07
1.3815e-09
1.38774e-09
1.67221e-09
1.49072e-09
1.41213e-09
1.18882e-09
8.49937e-10
7.51921e-10
6.65434e-10
6.18245e-10
6.21285e-10
1.17303e-09
4.46386e-09
1.48532e-08
1.41869e-08
1.88501e-07
4.85966e-08
1.25292e-08
1.0017e-07
3.51925e-07
2.96245e-07
3.23512e-09
3.20534e-09
3.34784e-09
3.54535e-09
3.18515e-09
2.0093e-09
1.49256e-09
1.14361e-09
9.15685e-10
6.95579e-10
6.26766e-10
6.15178e-10
6.56126e-10
1.01442e-09
2.36239e-09
3.82616e-09
4.66357e-09
4.18194e-07
5.58489e-08
2.5294e-08
4.64686e-08
4.14142e-08
8.87888e-09
5.7245e-09
5.20986e-09
5.59012e-09
4.90669e-09
3.07855e-09
1.68493e-09
1.16836e-09
6.85028e-10
5.52538e-10
4.72686e-10
3.87314e-10
3.40377e-10
3.62667e-10
4.2328e-10
4.89215e-10
6.89768e-10
1.21487e-09
4.73573e-07
5.59715e-07
4.18976e-08
8.67187e-09
9.87453e-09
1.08947e-08
1.17189e-08
8.26861e-09
5.2882e-09
3.67886e-09
2.32253e-09
1.27792e-09
6.74849e-10
4.38222e-10
3.11486e-10
2.30248e-10
1.82049e-10
1.51517e-10
1.32583e-10
1.36332e-10
1.65541e-10
2.5052e-10
3.62004e-10
4.31869e-07
2.66556e-06
1.08958e-06
9.18824e-09
1.16665e-08
1.89581e-08
1.75523e-08
4.93586e-09
1.52795e-09
1.277e-09
8.96619e-10
4.89282e-10
2.77178e-10
1.93357e-10
1.36267e-10
9.01831e-11
6.41763e-11
4.98825e-11
4.05574e-11
3.4335e-11
3.50575e-11
4.29277e-11
8.62357e-11
3.44535e-07
2.67037e-06
2.4789e-06
9.05812e-09
1.38354e-08
1.89439e-08
1.26668e-08
3.24723e-10
3.23838e-10
4.26644e-10
3.88458e-10
2.22388e-10
1.38667e-10
8.81226e-11
5.44714e-11
3.41328e-11
2.07803e-11
1.35103e-11
9.82101e-12
6.63922e-12
5.80294e-12
7.82897e-12
1.24082e-11
1.97746e-07
1.91721e-06
3.16709e-06
6.73207e-09
2.60103e-09
5.54086e-09
1.69538e-09
3.24113e-10
3.33491e-10
2.74797e-10
1.87801e-10
1.31206e-10
8.09913e-11
4.80864e-11
2.80155e-11
1.61174e-11
8.91636e-12
4.80682e-12
2.63706e-12
1.44617e-12
7.55179e-13
6.93234e-13
1.54741e-12
7.26265e-08
1.14792e-06
3.17204e-06
1.32053e-06
-9.18262e-14
-5.74901e-18
1.14171e-10
7.19478e-10
5.80675e-10
3.50564e-10
2.03187e-10
1.23366e-10
7.13844e-11
4.1296e-11
2.29897e-11
1.23823e-11
6.30948e-12
3.05987e-12
1.38144e-12
6.21372e-13
1.7144e-13
9.34744e-14
1.34551e-13
7.26685e-08
5.10911e-07
3.16253e-06
2.75172e-06
3.80854e-08
-1.73136e-13
1.14525e-09
1.48974e-09
6.77299e-10
4.08429e-10
2.27191e-10
1.37394e-10
7.62151e-11
4.17717e-11
2.23711e-11
1.15423e-11
5.60038e-12
2.54617e-12
9.83156e-13
3.84249e-13
9.41337e-14
1.67794e-14
1.30807e-14
3.72344e-07
7.90084e-07
2.42295e-06
2.8229e-06
1.38575e-07
-5.48486e-12
4.28805e-09
2.07292e-09
6.60987e-10
4.32588e-10
2.42654e-10
1.44246e-10
7.74224e-11
4.05591e-11
2.0665e-11
1.01765e-11
4.62973e-12
1.9627e-12
7.53572e-13
2.29837e-13
7.44424e-14
9.23043e-15
2.01152e-15
7.20176e-07
1.87553e-07
9.81477e-07
1.54168e-06
5.42225e-07
1.14946e-13
9.48052e-09
1.97886e-09
6.67469e-10
4.52086e-10
2.59294e-10
1.41495e-10
7.3235e-11
3.66712e-11
1.78636e-11
8.26314e-12
3.55395e-12
1.44017e-12
5.19643e-13
1.41229e-13
4.96608e-14
7.07558e-15
8.13799e-16
7.20158e-07
7.3477e-08
1.07202e-07
1.64386e-07
1.72828e-07
2.21772e-08
1.27563e-08
1.84011e-09
8.03275e-10
4.80162e-10
2.57358e-10
1.30286e-10
6.4053e-11
3.06824e-11
1.40197e-11
6.02427e-12
2.49114e-12
9.48099e-13
3.23754e-13
9.14229e-14
2.22728e-14
4.1803e-15
5.49719e-16
7.03838e-07
7.33181e-08
5.06138e-08
3.66074e-08
7.17704e-09
6.90455e-09
2.8964e-09
1.70238e-09
1.00177e-09
4.71663e-10
2.34186e-10
1.11942e-10
5.17297e-11
2.32347e-11
1.01001e-11
4.16315e-12
1.58926e-12
5.5686e-13
1.75466e-13
4.2039e-14
1.04736e-14
1.69714e-15
2.40345e-16
6.81907e-07
5.97898e-08
2.75537e-08
1.5215e-08
6.34479e-09
4.7018e-09
2.11101e-09
1.79818e-09
9.55464e-10
4.30346e-10
2.01164e-10
9.03699e-11
3.91398e-11
1.63934e-11
6.65743e-12
2.58086e-12
9.00809e-13
3.00507e-13
8.60946e-14
2.15786e-14
4.41607e-15
5.99638e-16
1.26444e-16
7.10327e-07
6.32496e-08
2.0439e-08
3.37907e-09
2.7889e-09
2.6757e-09
2.14958e-09
1.53687e-09
8.32897e-10
3.89281e-10
1.69528e-10
7.05223e-11
2.84274e-11
1.0957e-11
4.08274e-12
1.4587e-12
4.69291e-13
1.4326e-13
3.87938e-14
8.53428e-15
1.71551e-15
2.37141e-16
2.85122e-17
7.32426e-07
7.18846e-08
4.1347e-08
5.38885e-09
7.33291e-09
3.22156e-09
1.84676e-09
1.20824e-09
7.46694e-10
3.61719e-10
1.45428e-10
5.4278e-11
1.98867e-11
7.05237e-12
2.34617e-12
7.57077e-13
2.30259e-13
6.3181e-14
1.50283e-14
3.25298e-15
5.61099e-16
5.22798e-17
1.0675e-17
9.92286e-07
5.51125e-08
5.29615e-08
4.48262e-08
3.27532e-08
8.6923e-09
1.81744e-09
1.11108e-09
6.9599e-10
3.50292e-10
1.29665e-10
4.12631e-11
1.31008e-11
4.17316e-12
1.25231e-12
3.6469e-13
9.93313e-14
2.35533e-14
5.24515e-15
7.98162e-16
1.24931e-16
1.82972e-17
1.39364e-18
1.14729e-06
5.14645e-07
3.04582e-08
2.45201e-08
2.25239e-08
7.23916e-09
1.54844e-09
1.09617e-09
6.83368e-10
3.25771e-10
1.19011e-10
3.22166e-11
8.21777e-12
2.24394e-12
5.92266e-13
1.50963e-13
3.61333e-14
7.32499e-15
1.37722e-15
2.51791e-16
3.86636e-17
3.02866e-18
4.83737e-19
1.10776e-06
1.45296e-06
1.05277e-07
2.10808e-08
9.42215e-09
3.89247e-09
1.74415e-09
1.30605e-09
6.95848e-10
2.93763e-10
9.79459e-11
2.57332e-11
5.17463e-12
1.13274e-12
2.63999e-13
6.0848e-14
1.26677e-14
2.38869e-15
4.32507e-16
5.49138e-17
6.91939e-18
9.14769e-19
6.20461e-20
3.93104e-07
1.45127e-06
1.45222e-06
2.7637e-07
2.03031e-09
2.03114e-09
2.17175e-09
1.48797e-09
6.72614e-10
2.50131e-10
7.70864e-11
1.92529e-11
3.76373e-12
6.17975e-13
1.20986e-13
2.35768e-14
4.46356e-15
7.26113e-16
1.08055e-16
1.54236e-17
1.70656e-18
1.54631e-19
1.38439e-20
7.69637e-08
6.93455e-07
9.46274e-07
3.14142e-07
2.03174e-09
3.37652e-09
2.42281e-09
1.29804e-09
5.18321e-10
1.87506e-10
5.65068e-11
1.34834e-11
2.64849e-12
4.23373e-13
5.82853e-14
9.1471e-15
1.51158e-15
2.1659e-16
2.99237e-17
3.09299e-18
3.01576e-19
2.55847e-20
1.75206e-21
5.67953e-08
1.46677e-08
2.18791e-08
3.25773e-08
1.8814e-08
5.35771e-09
1.81095e-09
7.36534e-10
3.11625e-10
1.12319e-10
3.23583e-11
7.5349e-12
1.46663e-12
2.39676e-13
3.27273e-14
3.75643e-15
4.99939e-16
6.11547e-17
6.94215e-18
6.79395e-19
5.43373e-20
3.56862e-21
2.20786e-22
1.49362e-08
1.41087e-08
1.18519e-08
1.09518e-08
6.25249e-09
2.2381e-09
8.44456e-10
3.65589e-10
1.576e-10
5.24683e-11
1.44514e-11
3.29773e-12
6.46163e-13
1.09571e-13
1.64141e-14
2.07758e-15
1.9997e-16
1.94748e-17
1.87977e-18
1.52736e-19
9.9542e-21
5.246e-22
2.46883e-23
4.66177e-09
1.04093e-08
9.90552e-09
5.94179e-09
2.06573e-09
7.80522e-10
3.51554e-10
1.41691e-10
5.04624e-11
1.45516e-11
3.86633e-12
9.16869e-13
1.95932e-13
3.72899e-14
6.16497e-15
8.84679e-16
1.05661e-16
9.70317e-18
6.17753e-19
4.0502e-20
2.11272e-21
9.07881e-23
3.75143e-24
1.30726e-09
2.23176e-09
2.19936e-09
1.22995e-09
5.55657e-10
2.53564e-10
1.01643e-10
3.57006e-11
1.07869e-11
3.04503e-12
7.61579e-13
1.79366e-13
3.99874e-14
8.31934e-15
1.53325e-15
2.59561e-16
3.83194e-17
4.56651e-18
4.2349e-19
2.69901e-20
8.63249e-22
2.33916e-23
6.03179e-25
3.14986e-10
4.94541e-10
4.25401e-10
2.34208e-10
1.07332e-10
3.9644e-11
1.3272e-11
4.04402e-12
1.13527e-12
2.8819e-13
6.93148e-14
1.57112e-14
3.48842e-15
7.65615e-16
1.5866e-16
2.97428e-17
4.93206e-18
7.36086e-19
9.33e-20
9.49442e-21
7.09699e-22
3.30883e-23
5.94262e-25
0.997235
0.999411
0.999999
0.999999
0.999918
0.999933
0.999971
0.999995
0.999924
0.999954
0.999996
0.999996
0.999967
0.999988
0.999996
0.999996
0.965646
0.953553
0.966663
0.992854
0.845667
0.824168
0.824517
0.843537
0.377725
0.386713
0.344928
0.357528
1.49105e-10
4.90379e-23
-4.27115e-35
-2.30602e-12
1.73903e-08
4.17241e-12
4.55685e-17
7.0058e-08
5.17341e-05
3.93681e-06
1.7821e-16
4.34893e-10
0.000153509
5.78034e-05
1.04139e-06
1.01906e-05
5.3842e-05
5.43858e-05
5.36996e-05
8.61774e-06
1.46736e-09
1.22961e-07
1.17896e-07
1.66041e-06
2.78562e-08
8.3146e-07
9.51798e-07
4.10368e-07
4.76534e-08
1.77218e-07
1.63753e-07
4.7936e-08
4.79728e-09
1.84901e-09
3.72688e-09
3.53593e-09
4.67359e-09
1.83478e-09
2.59347e-09
2.74518e-09
3.54633e-09
3.20305e-09
3.03226e-09
3.25881e-09
1.60589e-09
1.80558e-09
1.77847e-09
1.32953e-09
5.99415e-10
6.48498e-10
5.97317e-10
4.28729e-10
1.23293e-10
1.35155e-10
1.39291e-10
8.28288e-11
2.3159e-11
2.60462e-11
2.41032e-11
1.68647e-11
2.82381e-12
3.71316e-12
4.47049e-12
3.32983e-12
3.19381e-13
4.55021e-13
5.66644e-13
5.88007e-13
2.7863e-14
4.46324e-14
7.07243e-14
8.51239e-14
2.82333e-15
4.90507e-15
8.2849e-15
1.41499e-14
3.04849e-16
5.21083e-16
1.1048e-15
2.15498e-15
6.64908e-17
8.30107e-17
1.71589e-16
4.00185e-16
2.65587e-17
1.41127e-17
2.7461e-17
6.45426e-17
7.60864e-18
2.67058e-18
3.60443e-18
8.59518e-18
2.38124e-18
5.95397e-19
4.85194e-19
1.01166e-18
6.09773e-19
1.12055e-19
5.53433e-20
9.38484e-20
1.61744e-19
2.42489e-20
5.74006e-21
7.61956e-21
3.09093e-20
4.16929e-21
6.19871e-22
5.49376e-22
5.47015e-21
5.6446e-22
5.89618e-23
3.47004e-23
9.21583e-22
8.45975e-23
7.8468e-24
2.5725e-24
1.31882e-22
1.25448e-23
1.07441e-24
2.36537e-25
1.68553e-23
1.41501e-24
1.36435e-25
2.38208e-26
2.11787e-24
1.74406e-25
1.632e-26
2.4773e-27
2.70697e-25
2.18265e-26
1.91217e-27
2.6766e-28
3.65017e-26
2.78769e-27
2.19793e-28
2.95872e-29
6.80184e-27
3.65744e-28
2.44564e-29
3.05591e-30
0.988916
0.996425
0.972773
0.773833
0.699177
0.734701
0.648256
0.419645
0.29523
0.363446
0.665557
0.801576
0.767456
0.568535
0.0898034
0.0423941
0.0778036
0.0885
0.0904966
0.999996
0.999996
0.999996
0.999972
0.999782
0.985945
0.793867
0.619128
0.315982
0.300453
0.389112
0.800122
0.804081
0.544752
0.0560937
0.00127808
0.00135577
0.00424973
0.00813128
0.999996
0.999996
0.999929
0.999749
0.987061
0.977687
0.808902
0.553373
0.54221
0.563632
0.56718
0.439457
0.234125
0.0921403
0.0197561
0.008019
0.000723848
3.98336e-09
3.98336e-09
0.995842
0.982358
0.935736
0.90382
0.927162
0.969389
0.815163
0.538863
0.557863
0.583735
0.584372
0.322684
0.0256864
0.0187569
0.0110142
0.00350761
4.06797e-07
3.98336e-09
3.98336e-09
0.960068
0.78526
0.735764
0.734867
0.816358
0.850887
0.748253
0.431741
0.278613
0.408616
0.413541
0.118311
0.0185894
0.0113394
0.0102369
0.00704595
0.000783616
1.49582e-07
3.99295e-09
0.910999
0.9114
0.798639
0.521155
0.240485
0.16297
0.0465952
0.00235237
0.00168868
0.0291692
0.0465389
0.0399157
0.0122669
0.0103544
0.0104462
0.00479337
0.000633317
1.19484e-06
1.32185e-07
0.562738
0.534663
0.261253
0.0282742
1.13992e-12
5.00123e-19
1.34725e-21
2.60639e-21
1.29919e-09
1.62589e-09
4.1323e-05
0.00284688
0.00903418
0.00770598
0.00293525
0.000142841
5.84398e-05
5.32558e-07
2.65699e-07
-5.13333e-24
1.24233e-14
1.3545e-14
2.01298e-14
3.12779e-08
6.19451e-08
1.75877e-08
8.53761e-07
1.51279e-05
0.000693585
0.00176141
0.00191039
0.00147388
0.00025089
1.35816e-07
1.42327e-07
1.35817e-07
7.93831e-07
5.25542e-07
7.80175e-06
2.73098e-05
2.48109e-05
5.43041e-06
1.29661e-06
2.39021e-07
4.8444e-06
5.64602e-07
0.0024756
0.00263875
0.00100058
7.73141e-11
7.5225e-11
9.01208e-11
1.7034e-07
6.20572e-07
4.18305e-07
7.92119e-07
2.02191e-07
9.4701e-05
0.000167003
0.000167291
5.31801e-05
2.58082e-07
1.8859e-07
2.39785e-06
0.0016372
0.00205777
0.000692731
1.83541e-07
3.74687e-09
8.10398e-10
4.26589e-09
7.18141e-08
2.15144e-07
6.95481e-08
2.62289e-07
4.97423e-08
8.72221e-05
0.000163943
0.000146371
2.06552e-05
5.3912e-07
1.87581e-07
0.000288568
0.0016139
3.56635e-08
3.51101e-08
3.44243e-08
2.07463e-09
2.03613e-09
7.78516e-10
1.65425e-10
5.64378e-11
4.27468e-11
2.28317e-10
2.63162e-09
1.05213e-05
3.38788e-05
1.95059e-05
1.75008e-06
6.83881e-07
5.4458e-05
0.000521337
0.000144784
3.63554e-08
3.56635e-08
5.49022e-08
3.87023e-09
1.86734e-09
1.63211e-10
1.08349e-10
6.37567e-11
4.23881e-11
4.20777e-11
4.28756e-11
6.65929e-08
4.30306e-08
4.25634e-08
5.07453e-08
3.928e-05
0.000497404
0.000534581
3.25685e-05
3.70835e-08
1.40133e-07
1.05413e-08
1.65048e-09
1.63344e-09
4.16792e-10
3.97442e-10
2.23338e-10
9.62385e-11
4.1774e-11
1.37387e-11
8.04329e-08
8.21558e-08
4.20984e-08
1.61326e-06
9.96433e-05
0.000245295
0.000207982
4.13385e-08
4.12063e-08
1.46032e-07
8.37264e-09
1.66723e-09
2.12519e-09
1.08499e-09
7.4927e-10
4.49031e-10
2.09766e-10
6.32215e-11
9.13876e-12
1.49854e-08
4.10098e-08
4.15839e-08
1.33061e-05
4.43688e-05
2.90237e-05
1.8441e-05
3.79914e-07
1.47936e-07
1.3905e-07
9.38451e-10
2.31121e-09
2.416e-09
1.40817e-09
8.54196e-10
5.5132e-10
2.71677e-10
7.66958e-11
7.5907e-12
9.85487e-09
1.00907e-08
1.06381e-06
3.37869e-06
3.20435e-07
2.56596e-10
2.049e-06
6.26604e-08
6.00199e-08
2.48382e-08
9.38162e-10
2.25456e-09
1.90193e-09
1.19291e-09
8.01581e-10
5.16083e-10
2.5695e-10
6.99827e-11
6.38595e-12
8.54557e-09
3.92861e-08
1.27508e-07
1.44529e-09
1.69812e-10
2.51217e-10
2.56267e-10
9.45301e-10
5.88904e-10
5.88916e-10
9.576e-10
1.38463e-09
9.8206e-10
7.5366e-10
5.58959e-10
3.62893e-10
1.86306e-10
4.75869e-11
4.73215e-12
3.33632e-09
4.0004e-09
1.41598e-09
1.69812e-10
1.69818e-10
4.56612e-10
8.78708e-10
1.79058e-09
5.88898e-10
6.13544e-10
7.91349e-10
7.40713e-10
5.23161e-10
3.90788e-10
3.01548e-10
1.95572e-10
1.0264e-10
2.99287e-11
3.11712e-12
8.83003e-10
3.94509e-10
1.13352e-10
1.7233e-10
2.2091e-10
4.64372e-10
9.17383e-10
1.57282e-09
5.88887e-10
5.97134e-10
6.16736e-10
4.20159e-10
3.32226e-10
2.09227e-10
1.5563e-10
1.0681e-10
6.92879e-11
1.7907e-11
2.11566e-12
2.28124e-10
1.1812e-10
1.13314e-10
1.19093e-10
1.73308e-10
3.1809e-10
5.51666e-10
7.19144e-10
4.09799e-10
3.81128e-10
3.15965e-10
1.88051e-10
1.62316e-10
1.2286e-10
8.04238e-11
6.86195e-11
4.05514e-11
7.42831e-12
1.75466e-12
5.0372e-11
3.57807e-11
4.02415e-11
4.68458e-11
8.26785e-11
1.43354e-10
1.86284e-10
1.79125e-10
1.66286e-10
1.49918e-10
1.15036e-10
7.79074e-11
6.64988e-11
5.97011e-11
4.84165e-11
4.02856e-11
2.09455e-11
3.17411e-12
1.51468e-12
9.47271e-12
7.64451e-12
9.95932e-12
1.59034e-11
3.09838e-11
5.78423e-11
7.69332e-11
7.2919e-11
6.40742e-11
6.6718e-11
5.09568e-11
3.7779e-11
3.46265e-11
3.07078e-11
2.56887e-11
2.22074e-11
6.65965e-12
1.8609e-12
1.42824e-12
2.10197e-12
1.78771e-12
2.40558e-12
4.32249e-12
8.8015e-12
2.0334e-11
2.92424e-11
3.06429e-11
2.82048e-11
2.95463e-11
2.3622e-11
1.82167e-11
1.5937e-11
1.40092e-11
1.26381e-11
1.02464e-11
2.13115e-12
1.42145e-12
1.31152e-12
4.91066e-13
5.27107e-13
7.91188e-13
1.48657e-12
2.84886e-12
6.75376e-12
1.03799e-11
1.17512e-11
1.16743e-11
1.16272e-11
9.54003e-12
7.6179e-12
6.44772e-12
6.30872e-12
5.11874e-12
2.77418e-12
6.53572e-13
1.30502e-12
1.16229e-12
1.06951e-13
1.59531e-13
2.797e-13
5.40076e-13
1.04999e-12
2.10677e-12
3.34404e-12
4.00282e-12
4.22505e-12
4.11209e-12
3.45987e-12
2.86826e-12
2.40424e-12
1.2618e-12
5.19037e-13
6.16573e-13
3.50506e-13
1.18781e-12
1.0172e-12
2.14486e-14
4.45916e-14
8.73733e-14
1.71441e-13
3.27738e-13
6.14331e-13
9.74109e-13
1.21422e-12
1.33435e-12
1.33211e-12
9.95509e-13
6.20598e-13
2.2257e-13
4.21848e-14
2.09301e-14
1.35637e-13
3.3891e-13
1.05134e-12
8.88531e-13
4.42657e-15
1.07168e-14
2.31097e-14
4.6477e-14
8.83075e-14
1.60272e-13
2.52896e-13
3.22711e-13
3.5126e-13
1.79589e-13
4.38884e-14
1.37308e-14
3.74567e-15
3.75547e-15
1.57358e-14
9.03705e-14
3.55363e-13
9.68972e-13
8.04728e-13
8.04547e-16
2.25621e-15
5.25487e-15
1.08974e-14
2.07089e-14
3.64604e-14
5.5104e-14
6.5089e-14
1.4184e-14
1.62516e-15
2.52136e-16
3.25561e-16
1.20105e-15
4.35706e-15
1.8848e-14
9.44284e-14
3.84562e-13
9.07134e-13
6.46295e-13
1.34103e-16
4.14331e-16
1.03011e-15
2.20296e-15
4.15704e-15
6.93489e-15
9.50217e-15
1.49985e-15
5.96955e-17
3.91651e-17
1.19287e-16
4.55125e-16
1.83084e-15
6.61232e-15
2.82629e-14
1.24558e-13
4.26545e-13
7.81011e-13
4.7975e-13
1.96654e-17
6.52585e-17
1.72748e-16
3.80085e-16
6.95451e-16
9.70466e-16
1.72441e-16
3.85702e-18
7.83007e-18
3.94613e-17
1.85241e-16
7.85644e-16
3.30062e-15
1.272e-14
5.27096e-14
1.85986e-13
4.58618e-13
6.76935e-13
3.43504e-13
2.4151e-18
8.6195e-18
2.46055e-17
5.64963e-17
1.0122e-16
1.24736e-16
1.43977e-17
1.49643e-18
8.81584e-18
4.91023e-17
2.51195e-16
1.15883e-15
4.98882e-15
1.79667e-14
6.02314e-14
2.07538e-13
4.5119e-13
5.68383e-13
2.48953e-13
2.45828e-19
9.60795e-19
3.00394e-18
7.26679e-18
1.30229e-17
1.48381e-17
1.28088e-18
1.05724e-18
6.52549e-18
3.77206e-17
1.99882e-16
9.78292e-16
4.49305e-15
1.67739e-14
5.21628e-14
1.85008e-13
3.789e-13
4.40175e-13
1.46696e-13
2.04056e-20
9.18076e-20
3.17219e-19
8.10726e-19
1.49339e-18
1.65297e-18
1.6802e-19
4.79883e-19
3.10209e-18
1.90437e-17
1.08474e-16
5.91947e-16
2.8523e-15
1.12678e-14
3.62799e-14
1.05216e-13
2.42553e-13
2.63788e-13
9.22755e-14
1.48099e-21
7.53653e-21
2.85281e-20
7.86454e-20
1.51784e-19
1.71107e-19
3.44997e-20
1.59536e-19
1.04213e-18
6.58636e-18
3.9443e-17
2.32539e-16
1.28877e-15
5.70632e-15
1.66119e-14
4.64974e-14
8.81958e-14
1.17751e-13
5.19437e-14
7.58798e-23
5.03339e-22
2.14268e-21
6.50742e-21
1.3437e-20
1.60464e-20
7.66201e-21
4.38462e-20
2.85668e-19
1.76905e-18
1.0489e-17
6.08376e-17
3.1178e-16
1.96858e-15
6.59779e-15
1.64192e-14
3.3505e-14
5.24036e-14
2.71499e-14
4.15155e-24
2.81003e-23
1.34934e-22
4.27828e-22
9.32306e-22
1.25351e-21
1.345e-21
7.65226e-21
4.64811e-20
2.81693e-19
1.6334e-18
8.83304e-18
4.48979e-17
5.38781e-16
1.85232e-15
5.40192e-15
1.27503e-14
1.99803e-14
1.27296e-14
2.27856e-25
1.29124e-24
7.00255e-24
2.57045e-23
4.42918e-23
7.32205e-23
1.78565e-22
1.30345e-21
8.95911e-21
5.4451e-20
3.09398e-19
1.6408e-18
7.80837e-18
1.20163e-16
5.88748e-16
1.39666e-15
3.21959e-15
6.66719e-15
4.98592e-15
1.45393e-26
7.07437e-26
3.91194e-25
1.16724e-24
4.14261e-24
8.67017e-24
2.758e-23
1.85807e-22
1.29441e-21
8.404e-21
5.03259e-20
2.70188e-19
1.26864e-18
2.33026e-17
1.34401e-16
3.77688e-16
9.80904e-16
1.55308e-15
1.75131e-15
1.17923e-27
5.0882e-27
2.88003e-26
1.19536e-25
3.99661e-25
1.12826e-24
4.04229e-24
2.33022e-23
1.58798e-22
1.10722e-21
7.2471e-21
4.08397e-20
2.04185e-19
4.39695e-18
2.89388e-17
7.88795e-17
1.55163e-16
3.45394e-16
4.49353e-16
1.35721e-28
6.23996e-28
3.47278e-27
1.57087e-26
6.03714e-26
2.13578e-25
7.73752e-25
3.21121e-24
1.7785e-23
1.24151e-22
8.9281e-22
5.55025e-21
2.79432e-20
7.50997e-19
4.94199e-18
1.49536e-17
2.88039e-17
4.8633e-17
1.54876e-16
2.42655e-29
1.52207e-28
8.79679e-28
4.10146e-27
1.62068e-26
5.59161e-26
1.79565e-25
5.72348e-25
2.22685e-24
1.28981e-23
9.59805e-23
6.69728e-22
3.68589e-21
1.14153e-19
7.94267e-19
2.55586e-18
2.8175e-18
1.16583e-17
4.56805e-17
4.95911e-30
3.73988e-29
2.24015e-28
1.03996e-27
4.06201e-27
1.37217e-26
4.23935e-26
1.21735e-25
3.6446e-25
1.46848e-24
9.62312e-24
7.21978e-23
4.47939e-22
1.53927e-20
1.19022e-19
3.98675e-19
5.30378e-19
2.17251e-18
6.61471e-18
)
;

boundaryField
{
    leftWall
    {
        type            zeroGradient;
    }
    rightWall
    {
        type            zeroGradient;
    }
    lowerWall
    {
        type            zeroGradient;
    }
    atmosphere
    {
        type            inletOutlet;
        inletValue      uniform 0;
        value           nonuniform List<scalar> 
46
(
0
0
0
0
0
0
0
0
0
0
0
0
0
0
0
0
0
0
0
0
0
0
0
6.80184e-27
3.65744e-28
2.44564e-29
3.05591e-30
4.95911e-30
3.73988e-29
2.24015e-28
1.03996e-27
4.06201e-27
1.37217e-26
4.23935e-26
1.21735e-25
3.6446e-25
1.46848e-24
9.62312e-24
7.21978e-23
4.47939e-22
1.53927e-20
1.19022e-19
3.98675e-19
5.30378e-19
2.17251e-18
6.61471e-18
)
;
    }
    defaultFaces
    {
        type            empty;
    }
}


// ************************************************************************* //
