/*--------------------------------*- C++ -*----------------------------------*\
| =========                 |                                                 |
| \\      /  F ield         | OpenFOAM: The Open Source CFD Toolbox           |
|  \\    /   O peration     | Version:  2312                                  |
|   \\  /    A nd           | Website:  www.openfoam.com                      |
|    \\/     M anipulation  |                                                 |
\*---------------------------------------------------------------------------*/
FoamFile
{
    version     2.0;
    format      ascii;
    arch        "LSB;label=32;scalar=64";
    class       volScalarField;
    location    "1.45";
    object      alpha.oil;
}
// * * * * * * * * * * * * * * * * * * * * * * * * * * * * * * * * * * * * * //

dimensions      [0 0 0 0 0 0 0];

internalField   nonuniform List<scalar> 
2268
(
7.87227e-11
1.78401e-11
2.42933e-12
5.04871e-13
2.13975e-13
2.30168e-13
3.41707e-13
1.09629e-12
4.1467e-12
6.37301e-12
6.78549e-12
7.27317e-12
9.15381e-12
1.47325e-11
2.65206e-11
4.69822e-11
7.61609e-11
1.29842e-10
2.69763e-10
2.70587e-10
2.71411e-10
2.99628e-05
6.48643e-05
7.91705e-10
1.28231e-10
1.51548e-11
3.72842e-12
1.97118e-12
3.44158e-12
2.52183e-12
2.40298e-11
9.1164e-11
1.77346e-10
1.096e-10
9.18409e-11
4.8517e-11
4.62098e-11
6.22058e-11
9.76027e-11
1.6952e-10
4.00973e-10
9.33228e-10
8.39039e-10
2.72197e-10
9.56799e-06
6.48728e-05
2.06694e-09
3.65725e-10
4.54554e-11
1.66676e-11
1.43118e-11
3.1126e-11
2.52154e-12
1.5002e-10
7.15152e-10
1.12608e-09
1.56933e-09
1.86707e-09
4.57138e-10
1.94629e-10
9.67617e-11
1.19167e-10
2.07174e-10
3.65153e-10
6.64488e-10
7.48924e-10
4.73861e-10
1.15138e-10
1.1692e-05
1.99864e-09
5.06573e-10
4.16905e-11
1.6437e-11
3.09119e-11
9.97708e-11
3.35483e-09
1.50327e-10
1.50634e-10
1.38796e-09
7.96291e-09
1.22433e-08
1.12929e-08
2.67571e-09
1.5503e-10
7.93106e-11
9.42635e-11
1.15645e-10
1.90935e-10
2.1197e-10
1.46091e-10
1.14502e-10
1.66031e-07
3.46864e-11
1.7915e-11
2.02079e-11
1.64367e-11
1.64371e-11
1.68893e-11
2.56406e-07
3.31382e-06
5.92607e-07
-2.67975e-13
-1.7618e-12
-5.99455e-12
-9.24239e-12
5.00037e-09
1.43613e-10
4.15136e-11
2.63401e-10
1.7978e-11
1.80978e-11
1.79915e-11
1.81114e-11
6.75592e-05
9.05536e-08
1.80417e-11
1.8036e-11
5.61168e-06
1.58045e-06
5.7391e-06
3.29557e-06
4.98764e-07
1.16384e-05
0.000141358
0.0002204
0.000199983
9.99788e-05
5.49251e-06
4.1129e-11
4.11317e-11
4.11641e-11
1.70901e-09
1.78291e-07
9.97424e-06
0.000109317
3.52744e-05
0.000332774
0.00637844
0.104751
0.0366355
1.5854e-06
1.58292e-06
1.7206e-05
1.0761e-05
6.26498e-07
5.56515e-07
0.000266831
0.00194762
0.0023224
0.00135077
0.000572661
0.000183753
3.49028e-05
7.02606e-06
1.82969e-09
4.41338e-05
0.00030803
0.000547109
0.000365858
0.000391551
0.00815258
0.770677
0.662505
0.307258
0.0105453
5.55663e-07
5.57469e-07
5.55595e-07
5.5776e-07
5.56506e-07
0.0014971
0.00230106
0.00137685
0.000997773
0.000799001
0.000612052
0.000269119
4.0707e-05
6.8702e-05
0.000445912
0.000547755
0.000455284
4.0065e-06
0.00814997
0.583629
0.204971
0.0697995
0.0605017
0.060508
0.0685558
0.0884446
0.0977789
0.0801549
0.0509634
0.0416982
0.0420026
0.0453323
0.0353988
0.0278492
0.0204207
0.0204257
0.0265269
0.0597106
0.60519
0.652204
0.569667
0.384176
0.347322
0.288411
0.3093
0.318844
0.382051
0.357015
0.157721
0.0633167
0.042396
0.0248303
0.0248432
0.0313963
0.0463168
0.0708471
0.0663652
0.721751
0.73091
0.492096
0.713239
0.582434
0.28913
0.171258
0.155723
0.1649
0.327268
0.508745
0.388129
0.229827
0.250349
0.255453
0.222725
0.212815
0.2715
0.360695
0.649014
0.730873
0.131641
0.781318
0.781362
0.614929
0.354938
0.15617
0.150741
0.368107
0.566143
0.566131
0.563725
0.563658
0.563518
0.382025
0.182356
0.144085
0.422186
0.593192
0.572341
0.131391
0.466804
0.578226
0.721048
0.730927
0.427194
0.15131
0.397338
0.566087
0.566124
0.565207
0.408348
0.259559
0.158104
0.107551
0.110702
0.375184
0.416218
0.112935
0.145928
0.189404
0.201986
0.308237
0.720362
0.775936
0.52121
0.409395
0.509422
0.566039
0.45786
0.109082
0.100246
0.100036
0.100035
0.102703
0.430989
0.518888
0.104277
0.291739
0.250328
0.178881
0.172256
0.249331
0.734974
0.668012
0.411616
0.55035
0.565964
0.414132
0.174611
0.17702
0.139607
0.111709
0.272709
0.634912
0.598636
0.500756
0.501955
0.499078
0.30383
0.172138
0.172291
0.515746
0.605888
0.457816
0.507303
0.367735
0.188527
0.358852
0.613041
0.646726
0.602312
0.587785
0.896799
0.999692
0.991578
0.98745
0.908923
0.723161
0.595995
0.237625
0.00312198
5.58442e-07
0.000804937
0.00223798
0.00188015
0.000678828
0.000675296
0.000669933
0.000468144
0.000248603
3.05584e-05
2.93182e-05
9.53457e-05
6.07597e-05
-2.28404e-08
0.00209113
0.999956
0.986744
0.980534
0.984556
0.984386
0.984444
0.959903
0.881488
0.722891
0.131759
0.00995268
0.0525712
0.0646841
0.0579885
0.0801751
0.0514147
0.00131398
1.81935e-07
1.05762e-07
1.05817e-07
1.20883e-07
5.34712e-08
1.31243e-07
0.999956
0.996261
0.705482
0.732015
0.77945
0.788818
0.914625
0.99566
0.992096
0.907483
0.516802
0.0778742
0.255443
0.53896
0.600343
0.287034
0.000737582
1.93911e-07
1.97582e-07
2.79804e-06
7.51531e-06
7.06464e-06
5.57373e-06
0.999956
0.94956
0.438041
0.438151
0.43799
0.598735
0.92435
0.995804
0.995833
0.994195
0.950504
0.44548
0.523877
0.702988
0.698563
0.325212
0.00117469
1.25791e-18
1.08859e-23
3.57272e-06
2.92677e-05
3.8813e-05
3.89911e-05
0.999956
0.936381
0.586733
0.661076
0.899282
0.994493
0.993812
0.966279
0.970483
0.994085
0.993573
0.754346
0.718653
0.711548
0.651846
0.111963
-6.40475e-07
-6.62928e-19
1.23677e-19
1.77851e-19
-7.5101e-20
3.04182e-21
8.26101e-21
0.999893
0.999977
0.99994
0.999943
0.997108
0.994542
0.99384
0.948714
0.633687
0.7079
0.820749
0.560469
0.612848
0.699284
0.517397
0.058832
0.060468
0.259994
0.262273
0.172013
0.083226
0.0464389
0.0359492
0.999976
0.999973
0.999736
0.978939
0.975008
0.991285
0.989118
0.932171
0.550975
0.234137
0.224906
0.195204
0.228947
0.440401
0.265247
0.138897
0.51147
0.916685
0.935297
0.854757
0.768739
0.706457
0.670105
0.995227
0.999683
0.99982
0.959042
0.962536
0.998221
0.999469
0.999238
0.953797
0.235291
0.193305
0.193311
0.206392
0.215424
0.17631
0.234488
0.813803
0.991939
0.991938
0.991939
0.991904
0.991863
0.991811
0.480921
0.577706
0.75942
0.891508
0.958593
0.999451
0.999468
0.999468
0.999219
0.888661
0.366841
0.204709
0.214418
0.190568
0.17644
0.477249
0.939899
0.991908
0.991939
0.991936
0.991939
0.991904
0.991864
4.06396e-06
0.00445205
0.0758724
0.217498
0.382435
0.61117
0.856993
0.98884
0.999219
0.998716
0.96553
0.789562
0.467508
0.379997
0.501001
0.8713
0.987976
0.991987
0.991955
0.990493
0.97008
0.912187
0.809491
4.1014e-06
4.59185e-06
4.47794e-06
5.30151e-06
5.18393e-06
0.00832824
0.141558
0.444133
0.79376
0.97403
0.976421
0.950466
0.820456
0.822838
0.929584
0.967939
0.969696
0.91351
0.742809
0.539478
0.360034
0.204796
0.0897785
1.91225e-05
0.000352159
0.000701162
0.00051414
8.76577e-05
6.61226e-12
-5.90042e-11
1.81074e-19
0.074747
0.334426
0.70496
0.852852
0.921486
0.92429
0.914895
0.904585
0.808549
0.408787
0.0246368
3.7842e-05
3.92939e-15
2.2061e-15
4.16346e-15
4.77928e-05
0.00130304
0.00162539
0.00162594
0.000887246
1.07667e-06
1.8929e-08
1.07639e-09
1.92822e-15
4.33221e-13
0.00369551
0.0968497
0.218817
0.26045
0.228991
0.185799
0.126942
0.029235
0.000212879
0.000230802
4.56074e-05
4.1628e-11
2.61063e-07
0.000112131
0.000177974
0.00089264
0.00114884
0.000600741
2.01201e-06
1.11572e-08
1.73784e-08
3.89266e-08
1.2688e-07
1.22717e-14
1.26292e-14
1.0004e-14
3.1004e-22
1.02716e-24
-1.97769e-10
1.21794e-16
4.16366e-07
0.00341958
0.00213317
5.36497e-06
5.85346e-07
5.71531e-07
1.00437e-05
3.3202e-13
2.07032e-13
2.32198e-13
2.30448e-12
2.49156e-07
2.56531e-07
2.35905e-07
4.01886e-07
6.09302e-07
2.44721e-07
2.23826e-07
6.55804e-07
8.38573e-07
2.68991e-07
2.1843e-08
2.20296e-09
2.18773e-09
0.000209351
4.85793e-05
1.56851e-06
6.2963e-08
6.30108e-08
4.94426e-12
9.03223e-10
1.36603e-08
8.67075e-08
4.08926e-07
2.04584e-06
2.25383e-06
2.25303e-06
1.99431e-06
1.05512e-06
1.6709e-07
6.56888e-07
1.7397e-06
1.61205e-06
1.39259e-07
1.11305e-09
7.50538e-09
7.48638e-09
7.46463e-09
7.481e-09
1.94103e-07
6.30245e-08
8.05085e-08
6.06828e-12
7.72547e-09
5.32147e-08
4.0578e-07
2.33053e-06
2.34064e-06
2.31952e-06
1.34344e-06
9.31484e-08
1.63599e-08
8.82079e-08
1.10767e-06
1.43809e-06
2.75907e-07
1.96346e-09
3.25765e-09
6.15423e-09
9.0337e-09
1.04083e-08
1.78409e-08
4.30135e-08
1.25551e-07
1.71519e-07
6.75467e-12
1.1789e-08
5.27385e-08
6.46376e-07
1.51201e-06
9.58228e-07
2.43929e-09
2.43834e-09
2.4412e-09
1.60133e-08
1.30544e-08
1.65488e-09
1.65e-09
1.64564e-09
1.95888e-09
2.32893e-09
2.49964e-09
4.14048e-09
8.4525e-09
1.45025e-08
1.74096e-08
1.76362e-08
1.01282e-08
7.47302e-10
7.23172e-09
3.5567e-08
2.2108e-09
2.07951e-09
2.17002e-09
2.64129e-09
2.76418e-09
2.98626e-09
2.89369e-09
2.09943e-09
2.08954e-09
1.79447e-09
1.6406e-09
1.63556e-09
1.51092e-09
1.6292e-09
1.83799e-09
2.64054e-09
3.52379e-09
3.86051e-09
3.09709e-09
2.77495e-09
1.81994e-07
2.08649e-09
2.08569e-09
2.45977e-09
3.0621e-09
3.91958e-09
5.21836e-09
6.64266e-09
6.87416e-09
5.71154e-09
4.52554e-09
3.88186e-09
2.99251e-09
2.08603e-09
1.4041e-09
1.0561e-09
9.04762e-10
9.33373e-10
1.07729e-09
1.28039e-09
1.57697e-09
1.94351e-09
2.08388e-09
3.9306e-07
2.09261e-09
2.08651e-09
3.60764e-09
6.39037e-09
7.80937e-09
9.9679e-09
1.63614e-08
1.71568e-08
8.99591e-09
5.89033e-09
4.56842e-09
3.33194e-09
2.15655e-09
1.34824e-09
8.5465e-10
5.97928e-10
4.95531e-10
5.09426e-10
6.23683e-10
8.12336e-10
1.04575e-09
1.76809e-09
5.8697e-07
2.34125e-09
5.65102e-09
6.50333e-09
9.67065e-09
1.33572e-08
1.92519e-08
2.84537e-08
2.14512e-08
7.45691e-09
4.7044e-09
3.94943e-09
3.04212e-09
1.98679e-09
1.23029e-09
7.46531e-10
4.54838e-10
3.19077e-10
2.87231e-10
3.27271e-10
4.41818e-10
7.16456e-10
9.46609e-10
7.39624e-07
3.62464e-09
1.81142e-08
9.86327e-09
1.5509e-08
2.62631e-08
3.78177e-08
3.67005e-08
1.10455e-08
4.04075e-09
3.4094e-09
3.24209e-09
2.42351e-09
1.60738e-09
9.98431e-10
5.86946e-10
3.35842e-10
2.06866e-10
1.6029e-10
1.72866e-10
2.22806e-10
2.88393e-10
5.157e-10
1.31085e-06
1.15069e-06
3.72536e-08
1.00289e-08
2.7292e-08
9.05225e-08
2.49988e-07
1.37811e-07
4.0655e-09
3.41259e-09
3.35116e-09
2.69727e-09
1.88692e-09
1.24987e-09
7.59422e-10
4.16802e-10
2.18426e-10
1.218e-10
8.5011e-11
8.06472e-11
9.76508e-11
1.45846e-10
1.95282e-10
2.45881e-06
8.20261e-06
1.00224e-08
1.00255e-08
7.21154e-08
2.11498e-07
4.20226e-07
3.11351e-07
3.43543e-09
3.68746e-09
3.62727e-09
2.50734e-09
1.6097e-09
9.72538e-10
5.49066e-10
2.85251e-10
1.38714e-10
7.00568e-11
4.16852e-11
3.62919e-11
4.10274e-11
5.03565e-11
7.37351e-11
3.79968e-06
9.02291e-06
4.23907e-06
1.00269e-08
1.14502e-07
3.08897e-07
4.19439e-07
2.70608e-07
3.76647e-09
4.57102e-09
4.03792e-09
2.48161e-09
1.41064e-09
7.48001e-10
3.7579e-10
1.80487e-10
8.09827e-11
3.73086e-11
2.04208e-11
1.54573e-11
1.60122e-11
1.9853e-11
2.4594e-11
1.80149e-05
8.64129e-06
6.14805e-06
1.00306e-08
1.2459e-07
3.73095e-07
4.03503e-07
3.6717e-08
6.10677e-09
6.43977e-09
4.03673e-09
2.17383e-09
1.13875e-09
5.54925e-10
2.60736e-10
1.16445e-10
4.94788e-11
2.16092e-11
1.04112e-11
6.66268e-12
6.43037e-12
6.76873e-12
8.04811e-12
2.63513e-05
1.14498e-06
2.00286e-06
2.08799e-07
1.85946e-07
4.15449e-07
3.43244e-07
1.04905e-08
1.00334e-08
7.08601e-09
3.57647e-09
1.77207e-09
8.52718e-10
3.92382e-10
1.70623e-10
7.059e-11
2.94092e-11
1.20434e-11
5.21829e-12
2.85433e-12
2.30129e-12
2.35685e-12
2.50969e-12
2.63524e-05
1.04016e-08
2.39453e-08
1.37765e-07
3.86349e-07
4.15607e-07
2.06937e-07
1.16633e-08
1.09965e-08
5.95564e-09
2.90087e-09
1.35523e-09
5.98272e-10
2.56106e-10
1.07861e-10
4.38521e-11
1.7036e-11
6.40805e-12
2.49092e-12
1.13273e-12
8.45726e-13
7.70317e-13
7.67797e-13
2.60497e-05
8.5523e-09
4.74526e-08
2.31843e-07
4.22475e-07
4.11089e-07
4.54633e-08
1.8329e-08
9.87841e-09
4.70654e-09
2.20372e-09
9.72479e-10
4.04759e-10
1.63648e-10
6.56461e-11
2.55521e-11
9.15857e-12
3.28406e-12
1.14066e-12
4.80126e-13
2.95151e-13
2.50158e-13
2.31618e-13
2.55523e-05
8.17271e-09
7.31757e-08
2.41952e-07
3.95374e-07
2.4586e-07
2.49952e-08
1.94965e-08
8.26991e-09
3.7194e-09
1.63003e-09
6.79535e-10
2.70383e-10
1.02573e-10
3.83526e-11
1.39171e-11
4.63256e-12
1.52108e-12
4.93733e-13
1.83438e-13
1.07046e-13
8.00033e-14
6.86516e-14
2.7245e-05
8.17252e-09
4.71901e-08
1.3745e-07
1.16881e-07
5.00969e-08
2.38428e-08
1.3404e-08
6.55161e-09
2.98492e-09
1.20049e-09
4.6371e-10
1.73918e-10
6.23073e-11
2.1071e-11
6.99615e-12
2.22368e-12
6.59507e-13
1.89233e-13
6.73218e-14
3.3546e-14
2.2122e-14
1.84938e-14
2.97122e-05
8.2306e-09
2.10013e-08
3.48481e-08
3.3451e-08
3.93576e-08
4.67877e-08
1.25414e-08
5.33552e-09
2.48222e-09
8.84196e-10
3.01531e-10
1.02385e-10
3.41714e-11
1.0688e-11
3.26116e-12
9.40353e-13
2.44308e-13
6.64392e-14
1.86676e-14
9.89267e-15
6.81893e-15
4.53426e-15
2.97107e-05
4.19323e-06
5.55112e-08
4.805e-08
6.05236e-07
8.59799e-07
1.20282e-07
6.2141e-09
4.17349e-09
1.88387e-09
6.64229e-10
1.94524e-10
5.63929e-11
1.69e-11
4.7999e-12
1.31161e-12
3.37817e-13
7.64426e-14
1.84488e-14
6.39036e-15
3.20014e-15
1.70071e-15
1.26408e-15
2.21899e-05
5.59449e-05
5.12174e-08
5.0574e-08
2.83682e-06
2.29247e-06
9.54971e-08
3.09749e-09
2.87704e-09
1.26252e-09
4.17129e-10
1.24273e-10
3.06066e-11
7.90355e-12
2.0585e-12
5.20285e-13
1.18523e-13
2.54031e-14
6.06196e-15
1.69259e-15
8.17219e-16
5.19194e-16
2.81985e-16
2.94118e-06
5.66297e-05
4.87276e-05
8.20666e-06
2.84109e-06
3.24983e-07
2.25971e-09
2.36254e-09
1.56902e-09
6.77207e-10
2.39932e-10
7.37863e-11
1.87626e-11
4.01381e-12
9.21919e-13
2.01272e-13
4.22262e-14
7.95649e-15
1.6561e-15
5.40888e-16
2.46758e-16
1.23128e-16
6.88576e-17
8.39709e-09
3.0199e-05
4.35383e-05
1.47222e-05
1.30778e-09
1.19253e-09
2.24696e-09
1.6237e-09
7.89353e-10
3.57856e-10
1.38036e-10
4.33466e-11
1.15182e-11
2.47134e-12
4.32582e-13
7.83657e-14
1.45622e-14
2.46553e-15
5.00838e-16
1.43188e-16
6.32323e-17
3.00234e-17
1.43841e-17
8.3934e-09
1.32523e-07
1.88157e-06
1.44471e-06
5.1587e-07
1.18858e-09
1.18466e-09
8.23605e-10
4.38287e-10
1.93934e-10
7.10537e-11
2.18818e-11
5.74698e-12
1.25744e-12
2.23549e-13
3.18181e-14
4.87984e-15
7.29211e-16
1.34627e-16
3.99537e-17
1.62423e-17
6.66675e-18
2.88024e-18
7.64653e-09
9.75651e-09
1.74352e-09
1.7423e-09
1.74109e-09
1.73965e-09
1.23662e-09
5.60504e-10
2.53183e-10
9.81457e-11
3.32268e-11
9.71464e-12
2.48796e-12
5.48389e-13
1.0453e-13
1.62573e-14
1.90519e-15
2.3576e-16
4.07883e-17
1.14626e-17
4.06544e-18
1.44126e-18
5.28172e-19
5.05858e-09
8.32333e-09
7.64926e-09
4.59226e-09
1.81811e-09
9.22192e-10
4.67192e-10
2.15308e-10
8.98842e-11
3.15294e-11
1.03445e-11
3.07957e-12
8.2306e-13
1.92881e-13
3.85744e-14
6.57979e-15
9.28829e-16
1.07507e-16
1.35429e-17
3.51626e-18
1.09419e-18
3.18507e-19
1.03151e-19
2.04956e-09
3.18493e-09
2.81277e-09
1.6027e-09
7.91954e-10
3.83696e-10
1.6846e-10
6.71387e-11
2.38194e-11
8.06047e-12
2.46583e-12
7.11377e-13
1.92049e-13
4.7449e-14
1.01947e-14
1.97725e-15
3.32022e-16
4.69772e-17
6.62733e-18
1.30966e-18
3.25731e-19
7.70954e-20
1.93463e-20
5.68882e-10
8.7422e-10
6.97484e-10
3.79113e-10
1.81143e-10
7.33639e-11
2.78065e-11
9.88049e-12
3.30284e-12
1.01242e-12
2.93443e-13
7.93974e-14
2.06808e-14
5.22351e-15
1.2145e-15
2.5274e-16
4.67864e-17
8.2874e-18
1.5822e-18
3.88283e-19
1.06454e-19
2.42572e-20
4.47554e-21
0.00167351
0.000406351
6.91485e-07
6.95512e-07
4.9996e-05
4.12587e-05
2.2872e-05
4.50298e-06
1.98116e-06
5.08127e-07
4.94307e-08
3.90006e-07
2.94186e-05
7.74206e-06
3.21304e-08
3.52802e-26
8.2914e-21
-1.00707e-19
-6.01072e-14
-2.82873e-20
0.042925
0.0643089
0.063547
0.044342
0.617565
0.6088
0.648088
0.636156
0.991788
0.991633
0.990559
0.987536
0.991827
0.990837
0.970244
0.966115
0.732993
0.646664
0.426665
0.35155
0.0305065
0.00168775
9.953e-06
3.06107e-17
1.42064e-15
3.10199e-15
1.4838e-08
-2.64156e-12
1.03753e-07
3.0521e-07
1.8526e-06
9.34168e-07
7.05968e-08
3.34007e-06
2.66757e-05
3.74874e-05
6.65318e-08
1.93185e-05
3.48147e-05
3.385e-05
2.46253e-06
4.53512e-06
3.5824e-06
1.2971e-06
1.46157e-07
1.71081e-08
3.4856e-08
3.39491e-09
8.16103e-09
8.75409e-09
3.65683e-09
3.66295e-09
2.73848e-09
3.06283e-09
5.16015e-09
7.3626e-09
3.01703e-09
3.62494e-09
3.98637e-09
9.47464e-09
2.24648e-09
2.58082e-09
3.62638e-09
4.79859e-09
1.56308e-09
1.82768e-09
2.10757e-09
2.594e-09
7.0128e-10
8.27863e-10
1.07825e-09
1.20658e-09
2.88902e-10
3.43073e-10
4.04509e-10
4.91094e-10
9.63419e-11
1.14037e-10
1.38858e-10
1.57651e-10
3.15161e-11
3.62353e-11
4.16819e-11
4.91994e-11
9.42474e-12
1.05799e-11
1.21546e-11
1.35897e-11
2.73127e-12
2.97922e-12
3.29821e-12
3.73442e-12
7.72099e-13
8.0606e-13
8.92903e-13
9.93723e-13
2.10817e-13
2.13483e-13
2.30817e-13
2.71838e-13
5.78403e-14
5.69499e-14
6.47706e-14
8.67269e-14
1.43865e-14
1.41278e-14
1.8609e-14
3.22506e-14
3.68545e-15
3.93841e-15
6.24283e-15
1.34956e-14
9.085e-16
1.02804e-15
2.08099e-15
5.51359e-15
2.25602e-16
3.2628e-16
7.64156e-16
2.22719e-15
5.17479e-17
9.02018e-17
2.53287e-16
8.40645e-16
1.20644e-17
2.68888e-17
8.82188e-17
3.12727e-16
2.5425e-18
6.83525e-18
2.68095e-17
1.05521e-16
5.04801e-19
1.66677e-18
7.76832e-18
3.34046e-17
9.07741e-20
3.52507e-19
1.97952e-18
9.69975e-18
1.43214e-20
5.83805e-20
4.11558e-19
2.37059e-18
1.98461e-21
5.0882e-21
5.12139e-20
4.29591e-19
0.00902565
0.00357545
0.0259141
0.224781
0.294722
0.192443
0.172208
0.394811
0.55295
0.557775
0.300108
0.16268
0.128823
0.165182
0.649913
0.891145
0.898913
0.898788
0.898822
4.03587e-06
3.94973e-06
3.32524e-06
3.25649e-06
3.30845e-06
0.00889797
0.174466
0.215197
0.497013
0.54414
0.495156
0.157879
0.129107
0.212729
0.685975
0.880087
0.898871
0.898942
0.898817
2.07389e-06
3.11006e-06
3.16036e-06
3.20928e-06
3.25648e-06
3.30172e-06
0.16529
0.408785
0.37949
0.283879
0.279097
0.413286
0.672455
0.815033
0.877819
0.898938
0.899048
0.898859
0.898922
-2.50202e-17
0.00922448
0.0386772
0.0284443
0.00623827
3.3455e-06
0.16223
0.41641
0.383324
0.286216
0.277498
0.544927
0.897047
0.898886
0.899038
0.899118
0.89897
0.801672
0.894014
-9.72251e-21
0.0962384
0.146464
0.144101
0.127802
0.121376
0.217811
0.41511
0.378968
0.299269
0.47298
0.804347
0.898574
0.898818
0.864598
0.630593
0.665467
0.332848
0.404075
0.0486212
0.0757261
0.164783
0.25792
0.566011
0.565984
0.565927
0.434059
0.256975
0.493694
0.836257
0.859387
0.859344
0.582982
0.155506
0.022036
0.057556
0.000869592
0.0004592
0.431023
0.452743
0.687796
0.688635
0.627589
0.475281
0.197033
0.0683862
0.175447
0.370094
0.404482
0.330079
0.13605
0.0129767
5.07694e-06
5.04474e-06
4.90551e-06
4.8534e-06
4.81232e-06
0.982119
0.907842
0.745397
0.440406
0.0402771
2.76661e-05
2.58183e-05
1.40845e-05
0.0304372
0.013115
0.0013331
1.6106e-09
1.18481e-09
0.000216043
0.000224317
8.7109e-05
4.91338e-06
8.91882e-06
4.61146e-06
0.980727
0.853716
0.174356
7.52239e-06
1.20046e-05
2.67648e-05
1.56745e-05
1.27009e-05
1.27105e-05
0.00031134
0.000500107
0.00018516
5.79026e-05
4.48474e-05
7.66253e-05
7.13781e-05
3.85207e-06
8.54794e-06
3.65787e-06
0.628257
0.643974
0.181485
7.56452e-06
7.54525e-06
2.52931e-05
1.56146e-05
0.000105172
0.000396168
0.000421814
0.000109206
9.94509e-06
4.52418e-06
1.02927e-08
1.04072e-08
1.10347e-06
1.4265e-06
2.86988e-06
3.31563e-06
2.22466e-10
0.0316207
0.0605024
0.00759549
1.23377e-05
1.50032e-05
2.58043e-05
0.000155669
0.000136371
5.13364e-05
1.02269e-08
1.02136e-08
1.02233e-08
1.02136e-08
1.54537e-05
8.00256e-05
6.59725e-05
9.15642e-06
1.36407e-05
1.36465e-06
4.16312e-13
1.97062e-14
0.000351888
1.61482e-05
7.66612e-06
2.98554e-05
7.53672e-05
4.08912e-06
1.02269e-08
1.02136e-08
1.02233e-08
1.02136e-08
1.02232e-08
1.65967e-05
0.000115802
0.000115792
0.000115381
6.06241e-05
3.62531e-05
7.82864e-05
4.59323e-06
2.22305e-06
6.54671e-06
5.0277e-07
1.60702e-05
5.59678e-05
8.67796e-05
0.000191768
0.000170583
1.83659e-05
1.02232e-08
1.02137e-08
1.71714e-06
4.5311e-05
9.59884e-05
7.3028e-05
2.04127e-05
3.73011e-05
1.92423e-05
3.28224e-07
7.65193e-07
9.72936e-09
9.60384e-09
5.47055e-06
0.00015678
0.000218376
0.000221483
0.000221501
0.000220258
3.66116e-05
1.02232e-08
1.0997e-08
1.15602e-08
5.93156e-06
1.59562e-06
9.97716e-09
1.76835e-06
1.0048e-08
1.02604e-08
9.72927e-09
9.60116e-09
5.60238e-05
0.00018616
0.000213068
0.000214195
0.000160094
0.000128733
0.000104658
6.23405e-05
1.33651e-06
1.10167e-08
4.81465e-07
2.17491e-06
7.16834e-08
8.11424e-09
3.37644e-09
1.43619e-08
1.66352e-08
9.60116e-09
7.83872e-06
0.000143901
0.000193637
0.000141001
2.7471e-05
4.98379e-06
5.39916e-07
8.27775e-08
8.15813e-06
6.22432e-06
3.94343e-08
6.37898e-07
2.18102e-06
4.28657e-07
8.11379e-09
3.40091e-09
5.43044e-09
1.28452e-08
1.16815e-07
1.43156e-05
4.61865e-05
4.02584e-05
4.77346e-06
6.24391e-07
9.90926e-07
8.87165e-07
4.95018e-08
8.20156e-09
1.32723e-06
2.0822e-07
1.63275e-07
4.69552e-07
2.8141e-07
6.91983e-09
3.41036e-09
3.42023e-09
2.34249e-08
8.43037e-07
3.0001e-06
1.49217e-08
1.49225e-08
1.49217e-08
6.23135e-07
3.22562e-06
3.22288e-06
4.4435e-07
8.06647e-09
7.93357e-09
8.53924e-08
5.28913e-09
2.75687e-09
7.6312e-09
4.58111e-09
1.5033e-08
2.86634e-08
6.94942e-08
1.42319e-07
1.49321e-08
1.49233e-08
1.4873e-08
1.49225e-08
7.97875e-07
2.70348e-06
2.65496e-06
3.39737e-07
7.93357e-09
7.80289e-09
6.90658e-09
3.41177e-09
2.71938e-09
4.42665e-09
4.4681e-09
1.81832e-08
3.66722e-08
4.53327e-08
2.4858e-08
1.82504e-08
1.91196e-08
1.48186e-08
5.85563e-08
2.77831e-07
1.42386e-07
1.70094e-07
6.28094e-08
1.47298e-08
7.83409e-09
3.23973e-09
2.97016e-09
2.66401e-09
2.49881e-08
3.54281e-06
9.30977e-09
2.16767e-08
2.6341e-08
2.17427e-08
1.74325e-08
1.3867e-08
1.07538e-08
1.81067e-08
6.39182e-09
5.99389e-09
5.67021e-09
5.6629e-09
9.75097e-09
4.95905e-09
2.83338e-09
2.23335e-09
5.26877e-09
6.04388e-09
1.02586e-05
3.57649e-09
7.10111e-09
1.0161e-08
1.14875e-08
9.05856e-09
6.86229e-09
5.5375e-09
5.27278e-09
3.09253e-09
4.12129e-09
3.9107e-09
3.47235e-09
4.76572e-09
2.91424e-09
1.99175e-09
1.89353e-09
8.8652e-09
8.46836e-06
1.02617e-05
1.51099e-09
2.23603e-09
2.80709e-09
3.37314e-09
3.10465e-09
2.84794e-09
2.51944e-09
2.3242e-09
2.11094e-09
2.63161e-09
2.52421e-09
2.22911e-09
2.25191e-09
1.76114e-09
1.59663e-09
5.5896e-09
8.6801e-07
1.22183e-05
4.66769e-06
5.73193e-10
7.92336e-10
9.32158e-10
1.07282e-09
1.18797e-09
1.15437e-09
1.07953e-09
1.04619e-09
1.12471e-09
1.27817e-09
1.31659e-09
1.31012e-09
1.31527e-09
1.3204e-09
2.36636e-09
8.53506e-08
9.32022e-06
1.22178e-05
5.85128e-07
1.92459e-10
2.54812e-10
3.12614e-10
3.72632e-10
4.24092e-10
4.40337e-10
4.34216e-10
4.43428e-10
5.23731e-10
6.28969e-10
7.73895e-10
9.37797e-10
1.08658e-09
1.34852e-09
2.96312e-09
4.91223e-08
6.72481e-06
1.14643e-05
1.9861e-07
5.64877e-11
7.48041e-11
9.41688e-11
1.16068e-10
1.38021e-10
1.55991e-10
1.74617e-10
2.10997e-10
3.00969e-10
4.49519e-10
6.70715e-10
9.1757e-10
1.13626e-09
1.67149e-09
4.26664e-09
1.53017e-08
3.02217e-07
1.18471e-06
7.04894e-08
1.58001e-11
2.02323e-11
2.60272e-11
3.39143e-11
4.47945e-11
6.07966e-11
8.96398e-11
1.47816e-10
2.65319e-10
4.66226e-10
7.5517e-10
1.05654e-09
1.31686e-09
1.9119e-09
2.73783e-09
7.90036e-09
1.19314e-08
2.06853e-08
2.06378e-08
4.18621e-12
5.37916e-12
7.41974e-12
1.12644e-11
1.89788e-11
3.53024e-11
7.11273e-11
1.47464e-10
2.97226e-10
5.53202e-10
9.12104e-10
1.30244e-09
2.00973e-09
7.39018e-09
1.25088e-08
7.16645e-09
7.6675e-09
7.62248e-09
1.52664e-08
1.12856e-12
1.6004e-12
2.73694e-12
5.59879e-12
1.27752e-11
3.04412e-11
7.22263e-11
1.6408e-10
3.45477e-10
6.53054e-10
1.08533e-09
1.60413e-09
2.76702e-09
1.14943e-08
1.10851e-07
1.47296e-07
4.76102e-08
6.94251e-08
1.96994e-07
3.46675e-13
6.44245e-13
1.52329e-12
4.068e-12
1.1108e-11
2.96455e-11
7.53048e-11
1.77755e-10
3.81136e-10
7.29336e-10
1.22113e-09
1.83464e-09
3.20179e-09
1.12835e-08
1.32682e-07
3.0859e-07
3.01908e-07
3.06104e-07
3.06247e-07
1.35056e-13
3.51148e-13
1.06471e-12
3.3479e-12
9.94646e-12
2.8131e-11
7.42276e-11
1.79523e-10
3.90377e-10
7.50435e-10
1.25618e-09
1.87168e-09
3.05299e-09
8.83324e-09
7.21998e-08
3.08573e-07
3.0859e-07
3.08573e-07
2.49397e-07
6.59116e-14
2.17209e-13
7.71e-13
2.64721e-12
8.34159e-12
2.46384e-11
6.7031e-11
1.65578e-10
3.65032e-10
7.05129e-10
1.17231e-09
1.68447e-09
2.38762e-09
4.72471e-09
1.30393e-08
1.36139e-07
3.08573e-07
3.08117e-07
4.17502e-08
3.29481e-14
1.33914e-13
5.26214e-13
1.89332e-12
6.32065e-12
1.93515e-11
5.39245e-11
1.34842e-10
3.0243e-10
5.93291e-10
9.89274e-10
1.39149e-09
1.72043e-09
2.57289e-09
6.33168e-09
1.82332e-08
2.3356e-07
2.335e-07
2.08867e-08
1.67264e-14
7.48048e-14
3.11544e-13
1.20128e-12
4.20405e-12
1.3226e-11
3.81033e-11
9.67554e-11
2.21045e-10
4.41466e-10
7.42579e-10
1.04007e-09
1.20562e-09
1.37451e-09
2.18852e-09
5.11902e-09
1.36621e-08
3.77261e-08
1.42959e-08
6.45061e-15
3.63942e-14
1.6044e-13
6.51072e-13
2.40023e-12
7.78902e-12
2.3418e-11
6.10916e-11
1.42319e-10
2.85732e-10
4.87618e-10
6.88219e-10
7.63428e-10
6.79909e-10
8.9049e-10
1.64134e-09
1.54745e-09
6.80869e-09
8.7279e-09
2.80958e-15
1.61044e-14
7.68461e-14
3.20517e-13
1.23342e-12
4.11782e-12
1.23206e-11
3.16419e-11
7.2816e-11
1.48177e-10
2.59732e-10
3.75946e-10
4.26528e-10
3.6344e-10
3.29939e-10
6.12695e-10
1.16834e-09
2.13086e-09
6.19529e-09
1.1113e-15
6.50482e-15
3.34515e-14
1.47968e-13
5.57871e-13
1.88757e-12
5.66046e-12
1.51758e-11
3.57231e-11
7.2581e-11
1.2753e-10
1.90213e-10
2.24378e-10
1.85546e-10
1.65082e-10
2.21673e-10
5.47735e-10
1.47147e-09
4.62848e-09
3.92827e-16
2.52827e-15
1.31602e-14
5.83714e-14
2.31827e-13
7.92469e-13
2.40254e-12
6.45165e-12
1.51565e-11
3.12742e-11
5.65425e-11
8.50833e-11
1.03486e-10
8.64157e-11
7.04515e-11
9.87848e-11
3.10506e-10
9.17664e-10
3.31392e-09
1.30463e-16
8.99802e-16
4.83622e-15
2.20145e-14
8.65664e-14
2.97781e-13
8.96978e-13
2.4467e-12
5.8468e-12
1.22989e-11
2.28377e-11
3.50433e-11
4.46621e-11
3.65072e-11
2.99711e-11
4.28474e-11
1.36002e-10
5.54303e-10
1.79458e-09
4.00842e-17
2.73636e-16
1.48682e-15
6.73446e-15
2.64239e-14
9.1418e-14
2.8615e-13
7.70231e-13
1.82416e-12
3.89015e-12
7.36228e-12
1.16772e-11
1.49401e-11
1.25267e-11
9.62656e-12
1.58604e-11
6.26858e-11
2.43156e-10
9.6915e-10
1.08947e-17
7.87356e-17
4.43086e-16
2.01522e-15
7.79475e-15
2.61804e-14
7.89779e-14
2.10621e-13
5.06002e-13
1.08719e-12
2.09879e-12
3.38471e-12
4.54896e-12
3.65117e-12
2.79541e-12
5.28208e-12
1.98569e-11
1.06702e-10
4.73884e-10
2.59178e-18
2.0033e-17
1.16831e-16
5.27765e-16
2.0065e-15
6.58551e-15
1.95762e-14
5.21878e-14
1.27153e-13
2.77822e-13
5.48543e-13
9.01118e-13
1.2541e-12
9.56252e-13
7.14095e-13
1.50231e-12
6.71241e-12
3.76174e-11
1.26684e-10
)
;

boundaryField
{
    leftWall
    {
        type            zeroGradient;
    }
    rightWall
    {
        type            zeroGradient;
    }
    lowerWall
    {
        type            zeroGradient;
    }
    atmosphere
    {
        type            inletOutlet;
        inletValue      uniform 0;
        value           nonuniform List<scalar> 
46
(
0
0
0
0
0
0
0
0
0
0
0
0
0
0
0
0
0
0
0
0
0
0
0
1.98461e-21
5.0882e-21
5.12139e-20
4.29591e-19
2.59178e-18
2.0033e-17
1.16831e-16
5.27765e-16
2.0065e-15
6.58551e-15
1.95762e-14
5.21878e-14
1.27153e-13
2.77822e-13
5.48543e-13
9.01118e-13
1.2541e-12
9.56252e-13
7.14095e-13
1.50231e-12
6.71241e-12
3.76174e-11
1.26684e-10
)
;
    }
    defaultFaces
    {
        type            empty;
    }
}


// ************************************************************************* //
