/*--------------------------------*- C++ -*----------------------------------*\
| =========                 |                                                 |
| \\      /  F ield         | OpenFOAM: The Open Source CFD Toolbox           |
|  \\    /   O peration     | Version:  2312                                  |
|   \\  /    A nd           | Website:  www.openfoam.com                      |
|    \\/     M anipulation  |                                                 |
\*---------------------------------------------------------------------------*/
FoamFile
{
    version     2.0;
    format      ascii;
    arch        "LSB;label=32;scalar=64";
    class       volScalarField;
    location    "1.45";
    object      p;
}
// * * * * * * * * * * * * * * * * * * * * * * * * * * * * * * * * * * * * * //

dimensions      [1 -1 -2 0 0 0 0];

internalField   nonuniform List<scalar> 
2268
(
5129.45
5087.84
5033.35
4961.94
4900.76
4864.56
4866.53
4909.93
4989.36
5098.5
5231.24
5382.61
5547.47
5719.47
5890.82
6053.3
6199.04
6321.53
6417.93
6490.2
6544.08
6586.5
6632.34
4333.26
4291.78
4239.04
4163.76
4098.88
4059.85
4060.87
4104.69
4184.84
4294.62
4427.77
4579.6
4745.31
4918.84
5092.39
5257.63
5406.22
5530.51
5626.54
5695.93
5744.31
5779.15
5819.48
3544.17
3503.76
3451.21
3364.89
3291.52
3246.07
3245.64
3290.38
3372.32
3483.66
3617.75
3770.58
3938.08
4114.68
4292.51
4463.05
4617.09
4744.63
4839.25
4901.65
4936.28
4951.84
4976.57
2762.28
2723.11
2667.87
2562.87
2476.58
2421.73
2419.84
2465.92
2551.16
2665.17
2800.71
2955.08
3125.29
3306.66
3490.99
3669.55
3832.13
3965.26
4057.91
4109.2
4121.08
4103.81
4100.9
1990.16
1950.67
1892.87
1766.16
1654.66
1598.49
1586.27
1633.27
1720.57
1837.9
1975.29
2131.71
2305.55
2493.52
2686.65
2875.95
3050.69
3192.71
3283.21
3319.54
3298.47
3230.02
3178.52
1274.16
1246.8
1189.25
1084.49
994.47
950.106
964.55
1003.1
1060.36
1134.98
1233.68
1354.25
1500.76
1678.37
1878.36
2080.26
2269.98
2423.82
2511.73
2529.97
2461.93
2306.77
2168.65
837.717
818.7
789.131
754.615
734.564
735.487
751.222
776.728
802.951
831.078
871.234
923.883
991.351
1080.91
1198.5
1350.74
1517.08
1665.52
1750.26
1744.28
1646.07
1468.03
1343.26
712.105
702.049
684.178
671.358
667.142
671.726
690.262
716.722
742.866
769.832
795.897
821.705
843.963
862.537
887.345
947.802
1034.69
1120.89
1177.98
1171.95
1141.6
1104.66
1058.54
2473.84
2425.99
2298.32
2218.67
2306.07
2352.89
2392.52
2506.97
2639.82
2748.51
2878.59
2903.42
2844.58
2743.54
2635.27
2534.21
2453.38
2357.48
2336.33
2141.68
1957.69
1844.64
1724.64
1799.06
1873.65
1944.59
1999.93
2037.46
2114.45
2191.57
2200.52
2126.39
2003.2
1885.29
1783.09
1699.15
1610.95
1601.76
1870.44
1700.7
1613.24
1496.81
1561.04
1649.16
1720.85
1704.03
1674.46
1711.31
1718.35
1643.68
1491.69
1350.24
1239.51
1174.62
1138.59
1102.48
1089
1630.51
1501.8
1387.42
1338.43
1390.3
1446.46
1490.39
1466.07
1421.22
1394.4
1357.9
1250.1
1051.86
964.183
929.478
918.721
928.71
937.658
931.329
1391.49
1293.04
1160.17
1175.55
1235.52
1284.06
1290.14
1240.51
1178.16
1143.58
1085.93
955.489
829.471
833.182
855.994
863.015
869.197
878.307
877.936
1152.69
1077.74
970.71
998.558
1067.62
1134.07
1144.5
1083.48
1005.06
957.743
892.956
775.751
740.624
774.917
793.586
796.779
802.021
813.136
819.975
947.166
911.022
868.847
876.336
908.09
970.166
1002.02
962.927
894.401
848.739
783.452
713.575
700.264
711.03
719.45
722.755
733.752
748.194
762.935
750.474
781.462
813.435
822.3
821.062
848.038
870.871
863.061
826.362
793.852
738.993
680.578
651.256
650.546
655.777
661.74
677.959
695.088
715.772
643.378
633.084
606.386
594.954
596.638
602.901
614.668
630.046
647.945
672.521
701.011
728.246
750.084
766.909
785.231
821.083
857.999
889.676
914.054
931.025
942.445
936.236
843.224
548.893
536.664
510.822
509.553
521.619
532.891
539.33
541.358
544.72
556.946
579.634
605.44
623.199
632.199
639.565
684.059
731.182
769.692
798.991
822.939
834.78
821.826
784.921
462.542
446.026
424.339
433.006
456.793
472.91
479.969
477.346
468.852
462.421
466.404
488.626
510.441
511.213
510.785
551.223
602.825
642.784
668.989
685.534
691.221
687.126
660.669
392.127
380.396
382.771
393.852
407.771
416.895
414.973
403.24
387.894
379.813
381.447
393.064
405.222
402.042
403.559
426.366
476.485
513.562
535.544
548.092
552.967
550.208
535.409
328.211
326.674
341.257
348.995
354.621
353.663
341.427
318.289
293.002
282.247
290.045
300.599
308.996
310.937
306.029
319.801
362.605
392.934
409.3
418.33
422.604
421.228
412.413
259.08
261.555
273.677
279.653
282.936
280.002
267.977
241.491
213.078
195.534
203.919
214.659
224.714
233.298
223.253
233.422
265.947
288.004
297.868
302.839
305.179
303.739
297.666
182.496
185.036
192.606
200.72
207.061
208.344
202.897
187.74
167.665
162.094
167.739
175.872
181.036
181.531
178.187
179.078
197.243
212.393
217.052
216.972
215.466
212.289
206.614
95.3026
99.5273
109.597
122.043
132.358
138.957
142.113
141.801
142.23
150.279
156.054
162.836
164.951
160.958
158.42
152.151
154.939
159.659
158.575
154.14
150.005
146.013
140.673
14.4278
19.7948
32.3172
46.3724
59.3587
71.3975
83.081
94.2574
106.905
126.076
146.089
154.876
154.801
150.095
142.212
128.905
117.835
111.751
104.108
96.3456
90.8371
86.1791
80.5224
-0.659731
-0.577001
1.24444
5.62614
10.6857
18.155
30.1065
45.8275
65.1717
87.517
116.301
133.097
136.493
129.897
114.415
95.2813
80.1971
68.2144
55.0537
44.8201
38.2204
32.5359
26.7054
-0.983275
-1.02707
-1.13011
-1.17026
-1.24295
-1.16756
2.35001
11.3649
22.7497
41.3702
67.9963
86.9972
95.9968
90.3848
74.8673
58.6587
45.849
33.4106
20.3876
13.0738
8.09598
3.16528
-0.540061
-1.19311
-1.21963
-1.30178
-1.3908
-1.48249
-1.56675
-1.73352
-1.80134
-0.0306597
8.27078
19.7056
29.5742
38.2585
38.1043
30.9916
24.3844
18.1838
5.91027
-1.73846
-2.79608
-3.00785
-3.09816
-3.17693
-1.44547
-1.48791
-1.55347
-1.64116
-1.73875
-1.83269
-1.90904
-1.95223
-2.01358
-2.07163
-1.97543
0.613666
4.55009
5.74851
4.55401
3.01064
1.04024
-2.17267
-2.62369
-2.83988
-3.01741
-3.11161
-3.20654
-1.69876
-1.75618
-1.83467
-1.91483
-1.97625
-2.01198
-2.0517
-2.10573
-2.17972
-2.18333
-2.18659
-2.29285
-2.36581
-2.45591
-2.56231
-2.68996
-2.84221
-2.97683
-2.91842
-2.9549
-3.06433
-3.15508
-3.20987
-1.92164
-1.96311
-2.03702
-2.1085
-2.15467
-2.17895
-2.20011
-2.2243
-2.25646
-2.27934
-2.3171
-2.37929
-2.44239
-2.51529
-2.60663
-2.72686
-2.87828
-3.0182
-3.09081
-3.0806
-3.10584
-3.18387
-3.25561
-2.11151
-2.14202
-2.19516
-2.25298
-2.29654
-2.32626
-2.34807
-2.36673
-2.38541
-2.40456
-2.43573
-2.48517
-2.54483
-2.61341
-2.69555
-2.79798
-2.91644
-3.02861
-3.10719
-3.14271
-3.16404
-3.20061
-3.23774
-2.27082
-2.29616
-2.33711
-2.38403
-2.42517
-2.45787
-2.48303
-2.50299
-2.52123
-2.54243
-2.5733
-2.61636
-2.66903
-2.73032
-2.80256
-2.88539
-2.97207
-3.05099
-3.11089
-3.15204
-3.186
-3.21748
-3.24185
-2.40675
-2.42972
-2.46381
-2.50512
-2.54508
-2.58008
-2.60922
-2.63364
-2.65599
-2.68022
-2.71042
-2.74828
-2.79342
-2.8459
-2.90606
-2.97191
-3.03859
-3.09962
-3.14929
-3.18721
-3.21758
-3.24204
-3.25915
-2.53409
-2.5565
-2.58815
-2.62737
-2.66739
-2.70454
-2.73701
-2.76495
-2.79022
-2.81588
-2.84476
-2.87838
-2.91715
-2.96117
-3.01
-3.0618
-3.11344
-3.16126
-3.20231
-3.23561
-3.2617
-3.28095
-3.29277
-2.66699
-2.68912
-2.7202
-2.75883
-2.79896
-2.83685
-2.87045
-2.89951
-2.92535
-2.95023
-2.97645
-3.00557
-3.03831
-3.07476
-3.11432
-3.15554
-3.19635
-3.23449
-3.26802
-3.29576
-3.3172
-3.33227
-3.34056
-2.81105
-2.83204
-2.86205
-2.89943
-2.93841
-2.97529
-3.00785
-3.03568
-3.05987
-3.08238
-3.10523
-3.12988
-3.1571
-3.18696
-3.21894
-3.25198
-3.28463
-3.31535
-3.34266
-3.36535
-3.38265
-3.39435
-3.40007
-2.9647
-2.98366
-3.01148
-3.04636
-3.08277
-3.11705
-3.14701
-3.17214
-3.19339
-3.2126
-3.23168
-3.25203
-3.27433
-3.29864
-3.3245
-3.35111
-3.3774
-3.4022
-3.42434
-3.4427
-3.45652
-3.46552
-3.4694
-3.12363
-3.1401
-3.16496
-3.19624
-3.22902
-3.2597
-3.28612
-3.30775
-3.32547
-3.34105
-3.35638
-3.37276
-3.39076
-3.41041
-3.4313
-3.45277
-3.47399
-3.49403
-3.51192
-3.5267
-3.53764
-3.54449
-3.54692
-3.28334
-3.29742
-3.31888
-3.34594
-3.37455
-3.40117
-3.42375
-3.44171
-3.45585
-3.46793
-3.4798
-3.49266
-3.50699
-3.52274
-3.53955
-3.55686
-3.57399
-3.59018
-3.6046
-3.61644
-3.62507
-3.63024
-3.63169
-3.44036
-3.45203
-3.46983
-3.49332
-3.51756
-3.54026
-3.55916
-3.57369
-3.58453
-3.59345
-3.60229
-3.61214
-3.62337
-3.63589
-3.64935
-3.66328
-3.67708
-3.69013
-3.70173
-3.71119
-3.71798
-3.72186
-3.72259
-3.59262
-3.60208
-3.61693
-3.63698
-3.65751
-3.67653
-3.69214
-3.70364
-3.71162
-3.71785
-3.72413
-3.73146
-3.74012
-3.74997
-3.76069
-3.77185
-3.78294
-3.79343
-3.80273
-3.81028
-3.81561
-3.8185
-3.81877
-3.74022
-3.74826
-3.76042
-3.77728
-3.79431
-3.81001
-3.82285
-3.83179
-3.83734
-3.84132
-3.84553
-3.85081
-3.85736
-3.86502
-3.87349
-3.88239
-3.89127
-3.89968
-3.90712
-3.91312
-3.9173
-3.91945
-3.91939
-3.88365
-3.89015
-3.89998
-3.91401
-3.92808
-3.94118
-3.95166
-3.9584
-3.96191
-3.96409
-3.96665
-3.9703
-3.97514
-3.98102
-3.98766
-3.99471
-4.00178
-4.00849
-4.01442
-4.01917
-4.02244
-4.02403
-4.02377
-4.02303
-4.02815
-4.03599
-4.04766
-4.05942
-4.07045
-4.07891
-4.08373
-4.08554
-4.08632
-4.08762
-4.08999
-4.09347
-4.09792
-4.10307
-4.10861
-4.11422
-4.11954
-4.12424
-4.12799
-4.13052
-4.13168
-4.13129
-4.15856
-4.16271
-4.16909
-4.17891
-4.18874
-4.19809
-4.20479
-4.20804
-4.20845
-4.20818
-4.20855
-4.20992
-4.21234
-4.21564
-4.21959
-4.22392
-4.22832
-4.23252
-4.23622
-4.23915
-4.24111
-4.24193
-4.24147
-4.29096
-4.29437
-4.29965
-4.308
-4.31626
-4.32414
-4.32946
-4.33155
-4.33083
-4.32981
-4.32948
-4.33012
-4.33172
-4.33412
-4.33712
-4.34046
-4.34389
-4.34717
-4.35005
-4.35233
-4.35381
-4.35438
-4.35387
-4.42091
-4.42362
-4.42821
-4.43516
-4.44237
-4.44877
-4.45284
-4.45396
-4.45282
-4.4513
-4.45042
-4.45054
-4.45156
-4.45329
-4.45554
-4.45808
-4.46072
-4.46325
-4.46547
-4.46721
-4.46832
-4.46869
-4.46816
-4.54894
-4.55057
-4.55473
-4.56083
-4.56715
-4.57238
-4.57523
-4.57548
-4.57417
-4.57259
-4.57146
-4.57121
-4.57184
-4.57308
-4.57474
-4.57666
-4.57866
-4.58058
-4.58226
-4.58355
-4.58436
-4.58457
-4.58404
-4.67538
-4.67571
-4.67964
-4.68506
-4.69051
-4.6948
-4.69659
-4.69639
-4.69517
-4.69376
-4.69268
-4.69223
-4.69256
-4.69345
-4.69468
-4.69609
-4.69757
-4.69898
-4.70021
-4.70114
-4.70169
-4.70178
-4.70127
-4.80084
-4.80042
-4.8032
-4.80809
-4.81259
-4.81605
-4.81727
-4.81701
-4.81607
-4.81499
-4.81414
-4.8137
-4.81378
-4.81439
-4.81527
-4.81628
-4.81732
-4.81831
-4.81916
-4.81979
-4.82013
-4.82012
-4.81963
-4.9252
-4.92545
-4.92668
-4.93048
-4.93394
-4.93653
-4.93764
-4.93763
-4.9371
-4.93644
-4.9359
-4.9356
-4.93558
-4.93589
-4.93647
-4.93714
-4.93782
-4.93845
-4.93898
-4.93935
-4.93951
-4.93941
-4.93894
-5.04886
-5.05
-5.05065
-5.05269
-5.05513
-5.05706
-5.05816
-5.05852
-5.05846
-5.05825
-5.05804
-5.05791
-5.05791
-5.05801
-5.05826
-5.05862
-5.05897
-5.05929
-5.05954
-5.05968
-5.05968
-5.05951
-5.05907
-5.17229
-5.17323
-5.17368
-5.17464
-5.17635
-5.17798
-5.17918
-5.17992
-5.18033
-5.18054
-5.18063
-5.18066
-5.18067
-5.18065
-5.18063
-5.18065
-5.1807
-5.18073
-5.18072
-5.18066
-5.18052
-5.18028
-5.17987
-5.29584
-5.29588
-5.29583
-5.29668
-5.29814
-5.29964
-5.30095
-5.302
-5.3028
-5.30335
-5.30369
-5.30385
-5.30384
-5.30372
-5.3035
-5.30322
-5.30294
-5.30267
-5.30242
-5.30217
-5.30191
-5.30162
-5.30124
-5.41959
-5.4192
-5.419
-5.4197
-5.42087
-5.42223
-5.4236
-5.42485
-5.4259
-5.42668
-5.42717
-5.42739
-5.42735
-5.42711
-5.42671
-5.42621
-5.42565
-5.42509
-5.42458
-5.42413
-5.42374
-5.42341
-5.42305
-5.54377
-5.54331
-5.5432
-5.54362
-5.54452
-5.54575
-5.54713
-5.54846
-5.54961
-5.55047
-5.55099
-5.55117
-5.55103
-5.55065
-5.55008
-5.54938
-5.54862
-5.54785
-5.54711
-5.54648
-5.54597
-5.54561
-5.54535
-5.6683
-5.66795
-5.66791
-5.66826
-5.66909
-5.67029
-5.67167
-5.67301
-5.67411
-5.67487
-5.67523
-5.67521
-5.67484
-5.67421
-5.6734
-5.67248
-5.67152
-5.6706
-5.66976
-5.66903
-5.66844
-5.66801
-5.66775
624.248
611.186
651.017
676.488
717.69
679.459
656.451
640.71
609.458
575.437
556.756
545.546
508.082
488.533
474.166
462.122
394.278
380.964
370.005
359.911
285.896
277.009
269.097
261.43
198.231
191.56
185.621
179.784
132.343
126.296
121.195
115.901
71.9772
65.6968
59.8559
53.9765
20.7435
16.0345
9.71207
6.68261
-2.57116
-3.31164
-3.55871
-3.70523
-3.23734
-3.28277
-3.3861
-3.53074
-3.3014
-3.33399
-3.36533
-3.41353
-3.23738
-3.28486
-3.35121
-3.43539
-3.26992
-3.27325
-3.28019
-3.30199
-3.25713
-3.26664
-3.27215
-3.27745
-3.25184
-3.25507
-3.25483
-3.25218
-3.26401
-3.26378
-3.25998
-3.25298
-3.29408
-3.29201
-3.28667
-3.27808
-3.33984
-3.3368
-3.33099
-3.32233
-3.39825
-3.39495
-3.3893
-3.3812
-3.46708
-3.46372
-3.4585
-3.4513
-3.54435
-3.54123
-3.53661
-3.53037
-3.62911
-3.62625
-3.62216
-3.61683
-3.72011
-3.71754
-3.71399
-3.70947
-3.81645
-3.81416
-3.81106
-3.80727
-3.9173
-3.91533
-3.91273
-3.90945
-4.02188
-4.02015
-4.0179
-4.01517
-4.1296
-4.12811
-4.12619
-4.12389
-4.23997
-4.23868
-4.23706
-4.23516
-4.35255
-4.35144
-4.35007
-4.34848
-4.467
-4.46605
-4.4649
-4.46357
-4.58303
-4.58222
-4.58125
-4.58015
-4.70039
-4.6997
-4.69889
-4.69798
-4.81887
-4.81829
-4.81762
-4.81687
-4.9383
-4.93782
-4.93726
-4.93666
-5.05853
-5.05813
-5.05768
-5.05719
-5.17942
-5.1791
-5.17874
-5.17835
-5.30087
-5.30062
-5.30034
-5.30005
-5.42271
-5.42257
-5.42238
-5.42219
-5.54524
-5.54506
-5.54489
-5.54473
-5.66761
-5.66754
-5.6675
-5.66746
693.057
700.294
721.906
736.513
742.248
747.221
749.829
749.789
744.134
712.919
661.3
606.52
572.095
570.104
582.972
597.262
614.879
635.687
655.488
614.369
606.548
612.773
621.392
624.598
624.993
621.402
623.272
624.633
598.142
548.341
496.396
465.399
466.829
488.618
511.2
532.324
559.185
582.327
530.196
517.418
509.678
504.669
498.97
491.353
484.465
479.078
474.482
463.199
429.008
387.105
366.15
372.184
394.463
414.806
436.736
464.754
495.511
443.214
421.252
402.348
388.218
374.861
358.821
344.39
328.335
312.337
308.38
299.782
284.605
277.187
275.958
280.986
290.78
311.966
337.273
371.919
344.071
321.451
296.249
273.07
247.797
220.793
193.106
161.118
139.497
157.11
178.712
186.016
182.576
165.047
142.912
134.378
149.618
177.101
214.572
249.227
228.789
195.479
158.22
123.837
91.7763
60.0259
35.9391
42.7219
65.7507
87.7979
96.0344
87.4404
65.6825
40.1556
20.4892
15.1664
51.637
95.4268
170.806
152.867
112.134
65.2476
33.5035
18.0642
7.57861
4.63339
13.5393
24.87
32.8375
34.602
25.4315
12.1755
3.87926
0.0794068
1.08559
3.36018
25.1978
109.308
99.5682
59.598
15.7447
2.55965
1.55105
1.59509
1.84794
2.45655
5.93346
9.82799
8.64458
2.86306
-0.788713
-1.20839
-1.09978
-0.625221
-0.639983
0.427503
53.1568
48.5906
12.4132
2.75221
1.24688
1.22798
1.19717
1.39231
0.857733
-0.440619
-1.0305
-1.15928
-1.30345
-1.38311
-1.38587
-1.26611
-0.951141
-0.904184
-1.06542
16.0124
18.248
2.08905
1.73014
0.605677
0.622344
0.578624
0.483057
-0.722251
-1.1342
-1.28305
-1.39627
-1.52803
-1.48625
-1.4608
-1.34922
-1.16635
-1.05267
-1.08694
-3.80842
-3.37915
-3.96364
-1.89662
-0.640573
-0.320581
-0.259907
-0.724814
-1.23835
-1.32172
-1.39665
-1.46594
-1.53887
-1.5359
-1.51141
-1.42837
-1.30631
-1.24328
-1.23165
-3.82126
-4.22477
-4.64199
-3.72705
-1.95931
-1.28017
-1.05033
-1.28236
-1.41275
-1.48578
-1.53995
-1.58378
-1.61613
-1.61362
-1.58669
-1.5275
-1.44752
-1.39882
-1.41006
-3.55938
-3.92254
-4.05809
-3.61094
-2.56341
-1.96294
-1.64397
-1.61708
-1.64163
-1.67714
-1.70343
-1.72208
-1.73152
-1.7222
-1.6962
-1.65357
-1.59984
-1.5597
-1.55734
-3.55326
-3.62216
-3.57561
-3.23098
-2.68278
-2.29917
-2.03097
-1.92338
-1.89246
-1.88575
-1.88245
-1.87675
-1.86833
-1.85275
-1.82825
-1.79524
-1.75825
-1.72774
-1.72032
-3.35589
-3.39282
-3.3013
-3.05258
-2.72613
-2.47282
-2.2804
-2.17586
-2.12093
-2.08662
-2.06234
-2.04091
-2.01832
-1.99666
-1.97313
-1.94642
-1.91906
-1.89652
-1.88855
-3.2848
-3.26129
-3.16542
-2.99002
-2.78238
-2.60634
-2.46687
-2.37565
-2.31212
-2.26543
-2.22931
-2.19901
-2.17146
-2.14661
-2.12387
-2.10149
-2.08046
-2.06358
-2.05595
-3.24344
-3.20184
-3.11659
-2.99034
-2.84891
-2.7229
-2.61804
-2.53865
-2.47544
-2.42573
-2.38566
-2.35218
-2.32322
-2.29816
-2.27636
-2.25686
-2.23987
-2.22682
-2.22009
-3.23715
-3.19368
-3.12229
-3.02802
-2.92559
-2.83044
-2.74783
-2.68048
-2.62367
-2.5762
-2.53648
-2.50286
-2.474
-2.4494
-2.42861
-2.41106
-2.39663
-2.38608
-2.38032
-3.26038
-3.22062
-3.16206
-3.08946
-3.01159
-2.93718
-2.87046
-2.81313
-2.76317
-2.71984
-2.68252
-2.65033
-2.62264
-2.59907
-2.5794
-2.56337
-2.55068
-2.54176
-2.53678
-3.30528
-3.2709
-3.22316
-3.16595
-3.1048
-3.04514
-2.9901
-2.94105
-2.89741
-2.85858
-2.82439
-2.7944
-2.76846
-2.74635
-2.72802
-2.71335
-2.70201
-2.69426
-2.68991
-3.36581
-3.33678
-3.29789
-3.25208
-3.20305
-3.15438
-3.10843
-3.06637
-3.02825
-2.9937
-2.96277
-2.93534
-2.91145
-2.89107
-2.87422
-2.86088
-2.85071
-2.84384
-2.84021
-3.43788
-3.41362
-3.38184
-3.34476
-3.30491
-3.26478
-3.22616
-3.19004
-3.15673
-3.12612
-3.09839
-3.0736
-3.0519
-3.03337
-3.01807
-3.00605
-2.99695
-2.9909
-2.988
-3.51889
-3.49867
-3.47259
-3.44231
-3.40962
-3.37628
-3.34366
-3.31262
-3.28354
-3.25654
-3.23187
-3.20968
-3.19019
-3.17352
-3.15977
-3.14904
-3.14088
-3.13569
-3.13325
-3.6071
-3.59024
-3.56874
-3.54382
-3.51679
-3.48894
-3.4613
-3.43461
-3.40929
-3.38558
-3.36376
-3.34404
-3.32667
-3.31182
-3.29957
-3.29009
-3.28286
-3.27836
-3.27608
-3.70126
-3.68718
-3.66937
-3.64873
-3.62625
-3.60286
-3.57939
-3.55644
-3.53445
-3.5137
-3.4945
-3.47709
-3.46171
-3.44857
-3.43772
-3.42938
-3.42312
-3.41914
-3.41689
-3.80037
-3.78858
-3.77376
-3.75659
-3.73779
-3.71808
-3.69812
-3.67841
-3.65935
-3.64125
-3.62442
-3.60911
-3.59557
-3.58399
-3.57443
-3.56704
-3.56149
-3.558
-3.5559
-3.90363
-3.89372
-3.88134
-3.86699
-3.85121
-3.83457
-3.81757
-3.80066
-3.78418
-3.76845
-3.75374
-3.74033
-3.72845
-3.71828
-3.70984
-3.70325
-3.69821
-3.69508
-3.69328
-4.01029
-4.00197
-3.9916
-3.97957
-3.9663
-3.95222
-3.93775
-3.92325
-3.90904
-3.89539
-3.88259
-3.87088
-3.86049
-3.85156
-3.8441
-3.83821
-3.83364
-3.83083
-3.82926
-4.11981
-4.11281
-4.10411
-4.09401
-4.08283
-4.07092
-4.0586
-4.04618
-4.03395
-4.02215
-4.01103
-4.00083
-3.99174
-3.98391
-3.9773
-3.97202
-3.96789
-3.96542
-3.96405
-4.23171
-4.22582
-4.21852
-4.21003
-4.2006
-4.19052
-4.18004
-4.16943
-4.15893
-4.14875
-4.13911
-4.13023
-4.12228
-4.11538
-4.1095
-4.10479
-4.10109
-4.09898
-4.09781
-4.34561
-4.34065
-4.33452
-4.32738
-4.31944
-4.31091
-4.30201
-4.29296
-4.28396
-4.2752
-4.26687
-4.25914
-4.25217
-4.24606
-4.24083
-4.23666
-4.2334
-4.23165
-4.23067
-4.46118
-4.45702
-4.45187
-4.44587
-4.43918
-4.43198
-4.42444
-4.41674
-4.40905
-4.40154
-4.39434
-4.38763
-4.38152
-4.37611
-4.37147
-4.36781
-4.36499
-4.36358
-4.36278
-4.57817
-4.57467
-4.57035
-4.56533
-4.55971
-4.55365
-4.54728
-4.54075
-4.53421
-4.52779
-4.52161
-4.5158
-4.51047
-4.50572
-4.50163
-4.49847
-4.49603
-4.49493
-4.49427
-4.69634
-4.69341
-4.68981
-4.68561
-4.68092
-4.67583
-4.67048
-4.66497
-4.65944
-4.654
-4.64873
-4.64375
-4.63916
-4.63504
-4.63149
-4.6288
-4.62668
-4.62583
-4.62528
-4.81552
-4.81308
-4.81009
-4.80661
-4.80271
-4.79848
-4.79402
-4.78942
-4.78478
-4.78021
-4.77577
-4.77156
-4.76766
-4.76416
-4.76114
-4.75889
-4.75705
-4.75638
-4.75591
-4.93555
-4.93354
-4.93109
-4.92823
-4.92503
-4.92155
-4.91787
-4.91407
-4.91024
-4.90645
-4.90277
-4.89927
-4.89602
-4.89311
-4.89061
-4.88876
-4.88718
-4.88666
-4.88621
-5.05631
-5.05468
-5.0527
-5.05039
-5.0478
-5.04499
-5.04201
-5.03894
-5.03583
-5.03276
-5.02976
-5.02691
-5.02427
-5.02192
-5.01989
-5.01839
-5.01706
-5.01669
-5.01624
-5.17767
-5.17638
-5.17483
-5.17302
-5.17098
-5.16877
-5.16643
-5.16401
-5.16156
-5.15913
-5.15677
-5.15452
-5.15244
-5.15058
-5.14899
-5.14781
-5.14673
-5.14649
-5.14603
-5.29954
-5.29857
-5.29741
-5.29605
-5.29452
-5.29286
-5.2911
-5.28928
-5.28743
-5.28559
-5.28381
-5.28211
-5.28054
-5.27914
-5.27795
-5.27706
-5.27624
-5.27608
-5.27567
-5.42184
-5.42117
-5.42037
-5.41943
-5.41837
-5.41721
-5.41599
-5.41472
-5.41343
-5.41215
-5.4109
-5.40971
-5.40861
-5.40764
-5.40682
-5.4062
-5.40564
-5.40553
-5.40524
-5.5445
-5.54411
-5.54364
-5.54309
-5.54247
-5.5418
-5.54108
-5.54033
-5.53956
-5.5388
-5.53806
-5.53736
-5.53671
-5.53613
-5.53565
-5.5353
-5.53501
-5.53498
-5.53489
-5.66741
-5.6673
-5.66716
-5.66699
-5.66678
-5.66656
-5.66632
-5.66607
-5.66581
-5.66555
-5.6653
-5.66506
-5.66484
-5.66465
-5.66451
-5.66443
-5.66441
-5.66454
-5.66479
)
;

boundaryField
{
    leftWall
    {
        type            calculated;
        value           nonuniform List<scalar> 
50
(
5129.45
4333.26
3544.17
2762.28
1990.16
1274.16
837.717
712.105
643.378
548.893
462.542
392.127
328.211
259.08
182.496
95.3026
14.4278
-0.659731
-0.983275
-1.19311
-1.44547
-1.69876
-1.92164
-2.11151
-2.27082
-2.40675
-2.53409
-2.66699
-2.81105
-2.9647
-3.12363
-3.28334
-3.44036
-3.59262
-3.74022
-3.88365
-4.02303
-4.15856
-4.29096
-4.42091
-4.54894
-4.67538
-4.80084
-4.9252
-5.04886
-5.17229
-5.29584
-5.41959
-5.54377
-5.6683
)
;
    }
    rightWall
    {
        type            calculated;
        value           nonuniform List<scalar> 
50
(
2336.33
1601.76
1089
931.329
877.936
819.975
762.935
715.772
655.488
582.327
495.511
371.919
214.572
95.4268
25.1978
0.427503
-1.06542
-1.08694
-1.23165
-1.41006
-1.55734
-1.72032
-1.88855
-2.05595
-2.22009
-2.38032
-2.53678
-2.68991
-2.84021
-2.988
-3.13325
-3.27608
-3.41689
-3.5559
-3.69328
-3.82926
-3.96405
-4.09781
-4.23067
-4.36278
-4.49427
-4.62528
-4.75591
-4.88621
-5.01624
-5.14603
-5.27567
-5.40524
-5.53489
-5.66479
)
;
    }
    lowerWall
    {
        type            calculated;
        value           nonuniform List<scalar> 
62
(
5527.6
5485.99
5431.5
5360.09
5298.91
5262.71
5264.68
5308.08
5387.51
5496.65
5629.39
5780.76
5945.62
6117.62
6288.97
6451.45
6597.19
6719.68
6816.08
6888.35
6942.23
6984.64
7030.47
6632.34
5819.48
4976.57
4100.9
3178.52
2168.65
1343.26
1058.54
686.725
673.759
713.614
739.085
2473.84
2141.68
1870.44
1630.51
1391.49
1152.69
947.166
750.474
2638.48
2720.18
2606.18
2532.38
2652.07
2703.38
2742.68
2856.84
2996.79
3111.48
3243
3267.31
3207.36
3109.98
3005.11
2909.28
2830.52
2734.54
2703.41
)
;
    }
    atmosphere
    {
        type            calculated;
        value           nonuniform List<scalar> 
46
(
-5.73069
-5.73005
-5.73016
-5.73085
-5.73197
-5.73337
-5.73484
-5.73615
-5.73714
-5.73771
-5.73785
-5.73757
-5.73694
-5.73606
-5.735
-5.73385
-5.73271
-5.73163
-5.7307
-5.72995
-5.72942
-5.72912
-5.72904
-5.72904
-5.72904
-5.72904
-5.72904
-5.72904
-5.72904
-5.72904
-5.72904
-5.72904
-5.72904
-5.72904
-5.72904
-5.72904
-5.72904
-5.72904
-5.72904
-5.72904
-5.72904
-5.72904
-5.72904
-5.72904
-5.72904
-5.72904
)
;
    }
    defaultFaces
    {
        type            empty;
    }
}


// ************************************************************************* //
