/*--------------------------------*- C++ -*----------------------------------*\
| =========                 |                                                 |
| \\      /  F ield         | OpenFOAM: The Open Source CFD Toolbox           |
|  \\    /   O peration     | Version:  2312                                  |
|   \\  /    A nd           | Website:  www.openfoam.com                      |
|    \\/     M anipulation  |                                                 |
\*---------------------------------------------------------------------------*/
FoamFile
{
    version     2.0;
    format      ascii;
    arch        "LSB;label=32;scalar=64";
    class       volScalarField;
    location    "1.45";
    object      p_rgh;
}
// * * * * * * * * * * * * * * * * * * * * * * * * * * * * * * * * * * * * * //

dimensions      [1 -1 -2 0 0 0 0];

internalField   nonuniform List<scalar> 
2268
(
5527.6
5485.99
5431.5
5360.09
5298.91
5262.71
5264.68
5308.08
5387.51
5496.65
5629.39
5780.76
5945.62
6117.62
6288.97
6451.45
6597.19
6719.68
6816.08
6888.35
6942.23
6984.64
7030.47
5527.71
5486.23
5433.49
5358.21
5293.33
5254.3
5255.32
5299.14
5379.29
5489.07
5622.22
5774.04
5939.76
6113.29
6286.84
6452.08
6600.67
6724.96
6820.99
6890.38
6938.76
6973.58
7013.85
5534.92
5494.51
5441.96
5355.64
5282.27
5236.82
5236.39
5281.13
5363.06
5474.41
5608.5
5761.33
5928.83
6105.43
6283.26
6453.8
6607.84
6735.38
6830
6892.4
6927.03
6942.59
6967.3
5549.33
5510.16
5454.92
5349.92
5263.63
5208.78
5206.89
5252.97
5338.21
5452.22
5587.76
5742.13
5912.34
6093.71
6278.04
6456.6
6619.18
6752.31
6844.95
6896.25
6908.11
6890.86
6887.95
5573.51
5534.01
5476.22
5349.51
5238
5149.93
5126.78
5190.77
5299.23
5421.25
5558.64
5715.06
5888.89
6076.86
6270
6459.29
6634.04
6776.06
6866.56
6902.89
6881.76
6812.57
6761.45
5216.74
5034.18
4774.96
4175.82
3462.12
2988.7
2903.52
3098.42
3510.84
4093.16
4633.45
5167.3
5651.06
6023.51
6258.01
6459.91
6649.63
6803.47
6891.33
6909.15
6841.43
6680.93
6435.35
2129.2
2065.46
1795.5
1368.15
1142.07
1116.59
1132.61
1158.2
1184.6
1213.17
1455.84
1862.36
2518.65
3527.52
4741.1
5686.44
6370.91
6779.49
6924.67
6860.26
6199.75
4670.1
3541.89
978.567
991.625
1133.88
1162.28
1094.43
1091.59
1117.62
1155.61
1183.23
1210.53
1236.77
1262.84
1285.18
1303.8
1431.37
2005.16
2924.42
3880.31
4229.98
3751.64
2504.53
1635.65
1495.88
2638.48
2720.18
2606.18
2532.38
2652.07
2703.38
2742.68
2856.84
2996.79
3111.48
3243
3267.31
3207.36
3109.98
3005.11
2909.28
2830.52
2734.54
2703.41
2618.27
2380.51
2253.78
2140.1
2220.92
2217.68
2264.2
2504.4
2765.53
2885.32
3172.26
3255.12
3199.87
3109.91
3006.45
2904.5
2812.95
2699.41
2693.34
2447.06
2224.83
2146.16
1843.15
2001.01
2191.07
2245.68
2237.51
2243.58
2515.65
2699.2
2821.22
2932.59
2737.53
2554.88
2323.54
2041.94
1770.24
1763.51
2632.98
2229.86
2252.93
1762.04
1833
2099.03
2395.21
2394.93
2301.62
2301.73
2522.4
2431.91
2187.72
1684.27
1220.85
1085.93
1122.53
1136.39
1100.54
2752.37
2473.92
2078.51
1747.18
1790.82
1842.24
1966.59
2036.18
2073.85
1984.7
1985.59
2322.99
1550.29
1085.24
1100.18
1123.12
1146.81
1152.17
1103.54
2842.73
2458.98
1721.27
1714.12
1844.78
1896.57
1751.3
1680.11
1594.64
1693.8
1789.16
1469.53
1063.11
1135.55
1170.08
1174.27
1179.38
1180.15
1089.51
2702.45
2014.49
1262.28
1231.31
1665.71
1872.85
1887.39
1503.23
1278.14
1106.35
1055.68
961.666
1025.2
1176.35
1195.35
1165.44
1129.96
1136.21
1051.78
2220.84
1624.91
1136.04
1129.82
1166.81
1420.21
1644.56
1381.44
1117.74
1111.48
1058.49
1051.12
1154.65
1109.82
1032.22
979.092
1000.08
1032.8
984.283
910.03
897.576
871.948
872.629
865.432
898.949
1006.3
1119.01
1177.46
1203.96
1233.68
1261.21
1283.37
1300.2
1318.52
1354.34
1391.31
1423.12
1454.33
1466.4
1475.9
1469.75
1375.33
878.211
861.638
833.755
834.279
845.879
857.236
865.148
835.5
888.084
1108.72
1226.05
1246.22
1260.56
1271.76
1271.83
1324.65
1389.08
1428.35
1457.65
1481.6
1493.44
1480.49
1443.58
854.454
836.492
701.136
720.271
762.767
782.759
839.002
867.805
857.749
826.282
977.025
1188.98
1187.49
1077.32
1031.97
1219.27
1386.39
1426.64
1452.85
1469.39
1475.04
1470.92
1444.46
846.633
812.045
582.694
593.996
607.785
689.783
835.662
856.257
840.838
831.753
827.36
1074.29
1065.85
852.276
844.634
1177.47
1385.14
1422.61
1444.6
1457.14
1461.9
1459.18
1444.44
845.311
810.974
645.149
691.318
819.765
867.944
856.01
819.27
795.369
796.377
803.887
938.087
932.965
689.961
752.308
1210.97
1397.89
1430.59
1451.96
1459.57
1456.53
1458.45
1458.57
838.738
841.267
853.37
859.341
860.984
856.565
844.89
793.355
581.624
606.371
691.963
669.177
628.078
639.578
627.08
1095.16
1344.82
1305.33
1335.41
1370.19
1410.93
1431.69
1483.94
824.798
827.345
834.76
829.556
833.39
845.087
838.579
788.89
523.97
318.167
344.813
329.39
333.647
465.691
411.425
847.292
995.493
923.435
910.326
946.988
994.189
1030.29
1046.25
796.872
804.244
814.418
798.177
810.966
842.67
846.851
847.435
822.891
321.852
328.139
331.977
324.716
314.579
368.578
672.004
887.914
868.239
858.981
853.419
849.231
845.207
839.831
384.377
463.905
615.617
730.823
795.2
838.544
850.268
862.369
880.165
814.765
437.087
329.916
322.571
336.252
471.285
791.995
928.728
875.929
866.934
857.688
852.181
847.512
841.908
1.0335
4.8412
65.8335
187.535
329.225
526.192
741.779
866.78
898.687
932.219
931.474
790.381
525.479
549.215
785.037
982.229
908.91
892.863
878.731
867.071
843.624
790.08
699.156
0.81713
0.773137
0.671639
0.630221
0.572273
8.09658
130.323
408.926
731.783
912.93
956.798
986.163
926.057
932.219
972.885
944.606
912.446
849.066
683.961
495.55
330.921
187.85
81.7444
0.736018
1.02719
1.27822
1.01099
0.512676
0.345591
0.213783
0.178417
73.2045
329.043
693.926
845.501
918.914
925.046
912.728
896.341
792.646
397.576
23.666
-0.703279
-0.854428
-0.594968
-0.719837
0.639412
1.87514
2.13702
2.0489
1.19932
0.204709
0.127659
0.084008
0.0342438
0.00515368
3.83416
101.04
228.877
272.369
239.216
193.796
132.095
29.6928
-0.166304
-0.382354
-0.490349
-0.642492
-0.825319
0.589811
0.607389
1.29644
1.48866
0.83557
0.152076
0.10976
0.0556783
-0.0183206
-0.0162861
-0.0183074
-0.120677
-0.194475
-0.286538
-0.383917
-0.425356
-0.48848
-0.611656
3.35823
1.96668
-0.627099
-0.929823
-1.04808
0.386263
0.333297
0.252869
0.181265
0.135074
0.110597
0.0879539
0.062929
0.0315268
0.0133157
-0.0247213
-0.0845056
-0.142377
-0.198228
-0.271852
-0.266152
-0.426508
-0.544242
-0.190023
-0.346273
-0.816712
-0.897586
-0.969164
0.304676
0.277386
0.216524
0.160331
0.120451
0.094245
0.0724378
0.0527355
0.0345118
0.0132667
-0.0222414
-0.0630686
-0.0962723
-0.160834
-0.226917
-0.329447
-0.505019
-0.617176
-0.6957
-0.731201
-0.752264
-0.788903
-0.825939
0.266023
0.240652
0.199768
0.153872
0.120636
0.0881137
0.0626741
0.0384168
0.0162368
-0.00580997
-0.0338958
-0.0645236
-0.118303
-0.193366
-0.265951
-0.348779
-0.435457
-0.514375
-0.574264
-0.615394
-0.649313
-0.680675
-0.704989
0.255635
0.232462
0.198285
0.158309
0.120923
0.0852981
0.052583
0.028164
0.00581398
-0.0184019
-0.0486099
-0.0864845
-0.131629
-0.184104
-0.244254
-0.310108
-0.376785
-0.437813
-0.487474
-0.525385
-0.555746
-0.580215
-0.597343
0.254239
0.23113
0.199486
0.159806
0.119754
0.0825129
0.0500573
0.0221096
-0.0031881
-0.0288603
-0.0577635
-0.0913937
-0.130157
-0.174174
-0.223
-0.274809
-0.326451
-0.374276
-0.415325
-0.448625
-0.474715
-0.493973
-0.505787
0.247066
0.225464
0.192851
0.153614
0.113336
0.0754539
0.0418766
0.0127889
-0.0131057
-0.0380178
-0.0642574
-0.0933882
-0.126136
-0.162593
-0.202147
-0.243367
-0.284183
-0.322322
-0.35585
-0.383592
-0.405033
-0.420102
-0.428391
0.228429
0.214419
0.179811
0.138419
0.0990992
0.0622431
0.0296903
0.00176537
-0.022469
-0.0450008
-0.0678555
-0.092514
-0.119731
-0.149596
-0.181583
-0.21462
-0.247274
-0.277988
-0.305297
-0.327986
-0.345288
-0.356994
-0.362712
0.200031
0.188241
0.160158
0.116867
0.0799349
0.0456251
0.015659
-0.00952554
-0.0308014
-0.0500316
-0.0691183
-0.0894704
-0.111772
-0.13608
-0.16195
-0.188557
-0.214843
-0.239647
-0.261784
-0.280149
-0.293965
-0.302967
-0.306842
0.166117
0.15454
0.13451
0.0920198
0.0589031
0.028121
0.00171159
-0.0199295
-0.0376961
-0.0532949
-0.0686271
-0.0850052
-0.103013
-0.122657
-0.143548
-0.165019
-0.186239
-0.206284
-0.224176
-0.238949
-0.249895
-0.256739
-0.259177
0.132205
0.121671
0.105345
0.0718768
0.03855
0.0119328
-0.0103724
-0.028528
-0.0429002
-0.0549805
-0.066848
-0.079712
-0.0940426
-0.109794
-0.126607
-0.143922
-0.161052
-0.177237
-0.191658
-0.203498
-0.212133
-0.217297
-0.218744
0.102511
0.102642
0.0798015
0.0547531
0.0208848
-0.00173213
-0.0202615
-0.0349872
-0.046385
-0.0553089
-0.0641438
-0.0739971
-0.0852296
-0.0977482
-0.111215
-0.125142
-0.138948
-0.151993
-0.163591
-0.173052
-0.179845
-0.183721
-0.184455
0.0791524
0.0808926
0.063307
0.036857
0.00659108
-0.0125982
-0.0279976
-0.0398027
-0.0482824
-0.0545042
-0.0607882
-0.0681293
-0.0767881
-0.0866368
-0.0973563
-0.108516
-0.119613
-0.130102
-0.139405
-0.146948
-0.152281
-0.155175
-0.155437
0.0851972
0.0575714
0.0437493
0.0172613
-0.00344089
-0.0207378
-0.0334961
-0.043175
-0.0487978
-0.0527836
-0.0569932
-0.062285
-0.0688342
-0.0764935
-0.084964
-0.0938609
-0.102746
-0.111152
-0.118594
-0.124592
-0.128771
-0.130923
-0.130868
0.0844487
0.0263066
0.0183655
0.000932655
-0.0132422
-0.0265192
-0.0371995
-0.0446416
-0.0481636
-0.0503522
-0.0529223
-0.0565761
-0.06142
-0.0672994
-0.0739362
-0.0809856
-0.0880645
-0.0947728
-0.100701
-0.105455
-0.10872
-0.110307
-0.110051
0.0719254
0.0112207
0.00339588
-0.00815808
-0.019624
-0.0306319
-0.0395511
-0.044785
-0.0466009
-0.0473916
-0.0487029
-0.0510721
-0.0545566
-0.0590024
-0.0641521
-0.0696966
-0.0753017
-0.0806255
-0.0853252
-0.0890734
-0.0916105
-0.0927673
-0.0923763
0.0626017
0.00176362
-0.00463707
-0.0141445
-0.0236704
-0.0330752
-0.0405718
-0.043887
-0.0443165
-0.0440639
-0.0444333
-0.0458134
-0.0482304
-0.0515343
-0.0554864
-0.0598099
-0.0642147
-0.0684103
-0.0721099
-0.075045
-0.0770001
-0.0778237
-0.0773568
0.0561652
-0.00470237
-0.0100252
-0.0180975
-0.0260596
-0.034281
-0.0400922
-0.0421945
-0.0415013
-0.0405012
-0.0401687
-0.040811
-0.0424121
-0.0448209
-0.0478181
-0.0511564
-0.0545859
-0.0578623
-0.0607482
-0.0630228
-0.0645109
-0.0650776
-0.0645646
0.0569309
-0.0087186
-0.0133654
-0.0202879
-0.027555
-0.0341318
-0.0382817
-0.0394303
-0.0383064
-0.0367942
-0.0359226
-0.0360461
-0.0370631
-0.0387915
-0.0410376
-0.0435863
-0.0462254
-0.0487528
-0.0509745
-0.0527124
-0.0538235
-0.0541902
-0.0536633
0.0626521
-0.0105383
-0.0147014
-0.0208161
-0.0272131
-0.0325496
-0.0354178
-0.0357497
-0.0344595
-0.0328873
-0.0317619
-0.0315167
-0.0321489
-0.0333883
-0.0350527
-0.0369711
-0.0389697
-0.0408852
-0.0425635
-0.0438615
-0.0446654
-0.0448756
-0.04435
0.0641052
0.00143455
-0.0144348
-0.0199211
-0.0240899
-0.0278691
-0.031417
-0.0314842
-0.0302689
-0.0288725
-0.0277954
-0.0273426
-0.0276694
-0.028568
-0.0297896
-0.0312035
-0.0326798
-0.0340919
-0.0353208
-0.0362555
-0.0368065
-0.0368916
-0.036381
0.047652
0.130461
-0.0124395
-0.0177599
-0.0156659
-0.0204621
-0.0269548
-0.0269178
-0.0259805
-0.0249067
-0.0240604
-0.0236202
-0.0236992
-0.024305
-0.0251877
-0.0261943
-0.0272379
-0.0282294
-0.0290818
-0.0297117
-0.0300515
-0.0300354
-0.0295449
-0.000760274
0.135984
0.11534
0.00632472
-0.0116665
-0.0204454
-0.0223443
-0.022342
-0.0218196
-0.0211609
-0.0206196
-0.020327
-0.020309
-0.0206159
-0.0211959
-0.0218656
-0.0225429
-0.0231747
-0.0237042
-0.0240738
-0.0242338
-0.0241335
-0.0236692
-0.00797965
0.0700128
0.104204
0.0264686
-0.0146202
-0.0165622
-0.0176712
-0.018039
-0.0179901
-0.0177792
-0.0175682
-0.0174443
-0.0174367
-0.0175361
-0.0177898
-0.0181457
-0.0185035
-0.0188198
-0.019066
-0.0192067
-0.0192096
-0.0190366
-0.0185991
-0.00631495
-0.00712355
-0.00297679
-0.00502949
-0.00924305
-0.012283
-0.0135006
-0.0142461
-0.0146583
-0.0148696
-0.0149655
-0.0149991
-0.0150016
-0.0149892
-0.0149685
-0.0149858
-0.0150337
-0.0150618
-0.0150545
-0.014991
-0.0148541
-0.0146168
-0.0142062
-0.00488382
-0.00492007
-0.0048817
-0.0057478
-0.00723688
-0.00876155
-0.0100849
-0.0111417
-0.0119345
-0.0124897
-0.0128315
-0.0129859
-0.0129836
-0.0128578
-0.0126419
-0.0123642
-0.0120834
-0.0118145
-0.0115616
-0.0113073
-0.0110469
-0.0107579
-0.010377
-0.003501
-0.00306229
-0.00287083
-0.00359964
-0.00480101
-0.00617241
-0.00754542
-0.00879803
-0.00984204
-0.0106236
-0.0111196
-0.0113354
-0.0113005
-0.0110586
-0.01066
-0.0101565
-0.0095971
-0.00903831
-0.00852272
-0.00807324
-0.00769103
-0.00735279
-0.00699791
-0.00251055
-0.00204369
-0.00193471
-0.00235832
-0.00326835
-0.0045013
-0.00587594
-0.00721446
-0.00836453
-0.00922252
-0.00974017
-0.00991682
-0.00978672
-0.00940408
-0.00883131
-0.00813236
-0.00736863
-0.00659706
-0.00586297
-0.00522715
-0.00472171
-0.00435775
-0.00410548
-0.00185323
-0.00149747
-0.00146599
-0.0018103
-0.00264344
-0.00384796
-0.00522871
-0.00656507
-0.00767048
-0.00842692
-0.00878773
-0.00876234
-0.00839931
-0.00777051
-0.00695611
-0.00603523
-0.00508097
-0.00415731
-0.00331426
-0.00258741
-0.00199458
-0.00156944
-0.00131125
1156.69
1144.45
1184.48
1209.95
1376.31
1338.09
1315.1
1299.37
1393.25
1359.26
1340.61
1329.4
1417.12
1397.58
1383.21
1371.17
1442.59
1410.2
1393.07
1389.28
1439.82
1418.63
1418.51
1421.62
1080.15
1079.4
1045.02
1047.7
831.53
825.548
819.706
812.075
833.377
827.85
806.472
797.436
629.744
553.436
364.855
300.815
26.8387
0.147296
-1.75847
-1.89836
-0.809012
-0.95384
-1.2876
-1.60012
-1.18878
-1.24917
-1.31485
-1.36966
-1.07606
-1.11828
-1.14769
-1.19173
-0.982797
-0.957114
-0.945725
-0.975834
-0.842521
-0.849527
-0.856272
-0.864464
-0.715039
-0.718438
-0.718171
-0.715564
-0.602199
-0.601961
-0.598167
-0.591158
-0.507096
-0.50502
-0.499673
-0.491079
-0.427668
-0.424624
-0.41882
-0.41015
-0.360883
-0.357586
-0.351932
-0.343835
-0.304529
-0.301161
-0.295944
-0.288747
-0.256601
-0.253478
-0.248859
-0.242621
-0.216168
-0.213309
-0.209214
-0.203888
-0.181978
-0.179405
-0.175851
-0.17133
-0.153123
-0.150825
-0.147731
-0.143936
-0.128776
-0.126802
-0.124201
-0.120929
-0.108162
-0.10643
-0.104181
-0.10145
-0.0906903
-0.0891928
-0.087276
-0.0849809
-0.0758631
-0.0745733
-0.0729553
-0.0710484
-0.0632458
-0.0621394
-0.0607712
-0.059175
-0.0525058
-0.0515565
-0.0504019
-0.0490766
-0.0433406
-0.0425312
-0.0415593
-0.0404599
-0.0355052
-0.0348164
-0.0340016
-0.0330961
-0.0287916
-0.0282115
-0.0275347
-0.0267927
-0.0230266
-0.0225418
-0.0219855
-0.0213841
-0.018058
-0.0176583
-0.0172061
-0.0167231
-0.0137568
-0.0134356
-0.0130716
-0.0126899
-0.0100102
-0.00976373
-0.00948225
-0.00919193
-0.00665477
-0.00651267
-0.00632861
-0.0061346
-0.00399206
-0.00380901
-0.00363857
-0.00348542
-0.00116454
-0.00110104
-0.00105612
-0.00102034
1231.44
1232.81
1257.23
1219.28
1194.75
1190.53
1294.15
1274.28
1106.53
1094.64
1125.36
1119.33
1087.39
1114.66
949.498
877.804
913.943
953.279
974.625
1273.03
1265.21
1271.44
1280.04
1283.12
1277.33
1217.9
1310.39
1288.11
1069.72
1022.66
1112.74
1092.55
1007.18
838.987
826.489
871.092
988.799
985.307
1314.05
1301.27
1294.2
1289.68
1273.38
1257.85
1183.44
1238.45
1395.31
1239.67
1097.66
939.015
857.213
848.87
809.35
816.899
868.4
971.855
1013.36
1352.99
1329.56
1322.4
1289.15
1260.04
1244.13
1159.3
1283.99
1396.27
1372.04
1041.87
876.704
759.292
814.739
904.319
847.031
868.251
903.474
986.942
1443.32
1309.57
1244.64
1250.94
1297.53
1227.96
1236.52
1280.33
1082.35
1173.39
972.14
783.465
802.311
874.717
833.733
700.118
723.327
590.039
664.246
1434.58
1334.77
1243.91
1310.74
1173.78
1052.62
798.262
397.159
288.971
496.463
849.43
884.047
861.172
677.383
404.642
263.881
191.939
312.626
366.043
1170.59
1130.54
965.846
769.972
638.82
366.803
135.168
49.7558
127.291
409.201
582.749
540.444
414.889
304.344
111.684
14.3516
2.99804
61.6768
295.796
802.854
745.104
585.411
326.982
32.3046
2.98043
3.0231
3.53119
40.2677
144.867
255.505
229.127
106.476
5.73414
0.359439
0.371528
0.788257
0.777328
29.2029
807.473
706.74
149.307
4.51102
2.85503
2.79361
2.86054
4.51424
30.8161
13.4158
4.95148
0.517568
0.27593
0.18627
0.208109
0.324539
0.587498
0.638684
0.474909
542.811
558.515
159.208
6.43497
2.46398
2.32681
2.43016
11.4938
12.7327
2.32156
0.467943
0.272196
0.135941
0.173984
0.199552
0.312295
0.495229
0.610472
0.576354
-1.86405
29.6292
57.1795
8.24341
1.24077
1.51643
2.47345
6.80627
0.742656
0.556508
0.388832
0.319491
0.246559
0.249536
0.287792
0.428413
0.538007
0.550447
0.566143
-1.88079
-2.24191
-1.79603
-1.20279
-0.00440602
0.96264
2.33416
1.21272
0.756712
0.526177
0.370774
0.326843
0.294497
0.297012
0.339761
0.493584
0.573654
0.622051
0.55864
-1.36786
-1.64189
-2.01724
-1.55884
-0.419712
1.31813
1.89836
0.797715
0.755336
0.64877
0.505684
0.332378
0.3043
0.313618
0.341356
0.428295
0.533583
0.550524
0.499508
-1.29214
-1.40931
-1.41413
-1.06131
-0.292879
0.436176
0.668436
0.515194
0.624451
0.540347
0.517421
0.521792
0.332154
0.308267
0.332765
0.365771
0.409165
0.4351
0.440952
-1.06762
-1.1065
-1.01496
-0.735944
-0.338117
-0.054078
0.275628
0.37646
0.437591
0.393218
0.370719
0.364735
0.339012
0.291066
0.313079
0.340318
0.369618
0.389826
0.397889
-0.873347
-0.849801
-0.751377
-0.570428
-0.360565
-0.0210633
0.185211
0.20559
0.132469
0.152016
0.182761
0.212533
0.249764
0.272276
0.287564
0.310661
0.333549
0.348398
0.355694
-0.706784
-0.665066
-0.579571
-0.453501
-0.294031
-0.127757
-0.0304898
0.00397818
0.0619444
0.112117
0.152068
0.184491
0.213387
0.240108
0.260482
0.279925
0.297305
0.310209
0.316763
-0.575327
-0.531836
-0.460426
-0.365066
-0.25977
-0.168635
-0.0860294
-0.0186751
0.0389442
0.0898708
0.129583
0.159512
0.187787
0.212387
0.233283
0.250721
0.265152
0.275817
0.281722
-0.473375
-0.4336
-0.37499
-0.302286
-0.224594
-0.150183
-0.0834559
-0.0261313
0.0249157
0.0709012
0.108146
0.137116
0.164345
0.187914
0.207579
0.223608
0.236299
0.245346
0.250439
-0.393092
-0.358682
-0.310934
-0.25375
-0.192609
-0.132947
-0.0779101
-0.028798
0.0151614
0.0537949
0.0880228
0.117851
0.14373
0.165826
0.184151
0.198821
0.210164
0.218095
0.227636
-0.328438
-0.299394
-0.26049
-0.214691
-0.165664
-0.116997
-0.0710553
-0.0289882
0.00911345
0.0436711
0.0745956
0.102024
0.125922
0.146298
0.163144
0.176479
0.186668
0.19373
0.212903
-0.27532
-0.251055
-0.219272
-0.182187
-0.142344
-0.102218
-0.0635976
-0.0274802
0.00582866
0.036441
0.0641662
0.0889534
0.110656
0.129188
0.144485
0.156503
0.165637
0.185245
0.190951
-0.23114
-0.210915
-0.184841
-0.154555
-0.121864
-0.0885301
-0.0559139
-0.024866
0.00420992
0.0312075
0.0558806
0.0780677
0.0975651
0.11423
0.127979
0.138711
0.148311
0.172339
0.162331
-0.194159
-0.177296
-0.155798
-0.130881
-0.103852
-0.075997
-0.0483603
-0.0216652
0.00365477
0.0273646
0.0491873
0.0688991
0.0862691
0.101122
0.113372
0.122993
0.14598
0.155636
0.137988
-0.163128
-0.149041
-0.131229
-0.110597
-0.0881101
-0.0647242
-0.0412516
-0.0183055
0.00368787
0.0244338
0.0436402
0.0610516
0.0764255
0.089573
0.100416
0.108841
0.126919
0.139451
0.121692
-0.137044
-0.125254
-0.110432
-0.0932587
-0.0744581
-0.0547543
-0.0347876
-0.0150758
0.00398277
0.0220767
0.0389122
0.0542214
0.0677598
0.0793425
0.0889114
0.0963239
0.102436
0.107653
0.10764
-0.115101
-0.1052
-0.092818
-0.0784654
-0.0626896
-0.0460474
-0.029049
-0.0121308
0.00434672
0.0200807
0.0347862
0.0481964
0.060073
0.0702466
0.0786877
0.085291
0.0904167
0.0936435
0.0953651
-0.0965679
-0.0882516
-0.0778833
-0.0658531
-0.0525825
-0.0385055
-0.0240321
-0.00952895
0.00468477
0.0183281
0.0311333
0.0428441
0.0532367
0.0621708
0.0696409
0.0755328
0.0801947
0.0830532
0.0845453
-0.0808922
-0.0738985
-0.0652005
-0.0550979
-0.0439181
-0.0320033
-0.0196849
-0.00727015
0.00496308
0.0167625
0.0278836
0.0380888
0.0471747
0.0550281
0.0618416
0.0672087
0.0712144
0.0737414
0.0752899
-0.0676029
-0.0617156
-0.0544111
-0.0459189
-0.036495
-0.0264108
-0.0159356
-0.00532609
0.00517914
0.015359
0.0249972
0.033882
0.0418342
0.048755
0.0548873
0.0599874
0.0637089
0.0658332
0.0669553
-0.0563048
-0.0513513
-0.045216
-0.0380769
-0.0301348
-0.0216063
-0.0127104
-0.00366076
0.00533949
0.0141009
0.0224381
0.0301702
0.0371432
0.0432626
0.0486331
0.0533327
0.0566167
0.0583605
0.0591768
-0.0466842
-0.0425176
-0.0373676
-0.031371
-0.0246853
-0.0174833
-0.00994354
-0.0022436
0.0054451
0.0129629
0.0201558
0.0268743
0.032987
0.0383964
0.0430644
0.0470024
0.0502261
0.0516242
0.0518188
-0.0384754
-0.034975
-0.0306598
-0.0256334
-0.0200186
-0.0139532
-0.00758299
-0.00105522
0.00548605
0.0119079
0.0180846
0.0238951
0.0292259
0.0339783
0.0380816
0.041269
0.0442114
0.0453073
0.0454721
-0.0314559
-0.0285248
-0.0249221
-0.0207253
-0.0160294
-0.0109446
-0.0055897
-8.66462e-05
0.00544411
0.0108923
0.016156
0.0211361
0.0257338
0.0298512
0.033403
0.0360995
0.0382407
0.0391504
0.0396425
-0.0254422
-0.0230018
-0.0200132
-0.0165321
-0.0126316
-0.00840008
-0.00393446
0.000665074
0.00529875
0.00987523
0.0143108
0.0185231
0.022425
0.0259242
0.0289392
0.0311946
0.0330328
0.0337183
0.0341965
-0.0202785
-0.0182675
-0.0158147
-0.012958
-0.00975371
-0.00627249
-0.0025934
0.00120213
0.00503286
0.00882377
0.0125053
0.0160072
0.0192539
0.0221626
0.0246627
0.0265223
0.0281013
0.0286216
0.0290779
-0.0158364
-0.014206
-0.0122265
-0.00992176
-0.00733437
-0.00452092
-0.00154485
0.00152898
0.00463588
0.00771505
0.0107088
0.0135573
0.0161961
0.0185547
0.0205768
0.0220814
0.0234091
0.0237818
0.0242392
-0.0120022
-0.0107173
-0.00916315
-0.00735303
-0.00531984
-0.00310829
-0.000767627
0.00165237
0.00410206
0.00653316
0.00889849
0.011148
0.013229
0.0150842
0.0166704
0.0178573
0.0189319
0.0191743
0.019639
-0.00868178
-0.00771455
-0.00654841
-0.00518917
-0.00366147
-0.00199941
-0.000239375
0.0015825
0.00342984
0.00526578
0.00705383
0.00875286
0.0103228
0.0117185
0.0129095
0.0138041
0.014621
0.0147829
0.015197
-0.00578948
-0.00512053
-0.0043144
-0.00337283
-0.00231318
-0.00115909
6.44041e-05
0.00133275
0.0026215
0.00390419
0.0051553
0.00634337
0.0074401
0.00841166
0.0092384
0.00985765
0.0104156
0.0105241
0.0108134
-0.00325541
-0.00286234
-0.00239506
-0.00184613
-0.00122567
-0.000547687
0.000173012
0.000921398
0.0016839
0.00244412
0.00318694
0.00389179
0.00454185
0.00511371
0.00559632
0.00594504
0.00624267
0.0062722
0.00635825
-0.000968649
-0.000860195
-0.000720122
-0.00054478
-0.00034149
-0.000116588
0.000124341
0.000376183
0.000634074
0.000891648
0.00114404
0.00138282
0.0016016
0.00178816
0.00193587
0.00201091
0.00203552
0.00190067
0.00165743
)
;

boundaryField
{
    leftWall
    {
        type            fixedFluxPressure;
        gradient        uniform 0;
        value           nonuniform List<scalar> 
50
(
5527.6
5527.71
5534.92
5549.33
5573.51
5216.74
2129.2
978.567
910.03
878.211
854.454
846.633
845.311
838.738
824.798
796.872
384.377
1.0335
0.81713
0.736018
0.639412
0.589811
0.386263
0.304676
0.266023
0.255635
0.254239
0.247066
0.228429
0.200031
0.166117
0.132205
0.102511
0.0791524
0.0851972
0.0844487
0.0719254
0.0626017
0.0561652
0.0569309
0.0626521
0.0641052
0.047652
-0.000760274
-0.00797965
-0.00631495
-0.00488382
-0.003501
-0.00251055
-0.00185323
)
;
    }
    rightWall
    {
        type            fixedFluxPressure;
        gradient        uniform 0;
        value           nonuniform List<scalar> 
50
(
2703.41
2693.34
1763.51
1100.54
1103.54
1089.51
1051.78
984.283
974.625
985.307
1013.36
986.942
664.246
366.043
295.796
29.2029
0.474909
0.576354
0.566143
0.55864
0.499508
0.440952
0.397889
0.355694
0.316763
0.281722
0.250439
0.227636
0.212903
0.190951
0.162331
0.137988
0.121692
0.10764
0.0953651
0.0845453
0.0752899
0.0669553
0.0591768
0.0518188
0.0454721
0.0396425
0.0341965
0.0290779
0.0242392
0.019639
0.015197
0.0108134
0.00635825
0.00165743
)
;
    }
    lowerWall
    {
        type            fixedFluxPressure;
        gradient        uniform 0;
        value           nonuniform List<scalar> 
62
(
5527.6
5485.99
5431.5
5360.09
5298.91
5262.71
5264.68
5308.08
5387.51
5496.65
5629.39
5780.76
5945.62
6117.62
6288.97
6451.45
6597.19
6719.68
6816.08
6888.35
6942.23
6984.64
7030.47
7030.47
7013.85
6967.3
6887.95
6761.45
6435.35
3541.89
1495.88
1156.69
1144.45
1184.48
1209.95
2638.48
2618.27
2447.06
2632.98
2752.37
2842.73
2702.45
2220.84
2638.48
2720.18
2606.18
2532.38
2652.07
2703.38
2742.68
2856.84
2996.79
3111.48
3243
3267.31
3207.36
3109.98
3005.11
2909.28
2830.52
2734.54
2703.41
)
;
    }
    atmosphere
    {
        type            totalPressure;
        rho             rho;
        psi             none;
        gamma           1;
        p0              uniform 0;
        value           nonuniform List<scalar> 
46
(
-0.00165308
-0.00101158
-0.00112476
-0.00180997
-0.00293133
-0.00433179
-0.0057963
-0.00710798
-0.00809848
-0.00867283
-0.00880663
-0.00852897
-0.00790463
-0.00701715
-0.005957
-0.00481274
-0.00366718
-0.00259438
-0.00165583
-0.000905367
-0.000378336
-8.45102e-05
-1.05396e-07
0
0
0
0
0
0
0
0
0
0
0
0
0
0
0
0
0
0
0
0
0
0
0
)
;
    }
    defaultFaces
    {
        type            empty;
    }
}


// ************************************************************************* //
