/*--------------------------------*- C++ -*----------------------------------*\
| =========                 |                                                 |
| \\      /  F ield         | OpenFOAM: The Open Source CFD Toolbox           |
|  \\    /   O peration     | Version:  2312                                  |
|   \\  /    A nd           | Website:  www.openfoam.com                      |
|    \\/     M anipulation  |                                                 |
\*---------------------------------------------------------------------------*/
FoamFile
{
    version     2.0;
    format      ascii;
    arch        "LSB;label=32;scalar=64";
    class       volVectorField;
    location    "1.45";
    object      U;
}
// * * * * * * * * * * * * * * * * * * * * * * * * * * * * * * * * * * * * * //

dimensions      [0 1 -1 0 0 0 0];

internalField   nonuniform List<vector> 
2268
(
(0.0325225 -0.0127618 0)
(0.0437154 -0.000574166 0)
(0.0395453 0.00131104 0)
(0.0312377 0.00228874 0)
(0.0223996 0.00160137 0)
(0.0181582 0.000331201 0)
(0.0195501 -0.00116527 0)
(0.0267024 -0.00246235 0)
(0.0385327 -0.00345575 0)
(0.0540271 -0.00422698 0)
(0.0724703 -0.00483487 0)
(0.0933386 -0.00531121 0)
(0.116086 -0.00561618 0)
(0.139842 -0.00564549 0)
(0.163221 -0.00527281 0)
(0.184288 -0.00439759 0)
(0.200558 -0.00288112 0)
(0.208999 -0.000635762 0)
(0.206427 0.0024959 0)
(0.189735 0.00631971 0)
(0.156758 0.0107503 0)
(0.104963 0.0149171 0)
(0.0455744 0.0200542 0)
(0.0187135 -0.0265495 0)
(0.0350385 -0.00208182 0)
(0.0307235 0.00336225 0)
(0.0247519 0.006389 0)
(0.0162124 0.00500679 0)
(0.0121795 0.00154452 0)
(0.0138854 -0.00272883 0)
(0.0216162 -0.00663332 0)
(0.0340357 -0.00966303 0)
(0.0500348 -0.0120435 0)
(0.0689098 -0.013962 0)
(0.0901809 -0.0155292 0)
(0.113362 -0.0166295 0)
(0.137615 -0.0169247 0)
(0.161553 -0.0160091 0)
(0.183238 -0.0135261 0)
(0.200169 -0.0090942 0)
(0.209278 -0.00246603 0)
(0.207234 0.00638961 0)
(0.190805 0.0173459 0)
(0.157611 0.0299253 0)
(0.10505 0.041984 0)
(0.0425435 0.0522695 0)
(0.00448485 -0.0376178 0)
(0.0237461 -0.00396231 0)
(0.0184784 0.00596993 0)
(0.0127919 0.0108609 0)
(0.00384919 0.00837893 0)
(0.000453568 0.00209676 0)
(0.00318972 -0.00488396 0)
(0.0122312 -0.0114478 0)
(0.0258765 -0.0164242 0)
(0.0428281 -0.0203086 0)
(0.062459 -0.0234407 0)
(0.0844145 -0.0260412 0)
(0.108364 -0.0279285 0)
(0.133551 -0.0285187 0)
(0.158582 -0.0271023 0)
(0.181512 -0.023099 0)
(0.199814 -0.0158236 0)
(0.210278 -0.00476921 0)
(0.209628 0.00995404 0)
(0.194501 0.0283302 0)
(0.16193 0.0496797 0)
(0.108894 0.0707341 0)
(0.0427833 0.0879663 0)
(-0.00663323 -0.0424883 0)
(0.010294 -0.00841096 0)
(0.00308442 0.00569985 0)
(-0.00177776 0.0122115 0)
(-0.0100667 0.0101328 0)
(-0.0117465 0.00205878 0)
(-0.00695086 -0.00775608 0)
(0.00394495 -0.0168783 0)
(0.0190464 -0.0237148 0)
(0.0369694 -0.028973 0)
(0.0572638 -0.0332373 0)
(0.0797546 -0.0368647 0)
(0.104358 -0.0395693 0)
(0.130466 -0.0404526 0)
(0.156691 -0.0384716 0)
(0.18112 -0.0329157 0)
(0.201336 -0.0227854 0)
(0.214045 -0.00732775 0)
(0.215885 0.0138222 0)
(0.203238 0.0400916 0)
(0.172305 0.0708818 0)
(0.118665 0.102052 0)
(0.0465972 0.126254 0)
(-0.0148149 -0.04119 0)
(0.00318362 -0.00768479 0)
(-0.00144096 0.0134806 0)
(-0.00423748 0.0196495 0)
(-0.0120813 0.0146325 0)
(-0.0136453 0.00149987 0)
(-0.00809598 -0.0138052 0)
(0.00393286 -0.0251796 0)
(0.0199648 -0.0333769 0)
(0.0384654 -0.0393879 0)
(0.0590475 -0.0442814 0)
(0.0816173 -0.0486401 0)
(0.106389 -0.0520879 0)
(0.133019 -0.0533549 0)
(0.16018 -0.0509473 0)
(0.185902 -0.0440167 0)
(0.207765 -0.0312326 0)
(0.222838 -0.0115126 0)
(0.228189 0.0147755 0)
(0.219257 0.0481978 0)
(0.190691 0.0883459 0)
(0.134964 0.130309 0)
(0.0531196 0.162395 0)
(-0.0108931 -0.0293813 0)
(0.0188466 -0.0107082 0)
(0.0158737 0.00798666 0)
(0.0135208 0.0132707 0)
(-0.000456523 0.0100307 0)
(-0.00915981 -0.00283831 0)
(-0.00527179 -0.0218011 0)
(0.00911469 -0.0360814 0)
(0.0271541 -0.0460624 0)
(0.0466002 -0.0527787 0)
(0.06813 -0.0578964 0)
(0.0914246 -0.06242 0)
(0.116393 -0.0660966 0)
(0.143158 -0.067499 0)
(0.171528 -0.0645767 0)
(0.200291 -0.0565449 0)
(0.226435 -0.0417504 0)
(0.245979 -0.0187116 0)
(0.256217 0.0136229 0)
(0.253114 0.0560277 0)
(0.228712 0.106689 0)
(0.169281 0.159199 0)
(0.0685605 0.199107 0)
(0.0347967 -0.0427816 0)
(0.125032 -0.0215934 0)
(0.140169 0.0118403 0)
(0.140548 0.0346116 0)
(0.0893981 0.0370642 0)
(0.0282188 0.00984187 0)
(0.0143099 -0.0141785 0)
(0.0148634 -0.0332822 0)
(0.0195225 -0.0451421 0)
(0.032173 -0.0556565 0)
(0.0573865 -0.0649269 0)
(0.0888201 -0.0714204 0)
(0.121287 -0.0763518 0)
(0.152082 -0.0787995 0)
(0.181653 -0.0766348 0)
(0.215254 -0.0682583 0)
(0.249042 -0.0514092 0)
(0.277065 -0.023981 0)
(0.293905 0.014104 0)
(0.295521 0.0610524 0)
(0.274588 0.119688 0)
(0.212834 0.193064 0)
(0.0939318 0.261281 0)
(0.124502 -0.111777 0)
(0.239607 -0.0532948 0)
(0.287265 0.00331916 0)
(0.289034 0.0412037 0)
(0.262858 0.0531554 0)
(0.225803 0.0243898 0)
(0.191325 -0.0142273 0)
(0.16842 -0.0350376 0)
(0.145615 -0.0452264 0)
(0.125913 -0.059038 0)
(0.113013 -0.0736497 0)
(0.107851 -0.0829056 0)
(0.107226 -0.0883767 0)
(0.109123 -0.0918034 0)
(0.13535 -0.0940227 0)
(0.189403 -0.0875295 0)
(0.24504 -0.068091 0)
(0.28802 -0.0385109 0)
(0.312753 0.00327032 0)
(0.315362 0.0607379 0)
(0.298501 0.148425 0)
(0.262445 0.277327 0)
(0.1621 0.421122 0)
(0.102811 0.00536319 0)
(-0.161182 0.0365127 0)
(-0.217926 0.00881685 0)
(-0.188764 0.00694884 0)
(-0.185389 -0.00559481 0)
(-0.180401 -0.0214666 0)
(-0.17123 -0.0277386 0)
(-0.142084 -0.017079 0)
(-0.119802 -0.00395991 0)
(-0.111304 0.00124042 0)
(-0.114824 9.16173e-05 0)
(-0.124316 -0.00255869 0)
(-0.117491 -0.0067529 0)
(-0.0929333 -0.0097261 0)
(-0.0615674 -0.00989808 0)
(-0.0325534 -0.00862232 0)
(-0.00327599 -0.00174415 0)
(-0.0206414 -0.00589783 0)
(0.0455285 0.0105682 0)
(0.0501405 0.0140491 0)
(-0.0401562 0.0892427 0)
(-0.089255 0.00220336 0)
(0.0410773 -0.0229869 0)
(0.0825756 -0.0077578 0)
(0.142225 0.0126464 0)
(0.141763 0.0231988 0)
(-0.00351554 -0.00351581 0)
(-0.0392274 -0.0110295 0)
(-0.0955365 -0.000307915 0)
(-0.118891 0.00104655 0)
(-0.144792 0.00461564 0)
(-0.148925 -0.00735941 0)
(-0.13352 -0.0161846 0)
(-0.109428 -0.0171426 0)
(-0.0850752 -0.0134159 0)
(-0.0619502 -0.00596943 0)
(-0.0461102 -0.0116883 0)
(-0.0149179 -4.18444e-05 0)
(-0.00633257 -0.000767846 0)
(0.029507 0.11442 0)
(-0.0176867 -0.0264329 0)
(0.0533322 -0.0434539 0)
(0.059038 -0.0496173 0)
(0.126817 -0.0367327 0)
(0.203628 0.0184339 0)
(0.244738 0.042419 0)
(0.258074 0.0417024 0)
(0.161142 0.0426071 0)
(-0.0203676 0.0267882 0)
(-0.12299 0.0158133 0)
(-0.150702 -0.0107315 0)
(-0.135006 -0.0261886 0)
(-0.111443 -0.0295717 0)
(-0.0919814 -0.0281869 0)
(-0.0647502 -0.0233845 0)
(-0.032993 -0.0255026 0)
(-0.0235105 -0.0219387 0)
(-0.0573109 0.000543719 0)
(0.0494968 0.104633 0)
(0.00715603 -0.0221803 0)
(0.0220299 -0.0453304 0)
(0.0774266 -0.0504814 0)
(0.144734 -0.0476128 0)
(0.199863 -0.0274254 0)
(0.239469 -0.00399587 0)
(0.258091 0.0313004 0)
(0.229906 0.0937604 0)
(0.0968638 0.100095 0)
(-0.0453395 0.048438 0)
(-0.0623364 -0.000894574 0)
(-0.0326527 -0.0361354 0)
(-0.00622129 -0.0362458 0)
(0.00875497 -0.0338661 0)
(0.0461909 -0.0322849 0)
(0.0835022 -0.0248394 0)
(0.0678217 -0.0121524 0)
(-0.0673255 0.00546268 0)
(0.0200825 0.0840431 0)
(0.0465832 -0.0129673 0)
(0.0141312 -0.0601195 0)
(0.133331 -0.108813 0)
(0.257318 -0.0805623 0)
(0.314933 -0.0273728 0)
(0.318828 0.0166117 0)
(0.288718 0.0507383 0)
(0.262169 0.118679 0)
(0.192359 0.145483 0)
(0.0553109 0.0823086 0)
(0.0825879 -0.00482561 0)
(0.125384 -0.0545087 0)
(0.121382 -0.0445471 0)
(0.120138 -0.0433921 0)
(0.128382 -0.0494212 0)
(0.127373 -0.0379723 0)
(0.105952 0.0374703 0)
(-0.0630953 0.0162284 0)
(0.0210293 0.0559068 0)
(0.0772595 -0.0182056 0)
(0.0982749 -0.101096 0)
(0.187636 -0.166641 0)
(0.290331 -0.146046 0)
(0.42923 -0.066244 0)
(0.510643 0.0138536 0)
(0.485112 0.06921 0)
(0.377228 0.137075 0)
(0.294442 0.173013 0)
(0.239498 0.102157 0)
(0.2775 -0.0128023 0)
(0.23637 -0.0515475 0)
(0.206236 -0.0439059 0)
(0.186161 -0.0352642 0)
(0.166411 -0.0410644 0)
(0.1414 -0.0266204 0)
(0.105686 0.0884993 0)
(-0.0553275 0.0288016 0)
(0.0630443 0.0252685 0)
(0.162356 -0.0138336 0)
(0.224513 -0.11117 0)
(0.277908 -0.197949 0)
(0.324577 -0.190702 0)
(0.412109 -0.127908 0)
(0.533939 -0.00291132 0)
(0.560506 0.0998607 0)
(0.512177 0.180726 0)
(0.443846 0.198123 0)
(0.432162 0.105229 0)
(0.371506 0.0133563 0)
(0.3041 -0.0291594 0)
(0.248924 -0.0302208 0)
(0.204953 -0.0234506 0)
(0.164009 -0.0296585 0)
(0.113833 -0.0111425 0)
(0.0739652 0.134417 0)
(-0.0176475 -0.00916984 0)
(0.233737 -0.0692365 0)
(0.372477 -0.0832141 0)
(0.431857 -0.122404 0)
(0.410445 -0.193219 0)
(0.38728 -0.205347 0)
(0.422263 -0.161668 0)
(0.497537 -0.0417369 0)
(0.55801 0.111828 0)
(0.524955 0.188748 0)
(0.496914 0.20224 0)
(0.461662 0.13164 0)
(0.406265 0.0423849 0)
(0.368829 -0.00971192 0)
(0.315633 -0.00515504 0)
(0.241156 0.00523612 0)
(0.166142 -0.00163429 0)
(0.0622618 0.0196535 0)
(0.0352385 0.167509 0)
(0.129287 -0.300899 0)
(0.282482 -0.172927 0)
(0.412216 -0.0278753 0)
(0.44516 0.0580502 0)
(0.429028 0.0923193 0)
(0.403238 0.0698744 0)
(0.364621 0.0214765 0)
(0.308178 -0.00915255 0)
(0.244497 -0.0286088 0)
(0.193094 -0.050484 0)
(0.158302 -0.0665637 0)
(0.133224 -0.0766625 0)
(0.10956 -0.0820274 0)
(0.0729171 -0.0879101 0)
(0.0310383 -0.107357 0)
(0.0410595 -0.136431 0)
(0.0966526 -0.1264 0)
(0.157368 -0.0795556 0)
(0.214157 -0.0107482 0)
(0.265967 0.0686102 0)
(0.322232 0.157017 0)
(0.416573 0.235385 0)
(0.542082 0.343747 0)
(0.0669602 -0.464263 0)
(0.188461 -0.341258 0)
(0.316564 -0.112451 0)
(0.366185 0.0181501 0)
(0.393729 0.0662515 0)
(0.430356 0.0713313 0)
(0.467947 0.0630203 0)
(0.479435 0.0758434 0)
(0.446599 0.074269 0)
(0.368311 0.0358367 0)
(0.259558 -0.00736629 0)
(0.157558 -0.0412028 0)
(0.0881306 -0.0405524 0)
(0.0216103 -0.0211113 0)
(-0.0306322 -0.0642301 0)
(0.011103 -0.161083 0)
(0.0936328 -0.181112 0)
(0.178547 -0.143752 0)
(0.260713 -0.0860332 0)
(0.339101 -0.0177074 0)
(0.420339 0.0506888 0)
(0.515576 0.102337 0)
(0.637919 0.112567 0)
(0.0315646 -0.548563 0)
(0.0819969 -0.471613 0)
(0.205136 -0.166451 0)
(0.181285 -0.0165474 0)
(0.186472 0.0248322 0)
(0.268207 -0.00552477 0)
(0.393123 -0.0338468 0)
(0.510035 0.0223529 0)
(0.576938 0.0920512 0)
(0.559718 0.136548 0)
(0.480717 0.126552 0)
(0.382858 0.0870236 0)
(0.254781 0.0621851 0)
(0.0830827 0.0516523 0)
(-0.0234437 -0.0661704 0)
(0.0479037 -0.255179 0)
(0.122841 -0.290683 0)
(0.207166 -0.248843 0)
(0.295136 -0.18419 0)
(0.384902 -0.116212 0)
(0.477337 -0.056277 0)
(0.573201 -0.0107153 0)
(0.685934 0.0093971 0)
(-0.00252208 -0.560806 0)
(-0.0335895 -0.511634 0)
(-0.00402 -0.0797899 0)
(-0.069975 0.0559678 0)
(0.0654371 -0.0653264 0)
(0.212493 -0.167385 0)
(0.349532 -0.193108 0)
(0.478401 -0.108468 0)
(0.583085 0.0341788 0)
(0.619719 0.150364 0)
(0.585511 0.201701 0)
(0.493686 0.193403 0)
(0.36003 0.220885 0)
(0.15288 0.252113 0)
(0.0643952 -0.0247131 0)
(0.127932 -0.314442 0)
(0.16302 -0.361952 0)
(0.217441 -0.322745 0)
(0.280691 -0.260454 0)
(0.348462 -0.195842 0)
(0.421098 -0.140358 0)
(0.498079 -0.100848 0)
(0.582765 -0.0815362 0)
(-0.030665 -0.516098 0)
(-0.100762 -0.453374 0)
(-0.123684 -0.116918 0)
(0.0212184 -0.102449 0)
(0.111836 -0.227143 0)
(0.199233 -0.297501 0)
(0.287442 -0.319864 0)
(0.398399 -0.233895 0)
(0.522483 -0.0531936 0)
(0.578539 0.114793 0)
(0.56785 0.229544 0)
(0.491002 0.295664 0)
(0.341062 0.358107 0)
(0.175772 0.364778 0)
(0.191149 -0.0180961 0)
(0.212977 -0.330921 0)
(0.212296 -0.393232 0)
(0.228447 -0.360804 0)
(0.256084 -0.305696 0)
(0.291898 -0.249401 0)
(0.336668 -0.201061 0)
(0.38815 -0.165488 0)
(0.449284 -0.144127 0)
(-0.0372302 -0.451672 0)
(-0.102024 -0.411671 0)
(-0.0932917 -0.243424 0)
(0.0461874 -0.200889 0)
(0.0674485 -0.274022 0)
(0.111451 -0.353735 0)
(0.15825 -0.400757 0)
(0.224313 -0.352946 0)
(0.373625 -0.138971 0)
(0.475059 0.105742 0)
(0.470384 0.264752 0)
(0.415366 0.391968 0)
(0.266837 0.491731 0)
(0.215483 0.368614 0)
(0.27767 -0.0186412 0)
(0.289279 -0.329404 0)
(0.265258 -0.390232 0)
(0.247172 -0.361294 0)
(0.242452 -0.313048 0)
(0.250669 -0.267594 0)
(0.27379 -0.231873 0)
(0.30898 -0.205009 0)
(0.356083 -0.187758 0)
(-0.0329808 -0.387329 0)
(-0.0886936 -0.375456 0)
(-0.0922015 -0.294429 0)
(-0.0167916 -0.237342 0)
(-0.0087707 -0.291949 0)
(0.0152732 -0.378546 0)
(0.0252216 -0.433346 0)
(0.0271282 -0.418447 0)
(0.074063 -0.284687 0)
(0.275857 0.0972116 0)
(0.284062 0.300416 0)
(0.260809 0.518066 0)
(0.259309 0.562813 0)
(0.305243 0.336924 0)
(0.384225 -0.0309119 0)
(0.38037 -0.31118 0)
(0.333957 -0.368838 0)
(0.289983 -0.342734 0)
(0.263087 -0.304476 0)
(0.256853 -0.274668 0)
(0.27277 -0.254775 0)
(0.305932 -0.239076 0)
(0.354982 -0.227062 0)
(-0.0322847 -0.333959 0)
(-0.0981149 -0.335987 0)
(-0.127189 -0.313565 0)
(-0.0858182 -0.271849 0)
(-0.0617393 -0.308978 0)
(-0.0460199 -0.383814 0)
(-0.0523945 -0.426148 0)
(-0.0711063 -0.414793 0)
(-0.0769892 -0.318658 0)
(-0.0243937 -0.0436525 0)
(0.141809 0.251722 0)
(0.221396 0.463288 0)
(0.321602 0.47691 0)
(0.44553 0.276917 0)
(0.526492 -0.0744014 0)
(0.498115 -0.267997 0)
(0.435658 -0.318958 0)
(0.375477 -0.303585 0)
(0.345964 -0.286071 0)
(0.348255 -0.285415 0)
(0.376592 -0.293267 0)
(0.422082 -0.295424 0)
(0.484885 -0.290808 0)
(-0.0370462 -0.314029 0)
(-0.125059 -0.31469 0)
(-0.166138 -0.32908 0)
(-0.13062 -0.318737 0)
(-0.092592 -0.341068 0)
(-0.0751869 -0.389614 0)
(-0.0746051 -0.419101 0)
(-0.0872773 -0.407197 0)
(-0.108202 -0.346188 0)
(-0.0541169 -0.112846 0)
(0.0559597 0.0950783 0)
(0.212839 0.28018 0)
(0.393204 0.312778 0)
(0.56221 0.135435 0)
(0.608542 -0.0874876 0)
(0.571523 -0.208725 0)
(0.522963 -0.253525 0)
(0.481763 -0.263918 0)
(0.47909 -0.278314 0)
(0.510565 -0.307327 0)
(0.562713 -0.335541 0)
(0.622625 -0.348518 0)
(0.692534 -0.346212 0)
(-0.0956478 -0.133811 0)
(-0.198926 -0.205022 0)
(-0.206752 -0.324911 0)
(-0.150788 -0.355448 0)
(-0.105186 -0.372793 0)
(-0.0863773 -0.403038 0)
(-0.0715038 -0.418826 0)
(-0.0645734 -0.395924 0)
(-0.0738799 -0.350181 0)
(-0.0546888 -0.222717 0)
(0.0680924 -0.0184026 0)
(0.212661 0.0965404 0)
(0.37824 0.127575 0)
(0.527094 0.0370082 0)
(0.57903 -0.0793239 0)
(0.592861 -0.171849 0)
(0.603433 -0.230478 0)
(0.629634 -0.269115 0)
(0.674562 -0.312041 0)
(0.73021 -0.360576 0)
(0.78968 -0.399189 0)
(0.84839 -0.416142 0)
(0.91438 -0.416207 0)
(-0.0137376 0.00199378 0)
(0.0419898 -0.0778285 0)
(0.104934 -0.30094 0)
(0.0189314 -0.351705 0)
(-0.118852 -0.367109 0)
(-0.144021 -0.419834 0)
(-0.083265 -0.431112 0)
(-0.0399074 -0.398809 0)
(-0.0143518 -0.349117 0)
(0.00658401 -0.266689 0)
(0.0743283 -0.158555 0)
(0.191181 -0.0529635 0)
(0.33238 -0.016387 0)
(0.462245 -0.0646627 0)
(0.56657 -0.144589 0)
(0.651316 -0.224097 0)
(0.731302 -0.281628 0)
(0.79732 -0.313681 0)
(0.845383 -0.346584 0)
(0.883131 -0.394762 0)
(0.930571 -0.4362 0)
(0.989427 -0.460256 0)
(1.06177 -0.465748 0)
(0.0234888 -0.123567 0)
(0.206957 -0.32944 0)
(0.353821 -0.358381 0)
(0.466312 -0.295374 0)
(0.488842 -0.219775 0)
(0.33393 -0.34895 0)
(0.0165602 -0.456534 0)
(-0.152523 -0.425071 0)
(-0.012842 -0.377033 0)
(0.078633 -0.296057 0)
(0.160096 -0.230602 0)
(0.259021 -0.181723 0)
(0.380826 -0.171133 0)
(0.507127 -0.200466 0)
(0.621576 -0.259094 0)
(0.726542 -0.325809 0)
(0.819852 -0.373277 0)
(0.904831 -0.394382 0)
(1.0102 -0.40972 0)
(1.06169 -0.436825 0)
(1.06211 -0.516425 0)
(1.07187 -0.549271 0)
(1.07211 -0.544057 0)
(0.0875757 -0.261507 0)
(0.206934 -0.506297 0)
(0.308118 -0.52485 0)
(0.419607 -0.432445 0)
(0.532688 -0.260176 0)
(0.589219 -0.121386 0)
(0.511199 -0.16302 0)
(0.377617 -0.315491 0)
(0.173737 -0.549418 0)
(-0.0469347 -0.405803 0)
(0.139775 -0.315074 0)
(0.289643 -0.264444 0)
(0.405348 -0.264001 0)
(0.51426 -0.290946 0)
(0.619222 -0.340441 0)
(0.727785 -0.403429 0)
(0.823539 -0.455097 0)
(0.882621 -0.494356 0)
(0.911795 -0.470001 0)
(0.947987 -0.484895 0)
(0.914917 -0.495307 0)
(0.856661 -0.512693 0)
(0.774084 -0.519152 0)
(0.11642 -0.43691 0)
(0.204693 -0.576494 0)
(0.251039 -0.600515 0)
(0.305381 -0.516455 0)
(0.372378 -0.356888 0)
(0.454491 -0.212753 0)
(0.526851 -0.140911 0)
(0.554867 -0.135178 0)
(0.516475 -0.224334 0)
(0.454805 -0.352695 0)
(0.404917 -0.50896 0)
(0.395871 -0.452819 0)
(0.444103 -0.405678 0)
(0.509637 -0.420365 0)
(0.573565 -0.478989 0)
(0.620983 -0.557578 0)
(0.639896 -0.607553 0)
(0.715773 -0.506485 0)
(0.717068 -0.443718 0)
(0.651899 -0.43736 0)
(0.537705 -0.425338 0)
(0.391411 -0.425186 0)
(0.187187 -0.334577 0)
(0.0843293 -0.586391 0)
(0.149014 -0.62869 0)
(0.157596 -0.618611 0)
(0.152959 -0.530558 0)
(0.166756 -0.396097 0)
(0.218142 -0.294742 0)
(0.28538 -0.244998 0)
(0.345833 -0.231453 0)
(0.378224 -0.24413 0)
(0.374805 -0.27498 0)
(0.336336 -0.333527 0)
(0.29183 -0.379587 0)
(0.269276 -0.410502 0)
(0.269105 -0.446816 0)
(0.260637 -0.501965 0)
(0.232587 -0.555214 0)
(0.192387 -0.585538 0)
(0.165031 -0.528228 0)
(0.124278 -0.419208 0)
(0.0335578 -0.320705 0)
(-0.222555 -0.157646 0)
(-0.38552 -0.100738 0)
(-0.504524 -0.0522516 0)
(0.0363115 -0.669856 0)
(0.057579 -0.649912 0)
(0.0257467 -0.601135 0)
(-0.00801067 -0.511918 0)
(-0.0202201 -0.416423 0)
(-0.00100501 -0.343506 0)
(0.0287345 -0.296728 0)
(0.0567414 -0.276334 0)
(0.071392 -0.279473 0)
(0.0673956 -0.298109 0)
(0.0387457 -0.327437 0)
(0.00108094 -0.352733 0)
(-0.035292 -0.37765 0)
(-0.0619666 -0.407277 0)
(-0.115275 -0.446994 0)
(-0.188413 -0.465386 0)
(-0.292903 -0.445041 0)
(-0.40957 -0.372617 0)
(-0.501501 -0.261673 0)
(-0.551761 -0.157844 0)
(-0.56199 -0.119007 0)
(-0.569344 -0.10397 0)
(-0.589555 -0.0527656 0)
(-0.00310657 -0.681475 0)
(-0.0309516 -0.619821 0)
(-0.0960977 -0.548363 0)
(-0.146816 -0.472957 0)
(-0.184451 -0.40303 0)
(-0.205809 -0.342756 0)
(-0.218036 -0.297428 0)
(-0.226664 -0.270105 0)
(-0.237426 -0.260923 0)
(-0.252459 -0.26831 0)
(-0.272495 -0.289416 0)
(-0.290144 -0.315216 0)
(-0.306226 -0.338372 0)
(-0.324208 -0.359619 0)
(-0.353637 -0.380692 0)
(-0.397913 -0.391372 0)
(-0.452772 -0.376142 0)
(-0.507018 -0.332209 0)
(-0.546894 -0.266443 0)
(-0.566297 -0.190688 0)
(-0.574181 -0.124356 0)
(-0.582544 -0.0767992 0)
(-0.591561 -0.0277011 0)
(-0.0348002 -0.634204 0)
(-0.101682 -0.552434 0)
(-0.188516 -0.478521 0)
(-0.260514 -0.412236 0)
(-0.324013 -0.352046 0)
(-0.374445 -0.300836 0)
(-0.411188 -0.263428 0)
(-0.433829 -0.243162 0)
(-0.442367 -0.241176 0)
(-0.438826 -0.25645 0)
(-0.428456 -0.283834 0)
(-0.41743 -0.313758 0)
(-0.410668 -0.337857 0)
(-0.412163 -0.353084 0)
(-0.42563 -0.358791 0)
(-0.451097 -0.351024 0)
(-0.483282 -0.325895 0)
(-0.514336 -0.283172 0)
(-0.536519 -0.228711 0)
(-0.546156 -0.173243 0)
(-0.547287 -0.125129 0)
(-0.54661 -0.0814265 0)
(-0.54603 -0.0324924 0)
(-0.0557332 -0.548799 0)
(-0.144717 -0.461187 0)
(-0.246712 -0.390805 0)
(-0.332036 -0.333872 0)
(-0.404455 -0.287469 0)
(-0.457445 -0.254503 0)
(-0.488589 -0.238414 0)
(-0.4985 -0.239635 0)
(-0.491408 -0.254794 0)
(-0.47447 -0.2784 0)
(-0.455464 -0.304261 0)
(-0.439948 -0.326704 0)
(-0.430642 -0.342268 0)
(-0.428999 -0.349594 0)
(-0.435858 -0.347503 0)
(-0.45026 -0.333777 0)
(-0.468788 -0.307035 0)
(-0.48652 -0.268364 0)
(-0.498776 -0.221714 0)
(-0.503409 -0.173389 0)
(-0.502228 -0.128404 0)
(-0.498863 -0.0854078 0)
(-0.49516 -0.0382546 0)
(-0.0644892 -0.444122 0)
(-0.160176 -0.358507 0)
(-0.26464 -0.29807 0)
(-0.347702 -0.256736 0)
(-0.41248 -0.230986 0)
(-0.455079 -0.220967 0)
(-0.47643 -0.225941 0)
(-0.47993 -0.243117 0)
(-0.470556 -0.268205 0)
(-0.454097 -0.29608 0)
(-0.436333 -0.321358 0)
(-0.421827 -0.339636 0)
(-0.413222 -0.348724 0)
(-0.411498 -0.348328 0)
(-0.416349 -0.33864 0)
(-0.426254 -0.319587 0)
(-0.438615 -0.291426 0)
(-0.450262 -0.255524 0)
(-0.458338 -0.214692 0)
(-0.461421 -0.172575 0)
(-0.460282 -0.131611 0)
(-0.45716 -0.0907219 0)
(-0.45347 -0.0456942 0)
(-0.0633 -0.337012 0)
(-0.153991 -0.257239 0)
(-0.25166 -0.210347 0)
(-0.32603 -0.186631 0)
(-0.38182 -0.18085 0)
(-0.417327 -0.190848 0)
(-0.434263 -0.214077 0)
(-0.435868 -0.246057 0)
(-0.426748 -0.280908 0)
(-0.41229 -0.312628 0)
(-0.397647 -0.336509 0)
(-0.386596 -0.350154 0)
(-0.381001 -0.353385 0)
(-0.381132 -0.347153 0)
(-0.386196 -0.332483 0)
(-0.394696 -0.310172 0)
(-0.404676 -0.281131 0)
(-0.414042 -0.246805 0)
(-0.420969 -0.209316 0)
(-0.424436 -0.17096 0)
(-0.424772 -0.133023 0)
(-0.423355 -0.0945118 0)
(-0.420912 -0.0521831 0)
(-0.055934 -0.238926 0)
(-0.134983 -0.164725 0)
(-0.222544 -0.131627 0)
(-0.287417 -0.12548 0)
(-0.335242 -0.138784 0)
(-0.365162 -0.167053 0)
(-0.379205 -0.20597 0)
(-0.380507 -0.249784 0)
(-0.373208 -0.291813 0)
(-0.36208 -0.3258 0)
(-0.351651 -0.347733 0)
(-0.345006 -0.356864 0)
(-0.34329 -0.354805 0)
(-0.34621 -0.343753 0)
(-0.35273 -0.325444 0)
(-0.361486 -0.30109 0)
(-0.370988 -0.271765 0)
(-0.379815 -0.238756 0)
(-0.386804 -0.203654 0)
(-0.391238 -0.16802 0)
(-0.393203 -0.132611 0)
(-0.393566 -0.0964805 0)
(-0.392577 -0.0569771 0)
(-0.0458238 -0.156028 0)
(-0.10947 -0.084525 0)
(-0.185409 -0.0626541 0)
(-0.240749 -0.0720556 0)
(-0.281547 -0.10174 0)
(-0.307374 -0.145518 0)
(-0.320048 -0.19772 0)
(-0.322269 -0.251534 0)
(-0.317609 -0.299393 0)
(-0.310312 -0.334721 0)
(-0.304396 -0.354308 0)
(-0.302278 -0.359195 0)
(-0.304437 -0.3527 0)
(-0.310195 -0.337992 0)
(-0.318474 -0.317201 0)
(-0.328109 -0.29167 0)
(-0.337948 -0.26245 0)
(-0.346978 -0.230625 0)
(-0.354408 -0.197402 0)
(-0.359743 -0.163906 0)
(-0.363003 -0.130644 0)
(-0.364728 -0.0967823 0)
(-0.364968 -0.0600789 0)
(-0.0355147 -0.0909288 0)
(-0.0818396 -0.0182798 0)
(-0.145061 -0.00369878 0)
(-0.191761 -0.0265721 0)
(-0.226365 -0.0698297 0)
(-0.249193 -0.126258 0)
(-0.261646 -0.189202 0)
(-0.265645 -0.251072 0)
(-0.264035 -0.30349 0)
(-0.260625 -0.339412 0)
(-0.25905 -0.356416 0)
(-0.261091 -0.357426 0)
(-0.266656 -0.347329 0)
(-0.274863 -0.329961 0)
(-0.284724 -0.307577 0)
(-0.295301 -0.281503 0)
(-0.305702 -0.252703 0)
(-0.315164 -0.222061 0)
(-0.323111 -0.190489 0)
(-0.329183 -0.158836 0)
(-0.333377 -0.127501 0)
(-0.336059 -0.0958042 0)
(-0.337145 -0.0618352 0)
(-0.0260901 -0.0440621 0)
(-0.055365 0.0327477 0)
(-0.104967 0.0461518 0)
(-0.143873 0.0130109 0)
(-0.174093 -0.0414944 0)
(-0.194569 -0.107695 0)
(-0.207474 -0.179229 0)
(-0.213454 -0.247838 0)
(-0.214679 -0.304078 0)
(-0.214783 -0.340138 0)
(-0.217099 -0.3545 0)
(-0.22271 -0.352128 0)
(-0.231051 -0.33926 0)
(-0.241201 -0.320074 0)
(-0.252334 -0.296772 0)
(-0.263709 -0.2706 0)
(-0.274635 -0.242444 0)
(-0.284524 -0.213031 0)
(-0.292925 -0.183044 0)
(-0.299547 -0.153126 0)
(-0.304389 -0.123621 0)
(-0.307706 -0.0940092 0)
(-0.309349 -0.0626338 0)
(-0.0189444 -0.0128162 0)
(-0.0355822 0.0667733 0)
(-0.0724357 0.0814761 0)
(-0.100639 0.0464151 0)
(-0.12799 -0.0164714 0)
(-0.146339 -0.0897633 0)
(-0.159488 -0.167917 0)
(-0.166875 -0.242254 0)
(-0.170162 -0.301746 0)
(-0.173186 -0.337476 0)
(-0.178871 -0.349159 0)
(-0.187436 -0.343947 0)
(-0.197962 -0.329068 0)
(-0.209618 -0.308741 0)
(-0.221744 -0.285028 0)
(-0.233745 -0.25909 0)
(-0.245072 -0.231744 0)
(-0.255273 -0.203599 0)
(-0.264004 -0.175166 0)
(-0.271035 -0.146926 0)
(-0.276349 -0.119188 0)
(-0.280142 -0.0915879 0)
(-0.282224 -0.0626956 0)
(-0.0140091 0.00830629 0)
(-0.0224729 0.0907874 0)
(-0.0495793 0.10589 0)
(-0.0679925 0.0711758 0)
(-0.0891569 0.00550379 0)
(-0.106238 -0.0730175 0)
(-0.118439 -0.156167 0)
(-0.125969 -0.235353 0)
(-0.13024 -0.297366 0)
(-0.13564 -0.332029 0)
(-0.14422 -0.340954 0)
(-0.155177 -0.333458 0)
(-0.1674 -0.317232 0)
(-0.180218 -0.296298 0)
(-0.193113 -0.272573 0)
(-0.20559 -0.247143 0)
(-0.217202 -0.22075 0)
(-0.227606 -0.193901 0)
(-0.236543 -0.166991 0)
(-0.243844 -0.140386 0)
(-0.249517 -0.114356 0)
(-0.253694 -0.0886722 0)
(-0.25615 -0.0621172 0)
(-0.0111286 0.020609 0)
(-0.0127966 0.105614 0)
(-0.0326239 0.121401 0)
(-0.0440663 0.0880566 0)
(-0.0589343 0.0229287 0)
(-0.0738059 -0.0584542 0)
(-0.0839207 -0.145462 0)
(-0.0899912 -0.228501 0)
(-0.0943574 -0.291766 0)
(-0.101889 -0.324239 0)
(-0.112964 -0.330344 0)
(-0.125816 -0.321133 0)
(-0.139348 -0.304125 0)
(-0.15305 -0.283001 0)
(-0.166504 -0.259578 0)
(-0.179299 -0.234884 0)
(-0.191075 -0.209581 0)
(-0.201576 -0.184071 0)
(-0.210618 -0.158645 0)
(-0.218091 -0.133598 0)
(-0.22403 -0.10919 0)
(-0.22856 -0.0853055 0)
(-0.231393 -0.0609334 0)
(-0.0106131 0.0306925 0)
(-0.00955779 0.115966 0)
(-0.023095 0.131493 0)
(-0.0287022 0.0987724 0)
(-0.0384066 0.0344325 0)
(-0.0477865 -0.0474856 0)
(-0.0545487 -0.137324 0)
(-0.0576575 -0.222843 0)
(-0.062009 -0.28532 0)
(-0.0717853 -0.314296 0)
(-0.0849601 -0.317718 0)
(-0.0992622 -0.30737 0)
(-0.113788 -0.29005 0)
(-0.128129 -0.269085 0)
(-0.141934 -0.246222 0)
(-0.154886 -0.222439 0)
(-0.166706 -0.198319 0)
(-0.177214 -0.174179 0)
(-0.186285 -0.150215 0)
(-0.193854 -0.126653 0)
(-0.199991 -0.103763 0)
(-0.204821 -0.0815498 0)
(-0.20802 -0.0591878 0)
(-0.00948623 0.0391935 0)
(-0.0070248 0.121729 0)
(-0.0159397 0.136301 0)
(-0.0166802 0.104418 0)
(-0.0215324 0.0408733 0)
(-0.0258753 -0.0413392 0)
(-0.028078 -0.132933 0)
(-0.0275509 -0.218909 0)
(-0.0329884 -0.277707 0)
(-0.0452183 -0.302244 0)
(-0.0600301 -0.303478 0)
(-0.0753806 -0.292534 0)
(-0.0906222 -0.27528 0)
(-0.105375 -0.254778 0)
(-0.119336 -0.232702 0)
(-0.132282 -0.209964 0)
(-0.144027 -0.187085 0)
(-0.154456 -0.164312 0)
(-0.163491 -0.141771 0)
(-0.171099 -0.119621 0)
(-0.177372 -0.0981221 0)
(-0.182463 -0.0774024 0)
(-0.186035 -0.0568504 0)
(-0.00778411 0.0459185 0)
(-0.00366549 0.124719 0)
(-0.00884885 0.13719 0)
(-0.00574881 0.105575 0)
(-0.00666577 0.0427208 0)
(-0.00613771 -0.0399531 0)
(-0.00214885 -0.13313 0)
(0.000861335 -0.216459 0)
(-0.00734764 -0.268077 0)
(-0.0219084 -0.288178 0)
(-0.0378863 -0.288044 0)
(-0.0539491 -0.276956 0)
(-0.0696526 -0.260059 0)
(-0.084623 -0.240279 0)
(-0.0985784 -0.219181 0)
(-0.111383 -0.197593 0)
(-0.122951 -0.175974 0)
(-0.133232 -0.15453 0)
(-0.142189 -0.133348 0)
(-0.149807 -0.112529 0)
(-0.156187 -0.0923102 0)
(-0.161492 -0.0729232 0)
(-0.165377 -0.0539852 0)
(-0.0066299 0.0495926 0)
(0.00141563 0.124527 0)
(-0.000378649 0.135607 0)
(0.00561016 0.103132 0)
(0.0076462 0.0404059 0)
(0.0139121 -0.0448077 0)
(0.0242274 -0.138736 0)
(0.0261429 -0.212739 0)
(0.0152346 -0.255332 0)
(-0.00110669 -0.272326 0)
(-0.0180807 -0.271696 0)
(-0.0346737 -0.260856 0)
(-0.050626 -0.244582 0)
(-0.0656612 -0.225742 0)
(-0.0795001 -0.205787 0)
(-0.092067 -0.18543 0)
(-0.103374 -0.165067 0)
(-0.113444 -0.144894 0)
(-0.122279 -0.124988 0)
(-0.129874 -0.105419 0)
(-0.136324 -0.0863832 0)
(-0.141805 -0.0681656 0)
(-0.145977 -0.0506188 0)
(-0.00883325 0.051016 0)
(0.00765525 0.118294 0)
(0.0109025 0.131722 0)
(0.0184861 0.0978813 0)
(0.0234323 0.0333356 0)
(0.0373721 -0.0563022 0)
(0.0489575 -0.144196 0)
(0.046981 -0.206421 0)
(0.0345673 -0.241231 0)
(0.0180068 -0.255148 0)
(3.28352e-05 -0.254553 0)
(-0.0172797 -0.244285 0)
(-0.0333414 -0.228956 0)
(-0.0482995 -0.21128 0)
(-0.0619433 -0.192608 0)
(-0.0742129 -0.173548 0)
(-0.0852022 -0.154429 0)
(-0.095006 -0.135453 0)
(-0.103676 -0.116725 0)
(-0.111217 -0.0983077 0)
(-0.117713 -0.0803538 0)
(-0.123338 -0.0631669 0)
(-0.127758 -0.0468195 0)
(-0.00827593 0.0516422 0)
(0.012914 0.104195 0)
(0.0236757 0.124231 0)
(0.0334169 0.0907006 0)
(0.0413474 0.0213765 0)
(0.0625023 -0.0694212 0)
(0.0696704 -0.145905 0)
(0.0642331 -0.197802 0)
(0.0510907 -0.226655 0)
(0.0343737 -0.237867 0)
(0.0165544 -0.236819 0)
(-0.00144688 -0.227396 0)
(-0.0177458 -0.213239 0)
(-0.03244 -0.196977 0)
(-0.0457872 -0.179713 0)
(-0.0577186 -0.161999 0)
(-0.0683502 -0.144113 0)
(-0.0778382 -0.126261 0)
(-0.0862931 -0.108601 0)
(-0.0937425 -0.0912262 0)
(-0.100251 -0.0742581 0)
(-0.105989 -0.0579832 0)
(-0.110626 -0.0426469 0)
(-0.00315761 0.0470001 0)
(0.016502 0.0849459 0)
(0.0323397 0.110687 0)
(0.0487414 0.0801969 0)
(0.0625555 0.00479538 0)
(0.0829466 -0.0804805 0)
(0.0857916 -0.144943 0)
(0.0783266 -0.187892 0)
(0.0648262 -0.211701 0)
(0.0480798 -0.220571 0)
(0.0302328 -0.218875 0)
(0.0128601 -0.210508 0)
(-0.00370349 -0.197658 0)
(-0.0180898 -0.182922 0)
(-0.0309647 -0.167177 0)
(-0.0424953 -0.150832 0)
(-0.0527411 -0.13416 0)
(-0.0618698 -0.117368 0)
(-0.0700511 -0.100665 0)
(-0.0773576 -0.0842115 0)
(-0.0838474 -0.0681265 0)
(-0.0896694 -0.052652 0)
(-0.0944925 -0.0381531 0)
(0.00412107 0.0375092 0)
(0.0238458 0.0674033 0)
(0.0363358 0.0912299 0)
(0.0600206 0.0619475 0)
(0.0831663 -0.0139583 0)
(0.0969027 -0.0871121 0)
(0.0974267 -0.141737 0)
(0.088977 -0.177226 0)
(0.0752253 -0.196548 0)
(0.0586881 -0.203379 0)
(0.0413343 -0.201379 0)
(0.0245303 -0.193688 0)
(0.0090351 -0.18268 0)
(-0.00519508 -0.169311 0)
(-0.0174687 -0.155077 0)
(-0.0284661 -0.1401 0)
(-0.0382851 -0.124609 0)
(-0.0470293 -0.108825 0)
(-0.0548813 -0.0929776 0)
(-0.0619796 -0.0773093 0)
(-0.0683993 -0.0619887 0)
(-0.0742584 -0.0472107 0)
(-0.0792367 -0.0333899 0)
(0.00822455 0.0194029 0)
(0.0317486 0.0532267 0)
(0.0405632 0.0701802 0)
(0.0683039 0.0358324 0)
(0.0938592 -0.0320635 0)
(0.104951 -0.0925051 0)
(0.10414 -0.137224 0)
(0.0951791 -0.16602 0)
(0.0815405 -0.18149 0)
(0.0657214 -0.186732 0)
(0.0494709 -0.184711 0)
(0.0338846 -0.17791 0)
(0.019537 -0.168163 0)
(0.00653384 -0.156622 0)
(-0.00527505 -0.143555 0)
(-0.0155987 -0.129849 0)
(-0.0248858 -0.115496 0)
(-0.0332212 -0.100677 0)
(-0.0407156 -0.0856077 0)
(-0.0475397 -0.0705928 0)
(-0.0538315 -0.0558994 0)
(-0.0596865 -0.0417024 0)
(-0.0647828 -0.028419 0)
(0.00643206 -0.00414393 0)
(0.0322273 0.0376628 0)
(0.0458372 0.0486819 0)
(0.0762027 0.00797716 0)
(0.0984127 -0.0486435 0)
(0.106773 -0.096503 0)
(0.104696 -0.131877 0)
(0.0957199 -0.154819 0)
(0.0829231 -0.167181 0)
(0.0685761 -0.171328 0)
(0.0541401 -0.169522 0)
(0.0404312 -0.163635 0)
(0.0277855 -0.155033 0)
(0.0162601 -0.144656 0)
(0.00576926 -0.133062 0)
(-0.00391846 -0.120187 0)
(-0.0125131 -0.106829 0)
(-0.0203485 -0.0929191 0)
(-0.0274645 -0.0786027 0)
(-0.0339807 -0.064157 0)
(-0.0400561 -0.0499402 0)
(-0.045846 -0.0361657 0)
(-0.0510366 -0.0232394 0)
(0.00405606 -0.0215224 0)
(0.0263297 0.0181164 0)
(0.0493034 0.0230323 0)
(0.0785714 -0.0184228 0)