/*--------------------------------*- C++ -*----------------------------------*\
| =========                 |                                                 |
| \\      /  F ield         | OpenFOAM: The Open Source CFD Toolbox           |
|  \\    /   O peration     | Version:  2312                                  |
|   \\  /    A nd           | Website:  www.openfoam.com                      |
|    \\/     M anipulation  |                                                 |
\*---------------------------------------------------------------------------*/
FoamFile
{
    version     2.0;
    format      ascii;
    arch        "LSB;label=32;scalar=64";
    class       volScalarField;
    location    "3.7";
    object      alpha.oil;
}
// * * * * * * * * * * * * * * * * * * * * * * * * * * * * * * * * * * * * * //

dimensions      [0 0 0 0 0 0 0];

internalField   nonuniform List<scalar> 
2268
(
7.62896e-10
6.93816e-10
1.6894e-09
1.92687e-09
3.74621e-09
8.32192e-09
1.1379e-08
9.16468e-09
4.96117e-09
2.1211e-09
1.08208e-09
6.71999e-10
4.65816e-10
3.4692e-10
2.6618e-10
2.39401e-10
2.96446e-10
4.67373e-10
5.42283e-10
5.44348e-10
1.94674e-08
4.69775e-05
5.23393e-05
6.92963e-10
6.93873e-10
1.77439e-08
1.4079e-08
3.57108e-08
8.62181e-08
1.418e-07
1.07359e-07
4.10499e-08
8.63248e-09
3.06798e-09
2.12243e-09
1.66515e-09
1.61324e-09
1.16134e-09
7.22673e-10
5.57334e-10
6.9152e-10
9.63081e-10
6.00864e-10
2.90304e-08
2.44713e-05
5.1273e-05
6.92963e-10
9.54834e-09
1.09098e-08
2.54241e-08
4.40968e-08
2.99401e-07
3.10667e-07
3.10607e-07
6.63689e-08
4.14052e-09
1.95778e-09
1.64156e-09
1.39483e-09
2.68671e-09
1.60365e-09
9.90782e-09
1.12323e-08
6.3608e-09
3.08911e-09
5.97883e-10
2.94645e-08
6.13052e-07
8.12088e-06
0.000116767
9.65764e-05
1.04648e-05
1.1427e-08
1.15968e-08
9.13627e-08
8.83408e-08
1.00186e-06
1.79356e-09
1.79386e-09
1.76632e-09
1.74718e-09
1.28216e-09
1.28222e-09
1.84381e-06
6.60973e-07
1.88304e-08
9.79206e-10
6.99663e-10
6.04724e-10
1.64332e-08
-1.14583e-26
-5.59348e-12
0.00496394
0.0049324
0.00398743
0.00210625
0.000416205
6.8114e-05
0.000189167
0.000291848
0.000168534
2.2379e-05
7.28728e-06
1.28193e-09
1.2819e-09
3.13292e-05
3.53279e-05
1.59037e-06
8.3069e-05
2.59018e-06
0.000101166
6.15112e-05
5.52966e-08
6.67396e-10
-8.35698e-10
0.00715315
0.00723936
0.00723944
0.00583689
0.00148783
0.00012099
0.000425782
0.000509298
0.000508745
0.000457595
0.00144373
0.00332554
0.00156387
0.000559773
3.53597e-05
0.000156536
0.0018131
0.00182125
0.000178077
7.44149e-08
4.15795e-08
2.47336e-08
-1.37765e-22
0.000994177
0.00209455
0.0026684
0.00219866
0.00123364
0.000215396
0.000115962
0.000215712
0.000350204
0.000386775
0.00131182
0.0174233
0.0176118
0.00560722
0.00698185
0.00808205
0.0020656
0.000895908
0.000858204
0.00442161
0.00247996
0.00103721
0.00106119
1.33816e-05
1.33003e-05
1.32463e-05
1.31938e-05
1.36187e-05
3.24006e-05
4.03716e-05
0.000195834
0.000316246
0.00126253
0.00816309
0.0286654
0.0304044
0.0227287
0.0211952
0.0263238
0.0647782
0.0873008
0.0574174
0.0485288
0.0335967
0.0153057
0.00234328
0.026805
0.0272151
0.0268049
0.0268048
0.0270917
0.0267984
0.0267985
0.0267984
0.0267984
0.0270622
0.0268769
0.0267988
0.0267985
0.0267985
0.0269721
0.0284477
0.0309265
0.0333579
0.0337177
0.026805
0.0702537
0.0663198
0.0569467
0.0435171
0.0425014
0.0442876
0.0520733
0.055836
0.0508733
0.0456965
0.0400496
0.0328778
0.0329731
0.0337571
0.0337151
0.0329032
0.057424
0.0957504
0.198454
0.362285
0.362464
0.362643
0.362822
0.358721
0.331538
0.2509
0.226624
0.278928
0.400848
0.39635
0.337831
0.235878
0.196462
0.306855
0.41136
0.472169
0.510718
0.392713
0.283653
0.174258
0.311458
0.418269
0.418267
0.367123
0.113342
0.0593587
0.277887
0.538087
0.518059
0.482263
0.453947
0.509861
0.514991
0.515027
0.515027
0.515027
0.3076
0.0209482
0.0166639
0.0189937
0.081591
0.09414
0.0345438
0.0203515
0.00979654
0.0472092
0.537242
0.0849948
0.110494
0.18317
0.318723
0.347178
0.233924
0.239936
0.515027
0.0540033
0.0197516
0.0134539
0.0108282
0.0130417
0.0129455
0.0152181
0.00979649
0.00979298
0.217325
0.521354
0.0816338
0.0754488
0.071865
0.0667005
0.0506907
0.0625018
0.0904977
0.377641
0.158955
0.0244343
0.0202111
0.0107751
0.00982854
0.0109589
0.00934274
0.0111771
0.278263
0.518357
0.284432
0.233352
0.159338
0.0739454
0.0403697
0.0364306
0.0365226
0.0702277
0.0836438
0.253266
0.0927843
0.022048
0.0139923
0.0092724
0.00924764
0.00930699
0.114364
0.576585
0.535264
0.429961
0.317278
0.161671
0.0363843
0.0363844
0.0363143
0.0363049
0.0601471
0.0743736
3.10887e-05
3.11188e-05
2.4045e-05
1.31383e-05
1.8365e-05
1.8674e-05
1.1016e-05
6.2701e-05
0.000279055
0.0164086
0.0479117
0.047861
0.0347525
0.0235285
0.0243668
0.116123
0.12047
0.1205
0.120466
0.0599593
0.014167
0.00703689
0.00642939
1.29294e-05
1.25214e-05
1.78299e-07
-3.62922e-23
1.27313e-18
1.47606e-23
-1.5594e-23
5.69022e-05
0.00025242
0.00027927
0.0114536
0.0463367
0.0468247
0.0402597
0.010582
0.00342988
0.00665973
0.0189486
0.024352
0.0113371
0.00271446
0.00203387
0.0186385
3.43058e-22
1.90533e-21
2.7465e-20
-4.1558e-23
-5.88086e-21
-7.48852e-22
1.23416e-05
0.000105777
9.82639e-05
6.49638e-06
6.43312e-06
0.0028682
0.00864671
0.00810253
0.00177199
0.000708516
0.000708772
0.000754192
0.00218262
0.00198638
0.00196902
0.0949235
0.473402
0.00322602
0.122754
0.176752
0.109136
0.0265094
0.000776898
-3.07995e-19
1.88915e-19
6.06267e-19
0.00022403
0.00843254
0.00627793
0.00551096
0.0202678
0.027232
0.0543524
0.0698521
0.0435898
0.103507
0.304937
0.564
0.788117
0.979397
0.283359
0.569426
0.879903
0.837661
0.64868
0.435183
0.270757
0.249733
0.289235
0.417039
0.551605
0.51492
0.4858
0.572901
0.685219
0.79127
0.776275
0.678574
0.802359
0.94988
0.98634
0.996102
0.998869
0.894986
0.94134
0.994508
0.998577
0.998565
0.963496
0.926736
0.915308
0.939709
0.976366
0.984539
0.956078
0.913051
0.943391
0.963518
0.986592
0.99809
0.997867
0.997935
0.998741
0.998869
0.998869
0.998869
0.934598
0.987361
0.999581
0.999581
0.999581
0.999581
0.996013
0.999586
0.999586
0.999587
0.999586
0.999586
0.983238
0.968883
0.995544
0.998799
0.998808
0.998803
0.998809
0.998225
0.998464
0.998869
0.99788
0.994909
0.999236
0.999562
0.999564
0.999581
0.999581
0.99958
0.999571
0.999573
0.999586
0.999575
0.999586
0.999586
0.976449
0.863849
0.801198
0.680608
0.501701
0.409621
0.388351
0.414075
0.458602
0.479061
0.949147
0.936192
0.923922
0.921237
0.92135
0.920963
0.918729
0.910612
0.897874
0.879063
0.864067
0.873177
0.906862
0.928405
0.927445
0.596363
0.0780445
0.00161768
-1.20826e-18
-4.65316e-20
7.51322e-19
0.000907651
0.00222611
0.248405
0.224169
0.201682
0.19742
0.197738
0.196286
0.192051
0.180965
0.162922
0.138792
0.114969
0.117325
0.145974
0.213333
0.205122
0.0780187
3.97978e-05
8.28907e-21
-1.3007e-20
-1.66326e-13
5.44682e-09
4.84127e-16
3.69816e-19
2.65991e-16
3.1508e-16
3.20481e-15
1.90561e-14
1.25309e-14
1.63606e-16
1.39863e-16
3.80496e-16
1.2117e-14
3.03189e-21
1.46739e-24
3.03289e-21
8.88793e-15
1.48337e-24
-1.94714e-25
-1.06812e-11
-6.12133e-12
0
1.09425e-06
6.51459e-08
-1.51114e-20
1.24075e-19
1.88915e-36
1.12284e-08
4.11805e-08
1.83739e-07
4.14391e-07
4.71545e-07
1.66466e-07
3.58959e-08
5.53946e-08
3.3136e-07
7.14259e-07
4.2224e-07
1.26271e-07
2.79649e-07
3.75638e-06
1.50216e-06
1.90216e-07
1.48533e-06
6.6762e-06
7.12032e-06
6.37936e-06
7.13535e-07
2.21143e-07
8.55062e-08
3.25925e-08
1.16714e-07
6.53067e-07
1.67684e-06
1.36845e-06
2.2314e-07
1.70043e-08
1.68963e-07
1.1553e-06
1.16136e-06
3.78213e-07
1.87373e-07
1.2559e-06
3.51522e-06
7.83384e-07
4.1729e-07
1.7975e-06
4.97646e-06
6.63187e-06
5.19041e-06
2.57906e-06
1.0249e-05
9.52289e-06
3.28592e-08
1.7147e-07
1.45475e-06
3.90364e-06
3.93537e-06
6.38726e-07
1.95331e-08
5.83197e-07
7.66298e-07
4.10244e-07
2.80488e-08
3.97571e-08
2.56411e-07
4.78053e-07
3.58422e-07
2.79829e-07
5.25955e-07
4.45243e-07
6.78012e-07
2.15602e-06
1.78086e-05
1.85603e-05
1.86549e-05
2.95848e-08
2.06083e-07
1.29498e-06
3.93442e-06
3.94142e-06
1.22249e-06
6.09551e-07
7.37231e-07
2.39706e-07
4.55466e-08
2.92547e-08
2.05059e-07
1.35657e-07
1.90317e-07
2.17184e-07
2.17504e-07
2.43308e-07
2.38436e-07
6.68444e-06
1.80341e-05
1.8608e-05
1.82553e-05
1.84413e-05
2.60174e-08
1.5471e-07
7.1372e-07
2.08902e-06
2.90591e-06
1.23749e-06
1.15226e-06
1.91726e-05
3.47096e-05
2.62864e-05
2.1391e-05
3.26232e-05
3.97455e-05
3.83405e-05
2.55179e-05
1.5049e-05
1.24769e-05
6.13882e-06
1.36096e-05
1.44582e-05
1.62065e-05
1.11309e-05
2.66411e-06
1.9944e-08
6.69519e-08
3.10762e-07
6.17635e-07
8.46931e-07
7.78392e-07
1.33973e-06
4.57877e-05
6.58627e-05
6.58968e-05
6.58627e-05
6.5362e-05
5.74985e-05
4.74314e-05
4.66316e-05
3.21909e-05
1.12893e-05
2.10962e-06
2.15791e-06
1.18332e-06
9.81969e-07
1.11811e-07
2.40787e-08
1.67616e-08
2.0096e-08
6.44869e-08
1.59531e-07
3.88639e-07
5.79631e-07
8.48167e-07
1.97056e-05
4.26769e-05
2.47809e-05
8.18707e-06
9.18132e-06
6.30273e-06
6.61993e-06
9.64852e-06
4.59149e-06
1.73869e-06
5.61405e-09
5.39918e-09
5.61234e-09
5.40525e-09
1.71275e-08
2.36742e-08
1.49427e-08
9.25292e-09
1.70232e-08
4.38925e-08
1.89515e-07
6.26093e-07
9.17965e-07
1.5065e-08
9.17573e-09
7.90451e-09
7.48993e-09
7.40125e-09
5.43028e-09
5.40363e-09
5.3772e-09
5.40349e-09
5.43016e-09
6.01116e-09
5.7563e-09
6.33522e-09
6.14365e-09
7.29332e-09
1.28627e-08
1.55523e-08
9.02021e-09
1.87554e-08
2.99571e-08
4.15902e-08
2.26456e-08
2.28765e-08
1.59853e-08
1.50941e-08
1.3199e-08
1.11814e-08
7.30956e-09
6.58144e-09
5.93704e-09
5.35087e-09
5.39944e-09
5.65549e-09
5.89131e-09
5.72473e-09
5.42882e-09
5.20006e-09
5.13496e-09
6.20935e-09
1.55456e-08
5.95602e-09
1.65967e-08
2.6184e-08
2.72504e-08
2.66069e-08
2.11726e-08
1.94792e-08
1.65678e-08
1.13827e-08
8.68876e-09
7.00285e-09
5.53473e-09
4.8191e-09
4.12603e-09
3.74743e-09
3.51881e-09
3.5842e-09
3.57757e-09
3.6003e-09
3.61026e-09
3.59732e-09
4.85243e-09
1.06377e-08
3.96068e-09
8.0642e-09
1.2545e-08
1.69306e-08
2.04286e-08
2.09358e-08
1.64168e-08
1.1023e-08
6.31349e-09
4.43566e-09
3.57235e-09
3.05924e-09
2.6963e-09
2.36409e-09
2.1008e-09
1.96497e-09
1.94819e-09
2.03691e-09
2.19036e-09
2.28546e-09
2.81728e-09
3.2995e-09
2.77626e-09
3.0281e-09
5.4699e-09
7.95221e-09
9.41692e-09
9.25066e-09
8.40707e-09
6.1367e-09
3.78334e-09
2.31957e-09
1.65494e-09
1.36916e-09
1.20558e-09
1.08708e-09
1.01836e-09
9.88469e-10
9.88157e-10
1.04998e-09
1.17046e-09
1.34938e-09
1.52426e-09
1.75214e-09
2.2837e-09
2.34708e-09
2.35648e-09
3.08253e-09
3.64712e-09
3.89281e-09
3.55099e-09
2.7258e-09
1.79167e-09
1.02965e-09
6.87455e-10
5.13985e-10
4.25494e-10
3.76293e-10
3.61812e-10
3.76725e-10
4.17488e-10
4.69676e-10
5.41965e-10
6.40445e-10
7.90665e-10
9.45051e-10
1.25126e-09
1.47408e-09
2.43441e-09
2.32512e-09
2.18627e-09
2.10528e-09
1.83311e-09
1.4563e-09
1.05951e-09
7.3393e-10
5.15487e-10
3.69148e-10
2.68479e-10
1.98752e-10
1.5606e-10
1.39631e-10
1.44732e-10
1.67286e-10
2.06382e-10
2.58073e-10
3.30038e-10
4.29961e-10
5.57646e-10
6.84751e-10
9.41779e-10
2.85145e-09
2.48354e-09
2.06198e-09
1.73911e-09
1.40091e-09
1.1185e-09
8.604e-10
6.79375e-10
5.41293e-10
4.27996e-10
3.11904e-10
2.06857e-10
1.30612e-10
8.5183e-11
6.6305e-11
6.70071e-11
8.21778e-11
1.12526e-10
1.53162e-10
2.11311e-10
2.76759e-10
4.27105e-10
5.38425e-10
3.15937e-09
2.69498e-09
2.17235e-09
1.72485e-09
1.44572e-09
1.31993e-09
9.99631e-10
7.85948e-10
6.8645e-10
5.83344e-10
4.52942e-10
3.07301e-10
1.82957e-10
9.72536e-11
5.05375e-11
3.25488e-11
3.20694e-11
4.30286e-11
6.4901e-11
9.75967e-11
1.48851e-10
2.08502e-10
3.23521e-10
3.44986e-09
2.83252e-09
2.15641e-09
1.794e-09
1.70143e-09
2.37494e-09
1.32583e-09
7.94927e-10
7.60568e-10
7.12964e-10
6.04441e-10
4.36158e-10
2.7067e-10
1.43091e-10
6.4794e-11
2.75522e-11
1.55072e-11
1.65921e-11
2.53836e-11
4.20668e-11
6.63127e-11
1.2655e-10
1.81138e-10
3.78116e-09
2.91251e-09
2.3736e-09
3.86186e-09
1.68837e-09
7.24072e-09
2.62453e-09
6.38808e-10
7.35983e-10
7.84719e-10
7.21243e-10
5.53131e-10
3.63884e-10
2.03823e-10
9.42782e-11
3.62921e-11
1.2908e-11
7.54098e-12
9.92648e-12
1.78327e-11
3.65662e-11
5.99179e-11
1.15895e-10
4.14825e-09
3.84113e-09
8.04993e-09
3.19045e-08
6.50697e-08
3.78475e-08
4.79991e-09
5.68467e-10
7.23999e-10
8.12823e-10
7.94392e-10
6.3639e-10
4.37624e-10
2.60113e-10
1.28216e-10
5.08608e-11
1.62568e-11
5.70598e-12
4.67479e-12
8.45617e-12
1.69589e-11
4.18066e-11
6.8458e-11
4.15686e-09
1.69647e-08
6.43696e-08
2.60094e-07
5.9515e-07
2.80437e-07
5.1624e-10
5.17195e-10
7.75898e-10
8.1177e-10
8.27805e-10
6.78756e-10
4.77384e-10
2.97407e-10
1.566e-10
6.63646e-11
2.19039e-11
6.2841e-12
2.83372e-12
4.39767e-12
1.09673e-11
2.24059e-11
4.88112e-11
4.18611e-09
1.49402e-08
8.7259e-08
5.96777e-07
8.2794e-07
4.97e-07
5.17187e-10
5.1625e-10
9.43787e-10
7.87928e-10
8.26295e-10
6.7964e-10
4.78856e-10
3.04799e-10
1.68995e-10
7.67085e-11
2.74426e-11
7.68745e-12
2.29163e-12
2.27359e-12
5.31083e-12
1.60825e-11
3.01567e-11
4.19543e-09
1.50804e-08
2.74366e-07
8.3801e-07
8.34553e-07
1.68985e-07
5.94491e-10
7.12487e-10
1.20824e-09
7.59194e-10
7.38868e-10
6.37464e-10
4.45836e-10
2.80758e-10
1.58611e-10
7.78447e-11
2.97534e-11
9.03063e-12
2.3014e-12
1.34367e-12
3.14979e-12
7.68081e-12
2.03608e-11
4.20471e-09
2.79423e-08
4.43442e-07
8.67293e-07
8.35569e-07
4.85734e-08
2.66179e-08
1.57116e-08
1.02394e-09
7.18889e-10
6.27866e-10
5.55033e-10
3.83331e-10
2.30227e-10
1.29902e-10
6.58462e-11
2.83937e-11
9.34516e-12
2.37224e-12
8.03147e-13
1.43107e-12
4.94406e-12
1.13915e-11
4.23451e-09
4.47501e-08
5.26846e-07
8.67027e-07
7.29067e-07
5.25767e-08
5.741e-08
4.41849e-08
1.10215e-09
7.80355e-10
5.28461e-10
4.36975e-10
2.98684e-10
1.76702e-10
9.57794e-11
4.85933e-11
2.21167e-11
8.17871e-12
2.23387e-12
5.98254e-13
6.79622e-13
1.88482e-12
6.19866e-12
4.54304e-09
4.1763e-08
4.10741e-07
7.96526e-07
2.00372e-07
9.97482e-08
1.72674e-07
4.83719e-08
2.62571e-09
8.97328e-10
4.13755e-10
3.23746e-10
2.16622e-10
1.20713e-10
6.04116e-11
2.96012e-11
1.39457e-11
5.74522e-12
1.78754e-12
4.48947e-13
3.33744e-13
1.02027e-12
2.94854e-12
5.55428e-09
2.71399e-08
1.77214e-07
1.80691e-07
7.28602e-08
1.7245e-07
1.72451e-07
4.7811e-08
4.09678e-09
8.3759e-10
2.99302e-10
2.09393e-10
1.38108e-10
7.22756e-11
3.28378e-11
1.48068e-11
6.94922e-12
3.07637e-12
1.13123e-12
3.00404e-13
1.22845e-13
3.07791e-13
1.28246e-12
5.61512e-09
1.35538e-08
2.18469e-08
4.33427e-08
7.47732e-08
1.72446e-07
1.2649e-07
2.34043e-08
3.01713e-09
6.36077e-10
1.76752e-10
1.16669e-10
7.73913e-11
3.78722e-11
1.52833e-11
6.03578e-12
2.61355e-12
1.19846e-12
5.07399e-13
1.68004e-13
5.86488e-14
1.2183e-13
4.62382e-13
1.49367e-08
1.23815e-08
1.15102e-08
2.69185e-08
1.18337e-07
1.66593e-07
3.62474e-08
5.11065e-09
1.10796e-09
2.62441e-10
7.51723e-11
5.44035e-11
3.59528e-11
1.70939e-11
6.16122e-12
2.01266e-12
7.27177e-13
3.08653e-13
1.53442e-13
6.79908e-14
2.42972e-14
3.25752e-14
1.38832e-13
2.10191e-08
1.15121e-08
1.1509e-08
7.33669e-08
1.30997e-07
7.25306e-08
1.59599e-08
2.40636e-09
3.5729e-10
6.35035e-11
2.14773e-11
1.90678e-11
1.35495e-11
6.34589e-12
2.15122e-12
5.78973e-13
1.56752e-13
5.37806e-14
2.79134e-14
1.90016e-14
8.05067e-15
9.8248e-15
4.0614e-14
1.89941e-08
1.15109e-08
2.93213e-08
1.00189e-07
9.3624e-08
2.76662e-08
5.81585e-09
8.84819e-10
1.03791e-10
1.48197e-11
4.25593e-12
4.35671e-12
3.43175e-12
1.66426e-12
5.31407e-13
1.21245e-13
2.2856e-14
5.36438e-15
3.15365e-15
3.35214e-15
2.14723e-15
2.44509e-15
1.06708e-14
3.4811e-08
3.09133e-08
8.42226e-08
9.08838e-08
2.84187e-08
5.73413e-09
8.5555e-10
8.98266e-11
9.23097e-12
1.40702e-12
3.25285e-13
5.04356e-13
4.59004e-13
2.33661e-13
7.27229e-14
1.36396e-14
1.78855e-15
2.8375e-16
2.20545e-16
4.07684e-16
5.1594e-16
6.32092e-16
2.68384e-15
0.0144342
0.00388384
0.00109495
0.00103546
0.0900363
0.129076
0.0849687
0.104738
0.502145
0.450471
0.44013
0.507132
0.966621
0.922865
0.926594
0.981784
0.998869
0.998243
0.997804
0.996897
0.998869
0.994769
0.98005
0.981873
0.987775
0.979748
0.979748
0.976667
0.489924
0.505358
0.455205
0.431298
0.00314998
0.0039652
0.000968413
0.000501275
1.13206e-21
-5.51531e-22
2.53428e-23
-3.16889e-24
1.63787e-23
1.22131e-07
1.81105e-07
4.33234e-08
4.72181e-08
1.10878e-07
1.09126e-07
1.34459e-08
4.31965e-06
1.11044e-06
2.39607e-07
1.42251e-08
1.86554e-05
6.47833e-06
9.93636e-09
1.00249e-08
1.11321e-05
2.18879e-06
1.2935e-07
9.93636e-09
1.71208e-07
2.34633e-07
2.20773e-07
5.34895e-08
2.44948e-08
2.54885e-08
1.70273e-07
7.15274e-08
3.12449e-08
9.68015e-08
1.21987e-07
1.0593e-07
1.92568e-08
3.01473e-08
6.91968e-08
4.38601e-08
8.75686e-09
1.56673e-08
2.69282e-08
3.04086e-08
6.89393e-09
9.7928e-09
1.43799e-08
1.13649e-08
4.10226e-09
4.98715e-09
5.50022e-09
6.72243e-09
2.68877e-09
2.93939e-09
3.9023e-09
4.28028e-09
1.77757e-09
2.08899e-09
2.29092e-09
2.56512e-09
1.11146e-09
1.22261e-09
1.46018e-09
1.53234e-09
6.95661e-10
7.9789e-10
8.63345e-10
9.63652e-10
4.1409e-10
4.71111e-10
5.67219e-10
6.10037e-10
2.61622e-10
3.0873e-10
3.51794e-10
4.12892e-10
1.64642e-10
2.00334e-10
2.55681e-10
2.88586e-10
1.14054e-10
1.46854e-10
1.75309e-10
2.17625e-10
7.91622e-11
1.00235e-10
1.34851e-10
1.57766e-10
5.77828e-11
7.41249e-11
9.52264e-11
1.26428e-10
3.64744e-11
4.85093e-11
6.75623e-11
8.24972e-11
2.39516e-11
3.12931e-11
4.36783e-11
5.97076e-11
1.21721e-11
1.72091e-11
2.62049e-11
3.39312e-11
6.46487e-12
9.2496e-12
1.37213e-11
1.92982e-11
2.81168e-12
4.48482e-12
6.82754e-12
9.21631e-12
1.19122e-12
1.77902e-12
2.68583e-12
3.92304e-12
4.02899e-13
6.23342e-13
9.93189e-13
1.46515e-12
1.15183e-13
1.8918e-13
2.96311e-13
4.74419e-13
3.22367e-14
5.58394e-14
8.86572e-14
1.34634e-13
8.59072e-15
1.44182e-14
2.39141e-14
3.35093e-14
0.199092
0.26263
0.309743
0.301537
0.152129
0.120722
0.112046
0.395112
0.743228
0.41039
0.268489
0.163663
0.10557
0.0364055
0.0905915
0.283421
0.414406
0.12115
0.0725605
0.224196
0.465446
0.744189
0.904856
0.826616
0.683278
0.3997
0.710963
0.861842
0.787159
0.6531
0.678734
0.711889
0.762331
0.885535
0.962878
0.975753
0.770396
0.578309
0.621115
0.872758
0.971698
0.98871
0.957741
0.722652
0.445465
0.578085
0.867933
0.955864
0.918233
0.919439
0.98055
0.987649
0.950554
0.942833
0.980135
0.989642
0.986944
0.983099
0.981321
0.99606
0.997265
0.916736
0.563346
0.379099
0.379212
0.568732
0.977813
0.990148
0.981544
0.988261
0.988678
0.947781
0.943926
0.946566
0.990897
0.990901
0.997002
0.999022
0.999022
0.999022
0.948719
0.675592
0.670062
0.745676
0.783344
0.970144
0.997199
0.997217
0.997217
0.997191
0.997205
0.968734
0.875717
0.990843
0.990901
0.993279
0.999022
0.999022
0.999022
0.995438
0.970617
0.990014
0.994391
0.993987
0.979589
0.981947
0.995902
0.997217
0.995584
0.988395
0.945495
0.81583
0.976097
0.990901
0.978699
0.998094
0.999022
0.99884
0.998517
0.998461
0.997841
0.996008
0.945601
0.880669
0.794192
0.68881
0.604886
0.532529
0.499348
0.50736
0.553692
0.478318
0.854166
0.481712
0.66785
0.820809
0.864782
0.863096
0.813353
0.700616
0.542192
0.323263
0.16929
0.0563209
5.74594e-09
4.17634e-22
0.000587209
0.00665399
0.0228477
0.0393098
0.0200279
0.0648236
0.00365035
0.0267401
0.088729
0.150346
0.150112
0.0937955
0.0346358
0.00239063
-4.52657e-15
-2.85495e-08
5.69919e-06
1.71485e-05
2.67179e-05
1.43488e-06
-3.72425e-22
-2.03676e-12
-1.41535e-11
-1.11318e-25
-7.969e-22
-1.85713e-21
-1.04372e-20
-2.93629e-20
1.53592e-19
6.11586e-20
-7.04619e-11
2.10055e-10
1.6803e-10
2.40763e-06
3.48623e-05
7.06674e-05
0.000133728
0.000133613
7.71992e-05
3.87162e-18
7.18703e-26
8.74012e-09
1.90104e-07
1.08913e-06
-2.10044e-17
2.10044e-17
1.37111e-09
9.2587e-08
8.59427e-08
5.74576e-07
2.44621e-05
1.64119e-05
1.17336e-05
7.5427e-05
0.000133719
0.000133613
0.000129136
3.04902e-05
1.7817e-09
4.87906e-07
1.07762e-06
6.45252e-06
6.21278e-06
8.0835e-09
1.16518e-08
9.59704e-09
3.93955e-24
9.8995e-06
6.81556e-05
8.06669e-05
8.06669e-05
8.06669e-05
8.06085e-05
4.95619e-05
3.43865e-05
5.2813e-05
1.87219e-05
8.28126e-06
4.09848e-05
0.000151159
0.000169055
7.97849e-05
9.76647e-07
8.55678e-08
1.12245e-09
-9.6226e-13
7.45999e-06
6.64505e-05
8.035e-05
6.57066e-05
3.13495e-05
2.13834e-05
2.15922e-06
2.55824e-06
9.5986e-05
0.00017087
7.95546e-06
0.000160053
0.000236314
0.000237407
0.000238396
6.17378e-07
-4.02385e-10
1.78182e-16
-5.14185e-14
6.97497e-09
9.24773e-06
1.42036e-05
7.93707e-06
2.99587e-06
2.34606e-06
2.15932e-06
2.32424e-06
4.98347e-05
0.000171764
0.000150517
0.000139907
0.00023553
0.000194622
0.00023529
1.13488e-08
4.1147e-06
2.93974e-05
2.84119e-05
9.81119e-06
4.79404e-06
1.21686e-06
1.19562e-06
1.18509e-06
2.0444e-06
5.70501e-06
6.0283e-06
6.3645e-07
0.000104356
0.000209679
0.000134488
7.2014e-05
1.95259e-05
0.000115746
1.6143e-08
5.33026e-06
5.15097e-05
5.08197e-05
5.17458e-05
2.3858e-05
4.9562e-06
1.18509e-06
1.12351e-05
1.92896e-05
4.23258e-05
1.87768e-05
5.06527e-07
2.25877e-07
0.00019109
0.000149477
1.95583e-05
1.95634e-05
1.97084e-05
1.75422e-08
5.87045e-07
1.92425e-05
5.21195e-05
5.19411e-05
2.6123e-05
3.25581e-07
1.88677e-06
1.25011e-05
3.43168e-05
4.23417e-05
4.02521e-05
4.44535e-06
3.5161e-07
0.000114424
0.000160576
4.51252e-05
1.95631e-05
3.26138e-05
1.85159e-08
1.71948e-07
2.23036e-07
1.19114e-05
1.34159e-05
3.4101e-06
1.45777e-07
8.41177e-08
3.25748e-05
4.23398e-05
4.23437e-05
4.23412e-05
1.4906e-05
1.95011e-07
9.65009e-05
0.000161201
4.04748e-05
1.96501e-05
8.65455e-05
1.67618e-07
5.33478e-07
5.64683e-07
2.49096e-07
2.76842e-07
3.11911e-07
8.57022e-08
8.3114e-08
2.92862e-05
4.23483e-05
4.23458e-05
4.23442e-05
1.01824e-05
1.87209e-07
0.0001066
0.000160901
6.50793e-05
4.14354e-05
8.67609e-05
5.6842e-08
2.61723e-07
4.55451e-07
2.46531e-07
3.68294e-07
6.39003e-07
6.61101e-07
7.43216e-07
5.65266e-06
2.31071e-05
3.35566e-05
2.2123e-05
1.93622e-06
2.63061e-07
8.96722e-05
0.000149999
2.95323e-05
6.17095e-05
5.59523e-05
1.08357e-08
2.25782e-08
4.33025e-08
3.53086e-08
1.53916e-07
3.62225e-07
2.73764e-07
1.92658e-07
1.02739e-07
4.10623e-07
1.11438e-06
1.88843e-07
9.86613e-08
3.16771e-07
2.78189e-05
1.8106e-05
2.40224e-06
1.39388e-05
3.44623e-08
7.42476e-09
1.01154e-08
1.75918e-08
3.04566e-08
6.9367e-08
1.33634e-07
1.579e-07
1.16953e-07
1.02968e-07
1.10207e-07
1.08276e-07
7.21767e-08
7.27742e-08
1.98162e-06
1.9551e-07
3.24822e-08
3.13333e-08
3.13645e-08
3.50998e-08
4.92886e-09
7.11701e-09
1.25177e-08
2.43446e-08
4.53138e-08
8.86278e-08
1.44253e-07
1.49626e-07
1.37813e-07
1.17644e-07
1.01752e-07
7.67923e-08
5.76346e-08
1.09402e-06
2.31145e-07
4.92685e-08
3.1374e-08
5.0936e-08
3.98539e-08
2.76611e-09
3.47377e-09
4.70624e-09
7.39306e-09
1.39624e-08
3.14994e-08
6.67267e-08
8.86314e-08
9.12907e-08
8.5283e-08
7.66976e-08
5.80438e-08
4.68555e-08
1.59655e-07
7.68152e-08
3.79123e-08
9.54466e-08
2.13905e-07
9.31785e-08
1.6663e-09
1.94439e-09
2.22319e-09
2.51961e-09
3.53093e-09
6.44488e-09
1.2776e-08
2.19583e-08
2.85934e-08
3.23765e-08
3.48975e-08
3.05235e-08
2.47992e-08
3.29316e-08
2.91827e-08
4.05409e-08
1.91758e-07
2.13972e-07
6.99335e-08
1.03403e-09
1.23921e-09
1.43937e-09
1.6731e-09
2.0263e-09
2.64788e-09
3.8094e-09
5.61465e-09
7.9163e-09
1.04018e-08
1.29498e-08
1.48231e-08
1.45719e-08
2.24126e-08
1.52862e-08
2.31343e-08
1.12479e-07
8.81397e-08
4.97754e-08
6.90725e-10
8.48765e-10
1.03371e-09
1.25981e-09
1.57093e-09
2.0003e-09
2.59733e-09
3.38884e-09
4.30113e-09
5.4824e-09
6.86293e-09
9.02465e-09
1.03654e-08
1.22584e-08
1.23259e-08
8.44759e-08
2.02983e-07
9.95066e-08
4.95066e-08
4.67201e-10
6.13564e-10
7.79442e-10
9.90623e-10
1.2777e-09
1.64624e-09
2.146e-09
2.77357e-09
3.53738e-09
4.44717e-09
5.53415e-09
7.46665e-09
7.48496e-09
7.48936e-09
9.62657e-08
4.41176e-07
5.25717e-07
3.13648e-07
1.87424e-06
3.44044e-10
4.72449e-10
6.271e-10
8.25522e-10
1.07702e-09
1.41101e-09
1.86032e-09
2.44479e-09
3.14915e-09
4.00573e-09
5.06559e-09
7.03833e-09
1.08024e-08
3.37763e-08
2.43702e-07
5.30633e-07
5.61453e-07
4.75547e-07
3.23405e-06
2.59977e-10
3.82309e-10
5.2151e-10
7.05085e-10
9.48058e-10
1.26326e-09
1.7095e-09
2.34958e-09
3.08969e-09
3.92291e-09
4.91841e-09
7.3753e-09
1.8249e-08
6.85449e-08
1.27471e-07
1.55908e-07
4.3127e-07
4.0049e-07
3.2965e-06
2.05075e-10
3.05452e-10
4.31013e-10
5.93376e-10
8.20662e-10
1.14767e-09
1.63727e-09
2.36018e-09
3.35668e-09
4.49459e-09
5.45206e-09
6.4793e-09
1.55706e-08
1.43697e-07
2.2516e-07
5.43247e-07
1.84392e-07
1.37726e-07
3.14286e-06
1.54856e-10
2.38165e-10
3.36638e-10
4.78223e-10
6.85461e-10
9.89875e-10
1.49786e-09
2.35498e-09
3.71428e-09
5.50878e-09
7.04321e-09
7.09561e-09
1.88721e-08
4.52331e-07
5.59864e-06
6.62292e-06
8.11099e-08
8.14982e-08
8.75776e-07
1.13895e-10
1.68194e-10
2.47959e-10
3.58908e-10
5.18373e-10
7.89803e-10
1.27071e-09
2.19616e-09
3.9201e-09
6.86701e-09
1.05082e-08
1.16975e-08
1.87659e-08
4.05621e-07
6.54584e-06
7.10658e-06
4.34428e-06
7.42364e-08
2.05686e-07
7.4211e-11
1.14791e-10
1.70271e-10
2.48683e-10
3.67615e-10
5.69307e-10
9.5433e-10
1.7894e-09
3.63126e-09
7.95633e-09
1.60991e-08
2.58249e-08
3.47174e-08
1.62863e-07
2.74245e-06
7.1815e-06
7.11073e-06
2.35218e-06
2.75732e-06
4.63678e-11
7.06405e-11
1.06135e-10
1.56624e-10
2.35926e-10
3.76027e-10
6.49844e-10
1.23272e-09
2.60063e-09
6.41095e-09
1.78183e-08
4.69968e-08
7.40913e-08
1.04728e-07
3.70408e-07
5.35772e-06
7.0375e-06
6.98818e-06
2.75649e-06
2.46806e-11
3.93437e-11
5.97608e-11
8.96682e-11
1.38157e-10
2.25866e-10
3.99934e-10
7.759e-10
1.69353e-09
4.345e-09
1.34319e-08
4.42072e-08
1.09889e-07
1.36219e-07
1.71365e-07
6.62518e-07
3.62772e-06
2.69127e-06
5.03159e-07
1.20084e-11
1.95342e-11
3.02752e-11
4.65353e-11
7.38225e-11
1.24494e-10
2.2761e-10
4.52574e-10
9.76506e-10
2.38416e-09
7.15605e-09
2.51341e-08
8.55388e-08
1.59391e-07
1.59722e-07
1.38216e-07
3.00222e-07
5.57432e-08
1.16237e-07
5.23711e-12
8.67317e-12
1.3728e-11
2.16913e-11
3.55868e-11
6.25936e-11
1.19667e-10
2.45466e-10
5.30464e-10
1.22616e-09
3.25924e-09
1.02006e-08
4.33626e-08
1.29128e-07
1.87573e-07
1.26568e-07
5.57431e-08
5.58198e-08
1.38068e-07
1.96703e-12
3.39638e-12
5.50405e-12
9.0482e-12
1.55088e-11
2.8386e-11
5.67833e-11
1.21388e-10
2.71059e-10
6.19117e-10
1.50825e-09
4.18843e-09
1.44362e-08
7.00287e-08
1.79014e-07
1.92235e-07
1.0193e-07
5.6144e-08
1.99862e-07
6.53419e-13
1.10732e-12
1.88094e-12
3.28509e-12
5.98598e-12
1.15688e-11
2.41085e-11
5.48169e-11
1.32459e-10
3.25403e-10
8.09799e-10
2.14412e-09
5.8987e-09
2.58537e-08
1.15352e-07
2.05347e-07
2.05961e-07
1.86266e-07
2.06119e-07
1.81427e-13
3.18516e-13
5.54236e-13
1.01303e-12
1.95372e-12
3.93403e-12
8.37453e-12
1.94093e-11
4.8608e-11
1.27298e-10
3.37856e-10
9.29587e-10
2.80751e-09
9.2001e-09
4.39528e-08
1.58083e-07
2.31996e-07
2.29136e-07
8.84821e-08
4.35066e-14
7.36782e-14
1.27613e-13
2.3541e-13
4.57639e-13
9.18045e-13
1.96143e-12
4.4015e-12
1.06312e-11
2.84844e-11
8.08164e-11
2.38567e-10
7.49065e-10
2.61902e-09
1.0701e-08
4.40457e-08
1.29909e-07
1.46147e-07
4.37158e-09
)
;

boundaryField
{
    leftWall
    {
        type            zeroGradient;
    }
    rightWall
    {
        type            zeroGradient;
    }
    lowerWall
    {
        type            zeroGradient;
    }
    atmosphere
    {
        type            inletOutlet;
        inletValue      uniform 0;
        value           nonuniform List<scalar> 
46
(
3.4811e-08
3.09133e-08
8.42226e-08
0
0
0
0
0
0
0
0
0
0
0
0
0
0
0
0
0
5.1594e-16
6.32092e-16
2.68384e-15
8.59072e-15
1.44182e-14
2.39141e-14
3.35093e-14
4.35066e-14
7.36782e-14
1.27613e-13
2.3541e-13
4.57639e-13
9.18045e-13
1.96143e-12
4.4015e-12
1.06312e-11
2.84844e-11
8.08164e-11
2.38567e-10
7.49065e-10
2.61902e-09
1.0701e-08
4.40457e-08
1.29909e-07
1.46147e-07
4.37158e-09
)
;
    }
    defaultFaces
    {
        type            empty;
    }
}


// ************************************************************************* //
