/*--------------------------------*- C++ -*----------------------------------*\
| =========                 |                                                 |
| \\      /  F ield         | OpenFOAM: The Open Source CFD Toolbox           |
|  \\    /   O peration     | Version:  2312                                  |
|   \\  /    A nd           | Website:  www.openfoam.com                      |
|    \\/     M anipulation  |                                                 |
\*---------------------------------------------------------------------------*/
FoamFile
{
    version     2.0;
    format      ascii;
    arch        "LSB;label=32;scalar=64";
    class       volScalarField;
    location    "3.7";
    object      alpha.air;
}
// * * * * * * * * * * * * * * * * * * * * * * * * * * * * * * * * * * * * * //

dimensions      [0 0 0 0 0 0 0];

internalField   nonuniform List<scalar> 
2268
(
8.20803e-10
8.2063e-10
8.4356e-10
8.0195e-10
6.6565e-10
4.34759e-10
2.01138e-10
1.15589e-10
9.42488e-11
7.37033e-11
4.72191e-11
3.70583e-11
3.59571e-11
3.87863e-11
4.88956e-11
6.35614e-11
9.05315e-11
1.09264e-10
1.1694e-10
1.18006e-10
7.07285e-10
1.04039e-09
1.47842e-07
9.70861e-10
1.83452e-09
2.2429e-09
2.92755e-09
2.70475e-09
1.41632e-09
2.26103e-10
1.15434e-10
2.49408e-09
9.04867e-10
2.85507e-10
1.87391e-10
1.60147e-10
2.52446e-10
1.9477e-10
2.88917e-10
5.65586e-10
9.04e-10
1.11198e-09
4.8788e-10
1.04463e-11
1.47794e-09
1.22385e-06
9.02158e-10
2.57259e-09
2.24395e-09
2.80427e-09
4.08024e-09
1.15107e-09
2.25451e-10
9.046e-08
4.03088e-08
4.52305e-09
9.69421e-10
1.13913e-09
8.66536e-10
5.41782e-09
8.19111e-10
2.5661e-10
2.56686e-10
3.44155e-09
6.16364e-09
6.16582e-09
2.406e-11
6.84079e-07
1.41442e-06
9.02286e-10
2.62956e-09
6.90092e-06
5.53876e-06
1.54796e-09
1.15015e-09
1.37788e-06
6.15634e-07
6.29119e-08
1.12037e-09
1.10764e-09
4.00502e-09
2.90505e-08
1.07539e-06
4.0195e-07
4.59895e-08
1.5409e-09
3.76753e-10
1.95167e-09
3.35989e-10
4.3776e-10
3.97454e-07
8.86577e-07
0.000442066
0.000618466
0.000816943
0.000802534
0.000553311
0.000159601
4.34963e-06
1.53641e-09
1.53617e-09
7.09646e-06
4.87537e-05
8.05083e-05
3.61835e-05
1.57427e-05
3.54589e-06
1.0786e-06
3.32085e-10
3.3342e-10
8.31684e-07
5.64501e-07
1.99614e-08
4.31668e-08
4.31733e-08
0.00119869
0.00132595
0.00132596
0.00132596
0.00132596
0.000646266
3.18865e-05
3.0438e-06
1.59829e-09
2.17879e-05
0.000201638
0.000324739
0.00021481
5.40495e-06
3.50256e-06
4.22503e-06
4.23369e-05
1.62514e-05
2.80764e-09
2.99761e-09
1.42131e-08
1.87136e-08
1.79835e-05
0.000445846
0.0011554
0.00132596
0.00132596
0.00116141
0.000619565
0.000225251
0.000133686
2.11954e-06
1.58384e-06
4.12822e-05
0.000234096
0.000491658
0.000476021
0.000577448
0.000640922
8.61502e-05
1.63919e-05
0.00166289
0.00154162
0.000494296
0.000175317
0.00603482
0.000373089
0.000360076
0.000747288
0.000469344
0.000274219
0.000262847
0.000255713
0.000117468
6.09931e-06
6.12556e-06
2.77822e-05
3.11549e-05
3.12928e-05
0.00241571
0.00321214
0.00423062
0.0032575
0.00467816
0.00863204
0.00863285
0.0065758
0.00759021
0.00781821
0.000350645
0.00184584
0.00381821
0.0071586
0.00930376
0.00930376
0.00878757
0.00411562
0.00358269
0.00358275
0.00356808
0.00362493
0.00362564
0.00289818
0.00289295
0.00588192
0.00635728
0.00653988
0.00659381
0.000188823
0.000188823
0.000396046
0.00108785
0.00183592
0.0019097
0.00547815
0.00820332
0.00756558
0.00549768
0.00307751
0.00307631
0.00312494
0.00302902
0.00289051
0.00335804
0.0124888
0.0141322
0.00815023
0.000189203
0.00227399
0.0033922
0.0035794
0.00285292
0.00322215
0.0126995
0.0200223
0.0200302
0.0165238
0.00553582
0.00398617
0.0039425
0.00262524
0.0026264
0.00261882
0.0140152
0.0159128
0.013014
0.00250878
0.00586607
0.00665245
0.00768848
0.0080939
0.0104118
0.0134505
0.0133929
0.0141339
0.0136528
0.0230071
0.0288085
0.0254631
0.0186953
0.0150746
0.0192346
0.0216326
0.011323
0.0094448
0.00424869
0.00409716
0.00543392
0.00547728
0.00427085
0.00393284
0.00393296
0.00657395
0.0144482
0.00773103
0.0255044
0.0327745
0.0234265
0.0190229
0.0177472
0.0404022
0.0347699
0.0133173
0.009445
0.00346191
0.00350564
0.0107556
0.00878907
0.0050927
0.00519426
0.00440369
0.0149191
0.0537802
0.0284575
0.040962
0.0217204
0.015388
0.0156512
0.0228146
0.0403035
0.0246354
0.00943632
0.00943623
0.00343397
0.00343378
0.00944687
0.0189609
0.017163
0.0165665
0.0190781
0.0368711
0.0889062
0.0280302
0.040963
0.0154029
0.0153736
0.0170616
0.0506054
0.0545553
0.0531496
0.0208959
0.00943632
0.00343342
0.00343359
0.00762046
0.0255031
0.0295603
0.0236289
0.0271095
0.0999823
0.088304
0.0230182
0.0240258
0.0331583
0.0540788
0.0684122
0.0545697
0.0546669
0.0545869
0.029264
0.0151925
0.000341807
0.000328047
0.000324573
0.000255452
0.000248272
0.000259113
0.000284621
0.000250515
2.8249e-05
6.30625e-06
0.000179892
0.000262103
3.18513e-05
0.00235984
0.00812288
0.0145981
0.0145421
0.0139104
0.00413198
0.00243216
0.00243219
0.00243217
0.00831438
0.000369011
0.00122108
0.00103788
0.000645218
0.000246882
0.000233472
0.000232928
0.000243373
7.51218e-05
4.84934e-05
2.27046e-05
2.27856e-05
6.90888e-05
6.8452e-05
0.00125784
0.0151243
0.0105679
0.00245065
0.00243216
0.00243216
0.00243216
0.00571431
0.0200913
0.000368983
0.00452029
0.0117734
0.00507171
0.00320748
0.0026651
0.00178588
0.00323832
0.00160239
0.000327072
2.47021e-05
0.000564537
0.00116885
0.00362011
0.0104896
0.0149889
0.0151758
0.0116132
0.00958953
0.00919821
0.0342115
0.0388079
0.0137199
0.0249141
0.0317964
0.0354623
0.0505683
0.056496
0.0580647
0.0554978
0.0622243
0.0525259
0.0243628
0.0230938
0.0317386
0.0417148
0.044304
0.0654454
0.0720371
0.0536365
0.0307631
0.0286536
0.0353346
0.0390883
0.0340756
0.00383916
0.0660312
0.0455839
0.0143886
0.0442757
0.0704909
0.0738682
0.073873
0.0738682
0.073873
0.0701135
0.0722388
0.090768
0.0907441
0.0907763
0.0907372
0.0766986
0.0324283
0.0260651
0.0254275
0.0143009
0.0118304
0.00333807
0.000343644
0.0660311
0.0582001
0.00458394
0.000156138
0.000153015
0.0359897
0.0732427
0.0687916
0.0511685
0.0230354
0.0153101
0.0438925
0.0867675
0.054195
0.033237
0.0108095
0.00112684
0.00201444
0.00185971
0.000611019
0.00065505
0.000651222
0.000239645
0.0649753
0.0119528
0.000177148
0.000158724
0.000240472
0.000382739
0.00397942
0.000405131
0.000394375
0.000356447
0.000331876
0.000352731
0.0166818
0.0310343
0.00440748
0.000842368
0.000828083
0.000824877
0.000749743
0.000614229
0.000476117
0.000470772
-5.043e-07
0.0047182
0.000158243
0.00015823
0.000157562
0.000178669
0.000233639
0.000253126
0.000228349
0.000228403
0.000229077
0.000239081
0.000315599
0.000404068
0.018699
0.12864
0.195408
0.318462
0.496766
0.588568
0.608801
0.583111
0.538347
0.509336
0.049599
0.0620824
0.073554
0.0754164
0.0740727
0.0733829
0.0750927
0.0822295
0.0948364
0.114322
0.128534
0.11932
0.086109
0.0578323
0.0551178
0.386199
0.906952
0.996713
0.99964
0.999221
0.99807
0.99652
0.985687
0.748853
0.772665
0.794775
0.798033
0.794937
0.792516
0.795552
0.806392
0.824379
0.850313
0.873701
0.867667
0.836582
0.769227
0.777439
0.904534
0.984327
0.998792
0.999976
1
0.999908
0.999537
0.998471
0.999752
0.999815
0.99983
0.999807
0.999764
0.999682
0.999127
0.998001
0.998011
0.998748
0.999727
0.999835
0.996273
0.99228
0.993601
0.994677
0.997361
0.999924
0.999999
0.999999
0.999999
0.999998
0.999998
1
1
1
1
1
1
1
1
1
0.999999
0.999998
0.999993
0.999973
0.99997
0.999993
0.999999
0.999998
0.999991
0.99999
0.999991
0.999998
0.999999
0.999998
1
1
0.999999
0.999998
0.999999
1
1
0.999998
0.999996
0.999994
0.999907
0.999862
0.999974
0.999996
0.999999
0.999999
0.999997
0.999994
0.999992
0.999993
0.999997
0.999983
0.999988
1
1
0.999998
0.999996
0.999996
0.999999
0.999999
0.999996
0.999996
0.999998
0.999999
0.999998
0.999998
0.999999
0.999999
0.999999
0.999999
0.999999
0.999999
0.999997
0.999968
0.999956
0.999959
1
1
0.999998
0.999996
0.999996
0.999998
0.999999
0.999999
0.999999
1
1
0.999999
0.999999
0.999999
0.999999
0.999999
0.999999
0.999999
0.999987
0.999962
0.999956
0.999955
0.999956
1
1
0.999999
0.999998
0.999997
0.999998
0.999998
0.999977
0.999959
0.999971
0.999977
0.999965
0.999957
0.999959
0.999971
0.999975
0.999972
0.999977
0.999967
0.999964
0.999961
0.999971
0.99999
1
1
1
0.999999
0.999999
0.999999
0.999996
0.999944
0.999923
0.999923
0.999923
0.999922
0.999922
0.999932
0.999932
0.999947
0.999968
0.99998
0.999993
0.999996
0.999997
0.999999
1
1
1
1
1
0.999999
0.999999
0.999998
0.999973
0.999948
0.999972
0.999991
0.999987
0.999981
0.999977
0.99998
0.999991
0.999996
0.999998
1
1
1
1
1
1
1
1
1
1
0.999999
0.999999
1
1
1
1
1
1
1
1
1
1
1
1
1
1
1
1
1
1
1
1
1
1
1
1
1
1
1
1
1
1
1
1
1
1
1
1
1
1
1
1
1
1
1
1
1
1
1
1
1
1
1
1
1
1
1
1
1
1
1
1
1
1
1
1
1
1
1
1
1
1
1
1
1
1
1
1
1
1
1
1
1
1
1
1
1
1
1
1
1
1
1
1
1
1
1
1
1
1
1
1
1
1
1
1
1
1
1
1
1
1
1
1
1
1
1
1
1
1
1
1
1
1
1
1
1
1
1
1
1
1
1
1
1
1
1
1
1
1
1
1
1
1
1
1
1
1
1
1
1
1
1
1
1
1
1
1
1
1
1
1
1
1
1
1
1
1
1
1
1
1
1
1
1
1
1
1
1
1
1
1
1
1
1
1
1
1
1
1
1
1
1
1
1
1
1
1
1
1
1
1
1
1
1
1
1
1
1
1
1
1
1
1
1
1
1
1
1
1
1
1
1
1
1
1
1
1
1
1
1
1
1
1
1
1
1
1
1
1
1
1
1
1
1
1
1
1
1
1
1
1
1
1
1
1
1
1
1
1
1
1
1
1
1
1
1
1
1
1
1
1
1
1
1
0.999999
1
1
1
1
1
1
1
1
1
1
1
1
1
1
1
1
1
1
1
1
1
0.999999
0.999999
0.999999
1
1
1
1
1
1
1
1
1
1
1
1
1
1
1
1
1
1
1
1
0.999999
0.999999
0.999999
0.999999
1
1
1
1
1
1
1
1
1
1
1
1
1
1
1
1
1
1
1
0.999999
0.999999
0.999999
0.999999
0.999999
1
1
1
1
1
1
1
1
1
1
1
1
1
1
1
1
1
0.999999
0.999999
0.999999
0.999999
0.999999
1
1
1
1
1
1
1
1
1
1
1
1
1
1
1
1
1
1
1
0.999999
1
1
0.999999
1
1
1
1
1
1
1
1
1
1
1
1
1
1
1
1
1
1
1
1
1
1
1
1
1
1
1
1
1
1
1
1
1
1
1
1
1
1
1
1
1
1
1
1
1
1
1
1
1
1
1
1
1
1
1
1
1
1
1
1
1
1
1
1
1
1
1
1
1
1
1
1
1
1
1
1
1
1
1
1
1
1
1
1
1
1
1
1
1
1
1
1
1
1
1
1
1
1
1
1
1
1
1
1
1
1
1
1
1
1
1
1
1
1
1
1
1
1
1
1
1
1
1
1
1
1
1
1
1
1
1
1
1
1
1
1
1
1
1
1
1
1
1
1
1
1
1
1
1
1
1
1
1
1
0.0129941
0.00791959
0.00730652
0.0227289
0.0523708
0.0525828
0.0525859
0.0525339
0.0370815
0.0525863
0.0525828
0.0497409
0.00983223
0.0358808
0.0406126
0.0155731
0.000370322
0.00132721
0.000803454
-7.95599e-12
7.05556e-05
1.1835e-05
7.68897e-06
1.75258e-24
7.7969e-08
4.9008e-13
4.79216e-08
4.93512e-07
0.488152
0.472758
0.520203
0.542918
0.974962
0.975432
0.985363
0.984992
0.995773
0.997809
0.999601
0.999993
0.999998
0.999998
0.999998
0.999999
0.999998
0.999998
0.999997
0.999993
0.999995
0.999999
0.999999
0.999998
0.999974
0.999994
1
1
0.99998
0.999997
1
1
0.999998
0.999999
1
1
1
1
1
1
1
1
1
1
1
1
1
1
1
1
1
1
1
1
1
1
1
1
1
1
1
1
1
1
1
1
1
1
1
1
1
1
1
1
1
1
1
1
1
1
1
1
1
1
1
1
1
1
1
1
1
1
1
1
1
1
1
1
1
1
1
1
1
1
1
1
1
1
1
1
1
1
1
1
1
1
1
1
1
1
1
1
1
1
1
1
1
1
1
1
1
1
1
1
1
1
1
1
1
1
0.0286897
0.00798497
0.0171476
0.0652218
0.0679277
0.0677785
0.0794333
0.0999478
0.0568707
0.0229852
0.0393438
0.0874807
0.0932385
0.0932378
0.0819798
0.0353271
0.0270171
0.0283412
0.0244016
0.0293675
0.0368516
0.032289
0.049338
0.0620738
0.0714031
0.183668
0.0561219
0.0307851
0.0413451
0.0931008
0.0931531
0.0899512
0.0391037
0.0156558
0.00351278
0.00240321
0.0196028
0.0247919
0.0496102
0.0470026
0.0228797
0.000972658
0.0312021
0.152082
0.186307
0.0954023
0.0371506
0.0382643
0.0674188
0.0623807
0.00624595
0.00638518
0.0378352
0.0419895
0.00243124
0.00244219
0.00530572
0.0146231
0.0179711
0.00242555
0.000732438
0.0762158
0.186307
0.186301
0.1863
0.175224
0.0148608
0.00120532
0.00992321
0.0081914
0.00795723
0.0440024
0.0465561
0.0450581
0.00201258
0.00218717
-3.4656e-22
0.000712319
0.000717199
0.000735543
0.0453222
0.164317
0.149688
0.177845
0.150883
0.0123922
0.00120723
0.00121377
0.00153864
0.0014931
0.00165762
0.0301306
0.121792
0.00201444
0.00201627
-7.9311e-23
0.000151641
0.00040164
0.000482269
0.0028407
0.0169204
0.00904358
0.00449176
0.00460007
0.00975228
0.00727314
0.00121189
0.00142415
0.00282127
0.0104691
0.0528898
0.179988
0.0170316
0.00352842
0.00164025
6.69259e-05
8.71131e-05
5.74356e-05
5.73313e-05
6.20546e-05
6.06364e-05
0.000672848
0.0506355
0.116221
0.199532
0.304456
0.389647
0.46291
0.496196
0.484868
0.435741
0.514264
0.145275
0.492503
0.31823
0.174158
0.130491
0.131418
0.180311
0.293411
0.453054
0.673159
0.82759
0.941258
0.99733
0.997579
0.996212
0.987432
0.969487
0.953813
0.972647
0.934241
0.97906
0.960604
0.90497
0.844264
0.843982
0.899482
0.960714
0.994122
0.998304
0.999775
0.999967
0.999962
0.999929
0.999678
0.999334
0.999815
0.999997
0.999994
0.999314
0.999628
0.999013
0.99851
0.995959
0.995856
0.998697
0.998902
0.999556
0.999952
0.999952
0.999929
0.999866
0.999863
0.999918
0.999989
0.999991
0.999998
0.999996
0.99996
1
1
1
0.999833
0.999687
0.99995
0.99995
0.999952
0.999952
0.999922
0.999863
0.999858
0.999858
0.999954
0.999983
0.999985
0.999993
0.999993
0.999994
0.999994
0.999997
1
0.999999
0.999989
0.999888
0.999853
0.999853
0.999906
0.999915
0.999943
0.999944
0.99992
0.999962
0.999984
0.99995
0.999828
0.999811
0.999918
0.999989
0.999988
0.999996
0.999997
0.99998
0.999864
0.999853
0.999893
0.99996
0.999976
0.999997
0.999993
0.99988
0.999804
0.999983
0.999817
0.999725
0.999725
0.999731
0.999998
0.99999
0.999982
0.999981
0.999971
0.99996
0.999968
0.999992
0.999997
0.999997
0.999998
0.999997
0.999941
0.999803
0.999827
0.999836
0.999725
0.999768
0.999731
1
0.999994
0.999961
0.999955
0.999979
0.999979
0.99997
0.999955
0.999973
0.999997
0.999994
0.999994
0.999999
0.999884
0.999766
0.999844
0.999896
0.999969
0.999872
1
0.999995
0.999947
0.999946
0.999946
0.999974
0.99998
0.999936
0.999926
0.99992
0.999938
0.999981
0.999999
1
0.999795
0.99983
0.999969
0.999973
0.999972
1
0.999999
0.999981
0.999947
0.999947
0.999972
0.999997
0.999979
0.999923
0.999912
0.999919
0.999957
0.999996
1
0.999881
0.999819
0.999947
0.999972
0.999955
1
1
1
0.999988
0.999986
0.999997
0.999999
0.999998
0.999948
0.999912
0.999913
0.999926
0.99998
0.999999
0.999902
0.999819
0.99995
0.999968
0.999897
1
0.999999
0.999999
1
1
1
1
0.999998
0.999962
0.999915
0.999914
0.999915
0.999976
0.999999
0.999887
0.999822
0.999917
0.999941
0.999898
1
1
1
1
1
0.999999
0.999997
0.999996
0.999988
0.999954
0.999927
0.999949
0.999994
0.999999
0.999904
0.99984
0.999953
0.99992
0.999938
1
1
1
1
1
0.999999
0.999999
0.999999
0.999999
0.999999
0.999997
0.999999
1
0.999999
0.999971
0.99998
0.999987
0.999979
1
1
1
1
1
1
1
1
1
1
1
1
1
1
0.999997
1
0.999996
0.999995
0.999999
1
1
1
1
1
1
1
1
1
1
1
1
1
1
0.999999
1
0.999997
0.999997
0.999999
1
1
1
1
1
1
1
1
1
1
1
1
1
1
1
1
1
1
1
1
1
1
1
1
1
1
1
1
1
1
1
1
1
1
1
1
1
1
1
1
1
1
1
1
1
1
1
1
1
1
1
1
1
1
1
1
1
1
1
1
1
1
1
1
1
1
1
1
1
1
1
1
1
1
1
1
1
1
1
1
1
1
1
1
1
1
1
1
1
1
1
1
0.999999
0.999999
1
0.999998
1
1
1
1
1
1
1
1
1
1
1
1
1
1
1
0.999999
0.999999
1
0.999996
1
1
1
1
1
1
1
1
1
1
1
1
1
1
1
1
0.999999
1
0.999996
1
1
1
1
1
1
1
1
1
1
1
1
1
1
1
0.999999
1
1
0.999996
1
1
1
1
1
1
1
1
1
1
1
1
1
1
0.999994
0.999993
1
1
0.999999
1
1
1
1
1
1
1
1
1
1
1
1
1
1
0.999993
0.999993
0.999996
1
1
1
1
1
1
1
1
1
1
1
1
1
1
1
1
0.999997
0.999993
0.999993
0.999997
0.999997
1
1
1
1
1
1
1
1
1
1
1
1
1
1
1
0.999995
0.999993
0.999993
0.999997
1
1
1
1
1
1
1
1
1
1
1
1
1
1
1
0.999999
0.999996
0.999997
0.999999
1
1
1
1
1
1
1
1
1
1
1
1
1
1
1
1
1
1
1
1
1
1
1
1
1
1
1
1
1
1
1
1
1
1
1
1
1
1
1
1
1
1
1
1
1
1
1
1
1
1
1
1
1
1
1
1
1
1
1
1
1
1
1
1
1
1
1
1
1
1
1
1
1
1
1
1
1
1
1
1
1
1
1
1
1
1
1
1
1
1
1
1
1
1
1
1
1
1
1
1
1
1
1
1
1
1
1
1
1
1
1
1
1
1
)
;

boundaryField
{
    leftWall
    {
        type            alphaContactAngle;
        thetaProperties 
6
(
(galistan air) 90 0 0 0
(oil galistan) 90 0 0 0
(water oil) 90 0 0 0
(water air) 90 0 0 0
(oil air) 90 0 0 0
(water galistan) 90 0 0 0
);
        value           nonuniform List<scalar> 
50
(
8.20803e-10
9.70861e-10
9.02158e-10
9.02286e-10
0.000442066
0.00119869
0.000445846
0.000373089
0.000341807
0.000369011
0.000368983
0.0249141
0.0660312
0.0660311
0.0649753
0.0047182
0.049599
0.748853
0.999752
1
1
1
1
1
1
1
1
1
1
1
1
1
1
1
1
1
1
1
1
1
1
1
1
1
1
1
1
1
1
1
)
;
    }
    rightWall
    {
        type            alphaContactAngle;
        thetaProperties 
6
(
(galistan air) 90 0 0 0
(oil galistan) 90 0 0 0
(water oil) 90 0 0 0
(water air) 90 0 0 0
(oil air) 90 0 0 0
(water galistan) 90 0 0 0
);
        value           nonuniform List<scalar> 
50
(
0.00659381
0.00815023
0.013014
0.0094448
0.009445
0.00943623
0.00943632
0.0151925
0.0244016
0.0247919
0.00530572
0.00218717
0.00201627
0.00352842
0.145275
0.934241
0.999314
0.99996
0.999994
0.999918
0.999731
0.999731
0.999872
0.999972
0.999955
0.999897
0.999898
0.999938
1
1
1
1
1
1
1
0.999998
0.999996
0.999996
0.999996
0.999999
1
0.999997
0.999997
0.999999
1
1
1
1
1
1
)
;
    }
    lowerWall
    {
        type            alphaContactAngle;
        thetaProperties 
6
(
(galistan air) 90 0 0 0
(oil galistan) 90 0 0 0
(water oil) 90 0 0 0
(water air) 90 0 0 0
(oil air) 90 0 0 0
(water galistan) 90 0 0 0
);
        value           nonuniform List<scalar> 
62
(
8.20803e-10
8.2063e-10
8.4356e-10
8.0195e-10
6.6565e-10
4.34759e-10
2.01138e-10
1.15589e-10
9.42488e-11
7.37033e-11
4.72191e-11
3.70583e-11
3.59571e-11
3.87863e-11
4.88956e-11
6.35614e-11
9.05315e-11
1.09264e-10
1.1694e-10
1.18006e-10
7.07285e-10
1.04039e-09
1.47842e-07
1.47842e-07
1.22385e-06
1.41442e-06
8.86577e-07
4.31733e-08
1.79835e-05
0.00603482
0.00781821
0.0129941
0.00791959
0.00730652
0.0227289
0.000350645
0.000188823
0.000189203
0.00250878
0.00424869
0.00346191
0.00343397
0.00343342
0.000350645
0.00184584
0.00381821
0.0071586
0.00930376
0.00930376
0.00878757
0.00411562
0.00358269
0.00358275
0.00356808
0.00362493
0.00362564
0.00289818
0.00289295
0.00588192
0.00635728
0.00653988
0.00659381
)
;
    }
    atmosphere
    {
        type            inletOutlet;
        inletValue      uniform 1;
        value           nonuniform List<scalar> 
46
(
1
1
1
1
1
1
1
1
1
1
1
1
1
1
1
1
1
1
1
1
1
1
1
1
1
1
1
1
1
1
1
1
1
1
1
1
1
1
1
1
1
1
1
1
1
1
)
;
    }
    defaultFaces
    {
        type            empty;
    }
}


// ************************************************************************* //
