/*--------------------------------*- C++ -*----------------------------------*\
| =========                 |                                                 |
| \\      /  F ield         | OpenFOAM: The Open Source CFD Toolbox           |
|  \\    /   O peration     | Version:  2312                                  |
|   \\  /    A nd           | Website:  www.openfoam.com                      |
|    \\/     M anipulation  |                                                 |
\*---------------------------------------------------------------------------*/
FoamFile
{
    version     2.0;
    format      ascii;
    arch        "LSB;label=32;scalar=64";
    class       volScalarField;
    location    "3.7";
    object      p;
}
// * * * * * * * * * * * * * * * * * * * * * * * * * * * * * * * * * * * * * //

dimensions      [1 -1 -2 0 0 0 0];

internalField   nonuniform List<scalar> 
2268
(
4727.78
4733.3
4743.3
4756.11
4771.33
4789.77
4813.35
4844.74
4886.66
4941.69
5011.68
5098.17
5201.48
5321.44
5458.22
5608.23
5766.08
5926
6086.52
6238.15
6367.26
6449.16
6493.46
3929.64
3935.49
3946.17
3959.16
3974.2
3992.34
4015.34
4046.1
4087.73
4142.07
4211.69
4298.11
4401.47
4521.4
4659
4810.24
4969.46
5130.34
5293.37
5450.02
5577.17
5662.19
5706.9
3130.7
3137.51
3148.89
3161.95
3176.37
3192.3
3214.23
3244.25
3285.65
3338.98
3407.87
3494.22
3597.75
3717.4
3856.75
4010.51
4172.56
4335.39
4505.36
4664.97
4793.69
4882.57
4930.08
2330.1
2338.19
2351.12
2364.98
2379.55
2396.4
2416.43
2445.11
2482.16
2532.5
2600.09
2686.46
2790.47
2908.8
3051.29
3209.01
3375.6
3541.82
3721.82
3882.59
4018.05
4112.84
4163.57
1556.83
1564.68
1576.52
1588.6
1599.58
1610.68
1625.92
1648.36
1681.63
1726.88
1790.11
1874.76
1980.15
2104.05
2243.51
2405.77
2578.78
2752.86
2936.27
3104.93
3250.77
3353.17
3408.32
1081.6
1083.93
1088.59
1094
1099.06
1103.46
1109.49
1117.74
1129.62
1147.49
1174.16
1211.9
1267.3
1354.5
1466.28
1610.96
1782.05
1962.51
2153.05
2328.1
2491.5
2609.37
2666.74
947.926
946.523
946.105
946.779
948.13
949.579
950.618
951.235
951.47
951.237
950.457
950.016
952.17
965.052
993.85
1045.81
1128.93
1242.49
1397.61
1572.57
1728.34
1854.7
1928.97
888.179
886.936
886.812
887.586
888.878
890.138
890.997
891.485
891.534
890.609
889.259
886.835
880.528
869.453
859.149
851.785
852.873
861.871
893.299
971.058
1071.04
1168.36
1242.55
2348.36
2359.06
2386.28
2418.9
2438.28
2434.18
2421.31
2416.61
2435.26
2480.27
2538.59
2625.24
2741.04
2855.29
2903
2840.51
2700.54
2556.3
2464.92
1592.81
1603.19
1632.04
1664.76
1681.53
1676.36
1664.54
1657.45
1676.07
1720.18
1772.78
1858
1978.15
2104.52
2155.67
2086.08
1938.95
1795.96
1710.72
1054.01
1056.66
1075.7
1088.08
1092.6
1087.29
1078.87
1079.58
1087.89
1104.71
1149.27
1222.73
1324.51
1437.13
1484.56
1441.68
1323.04
1201.64
1141.03
857.128
858.237
862.962
857.366
853.768
853.093
851.609
853.619
849.535
834.879
844.355
883.181
922.382
970.757
1001.49
993.285
935.16
884.086
864.668
798.07
800.317
803.538
802.42
800.934
800.455
798.099
795.685
788.138
766.225
758.187
765.519
754.614
751.397
758.459
754.788
749.372
758.577
766.504
741.963
735.374
739.802
739.294
739.596
738.866
734.955
733.901
720.218
702.902
710.229
707.354
696.24
683.243
672.738
673.39
686.665
701.89
714.692
684.175
671.276
678.476
677.062
676.722
675.575
671.917
671.535
653.598
653.552
662.224
650.287
637.99
625.372
617.565
618.689
627.975
642.568
656.345
632.252
613.532
619.04
618.042
618.589
617.156
613.184
610.661
597.652
610.861
611.842
596.088
579.894
566.07
561.128
562.808
569.793
583.331
595.024
794.619
793.133
793.377
794.271
795.613
796.827
797.628
797.929
797.804
797.082
795.609
792.135
785.244
774.89
763.876
752.813
738.956
717.35
693.592
685.613
686.191
687.143
695.709
668.875
666.278
665.521
666.149
667.87
669.424
670.415
670.746
670.608
669.796
667.815
663.68
656.349
645.982
633.302
618.953
601.072
580.826
559.671
536.254
506.76
479.221
459.434
543.348
538.883
536.95
536.699
539.096
541.121
542.727
543.467
543.413
542.141
538.906
533.787
526.223
516.371
503.521
489.014
472.442
453.809
433.792
412.793
392.697
374.744
360.548
421.414
415.67
412.297
410.377
413.197
416.295
419.11
420.221
419.46
416.395
411.177
405.905
399.785
391.515
380.107
364.382
348.147
330.597
312.813
298.061
288.297
282.315
279.677
315.602
315.57
315.337
313.611
312.413
311.326
310.434
310.234
309.546
307.972
305.707
302.558
297.893
290.859
279.544
265.259
247.947
230.371
216.857
210.004
207.641
207.995
209.121
237.866
241.817
244.106
242.901
239.408
235.575
232.512
230.821
230.206
230.914
231.898
231.013
228.298
222.918
213.622
198.725
178.421
158.384
145.198
139.147
137.56
138.76
141.034
176.723
177.877
177.853
176.616
174.637
172.878
171.144
169.467
168.406
168.3
169.101
170.034
169.848
166.308
158.4
142.164
115.654
87.2756
71.8685
66.294
66.2379
69.4552
73.7264
111.848
110.955
110.067
109.099
107.953
106.848
105.772
104.441
103.538
103.355
104.25
106.723
110.969
113.816
109.462
92.1398
54.4522
21.2361
13.511
12.9458
13.9457
16.8453
20.9232
45.7318
45.027
43.9532
43.3549
42.8627
42.2418
41.39
40.487
39.5813
38.6988
38.2354
39.1859
43.5369
51.0255
53.4571
35.9978
9.90217
1.85678
0.337613
0.0987494
0.07053
0.316783
1.10138
6.86163
6.3677
5.82598
5.72589
5.76474
5.75152
5.58388
5.24452
4.70824
3.90805
3.08025
2.74871
3.93027
5.76162
5.14568
1.56988
-0.378228
-0.488382
-0.606448
-0.684749
-0.786665
-0.995375
-1.19434
-1.81555
-1.81478
-1.79432
-1.79687
-1.84158
-1.88481
-1.90701
-1.89777
-1.85249
-1.87149
-2.04496
-2.14294
-2.04825
-2.0534
-2.45989
-2.65056
-2.08675
-1.64492
-1.4107
-1.27504
-1.31851
-1.43446
-1.56117
-1.99084
-1.99248
-2.00506
-2.0197
-2.03708
-2.06323
-2.09827
-2.13813
-2.18496
-2.24048
-2.28761
-2.33455
-2.42211
-2.52764
-2.68579
-2.71474
-2.49801
-2.1081
-1.79717
-1.6554
-1.62315
-1.65545
-1.71591
-2.1109
-2.11415
-2.12286
-2.13565
-2.15316
-2.17843
-2.21088
-2.24924
-2.29674
-2.34873
-2.39802
-2.45086
-2.5272
-2.6069
-2.64854
-2.60435
-2.44273
-2.19012
-2.00764
-1.88947
-1.84244
-1.84648
-1.87679
-2.23137
-2.23517
-2.24211
-2.25277
-2.26809
-2.28944
-2.31664
-2.35034
-2.39065
-2.43312
-2.4765
-2.52032
-2.56092
-2.59598
-2.60387
-2.54629
-2.41953
-2.2771
-2.16209
-2.08023
-2.03744
-2.02798
-2.03858
-2.35126
-2.35506
-2.36103
-2.37013
-2.38301
-2.40043
-2.4225
-2.44929
-2.47937
-2.51135
-2.54385
-2.57459
-2.59993
-2.61056
-2.59821
-2.54933
-2.46872
-2.37584
-2.30067
-2.24328
-2.20801
-2.19426
-2.19467
-2.47066
-2.47425
-2.47965
-2.48774
-2.49879
-2.51332
-2.53145
-2.55236
-2.57539
-2.59921
-2.622
-2.64163
-2.65517
-2.65507
-2.63847
-2.60125
-2.54656
-2.48589
-2.43347
-2.3922
-2.36438
-2.34994
-2.34461
-2.58988
-2.59322
-2.59823
-2.60559
-2.6154
-2.62794
-2.6431
-2.66026
-2.6786
-2.69691
-2.71328
-2.72582
-2.73236
-2.7279
-2.71171
-2.68304
-2.64433
-2.60165
-2.56287
-2.53173
-2.50932
-2.49503
-2.4864
-2.70934
-2.71242
-2.71704
-2.72372
-2.73244
-2.74326
-2.75604
-2.77054
-2.78527
-2.79913
-2.81053
-2.81818
-2.82052
-2.81531
-2.80144
-2.77899
-2.74996
-2.71822
-2.68851
-2.66394
-2.64532
-2.63227
-2.62312
-2.82944
-2.83224
-2.83643
-2.84238
-2.84994
-2.85904
-2.86948
-2.88093
-2.89218
-2.90191
-2.90942
-2.91389
-2.91412
-2.90888
-2.89748
-2.88
-2.85814
-2.83463
-2.81228
-2.79305
-2.77763
-2.76606
-2.75762
-2.95029
-2.95284
-2.95659
-2.96181
-2.96826
-2.97577
-2.98407
-2.9927
-3.00088
-3.0078
-3.0128
-3.01517
-3.0141
-3.00887
-2.9996
-2.98621
-2.96991
-2.95245
-2.93558
-2.92055
-2.90792
-2.89789
-2.89037
-3.07184
-3.07414
-3.07749
-3.08204
-3.08749
-3.09366
-3.10023
-3.1068
-3.11282
-3.11771
-3.12094
-3.12198
-3.12034
-3.11573
-3.10782
-3.0974
-3.08504
-3.07181
-3.05885
-3.04697
-3.03664
-3.0281
-3.02147
-3.19393
-3.196
-3.19897
-3.20292
-3.20753
-3.21259
-3.21781
-3.22284
-3.22727
-3.23069
-3.23269
-3.2329
-3.23102
-3.22684
-3.22032
-3.21217
-3.2026
-3.19237
-3.1822
-3.17268
-3.1642
-3.15698
-3.15118
-3.31644
-3.3183
-3.32093
-3.32434
-3.32823
-3.33238
-3.33652
-3.34037
-3.34361
-3.34594
-3.34708
-3.34679
-3.34487
-3.34127
-3.33608
-3.32938
-3.32181
-3.31374
-3.30564
-3.29793
-3.29092
-3.28481
-3.27975
-3.43928
-3.44095
-3.44328
-3.44623
-3.44952
-3.45291
-3.45619
-3.4591
-3.46143
-3.46295
-3.46348
-3.46287
-3.46102
-3.45789
-3.45356
-3.44818
-3.44212
-3.43568
-3.42915
-3.42286
-3.41703
-3.41184
-3.40742
-3.56242
-3.56393
-3.56599
-3.56855
-3.57133
-3.57411
-3.57668
-3.57885
-3.58046
-3.58137
-3.58146
-3.58066
-3.5789
-3.57619
-3.57258
-3.56819
-3.56328
-3.55807
-3.55276
-3.54757
-3.54269
-3.53826
-3.5344
-3.68586
-3.68722
-3.68905
-3.69127
-3.69362
-3.69589
-3.69788
-3.69946
-3.70051
-3.70094
-3.70071
-3.69979
-3.69814
-3.69577
-3.69274
-3.68913
-3.6851
-3.68082
-3.67646
-3.67216
-3.66805
-3.66426
-3.66088
-3.80959
-3.81081
-3.81244
-3.81438
-3.81636
-3.81819
-3.8197
-3.82079
-3.82138
-3.82144
-3.82098
-3.81998
-3.81843
-3.81635
-3.81378
-3.81078
-3.80744
-3.8039
-3.80027
-3.79668
-3.79321
-3.78995
-3.78699
-3.93362
-3.93471
-3.93615
-3.93783
-3.93949
-3.94095
-3.94205
-3.94271
-3.94293
-3.94271
-3.94207
-3.94102
-3.93956
-3.93772
-3.93551
-3.93298
-3.9302
-3.92724
-3.9242
-3.92117
-3.91822
-3.91542
-3.91283
-4.05795
-4.0589
-4.06015
-4.06159
-4.06296
-4.06409
-4.06483
-4.06514
-4.06504
-4.06459
-4.06382
-4.06274
-4.06136
-4.05971
-4.05779
-4.05563
-4.05329
-4.0508
-4.04823
-4.04567
-4.04315
-4.04073
-4.03846
-4.18244
-4.18328
-4.18437
-4.1856
-4.18672
-4.18754
-4.18795
-4.18796
-4.18761
-4.18697
-4.1861
-4.185
-4.1837
-4.1822
-4.18051
-4.17866
-4.17665
-4.17454
-4.17237
-4.17018
-4.16802
-4.16593
-4.16395
-4.30697
-4.30776
-4.30874
-4.30979
-4.31069
-4.31125
-4.31136
-4.31109
-4.31053
-4.30974
-4.3088
-4.3077
-4.30647
-4.3051
-4.3036
-4.30198
-4.30025
-4.29845
-4.29659
-4.29472
-4.29287
-4.29106
-4.28933
-4.43161
-4.43231
-4.43322
-4.43411
-4.43485
-4.43515
-4.43497
-4.43446
-4.43372
-4.43283
-4.43183
-4.43074
-4.42957
-4.42832
-4.42697
-4.42554
-4.42405
-4.42249
-4.4209
-4.4193
-4.41771
-4.41615
-4.41464
-4.5563
-4.55694
-4.55773
-4.55846
-4.55913
-4.55923
-4.55878
-4.55802
-4.55712
-4.55614
-4.5551
-4.55404
-4.55294
-4.55179
-4.55057
-4.54931
-4.548
-4.54666
-4.54529
-4.54391
-4.54255
-4.5412
-4.5399
-4.68092
-4.68152
-4.6823
-4.68316
-4.68348
-4.68335
-4.68266
-4.6817
-4.68065
-4.67959
-4.67856
-4.67753
-4.6765
-4.67545
-4.67436
-4.67324
-4.67209
-4.67092
-4.66974
-4.66856
-4.66739
-4.66624
-4.66512
-4.80531
-4.80586
-4.80656
-4.80726
-4.80754
-4.80727
-4.80643
-4.80534
-4.80421
-4.80313
-4.80212
-4.80115
-4.8002
-4.79925
-4.79828
-4.79728
-4.79627
-4.79526
-4.79425
-4.79324
-4.79225
-4.79127
-4.79032
-4.92935
-4.92984
-4.93045
-4.93103
-4.9312
-4.93083
-4.92995
-4.92883
-4.92772
-4.92669
-4.92574
-4.92486
-4.92401
-4.92315
-4.92229
-4.92142
-4.92054
-4.91967
-4.9188
-4.91795
-4.91711
-4.9163
-4.9155
-5.05301
-5.0534
-5.05391
-5.05438
-5.05444
-5.05405
-5.05323
-5.05219
-5.05118
-5.05026
-5.04942
-5.04864
-5.04789
-5.04714
-5.04639
-5.04563
-5.04487
-5.04412
-5.04339
-5.04268
-5.04199
-5.04132
-5.04067
-5.17634
-5.1766
-5.17699
-5.17734
-5.17734
-5.17701
-5.17633
-5.17546
-5.17462
-5.17386
-5.17315
-5.17249
-5.17184
-5.17119
-5.17054
-5.16989
-5.16925
-5.16862
-5.16801
-5.16743
-5.16688
-5.16635
-5.16583
-5.29942
-5.29958
-5.29982
-5.30004
-5.30004
-5.29979
-5.29932
-5.29872
-5.2981
-5.29752
-5.29696
-5.29642
-5.29587
-5.29531
-5.29476
-5.29421
-5.29367
-5.29315
-5.29266
-5.2922
-5.29178
-5.29137
-5.29099
-5.42235
-5.42243
-5.42252
-5.42261
-5.42263
-5.42255
-5.42234
-5.42202
-5.42166
-5.42127
-5.42087
-5.42044
-5.41998
-5.41951
-5.41904
-5.41858
-5.41813
-5.41771
-5.41733
-5.41699
-5.41668
-5.41641
-5.41615
-5.54523
-5.54523
-5.54518
-5.5451
-5.54522
-5.54536
-5.54544
-5.54541
-5.5453
-5.54511
-5.54486
-5.54454
-5.54417
-5.54378
-5.54339
-5.543
-5.54264
-5.54231
-5.54203
-5.54179
-5.54161
-5.54145
-5.5413
-5.66816
-5.66812
-5.66799
-5.66781
-5.66796
-5.66833
-5.66867
-5.66891
-5.66903
-5.66903
-5.66891
-5.6687
-5.66842
-5.66811
-5.66779
-5.66748
-5.6672
-5.66695
-5.66675
-5.66661
-5.66654
-5.66649
-5.66645
666.624
623.235
596.435
584.927
452.833
450.699
448.791
447.44
353.722
350.697
349.254
350.227
277.842
277.07
277.123
277.396
209.005
208.975
209.282
210.799
142.619
143.606
144.799
146.669
76.9024
78.8402
80.7048
82.749
24.0314
25.6759
27.3176
28.5203
2.05586
2.56145
3.21553
3.59228
-1.20691
-1.23338
-1.32275
-1.3746
-1.63285
-1.6473
-1.65066
-1.65038
-1.75547
-1.77784
-1.79108
-1.79626
-1.90208
-1.91626
-1.92631
-1.93451
-2.05232
-2.06106
-2.06831
-2.07502
-2.20097
-2.20581
-2.21032
-2.21487
-2.34555
-2.34721
-2.34922
-2.35191
-2.4843
-2.48421
-2.48468
-2.48595
-2.61985
-2.6188
-2.61833
-2.61867
-2.75397
-2.75238
-2.75138
-2.75106
-2.88674
-2.88494
-2.88362
-2.88281
-3.018
-3.01617
-3.01472
-3.01362
-3.14796
-3.14618
-3.14468
-3.14344
-3.27679
-3.2751
-3.27364
-3.27236
-3.40473
-3.40317
-3.40176
-3.40051
-3.53198
-3.53054
-3.52923
-3.52803
-3.6587
-3.6574
-3.65619
-3.65505
-3.78504
-3.78386
-3.78275
-3.7817
-3.91109
-3.91003
-3.90902
-3.90806
-4.03692
-4.03596
-4.03506
-4.03418
-4.16258
-4.16174
-4.16092
-4.16013
-4.28812
-4.28737
-4.28665
-4.28594
-4.41358
-4.41293
-4.41228
-4.41166
-4.53898
-4.5384
-4.53784
-4.53729
-4.66433
-4.66383
-4.66334
-4.66286
-4.78964
-4.78921
-4.7888
-4.78839
-4.91493
-4.91458
-4.91422
-4.91388
-5.04021
-5.03991
-5.03963
-5.03934
-5.16547
-5.16524
-5.16501
-5.16478
-5.29072
-5.29054
-5.29037
-5.2902
-5.41596
-5.41585
-5.41573
-5.41561
-5.5412
-5.54113
-5.54106
-5.54099
-5.66643
-5.66641
-5.6664
-5.66637
564.816
540.27
534.671
532.88
531.762
530.293
526.479
523.192
517.198
521.7
520.556
500.749
485.157
476.749
472.316
477.354
483.103
488.413
497.84
447.542
436.152
432.602
434.564
431.024
427.432
424.49
419.444
411.736
405.058
401.433
388.138
375.494
372.367
376.775
382.296
383.959
377.674
381.358
350.478
348.772
350.369
350.936
348.479
345.445
343.449
334.811
326.319
319.464
312.458
302.955
294.371
291.507
295.463
299.444
293.436
291.96
293.88
278.292
279.105
279.671
277.602
274.295
271.267
267.771
259.3
252.161
244.691
235.451
226.774
220.448
217.336
218.014
219.49
215.648
221.911
222.587
214.3
215.773
215.263
213.324
209.736
203.799
196.669
190.184
183.481
174.252
164.966
158.029
152.912
148.903
149.529
152.214
152.132
154.911
155.917
149.644
152.433
152.706
151.843
149.488
144.224
137.595
131.086
121.147
108.906
98.6414
91.5275
86.559
84.1748
85.0254
88.7248
89.7479
88.7194
92.9282
85.6111
89.537
91.2436
91.4565
89.9546
86.2148
79.0848
69.8698
57.687
45.3624
35.084
27.839
24.927
24.5698
29.2461
33.0607
35.1609
32.715
33.9124
30.1392
33.7075
35.5726
36.6184
36.6202
34.5539
29.3857
22.0342
13.512
6.8258
2.60592
0.882351
0.934453
1.92808
3.93338
5.20836
5.05048
4.97473
3.42642
4.05406
4.1287
4.60569
5.04156
5.47817
4.99967
3.16293
1.38045
-0.251166
-1.18204
-1.21162
-1.1685
-1.09618
-0.977049
-0.945657
-1.18448
-1.27281
-1.22775
-0.824847
-1.30829
-1.27805
-1.10978
-1.04711
-0.955853
-0.79712
-0.855071
-1.35976
-1.54771
-1.51881
-1.46232
-1.40735
-1.38618
-1.41416
-1.45271
-1.44539
-1.42781
-1.38972
-1.39459
-1.6773
-1.7044
-1.73088
-1.7362
-1.75115
-1.76972
-1.77349
-1.7633
-1.7523
-1.685
-1.63709
-1.59815
-1.57584
-1.57932
-1.59341
-1.5721
-1.54225
-1.53952
-1.55499
-1.81267
-1.83393
-1.8549
-1.87098
-1.88565
-1.89461
-1.89565
-1.87651
-1.85199
-1.82528
-1.79923
-1.7749
-1.7546
-1.74388
-1.74033
-1.7208
-1.69686
-1.68942
-1.69453
-1.94926
-1.96645
-1.98302
-1.99724
-2.00877
-2.01536
-2.0098
-2.0005
-1.98577
-1.96718
-1.94985
-1.93481
-1.92063
-1.90702
-1.89934
-1.89048
-1.87453
-1.86414
-1.85911
-2.08646
-2.10049
-2.1135
-2.12667
-2.13953
-2.14627
-2.14035
-2.12748
-2.11476
-2.10255
-2.09081
-2.08096
-2.0759
-2.06782
-2.05887
-2.06406
-2.05433
-2.04478
-2.0381
-2.22281
-2.2337
-2.24433
-2.25571
-2.26759
-2.27317
-2.2679
-2.25531
-2.24303
-2.23251
-2.22433
-2.21878
-2.21629
-2.21578
-2.20833
-2.21255
-2.21172
-2.19902
-2.19384
-2.35686
-2.36448
-2.37358
-2.38273
-2.39137
-2.39649
-2.3936
-2.38453
-2.37287
-2.36239
-2.35433
-2.34943
-2.34739
-2.34658
-2.34375
-2.34
-2.33922
-2.32795
-2.32411
-2.48856
-2.49338
-2.50103
-2.50824
-2.51458
-2.51847
-2.51714
-2.51202
-2.50325
-2.49381
-2.48583
-2.47997
-2.47648
-2.47365
-2.47127
-2.46375
-2.45818
-2.45245
-2.44999
-2.6197
-2.62236
-2.62777
-2.63339
-2.63779
-2.64015
-2.63975
-2.63704
-2.63234
-2.6254
-2.61878
-2.61243
-2.60724
-2.60178
-2.59578
-2.59006
-2.58306
-2.58085
-2.58143
-2.75099
-2.75221
-2.75532
-2.75874
-2.76133
-2.76269
-2.76305
-2.76242
-2.76088
-2.75755
-2.75249
-2.74664
-2.74002
-2.7325
-2.72583
-2.72197
-2.716
-2.71695
-2.71842
-2.88198
-2.88222
-2.88363
-2.88531
-2.88664
-2.88747
-2.88805
-2.88868
-2.88896
-2.88821
-2.88504
-2.87993
-2.87262
-2.86494
-2.8597
-2.85755
-2.85483
-2.85675
-2.85547
-3.01228
-3.01169
-3.01201
-3.01263
-3.01319
-3.01366
-3.0142
-3.01481
-3.01529
-3.01533
-3.01366
-3.00934
-3.0029
-2.99653
-2.99296
-2.99162
-2.99166
-2.99123
-2.98656
-3.14177
-3.14055
-3.14012
-3.14007
-3.14014
-3.1403
-3.14052
-3.14077
-3.1409
-3.14058
-3.13912
-3.13587
-3.13116
-3.12623
-3.12342
-3.12181
-3.12233
-3.11859
-3.11311
-3.27053
-3.26891
-3.26795
-3.26739
-3.26709
-3.26693
-3.26683
-3.26674
-3.26653
-3.26592
-3.26449
-3.26184
-3.25821
-3.25437
-3.25191
-3.25083
-3.24919
-3.24421
-3.23821
-3.39863
-3.39679
-3.39551
-3.39461
-3.39398
-3.3935
-3.39312
-3.39272
-3.39221
-3.39136
-3.38991
-3.38761
-3.3846
-3.38135
-3.37867
-3.37709
-3.37426
-3.36953
-3.36373
-3.52618
-3.52424
-3.52277
-3.52165
-3.52078
-3.52006
-3.51942
-3.51878
-3.51804
-3.51701
-3.51553
-3.51345
-3.51082
-3.50787
-3.50485
-3.50234
-3.49927
-3.49544
-3.49062
-3.65329
-3.65133
-3.64977
-3.64851
-3.64747
-3.64659
-3.64577
-3.64495
-3.64403
-3.6429
-3.64143
-3.63953
-3.63718
-3.63449
-3.63151
-3.62869
-3.62563
-3.62241
-3.61891
-3.78004
-3.77813
-3.77654
-3.7752
-3.77407
-3.77306
-3.77213
-3.7712
-3.77019
-3.76902
-3.7676
-3.76586
-3.76379
-3.7614
-3.75868
-3.75596
-3.75317
-3.75048
-3.74752
-3.90652
-3.90468
-3.90311
-3.90176
-3.90057
-3.8995
-3.89849
-3.8975
-3.89646
-3.89531
-3.89397
-3.8924
-3.89059
-3.88852
-3.88616
-3.88377
-3.8814
-3.87923
-3.87668
-4.03277
-4.03104
-4.02952
-4.02818
-4.02699
-4.02589
-4.02486
-4.02385
-4.02281
-4.0217
-4.02047
-4.01908
-4.0175
-4.01574
-4.01377
-4.01177
-4.00985
-4.00818
-4.00612
-4.15885
-4.15724
-4.1558
-4.15451
-4.15333
-4.15225
-4.15122
-4.15022
-4.14921
-4.14816
-4.14704
-4.14581
-4.14445
-4.14298
-4.14131
-4.13974
-4.13824
-4.13698
-4.13543
-4.28479
-4.28332
-4.28197
-4.28075
-4.27962
-4.27856
-4.27757
-4.2766
-4.27564
-4.27466
-4.27364
-4.27256
-4.27139
-4.27014
-4.26874
-4.26754
-4.26645
-4.26552
-4.26441
-4.41063
-4.40929
-4.40805
-4.40691
-4.40584
-4.40484
-4.4039
-4.40298
-4.40208
-4.40118
-4.40026
-4.3993
-4.3983
-4.39726
-4.39614
-4.39523
-4.39443
-4.39376
-4.393
-4.53638
-4.53518
-4.53406
-4.53301
-4.53202
-4.53109
-4.5302
-4.52935
-4.52852
-4.5277
-4.52688
-4.52603
-4.52518
-4.52435
-4.52355
-4.52282
-4.52217
-4.5216
-4.5211
-4.66207
-4.66101
-4.66001
-4.65906
-4.65816
-4.6573
-4.65649
-4.65571
-4.65495
-4.65422
-4.65349
-4.65276
-4.65204
-4.65136
-4.6508
-4.65021
-4.64967
-4.64917
-4.64887
-4.7877
-4.78678
-4.7859
-4.78506
-4.78425
-4.78348
-4.78274
-4.78204
-4.78137
-4.78072
-4.78008
-4.77946
-4.77886
-4.7783
-4.77785
-4.77745
-4.77702
-4.77658
-4.77636
-4.9133
-4.91251
-4.91175
-4.91101
-4.9103
-4.90962
-4.90897
-4.90835
-4.90776
-4.90719
-4.90665
-4.90613
-4.90563
-4.90517
-4.90479
-4.9045
-4.9042
-4.90385
-4.90361
-5.03886
-5.0382
-5.03756
-5.03693
-5.03632
-5.03574
-5.03518
-5.03464
-5.03413
-5.03365
-5.03319
-5.03276
-5.03236
-5.03198
-5.03166
-5.0314
-5.03118
-5.0309
-5.03069
-5.1644
-5.16386
-5.16334
-5.16282
-5.16231
-5.16182
-5.16135
-5.16091
-5.16048
-5.16008
-5.15971
-5.15937
-5.15904
-5.15875
-5.15849
-5.15827
-5.1581
-5.1579
-5.15775
-5.28991
-5.2895
-5.28909
-5.28868
-5.28828
-5.28789
-5.28751
-5.28716
-5.28682
-5.2865
-5.28621
-5.28594
-5.2857
-5.28548
-5.28529
-5.28514
-5.28503
-5.28491
-5.2848
-5.4154
-5.41511
-5.41481
-5.41452
-5.41422
-5.41394
-5.41366
-5.4134
-5.41315
-5.41291
-5.4127
-5.41251
-5.41234
-5.4122
-5.41209
-5.41201
-5.41196
-5.41192
-5.41183
-5.54087
-5.5407
-5.54052
-5.54034
-5.54016
-5.53998
-5.53981
-5.53964
-5.53948
-5.53933
-5.5392
-5.53908
-5.53898
-5.53892
-5.53889
-5.5389
-5.53893
-5.53893
-5.53882
-5.66633
-5.66628
-5.66621
-5.66615
-5.66608
-5.66602
-5.66595
-5.66589
-5.66583
-5.66577
-5.66571
-5.66567
-5.66564
-5.66565
-5.66571
-5.66582
-5.66596
-5.66599
-5.6658
)
;

boundaryField
{
    leftWall
    {
        type            calculated;
        value           nonuniform List<scalar> 
50
(
4727.78
3929.64
3130.7
2330.1
1556.83
1081.6
947.926
888.179
794.619
668.875
543.348
421.414
315.602
237.866
176.723
111.848
45.7318
6.86163
-1.81555
-1.99084
-2.1109
-2.23137
-2.35126
-2.47066
-2.58988
-2.70934
-2.82944
-2.95029
-3.07184
-3.19393
-3.31644
-3.43928
-3.56242
-3.68586
-3.80959
-3.93362
-4.05795
-4.18244
-4.30697
-4.43161
-4.5563
-4.68092
-4.80531
-4.92935
-5.05301
-5.17634
-5.29942
-5.42235
-5.54523
-5.66816
)
;
    }
    rightWall
    {
        type            calculated;
        value           nonuniform List<scalar> 
50
(
2464.92
1710.72
1141.03
864.668
766.504
714.692
656.345
595.024
497.84
381.358
293.88
222.587
155.917
92.9282
33.9124
3.42642
-0.824847
-1.39459
-1.55499
-1.69453
-1.85911
-2.0381
-2.19384
-2.32411
-2.44999
-2.58143
-2.71842
-2.85547
-2.98656
-3.11311
-3.23821
-3.36373
-3.49062
-3.61891
-3.74752
-3.87668
-4.00612
-4.13543
-4.26441
-4.393
-4.5211
-4.64887
-4.77636
-4.90361
-5.03069
-5.15775
-5.2848
-5.41183
-5.53882
-5.6658
)
;
    }
    lowerWall
    {
        type            calculated;
        value           nonuniform List<scalar> 
62
(
5125.93
5131.45
5141.45
5154.26
5169.48
5187.92
5211.5
5242.89
5284.81
5339.84
5409.83
5496.32
5599.63
5719.59
5856.37
6006.38
6164.23
6324.15
6484.67
6636.3
6765.41
6847.29
6891.59
6493.46
5706.9
4930.08
4163.57
3408.32
2666.74
1928.97
1242.55
881.536
746.887
691.222
666.702
2348.36
1592.81
1054.01
857.128
798.07
741.963
684.175
632.252
2730.51
2741.16
2767.75
2800.72
2820.05
2815.05
2800.93
2797.32
2816.18
2861.39
2919.72
3006.37
3122.21
3237.66
3286.25
3223.53
3082.48
2936.78
2845.31
)
;
    }
    atmosphere
    {
        type            calculated;
        value           nonuniform List<scalar> 
46
(
-5.72954
-5.72949
-5.72948
-5.72905
-5.72951
-5.73007
-5.7305
-5.73083
-5.73104
-5.7311
-5.73102
-5.73084
-5.73059
-5.73031
-5.73003
-5.72976
-5.72951
-5.7293
-5.72914
-5.72905
-5.72904
-5.72904
-5.72904
-5.72904
-5.72904
-5.72904
-5.72904
-5.72904
-5.72904
-5.72904
-5.72904
-5.72904
-5.72904
-5.72904
-5.72904
-5.72904
-5.72904
-5.72904
-5.72904
-5.72904
-5.72905
-5.72908
-5.72919
-5.72945
-5.7295
-5.72907
)
;
    }
    defaultFaces
    {
        type            empty;
    }
}


// ************************************************************************* //
