/*--------------------------------*- C++ -*----------------------------------*\
| =========                 |                                                 |
| \\      /  F ield         | OpenFOAM: The Open Source CFD Toolbox           |
|  \\    /   O peration     | Version:  2312                                  |
|   \\  /    A nd           | Website:  www.openfoam.com                      |
|    \\/     M anipulation  |                                                 |
\*---------------------------------------------------------------------------*/
FoamFile
{
    version     2.0;
    format      ascii;
    arch        "LSB;label=32;scalar=64";
    class       volScalarField;
    location    "3.75";
    object      alphas;
}
// * * * * * * * * * * * * * * * * * * * * * * * * * * * * * * * * * * * * * //

dimensions      [0 0 0 0 0 0 0];

internalField   nonuniform List<scalar> 
2268
(
2
2
2
2
2
2
2
2
2
2
2
2
2
2
2
2
2
2
2
2
2
1.99995
1.99995
2
2
2
2
2
2
2
2
2
2
2
2
2
2
2
2
2
2
2
2
2
1.99998
1.99995
2
2
2
2
2
2
2
2
2
2
2
2
2
2
2
2
2
2
2
2
2
2
2
1.99986
1.99989
1.99999
2.00001
2
2
2
2
2
2
2
2
2
2
2
2
2
2
2
2
2
2
2
1.83403
1.84376
1.86116
1.87791
1.89193
1.90705
1.92394
1.94269
1.96239
1.98198
1.99927
2.00008
2.00003
2
1.99997
1.99999
1.99994
2
1.99991
1.99995
2
2
2
0.37811
0.401439
0.432544
0.466445
0.497917
0.533033
0.574541
0.628597
0.700406
0.803722
0.953717
1.18462
1.45445
1.68709
1.88702
1.99322
1.99845
1.99855
1.99997
2
2
2
2.00054
0.00201019
0.00471196
0.00632788
0.00610292
0.00532965
0.00303172
0.000847361
0.000700493
0.000454398
0.000437619
0.00299669
0.0195149
0.0849
0.287823
0.58024
0.962293
1.40299
1.74913
1.91497
1.9875
1.99569
1.99858
2.006
0.00110477
0.000999689
0.0019883
0.00139965
0.000937723
0.000920787
0.000930399
0.000794742
0.000399151
0.000545608
0.000776124
0.0131494
0.0339558
0.0280144
0.0275603
0.0297202
0.0873887
0.338908
0.735198
1.16832
1.47476
1.61017
1.63958
1.94319
1.94795
1.95036
1.96187
1.96998
1.96646
1.95719
1.94825
1.94708
1.9484
1.94815
1.94809
1.94809
1.95086
1.95682
1.96659
1.96791
1.96162
1.96189
1.8503
1.90288
1.9121
1.92116
1.94098
1.94939
1.95377
1.95288
1.94554
1.94329
1.9478
1.95724
1.96513
1.96489
1.9646
1.96659
1.97767
1.97489
1.93956
0.874263
1.03595
1.0708
1.2087
1.33496
1.37309
1.35388
1.22613
1.21141
1.38829
1.52902
1.59135
1.64466
1.74139
1.82935
1.775
1.66127
1.57317
1.52232
0.38839
0.24284
0.115323
0.236107
0.433881
0.450875
0.416949
0.153544
0.0707916
0.262678
0.763317
0.897883
1.10294
1.34478
1.50103
1.49725
1.44363
1.21436
1.04173
0.318788
0.0445997
0.0532553
0.0470006
0.0948968
0.129107
0.0539424
0.0503393
0.0774892
0.0642579
0.496295
0.220714
0.17489
0.233102
0.578424
0.80776
0.598305
0.430546
0.547959
0.0705086
0.0432743
0.0547316
0.0615646
0.0515976
0.052115
0.0507489
0.0613701
0.329856
0.216637
0.554352
0.215221
0.125448
0.127411
0.126186
0.173944
0.139957
0.112999
0.543964
0.156587
0.0485471
0.0395982
0.0700748
0.0686667
0.0664786
0.0720806
0.231301
0.770791
0.591768
0.495717
0.326467
0.253738
0.125196
0.161033
0.204287
0.203341
0.120683
0.205174
0.235805
0.179931
0.0588056
0.0698438
0.0781215
0.0726851
0.119071
0.561645
0.947666
0.609831
0.515933
0.510397
0.431194
0.269223
0.2043
0.204845
0.204837
0.160609
0.112895
0.000964233
0.000964126
0.000963265
0.000913126
0.000895925
0.00090274
0.000940627
0.000928222
0.00052418
0.000358578
0.0403843
0.0476086
0.0473766
0.0290388
0.0244672
0.0595468
0.172991
0.213014
0.206188
0.145752
0.0617123
0.108685
0.186777
0.00120892
0.00370654
0.00260606
0.00100758
0.000915289
0.000906773
0.000907104
0.000908675
0.000673993
0.000598429
0.000538429
0.0278602
0.0485588
0.0476161
0.0339927
0.0283803
0.0646325
0.0540988
0.0420438
0.0415405
0.0213092
0.0208989
0.0181708
0.00157467
0.0143688
0.0385202
0.0331547
0.0333826
0.0299418
0.0234931
0.0295118
0.0238369
0.00603088
0.0026708
0.00650732
0.00955716
0.0181814
0.0244983
0.0361988
0.0438947
0.0373647
0.0324764
0.028345
0.0343188
0.100305
0.358998
0.0976739
0.20541
0.310004
0.394573
0.361666
0.286525
0.233409
0.239961
0.238745
0.203355
0.213743
0.226521
0.225477
0.204011
0.201122
0.266724
0.275459
0.162849
0.0474384
0.07771
0.236845
0.592924
0.96667
0.568414
0.734887
0.938504
1.01754
1.03564
0.986798
0.880455
0.81984
0.849036
0.918732
0.98195
0.998089
0.98577
0.937706
0.951628
1.00522
0.968852
0.680222
0.537054
0.692749
0.935017
1.03306
1.00203
1.12627
1.11533
1.01547
1.00087
1.00077
1.00084
1.02571
1.10268
1.09015
1.02379
1.00082
1.00071
1.03353
1.1721
1.13248
1.05385
1.01726
1.0096
1.01115
1.01318
1.00518
1.00191
1.0004
1.08969
1.00832
1.00059
1.00039
1.00029
1.00023
1.00024
1.00018
1.00017
1.00022
1.00027
1.00029
1.00031
1.01484
1.02889
1.00593
1.00182
1.00147
1.00125
1.00168
1.00131
1.00096
0.999767
1.03137
1.03557
1.04656
1.05261
1.05341
1.05256
1.05076
1.05017
1.05192
1.05088
1.04315
1.02717
1.00833
1.00858
1.00261
1.05466
1.16547
1.11275
1.02719
1.00135
1.03698
1.09692
1.17369
2.19862
2.25857
2.31549
2.3414
2.34556
2.3423
2.33609
2.33874
2.34828
2.34242
2.3097
2.23793
2.09759
1.85805
1.5187
1.22471
1.14865
1.09639
1.16723
1.68532
2.16523
2.37485
2.52935
2.99865
2.99856
2.99857
2.99854
2.99808
2.99686
2.99555
2.99164
2.98557
2.98514
2.98993
2.99563
2.99726
2.99032
2.95506
2.89851
2.57665
2.17881
2.26288
2.74924
2.99494
2.99357
2.96396
3
3
3
3
3
3
3
3
3
3
3
3
3
2.99999
2.99997
2.99994
2.99716
2.95825
2.94764
2.9663
2.99926
2.99793
2.99867
3
3
3
3
3
3
3
3
3
3
2.99993
2.99987
2.99996
2.99998
2.99999
3
3
2.99779
2.99228
2.99624
2.99996
3
3
3
3
3
2.99999
2.99999
3
3
3
3
2.99998
2.99986
2.99987
2.99999
3
3
2.99999
2.99999
2.99999
3
3
3
3
3
3
3
3
2.99999
2.99999
3
3
3
3
3
3
3
3
3
3
3
2.99999
2.99999
3
3
3
3
2.99997
3
3
3
2.99999
2.99999
3
2.99998
2.99994
2.99995
2.99999
2.99999
2.99999
2.99999
3
3
3
3
3
2.99999
2.99999
2.99996
2.99991
2.99989
3
3
3
3
3
3
2.99994
2.99985
2.99985
2.9999
2.99989
2.99986
2.99988
2.99996
2.99997
2.99997
2.99998
2.99998
2.9999
2.99989
2.99989
2.99989
2.99989
3
3
3
3
3
3
2.99996
2.99985
2.99985
2.99986
2.99984
2.99983
2.99982
2.99982
2.9999
2.99993
2.99994
2.99994
2.99996
2.99993
2.99993
2.99994
2.99997
3
3
3
3
3
3
3
2.99999
2.99998
3
3
2.99998
2.99995
2.99995
2.99997
2.99997
2.99997
2.99999
3
3
3
3
3
3
3
3
3
3
3
3
3
3
3
3
3
3
3
3
3
3
3
3
3
3
3
3
3
3
3
3
3
3
3
3
3
3
3
3
3
3
3
3
3
3
3
3
3
3
3
3
3
3
3
3
3
3
3
3
3
3
3
3
3
3
3
3
3
3
3
3
3
3
3
3
3
3
3
3
3
3
3
3
3
3
3
3
3
3
3
3
3
3
3
3
3
3
3
3
3
3
3
3
3
3
3
3
3
3
3
3
3
3
3
3
3
3
3
3
3
3
3
3
3
3
3
3
3
3
3
3
3
3
3
3
3
3
3
3
3
3
3
3
3
3
3
3
3
3
3
3
3
3
3
3
3
3
3
3
3
3
3
3
3
3
3
3
3
3
3
3
3
3
3
3
3
3
3
3
3
3
3
3
3
3
3
3
3
3
3
3
3
3
3
3
3
3
3
3
3
3
3
3
3
3
3
3
3
3
3
3
3
3
3
3
3
3
3
3
3
3
3
3
3
3
3
3
3
3
3
3
3
3
3
3
3
3
3
3
3
3
3
3
3
3
3
3
3
3
3
3
3
3
3
3
3
3
3
3
3
3
3
3
3
3
3
3
3
3
3
3
3
3
3
3
3
3
3
3
3
3
3
3
3
3
3
3
3
3
3
3
3
3
3
3
3
3
3
3
3
3
3
3
3
3
3
3
3
3
3
3
3
3
3
3
3
3
3
3
3
3
3
3
3
3
3
3
3
3
3
3
3
3
3
3
3
3
3
3
3
3
3
3
3
3
3
3
3
3
3
3
3
3
3
3
3
3
3
3
3
3
3
3
3
3
3
3
3
3
3
3
3
3
3
3
3
3
3
3
3
3
3
3
3
3
3
3
3
3
3
3
3
3
3
3
3
3
3
3
3
3
3
3
3
3
3
3
3
3
3
3
3
3
3
3
3
3
3
3
3
3
3
3
3
3
3
3
3
3
3
3
3
3
3
3
3
3
3
3
3
3
3
3
3
3
3
3
3
3
3
3
3
3
3
3
3
3
3
3
3
3
3
3
3
3
3
3
3
3
3
3
3
3
3
3
3
3
3
3
3
3
3
3
3
3
3
3
3
3
3
3
3
3
3
3
3
3
3
3
3
3
3
3
3
3
3
3
3
3
3
3
3
3
3
3
3
3
3
3
3
3
3
3
3
3
3
3
3
3
3
3
3
3
3
3
3
3
3
3
3
3
3
3
3
3
3
3
3
3
3
3
3
3
3
3
3
0.343062
0.359987
0.342548
0.170662
0.0828575
0.250126
0.285387
0.259763
0.667925
0.664822
0.639956
0.728277
0.998853
1.04653
1.05966
1.01453
1.00213
1.00661
1.00263
1.00109
0.999759
0.999812
0.985247
0.983104
0.999013
0.986475
0.979816
0.981879
1.21081
1.2261
1.37104
1.46464
2.61551
2.65424
2.79428
2.81748
2.96463
2.98792
2.99826
2.99673
2.99954
3
3
3
3
3
2.99999
2.99999
3
3
3
2.99999
2.99997
2.99998
3
3
2.99989
2.99994
2.99999
3
2.99991
2.99997
3
3
2.99999
3
3
3
3
3
3
3
3
3
3
3
3
3
3
3
3
3
3
3
3
3
3
3
3
3
3
3
3
3
3
3
3
3
3
3
3
3
3
3
3
3
3
3
3
3
3
3
3
3
3
3
3
3
3
3
3
3
3
3
3
3
3
3
3
3
3
3
3
3
3
3
3
3
3
3
3
3
3
3
3
3
3
3
3
3
3
3
3
3
3
3
3
3
3
3
3
3
3
3
3
3
3
3
0.148797
0.268804
0.41555
0.373391
0.262326
0.253221
0.334734
0.857447
0.943587
0.505853
0.512832
0.598236
0.48727
0.333395
0.296501
0.285684
0.337197
0.156539
0.141709
0.250474
0.438587
0.749698
1.00994
0.912938
0.809696
0.912409
0.909802
0.999452
1.07524
1.11909
1.15023
1.02582
0.849885
0.899824
0.932584
0.954836
0.662485
0.387484
0.854671
0.995809
1.04998
1.02746
1.09731
1.18325
0.995105
0.876314
0.993335
1.06698
1.11048
1.06948
1.01794
1.03654
1.10125
1.0821
1.0149
1.01359
0.983876
1.01934
1.04344
1.00933
1.00603
1.18306
1.09633
0.950161
0.950559
1.13844
1.01428
1.00725
1.01379
1.01392
1.03636
1.09347
1.09207
1.07267
1.00398
1.00407
1.00276
1.00163
1.00162
1.00175
1.13218
1.16291
1.12179
1.28948
1.23009
1.00604
1.00243
1.00367
1.00402
1.00489
1.00506
1.08372
1.18503
1.0031
1.00287
1.00386
1.00101
1.00096
1.00109
1.01328
1.05073
1.01303
1.00771
1.00794
1.0087
1.00217
0.999849
1.00294
1.0031
1.02605
1.15159
1.2786
1.04499
1.00346
0.995214
1.00065
0.999752
0.999496
0.9992
0.99936
1.00037
1.01943
1.09975
1.21361
1.33137
1.46004
1.57802
1.73441
1.87471
1.9286
1.90011
2.07812
1.3671
1.50634
1.31484
1.16725
1.16282
1.24685
1.44795
1.78767
2.15702
2.43661
2.63157
2.77645
2.89643
2.93342
2.93773
2.9431
2.94065
2.94114
2.97705
2.94737
2.83314
2.78823
2.63972
2.56944
2.71747
2.91685
2.99382
2.99683
2.99883
2.99975
2.9998
2.99947
2.99927
2.99884
2.99922
3
3
3
2.99943
2.99653
2.99479
2.99398
2.98552
2.99327
2.99958
2.99983
2.99993
2.99992
2.99993
2.99989
2.99988
2.99994
2.99997
2.99998
2.99998
3
3
2.99999
3
3
2.99991
2.9983
2.99907
2.99988
2.9999
2.99991
2.99981
2.99973
2.99973
2.99973
2.99986
2.99996
2.99996
2.99995
2.9999
2.99987
2.99996
2.99999
3
3
3
2.99997
2.99968
2.99966
2.99976
2.99982
2.99981
2.99979
2.99977
2.99989
2.99997
2.99995
2.99962
2.99946
2.99947
2.99957
2.99998
2.99998
3
3
2.99993
2.99966
2.99965
2.99978
2.99995
2.99998
2.99998
2.99983
2.99968
2.99973
2.99986
2.99949
2.99946
2.99946
2.99946
2.99999
2.99996
2.99996
2.99997
2.99991
2.99984
2.99986
2.99998
3
3
3
2.99999
2.99979
2.99958
2.99958
2.99963
2.99966
2.99985
2.9997
3
2.99999
2.99996
2.99994
2.99995
2.99996
2.99995
2.9999
2.99993
3
3
3
3
2.99982
2.99957
2.99967
2.99991
2.99994
2.99994
3
3
2.99996
2.99989
2.99989
2.99993
2.99997
2.99987
2.9998
2.9998
2.99984
2.99992
2.99999
3
2.99976
2.99963
2.99987
2.99994
2.99993
3
3
2.99999
2.99989
2.99989
2.99989
2.99995
2.99999
2.99987
2.99978
2.99977
2.99982
2.99996
3
2.99992
2.99963
2.99982
2.99994
2.99981
3
3
3
2.99998
2.99992
2.99992
2.99998
3
3
2.99984
2.99978
2.99978
2.99987
3
2.99994
2.99964
2.9998
2.99993
2.99981
3
3
3
3
3
3
3
3
3
2.99988
2.99978
2.99978
2.99981
2.99999
2.99989
2.99964
2.99976
2.99985
2.99982
3
3
3
3
3
3
3
3
3
2.99996
2.99978
2.99978
2.99988
3
2.99989
2.99964
2.99987
2.9999
2.99999
3
3
3
3
3
3
3
3
3
3
2.99996
2.99995
2.99999
3
2.99993
2.99988
2.99997
2.99998
3
3
3
3
3
3
3
3
3
3
3
3
3
3
3
3
3
2.99999
3
3
3
3
3
3
3
3
3
3
3
3
3
3
3
3
3
3
3
3
3
3
3
3
3
3
3
3
3
3
3
3
3
3
3
3
3
3
3
3
3
3
3
3
3
3
3
3
3
3
3
3
3
3
3
3
3
3
3
3
3
3
3
3
3
3
3
3
3
3
3
3
3
3
3
3
3
3
3
3
3
3
3
3
3
3
3
3
3
3
3
3
3
3
3
3
3
3
3
3
3
3
3
3
3
3
3
3
3
3
3
3
3
3
3
3
3
3
3
3
3
3
3
3
3
3
3
3
3
3
3
3
3
3
2.99999
3
3
3
3
3
3
3
3
3
3
3
3
3
3
3
3
3
3
2.99999
3
3
3
3
3
3
3
3
3
3
3
3
3
3
3
3
3
3
2.99999
3
3
3
3
3
3
3
3
3
3
3
3
3
3
2.99999
2.99999
3
3
3
3
3
3
3
3
3
3
3
3
3
3
3
3
3
2.99999
2.99999
3
3
3
3
3
3
3
3
3
3
3
3
3
3
3
3
3
2.99999
2.99999
2.99999
3
3
3
3
3
3
3
3
3
3
3
3
3
3
3
3
3
2.99999
2.99999
2.99999
2.99999
3
3
3
3
3
3
3
3
3
3
3
3
3
3
3
3
2.99999
2.99999
3
3
3
3
3
3
3
3
3
3
3
3
3
3
3
3
3
3
3
3
3
3
3
3
3
3
3
3
3
3
3
3
3
3
3
3
3
3
3
3
3
3
3
3
3
3
3
3
3
3
3
3
3
3
3
3
3
3
3
3
3
3
3
3
3
3
3
3
3
3
3
3
3
3
3
3
3
3
3
3
3
3
3
3
3
3
3
3
3
3
3
3
3
3
3
3
3
3
3
3
3
3
3
3
3
3
3
3
3
3
3
3
3
3
3
)
;

boundaryField
{
    leftWall
    {
        type            calculated;
        value           nonuniform List<scalar> 
50
(
2
2
2
1.99986
1.83403
0.37811
0.00201019
0.00110477
0.000964233
0.00120892
0.00157467
0.0976739
0.568414
1.12627
1.08969
1.03137
2.19862
2.99865
3
3
3
3
3
3
3
3
3
3
3
3
3
3
3
3
3
3
3
3
3
3
3
3
3
3
3
3
3
3
3
3
)
;
    }
    rightWall
    {
        type            calculated;
        value           nonuniform List<scalar> 
50
(
1.96189
1.93956
1.52232
1.04173
0.547959
0.543964
0.205174
0.112895
0.141709
0.387484
0.983876
1.00407
1.00287
1.00346
1.3671
2.94737
2.99943
2.99999
2.99996
2.99957
2.99946
2.9997
2.99994
2.99993
2.99981
2.99981
2.99982
2.99999
3
3
3
3
3
3
3
3
2.99999
2.99999
2.99999
3
3
3
2.99999
3
3
3
3
3
3
3
)
;
    }
    lowerWall
    {
        type            calculated;
        value           nonuniform List<scalar> 
62
(
2
2
2
2
2
2
2
2
2
2
2
2
2
2
2
2
2
2
2
2
2
1.99995
1.99995
1.99995
1.99995
2
2
2
2.00054
2.006
1.63958
0.343062
0.359987
0.342548
0.170662
1.94319
1.8503
0.874263
0.38839
0.318788
0.0705086
0.156587
0.235805
1.94319
1.94795
1.95036
1.96187
1.96998
1.96646
1.95719
1.94825
1.94708
1.9484
1.94815
1.94809
1.94809
1.95086
1.95682
1.96659
1.96791
1.96162
1.96189
)
;
    }
    atmosphere
    {
        type            calculated;
        value           nonuniform List<scalar> 
46
(
3
3
3
3
3
3
3
3
3
3
3
3
3
3
3
3
3
3
3
3
3
3
3
3
3
3
3
3
3
3
3
3
3
3
3
3
3
3
3
3
3
3
3
3
3
3
)
;
    }
    defaultFaces
    {
        type            empty;
    }
}


// ************************************************************************* //
