/*--------------------------------*- C++ -*----------------------------------*\
| =========                 |                                                 |
| \\      /  F ield         | OpenFOAM: The Open Source CFD Toolbox           |
|  \\    /   O peration     | Version:  2312                                  |
|   \\  /    A nd           | Website:  www.openfoam.com                      |
|    \\/     M anipulation  |                                                 |
\*---------------------------------------------------------------------------*/
FoamFile
{
    version     2.0;
    format      ascii;
    arch        "LSB;label=32;scalar=64";
    class       volScalarField;
    location    "3.75";
    object      p_rgh;
}
// * * * * * * * * * * * * * * * * * * * * * * * * * * * * * * * * * * * * * //

dimensions      [1 -1 -2 0 0 0 0];

internalField   nonuniform List<scalar> 
2268
(
5053.9
5060.18
5073.07
5090.73
5112.73
5139.34
5171.68
5211.85
5262.1
5325.62
5405.6
5504.62
5623.22
5759.2
5907.82
6062.73
6217.94
6368.15
6507.22
6628.71
6726.76
6796.02
6832.28
5052.01
5058.16
5071.8
5089.76
5111.86
5138.15
5169.98
5209.56
5259.1
5321.87
5401.29
5500.17
5619.28
5756.33
5906.35
6062.63
6219.09
6370.75
6511.11
6633.66
6732.64
6802.34
6838.81
5049.22
5056.23
5069.6
5087.34
5109.53
5135.35
5166.51
5204.89
5253.01
5314.32
5392.55
5491.15
5611.28
5750.48
5903.38
6062.38
6221.22
6375.7
6518.7
6643.52
6744.28
6815.05
6852.35
5044.69
5052.33
5066.85
5085.85
5107.01
5131.94
5161.91
5198.41
5244.2
5303.02
5379.17
5477.13
5598.73
5741.32
5898.85
6062.04
6224.3
6383.15
6530.11
6658.4
6761.75
6834.13
6872.74
4779.56
4802.57
4845.4
4893.21
4940.08
4988.46
5042.14
5103.64
5175.6
5260.5
5359.61
5457.99
5582.27
5729.43
5893.12
6061.69
6227.84
6393.17
6545.04
6677.76
6784.74
6859.41
6900.26
2082.92
2131.23
2199.6
2278.26
2360.54
2449.3
2549.23
2673.56
2837.93
3072.62
3407.96
3922.86
4549
5133.43
5676.81
6049.55
6227.46
6398.98
6562.47
6701.43
6812.52
6889.49
6931.58
1269.98
1268.43
1267.95
1268.88
1271.08
1274.17
1278.07
1282.54
1287.69
1293.29
1305.45
1331.57
1494.7
2021.9
2765.84
3747.48
4910.01
5860.96
6381.73
6675.15
6817.11
6908.41
6940.5
1269.33
1268.25
1267.99
1269.03
1271.2
1273.82
1277.26
1281.16
1285.75
1290.66
1295.45
1296.36
1289.39
1281.51
1288.91
1302.58
1419.35
1988.22
3138.43
4390.03
5399.19
5886.15
6043.49
2706.15
2711.78
2732.21
2766.73
2802.83
2818.5
2809.46
2795.8
2800.09
2837.81
2897.68
2978.12
3088.54
3227.03
3320.51
3307.22
3213.91
3092.08
3013.57
2669.28
2669.15
2696.74
2739.54
2793.73
2817.9
2807.83
2780.61
2776.68
2815.61
2884.54
2971.34
3091.45
3236.61
3338.23
3327.07
3217.54
3078.21
2973.15
1781.75
1800.18
1840.93
1966.45
2090.6
2140.67
2117.99
2043.5
2064.78
2202.24
2280.95
2403.22
2590.05
2901.99
3163.09
3054.72
2733.96
2443.33
2288.96
1075.29
1074.88
1090.11
1070.09
1039.71
1033.64
1032.26
1054.14
1057.54
1056.31
1253.54
1416.2
1756.51
2185.27
2413.16
2400.35
2266.68
1942.52
1707.1
1070.2
1117.61
1117.57
1112.22
1082.87
1070.27
1073.84
1077.14
1072.23
1052.46
972.363
1018.83
1013.93
1051.7
1352.64
1487.27
1251.74
1024.18
973.357
1107.22
1115.79
1107.98
1127.74
1133.49
1126.77
1111.03
1080.35
1106.28
1035.06
962.606
1016.15
1019.96
1015.12
1000.47
991.608
1017.56
1025.51
965.569
1101.8
1091.22
1090.82
1083.59
1094.79
1084.69
1063.9
1074.84
1028.91
948.524
970.437
998.562
997.865
1007.47
994.46
991.227
1004.66
1022.55
1019.29
1100.96
1063.04
1084.61
1082.77
1077.76
1071.6
1055.25
1053.34
990.312
952.533
962.621
1042.26
1037.86
1007.55
990.617
991.973
1000.14
1027.33
1034.44
1267.64
1266.35
1266.44
1267.65
1269.49
1272.02
1275.09
1278.6
1282.67
1286.93
1283.22
1286.08
1284.88
1281.88
1278.28
1266.32
1257.06
1376.01
1361.06
1260.92
1290.45
1548.47
1805.61
1267.31
1264.19
1263.12
1263.28
1265.41
1268.49
1271.78
1274.54
1277.93
1281.83
1286.36
1291.88
1289
1281.6
1276.27
1288.23
1283.3
1259.45
1235.04
1220.7
1215.22
1209.91
1172.82
1268.33
1261.13
1251.77
1256.19
1255.41
1261.24
1262.79
1262.86
1266.73
1274.27
1280.65
1305.91
1307.74
1304.35
1302.12
1283.04
1270.37
1265.27
1257.43
1256.03
1246.88
1200.5
1069.93
1243.54
1191.62
1162.26
1136.75
1148.22
1171.89
1191.09
1196.72
1205.95
1214.5
1203.52
1220.13
1216.77
1218.99
1225.98
1238.33
1268.22
1289.22
1279.62
1269.29
1198.61
1014.36
806.366
1037.11
949.34
849.218
814.171
810.51
823.218
875.986
908.147
909.837
877.414
837.64
822.064
843.006
869.832
926.111
925.279
939.364
1043.85
1072.65
997.115
866.967
786.683
776.563
733.182
740.364
770.743
778.343
776.113
776.086
762.689
736.664
741.883
767.449
777.565
779.822
772.6
735.226
772.774
839.456
836.701
800.836
793.764
802.801
796.439
780.631
772.428
740.294
767.077
766.998
766.343
765.164
764.008
763.367
763.998
765.117
767.12
770.577
775.005
779.784
779.68
778.92
793.852
803.339
804.322
803.341
802.904
790.3
778.78
772.272
757.345
758.559
754.188
750.408
748.557
747.266
746.573
746.93
748.386
751.866
758.174
766.477
774.246
779.191
790.317
780.471
748.738
776.273
810.029
808.144
774.859
743.3
725.824
329.257
312.277
294.543
284.518
283.151
285.339
285.279
282.171
281.029
288.445
302.11
330.739
383.009
461.09
595.851
717.896
760.421
792.387
770.865
558.319
347.845
274.809
242.648
4.41167
4.99285
7.42593
9.24025
9.46687
8.03424
6.96668
8.13097
10.9368
11.7064
16.2378
23.0814
16.7379
7.40262
25.4613
50.9411
188.803
360.033
327.052
121.015
13.9763
24.3097
42.0767
0.0319924
0.0315065
0.0233474
0.0147849
0.00433495
-0.00856147
-0.025391
-0.0476399
-0.0800509
-0.113816
-0.158497
-0.209822
-0.239469
0.0425134
0.391481
0.363544
1.79973
24.7008
32.1176
22.8191
5.7034
5.51828
1.24172
0.0271437
0.025496
0.0200599
0.0129046
0.00165744
-0.0146024
-0.0336424
-0.0389287
-0.0594446
-0.105367
-0.0979659
-0.0982145
-0.0160639
-0.0271995
-0.257313
-0.444916
-0.597031
0.591409
4.09475
1.97179
0.0213351
0.0893683
0.146619
0.0188599
0.0167306
0.0130929
0.00647669
-0.00469913
-0.0220909
-0.0343623
-0.00900717
-0.0406743
-0.0776628
0.0335329
0.0952905
-0.156544
-0.323713
-0.388345
-0.468105
-0.577414
-0.69232
-0.726725
-0.544955
-0.214805
-0.0235733
0.0727767
0.0103139
0.00752661
0.00419181
-0.00148875
-0.011707
-0.0251591
-0.0360843
-0.0509955
-0.087815
-0.131537
-0.162509
-0.18576
-0.249801
-0.290354
-0.337534
-0.393183
-0.453203
-0.509864
-0.498763
-0.3654
-0.158433
-0.0451566
0.0419561
0.00305506
8.6609e-06
-0.00459847
-0.00908992
-0.0146973
-0.0287084
-0.0376962
-0.0334542
-0.0631938
-0.118295
-0.144608
-0.170722
-0.210613
-0.249513
-0.282119
-0.317412
-0.347941
-0.356783
-0.31797
-0.220303
-0.0872878
0.0265834
0.0993944
-0.00261629
-0.00560679
-0.0102544
-0.0167079
-0.0216033
-0.0318791
-0.0136659
0.0279275
0.00984998
-0.037804
-0.0592239
-0.0614098
-0.108555
-0.180352
-0.211623
-0.229315
-0.247533
-0.236692
-0.147875
-0.0532515
0.0367872
0.0946717
0.139034
-0.00692823
-0.00984353
-0.0142901
-0.0201419
-0.0275875
-0.0363171
-0.0215567
0.0343803
0.0191116
-0.0120863
-0.0134446
-0.026518
-0.0236478
-0.0252814
-0.0857776
-0.118028
-0.144246
-0.133513
-0.0952503
-0.0102851
0.0367586
0.0615896
0.0625742
-0.0101629
-0.0129309
-0.0172266
-0.0233071
-0.0313605
-0.0410184
-0.0524082
-0.0614314
-0.0729356
-0.0994308
-0.115152
-0.11373
-0.0854669
-0.082668
-0.106092
-0.121938
-0.138295
-0.132276
-0.11
-0.0825238
-0.0535043
-0.0318324
-0.00799421
-0.0125889
-0.0151949
-0.0192098
-0.0250167
-0.0322717
-0.0411476
-0.0516964
-0.0633125
-0.0755402
-0.0880136
-0.100435
-0.11137
-0.121289
-0.12843
-0.130874
-0.133595
-0.131188
-0.119169
-0.101186
-0.0798636
-0.0569058
-0.0359608
-0.0171869
-0.0143825
-0.0168097
-0.0204896
-0.0256883
-0.032183
-0.0398462
-0.048512
-0.0579634
-0.0678694
-0.0779239
-0.0877126
-0.096837
-0.10462
-0.110118
-0.112578
-0.111291
-0.105957
-0.0962894
-0.0826765
-0.0663991
-0.0490394
-0.032276
-0.0170264
-0.0156391
-0.0178935
-0.0212313
-0.0258668
-0.0315383
-0.0381025
-0.0453781
-0.0531572
-0.0611705
-0.0691416
-0.0767319
-0.0835174
-0.088972
-0.0925104
-0.0935857
-0.0917554
-0.0868273
-0.078956
-0.0683944
-0.0559515
-0.0425899
-0.0293374
-0.0170104
-0.01642
-0.0185192
-0.0215363
-0.0256566
-0.0306095
-0.036237
-0.0423556
-0.048763
-0.0552272
-0.0615045
-0.067311
-0.0723101
-0.0761144
-0.0783152
-0.078549
-0.0765439
-0.0722225
-0.0657866
-0.0574391
-0.0477014
-0.037213
-0.0266349
-0.0166279
-0.0168318
-0.0187766
-0.0214902
-0.0251421
-0.029463
-0.0342827
-0.0394122
-0.0446657
-0.0498469
-0.0547523
-0.0591581
-0.0628103
-0.0654285
-0.0667323
-0.0664826
-0.0645229
-0.0608397
-0.0554846
-0.0487733
-0.0410132
-0.0326321
-0.0240924
-0.0158843
-0.0169577
-0.0187625
-0.021203
-0.0244356
-0.0281957
-0.0323073
-0.0365887
-0.0408693
-0.0449857
-0.0487784
-0.0520818
-0.054712
-0.0564716
-0.0571676
-0.05664
-0.0547926
-0.0516114
-0.0471863
-0.0417309
-0.0354572
-0.0286631
-0.0216798
-0.0148744
-0.0168914
-0.0185704
-0.0207655
-0.0236256
-0.0268918
-0.0303873
-0.0339381
-0.0373932
-0.040623
-0.0435117
-0.0459441
-0.0477938
-0.0489249
-0.0492045
-0.0485236
-0.0468189
-0.0440876
-0.0403935
-0.0358963
-0.0307638
-0.0251896
-0.0194167
-0.0137193
-0.0167166
-0.0182875
-0.0202639
-0.0227927
-0.0256224
-0.028577
-0.0314932
-0.0342426
-0.03673
-0.0388807
-0.040622
-0.0418709
-0.0425354
-0.042525
-0.041764
-0.0402073
-0.0378542
-0.0347507
-0.0310042
-0.0267546
-0.0221342
-0.0173172
-0.0125106
-0.0165135
-0.0179847
-0.0197651
-0.0219958
-0.0244352
-0.0269085
-0.0292668
-0.0314061
-0.0332669
-0.0348116
-0.0360011
-0.0367841
-0.037099
-0.0368834
-0.0360841
-0.0346673
-0.032629
-0.0300026
-0.0268557
-0.0232988
-0.0194361
-0.0153868
-0.0113061
-0.0163403
-0.0177194
-0.0193149
-0.0212706
-0.0233545
-0.0253908
-0.0272522
-0.0288597
-0.0301887
-0.031233
-0.0319793
-0.0323985
-0.0324494
-0.0320876
-0.0312736
-0.0299814
-0.0282046
-0.0259632
-0.0233049
-0.020303
-0.0170465
-0.0136205
-0.0101376
-0.0162358
-0.0175219
-0.0189311
-0.0206283
-0.0223813
-0.0240171
-0.0254278
-0.0265686
-0.0274462
-0.0280775
-0.0284675
-0.0286016
-0.0284515
-0.0279844
-0.0271699
-0.0259861
-0.0244254
-0.0224983
-0.0202363
-0.0176899
-0.0149256
-0.0120113
-0.00902676
-0.0161653
-0.0173797
-0.0185885
-0.0199336
-0.0212473
-0.0226824
-0.0237663
-0.0244954
-0.0249898
-0.0252811
-0.0253853
-0.0252966
-0.0249937
-0.024451
-0.0236441
-0.0225542
-0.0211722
-0.0195023
-0.0175643
-0.0153934
-0.0130379
-0.0105485
-0.00798368
-0.0159579
-0.0171739
-0.0181422
-0.0187061
-0.0191645
-0.0211485
-0.022223
-0.0226081
-0.0227725
-0.0227825
-0.0226593
-0.0223983
-0.0219815
-0.0213864
-0.0205924
-0.0195836
-0.0183505
-0.016893
-0.0152225
-0.0133631
-0.0113482
-0.00921875
-0.00701367
-0.0157416
-0.0169091
-0.0176563
-0.0173855
-0.017745
-0.0183707
-0.0184803
-0.0206933
-0.0207515
-0.0205253
-0.0202214
-0.0198303
-0.0193322
-0.0187049
-0.0179293
-0.016992
-0.0158846
-0.0146046
-0.013158
-0.0115605
-0.00983524
-0.00801082
-0.00611482
-0.0154123
-0.0165991
-0.0167131
-0.0161908
-0.0161791
-0.0140673
-0.0136604
-0.0165905
-0.0188721
-0.0184519
-0.0180082
-0.0175235
-0.0169731
-0.0163325
-0.0155821
-0.0147104
-0.0137114
-0.0125824
-0.0113259
-0.00995149
-0.00847515
-0.00691385
-0.0052882
-0.0150059
-0.0161105
-0.0158131
-0.0152312
-0.0148331
-0.0125054
-0.0121133
-0.0135951
-0.0170756
-0.016501
-0.0159597
-0.0154161
-0.0148405
-0.0142047
-0.0134881
-0.0126806
-0.0117783
-0.0107804
-0.0096881
-0.00850668
-0.00724682
-0.00591582
-0.0045295
-0.0140874
-0.0152692
-0.0147832
-0.014647
-0.0149114
-0.0144196
-0.0108563
-0.0156895
-0.015277
-0.014619
-0.0140249
-0.0134575
-0.0128819
-0.0122677
-0.0115944
-0.0108525
-0.0100401
-0.00915915
-0.00821153
-0.00719966
-0.00612695
-0.00500384
-0.00383418
-0.0129255
-0.0140188
-0.0138179
-0.0136008
-0.0154887
-0.0149706
-0.0133141
-0.0140506
-0.0134042
-0.0127701
-0.0121713
-0.0116129
-0.0110588
-0.0104802
-0.00985811
-0.00918446
-0.00845876
-0.00768531
-0.00686828
-0.00600921
-0.00510828
-0.00416984
-0.00319571
-0.0113568
-0.0120697
-0.0127764
-0.0133357
-0.0137845
-0.0132098
-0.0126313
-0.0121601
-0.011568
-0.0109499
-0.0103883
-0.00986544
-0.00934871
-0.00881446
-0.00824829
-0.00764442
-0.0070036
-0.00633137
-0.00563441
-0.00491519
-0.00417136
-0.00340275
-0.00260915
-0.00950099
-0.00992915
-0.0107278
-0.0114335
-0.0115149
-0.0109857
-0.0107297
-0.0102761
-0.00971284
-0.00917322
-0.00868297
-0.00821346
-0.00774275
-0.00725612
-0.00674585
-0.00621014
-0.00565142
-0.00507556
-0.00449041
-0.00390063
-0.00330266
-0.00269277
-0.00206679
-0.00737702
-0.00760473
-0.0083903
-0.00896091
-0.00892966
-0.0086572
-0.00867847
-0.00832252
-0.00788772
-0.00747214
-0.00707239
-0.00666493
-0.00624198
-0.00580078
-0.0053419
-0.00486874
-0.00438629
-0.00390101
-0.00342074
-0.00295185
-0.00249157
-0.00203059
-0.0015621
-0.00570325
-0.00547893
-0.00601802
-0.00625446
-0.00628627
-0.00652163
-0.00653926
-0.006391
-0.00615029
-0.00587239
-0.00556826
-0.00522541
-0.00484922
-0.00444929
-0.00403499
-0.00361563
-0.00320002
-0.00279658
-0.0024134
-0.00205699
-0.00172682
-0.00140737
-0.00108654
-0.00355166
-0.00339422
-0.00361112
-0.00357488
-0.0038104
-0.00423429
-0.00447166
-0.00454367
-0.0045008
-0.00436739
-0.00415854
-0.00388241
-0.00355444
-0.0031951
-0.00282164
-0.00244903
-0.00209036
-0.00175751
-0.00146121
-0.00120967
-0.00100502
-0.000818506
-0.000634889
-0.00121289
-0.00119957
-0.00112172
-0.00104606
-0.00157458
-0.00212767
-0.00254217
-0.002814
-0.00295157
-0.00295294
-0.00283082
-0.00261431
-0.00233166
-0.00201238
-0.00167996
-0.00135338
-0.00104817
-0.000777863
-0.000555151
-0.000393105
-0.000302534
-0.000249751
-0.000198611
2074.37
2052.89
2060.25
1533.41
1145.69
1093.53
1072.33
1112.53
944.4
951.393
966.813
923.476
790.466
783.663
782.587
793.255
772.792
771.874
788.234
787.794
768.328
765.931
772.765
783.988
765.413
770.802
772.78
805.521
715.138
700.854
695.541
702.508
219.219
225.908
209.024
200.645
41.2371
33.9099
29.9585
34.0248
0.500464
0.208246
0.198314
0.171018
0.152453
0.145542
0.140688
0.135753
0.084864
0.0881772
0.0935767
0.0970273
0.0606538
0.0581616
0.0567378
0.0621524
0.125482
0.08527
0.0393735
0.0402016
0.139876
0.0968519
0.0286087
0.0288511
0.0573348
0.0335023
0.0225269
0.0224349
0.00302095
0.0119528
0.0125809
0.0167871
-0.0058586
0.000779065
0.0072835
0.0121168
-0.00744333
-0.00178987
0.00340763
0.00794525
-0.00895796
-0.0041076
0.000385548
0.00447581
-0.00988772
-0.00575251
-0.001882
0.00177151
-0.0102162
-0.00669624
-0.00334525
-0.000131045
-0.0100788
-0.00707128
-0.00417952
-0.00136692
-0.00963882
-0.00706221
-0.00456209
-0.002106
-0.00902321
-0.00680873
-0.00464361
-0.0024987
-0.00831274
-0.00640341
-0.00452528
-0.00265308
-0.00756112
-0.00591207
-0.0042807
-0.00264707
-0.00680262
-0.00537529
-0.00395809
-0.00253449
-0.0060622
-0.0048269
-0.00359541
-0.00235632
-0.00535306
-0.00428343
-0.00321516
-0.00213967
-0.00468306
-0.00376033
-0.00283619
-0.00190591
-0.0040576
-0.00326385
-0.00246858
-0.00166833
-0.00347939
-0.00280202
-0.00212176
-0.00143783
-0.00294687
-0.00237383
-0.00179825
-0.00121968
-0.00245769
-0.00198104
-0.00150072
-0.00101785
-0.00200828
-0.00161955
-0.00122746
-0.000832498
-0.00159402
-0.00128783
-0.0009771
-0.000663278
-0.00120863
-0.000978903
-0.000744919
-0.000507087
-0.000845691
-0.00068893
-0.000527256
-0.000361414
-0.000497775
-0.000408255
-0.000315105
-0.000217683
-0.000162394
-0.000139262
-0.000113294
-8.32616e-05
1331.14
1045.13
997.917
1027.69
1075.93
1056.97
1026.02
988.114
978.78
1091.98
1074.04
1044.44
1058.7
1020.57
1004.15
993.099
990.775
1051.27
1055.6
1097.36
992.208
893.644
899.175
927.64
951.848
889.543
897.733
868.96
891.059
900.35
879.011
868.989
865.613
809.726
789.545
827.244
927.97
1022.03
857.524
797.125
815.652
870.618
850.633
811.068
824.458
830.982
773.642
752.932
848.26
876.851
764.881
745.601
801.875
807.696
811.133
766.266
793.497
785.691
752.591
783.405
800.09
794.84
833.137
843.063
831.317
749.279
780.445
757.451
745.404
719.69
714.12
728.364
727.471
712.155
718.158
714.384
796.973
758.193
753.104
745.078
709.881
742.448
738.679
656.325
676.258
720.249
702.109
702.584
691.675
687.067
682.472
661.808
644.037
713.626
711.54
833.234
760.643
750.465
743.441
735.679
721.347
718.131
717.448
711.276
701.83
696.031
688.203
685.078
683.075
675.252
649.143
657.162
743.628
693.805
842.841
763.112
749.031
744.544
739.598
731.802
737.894
746.687
718.586
664.135
607.26
566.846
528.173
490.604
468.58
505.285
529.426
436.262
565.968
684.518
728.276
700.422
692.655
671.914
624.705
508.912
371.789
266.881
193.531
134.262
86.6496
73.0503
107.83
136.324
131.483
105.244
116.063
54.2912
193.595
190.364
195.382
184.714
145.07
94.9831
63.5776
51.1753
24.7537
5.63414
4.47105
11.8387
16.1707
20.2861
11.0409
0.355324
0.346697
0.345142
10.4247
24.1677
19.2983
20.0897
18.9916
18.3634
8.93772
3.10053
0.718353
0.464127
0.355176
0.214678
0.256129
0.265052
0.253031
0.251734
0.289745
0.324454
0.358898
0.320076
0.149031
0.129464
0.170307
1.69477
0.660088
0.186168
0.16943
0.253163
0.26928
0.235102
0.279523
0.337669
0.346859
0.303377
0.283545
0.315471
0.417184
0.4108
0.305707
0.126155
0.11142
0.102684
0.0855895
0.104509
0.32255
0.36542
0.358267
0.259507
0.208609
0.249306
0.321055
0.330189
0.296206
0.319268
0.809607
0.979692
0.931339
0.662355
0.108416
0.104249
0.0946514
0.12965
0.284399
0.479822
0.329885
0.220745
0.127706
0.120916
0.130206
0.22931
0.326023
0.340811
0.553696
0.925747
0.963474
0.951689
0.911155
0.0739937
0.0959798
0.0961616
0.118624
0.359897
0.409536
0.264788
0.0977048
0.0929933
0.0995507
0.103449
0.109509
0.223452
0.346484
0.458182
0.771837
0.746601
0.274163
0.328701
0.0477922
0.057477
0.0853204
0.106425
0.18109
0.303589
0.201652
0.14658
0.131839
0.0894921
0.0927407
0.0921791
0.088143
0.197907
0.348731
0.294133
0.170936
0.169911
0.184707
0.0357089
0.0415987
0.0700342
0.120034
0.114029
0.149643
0.178539
0.200446
0.247751
0.239605
0.202644
0.133977
0.0878508
0.0800076
0.230245
0.332161
0.190608
0.171476
0.305905
0.0290415
0.0355789
0.0441727
0.10789
0.109188
0.127005
0.137934
0.132609
0.245928
0.296103
0.264127
0.211828
0.105557
0.0798705
0.131381
0.337066
0.226739
0.227024
0.400649
0.0241075
0.0314137
0.0342851
0.0512179
0.0964517
0.0893018
0.0559809
0.116288
0.133207
0.267747
0.291532
0.273633
0.176512
0.0771798
0.120425
0.339712
0.279334
0.429146
0.403673
0.019504
0.0272997
0.0312583
0.033628
0.0384162
0.038127
0.0402921
0.057582
0.131191
0.225506
0.30051
0.264621
0.232247
0.0805597
0.160943
0.347321
0.459967
0.491614
0.313019
0.0148427
0.0224908
0.0273638
0.0302752
0.0325326
0.0353574
0.0385984
0.0581916
0.0857906
0.125112
0.263913
0.252037
0.164495
0.0669657
0.156123
0.344235
0.481008
0.413164
0.0835614
0.010733
0.0175759
0.0228263
0.0264514
0.0295531
0.0344733
0.0404492
0.0448088
0.0414621
0.0413878
0.0745785
0.094558
0.060878
0.0587734
0.116103
0.150403
0.399813
0.156376
0.0732521
0.00744754
0.0138049
0.018826
0.0228269
0.0263224
0.0298722
0.0325633
0.0340253
0.0339849
0.0344699
0.0355441
0.0390441
0.045663
0.05256
0.0547624
0.0918754
0.326694
0.111191
0.0690866
0.00494691
0.0108202
0.015676
0.0196886
0.0229976
0.0257255
0.0280253
0.0297664
0.0310981
0.0322098
0.0334966
0.0360258
0.0405788
0.0482809
0.0488251
0.143416
0.207667
0.0959329
0.0643671
0.00313224
0.00848199
0.013059
0.0169402
0.0202015
0.0229434
0.0252648
0.0271649
0.0287283
0.0301407
0.031776
0.0342835
0.0376796
0.043456
0.0453484
0.0884226
0.071225
0.0598272
0.0613569
0.0018615
0.00669552
0.0109389
0.0146191
0.0177819
0.0204922
0.022813
0.0247966
0.0265321
0.0282026
0.0300499
0.0324844
0.0356109
0.0388857
0.0426222
0.0454667
0.0500645
0.0546135
0.0577396
0.000992688
0.00533865
0.00923489
0.0126828
0.0157059
0.0183452
0.0206503
0.0226776
0.0245241
0.0263249
0.0282777
0.0306301
0.033467
0.0364699
0.0407237
0.0437828
0.0465396
0.0505992
0.0531891
0.000414336
0.00430693
0.00785938
0.0110593
0.0139158
0.0164547
0.0187148
0.0207475
0.0226306
0.0244763
0.0264314
0.0286608
0.031221
0.0340088
0.0377211
0.0405072
0.0436126
0.0466614
0.0489255
4.43651e-05
0.00351994
0.00674063
0.00968717
0.0123593
0.014772
0.016954
0.0189477
0.0208132
0.0226329
0.0245138
0.0265798
0.0288693
0.0313279
0.0346193
0.0375489
0.0404788
0.0423739
0.0461265
-0.000177457
0.00291611
0.0058211
0.00851547
0.0109927
0.0132599
0.0153365
0.017255
0.0190611
0.0208121
0.0225786
0.0244466
0.0264746
0.0286025
0.0315579
0.0349542
0.0367139
0.0379145
0.0480283
-0.000296215
0.00244785
0.00505469
0.00750194
0.00977919
0.0118873
0.0138383
0.0156552
0.0173711
0.0190266
0.0206655
0.022341
0.0241024
0.0259386
0.0281867
0.03275
0.0341851
0.033808
0.0439268
-0.000344971
0.00207866
0.00440491
0.00661224
0.0086881
0.0106289
0.0124403
0.014137
0.0157421
0.0172842
0.0187925
0.0202969
0.0218576
0.0236314
0.0253312
0.0292849
0.0382628
0.0342478
0.0438678
-0.000348521
0.00178081
0.00384324
0.00581915
0.00769495
0.00946393
0.0111267
0.0126916
0.0141736
0.0155927
0.016969
0.0183188
0.0196999
0.0220856
0.0313331
0.0356618
0.035173
0.0359312
0.0420159
-0.0003247
0.0015333
0.00334787
0.00510147
0.00678037
0.00837586
0.00988475
0.0113101
0.0126612
0.0139519
0.0151956
0.0163977
0.017603
0.0202913
0.0358064
0.0373565
0.0332908
0.0330825
0.0338821
-0.000286939
0.00132048
0.00290215
0.00444294
0.00592951
0.00735179
0.00870386
0.00998488
0.0111997
0.0123591
0.013474
0.0145415
0.0155698
0.0170403
0.0273892
0.0349464
0.0365283
0.0312676
0.0273083
-0.000244096
0.001131
0.00249374
0.00383124
0.00513076
0.00638158
0.00757583
0.00870957
0.00978366
0.0108062
0.011794
0.012762
0.0136668
0.0145657
0.0163888
0.0320061
0.0337555
0.0357389
0.0248695
-0.000202115
0.000956995
0.00211362
0.00325696
0.00437502
0.00545687
0.00649357
0.00747913
0.00841137
0.00929418
0.0101406
0.0109964
0.0118391
0.0125469
0.0132984
0.016688
0.0271259
0.0242138
0.0169316
-0.000164033
0.00079318
0.00175511
0.00271264
0.00365457
0.00457016
0.00545016
0.0062876
0.00707825
0.00782177
0.00852463
0.00922082
0.00997324
0.010641
0.0111192
0.0116843
0.0128755
0.011951
0.0125623
-0.000131168
0.000636277
0.00141327
0.00219205
0.00296226
0.00371389
0.0044381
0.0051279
0.00577808
0.00638613
0.00695292
0.00749174
0.00806931
0.00871063
0.00916297
0.00932014
0.00942143
0.00967285
0.00989538
-0.000102926
0.000484498
0.00108423
0.00168949
0.00229103
0.00288004
0.00344894
0.00399134
0.00450225
0.00497801
0.00541695
0.00582121
0.00621755
0.00671255
0.00722746
0.00744372
0.00736045
0.00747712
0.00792979
-7.81713e-05
0.000336657
0.000764363
0.00119907
0.0016331
0.00205946
0.00247241
0.00286705
0.00323926
0.0035852
0.00390131
0.00418594
0.00444415
0.00473029
0.00518048
0.00548115
0.00554511
0.00553047
0.0057437
-5.09747e-05
0.000195642
0.00045299
0.00071652
0.000981473
0.00124299
0.00149716
0.00174113
0.00197226
0.0021876
0.00238239
0.00255277
0.00269666
0.00282457
0.00301917
0.00338882
0.00349672
0.00352011
0.00336311
-2.97157e-05
5.16282e-05
0.000140799
0.00023483
0.000329452
0.000423081
0.000515213
0.000605251
0.000692562
0.000775119
0.000849648
0.000908165
0.000939932
0.000937282
0.000913869
0.000931632
0.00108008
0.00108262
0.000830691
)
;

boundaryField
{
    leftWall
    {
        type            fixedFluxPressure;
        gradient        uniform 0;
        value           nonuniform List<scalar> 
50
(
5053.9
5052.01
5049.22
5044.69
4779.56
2082.92
1269.98
1269.33
1267.64
1267.31
1268.33
1243.54
1037.11
733.182
740.294
757.345
329.257
4.41167
0.0319924
0.0271437
0.0188599
0.0103139
0.00305506
-0.00261629
-0.00692823
-0.0101629
-0.0125889
-0.0143825
-0.0156391
-0.01642
-0.0168318
-0.0169577
-0.0168914
-0.0167166
-0.0165135
-0.0163403
-0.0162358
-0.0161653
-0.0159579
-0.0157416
-0.0154123
-0.0150059
-0.0140874
-0.0129255
-0.0113568
-0.00950099
-0.00737702
-0.00570325
-0.00355166
-0.00121289
)
;
    }
    rightWall
    {
        type            fixedFluxPressure;
        gradient        uniform 0;
        value           nonuniform List<scalar> 
50
(
3013.57
2973.15
2288.96
1707.1
973.357
965.569
1019.29
1034.44
1055.6
1022.03
793.497
714.384
711.54
693.805
565.968
54.2912
10.4247
0.320076
0.305707
0.662355
0.911155
0.328701
0.184707
0.305905
0.400649
0.403673
0.313019
0.0835614
0.0732521
0.0690866
0.0643671
0.0613569
0.0577396
0.0531891
0.0489255
0.0461265
0.0480283
0.0439268
0.0438678
0.0420159
0.0338821
0.0273083
0.0248695
0.0169316
0.0125623
0.00989538
0.00792979
0.0057437
0.00336311
0.000830691
)
;
    }
    lowerWall
    {
        type            fixedFluxPressure;
        gradient        uniform 0;
        value           nonuniform List<scalar> 
62
(
5053.9
5060.18
5073.07
5090.73
5112.73
5139.34
5171.68
5211.85
5262.1
5325.62
5405.6
5504.62
5623.22
5759.2
5907.82
6062.73
6217.94
6368.15
6507.22
6628.71
6726.76
6796.02
6832.28
6832.28
6838.81
6852.35
6872.74
6900.26
6931.58
6940.5
6043.49
2074.37
2052.89
2060.25
1533.41
2706.15
2669.28
1781.75
1075.29
1070.2
1107.22
1101.8
1100.96
2706.15
2711.78
2732.21
2766.73
2802.83
2818.5
2809.46
2795.8
2800.09
2837.81
2897.68
2978.12
3088.54
3227.03
3320.51
3307.22
3213.91
3092.08
3013.57
)
;
    }
    atmosphere
    {
        type            totalPressure;
        rho             rho;
        psi             none;
        gamma           1;
        p0              uniform 0;
        value           nonuniform List<scalar> 
46
(
0
0
0
-8.80314e-05
-0.000718272
-0.00134615
-0.00181236
-0.00213757
-0.00233036
-0.00236915
-0.00226301
-0.00205244
-0.00177575
-0.00146615
-0.00114917
-0.000844276
-0.000566346
-0.000327726
-0.000141225
-2.56744e-05
0
0
0
0
0
0
0
0
0
0
0
0
0
0
0
0
0
0
0
0
0
0
0
0
0
0
)
;
    }
    defaultFaces
    {
        type            empty;
    }
}


// ************************************************************************* //
