/*--------------------------------*- C++ -*----------------------------------*\
| =========                 |                                                 |
| \\      /  F ield         | OpenFOAM: The Open Source CFD Toolbox           |
|  \\    /   O peration     | Version:  2312                                  |
|   \\  /    A nd           | Website:  www.openfoam.com                      |
|    \\/     M anipulation  |                                                 |
\*---------------------------------------------------------------------------*/
FoamFile
{
    version     2.0;
    format      ascii;
    arch        "LSB;label=32;scalar=64";
    class       surfaceScalarField;
    location    "3.75";
    object      phi;
}
// * * * * * * * * * * * * * * * * * * * * * * * * * * * * * * * * * * * * * //

dimensions      [0 3 -1 0 0 0 0];

oriented        oriented;

internalField   nonuniform List<scalar> 
4432
(
7.19312e-07
-7.19322e-07
8.3893e-07
-1.19628e-07
8.86766e-07
-4.78459e-08
8.71936e-07
1.48215e-08
7.91277e-07
8.06517e-08
6.18842e-07
1.7243e-07
3.61948e-07
2.5689e-07
3.51042e-08
3.26842e-07
-3.37457e-07
3.7256e-07
-7.30217e-07
3.92759e-07
-1.13282e-06
4.02601e-07
-1.54607e-06
4.13248e-07
-1.99882e-06
4.52751e-07
-2.47097e-06
4.72155e-07
-2.90829e-06
4.37313e-07
-3.26663e-06
3.58346e-07
-3.54154e-06
2.74901e-07
-3.66674e-06
1.25188e-07
-3.50648e-06
-1.60262e-07
-3.0351e-06
-4.71387e-07
-2.33236e-06
-7.02755e-07
-1.41491e-06
-9.17462e-07
-1.41491e-06
-1.80358e-08
-7.01294e-07
2.98143e-08
-1.67486e-07
7.89708e-08
-9.70102e-08
1.09676e-07
-1.58904e-08
1.0001e-07
9.0311e-08
-4.5129e-09
2.76947e-07
-2.00329e-07
4.52701e-07
-4.64668e-07
5.91178e-07
-7.83598e-07
6.91487e-07
-1.12848e-06
7.37637e-07
-1.48593e-06
7.60055e-07
-1.85583e-06
7.83145e-07
-2.27632e-06
8.73242e-07
-2.72533e-06
9.21166e-07
-3.14792e-06
8.59897e-07
-3.50132e-06
7.1174e-07
-3.7587e-06
5.3228e-07
-3.8774e-06
2.43876e-07
-3.68925e-06
-3.48424e-07
-3.20074e-06
-9.59902e-07
-2.43462e-06
-1.4689e-06
-1.43805e-06
-1.91405e-06
-2.85298e-06
-3.14982e-07
-3.86324e-07
-3.46567e-07
-1.3591e-07
-3.33002e-07
-1.10584e-07
-3.00448e-07
-4.84508e-08
-3.31692e-07
1.2155e-07
-4.28879e-07
3.74131e-07
-6.10659e-07
6.34478e-07
-8.61875e-07
8.42393e-07
-1.16085e-06
9.90463e-07
-1.49121e-06
1.06799e-06
-1.82933e-06
1.09818e-06
-2.16369e-06
1.1175e-06
-2.56622e-06
1.27577e-06
-3.01056e-06
1.36549e-06
-3.41438e-06
1.26372e-06
-3.72579e-06
1.02314e-06
-3.99673e-06
8.03215e-07
-4.13317e-06
3.80306e-07
-3.89834e-06
-5.83263e-07
-3.34076e-06
-1.5175e-06
-2.49683e-06
-2.31283e-06
-1.39859e-06
-3.01231e-06
-4.25157e-06
-3.56349e-07
-2.99824e-08
-4.46767e-07
-4.55004e-08
-4.57852e-07
-9.95063e-08
-4.48645e-07
-5.76636e-08
-4.74431e-07
1.47329e-07
-5.98688e-07
4.98382e-07
-7.9772e-07
8.33505e-07
-1.06418e-06
1.10885e-06
-1.38859e-06
1.31487e-06
-1.75838e-06
1.43778e-06
-2.13475e-06
1.47455e-06
-2.49449e-06
1.47723e-06
-2.92762e-06
1.70889e-06
-3.39519e-06
1.83306e-06
-3.76939e-06
1.63792e-06
-4.05553e-06
1.30928e-06
-4.30133e-06
1.04902e-06
-4.44224e-06
5.21208e-07
-4.19153e-06
-8.33978e-07
-3.52265e-06
-2.18639e-06
-2.59039e-06
-3.2451e-06
-1.39763e-06
-4.20506e-06
-5.64921e-06
-1.31743e-07
1.01744e-07
-9.69723e-08
-8.02849e-08
-2.4468e-08
-1.7202e-07
1.32621e-08
-9.53989e-08
-5.27894e-08
2.13378e-07
-1.83578e-07
6.29172e-07
-3.85206e-07
1.03513e-06
-6.82552e-07
1.4062e-06
-1.09191e-06
1.72423e-06
-1.62221e-06
1.96808e-06
-2.25419e-06
2.10653e-06
-2.80323e-06
2.02626e-06
-3.39987e-06
2.30554e-06
-4.01056e-06
2.44375e-06
-4.42508e-06
2.05244e-06
-4.65384e-06
1.53805e-06
-4.87749e-06
1.27266e-06
-5.07865e-06
7.22362e-07
-4.72506e-06
-1.18758e-06
-3.90107e-06
-3.01037e-06
-2.83749e-06
-4.30869e-06
-1.52133e-06
-5.52123e-06
-7.17054e-06
4.23249e-07
-3.21584e-07
5.65061e-07
-2.22161e-07
7.58311e-07
-3.65323e-07
9.72948e-07
-3.10078e-07
1.08715e-06
9.91411e-08
1.03059e-06
6.85709e-07
8.20038e-07
1.24566e-06
5.3212e-07
1.69409e-06
1.93106e-07
2.06322e-06
-2.62511e-07
2.42368e-06
-8.56295e-07
2.7003e-06
-1.68898e-06
2.85892e-06
-2.82824e-06
3.44479e-06
-3.73182e-06
3.34733e-06
-4.6826e-06
3.00322e-06
-5.54985e-06
2.4053e-06
-6.1142e-06
1.83701e-06
-6.37917e-06
9.87331e-07
-5.92371e-06
-1.64303e-06
-4.83567e-06
-4.0984e-06
-3.47031e-06
-5.67405e-06
-1.83265e-06
-7.15889e-06
-9.00319e-06
2.73426e-06
-3.05595e-06
3.7473e-06
-1.23531e-06
4.55499e-06
-1.1731e-06
5.66051e-06
-1.41568e-06
7.17469e-06
-1.41511e-06
8.78078e-06
-9.20434e-07
1.02093e-05
-1.82913e-07
1.13408e-05
5.62581e-07
1.21938e-05
1.21015e-06
1.21602e-05
2.45725e-06
1.04141e-05
4.44637e-06
5.61979e-06
7.65315e-06
-7.17809e-07
9.78236e-06
-4.22665e-06
6.85615e-06
-5.43582e-06
4.21237e-06
-5.80557e-06
2.77503e-06
-5.79785e-06
1.82929e-06
-5.99834e-06
1.18782e-06
-5.83632e-06
-1.80505e-06
-5.12951e-06
-4.8052e-06
-3.76746e-06
-7.0361e-06
-2.01823e-06
-8.90813e-06
-1.10214e-05
1.68184e-06
-4.7379e-06
2.39529e-06
-1.94884e-06
2.73877e-06
-1.51665e-06
3.42534e-06
-2.1023e-06
4.70508e-06
-2.69488e-06
6.28854e-06
-2.50393e-06
7.9197e-06
-1.8141e-06
9.45882e-06
-9.76565e-07
1.11376e-05
-4.68647e-07
1.27405e-05
8.54339e-07
1.3874e-05
3.31286e-06
1.4959e-05
6.56809e-06
1.61472e-05
8.59417e-06
1.57523e-05
7.25104e-06
1.41479e-05
5.8167e-06
9.32795e-06
7.59497e-06
2.07106e-06
9.08616e-06
-2.34777e-06
5.60664e-06
-3.28411e-06
-8.68706e-07
-2.91541e-06
-5.17391e-06
-2.03462e-06
-7.91689e-06
-5.20946e-07
-1.04218e-05
-1.15424e-05
9.88321e-07
-9.88323e-07
1.60997e-06
-6.21647e-07
2.06795e-06
-4.57987e-07
2.81069e-06
-7.42734e-07
3.65181e-06
-8.4112e-07
4.0796e-06
-4.27786e-07
4.12112e-06
-4.15178e-08
3.80204e-06
3.19078e-07
3.59535e-06
2.06695e-07
3.87675e-06
-2.81403e-07
3.86797e-06
8.78444e-09
3.49748e-06
3.70493e-07
3.39488e-06
1.02604e-07
4.39197e-06
-9.97088e-07
5.59736e-06
-1.2054e-06
5.68606e-06
-8.86918e-08
4.66238e-06
1.02368e-06
2.68365e-06
1.97872e-06
2.68365e-06
1.01813e-06
-2.00646e-06
1.83695e-06
-1.44047e-06
2.77305e-06
-1.39409e-06
3.81617e-06
-1.78586e-06
4.71509e-06
-1.74005e-06
5.22342e-06
-9.36116e-07
5.43684e-06
-2.54937e-07
5.21563e-06
5.40298e-07
5.11289e-06
3.0943e-07
5.48606e-06
-6.54565e-07
5.49514e-06
-2.96687e-10
4.99459e-06
8.71048e-07
4.42637e-06
6.70828e-07
4.8743e-06
-1.44501e-06
5.70704e-06
-2.03814e-06
5.67883e-06
-6.048e-08
4.68359e-06
2.01893e-06
2.69949e-06
3.96282e-06
5.38314e-06
-1.49066e-07
-1.8574e-06
8.00924e-07
-2.39045e-06
2.72186e-06
-3.31501e-06
4.11987e-06
-3.18387e-06
4.73848e-06
-2.35865e-06
4.88283e-06
-1.08046e-06
4.60735e-06
2.05516e-08
5.04822e-06
9.9439e-08
5.42413e-06
-6.64721e-08
4.28844e-06
4.81137e-07
3.84508e-06
4.43063e-07
3.58384e-06
1.13229e-06
3.79944e-06
4.55224e-07
4.82331e-06
-2.46888e-06
5.4846e-06
-2.69943e-06
5.90166e-06
-4.77541e-07
6.01863e-06
1.90197e-06
3.96186e-06
6.01959e-06
9.345e-06
-3.65371e-06
1.79629e-06
-2.53682e-06
-3.50736e-06
3.42731e-06
-9.27914e-06
5.98372e-06
-5.74027e-06
4.20372e-06
-5.78637e-07
2.20668e-06
9.16603e-07
2.00563e-06
2.21611e-07
6.50192e-06
-4.39683e-06
1.07302e-05
-4.29475e-06
5.63457e-06
5.57679e-06
1.61927e-06
4.45838e-06
2.79366e-06
-4.20864e-08
4.39191e-06
-1.14301e-06
5.22457e-06
-3.30153e-06
5.70074e-06
-3.17561e-06
6.48111e-06
-1.25792e-06
7.00784e-06
1.37525e-06
4.82986e-06
8.19757e-06
1.41749e-05
-4.46308e-06
6.25937e-06
-8.71671e-07
-7.09876e-06
1.76353e-06
-1.19143e-05
2.44639e-06
-6.42312e-06
2.22398e-06
-3.56214e-07
2.83164e-06
3.08964e-07
3.83726e-06
-7.84002e-07
5.80662e-06
-6.36618e-06
1.17333e-05
-1.02214e-05
1.25367e-05
4.7734e-06
3.97291e-06
1.30222e-05
5.01443e-06
-1.0836e-06
7.68963e-06
-3.8182e-06
6.30702e-06
-1.91894e-06
7.08053e-06
-3.94912e-06
8.584e-06
-2.76138e-06
7.70247e-06
2.25679e-06
5.96363e-06
9.9364e-06
2.01385e-05
7.97147e-07
5.46225e-06
4.27852e-06
-1.05801e-05
3.70875e-06
-1.13446e-05
1.77205e-06
-4.48641e-06
1.01631e-06
3.99525e-07
1.25139e-06
7.38998e-08
2.283e-06
-1.8156e-06
2.73284e-06
-6.81601e-06
5.6789e-06
-1.31675e-05
6.24619e-06
4.20613e-06
6.44564e-06
1.28228e-05
1.10147e-05
-5.65267e-06
1.362e-05
-6.42352e-06
1.42324e-05
-2.53127e-06
1.13174e-05
-1.03418e-06
7.3314e-06
1.22467e-06
4.66232e-06
4.92587e-06
3.40233e-06
1.11964e-05
2.35408e-05
5.39137e-06
7.08765e-08
7.8614e-06
-1.30502e-05
6.4859e-06
-9.96906e-06
3.35996e-06
-1.36046e-06
1.18458e-06
2.5749e-06
2.01614e-08
1.23833e-06
4.20407e-07
-2.21584e-06
-1.01412e-06
-5.38147e-06
-2.14933e-07
-1.39667e-05
2.3101e-06
1.68111e-06
5.90622e-06
9.22665e-06
1.19393e-05
-1.16857e-05
1.50425e-05
-9.52674e-06
1.53551e-05
-2.8438e-06
1.2136e-05
2.18493e-06
7.41105e-06
5.94957e-06
2.31218e-06
1.00247e-05
5.55625e-07
1.29529e-05
2.40964e-05
1.15951e-05
-1.15242e-05
1.17376e-05
-1.31927e-05
8.75138e-06
-6.98279e-06
4.2009e-06
3.19002e-06
1.33075e-06
5.44505e-06
-2.9977e-07
2.86885e-06
-2.12773e-06
-3.87871e-07
-4.03707e-06
-3.47212e-06
-8.51798e-06
-9.48575e-06
-1.20886e-06
-5.62799e-06
7.58185e-06
4.35935e-07
1.03267e-05
-1.44306e-05
1.33567e-05
-1.25567e-05
1.33354e-05
-2.82246e-06
1.0711e-05
4.8093e-06
5.80575e-06
1.08548e-05
3.85426e-08
1.57919e-05
-1.6704e-06
1.46619e-05
2.2426e-05
1.05109e-06
-5.78905e-06
8.53333e-07
-1.75116e-06
3.25694e-07
-9.89076e-07
1.48738e-06
-3.26404e-06
4.14466e-06
-5.3522e-06
7.19638e-06
-5.55568e-06
1.02051e-05
-4.82288e-06
1.31232e-05
-3.89466e-06
1.63046e-05
-3.65008e-06
2.01169e-05
-2.95793e-06
2.50713e-05
-1.64157e-06
3.11881e-05
4.51258e-07
3.6847e-05
2.93528e-06
3.9726e-05
4.37197e-06
4.1249e-05
4.29373e-06
4.34657e-05
5.37819e-06
4.63069e-05
6.24499e-06
4.853e-05
3.38351e-06
4.47837e-05
2.87765e-06
3.46822e-05
4.92759e-06
2.30162e-05
3.7491e-06
1.74472e-05
-4.85283e-06
-1.72416e-05
2.31464e-05
-1.62915e-06
-4.15999e-06
-3.12062e-06
-2.59752e-07
-3.10823e-06
-1.00151e-06
-6.2931e-07
-5.74299e-06
2.8014e-06
-8.78294e-06
6.67711e-06
-9.43141e-06
1.04087e-05
-8.55448e-06
1.3421e-05
-6.90702e-06
1.6534e-05
-6.76301e-06
2.07716e-05
-7.19554e-06
2.63158e-05
-7.18577e-06
3.28133e-05
-6.04627e-06
3.90145e-05
-3.26593e-06
4.40279e-05
-6.41391e-07
4.74231e-05
8.98483e-07
5.11743e-05
1.62698e-06
5.53792e-05
2.04012e-06
5.72989e-05
1.46377e-06
5.78565e-05
2.3201e-06
5.80673e-05
4.71679e-06
5.64867e-05
5.32969e-06
5.13053e-05
3.28629e-07
-8.02779e-06
4.20915e-05
1.04292e-06
-5.2029e-06
-2.8361e-07
1.06678e-06
-1.12043e-06
-1.64683e-07
-4.16744e-07
-6.44667e-06
1.66347e-06
-1.08631e-05
4.96686e-06
-1.27348e-05
8.94088e-06
-1.25285e-05
1.2956e-05
-1.09221e-05
1.77324e-05
-1.15394e-05
2.33483e-05
-1.28114e-05
2.84568e-05
-1.22943e-05
3.35791e-05
-1.11685e-05
3.86478e-05
-8.33467e-06
4.3529e-05
-5.52252e-06
4.72711e-05
-2.84358e-06
4.96613e-05
-7.63228e-07
5.14844e-05
2.17024e-07
5.18051e-05
1.14306e-06
5.03597e-05
3.76546e-06
4.74597e-05
7.61688e-06
4.30941e-05
9.69525e-06
3.60976e-05
7.32513e-06
6.88567e-06
2.11841e-05
2.69304e-06
-7.89587e-06
2.79112e-06
9.68775e-07
2.52895e-06
9.75687e-08
2.71253e-06
-6.63017e-06
4.08778e-06
-1.22383e-05
6.5747e-06
-1.52216e-05
1.08184e-05
-1.67721e-05
1.64348e-05
-1.65385e-05
2.26528e-05
-1.77573e-05
2.81729e-05
-1.83314e-05
3.18263e-05
-1.59476e-05
3.45818e-05
-1.3924e-05
3.75727e-05
-1.13254e-05
4.07332e-05
-8.68306e-06
4.38518e-05
-5.96214e-06
4.49393e-05
-1.8507e-06
4.42244e-05
9.32e-07
4.28656e-05
2.50185e-06
3.9894e-05
6.73706e-06
3.51342e-05
1.23767e-05
2.86032e-05
1.62262e-05
1.69535e-05
1.89748e-05
2.02819e-05
3.55712e-06
-3.68507e-07
-7.5272e-06
6.70242e-06
-6.10196e-06
1.4424e-05
-7.62378e-06
1.86261e-05
-1.08322e-05
2.05674e-05
-1.41794e-05
2.17849e-05
-1.6439e-05
2.36622e-05
-1.86493e-05
2.70745e-05
-1.99506e-05
3.09444e-05
-2.16271e-05
3.45249e-05
-2.19117e-05
3.77688e-05
-1.91914e-05
3.99187e-05
-1.60738e-05
4.15406e-05
-1.29472e-05
4.29e-05
-1.00424e-05
4.49929e-05
-8.05504e-06
4.54098e-05
-2.26753e-06
4.2938e-05
3.40374e-06
3.78699e-05
7.56995e-06
3.11763e-05
1.34306e-05
2.37547e-05
1.97982e-05
1.55386e-05
2.44422e-05
8.36315e-06
2.61501e-05
2.44722e-05
4.17272e-06
4.82763e-07
-8.00975e-06
1.06904e-05
-1.63094e-05
2.19129e-05
-1.88462e-05
3.07137e-05
-1.96329e-05
3.68722e-05
-2.03378e-05
4.1244e-05
-2.08106e-05
4.35806e-05
-2.09857e-05
4.51683e-05
-2.15382e-05
4.60856e-05
-2.25443e-05
4.71298e-05
-2.29558e-05
4.92242e-05
-2.12856e-05
5.10499e-05
-1.78995e-05
5.10571e-05
-1.29544e-05
4.9002e-05
-7.98738e-06
4.61176e-05
-5.17057e-06
4.46134e-05
-7.63427e-07
4.21691e-05
5.84806e-06
3.64481e-05
1.32909e-05
2.8837e-05
2.10417e-05
2.15275e-05
2.71076e-05
1.56462e-05
3.03234e-05
1.18436e-05
2.99526e-05
2.65519e-05
9.76386e-06
8.41548e-06
-1.64252e-05
1.67349e-05
-2.46287e-05
2.37854e-05
-2.58967e-05
3.03791e-05
-2.62266e-05
3.63831e-05
-2.63418e-05
4.18776e-05
-2.63051e-05
4.70211e-05
-2.61292e-05
5.15423e-05
-2.60595e-05
5.48297e-05
-2.58319e-05
5.66495e-05
-2.47757e-05
5.75946e-05
-2.22307e-05
5.79273e-05
-1.82323e-05
5.78705e-05
-1.28976e-05
5.68803e-05
-6.99728e-06
5.35439e-05
-1.83429e-06
4.9684e-05
3.09647e-06
4.57083e-05
9.82374e-06
4.16203e-05
1.73788e-05
3.64106e-05
2.62513e-05
2.91348e-05
3.43836e-05
2.14431e-05
3.80152e-05
1.60099e-05
3.53858e-05
2.98812e-05
1.26806e-05
1.22497e-05
-2.8675e-05
1.93006e-05
-3.16797e-05
2.53692e-05
-3.19653e-05
3.10779e-05
-3.19354e-05
3.69062e-05
-3.21701e-05
4.2969e-05
-3.23679e-05
4.90736e-05
-3.22339e-05
5.48581e-05
-3.1844e-05
5.99356e-05
-3.09094e-05
6.38968e-05
-2.87369e-05
6.64437e-05
-2.47777e-05
6.76712e-05
-1.94599e-05
6.79867e-05
-1.32132e-05
6.83125e-05
-7.32314e-06
6.92867e-05
-2.80849e-06
6.84566e-05
3.92652e-06
6.61048e-05
1.21754e-05
6.20526e-05
2.1431e-05
5.46037e-05
3.37004e-05
4.06035e-05
4.83839e-05
2.36583e-05
5.49607e-05
1.22676e-05
4.67767e-05
3.67296e-05
5.41934e-06
1.34055e-05
-4.2081e-05
2.08149e-05
-3.9089e-05
2.67816e-05
-3.79319e-05
3.24512e-05
-3.76047e-05
3.85394e-05
-3.82581e-05
4.51424e-05
-3.89705e-05
5.18781e-05
-3.89692e-05
5.86712e-05
-3.86365e-05
6.53416e-05
-3.75792e-05
7.16428e-05
-3.50376e-05
7.75512e-05
-3.06856e-05
8.32098e-05
-2.5118e-05
8.78404e-05
-1.78433e-05
9.24747e-05
-1.1957e-05
9.79203e-05
-8.25331e-06
0.000102482
-6.35347e-07
0.000106568
8.0901e-06
0.000107519
2.04803e-05
9.91995e-05
4.20195e-05
7.14015e-05
7.61823e-05
2.87086e-05
9.76538e-05
4.8253e-06
7.06591e-05
4.6878e-05
-5.32308e-06
1.17122e-05
-5.37931e-05
1.87492e-05
-4.61258e-05
2.65041e-05
-4.56865e-05
3.4375e-05
-4.54753e-05
4.20046e-05
-4.58875e-05
4.8889e-05
-4.58549e-05
5.4851e-05
-4.49312e-05
6.17503e-05
-4.55358e-05
7.0124e-05
-4.59526e-05
7.77662e-05
-4.26795e-05
8.70305e-05
-3.99494e-05
9.79732e-05
-3.606e-05
0.00010178
-2.16498e-05
9.97204e-05
-9.8978e-06
0.000105804
-1.43363e-05
0.000110946
-5.77702e-06
0.000121317
-2.27982e-06
0.000129415
1.23837e-05
0.000136971
3.4464e-05
0.000140183
7.29693e-05
8.25616e-05
0.000155272
2.83179e-05
0.000124902
8.16957e-05
-6.49908e-06
7.89501e-06
-6.16865e-05
1.68671e-05
-5.50966e-05
2.45053e-05
-5.33236e-05
3.18112e-05
-5.27803e-05
3.87697e-05
-5.28453e-05
4.57937e-05
-5.28786e-05
5.32207e-05
-5.2358e-05
6.04828e-05
-5.27979e-05
6.75694e-05
-5.30395e-05
7.56122e-05
-5.07224e-05
8.19903e-05
-4.63275e-05
8.35106e-05
-3.75802e-05
8.94261e-05
-2.75654e-05
0.000102049
-2.2521e-05
0.000107439
-1.97266e-05
0.000111778
-1.01176e-05
0.000112485
-2.98686e-06
0.000118525
6.34415e-06
0.000118084
3.49049e-05
0.000108628
8.24215e-05
9.21833e-05
0.000171716
7.5115e-05
0.000141973
0.000104559
5.22518e-05
3.2688e-06
-6.49542e-05
8.5622e-06
-6.0389e-05
1.28281e-05
-5.75885e-05
1.67496e-05
-5.6701e-05
2.08026e-05
-5.68975e-05
2.46334e-05
-5.67088e-05
2.81079e-05
-5.58319e-05
3.10433e-05
-5.57329e-05
3.30932e-05
-5.5089e-05
3.36827e-05
-5.13117e-05
3.47099e-05
-4.73545e-05
3.83352e-05
-4.12055e-05
4.34664e-05
-3.26961e-05
4.90478e-05
-2.81017e-05
5.31552e-05
-2.38344e-05
6.0983e-05
-1.79455e-05
6.91444e-05
-1.11489e-05
6.95468e-05
5.94134e-06
6.0942e-05
4.35102e-05
3.65139e-05
0.000106849
4.09297e-05
0.000167303
4.16722e-05
0.000141232
0.000103248
4.29833e-05
2.74595e-07
-6.52284e-05
1.60464e-06
-6.17186e-05
2.62538e-06
-5.86088e-05
3.27367e-06
-5.73489e-05
3.51161e-06
-5.7135e-05
3.17015e-06
-5.63669e-05
2.15781e-06
-5.48191e-05
1.9723e-07
-5.37718e-05
-2.68841e-06
-5.22029e-05
-5.6023e-06
-4.83974e-05
-7.85917e-06
-4.50972e-05
-9.25932e-06
-3.98049e-05
-1.13454e-05
-3.06096e-05
-1.42746e-05
-2.51721e-05
-1.71783e-05
-2.09302e-05
-1.96339e-05
-1.54892e-05
-2.50262e-05
-5.75592e-06
-3.05325e-05
1.1448e-05
-3.56126e-05
4.85909e-05
-3.0417e-05
0.000101654
-4.5807e-06
0.000141467
1.75307e-05
0.000119121
8.93907e-05
3.13891e-05
-1.63523e-06
-6.3593e-05
-2.81471e-06
-6.0539e-05
-4.15064e-06
-5.72727e-05
-6.0136e-06
-5.54857e-05
-8.67576e-06
-5.44726e-05
-1.20841e-05
-5.29583e-05
-1.57297e-05
-5.11731e-05
-1.96463e-05
-4.9855e-05
-2.42872e-05
-4.75618e-05
-2.8492e-05
-4.41922e-05
-3.33166e-05
-4.02723e-05
-3.8749e-05
-3.43723e-05
-4.23059e-05
-2.70525e-05
-4.59529e-05
-2.15249e-05
-5.02732e-05
-1.66098e-05
-5.57478e-05
-1.00143e-05
-6.2137e-05
6.3364e-07
-6.88968e-05
1.82081e-05
-6.8369e-05
4.80631e-05
-5.19941e-05
8.52795e-05
-1.7639e-05
0.000107112
9.36381e-06
9.21185e-05
7.44994e-05
2.42554e-05
-2.94386e-06
-6.06491e-05
-5.61177e-06
-5.7871e-05
-8.32245e-06
-5.45619e-05
-1.15177e-05
-5.22903e-05
-1.54219e-05
-5.05682e-05
-1.96745e-05
-4.87056e-05
-2.37839e-05
-4.70635e-05
-2.78078e-05
-4.58309e-05
-3.21462e-05
-4.32231e-05
-3.66868e-05
-3.96515e-05
-4.13976e-05
-3.55613e-05
-4.57485e-05
-3.00212e-05
-4.8962e-05
-2.38387e-05
-5.23757e-05
-1.81111e-05
-5.66748e-05
-1.23106e-05
-6.19582e-05
-4.73071e-06
-6.74938e-05
6.16944e-06
-7.0993e-05
2.17074e-05
-6.55863e-05
4.26567e-05
-4.56229e-05
6.53162e-05
-1.48181e-05
7.6307e-05
8.24561e-06
6.90549e-05
6.06071e-05
2.21383e-05
-3.77884e-06
-5.687e-05
-7.30318e-06
-5.43464e-05
-1.07109e-05
-5.11539e-05
-1.43416e-05
-4.86594e-05
-1.82757e-05
-4.66339e-05
-2.21889e-05
-4.47922e-05
-2.58251e-05
-4.34271e-05
-2.90972e-05
-4.25586e-05
-3.24456e-05
-3.98745e-05
-3.60421e-05
-3.60548e-05
-3.97112e-05
-3.18921e-05
-4.27845e-05
-2.69477e-05
-4.51323e-05
-2.14908e-05
-4.74541e-05
-1.57892e-05
-5.04936e-05
-9.27099e-06
-5.39832e-05
-1.24103e-06
-5.70273e-05
9.21367e-06
-5.69265e-05
2.16067e-05
-4.97016e-05
3.54319e-05
-3.22916e-05
4.79063e-05
-9.51728e-06
5.35328e-05
7.72083e-06
5.18168e-05
4.91861e-05
1.91424e-05
-4.30078e-06
-5.25689e-05
-8.33058e-06
-5.03162e-05
-1.20943e-05
-4.73899e-05
-1.57667e-05
-4.49867e-05
-1.93876e-05
-4.30127e-05
-2.27852e-05
-4.13943e-05
-2.59743e-05
-4.02377e-05
-2.91611e-05
-3.93716e-05
-3.21322e-05
-3.69032e-05
-3.50829e-05
-3.3104e-05
-3.80114e-05
-2.89634e-05
-4.05593e-05
-2.43996e-05
-4.24095e-05
-1.96405e-05
-4.38463e-05
-1.43522e-05
-4.54148e-05
-7.70242e-06
-4.68687e-05
2.12991e-07
-4.71524e-05
9.49758e-06
-4.46914e-05
1.91459e-05
-3.75342e-05
2.82748e-05
-2.48142e-05
3.51864e-05
-9.84569e-06
3.85644e-05
2.61925e-06
3.93521e-05
3.94578e-05
1.2348e-05
-4.57536e-06
-4.79929e-05
-8.86807e-06
-4.6023e-05
-1.28094e-05
-4.34481e-05
-1.64925e-05
-4.13032e-05
-1.9971e-05
-3.95339e-05
-2.32524e-05
-3.81126e-05
-2.6511e-05
-3.69788e-05
-3.01323e-05
-3.575e-05
-3.35247e-05
-3.35105e-05
-3.65758e-05
-3.00527e-05
-3.93582e-05
-2.61807e-05
-4.16448e-05
-2.21129e-05
-4.33932e-05
-1.78919e-05
-4.46697e-05
-1.30756e-05
-4.52391e-05
-7.13284e-06
-4.49966e-05
-2.93285e-08
-4.33381e-05
7.83928e-06
-3.96045e-05
1.54125e-05
-3.31403e-05
2.18109e-05
-2.42018e-05
2.6248e-05
-1.4307e-05
2.86698e-05
-4.73738e-06
2.97825e-05
3.05954e-05
4.12576e-06
-4.65202e-06
-4.33405e-05
-8.99979e-06
-4.16747e-05
-1.29496e-05
-3.94978e-05
-1.6581e-05
-3.76715e-05
-1.99967e-05
-3.61179e-05
-2.33156e-05
-3.47933e-05
-2.67099e-05
-3.35843e-05
-3.03215e-05
-3.21381e-05
-3.38286e-05
-3.00032e-05
-3.67639e-05
-2.71171e-05
-3.91796e-05
-2.37648e-05
-4.11585e-05
-2.01337e-05
-4.27828e-05
-1.62674e-05
-4.39175e-05
-1.19406e-05
-4.41741e-05
-6.87604e-06
-4.32346e-05
-9.68609e-07
-4.08315e-05
5.43641e-06
-3.68562e-05
1.14374e-05
-3.13344e-05
1.62893e-05
-2.46943e-05
1.96081e-05
-1.75722e-05
2.15477e-05
-1.02761e-05
2.24868e-05
2.29541e-05
-2.63439e-06
-4.58087e-06
-3.87588e-05
-8.84012e-06
-3.74149e-05
-1.26605e-05
-3.56768e-05
-1.61128e-05
-3.42188e-05
-1.93083e-05
-3.2922e-05
-2.2376e-05
-3.17253e-05
-2.54496e-05
-3.05104e-05
-2.85404e-05
-2.9047e-05
-3.14464e-05
-2.70969e-05
-3.39531e-05
-2.46101e-05
-3.60214e-05
-2.16962e-05
-3.76833e-05
-1.84716e-05
-3.89734e-05
-1.49771e-05
-3.97924e-05
-1.11213e-05
-3.98994e-05
-6.7689e-06
-3.8905e-05
-1.96273e-06
-3.66955e-05
3.22711e-06
-3.3229e-05
7.97119e-06
-2.87688e-05
1.18293e-05
-2.3728e-05
1.45674e-05
-1.84293e-05
1.62493e-05
-1.29749e-05
1.70323e-05
1.71994e-05
-7.21951e-06
-4.45346e-06
-3.43049e-05
-8.57265e-06
-3.32951e-05
-1.22201e-05
-3.20289e-05
-1.54547e-05
-3.09837e-05
-1.83712e-05
-3.00051e-05
-2.1079e-05
-2.90171e-05
-2.36714e-05
-2.79176e-05
-2.61578e-05
-2.65603e-05
-2.84421e-05
-2.48123e-05
-3.04133e-05
-2.26387e-05
-3.20273e-05
-2.0082e-05
-3.32854e-05
-1.72133e-05
-3.41958e-05
-1.40664e-05
-3.47032e-05
-1.06136e-05
-3.46356e-05
-6.83636e-06
-3.37935e-05
-2.80451e-06
-3.19466e-05
1.38042e-06
-2.91867e-05
5.21155e-06
-2.57454e-05
8.38815e-06
-2.19282e-05
1.07503e-05
-1.79649e-05
1.22859e-05
-1.39817e-05
1.30496e-05
1.31864e-05
-9.96827e-06
-4.3258e-06
-2.99783e-05
-8.32066e-06
-2.92997e-05
-1.18303e-05
-2.85187e-05
-1.49001e-05
-2.79135e-05
-1.76056e-05
-2.72992e-05
-2.0031e-05
-2.65915e-05
-2.22446e-05
-2.57037e-05
-2.4265e-05
-2.45396e-05
-2.60566e-05
-2.30205e-05
-2.75742e-05
-2.11208e-05
-2.87894e-05
-1.88666e-05
-2.96985e-05
-1.6304e-05
-3.0297e-05
-1.34676e-05
-3.05402e-05
-1.03702e-05
-3.03193e-05
-7.057e-06
-2.95059e-05
-3.61778e-06
-2.79767e-05
-1.4853e-07
-2.58054e-05
3.04044e-06
-2.31526e-05
5.73555e-06
-2.02319e-05
7.8297e-06
-1.7221e-05
9.27525e-06
-1.42696e-05
1.00981e-05
1.03846e-05
-1.14671e-05
-4.22679e-06
-2.57512e-05
-8.12977e-06
-2.53962e-05
-1.15462e-05
-2.51019e-05
-1.45084e-05
-2.49509e-05
-1.70723e-05
-2.47349e-05
-1.92972e-05
-2.43662e-05
-2.12338e-05
-2.37668e-05
-2.29085e-05
-2.28646e-05
-2.43264e-05
-2.16023e-05
-2.54847e-05
-1.99623e-05
-2.63825e-05
-1.79685e-05
-2.70184e-05
-1.56679e-05
-2.738e-05
-1.31058e-05
-2.74279e-05
-1.03221e-05
-2.70959e-05
-7.38878e-06
-2.63268e-05
-4.38664e-06
-2.50243e-05
-1.4508e-06
-2.32789e-05
1.29523e-06
-2.119e-05
3.6468e-06
-1.88968e-05
5.53664e-06
-1.65438e-05
6.92222e-06
-1.42607e-05
7.8154e-06
8.26267e-06
-1.21383e-05
-4.14773e-06
-2.16028e-05
-7.98416e-06
-2.15593e-05
-1.1331e-05
-2.17546e-05
-1.42116e-05
-2.20698e-05
-1.66591e-05
-2.22871e-05
-1.87119e-05
-2.23131e-05
-2.04074e-05
-2.20709e-05
-2.1781e-05
-2.14908e-05
-2.28698e-05
-2.05133e-05
-2.37092e-05
-1.91226e-05
-2.43289e-05
-1.73486e-05
-2.47427e-05
-1.52539e-05
-2.49392e-05
-1.29091e-05
-2.48777e-05
-1.03834e-05
-2.45139e-05
-7.75233e-06
-2.38035e-05
-5.09687e-06
-2.27357e-05
-2.51836e-06
-2.13189e-05
-1.21381e-07
-1.96504e-05
1.97847e-06
-1.78259e-05
3.71225e-06
-1.59515e-05
5.04791e-06
-1.41245e-05
5.98836e-06
6.55741e-06
-1.24187e-05
-4.08293e-06
-1.75196e-05
-7.85791e-06
-1.77839e-05
-1.11409e-05
-1.84713e-05
-1.39361e-05
-1.92743e-05
-1.62609e-05
-1.9962e-05
-1.81377e-05
-2.04359e-05
-1.95966e-05
-2.06117e-05
-2.0684e-05
-2.04032e-05
-2.14653e-05
-1.97317e-05
-2.20125e-05
-1.85752e-05
-2.23842e-05
-1.69766e-05
-2.26093e-05
-1.50286e-05
-2.26822e-05
-1.28359e-05
-2.25706e-05
-1.04949e-05
-2.2234e-05
-8.08876e-06
-2.16359e-05
-5.69476e-06
-2.07685e-05
-3.38551e-06
-1.96454e-05
-1.24432e-06
-1.83271e-05
6.60257e-07
-1.68791e-05
2.26435e-06
-1.53818e-05
3.55061e-06
-1.39079e-05
4.51477e-06
5.15087e-06
-1.2501e-05
-4.02161e-06
-1.34973e-05
-7.7348e-06
-1.40703e-05
-1.0944e-05
-1.52618e-05
-1.36388e-05
-1.65791e-05
-1.58227e-05
-1.77778e-05
-1.75082e-05
-1.87502e-05
-1.87259e-05
-1.93938e-05
-1.95399e-05
-1.95889e-05
-2.0044e-05
-1.92273e-05
-2.03398e-05
-1.82793e-05
-2.05048e-05
-1.68114e-05
-2.05743e-05
-1.49589e-05
-2.05505e-05
-1.28596e-05
-2.04111e-05
-1.0634e-05
-2.01219e-05
-8.37785e-06
-1.96493e-05
-6.16714e-06
-1.89731e-05
-4.06161e-06
-1.81107e-05
-2.10651e-06
-1.70855e-05
-3.64858e-07
-1.59564e-05
1.13535e-06
-1.47771e-05
2.37138e-06
-1.36e-05
3.33756e-06
4.00856e-06
-1.24572e-05
-3.95538e-06
-9.54187e-06
-7.60253e-06
-1.04229e-05
-1.07191e-05
-1.21448e-05
-1.3292e-05
-1.40059e-05
-1.53121e-05
-1.57574e-05
-1.67877e-05
-1.72744e-05
-1.77581e-05
-1.84231e-05
-1.83123e-05
-1.90345e-05
-1.85758e-05
-1.89635e-05
-1.86687e-05
-1.81862e-05
-1.86726e-05
-1.68073e-05
-1.86258e-05
-1.50055e-05
-1.85341e-05
-1.29511e-05
-1.83827e-05
-1.07853e-05
-1.81433e-05
-8.61715e-06
-1.77854e-05
-6.52483e-06
-1.72868e-05
-4.56005e-06
-1.66397e-05
-2.75349e-06
-1.58748e-05
-1.12965e-06
-1.50174e-05
2.77961e-07
-1.41107e-05
1.46464e-06
-1.31907e-05
2.4179e-06
3.09461e-06
-1.22765e-05
-3.87713e-06
-5.66425e-06
-7.43786e-06
-6.86184e-06
-1.04393e-05
-9.14308e-06
-1.28641e-05
-1.15809e-05
-1.46977e-05
-1.39235e-05
-1.59471e-05
-1.60248e-05
-1.66687e-05
-1.77013e-05
-1.6985e-05
-1.8718e-05
-1.70527e-05
-1.88956e-05
-1.6996e-05
-1.82427e-05
-1.68879e-05
-1.69152e-05
-1.67609e-05
-1.51323e-05
-1.66246e-05
-1.30873e-05
-1.64724e-05
-1.09373e-05
-1.62827e-05
-8.8068e-06
-1.60264e-05
-6.781e-06
-1.5679e-05
-4.90733e-06
-1.52256e-05
-3.2068e-06
-1.46725e-05
-1.68267e-06
-1.40485e-05
-3.46027e-07
-1.33764e-05
7.92714e-07
-1.26842e-05
1.72542e-06
2.39761e-06
-1.19868e-05
-3.76627e-06
-1.89792e-06
-7.21316e-06
-3.41475e-06
-1.00694e-05
-6.28661e-06
-1.2325e-05
-9.32508e-06
-1.39552e-05
-1.22932e-05
-1.49747e-05
-1.50051e-05
-1.54565e-05
-1.72193e-05
-1.55688e-05
-1.86056e-05
-1.5492e-05
-1.89722e-05
-1.53363e-05
-1.83983e-05
-1.5161e-05
-1.70904e-05
-1.49884e-05
-1.53048e-05
-1.48275e-05
-1.32481e-05
-1.46804e-05
-1.10843e-05
-1.45356e-05
-8.95147e-06
-1.43675e-05
-6.94902e-06
-1.41481e-05
-5.12669e-06
-1.38579e-05
-3.49684e-06
-1.34891e-05
-2.05148e-06
-1.306e-05
-7.75139e-07
-1.25872e-05
3.19861e-07
-1.2091e-05
1.22951e-06
1.88853e-06
-1.15818e-05
-3.52148e-06
1.62393e-06
-6.83656e-06
-9.94467e-08
-9.5676e-06
-3.55538e-06
-1.16515e-05
-7.24102e-06
-1.30839e-05
-1.08605e-05
-1.3883e-05
-1.42058e-05
-1.41478e-05
-1.69543e-05
-1.40992e-05
-1.8654e-05
-1.39314e-05
-1.91399e-05
-1.37215e-05
-1.8608e-05
-1.35171e-05
-1.72946e-05
-1.3329e-05
-1.54929e-05
-1.31611e-05
-1.34159e-05
-1.30204e-05
-1.1225e-05
-1.29078e-05
-9.06393e-06
-1.28088e-05
-7.04794e-06
-1.26947e-05
-5.24078e-06
-1.25389e-05
-3.65254e-06
-1.23271e-05
-2.26332e-06
-1.20602e-05
-1.04199e-06
-1.17568e-05
1.65529e-08
-1.14303e-05
9.02767e-07
1.55002e-06
-1.10915e-05
-3.14353e-06
4.76737e-06
-6.24575e-06
3.00285e-06
-8.8661e-06
-9.34901e-07
-1.08201e-05
-5.28689e-06
-1.20909e-05
-9.5896e-06
-1.26977e-05
-1.35988e-05
-1.2771e-05
-1.68809e-05
-1.26163e-05
-1.88087e-05
-1.24108e-05
-1.93453e-05
-1.21879e-05
-1.88308e-05
-1.19866e-05
-1.74959e-05
-1.18092e-05
-1.56702e-05
-1.16496e-05
-1.35754e-05
-1.15152e-05
-1.13593e-05
-1.14189e-05
-9.16026e-06
-1.1362e-05
-7.10479e-06
-1.13248e-05
-5.27796e-06
-1.12756e-05
-3.70165e-06
-1.11917e-05
-2.34722e-06
-1.1062e-05
-1.17172e-06
-1.09009e-05
-1.44577e-07
-1.07157e-05
7.17823e-07
1.35051e-06
-1.05161e-05
-2.7459e-06
7.51351e-06
-5.49275e-06
5.74983e-06
-7.94367e-06
1.51612e-06
-9.77188e-06
-3.45859e-06
-1.09306e-05
-8.43081e-06
-1.13922e-05
-1.31371e-05
-1.13293e-05
-1.69437e-05
-1.11325e-05
-1.90054e-05
-1.09463e-05
-1.95315e-05
-1.07533e-05
-1.90237e-05
-1.05871e-05
-1.76621e-05
-1.04456e-05
-1.58117e-05
-1.03129e-05
-1.37081e-05
-1.01871e-05
-1.14851e-05
-1.00906e-05
-9.2568e-06
-1.00449e-05
-7.15042e-06
-1.00488e-05
-5.27412e-06
-1.00741e-05
-3.67632e-06
-1.00877e-05
-2.33362e-06
-1.00711e-05
-1.18834e-06
-1.00238e-05
-1.91885e-07
-9.95634e-06
6.50117e-07
1.27378e-06
-9.87936e-06
-2.25876e-06
9.77214e-06
-4.63079e-06
8.12186e-06
-6.75999e-06
3.64535e-06
-8.42876e-06
-1.78977e-06
-9.47284e-06
-7.38668e-06
-9.84571e-06
-1.27642e-05
-9.76551e-06
-1.70239e-05
-9.61609e-06
-1.91548e-05
-9.50889e-06
-1.96387e-05
-9.39864e-06
-1.91339e-05
-9.31148e-06
-1.77493e-05
-9.2384e-06
-1.58848e-05
-9.15419e-06
-1.37923e-05
-9.04918e-06
-1.15902e-05
-8.94282e-06
-9.3632e-06
-8.8788e-06
-7.21448e-06
-8.88263e-06
-5.27034e-06
-8.94293e-06
-3.61605e-06
-9.02312e-06
-2.25347e-06
-9.09114e-06
-1.12039e-06
-9.13336e-06
-1.49817e-07
-9.15828e-06
6.75216e-07
1.28972e-06
-9.17422e-06
-1.66369e-06
1.1436e-05
-3.55392e-06
1.00121e-05
-5.2741e-06
5.36551e-06
-6.68553e-06
-3.78348e-07
-7.56657e-06
-6.50565e-06
-7.91035e-06
-1.24204e-05
-7.94422e-06
-1.699e-05
-7.98715e-06
-1.91119e-05
-8.02497e-06
-1.96009e-05
-8.07151e-06
-1.90874e-05
-8.1256e-06
-1.76952e-05
-8.16552e-06
-1.58449e-05
-8.15966e-06
-1.37983e-05
-8.09261e-06
-1.16573e-05
-7.98224e-06
-9.47365e-06
-7.87848e-06
-7.31832e-06
-7.84195e-06
-5.30694e-06
-7.89229e-06
-3.56577e-06
-8.00113e-06
-2.14471e-06
-8.12405e-06
-9.97587e-07
-8.2328e-06
-4.108e-08
-8.32726e-06
7.69385e-07
1.37943e-06
-8.41682e-06
-1.01597e-06
1.24516e-05
-2.34482e-06
1.13408e-05
-3.5604e-06
6.58101e-06
-4.59461e-06
6.558e-07
-5.22812e-06
-5.8722e-06
-5.54169e-06
-1.21069e-05
-5.80952e-06
-1.67223e-05
-6.14912e-06
-1.87723e-05
-6.43099e-06
-1.93191e-05
-6.72367e-06
-1.87948e-05
-6.98711e-06
-1.74319e-05
-7.1871e-06
-1.5645e-05
-7.29373e-06
-1.36917e-05
-7.29e-06
-1.16611e-05
-7.18948e-06
-9.57428e-06
-7.04592e-06
-7.46199e-06
-6.93967e-06
-5.41328e-06
-6.93449e-06
-3.57105e-06
-7.02877e-06
-2.05053e-06
-7.17485e-06
-8.5164e-07
-7.32598e-06
1.09875e-07
-7.46826e-06
9.11788e-07
1.51696e-06
-7.60584e-06
-4.01052e-07
1.28528e-05
-1.15196e-06
1.20917e-05
-1.8643e-06
7.29325e-06
-2.40388e-06
1.19528e-06
-2.66671e-06
-5.60947e-06
-2.93675e-06
-1.1837e-05
-3.50376e-06
-1.61554e-05
-4.14148e-06
-1.81347e-05
-4.75798e-06
-1.87027e-05
-5.35813e-06
-1.81948e-05
-5.8749e-06
-1.69152e-05
-6.26603e-06
-1.5254e-05
-6.5079e-06
-1.345e-05
-6.59122e-06
-1.1578e-05
-6.52689e-06
-9.63875e-06
-6.35998e-06
-7.62904e-06
-6.17706e-06
-5.59633e-06
-6.07919e-06
-3.66904e-06
-6.11435e-06
-2.01549e-06
-6.24866e-06
-7.17484e-07
-6.41842e-06
2.79576e-07
-6.58997e-06
1.08298e-06
1.68809e-06
-6.76106e-06
9.77538e-08
1.27547e-05
-1.04253e-07
1.22935e-05
-3.21406e-07
7.51028e-06
-3.28045e-07
1.20179e-06
-2.32169e-07
-5.70548e-06
-4.83211e-07