/*--------------------------------*- C++ -*----------------------------------*\
| =========                 |                                                 |
| \\      /  F ield         | OpenFOAM: The Open Source CFD Toolbox           |
|  \\    /   O peration     | Version:  2312                                  |
|   \\  /    A nd           | Website:  www.openfoam.com                      |
|    \\/     M anipulation  |                                                 |
\*---------------------------------------------------------------------------*/
FoamFile
{
    version     2.0;
    format      ascii;
    arch        "LSB;label=32;scalar=64";
    class       volVectorField;
    location    "3.75";
    object      U;
}
// * * * * * * * * * * * * * * * * * * * * * * * * * * * * * * * * * * * * * //

dimensions      [0 1 -1 0 0 0 0];

internalField   nonuniform List<vector> 
2268
(
(0.00718133 -0.00462016 0)
(0.00914776 -0.00153803 0)
(0.0100236 -0.000694816 0)
(0.0101806 -0.000219098 0)
(0.00959075 8.47269e-05 0)
(0.00812806 0.000442294 0)
(0.00566233 0.000747236 0)
(0.00230184 0.000971832 0)
(-0.00172335 0.00110784 0)
(-0.00610726 0.0011645 0)
(-0.0106106 0.00119017 0)
(-0.0151849 0.00121933 0)
(-0.0200376 0.00132533 0)
(-0.0252521 0.00137706 0)
(-0.0304347 0.00128346 0)
(-0.0350947 0.00106166 0)
(-0.0386988 0.000854986 0)
(-0.041186 0.000493475 0)
(-0.041172 -0.000238682 0)
(-0.0375038 -0.00101463 0)
(-0.0306303 -0.00151613 0)
(-0.0216748 -0.00209615 0)
(-0.0097552 -0.00388256 0)
(-0.000860759 -0.00367776 0)
(0.000431325 -4.37715e-05 0)
(0.000521604 7.12504e-05 0)
(0.00112001 0.000386018 0)
(0.00126874 0.000902744 0)
(0.000665296 0.00155568 0)
(-0.00103979 0.00215347 0)
(-0.00371906 0.00264438 0)
(-0.00712854 0.00298754 0)
(-0.010935 0.00312926 0)
(-0.0148993 0.00320418 0)
(-0.0189521 0.00328061 0)
(-0.0233641 0.00360346 0)
(-0.0282893 0.00376181 0)
(-0.0332621 0.00350016 0)
(-0.0376827 0.00290081 0)
(-0.041101 0.00219007 0)
(-0.0436134 0.000978847 0)
(-0.0435799 -0.00140908 0)
(-0.0395246 -0.00397354 0)
(-0.0321341 -0.00592957 0)
(-0.0226088 -0.0076629 0)
(-0.00940101 -0.011369 0)
(-0.00333294 -0.00338938 0)
(-0.00357491 -0.0014124 0)
(-0.00402628 -0.00101265 0)
(-0.00351101 -0.000713364 0)
(-0.00347365 -7.91377e-05 0)
(-0.00418619 0.00116469 0)
(-0.0058649 0.0024332 0)
(-0.00839628 0.00345985 0)
(-0.0116281 0.00424485 0)
(-0.01524 0.0047329 0)
(-0.0189703 0.00504005 0)
(-0.0226879 0.00527001 0)
(-0.0267774 0.00596756 0)
(-0.0315482 0.00629638 0)
(-0.0363752 0.00579474 0)
(-0.0405461 0.00468272 0)
(-0.0437706 0.00358353 0)
(-0.0463669 0.00167989 0)
(-0.0462741 -0.00244838 0)
(-0.0415537 -0.00655951 0)
(-0.0332098 -0.0101367 0)
(-0.023012 -0.0132672 0)
(-0.00804306 -0.0195138 0)
(-0.00329621 -0.000227676 0)
(-0.00448543 0.000254269 0)
(-0.00528441 0.000166832 0)
(-0.00502929 0.000522954 0)
(-0.00516909 0.00158381 0)
(-0.00603616 0.00324188 0)
(-0.00793761 0.00487888 0)
(-0.0106472 0.00612173 0)
(-0.0140796 0.00690214 0)
(-0.0180673 0.00708272 0)
(-0.0223294 0.00681355 0)
(-0.0264194 0.00643325 0)
(-0.0307698 0.00730357 0)
(-0.0358542 0.00800588 0)
(-0.0407518 0.00752204 0)
(-0.044449 0.00639425 0)
(-0.0471749 0.00514683 0)
(-0.0500571 0.00258678 0)
(-0.0498916 -0.00382154 0)
(-0.0441839 -0.00978582 0)
(-0.0346391 -0.0147337 0)
(-0.0237164 -0.0192761 0)
(-0.00734363 -0.026526 0)
(-0.00147901 -0.000665566 0)
(-0.00133833 -0.00128297 0)
(-0.000751668 -0.00180663 0)
(0.000155924 -0.00158949 0)
(-5.43984e-05 -0.000301816 0)
(-0.00119274 0.00142424 0)
(-0.00309565 0.00311606 0)
(-0.00598374 0.00465461 0)
(-0.0100177 0.00601803 0)
(-0.0154436 0.00733064 0)
(-0.0221131 0.00877539 0)
(-0.028804 0.0100692 0)
(-0.0354182 0.0122346 0)
(-0.0422366 0.0129631 0)
(-0.0481066 0.0109722 0)
(-0.0516598 0.00787677 0)
(-0.053707 0.00606692 0)
(-0.0570776 0.00345645 0)
(-0.0569765 -0.00474731 0)
(-0.0496311 -0.01333 0)
(-0.0380874 -0.0201216 0)
(-0.0259256 -0.0260394 0)
(-0.00777851 -0.0343323 0)
(0.00312478 0.00163119 0)
(0.00606909 -0.000195667 0)
(0.00755452 -0.00069377 0)
(0.0100505 0.000240018 0)
(0.011901 0.00230071 0)
(0.0119847 0.00478347 0)
(0.0105045 0.00689712 0)
(0.00742142 0.00868881 0)
(0.00394356 0.01005 0)
(-0.000380794 0.0106401 0)
(-0.00613155 0.0100103 0)
(-0.0138656 0.00762647 0)
(-0.0257948 0.00844475 0)
(-0.0374014 0.010072 0)
(-0.0474713 0.00960383 0)
(-0.0580941 0.00967354 0)
(-0.0660504 0.00940088 0)
(-0.0721064 0.00476445 0)
(-0.0716702 -0.00881651 0)
(-0.0615166 -0.0200487 0)
(-0.0468895 -0.0266517 0)
(-0.0313965 -0.0330795 0)
(-0.00894036 -0.0424502 0)
(0.0191069 -0.00485939 0)
(0.0387954 -0.000979565 0)
(0.0477833 -0.00192742 0)
(0.0578486 -0.00248963 0)
(0.0729614 -0.000900716 0)
(0.0909709 0.00340143 0)
(0.109029 0.00759458 0)
(0.123866 0.0110313 0)
(0.135154 0.0142964 0)
(0.141512 0.018401 0)
(0.134098 0.0231702 0)
(0.0982358 0.0296141 0)
(0.0207279 0.0351791 0)
(-0.0358821 0.0255181 0)
(-0.0569041 0.0185402 0)
(-0.0648325 0.0118477 0)
(-0.0646231 0.00686377 0)
(-0.066106 0.00499184 0)
(-0.0668775 -0.00710244 0)
(-0.0627026 -0.022147 0)
(-0.0512229 -0.036373 0)
(-0.0347781 -0.0471521 0)
(-0.00843932 -0.0576945 0)
(0.00836995 -0.0250746 0)
(0.0264423 -0.0109497 0)
(0.0297115 -0.00979479 0)
(0.0342263 -0.011984 0)
(0.0453764 -0.0135502 0)
(0.061926 -0.0120793 0)
(0.0816278 -0.00855491 0)
(0.100173 -0.00414987 0)
(0.116895 8.02961e-05 0)
(0.136372 0.00865064 0)
(0.154957 0.0231917 0)
(0.168282 0.0442064 0)
(0.173827 0.0582259 0)
(0.183087 0.046618 0)
(0.173505 0.0321185 0)
(0.143934 0.0276181 0)
(0.0641401 0.0232781 0)
(-0.0161602 0.0128621 0)
(-0.0355447 -0.0127787 0)
(-0.0349875 -0.0267356 0)
(-0.027186 -0.0319843 0)
(-0.0186448 -0.0393841 0)
(0.00980501 -0.049375 0)
(0.00487914 -0.000551139 0)
(0.0172755 -0.00026381 0)
(0.0205401 -4.15883e-05 0)
(0.0280815 -0.00190954 0)
(0.0374231 -0.00303665 0)
(0.044336 -0.00210786 0)
(0.0467521 -0.000903 0)
(0.0451457 0.000384936 0)
(0.0420007 0.00015905 0)
(0.0427595 -0.00133939 0)
(0.0444738 -0.000949101 0)
(0.0427981 -0.000847006 0)
(0.0397883 -0.00230168 0)
(0.0457067 -0.00469752 0)
(0.0593845 -0.00452238 0)
(0.0644611 -0.00161733 0)
(0.0575034 0.00158332 0)
(0.0419313 0.00388562 0)
(0.0151682 0.00570296 0)
(0.00589648 -0.0098073 0)
(0.0168531 -0.00657739 0)
(0.0265139 -0.00506502 0)
(0.0383718 -0.00549898 0)
(0.0492688 -0.00487142 0)
(0.0568734 -0.00175025 0)
(0.0607613 0.000531215 0)
(0.0606719 0.00264152 0)
(0.059066 0.00191957 0)
(0.0605335 -0.00159749 0)
(0.0628307 0.00120085 0)
(0.0613239 0.00432304 0)
(0.0553877 0.00347757 0)
(0.0548159 -0.00407635 0)
(0.0625912 -0.00680519 0)
(0.063221 0.00133251 0)
(0.0579793 0.00913814 0)
(0.0418912 0.0141391 0)
(0.0160572 0.0181145 0)
(-0.00648057 -0.0115784 0)
(0.00233505 -0.00957606 0)
(0.0188251 -0.00793438 0)
(0.0418556 -0.0104529 0)
(0.0520195 -0.00994716 0)
(0.0552002 -0.00608342 0)
(0.0530977 -0.00286984 0)
(0.0533681 0.00186059 0)
(0.0606611 0.000126074 0)
(0.0578397 -0.00728975 0)
(0.0445471 -0.0018606 0)
(0.0411146 0.00317246 0)
(0.0429493 0.00198841 0)
(0.0534008 -0.0108566 0)
(0.0623661 -0.0124194 0)
(0.0608868 -0.00333937 0)
(0.0667313 0.00831439 0)
(0.0594499 0.022718 0)
(0.026754 0.0315796 0)
(-0.0383781 -0.003513 0)
(-0.0509032 -0.0100287 0)
(0.00381521 -0.0286184 0)
(0.0655913 -0.0239494 0)
(0.0666415 -0.0092588 0)
(0.035951 -0.00154872 0)
(0.00888109 0.0036225 0)
(0.0443876 -0.00226118 0)
(0.110517 0.000439165 0)
(0.107419 0.0159066 0)
(0.0309003 0.00665817 0)
(0.0141696 0.00518025 0)
(0.0453715 0.0019345 0)
(0.0617988 -0.00925718 0)
(0.065449 -0.00954685 0)
(0.0652866 0.000558126 0)
(0.0734813 0.0119821 0)
(0.0740728 0.0298386 0)
(0.0358097 0.0486083 0)
(-0.0819469 0.0186676 0)
(-0.0260008 -0.0257658 0)
(0.0123043 -0.0559618 0)
(0.0253692 -0.0296523 0)
(0.0275864 0.00098546 0)
(0.025925 0.00594472 0)
(0.0343952 -0.00191736 0)
(0.0606687 -0.0314203 0)
(0.0799147 -0.040247 0)
(0.165499 0.0245151 0)
(0.110736 0.0431898 0)
(0.0018778 -0.00326384 0)
(0.0930159 -0.0111075 0)
(0.0807502 -0.016943 0)
(0.0785835 -0.0190599 0)
(0.0821571 -0.0114122 0)
(0.0967818 0.00505473 0)
(0.0878355 0.0506733 0)
(0.0590596 0.0938548 0)
(-0.0560547 0.0332075 0)
(0.0668661 -0.0461155 0)
(0.0461254 -0.0574857 0)
(0.031627 -0.0282217 0)
(0.0122408 -0.00321068 0)
(0.0116202 -0.00108069 0)
(0.012219 -0.00691738 0)
(0.0500204 -0.0317748 0)
(0.00315538 -0.0648184 0)
(0.110735 0.0171787 0)
(0.0502704 0.0690418 0)
(0.0962705 -0.0119092 0)
(0.144488 -0.0249409 0)
(0.161261 -0.00850719 0)
(0.148843 -0.0185874 0)
(0.107446 -0.0135654 0)
(0.0704756 0.0136381 0)
(0.0479152 0.0495324 0)
(0.0373134 0.108199 0)
(-0.0270345 0.0321059 0)
(0.122588 -0.0630257 0)
(0.0814059 -0.0535291 0)
(0.05674 -0.0156419 0)
(0.0233988 0.0064806 0)
(0.00545113 0.00209217 0)
(-0.00674929 -0.011357 0)
(0.0210391 -0.0318634 0)
(-0.0561454 -0.0718831 0)
(0.0551898 0.0310768 0)
(0.00881176 0.0625493 0)
(0.114334 -0.0417754 0)
(0.157534 -0.0391345 0)
(0.178506 -0.0114011 0)
(0.161891 0.00645816 0)
(0.116575 0.0192945 0)
(0.0550646 0.0355759 0)
(0.00670769 0.0582574 0)
(0.0108663 0.116694 0)
(0.058903 -0.040916 0)
(0.170841 -0.0671573 0)
(0.120423 -0.0425292 0)
(0.0731538 0.00244745 0)
(0.0273111 0.0180117 0)
(0.00360421 0.00915469 0)
(-0.0145364 -0.00737925 0)
(-0.0242689 -0.0213588 0)
(-0.0884927 -0.0497775 0)
(-0.0752882 -0.0110126 0)
(0.0518404 0.0338395 0)
(0.103124 -0.0658414 0)
(0.13253 -0.0577537 0)
(0.160413 -0.0206322 0)
(0.146366 0.0107799 0)
(0.101078 0.0369743 0)
(0.0285441 0.060523 0)
(-0.0255366 0.0681744 0)
(-0.00752052 0.115819 0)
(-0.000252697 -0.0322834 0)
(0.00929789 -0.0138054 0)
(0.00103207 -0.00728381 0)
(0.0025778 -0.0116525 0)
(0.0145736 -0.0176833 0)
(0.0304967 -0.017165 0)
(0.0468021 -0.013143 0)
(0.0627262 -0.00960095 0)
(0.0785593 -0.00916893 0)
(0.0971263 -0.00377578 0)
(0.120956 0.00714054 0)
(0.15135 0.0228633 0)
(0.182916 0.0349174 0)
(0.207017 0.0343909 0)
(0.219028 0.0299079 0)
(0.228714 0.0433546 0)
(0.243334 0.0610456 0)
(0.245365 0.0439737 0)
(0.258335 0.0157182 0)
(0.230921 -0.00980185 0)
(0.153162 -0.0393838 0)
(0.0867265 -0.0824349 0)
(0.106584 -0.105356 0)
(-0.00947187 -0.0261985 0)
(-0.0114072 -0.0028093 0)
(-0.0204258 -0.00214757 0)
(-0.0122468 -0.0238543 0)
(0.00581179 -0.0401213 0)
(0.0255184 -0.0427554 0)
(0.0463348 -0.0384417 0)
(0.0645027 -0.0311009 0)
(0.0797445 -0.0288129 0)
(0.0991996 -0.0273499 0)
(0.125822 -0.0245025 0)
(0.15831 -0.0169742 0)
(0.193094 -0.00176047 0)
(0.223751 0.0107175 0)
(0.24702 0.0143446 0)
(0.265403 0.017163 0)
(0.285858 0.0165625 0)
(0.303601 0.00314133 0)
(0.312274 0.00731308 0)
(0.312843 0.0367767 0)
(0.303529 0.0530972 0)
(0.295622 0.0115212 0)
(0.25201 -0.0711509 0)
(0.00285531 -0.0226854 0)
(0.00620454 0.00070488 0)
(-0.00845799 -0.00671161 0)
(-0.00553388 -0.0378583 0)
(0.00195202 -0.0572151 0)
(0.0174418 -0.0622306 0)
(0.0369379 -0.0568553 0)
(0.058508 -0.0451153 0)
(0.08166 -0.045632 0)
(0.110445 -0.0522913 0)
(0.139174 -0.0531714 0)
(0.16645 -0.0489975 0)
(0.193625 -0.0343368 0)
(0.220904 -0.0183814 0)
(0.245417 -0.00556563 0)
(0.262266 0.000794872 0)
(0.273032 0.00413103 0)
(0.27846 0.00645377 0)
(0.275198 0.0155711 0)
(0.264552 0.0294469 0)
(0.246238 0.0274582 0)
(0.214173 -0.000623966 0)
(0.1598 -0.0117628 0)
(0.00709786 -0.0368205 0)
(0.0182961 0.00868049 0)
(0.0107079 0.0032038 0)
(0.013591 -0.0389246 0)
(0.0173247 -0.0671527 0)
(0.0283226 -0.0797058 0)
(0.0455083 -0.0824806 0)
(0.0717017 -0.0768315 0)
(0.105368 -0.0822383 0)
(0.137542 -0.0871332 0)
(0.161845 -0.0790776 0)
(0.179128 -0.0707736 0)
(0.193781 -0.0565607 0)
(0.209616 -0.0411081 0)
(0.228149 -0.0243608 0)
(0.241324 -0.0079128 0)
(0.241288 0.000871818 0)
(0.234156 0.00819168 0)
(0.222086 0.027919 0)
(0.202838 0.0548094 0)
(0.172647 0.069043 0)
(0.130842 0.0692838 0)
(0.0575316 0.0767065 0)
(-0.0147114 -0.0392982 0)
(0.0120686 0.00430519 0)
(0.0603309 -0.00259698 0)
(0.0907105 -0.0316783 0)
(0.107749 -0.0614758 0)
(0.113877 -0.0808775 0)
(0.120324 -0.0952856 0)
(0.134655 -0.100962 0)
(0.155906 -0.109464 0)
(0.176642 -0.111004 0)
(0.1953 -0.0951292 0)
(0.209901 -0.0792461 0)
(0.219112 -0.0648509 0)
(0.22531 -0.0537453 0)
(0.236321 -0.0428193 0)
(0.246442 -0.0149227 0)
(0.239788 0.00866211 0)
(0.216985 0.0246753 0)
(0.18475 0.052538 0)
(0.147764 0.0846683 0)
(0.106238 0.107499 0)
(0.0651849 0.123479 0)
(0.0333059 0.124771 0)
(-0.0238129 -0.0345716 0)
(0.0319615 -0.0663414 0)
(0.088814 -0.075217 0)
(0.141531 -0.0818767 0)
(0.18292 -0.0885494 0)
(0.211612 -0.094316 0)
(0.228755 -0.101104 0)
(0.238789 -0.108255 0)
(0.24559 -0.11761 0)
(0.251291 -0.121773 0)
(0.259006 -0.112032 0)
(0.269886 -0.0953547 0)
(0.277019 -0.0732601 0)
(0.270789 -0.0513978 0)
(0.254535 -0.038127 0)
(0.242222 -0.00742327 0)
(0.234004 0.029558 0)
(0.21308 0.0609294 0)
(0.175143 0.0982572 0)
(0.132407 0.132515 0)
(0.0986548 0.153379 0)
(0.0736044 0.157508 0)
(0.05762 0.144458 0)
(0.0256979 -0.05891 0)
(0.0701414 -0.111468 0)
(0.108773 -0.123173 0)
(0.145262 -0.126223 0)
(0.17921 -0.127278 0)
(0.21033 -0.126991 0)
(0.239055 -0.125602 0)
(0.265337 -0.125489 0)
(0.286997 -0.126545 0)
(0.301384 -0.124129 0)
(0.308568 -0.113039 0)
(0.311229 -0.0938953 0)
(0.311797 -0.0669497 0)
(0.310212 -0.0397236 0)
(0.298261 -0.0238067 0)
(0.277434 -0.000572101 0)
(0.255746 0.0346894 0)
(0.234707 0.0753329 0)
(0.208777 0.120988 0)
(0.174224 0.158828 0)
(0.135224 0.176934 0)
(0.100343 0.169543 0)
(0.0761538 0.146682 0)
(0.0432629 -0.12883 0)
(0.0858376 -0.156011 0)
(0.120884 -0.161251 0)
(0.151468 -0.161887 0)
(0.182116 -0.16238 0)
(0.214108 -0.162382 0)
(0.246942 -0.161351 0)
(0.279175 -0.159771 0)
(0.308913 -0.155872 0)
(0.333896 -0.145905 0)
(0.351803 -0.126767 0)
(0.361836 -0.0990407 0)
(0.365104 -0.0631842 0)
(0.366143 -0.0238638 0)
(0.369911 0.0103077 0)
(0.371755 0.0446022 0)
(0.364444 0.0822779 0)
(0.347559 0.11975 0)
(0.31535 0.164901 0)
(0.257213 0.206336 0)
(0.172211 0.218824 0)
(0.0946822 0.19493 0)
(0.0456509 0.160816 0)
(0.0488316 -0.188401 0)
(0.0928702 -0.194676 0)
(0.128942 -0.193248 0)
(0.159057 -0.19195 0)
(0.189991 -0.192469 0)
(0.224129 -0.193122 0)
(0.260098 -0.19218 0)
(0.296515 -0.189958 0)
(0.332876 -0.185185 0)
(0.367911 -0.174343 0)
(0.400681 -0.154832 0)
(0.431631 -0.129611 0)
(0.457921 -0.101255 0)
(0.481717 -0.0751206 0)
(0.511141 -0.0515033 0)
(0.535958 -0.0135866 0)
(0.557787 0.0378671 0)
(0.572877 0.101321 0)
(0.557374 0.182977 0)
(0.479846 0.274627 0)
(0.284368 0.302481 0)
(0.0733136 0.254246 0)
(-0.0151315 0.20092 0)
(0.0457699 -0.253978 0)
(0.0817888 -0.225049 0)
(0.123468 -0.21523 0)
(0.163512 -0.211335 0)
(0.204146 -0.214159 0)
(0.243699 -0.217973 0)
(0.278157 -0.217353 0)
(0.31254 -0.215299 0)
(0.352657 -0.207955 0)
(0.396384 -0.192085 0)
(0.44341 -0.167894 0)
(0.495319 -0.135593 0)
(0.535769 -0.0900083 0)
(0.535503 -0.0514384 0)
(0.54533 -0.0401272 0)
(0.583195 0.00207388 0)
(0.636074 0.0349825 0)
(0.669333 0.0884175 0)
(0.694153 0.185692 0)
(0.718079 0.354077 0)
(0.725267 0.694882 0)
(0.276905 0.520384 0)
(0.00375086 0.276073 0)
(0.0227448 -0.32664 0)
(0.0654284 -0.273763 0)
(0.112081 -0.268514 0)
(0.15235 -0.268505 0)
(0.189128 -0.272123 0)
(0.226422 -0.273069 0)
(0.26601 -0.268686 0)
(0.306435 -0.274316 0)
(0.341936 -0.281 0)
(0.38402 -0.265787 0)
(0.422202 -0.249852 0)
(0.448219 -0.219595 0)
(0.4629 -0.131154 0)
(0.507381 -0.0696744 0)
(0.56073 -0.0950016 0)
(0.591081 -0.0471808 0)
(0.601667 -0.0338006 0)
(0.629834 0.0824205 0)
(0.657088 0.236505 0)
(0.667248 0.449628 0)
(0.577018 0.875939 0)
(0.326719 0.68863 0)
(0.365638 0.581597 0)
(0.00526492 -0.349011 0)
(0.0319821 -0.316086 0)
(0.057282 -0.305498 0)
(0.0811131 -0.303177 0)
(0.10075 -0.305378 0)
(0.121439 -0.306713 0)
(0.142645 -0.304762 0)
(0.162428 -0.308574 0)
(0.169531 -0.310746 0)
(0.181547 -0.297125 0)
(0.182437 -0.27422 0)
(0.192901 -0.230034 0)
(0.220238 -0.189209 0)
(0.249107 -0.175344 0)
(0.273273 -0.157583 0)
(0.305936 -0.10387 0)
(0.310302 -0.0525744 0)
(0.349045 -0.0102502 0)
(0.407761 0.18248 0)
(0.311003 0.509147 0)
(0.159499 0.977376 0)
(0.202864 0.869329 0)
(0.238335 0.601885 0)
(-0.00288784 -0.355932 0)
(0.00579969 -0.334763 0)
(0.011115 -0.319223 0)
(0.0179353 -0.313881 0)
(0.0186634 -0.314777 0)
(0.0179927 -0.312608 0)
(0.0156718 -0.305537 0)
(0.0101584 -0.30192 0)
(-0.00904736 -0.294113 0)
(-0.0207298 -0.266148 0)
(-0.0395048 -0.242398 0)
(-0.0460585 -0.207414 0)
(-0.0538677 -0.151617 0)
(-0.0687673 -0.123662 0)
(-0.0903749 -0.0973521 0)
(-0.105991 -0.0706961 0)
(-0.141584 -0.0332977 0)
(-0.169651 0.0613406 0)
(-0.171731 0.289212 0)
(-0.156941 0.674985 0)
(-0.0982816 0.941955 0)
(0.0409877 0.745082 0)
(0.133728 0.513469 0)
(-0.0075268 -0.349784 0)
(-0.0110461 -0.332214 0)
(-0.0185496 -0.314872 0)
(-0.0252612 -0.30672 0)
(-0.0384949 -0.30301 0)
(-0.0552313 -0.295386 0)
(-0.0739968 -0.284164 0)
(-0.0950177 -0.275141 0)
(-0.118036 -0.262575 0)
(-0.141611 -0.245756 0)
(-0.168105 -0.228381 0)
(-0.195123 -0.200516 0)
(-0.217353 -0.158969 0)
(-0.238209 -0.12661 0)
(-0.260389 -0.10477 0)
(-0.289835 -0.0719752 0)
(-0.328219 -0.0149971 0)
(-0.362764 0.090311 0)
(-0.371347 0.279594 0)
(-0.326138 0.524244 0)
(-0.191706 0.676651 0)
(-0.00848494 0.56928 0)
(0.0986597 0.447336 0)
(-0.0108913 -0.33636 0)
(-0.0222126 -0.320483 0)
(-0.0371458 -0.302501 0)
(-0.0517438 -0.291102 0)
(-0.0716201 -0.282922 0)
(-0.0943071 -0.273242 0)
(-0.117051 -0.26403 0)
(-0.138718 -0.257331 0)
(-0.160701 -0.243719 0)
(-0.185146 -0.223727 0)
(-0.211458 -0.200102 0)
(-0.235833 -0.167887 0)
(-0.255324 -0.131291 0)
(-0.272656 -0.100881 0)
(-0.293766 -0.0722612 0)
(-0.321702 -0.0348935 0)
(-0.352789 0.0214217 0)
(-0.378805 0.109514 0)
(-0.37337 0.240434 0)
(-0.307409 0.398997 0)
(-0.163227 0.485251 0)
(-0.00489986 0.431303 0)
(0.0901387 0.364834 0)
(-0.0130579 -0.317796 0)
(-0.0291596 -0.30349 0)
(-0.04843 -0.285859 0)
(-0.0664692 -0.272608 0)
(-0.087387 -0.261974 0)
(-0.10912 -0.251626 0)
(-0.129635 -0.243311 0)
(-0.148148 -0.237639 0)
(-0.165287 -0.223689 0)
(-0.184082 -0.204319 0)
(-0.20474 -0.182771 0)
(-0.223358 -0.155121 0)
(-0.237415 -0.123985 0)
(-0.24899 -0.0934396 0)
(-0.263523 -0.0595027 0)
(-0.28204 -0.016649 0)
(-0.300827 0.0392179 0)
(-0.310741 0.112903 0)
(-0.29198 0.205251 0)
(-0.227091 0.296056 0)
(-0.110573 0.338106 0)
(0.00378081 0.32003 0)
(0.0789305 0.294881 0)
(-0.0143837 -0.295631 0)
(-0.0334848 -0.282716 0)
(-0.0552975 -0.266064 0)
(-0.0746836 -0.252561 0)
(-0.0946092 -0.241593 0)
(-0.113704 -0.232384 0)
(-0.131434 -0.225936 0)
(-0.148842 -0.221286 0)
(-0.165 -0.207234 0)
(-0.18085 -0.18639 0)
(-0.197303 -0.16395 0)
(-0.212371 -0.138558 0)
(-0.224042 -0.110597 0)
(-0.232403 -0.0797128 0)
(-0.240208 -0.0439706 0)
(-0.248838 -0.00141258 0)
(-0.254125 0.049721 0)
(-0.24937 0.107645 0)
(-0.224259 0.167306 0)
(-0.170141 0.216857 0)
(-0.0917336 0.240905 0)
(-0.0162742 0.242737 0)
(0.0458423 0.239174 0)
(-0.0150443 -0.271415 0)
(-0.0357931 -0.25998 0)
(-0.0589055 -0.245038 0)
(-0.0789217 -0.232616 0)
(-0.0982596 -0.222451 0)
(-0.116316 -0.21437 0)
(-0.133755 -0.20849 0)
(-0.152559 -0.203075 0)
(-0.171657 -0.190329 0)
(-0.188975 -0.170544 0)
(-0.204899 -0.148788 0)
(-0.218634 -0.125467 0)
(-0.229483 -0.101125 0)
(-0.237557 -0.0736725 0)
(-0.242582 -0.0395729 0)
(-0.243468 0.00104413 0)
(-0.238305 0.0467866 0)
(-0.223941 0.0922747 0)
(-0.19653 0.132426 0)
(-0.154561 0.161047 0)
(-0.102872 0.176857 0)
(-0.0526815 0.184047 0)
(0.00290227 0.188143 0)
(-0.0151978 -0.246371 0)
(-0.0364882 -0.236509 0)
(-0.0597703 -0.223592 0)
(-0.0796964 -0.212773 0)
(-0.0985662 -0.203739 0)
(-0.116438 -0.196304 0)
(-0.134381 -0.189903 0)
(-0.153516 -0.182664 0)
(-0.173047 -0.170724 0)
(-0.190506 -0.153363 0)
(-0.204869 -0.13381 0)
(-0.216592 -0.113284 0)
(-0.226277 -0.0919641 0)
(-0.23386 -0.0675914 0)
(-0.237795 -0.03774 0)
(-0.235895 -0.00275956 0)
(-0.22658 0.035441 0)
(-0.209205 0.0715083 0)
(-0.183322 0.100947 0)
(-0.150253 0.121069 0)
(-0.113205 0.132678 0)
(-0.0759368 0.138491 0)
(-0.0333139 0.142246 0)
(-0.0149403 -0.221445 0)
(-0.0360067 -0.213279 0)
(-0.0586799 -0.202642 0)
(-0.0777897 -0.19369 0)
(-0.0955433 -0.185905 0)
(-0.112177 -0.178997 0)
(-0.128637 -0.172297 0)
(-0.145368 -0.164383 0)
(-0.161716 -0.153535 0)
(-0.176395 -0.139263 0)
(-0.188689 -0.122512 0)
(-0.198635 -0.104119 0)
(-0.206519 -0.0843754 0)
(-0.212229 -0.0625079 0)
(-0.214823 -0.0372966 0)
(-0.212525 -0.00849216 0)
(-0.203718 0.0220311 0)
(-0.188146 0.0507647 0)
(-0.166435 0.0740913 0)
(-0.140629 0.0904169 0)
(-0.11289 0.100144 0)
(-0.0844815 0.104484 0)
(-0.0542541 0.105881 0)
(-0.0145344 -0.197064 0)
(-0.0350704 -0.190692 0)
(-0.0568648 -0.18255 0)
(-0.0749473 -0.175745 0)
(-0.0913813 -0.169545 0)
(-0.106323 -0.163575 0)
(-0.120505 -0.157254 0)
(-0.134211 -0.149625 0)
(-0.147146 -0.13974 0)
(-0.15866 -0.127338 0)
(-0.16828 -0.112793 0)
(-0.17591 -0.0965568 0)
(-0.181678 -0.0787854 0)
(-0.185476 -0.0591729 0)
(-0.186686 -0.0373369 0)
(-0.184287 -0.013472 0)
(-0.177017 0.0110097 0)
(-0.164384 0.0339654 0)
(-0.147404 0.0529914 0)
(-0.127711 0.0669221 0)
(-0.106752 0.0756984 0)
(-0.0853947 0.0797144 0)
(-0.0644991 0.0801748 0)
(-0.0141232 -0.17341 0)
(-0.0341351 -0.168839 0)
(-0.0551912 -0.163295 0)
(-0.07248 -0.158814 0)
(-0.0879206 -0.154476 0)
(-0.101557 -0.149847 0)
(-0.113949 -0.144431 0)
(-0.125317 -0.137613 0)
(-0.13559 -0.128853 0)
(-0.144497 -0.117974 0)
(-0.151804 -0.105141 0)
(-0.157436 -0.0906277 0)
(-0.161434 -0.0745932 0)
(-0.16368 -0.0570103 0)
(-0.163719 -0.0379375 0)
(-0.160926 -0.0178197 0)
(-0.154619 0.00240735 0)
(-0.1445 0.0211632 0)
(-0.131351 0.0370342 0)
(-0.116225 0.0491704 0)
(-0.100193 0.0573282 0)
(-0.0840403 0.0616298 0)
(-0.069141 0.0627013 0)
(-0.0138056 -0.150353 0)
(-0.033416 -0.147548 0)
(-0.0539351 -0.144633 0)
(-0.0707061 -0.142572 0)
(-0.0854906 -0.140295 0)
(-0.0982254 -0.137336 0)
(-0.109328 -0.133266 0)
(-0.118979 -0.127657 0)
(-0.127252 -0.120172 0)
(-0.134132 -0.110704 0)
(-0.139604 -0.0993652 0)
(-0.143668 -0.0863746 0)
(-0.146306 -0.07192 0)
(-0.147391 -0.0561462 0)
(-0.146601 -0.0393354 0)
(-0.143595 -0.0219877 0)
(-0.138 -0.00483497 0)
(-0.1297 0.0109859 0)
(-0.119276 0.0246153 0)
(-0.107404 0.035432 0)
(-0.0948188 0.0431679 0)
(-0.0822544 0.0479019 0)
(-0.0709603 0.0499846 0)
(-0.0135516 -0.127776 0)
(-0.0328531 -0.126679 0)
(-0.0529771 -0.126387 0)
(-0.0693698 -0.126808 0)
(-0.0836327 -0.12677 0)
(-0.0956093 -0.125789 0)
(-0.105593 -0.12346 0)
(-0.113747 -0.119418 0)
(-0.120267 -0.113376 0)
(-0.125355 -0.105252 0)
(-0.129208 -0.0951868 0)
(-0.131943 -0.0834573 0)
(-0.133554 -0.0703623 0)
(-0.1339 -0.0561835 0)
(-0.132738 -0.0412466 0)
(-0.129823 -0.0260347 0)
(-0.124997 -0.0111422 0)
(-0.118265 0.00265328 0)
(-0.109878 0.0146749 0)
(-0.100422 0.0245039 0)
(-0.0904177 0.0319242 0)
(-0.080396 0.0369748 0)
(-0.0713786 0.039843 0)
(-0.0133521 -0.105568 0)
(-0.0323888 -0.106145 0)
(-0.0521473 -0.108498 0)
(-0.0681612 -0.111483 0)
(-0.0818736 -0.113876 0)
(-0.0930587 -0.115168 0)
(-0.101919 -0.114941 0)
(-0.108627 -0.112781 0)
(-0.113502 -0.108347 0)
(-0.116943 -0.101527 0)
(-0.119329 -0.0925136 0)
(-0.120891 -0.0817047 0)
(-0.121676 -0.0695642 0)
(-0.121567 -0.056548 0)
(-0.12035 -0.043078 0)
(-0.117817 -0.0295406 0)
(-0.113864 -0.0163766 0)
(-0.108482 -0.00411762 0)
(-0.101848 0.00670302 0)
(-0.0943667 0.015763 0)
(-0.0864018 0.0228989 0)
(-0.0783697 0.0281212 0)
(-0.0710856 0.0314609 0)
(-0.0131574 -0.0837192 0)
(-0.0319534 -0.085933 0)
(-0.0513184 -0.0909821 0)
(-0.0668854 -0.0966559 0)
(-0.0799524 -0.10169 0)
(-0.090244 -0.105534 0)
(-0.0979165 -0.107702 0)
(-0.103198 -0.107652 0)
(-0.106551 -0.104897 0)
(-0.10855 -0.0992815 0)
(-0.109703 -0.0910921 0)
(-0.110298 -0.0809256 0)
(-0.110416 -0.0694273 0)
(-0.109981 -0.0571783 0)
(-0.108831 -0.0446708 0)
(-0.106769 -0.0323274 0)
(-0.103672 -0.020488 0)
(-0.0995378 -0.00943734 0)
(-0.0944265 0.000437588 0)
(-0.0885857 0.00885976 0)
(-0.0823563 0.0157191 0)
(-0.075987 0.020981 0)
(-0.0701274 0.0245665 0)
(-0.0129364 -0.0622334 0)
(-0.0314898 -0.0660978 0)
(-0.0504001 -0.0739127 0)
(-0.0654093 -0.0824309 0)
(-0.0777065 -0.0903309 0)
(-0.0869819 -0.0969916 0)
(-0.0933831 -0.101792 0)
(-0.0972522 -0.103976 0)
(-0.0992344 -0.102866 0)
(-0.100043 -0.0982863 0)
(-0.100232 -0.0906769 0)
(-0.100089 -0.0808767 0)
(-0.0997097 -0.0697278 0)
(-0.0990652 -0.0579373 0)
(-0.098029 -0.04605 0)
(-0.0964292 -0.034482 0)
(-0.0941167 -0.0235484 0)
(-0.0910323 -0.0134581 0)
(-0.0872465 -0.00434957 0)
(-0.0828539 0.0035399 0)
(-0.0780826 0.0101198 0)
(-0.073148 0.0153383 0)
(-0.0685535 0.0190106 0)
(-0.0126788 -0.0411405 0)
(-0.0309112 -0.046703 0)
(-0.0492624 -0.0574155 0)
(-0.0635726 -0.0689453 0)
(-0.0749629 -0.0799275 0)
(-0.0831064 -0.0896374 0)
(-0.0881696 -0.097242 0)
(-0.0906736 -0.101668 0)
(-0.0914879 -0.102032 0)
(-0.0913936 -0.0982476 0)
(-0.0909011 -0.0909996 0)
(-0.0902529 -0.0813658 0)
(-0.0895375 -0.0703398 0)
(-0.0887693 -0.0587332 0)
(-0.0878681 -0.0471732 0)
(-0.0866886 -0.0360925 0)
(-0.0850717 -0.0257575 0)
(-0.082911 -0.0163272 0)
(-0.0802153 -0.00788027 0)
(-0.0770551 -0.00044024 0)
(-0.0735452 0.00587571 0)
(-0.0698573 0.0110026 0)
(-0.0663647 0.0146738 0)
(-0.0122751 -0.020734 0)
(-0.0300658 -0.0278791 0)
(-0.0477255 -0.0416141 0)
(-0.0611995 -0.0563274 0)
(-0.0715701 -0.0705917 0)
(-0.0785166 -0.0835295 0)
(-0.0822387 -0.0940174 0)
(-0.0834967 -0.100563 0)
(-0.0833994 -0.102121 0)
(-0.0826901 -0.0988726 0)
(-0.0817784 -0.0918061 0)
(-0.0808408 -0.0822007 0)
(-0.0799365 -0.0711457 0)
(-0.0791081 -0.059521 0)
(-0.0783356 -0.0480413 0)
(-0.0775186 -0.0371988 0)
(-0.0764996 -0.0272462 0)
(-0.0751358 -0.0182749 0)
(-0.0733601 -0.0102993 0)
(-0.0712415 -0.00326818 0)
(-0.0687974 0.00279959 0)
(-0.0661749 0.00780787 0)
(-0.0636664 0.0114226 0)
(-0.0113042 -0.000211985 0)
(-0.0283586 -0.00945465 0)
(-0.0454533 -0.0265694 0)
(-0.0581093 -0.0446238 0)
(-0.0674668 -0.0623563 0)
(-0.0732449 -0.0786489 0)
(-0.0756928 -0.0920303 0)
(-0.0758942 -0.100443 0)
(-0.0751844 -0.102844 0)
(-0.0741237 -0.0999064 0)
(-0.0730158 -0.0928651 0)
(-0.0719711 -0.0831994 0)
(-0.0710109 -0.0720421 0)
(-0.0701698 -0.0602833 0)
(-0.0694887 -0.0487017 0)
(-0.0689412 -0.0378775 0)
(-0.0683968 -0.0281054 0)
(-0.0676921 -0.0194357 0)
(-0.0667084 -0.0117991 0)
(-0.0654309 -0.00510113 0)
(-0.063912 0.000739339 0)
(-0.0621999 0.00561327 0)
(-0.0605136 0.00914555 0)
(-0.00995497 0.0175569 0)
(-0.0255446 0.00831515 0)
(-0.0420199 -0.0120799 0)
(-0.054072 -0.0337767 0)
(-0.062615 -0.0551188 0)
(-0.0673765 -0.0749093 0)
(-0.068665 -0.0911788 0)
(-0.0680684 -0.101068 0)
(-0.0670689 -0.103915 0)
(-0.0659022 -0.101118 0)
(-0.0647886 -0.0939904 0)
(-0.0637904 -0.0842097 0)
(-0.0628925 -0.0729397 0)
(-0.0620831 -0.0610209 0)
(-0.0614417 -0.0492359 0)
(-0.0610356 -0.0382541 0)
(-0.0608121 -0.0284692 0)
(-0.0606128 -0.019951 0)
(-0.0602721 -0.0125614 0)
(-0.0597087 -0.00612065 0)
(-0.0589494 -0.00049541 0)
(-0.0580055 0.0042557 0)
(-0.0570323 0.00771563 0)
(-0.00854264 0.0333158 0)
(-0.0223591 0.023716 0)
(-0.0373447 0.00186578 0)
(-0.0488429 -0.0236011 0)
(-0.0567521 -0.0486579 0)
(-0.0606987 -0.072144 0)
(-0.0610708 -0.0912826 0)
(-0.0600992 -0.102156 0)
(-0.0591348 -0.105048 0)
(-0.0581142 -0.1023 0)
(-0.0571951 -0.0950267 0)
(-0.0563973 -0.0851017 0)
(-0.0556817 -0.0737491 0)
(-0.0549625 -0.0617297 0)
(-0.0543248 -0.0497402 0)
(-0.0539193 -0.0384896 0)
(-0.0538223 -0.0285102 0)
(-0.0539403 -0.0199718 0)
(-0.05408 -0.0127159 0)
(-0.0540905 -0.00647333 0)
(-0.0539452 -0.00103588 0)
(-0.0536295 0.00359963 0)
(-0.0532297 0.00699708 0)
(-0.00686145 0.0469537 0)
(-0.0185959 0.0375907 0)
(-0.0317183 0.0140041 0)
(-0.0419976 -0.0140595 0)
(-0.0493034 -0.0428221 0)
(-0.0524919 -0.0700749 0)
(-0.0524194 -0.0919207 0)
(-0.0517863 -0.103294 0)
(-0.0512215 -0.105956 0)
(-0.0506236 -0.103215 0)
(-0.0501692 -0.0957813 0)
(-0.049772 -0.0857261 0)
(-0.0493878 -0.0743642 0)
(-0.0488544 -0.0623688 0)
(-0.0482263 -0.0502848 0)
(-0.0477097 -0.0387557 0)
(-0.04753 -0.0284401 0)
(-0.0477397 -0.0196924 0)
(-0.0481679 -0.0124245 0)
(-0.0486034 -0.00630198 0)
(-0.0489273 -0.00101963 0)
(-0.0491103 0.00350592 0)
(-0.0491817 0.0068478 0)
(-0.004901 0.0577023 0)
(-0.0139589 0.0492389 0)
(-0.0247593 0.0244844 0)
(-0.0331129 -0.0055105 0)
(-0.0395512 -0.0375993 0)
(-0.0418967 -0.0682744 0)
(-0.0420003 -0.0922973 0)
(-0.0425577 -0.103734 0)
(-0.0428855 -0.106288 0)
(-0.0431051 -0.103502 0)
(-0.043488 -0.0959506 0)
(-0.0437691 -0.0858652 0)
(-0.0439041 -0.0746367 0)
(-0.0436917 -0.062854 0)
(-0.0431459 -0.0508784 0)
(-0.0424748 -0.0391949 0)
(-0.0420339 -0.028486 0)
(-0.0420828 -0.0193403 0)
(-0.0425712 -0.0118697 0)
(-0.0432495 -0.00575214 0)
(-0.0439135 -0.000576011 0)
(-0.044474 0.00385179 0)
(-0.0448774 0.00715386 0)
(-0.00286742 0.0650984 0)
(-0.00880543 0.0581146 0)
(-0.0169039 0.0326046 0)
(-0.0226128 0.00121647 0)
(-0.0275591 -0.0332098 0)
(-0.0287241 -0.0663371 0)
(-0.0296801 -0.091445 0)
(-0.0319535 -0.102709 0)
(-0.033668 -0.105502 0)
(-0.0352758 -0.102648 0)
(-0.0369127 -0.095137 0)
(-0.0381785 -0.0852416 0)
(-0.0390336 -0.0743763 0)
(-0.0392901 -0.0630554 0)
(-0.0389512 -0.0514617 0)
(-0.0381832 -0.039865 0)
(-0.0373892 -0.0288437 0)
(-0.0370454 -0.0191642 0)
(-0.0373379 -0.0112664 0)
(-0.0380685 -0.00498741 0)
(-0.0389186 0.000161118 0)
(-0.0397432 0.00451524 0)
(-0.0403957 0.00779503 0)
(-0.00104658 0.0690292 0)
(-0.00373351 0.0639313 0)
(-0.00910266 0.0380639 0)
(-0.011975 0.00562255 0)
(-0.0144205 -0.0303409 0)
(-0.014205 -0.0644862 0)
(-0.0164705 -0.0889462 0)
(-0.0203755 -0.0999491 0)
(-0.023792 -0.103013 0)
(-0.0272096 -0.100196 0)
(-0.030372 -0.0929976 0)
(-0.0328162 -0.0836157 0)
(-0.0345258 -0.0734127 0)
(-0.0353719 -0.0628296 0)
(-0.0353741 -0.0519127 0)
(-0.0346524 -0.0407187 0)
(-0.0335593 -0.0296209 0)
(-0.0326824 -0.0193982 0)
(-0.0325203 -0.0108531 0)
(-0.033077 -0.00418615 0)
(-0.0339731 0.00105943 0)
(-0.0349534 0.00538312 0)
(-0.0357471 0.00864974 0)
(0.000257412 0.0698337 0)
(0.000637069 0.0667857 0)
(-0.001968 0.0409107 0)
(-0.00198359 0.00752274 0)
(-0.00167375 -0.0298884 0)
(-0.00078886 -0.0631027 0)
(-0.00399032 -0.0851399 0)
(-0.0090697 -0.0955658 0)
(-0.0142175 -0.0986123 0)
(-0.0193774 -0.0960108 0)
(-0.0239958 -0.0894382 0)
(-0.0275678 -0.0809217 0)