/*--------------------------------*- C++ -*----------------------------------*\
| =========                 |                                                 |
| \\      /  F ield         | OpenFOAM: The Open Source CFD Toolbox           |
|  \\    /   O peration     | Version:  2312                                  |
|   \\  /    A nd           | Website:  www.openfoam.com                      |
|    \\/     M anipulation  |                                                 |
\*---------------------------------------------------------------------------*/
FoamFile
{
    version     2.0;
    format      ascii;
    arch        "LSB;label=32;scalar=64";
    class       volScalarField;
    location    "4.1";
    object      alpha.water;
}
// * * * * * * * * * * * * * * * * * * * * * * * * * * * * * * * * * * * * * //

dimensions      [0 0 0 0 0 0 0];

internalField   nonuniform List<scalar> 
2268
(
3.66894e-07
2.88275e-07
2.9563e-08
2.96752e-09
1.12441e-09
2.97753e-10
1.12995e-10
9.18003e-11
6.34693e-11
5.79622e-11
5.57778e-11
5.66626e-11
6.19769e-11
7.36448e-11
9.2351e-11
1.22722e-10
1.6266e-10
2.21349e-10
3.11244e-10
5.96423e-10
1.03875e-09
1.36252e-09
1.44928e-09
3.6683e-07
2.07559e-07
2.47563e-08
1.76561e-10
3.0364e-10
1.98621e-10
1.3127e-10
1.11542e-10
1.11873e-10
1.16676e-10
1.02745e-10
9.50937e-11
1.00793e-10
1.13809e-10
1.33708e-10
1.84452e-10
2.87305e-10
4.97775e-10
6.50848e-10
9.50721e-10
1.46664e-09
1.59992e-09
1.56588e-09
1.15948e-07
5.66459e-08
9.41041e-09
1.76023e-10
1.84235e-10
2.42326e-10
3.79165e-10
6.15037e-10
7.67375e-10
6.7859e-10
2.98449e-10
1.41494e-10
1.27439e-10
1.29318e-10
1.62061e-10
4.76555e-10
1.36827e-09
1.77667e-09
1.38154e-09
9.08929e-10
1.5475e-09
1.01159e-09
9.74457e-10
3.70802e-08
1.78735e-08
3.61448e-09
2.79686e-10
1.85757e-10
4.92277e-10
1.77437e-09
2.47795e-09
2.42779e-09
1.68136e-09
6.21401e-10
1.28458e-10
4.26384e-10
5.3034e-11
5.28453e-11
5.25506e-11
5.28453e-11
5.25506e-11
5.28453e-11
5.25506e-11
5.22747e-11
5.21886e-11
5.22544e-11
9.3757e-09
3.96212e-09
7.92734e-10
9.86365e-11
5.93792e-11
1.29091e-10
1.59595e-10
6.67992e-15
-1.61656e-12
-6.51406e-13
-1.32803e-13
3.59102e-18
7.37156e-08
6.88415e-09
1.72376e-06
0.000889748
0.00206527
0.00329409
0.00743276
0.0168363
0.0425763
0.0506408
0.0619117
1.06479e-17
1.64895e-18
5.41711e-20
9.57658e-22
5.3254e-22
7.86573e-22
2.37076e-15
0.00137115
0.0178261
0.0541544
0.104178
0.162036
0.223017
0.288494
0.37025
0.454033
0.472938
0.485384
0.523493
0.563644
0.639271
0.698936
0.731939
0.0711073
0.0793006
0.0886967
0.106812
0.142411
0.209673
0.320171
0.468143
0.63189
0.751119
0.836635
0.898695
0.93816
0.955599
0.973913
0.973944
0.953796
0.939626
0.927922
0.897761
0.876797
0.922077
0.9568
0.775422
0.785495
0.79802
0.822173
0.861231
0.912544
0.962824
0.999702
0.999702
0.999702
0.999701
0.999576
0.99821
0.978704
0.972275
0.971675
0.981701
0.984074
0.984063
0.984075
0.926607
0.900163
0.941717
0.0141999
0.0133184
0.0117844
0.00770318
0.00515957
0.00667928
0.0112527
0.0133865
0.0132512
0.0130006
0.0137483
0.0143242
0.0143211
0.0111245
0.00680447
0.00682242
0.00479807
0.00542359
0.005456
0.0883711
0.00320528
0.00197834
0.00199575
0.00199417
0.00200091
0.00202304
0.00271252
0.00193324
0.00193291
0.00205871
0.00341552
0.00355443
0.00226887
0.00161706
0.00164573
0.00175417
0.00188141
0.00249074
0.365764
0.44953
0.60151
0.581944
0.397328
0.227523
0.0912896
0.0771356
0.103437
0.0710694
0.0116287
0.00123704
0.00123913
0.00123834
0.00124067
0.00124027
0.00124204
0.00124177
0.00144075
0.746524
0.940266
0.939959
0.960542
0.964972
0.965439
0.943238
0.692791
0.587026
0.596207
0.32623
0.240776
0.137556
0.0369499
0.00268396
0.0345835
0.138298
0.245288
0.254422
0.789182
0.943394
0.959047
0.941112
0.939886
0.957159
0.964913
0.952906
0.715065
0.712804
0.873498
0.831761
0.502432
0.531028
0.504774
0.513015
0.724887
0.832554
0.5222
0.707218
0.881841
0.991844
0.960203
0.900131
0.882802
0.930687
0.964559
0.926295
0.924402
0.953348
0.958241
0.800409
0.842086
0.879493
0.893969
0.913168
0.913313
0.881839
0.707253
0.89862
0.991816
0.991927
0.94444
0.860059
0.874149
0.963978
0.971428
0.971435
0.964196
0.959651
0.958799
0.950702
0.83554
0.897485
0.913052
0.912844
0.896958
0.887335
0.978099
0.991526
0.991961
0.937926
0.855568
0.913315
0.971426
0.971426
0.961252
0.924689
0.945926
0.958027
0.897494
0.762643
0.856955
0.912211
0.912883
0.74919
0.999449
0.999149
0.999016
0.999148
0.999355
0.999589
0.999692
0.999702
0.999702
0.999702
0.999702
0.999702
0.999701
0.987376
0.963299
0.963076
0.979671
0.984062
0.984071
0.984062
0.983584
0.980024
0.975552
0.999702
0.999702
0.999702
0.999702
0.999702
0.999702
0.999702
0.999693
0.999701
0.999702
0.999523
0.999525
0.999509
0.998302
0.995378
0.972791
0.969894
0.972095
0.959516
0.934592
0.881098
0.825551
0.814691
0.999652
0.999702
0.999702
0.999275
0.999702
0.999702
0.998514
0.993406
0.982356
0.965021
0.941461
0.912152
0.861578
0.777526
0.718374
0.712395
0.709647
0.538543
0.372028
0.278567
0.178026
0.10559
0.0814852
0.94116
0.957224
0.953434
0.93437
0.91934
0.881113
0.830703
0.761492
0.649611
0.511652
0.372213
0.236566
0.123106
0.0573657
0.0554103
0.0753739
0.0566995
1.84159e-15
5.59825e-24
1.00782e-22
-2.60858e-22
4.56618e-06
-9.53187e-24
0.353991
0.263095
0.209394
0.180419
0.200655
0.176867
0.121071
0.0601404
-6.58219e-09
-6.07254e-25
8.41331e-14
8.72564e-14
3.8532e-10
2.32542e-06
-1.00901e-24
-6.34055e-24
9.51255e-23
1.66326e-06
3.44993e-05
5.57233e-05
0.000109415
6.16483e-05
2.31368e-05
0.00054932
0.000307928
0.000598032
0.000434304
0.000167435
4.30636e-09
8.98248e-19
-1.35629e-07
1.09615e-05
3.39966e-05
7.15472e-05
0.00011229
0.000128756
0.000126712
9.85874e-05
8.57073e-05
9.67297e-05
0.000182491
0.000271404
0.000325108
0.000534123
0.000764707
0.00029444
0.000237782
0.000305472
0.00059633
0.000764137
0.000764322
0.000764136
0.000750751
0.000499955
0.000648018
0.00140486
0.00261747
0.00393041
0.00501658
0.00507746
0.00422973
0.00320851
0.00143984
0.000326159
0.00069393
0.00456497
0.0109567
0.0133523
0.010912
0.000411462
0.000587618
0.000586846
0.000651431
0.000764136
0.000743176
0.000117534
1.6783e-05
0.000293092
0.0053064
0.0087307
0.00873076
0.00873069
0.00873072
0.00873062
0.00872924
0.00302385
0.000330442
0.00123026
0.0117431
0.0167653
0.0167883
0.0167655
9.06548e-05
4.14295e-05
6.67087e-08
1.48413e-05
9.20614e-05
0.000108265
1.22136e-05
1.74198e-07
3.35128e-05
0.000289427
0.00273698
0.00563748
0.00516053
0.00291885
0.00202952
0.00107733
0.000177743
0.000361731
0.00251626
0.00198228
0.0047033
0.00759124
0.00670814
1.51454e-08
1.517e-08
4.50477e-08
6.99474e-10
5.56668e-10
6.99339e-10
5.56669e-10
7.34293e-10
5.67089e-10
7.10253e-10
8.56474e-09
9.99178e-09
1.05898e-08
3.40177e-08
7.17901e-08
7.05882e-08
2.0311e-07
1.47011e-05
3.8354e-06
-3.75136e-23
1.71903e-24
-1.40568e-09
5.45678e-16
1.51491e-08
4.05155e-08
1.1087e-07
1.1102e-07
9.95475e-08
7.89726e-08
4.41073e-07
1.8526e-06
1.0114e-06
1.54457e-07
8.95244e-09
9.38439e-09
9.78069e-09
3.31158e-07
1.01189e-06
5.05719e-06
8.50972e-06
9.02408e-06
8.74265e-06
4.26032e-06
8.16581e-07
4.41941e-07
3.51996e-08
1.30236e-08
1.16354e-08
3.65033e-08
4.22754e-08
1.90304e-08
5.02702e-07
6.73589e-06
8.75678e-06
7.99515e-06
8.54218e-07
9.28462e-09
4.21844e-07
4.43848e-07
1.97541e-06
6.08139e-06
6.28699e-06
4.77992e-06
1.76912e-06
3.41161e-07
1.06269e-07
9.85203e-08
8.89028e-08
1.88365e-07
8.98741e-09
5.36648e-09
5.36738e-09
1.87591e-08
1.89015e-08
3.90074e-06
8.75219e-06
8.7209e-06
8.28407e-06
3.86243e-06
6.33872e-06
1.40003e-05
1.16735e-05
1.93856e-06
8.08767e-07
8.22491e-07
6.40971e-07
3.42828e-06
1.26191e-05
7.4384e-06
5.0289e-07
2.08174e-07
1.1486e-07
7.19504e-09
5.39402e-09
1.22389e-08
4.88154e-08
8.38433e-08
2.20654e-06
6.63651e-06
5.60798e-06
2.37395e-06
8.64634e-06
1.56593e-05
1.81712e-05
1.82165e-05
1.3096e-05
1.19752e-05
6.98965e-06
4.58499e-06
1.81817e-05
1.91219e-05
1.60496e-05
8.03388e-07
1.76712e-07
3.68213e-07
7.12208e-09
5.33561e-09
1.65497e-08
5.6844e-08
1.42905e-07
3.23516e-09
3.19613e-09
3.23075e-09
3.19773e-09
4.26447e-06
1.37147e-05
1.69124e-05
1.80492e-05
1.82536e-05
1.82453e-05
1.82535e-05
1.07689e-05
1.65017e-05
1.92551e-05
1.92557e-05
2.46296e-06
3.72995e-07
1.8241e-06
6.56799e-09
4.49078e-09
1.28465e-08
2.49548e-08
3.19885e-08
4.76443e-09
4.18238e-09
4.18325e-09
5.92481e-09
6.4831e-10
6.56891e-10
4.24073e-07
2.26795e-06
8.64402e-06
1.00791e-05
3.28587e-06
5.6583e-10
2.90873e-06
1.89488e-05
1.80584e-05
1.33614e-05
4.91122e-07
1.26954e-06
9.66547e-09
3.29581e-09
6.66509e-09
8.94511e-09
1.03258e-09
3.24005e-09
6.09217e-09
6.33444e-09
8.12018e-09
8.4565e-10
6.88384e-10
6.15044e-10
6.06168e-10
5.86392e-10
5.9844e-10
5.98933e-10
5.75037e-10
5.52588e-10
2.76831e-06
1.55919e-05
1.4389e-05
6.94592e-06
1.70768e-07
1.72634e-08
1.83686e-09
3.02703e-09
3.17418e-09
9.93683e-10
2.72568e-09
3.03638e-09
1.66019e-09
1.00587e-09
7.64723e-10
7.65455e-10
7.1093e-10
7.7928e-10
8.21383e-10
8.76791e-10
1.00273e-09
9.86731e-10
5.60917e-10
3.98645e-10
3.94173e-10
5.03069e-06
9.67798e-07
9.24152e-09
2.02345e-08
1.11838e-09
1.31325e-09
1.36839e-09
6.85976e-10
4.26939e-10
3.37662e-10
3.43308e-10
5.14337e-10
6.73993e-10
7.68514e-10
8.78875e-10
1.19333e-09
1.33284e-09
1.60023e-09
1.69946e-09
1.30203e-09
8.2201e-10
6.3575e-10
5.33348e-10
5.23563e-10
2.36322e-09
1.53574e-07
2.02199e-08
6.80967e-10
5.5057e-10
5.85472e-10
4.24657e-10
3.37201e-10
2.96849e-10
2.87516e-10
3.2949e-10
3.92047e-10
4.79668e-10
6.78354e-10
9.67005e-10
1.22293e-09
1.4263e-09
1.39217e-09
1.04076e-09
9.12131e-10
1.23005e-09
1.8446e-09
3.25241e-09
1.1457e-08
1.75411e-08
2.12935e-08
4.80752e-10
3.0397e-10
3.3269e-10
2.70756e-10
2.27899e-10
1.90416e-10
1.63737e-10
1.51511e-10
1.39648e-10
1.57616e-10
2.08612e-10
2.88522e-10
3.75286e-10
4.37609e-10
4.79762e-10
4.18508e-10
4.26375e-10
5.94188e-10
8.91282e-10
1.18319e-09
1.43486e-09
2.23367e-09
2.12717e-08
4.13937e-10
2.32346e-10
2.21235e-10
1.85238e-10
1.52505e-10
1.20964e-10
1.00151e-10
8.17462e-11
6.79112e-11
6.77289e-11
7.83667e-11
9.58943e-11
1.16521e-10
1.43517e-10
1.61105e-10
1.67648e-10
1.74632e-10
2.20757e-10
3.44992e-10
5.99951e-10
1.05308e-09
1.61682e-09
2.28337e-08
2.39534e-10
2.29242e-10
1.92085e-10
1.71418e-10
1.58082e-10
1.45097e-10
1.17826e-10
8.42261e-11
5.51162e-11
3.98753e-11
3.35822e-11
3.42793e-11
4.00002e-11
4.87284e-11
5.78731e-11
6.58181e-11
7.4651e-11
9.33353e-11
1.38154e-10
2.30132e-10
4.28218e-10
7.725e-10
2.28846e-08
3.07297e-10
2.56255e-10
2.41699e-10
2.55211e-10
2.56117e-10
2.3107e-10
1.87198e-10
1.28645e-10
7.41e-11
4.25291e-11
2.54146e-11
1.70645e-11
1.45859e-11
1.59158e-11
1.92622e-11
2.37379e-11
2.96498e-11
3.93305e-11
5.86637e-11
9.78983e-11
1.79076e-10
2.78197e-10
2.49541e-08
2.75993e-10
2.78472e-10
3.07473e-10
3.19764e-10
3.32721e-10
3.22769e-10
2.80684e-10
1.99786e-10
1.1027e-10
5.90742e-11
3.22379e-11
1.63429e-11
8.54687e-12
5.99915e-12
6.20927e-12
7.92848e-12
1.08899e-11
1.5682e-11
2.39618e-11
3.9333e-11
6.60194e-11
1.20094e-10
2.55131e-08
3.42244e-10
2.94562e-10
3.55331e-10
3.91916e-10
4.34821e-10
4.41366e-10
4.14538e-10
3.13691e-10
1.70251e-10
8.44072e-11
4.56854e-11
2.23713e-11
9.98487e-12
4.2328e-12
2.51377e-12
2.61418e-12
3.77874e-12
6.03622e-12
9.97651e-12
1.68456e-11
3.30754e-11
4.88872e-11
2.90584e-08
3.02786e-10
3.08021e-10
4.02206e-10
4.40174e-10
5.46238e-10
5.25579e-10
5.62029e-10
4.66938e-10
2.56223e-10
1.15977e-10
6.27986e-11
3.1751e-11
1.414e-11
5.44461e-12
1.98797e-12
1.08153e-12
1.31686e-12
2.21958e-12
3.88121e-12
6.85831e-12
1.18983e-11
2.30598e-11
3.03418e-08
7.16932e-10
3.28158e-10
3.88176e-10
6.099e-10
2.07694e-09
6.99306e-10
7.04785e-10
6.30342e-10
3.70672e-10
1.51355e-10
8.04543e-11
4.24527e-11
1.98264e-11
7.80368e-12
2.65398e-12
8.04888e-13
4.9283e-13
7.49841e-13
1.38812e-12
2.60872e-12
5.83458e-12
8.63022e-12
3.63224e-08
3.39819e-10
2.63341e-10
5.49545e-10
7.37806e-09
3.36659e-08
7.32798e-09
8.1627e-10
7.54023e-10
5.03958e-10
1.88236e-10
9.52722e-11
5.22489e-11
2.58439e-11
1.08734e-11
3.84898e-12
1.23385e-12
2.88418e-13
2.54587e-13
4.57323e-13
9.54006e-13
1.6368e-12
3.54517e-12
3.44057e-08
7.73277e-10
3.94242e-10
2.91578e-09
1.1504e-07
3.40944e-07
1.09677e-07
8.1033e-10
7.8078e-10
6.45996e-10
2.28387e-10
1.04077e-10
5.87034e-11
3.07197e-11
1.39027e-11
5.25627e-12
1.61839e-12
4.26982e-13
1.18097e-13
1.43487e-13
2.80378e-13
7.10893e-13
1.0715e-12
5.12759e-08
2.44094e-10
2.44039e-10
2.02646e-07
7.65796e-07
1.16333e-06
7.86604e-07
8.01362e-10
8.07316e-10
7.92659e-10
2.71274e-10
1.04969e-10
5.99194e-11
3.29189e-11
1.59906e-11
6.62307e-12
2.22057e-12
6.12715e-13
9.55245e-14
5.10162e-14
9.69381e-14
1.73986e-13
3.76351e-13
5.80976e-08
1.34159e-09
2.39717e-08
3.4368e-07
1.08382e-06
1.16374e-06
9.90107e-07
8.32739e-10
8.91984e-10
8.66898e-10
2.72914e-10
9.58255e-11
5.56555e-11
3.15925e-11
1.63573e-11
7.41478e-12
2.78187e-12
8.30409e-13
1.70738e-13
2.4678e-14
2.59858e-14
7.12937e-14
1.09068e-13
6.55452e-08
5.6994e-09
6.33326e-08
3.4002e-07
9.96156e-07
1.10157e-06
1.95994e-07
1.29937e-09
1.60808e-09
8.88033e-10
2.47119e-10
8.10017e-11
4.67369e-11
2.71326e-11
1.47374e-11
7.28622e-12
3.06065e-12
1.0192e-12
2.61982e-13
2.62969e-14
8.62715e-15
1.35409e-14
3.58397e-14
6.49392e-08
5.18492e-09
4.68857e-08
3.07314e-07
3.45689e-07
2.06751e-07
5.53204e-10
3.27404e-09
2.76232e-09
7.80595e-10
2.02179e-10
6.30204e-11
3.56816e-11
2.08699e-11
1.15699e-11
6.16219e-12
2.90439e-12
1.07663e-12
3.0949e-13
4.42308e-14
4.69696e-15
4.7743e-15
8.4135e-15
9.12681e-08
4.6969e-09
2.0771e-08
7.47858e-08
1.99163e-10
1.93683e-10
5.65638e-10
3.69305e-09
2.36052e-09
5.64888e-10
1.43989e-10
4.4153e-11
2.47606e-11
1.42512e-11
7.92997e-12
4.41728e-12
2.30963e-12
9.90488e-13
3.14699e-13
6.45466e-14
4.00984e-15
1.09368e-15
2.50467e-15
9.55386e-08
3.99601e-09
2.85844e-09
4.01152e-09
5.54331e-10
4.81174e-09
1.75619e-09
2.7484e-09
1.21656e-09
3.39196e-10
8.52198e-11
2.76599e-11
1.55658e-11
8.66655e-12
4.65242e-12
2.61751e-12
1.48921e-12
7.41049e-13
2.7909e-13
7.1937e-14
6.05591e-15
5.42207e-16
5.48918e-16
1.50414e-07
1.46367e-08
2.32409e-09
2.32585e-09
2.38551e-09
6.92431e-09
2.58622e-09
1.39133e-09
4.25213e-10
1.63608e-10
4.21162e-11
1.51831e-11
8.80633e-12
4.69861e-12
2.35273e-12
1.26813e-12
7.50681e-13
4.2567e-13
1.95168e-13
6.1306e-14
7.9238e-15
3.77958e-16
1.47178e-16
1.67015e-07
6.33334e-08
7.64654e-09
1.73593e-08
6.18426e-09
4.10643e-09
2.36395e-09
9.05732e-10
2.33684e-10
6.16531e-11
1.59345e-11
7.26686e-12
4.42037e-12
2.26872e-12
1.03337e-12
4.98958e-13
2.85007e-13
1.76138e-13
9.83109e-14
4.00424e-14
7.45831e-15
4.26852e-16
4.23804e-17
1.69974e-07
1.44818e-07
8.58533e-08
4.33318e-08
1.13618e-08
3.66311e-09
1.98278e-09
8.37438e-10
2.06084e-10
2.47416e-11
4.99986e-12
2.96984e-12
1.90222e-12
9.58132e-13
3.97878e-13
1.61469e-13
7.95682e-14
4.925e-14
3.33891e-14
1.82296e-14
5.79392e-15
4.12742e-16
1.84711e-17
1.64296e-07
1.61363e-07
9.64311e-08
4.13412e-08
6.56547e-09
3.6328e-09
1.68009e-09
5.7148e-10
1.23809e-10
1.2692e-11
1.64697e-12
9.90557e-13
6.64431e-13
3.34923e-13
1.30434e-13
4.40062e-14
1.66501e-14
9.05441e-15
7.0634e-15
5.66574e-15
2.50045e-15
3.2926e-16
1.68119e-17
1.18486e-07
1.56513e-07
7.72812e-08
2.48421e-08
7.74573e-09
2.57491e-09
8.61842e-10
2.21908e-10
3.717e-11
3.22711e-12
2.99754e-13
2.17663e-13
1.58599e-13
8.32409e-14
3.13979e-14
9.0573e-15
2.41896e-15
9.89719e-16
9.44487e-16
1.15672e-15
8.43288e-16
2.07003e-16
2.15853e-17
5.22997e-08
7.57805e-08
3.44605e-08
6.20097e-09
1.93556e-09
6.15009e-10
1.69103e-10
3.21342e-11
3.31398e-12
1.47318e-13
2.20664e-14
2.42231e-14
1.97006e-14
1.1026e-14
4.23036e-15
1.0813e-15
2.12181e-16
5.90306e-17
7.58126e-17
1.61753e-16
2.33655e-16
1.07856e-16
1.4677e-17
0.975959
0.975958
0.898227
0.82736
0.815214
0.80674
0.808979
0.823119
0.0676038
0.0698937
0.0821619
0.0959031
1.86986e-24
1.57887e-24
1.57095e-14
8.11309e-10
1.2559e-05
1.50881e-05
0.000116239
0.00120604
9.04074e-05
9.40672e-05
0.000164009
0.000193143
0.00739956
0.00587837
0.00661271
0.00474934
0.0167256
0.0110412
0.0113086
0.0113334
0.00349464
0.00112274
0.00166197
0.00360492
6.08581e-16
4.69002e-06
5.08793e-06
1.79516e-07
4.82108e-08
5.10318e-08
7.15021e-08
1.01646e-07
3.18442e-07
3.25211e-07
3.20425e-07
2.82112e-07
1.15022e-07
1.14002e-07
2.23858e-07
1.97338e-07
2.53861e-07
1.09553e-06
1.12583e-06
8.17596e-07
1.60249e-06
8.25039e-07
7.93957e-07
9.67677e-06
2.20029e-06
1.57412e-06
3.6722e-07
2.65213e-06
1.20021e-06
1.23525e-06
4.50342e-08
4.55699e-08
9.87423e-08
1.24783e-07
9.18378e-08
4.51401e-08
1.24619e-08
1.06034e-08
1.89223e-08
4.81386e-08
1.173e-08
5.19001e-09
6.03442e-09
2.41319e-08
4.99337e-09
6.64367e-09
7.72086e-09
8.34698e-09
2.46488e-09
3.149e-09
3.64691e-09
4.35752e-09
1.07399e-09
1.32905e-09
1.61675e-09
1.89344e-09
4.46659e-10
5.83792e-10
6.85891e-10
8.69443e-10
1.73058e-10
2.24475e-10
3.05822e-10
3.71891e-10
8.16452e-11
1.09167e-10
1.30379e-10
1.67746e-10
3.48594e-11
4.57593e-11
6.53535e-11
7.78983e-11
1.53587e-11
2.06516e-11
2.53317e-11
3.53614e-11
5.44909e-12
7.12512e-12
1.06152e-11
1.27597e-11
1.87127e-12
2.71407e-12
3.28741e-12
4.72114e-12
5.82639e-13
7.47289e-13
1.08881e-12
1.35376e-12
1.94379e-13
2.53074e-13
3.02207e-13
4.30956e-13
5.07237e-14
6.45312e-14
9.21692e-14
1.0445e-13
1.68581e-14
1.99098e-14
2.38976e-14
3.20643e-14
3.78873e-15
4.9503e-15
6.99102e-15
7.6837e-15
1.10058e-15
1.3635e-15
1.66678e-15
2.16765e-15
2.50385e-16
3.38469e-16
4.62073e-16
5.12185e-16
5.53453e-17
7.30033e-17
9.34259e-17
1.24602e-16
9.88145e-18
1.43231e-17
2.029e-17
2.40305e-17
1.91034e-18
2.47757e-18
3.44555e-18
5.08711e-18
4.22116e-19
4.41562e-19
6.59958e-19
8.67407e-19
2.08187e-19
9.40896e-20
1.07715e-19
1.32284e-19
0.958451
0.980925
0.987767
0.975115
0.728889
0.800758
0.969696
0.971425
0.971426
0.864314
0.727533
0.867767
0.917079
0.616105
0.753647
0.889866
0.912876
0.894135
0.734359
0.72785
0.469518
0.485585
0.535336
0.527024
0.83487
0.966246
0.966436
0.954851
0.59605
0.146569
0.242648
0.273287
0.332832
0.84372
0.91278
0.91287
0.868066
0.820442
0.0101293
2.71616e-20
1.322e-20
0.1185
0.291105
0.283285
0.524582
0.740806
0.620654
0.132194
0.000134639
0.000134627
0.000134627
0.0984297
0.464025
0.653804
0.62479
0.351432
0.282526
0.000701821
6.11577e-08
-3.45075e-11
3.60873e-10
0.00128581
3.54531e-11
0.0494932
0.456115
0.517428
0.107195
0.000134627
0.000134627
0.000134622
0.000134622
0.0107113
0.0393548
0.0293537
0.00172021
0.00173066
0.00280591
0.00386753
0.000663729
-1.60604e-11
6.07421e-14
2.42783e-10
3.55535e-11
0.156888
0.483601
0.295989
0.00917625
0.000134622
0.000134622
0.000134621
0.000134622
0.000134621
0.000538163
0.00171024
0.00284033
0.00251794
0.0143219
0.00821697
0.000579919
0.000157168
7.60569e-05
1.16059e-06
0.0210263
0.206561
0.278925
0.0821449
0.000134628
0.000134623
0.000134622
0.000134621
0.000134621
0.000134621
0.00194375
0.00337104
0.00168175
0.014301
0.0184066
0.013162
0.00270733
0.000848183
0.00319061
0.00153136
0.000731875
0.0699419
0.0601459
0.0113293
0.0013949
0.00132586
0.00106241
0.000152969
0.000134622
0.000656566
0.0033701
0.00398558
0.00424779
0.0184007
0.0184062
0.0172567
0.00790888
0.00307619
0.000798413
0.000734292
0.00073251
0.00189757
0.00286291
0.00225552
0.00277662
0.00244326
0.00204654
0.000310343
0.000335379
0.00337125
0.00385316
0.00155774
0.00337101
0.00666915
0.0106697
0.0151385
0.0152208
0.00904356
0.002455
0.00209604
0.00169637
0.00055545
0.000226058
0.00335819
0.00380943
0.0032081
0.000627422
0.000407077
0.00226709
-1.57499e-14
3.96285e-12
1.08522e-21
3.80683e-07
4.78902e-06
0.0017701
0.0048869
0.0171532
0.0186134
0.0185349
0.00673634
9.63792e-07
8.88523e-07
0.00137505
0.00382874
0.00382597
0.00239152
0.00120999
0.00121815
1.90999e-08
5.76216e-09
3.97831e-12
-4.86117e-24
1.77097e-07
-6.60093e-10
1.08005e-20
6.10358e-07
0.000888174
0.00528838
0.00689961
0.00317042
6.32386e-07
6.39214e-07
0.00202321
0.00382858
0.00185869
0.000781828
4.36848e-06
1.60198e-08
8.40429e-08
5.90381e-06
1.11056e-05
4.97133e-06
1.01114e-06
1.35122e-07
3.83808e-09
8.74951e-11
5.0554e-10
0.000368874
0.000487512
8.78706e-05
8.34349e-07
8.81338e-05
0.00085121
0.000154805
2.76618e-05
1.12742e-09
5.26275e-08
7.2175e-06
3.45327e-05
2.84214e-05
3.85267e-06
1.0721e-07
9.33885e-08
3.98216e-08
8.83501e-09
4.30646e-08
9.8459e-07
5.80023e-06
5.42222e-06
6.09685e-07
6.12772e-07
9.99348e-06
1.14842e-06
1.13738e-11
1.10701e-09
1.17458e-05
4.87161e-05
3.42964e-05
1.16941e-05
7.25924e-07
1.31849e-06
3.70154e-07
1.2707e-09
1.27289e-09
1.45184e-06
1.21731e-05
2.06906e-05
2.10796e-05
1.0777e-05
1.66754e-06
4.10506e-07
3.69152e-07
1.4159e-11
3.78697e-11
4.07102e-05
4.87716e-05
3.28653e-05
1.04575e-06
1.64894e-06
3.63496e-06
2.05123e-06
1.27351e-09
6.28464e-06
2.23337e-05
2.23294e-05
2.23469e-05
2.23344e-05
2.23472e-05
1.22657e-05
9.51195e-06
4.14036e-07
1.15093e-06
4.3227e-06
3.02329e-05
4.87605e-05
2.54858e-05
2.21843e-06
1.64781e-06
3.66887e-06
2.77155e-06
1.2716e-09
2.40438e-06
1.65685e-05
2.02405e-05
1.56495e-05
1.51144e-05
1.38038e-05
1.06137e-05
8.05871e-06
8.45914e-06
9.33616e-06
1.03689e-05
9.71057e-06
3.7549e-05
1.60176e-05
2.00636e-06
3.22505e-06
6.28552e-06
4.41352e-06
1.27808e-09
1.27289e-09
5.68138e-09
5.98529e-09
2.05909e-06
5.14468e-06
1.97443e-06
1.74499e-06
6.11226e-06
1.34033e-05
1.35721e-05
1.03892e-05
2.5439e-06
1.05969e-05
8.43319e-06
2.52341e-06
1.27254e-06
6.23307e-06
7.57427e-06
2.25032e-05
2.26098e-05
2.61884e-05
3.68693e-05
3.71513e-05
8.04105e-06
3.38076e-06
8.33132e-07
2.34706e-06
1.13148e-05
1.35746e-05
4.90219e-06
2.87509e-07
4.30238e-08
6.8536e-09
4.69937e-07
6.74118e-07
7.82213e-07
8.46e-06
2.34428e-05
5.15209e-05
5.25023e-05
5.24781e-05
5.25023e-05
5.24784e-05
3.24641e-05
8.36298e-07
8.33223e-07
7.32041e-06
1.20648e-05
2.47369e-06
7.9632e-09
1.7839e-08
5.43118e-09
3.92966e-09
1.38337e-07
5.28868e-07
2.10721e-06
1.0941e-05
1.54166e-05
1.1092e-05
1.25619e-05
1.78737e-05
4.5472e-05
4.55294e-05
1.8758e-05
2.54363e-06
4.96704e-06
1.24821e-06
4.17246e-07
7.91412e-09
1.18935e-08
7.76522e-09
3.92969e-09
1.90069e-09
1.54907e-07
5.59007e-07
1.31238e-06
1.1971e-06
9.21533e-08
-4.43829e-11
3.53188e-14
1.58096e-05
4.43481e-05
4.76914e-05
1.33066e-05
4.89626e-06
1.00749e-06
7.02945e-08
4.85624e-09
6.967e-09
7.39927e-09
4.47371e-09
1.79691e-09
2.16657e-09
2.11312e-09
4.80016e-07
2.69363e-07
7.133e-08
9.40563e-09
2.13326e-14
8.78015e-12
4.37972e-05
4.76934e-05
3.11903e-05
5.32603e-06
9.03176e-09
7.03133e-08
2.25383e-09
3.35836e-09
4.65507e-09
4.41548e-09
3.57204e-09
1.71827e-09
4.84987e-08
4.20564e-07
5.60392e-07
5.61637e-07
2.59823e-07
3.55869e-08
4.07813e-13
2.71963e-05
4.76793e-05
2.88508e-05
3.44329e-06
7.75468e-09
1.83356e-07
1.09357e-09
1.84013e-09
3.12034e-09
4.97436e-09
7.05701e-09
1.81157e-08
1.47944e-07
3.35449e-07
4.62629e-07
4.60689e-07
2.13703e-07
4.82764e-08
2.36929e-09
1.89733e-06
1.56985e-05
1.11438e-05
6.16292e-07
7.74853e-09
2.37375e-07
4.81004e-10
8.37565e-10
1.50861e-09
2.74165e-09
4.8943e-09
9.71943e-09
3.85412e-08
1.35691e-07
1.96764e-07
1.52325e-07
6.56649e-08
1.53463e-08
2.3378e-09
5.80202e-08
1.41001e-10
1.30743e-10
1.38845e-10
1.11969e-08
2.37354e-07
2.10295e-10
3.45151e-10
5.71458e-10
9.42349e-10
1.50908e-09
2.24827e-09
3.3671e-09
1.10582e-08
1.93122e-08
2.19121e-08
1.5836e-08
5.97121e-09
5.74323e-09
1.89453e-08
3.0612e-09
4.9401e-09
1.73559e-09
3.79629e-08
2.2095e-07
9.9034e-11
1.61524e-10
2.63442e-10
4.26586e-10
6.76056e-10
1.02272e-09
1.38086e-09
1.97057e-09
3.43012e-09
5.29096e-09
7.40151e-09
6.11919e-09
1.83909e-08
5.66629e-08
6.03548e-08
3.52652e-08
8.15014e-09
2.78838e-08
2.17005e-07
4.35642e-11
7.35624e-11
1.24724e-10
2.13383e-10
3.63711e-10
6.15597e-10
1.0244e-09
1.64989e-09
2.69646e-09
4.51497e-09
7.21277e-09
1.10231e-08
3.01593e-08
7.47339e-08
7.53318e-08
4.65083e-08
8.48113e-09
8.62711e-08
1.54093e-07
1.72514e-11
3.00094e-11
5.30681e-11
9.59651e-11
1.7525e-10
3.24248e-10
6.01441e-10
1.09928e-09
2.03642e-09
3.76967e-09
6.83811e-09
1.23745e-08
2.69573e-08
6.20052e-08
5.04633e-08
2.64685e-08
1.11719e-08
1.32943e-07
1.25647e-07
5.99336e-12
1.08e-11
1.96764e-11
3.71679e-11
7.31617e-11
1.4927e-10
3.05794e-10
6.29775e-10
1.26723e-09
2.61939e-09
5.30645e-09
1.03186e-08
1.88472e-08
2.53762e-08
1.94166e-08
1.56438e-08
2.96718e-08
1.43163e-07
1.25401e-07
1.94622e-12
3.29951e-12
6.09705e-12
1.18505e-11
2.47454e-11
5.54961e-11
1.3164e-10
3.11337e-10
7.09208e-10
1.60224e-09
3.51123e-09
7.45954e-09
1.21293e-08
1.08719e-08
1.28366e-08
1.92706e-08
6.06795e-08
1.43149e-07
1.25051e-07
5.22287e-13
8.77224e-13
1.46395e-12
2.58995e-12
5.14546e-12
1.05078e-11
2.42359e-11
6.71901e-11
2.05349e-10
5.72124e-10
1.36397e-09
2.58981e-09
5.14882e-09
7.04749e-09
1.26394e-08
3.33887e-08
5.09532e-08
3.77722e-08
2.85857e-07
1.48286e-13
2.08655e-13
3.17455e-13
5.02636e-13
8.53895e-13
1.43667e-12
2.66032e-12
7.26481e-12
2.66381e-11
8.77451e-11
2.31841e-10
4.61617e-10
1.51973e-09
3.27207e-09
6.83295e-09
1.95958e-08
3.95596e-08
1.41479e-08
3.9116e-07
3.59716e-14
5.03008e-14
7.00158e-14
1.00762e-13
1.57072e-13
2.51285e-13
4.12216e-13
8.35724e-13
2.74093e-12
1.00492e-11
3.17091e-11
7.19565e-11
1.71158e-10
1.4238e-09
3.35933e-09
3.37348e-09
1.02965e-08
9.23086e-09
3.96688e-07
9.7232e-15
1.22604e-14
1.60753e-14
2.20149e-14
3.26971e-14
5.39436e-14
9.94053e-14
2.10731e-13
5.62049e-13
1.80237e-12
6.48958e-12
2.05545e-11
4.94213e-11
3.07419e-10
1.2e-09
2.27338e-09
4.8711e-09
1.13249e-08
3.96719e-07
2.37456e-15
3.05389e-15
3.88713e-15
5.22035e-15
7.79337e-15
1.34642e-14
2.77035e-14
6.75394e-14
1.78559e-13
5.39532e-13
1.99605e-12
8.40417e-12
2.79201e-11
1.22002e-10
8.71353e-10
2.4478e-09
5.33292e-09
1.38051e-08
1.76522e-07
5.90162e-16
7.57149e-16
9.80302e-16
1.38399e-15
2.21959e-15
4.28301e-15
9.47926e-15
2.49777e-14
7.03688e-14
2.42093e-13
9.0101e-13
3.54535e-12
1.4773e-11
5.14057e-11
5.1394e-10
2.38827e-09
6.11369e-09
1.30739e-08
3.43791e-08
1.37224e-16
1.81932e-16
2.46171e-16
3.9384e-16
7.50962e-16
1.65991e-15
4.02816e-15
1.0664e-14
2.9574e-14
1.01777e-13
3.7653e-13
1.50844e-12
6.62232e-12
2.89169e-11
1.63986e-10
1.46503e-09
4.75712e-09
7.54487e-09
3.04237e-09
3.0569e-17
3.9918e-17
5.74802e-17
1.04442e-16
2.44301e-16
6.52464e-16
1.80669e-15
4.96621e-15
1.33599e-14
3.93712e-14
1.23773e-13
4.21952e-13
1.87984e-12
9.0329e-12
4.94728e-11
3.95327e-10
1.63153e-09
1.57546e-09
4.18007e-10
5.81485e-18
7.89106e-18
1.21027e-17
2.50565e-17
7.06101e-17
2.30704e-16
7.5574e-16
2.33091e-15
6.76517e-15
1.92393e-14
5.46493e-14
1.69985e-13
6.29075e-13
3.18941e-12
1.71373e-11
1.02079e-10
2.05426e-10
4.78161e-10
3.31478e-10
1.01118e-18
1.34215e-18
2.05795e-18
4.45583e-18
1.42699e-17
5.65141e-17
2.27886e-16
8.48686e-16
2.84526e-15
8.74001e-15
2.56117e-14
7.42068e-14
2.46533e-13
1.04335e-12
5.61825e-12
2.3636e-11
6.62468e-11
1.81516e-10
1.84524e-10
1.50386e-19
1.87882e-19
2.70655e-19
5.45738e-19
1.7256e-18
7.8752e-18
4.02188e-17
1.91965e-16
8.13979e-16
3.01276e-15
9.8184e-15
2.9321e-14
8.23278e-14
2.6255e-13
1.07656e-12
3.9831e-12
1.21629e-11
3.18271e-11
4.90038e-11
)
;

boundaryField
{
    leftWall
    {
        type            zeroGradient;
    }
    rightWall
    {
        type            zeroGradient;
    }
    lowerWall
    {
        type            zeroGradient;
    }
    atmosphere
    {
        type            inletOutlet;
        inletValue      uniform 0;
        value           nonuniform List<scalar> 
46
(
5.22997e-08
7.57805e-08
3.44605e-08
6.20097e-09
0
0
0
0
0
0
0
0
0
0
0
0
0
0
0
0
0
0
1.4677e-17
0
0
0
0
0
0
0
0
0
0
0
0
8.13979e-16
3.01276e-15
9.8184e-15
2.9321e-14
8.23278e-14
2.6255e-13
1.07656e-12
3.9831e-12
1.21629e-11
3.18271e-11
4.90038e-11
)
;
    }
    defaultFaces
    {
        type            empty;
    }
}


// ************************************************************************* //
