/*--------------------------------*- C++ -*----------------------------------*\
| =========                 |                                                 |
| \\      /  F ield         | OpenFOAM: The Open Source CFD Toolbox           |
|  \\    /   O peration     | Version:  2312                                  |
|   \\  /    A nd           | Website:  www.openfoam.com                      |
|    \\/     M anipulation  |                                                 |
\*---------------------------------------------------------------------------*/
FoamFile
{
    version     2.0;
    format      ascii;
    arch        "LSB;label=32;scalar=64";
    class       volScalarField;
    location    "4.1";
    object      p;
}
// * * * * * * * * * * * * * * * * * * * * * * * * * * * * * * * * * * * * * //

dimensions      [1 -1 -2 0 0 0 0];

internalField   nonuniform List<scalar> 
2268
(
6009.34
5985.95
5943.26
5883.76
5809.58
5722.69
5625.93
5522.97
5418.42
5316.53
5219.83
5129.25
5044.79
4965.91
4892.11
4823.58
4760.94
4705.08
4657.32
4618.75
4589.51
4569.36
4559.07
5216.26
5191.76
5148.99
5089.67
5015.59
4928.38
4830.9
4726.78
4621.11
4518.51
4421.51
4330.93
4246.66
4168.01
4094.27
4025.69
3962.94
3906.82
3858.84
3820.22
3791
3770.45
3759.93
4424.92
4398.63
4355.82
4297.11
4223.45
4135.75
4036.86
3930.45
3822.59
3718.59
3621.01
3530.42
3446.53
3368.35
3294.72
3226.08
3163.14
3106.54
3058.11
3019.42
2990.37
2969.27
2958.46
3633
3605.5
3563.32
3506.01
3433.33
3345.11
3244.39
3134.45
3023.16
2916.93
2818.37
2727.66
2644.29
2566.81
2493.31
2424.55
2361.46
2304.05
2254.93
2216.16
2187.49
2165.73
2154.7
2839.47
2811.73
2771.28
2716.41
2645.52
2557.07
2454.29
2339.31
2223.06
2113.69
2013.75
1922.81
1840.06
1763.6
1689.98
1621.25
1561.12
1506.86
1460.79
1424.9
1397.98
1379.01
1372.9
2043.56
2016.73
1978.95
1928.05
1860.29
1771.72
1660.73
1546.29
1429.77
1330.08
1247.2
1177.62
1118.71
1067.92
1023.25
986.74
954.682
928.032
905.578
888.06
873.882
866.03
867.821
1270.23
1249.21
1220.1
1181.96
1132.03
1070.46
1002.51
930.616
872.459
828.058
794.996
770.075
751.347
737.234
728.946
725.478
720.995
718.017
715.838
713.818
711.647
709.867
710.106
780.221
769.578
754.094
735.121
714.337
695.194
683.047
677.049
677.948
677.185
675.456
673.366
671.271
668.996
667.023
664.371
662.256
659.445
657.419
655.891
654.46
653.841
654.452
2261.64
2264.06
2266.41
2300.33
2379.93
2486.24
2593.46
2680.17
2738.36
2774.41
2830.88
2927.84
3043.92
3120.45
3137.12
3098.41
3022.74
2941
2874.15
1534.43
1519.71
1516.83
1550.56
1631.7
1737.73
1840.11
1923.49
1979.49
2012.35
2062.74
2158.52
2285.03
2363.92
2377.48
2335.34
2254.93
2168.31
2102.59
1045.87
1037.8
1061.28
1099
1150.76
1210.33
1261.75
1300
1338.37
1372.68
1419.95
1495.81
1598.12
1681.18
1699.68
1663.04
1584.58
1510.39
1477.4
873.667
881.718
925.214
966.731
996.193
1014.33
1017.5
1013.17
1023.91
1045.11
1072.65
1107.31
1143.2
1190.27
1214.75
1197.81
1156.82
1133.07
1127.4
812.67
811.487
844.509
883.916
917.775
942.246
948.891
940.842
941.406
948.819
957.867
968.762
971.153
974.395
983.126
985.731
990.259
999.339
1000.08
752.537
739.95
773.332
801.32
827.292
857.607
873.659
876.463
884.535
894.147
901.635
911.183
916.223
911.475
913.694
924.046
936.223
942.753
947.019
699.852
680.587
710.344
731.728
745.127
768.84
790.547
808.272
823.517
835.008
842.099
849.637
857.88
858.972
863.055
870.621
879.415
884.594
886.55
643.325
629.482
649.096
669.217
681.613
697.476
717.508
741.668
761.211
774.472
781.142
787.48
797.113
802.887
809.913
813.545
822.499
826.537
826.365
598.953
595.725
590.473
585.033
581.341
580.675
582.585
585.159
585.529
584.547
582.752
580.602
578.367
576.123
574.179
571.655
569.009
566.076
563.441
561.177
559.357
557.617
555.826
476.398
474.465
471.323
467.859
465.069
463.555
463.169
462.903
461.739
459.691
457.154
454.493
451.762
449.018
446.509
443.941
441.434
438.512
435.249
432.06
429.875
428.86
429.114
354.136
352.992
351.204
349.119
347.121
345.251
343.55
341.66
339.435
336.898
334.372
332.029
329.967
328.16
326.288
325.201
324.92
325.147
325.131
324.544
324.832
325.735
326.717
234.951
233.188
232.111
231.112
230.471
230.386
230.29
230.022
230.314
231.234
232.751
234.602
236.367
237.739
238.495
238.651
239.934
242.294
244.738
247.009
249.495
251.83
253.751
137.297
136.195
136.073
136.283
136.8
138.634
142.251
146.548
151.296
156.021
160.464
164.67
168.851
172.157
174.49
175.655
176.347
177.196
178.46
180.344
182.395
184.437
186.305
67.7434
67.6312
67.9215
68.1282
69.4807
72.4645
76.8823
82.8115
88.9193
94.5348
99.2087
102.974
106.262
109.259
111.543
113.194
113.266
112.805
113.191
114.361
115.611
116.832
117.741
18.7944
18.3118
18.2397
18.2494
18.6118
20.1262
23.1988
27.2011
31.5536
35.9027
39.5427
42.688
45.4314
47.7476
49.4746
50.3562
50.025
49.026
48.5113
49.0739
49.7976
49.9688
49.2893
-1.01551
-0.884595
-0.740878
-0.667048
-0.603586
-0.569621
-0.183555
0.778744
2.01722
3.56628
5.01825
6.41198
7.64513
8.61058
9.44994
9.87972
9.55562
8.60913
8.02507
8.22093
8.64384
8.50703
7.53331
-1.39024
-1.40939
-1.39175
-1.36708
-1.34768
-1.4011
-1.43942
-1.41119
-1.4002
-1.38996
-1.31914
-1.18115
-1.0967
-1.09355
-1.04237
-0.944007
-0.965809
-1.10139
-1.15886
-1.20332
-1.06906
-0.906028
-0.916309
-1.54052
-1.54729
-1.54069
-1.53465
-1.54451
-1.55896
-1.56864
-1.57152
-1.57908
-1.60056
-1.6143
-1.61423
-1.60355
-1.59354
-1.59331
-1.58391
-1.56483
-1.54575
-1.54363
-1.53526
-1.51886
-1.49034
-1.45095
-1.6703
-1.6735
-1.67217
-1.67277
-1.67745
-1.68532
-1.68956
-1.68976
-1.69311
-1.70287
-1.71491
-1.71957
-1.71866
-1.71458
-1.71118
-1.70574
-1.69361
-1.67633
-1.67014
-1.66856
-1.66167
-1.64562
-1.61805
-1.80259
-1.80421
-1.80498
-1.80637
-1.80963
-1.81392
-1.8171
-1.82013
-1.82484
-1.83097
-1.83548
-1.83689
-1.83686
-1.8356
-1.83286
-1.82853
-1.8207
-1.81002
-1.80243
-1.79888
-1.79492
-1.78623
-1.77158
-1.93485
-1.93578
-1.93691
-1.93858
-1.94114
-1.94428
-1.94735
-1.95075
-1.95416
-1.95686
-1.95847
-1.9592
-1.95996
-1.95992
-1.9577
-1.95383
-1.94776
-1.94051
-1.93598
-1.93488
-1.93375
-1.92881
-1.91926
-2.06636
-2.06703
-2.06812
-2.06971
-2.07191
-2.07471
-2.07823
-2.08147
-2.08425
-2.08595
-2.08681
-2.08746
-2.08797
-2.08715
-2.08493
-2.08148
-2.07669
-2.07228
-2.07031
-2.07044
-2.07062
-2.06868
-2.063
-2.19725
-2.19779
-2.19873
-2.20012
-2.20196
-2.2043
-2.20727
-2.21037
-2.21302
-2.21506
-2.21636
-2.21725
-2.21755
-2.21643
-2.21439
-2.21156
-2.20822
-2.20577
-2.20434
-2.20392
-2.20306
-2.20202
-2.20007
-2.32762
-2.32807
-2.32886
-2.33004
-2.33154
-2.3334
-2.33563
-2.33804
-2.34031
-2.34232
-2.34396
-2.34522
-2.34573
-2.3453
-2.3439
-2.34194
-2.34004
-2.3387
-2.33759
-2.33603
-2.33396
-2.33237
-2.33124
-2.45754
-2.45795
-2.4586
-2.4596
-2.46084
-2.46235
-2.4641
-2.466
-2.46784
-2.46947
-2.47085
-2.47201
-2.47279
-2.47288
-2.47223
-2.47113
-2.47023
-2.46983
-2.46948
-2.46827
-2.46621
-2.46435
-2.4642
-2.58712
-2.58748
-2.58804
-2.58888
-2.58992
-2.59117
-2.59263
-2.59417
-2.59568
-2.59705
-2.59825
-2.59929
-2.60002
-2.60032
-2.60021
-2.59986
-2.59958
-2.59961
-2.59975
-2.59969
-2.59886
-2.59764
-2.5979
-2.71641
-2.71673
-2.71722
-2.71795
-2.71885
-2.71992
-2.72115
-2.72244
-2.72373
-2.72493
-2.72602
-2.72697
-2.7277
-2.72817
-2.72841
-2.72852
-2.72867
-2.72897
-2.72938
-2.72982
-2.73015
-2.7302
-2.7312
-2.84547
-2.84576
-2.84621
-2.84685
-2.84765
-2.84859
-2.84965
-2.85078
-2.85191
-2.853
-2.85401
-2.85491
-2.85567
-2.85628
-2.85677
-2.85719
-2.85767
-2.85825
-2.85896
-2.85979
-2.86069
-2.8618
-2.86364
-2.97434
-2.97461
-2.97503
-2.97562
-2.97634
-2.97719
-2.97814
-2.97914
-2.98017
-2.98118
-2.98213
-2.98302
-2.98383
-2.98455
-2.98521
-2.98587
-2.9866
-2.98745
-2.98845
-2.98963
-2.99104
-2.9928
-2.99528
-3.10308
-3.10334
-3.10374
-3.10429
-3.10497
-3.10575
-3.10661
-3.10753
-3.10848
-3.10943
-3.11035
-3.11123
-3.11207
-3.11288
-3.11369
-3.11453
-3.11546
-3.11653
-3.11778
-3.11926
-3.12103
-3.12322
-3.12603
-3.23171
-3.23197
-3.23236
-3.23289
-3.23353
-3.23427
-3.23507
-3.23593
-3.23682
-3.23772
-3.23861
-3.23949
-3.24036
-3.24124
-3.24215
-3.24313
-3.24421
-3.24546
-3.2469
-3.2486
-3.25062
-3.25305
-3.25603
-3.3603
-3.36055
-3.36094
-3.36145
-3.36207
-3.36277
-3.36352
-3.36433
-3.36516
-3.36601
-3.36688
-3.36775
-3.36864
-3.36957
-3.37056
-3.37163
-3.37284
-3.37421
-3.3758
-3.37764
-3.37981
-3.38237
-3.3854
-3.48883
-3.4891
-3.48948
-3.48999
-3.49059
-3.49125
-3.49196
-3.49271
-3.4935
-3.49431
-3.49514
-3.496
-3.4969
-3.49785
-3.49888
-3.50002
-3.50131
-3.50277
-3.50444
-3.50638
-3.50862
-3.51122
-3.51425
-3.61732
-3.61762
-3.61802
-3.61852
-3.6191
-3.61973
-3.62039
-3.62108
-3.62181
-3.62257
-3.62337
-3.62421
-3.6251
-3.62606
-3.62712
-3.62829
-3.62962
-3.63112
-3.63284
-3.63482
-3.63708
-3.63967
-3.64263
-3.74581
-3.74613
-3.74655
-3.74706
-3.74761
-3.74819
-3.7488
-3.74944
-3.7501
-3.75081
-3.75156
-3.75237
-3.75324
-3.75419
-3.75525
-3.75643
-3.75777
-3.75929
-3.76101
-3.76298
-3.76521
-3.76774
-3.7706
-3.87434
-3.87468
-3.87511
-3.8756
-3.87613
-3.87666
-3.8772
-3.87777
-3.87837
-3.87901
-3.87971
-3.88047
-3.88131
-3.88224
-3.88327
-3.88444
-3.88576
-3.88726
-3.88896
-3.89088
-3.89305
-3.89549
-3.89822
-4.00292
-4.00327
-4.0037
-4.00418
-4.00466
-4.00512
-4.00559
-4.00608
-4.00659
-4.00716
-4.0078
-4.00851
-4.0093
-4.01019
-4.01119
-4.01232
-4.0136
-4.01506
-4.0167
-4.01855
-4.02063
-4.02295
-4.02552
-4.13157
-4.13193
-4.13234
-4.1328
-4.13322
-4.1336
-4.13396
-4.13436
-4.13478
-4.13526
-4.13583
-4.13647
-4.13721
-4.13805
-4.139
-4.14008
-4.1413
-4.14269
-4.14425
-4.14601
-4.14798
-4.15016
-4.15256
-4.26027
-4.26062
-4.26103
-4.26146
-4.26183
-4.26211
-4.26235
-4.26261
-4.26292
-4.2633
-4.26378
-4.26436
-4.26503
-4.26581
-4.2667
-4.26771
-4.26886
-4.27016
-4.27163
-4.27328
-4.27512
-4.27715
-4.27937
-4.38896
-4.38931
-4.38973
-4.39015
-4.39047
-4.39064
-4.39072
-4.39081
-4.39099
-4.39126
-4.39165
-4.39215
-4.39276
-4.39347
-4.39429
-4.39522
-4.39629
-4.3975
-4.39886
-4.40039
-4.40208
-4.40395
-4.40598
-4.51757
-4.51792
-4.51834
-4.51876
-4.51902
-4.51907
-4.51899
-4.51891
-4.51895
-4.51913
-4.51943
-4.51986
-4.52039
-4.52103
-4.52178
-4.52263
-4.5236
-4.52471
-4.52595
-4.52734
-4.52889
-4.53058
-4.53242
-4.64599
-4.64634
-4.64677
-4.64718
-4.64738
-4.64731
-4.64706
-4.64686
-4.64679
-4.64688
-4.6471
-4.64746
-4.64793
-4.6485
-4.64916
-4.64993
-4.65081
-4.6518
-4.65292
-4.65417
-4.65556
-4.65708
-4.65872
-4.77415
-4.77449
-4.77491
-4.7753
-4.77542
-4.77526
-4.77492
-4.77464
-4.77449
-4.77451
-4.77467
-4.77497
-4.77537
-4.77587
-4.77646
-4.77714
-4.77791
-4.77879
-4.77978
-4.78088
-4.78211
-4.78346
-4.78491
-4.902
-4.90229
-4.90269
-4.90305
-4.90313
-4.90294
-4.90255
-4.90223
-4.90205
-4.90203
-4.90215
-4.90239
-4.90273
-4.90316
-4.90366
-4.90425
-4.90492
-4.90568
-4.90654
-4.9075
-4.90856
-4.90973
-4.91099
-5.02957
-5.02979
-5.03013
-5.03043
-5.03049
-5.03031
-5.02997
-5.02967
-5.02948
-5.02945
-5.02955
-5.02974
-5.03002
-5.03038
-5.0308
-5.03129
-5.03186
-5.03249
-5.03322
-5.03403
-5.03493
-5.03592
-5.03698
-5.15692
-5.15707
-5.15732
-5.15753
-5.15757
-5.15743
-5.15719
-5.15696
-5.15682
-5.15681
-5.15689
-5.15705
-5.15727
-5.15755
-5.15788
-5.15828
-5.15873
-5.15924
-5.15983
-5.16048
-5.16122
-5.16203
-5.16291
-5.28417
-5.28424
-5.28437
-5.28447
-5.28449
-5.28443
-5.2843
-5.28418
-5.28412
-5.28413
-5.28421
-5.28433
-5.28449
-5.28469
-5.28493
-5.28522
-5.28555
-5.28594
-5.28638
-5.28689
-5.28746
-5.28809
-5.28878
-5.41138
-5.41139
-5.41139
-5.41137
-5.41138
-5.41139
-5.41139
-5.41139
-5.41141
-5.41145
-5.41151
-5.4116
-5.4117
-5.41182
-5.41196
-5.41214
-5.41235
-5.4126
-5.4129
-5.41325
-5.41365
-5.41411
-5.4146
-5.53864
-5.5386
-5.53849
-5.53834
-5.53834
-5.53843
-5.53853
-5.53863
-5.53871
-5.53878
-5.53882
-5.53887
-5.5389
-5.53894
-5.53899
-5.53905
-5.53913
-5.53924
-5.53939
-5.53958
-5.53982
-5.54009
-5.5404
-5.66597
-5.66593
-5.66575
-5.66554
-5.66549
-5.66565
-5.66585
-5.66602
-5.66614
-5.66622
-5.66624
-5.66623
-5.66619
-5.66614
-5.66608
-5.66602
-5.66596
-5.66592
-5.6659
-5.66591
-5.66596
-5.66605
-5.66616
550.599
549.5
549.812
552.065
428.168
427.722
428.644
430.209
327.698
328.809
331.193
334.253
255.811
257.75
259.791
261.679
187.863
188.734
189.834
190.881
119.127
120.069
120.644
121.497
48.8077
48.6716
48.6825
48.8632
6.56772
5.9897
5.69092
5.77671
-1.01563
-1.03863
-1.03645
-1.02533
-1.41574
-1.39299
-1.38623
-1.3854
-1.59184
-1.57715
-1.57421
-1.57583
-1.75923
-1.75193
-1.74709
-1.7415
-1.91118
-1.90553
-1.89899
-1.8912
-2.05605
-2.05087
-2.04471
-2.0375
-2.19691
-2.19376
-2.1899
-2.18568
-2.33083
-2.33109
-2.33187
-2.33312
-2.46607
-2.46809
-2.47089
-2.47427
-2.60052
-2.60292
-2.60598
-2.60949
-2.73369
-2.73589
-2.73865
-2.7418
-2.86599
-2.86797
-2.87038
-2.87309
-2.99768
-2.9995
-3.00164
-3.00404
-3.12855
-3.13037
-3.13238
-3.13456
-3.25862
-3.26042
-3.26236
-3.26443
-3.38799
-3.38978
-3.39168
-3.3937
-3.51679
-3.51852
-3.52036
-3.52229
-3.64509
-3.64675
-3.64849
-3.65032
-3.77295
-3.77452
-3.77617
-3.77789
-3.90043
-3.90191
-3.90346
-3.90507
-4.02759
-4.02898
-4.03041
-4.03191
-4.15448
-4.15576
-4.15709
-4.15846
-4.28113
-4.28231
-4.28352
-4.28478
-4.40759
-4.40866
-4.40976
-4.4109
-4.53388
-4.53484
-4.53583
-4.53686
-4.66002
-4.66088
-4.66176
-4.66268
-4.78605
-4.7868
-4.78758
-4.78838
-4.91197
-4.91263
-4.91329
-4.91399
-5.03782
-5.03837
-5.03893
-5.03952
-5.16359
-5.16404
-5.16451
-5.16498
-5.28931
-5.28967
-5.29003
-5.2904
-5.41499
-5.41525
-5.41551
-5.41577
-5.54064
-5.54079
-5.54095
-5.54111
-5.66625
-5.66631
-5.66637
-5.66642
556.934
545.87
552.3
571.029
593.601
615.137
629.784
647.557
665.901
676.881
680.668
689.582
701.171
712.052
720.423
727.302
735.388
736.169
739.745
430.376
426.173
429.68
450.192
481.22
499.868
512.202
527.18
540.862
549.762
558.199
568.629
580.571
592.973
599.74
609.356
614.067
615.314
621.14
337.559
340.302
343.188
357.661
382.933
393.062
403.44
419.997
430.887
440.541
456.57
466.522
477.017
485.004
488.089
495.007
500.188
503.408
509.638
265.244
270.737
278.184
286.599
297.266
308.48
317.983
330.522
346.276
356.964
370.767
381.953
391.499
397.298
399.568
403.079
409.34
416.465
422.917
194.114
202.178
211.796
219.833
225.193
235.254
248.071
256.625
274.342
290.252
300.55
313.709
323.162
329.708
333.96
337.714
342.628
348.537
353.387
123.379
129.911
140.369
151.142
159.706
169.587
182.422
195.301
208.488
228.652
240.415
253.139
262.907
269.957
275.057
279.83
284.654
289.294
292.778
50.5778
56.8869
66.7004
78.8498
92.0748
106.113
121.088
138.168
153.159
169.855
184.8
195.895
205.041
211.934
217.489
222.816
228.247
233.077
236.108
6.35038
8.06485
11.3132
18.4473
29.4915
43.4189
59.7079
79.5457
97.2959
114.351
129.3
140.088
148.811
155.433
160.995
166.23
171.384
175.752
179.061
-0.978381
-0.996004
-0.994451
-0.7388
0.695225
5.51458
14.2351
28.3609
40.3408
56.2816
72.3505
82.7353
91.3052
98.1551
104.197
109.51
112.958
115.522
119.302
-1.37335
-1.36709
-1.44155
-1.51455
-1.53216
-1.58295
-0.663913
2.21155
4.73379
13.3801
24.1845
30.4362
36.5316
41.7219
46.7136
51.9329
54.24
55.5693
58.3564
-1.56783
-1.55429
-1.59211
-1.66519
-1.73174
-1.79088
-1.83596
-1.84171
-1.76283
-0.925205
0.699346
2.34182
4.30189
5.81603
7.33391
10.333
13.371
15.5866
16.56
-1.73112
-1.71862
-1.73263
-1.76965
-1.8134
-1.8764
-1.94525
-1.98676
-2.01551
-2.08136
-2.0415
-1.89045
-1.80897
-1.70689
-1.55344
-1.11083
0.333309
1.89249
2.10699
-1.87841
-1.86829
-1.88289
-1.917
-1.95939
-2.01106
-2.06012
-2.09228
-2.11818
-2.16076
-2.19691
-2.22767
-2.24624
-2.22382
-2.12191
-2.02005
-2.00818
-1.97772
-1.94641
-2.02615
-2.02479
-2.04474
-2.07308
-2.10649
-2.14467
-2.18163
-2.21216
-2.24459
-2.28337
-2.32388
-2.35054
-2.35963
-2.34635
-2.29757
-2.22906
-2.17021
-2.16557
-2.17077
-2.18017
-2.18484
-2.20026
-2.22091
-2.24536
-2.27245
-2.29917
-2.32459
-2.35149
-2.38599
-2.42766
-2.45887
-2.4724
-2.46603
-2.44434
-2.40403
-2.3564
-2.34643
-2.35008
-2.33537
-2.34074
-2.34908
-2.36145
-2.37934
-2.40135
-2.42496
-2.45072
-2.47994
-2.51168
-2.54266
-2.56498
-2.57163
-2.56561
-2.55115
-2.53785
-2.53607
-2.51325
-2.5072
-2.47999
-2.48655
-2.49257
-2.50061
-2.51343
-2.53129
-2.55328
-2.58017
-2.61067
-2.63793
-2.65889
-2.67029
-2.6739
-2.67261
-2.66692
-2.65854
-2.65239
-2.63845
-2.63723
-2.61555
-2.62445
-2.63052
-2.63697
-2.64692
-2.66176
-2.68208
-2.70696
-2.73453
-2.75869
-2.77278
-2.77855
-2.78033
-2.78192
-2.78537
-2.78609
-2.78275
-2.77406
-2.77147
-2.74735
-2.75596
-2.76379
-2.77204
-2.78093
-2.793
-2.81077
-2.83302
-2.85666
-2.87712
-2.88986
-2.89497
-2.89442
-2.89523
-2.90002
-2.90616
-2.90626
-2.90466
-2.90037
-2.87802
-2.88611
-2.89452
-2.90374
-2.91363
-2.92482
-2.93979
-2.95883
-2.97917
-2.99717
-3.00923
-3.01505
-3.01509
-3.01382
-3.01607
-3.02184
-3.02369
-3.02593
-3.02278
-3.00849
-3.01608
-3.02433
-3.03352
-3.04381
-3.05536
-3.06858
-3.084
-3.10048
-3.11573
-3.12697
-3.13329
-3.1358
-3.13506
-3.13566
-3.13853
-3.1402
-3.14359
-3.14271
-3.13876
-3.14585
-3.15363
-3.16241
-3.17224
-3.18327
-3.19548
-3.20852
-3.22184
-3.23401
-3.24408
-3.251
-3.25532
-3.25718
-3.25758
-3.25835
-3.25986
-3.26207
-3.26237
-3.26831
-3.27499
-3.28239
-3.2906
-3.29971
-3.30969
-3.32045
-3.33173
-3.3428
-3.35295
-3.36181
-3.36886
-3.37426
-3.37832
-3.37991
-3.38042
-3.38204
-3.38217
-3.3823
-3.39737
-3.4035
-3.41038
-3.41803
-3.42638
-3.43535
-3.44482
-3.45453
-3.46407
-3.47297
-3.48091
-3.48756
-3.49296
-3.49763
-3.50078
-3.50222
-3.50343
-3.5033
-3.50226
-3.52576
-3.53143
-3.53776
-3.54474
-3.55231
-3.5604
-3.56884
-3.57739
-3.58581
-3.59376
-3.60097
-3.60716
-3.61226
-3.6165
-3.61975
-3.62191
-3.62318
-3.62309
-3.62158
-3.65359
-3.65883
-3.66463
-3.67097
-3.67779
-3.68504
-3.69255
-3.70019
-3.70771
-3.71487
-3.72144
-3.72716
-3.73187
-3.73565
-3.7383
-3.73984
-3.74108
-3.74118
-3.7404
-3.78095
-3.78578
-3.79108
-3.79682
-3.80296
-3.80943
-3.81612
-3.82291
-3.82962
-3.83608
-3.84203
-3.84724
-3.85152
-3.85483
-3.85701
-3.85814
-3.85905
-3.8593
-3.85897
-3.9079
-3.91234
-3.91717
-3.92236
-3.92787
-3.93364
-3.9396
-3.94563
-3.9516
-3.95735
-3.96267
-3.96736
-3.97118
-3.97409
-3.97594
-3.97692
-3.97764
-3.97793
-3.97773
-4.03453
-4.03859
-4.04296
-4.04764
-4.05257
-4.05772
-4.063
-4.06835
-4.07363
-4.07872
-4.08343
-4.08757
-4.09095
-4.0935
-4.09514
-4.0961
-4.09674
-4.09703
-4.09689
-4.16087
-4.16456
-4.16852
-4.17271
-4.17711
-4.18168
-4.18635
-4.19107
-4.19572
-4.20019
-4.20433
-4.20796
-4.21095
-4.21322
-4.2146
-4.21562
-4.21624
-4.21656
-4.21646
-4.28698
-4.29031
-4.29387
-4.29761
-4.30153
-4.30556
-4.30968
-4.31381
-4.31788
-4.32178
-4.32539
-4.32857
-4.33118
-4.33318
-4.33447
-4.3355
-4.33611
-4.33647
-4.33639
-4.41289
-4.41588
-4.41906
-4.42238
-4.42584
-4.42939
-4.43299
-4.43659
-4.44013
-4.44351
-4.44664
-4.4494
-4.45168
-4.45344
-4.45465
-4.45567
-4.45631
-4.4567
-4.45663
-4.53864
-4.54131
-4.54411
-4.54704
-4.55007
-4.55317
-4.5563
-4.55943
-4.56248
-4.5654
-4.56808
-4.57046
-4.57245
-4.57399
-4.5751
-4.57611
-4.57675
-4.57718
-4.57718
-4.66426
-4.6666
-4.66907
-4.67162
-4.67425
-4.67693
-4.67963
-4.68232
-4.68494
-4.68743
-4.68972
-4.69176
-4.69349
-4.69483
-4.69587
-4.69682
-4.69746
-4.69787
-4.69796
-4.78976
-4.7918
-4.79393
-4.79614
-4.79839
-4.80069
-4.80299
-4.80527
-4.80749
-4.80961
-4.81156
-4.8133
-4.81481
-4.81604
-4.81699
-4.81784
-4.81845
-4.81879
-4.81899
-4.91518
-4.91692
-4.91874
-4.9206
-4.92251
-4.92444
-4.92637
-4.92829
-4.93015
-4.93192
-4.93356
-4.93505
-4.93637
-4.93753
-4.93842
-4.93914
-4.93963
-4.93992
-4.94016
-5.04052
-5.04198
-5.04349
-5.04503
-5.04661
-5.0482
-5.04979
-5.05136
-5.0529
-5.05436
-5.05572
-5.05696
-5.05809
-5.05912
-5.05999
-5.0606
-5.06101
-5.06126
-5.06147
-5.1658
-5.16698
-5.16819
-5.16943
-5.17069
-5.17196
-5.17323
-5.17449
-5.17572
-5.17689
-5.17799
-5.179
-5.17993
-5.18078
-5.18156
-5.18216
-5.18254
-5.18274
-5.18288
-5.29103
-5.29194
-5.29287
-5.29382
-5.29477
-5.29574
-5.29671
-5.29767
-5.29861
-5.2995
-5.30034
-5.30113
-5.30186
-5.30254
-5.30316
-5.3037
-5.30405
-5.30419
-5.30426
-5.41622
-5.41687
-5.41752
-5.41819
-5.41885
-5.41953
-5.4202
-5.42088
-5.42157
-5.42218
-5.42276
-5.42332
-5.42386
-5.42437
-5.42483
-5.42523
-5.42551
-5.42562
-5.42568
-5.54138
-5.54177
-5.54216
-5.54255
-5.54294
-5.54333
-5.54372
-5.54414
-5.54464
-5.54491
-5.54524
-5.54557
-5.54592
-5.54626
-5.54659
-5.54689
-5.54708
-5.54717
-5.54721
-5.66652
-5.66665
-5.66679
-5.66691
-5.66703
-5.66714
-5.66724
-5.66733
-5.66736
-5.66756
-5.66771
-5.66786
-5.66803
-5.66822
-5.66845
-5.66865
-5.66875
-5.66882
-5.66888
)
;

boundaryField
{
    leftWall
    {
        type            calculated;
        value           nonuniform List<scalar> 
50
(
6009.34
5216.26
4424.92
3633
2839.47
2043.56
1270.23
780.221
598.953
476.398
354.136
234.951
137.297
67.7434
18.7944
-1.01551
-1.39024
-1.54052
-1.6703
-1.80259
-1.93485
-2.06636
-2.19725
-2.32762
-2.45754
-2.58712
-2.71641
-2.84547
-2.97434
-3.10308
-3.23171
-3.3603
-3.48883
-3.61732
-3.74581
-3.87434
-4.00292
-4.13157
-4.26027
-4.38896
-4.51757
-4.64599
-4.77415
-4.902
-5.02957
-5.15692
-5.28417
-5.41138
-5.53864
-5.66597
)
;
    }
    rightWall
    {
        type            calculated;
        value           nonuniform List<scalar> 
50
(
2874.15
2102.59
1477.4
1127.4
1000.08
947.019
886.55
826.365
739.745
621.14
509.638
422.917
353.387
292.778
236.108
179.061
119.302
58.3564
16.56
2.10699
-1.94641
-2.17077
-2.35008
-2.5072
-2.63723
-2.77147
-2.90037
-3.02278
-3.14271
-3.26237
-3.3823
-3.50226
-3.62158
-3.7404
-3.85897
-3.97773
-4.09689
-4.21646
-4.33639
-4.45663
-4.57718
-4.69796
-4.81899
-4.94016
-5.06147
-5.18288
-5.30426
-5.42568
-5.54721
-5.66888
)
;
    }
    lowerWall
    {
        type            calculated;
        value           nonuniform List<scalar> 
62
(
6407.49
6384.1
6341.41
6281.91
6207.73
6120.84
6024.08
5921.12
5816.57
5714.68
5617.98
5527.4
5442.94
5364.06
5290.26
5221.73
5159.09
5103.23
5055.47
5016.9
4987.65
4967.5
4957.2
4559.07
3759.93
2958.46
2154.7
1372.9
867.821
710.106
654.452
612.428
611.468
609.332
609.368
2261.64
1534.43
1045.87
873.667
812.67
752.537
699.852
643.325
2643.79
2646.18
2648.49
2682.28
2761.81
2868
2973.64
3061.38
3119.88
3155.92
3212.24
3309.16
3425.26
3503.23
3521.49
3482.74
3406.32
3324.46
3257.6
)
;
    }
    atmosphere
    {
        type            calculated;
        value           nonuniform List<scalar> 
46
(
-5.72958
-5.72964
-5.72947
-5.72929
-5.72918
-5.72946
-5.72971
-5.7299
-5.73002
-5.73008
-5.73008
-5.73003
-5.72994
-5.72983
-5.72971
-5.72958
-5.72944
-5.72932
-5.7292
-5.72911
-5.72905
-5.72904
-5.72904
-5.72904
-5.72904
-5.72905
-5.72905
-5.72906
-5.72908
-5.7291
-5.7291
-5.72909
-5.72907
-5.72906
-5.72905
-5.72904
-5.72904
-5.72904
-5.72906
-5.72908
-5.72915
-5.72932
-5.72958
-5.72955
-5.72951
-5.7295
)
;
    }
    defaultFaces
    {
        type            empty;
    }
}


// ************************************************************************* //
