/*--------------------------------*- C++ -*----------------------------------*\
| =========                 |                                                 |
| \\      /  F ield         | OpenFOAM: The Open Source CFD Toolbox           |
|  \\    /   O peration     | Version:  2312                                  |
|   \\  /    A nd           | Website:  www.openfoam.com                      |
|    \\/     M anipulation  |                                                 |
\*---------------------------------------------------------------------------*/
FoamFile
{
    version     2.0;
    format      ascii;
    arch        "LSB;label=32;scalar=64";
    class       volVectorField;
    location    "4.1";
    object      U;
}
// * * * * * * * * * * * * * * * * * * * * * * * * * * * * * * * * * * * * * //

dimensions      [0 1 -1 0 0 0 0];

internalField   nonuniform List<vector> 
2268
(
(-0.00496086 0.00177214 0)
(-0.0257192 0.00478961 0)
(-0.0467208 0.00477128 0)
(-0.0644087 0.00395837 0)
(-0.0775226 0.00280464 0)
(-0.0855809 0.00161367 0)
(-0.0888242 0.000529396 0)
(-0.0879962 -0.000352686 0)
(-0.0840919 -0.000980786 0)
(-0.078047 -0.00142735 0)
(-0.0706864 -0.00171092 0)
(-0.0627268 -0.00182595 0)
(-0.054815 -0.00178448 0)
(-0.0474511 -0.00162668 0)
(-0.0409024 -0.00142099 0)
(-0.0352061 -0.00123706 0)
(-0.0303322 -0.00105318 0)
(-0.0261421 -0.00093083 0)
(-0.022287 -0.000908703 0)
(-0.0184318 -0.000964651 0)
(-0.0145001 -0.000970556 0)
(-0.0107841 -0.00102025 0)
(-0.00786531 -0.00298565 0)
(-0.0136578 0.0133466 0)
(-0.035264 0.0157075 0)
(-0.0565937 0.0139277 0)
(-0.0735626 0.0109538 0)
(-0.0857344 0.00739709 0)
(-0.0927857 0.00382037 0)
(-0.0950545 0.000624741 0)
(-0.093339 -0.00193849 0)
(-0.0886782 -0.00374623 0)
(-0.0820198 -0.00491677 0)
(-0.074138 -0.00556612 0)
(-0.0657188 -0.00573715 0)
(-0.0574011 -0.00548924 0)
(-0.0496949 -0.00495826 0)
(-0.042871 -0.00431481 0)
(-0.0369169 -0.00376743 0)
(-0.0317718 -0.00322129 0)
(-0.0273066 -0.0028217 0)
(-0.0231372 -0.00267514 0)
(-0.0188111 -0.00278037 0)
(-0.0141674 -0.00280706 0)
(-0.00986767 -0.00247063 0)
(-0.00592181 -0.0062622 0)
(-0.0175942 0.025081 0)
(-0.0415364 0.026064 0)
(-0.0641433 0.0226744 0)
(-0.0814679 0.017472 0)
(-0.0934513 0.0115 0)
(-0.0999243 0.00559413 0)
(-0.101395 0.000400955 0)
(-0.0988471 -0.00371823 0)
(-0.0934172 -0.00656291 0)
(-0.0861174 -0.00841287 0)
(-0.0777011 -0.00948493 0)
(-0.068796 -0.00981153 0)
(-0.0600294 -0.00944992 0)
(-0.051918 -0.00858063 0)
(-0.0447509 -0.00745516 0)
(-0.0384336 -0.00652861 0)
(-0.0328402 -0.00558086 0)
(-0.027899 -0.00489125 0)
(-0.0232467 -0.00461481 0)
(-0.0183521 -0.00485909 0)
(-0.01286 -0.00517743 0)
(-0.00813849 -0.00446517 0)
(-0.00292244 -0.00943355 0)
(-0.0195737 0.0404024 0)
(-0.0460492 0.0388368 0)
(-0.0703214 0.0330152 0)
(-0.0884598 0.0250644 0)
(-0.100605 0.0162437 0)
(-0.106716 0.00762025 0)
(-0.10752 0.000141963 0)
(-0.104153 -0.00574034 0)
(-0.0979749 -0.00974549 0)
(-0.0901951 -0.0123247 0)
(-0.0814557 -0.0138017 0)
(-0.072277 -0.0142051 0)
(-0.0632006 -0.0135934 0)
(-0.0546771 -0.0122589 0)
(-0.0470249 -0.010501 0)
(-0.0400361 -0.00923926 0)
(-0.0335168 -0.00795328 0)
(-0.0274891 -0.00706656 0)
(-0.0218019 -0.00665833 0)
(-0.0162756 -0.00713394 0)
(-0.0100952 -0.00793199 0)
(-0.00555596 -0.00654874 0)
(0.00156518 -0.0111918 0)
(-0.0198413 0.0551407 0)
(-0.0476743 0.0511835 0)
(-0.0731138 0.0427865 0)
(-0.0921541 0.0319142 0)
(-0.104724 0.0200747 0)
(-0.110684 0.00869683 0)
(-0.110968 -0.000600738 0)
(-0.106745 -0.00848742 0)
(-0.0997168 -0.0134829 0)
(-0.0915476 -0.0166059 0)
(-0.0829223 -0.0184442 0)
(-0.0741599 -0.0190058 0)
(-0.0654421 -0.0183718 0)
(-0.0568488 -0.0169526 0)
(-0.0486613 -0.0149054 0)
(-0.0408321 -0.013754 0)
(-0.0332327 -0.0124781 0)
(-0.0254244 -0.0119747 0)
(-0.0176264 -0.0115373 0)
(-0.0113543 -0.0121096 0)
(-0.00573675 -0.0131858 0)
(-0.00387641 -0.011893 0)
(0.00605003 -0.0140726 0)
(-0.0192883 0.0676823 0)
(-0.0476689 0.0618639 0)
(-0.0735895 0.0515274 0)
(-0.0927127 0.0382309 0)
(-0.104411 0.0236832 0)
(-0.108306 0.00946022 0)
(-0.106497 -0.00315587 0)
(-0.100886 -0.0120345 0)
(-0.0935615 -0.0172696 0)
(-0.0866297 -0.0205277 0)
(-0.0800003 -0.0222816 0)
(-0.073299 -0.0226526 0)
(-0.0659172 -0.0219878 0)
(-0.0579963 -0.0209229 0)
(-0.0501364 -0.0195382 0)
(-0.0413285 -0.0192701 0)
(-0.0326642 -0.0182752 0)
(-0.0232767 -0.017737 0)
(-0.0119378 -0.0161214 0)
(-0.00352485 -0.0155714 0)
(0.000730763 -0.0156948 0)
(-0.00402628 -0.0142542 0)
(0.00766612 -0.0118032 0)
(-0.0175739 0.0805691 0)
(-0.0451361 0.0732309 0)
(-0.0705452 0.0610567 0)
(-0.0893204 0.0457264 0)
(-0.100996 0.0293118 0)
(-0.105642 0.013504 0)
(-0.102856 -0.000827206 0)
(-0.0928353 -0.0108462 0)
(-0.0835686 -0.0165847 0)
(-0.0731691 -0.0202367 0)
(-0.0628534 -0.0226257 0)
(-0.0516547 -0.0240325 0)
(-0.0374956 -0.0243695 0)
(-0.0247044 -0.0228664 0)
(-0.0147481 -0.0181161 0)
(-0.00415267 -0.0187544 0)
(0.00230498 -0.013726 0)
(0.00973507 -0.0155129 0)
(0.0227246 -0.0129615 0)
(0.0345521 -0.0096002 0)
(0.0329328 -0.00276832 0)
(0.0183472 -0.00862532 0)
(0.017182 -0.0180741 0)
(-0.00995092 0.102238 0)
(-0.026258 0.0927159 0)
(-0.0419071 0.0756655 0)
(-0.0505745 0.0536296 0)
(-0.0500236 0.0292908 0)
(-0.0386023 0.00494661 0)
(-0.0135551 -0.0144517 0)
(0.00305132 -0.0259953 0)
(0.0038137 -0.030139 0)
(0.00346347 -0.0324083 0)
(0.00422581 -0.033927 0)
(0.00582571 -0.0353085 0)
(0.0121742 -0.0358707 0)
(0.0137449 -0.0311607 0)
(0.0215755 -0.0278547 0)
(0.0340538 -0.0281146 0)
(0.0394441 -0.024758 0)
(0.0580824 -0.0274453 0)
(0.0727251 -0.027372 0)
(0.0846933 -0.0229077 0)
(0.0920076 -0.00747717 0)
(0.0873053 0.00301766 0)
(0.0643041 0.0215838 0)
(0.00535973 0.00157817 0)
(-0.00102241 0.00646123 0)
(-0.0247077 0.00773768 0)
(-0.042046 0.00598006 0)
(-0.0561459 0.00363843 0)
(-0.0653436 0.00168182 0)
(-0.0696698 -0.000867642 0)
(-0.0657588 -0.00290835 0)
(-0.0564241 -0.00327771 0)
(-0.0473822 -0.00186297 0)
(-0.0451831 0.000458369 0)
(-0.0518014 0.000982419 0)
(-0.0588373 -0.00223592 0)
(-0.0572953 -0.00427656 0)
(-0.0463069 -0.00444293 0)
(-0.0337212 -0.00397714 0)
(-0.0225304 -0.0036717 0)
(-0.0116531 -0.00278138 0)
(-0.00244036 -0.000725586 0)
(0.00568657 -0.00485395 0)
(0.00170137 0.00422968 0)
(-0.0198238 0.00748145 0)
(-0.0329002 0.00672693 0)
(-0.0444526 0.00388334 0)
(-0.0504493 0.00366883 0)
(-0.0502167 0.00044227 0)
(-0.0481411 -0.00251067 0)
(-0.0424862 -0.0058537 0)
(-0.0328998 -0.00452312 0)
(-0.0264172 0.00308922 0)
(-0.0304401 0.0066583 0)
(-0.042156 0.00356739 0)
(-0.0482275 -0.00168508 0)
(-0.0452665 -0.00576522 0)
(-0.0384608 -0.00653536 0)
(-0.0271853 -0.00606174 0)
(-0.0160417 -0.0069105 0)
(-0.00452783 -0.00464206 0)
(-0.0504531 -0.000653022 0)
(-0.07642 0.0228492 0)
(-0.0931225 0.0311898 0)
(-0.0675395 0.0238903 0)
(-0.0425113 0.0133777 0)
(-0.0211627 0.00535662 0)
(-0.0182519 -0.000573955 0)
(-0.0343787 -0.00510964 0)
(-0.0432715 -0.0118998 0)
(-0.0495461 -0.00889895 0)
(-0.0559414 0.00134492 0)
(-0.04878 0.0094932 0)
(-0.0512368 0.00581031 0)
(-0.0626257 -0.00254415 0)
(-0.0718175 -0.008449 0)
(-0.0638298 -0.0119388 0)
(-0.0435885 -0.012919 0)
(-0.0278421 -0.0125773 0)
(-0.0104795 -0.00774191 0)
(-0.197671 0.0580925 0)
(-0.206655 0.0299626 0)
(-0.110075 -0.0121721 0)
(-0.011448 -0.0163941 0)
(0.0857827 -0.0188366 0)
(0.168808 -0.00875567 0)
(0.200708 0.00707076 0)
(0.170368 0.0128403 0)
(0.103181 0.00571716 0)
(-0.0156351 0.00203504 0)
(-0.0524268 0.00288294 0)
(-0.0490181 0.00366892 0)
(-0.0538356 0.0106428 0)
(-0.0780994 0.00677128 0)
(-0.0909144 -0.00475675 0)
(-0.0815415 -0.0179495 0)
(-0.0603405 -0.0235768 0)
(-0.0383611 -0.0239835 0)
(-0.0114052 -0.02736 0)
(-0.156382 0.112628 0)
(-0.050629 0.0233485 0)
(0.0119446 -0.0570624 0)
(0.0523471 -0.0587005 0)
(0.107315 -0.0623505 0)
(0.174415 -0.0511877 0)
(0.245351 -0.00962575 0)
(0.266934 0.0321779 0)
(0.227357 0.0504652 0)
(0.180787 0.043303 0)
(0.175447 0.0171064 0)
(0.166698 0.0122411 0)
(0.0784351 0.0350775 0)
(-0.025804 0.0164493 0)
(-0.0452558 -0.0115782 0)
(-0.0526717 -0.0304645 0)
(-0.0432541 -0.0364224 0)
(0.00771607 -0.0310678 0)
(0.030419 -0.0123301 0)
(-0.137345 0.143481 0)
(0.132101 -0.034356 0)
(0.11312 -0.0637617 0)
(0.125087 -0.0690679 0)
(0.14256 -0.0769665 0)
(0.17071 -0.0739734 0)
(0.216165 -0.0298841 0)
(0.244127 0.0342093 0)
(0.234694 0.0565192 0)
(0.224178 0.0426952 0)
(0.215351 0.0192387 0)
(0.18719 0.0302258 0)
(0.12799 0.0690657 0)
(0.0628682 0.048786 0)
(0.0603248 -0.00211262 0)
(0.0593103 -0.0237761 0)
(0.0748613 -0.0377864 0)
(0.0736226 -0.0441435 0)
(0.075986 -0.0106337 0)
(-0.0668672 0.152208 0)
(0.193534 -0.0556322 0)
(0.205827 -0.0745697 0)
(0.203249 -0.0646393 0)
(0.182449 -0.0737793 0)
(0.167271 -0.083449 0)
(0.183617 -0.0415023 0)
(0.203497 0.0308534 0)
(0.212592 0.0526916 0)
(0.221989 0.0417116 0)
(0.21881 0.0313281 0)
(0.184844 0.0502218 0)
(0.127787 0.0896316 0)
(0.0772214 0.0625994 0)
(0.088196 -0.00753073 0)
(0.105766 -0.0258039 0)
(0.108109 -0.0374975 0)
(0.0751834 -0.038871 0)
(0.0895272 0.0340877 0)
(0.177351 0.0265021 0)
(0.27302 -0.0818508 0)
(0.275615 -0.0850185 0)
(0.259458 -0.0593609 0)
(0.210252 -0.0497744 0)
(0.148631 -0.0756784 0)
(0.138437 -0.042712 0)
(0.156917 0.0246552 0)
(0.179875 0.0443414 0)
(0.200619 0.0372079 0)
(0.202759 0.0401768 0)
(0.168817 0.0704105 0)
(0.112798 0.109054 0)
(0.0740544 0.0713408 0)
(0.0855481 -0.0229538 0)
(0.098778 -0.0281849 0)
(0.0823276 -0.0286222 0)
(0.0214935 -0.0381407 0)
(0.0677386 0.0569142 0)
(0.01269 0.10673 0)
(0.0340831 0.0990434 0)
(0.0466608 0.0802236 0)
(0.057212 0.0538966 0)
(0.0664528 0.024808 0)
(0.0728772 -0.000295547 0)
(0.0741799 -0.0145547 0)
(0.0716371 -0.0171334 0)
(0.0684375 -0.0175423 0)
(0.0645044 -0.0189098 0)
(0.0610154 -0.0219827 0)
(0.0592677 -0.0258011 0)
(0.0585219 -0.0282955 0)
(0.0585653 -0.0258524 0)
(0.06496 -0.0317035 0)
(0.0757822 -0.0317344 0)
(0.0869197 -0.0294575 0)
(0.0969395 -0.0299692 0)
(0.106388 -0.0310546 0)
(0.115796 -0.0281012 0)
(0.128897 -0.0164561 0)
(0.149248 -0.00350852 0)
(0.182458 0.017478 0)
(0.0103679 0.0639105 0)
(0.0323928 0.0663703 0)
(0.0464141 0.0561027 0)
(0.0608925 0.0357732 0)
(0.0720315 0.0144309 0)
(0.0771542 -0.00229248 0)
(0.0771775 -0.0137118 0)
(0.0745798 -0.0183951 0)
(0.0708185 -0.0203635 0)
(0.0671737 -0.0225705 0)
(0.0652492 -0.0273845 0)
(0.0657795 -0.0329207 0)
(0.0674514 -0.034751 0)
(0.0699832 -0.0333804 0)
(0.0730325 -0.0436631 0)
(0.0763732 -0.0459795 0)
(0.0817496 -0.0455818 0)
(0.0889049 -0.047047 0)
(0.0999613 -0.0472475 0)
(0.109912 -0.0418013 0)
(0.117303 -0.0348645 0)
(0.128065 -0.0315747 0)
(0.152722 -0.0365905 0)
(0.00342626 0.0488054 0)
(0.0202771 0.0504805 0)
(0.0356565 0.0397902 0)
(0.0550892 0.0199646 0)
(0.0676104 0.00579918 0)
(0.0704466 -0.00237241 0)
(0.0663074 -0.00934759 0)
(0.0618295 -0.0119029 0)
(0.0606297 -0.0133773 0)
(0.0623273 -0.0168169 0)
(0.0635544 -0.0239413 0)
(0.0635696 -0.0309372 0)
(0.0637133 -0.0336677 0)
(0.064509 -0.0336716 0)
(0.0612768 -0.0397574 0)
(0.0514815 -0.0426291 0)
(0.0424972 -0.0418069 0)
(0.0379588 -0.0496475 0)
(0.0449284 -0.0540196 0)
(0.0541496 -0.0434154 0)
(0.0571504 -0.0376899 0)
(0.0671857 -0.038774 0)
(0.0831379 -0.0480452 0)
(-0.00634468 0.0348679 0)
(0.0135791 0.0326955 0)
(0.0290888 0.02193 0)
(0.0464776 0.00523278 0)
(0.0557331 0.00131667 0)
(0.0575096 0.00215755 0)
(0.0552661 -0.00380622 0)
(0.0513361 -0.0108082 0)
(0.0447516 -0.0199918 0)
(0.0368401 -0.023222 0)
(0.0253048 -0.0258298 0)
(0.0124222 -0.0295159 0)
(0.00601727 -0.0345615 0)
(0.00778529 -0.0349034 0)
(0.0101388 -0.0319165 0)
(-0.00185864 -0.0250328 0)
(-0.0291078 -0.0246428 0)
(-0.0369457 -0.05084 0)
(-0.0314409 -0.0646063 0)
(-0.024641 -0.0454268 0)
(-0.0185562 -0.0461248 0)
(-0.0107514 -0.0493932 0)
(-0.00848 -0.0530058 0)
(-0.0135566 0.0392893 0)
(0.000668133 0.0170738 0)
(0.0123159 -5.25822e-05 0)
(0.0174993 -0.0077468 0)
(0.0198218 -0.00497091 0)
(0.0200305 -0.000917148 0)
(0.0198986 -0.00543032 0)
(0.01491 0.000468834 0)
(0.000778469 -0.00111704 0)
(-0.0203302 0.000597892 0)
(-0.0380803 -0.00627627 0)
(-0.0426132 -0.0222344 0)
(-0.0369882 -0.038754 0)
(-0.0334032 -0.0392102 0)
(-0.0267705 -0.032721 0)
(-0.0305034 -0.00682552 0)
(-0.0305451 -0.016733 0)
(-0.0227557 -0.0534762 0)
(-0.0234306 -0.0672417 0)
(-0.0290683 -0.0492158 0)
(-0.0297721 -0.0502999 0)
(-0.0348987 -0.0493754 0)
(-0.0436854 -0.0367783 0)
(-0.00601499 0.0521725 0)
(0.01718 0.0124462 0)
(0.00837105 0.00190064 0)
(0.00325507 -0.000926772 0)
(-0.00144465 0.000177874 0)
(-0.0016757 0.000729511 0)
(-0.000460458 -0.000816621 0)
(0.00168935 0.0096401 0)
(0.00585361 0.0117966 0)
(0.0117633 0.00911429 0)
(0.0191209 0.00154544 0)
(0.0201626 -0.0151074 0)
(0.0117938 -0.0325042 0)
(-0.000305453 -0.0376419 0)
(-0.0090419 -0.0361296 0)
(-0.00417925 -0.017543 0)
(0.0138485 -0.0267403 0)
(0.0207653 -0.0512427 0)
(0.0125567 -0.0587147 0)
(0.00483973 -0.0457513 0)
(0.00833985 -0.0465884 0)
(0.00230096 -0.0423891 0)
(-0.00615541 -0.029836 0)
(0.0284213 0.0197563 0)
(0.0470039 0.00545725 0)
(0.037578 0.00526273 0)
(0.0252785 0.00270798 0)
(0.017568 -0.00250254 0)
(0.0118602 -0.00805141 0)
(0.0107706 -0.00944586 0)
(0.0166416 -0.00561791 0)
(0.0238847 -0.00492854 0)
(0.0295105 -0.00930705 0)
(0.0332477 -0.0112367 0)
(0.0336074 -0.0139672 0)
(0.0293504 -0.0177394 0)
(0.0227035 -0.0215234 0)
(0.0182395 -0.0257158 0)
(0.0230024 -0.0295385 0)
(0.0361269 -0.0424768 0)
(0.0430443 -0.0559111 0)
(0.0449384 -0.0594974 0)
(0.0535022 -0.0555938 0)
(0.0668427 -0.0541787 0)
(0.0677956 -0.0465367 0)
(0.0616575 -0.0373651 0)
(-0.129174 -0.0130607 0)
(-0.0980783 0.0068212 0)
(-0.0811404 0.0157747 0)
(-0.0815969 0.0211038 0)
(-0.147405 0.0222276 0)
(-0.269346 0.0136082 0)
(-0.270562 -0.00547586 0)
(-0.219744 -0.00463213 0)
(-0.16438 -0.00068192 0)
(-0.118689 -0.00248417 0)
(-0.082931 -0.00629156 0)
(-0.0518699 -0.0114384 0)
(-0.0247963 -0.0165844 0)
(-3.55063e-05 -0.0239271 0)
(0.0239767 -0.0290479 0)
(0.0485 -0.0329846 0)
(0.0639449 -0.0404717 0)
(0.0631654 -0.04874 0)
(0.0625175 -0.0553602 0)
(0.0803654 -0.0605033 0)
(0.108428 -0.0583593 0)
(0.127999 -0.0418986 0)
(0.129631 -0.0246633 0)
(-0.0074007 0.17699 0)
(0.0412512 -0.0266854 0)
(0.0188884 -0.0223174 0)
(-0.00531307 0.0670224 0)
(-0.00187612 0.106256 0)
(-0.0260489 0.108676 0)
(0.0960603 -0.00616057 0)
(0.0355344 -0.0840016 0)
(-0.099049 -0.0497578 0)
(-0.174024 -0.0700849 0)
(-0.209171 -0.0729319 0)
(-0.168332 -0.0773679 0)
(-0.114331 -0.0725613 0)
(-0.0805601 -0.067239 0)
(-0.0208136 -0.0766882 0)
(0.0591989 -0.0749352 0)
(0.109407 -0.0650324 0)
(0.0932635 -0.0369996 0)
(0.00345598 -0.0795582 0)
(0.00868324 -0.102441 0)
(0.0541341 -0.0973696 0)
(0.130352 -0.0513911 0)
(0.199949 -0.00467445 0)
(0.0351315 0.0634387 0)
(0.06487 -0.0076594 0)
(0.06125 0.0186118 0)
(0.0754176 0.0461958 0)
(0.11093 0.0603722 0)
(0.144074 -0.00264709 0)
(0.170966 -0.00381093 0)
(0.192924 0.0357799 0)
(0.206296 0.0819099 0)
(0.244988 0.0685909 0)
(0.261995 0.00586173 0)
(0.25786 -0.0882913 0)
(0.248473 -0.126291 0)
(0.257714 -0.109743 0)
(0.266776 -0.147055 0)
(0.251751 -0.160468 0)
(0.22932 -0.078023 0)
(0.210629 0.0678353 0)
(0.226904 -0.00278445 0)
(0.226089 -0.0956708 0)
(0.201441 -0.166108 0)
(0.157073 -0.171955 0)
(0.116514 -0.0997154 0)
(0.0191652 0.0127503 0)
(0.0387504 -0.00474635 0)
(0.0456687 -0.000497884 0)
(0.0610536 0.0127404 0)
(0.0838396 0.0158715 0)
(0.0985245 0.00150175 0)
(0.10439 -0.0226934 0)
(0.119497 -0.0458161 0)
(0.155846 -0.0502457 0)
(0.197686 -0.061976 0)
(0.226556 -0.0780365 0)
(0.235929 -0.099368 0)
(0.235172 -0.109449 0)
(0.233957 -0.106535 0)
(0.233337 -0.106714 0)
(0.229433 -0.0962779 0)
(0.237593 -0.0641874 0)
(0.281437 -0.0301525 0)
(0.336 -0.0340222 0)
(0.359568 -0.0550928 0)
(0.345724 -0.0677202 0)
(0.310202 -0.0522915 0)
(0.274392 -0.014288 0)
(0.00874497 -0.0136954 0)
(0.0242748 -0.018268 0)
(0.0326012 -0.0102106 0)
(0.0425003 -0.00197821 0)
(0.0524966 0.00135216 0)
(0.0592516 -0.00571045 0)
(0.0686367 -0.0332129 0)
(0.0850994 -0.0530907 0)
(0.10587 -0.0513496 0)
(0.127701 -0.0441802 0)
(0.142007 -0.0559811 0)
(0.150522 -0.0837386 0)
(0.157872 -0.104372 0)
(0.160459 -0.108235 0)
(0.156183 -0.109883 0)
(0.150052 -0.106979 0)
(0.15316 -0.0942492 0)
(0.176988 -0.0836509 0)
(0.212036 -0.0943275 0)
(0.238519 -0.10521 0)
(0.246916 -0.0953319 0)
(0.24446 -0.0631956 0)
(0.243545 -0.0155412 0)
(0.00435321 -0.025973 0)
(0.0151026 -0.0259083 0)
(0.021672 -0.0170357 0)
(0.029395 -0.00973231 0)
(0.0357985 -0.00514745 0)
(0.042499 -0.0101577 0)
(0.0506746 -0.0464164 0)
(0.0573851 -0.067226 0)
(0.061822 -0.0693842 0)
(0.0706278 -0.0639172 0)
(0.0809353 -0.0775102 0)
(0.0898633 -0.103438 0)
(0.0974685 -0.115696 0)
(0.0994132 -0.109388 0)
(0.0931325 -0.104304 0)
(0.0857233 -0.0992975 0)
(0.0845708 -0.0969351 0)
(0.0973024 -0.102062 0)
(0.118476 -0.109491 0)
(0.1362 -0.103576 0)
(0.140771 -0.080865 0)
(0.135234 -0.0463324 0)
(0.126811 -0.00649983 0)
(0.00200701 -0.0337843 0)
(0.00916189 -0.0322302 0)
(0.0137701 -0.0231864 0)
(0.020837 -0.0165989 0)
(0.0282493 -0.0126323 0)
(0.0391333 -0.0184858 0)
(0.0439675 -0.0493635 0)
(0.0410486 -0.0669323 0)
(0.0368929 -0.0687457 0)
(0.0383484 -0.0691116 0)
(0.0444992 -0.0847973 0)
(0.0477392 -0.108764 0)
(0.0487789 -0.115445 0)
(0.0485016 -0.103943 0)
(0.043655 -0.0973171 0)
(0.0372021 -0.0935925 0)
(0.0332822 -0.101761 0)
(0.0355878 -0.120713 0)
(0.0409551 -0.128994 0)
(0.0447152 -0.115525 0)
(0.0422643 -0.0839422 0)
(0.0323145 -0.0476889 0)
(0.0167422 -0.00969799 0)
(0.000479884 -0.0379635 0)
(0.00492207 -0.0364421 0)
(0.0076549 -0.0284178 0)
(0.0137399 -0.0235046 0)
(0.0210676 -0.0220726 0)
(0.0318475 -0.0283242 0)
(0.0359892 -0.0484761 0)
(0.0317376 -0.0622384 0)
(0.0275396 -0.0652621 0)
(0.0267813 -0.0708162 0)
(0.0270796 -0.0860759 0)
(0.0227925 -0.106986 0)
(0.0161245 -0.111226 0)
(0.0123226 -0.100299 0)
(0.00832947 -0.0915348 0)
(0.00330936 -0.0865896 0)
(-0.00271076 -0.0968758 0)
(-0.0111183 -0.117976 0)
(-0.0214828 -0.122513 0)
(-0.0340029 -0.102005 0)
(-0.0471568 -0.0606531 0)
(-0.0689246 -0.00838794 0)
(-0.0993544 0.0540032 0)
(-0.000634073 -0.0395558 0)
(0.00167058 -0.0387233 0)
(0.00261367 -0.0321681 0)
(0.00708318 -0.0291278 0)
(0.0123394 -0.0298558 0)
(0.0195505 -0.0358518 0)
(0.0227366 -0.0487646 0)
(0.0204895 -0.0587146 0)
(0.0185508 -0.0632704 0)
(0.0183661 -0.0697621 0)
(0.0168227 -0.0825521 0)
(0.00897361 -0.0984699 0)
(-0.00218745 -0.102279 0)
(-0.00958645 -0.094858 0)
(-0.0145801 -0.0858468 0)
(-0.0184813 -0.0809182 0)
(-0.0249812 -0.0879186 0)
(-0.0391526 -0.102595 0)
(-0.0588952 -0.10192 0)
(-0.0778503 -0.082002 0)
(-0.0901001 -0.0448672 0)
(-0.0977624 0.00396646 0)
(-0.104271 0.056166 0)
(-0.00158873 -0.0392317 0)
(-0.000915951 -0.0391963 0)
(-0.00147544 -0.0342548 0)
(0.00113248 -0.0327673 0)
(0.00421441 -0.0346199 0)
(0.00805594 -0.0400171 0)
(0.00954862 -0.0490234 0)
(0.0080615 -0.0567714 0)
(0.00662156 -0.0623294 0)
(0.00611606 -0.0688005 0)
(0.00446457 -0.0783209 0)
(-0.0027287 -0.0887333 0)
(-0.0131991 -0.0918584 0)
(-0.0215925 -0.0875854 0)
(-0.0267637 -0.0810722 0)
(-0.0293101 -0.076719 0)
(-0.0329935 -0.0789789 0)
(-0.0446166 -0.0865627 0)
(-0.0624348 -0.0843308 0)
(-0.0786227 -0.0698841 0)
(-0.086498 -0.0417068 0)
(-0.0842087 0.0044409 0)
(-0.0774684 0.0604879 0)
(-0.00232557 -0.0374402 0)
(-0.002986 -0.0381448 0)
(-0.00481131 -0.03484 0)
(-0.00377929 -0.034558 0)
(-0.0023766 -0.0369811 0)
(-0.000733782 -0.0418494 0)
(-0.000373142 -0.0487108 0)
(-0.0014548 -0.0552514 0)
(-0.00279408 -0.0610009 0)
(-0.00422809 -0.067092 0)
(-0.00702495 -0.0740759 0)
(-0.0128852 -0.0806614 0)
(-0.0207662 -0.0831132 0)
(-0.0276859 -0.081164 0)
(-0.0322079 -0.0774054 0)
(-0.0346417 -0.0743889 0)
(-0.0373595 -0.0740424 0)
(-0.0441852 -0.0751751 0)
(-0.054624 -0.0707138 0)
(-0.0651714 -0.0594895 0)
(-0.0718687 -0.0403438 0)
(-0.0689244 -0.00421981 0)
(-0.0552721 0.0452774 0)
(-0.00292289 -0.0344173 0)
(-0.00472464 -0.0359083 0)
(-0.00761299 -0.0341588 0)
(-0.00780168 -0.0349613 0)
(-0.00757624 -0.0378703 0)
(-0.00706423 -0.0425131 0)
(-0.00711003 -0.0482679 0)
(-0.0078329 -0.0540244 0)
(-0.00895696 -0.0594123 0)
(-0.0106333 -0.0647236 0)
(-0.0135662 -0.0699667 0)
(-0.0183399 -0.0743297 0)
(-0.0242989 -0.0762471 0)
(-0.0299658 -0.075607 0)
(-0.034455 -0.0736185 0)
(-0.037919 -0.0716248 0)
(-0.0415819 -0.070313 0)
(-0.0466943 -0.0684517 0)
(-0.0524555 -0.0629675 0)
(-0.0571543 -0.0528914 0)
(-0.0598962 -0.0376425 0)
(-0.0564241 -0.0121673 0)
(-0.0429069 0.0246663 0)
(-0.00345548 -0.0303126 0)
(-0.00630766 -0.0326176 0)
(-0.0101769 -0.0324003 0)
(-0.0114099 -0.0343462 0)
(-0.0120673 -0.0378907 0)
(-0.0121816 -0.0426165 0)
(-0.01233 -0.0479499 0)
(-0.0127122 -0.0532232 0)
(-0.0134356 -0.0581085 0)
(-0.0147689 -0.0625853 0)
(-0.0171384 -0.0665401 0)
(-0.0207686 -0.0695154 0)
(-0.0252848 -0.0708852 0)
(-0.029956 -0.0706447 0)
(-0.0343017 -0.0693883 0)
(-0.0383762 -0.067809 0)
(-0.0427079 -0.066139 0)
(-0.0476249 -0.0635559 0)
(-0.0524276 -0.0585548 0)
(-0.055777 -0.0502442 0)
(-0.0561307 -0.0379034 0)
(-0.0514398 -0.0204217 0)
(-0.0399945 0.0034136 0)
(-0.0039851 -0.0251753 0)
(-0.0078701 -0.0282982 0)
(-0.0127137 -0.0296273 0)
(-0.0149459 -0.0328201 0)
(-0.0163953 -0.0372174 0)
(-0.0170078 -0.0423725 0)
(-0.0172342 -0.0477516 0)
(-0.0173461 -0.0528315 0)
(-0.0176321 -0.0572975 0)
(-0.0184267 -0.0610465 0)
(-0.0200505 -0.0640004 0)
(-0.0226283 -0.0659696 0)
(-0.0259614 -0.0667465 0)
(-0.0296709 -0.0663914 0)
(-0.0334884 -0.0652282 0)
(-0.0374167 -0.0636199 0)
(-0.0416558 -0.0616591 0)
(-0.0462345 -0.0589204 0)
(-0.0506259 -0.0546765 0)
(-0.0538183 -0.0483626 0)
(-0.0545379 -0.0394615 0)
(-0.0512632 -0.0275054 0)
(-0.0433608 -0.0121996 0)
(-0.00452232 -0.0190074 0)
(-0.00942856 -0.0229509 0)
(-0.0152389 -0.0258576 0)
(-0.0184245 -0.0304189 0)
(-0.0205923 -0.0359051 0)
(-0.0216268 -0.0418268 0)
(-0.0219104 -0.0476277 0)
(-0.0217801 -0.0527888 0)
(-0.021643 -0.0569878 0)
(-0.0218981 -0.0601405 0)
(-0.0228472 -0.0622824 0)
(-0.0245975 -0.0634402 0)
(-0.027038 -0.0636296 0)
(-0.0299419 -0.062952 0)
(-0.0331279 -0.061602 0)
(-0.0365533 -0.0597753 0)
(-0.0402675 -0.0575255 0)
(-0.0442219 -0.0546723 0)
(-0.0480729 -0.0509066 0)
(-0.0511751 -0.045964 0)
(-0.0526984 -0.0395896 0)
(-0.0517031 -0.0314622 0)
(-0.0477966 -0.0211592 0)
(-0.00506485 -0.0118233 0)
(-0.0109508 -0.0166083 0)
(-0.0176607 -0.0211532 0)
(-0.0216861 -0.0272343 0)
(-0.0244337 -0.0340631 0)
(-0.0257535 -0.0410735 0)
(-0.0260002 -0.0476148 0)
(-0.0255835 -0.0530892 0)
(-0.025011 -0.0571573 0)
(-0.0247484 -0.0598076 0)
(-0.0251189 -0.0612325 0)
(-0.0262443 -0.0616567 0)
(-0.0280592 -0.0612555 0)
(-0.0303948 -0.0601738 0)
(-0.0330853 -0.0585458 0)
(-0.0360356 -0.0564783 0)
(-0.0392069 -0.0540059 0)
(-0.042526 -0.0510686 0)
(-0.0457739 -0.0475655 0)
(-0.0485753 -0.0434232 0)
(-0.0505078 -0.0385479 0)
(-0.0510131 -0.0326912 0)
(-0.0497372 -0.0253456 0)
(-0.00559452 -0.00369664 0)
(-0.0123859 -0.00935398 0)
(-0.019879 -0.0156354 0)
(-0.0245796 -0.0234205 0)
(-0.0277279 -0.0318574 0)
(-0.0291654 -0.040258 0)
(-0.0292528 -0.0478085 0)
(-0.0284853 -0.0537775 0)
(-0.0274622 -0.0578107 0)
(-0.0267037 -0.0600045 0)
(-0.0265617 -0.0607344 0)
(-0.0271835 -0.0604216 0)
(-0.028538 -0.0593888 0)
(-0.0304828 -0.0578427 0)
(-0.0328422 -0.055899 0)
(-0.0354702 -0.0536121 0)
(-0.0382639 -0.0509935 0)
(-0.0411257 -0.0480277 0)
(-0.0438989 -0.0447046 0)
(-0.0463566 -0.0410493 0)
(-0.0482824 -0.0370549 0)
(-0.0493646 -0.0324978 0)
(-0.0492701 -0.0268656 0)
(-0.00609994 0.00533829 0)
(-0.0137042 -0.00133428 0)
(-0.0218449 -0.00946477 0)
(-0.0270322 -0.0191576 0)
(-0.0303984 -0.0294653 0)
(-0.0317961 -0.0395252 0)
(-0.0316191 -0.0482981 0)
(-0.0304633 -0.0548838 0)
(-0.0290065 -0.0589366 0)
(-0.0277947 -0.0606921 0)
(-0.0271962 -0.0607191 0)
(-0.0273814 -0.0596319 0)
(-0.0283536 -0.0579006 0)
(-0.0299961 -0.055816 0)
(-0.0321264 -0.0535114 0)
(-0.0345581 -0.0510133 0)
(-0.0371381 -0.0483022 0)
(-0.0397425 -0.0453619 0)
(-0.0422361 -0.0422115 0)
(-0.0444627 -0.0389161 0)
(-0.0463141 -0.0355099 0)
(-0.0475699 -0.0317923 0)
(-0.0479353 -0.0272446 0)
(-0.00654887 0.0152451 0)
(-0.0148673 0.00743031 0)
(-0.0235161 -0.00281864 0)
(-0.0290228 -0.014624 0)
(-0.0324432 -0.0270466 0)
(-0.0336718 -0.0389933 0)
(-0.0331573 -0.0491399 0)
(-0.0316141 -0.0563995 0)
(-0.0297786 -0.060489 0)
(-0.0281821 -0.0618138 0)
(-0.0271901 -0.061131 0)
(-0.0269877 -0.0592362 0)
(-0.0276113 -0.0567399 0)
(-0.0289798 -0.0540338 0)
(-0.0309202 -0.0513006 0)
(-0.0332223 -0.0485627 0)
(-0.035695 -0.0457684 0)
(-0.0381887 -0.0428735 0)
(-0.0405734 -0.0398915 0)
(-0.0427288 -0.0369001 0)
(-0.0445815 -0.0339561 0)
(-0.0459771 -0.0308796 0)
(-0.0466213 -0.0271579 0)
(-0.00692702 0.0258168 0)
(-0.0158397 0.0167803 0)
(-0.0248732 0.00418116 0)
(-0.0305459 -0.00998052 0)
(-0.0338913 -0.0247317 0)
(-0.0348577 -0.0387462 0)
(-0.0339652 -0.0503555 0)
(-0.032073 -0.0582789 0)
(-0.0299454 -0.0623934 0)
(-0.028051 -0.0632962 0)
(-0.0267387 -0.0619121 0)
(-0.026197 -0.0591981 0)
(-0.0264897 -0.055889 0)
(-0.0275815 -0.0524833 0)
(-0.0293309 -0.0492406 0)
(-0.0315227 -0.0462054 0)
(-0.0339377 -0.0433007 0)
(-0.0364016 -0.04044 0)
(-0.0387801 -0.037605 0)
(-0.0409677 -0.0348666 0)
(-0.0429202 -0.0322969 0)
(-0.0445006 -0.0297481 0)
(-0.045423 -0.0267072 0)
(-0.00722917 0.0369789 0)
(-0.0165933 0.026534 0)
(-0.0258828 0.01143 0)
(-0.0315886 -0.00535564 0)
(-0.0347782 -0.0226099 0)
(-0.0354274 -0.0388345 0)
(-0.0341459 -0.0519345 0)
(-0.0319779 -0.0604408 0)
(-0.0296686 -0.0645527 0)
(-0.0275778 -0.0650533 0)
(-0.0260302 -0.0629982 0)
(-0.0252054 -0.0594857 0)
(-0.0251835 -0.0553472 0)
(-0.0259785 -0.0511785 0)
(-0.0275059 -0.0473392 0)
(-0.0295719 -0.0439284 0)
(-0.0319392 -0.040859 0)
(-0.0344055 -0.0379968 0)
(-0.0368269 -0.0352742 0)
(-0.0391062 -0.0327364 0)
(-0.0412059 -0.030468 0)
(-0.0430177 -0.0283568 0)
(-0.0442275 -0.0258992 0)
(-0.00744746 0.0484275 0)
(-0.0171122 0.0365121 0)
(-0.0264921 0.0187391 0)
(-0.0321271 -0.000842855 0)
(-0.0351183 -0.0207239 0)
(-0.0354253 -0.0392933 0)
(-0.0337674 -0.0538471 0)
(-0.0314264 -0.0627697 0)
(-0.029061 -0.0668518 0)
(-0.0268928 -0.0669844 0)
(-0.0252159 -0.0643107 0)
(-0.0241853 -0.060057 0)
(-0.0238798 -0.0551178 0)
(-0.0243545 -0.0501545 0)
(-0.0256046 -0.0456343 0)
(-0.0274942 -0.0417516 0)
(-0.0297888 -0.0384407 0)
(-0.032256 -0.035522 0)
(-0.0347278 -0.0328658 0)
(-0.0371074 -0.0304756 0)
(-0.0393727 -0.0284382 0)
(-0.0414183 -0.0266812 0)
(-0.0429223 -0.0247211 0)
(-0.00708297 0.0603676 0)
(-0.0169644 0.0465692 0)
(-0.0264551 0.0260135 0)
(-0.0320204 0.00353754 0)
(-0.0348208 -0.0190897 0)
(-0.0347939 -0.0401316 0)
(-0.0328328 -0.056054 0)
(-0.0304396 -0.0651357 0)
(-0.0281406 -0.0691692 0)
(-0.026037 -0.0689692 0)
(-0.0243709 -0.0657436 0)
(-0.0232488 -0.0608416 0)
(-0.0227276 -0.0551868 0)
(-0.0228799 -0.0494534 0)
(-0.0237883 -0.0441924 0)
(-0.0254176 -0.0397295 0)
(-0.0275772 -0.0360757 0)
(-0.030012 -0.0330281 0)
(-0.0325185 -0.0303833 0)
(-0.0349879 -0.028086 0)
(-0.0373994 -0.0262128 0)
(-0.0396672 -0.0247343 0)
(-0.0414389 -0.0232016 0)
(-0.00609521 0.0713453 0)
(-0.0155486 0.056875 0)
(-0.0251879 0.0332554 0)
(-0.0307992 0.00783856 0)
(-0.0334374 -0.0176622 0)
(-0.0332217 -0.0412196 0)
(-0.031229 -0.0584321 0)
(-0.0289459 -0.0674542 0)
(-0.026796 -0.0713841 0)
(-0.0249277 -0.0708533 0)
(-0.0234616 -0.0671456 0)
(-0.022415 -0.0617206 0)
(-0.0218021 -0.0554959 0)
(-0.0216818 -0.0490955 0)
(-0.0222061 -0.0430937 0)
(-0.0234721 -0.0379527 0)
(-0.0253948 -0.0338297 0)
(-0.0277298 -0.0305553 0)
(-0.0302285 -0.0278571 0)
(-0.0327491 -0.0255981 0)
(-0.0352713 -0.0238246 0)
(-0.0377094 -0.0225472 0)
(-0.0397097 -0.0213729 0)
(-0.00484435 0.0807877 0)
(-0.0131477 0.0663723 0)
(-0.0222714 0.0406699 0)
(-0.0279277 0.0121682 0)
(-0.0304267 -0.0162929 0)
(-0.0301344 -0.0422682 0)
(-0.0284711 -0.0606399 0)
(-0.0265908 -0.0696358 0)
(-0.0247584 -0.0733244 0)
(-0.0233667 -0.072415 0)
(-0.0223496 -0.0683011 0)
(-0.021602 -0.0625119 0)
(-0.0210818 -0.0559206 0)
(-0.0208099 -0.0490454 0)
(-0.020968 -0.0423997 0)
(-0.0217816 -0.0365345 0)
(-0.0233347 -0.0318054 0)
(-0.0254626 -0.028172 0)
(-0.0278858 -0.0253338 0)
(-0.0304083 -0.0230542 0)
(-0.0329828 -0.021321 0)
(-0.0355392 -0.0201746 0)
(-0.0377025 -0.0192897 0)
(-0.0034067 0.0883571 0)
(-0.0100097 0.0746487 0)
(-0.0178992 0.0474487 0)
(-0.0231287 0.0163901 0)
(-0.0254738 -0.0148895 0)
(-0.0250943 -0.043078 0)
(-0.0240082 -0.0623159 0)
(-0.0228353 -0.0713933 0)
(-0.0217115 -0.0746814 0)
(-0.0211321 -0.0733467 0)
(-0.0208539 -0.0689347 0)
(-0.02066 -0.0629789 0)
(-0.0204559 -0.0562718 0)
(-0.0202179 -0.0491912 0)
(-0.0201127 -0.0421132 0)
(-0.0204454 -0.0355812 0)
(-0.0214939 -0.0301399 0)
(-0.0232685 -0.025986 0)
(-0.0255125 -0.0228875 0)
(-0.0279625 -0.0205165 0)
(-0.0305273 -0.0187666 0)
(-0.0331243 -0.0176831 0)
(-0.0353897 -0.0170205 0)
(-0.00174863 0.0935458 0)
(-0.00619138 0.0812274 0)
(-0.0122479 0.0531244 0)
(-0.0164499 0.0201952 0)
(-0.0185383 -0.0134519 0)
(-0.0179549 -0.0434915 0)
(-0.0176618 -0.0632245 0)
(-0.0175043 -0.0722395 0)
(-0.0175563 -0.0750426 0)
(-0.0181273 -0.0733129 0)
(-0.0188458 -0.0687647 0)
(-0.0194316 -0.0628745 0)
(-0.0197578 -0.0563261 0)
(-0.0197675 -0.0493517 0)
(-0.0195807 -0.0421491 0)
(-0.0195047 -0.0351448 0)
(-0.0199642 -0.0289775 0)
(-0.0212181 -0.0241393 0)
(-0.0231448 -0.0206174 0)
(-0.0254356 -0.0180585 0)
(-0.0279148 -0.0162321 0)
(-0.0304886 -0.0151504 0)
(-0.0327845 -0.014646 0)
(-1.6538e-05 0.0959874 0)
(-0.00198648 0.0856177 0)
(-0.00585145 0.0572333 0)
(-0.00847449 0.0232701 0)
(-0.00991197 -0.0122202 0)
(-0.00899742 -0.0434938 0)
(-0.00983405 -0.0630714 0)
(-0.0110211 -0.0717388 0)
(-0.0125582 -0.0740702 0)
(-0.014466 -0.0720706 0)
(-0.0163115 -0.0675895 0)
(-0.017804 -0.0620067 0)
(-0.0188081 -0.0558797 0)
(-0.0192553 -0.0493139 0)
(-0.0192079 -0.0423345 0)
(-0.0189044 -0.0351772 0)
(-0.0188025 -0.0284222 0)
(-0.0193955 -0.0227959 0)
(-0.0208317 -0.0186533 0)
(-0.0228463 -0.0157687 0)
(-0.0251658 -0.0137925 0)
(-0.0276357 -0.0126502 0)
(-0.0298959 -0.0122439 0)
(0.00142443 0.0955225 0)
(0.00199942 0.0876901 0)
(0.00051958 0.0597675 0)
(-0.000205016 0.0250334 0)