/*--------------------------------*- C++ -*----------------------------------*\
| =========                 |                                                 |
| \\      /  F ield         | OpenFOAM: The Open Source CFD Toolbox           |
|  \\    /   O peration     | Version:  2312                                  |
|   \\  /    A nd           | Website:  www.openfoam.com                      |
|    \\/     M anipulation  |                                                 |
\*---------------------------------------------------------------------------*/
FoamFile
{
    version     2.0;
    format      ascii;
    arch        "LSB;label=32;scalar=64";
    class       volScalarField;
    location    "3";
    object      alphas;
}
// * * * * * * * * * * * * * * * * * * * * * * * * * * * * * * * * * * * * * //

dimensions      [0 0 0 0 0 0 0];

internalField   nonuniform List<scalar> 
2268
(
2
2
2
2
2
2
2
2
2
2
2
2
2
2
2
2
2
2
2
2
1.99997
1.99995
1.99995
2
2
2
2
2
2
2
2
2
2
2
2
2
2
2
2
2
2
2
2
2
1.99998
1.99998
2
2
2
2
2
2
2
2
2
2
2
2
2
2
2
2
2
2
2
2
2
2
2
2
2
2
2
1.99998
2
2
2
2
2
2
2
2
2
2
2
2
2
2
2
2
2
2.00012
2
1.99986
2
1.99987
1.99999
2.00001
2
2
2
2
2
1.99999
2
2
2
2
1.99952
1.99144
1.97479
1.95302
1.92551
1.88947
1.86954
1.99488
1.99336
1.99838
2.00002
1.99994
1.99976
1.99965
1.99981
1.99751
1.97418
1.92757
1.8579
1.77495
1.67433
1.54211
1.39749
1.22365
1.02702
0.865183
0.73593
0.622895
0.524796
0.473383
1.14213
1.17843
1.26245
1.37855
1.4876
1.52877
1.47744
1.31645
1.06246
0.799145
0.5988
0.431297
0.306337
0.218983
0.156898
0.0948197
0.0407011
0.034744
0.0354659
0.0293839
0.0298549
0.0468737
0.047642
0.0296251
0.0365253
0.0490675
0.0761448
0.114998
0.136723
0.113338
0.0558472
0.000674392
0.000855521
0.000893294
0.000840093
0.00141911
0.0211911
0.0622081
0.071752
0.0417226
0.0425691
0.0366521
0.0349905
0.0396432
0.0407254
0.050489
1.91605
1.9171
1.92507
1.95151
1.96655
1.96194
1.9445
1.94055
1.93814
1.93962
1.94262
1.94434
1.94195
1.94397
1.95617
1.95973
1.95803
1.95638
1.95581
1.78417
1.88022
1.94261
1.94679
1.95313
1.95818
1.95752
1.95039
1.9443
1.94465
1.95673
1.9519
1.93427
1.90096
1.86006
1.83347
1.82799
1.85116
1.82839
0.631008
1.01898
1.46385
1.65614
1.72923
1.7611
1.81348
1.80846
1.68929
1.61114
1.56702
1.54499
1.5086
1.45513
1.32633
1.28391
1.36698
1.4122
1.43583
0.448161
0.316798
0.621853
1.10894
1.28979
1.3232
1.19643
1.02127
0.96619
0.980967
0.933842
0.938996
0.893169
0.707691
0.514742
0.417229
0.438266
0.566927
0.694027
0.436848
0.207687
0.292925
0.602175
0.608185
0.316278
0.0805574
0.0878167
0.127951
0.44617
0.641306
0.689976
0.338921
0.231344
0.228198
0.224035
0.220234
0.1869
0.313035
0.421635
0.260187
0.118801
0.479762
0.546376
0.0776172
0.0651095
0.0931973
0.238188
0.511612
0.638776
0.523409
0.23047
0.214261
0.213004
0.227288
0.232681
0.241519
0.180467
0.259268
0.245281
0.1097
0.195255
0.50642
0.150565
0.0822361
0.463388
0.60835
0.596453
0.595474
0.464331
0.197104
0.209619
0.192087
0.211089
0.252054
0.236071
0.233773
0.318883
0.183169
0.0773326
0.0533943
0.313073
0.26367
0.0845558
0.198225
0.475326
0.530342
0.5252
0.438287
0.3793
0.206038
0.141888
0.271695
0.362377
0.322514
0.233051
0.00335429
0.00290624
0.00156441
0.00123223
0.00127507
0.00126999
0.00125366
0.00134166
0.00137851
0.0013643
0.00121016
0.00127904
0.00131025
0.00269554
0.112992
0.250197
0.110319
0.0564321
0.063706
0.0543561
0.0424371
0.0495471
0.214336
0.00223722
0.00248834
0.0055903
0.00931871
0.0100644
0.00890789
0.0122928
0.0207403
0.0154805
0.00628895
0.00254684
0.0182984
0.0627462
0.0624109
0.14524
0.312797
0.25335
0.335732
0.383294
0.415134
0.476607
0.544026
0.712616
0.00240176
0.00243247
0.00247822
0.00550698
0.0248295
0.122969
0.144945
0.173766
0.174538
0.178786
0.186511
0.205399
0.255788
0.370087
0.537878
0.611977
0.785526
0.970086
1.0313
1.06739
1.12556
1.14129
1.11357
0.0873374
0.126794
0.230757
0.40995
0.590963
0.86408
1.01865
0.819147
0.671108
0.675445
0.76366
0.815923
0.909365
0.992652
1.01384
1.02039
1.01182
1.00809
1.00946
1.01013
1.01228
1.0911
1.14852
1.03696
1.08913
1.15358
1.15462
1.15356
1.15089
1.36501
1.25692
0.950554
1.01202
1.01456
1.01949
1.01377
1.00609
1.0018
1.00122
1.00123
1.00069
1.00028
1.00031
1.00044
1.00219
1.06286
1.80325
1.78292
1.72357
1.67318
1.60343
1.74371
1.78689
1.7385
1.4519
1.28035
1.15309
1.07848
1.03922
1.00928
1.00098
1.00053
1.00054
1.0005
1.00035
0.999243
0.996226
0.999168
1.00367
2.97852
2.98347
2.95475
2.88717
2.8018
2.74672
2.68757
2.74452
2.74742
2.6976
2.63246
2.55714
2.46019
2.34517
2.17069
1.94478
1.72927
1.47895
1.19994
1.0476
1.01264
0.991676
0.986117
2.99273
2.99387
2.99774
2.9989
2.99718
2.9884
2.9811
2.98808
2.99859
2.99976
3
2.99999
2.99998
2.99968
2.99914
2.97438
2.91211
2.82236
2.64275
2.34925
2.00568
1.746
1.50539
3
2.99999
2.99987
2.99979
2.99979
2.99957
2.99944
2.99948
2.99953
2.99988
3
3
3
3
2.99998
2.99918
2.99763
2.99688
2.99673
2.99703
2.9868
2.92905
2.82177
3
2.99999
2.9999
2.99967
2.99967
2.99976
2.99993
2.99987
2.99992
3
3
3
3
2.99996
2.99988
2.99995
2.99999
3
3
2.99999
2.99999
2.99876
2.99047
3
3
3
2.99996
2.99975
2.99981
2.99994
2.99991
2.99988
2.99991
2.99999
3
2.9999
2.99979
2.99979
2.99979
2.99987
2.99999
3
3
2.99996
2.99987
2.99982
3
3
3
3
3
3
3
3
2.99998
2.99998
2.99987
2.99979
2.99979
2.99979
2.99985
2.99996
2.99998
3
3
3
2.99992
2.99979
2.99979
3
3
3
3
3
3
3
3
2.99994
2.9999
2.9999
2.99994
2.99995
2.99993
2.99987
2.99986
2.99986
2.99988
2.99999
3
2.99998
2.99993
2.99992
3
3
3
3
2.99999
2.99997
2.99997
2.99999
2.99999
2.99998
2.99997
2.99992
2.99972
2.99964
2.99963
2.99973
2.99987
2.99999
3
3
2.99997
2.99988
2.99986
3
3
3
2.99999
2.99994
2.99993
2.99993
2.99996
2.99999
2.99992
2.99969
2.99963
2.99963
2.99973
2.99984
2.99994
2.99997
2.99997
2.99987
2.99984
2.99983
2.99983
2.99985
3
3
3
2.99999
2.99993
2.99993
2.99994
2.99999
2.99999
2.99978
2.99968
2.99975
3
3
3
2.99996
2.99994
2.99994
2.99995
2.99998
2.99997
2.99996
2.99996
3
3
3
3
2.99997
2.99996
3
3
2.99999
2.99998
2.99998
3
3
3
3
2.99998
2.99997
2.99999
3
3
3
2.99999
2.99998
3
3
3
3
3
3
3
3
3
3
3
3
3
3
3
3
3
3
3
3
3
3
3
3
3
3
3
3
3
3
3
3
3
3
3
3
3
3
3
3
3
3
3
3
3
3
3
3
3
3
3
3
3
3
3
3
3
3
3
3
3
3
3
3
3
3
3
3
3
3
3
3
3
3
3
3
3
3
3
3
3
3
3
3
3
3
3
3
3
3
3
3
3
3
3
3
3
3
3
3
3
3
3
3
3
3
3
3
3
3
3
3
3
3
3
3
3
3
3
3
3
3
3
3
3
3
3
3
3
3
3
3
3
3
3
3
3
3
3
3
3
3
3
3
3
3
3
3
3
3
3
3
3
3
3
3
3
3
3
3
3
3
3
3
3
3
3
3
3
3
3
3
3
3
3
3
3
3
3
3
3
3
3
3
3
3
3
3
3
3
3
3
3
3
3
3
3
3
3
3
3
3
3
3
3
3
3
3
3
3
3
3
3
3
3
3
3
3
3
3
3
3
3
3
3
3
3
3
3
3
3
3
3
3
3
3
3
3
3
3
3
3
3
3
3
3
3
3
3
3
3
3
3
3
3
3
3
3
3
3
3
3
3
3
3
3
3
3
3
3
3
3
3
3
3
3
3
3
3
3
3
3
3
3
3
3
3
3
3
3
3
3
3
3
3
3
3
3
3
3
3
3
3
3
3
3
3
3
3
3
3
3
3
3
3
3
3
3
3
3
3
3
3
3
3
3
3
3
3
3
3
3
3
3
3
3
3
3
3
3
3
3
3
3
3
3
3
3
3
3
3
3
3
3
3
3
3
3
3
3
3
3
3
3
3
3
3
3
3
3
3
3
3
3
3
3
3
3
3
3
3
3
3
3
3
3
3
3
3
3
3
3
3
3
3
3
3
3
3
3
3
3
3
3
3
3
3
3
3
3
3
3
3
3
3
3
3
3
3
3
3
3
3
3
3
3
3
3
3
3
3
3
3
3
3
3
3
3
3
3
3
3
3
3
3
3
3
3
3
3
3
3
3
3
3
3
3
3
3
3
3
3
3
3
3
3
3
3
3
3
3
3
3
3
3
3
3
3
3
3
3
3
3
3
3
3
3
3
3
3
3
3
3
3
3
3
3
3
3
3
3
3
3
3
3
3
3
3
3
3
3
3
3
3
3
3
3
3
3
3
3
3
3
3
3
3
3
3
3
3
3
3
3
3
3
3
3
3
3
3
3
3
3
3
3
3
3
3
3
3
3
3
3
3
3
3
3
3
3
3
3
3
3
3
3
3
3
3
3
3
3
3
3
3
3
0.364772
0.401519
0.388031
0.348529
0.867483
0.542346
0.0501307
0.0166808
0.982034
0.978509
0.950732
0.939809
1.13922
1.1316
1.05082
1.02225
1.0976
1.08426
1.0821
1.04514
1.00433
1.00433
1.01201
1.0093
0.987713
0.997387
0.999265
1.00076
1.35285
1.25073
1.13404
1.03514
2.74438
2.67482
2.53869
2.2834
2.94802
2.9384
2.95652
2.9888
2.99922
2.99852
2.99841
2.99958
2.99983
2.99989
2.99999
2.99999
2.99994
2.99998
3
3
2.99991
2.99999
3
3
2.99994
2.99999
3
3
2.99995
2.99995
2.99995
2.99996
2.99997
2.99998
2.99999
2.99999
3
3
3
3
3
3
3
3
3
3
3
3
3
3
3
3
3
3
3
3
3
3
3
3
3
3
3
3
3
3
3
3
3
3
3
3
3
3
3
3
3
3
3
3
3
3
3
3
3
3
3
3
3
3
3
3
3
3
3
3
3
3
3
3
3
3
3
3
3
3
3
3
3
3
3
3
3
3
3
3
3
3
3
3
3
3
3
3
3
3
3
3
3
3
3
3
3
3
3
3
0.230118
0.0337903
0.0138731
0.00569044
0.159011
0.26675
0.0839665
0.0519657
0.0689552
0.228051
0.541444
0.575624
0.532847
0.303831
0.473846
0.591175
0.519981
0.458513
0.349164
0.0167238
0.0160066
0.0059586
0.00419213
0.0264295
0.14676
0.124292
0.0703487
0.101107
0.159913
0.404919
0.570665
0.677375
0.749644
0.867998
0.852799
0.714722
0.687187
0.676719
0.562872
0.176799
0.155853
0.0627172
0.0285196
0.037311
0.0521691
0.158593
0.388099
0.579877
0.610065
0.514875
0.79949
0.905252
0.918383
0.905392
0.910035
0.936585
0.937429
1.01755
1.0421
0.560889
0.223098
0.16808
0.0819728
0.11121
0.509438
0.952698
1.08947
0.871354
0.676882
0.80688
0.897173
0.968439
0.890035
0.930818
1.00345
1.13239
1.00287
1.05675
1.09469
1.00494
0.73267
0.504611
0.554789
0.938224
1.11082
1.10507
1.05433
1.14215
1.04244
0.997164
1.16662
1.07325
0.928822
0.953009
1.03642
1.00198
1.00598
1.02848
1.04215
1.03789
1.04136
1.08937
1.06092
1.01155
1.01189
1.0389
1.1463
1.16536
1.12418
1.10993
1.01808
1.0615
1.00446
0.999214
1.00356
1.00262
1.00215
1.00238
1.00255
1.00254
1.00687
1.01247
1.0091
1.00693
1.00507
1.077
1.09801
1.02377
1.01461
1.01209
1.02286
1.0098
1.02421
1.1467
1.15496
1.05007
1.00287
1.00155
1.00182
1.00211
1.00248
1.0026
1.00262
1.00243
1.00307
1.0136
1.01705
1.00761
1.01013
1.01768
1.01054
1.03036
2.39548
2.47279
2.38487
2.18955
1.98448
1.68927
1.41003
1.21883
1.0759
0.999443
1.00173
1.00275
1.00292
1.00451
1.00348
1.01435
1.03528
1.01214
1.03472
2.97723
2.96206
2.96
2.96009
2.965
2.9565
2.85809
2.6324
2.37481
2.03103
1.70997
1.34294
1.12472
1.07199
1.40699
1.3815
1.02064
1.01306
1.02589
2.99981
2.99683
2.99683
2.99115
2.97076
2.97003
2.97414
2.99566
2.99206
2.98654
2.82068
2.15128
1.93088
2.43057
2.71143
1.88579
1.15009
1.02222
1.02273
2.99999
3
3
2.99999
2.99998
2.99326
2.98608
2.99642
2.99972
2.99964
2.99361
2.96632
2.95444
2.97985
2.98678
2.84858
2.54283
2.01641
1.68246
3
3
3
2.99999
2.99999
2.99993
2.99881
2.99891
2.99994
2.99998
2.99313
2.98325
2.99258
3
3
2.99999
2.99999
2.99856
2.98071
3
3
3
2.99999
2.99994
2.99992
2.99996
2.99997
2.99999
2.99999
2.99826
2.99148
2.99298
3
3
2.99999
3
3
2.99999
2.99998
2.99997
2.99995
2.99983
2.99966
2.99974
2.99993
2.99998
2.99999
2.99999
2.99999
2.99997
2.99993
2.99997
2.99999
3
3
3
3
2.99995
2.99993
2.99991
2.99985
2.99953
2.99941
2.99945
2.99955
2.99969
2.99986
2.99996
2.99993
2.99971
2.99976
2.99992
2.99999
3
3
3
2.99999
2.99999
2.99997
2.99996
2.99988
2.99962
2.99936
2.99926
2.99926
2.99928
2.99931
2.99916
2.99912
2.99929
2.99949
2.99993
3
3
3
3
3
3
3
3
2.99999
2.99992
2.99966
2.99953
2.99938
2.99929
2.99934
2.99947
2.99941
2.99951
2.99993
3
3
3
3
3
3
3
3
3
3
3
2.99999
2.99994
2.99989
2.99994
2.99997
2.99996
2.99986
2.99987
2.99998
2.99994
2.99995
3
3
3
3
3
3
3
3
3
3
3
3
2.99999
2.99995
2.99993
2.99991
2.99995
2.99955
2.99977
3
3
3
3
3
3
3
3
3
3
3
3
2.99998
2.99993
2.99994
2.99993
2.99964
2.99945
2.99974
3
3
3
3
3
3
3
3
3
3
3
3
3
2.99996
2.99987
2.99953
2.99945
2.99945
2.9998
3
3
3
3
3
3
3
3
3
3
3
3
3
2.99999
2.99987
2.99972
2.99969
2.9995
2.99989
3
3
3
3
3
3
3
3
3
3
3
3
3
3
2.99998
2.99998
2.99999
2.99984
2.99989
3
3
3
3
3
3
3
3
3
3
3
3
3
3
3
3
3
3
2.99973
3
3
3
3
3
3
3
3
3
3
3
3
3
3
3
3
3
3
2.99956
3
3
3
3
3
3
3
3
3
3
3
3
3
3
3
3
3
3
2.99956
3
3
3
3
3
3
3
3
3
3
3
3
3
3
3
3
3
3
2.99969
3
3
3
3
3
3
3
3
3
3
3
3
3
3
3
3
3
3
2.99999
3
3
3
3
3
3
3
3
3
3
3
3
3
3
3
2.99999
3
3
3
3
3
3
3
3
3
3
3
3
3
3
3
3
3
2.99999
2.99999
2.99999
2.99999
2.99999
3
3
3
3
3
3
3
3
3
3
3
3
3
3
3
2.99999
2.99999
2.99999
2.99999
3
3
3
3
3
3
3
3
3
3
3
3
3
3
3
3
2.99999
2.99999
3
3
3
3
3
3
3
3
3
3
3
3
3
3
3
3
3
3
3
3
3
3
3
3
3
3
3
3
3
3
3
3
3
3
3
3
3
3
3
3
3
3
3
3
3
3
3
3
3
3
3
3
3
3
3
3
3
3
3
3
3
3
3
3
3
3
3
3
3
3
3
3
3
3
3
3
3
3
3
3
3
3
3
3
3
3
3
3
3
3
3
3
3
3
3
3
3
3
3
3
3
3
3
3
3
3
3
3
3
3
3
3
3
3
3
3
3
3
3
3
3
3
3
3
3
3
3
3
3
3
3
3
3
3
3
3
3
3
3
3
3
3
3
3
3
3
3
3
3
3
3
3
3
3
3
3
3
3
3
3
3
3
3
3
3
3
3
3
3
3
3
3
)
;

boundaryField
{
    leftWall
    {
        type            calculated;
        value           nonuniform List<scalar> 
50
(
2
2
2
2
2
1.99488
1.14213
0.0296251
0.00335429
0.00223722
0.00240176
0.0873374
1.03696
1.80325
2.97852
2.99273
3
3
3
3
3
3
3
3
3
3
3
3
3
3
3
3
3
3
3
3
3
3
3
3
3
3
3
3
3
3
3
3
3
3
)
;
    }
    rightWall
    {
        type            calculated;
        value           nonuniform List<scalar> 
50
(
1.95581
1.82839
1.43583
0.694027
0.313035
0.180467
0.233773
0.233051
0.349164
0.676719
0.937429
1.13239
1.03642
0.999214
1.02421
1.03036
1.03472
1.02589
1.02273
1.68246
2.98071
2.99999
3
3
3
3
2.99995
2.99977
2.99974
2.9998
2.99989
2.99989
2.99973
2.99956
2.99956
2.99969
2.99999
3
2.99999
2.99999
3
3
3
3
3
3
3
3
3
3
)
;
    }
    lowerWall
    {
        type            calculated;
        value           nonuniform List<scalar> 
62
(
2
2
2
2
2
2
2
2
2
2
2
2
2
2
2
2
2
2
2
2
1.99997
1.99995
1.99995
1.99995
1.99998
2
2.00012
1.86954
0.473383
0.047642
0.050489
0.364772
0.401519
0.388031
0.348529
1.91605
1.78417
0.631008
0.448161
0.436848
0.421635
0.259268
0.318883
1.91605
1.9171
1.92507
1.95151
1.96655
1.96194
1.9445
1.94055
1.93814
1.93962
1.94262
1.94434
1.94195
1.94397
1.95617
1.95973
1.95803
1.95638
1.95581
)
;
    }
    atmosphere
    {
        type            calculated;
        value           nonuniform List<scalar> 
46
(
3
3
3
3
3
3
3
3
3
3
3
3
3
3
3
3
3
3
3
3
3
3
3
3
3
3
3
3
3
3
3
3
3
3
3
3
3
3
3
3
3
3
3
3
3
3
)
;
    }
    defaultFaces
    {
        type            empty;
    }
}


// ************************************************************************* //
