/*--------------------------------*- C++ -*----------------------------------*\
| =========                 |                                                 |
| \\      /  F ield         | OpenFOAM: The Open Source CFD Toolbox           |
|  \\    /   O peration     | Version:  2312                                  |
|   \\  /    A nd           | Website:  www.openfoam.com                      |
|    \\/     M anipulation  |                                                 |
\*---------------------------------------------------------------------------*/
FoamFile
{
    version     2.0;
    format      ascii;
    arch        "LSB;label=32;scalar=64";
    class       volScalarField;
    location    "3";
    object      alpha.air;
}
// * * * * * * * * * * * * * * * * * * * * * * * * * * * * * * * * * * * * * //

dimensions      [0 0 0 0 0 0 0];

internalField   nonuniform List<scalar> 
2268
(
6.87736e-10
6.42836e-10
4.08081e-10
1.56226e-10
1.02288e-10
6.58253e-11
2.45388e-11
1.61927e-11
1.10503e-11
1.10979e-11
1.36776e-11
1.91321e-11
2.76384e-11
4.75915e-11
8.18639e-11
1.13081e-10
1.14196e-10
1.16732e-10
1.29026e-10
1.69485e-10
4.77337e-09
3.54227e-08
8.62038e-08
7.1593e-10
6.95912e-10
6.90187e-10
1.36095e-09
5.86332e-10
2.25418e-10
7.16301e-11
5.50599e-11
5.23326e-11
6.00112e-11
7.68682e-11
1.02238e-10
1.46849e-10
2.69511e-10
5.45332e-10
1.27707e-09
2.48745e-09
2.46249e-09
2.38951e-09
1.69498e-10
4.9954e-08
1.13908e-06
2.28338e-06
7.20389e-10
3.76546e-09
8.91622e-09
8.9361e-09
3.19621e-09
3.71357e-10
7.97825e-11
1.03521e-10
1.34858e-10
1.92864e-10
6.81475e-10
1.5055e-09
1.74389e-09
6.34841e-10
1.51837e-09
4.17698e-09
2.08704e-08
3.52783e-08
3.73465e-08
1.82343e-08
7.2865e-08
1.64795e-06
1.66205e-06
7.12181e-10
5.97563e-09
1.09084e-08
3.77137e-09
6.97821e-10
1.85898e-10
7.85193e-11
8.20369e-11
1.05171e-10
3.36438e-10
1.94373e-09
4.92871e-09
6.84504e-09
6.71249e-09
1.5167e-09
3.3328e-09
1.24549e-08
6.17057e-08
1.40568e-07
2.29866e-08
2.43616e-08
2.57537e-08
0.00011971
1.75747e-10
4.7478e-10
4.86878e-15
5.6301e-15
4.93629e-09
6.14243e-06
2.32266e-09
4.16383e-09
4.14529e-10
3.67694e-10
2.46553e-10
2.28075e-10
3.37946e-10
5.87168e-07
8.17294e-07
3.0012e-09
2.68825e-09
2.68131e-09
2.68825e-09
2.67149e-05
0.00051377
0.00364411
0.0101054
0.000298782
4.67564e-10
0.000236584
0.000153566
1.96268e-05
2.03708e-06
1.92113e-06
1.49447e-05
3.52864e-05
0.00010757
0.000153212
0.000115193
1.33424e-05
6.48665e-06
0.000227022
0.000519242
0.000265382
0.000303599
0.000289641
0.000132864
0.00275903
0.0136268
0.0156508
0.000783394
0.000998975
0.00162876
0.00149541
0.000124009
1.9837e-06
1.95234e-06
1.58988e-05
0.000197021
0.000316604
0.00031657
0.00030122
4.41182e-05
6.30228e-06
0.000456035
0.00166778
0.00361672
0.00190556
0.000876773
0.000229476
0.0051385
0.01266
0.0129181
0.000780281
0.00162877
0.00162996
0.00115743
0.000149602
2.01528e-06
1.98365e-06
2.01528e-06
6.46579e-06
8.86841e-05
0.000185231
0.000134552
0.000115598
3.4111e-05
0.000275061
0.00101052
0.00826064
0.0114692
0.00850587
0.0076492
0.00964311
0.0091534
0.00917437
0.000235847
0.000239382
0.00115132
0.00884262
0.0115441
0.0115423
0.0087688
0.00745192
0.00504093
0.00399062
0.00427449
0.00473547
0.00344659
0.00344485
0.00644246
0.00742887
0.00712227
0.00696822
0.0065288
0.000235845
0.000235851
0.000236261
0.00111998
0.0039473
0.00619563
0.00685171
0.00485173
0.00398853
0.00399179
0.0054138
0.00620916
0.00557892
0.00344152
0.00344245
0.00835587
0.0170172
0.0182542
0.0107007
0.000235847
0.000847882
0.000444308
0.000717327
0.000953849
0.00152334
0.00526438
0.00827994
0.00498788
0.00478343
0.00547009
0.00541115
0.00421685
0.00441867
0.00404555
0.0140732
0.0176797
0.017655
0.0143145
0.0315157
0.0186253
0.0182427
0.00802712
0.00378056
0.00905272
0.0261685
0.0290884
0.0290668
0.0173428
0.00551036
0.00963619
0.025056
0.0337977
0.0184149
0.0126247
0.0122008
0.012741
0.00971716
0.037697
0.0324853
0.0238925
0.0233977
0.0137982
0.00963923
0.0127436
0.0137878
0.0115319
0.00953656
0.0295051
0.0520003
0.0521223
0.0516849
0.0506504
0.0482098
0.0461689
0.0298137
0.00971714
0.0376982
0.0377131
0.0267513
0.0265405
0.0106725
0.00501801
0.0062834
0.00791231
0.00944301
0.00947997
0.0284243
0.0483373
0.0475938
0.0379573
0.0374163
0.0459215
0.0473311
0.050409
0.0244972
0.0377076
0.0377097
0.0237015
0.0245627
0.0143771
0.00833594
0.0140434
0.0207156
0.0206827
0.0144035
0.0142596
0.0142413
0.0247885
0.030584
0.0228376
0.0310963
0.0536751
0.0519702
0.049918
0.0231707
0.0155477
0.00975519
0.00880742
0.0153905
0.0190518
0.0170533
0.00872883
0.0154481
0.0102782
0.0143981
0.0276002
0.0664065
0.0380379
0.00664432
0.0616763
0.095715
0.0821149
0.0495576
0.000834361
0.00094209
0.000516194
0.000314463
0.000308341
0.000305773
0.000323344
0.000414274
0.000426913
0.000392178
0.000245009
0.000296008
0.000320817
3.46199e-05
0.000210401
0.0027048
0.00703704
0.0160758
0.0183817
0.0150931
0.0111812
0.0100989
0.0199849
0.00066183
0.000741468
0.00185838
0.00309997
0.00335432
0.00296881
0.00409711
0.00691295
0.00515969
0.00209551
0.000848172
0.00607532
0.0208647
0.0205456
0.0103057
0.0130267
0.0242369
0.0519281
0.0694717
0.0694792
0.0697523
0.0734789
0.0391981
0.000661804
0.000658708
0.000703975
0.00177619
0.00477499
0.024848
0.0210586
0.00903775
0.0122912
0.0368756
0.0570988
0.0625611
0.0643186
0.0643185
0.0629826
0.0464421
0.0452476
0.0582305
0.064734
0.0664448
0.0775244
0.0801206
0.0655686
0.00922696
0.0135293
0.0294042
0.0518121
0.0293616
0.0386087
0.126165
0.0964314
0.0302974
0.0259447
0.0556214
0.062567
0.0618195
0.0503327
0.0359725
0.0198758
0.00588419
0.00402761
0.00472283
0.00505435
0.00610389
0.045353
0.0740744
0.057796
0.0628065
0.0769036
0.0772943
0.0761908
0.0735365
0.180565
0.185379
0.0230236
0.00801103
0.00804513
0.00968704
0.00684685
0.00304247
0.000899062
0.000611964
0.000614891
0.000430005
0.00029679
0.000309855
0.000359169
0.00106303
0.0313182
0.402944
0.392186
0.362268
0.337185
0.301479
0.371564
0.418729
0.41499
0.259337
0.146448
0.0767345
0.0394316
0.0197151
0.00464145
0.000530012
0.000381686
0.000382404
0.000361119
0.000295766
0.00024193
0.000241154
0.000255478
0.00180899
0.991611
0.994084
0.979301
0.945295
0.902409
0.876708
0.847044
0.872435
0.87388
0.850244
0.818959
0.781315
0.7325
0.672866
0.585268
0.472308
0.36526
0.242816
0.102039
0.0242386
0.00629087
0.000245677
0.000248957
0.997539
0.997924
0.999205
0.999562
0.998989
0.996071
0.993686
0.996025
0.99953
0.999921
0.999999
0.999995
0.999977
0.999825
0.999487
0.988081
0.960397
0.915735
0.825934
0.676983
0.50287
0.374648
0.262582
0.999999
0.999997
0.999955
0.999929
0.99993
0.999785
0.999717
0.999737
0.999831
0.999962
0.999999
0.999999
0.999998
0.999996
0.999981
0.999719
0.999201
0.998951
0.998902
0.999009
0.993474
0.966241
0.920782
1
0.999997
0.999965
0.999888
0.999889
0.999921
0.999968
0.999936
0.999962
0.999999
1
1
1
0.999985
0.999955
0.999981
0.999998
0.999998
0.999997
0.999994
0.999994
0.999588
0.996814
1
1
1
0.999985
0.999918
0.999936
0.99998
0.999956
0.999943
0.999955
0.999997
1
0.999965
0.999924
0.999924
0.999927
0.999955
0.999998
0.999999
0.999999
0.999984
0.999941
0.99992
1
1
1
1
1
1
0.999999
0.999998
0.999991
0.999991
0.999954
0.999925
0.999924
0.999925
0.999948
0.999986
0.999993
0.999998
0.999999
0.999999
0.99997
0.999906
0.999905
1
1
1
1
1
1
1
1
0.999978
0.999963
0.999963
0.999979
0.999979
0.999966
0.999937
0.999934
0.999934
0.999943
0.999993
0.999999
0.999991
0.999968
0.99996
1
1
1
0.999999
0.999996
0.999986
0.999988
0.999994
0.999997
0.999992
0.999984
0.999965
0.999873
0.999845
0.999845
0.999894
0.999955
0.999995
0.999998
0.999999
0.99999
0.999959
0.999952
1
1
1
0.999998
0.999972
0.999966
0.999966
0.999978
0.999996
0.999959
0.99986
0.999841
0.999844
0.999893
0.999942
0.999977
0.999985
0.999985
0.999949
0.999936
0.999933
0.999933
0.999944
1
1
1
0.999995
0.999966
0.999966
0.999972
0.999995
0.999995
0.999902
0.99986
0.999894
1
1
0.999997
0.999979
0.999968
0.999968
0.999974
0.999992
0.999988
0.999986
0.999981
1
1
1
0.999998
0.999984
0.99998
1
1
0.999997
0.999989
0.999988
1
1
1
0.999999
0.99999
0.999986
0.999997
1
1
1
0.999996
0.999989
1
1
1
1
1
1
1
1
1
1
1
1
1
1
1
1
1
1
1
1
1
1
0.999999
1
1
1
1
1
1
1
1
1
1
1
1
1
1
1
1
1
1
1
1
1
1
1
1
1
1
1
1
1
1
1
1
1
1
1
1
1
1
1
1
1
1
1
1
1
1
1
1
1
1
1
1
1
1
1
1
1
1
1
1
1
1
1
1
1
1
1
1
1
1
1
1
1
1
1
1
1
1
1
1
1
1
1
1
1
1
1
1
1
1
1
1
1
1
1
1
1
1
1
1
1
1
1
1
1
1
1
1
1
1
1
1
1
1
1
1
1
1
1
1
1
1
1
1
1
1
1
1
1
1
1
1
1
1
1
1
1
1
1
1
1
1
1
1
1
1
1
1
1
1
1
1
1
1
1
1
1
1
1
1
1
1
1
1
1
1
1
1
1
1
1
1
1
1
1
1
1
1
1
1
1
1
1
1
1
1
1
1
1
1
1
1
1
1
1
1
1
1
1
1
1
1
1
1
1
1
1
1
1
1
1
1
1
1
1
1
1
1
1
1
1
1
1
1
1
1
1
1
1
1
1
1
1
1
1
1
1
1
1
1
1
1
1
1
1
1
1
1
1
1
1
1
1
1
1
1
1
1
0.999999
1
1
1
1
1
1
1
1
1
1
1
1
1
1
1
1
1
1
1
1
1
0.999999
0.999999
0.999999
1
1
1
1
1
1
1
1
1
1
1
1
1
1
1
1
1
1
1
1
0.999999
0.999999
0.999999
1
1
1
1
1
1
1
1
1
1
1
1
1
1
1
1
1
1
1
1
0.999999
0.999999
0.999999
1
1
1
1
1
1
1
1
1
1
1
1
1
1
1
1
1
1
1
1
1
0.999999
0.999999
1
1
1
1
1
1
1
1
1
1
1
1
1
1
1
1
1
1
1
1
1
0.999999
0.999998
0.999999
1
1
1
1
1
1
1
1
1
1
1
1
1
1
1
1
1
1
1
1
0.999999
0.999998
0.999999
1
1
1
1
1
1
1
1
1
1
1
1
1
1
1
1
1
1
1
1
0.999999
0.999998
1
1
1
1
1
1
1
1
1
1
1
1
1
1
1
1
1
1
1
1
1
1
0.999999
1
1
1
1
1
1
1
1
1
1
1
1
1
1
1
1
0.999999
1
1
1
1
1
1
1
1
1
1
1
1
1
1
1
1
1
1
1
1
1
1
0.999999
0.999999
1
1
1
1
1
1
1
1
1
1
1
1
1
1
1
1
1
1
1
1
1
0.999999
1
1
1
1
1
1
1
1
1
1
1
1
1
1
1
1
1
1
1
1
1
1
1
1
1
1
1
1
1
1
1
1
1
1
1
1
1
1
1
1
1
1
1
1
1
0.034788
0.0347759
0.0236559
0.0103018
0.00670464
0.0198187
0.0145971
0.00338231
0.00651095
0.00650191
0.00651151
0.00795143
0.0731184
0.0704605
0.0269229
0.0109175
0.0489503
0.0421563
0.0410877
0.0224971
0.00212917
0.00216179
0.00564415
0.00396801
0.000246015
0.000273216
0.000340857
0.000386975
0.186308
0.135342
0.0771566
0.0241957
0.88208
0.847295
0.779349
0.650772
0.982627
0.979104
0.985134
0.996021
0.999726
0.999505
0.999418
0.999648
0.999919
0.999945
0.999996
0.999987
0.999971
0.999992
0.999998
0.999998
0.999966
0.999996
0.999998
0.999999
0.999979
0.999998
0.999998
0.999998
0.999975
0.999976
0.999976
0.999981
0.999986
0.999991
0.999993
0.999995
1
1
0.999999
0.999999
1
1
1
1
1
1
1
1
1
1
1
1
1
1
1
1
1
1
1
1
1
1
1
1
1
1
1
1
1
1
1
1
1
1
1
1
1
1
1
1
1
1
1
1
1
1
1
1
1
1
1
1
1
1
1
1
1
1
1
1
1
1
1
1
1
1
1
1
1
1
1
1
1
1
1
1
1
1
1
1
1
1
1
1
1
1
1
1
1
1
1
1
1
1
1
1
0.000586318
0.000583891
0.000588432
0.000615948
0.0128939
0.018896
0.0101006
0.00515638
0.00514092
0.0072825
0.0624535
0.0791541
0.0821292
0.0208162
0.00672984
0.044659
0.095769
0.094259
0.0579959
0.00310476
0.0039104
0.000667038
0.000604112
0.00163847
0.00867691
0.0118194
0.016629
0.0160489
0.0111736
0.0800395
0.101896
0.0736242
0.00612846
0.00616778
0.00612252
0.0548346
0.0962695
0.0962695
0.0374433
0.0505858
0.0480396
0.020336
0.00737166
0.00744076
0.00748456
0.0468059
0.0856569
0.0465616
0.0340048
0.0523079
0.144566
0.056717
0.0285769
0.0157629
0.0166812
0.0579895
0.0962696
0.00836101
0.0496068
0.0651867
0.0651477
0.0531349
0.0266923
0.0330421
0.0641215
0.0856569
0.0829843
0.0445428
0.089221
0.163623
0.193683
0.186712
0.0595109
0.0167915
0.0346894
0.0962695
0.00136191
0.0281474
0.0501111
0.0633754
0.0687674
0.0687563
0.0665781
0.0426847
0.0501939
0.0460561
0.0207059
0.0936715
0.193121
0.194231
0.194227
0.145674
0.0270649
0.0124401
0.0474414
0.000500998
0.00294232
0.0141905
0.0209753
0.0183029
0.0291196
0.0565187
0.029806
0.00423364
0.00420101
0.0177681
0.0709443
0.0859024
0.0653146
0.0546586
0.00874719
0.0304417
0.00591271
0.00591536
0.000264635
0.000265243
0.000950575
0.00119623
0.00125439
0.00124299
0.00342678
0.00623264
0.00455062
0.00346105
0.00255111
0.0380739
0.04742
0.0105522
0.00632097
0.00456239
0.0110515
0.0059177
0.0059146
0.0717649
0.0747378
0.0229877
0.00102913
0.00102462
0.00103141
0.00112938
0.00124942
0.00129206
0.00130616
0.00124138
0.00155494
0.00654702
0.00733371
0.00197245
0.00198458
0.00610494
0.00591964
0.0089929
0.704496
0.739936
0.690782
0.592267
0.49047
0.344595
0.205838
0.111016
0.039569
0.0011006
0.00110746
0.00110413
0.00111747
0.00192963
0.00194425
0.00196991
0.0149293
0.00649689
0.0112115
0.991972
0.986281
0.985218
0.985387
0.985613
0.977631
0.928982
0.817818
0.689387
0.517154
0.353811
0.169453
0.0614747
0.0358218
0.201797
0.185392
0.00663928
0.00673111
0.00683327
0.99991
0.998941
0.99889
0.996984
0.990171
0.989761
0.991028
0.99842
0.997322
0.994009
0.908448
0.574046
0.465637
0.712487
0.849104
0.433816
0.0678596
0.00896506
0.0104439
0.999992
0.999998
0.999998
0.999993
0.999985
0.997753
0.995335
0.998683
0.999846
0.99966
0.997734
0.983927
0.972891
0.983896
0.986785
0.918408
0.764902
0.504732
0.341228
0.999999
0.999999
0.999998
0.999994
0.999993
0.999977
0.999603
0.999598
0.999953
0.999991
0.997646
0.993891
0.997334
0.999999
0.999999
0.999998
0.999998
0.998561
0.990353
0.999999
0.999999
0.999999
0.999997
0.999981
0.999974
0.999987
0.999989
0.999994
0.999994
0.999413
0.997146
0.997543
0.999998
0.999998
0.999998
0.999998
0.999999
0.999993
0.999989
0.999983
0.99998
0.999927
0.999843
0.999883
0.999975
0.999993
0.999994
0.999994
0.999991
0.999987
0.999973
0.999987
0.999996
0.999999
1
1
1
0.999973
0.999969
0.999959
0.999932
0.999774
0.999715
0.999737
0.999788
0.99985
0.999924
0.999971
0.999961
0.999892
0.999908
0.99996
0.999989
0.999999
1
1
0.999996
0.999995
0.999989
0.999981
0.999942
0.999812
0.999685
0.999647
0.999646
0.999646
0.999655
0.999644
0.999635
0.999717
0.999814
0.999963
0.999999
1
1
1
1
1
1
1
0.999996
0.999959
0.999835
0.999767
0.999695
0.999657
0.99969
0.999793
0.999785
0.999827
0.999973
0.999999
0.999999
1
1
1
1
1
1
1
1
1
0.999993
0.999969
0.999945
0.99997
0.999988
0.999985
0.99995
0.999957
0.999994
0.99997
0.999977
1
1
1
1
1
1
1
1
1
1
1
1
0.999994
0.999972
0.99997
0.999967
0.999984
0.999776
0.999883
1
1
1
1
1
1
1
1
1
1
1
1
0.999987
0.999961
0.999964
0.99997
0.999822
0.999726
0.999869
1
1
1
1
1
1
1
1
1
1
1
1
1
0.999977
0.999932
0.999768
0.999726
0.999726
0.999899
1
1
1
1
1
1
1
1
1
1
1
1
1
0.999997
0.999939
0.999864
0.999851
0.99975
0.999947
1
1
1
1
1
1
1
1
1
1
1
1
0.999999
0.999999
0.999991
0.999992
0.999996
0.999922
0.999949
1
1
1
1
1
1
1
1
1
1
1
1
1
1
1
1
1
0.999999
0.999868
1
1
1
1
1
1
1
1
1
1
1
1
1
1
0.999999
0.999999
0.999999
0.999999
0.999782
1
1
1
1
1
1
1
1
1
1
1
1
1
0.999998
0.999998
0.999998
0.999999
0.999999
0.999782
1
1
1
1
1
1
1
1
1
1
1
1
1
0.999999
0.999999
0.999999
0.999999
1
0.999851
1
1
1
1
1
1
1
1
1
1
1
1
1
1
1
1
1
0.999999
0.999995
1
1
1
1
1
1
1
1
1
1
1
1
1
1
0.999998
0.999995
0.999998
1
1
1
1
1
1
1
1
1
1
1
1
1
1
1
1
0.999997
0.999993
0.999993
0.999995
0.999995
1
1
1
1
1
1
1
1
1
1
1
1
1
1
0.999999
0.999993
0.999993
0.999993
0.999995
1
1
1
1
1
1
1
1
1
1
1
1
1
1
1
0.999999
0.999993
0.999993
1
1
1
1
1
1
1
1
1
1
1
1
1
1
1
1
1
0.999999
0.999999
1
1
1
1
1
1
1
1
1
1
1
1
1
1
1
1
1
1
1
1
1
1
1
1
1
1
1
1
1
1
1
1
1
1
1
1
1
1
1
1
1
1
1
1
1
1
1
1
1
1
1
1
1
1
1
1
1
1
1
1
1
1
1
1
1
1
1
1
1
1
1
1
1
1
1
1
1
1
1
1
1
1
1
1
1
1
1
1
1
1
1
1
1
1
1
1
1
1
1
1
1
1
1
1
1
1
1
1
1
1
1
1
1
1
1
1
1
1
1
1
1
1
1
1
1
1
1
1
1
1
1
1
1
1
1
1
1
1
1
1
1
1
1
1
1
1
1
1
1
1
1
1
1
)
;

boundaryField
{
    leftWall
    {
        type            alphaContactAngle;
        thetaProperties 
6
(
(galistan air) 90 0 0 0
(oil galistan) 90 0 0 0
(water oil) 90 0 0 0
(water air) 90 0 0 0
(oil air) 90 0 0 0
(water galistan) 90 0 0 0
);
        value           nonuniform List<scalar> 
50
(
6.87736e-10
7.1593e-10
7.20389e-10
7.12181e-10
1.75747e-10
0.000298782
0.000783394
0.000780281
0.000834361
0.00066183
0.000661804
0.00922696
0.057796
0.402944
0.991611
0.997539
0.999999
1
1
1
1
1
1
1
1
1
1
1
1
1
1
1
1
1
1
1
1
1
1
1
1
1
1
1
1
1
0.999999
0.999999
0.999999
1
)
;
    }
    rightWall
    {
        type            alphaContactAngle;
        thetaProperties 
6
(
(galistan air) 90 0 0 0
(oil galistan) 90 0 0 0
(water oil) 90 0 0 0
(water air) 90 0 0 0
(oil air) 90 0 0 0
(water galistan) 90 0 0 0
);
        value           nonuniform List<scalar> 
50
(
0.0065288
0.0107007
0.0143145
0.00971716
0.00971714
0.0244972
0.049918
0.0495576
0.0579959
0.0962695
0.0962696
0.0962695
0.0474414
0.00591536
0.0059146
0.0089929
0.0112115
0.00683327
0.0104439
0.341228
0.990353
0.999993
1
1
1
1
0.999977
0.999883
0.999869
0.999899
0.999947
0.999949
0.999868
0.999782
0.999782
0.999851
0.999995
1
0.999995
0.999995
1
1
1
1
1
1
1
1
1
1
)
;
    }
    lowerWall
    {
        type            alphaContactAngle;
        thetaProperties 
6
(
(galistan air) 90 0 0 0
(oil galistan) 90 0 0 0
(water oil) 90 0 0 0
(water air) 90 0 0 0
(oil air) 90 0 0 0
(water galistan) 90 0 0 0
);
        value           nonuniform List<scalar> 
62
(
6.87736e-10
6.42836e-10
4.08081e-10
1.56226e-10
1.02288e-10
6.58253e-11
2.45388e-11
1.61927e-11
1.10503e-11
1.10979e-11
1.36776e-11
1.91321e-11
2.76384e-11
4.75915e-11
8.18639e-11
1.13081e-10
1.14196e-10
1.16732e-10
1.29026e-10
1.69485e-10
4.77337e-09
3.54227e-08
8.62038e-08
8.62038e-08
2.28338e-06
1.66205e-06
0.00011971
0.0101054
0.0156508
0.0129181
0.00917437
0.034788
0.0347759
0.0236559
0.0103018
0.000235847
0.000235845
0.000235847
0.0315157
0.037697
0.0376982
0.0377076
0.0231707
0.000235847
0.000239382
0.00115132
0.00884262
0.0115441
0.0115423
0.0087688
0.00745192
0.00504093
0.00399062
0.00427449
0.00473547
0.00344659
0.00344485
0.00644246
0.00742887
0.00712227
0.00696822
0.0065288
)
;
    }
    atmosphere
    {
        type            inletOutlet;
        inletValue      uniform 1;
        value           nonuniform List<scalar> 
46
(
1
1
1
1
1
1
1
1
1
1
1
1
1
1
1
1
1
1
1
1
1
1
1
1
1
1
1
1
1
1
1
1
1
1
1
1
1
1
1
1
1
1
1
1
1
1
)
;
    }
    defaultFaces
    {
        type            empty;
    }
}


// ************************************************************************* //
