/*--------------------------------*- C++ -*----------------------------------*\
| =========                 |                                                 |
| \\      /  F ield         | OpenFOAM: The Open Source CFD Toolbox           |
|  \\    /   O peration     | Version:  2312                                  |
|   \\  /    A nd           | Website:  www.openfoam.com                      |
|    \\/     M anipulation  |                                                 |
\*---------------------------------------------------------------------------*/
FoamFile
{
    version     2.0;
    format      ascii;
    arch        "LSB;label=32;scalar=64";
    class       volScalarField;
    location    "3";
    object      alpha.oil;
}
// * * * * * * * * * * * * * * * * * * * * * * * * * * * * * * * * * * * * * //

dimensions      [0 0 0 0 0 0 0];

internalField   nonuniform List<scalar> 
2268
(
7.86989e-10
7.1507e-10
5.05519e-10
2.81798e-10
2.53246e-10
3.80352e-10
6.10206e-10
6.46604e-10
2.34055e-10
1.12928e-10
1.03512e-10
1.07227e-10
1.29408e-10
1.86528e-10
2.95375e-10
4.73607e-10
8.47612e-10
1.30239e-09
2.66827e-09
3.15904e-07
2.96797e-05
5.34583e-05
5.34199e-05
7.50091e-10
4.16692e-10
3.07824e-10
3.41417e-10
1.12584e-09
3.63438e-09
7.15198e-09
1.06543e-08
9.72981e-10
2.21846e-10
2.00381e-10
1.05426e-10
1.05613e-10
1.09505e-10
3.785e-10
6.43997e-10
1.34057e-09
2.23066e-09
4.53643e-09
1.71068e-08
2.40075e-06
1.78802e-05
2.66813e-05
1.84635e-10
1.1587e-09
1.05176e-08
7.3329e-09
5.51363e-07
5.52416e-07
1.87001e-07
6.26251e-10
6.23375e-10
1.35342e-09
6.50674e-09
1.19964e-08
1.85269e-08
1.67777e-08
3.35665e-09
1.45174e-09
1.60265e-09
3.10682e-09
3.4976e-09
2.35862e-09
-1.96884e-24
-7.10903e-25
-7.92019e-41
1.41697e-10
1.41154e-10
7.95599e-08
4.35369e-06
1.54548e-05
1.96429e-07
2.43337e-10
1.08401e-09
1.5812e-09
5.75496e-09
2.47295e-08
3.80314e-08
1.62349e-07
1.9149e-07
8.0217e-08
2.77051e-09
-2.61665e-23
5.22771e-22
-1.16404e-22
-6.27971e-14
-2.48111e-21
-1.63823e-22
4.07187e-22
7.71329e-08
0.00013807
7.44267e-08
0.000134546
9.66985e-06
2.44694e-10
2.44612e-10
7.03449e-09
2.85653e-09
3.80528e-09
4.55319e-09
5.91461e-06
2.84545e-09
-5.95547e-11
6.20611e-13
9.29132e-10
0.000475796
0.0052849
0.00999549
0.0121822
0.0109543
0.00499641
0.00347674
0.00542126
0.00664099
0.00185758
0.00013005
8.05697e-05
0.000237331
0.000355971
0.000203663
0.000146085
0.000650908
0.00191421
0.00254123
0.00186788
0.0007386
0.000404192
0.00144199
0.0192274
0.0348776
0.0358295
0.0358329
0.035715
0.0138782
0.00916344
0.00732621
0.00732567
0.00620264
0.000143592
0.000189054
0.000642765
0.000642228
0.000535493
0.000435044
0.00195148
0.00407889
0.00453369
0.00450869
0.0178592
0.0378996
0.0441418
0.0298509
0.0290276
0.0328356
0.0286955
0.0144394
0.00889362
0.00889362
0.00732567
0.00606289
0.00309277
0.000393942
8.96718e-05
0.000363477
0.000539071
0.000472984
0.000314668
0.000215684
0.000274189
0.000436439
0.00107232
0.0210889
0.0613855
0.0687205
0.0169406
0.00815316
0.0110411
0.0118086
0.00910997
0.00889362
0.00889362
0.0350537
0.0338889
0.0306802
0.0276049
0.0276047
0.0276046
0.0276043
0.0276044
0.0276045
0.0276046
0.0276047
0.0281104
0.0296056
0.0316411
0.0348579
0.0354714
0.0346867
0.0344748
0.0344748
0.0351589
0.0737303
0.038906
0.0356095
0.0334754
0.0317611
0.029189
0.0280616
0.0276046
0.0278317
0.0356028
0.0436789
0.0607069
0.0932107
0.134082
0.165612
0.179714
0.155603
0.166814
0.180437
0.260852
0.254427
0.19841
0.235913
0.231494
0.182864
0.190922
0.306803
0.38478
0.429576
0.436166
0.446804
0.451792
0.436875
0.436028
0.510651
0.528337
0.528297
0.319671
0.260703
0.432406
0.524196
0.5242
0.524198
0.446125
0.415637
0.44487
0.540913
0.54154
0.541024
0.53291
0.424584
0.341192
0.303907
0.327318
0.403649
0.528318
0.319666
0.110231
0.221248
0.524202
0.523238
0.262903
0.0306381
0.0347524
0.0814703
0.405713
0.540913
0.522095
0.169298
0.0650952
0.0650716
0.0651038
0.0667427
0.0838458
0.270331
0.299661
0.141291
0.0385476
0.40014
0.513743
0.0500813
0.0213848
0.049455
0.198159
0.471399
0.541647
0.366386
0.065155
0.0651271
0.0651513
0.0651255
0.0651569
0.0657063
0.093372
0.0533422
0.0476563
0.0325808
0.121566
0.462676
0.112872
0.0247011
0.393393
0.534675
0.541492
0.540816
0.407151
0.0716305
0.0651498
0.0707016
0.0651539
0.065177
0.0652275
0.0654668
0.134265
0.021445
0.0210906
0.0269717
0.266056
0.197692
0.0231755
0.164142
0.396371
0.4421
0.444675
0.322367
0.134857
0.070869
0.104506
0.0662203
0.0651977
0.0684243
0.0658281
0.000835424
6.46933e-05
5.06441e-07
6.92691e-05
1.90953e-05
2.09255e-05
5.42069e-05
5.65364e-05
3.17864e-05
1.13387e-05
1.65886e-05
5.67316e-23
-4.26495e-11
0.00195112
0.101683
0.228585
0.0891678
0.00814841
0.00814975
0.00814703
0.00815026
0.0185072
0.124663
0.000173077
1.72882e-06
5.02161e-07
4.82148e-06
-1.06279e-23
-6.63997e-21
-3.02561e-09
-1.98573e-08
-4.65685e-09
-3.85839e-09
-1.43535e-08
3.71599e-19
-5.81468e-10
2.1465e-23
0.103626
0.264855
0.179949
0.179938
0.174862
0.204793
0.263324
0.319697
0.594654
8.68105e-06
2.24469e-08
2.38663e-08
2.24469e-08
0.0104694
0.0473452
0.0782314
0.143756
0.136721
0.0679503
0.0148534
0.0172821
0.0625198
0.175576
0.345311
0.47128
0.649666
0.795384
0.837092
0.867781
0.890024
0.897021
0.915582
0.0588309
0.0853657
0.141756
0.254214
0.502841
0.742903
0.63217
0.52187
0.577466
0.597506
0.596324
0.62765
0.723366
0.841054
0.905839
0.960702
0.994067
0.995943
0.995261
0.99493
0.993825
0.954255
0.925518
0.863015
0.900278
0.922523
0.922442
0.922404
0.92242
0.815329
0.693417
0.879672
0.987969
0.990297
0.990194
0.993073
0.99695
0.999097
0.99938
0.99938
0.999381
0.999362
0.999357
0.999338
0.998877
0.968454
0.594116
0.606064
0.636463
0.661003
0.697517
0.623939
0.52272
0.491622
0.673689
0.840997
0.922883
0.960183
0.980078
0.99534
0.99936
0.999363
0.999381
0.999381
0.999381
0.998445
0.995401
0.998305
0.998143
0.00328374
0.00081205
0.0167602
0.0512541
0.0945504
0.116524
0.145933
0.126986
0.125532
0.146718
0.175583
0.21319
0.262692
0.326532
0.414572
0.527529
0.633168
0.750414
0.893821
0.974645
0.993328
0.99054
0.985124
-2.79411e-21
7.46056e-23
9.63186e-22
-1.96426e-11
-1.4401e-08
8.87305e-28
6.01855e-22
-1.42759e-22
-1.68954e-09
-1.60639e-10
-1.99232e-11
-8.9985e-20
1.85874e-25
-2.43456e-20
0.00034939
0.00991322
0.0308367
0.0751419
0.164947
0.318264
0.496912
0.621074
0.716481
1.21578e-06
3.47078e-06
2.84755e-06
-1.19295e-23
3.79828e-06
0.000210924
0.000273544
0.000257023
3.91872e-05
-1.56271e-10
4.82853e-08
3.5766e-07
3.63679e-07
8.66255e-08
-1.50851e-08
-9.21508e-21
-1.03985e-10
5.83465e-20
-2.11022e-20
2.46838e-20
0.00637955
0.0299522
0.0583022
3.26217e-08
3.01723e-06
3.77317e-06
3.23723e-06
8.57009e-07
2.36362e-08
2.19649e-05
6.37545e-05
3.79381e-05
4.50148e-07
1.05613e-08
1.0505e-08
1.49461e-07
4.5785e-06
6.07159e-06
2.59265e-06
2.09498e-07
4.18443e-08
-2.46691e-23
2.86221e-06
3.91884e-06
-6.20689e-09
-7.14918e-18
3.21919e-08
3.68261e-09
2.36138e-07
1.40771e-07
6.16047e-08
2.2907e-08
7.047e-07
4.33588e-05
5.63904e-05
4.42995e-05
1.37507e-06
1.05994e-08
7.64749e-06
1.2951e-05
1.28313e-05
1.08522e-05
6.33296e-07
4.32075e-17
1.66749e-25
-7.38816e-10
2.76349e-06
4.11349e-05
6.10341e-05
1.44789e-08
3.72373e-09
2.6515e-09
2.65e-09
8.32649e-09
2.21776e-08
9.24284e-09
1.05929e-08
5.8689e-06
6.16941e-06
4.57179e-06
1.26656e-05
1.36955e-05
1.30052e-05
7.53986e-06
5.95254e-06
5.0019e-06
1.6712e-06
6.64795e-07
4.69069e-07
5.5659e-06
6.69676e-05
6.93913e-05
2.94917e-08
7.67608e-09
2.65001e-09
3.67357e-09
5.12934e-09
6.55246e-09
7.91312e-09
2.83758e-08
2.29053e-06
7.04854e-06
7.08254e-06
7.21424e-06
1.51755e-05
2.74638e-05
5.45464e-05
5.45542e-05
5.45337e-05
4.86898e-05
5.92508e-06
6.41764e-07
2.12283e-06
2.31147e-05
3.63597e-05
3.07337e-08
8.53039e-09
4.63529e-09
2.06735e-07
1.81141e-06
1.20576e-05
1.11128e-05
5.31676e-06
2.69411e-06
7.66879e-06
1.50748e-05
2.55493e-05
9.85793e-05
9.87655e-05
9.88702e-05
4.98867e-05
9.26409e-06
2.39865e-06
8.62385e-07
7.35479e-07
1.70759e-06
2.31675e-06
9.78505e-06
3.03725e-08
8.98381e-09
4.79076e-09
2.03877e-06
2.58854e-05
3.20357e-05
3.20089e-05
2.12345e-05
2.68241e-06
3.74319e-05
0.000102755
0.000102616
9.81769e-05
4.9131e-05
6.43699e-06
6.83159e-06
8.86139e-06
1.08224e-05
2.36976e-05
2.52133e-05
2.53197e-05
2.51629e-05
1.70902e-05
2.92534e-08
7.80185e-09
4.93155e-09
5.33568e-06
3.2665e-05
3.26088e-05
2.74712e-05
4.06811e-06
4.43512e-06
7.26252e-05
9.60505e-05
6.8526e-05
1.71256e-08
1.70828e-08
1.21715e-07
1.63878e-05
2.48335e-05
2.48494e-05
2.03701e-05
3.50336e-06
3.98633e-06
4.46188e-06
1.24612e-05
2.90078e-08
6.44182e-09
5.06248e-09
1.60759e-06
1.57854e-05
1.94422e-05
1.97323e-09
1.94522e-09
2.30863e-06
1.02787e-05
1.17331e-05
2.89953e-08
1.75824e-08
1.7058e-08
1.92723e-07
7.13483e-06
1.19874e-05
3.06265e-06
3.13411e-08
8.89686e-08
1.46197e-07
3.64977e-06
1.04077e-05
2.92046e-08
6.59806e-09
1.46565e-08
1.91189e-09
1.6579e-09
2.15497e-09
8.15983e-09
3.96086e-08
1.47699e-08
5.86958e-09
5.48202e-09
8.18188e-09
4.93804e-08
9.17717e-08
7.50785e-08
2.28655e-08
2.24705e-08
2.23926e-08
2.80809e-08
7.47612e-08
1.89827e-07
4.53313e-07
5.29755e-07
3.13166e-08
4.56935e-09
4.48008e-09
1.66174e-09
2.08199e-09
7.50404e-09
6.84346e-08
1.19032e-07
8.85526e-08
2.78038e-08
5.48343e-09
8.72861e-09
1.60133e-08
2.48789e-08
3.02952e-08
3.58422e-08
3.49691e-08
2.39827e-08
1.29534e-08
1.34043e-08
2.02235e-08
3.11473e-08
9.10313e-09
3.2829e-08
2.93019e-09
1.6279e-09
1.7731e-09
3.85338e-09
2.0145e-08
1.10357e-07
1.54796e-07
1.5527e-07
9.28837e-08
5.20988e-09
5.00344e-09
6.24004e-09
4.64263e-09
4.09762e-09
5.45106e-09
8.8509e-09
1.13488e-08
1.22306e-08
1.02527e-08
8.71387e-09
7.85628e-09
9.09038e-09
3.48533e-08
2.78808e-09
1.56441e-09
2.74262e-09
4.61865e-09
5.56283e-09
2.02244e-08
8.75771e-08
1.04976e-07
4.4485e-08
6.44101e-09
4.94014e-09
4.92847e-09
4.4426e-09
3.88745e-09
3.36116e-09
3.31133e-09
4.29808e-09
6.24327e-09
6.54504e-09
6.11599e-09
6.2546e-09
6.71541e-09
3.55281e-08
2.57082e-09
1.56174e-09
2.43652e-09
2.82169e-09
2.24271e-09
7.70442e-10
7.5927e-10
7.75531e-10
9.05524e-10
2.6696e-09
4.71025e-09
3.96433e-09
2.93033e-09
2.51464e-09
2.35353e-09
2.27264e-09
2.33221e-09
2.56621e-09
3.31065e-09
3.74938e-09
4.14127e-09
4.52494e-09
3.28777e-08
1.93248e-09
1.5151e-09
1.58151e-09
1.43983e-09
1.18564e-09
9.49453e-10
7.61795e-10
7.55349e-10
9.7658e-10
1.39916e-09
1.69272e-09
1.62977e-09
1.38451e-09
1.26273e-09
1.21253e-09
1.21513e-09
1.30875e-09
1.55849e-09
1.90573e-09
2.20996e-09
2.67611e-09
2.92246e-09
5.52673e-09
3.06798e-09
1.75119e-09
1.85354e-09
1.5547e-09
1.26479e-09
1.02927e-09
8.55677e-10
7.35464e-10
6.43317e-10
5.86053e-10
5.58775e-10
5.56411e-10
5.56118e-10
5.53995e-10
5.73489e-10
6.23219e-10
6.99573e-10
8.21843e-10
1.10074e-09
1.31343e-09
1.56734e-09
1.80396e-09
3.63009e-09
3.62897e-09
2.68556e-09
2.6891e-09
2.09574e-09
1.58916e-09
1.16747e-09
8.35568e-10
5.88057e-10
4.2205e-10
3.13511e-10
2.49416e-10
2.20436e-10
2.1436e-10
2.25244e-10
2.50846e-10
2.90128e-10
3.42932e-10
4.22636e-10
5.59244e-10
6.81522e-10
9.05332e-10
1.04313e-09
4.17613e-09
4.15251e-09
3.29971e-09
3.4456e-09
2.71754e-09
2.10077e-09
1.56472e-09
1.13181e-09
7.63997e-10
5.03755e-10
3.17783e-10
1.92232e-10
1.2229e-10
9.28274e-11
8.85227e-11
9.97911e-11
1.2015e-10
1.48423e-10
1.85957e-10
2.67145e-10
3.48678e-10
4.47536e-10
5.69951e-10
5.15484e-09
4.49011e-09
4.0266e-09
4.34707e-09
3.01646e-09
2.36506e-09
1.88146e-09
1.50009e-09
1.05572e-09
7.2764e-10
4.7577e-10
2.71719e-10
1.40306e-10
7.01003e-11
4.20736e-11
3.72029e-11
4.3152e-11
5.50122e-11
7.31449e-11
1.09584e-10
1.46804e-10
2.2061e-10
2.86978e-10
5.92958e-09
5.39638e-09
5.42339e-09
5.22634e-09
1.96689e-09
2.51777e-09
1.63496e-09
1.61573e-09
1.24078e-09
9.48451e-10
6.95544e-10
4.28802e-10
2.26873e-10
1.01278e-10
4.03641e-11
1.90458e-11
1.4962e-11
1.79842e-11
2.54764e-11
4.17343e-11
6.21082e-11
9.5638e-11
1.41597e-10
6.37854e-09
6.79226e-09
7.80393e-09
9.11729e-09
2.27863e-08
4.4751e-08
4.63579e-09
1.09636e-09
1.07614e-09
1.03166e-09
8.84119e-10
6.15492e-10
3.57876e-10
1.69924e-10
6.47978e-11
2.15188e-11
8.2341e-12
6.06363e-12
8.17917e-12
1.43642e-11
2.50142e-11
4.43855e-11
6.86066e-11
7.12815e-09
8.28556e-09
1.07932e-08
5.48365e-08
4.39547e-07
6.21149e-07
1.39984e-07
3.92153e-09
5.65264e-10
8.78806e-10
9.66407e-10
7.70036e-10
4.99914e-10
2.62856e-10
1.06892e-10
3.4704e-11
1.01504e-11
3.52808e-12
2.96253e-12
5.18956e-12
9.74636e-12
2.10591e-11
3.7516e-11
9.95058e-09
8.30268e-09
2.66103e-08
2.23841e-07
8.21426e-07
8.21425e-07
8.01181e-07
1.122e-07
5.59512e-10
6.03157e-10
9.46119e-10
8.5623e-10
6.10105e-10
3.53639e-10
1.55836e-10
5.53085e-11
1.62329e-11
4.23103e-12
1.66727e-12
2.19331e-12
4.77328e-12
1.07584e-11
2.10805e-11
1.6508e-08
1.50169e-08
4.11495e-08
3.60274e-07
8.21425e-07
8.21426e-07
8.21425e-07
4.57605e-07
5.58153e-10
5.67127e-10
9.03407e-10
8.80685e-10
6.61348e-10
4.10641e-10
2.02883e-10
7.68283e-11
2.38939e-11
6.14275e-12
1.56063e-12
1.02946e-12
1.95051e-12
5.8833e-12
1.23433e-11
3.00061e-08
1.02553e-08
3.6258e-08
2.38138e-07
8.21426e-07
8.21425e-07
8.0215e-07
1.02612e-07
5.91648e-10
6.34211e-10
9.59543e-10
8.85914e-10
6.49557e-10
4.27767e-10
2.25876e-10
9.34949e-11
3.17136e-11
8.26604e-12
1.96706e-12
6.88957e-13
1.10859e-12
2.90997e-12
7.1825e-12
3.00186e-08
1.02565e-08
1.58801e-08
5.06712e-08
3.11578e-07
8.08235e-07
2.31148e-07
1.01826e-09
1.52895e-09
6.53881e-10
1.03855e-09
9.01941e-10
6.22645e-10
3.9906e-10
2.17525e-10
9.61475e-11
3.51758e-11
1.02383e-11
2.38324e-12
5.68738e-13
4.0525e-13
1.41018e-12
3.61599e-12
2.99695e-08
1.02564e-08
1.02778e-08
1.40471e-08
5.09977e-08
1.27752e-07
5.1523e-08
2.23571e-09
8.27475e-10
6.16815e-10
1.05081e-09
8.98473e-10
5.71919e-10
3.46922e-10
1.83702e-10
8.39927e-11
3.27469e-11
1.03114e-11
2.55146e-12
5.54939e-13
2.55543e-13
5.31597e-13
1.72855e-12
3.40418e-08
2.07831e-08
1.61199e-08
2.43911e-08
6.22341e-08
5.72597e-08
5.73843e-08
1.03102e-08
1.38286e-09
4.93164e-10
9.46714e-10
8.30011e-10
5.00605e-10
2.78995e-10
1.38617e-10
6.18208e-11
2.48669e-11
8.43512e-12
2.30548e-12
5.02334e-13
1.3677e-13
2.00155e-13
6.22839e-13
3.72786e-08
5.62744e-08
1.10914e-07
1.90165e-07
2.27776e-07
1.8858e-07
7.22318e-08
1.18881e-08
2.21917e-09
4.03786e-10
7.37301e-10
6.73927e-10
4.00042e-10
2.0693e-10
9.21986e-11
3.81723e-11
1.51289e-11
5.32753e-12
1.61927e-12
3.83293e-13
8.55767e-14
5.0025e-14
2.29608e-13
3.65844e-08
8.36099e-08
2.27799e-07
2.32406e-07
2.30352e-07
1.87096e-07
5.00693e-08
1.14303e-08
2.2914e-09
3.25611e-10
4.76562e-10
4.58673e-10
2.77355e-10
1.35587e-10
5.38516e-11
1.96068e-11
7.01064e-12
2.49071e-12
8.02683e-13
2.21035e-13
4.78025e-14
2.00533e-14
5.66333e-14
2.00898e-07
1.85325e-07
1.561e-07
1.30447e-07
5.69258e-08
1.01486e-08
6.22281e-09
3.96722e-09
1.37381e-09
2.22285e-10
2.39133e-10
2.47864e-10
1.5807e-10
7.50584e-11
2.644e-11
8.03625e-12
2.43259e-12
7.598e-13
2.62058e-13
8.69039e-14
2.23977e-14
5.45305e-15
1.47969e-14
3.65227e-07
3.17803e-07
5.13627e-08
4.3531e-09
2.19786e-10
1.00213e-11
7.80927e-13
1.93256e-10
4.94489e-10
1.03603e-10
8.72359e-11
9.90847e-11
6.90201e-11
3.26879e-11
1.06832e-11
2.66059e-12
6.04089e-13
1.49364e-13
5.04227e-14
2.22455e-14
6.22907e-15
1.68355e-15
3.00863e-15
3.65452e-07
1.35865e-07
1.59161e-08
1.20586e-09
1.12747e-10
1.49169e-11
1.8177e-12
1.04752e-13
1.33579e-10
2.34053e-11
1.98507e-11
2.55508e-11
2.04265e-11
9.84571e-12
3.04224e-12
6.26502e-13
1.00532e-13
1.61658e-14
5.49431e-15
3.61642e-15
1.26531e-15
4.49918e-16
5.49211e-16
6.63036e-08
1.38756e-08
7.52339e-10
1.73598e-10
5.1297e-11
7.05959e-12
6.11753e-13
3.32014e-14
2.40113e-11
1.90518e-12
1.52947e-12
3.26378e-12
2.95885e-12
1.47216e-12
4.14084e-13
6.99625e-14
7.7251e-15
8.15406e-16
3.1488e-16
3.75386e-16
2.53732e-16
1.10642e-16
1.02233e-16
0.169823
0.202199
0.222633
0.223008
0.847363
0.482782
0.00631902
0.00648656
0.962495
0.958878
0.930697
0.912083
0.919863
0.92001
0.969425
0.988665
0.950347
0.95757
0.958505
0.977356
0.997795
0.997832
0.993632
0.994671
0.986945
0.996555
0.99823
0.998229
0.792757
0.8439
0.902523
0.962544
0.0969833
0.131769
0.199953
0.331077
1.27064e-19
1.42112e-20
-4.94258e-21
1.01542e-19
4.52424e-05
8.02718e-06
3.20402e-06
3.94377e-11
7.04057e-05
5.52484e-05
3.39074e-06
4.11593e-07
2.86129e-05
7.97258e-06
1.71283e-06
4.71717e-07
8.06905e-06
1.78241e-06
1.02281e-06
8.85623e-07
4.92583e-06
9.66804e-07
8.47486e-07
8.10025e-07
2.15997e-05
2.17154e-05
2.07264e-05
1.64048e-05
1.23811e-05
8.39542e-06
6.2113e-06
4.82791e-06
4.42691e-08
3.1002e-07
8.12637e-07
5.00861e-07
1.03863e-08
1.03957e-07
1.33177e-07
8.6688e-08
1.0237e-08
1.43276e-08
2.52761e-08
1.78937e-08
7.23912e-09
9.08798e-09
8.93603e-09
9.77505e-09
4.72789e-09
4.97991e-09
5.91632e-09
6.14056e-09
3.24965e-09
3.41411e-09
3.57312e-09
3.77072e-09
1.95992e-09
2.0775e-09
2.31836e-09
2.37173e-09
1.21807e-09
1.3539e-09
1.41848e-09
1.50251e-09
6.79128e-10
7.53105e-10
8.74144e-10
9.38817e-10
3.75413e-10
4.38987e-10
4.97484e-10
5.47562e-10
1.90045e-10
2.40373e-10
2.90042e-10
3.32804e-10
1.07154e-10
1.40178e-10
1.71668e-10
2.03458e-10
5.97071e-11
8.45988e-11
1.09961e-10
1.35182e-10
3.9189e-11
5.28171e-11
7.49066e-11
9.31864e-11
2.23858e-11
3.60323e-11
4.92745e-11
6.66013e-11
1.45051e-11
2.16694e-11
3.30627e-11
4.29131e-11
8.03354e-12
1.28239e-11
1.83487e-11
2.84127e-11
3.96855e-12
6.22182e-12
1.05473e-11
1.36844e-11
1.87517e-12
3.04099e-12
4.73169e-12
7.98352e-12
6.91541e-13
1.22882e-12
2.28328e-12
3.13277e-12
2.40045e-13
4.42418e-13
7.57923e-13
1.42133e-12
6.07863e-14
1.21989e-13
2.65585e-13
4.00172e-13
1.40222e-14
3.18517e-14
6.2014e-14
1.36188e-13
2.63009e-15
6.54273e-15
1.58459e-14
3.51809e-14
4.51444e-16
1.22254e-15
3.36384e-15
7.82585e-15
0.140441
7.41679e-05
0.000672146
0.00384223
0.117535
0.199566
0.0422627
0.0224228
0.0268634
0.147367
0.295317
0.286227
0.252349
0.230586
0.442619
0.439117
0.213477
0.167995
0.166122
0.00593629
7.47112e-05
0.00060398
0.00237622
0.0198586
0.112586
0.0821264
0.0156679
0.0427887
0.114436
0.1379
0.228335
0.441762
0.716283
0.817786
0.802828
0.518745
0.383866
0.377307
0.43944
0.0119545
1.66546e-05
1.62263e-05
0.0055854
0.0142336
0.0288931
0.0156973
0.124103
0.425735
0.492199
0.342612
0.357275
0.730405
0.818536
0.840966
0.842928
0.733051
0.619055
0.989842
0.882825
0.349918
0.0122458
0.00113884
0.00114374
0.00855696
0.29854
0.675468
0.826115
0.712611
0.406132
0.312927
0.312907
0.405227
0.708425
0.877356
0.879172
0.814016
0.998491
0.971399
0.939905
0.803022
0.512223
0.286755
0.345606
0.796969
0.939377
0.940986
0.966379
0.853784
0.45999
0.411388
0.580629
0.633152
0.844549
0.91261
0.86829
0.998492
0.99696
0.985714
0.978827
0.979762
0.948829
0.914903
0.96889
0.992681
0.992311
0.977804
0.920472
0.90125
0.925155
0.942877
0.988766
0.967088
0.983645
0.965749
0.996625
0.997536
0.998683
0.998686
0.998686
0.998688
0.996557
0.993764
0.995446
0.996536
0.997414
0.960914
0.949362
0.985581
0.988846
0.988806
0.986335
0.988295
0.98089
0.922353
0.919669
0.972234
0.996736
0.99837
0.998686
0.998688
0.998686
0.998688
0.998686
0.998688
0.998386
0.992903
0.988628
0.98881
0.98399
0.985376
0.988293
0.977794
0.274778
0.241894
0.301447
0.401794
0.505116
0.654497
0.792507
0.885772
0.957186
0.995614
0.996084
0.998269
0.998185
0.997386
0.988749
0.971893
0.973593
0.988239
0.97566
4.71497e-21
3.10142e-19
6.4272e-10
7.21335e-05
0.00339188
0.0188359
0.0689173
0.178941
0.306649
0.478195
0.640448
0.826515
0.93675
0.963122
0.781418
0.788772
0.984034
0.98822
0.980295
5.51662e-09
1.44343e-08
5.48847e-09
5.33829e-09
1.41461e-05
0.000103103
3.68362e-20
-1.03675e-19
-2.37399e-19
0.00237498
0.0875352
0.422764
0.528902
0.269394
0.127571
0.5478
0.917767
0.986142
0.98757
7.46459e-09
3.50541e-09
3.48992e-09
4.18582e-08
4.3428e-08
4.51586e-08
4.76073e-07
2.73697e-07
8.53443e-10
2.84755e-17
1.769e-17
0.00702612
0.00795197
6.75585e-11
7.68978e-11
0.0698295
0.22207
0.488319
0.658764
7.42058e-09
1.91465e-07
1.24386e-06
1.27842e-06
5.80079e-07
6.40759e-08
3.25518e-07
2.02404e-07
2.77105e-09
9.32836e-09
6.89156e-09
9.17314e-10
9.86869e-10
4.52335e-09
5.80731e-09
-2.38846e-11
-2.04405e-21
1.28527e-13
0.00963861
3.64757e-07
2.64068e-07
8.2939e-14
4.48162e-22
-1.46211e-24
1.03609e-19
2.82703e-09
9.35306e-09
5.24259e-10
1.52114e-08
1.43358e-08
3.57057e-09
3.60417e-08
1.23784e-08
2.45283e-08
5.25162e-08
3.97859e-08
1.49766e-09
5.406e-10
9.0206e-06
1.55648e-05
1.20537e-05
4.17065e-05
0.000125344
8.59254e-05
8.63507e-13
8.06712e-15
3.14119e-17
-4.14431e-10
-3.841e-11
-2.15376e-12
-2.02723e-16
-7.86278e-11
2.29299e-08
1.01632e-07
1.02006e-07
1.40354e-08
4.76697e-09
2.4777e-05
2.54322e-05
2.77423e-05
5.4931e-05
0.000212024
0.00026704
0.000239957
0.000179391
0.000137892
6.44526e-05
7.84939e-06
1.11988e-06
1.4379e-05
9.05777e-06
4.53765e-07
4.29894e-08
9.8476e-08
3.05539e-08
5.43115e-08
3.54903e-06
3.51942e-06
8.48424e-06
1.87875e-05
5.82509e-05
0.000186886
0.000300874
0.00031991
0.00031982
0.000319226
0.000316223
0.000218092
0.000173869
8.82308e-05
2.63173e-09
1.29404e-08
3.99048e-08
2.64078e-08
1.79381e-07
1.12904e-07
4.52615e-08
5.3064e-08
5.34679e-08
5.9286e-08
4.15477e-06
4.02434e-05
0.000154771
0.000222111
0.000292431
0.000318513
0.000263878
8.55766e-05
3.0344e-05
2.63048e-09
2.63048e-09
2.63048e-09
2.63052e-09
1.88266e-09
3.86254e-08
3.58981e-08
5.26761e-08
7.63271e-08
9.97856e-08
1.02527e-07
1.0819e-07
1.26865e-07
6.65998e-06
3.09757e-05
5.32344e-05
2.9791e-05
7.00166e-06
2.28695e-07
2.63048e-09
2.63048e-09
2.63048e-09
2.23377e-05
1.93519e-05
1.67762e-08
2.20548e-08
3.31006e-08
9.53174e-08
2.27563e-07
2.60907e-07
2.02084e-07
1.22305e-07
2.85816e-08
1.68729e-08
1.47625e-08
1.18763e-08
2.87047e-06
1.45544e-05
5.61776e-06
2.66606e-09
2.63048e-09
0.000191726
0.000104452
1.06462e-08
1.39274e-08
2.45413e-08
9.69896e-08
2.97045e-07
3.42325e-07
3.3639e-07
2.15215e-07
2.8169e-08
2.80465e-08
3.68149e-08
1.17909e-08
7.80597e-06
2.8366e-05
1.79306e-05
1.7301e-06
0.000145773
0.000240986
0.000116837
6.8113e-09
8.7444e-09
1.1203e-08
4.2378e-08
1.37214e-07
2.81649e-07
2.83694e-07
1.47054e-07
1.45164e-08
8.60314e-09
1.32581e-08
1.17035e-08
3.5784e-09
1.67715e-05
4.23941e-05
0.000198387
0.000240424
0.000241237
9.11868e-05
4.03621e-09
4.6213e-09
5.22944e-09
7.27914e-09
2.41643e-08
5.8135e-08
7.44486e-08
4.35562e-08
7.35898e-09
6.97567e-09
1.13168e-08
2.19722e-08
3.84731e-09
7.82359e-08
4.71146e-05
0.000110043
0.000122885
0.00023234
4.59855e-05
2.45881e-09
2.71866e-09
3.02495e-09
3.25233e-09
4.46449e-09
8.87054e-09
1.11575e-08
1.05902e-08
6.28555e-09
6.97593e-09
1.03051e-08
2.25111e-08
5.21951e-09
2.48209e-09
6.95347e-06
6.33125e-07
2.09886e-09
7.66998e-05
4.13864e-05
1.56442e-09
1.74687e-09
1.93603e-09
2.13004e-09
2.3811e-09
3.2128e-09
4.27272e-09
5.22138e-09
5.77427e-09
6.47615e-09
7.83457e-09
1.13542e-08
5.50149e-09
2.42317e-09
3.3126e-09
1.81632e-09
1.8136e-09
3.82462e-08
0.000112262
1.00381e-09
1.15339e-09
1.31781e-09
1.50628e-09
1.76472e-09
2.21616e-09
3.0651e-09
3.91133e-09
5.00017e-09
5.74846e-09
6.62227e-09
1.13592e-08
4.39694e-08
2.94845e-07
9.22369e-07
6.28391e-07
4.03298e-07
1.23876e-07
0.000192092
6.06158e-10
7.54879e-10
9.0896e-10
1.09588e-09
1.35127e-09
1.71741e-09
2.37861e-09
3.20881e-09
4.19825e-09
5.03917e-09
6.30979e-09
1.49639e-08
6.93011e-08
1.52067e-06
1.53528e-06
1.53394e-06
5.8537e-07
1.22621e-07
0.00019208
3.79188e-10
5.00395e-10
6.44798e-10
8.26123e-10
1.06334e-09
1.36754e-09
1.86384e-09
2.56722e-09
3.45079e-09
4.36417e-09
5.55994e-09
1.29864e-08
6.87832e-08
6.51333e-07
1.3669e-06
5.72518e-07
3.19852e-07
1.76745e-07
0.000132232
2.41764e-10
3.45549e-10
4.75667e-10
6.43878e-10
8.55286e-10
1.13727e-09
1.52474e-09
2.12615e-09
2.79898e-09
3.68253e-09
4.64513e-09
7.81771e-09
3.22849e-08
1.06681e-07
3.42454e-07
2.62709e-07
2.34231e-07
2.33299e-07
4.52498e-06
1.6593e-10
2.49333e-10
3.65206e-10
5.19693e-10
7.16669e-10
9.75103e-10
1.32097e-09
1.80529e-09
2.48401e-09
3.21528e-09
3.94594e-09
5.44322e-09
1.68066e-08
8.8279e-08
1.58542e-06
4.62362e-06
2.39344e-06
2.33773e-07
3.36978e-07
1.17576e-10
1.86589e-10
2.8851e-10
4.18969e-10
6.0345e-10
8.33133e-10
1.17621e-09
1.64577e-09
2.37698e-09
3.29082e-09
4.26244e-09
5.25887e-09
1.18806e-08
7.79289e-08
2.63029e-06
7.32461e-06
7.33367e-06
4.64978e-06
4.79659e-06
8.53124e-11
1.39386e-10
2.22952e-10
3.32304e-10
4.90757e-10
6.95485e-10
9.94331e-10
1.47627e-09
2.26626e-09
3.6597e-09
5.35005e-09
6.78963e-09
8.27511e-09
3.48837e-08
1.15053e-06
6.83729e-06
7.3336e-06
7.33367e-06
4.52916e-06
5.81215e-11
1.0011e-10
1.60559e-10
2.48426e-10
3.68887e-10
5.4512e-10
7.91869e-10
1.19008e-09
1.89714e-09
3.43915e-09
6.7589e-09
1.13722e-08
1.2964e-08
1.68091e-08
8.48873e-08
1.32879e-06
6.94239e-06
6.95564e-06
3.58966e-07
3.74936e-11
6.64719e-11
1.09765e-10
1.72191e-10
2.64831e-10
3.91746e-10
5.79531e-10
8.8335e-10
1.48398e-09
2.66759e-09
6.19082e-09
1.64208e-08
4.11819e-08
5.62784e-08
3.17038e-08
8.72374e-08
7.69812e-07
1.04145e-06
2.45533e-08
2.18966e-11
4.0244e-11
6.85236e-11
1.10919e-10
1.74041e-10
2.60432e-10
3.95684e-10
6.25121e-10
1.02954e-09
1.8658e-09
3.92643e-09
1.28507e-08
6.04889e-08
1.57811e-07
1.27561e-07
2.84241e-08
7.70398e-08
3.96842e-08
1.49171e-08
1.13702e-11
2.21138e-11
3.91745e-11
6.48194e-11
1.03016e-10
1.61212e-10
2.46776e-10
4.01217e-10
6.8167e-10
1.22667e-09
2.34507e-09
5.98301e-09
3.06658e-08
1.53375e-07
2.27966e-07
1.06392e-07
2.1441e-08
2.04995e-08
9.78511e-08
5.28464e-12
1.06638e-11
2.00078e-11
3.41321e-11
5.62879e-11
8.99934e-11
1.44022e-10
2.3616e-10
4.13041e-10
7.68045e-10
1.46125e-09
3.17706e-09
9.57157e-09
5.40423e-08
2.28126e-07
2.6116e-07
9.28393e-08
4.35952e-08
2.45149e-07
2.14718e-12
4.64898e-12
9.06528e-12
1.62758e-11
2.79253e-11
4.61378e-11
7.6125e-11
1.29405e-10
2.30248e-10
4.34524e-10
8.48809e-10
1.70752e-09
3.58208e-09
1.27807e-08
8.6606e-08
2.61165e-07
2.4629e-07
1.94829e-07
2.45733e-07
7.9172e-13
1.82866e-12
3.71664e-12
7.02328e-12
1.25383e-11
2.21794e-11
3.7997e-11
6.65187e-11
1.23461e-10
2.3769e-10
5.00143e-10
1.04162e-09
2.14135e-09
4.86167e-09
2.32766e-08
1.5352e-07
2.60156e-07
2.59442e-07
1.51338e-07
2.39037e-13
5.88545e-13
1.27739e-12
2.56868e-12
4.9766e-12
9.15372e-12
1.68891e-11
3.06584e-11
5.84116e-11
1.16869e-10
2.52336e-10
5.49692e-10
1.17147e-09
2.35781e-09
6.4111e-09
3.53451e-08
2.14934e-07
2.53746e-07
2.86899e-08
6.40008e-14
1.67322e-13
3.8257e-13
8.20643e-13
1.71826e-12
3.49938e-12
6.85691e-12
1.32596e-11
2.59715e-11
5.34374e-11
1.18101e-10
2.71808e-10
6.03017e-10
1.21699e-09
2.27127e-09
7.21838e-09
4.79838e-08
8.83147e-08
9.75521e-09
1.51872e-14
4.3165e-14
1.07263e-13
2.48232e-13
5.60447e-13
1.23315e-12
2.59658e-12
5.36671e-12
1.09901e-11
2.29648e-11
5.16414e-11
1.22752e-10
2.9314e-10
6.43861e-10
1.22967e-09
2.17222e-09
5.44729e-09
7.97572e-09
4.12119e-09
)
;

boundaryField
{
    leftWall
    {
        type            zeroGradient;
    }
    rightWall
    {
        type            zeroGradient;
    }
    lowerWall
    {
        type            zeroGradient;
    }
    atmosphere
    {
        type            inletOutlet;
        inletValue      uniform 0;
        value           nonuniform List<scalar> 
46
(
6.63036e-08
1.38756e-08
7.52339e-10
0
0
0
0
0
0
0
0
0
0
0
0
0
0
0
0
0
2.53732e-16
1.10642e-16
1.02233e-16
4.51444e-16
1.22254e-15
3.36384e-15
7.82585e-15
1.51872e-14
4.3165e-14
1.07263e-13
2.48232e-13
5.60447e-13
1.23315e-12
2.59658e-12
5.36672e-12
1.09901e-11
2.29648e-11
5.16414e-11
1.22752e-10
2.9314e-10
6.43861e-10
1.22967e-09
2.17222e-09
5.44729e-09
7.97572e-09
4.12119e-09
)
;
    }
    defaultFaces
    {
        type            empty;
    }
}


// ************************************************************************* //
