/*--------------------------------*- C++ -*----------------------------------*\
| =========                 |                                                 |
| \\      /  F ield         | OpenFOAM: The Open Source CFD Toolbox           |
|  \\    /   O peration     | Version:  2312                                  |
|   \\  /    A nd           | Website:  www.openfoam.com                      |
|    \\/     M anipulation  |                                                 |
\*---------------------------------------------------------------------------*/
FoamFile
{
    version     2.0;
    format      ascii;
    arch        "LSB;label=32;scalar=64";
    class       volScalarField;
    location    "3";
    object      alpha.water_0;
}
// * * * * * * * * * * * * * * * * * * * * * * * * * * * * * * * * * * * * * //

dimensions      [0 0 0 0 0 0 0];

internalField   nonuniform List<scalar> 
2268
(
2.1403e-07
3.47378e-08
1.89235e-09
3.67374e-10
2.42432e-10
1.33195e-10
5.93493e-11
4.66979e-11
3.70025e-11
3.49174e-11
3.57302e-11
3.9311e-11
4.61046e-11
5.71935e-11
7.35334e-11
9.51911e-11
1.42953e-10
2.18553e-10
3.27292e-10
5.49704e-10
9.10584e-10
1.218e-09
1.37779e-09
5.05059e-07
1.61206e-07
2.13607e-10
2.82586e-10
2.34994e-10
1.48334e-10
1.12903e-10
9.15846e-11
6.7021e-11
5.22082e-11
5.04609e-11
5.68897e-11
7.10815e-11
9.49029e-11
1.20855e-10
1.53776e-10
2.39913e-10
4.07621e-10
6.45593e-10
1.0151e-09
1.78224e-09
2.28124e-09
1.68661e-09
4.22361e-07
1.05858e-07
-1.44965e-14
3.77492e-10
2.40302e-10
2.91733e-10
3.01504e-10
2.48057e-10
1.23284e-10
6.72765e-11
5.76075e-11
5.98284e-11
7.82918e-11
1.2304e-10
1.64445e-10
1.86225e-10
2.42877e-10
3.29963e-10
4.91087e-10
9.53761e-10
2.06167e-09
3.35876e-09
1.54062e-09
1.00978e-07
4.95952e-08
1.36062e-12
1.86795e-10
1.338e-10
1.62979e-10
1.78889e-10
1.1846e-10
4.97941e-11
3.16354e-11
3.11721e-11
3.38781e-11
5.299e-10
6.62958e-11
4.96065e-10
8.62648e-11
8.62437e-11
8.62641e-11
8.62208e-11
8.62414e-11
1.0179e-10
1.01501e-10
1.01675e-10
5.55897e-09
2.36346e-10
1.30402e-12
2.31765e-11
1.27794e-11
2.84352e-11
2.56922e-11
3.86321e-11
7.42524e-10
3.10596e-10
2.18001e-18
-2.07231e-16
1.66502e-07
-2.72888e-14
-1.09799e-13
1.55223e-07
8.62641e-11
0.00135455
0.00718216
0.0167804
0.0306744
0.05214
0.0655754
5.57334e-27
5.34731e-30
-7.173e-17
6.88927e-24
6.3405e-24
1.46519e-23
3.24148e-19
4.88515e-07
0.000642945
0.0094568
0.0282791
0.0590064
0.0988627
0.149251
0.216034
0.289531
0.367809
0.462479
0.545633
0.610681
0.667415
0.731716
0.760801
0.46839
0.449433
0.405372
0.345232
0.281779
0.25159
0.267756
0.336601
0.450622
0.576901
0.674245
0.760317
0.827739
0.87021
0.896134
0.927241
0.966249
0.968927
0.966341
0.970584
0.980364
0.978365
0.978144
0.987017
0.985571
0.982523
0.972317
0.953595
0.939906
0.946463
0.971085
0.999508
0.999508
0.999508
0.999357
0.998695
0.978726
0.939407
0.929944
0.973999
0.980341
0.980357
0.980364
0.980377
0.979887
0.975083
0.0245581
0.024772
0.0228689
0.0154533
0.00878575
0.0108844
0.0182092
0.0196539
0.0196535
0.0183759
0.0171045
0.016108
0.0159867
0.0141324
0.0078448
0.00622696
0.00723438
0.00807012
0.00812113
0.0966889
0.0266181
0.00936042
0.00936032
0.00876571
0.00823955
0.0101621
0.0132498
0.0160604
0.0158009
0.00656509
0.00536495
0.00535282
0.0046627
0.0046766
0.00466809
0.0046857
0.00584467
0.00774885
0.600707
0.37965
0.15336
0.0757691
0.0193402
0.00448596
0.00449363
0.00448641
0.00448588
0.00447272
0.00609005
0.0132278
0.0240669
0.0455984
0.115938
0.144349
0.0680066
0.036318
0.023495
0.632929
0.721018
0.504655
0.197031
0.0918199
0.0700611
0.167499
0.282199
0.309818
0.257143
0.2748
0.271309
0.295861
0.433165
0.564582
0.635534
0.617458
0.515925
0.389524
0.641068
0.864411
0.770236
0.449509
0.435455
0.677842
0.944031
0.943806
0.906744
0.596276
0.426128
0.413167
0.750005
0.877232
0.878365
0.879348
0.879407
0.879298
0.70602
0.663249
0.819756
0.93743
0.59701
0.468567
0.921814
0.961655
0.938764
0.801055
0.522776
0.426661
0.557848
0.875661
0.878152
0.878497
0.875547
0.872871
0.871118
0.875327
0.864602
0.873828
0.94173
0.873425
0.530275
0.854808
0.958957
0.617022
0.439414
0.438493
0.439591
0.552726
0.877362
0.877243
0.878954
0.877662
0.871003
0.875337
0.875339
0.784752
0.905673
0.956404
0.970678
0.733222
0.769228
0.949618
0.838977
0.582203
0.524886
0.525791
0.628134
0.768006
0.879473
0.87906
0.866228
0.83414
0.843418
0.875336
0.998376
0.999014
0.99949
0.999505
0.999506
0.999506
0.999507
0.999507
0.999507
0.999507
0.999508
0.999507
0.999503
0.997191
0.892714
0.759625
0.900001
0.975767
0.973049
0.975969
0.980152
0.973041
0.849664
0.999126
0.999126
0.998064
0.996825
0.996611
0.997027
0.995719
0.993027
0.994955
0.998111
0.999244
0.99356
0.9789
0.979109
0.877242
0.716529
0.794734
0.76482
0.750743
0.720487
0.661692
0.603665
0.38357
0.999126
0.999112
0.999112
0.998081
0.983946
0.92794
0.902085
0.847693
0.852533
0.897772
0.927878
0.917898
0.867671
0.751867
0.583457
0.477741
0.301138
0.142944
0.0941417
0.0631844
0.0296968
0.0194117
0.0165973
0.927429
0.8967
0.823872
0.690257
0.462058
0.218423
0.248427
0.389437
0.394905
0.373913
0.343008
0.301874
0.206365
0.102734
0.0550988
0.0174291
3.18747e-20
-1.89499e-07
-3.06998e-19
-2.56505e-07
-1.85651e-07
6.50206e-21
1.32085e-05
0.0742334
0.0339851
0.000277692
0.000114396
0.000114587
0.00011441
0.000114597
0.123277
0.0972708
0.00360768
0.00130721
2.9275e-06
7.00102e-07
6.2723e-07
6.54976e-07
4.82273e-06
5.69749e-20
0.000189372
0.000344776
0.000339333
0.000300074
1.64095e-24
1.34278e-06
0.00280675
0.0016
0.00109953
0.00147708
0.00025218
0.00182143
0.0543127
0.0932673
0.0684523
0.0123379
0.000370902
0.000374062
0.000197174
7.35288e-06
0.000103466
0.000260866
0.000235513
0.000241781
0.000275905
0.00138069
0.00453595
0.00158842
2.94642e-07
0.00490416
0.00490304
0.00385777
0.00361378
0.00295454
0.00651766
0.00662274
0.000463681
0.000463532
0.0032444
0.00555979
0.00558696
0.00458631
0.000414411
4.33404e-07
5.2149e-07
0.00187263
0.00703147
0.00394157
0.000931849
0.000111544
0.00968202
0.0153792
0.00238306
0.0019495
0.000674213
0.000394617
0.00119554
0.00454577
0.00633741
0.00364239
0.000468161
6.55168e-05
4.56812e-07
1.30285e-07
1.09207e-07
7.18478e-05
3.43948e-07
0.00210239
0.00886782
0.0091159
0.00911668
0.00451749
0.000108661
0.0040198
0.020352
4.15262e-09
4.15258e-09
4.8483e-05
6.98243e-05
6.20521e-05
3.62393e-06
3.70446e-06
6.0224e-05
0.000143747
2.44382e-05
3.97271e-07
1.82042e-07
1.59575e-07
1.73485e-07
2.56973e-07
0.000281715
0.000731469
0.000839853
0.000902322
0.000849573
0.000124598
0.00384382
0.0203504
7.19639e-09
4.1528e-09
4.55828e-05
0.000112511
0.000113458
6.84741e-05
7.54299e-06
1.05594e-07
1.05813e-07
1.12199e-07
8.73679e-08
7.3339e-08
7.40218e-08
1.52118e-05
3.83245e-05
1.32998e-05
1.3679e-06
3.56631e-07
3.07896e-07
3.32669e-07
3.11038e-07
0.000409799
0.00334305
3.02199e-08
3.00789e-08
3.01593e-08
2.48974e-05
8.91624e-05
6.13832e-05
1.87215e-05
6.67447e-07
8.46301e-07
1.06011e-06
1.0833e-06
6.97888e-08
3.57798e-05
6.13543e-05
6.1213e-05
6.12603e-05
3.76311e-05
1.22829e-06
5.82999e-07
3.22114e-07
2.01358e-05
2.4818e-05
2.57058e-05
2.67378e-08
3.97134e-08
8.11046e-08
4.11993e-08
4.24511e-08
4.11995e-08
1.29369e-06
1.75598e-06
2.94003e-06
3.20058e-06
4.67732e-05
6.10836e-05
6.04683e-05
6.13729e-05
3.74267e-05
5.52144e-06
1.51923e-06
3.97032e-07
3.97244e-07
4.40902e-07
2.80091e-05
2.90939e-05
2.50975e-05
1.45202e-08
4.59552e-08
1.70476e-07
3.71024e-07
3.48278e-07
1.55204e-07
1.01939e-07
1.03085e-07
2.06289e-05
3.09632e-05
2.98969e-05
1.29904e-05
5.23406e-06
5.27791e-06
7.42838e-06
1.08181e-05
1.06818e-05
7.54365e-06
4.58823e-07
5.64482e-07
7.27946e-06
7.00514e-06
1.31552e-06
1.45429e-08
2.34678e-08
9.75859e-08
9.35363e-07
1.99973e-06
1.64791e-06
9.16521e-07
5.54547e-07
4.01535e-07
4.37106e-07
4.34113e-07
8.22491e-06
2.68362e-05
5.51235e-05
5.56134e-05
5.56124e-05
3.48809e-05
2.25586e-06
6.53662e-07
6.84432e-07
1.19946e-05
3.9605e-05
3.85256e-05
1.27768e-08
1.06772e-08
2.55834e-09
4.54528e-07
2.00073e-06
1.98929e-06
1.6762e-06
2.30736e-07
1.22654e-07
1.62838e-06
3.36145e-05
5.67273e-05
5.79553e-05
5.79213e-05
5.25509e-05
1.5366e-05
2.95851e-06
2.19291e-06
2.55466e-05
3.79661e-05
3.91003e-05
3.99528e-05
3.52672e-05
1.20442e-08
9.21998e-09
2.5922e-09
9.12802e-08
1.19011e-06
1.3793e-06
7.67548e-07
8.60153e-08
8.50271e-08
2.26122e-05
4.46232e-05
3.96061e-05
8.14119e-07
3.56016e-25
-1.08106e-26
9.6139e-09
2.48507e-06
2.84945e-06
2.10508e-06
3.34961e-06
7.09361e-06
7.41635e-06
4.98533e-06
1.20247e-08
9.10626e-09
2.87203e-09
7.04053e-10
7.21612e-10
4.02823e-07
7.76562e-09
3.50209e-07
1.14962e-06
7.37175e-07
1.24005e-09
1.21017e-09
1.2116e-09
3.37199e-08
2.5168e-07
2.49865e-07
6.77168e-08
6.25731e-08
1.36278e-09
4.62688e-09
5.57902e-09
3.623e-09
2.61153e-07
1.25055e-08
8.75809e-09
4.90462e-09
2.18831e-09
8.00466e-10
7.79413e-10
8.01823e-09
2.28708e-08
2.75162e-09
1.124e-09
1.12641e-09
2.82331e-09
1.18678e-08
2.10795e-08
1.47034e-08
6.04061e-09
1.25364e-09
1.25701e-09
1.25593e-09
1.84074e-09
2.92392e-09
3.57085e-09
8.41659e-10
1.31674e-08
8.00701e-09
7.16896e-09
5.35522e-09
3.25642e-09
3.83199e-09
1.68978e-08
2.24169e-08
1.57337e-08
1.79932e-09
1.17636e-09
1.51834e-09
2.39433e-09
4.57483e-09
5.66522e-09
7.53988e-09
7.86344e-09
4.94745e-09
1.73019e-09
1.02838e-09
1.04141e-09
1.14661e-09
8.64771e-10
1.40449e-08
7.30831e-09
6.27887e-09
5.74295e-09
3.39457e-09
1.95782e-09
1.56126e-09
2.19272e-09
3.40008e-09
2.31495e-09
1.73099e-09
9.80216e-10
9.72514e-10
6.4103e-10
6.6356e-10
1.35645e-09
2.45307e-09
2.84444e-09
2.55492e-09
1.88759e-09
1.19849e-09
7.01498e-10
7.01554e-10
1.51551e-08
6.18504e-09
4.19675e-09
3.21926e-09
1.18343e-09
1.6382e-10
1.35791e-10
1.60062e-10
2.26389e-10
4.0401e-10
5.09283e-10
5.94121e-10
5.50934e-10
5.51948e-10
6.3649e-10
8.82912e-10
1.08277e-09
1.26501e-09
1.42787e-09
1.13128e-09
7.26007e-10
5.36484e-10
4.2312e-10
1.84044e-08
5.01934e-09
2.47433e-09
1.26093e-09
3.96985e-10
1.70345e-10
1.33357e-10
1.2786e-10
1.4013e-10
1.63605e-10
1.9396e-10
2.35257e-10
2.58397e-10
2.82791e-10
3.40643e-10
4.45112e-10
5.41499e-10
5.80942e-10
5.85371e-10
5.69477e-10
3.57494e-10
2.49069e-10
2.27266e-10
3.49499e-08
3.54102e-09
1.78966e-09
1.08994e-09
3.96471e-10
1.49318e-10
1.03998e-10
9.59643e-11
9.19878e-11
9.32834e-11
1.01916e-10
1.11519e-10
1.21393e-10
1.3206e-10
1.53829e-10
1.88174e-10
2.20717e-10
2.40387e-10
2.57647e-10
2.39314e-10
1.5852e-10
1.2155e-10
1.20511e-10
7.39197e-08
2.36952e-09
1.43219e-09
9.09273e-10
4.13802e-10
1.68886e-10
9.64835e-11
7.22727e-11
5.80978e-11
4.96914e-11
4.6173e-11
4.69231e-11
5.06949e-11
5.5833e-11
6.35064e-11
7.30994e-11
8.08326e-11
8.62614e-11
8.85467e-11
8.57026e-11
6.49124e-11
5.82736e-11
6.06015e-11
1.14887e-07
1.60839e-09
3.52296e-10
3.67339e-10
2.76767e-10
1.88193e-10
1.35506e-10
1.0171e-10
6.85055e-11
4.3924e-11
3.04466e-11
2.43919e-11
2.14286e-11
2.11675e-11
2.26271e-11
2.43038e-11
2.6051e-11
2.75048e-11
2.84714e-11
2.71055e-11
2.51399e-11
2.58352e-11
2.85126e-11
1.25291e-07
8.3442e-09
2.16442e-10
2.55603e-10
2.75291e-10
2.42184e-10
2.0193e-10
1.55418e-10
1.05549e-10
6.39289e-11
3.9514e-11
2.27989e-11
1.36801e-11
9.34859e-12
7.73503e-12
7.38036e-12
7.45617e-12
7.68966e-12
7.85784e-12
8.20159e-12
8.80921e-12
9.95946e-12
1.23559e-11
1.80934e-07
4.17325e-08
2.15689e-10
2.65604e-10
3.50857e-10
3.38711e-10
2.97577e-10
2.42207e-10
1.67031e-10
1.01075e-10
6.29114e-11
3.61242e-11
1.85195e-11
8.7269e-12
4.26228e-12
2.60756e-12
1.94846e-12
1.8948e-12
1.99842e-12
2.31798e-12
2.70038e-12
3.74563e-12
4.85471e-12
1.81222e-07
9.73999e-08
2.27824e-10
2.75287e-10
4.51281e-10
4.53612e-10
4.27197e-10
3.59064e-10
2.38537e-10
1.50031e-10
1.00876e-10
6.13372e-11
3.22428e-11
1.46203e-11
5.77309e-12
2.17261e-12
9.12615e-13
5.0491e-13
4.83979e-13
6.01548e-13
8.01943e-13
1.18767e-12
1.78124e-12
1.83801e-07
1.19681e-07
2.27572e-10
2.43268e-10
4.79387e-10
4.98957e-10
5.40966e-10
6.23963e-10
3.08457e-10
1.97714e-10
1.47259e-10
9.63945e-11
5.40882e-11
2.58361e-11
1.03745e-11
3.6156e-12
1.12656e-12
3.5486e-13
1.449e-13
1.43516e-13
2.17964e-13
3.80656e-13
5.87921e-13
1.78788e-07
1.36546e-07
4.36768e-09
2.14599e-10
4.36039e-10
4.12854e-10
4.12905e-10
1.10648e-09
3.23698e-10
2.54161e-10
1.97357e-10
1.36416e-10
8.18999e-11
4.18688e-11
1.77381e-11
6.37742e-12
2.01235e-12
5.45944e-13
1.35709e-13
4.69949e-14
5.30829e-14
1.04281e-13
1.89946e-13
1.42109e-07
2.11118e-07
4.83315e-08
2.14604e-10
9.87392e-10
7.30535e-10
6.63531e-09
1.04243e-09
3.14536e-10
2.94593e-10
2.47246e-10
1.7688e-10
1.1144e-10
6.00659e-11
2.68152e-11
1.04739e-11
3.49967e-12
9.69699e-13
2.29923e-13
4.35245e-14
1.73907e-14
2.65848e-14
5.18393e-14
9.9821e-08
2.15675e-07
1.19368e-07
2.14599e-10
1.26069e-08
9.84761e-08
1.13928e-07
3.15107e-10
3.14596e-10
3.19218e-10
2.94675e-10
2.12387e-10
1.38135e-10
7.59404e-11
3.66617e-11
1.49856e-11
5.33729e-12
1.57734e-12
3.75648e-13
7.70587e-14
1.00472e-14
6.41235e-15
1.28563e-14
5.88817e-08
1.83431e-07
9.52057e-08
2.14604e-10
2.54873e-08
2.15991e-07
1.58656e-07
5.29079e-08
3.14579e-10
3.31676e-10
3.21727e-10
2.41258e-10
1.61245e-10
8.78523e-11
4.38995e-11
1.94465e-11
7.46779e-12
2.2654e-12
5.96971e-13
1.22851e-13
1.73123e-14
2.3552e-15
2.95145e-15
1.29892e-08
5.47342e-08
2.96294e-08
2.60732e-09
4.69993e-09
2.322e-07
8.0289e-07
1.48609e-07
6.42562e-10
3.46164e-10
3.22914e-10
2.47593e-10
1.64571e-10
9.08813e-11
4.59708e-11
2.11623e-11
8.69495e-12
2.99513e-12
8.14832e-13
1.79095e-13
3.48785e-14
2.10383e-15
6.43673e-16
5.18423e-09
1.45924e-08
6.73601e-09
6.36692e-10
4.27281e-09
4.62731e-07
1.45004e-06
8.04592e-07
2.76823e-09
3.73626e-10
3.02839e-10
2.38086e-10
1.57739e-10
8.59786e-11
4.25307e-11
1.99735e-11
8.64266e-12
3.19641e-12
9.45933e-13
2.21175e-13
4.40589e-14
3.00396e-15
2.17182e-16
1.15407e-09
2.54611e-09
1.01734e-09
1.34708e-09
4.72878e-10
7.06758e-07
1.44942e-06
9.88221e-07
1.42357e-08
4.10477e-10
2.56764e-10
2.09208e-10
1.38573e-10
7.31203e-11
3.497e-11
1.60087e-11
7.08973e-12
2.80732e-12
9.1695e-13
2.32274e-13
4.59732e-14
5.32891e-15
1.7302e-16
7.61203e-10
7.73074e-10
8.14762e-10
1.93382e-09
3.72216e-10
7.87489e-07
1.45004e-06
2.59209e-07
1.94758e-08
5.69107e-10
1.92762e-10
1.63379e-10
1.0813e-10
5.55278e-11
2.48931e-11
1.07541e-11
4.69395e-12
1.91832e-12
6.87084e-13
1.89647e-13
4.06764e-14
4.83637e-15
2.34656e-16
7.72937e-09
1.09804e-08
1.73372e-09
2.2546e-09
3.68121e-10
7.7217e-08
4.85144e-07
8.04617e-08
5.98897e-09
3.718e-10
1.26195e-10
1.09798e-10
7.25868e-11
3.64259e-11
1.517e-11
5.93957e-12
2.37451e-12
9.74854e-13
3.64113e-13
1.14207e-13
2.58082e-14
4.01134e-15
2.56408e-16
4.73725e-07
9.36683e-08
3.97482e-09
2.32996e-09
3.82561e-09
6.48655e-10
7.42115e-11
4.31619e-10
5.48716e-10
1.73591e-10
6.78724e-11
6.08446e-11
4.03999e-11
1.99905e-11
7.59685e-12
2.56701e-12
8.89433e-13
3.24057e-13
1.27645e-13
4.65472e-14
1.27889e-14
1.75638e-15
2.04244e-16
5.05597e-07
2.69874e-07
3.19173e-08
6.05386e-09
6.14488e-09
1.79233e-09
2.4364e-10
2.41596e-11
2.6354e-10
8.16755e-11
2.84856e-11
2.61673e-11
1.76736e-11
8.66856e-12
3.08616e-12
8.74681e-13
2.34519e-13
6.91235e-14
2.61002e-14
1.22408e-14
3.62288e-15
7.25858e-16
1.29159e-16
4.75121e-07
1.52725e-07
1.89379e-08
2.83327e-09
3.2193e-09
1.07518e-09
1.73849e-10
2.34236e-11
6.12478e-11
1.57987e-11
8.26094e-12
7.60716e-12
5.44651e-12
2.65763e-12
8.88492e-13
2.0888e-13
4.01693e-14
7.85301e-15
2.96118e-15
2.0169e-15
7.28894e-16
2.35436e-16
6.19004e-17
4.79941e-08
1.62923e-08
9.65695e-10
1.2738e-10
1.8842e-11
2.46229e-12
2.92391e-13
5.00385e-12
6.45625e-13
1.99124e-13
1.09182e-12
1.16223e-12
8.77078e-13
4.31068e-13
1.31292e-13
2.57711e-14
3.47992e-15
4.35397e-16
1.71619e-16
2.10007e-16
1.45564e-16
6.11584e-17
2.38381e-17
0.758253
0.723862
0.703184
0.717195
0.158587
0.373666
0.928926
0.989631
0.0262373
0.027555
0.0535886
0.0551009
0.00579391
0.00835351
0.00383153
9.40603e-05
0.000336892
0.000140707
0.000172379
1.32571e-09
2.81585e-08
2.52745e-08
4.61648e-14
3.77356e-13
0.0133701
0.00340365
0.00145293
0.000684095
0.0203502
0.0203522
0.0203025
0.0134407
0.0203526
0.0203511
0.0200528
0.0175861
0.0174927
0.020353
0.0108492
0.00318378
0.000219788
0.000499053
0.000343716
5.48225e-07
4.03418e-06
1.62655e-07
1.62532e-07
2.60991e-07
1.62673e-07
1.62664e-07
1.62998e-07
3.44473e-07
2.12211e-05
1.39371e-06
6.47355e-07
4.66263e-07
1.24296e-05
1.27389e-06
7.72733e-07
5.95991e-07
2.78021e-06
2.34013e-06
2.06773e-06
1.82175e-06
1.0971e-06
6.30654e-07
4.33791e-07
3.95863e-07
8.39229e-10
7.57431e-09
4.31575e-08
6.44944e-08
1.20001e-09
3.60473e-09
7.67353e-09
1.12474e-08
8.62528e-10
1.11089e-09
1.53841e-09
1.84529e-09
4.78134e-10
5.83898e-10
6.33434e-10
7.11215e-10
2.47718e-10
2.77251e-10
3.42983e-10
3.73874e-10
1.3801e-10
1.57831e-10
1.7908e-10
2.05034e-10
6.8489e-11
7.78575e-11
9.89182e-11
1.10887e-10
3.45125e-11
4.27079e-11
4.94865e-11
5.88492e-11
1.56806e-11
1.86951e-11
2.46947e-11
2.9499e-11
6.78698e-12
8.57036e-12
1.06891e-11
1.27969e-11
2.54178e-12
3.36315e-12
4.3838e-12
5.47079e-12
9.53028e-13
1.28608e-12
1.65971e-12
2.05902e-12
3.09429e-13
4.39761e-13
5.8805e-13
7.5517e-13
9.94516e-14
1.34504e-13
1.99543e-13
2.52201e-13
2.49673e-14
4.21038e-14
5.80793e-14
8.25862e-14
6.62404e-15
1.03859e-14
1.70566e-14
2.24878e-14
1.48458e-15
2.60345e-15
3.85963e-15
6.49504e-15
2.77561e-16
4.8583e-16
9.51169e-16
1.2598e-15
5.43206e-17
1.03622e-16
1.72972e-16
3.42887e-16
1.06282e-17
1.65737e-17
3.99911e-17
5.82462e-17
3.12889e-18
3.17211e-18
5.53176e-18
1.3315e-17
2.20913e-18
5.84834e-19
9.94499e-19
1.57861e-18
2.56759e-18
2.32006e-19
1.11697e-19
2.9396e-19
2.54012e-18
1.88944e-19
2.62463e-20
3.92246e-20
2.10412e-18
1.53408e-19
1.08229e-20
4.82927e-21
0.803734
0.983076
0.992997
0.996523
0.87928
0.767121
0.939907
0.965688
0.956775
0.82624
0.61887
0.606614
0.645715
0.757951
0.569573
0.521833
0.682603
0.727834
0.768484
0.989744
0.993516
0.997166
0.997128
0.980732
0.881079
0.899473
0.965575
0.936908
0.869388
0.771289
0.655198
0.493624
0.2959
0.163449
0.176827
0.418752
0.52344
0.515646
0.460516
0.91644
0.944059
0.974788
0.987269
0.978136
0.962763
0.938455
0.795348
0.522986
0.462466
0.588168
0.509921
0.224983
0.149144
0.141472
0.13902
0.20707
0.288658
0.00017108
0.0478389
0.530389
0.904316
0.938918
0.970717
0.957943
0.64366
0.235853
0.0838411
0.218412
0.494138
0.524332
0.491651
0.40359
0.236673
0.109614
0.081319
0.0801242
5.8822e-08
8.18227e-11
0.00489134
0.114057
0.391256
0.633432
0.592827
0.162936
2.24677e-19
5.7027e-20
6.55691e-20
0.0388436
0.333736
0.397699
0.238382
0.239755
0.1432
0.0820111
0.0786323
1.46276e-05
-1.31415e-23
-1.52339e-07
-5.1672e-08
0.000117484
0.0188343
0.0268816
8.31333e-21
1.89751e-06
5.29896e-16
0.000519118
0.00175245
0.00865562
0.00997875
0.000929945
0.000953586
0.000941669
0.0139574
0.034286
4.3234e-05
5.8885e-05
6.41794e-05
6.99983e-05
2.95256e-06
7.06814e-06
-1.90267e-07
-4.92108e-08
2.43842e-07
2.70642e-08
2.89385e-05
8.35932e-05
4.40496e-05
0.000639177
0.00135715
0.00181533
0.000961668
0.00386386
0.000408499
0.00127446
6.03814e-05
0.00038971
0.000752932
0.000567929
0.000266164
0.00016705
5.00553e-05
6.50135e-07
2.4617e-08
6.67902e-05
5.04369e-05
1.91621e-05
0.000823798
0.00276899
0.00341402
0.00139607
0.00365496
0.000418105
0.0169551
0.0126726
0.00217495
0.00048303
0.000466459
0.000445499
0.00178616
0.00331339
0.00334499
0.00312776
0.0016956
3.11456e-05
8.13807e-06
1.19427e-05
0.00463855
0.00802536
0.00300768
0.00297615
0.000417319
0.00742849
0.0122071
0.0126104
0.0126138
0.00817179
0.00106716
0.000939918
0.0032608
0.00396161
0.00396477
0.00168999
7.55317e-07
7.31684e-07
0.000241643
0.00650946
0.00796857
0.00132657
0.002922
0.000347878
7.96751e-05
0.00100321
0.000962561
0.00364758
0.00990644
0.00993184
0.00766784
0.00104472
0.0024075
0.00233811
0.000154008
1.33686e-06
0.00243236
0.00640244
0.00563244
0.000637
1.68915e-06
0.000600871
9.76502e-05
2.74373e-07
1.05402e-06
1.02448e-06
6.18327e-07
1.35281e-05
0.00269067
0.00423282
0.000811081
1.93132e-05
2.9337e-06
0.0018522
0.00535346
0.00535242
0.0023771
9.61102e-07
9.57297e-07
1.46138e-06
1.44042e-06
3.324e-07
6.25105e-07
7.06043e-07
3.91876e-07
8.28954e-07
2.87874e-06
3.19493e-05
0.000398614
0.000242617
3.09873e-06
3.17463e-06
0.00181163
0.00535496
0.00281626
9.57572e-07
1.01022e-06
2.12767e-06
2.14292e-06
1.46173e-06
5.01675e-08
6.72175e-07
4.15386e-07
3.88874e-07
2.886e-06
2.11301e-05
2.54268e-05
2.17991e-05
1.96867e-05
3.21681e-06
1.40315e-06
0.000350812
0.00252017
0.00234924
9.90823e-07
1.09031e-06
1.85976e-06
1.53042e-06
7.90092e-07
5.07336e-08
6.1705e-07
5.62305e-07
9.41049e-06
3.02595e-05
3.0367e-05
3.04703e-05
2.73718e-05
8.87424e-06
3.19834e-06
5.7642e-07
4.78815e-07
7.04902e-06
2.58977e-05
5.71829e-06
7.62477e-07
3.85716e-07
1.13732e-07
6.62647e-08
7.14557e-08
1.655e-06
5.56261e-06
1.34955e-05
1.21405e-05
1.22016e-05
1.58149e-05
2.01523e-05
3.07729e-05
1.01944e-05
5.90498e-07
3.51947e-06
3.63422e-05
9.17336e-05
5.91569e-05
1.20578e-05
7.05086e-07
2.31832e-07
1.90281e-07
9.53731e-08
6.65037e-07
1.29812e-06
2.07133e-06
1.60598e-09
1.51219e-08
1.36637e-09
1.2797e-05
3.09846e-05
3.10853e-05
2.89646e-05
2.83667e-05
0.000145754
0.000170238
0.000170917
0.000143341
9.40358e-06
1.80861e-07
1.75433e-07
1.31791e-07
9.34339e-08
2.98813e-08
1.60575e-09
1.58493e-09
1.36638e-09
1.36637e-09
4.50426e-07
7.66412e-06
7.07191e-06
1.13731e-05
2.18411e-05
5.08702e-05
0.00011797
0.000170773
0.000142485
1.24428e-05
3.75116e-07
4.06923e-07
1.76297e-07
1.49804e-08
6.16088e-09
2.85173e-09
2.71222e-09
2.63606e-09
2.37558e-09
4.89827e-10
4.65291e-10
-2.58018e-13
-1.11936e-11
5.10609e-07
9.59899e-09
5.22784e-06
1.43582e-05
5.00402e-05
3.86558e-05
4.32216e-06
3.86708e-06
1.36374e-06
2.26573e-09
1.97933e-09
2.05053e-09
2.48222e-09
3.72473e-09
6.64689e-09
1.04039e-08
1.33033e-08
1.20573e-08
3.41576e-08
1.68471e-08
9.49074e-09
9.83502e-09
4.19434e-06
1.67216e-05
3.00227e-05
1.50199e-05
1.59344e-05
4.52008e-06
7.97817e-10
9.35731e-10
1.16886e-09
1.70253e-09
3.55433e-09
9.32043e-09
1.60555e-08
2.33608e-08
2.72182e-08
3.92591e-08
1.67072e-08
7.95374e-09
1.30539e-07
9.50393e-07
4.08682e-06
1.80632e-05
1.71098e-05
1.69198e-05
6.08855e-06
4.21748e-10
5.39019e-10
6.55451e-10
1.04667e-09
2.05258e-09
5.11201e-09
9.50548e-09
1.38557e-08
1.95575e-08
2.1123e-08
9.01578e-09
4.14019e-09
4.11896e-09
2.01291e-06
1.20229e-05
1.74284e-05
1.71969e-05
1.63894e-05
4.37528e-06
2.35833e-10
3.12313e-10
4.12121e-10
6.09216e-10
1.06473e-09
1.79559e-09
3.10808e-09
5.83684e-09
9.64075e-09
1.0566e-08
1.76017e-08
4.20285e-08
1.37599e-07
2.91107e-06
1.13366e-05
1.68638e-05
1.66013e-05
6.97654e-06
4.253e-06
1.28745e-10
1.83673e-10
2.64371e-10
3.86194e-10
6.32512e-10
1.02144e-09
1.58947e-09
3.10756e-09
5.47854e-09
9.28786e-09
2.75444e-08
8.89887e-08
5.04877e-07
7.86514e-07
1.76239e-06
7.61178e-06
4.12905e-06
7.1247e-07
6.47275e-06
6.92056e-11
1.03249e-10
1.59357e-10
2.4312e-10
3.73947e-10
6.51098e-10
1.0862e-09
2.01582e-09
3.8003e-09
7.40298e-09
2.12018e-08
7.35247e-08
1.91532e-07
2.45684e-07
2.85481e-07
3.82428e-07
4.65037e-07
5.25047e-07
1.35336e-05
3.55309e-11
5.38987e-11
8.55708e-11
1.37883e-10
2.19322e-10
3.63542e-10
6.82547e-10
1.22015e-09
2.30798e-09
4.35343e-09
1.01222e-08
2.68603e-08
4.21171e-08
7.99803e-08
2.60173e-08
1.76498e-07
1.19054e-07
5.14543e-07
1.73586e-05
1.58236e-11
2.53202e-11
4.09874e-11
6.736e-11
1.13262e-10
1.90275e-10
3.59534e-10
6.74566e-10
1.25632e-09
2.19671e-09
3.9579e-09
7.99585e-09
7.91934e-09
1.69295e-08
2.55692e-08
7.9593e-09
7.88271e-09
3.85952e-07
1.73571e-05
6.79233e-12
1.09186e-11
1.79728e-11
3.00945e-11
5.1741e-11
8.77991e-11
1.62887e-10
3.2181e-10
6.22331e-10
1.10248e-09
1.7678e-09
2.94782e-09
4.56332e-09
6.57563e-09
1.88722e-08
8.88101e-09
7.84504e-09
7.74441e-08
1.25086e-05
2.62813e-12
4.33691e-12
7.21179e-12
1.21097e-11
2.07918e-11
3.67697e-11
6.87655e-11
1.42917e-10
2.71608e-10
5.2317e-10
8.58659e-10
1.21458e-09
1.83269e-09
1.74916e-09
4.21168e-09
7.04503e-09
7.80018e-09
9.67927e-08
6.1361e-07
9.63966e-13
1.60195e-12
2.67111e-12
4.50899e-12
7.74176e-12
1.38102e-11
2.59649e-11
5.28211e-11
1.15342e-10
2.28476e-10
4.24193e-10
5.72904e-10
5.81169e-10
2.84521e-10
1.55589e-10
1.46388e-09
5.2138e-09
3.35228e-08
3.82226e-08
3.29244e-13
5.58456e-13
9.30684e-13
1.52668e-12
2.61033e-12
4.48695e-12
8.56208e-12
1.70586e-11
3.74473e-11
7.76311e-11
1.18752e-10
2.0452e-10
2.13992e-10
8.47315e-11
6.80159e-11
3.73386e-10
1.23604e-09
2.32322e-09
2.79137e-09
1.0766e-13
1.84606e-13
3.07091e-13
4.92639e-13
8.09613e-13
1.32793e-12
2.31832e-12
4.33799e-12
7.57202e-12
8.19486e-12
1.04793e-11
2.80413e-11
6.93037e-11
4.73281e-11
3.4596e-11
1.01353e-10
4.31703e-10
5.09936e-10
1.57254e-09
3.19745e-14
5.63646e-14
9.27155e-14
1.47679e-13
2.30007e-13
3.72089e-13
6.02736e-13
1.02328e-12
1.63849e-12
1.80707e-12
6.59133e-13
1.98076e-12
1.03733e-11
2.43319e-11
1.9823e-11
1.8356e-11
9.72246e-11
2.79601e-10
7.24389e-10
8.7604e-15
1.60064e-14
2.66683e-14
4.14748e-14
6.40233e-14
9.64449e-14
1.48498e-13
2.32963e-13
3.57123e-13
3.98274e-13
2.0821e-13
2.00203e-13
1.29024e-12
8.03044e-12
1.09428e-11
8.41184e-12
8.34795e-12
4.85667e-11
1.48409e-10
2.20581e-15
4.23373e-15
7.22075e-15
1.13488e-14
1.70486e-14
2.44088e-14
3.59952e-14
5.44119e-14
7.88824e-14
9.62665e-14
6.39933e-14
6.28474e-14
1.87887e-13
1.84379e-12
3.20425e-12
4.75738e-12
2.92685e-12
6.00009e-12
2.34288e-11
5.10153e-16
1.0588e-15
1.85908e-15
2.9282e-15
4.29408e-15
6.20506e-15
8.80281e-15
1.32403e-14
1.94874e-14
2.51609e-14
2.42067e-14
2.74455e-14
5.82008e-14
2.24873e-13
7.35723e-13
1.7791e-12
1.61942e-12
2.0033e-12
4.50719e-12
1.1144e-16
2.37729e-16
4.395e-16
7.05863e-16
1.0588e-15
1.52943e-15
2.26114e-15
3.45265e-15
5.53935e-15
8.58919e-15
1.20556e-14
1.90847e-14
3.73512e-14
9.6431e-14
3.16008e-13
6.50859e-13
9.79003e-13
8.72601e-13
6.11267e-13
2.11306e-17
4.96656e-17
9.57739e-17
1.60741e-16
2.49937e-16
3.72405e-16
5.77945e-16
9.91333e-16
1.83317e-15
3.5089e-15
6.6691e-15
1.31635e-14
2.68672e-14
6.27305e-14
1.65208e-13
3.90843e-13
5.64558e-13
5.87046e-13
4.52805e-13
3.96289e-18
9.71487e-18
1.92498e-17
3.40602e-17
5.52577e-17
8.94553e-17
1.51506e-16
2.99733e-16
6.92964e-16
1.61954e-15
3.90994e-15
8.88859e-15
1.96205e-14
4.30397e-14
1.03778e-13
2.45778e-13
4.15957e-13
4.6639e-13
3.44203e-13
6.01437e-19
1.59235e-18
3.41145e-18
6.40182e-18
1.12487e-17
1.90355e-17
3.70431e-17
8.66377e-17
2.44241e-16
7.00257e-16
1.9517e-15
5.01401e-15
1.21031e-14
2.70525e-14
6.27475e-14
1.47356e-13
2.87591e-13
3.60695e-13
2.32663e-13
8.12922e-20
2.26902e-19
5.13119e-19
1.03013e-18
2.00557e-18
3.92055e-18
8.70466e-18
2.4618e-17
8.20728e-17
2.76292e-16
8.71702e-16
2.50869e-15
6.51472e-15
1.53897e-14
3.40166e-14
7.8748e-14
1.74031e-13
2.38679e-13
1.51665e-13
1.00011e-20
3.01949e-20
7.39985e-20
1.61005e-19
3.44156e-19
7.54346e-19
1.89222e-18
6.32122e-18
2.47986e-17
9.59027e-17
3.44075e-16
1.09498e-15
3.13252e-15
7.98549e-15
1.83683e-14
3.94671e-14
8.06826e-14
1.13088e-13
6.57077e-14
)
;

boundaryField
{
    leftWall
    {
        type            zeroGradient;
    }
    rightWall
    {
        type            zeroGradient;
    }
    lowerWall
    {
        type            zeroGradient;
    }
    atmosphere
    {
        type            inletOutlet;
        inletValue      uniform 0;
        value           nonuniform List<scalar> 
46
(
4.79941e-08
1.62923e-08
9.65695e-10
0
0
0
0
0
0
0
0
0
0
0
0
0
0
0
0
0
1.45564e-16
6.11584e-17
2.38381e-17
2.10412e-18
1.53408e-19
1.08229e-20
4.82927e-21
1.00011e-20
3.01949e-20
7.39985e-20
1.61005e-19
3.44156e-19
7.54346e-19
1.89222e-18
6.32122e-18
2.47986e-17
9.59027e-17
3.44075e-16
1.09498e-15
3.13252e-15
7.98549e-15
1.83683e-14
3.94671e-14
8.06826e-14
1.13088e-13
6.57077e-14
)
;
    }
    defaultFaces
    {
        type            empty;
    }
}


// ************************************************************************* //
