/*--------------------------------*- C++ -*----------------------------------*\
| =========                 |                                                 |
| \\      /  F ield         | OpenFOAM: The Open Source CFD Toolbox           |
|  \\    /   O peration     | Version:  2312                                  |
|   \\  /    A nd           | Website:  www.openfoam.com                      |
|    \\/     M anipulation  |                                                 |
\*---------------------------------------------------------------------------*/
FoamFile
{
    version     2.0;
    format      ascii;
    arch        "LSB;label=32;scalar=64";
    class       volScalarField;
    location    "3";
    object      alpha.water;
}
// * * * * * * * * * * * * * * * * * * * * * * * * * * * * * * * * * * * * * //

dimensions      [0 0 0 0 0 0 0];

internalField   nonuniform List<scalar> 
2268
(
2.13793e-07
3.40195e-08
1.87022e-09
3.64755e-10
2.39564e-10
1.31315e-10
5.86191e-11
4.64188e-11
3.69069e-11
3.49868e-11
3.58582e-11
3.9517e-11
4.62624e-11
5.74823e-11
7.40391e-11
9.57347e-11
1.43634e-10
2.19384e-10
3.28235e-10
5.51189e-10
9.12607e-10
1.22023e-09
1.37853e-09
5.02356e-07
1.58922e-07
2.25524e-10
2.82574e-10
2.32532e-10
1.46808e-10
1.11605e-10
9.07222e-11
6.67418e-11
5.21696e-11
5.06742e-11
5.70433e-11
7.14848e-11
9.57594e-11
1.2124e-10
1.54171e-10
2.40918e-10
4.08848e-10
6.47156e-10
1.0185e-09
1.78678e-09
2.28287e-09
1.68716e-09
4.27314e-07
1.03172e-07
5.3066e-12
3.69936e-10
2.41675e-10
2.91239e-10
2.98752e-10
2.4484e-10
1.1967e-10
6.64893e-11
5.71607e-11
5.98384e-11
7.43454e-11
1.2319e-10
1.68012e-10
1.84929e-10
2.42577e-10
3.29477e-10
4.90435e-10
9.54847e-10
2.05981e-09
3.33412e-09
1.52425e-09
1.00686e-07
4.97055e-08
6.65917e-12
1.87287e-10
1.37441e-10
1.64913e-10
1.77207e-10
1.16606e-10
9.58253e-11
1.71668e-10
2.8542e-10
5.05744e-11
1.18783e-09
7.11659e-11
4.82207e-10
8.62217e-11
8.61982e-11
8.62172e-11
8.6172e-11
8.61895e-11
8.6172e-11
8.61428e-11
8.61032e-11
7.90801e-09
1.51872e-09
1.62975e-12
2.66587e-11
1.46154e-11
3.0219e-11
2.67659e-11
2.89014e-10
9.46011e-09
1.55542e-08
2.66708e-08
4.48865e-11
1.75161e-07
-2.18139e-14
-1.17397e-17
1.85456e-07
8.62212e-11
0.0016358
0.00760479
0.0174138
0.0320222
0.0545877
0.0685456
5.62154e-34
-6.9132e-28
3.10953e-28
9.29748e-24
8.65028e-24
1.7919e-23
5.40211e-20
1.29759e-08
0.00118811
0.0126401
0.0353369
0.0698388
0.111597
0.162469
0.228855
0.300792
0.378693
0.469202
0.549639
0.614185
0.672075
0.737476
0.766552
0.425665
0.40762
0.366489
0.3114
0.256166
0.235294
0.260961
0.341514
0.468651
0.59961
0.698719
0.782235
0.844599
0.881582
0.902829
0.931353
0.966532
0.969067
0.966288
0.971075
0.980422
0.978446
0.978191
0.981915
0.97952
0.974735
0.962309
0.942531
0.931458
0.943063
0.971841
0.999509
0.999509
0.999509
0.999429
0.998812
0.978877
0.938341
0.930269
0.974799
0.980373
0.980406
0.980425
0.980445
0.979767
0.974896
0.0245636
0.0246259
0.0227019
0.0148651
0.00869491
0.0110006
0.0183344
0.0196479
0.0196474
0.0183808
0.0170254
0.0161447
0.0159445
0.0139161
0.00770647
0.00611166
0.00720298
0.00805566
0.00812103
0.0904533
0.0231405
0.00936163
0.00935853
0.00867249
0.00812856
0.0100714
0.0131984
0.0160421
0.0157553
0.00654269
0.00531529
0.00530277
0.00463382
0.0046478
0.00463874
0.00465607
0.00574352
0.00774942
0.594395
0.360508
0.141085
0.0730834
0.0179049
0.00446483
0.00445807
0.00445004
0.00444757
0.00443121
0.00443912
0.0121266
0.0244053
0.0487466
0.120418
0.147069
0.0700234
0.0385578
0.0250927
0.631842
0.720562
0.481992
0.187445
0.0948935
0.0808278
0.191807
0.29609
0.309003
0.247731
0.265064
0.264808
0.299489
0.450761
0.58124
0.645744
0.623309
0.521083
0.393686
0.640591
0.857283
0.75486
0.448511
0.441188
0.715229
0.950774
0.945609
0.901056
0.578827
0.423643
0.419964
0.771952
0.877623
0.87869
0.879535
0.879596
0.879534
0.713175
0.658201
0.818117
0.934701
0.573319
0.475277
0.93866
0.959895
0.93263
0.786548
0.513234
0.424001
0.579271
0.875985
0.879284
0.87963
0.876754
0.874747
0.871592
0.875329
0.862549
0.872386
0.94071
0.853871
0.522641
0.872449
0.953553
0.581967
0.438828
0.438229
0.438985
0.57138
0.878027
0.877907
0.880025
0.877426
0.868222
0.875336
0.875339
0.785012
0.905467
0.955666
0.964221
0.718131
0.778845
0.954661
0.823181
0.571876
0.518918
0.522262
0.633473
0.776125
0.880565
0.880125
0.86188
0.83407
0.845588
0.875339
0.998322
0.998986
0.999476
0.999506
0.999507
0.999507
0.999508
0.999508
0.999508
0.999508
0.999509
0.999508
0.999505
0.997694
0.892768
0.761962
0.903775
0.975748
0.973263
0.976295
0.980297
0.971022
0.840493
0.999126
0.999126
0.998134
0.996888
0.996645
0.99703
0.995902
0.993086
0.99484
0.997903
0.999151
0.993888
0.979059
0.979067
0.88072
0.717688
0.795469
0.768129
0.755658
0.724776
0.66491
0.604878
0.365964
0.999126
0.999113
0.999113
0.998135
0.984738
0.927267
0.898941
0.845758
0.850516
0.89507
0.927867
0.91994
0.873005
0.759328
0.589897
0.481593
0.305028
0.14638
0.098169
0.0656385
0.0309689
0.0209062
0.0182104
0.931529
0.900685
0.828446
0.693824
0.467779
0.215813
0.237674
0.377707
0.390862
0.376497
0.347819
0.309497
0.214544
0.108313
0.0581492
0.0193936
1.20796e-19
-1.84603e-07
-3.6315e-19
-2.61019e-07
-1.91401e-07
1.04607e-20
2.0263e-05
0.078909
0.0366967
0.00039892
0.000114397
0.000114587
0.000114413
0.000114599
0.11752
0.096399
0.00401102
0.00159525
2.48513e-06
6.06235e-07
5.31391e-07
5.59949e-07
4.70086e-06
-3.92956e-24
0.000177598
0.000326215
0.000321923
0.000291011
2.55262e-21
3.54928e-06
0.0027905
0.00159985
0.0011155
0.00150082
0.000265671
0.00195821
0.0545582
0.092434
0.066875
0.0125481
0.000381755
0.00038418
0.000206292
1.09612e-05
9.6566e-05
0.000243064
0.000230345
0.00024119
0.000279843
0.00127743
0.00430684
0.00139107
2.55126e-08
0.00490416
0.00490304
0.00389655
0.00343718
0.00302717
0.00673302
0.00677099
0.000463681
0.000463532
0.00296059
0.00545565
0.00549412
0.00480683
0.000581974
1.59653e-07
1.73185e-07
0.00140887
0.00672751
0.00413814
0.000996652
0.000160269
0.0090146
0.0145041
0.00240671
0.00202736
0.000734018
0.000332551
0.000905855
0.00383371
0.00629041
0.00397463
0.000469721
7.89162e-05
8.76622e-07
1.92446e-07
1.14896e-07
7.00589e-05
1.54809e-07
0.00189266
0.00872722
0.0091159
0.00911667
0.00473303
0.000140254
0.00378897
0.0203556
4.15263e-09
4.15259e-09
4.26036e-05
7.05681e-05
6.63757e-05
3.62405e-06
3.70448e-06
1.05812e-07
0.000129308
3.83472e-05
7.32841e-07
1.84057e-07
1.38382e-07
1.43916e-07
1.49224e-07
0.000267454
0.000786921
0.00103672
0.00108579
0.000988331
0.000145969
0.0036188
0.0203546
8.40914e-09
4.15288e-09
3.03598e-05
0.000108069
0.000109365
7.8819e-05
9.78894e-06
1.05594e-07
1.05814e-07
1.28924e-07
9.6987e-08
6.98412e-08
7.03822e-08
1.0111e-05
3.69604e-05
1.54418e-05
1.51393e-06
3.59047e-07
3.05898e-07
3.26521e-07
1.16391e-06
0.000411807
0.00317032
2.98735e-08
2.98379e-08
2.98863e-08
1.37447e-05
8.15364e-05
6.36363e-05
1.92363e-05
1.0182e-06
8.78266e-07
1.02524e-06
1.17737e-06
6.76381e-08
2.6839e-05
6.123e-05
6.1246e-05
6.13593e-05
4.44709e-05
2.17136e-06
4.8184e-07
3.01372e-07
1.28957e-05
1.69781e-05
1.88456e-05
2.53734e-08
3.96446e-08
8.30333e-08
4.11101e-08
4.24328e-08
4.11935e-08
8.89268e-07
1.63389e-06
3.00395e-06
2.79724e-06
4.14309e-05
6.10317e-05
6.05301e-05
6.11469e-05
4.37472e-05
7.77869e-06
2.23342e-06
4.01417e-07
3.88023e-07
3.9443e-07
2.39669e-05
2.60036e-05
2.48753e-05
1.42692e-08
4.19111e-08
1.64915e-07
3.99132e-07
4.62314e-07
1.94251e-07
1.01939e-07
1.03086e-07
1.90439e-05
2.98685e-05
2.99706e-05
1.36207e-05
5.56423e-06
5.52701e-06
7.81121e-06
1.10892e-05
1.10034e-05
8.12342e-06
5.7384e-07
3.91502e-07
6.47644e-06
8.13545e-06
3.26635e-06
1.42933e-08
2.03544e-08
7.59362e-08
9.3801e-07
1.9936e-06
1.75482e-06
9.63254e-07
5.41412e-07
3.97724e-07
4.21121e-07
4.45727e-07
8.58118e-06
2.72218e-05
5.52536e-05
5.56134e-05
5.56124e-05
3.55833e-05
2.5112e-06
5.20184e-07
4.06755e-07
7.78164e-06
3.82133e-05
3.86257e-05
1.26717e-08
9.72865e-09
2.55339e-09
4.19149e-07
1.99244e-06
1.98322e-06
1.69294e-06
1.88268e-07
1.24461e-07
2.17303e-06
3.61039e-05
5.60173e-05
5.7688e-05
5.76405e-05
5.03291e-05
1.34777e-05
2.91627e-06
2.43613e-06
2.54401e-05
3.68219e-05
3.94473e-05
3.98631e-05
3.8157e-05
1.20225e-08
9.03933e-09
2.58742e-09
8.91334e-08
1.11402e-06
1.36083e-06
6.22472e-07
9.2034e-08
1.56532e-07
2.54073e-05
4.34454e-05
3.70728e-05
1.08102e-08
-6.32226e-26
-1.08106e-26
1.23435e-08
2.46881e-06
2.76478e-06
2.04962e-06
3.63036e-06
7.52108e-06
8.8075e-06
5.8644e-06
1.20934e-08
8.97949e-09
2.92306e-09
6.85681e-10
7.04565e-10
3.0849e-07
1.39268e-08
4.06731e-07
1.09561e-06
5.72998e-07
1.24167e-09
1.29406e-09
3.81876e-09
4.52345e-08
2.42962e-07
2.35413e-07
4.17014e-08
5.74877e-08
1.51415e-09
2.15216e-09
2.78392e-09
2.92373e-09
2.27586e-07
1.24175e-08
8.61127e-09
4.91363e-09
2.32254e-09
9.23413e-10
1.41443e-09
8.82692e-09
2.05576e-08
3.07797e-09
1.13764e-09
1.2302e-09
3.31909e-09
1.20584e-08
2.04755e-08
1.37748e-08
5.88658e-09
1.35993e-09
1.30386e-09
1.29598e-09
1.86039e-09
2.98361e-09
3.3664e-09
8.42009e-10
1.32771e-08
7.99949e-09
7.06128e-09
5.27348e-09
3.29131e-09
3.96817e-09
1.71308e-08
2.14088e-08
1.45739e-08
1.55868e-09
1.19476e-09
1.55716e-09
2.47449e-09
4.55589e-09
5.62472e-09
7.36659e-09
7.63228e-09
4.75342e-09
1.69718e-09
1.0323e-09
1.05038e-09
1.15357e-09
8.50671e-10
1.38522e-08
7.1351e-09
6.15749e-09
5.56827e-09
3.20549e-09
1.82431e-09
1.39895e-09
2.22241e-09
3.24827e-09
2.23377e-09
1.6736e-09
9.71829e-10
9.50829e-10
6.39214e-10
6.94024e-10
1.39649e-09
2.45235e-09
2.8263e-09
2.50427e-09
1.85272e-09
1.17687e-09
7.00066e-10
7.10518e-10
1.54535e-08
6.07087e-09
4.10711e-09
3.05838e-09
1.07985e-09
1.59432e-10
1.32479e-10
1.47157e-10
2.14813e-10
3.96112e-10
5.07315e-10
5.85108e-10
5.45183e-10
5.4778e-10
6.38975e-10
8.88609e-10
1.08361e-09
1.26482e-09
1.41817e-09
1.1104e-09
7.16575e-10
5.30519e-10
4.27746e-10
1.84649e-08
4.89471e-09
2.42148e-09
1.21683e-09
3.85082e-10
1.6819e-10
1.3224e-10
1.27424e-10
1.39745e-10
1.62992e-10
1.9331e-10
2.3295e-10
2.56336e-10
2.81361e-10
3.408e-10
4.45631e-10
5.40169e-10
5.77944e-10
5.83345e-10
5.62767e-10
3.51779e-10
2.48354e-10
2.29937e-10
3.49867e-08
3.47906e-09
1.75772e-09
1.06664e-09
3.88067e-10
1.4796e-10
1.03463e-10
9.51352e-11
9.11093e-11
9.24727e-11
1.00908e-10
1.1023e-10
1.20236e-10
1.31172e-10
1.53382e-10
1.87772e-10
2.20135e-10
2.39529e-10
2.56434e-10
2.36378e-10
1.56452e-10
1.21992e-10
1.21071e-10
7.47765e-08
2.31191e-09
1.39272e-09
8.7644e-10
4.01637e-10
1.67073e-10
9.66953e-11
7.23919e-11
5.78514e-11
4.94037e-11
4.57837e-11
4.64822e-11
5.02057e-11
5.53843e-11
6.31895e-11
7.26955e-11
8.03561e-11
8.57728e-11
8.81227e-11
8.48849e-11
6.45196e-11
5.8335e-11
6.12844e-11
1.14515e-07
1.72854e-09
3.44723e-10
3.59055e-10
2.73789e-10
1.8785e-10
1.36207e-10
1.02249e-10
6.89072e-11
4.39999e-11
3.04384e-11
2.42558e-11
2.12494e-11
2.09722e-11
2.24234e-11
2.41072e-11
2.58651e-11
2.73384e-11
2.83048e-11
2.69375e-11
2.50976e-11
2.59801e-11
2.86533e-11
1.26489e-07
7.71099e-09
2.17341e-10
2.56221e-10
2.75869e-10
2.43257e-10
2.02932e-10
1.56171e-10
1.05902e-10
6.41713e-11
3.96444e-11
2.28475e-11
1.36581e-11
9.28753e-12
7.66247e-12
7.30943e-12
7.39282e-12
7.63576e-12
7.8233e-12
8.18911e-12
8.82866e-12
9.98371e-12
1.25307e-11
1.80765e-07
4.09875e-08
2.16944e-10
2.68038e-10
3.52494e-10
3.40033e-10
2.98767e-10
2.43099e-10
1.67001e-10
1.0131e-10
6.31644e-11
3.62659e-11
1.85655e-11
8.72641e-12
4.24403e-12
2.58424e-12
1.93228e-12
1.88319e-12
1.99498e-12
2.31879e-12
2.71741e-12
3.75194e-12
4.93683e-12
1.80533e-07
9.61433e-08
2.2887e-10
2.79639e-10
4.51774e-10
4.53832e-10
4.28461e-10
3.6297e-10
2.3754e-10
1.50046e-10
1.01124e-10
6.1504e-11
3.23182e-11
1.46375e-11
5.76935e-12
2.16418e-12
9.05694e-13
5.0236e-13
4.8414e-13
6.04281e-13
8.09097e-13
1.19181e-12
1.8112e-12
1.83307e-07
1.17624e-07
2.28602e-10
2.45417e-10
4.78812e-10
4.97958e-10
5.4101e-10
6.28824e-10
3.06322e-10
1.97377e-10
1.47494e-10
9.64947e-11
5.41297e-11
2.58379e-11
1.03622e-11
3.6041e-12
1.12114e-12
3.52198e-13
1.44772e-13
1.44175e-13
2.20931e-13
3.81575e-13
5.99883e-13
1.78603e-07
1.33881e-07
4.20569e-09
2.14599e-10
4.33326e-10
4.12117e-10
4.12144e-10
1.08457e-09
3.2248e-10
2.53692e-10
1.97571e-10
1.36432e-10
8.1844e-11
4.17948e-11
1.76869e-11
6.35646e-12
2.0026e-12
5.42151e-13
1.34223e-13
4.70976e-14
5.33482e-14
1.06553e-13
1.9236e-13
1.45331e-07
2.1042e-07
4.55423e-08
2.13671e-10
1.0178e-09
9.26867e-10
7.38388e-09
9.8248e-10
3.14146e-10
2.95159e-10
2.47264e-10
1.76753e-10
1.11244e-10
5.98556e-11
2.67245e-11
1.04253e-11
3.47908e-12
9.62725e-13
2.28547e-13
4.27213e-14
1.75334e-14
2.66576e-14
5.30731e-14
9.96901e-08
2.14808e-07
1.18075e-07
2.14599e-10
1.34933e-08
1.0314e-07
1.1488e-07
3.14189e-10
3.14815e-10
3.19386e-10
2.94256e-10
2.12155e-10
1.37761e-10
7.56455e-11
3.64858e-11
1.49131e-11
5.30713e-12
1.5654e-12
3.72511e-13
7.62334e-14
9.93948e-15
6.51607e-15
1.30679e-14
5.99181e-08
1.84143e-07
9.43368e-08
2.14604e-10
2.65119e-08
2.17253e-07
1.5755e-07
5.43855e-08
3.26662e-10
3.32081e-10
3.20818e-10
2.40524e-10
1.60558e-10
8.73997e-11
4.36432e-11
1.93242e-11
7.41579e-12
2.24983e-12
5.9186e-13
1.21856e-13
1.69528e-14
2.35558e-15
3.01949e-15
1.43716e-08
5.79266e-08
3.06997e-08
2.55552e-09
4.90358e-09
2.36162e-07
8.33737e-07
1.54572e-07
7.16067e-10
3.46342e-10
3.21664e-10
2.46596e-10
1.63721e-10
9.03417e-11
4.566e-11
2.10156e-11
8.63279e-12
2.97213e-12
8.08038e-13
1.77472e-13
3.45007e-14
2.06614e-15
6.56803e-16
5.49882e-09
1.56837e-08
7.26934e-09
6.52616e-10
4.2397e-09
4.67373e-07
1.45004e-06
8.1818e-07
3.14782e-09
3.74076e-10
3.01064e-10
2.36762e-10
1.56744e-10
8.53612e-11
4.22071e-11
1.98177e-11
8.57598e-12
3.17172e-12
9.38406e-13
2.19332e-13
4.36252e-14
2.94139e-15
2.18361e-16
1.16834e-09
2.90067e-09
1.04381e-09
1.34016e-09
4.76591e-10
7.07737e-07
1.44942e-06
9.83036e-07
1.55896e-08
4.16477e-10
2.54716e-10
2.07642e-10
1.37467e-10
7.25038e-11
3.46587e-11
1.58679e-11
7.03072e-12
2.7852e-12
9.09937e-13
2.30446e-13
4.5609e-14
5.23557e-15
1.70168e-16
7.72741e-10
7.87425e-10
8.10825e-10
1.91192e-09
3.67494e-10
7.68503e-07
1.45004e-06
2.5097e-07
2.00427e-08
5.96929e-10
1.90857e-10
1.61811e-10
1.07061e-10
5.49688e-11
2.4638e-11
1.0647e-11
4.65038e-12
1.90269e-12
6.81997e-13
1.88334e-13
4.03765e-14
4.79789e-15
2.29895e-16
7.54168e-09
1.05946e-08
1.75644e-09
2.2497e-09
3.63441e-10
6.98549e-08
4.54444e-07
7.77738e-08
6.26578e-09
3.83492e-10
1.24799e-10
1.08511e-10
7.17282e-11
3.59968e-11
1.49904e-11
5.87151e-12
2.35002e-12
9.662e-13
3.61506e-13
1.13586e-13
2.55873e-14
3.98754e-15
2.52014e-16
4.6325e-07
9.17497e-08
3.79891e-09
2.31016e-09
3.82096e-09
6.99924e-10
8.35567e-11
4.19521e-10
5.4185e-10
1.72599e-10
6.70108e-11
6.00121e-11
3.98484e-11
1.97197e-11
7.49643e-12
2.53444e-12
8.79144e-13
3.20983e-13
1.26735e-13
4.63077e-14
1.27364e-14
1.74997e-15
2.01689e-16
5.04862e-07
2.71868e-07
3.15466e-08
6.28441e-09
6.12868e-09
1.8294e-09
2.57222e-10
2.58613e-11
2.58059e-10
8.07561e-11
2.80752e-11
2.57587e-11
1.74021e-11
8.53703e-12
3.04071e-12
8.62432e-13
2.31548e-13
6.84132e-14
2.59178e-14
1.21831e-14
3.61278e-15
7.26922e-16
1.28178e-16
4.80031e-07
1.55161e-07
1.9732e-08
2.94677e-09
3.19796e-09
1.08022e-09
1.77452e-10
2.39351e-11
5.99541e-11
1.55759e-11
8.11802e-12
7.4759e-12
5.35346e-12
2.61335e-12
8.74247e-13
2.05755e-13
3.96319e-14
7.77084e-15
2.94204e-15
2.00814e-15
7.29278e-16
2.35547e-16
6.19587e-17
5.04486e-08
1.66015e-08
1.10288e-09
1.3064e-10
1.91746e-11
2.50077e-12
2.95889e-13
4.91049e-12
6.42223e-13
1.95747e-13
1.07049e-12
1.13976e-12
8.60486e-13
4.23269e-13
1.29083e-13
2.53799e-14
3.43425e-15
4.31034e-16
1.70721e-16
2.09282e-16
1.45698e-16
6.1619e-17
2.39642e-17
0.750097
0.715529
0.706496
0.719383
0.145929
0.497346
0.979074
0.990107
0.0309905
0.0345574
0.0625416
0.0780297
0.00701579
0.00942376
0.00334067
1.01702e-06
0.000501896
0.000161771
0.000242632
2.06379e-09
2.47109e-08
5.34834e-08
2.06687e-09
6.03165e-09
0.0127938
0.00316554
0.00142321
0.000701584
0.0203521
0.0203538
0.0202954
0.0132573
0.0203558
0.0203534
0.0203538
0.0181497
0.0173009
0.0203538
0.0143068
0.0036091
0.000228445
0.000487118
0.000502164
3.2518e-05
9.87695e-06
1.62614e-07
1.62496e-07
1.61038e-07
1.78349e-07
1.62496e-07
1.62614e-07
1.98653e-07
2.59799e-05
2.02879e-06
7.17251e-07
5.32822e-07
1.57701e-05
1.1777e-06
8.05892e-07
5.03851e-07
2.94355e-06
2.40416e-06
2.07393e-06
1.68224e-06
1.19002e-06
6.70139e-07
4.72543e-07
4.30788e-07
8.39622e-10
5.59325e-09
4.02746e-08
6.40125e-08
1.24349e-09
4.29077e-09
7.18733e-09
1.11951e-08
8.90455e-10
1.15139e-09
1.70891e-09
1.83281e-09
4.88815e-10
6.01454e-10
6.3822e-10
7.26371e-10
2.52414e-10
2.83035e-10
3.49333e-10
3.82434e-10
1.41157e-10
1.6092e-10
1.82691e-10
2.09177e-10
6.92709e-11
7.93631e-11
1.00441e-10
1.12965e-10
3.54045e-11
4.34377e-11
5.04151e-11
5.9896e-11
1.58793e-11
1.90677e-11
2.51178e-11
3.00355e-11
6.92234e-12
8.72609e-12
1.08741e-11
1.3052e-11
2.56455e-12
3.45839e-12
4.46422e-12
5.571e-12
9.728e-13
1.30472e-12
1.68803e-12
2.09911e-12
3.12472e-13
4.51676e-13
5.98538e-13
7.68749e-13
1.01203e-13
1.37237e-13
2.0274e-13
2.56877e-13
2.5713e-14
4.29511e-14
5.93536e-14
8.40243e-14
6.78132e-15
1.05301e-14
1.74804e-14
2.29867e-14
1.52886e-15
2.66584e-15
3.92351e-15
6.65487e-15
2.86074e-16
4.9507e-16
9.75825e-16
1.26836e-15
5.61441e-17
1.06811e-16
1.76259e-16
3.52845e-16
1.08984e-17
1.6939e-17
4.1221e-17
5.86653e-17
3.16272e-18
3.27998e-18
5.65551e-18
1.37571e-17
2.16416e-18
5.92294e-19
1.03099e-18
1.59478e-18
2.51602e-18
2.31276e-19
1.137e-19
3.05364e-19
2.5035e-18
1.86295e-19
2.6843e-20
4.10095e-20
2.08535e-18
1.51912e-19
1.08371e-20
5.06091e-21
0.815014
0.98336
0.993022
0.995542
0.868174
0.77629
0.941936
0.965384
0.954661
0.815932
0.612847
0.608651
0.648467
0.7432
0.545132
0.507184
0.681155
0.733875
0.771355
0.990222
0.993915
0.997052
0.997018
0.977675
0.874666
0.9027
0.965306
0.936076
0.868412
0.76861
0.651448
0.477244
0.270101
0.160191
0.175248
0.410684
0.512609
0.521122
0.517565
0.930916
0.946085
0.978801
0.986633
0.977948
0.963211
0.936258
0.786727
0.520475
0.46587
0.597411
0.4939
0.21053
0.145829
0.134703
0.131859
0.194177
0.269893
0.000485466
0.0623408
0.57719
0.914902
0.941958
0.971788
0.956638
0.628072
0.228745
0.0836985
0.230289
0.503104
0.521908
0.491801
0.406523
0.230525
0.104309
0.0760347
0.0749317
2.10696e-07
1.79328e-11
0.00775801
0.127705
0.411937
0.638696
0.583091
0.153746
3.35351e-20
6.9771e-20
-1.58834e-20
0.0488698
0.345348
0.39284
0.223489
0.219635
0.126847
0.0734108
0.0713656
1.37895e-05
-6.17431e-25
-1.29067e-07
-4.89621e-08
0.000325071
0.0194633
0.0261236
-1.5579e-20
1.74534e-06
3.61561e-15
0.000533402
0.00208792
0.0096464
0.00799008
0.000924814
0.000948191
0.000925301
0.00890192
0.0204762
4.16181e-05
5.49416e-05
5.87453e-05
6.73347e-05
7.62436e-06
6.53967e-06
-2.3113e-07
-4.87721e-08
2.80863e-07
8.41621e-08
3.18684e-05
7.95535e-05
2.34925e-05
0.000601582
0.00143368
0.00183356
0.000928778
0.00391104
0.000409728
0.0013576
5.62608e-05
0.000340503
0.000712809
0.000551567
0.000264485
0.000164707
4.23976e-05
4.4937e-07
3.46231e-08
6.23625e-05
4.87914e-05
2.43589e-05
0.000826414
0.00277842
0.00393264
0.00152647
0.00354215
0.000419836
0.0171172
0.0126266
0.00223357
0.000459792
0.000437943
0.000412156
0.00164831
0.00320625
0.00324173
0.00302167
0.00164909
4.18014e-05
8.12026e-06
1.91169e-05
0.00485658
0.00786488
0.00303032
0.003059
0.000415627
0.00737343
0.0121079
0.0126087
0.012612
0.00860809
0.00114502
0.000988983
0.00323779
0.00396161
0.00396477
0.00169515
7.78619e-07
7.79805e-07
0.000354064
0.00669246
0.00756153
0.00098507
0.00272487
0.000325068
5.20924e-05
0.00105698
0.00102802
0.00291889
0.00969972
0.00981122
0.00844307
0.00138232
0.00263061
0.00254958
0.000116339
2.19205e-06
0.00292688
0.00626069
0.00505018
0.000112079
2.69261e-06
0.000301299
7.02006e-05
1.77635e-07
7.21346e-07
1.09633e-06
6.17897e-07
6.19373e-07
0.00224428
0.00462796
0.00112914
6.07287e-05
9.39746e-06
0.0020622
0.00529011
0.00525004
0.00202133
9.19899e-07
9.17676e-07
1.48024e-06
5.01675e-08
5.02845e-08
4.64976e-07
7.64677e-07
3.91281e-07
5.89165e-07
2.0849e-06
2.13689e-05
0.000396841
0.000341961
5.83185e-06
4.4135e-06
0.00225641
0.00532283
0.00237933
9.74499e-07
1.09716e-06
1.86162e-06
1.84279e-06
1.16301e-06
5.03023e-08
6.37506e-07
4.40035e-07
3.9051e-07
1.33327e-06
1.83521e-05
2.52794e-05
1.32068e-05
1.06293e-05
3.31377e-06
6.86108e-07
0.000577712
0.0028319
0.00228386
1.28224e-06
1.06189e-06
1.76574e-06
1.327e-06
6.73681e-07
5.4015e-08
5.63948e-07
4.31168e-07
6.99264e-06
3.01852e-05
3.06389e-05
3.06048e-05
2.4954e-05
6.89831e-06
3.09369e-06
4.76545e-07
4.84235e-07
8.33489e-06
2.25328e-05
8.52821e-06
4.21361e-07
1.6666e-07
6.82778e-08
6.53467e-08
6.96149e-08
1.56339e-06
5.37745e-06
1.29265e-05
1.30122e-05
1.37396e-05
1.72185e-05
2.11525e-05
3.03035e-05
9.27498e-06
4.99797e-07
4.87642e-07
1.72274e-05
8.3793e-05
7.01594e-05
2.14535e-05
1.67971e-06
1.78741e-07
1.6352e-07
1.09646e-07
7.26324e-07
1.5106e-06
2.69854e-06
1.67305e-08
2.22584e-08
5.87437e-07
1.25788e-05
3.09892e-05
3.11093e-05
2.4738e-05
1.50337e-05
0.000130408
0.000170156
0.000170917
0.000162673
1.80803e-05
1.43712e-07
1.33926e-07
1.14408e-07
9.15655e-08
1.57001e-08
1.52244e-09
1.47141e-09
1.36443e-09
1.36536e-09
6.92046e-07
9.76166e-06
9.5361e-06
1.08302e-05
2.25018e-05
4.53928e-05
0.000118147
0.000170887
0.000155996
1.96247e-05
1.52708e-07
3.27765e-07
1.73716e-07
1.39135e-08
5.67219e-09
2.705e-09
2.65964e-09
2.51836e-09
2.21437e-09
-1.00293e-15
-1.77055e-12
3.64055e-24
3.74482e-23
1.4444e-06
8.81064e-09
4.91812e-06
1.40057e-05
4.7197e-05
4.14714e-05
5.27527e-06
4.37769e-06
1.61778e-06
2.1812e-09
1.95464e-09
2.09017e-09
2.50625e-09
3.73642e-09
6.5191e-09
9.54402e-09
1.1466e-08
1.01221e-08
2.98158e-08
8.81199e-09
8.58483e-09
8.81064e-09
3.54298e-06
1.5211e-05
3.11261e-05
1.50948e-05
1.63375e-05
4.81133e-06
7.95646e-10
9.61715e-10
1.19277e-09
1.76389e-09
3.59926e-09
9.21081e-09
1.56877e-08
2.34155e-08
2.73212e-08
3.85269e-08
1.65641e-08
5.39593e-09
1.22153e-07
7.84261e-07
3.48055e-06
1.83427e-05
1.78028e-05
1.6738e-05
6.24058e-06
4.31224e-10
5.47745e-10
6.65815e-10
1.06623e-09
2.13222e-09
5.34173e-09
9.87005e-09
1.42289e-08
2.00965e-08
2.259e-08
9.52775e-09
4.14048e-09
4.11981e-09
1.59581e-06
1.11882e-05
1.7827e-05
1.73948e-05
1.65406e-05
4.40521e-06
2.40385e-10
3.1824e-10
4.14226e-10
6.19658e-10
1.08417e-09
1.841e-09
3.18462e-09
5.88676e-09
9.6037e-09
1.0265e-08
1.65294e-08
3.67022e-08
7.55776e-08
2.58613e-06
1.10726e-05
1.72071e-05
1.68102e-05
6.6468e-06
4.27102e-06
1.31279e-10
1.87119e-10
2.68791e-10
3.88499e-10
6.40663e-10
1.0291e-09
1.58855e-09
3.09048e-09
5.58551e-09
9.28239e-09
2.60292e-08
7.91679e-08
4.81311e-07
8.26941e-07
1.91338e-06
7.6664e-06
4.3879e-06
6.92311e-07
6.43136e-06
7.05353e-11
1.05287e-10
1.62193e-10
2.47081e-10
3.76351e-10
6.55203e-10
1.10141e-09
2.03772e-09
3.83627e-09
7.42919e-09
2.12137e-08
7.11189e-08
1.97093e-07
2.36871e-07
2.71604e-07
3.57779e-07
4.51948e-07
5.27433e-07
1.32933e-05
3.6191e-11
5.4986e-11
8.72805e-11
1.3966e-10
2.23844e-10
3.70549e-10
6.91988e-10
1.23619e-09
2.33382e-09
4.40825e-09
1.03188e-08
2.7731e-08
4.22004e-08
8.4897e-08
2.62283e-08
1.78347e-07
1.26757e-07
5.13872e-07
1.73465e-05
1.61483e-11
2.58447e-11
4.15888e-11
6.90381e-11
1.15433e-10
1.94073e-10
3.6605e-10
6.84884e-10
1.27373e-09
2.22969e-09
4.05862e-09
8.31775e-09
8.2695e-09
1.65927e-08
2.57124e-08
1.03791e-08
7.6984e-09
3.64139e-07
1.73474e-05
6.92269e-12
1.11445e-11
1.82347e-11
3.08663e-11
5.27928e-11
8.96514e-11
1.6638e-10
3.27806e-10
6.32207e-10
1.11852e-09
1.80034e-09
3.02743e-09
4.62453e-09
6.52744e-09
1.90206e-08
8.71296e-09
7.66352e-09
8.87381e-08
1.28049e-05
2.67919e-12
4.42512e-12
7.31508e-12
1.24209e-11
2.12488e-11
3.75663e-11
7.03214e-11
1.45633e-10
2.7677e-10
5.31265e-10
8.71309e-10
1.24102e-09
1.87685e-09
1.76963e-09
4.39812e-09
7.11216e-09
7.61421e-09
9.59195e-08
7.19947e-07
9.81745e-13
1.6226e-12
2.71926e-12
4.62221e-12
7.90967e-12
1.41153e-11
2.65601e-11
5.40885e-11
1.1755e-10
2.3262e-10
4.30752e-10
5.81417e-10
5.99717e-10
2.94895e-10
1.62855e-10
1.55728e-09
5.38582e-09
3.66706e-08
4.77175e-08
3.35259e-13
5.65422e-13
9.52076e-13
1.55833e-12
2.66412e-12
4.59041e-12
8.76012e-12
1.74888e-11
3.83529e-11
7.9518e-11
1.22264e-10
2.10581e-10
2.18982e-10
8.82325e-11
6.88042e-11
3.97715e-10
1.30019e-09
2.25739e-09
4.57131e-09
1.09572e-13
1.86852e-13
3.13697e-13
5.01905e-13
8.24974e-13
1.35514e-12
2.37151e-12
4.43726e-12
7.75307e-12
8.3706e-12
1.09386e-11
2.92199e-11
7.19887e-11
4.79073e-11
3.49684e-11
1.06209e-10
4.62849e-10
5.60427e-10
1.65574e-09
3.23587e-14
5.75727e-14
9.43554e-14
1.50218e-13
2.3419e-13
3.78669e-13
6.14277e-13
1.04353e-12
1.66848e-12
1.83558e-12
6.76525e-13
2.09291e-12
1.0812e-11
2.48985e-11
2.00218e-11
1.9062e-11
1.02431e-10
2.86192e-10
7.30796e-10
8.87414e-15
1.63537e-14
2.71161e-14
4.21644e-14
6.50171e-14
9.79794e-14
1.50903e-13
2.36905e-13
3.62451e-13
4.03624e-13
2.11313e-13
2.09606e-13
1.36208e-12
8.24198e-12
1.1209e-11
8.57405e-12
8.91042e-12
5.25255e-11
1.66924e-10
2.2621e-15
4.3137e-15
7.34347e-15
1.1524e-14
1.72865e-14
2.47491e-14
3.64981e-14
5.51511e-14
7.99233e-14
9.7213e-14
6.48535e-14
6.50964e-14
2.00631e-13
1.90004e-12
3.32007e-12
4.84577e-12
3.08444e-12
7.23852e-12
2.73004e-11
5.22264e-16
1.07968e-15
1.89081e-15
2.97204e-15
4.3534e-15
6.28068e-15
8.9133e-15
1.33993e-14
1.97e-14
2.53998e-14
2.44439e-14
2.79888e-14
6.09064e-14
2.31116e-13
7.67698e-13
1.8686e-12
1.66917e-12
2.14191e-12
5.01368e-12
1.14652e-16
2.4294e-16
4.47442e-16
7.16838e-16
1.07291e-15
1.54834e-15
2.28731e-15
3.49404e-15
5.60254e-15
8.67463e-15
1.21775e-14
1.93044e-14
3.80312e-14
9.96506e-14
3.19919e-13
6.60296e-13
9.91181e-13
9.05102e-13
6.27671e-13
2.17456e-17
5.08282e-17
9.76372e-17
1.63346e-16
2.53351e-16
3.77106e-16
5.85393e-16
1.00433e-15
1.85759e-15
3.55394e-15
6.75255e-15
1.3323e-14
2.7255e-14
6.38711e-14
1.66576e-13
3.99467e-13
5.68832e-13
5.90737e-13
4.58068e-13
4.09379e-18
9.95264e-18
1.9652e-17
3.46444e-17
5.60845e-17
9.06609e-17
1.53687e-16
3.04573e-16
7.03786e-16
1.6456e-15
3.96591e-15
9.00787e-15
1.98742e-14
4.3708e-14
1.05547e-13
2.48459e-13
4.21326e-13
4.68589e-13
3.46384e-13
6.22829e-19
1.63833e-18
3.49087e-18
6.52563e-18
1.14302e-17
1.93448e-17
3.76767e-17
8.8324e-17
2.4898e-16
7.13342e-16
1.98536e-15
5.095e-15
1.22816e-14
2.74828e-14
6.38403e-14
1.48488e-13
2.90566e-13
3.63091e-13
2.34842e-13
8.44769e-20
2.34285e-19
5.26968e-19
1.05357e-18
2.04443e-18
3.99084e-18
8.87717e-18
2.51534e-17
8.3877e-17
2.82072e-16
8.88756e-16
2.55361e-15
6.62332e-15
1.56364e-14
3.46621e-14
8.03239e-14
1.76058e-13
2.41341e-13
1.53188e-13
1.04285e-20
3.12401e-20
7.60782e-20
1.64842e-19
3.51412e-19
7.69654e-19
1.93551e-18
6.47927e-18
2.54133e-17
9.8179e-17
3.51567e-16
1.11719e-15
3.19054e-15
8.12244e-15
1.86787e-14
4.02551e-14
8.17783e-14
1.1446e-13
6.65744e-14
)
;

boundaryField
{
    leftWall
    {
        type            zeroGradient;
    }
    rightWall
    {
        type            zeroGradient;
    }
    lowerWall
    {
        type            zeroGradient;
    }
    atmosphere
    {
        type            inletOutlet;
        inletValue      uniform 0;
        value           nonuniform List<scalar> 
46
(
5.04486e-08
1.66015e-08
1.10288e-09
0
0
0
0
0
0
0
0
0
0
0
0
0
0
0
0
0
1.45698e-16
6.1619e-17
2.39642e-17
2.08535e-18
1.51912e-19
1.08371e-20
5.06091e-21
1.04285e-20
3.12401e-20
7.60782e-20
1.64842e-19
3.51412e-19
7.69654e-19
1.93551e-18
6.47927e-18
2.54133e-17
9.8179e-17
3.51567e-16
1.11719e-15
3.19054e-15
8.12244e-15
1.86787e-14
4.02551e-14
8.17783e-14
1.1446e-13
6.65744e-14
)
;
    }
    defaultFaces
    {
        type            empty;
    }
}


// ************************************************************************* //
