/*--------------------------------*- C++ -*----------------------------------*\
| =========                 |                                                 |
| \\      /  F ield         | OpenFOAM: The Open Source CFD Toolbox           |
|  \\    /   O peration     | Version:  2312                                  |
|   \\  /    A nd           | Website:  www.openfoam.com                      |
|    \\/     M anipulation  |                                                 |
\*---------------------------------------------------------------------------*/
FoamFile
{
    version     2.0;
    format      ascii;
    arch        "LSB;label=32;scalar=64";
    class       volScalarField;
    location    "3";
    object      alpha.galistan;
}
// * * * * * * * * * * * * * * * * * * * * * * * * * * * * * * * * * * * * * //

dimensions      [0 0 0 0 0 0 0];

internalField   nonuniform List<scalar> 
2268
(
1
1
1
1
1
1
1
1
1
1
1
1
1
1
1
1
1
1
1
1
0.99997
0.999947
0.999946
0.999999
1
1
1
1
1
1
1
1
1
1
1
1
1
1
1
1
1
1
1
0.999998
0.999981
0.999971
1
1
1
1
0.999999
0.999999
1
1
1
1
1
1
1
1
1
1
1
1
1
1
1
0.999998
0.999998
1
1
1
0.999996
0.999985
1
1
1
1
1
1
1
1
1
1
1
1
1
1
1
1
1
0.99988
1
0.999862
1
0.999865
0.99999
0.999994
1
1
1
1
1
0.999994
1
0.999999
0.999999
1
0.999524
0.993079
0.9824
0.970377
0.95651
0.936772
0.917872
0.99428
0.993359
0.997906
0.999716
0.9999
0.999761
0.999642
0.999781
0.998631
0.986601
0.962596
0.927505
0.886522
0.836786
0.770514
0.697247
0.601814
0.495617
0.414242
0.349849
0.289451
0.235019
0.208633
0.566226
0.584056
0.625679
0.686961
0.743521
0.764061
0.738394
0.657935
0.530717
0.398122
0.296886
0.21293
0.150848
0.100553
0.0588152
0.0228373
-7.01757e-09
-1.02691e-07
1.12398e-14
-3.36134e-24
2.19145e-18
2.42783e-15
-3.03164e-06
0.00997929
0.012788
0.0205424
0.0361393
0.0572295
0.068177
0.0563962
0.0276841
0.000170163
0.000186892
3.17054e-05
-5.40245e-23
-4.22106e-23
-7.51722e-08
-1.32254e-06
-3.30441e-08
7.82073e-08
4.16841e-06
4.66839e-05
0.000117137
0.000801959
0.00218581
0.00703612
0.940147
0.941246
0.945467
0.948687
0.952156
0.949852
0.945293
0.945296
0.947707
0.950024
0.951095
0.951009
0.951003
0.950998
0.950993
0.950988
0.950988
0.950501
0.950875
0.874152
0.902893
0.951496
0.953912
0.953905
0.953915
0.953888
0.953888
0.952365
0.952421
0.952441
0.944797
0.928411
0.898714
0.857827
0.821393
0.798612
0.8204
0.814736
0.224932
0.377791
0.604044
0.727789
0.745229
0.762518
0.807414
0.796348
0.683761
0.606006
0.560515
0.546296
0.524574
0.495043
0.438661
0.402829
0.401646
0.41545
0.432295
0.0169717
0.000109506
0.0673594
0.280332
0.377126
0.385921
0.3359
0.259184
0.21706
0.194013
0.187886
0.184532
0.142546
0.0908565
0.059153
0.0377239
0.0371728
0.0625272
0.068279
0.00204553
3.82409e-09
1.05091e-12
0.00389023
0.0217763
0.0122285
0.0058443
0.00585035
0.0059423
0.00592366
0.00593913
0.00594013
0.00662821
0.00559716
0.00558747
0.00715103
0.00749245
0.00680644
0.00677646
0.00443969
0.00287853
-1.66869e-21
8.04006e-21
0.000307783
0.00624093
0.0124372
0.0100027
0.00585003
0.00588667
0.00592843
0.00600544
0.0112666
0.0176313
0.0178021
0.012199
0.0127654
0.0122928
0.00680174
0.0464015
0.0422476
0.00300731
1.50923e-07
0.00030625
0.00634225
0.00770234
0.00392418
0.00581339
0.00587534
0.00593961
0.00722845
0.0255538
0.0263588
0.0264362
0.0263234
0.0129257
0.00746641
0.00927587
0.0575528
0.0575405
0.0134882
1.72241e-07
0.00042263
0.00441095
0.00511031
0.00394846
0.0163053
0.0287035
0.0186658
0.0165594
0.0226117
0.0105278
0.0087246
0.010223
0.00501715
0.00387242
0.00927504
7.88839e-06
7.63624e-06
7.66031e-06
0.000109786
0.000165474
0.000165873
0.000114712
2.11521e-05
3.29891e-05
8.82139e-05
0.00022927
0.000195508
0.000173901
0.00032028
0.00533925
0.00674862
2.0067e-05
2.81785e-05
0.000205553
0.000464825
0.000371598
0.000371524
0.0148593
3.93265e-05
0.000131104
7.3289e-06
6.99096e-06
7.26258e-07
7.25606e-07
7.27235e-07
7.26869e-07
7.3236e-07
1.21366e-06
1.1704e-06
3.62106e-05
7.60244e-05
0.000386988
0.0053485
0.00443106
0.000344941
4.8559e-06
8.1331e-06
0.000951852
0.00201327
0.0019462
0.000183796
0.000203832
0.000228163
0.000183135
8.92022e-05
1.75782e-05
0.000539662
0.00176903
0.00144809
0.000471538
0.000104477
0.000180469
0.000216612
0.000156119
0.000777579
0.00180928
0.000685192
5.87069e-05
4.85572e-06
4.85774e-06
0.000135415
0.00148266
0.00195188
0.000638591
0.000412791
0.00042002
0.000394399
0.000149871
1.86328e-05
0.00267539
0.00399107
0.00399122
0.00137517
5.22644e-05
0.000235883
0.000286266
0.000270125
0.000300017
3.96396e-05
2.90031e-05
4.89215e-05
2.97547e-05
1.64576e-05
1.62992e-05
7.08077e-05
0.000391838
0.000386978
0.000279907
0.000218482
0.000174173
0.00014894
0.00129108
0.00392949
0.00399181
0.00368367
0.000905706
9.02824e-06
6.24659e-05
0.000116962
7.98312e-05
6.67818e-06
3.81465e-06
3.81381e-06
5.17566e-06
1.17516e-05
1.54851e-05
1.14121e-05
1.14448e-05
5.9857e-05
0.000223895
0.000150182
0.000150029
0.000153276
0.00031118
0.000738408
0.00253939
0.00399214
0.00095395
9.85496e-05
6.23519e-06
8.84664e-07
8.98758e-07
8.85273e-07
7.17361e-06
1.35155e-05
1.23889e-05
6.25253e-06
1.71803e-05
4.32192e-05
3.61191e-05
5.07533e-05
4.81053e-05
4.81295e-05
0.000200981
0.000201081
4.23379e-05
1.39322e-05
1.37394e-05
3.55694e-05
0.000251458
0.000115404
0.000124732
7.69076e-05
2.23485e-06
1.00606e-06
8.99589e-07
2.0167e-05
0.000159751
0.000162904
0.000162728
4.33232e-05
1.8932e-06
0.000119321
0.000220801
0.000199357
0.000122899
5.41814e-05
4.90194e-05
6.14559e-05
0.000105342
0.000105581
9.5627e-05
2.38468e-05
4.72568e-08
4.95057e-08
2.39551e-09
4.01525e-07
4.86298e-06
2.27271e-05
0.000104971
0.00016383
0.00011329
3.91704e-05
7.15818e-06
1.87578e-06
2.01526e-05
7.76225e-05
0.000489058
0.000581217
-2.93886e-28
-7.70534e-26
-1.88756e-10
-2.34479e-12
1.75882e-07
4.36999e-08
6.18785e-06
6.16258e-06
7.77142e-07
3.09317e-09
9.73869e-08
6.0418e-07
1.97451e-06
3.47157e-06
1.89068e-05
1.31861e-05
1.18344e-05
1.22346e-05
1.22608e-05
2.82971e-06
8.70646e-07
0.000187798
0.000561022
-1.74119e-27
5.73413e-08
7.73346e-07
8.13819e-07
6.0777e-07
5.14906e-08
2.8109e-08
2.82165e-08
8.37439e-08
9.39242e-08
3.75934e-08
2.83298e-08
2.85722e-08
5.34681e-07
1.5692e-06
6.12119e-07
5.82274e-07
2.0046e-06
2.97399e-06
2.64301e-06
5.19996e-07
5.10379e-07
1.5605e-05
2.34104e-09
1.84279e-09
1.85884e-07
7.1744e-07
7.39379e-07
3.55958e-07
3.20885e-08
2.83403e-08
3.00984e-08
2.85716e-08
2.99911e-08
3.71596e-08
9.85957e-07
1.35331e-06
1.42621e-06
1.25219e-06
2.59279e-07
1.02235e-07
3.81067e-07
5.94831e-07
5.93326e-07
5.59227e-07
2.39499e-08
3.36907e-09
1.84276e-09
1.63237e-09
1.59462e-09
1.77272e-09
2.72213e-08
3.13804e-08
6.25287e-08
7.50182e-08
3.69674e-08
2.59438e-07
1.29016e-06
1.3132e-06
1.34223e-06
7.8447e-07
1.25514e-07
9.88109e-08
9.88084e-08
1.0684e-07
1.66067e-07
4.09628e-07
5.86235e-07
5.65513e-07
2.57144e-09
1.92203e-09
1.66834e-09
2.39073e-09
3.34058e-09
2.48609e-08
2.49957e-08
2.52517e-08
3.8004e-07
4.44888e-07
3.33843e-07
2.94257e-07
2.95506e-07
7.08345e-07
8.3082e-07
8.31058e-07
8.19404e-07
2.44224e-07
9.15265e-08
9.17879e-08
9.25386e-08
2.74347e-07
3.13477e-07
2.0211e-09
1.64733e-09
3.18105e-09
9.42227e-09
2.53621e-08
5.19823e-08
5.85826e-08
4.79196e-08
1.16596e-07
1.66724e-07
4.58905e-07
3.9945e-07
1.09893e-06
1.09565e-06
5.83217e-07
6.87833e-07
5.55351e-07
5.56785e-07
4.76739e-07
1.09658e-07
2.14434e-08
2.26444e-08
2.61907e-08
1.87558e-09
1.41358e-09
3.63945e-09
1.45509e-08
3.13921e-08
2.88418e-08
1.56383e-07
3.71189e-07
7.00806e-07
1.16281e-06
1.1633e-06
6.0181e-07
6.22721e-08
6.46221e-08
8.39038e-07
2.49265e-06
2.82105e-06
1.68652e-06
1.62188e-06
2.33521e-06
2.34117e-06
2.14085e-06
6.85153e-07
1.7943e-09
1.25899e-09
2.45277e-09
9.11138e-09
2.26199e-08
2.48188e-08
3.45011e-07
8.48818e-07
8.47191e-07
3.78293e-07
1.14931e-08
2.86332e-08
1.3821e-07
2.08686e-07
2.65637e-06
4.53281e-06
4.52913e-06
4.2332e-06
3.58288e-06
1.34996e-06
5.72861e-07
1.11713e-06
5.1204e-07
1.72645e-09
1.06837e-09
1.41698e-09
1.27857e-09
8.04542e-09
6.11462e-08
5.67268e-08
3.67648e-09
4.10887e-09
4.09018e-09
4.59964e-09
1.09528e-08
1.37137e-08
1.09255e-08
7.86021e-07
2.48701e-06
1.71896e-06
4.64501e-09
1.03399e-08
2.70092e-08
1.44799e-08
8.94994e-09
7.53114e-08
1.68254e-09
7.43563e-10
9.6356e-10
1.28873e-09
1.28508e-09
1.30337e-09
1.28376e-09
1.31911e-09
4.89374e-09
8.53235e-09
1.02267e-08
9.97586e-09
9.71898e-09
1.09101e-08
1.04525e-09
1.0515e-09
1.25869e-09
4.73821e-09
1.00795e-08
1.13713e-08
6.18035e-09
1.6066e-09
1.2466e-09
1.70676e-09
5.7448e-10
8.62341e-10
1.6994e-09
2.39384e-09
2.64823e-09
3.83954e-09
6.14795e-09
1.25613e-08
1.31351e-08
1.25976e-08
7.67428e-09
1.11302e-09
1.10931e-09
1.0482e-09
1.04696e-09
1.05595e-09
1.65677e-09
2.80851e-09
3.00112e-09
2.65952e-09
1.73785e-09
1.24134e-09
1.76377e-09
4.50695e-10
6.75828e-10
1.58754e-09
2.62534e-09
3.35773e-09
3.88861e-09
4.15036e-09
4.71163e-09
8.14333e-09
9.31253e-09
4.97892e-09
3.14143e-09
1.7608e-09
1.14701e-09
1.04998e-09
1.18586e-09
1.31111e-09
1.29903e-09
1.22018e-09
1.00263e-09
7.23442e-10
7.03413e-10
1.86944e-09
3.71108e-10
3.85825e-10
8.61017e-10
1.20493e-09
1.27506e-09
1.65316e-09
1.94406e-09
1.86461e-09
1.60116e-09
1.72011e-09
2.3206e-09
2.11032e-09
1.56947e-09
1.03936e-09
6.40527e-10
4.79643e-10
4.92752e-10
5.48954e-10
5.20447e-10
4.05853e-10
3.38386e-10
2.91384e-10
1.98478e-09
3.07106e-10
2.03313e-10
3.33164e-10
4.17064e-10
4.48354e-10
4.2198e-10
5.14998e-10
6.64408e-10
6.8386e-10
7.08266e-10
8.32359e-10
8.3924e-10
7.08985e-10
5.34192e-10
3.49432e-10
2.31038e-10
1.8817e-10
1.85181e-10
2.00667e-10
1.73975e-10
1.23938e-10
1.14773e-10
2.15257e-09
2.84959e-10
1.25419e-10
1.54827e-10
1.69893e-10
1.81973e-10
1.86802e-10
1.72036e-10
1.93315e-10
2.43283e-10
3.14471e-10
3.53386e-10
3.31144e-10
2.77687e-10
2.15465e-10
1.52484e-10
9.76159e-11
7.22794e-11
7.0986e-11
7.24054e-11
6.45463e-11
5.21944e-11
4.94622e-11
2.28424e-09
3.44454e-10
8.18071e-11
6.5975e-11
6.33396e-11
6.28081e-11
6.53018e-11
7.74426e-11
8.15266e-11
8.83602e-11
9.56359e-11
9.81553e-11
9.70048e-11
8.75427e-11
7.22437e-11
5.07801e-11
3.18709e-11
2.38069e-11
2.25591e-11
2.34121e-11
2.35227e-11
2.17436e-11
2.15989e-11
2.39888e-09
3.94202e-10
4.87625e-11
3.08106e-11
2.0334e-11
1.7463e-11
1.74168e-11
1.93135e-11
2.2526e-11
2.43667e-11
2.50204e-11
2.4793e-11
2.44932e-11
2.34326e-11
1.8984e-11
1.31134e-11
8.81871e-12
7.29482e-12
7.20533e-12
7.51406e-12
7.84448e-12
8.46563e-12
9.0469e-12
2.48747e-09
5.38535e-10
4.64085e-11
2.51235e-11
1.53105e-11
1.2155e-11
1.05694e-11
8.87035e-12
6.62329e-12
5.15305e-12
4.84846e-12
5.25003e-12
5.07416e-12
4.82137e-12
4.34936e-12
2.9295e-12
2.20573e-12
2.00276e-12
2.02819e-12
2.26252e-12
2.56466e-12
2.94436e-12
3.54766e-12
2.67119e-09
7.19302e-10
5.03787e-11
2.54101e-11
1.70649e-11
1.51066e-11
1.36803e-11
1.20862e-11
7.42571e-12
4.63248e-12
2.91967e-12
1.75525e-12
1.12972e-12
9.45138e-13
8.01533e-13
6.75288e-13
5.08253e-13
4.94012e-13
5.25996e-13
6.2863e-13
7.44782e-13
1.00992e-12
1.26959e-12
2.68006e-09
9.67169e-10
9.57297e-11
3.02808e-11
2.36149e-11
2.44759e-11
2.52998e-11
2.27792e-11
1.20856e-11
8.47927e-12
5.22802e-12
2.65166e-12
1.14883e-12
4.87028e-13
2.16566e-13
1.36738e-13
1.1168e-13
1.05639e-13
1.19038e-13
1.56238e-13
2.0733e-13
2.93854e-13
4.24088e-13
2.73566e-09
1.12934e-09
1.43947e-10
4.72283e-11
5.48873e-11
7.0513e-11
7.69066e-11
5.43759e-11
3.87098e-11
1.6379e-11
1.07381e-11
5.40308e-12
2.27387e-12
8.80876e-13
2.72768e-13
7.68659e-14
2.85665e-14
2.05659e-14
2.32196e-14
3.31392e-14
5.14363e-14
8.55276e-14
1.28273e-13
2.73347e-09
1.39764e-09
2.3667e-10
9.62187e-11
1.55853e-10
2.25523e-10
2.39478e-10
1.62218e-10
9.87049e-11
4.81088e-11
2.09649e-11
1.0336e-11
4.36136e-12
1.75213e-12
5.53083e-13
1.41883e-13
3.23448e-14
7.99417e-15
4.59905e-15
6.35737e-15
1.07314e-14
2.17392e-14
3.8199e-14
2.67742e-09
1.69618e-09
4.50555e-10
2.063e-10
3.76386e-10
6.38658e-10
6.88866e-10
3.74501e-10
1.90617e-10
9.35204e-11
3.67931e-11
1.79669e-11
7.53225e-12
3.0847e-12
1.02092e-12
2.85641e-13
6.68967e-14
1.27377e-14
2.41277e-15
1.32399e-15
2.36966e-15
5.17143e-15
1.03599e-14
2.43413e-09
2.04886e-09
6.68835e-10
3.54274e-10
6.83618e-10
1.10322e-09
1.193e-09
8.00764e-10
3.63483e-10
1.37044e-10
5.84779e-11
2.75648e-11
1.17353e-11
4.73366e-12
1.67752e-12
4.91174e-13
1.24245e-13
2.53945e-14
4.04591e-15
6.44528e-16
4.29603e-16
1.21067e-15
2.81356e-15
2.03436e-09
1.91273e-09
1.00288e-09
4.87182e-10
7.89867e-10
1.31649e-09
1.41835e-09
1.20884e-09
5.61896e-10
2.18663e-10
8.6982e-11
3.93859e-11
1.80233e-11
6.62366e-12
2.40507e-12
7.96121e-13
2.18459e-13
4.54893e-14
8.301e-15
1.13749e-15
2.19995e-16
2.73508e-16
8.44129e-16
1.61432e-09
1.39658e-09
9.90439e-10
5.54852e-10
7.56757e-10
1.40132e-09
1.7625e-09
1.40425e-09
6.62745e-10
2.57803e-10
1.0585e-10
4.48102e-11
2.0049e-11
8.04983e-12
3.00183e-12
1.00794e-12
3.03541e-13
7.60556e-14
1.43847e-14
2.16411e-15
3.11937e-16
9.12174e-17
2.24815e-16
1.4342e-09
8.04197e-10
6.48791e-10
5.16161e-10
7.20646e-10
1.56449e-09
2.04175e-09
1.62711e-09
7.03157e-10
2.70031e-10
1.13176e-10
4.66719e-11
2.02546e-11
8.14255e-12
3.0424e-12
1.08118e-12
3.51037e-13
9.54682e-14
2.03107e-14
3.33843e-15
5.00735e-16
5.22218e-17
7.15313e-17
1.50236e-09
4.48291e-10
3.81391e-10
4.108e-10
7.54866e-10
1.63771e-09
2.06185e-09
1.59812e-09
5.7291e-10
2.42296e-10
1.03259e-10
4.31587e-11
1.88744e-11
7.47319e-12
2.73489e-12
9.56893e-13
3.24173e-13
9.67961e-14
2.33218e-14
4.23296e-15
6.19671e-16
5.69946e-17
1.89227e-17
2.39475e-09
4.25269e-10
3.40376e-10
4.79274e-10
8.82907e-10
1.67204e-09
2.01917e-09
9.99105e-10
3.06708e-10
1.84864e-10
7.96095e-11
3.4341e-11
1.54938e-11
6.0641e-12
2.09444e-12
6.96897e-13
2.35366e-13
7.35866e-14
1.98383e-14
4.04572e-15
6.58603e-16
5.55356e-17
7.48922e-18
4.02272e-09
9.77562e-10
4.85187e-10
7.69263e-10
1.02509e-09
1.43196e-09
1.33764e-09
5.71195e-10
1.91028e-10
1.08412e-10
5.13477e-11
2.29987e-11
1.08122e-11
4.19571e-12
1.3529e-12
4.07611e-13
1.25641e-13
3.96531e-14
1.12715e-14
2.67391e-15
4.59209e-16
5.38693e-17
3.7292e-18
6.16498e-09
2.45533e-09
1.04623e-09
1.05034e-09
1.00284e-09
8.92213e-10
6.64669e-10
2.51289e-10
8.02005e-11
5.0109e-11
2.62517e-11
1.2546e-11
6.17727e-12
2.39667e-12
7.09961e-13
1.83598e-13
4.81746e-14
1.31948e-14
3.92018e-15
1.09911e-15
2.36832e-16
2.4616e-17
2.31839e-18
6.24448e-09
3.85203e-09
1.58057e-09
9.24487e-10
5.2154e-10
3.36192e-10
1.93538e-10
7.16421e-11
1.9688e-11
1.62105e-11
1.02003e-11
5.2501e-12
2.72314e-12
1.06074e-12
2.97116e-13
6.4328e-14
1.271e-14
2.66137e-15
7.39373e-16
2.76124e-16
6.40091e-17
1.00843e-17
1.4097e-18
5.30537e-09
2.46114e-09
8.01165e-10
2.59746e-10
1.03957e-10
6.06334e-11
2.8953e-11
9.06088e-12
3.49029e-12
3.29472e-12
2.7573e-12
1.44273e-12
8.24121e-13
3.22519e-13
8.53935e-14
1.53395e-14
2.11586e-15
2.71104e-16
7.25133e-17
4.23409e-17
1.22765e-17
3.21016e-18
6.79098e-19
1.01192e-09
3.32963e-10
4.95473e-11
2.12269e-11
1.10918e-11
5.52728e-12
2.30793e-12
6.9802e-13
2.53606e-13
2.49281e-13
3.39028e-13
1.99867e-13
1.24809e-13
4.92128e-14
1.17042e-14
1.69304e-15
1.51558e-16
1.0866e-17
3.48496e-18
4.06122e-18
2.32638e-18
8.13762e-19
2.60669e-19
0.0452922
0.047496
0.0472151
0.0473079
3.02592e-06
5.41462e-05
1.01336e-05
2.36637e-05
3.07655e-06
6.24994e-05
0.00025016
0.00193555
3.03461e-06
0.000105424
0.000311142
0.000416121
0.000200939
0.000112269
0.000164615
0.000146933
7.60044e-05
6.01921e-06
0.000723501
0.00136132
1.49102e-05
6.03162e-06
6.21942e-06
0.00068293
0.000582589
0.00040402
2.51024e-05
2.51793e-06
0.000581308
0.000582456
0.000343749
1.58397e-06
7.24442e-05
0.000542561
0.000559641
0.000370283
3.79378e-08
2.8114e-08
7.64592e-05
0.000319279
5.41975e-07
6.88089e-08
1.60094e-08
1.2823e-05
1.80926e-07
1.6814e-08
1.61378e-08
1.08217e-06
2.23968e-08
1.61696e-08
1.60745e-08
4.68152e-08
1.61596e-08
1.59853e-08
1.00981e-07
4.73665e-07
6.90022e-08
2.67106e-07
8.22158e-07
9.40239e-07
9.59805e-08
1.85708e-07
1.81186e-07
1.90861e-07
8.06894e-09
4.78595e-09
2.58387e-09
1.00198e-09
1.2101e-09
1.73805e-09
1.80391e-09
1.45065e-09
7.64003e-10
8.2894e-10
8.98566e-10
8.60659e-10
3.27267e-10
3.71221e-10
3.73289e-10
3.92093e-10
1.21827e-10
1.28816e-10
1.55359e-10
1.62561e-10
5.44968e-11
5.87421e-11
6.34281e-11
6.78706e-11
2.27102e-11
2.44055e-11
2.83895e-11
2.98927e-11
1.03465e-11
1.1558e-11
1.24894e-11
1.35404e-11
4.15919e-12
4.61632e-12
5.52135e-12
6.13503e-12
1.65131e-12
1.938e-12
2.23594e-12
2.48027e-12
5.67243e-13
7.15165e-13
8.66895e-13
1.01839e-12
1.98015e-13
2.54956e-13
3.17691e-13
3.80096e-13
6.08648e-14
8.70873e-14
1.1473e-13
1.46254e-13
2.02642e-14
2.82801e-14
4.37663e-14
5.76612e-14
5.7963e-15
1.09204e-14
1.65817e-14
2.59472e-14
2.14201e-15
3.76257e-15
7.46922e-15
1.13112e-14
7.2696e-16
1.51323e-15
2.65758e-15
5.64174e-15
2.26293e-16
4.49623e-16
1.11447e-15
1.71744e-15
7.43733e-17
1.5809e-16
3.17931e-16
8.14994e-16
1.73436e-17
3.99993e-17
1.12302e-16
1.88963e-16
3.83376e-18
9.86504e-18
2.19695e-17
6.5372e-17
6.18148e-19
1.615e-18
5.21087e-18
9.51549e-18
1.27923e-19
2.78277e-19
6.70588e-19
2.4381e-18
3.70966e-20
3.79572e-20
1.23403e-19
3.94719e-19
1.91089e-20
5.98196e-21
1.69959e-20
5.45805e-20
0.0439591
0.0159823
0.00571785
1.83591e-07
0.00139751
0.00524785
0.00570096
0.00703691
0.0133345
0.0294181
0.0293832
0.0259674
0.0170556
0.00539802
0.00551866
0.00904045
0.00959839
0.00387031
0.00452719
0.000736623
0.00210035
0.00167676
1.78353e-06
0.000827746
0.0040718
0.00335386
0.00239689
0.00508587
0.00597761
0.0134502
0.0183208
0.00737039
0.00748792
0.0158544
0.0158019
0.0157364
0.00725637
0.00530149
0.00555093
0.00654371
0.00585866
0.000846485
0.000409616
0.000377552
0.000411182
0.0012391
0.00351284
0.00722852
0.00792541
0.00766967
0.0042581
0.00234825
0.00705814
0.00856862
0.00853154
0.0147827
0.0147827
0.00131193
0.00522761
0.00770539
0.00770454
0.00376806
0.00037614
0.00176322
0.00926686
0.0101298
0.00720253
0.012557
0.00154376
0.00154257
0.00160886
0.00153903
0.00153823
0.00154399
0.0101039
0.0147827
0.000146447
0.000453157
0.00222557
0.00589732
0.0070724
0.00579348
0.00472427
0.00660037
0.010429
0.012958
0.0129153
0.00367467
0.00154157
0.00154121
0.00165419
0.0015387
0.0015391
0.00153956
0.0129034
0.00099301
9.7668e-05
9.59687e-05
0.000197699
0.00160987
0.00258814
0.00245453
0.00130415
0.00308372
0.00348759
0.00389498
0.00649605
0.00320136
0.00154006
0.00153937
0.00153833
0.00154465
0.0015403
0.00785903
0.00306866
0.00214371
0.000307631
5.08616e-05
5.22203e-05
6.23583e-05
1.65067e-05
3.01645e-06
3.31148e-06
3.06007e-06
3.33695e-06
0.000932106
0.00319486
0.00326529
0.00339947
0.00479802
0.00168471
0.00187652
0.0127859
0.00452494
0.00553714
0.00443737
0.0015225
5.35572e-05
1.79497e-05
1.74889e-05
2.20465e-05
1.94827e-05
8.15606e-06
8.73417e-06
1.00854e-05
0.000526106
0.00321176
0.00643928
0.0100928
0.00699232
0.00224504
0.0127932
0.00360887
0.00554353
0.00553713
0.00547896
0.00397619
0.000496669
6.39831e-06
6.51835e-06
3.34359e-06
0.00026387
0.0011595
0.000584892
0.00068943
0.000665532
0.00445061
0.0182722
0.00844692
0.00220529
0.0127125
0.000654654
0.00161157
0.00217303
0.00192885
0.00238732
0.00238837
0.00111164
3.20417e-06
2.67945e-06
0.00068675
0.00404526
0.00403069
0.00177429
0.000702211
0.0100931
0.0182752
0.00834199
0.00232356
0.0125462
3.83464e-05
1.81574e-06
8.22802e-05
9.70891e-05
0.000114977
0.000325164
0.000528973
0.000198021
4.7813e-05
0.001066
0.00390074
0.00318768
0.00253381
0.0118582
0.0182749
0.018272
0.0143711
0.00459179
0.00191618
7.88673e-06
8.22253e-07
5.022e-07
6.11815e-06
1.44064e-05
3.06133e-06
3.67253e-05
0.000187922
9.30122e-05
0.000330294
0.000203634
0.00375707
0.0139075
0.0140825
0.0132144
0.0117621
0.0130268
0.00694904
8.55133e-06
8.82411e-07
4.43077e-07
4.45509e-07
3.81003e-06
4.73008e-06
1.64258e-06
1.26114e-07
6.02171e-05
4.09836e-05
4.81438e-06
9.78695e-05
0.000786374
0.000286893
1.99603e-07
2.19941e-07
2.34638e-07
1.51796e-07
0.0014381
8.4355e-06
3.66227e-07
6.85788e-07
1.094e-06
1.18952e-06
7.93457e-07
2.20679e-07
1.26169e-07
1.26111e-07
2.8073e-06
4.83238e-06
9.30084e-06
2.22429e-05
0.000173137
4.39515e-07
5.578e-07
2.13679e-07
2.2143e-07
3.46893e-07
6.73864e-06
1.07131e-06
1.07326e-06
9.91469e-07
6.11273e-07
5.42196e-07
2.78785e-07
1.28237e-07
1.26162e-07
2.96851e-06
5.42785e-06
8.84284e-06
4.65267e-06
4.25891e-06
4.19928e-06
3.87947e-06
1.16015e-06
2.58981e-07
1.69904e-07
1.67999e-07
6.62408e-07
3.36187e-07
3.03002e-07
9.78753e-08
2.7918e-07
1.18193e-06
2.25633e-06
2.1046e-06
2.8489e-06
1.07995e-05
2.10124e-05
2.10514e-05
1.00188e-05
1.24571e-05
1.78285e-05
9.7276e-06
5.85617e-07
1.86817e-07
1.72721e-07
1.1358e-08
9.4426e-10
8.99588e-10
1.00915e-09
1.72393e-07
8.51764e-07
1.88205e-06
2.58896e-06
3.55519e-06
1.02553e-05
1.41603e-05
7.709e-06
2.04965e-05
2.36317e-05
2.3638e-05
1.89851e-05
1.04573e-06
1.90433e-07
1.89102e-07
9.54023e-10
9.20221e-10
9.00391e-10
2.00847e-09
3.19931e-08
5.32282e-08
8.60513e-08
3.06607e-07
9.55635e-07
1.35575e-06
1.71635e-06
4.46775e-07
3.12171e-06
1.40607e-05
1.72118e-05
6.90545e-06
5.83858e-07
2.89401e-07
2.39733e-07
1.21724e-09
1.02475e-09
9.13516e-10
1.48336e-09
6.3332e-09
1.17562e-09
2.50131e-11
2.66469e-11
2.50139e-11
2.63343e-11
2.50387e-11
2.59272e-11
1.4784e-10
1.0568e-06
3.19763e-06
1.79694e-06
6.28087e-07
3.25163e-06
2.12596e-06
8.38263e-10
7.72399e-10
6.76888e-10
6.00693e-10
3.86585e-10
2.52478e-10
1.98533e-10
1.58922e-10
1.28612e-10
1.40691e-10
6.75123e-11
2.4623e-11
3.10528e-06
1.03186e-05
8.89248e-06
1.52111e-06
1.15123e-06
1.54791e-05
7.33469e-06
3.95911e-10
3.9497e-10
3.52937e-10
2.95881e-10
2.55975e-10
2.92713e-10
3.02301e-10
3.09671e-10
3.76475e-10
5.61796e-10
7.45351e-11
2.53331e-11
5.26898e-06
1.02013e-05
1.43728e-05
9.51134e-06
1.43907e-05
1.58373e-05
7.7545e-06
1.68865e-10
1.71256e-10
1.47425e-10
1.34338e-10
1.3788e-10
1.93442e-10
3.11095e-10
4.83432e-10
6.38685e-10
6.70053e-10
5.75964e-10
5.26188e-08
3.73819e-07
5.06453e-06
1.44054e-05
1.58229e-05
1.58459e-05
1.58496e-05
5.74379e-06
7.16137e-11
7.38175e-11
6.96138e-11
6.47994e-11
8.2657e-11
1.36162e-10
2.58567e-10
4.94971e-10
7.10729e-10
9.66868e-10
2.75021e-09
4.96324e-08
5.75719e-08
1.25872e-07
2.96999e-06
9.18481e-06
9.03554e-06
1.07348e-05
3.0731e-06
3.12964e-11
3.5146e-11
3.82125e-11
4.12318e-11
6.14743e-11
1.13584e-10
2.1071e-10
4.18821e-10
6.55764e-10
1.09021e-09
3.25278e-09
9.40807e-09
1.48335e-08
9.02528e-09
8.92747e-09
6.89482e-08
2.6994e-08
7.61206e-07
3.07561e-06
1.43978e-11
1.7243e-11
2.08766e-11
2.64853e-11
3.96455e-11
7.99408e-11
1.5323e-10
2.92855e-10
5.01163e-10
8.73361e-10
2.28844e-09
5.79627e-09
1.61492e-08
2.11223e-08
1.02641e-08
9.84088e-09
9.83289e-09
9.83247e-09
6.68866e-06
6.73491e-12
8.31222e-12
1.07169e-11
1.4903e-11
2.39662e-11
4.456e-11
9.30869e-11
1.72575e-10
3.09616e-10
5.30679e-10
1.12748e-09
2.97684e-09
7.62135e-09
2.05489e-08
5.06893e-08
1.60039e-08
1.32924e-08
3.04318e-08
8.71199e-06
2.81988e-12
3.77695e-12
5.06949e-12
7.47447e-12
1.2539e-11
2.31864e-11
4.8317e-11
9.30964e-11
1.68138e-10
2.76591e-10
4.64704e-10
9.29582e-10
9.8397e-10
9.29374e-09
7.29708e-08
1.29134e-07
1.34211e-07
3.0528e-08
8.71283e-06
1.18136e-12
1.63993e-12
2.30873e-12
3.54172e-12
6.06039e-12
1.11315e-11
2.24563e-11
4.5412e-11
8.55328e-11
1.44428e-10
2.18352e-10
3.17301e-10
3.15052e-10
9.80175e-10
4.60278e-08
2.15355e-07
2.3492e-07
1.89931e-07
3.8986e-06
4.63343e-13
6.93545e-13
1.03783e-12
1.65466e-12
2.84549e-12
5.33038e-12
1.05464e-11
2.20905e-11
4.10955e-11
7.61071e-11
1.2255e-10
1.74383e-10
2.53801e-10
4.83662e-10
1.03154e-08
1.03063e-07
2.34898e-07
2.43341e-07
9.31237e-08
1.85141e-13
2.99989e-13
4.9519e-13
8.47557e-13
1.50133e-12
2.79313e-12
5.34989e-12
1.05402e-11
2.13819e-11
4.02733e-11
7.40093e-11
1.17456e-10
1.94864e-10
3.41974e-10
3.47876e-10
3.68257e-09
8.89472e-08
1.96656e-07
9.29056e-08
7.85853e-14
1.44582e-13
2.7294e-13
5.00579e-13
9.52195e-13
1.74703e-12
3.3098e-12
6.0847e-12
1.15961e-11
2.13485e-11
3.56638e-11
6.8014e-11
1.26526e-10
2.18111e-10
3.36776e-10
8.84583e-10
7.38104e-09
3.17837e-08
4.60988e-08
3.75573e-14
7.81534e-14
1.67192e-13
3.3754e-13
6.88679e-13
1.32061e-12
2.47112e-12
4.52811e-12
7.90293e-12
1.31387e-11
2.12991e-11
3.8333e-11
7.92552e-11
1.55136e-10
3.12478e-10
8.95228e-10
3.22566e-09
2.63664e-09
9.41945e-09
1.86876e-14
4.46079e-14
1.01257e-13
2.27672e-13
4.91309e-13
1.04174e-12
2.03909e-12
3.83957e-12
6.91592e-12
1.22876e-11
2.09652e-11
3.43401e-11
6.19666e-11
1.40622e-10
2.89859e-10
7.65914e-10
1.50957e-09
1.53023e-09
1.5348e-09
9.05154e-15
2.3821e-14
5.88277e-14
1.39959e-13
3.35588e-13
7.47525e-13
1.58358e-12
3.20067e-12
6.37805e-12
1.16324e-11
2.14764e-11
3.70833e-11
6.31199e-11
1.50188e-10
2.97361e-10
6.69016e-10
1.31628e-09
1.6751e-09
1.53857e-09
4.10445e-15
1.1275e-14
2.97478e-14
7.66882e-14
1.99494e-13
4.75147e-13
1.1139e-12
2.50119e-12
5.19871e-12
1.04232e-11
2.00572e-11
3.95646e-11
7.92956e-11
1.73297e-10
3.22432e-10
6.46253e-10
1.29088e-09
1.73686e-09
1.51918e-09
1.51022e-15
4.58558e-15
1.3233e-14
3.6356e-14
9.91119e-14
2.66555e-13
6.64472e-13
1.66375e-12
3.84925e-12
8.33168e-12
1.70831e-11
3.58305e-11
8.02683e-11
1.8558e-10
3.62695e-10
6.55405e-10
1.24167e-09
1.71549e-09
1.30659e-09
4.96415e-16
1.58272e-15
4.91551e-15
1.43874e-14
4.29308e-14
1.24053e-13
3.51835e-13
9.4406e-13
2.4401e-12
5.89978e-12
1.3073e-11
2.95555e-11
6.76893e-11
1.66653e-10
3.65667e-10
6.63679e-10
1.14223e-09
1.57573e-09
9.30663e-10
1.32481e-16
4.67556e-16
1.53738e-15
4.89137e-15
1.56033e-14
4.91951e-14
1.53497e-13
4.67011e-13
1.32255e-12
3.48874e-12
8.54965e-12
2.03551e-11
4.71641e-11
1.23764e-10
3.14935e-10
6.34645e-10
9.82548e-10
1.22425e-09
7.67768e-10
3.25934e-17
1.18988e-16
4.0804e-16
1.38942e-15
4.73693e-15
1.71233e-14
5.84224e-14
1.97527e-13
6.40896e-13
1.84615e-12
5.20892e-12
1.32641e-11
3.22863e-11
7.9275e-11
2.09973e-10
4.89443e-10
7.97062e-10
9.24222e-10
5.31937e-10
6.0812e-18
2.40794e-17
8.83001e-17
3.22467e-16
1.22833e-15
4.6749e-15
1.84758e-14
6.98139e-14
2.5331e-13
8.31921e-13
2.54645e-12
7.07288e-12
1.84105e-11
4.47955e-11
1.14343e-10
2.80828e-10
5.36362e-10
6.51248e-10
3.10889e-10
9.95339e-19
4.12738e-18
1.58401e-17
6.22264e-17
2.63347e-16
1.15649e-15
5.09657e-15
2.18374e-14
8.81512e-14
3.25751e-13
1.09562e-12
3.33723e-12
9.17972e-12
2.29624e-11
5.3795e-11
1.30418e-10
2.82452e-10
3.73148e-10
1.80693e-10
1.42972e-19
6.34028e-19
2.59419e-18
1.08124e-17
4.97265e-17
2.44143e-16
1.20014e-15
5.85569e-15
2.67645e-14
1.10726e-13
4.15482e-13
1.38053e-12
4.13765e-12
1.10349e-11
2.62651e-11
5.71099e-11
1.12168e-10
1.5062e-10
6.82794e-11
)
;

boundaryField
{
    leftWall
    {
        type            zeroGradient;
    }
    rightWall
    {
        type            zeroGradient;
    }
    lowerWall
    {
        type            zeroGradient;
    }
    atmosphere
    {
        type            inletOutlet;
        inletValue      uniform 0;
        value           nonuniform List<scalar> 
46
(
1.01192e-09
3.32963e-10
4.95473e-11
0
0
0
0
0
0
0
0
0
0
0
0
0
0
0
0
0
2.32638e-18
8.13762e-19
2.60669e-19
1.91089e-20
5.98196e-21
1.69959e-20
5.45805e-20
1.42972e-19
6.34028e-19
2.59419e-18
1.08124e-17
4.97265e-17
2.44143e-16
1.20014e-15
5.85569e-15
2.67645e-14
1.10726e-13
4.15482e-13
1.38053e-12
4.13765e-12
1.10349e-11
2.62651e-11
5.71099e-11
1.12168e-10
1.5062e-10
6.82794e-11
)
;
    }
    defaultFaces
    {
        type            empty;
    }
}


// ************************************************************************* //
