/*--------------------------------*- C++ -*----------------------------------*\
| =========                 |                                                 |
| \\      /  F ield         | OpenFOAM: The Open Source CFD Toolbox           |
|  \\    /   O peration     | Version:  2312                                  |
|   \\  /    A nd           | Website:  www.openfoam.com                      |
|    \\/     M anipulation  |                                                 |
\*---------------------------------------------------------------------------*/
FoamFile
{
    version     2.0;
    format      ascii;
    arch        "LSB;label=32;scalar=64";
    class       volScalarField;
    location    "3";
    object      p;
}
// * * * * * * * * * * * * * * * * * * * * * * * * * * * * * * * * * * * * * //

dimensions      [1 -1 -2 0 0 0 0];

internalField   nonuniform List<scalar> 
2268
(
5616.62
5618.97
5622.29
5621.16
5610.62
5586.23
5546.16
5491.61
5426.34
5354.43
5279.19
5202.12
5124
5045.11
4965.79
4887.11
4810.96
4740.09
4677.59
4624.87
4582.12
4550.69
4532.54
4819.02
4820.72
4824.98
4825.35
4816.35
4792.93
4752.97
4697.72
4631.14
4557.99
4481.98
4404.59
4326.55
4247.89
4168.67
4089.84
4013.29
3941.92
3879.14
3826.23
3783.1
3750.79
3731.78
4019.63
4020.28
4026.1
4029.41
4023.57
4002.23
3962.57
3905.8
3836.76
3761.21
3683.78
3605.84
3528.05
3449.91
3370.86
3291.69
3214.28
3141.89
3078.65
3025.61
2981.81
2947.83
2927.08
3215.47
3216.09
3225.03
3233.18
3232.41
3214.36
3175.27
3116.09
3043.12
2963.84
2884.32
2805.57
2728.34
2651.16
2572.43
2492.71
2413.92
2340.04
2276.37
2223.29
2178.44
2141.65
2117.8
2404.89
2407.05
2421.17
2436.66
2443.26
2429.85
2391.63
2330.85
2249.97
2165.15
2082.87
2003.24
1927.45
1852.08
1773.71
1692.92
1611.96
1538.6
1478.5
1429.87
1388.31
1353.59
1330.73
1585.56
1591.72
1612.31
1638.18
1655.64
1648.91
1611.74
1543.77
1457.76
1370.45
1294.5
1227.33
1169.22
1114.64
1060.45
1004.82
953.815
917.116
891.336
874.005
861.483
853.322
846.783
919.164
922.693
934.252
950.5
962.8
958.601
933.666
893.409
842.745
801.469
770.552
746.545
727.46
710.521
696.137
680.851
675.263
677.748
681.086
687.163
696.002
706.724
705.484
639.288
635.787
630.494
621.441
610.747
599.818
589.718
586.246
590.07
596.734
602.757
609.261
613.566
615.985
618.271
614.802
613.753
616.641
621.661
627.889
636.339
645.759
640.424
2484.32
2584.9
2766.73
2931.42
3039.92
3089.54
3093.66
3050.76
2968.62
2905.12
2866.32
2840.28
2806.44
2755.18
2687.2
2627.12
2590.75
2607.87
2617.09
1725.24
1829.63
2011.8
2184.5
2289.13
2335.57
2340.86
2294.87
2206.32
2141.4
2104.72
2086.74
2059.87
2015.89
1956.6
1906.07
1882.34
1896.67
1911.51
1232.79
1273.57
1382.21
1533.78
1625.05
1657.93
1647.75
1598.38
1541.65
1505.44
1491.59
1490.2
1478.21
1454.24
1423.11
1396.98
1385.52
1393.29
1406.73
1080.82
1077.66
1081.28
1130.4
1179.88
1200.32
1192
1164.84
1156.34
1158.92
1166.68
1178.1
1191.58
1192.92
1189.66
1183.93
1175.65
1172.16
1179.77
1020.7
1019.47
1003.37
988.114
993.946
1011.11
1019.93
1020.78
1029.67
1040.44
1049.93
1062.98
1088.06
1105.6
1112.27
1111.13
1104.03
1096.47
1106.39
966.089
959.562
947.146
943.058
941.801
953.19
958.941
960.04
971.655
990.544
1001.5
1010.55
1028.46
1039.73
1046.1
1045.23
1037.92
1031.13
1049.54
889.51
882.829
881.904
891.769
893.938
894.214
899.671
907.94
925.431
945.557
953.52
955.798
961.353
966.46
971.325
972.84
969.343
967.257
990.026
786.666
776.406
807.446
831.051
839.471
836.431
842.681
855.646
873.845
892.001
899.886
899.203
893.131
895.694
898.845
902.21
906.023
911.455
930.706
536.006
531.735
524.114
512.939
501.11
492.22
489.507
493.003
499.539
505.678
511.777
517.545
521.552
524.166
526.737
524.497
523.389
525.054
528.848
534.28
541.075
547.287
548.96
407.559
404.011
398.411
390.458
381.911
375.197
373.084
375.291
379.319
384.081
389.128
393.777
397.082
398.98
400.026
401.177
401.102
402.491
408.551
415
422.784
431.974
441.832
281.7
278.701
273.993
267.236
260.167
254.766
253.819
257.816
261.238
264.803
269.656
274.723
278.894
282.488
286.477
293.823
300.711
308.548
317.454
326.843
336.689
346.425
356.637
160.873
159.257
157.394
156.111
155.53
155.901
156.422
159.685
162.91
166.349
172.081
178.464
185.235
192.826
201.608
212.012
223.727
236.102
247.764
259.088
270.34
280.966
289.037
71.7231
72.5447
74.3627
76.7132
80.3967
82.4288
83.9349
86.0439
89.5885
94.3444
100.809
107.873
115.708
124.225
133.353
143.581
154.934
167.168
179.451
191.644
203.481
214.519
222.819
19.6992
19.7791
21.3691
24.1463
27.8492
29.5552
32.1522
30.7245
32.4707
36.4318
40.9296
45.8415
51.0628
56.7617
64.2911
73.8051
84.8138
97.1898
110.628
123.957
136.271
147.198
156.367
0.200806
0.141745
0.188961
0.920894
2.20267
3.34381
4.48732
3.6257
3.14285
3.75994
4.75711
5.95804
7.53225
9.52262
12.5169
17.0881
23.4696
31.6597
42.6471
55.3432
67.8223
79.2122
89.6198
-0.846287
-0.893217
-0.97103
-1.01924
-1.02472
-0.937755
-0.882398
-0.991041
-1.11882
-1.14905
-1.12419
-1.08703
-1.05121
-0.992059
-0.915867
-0.610093
0.472163
2.07162
4.83744
9.35416
15.2197
22.1144
30.5738
-1.17029
-1.17677
-1.20072
-1.24676
-1.29164
-1.33045
-1.34776
-1.33861
-1.31359
-1.30493
-1.28935
-1.27035
-1.25619
-1.24437
-1.23767
-1.24241
-1.20762
-1.16972
-1.15224
-1.11797
-0.954876
0.0607306
2.58309
-1.32923
-1.33769
-1.36233
-1.39825
-1.43582
-1.4695
-1.48748
-1.48136
-1.46323
-1.44523
-1.42921
-1.4159
-1.40716
-1.40397
-1.41131
-1.42231
-1.42478
-1.41355
-1.39486
-1.3697
-1.37724
-1.40467
-1.3506
-1.4903
-1.50042
-1.52441
-1.55582
-1.58574
-1.60907
-1.62109
-1.61979
-1.60721
-1.59101
-1.57551
-1.56449
-1.56023
-1.56306
-1.57292
-1.58364
-1.58943
-1.58738
-1.58026
-1.57641
-1.6001
-1.66512
-1.72596
-1.65317
-1.66321
-1.68313
-1.70873
-1.73399
-1.75267
-1.76208
-1.76235
-1.75409
-1.74137
-1.72829
-1.71968
-1.71818
-1.72431
-1.73615
-1.74913
-1.75961
-1.76619
-1.77073
-1.77764
-1.79656
-1.83481
-1.8759
-1.8113
-1.82064
-1.83685
-1.85712
-1.87683
-1.89265
-1.90197
-1.9038
-1.89864
-1.88877
-1.87888
-1.87244
-1.87031
-1.87626
-1.88902
-1.90572
-1.9234
-1.93779
-1.9474
-1.9549
-1.96611
-1.98424
-2.00445
-1.96151
-1.96994
-1.98313
-1.99952
-2.01542
-2.02926
-2.03832
-2.04118
-2.03792
-2.02953
-2.02006
-2.01597
-2.01764
-2.02545
-2.0377
-2.05377
-2.0733
-2.0916
-2.10148
-2.10932
-2.11704
-2.12629
-2.13493
-2.10321
-2.11067
-2.12137
-2.13471
-2.14795
-2.15999
-2.16823
-2.17145
-2.16935
-2.16388
-2.1596
-2.16045
-2.16683
-2.17468
-2.18379
-2.19557
-2.20963
-2.22423
-2.24021
-2.25216
-2.26013
-2.26645
-2.26895
-2.23785
-2.24436
-2.25309
-2.26401
-2.27517
-2.28526
-2.29283
-2.29683
-2.29807
-2.29844
-2.30026
-2.30395
-2.30882
-2.31485
-2.32256
-2.33238
-2.34447
-2.35778
-2.37223
-2.38504
-2.39375
-2.39871
-2.39815
-2.36858
-2.37432
-2.38163
-2.39084
-2.4005
-2.40928
-2.41642
-2.42162
-2.42584
-2.43049
-2.4348
-2.43837
-2.44203
-2.44807
-2.45634
-2.46598
-2.47615
-2.48665
-2.49718
-2.50646
-2.51436
-2.51933
-2.52053
-2.49856
-2.50377
-2.51024
-2.51835
-2.52689
-2.53491
-2.5418
-2.54786
-2.5534
-2.55873
-2.56355
-2.56793
-2.57279
-2.57893
-2.58655
-2.59503
-2.60321
-2.61126
-2.61947
-2.62702
-2.63337
-2.63809
-2.64104
-2.62941
-2.63422
-2.64016
-2.64753
-2.65522
-2.66265
-2.66949
-2.67576
-2.6816
-2.68713
-2.6923
-2.69726
-2.70252
-2.70847
-2.71516
-2.72226
-2.7293
-2.73632
-2.74321
-2.74955
-2.75501
-2.75944
-2.76302
-2.76141
-2.76584
-2.77135
-2.77814
-2.78521
-2.79213
-2.79868
-2.80481
-2.81059
-2.81609
-2.82134
-2.82649
-2.83179
-2.83745
-2.8435
-2.84975
-2.85602
-2.86223
-2.86826
-2.87387
-2.87886
-2.88324
-2.88714
-2.89429
-2.89834
-2.90341
-2.90965
-2.91615
-2.92258
-2.92873
-2.93456
-2.94011
-2.94543
-2.95059
-2.95568
-2.96085
-2.96621
-2.97176
-2.97743
-2.98311
-2.98872
-2.99418
-2.99932
-3.00406
-3.00847
-3.01264
-3.02768
-3.03136
-3.03599
-3.04169
-3.04764
-3.05356
-3.05928
-3.06474
-3.06997
-3.07503
-3.07997
-3.08487
-3.08982
-3.09486
-3.10001
-3.10522
-3.11044
-3.11561
-3.12066
-3.1255
-3.13007
-3.13454
-3.13889
-3.16135
-3.16467
-3.16888
-3.17405
-3.17948
-3.1849
-3.19015
-3.1952
-3.20007
-3.2048
-3.20945
-3.21408
-3.21873
-3.22345
-3.22824
-3.23308
-3.23793
-3.24275
-3.24751
-3.25215
-3.25669
-3.26108
-3.26552
-3.29514
-3.29813
-3.30195
-3.30664
-3.31156
-3.31649
-3.32127
-3.32588
-3.33034
-3.33469
-3.339
-3.3433
-3.34764
-3.35204
-3.35649
-3.361
-3.36553
-3.37006
-3.37456
-3.37902
-3.38343
-3.38782
-3.39229
-3.42898
-3.43169
-3.43514
-3.43937
-3.44383
-3.44827
-3.45259
-3.45673
-3.46075
-3.4647
-3.46862
-3.47256
-3.47656
-3.48063
-3.48476
-3.48896
-3.4932
-3.49748
-3.50176
-3.50605
-3.51033
-3.51466
-3.51911
-3.56288
-3.56531
-3.56843
-3.57224
-3.57625
-3.58022
-3.58405
-3.58772
-3.59128
-3.59478
-3.59829
-3.60185
-3.6055
-3.60924
-3.61306
-3.61697
-3.62095
-3.62498
-3.62905
-3.63316
-3.63731
-3.64154
-3.64591
-3.69686
-3.69902
-3.70181
-3.70523
-3.7088
-3.71231
-3.71565
-3.71882
-3.72188
-3.72492
-3.728
-3.73117
-3.73446
-3.73787
-3.74139
-3.74502
-3.74874
-3.75253
-3.7564
-3.76032
-3.76432
-3.76842
-3.77266
-3.83084
-3.83279
-3.83527
-3.83831
-3.84146
-3.8445
-3.84733
-3.84998
-3.85253
-3.85509
-3.85773
-3.86051
-3.86344
-3.86652
-3.86975
-3.8731
-3.87656
-3.88013
-3.88378
-3.88751
-3.89133
-3.89526
-3.89934
-3.96461
-3.9664
-3.96867
-3.97139
-3.97415
-3.97672
-3.97904
-3.98116
-3.98319
-3.98527
-3.98747
-3.98985
-3.99242
-3.99519
-3.99812
-4.00121
-4.00442
-4.00774
-4.01117
-4.0147
-4.01833
-4.02206
-4.02594
-4.09811
-4.09978
-4.10189
-4.10437
-4.10677
-4.1089
-4.11069
-4.11228
-4.1138
-4.1154
-4.11718
-4.11918
-4.12141
-4.12387
-4.12652
-4.12933
-4.13229
-4.13537
-4.13857
-4.14187
-4.14529
-4.14881
-4.15247
-4.23148
-4.23299
-4.23489
-4.23717
-4.23921
-4.2409
-4.24218
-4.24324
-4.24428
-4.24544
-4.24683
-4.24848
-4.2504
-4.25256
-4.25492
-4.25747
-4.26017
-4.26301
-4.26596
-4.26903
-4.27221
-4.27549
-4.27891
-4.36448
-4.36583
-4.36753
-4.36957
-4.37129
-4.37257
-4.37339
-4.37397
-4.37456
-4.37534
-4.37639
-4.37774
-4.37937
-4.38125
-4.38334
-4.38562
-4.38806
-4.39064
-4.39334
-4.39616
-4.39908
-4.40212
-4.40527
-4.49691
-4.49811
-4.4996
-4.50144
-4.50287
-4.50377
-4.50417
-4.50435
-4.50459
-4.50506
-4.50584
-4.50693
-4.5083
-4.50993
-4.51176
-4.51378
-4.51595
-4.51827
-4.5207
-4.52325
-4.52592
-4.52869
-4.53156
-4.62859
-4.62964
-4.63092
-4.6326
-4.63376
-4.63438
-4.63445
-4.63433
-4.63432
-4.63457
-4.63515
-4.63603
-4.63719
-4.63859
-4.64018
-4.64193
-4.64384
-4.64588
-4.64804
-4.65032
-4.65271
-4.6552
-4.65778
-4.75946
-4.76036
-4.76136
-4.76293
-4.76385
-4.7643
-4.7642
-4.76391
-4.76374
-4.76386
-4.7643
-4.76504
-4.76602
-4.7672
-4.76856
-4.77007
-4.77171
-4.77347
-4.77536
-4.77735
-4.77946
-4.78166
-4.78395
-4.88962
-4.89027
-4.89117
-4.89237
-4.89313
-4.89345
-4.89337
-4.89309
-4.89286
-4.89292
-4.8933
-4.89393
-4.89476
-4.89576
-4.8969
-4.89817
-4.89955
-4.90104
-4.90264
-4.90435
-4.90617
-4.90808
-4.91006
-5.01916
-5.01965
-5.02034
-5.02123
-5.02178
-5.02203
-5.02202
-5.02185
-5.02171
-5.0218
-5.02215
-5.02271
-5.02341
-5.02424
-5.02517
-5.02621
-5.02734
-5.02856
-5.02989
-5.03131
-5.03284
-5.03445
-5.03613
-5.14829
-5.14863
-5.14911
-5.14972
-5.15011
-5.15033
-5.15041
-5.15039
-5.15041
-5.15057
-5.15092
-5.15141
-5.15199
-5.15265
-5.15338
-5.15419
-5.15508
-5.15604
-5.15709
-5.15823
-5.15947
-5.16078
-5.16216
-5.27725
-5.27743
-5.27772
-5.27811
-5.27838
-5.27861
-5.27878
-5.27892
-5.27909
-5.27933
-5.27967
-5.28007
-5.28052
-5.28101
-5.28154
-5.28212
-5.28276
-5.28347
-5.28425
-5.28512
-5.28606
-5.28708
-5.28816
-5.40626
-5.40629
-5.40641
-5.40668
-5.40683
-5.40707
-5.40732
-5.40759
-5.40786
-5.40814
-5.40844
-5.40874
-5.40903
-5.40933
-5.40966
-5.41001
-5.41041
-5.41086
-5.41138
-5.41197
-5.41263
-5.41336
-5.41413
-5.53544
-5.53532
-5.53524
-5.53523
-5.53548
-5.53577
-5.53609
-5.53643
-5.53676
-5.53704
-5.53727
-5.53744
-5.53757
-5.53767
-5.53777
-5.53789
-5.53804
-5.53823
-5.53848
-5.5388
-5.53918
-5.53962
-5.54009
-5.66484
-5.66457
-5.66439
-5.66434
-5.6645
-5.66479
-5.66515
-5.66554
-5.66589
-5.66614
-5.66627
-5.66629
-5.66623
-5.66612
-5.66598
-5.66584
-5.66572
-5.66564
-5.6656
-5.66563
-5.66573
-5.66588
-5.66604
571.132
587.946
601.956
610.903
450.769
452.688
459.032
466.681
362.318
363.476
365.111
368.571
290.512
290.475
291.026
293.307
225.769
226.967
228.315
230.465
161.13
163.759
166.409
169.641
96.1703
100.123
103.881
107.768
36.6807
40.6693
44.9401
49.2934
5.26742
7.13255
8.86801
10.9779
-0.873998
-0.302585
-0.265846
-0.279118
-1.73767
-1.71337
-1.68083
-1.64948
-1.91245
-1.92516
-1.91408
-1.90865
-2.01753
-2.02189
-2.02024
-2.01965
-2.13866
-2.13954
-2.13775
-2.13412
-2.26704
-2.26455
-2.26058
-2.25593
-2.39424
-2.39108
-2.38764
-2.38423
-2.51892
-2.5172
-2.51537
-2.51335
-2.64158
-2.64145
-2.64116
-2.64047
-2.76478
-2.7657
-2.76648
-2.76692
-2.88957
-2.89105
-2.89245
-2.89365
-3.01549
-3.01729
-3.01906
-3.02071
-3.142
-3.144
-3.14599
-3.14791
-3.26878
-3.27088
-3.273
-3.27508
-3.39563
-3.39778
-3.39997
-3.40213
-3.52245
-3.52462
-3.52682
-3.52902
-3.64921
-3.65136
-3.65354
-3.65572
-3.77588
-3.77797
-3.78011
-3.78225
-3.90244
-3.90447
-3.90653
-3.9086
-4.0289
-4.03083
-4.0328
-4.03479
-4.15526
-4.15709
-4.15894
-4.16083
-4.28151
-4.28322
-4.28496
-4.28673
-4.40768
-4.40926
-4.41087
-4.4125
-4.53376
-4.53521
-4.53668
-4.53818
-4.65977
-4.66107
-4.6624
-4.66376
-4.78571
-4.78687
-4.78805
-4.78926
-4.9116
-4.91261
-4.91364
-4.91469
-5.03744
-5.0383
-5.03918
-5.04007
-5.16324
-5.16395
-5.16467
-5.1654
-5.289
-5.28956
-5.29012
-5.2907
-5.41474
-5.41514
-5.41555
-5.41597
-5.54046
-5.54071
-5.54096
-5.54121
-5.66617
-5.66625
-5.66634
-5.66643
622.493
642.69
691.783
727.701
743.311
746.139
752.031
762.793
773.892
784.929
797.101
801.328
796.972
800.646
807.362
813.655
821.317
832.103
849.613
483.468
516.375
561.295
595.717
614.243
620.692
625.219
636.048
641.048
646.888
660.632
670.373
674.898
682.035
692.195
701.343
712.262
734.331
756.654
377.512
406.123
443.286
473.7
491.864
502.216
509.542
518.608
523.502
531.029
545.503
557.997
571.769
581.91
589.738
599.293
610.239
632.118
653.074
299.673
313.207
332.193
355.246
374.941
389.856
402.942
410.563
421.104
433.493
447.821
460.323
477.876
492.016
500.67
511.272
522.807
533.507
552.15
237.402
245.887
251.148
258.827
271.408
286.268
301.566
315.74
331.947
348.223
363.497
378.679
393.649
408.993
422.03
435.797
445.487
449.76
463.077
176.278
184.491
188.704
191.477
197.385
208.299
223.478
241.471
256.469
271.65
289.22
308.538
323.69
339.269
355.279
368.852
377.2
378.948
387.411
114.529
122.594
128.013
131.835
137.178
146.377
160.37
177.128
190.291
204.595
224.167
243.088
259.722
276.557
293.734
307.62
315.742
314.008
320.295
54.6127
59.8538
64.8106
69.8693
75.6344
83.712
95.9306
110.359
124.968
141.741
162.284
182.181
198.781
214.762
231.73
246.061
252.773
250.862
253.42
13.2027
15.4581
17.7998
20.9675
24.6464
28.7092
35.1917
44.4074
57.1626
75.4265
98.995
123.285
142.325
157.281
171.617
181.852
186.453
186.848
185.745
-0.230655
0.525801
1.13687
1.53651
2.7225
4.16092
5.6363
7.2367
10.8964
20.9859
41.143
67.659
88.3652
102.627
110.716
113.998
118.103
120.883
114.727
-1.65577
-1.70059
-1.62809
-1.43394
-0.920717
-0.243665
0.313178
0.461682
0.773518
2.14961
7.26476
24.9762
44.6196
49.6289
48.886
47.8824
53.7845
57.8594
53.7136
-1.892
-1.89063
-1.87739
-1.82491
-1.75661
-1.6081
-1.29714
-0.815604
-0.473256
-0.56229
0.224323
2.5716
9.01519
9.11247
8.33136
9.25019
13.2524
16.2085
15.5684
-2.01102
-1.99884
-1.98386
-1.95551
-1.92127
-1.88935
-1.84235
-1.67925
-1.46105
-1.56153
-1.70447
-2.60379
-3.06848
-3.0678
-3.05191
-2.99891
-2.91588
-1.90482
-2.45995
-2.12483
-2.11181
-2.09923
-2.0851
-2.07014
-2.05883
-2.05132
-2.0252
-1.9692
-2.10629
-2.68961
-3.40361
-3.25481
-3.16399
-3.12797
-3.04187
-2.93915
-2.89885
-2.81732
-2.2477
-2.23847
-2.23316
-2.22918
-2.22477
-2.22377
-2.22269
-2.2198
-2.24314
-2.42564
-2.89522
-3.25979
-3.2919
-3.1937
-3.11019
-3.01595
-2.91642
-2.8622
-2.82081
-2.3789
-2.37476
-2.37493
-2.37799
-2.38048
-2.38322
-2.38679
-2.39202
-2.4244
-2.55231
-2.81652
-3.06523
-3.16007
-3.12659
-3.05325
-2.97071
-2.8906
-2.83918
-2.80821
-2.5106
-2.51069
-2.51414
-2.52036
-2.52873
-2.53762
-2.54505
-2.5542
-2.57985
-2.6566
-2.80299
-2.95487
-3.03753
-3.05064
-3.00951
-2.94941
-2.8881
-2.84487
-2.81532
-2.63983
-2.64259
-2.64777
-2.6551
-2.66482
-2.67679
-2.68951
-2.704
-2.72902
-2.78046
-2.86182
-2.9464
-3.00228
-3.01369
-3.00566
-2.9705
-2.92574
-2.89022
-2.86357
-2.76804
-2.77232
-2.77825
-2.78582
-2.79546
-2.80674
-2.82002
-2.83691
-2.86087
-2.89888
-2.94956
-3.00098
-3.03912
-3.05873
-3.0569
-3.03034
-2.99602
-2.96586
-2.94678
-2.89595
-2.90105
-2.90736
-2.91504
-2.9244
-2.93537
-2.94836
-2.96431
-2.9853
-3.01433
-3.04963
-3.08404
-3.11087
-3.13086
-3.1358
-3.12037
-3.09003
-3.0697
-3.05812
-3.02372
-3.0293
-3.03584
-3.04356
-3.0527
-3.06347
-3.07593
-3.09108
-3.10975
-3.13318
-3.16
-3.18578
-3.20789
-3.22604
-3.2313
-3.22008
-3.20311
-3.1936
-3.18797
-3.15133
-3.15719
-3.16387
-3.17157
-3.1805
-3.19088
-3.20284
-3.21692
-3.23353
-3.25314
-3.2748
-3.29608
-3.31624
-3.3338
-3.34238
-3.33622
-3.326
-3.32285
-3.31974
-3.27874
-3.28474
-3.29145
-3.29906
-3.30774
-3.31766
-3.32899
-3.34194
-3.35669
-3.3734
-3.39142
-3.40945
-3.42702
-3.44407
-3.45638
-3.45936
-3.45568
-3.45195
-3.44295
-3.4059
-3.41193
-3.41859
-3.42604
-3.4344
-3.44381
-3.45442
-3.46627
-3.47942
-3.49384
-3.50912
-3.52451
-3.53963
-3.55413
-3.56632
-3.57293
-3.57217
-3.57146
-3.55742
-3.53282
-3.53879
-3.54532
-3.55252
-3.56051
-3.56938
-3.57922
-3.59004
-3.60181
-3.6144
-3.62755
-3.64076
-3.65368
-3.66582
-3.67575
-3.68153
-3.68188
-3.68219
-3.67177
-3.65949
-3.66533
-3.67165
-3.67855
-3.68612
-3.69443
-3.70351
-3.71335
-3.72389
-3.73502
-3.74646
-3.75789
-3.76896
-3.77921
-3.78753
-3.79289
-3.79444
-3.79471
-3.791
-3.78593
-3.79157
-3.79763
-3.80418
-3.8113
-3.81902
-3.82736
-3.8363
-3.84575
-3.85556
-3.8657
-3.87561
-3.88521
-3.89402
-3.90128
-3.90652
-3.90941
-3.91137
-3.91343
-3.91216
-3.91754
-3.92329
-3.92947
-3.93611
-3.94324
-3.95086
-3.95895
-3.96742
-3.97615
-3.985
-3.99369
-4.00219
-4.00983
-4.01632
-4.02153
-4.02535
-4.02829
-4.03467
-4.03819
-4.04328
-4.04869
-4.05445
-4.0606
-4.06714
-4.07408
-4.08136
-4.08894
-4.09669
-4.10448
-4.11213
-4.11946
-4.12622
-4.13205
-4.13704
-4.14109
-4.14402
-4.14991
-4.16404
-4.16881
-4.17386
-4.17919
-4.18484
-4.1908
-4.19707
-4.20361
-4.21035
-4.21721
-4.22405
-4.23073
-4.23711
-4.24301
-4.2482
-4.2527
-4.25655
-4.25882
-4.26207
-4.28973
-4.29416
-4.29882
-4.30372
-4.30887
-4.31427
-4.31991
-4.32574
-4.33171
-4.33775
-4.34373
-4.34955
-4.35508
-4.36018
-4.36473
-4.36865
-4.37188
-4.37386
-4.37602
-4.41528
-4.41936
-4.42362
-4.42808
-4.43274
-4.43759
-4.44262
-4.44779
-4.45306
-4.45834
-4.46356
-4.4686
-4.47337
-4.47776
-4.48171
-4.48511
-4.48776
-4.4894
-4.49087
-4.54072
-4.54442
-4.54828
-4.5523
-4.55647
-4.5608
-4.56525
-4.5698
-4.57441
-4.57901
-4.58353
-4.58788
-4.59197
-4.59573
-4.5991
-4.60202
-4.60426
-4.60563
-4.60658
-4.66605
-4.66938
-4.67283
-4.67641
-4.68011
-4.68392
-4.68782
-4.69179
-4.69579
-4.69976
-4.70365
-4.70738
-4.71088
-4.71407
-4.7169
-4.71935
-4.72128
-4.72245
-4.72307
-4.79129
-4.79424
-4.79728
-4.80043
-4.80366
-4.80697
-4.81035
-4.81377
-4.8172
-4.8206
-4.82392
-4.82709
-4.83005
-4.83273
-4.8351
-4.83712
-4.83872
-4.83973
-4.84023
-4.91647
-4.91902
-4.92166
-4.92437
-4.92715
-4.92998
-4.93286
-4.93576
-4.93866
-4.94152
-4.94431
-4.94697
-4.94944
-4.95168
-4.95364
-4.9553
-4.95661
-4.95748
-4.95789
-5.04158
-5.04375
-5.04598
-5.04826
-5.05059
-5.05295
-5.05535
-5.05776
-5.06015
-5.06252
-5.06481
-5.067
-5.06903
-5.07087
-5.07247
-5.0738
-5.07486
-5.07559
-5.07593
-5.16665
-5.16842
-5.17024
-5.1721
-5.17399
-5.1759
-5.17783
-5.17977
-5.18169
-5.18358
-5.18541
-5.18716
-5.18878
-5.19024
-5.19151
-5.19257
-5.1934
-5.194
-5.19428
-5.29167
-5.29305
-5.29446
-5.2959
-5.29736
-5.29883
-5.30031
-5.30179
-5.30326
-5.30471
-5.3061
-5.30743
-5.30866
-5.30978
-5.31075
-5.31155
-5.31218
-5.31264
-5.31287
-5.41666
-5.41765
-5.41866
-5.41968
-5.42071
-5.42175
-5.4228
-5.42384
-5.42487
-5.42589
-5.42687
-5.4278
-5.42867
-5.42945
-5.43013
-5.4307
-5.43115
-5.43148
-5.43165
-5.54163
-5.54222
-5.54282
-5.54343
-5.54405
-5.54467
-5.54529
-5.54591
-5.54652
-5.54712
-5.5477
-5.54825
-5.54876
-5.54923
-5.54964
-5.54999
-5.55027
-5.55048
-5.55059
-5.66657
-5.66677
-5.66697
-5.66717
-5.66736
-5.66756
-5.66776
-5.66796
-5.66816
-5.66836
-5.66855
-5.66874
-5.66893
-5.66911
-5.66928
-5.66945
-5.66959
-5.66968
-5.66968
)
;

boundaryField
{
    leftWall
    {
        type            calculated;
        value           nonuniform List<scalar> 
50
(
5616.62
4819.02
4019.63
3215.47
2404.89
1585.56
919.164
639.288
536.006
407.559
281.7
160.873
71.7231
19.6992
0.200806
-0.846287
-1.17029
-1.32923
-1.4903
-1.65317
-1.8113
-1.96151
-2.10321
-2.23785
-2.36858
-2.49856
-2.62941
-2.76141
-2.89429
-3.02768
-3.16135
-3.29514
-3.42898
-3.56288
-3.69686
-3.83084
-3.96461
-4.09811
-4.23148
-4.36448
-4.49691
-4.62859
-4.75946
-4.88962
-5.01916
-5.14829
-5.27725
-5.40626
-5.53544
-5.66484
)
;
    }
    rightWall
    {
        type            calculated;
        value           nonuniform List<scalar> 
50
(
2617.09
1911.51
1406.73
1179.77
1106.39
1049.54
990.026
930.706
849.613
756.654
653.074
552.15
463.077
387.411
320.295
253.42
185.745
114.727
53.7136
15.5684
-2.45995
-2.81732
-2.82081
-2.80821
-2.81532
-2.86357
-2.94678
-3.05812
-3.18797
-3.31974
-3.44295
-3.55742
-3.67177
-3.791
-3.91343
-4.03467
-4.14991
-4.26207
-4.37602
-4.49087
-4.60658
-4.72307
-4.84023
-4.95789
-5.07593
-5.19428
-5.31287
-5.43165
-5.55059
-5.66968
)
;
    }
    lowerWall
    {
        type            calculated;
        value           nonuniform List<scalar> 
62
(
6014.77
6017.12
6020.44
6019.31
6008.77
5984.38
5944.31
5889.76
5824.49
5752.58
5677.34
5600.27
5522.15
5443.26
5363.94
5285.26
5209.11
5138.24
5075.74
5023.01
4980.26
4948.82
4930.67
4532.54
3731.78
2927.08
2117.8
1330.73
846.783
705.484
640.424
661.76
679.29
693.136
702.979
2484.32
1725.24
1232.79
1080.82
1020.7
966.089
889.51
786.666
2859.88
2960.88
3144.28
3309.98
3419.68
3468.45
3470.97
3428.11
3346.93
3284.32
3245.91
3219.81
3185.99
3134.7
3066.58
3006.46
2970.11
2987.05
2996.43
)
;
    }
    atmosphere
    {
        type            calculated;
        value           nonuniform List<scalar> 
46
(
-5.7296
-5.7292
-5.72905
-5.72904
-5.72919
-5.7295
-5.72992
-5.73037
-5.73074
-5.73096
-5.73101
-5.73093
-5.73075
-5.7305
-5.73022
-5.72993
-5.72966
-5.72941
-5.72921
-5.72908
-5.72904
-5.72904
-5.72904
-5.72904
-5.72904
-5.72904
-5.72904
-5.72904
-5.72904
-5.72904
-5.72904
-5.72904
-5.72904
-5.72904
-5.72904
-5.72904
-5.72904
-5.72904
-5.72904
-5.72904
-5.72904
-5.72905
-5.72905
-5.72906
-5.72907
-5.72906
)
;
    }
    defaultFaces
    {
        type            empty;
    }
}


// ************************************************************************* //
