/*--------------------------------*- C++ -*----------------------------------*\
| =========                 |                                                 |
| \\      /  F ield         | OpenFOAM: The Open Source CFD Toolbox           |
|  \\    /   O peration     | Version:  2312                                  |
|   \\  /    A nd           | Website:  www.openfoam.com                      |
|    \\/     M anipulation  |                                                 |
\*---------------------------------------------------------------------------*/
FoamFile
{
    version     2.0;
    format      ascii;
    arch        "LSB;label=32;scalar=64";
    class       volScalarField;
    location    "3";
    object      p_rgh;
}
// * * * * * * * * * * * * * * * * * * * * * * * * * * * * * * * * * * * * * //

dimensions      [1 -1 -2 0 0 0 0];

internalField   nonuniform List<scalar> 
2268
(
6014.77
6017.12
6020.44
6019.31
6008.77
5984.38
5944.31
5889.76
5824.49
5752.58
5677.34
5600.27
5522.15
5443.26
5363.94
5285.26
5209.11
5138.24
5075.74
5023.01
4980.26
4948.82
4930.67
6013.46
6015.17
6019.43
6019.8
6010.8
5987.38
5947.42
5892.17
5825.59
5752.44
5676.43
5599.03
5521
5442.34
5363.12
5284.29
5207.74
5136.37
5073.59
5020.68
4977.54
4945.22
4926.2
6010.38
6011.03
6016.85
6020.16
6014.32
5992.98
5953.32
5896.55
5827.51
5751.96
5674.53
5596.59
5518.8
5440.66
5361.61
5282.44
5205.03
5132.64
5069.4
5016.36
4972.56
4938.58
4917.82
6002.52
6003.14
6012.08
6020.22
6019.41
6001.41
5962.32
5903.14
5830.16
5750.89
5671.37
5592.62
5515.39
5438.21
5359.47
5279.76
5200.97
5127.09
5063.42
5010.34
4965.49
4928.7
4904.51
5988.24
5989.92
6004.52
6019.55
6026.58
6013.17
5974.97
5914.2
5833.31
5748.5
5666.22
5586.57
5510.79
5435.42
5357.05
5276.27
5193.66
5098.28
5002.12
4913.3
4825.75
4725.49
4638.4
5941.04
5943.36
5983.09
6016.61
6034.87
6027.55
5989.88
5922.49
5831.82
5695.62
5522.08
5312.5
5088.3
4832.18
4509.18
4156.12
3715.25
3245.28
2889.3
2610.85
2352.53
2123.61
2010.16
4014.17
4103.08
4314.13
4625.34
4909.27
5003.48
4855.52
4429.6
3769.09
3091.9
2575.31
2148.8
1832.23
1571.67
1353.22
1163.82
1050.75
1054.05
1057.05
1064.17
1073.86
1082.77
1081.41
1133.96
1145.9
1184.15
1262.16
1368.63
1418.25
1342.96
1180.7
1032.38
1039.12
1044.23
1050.55
1054.72
1052.76
1046.03
1040.63
1047.81
1051.25
1057.17
1064
1075.95
1093.29
1114.77
2859.88
2960.88
3144.28
3309.98
3419.68
3468.45
3470.97
3428.11
3346.93
3284.32
3245.91
3219.81
3185.99
3134.7
3066.58
3006.46
2970.11
2987.05
2996.43
2778.91
2913.39
3150.86
3326.3
3430.77
3477.1
3482.41
3436.65
3346.5
3281.64
3244.51
3217.65
3171.96
3093.88
2987.56
2894.9
2844.58
2883.97
2892.72
1781.31
2097.9
2624.19
3007.98
3128.61
3193.6
3269.22
3198.41
2926.08
2740.81
2639.69
2611.62
2558.97
2480.16
2346.24
2252.64
2232.97
2264.89
2309.88
1291.21
1253.26
1412.85
2004.31
2304.49
2346.55
2213.64
1991.01
1870.78
1806.4
1800.71
1802.69
1705.46
1582.74
1509.4
1453.4
1441.37
1495.35
1505.59
1240.05
1261.14
1232.62
1190.28
1258.13
1279.18
1296.75
1296.8
1300.41
1268.71
1255.06
1264.66
1338.71
1366.74
1373.66
1378.35
1372.7
1364.93
1355.37
1247.12
1259.89
1255.98
1193.43
1180.17
1292.5
1327.62
1313.77
1283.98
1258.78
1252.4
1283.69
1371.94
1412.14
1419.38
1393.04
1387.56
1377.77
1377.81
1469.89
1444.39
1263.61
1241.71
1183.99
1282.42
1309.08
1226.16
1225.7
1247.21
1255.67
1289.7
1443.25
1451.24
1458.37
1457.25
1380.9
1353.29
1385.47
1506.57
1524.5
1314.53
1262.65
1217.74
1250.23
1299.75
1278.85
1311.17
1390.08
1340.07
1348.91
1400.58
1362.94
1362.54
1358.38
1318.61
1323
1387.06
1068.86
1064.73
1057.36
1046.95
1035.51
1026.63
1023.55
1026.38
1032.99
1039.52
1046.64
1052.16
1056.01
1059.24
1068.66
1040.66
1029.46
1047.97
1051.72
1060.64
1068.89
1072.92
1137.84
1066.05
1063.27
1055.91
1047.14
1038.37
1031.91
1029.06
1029.41
1034.59
1041.37
1047.24
1048.74
1042.64
1047.32
1061.92
1000.61
987.399
967.765
963.979
968.354
965.442
953.061
880.38
1067.04
1064.28
1059.1
1050.58
1036.35
1005.91
1007.9
992.475
986.515
994.177
1004.75
1004.94
989.414
954.801
903.445
863.333
795.09
735.12
722.587
719.89
725.574
735.142
736.577
1039.51
1022
979.802
904.269
809.575
722.692
709.015
789.417
797.637
780.852
762.262
748.672
712.433
677.304
666.715
666.68
676.163
689.153
700.342
711.514
722.935
719.56
714.554
603.595
579.174
554.35
556.011
575.655
614.61
561.72
617.905
656.884
609.528
615.446
621.574
630.373
639.868
650.063
660.441
671.809
684.318
696.797
708.927
720.723
731.9
726.797
370.178
375.789
394.457
414.355
444.454
433.799
461.547
438.344
502.406
538.791
576.489
602.984
619.509
633.911
643.964
653.632
664.54
677.1
690.992
704.823
719.115
728.303
735.767
13.3769
11.7337
17.9539
39.7143
68.2208
88.583
112.379
88.9133
87.66
104.232
125.637
150.973
183.396
221.222
282.332
359.367
435.272
523.37
622.243
684.76
709.905
730.499
743.151
4.98655
4.30689
2.6447
2.86805
3.67457
7.69535
9.84178
6.01763
0.953511
0.371975
0.29453
0.415814
0.792232
2.51846
3.86457
12.6001
36.6144
69.3196
135.164
241.715
367.888
475.117
575.786
0.365669
0.360922
0.40181
0.396477
0.351727
0.372604
0.530968
0.52142
0.465884
0.288962
0.248857
0.277774
0.320329
0.363034
0.690185
0.976575
1.77989
2.20917
2.30242
1.99141
5.70865
33.9876
91.6397
0.331024
0.326326
0.368738
0.462164
0.420149
0.32262
0.207802
0.232481
0.230474
0.217688
0.232022
0.245082
0.25394
0.288823
0.350481
0.279411
0.251203
0.292318
0.332655
0.352788
0.29983
0.95001
5.91826
0.295251
0.285089
0.265758
0.271566
0.363018
0.298466
0.200033
0.206747
0.23074
0.236392
0.213948
0.221954
0.303679
0.375788
0.367609
0.351125
0.282132
0.204378
0.215215
0.223907
0.225109
0.200725
0.148019
0.257582
0.247522
0.227684
0.201997
0.176751
0.158738
0.151039
0.153005
0.169784
0.181411
0.272461
0.352839
0.354962
0.350101
0.285422
0.185243
0.162582
0.149328
0.144012
0.13846
0.175689
0.204432
0.162961
0.224626
0.215311
0.199338
0.179567
0.160012
0.144236
0.134739
0.132935
0.188681
0.227186
0.234261
0.206499
0.200367
0.218185
0.240961
0.230944
0.212746
0.170723
0.0981085
0.0848795
0.0875671
0.0991395
0.0835658
0.199611
0.191156
0.178132
0.164003
0.152575
0.150051
0.13845
0.128122
0.130253
0.145517
0.171573
0.202784
0.340551
0.393362
0.367022
0.301187
0.190735
0.0936762
0.075509
0.056554
0.0632265
0.120363
0.12077
0.183106
0.175594
0.164945
0.155215
0.173294
0.168167
0.163184
0.150879
0.141864
0.205938
0.362253
0.389359
0.365044
0.301202
0.250644
0.206288
0.180583
0.132031
0.181278
0.219118
0.217446
0.205702
0.145073
0.173653
0.167098
0.15839
0.154306
0.178937
0.169453
0.164367
0.14736
0.146663
0.273876
0.331732
0.280129
0.107118
0.103359
0.175622
0.246622
0.250485
0.228254
0.185484
0.0833442
0.0592367
0.0757068
0.0590636
0.168122
0.162327
0.155007
0.147819
0.156341
0.154788
0.122144
0.116117
0.116578
0.12069
0.116792
0.0986227
0.0950477
0.0890157
0.108068
0.16557
0.134695
0.0541088
0.0397937
0.0311652
0.0229108
0.0221808
0.0323879
0.163349
0.158064
0.151604
0.143477
0.134934
0.126923
0.120052
0.114072
0.108579
0.103361
0.0986038
0.0942279
0.0894324
0.0834085
0.0754012
0.0668287
0.0586381
0.0507206
0.0427109
0.0352685
0.0288821
0.0243543
0.0214895
0.157708
0.152803
0.146872
0.139518
0.131849
0.124441
0.117768
0.11167
0.106001
0.100372
0.0951586
0.0900145
0.0845209
0.0785921
0.0719012
0.0648209
0.0577775
0.0507589
0.0438897
0.0375526
0.0320857
0.0276382
0.0240056
0.150911
0.146362
0.140861
0.134107
0.127075
0.120195
0.113802
0.10775
0.101994
0.0965388
0.0912043
0.0858822
0.0805064
0.0747866
0.0687185
0.062466
0.0562134
0.0500091
0.0439785
0.0383622
0.033358
0.0289694
0.0250644
0.143248
0.139057
0.133978
0.127761
0.121269
0.114841
0.108727
0.10301
0.0974841
0.0920596
0.0868514
0.0817808
0.0765996
0.0712206
0.0656466
0.0599646
0.05428
0.0486651
0.0432185
0.0380709
0.0333237
0.0289101
0.0247382
0.135068
0.131225
0.126578
0.120887
0.114933
0.109011
0.103295
0.0978389
0.0926111
0.0875538
0.0826151
0.0777219
0.0727783
0.06773
0.0625747
0.0573536
0.0521272
0.046954
0.0419046
0.0370637
0.0324945
0.0280267
0.0236739
0.126663
0.123105
0.118881
0.113705
0.108275
0.102856
0.0976034
0.092555
0.0876906
0.0829624
0.0783152
0.0736891
0.0690305
0.064307
0.0595148
0.0546754
0.0498237
0.045
0.0402482
0.0356054
0.0310667
0.0266771
0.0222372
0.118176
0.114838
0.111006
0.106314
0.101385
0.096457
0.0916726
0.0870645
0.0826071
0.0782523
0.0739472
0.0696441
0.0653057
0.0609097
0.056453
0.051948
0.047417
0.0428857
0.0383805
0.0339225
0.0295129
0.0251268
0.0206533
0.109677
0.106482
0.103007
0.0987692
0.0943139
0.0898653
0.0855537
0.0814041
0.0773851
0.0734421
0.0695204
0.0655755
0.0615772
0.0575103
0.0533733
0.0491755
0.0449321
0.0406602
0.0363764
0.032092
0.027805
0.0234778
0.0190282
0.101039
0.0980789
0.094911
0.0910949
0.0870907
0.0831132
0.0792815
0.0756103
0.0720558
0.0685533
0.0650419
0.0614765
0.0578305
0.0540934
0.0502667
0.0463596
0.0423846
0.0383549
0.0342817
0.0301713
0.0260191
0.0217904
0.0174227
0.0924995
0.0897018
0.0867213
0.0833033
0.0797321
0.0762229
0.0728831
0.0697119
0.0666467
0.0636078
0.0605253
0.057352
0.054064
0.0506553
0.0471318
0.043505
0.039788
0.035993
0.0321292
0.0282006
0.0242018
0.0201087
0.0158671
0.0837373
0.0813695
0.0784688
0.0754254
0.0722688
0.0692301
0.0663949
0.0637445
0.061189
0.0586302
0.0559875
0.0532116
0.0502819
0.0471982
0.0439718
0.0406187
0.0371547
0.0335931
0.029943
0.0262086
0.0223853
0.0184551
0.0143801
0.0752095
0.0730657
0.0702693
0.0675486
0.064817
0.062287
0.0598871
0.0577625
0.0557269
0.0536526
0.0514494
0.0490672
0.0464904
0.0437255
0.0407908
0.0377076
0.0344955
0.0311699
0.0277416
0.0242152
0.0205882
0.0168499
0.0129699
0.0669072
0.0649823
0.0622738
0.0598583
0.0582574
0.056517
0.0537197
0.0518531
0.0503198
0.0487169
0.0469367
0.0449326
0.042696
0.040241
0.0375925
0.0347772
0.0318185
0.0287345
0.0255378
0.0222341
0.0188233
0.0152984
0.0116414
0.0586216
0.0573321
0.0546903
0.0526282
0.0518766
0.0502052
0.0489055
0.0463249
0.0450395
0.0438715
0.0424796
0.0408247
0.0389068
0.0367483
0.0343796
0.0318315
0.0291299
0.026295
0.0233407
0.0202743
0.0170975
0.013809
0.0103964
0.0506346
0.0497663
0.0476148
0.0457423
0.0451145
0.0442572
0.0434985
0.0415882
0.0399598
0.0391663
0.0381109
0.0367628
0.0351336
0.0332533
0.0311561
0.0288744
0.0264346
0.0238571
0.0211565
0.0183411
0.0154145
0.0123783
0.00923126
0.043249
0.0425621
0.040659
0.0388209
0.0388553
0.0388476
0.0381418
0.0358967
0.0351415
0.0346462
0.0338601
0.0327675
0.031391
0.029766
0.0279291
0.0259116
0.0237377
0.0214257
0.0189894
0.0164373
0.0137743
0.0110061
0.00813316
0.0365383
0.035632
0.0342076
0.0324469
0.0319184
0.0335809
0.034971
0.0313714
0.0306186
0.0303329
0.0297478
0.0288578
0.0276961
0.0263018
0.0247113
0.0229531
0.0210468
0.0190066
0.0168434
0.0145651
0.0121772
0.00968678
0.00710187
0.0308107
0.0298748
0.0288214
0.0272252
0.026423
0.0284275
0.0330751
0.0301994
0.0264032
0.0262403
0.0257883
0.0250505
0.0240682
0.0228803
0.0215207
0.0200134
0.0183729
0.0166073
0.0147232
0.0127261
0.0106216
0.00842004
0.00612988
0.0258459
0.0250962
0.0241737
0.0230028
0.0223522
0.0255517
0.0293007
0.027145
0.0225314
0.0223704
0.0219872
0.0213554
0.0205226
0.0195205
0.0183771
0.0171106
0.0157298
0.0142374
0.0126343
0.0109226
0.00910639
0.00719779
0.0052114
0.0215667
0.0209961
0.0204344
0.0197622
0.0193212
0.0228961
0.02607
0.0199784
0.0188857
0.0186892
0.018327
0.0177671
0.0170634
0.0162336
0.0152958
0.0142605
0.0131315
0.0119069
0.0105829
0.00915737
0.00763287
0.00602299
0.00433836
0.0177878
0.0173736
0.0171834
0.016611
0.0162244
0.0162765
0.0178189
0.0157496
0.015311
0.0151035
0.0147536
0.0142585
0.0136779
0.0130167
0.0122803
0.0114707
0.0105866
0.00962303
0.00857303
0.00743087
0.00619756
0.00488488
0.00350484
0.0170295
0.0145763
0.0136431
0.013183
0.0127224
0.0123472
0.0121404
0.0119701
0.0117803
0.0115315
0.0111969
0.0107863
0.01034
0.00985348
0.00932103
0.00873671
0.00809433
0.00738678
0.00660558
0.00574289
0.00479783
0.00378024
0.00270252
0.0139704
0.0123753
0.0100701
0.00949063
0.0093002
0.00901971
0.0087448
0.00847348
0.00819562
0.00791206
0.00761838
0.00731608
0.00702145
0.00672042
0.00639849
0.00604309
0.00564357
0.00519056
0.00467486
0.00408798
0.00342655
0.00269709
0.00192319
0.00987412
0.00734977
0.00621873
0.00605963
0.00579062
0.00548444
0.00515685
0.00481713
0.00448953
0.0042082
0.00398267
0.00380862
0.00368149
0.00357774
0.00347599
0.00335784
0.0032082
0.00301451
0.00276584
0.00245286
0.0020703
0.00162682
0.00115633
0.00214862
0.00202836
0.00206921
0.00210245
0.00194481
0.00165437
0.00129175
0.000903133
0.000556196
0.000307457
0.000175796
0.000151055
0.000211206
0.000324136
0.000461388
0.000599245
0.000718537
0.000803169
0.000838901
0.000813049
0.000712378
0.000562762
0.000405525
1343.49
1366.4
1379.01
1395.59
825.981
939.76
1106.09
1121.18
763.877
767.043
781.558
807.738
715.094
718.57
738.542
747.809
720.596
723.929
726.576
737.957
740.767
742.319
753.793
767.63
746.797
744.399
746.998
761.718
635.574
672.139
710.342
746.578
124.376
152.906
201.913
293.975
31.1078
47.3012
37.6923
15.6833
0.496426
0.948711
2.84983
7.90549
0.0981464
0.0402124
0.000479841
0.334091
0.0526857
0.0228061
0.0180738
0.0468345
0.0877782
0.0282346
0.0263638
0.0303506
0.0612824
0.0259308
0.0315391
0.0469883
0.0524796
0.0609421
0.0805028
0.0816233
0.0396353
0.0380791
0.0364836
0.0369809
0.0205434
0.0209214
0.0218939
0.0221763
0.0222503
0.0214863
0.0207573
0.020258
0.0226414
0.0211675
0.0197876
0.0185833
0.0218936
0.0200988
0.0183305
0.0166788
0.020563
0.018569
0.0165827
0.0146567
0.0189771
0.0168745
0.0147568
0.0126735
0.0173206
0.0151613
0.0129802
0.0108147
0.0156872
0.013518
0.0113175
0.00912257
0.0141222
0.0119737
0.00979375
0.00760978
0.0126493
0.0105525
0.00841993
0.00627813
0.0112779
0.00925261
0.00719392
0.00511965
0.0100123
0.00808003
0.00611194
0.00412571
0.00884975
0.00702295
0.00516396
0.00328256
0.00778801
0.00608076
0.00434043
0.00257724
0.0068178
0.00523679
0.00362752
0.00199316
0.00593009
0.0044861
0.003013
0.00151632
0.00511574
0.00381184
0.00248366
0.00113112
0.00436744
0.00320981
0.00202788
0.00082471
0.00367445
0.00266357
0.00163398
0.00058377
0.00303134
0.00217146
0.00129313
0.000398902
0.00242853
0.0017188
0.000996563
0.000259934
0.00185975
0.00130371
0.000735812
0.000158867
0.00131401
0.000911242
0.000502977
8.73052e-05
0.000785569
0.000540984
0.000291574
3.94424e-05
0.000277646
0.000191206
0.00010423
1.65064e-05
1412
1282.65
1262.97
1259.82
1247.9
1251.38
1306.95
1334.56
1386.58
1471.83
1414.9
1389.83
1333.36
1297.59
1256.07
1266.62
1310.96
1296.39
1338.12
1144.21
1189.77
1233.16
1253.21
1272.12
1270.17
1276.73
1298.39
1317.03
1309.84
1332.21
1337.98
1200.45
1162.56
1208.31
1221.98
1293.87
1263.11
1271.46
1014.33
1209.95
1247.05
1249.94
1271.78
1278.38
1280.25
1271.83
1226.14
1182.56
1187.66
1241.94
1144.21
1058.15
1099.73
1125.36
1134.45
1228.44
1264.1
766.164
835.482
1110.76
1287.32
1278.14
1278.43
1298.18
1231.23
1060.72
973.726
1135.54
1121.33
1113.67
1101.28
1073.5
1061.8
1035.41
1126.53
1172.15
755.795
754.59
776.41
888.749
1061.36
1176.26
1149.52
979.28
963.697
1016.19
1043.97
922.248
1010.46
1049.79
976.776
1012.05
1034.98
1019.17
1166.5
770.717
763.984
761.663
762.048
791.023
821.552
822.722
823.648
880.324
901.624
917.808
946.554
907.663
909.097
927.166
967.299
963.178
983.676
1094.3
808.065
800.657
774.907
774.28
779.57
788.946
800.766
815.5
829.747
844.745
864.925
876.651
925.131
967.149
989.818
1028.5
979.769
986.452
1173.09
793.114
813.939
835.301
802.528
781.201
788.417
800.488
814.829
829.331
845.886
866.529
886.221
908.771
974.096
1055.5
1137.74
1082.91
995.348
1187.3
326.401
336.757
368.644
444.748
496.328
542.519
646.429
729.475
796.92
849.692
890.114
901.681
922.776
936.64
1030.38
1319.33
1113.79
995.836
1199.24
28.362
58.4625
72.5144
67.4951
75.0877
76.9661
90.998
162.582
273.23
440.806
667.047
844.573
905.926
918.543
997.526
1192.11
1123.97
997.938
1210.83
1.14874
2.01396
3.97825
7.90268
20.955
26.9869
29.9342
9.49544
8.40578
36.3455
181.459
480.407
584.034
589.002
614.729
979.238
1220.34
1049.66
981.752
0.222798
0.0426135
0.0482921
0.245046
0.527581
4.66533
10.3965
8.10761
3.95732
9.90326
11.3343
118.386
387.991
378.867
351.792
381.748
563.586
663.289
645.761
0.0500326
0.0509096
0.066268
0.187721
0.249624
0.235216
1.00434
2.71063
1.71532
0.615842
7.6157
31.9144
11.7074
-1.02452
-1.00781
-0.952859
-0.872148
39.7391
9.59979
0.0486456
0.0704645
0.0945908
0.113545
0.153666
0.163189
0.141876
0.162442
0.281022
0.197471
0.990485
5.52124
8.89818
-0.987369
-0.948346
-0.870757
-0.768773
-0.726261
-0.459213
0.0831995
0.0996566
0.113419
0.192432
0.291155
0.238968
0.124459
0.0860502
0.141921
0.0295083
-0.334437
-0.810672
-0.822524
-0.758162
-0.703025
-0.693381
-0.621946
-0.570593
-0.529261
0.0876757
0.0911439
0.110856
0.134026
0.328238
0.429521
0.437894
0.376879
0.268186
0.290128
0.290934
0.0757293
-0.202699
-0.128929
-0.00805359
-0.237897
-0.459564
-0.421268
-0.39086
0.0327038
0.0342064
0.0400497
0.0400764
0.0875576
0.266233
0.468817
0.554678
0.562369
0.698639
0.657859
0.452751
0.85364
0.841643
0.750429
0.284472
-0.315221
-0.30138
-0.271734
0.022368
0.0193216
0.0141093
0.00682262
-0.00180979
-0.00758142
0.0306539
0.200345
0.28754
0.347349
0.344652
0.202653
0.199733
0.649096
0.690696
-0.00788476
-0.242528
-0.217148
-0.192699
0.0190697
0.0147556
0.00883804
0.00131447
-0.00810783
-0.019578
-0.032903
-0.0497595
-0.0646401
-0.0688354
-0.0845382
-0.172558
-0.228713
-0.192608
-0.0179612
-0.0601567
-0.170675
-0.0130444
-0.0482408
0.0162815
0.0111802
0.00488172
-0.00270402
-0.0118762
-0.0227949
-0.0358722
-0.0519321
-0.0730636
-0.102049
-0.137417
-0.171837
-0.072171
0.219269
0.179102
-0.0577221
-0.088596
0.778411
0.308785
0.0136724
0.00809811
0.0015699
-0.00603782
-0.0148702
-0.0255579
-0.0380023
-0.053308
-0.0722482
-0.0956396
-0.122531
-0.148383
0.0581643
0.27586
0.434366
0.266374
0.700516
0.910543
0.364039
0.0112371
0.00538293
-0.00128982
-0.00893965
-0.0177154
-0.027858
-0.0397974
-0.0540681
-0.070862
-0.0904764
-0.112168
-0.131247
-0.137672
0.076937
0.538733
0.872682
0.948861
0.950756
0.246371
0.00901875
0.00302121
-0.0036914
-0.0112969
-0.0199416
-0.0298067
-0.0410987
-0.0540771
-0.0688677
-0.0855653
-0.103482
-0.119338
-0.136461
-0.142099
0.0771212
0.473948
0.490749
0.716248
0.0709515
0.00704391
0.00101447
-0.00564521
-0.0130864
-0.021443
-0.0308492
-0.0414466
-0.0532841
-0.0664142
-0.0808048
-0.0959233
-0.110825
-0.124356
-0.137946
-0.1346
-0.129592
-0.143022
0.00960833
0.0899362
0.00532008
-0.00064986
-0.00717506
-0.0143783
-0.0223663
-0.0312362
-0.0410676
-0.0518756
-0.0636298
-0.0761886
-0.0892159
-0.102076
-0.114061
-0.125829
-0.136152
-0.141653
-0.14167
-0.141654
0.431697
0.00384115
-0.00199267
-0.00831344
-0.0152181
-0.0227879
-0.0310904
-0.0401651
-0.0500037
-0.0605312
-0.0716401
-0.0830283
-0.0942872
-0.105019
-0.114008
-0.119903
-0.126969
-0.12925
-0.127761
0.718698
0.00259409
-0.00304065
-0.00909938
-0.0156566
-0.0227724
-0.0304909
-0.0388283
-0.0477591
-0.0572015
-0.067006
-0.0771281
-0.0869821
-0.0964768
-0.102081
-0.106012
-0.108441
-0.112872
-0.119669
0.750415
0.00156227
-0.00382261
-0.00957381
-0.0157467
-0.022384
-0.029513
-0.0371353
-0.0452179
-0.0536847
-0.0624145
-0.071256
-0.0799143
-0.0883005
-0.0947605
-0.0974224
-0.0952575
-0.0985378
-0.10382
0.393767
0.000727697
-0.00436783
-0.00977706
-0.0155396
-0.0216845
-0.0282264
-0.0351583
-0.0424439
-0.0500133
-0.0577598
-0.0655452
-0.0731831
-0.0804594
-0.0870538
-0.0918652
-0.0919384
-0.0888415
-0.0909503
-0.0938881
7.11884e-05
-0.00470465
-0.00974702
-0.0150825
-0.0207294
-0.0266933
-0.0329617
-0.0394979
-0.0462374
-0.0530868
-0.0599249
-0.0666062
-0.0729546
-0.0786949
-0.0807736
-0.0787691
-0.0824357
-0.0829912
-0.0918274
-0.000426818
-0.00486046
-0.00951864
-0.0144177
-0.0195674
-0.024967
-0.0306005
-0.0364327
-0.0424049
-0.0484349
-0.0544184
-0.0602335
-0.0657405
-0.0707001
-0.0697817
-0.0636217
-0.0664461
-0.0727483
-0.0737546
-0.000786086
-0.00486091
-0.00912355
-0.0135821
-0.0182399
-0.0230917
-0.0281199
-0.0332912
-0.0385539
-0.0438356
-0.0490468
-0.054086
-0.0588465
-0.0631783
-0.0646585
-0.0555017
-0.0569104
-0.0585904
-0.0658271
-0.00102538
-0.0047298
-0.00858992
-0.0126076
-0.0167814
-0.021103
-0.0255548
-0.0301063
-0.0347125
-0.0393108
-0.0438226
-0.0481618
-0.0522495
-0.0559938
-0.059198
-0.0592746
-0.0487502
-0.0500847
-0.0659755
-0.00116249
-0.00448843
-0.00794218
-0.0115208
-0.0152197
-0.0190291
-0.0229317
-0.0269008
-0.0308978
-0.0348709
-0.0387517
-0.0424566
-0.0458913
-0.0490413
-0.0519254
-0.0542164
-0.0545232
-0.055034
-0.0580299
-0.00121357
-0.00415565
-0.00720115
-0.0103439
-0.0135773
-0.0168911
-0.0202696
-0.0236897
-0.0271195
-0.0305163
-0.0338255
-0.0369722
-0.0398148
-0.0422639
-0.044697
-0.0469307
-0.0483726
-0.0494448
-0.0500108
-0.00119283
-0.00374739
-0.006384
-0.0090944
-0.0118714
-0.0147052
-0.017582
-0.0204826
-0.0233809
-0.0262429
-0.0290253
-0.031673
-0.0340856
-0.0360186
-0.0377845
-0.0397174
-0.0411977
-0.0420402
-0.042283
-0.0011123
-0.00327711
-0.00550488
-0.00778669
-0.0101157
-0.0124834
-0.0148785
-0.0172852
-0.0196828
-0.0220444
-0.0243362
-0.0265163
-0.0285307
-0.0302484
-0.0313965
-0.0326297
-0.0340765
-0.0349029
-0.0347816
-0.000982417
-0.0027558
-0.00457526
-0.0064323
-0.00832134
-0.0102357
-0.0121664
-0.0141013
-0.0160241
-0.0179143
-0.0197457
-0.0214869
-0.0231013
-0.0245348
-0.0256038
-0.0261895
-0.0270316
-0.0277429
-0.0279286
-0.000812258
-0.00219284
-0.00360477
-0.00504102
-0.00649779
-0.00797036
-0.00945215
-0.010934
-0.0124038
-0.0138462
-0.0152418
-0.0165678
-0.0177973
-0.0188997
-0.0198105
-0.020253
-0.0205762
-0.0210295
-0.021574
-0.000609572
-0.00159629
-0.00260206
-0.00362192
-0.00465392
-0.00569529
-0.00674149
-0.00778616
-0.00882078
-0.00983459
-0.0108145
-0.011745
-0.0126086
-0.0133863
-0.0140534
-0.0145351
-0.014476
-0.0146959
-0.0155
-0.00038063
-0.000972844
-0.0015745
-0.00218282
-0.0027975
-0.00341729
-0.00403937
-0.00465973
-0.00527307
-0.00587282
-0.00645137
-0.00700046
-0.00751197
-0.00797692
-0.00838396
-0.00871594
-0.0088711
-0.00896345
-0.00929732
-0.000127904
-0.00032624
-0.000524686
-0.000722294
-0.000920116
-0.00111861
-0.001318
-0.00151782
-0.00171715
-0.00191487
-0.00210969
-0.00230007
-0.00248383
-0.00266015
-0.00283259
-0.00299515
-0.00311947
-0.00320011
-0.00322373
)
;

boundaryField
{
    leftWall
    {
        type            fixedFluxPressure;
        gradient        uniform 0;
        value           nonuniform List<scalar> 
50
(
6014.77
6013.46
6010.38
6002.52
5988.24
5941.04
4014.17
1133.96
1068.86
1066.05
1067.04
1039.51
603.595
370.178
13.3769
4.98655
0.365669
0.331024
0.295251
0.257582
0.224626
0.199611
0.183106
0.173653
0.168122
0.163349
0.157708
0.150911
0.143248
0.135068
0.126663
0.118176
0.109677
0.101039
0.0924995
0.0837373
0.0752095
0.0669072
0.0586216
0.0506346
0.043249
0.0365383
0.0308107
0.0258459
0.0215667
0.0177878
0.0170295
0.0139704
0.00987412
0.00214862
)
;
    }
    rightWall
    {
        type            fixedFluxPressure;
        gradient        uniform 0;
        value           nonuniform List<scalar> 
50
(
2996.43
2892.72
2309.88
1505.59
1355.37
1377.81
1385.47
1387.06
1338.12
1271.46
1264.1
1172.15
1166.5
1094.3
1173.09
1187.3
1199.24
1210.83
981.752
645.761
9.59979
-0.459213
-0.529261
-0.39086
-0.271734
-0.192699
-0.0482408
0.308785
0.364039
0.246371
0.0709515
0.0899362
0.431697
0.718698
0.750415
0.393767
-0.0938881
-0.0918274
-0.0737546
-0.0658271
-0.0659755
-0.0580299
-0.0500108
-0.042283
-0.0347816
-0.0279286
-0.021574
-0.0155
-0.00929732
-0.00322373
)
;
    }
    lowerWall
    {
        type            fixedFluxPressure;
        gradient        uniform 0;
        value           nonuniform List<scalar> 
62
(
6014.77
6017.12
6020.44
6019.31
6008.77
5984.38
5944.31
5889.76
5824.49
5752.58
5677.34
5600.27
5522.15
5443.26
5363.94
5285.26
5209.11
5138.24
5075.74
5023.01
4980.26
4948.82
4930.67
4930.67
4926.2
4917.82
4904.51
4638.4
2010.16
1081.41
1114.77
1343.49
1366.4
1379.01
1395.59
2859.88
2778.91
1781.31
1291.21
1240.05
1247.12
1469.89
1506.57
2859.88
2960.88
3144.28
3309.98
3419.68
3468.45
3470.97
3428.11
3346.93
3284.32
3245.91
3219.81
3185.99
3134.7
3066.58
3006.46
2970.11
2987.05
2996.43
)
;
    }
    atmosphere
    {
        type            totalPressure;
        rho             rho;
        psi             none;
        gamma           1;
        p0              uniform 0;
        value           nonuniform List<scalar> 
46
(
0
0
0
-1.60199e-06
-0.000151334
-0.000464243
-0.000878452
-0.00133303
-0.00170079
-0.00191839
-0.0019733
-0.00189252
-0.00170711
-0.00145656
-0.0011751
-0.00088841
-0.000615205
-0.000370753
-0.000170977
-3.86545e-05
0
0
0
0
0
0
0
0
0
0
0
0
0
0
0
0
0
0
0
0
0
0
0
0
0
0
)
;
    }
    defaultFaces
    {
        type            empty;
    }
}


// ************************************************************************* //
