/*--------------------------------*- C++ -*----------------------------------*\
| =========                 |                                                 |
| \\      /  F ield         | OpenFOAM: The Open Source CFD Toolbox           |
|  \\    /   O peration     | Version:  2312                                  |
|   \\  /    A nd           | Website:  www.openfoam.com                      |
|    \\/     M anipulation  |                                                 |
\*---------------------------------------------------------------------------*/
FoamFile
{
    version     2.0;
    format      ascii;
    arch        "LSB;label=32;scalar=64";
    class       surfaceScalarField;
    location    "3";
    object      phi;
}
// * * * * * * * * * * * * * * * * * * * * * * * * * * * * * * * * * * * * * //

dimensions      [0 3 -1 0 0 0 0];

oriented        oriented;

internalField   nonuniform List<scalar> 
4432
(
-6.64094e-07
6.64076e-07
-2.35173e-06
1.68762e-06
-4.19725e-06
1.84552e-06
-5.96121e-06
1.76395e-06
-7.44064e-06
1.47942e-06
-8.51064e-06
1.07e-06
-9.09495e-06
5.84315e-07
-9.18013e-06
8.51775e-08
-8.80816e-06
-3.71965e-07
-8.05584e-06
-7.52317e-07
-7.0276e-06
-1.02824e-06
-5.87191e-06
-1.15568e-06
-4.74448e-06
-1.12744e-06
-3.74279e-06
-1.00169e-06
-2.90967e-06
-8.33118e-07
-2.26288e-06
-6.46796e-07
-1.81026e-06
-4.52624e-07
-1.54492e-06
-2.65344e-07
-1.39588e-06
-1.49038e-07
-1.25696e-06
-1.38917e-07
-1.03856e-06
-2.184e-07
-7.22769e-07
-3.15795e-07
-7.22769e-07
-1.69411e-06
2.35813e-06
-3.48927e-06
3.48274e-06
-5.255e-06
3.61122e-06
-6.86405e-06
3.37298e-06
-8.20015e-06
2.8155e-06
-9.15498e-06
2.02481e-06
-9.64853e-06
1.07786e-06
-9.65833e-06
9.49681e-08
-9.22016e-06
-8.10133e-07
-8.40829e-06
-1.56418e-06
-7.32011e-06
-2.11642e-06
-6.10806e-06
-2.36771e-06
-4.93771e-06
-2.29777e-06
-3.90689e-06
-2.03249e-06
-3.0522e-06
-1.68779e-06
-2.38599e-06
-1.313e-06
-1.91409e-06
-9.24508e-07
-1.63589e-06
-5.43538e-07
-1.47502e-06
-3.09901e-07
-1.31475e-06
-2.99181e-07
-1.04856e-06
-4.84589e-07
-6.71789e-07
-6.92562e-07
-1.39455e-06
-2.27926e-06
4.63739e-06
-4.27964e-06
5.48311e-06
-6.09379e-06
5.42537e-06
-7.68866e-06
4.96784e-06
-8.98807e-06
4.11492e-06
-9.8909e-06
2.92763e-06
-1.03144e-05
1.50132e-06
-1.02435e-05
2.40739e-08
-9.71866e-06
-1.33493e-06
-8.81753e-06
-2.46531e-06
-7.62791e-06
-3.30603e-06
-6.31501e-06
-3.6806e-06
-5.06614e-06
-3.54663e-06
-3.98106e-06
-3.11755e-06
-3.08679e-06
-2.58205e-06
-2.383e-06
-2.01677e-06
-1.87119e-06
-1.43631e-06
-1.56845e-06
-8.46268e-07
-1.38917e-06
-4.8918e-07
-1.20278e-06
-4.85568e-07
-8.81758e-07
-8.05604e-07
-4.3267e-07
-1.14165e-06
-1.82722e-06
-2.69697e-06
7.33442e-06
-4.91949e-06
7.7057e-06
-6.83434e-06
7.34028e-06
-8.48404e-06
6.61758e-06
-9.8028e-06
5.4337e-06
-1.06912e-05
3.81605e-06
-1.10617e-05
1.87184e-06
-1.09185e-05
-1.19181e-07
-1.03066e-05
-1.94681e-06
-9.30983e-06
-3.46214e-06
-8.00021e-06
-4.61571e-06
-6.56516e-06
-5.1157e-06
-5.22212e-06
-4.8897e-06
-4.062e-06
-4.27768e-06
-3.10272e-06
-3.54134e-06
-2.33228e-06
-2.78721e-06
-1.74815e-06
-2.02042e-06
-1.40078e-06
-1.19363e-06
-1.19753e-06
-6.9242e-07
-9.95053e-07
-6.88036e-07
-6.54785e-07
-1.14586e-06
-1.808e-07
-1.61562e-06
-2.00801e-06
-2.77564e-06
1.01101e-05
-5.11893e-06
1.0049e-05
-7.21461e-06
9.43599e-06
-9.03142e-06
8.43442e-06
-1.05011e-05
6.90335e-06
-1.14868e-05
4.80179e-06
-1.1865e-05
2.25005e-06
-1.16411e-05
-3.43099e-07
-1.08989e-05
-2.68904e-06
-9.78239e-06
-4.57866e-06
-8.363e-06
-6.03511e-06
-6.84728e-06
-6.63143e-06
-5.45479e-06
-6.28221e-06
-4.23685e-06
-5.49562e-06
-3.21266e-06
-4.56554e-06
-2.38323e-06
-3.61664e-06
-1.7584e-06
-2.64526e-06
-1.39187e-06
-1.56016e-06
-1.18208e-06
-9.02206e-07
-9.69046e-07
-9.01071e-07
-6.60008e-07
-1.4549e-06
-1.97139e-07
-2.07849e-06
-2.20516e-06
-2.54385e-06
1.2654e-05
-4.90419e-06
1.24094e-05
-7.14324e-06
1.16751e-05
-9.09796e-06
1.03892e-05
-1.06423e-05
8.44775e-06
-1.16286e-05
5.78805e-06
-1.19286e-05
2.55004e-06
-1.16686e-05
-6.03088e-07
-1.08878e-05
-3.46989e-06
-9.84362e-06
-5.62284e-06
-8.50769e-06
-7.37109e-06
-7.08748e-06
-8.0517e-06
-5.79262e-06
-7.57712e-06
-4.63251e-06
-6.65576e-06
-3.60366e-06
-5.59442e-06
-2.88349e-06
-4.33684e-06
-2.52908e-06
-2.99965e-06
-2.18217e-06
-1.90705e-06
-1.91922e-06
-1.16512e-06
-1.69086e-06
-1.12941e-06
-1.43117e-06
-1.71457e-06
-8.92793e-07
-2.61685e-06
-3.09793e-06
-2.09531e-06
1.47494e-05
-4.28995e-06
1.46041e-05
-6.45986e-06
1.3845e-05
-8.43056e-06
1.23599e-05
-9.91017e-06
9.92736e-06
-1.09383e-05
6.81616e-06
-1.14921e-05
3.10388e-06
-1.11996e-05
-8.95652e-07
-1.04201e-05
-4.2494e-06
-9.40301e-06
-6.64002e-06
-8.13264e-06
-8.64152e-06
-6.75165e-06
-9.43274e-06
-5.30566e-06
-9.02313e-06
-3.74212e-06
-8.21931e-06
-2.13598e-06
-7.20056e-06
-2.60334e-06
-3.86945e-06
-5.66721e-06
6.42669e-08
-7.53363e-06
-4.05766e-08
-8.57558e-06
-1.23114e-07
-9.02198e-06
-6.82964e-07
-8.88691e-06
-1.84959e-06
-6.92402e-06
-4.5797e-06
-1.00219e-05
6.17117e-08
1.46876e-05
-3.77352e-07
1.50431e-05
-1.41897e-06
1.48866e-05
-2.73723e-06
1.36781e-05
-3.67985e-06
1.08699e-05
-3.46697e-06
6.60326e-06
-1.91843e-06
1.55533e-06
8.51928e-08
-2.89926e-06
2.32816e-07
-4.39699e-06
-7.6586e-07
-5.64131e-06
-1.5303e-06
-7.87704e-06
-2.08913e-06
-8.87387e-06
-2.97683e-06
-8.13538e-06
-4.29483e-06
-6.90126e-06
-5.66668e-06
-5.82865e-06
-9.17338e-06
-3.62711e-07
-1.09105e-05
1.80145e-06
-9.98876e-06
-9.62318e-07
-1.00777e-05
-3.4113e-08
-1.03704e-05
-3.9027e-07
-1.07611e-05
-1.45886e-06
-9.89982e-06
-5.44093e-06
-1.99218e-05
-4.88486e-06
4.88489e-06
-8.63562e-06
3.75078e-06
-1.12576e-05
2.62204e-06
-1.16786e-05
4.20944e-07
-1.02482e-05
-1.43035e-06
-8.43142e-06
-1.81679e-06
-6.91311e-06
-1.51829e-06
-6.08885e-06
-8.24247e-07
-6.93675e-06
8.47899e-07
-8.79843e-06
1.86168e-06
-1.03057e-05
1.50724e-06
-1.05453e-05
2.39658e-07
-9.36028e-06
-1.18506e-06
-6.99771e-06
-2.36257e-06
-4.23031e-06
-2.76742e-06
-1.76616e-06
-2.46415e-06
-2.98619e-08
-1.73631e-06
5.46768e-07
-5.76635e-07
5.46762e-07
-2.48402e-06
7.36897e-06
-5.84444e-06
7.11126e-06
-8.22004e-06
4.99766e-06
-8.30868e-06
5.096e-07
-6.52746e-06
-3.21157e-06
-4.57742e-06
-3.76684e-06
-2.82992e-06
-3.26576e-06
-1.64921e-06
-2.00495e-06
-2.00457e-06
1.20328e-06
-3.64323e-06
3.50034e-06
-5.33249e-06
3.19651e-06
-6.26113e-06
1.1683e-06
-6.33601e-06
-1.11017e-06
-5.5557e-06
-3.14287e-06
-4.31904e-06
-4.00407e-06
-3.16003e-06
-3.62315e-06
-1.9816e-06
-2.91474e-06
-6.07097e-07
-1.95114e-06
-6.03268e-08
-3.54364e-06
1.09127e-05
-7.01844e-06
1.05861e-05
-9.35016e-06
7.32941e-06
-8.98225e-06
1.41688e-07
-7.14369e-06
-5.05014e-06
-4.83493e-06
-6.07559e-06
-2.60396e-06
-5.49673e-06
-1.07651e-06
-3.53239e-06
-7.5351e-07
8.80267e-07
-2.22907e-06
4.9759e-06
-4.33677e-06
5.30418e-06
-6.01978e-06
2.85131e-06
-6.68107e-06
-4.48898e-07
-6.50357e-06
-3.32039e-06
-5.83694e-06
-4.67072e-06
-5.39277e-06
-4.06735e-06
-5.0929e-06
-3.21464e-06
-3.64507e-06
-3.39898e-06
-3.70543e-06
-1.98334e-06
1.28962e-05
-4.68708e-06
1.329e-05
-1.25355e-05
1.51779e-05
-1.45653e-05
2.1716e-06
-1.21474e-05
-7.46801e-06
-8.78277e-06
-9.44016e-06
-4.75812e-06
-9.52134e-06
-2.11862e-06
-6.17185e-06
-1.40766e-06
1.69341e-07
-4.31441e-06
7.88268e-06
-9.30228e-06
1.02921e-05
-1.40517e-05
7.60084e-06
-1.37927e-05
-7.07877e-07
-9.47807e-06
-7.63494e-06
-4.73328e-06
-9.41546e-06
-1.54828e-06
-7.2523e-06
-1.93007e-06
-2.83281e-06
-2.12583e-06
-3.20318e-06
-5.8312e-06
-6.53701e-07
1.355e-05
2.15768e-06
1.04787e-05
-1.93402e-06
1.92696e-05
-1.16836e-05
1.19212e-05
-1.81296e-05
-1.02193e-06
-1.80289e-05
-9.54087e-06
-1.49197e-05
-1.26306e-05
-1.30066e-05
-8.08492e-06
-1.35961e-05
7.58783e-07
-1.57745e-05
1.00611e-05
-1.99462e-05
1.44638e-05
-2.24346e-05
1.00892e-05
-1.70133e-05
-6.1293e-06
-8.50761e-06
-1.61406e-05
-8.6011e-07
-1.7063e-05
7.3415e-06
-1.5454e-05
1.00972e-05
-5.58859e-06
4.20708e-06
2.68691e-06
-1.62421e-06
6.35661e-06
7.19351e-06
7.82293e-06
9.01247e-06
1.64736e-06
2.54453e-05
-7.31018e-06
2.08788e-05
-1.8442e-05
1.01101e-05
-2.19266e-05
-6.05618e-06
-2.06186e-05
-1.39386e-05
-2.00891e-05
-8.61432e-06
-2.09081e-05
1.57788e-06
-1.99927e-05
9.14585e-06
-1.96779e-05
1.4149e-05
-1.82329e-05
8.64427e-06
-1.32083e-05
-1.11538e-05
-9.48118e-06
-1.98677e-05
-5.5833e-06
-2.09608e-05
2.07704e-06
-2.31143e-05
9.70921e-06
-1.32207e-05
7.33278e-06
5.06341e-06
5.70866e-06
7.53284e-06
-3.39279e-07
7.61258e-06
8.93279e-06
1.06583e-06
3.19922e-05
-7.56669e-06
2.95114e-05
-1.62841e-05
1.88276e-05
-2.30947e-05
7.54549e-07
-2.62118e-05
-1.08214e-05
-2.7621e-05
-7.20508e-06
-2.67254e-05
6.82453e-07
-2.10689e-05
3.4894e-06
-1.62062e-05
9.28639e-06
-1.2199e-05
4.6372e-06
-1.10324e-05
-1.23204e-05
-1.2053e-05
-1.88471e-05
-1.10193e-05
-2.19945e-05
-6.67448e-06
-2.7459e-05
1.7438e-06
-2.16389e-05
4.63802e-06
2.16927e-06
1.03467e-05
4.37456e-08
-3.8298e-07
4.66974e-07
8.5096e-06
-3.44295e-06
3.59021e-05
-1.00189e-05
3.60875e-05
-1.6361e-05
2.51697e-05
-2.35784e-05
7.97202e-06
-2.76043e-05
-6.79543e-06
-2.86722e-05
-6.13712e-06
-2.61446e-05
-1.84508e-06
-1.97842e-05
-2.87102e-06
-1.31444e-05
2.64659e-06
-8.90717e-06
4.00014e-07
-1.18004e-05
-9.42715e-06
-1.58308e-05
-1.48166e-05
-1.62748e-05
-2.15505e-05
-1.4652e-05
-2.90818e-05
-6.25985e-06
-3.00311e-05
1.6463e-06
-5.73686e-06
1.1993e-05
1.05758e-06
1.36298e-05
3.09095e-06
1.30095e-05
4.99771e-06
1.29797e-05
6.87743e-06
1.17983e-05
1.01137e-05
7.63365e-06
1.4724e-05
1.99288e-06
1.84413e-05
-2.16193e-06
2.00571e-05
-4.51496e-06
2.03019e-05
-4.64175e-06
1.90227e-05
-4.36205e-06
1.63402e-05
-5.19451e-06
1.2904e-05
-5.43758e-06
8.91833e-06
-4.14964e-06
4.53594e-06
-2.51882e-06
-2.23804e-08
-1.27029e-06
-6.45465e-06
6.06961e-06
-9.81971e-06
5.16655e-06
-1.19423e-05
1.16032e-06
-1.52127e-05
3.2363e-06
-1.84729e-05
2.86997e-06
-2.16542e-05
1.72253e-06
-2.51293e-05
-1.96592e-06
-8.81927e-06
-3.62317e-05
-4.70159e-07
1.40999e-05
1.10665e-06
1.14327e-05
3.85084e-06
1.02354e-05
8.42393e-06
7.22515e-06
1.39355e-05
2.1221e-06
1.90371e-05
-3.10874e-06
2.36259e-05
-6.75073e-06
2.63456e-05
-7.23466e-06
2.67778e-05
-5.07388e-06
2.56722e-05
-3.25635e-06
2.27775e-05
-2.29979e-06
1.82796e-05
-9.3964e-07
1.33928e-05
7.37188e-07
9.14171e-06
1.73233e-06
4.583e-06
3.28847e-06
4.00674e-06
6.6459e-06
5.53988e-06
3.63344e-06
1.75298e-06
4.94727e-06
-2.0099e-06
6.99921e-06
-4.91501e-06
5.77513e-06
-7.41418e-06
4.22171e-06
-1.4942e-05
5.56197e-06
1.3229e-05
-3.69903e-05
2.20721e-06
1.18927e-05
5.52673e-06
8.11312e-06
1.06938e-05
5.06834e-06
1.7149e-05
7.69973e-07
2.10771e-05
-1.80601e-06
2.25627e-05
-4.59433e-06
2.38775e-05
-8.06556e-06
2.7551e-05
-1.09081e-05
2.8744e-05
-6.26694e-06
2.63118e-05
-8.24047e-07
2.20018e-05
2.01018e-06
1.70643e-05
3.99796e-06
1.18371e-05
5.96442e-06
6.37424e-06
7.19522e-06
1.43768e-06
8.22506e-06
1.9535e-07
7.88828e-06
-3.28663e-06
7.11547e-06
-8.38412e-06
1.00448e-05
-1.26956e-05
1.13107e-05
-1.7468e-05
1.05476e-05
-2.24149e-05
9.16863e-06
-2.89843e-05
1.21315e-05
2.2231e-05
-3.79863e-05
6.89959e-06
4.99306e-06
1.24203e-05
2.59236e-06
1.78194e-05
-3.30776e-07
2.23406e-05
-3.75116e-06
2.46767e-05
-4.1421e-06
2.5114e-05
-5.03165e-06
2.03827e-05
-3.33427e-06
2.05202e-05
-1.10456e-05
1.96666e-05
-5.41336e-06
1.58964e-05
2.94613e-06
1.26099e-05
5.29673e-06
9.70906e-06
6.89875e-06
6.60225e-06
9.07123e-06
3.05853e-06
1.0739e-05
1.41837e-07
1.11418e-05
-2.69939e-06
1.07295e-05
-5.66917e-06
1.00853e-05
-7.05508e-06
1.14307e-05
-8.07954e-06
1.23352e-05
-1.01876e-05
1.26557e-05
-1.41006e-05
1.30817e-05
-1.87314e-05
1.67622e-05
2.45438e-05
-2.10442e-05
4.17288e-06
8.20173e-07
6.67627e-06
8.89731e-08
8.5967e-06
-2.25121e-06
9.85945e-06
-5.01391e-06
1.4242e-05
-8.52466e-06
1.78022e-05
-8.59188e-06
1.282e-05
1.64792e-06
6.08424e-06
-4.30991e-06
3.30267e-06
-2.63185e-06
4.13242e-06
2.11633e-06
7.06145e-06
2.36766e-06
9.97313e-06
3.98703e-06
1.25866e-05
6.4577e-06
1.43537e-05
8.97191e-06
1.48139e-05
1.06815e-05
1.35229e-05
1.20206e-05
1.048e-05
1.31283e-05
7.7474e-06
1.41634e-05
5.11754e-06
1.49651e-05
1.63645e-06
1.61368e-05
-2.71974e-06
1.74378e-05
-5.66917e-06
1.97116e-05
2.39907e-05
-5.11619e-06
-1.4182e-06
2.23846e-06
-2.24667e-06
9.17504e-07
-2.53374e-06
-1.9641e-06
-1.81208e-06
-5.73556e-06
-4.47083e-06
-5.86594e-06
-7.62779e-06
-5.43496e-06
-4.28418e-06
-1.69576e-06
-4.5716e-06
-4.02254e-06
2.24691e-06
-9.45041e-06
1.17742e-05
-7.41098e-06
1.96574e-05
-5.51557e-06
2.60746e-05
-2.43026e-06
3.15438e-05
9.88523e-07
3.49048e-05
5.61084e-06
3.62687e-05
9.31764e-06
3.52866e-05
1.30027e-05
3.22141e-05
1.62008e-05
2.86711e-05
1.77065e-05
2.5051e-05
1.85851e-05
1.99073e-05
2.12804e-05
1.30707e-05
2.42744e-05
7.47944e-06
2.53028e-05
2.4975e-05
6.49516e-06
-9.34666e-06
1.15852e-05
-2.34252e-05
1.49962e-05
-3.31142e-05
7.72493e-06
-3.08031e-05
-8.04674e-06
-2.7123e-05
-9.54602e-06
-1.95394e-05
-1.30184e-05
-2.65799e-07
-2.09692e-05
9.40549e-06
-1.36939e-05
1.58157e-05
-1.58611e-05
2.56991e-05
-1.72931e-05
3.37133e-05
-1.35277e-05
4.0764e-05
-9.47965e-06
4.6126e-05
-4.37283e-06
4.91765e-05
2.56082e-06
4.98808e-05
8.61365e-06
4.80486e-05
1.4835e-05
4.50014e-05
1.92479e-05
4.1939e-05
2.07689e-05
3.89982e-05
2.15259e-05
3.43597e-05
2.59189e-05
2.84389e-05
3.01952e-05
2.30825e-05
3.06593e-05
2.76131e-05
2.04446e-05
1.49972e-05
-3.41146e-06
3.09601e-05
-9.66457e-07
4.17975e-05
-3.11228e-06
4.57517e-05
-1.20008e-05
5.48433e-05
-1.86375e-05
7.1795e-05
-2.99698e-05
8.87363e-05
-3.791e-05
0.000106834
-3.17921e-05
0.000105015
-1.40442e-05
9.062e-05
-2.90007e-06
6.78987e-05
9.19228e-06
4.31771e-05
1.52416e-05
2.32741e-05
1.5531e-05
1.55073e-05
1.03284e-05
9.34841e-06
1.47731e-05
1.2466e-05
1.17176e-05
2.08313e-05
1.08825e-05
2.49465e-05
1.66532e-05
3.01559e-05
1.63162e-05
3.29562e-05
2.31183e-05
3.2138e-05
3.10132e-05
2.91136e-05
3.36838e-05
2.8626e-05
2.81008e-05
1.70416e-05
-2.04524e-05
3.97245e-05
-2.36486e-05
6.07892e-05
-2.41765e-05
7.34192e-05
-2.46303e-05
8.12754e-05
-2.64933e-05
8.3296e-05
-3.199e-05
8.01221e-05
-3.47353e-05
7.64212e-05
-2.80902e-05
7.4697e-05
-1.23191e-05
6.93738e-05
2.42168e-06
6.75665e-05
1.09969e-05
6.80567e-05
1.47495e-05
6.87974e-05
1.47896e-05
6.44247e-05
1.47014e-05
6.24411e-05
1.67571e-05
5.67948e-05
1.73642e-05
5.07693e-05
1.69082e-05
4.66708e-05
2.07521e-05
3.90489e-05
2.39382e-05
2.59944e-05
3.61728e-05
6.8511e-06
5.01567e-05
1.19214e-05
2.86135e-05
2.35974e-05
1.69494e-05
2.14063e-05
-4.18579e-05
3.94334e-05
-4.16752e-05
5.56751e-05
-4.04177e-05
6.99085e-05
-3.88633e-05
7.99734e-05
-3.65578e-05
8.09923e-05
-3.30084e-05
7.45751e-05
-2.83176e-05
6.69872e-05
-2.05013e-05
6.41433e-05
-9.47396e-06
6.68394e-05
-2.73247e-07
7.28215e-05
5.01528e-06
8.05374e-05
7.03373e-06
8.86994e-05
6.62757e-06
9.63681e-05
7.0328e-06
0.000103282
9.84387e-06
0.000106767
1.38788e-05
0.000104945
1.87304e-05
9.93586e-05
2.63386e-05
8.73369e-05
3.5961e-05
7.39608e-05
4.95515e-05
6.23034e-05
6.18155e-05
3.86717e-05
5.22441e-05
3.41003e-05
2.81687e-05
1.93195e-05
-6.1177e-05
3.45559e-05
-5.69112e-05
4.65541e-05
-5.24156e-05
5.57082e-05
-4.8017e-05
6.1949e-05
-4.27982e-05
6.4747e-05
-3.58059e-05
6.45209e-05
-2.8091e-05
6.38552e-05
-1.9835e-05
6.5847e-05
-1.14651e-05
7.02588e-05
-4.68441e-06
7.66152e-05
-1.34056e-06
8.39078e-05
-2.58593e-07
9.13183e-05
-7.82622e-07
9.86481e-05
-2.96905e-07
0.00010567
2.8222e-06
0.000111091
8.45766e-06
0.000113879
1.59424e-05
0.000114474
2.57435e-05
0.000113183
3.7252e-05
0.000113485
4.92507e-05
0.000118654
5.66477e-05
0.000116747
5.41511e-05
4.96815e-05
0.000101165
1.34031e-05
-7.45795e-05
2.47855e-05
-6.82932e-05
3.37997e-05
-6.14293e-05
4.02937e-05
-5.45107e-05
4.46095e-05
-4.71137e-05
4.76158e-05
-3.88119e-05
4.95143e-05
-2.99891e-05
5.10893e-05
-2.14098e-05
5.40411e-05
-1.44166e-05
5.86088e-05
-9.25184e-06
6.41264e-05
-6.85791e-06
6.95031e-05
-5.63503e-06
7.44549e-05
-5.73427e-06
7.97763e-05
-5.61827e-06
8.58685e-05
-3.27e-06
9.27693e-05
1.55674e-06
9.96121e-05
9.09949e-06
0.000105994
1.93618e-05
0.000112236
3.10099e-05
0.0001194
4.20856e-05
0.000126735
4.93136e-05
0.000129946
5.09399e-05
4.88615e-05
0.000130766
7.6725e-06
-8.22517e-05
1.43283e-05
-7.49487e-05
1.94573e-05
-6.6558e-05
2.32557e-05
-5.83088e-05
2.61541e-05
-5.00119e-05
2.854e-05
-4.11975e-05
3.05239e-05
-3.19728e-05
3.24138e-05
-2.32994e-05
3.45318e-05
-1.65345e-05
3.68659e-05
-1.15857e-05
3.87944e-05
-8.78624e-06
4.00606e-05
-6.90116e-06
4.2266e-05
-7.93958e-06
4.5428e-05
-8.78021e-06
5.00813e-05
-7.92331e-06
5.71987e-05
-5.56068e-06
6.62047e-05
9.3413e-08
7.5629e-05
9.93751e-06
8.55663e-05
2.10724e-05
9.62798e-05
3.13719e-05
0.000106261
3.93321e-05
0.00011345
4.37509e-05
4.53898e-05
0.000116921
2.6854e-06
-8.49367e-05
4.7676e-06
-7.70306e-05
5.99755e-06
-6.77876e-05
6.59759e-06
-5.89086e-05
6.97061e-06
-5.03847e-05
7.26356e-06
-4.14902e-05
7.40384e-06
-3.21129e-05
7.1973e-06
-2.30927e-05
5.93831e-06
-1.52754e-05
4.34359e-06
-9.9909e-06
3.91757e-06
-8.36013e-06
4.96889e-06
-7.9524e-06
6.35615e-06
-9.3268e-06
7.76802e-06
-1.01921e-05
9.66194e-06
-9.81721e-06
1.32549e-05
-9.15365e-06
1.98149e-05
-6.46655e-06
2.92474e-05
5.04938e-07
4.21666e-05
8.15313e-06
5.57964e-05
1.77419e-05
6.80906e-05
2.70378e-05
7.78398e-05
3.40015e-05
3.91947e-05
8.4035e-05
-1.63219e-06
-8.33043e-05
-3.5967e-06
-7.50658e-05
-6.01952e-06
-6.53646e-05
-8.76128e-06
-5.61666e-05
-1.15437e-05
-4.76021e-05
-1.44917e-05
-3.85421e-05
-1.76315e-05
-2.8973e-05
-2.10064e-05
-1.97176e-05
-2.4439e-05
-1.18427e-05
-2.627e-05
-8.15974e-06
-2.55992e-05
-9.03089e-06
-2.31481e-05
-1.04035e-05
-2.26216e-05
-9.85319e-06
-2.32731e-05
-9.54056e-06
-2.30261e-05
-1.00642e-05
-2.1087e-05
-1.10927e-05
-1.76231e-05
-9.9305e-06
-1.06357e-05
-6.48237e-06
-1.1029e-07
-2.37235e-06
1.23205e-05
5.31107e-06
2.46429e-05
1.47153e-05
3.55548e-05
2.30896e-05
3.11896e-05
4.35601e-05
-5.04352e-06
-7.82604e-05
-1.02504e-05
-6.98586e-05
-1.55296e-05
-6.00852e-05
-2.09662e-05
-5.07299e-05
-2.65181e-05
-4.205e-05
-3.20173e-05
-3.30427e-05
-3.71442e-05
-2.38459e-05
-4.09374e-05
-1.59242e-05
-4.22005e-05
-1.05796e-05
-4.08456e-05
-9.5145e-06
-3.87934e-05
-1.10831e-05
-3.76259e-05
-1.15709e-05
-3.75263e-05
-9.95276e-06
-3.76577e-05
-9.40908e-06
-3.72447e-05
-1.04772e-05
-3.59135e-05
-1.24239e-05
-3.37923e-05
-1.20517e-05
-3.10403e-05
-9.23441e-06
-2.72821e-05
-6.1305e-06
-2.13082e-05
-6.62902e-07
-1.30359e-05
6.44296e-06
-3.90493e-06
1.39586e-05
2.19961e-05
5.28881e-06
-7.35808e-06
-7.09022e-05
-1.44931e-05
-6.27234e-05
-2.12838e-05
-5.32944e-05
-2.77118e-05
-4.43017e-05
-3.37847e-05
-3.5977e-05
-3.87658e-05
-2.80615e-05
-4.19495e-05
-2.06622e-05
-4.28518e-05
-1.50217e-05
-4.17173e-05
-1.1714e-05
-4.02915e-05
-1.09403e-05
-3.99271e-05
-1.14474e-05
-4.00886e-05
-1.14094e-05
-3.94173e-05
-1.0624e-05
-3.85348e-05
-1.02915e-05
-3.81298e-05
-1.08821e-05
-3.8575e-05
-1.19786e-05
-3.91404e-05
-1.14864e-05
-3.94501e-05
-8.92469e-06
-3.94757e-05
-6.10493e-06
-3.76848e-05
-2.45389e-06
-3.36235e-05
2.3816e-06
-2.77674e-05
8.10262e-06
1.4217e-05
-1.99882e-05
-8.38171e-06
-6.25202e-05
-1.60973e-05
-5.50075e-05
-2.2896e-05
-4.64955e-05
-2.86392e-05
-3.85583e-05
-3.32804e-05
-3.13356e-05
-3.64445e-05
-2.48973e-05
-3.77257e-05
-1.93809e-05
-3.74584e-05
-1.52889e-05
-3.63348e-05
-1.28376e-05
-3.53735e-05
-1.19016e-05
-3.5063e-05
-1.17577e-05
-3.49309e-05
-1.15415e-05
-3.44855e-05
-1.10694e-05
-3.40458e-05
-1.07312e-05
-3.42022e-05
-1.07256e-05
-3.54798e-05
-1.0701e-05
-3.71992e-05
-9.76693e-06
-3.82863e-05
-7.83767e-06
-3.89738e-05
-5.41743e-06
-3.89486e-05
-2.47916e-06
-3.75895e-05
1.0225e-06
-3.46377e-05
5.15076e-06
9.48386e-06
-2.99044e-05
-8.42078e-06
-5.40993e-05
-1.58592e-05
-4.7569e-05
-2.19834e-05
-4.03712e-05
-2.66807e-05
-3.38608e-05
-2.99633e-05
-2.8053e-05
-3.1832e-05
-2.30285e-05
-3.231e-05
-1.89028e-05
-3.17676e-05
-1.58312e-05
-3.07598e-05
-1.38453e-05
-2.98813e-05
-1.278e-05
-2.94045e-05
-1.22345e-05
-2.91641e-05
-1.17818e-05
-2.89676e-05
-1.12658e-05
-2.89297e-05
-1.0769e-05
-2.93353e-05
-1.032e-05
-3.03306e-05
-9.70569e-06
-3.15406e-05
-8.55697e-06
-3.25685e-05
-6.80968e-06
-3.33707e-05
-4.61529e-06
-3.37922e-05
-2.05771e-06
-3.35054e-05
7.35634e-07
-3.22197e-05
3.86518e-06
7.0506e-06
-2.97864e-05
-7.97208e-06
-4.61269e-05
-1.48484e-05
-4.06924e-05
-2.02851e-05
-3.49344e-05
-2.42124e-05
-2.99334e-05
-2.67139e-05
-2.55514e-05
-2.79352e-05
-2.1807e-05
-2.80968e-05
-1.87411e-05
-2.75381e-05
-1.63898e-05
-2.66685e-05
-1.47148e-05
-2.58652e-05
-1.35832e-05
-2.5321e-05
-1.27787e-05
-2.50139e-05
-1.20888e-05
-2.4874e-05
-1.14057e-05
-2.4933e-05
-1.07099e-05
-2.52898e-05
-9.96319e-06
-2.59601e-05
-9.03538e-06
-2.67572e-05
-7.75981e-06
-2.74817e-05
-6.0852e-06
-2.80376e-05
-4.0594e-06
-2.83318e-05
-1.76361e-06
-2.82466e-05
6.50435e-07
-2.75757e-05
3.19429e-06
5.71918e-06
-2.62442e-05
-7.39177e-06
-3.87351e-05
-1.37162e-05
-3.43679e-05
-1.86491e-05
-3.00013e-05
-2.21502e-05
-2.64322e-05
-2.43257e-05
-2.33759e-05
-2.53652e-05
-2.07674e-05
-2.55203e-05
-1.85859e-05
-2.50932e-05
-1.68169e-05
-2.43947e-05
-1.54132e-05
-2.36873e-05
-1.42906e-05
-2.3124e-05
-1.33419e-05
-2.27441e-05
-1.24686e-05
-2.25427e-05
-1.16071e-05
-2.25323e-05
-1.07202e-05
-2.27351e-05
-9.76036e-06
-2.31245e-05
-8.64596e-06
-2.35928e-05
-7.29152e-06
-2.40167e-05
-5.66128e-06
-2.43036e-05
-3.77255e-06
-2.43815e-05
-1.68577e-06
-2.41985e-05
4.67462e-07
-2.36738e-05
2.66961e-06
4.7918e-06
-2.27463e-05
-6.84262e-06
-3.18922e-05
-1.27058e-05
-2.85045e-05
-1.72912e-05
-2.54158e-05
-2.05754e-05
-2.31479e-05
-2.26638e-05
-2.12874e-05
-2.37403e-05
-1.96909e-05
-2.4037e-05
-1.82891e-05
-2.38087e-05
-1.70451e-05
-2.32983e-05
-1.59235e-05
-2.27034e-05
-1.48855e-05
-2.21543e-05
-1.38909e-05
-2.17178e-05
-1.2905e-05
-2.14225e-05
-1.19023e-05
-2.1284e-05
-1.08586e-05
-2.13038e-05
-9.74059e-06
-2.14496e-05
-8.50004e-06
-2.16508e-05
-7.09032e-06
-2.18226e-05
-5.48949e-06
-2.18885e-05
-3.70665e-06
-2.17881e-05
-1.78623e-06
-2.14919e-05
1.71347e-07
-2.09533e-05
2.13097e-06
3.9934e-06
-2.01548e-05
-6.37621e-06
-2.5516e-05
-1.18712e-05
-2.30094e-05
-1.62076e-05
-2.10794e-05
-1.93693e-05
-1.99861e-05
-2.1452e-05
-1.92046e-05
-2.26177e-05
-1.85251e-05
-2.30662e-05
-1.78406e-05
-2.30099e-05
-1.71013e-05
-2.26478e-05
-1.62855e-05
-2.21453e-05
-1.53879e-05
-2.16224e-05
-1.44136e-05
-2.11558e-05
-1.33716e-05
-2.0789e-05
-1.2269e-05
-2.05423e-05
-1.11053e-05
-2.04147e-05
-9.86815e-06
-2.03797e-05
-8.53506e-06
-2.03868e-05
-7.08323e-06
-2.03739e-05
-5.50238e-06
-2.02794e-05
-3.8011e-06
-2.00519e-05
-2.01371e-06
-1.96762e-05
-2.04351e-07
-1.91106e-05
1.5655e-06
3.23965e-06
-1.83568e-05
-5.99586e-06
-1.95198e-05
-1.12e-05
-1.78051e-05
-1.53477e-05
-1.69316e-05
-1.84218e-05
-1.69119e-05
-2.05022e-05
-1.71241e-05
-2.17267e-05
-1.73006e-05
-2.2266e-05
-1.73012e-05
-2.23039e-05
-1.70634e-05
-2.20169e-05
-1.65725e-05
-2.15576e-05
-1.58471e-05
-2.10447e-05
-1.49264e-05
-2.05601e-05
-1.38562e-05
-2.01521e-05
-1.26769e-05
-1.98417e-05
-1.14156e-05
-1.96267e-05
-1.00831e-05
-1.94845e-05
-8.67729e-06
-1.93755e-05
-7.19217e-06
-1.92516e-05
-5.62625e-06
-1.90632e-05
-3.98951e-06
-1.87691e-05
-2.30777e-06
-1.8347e-05
-6.26456e-07
-1.77792e-05
9.97682e-07
2.52833e-06
-1.70678e-05
-5.68716e-06
-1.38327e-05
-1.0659e-05
-1.28332e-05
-1.4659e-05
-1.29314e-05
-1.76608e-05
-1.391e-05
-1.9724e-05
-1.50608e-05
-2.09618e-05
-1.60627e-05
-2.15224e-05
-1.67404e-05
-2.15737e-05
-1.7012e-05
-2.12848e-05
-1.68613e-05
-2.0809e-05
-1.63228e-05
-2.02704e-05
-1.5465e-05
-1.97564e-05
-1.43701e-05
-1.93179e-05
-1.31154e-05
-1.89736e-05
-1.17599e-05
-1.8718e-05
-1.03387e-05
-1.85277e-05
-8.86759e-06
-1.83675e-05
-7.35226e-06
-1.81964e-05
-5.79733e-06
-1.79729e-05
-4.21302e-06
-1.76623e-05
-2.61836e-06
-1.72433e-05
-1.04548e-06
-1.67081e-05
4.62654e-07
1.87666e-06
-1.60565e-05
-5.4249e-06
-8.40746e-06
-1.02003e-05
-8.05769e-06
-1.40766e-05
-9.05499e-06
-1.70104e-05
-1.09761e-05
-1.9038e-05
-1.30331e-05
-2.02492e-05
-1.48514e-05
-2.07764e-05
-1.62132e-05
-2.07809e-05
-1.70075e-05
-2.04339e-05
-1.72082e-05
-1.98955e-05
-1.68612e-05
-1.9298e-05
-1.60624e-05
-1.87361e-05
-1.4932e-05
-1.82633e-05
-1.35881e-05
-1.7897e-05
-1.21261e-05
-1.76271e-05
-1.06085e-05
-1.74265e-05
-9.06812e-06
-1.72596e-05
-7.51914e-06
-1.70878e-05
-5.9691e-06
-1.68743e-05
-4.42656e-06
-1.65886e-05
-2.90403e-06
-1.62121e-05
-1.42196e-06
-1.57392e-05
-1.02739e-08
1.30997e-06
-1.51724e-05
-5.17573e-06
-3.23181e-06
-9.75749e-06
-3.47586e-06
-1.35063e-05
-5.30609e-06
-1.63574e-05
-8.12498e-06
-1.83216e-05
-1.10689e-05
-1.94686e-05
-1.37042e-05
-1.99223e-05
-1.57594e-05
-1.98452e-05
-1.70845e-05
-1.94152e-05
-1.76381e-05
-1.87986e-05
-1.74777e-05
-1.81333e-05
-1.67275e-05
-1.75191e-05
-1.55462e-05
-1.7013e-05
-1.40941e-05
-1.66327e-05
-1.25065e-05
-1.63648e-05
-1.08764e-05
-1.61779e-05
-9.25498e-06
-1.60334e-05
-7.66358e-06
-1.58925e-05
-6.10997e-06
-1.57204e-05
-4.59867e-06
-1.54892e-05
-3.13518e-06
-1.5182e-05
-1.72915e-06
-1.47947e-05
-3.97473e-07
8.45254e-07
-1.43299e-05
-4.89851e-06
1.66698e-06
-9.252e-06
8.77775e-07
-1.28319e-05
-1.72604e-06
-1.55589e-05
-5.39794e-06
-1.74178e-05
-9.20982e-06
-1.84608e-05
-1.26612e-05
-1.8811e-05
-1.54092e-05
-1.86397e-05
-1.72558e-05
-1.81329e-05
-1.81448e-05
-1.74579e-05
-1.81527e-05
-1.67498e-05
-1.74356e-05
-1.61065e-05
-1.61895e-05
-1.55864e-05
-1.46142e-05
-1.5209e-05
-1.28838e-05
-1.49608e-05
-1.11246e-05
-1.48074e-05
-9.40836e-06
-1.47069e-05
-7.764e-06
-1.46192e-05
-6.1977e-06
-1.45098e-05
-4.70801e-06
-1.43525e-05
-3.29254e-06
-1.41313e-05
-1.95023e-06
-1.38429e-05
-6.85989e-07
4.92845e-07
-1.34904e-05
-4.50597e-06
6.1729e-06
-8.58818e-06
4.96005e-06
-1.19288e-05
1.61468e-06
-1.44722e-05
-2.8545e-06
-1.61766e-05
-7.50527e-06
-1.70768e-05
-1.1761e-05
-1.73044e-05
-1.51815e-05
-1.70445e-05
-1.75155e-05
-1.64929e-05
-1.86964e-05
-1.58087e-05
-1.88369e-05
-1.51126e-05
-1.81316e-05
-1.449e-05
-1.6812e-05
-1.39953e-05
-1.51088e-05
-1.36504e-05
-1.32287e-05
-1.34449e-05
-1.133e-05
-1.33453e-05
-9.50797e-06
-1.33079e-05
-7.80141e-06
-1.32908e-05
-6.21469e-06
-1.32598e-05
-4.73909e-06
-1.31889e-05
-3.36339e-06
-1.30633e-05
-2.07585e-06
-1.28796e-05
-8.69492e-07
2.55833e-07
-1.26427e-05
-3.95557e-06
1.01287e-05
-7.60135e-06
8.60592e-06
-1.0671e-05
4.6844e-06
-1.29827e-05
-5.42706e-07
-1.44922e-05
-5.99574e-06
-1.52317e-05
-1.10215e-05
-1.53288e-05
-1.50843e-05
-1.50019e-05
-1.78424e-05
-1.44541e-05
-1.92441e-05
-1.38278e-05
-1.94632e-05
-1.32167e-05
-1.87427e-05
-1.26813e-05
-1.73473e-05
-1.22641e-05
-1.5526e-05
-1.19882e-05
-1.35046e-05
-1.18506e-05
-1.14675e-05
-1.18235e-05
-9.53512e-06
-1.18647e-05
-7.76019e-06
-1.19318e-05
-6.14758e-06
-1.19898e-05
-4.68107e-06
-1.20135e-05
-3.33968e-06
-1.19882e-05
-2.10109e-06
-1.19108e-05
-9.47011e-07
1.31988e-07
-1.17868e-05
-3.26094e-06
1.33895e-05
-6.32906e-06
1.1674e-05
-9.00316e-06
7.35852e-06
-1.10349e-05
1.48906e-06
-1.23309e-05
-4.69972e-06
-1.2911e-05
-1.04413e-05
-1.29014e-05
-1.50938e-05
-1.25415e-05
-1.82023e-05
-1.20562e-05
-1.97294e-05
-1.15596e-05
-1.99597e-05
-1.11096e-05
-1.91926e-05
-1.0731e-05
-1.77259e-05
-1.04456e-05
-1.58114e-05
-1.02742e-05
-1.3676e-05
-1.02245e-05
-1.15172e-05
-1.02809e-05
-9.47868e-06
-1.04086e-05
-7.63252e-06
-1.05663e-05
-5.98981e-06
-1.07188e-05
-4.52866e-06
-1.08405e-05
-3.21791e-06
-1.09161e-05
-2.02548e-06
-1.09424e-05
-9.20465e-07
1.15308e-07
-1.09258e-05
-2.47243e-06
1.58621e-05
-4.83394e-06
1.40356e-05
-6.96392e-06
9.4885e-06
-8.67272e-06
3.19787e-06
-9.72992e-06
-3.64252e-06
-1.01658e-05
-1.00054e-05
-1.01047e-05
-1.51549e-05
-9.77799e-06
-1.85289e-05
-9.41753e-06
-2.00898e-05
-9.11658e-06
-2.02607e-05
-8.89334e-06
-1.94159e-05
-8.73112e-06
-1.78882e-05
-8.62399e-06
-1.59185e-05
-8.58483e-06
-1.37152e-05
-8.6321e-06
-1.14699e-05
-8.76972e-06
-9.34107e-06
-8.97788e-06
-7.42437e-06
-9.22154e-06
-5.74617e-06
-9.46528e-06
-4.28494e-06
-9.68192e-06
-3.00127e-06
-9.85492e-06
-1.85241e-06
-9.97947e-06
-7.96126e-07
1.97238e-07
-1.00613e-05
-1.64265e-06
1.75045e-05
-3.2197e-06
1.56126e-05
-4.70217e-06
1.09709e-05
-5.96269e-06
4.45834e-06
-6.76028e-06
-2.84496e-06
-7.09922e-06
-9.66652e-06
-7.07144e-06
-1.51827e-05
-6.87669e-06
-1.87237e-05
-6.71501e-06
-2.02515e-05
-6.66428e-06
-2.03114e-05
-6.7114e-06
-1.93688e-05
-6.80303e-06
-1.77966e-05
-6.90427e-06
-1.58173e-05
-7.01337e-06
-1.36061e-05
-7.15473e-06
-1.13286e-05
-7.35534e-06
-9.1405e-06
-7.62049e-06
-7.15926e-06
-7.92942e-06
-5.43728e-06
-8.24912e-06
-3.96527e-06
-8.5496e-06
-2.70082e-06
-8.81053e-06
-1.5916e-06
-9.02259e-06
-5.8386e-07
3.65872e-07
-9.19138e-06
-8.41184e-07
1.83458e-05
-1.59927e-06
1.63706e-05
-2.33768e-06
1.17092e-05
-3.02328e-06
5.14386e-06
-3.49493e-06
-2.37338e-06
-3.81926e-06
-9.34226e-06
-3.97092e-06
-1.50311e-05
-4.03087e-06
-1.86638e-05
-4.1576e-06
-2.01249e-05
-4.39658e-06
-2.00725e-05
-4.72885e-06
-1.90366e-05
-5.0803e-06
-1.74452e-05
-5.39479e-06
-1.55029e-05
-5.65308e-06
-1.33479e-05
-5.87617e-06
-1.11056e-05
-6.10992e-06
-8.90682e-06
-6.3919e-06
-6.87734e-06
-6.72743e-06
-5.10182e-06
-7.09306e-06
-3.59971e-06
-7.45613e-06
-2.33782e-06
-7.78929e-06
-1.25842e-06
-8.07699e-06
-2.96447e-07
6.05425e-07
-8.31649e-06
-1.21473e-07
1.84669e-05
-4.43474e-08
1.62933e-05
-7.08909e-08
1.17356e-05
2.44876e-08
5.04835e-06
-5.86118e-08
-2.2904e-06
-4.22538e-07
-8.97845e-06
-9.44341e-07
-1.45094e-05
-1.43837e-06
-1.81699e-05
-1.9394e-06
-1.96239e-05
-2.49334e-06
-1.95187e-05
-3.10062e-06
-1.84294e-05
-3.68618e-06
-1.68597e-05
-4.18906e-06
-1.50001e-05
-4.57824e-06
-1.29588e-05
-4.86373e-06
-1.08202e-05
-5.09795e-06
-8.67269e-06
-5.34793e-06
-6.62746e-06
-5.65636e-06
-4.79349e-06
-6.02224e-06
-3.23392e-06
-6.41431e-06
-1.94584e-06
-6.79655e-06
-8.76322e-07
-7.14066e-06
4.78748e-08
9.01576e-07
-7.437e-06
5.8444e-07
1.78825e-05
1.38677e-06
1.54908e-05
2.21655e-06
1.09057e-05
2.93768e-06
4.32706e-06
3.15417e-06
-2.50704e-06
2.72282e-06
-8.54725e-06
1.81186e-06
-1.35986e-05
7.87474e-07
-1.71456e-05
-1.74334e-07
-1.86623e-05
-1.0688e-06
-1.86243e-05
-1.92985e-06
-1.75685e-05
-2.70361e-06
-1.60861e-05
-3.34527e-06
-1.43586e-05
-3.82687e-06
-1.24773e-05
-4.14879e-06
-1.04984e-05
-4.35649e-06
-8.46511e-06
-4.53157e-06
-6.4525e-06
-4.75438e-06
-4.5708e-06
-5.06221e-06
-2.9262e-06
-5.43864e-06
-1.56951e-06
-5.83928e-06
-4.7569e-07
-6.22101e-06
4.29201e-07
1.23689e-06