/*--------------------------------*- C++ -*----------------------------------*\
| =========                 |                                                 |
| \\      /  F ield         | OpenFOAM: The Open Source CFD Toolbox           |
|  \\    /   O peration     | Version:  2312                                  |
|   \\  /    A nd           | Website:  www.openfoam.com                      |
|    \\/     M anipulation  |                                                 |
\*---------------------------------------------------------------------------*/
FoamFile
{
    version     2.0;
    format      ascii;
    arch        "LSB;label=32;scalar=64";
    class       volVectorField;
    location    "3";
    object      U;
}
// * * * * * * * * * * * * * * * * * * * * * * * * * * * * * * * * * * * * * //

dimensions      [0 1 -1 0 0 0 0];

internalField   nonuniform List<vector> 
2268
(
(0.000567449 -0.00128989 0)
(-0.0156719 0.00350906 0)
(-0.0370558 0.00487867 0)
(-0.0581746 0.00504919 0)
(-0.077183 0.00432666 0)
(-0.0919425 0.00319303 0)
(-0.101495 0.0018307 0)
(-0.105228 0.000449832 0)
(-0.1034 -0.000785837 0)
(-0.0967923 -0.00181376 0)
(-0.086471 -0.00260147 0)
(-0.0739059 -0.00301038 0)
(-0.0608209 -0.00299228 0)
(-0.0486395 -0.00269908 0)
(-0.0381418 -0.00227394 0)
(-0.0296602 -0.00178893 0)
(-0.0233554 -0.00128688 0)
(-0.0192656 -0.000818373 0)
(-0.0169732 -0.000552346 0)
(-0.0153965 -0.000571647 0)
(-0.0132966 -0.000824122 0)
(-0.00998294 -0.00110738 0)
(-0.00718985 -0.0023638 0)
(-0.0107473 0.00855432 0)
(-0.028494 0.0145824 0)
(-0.0500595 0.0150654 0)
(-0.0693454 0.0141515 0)
(-0.0865564 0.0118701 0)
(-0.0998912 0.00859881 0)
(-0.10834 0.00468258 0)
(-0.111136 0.000602355 0)
(-0.108497 -0.0031492 0)
(-0.101177 -0.00623252 0)
(-0.0901597 -0.00846987 0)
(-0.0768921 -0.00949607 0)
(-0.0632127 -0.0092359 0)
(-0.0506252 -0.00817714 0)
(-0.0398569 -0.00677277 0)
(-0.0311579 -0.00523832 0)
(-0.0246413 -0.00365236 0)
(-0.0203797 -0.00210865 0)
(-0.0179613 -0.00114512 0)
(-0.0161919 -0.00105909 0)
(-0.0136914 -0.0017284 0)
(-0.00986275 -0.002568 0)
(-0.00617691 -0.00585915 0)
(-0.0161453 0.0178081 0)
(-0.0370002 0.0236126 0)
(-0.0595534 0.0240548 0)
(-0.0788784 0.0222513 0)
(-0.0957857 0.0185147 0)
(-0.108657 0.0132587 0)
(-0.116434 0.00694097 0)
(-0.118346 0.000407178 0)
(-0.114729 -0.0055951 0)
(-0.1064 -0.0106054 0)
(-0.0942717 -0.0143357 0)
(-0.0797953 -0.0160432 0)
(-0.0650481 -0.0155559 0)
(-0.0517114 -0.0137745 0)
(-0.0404424 -0.0114548 0)
(-0.0313305 -0.00892864 0)
(-0.0243751 -0.00629659 0)
(-0.0197442 -0.0036822 0)
(-0.0170926 -0.00210152 0)
(-0.0150473 -0.00205708 0)
(-0.012039 -0.00337352 0)
(-0.00779625 -0.00481678 0)
(-0.00277044 -0.00890039 0)
(-0.0196372 0.0329318 0)
(-0.0434657 0.0360466 0)
(-0.0675477 0.0348157 0)
(-0.0877054 0.0315222 0)
(-0.105057 0.0259158 0)
(-0.117997 0.0183277 0)
(-0.125397 0.00928016 0)
(-0.126554 -0.000131281 0)
(-0.122025 -0.00875052 0)
(-0.112638 -0.015902 0)
(-0.0992258 -0.021268 0)
(-0.0833056 -0.023677 0)
(-0.0672913 -0.0227847 0)
(-0.0530118 -0.0200042 0)
(-0.040981 -0.0164518 0)
(-0.0311365 -0.012683 0)
(-0.0233872 -0.00887786 0)
(-0.0180546 -0.00500598 0)
(-0.0149943 -0.002733 0)
(-0.0126952 -0.00274505 0)
(-0.00936245 -0.00482652 0)
(-0.00528419 -0.00696841 0)
(0.000439363 -0.0100618 0)
(-0.0199992 0.0472939 0)
(-0.0449659 0.0480267 0)
(-0.0708141 0.0453486 0)
(-0.0929084 0.040699 0)
(-0.112252 0.033423 0)
(-0.126777 0.0234256 0)
(-0.134786 0.011267 0)
(-0.13556 -0.000942018 0)
(-0.129679 -0.0122538 0)
(-0.118671 -0.021513 0)
(-0.103879 -0.0288516 0)
(-0.0868879 -0.0321141 0)
(-0.0701801 -0.0306353 0)
(-0.0553549 -0.02673 0)
(-0.0426393 -0.022071 0)
(-0.0320273 -0.0174974 0)
(-0.0238299 -0.0126897 0)
(-0.0180756 -0.0070424 0)
(-0.0147305 -0.00408957 0)
(-0.012278 -0.00486881 0)
(-0.00900588 -0.00854114 0)
(-0.00569714 -0.0124385 0)
(0.000527034 -0.0147298 0)
(-0.0175554 0.0573373 0)
(-0.0419202 0.0566041 0)
(-0.0693101 0.0536842 0)
(-0.092912 0.0485322 0)
(-0.113635 0.039995 0)
(-0.128741 0.0276743 0)
(-0.136185 0.0125312 0)
(-0.136078 -0.00339148 0)
(-0.12963 -0.0175235 0)
(-0.118764 -0.0290915 0)
(-0.104839 -0.0376202 0)
(-0.0891028 -0.0404467 0)
(-0.0737331 -0.0372424 0)
(-0.059812 -0.0316869 0)
(-0.0470757 -0.0265694 0)
(-0.0368189 -0.0228231 0)
(-0.031521 -0.0191591 0)
(-0.0271088 -0.0137366 0)
(-0.0229448 -0.00884621 0)
(-0.0201016 -0.0077563 0)
(-0.0174692 -0.0104038 0)
(-0.0137612 -0.0135979 0)
(-0.00737372 -0.0113666 0)
(-0.0141984 0.069901 0)
(-0.0352953 0.0685322 0)
(-0.0620981 0.0646996 0)
(-0.0851071 0.0583461 0)
(-0.105231 0.0487133 0)
(-0.120551 0.0348495 0)
(-0.130424 0.0170641 0)
(-0.132035 -0.00155431 0)
(-0.123472 -0.0170021 0)
(-0.113172 -0.0287361 0)
(-0.0999358 -0.0385844 0)
(-0.0852478 -0.0432321 0)
(-0.0698414 -0.0419943 0)
(-0.0527451 -0.0386227 0)
(-0.0325572 -0.0343604 0)
(-0.0221812 -0.0241958 0)
(-0.0424502 -0.0055131 0)
(-0.0766448 -0.000152659 0)
(-0.0923833 0.00063702 0)
(-0.101685 -0.000613315 0)
(-0.103062 -0.00440039 0)
(-0.0849433 -0.0104916 0)
(-0.085119 -0.0250963 0)
(-0.00148418 0.0896827 0)
(0.00187101 0.0905336 0)
(-0.00994199 0.0866128 0)
(-0.0236008 0.0769808 0)
(-0.0395318 0.0601526 0)
(-0.0455568 0.0392325 0)
(-0.0370882 0.0138571 0)
(-0.00926015 -0.010158 0)
(0.0119329 -0.0289534 0)
(-0.00495598 -0.0408072 0)
(-0.0137847 -0.0543542 0)
(-0.0182317 -0.0584697 0)
(-0.0290113 -0.0538232 0)
(-0.0413298 -0.0473681 0)
(-0.0499039 -0.039862 0)
(-0.0897889 -0.0144875 0)
(-0.124801 0.00372259 0)
(-0.115387 -0.00264412 0)
(-0.114755 -0.00315663 0)
(-0.117476 -0.00645533 0)
(-0.119055 -0.0130406 0)
(-0.110281 -0.0340003 0)
(-0.13243 -0.0959043 0)
(-0.0379061 0.0211788 0)
(-0.0732988 0.0134446 0)
(-0.115645 0.00832394 0)
(-0.133929 0.00100166 0)
(-0.126249 -0.00289176 0)
(-0.105619 -0.00345208 0)
(-0.0875354 -0.00338936 0)
(-0.0739406 -0.00208909 0)
(-0.0737453 0.00125929 0)
(-0.0903624 0.00298565 0)
(-0.110707 0.00105525 0)
(-0.121416 -0.00337869 0)
(-0.115852 -0.00761675 0)
(-0.0945904 -0.0104661 0)
(-0.0642543 -0.0113413 0)
(-0.0343047 -0.0101442 0)
(-0.0100408 -0.00587746 0)
(0.0100186 -0.000682386 0)
(0.00182668 -0.00232024 0)
(-0.0110125 0.020787 0)
(-0.0453436 0.0203111 0)
(-0.0815644 0.0175735 0)
(-0.0977136 0.0037272 0)
(-0.086829 -0.010546 0)
(-0.0619319 -0.0135642 0)
(-0.0422562 -0.0112039 0)
(-0.0254427 -0.00564376 0)
(-0.0181811 0.00726389 0)
(-0.0312831 0.0146748 0)
(-0.0518946 0.013008 0)
(-0.0663083 0.00561192 0)
(-0.0724585 -0.00333811 0)
(-0.0692721 -0.0122624 0)
(-0.0567795 -0.0172881 0)
(-0.0449185 -0.0165952 0)
(-0.0308079 -0.0129479 0)
(-0.0118069 -0.00574856 0)
(-0.000562679 0.00758141 0)
(-0.0183917 0.0422923 0)
(-0.064228 0.0392486 0)
(-0.0954753 0.0270555 0)
(-0.103644 0.00333263 0)
(-0.0931914 -0.0186973 0)
(-0.0689351 -0.0227631 0)
(-0.0429575 -0.0194813 0)
(-0.0215289 -0.0130022 0)
(-0.00713757 0.0033109 0)
(-0.012472 0.0166207 0)
(-0.0365324 0.0161075 0)
(-0.0595068 0.00595557 0)
(-0.07272 -0.00680339 0)
(-0.0761968 -0.0160242 0)
(-0.0712491 -0.0207414 0)
(-0.0661441 -0.0191912 0)
(-0.0606979 -0.0162293 0)
(-0.0556248 -0.012006 0)
(-0.0218039 -0.00798948 0)
(-0.0270901 0.0650575 0)
(-0.0163552 0.0740827 0)
(-0.106306 0.0492983 0)
(-0.161183 1.77009e-05 0)
(-0.150767 -0.0258028 0)
(-0.120513 -0.0312275 0)
(-0.0797551 -0.0285021 0)
(-0.0377559 -0.0182849 0)
(-0.0138309 0.00310555 0)
(-0.0191835 0.0275728 0)
(-0.0765418 0.0322622 0)
(-0.141012 0.0236332 0)
(-0.169675 0.00374088 0)
(-0.138061 -0.0139873 0)
(-0.0814662 -0.0225131 0)
(-0.0295238 -0.017259 0)
(-0.0109458 -0.0125157 0)
(-0.0366455 -0.0236147 0)
(-0.00392001 -0.0305349 0)
(-0.038148 0.0692076 0)
(0.029191 0.0516866 0)
(0.0145799 0.0914351 0)
(-0.0700943 0.0256607 0)
(-0.18431 -0.0405399 0)
(-0.213217 -0.0569565 0)
(-0.193515 -0.0641315 0)
(-0.162231 -0.0424696 0)
(-0.139056 -0.000714591 0)
(-0.153929 0.0487394 0)
(-0.213155 0.0688069 0)
(-0.259389 0.0517381 0)
(-0.235002 -0.0127472 0)
(-0.140029 -0.0639175 0)
(-0.0605423 -0.0702058 0)
(0.0398351 -0.0536768 0)
(0.122256 -0.0132048 0)
(0.0874702 -0.000653081 0)
(0.0264001 -0.0235122 0)
(0.0393429 0.0693249 0)
(0.103183 0.0540502 0)
(0.0636019 0.109348 0)
(-0.0213577 0.0845511 0)
(-0.160379 0.0291234 0)
(-0.24548 -0.0413581 0)
(-0.244034 -0.0670212 0)
(-0.236036 -0.0419987 0)
(-0.230682 0.0069028 0)
(-0.223744 0.0496476 0)
(-0.234807 0.0712186 0)
(-0.230488 0.0409904 0)
(-0.173835 -0.0481145 0)
(-0.122717 -0.0951237 0)
(-0.0921269 -0.096524 0)
(-0.0357654 -0.0997141 0)
(0.077329 -0.0431585 0)
(0.119839 0.0207554 0)
(0.0771488 0.00953513 0)
(0.0595578 0.00149132 0)
(0.101046 0.0411863 0)
(0.0678273 0.132408 0)
(-0.0361221 0.122978 0)
(-0.143338 0.0719838 0)
(-0.237644 -0.0141024 0)
(-0.283955 -0.0616181 0)
(-0.317149 -0.036928 0)
(-0.319176 0.0108131 0)
(-0.266849 0.0385571 0)
(-0.214242 0.0653022 0)
(-0.16834 0.0363812 0)
(-0.114535 -0.0589186 0)
(-0.134103 -0.0966871 0)
(-0.136892 -0.105911 0)
(-0.113181 -0.125145 0)
(-0.0439771 -0.0879332 0)
(0.0708119 0.0216411 0)
(0.0610793 0.0406639 0)
(-0.0133638 -0.00682563 0)
(0.0100069 0.0318084 0)
(0.00742545 0.166038 0)
(-0.08107 0.159485 0)
(-0.150554 0.106824 0)
(-0.240249 0.0204257 0)
(-0.298892 -0.0416581 0)
(-0.329076 -0.0302474 0)
(-0.322266 -0.00335184 0)
(-0.260693 -0.00136543 0)
(-0.187568 0.0284569 0)
(-0.115973 0.0143106 0)
(-0.101162 -0.0520945 0)
(-0.167115 -0.08016 0)
(-0.189316 -0.106433 0)
(-0.182921 -0.138791 0)
(-0.154656 -0.13188 0)
(0.000193113 0.00432465 0)
(0.0517969 0.0550675 0)
(-0.00339553 0.0738728 0)
(0.0141789 0.0757388 0)
(0.0202838 0.0772151 0)
(0.0311409 0.0721358 0)
(0.0405108 0.0574475 0)
(0.0654924 0.0307895 0)
(0.0889644 0.00265145 0)
(0.105761 -0.0190746 0)
(0.111314 -0.0190518 0)
(0.108096 -0.0160105 0)
(0.0971564 -0.0240994 0)
(0.0806536 -0.0322761 0)
(0.05902 -0.0301837 0)
(0.0370413 -0.0228546 0)
(0.0173814 -0.0191259 0)
(-0.0187686 0.0247132 0)
(-0.0518601 0.0296697 0)
(-0.0516238 -0.0033354 0)
(-0.0737271 0.00767655 0)
(-0.090042 0.00629068 0)
(-0.104307 -0.00156592 0)
(-0.122739 -0.0317899 0)
(-0.171689 -0.091609 0)
(-0.0087163 0.07602 0)
(0.00218498 0.0688102 0)
(0.0101417 0.0692382 0)
(0.0293488 0.063036 0)
(0.0577211 0.0314398 0)
(0.0910528 -0.0060903 0)
(0.115869 -0.0269981 0)
(0.135218 -0.0297901 0)
(0.145632 -0.0262923 0)
(0.144145 -0.0264082 0)
(0.133143 -0.0283162 0)
(0.11224 -0.0241079 0)
(0.0842659 -0.0136181 0)
(0.0602078 -0.00381589 0)
(0.0358584 0.00625868 0)
(0.0131001 0.0351118 0)
(0.0284882 0.0198678 0)
(0.0249838 0.0135274 0)
(-0.00179822 0.0242002 0)
(-0.0201244 0.0222673 0)
(-0.033305 0.0189376 0)
(-0.0440468 0.0139584 0)
(-0.120129 0.00791741 0)
(-0.00160148 0.0724203 0)
(0.0236086 0.0509926 0)
(0.0370929 0.0368293 0)
(0.0738048 0.0103598 0)
(0.105445 -0.0111295 0)
(0.120331 -0.0313624 0)
(0.124878 -0.0505796 0)
(0.136048 -0.054216 0)
(0.15445 -0.0324375 0)
(0.153509 -0.0114684 0)
(0.132772 0.00245391 0)
(0.104857 0.0140148 0)
(0.0762978 0.0221917 0)
(0.0482458 0.0244754 0)
(0.0151478 0.0311042 0)
(0.00423633 0.0364585 0)
(-0.00304223 0.0231014 0)
(-0.0318028 0.0436048 0)
(-0.0568432 0.0546464 0)
(-0.0806467 0.0447396 0)
(-0.104821 0.0308223 0)
(-0.133836 0.0474085 0)
(-0.178201 0.115016 0)
(0.0204409 0.0601145 0)
(0.0510207 0.0407452 0)
(0.0802337 0.0213791 0)
(0.110526 -0.000104355 0)
(0.128896 -0.00611689 0)
(0.136775 -0.0165404 0)
(0.125913 -0.0280368 0)
(0.102829 -0.0614783 0)
(0.110174 -0.0364173 0)
(0.099576 0.00351217 0)
(0.0763967 0.0225303 0)
(0.0583889 0.0330892 0)
(0.0429077 0.0450936 0)
(0.0251543 0.0541705 0)
(0.00621751 0.0574372 0)
(-0.00597066 0.0529132 0)
(-0.0222357 0.0500453 0)
(-0.0363485 0.0604462 0)
(-0.040408 0.0647962 0)
(-0.0474625 0.0643529 0)
(-0.0619703 0.0639287 0)
(-0.0849826 0.0839599 0)
(-0.107777 0.132576 0)
(0.011177 0.00329976 0)
(0.0330143 -0.0050833 0)
(0.0414168 -0.0221172 0)
(0.0503973 -0.0350303 0)
(0.0651487 -0.042744 0)
(0.0814793 -0.046045 0)
(0.0988716 -0.0192323 0)
(0.0441427 -0.0495054 0)
(0.0200522 -0.0185746 0)
(0.0172692 0.0243331 0)
(0.0285848 0.0286358 0)
(0.0449211 0.0357294 0)
(0.0605834 0.0471323 0)
(0.0724225 0.056929 0)
(0.0790325 0.0601344 0)
(0.078757 0.0617317 0)
(0.0679311 0.0625188 0)
(0.0499356 0.0666634 0)
(0.0346048 0.0706492 0)
(0.0185825 0.0749351 0)
(-0.00246645 0.0794865 0)
(-0.0249869 0.0944841 0)
(-0.0334929 0.128033 0)
(-0.0152861 0.00155308 0)
(-0.0030518 0.00258654 0)
(-0.0198016 -0.0122596 0)
(-0.00635591 -0.0299414 0)
(-0.0100866 -0.0457343 0)
(-0.0438497 -0.0347378 0)
(-0.0267077 0.0423461 0)
(-0.0311817 -0.00204109 0)
(-0.011613 -0.00722002 0)
(0.0385491 0.00179038 0)
(0.0854689 0.00120662 0)
(0.123654 0.0117388 0)
(0.155377 0.0273027 0)
(0.179665 0.0426421 0)
(0.193336 0.0561879 0)
(0.195142 0.0699733 0)
(0.184269 0.0825904 0)
(0.165331 0.0907493 0)
(0.14566 0.0958031 0)
(0.122513 0.104981 0)
(0.089868 0.114676 0)
(0.0528258 0.121844 0)
(0.032338 0.131468 0)
(-0.0164822 0.0307375 0)
(-0.100186 0.0135949 0)
(-0.178183 -0.00641237 0)
(-0.146443 -0.0284808 0)
(-0.165136 -0.012976 0)
(-0.139684 -0.0319195 0)
(-0.0459464 -0.0577654 0)
(0.0383747 -0.0497579 0)
(0.0647621 -0.0919898 0)
(0.112597 -0.0836555 0)
(0.160007 -0.07032 0)
(0.201592 -0.048197 0)
(0.235672 -0.0219742 0)
(0.257498 0.00383502 0)
(0.267955 0.0268329 0)
(0.26496 0.0502787 0)
(0.250748 0.0708818 0)
(0.234848 0.0812619 0)
(0.220454 0.0904492 0)
(0.199332 0.113026 0)
(0.168534 0.137225 0)
(0.136641 0.144237 0)
(0.11418 0.13568 0)
(0.05273 0.0645583 0)
(0.112019 0.103216 0)
(0.201485 0.0734227 0)
(0.236664 -0.0379466 0)
(0.264572 -0.0704186 0)
(0.339724 -0.0913075 0)
(0.421432 -0.144219 0)
(0.514864 -0.114568 0)
(0.588681 -0.0769617 0)
(0.559304 -0.068513 0)
(0.436211 -0.031088 0)
(0.289702 -0.00920741 0)
(0.157292 0.00414756 0)
(0.110955 0.027633 0)
(0.0201244 0.0701362 0)
(0.0660873 0.090681 0)
(0.0949446 0.111151 0)
(0.127812 0.117423 0)
(0.157931 0.11998 0)
(0.174623 0.142437 0)
(0.177321 0.163495 0)
(0.16651 0.166089 0)
(0.152899 0.150278 0)
(0.0406607 -0.0802166 0)
(0.15554 -0.0970584 0)
(0.27079 -0.0863547 0)
(0.362572 -0.0996844 0)
(0.42215 -0.135935 0)
(0.44618 -0.211039 0)
(0.442274 -0.250136 0)
(0.424525 -0.19672 0)
(0.408747 -0.0833208 0)
(0.385024 0.021412 0)
(0.365407 0.0921045 0)
(0.36141 0.12163 0)
(0.36587 0.12006 0)
(0.378228 0.0958319 0)
(0.323749 0.105364 0)
(0.320116 0.0758045 0)
(0.294699 0.0461965 0)
(0.261274 0.0824366 0)
(0.230144 0.0769818 0)
(0.161717 0.138676 0)
(0.0387992 0.20031 0)
(0.0700172 0.176104 0)
(0.0911859 0.152454 0)
(0.0723004 -0.166215 0)
(0.164731 -0.179511 0)
(0.255901 -0.18276 0)
(0.336395 -0.178852 0)
(0.404021 -0.168251 0)
(0.440882 -0.164943 0)
(0.428624 -0.155763 0)
(0.382663 -0.111402 0)
(0.346283 -0.0399438 0)
(0.345187 0.0126293 0)
(0.371471 0.0437011 0)
(0.41055 0.0563454 0)
(0.454633 0.0558985 0)
(0.500642 0.0590038 0)
(0.533834 0.0760823 0)
(0.564803 0.0911642 0)
(0.5741 0.110522 0)
(0.556514 0.148008 0)
(0.512605 0.184186 0)
(0.444543 0.251496 0)
(0.358637 0.328286 0)
(0.257408 0.186097 0)
(0.139118 0.119505 0)
(0.0629344 -0.289999 0)
(0.145472 -0.272643 0)
(0.218371 -0.255369 0)
(0.275356 -0.239492 0)
(0.31656 -0.219728 0)
(0.342922 -0.190457 0)
(0.350791 -0.152838 0)
(0.346148 -0.108481 0)
(0.34701 -0.0594583 0)
(0.363491 -0.0170587 0)
(0.392861 0.00845426 0)
(0.430391 0.0175306 0)
(0.470367 0.0140617 0)
(0.50898 0.0156063 0)
(0.548013 0.0309034 0)
(0.58243 0.0567513 0)
(0.606395 0.092604 0)
(0.617963 0.141493 0)
(0.616366 0.199742 0)
(0.610084 0.268188 0)
(0.615617 0.323016 0)
(0.631259 0.314122 0)
(0.6023 0.249099 0)
(0.0386863 -0.376899 0)
(0.103924 -0.346018 0)
(0.157 -0.313679 0)
(0.199265 -0.281621 0)
(0.22833 -0.246213 0)
(0.24837 -0.203269 0)
(0.262104 -0.157045 0)
(0.271405 -0.110631 0)
(0.282464 -0.0692321 0)
(0.302014 -0.0384395 0)
(0.329899 -0.0262937 0)
(0.359684 -0.022499 0)
(0.386603 -0.023814 0)
(0.412092 -0.0207329 0)
(0.441104 -0.00336237 0)
(0.477925 0.0281666 0)
(0.516283 0.0712235 0)
(0.553153 0.12644 0)
(0.58757 0.190185 0)
(0.62251 0.254876 0)
(0.660712 0.294766 0)
(0.692845 0.293378 0)
(0.703919 0.273234 0)
(0.0188431 -0.431105 0)
(0.0609204 -0.393631 0)
(0.089425 -0.351715 0)
(0.114453 -0.310131 0)
(0.131902 -0.2672 0)
(0.146438 -0.220696 0)
(0.159108 -0.171976 0)
(0.169866 -0.12577 0)
(0.181467 -0.0901878 0)
(0.193932 -0.0646043 0)
(0.205005 -0.0502578 0)
(0.214299 -0.0395207 0)
(0.220157 -0.0382472 0)
(0.231275 -0.0388566 0)
(0.253153 -0.0312402 0)
(0.281946 -0.0133265 0)
(0.326065 0.0210079 0)
(0.380401 0.0748875 0)
(0.434053 0.138282 0)
(0.48935 0.198684 0)
(0.545444 0.240578 0)
(0.593032 0.257529 0)
(0.622448 0.259315 0)
(0.00387176 -0.457108 0)
(0.0222835 -0.415911 0)
(0.0270031 -0.367954 0)
(0.0335887 -0.321742 0)
(0.0351257 -0.276682 0)
(0.0370837 -0.229521 0)
(0.0393203 -0.180007 0)
(0.0401887 -0.132839 0)
(0.03788 -0.0931204 0)
(0.0312103 -0.0626439 0)
(0.0229675 -0.045943 0)
(0.0233814 -0.0360231 0)
(0.0282246 -0.0460671 0)
(0.0354993 -0.053767 0)
(0.0457953 -0.0498506 0)
(0.0571976 -0.0411092 0)
(0.0790869 -0.0179333 0)
(0.123586 0.0313168 0)
(0.194809 0.090176 0)
(0.264657 0.142926 0)
(0.334202 0.184421 0)
(0.394609 0.212186 0)
(0.440084 0.229659 0)
(-0.00816228 -0.458044 0)
(-0.0116206 -0.414224 0)
(-0.0277044 -0.36261 0)
(-0.039659 -0.313698 0)
(-0.0557501 -0.26782 0)
(-0.070815 -0.21964 0)
(-0.0864018 -0.168122 0)
(-0.103134 -0.117121 0)
(-0.120321 -0.0703413 0)
(-0.134932 -0.0412651 0)
(-0.139144 -0.0401591 0)
(-0.132312 -0.0484283 0)
(-0.123409 -0.052955 0)
(-0.123408 -0.0524862 0)
(-0.125417 -0.0515649 0)
(-0.121506 -0.0522498 0)
(-0.10747 -0.0432333 0)
(-0.0818424 -0.0232676 0)
(-0.0349718 0.00615794 0)
(0.0320674 0.0554829 0)
(0.099359 0.110812 0)
(0.163561 0.155005 0)
(0.220394 0.191639 0)
(-0.0182001 -0.437857 0)
(-0.0393049 -0.392368 0)
(-0.0709873 -0.339248 0)
(-0.0982383 -0.288454 0)
(-0.12841 -0.240933 0)
(-0.158145 -0.190267 0)
(-0.186697 -0.136628 0)
(-0.211145 -0.0872363 0)
(-0.225123 -0.0517842 0)
(-0.223622 -0.044013 0)
(-0.212711 -0.0555344 0)
(-0.204062 -0.0608332 0)
(-0.201398 -0.0523861 0)
(-0.20218 -0.0495123 0)
(-0.201983 -0.0551322 0)
(-0.19763 -0.0641361 0)
(-0.188033 -0.0606515 0)
(-0.175034 -0.0446496 0)
(-0.16119 -0.026895 0)
(-0.137147 0.00672115 0)
(-0.0938309 0.0544042 0)
(-0.0457625 0.100204 0)
(0.00733116 0.147147 0)
(-0.0253149 -0.4029 0)
(-0.0574123 -0.357536 0)
(-0.0980103 -0.304898 0)
(-0.132364 -0.254351 0)
(-0.166682 -0.207085 0)
(-0.197066 -0.160133 0)
(-0.219416 -0.115134 0)
(-0.229853 -0.0802192 0)
(-0.227506 -0.0595808 0)
(-0.219098 -0.0561136 0)
(-0.214301 -0.0614496 0)
(-0.21462 -0.0616049 0)
(-0.213545 -0.0548407 0)
(-0.208997 -0.0531016 0)
(-0.205239 -0.0586638 0)
(-0.205791 -0.0678321 0)
(-0.208863 -0.0655662 0)
(-0.211494 -0.0507305 0)
(-0.213945 -0.0344653 0)
(-0.211263 -0.0109005 0)
(-0.194276 0.0213411 0)
(-0.165983 0.0576885 0)
(-0.130593 0.0960557 0)
(-0.0288098 -0.359617 0)
(-0.0650944 -0.316803 0)
(-0.107314 -0.267808 0)
(-0.140137 -0.22157 0)
(-0.168533 -0.179391 0)
(-0.18967 -0.140998 0)
(-0.201219 -0.107038 0)
(-0.202961 -0.0816512 0)
(-0.198011 -0.066346 0)
(-0.191661 -0.0612983 0)
(-0.188352 -0.0619861 0)
(-0.187635 -0.061543 0)
(-0.186198 -0.0584909 0)
(-0.183422 -0.0567262 0)
(-0.182332 -0.0580643 0)
(-0.186618 -0.0609808 0)
(-0.195349 -0.057257 0)
(-0.203241 -0.0451539 0)
(-0.208465 -0.0314463 0)
(-0.210809 -0.0145715 0)
(-0.20734 0.00674469 0)
(-0.195228 0.0324792 0)
(-0.176729 0.060221 0)
(-0.0293315 -0.314026 0)
(-0.0650786 -0.275932 0)
(-0.104742 -0.233369 0)
(-0.132897 -0.194299 0)
(-0.154386 -0.159266 0)
(-0.167918 -0.128711 0)
(-0.17365 -0.103168 0)
(-0.172687 -0.0842114 0)
(-0.167748 -0.0722884 0)
(-0.162202 -0.0665628 0)
(-0.158516 -0.0644031 0)
(-0.156772 -0.0626463 0)
(-0.155691 -0.060202 0)
(-0.154974 -0.0580102 0)
(-0.155917 -0.0565251 0)
(-0.159901 -0.0545568 0)
(-0.16616 -0.0492068 0)
(-0.172447 -0.0396166 0)
(-0.177608 -0.0274285 0)
(-0.180974 -0.0129317 0)
(-0.181337 0.00367196 0)
(-0.177394 0.022149 0)
(-0.168846 0.041875 0)
(-0.0281924 -0.269813 0)
(-0.0613971 -0.237527 0)
(-0.0976235 -0.202632 0)
(-0.12178 -0.171702 0)
(-0.138871 -0.144416 0)
(-0.148364 -0.121073 0)
(-0.151498 -0.101959 0)
(-0.149812 -0.087467 0)
(-0.145443 -0.0775145 0)
(-0.140614 -0.0713327 0)
(-0.136894 -0.0674265 0)
(-0.134662 -0.064212 0)
(-0.133532 -0.0609684 0)
(-0.133342 -0.0577597 0)
(-0.134508 -0.0544817 0)
(-0.137411 -0.0502732 0)
(-0.141551 -0.0438011 0)
(-0.145827 -0.0346856 0)
(-0.149402 -0.0234204 0)
(-0.151658 -0.0104395 0)
(-0.152037 0.00360532 0)
(-0.150329 0.0181004 0)
(-0.145893 0.033013 0)
(-0.0264701 -0.228452 0)
(-0.0568196 -0.202089 0)
(-0.0901112 -0.174912 0)
(-0.111724 -0.151964 0)
(-0.126722 -0.132081 0)
(-0.134818 -0.11513 0)
(-0.137494 -0.101128 0)
(-0.136267 -0.0900761 0)
(-0.132849 -0.0817093 0)
(-0.128819 -0.0754581 0)
(-0.125293 -0.07053 0)
(-0.122749 -0.0661677 0)
(-0.121219 -0.0619261 0)
(-0.120695 -0.0576184 0)
(-0.121281 -0.0529839 0)
(-0.122981 -0.0474703 0)
(-0.125419 -0.0404248 0)
(-0.127946 -0.0315988 0)
(-0.129943 -0.0211441 0)
(-0.130887 -0.00940405 0)
(-0.130429 0.00303104 0)
(-0.128691 0.0154668 0)
(-0.125489 0.0277353 0)
(-0.0247338 -0.19014 0)
(-0.0525563 -0.169323 0)
(-0.083583 -0.149355 0)
(-0.103667 -0.133778 0)
(-0.117837 -0.120683 0)
(-0.125831 -0.109482 0)
(-0.129058 -0.0999016 0)
(-0.128839 -0.0917808 0)
(-0.126548 -0.0848955 0)
(-0.123374 -0.0789343 0)
(-0.120186 -0.0735425 0)
(-0.117491 -0.0684002 0)
(-0.115523 -0.0632823 0)
(-0.114386 -0.0580193 0)
(-0.114124 -0.0523832 0)
(-0.114651 -0.0460302 0)
(-0.115679 -0.0386117 0)
(-0.116773 -0.0299642 0)
(-0.117475 -0.0201462 0)
(-0.117366 -0.00941288 0)
(-0.116173 0.00176611 0)
(-0.113998 0.0127764 0)
(-0.110945 0.0233963 0)
(-0.0232033 -0.154556 0)
(-0.0489667 -0.13875 0)
(-0.078255 -0.125331 0)
(-0.0973519 -0.116392 0)
(-0.111188 -0.109382 0)
(-0.119454 -0.103331 0)
(-0.123394 -0.0977466 0)
(-0.124111 -0.0923893 0)
(-0.122731 -0.0871114 0)
(-0.120227 -0.0818101 0)
(-0.117357 -0.0764119 0)
(-0.114636 -0.070865 0)
(-0.112375 -0.0651255 0)
(-0.110739 -0.0591286 0)
(-0.109773 -0.0527505 0)
(-0.109395 -0.0458045 0)
(-0.10939 -0.0381064 0)
(-0.109443 -0.0295647 0)
(-0.109205 -0.0202215 0)
(-0.108338 -0.0102736 0)
(-0.106627 -8.70185e-05 0)
(-0.104127 0.00988409 0)
(-0.101027 0.0193513 0)
(-0.0219217 -0.121237 0)
(-0.0460586 -0.109932 0)
(-0.0739925 -0.102466 0)
(-0.0923758 -0.099559 0)
(-0.105986 -0.0981007 0)
(-0.114448 -0.0967904 0)
(-0.118836 -0.094957 0)
(-0.12009 -0.0923025 0)
(-0.119186 -0.0887396 0)
(-0.117007 -0.0843177 0)
(-0.114277 -0.0791654 0)
(-0.111528 -0.0734348 0)
(-0.109103 -0.0672539 0)
(-0.107178 -0.0606929 0)
(-0.105796 -0.0537488 0)
(-0.104882 -0.046359 0)
(-0.104261 -0.0384484 0)
(-0.10369 -0.0299848 0)
(-0.102892 -0.0210152 0)
(-0.101599 -0.0116934 0)
(-0.0996124 -0.00230172 0)
(-0.0969606 0.00683732 0)
(-0.0939008 0.0154421 0)
(-0.0208587 -0.0897603 0)
(-0.0437109 -0.0825084 0)
(-0.0705703 -0.0804948 0)
(-0.0884059 -0.0831491 0)
(-0.101792 -0.0868707 0)
(-0.110278 -0.0900659 0)
(-0.114788 -0.0918868 0)
(-0.116151 -0.0919539 0)
(-0.115282 -0.0901955 0)
(-0.11305 -0.0867646 0)
(-0.1102 -0.0819554 0)
(-0.1073 -0.0761127 0)
(-0.104713 -0.0695506 0)
(-0.102616 -0.0624962 0)
(-0.101033 -0.0550724 0)
(-0.0998766 -0.0473183 0)
(-0.0989818 -0.0392349 0)
(-0.0981376 -0.0308332 0)
(-0.0971127 -0.0221662 0)
(-0.0956833 -0.0133515 0)
(-0.0936793 -0.00459339 0)
(-0.0911132 0.00384744 0)
(-0.0882451 0.0117659 0)
(-0.0199393 -0.0598076 0)
(-0.0417235 -0.0562301 0)
(-0.0676826 -0.0592494 0)
(-0.0850555 -0.0671185 0)
(-0.0981773 -0.0757931 0)
(-0.10652 -0.0833974 0)
(-0.110881 -0.0888807 0)
(-0.11203 -0.0917342 0)
(-0.110875 -0.0918521 0)
(-0.108311 -0.0894557 0)
(-0.105128 -0.0849894 0)
(-0.101937 -0.0789988 0)
(-0.0991304 -0.0720081 0)
(-0.0968866 -0.0644282 0)
(-0.0952103 -0.0565191 0)
(-0.0939893 -0.0484109 0)
(-0.0930472 -0.0401584 0)
(-0.092179 -0.0317974 0)
(-0.0911751 -0.0233785 0)
(-0.0898407 -0.0149862 0)
(-0.0880329 -0.00675947 0)
(-0.0857408 0.00110608 0)
(-0.0832086 0.00847093 0)
(-0.019061 -0.0312587 0)
(-0.0398233 -0.031008 0)
(-0.0648977 -0.0386851 0)
(-0.0817582 -0.0515023 0)
(-0.094495 -0.0649977 0)
(-0.102503 -0.0769986 0)
(-0.10649 -0.0861993 0)
(-0.107216 -0.0919066 0)
(-0.105614 -0.0939409 0)
(-0.102616 -0.0925769 0)
(-0.0990407 -0.0884066 0)
(-0.0955255 -0.0821837 0)
(-0.0924883 -0.074661 0)
(-0.09012 -0.0664581 0)
(-0.0884164 -0.0579907 0)
(-0.087242 -0.0494816 0)
(-0.0863986 -0.0410264 0)
(-0.0856726 -0.0326679 0)
(-0.0848603 -0.0244427 0)
(-0.0837848 -0.0163998 0)
(-0.0823215 -0.00861843 0)
(-0.0804452 -0.00122467 0)
(-0.0783493 0.00567799 0)
(-0.0180902 -0.00424129 0)
(-0.0376786 -0.00694418 0)
(-0.0616887 -0.0189401 0)
(-0.0778067 -0.0364568 0)
(-0.0899251 -0.0546756 0)
(-0.0973572 -0.0710808 0)
(-0.10077 -0.0840292 0)
(-0.100952 -0.0925953 0)
(-0.0988945 -0.0965099 0)
(-0.0955467 -0.0961183 0)
(-0.0917113 -0.0921706 0)
(-0.0880084 -0.0856271 0)
(-0.0848551 -0.0774679 0)
(-0.0824565 -0.0685314 0)
(-0.0808157 -0.0594075 0)
(-0.0797875 -0.0504223 0)
(-0.0791549 -0.0417087 0)
(-0.0786902 -0.0333039 0)
(-0.0781874 -0.025218 0)
(-0.0774796 -0.0174599 0)
(-0.076456 -0.0100512 0)
(-0.0750786 -0.00305145 0)
(-0.0734779 0.00347102 0)
(-0.0167216 0.0216809 0)
(-0.0347054 0.0162217 0)
(-0.0574816 -0.000260423 0)
(-0.072474 -0.0222483 0)
(-0.0836643 -0.0450742 0)
(-0.0902653 -0.065853 0)
(-0.0929367 -0.0824965 0)
(-0.0925351 -0.093806 0)
(-0.0901344 -0.099441 0)
(-0.0866732 -0.0998788 0)
(-0.082876 -0.0960544 0)
(-0.0792784 -0.0891256 0)
(-0.0762513 -0.0802687 0)
(-0.074003 -0.0705239 0)
(-0.0725605 -0.0606618 0)
(-0.0717917 -0.0511282 0)
(-0.0714743 -0.0420999 0)
(-0.0713691 -0.0336023 0)
(-0.0712648 -0.0256087 0)
(-0.0710003 -0.0180824 0)
(-0.0704747 -0.0109893 0)
(-0.0696366 -0.00432356 0)
(-0.0685584 0.00188486 0)
(-0.0148176 0.0446886 0)
(-0.0303332 0.0372198 0)
(-0.0513657 0.0173498 0)
(-0.065142 -0.00914755 0)
(-0.0751058 -0.0364293 0)
(-0.080705 -0.0614658 0)
(-0.0825612 -0.0816654 0)
(-0.0816134 -0.0954531 0)
(-0.0790706 -0.102495 0)
(-0.0758255 -0.103521 0)
(-0.0724613 -0.0996916 0)
(-0.0693568 -0.0923484 0)
(-0.0667792 -0.0828045 0)
(-0.064916 -0.072249 0)
(-0.0638297 -0.0616174 0)
(-0.0634318 -0.0514896 0)
(-0.0635189 -0.0421039 0)
(-0.0638505 -0.0334787 0)
(-0.0642102 -0.0255446 0)
(-0.0644397 -0.018214 0)
(-0.0644454 -0.0113968 0)
(-0.0641622 -0.00502391 0)
(-0.0636102 0.000918846 0)
(-0.0125209 0.0642202 0)
(-0.0247521 0.0553355 0)
(-0.0433232 0.0329141 0)
(-0.0554155 0.00274409 0)
(-0.0640131 -0.0288802 0)
(-0.0685379 -0.0579548 0)
(-0.0696539 -0.0814953 0)
(-0.0683217 -0.0973801 0)
(-0.0659051 -0.105367 0)
(-0.0632349 -0.106648 0)
(-0.0607155 -0.102656 0)
(-0.0585077 -0.0949091 0)
(-0.0567188 -0.0847753 0)
(-0.0554801 -0.0735038 0)
(-0.05489 -0.0621458 0)
(-0.0549372 -0.051419 0)
(-0.0554752 -0.041651 0)
(-0.0562817 -0.0328733 0)
(-0.0571385 -0.0249776 0)
(-0.0578856 -0.0178214 0)
(-0.0584332 -0.0112582 0)
(-0.0587005 -0.0051555 0)
(-0.0586585 0.000549225 0)
(-0.0100656 0.0797227 0)
(-0.0183187 0.0700524 0)
(-0.0336622 0.0459598 0)
(-0.0433649 0.0130814 0)
(-0.0506153 -0.0225157 0)
(-0.0539779 -0.0552626 0)
(-0.0545832 -0.081769 0)
(-0.0532142 -0.0993147 0)
(-0.0512872 -0.107726 0)
(-0.0495359 -0.10887 0)
(-0.0482167 -0.104544 0)
(-0.0472471 -0.0964393 0)
(-0.0465394 -0.085896 0)
(-0.046128 -0.0741119 0)
(-0.0461257 -0.0621656 0)
(-0.0466239 -0.050889 0)
(-0.047582 -0.0407317 0)
(-0.0488334 -0.0317781 0)
(-0.0501674 -0.0238995 0)
(-0.0514177 -0.0169014 0)
(-0.0524897 -0.0105797 0)
(-0.0532848 -0.00473992 0)
(-0.0537229 0.000737709 0)
(-0.00758688 0.090879 0)
(-0.0114768 0.0808191 0)
(-0.0230381 0.055877 0)
(-0.0296147 0.0212029 0)
(-0.0351912 -0.0174499 0)
(-0.0374565 -0.0532155 0)
(-0.0380046 -0.0821164 0)
(-0.0371256 -0.10082 0)
(-0.0361711 -0.109204 0)
(-0.0356696 -0.109858 0)
(-0.0358 -0.105048 0)
(-0.0362795 -0.0966596 0)
(-0.0368378 -0.0859453 0)
(-0.0373869 -0.0739492 0)
(-0.0380078 -0.0616611 0)
(-0.0388884 -0.0499572 0)
(-0.0401412 -0.0394236 0)
(-0.0417134 -0.0302586 0)
(-0.0434305 -0.0223586 0)
(-0.0451166 -0.0154917 0)
(-0.0466604 -0.00939883 0)
(-0.0479335 -0.00382141 0)
(-0.0487991 0.00142357 0)
(-0.00527193 0.0976724 0)
(-0.00475869 0.0872734 0)
(-0.0121119 0.0620765 0)
(-0.0147899 0.0266097 0)
(-0.0181799 -0.0138722 0)
(-0.0194473 -0.0514746 0)
(-0.020692 -0.0819584 0)
(-0.0210812 -0.101345 0)
(-0.0216849 -0.109376 0)
(-0.0227379 -0.10937 0)
(-0.0244364 -0.104012 0)
(-0.0263996 -0.0954453 0)
(-0.0282476 -0.0848153 0)
(-0.0297843 -0.0729599 0)
(-0.0310094 -0.0606739 0)
(-0.0321557 -0.0487599 0)
(-0.0334987 -0.0379025 0)
(-0.0351674 -0.0284725 0)
(-0.0370823 -0.0204732 0)
(-0.0390717 -0.0136775 0)
(-0.0409918 -0.00778064 0)
(-0.0426753 -0.00246264 0)
(-0.0439013 0.0025373 0)
(-0.0031533 0.100399 0)
(0.00143055 0.0893917 0)
(-0.00165861 0.0645628 0)
(0.000431759 0.0287635 0)
(-0.00015274 -0.0120486 0)
(-0.000625142 -0.0496565 0)
(-0.00339316 -0.080395 0)
(-0.00606255 -0.100104 0)
(-0.00891431 -0.107773 0)
(-0.011767 -0.107238 0)
(-0.0150362 -0.101436 0)
(-0.0183537 -0.0928551 0)
(-0.0213388 -0.0825546 0)
(-0.0237501 -0.0711793 0)
(-0.0254978 -0.0592836 0)
(-0.0267834 -0.0474724 0)
(-0.0279885 -0.0364201 0)
(-0.0294581 -0.026674 0)
(-0.0312944 -0.0184449 0)
(-0.0333768 -0.0116026 0)
(-0.0355292 -0.00582806 0)
(-0.0375194 -0.000743717 0)
(-0.0390197 0.00400552 0)
(-0.00120985 0.099312 0)
(0.00696307 0.0870697 0)
(0.00792592 0.0624645 0)
(0.0145139 0.0263826 0)
(0.0170011 -0.012095 0)
(0.0168786 -0.0468337 0)
(0.0127594 -0.0759104 0)
(0.00724194 -0.0958026 0)
(0.00155289 -0.10384 0)
(-0.00338875 -0.103294 0)
(-0.00819952 -0.0974037 0)
(-0.012643 -0.0890939 0)
(-0.0164888 -0.079372 0)
(-0.0195258 -0.0687571 0)
(-0.0216371 -0.0576033 0)
(-0.0229471 -0.0462555 0)
(-0.023838 -0.0352368 0)
(-0.0248177 -0.0251797 0)
(-0.0262397 -0.0165577 0)
(-0.0281344 -0.00947412 0)
(-0.0303237 -0.00368084 0)
(-0.0324906 0.00123709 0)
(-0.0341894 0.00572841 0)
(0.000955284 0.0944894 0)
(0.01175 0.0809467 0)
(0.016741 0.0560505 0)
(0.0259568 0.020851 0)
(0.0302765 -0.013891 0)
(0.0301078 -0.044199 0)
(0.0251914 -0.0698503 0)
(0.0176554 -0.0885873 0)
(0.00951508 -0.0972333 0)