/*--------------------------------*- C++ -*----------------------------------*\
| =========                 |                                                 |
| \\      /  F ield         | OpenFOAM: The Open Source CFD Toolbox           |
|  \\    /   O peration     | Version:  2312                                  |
|   \\  /    A nd           | Website:  www.openfoam.com                      |
|    \\/     M anipulation  |                                                 |
\*---------------------------------------------------------------------------*/
FoamFile
{
    version     2.0;
    format      ascii;
    arch        "LSB;label=32;scalar=64";
    class       volScalarField;
    location    "4.45";
    object      alpha.water;
}
// * * * * * * * * * * * * * * * * * * * * * * * * * * * * * * * * * * * * * //

dimensions      [0 0 0 0 0 0 0];

internalField   nonuniform List<scalar> 
2268
(
3.42482e-07
3.26356e-07
2.10615e-07
2.80925e-08
1.18342e-09
1.44035e-09
8.34253e-10
2.71002e-10
1.38963e-10
9.31694e-11
6.94941e-11
6.17837e-11
6.19487e-11
6.83459e-11
8.18147e-11
1.05515e-10
1.39729e-10
1.96831e-10
2.83439e-10
5.2247e-10
1.00317e-09
1.36321e-09
1.45716e-09
2.50257e-07
1.72788e-07
6.29643e-08
1.67755e-08
1.45749e-10
1.45841e-10
1.60458e-10
1.5857e-10
1.51577e-10
1.41694e-10
1.28896e-10
1.14869e-10
9.98919e-11
1.03449e-10
1.21663e-10
1.55625e-10
2.25749e-10
3.85077e-10
5.63236e-10
8.56267e-10
1.41237e-09
1.54993e-09
1.53989e-09
6.74763e-08
3.48639e-08
1.29437e-08
2.03275e-10
1.81587e-10
1.92395e-10
4.22659e-10
5.90794e-10
7.59286e-10
7.13631e-10
5.78969e-10
3.07066e-10
2.10812e-10
1.95134e-10
2.58377e-10
2.98271e-10
6.33949e-10
1.11847e-09
1.14076e-09
1.02716e-09
1.29068e-09
1.07164e-09
8.01738e-10
3.41158e-09
1.55976e-09
1.23215e-09
3.49125e-10
7.3699e-10
1.43736e-09
2.44607e-09
1.46331e-09
1.54616e-09
1.44629e-09
9.66818e-10
7.46028e-10
8.36251e-09
8.8145e-09
3.39776e-09
9.74553e-10
3.7396e-10
3.48825e-10
3.01516e-10
2.11343e-10
1.09944e-10
9.57434e-11
6.19517e-11
-2.29532e-13
1.19103e-11
-1.78219e-14
1.22181e-11
-2.57205e-20
3.34316e-08
-1.37097e-12
7.90527e-13
-7.18172e-13
-5.66247e-13
-4.38875e-13
-1.75731e-13
-3.20407e-09
-1.96185e-09
-5.60132e-10
-1.42431e-11
-6.08985e-28
2.53372e-21
2.71115e-28
2.91271e-28
-5.11353e-12
-2.75676e-11
2.83201e-30
0.211942
0.1794
0.134445
0.0898419
0.0529726
0.0270885
0.0124355
0.00568372
0.0027264
0.00137121
0.000176429
1.08528e-08
0.00665454
0.0237046
0.0586672
0.109618
0.154917
0.172191
0.215359
0.272251
0.340959
0.475345
0.543644
0.938908
0.914928
0.873917
0.81715
0.747674
0.674053
0.602896
0.544984
0.501648
0.475232
0.473631
0.503742
0.560784
0.634566
0.717443
0.810299
0.82989
0.844113
0.876159
0.881
0.874945
0.87236
0.918417
0.999682
0.999468
0.998332
0.997063
0.997243
0.998176
0.998899
0.999492
0.999702
0.999549
0.997227
0.997049
0.999225
0.99972
0.993169
0.974162
0.957581
0.974126
0.983662
0.980406
0.953813
0.91665
0.917961
0.0141911
0.0114551
0.00609268
0.0067145
0.00928615
0.0115675
0.0115155
0.0106339
0.010577
0.0109826
0.011015
0.009048
0.00613266
0.00488375
0.00488369
0.0052145
0.0041063
0.00496682
0.00524004
0.0285952
0.00233293
0.00188413
0.00188987
0.00160281
0.000972286
0.000418461
0.000409251
0.000412807
0.000405799
0.000414886
0.000411275
0.000419328
0.00084621
0.00085117
0.000855246
0.000861501
0.000867756
0.00174342
0.0139155
0.000730634
0.000738609
0.000728036
0.000737269
0.000730026
0.0581472
0.142469
0.114028
0.105086
0.115662
0.100669
0.054827
0.047869
0.0561471
0.0517368
0.0511163
0.0548995
0.0478239
0.173269
0.252803
0.316429
0.361054
0.446793
0.610828
0.780827
0.850012
0.730115
0.511951
0.486613
0.53471
0.46049
0.47107
0.581497
0.508269
0.534129
0.608841
0.538629
0.667606
0.901867
0.914125
0.910675
0.925131
0.917384
0.909737
0.923031
0.961746
0.937879
0.662971
0.910838
0.586645
0.792688
0.917177
0.900974
0.919889
0.919801
0.736162
0.77261
0.991601
0.989091
0.990323
0.985499
0.92519
0.904681
0.972423
0.973646
0.939015
0.847593
0.939106
0.867777
0.849318
0.916986
0.903194
0.907512
0.914492
0.872936
0.920708
0.992571
0.992576
0.992579
0.992576
0.96501
0.907183
0.973645
0.973642
0.973647
0.973635
0.973637
0.973621
0.97337
0.857046
0.85811
0.863495
0.90939
0.917809
0.983236
0.991571
0.924666
0.962809
0.992559
0.949333
0.915914
0.973632
0.973646
0.973641
0.973642
0.973636
0.973637
0.97363
0.806426
0.823471
0.91501
0.918908
0.917671
0.999587
0.999714
0.999715
0.999718
0.999718
0.999718
0.999718
0.999719
0.999719
0.99972
0.99972
0.99972
0.99972
0.99972
0.999247
0.992961
0.979701
0.978657
0.985046
0.989585
0.989244
0.987359
0.980714
0.975865
0.996041
0.998439
0.998658
0.997328
0.996772
0.99867
0.999512
0.999669
0.99972
0.99972
0.99972
0.99972
0.99972
0.99972
0.99972
0.999718
0.994254
0.993982
0.993722
0.992604
0.981443
0.956579
0.716112
0.741648
0.738971
0.719279
0.69789
0.73924
0.82521
0.904843
0.942899
0.959774
0.974673
0.97016
0.961798
0.969391
0.979549
0.921496
0.816305
0.692736
0.645061
0.62282
0.589753
0.555347
0.582659
0.0584143
0.0676029
0.0504627
0.0313668
0.0281477
0.0590648
0.140107
0.267382
0.355986
0.389334
0.42398
0.455386
0.432948
0.41279
0.301401
0.111868
0.0632245
0.0389441
0.0290838
0.0219511
0.0151583
0.0111999
0.0220699
6.08808e-12
5.83533e-12
1.24029e-11
5.8353e-12
2.77517e-08
2.39191e-13
2.34003e-13
3.2689e-13
4.28743e-13
4.39932e-12
3.64867e-12
0.00122241
0.000595538
0.000214084
3.17141e-07
2.62296e-05
9.75425e-05
4.10382e-06
-5.81306e-17
-2.45167e-08
2.55951e-08
0.000396841
2.33352e-10
1.48493e-10
6.71914e-05
0.00014798
0.000109449
1.69604e-06
5.20533e-12
5.00193e-05
8.09479e-05
5.81367e-05
4.23131e-05
2.8979e-05
3.27277e-07
1.93458e-07
-6.49089e-23
-1.16254e-21
6.40569e-05
0.000173654
6.06287e-05
5.8147e-17
1.30716e-05
0.000172366
0.00263008
0.0031311
7.24506e-05
0.000564343
0.000563943
0.000273466
0.000503886
0.0025909
0.00524554
0.00512293
0.00461701
0.00455182
0.00518493
0.00273798
0.000319264
2.11614e-06
1.65475e-05
0.000223177
0.000333399
0.000309014
0.000185286
0.000147862
0.000164061
0.000336223
0.000471363
0.000661151
0.000225563
0.00018524
0.000586971
0.00619793
0.00630465
0.00628876
0.00328823
0.00299738
0.00638943
0.00648207
0.00647464
0.0064821
0.0060459
0.00116321
0.000225649
0.00049808
0.00105907
0.00737286
0.0136989
0.00612604
0.000348544
0.000632595
0.000663234
0.000521037
3.81229e-05
0.000148497
0.00189054
0.00168157
0.00104752
0.000522824
8.04005e-05
0.000214256
0.00164256
0.00539272
0.00574422
0.00247269
2.37432e-05
6.94478e-08
0.00415272
0.0162992
0.0167912
0.0167891
0.0167912
0.0159814
0.00533426
0.000663235
0.000460729
3.8797e-05
1.91047e-05
-1.36963e-21
-6.89044e-22
-9.9317e-14
7.0054e-15
-1.58342e-08
-7.28438e-08
-7.44065e-09
5.32104e-09
1.51934e-19
6.07959e-11
1.05086e-05
2.6379e-08
0.00132447
0.00854793
0.0122257
0.013637
0.0142205
0.00916867
0.00652642
0.000553277
2.39715e-06
1.97895e-05
1.07366e-06
1.96245e-08
9.57145e-10
2.31242e-10
3.38097e-10
2.14553e-06
5.81597e-06
5.12263e-07
-6.35054e-25
-9.34156e-17
-5.71928e-32
2.57964e-12
5.57048e-07
7.60898e-06
-4.62484e-09
-5.51109e-10
2.22883e-13
0.00043756
0.000549918
0.000625329
5.04287e-05
1.17788e-06
1.01351e-06
3.47701e-07
1.64903e-08
8.17214e-09
6.62136e-07
3.9016e-06
7.85507e-06
7.87135e-06
4.2926e-06
3.19919e-06
9.7947e-06
7.53725e-06
3.86129e-07
3.34088e-08
7.37488e-08
6.83962e-08
8.56233e-08
6.03329e-09
-3.57875e-08
-7.4308e-08
5.18903e-08
7.71082e-07
1.86989e-07
2.08895e-07
6.72384e-08
1.04679e-08
8.79407e-09
4.23978e-06
7.07874e-06
6.64986e-06
5.25725e-06
9.48233e-06
1.83905e-05
1.83934e-05
1.84123e-05
1.49199e-05
1.77515e-06
7.71381e-07
9.41575e-07
1.15674e-06
6.34214e-07
9.08554e-06
1.15673e-05
3.97817e-06
9.31551e-08
2.10557e-08
2.69939e-08
1.86434e-08
1.04105e-08
2.65198e-08
2.74366e-06
4.66224e-06
1.06701e-06
5.56688e-07
7.98613e-06
1.57858e-05
1.84123e-05
1.84292e-05
1.84281e-05
1.74206e-05
3.71589e-06
2.22969e-06
1.69473e-05
1.93184e-05
1.93184e-05
1.93184e-05
1.69763e-05
1.1446e-08
6.39398e-09
1.12392e-08
3.47009e-08
4.98722e-08
5.92169e-08
5.53291e-07
5.49106e-07
8.05544e-08
2.18565e-08
1.38127e-06
1.02987e-06
6.27009e-07
1.25927e-05
1.84434e-05
1.84377e-05
5.04529e-06
3.53165e-06
1.92207e-05
1.93184e-05
1.93184e-05
1.62291e-05
4.0357e-06
5.92268e-09
4.86913e-09
1.06433e-08
2.85343e-08
4.92557e-08
3.65434e-08
8.05123e-08
7.51412e-08
1.39716e-08
8.36572e-09
1.71352e-07
8.92802e-08
6.94503e-08
7.33653e-07
5.18039e-06
4.93202e-06
1.14956e-06
3.41728e-09
8.0833e-06
1.93184e-05
6.22947e-06
9.91962e-07
7.65467e-07
7.53753e-09
3.78833e-09
7.68549e-09
1.41744e-08
1.74249e-08
8.77561e-09
9.698e-09
8.5588e-09
4.90106e-09
1.95093e-09
9.41766e-09
3.88673e-09
2.59254e-09
2.74463e-08
1.62299e-07
1.39412e-07
3.06021e-08
3.7599e-09
8.92751e-07
9.13941e-06
6.63662e-06
5.59159e-07
4.70917e-07
1.65407e-08
2.47058e-09
4.50418e-09
5.94146e-09
3.71252e-09
2.71334e-09
2.90759e-09
2.19367e-09
1.85015e-09
9.01288e-10
9.32475e-10
8.14938e-10
8.5097e-10
1.41547e-09
3.65214e-09
3.68702e-09
1.58823e-09
1.95565e-09
1.68281e-09
7.5808e-07
5.21888e-06
8.7086e-07
4.85519e-07
1.89251e-08
1.53341e-09
2.22528e-09
2.49267e-09
1.17297e-09
1.11126e-09
1.06261e-09
7.28069e-10
6.85049e-10
5.82374e-10
6.24434e-10
8.02149e-10
1.03817e-09
1.21217e-09
1.4062e-09
1.43114e-09
1.10335e-09
9.46963e-10
1.56656e-09
1.64666e-09
4.1316e-07
4.69452e-07
3.2477e-07
1.89251e-08
8.64719e-10
9.88597e-10
1.02276e-09
5.49382e-10
4.72293e-10
4.04518e-10
3.20083e-10
3.28051e-10
3.44323e-10
4.09986e-10
5.71457e-10
7.54993e-10
9.18091e-10
1.03765e-09
1.00273e-09
8.72961e-10
9.47595e-10
1.35315e-09
1.9331e-09
2.48659e-09
1.3552e-07
8.32871e-08
1.89072e-08
5.60855e-10
4.66227e-10
4.76053e-10
3.18232e-10
2.5562e-10
2.0884e-10
1.74865e-10
1.63e-10
1.56873e-10
1.79411e-10
2.35985e-10
3.05375e-10
3.77189e-10
4.31693e-10
4.41877e-10
4.33607e-10
5.13576e-10
7.48985e-10
1.14027e-09
1.43906e-09
6.72755e-09
8.51524e-09
1.86949e-08
4.05603e-10
2.7653e-10
2.7493e-10
2.1035e-10
1.69136e-10
1.37036e-10
1.13163e-10
9.31695e-11
7.81727e-11
7.60327e-11
8.61992e-11
1.04483e-10
1.26845e-10
1.50068e-10
1.65074e-10
1.78023e-10
2.17455e-10
3.24081e-10
5.58026e-10
9.13465e-10
9.57894e-10
1.12886e-08
1.88823e-08
3.11093e-10
2.26127e-10
2.08675e-10
1.8329e-10
1.68319e-10
1.53057e-10
1.29496e-10
9.55374e-11
6.29594e-11
4.47171e-11
3.75348e-11
3.75305e-11
4.28076e-11
5.12311e-11
6.02971e-11
7.06698e-11
8.93042e-11
1.32176e-10
2.23024e-10
4.19086e-10
7.00845e-10
3.5273e-09
1.89512e-08
2.57722e-10
2.29484e-10
2.2502e-10
2.39789e-10
2.46599e-10
2.33513e-10
1.95568e-10
1.3765e-10
8.12233e-11
4.68868e-11
2.80255e-11
1.88616e-11
1.60366e-11
1.73826e-11
2.10593e-11
2.65797e-11
3.55098e-11
5.35614e-11
8.96139e-11
1.53441e-10
3.20867e-10
8.86173e-10
1.92504e-08
2.73257e-10
2.6649e-10
2.93973e-10
3.1769e-10
3.3392e-10
3.27538e-10
2.87335e-10
2.10808e-10
1.19858e-10
6.32357e-11
3.39775e-11
1.7716e-11
9.58129e-12
6.83649e-12
7.18615e-12
9.3779e-12
1.35352e-11
2.09252e-11
3.4069e-11
5.9163e-11
9.89427e-11
2.18707e-10
1.92809e-08
2.81184e-10
2.97024e-10
3.5499e-10
4.25151e-10
4.96084e-10
4.83808e-10
4.19008e-10
3.196e-10
1.81183e-10
8.84138e-11
4.66706e-11
2.3333e-11
1.06511e-11
4.78473e-12
2.98007e-12
3.27971e-12
4.94718e-12
8.13527e-12
1.36925e-11
2.22103e-11
4.42403e-11
7.35101e-11
2.02995e-08
2.81884e-10
3.38763e-10
4.75255e-10
7.36848e-10
1.12965e-09
1.02807e-09
5.58164e-10
4.51311e-10
2.62963e-10
1.18662e-10
6.23161e-11
3.1873e-11
1.45103e-11
5.77992e-12
2.21137e-12
1.36582e-12
1.77337e-12
2.99401e-12
5.17454e-12
9.23421e-12
1.51536e-11
2.85448e-11
2.16552e-08
3.2706e-10
4.16682e-10
5.91375e-10
1.23112e-09
1.71769e-09
3.01748e-09
6.58526e-10
5.72352e-10
3.60295e-10
1.50039e-10
7.77498e-11
4.1018e-11
1.96052e-11
7.98019e-12
2.82635e-12
9.52896e-13
6.58342e-13
1.05979e-12
1.93169e-12
3.37124e-12
7.03765e-12
1.09505e-11
2.29773e-08
4.48626e-10
8.80216e-10
1.31065e-09
1.41987e-09
7.55642e-09
1.13352e-08
6.34321e-10
6.55513e-10
4.58731e-10
1.78813e-10
8.82278e-11
4.85639e-11
2.46404e-11
1.05749e-11
3.88109e-12
1.24845e-12
3.87126e-13
3.66558e-13
6.28932e-13
1.2755e-12
2.02024e-12
4.15845e-12
2.31947e-08
4.61865e-10
8.39448e-10
1.36036e-08
1.25094e-07
3.99879e-07
1.26516e-07
6.33866e-10
7.00153e-10
5.80622e-10
2.10209e-10
9.16147e-11
5.22232e-11
2.80904e-11
1.29071e-11
5.07153e-12
1.64875e-12
4.40299e-13
1.47715e-13
2.10041e-13
3.6403e-13
8.35988e-13
1.2739e-12
2.52385e-08
8.09295e-10
9.11393e-09
1.68849e-07
9.59108e-07
9.54631e-07
4.19044e-07
6.35547e-10
7.73103e-10
6.38238e-10
2.11332e-10
8.60531e-11
5.05797e-11
2.84768e-11
1.44255e-11
6.15055e-12
2.14792e-12
5.97373e-13
1.15351e-13
7.03337e-14
1.31834e-13
2.18365e-13
4.26779e-13
2.31511e-08
2.39439e-09
7.07931e-08
5.82824e-07
1.06567e-06
9.72802e-07
1.50999e-07
6.48034e-10
1.13591e-09
6.25216e-10
1.923e-10
7.34862e-11
4.37034e-11
2.61406e-11
1.41708e-11
6.64277e-12
2.55601e-12
8.00425e-13
1.53886e-13
2.9847e-14
3.66575e-14
8.56454e-14
1.28296e-13
3.56423e-08
4.90726e-09
1.7146e-07
8.50414e-07
1.06693e-06
4.75702e-07
8.08335e-10
1.93631e-09
1.66523e-09
5.57488e-10
1.57562e-10
5.73412e-11
3.47098e-11
2.11814e-11
1.22004e-11
6.31141e-12
2.71593e-12
9.30657e-13
2.33845e-13
2.84244e-14
1.1892e-14
1.82088e-14
4.13472e-14
4.30554e-08
8.42883e-09
1.97134e-07
5.95455e-07
6.14107e-07
2.45361e-08
8.13189e-10
2.80704e-09
1.68646e-09
4.33921e-10
1.16158e-10
4.14533e-11
2.5106e-11
1.53099e-11
9.11065e-12
5.14577e-12
2.51281e-12
9.55382e-13
2.77515e-13
3.64865e-14
4.94808e-15
6.48862e-15
1.02118e-14
5.31022e-08
1.04643e-08
1.29692e-07
3.61561e-07
5.91979e-08
1.49982e-09
1.50122e-09
2.45994e-09
1.07924e-09
2.87557e-10
7.7026e-11
2.79376e-11
1.64972e-11
9.93058e-12
5.87383e-12
3.53771e-12
1.95517e-12
8.616e-13
2.80312e-13
4.83265e-14
3.19448e-15
1.44783e-15
3.13559e-15
5.411e-08
1.01613e-08
9.67123e-08
7.29786e-08
1.45664e-08
4.83302e-09
2.52598e-09
1.72468e-09
5.55405e-10
1.67435e-10
4.48061e-11
1.68005e-11
9.93416e-12
5.73121e-12
3.27251e-12
1.99798e-12
1.23978e-12
6.42197e-13
2.43893e-13
5.85061e-14
4.05447e-15
6.18739e-16
7.44803e-16
6.19302e-08
8.67459e-09
3.08688e-08
1.60631e-09
3.13684e-09
5.40258e-09
3.0326e-09
1.25679e-09
3.13245e-10
8.65561e-11
2.20242e-11
9.15436e-12
5.48154e-12
2.98073e-12
1.57407e-12
9.23482e-13
6.05754e-13
3.72608e-13
1.72943e-13
5.30463e-14
5.62339e-15
3.12587e-16
2.03158e-16
5.73296e-08
5.80426e-09
2.59472e-09
1.60586e-09
3.25694e-09
4.88587e-09
2.85259e-09
1.18407e-09
3.07236e-10
4.70174e-11
8.85537e-12
4.39045e-12
2.70485e-12
1.40743e-12
6.66631e-13
3.47119e-13
2.22429e-13
1.5675e-13
9.26134e-14
3.69802e-14
5.44262e-15
2.93576e-16
5.2406e-17
1.12293e-07
4.82045e-09
1.92055e-09
2.4596e-09
1.42996e-08
8.13557e-09
3.04271e-09
1.09415e-09
2.80609e-10
3.49485e-11
3.40247e-12
1.81938e-12
1.16469e-12
5.88599e-13
2.50464e-13
1.06288e-13
5.98567e-14
4.45213e-14
3.36391e-14
1.87934e-14
4.59334e-15
2.88934e-16
1.79437e-17
1.54401e-07
2.53973e-08
1.94339e-09
3.95147e-08
2.23862e-08
7.19006e-09
2.5197e-09
7.9341e-10
1.73007e-10
2.00365e-11
1.31529e-12
6.02638e-13
4.04527e-13
2.05084e-13
8.13435e-14
2.85665e-14
1.20397e-14
8.29754e-15
8.03303e-15
6.68635e-15
2.37567e-15
2.48958e-16
1.19148e-17
1.60555e-07
1.14782e-07
5.43779e-08
5.56963e-08
1.73296e-08
5.32555e-09
1.54326e-09
3.45876e-10
5.71219e-11
5.04652e-12
2.49075e-13
1.31132e-13
9.59582e-14
5.09425e-14
1.96533e-14
5.88701e-15
1.7229e-15
9.66926e-16
1.25128e-15
1.62926e-15
9.52994e-16
1.73943e-16
1.5386e-17
1.52731e-07
1.49517e-07
1.15164e-07
3.19611e-08
7.18411e-09
1.56519e-09
2.89623e-10
4.53256e-11
4.49671e-12
2.22831e-13
1.4393e-14
1.42228e-14
1.1686e-14
6.69316e-15
2.66003e-15
7.15131e-16
1.55951e-16
6.73355e-17
1.30269e-16
2.85068e-16
3.20133e-16
1.01529e-16
1.08506e-17
0.980625
0.980531
0.980412
0.977832
0.946713
0.949994
0.956183
0.981449
0.702259
0.765279
0.860907
0.930506
0.059214
0.123485
0.281203
0.387788
1.81409e-13
1.42743e-14
6.13374e-08
0.000114459
0.00128554
4.5701e-31
-6.11609e-17
9.28828e-23
0.000762907
0.0133486
0.0184432
0.0131564
0.00289797
0.0184558
0.0184513
0.018452
0.00700995
0.0184526
0.0184536
0.0184524
0.0184617
0.0184631
0.0184536
0.0184547
0.00334472
0.00435481
0.00317205
0.00152265
-7.79297e-12
-1.00792e-26
8.4421e-20
2.71262e-14
1.00413e-07
2.20887e-08
2.50039e-09
8.34482e-08
4.00255e-06
5.14762e-07
4.17504e-07
3.69089e-07
1.43845e-06
5.98472e-07
2.53946e-07
1.50218e-07
5.90133e-07
4.66553e-07
2.00359e-07
1.46874e-05
4.80615e-07
2.62985e-06
3.27557e-05
4.56457e-05
4.47097e-07
4.12131e-07
2.85928e-05
4.72323e-05
3.95556e-07
4.1798e-07
4.30149e-06
1.94505e-05
2.78388e-07
4.97958e-07
8.05823e-07
1.8103e-07
7.5487e-08
3.81952e-07
1.53777e-07
9.08132e-08
3.32742e-08
5.1587e-08
6.84306e-08
2.67828e-08
1.10381e-08
1.31904e-08
1.02033e-08
9.90766e-09
2.08127e-09
2.02405e-09
2.55392e-09
2.51408e-09
4.11256e-10
4.35272e-10
5.5991e-10
7.03731e-10
1.11943e-10
1.52064e-10
1.80232e-10
2.2538e-10
4.4012e-11
5.38844e-11
7.42148e-11
8.77e-11
1.74885e-11
2.39457e-11
2.86047e-11
3.64137e-11
6.30588e-12
8.05588e-12
1.10102e-11
1.3e-11
2.07488e-12
2.91e-12
3.52115e-12
4.65265e-12
6.47299e-13
8.104e-13
1.13968e-12
1.35817e-12
2.05386e-13
2.68688e-13
3.13544e-13
4.21106e-13
5.68686e-14
6.92591e-14
9.27616e-14
1.00175e-13
1.8412e-14
2.08957e-14
2.36875e-14
2.96741e-14
4.4213e-15
5.49887e-15
6.81625e-15
7.09431e-15
1.25671e-15
1.46885e-15
1.68742e-15
2.00721e-15
3.08498e-16
3.83936e-16
4.54698e-16
4.76828e-16
7.14864e-17
8.28167e-17
1.00186e-16
1.18148e-16
1.35125e-17
1.72454e-17
2.08982e-17
2.32969e-17
2.72245e-18
3.15901e-18
3.96274e-18
4.88404e-18
5.83648e-19
5.91279e-19
7.08032e-19
8.30096e-19
1.75657e-19
1.10925e-19
1.07766e-19
1.18138e-19
0.982338
0.898387
0.866302
0.902403
0.977952
0.939296
0.972177
0.972046
0.950243
0.926674
0.919512
0.941901
0.97363
0.960394
0.787755
0.879154
0.918188
0.918954
0.918874
0.981748
0.92283
0.887543
0.935628
0.940433
0.846348
0.82247
0.708529
0.346692
0.412657
0.740314
0.802394
0.861858
0.790799
0.762947
0.617112
0.456952
0.61925
0.881086
0.9516
0.824487
0.592562
0.472753
0.576206
0.664138
0.459013
0.0343225
1.21054e-21
0.0169036
0.120452
0.181421
0.271532
0.210395
0.0601186
0.0145829
0.0179502
0.0434541
0.0540584
0.403733
0.233319
0.0673318
0.018695
0.139591
0.268682
0.12622
-4.46271e-10
-4.46081e-24
-2.34339e-23
1.88383e-22
-8.39187e-24
9.75926e-23
1.0917e-05
5.53537e-05
0.00011574
0.000623609
0.00121007
0.00115876
0.000173049
-1.05354e-19
-1.22221e-20
-4.74673e-20
0.035721
0.122253
0.0586027
1.30737e-22
2.86086e-06
3.00357e-05
7.27361e-05
6.7176e-05
9.96413e-06
0.000119045
0.00021953
0.000455017
0.000928472
0.000604324
0.00131336
-1.96123e-12
-1.38938e-22
-6.68436e-22
-5.69128e-13
0.0173109
0.100866
0.0624238
0.000224973
0.000126577
0.000144376
0.000760457
0.00117073
0.00112523
0.000808892
0.000643927
0.000456725
0.000448341
0.000573215
0.00131218
1.96123e-12
1.00932e-05
7.17487e-05
-1.2172e-06
0.0087574
0.065835
0.0732092
0.00709228
5.93129e-05
0.00010718
0.000482515
0.0011753
0.00266421
0.00328423
0.00283533
0.0018521
0.00148587
0.00157007
0.000520192
0.0167556
0.0019459
0.000297047
0.000743562
0.0012388
0.00879803
0.0173848
0.0118307
1.76854e-05
1.7711e-05
1.77045e-05
0.000204654
0.00298313
0.00374222
0.00373777
0.0036537
0.00273045
0.00139561
1.97093e-07
0.018452
0.0184494
0.01091
0.00341253
0.00356603
0.00489908
0.0076084
0.00987023
0.00259477
1.77056e-05
1.79402e-05
0.000123246
0.000925901
0.00167102
0.00137019
0.000418053
1.53031e-05
1.98305e-07
2.52692e-07
0.0163763
0.00771306
0.00619069
0.00650259
0.0068852
0.00748811
0.00751788
0.00577353
1.07853e-06
1.97484e-05
8.68182e-05
8.40586e-05
2.85005e-07
1.64529e-07
1.80603e-07
1.64529e-07
1.80834e-07
1.16563e-06
3.92102e-06
0.00100812
0.000144749
1.33834e-06
0.000193839
0.000697127
0.00233258
0.00380615
0.00134825
1.11017e-06
1.70589e-05
1.22313e-05
5.25029e-06
5.57487e-07
8.15822e-07
8.50727e-07
9.37691e-07
6.1866e-06
1.11908e-05
7.88405e-06
-2.09e-11
3.89029e-07
3.01895e-08
8.48463e-10
1.46072e-09
8.59495e-08
3.11802e-07
2.71973e-07
1.45256e-06
1.66811e-06
2.75476e-06
1.97195e-06
5.20303e-07
5.16253e-07
9.25625e-07
1.89937e-06
1.16242e-05
1.15427e-05
1.15846e-05
2.23197e-07
1.75328e-07
1.30985e-08
4.20445e-26
2.38056e-11
1.56234e-07
1.05629e-06
6.08834e-06
6.28452e-06
6.06379e-06
1.17068e-06
1.20363e-06
2.11671e-06
1.008e-06
7.21801e-07
1.67462e-06
1.17097e-05
1.04161e-05
1.03164e-05
1.54429e-07
2.5853e-08
3.95927e-09
2.98865e-26
2.38777e-06
1.34845e-05
1.40915e-05
5.85003e-06
3.47854e-06
3.54705e-06
4.54657e-06
1.68972e-05
1.83058e-05
9.04774e-06
9.69095e-07
3.18807e-06
1.17104e-05
7.21556e-06
7.68279e-08
1.05805e-07
2.38683e-06
1.07647e-05
2.17315e-05
2.17309e-05
1.459e-05
6.64903e-06
1.25731e-05
1.70004e-05
2.08757e-05
2.13207e-05
2.13059e-05
2.13239e-05
1.82521e-05
1.437e-06
2.75711e-06
1.11369e-05
7.70069e-08
7.72294e-08
3.08321e-05
3.31343e-05
3.2224e-05
2.25022e-05
1.20333e-05
2.25967e-06
9.24167e-06
1.3698e-05
1.61768e-05
1.57313e-05
1.19794e-05
1.16672e-05
1.59034e-05
1.48903e-05
2.35421e-06
4.14179e-06
3.80333e-06
1.49123e-07
9.22308e-08
4.72328e-05
2.48048e-05
6.39982e-06
3.23047e-06
4.09173e-07
3.9474e-07
3.10865e-06
2.25584e-06
3.44359e-06
1.37618e-05
1.43321e-05
1.20146e-05
1.17262e-05
1.8599e-05
2.64135e-05
3.28485e-05
8.64541e-06
2.15128e-06
1.63231e-07
4.72328e-05
1.32641e-05
1.11874e-06
1.1222e-06
1.011e-06
5.07341e-07
5.52062e-07
1.5901e-06
1.92875e-05
4.53447e-05
5.01053e-05
3.44498e-05
3.28464e-05
3.09806e-05
3.60214e-05
3.61291e-05
3.56983e-05
1.08491e-05
3.56882e-07
1.26916e-05
4.93479e-06
3.03303e-06
1.1208e-06
2.91772e-06
2.94922e-06
2.7068e-06
1.69971e-06
1.83698e-05
5.14677e-05
5.15273e-05
5.16359e-05
3.86723e-05
1.03288e-05
2.35986e-05
3.92328e-05
3.92375e-05
1.7349e-05
7.45374e-08
1.80192e-07
1.07192e-07
9.15712e-07
1.21717e-06
1.69324e-06
2.11985e-06
2.34824e-06
1.17213e-06
1.09031e-06
6.67465e-06
3.33438e-05
1.36245e-05
2.13582e-09
2.04847e-09
1.95141e-09
3.54881e-05
3.92228e-05
1.7846e-05
7.5495e-08
1.32145e-08
1.16732e-08
6.71543e-08
1.34619e-07
2.04335e-07
7.49555e-07
5.4956e-07
2.73422e-08
1.22937e-07
2.28224e-06
4.70798e-06
5.28334e-06
2.02025e-06
2.13583e-09
2.17797e-09
1.09739e-05
3.64344e-05
8.19765e-06
7.45366e-08
8.19456e-09
6.65122e-09
9.11497e-09
7.74643e-09
4.32873e-09
7.31863e-09
2.00402e-09
1.96773e-09
1.18369e-09
1.1738e-09
1.17833e-09
2.75885e-07
7.55753e-07
1.47306e-07
6.50146e-09
4.36232e-06
1.90507e-05
2.44571e-06
8.56024e-08
5.98567e-09
4.99188e-09
5.43616e-09
4.95697e-09
4.35485e-09
3.57606e-09
2.55488e-09
2.53394e-09
2.18675e-09
1.27926e-09
1.41088e-09
1.52609e-08
4.11353e-07
1.72401e-07
1.87124e-08
2.75569e-06
2.60993e-06
5.20634e-07
2.08608e-07
2.45691e-09
2.74907e-09
3.35919e-09
3.65968e-09
3.88242e-09
4.35104e-09
5.48542e-09
5.97601e-09
6.6523e-09
6.96941e-09
2.15212e-08
2.55875e-07
4.14667e-07
2.45374e-07
3.80922e-08
1.59417e-07
2.09809e-09
4.84213e-08
2.11482e-07
8.14428e-10
1.09223e-09
1.56587e-09
2.11728e-09
3.0139e-09
4.26378e-09
5.57958e-09
7.71429e-09
1.81002e-08
7.87567e-08
1.2149e-07
1.24376e-07
9.89194e-08
7.92387e-08
6.31472e-08
4.07117e-09
2.09981e-09
2.0978e-09
2.06448e-07
2.77136e-10
3.86712e-10
5.53643e-10
7.86238e-10
1.11619e-09
1.70587e-09
2.68908e-09
5.58868e-09
1.0064e-08
1.57321e-08
2.41444e-08
1.76662e-08
1.5011e-08
1.56719e-08
3.30825e-08
2.15765e-08
3.45688e-09
2.09876e-09
1.51679e-07
1.08098e-10
1.52824e-10
2.19069e-10
3.11753e-10
4.556e-10
6.62983e-10
9.30592e-10
1.41512e-09
2.0382e-09
2.82036e-09
4.09198e-09
5.66396e-09
7.18611e-09
1.55346e-08
2.09134e-08
1.12302e-08
3.3968e-09
6.54846e-09
1.51164e-07
4.3739e-11
6.4517e-11
9.92626e-11
1.52415e-10
2.41256e-10
3.85494e-10
6.09519e-10
9.83088e-10
1.60403e-09
2.74999e-09
4.66181e-09
6.18592e-09
1.2329e-08
2.53239e-08
4.15936e-08
3.92573e-08
1.52386e-08
3.97093e-08
1.16677e-07
1.66826e-11
2.61491e-11
4.18813e-11
6.82255e-11
1.15395e-10
2.0191e-10
3.58297e-10
6.43252e-10
1.22059e-09
2.34396e-09
4.46158e-09
7.41938e-09
1.82371e-08
3.89225e-08
5.5096e-08
5.51922e-08
2.50897e-08
5.03816e-08
1.28721e-07
5.77605e-12
9.39409e-12
1.55579e-11
2.65834e-11
4.80331e-11
9.34885e-11
1.95993e-10
4.03407e-10
8.3958e-10
1.7777e-09
3.84061e-09
7.86306e-09
1.60316e-08
3.56959e-08
5.28924e-08
4.52139e-08
2.02016e-08
9.50433e-08
1.3007e-07
1.84766e-12
2.88285e-12
4.80006e-12
8.46161e-12
1.58625e-11
3.1644e-11
5.63323e-11
1.35621e-10
3.69599e-10
1.07173e-09
2.73347e-09
6.47191e-09
1.24983e-08
2.12364e-08
3.3215e-08
2.64215e-08
2.3067e-08
1.17374e-07
1.30014e-07
4.85089e-13
7.31002e-13
1.1186e-12
1.8233e-12
3.24501e-12
5.5687e-12
8.08114e-12
2.22586e-11
7.05833e-11
2.23304e-10
6.61744e-10
1.83448e-09
6.28883e-09
1.28445e-08
1.93913e-08
1.94982e-08
3.36499e-08
1.12769e-07
1.12867e-07
1.32167e-13
1.70196e-13
2.34426e-13
3.38974e-13
5.25903e-13
8.50068e-13
1.03508e-12
3.08282e-12
1.09431e-11
3.78133e-11
1.28792e-10
4.75452e-10
2.41881e-09
4.29765e-09
1.15118e-08
2.40305e-08
4.19854e-08
5.0157e-08
2.66545e-07
3.09895e-14
4.01691e-14
5.11562e-14
6.86676e-14
1.00015e-13
1.56473e-13
2.28021e-13
5.35166e-13
1.901e-12
7.2786e-12
2.64218e-11
1.00676e-10
4.82798e-10
3.04759e-09
6.59632e-09
1.8938e-08
3.46175e-08
2.07538e-08
3.61754e-07
8.34802e-15
9.68239e-15
1.17908e-14
1.55613e-14
2.33425e-14
4.09345e-14
8.43288e-14
1.76832e-13
6.0052e-13
2.30537e-12
8.48732e-12
3.10469e-11
1.38557e-10
9.12503e-10
2.23659e-09
4.35139e-09
1.27719e-08
1.28582e-08
3.8515e-07
2.07053e-15
2.42307e-15
2.92179e-15
3.96294e-15
6.47395e-15
1.30885e-14
3.29576e-14
9.85322e-14
3.19248e-13
9.914e-13
3.9062e-12
1.5186e-11
5.89171e-11
4.30531e-10
1.56183e-09
2.41603e-09
4.08109e-09
1.235e-08
3.8539e-07
5.22293e-16
6.15171e-16
7.76496e-16
1.16834e-15
2.2339e-15
5.22154e-15
1.45789e-14
4.64813e-14
1.62461e-13
5.87566e-13
2.2254e-12
9.16303e-12
3.3394e-11
1.89505e-10
1.19024e-09
3.14083e-09
6.00599e-09
1.37943e-08
2.64228e-07
1.24376e-16
1.52565e-16
2.11826e-16
3.79769e-16
8.56937e-16
2.27839e-15
6.73284e-15
2.15362e-14
7.29697e-14
2.84364e-13
1.0793e-12
4.77813e-12
2.06402e-11
9.15685e-11
7.01171e-10
3.42923e-09
6.1814e-09
1.63543e-08
6.53707e-08
2.75622e-17
3.46322e-17
5.34362e-17
1.13796e-16
3.09095e-16
9.21132e-16
2.86469e-15
9.03578e-15
2.95944e-14
9.8548e-14
3.71789e-13
1.71603e-12
8.03669e-12
4.19773e-11
2.37772e-10
1.89745e-09
5.13796e-09
7.76309e-09
8.97612e-09
5.27632e-18
6.80316e-18
1.1626e-17
2.91922e-17
9.673e-17
3.49706e-16
1.22615e-15
4.1309e-15
1.3686e-14
4.71912e-14
1.69371e-13
7.2125e-13
3.55941e-12
1.9757e-11
1.11874e-10
5.31168e-10
1.50336e-09
2.23472e-09
2.75712e-10
8.88354e-19
1.09065e-18
1.78488e-18
4.68399e-18
1.8692e-17
8.20903e-17
3.50078e-16
1.3738e-15
4.98973e-15
1.67107e-14
6.33401e-14
2.55609e-13
1.21262e-12
6.00758e-12
3.5992e-11
1.86841e-10
5.05875e-10
7.78277e-10
2.75601e-10
1.21085e-19
1.35649e-19
1.8949e-19
4.23503e-19
1.63727e-18
8.69329e-18
4.76168e-17
2.36592e-16
1.01837e-15
3.87782e-15
1.29419e-14
4.82197e-14
1.87814e-13
8.05882e-13
5.73455e-12
3.83822e-11
1.30956e-10
1.92411e-10
1.29313e-10
)
;

boundaryField
{
    leftWall
    {
        type            zeroGradient;
    }
    rightWall
    {
        type            zeroGradient;
    }
    lowerWall
    {
        type            zeroGradient;
    }
    atmosphere
    {
        type            inletOutlet;
        inletValue      uniform 0;
        value           nonuniform List<scalar> 
46
(
1.52731e-07
1.49517e-07
1.15164e-07
3.19611e-08
7.18411e-09
1.56519e-09
2.89623e-10
4.53256e-11
4.49671e-12
0
0
0
0
0
0
0
1.55951e-16
6.73355e-17
1.30269e-16
2.85068e-16
3.20133e-16
1.01529e-16
1.08506e-17
1.75657e-19
0
0
0
0
0
0
0
0
0
0
0
0
0
0
0
0
0
0
0
1.30956e-10
1.92411e-10
0
)
;
    }
    defaultFaces
    {
        type            empty;
    }
}


// ************************************************************************* //
