/*--------------------------------*- C++ -*----------------------------------*\
| =========                 |                                                 |
| \\      /  F ield         | OpenFOAM: The Open Source CFD Toolbox           |
|  \\    /   O peration     | Version:  2312                                  |
|   \\  /    A nd           | Website:  www.openfoam.com                      |
|    \\/     M anipulation  |                                                 |
\*---------------------------------------------------------------------------*/
FoamFile
{
    version     2.0;
    format      ascii;
    arch        "LSB;label=32;scalar=64";
    class       volScalarField;
    location    "4.45";
    object      alpha.air;
}
// * * * * * * * * * * * * * * * * * * * * * * * * * * * * * * * * * * * * * //

dimensions      [0 0 0 0 0 0 0];

internalField   nonuniform List<scalar> 
2268
(
9.4301e-10
9.68807e-10
9.18287e-10
8.34133e-10
6.45506e-10
4.03434e-10
2.25225e-10
1.18092e-10
8.54615e-11
7.11631e-11
6.58685e-11
7.2892e-11
8.81112e-11
1.15289e-10
1.58983e-10
2.20792e-10
2.67318e-10
2.58292e-10
2.04423e-10
1.92999e-10
3.17856e-08
3.81714e-07
5.7785e-07
1.10986e-09
1.5002e-09
1.61035e-09
1.92578e-09
1.99676e-09
2.06885e-09
2.60875e-10
2.05846e-10
2.76917e-10
3.21297e-10
3.22452e-10
3.59269e-10
3.89592e-10
4.29455e-10
5.9994e-10
8.86999e-10
1.3752e-09
2.04233e-09
1.42792e-09
1.93132e-10
1.79324e-07
8.51048e-07
8.50319e-07
1.32636e-09
1.51467e-09
1.87787e-09
5.87759e-09
1.47824e-08
2.24843e-08
1.85117e-08
1.77888e-09
2.14338e-09
1.54498e-09
1.30271e-09
1.63171e-09
1.70329e-09
1.41236e-09
1.97751e-09
2.27415e-09
4.49535e-09
6.97789e-09
6.54556e-09
3.93416e-08
1.65386e-07
2.20793e-07
2.19593e-07
3.41181e-09
2.96539e-09
3.61616e-09
5.56425e-09
5.48073e-09
7.40674e-08
1.00027e-07
1.10793e-07
1.16809e-08
4.28747e-09
3.6824e-09
1.74299e-09
1.44894e-09
1.22589e-09
1.31109e-09
5.16749e-10
4.30644e-10
4.57575e-10
5.16567e-10
3.21277e-09
1.03909e-08
1.15794e-08
0.000323318
2.11367e-05
2.5004e-05
6.86156e-05
6.53226e-05
1.65232e-05
9.31417e-08
9.2717e-08
5.28855e-07
2.27609e-06
3.0329e-06
4.37184e-07
1.00665e-09
8.41977e-10
8.40792e-10
8.41188e-10
2.0853e-05
0.000120544
0.000227814
0.000558518
0.000849667
6.26081e-08
0.00147131
0.00493133
0.000875609
0.000924418
0.00110001
0.00112111
0.000912609
0.000407951
5.05013e-05
5.51062e-07
1.70939e-05
0.000121326
0.000145551
0.000114339
2.55679e-05
8.40402e-07
1.2043e-05
2.91839e-05
0.0018935
0.00755624
0.0120946
0.0121518
0.0105524
0.00689321
0.00689135
0.00118926
0.00131103
0.00132738
0.00132738
0.00132738
0.00132738
0.000851704
0.000129573
2.91864e-05
0.000122675
0.000182481
0.000182488
0.000171031
2.87736e-05
1.30145e-05
0.000369202
0.00185811
0.00419876
0.00556968
0.0116558
0.0115874
0.00955327
0.0047519
0.000306182
0.000353059
0.000503626
0.000980172
0.0011359
0.0009046
0.000901143
0.000461207
0.00011735
7.7946e-05
0.000121765
0.000118254
6.49128e-05
1.85616e-05
3.07537e-05
0.000250163
0.000203082
5.14205e-05
4.02398e-05
0.00189216
0.00817974
0.00537367
0.00380069
0.000234785
0.00206069
0.00870083
0.0087667
0.00718556
0.00429634
0.00370862
0.00367611
0.0027969
0.00233447
0.00233456
0.00233456
0.0023347
0.00233475
0.00233493
0.00287625
0.00515828
0.0060605
0.00606526
0.000234786
0.000441016
0.00363913
0.0051355
0.00504713
0.00614398
0.00929064
0.00917296
0.00402981
0.00233448
0.00233448
0.00234985
0.0023347
0.00233475
0.00234935
0.00440765
0.0083881
0.00812342
0.00610132
0.000234785
0.0011989
0.00122399
0.00124794
0.00150169
0.010946
0.0171992
0.0172379
0.0171184
0.012762
0.0128562
0.015049
0.012802
0.0102111
0.0128199
0.0183161
0.021124
0.0143231
0.011876
0.00640271
0.0069907
0.00381128
0.00372292
0.00193018
0.00718499
0.0108651
0.0199138
0.0224623
0.0224601
0.0218173
0.0208695
0.0243478
0.0243465
0.0239131
0.0256733
0.0256626
0.0223284
0.0177875
0.00760237
0.0086667
0.0273375
0.0415603
0.0418286
0.0419727
0.0419732
0.0386123
0.0179791
0.0201116
0.00931137
0.00332701
0.0214091
0.0238354
0.0213898
0.0215945
0.0235406
0.0232564
0.0175291
0.00757349
0.00401082
0.00650889
0.00526631
0.00992075
0.0420925
0.0357007
0.0102684
0.00435051
0.00578673
0.00332277
0.00332323
0.00642865
0.0137503
0.0432661
0.0586692
0.0555511
0.049926
0.0176288
0.00752918
0.00261355
0.00209665
0.00197538
0.00210041
0.0120377
0.0176374
0.00670743
0.00464605
0.00334378
0.00332421
0.00332368
0.00333015
0.00333317
0.0755811
0.0908318
0.0910435
0.0535217
0.0325945
0.00337485
0.00202838
0.00197556
0.0019751
0.00197524
0.00258671
0.00879928
0.0135852
0.00845775
0.00897878
0.00896167
0.0103151
0.00518749
0.0070551
0.0846796
0.0910435
0.0463139
0.0220111
0.034746
0.000412768
0.000286344
0.000285106
0.000280188
0.000265028
0.000246862
0.000222376
0.00019813
0.000197423
0.000192642
0.000177036
9.75854e-05
9.00062e-05
0.00011539
5.60903e-05
4.02399e-05
4.024e-05
4.02399e-05
4.02399e-05
4.02399e-05
0.00194922
0.00255823
0.00264285
0.0239
0.003928
0.00156003
0.00128934
0.00238588
0.00278843
0.0010888
0.00030599
0.000193105
0.000193181
0.000211264
0.00022711
0.000261789
0.000262863
0.000240568
4.39837e-05
4.02418e-05
0.00403795
0.00414706
0.00530361
0.00671474
0.0164056
0.0396612
0.0399545
0.0290358
0.0122443
0.0102736
0.0180022
0.0345379
0.0440325
0.0421558
0.0373339
0.0284493
0.0224818
0.0297809
0.0380741
0.0305338
0.00879756
0.025795
0.0820017
0.0823643
0.0819556
0.0801646
0.0721172
0.0503288
0.0452044
0.0395663
0.0305072
0.0128522
0.0097391
0.0180241
0.0442512
0.0736036
0.076212
0.07621
0.0742951
0.0744356
0.0671156
0.0430183
0.0643063
0.0731192
0.056938
0.0213943
0.0354489
0.0451409
0.0435326
0.0233771
0.010448
0.0119871
0.0243943
0.010898
0.00992447
0.00971786
0.00996425
0.0108177
0.0324794
0.0698036
0.0141246
0.00132788
0.00361842
0.0162668
0.0640312
0.0743819
0.06131
8.06066e-05
8.48118e-05
0.000229864
0.00080316
0.00147257
0.00113865
0.00059542
0.000715411
0.0540193
0.0597346
0.0523821
0.0393866
0.0245253
0.0146939
0.00987266
0.00746711
0.00451162
0.00114621
0.000672587
0.00136207
0.0238973
0.0401786
0.0122951
0.000111111
2.10179e-05
0.000208108
0.000284359
0.000271285
0.000131565
0.000420844
0.00144601
0.501328
0.548841
0.614693
0.647917
0.654852
0.610301
0.493183
0.335122
0.179734
0.0543952
0.000564843
4.75885e-06
4.20345e-06
0.000299693
0.000294459
8.80462e-05
-1.34238e-22
2.36347e-05
9.29163e-05
0.000103503
4.84014e-05
1.71686e-05
9.27772e-05
0.991649
0.99639
0.999286
0.999118
0.993802
0.993458
0.990036
0.970445
0.907907
0.803486
0.590028
0.321099
0.130722
0.0364797
0.00239164
-1.10901e-07
-5.19963e-08
9.54048e-25
1.12071e-23
-4.14774e-23
-4.6323e-23
3.8347e-13
6.86204e-11
0.998807
0.99895
0.999525
0.999749
0.998109
0.998318
0.998952
0.999477
0.999911
0.999768
0.998257
0.980376
0.906373
0.778407
0.599685
0.437099
0.351587
0.316978
0.298052
0.264068
0.231432
0.197249
0.171214
0.999017
0.999339
0.999914
0.999981
1
1
0.999999
1
1
1
1
1
0.999999
0.999923
0.999803
0.999755
0.992142
0.976273
0.964755
0.949993
0.931635
0.90858
0.890869
0.999447
0.999998
0.99998
0.999999
0.999999
0.999999
0.999999
0.999999
0.999994
0.999945
0.999979
1
1
1
1
0.999999
0.99998
0.999979
0.99998
0.999979
0.999544
0.999442
0.999371
0.99995
0.999999
0.999999
0.999999
0.999999
0.999999
0.999998
0.999981
0.999936
0.999934
0.999938
0.999966
0.999962
0.999962
0.999986
0.999999
1
1
1
1
0.999997
0.999998
0.999999
0.999999
1
1
1
1
1
0.999995
0.999958
0.999936
0.999937
0.999933
0.999924
0.999924
0.999926
0.999972
0.999998
0.999999
0.999999
0.999998
0.999997
0.999975
0.999972
0.99999
1
1
1
1
1
1
0.999996
0.999989
0.99998
0.999962
0.999956
0.999958
0.999965
0.999967
0.999974
0.999982
0.999996
0.999989
0.999965
0.999962
0.999962
0.999963
0.999967
1
1
1
1
1
1
0.999999
0.999999
0.999999
0.999999
0.999998
0.999999
0.999999
0.999987
0.999981
0.999981
0.999993
0.999985
0.999962
0.999962
0.999963
0.999974
0.999994
1
1
1
1
1
1
1
1
1
1
1
1
1
0.999999
0.999995
0.999994
0.999998
0.999999
0.999987
0.999963
0.999987
0.999999
0.999999
1
1
1
1
1
1
1
1
1
1
1
1
1
1
1
1
1
1
0.999998
0.999979
0.999983
0.999999
0.999999
1
1
1
1
1
1
1
1
1
1
1
1
1
1
1
1
1
1
1
0.999997
0.999986
0.999998
0.999999
1
1
1
1
1
1
1
1
1
1
1
1
1
1
1
1
1
1
1
1
0.999998
0.999998
0.999999
1
1
1
1
1
1
1
1
1
1
1
1
1
1
1
1
1
1
1
1
1
0.999999
1
1
1
1
1
1
1
1
1
1
1
1
1
1
1
1
1
1
1
1
1
1
1
1
1
1
1
1
1
1
1
1
1
1
1
1
1
1
1
1
1
1
1
1
1
1
1
1
1
1
1
1
1
1
1
1
1
1
1
1
1
1
1
1
1
1
1
1
1
1
1
1
1
1
1
1
1
1
1
1
1
1
1
1
1
1
1
1
1
1
1
1
1
1
1
1
1
1
1
1
1
1
1
1
1
1
1
1
1
1
1
1
1
1
1
1
1
1
1
1
1
1
1
1
1
1
1
1
1
1
1
1
1
1
1
1
1
1
1
1
1
1
1
1
1
1
1
1
1
1
1
1
1
1
1
1
1
1
1
1
1
1
1
1
1
1
1
1
1
1
1
1
1
1
1
1
1
1
1
1
1
1
1
1
1
1
1
1
1
1
1
1
1
1
1
1
1
1
1
1
1
1
1
1
1
1
1
1
1
1
1
1
1
1
1
1
1
1
1
1
1
1
1
1
1
1
1
1
1
1
1
1
1
1
0.999999
0.999999
0.999999
1
1
1
1
1
1
1
1
1
1
1
1
1
1
1
1
1
1
1
1
0.999999
0.999999
0.999999
1
1
1
1
1
1
1
1
1
1
1
1
1
1
1
1
1
1
1
0.999999
0.999999
0.999999
0.999999
1
1
1
1
1
1
1
1
1
1
1
1
1
1
1
1
1
1
1
0.999999
0.999999
0.999999
1
1
1
1
1
1
1
1
1
1
1
1
1
1
1
1
1
1
1
1
0.999999
0.999999
1
1
1
1
1
1
1
1
1
1
1
1
1
1
1
1
1
1
1
1
1
0.999999
0.999999
1
1
1
1
1
1
1
1
1
1
1
1
1
1
1
1
1
1
1
1
1
0.999999
0.999999
1
1
1
1
1
1
1
1
1
1
1
1
1
1
1
1
1
1
1
1
1
0.999999
1
1
1
1
1
1
1
1
1
1
1
1
1
1
1
1
1
1
1
1
1
1
1
1
1
1
1
1
1
1
1
1
1
1
1
1
1
1
1
1
1
1
1
1
1
1
1
1
1
1
1
1
1
1
1
1
1
1
1
1
1
1
1
1
1
1
1
1
1
1
1
1
1
1
1
1
1
1
1
1
1
1
1
1
1
1
1
1
1
1
1
1
1
1
1
1
1
1
1
1
1
1
1
1
1
1
1
1
1
1
1
1
0.00385567
0.00992125
0.0123347
0.0122985
0.0509625
0.0483978
0.0408343
0.0100087
0.0561525
0.0560858
0.00867887
0.00197423
0.0236629
0.0184682
0.0187266
0.031903
0.0223859
0.0319697
0.0320146
0.0319718
0.00229991
0.0234954
0.0319883
0.0319898
0.00101986
0.00377264
0.00473103
0.00337575
1.92781e-09
2.35525e-09
9.14871e-08
3.14761e-09
0.168449
0.207802
0.261594
0.281336
0.890969
0.90574
0.92121
0.926279
0.99665
0.995631
0.996815
0.998476
0.999999
0.999999
0.999999
0.999998
1
1
1
1
0.999992
0.999999
0.999999
0.999999
0.999998
0.999999
0.999999
0.999999
0.999999
0.999999
0.999998
0.999971
0.999999
0.999997
0.999953
0.999924
0.999999
1
0.999961
0.999931
1
1
0.999994
0.999977
1
0.999999
0.999999
1
1
1
1
1
1
1
1
1
1
1
1
1
1
1
1
1
1
1
1
1
1
1
1
1
1
1
1
1
1
1
1
1
1
1
1
1
1
1
1
1
1
1
1
1
1
1
1
1
1
1
1
1
1
1
1
1
1
1
1
1
1
1
1
1
1
1
1
1
1
1
1
1
1
1
1
1
1
1
1
1
1
1
1
1
1
1
1
1
0.00197412
0.00197469
0.00284791
0.00533021
0.00205676
0.00206885
0.0165145
0.0173637
0.0167765
0.0329938
0.0537457
0.0395223
0.009707
0.0224351
0.0854473
0.0509671
0.010609
0.0114835
0.0339773
0.00197415
0.00197414
0.00307535
0.0235764
0.0310268
0.0936156
0.15082
0.0660367
0.0271767
0.0791129
0.0937446
0.0937424
0.0759324
0.0851513
0.0202269
0.00801034
0.00826445
0.0114103
0.00916275
0.00197394
0.00457846
0.0373
0.0964802
0.177535
0.187603
0.185936
0.0611093
0.00607805
0.0725515
0.0937412
0.0937441
0.0937381
0.0761073
0.0058085
0.00223916
0.00712458
0.00883152
0.00564018
0.0319195
0.0181021
0.0435329
0.130495
0.187603
0.187597
0.0970614
0.000808829
0.000815856
0.019528
0.0724298
0.088801
0.038458
0.0031133
0.0022407
0.00224388
0.00106583
5.27152e-05
1.62838e-09
0.0320158
0.010679
0.000347728
0.0384889
0.181926
0.187603
0.0669092
0.000800589
0.000828387
0.000964514
0.00152583
0.00225943
0.00435958
0.0135236
0.0134645
0.0107251
0.000363934
-1.52781e-10
3.44594e-11
0.0128144
0.000917598
0.00035432
0.00903731
0.14346
0.187597
0.0568353
0.000884212
0.00104256
0.000991887
0.000844078
0.000962433
0.00123009
0.00154559
0.00170262
0.00118193
-2.44037e-06
-1.79171e-19
0.00390868
0.00116124
0.000336288
0.000499516
0.00093749
0.0663919
0.148613
0.0736627
0.000863165
0.00228366
0.00169322
0.00076196
0.000290808
0.00027592
0.00075317
0.00724866
0.0331962
0.126877
0.35054
0.516159
1.73028e-08
-4.71368e-08
9.39421e-05
4.85071e-05
4.83977e-05
0.00167088
0.00262913
0.00265736
0.0321781
0.159762
0.273856
0.331154
0.386152
0.466824
0.574461
0.711381
0.866658
0.986049
0.993487
0.253814
0.163472
0.104264
0.0728867
0.0643402
0.102132
0.1897
0.373092
0.667148
0.897932
0.966186
0.992414
0.996159
0.995861
0.996873
0.998655
0.99969
0.999911
0.999986
0.919606
0.898981
0.865666
0.81996
0.799873
0.816159
0.882072
0.963625
0.998559
0.999468
0.999913
0.999916
0.999999
0.999999
0.999998
0.999995
0.999985
0.999967
0.999986
0.998935
0.99978
0.999985
0.999743
0.99921
0.99758
0.996065
0.998323
0.999673
0.999973
0.999985
0.999989
0.999995
0.999997
0.999996
0.999993
0.999929
0.999869
0.999959
0.999998
0.999999
1
1
1
1
1
1
0.999991
0.999976
0.999954
0.99996
0.999988
0.999997
0.999996
0.999989
0.999869
0.999869
0.999869
0.999999
0.999999
1
0.999999
0.999997
0.999997
0.999997
0.99998
0.999935
0.999934
0.999949
0.999956
0.999936
0.999969
0.999996
0.999992
0.999869
0.999869
0.999899
0.999999
0.999999
0.999999
0.999998
0.999989
0.999926
0.999923
0.99996
0.999957
0.999933
0.99994
0.999787
0.999788
0.999919
0.999996
0.999922
0.99987
0.999874
0.999989
0.999999
0.999997
0.999966
0.999898
0.999897
0.999905
0.99993
0.999856
0.999776
0.999764
0.999764
0.999776
0.999834
0.999966
0.999983
0.99988
0.999871
0.999889
0.99999
0.999946
0.999927
0.999897
0.999898
0.999909
0.99996
0.999841
0.99976
0.999762
0.999807
0.999927
0.999979
0.999975
0.999974
0.99995
0.99992
0.999879
0.99996
0.99999
0.999924
0.999967
0.999978
0.999972
0.999985
0.999982
0.999789
0.999772
0.999875
0.999979
0.999979
0.999979
0.999979
0.999963
0.999948
0.999952
0.999898
0.999958
0.99999
0.999946
0.999982
0.999995
0.999996
0.999996
0.999995
0.99994
0.99996
0.999969
0.999938
0.999944
0.999962
0.999958
0.999949
0.99995
0.999951
0.999951
0.99995
0.999989
0.999986
0.999995
0.999991
0.999989
0.999991
0.999992
0.999992
0.999994
0.999978
0.999942
0.999941
0.999943
0.999956
0.999978
0.999972
0.999947
0.999947
0.999964
0.999993
1
1
0.999999
0.999989
0.999982
0.999982
0.999985
0.999993
0.999993
0.999985
0.999951
0.999968
0.999992
0.999998
0.999998
0.999951
0.999943
0.999979
0.999998
1
1
1
0.999999
0.999992
0.999992
0.999997
0.999973
0.999963
0.99996
0.999958
0.999958
0.999961
0.999997
1
0.999977
0.999943
0.999985
0.999999
1
1
1
1
1
1
0.999999
0.999999
1
0.999993
0.999966
0.999963
0.99997
0.999997
1
0.999986
0.999956
0.999987
0.999999
1
1
1
1
1
1
1
1
1
1
1
0.999999
1
1
1
0.999989
0.999972
0.999991
0.999999
1
1
1
1
1
1
1
1
1
1
1
1
1
1
1
0.999997
0.999978
0.999996
1
1
1
1
1
1
1
1
1
1
1
1
1
1
1
1
0.999997
0.999999
0.999999
1
1
1
1
1
1
1
1
1
1
1
1
1
1
1
1
0.999999
1
1
1
1
1
1
1
1
1
1
1
1
1
1
1
1
1
1
1
1
1
1
1
1
1
1
1
1
1
1
1
1
1
1
1
1
1
1
1
1
1
1
1
1
1
1
1
1
1
1
1
1
1
1
1
1
1
1
1
1
1
1
1
1
1
1
1
1
1
1
1
1
1
1
1
1
1
1
1
1
1
1
1
1
1
1
1
1
1
1
1
1
1
1
1
1
1
1
1
1
1
1
1
1
1
1
1
1
1
1
1
1
1
1
1
1
1
1
1
1
1
1
1
1
1
1
1
1
1
1
1
1
1
1
1
0.999997
1
1
1
1
1
1
1
1
1
1
1
1
1
1
1
1
1
1
0.999997
1
1
1
1
1
1
1
1
1
1
1
1
0.999999
0.999994
0.999995
1
1
1
0.999997
1
1
1
1
1
1
1
1
1
1
1
1
0.999999
0.999994
0.999993
0.999996
1
1
0.999998
1
1
1
1
1
1
1
1
1
1
1
1
1
0.999998
0.999993
0.999993
0.999999
1
0.999999
1
1
1
1
1
1
1
1
1
1
1
1
1
1
0.999997
0.999993
0.999993
0.999998
0.999997
1
1
1
1
1
1
1
1
1
1
1
1
1
1
1
0.999996
0.999994
0.999997
0.999998
1
1
1
1
1
1
1
1
1
1
1
1
1
1
1
1
0.999999
0.999999
1
1
1
1
1
1
1
1
1
1
1
1
1
1
1
1
1
1
1
1
1
1
1
1
1
1
1
1
1
1
1
1
1
1
1
1
1
1
1
)
;

boundaryField
{
    leftWall
    {
        type            alphaContactAngle;
        thetaProperties 
6
(
(galistan air) 90 0 0 0
(oil galistan) 90 0 0 0
(water oil) 90 0 0 0
(water air) 90 0 0 0
(oil air) 90 0 0 0
(water galistan) 90 0 0 0
);
        value           nonuniform List<scalar> 
50
(
9.4301e-10
1.10986e-09
1.32636e-09
3.41181e-09
2.11367e-05
0.000875609
0.00118926
0.000306182
0.000412768
0.0239
0.0399545
0.0395663
0.0243943
0.0540193
0.501328
0.991649
0.998807
0.999017
0.999447
0.99995
0.999999
1
1
1
1
1
1
1
1
1
1
1
1
1
1
1
1
1
1
1
1
1
1
1
1
1
1
1
1
1
)
;
    }
    rightWall
    {
        type            alphaContactAngle;
        thetaProperties 
6
(
(galistan air) 90 0 0 0
(oil galistan) 90 0 0 0
(water oil) 90 0 0 0
(water air) 90 0 0 0
(oil air) 90 0 0 0
(water galistan) 90 0 0 0
);
        value           nonuniform List<scalar> 
50
(
0.00606526
0.00610132
0.011876
0.0177875
0.0175291
0.0176288
0.0325945
0.034746
0.0339773
0.00916275
0.00564018
1.62838e-09
3.44594e-11
0.00390868
0.516159
0.993487
0.999986
0.999986
0.999959
0.999869
0.999899
0.999989
0.99999
0.99999
0.99999
0.999989
0.999993
0.999998
0.999999
0.999999
0.999999
1
1
1
1
1
1
1
1
1
0.999997
0.999997
0.999997
0.999998
0.999999
0.999997
0.999998
1
1
1
)
;
    }
    lowerWall
    {
        type            alphaContactAngle;
        thetaProperties 
6
(
(galistan air) 90 0 0 0
(oil galistan) 90 0 0 0
(water oil) 90 0 0 0
(water air) 90 0 0 0
(oil air) 90 0 0 0
(water galistan) 90 0 0 0
);
        value           nonuniform List<scalar> 
62
(
9.4301e-10
9.68807e-10
9.18287e-10
8.34133e-10
6.45506e-10
4.03434e-10
2.25225e-10
1.18092e-10
8.54615e-11
7.11631e-11
6.58685e-11
7.2892e-11
8.81112e-11
1.15289e-10
1.58983e-10
2.20792e-10
2.67318e-10
2.58292e-10
2.04423e-10
1.92999e-10
3.17856e-08
3.81714e-07
5.7785e-07
5.7785e-07
8.50319e-07
2.19593e-07
0.000323318
0.00493133
0.00689135
0.0047519
0.00380069
0.00385567
0.00992125
0.0123347
0.0122985
0.000234785
0.000234786
0.000234785
0.00640271
0.00760237
0.00757349
0.00752918
0.00337485
0.000234785
0.00206069
0.00870083
0.0087667
0.00718556
0.00429634
0.00370862
0.00367611
0.0027969
0.00233447
0.00233456
0.00233456
0.0023347
0.00233475
0.00233493
0.00287625
0.00515828
0.0060605
0.00606526
)
;
    }
    atmosphere
    {
        type            inletOutlet;
        inletValue      uniform 1;
        value           nonuniform List<scalar> 
46
(
1
1
1
1
1
1
1
1
1
1
1
1
1
1
1
1
1
1
1
1
1
1
1
1
1
1
1
1
1
1
1
1
1
1
1
1
1
1
1
1
1
1
1
1
1
1
)
;
    }
    defaultFaces
    {
        type            empty;
    }
}


// ************************************************************************* //
