/*--------------------------------*- C++ -*----------------------------------*\
| =========                 |                                                 |
| \\      /  F ield         | OpenFOAM: The Open Source CFD Toolbox           |
|  \\    /   O peration     | Version:  2312                                  |
|   \\  /    A nd           | Website:  www.openfoam.com                      |
|    \\/     M anipulation  |                                                 |
\*---------------------------------------------------------------------------*/
FoamFile
{
    version     2.0;
    format      ascii;
    arch        "LSB;label=32;scalar=64";
    class       volScalarField;
    location    "4.45";
    object      p;
}
// * * * * * * * * * * * * * * * * * * * * * * * * * * * * * * * * * * * * * //

dimensions      [1 -1 -2 0 0 0 0];

internalField   nonuniform List<scalar> 
2268
(
5096.3
5117.35
5154.37
5202.51
5255.74
5308.42
5356.03
5395.48
5424.67
5441.73
5444.98
5433.2
5406.09
5364.47
5310.49
5247.7
5180.45
5113.23
5050.6
4996.8
4954.79
4925.69
4910.47
4292.85
4314.93
4353.66
4403.27
4457.86
4511.78
4560.39
4600.66
4630.6
4648.33
4652.01
4640.33
4612.95
4570.69
4515.76
4451.83
4383.44
4315.1
4251.54
4197.16
4155.04
4125.75
4110.43
3484.36
3508.28
3549.58
3601.88
3659.14
3715.44
3765.96
3807.74
3839.03
3858.03
3862.58
3851.05
3823.02
3779.38
3722.39
3656.04
3585.31
3514.72
3449.3
3393.81
3351.67
3322
3306.57
2669.63
2696.49
2741.69
2798.19
2859.62
2919.69
2973.12
3017.05
3050.24
3071.06
3076.83
3065.45
3036.35
2990.57
2930.39
2860.29
2786.15
2712.13
2643.92
2586.79
2545.03
2514.71
2498.85
1847.79
1879.09
1929.81
1992.15
2059.26
2124.33
2181.59
2228.36
2264.14
2287.47
2294.9
2283.82
2253.14
2204.36
2139.68
2064.27
1985.71
1906.88
1835.92
1779.48
1734.79
1703.7
1687.96
1101.52
1126.76
1167.78
1220.59
1280.7
1341.97
1397.81
1444.65
1482.28
1508.79
1518.37
1507.22
1476.52
1430.18
1371.16
1306.21
1246.51
1192.01
1147.2
1114.81
1090.2
1077.75
1081.43
724.592
730.568
741.67
759.394
783.661
812.199
840.394
865.347
887.594
905.616
915.582
913.101
902.354
886.07
866.374
846.872
833.271
825.333
821.324
819.559
821.032
824.431
834.462
640.825
639.148
636.533
634.803
634.564
635.652
637.861
641.764
648.602
657.91
666.949
674.448
684.676
695.796
707.249
718.092
727.447
736.338
744.33
750.952
756.083
758.062
759.944
3210.91
3202.79
3169.51
3106.11
3017.24
2897.24
2748
2601.06
2499.76
2447.03
2426.59
2425.58
2440.7
2460.73
2479.81
2495.63
2504.87
2511.5
2520.31
2452.3
2439.5
2408.1
2343.79
2256.42
2136.6
1990.98
1847.19
1748.63
1700.43
1676.33
1676.86
1691.8
1709.81
1725.99
1739.8
1749.12
1754.85
1759.54
1762.27
1720.74
1688.7
1639.28
1566.88
1465.09
1353.03
1261.79
1202.28
1166.53
1142.03
1140.96
1142.01
1146.56
1151.37
1158.21
1162.88
1163.51
1161.72
1224.78
1175.95
1154.12
1137.15
1106.97
1065.03
1028.54
1009.15
994.303
972.488
953.342
947.394
930.03
921.494
919.044
914.888
910.8
907.005
904.449
946.122
931.255
925.33
924.889
924.006
922.281
925.841
930.117
930.228
919.188
905.127
895.556
878.247
864.098
860.835
853.523
846.331
841.453
841.669
872.199
868.136
864.678
864.385
863.315
858.778
858.887
864.002
863.73
857.087
849.967
838.159
824.769
810.029
802.194
795.584
788.528
783.636
785.739
818.194
809.724
805.075
805.29
805.353
801.241
801.93
802.531
798.248
794.288
792.797
780.202
765.253
752.621
741.694
734.27
728.006
723.603
725.806
761.154
751.43
747.1
746.084
747.139
743.627
743.999
740.974
735.139
733.891
733.777
718.84
702.982
692.379
680.522
671.804
665.876
662.577
665.065
542.957
542.346
541.117
540.737
541.712
543.798
547.267
552.347
559.25
566.658
574.855
585.382
596.115
606.898
617.34
626.844
635.161
642.993
650.133
656.328
661.712
665.514
667.956
412.11
412.047
412.004
412.322
413.657
416.799
422.176
429.361
438.095
446.993
456.227
466.285
476.43
486.557
495.781
502.941
508.764
514.77
521.249
527.392
532.983
538.169
543.707
290.992
290.676
290.823
291.181
292.354
295.296
300.719
308.63
317.615
326.411
335.322
347.001
358.753
368.804
376.593
383.06
389.333
395.363
402.034
408.755
414.916
420.352
426.187
200.651
199.832
199.501
199.548
200.42
202.456
206.059
212.004
220.157
228.376
237.235
248.316
260.526
272.353
281.564
289.923
299.008
307.423
315.001
321.7
327.522
332.426
336.793
133.822
132.249
130.836
130.51
131.385
134.238
138.368
143.41
150.717
159.283
168.871
179.669
191.481
203.549
215.234
226.402
235.734
243.959
251.244
257.522
262.703
266.834
269.601
67.9361
65.3621
62.321
60.1022
60.421
63.9527
70.8337
79.6773
89.4159
100.329
112.347
125.027
137.334
148.521
158.898
168.465
177.069
184.521
191.017
196.584
201.168
204.678
206.815
17.8595
16.1372
13.8956
12.1199
12.0246
13.475
17.0755
22.726
31.0171
41.6762
55.1193
69.2263
82.2332
93.5639
103.147
111.689
119.295
125.849
131.506
136.382
140.356
143.334
145.541
0.969489
0.753437
0.481529
0.0572237
0.0130007
-0.077853
-0.187295
0.238357
2.06189
5.5013
12.7403
22.0773
30.7938
39.4609
48.4354
55.8742
62.3171
67.7766
72.3548
76.4872
80.0484
82.8747
84.929
-0.326935
-0.500598
-0.693501
-0.859886
-0.984345
-1.09733
-1.20947
-1.29603
-1.30668
-1.29596
-1.22895
-0.19598
2.4901
6.46352
11.9801
16.6283
19.4943
21.9238
23.554
25.5533
27.7625
29.7885
31.2809
-1.23442
-1.38298
-1.40542
-1.35163
-1.39771
-1.45387
-1.50663
-1.56603
-1.5992
-1.59902
-1.65757
-1.71779
-1.69535
-1.66482
-1.60376
-1.52889
-1.36058
-0.768241
-0.212949
0.321554
0.959847
1.50017
2.02921
-1.66101
-1.68456
-1.64174
-1.58716
-1.58543
-1.61153
-1.645
-1.67442
-1.69181
-1.72174
-1.78513
-1.86099
-1.88489
-1.86884
-1.86489
-1.86469
-1.86291
-1.86004
-1.83305
-1.81201
-1.80322
-1.8043
-1.82111
-1.79788
-1.79037
-1.76701
-1.74108
-1.7415
-1.7558
-1.7753
-1.79743
-1.81845
-1.84434
-1.88341
-1.91901
-1.92152
-1.92304
-1.94249
-1.95924
-1.97146
-1.97818
-1.97012
-1.96338
-1.96883
-1.98178
-2.01991
-1.91875
-1.91311
-1.902
-1.89225
-1.8952
-1.90594
-1.92076
-1.93938
-1.96047
-1.98204
-2.0063
-2.02971
-2.04681
-2.0612
-2.07231
-2.08122
-2.08839
-2.0918
-2.08977
-2.08752
-2.094
-2.107
-2.1244
-2.0494
-2.04642
-2.04171
-2.03872
-2.04255
-2.05166
-2.06449
-2.08081
-2.0987
-2.11716
-2.13638
-2.15561
-2.1723
-2.1853
-2.19478
-2.20163
-2.20667
-2.20954
-2.21135
-2.21452
-2.22131
-2.22978
-2.23663
-2.1843
-2.18297
-2.18098
-2.18146
-2.18555
-2.19323
-2.20394
-2.21746
-2.23252
-2.24847
-2.26471
-2.28048
-2.2946
-2.30625
-2.31541
-2.3222
-2.32709
-2.33102
-2.33549
-2.34129
-2.34874
-2.3546
-2.35666
-2.31941
-2.31915
-2.31905
-2.32077
-2.32479
-2.33135
-2.34031
-2.35146
-2.36403
-2.37736
-2.39089
-2.40405
-2.41625
-2.427
-2.43588
-2.44285
-2.44831
-2.45356
-2.459
-2.46482
-2.47142
-2.47598
-2.47666
-2.45415
-2.45445
-2.45528
-2.45748
-2.46134
-2.46708
-2.47469
-2.48399
-2.49447
-2.50562
-2.51696
-2.52809
-2.53861
-2.54815
-2.5565
-2.56346
-2.56939
-2.57508
-2.58064
-2.58605
-2.59096
-2.59495
-2.5964
-2.5882
-2.58875
-2.58998
-2.59233
-2.59596
-2.60104
-2.60757
-2.6154
-2.6242
-2.63358
-2.64319
-2.65269
-2.66181
-2.67026
-2.67784
-2.68449
-2.69036
-2.69585
-2.70111
-2.70626
-2.71046
-2.71379
-2.71624
-2.72143
-2.72209
-2.72345
-2.72577
-2.72912
-2.73361
-2.73925
-2.74591
-2.75337
-2.76133
-2.76953
-2.77771
-2.78564
-2.7931
-2.79994
-2.8061
-2.81167
-2.81683
-2.82169
-2.82633
-2.83027
-2.83307
-2.83582
-2.85384
-2.85454
-2.85589
-2.85807
-2.86112
-2.86509
-2.86998
-2.87569
-2.88206
-2.88887
-2.89592
-2.903
-2.90991
-2.91649
-2.92263
-2.92827
-2.93343
-2.9382
-2.94263
-2.94672
-2.9503
-2.95295
-2.9552
-2.98546
-2.9862
-2.98744
-2.98945
-2.99218
-2.99568
-2.99993
-3.00486
-3.01034
-3.01621
-3.0223
-3.02845
-3.03449
-3.04031
-3.04579
-3.05089
-3.05561
-3.05996
-3.06395
-3.06756
-3.07073
-3.07318
-3.07495
-3.11642
-3.11706
-3.11821
-3.12003
-3.12247
-3.12555
-3.12926
-3.13353
-3.13828
-3.14336
-3.14865
-3.15401
-3.15931
-3.16444
-3.16932
-3.17391
-3.17817
-3.18209
-3.18567
-3.18884
-3.19162
-3.19382
-3.19534
-3.24672
-3.24729
-3.24834
-3.24996
-3.25212
-3.25484
-3.25808
-3.2618
-3.26593
-3.27035
-3.27496
-3.27964
-3.28429
-3.28882
-3.29315
-3.29725
-3.30107
-3.30459
-3.30779
-3.31066
-3.31304
-3.31498
-3.31636
-3.37645
-3.37696
-3.3779
-3.37934
-3.38125
-3.38365
-3.38649
-3.38974
-3.39333
-3.39719
-3.40121
-3.40531
-3.4094
-3.41339
-3.41723
-3.42087
-3.42428
-3.42741
-3.43026
-3.43278
-3.4349
-3.43661
-3.43787
-3.50569
-3.50615
-3.50699
-3.50826
-3.50995
-3.51205
-3.51455
-3.51739
-3.52053
-3.5239
-3.52742
-3.53102
-3.5346
-3.53812
-3.54151
-3.54474
-3.54776
-3.55054
-3.55306
-3.55528
-3.55716
-3.55868
-3.5598
-3.63451
-3.63493
-3.63568
-3.6368
-3.63829
-3.64013
-3.64232
-3.64482
-3.64756
-3.65051
-3.65359
-3.65673
-3.65988
-3.66297
-3.66596
-3.66881
-3.67148
-3.67394
-3.67616
-3.67811
-3.67978
-3.68112
-3.68213
-3.76297
-3.76336
-3.76403
-3.76503
-3.76633
-3.76794
-3.76986
-3.77204
-3.77444
-3.77701
-3.77971
-3.78246
-3.78522
-3.78793
-3.79056
-3.79306
-3.79541
-3.79758
-3.79953
-3.80125
-3.80271
-3.8039
-3.80479
-3.89115
-3.89151
-3.8921
-3.89299
-3.89412
-3.89553
-3.8972
-3.8991
-3.9012
-3.90344
-3.90579
-3.90819
-3.91061
-3.91298
-3.91528
-3.91747
-3.91953
-3.92143
-3.92315
-3.92465
-3.92594
-3.92698
-3.92777
-4.01909
-4.01942
-4.01996
-4.02073
-4.02172
-4.02293
-4.02438
-4.02603
-4.02785
-4.02979
-4.03183
-4.03393
-4.03603
-4.0381
-4.0401
-4.04202
-4.04382
-4.04547
-4.04697
-4.04829
-4.04942
-4.05033
-4.05103
-4.14684
-4.14716
-4.14764
-4.14831
-4.14915
-4.15019
-4.15144
-4.15285
-4.1544
-4.15608
-4.15784
-4.15965
-4.16148
-4.16327
-4.16502
-4.16668
-4.16824
-4.16968
-4.17099
-4.17214
-4.17312
-4.17392
-4.17453
-4.27446
-4.27476
-4.2752
-4.27579
-4.27651
-4.27739
-4.27842
-4.27959
-4.2809
-4.28232
-4.28383
-4.28538
-4.28695
-4.2885
-4.29
-4.29144
-4.29279
-4.29404
-4.29517
-4.29616
-4.29702
-4.29771
-4.29825
-4.40196
-4.40226
-4.40266
-4.4032
-4.40382
-4.40454
-4.40534
-4.40627
-4.40734
-4.40851
-4.40977
-4.41109
-4.41243
-4.41375
-4.41505
-4.41628
-4.41744
-4.41851
-4.41948
-4.42034
-4.42108
-4.42169
-4.42215
-4.52933
-4.52963
-4.53002
-4.53052
-4.53104
-4.53158
-4.53216
-4.53287
-4.5337
-4.53465
-4.53568
-4.53679
-4.53791
-4.53903
-4.54013
-4.54118
-4.54217
-4.54309
-4.54392
-4.54466
-4.54529
-4.54581
-4.54622
-4.65654
-4.65685
-4.65724
-4.65769
-4.65812
-4.65847
-4.65885
-4.65935
-4.65997
-4.6607
-4.66153
-4.66243
-4.66337
-4.66432
-4.66525
-4.66614
-4.66698
-4.66775
-4.66846
-4.66908
-4.66962
-4.67007
-4.67042
-4.78354
-4.78385
-4.78423
-4.78465
-4.78498
-4.78519
-4.7854
-4.7857
-4.78612
-4.78667
-4.78733
-4.78805
-4.78881
-4.78962
-4.79039
-4.79113
-4.79183
-4.79248
-4.79307
-4.7936
-4.79406
-4.79444
-4.79474
-4.91026
-4.91058
-4.91093
-4.91132
-4.91157
-4.91168
-4.91174
-4.91188
-4.91214
-4.91254
-4.91306
-4.91363
-4.91424
-4.91489
-4.91553
-4.91614
-4.91673
-4.91727
-4.91776
-4.9182
-4.91858
-4.9189
-4.91915
-5.03674
-5.03698
-5.03732
-5.03766
-5.03784
-5.03789
-5.03786
-5.03788
-5.03803
-5.0383
-5.03872
-5.03916
-5.03965
-5.04016
-5.04067
-5.04118
-5.04165
-5.0421
-5.0425
-5.04285
-5.04316
-5.04343
-5.04365
-5.16297
-5.16314
-5.16342
-5.16368
-5.16381
-5.1638
-5.16374
-5.16371
-5.1638
-5.164
-5.1643
-5.16465
-5.16503
-5.16542
-5.16583
-5.16622
-5.1666
-5.16695
-5.16727
-5.16756
-5.1678
-5.16802
-5.1682
-5.28905
-5.28914
-5.28931
-5.28946
-5.28952
-5.28948
-5.28938
-5.28939
-5.28947
-5.28962
-5.28984
-5.2901
-5.29038
-5.29068
-5.29098
-5.29128
-5.29157
-5.29184
-5.29208
-5.29229
-5.29249
-5.29265
-5.29279
-5.41505
-5.41506
-5.4151
-5.41511
-5.4151
-5.41505
-5.415
-5.415
-5.41507
-5.41519
-5.41535
-5.41553
-5.41573
-5.41594
-5.41614
-5.41635
-5.41655
-5.41674
-5.41691
-5.41706
-5.4172
-5.41731
-5.41742
-5.54106
-5.541
-5.54089
-5.54075
-5.54065
-5.54059
-5.54057
-5.54059
-5.54065
-5.54074
-5.54083
-5.54094
-5.54106
-5.54118
-5.5413
-5.54143
-5.54154
-5.54165
-5.54176
-5.54185
-5.54193
-5.542
-5.54207
-5.66716
-5.66703
-5.66681
-5.66651
-5.6663
-5.66619
-5.66617
-5.66618
-5.6662
-5.66623
-5.66628
-5.66632
-5.66637
-5.66641
-5.66645
-5.66648
-5.66653
-5.66657
-5.6666
-5.66664
-5.66666
-5.66669
-5.66673
670.719
672.684
673.963
673.663
549.013
552.707
554.718
555.52
431.125
434.227
436.581
438.36
339.29
340.313
340.871
341.743
271.128
271.627
271.448
271.471
208.357
209.542
210.527
211.52
146.945
147.827
149.073
150.441
85.9077
86.2361
86.6398
87.2942
32.0732
32.2761
32.8538
33.3069
2.71328
2.79058
3.21047
3.37616
-1.7999
-1.75388
-1.74781
-1.76331
-2.05428
-2.04938
-2.03244
-2.0171
-2.13598
-2.13864
-2.13657
-2.13098
-2.2385
-2.23941
-2.23939
-2.23842
-2.35544
-2.35439
-2.35322
-2.35191
-2.47443
-2.47245
-2.47006
-2.46862
-2.59583
-2.59538
-2.59478
-2.5952
-2.71832
-2.72066
-2.72361
-2.72475
-2.83894
-2.84196
-2.84566
-2.8476
-2.95771
-2.95986
-2.96225
-2.96397
-3.07672
-3.07808
-3.07943
-3.08051
-3.19667
-3.19756
-3.19831
-3.19895
-3.31739
-3.31798
-3.31839
-3.31872
-3.43866
-3.43908
-3.43935
-3.43953
-3.56044
-3.56076
-3.56098
-3.56112
-3.68269
-3.68297
-3.68316
-3.68327
-3.80527
-3.80551
-3.80568
-3.80579
-3.92819
-3.92839
-3.92854
-3.92864
-4.05139
-4.05157
-4.05171
-4.05179
-4.17485
-4.17501
-4.17513
-4.17521
-4.29853
-4.29867
-4.29878
-4.29885
-4.4224
-4.42252
-4.42262
-4.42269
-4.54643
-4.54655
-4.54663
-4.5467
-4.67061
-4.67071
-4.67079
-4.67085
-4.7949
-4.79499
-4.79506
-4.79512
-4.9193
-4.91937
-4.91944
-4.91949
-5.04377
-5.04384
-5.0439
-5.04395
-5.1683
-5.16837
-5.16842
-5.16847
-5.29289
-5.29294
-5.29299
-5.29304
-5.4175
-5.41754
-5.41759
-5.41764
-5.54212
-5.54217
-5.54221
-5.54225
-5.66677
-5.6668
-5.66684
-5.66687
671.455
664.559
661.502
657.546
655.913
653.531
650.79
646.79
639.081
633.87
632.073
618.991
606.195
597.421
587.027
576.734
570.346
565.423
572.001
555.481
551.744
549.375
539.584
533.923
533.376
528.226
522.762
514.66
504.781
496.09
484.661
476.42
467.599
457.298
450.936
447.037
446.009
452.136
441.87
440.594
435.526
428.404
425.023
424.767
421.007
414.979
407.633
397.456
381.782
366.582
358.325
353.467
349.785
348.549
349.219
350.348
351.619
343.562
345.178
344.112
340.538
336.108
334.801
332.795
326.626
317.315
306.634
293.671
282.687
276.055
273.107
272.223
271.744
271.616
272.332
273.486
271.925
272.286
272.65
271.149
266.951
264.858
261.269
253.542
243.185
232.125
223.346
217.941
214.129
210.047
206.111
202.074
198.518
196.492
194.645
212.274
211.08
210.438
209.507
207.646
204.234
197.997
189.151
178.914
168.968
161.047
155.289
150.443
145.547
139.891
133.038
124.878
115.999
109.833
151.872
151.973
151.953
151.559
150.604
145.961
137.705
127.495
116.194
105.289
96.359
89.7194
84.2045
78.5503
71.9763
63.8614
53.5635
42.8059
37.8219
88.8704
91.4501
92.8261
93.7557
93.4258
88.7734
79.441
68.0951
55.0969
43.381
35.4663
30.3367
26.7604
23.459
19.4512
14.5955
9.29368
5.74587
4.85814
34.3006
37.1406
39.1527
40.0989
39.1209
35.5582
29.1652
20.8431
12.4849
6.56381
3.5788
1.87281
1.09015
0.745139
0.124878
-0.591968
-1.04884
-1.10991
-1.14394
3.55303
4.06299
4.73444
5.66111
5.93987
5.09546
2.82731
0.83887
-0.372265
-1.16344
-1.4778
-1.53108
-1.54699
-1.54902
-1.53907
-1.51325
-1.46209
-1.39969
-1.37049
-1.77786
-1.82321
-1.85506
-1.82483
-1.76926
-1.69032
-1.56731
-1.5335
-1.61733
-1.69588
-1.65985
-1.69255
-1.68883
-1.67956
-1.66493
-1.64181
-1.60254
-1.55805
-1.53393
-2.01154
-2.00894
-2.0046
-2.00157
-1.99766
-1.99772
-1.98754
-1.96466
-1.93614
-1.87467
-1.84581
-1.83358
-1.82215
-1.80925
-1.79404
-1.77556
-1.74835
-1.71963
-1.70313
-2.12275
-2.11977
-2.11594
-2.11557
-2.1097
-2.10078
-2.08759
-2.06546
-2.0437
-2.00395
-1.97178
-1.95454
-1.94411
-1.93437
-1.9214
-1.9071
-1.89262
-1.87554
-1.86716
-2.23601
-2.23357
-2.23081
-2.22672
-2.22176
-2.21155
-2.19357
-2.17334
-2.15621
-2.13299
-2.11044
-2.09359
-2.0818
-2.06875
-2.05448
-2.04284
-2.03435
-2.02535
-2.01992
-2.34976
-2.34853
-2.349
-2.34624
-2.33972
-2.32909
-2.31254
-2.2979
-2.28836
-2.27291
-2.2567
-2.24332
-2.22909
-2.20953
-2.1946
-2.18388
-2.17599
-2.16971
-2.16438
-2.46836
-2.47107
-2.47492
-2.47229
-2.46552
-2.45597
-2.44363
-2.43562
-2.42848
-2.41655
-2.40091
-2.385
-2.36763
-2.34867
-2.3339
-2.32425
-2.31625
-2.31001
-2.30546
-2.59578
-2.60035
-2.60127
-2.59696
-2.59117
-2.58743
-2.58284
-2.57518
-2.56371
-2.54922
-2.53279
-2.51685
-2.50097
-2.4859
-2.47288
-2.46295
-2.45506
-2.44783
-2.44456
-2.72464
-2.72456
-2.72043
-2.71665
-2.71313
-2.71437
-2.71647
-2.70743
-2.69313
-2.67863
-2.66391
-2.64973
-2.63611
-2.62396
-2.61238
-2.60161
-2.59283
-2.58554
-2.58265
-2.84773
-2.84403
-2.83844
-2.83565
-2.83309
-2.83468
-2.83777
-2.83053
-2.8195
-2.80834
-2.79583
-2.78374
-2.77245
-2.76129
-2.75069
-2.73988
-2.72991
-2.72371
-2.72046
-2.96473
-2.96211
-2.95846
-2.95572
-2.95351
-2.95402
-2.95494
-2.95009
-2.94242
-2.93417
-2.92426
-2.91395
-2.90361
-2.89364
-2.8845
-2.87553
-2.86652
-2.86063
-2.85752
-3.08154
-3.0803
-3.07815
-3.07629
-3.07464
-3.07401
-3.07348
-3.06993
-3.06391
-3.05696
-3.04906
-3.03974
-3.03036
-3.02199
-3.01402
-3.00684
-3.00021
-2.99497
-2.99239
-3.19966
-3.19904
-3.19777
-3.19633
-3.19497
-3.1937
-3.19222
-3.18952
-3.18511
-3.17952
-3.17291
-3.16529
-3.1572
-3.14916
-3.14183
-3.13566
-3.13069
-3.12707
-3.12464
-3.31906
-3.31863
-3.31775
-3.3165
-3.31507
-3.31334
-3.31146
-3.30893
-3.30543
-3.30109
-3.29607
-3.29004
-3.2833
-3.27622
-3.26964
-3.26399
-3.25952
-3.25688
-3.25493
-3.43963
-3.43925
-3.43848
-3.43726
-3.43566
-3.43407
-3.43216
-3.42982
-3.42689
-3.42337
-3.41927
-3.41448
-3.40906
-3.40328
-3.39754
-3.39234
-3.38816
-3.38546
-3.38426
-3.56123
-3.56083
-3.56012
-3.55902
-3.5576
-3.55601
-3.55417
-3.55205
-3.54957
-3.54668
-3.54336
-3.53953
-3.53516
-3.53038
-3.52546
-3.52077
-3.517
-3.51442
-3.51335
-3.68333
-3.683
-3.68236
-3.68139
-3.68015
-3.67869
-3.67702
-3.67514
-3.67303
-3.67064
-3.66794
-3.66484
-3.6613
-3.65735
-3.65318
-3.64912
-3.64559
-3.64332
-3.64224
-3.80584
-3.80556
-3.805
-3.80417
-3.80309
-3.80181
-3.80036
-3.79873
-3.79693
-3.79494
-3.79273
-3.79023
-3.78735
-3.78408
-3.78056
-3.77707
-3.77412
-3.77198
-3.77089
-3.9287
-3.92847
-3.92799
-3.92727
-3.92635
-3.92525
-3.924
-3.92262
-3.9211
-3.91944
-3.91763
-3.9156
-3.91326
-3.91055
-3.9076
-3.90458
-3.90199
-3.90018
-3.89916
-4.05185
-4.05167
-4.05126
-4.05065
-4.04987
-4.04894
-4.04789
-4.04672
-4.04545
-4.04407
-4.04257
-4.04091
-4.039
-4.03677
-4.03429
-4.03171
-4.02951
-4.02797
-4.02705
-4.17527
-4.17512
-4.17479
-4.17428
-4.17362
-4.17285
-4.17196
-4.17099
-4.16992
-4.16877
-4.16752
-4.16615
-4.16458
-4.16274
-4.16065
-4.15847
-4.15663
-4.15532
-4.15454
-4.29891
-4.2988
-4.29853
-4.29811
-4.29757
-4.29692
-4.29619
-4.29538
-4.29449
-4.29352
-4.29246
-4.2913
-4.28999
-4.28846
-4.28672
-4.28491
-4.28339
-4.28228
-4.2816
-4.42275
-4.42268
-4.42246
-4.42212
-4.42167
-4.42114
-4.42054
-4.41986
-4.41912
-4.4183
-4.4174
-4.4164
-4.41528
-4.41398
-4.41252
-4.41106
-4.40982
-4.40891
-4.4083
-4.54676
-4.54671
-4.54654
-4.54627
-4.54591
-4.54548
-4.54498
-4.54442
-4.5438
-4.54311
-4.54233
-4.54145
-4.54047
-4.53935
-4.53812
-4.53697
-4.536
-4.53528
-4.53474
-4.67091
-4.67089
-4.67076
-4.67055
-4.67026
-4.66991
-4.6695
-4.66904
-4.66853
-4.66793
-4.66725
-4.66648
-4.6656
-4.66462
-4.6636
-4.66274
-4.66198
-4.66145
-4.661
-4.79519
-4.79518
-4.79509
-4.79493
-4.7947
-4.79442
-4.79409
-4.79371
-4.79328
-4.79278
-4.7922
-4.79153
-4.79079
-4.78994
-4.78913
-4.78844
-4.78785
-4.78744
-4.78711
-4.91956
-4.91958
-4.91952
-4.9194
-4.91922
-4.919
-4.91873
-4.91842
-4.91807
-4.91766
-4.91717
-4.91662
-4.91603
-4.91542
-4.91474
-4.91415
-4.91368
-4.91331
-4.91313
-5.04402
-5.04405
-5.04403
-5.04394
-5.04381
-5.04363
-5.04342
-5.04317
-5.04288
-5.04255
-5.04216
-5.04172
-5.04126
-5.04084
-5.04034
-5.03984
-5.03942
-5.03909
-5.03901
-5.16854
-5.16859
-5.16859
-5.16854
-5.16845
-5.16832
-5.16815
-5.16795
-5.16772
-5.16746
-5.16715
-5.1668
-5.16644
-5.16612
-5.16583
-5.16548
-5.16511
-5.16484
-5.16479
-5.29311
-5.29318
-5.2932
-5.29319
-5.29314
-5.29305
-5.29292
-5.29277
-5.29259
-5.29238
-5.29213
-5.29186
-5.29158
-5.29133
-5.29114
-5.29097
-5.29074
-5.2905
-5.29043
-5.41771
-5.41779
-5.41784
-5.41787
-5.41785
-5.41781
-5.41773
-5.41763
-5.41749
-5.41732
-5.41713
-5.41691
-5.41668
-5.41647
-5.41632
-5.41624
-5.41615
-5.41596
-5.41586
-5.54232
-5.54242
-5.5425
-5.54256
-5.54259
-5.54259
-5.54256
-5.54251
-5.54241
-5.54229
-5.54213
-5.54195
-5.54175
-5.54157
-5.54144
-5.5414
-5.54139
-5.54129
-5.54114
-5.66693
-5.66703
-5.66714
-5.66723
-5.66731
-5.66736
-5.6674
-5.6674
-5.66737
-5.6673
-5.66719
-5.66704
-5.66686
-5.66668
-5.66654
-5.66653
-5.66669
-5.66671
-5.66661
)
;

boundaryField
{
    leftWall
    {
        type            calculated;
        value           nonuniform List<scalar> 
50
(
5096.3
4292.85
3484.36
2669.63
1847.79
1101.52
724.592
640.825
542.957
412.11
290.992
200.651
133.822
67.9361
17.8595
0.969489
-0.326935
-1.23442
-1.66101
-1.79788
-1.91875
-2.0494
-2.1843
-2.31941
-2.45415
-2.5882
-2.72143
-2.85384
-2.98546
-3.11642
-3.24672
-3.37645
-3.50569
-3.63451
-3.76297
-3.89115
-4.01909
-4.14684
-4.27446
-4.40196
-4.52933
-4.65654
-4.78354
-4.91026
-5.03674
-5.16297
-5.28905
-5.41505
-5.54106
-5.66716
)
;
    }
    rightWall
    {
        type            calculated;
        value           nonuniform List<scalar> 
50
(
2520.31
1759.54
1161.72
904.449
841.669
785.739
725.806
665.065
572.001
452.136
351.619
273.486
194.645
109.833
37.8219
4.85814
-1.14394
-1.37049
-1.53393
-1.70313
-1.86716
-2.01992
-2.16438
-2.30546
-2.44456
-2.58265
-2.72046
-2.85752
-2.99239
-3.12464
-3.25493
-3.38426
-3.51335
-3.64224
-3.77089
-3.89916
-4.02705
-4.15454
-4.2816
-4.4083
-4.53474
-4.661
-4.78711
-4.91313
-5.03901
-5.16479
-5.29043
-5.41586
-5.54114
-5.66661
)
;
    }
    lowerWall
    {
        type            calculated;
        value           nonuniform List<scalar> 
62
(
5494.45
5515.5
5552.52
5600.66
5653.89
5706.57
5754.18
5793.63
5822.82
5839.88
5843.12
5831.35
5804.24
5762.62
5708.64
5645.85
5578.6
5511.38
5448.75
5394.95
5352.93
5323.83
5308.6
4910.47
4110.43
3306.57
2498.85
1687.96
1081.43
834.462
759.944
732.862
734.683
735.885
735.589
3210.91
2452.3
1762.27
1224.78
946.122
872.199
818.194
761.154
3593.52
3585.69
3551.73
3488.08
3398.89
3279.21
3130.22
2983.61
2882.67
2829.96
2809.54
2809.25
2825.4
2845.41
2864.5
2880.31
2889.19
2895.14
2903.84
)
;
    }
    atmosphere
    {
        type            calculated;
        value           nonuniform List<scalar> 
46
(
-5.73009
-5.73001
-5.72981
-5.72944
-5.72921
-5.72909
-5.72905
-5.72904
-5.72904
-5.72904
-5.72904
-5.72905
-5.72905
-5.72905
-5.72904
-5.72904
-5.72904
-5.72904
-5.72904
-5.72904
-5.72904
-5.72904
-5.72904
-5.72904
-5.72905
-5.72908
-5.72911
-5.72918
-5.7293
-5.72943
-5.72955
-5.72966
-5.72975
-5.72982
-5.72986
-5.72988
-5.72986
-5.7298
-5.72968
-5.72952
-5.72932
-5.72913
-5.72904
-5.72948
-5.72946
-5.72904
)
;
    }
    defaultFaces
    {
        type            empty;
    }
}


// ************************************************************************* //
