/*--------------------------------*- C++ -*----------------------------------*\
| =========                 |                                                 |
| \\      /  F ield         | OpenFOAM: The Open Source CFD Toolbox           |
|  \\    /   O peration     | Version:  2312                                  |
|   \\  /    A nd           | Website:  www.openfoam.com                      |
|    \\/     M anipulation  |                                                 |
\*---------------------------------------------------------------------------*/
FoamFile
{
    version     2.0;
    format      ascii;
    arch        "LSB;label=32;scalar=64";
    class       volScalarField;
    location    "3.9";
    object      alpha.water_0;
}
// * * * * * * * * * * * * * * * * * * * * * * * * * * * * * * * * * * * * * //

dimensions      [0 0 0 0 0 0 0];

internalField   nonuniform List<scalar> 
2268
(
3.7355e-07
3.46565e-07
7.9688e-08
1.44273e-08
4.92261e-09
1.10657e-09
2.36197e-10
1.65238e-10
1.07268e-10
7.34383e-11
5.9187e-11
5.08608e-11
4.85894e-11
5.12274e-11
5.99758e-11
7.62309e-11
1.02967e-10
1.47489e-10
2.03565e-10
3.5397e-10
7.24712e-10
1.20926e-09
1.38649e-09
3.36492e-07
2.50894e-07
6.40325e-08
1.18988e-08
1.40318e-09
2.98041e-10
2.3382e-10
1.81162e-10
1.25114e-10
1.01438e-10
9.40228e-11
8.36271e-11
7.96864e-11
7.99843e-11
9.40252e-11
1.20078e-10
1.60963e-10
2.10304e-10
3.24922e-10
6.12515e-10
1.15516e-09
1.64987e-09
1.70998e-09
4.02143e-08
1.76141e-08
1.5515e-08
5.17321e-09
1.18221e-09
1.55869e-10
1.74518e-10
1.83615e-10
5.22417e-10
9.18315e-10
6.52384e-10
2.38092e-10
1.35157e-10
1.33229e-10
1.43692e-10
1.65373e-10
1.99156e-10
2.25147e-10
1.04393e-09
7.2076e-10
1.1866e-09
1.61749e-09
1.57082e-09
3.12516e-20
3.06834e-20
3.12516e-20
1.68775e-19
1.43292e-11
5.30152e-12
3.02475e-11
1.41716e-10
2.40835e-09
4.97752e-09
4.00616e-09
2.41242e-09
1.31885e-10
9.48105e-11
1.07498e-10
1.15719e-10
3.88534e-10
6.54469e-09
1.30459e-08
5.89468e-10
7.53431e-10
7.18952e-10
4.16101e-10
0.0224421
0.0219765
0.0158465
0.00572669
1.74445e-18
6.46769e-24
6.8589e-24
-5.12516e-29
-6.6387e-12
-1.38227e-11
-8.96645e-10
-7.62348e-10
3.447e-12
3.61606e-12
4.57593e-12
-2.13189e-17
2.05076e-09
1.76526e-09
5.87766e-09
4.44779e-09
1.57793e-09
1.213e-10
1.22741e-10
0.69133
0.681101
0.659884
0.624068
0.563652
0.472911
0.36762
0.259602
0.159326
0.0764747
0.0195825
-1.34372e-11
6.84314e-30
2.73329e-30
-6.56081e-20
3.42076e-21
4.54897e-19
0.000144301
0.00128918
0.00408008
0.0174293
0.0267996
0.0344287
0.998256
0.997111
0.995587
0.995769
0.996168
0.992819
0.9793
0.94499
0.881017
0.782248
0.651567
0.518293
0.442464
0.399674
0.371015
0.381419
0.394379
0.402252
0.422642
0.461054
0.559662
0.642057
0.680524
0.999676
0.999676
0.999383
0.999374
0.999346
0.999427
0.999563
0.999671
0.999672
0.999671
0.999633
0.997637
0.991476
0.97431
0.978607
0.981881
0.981773
0.92584
0.865019
0.863049
0.871022
0.944886
0.983831
0.014566
0.0130547
0.0127181
0.00927188
0.00522899
0.0059272
0.0110273
0.0136347
0.0141076
0.0140106
0.0140931
0.0143555
0.0143513
0.0124504
0.00840391
0.00733609
0.00494287
0.00582626
0.00599877
0.0832203
0.0128065
0.00720626
0.00365958
0.00216749
0.00216963
0.00216152
0.00216505
0.00215548
0.0021586
0.00215978
0.00315384
0.00298689
0.00203624
0.00148129
0.00147815
0.00179554
0.00243877
0.00393256
0.486931
0.470068
0.46811
0.416847
0.318258
0.256778
0.195102
0.188483
0.175177
0.0961505
0.021916
0.00148151
0.00149231
0.00631005
0.00541408
0.00147747
0.00147706
0.00148109
0.00148167
0.683013
0.856184
0.970675
0.970676
0.914653
0.647729
0.597564
0.661339
0.877796
0.802889
0.271623
0.216625
0.305913
0.399421
0.355439
0.222612
0.050904
0.00148167
0.00148216
0.68195
0.954402
0.970676
0.970676
0.970678
0.920022
0.86031
0.929509
0.952452
0.952305
0.722912
0.592625
0.80521
0.902752
0.904653
0.830937
0.667862
0.211485
0.0141378
0.851557
0.852501
0.91862
0.969933
0.970621
0.970053
0.970606
0.970607
0.855807
0.914395
0.914109
0.867935
0.836699
0.894896
0.909614
0.909614
0.909616
0.778353
0.375293
0.868353
0.876971
0.868159
0.915985
0.97042
0.970674
0.970674
0.94009
0.490085
0.538079
0.859759
0.736262
0.612197
0.776767
0.909613
0.909615
0.909616
0.909618
0.485387
0.932723
0.898597
0.83195
0.890517
0.970182
0.970674
0.970674
0.809834
0.279939
0.461679
0.577376
0.472302
0.513248
0.834849
0.8911
0.909613
0.909615
0.909616
0.484538
0.999671
0.999669
0.999671
0.999671
0.999672
0.999672
0.999672
0.999672
0.999672
0.999672
0.999672
0.995164
0.958567
0.956479
0.956485
0.970874
0.982529
0.982844
0.964915
0.886463
0.87119
0.889184
0.978038
0.999633
0.998952
0.999671
0.999671
0.999671
0.999672
0.999644
0.999672
0.999672
0.999672
0.999671
0.999599
0.996441
0.970572
0.956477
0.957165
0.97301
0.983042
0.983236
0.983875
0.984022
0.984022
0.98034
0.995138
0.996878
0.992409
0.988143
0.982392
0.978621
0.979097
0.975223
0.970674
0.972952
0.984475
0.991095
0.98885
0.985378
0.98583
0.986142
0.983058
0.96793
0.93755
0.955888
0.984022
0.984022
0.980264
0.846812
0.87877
0.856251
0.74091
0.602663
0.566419
0.590394
0.639226
0.652099
0.632894
0.591288
0.516828
0.486241
0.511713
0.600589
0.651308
0.610283
0.527229
0.490493
0.575242
0.718874
0.715627
0.652496
0.165044
0.229759
0.159725
0.0495799
0.00784767
0.00163469
0.000178073
4.12876e-06
4.19904e-06
4.12875e-06
4.19904e-06
4.12875e-06
1.20067e-05
1.07826e-05
1.09107e-05
0.00854125
4.24667e-09
4.33366e-11
4.41264e-13
0.0175465
0.0400452
0.0155824
1.05251e-20
1.58441e-10
1.85358e-10
2.04984e-10
2.24206e-10
1.65744e-05
3.10881e-05
4.67072e-05
4.44579e-05
4.10991e-05
4.61204e-05
8.91256e-05
0.000161698
0.000157894
0.000162191
4.00138e-05
1.09508e-11
1.52543e-11
3.42275e-06
2.35269e-07
2.83417e-09
1.75607e-23
9.99821e-24
8.13263e-24
0.000349178
0.000468659
0.000632333
0.000667906
0.000707274
0.000816383
0.00101179
0.00139085
0.0021559
0.00291823
0.00327666
0.00324512
0.00274884
0.00150986
0.00039101
0.000186445
0.000198911
0.000128142
1.30689e-05
3.23455e-09
4.7336e-05
2.05498e-05
2.36125e-06
0.000556138
0.000788332
0.00109455
0.0011565
0.00114578
0.00112811
0.00110992
0.00142228
0.00457708
0.00858392
0.00858366
0.00858406
0.00857808
0.00857872
0.00617623
0.00158649
0.00195602
0.00331998
0.00475747
0.00553423
0.00355681
0.000729557
0.00037145
6.69718e-10
8.56082e-10
6.5646e-08
9.99148e-06
2.29415e-10
2.25528e-10
1.45117e-06
7.88265e-05
8.91895e-05
0.000377393
0.00203023
0.00645602
0.00783557
0.00735848
0.00689472
0.00245734
0.000109482
0.00563662
0.017458
0.0174582
0.017458
0.0116193
0.00304974
5.92548e-09
1.49743e-08
2.02117e-08
4.83411e-09
5.81429e-09
2.71561e-10
1.23247e-09
1.61297e-09
1.26708e-09
4.12325e-07
4.55054e-07
1.66437e-07
1.79094e-07
2.08058e-07
-8.55199e-11
-9.02926e-20
-2.41138e-24
0.000291449
0.0103667
0.015059
0.0140209
0.0149334
0.0150309
2.8341e-08
1.04701e-07
1.39415e-07
1.11227e-07
1.26483e-07
5.91056e-08
2.27721e-08
1.0849e-08
1.26199e-09
1.60172e-09
1.12865e-06
3.14245e-06
7.24319e-06
1.1722e-05
7.2157e-06
1.97179e-06
2.31511e-06
9.47493e-10
2.65517e-10
2.65462e-10
2.65466e-10
0.00171082
0.00761995
2.73227e-08
1.04687e-07
1.37359e-07
1.34173e-07
1.52535e-07
2.76499e-07
2.47228e-07
2.34522e-07
1.48064e-09
3.56976e-08
9.85684e-06
1.27447e-05
1.27149e-05
1.26959e-05
3.99738e-06
2.02571e-07
5.41622e-07
5.45936e-07
1.85128e-07
2.6551e-10
2.65468e-10
2.65518e-10
4.19348e-06
1.36631e-08
6.72144e-09
4.09339e-08
2.42701e-08
1.73815e-07
2.43768e-06
7.08549e-06
6.84525e-06
3.72069e-07
5.02487e-07
3.67953e-06
5.96247e-06
4.82003e-07
7.25165e-08
7.2628e-08
8.80021e-08
1.31363e-07
1.60825e-07
1.68914e-07
1.62423e-07
4.75183e-08
2.36102e-08
4.17244e-09
8.20405e-09
4.89768e-09
7.92476e-09
2.64457e-08
2.1357e-07
4.77715e-06
9.2422e-06
9.2422e-06
4.92401e-06
1.92753e-06
4.28772e-06
2.40202e-06
1.0431e-07
9.41875e-08
7.27714e-08
2.02615e-07
1.36124e-07
1.83567e-07
1.69744e-07
1.76587e-07
1.51972e-07
1.30865e-07
8.01763e-08
7.80143e-09
5.25743e-09
1.32949e-08
5.54371e-08
2.2027e-07
3.69375e-06
9.24028e-06
9.06734e-06
7.03929e-06
9.54449e-06
1.43116e-05
1.51257e-05
9.99645e-06
3.01665e-06
5.26508e-06
2.19704e-06
4.34421e-06
1.11623e-05
7.07482e-06
4.46933e-07
5.68894e-08
5.63922e-08
7.48148e-08
7.63596e-09
5.34233e-09
1.70691e-08
5.38022e-08
1.49262e-07
3.26167e-07
1.71717e-06
9.93086e-07
3.31418e-08
8.12826e-06
1.90166e-05
1.90166e-05
1.90166e-05
1.89634e-05
1.86279e-05
1.42245e-05
1.30868e-05
1.97438e-05
2.08683e-05
1.26389e-05
5.02012e-06
3.05821e-06
4.77374e-07
8.3396e-09
4.47646e-09
1.24014e-08
2.99896e-08
3.74453e-08
7.90309e-09
1.41535e-08
1.54565e-08
3.36202e-08
1.16543e-07
3.85246e-06
1.02671e-05
1.14858e-05
1.43103e-05
1.68689e-05
1.61695e-05
3.61594e-06
4.62554e-06
2.08245e-05
2.15713e-05
2.16189e-05
2.16297e-05
1.19209e-05
8.99437e-09
3.20765e-09
6.49506e-09
9.964e-09
3.47242e-09
7.47407e-09
1.50602e-08
1.11369e-08
3.93574e-09
1.11461e-09
1.07038e-09
1.08055e-09
1.02514e-09
1.03332e-09
1.0246e-09
1.03279e-09
1.0246e-09
1.02953e-09
1.60039e-08
6.73747e-06
1.36531e-05
1.73037e-05
1.00673e-05
1.36429e-08
2.09129e-09
2.87837e-09
3.70755e-09
1.71263e-09
6.25867e-10
6.17187e-10
4.3107e-10
7.896e-10
1.03871e-09
1.06993e-09
1.17831e-09
1.21065e-09
1.21473e-09
1.25458e-09
1.29458e-09
1.36211e-09
1.02635e-09
9.65837e-10
9.65551e-10
9.65857e-10
1.71444e-07
5.98299e-07
2.01256e-08
1.28896e-09
1.12973e-09
1.29617e-09
7.78548e-10
5.10148e-10
4.28825e-10
4.31783e-10
6.11307e-10
8.56748e-10
1.18994e-09
1.53123e-09
1.9617e-09
2.75458e-09
3.67615e-09
4.23045e-09
3.9263e-09
1.97388e-09
1.0054e-09
2.0277e-09
5.02788e-09
1.04892e-08
9.2675e-09
2.30318e-08
8.72029e-10
4.50916e-10
5.41943e-10
4.47853e-10
4.00644e-10
3.68257e-10
3.46198e-10
3.41964e-10
3.4248e-10
3.36356e-10
3.96839e-10
5.75294e-10
7.74456e-10
1.02226e-09
1.29877e-09
1.28661e-09
8.17481e-10
5.75651e-10
8.02972e-10
1.74791e-09
3.09546e-09
4.53522e-09
2.35609e-08
6.90594e-10
2.91353e-10
3.05567e-10
2.66719e-10
2.20591e-10
1.71879e-10
1.41882e-10
1.29867e-10
1.24501e-10
1.27357e-10
1.53469e-10
1.92797e-10
2.49783e-10
3.07369e-10
3.56143e-10
3.89326e-10
3.41429e-10
2.85905e-10
2.97742e-10
3.96899e-10
8.34622e-10
1.34319e-09
2.56869e-08
4.94027e-10
2.5213e-10
2.06626e-10
1.6895e-10
1.37862e-10
1.07246e-10
8.55754e-11
6.92293e-11
5.64142e-11
5.02002e-11
5.27966e-11
6.31097e-11
7.82993e-11
9.79898e-11
1.18345e-10
1.34772e-10
1.37172e-10
1.29428e-10
1.34943e-10
1.70773e-10
2.58814e-10
5.08767e-10
2.6256e-08
4.20017e-10
2.63001e-10
1.93101e-10
1.6473e-10
1.46765e-10
1.26335e-10
9.96586e-11
7.13154e-11
4.81819e-11
3.30015e-11
2.51241e-11
2.26767e-11
2.47084e-11
2.97226e-11
3.62561e-11
4.25681e-11
4.89968e-11
5.23193e-11
5.77373e-11
7.17858e-11
1.29282e-10
1.89521e-10
2.90192e-08
3.18684e-10
2.75077e-10
2.54242e-10
2.50175e-10
2.39891e-10
2.12373e-10
1.65517e-10
1.13556e-10
6.93756e-11
4.22473e-11
2.40874e-11
1.41129e-11
9.76559e-12
8.90346e-12
1.01082e-11
1.24035e-11
1.54664e-11
1.87456e-11
2.37978e-11
3.2188e-11
4.60912e-11
7.99658e-11
3.0205e-08
4.30231e-10
2.8644e-10
3.04248e-10
3.12291e-10
3.23979e-10
3.1458e-10
2.65173e-10
1.88731e-10
1.08453e-10
6.36315e-11
3.5824e-11
1.82248e-11
8.55305e-12
4.38723e-12
3.22492e-12
3.50292e-12
4.47835e-12
6.00207e-12
8.76834e-12
1.26755e-11
2.46584e-11
3.41266e-11
3.52135e-08
3.39598e-10
2.94783e-10
3.55149e-10
3.90834e-10
4.50709e-10
4.76674e-10
4.37771e-10
3.24793e-10
1.72111e-10
9.56718e-11
5.48972e-11
2.82345e-11
1.26981e-11
5.09319e-12
2.04927e-12
1.21161e-12
1.32409e-12
1.94545e-12
3.28576e-12
5.29619e-12
8.43849e-12
1.51994e-11
3.76273e-08
1.02895e-09
3.07664e-10
3.96281e-10
4.55443e-10
5.41663e-10
6.32818e-10
6.53727e-10
5.40433e-10
2.71373e-10
1.348e-10
7.83705e-11
4.22175e-11
1.97678e-11
7.72758e-12
2.73507e-12
9.09558e-13
4.76341e-13
5.83096e-13
1.03971e-12
1.79889e-12
4.05932e-12
5.82526e-12
4.65115e-08
1.02817e-09
2.726e-10
3.50735e-10
3.4901e-10
3.78866e-10
5.55516e-10
7.28872e-10
8.13247e-10
4.25657e-10
1.79318e-10
1.02308e-10
5.76168e-11
2.84415e-11
1.1815e-11
4.25199e-12
1.30583e-12
3.53283e-13
1.95643e-13
3.17618e-13
6.97752e-13
1.14964e-12
2.30374e-12
4.92787e-08
1.97843e-09
2.36648e-10
3.25978e-10
2.29385e-10
2.27551e-10
2.28315e-10
2.28172e-10
1.00508e-09
6.45766e-10
2.29066e-10
1.22349e-10
7.11885e-11
3.70469e-11
1.68234e-11
6.26719e-12
1.95395e-12
5.53932e-13
1.14183e-13
9.98682e-14
1.79892e-13
4.86928e-13
7.28534e-13
6.74782e-08
2.45266e-10
3.4538e-10
1.07544e-08
1.09099e-07
3.80201e-07
2.8341e-07
1.32305e-08
9.06569e-10
9.07395e-10
2.86337e-10
1.34783e-10
7.9529e-11
4.35167e-11
2.09669e-11
8.70335e-12
2.82399e-12
7.63837e-13
1.71679e-13
4.21411e-14
6.37754e-14
1.22718e-13
2.49933e-13
7.26268e-08
2.5331e-09
2.08827e-09
1.32497e-07
5.17207e-07
1.21825e-06
1.13646e-06
1.55474e-07
9.07003e-10
1.12993e-09
3.79043e-10
1.37097e-10
7.99497e-11
4.51171e-11
2.31674e-11
1.03332e-11
3.87861e-12
1.10079e-12
2.5765e-13
2.9846e-14
1.75543e-14
4.58495e-14
7.57581e-14
8.42092e-08
5.06641e-09
3.90947e-09
2.63462e-07
7.83215e-07
1.23294e-06
1.17749e-06
2.96074e-07
9.08123e-10
1.46581e-09
4.03291e-10
1.27987e-10
7.25737e-11
4.16778e-11
2.2277e-11
1.08218e-11
4.46193e-12
1.45633e-12
3.73139e-13
5.30968e-14
7.53661e-15
9.27491e-15
2.41756e-14
7.77774e-08
5.0727e-09
1.04111e-08
2.34441e-07
4.95247e-07
1.1641e-06
9.51366e-07
1.62024e-08
2.62156e-09
1.53735e-09
3.7891e-10
1.08133e-10
5.95534e-11
3.43214e-11
1.87802e-11
9.63784e-12
4.45593e-12
1.61954e-12
4.51287e-13
9.08636e-14
6.02361e-15
3.22038e-15
5.98412e-15
1.33723e-07
5.86808e-09
4.51779e-09
6.53858e-08
6.98318e-08
8.1402e-08
2.90525e-08
4.88333e-09
4.87145e-09
1.29371e-09
3.07205e-10
8.29491e-11
4.41872e-11
2.52445e-11
1.37083e-11
7.33606e-12
3.69716e-12
1.53989e-12
4.80964e-13
1.07756e-13
8.98769e-15
1.04897e-15
1.52632e-15
1.37336e-07
1.27979e-08
1.95456e-09
6.59233e-09
9.88476e-10
9.41536e-11
1.14427e-10
5.89569e-09
4.11331e-09
8.46726e-10
2.08045e-10
5.55661e-11
2.95193e-11
1.63519e-11
8.55803e-12
4.59323e-12
2.48462e-12
1.18627e-12
4.35223e-13
1.11892e-13
1.29766e-14
6.84385e-16
3.80775e-16
1.70889e-07
5.86605e-08
1.95449e-09
2.92743e-09
1.88018e-09
1.15786e-08
1.46941e-09
3.13018e-09
1.14827e-09
4.38128e-10
1.09966e-10
3.17619e-11
1.75308e-11
9.32978e-12
4.57233e-12
2.34765e-12
1.30774e-12
6.98433e-13
3.07367e-13
9.09823e-14
1.71111e-14
7.27249e-16
1.13234e-16
1.70889e-07
1.28887e-07
4.9672e-08
1.77327e-08
2.01158e-09
6.5831e-09
2.11261e-09
6.7069e-10
2.32228e-10
1.56778e-10
4.11461e-11
1.55067e-11
9.17768e-12
4.68893e-12
2.09602e-12
9.69503e-13
5.1737e-13
2.95855e-13
1.54348e-13
5.84824e-14
1.32328e-14
8.71917e-16
4.43381e-17
1.70889e-07
1.70889e-07
9.22221e-08
3.4384e-08
3.80392e-09
2.10068e-09
2.03643e-09
8.8422e-10
2.22679e-10
4.05862e-11
1.11856e-11
6.38566e-12
4.06041e-12
2.03984e-12
8.33557e-13
3.25758e-13
1.49465e-13
8.33954e-14
5.18613e-14
2.65504e-14
8.23283e-15
7.55112e-16
3.06563e-17
1.15256e-07
1.5081e-07
7.5648e-08
2.2677e-08
7.60528e-09
3.58624e-09
1.89561e-09
6.96183e-10
1.6175e-10
2.14516e-11
4.0222e-12
2.26756e-12
1.4953e-12
7.4124e-13
2.83014e-13
9.21587e-14
3.24831e-14
1.54704e-14
1.05395e-14
7.98869e-15
3.32377e-15
5.16148e-16
2.94926e-17
6.1838e-08
1.07585e-07
5.18658e-08
1.63507e-08
5.91432e-09
2.91563e-09
1.16526e-09
3.21123e-10
5.58605e-11
5.56546e-12
7.73602e-13
5.28358e-13
3.76346e-13
1.92331e-13
7.0036e-14
1.93871e-14
4.80861e-15
1.65476e-15
1.32565e-15
1.52734e-15
1.05361e-15
2.83908e-16
2.96199e-17
3.60934e-08
5.18544e-08
2.31273e-08
6.14447e-09
2.75308e-09
1.07444e-09
2.99419e-10
5.33794e-11
5.25981e-12
2.41839e-13
5.89628e-14
6.3633e-14
5.04007e-14
2.71111e-14
9.87349e-15
2.36009e-15
4.2341e-16
9.70915e-17
1.0032e-16
2.02711e-16
2.78548e-16
1.30924e-16
1.9796e-17
0.98846
0.988502
0.988523
0.988502
0.984631
0.988462
0.988566
0.988524
0.970178
0.926961
0.921223
0.919508
0.470121
0.165555
-2.91241e-19
-9.90079e-23
-4.66209e-25
5.28464e-25
3.60272e-21
0.000988212
1.9876e-06
4.89421e-06
3.8466e-21
0.000763079
0.00013224
0.000438796
0.000705121
0.000917319
0.000437715
0.000732659
0.000930566
0.00097192
0.000643966
0.000507955
0.00050826
0.00367428
0.0111082
0.00277885
0.000512437
0.0154707
0.0131166
0.0150134
0.0146143
0.0156349
0.000603719
0.000235177
1.22324e-06
5.27168e-07
4.94535e-09
4.17352e-09
8.7765e-08
5.47714e-07
4.69457e-08
7.05121e-07
2.65713e-06
2.94561e-06
4.21788e-07
1.92323e-06
3.7357e-06
3.82575e-06
1.72328e-09
2.60086e-07
1.2625e-06
2.486e-06
1.75745e-09
1.99491e-08
1.07139e-07
1.36512e-07
1.71462e-09
1.7578e-09
1.71565e-09
5.33077e-09
4.54675e-07
7.41976e-09
1.76679e-09
2.97054e-09
2.70297e-08
3.40533e-08
3.34696e-09
9.12557e-09
2.12146e-09
3.26857e-09
5.47351e-09
6.9028e-09
1.70735e-09
2.60878e-09
2.90082e-09
3.23382e-09
8.40029e-10
1.07949e-09
1.3076e-09
1.41667e-09
3.04606e-10
4.24158e-10
4.79502e-10
5.76304e-10
1.20073e-10
1.53583e-10
1.99536e-10
2.3001e-10
5.19805e-11
7.24182e-11
8.47815e-11
1.08288e-10
2.3259e-11
3.06545e-11
4.1359e-11
4.95504e-11
9.41376e-12
1.34593e-11
1.63706e-11
2.19402e-11
3.54227e-12
4.67145e-12
6.94696e-12
8.24272e-12
1.2116e-12
1.81369e-12
2.2028e-12
3.04279e-12
4.00706e-13
5.38072e-13
7.85813e-13
9.16748e-13
1.32488e-13
1.8705e-13
2.27518e-13
3.17062e-13
3.73299e-14
4.82308e-14
6.97248e-14
8.01988e-14
1.20042e-14
1.52923e-14
1.94078e-14
2.6489e-14
2.78923e-15
3.8116e-15
5.57141e-15
6.38344e-15
7.94727e-16
1.03104e-15
1.34326e-15
1.88456e-15
1.70678e-16
2.41951e-16
3.94272e-16
4.56997e-16
4.05707e-17
5.59572e-17
7.32375e-17
1.10875e-16
7.08494e-18
1.00294e-17
1.78855e-17
2.00751e-17
1.63822e-18
1.9952e-18
2.47877e-18
4.49381e-18
4.49706e-19
3.31579e-19
5.36462e-19
7.87419e-19
3.13028e-19
8.81384e-20
9.71112e-20
1.25349e-19
0.955614
0.861086
0.830337
0.899329
0.970267
0.95744
0.957503
0.552138
0.210972
0.398387
0.379446
0.283914
0.349155
0.686672
0.87294
0.909291
0.909614
0.909616
0.840402
0.896855
0.429633
0.563174
0.746361
0.81249
0.793604
0.767546
0.360897
0.0516177
0.00717843
0.000964607
0.000174804
0.09096
0.259281
0.48235
0.628138
0.740526
0.869093
0.886472
0.330351
-6.78406e-19
0.137941
0.163668
0.149293
0.168252
0.338567
0.407846
0.189192
0.00710345
0.000159354
0.000174163
0.00015873
0.000159044
0.00658448
0.0419969
0.0840118
0.239667
0.466278
-1.16443e-21
-3.08082e-25
4.61918e-20
-1.92383e-20
-1.25779e-19
0.0653807
0.393473
0.407816
0.33071
0.0186041
0.000158816
0.00015873
0.00015836
0.000173984
0.00117329
0.00253957
0.00219888
0.00213473
0.00719824
0.000717825
3.83711e-05
1.94041e-23
-4.01357e-18
-4.31054e-19
0.0776085
0.278535
0.241611
0.195295
0.0541673
0.000160519
0.000158406
0.000158289
0.000157919
0.000157864
0.000573298
0.00277267
0.00350296
0.00349176
0.00891599
0.00202838
7.44153e-05
4.20123e-21
-1.15808e-20
0.0519027
0.0460672
0.009758
0.00444767
0.0119261
0.00868483
0.00397842
0.00143035
0.000692434
0.000191167
0.000191695
0.00081719
0.00268126
0.00361323
0.0158339
0.00511287
0.000488669
0.00045138
0.000299505
0.00109027
0.000687801
0.000647509
0.000435943
0.000432747
0.00328439
0.00452693
0.00414207
0.0020799
0.000436187
0.000691745
0.000868633
0.000923546
0.00217206
0.0198878
0.00942687
0.000922199
0.00119046
0.0030992
0.00350917
0.0033958
0.00343197
0.00264528
0.000602717
0.00084593
0.00270636
0.00414365
0.00349299
0.00109771
0.00100789
0.00100489
0.000608449
0.00029288
0.0197989
0.0203012
0.00866339
0.00339794
0.00444894
0.00447895
0.00391965
0.00154663
0.0010742
0.00041908
7.21922e-07
0.000254688
0.00212704
0.00144659
0.000543992
0.000394913
0.00035983
8.80643e-05
6.24881e-08
0.0203012
0.0203017
0.0200604
0.00528045
0.00146651
0.00148371
0.000522459
6.37248e-06
3.19848e-10
2.11655e-05
7.74476e-07
6.55644e-07
2.19956e-06
7.27464e-07
9.47626e-07
1.86146e-07
1.59293e-07
6.98803e-08
6.09592e-08
0.0203013
0.0203029
0.00979251
5.40589e-05
8.48827e-06
1.20266e-05
-1.71954e-08
-1.54343e-14
4.86619e-13
2.09496e-08
7.11459e-08
8.94525e-07
3.3769e-06
3.43005e-06
4.17391e-06
2.66213e-06
3.35557e-06
4.57356e-06
1.05746e-06
0.00624158
0.00568989
0.000354192
3.22834e-06
3.79808e-06
6.66163e-06
2.74998e-06
1.94396e-06
1.07021e-06
1.00407e-07
6.0451e-08
2.96491e-07
3.36117e-06
1.95324e-05
2.02465e-05
1.97951e-05
1.90476e-05
1.91535e-05
1.40008e-05
1.72493e-07
1.73713e-07
1.72898e-07
1.15641e-05
4.02915e-05
2.23942e-05
8.73958e-06
1.73787e-06
1.70903e-05
1.91487e-05
5.38293e-06
3.2388e-07
3.61763e-07
8.93347e-06
2.0356e-05
2.03816e-05
2.03817e-05
1.38496e-05
1.2986e-05
1.74862e-07
1.72493e-07
6.52956e-07
3.30071e-05
5.00331e-05
4.194e-05
5.62068e-06
9.39668e-07
1.20692e-05
2.0695e-05
2.07234e-05
1.99237e-05
1.81269e-05
1.7325e-05
2.03772e-05
2.03395e-05
8.4964e-06
5.72456e-06
5.7144e-06
2.80869e-06
1.788e-07
2.333e-07
3.08948e-05
5.06722e-05
4.7538e-05
1.28282e-06
9.11583e-07
1.10875e-06
5.16539e-06
4.9085e-06
8.10523e-06
8.86964e-06
1.05595e-05
1.91662e-05
1.70611e-05
5.75432e-06
5.74046e-06
7.14327e-06
4.2785e-06
6.90374e-06
6.63516e-06
2.27971e-05
3.24339e-05
1.17629e-05
4.47372e-06
1.71049e-05
1.68604e-05
4.6828e-06
1.39382e-05
1.46496e-07
1.41424e-07
1.67966e-07
1.05078e-07
2.70268e-06
6.14956e-06
6.43711e-06
9.56938e-06
1.02689e-06
4.87935e-06
1.26887e-05
1.54613e-05
1.0607e-05
3.82404e-06
1.89885e-06
1.4273e-05
2.32398e-05
5.35929e-05
5.67457e-05
5.6356e-05
2.96462e-05
1.40904e-06
4.74041e-08
3.69278e-08
1.07817e-05
1.40958e-05
9.82727e-06
6.22014e-09
2.22611e-07
2.9547e-06
5.85593e-06
2.88074e-06
7.41778e-07
5.32225e-07
7.86278e-07
6.91804e-06
1.76528e-05
4.89446e-05
5.73482e-05
4.57688e-05
2.5698e-05
6.38545e-07
4.55529e-08
1.19683e-05
1.41073e-05
2.93125e-06
2.06016e-08
4.43392e-08
4.69802e-09
4.62576e-09
1.23422e-08
5.85765e-07
3.727e-07
1.41657e-07
3.1336e-24
-5.05383e-23
7.04745e-07
3.80874e-05
4.16685e-05
4.74755e-05
1.27467e-05
1.61306e-06
1.10082e-05
1.29013e-05
5.17613e-07
1.72764e-08
2.50187e-08
1.10198e-08
4.88739e-09
1.63068e-09
7.76694e-08
9.44807e-08
2.5317e-09
-1.36347e-26
-1.38553e-14
2.58664e-18
1.96318e-05
3.98578e-05
4.8275e-05
2.52212e-05
7.05843e-06
9.58474e-06
1.28365e-06
1.41349e-07
9.05608e-09
6.01492e-09
9.58399e-09
4.79424e-09
1.63891e-09
1.47762e-10
4.3805e-08
4.38003e-07
4.88893e-07
1.07054e-07
-7.63432e-26
1.19918e-05
4.0299e-05
4.83458e-05
1.77744e-05
7.29956e-06
3.39214e-06
1.19588e-07
1.41486e-07
3.51647e-09
5.02e-09
6.79896e-09
3.67494e-09
1.62583e-09
1.48622e-10
5.14944e-07
7.43576e-07
7.49187e-07
3.634e-07
2.37592e-18
2.13756e-06
2.00178e-05
1.37283e-05
4.87901e-06
3.43816e-06
3.66194e-07
1.04959e-08
1.42453e-07
1.56792e-09
2.12149e-09
3.30988e-09
3.8942e-09
8.4663e-09
4.16315e-08
2.32352e-07
4.97008e-07
4.65339e-07
1.96969e-07
1.03329e-08
3.24178e-09
3.14392e-09
3.02578e-09
3.06195e-09
2.96337e-09
7.07972e-09
9.98878e-09
2.39853e-07
6.55884e-10
9.25647e-10
1.47018e-09
2.65535e-09
5.85445e-09
1.29799e-08
1.32241e-09
2.52045e-08
5.43793e-09
5.86108e-09
7.81648e-09
3.88471e-09
3.7581e-09
5.75105e-08
2.69202e-08
4.38768e-08
8.9657e-09
3.2426e-08
2.4584e-07
2.7801e-10
4.11593e-10
6.47889e-10
1.08558e-09
1.83138e-09
2.4401e-09
1.26026e-09
1.37271e-09
2.25301e-09
4.69533e-09
5.24058e-09
4.43751e-09
2.24124e-08
1.34671e-07
1.10511e-07
6.70777e-08
6.96235e-09
8.06118e-08
2.46106e-07
1.29326e-10
1.96051e-10
3.00681e-10
4.63762e-10
6.95252e-10
9.32879e-10
1.28679e-09
1.92598e-09
2.96337e-09
4.56392e-09
6.62513e-09
9.52427e-09
3.26925e-08
1.39185e-07
7.63701e-08
3.66265e-08
6.26567e-09
8.69419e-08
1.89858e-07
6.19696e-11
9.63199e-11
1.49147e-10
2.31813e-10
3.6092e-10
5.56155e-10
8.81931e-10
1.43264e-09
2.32619e-09
3.83911e-09
6.6574e-09
1.22651e-08
2.9159e-08
3.79963e-08
1.52138e-08
5.50231e-09
7.71098e-09
1.61377e-07
1.56666e-07
2.67579e-11
4.31764e-11
6.90192e-11
1.11349e-10
1.82579e-10
3.03201e-10
5.11283e-10
8.70035e-10
1.52184e-09
2.74361e-09
5.23412e-09
1.02148e-08
2.24756e-08
9.90713e-09
6.7874e-09
5.47108e-09
3.21863e-08
1.8217e-07
1.23983e-07
1.0593e-11
1.72609e-11
2.81607e-11
4.67741e-11
7.98647e-11
1.40324e-10
2.52402e-10
4.6001e-10
8.54461e-10
1.65841e-09
3.36458e-09
7.07056e-09
1.55815e-08
1.38855e-08
1.0084e-08
1.18341e-08
8.97064e-08
1.64968e-07
1.24231e-07
3.75343e-12
6.17666e-12
1.02284e-11
1.73275e-11
3.04697e-11
5.64766e-11
1.09926e-10
2.21934e-10
4.57509e-10
9.07945e-10
1.82193e-09
3.78867e-09
7.68084e-09
1.03512e-08
1.31305e-08
4.16736e-08
6.28797e-08
2.78339e-08
2.82994e-07
1.26156e-12
1.99807e-12
3.28733e-12
5.33556e-12
9.66921e-12
1.82554e-11
3.67259e-11
7.98957e-11
1.67711e-10
3.79543e-10
8.90096e-10
1.58114e-09
1.68104e-09
3.75143e-09
9.96189e-09
2.56539e-08
4.37284e-08
5.65619e-09
3.99485e-07
3.70858e-13
5.90921e-13
8.99865e-13
1.44559e-12
2.39507e-12
4.09445e-12
7.01356e-12
1.01034e-11
2.34242e-11
7.00138e-11
2.33256e-10
5.90102e-10
3.47705e-10
6.52222e-10
3.62383e-09
3.3149e-09
5.1937e-09
4.90627e-09
3.99453e-07
1.14922e-13
1.59616e-13
2.30374e-13
3.40856e-13
5.14126e-13
8.01662e-13
1.21e-12
1.23902e-12
2.31634e-12
7.88757e-12
3.12559e-11
1.08648e-10
1.43586e-10
1.25332e-10
6.25988e-10
1.55742e-09
4.04794e-09
5.63281e-09
3.99456e-07
3.01427e-14
4.27732e-14
5.74148e-14
7.72206e-14
1.08019e-13
1.5542e-13
2.31671e-13
3.14706e-13
3.93185e-13
1.1327e-12
4.21514e-12
1.63712e-11
4.57895e-11
7.35829e-11
5.13979e-10
1.64133e-09
4.78976e-09
1.02267e-08
1.76498e-07
8.66199e-15
1.11111e-14
1.41424e-14
1.8045e-14
2.35141e-14
3.27743e-14
4.84737e-14
7.69133e-14
1.32922e-13
2.79982e-13
9.67334e-13
3.91997e-12
1.62688e-11
4.33771e-11
3.35729e-10
1.83262e-09
5.65093e-09
1.13827e-08
5.07706e-09
2.16228e-15
2.84793e-15
3.52294e-15
4.35745e-15
5.64963e-15
7.95962e-15
1.20918e-14
2.07405e-14
4.32029e-14
1.1182e-13
3.16477e-13
1.10444e-12
5.6913e-12
2.61456e-11
1.29813e-10
1.2732e-09
4.52023e-09
1.06393e-08
5.97695e-10
5.40486e-16
7.04389e-16
8.70693e-16
1.09748e-15
1.52366e-15
2.36131e-15
4.0892e-15
7.81221e-15
1.69403e-14
4.38202e-14
1.33886e-13
4.47872e-13
1.75801e-12
1.08374e-11
4.87451e-11
3.73731e-10
2.10333e-09
3.35439e-09
5.96899e-10
1.25434e-16
1.66616e-16
2.10221e-16
2.80301e-16
4.42031e-16
8.2588e-16
1.74647e-15
3.87913e-15
8.84504e-15
2.13789e-14
5.9637e-14
1.87704e-13
6.71369e-13
3.13634e-12
1.54709e-11
8.58225e-11
2.41935e-10
7.09451e-10
4.88171e-10
2.7753e-17
3.62379e-17
4.62143e-17
6.71535e-17
1.25858e-16
2.884e-16
7.42399e-16
1.98457e-15
4.97015e-15
1.20281e-14
2.97431e-14
8.0165e-14
2.27581e-13
8.61088e-13
4.02333e-12
2.0439e-11
6.70006e-11
8.80769e-11
2.40498e-10
5.33394e-18
7.07485e-18
9.51878e-18
1.52548e-17
3.28417e-17
9.26848e-17
2.92928e-16
9.12349e-16
2.63157e-15
6.96095e-15
1.72446e-14
4.24756e-14
1.09156e-13
3.06018e-13
9.94959e-13
3.10289e-12
1.32916e-11
4.05562e-11
6.6169e-11
9.442e-19
1.22994e-18
1.68542e-18
2.85222e-18
6.79601e-18
2.2244e-17
8.35687e-17
3.09192e-16
1.051e-15
3.21749e-15
8.89726e-15
2.27983e-14
5.73009e-14
1.46318e-13
3.99099e-13
1.24323e-12
3.87768e-12
8.89603e-12
1.46762e-11
1.45848e-19
1.81925e-19
2.44637e-19
4.17003e-19
9.90073e-19
3.40243e-18
1.45655e-17
6.3662e-17
2.58545e-16
9.51051e-16
3.13801e-15
9.3765e-15
2.50725e-14
6.3618e-14
1.53626e-13
3.86083e-13
8.72191e-13
1.36683e-12
1.52062e-12
)
;

boundaryField
{
    leftWall
    {
        type            zeroGradient;
    }
    rightWall
    {
        type            zeroGradient;
    }
    lowerWall
    {
        type            zeroGradient;
    }
    atmosphere
    {
        type            inletOutlet;
        inletValue      uniform 0;
        value           nonuniform List<scalar> 
46
(
3.60934e-08
5.18544e-08
2.31273e-08
0
0
0
0
0
0
0
0
0
0
0
0
0
0
0
0
0
0
1.30924e-16
1.9796e-17
3.13028e-19
8.81385e-20
9.71112e-20
1.25349e-19
1.45848e-19
1.81925e-19
2.44637e-19
4.17003e-19
9.90073e-19
3.40243e-18
1.45655e-17
6.3662e-17
2.58545e-16
9.51051e-16
3.13801e-15
9.3765e-15
2.50725e-14
6.3618e-14
1.53626e-13
3.86083e-13
8.72191e-13
1.36683e-12
1.52062e-12
)
;
    }
    defaultFaces
    {
        type            empty;
    }
}


// ************************************************************************* //
