/*--------------------------------*- C++ -*----------------------------------*\
| =========                 |                                                 |
| \\      /  F ield         | OpenFOAM: The Open Source CFD Toolbox           |
|  \\    /   O peration     | Version:  2312                                  |
|   \\  /    A nd           | Website:  www.openfoam.com                      |
|    \\/     M anipulation  |                                                 |
\*---------------------------------------------------------------------------*/
FoamFile
{
    version     2.0;
    format      ascii;
    arch        "LSB;label=32;scalar=64";
    class       volScalarField;
    location    "3.9";
    object      p_rgh;
}
// * * * * * * * * * * * * * * * * * * * * * * * * * * * * * * * * * * * * * //

dimensions      [1 -1 -2 0 0 0 0];

internalField   nonuniform List<scalar> 
2268
(
5112.35
5124.91
5152.14
5194
5250.77
5321.93
5405.76
5499.16
5597.37
5694.05
5781.99
5854.66
5909.08
5945.97
5967.77
5975.73
5972.46
5960.85
5944.6
5927.4
5911.6
5899.27
5892.18
5109.07
5121.58
5148.54
5190.27
5247.09
5318.57
5403.04
5497.47
5597.14
5695.55
5785.07
5858.54
5912.9
5949.64
5970.55
5977.65
5973.4
5960.59
5943.1
5925.05
5908.57
5895.11
5887.34
5103.14
5115.01
5141.36
5182.82
5239.7
5311.74
5397.41
5493.85
5596.44
5698.36
5791.15
5866.31
5920.46
5956.28
5975.98
5981.5
5975.42
5960.29
5940.4
5920.77
5903.05
5887.6
5879.01
5093.96
5105.02
5130.65
5171.83
5228.83
5301.74
5389.1
5488.34
5595.1
5702.19
5800.07
5877.91
5931.67
5966.13
5984.35
5987.66
5979.09
5960.49
5936.82
5914.81
5895.42
5876.88
5867.04
5011.69
5022.98
5069.1
5145.94
5211.63
5287.27
5377.02
5479.84
5592.5
5706.71
5812.07
5893.84
5946.53
5978.66
5995.59
5996.28
5984.68
5961.34
5932.16
5906.93
5885.61
5862.54
5844.8
2547.52
2597.14
2700.09
2875.65
3194.11
3614.26
4094.46
4595.55
5074.03
5485.57
5784.49
5912.22
5966.01
5995.41
6009.65
6004.52
5988.34
5949.71
5875.9
5810.84
5771.36
5692.78
5630.22
1168.69
1168.01
1167.5
1167.7
1172.51
1205.8
1300.55
1504.87
1870.06
2414.49
3100.53
3756.79
4083.4
4258.54
4340.73
4221.05
4073.2
3757.93
3382.41
3141.52
2942.88
2734.23
2630.63
1167.78
1167.15
1166.82
1166.61
1166.24
1165.11
1162.81
1158.99
1154.19
1147.9
1142.46
1158.65
1193.34
1206.26
1154.05
1194.73
1171.8
1170.32
1169.55
1178.61
1190.58
1216.46
1236.76
2708.26
2715.54
2735.06
2747.32
2760.8
2788.9
2839.76
2907.3
2980.48
3042.03
3094.56
3116.68
3125.38
3126.23
3154.3
3232.18
3361.88
3511.35
3644.37
2642.08
2644.68
2682.02
2696.71
2706.78
2737.75
2816.93
2903.68
2981.33
3041.93
3099.16
3123.77
3130.64
3120.9
3141.66
3220.85
3359.79
3521.29
3661.08
1680.78
1651.62
1666.05
1711.5
1777.93
1887.8
2024.02
2204.17
2428.59
2589.67
2645.04
2650.18
2687.89
2668.93
2673.34
2767.46
2964.5
3312.13
3540.22
1165.78
1211.12
1233.25
1220.72
1192.58
1144.18
1121
1131.03
1199.93
1345.6
1655.01
1760.57
1654.82
1551.32
1517.78
1750.8
2280.43
2555.17
2688.33
1163.94
1224.97
1244.7
1233.51
1213.66
1182.15
1149.5
1143.79
1142.38
1139.68
1060.19
1032.31
1067.69
1096.06
1103.79
1094.1
1186.8
1892.68
2675.8
1187.67
1244.87
1244.1
1230.86
1226.22
1220.11
1202.72
1175.25
1167.23
1140.22
1097.25
1078.9
1073.8
1093.11
1101.45
1105.68
1103.77
1065.09
1410.34
1267.4
1386.89
1350.31
1228.72
1186.05
1177.89
1162.73
1146.07
1119.95
1075.24
1075.16
1053.87
1060.53
1103.29
1108.97
1102.69
1092.72
1086.14
990.675
1375.17
1475.84
1461.01
1271.59
1176.26
1164.25
1151.07
1144.86
1080.39
1010.43
1019.58
1015.55
1087.8
1162.73
1110.2
1090.38
1085.38
1088.93
992.184
1164.35
1164.4
1164.23
1163.88
1162.82
1161.13
1158.64
1155.56
1151.95
1148.45
1145.56
1143.77
1136.03
1141.89
1150.8
1162.86
1176.63
1188.94
1198.07
1186.45
1189.06
1199.93
1222.03
1162.15
1161.15
1161.06
1159.36
1157.84
1156.21
1154.52
1152.31
1150.47
1149.25
1149.06
1150.17
1153.87
1165.9
1171.75
1174.78
1181.73
1198.63
1214.14
1219.89
1225.59
1226.9
1222.8
1156.52
1158.48
1153.5
1154.11
1147.2
1142.33
1137.16
1131.28
1128.3
1130.6
1139.55
1146.6
1156.82
1180.56
1188.49
1198.07
1197.71
1201.76
1199.54
1216.51
1229.49
1231.66
1234.84
1066.58
1094.66
1100.8
1057.79
984.229
952.744
942.709
960.505
968.745
968.326
954.306
937.881
935.523
941.09
963.224
995.662
994.477
1018.3
1005.98
1055.6
1131.53
1115
1083.79
731.616
768.101
767.331
734.496
714.345
709.106
684.985
672.591
656.51
654.883
667.57
693.227
707.762
704.589
683.769
685.095
725.465
775.321
804.302
793.861
802.715
794.886
779.091
650.418
665.953
674.143
677.251
680.689
682.934
685.258
687.296
689.318
691.535
695.963
701.361
708.047
715.947
723.513
708.684
718.86
753.42
759.023
763.767
772.973
782.994
787.639
549.906
533.782
543.49
562.809
578.912
590.91
603.607
616.991
632.49
650.182
670.027
689.783
707.247
718.914
726.1
733.556
740.003
745.922
753.091
762.199
775.028
791.142
799.674
47.7967
51.4492
58.9962
69.6115
80.9488
92.4899
104.32
118.018
139.908
173.22
212.674
268.525
347.464
447.148
583.722
690.951
725.974
719.716
715.93
745.29
781.383
792.101
807.58
0.156536
0.158156
0.156251
0.160827
0.212484
0.644436
1.29315
2.51106
2.63929
2.55652
4.16201
10.8886
17.0836
29.5541
38.6265
69.0738
126.926
182.101
303.377
536.166
681.074
746.103
806.302
0.145227
0.146555
0.146232
0.146113
0.146451
0.142317
0.137295
0.133382
0.132702
0.132891
0.116194
0.0931255
0.0807083
0.06305
0.0660554
1.63857
7.38863
8.05683
16.5414
25.1555
37.1822
133.189
373.689
0.134265
0.13491
0.13549
0.136477
0.135346
0.13155
0.125754
0.12693
0.124312
0.121714
0.11923
0.127117
0.129887
0.0984623
0.0499765
0.00321451
0.0416174
0.940281
0.85879
0.558982
0.218471
0.933148
9.8001
0.123518
0.123608
0.124582
0.125486
0.124366
0.122738
0.118476
0.13171
0.122282
0.10418
0.159747
0.166421
0.14702
0.116303
0.0425096
0.0044702
-0.0330281
-0.0916111
-0.0865597
-0.00075004
-0.0564403
-0.182485
-0.112416
0.113237
0.112809
0.112223
0.11335
0.11463
0.118928
0.14611
0.160654
0.105844
0.0856499
0.0784778
0.0958828
0.0397778
0.0201303
0.000754233
-0.0237743
-0.0538766
-0.0862817
-0.121748
-0.146958
-0.166631
-0.204567
-0.0980032
0.103604
0.102902
0.101956
0.101605
0.10246
0.115016
0.173863
0.1684
0.150031
0.110094
0.111382
0.080014
0.0323381
0.013712
-0.00566866
-0.0251744
-0.0494714
-0.0825793
-0.117852
-0.143305
-0.117745
-0.130287
-0.204935
0.0946476
0.0937702
0.0925548
0.0912102
0.0893498
0.0954739
0.147051
0.162784
0.152101
0.15217
0.147863
0.145485
0.0962604
0.0293355
0.00700373
-0.0192772
-0.0219284
-0.0311885
-0.0846285
-0.117845
-0.134617
-0.160147
-0.180147
0.0863373
0.0853394
0.0838126
0.0813671
0.0777127
0.0732056
0.0700787
0.080882
0.0849998
0.0894403
0.118931
0.15372
0.127021
0.07847
0.0426828
0.010168
0.012066
0.0198375
0.00360225
-0.0675819
-0.106619
-0.121149
-0.142011
0.0786513
0.0775692
0.0758475
0.0731671
0.0695813
0.0648298
0.0591681
0.0523904
0.0451505
0.0373469
0.036324
0.0571868
0.0685196
0.0593951
0.0294091
0.00585969
-0.0197244
0.0250815
0.0523924
0.0413342
0.0201719
-0.00364754
-0.0465482
0.071557
0.0704368
0.0686429
0.0659477
0.0624306
0.0579758
0.0526199
0.0464763
0.0397051
0.0321653
0.0238312
0.0140216
0.00559042
-0.00402123
-0.0188075
-0.0312479
-0.0404958
-0.0418812
-0.0334357
-0.023676
-0.00932922
0.0192372
-0.00714652
0.0650316
0.0638962
0.0621115
0.0594744
0.0560826
0.0519016
0.0469208
0.041237
0.0348908
0.0277969
0.0197733
0.0109299
0.00162545
-0.0082234
-0.0183253
-0.0293809
-0.041388
-0.0533424
-0.0647638
-0.0748583
-0.0808847
-0.070996
-0.0609694
0.0590428
0.0579043
0.0561622
0.0536198
0.0503833
0.0464472
0.0418206
0.0365358
0.030624
0.0240769
0.0168865
0.00912902
0.000856437
-0.0078909
-0.0171078
-0.0267265
-0.0366594
-0.0465847
-0.056021
-0.0644486
-0.0715414
-0.0771477
-0.0809403
0.0535549
0.052423
0.0507355
0.0483047
0.0452313
0.0415324
0.0372333
0.0323619
0.0269446
0.0210007
0.0145462
0.00761872
0.000262652
-0.0074755
-0.0155483
-0.0238777
-0.0323256
-0.0406572
-0.0485353
-0.0555891
-0.0615289
-0.0662905
-0.0697578
0.0485242
0.047411
0.0457826
0.0434634
0.0405605
0.037099
0.0331171
0.0286455
0.0237118
0.0183368
0.0125453
0.00636905
-0.000151381
-0.00696884
-0.0140228
-0.0212236
-0.0284375
-0.0354768
-0.0421009
-0.0480475
-0.0531071
-0.0571918
-0.0601942
0.0439092
0.0428133
0.0412507
0.0390474
0.0363154
0.0330936
0.0294253
0.0253428
0.0208727
0.0160363
0.0108583
0.00536848
-0.000395525
-0.00638558
-0.0125381
-0.018765
-0.0249479
-0.0309346
-0.0365416
-0.0415712
-0.0458675
-0.0493583
-0.0519048
0.0396399
0.0385662
0.0370706
0.0349873
0.0324302
0.0294481
0.0260883
0.0223839
0.018359
0.014033
0.00942688
0.00456751
-0.000509867
-0.00575899
-0.0111182
-0.0165064
-0.0218207
-0.026937
-0.0317117
-0.0359913
-0.039652
-0.0426293
-0.0448017
0.035668
0.03461
0.0331828
0.0312204
0.0288399
0.0260978
0.0230439
0.0197096
0.0161137
0.0122706
0.00819705
0.00391663
-0.000538383
-0.0051248
-0.00978582
-0.0144489
-0.0190259
-0.0234144
-0.0274993
-0.0311586
-0.0342935
-0.0368483
-0.0387177
0.0319216
0.0308865
0.0295299
0.0276913
0.025491
0.0229921
0.0202437
0.0172724
0.0140895
0.0107028
0.00712444
0.00337471
-0.000517088
-0.00451153
-0.00855747
-0.0125912
-0.0165373
-0.0203106
-0.0238174
-0.0269597
-0.0296567
-0.0318613
-0.0334872
0.0283656
0.0273431
0.0260633
0.0243547
0.0223412
0.0200916
0.017649
0.0150341
0.0122482
0.00929201
0.00617313
0.00290894
-0.000473928
-0.00393974
-0.00744296
-0.010928
-0.0143304
-0.0175789
-0.0205963
-0.023303
-0.0256331
-0.0275455
-0.028966
0.0249196
0.0239391
0.022745
0.0211755
0.0193579
0.0173681
0.0152306
0.0129646
0.0105595
0.00800809
0.0053144
0.0024936
-0.00042984
-0.00342336
-0.00644653
-0.00945109
-0.0123819
-0.0151786
-0.0177775
-0.0201135
-0.0221321
-0.0237971
-0.025044
0.0216066
0.020642
0.0195527
0.0181365
0.0165345
0.0148062
0.0129723
0.0110426
0.00899992
0.00682825
0.00452679
0.0021099
-0.000399251
-0.0029706
-0.00556804
-0.00814977
-0.0106686
-0.0130736
-0.0153113
-0.0173279
-0.0190785
-0.0205306
-0.0216251
0.0184456
0.0174778
0.0165643
0.0157595
0.0145174
0.0123781
0.0108554
0.00924636
0.00755244
0.005737
0.0037964
0.00174631
-0.00039014
-0.00258426
-0.00480341
-0.00701139
-0.00916805
-0.0112302
-0.0131529
-0.0148918
-0.0164092
-0.0176754
-0.018637
0.0155084
0.0144796
0.0139932
0.0142574
0.0131728
0.0118797
0.0102589
0.007635
0.00620535
0.00472558
0.00311674
0.00139844
-0.000404087
-0.00226205
-0.004145
-0.00602159
-0.00785802
-0.00961808
-0.011264
-0.0127588
-0.0140713
-0.0151738
-0.0160162
0.0126528
0.0116469
0.0116297
0.0122571
0.0123779
0.013213
0.0119191
0.00673221
0.00495948
0.00379315
0.00248842
0.00106827
-0.000437053
-0.00199703
-0.00358201
-0.00516455
-0.00671676
-0.00820893
-0.00960969
-0.0108884
-0.0120188
-0.0129753
-0.0137125
0.0100398
0.00906406
0.00940467
0.0104116
0.0108835
0.011328
0.0104501
0.00587462
0.00382793
0.00295088
0.00191763
0.000761947
-0.000481373
-0.00177902
-0.0031012
-0.0044233
-0.00572287
-0.00697653
-0.00815892
-0.00924472
-0.010212
-0.0110376
-0.011679
0.00763493
0.00675223
0.00742771
0.0081223
0.00778754
0.00924753
0.00805861
0.00340071
0.00284597
0.00221063
0.00141193
0.000485728
-0.000529095
-0.00159712
-0.00268848
-0.00378062
-0.0048556
-0.00589621
-0.00688301
-0.0077957
-0.00861585
-0.0093227
-0.00987818
0.00593116
0.00489956
0.00564865
0.00556293
0.00363381
0.00287948
0.00280519
0.00234749
0.00202789
0.00157734
0.000972238
0.000240984
-0.000575869
-0.0014428
-0.00233115
-0.00322019
-0.00409546
-0.00494531
-0.00575632
-0.00651279
-0.00719975
-0.00779887
-0.00827499
0.00439281
0.00343691
0.00400482
0.00373444
0.00164403
0.00169673
0.00179766
0.00154001
0.00134822
0.0010399
0.000588164
2.05747e-05
-0.000624006
-0.00131283
-0.00202039
-0.00272855
-0.00342541
-0.00410362
-0.00475563
-0.0053706
-0.00593626
-0.00643651
-0.00684099
0.00345763
0.00255755
0.002155
0.00148125
0.000861816
0.00106618
0.000930289
0.000874245
0.000779837
0.000572978
0.00023778
-0.000191941
-0.000683782
-0.00121096
-0.0017534
-0.00229687
-0.00283207
-0.00335438
-0.00386119
-0.00434664
-0.00480112
-0.0052108
-0.00554802
0.00267602
0.00216174
0.0014044
0.000757129
0.000473681
0.000640638
0.000360459
0.000339735
0.000290844
0.000138536
-0.00011025
-0.00042092
-0.000772702
-0.00114804
-0.00153424
-0.00192249
-0.00230686
-0.00268471
-0.00305645
-0.00342145
-0.00377288
-0.00409798
-0.00437356
0.00212773
0.0019099
0.00116565
0.000565885
0.000352894
0.000171931
-3.15242e-05
-0.000110389
-0.000181992
-0.000308119
-0.000488873
-0.000692556
-0.000911509
-0.00113967
-0.00137294
-0.00160905
-0.0018467
-0.00208587
-0.00232878
-0.00257853
-0.00283245
-0.00307844
-0.00329343
0.00140288
0.00145605
0.000870166
0.000526191
0.00028699
-0.000144313
-0.000389898
-0.000557742
-0.00068254
-0.000798908
-0.000916414
-0.00102102
-0.00111324
-0.00119814
-0.00128011
-0.00136377
-0.00145349
-0.00155353
-0.00166857
-0.00180409
-0.00196136
-0.00212922
-0.00228566
0.000713574
0.000896041
0.000566614
0.000474761
6.88074e-05
-0.000427949
-0.000803495
-0.00106154
-0.00123567
-0.00134472
-0.0014005
-0.00140898
-0.00137967
-0.00132628
-0.0012603
-0.00119221
-0.00113166
-0.00108788
-0.00106997
-0.00108728
-0.00114581
-0.00123959
-0.00133618
0.00016243
0.000200906
0.000246678
0.000173605
-0.000423259
-0.000974758
-0.00141943
-0.00173959
-0.00193922
-0.00202368
-0.00200559
-0.00190763
-0.00174993
-0.00155376
-0.00133657
-0.00111336
-0.000897347
-0.00070094
-0.000536738
-0.000419405
-0.000361585
-0.000357063
-0.000414652
1211.82
1199.51
1197.84
1187.75
1214.08
1199.33
1188.26
1174.77
1220.61
1181.16
1162.49
1150.76
1006.24
851.562
767.263
785.345
777.122
775.276
780.509
806.096
790.18
793.148
795.53
795.963
803.649
803.849
805.021
806.397
815.52
816.759
815.587
817.563
821.764
824.431
826.368
830.087
581.343
665.436
731.424
805.032
20.9474
23.8821
61.5944
174.717
-0.139169
-0.309967
0.776303
2.57202
0.109675
0.109918
-0.186267
-0.309538
-0.227345
-0.244638
-0.260049
-0.287886
-0.195069
-0.200336
-0.206167
-0.218955
-0.158014
-0.162899
-0.168036
-0.172722
-0.127318
-0.133697
-0.136771
-0.140759
-0.0701335
-0.111839
-0.113279
-0.114585
-0.0741286
-0.0946125
-0.0955031
-0.0955072
-0.0814552
-0.0808808
-0.0814456
-0.0813606
-0.0710776
-0.0712733
-0.0711217
-0.07068
-0.0613245
-0.061719
-0.0617523
-0.0614085
-0.0528904
-0.0532564
-0.0533452
-0.0531397
-0.045658
-0.0459744
-0.0460591
-0.0459387
-0.0394748
-0.0397619
-0.0398518
-0.0397831
-0.0341608
-0.0344239
-0.0345213
-0.0344846
-0.0295711
-0.0298164
-0.0299204
-0.0299127
-0.0255875
-0.0258155
-0.0259244
-0.0259396
-0.0221147
-0.0223276
-0.0224391
-0.0224731
-0.0190763
-0.0192735
-0.0193863
-0.0194355
-0.0164102
-0.0165927
-0.0167042
-0.0167643
-0.014064
-0.014231
-0.0143392
-0.014406
-0.0119916
-0.0121437
-0.0122464
-0.0123163
-0.0101538
-0.0102906
-0.0103869
-0.0104568
-0.00851659
-0.00863878
-0.00872726
-0.00879474
-0.00705016
-0.00715743
-0.00723716
-0.00729976
-0.00572676
-0.00581957
-0.00588946
-0.00594564
-0.00452257
-0.00460042
-0.00465938
-0.00470538
-0.00341086
-0.0034728
-0.00351987
-0.0035573
-0.00237371
-0.00242092
-0.00245686
-0.00248441
-0.0013925
-0.00142338
-0.0014457
-0.00146169
-0.000448806
-0.000467416
-0.000479998
-0.000487292
1248.98
1475.23
1402.64
1217.06
1166.06
1154.92
1142.43
1138.82
1066.82
1104.93
1051.89
1034.2
1044.2
1128.06
1080.69
1085.59
1084.17
1104.87
1074.14
1128.36
944.318
979.542
1062.67
1140.86
1170.26
1096.21
1012.84
964.305
938.823
948.554
948.252
942.717
936.029
982.544
1049.86
1114.79
1145.89
1135.61
941.258
790.732
843.434
936.155
963.426
950.976
903.656
887.504
893.661
816.073
844.545
868.112
845.27
846.103
843.595
867.063
885.934
938.886
1027.02
827.294
797.43
814.583
891.952
904.301
853.636
889.935
872.582
863.175
807.27
799.651
781.57
786.501
789.844
774.353
775.788
801.993
788.917
813.043
833.75
815.848
807.171
803.906
871.412
783.491
827.742
796.089
772.822
763.752
766.329
765.489
757.375
747.01
740.308
717.042
719.339
760.079
756.071
838.042
823.675
802.148
791.349
777.23
755.583
738.905
722.05
711.173
734.742
753.485
750.925
745.341
742.486
738.872
730.317
759.077
769.458
736.237
847.332
836.566
803.118
786.604
772.601
763.158
754.757
750.754
756.885
775.738
765.103
756.666
747.196
741.579
751.48
767.402
731.478
687.633
679.806
879.301
892.21
817.56
788.758
770.812
738.413
678.69
641.296
648.771
650.027
659.969
653.664
630.871
587.652
513.764
402.083
313.021
240.089
183.978
892.175
799.731
669.198
494.849
337.879
194.321
127.524
116.94
122.285
131.59
143.937
138.659
119.794
95.1996
72.61
69.8434
55.4625
30.1662
28.8636
815.297
474.309
189.689
129.3
10.0193
6.79761
10.8676
7.70001
3.89966
5.78937
10.3271
14.4041
8.25424
1.25042
0.412318
0.38636
0.398368
0.460395
0.476243
147.324
139.06
132.201
34.6536
1.00061
0.538939
0.403471
0.331841
0.317185
0.297774
0.285854
0.237324
0.242619
0.306667
0.438829
0.500355
0.491223
0.53954
0.494426
8.80495
9.03997
0.721241
-0.000930833
0.11223
0.342748
0.393138
0.355355
0.265697
0.261146
0.25969
0.22029
0.315548
0.893868
0.964758
0.975147
0.97037
0.931629
0.75761
-0.391974
-0.477275
-0.446745
-0.122067
0.10938
0.250989
0.300739
0.272553
0.290919
0.235664
0.187541
0.192732
0.618626
0.912378
0.914459
0.688156
0.317344
0.322907
0.350473
-0.349604
-0.373659
-0.33781
0.0040658
0.223214
0.201958
0.129094
0.115188
0.174636
0.18916
0.16983
0.28151
0.566206
0.579331
0.365544
0.202228
0.199973
0.225882
0.314551
-0.244717
-0.27158
-0.215282
0.138681
0.283606
0.209837
0.00995637
0.0362393
0.0547768
0.0800033
0.0884856
0.173027
0.201254
0.23568
0.291847
0.225287
0.180234
0.204044
0.403714
-0.180169
-0.18392
-0.160119
0.0757141
0.21003
0.202945
0.0602579
0.0488739
0.0617311
0.0503918
0.0749029
0.0539405
0.0504769
0.0578722
0.0800484
0.234419
0.282308
0.193665
0.39686
-0.14473
-0.135474
-0.105808
-0.0702201
0.0309201
0.146964
0.144345
0.094295
0.0730909
0.149027
0.18709
0.18669
0.152367
0.0664575
0.0695385
0.144734
0.281817
0.384762
0.385208
-0.116632
-0.115317
-0.103052
-0.0869861
-0.0219513
0.0125383
0.0607404
0.0756083
0.0925233
0.136143
0.220434
0.269188
0.225023
0.168884
0.0680006
0.128331
0.278026
0.520289
0.255801
-0.0953541
-0.0941677
-0.0906828
-0.0829295
-0.0420569
0.0183901
0.0371974
0.0522937
0.0385487
0.084863
0.0955548
0.245185
0.250515
0.261249
0.103011
0.157241
0.338728
0.493189
0.0899778
-0.0806675
-0.0787385
-0.0747363
-0.0681589
-0.0581442
-0.0252243
0.0103278
0.00854607
-0.00814591
0.0388382
0.0913286
0.198649
0.266827
0.258299
0.130387
0.222705
0.353616
0.293736
0.0745033
-0.0696713
-0.0673552
-0.0632483
-0.0576087
-0.050158
-0.0412433
-0.0313634
-0.0210808
-0.0116928
-0.00172901
0.0436319
0.119108
0.236406
0.225628
0.100713
0.219397
0.360513
0.112201
0.053502
-0.0606324
-0.05842
-0.0547061
-0.0499901
-0.0440387
-0.0370022
-0.027392
-0.018955
-0.0110366
-0.00642175
-0.00496863
0.00723874
0.0960343
0.0710912
0.0467798
0.140899
0.264845
0.137692
0.0428194
-0.0526225
-0.050843
-0.0477958
-0.0437761
-0.0388289
-0.032987
-0.0258081
-0.018454
-0.0128414
-0.00980257
-0.00659972
-0.00299751
0.000618648
0.00684314
0.0234739
0.0204907
0.219619
0.130723
0.0368095
-0.0455879
-0.0441626
-0.0417048
-0.0383732
-0.034327
-0.0297175
-0.0248123
-0.019607
-0.0151834
-0.0111796
-0.00749799
-0.00410139
-0.000299441
0.00547424
0.0124866
0.0222994
0.085007
0.0621591
0.029805
-0.0395195
-0.0383802
-0.0363904
-0.0336682
-0.0303551
-0.0266036
-0.0226357
-0.0186119
-0.014769
-0.0111311
-0.00782146
-0.0046001
-0.000863607
0.0049329
0.00889842
0.028153
0.0169202
0.0219135
0.0247144
-0.0342983
-0.033393
-0.0317809
-0.0295551
-0.0268299
-0.0237341
-0.0204251
-0.0170698
-0.0138221
-0.0107016
-0.00771119
-0.0046613
-0.00123919
0.0038996
0.00731923
0.0237241
0.0150823
0.0175268
0.0202418
-0.0297938
-0.0290762
-0.0277701
-0.025945
-0.0236954
-0.0211301
-0.0183727
-0.0155505
-0.0127671
-0.0100494
-0.00734884
-0.00448579
-0.00137059
0.00224941
0.00595622
0.00990404
0.0125007
0.0150848
0.017267
-0.0258737
-0.0253164
-0.0242606
-0.0227614
-0.0208976
-0.0187594
-0.0164447
-0.0140483
-0.0116428
-0.00925242
-0.00682925
-0.00424486
-0.00141279
0.00147397
0.00518193
0.00785324
0.0103905
0.0130847
0.0145506
-0.0224512
-0.0220235
-0.0211717
-0.0199385
-0.0183888
-0.0165966
-0.0146395
-0.0125892
-0.0104996
-0.00839215
-0.00623912
-0.00395398
-0.00146726
0.0010886
0.00436709
0.00673065
0.00954436
0.0110457
0.0127707
-0.0194493
-0.0191258
-0.0184389
-0.017423
-0.0161302
-0.0146209
-0.0129573
-0.0111952
-0.00937627
-0.00752159
-0.00562243
-0.00363064
-0.00150111
0.0007071
0.00345271
0.00613715
0.00795074
0.00897531
0.015942
-0.0168053
-0.0165648
-0.0160107
-0.0151724
-0.0140908
-0.0128154
-0.0113962
-0.00987836
-0.00829603
-0.00666948
-0.00500245
-0.00327614
-0.0014642
0.000387991
0.00244909
0.00624511
0.00666495
0.00730882
0.0168091
-0.0144662
-0.0142905
-0.0138447
-0.0131518
-0.0122451
-0.0111648
-0.00995196
-0.00864377
-0.00726958
-0.0058492
-0.00439351
-0.00289714
-0.00129559
0.000410274
0.00194905
0.00601833
0.0126812
0.00638091
0.0170328
-0.0123885
-0.0122631
-0.0119048
-0.0113315
-0.0105706
-0.00965514
-0.0086188
-0.00749293
-0.00630279
-0.00506802
-0.00380452
-0.00251227
-0.00100902
0.00328608
0.0130455
0.0114573
0.0137832
0.0136694
0.0223237
-0.0105352
-0.0104478
-0.0101599
-0.00968534
-0.00904724
-0.00827274
-0.00739002
-0.00642531
-0.00540011
-0.00433286
-0.00324308
-0.00214017
-0.000811083
0.00416424
0.017541
0.0197425
0.0136669
0.01424
0.0154541
-0.00887435
-0.00881561
-0.00858259
-0.00818999
-0.00765628
-0.00700389
-0.00625678
-0.00543738
-0.00456432
-0.00365144
-0.00271305
-0.00177707
-0.000776592
0.00134406
0.0144074
0.0191004
0.0197228
0.0138296
0.0129983
-0.00737598
-0.00733573
-0.00714792
-0.00682432
-0.00638035
-0.00583514
-0.00520922
-0.00452217
-0.00379046
-0.00302534
-0.00223188
-0.00142257
-0.00063562
0.000271315
0.00291229
0.0184445
0.0201997
0.0235116
0.0109039
-0.00601345
-0.00598518
-0.00583433
-0.00556931
-0.0052036
-0.00475371
-0.00423724
-0.00367133
-0.00307122
-0.00244832
-0.0018057
-0.001132
-0.000435326
0.000140355
0.000961421
0.00640827
0.0164555
0.0092905
0.00511323
-0.0047629
-0.00474304
-0.00462235
-0.00440804
-0.00411193
-0.00374824
-0.00333186
-0.00287744
-0.00239865
-0.00190695
-0.00140759
-0.000890862
-0.000319237
0.000255486
0.000580075
0.00104515
0.00155709
0.00241603
0.00116094
-0.00360403
-0.00358925
-0.00349427
-0.00332545
-0.00309311
-0.00280916
-0.00248577
-0.00213488
-0.00176812
-0.00139631
-0.00102782
-0.000662574
-0.00028103
0.000217186
0.000536077
0.000492267
0.000659782
0.000764145
0.00090161
-0.0025182
-0.00250611
-0.00243437
-0.00230869
-0.00213729
-0.00192954
-0.00169451
-0.00144123
-0.00117879
-0.000916498
-0.000663059
-0.000423066
-0.00018675
9.95921e-05
0.000506916
0.000575203
0.000392471
0.000497782
0.000805767
-0.00148167
-0.00147286
-0.00142659
-0.00134635
-0.00123709
-0.00110604
-0.00095881
-0.000801111
-0.00063913
-0.000479929
-0.000331481
-0.000200294
-8.62821e-05
3.72048e-05
0.000297157
0.000482143
0.000417916
0.000332198
0.000510545
-0.000495104
-0.000490246
-0.000467689
-0.000431757
-0.000386852
-0.000333939
-0.000275026
-0.00021202
-0.000147743
-8.73231e-05
-3.87374e-05
-1.24327e-05
-1.62409e-05
-4.66993e-05
-7.65895e-05
4.49289e-05
0.000125428
9.55955e-05
-0.000137075
)
;

boundaryField
{
    leftWall
    {
        type            fixedFluxPressure;
        gradient        uniform 0;
        value           nonuniform List<scalar> 
50
(
5112.35
5109.07
5103.14
5093.96
5011.69
2547.52
1168.69
1167.78
1164.35
1162.15
1156.52
1066.58
731.616
650.418
549.906
47.7967
0.156536
0.145227
0.134265
0.123518
0.113237
0.103604
0.0946476
0.0863373
0.0786513
0.071557
0.0650316
0.0590428
0.0535549
0.0485242
0.0439092
0.0396399
0.035668
0.0319216
0.0283656
0.0249196
0.0216066
0.0184456
0.0155084
0.0126528
0.0100398
0.00763493
0.00593116
0.00439281
0.00345763
0.00267602
0.00212773
0.00140288
0.000713574
0.00016243
)
;
    }
    rightWall
    {
        type            fixedFluxPressure;
        gradient        uniform 0;
        value           nonuniform List<scalar> 
50
(
3644.37
3661.08
3540.22
2688.33
2675.8
1410.34
990.675
992.184
1074.14
1135.61
1027.02
813.043
756.071
736.237
679.806
183.978
28.8636
0.476243
0.494426
0.75761
0.350473
0.314551
0.403714
0.39686
0.385208
0.255801
0.0899778
0.0745033
0.053502
0.0428194
0.0368095
0.029805
0.0247144
0.0202418
0.017267
0.0145506
0.0127707
0.015942
0.0168091
0.0170328
0.0223237
0.0154541
0.0129983
0.0109039
0.00511323
0.00116094
0.00090161
0.000805767
0.000510545
-0.000137075
)
;
    }
    lowerWall
    {
        type            fixedFluxPressure;
        gradient        uniform 0;
        value           nonuniform List<scalar> 
62
(
5112.35
5124.91
5152.14
5194
5250.77
5321.93
5405.76
5499.16
5597.37
5694.05
5781.99
5854.66
5909.08
5945.97
5967.77
5975.73
5972.46
5960.85
5944.6
5927.4
5911.6
5899.27
5892.18
5892.18
5887.34
5879.01
5867.04
5844.8
5630.22
2630.63
1236.76
1211.82
1199.51
1197.84
1187.75
2708.26
2642.08
1680.78
1165.78
1163.94
1187.67
1267.4
1375.17
2708.26
2715.54
2735.06
2747.32
2760.8
2788.9
2839.76
2907.3
2980.48
3042.03
3094.56
3116.68
3125.38
3126.23
3154.3
3232.18
3361.88
3511.35
3644.37
)
;
    }
    atmosphere
    {
        type            totalPressure;
        rho             rho;
        psi             none;
        gamma           1;
        p0              uniform 0;
        value           nonuniform List<scalar> 
46
(
0
0
0
-0.000242153
-0.000914975
-0.00153904
-0.00199982
-0.00230967
-0.00248607
-0.00252811
-0.00244622
-0.00227168
-0.00203115
-0.00174961
-0.00144702
-0.0011398
-0.000841572
-0.000564368
-0.000320687
-0.000129576
-2.06067e-05
0
0
0
0
0
0
0
0
0
0
0
0
0
0
0
0
0
0
0
0
0
0
0
0
0
)
;
    }
    defaultFaces
    {
        type            empty;
    }
}


// ************************************************************************* //
