/*--------------------------------*- C++ -*----------------------------------*\
| =========                 |                                                 |
| \\      /  F ield         | OpenFOAM: The Open Source CFD Toolbox           |
|  \\    /   O peration     | Version:  2312                                  |
|   \\  /    A nd           | Website:  www.openfoam.com                      |
|    \\/     M anipulation  |                                                 |
\*---------------------------------------------------------------------------*/
FoamFile
{
    version     2.0;
    format      ascii;
    arch        "LSB;label=32;scalar=64";
    class       volScalarField;
    location    "5.1";
    object      alpha.oil;
}
// * * * * * * * * * * * * * * * * * * * * * * * * * * * * * * * * * * * * * //

dimensions      [0 0 0 0 0 0 0];

internalField   nonuniform List<scalar> 
2268
(
9.25317e-10
9.31967e-10
1.16369e-09
5.11308e-09
9.54903e-09
8.36541e-09
4.83561e-09
3.31312e-09
2.29778e-09
1.72115e-09
1.37082e-09
1.18252e-09
1.197e-09
1.39008e-09
2.15647e-09
3.72471e-09
6.14361e-09
7.4851e-09
7.66424e-09
1.11002e-05
4.12481e-05
4.12379e-05
4.11575e-05
2.08243e-09
9.31427e-10
9.0228e-09
4.18459e-08
6.08629e-08
6.25587e-08
4.12203e-08
9.1463e-09
5.35143e-09
4.6117e-09
3.59399e-09
2.99464e-09
2.86908e-09
3.15393e-09
9.07237e-09
4.06593e-08
8.20688e-08
8.12019e-08
5.33217e-08
1.11564e-06
9.88679e-06
2.11944e-05
1.72823e-05
8.36626e-09
3.81165e-09
1.06539e-08
5.41656e-08
6.51078e-08
6.2607e-08
4.10224e-08
7.54462e-09
5.24728e-09
4.74203e-09
3.8212e-09
3.51994e-09
3.01543e-09
2.66105e-09
2.66677e-09
1.21602e-07
2.23488e-07
2.23682e-07
1.61426e-07
2.9955e-08
4.93303e-09
1.33025e-09
1.34528e-09
3.71497e-09
3.0241e-09
4.55656e-09
1.18518e-08
2.04631e-08
1.01922e-08
2.95659e-09
2.9585e-09
3.01039e-09
3.08825e-09
2.63462e-09
2.4091e-09
2.49736e-09
2.41871e-09
2.28359e-06
6.05532e-08
6.03041e-08
6.06259e-08
6.04329e-08
5.73948e-08
5.18434e-08
4.34418e-08
7.11923e-09
2.67632e-09
2.65244e-09
2.66851e-09
2.65244e-09
2.67632e-09
2.66244e-09
1.01167e-06
3.80747e-09
6.32274e-06
1.97786e-05
1.89107e-05
5.55909e-05
0.000161365
0.000116495
9.61989e-05
0.00111762
0.00505732
0.00964155
0.0121686
0.0107632
0.0123416
0.00906232
0.000374561
0.00277501
0.00311435
0.00345889
0.00312767
0.00103012
5.38534e-05
1.79535e-05
0.000164349
0.00050139
0.000533602
0.000493923
0.00070704
0.000877997
0.000657737
9.5219e-05
0.0103537
0.0547076
0.0856757
0.0864075
0.0834523
0.0830179
0.0788992
0.0302411
0.00515628
0.00515307
0.00515628
0.00515307
0.00507937
0.00190425
0.000170737
0.000162689
0.000424664
0.000614898
0.0006545
0.000808312
0.000838054
0.000560886
0.000113578
0.0081273
0.0476893
0.0818092
0.0858027
0.0800759
0.0761736
0.0774056
0.0594693
0.00179322
0.00194862
0.00248071
0.00282519
0.00196698
0.00127146
0.000659486
0.000286894
6.61529e-05
9.71674e-05
0.00013028
0.000131825
0.000132366
0.000123599
0.000135271
0.000156233
0.000160521
0.000188445
0.0126611
0.00989458
0.000332154
0.00972587
0.0594308
0.0272413
0.0288874
0.0286093
0.0273583
0.0265197
0.0265197
0.0265197
0.0265197
0.0266396
0.0266921
0.0265256
0.0265212
0.0265215
0.0265212
0.0272783
0.0275055
0.0267716
0.0267713
0.0267713
0.0378061
0.0663567
0.0658767
0.0596504
0.0564157
0.0576949
0.0581217
0.0568136
0.0576622
0.0571797
0.054751
0.0483724
0.0453604
0.0468099
0.0488841
0.0479283
0.0284843
0.0267713
0.0267713
0.243535
0.249303
0.249311
0.215483
0.186543
0.196493
0.217682
0.225449
0.236084
0.235938
0.242415
0.277679
0.346187
0.397343
0.432826
0.446753
0.384923
0.216908
0.137509
0.243636
0.115826
0.144407
0.157067
0.095382
0.0690593
0.0676974
0.0727704
0.0807154
0.0670817
0.0459054
0.057699
0.107488
0.281729
0.48925
0.497989
0.497975
0.432434
0.392634
0.222561
0.0076063
0.00401282
0.00481768
0.00340736
0.00314598
0.00529881
0.00625926
0.00474401
0.00468855
0.00328603
0.0032799
0.00372878
0.00918851
0.407275
0.215063
0.169348
0.192438
0.393084
0.0817289
0.0188325
0.0052151
0.00597089
0.00690293
0.0031458
0.00320239
0.00563434
0.0112166
0.0183754
0.00328376
0.0033962
0.0035621
0.00971675
0.240322
0.0402014
0.0392179
0.0449904
0.393079
0.0202237
0.0144591
0.00427035
0.00771663
0.0252215
0.0112446
0.00325497
0.0043087
0.0242696
0.0619534
0.0613415
0.0212163
0.0360614
0.00966005
0.0195324
0.0342843
0.0360223
0.0515886
0.283973
0.0145919
0.00437195
0.00370713
0.00370717
0.0175548
0.0619347
0.0237778
0.0135185
0.0213281
0.0943071
0.216514
0.0838682
0.175706
0.133315
0.0271106
0.092863
0.0308359
0.0234097
0.0582414
0.000110452
7.24773e-05
5.92297e-05
5.98444e-05
5.98594e-05
6.63948e-05
6.67183e-05
3.19502e-05
1.00143e-05
3.4014e-24
-5.33839e-21
-8.96725e-19
4.6183e-06
9.17049e-07
7.81611e-14
5.12137e-06
5.27301e-06
6.98173e-11
-7.54742e-28
-3.66687e-22
0.000145904
0.00080322
0.00502974
4.30556e-09
1.19752e-10
4.03784e-09
4.94562e-11
4.02048e-09
4.83875e-11
4.02338e-09
0.000182943
2.00621e-11
-5.79886e-20
-3.4443e-21
-1.56327e-20
-2.74191e-09
-7.57252e-10
-2.02714e-16
-4.5434e-09
-4.16779e-09
-8.15819e-14
-2.09362e-17
1.42378e-20
1.67831e-20
1.59941e-16
4.5688e-07
0.411801
0.455124
0.488741
0.607133
0.691643
0.673311
0.553359
0.422794
0.348422
0.364308
0.367035
0.331539
0.277433
0.28117
0.294041
0.296853
0.277799
0.271621
0.317081
0.390268
0.361109
0.275686
0.149438
0.964965
0.981535
0.976597
0.977688
0.991287
0.994714
0.993928
0.954485
0.92312
0.922806
0.923659
0.929583
0.944205
0.951081
0.949519
0.933151
0.923725
0.934125
0.979474
0.990214
0.979142
0.934971
0.775756
0.999747
0.999548
0.994948
0.983922
0.993304
0.999629
0.945708
0.923397
0.92311
0.950527
0.996907
0.999655
0.999777
0.999777
0.999779
0.999778
0.999779
0.999777
0.999253
0.99727
0.996121
0.974668
0.967972
0.999747
0.999382
0.999747
0.997417
0.999291
0.999626
0.997342
0.99304
0.997693
0.999773
0.999773
0.999775
0.999775
0.999747
0.999565
0.999733
0.999764
0.99977
0.999569
0.996775
0.998066
0.998714
0.998655
0.999747
0.999747
0.999747
0.999652
0.999539
0.999464
0.999301
0.999433
0.999549
0.999563
0.999567
0.9997
0.999775
0.999754
0.998002
0.993112
0.994374
0.99886
0.999477
0.993867
0.990696
0.997541
0.999198
0.930263
0.92908
0.926252
0.917968
0.895498
0.859122
0.823666
0.79067
0.757636
0.723273
0.689293
0.665573
0.667633
0.688097
0.72327
0.760269
0.825031
0.915505
0.986449
0.99374
0.983284
0.991247
0.999196
0.21546
0.213171
0.205826
0.192304
0.163349
0.12292
0.0879732
0.0618708
0.0417677
0.0256384
0.0127997
0.0047946
0.0053048
0.0131058
0.028297
0.050139
0.0801999
0.133718
0.287395
0.670138
0.964241
0.977932
0.991337
-5.38724e-28
-1.16699e-27
1.11421e-28
1.10377e-28
6.18659e-27
1.51265e-10
1.46241e-08
7.9582e-09
3.50461e-09
1.17501e-08
7.72538e-08
2.06618e-07
5.72903e-11
3.95776e-24
2.16371e-24
-2.52687e-10
-2.86294e-09
-1.48239e-11
-8.04766e-14
0.00985895
0.138785
0.447133
0.701776
2.75047e-09
6.35663e-10
4.4129e-13
1.1223e-09
3.84157e-08
1.42661e-07
1.92332e-07
1.27197e-07
2.76386e-08
8.05133e-08
5.68256e-07
8.78238e-06
6.13736e-06
3.13999e-06
3.12949e-06
3.281e-06
1.79526e-06
6.47864e-08
1.65579e-09
3.67487e-13
6.36056e-13
0.0024157
0.0321313
1.57813e-08
6.77863e-09
4.80347e-09
4.12106e-08
1.56642e-07
3.09982e-07
3.06525e-07
1.15203e-07
2.36753e-08
1.75021e-06
2.42455e-05
4.25335e-05
4.06454e-05
6.84158e-06
1.0654e-05
2.65601e-05
2.57883e-05
1.0585e-05
3.01269e-07
3.10366e-07
1.6223e-07
4.43762e-12
1.66285e-19
2.03689e-08
2.03593e-08
4.07603e-08
1.94604e-07
3.5181e-07
3.51784e-07
1.17627e-07
5.35849e-08
5.2412e-08
2.75591e-05
4.25335e-05
4.25732e-05
4.24421e-05
3.125e-05
3.91665e-05
3.93107e-05
3.93364e-05
1.0179e-05
2.52608e-08
9.4527e-08
2.96388e-07
2.97096e-07
2.17841e-07
2.00986e-08
4.84542e-08
7.86149e-08
2.36316e-07
3.51784e-07
2.83792e-07
4.75434e-08
4.76715e-08
1.27899e-06
3.15305e-05
4.25718e-05
2.76357e-05
1.26167e-05
2.92069e-05
3.30069e-05
3.46453e-05
2.01818e-05
8.31747e-09
8.61331e-09
9.73149e-08
1.23939e-07
3.6405e-08
2.44274e-08
1.56522e-08
5.21026e-08
9.83648e-08
1.56756e-07
2.10703e-07
8.85953e-08
4.8286e-08
5.47355e-08
2.05497e-07
1.31973e-06
7.00359e-06
2.8756e-08
3.19914e-09
3.41413e-09
1.24797e-05
1.53038e-05
8.0936e-09
8.25169e-09
4.19082e-08
2.04778e-07
6.1947e-07
1.15013e-07
3.21305e-06
1.32756e-08
3.17218e-08
5.74733e-08
3.29417e-08
2.01888e-08
2.4324e-08
5.97249e-08
7.85787e-08
4.9508e-08
4.00578e-09
4.78109e-09
7.81444e-09
1.69355e-08
2.15363e-08
7.54056e-09
7.50773e-09
8.04202e-09
8.11774e-09
3.00393e-08
1.03361e-05
2.15019e-05
2.1502e-05
2.15019e-05
9.31635e-09
1.86926e-08
2.24038e-08
1.54171e-08
1.4874e-08
1.7294e-08
3.43843e-08
3.13016e-08
6.97349e-09
4.3035e-09
8.07769e-09
1.82147e-08
2.49003e-08
1.82615e-08
9.70344e-09
9.05803e-09
8.60485e-09
8.19198e-09
1.06933e-06
1.79938e-05
2.1502e-05
2.15019e-05
2.1502e-05
6.99761e-09
1.32415e-08
1.49804e-08
1.52875e-08
1.38499e-08
1.06344e-08
6.37864e-09
3.72503e-09
3.75677e-09
4.75384e-09
8.63563e-09
1.69194e-08
2.17777e-08
1.64543e-08
1.01224e-08
1.03715e-08
1.17566e-08
9.13992e-09
9.13343e-09
4.10584e-07
1.41241e-05
2.1502e-05
2.13266e-05
4.25171e-09
1.16362e-08
1.39622e-08
1.42239e-08
1.16009e-08
7.67764e-09
4.65803e-09
3.84295e-09
3.5713e-09
3.63119e-09
3.78201e-09
4.55807e-09
6.3275e-09
7.68162e-09
9.70761e-09
1.09022e-08
1.21481e-08
1.21454e-08
1.25335e-08
1.4666e-08
5.57483e-08
5.37275e-06
1.57014e-05
3.93426e-09
9.46812e-09
1.20725e-08
1.18267e-08
9.83146e-09
7.30774e-09
4.95891e-09
3.64139e-09
2.85195e-09
2.40363e-09
2.15588e-09
1.9394e-09
2.04395e-09
3.06364e-09
4.50808e-09
5.85396e-09
6.63806e-09
5.92296e-09
5.4403e-09
1.61515e-08
7.92905e-08
1.1255e-07
9.12531e-07
3.21818e-09
7.11489e-09
8.48481e-09
7.92892e-09
6.40958e-09
4.80239e-09
3.33851e-09
2.35748e-09
1.78529e-09
1.47695e-09
1.33741e-09
1.33597e-09
1.49161e-09
1.82064e-09
2.34649e-09
2.99417e-09
3.46849e-09
3.68829e-09
5.38197e-09
2.45871e-08
1.57012e-07
2.55742e-07
2.1365e-07
3.09524e-09
5.60505e-09
5.97618e-09
5.06328e-09
3.88408e-09
2.729e-09
1.83321e-09
1.31757e-09
9.90932e-10
8.14401e-10
7.3892e-10
7.54597e-10
8.64196e-10
1.06787e-09
1.37886e-09
1.79878e-09
2.21974e-09
2.56379e-09
2.93913e-09
5.8655e-09
3.74677e-08
2.70974e-07
3.03812e-07
2.84612e-09
4.09629e-09
4.01708e-09
3.2249e-09
2.36723e-09
1.62751e-09
1.10698e-09
7.9384e-10
6.01109e-10
4.75229e-10
4.08309e-10
4.00776e-10
4.58564e-10
5.85134e-10
7.97678e-10
1.08318e-09
1.45543e-09
1.89989e-09
2.47934e-09
3.53205e-09
8.11695e-09
4.5593e-08
1.77186e-07
2.72794e-09
3.28694e-09
3.01194e-09
2.33295e-09
1.6016e-09
1.06295e-09
7.39156e-10
5.8415e-10
4.58762e-10
3.58535e-10
2.79792e-10
2.36596e-10
2.4014e-10
2.95069e-10
4.11951e-10
5.88767e-10
8.4268e-10
1.18045e-09
1.66745e-09
2.47901e-09
3.90054e-09
5.29559e-09
2.36504e-08
2.57706e-09
2.62649e-09
2.3125e-09
1.78471e-09
1.1725e-09
8.09759e-10
6.63231e-10
5.65678e-10
4.5995e-10
3.5879e-10
2.64402e-10
1.91711e-10
1.54551e-10
1.58634e-10
2.08288e-10
3.01506e-10
4.45015e-10
6.50311e-10
9.27474e-10
1.39538e-09
2.03569e-09
3.25352e-09
4.91959e-09
2.48958e-09
2.27578e-09
2.02939e-09
1.63352e-09
1.13622e-09
7.88585e-10
7.12622e-10
6.25927e-10
5.05462e-10
4.01172e-10
2.9341e-10
1.99202e-10
1.32844e-10
1.01989e-10
1.08101e-10
1.49023e-10
2.24468e-10
3.34532e-10
4.87319e-10
7.08013e-10
1.06882e-09
1.54902e-09
2.38553e-09
2.45565e-09
2.13312e-09
2.00237e-09
1.90665e-09
1.34782e-09
8.08987e-10
8.26453e-10
7.12614e-10
5.41071e-10
4.37069e-10
3.26783e-10
2.23503e-10
1.40354e-10
8.68104e-11
6.59414e-11
7.47671e-11
1.09463e-10
1.68085e-10
2.52435e-10
3.70337e-10
5.09448e-10
7.79739e-10
1.13211e-09
2.46492e-09
2.13005e-09
2.22335e-09
2.51925e-09
1.90682e-09
8.82668e-10
1.01582e-09
8.12711e-10
5.46438e-10
4.42327e-10
3.4116e-10
2.4162e-10
1.54211e-10
8.97035e-11
5.28789e-11
4.26604e-11
5.45021e-11
8.49499e-11
1.34054e-10
1.9824e-10
2.99247e-10
4.23268e-10
5.83922e-10
2.51068e-09
2.22749e-09
2.53691e-09
3.16494e-09
2.86398e-09
1.02977e-09
1.75724e-09
8.31149e-10
4.79245e-10
4.03648e-10
3.26544e-10
2.40903e-10
1.60305e-10
9.48725e-11
5.15107e-11
3.10607e-11
3.00347e-11
4.48941e-11
7.33817e-11
1.19195e-10
1.80724e-10
2.65106e-10
3.79036e-10
2.59041e-09
2.45389e-09
2.69113e-09
2.97879e-09
3.44068e-09
2.30083e-09
3.60605e-09
6.91049e-10
3.96209e-10
3.53854e-10
2.85578e-10
2.19616e-10
1.52511e-10
9.45306e-11
5.1993e-11
2.74412e-11
1.96766e-11
2.56513e-11
4.24537e-11
7.13565e-11
1.18757e-10
1.87868e-10
2.6252e-10
3.05206e-09
5.36132e-09
1.29314e-08
1.35067e-08
4.65687e-09
9.23709e-09
1.09111e-08
3.59589e-10
3.35003e-10
2.95873e-10
2.32498e-10
1.81297e-10
1.30547e-10
8.55099e-11
4.96435e-11
2.57061e-11
1.48592e-11
1.56721e-11
2.6502e-11
4.81113e-11
8.11855e-11
1.31217e-10
2.00579e-10
4.28947e-09
1.8305e-08
8.57136e-08
9.52796e-08
9.14102e-09
2.78835e-08
1.77578e-08
2.96936e-10
2.96812e-10
2.39619e-10
1.7689e-10
1.38752e-10
1.01665e-10
6.87117e-11
4.25548e-11
2.29851e-11
1.20435e-11
9.96858e-12
1.5864e-11
2.92683e-11
5.54112e-11
9.81681e-11
1.4554e-10
4.04523e-09
1.72683e-08
1.12755e-07
1.24596e-07
1.81217e-08
3.28051e-08
1.65068e-08
8.97308e-10
2.60416e-10
1.82199e-10
1.22406e-10
9.60238e-11
7.02343e-11
4.91499e-11
3.21915e-11
1.86204e-11
9.6607e-12
6.40918e-12
9.19446e-12
1.79646e-11
3.5302e-11
6.09624e-11
1.0841e-10
4.04568e-09
5.66951e-09
5.62995e-08
1.34133e-07
6.83794e-08
5.13885e-08
1.22148e-08
2.02031e-09
4.32944e-10
1.43703e-10
8.314e-11
6.3047e-11
4.56994e-11
3.13544e-11
2.10167e-11
1.32615e-11
7.31622e-12
4.25165e-12
4.98249e-12
9.45396e-12
2.04963e-11
4.22928e-11
6.66149e-11
8.39933e-09
2.91737e-08
1.32131e-07
1.56043e-07
1.19128e-07
7.66149e-08
1.56515e-08
2.87079e-09
6.4469e-10
1.24655e-10
5.30973e-11
3.94789e-11
2.73295e-11
1.78927e-11
1.19301e-11
7.94367e-12
4.83264e-12
2.7789e-12
2.65457e-12
5.05786e-12
1.02473e-11
2.09955e-11
4.09796e-11
1.11982e-08
1.21461e-07
6.17883e-07
2.70064e-07
1.05713e-07
8.61914e-08
2.77925e-08
5.03694e-09
9.84421e-10
1.32707e-10
3.28697e-11
2.29037e-11
1.52204e-11
9.21222e-12
5.7881e-12
3.95554e-12
2.67866e-12
1.6739e-12
1.40842e-12
2.56417e-12
5.6451e-12
1.18689e-11
2.10703e-11
1.90723e-08
2.99928e-07
8.36805e-07
6.69781e-07
8.73438e-08
7.8567e-08
2.98232e-08
7.13208e-09
1.24236e-09
1.45043e-10
2.00097e-11
1.23363e-11
7.95606e-12
4.39189e-12
2.45295e-12
1.59158e-12
1.16113e-12
8.25622e-13
6.41877e-13
1.01861e-12
2.21538e-12
4.84378e-12
1.09474e-11
2.07903e-08
3.926e-07
8.38053e-07
8.36618e-07
1.00744e-07
5.72637e-08
2.44661e-08
7.77466e-09
1.34996e-09
1.43778e-10
1.21829e-11
5.9559e-12
3.83192e-12
1.97004e-12
9.43488e-13
5.26746e-13
3.80111e-13
3.10265e-13
2.72348e-13
4.06217e-13
9.48404e-13
2.13838e-12
4.29819e-12
1.81157e-08
3.45298e-07
8.38063e-07
8.35736e-07
1.23651e-07
4.94277e-08
2.05453e-08
5.88517e-09
1.0968e-09
1.14669e-10
6.72625e-12
2.38984e-12
1.62546e-12
8.08847e-13
3.35603e-13
1.46092e-13
9.25203e-14
8.34116e-14
9.16305e-14
1.35571e-13
3.10575e-13
6.44349e-13
1.60396e-12
1.4304e-08
2.09829e-07
8.38063e-07
5.35964e-07
1.23562e-07
4.35221e-08
1.42955e-08
3.87151e-09
6.39447e-10
5.65033e-11
2.60845e-12
7.46256e-13
5.43324e-13
2.77656e-13
1.06697e-13
3.6634e-14
1.69801e-14
1.52488e-14
2.14452e-14
3.61444e-14
7.86172e-14
2.48182e-13
5.26746e-13
7.28932e-09
1.39417e-07
8.31086e-07
3.20043e-07
7.26804e-08
2.24625e-08
7.27445e-09
1.67049e-09
2.0207e-10
1.38154e-11
4.77143e-13
1.46952e-13
1.23644e-13
6.80461e-14
2.59383e-14
7.48461e-15
2.32599e-15
1.91401e-15
3.74671e-15
9.05808e-15
2.32507e-14
6.51556e-14
1.62402e-13
4.54687e-09
9.64308e-08
5.06422e-07
9.48568e-08
1.03501e-08
2.87512e-09
1.56014e-09
2.60501e-10
1.78038e-11
5.47937e-13
1.44009e-14
1.39108e-14
1.41643e-14
8.75876e-15
3.52476e-15
9.15087e-16
2.03418e-16
1.49796e-16
4.74349e-16
1.88974e-15
6.3981e-15
1.90342e-14
4.56078e-14
0.00271534
0.00274802
0.00809093
0.0127563
-3.37334e-07
1.15251e-07
0.000190392
0.00021898
0.0500287
0.0124021
0.00326778
0.0033526
0.533357
0.469109
0.553805
0.722674
0.975985
0.989996
0.997688
0.997767
0.999089
0.999202
0.999199
0.999033
0.999201
0.9992
0.999201
0.999199
0.999199
0.999201
0.999199
0.9992
0.998235
0.99893
0.999199
0.999198
0.740235
0.754439
0.792369
0.83469
0.0499606
0.0556336
0.0664784
0.0724239
6.38038e-12
1.24414e-11
4.57253e-20
-7.83674e-14
8.04521e-08
1.09324e-08
5.55384e-10
6.43328e-22
3.71633e-07
1.31283e-07
1.69475e-08
1.08794e-08
1.09877e-05
6.74324e-07
4.20326e-09
1.22405e-08
2.0294e-05
8.25483e-07
1.36943e-07
1.22452e-08
2.14971e-05
1.26739e-05
1.47179e-07
2.23654e-06
1.3807e-05
9.73205e-06
1.09564e-06
4.01406e-07
1.33175e-05
5.5511e-06
6.91733e-08
6.64182e-08
3.42716e-06
2.51202e-06
1.37759e-07
6.44749e-08
1.4767e-07
1.50174e-07
2.02099e-07
8.68037e-08
2.70601e-07
6.81496e-08
6.02377e-08
6.67858e-08
2.12643e-07
1.02664e-07
4.51197e-08
4.25809e-08
3.54468e-08
5.52108e-08
5.4999e-08
3.45265e-08
4.98172e-09
1.92977e-08
2.47792e-08
2.15505e-08
3.22254e-09
4.55193e-09
8.62213e-09
7.25932e-09
1.47373e-09
1.92639e-09
2.49916e-09
2.82199e-09
7.42337e-10
8.50639e-10
1.0933e-09
1.22535e-09
4.57319e-10
5.4123e-10
6.27667e-10
6.92547e-10
3.49423e-10
4.0085e-10
4.60365e-10
5.09398e-10
2.64069e-10
3.10312e-10
3.61868e-10
4.06474e-10
2.04485e-10
2.40366e-10
2.77094e-10
3.11e-10
1.41624e-10
1.66403e-10
1.96707e-10
2.20581e-10
9.70866e-11
1.10914e-10
1.30379e-10
1.53058e-10
5.52286e-11
6.43212e-11
7.72066e-11
8.761e-11
3.05269e-11
3.52508e-11
4.10415e-11
4.9291e-11
1.44904e-11
1.69512e-11
2.05781e-11
2.29281e-11
6.41502e-12
7.27237e-12
8.19418e-12
9.90643e-12
2.28081e-12
2.49521e-12
3.10904e-12
3.43272e-12
7.50512e-13
8.63805e-13
9.1445e-13
1.08965e-12
2.22421e-13
2.20472e-13
2.62282e-13
2.82845e-13
5.68115e-14
5.37318e-14
5.56961e-14
5.31198e-14
0.0127596
0.00764087
0.00370713
0.00370718
0.00923274
0.0623349
0.0578566
0.022732
0.0214285
0.114743
0.225889
0.0915535
0.324988
0.327971
0.288732
0.0411235
0.0226788
0.0226583
0.0317728
0.000218727
0.0307099
0.0626935
0.0435124
0.0215849
0.0264879
0.0211976
0.0211242
0.0488258
0.209361
0.215646
0.094873
0.129469
0.28223
0.183895
0.0244217
0.0240682
0.0226581
0.0226494
0.284791
0.47077
0.294897
0.151686
0.0458491
0.139575
0.185696
0.274807
0.753277
0.729424
0.732744
0.764861
0.47441
0.311898
0.290953
0.422296
0.421729
0.373009
0.374436
0.932686
0.716809
0.691823
0.799599
0.725653
0.837188
0.876236
0.920031
0.953101
0.879475
0.876891
0.965261
0.991452
0.988977
0.979001
0.995391
0.993348
0.993158
0.992951
0.961113
0.805354
0.920313
0.998051
0.997973
0.998051
0.998052
0.99731
0.993218
0.954158
0.92702
0.977684
0.997893
0.997893
0.997893
0.997893
0.997893
0.997886
0.995573
0.973319
0.887618
0.959003
0.998051
0.998051
0.998051
0.998051
0.998051
0.998044
0.998044
0.998044
0.995307
0.997892
0.997893
0.997893
0.997893
0.995289
0.963733
0.844073
0.996992
0.950759
0.931696
0.97977
0.998051
0.998051
0.997982
0.952901
0.894606
0.876422
0.894266
0.883998
0.804551
0.73151
0.645506
0.600539
0.50579
0.343965
0.239911
0.999198
0.944882
0.897257
0.842031
0.776864
0.596855
0.365948
0.192517
0.123128
0.101156
0.092374
0.073247
0.0352307
0.00847762
4.77199e-10
1.07991e-14
9.67862e-11
1.0799e-14
1.00998e-09
0.999198
0.815247
0.36454
0.169412
0.0804057
0.0177862
-7.52685e-20
-8.88487e-20
-9.00291e-08
3.10164e-05
-3.2648e-24
7.61042e-24
2.76394e-07
2.42604e-06
1.66595e-05
9.74269e-06
6.63067e-06
1.40076e-05
3.33915e-05
0.705893
0.256771
0.00176952
3.64152e-19
9.16828e-20
-3.871e-20
4.96442e-05
0.000175251
0.00022346
0.000163917
1.80631e-05
8.46376e-14
3.2803e-06
5.4818e-05
0.000108442
7.75177e-05
3.79709e-05
4.13278e-05
7.65334e-05
0.0410526
0.000206518
1.20368e-07
1.02044e-07
2.42037e-09
3.00442e-22
0.000179093
0.00022338
0.000223395
0.000223397
9.80464e-05
9.64136e-08
2.62818e-12
8.03161e-05
0.000118878
0.000117748
6.33148e-05
9.23185e-05
0.00010511
6.43343e-22
2.9625e-06
1.22744e-06
4.0155e-08
5.69403e-11
1.57579e-20
0.000137414
0.000217197
0.000218051
0.000157744
2.60168e-05
4.03619e-08
1.83169e-14
4.92017e-05
0.00011827
5.80185e-05
1.07737e-05
1.73731e-05
0.00010217
2.9332e-08
1.88827e-07
1.59041e-07
2.93884e-09
3.21633e-12
3.30247e-12
1.59387e-05
0.000130446
9.59947e-05
7.84539e-06
1.02455e-09
1.55607e-09
7.61549e-15
3.40705e-06
7.76926e-05
4.21406e-06
3.35757e-06
2.2148e-06
1.32373e-05
3.15428e-08
2.50485e-10
6.40355e-09
2.05214e-12
2.02651e-12
2.05072e-07
7.25558e-06
6.66405e-06
2.84125e-05
1.73119e-06
1.34239e-05
6.12331e-05
7.87589e-05
3.39575e-05
2.91112e-05
5.94006e-06
2.25511e-06
2.21527e-06
5.09026e-06
2.39835e-08
8.78066e-09
6.36574e-09
9.8399e-09
2.50742e-09
9.80456e-06
1.20311e-05
7.60435e-06
5.027e-05
5.83869e-05
9.40559e-05
9.38852e-05
9.40774e-05
4.11623e-05
2.67838e-05
5.38085e-06
7.82122e-06
3.57758e-06
6.96922e-06
2.0812e-08
3.19576e-08
2.65099e-08
3.01158e-08
5.2306e-07
4.10188e-05
1.12124e-05
9.4147e-06
3.67291e-05
4.6877e-05
3.97409e-05
3.50289e-05
3.87175e-05
3.01088e-05
1.13068e-05
3.66555e-06
1.96065e-05
7.38272e-06
1.12518e-05
2.84253e-06
2.88364e-08
3.35587e-08
2.39054e-07
6.40133e-05
4.39416e-05
4.92424e-06
4.96293e-06
1.52917e-05
1.76648e-05
1.83201e-05
1.6203e-05
1.62052e-05
1.66368e-05
4.07495e-06
3.66617e-06
1.96076e-05
8.77745e-06
1.09893e-05
3.0667e-06
5.26632e-06
3.1423e-08
2.04864e-05
6.82648e-05
2.07292e-05
3.41293e-06
3.01202e-06
3.09035e-06
5.47316e-06
5.89636e-06
1.6281e-05
2.69555e-05
2.10562e-05
6.69409e-06
4.6587e-06
1.95714e-05
1.79201e-05
1.06389e-06
6.44654e-08
1.858e-05
5.86415e-05
6.66519e-05
5.74248e-05
3.30666e-06
2.80977e-06
2.78451e-06
4.87169e-06
2.62749e-06
2.63218e-06
1.46841e-05
3.57921e-05
3.57835e-05
3.57898e-05
1.22894e-05
1.6174e-05
1.79278e-05
5.84692e-07
6.26273e-08
1.12775e-05
6.40584e-05
6.74204e-05
8.21539e-06
2.20354e-06
6.61942e-06
1.02268e-05
1.08653e-05
1.08456e-05
3.9249e-06
5.69666e-07
1.48934e-08
2.25105e-05
3.57334e-05
3.56091e-05
8.92468e-06
1.73616e-05
1.98588e-06
6.08674e-08
9.65673e-07
9.28835e-06
2.62678e-05
4.15722e-08
1.23903e-06
5.05421e-06
1.08653e-05
1.08748e-05
9.25807e-06
1.30458e-06
3.2872e-08
1.47504e-08
1.45255e-08
1.10531e-05
2.57922e-05
8.22774e-06
6.40216e-06
2.81909e-06
4.22336e-08
2.3479e-08
2.34527e-08
7.42171e-08
4.15726e-08
2.16551e-07
4.13935e-07
1.90995e-06
2.36908e-06
8.16568e-07
6.58395e-08
3.11199e-08
2.30104e-08
1.64993e-08
3.86238e-08
1.86041e-07
7.05493e-07
2.14376e-06
2.04556e-06
2.91207e-08
2.34665e-08
3.40202e-08
4.97089e-08
4.77237e-08
4.48461e-08
4.51981e-08
4.44135e-08
4.41572e-08
4.55551e-08
2.80928e-08
2.76782e-08
2.89495e-08
2.42471e-08
1.52203e-08
1.2582e-08
1.19669e-08
2.03213e-06
1.5728e-06
2.58757e-08
2.34962e-08
3.6131e-08
3.81688e-08
4.14305e-08
3.03684e-08
2.6337e-08
2.47492e-08
2.35172e-08
2.21185e-08
2.21025e-08
2.5764e-08
3.46068e-08
4.09898e-08
1.97287e-08
1.04176e-08
5.79308e-07
2.45605e-06
1.4715e-06
1.41643e-08
1.48186e-08
2.2236e-08
2.48645e-08
2.23764e-08
1.89558e-08
1.73433e-08
1.55181e-08
1.47243e-08
1.46492e-08
1.58389e-08
2.15334e-08
3.50223e-08
4.10315e-08
2.15734e-08
1.03966e-08
7.25185e-07
2.50618e-06
9.6132e-07
5.32068e-09
7.56969e-09
1.00272e-08
1.03917e-08
8.9391e-09
8.33864e-09
7.88828e-09
7.5755e-09
7.86372e-09
8.69043e-09
1.04837e-08
1.5779e-08
2.68175e-08
2.90779e-08
1.94782e-08
1.04594e-08
7.00779e-07
1.29787e-06
2.09538e-07
2.48131e-09
3.23595e-09
3.77544e-09
3.71649e-09
3.57701e-09
3.59138e-09
3.67713e-09
4.12384e-09
4.95986e-09
6.33108e-09
8.69065e-09
1.20167e-08
1.83034e-08
1.7791e-08
2.24038e-08
1.45581e-07
2.54891e-07
1.23058e-07
8.03451e-08
1.29424e-09
1.46295e-09
1.60673e-09
1.72574e-09
1.91478e-09
2.17814e-09
2.64493e-09
3.30865e-09
4.27092e-09
5.6872e-09
7.94001e-09
1.09394e-08
1.51705e-08
1.57253e-08
3.34012e-08
2.29557e-07
1.18692e-07
8.78086e-08
5.33555e-08
7.43684e-10
8.67361e-10
1.03882e-09
1.22996e-09
1.51787e-09
1.95115e-09
2.58359e-09
3.4767e-09
4.58483e-09
5.91842e-09
7.74169e-09
9.15756e-09
1.13474e-08
2.10121e-08
5.58539e-08
2.2962e-07
1.29723e-07
9.79515e-08
4.98812e-08
5.60982e-10
6.84508e-10
8.52243e-10
1.09317e-09
1.46413e-09
2.04718e-09
2.95564e-09
4.24748e-09
5.86284e-09
7.53657e-09
9.39268e-09
9.49026e-09
1.03951e-08
5.00061e-08
8.71444e-08
1.70566e-07
1.02073e-07
5.65718e-08
4.65952e-08
4.55076e-10
5.75413e-10
7.497e-10
1.01307e-09
1.45638e-09
2.24103e-09
3.62619e-09
5.76044e-09
8.48378e-09
1.10874e-08
1.32515e-08
1.12143e-08
1.16221e-08
5.50998e-08
8.11109e-08
6.71923e-08
4.88703e-08
2.62835e-08
4.29064e-08
3.51915e-10
4.72111e-10
6.37275e-10
9.25881e-10
1.46084e-09
2.45093e-09
4.35503e-09
7.51251e-09
1.20327e-08
1.86944e-08
2.69017e-08
2.01602e-08
1.18303e-08
3.37483e-08
6.47801e-08
2.75621e-08
2.83135e-08
2.62844e-08
3.74297e-08
2.64441e-10
3.56382e-10
5.09501e-10
8.11992e-10
1.40683e-09
2.62048e-09
4.98359e-09
9.24426e-09
1.62678e-08
3.39166e-08
7.30494e-08
5.49262e-08
1.76022e-08
1.79487e-08
3.80977e-08
2.75137e-08
2.89312e-08
2.62823e-08
3.61838e-08
1.74019e-10
2.49842e-10
3.7717e-10
6.58316e-10
1.28296e-09
2.64819e-09
5.53296e-09
1.08304e-08
1.80675e-08
4.11756e-08
1.8827e-07
3.56058e-07
1.83466e-08
1.80422e-08
1.86736e-08
6.40498e-08
4.58834e-08
1.20537e-07
4.57427e-08
1.07567e-10
1.53089e-10
2.53108e-10
4.86113e-10
1.0339e-09
2.35855e-09
5.36434e-09
1.10468e-08
2.08326e-08
4.05582e-08
1.15613e-07
9.31541e-07
3.19443e-06
2.2026e-06
1.87453e-08
7.07461e-08
1.75651e-07
2.84599e-07
2.23262e-06
5.67106e-11
8.43947e-11
1.46206e-10
3.07461e-10
7.37713e-10
1.79688e-09
4.44171e-09
9.7198e-09
1.97779e-08
4.00865e-08
1.12547e-07
7.6563e-07
5.78192e-06
6.3137e-06
9.12848e-07
6.9343e-08
2.10937e-07
4.35393e-07
2.73884e-06
2.69603e-11
3.99352e-11
7.42536e-11
1.69536e-10
4.46045e-10
1.1928e-09
3.00268e-09
7.16685e-09
1.59293e-08
3.39724e-08
7.9772e-08
2.97657e-07
2.8917e-06
6.31793e-06
5.89257e-06
6.9287e-08
1.63861e-07
3.75365e-07
2.739e-06
1.12118e-11
1.65042e-11
3.07613e-11
7.45608e-11
2.15412e-10
6.46351e-10
1.76826e-09
4.49663e-09
1.0612e-08
2.28857e-08
5.03857e-08
1.2749e-07
4.48491e-07
4.45227e-06
6.22922e-06
4.40319e-06
1.64142e-07
2.37655e-07
1.89579e-06
4.04821e-12
5.67209e-12
1.01776e-11
2.46704e-11
7.73821e-11
2.62758e-10
8.27801e-10
2.38623e-09
5.91357e-09
1.30545e-08
2.77694e-08
6.13257e-08
1.19476e-07
5.93313e-07
5.46379e-06
5.80257e-06
2.51933e-06
2.38381e-07
1.89369e-06
1.20524e-12
1.56908e-12
2.66424e-12
6.31937e-12
2.03963e-11
8.00675e-11
3.07778e-10
1.0547e-09
3.18733e-09
8.09914e-09
1.89893e-08
4.12787e-08
8.25045e-08
1.59933e-07
1.13968e-06
5.49553e-06
5.40462e-06
1.62867e-06
2.04795e-06
2.91406e-13
3.49226e-13
5.21944e-13
1.07206e-12
3.215e-12
1.32086e-11
6.13629e-11
2.70953e-10
1.03463e-09
3.381e-09
9.64005e-09
2.40946e-08
5.63365e-08
1.2688e-07
2.3809e-07
1.00862e-06
2.6682e-06
1.9848e-06
1.25303e-06
5.02486e-14
5.33237e-14
7.12383e-14
1.28068e-13
3.16845e-13
1.12059e-12
5.32504e-12
2.82823e-11
1.35562e-10
5.57967e-10
1.85976e-09
5.40563e-09
1.4113e-08
4.01225e-08
6.33509e-08
6.3757e-08
7.13735e-08
3.01693e-07
1.0499e-07
)
;

boundaryField
{
    leftWall
    {
        type            zeroGradient;
    }
    rightWall
    {
        type            zeroGradient;
    }
    lowerWall
    {
        type            zeroGradient;
    }
    atmosphere
    {
        type            inletOutlet;
        inletValue      uniform 0;
        value           nonuniform List<scalar> 
46
(
4.54687e-09
9.64308e-08
5.06422e-07
0
0
0
0
0
0
0
0
0
0
0
0
0
0
0
0
0
6.3981e-15
1.90342e-14
4.56078e-14
5.68115e-14
5.37318e-14
5.56961e-14
5.31198e-14
5.02486e-14
5.33237e-14
7.12383e-14
1.28068e-13
3.16845e-13
1.12059e-12
5.32504e-12
2.82823e-11
1.35562e-10
5.57967e-10
1.85976e-09
5.40563e-09
1.4113e-08
4.01225e-08
6.33509e-08
6.3757e-08
7.13735e-08
3.01693e-07
1.0499e-07
)
;
    }
    defaultFaces
    {
        type            empty;
    }
}


// ************************************************************************* //
