/*--------------------------------*- C++ -*----------------------------------*\
| =========                 |                                                 |
| \\      /  F ield         | OpenFOAM: The Open Source CFD Toolbox           |
|  \\    /   O peration     | Version:  2312                                  |
|   \\  /    A nd           | Website:  www.openfoam.com                      |
|    \\/     M anipulation  |                                                 |
\*---------------------------------------------------------------------------*/
FoamFile
{
    version     2.0;
    format      ascii;
    arch        "LSB;label=32;scalar=64";
    class       volScalarField;
    location    "5.1";
    object      alpha.water;
}
// * * * * * * * * * * * * * * * * * * * * * * * * * * * * * * * * * * * * * //

dimensions      [0 0 0 0 0 0 0];

internalField   nonuniform List<scalar> 
2268
(
3.25773e-07
3.25773e-07
2.36256e-07
6.75956e-09
4.25063e-10
7.883e-10
6.17552e-10
2.84265e-10
1.57917e-10
1.1421e-10
9.62494e-11
8.87153e-11
8.79077e-11
8.77853e-11
9.45662e-11
1.15055e-10
1.54002e-10
2.12739e-10
3.01824e-10
5.86018e-10
1.06479e-09
1.36029e-09
1.40225e-09
2.7903e-07
2.05415e-07
6.42686e-08
4.53083e-09
3.98237e-10
3.97756e-10
3.02134e-10
3.0198e-10
2.70932e-10
2.50396e-10
2.46238e-10
2.50209e-10
2.49481e-10
2.20568e-10
2.05337e-10
2.26656e-10
3.27302e-10
4.41633e-10
6.05577e-10
8.7956e-10
1.19995e-09
1.3284e-09
1.27148e-09
5.48114e-08
2.17871e-08
7.26916e-09
5.46995e-09
5.38131e-09
5.89828e-09
4.65734e-09
9.13345e-10
6.06867e-10
6.49178e-10
7.85036e-10
1.05292e-09
1.20971e-09
1.21513e-09
9.75546e-10
6.79852e-10
5.87093e-10
6.47241e-10
7.20117e-10
8.70335e-10
9.34618e-10
9.12194e-10
8.26974e-10
8.28582e-09
5.05935e-09
1.81306e-09
1.84276e-09
2.85522e-09
3.07311e-09
1.78405e-09
7.66864e-10
5.3907e-10
6.10216e-10
1.05644e-09
1.65409e-09
1.8521e-09
1.83279e-09
1.3745e-09
6.25785e-10
4.01478e-10
4.09353e-10
2.82519e-10
3.00503e-10
3.31755e-10
3.61765e-10
3.79301e-10
1.9066e-10
2.35009e-11
5.20056e-12
2.63943e-11
1.26182e-10
1.42704e-10
6.20961e-11
1.34811e-11
-2.4372e-15
-8.30959e-15
-3.93591e-15
-7.13644e-20
-2.98659e-20
2.07526e-20
9.3224e-20
4.35949e-20
-6.09434e-20
-1.5459e-18
-3.85793e-17
-3.89028e-16
-6.39378e-16
-8.5442e-16
-3.07101e-15
5.18354e-22
8.20615e-24
4.33059e-24
1.11281e-23
1.86624e-22
1.84351e-22
1.7961e-22
3.04297e-16
0.0116181
0.0369569
0.0657351
0.0986638
0.13628
0.177632
0.225095
0.263636
0.260921
0.258686
0.273937
0.292261
0.292848
0.299386
0.366732
0.471078
0.468738
0.460046
0.450584
0.449273
0.464798
0.501977
0.563824
0.63303
0.704518
0.771206
0.82883
0.875714
0.912105
0.941758
0.959165
0.932335
0.905471
0.906921
0.913613
0.916947
0.91331
0.92321
0.993117
0.992725
0.991088
0.989427
0.989996
0.99224
0.99569
0.998771
0.999673
0.999766
0.999767
0.999767
0.999767
0.999767
0.999765
0.999769
0.99977
0.99977
0.987304
0.990071
0.999633
0.99024
0.931748
0.0115372
0.00772775
0.00332429
0.00287438
0.00518115
0.00653877
0.0081314
0.00858486
0.00865907
0.0088185
0.00903116
0.00903373
0.00723835
0.00567943
0.00475747
0.00452295
0.00402352
0.00360502
0.00360734
0.0034535
0.000460721
0.000456719
0.000452244
0.000448114
0.000443132
0.000438285
0.000433191
0.000428189
0.00042519
0.000421627
0.00041693
0.000411716
0.000250635
2.95323e-05
2.95549e-05
0.000193606
0.000513347
0.000930479
0.149373
0.156189
0.168057
0.213866
0.25016
0.245645
0.229267
0.215929
0.198741
0.20197
0.184726
0.113168
0.0390099
0.0059325
0.00480896
0.00308335
4.91549e-05
4.95057e-05
4.92334e-05
0.714931
0.847719
0.807121
0.800321
0.87136
0.900498
0.91258
0.909154
0.89431
0.904413
0.910095
0.881782
0.778897
0.53737
0.250503
0.158464
0.0886995
0.0904692
0.00794699
0.767264
0.986447
0.984072
0.979899
0.986891
0.966876
0.975644
0.975643
0.958224
0.900803
0.937829
0.970551
0.975697
0.975702
0.569936
0.693537
0.743902
0.724406
0.4139
0.914538
0.977829
0.99145
0.99145
0.991206
0.986945
0.967702
0.975632
0.923729
0.857529
0.868639
0.915842
0.975688
0.975711
0.688212
0.8748
0.875036
0.866642
0.582748
0.97308
0.977617
0.991438
0.990121
0.972645
0.986907
0.967776
0.971941
0.960463
0.876889
0.805661
0.892622
0.96121
0.972138
0.907575
0.933357
0.941046
0.859087
0.692948
0.965651
0.966685
0.983711
0.990843
0.980018
0.935818
0.96427
0.975336
0.975336
0.89813
0.661629
0.902742
0.821627
0.831738
0.909117
0.896294
0.947631
0.917274
0.910367
0.999684
0.99973
0.999745
0.999746
0.999745
0.999742
0.999739
0.999747
0.999754
0.999767
0.999767
0.999767
0.999767
0.999769
0.999768
0.999769
0.999769
0.99977
0.999753
0.999742
0.999646
0.999008
0.994117
0.973005
0.98828
0.999073
0.998934
0.996431
0.984925
0.974034
0.969827
0.972893
0.977257
0.979858
0.982134
0.987254
0.992984
0.994419
0.994617
0.992407
0.990006
0.983751
0.978587
0.980771
0.989503
0.99382
0.54785
0.504828
0.473967
0.381468
0.303573
0.321228
0.389513
0.498621
0.574685
0.559099
0.555723
0.591001
0.656646
0.682041
0.665525
0.647634
0.659966
0.666772
0.626723
0.555113
0.584212
0.674813
0.80375
0.00524995
0.00196381
0.00115786
3.18814e-06
3.95682e-08
2.51412e-08
0.000520037
0.000980467
7.87962e-10
5.23595e-19
1.57882e-36
-4.72764e-26
0.00462367
0.0219638
0.018057
0.0101577
0.0148106
0.0139956
3.54148e-06
3.34721e-06
3.53949e-06
0.0169178
0.176185
4.29119e-11
1.96385e-12
3.92057e-06
7.3126e-05
7.6153e-05
5.67027e-05
8.05067e-06
3.18373e-07
3.19739e-24
3.78132e-26
-1.75078e-23
1.95316e-23
3.10305e-06
3.98686e-05
4.95294e-05
2.45224e-05
1.10412e-05
7.28422e-06
1.98026e-05
0.000193367
7.93189e-05
-1.14442e-08
2.85009e-20
1.21487e-07
2.40704e-05
5.61646e-05
5.55377e-05
5.52174e-05
8.79241e-05
1.8337e-05
4.06e-07
3.09616e-07
2.18187e-05
5.77518e-05
5.0945e-05
7.05885e-05
0.000218013
0.000427769
0.000260044
0.000211333
8.35296e-05
0.000364436
0.00285598
0.00116611
0.000143139
-2.33447e-09
1.85652e-05
0.000134434
0.000168708
0.0003206
0.000434285
0.000491841
0.000600446
0.00046219
0.000367832
0.000358578
0.000358012
0.000242574
9.35728e-05
8.83437e-05
0.00198307
0.00687148
0.00559011
0.00110627
0.000378987
0.00551833
0.00772817
0.00153164
0.000258881
0.000192419
0.000300058
0.000108201
0.000293784
0.00205169
0.00450601
0.00459445
0.0044067
0.00379424
0.00313408
0.00272927
0.0017956
0.000743949
8.8202e-05
0.000638089
0.0127233
0.0137508
0.01206
0.00152043
0.00190437
0.0152525
0.00686405
0.00037341
0.000339879
0.000339702
9.86203e-05
2.66972e-05
0.00159116
0.00426623
0.00442014
0.00432369
0.00391413
0.00302454
0.00230387
0.00182456
0.00151573
0.000330702
0.000248663
0.000536674
0.00933524
0.0119029
0.010436
0.0100187
0.0190983
0.0198543
0.00606512
9.62752e-05
9.81974e-05
6.23599e-05
2.65974e-05
3.28242e-08
2.63053e-08
6.08802e-08
6.7733e-08
8.37715e-08
8.20856e-08
5.22322e-08
2.82157e-08
1.48126e-06
0.000214864
0.000248431
6.36556e-05
4.29901e-07
0.000130258
4.63567e-08
0.00415801
0.0183519
0.0202249
0.0202127
8.46851e-08
6.17457e-08
2.96611e-08
2.59427e-08
2.6084e-08
3.7232e-08
6.14732e-08
1.99094e-07
3.9694e-07
4.12807e-07
1.65434e-07
2.70329e-08
2.73202e-08
3.33934e-08
1.71321e-07
3.93289e-07
4.2666e-07
1.7077e-07
1.20286e-07
1.74726e-08
0.000233654
0.0155942
0.020225
2.24811e-07
1.44303e-07
3.57751e-08
2.58346e-08
3.68654e-08
9.44996e-08
2.24503e-07
8.58986e-07
1.59982e-06
1.46741e-06
9.51276e-07
5.08233e-07
3.47317e-07
3.4988e-08
2.16987e-06
5.36693e-06
3.18975e-06
1.06712e-06
1.28606e-07
1.70371e-08
5.16828e-10
5.18777e-10
0.0104053
3.93657e-07
2.96463e-07
8.45754e-08
5.1414e-08
7.78667e-08
2.26079e-07
7.60811e-07
1.84657e-06
1.84657e-06
1.8461e-06
1.27869e-06
1.23986e-06
1.36614e-06
8.54708e-06
1.4759e-05
1.42984e-05
1.3622e-05
2.9768e-06
1.50996e-07
9.99691e-08
1.89472e-08
1.96508e-09
1.0122e-16
3.88152e-07
1.51975e-07
6.55612e-08
6.04271e-08
5.97108e-08
1.34651e-07
7.49471e-07
1.8454e-06
1.84657e-06
1.17604e-06
3.58003e-07
2.30425e-07
1.92451e-06
1.81733e-05
2.09321e-05
1.94398e-05
1.85446e-05
3.23995e-06
7.11311e-07
4.01615e-07
7.37805e-08
-2.72529e-14
-8.18894e-16
1.5296e-07
2.60866e-08
1.77394e-08
1.87457e-08
1.55156e-08
5.78424e-08
1.22672e-07
3.69573e-07
5.59369e-07
1.54499e-09
1.51089e-09
3.78982e-08
1.93852e-07
7.29175e-06
2.09777e-05
2.09868e-05
8.86262e-06
2.69467e-07
2.85414e-07
1.43465e-06
2.47283e-07
1.61177e-08
4.46517e-17
1.56669e-08
1.03238e-08
1.2882e-08
1.27996e-08
1.5574e-08
1.47808e-08
1.32078e-09
1.33508e-09
1.36054e-09
2.0682e-09
3.31084e-09
6.95958e-09
1.60857e-08
8.26008e-08
4.0976e-06
5.27509e-06
2.10829e-10
9.94151e-11
1.05487e-07
1.47697e-05
2.63123e-05
1.9516e-05
4.56408e-06
8.00268e-09
6.24696e-09
9.26904e-09
9.22296e-09
1.08841e-08
3.4145e-09
1.40853e-09
1.35947e-09
1.40595e-09
2.74294e-09
3.89249e-09
5.23822e-09
6.87545e-09
8.15867e-09
7.84923e-09
1.01046e-08
2.03247e-08
3.47336e-08
5.21279e-12
1.53633e-05
3.45035e-05
3.45007e-05
3.38204e-05
1.03978e-08
3.33098e-09
4.64033e-09
5.76346e-09
6.12724e-09
4.06711e-09
2.28798e-09
1.61326e-09
1.47447e-09
2.05726e-09
2.38579e-09
2.94273e-09
4.70514e-09
6.23759e-09
7.66672e-09
1.00184e-08
1.49196e-08
1.03168e-08
-2.47051e-12
2.95527e-07
5.63739e-06
2.48351e-05
3.48559e-05
1.337e-08
2.77808e-09
3.09932e-09
3.70048e-09
3.57163e-09
2.94882e-09
2.4145e-09
1.52957e-09
1.14049e-09
1.1114e-09
1.33614e-09
1.9263e-09
2.85551e-09
4.20079e-09
6.06969e-09
7.65775e-09
7.05795e-09
4.17952e-09
1.56656e-09
3.05505e-10
3.01966e-10
1.61803e-07
2.09431e-05
1.40835e-08
2.01817e-09
2.08866e-09
2.48291e-09
2.24724e-09
1.84982e-09
1.40931e-09
1.05152e-09
7.75066e-10
6.71938e-10
7.06595e-10
8.8064e-10
1.10128e-09
1.6572e-09
2.44967e-09
3.21098e-09
3.54519e-09
3.01156e-09
1.97575e-09
3.27974e-09
1.32278e-08
1.35303e-08
2.106e-06
1.40358e-08
1.29785e-09
1.09181e-09
1.29907e-09
1.11714e-09
9.0679e-10
6.8844e-10
5.08456e-10
3.90023e-10
3.39068e-10
3.4155e-10
4.04196e-10
4.98307e-10
6.57357e-10
8.92422e-10
1.1696e-09
1.35484e-09
1.40447e-09
1.65985e-09
7.50487e-09
7.56213e-08
2.21192e-07
2.02814e-07
1.36115e-08
9.24151e-10
6.30927e-10
6.86936e-10
5.57805e-10
4.22997e-10
3.13506e-10
2.37532e-10
1.83613e-10
1.53942e-10
1.46964e-10
1.66953e-10
2.01343e-10
2.53916e-10
3.28369e-10
4.3211e-10
5.42655e-10
6.52013e-10
8.01903e-10
1.81061e-09
1.36203e-08
1.43778e-07
1.87239e-07
1.31352e-08
6.70892e-10
4.00458e-10
4.15782e-10
3.58572e-10
2.94085e-10
2.34865e-10
1.75465e-10
1.28029e-10
9.3429e-11
7.24002e-11
6.67243e-11
7.33709e-11
9.04828e-11
1.19939e-10
1.62138e-10
2.25063e-10
3.21135e-10
4.9205e-10
8.53475e-10
2.14686e-09
1.21477e-08
6.24936e-08
1.30254e-08
5.11888e-10
3.34982e-10
3.52445e-10
4.0108e-10
4.55446e-10
3.82666e-10
2.31058e-10
1.55206e-10
9.48538e-11
5.79402e-11
3.83915e-11
3.04847e-11
3.11345e-11
3.93042e-11
5.51079e-11
8.23791e-11
1.29358e-10
2.2082e-10
4.06899e-10
7.62469e-10
1.22336e-09
6.26277e-09
1.28944e-08
3.81441e-10
3.34214e-10
4.76516e-10
7.93763e-10
9.35323e-10
6.58049e-10
3.08332e-10
2.09906e-10
1.26587e-10
7.04651e-11
3.82213e-11
2.22038e-11
1.5125e-11
1.43253e-11
1.8421e-11
2.78966e-11
4.59377e-11
8.00519e-11
1.56185e-10
2.92481e-10
6.04215e-10
1.09747e-09
1.28336e-08
3.31956e-10
3.85842e-10
7.86862e-10
1.39288e-09
1.81983e-09
1.27642e-09
3.98819e-10
2.78205e-10
1.68613e-10
9.09258e-11
4.81136e-11
2.52367e-11
1.32433e-11
7.7559e-12
7.01602e-12
9.52376e-12
1.53724e-11
2.67223e-11
4.98364e-11
1.03788e-10
1.99081e-10
4.24755e-10
1.28289e-08
3.46764e-10
6.20215e-10
1.35066e-09
2.34437e-09
3.38118e-09
2.57911e-09
4.86166e-10
3.51543e-10
2.16512e-10
1.14109e-10
5.99423e-11
3.12528e-11
1.5502e-11
7.50647e-12
3.89647e-12
3.58555e-12
5.19416e-12
8.8172e-12
1.58578e-11
2.80121e-11
6.43122e-11
1.29376e-10
1.29626e-08
4.68854e-10
1.22459e-09
2.87315e-09
5.71326e-09
1.07565e-08
4.22678e-09
5.33555e-10
4.11364e-10
2.6086e-10
1.32551e-10
6.92679e-11
3.71313e-11
1.88364e-11
8.79654e-12
3.8356e-12
1.88349e-12
1.89183e-12
2.97534e-12
5.04212e-12
9.60112e-12
1.73011e-11
3.46875e-11
1.32215e-08
6.86272e-10
2.75609e-09
1.71819e-08
4.5149e-08
6.19801e-08
3.29588e-09
5.04264e-10
4.9921e-10
2.99216e-10
1.40434e-10
7.23904e-11
4.02638e-11
2.15003e-11
1.03568e-11
4.47482e-12
1.78868e-12
8.67678e-13
1.01947e-12
1.71397e-12
2.9008e-12
5.51322e-12
1.02475e-11
1.34456e-08
1.10411e-09
1.02526e-08
1.33331e-07
4.49655e-07
2.22884e-07
4.75917e-10
5.38341e-10
5.74943e-10
2.98143e-10
1.32228e-10
6.78448e-11
3.92633e-11
2.23225e-11
1.14567e-11
5.1572e-12
2.03995e-12
5.94666e-13
3.80151e-13
5.14421e-13
9.38925e-13
1.7437e-12
3.00395e-12
1.42468e-08
1.90193e-09
4.95072e-08
4.81619e-07
7.45303e-07
2.39892e-07
4.71411e-10
6.66196e-10
6.33179e-10
2.70127e-10
1.09872e-10
5.57082e-11
3.40144e-11
2.08241e-11
1.15761e-11
5.52426e-12
2.24744e-12
7.41491e-13
1.9044e-13
1.74291e-13
2.758e-13
5.09699e-13
9.16314e-13
1.49728e-08
4.71474e-09
1.72488e-07
7.81019e-07
7.47118e-07
3.63103e-08
4.71122e-10
9.50592e-10
6.449e-10
2.25408e-10
8.35156e-11
4.19242e-11
2.6726e-11
1.72548e-11
1.04176e-11
5.42946e-12
2.34983e-12
8.5317e-13
1.48029e-13
6.61351e-14
9.05017e-14
1.66322e-13
2.65604e-13
1.50329e-08
1.74868e-08
4.04839e-07
7.71031e-07
4.49739e-07
4.8057e-10
7.41928e-10
1.2172e-09
5.70479e-10
1.6323e-10
5.66826e-11
2.84431e-11
1.86495e-11
1.27453e-11
8.26442e-12
4.74285e-12
2.26611e-12
8.90625e-13
1.89996e-13
3.76523e-14
2.62856e-14
4.39692e-14
8.20411e-14
1.43598e-08
4.00099e-08
5.62466e-07
7.55083e-07
1.59414e-07
4.78868e-10
1.30223e-09
1.13414e-09
3.33657e-10
1.13318e-10
3.79876e-11
1.83288e-11
1.22411e-11
8.38589e-12
5.67116e-12
3.61837e-12
1.94697e-12
8.30492e-13
2.32648e-13
2.9814e-14
8.60847e-15
1.38346e-14
2.16312e-14
1.43614e-08
5.02336e-08
6.28054e-07
7.05877e-07
4.96703e-10
5.8817e-10
1.79704e-09
8.61724e-10
2.26854e-10
7.68425e-11
2.3439e-11
1.13066e-11
7.36021e-12
4.92546e-12
3.38811e-12
2.33014e-12
1.43485e-12
6.90415e-13
2.4445e-13
3.02059e-14
3.3619e-15
3.2897e-15
6.16105e-15
1.5237e-08
6.76657e-08
5.1516e-07
3.88371e-07
4.95681e-10
1.20028e-09
2.39529e-09
8.36222e-10
2.24289e-10
5.18423e-11
1.3607e-11
6.44871e-12
4.10467e-12
2.59439e-12
1.72814e-12
1.24962e-12
8.79261e-13
5.05937e-13
2.09156e-13
3.26208e-14
2.38727e-15
1.11605e-15
1.64854e-15
2.43876e-08
8.12304e-08
3.30968e-07
9.13659e-08
8.37344e-09
2.76727e-09
2.94822e-09
9.94556e-10
2.37256e-10
3.86963e-11
7.44829e-12
3.42519e-12
2.13982e-12
1.25104e-12
7.62131e-13
5.40403e-13
4.20813e-13
2.94945e-13
1.51272e-13
3.35675e-14
3.1772e-15
3.66472e-16
4.42902e-16
2.98949e-08
7.12705e-08
3.29808e-07
3.81158e-08
4.58608e-09
7.01118e-09
3.69004e-09
1.08117e-09
2.43325e-10
3.47633e-11
4.02007e-12
1.64715e-12
1.02715e-12
5.60508e-13
2.98588e-13
1.89133e-13
1.50521e-13
1.25384e-13
8.61647e-14
2.76599e-14
3.20985e-15
1.92968e-16
1.09211e-16
3.08477e-08
4.45048e-08
8.14457e-08
3.68343e-09
6.03515e-09
1.15696e-08
3.8718e-09
9.88832e-10
2.0413e-10
2.65424e-11
2.08727e-12
6.71537e-13
4.36127e-13
2.28531e-13
1.05733e-13
5.38988e-14
3.93517e-14
3.76118e-14
3.52706e-14
1.72625e-14
2.92496e-15
1.54884e-16
2.8695e-17
3.53107e-08
1.11319e-08
1.61666e-09
1.61656e-09
1.75067e-08
1.23019e-08
3.12574e-09
6.91558e-10
1.21441e-10
1.34329e-11
8.31549e-13
2.18501e-13
1.4734e-13
7.82267e-14
3.31921e-14
1.33899e-14
7.5002e-15
7.33282e-15
9.29389e-15
7.99357e-15
1.86409e-15
1.48199e-16
1.00189e-17
5.40152e-08
7.89376e-09
1.61656e-09
3.84039e-09
1.75152e-08
6.86503e-09
1.68927e-09
3.30047e-10
4.14391e-11
3.49167e-12
1.62568e-13
4.55315e-14
3.43756e-14
1.93548e-14
8.06363e-15
2.69958e-15
1.03306e-15
9.53579e-16
1.65012e-15
2.52479e-15
1.00498e-15
1.20492e-16
8.83117e-18
8.06887e-08
1.36832e-08
5.01837e-09
2.57354e-08
1.24701e-08
1.29749e-09
3.7929e-10
5.68286e-11
4.49716e-12
1.89175e-13
6.64864e-15
4.69965e-15
4.11707e-15
2.56218e-15
1.12495e-15
3.41308e-16
9.37343e-17
7.67362e-17
2.12293e-16
5.71064e-16
4.65043e-16
8.54426e-17
7.01965e-18
0.996116
0.996128
0.990822
0.986156
0.993295
0.993787
0.993834
0.992362
0.901899
0.944132
0.967264
0.991627
0.421612
0.491169
0.439619
0.275281
0.00262136
0.00451325
0.00164528
2.87151e-06
-8.0969e-07
8.56744e-06
2.0878e-06
-1.31726e-26
0.000315505
0.000137468
4.45936e-23
1.27641e-27
0.00051719
0.000528324
0.000413984
0.000124616
0.000381898
0.000383393
0.000403607
0.000332816
0.0190858
0.00561213
0.000372739
0.000290862
0.0191274
0.0202401
0.0202416
0.0202402
0.0202095
0.0202416
0.0202402
0.0202418
-1.9864e-08
0.00624841
0.0200557
0.0139679
7.0275e-08
5.02349e-07
1.43283e-06
1.57005e-06
2.33205e-07
6.47301e-07
5.79672e-07
3.67637e-07
4.21993e-08
4.31886e-08
1.49871e-07
9.3873e-08
1.1879e-05
1.20317e-05
2.55954e-05
3.70305e-05
3.8562e-05
3.85622e-05
3.85604e-05
3.85602e-05
3.8562e-05
3.8561e-05
1.34979e-05
2.55065e-07
1.69937e-05
1.38286e-05
3.03799e-07
1.27473e-08
1.21419e-07
1.23366e-07
5.28845e-09
1.25584e-08
1.20114e-07
1.60763e-08
5.20494e-09
1.12843e-08
7.35998e-08
2.40729e-08
5.17258e-09
3.77014e-08
6.86982e-09
9.37969e-09
5.25272e-09
3.49324e-08
1.12786e-09
3.49456e-09
5.40625e-09
1.45581e-08
6.73287e-10
1.02148e-09
2.18177e-09
2.95901e-09
2.18664e-10
3.41404e-10
5.38094e-10
7.522e-10
5.52098e-11
7.53456e-11
1.31834e-10
1.72019e-10
1.40176e-11
2.00535e-11
2.82978e-11
3.64565e-11
4.46791e-12
5.20463e-12
7.33213e-12
8.96949e-12
1.23617e-12
1.50473e-12
1.93607e-12
2.38264e-12
3.67378e-13
4.17714e-13
5.11033e-13
5.86744e-13
9.84636e-14
1.06384e-13
1.25589e-13
1.38414e-13
2.80069e-14
2.81749e-14
3.01633e-14
3.42963e-14
7.15831e-15
7.04645e-15
7.76319e-15
7.77809e-15
1.95718e-15
1.94409e-15
1.89828e-15
2.01721e-15
5.13681e-16
4.83629e-16
5.25302e-16
5.02114e-16
1.33501e-16
1.23234e-16
1.16166e-16
1.24907e-16
2.82555e-17
2.44809e-17
2.77962e-17
2.64566e-17
5.84984e-18
5.46348e-18
4.8505e-18
5.33907e-18
1.1445e-18
8.68237e-19
9.56873e-19
9.35361e-19
2.36342e-19
1.60533e-19
1.46604e-19
1.2458e-19
0.971543
0.959195
0.978037
0.990852
0.98834
0.935092
0.939909
0.975336
0.975336
0.858136
0.667121
0.900994
0.672264
0.655219
0.701011
0.947649
0.947649
0.947579
0.898564
0.979145
0.947397
0.922435
0.908167
0.954276
0.959683
0.973669
0.973742
0.90559
0.676344
0.689596
0.901928
0.868771
0.71343
0.800727
0.947649
0.947649
0.943763
0.905619
0.707908
0.482095
0.522904
0.664063
0.777617
0.7475
0.739883
0.695749
0.174178
0.147275
0.144247
0.205285
0.512365
0.678211
0.701524
0.572663
0.559258
0.590822
0.58272
0.054727
0.109411
0.120415
0.118378
0.190436
0.108856
0.0873686
0.0598997
3.5432e-12
4.39792e-12
1.95461e-09
4.64994e-06
0.00612789
0.00907425
0.0185612
0.000320302
0.000320281
0.000320956
0.000321779
1.75698e-05
0.020216
0.0239536
0.000112081
7.51876e-05
6.89766e-05
6.2021e-05
5.67744e-05
5.69548e-05
1.49194e-12
3.36341e-11
3.26081e-06
0.000247518
0.000315202
0.000391542
0.000385844
0.000387891
0.000325357
0.000401573
0.000138431
0.0226011
0.0333136
0.000815464
0.000669738
0.000124973
0.000123145
0.000288333
0.00032598
0.000274261
-1.78031e-11
-1.90611e-09
0.000182199
0.000344191
0.000532016
0.000825938
0.000901117
0.00137017
0.00248756
1.27292e-19
0.0478788
0.0675862
0.0196895
0.000828238
8.04333e-05
7.45187e-05
6.69823e-05
3.35026e-05
0.000295798
0.00128575
0.0015649
0.00169089
0.00215817
0.00261881
0.00261918
0.00261886
0.00261919
0.00261887
6.6965e-05
0.0544802
0.0677491
0.0389194
0.000593071
0.000582377
8.33594e-05
2.9649e-08
2.81075e-08
3.64705e-06
0.000110836
0.000503248
0.00111948
0.00194538
0.00200001
0.00212869
0.0014602
0.00110853
0.00114317
0.000165795
0.0326892
0.0631802
0.0230267
0.000604235
0.000308435
3.197e-05
2.73284e-08
2.73194e-08
1.76662e-05
5.37324e-05
3.00803e-05
3.87648e-06
1.82608e-06
9.23469e-07
3.56893e-06
1.29967e-06
1.27158e-06
1.27148e-06
0.000163083
0.00201039
0.00836023
0.00147581
0.000323084
3.60989e-06
1.88708e-06
4.4944e-06
6.63949e-06
4.79485e-06
3.70419e-06
2.73278e-06
7.4517e-07
7.48258e-07
9.19298e-07
2.10222e-06
4.83555e-06
2.24033e-06
2.1272e-06
0.0130952
2.34691e-05
2.9887e-13
-8.81704e-18
3.29871e-06
4.02536e-08
4.83145e-06
1.37817e-05
1.41362e-05
1.30814e-05
3.47839e-06
1.53118e-07
6.70526e-07
1.73259e-06
4.15386e-06
5.36234e-06
2.14264e-05
3.69911e-06
2.86153e-06
0.0192478
0.00160347
-7.35408e-09
1.13398e-06
2.17844e-07
3.00094e-08
1.26061e-05
1.98044e-05
1.89132e-05
1.301e-05
2.8344e-06
1.50811e-07
1.47191e-07
2.20663e-06
4.76879e-06
2.92134e-05
4.05762e-05
1.50311e-05
2.69688e-06
0.00152834
0.000206683
1.92641e-05
1.02208e-05
3.32111e-07
6.98255e-08
5.54729e-06
2.85818e-05
1.58091e-05
2.73519e-06
7.1087e-07
1.54402e-07
1.47181e-07
4.98477e-07
3.01462e-06
4.05782e-05
4.05783e-05
2.05808e-05
2.7003e-06
9.05038e-07
1.65576e-05
2.15281e-05
8.87603e-06
5.00878e-07
7.05469e-08
1.06858e-06
2.84632e-05
8.76519e-06
2.03449e-06
2.72544e-06
3.78062e-06
4.72459e-06
2.02803e-06
1.63684e-06
3.79847e-05
4.05762e-05
1.68415e-05
2.61392e-06
2.64947e-07
3.34855e-07
2.59237e-06
1.07226e-06
2.28406e-07
2.3922e-08
3.09716e-06
2.85135e-05
2.40906e-05
1.93962e-06
5.71345e-06
5.66698e-06
2.73557e-06
1.07123e-06
3.9654e-06
3.80751e-05
2.01947e-05
3.0114e-06
8.50599e-07
9.12348e-08
2.18305e-07
3.235e-07
2.69768e-07
9.21072e-08
5.15473e-07
1.09221e-05
1.51315e-05
6.4121e-06
1.93661e-06
4.12666e-06
4.12838e-06
1.06554e-06
1.06531e-06
2.62074e-05
3.31889e-05
1.51813e-06
8.99956e-08
2.64935e-07
2.72305e-05
4.23977e-06
8.14571e-08
7.87846e-08
3.05425e-06
9.67937e-06
4.22861e-05
2.77365e-05
1.00545e-05
7.26513e-06
2.44431e-05
2.94656e-05
2.50479e-05
2.47036e-05
1.9089e-05
1.40058e-06
9.25391e-07
9.03209e-08
8.69143e-08
3.43795e-05
2.94857e-05
1.99495e-05
3.44389e-06
6.97788e-06
2.47095e-05
4.22999e-05
4.2294e-05
4.22999e-05
4.2294e-05
4.20115e-05
3.16188e-05
2.01046e-05
6.6548e-06
1.11251e-07
1.03711e-07
3.50083e-07
3.73095e-07
7.61014e-08
5.8137e-06
2.52085e-05
2.767e-05
2.10954e-05
6.59797e-06
1.49809e-05
2.86354e-05
3.05434e-05
1.89593e-05
1.35535e-05
1.18177e-05
5.00444e-06
1.1399e-06
6.29395e-07
2.36372e-07
1.03702e-07
1.28888e-07
3.9173e-07
7.82476e-08
2.057e-08
3.50112e-06
1.63354e-05
1.85715e-05
1.74366e-06
8.58192e-07
6.51181e-06
7.04918e-06
6.41461e-06
3.80868e-06
1.7321e-07
9.93563e-10
9.92852e-10
4.34506e-08
3.77992e-07
5.40555e-07
4.57566e-07
3.16666e-07
8.64507e-08
1.42803e-07
3.06567e-07
1.76644e-07
1.6437e-06
3.22407e-08
2.88736e-07
5.18067e-07
2.57818e-07
3.36164e-07
3.59822e-07
1.36287e-07
9.60349e-09
1.38482e-09
1.28428e-09
1.23664e-07
5.40436e-07
5.1605e-07
1.18198e-07
8.6465e-08
2.0545e-07
3.55168e-07
8.22415e-08
2.51741e-08
2.87405e-08
2.65433e-08
9.67917e-10
9.76936e-10
9.69078e-10
9.75374e-10
5.66561e-09
2.68423e-09
2.31575e-09
2.56456e-09
3.30661e-09
8.84822e-09
1.3655e-07
1.9204e-07
1.17285e-07
1.35613e-07
1.82103e-07
6.56756e-08
2.28524e-08
2.3716e-08
9.78088e-09
2.31444e-09
1.6674e-09
1.77357e-09
2.27448e-09
3.32397e-09
3.79028e-09
6.66445e-09
9.44429e-09
3.92781e-09
1.82608e-08
2.00737e-07
2.16887e-07
1.56455e-07
8.22971e-08
2.6194e-08
1.70799e-08
1.40589e-08
1.08886e-08
4.67664e-09
2.6893e-09
2.33629e-09
2.35478e-09
4.39563e-09
6.14042e-09
9.25846e-09
1.51586e-08
2.24709e-08
1.08326e-08
1.75317e-07
2.39246e-07
1.47303e-07
1.6814e-07
2.29461e-08
6.49528e-09
6.07306e-09
5.67451e-09
3.64866e-09
2.23304e-09
1.92803e-09
1.98126e-09
2.49534e-09
3.54357e-09
6.14112e-09
1.35091e-08
2.07557e-08
2.82898e-08
4.0291e-08
1.88172e-07
2.07945e-07
8.52672e-08
1.68095e-07
2.51654e-09
2.59315e-09
2.26284e-09
1.74221e-09
1.18181e-09
1.01014e-09
1.02613e-09
1.19136e-09
1.57316e-09
2.23669e-09
3.46331e-09
6.08167e-09
9.39238e-09
1.21093e-08
3.73146e-08
7.83811e-08
5.44617e-08
7.10614e-09
1.56536e-07
6.55268e-10
7.40126e-10
6.39644e-10
4.85669e-10
4.19281e-10
4.2739e-10
4.7511e-10
6.05342e-10
8.60868e-10
1.31666e-09
2.15133e-09
3.25862e-09
4.71133e-09
6.39731e-09
1.52037e-08
2.4211e-08
7.31884e-09
3.08935e-09
9.85659e-08
1.88388e-10
1.78923e-10
1.62131e-10
1.50691e-10
1.61885e-10
1.89529e-10
2.5666e-10
3.96199e-10
6.68699e-10
1.2013e-09
2.27853e-09
3.89646e-09
6.14154e-09
8.4426e-09
9.38104e-09
1.21693e-08
6.50465e-09
3.08823e-09
8.43722e-08
3.93077e-11
4.12167e-11
4.74623e-11
5.29832e-11
6.47105e-11
9.40672e-11
1.47886e-10
2.35972e-10
4.6098e-10
1.06204e-09
2.4651e-09
5.02955e-09
9.99609e-09
1.51048e-08
1.8454e-08
1.18529e-08
4.85046e-09
3.10081e-09
1.14601e-07
1.02366e-11
1.19142e-11
1.41833e-11
1.7965e-11
2.40277e-11
3.21129e-11
3.6254e-11
6.45604e-11
1.64638e-10
5.43553e-10
1.82622e-09
5.26739e-09
1.22504e-08
2.83619e-08
3.9769e-08
2.79084e-08
4.84742e-09
1.18586e-08
1.22551e-07
2.70401e-12
3.33455e-12
4.14392e-12
5.17406e-12
6.46191e-12
4.84365e-12
5.46086e-12
1.33304e-11
4.41331e-11
1.7611e-10
8.08273e-10
3.80693e-09
1.27392e-08
3.18603e-08
4.97096e-08
4.97082e-08
1.03478e-08
1.45966e-08
1.22551e-07
6.7114e-13
8.25627e-13
9.59155e-13
1.13726e-12
1.33045e-12
1.0168e-12
1.11853e-12
3.59827e-12
1.46194e-11
6.77518e-11
3.40624e-10
2.82752e-09
1.08392e-08
2.80215e-08
4.97096e-08
4.97088e-08
2.97764e-08
4.61513e-08
1.19113e-07
1.54055e-13
1.72796e-13
1.80218e-13
1.98889e-13
2.27054e-13
2.50596e-13
3.94132e-13
1.42052e-12
6.32545e-12
2.97311e-11
1.46966e-10
1.04423e-09
7.40759e-09
1.88448e-08
4.44211e-08
4.43915e-08
2.99847e-08
1.12488e-07
1.09562e-07
3.52617e-14
3.52716e-14
3.51657e-14
3.92089e-14
5.45055e-14
9.77803e-14
2.4331e-13
8.21049e-13
3.07445e-12
1.39294e-11
6.19807e-11
5.371e-10
4.02598e-09
1.04449e-08
2.35383e-08
3.12805e-08
3.0872e-08
1.12484e-07
1.09615e-07
8.0593e-15
7.56709e-15
7.97081e-15
1.083e-14
2.05229e-14
5.3579e-14
1.69461e-13
5.56056e-13
1.94246e-12
7.66064e-12
3.07588e-11
1.29288e-10
1.07332e-09
5.27477e-09
1.01954e-08
2.15695e-08
4.10883e-08
1.03426e-07
2.1013e-07
1.97863e-15
1.88352e-15
2.21311e-15
3.86648e-15
1.0051e-14
3.16777e-14
1.15854e-13
4.05283e-13
1.42216e-12
5.04428e-12
1.97673e-11
8.88458e-11
5.63387e-10
1.63601e-09
5.02877e-09
1.16554e-08
3.72515e-08
5.06391e-08
3.83356e-07
4.97077e-16
5.00396e-16
7.14754e-16
1.59217e-15
4.95966e-15
1.77545e-14
6.499e-14
2.48232e-13
9.48196e-13
3.4516e-12
1.26005e-11
5.35088e-11
3.48836e-10
1.2688e-09
2.32657e-09
6.282e-09
1.8701e-08
3.03426e-08
3.83356e-07
1.22247e-16
1.34142e-16
2.24419e-16
5.90293e-16
2.04869e-15
8.00039e-15
3.04907e-14
1.19574e-13
4.86494e-13
1.92283e-12
7.5795e-12
3.13914e-11
1.56182e-10
1.00199e-09
2.55362e-09
3.91717e-09
5.23902e-09
2.59014e-08
3.83356e-07
2.73723e-17
3.13915e-17
5.81997e-17
1.69299e-16
6.39952e-16
2.65573e-15
1.08681e-14
4.57325e-14
1.83187e-13
7.32487e-13
3.0549e-12
1.37618e-11
6.11501e-11
3.93639e-10
2.169e-09
3.96677e-09
5.71096e-09
2.64097e-08
2.88643e-07
5.28869e-18
5.72678e-18
1.10047e-17
3.57168e-17
1.48102e-16
6.93766e-16
3.25327e-15
1.50635e-14
7.11205e-14
3.13484e-13
1.41703e-12
6.41013e-12
2.83624e-11
1.3576e-10
8.78408e-10
3.33432e-09
6.13936e-09
2.67308e-08
1.15589e-07
8.38678e-19
7.95627e-19
1.25803e-18
3.90441e-18
1.85553e-17
9.94867e-17
5.33153e-16
2.82277e-15
1.4815e-14
7.80751e-14
4.13571e-13
2.08214e-12
1.03801e-11
5.43768e-11
3.03902e-10
1.59162e-09
4.88346e-09
1.2648e-08
6.83742e-09
1.01426e-19
8.15058e-20
9.59673e-20
2.22348e-19
1.04468e-18
6.5672e-18
4.15426e-17
2.49599e-16
1.39138e-15
7.99533e-15
4.58191e-14
2.68441e-13
1.48832e-12
1.01335e-11
7.05494e-11
4.4286e-10
1.3465e-09
8.7579e-10
1.64474e-10
)
;

boundaryField
{
    leftWall
    {
        type            zeroGradient;
    }
    rightWall
    {
        type            zeroGradient;
    }
    lowerWall
    {
        type            zeroGradient;
    }
    atmosphere
    {
        type            inletOutlet;
        inletValue      uniform 0;
        value           nonuniform List<scalar> 
46
(
8.06887e-08
1.36832e-08
5.01837e-09
0
0
0
0
0
0
0
0
0
0
0
0
0
0
0
0
0
4.65043e-16
8.54426e-17
7.01965e-18
2.36342e-19
1.60533e-19
1.46604e-19
1.2458e-19
1.01426e-19
8.15058e-20
9.59673e-20
2.22348e-19
1.04468e-18
6.5672e-18
4.15426e-17
2.49599e-16
1.39138e-15
7.99533e-15
4.58191e-14
2.68441e-13
1.48832e-12
1.01335e-11
7.05494e-11
4.4286e-10
1.3465e-09
8.7579e-10
1.64474e-10
)
;
    }
    defaultFaces
    {
        type            empty;
    }
}


// ************************************************************************* //
