/*--------------------------------*- C++ -*----------------------------------*\
| =========                 |                                                 |
| \\      /  F ield         | OpenFOAM: The Open Source CFD Toolbox           |
|  \\    /   O peration     | Version:  2312                                  |
|   \\  /    A nd           | Website:  www.openfoam.com                      |
|    \\/     M anipulation  |                                                 |
\*---------------------------------------------------------------------------*/
FoamFile
{
    version     2.0;
    format      ascii;
    arch        "LSB;label=32;scalar=64";
    class       volScalarField;
    location    "5.1";
    object      alpha.water_0;
}
// * * * * * * * * * * * * * * * * * * * * * * * * * * * * * * * * * * * * * //

dimensions      [0 0 0 0 0 0 0];

internalField   nonuniform List<scalar> 
2268
(
3.25773e-07
3.25773e-07
2.40213e-07
6.94504e-09
4.21575e-10
7.95958e-10
6.29116e-10
2.8873e-10
1.59412e-10
1.14625e-10
9.61353e-11
8.83171e-11
8.74195e-11
8.7436e-11
9.43731e-11
1.14519e-10
1.53149e-10
2.11824e-10
2.99809e-10
5.81847e-10
1.06137e-09
1.35987e-09
1.40279e-09
2.76166e-07
2.04316e-07
6.48217e-08
5.02115e-09
3.99874e-10
3.9967e-10
3.02996e-10
3.02756e-10
2.71774e-10
2.49615e-10
2.44448e-10
2.46979e-10
2.46375e-10
2.17783e-10
2.01769e-10
2.22678e-10
3.24131e-10
4.38853e-10
6.02682e-10
8.76425e-10
1.19922e-09
1.32899e-09
1.27433e-09
5.46774e-08
2.19737e-08
7.57289e-09
5.4785e-09
5.40209e-09
5.9802e-09
4.78306e-09
9.55134e-10
6.09422e-10
6.46834e-10
7.7389e-10
1.03826e-09
1.1998e-09
1.21104e-09
9.75148e-10
6.82881e-10
5.86855e-10
6.47225e-10
7.20018e-10
8.71136e-10
9.36352e-10
9.16266e-10
8.29533e-10
7.24414e-09
4.64237e-09
1.665e-09
1.74183e-09
2.79566e-09
3.0516e-09
1.83047e-09
7.74682e-10
5.41034e-10
6.06225e-10
1.04696e-09
1.67242e-09
1.88963e-09
1.87178e-09
1.4211e-09
6.46815e-10
4.09738e-10
4.18381e-10
2.8742e-10
3.05046e-10
3.36585e-10
3.67742e-10
3.89597e-10
8.8033e-11
5.37322e-12
1.9428e-12
1.6627e-11
9.39667e-11
1.15597e-10
5.25782e-11
1.24984e-11
-3.8108e-14
-3.56799e-14
-2.23072e-14
-4.40944e-15
-2.08207e-20
1.02805e-19
5.86374e-20
1.15764e-19
4.79259e-20
-5.8549e-20
-3.47523e-17
-3.83109e-16
-6.64243e-16
-9.15896e-16
-3.318e-15
8.38081e-23
1.69989e-25
5.95378e-26
3.39282e-24
9.86074e-23
1.19202e-22
1.13412e-22
3.9286e-16
0.0104596
0.0334708
0.0597685
0.0901686
0.125822
0.165819
0.212176
0.250991
0.249901
0.248812
0.264117
0.280626
0.282662
0.291872
0.358018
0.514406
0.510519
0.498768
0.484758
0.477448
0.48526
0.513198
0.565592
0.627126
0.693882
0.758859
0.816534
0.864646
0.902646
0.933963
0.952709
0.926048
0.899144
0.902908
0.912795
0.91584
0.910573
0.920763
0.996327
0.995954
0.994491
0.992839
0.992917
0.994161
0.996476
0.998857
0.999674
0.999765
0.999766
0.999766
0.999766
0.999766
0.999765
0.999767
0.999768
0.999768
0.985271
0.989332
0.999577
0.988738
0.931802
0.01159
0.00773478
0.00334836
0.00288059
0.00521049
0.00657544
0.00819507
0.00863087
0.00869227
0.00884189
0.00904157
0.00904419
0.00717833
0.00569152
0.00473522
0.00451261
0.00400554
0.00360438
0.00360823
0.00370585
0.000479609
0.00047578
0.000471468
0.000467506
0.000462655
0.000457952
0.000452985
0.000448117
0.000445283
0.000441877
0.000437302
0.000432186
0.000248879
2.9515e-05
2.95367e-05
0.000180975
0.000501163
0.000910836
0.151234
0.157187
0.167268
0.212085
0.24702
0.241028
0.221901
0.209249
0.192324
0.19592
0.179835
0.109669
0.0372313
0.00560519
0.00494817
0.00366336
4.91519e-05
4.95038e-05
4.92042e-05
0.715959
0.84711
0.805297
0.799307
0.869882
0.89808
0.910149
0.905113
0.890297
0.901762
0.907151
0.878175
0.772693
0.526859
0.246134
0.158674
0.0969136
0.103417
0.0132657
0.768842
0.986814
0.983861
0.97981
0.987068
0.966853
0.975644
0.975637
0.959739
0.90399
0.938983
0.971276
0.975676
0.975675
0.566935
0.698492
0.752613
0.738838
0.428175
0.915155
0.978423
0.991445
0.991447
0.991117
0.986794
0.967329
0.975643
0.925054
0.856138
0.871614
0.919297
0.975667
0.975684
0.689486
0.87523
0.874446
0.865441
0.583353
0.973234
0.978083
0.991441
0.990227
0.971618
0.98675
0.96741
0.972047
0.959042
0.873307
0.823424
0.893236
0.960844
0.97155
0.909573
0.932978
0.940252
0.858611
0.707193
0.965205
0.967035
0.984586
0.990967
0.978275
0.933272
0.963776
0.975336
0.975336
0.896557
0.655994
0.904151
0.819342
0.819643
0.910141
0.89444
0.947628
0.916507
0.911692
0.999698
0.999732
0.999745
0.999746
0.999746
0.999742
0.999739
0.999746
0.999753
0.999766
0.999766
0.999766
0.999766
0.999767
0.999767
0.999767
0.999767
0.999768
0.999747
0.999735
0.999592
0.998885
0.99415
0.972241
0.987915
0.998929
0.998851
0.996228
0.984587
0.973774
0.969946
0.97335
0.977998
0.980901
0.983526
0.988313
0.99367
0.995106
0.995535
0.993655
0.990935
0.983811
0.979111
0.981636
0.99018
0.993796
0.536223
0.493599
0.461818
0.368351
0.295689
0.318055
0.390626
0.50327
0.57849
0.566358
0.568868
0.610868
0.677
0.702068
0.685765
0.669625
0.680827
0.685349
0.647859
0.572478
0.598247
0.683726
0.810434
0.00441676
0.00155232
0.000801546
3.13579e-07
3.9003e-08
2.45388e-08
0.000575471
0.000965381
8.26903e-10
5.08243e-19
1.88811e-37
-1.07575e-25
0.0119207
0.0310617
0.0260285
0.0180662
0.0233348
0.0219338
3.73651e-06
3.34648e-06
3.53895e-06
0.0211478
0.191082
5.19548e-16
5.39456e-16
5.80974e-06
7.5748e-05
7.77515e-05
5.56667e-05
7.34513e-06
1.22655e-07
3.89212e-24
-6.54161e-24
6.04843e-24
-5.447e-23
3.9176e-06
4.073e-05
4.46307e-05
1.78937e-05
5.96037e-06
5.32897e-06
1.17288e-05
0.000178378
6.55047e-05
-2.86291e-08
5.58534e-20
8.36729e-09
2.4698e-05
5.42068e-05
5.33626e-05
5.33111e-05
8.01843e-05
1.67106e-05
1.96664e-07
2.59581e-07
2.14063e-05
5.46472e-05
5.03713e-05
7.29722e-05
0.000239577
0.000408927
0.000250253
0.000219695
9.56214e-05
0.000422551
0.00284672
0.00111681
9.93489e-05
-2.90594e-09
1.81868e-05
0.000135239
0.000173201
0.0003207
0.000407499
0.000444402
0.00049332
0.000402092
0.000321908
0.000318745
0.000322535
0.000209457
9.10453e-05
8.90718e-05
0.00246383
0.00675493
0.00515929
0.000885883
0.000370756
0.00593314
0.00752848
0.00131867
0.000257045
0.00018347
0.000293866
0.000109275
0.000338995
0.00214695
0.00444125
0.0046035
0.00429115
0.00367015
0.00303668
0.00263255
0.00170875
0.000642142
8.89973e-05
0.00133399
0.0132648
0.0138472
0.0113991
0.00116767
0.00236369
0.0153728
0.00626384
0.000396925
0.00033988
0.000339703
9.60312e-05
5.0532e-05
0.00181739
0.00449079
0.0045558
0.00447943
0.00401807
0.00308442
0.00238098
0.00186063
0.00148072
0.000307516
0.000251029
0.000915292
0.0100926
0.0120808
0.0102838
0.0101139
0.0193721
0.019588
0.00534388
0.000111715
0.000112541
6.65708e-05
2.72125e-05
3.22005e-08
2.57019e-08
6.23857e-08
6.19525e-08
6.80269e-08
6.49506e-08
4.56363e-08
2.72389e-08
2.95952e-05
0.000253351
0.0002497
4.77255e-05
4.45345e-07
6.9363e-05
1.01123e-07
0.00463883
0.0190698
0.0202249
0.0202127
7.11177e-08
5.38967e-08
2.81059e-08
2.55196e-08
2.56475e-08
3.4689e-08
5.544e-08
1.6712e-07
4.05121e-07
4.18677e-07
1.39234e-07
2.67933e-08
2.7053e-08
3.23203e-08
1.73655e-07
3.71963e-07
4.45646e-07
2.02033e-07
1.24164e-07
2.03761e-08
0.000893484
0.0172518
0.020225
2.18156e-07
1.42952e-07
3.4804e-08
2.54183e-08
3.60533e-08
9.23563e-08
2.1653e-07
8.29657e-07
1.50654e-06
1.35865e-06
9.14086e-07
4.58504e-07
3.19842e-07
3.22378e-08
2.03557e-06
5.05046e-06
2.7928e-06
9.55286e-07
1.20567e-07
1.96944e-08
1.03686e-08
8.98558e-10
0.0134581
3.94398e-07
2.92766e-07
8.38425e-08
5.03867e-08
7.7463e-08
2.2704e-07
7.45971e-07
1.84657e-06
1.84657e-06
1.84608e-06
1.24579e-06
1.21979e-06
1.32545e-06
7.92899e-06
1.44815e-05
1.41322e-05
1.27907e-05
2.48673e-06
2.01384e-07
9.70927e-08
1.66274e-08
5.16881e-10
2.84285e-07
3.82382e-07
1.67022e-07
6.9529e-08
6.29865e-08
6.22556e-08
1.41743e-07
7.75868e-07
1.84657e-06
1.84657e-06
1.29003e-06
4.52172e-07
2.96587e-07
1.89482e-06
1.75894e-05
2.04574e-05
1.88322e-05
1.83948e-05
3.40126e-06
7.06776e-07
4.15499e-07
6.45577e-08
4.21454e-12
6.98972e-12
1.80542e-07
2.73448e-08
1.82007e-08
1.91907e-08
1.5711e-08
5.96422e-08
1.32798e-07
4.67109e-07
6.77048e-07
1.63145e-09
1.59908e-09
3.3503e-08
2.43659e-07
7.81689e-06
2.08578e-05
2.09054e-05
1.11013e-05
2.80279e-07
2.67529e-07
1.23476e-06
1.70999e-07
2.47732e-10
4.26087e-12
1.61119e-08
1.05354e-08
1.30811e-08
1.29602e-08
1.57742e-08
1.563e-08
1.31624e-09
1.33119e-09
1.34179e-09
2.00431e-09
3.16535e-09
6.77618e-09
1.38336e-08
7.44293e-08
5.10071e-06
6.83825e-06
2.78353e-10
2.08662e-10
3.79137e-08
1.35956e-05
2.53044e-05
1.99516e-05
6.36115e-06
7.95208e-09
6.38367e-09
9.51387e-09
9.36752e-09
1.11778e-08
3.44645e-09
1.38492e-09
1.35044e-09
1.38734e-09
2.71926e-09
3.91873e-09
5.29677e-09
6.92469e-09
8.37517e-09
7.73424e-09
9.4239e-09
1.94314e-08
4.05768e-08
3.49842e-11
1.26383e-05
3.44666e-05
3.45149e-05
3.44733e-05
1.02624e-08
3.35447e-09
4.70454e-09
5.85676e-09
6.27606e-09
4.14836e-09
2.28126e-09
1.61857e-09
1.47563e-09
2.09453e-09
2.41992e-09
2.92346e-09
4.78575e-09
6.28983e-09
7.58626e-09
9.80795e-09
1.51038e-08
1.19084e-08
1.02592e-12
3.67415e-07
4.99571e-06
2.20232e-05
3.48006e-05
1.32988e-08
2.81756e-09
3.14139e-09
3.75596e-09
3.63921e-09
3.00643e-09
2.47615e-09
1.5594e-09
1.15747e-09
1.12515e-09
1.34531e-09
1.93834e-09
2.87532e-09
4.21718e-09
6.12024e-09
7.79437e-09
7.33727e-09
4.31378e-09
1.73229e-09
2.9252e-10
2.95545e-10
1.49492e-08
1.70737e-05
1.41248e-08
2.04585e-09
2.13033e-09
2.5356e-09
2.3011e-09
1.89762e-09
1.4472e-09
1.08099e-09
7.94108e-10
6.85877e-10
7.16412e-10
8.91204e-10
1.1029e-09
1.65898e-09
2.46416e-09
3.25094e-09
3.61958e-09
3.10246e-09
1.93161e-09
2.59546e-09
1.45947e-08
3.59385e-08
1.30096e-06
1.40882e-08
1.31885e-09
1.11e-09
1.3257e-09
1.14282e-09
9.30298e-10
7.0738e-10
5.22174e-10
3.9964e-10
3.46394e-10
3.47127e-10
4.09774e-10
5.02829e-10
6.60958e-10
8.96693e-10
1.17945e-09
1.36946e-09
1.41e-09
1.46889e-09
4.06022e-09
6.78905e-08
2.25586e-07
2.17093e-07
1.36555e-08
9.37024e-10
6.402e-10
6.98721e-10
5.6749e-10
4.2995e-10
3.181e-10
2.41132e-10
1.8646e-10
1.56385e-10
1.49068e-10
1.69262e-10
2.03612e-10
2.55935e-10
3.29668e-10
4.33509e-10
5.43699e-10
6.50583e-10
7.71299e-10
1.30352e-09
1.16346e-08
1.34578e-07
1.94965e-07
1.3198e-08
6.78781e-10
4.02494e-10
4.1878e-10
3.59545e-10
2.94024e-10
2.34353e-10
1.75673e-10
1.28373e-10
9.39455e-11
7.30404e-11
6.74204e-11
7.40789e-11
9.10503e-11
1.20303e-10
1.61881e-10
2.23579e-10
3.16513e-10
4.79563e-10
8.1024e-10
1.70584e-09
1.09242e-08
5.7488e-08
1.30721e-08
5.16044e-10
3.34998e-10
3.51243e-10
3.89255e-10
4.37702e-10
3.72734e-10
2.28804e-10
1.54185e-10
9.46761e-11
5.80791e-11
3.8616e-11
3.06912e-11
3.12654e-11
3.93095e-11
5.48153e-11
8.14675e-11
1.26845e-10
2.14702e-10
3.93882e-10
7.42456e-10
1.152e-09
5.25073e-09
1.29475e-08
3.84264e-10
3.31467e-10
4.63014e-10
7.692e-10
9.10012e-10
6.43729e-10
3.0714e-10
2.09392e-10
1.26508e-10
7.06101e-11
3.83648e-11
2.23136e-11
1.52139e-11
1.43279e-11
1.83033e-11
2.7535e-11
4.50724e-11
7.77157e-11
1.51763e-10
2.80741e-10
5.82898e-10
1.03491e-09
1.28825e-08
3.31275e-10
3.79022e-10
7.64642e-10
1.35688e-09
1.78291e-09
1.25003e-09
3.98276e-10
2.7809e-10
1.68825e-10
9.12428e-11
4.83601e-11
2.53936e-11
1.33317e-11
7.80165e-12
6.98889e-12
9.41553e-12
1.51061e-11
2.60922e-11
4.8193e-11
1.00453e-10
1.95809e-10
4.07159e-10
1.28786e-08
3.4472e-10
6.13826e-10
1.30433e-09
2.25219e-09
3.19612e-09
2.56297e-09
4.87126e-10
3.52321e-10
2.1729e-10
1.14764e-10
6.03591e-11
3.1499e-11
1.56347e-11
7.5852e-12
3.91475e-12
3.55918e-12
5.11653e-12
8.64097e-12
1.55361e-11
2.69022e-11
6.17893e-11
1.24857e-10
1.30059e-08
4.58591e-10
1.2116e-09
2.62336e-09
4.62318e-09
9.39234e-09
4.29779e-09
5.36712e-10
4.12711e-10
2.62246e-10
1.33618e-10
6.98718e-11
3.74704e-11
1.90213e-11
8.88136e-12
3.88163e-12
1.88466e-12
1.87083e-12
2.92983e-12
4.92694e-12
9.3846e-12
1.70956e-11
3.33517e-11
1.32738e-08
6.84717e-10
2.70187e-09
1.72781e-08
4.49773e-08
6.12821e-08
3.44688e-09
5.04099e-10
5.00437e-10
3.02145e-10
1.4194e-10
7.31301e-11
4.06698e-11
2.17247e-11
1.04719e-11
4.52777e-12
1.80974e-12
8.66026e-13
1.00526e-12
1.68691e-12
2.87935e-12
5.32134e-12
1.00424e-11
1.34795e-08
1.1353e-09
1.02077e-08
1.2716e-07
4.33733e-07
2.26238e-07
4.74972e-10
5.34655e-10
5.77245e-10
3.0185e-10
1.33966e-10
6.86542e-11
3.9692e-11
2.25624e-11
1.15838e-11
5.21624e-12
2.06521e-12
6.03219e-13
3.77993e-13
5.05545e-13
9.2055e-13
1.73153e-12
2.92706e-12
1.4304e-08
2.02488e-09
4.80415e-08
4.63808e-07
7.48476e-07
2.48324e-07
4.79993e-10
6.56857e-10
6.38417e-10
2.74074e-10
1.11472e-10
5.64003e-11
3.43928e-11
2.10519e-11
1.17051e-11
5.5886e-12
2.26761e-12
7.59736e-13
1.91321e-13
1.72375e-13
2.74183e-13
4.95887e-13
9.0343e-13
1.50117e-08
5.03298e-09
1.63383e-07
7.81539e-07
7.48308e-07
4.52147e-08
4.77839e-10
9.52971e-10
6.52161e-10
2.28572e-10
8.48732e-11
4.24798e-11
2.70427e-11
1.74447e-11
1.0532e-11
5.49057e-12
2.37738e-12
8.64436e-13
1.50898e-13
6.5733e-14
8.90553e-14
1.65467e-13
2.6089e-13
1.50849e-08
1.74375e-08
3.97572e-07
7.74128e-07
4.644e-07
4.8057e-10
7.30777e-10
1.22869e-09
5.82241e-10
1.66982e-10
5.73677e-11
2.8725e-11
1.88108e-11
1.28544e-11
8.33764e-12
4.79375e-12
2.29077e-12
9.00425e-13
1.94315e-13
3.80446e-14
2.61965e-14
4.29221e-14
8.13362e-14
1.43598e-08
3.94671e-08
5.57175e-07
7.61522e-07
1.6901e-07
4.78869e-10
1.30173e-09
1.15295e-09
3.41851e-10
1.15329e-10
3.8831e-11
1.86654e-11
1.24465e-11
8.51446e-12
5.7478e-12
3.64949e-12
1.96494e-12
8.37314e-13
2.37613e-13
3.0436e-14
8.52594e-15
1.3772e-14
2.13373e-14
1.43614e-08
4.92717e-08
6.24785e-07
7.14555e-07
4.92659e-10
5.65762e-10
1.78742e-09
8.75628e-10
2.2886e-10
7.80354e-11
2.38304e-11
1.14639e-11
7.4552e-12
4.98443e-12
3.42452e-12
2.35922e-12
1.45061e-12
6.97498e-13
2.47059e-13
3.08864e-14
3.36456e-15
3.2334e-15
6.11503e-15
1.53756e-08
6.56708e-08
5.14631e-07
3.93637e-07
4.91691e-10
1.19095e-09
2.38936e-09
8.42593e-10
2.25682e-10
5.27006e-11
1.38316e-11
6.54025e-12
4.15997e-12
2.62694e-12
1.74709e-12
1.26157e-12
8.87076e-13
5.10343e-13
2.11028e-13
3.32591e-14
2.41652e-15
1.11205e-15
1.63229e-15
2.46456e-08
8.02566e-08
3.32895e-07
9.29339e-08
8.6905e-09
2.74196e-09
2.93386e-09
1.00278e-09
2.38674e-10
3.90681e-11
7.56419e-12
3.4748e-12
2.16974e-12
1.26748e-12
7.70865e-13
5.45511e-13
4.24263e-13
2.9723e-13
1.52352e-13
3.40853e-14
3.23213e-15
3.64219e-16
4.39518e-16
2.99525e-08
7.03228e-08
3.30734e-07
3.86074e-08
4.54681e-09
6.91432e-09
3.69715e-09
1.08771e-09
2.45551e-10
3.51675e-11
4.08046e-12
1.67178e-12
1.0419e-12
5.68187e-13
3.02231e-13
1.9099e-13
1.51675e-13
1.26199e-13
8.66422e-14
2.79862e-14
3.25666e-15
1.94324e-16
1.08229e-16
3.10529e-08
4.3775e-08
7.93731e-08
3.73462e-09
5.92213e-09
1.14909e-08
3.88183e-09
1.00132e-09
2.06854e-10
2.69637e-11
2.122e-12
6.81811e-13
4.42629e-13
2.31773e-13
1.07102e-13
5.44607e-14
3.9639e-14
3.77923e-14
3.54332e-14
1.74015e-14
2.95779e-15
1.56467e-16
2.85038e-17
3.55626e-08
1.10564e-08
1.61554e-09
1.61544e-09
1.74459e-08
1.23031e-08
3.15289e-09
7.0145e-10
1.23568e-10
1.36937e-11
8.47733e-13
2.22076e-13
1.49615e-13
7.9366e-14
3.36371e-14
1.35424e-14
7.55715e-15
7.36084e-15
9.3216e-15
8.0285e-15
1.87791e-15
1.49551e-16
1.00174e-17
5.42569e-08
7.91573e-09
1.61544e-09
3.70313e-09
1.76183e-08
6.99533e-09
1.74058e-09
3.35719e-10
4.23154e-11
3.5686e-12
1.65969e-13
4.63131e-14
3.49284e-14
1.96438e-14
8.1733e-15
2.73168e-15
1.04142e-15
9.5615e-16
1.65191e-15
2.53041e-15
1.00908e-15
1.21197e-16
8.89693e-18
8.07339e-08
1.3706e-08
5.05328e-09
2.59273e-08
1.26388e-08
1.38077e-09
3.87928e-10
5.79162e-11
4.59783e-12
1.93294e-13
6.78147e-15
4.78575e-15
4.18732e-15
2.60214e-15
1.14065e-15
3.45406e-16
9.45572e-17
7.69096e-17
2.1224e-16
5.71664e-16
4.65398e-16
8.56842e-17
7.04758e-18
0.996116
0.996135
0.989854
0.984736
0.993161
0.993844
0.993857
0.989481
0.907164
0.945288
0.969847
0.985963
0.427159
0.476889
0.418292
0.25287
0.00236628
0.00354554
0.00084521
6.61481e-08
-9.66779e-07
8.58905e-06
-3.43131e-15
-4.20786e-13
0.000332371
0.000130902
4.71946e-14
8.66896e-11
0.000533803
0.000545398
0.000378347
0.000138083
0.000395713
0.000396881
0.000409924
0.000341567
0.0178071
0.00427605
0.000404459
0.000337972
0.0193318
0.0202384
0.0202345
0.0202218
0.0202339
0.0202414
0.0202384
0.0202345
-4.98898e-08
0.0132223
0.0201684
0.00899484
8.91009e-08
5.86117e-07
1.84352e-06
3.24204e-06
1.91805e-07
6.72235e-07
6.06518e-07
2.88663e-07
4.55157e-08
4.64636e-08
1.47161e-07
1.15416e-07
1.6164e-05
1.2476e-05
2.6099e-05
3.61599e-05
3.84867e-05
3.85596e-05
3.85154e-05
3.85596e-05
3.85605e-05
3.85555e-05
1.79154e-05
8.78836e-08
1.48793e-05
1.45998e-05
1.24489e-06
1.3482e-08
8.35981e-08
7.38837e-08
5.12228e-09
1.34026e-08
1.25344e-07
2.52873e-08
5.14325e-09
9.30376e-09
7.59093e-08
2.50333e-08
5.06865e-09
3.43088e-08
6.34566e-09
9.49418e-09
5.04325e-09
3.28825e-08
1.13478e-09
3.12604e-09
5.33448e-09
1.32929e-08
6.4685e-10
9.92027e-10
2.04306e-09
2.97098e-09
2.07402e-10
3.20655e-10
5.23639e-10
7.21932e-10
5.25677e-11
7.32953e-11
1.23657e-10
1.64497e-10
1.38626e-11
1.89955e-11
2.78005e-11
3.51072e-11
4.38194e-12
5.13889e-12
7.05971e-12
8.72172e-12
1.21117e-12
1.46533e-12
1.91339e-12
2.33358e-12
3.62284e-13
4.14977e-13
4.99732e-13
5.7583e-13
9.73958e-14
1.04517e-13
1.2491e-13
1.36341e-13
2.78166e-14
2.80754e-14
2.97707e-14
3.39794e-14
7.10326e-15
6.96588e-15
7.71152e-15
7.70927e-15
1.9549e-15
1.94358e-15
1.88309e-15
2.00596e-15
5.11143e-16
4.78971e-16
5.23107e-16
4.99582e-16
1.32743e-16
1.23304e-16
1.15234e-16
1.24325e-16
2.80727e-17
2.41872e-17
2.76532e-17
2.62855e-17
5.80194e-18
5.46651e-18
4.80361e-18
5.30802e-18
1.13777e-18
8.56991e-19
9.50456e-19
9.3024e-19
2.34828e-19
1.60393e-19
1.45663e-19
1.23915e-19
0.969767
0.959777
0.978607
0.990976
0.987316
0.932562
0.940228
0.975336
0.975336
0.857105
0.660521
0.903566
0.678428
0.640364
0.683514
0.947649
0.947649
0.947575
0.897426
0.978831
0.946224
0.921925
0.906123
0.95193
0.957934
0.973307
0.973386
0.902807
0.670927
0.678339
0.904085
0.870575
0.729461
0.797778
0.947649
0.947649
0.944722
0.905727
0.68146
0.480091
0.520261
0.658604
0.769803
0.73446
0.724608
0.682184
0.16945
0.1402
0.137609
0.194833
0.497825
0.673772
0.702536
0.584189
0.571804
0.599965
0.590374
0.0488579
0.109459
0.117049
0.111084
0.175865
0.097201
0.0768658
0.0537601
1.43755e-12
2.60149e-12
9.74094e-10
2.75995e-06
0.00478458
0.0063598
0.0164889
0.000323374
0.000323303
0.000324092
0.000324942
8.82248e-06
0.0207302
0.0245525
0.000190867
0.000101791
9.32778e-05
8.24941e-05
5.91118e-05
5.92049e-05
1.14853e-12
2.75534e-11
1.79536e-06
0.000192756
0.000298877
0.000388664
0.00038559
0.000385835
0.000328253
0.000390595
0.00028268
0.0240148
0.0365231
0.000851505
0.000703253
0.000132977
0.000129159
0.000287505
0.000331117
0.000282287
-3.11631e-12
-8.03568e-10
0.000186595
0.000344
0.000526153
0.000810741
0.000890586
0.00136505
0.00245349
0.000128132
0.0495262
0.067983
0.0227257
0.000847945
7.98502e-05
7.45772e-05
6.60262e-05
3.24322e-05
0.000275547
0.00128507
0.00157624
0.00169645
0.00215304
0.00261878
0.00261917
0.00261886
0.00261919
0.00261887
0.000155705
0.0560395
0.0681161
0.0395254
0.000619812
0.000625767
9.48226e-05
2.95606e-08
2.78672e-08
2.85173e-06
0.000105965
0.000500897
0.00114298
0.00199117
0.0020376
0.00212911
0.00147891
0.00112614
0.00112593
0.000170356
0.0319618
0.0580143
0.0200482
0.000609349
0.000290899
3.48605e-05
2.74072e-08
2.73115e-08
1.73577e-05
5.4041e-05
3.79633e-05
4.09847e-06
3.49261e-06
8.85481e-07
1.58471e-06
1.29026e-06
1.27138e-06
1.27146e-06
0.000353422
0.00145101
0.00540967
0.000607256
0.000281232
1.24693e-06
1.31655e-06
4.72798e-06
6.57711e-06
4.40066e-06
3.63976e-06
2.71472e-06
7.58441e-07
7.63908e-07
9.13946e-07
2.03314e-06
4.86064e-06
2.22803e-06
2.18316e-06
0.010169
3.58672e-07
1.59763e-08
-6.96473e-09
-2.93134e-10
6.31138e-08
5.31124e-06
1.36234e-05
1.38051e-05
1.27257e-05
3.386e-06
1.42571e-07
7.31327e-07
1.71901e-06
4.03814e-06
5.07538e-06
2.02489e-05
3.54168e-06
2.85163e-06
0.0170345
0.000592215
2.39752e-08
2.83136e-06
1.39598e-07
1.84883e-08
1.3606e-05
1.94401e-05
1.86878e-05
1.24964e-05
2.74614e-06
1.43513e-07
1.42961e-07
2.26821e-06
4.76703e-06
2.81722e-05
4.05704e-05
1.44371e-05
2.68485e-06
0.00149291
8.38012e-05
2.59945e-05
1.11185e-05
3.83286e-07
6.08484e-08
6.06408e-06
2.8768e-05
1.54137e-05
2.61344e-06
7.39944e-07
1.42909e-07
1.46311e-07
5.51939e-07
3.10435e-06
4.05725e-05
4.05704e-05
2.01726e-05
2.68829e-06
1.06274e-06
1.88402e-05
1.8873e-05
7.45914e-06
5.39214e-07
5.18301e-08
1.79991e-06
2.86415e-05
8.64278e-06
2.00127e-06
2.75332e-06
4.02196e-06
4.91032e-06
1.99104e-06
1.59058e-06
3.83265e-05
4.05704e-05
1.7231e-05
2.55501e-06
1.98643e-07
5.70247e-07
7.61777e-07
6.84883e-07
1.82582e-07
1.58351e-08
3.87842e-06
2.86767e-05
2.44172e-05
1.94315e-06
5.95155e-06
5.76283e-06
2.63795e-06
1.08139e-06
4.22928e-06
3.83764e-05
2.14067e-05
3.37278e-06
8.17634e-07
6.51686e-08
1.88796e-07
1.75341e-07
1.82257e-07
7.9417e-08
8.87241e-07
1.26187e-05
1.55192e-05
6.35232e-06
1.93931e-06
4.32244e-06
4.31365e-06
1.07657e-06
1.07609e-06
2.66919e-05
3.36587e-05
1.41147e-06
8.87035e-08
2.53348e-07
3.10386e-05
8.64783e-06
6.08311e-08
7.45628e-08
3.35065e-06
1.0676e-05
4.2291e-05
2.82761e-05
1.08356e-05
7.80109e-06
2.51101e-05
2.96217e-05
2.54693e-05
2.51715e-05
1.8907e-05
1.57404e-06
9.26173e-07
8.90216e-08
8.48368e-08
3.14455e-05
3.01935e-05
2.3593e-05
4.75601e-06
7.16191e-06
2.44872e-05
4.22999e-05
4.2294e-05
4.22999e-05
4.22809e-05
4.17885e-05
3.14582e-05
2.00045e-05
6.38435e-06
1.03594e-07
1.03613e-07
3.66501e-07
3.72033e-07
7.60291e-08
4.22214e-06
2.44753e-05
2.84409e-05
2.20768e-05
6.53351e-06
1.37398e-05
2.64374e-05
2.93858e-05
1.82541e-05
1.30496e-05
1.11706e-05
4.74855e-06
1.05699e-06
5.91425e-07
2.3337e-07
1.03761e-07
1.30998e-07
3.94311e-07
7.8227e-08
1.39491e-08
2.23158e-06
1.4065e-05
1.76986e-05
1.62005e-06
7.22765e-07
6.18187e-06
6.6216e-06
6.11361e-06
3.5615e-06
1.68069e-07
1.00922e-09
1.01083e-09
4.74547e-08
3.85066e-07
5.40709e-07
4.51353e-07
3.18841e-07
8.65018e-08
1.40616e-07
3.57557e-07
9.42826e-08
1.30888e-06
3.01022e-08
3.0389e-07
5.99737e-07
3.14571e-07
3.66946e-07
3.56886e-07
1.29038e-07
7.51283e-09
1.13111e-09
1.16703e-09
1.34399e-07
5.40796e-07
5.09564e-07
1.16801e-07
8.65108e-08
1.93726e-07
3.7879e-07
8.69193e-08
2.55452e-08
2.86367e-08
2.73946e-08
9.72336e-10
9.80234e-10
9.82492e-10
9.87578e-10
5.07976e-09
2.50982e-09
2.31543e-09
2.59338e-09
3.14627e-09
7.58123e-09
1.38724e-07
1.91042e-07
1.186e-07
1.30009e-07
1.68483e-07
6.56644e-08
2.26448e-08
2.30758e-08
1.0121e-08
2.36222e-09
1.71128e-09
1.82533e-09
2.35534e-09
3.34454e-09
3.8591e-09
6.8473e-09
9.56657e-09
3.85051e-09
1.87219e-08
2.06969e-07
2.17425e-07
1.55704e-07
8.2078e-08
2.64426e-08
1.67068e-08
1.39176e-08
1.08634e-08
4.44094e-09
2.65594e-09
2.33554e-09
2.36813e-09
4.45219e-09
6.21983e-09
9.42324e-09
1.54416e-08
2.32369e-08
1.0339e-08
1.83048e-07
2.41096e-07
1.4459e-07
1.68035e-07
2.28556e-08
6.81045e-09
5.7776e-09
5.44389e-09
3.45302e-09
2.16863e-09
1.91009e-09
1.97883e-09
2.50207e-09
3.55273e-09
6.19436e-09
1.3675e-08
2.12863e-08
2.8376e-08
4.2703e-08
1.86099e-07
2.02877e-07
8.00473e-08
1.67988e-07
2.55894e-09
2.50216e-09
2.18447e-09
1.65872e-09
1.13197e-09
9.87015e-10
1.01164e-09
1.18121e-09
1.56599e-09
2.23076e-09
3.45173e-09
6.03428e-09
9.28347e-09
1.1983e-08
3.78416e-08
7.77947e-08
5.10407e-08
6.78301e-09
1.54473e-07
6.61662e-10
7.08246e-10
6.128e-10
4.64218e-10
4.06758e-10
4.1852e-10
4.67727e-10
5.98988e-10
8.55148e-10
1.31168e-09
2.14684e-09
3.23938e-09
4.66653e-09
6.32685e-09
1.46306e-08
2.26852e-08
7.56899e-09
3.10258e-09
9.78719e-08
1.82297e-10
1.70242e-10
1.55609e-10
1.46012e-10
1.58401e-10
1.8659e-10
2.54296e-10
3.94236e-10
6.67215e-10
1.2025e-09
2.2871e-09
3.92234e-09
6.21515e-09
8.48496e-09
9.58478e-09
1.22087e-08
6.58833e-09
3.08791e-09
8.5817e-08
3.78036e-11
4.0684e-11
4.6105e-11
5.18341e-11
6.35542e-11
9.29558e-11
1.46528e-10
2.34419e-10
4.59732e-10
1.06211e-09
2.46975e-09
5.04353e-09
1.00506e-08
1.55583e-08
1.92473e-08
1.18165e-08
4.8393e-09
3.08936e-09
1.15158e-07
9.99871e-12
1.1802e-11
1.3839e-11
1.76208e-11
2.36594e-11
3.16145e-11
3.5706e-11
6.37256e-11
1.63097e-10
5.39899e-10
1.819e-09
5.269e-09
1.22695e-08
2.8518e-08
3.99222e-08
2.94235e-08
4.83778e-09
1.22408e-08
1.22551e-07
2.64806e-12
3.3175e-12
4.06175e-12
5.08377e-12
6.37758e-12
4.78802e-12
5.38227e-12
1.3144e-11
4.35235e-11
1.73427e-10
7.95595e-10
3.76316e-09
1.27418e-08
3.1599e-08
4.97095e-08
4.97082e-08
1.11651e-08
1.47934e-08
1.22551e-07
6.59229e-13
8.12466e-13
9.39026e-13
1.11802e-12
1.31388e-12
1.01333e-12
1.10002e-12
3.57918e-12
1.44865e-11
6.70903e-11
3.36557e-10
2.7814e-09
1.06786e-08
2.77228e-08
4.97097e-08
4.97091e-08
2.99446e-08
4.94449e-08
1.18902e-07
1.51873e-13
1.70291e-13
1.79638e-13
1.95567e-13
2.24062e-13
2.49005e-13
3.92465e-13
1.40648e-12
6.25856e-12
2.94106e-11
1.45325e-10
1.00155e-09
7.35557e-09
1.85007e-08
4.35435e-08
4.41465e-08
2.98092e-08
1.12479e-07
1.09402e-07
3.49105e-14
3.48977e-14
3.48213e-14
3.90656e-14
5.42459e-14
9.71545e-14
2.41193e-13
8.13511e-13
3.03802e-12
1.37787e-11
6.09451e-11
5.09436e-10
3.92133e-09
1.04437e-08
2.31978e-08
3.0616e-08
3.07783e-08
1.12485e-07
1.09453e-07
7.99963e-15
7.50586e-15
7.89855e-15
1.07264e-14
2.04486e-14
5.30743e-14
1.67832e-13
5.50671e-13
1.92074e-12
7.56235e-12
3.03928e-11
1.25255e-10
1.03566e-09
5.08053e-09
1.0067e-08
2.14745e-08
4.12133e-08
1.01993e-07
2.17906e-07
1.96765e-15
1.87117e-15
2.19098e-15
3.80391e-15
9.84365e-15
3.15019e-14
1.14636e-13
4.00982e-13
1.40722e-12
4.98579e-12
1.95303e-11
8.69215e-11
5.56433e-10
1.60753e-09
4.88537e-09
1.14582e-08
3.70529e-08
4.91733e-08
3.83356e-07
4.9439e-16
4.96691e-16
7.05969e-16
1.56232e-15
4.84801e-15
1.73285e-14
6.46401e-14
2.45347e-13
9.37109e-13
3.4124e-12
1.24508e-11
5.23945e-11
3.37602e-10
1.26242e-09
2.29977e-09
6.24364e-09
1.78971e-08
2.96264e-08
3.83356e-07
1.21538e-16
1.3305e-16
2.21394e-16
5.7913e-16
2.00274e-15
7.81688e-15
3.0332e-14
1.18192e-13
4.80368e-13
1.89716e-12
7.47893e-12
3.09521e-11
1.51777e-10
9.79817e-10
2.54987e-09
3.85876e-09
5.22729e-09
2.5762e-08
3.83356e-07
2.72019e-17
3.11271e-17
5.74511e-17
1.66357e-16
6.27031e-16
2.59839e-15
1.08033e-14
4.52432e-14
1.80963e-13
7.22046e-13
3.00259e-12
1.35342e-11
5.99701e-11
3.79228e-10
2.1388e-09
3.96041e-09
5.75734e-09
2.63017e-08
2.79854e-07
5.25587e-18
5.68171e-18
1.08783e-17
3.51934e-17
1.45445e-16
6.79921e-16
3.17977e-15
1.49835e-14
7.03492e-14
3.09664e-13
1.39809e-12
6.31821e-12
2.79613e-11
1.32824e-10
8.49396e-10
3.30339e-09
6.14502e-09
2.64783e-08
1.13947e-07
8.33814e-19
7.91177e-19
1.24761e-18
3.85463e-18
1.82556e-17
9.75789e-17
5.21124e-16
2.74773e-15
1.44757e-14
7.74125e-14
4.06625e-13
2.04424e-12
1.01826e-11
5.34379e-11
2.97007e-10
1.54991e-09
4.79438e-09
1.21275e-08
6.99249e-09
1.00914e-19
8.12073e-20
9.54807e-20
2.19654e-19
1.02337e-18
6.39533e-18
4.02535e-17
2.40529e-16
1.32855e-15
7.61897e-15
4.50102e-14
2.63055e-13
1.45118e-12
9.88257e-12
6.90899e-11
4.32117e-10
1.29752e-09
8.16596e-10
1.64473e-10
)
;

boundaryField
{
    leftWall
    {
        type            zeroGradient;
    }
    rightWall
    {
        type            zeroGradient;
    }
    lowerWall
    {
        type            zeroGradient;
    }
    atmosphere
    {
        type            inletOutlet;
        inletValue      uniform 0;
        value           nonuniform List<scalar> 
46
(
8.07339e-08
1.3706e-08
5.05328e-09
0
0
0
0
0
0
0
0
0
0
0
0
0
0
0
0
0
4.65398e-16
8.56842e-17
7.04758e-18
2.34828e-19
1.60393e-19
1.45663e-19
1.23915e-19
1.00914e-19
8.12073e-20
9.54807e-20
2.19654e-19
1.02337e-18
6.39533e-18
4.02535e-17
2.40529e-16
1.32855e-15
7.61897e-15
4.50102e-14
2.63055e-13
1.45118e-12
9.88257e-12
6.90899e-11
4.32117e-10
1.29752e-09
8.16596e-10
1.64473e-10
)
;
    }
    defaultFaces
    {
        type            empty;
    }
}


// ************************************************************************* //
