/*--------------------------------*- C++ -*----------------------------------*\
| =========                 |                                                 |
| \\      /  F ield         | OpenFOAM: The Open Source CFD Toolbox           |
|  \\    /   O peration     | Version:  2312                                  |
|   \\  /    A nd           | Website:  www.openfoam.com                      |
|    \\/     M anipulation  |                                                 |
\*---------------------------------------------------------------------------*/
FoamFile
{
    version     2.0;
    format      ascii;
    arch        "LSB;label=32;scalar=64";
    class       volScalarField;
    location    "5.1";
    object      p_rgh;
}
// * * * * * * * * * * * * * * * * * * * * * * * * * * * * * * * * * * * * * //

dimensions      [1 -1 -2 0 0 0 0];

internalField   nonuniform List<scalar> 
2268
(
5985.75
5980.11
5970.02
5954.78
5933.44
5905.14
5869.54
5827.17
5779.41
5728.1
5675.42
5623.17
5572.61
5524.62
5479.88
5439.29
5404.28
5376.53
5356.97
5345
5339.1
5337.43
5337.58
5985.54
5979.61
5969.9
5955.19
5934.38
5906.42
5870.89
5828.29
5780.08
5728.15
5674.91
5622.23
5571.41
5523.28
5478.37
5437.52
5402.24
5374.4
5355.08
5343.52
5338.01
5336.46
5336.77
5984.11
5977.89
5968.95
5955.4
5935.78
5908.68
5873.43
5830.46
5781.4
5728.22
5673.85
5620.37
5569.06
5520.7
5475.46
5434.08
5398.22
5370.14
5351.29
5340.54
5335.9
5334.93
5335.85
5980.33
5974.51
5966.95
5955.33
5937.69
5912.03
5877.27
5833.75
5783.4
5728.17
5672.08
5617.38
5565.42
5516.81
5471.1
5428.83
5392.04
5363.51
5345.47
5336.05
5332.9
5332.96
5334.8
5973.91
5969.21
5963.85
5955.11
5940.38
5916.73
5882.55
5838.09
5785.88
5727.67
5669.27
5612.92
5559.88
5511.31
5465.04
5418.07
5366.42
5321.14
5295.67
5292.18
5286.1
5296.86
5325.37
5950.05
5945.8
5941.57
5937.86
5936.06
5920.81
5889.62
5844.45
5746.5
5590.12
5422.46
5241.81
5049.2
4849.28
4629.34
4402.78
4196.43
4038.94
3959.62
3895.82
3897.38
3890.1
3826.24
3838.61
3847.08
3887.37
3929.71
3929.3
3858.37
3670.68
3355.21
3002.54
2637.89
2299.74
2008.97
1775.42
1598.42
1456.71
1333.46
1261.6
1203.61
1172.67
1173.94
1179.86
1183.34
1225.2
1162.73
1161.87
1162.65
1162.65
1157.51
1144.78
1126.17
1111.88
1112.16
1117.07
1122.9
1129.93
1138.05
1146.74
1155.65
1164.79
1172.73
1179.73
1183.4
1189.98
1198.14
1201.99
1192.91
3035.6
3018.24
3007.05
2992.08
2976.53
2961.02
2950.03
2946.3
2947.05
2952.52
2964.85
2987.3
3013.71
3042.82
3079.73
3145.36
3260.08
3403.3
3529.65
3035.86
2995.07
2984.61
2973.39
2960.81
2943.86
2927.57
2921.52
2922
2930.56
2947.16
2976.25
3003.79
3029.34
3060.42
3123.09
3256.1
3411.21
3548.12
2500.82
2476.99
2439.94
2399.12
2371.34
2346.35
2331.78
2332.17
2342.4
2343.58
2375.44
2450.27
2480.54
2480.4
2455.55
2483.57
2688.13
3128.94
3410.5
1226.28
1232.64
1236.14
1212.68
1180.19
1154.91
1151.58
1154.01
1161.32
1162.5
1166.76
1223.71
1360.64
1529.98
1737.63
1960.12
2191.99
2443.63
2833.39
1149.69
1185.55
1184.03
1177.34
1172.65
1161.34
1160.81
1164.8
1154.56
1148.88
1135.38
1119.04
1101.48
1088.8
1064.37
1093.72
1124.17
1218.78
1589.66
1171.62
1185.35
1187.37
1181.36
1174.35
1165.56
1154.59
1166.4
1162.12
1187.34
1167.11
1118.23
1099.38
1082.34
1030.86
1093.6
1104.31
1080.76
993.151
1191.4
1206.34
1196.83
1181.98
1171.17
1165.24
1151.98
1148.4
1142.4
1209.4
1176.46
1106.34
1072.45
1072.29
1061.52
1082.25
1091.68
1082.97
1013.22
1219.36
1248.95
1211.76
1186.47
1172.45
1155.12
1150.94
1142.41
1134.99
1132.86
1146.95
1074.11
1041.22
1035.77
1054.83
1064.95
1083.26
1089.41
1056.65
1132.57
1130.97
1127.77
1123.31
1118.68
1114.54
1112.18
1112.74
1114.53
1118.06
1122.9
1129.19
1136.82
1145.22
1153.84
1162.62
1170.51
1177.51
1183.87
1189.85
1195.47
1200.24
1198.94
1118.34
1124.44
1128.95
1127.66
1129.14
1122.05
1110.53
1099.9
1099
1104.01
1109.82
1116.96
1127.35
1139.83
1150.4
1160.99
1164.68
1168.68
1174.03
1185.53
1199.07
1207.68
1207.61
963.454
942.372
928.407
913.46
891.883
896.371
900.608
931.311
943.052
934.542
941.944
961.203
991.025
1018.75
1032.51
1046.28
1056.31
1060.94
1073.73
1058.39
1074.97
1117.59
1174.57
739.358
741.327
734.603
732.672
748.299
760.242
758.696
724.951
700.085
704.34
710.067
714.057
720.996
738.075
750.651
770.439
785.973
797.863
826.001
841.574
841.432
840.048
914.213
744.661
746.812
742.156
732.839
735.134
735.568
705.214
697.127
700.167
714.288
736.308
734.056
733.853
736.293
740.505
744.55
750.655
759.403
774.649
806.534
801.594
785.886
780.283
744.579
744.428
743.103
739.918
738.781
736.623
733.363
734.496
735.18
732.273
729.804
728.679
729.347
731.317
735.457
740.945
748.005
757.064
764.508
780.052
794.187
792.659
794.361
746.104
744.324
743.223
741.779
739.587
737.341
735.883
733.37
730.359
727.8
725.697
724.302
724.371
725.981
731.083
740.332
747.63
753.76
763.449
786.936
817.842
812.027
807.078
706.356
703.152
698.118
688.284
673.289
653.819
633.377
607.536
580.542
552.693
526.194
505.319
502.787
510.55
535.526
584.358
642.297
710.976
753.791
775.41
824.005
845.558
823.417
183.479
181.639
174.285
157.837
136.354
113.929
91.6844
70.9095
52.7588
37.2203
26.0719
18.547
16.8815
14.4451
23.377
42.494
88.2519
135.994
254.816
552.745
809.026
877.142
886.985
1.66077
1.4754
1.03067
1.26401
0.908881
0.0487664
0.0520318
0.0595974
0.0678736
0.0783362
0.0894471
0.100086
0.1092
0.536331
0.767016
0.508658
0.865997
5.5674
8.06408
17.724
151.978
448.654
721.798
0.0180063
0.0184251
0.0205515
0.0220061
0.0285062
0.0402713
0.0479038
0.0549197
0.0623084
0.0707341
0.0769211
0.0872375
0.0846453
0.0778415
0.0718799
0.0626406
0.0891683
0.112697
1.32448
1.58615
2.31069
34.9567
78.9776
0.0209414
0.0221725
0.0260678
0.0288065
0.032821
0.0395144
0.0449094
0.0506033
0.0585434
0.0654619
0.0871484
0.0990584
0.0910426
0.0500293
0.0536149
0.0598837
0.0272885
-0.032611
-0.106049
-0.0242184
0.332527
-0.0680801
19.9216
0.0234451
0.025622
0.0303551
0.0324007
0.0349532
0.0382492
0.0417618
0.0470218
0.0516792
0.0801074
0.087692
0.0830351
0.0759133
0.0709004
0.0804602
0.0650385
0.0278079
-0.0706814
-0.128465
-0.173875
-0.221517
-0.256116
-0.304295
0.0242604
0.0256661
0.0291977
0.029699
0.0303484
0.031516
0.0343936
0.038326
0.04022
0.068329
0.0745855
0.0518114
0.0306326
0.0776068
0.0713732
0.040873
-0.00656126
-0.0974645
-0.142423
-0.189883
-0.23559
-0.285351
-0.36628
0.0235407
0.0239748
0.0245885
0.0249804
0.0262213
0.0272979
0.0278883
0.0281726
0.0272737
0.023907
0.0253632
0.0104708
0.00103219
0.00561767
0.0380014
0.0177001
-0.0564721
-0.103766
-0.136246
-0.175817
-0.220723
-0.265731
-0.311358
0.022366
0.0224549
0.0226934
0.0230443
0.023463
0.0235962
0.023066
0.0218241
0.0194149
0.0154918
0.00992862
0.00249119
-0.00745394
-0.0204883
-0.0275749
-0.043928
-0.0744716
-0.0898998
-0.0946528
-0.0687631
-0.0735694
-0.120064
-0.213289
0.0210074
0.0209479
0.0209208
0.0208002
0.0205664
0.0200066
0.0189025
0.0169427
0.0139799
0.00974845
0.00400792
-0.00344045
-0.0129765
-0.0250168
-0.0396947
-0.0564183
-0.0738344
-0.0703335
-0.0666611
-0.0325474
-0.00719516
-0.0347502
-0.0711005
0.0193897
0.0191849
0.0189134
0.0184526
0.0177616
0.0166842
0.0150865
0.0127359
0.0094763
0.00509423
-0.000598419
-0.00777727
-0.0166641
-0.0274907
-0.0403089
-0.0549649
-0.0711678
-0.0877721
-0.0915679
-0.0987229
-0.0986782
-0.0544421
-0.0265691
0.0176307
0.0173248
0.0168598
0.0161374
0.0151212
0.0136987
0.0117639
0.00917743
0.00577145
0.00138773
-0.0041176
-0.0108781
-0.0190236
-0.0286535
-0.039782
-0.0523451
-0.0662671
-0.0813338
-0.0969939
-0.11232
-0.12731
-0.134327
-0.0549984
0.0158333
0.0154397
0.0148414
0.0139334
0.0126985
0.0110611
0.00893444
0.00621523
0.00278149
-0.00148525
-0.00669393
-0.0129422
-0.0203043
-0.0288141
-0.0384474
-0.049113
-0.060664
-0.0728401
-0.0850591
-0.0960088
-0.103851
-0.114557
-0.113012
0.0140584
0.0136013
0.0129041
0.0118706
0.0104976
0.00873515
0.00652001
0.00377483
0.000413654
-0.00364984
-0.00849399
-0.0141825
-0.0207538
-0.0282089
-0.0364949
-0.0454981
-0.0550398
-0.0648385
-0.0743704
-0.0822963
-0.0846804
-0.0890488
-0.0946845
0.0123566
0.0118549
0.011093
0.00998187
0.00853317
0.00671528
0.0044878
0.00179651
-0.00142028
-0.00522309
-0.00966512
-0.0147842
-0.0205932
-0.0270701
-0.0341464
-0.0416989
-0.0495428
-0.0574202
-0.0649801
-0.0716646
-0.0758619
-0.0729143
-0.0745724
0.0107497
0.010219
0.00942037
0.00827196
0.00679729
0.00498113
0.0028005
0.00021922
-0.00280433
-0.00631164
-0.0103364
-0.0148972
-0.0199896
-0.0255773
-0.031584
-0.0378864
-0.0443089
-0.0506216
-0.0565362
-0.0617014
-0.0656811
-0.0673689
-0.0636945
0.00925712
0.00870787
0.00789392
0.00673864
0.00527601
0.00350442
0.00141351
-0.00101849
-0.00381826
-0.00701256
-0.0106209
-0.0146488
-0.0190803
-0.0238717
-0.0289447
-0.0341825
-0.0394263
-0.0444763
-0.0490948
-0.0530044
-0.0559223
-0.0576667
-0.0572416
0.00787879
0.00732169
0.0065103
0.00537307
0.00395299
0.00225757
0.000285802
-0.00197245
-0.00453228
-0.00741019
-0.0106152
-0.0141438
-0.0179741
-0.0220598
-0.0263254
-0.030664
-0.034936
-0.0389715
-0.0425757
-0.0455298
-0.0476165
-0.0486746
-0.048542
0.00661702
0.0060598
0.00526473
0.00416523
0.0028102
0.00121352
-0.000620221
-0.00269216
-0.00500693
-0.00757496
-0.0103979
-0.0134666
-0.0167564
-0.0202221
-0.0237942
-0.0273776
-0.0308515
-0.0340729
-0.036883
-0.0391092
-0.0405879
-0.0412117
-0.0408458
0.00546393
0.0049147
0.00414792
0.00310207
0.00182907
0.000346604
-0.00133804
-0.00322042
-0.00529223
-0.00756326
-0.0100303
-0.0126809
-0.0154896
-0.0184145
-0.0213938
-0.024345
-0.0271653
-0.0297358
-0.031927
-0.0336011
-0.0346267
-0.0349515
-0.0344535
0.00441095
0.00387558
0.00314759
0.00217071
0.000999272
-0.000347201
-0.0019007
-0.00359409
-0.00542886
-0.00741883
-0.00955812
-0.0118321
-0.0142162
-0.0166724
-0.0191474
-0.0215711
-0.0238575
-0.0259086
-0.0276191
-0.0288759
-0.0295581
-0.0296993
-0.0291322
0.00343964
0.00292341
0.0022474
0.00140303
0.000440342
-0.000739574
-0.00234799
-0.00384575
-0.00544983
-0.00717538
-0.00901457
-0.0109518
-0.0129632
-0.0150154
-0.0170628
-0.0190471
-0.0208974
-0.0225339
-0.0238734
-0.0248349
-0.0253593
-0.0252922
-0.0246869
0.00252844
0.00203821
0.00144883
0.00114735
0.00149363
-0.000573856
-0.00270683
-0.00400248
-0.00538245
-0.00685917
-0.00842411
-0.0100611
-0.0117472
-0.0134523
-0.0151382
-0.0167565
-0.0182497
-0.0195526
-0.0205981
-0.0213208
-0.021664
-0.021532
-0.0209378
0.00165441
0.00120672
0.000866483
0.00198939
0.00222219
-0.000917146
-0.0029728
-0.00408521
-0.00524722
-0.00649005
-0.00780444
-0.00917417
-0.0105768
-0.0119848
-0.0133654
-0.0146793
-0.0158796
-0.0169136
-0.0177265
-0.0182642
-0.0184756
-0.0183114
-0.0177552
0.00085571
0.000455618
0.000849734
0.00289352
0.00177265
-0.00214996
-0.00318033
-0.00410592
-0.00505901
-0.00608279
-0.00716882
-0.00830091
-0.00945674
-0.0106105
-0.0117337
-0.0127943
-0.0137547
-0.0145723
-0.0152024
-0.0156003
-0.0157234
-0.015546
-0.0150367
0.000136236
-0.00020295
0.00131523
0.00239784
2.58703e-05
-0.00264682
-0.00334583
-0.00407152
-0.00482812
-0.00564857
-0.00652757
-0.00744859
-0.00838941
-0.00932543
-0.0102314
-0.011081
-0.0118444
-0.0124878
-0.012975
-0.0132693
-0.0133339
-0.0131552
-0.0126993
-0.000539732
-0.00076813
0.00135312
0.00188792
-0.00160231
-0.00289331
-0.00345672
-0.00398744
-0.00456048
-0.00519532
-0.00588858
-0.00662287
-0.00737611
-0.00812509
-0.00884719
-0.00952032
-0.0101214
-0.010624
-0.0109995
-0.01122
-0.0112617
-0.0110788
-0.0106742
-0.00112933
-0.00123575
0.00138189
0.00132483
-0.00259335
-0.00304425
-0.00348274
-0.00385274
-0.00425884
-0.00472943
-0.00525865
-0.00582853
-0.00641783
-0.00700521
-0.00757061
-0.0080952
-0.00856115
-0.00894869
-0.00923534
-0.00939761
-0.00941158
-0.00924987
-0.00890363
-0.00160039
-0.00137801
0.00168135
-0.000222893
-0.00287874
-0.00312652
-0.00340654
-0.00365745
-0.00392613
-0.00425715
-0.00464423
-0.00507023
-0.00551568
-0.00596207
-0.00639217
-0.00679031
-0.00714247
-0.00743461
-0.00764973
-0.00776805
-0.00776837
-0.00763123
-0.00734162
-0.0018566
-0.00115288
0.00113754
-0.000847247
-0.00298106
-0.00311739
-0.00326319
-0.00340569
-0.00356943
-0.00378635
-0.0040524
-0.00435273
-0.00467099
-0.00499245
-0.00530352
-0.00559192
-0.00584676
-0.00605826
-0.00621449
-0.0062995
-0.00629457
-0.00618173
-0.00594865
-0.00194832
-0.00104998
0.00115045
-0.000637486
-0.00287746
-0.00299019
-0.00304893
-0.00311284
-0.00320045
-0.00332703
-0.0034908
-0.00368073
-0.00388505
-0.0040937
-0.00429745
-0.00448795
-0.0046574
-0.004799
-0.00490496
-0.0049635
-0.00495764
-0.00487199
-0.00469104
-0.00186144
-0.00117609
5.24107e-05
-0.00054372
-0.0025251
-0.00270261
-0.00276753
-0.00280136
-0.00283623
-0.00289158
-0.00296742
-0.0030585
-0.00315875
-0.0032633
-0.00336768
-0.00346773
-0.00355924
-0.00363797
-0.00369948
-0.00373549
-0.00373139
-0.00367051
-0.00354053
-0.00157608
-0.0013547
-1.40247e-05
-0.000840478
-0.0020192
-0.00233181
-0.00246194
-0.00248904
-0.00249239
-0.00248994
-0.00248805
-0.00248876
-0.00249232
-0.00249914
-0.00250947
-0.00252334
-0.00254036
-0.00255939
-0.00257886
-0.00259342
-0.00259169
-0.00255649
-0.00247299
-0.00106445
-0.00103456
0.000438687
-0.000714931
-0.00161049
-0.00198162
-0.00214619
-0.00218879
-0.00217232
-0.00212144
-0.00204944
-0.00196678
-0.00188025
-0.00179526
-0.00171617
-0.00164669
-0.00159016
-0.00154927
-0.00152607
-0.00151888
-0.00151789
-0.00150131
-0.00145854
-0.000397462
-0.000479388
6.71869e-05
-0.000367456
-0.00125738
-0.00168187
-0.00188966
-0.0019504
-0.00190651
-0.00180112
-0.00165597
-0.00148975
-0.00131491
-0.00114112
-0.000975965
-0.000825728
-0.00069623
-0.000592769
-0.00052177
-0.000486709
-0.000482284
-0.000488924
-0.000490163
1191.09
1189.45
1188.17
1185.89
1205.32
1204.75
1203.05
1196.76
1214.03
1184.32
1190.46
1208.17
992.045
998.217
989.018
938.473
779.218
787.226
794.761
814.85
795.446
796.049
803.825
805.518
806.755
807.381
809.957
809.572
823.179
823.176
820.075
817.469
862.144
849.317
842.866
837.89
755.459
746.238
769.755
767.38
136.225
178.438
188.626
193.731
39.9247
40.3233
48.5516
54.3064
-0.288293
12.5032
41.1353
28.2329
-0.426541
-0.468847
-0.523861
-0.591877
-0.360307
-0.430001
-0.484676
-0.487593
-0.283837
-0.326207
-0.340407
-0.341783
-0.170123
-0.165213
-0.0799598
0.0228595
0.103719
0.117488
0.107843
0.112209
0.170154
0.165946
0.035525
-0.141653
-0.000366219
0.013915
-0.107099
-0.116426
-0.100441
-0.0996176
-0.0973182
-0.092857
-0.0753187
-0.0797584
-0.0784346
-0.0744771
-0.0600826
-0.0620597
-0.0625038
-0.0593872
-0.0550456
-0.0529378
-0.0509137
-0.0487847
-0.0471725
-0.0452226
-0.0432983
-0.0411447
-0.0395284
-0.0383235
-0.0366993
-0.0350105
-0.033252
-0.0322193
-0.0309597
-0.0294424
-0.0280441
-0.0271423
-0.0260534
-0.0247584
-0.0237029
-0.0229069
-0.0219652
-0.0208567
-0.020061
-0.0193652
-0.0185478
-0.0175999
-0.0169812
-0.0163749
-0.0156718
-0.0148626
-0.014362
-0.0138394
-0.0132342
-0.0125458
-0.0121153
-0.0116661
-0.0111517
-0.0105682
-0.0101751
-0.0097943
-0.00935712
-0.00886629
-0.00848218
-0.00816165
-0.00779725
-0.00738758
-0.00699418
-0.00673042
-0.00642762
-0.00609018
-0.00566785
-0.00545387
-0.00521048
-0.00493686
-0.00447299
-0.00430673
-0.0041139
-0.00389846
-0.00337868
-0.00325428
-0.00311145
-0.0029484
-0.00236572
-0.00228208
-0.00218151
-0.00206655
-0.00139683
-0.00134722
-0.00128892
-0.00121969
-0.000480402
-0.000468773
-0.000450338
-0.00042525
1202.54
1251.41
1224.97
1187.3
1171.67
1153.36
1145.97
1145.65
1139.68
1124.92
1115.28
1076.88
1005.57
993.846
1004.28
1076.29
1079.82
1073.94
1060.21
1182.49
1168.6
1187.3
1168.62
1176.98
1157.16
1151.24
1146.26
1204.69
1198.95
1119.03
1089.88
1077.76
1017.72
1036.11
1091.83
1084.06
1075.4
1079.71
1127.29
1084.35
1037.79
1083.02
1073.28
1103.13
1129.14
1158.55
1042.26
1003.77
994.372
1015.95
1054.86
1057.59
1021.87
967.623
970.49
982.367
985.177
930.682
877.252
865.53
836.511
837.815
834.338
838.153
885.814
972.347
941.424
931.861
804.265
716.285
707.476
713.561
718.363
743.559
747.567
752.448
888.363
839.451
807.889
759.954
751.134
743.453
732.677
732.296
751.58
781.576
724.063
679.723
691.947
683.891
691.288
687.094
683.206
681.693
716.928
819.157
857.471
791.837
758.027
745.87
733.922
720.491
709.085
698.6
686.805
681.825
677.496
674.494
671.411
668.577
664.17
659.641
661.822
682.658
797.053
826.241
817.189
765.536
736.2
721.758
716.686
715.208
679.437
638.235
624.877
620.527
581.401
543.607
498.736
457.093
400.998
368.691
310.356
812.069
834.965
800.675
698.691
581.062
447.303
321.875
209.876
158.098
121.961
107.654
98.6767
83.9531
68.55
62.9162
57.0021
77.296
104.207
146.078
830.052
722.914
402.072
179.614
69.2436
21.0604
11.4243
10.6974
2.49597
0.49628
0.368913
0.281246
0.234476
0.249216
0.271557
0.877703
0.859251
0.714193
4.98253
615.355
231.293
24.3093
8.52783
2.93755
1.3853
0.377816
0.462192
0.50785
0.422981
0.268048
0.233354
0.231656
0.282987
0.33663
0.31919
0.284823
0.264744
0.277172
133.051
5.51922
3.15352
1.20034
0.349356
0.291797
0.515709
0.618298
0.608617
0.568373
0.324897
0.215479
0.22367
0.306036
0.336488
0.339606
0.323897
0.309396
0.313179
55.548
7.80702
0.12775
0.17533
0.214956
0.22584
0.530981
0.619508
0.608068
0.468088
0.221065
0.195849
0.202695
0.259213
0.323798
0.320294
0.362537
0.294072
0.315793
4.24649
1.25115
-0.0992329
0.0612015
0.130035
0.167552
0.294526
0.514796
0.359448
0.178983
0.169535
0.179244
0.1939
0.197626
0.269523
0.293815
0.359261
0.307192
0.219894
-0.658983
-0.439095
-0.181233
-0.0208397
0.0700227
0.11875
0.162748
0.211563
0.220469
0.150973
0.186009
0.288221
0.323967
0.244565
0.20569
0.299982
0.350193
0.297483
0.195353
-0.472707
-0.372872
-0.181119
-0.055567
0.0338467
0.111436
0.150513
0.19841
0.261295
0.204146
0.310532
0.327925
0.325437
0.215991
0.196297
0.304984
0.245083
0.258156
0.176897
-0.323924
-0.249081
-0.139227
-0.0534011
0.0172385
0.150091
0.136987
0.151397
0.187229
0.207514
0.194976
0.188101
0.185944
0.17945
0.238579
0.284669
0.168443
0.171728
0.156537
-0.0187079
-0.136414
-0.102472
-0.0456829
0.201025
0.160458
0.177491
0.158426
0.174352
0.193389
0.245294
0.249287
0.227768
0.236062
0.234391
0.169207
0.157547
0.138857
0.143964
0.118632
0.14825
0.0898481
0.00141513
0.246905
0.135237
0.158599
0.17498
0.199195
0.223664
0.227874
0.221047
0.242573
0.208504
0.174819
0.140795
0.141507
0.144786
0.163545
-0.0728341
0.0981384
0.212887
0.222646
0.235065
0.0929717
0.108859
0.127928
0.114113
0.11684
0.114035
0.114143
0.140405
0.148414
0.145984
0.117192
0.126365
0.135963
0.171277
-0.106836
-0.0549913
0.115396
0.224055
0.124823
0.068982
0.08803
0.103893
0.114281
0.10303
0.0850771
0.075103
0.0771029
0.112493
0.137673
0.142953
0.107472
0.121926
0.135479
-0.0844084
-0.0674662
-0.0347875
0.0231148
-0.0142328
0.0159527
0.045815
0.0646204
0.0725211
0.0669123
0.0547822
0.0577349
0.0646105
0.0727212
0.0957268
0.122855
0.0983533
0.0973339
0.0929219
-0.0669945
-0.0551081
-0.0435222
-0.0307073
-0.0162857
-0.00298545
0.00859328
0.02121
0.0309612
0.0370646
0.0437585
0.0508074
0.0571406
0.0628952
0.0679516
0.0727663
0.0779328
0.0836221
0.0862011
-0.0543902
-0.0460454
-0.0362599
-0.0251224
-0.0135814
-0.00238591
0.00738749
0.0163169
0.0245675
0.032171
0.039096
0.0454084
0.0511407
0.0563419
0.0610472
0.0653428
0.0696106
0.076089
0.078621
-0.0449916
-0.0384963
-0.0300221
-0.0205889
-0.0109352
-0.00152646
0.00704198
0.0149038
0.0221327
0.0287839
0.0348802
0.0404618
0.0455878
0.0503115
0.0545833
0.0590457
0.063603
0.069433
0.0713104
-0.0379828
-0.0320447
-0.0248209
-0.0169698
-0.00888655
-0.000915673
0.00653569
0.013423
0.0197711
0.0256094
0.0309684
0.0358996
0.0404427
0.0446564
0.0485522
0.0525912
0.0569797
0.0627013
0.0627214
-0.0319215
-0.0266999
-0.0206226
-0.0140528
-0.00726907
-0.00051135
0.0059347
0.0119591
0.0175389
0.0226761
0.0273843
0.0317
0.0356784
0.0393642
0.0429047
0.0461837
0.0501552
0.0540511
0.0533155
-0.026719
-0.0223093
-0.0171945
-0.01165
-0.00591689
-0.000187544
0.00536314
0.0106139
0.0155053
0.0200207
0.0241606
0.0279435
0.0314277
0.0346705
0.0377772
0.0408338
0.0434942
0.0460175
0.0467544
-0.022419
-0.0186826
-0.0143604
-0.00966583
-0.00479161
9.01389e-05
0.00485534
0.00940756
0.0136797
0.0176389
0.0212756
0.0246037
0.0276715
0.0305546
0.0333007
0.0361702
0.0381734
0.040365
0.041294
-0.0188613
-0.0156804
-0.0120139
-0.00802807
-0.00387599
0.000303099
0.00439796
0.00833322
0.0120469
0.0155111
0.0187007
0.0216294
0.0243471
0.0269637
0.0294275
0.0319541
0.0338002
0.0355504
0.0366178
-0.0158981
-0.0131848
-0.0100678
-0.00667694
-0.00313515
0.000444106
0.003968
0.00736836
0.0105967
0.013622
0.0164093
0.0189945
0.0214149
0.023888
0.0261307
0.0282933
0.0310558
0.033059
0.0324275
-0.0134126
-0.0110973
-0.00844525
-0.0055584
-0.00253573
0.000530242
0.00356199
0.00650097
0.00930476
0.011942
0.0143926
0.0166742
0.0188688
0.0211477
0.0232101
0.0257385
0.0300652
0.0308357
0.0286678
-0.0113125
-0.00933945
-0.00708375
-0.00462631
-0.00204744
0.000577592
0.00318483
0.00572533
0.00816476
0.0104811
0.0126585
0.0146879
0.0166582
0.018693
0.0209097
0.0249955
0.0270895
0.0266973
0.025253
-0.0095236
-0.00784736
-0.00593276
-0.00384414
-0.00164665
0.000598369
0.00283889
0.005035
0.00716176
0.00922053
0.0112253
0.0130137
0.0147665
0.0165372
0.0186446
0.022652
0.024376
0.0227578
0.0221035
-0.00798626
-0.00656901
-0.00495047
-0.00318155
-0.00131492
0.00059969
0.00252199
0.00441851
0.00626754
0.00809042
0.0101293
0.0121628
0.0130893
0.0147431
0.0161841
0.0184898
0.0203525
0.0195174
0.019332
-0.00665257
-0.00546299
-0.00410337
-0.00261394
-0.00103727
0.000584709
0.00222721
0.00385613
0.00546024
0.00704563
0.00870821
0.0120859
0.0189623
0.0183984
0.0147345
0.0150429
0.0160246
0.0169989
0.0224855
-0.00548273
-0.00449497
-0.0033642
-0.00212186
-0.000801118
0.000567139
0.00194866
0.0033293
0.00469865
0.00606214
0.00750713
0.0103042
0.0239674
0.0272326
0.0161282
0.0153684
0.0138597
0.0147759
0.0240667
-0.00444381
-0.00363705
-0.00271121
-0.00169098
-0.000602667
0.000527658
0.00167407
0.0028224
0.00396394
0.0051011
0.00626492
0.00778251
0.0152775
0.0259369
0.0288232
0.0174522
0.0142145
0.0122998
0.0247685
-0.0035082
-0.00286605
-0.00212681
-0.00130981
-0.000435995
0.000474154
0.00139984
0.00232712
0.00324685
0.00415505
0.00506168
0.00602895
0.00752066
0.0191491
0.0276551
0.0268845
0.0185567
0.0110774
0.0248572
-0.00265254
-0.00216249
-0.00159628
-0.000969006
-0.000296886
0.000404541
0.00111981
0.00183612
0.00254294
0.00323289
0.00390462
0.00457177
0.00522262
0.0069048
0.0220856
0.0270155
0.0230376
0.0159646
0.0229942
-0.00185655
-0.00150992
-0.00110813
-0.000661997
-0.000183326
0.000316904
0.000828081
0.00134015
0.00184398
0.00233225
0.00280311
0.00326021
0.00370997
0.00418092
0.00705058
0.0219654
0.0275385
0.0189101
0.0199268
-0.00109443
-0.000889785
-0.000649948
-0.000381724
-9.33161e-05
0.000208577
0.000517876
0.000828111
0.00113233
0.00142414
0.00170112
0.00196586
0.00223741
0.0025615
0.00293738
0.00526689
0.012915
0.015316
0.00775235
-0.000377145
-0.000300448
-0.00021312
-0.000119844
-2.09188e-05
8.28474e-05
0.000189848
0.000298072
0.000404312
0.000503923
0.000590108
0.000657314
0.000705888
0.000773218
0.000837068
0.000813995
0.00067787
0.00126192
0.000597745
)
;

boundaryField
{
    leftWall
    {
        type            fixedFluxPressure;
        gradient        uniform 0;
        value           nonuniform List<scalar> 
50
(
5985.75
5985.54
5984.11
5980.33
5973.91
5950.05
3838.61
1162.73
1132.57
1118.34
963.454
739.358
744.661
744.579
746.104
706.356
183.479
1.66077
0.0180063
0.0209414
0.0234451
0.0242604
0.0235407
0.022366
0.0210074
0.0193897
0.0176307
0.0158333
0.0140584
0.0123566
0.0107497
0.00925712
0.00787879
0.00661702
0.00546393
0.00441095
0.00343964
0.00252844
0.00165441
0.00085571
0.000136236
-0.000539732
-0.00112933
-0.00160039
-0.0018566
-0.00194832
-0.00186144
-0.00157608
-0.00106445
-0.000397462
)
;
    }
    rightWall
    {
        type            fixedFluxPressure;
        gradient        uniform 0;
        value           nonuniform List<scalar> 
50
(
3529.65
3548.12
3410.5
2833.39
1589.66
993.151
1013.22
1056.65
1060.21
1079.71
985.177
752.448
716.928
682.658
310.356
146.078
4.98253
0.277172
0.313179
0.315793
0.219894
0.195353
0.176897
0.156537
0.143964
0.163545
0.171277
0.135479
0.0929219
0.0862011
0.078621
0.0713104
0.0627214
0.0533155
0.0467544
0.041294
0.0366178
0.0324275
0.0286678
0.025253
0.0221035
0.019332
0.0224855
0.0240667
0.0247685
0.0248572
0.0229942
0.0199268
0.00775235
0.000597745
)
;
    }
    lowerWall
    {
        type            fixedFluxPressure;
        gradient        uniform 0;
        value           nonuniform List<scalar> 
62
(
5985.75
5980.11
5970.02
5954.78
5933.44
5905.14
5869.54
5827.17
5779.41
5728.1
5675.42
5623.17
5572.61
5524.62
5479.88
5439.29
5404.28
5376.53
5356.97
5345
5339.1
5337.43
5337.58
5337.58
5336.77
5335.85
5334.8
5325.37
3826.24
1225.2
1192.91
1191.09
1189.45
1188.17
1185.89
3035.6
3035.86
2500.82
1226.28
1149.69
1171.62
1191.4
1219.36
3035.6
3018.24
3007.05
2992.08
2976.53
2961.02
2950.03
2946.3
2947.05
2952.52
2964.85
2987.3
3013.71
3042.82
3079.73
3145.36
3260.08
3403.3
3529.65
)
;
    }
    atmosphere
    {
        type            totalPressure;
        rho             rho;
        psi             none;
        gamma           1;
        p0              uniform 0;
        value           nonuniform List<scalar> 
46
(
0
0
0
-0.000177099
-0.0010931
-0.00170267
-0.00194275
-0.00195906
-0.00185956
-0.00170012
-0.00150329
-0.00128611
-0.00106178
-0.000840943
-0.000631967
-0.00044192
-0.000276949
-0.000143695
-4.9061e-05
-3.4678e-06
0
0
0
0
0
0
0
0
0
0
0
0
0
0
0
0
0
0
0
0
0
0
0
0
0
0
)
;
    }
    defaultFaces
    {
        type            empty;
    }
}


// ************************************************************************* //
