/*--------------------------------*- C++ -*----------------------------------*\
| =========                 |                                                 |
| \\      /  F ield         | OpenFOAM: The Open Source CFD Toolbox           |
|  \\    /   O peration     | Version:  2312                                  |
|   \\  /    A nd           | Website:  www.openfoam.com                      |
|    \\/     M anipulation  |                                                 |
\*---------------------------------------------------------------------------*/
FoamFile
{
    version     2.0;
    format      ascii;
    arch        "LSB;label=32;scalar=64";
    class       volScalarField;
    location    "0.6";
    object      alpha.water;
}
// * * * * * * * * * * * * * * * * * * * * * * * * * * * * * * * * * * * * * //

dimensions      [0 0 0 0 0 0 0];

internalField   nonuniform List<scalar> 
2268
(
2.12025e-11
2.26198e-11
2.08965e-11
1.96613e-11
1.86003e-11
1.81572e-11
1.84068e-11
1.87375e-11
1.84761e-11
1.72293e-11
1.49594e-11
1.26663e-11
1.08538e-11
9.00409e-12
7.89166e-12
6.86833e-12
6.40439e-12
7.12875e-12
1.23896e-11
3.38171e-11
7.24952e-11
1.46774e-10
1.93096e-10
6.76364e-11
8.44723e-11
8.66192e-11
9.12615e-11
8.9942e-11
8.94042e-11
9.04754e-11
9.1614e-11
9.13185e-11
8.81192e-11
8.06042e-11
6.94145e-11
5.68905e-11
4.61667e-11
3.61619e-11
3.12472e-11
2.45418e-11
2.52642e-11
4.12214e-11
9.06518e-11
1.19274e-10
9.50061e-10
8.86109e-10
6.62029e-11
6.5451e-11
6.61729e-11
6.54448e-11
6.61746e-11
6.54591e-11
6.62099e-11
6.548e-11
7.90049e-11
1.16654e-10
1.07209e-10
7.01183e-11
1.14391e-10
9.0235e-11
7.09436e-11
5.84663e-11
5.32496e-11
4.99448e-11
6.42395e-11
1.09957e-10
2.57666e-10
1.41333e-09
1.48509e-09
0.16271
0.157055
0.156391
0.155675
0.154276
0.151836
0.147186
0.138318
0.12238
0.0960406
0.0580295
0.00781793
4.46723e-11
4.4798e-11
4.49677e-11
4.74246e-11
5.60139e-11
6.84355e-11
8.87712e-11
2.36777e-10
1.11268e-09
1.59469e-09
1.49122e-09
0.902072
0.897157
0.896858
0.896214
0.89497
0.892845
0.888656
0.880233
0.863758
0.832147
0.771783
0.647231
0.37637
0.0567371
4.52819e-11
4.54553e-11
4.82225e-11
5.82199e-11
9.13499e-11
4.57572e-10
1.41688e-09
5.30335e-09
1.90641e-09
1
1
1
1
1
1
1
1
1
1
1
1
0.968507
0.728006
0.161886
4.57704e-11
4.89064e-11
6.54332e-11
1.21931e-10
6.98032e-10
1.40771e-09
1.33493e-08
1.49058e-08
1
1
1
1
1
1
1
1
1
1
1
1
1
1
0.745986
0.066189
4.88894e-11
5.13199e-11
1.31309e-10
3.33625e-10
2.973e-10
1.40296e-08
4.65775e-08
1
1
1
1
1
1
1
1
1
1
1
1
1
1
0.996145
0.448603
4.88894e-11
4.88821e-11
4.88894e-11
4.88894e-11
4.89013e-11
4.88967e-11
4.92986e-11
3.23255e-11
3.22416e-11
1.99174e-11
5.05743e-14
6.46042e-06
2.13427e-11
2.09288e-11
4.64706e-11
4.93988e-11
1.78493e-10
1.0376e-08
1.52894e-08
9.57877e-11
9.57682e-11
3.75506e-10
7.08651e-10
1.10254e-09
1.05385e-10
1.05385e-10
2.87467e-11
1.82626e-11
4.77294e-14
4.77757e-14
0.0064449
0.00487696
0.000319146
6.61823e-07
2.61995e-07
8.53692e-10
5.15685e-10
7.76417e-08
6.50487e-08
8.55641e-09
4.27333e-08
4.36572e-08
9.61746e-08
7.13986e-07
1.05385e-10
2.18321e-11
1.52265e-11
4.77728e-14
0.0207573
0.0296825
0.0128419
0.00314211
4.76477e-06
2.13468e-08
6.26406e-10
3.12298e-11
3.91804e-08
1.15143e-07
6.22972e-07
1.00544e-06
9.99231e-07
4.76521e-06
1.69435e-05
0.000530047
1.84845e-11
1.5606e-11
0.00688809
0.0425342
0.0797465
0.0583952
0.0176174
0.00023356
2.28251e-06
6.10191e-08
9.21526e-11
3.77222e-09
3.38885e-08
2.127e-07
1.20732e-06
1.32141e-06
7.26627e-06
4.59203e-05
0.00116361
4.74089e-10
0.00285057
0.0609045
0.273976
0.712917
0.626855
0.2173
0.00931425
-8.63781e-12
2.0034e-08
3.74934e-09
3.34456e-13
1.38498e-13
1.41296e-13
4.77858e-07
1.72528e-07
1.61889e-07
0.00687844
0.00118903
0.00894497
0.0341716
0.243683
0.877433
0.992216
0.992195
0.568583
0.104338
-3.13746e-16
5.67003e-11
5.05e-10
1.58201e-13
1.59792e-08
1.2858e-07
9.96484e-08
2.16533e-08
0.00208411
0.0111127
0.0490566
0.0371375
0.0812534
0.836237
0.992226
0.992216
0.992216
0.953567
0.384616
5.57076e-19
6.6713e-12
4.71479e-11
1.51974e-12
3.60861e-08
1.78794e-07
1.74275e-07
2.70045e-08
2.12224e-08
0.068847
0.177632
0.0425576
0.583691
0.992226
0.992208
0.992226
0.992202
0.992213
0.767809
0.227051
1.18746e-18
-8.25332e-19
-8.09432e-10
2.22426e-16
7.01108e-08
7.06377e-08
1.07336e-09
9.07862e-08
0.124012
0.178565
1
1
1
1
1
1
1
1
1
1
1
1
1
1
1
0.948187
0.335427
0.0146205
0.00846519
0.0173263
0.0315637
0.0414251
0.026088
1
1
1
1
1
1
1
1
1
1
1
1
1
1
1
1
0.98669
0.845172
0.642662
0.631222
0.705525
0.740054
0.694498
1
1
1
1
1
1
1
1
1
1
1
1
1
1
1
1
1
1
1
0.999999
0.999999
0.999737
0.998711
0.925272
0.937508
0.95819
0.977339
0.990522
0.99888
0.999987
1
0.999501
0.981648
0.949401
0.916649
0.921575
0.971234
0.997405
0.999986
1
1
0.999999
0.999998
0.999999
0.994109
0.945966
0.249559
0.27279
0.330495
0.414325
0.511186
0.606608
0.658391
0.660906
0.642394
0.519477
0.289134
0.186129
0.187306
0.307058
0.506241
0.680483
0.851992
0.929645
0.897524
0.835316
0.742866
0.585288
0.366451
-5.67962e-20
-1.06467e-19
0.000152534
0.0180737
0.0459775
0.0600539
0.0575021
0.0302456
0.00395802
8.31424e-25
1.22779e-24
-2.1647e-14
-2.18013e-13
-2.41745e-23
8.34284e-06
0.00950104
0.0671985
0.102536
0.120109
0.0996944
0.0508398
-8.88897e-21
2.54311e-21
2.50988e-10
4.73326e-09
8.05092e-07
8.04532e-06
-2.31341e-12
-1.68343e-17
-5.30652e-15
-3.01207e-09
-7.5608e-09
3.89966e-07
4.50873e-06
1.57743e-05
1.9903e-05
4.92736e-06
2.03263e-06
1.79962e-13
1.36781e-13
8.34133e-14
2.03926e-14
6.20637e-24
6.74488e-24
7.35297e-09
2.79564e-08
3.422e-10
6.4952e-11
3.64553e-10
4.04181e-08
1.10087e-07
9.61103e-08
1.67603e-07
4.44993e-07
1.19436e-06
3.56966e-06
9.30004e-06
1.62395e-05
1.9817e-05
1.9576e-05
1.70277e-05
1.77316e-05
1.56151e-05
1.32856e-05
5.1986e-06
6.31274e-07
1.80811e-07
7.29142e-08
6.21955e-08
3.04289e-10
4.98515e-11
6.53223e-09
1.27003e-07
2.0008e-07
1.5368e-07
1.30725e-12
1.97394e-20
1.06834e-22
3.37999e-29
6.39352e-30
9.66341e-13
2.64628e-06
6.43892e-07
2.57682e-06
1.71836e-05
2.31095e-05
2.31436e-05
1.03039e-05
1.23299e-07
6.2195e-08
1.69316e-08
9.92337e-09
1.30942e-10
5.00527e-11
8.59582e-11
1.0451e-07
2.00261e-07
4.5593e-08
3.08272e-10
1.50014e-10
3.18968e-11
2.29892e-11
4.07795e-11
2.5561e-11
-2.85539e-28
-4.69912e-17
2.0358e-29
2.19541e-29
5.18955e-06
5.1751e-06
2.44068e-06
5.94532e-08
1.30296e-08
3.45259e-09
2.52531e-12
2.66723e-11
6.42091e-11
5.61122e-10
3.26981e-08
7.24695e-08
2.61456e-08
1.93438e-09
3.93766e-10
7.73327e-11
3.79778e-11
6.94251e-11
8.79002e-11
6.88801e-11
4.73694e-11
2.10062e-11
3.36536e-12
1.42353e-29
1.78418e-29
1.27573e-19
5.60023e-08
4.41948e-08
1.08662e-09
9.81028e-16
1.91097e-11
5.61371e-11
2.64219e-10
5.69491e-11
7.44996e-10
2.06335e-11
2.05937e-11
2.09121e-11
1.69799e-11
2.23009e-11
6.10484e-11
8.23005e-11
7.52872e-11
5.31281e-11
2.77914e-11
8.78055e-12
1.32236e-12
6.83535e-14
1.17963e-14
2.35963e-15
5.2068e-17
5.1637e-17
2.11626e-16
1.88837e-11
4.464e-11
7.98425e-11
5.69346e-11
5.69218e-11
5.67818e-11
4.90355e-11
2.84759e-11
1.38038e-11
1.58883e-11
4.00932e-11
6.14746e-11
5.33221e-11
3.6977e-11
1.15824e-11
1.30699e-12
6.45611e-14
7.21376e-15
1.96105e-15
4.21384e-16
1.35214e-16
8.46107e-17
5.55604e-16
1.47723e-11
3.71639e-11
5.33976e-11
5.91938e-11
5.98993e-11
5.37212e-11
3.07048e-11
1.39087e-11
7.20499e-12
1.22922e-11
2.9803e-11
3.43297e-11
2.73621e-11
1.4947e-11
2.06997e-12
5.30459e-14
3.63219e-16
5.10895e-17
1.97267e-17
5.75615e-18
2.05632e-17
1.79803e-16
9.67845e-16
9.08248e-12
2.63173e-11
4.01297e-11
4.34498e-11
3.63226e-11
2.13085e-11
9.88521e-12
4.12496e-12
3.94345e-12
8.99529e-12
1.7139e-11
1.56719e-11
1.03543e-11
3.488e-12
1.88353e-13
1.03459e-15
1.18189e-16
4.15125e-19
5.20397e-19
3.44313e-18
2.84564e-17
2.21458e-16
6.16861e-16
3.14617e-12
1.17737e-11
1.91554e-11
1.85852e-11
1.17954e-11
4.62361e-12
1.79272e-12
1.1719e-12
2.00134e-12
5.00934e-12
5.91787e-12
4.82452e-12
2.02044e-12
2.52768e-13
5.21216e-15
8.96034e-18
4.26909e-20
3.63228e-20
6.91875e-19
4.84788e-18
9.91199e-18
1.90413e-17
2.13732e-16
8.895e-13
3.2857e-12
5.2944e-12
4.35418e-12
1.9943e-12
5.72005e-13
2.76218e-13
2.98542e-13
6.93345e-13
1.37076e-12
1.35135e-12
8.1061e-13
1.52082e-13
4.15231e-15
6.68999e-18
1.95737e-22
5.92252e-22
2.48215e-20
2.24264e-19
5.15198e-19
7.72071e-19
7.64692e-19
6.66306e-18
1.62328e-13
5.42773e-13
7.92406e-13
5.2081e-13
1.63802e-13
4.57338e-14
3.82508e-14
6.63496e-14
1.56226e-13
1.95034e-13
1.62651e-13
5.55918e-14
3.24161e-15
1.18543e-17
5.62063e-22
7.38583e-23
5.58988e-22
2.56321e-21
2.26118e-20
6.73804e-20
1.01861e-19
1.3204e-19
1.51569e-18
1.77637e-14
4.81017e-14
5.73301e-14
2.6602e-14
4.97969e-15
1.89727e-15
3.30409e-15
6.88827e-15
9.90455e-15
1.00769e-14
5.84565e-15
7.96518e-16
9.43004e-18
2.72876e-21
2.52754e-24
2.6673e-23
1.06927e-22
2.87985e-22
2.12575e-21
7.23589e-21
1.04442e-20
9.30063e-21
5.39165e-20
1.15064e-15
2.19494e-15
1.97158e-15
5.89855e-16
5.56321e-17
1.95332e-18
2.35692e-20
1.78768e-23
4.34122e-25
4.90512e-27
3.37082e-29
5.57462e-29
1.06931e-27
5.52492e-26
8.0638e-25
5.56414e-24
2.40342e-23
8.1934e-23
3.78399e-22
6.02313e-22
6.25605e-22
6.84946e-22
3.44028e-21
4.43508e-17
5.12952e-17
3.27005e-17
5.90023e-18
2.52095e-19
2.18711e-21
1.03783e-25
2.38016e-29
1.1699e-32
1.65822e-31
2.24189e-30
2.61428e-29
3.45787e-28
5.07118e-27
4.14734e-26
2.31116e-25
9.15667e-25
2.90234e-24
1.37196e-23
2.56202e-23
3.11019e-23
3.35939e-23
1.29616e-22
1.03272e-18
6.1494e-19
2.63872e-19
2.69204e-20
4.68914e-22
2.2151e-26
2.11002e-32
3.48158e-34
5.56861e-33
8.04596e-32
1.05454e-30
1.14872e-29
1.52478e-28
1.28373e-27
7.47706e-27
3.3577e-26
1.08063e-25
2.75318e-25
5.91746e-25
1.42376e-24
1.98625e-24
2.57647e-24
5.16949e-24
1.48402e-20
3.76474e-21
1.02976e-21
5.39836e-23
2.11217e-25
8.89811e-31
7.48283e-36
1.25894e-34
2.0283e-33
2.8952e-32
3.76392e-31
4.26919e-30
4.04768e-29
2.35762e-28
1.02199e-27
3.58838e-27
1.06639e-26
2.75953e-26
6.28004e-26
1.66658e-25
2.42486e-25
2.9555e-25
3.60624e-25
1.34647e-22
1.16485e-23
1.89308e-24
4.36795e-26
2.24296e-29
7.28873e-36
1.92379e-36
3.58147e-35
5.69181e-34
7.94101e-33
9.75213e-32
1.08057e-30
7.97834e-30
4.30696e-29
1.818e-28
6.19499e-28
1.7575e-27
4.22165e-27
9.00079e-27
2.51353e-26
3.93404e-26
5.00607e-26
5.58975e-26
7.91358e-25
1.79611e-26
1.54529e-27
1.33999e-29
4.95821e-35
2.6405e-38
2.87845e-37
5.34206e-36
8.6169e-35
1.20998e-33
1.55089e-32
1.53566e-31
1.06271e-30
5.59128e-30
2.3141e-29
8.05833e-29
2.39033e-28
6.16915e-28
1.40939e-27
2.94865e-27
7.47938e-27
1.04607e-26
1.18104e-26
3.09527e-27
1.39476e-29
5.16539e-31
1.20643e-33
4.8818e-40
9.62641e-40
2.13473e-38
4.043e-37
6.73374e-36
1.0094e-34
1.35383e-33
1.31911e-32
9.53041e-32
5.33737e-31
2.48641e-30
9.60097e-30
3.09486e-29
8.4799e-29
1.95003e-28
3.75446e-28
1.03517e-27
1.95451e-27
2.56919e-27
8.28462e-30
6.5475e-33
5.9385e-35
1.23223e-38
1.46595e-42
4.10192e-41
9.5974e-40
1.94764e-38
3.53618e-37
6.16072e-36
8.17807e-35
8.01158e-34
6.16391e-33
3.81374e-32
1.95175e-31
8.34721e-31
3.00797e-30
9.26307e-30
2.43514e-29
5.54414e-29
1.18861e-28
3.34803e-28
5.28887e-28
1.56026e-32
3.29346e-36
1.54385e-39
1.04598e-45
3.83054e-44
1.17759e-42
3.01903e-41
6.85353e-40
1.41063e-38
2.4283e-37
3.20342e-36
3.29096e-35
2.74049e-34
1.92078e-33
1.13822e-32
5.60741e-32
2.33576e-31
8.35154e-31
2.54848e-30
6.62698e-30
1.38587e-29
3.58346e-29
9.98907e-29
2.12186e-35
2.03011e-39
1.25251e-46
1.98337e-47
8.46156e-46
2.97529e-44
8.83342e-43
2.36833e-41
5.4372e-40
9.68499e-39
1.35099e-37
1.48369e-36
1.31062e-35
9.55199e-35
5.90038e-34
3.14026e-33
1.45524e-32
5.88003e-32
2.07081e-31
6.25888e-31
1.58252e-30
3.91032e-30
1.90103e-29
2.13166e-38
1.06114e-42
4.11825e-50
3.36176e-49
1.63926e-47
6.54945e-46
2.25169e-44
6.69906e-43
1.58975e-41
3.00093e-40
4.53329e-39
5.53211e-38
5.52151e-37
4.56746e-36
3.17017e-35
1.8671e-34
9.44417e-34
4.16722e-33
1.6428e-32
5.82962e-32
1.84717e-31
5.39983e-31
2.42335e-30
1.61135e-41
4.54825e-46
7.47363e-53
4.81815e-51
2.68356e-49
1.24372e-47
4.8153e-46
1.51669e-44
3.83654e-43
7.82466e-42
1.29418e-40
1.75416e-39
1.95133e-38
1.80472e-37
1.39737e-36
9.08867e-36
5.02149e-35
2.37946e-34
9.93864e-34
3.75321e-33
1.34951e-32
5.78305e-32
3.6361e-31
8.96797e-45
1.26141e-49
5.26163e-55
4.54106e-53
3.01054e-51
1.59598e-49
6.77341e-48
2.30916e-46
6.33302e-45
1.40764e-43
2.5626e-42
3.8339e-41
4.77275e-40
4.9453e-39
4.30489e-38
3.16714e-37
1.98384e-36
1.07915e-35
5.17873e-35
2.27e-34
1.03657e-33
6.69379e-33
6.80825e-32
3.23276e-48
1.97047e-53
3.35978e-57
3.44263e-55
2.57928e-53
1.4839e-51
6.74424e-50
2.49017e-48
7.5457e-47
1.85055e-45
3.73491e-44
6.24284e-43
8.71482e-42
1.02549e-40
1.02614e-39
8.78304e-39
6.49355e-38
4.1073e-37
2.28708e-36
1.25266e-35
8.37933e-35
1.22094e-33
1.74457e-32
5.44136e-52
3.89894e-58
1.68935e-59
1.9988e-57
1.65217e-55
1.03737e-53
5.15004e-52
2.07149e-50
6.85518e-49
1.87429e-47
4.2709e-46
8.11661e-45
1.29638e-43
1.74793e-42
2.01381e-41
1.99497e-40
1.70172e-39
1.2867e-38
9.44165e-38
8.56938e-37
1.28562e-35
2.30221e-34
4.20077e-33
1.0503e-56
2.89807e-61
9.79879e-62
1.37708e-59
1.29046e-57
9.01375e-56
4.94175e-54
2.18757e-52
8.01145e-51
2.4612e-49
6.39155e-48
1.42582e-46
2.75967e-45
4.65205e-44
6.74339e-43
8.33228e-42
8.77141e-41
8.11078e-40
7.04025e-39
8.65325e-38
1.56901e-36
3.60876e-35
7.59681e-34
6.78742e-60
1.37461e-64
4.47938e-64
8.04544e-62
9.17124e-60
7.62012e-58
4.97121e-56
2.58296e-54
1.10073e-52
3.91744e-51
1.17636e-49
3.03207e-48
6.73923e-47
1.2882e-45
2.12516e-44
3.03804e-43
3.80302e-42
4.33819e-41
5.3613e-40
9.63319e-39
2.49657e-37
6.95217e-36
1.80758e-34
2.56439e-63
3.79874e-68
8.86823e-67
2.01078e-64
2.75912e-62
2.69016e-60
2.01983e-58
1.21347e-56
6.00479e-55
2.49712e-53
8.83148e-52
2.6869e-50
7.08331e-49
1.62381e-47
3.25776e-46
5.75623e-45
8.95918e-44
1.31328e-42
2.19593e-41
5.73058e-40
2.11773e-38
7.60662e-37
2.6349e-35
5.31902e-67
5.78776e-72
1.24596e-69
3.7759e-67
6.41586e-65
7.62207e-63
6.90014e-61
4.98573e-59
2.95164e-57
1.45747e-55
6.09046e-54
2.17987e-52
6.731e-51
1.80661e-49
4.33225e-48
9.24893e-47
1.85843e-45
4.12323e-44
1.27234e-42
5.44021e-41
2.51829e-39
1.08473e-37
4.17519e-36
5.29277e-71
6.05352e-76
7.45677e-73
2.80969e-70
5.74163e-68
8.17375e-66
8.93342e-64
7.85853e-62
5.71496e-60
3.49184e-58
1.8114e-56
8.03021e-55
3.07118e-53
1.05183e-51
3.16135e-50
8.56492e-49
2.36526e-47
8.27376e-46
4.23847e-44
2.57725e-42
1.54937e-40
8.87451e-39
4.21018e-37
1.96942e-75
1.04662e-79
2.76125e-76
1.20376e-73
2.867e-71
4.82646e-69
6.37161e-67
6.88723e-65
6.238e-63
4.79825e-61
3.16503e-59
1.79366e-57
9.1844e-56
4.16466e-54
1.64679e-52
5.95199e-51
2.28459e-49
1.17156e-47
8.8001e-46
7.50061e-44
6.13212e-42
4.525e-40
2.80085e-38
3.96288e-80
1.81936e-83
6.90623e-80
3.29221e-77
8.71716e-75
1.64466e-72
2.48247e-70
3.13211e-68
3.38302e-66
3.17588e-64
2.66539e-62
1.9832e-60
1.36659e-58
6.315e-57
4.47483e-55
2.18921e-53
1.1412e-51
8.10103e-50
8.79871e-48
1.10169e-45
1.30762e-43
1.34065e-41
1.1323e-39
3.64326e-85
2.15835e-87
1.13441e-83
5.66232e-81
1.6161e-78
3.31954e-76
5.59857e-74
8.10747e-72
1.03253e-69
1.18412e-67
1.25784e-65
1.28554e-63
1.22869e-61
6.73208e-60
7.06747e-58
4.75611e-56
3.31031e-54
3.04167e-52
4.81736e-50
8.56243e-48
1.30403e-45
1.93487e-43
2.41171e-41
0.0252309
0.0310585
0.046322
0.0488944
0.693867
0.709867
0.748467
0.842886
0.99743
0.995914
0.994235
0.987112
0.884416
0.829288
0.753305
0.578042
0.223017
0.15152
0.0617707
-2.93957e-19
-2.26813e-26
-2.76309e-10
-5.34052e-26
1.84615e-09
2.80929e-08
2.58785e-08
1.96252e-08
2.00262e-08
4.27637e-08
2.95677e-08
2.15495e-08
2.03081e-08
1.57143e-08
7.56186e-09
5.94614e-09
1.34719e-09
3.68762e-18
2.29864e-18
2.97235e-16
1.66133e-13
4.05689e-17
3.2802e-16
8.1988e-16
9.15334e-19
7.45903e-16
5.88008e-15
2.53343e-14
9.7695e-19
1.71803e-15
3.32872e-14
6.88557e-13
2.50922e-12
2.01074e-15
2.2392e-15
4.70592e-15
1.13717e-15
1.02307e-15
1.14462e-15
1.18379e-15
1.13705e-15
2.76224e-15
2.81301e-14
8.53864e-14
2.82182e-13
9.37492e-17
2.94596e-15
3.10728e-14
1.30049e-13
1.91592e-17
5.32141e-16
4.24297e-15
2.6129e-14
1.4988e-18
1.02651e-17
5.18354e-16
3.10088e-15
9.16012e-20
2.43055e-18
3.17594e-17
2.52297e-16
5.5846e-21
5.18964e-20
1.64011e-18
1.45053e-17
1.42858e-22
3.89318e-21
6.12108e-20
6.046e-19
1.8183e-24
9.59142e-23
1.67511e-21
1.85332e-20
6.30168e-26
1.65627e-24
3.30874e-23
4.19536e-22
1.22215e-26
3.83834e-26
5.05338e-25
7.07599e-24
3.0201e-27
5.28493e-27
1.68531e-26
1.16299e-25
8.50213e-28
1.94557e-27
5.06989e-27
1.72039e-26
2.90752e-28
8.1316e-28
3.233e-27
1.05857e-26
8.76673e-29
3.04125e-28
9.8688e-28
4.73612e-27
1.7246e-29
7.32912e-29
3.16758e-28
1.36847e-27
3.58923e-30
1.73821e-29
7.9507e-29
4.52925e-28
8.07409e-31
4.75454e-30
2.51996e-29
1.1332e-28
2.40242e-31
1.60642e-30
9.98235e-30
6.77818e-29
7.03916e-32
5.29036e-31
3.42679e-30
1.88357e-29
1.64682e-32
1.52606e-31
1.28124e-30
9.98099e-30
4.22153e-33
4.37775e-32
4.15338e-31
3.62738e-30
7.53355e-34
1.01367e-32
1.11744e-31
1.12509e-30
1.41066e-34
2.04766e-33
2.65983e-32
3.13413e-31
1.71074e-35
3.03068e-34
4.61608e-33
6.19893e-32
1.43637e-36
2.99642e-35
5.45983e-34
8.69164e-33
7.72494e-38
2.11518e-36
4.78264e-35
9.45852e-34
2.49461e-39
8.50977e-38
2.35954e-36
5.72189e-35
0.457005
0.938691
0.992141
0.990564
0.979039
0.977958
0.985468
0.982024
0.736838
0.557991
0.334954
0.14931
0.0305154
8.69982e-20
-2.68015e-25
1.64285e-26
0.108389
0.603797
0.426784
0.966526
0.965303
0.841881
0.673554
0.560143
0.551224
0.608472
0.750454
0.918436
0.922508
0.920856
0.895203
0.817296
0.656218
0.498518
0.500095
0.806739
0.881171
0.530942
0.88153
0.59938
0.257743
0.0732324
0.0199576
0.0251039
0.0455765
0.0971095
0.190453
0.328471
0.590967
0.75324
0.704285
0.722631
0.876372
0.889741
0.905819
0.898817
0.409819
0.311294
0.000562586
3.31343e-17
7.96896e-19
1.82238e-23
1.98595e-22
1.82285e-23
3.36854e-19
2.35912e-17
0.00122917
0.014564
0.0538549
0.1245
0.246697
0.561831
0.860856
0.903482
0.779038
0.124526
7.35696e-23
-2.23404e-12
5.10505e-09
7.39596e-09
7.11964e-09
5.89657e-09
3.29841e-09
2.35901e-09
3.68446e-08
1.60391e-10
1.45016e-20
1.71018e-20
-4.49486e-20
0.015951
0.0551908
0.230543
0.337038
0.137413
0.000386085
1.04443e-08
1.4278e-08
1.55572e-08
1.5545e-08
1.17209e-08
6.2716e-09
3.27882e-09
1.91856e-08
1.45616e-07
5.07297e-07
1.26169e-07
1.42041e-20
-3.2672e-37
-2.71753e-13
2.15449e-19
9.89731e-13
2.23081e-05
2.32066e-05
2.18525e-06
2.24559e-08
2.17724e-08
1.13589e-08
7.26742e-09
1.9317e-09
2.04741e-09
1.87715e-06
9.37614e-06
1.02063e-05
1.38373e-06
7.955e-09
2.78366e-25
-1.33597e-26
2.54399e-07
1.44798e-05
2.39657e-05
1.96159e-05
1.79737e-05
2.18252e-06
1.22453e-08
5.06227e-10
1.02766e-10
1.02693e-10
1.02765e-10
5.03032e-07
2.19319e-05
3.03385e-05
3.03205e-05
6.55963e-06
1.35034e-10
1.2368e-10
2.13249e-24
1.8969e-06
4.02161e-05
5.69848e-05
5.72482e-05
1.83544e-05
2.19184e-06
8.06001e-12
8.54962e-11
5.30048e-10
6.5103e-10
1.59297e-10
8.56029e-07
1.92609e-05
2.92403e-05
2.23702e-05
9.0243e-06
2.45186e-06
1.34057e-10
1.67988e-06
1.61846e-06
1.18828e-05
4.5782e-05
6.33981e-05
1.89971e-05
2.05395e-06
5.62837e-11
7.42307e-10
8.75977e-09
2.95072e-08
6.77292e-08
7.44973e-08
6.52464e-11
2.68831e-11
2.69671e-11
2.3938e-06
1.23091e-05
1.12106e-05
7.50885e-06
4.01064e-08
2.17886e-06
4.96989e-06
3.00413e-05
1.29857e-05
1.71983e-06
8.10446e-12
8.03242e-10
4.57932e-09
1.82897e-08
5.00362e-08
3.53497e-08
1.35529e-09
2.7391e-11
3.8022e-11
1.28773e-09
1.89267e-06
3.46588e-06
1.69669e-06
3.96011e-08
3.4908e-07
1.47716e-07
4.46195e-06
1.26665e-06
6.67959e-07
5.01389e-12
1.00704e-10
2.08615e-09
7.07107e-09
1.27378e-08
3.53834e-09
1.45148e-10
1.36333e-10
7.66017e-11
5.4466e-11
5.43096e-11
5.63813e-11
7.94504e-09
5.29093e-08
4.57324e-08
3.58997e-08
1.38011e-09
2.09198e-09
3.23607e-07
1.12346e-11
6.577e-11
4.95253e-10
2.22285e-09
2.46879e-09
6.26682e-10
3.10694e-10
1.39452e-10
8.19587e-11
5.96821e-11
5.4762e-11
3.5331e-09
3.05743e-08
4.45145e-08
1.26439e-08
4.16522e-09
1.43353e-09
4.24939e-09
3.74618e-09
2.54773e-12
3.55933e-11
2.59932e-10
7.89952e-10
1.19639e-09
6.15095e-10
3.12005e-10
1.17357e-10
5.50133e-11
4.47719e-11
8.1534e-11
9.95849e-10
5.50412e-09
9.07057e-09
5.8253e-09
7.46316e-10
8.43188e-10
4.32282e-09
3.89446e-09
3.02096e-12
3.25799e-11
1.14491e-10
3.59195e-10
5.57005e-10
6.31878e-10
3.58068e-10
1.36318e-10
4.32342e-11
2.41036e-11
2.21005e-11
4.68554e-11
4.06762e-10
1.63111e-09
2.16262e-09
6.68117e-10
1.43866e-10
1.25019e-09
1.91371e-09
1.5409e-12
1.38409e-11
5.0681e-11
1.66555e-10
3.50404e-10
4.62933e-10
3.94338e-10
2.01904e-10
6.43676e-11
1.9181e-11
1.48195e-11
3.39695e-11
7.61753e-11
2.2199e-10
5.08898e-10
5.27197e-10
3.29682e-11
1.60915e-10
5.19141e-10
6.10185e-13
3.8431e-12
1.74705e-11
6.21e-11
1.64709e-10
2.88362e-10
3.26556e-10
2.53821e-10
1.17196e-10
3.04697e-11
8.76799e-12
6.8557e-12
8.30576e-12
1.73881e-11
4.91344e-11
8.15455e-11
2.5224e-11
1.26035e-11
9.00324e-11
1.15127e-13
8.03914e-13
4.37501e-12
1.80657e-11
5.92839e-11
1.38672e-10
2.0807e-10
2.60592e-10
1.86033e-10
9.17539e-11
2.17614e-11
3.78207e-12
3.1403e-12
3.78495e-12
5.6895e-12
8.71012e-12
9.9744e-12
5.07083e-12
6.09663e-12
1.47898e-14
1.22606e-13
7.931e-13
3.91681e-12
1.60256e-11
5.10323e-11
6.35416e-11
1.46215e-10
1.99329e-10
1.88383e-10
8.65259e-11
1.79116e-11
1.92262e-12
8.90557e-13
9.47518e-13
1.38884e-12
1.71854e-12
1.96157e-12
2.1909e-12
1.36566e-15
1.35528e-14
1.04222e-13
6.22646e-13
3.14111e-12
1.11129e-11
2.07031e-11
3.23623e-11
1.00167e-10
1.68021e-10
1.94316e-10
1.14123e-10
2.16199e-11
7.58076e-13
3.95504e-13
3.94355e-13
4.49772e-13
5.35024e-13
4.29952e-13
9.1634e-17
1.08757e-15
9.93104e-15
7.17095e-14
4.38671e-13
1.56235e-12
4.98124e-12
8.18031e-12
1.7304e-11
5.80065e-11
1.41607e-10
2.03184e-10
1.1179e-10
1.41597e-11
1.48378e-12
7.39601e-13
8.05173e-13
9.61072e-13
2.44405e-13
4.49226e-18
6.3537e-17
6.8629e-16
5.95418e-15
4.3407e-14
1.98633e-13
7.8308e-13
1.64153e-12
4.28152e-12
6.91678e-12
4.62021e-11
1.50976e-10
1.6391e-10
9.67191e-11
1.61165e-11
4.14489e-12
2.84308e-12
1.46596e-12
1.99606e-13
1.61585e-19
2.70964e-18
3.44199e-17
3.55051e-16
3.04613e-15
1.87921e-14
7.89804e-14
2.15878e-13
7.34615e-13
1.71946e-12
5.16733e-12
6.02103e-11
1.29724e-10
1.10444e-10
5.91809e-11
2.02739e-11
8.52517e-12
1.65118e-12
1.66258e-13
4.2754e-21
8.44894e-20
1.25836e-18
1.51099e-17
1.38095e-16
1.14723e-15
5.53144e-15
1.84558e-14
7.4123e-14
2.59929e-13
1.75275e-13
6.06122e-12
4.65368e-11
7.94343e-11
5.80011e-11
3.16296e-11
1.30255e-11
1.47103e-12
1.36288e-13
8.3434e-23
1.92585e-21
3.32115e-20
4.55289e-19
3.85056e-18
4.22791e-17
2.49771e-16
9.1836e-16
4.06302e-15
1.83982e-14
9.57209e-15
1.55808e-12
6.19413e-12
2.9503e-11
3.78249e-11
2.67722e-11
1.38223e-11
1.26418e-12
1.03252e-13
1.28045e-24
3.24304e-23
6.30344e-22
9.60959e-21
8.40799e-20
9.66544e-19
2.6408e-19
1.00922e-18
4.78422e-18
3.16875e-16
1.70627e-16
1.85671e-13
2.35478e-13
4.90411e-12
1.87057e-11
1.7854e-11
1.11439e-11
1.14913e-12
1.04671e-13
6.68461e-26
6.72037e-25
9.7006e-24
1.44647e-22
1.39366e-21
1.3889e-20
3.38318e-21
5.04988e-22
9.73698e-22
5.47019e-20
2.86917e-18
4.23074e-15
3.25582e-15
6.30007e-13
7.89892e-12
1.30133e-11
7.96696e-12
1.36462e-12
1.34568e-13
3.83547e-26
2.33676e-25
1.1267e-24
5.73425e-24
3.03795e-23
1.72912e-22
1.89182e-22
4.81828e-22
1.24763e-21
3.65467e-21
1.00949e-20
5.13505e-19
1.53882e-17
1.52534e-13
4.10376e-12
9.80381e-12
6.84567e-12
1.53798e-12
1.72252e-13
1.84794e-26
1.22989e-25
6.26954e-25
2.8962e-24
1.19807e-23
4.45078e-23
1.47187e-22
4.62684e-22
1.35738e-21
4.56015e-21
1.66617e-20
6.87497e-20
7.56154e-18
4.14951e-14
2.67584e-12
7.66119e-12
5.7994e-12
8.07911e-13
7.24858e-14
6.1583e-27
4.83879e-26
2.83948e-25
1.49631e-24
6.99735e-24
2.9115e-23
1.09011e-22
3.7822e-22
1.30531e-21
5.80107e-21
5.08592e-20
5.91818e-18
1.33632e-15
7.24416e-14
2.51322e-12
6.45428e-12
4.4883e-12
2.8239e-13
2.4578e-14
2.04523e-27
1.77216e-26
1.16891e-25
7.01451e-25
3.64928e-24
1.70181e-23
7.19111e-23
3.08766e-22
2.21352e-21
2.60355e-20
8.84405e-19
4.86102e-16
1.09778e-14
2.25123e-13
2.71942e-12
5.13884e-12
2.6445e-12
1.98489e-13
1.78875e-14
8.02327e-28
7.84497e-27
6.19024e-26
4.23652e-25
2.55837e-24
1.40985e-23
8.33422e-23
1.06681e-21
2.83978e-20
8.09653e-19
1.97601e-17
1.36547e-15
2.81913e-14
4.53357e-13
2.51211e-12
3.32159e-12
5.29666e-13
1.47254e-14
7.90623e-15
4.29646e-28
5.18865e-27
4.78568e-26
3.74561e-25
2.75637e-24
1.78673e-23
1.53565e-22
3.64576e-21
1.28045e-19
4.29464e-18
1.14395e-16
2.72817e-15
5.56101e-14
4.86782e-13
1.74314e-12
1.73401e-12
5.86811e-14
4.18637e-15
3.76878e-15
1.63458e-28
1.89515e-27
1.93517e-26
1.67662e-25
1.223e-24
9.17597e-24
9.59084e-23
2.97696e-21
7.53817e-20
1.60935e-18
2.98891e-17
3.90833e-16
2.61599e-14
3.12704e-13
1.05301e-12
7.78257e-13
1.15634e-14
3.85183e-15
2.79756e-15
7.03818e-29
8.6428e-28
9.48611e-27
1.06367e-25
9.05614e-25
6.37106e-24
4.38312e-23
5.10188e-22
1.13618e-20
3.27702e-19
7.124e-18
8.2566e-17
3.04496e-15
9.90097e-14
5.78094e-13
4.02751e-13
1.99242e-14
1.21517e-14
3.40608e-15
2.89478e-29
4.29885e-28
5.04993e-27
5.81632e-26
6.01142e-25
4.70588e-24
3.16044e-23
2.08217e-22
1.40847e-21
2.21289e-20
6.12846e-19
1.384e-17
3.3285e-16
1.62769e-14
2.63443e-13
1.8606e-13
8.63661e-14
2.62425e-14
4.48239e-15
1.01208e-29
1.66852e-28
2.2317e-27
2.9138e-26
3.24212e-25
2.85893e-24
2.05339e-23
1.33666e-22
7.62786e-22
3.75753e-21
3.27906e-20
8.46704e-19
4.0567e-17
3.58011e-15
8.97994e-14
4.97288e-14
2.57827e-14
7.8445e-15
2.24417e-15
3.26851e-30
6.16625e-29
9.12584e-28
1.27742e-26
1.6247e-25
1.5074e-24
1.17284e-23
7.89494e-23
4.45345e-22
2.17151e-21
8.62239e-21
4.97658e-20
1.94124e-18
3.06229e-16
1.64503e-14
1.17434e-14
5.936e-15
1.84139e-15
1.49994e-15
7.25583e-31
1.55741e-29
2.76432e-28
3.94342e-27
5.57602e-26
5.26669e-25
4.90537e-24
3.90694e-23
2.28155e-22
1.10544e-21
4.80903e-21
1.76749e-20
7.92243e-20
6.4014e-18
1.00769e-15
1.121e-15
1.12081e-15
7.75592e-16
1.1276e-15
1.19998e-31
2.9338e-30
5.57783e-29
9.94282e-28
1.52555e-26
1.74506e-25
1.62249e-24
1.1233e-23
7.72283e-23
3.9988e-22
1.80261e-21
6.83842e-21
2.45229e-20
7.98674e-20
4.08306e-19
7.23051e-17
2.0405e-16
3.69469e-16
6.22956e-16
1.63312e-32
4.98472e-31
1.186e-29
2.27148e-28
3.58582e-27
4.64562e-26
4.93857e-25
4.2696e-24
2.90812e-23
1.51407e-22
7.53995e-22
2.67394e-21
8.8967e-21
1.71443e-20
8.19226e-20
3.38099e-19
6.92427e-17
1.75367e-16
2.749e-16
1.2201e-33
4.46895e-32
1.1618e-30
2.08943e-29
4.18901e-28
6.50365e-27
7.96214e-26
7.35714e-25
5.08959e-24
2.45154e-23
9.48764e-23
2.99705e-22
9.69734e-22
5.85483e-22
3.37359e-21
2.84368e-21
3.35649e-18
3.68828e-17
5.50564e-17
)
;

boundaryField
{
    leftWall
    {
        type            zeroGradient;
    }
    rightWall
    {
        type            zeroGradient;
    }
    lowerWall
    {
        type            zeroGradient;
    }
    atmosphere
    {
        type            inletOutlet;
        inletValue      uniform 0;
        value           nonuniform List<scalar> 
46
(
3.64326e-85
2.15835e-87
1.13441e-83
5.66232e-81
1.6161e-78
3.31954e-76
5.59857e-74
8.10747e-72
1.03253e-69
1.18412e-67
1.25784e-65
1.28554e-63
1.22869e-61
6.73208e-60
7.06747e-58
4.75611e-56
3.31031e-54
3.04167e-52
4.81736e-50
8.56242e-48
1.30403e-45
1.93487e-43
2.41171e-41
2.4946e-39
8.50976e-38
2.35954e-36
5.72189e-35
1.2201e-33
4.46895e-32
1.1618e-30
2.08943e-29
4.18901e-28
6.50365e-27
7.96214e-26
7.35714e-25
5.08959e-24
0
0
0
0
0
0
0
0
3.68828e-17
5.50563e-17
)
;
    }
    defaultFaces
    {
        type            empty;
    }
}


// ************************************************************************* //
