/*--------------------------------*- C++ -*----------------------------------*\
| =========                 |                                                 |
| \\      /  F ield         | OpenFOAM: The Open Source CFD Toolbox           |
|  \\    /   O peration     | Version:  2312                                  |
|   \\  /    A nd           | Website:  www.openfoam.com                      |
|    \\/     M anipulation  |                                                 |
\*---------------------------------------------------------------------------*/
FoamFile
{
    version     2.0;
    format      ascii;
    arch        "LSB;label=32;scalar=64";
    class       volScalarField;
    location    "0.6";
    object      alpha.air;
}
// * * * * * * * * * * * * * * * * * * * * * * * * * * * * * * * * * * * * * //

dimensions      [0 0 0 0 0 0 0];

internalField   nonuniform List<scalar> 
2268
(
3.19262e-15
3.46494e-15
4.32894e-15
5.48226e-15
6.17666e-15
6.03297e-15
5.57799e-15
4.36291e-15
3.00499e-15
1.86655e-15
9.70575e-16
4.68139e-16
2.1834e-16
8.04849e-17
3.84093e-17
2.02435e-17
1.62891e-17
2.13269e-17
3.60564e-17
5.7958e-17
6.22906e-17
3.2826e-17
8.65265e-18
5.18454e-14
5.74284e-14
6.84158e-14
8.26548e-14
8.76356e-14
8.54105e-14
7.81722e-14
6.27992e-14
4.67897e-14
3.10189e-14
1.78805e-14
9.85801e-15
4.48003e-15
1.96372e-15
6.45458e-16
3.07356e-16
1.54697e-16
1.69785e-16
2.44167e-16
3.79268e-16
3.87318e-16
1.96419e-16
3.85349e-17
9.07675e-13
8.78993e-13
9.10084e-13
9.40045e-13
9.34186e-13
8.93213e-13
8.13056e-13
6.81284e-13
5.23129e-13
3.43886e-13
1.82279e-13
1.07068e-13
5.8909e-14
2.25503e-14
7.06834e-15
2.48967e-15
9.9783e-16
7.13562e-16
8.49452e-16
1.09407e-15
1.50218e-15
8.53771e-16
1.70397e-16
2.0973e-11
2.07244e-11
2.08705e-11
2.07022e-11
2.01598e-11
1.91112e-11
1.75783e-11
1.56216e-11
1.32258e-11
1.02385e-11
6.67441e-12
3.31984e-12
9.00024e-13
4.12245e-13
1.14696e-13
4.25747e-14
7.81947e-15
1.85103e-15
2.31018e-15
4.41768e-15
4.15197e-15
2.21736e-15
3.88909e-16
8.2398e-11
8.3147e-11
8.38851e-11
8.32436e-11
8.06564e-11
7.62636e-11
7.06594e-11
6.52132e-11
5.9085e-11
5.21105e-11
4.34967e-11
3.16443e-11
1.74348e-11
6.70837e-12
1.54748e-12
4.43763e-13
1.37177e-13
3.72763e-14
1.95822e-14
1.25733e-14
1.34341e-14
1.12724e-14
2.12046e-15
1.22358e-10
1.24413e-10
1.24983e-10
1.23543e-10
1.18517e-10
1.11395e-10
1.03162e-10
9.67423e-11
8.90409e-11
8.18e-11
7.33607e-11
6.31623e-11
4.85346e-11
2.75401e-11
9.65266e-12
2.39819e-12
5.24924e-13
1.90661e-13
6.44343e-14
4.8211e-14
5.15347e-14
5.50331e-14
9.80709e-15
1.67438e-10
1.70656e-10
1.69214e-10
1.66442e-10
1.59366e-10
1.50905e-10
1.4079e-10
1.33257e-10
1.23763e-10
1.15849e-10
1.04761e-10
9.0367e-11
7.10853e-11
4.68361e-11
2.01743e-11
5.95948e-12
1.53253e-12
4.83868e-13
1.98299e-13
1.61838e-13
1.53268e-13
1.71827e-13
3.57257e-14
2.20575e-10
2.24951e-10
2.17572e-10
2.13588e-10
2.05472e-10
2.01388e-10
1.91248e-10
1.84414e-10
1.71012e-10
1.64615e-10
1.52589e-10
1.34381e-10
9.88798e-11
7.03865e-11
3.32879e-11
9.47552e-12
2.51785e-12
1.06288e-12
4.72666e-13
3.2352e-13
3.11607e-13
4.41899e-13
3.57271e-14
4.2193e-05
0.00066399
0.0144073
0.0273574
0.0277914
0.0208809
0.00364809
0.000986344
0.0891206
0.824114
0.962923
0.956619
0.944904
0.783401
0.513892
0.261811
0.269494
0.295849
0.371684
4.22737e-05
0.00443873
0.0470374
0.046814
0.0476606
0.0475356
0.0225745
0.000783457
0.0466062
0.698536
0.972291
0.983595
0.94103
0.830145
0.697349
0.643819
0.641984
0.590577
0.48122
0.0001358
0.0205816
0.0385768
0.0217438
0.0164772
0.0407496
0.0422519
0.00972353
0.00228749
0.190226
0.705234
0.981274
0.985513
0.61598
0.330373
0.365438
0.495889
0.490076
0.242133
5.12779e-05
0.0210344
0.0069522
1.32987e-05
-2.89738e-24
0.00457299
0.0390614
0.0238424
0.00259211
3.74092e-05
0.0665768
0.60249
0.985832
0.876331
0.739964
0.240042
0.0771407
0.068394
0.00720809
5.10716e-05
0.00738301
1.51501e-05
6.60424e-24
-5.2183e-27
1.16744e-25
0.0250909
0.0302769
0.00485959
1.43584e-05
8.92612e-06
0.0185348
0.679467
0.982105
0.981817
0.846832
0.192728
0.0228508
0.00725584
0.0144459
0.00379891
0.000131552
-8.95616e-10
1.30759e-07
3.00955e-08
0.0065686
0.0318474
0.00730916
8.41175e-06
7.98555e-06
2.88224e-05
0.108579
0.794603
0.983153
0.98182
0.367887
0.0286658
0.00720807
0.00542068
0.000753145
1.30269e-06
1.318e-06
6.07987e-07
1.21624e-07
0.00102708
0.0318929
0.0197983
1.24924e-05
7.9413e-06
5.19229e-08
-7.58484e-06
0.262283
0.756953
0.651463
0.146059
0.0376921
0.0136947
5.03834e-07
4.78444e-07
2.22469e-06
2.35203e-06
3.86919e-07
4.69307e-08
8.6553e-08
0.0266407
0.0332014
0.0277032
0.00568644
0.0014684
0.000483987
0.00249977
0.073623
0.0354589
0.0206655
0.0141297
0.0141107
2.73921e-10
2.79431e-10
2.63117e-10
2.63111e-10
2.60327e-10
2.55472e-10
2.57073e-10
2.43535e-10
2.36928e-10
2.44016e-10
2.48179e-10
2.09388e-10
1.55905e-10
1.13315e-10
9.16979e-11
5.95126e-11
1.20554e-11
5.62516e-12
5.09856e-12
9.01876e-14
8.88253e-14
9.02092e-14
3.65573e-10
3.36519e-10
3.35836e-10
3.04503e-10
3.32655e-10
3.28351e-10
3.09119e-10
3.2626e-10
3.10078e-10
2.88729e-10
3.39538e-10
3.72399e-10
3.23224e-10
1.64569e-10
1.87919e-10
1.41531e-10
1.44494e-10
1.32831e-10
6.73424e-11
2.25631e-09
1.0916e-07
2.72082e-07
1.41267e-07
6.76779e-08
2.95857e-10
2.95878e-10
2.95844e-10
2.95878e-10
2.95818e-10
2.95903e-10
2.95844e-10
2.95922e-10
4.75959e-10
8.95461e-10
1.29263e-09
8.43387e-10
1.13902e-09
1.25217e-11
1.65344e-11
-1.20484e-28
1.79202e-20
-2.60369e-29
3.25071e-08
4.38158e-07
6.81427e-07
5.48729e-07
1.44096e-07
0.0747283
0.0624918
0.0418102
0.0226613
0.00947806
0.00111531
4.66184e-10
3.09037e-08
0.000498832
0.0183524
0.0417103
0.0383438
0.0238175
0.0106013
0.00259452
1.43685e-05
1.01844e-08
1.68301e-20
8.65701e-07
1.60361e-06
1.83005e-09
-3.05676e-09
-4.02472e-10
0.750441
0.727209
0.669505
0.585675
0.488814
0.393332
0.34142
0.339094
0.351418
0.34182
0.213365
0.0832824
0.0451578
0.0269455
0.0162368
0.0101137
0.00311115
-3.5123e-20
2.55558e-21
3.14489e-05
0.00352683
0.0422529
0.146238
1
0.999999
0.999845
0.98191
0.953981
0.939732
0.938273
0.937862
0.758712
0.320718
0.14891
0.112661
0.0795243
0.0557823
0.046663
0.0367252
0.0472122
0.0717809
0.109174
0.180491
0.263545
0.381811
0.51694
1
0.999996
0.999903
0.999904
0.999898
0.984296
0.875147
0.870326
0.881232
0.942711
0.946338
0.859691
0.75291
0.655883
0.58394
0.554229
0.562489
0.601153
0.66875
0.753762
0.857599
0.961006
1
1
1
0.999993
0.997022
0.994452
0.995477
0.999997
0.999997
0.999997
0.999996
0.999991
0.999984
0.99998
0.99998
0.999983
0.999982
0.999984
0.999987
0.999995
0.999999
1
1
1
1
1
0.999999
0.999034
0.99796
0.999139
0.999997
0.999993
0.999994
0.999999
1
1
0.999997
0.999999
0.999997
0.999983
0.999977
0.999977
0.99999
1
1
1
1
1
0.999996
0.999993
0.999995
0.99974
0.999894
0.999974
0.999987
0.99999
0.999995
1
1
1
1
1
1
0.999995
0.999995
0.999998
1
1
1
1
1
0.999997
0.99999
0.999995
1
1
1
1
1
0.999999
0.999999
1
1
1
1
1
1
1
1
1
1
1
0.999992
1
1
0.999993
0.999996
1
1
1
1
1
1
1
1
1
1
1
1
1
1
1
1
0.999995
0.999996
0.999934
1
1
1
1
1
1
1
1
1
1
1
1
1
1
1
1
1
1
1
1
0.999986
0.999984
0.999927
1
1
1
1
1
1
1
1
1
1
1
1
1
1
1
1
1
1
1
0.999998
0.999987
0.999988
0.999997
1
1
1
1
1
1
1
1
1
1
1
1
1
1
1
1
1
1
1
0.999999
0.999999
1
1
1
1
1
1
1
1
1
1
1
1
1
1
1
1
1
1
1
1
1
1
1
1
1
1
1
1
1
1
1
1
1
1
1
1
1
1
1
1
1
1
1
1
1
1
1
1
1
1
1
1
1
1
1
1
1
1
1
1
1
1
1
1
1
1
1
1
1
1
1
1
1
1
1
1
1
1
1
1
1
1
1
1
1
1
1
1
1
1
1
1
1
1
1
1
1
1
1
1
1
1
1
1
1
1
1
1
1
1
1
1
1
1
1
1
1
1
1
1
1
1
1
1
1
1
1
1
1
1
1
1
1
1
1
1
1
1
1
1
1
1
1
1
1
1
1
1
1
1
1
1
1
1
1
1
1
1
1
1
1
1
1
1
1
1
1
1
1
1
1
1
1
1
1
1
1
1
1
1
1
1
1
1
1
1
1
1
1
1
1
1
1
1
1
1
1
1
1
1
1
1
1
1
1
1
1
1
1
1
1
1
1
1
1
1
1
1
1
1
1
1
1
1
1
1
1
1
1
1
1
1
1
1
1
1
1
1
1
1
1
1
1
1
1
1
1
1
1
1
1
1
1
1
1
1
1
1
1
1
1
1
1
1
1
1
1
1
1
1
1
1
1
1
1
1
1
1
1
1
1
1
1
1
1
1
1
1
1
1
1
1
1
1
1
1
1
1
1
1
1
1
1
1
1
1
1
1
1
1
1
1
1
1
1
1
1
1
1
1
1
1
1
1
1
1
1
1
1
1
1
1
1
1
1
1
1
1
1
1
1
1
1
1
1
1
1
1
1
1
1
1
1
1
1
1
1
1
1
1
1
1
1
1
1
1
1
1
1
1
1
1
1
1
1
1
1
1
1
1
1
1
1
1
1
1
1
1
1
1
1
1
1
1
1
1
1
1
1
1
1
1
1
1
1
1
1
1
1
1
1
1
1
1
1
1
1
1
1
1
1
1
1
1
1
1
1
1
1
1
1
1
1
1
1
1
1
1
1
1
1
1
1
1
1
1
1
1
1
1
1
1
1
1
1
1
1
1
1
1
1
1
1
1
1
1
1
1
1
1
1
1
1
1
1
1
1
1
1
1
1
1
1
1
1
1
1
1
1
1
1
1
1
1
1
1
1
1
1
1
1
1
1
1
1
1
1
1
1
1
1
1
1
1
1
1
1
1
1
1
1
1
1
1
1
1
1
1
1
1
1
1
1
1
1
1
1
1
1
1
1
1
1
1
1
1
1
1
1
1
1
1
1
1
1
1
1
1
1
1
1
1
1
1
1
1
1
1
1
1
1
1
1
1
1
1
1
1
1
1
1
1
1
1
1
1
1
1
1
1
1
1
1
1
1
1
1
1
1
1
1
1
1
1
1
1
1
1
1
1
1
1
1
1
1
1
1
1
1
1
1
1
1
2.44931e-09
4.8439e-10
4.60466e-10
1.12813e-07
1.96093e-08
1.718e-11
5.95524e-07
1.85891e-06
1.10345e-13
3.58309e-12
7.32034e-06
1.23975e-06
-9.96517e-16
-8.87632e-16
0.0104212
0.0477372
0.210503
0.28241
0.372106
0.443324
0.633085
0.700372
0.793423
0.934498
1
1
1
1
1
1
1
1
1
1
1
0.999964
1
1
0.999997
0.999838
0.999998
0.999982
0.999936
0.99977
0.999952
0.999927
0.999863
0.999869
0.999927
0.999965
1
1
1
1
1
1
1
1
1
1
1
1
1
1
1
1
1
1
1
1
1
1
1
1
1
1
1
1
1
1
1
1
1
1
1
1
1
1
1
1
1
1
1
1
1
1
1
1
1
1
1
1
1
1
1
1
1
1
1
1
1
1
1
1
1
1
1
1
1
1
1
1
1
1
1
1
1
1
1
1
1
1
1
1
1
1
1
1
1
1
1
1
1
1
1
1
1
1
1
1
1
1
1
1
1
1
1
1
1
1
1
1
1
1
1
1
1
1
2.15695e-06
3.02291e-06
5.79156e-07
-3.33757e-08
-2.53811e-09
-2.67206e-10
-3.52912e-14
0.00447342
0.0232574
0.0274208
0.015347
0.000714516
0.000104464
0.000298929
0.00481978
0.0108591
0.0158558
0.0146775
0.00640912
2.22911e-06
-3.23081e-08
-1.12435e-09
0.0068668
0.0233605
0.0216739
0.0112548
0.00110771
0.000838806
0.00233816
0.000280734
2.24793e-06
2.24027e-06
2.91391e-06
0.000403008
0.00661748
0.0144356
0.00756836
0.000241314
6.52367e-07
0.0821413
0.207606
0.32532
0.37845
0.372707
0.352289
0.300334
0.207294
0.119909
0.0560852
0.00673142
6.66597e-07
6.81521e-07
8.62265e-07
0.00351793
0.0139676
0.00336333
8.30502e-05
0.208703
0.520919
0.639999
0.741432
0.786445
0.761596
0.706485
0.638923
0.564808
0.475539
0.38608
0.263875
0.192892
0.0714557
0.039568
0.0150736
0.00265895
0.00100025
1.33533e-05
0.606632
0.859838
1
1
1
1
1
1
1
0.995212
0.961533
0.85754
0.572036
0.352746
0.104131
0.00949458
3.0779e-08
3.06263e-08
1.22418e-07
1
1
1
0.999997
1
1
1
1
1
0.999999
1
0.999991
0.833131
0.531891
0.0840295
0.000380348
3.06264e-08
3.05585e-08
2.99039e-08
0.999999
0.999925
0.999947
0.999991
1
1
0.999998
0.999991
0.99999
0.999999
1
1
0.910845
0.347757
0.0236528
3.07126e-08
4.37854e-08
3.13674e-08
2.89288e-08
0.999903
0.999668
0.999774
1
1
0.999999
0.999978
0.999969
0.999969
0.999992
1
0.999999
0.956044
0.335833
7.50074e-06
3.06945e-08
1.85468e-08
2.70232e-08
2.77463e-08
0.999689
0.999669
0.999835
1
1
0.999999
0.999981
0.999971
0.995025
0.999986
0.999992
0.999998
0.997443
0.521118
3.41157e-05
1.30757e-06
1.6442e-05
1.82563e-05
2.89222e-08
0.99967
0.999758
1
1
1
1
0.993485
0.71941
0.460484
0.603055
0.91568
0.997814
0.998111
0.428161
4.29897e-05
4.53095e-05
3.21592e-05
0.000126241
0.00658131
0.999687
0.999991
1
1
1
0.999998
0.692963
0.0507216
1.22009e-07
6.86222e-11
0.169723
0.344555
0.29725
0.0386533
4.63025e-05
5.06907e-05
3.55766e-05
0.000306399
0.00913853
0.999986
1
1
1
1
0.969286
0.292897
1.02542e-18
-1.23359e-10
1.48662e-09
-1.40406e-14
4.52319e-18
4.33855e-09
3.30823e-05
0.000142357
0.000249166
3.59467e-05
0.000100218
0.00741054
1
1
1
1
1
0.941715
0.277787
4.36389e-08
5.33142e-08
5.99792e-08
2.74491e-08
3.73542e-18
9.07599e-05
0.000227982
0.000295352
0.00209322
0.000462739
7.49087e-05
0.000234687
1
1
1
1
1
1
0.754642
0.105913
5.32144e-08
4.95345e-08
3.11946e-08
2.56396e-06
0.000152676
0.000228833
0.000160764
0.00200913
0.033436
0.0345342
0.0110376
1
1
1
1
1
1
1
0.613701
5.77637e-08
4.28716e-08
4.0908e-08
7.00145e-06
2.38893e-05
4.07768e-05
3.29509e-05
4.62436e-05
0.0333462
0.0638579
0.0589289
1
1
1
1
1
1
1
0.947969
0.311211
4.43699e-08
3.67702e-08
3.36644e-08
3.40957e-08
3.71103e-08
4.04758e-08
4.25956e-08
0.00416522
0.0493489
0.0674989
1
1
1
1
1
1
1
1
0.849051
0.19878
3.64607e-08
3.13983e-08
3.08695e-08
4.92893e-08
1.86226e-07
1.95765e-07
3.18109e-08
0.00363276
0.0320647
1
1
1
1
1
1
1
1
1
0.894735
0.362906
0.0808489
3.16377e-08
3.10761e-08
3.14506e-08
2.71964e-08
2.87686e-08
5.13167e-09
3.82681e-09
1
1
1
1
1
1
1
1
1
1
1
0.856625
0.37688
0.127957
0.0254769
1.69681e-08
6.69076e-09
5.16601e-09
3.32954e-09
1
1
1
1
1
1
1
1
1
1
1
1
1
0.999664
0.67249
0.234512
0.066351
0.0105713
3.319e-09
1
1
1
1
1
1
1
1
1
1
1
1
0.999953
0.999857
0.999889
0.999889
0.879326
0.482249
0.0794969
1
1
1
1
1
1
1
1
1
1
1
1
0.999999
0.999955
0.999771
0.999101
0.999886
0.971702
0.350308
1
1
1
1
1
1
1
1
1
1
1
1
1
1
0.999963
0.998899
0.999894
0.981861
0.423394
1
1
1
1
1
1
1
1
1
1
1
1
1
1
1
0.999614
0.999902
0.979806
0.413375
1
1
1
1
1
1
1
1
1
1
1
1
1
1
1
1
1
0.957713
0.468553
1
1
1
1
1
1
1
1
1
1
1
1
1
1
1
1
1
0.967513
0.952753
1
1
1
1
1
1
1
1
1
1
1
1
1
1
1
1
0.999611
0.999617
0.951627
1
1
1
1
1
1
1
1
1
1
1
1
1
1
1
1
0.999895
0.999897
0.400976
1
1
1
1
1
1
1
1
1
1
1
1
1
1
1
1
1
0.997096
0.232233
1
1
1
1
1
1
1
1
1
1
1
1
1
1
1
1
1
0.922298
0.231457
1
1
1
1
1
1
1
1
1
1
1
1
1
1
1
1
1
0.846105
0.411609
1
1
1
1
1
1
1
1
1
1
1
1
1
1
1
1
0.981017
0.870447
0.992009
1
1
1
1
1
1
1
1
1
1
1
1
1
1
1
0.994955
0.967492
0.999998
0.999999
1
1
1
1
1
1
1
1
1
1
1
1
1
1
1
0.992674
0.98044
0.999997
0.999998
1
1
1
1
1
1
1
1
1
1
1
1
1
1
1
0.994351
0.993251
0.999682
0.943948
1
1
1
1
1
1
1
1
1
1
1
1
1
1
1
0.999028
1
1
0.585738
1
1
1
1
1
1
1
1
1
1
1
1
1
1
1
1
1
1
0.38967
1
1
1
1
1
1
1
1
1
1
1
1
1
1
1
1
1
1
0.384038
1
1
1
1
1
1
1
1
1
1
1
1
1
1
1
1
1
1
0.386036
1
1
1
1
1
1
1
1
1
1
1
1
1
1
1
1
1
1
0.692973
1
1
1
1
1
1
1
1
1
1
1
1
1
1
1
1
1
1
0.943944
1
1
1
1
1
1
1
1
1
1
1
1
1
1
1
1
1
1
1
)
;

boundaryField
{
    leftWall
    {
        type            alphaContactAngle;
        thetaProperties 
6
(
(galistan air) 90 0 0 0
(oil galistan) 90 0 0 0
(water oil) 90 0 0 0
(water air) 90 0 0 0
(oil air) 90 0 0 0
(water galistan) 90 0 0 0
);
        value           nonuniform List<scalar> 
50
(
3.19262e-15
5.18454e-14
9.07675e-13
2.0973e-11
8.2398e-11
1.22358e-10
1.67438e-10
2.20575e-10
2.73921e-10
3.36519e-10
2.95857e-10
0.0747283
0.750441
1
1
1
1
1
1
1
1
1
1
1
1
1
1
1
1
1
1
1
1
1
1
1
1
1
1
1
1
1
1
1
1
1
1
1
1
1
)
;
    }
    rightWall
    {
        type            alphaContactAngle;
        thetaProperties 
6
(
(galistan air) 90 0 0 0
(oil galistan) 90 0 0 0
(water oil) 90 0 0 0
(water air) 90 0 0 0
(oil air) 90 0 0 0
(water galistan) 90 0 0 0
);
        value           nonuniform List<scalar> 
50
(
0.371684
0.48122
0.242133
0.00720809
0.00725584
0.00720807
0.0136947
0.0141107
0.00640912
0.000241314
8.30502e-05
1.33533e-05
1.22418e-07
2.99039e-08
2.89288e-08
2.77463e-08
2.89222e-08
0.00658131
0.00913853
0.00741054
0.000234687
0.0110376
0.0589289
0.0674989
0.0320647
3.82681e-09
3.32954e-09
3.319e-09
0.0794969
0.350308
0.423394
0.413375
0.468553
0.952753
0.951627
0.400976
0.232233
0.231457
0.411609
0.992009
0.999999
0.999998
0.943948
0.585738
0.38967
0.384038
0.386036
0.692973
0.943944
1
)
;
    }
    lowerWall
    {
        type            alphaContactAngle;
        thetaProperties 
6
(
(galistan air) 90 0 0 0
(oil galistan) 90 0 0 0
(water oil) 90 0 0 0
(water air) 90 0 0 0
(oil air) 90 0 0 0
(water galistan) 90 0 0 0
);
        value           nonuniform List<scalar> 
62
(
3.19262e-15
3.46494e-15
4.32894e-15
5.48226e-15
6.17666e-15
6.03297e-15
5.57799e-15
4.36291e-15
3.00499e-15
1.86655e-15
9.70575e-16
4.68139e-16
2.1834e-16
8.04849e-17
3.84093e-17
2.02435e-17
1.62891e-17
2.13269e-17
3.60564e-17
5.7958e-17
6.22906e-17
3.2826e-17
8.65265e-18
8.65265e-18
3.85349e-17
1.70397e-16
3.88909e-16
2.12046e-15
9.80709e-15
3.57257e-14
3.57271e-14
2.44931e-09
4.8439e-10
4.60466e-10
1.12813e-07
4.2193e-05
4.22737e-05
0.0001358
5.12779e-05
5.10716e-05
0.0144459
0.00542068
5.03834e-07
4.2193e-05
0.00066399
0.0144073
0.0273574
0.0277914
0.0208809
0.00364809
0.000986344
0.0891206
0.824114
0.962923
0.956619
0.944904
0.783401
0.513892
0.261811
0.269494
0.295849
0.371684
)
;
    }
    atmosphere
    {
        type            inletOutlet;
        inletValue      uniform 1;
        value           nonuniform List<scalar> 
46
(
1
1
1
1
1
1
1
1
1
1
1
1
1
1
1
1
1
1
1
1
1
1
1
1
1
1
1
1
1
1
1
1
1
1
1
1
1
1
1
1
1
1
1
1
1
1
)
;
    }
    defaultFaces
    {
        type            empty;
    }
}


// ************************************************************************* //
