/*--------------------------------*- C++ -*----------------------------------*\
| =========                 |                                                 |
| \\      /  F ield         | OpenFOAM: The Open Source CFD Toolbox           |
|  \\    /   O peration     | Version:  2312                                  |
|   \\  /    A nd           | Website:  www.openfoam.com                      |
|    \\/     M anipulation  |                                                 |
\*---------------------------------------------------------------------------*/
FoamFile
{
    version     2.0;
    format      ascii;
    arch        "LSB;label=32;scalar=64";
    class       volScalarField;
    location    "0.6";
    object      alpha.oil;
}
// * * * * * * * * * * * * * * * * * * * * * * * * * * * * * * * * * * * * * //

dimensions      [0 0 0 0 0 0 0];

internalField   nonuniform List<scalar> 
2268
(
2.17685e-26
5.17955e-26
1.82972e-24
2.03191e-23
1.59185e-22
5.71064e-22
1.58561e-21
2.263e-21
3.95976e-21
1.02924e-20
2.60927e-20
3.65276e-20
3.28503e-20
2.49863e-20
2.10475e-20
2.0635e-20
8.65994e-16
2.23612e-14
1.30959e-12
3.97907e-11
1.67915e-10
2.93494e-08
7.30325e-05
1.24447e-24
1.46378e-24
5.15548e-23
4.96317e-22
2.45323e-21
1.01648e-20
2.35729e-20
3.63891e-20
6.78024e-20
1.8971e-19
4.93647e-19
1.13063e-18
1.08813e-18
7.94329e-19
4.42254e-19
2.12584e-20
3.88881e-14
2.92579e-12
5.63764e-11
2.85891e-10
1.94238e-09
3.49404e-07
7.30325e-05
5.47784e-23
3.63147e-23
1.24772e-21
9.70584e-21
4.05807e-20
1.30019e-19
2.83656e-19
5.06339e-19
9.29697e-19
2.62778e-18
5.97401e-18
1.85648e-17
2.20673e-17
1.49644e-17
6.6069e-18
1.56398e-18
4.889e-14
3.90127e-12
6.27775e-11
2.7709e-10
7.73638e-10
2.4486e-07
4.19982e-05
2.26453e-20
5.31661e-21
1.92589e-19
1.11225e-18
4.21421e-18
1.26258e-17
2.64035e-17
4.97753e-17
1.70495e-16
6.27698e-16
1.50853e-15
1.35557e-15
8.14369e-16
4.62073e-16
1.49886e-16
5.51162e-17
5.91141e-14
3.15077e-12
4.77614e-11
1.38036e-10
6.3337e-10
2.75786e-09
3.1998e-09
6.66423e-19
9.31952e-20
3.18243e-18
1.507e-17
5.50079e-17
1.98153e-16
4.86794e-16
7.4675e-16
4.82514e-15
1.99039e-14
4.55849e-14
5.69461e-14
4.25884e-14
2.05353e-14
6.00901e-15
1.78614e-15
1.9618e-13
7.65256e-12
1.08812e-11
4.09832e-09
7.24565e-08
4.27887e-08
3.09177e-08
2.83871e-18
3.79879e-19
1.08275e-17
4.57851e-17
1.75709e-16
8.87661e-16
2.37978e-15
2.61444e-15
2.54077e-14
1.01795e-13
2.20232e-13
2.9093e-13
2.74179e-13
1.69503e-13
6.80019e-14
2.11619e-14
1.29352e-12
2.04411e-11
1.35204e-11
2.04308e-08
1.04931e-07
1.3547e-07
2.11765e-06
1.11342e-17
1.19212e-18
3.08014e-17
1.10435e-16
5.32313e-16
4.85411e-15
1.18188e-14
8.20175e-15
8.37982e-14
2.9506e-13
5.62254e-13
7.26931e-13
8.56091e-13
7.56555e-13
2.7544e-13
1.62692e-13
2.28478e-12
7.27761e-11
1.94129e-09
7.83852e-09
8.12386e-09
7.90118e-06
0.000239734
3.5486e-17
3.46474e-18
7.02672e-17
2.19114e-16
2.00485e-15
2.75094e-14
5.80062e-14
1.97468e-14
1.74605e-13
5.23275e-13
9.25495e-13
1.31592e-12
2.13435e-12
2.62865e-12
9.11322e-13
1.50442e-12
2.92361e-11
5.95095e-10
2.0446e-08
1.98324e-07
9.53431e-07
2.77473e-05
0.000335173
0.999958
0.999336
0.985025
0.839417
0.841121
0.929803
0.994161
0.998624
0.897241
0.14541
0.0244568
0.0369327
0.0403421
0.040695
0.272273
0.540667
0.591385
0.576095
0.480555
0.999958
0.994298
0.630358
0.122845
0.082601
0.279472
0.866904
0.99833
0.936811
0.270875
0.00854476
0.00898913
0.0493436
0.0720095
0.126326
0.152111
0.164545
0.167996
0.170333
0.999864
0.979418
0.163979
0.00378631
0.000149598
0.000149789
0.404541
0.966114
0.993805
0.780002
0.26457
0.00834798
0.0103539
0.376486
0.660936
0.611185
0.377948
0.272722
0.386383
0.999949
0.691304
0.0805074
0.00357464
0.000151029
0.000149573
0.101588
0.82151
0.994561
0.99305
0.912946
0.381975
0.0101446
0.123045
0.25935
0.75325
0.884131
0.847483
0.620673
0.999949
0.296074
0.0304481
0.000151028
0.000149594
0.000151029
0.000967783
0.614111
0.993329
0.999983
0.999696
0.974984
0.314501
0.0165596
0.0181604
0.153167
0.80133
0.885301
0.750476
0.453927
0.055503
0.000361804
0.000149552
0.000256711
0.000204543
4.64648e-05
0.458417
0.975555
0.999991
0.999991
0.999919
0.887744
0.202652
0.0165983
0.0181799
0.630029
0.882716
0.614231
0.000182118
0.000182105
0.000182126
0.000661864
0.00534409
0.00538952
3.83828e-05
0.273515
0.946601
0.999977
0.999991
0.999984
0.999849
0.736851
0.242761
0.348537
0.853941
0.707563
0.43313
0.000182196
0.000182208
0.00128218
0.00630003
0.0077737
0.00779841
0.00572156
0.00542727
0.488447
0.818344
0.994314
0.998532
0.999516
0.9975
0.926377
0.964541
0.97909
0.657623
0.431774
1.02534e-16
9.2126e-18
1.46404e-16
5.63024e-16
1.41436e-14
1.62264e-13
4.60072e-13
4.49747e-14
3.18454e-13
9.52457e-13
1.93058e-12
2.07954e-12
4.20706e-12
6.44071e-12
4.8694e-12
1.38093e-12
1.17873e-25
1.23501e-07
1.09316e-06
1.77861e-06
3.05226e-06
5.2313e-05
0.000317377
3.84624e-16
4.13277e-17
5.72454e-16
8.35814e-15
1.05839e-13
1.08729e-12
3.97662e-12
7.17436e-14
2.93273e-13
3.65552e-12
1.07153e-11
1.03721e-11
7.00968e-12
1.49941e-11
1.49218e-11
1.11396e-11
-6.64898e-21
1.20968e-07
1.06822e-06
1.11427e-06
2.56266e-07
8.66231e-05
0.000426248
3.17102e-17
7.41252e-17
2.89396e-15
3.70579e-13
3.48487e-11
2.98261e-19
-3.29177e-24
-2.63022e-13
-1.95552e-12
1.04471e-11
1.93171e-10
6.01368e-10
5.14007e-12
5.83528e-12
7.53089e-12
8.23417e-12
-4.11469e-15
4.98539e-09
6.07674e-12
7.688e-08
2.61164e-07
0.000262416
0.00128837
4.60394e-12
1.42086e-35
1.1455e-34
3.0724e-26
3.21157e-08
4.62122e-06
1.2826e-05
-1.80731e-23
-8.34085e-22
-1.86406e-19
0.00888906
0.0450074
0.0546073
0.0181646
5.7312e-22
-7.17878e-30
-6.04297e-17
1.07553e-08
-5.63114e-12
-3.20296e-10
9.47652e-07
0.0058908
0.0540341
4.62635e-12
6.9931e-08
4.73231e-07
3.58752e-07
2.55059e-08
5.96301e-05
0.000188658
-8.1954e-22
0.00618799
0.138703
0.497501
0.730588
0.767536
0.665996
0.477522
0.309403
0.144897
0.070355
0.102476
0.164652
0.253608
0.372459
0.487311
8.5109e-09
5.97064e-07
2.61095e-06
1.67903e-05
4.1588e-05
0.000213848
0.0042244
0.0318923
0.23733
0.679282
0.85109
0.887339
0.920476
0.944218
0.953329
0.953774
0.885589
0.825683
0.770717
0.719814
0.685615
0.618189
0.48306
9.70987e-09
4.07256e-06
9.60545e-05
8.76238e-05
0.000102201
0.0157039
0.124853
0.129674
0.118768
0.0572883
0.0536577
0.140293
0.24707
0.344112
0.416058
0.445771
0.437511
0.398847
0.33125
0.246238
0.142401
0.038994
5.0426e-12
6.22467e-08
1.34883e-07
7.04846e-06
0.00297787
0.00554761
0.00452337
2.37716e-06
2.75913e-06
1.8221e-06
2.05164e-13
1.37015e-16
-8.85443e-11
-2.42799e-24
-7.16527e-27
-3.26853e-15
1.47628e-17
1.68623e-17
1.16737e-17
6.80586e-19
1.53323e-26
-1.32491e-26
1.64816e-26
1.38216e-09
1.5808e-07
1.98101e-07
7.30741e-07
0.000966179
0.00204008
0.0008613
2.52525e-06
6.73758e-06
5.89209e-06
1.41796e-06
3.05972e-08
2.94698e-08
1.75179e-08
1.31008e-08
1.86004e-08
2.90419e-08
3.12077e-08
2.29419e-08
6.64817e-09
1.985e-08
9.53442e-09
6.87235e-09
1.12638e-08
3.54116e-09
3.87275e-06
6.66073e-06
4.71736e-06
0.000259981
0.000105875
2.57483e-05
1.27232e-05
9.90138e-06
4.81065e-06
2.87269e-07
2.17629e-08
1.2754e-08
1.05792e-08
3.14728e-08
8.81877e-08
8.88077e-08
6.69873e-08
1.6297e-08
7.05375e-08
1.94091e-08
1.46573e-08
1.13453e-08
1.39133e-09
3.48694e-06
9.68667e-06
4.76024e-06
-2.3686e-10
-7.48088e-26
-7.67964e-26
3.33031e-16
2.38204e-27
1.04912e-06
5.99546e-07
2.4919e-09
1.91521e-09
1.07454e-09
3.71257e-10
9.0814e-09
1.78795e-08
3.94997e-09
1.27186e-08
6.66447e-08
1.91078e-08
6.15769e-08
7.69638e-06
1.39133e-09
4.44136e-07
6.86217e-06
3.61329e-06
3.64765e-07
1.15582e-07
5.19802e-08
2.6825e-09
7.82847e-10
2.38831e-10
2.35393e-10
3.08936e-09
2.32378e-09
9.15789e-10
3.75476e-10
3.27161e-10
3.28636e-10
3.25447e-10
1.1554e-08
1.13478e-08
5.21457e-06
4.40182e-06
6.62407e-05
1.39078e-09
6.06998e-10
9.08814e-08
1.14471e-07
9.20555e-08
6.66364e-08
2.22439e-08
5.75496e-09
2.03744e-09
1.13403e-09
4.68891e-10
2.72589e-10
1.91576e-10
2.29072e-10
5.20717e-10
1.55123e-09
3.91394e-09
4.28389e-10
3.19794e-08
3.69579e-07
1.3566e-05
1.55197e-05
7.32179e-05
7.07837e-10
5.95419e-10
6.06847e-10
8.88907e-10
1.65191e-09
1.87412e-09
4.81534e-10
5.92219e-10
8.88592e-10
8.70304e-10
5.78766e-10
2.99324e-10
1.66256e-10
2.24905e-10
6.14162e-10
1.95047e-09
5.3486e-09
1.90866e-09
2.10048e-08
1.73494e-06
1.27435e-05
1.22946e-05
2.90201e-06
2.24926e-10
3.5021e-10
8.95003e-10
9.42001e-10
7.78654e-10
3.91527e-10
2.5748e-10
2.80147e-10
2.99881e-10
2.50804e-10
1.51809e-10
7.6886e-11
7.02221e-11
1.89843e-10
6.27921e-10
2.0212e-09
5.88436e-09
3.88597e-09
7.72068e-08
1.49343e-06
1.197e-06
1.17902e-07
1.83487e-09
3.18034e-11
9.30069e-11
2.33254e-10
2.20706e-10
1.30641e-10
5.20683e-11
3.27655e-11
2.01798e-11
9.64513e-12
2.84222e-12
1.72175e-12
8.45366e-12
4.40655e-11
1.74342e-10
6.08173e-10
1.8901e-09
5.12619e-09
6.90577e-09
5.74762e-08
2.56721e-08
9.61942e-10
1.90224e-09
1.81099e-09
3.60411e-12
1.39001e-11
3.18477e-11
2.57646e-11
1.21207e-11
6.2189e-12
4.93402e-12
3.25894e-12
1.54617e-12
5.80206e-13
1.49095e-12
8.74181e-12
3.97549e-11
1.54798e-10
5.53717e-10
1.66291e-09
3.52618e-09
2.76844e-09
7.86723e-10
7.40844e-10
1.12264e-09
2.02369e-09
2.24653e-09
3.16031e-13
1.21741e-12
2.47135e-12
1.69743e-12
8.17767e-13
5.9614e-13
4.70598e-13
2.71618e-13
1.1338e-13
2.42752e-13
1.37752e-12
7.39545e-12
3.16137e-11
1.2246e-10
4.67893e-10
1.2823e-09
2.20708e-09
2.43849e-09
1.53773e-09
7.69158e-10
2.51481e-10
6.47286e-11
7.96224e-11
1.83824e-14
6.27245e-14
1.09475e-13
6.35859e-14
2.83344e-14
1.42755e-14
9.44707e-15
7.10753e-15
2.88801e-14
1.90557e-13
1.08721e-12
5.38903e-12
2.21799e-11
8.72428e-11
3.34937e-10
8.35382e-10
1.44261e-09
1.74785e-09
1.39077e-09
7.06198e-10
2.2911e-10
3.86962e-11
2.88087e-11
6.92619e-16
1.88717e-15
2.71475e-15
1.23189e-15
3.11602e-16
4.97134e-17
3.28573e-16
2.73376e-15
2.07164e-14
1.3561e-13
7.21147e-13
3.39645e-12
1.31757e-11
5.28569e-11
1.67385e-10
3.81525e-10
6.4178e-10
7.76132e-10
6.4352e-10
3.40721e-10
9.25733e-11
3.01878e-11
1.51891e-11
1.71336e-17
3.25723e-17
3.6551e-17
1.16777e-17
3.08357e-18
2.02795e-17
1.93175e-16
1.62507e-15
1.2123e-14
7.64422e-14
4.07493e-13
1.76532e-12
6.56554e-12
2.15122e-11
5.07347e-11
9.52318e-11
1.39696e-10
1.63443e-10
1.43649e-10
8.43822e-11
3.68065e-11
1.59386e-11
8.84519e-12
2.81185e-19
3.14991e-19
2.6094e-19
1.00945e-19
7.27349e-19
8.41806e-18
8.33698e-17
6.98029e-16
5.25834e-15
3.29683e-14
1.73795e-13
7.17355e-13
2.49094e-12
6.14778e-12
1.1208e-11
1.7418e-11
2.25629e-11
2.63171e-11
2.73578e-11
2.41569e-11
1.66915e-11
9.64747e-12
4.5462e-12
3.08412e-21
1.6752e-21
1.53571e-21
1.24284e-20
1.87855e-19
2.28425e-18
2.34188e-17
2.01732e-16
1.50881e-15
9.34608e-15
5.11035e-14
2.22982e-13
7.91672e-13
2.03831e-12
4.20949e-12
7.26467e-12
1.06364e-11
1.31759e-11
1.36979e-11
1.17375e-11
8.418e-12
4.85476e-12
2.59213e-12
2.28016e-23
7.02106e-24
8.17714e-23
1.74254e-21
2.84796e-20
3.69029e-19
3.89434e-18
3.57055e-17
2.74834e-16
1.80837e-15
1.01952e-14
4.86941e-14
1.72735e-13
4.88184e-13
1.12385e-12
2.13858e-12
3.4246e-12
4.59779e-12
5.20079e-12
4.938e-12
3.72855e-12
2.40036e-12
1.25338e-12
1.18213e-25
1.92157e-25
6.50731e-24
1.54438e-22
2.71121e-21
3.79299e-20
4.33658e-19
4.22972e-18
3.54576e-17
2.52521e-16
1.55292e-15
7.80411e-15
3.01187e-14
9.28952e-14
2.2987e-13
4.79403e-13
8.46865e-13
1.26978e-12
1.5761e-12
1.63141e-12
1.41487e-12
1.07156e-12
5.6191e-13
5.99203e-28
9.82293e-27
3.74519e-25
1.00822e-23
1.96314e-22
3.03407e-21
3.83251e-20
4.04898e-19
3.60398e-18
2.74014e-17
1.82053e-16
9.72716e-16
4.1239e-15
1.37028e-14
3.83497e-14
8.95797e-14
1.73138e-13
2.84477e-13
3.97371e-13
4.68709e-13
4.47994e-13
3.37924e-13
2.33854e-13
8.94532e-30
4.12142e-28
1.77609e-26
5.23108e-25
1.12858e-23
1.91677e-22
2.64178e-21
3.01999e-20
2.90629e-19
2.49526e-18
1.7528e-17
9.8828e-17
4.50158e-16
1.66926e-15
5.13919e-15
1.32094e-14
2.87015e-14
5.32972e-14
8.32671e-14
1.05907e-13
1.15491e-13
1.13452e-13
7.64013e-14
2.46309e-31
1.39359e-29
6.48931e-28
2.06559e-26
4.83608e-25
8.96464e-24
1.34755e-22
1.72019e-21
1.89268e-20
1.74069e-19
1.29438e-18
7.76766e-18
3.8084e-17
1.56769e-16
5.46622e-16
1.5823e-15
3.85067e-15
8.07853e-15
1.43716e-14
2.14397e-14
2.59158e-14
2.42044e-14
2.25338e-14
5.90594e-33
3.5125e-31
1.85335e-29
6.59167e-28
1.69584e-26
3.47497e-25
5.83355e-24
8.42073e-23
1.01995e-21
9.94649e-21
7.95067e-20
5.2153e-19
2.82497e-18
1.26808e-17
4.75669e-17
1.50652e-16
4.10262e-16
9.60864e-16
1.91932e-15
3.22251e-15
4.48095e-15
5.75908e-15
5.29869e-15
1.11992e-34
7.19317e-33
4.22442e-31
1.67278e-29
4.82204e-28
1.10297e-26
2.09353e-25
3.32877e-24
4.27925e-23
4.4904e-22
3.88709e-21
2.79565e-20
1.67947e-19
8.46732e-19
3.60289e-18
1.30277e-17
4.02617e-17
1.06554e-16
2.43692e-16
4.78498e-16
7.6112e-16
9.44097e-16
1.08415e-15
1.53952e-36
1.035e-34
7.08956e-33
3.14318e-31
1.0336e-29
2.73968e-28
5.8811e-27
1.02211e-25
1.44728e-24
1.69171e-23
1.63702e-22
1.32365e-21
8.92178e-21
5.06024e-20
2.43216e-19
9.90524e-19
3.4399e-18
1.021e-17
2.60531e-17
5.649e-17
1.0294e-16
1.58992e-16
1.84816e-16
1.24942e-38
1.05507e-36
8.24548e-35
4.2486e-33
1.63148e-31
4.8556e-30
1.1514e-28
2.21746e-27
3.50708e-26
4.58145e-25
4.99839e-24
4.54566e-23
3.48648e-22
2.25356e-21
1.23699e-20
5.78435e-20
2.3098e-19
7.92869e-19
2.3397e-18
5.87344e-18
1.22739e-17
2.07523e-17
2.81881e-17
9.85388e-41
7.50155e-39
7.23509e-37
4.40558e-35
1.92697e-33
6.44691e-32
1.70369e-30
3.66686e-29
6.57137e-28
9.72981e-27
1.20827e-25
1.26065e-24
1.10814e-23
8.24283e-23
5.21078e-22
2.81731e-21
1.31649e-20
5.2705e-20
1.78798e-19
5.08819e-19
1.22939e-18
2.4528e-18
3.90877e-18
5.35055e-43
3.72476e-41
4.50964e-39
3.247e-37
1.63719e-35
6.27145e-34
1.90237e-32
4.68084e-31
9.53555e-30
1.62038e-28
2.3289e-27
2.82852e-26
2.9197e-25
2.56111e-24
1.91924e-23
1.22589e-22
6.64933e-22
3.05368e-21
1.18913e-20
3.88552e-20
1.09497e-19
2.50064e-19
4.95377e-19
1.9515e-45
1.17372e-43
1.93281e-41
1.68014e-39
9.90625e-38
4.38608e-36
1.53474e-34
4.34722e-33
1.02004e-31
2.01125e-30
3.33393e-29
4.68662e-28
5.63506e-27
5.83167e-26
5.17326e-25
3.92914e-24
2.53992e-23
1.39904e-22
6.37794e-22
2.50955e-21
8.12127e-21
2.24704e-20
5.23668e-20
4.91773e-48
2.21861e-46
5.2323e-44
5.69367e-42
4.05214e-40
2.12641e-38
8.86027e-37
2.97278e-35
8.25018e-34
1.92466e-32
3.79334e-31
6.4009e-30
9.26348e-29
1.14163e-27
1.20271e-26
1.08603e-25
8.38696e-25
5.45386e-24
2.99257e-23
1.37951e-22
5.43039e-22
1.75342e-21
4.98503e-21
8.65583e-51
2.25927e-49
8.14262e-47
1.14929e-44
1.01886e-42
6.52041e-41
3.2504e-39
1.31046e-37
4.37725e-36
1.22531e-34
2.89118e-33
5.79905e-32
9.93881e-31
1.46242e-29
1.86504e-28
2.07287e-27
1.97165e-26
1.60377e-25
1.09621e-24
6.22419e-24
2.93211e-23
1.11409e-22
4.22839e-22
1.06163e-53
1.54191e-52
8.84906e-50
1.6548e-47
1.83517e-45
1.46114e-43
9.00321e-42
4.48078e-40
1.84233e-38
6.34116e-37
1.84394e-35
4.56767e-34
9.68054e-33
1.75276e-31
2.76654e-30
3.73307e-29
4.31418e-28
4.2804e-27
3.58837e-26
2.53337e-25
1.47705e-24
7.02944e-24
3.1376e-23
8.97325e-57
6.01437e-56
4.93618e-53
1.16769e-50
1.60374e-48
1.57713e-46
1.20657e-44
7.47279e-43
3.82858e-41
1.64336e-39
5.95958e-38
1.8365e-36
4.84545e-35
1.12989e-33
2.26215e-32
3.86851e-31
5.7662e-30
7.35115e-29
8.00185e-28
7.31429e-27
5.57655e-26
3.50416e-25
2.06593e-24
5.13766e-60
1.61139e-59
1.7561e-56
4.81002e-54
7.7591e-52
9.12399e-50
8.56767e-48
6.65796e-46
4.35343e-44
2.41279e-42
1.13813e-40
4.55711e-39
1.61968e-37
4.99359e-36
1.30708e-34
2.9386e-33
5.81741e-32
9.79625e-31
1.42468e-29
1.74698e-28
1.79496e-27
1.47887e-26
1.15699e-25
1.94875e-63
3.00678e-63
4.25815e-60
1.27874e-57
2.31557e-55
3.08902e-53
3.36166e-51
3.09079e-49
2.44011e-47
1.66766e-45
1.00846e-43
5.34842e-42
2.59248e-40
8.23352e-39
3.91145e-37
1.21642e-35
3.32971e-34
7.74425e-33
1.55953e-31
2.64139e-30
3.73291e-29
4.32398e-28
5.03427e-27
4.80533e-67
3.66316e-67
6.80762e-64
2.15834e-61
4.26664e-59
6.27793e-57
7.72572e-55
8.23278e-53
7.71622e-51
6.46879e-49
4.96479e-47
3.63021e-45
2.45573e-43
9.64173e-42
6.72409e-40
2.93318e-38
1.11215e-36
3.58046e-35
1.03564e-33
2.52133e-32
5.16452e-31
8.98202e-30
1.50857e-28
0.000409421
0.000383962
0.000182464
0.000182278
0.000866245
0.00187811
0.00253004
0.00289667
0.0025704
0.00408582
0.00575754
0.0128866
0.115584
0.170712
0.236274
0.374221
0.56648
0.56607
0.566124
0.556676
0.366915
0.299628
0.206577
0.0655017
4.2459e-12
1.89437e-09
5.02547e-10
9.03067e-10
1.91697e-09
1.28937e-09
1.51315e-08
1.26427e-07
1.32974e-08
6.14644e-09
6.41015e-09
3.60548e-05
1.13893e-08
2.89725e-08
3.44051e-06
0.000161526
1.97229e-06
1.76856e-05
6.39626e-05
0.000230224
4.76965e-05
7.28003e-05
0.000137077
0.000131199
7.31421e-05
3.45925e-05
6.94671e-08
8.51217e-09
1.34041e-08
1.71522e-08
9.73315e-09
9.35037e-09
1.89703e-08
2.84425e-08
2.52963e-08
1.3834e-08
5.95574e-10
1.57237e-09
2.16878e-09
2.32972e-09
3.2302e-10
9.1319e-11
2.40309e-10
3.17849e-10
7.01296e-11
7.06424e-11
9.26481e-11
1.47622e-10
2.84446e-11
3.11921e-11
4.92032e-11
7.13865e-11
1.38676e-11
1.57485e-11
1.96813e-11
3.13254e-11
6.59232e-12
6.75022e-12
9.67954e-12
1.38372e-11
3.23616e-12
3.43233e-12
4.38889e-12
6.7474e-12
1.49465e-12
1.44236e-12
1.99339e-12
3.15498e-12
6.97788e-13
6.83885e-13
9.14341e-13
1.59781e-12
3.1009e-13
2.94138e-13
4.19788e-13
8.17143e-13
1.25962e-13
1.26815e-13
2.17282e-13
4.8022e-13
4.69322e-14
5.44833e-14
1.04621e-13
2.88123e-13
1.49068e-14
1.91751e-14
5.1052e-14
1.42354e-13
4.39054e-15
6.92373e-15
1.62481e-14
6.28296e-14
9.97283e-16
1.60961e-15
4.63284e-15
1.63109e-14
1.9782e-16
3.50153e-16
1.07762e-15
5.15143e-15
3.56716e-17
7.66696e-17
2.92371e-16
1.17518e-15
7.22918e-18
2.30808e-17
1.11271e-16
6.54323e-16
1.5148e-18
7.321e-18
4.22193e-17
2.17734e-16
1.98173e-19
1.14861e-18
8.32166e-18
5.92743e-17
2.30185e-20
1.5151e-19
1.23961e-18
9.84726e-18
2.16526e-21
1.73766e-20
1.63879e-19
1.4981e-18
2.40353e-22
2.31947e-21
2.63967e-20
2.86946e-19
2.26691e-23
2.87324e-22
3.97099e-21
5.01759e-20
1.689e-24
2.58004e-23
4.30519e-22
6.48776e-21
8.97885e-26
1.73494e-24
3.5819e-23
6.7067e-22
3.25219e-27
7.02611e-26
1.74708e-24
4.00331e-23
0.000182206
0.014629
0.00785843
0.00943598
0.0209613
0.0220418
0.0145321
0.0114857
0.0186088
0.115966
0.352119
0.583211
0.755537
0.828383
0.836392
0.869898
0.802622
0.204061
0.213346
0.021834
0.0346973
0.158119
0.319579
0.416497
0.427102
0.380274
0.248438
0.080725
0.0512986
0.0192082
0.0201994
0.0534812
0.148131
0.305853
0.299056
0.130271
0.05167
0.0986046
0.118469
0.318479
0.534651
0.601448
0.601593
0.602189
0.602135
0.602556
0.602253
0.55162
0.351872
0.236398
0.28548
0.2448
0.0670455
0.0626451
0.0591544
0.0507254
0.214699
0.480003
0.478519
0.360001
0.258568
0.213555
0.238404
0.293515
0.361077
0.435192
0.523232
0.599356
0.682269
0.682123
0.681847
0.397863
0.117463
0.0934552
0.193355
0.500018
0.393368
0.140162
2.0234e-13
1.93623e-13
-4.40359e-19
1.23175e-26
7.10064e-20
9.43415e-21
-1.6789e-12
0.00478773
0.038467
0.14246
0.427964
0.631303
0.840679
0.759962
0.662962
0.861898
0.678402
5.23476e-08
5.23859e-08
2.06157e-13
2.90551e-06
1.16352e-07
8.28224e-09
2.55615e-09
5.45906e-10
2.79753e-10
6.32055e-16
4.54403e-17
8.98589e-06
0.166869
0.468109
0.915971
0.99962
0.999978
0.999977
0.956438
6.88641e-07
7.5054e-05
5.29518e-05
8.53726e-06
2.28631e-09
1.68379e-08
7.93512e-09
3.4097e-09
4.90033e-09
5.96753e-09
3.87377e-09
1.54671e-09
0.0891523
0.652236
0.976332
0.999968
0.999978
0.999978
0.999978
9.69387e-05
0.000331973
0.000225559
7.27844e-10
2.69183e-09
8.91542e-09
8.75523e-09
5.19434e-09
4.94322e-09
2.0276e-08
1.91167e-08
1.66292e-09
0.0439438
0.664152
0.999946
0.999929
0.999938
0.999838
0.998696
0.000310617
0.00033139
0.000165033
7.13043e-10
1.35127e-08
3.60415e-08
2.18937e-09
2.23049e-09
0.00495135
1.65462e-09
1.73208e-09
1.58429e-09
0.00254609
0.478874
0.999946
0.999938
0.999918
0.998651
0.885789
0.000329683
0.000242335
8.44886e-10
4.54936e-09
4.2161e-09
3.41875e-07
0.00651478
0.28059
0.539516
0.396943
0.0843006
0.0021642
0.0018787
0.571836
0.999946
0.999946
0.999936
0.99645
0.866259
0.000312697
9.14343e-06
8.17859e-10
4.7063e-09
4.65458e-09
1.70189e-06
0.307037
0.949278
0.999999
0.999998
0.83027
0.655403
0.702669
0.961319
0.999946
0.999946
0.999946
0.994854
0.863703
1.38136e-05
1.89363e-09
1.8151e-09
1.85927e-09
9.93682e-08
0.0307139
0.707103
1
0.999999
0.999993
0.99997
0.999916
0.999847
0.999852
0.999852
0.999743
0.999932
0.995543
0.865431
2.5256e-08
6.80136e-09
5.23979e-09
1.9132e-09
1.64791e-07
0.0582849
0.722213
1
1
1
0.999999
0.999911
0.999755
0.999618
0.999615
0.997899
0.999451
0.997786
0.960672
6.7747e-09
4.26596e-09
3.98041e-09
4.3671e-09
1.63692e-08
2.19078e-07
0.245358
0.894087
1
1
1
0.999987
0.999725
0.999617
0.999716
0.997985
0.966548
0.964738
0.979907
9.17223e-09
1.26487e-09
2.3827e-09
5.67366e-09
1.51235e-08
4.75067e-08
1.45673e-07
0.386299
1
1
1
0.999993
0.99997
0.999932
0.999936
0.999948
0.966614
0.93593
0.940957
2.04024e-09
9.31501e-10
1.92231e-09
3.83808e-09
9.89471e-09
1.82981e-08
1.36568e-07
0.0520309
0.688789
1
1
1
1
1
1
0.999999
0.99583
0.950587
0.932382
4.95087e-10
7.08804e-10
1.48029e-09
2.71298e-09
5.21998e-09
1.03983e-08
5.97153e-09
3.40928e-07
0.150949
0.80122
1
1
1
1
1
1
1
0.996366
0.967888
2.23076e-10
4.87371e-10
1.06362e-09
2.0397e-09
3.62603e-09
6.18991e-09
5.93479e-09
2.34832e-08
1.86067e-07
0.105265
0.637094
0.919151
1
1
1
1
1
1
1
1.16741e-10
2.92529e-10
7.03851e-10
1.4678e-09
2.8058e-09
4.90988e-09
6.78588e-09
7.2524e-09
8.98983e-09
4.17808e-08
1.86693e-07
0.143375
0.62312
0.872043
0.974523
1
1
1
1
5.10004e-11
1.38673e-10
3.67839e-10
8.61754e-10
1.86746e-09
3.6596e-09
6.38835e-09
9.12843e-09
1.1681e-08
1.1697e-08
1.15068e-08
4.54872e-08
2.00603e-07
0.000335736
0.32751
0.765488
0.933649
0.989429
1
2.28418e-11
6.27762e-11
1.72539e-10
4.32933e-10
1.0259e-09
2.163e-09
4.52088e-09
8.12004e-09
1.17791e-08
1.76078e-08
1.52961e-08
1.70059e-08
4.65682e-05
0.000142635
0.000111396
0.000111378
0.120674
0.517751
0.920503
1.16338e-11
3.47358e-11
9.5038e-11
2.41916e-10
5.80148e-10
1.28656e-09
2.71878e-09
5.54633e-09
1.00457e-08
1.76802e-08
2.10392e-08
1.22906e-08
9.4231e-07
4.49649e-05
0.000228949
0.000898741
0.000113959
0.0282975
0.649692
6.0233e-12
1.91419e-11
5.53115e-11
1.4596e-10
3.57945e-10
7.97639e-10
1.6468e-09
3.3459e-09
6.56857e-09
1.40933e-08
2.26439e-08
2.19307e-08
1.08017e-08
1.08165e-08
3.63569e-05
0.00110104
0.000105731
0.0181389
0.576606
3.25976e-12
1.17926e-11
3.58891e-11
9.92004e-11
2.48002e-10
5.5838e-10
1.12334e-09
2.08108e-09
3.81138e-09
8.33083e-09
2.27369e-08
4.83713e-08
2.76167e-08
1.47315e-08
1.06656e-08
0.000385086
9.71258e-05
0.0201941
0.586625
1.95076e-12
7.89509e-12
2.62851e-11
7.89699e-11
2.11937e-10
5.02593e-10
1.04569e-09
1.88817e-09
2.95535e-09
4.88518e-09
2.74471e-08
6.48627e-08
5.35407e-08
1.91561e-08
1.07744e-08
4.2718e-09
4.27146e-09
0.0422873
0.531447
1.28961e-12
6.06081e-12
2.16013e-11
7.08374e-11
2.06555e-10
5.29767e-10
1.18866e-09
2.34108e-09
3.95485e-09
6.26524e-09
1.22057e-08
3.2021e-08
1.22853e-07
5.56645e-08
2.5158e-08
5.05633e-09
4.2718e-09
0.0324867
0.0472475
8.65821e-13
4.16369e-12
1.62434e-11
5.66189e-11
1.76082e-10
4.82676e-10
1.15938e-09
2.40073e-09
4.07431e-09
6.59496e-09
6.58542e-09
5.72172e-08
2.15174e-07
1.77956e-07
4.58491e-08
4.27314e-09
0.000388895
0.000383016
0.0483731
4.63991e-13
2.53386e-12
1.04291e-11
3.88661e-11
1.28796e-10
3.76526e-10
9.66601e-10
2.13407e-09
3.94039e-09
7.12168e-09
9.37019e-09
3.38634e-08
2.37436e-07
2.73883e-07
8.04847e-08
4.27259e-09
0.000105085
0.000103069
0.599024
2.18781e-13
1.30316e-12
5.90214e-12
2.39548e-11
8.56959e-11
2.68308e-10
7.28038e-10
1.7381e-09
3.54581e-09
7.08027e-09
1.48839e-08
5.25546e-08
2.64692e-07
3.05045e-07
1.60346e-07
1.19362e-08
1.03817e-08
0.00290449
0.767767
6.37336e-14
4.40356e-13
2.26017e-12
1.03573e-11
4.16989e-11
1.46882e-10
4.52167e-10
1.2219e-09
2.86511e-09
6.57278e-09
2.31381e-08
1.67126e-07
3.30916e-07
3.26467e-07
2.44593e-07
1.62644e-08
1.03265e-08
0.0777021
0.768543
2.11817e-14
1.67427e-13
1.00577e-12
5.46188e-12
2.55349e-11
1.04765e-10
3.70626e-10
1.12214e-09
2.85832e-09
6.31522e-09
1.95447e-08
1.86195e-07
3.38916e-07
3.09231e-07
2.0573e-07
1.10098e-08
1.03817e-08
0.153895
0.588391
7.53733e-15
6.86377e-14
5.01747e-13
3.15454e-12
1.72429e-11
8.24001e-11
3.32578e-10
1.10012e-09
3.10742e-09
7.37067e-09
2.03277e-08
2.14532e-07
3.39407e-07
2.74128e-07
6.27453e-08
6.16043e-08
0.0189828
0.129553
0.00799148
3.73526e-15
4.01589e-14
3.23636e-13
2.18355e-12
1.32968e-11
6.63543e-11
2.80331e-10
9.77136e-10
3.00746e-09
7.6543e-09
2.76163e-08
1.56855e-07
3.36822e-07
2.11358e-07
5.95278e-08
0.00504529
0.0325075
2.41006e-06
8.92246e-07
1.74833e-15
1.89864e-14
1.77006e-13
1.38044e-12
8.83601e-12
4.981e-11
2.20432e-10
8.88453e-10
2.96493e-09
7.65168e-09
2.37454e-08
1.34362e-07
3.38747e-07
2.15885e-07
2.97636e-07
0.00732553
0.0195603
3.42068e-06
2.39393e-06
3.9218e-16
4.51828e-15
4.55278e-14
4.55591e-13
3.45143e-12
2.11787e-11
1.11086e-10
5.14079e-10
1.81255e-09
5.25125e-09
1.6016e-08
8.07977e-08
3.03345e-07
2.68368e-07
1.72195e-07
0.00564933
0.00674858
0.000318381
0.0560525
7.24547e-17
9.90863e-16
1.07076e-14
1.12474e-13
1.04301e-12
7.3341e-12
4.3023e-11
2.26479e-10
9.21633e-10
2.99019e-09
8.2579e-09
3.42172e-08
1.29543e-07
2.00714e-07
1.49718e-07
0.000972257
1.53087e-07
3.6641e-07
0.414262
1.24598e-17
1.90708e-16
2.35978e-15
2.82745e-14
2.90044e-13
2.34576e-12
1.53209e-11
8.91868e-11
4.43825e-10
1.67971e-09
5.29333e-09
1.5522e-08
4.59785e-08
1.55171e-07
1.16762e-07
3.3099e-07
1.59192e-07
3.06113e-08
0.61033
2.79976e-18
4.96803e-17
6.92544e-16
9.05834e-15
1.07583e-13
9.33187e-13
6.7607e-12
4.1561e-11
2.09649e-10
9.01309e-10
3.02394e-09
9.19124e-09
2.31523e-08
6.36751e-08
1.06567e-07
1.0092e-07
2.17753e-08
1.42918e-08
0.615962
5.56706e-19
1.12997e-17
1.89581e-16
2.55994e-15
3.38339e-14
2.99962e-13
2.57272e-12
1.86586e-11
9.88985e-11
4.26846e-10
1.61928e-09
5.16509e-09
1.73092e-08
7.00169e-08
1.22529e-07
8.2903e-08
4.11246e-08
3.70851e-09
0.613964
8.53841e-20
1.99227e-18
3.60897e-17
6.07899e-16
8.79708e-15
9.47935e-14
8.2672e-13
5.36909e-12
3.35922e-11
1.57047e-10
6.27524e-10
2.11103e-09
7.43381e-09
2.9724e-08
1.1634e-07
1.25276e-07
8.40016e-08
9.53492e-09
0.307027
1.10441e-20
3.22192e-19
7.3259e-18
1.33825e-16
2.01109e-15
2.47151e-14
2.47993e-13
2.01284e-12
1.28176e-11
6.2171e-11
2.83653e-10
9.32628e-10
2.94207e-09
3.96997e-09
3.57068e-08
7.31133e-08
7.45361e-08
9.95962e-09
0.0560557
8.15189e-22
2.8688e-20
7.18987e-19
1.24981e-17
2.40621e-16
3.59646e-15
4.22985e-14
3.75278e-13
2.49272e-12
1.153e-11
4.2558e-11
1.26681e-10
3.60498e-10
4.02945e-16
2.53121e-26
8.56529e-28
3.13056e-09
2.36215e-09
1.80807e-09
)
;

boundaryField
{
    leftWall
    {
        type            zeroGradient;
    }
    rightWall
    {
        type            zeroGradient;
    }
    lowerWall
    {
        type            zeroGradient;
    }
    atmosphere
    {
        type            inletOutlet;
        inletValue      uniform 0;
        value           nonuniform List<scalar> 
46
(
4.80533e-67
3.66316e-67
6.80762e-64
2.15834e-61
4.26664e-59
6.27793e-57
7.72572e-55
8.23278e-53
7.71622e-51
6.46879e-49
4.96479e-47
3.63021e-45
2.45573e-43
9.64173e-42
6.72409e-40
2.93318e-38
1.11215e-36
3.58046e-35
1.03564e-33
2.52133e-32
5.16452e-31
8.98202e-30
1.50857e-28
3.25219e-27
7.02611e-26
1.74708e-24
4.00331e-23
8.15189e-22
2.8688e-20
7.18987e-19
1.24981e-17
2.40621e-16
3.59646e-15
4.22985e-14
3.75278e-13
2.49272e-12
0
0
0
0
0
0
0
0
2.36215e-09
1.80807e-09
)
;
    }
    defaultFaces
    {
        type            empty;
    }
}


// ************************************************************************* //
