/*--------------------------------*- C++ -*----------------------------------*\
| =========                 |                                                 |
| \\      /  F ield         | OpenFOAM: The Open Source CFD Toolbox           |
|  \\    /   O peration     | Version:  2312                                  |
|   \\  /    A nd           | Website:  www.openfoam.com                      |
|    \\/     M anipulation  |                                                 |
\*---------------------------------------------------------------------------*/
FoamFile
{
    version     2.0;
    format      ascii;
    arch        "LSB;label=32;scalar=64";
    class       volScalarField;
    location    "0.6";
    object      alphas;
}
// * * * * * * * * * * * * * * * * * * * * * * * * * * * * * * * * * * * * * //

dimensions      [0 0 0 0 0 0 0];

internalField   nonuniform List<scalar> 
2268
(
2
2
2
2
2
2
2
2
2
2
2
2
2
2
2
2
2
2
2
2
2
2
1.99993
2
2
2
2
2
2
2
2
2
2
2
2
2
2
2
2
2
2
2
2
2
2
1.99993
2
2
2
2
2
2
2
2
2
2
2
2
2
2
2
2
2
2
2
2
2
2
1.99996
1.67458
1.68589
1.68722
1.68865
1.69145
1.69633
1.70563
1.72336
1.75524
1.80792
1.88394
1.98436
2
2
2
2
2
2
2
2
2
2
2
0.195857
0.205686
0.206284
0.207572
0.21006
0.21431
0.222689
0.239535
0.272484
0.335706
0.456434
0.705538
1.24726
1.88653
2
2
2
2
2
2
2
2
2
3.67074e-10
3.7324e-10
3.74949e-10
3.70629e-10
3.55551e-10
3.34187e-10
3.09488e-10
2.90229e-10
2.67148e-10
2.45502e-10
2.20302e-10
1.89778e-10
0.0629861
0.543988
1.67623
2
2
2
2
2
2
2
2
5.02313e-10
5.11968e-10
5.07643e-10
4.99326e-10
4.78097e-10
4.5272e-10
4.22381e-10
3.9978e-10
3.71374e-10
3.47846e-10
3.19016e-10
3.68497e-10
3.10954e-10
4.52074e-09
0.508028
1.86762
2
2
2
2
2
1.99999
1.99976
6.61726e-10
6.74854e-10
6.52717e-10
6.40763e-10
6.16417e-10
6.04192e-10
5.73803e-10
5.53263e-10
5.13211e-10
4.94368e-10
4.58707e-10
4.13914e-10
4.28489e-10
3.45239e-10
0.00771071
1.10279
2
2
2
2
2
1.99997
1.99966
1.00008
1.00133
1.02938
1.18794
1.18666
1.09108
1.00949
1.00236
1.19188
2.6787
2.93847
2.91969
2.90456
2.74271
2.24162
1.72114
1.67811
1.71975
1.89113
1.00008
1.01014
1.41668
1.92397
1.95217
1.75831
1.15503
1.00245
1.10979
2.42766
2.96375
2.97461
2.89169
2.75814
2.57102
2.49171
2.47744
2.42258
2.31089
1.00027
1.04116
1.8746
1.97644
1.95696
2.01492
1.63143
1.0436
1.00848
1.41022
2.44066
2.97293
2.97516
2.23949
1.66943
1.75425
2.11793
2.21732
1.85469
1.0001
1.32973
1.91267
1.91137
1.84036
1.88763
1.90224
1.20187
1.00803
1.00699
1.15363
2.22051
2.97569
2.75329
2.48061
1.48679
1.19299
1.22082
1.38421
1.0001
1.70561
1.84776
1.4519
0.574017
0.746138
1.58952
1.39754
1.01153
1.00003
1.00031
1.04355
2.36497
2.96555
2.96366
2.69367
1.3914
1.12379
1.2544
1.54263
1.87995
1.5124
0.244984
0.0153106
0.0154058
0.869356
1.36475
1.03175
1.00002
1.00002
1.00011
1.22083
2.59195
2.96655
2.96364
1.73369
1.12372
1.29486
1.93096
1.83806
0.327346
0.0148877
0.0102249
0.0101778
0.0938557
0.989146
1.0732
1.00004
1.00002
1.00002
1.00014
1.52543
2.51419
2.30293
1.29212
1.19244
1.2253
1.9147
0.832436
0.0142683
0.00928591
0.00777486
0.00779855
0.00985178
0.485595
1.09065
1.20936
1.01137
1.00294
1.00097
1.005
1.14725
1.07092
1.04158
1.10848
1.22521
8.21763e-10
8.38294e-10
7.89353e-10
7.89334e-10
7.80994e-10
7.66579e-10
7.71679e-10
7.3065e-10
7.11104e-10
7.33001e-10
7.46469e-10
6.30367e-10
5.12688e-10
7.39582e-10
6.77247e-10
0.103625
1.32915
1.97076
1.98307
1.96535
1.93687
1.9171
1.94751
1.00956e-09
1.00751e-09
9.13508e-10
9.97973e-10
9.8516e-10
9.28445e-10
9.82755e-10
9.30306e-10
8.6648e-10
1.02227e-09
1.12791e-09
9.80062e-10
5.0239e-10
6.41282e-10
1.20149e-09
4.21891e-09
0.026619
0.309656
0.714675
0.737554
0.58895
0.519806
0.610579
8.87572e-10
8.87634e-10
8.87536e-10
8.88004e-10
9.22303e-10
8.87709e-10
8.87533e-10
8.87502e-10
1.42592e-09
2.69683e-09
4.07106e-09
3.13153e-09
3.42221e-09
4.36482e-11
1.47366e-10
3.27567e-10
2.47138e-09
4.98539e-09
9.75273e-08
1.39135e-06
2.30545e-06
0.000264062
0.0012888
0.224185
0.187475
0.125431
0.067984
0.0284342
0.00335056
1.28274e-05
9.27111e-08
0.00149649
0.0550572
0.13402
0.160039
0.12606
0.0499685
0.00778357
4.31056e-05
3.07093e-08
1.12872e-08
2.59871e-06
4.81782e-06
9.61782e-07
0.0058908
0.0540342
2.25132
2.18163
2.00851
1.75702
1.46644
1.18006
1.02445
1.01728
1.06044
1.16416
1.1376
0.980436
0.90301
0.746833
0.526232
0.339744
0.15423
0.070355
0.102476
0.164747
0.264188
0.499218
0.926025
3
3
2.99954
2.94575
2.86198
2.81941
2.81904
2.84548
2.51347
1.64144
1.29782
1.22532
1.15905
1.11156
1.09332
1.06395
1.02723
1.04103
1.09824
1.26129
1.47625
1.76362
2.03388
3
2.99999
2.99981
2.9998
2.9998
2.96859
2.75029
2.74065
2.76246
2.88542
2.89267
2.71937
2.5058
2.31176
2.16788
2.10846
2.12498
2.20231
2.3375
2.50752
2.7152
2.92201
3
3
3
2.99999
2.99404
2.9889
2.99095
2.99999
2.99999
2.99999
2.99999
2.99997
2.99995
2.99994
2.99994
2.99995
2.99995
2.99995
2.99996
2.99998
3
3
3
3
3
3
3
2.99807
2.99592
2.99828
2.99999
2.99999
2.99999
3
3
3
2.99999
3
2.99999
2.99995
2.99993
2.99993
2.99997
3
3
3
3
3
2.99999
2.99999
2.99999
2.99948
2.99979
2.99995
2.99997
2.99998
2.99999
3
3
3
3
3
3
2.99998
2.99998
2.99999
3
3
3
3
3
2.99999
2.99998
2.99999
3
3
3
3
3
3
3
3
3
3
3
3
3
3
3
3
3
3
2.99998
3
3
2.99999
2.99999
3
3
3
3
3
3
3
3
3
3
3
3
3
3
3
3
2.99999
2.99999
2.99987
3
3
3
3
3
3
3
3
3
3
3
3
3
3
3
3
3
3
3
3
2.99997
2.99997
2.99985
3
3
3
3
3
3
3
3
3
3
3
3
3
3
3
3
3
3
3
3
2.99997
2.99998
2.99999
3
3
3
3
3
3
3
3
3
3
3
3
3
3
3
3
3
3
3
3
3
3
3
3
3
3
3
3
3
3
3
3
3
3
3
3
3
3
3
3
3
3
3
3
3
3
3
3
3
3
3
3
3
3
3
3
3
3
3
3
3
3
3
3
3
3
3
3
3
3
3
3
3
3
3
3
3
3
3
3
3
3
3
3
3
3
3
3
3
3
3
3
3
3
3
3
3
3
3
3
3
3
3
3
3
3
3
3
3
3
3
3
3
3
3
3
3
3
3
3
3
3
3
3
3
3
3
3
3
3
3
3
3
3
3
3
3
3
3
3
3
3
3
3
3
3
3
3
3
3
3
3
3
3
3
3
3
3
3
3
3
3
3
3
3
3
3
3
3
3
3
3
3
3
3
3
3
3
3
3
3
3
3
3
3
3
3
3
3
3
3
3
3
3
3
3
3
3
3
3
3
3
3
3
3
3
3
3
3
3
3
3
3
3
3
3
3
3
3
3
3
3
3
3
3
3
3
3
3
3
3
3
3
3
3
3
3
3
3
3
3
3
3
3
3
3
3
3
3
3
3
3
3
3
3
3
3
3
3
3
3
3
3
3
3
3
3
3
3
3
3
3
3
3
3
3
3
3
3
3
3
3
3
3
3
3
3
3
3
3
3
3
3
3
3
3
3
3
3
3
3
3
3
3
3
3
3
3
3
3
3
3
3
3
3
3
3
3
3
3
3
3
3
3
3
3
3
3
3
3
3
3
3
3
3
3
3
3
3
3
3
3
3
3
3
3
3
3
3
3
3
3
3
3
3
3
3
3
3
3
3
3
3
3
3
3
3
3
3
3
3
3
3
3
3
3
3
3
3
3
3
3
3
3
3
3
3
3
3
3
3
3
3
3
3
3
3
3
3
3
3
3
3
3
3
3
3
3
3
3
3
3
3
3
3
3
3
3
3
3
3
3
3
3
3
3
3
3
3
3
3
3
3
3
3
3
3
3
3
3
3
3
3
3
3
3
3
3
3
3
3
3
3
3
3
3
3
3
3
3
3
3
3
3
3
3
3
3
3
3
3
3
3
3
3
3
3
3
3
3
3
3
3
3
3
3
3
3
3
3
3
3
3
3
3
3
3
3
3
3
3
3
3
3
3
3
3
3
3
3
3
3
3
3
3
3
3
3
3
3
3
3
3
3
3
3
3
3
3
3
3
3
3
3
3
3
3
3
3
3
3
3
3
3
3
3
3
3
3
3
3
3
3
3
3
3
3
3
3
3
3
3
3
3
3
3
3
3
3
3
3
3
3
3
3
3
3
3
3
3
3
3
3
3
3
3
3
3
3
3
3
3
3
3
3
3
3
3
3
3
3
3
3
3
3
3
3
3
3
3
3
3
3
3
3
3
3
3
3
3
3
3
3
3
3
3
3
3
3
3
3
3
3
3
3
3
3
3
3
3
3
3
3
3
1.94913
1.9375
1.90717
1.90203
0.6114
0.578388
0.500537
0.311333
0.0025704
0.00408582
0.00577949
0.0128903
0.115584
0.170712
0.267537
0.517433
1.19799
1.4133
1.68244
1.88665
2.26617
2.40074
2.58685
2.869
3
3
3
3
3
3
3
3
3
3
3
2.99993
3
3
2.99999
2.99968
3
2.99996
2.99987
2.99954
2.9999
2.99985
2.99973
2.99974
2.99985
2.99993
3
3
3
3
3
3
3
3
3
3
3
3
3
3
3
3
3
3
3
3
3
3
3
3
3
3
3
3
3
3
3
3
3
3
3
3
3
3
3
3
3
3
3
3
3
3
3
3
3
3
3
3
3
3
3
3
3
3
3
3
3
3
3
3
3
3
3
3
3
3
3
3
3
3
3
3
3
3
3
3
3
3
3
3
3
3
3
3
3
3
3
3
3
3
3
3
3
3
3
3
3
3
3
3
3
3
3
3
3
3
3
3
3
3
3
3
3
3
1.08581
0.107992
0.00786017
0.00943588
0.0209613
0.0220418
0.0145321
0.028939
0.530973
0.795472
0.993319
1.11888
1.18354
1.17192
1.16843
1.14096
0.996456
0.603023
0.939496
0.0451168
0.0346972
0.158119
0.340179
0.486578
0.492124
0.414038
0.251762
0.0832414
0.106023
0.139361
0.189397
0.31193
0.539436
0.697514
0.707371
0.270687
0.193557
0.839752
0.118471
0.564903
1.15747
1.57741
1.73694
1.72031
1.659
1.50356
1.22414
0.911348
0.52228
0.263854
0.30595
0.309939
0.180211
0.161391
0.143175
0.155004
0.965746
1.10611
2.04128
2.28
2.48286
2.57289
2.52319
2.41297
2.27785
2.12962
1.94985
1.7576
1.4739
1.26177
0.896214
0.518043
0.175898
0.10224
0.249569
1.25094
2.21326
2.71968
3
3
3
3
3
3
3
2.99042
2.92307
2.71508
2.14407
1.68954
1.15307
0.788446
0.662962
0.863278
1.32083
3
3
3
2.99999
3
3
3
3
3
3
3
2.99998
2.66626
2.06378
1.16806
1.00076
0.999978
0.999977
1.04356
3
2.99985
2.99989
2.99998
3
3
2.99999
2.99997
2.99997
3
3
3
2.82169
1.69552
1.04729
0.999984
0.999983
0.999986
1.00002
2.99981
2.99934
2.99955
3
3
3
2.99993
2.99991
2.99991
2.99998
3
3
2.9121
1.67168
0.999981
0.999957
0.999948
1.00012
1.0013
2.99938
2.99934
2.99967
3
3
3
2.99994
2.99991
2.99003
2.99997
2.99999
3
2.99489
2.04224
1.00006
0.999972
0.999972
1.00133
1.11421
2.99934
2.99952
3
3
3
3
2.98697
2.43882
1.92097
2.20611
2.83135
2.99563
2.99622
1.85633
1.00009
1.00009
1.00004
1.00365
1.14032
2.99937
2.99998
3
3
3
3
2.38593
1.10144
1
1
1.33945
1.68915
1.59458
1.07733
1.0001
1.0001
1.00008
1.00545
1.14543
2.99997
3
3
3
3
2.93857
1.58579
1
1
1.00001
1.00003
1.00008
1.00015
1.00018
1.00029
1.00051
1.0001
1.00456
1.14198
3
3
3
3
3
2.88343
1.55557
1
1
1
1
1.00009
1.00034
1.00061
1.00068
1.00419
1.00101
1.00229
1.03956
3
3
3
3
3
3
2.50928
1.21183
1
1
1
1.00002
1.00043
1.00061
1.00044
1.00402
1.06689
1.0698
1.03113
3
3
3
3
3
3
3
2.2274
1
1
1
1.00001
1.00005
1.00011
1.0001
1.0001
1.06673
1.12793
1.11797
3
3
3
3
3
3
3
2.89594
1.62242
1
1
1
1
1
1
1
1.00834
1.09876
1.13512
3
3
3
3
3
3
3
3
2.6981
1.39756
1
1
1
1
1
1
1
1.00727
1.06418
3
3
3
3
3
3
3
3
3
2.78947
1.72581
1.1617
1
1
1
1
1
1
1
3
3
3
3
3
3
3
3
3
3
3
2.71325
1.75376
1.25591
1.05095
1
1
1
1
3
3
3
3
3
3
3
3
3
3
3
3
3
2.99933
2.34498
1.46902
1.1327
1.02114
1
3
3
3
3
3
3
3
3
3
3
3
3
2.99991
2.99971
2.99978
2.99978
2.75865
1.9645
1.15899
3
3
3
3
3
3
3
3
3
3
3
3
3
2.99991
2.99954
2.9982
2.99977
2.9434
1.70062
3
3
3
3
3
3
3
3
3
3
3
3
3
3
2.99993
2.9978
2.99979
2.96372
1.84679
3
3
3
3
3
3
3
3
3
3
3
3
3
3
3
2.99923
2.99981
2.95961
1.82675
3
3
3
3
3
3
3
3
3
3
3
3
3
3
3
3
3
2.91543
1.93711
3
3
3
3
3
3
3
3
3
3
3
3
3
3
3
3
3
2.93503
2.90551
3
3
3
3
3
3
3
3
3
3
3
3
3
3
3
3
2.99922
2.99923
2.90325
3
3
3
3
3
3
3
3
3
3
3
3
3
3
3
3
2.99979
2.99979
1.80195
3
3
3
3
3
3
3
3
3
3
3
3
3
3
3
3
3
2.99419
1.46447
3
3
3
3
3
3
3
3
3
3
3
3
3
3
3
3
3
2.8446
1.46291
3
3
3
3
3
3
3
3
3
3
3
3
3
3
3
3
3
2.69221
1.82322
3
3
3
3
3
3
3
3
3
3
3
3
3
3
3
3
2.96203
2.74089
2.98402
3
3
3
3
3
3
3
3
3
3
3
3
3
3
3
2.98991
2.93498
3
3
3
3
3
3
3
3
3
3
3
3
3
3
3
3
3
2.98535
2.96088
2.99999
3
3
3
3
3
3
3
3
3
3
3
3
3
3
3
3
2.9887
2.9865
2.99936
2.8879
3
3
3
3
3
3
3
3
3
3
3
3
3
3
3
2.99806
3
3
2.17148
3
3
3
3
3
3
3
3
3
3
3
3
3
3
3
3
3
3
1.77934
3
3
3
3
3
3
3
3
3
3
3
3
3
3
3
3
3
3
1.76808
3
3
3
3
3
3
3
3
3
3
3
3
3
3
3
3
3
3
1.77207
3
3
3
3
3
3
3
3
3
3
3
3
3
3
3
3
3
3
2.38595
3
3
3
3
3
3
3
3
3
3
3
3
3
3
3
3
3
3
2.88789
3
3
3
3
3
3
3
3
3
3
3
3
3
3
3
3
3
3
3
)
;

boundaryField
{
    leftWall
    {
        type            calculated;
        value           nonuniform List<scalar> 
50
(
2
2
2
1.67458
0.195857
3.67074e-10
5.02313e-10
6.61726e-10
8.21763e-10
1.00956e-09
8.87572e-10
0.224185
2.25132
3
3
3
3
3
3
3
3
3
3
3
3
3
3
3
3
3
3
3
3
3
3
3
3
3
3
3
3
3
3
3
3
3
3
3
3
3
)
;
    }
    rightWall
    {
        type            calculated;
        value           nonuniform List<scalar> 
50
(
1.89113
2.31089
1.85469
1.38421
1.2544
1.29486
1.2253
1.22521
0.939496
0.839752
0.965746
1.25094
1.32083
1.04356
1.00002
1.0013
1.11421
1.14032
1.14543
1.14198
1.03956
1.03113
1.11797
1.13512
1.06418
1
1
1
1.15899
1.70062
1.84679
1.82675
1.93711
2.90551
2.90325
1.80195
1.46447
1.46291
1.82322
2.98402
3
3
2.8879
2.17148
1.77934
1.76808
1.77207
2.38595
2.88789
3
)
;
    }
    lowerWall
    {
        type            calculated;
        value           nonuniform List<scalar> 
62
(
2
2
2
2
2
2
2
2
2
2
2
2
2
2
2
2
2
2
2
2
2
2
1.99993
1.99993
1.99993
1.99996
2
2
2
1.99976
1.99966
1.94913
1.9375
1.90717
1.90203
1.00008
1.00008
1.00027
1.0001
1.0001
1.54263
1.93096
1.9147
1.00008
1.00133
1.02938
1.18794
1.18666
1.09108
1.00949
1.00236
1.19188
2.6787
2.93847
2.91969
2.90456
2.74271
2.24162
1.72114
1.67811
1.71975
1.89113
)
;
    }
    atmosphere
    {
        type            calculated;
        value           nonuniform List<scalar> 
46
(
3
3
3
3
3
3
3
3
3
3
3
3
3
3
3
3
3
3
3
3
3
3
3
3
3
3
3
3
3
3
3
3
3
3
3
3
3
3
3
3
3
3
3
3
3
3
)
;
    }
    defaultFaces
    {
        type            empty;
    }
}


// ************************************************************************* //
