/*--------------------------------*- C++ -*----------------------------------*\
| =========                 |                                                 |
| \\      /  F ield         | OpenFOAM: The Open Source CFD Toolbox           |
|  \\    /   O peration     | Version:  2312                                  |
|   \\  /    A nd           | Website:  www.openfoam.com                      |
|    \\/     M anipulation  |                                                 |
\*---------------------------------------------------------------------------*/
FoamFile
{
    version     2.0;
    format      ascii;
    arch        "LSB;label=32;scalar=64";
    class       volScalarField;
    location    "0.6";
    object      p;
}
// * * * * * * * * * * * * * * * * * * * * * * * * * * * * * * * * * * * * * //

dimensions      [1 -1 -2 0 0 0 0];

internalField   nonuniform List<scalar> 
2268
(
3597.23
3607.96
3613.6
3622.25
3634.67
3651.9
3676.9
3715.25
3776.35
3875.21
4034.5
4279.01
4644.27
5137.28
5719.19
6319.82
6856
7329.83
7628.11
7851.57
8009.65
8101.62
8150.63
2795.52
2806.14
2811.71
2820.27
2832.44
2849.21
2873.4
2910.32
2968.96
3063.64
3211.75
3454.41
3816.7
4316.02
4912.11
5531.68
6084.05
6547.83
6849.08
7070.6
7226.03
7316.17
7365.64
1989.69
2000.21
2005.71
2014.13
2025.88
2041.79
2064.36
2098.39
2152.25
2240.66
2392.4
2603.44
2955.58
3465.55
4088.52
4747.17
5334.5
5778.83
6085.62
6304.05
6454.5
6540.82
6589.07
1240.19
1248.35
1253.32
1261.04
1271.45
1284.91
1302.89
1328.4
1366.91
1428.54
1532.63
1715.22
2051.46
2580.44
3245.46
3966.26
4597.69
5034.86
5340.83
5553.03
5695.3
5775.68
5824.46
832.3
836.265
840.867
847.918
857.057
868.253
881.841
898.779
920.901
951.445
995.374
1075.82
1250.21
1664.17
2371.65
3192.58
3877.07
4313.71
4615.09
4816.79
4947.14
5019.05
5068.3
736.344
738.556
743.006
749.742
758.343
768.61
780.405
793.832
809.212
827.062
847.729
872.274
917.344
1053.24
1515.84
2435.23
3155.39
3613.72
3907.86
4094.19
4208.69
4269.45
4321.69
675.907
678.107
682.562
689.337
697.97
708.207
719.896
733.126
748.193
765.551
785.611
809.015
837.887
873.564
997.818
1661.38
2455.72
2934.1
3216.55
3381.56
3476.61
3524.74
3584.23
614.901
617.102
621.585
628.486
637.223
647.469
659.045
672.03
686.702
703.44
722.54
744.331
771.43
803.832
830.09
1041.95
1767.26
2268.97
2531.31
2669.64
2739.03
2770
2851.97
3840.77
3896.78
4351.54
5407.93
5588.2
3448.01
2003.75
1537.19
1497.75
1584.22
1602.24
1606.27
1588.97
1584.26
1684.5
1782.35
1939.35
2473.83
3768.67
3761.28
3814.59
4115.41
4793.4
4809.7
3042.94
1803.9
1446.78
1403.42
1522.47
1569.87
1592.85
1559.56
1511.67
1525.61
1588.45
1757.31
2115.48
3347.17
3661.19
3723.03
3658.73
3672.73
3398.98
2329.88
1430.87
1313.42
1280.32
1423.18
1523.53
1574.02
1536.47
1466.18
1442.73
1461.83
1574.91
1774.16
2872.82
3597.51
3466.78
2883.45
2476.66
2018.4
1538.2
1113.69
1058.84
1188.42
1332.47
1452.49
1533.2
1516.86
1446.01
1417.14
1426.76
1480.82
1583.18
2541.59
3558.44
3049.15
1988.5
1390.79
1067.45
910.623
837.206
835.707
1124.66
1274.51
1384.53
1467.45
1485.76
1436.93
1416.46
1414.23
1435.4
1554.39
2457.07
3323.5
2364.81
1169.75
831.811
774.366
690.299
664.707
729.494
1058.09
1232.38
1335.7
1407.68
1448.75
1428.15
1416.33
1414.13
1425.25
1567.79
2548.5
1859.78
1540.87
745.479
660.892
655.353
606.193
532.744
634.588
987.78
1204.02
1295.81
1362.76
1409.6
1414.42
1410.25
1405
1428.74
1575.24
2716.63
390.235
817.715
593.738
559.322
552.419
519.08
471.925
516.119
848.687
1135.16
1254.4
1327.6
1377.05
1392.56
1398.36
1397.92
1441.9
1616.98
2798.83
518.441
520.675
525.22
532.548
541.625
551.987
563.412
575.982
589.99
605.75
623.607
643.846
666.476
691.718
707.877
707.966
912.137
1259.5
1472.31
1568.81
1599.68
1595.09
1671.62
382.823
385.475
390.188
399.42
409.649
420.546
431.865
443.714
456.515
470.428
485.667
502.488
519.257
531.957
530.708
481.932
388.314
413.392
481.636
543.597
563.004
558.932
582.224
245.118
248.835
256.84
265.53
276.485
288.405
299.711
310.485
321.826
333.387
345.277
358.511
371.598
380.137
377.111
342.312
268.102
200.165
191.609
213.386
239.159
245.32
232.834
103.507
107.665
116.583
128.91
142.929
156.885
167.723
176.213
186.491
196.887
206.269
216.884
228.508
238.854
244.159
234.047
205.249
180.56
159.217
151.35
149.458
142.244
125.787
16.0197
17.3799
21.3537
29.4662
39.3732
49.3659
56.8936
60.7632
73.9862
90.1577
101.226
110.899
120.004
127.792
133.22
135.828
131.631
119.013
103.655
91.1604
79.7176
67.5141
53.6067
0.282509
0.283894
0.303441
0.64423
2.45107
6.36729
10.5659
12.1933
15.6865
25.155
31.9135
39.1352
46.5738
52.434
56.1827
57.3191
53.8253
47.6351
40.959
33.1296
25.0409
18.2598
14.5813
0.0283066
-0.0489751
-0.191248
-0.375332
-0.460607
0.0675739
3.58892
4.2328
3.17318
1.23222
1.17748
3.68521
7.05399
10.1336
12.43
13.3872
13.1254
11.8951
9.7833
7.14273
3.89095
0.910134
0.0174394
-0.340496
-0.4671
-0.684873
-0.910516
-0.994172
-0.986845
-0.940681
-0.869538
-0.820251
-0.767841
-0.746413
-0.777647
-0.790771
-0.787152
-0.773819
-0.753726
-0.732661
-0.707188
-0.665257
-0.603636
-0.515348
-0.38136
-0.207264
-0.709041
-0.821881
-1.02804
-1.31856
-1.39573
-1.24983
-1.13064
-1.04946
-0.979572
-0.92743
-0.905003
-0.91032
-0.911504
-0.905029
-0.89169
-0.872829
-0.848341
-0.816509
-0.771803
-0.710765
-0.629482
-0.522451
-0.391797
-0.982301
-1.06314
-1.21968
-1.42527
-1.47025
-1.38956
-1.27583
-1.19955
-1.12804
-1.08049
-1.05405
-1.04268
-1.03515
-1.02497
-1.00989
-0.989547
-0.963149
-0.92898
-0.884391
-0.827342
-0.756059
-0.669325
-0.570521
-1.16943
-1.21855
-1.31602
-1.44047
-1.49354
-1.46347
-1.38702
-1.31892
-1.26191
-1.22075
-1.19447
-1.17838
-1.16568
-1.15154
-1.1338
-1.11181
-1.08508
-1.05222
-1.01169
-0.962217
-0.903056
-0.834615
-0.758587
-1.30923
-1.33606
-1.39391
-1.46916
-1.51132
-1.5028
-1.46386
-1.41919
-1.38006
-1.3499
-1.32807
-1.31175
-1.29726
-1.28177
-1.26371
-1.24234
-1.21716
-1.18741
-1.1523
-1.11116
-1.06376
-1.01137
-0.954566
-1.43644
-1.44971
-1.48281
-1.52681
-1.55648
-1.55997
-1.54423
-1.52013
-1.4963
-1.47599
-1.45924
-1.44469
-1.43059
-1.41546
-1.39835
-1.37873
-1.35624
-1.3305
-1.30125
-1.26815
-1.2317
-1.19294
-1.15278
-1.5668
-1.57257
-1.59059
-1.61562
-1.6358
-1.64332
-1.64089
-1.63034
-1.617
-1.60372
-1.59112
-1.57882
-1.56611
-1.5523
-1.53691
-1.51966
-1.50036
-1.47883
-1.45527
-1.42949
-1.40203
-1.37404
-1.34636
-1.70363
-1.70598
-1.71593
-1.73065
-1.74465
-1.75419
-1.75516
-1.75099
-1.74359
-1.73476
-1.72524
-1.7151
-1.70413
-1.69209
-1.67878
-1.66412
-1.64813
-1.63089
-1.61233
-1.59265
-1.57274
-1.55363
-1.5358
-1.84548
-1.84658
-1.85247
-1.8615
-1.87076
-1.87774
-1.88063
-1.87947
-1.87534
-1.86935
-1.86213
-1.85392
-1.84475
-1.8346
-1.82347
-1.81151
-1.79887
-1.78545
-1.77139
-1.75718
-1.7437
-1.73211
-1.72305
-1.99016
-1.99084
-1.99455
-2.00023
-2.00626
-2.01116
-2.01389
-2.01385
-2.01146
-2.0073
-2.00182
-1.99529
-1.98784
-1.97956
-1.97065
-1.96142
-1.95182
-1.94188
-1.93195
-1.92262
-1.91476
-1.90945
-1.90757
-2.1363
-2.1368
-2.13925
-2.14292
-2.14686
-2.1502
-2.15233
-2.1526
-2.15111
-2.14815
-2.14402
-2.13894
-2.13309
-2.12662
-2.11994
-2.11318
-2.10628
-2.09952
-2.0933
-2.08822
-2.08517
-2.08512
-2.08881
-2.28323
-2.28364
-2.2853
-2.28772
-2.29031
-2.29252
-2.29411
-2.29441
-2.29344
-2.29134
-2.28829
-2.28449
-2.28009
-2.27538
-2.27071
-2.26609
-2.26165
-2.25771
-2.25469
-2.25319
-2.254
-2.258
-2.26605
-2.43058
-2.43093
-2.43209
-2.43372
-2.43547
-2.43696
-2.43811
-2.43838
-2.43775
-2.4363
-2.43416
-2.43147
-2.42841
-2.42529
-2.42237
-2.41963
-2.41735
-2.41583
-2.41551
-2.41694
-2.42076
-2.42791
-2.43908
-2.57813
-2.57842
-2.57925
-2.5804
-2.58168
-2.58296
-2.58359
-2.58379
-2.58344
-2.58254
-2.58117
-2.57946
-2.5776
-2.57589
-2.57442
-2.57333
-2.57289
-2.57341
-2.57531
-2.5791
-2.58542
-2.59466
-2.60788
-2.72574
-2.72597
-2.72659
-2.72744
-2.72837
-2.72927
-2.72986
-2.73013
-2.73004
-2.72962
-2.72894
-2.72809
-2.72727
-2.72672
-2.7265
-2.72682
-2.72791
-2.73009
-2.73374
-2.7393
-2.74726
-2.75812
-2.77261
-2.87332
-2.87352
-2.874
-2.87465
-2.87538
-2.8761
-2.87667
-2.87705
-2.87723
-2.87724
-2.87714
-2.87704
-2.87712
-2.87752
-2.87835
-2.87982
-2.88216
-2.88565
-2.89063
-2.89748
-2.9066
-2.91845
-2.93355
-3.02085
-3.02102
-3.02142
-3.02195
-3.02257
-3.02321
-3.0238
-3.02431
-3.02475
-3.02514
-3.02554
-3.02607
-3.02688
-3.02806
-3.02976
-3.03217
-3.03548
-3.03997
-3.04592
-3.05366
-3.06351
-3.07584
-3.09107
-3.16829
-3.16845
-3.16879
-3.16926
-3.16983
-3.17045
-3.17109
-3.17174
-3.17241
-3.17312
-3.17396
-3.17502
-3.1764
-3.17821
-3.1806
-3.18373
-3.18778
-3.19299
-3.19961
-3.20789
-3.21811
-3.23056
-3.24555
-3.31563
-3.31578
-3.31609
-3.31654
-3.31709
-3.31773
-3.31843
-3.31921
-3.32008
-3.32107
-3.32226
-3.32373
-3.32557
-3.32787
-3.33078
-3.33444
-3.33902
-3.34471
-3.35173
-3.36028
-3.37059
-3.38287
-3.39736
-3.46285
-3.463
-3.4633
-3.46373
-3.46429
-3.46496
-3.46574
-3.46663
-3.46767
-3.46889
-3.47035
-3.47213
-3.47431
-3.47698
-3.48027
-3.48429
-3.48921
-3.49518
-3.50238
-3.51098
-3.52115
-3.53306
-3.54687
-3.60994
-3.6101
-3.61041
-3.61083
-3.61139
-3.6121
-3.61294
-3.61393
-3.6151
-3.61649
-3.61816
-3.62017
-3.62259
-3.62551
-3.62904
-3.63329
-3.63838
-3.64446
-3.65167
-3.66014
-3.67
-3.68138
-3.69439
-3.75691
-3.75705
-3.75733
-3.75779
-3.75838
-3.75911
-3.76
-3.76106
-3.76233
-3.76385
-3.76565
-3.7678
-3.77038
-3.77345
-3.77711
-3.78145
-3.78659
-3.79264
-3.79971
-3.80791
-3.81734
-3.82809
-3.84023
-3.90373
-3.90388
-3.90417
-3.90462
-3.90522
-3.90597
-3.90689
-3.90801
-3.90934
-3.91092
-3.9128
-3.91504
-3.91768
-3.92081
-3.9245
-3.92884
-3.93391
-3.93982
-3.94663
-3.95445
-3.96335
-3.9734
-3.98463
-4.05043
-4.05057
-4.05087
-4.05131
-4.05191
-4.05267
-4.0536
-4.05474
-4.05609
-4.0577
-4.05961
-4.06186
-4.06451
-4.06762
-4.07125
-4.07549
-4.0804
-4.08604
-4.09253
-4.09989
-4.1082
-4.1175
-4.12781
-4.19699
-4.19713
-4.19742
-4.19786
-4.19844
-4.19919
-4.20012
-4.20125
-4.20259
-4.20419
-4.20608
-4.20829
-4.21088
-4.2139
-4.21741
-4.22147
-4.22613
-4.23147
-4.23754
-4.24438
-4.25205
-4.26057
-4.26995
-4.34341
-4.34355
-4.34383
-4.34426
-4.34481
-4.34554
-4.34645
-4.34754
-4.34885
-4.35039
-4.35221
-4.35434
-4.35683
-4.3597
-4.36302
-4.36683
-4.37119
-4.37615
-4.38175
-4.38804
-4.39503
-4.40275
-4.41121
-4.4897
-4.48983
-4.49009
-4.4905
-4.49104
-4.49173
-4.49258
-4.49362
-4.49486
-4.49632
-4.49804
-4.50004
-4.50238
-4.50505
-4.50812
-4.51165
-4.51566
-4.52019
-4.52528
-4.53097
-4.53726
-4.54418
-4.55171
-4.63585
-4.63598
-4.63622
-4.6366
-4.6371
-4.63774
-4.63853
-4.6395
-4.64064
-4.64199
-4.64357
-4.6454
-4.64752
-4.64998
-4.65279
-4.65598
-4.6596
-4.66366
-4.66821
-4.67327
-4.67885
-4.68495
-4.69158
-4.78188
-4.782
-4.78223
-4.78257
-4.78302
-4.7836
-4.78432
-4.78519
-4.78621
-4.78741
-4.78882
-4.79047
-4.79238
-4.79457
-4.79706
-4.79989
-4.80308
-4.80665
-4.81063
-4.81504
-4.81989
-4.82518
-4.8309
-4.9278
-4.92789
-4.92808
-4.92838
-4.92877
-4.92928
-4.9299
-4.93065
-4.93155
-4.93262
-4.93386
-4.9353
-4.93695
-4.93884
-4.941
-4.94343
-4.94617
-4.94922
-4.95262
-4.95637
-4.96048
-4.96495
-4.96978
-5.07363
-5.07372
-5.07388
-5.07413
-5.07446
-5.07489
-5.0754
-5.07603
-5.07678
-5.07767
-5.0787
-5.0799
-5.08129
-5.08286
-5.08465
-5.08667
-5.08893
-5.09146
-5.09425
-5.09732
-5.10069
-5.10434
-5.10828
-5.21939
-5.21947
-5.2196
-5.21981
-5.22007
-5.2204
-5.2208
-5.22129
-5.22188
-5.22257
-5.22338
-5.22433
-5.22542
-5.22667
-5.22808
-5.22966
-5.23144
-5.23341
-5.23559
-5.23799
-5.2406
-5.24344
-5.24649
-5.36506
-5.36515
-5.36525
-5.36541
-5.36559
-5.36583
-5.36612
-5.36646
-5.36686
-5.36734
-5.36791
-5.36861
-5.36941
-5.37031
-5.37132
-5.37247
-5.37375
-5.37516
-5.37672
-5.37843
-5.3803
-5.38232
-5.38448
-5.51062
-5.51065
-5.51069
-5.51079
-5.5109
-5.51104
-5.51122
-5.51143
-5.51167
-5.51196
-5.51232
-5.51276
-5.51325
-5.51381
-5.51442
-5.51512
-5.5159
-5.51676
-5.51769
-5.51872
-5.51984
-5.52105
-5.52233
-5.6562
-5.65616
-5.65616
-5.6562
-5.65624
-5.65629
-5.65634
-5.65641
-5.65647
-5.65653
-5.65665
-5.65685
-5.65704
-5.65723
-5.65744
-5.65769
-5.65796
-5.65825
-5.65857
-5.65891
-5.65928
-5.65967
-5.66008
1683.13
1603.06
1461.35
1209.29
540.04
480.442
404.383
316.354
205.289
183.936
165.06
147.64
103.678
88.1016
73.8959
60.8076
39.7995
30.6819
22.9499
16.9936
11.4976
9.47797
6.26392
2.29635
0.0219308
0.0680042
0.137731
0.234211
-0.136644
-0.0842956
-0.0226529
0.0487219
-0.307012
-0.251275
-0.191752
-0.127895
-0.496654
-0.447712
-0.396596
-0.342791
-0.700775
-0.662459
-0.622689
-0.582957
-0.911745
-0.883631
-0.853846
-0.826306
-1.12191
-1.10174
-1.0822
-1.06471
-1.32626
-1.31399
-1.30223
-1.29201
-1.52433
-1.51794
-1.51309
-1.51096
-1.71874
-1.71759
-1.71849
-1.72208
-1.90941
-1.91227
-1.91727
-1.9247
-2.09518
-2.10092
-2.10866
-2.11853
-2.27561
-2.28327
-2.29274
-2.30405
-2.45074
-2.45959
-2.47002
-2.48203
-2.62078
-2.63026
-2.64111
-2.65329
-2.78611
-2.7958
-2.80665
-2.81863
-2.94717
-2.95677
-2.96735
-2.97888
-3.10445
-3.11376
-3.12387
-3.13477
-3.25843
-3.26731
-3.27685
-3.28702
-3.4096
-3.41795
-3.42684
-3.43625
-3.55835
-3.56613
-3.57436
-3.583
-3.70508
-3.71228
-3.71983
-3.72772
-3.8501
-3.85671
-3.86361
-3.87078
-3.99368
-3.99972
-4.00599
-4.01248
-4.13606
-4.14153
-4.14721
-4.15307
-4.27741
-4.28236
-4.28746
-4.29272
-4.4179
-4.42233
-4.4269
-4.43159
-4.55766
-4.56159
-4.56564
-4.56979
-4.6968
-4.70024
-4.70378
-4.70742
-4.8354
-4.83837
-4.84143
-4.84457
-4.97357
-4.97607
-4.97864
-4.98129
-5.11137
-5.11341
-5.1155
-5.11767
-5.24888
-5.25046
-5.25209
-5.25377
-5.38617
-5.38729
-5.38844
-5.38964
-5.52334
-5.52401
-5.52469
-5.52542
-5.66039
-5.6606
-5.66082
-5.66105
443.556
458.67
439.009
411.122
395.982
380.722
369.578
387.118
506.229
694.503
890.544
1034.41
1127.36
1187.26
1222.04
1273.08
1394.04
1674.81
2741.43
198.136
239.826
237.634
210.969
194.066
187.991
188.465
201.131
221.327
264.036
316.209
374.595
447.996
552.908
685.55
873.639
1134.99
1399.89
2211.61
119.205
98.4713
84.6632
71.498
65.6079
66.6263
71.6503
80.3355
92.3637
109.222
130.65
160.428
200.644
260.867
364.675
528.923
760.687
954.918
1476.15
42.7756
25.4626
14.9005
9.72715
8.57598
9.48008
11.3891
13.6517
16.0271
19.6271
28.7409
48.8404
86.1089
137.377
203.267
298.072
443.439
538.283
906.834
11.3994
5.02549
1.6064
1.48547
1.61932
1.79801
1.97349
2.12135
2.20719
2.43585
3.57855
6.87356
25.924
71.1616
120.269
162.129
246.058
273.456
494.001
0.684648
0.777394
1.00933
1.19431
1.38553
1.60968
1.83501
2.01473
2.13686
2.22319
2.38753
2.51403
2.74791
34.6638
74.0881
89.8894
142.508
138.562
192.704
0.407868
0.564904
0.760456
0.959381
1.1704
1.41109
1.66599
1.93559
2.07532
2.23643
2.38214
2.49917
2.68888
15.7324
46.7067
47.8663
88.1309
81.8214
107.432
0.190262
0.371421
0.550478
0.712044
0.885214
1.09364
1.57261
1.87643
2.08079
2.3782
2.48804
2.45969
2.87734
9.14463
26.2217
23.9701
55.409
49.9937
89.3414
-0.011948
0.158174
0.321981
0.475847
0.583531
0.852122
1.39376
1.82151
2.29717
2.58595
2.51034
2.34994
2.04469
0.947266
10.0148
7.96061
31.9285
29.6608
61.7537
-0.246686
-0.109602
0.00859554
0.0986874
0.193931
0.474183
0.627372
-5.23423
-12.1081
-9.26845
-0.022075
1.92939
1.4639
-1.65581
-2.84761
-3.31472
19.3365
19.2756
50.1907
-0.514641
-0.419544
-0.375098
-0.322579
-0.240042
-0.165329
-1.94582
-15.3361
-18.6505
-20.5286
-20.4204
-19.6577
-22.1049
-20.2431
-16.0004
-10.0586
14.803
16.2247
55.0296
-0.780777
-0.715297
-0.691158
-0.724187
-0.697456
-0.709377
-3.62792
-10.4857
-16.2327
-20.6501
-23.3687
-23.8025
-21.7967
-24.5578
-20.4536
-8.97532
17.6159
23.8294
70.7101
-1.03495
-1.0104
-1.03157
-1.08449
-1.16933
-1.00669
-0.202708
-7.15116
-16.5204
-22.7064
-26.8763
-29.162
-29.1452
-26.1301
-16.837
0.94134
29.9426
41.2553
87.9278
-1.28022
-1.28898
-1.35626
-1.46436
-1.67264
-2.25132
-1.59997
-4.48044
-13.6494
-20.766
-24.8567
-26.7337
-25.6017
-19.4814
-6.10015
17.0051
48.685
68.4219
114.349
-1.51368
-1.54352
-1.62494
-1.78449
-2.00244
-2.28495
-2.52219
-2.05942
-7.79619
-15.964
-19.7749
-20.2997
-17.0439
-8.28721
8.66729
35.8051
69.7593
97.2047
134.192
-1.73441
-1.77584
-1.85438
-1.98885
-2.16751
-2.30905
-2.2498
-1.79689
-2.36502
-9.28872
-13.9293
-13.3998
-7.92807
3.2377
22.9357
52.7955
90.4624
125.012
155.176
-1.94278
-1.9893
-2.06258
-2.16846
-2.30493
-2.4314
-2.52855
-2.68779
-1.70582
-0.871765
-6.17229
-6.47751
-0.868213
11.124
32.1116
63.7016
105.216
148.532
176.534
-2.13992
-2.18791
-2.2568
-2.3491
-2.4647
-2.6062
-2.75053
-2.94113
-3.26245
-0.825458
9.97366
3.76953
3.27253
12.8946
31.9849
62.6587
106.277
160.42
193.865
-2.32713
-2.37474
-2.43933
-2.52372
-2.62545
-2.75399
-2.91389
-3.1126
-3.25989
-3.37702
-3.34486
0.809473
15.8535
19.8305
26.1691
49.5198
93.8315
152.717
189.95
-2.50566
-2.55165
-2.61143
-2.6868
-2.7774
-2.88675
-3.01761
-3.16687
-3.30374
-3.41771
-3.27268
-3.31332
-3.32584
-3.0073
6.34888
20.4365
44.4287
95.087
141.859
-2.67665
-2.72015
-2.77472
-2.84109
-2.91914
-3.00947
-3.11055
-3.21556
-3.31025
-3.3655
-3.39398
-3.39715
-3.33962
-3.298
-3.42204
-3.08829
1.1812
22.0121
68.9441
-2.84117
-2.88162
-2.93084
-2.98859
-3.0549
-3.12885
-3.20799
-3.28652
-3.35597
-3.40318
-3.42559
-3.4215
-3.42296
-3.40032
-3.43767
-3.37832
-3.18558
-0.887851
18.5867
-3.00021
-3.03735
-3.08149
-3.13113
-3.18747
-3.2483
-3.31134
-3.37258
-3.42649
-3.46616
-3.4871
-3.49092
-3.48544
-3.46997
-3.47299
-3.43669
-3.48464
-3.34681
0.102976
-3.15467
-3.18839
-3.22736
-3.27081
-3.31842
-3.36873
-3.41969
-3.46841
-3.51126
-3.54426
-3.56406
-3.56908
-3.55926
-3.53677
-3.51744
-3.49522
-3.45639
-3.51712
-2.77797
-3.3054
-3.33581
-3.37022
-3.40802
-3.44848
-3.49041
-3.53213
-3.57148
-3.60597
-3.63304
-3.65019
-3.65458
-3.64323
-3.61448
-3.57473
-3.53671
-3.50401
-3.40511
2.49073
-3.45309
-3.48039
-3.51076
-3.54363
-3.57819
-3.61344
-3.648
-3.68024
-3.70833
-3.73037
-3.7447
-3.74807
-3.73538
-3.70051
-3.6425
-3.5776
-3.49769
-3.36118
-5.35611
-3.59834
-3.62279
-3.64958
-3.6782
-3.70792
-3.73783
-3.76685
-3.79368
-3.81704
-3.8354
-3.84688
-3.84921
-3.83568
-3.79654
-3.72457
-3.63942
-3.55535
-3.73553
-2.37276
-3.74163
-3.76349
-3.78712
-3.81212
-3.83787
-3.86353
-3.88827
-3.91113
-3.93083
-3.94591
-3.95512
-3.95686
-3.94374
-3.90193
-3.81826
-3.71929
-3.63544
-3.75106
-2.01843
-3.88336
-3.90288
-3.92375
-3.9456
-3.96816
-3.99038
-4.01184
-4.03156
-4.04844
-4.06128
-4.06892
-4.07028
-4.05922
-4.01258
-3.90771
-3.7909
-3.55736
-3.68406
-2.43353
-4.02382
-4.04125
-4.05974
-4.07899
-4.09865
-4.11815
-4.13695
-4.15435
-4.16927
-4.18084
-4.18803
-4.18993
-4.18099
-4.12694
-4.00234
-3.87351
-3.52075
-4.17258
-5.74667
-4.16326
-4.17881
-4.19522
-4.21224
-4.22956
-4.24682
-4.26359
-4.27924
-4.29301
-4.30418
-4.31181
-4.31471
-4.30768
-4.25536
-4.12178
-3.93257
-3.56983
-4.22657
2.4419
-4.30185
-4.31571
-4.33029
-4.34538
-4.36077
-4.37619
-4.39137
-4.40584
-4.41912
-4.43076
-4.44022
-4.446
-4.44517
-4.41963
-4.32884
-4.12695
-4.28996
-4.36061
-4.88289
-4.43972
-4.45204
-4.46497
-4.47838
-4.49212
-4.50602
-4.51991
-4.53359
-4.54684
-4.55965
-4.57239
-4.58456
-4.59851
-4.63588
-4.70643
-4.64515
-5.49379
-5.9667
-5.61017
-4.57699
-4.58786
-4.59929
-4.61119
-4.62346
-4.63603
-4.64884
-4.6619
-4.67527
-4.68944
-4.70534
-4.72523
-4.7565
-4.84
-5.05104
-5.54708
-6.23751
-6.18954
-5.93009
-4.71372
-4.72323
-4.73325
-4.74374
-4.75465
-4.76598
-4.77778
-4.79017
-4.80344
-4.81828
-4.83628
-4.8616
-4.90085
-4.98669
-5.17883
-5.55752
-5.98213
-6.31431
-6.55853
-4.84999
-4.85819
-4.86686
-4.87598
-4.88556
-4.89565
-4.90634
-4.91784
-4.93054
-4.94517
-4.96326
-4.99022
-5.01911
-5.09125
-5.24173
-5.5324
-5.71209
-5.81447
-4.06844
-4.98587
-4.99278
-5.00012
-5.00789
-5.01612
-5.02487
-5.03429
-5.04456
-5.05603
-5.06925
-5.08485
-5.10644
-5.1311
-5.17618
-5.27067
-5.42457
-5.50142
-5.56776
-2.89292
-5.1214
-5.12705
-5.13307
-5.13946
-5.14629
-5.15362
-5.16156
-5.17027
-5.17998
-5.19094
-5.20288
-5.22036
-5.2374
-5.26271
-5.31026
-5.39213
-5.42963
-5.5
-2.85373
-5.25667
-5.26105
-5.26574
-5.27075
-5.27612
-5.28191
-5.28822
-5.29512
-5.3027
-5.31094
-5.31923
-5.33031
-5.3415
-5.35592
-5.38147
-5.42311
-5.43064
-5.47544
-2.89292
-5.39171
-5.39483
-5.39818
-5.40178
-5.40565
-5.40985
-5.41443
-5.41947
-5.42507
-5.4313
-5.43674
-5.44544
-5.45053
-5.45708
-5.47457
-5.49741
-5.50675
-5.57145
-4.16288
-5.52665
-5.52851
-5.53053
-5.53269
-5.53503
-5.53756
-5.54031
-5.54328
-5.54636
-5.5495
-5.55348
-5.55844
-5.56129
-5.56327
-5.56753
-5.55711
-5.51608
-5.50637
-4.95418
-5.66145
-5.66205
-5.66272
-5.66346
-5.66427
-5.66516
-5.66617
-5.66737
-5.66892
-5.67053
-5.67165
-5.67356
-5.67369
-5.6753
-5.673
-5.65705
-5.61394
-5.56761
-5.28866
)
;

boundaryField
{
    leftWall
    {
        type            calculated;
        value           nonuniform List<scalar> 
50
(
3597.23
2795.52
1989.69
1240.19
832.3
736.344
675.907
614.901
518.441
382.823
245.118
103.507
16.0197
0.282509
0.0283066
-0.340496
-0.709041
-0.982301
-1.16943
-1.30923
-1.43644
-1.5668
-1.70363
-1.84548
-1.99016
-2.1363
-2.28323
-2.43058
-2.57813
-2.72574
-2.87332
-3.02085
-3.16829
-3.31563
-3.46285
-3.60994
-3.75691
-3.90373
-4.05043
-4.19699
-4.34341
-4.4897
-4.63585
-4.78188
-4.9278
-5.07363
-5.21939
-5.36506
-5.51062
-5.6562
)
;
    }
    rightWall
    {
        type            calculated;
        value           nonuniform List<scalar> 
50
(
3768.67
3347.17
2872.82
2541.59
2457.07
2548.5
2716.63
2798.83
2741.43
2211.61
1476.15
906.834
494.001
192.704
107.432
89.3414
61.7537
50.1907
55.0296
70.7101
87.9278
114.349
134.192
155.176
176.534
193.865
189.95
141.859
68.9441
18.5867
0.102976
-2.77797
2.49073
-5.35611
-2.37276
-2.01843
-2.43353
-5.74667
2.4419
-4.88289
-5.61017
-5.93009
-6.55853
-4.06844
-2.89292
-2.85373
-2.89292
-4.16288
-4.95418
-5.28866
)
;
    }
    lowerWall
    {
        type            calculated;
        value           nonuniform List<scalar> 
62
(
3995.38
4006.11
4011.75
4020.4
4032.82
4050.05
4075.05
4113.4
4174.5
4273.36
4432.65
4677.16
5042.42
5535.43
6117.34
6717.97
7254.15
7727.98
8026.26
8249.72
8407.79
8499.77
8548.75
8150.63
7365.64
6589.07
5824.46
5068.3
4321.69
3584.23
2851.97
2509.89
2425.27
2271.75
2017.67
3840.77
3761.28
3661.19
3597.51
3558.44
3323.5
1859.78
390.235
3855.49
3911.48
4366.26
5473.33
5652.76
3481.33
2019.25
1552.04
1516.38
1598.52
1607.65
1609.41
1595.46
1654.92
1773.66
1868.96
2003.45
2533.3
3834.59
)
;
    }
    atmosphere
    {
        type            calculated;
        value           nonuniform List<scalar> 
46
(
-5.72904
-5.72904
-5.72904
-5.72904
-5.72904
-5.72904
-5.72904
-5.72904
-5.72904
-5.72904
-5.72904
-5.72904
-5.72904
-5.72904
-5.72904
-5.72904
-5.72904
-5.72904
-5.72904
-5.72904
-5.72904
-5.72904
-5.72904
-5.72904
-5.72904
-5.72904
-5.72904
-5.72904
-5.72904
-5.72904
-5.72904
-5.72904
-5.72904
-5.72904
-5.72904
-5.72904
-5.72914
-5.72956
-5.73068
-5.73177
-5.73878
-5.73969
-5.73835
-5.73087
-5.72905
-5.72904
)
;
    }
    defaultFaces
    {
        type            empty;
    }
}


// ************************************************************************* //
