/*--------------------------------*- C++ -*----------------------------------*\
| =========                 |                                                 |
| \\      /  F ield         | OpenFOAM: The Open Source CFD Toolbox           |
|  \\    /   O peration     | Version:  2312                                  |
|   \\  /    A nd           | Website:  www.openfoam.com                      |
|    \\/     M anipulation  |                                                 |
\*---------------------------------------------------------------------------*/
FoamFile
{
    version     2.0;
    format      ascii;
    arch        "LSB;label=32;scalar=64";
    class       volScalarField;
    location    "0.6";
    object      p_rgh;
}
// * * * * * * * * * * * * * * * * * * * * * * * * * * * * * * * * * * * * * //

dimensions      [1 -1 -2 0 0 0 0];

internalField   nonuniform List<scalar> 
2268
(
3995.38
4006.11
4011.75
4020.4
4032.82
4050.05
4075.05
4113.4
4174.5
4273.36
4432.65
4677.16
5042.42
5535.43
6117.34
6717.97
7254.15
7727.98
8026.26
8249.72
8407.79
8499.77
8548.75
3989.97
4000.59
4006.16
4014.72
4026.89
4043.66
4067.85
4104.77
4163.41
4258.09
4406.2
4648.86
5011.15
5510.47
6106.56
6726.13
7278.5
7742.28
8043.53
8265.05
8420.48
8510.61
8560.01
3980.44
3990.96
3996.46
4004.88
4016.63
4032.54
4055.11
4089.14
4143
4231.41
4383.15
4594.19
4946.33
5456.3
6079.26
6737.92
7325.25
7769.58
8076.37
8294.8
8445.25
8531.57
8579.73
3607.28
3630.03
3636.72
3646.29
3660.31
3680.06
3710.04
3758.44
3838.09
3967.71
4169.9
4482.09
4838.51
5367.49
6032.51
6753.31
7384.74
7821.9
8127.88
8340.08
8482.35
8562.72
8611.51
1422.14
1442.41
1448.01
1457.19
1470.46
1488.71
1516.2
1561.09
1637.88
1773.33
2017.57
2511.34
3584.58
5059.24
5955
6775.93
7460.41
7897.06
8198.44
8400.14
8530.49
8602.4
8651.65
1060.07
1062.28
1066.73
1073.47
1082.07
1092.33
1104.13
1117.56
1132.94
1150.78
1171.45
1196
1368.8
2480.15
5238.89
6814.88
7535.04
7993.37
8287.51
8473.84
8588.33
8649.1
8701.32
1058.49
1060.69
1065.14
1071.92
1080.55
1090.79
1102.48
1115.71
1130.78
1148.13
1168.19
1191.6
1220.47
1256.15
2597.98
6520.06
7631.67
8110.05
8392.49
8557.51
8652.56
8700.65
8758.99
1056.34
1058.54
1063.02
1069.93
1078.66
1088.91
1100.49
1113.47
1128.14
1144.88
1163.98
1185.77
1212.87
1245.27
1292.85
4533.06
7739.51
8241.22
8503.56
8641.88
8711.27
8742.09
8822.29
3855.49
3911.48
4366.26
5473.33
5652.76
3481.33
2019.25
1552.04
1516.38
1598.52
1607.65
1609.41
1595.46
1654.92
1773.66
1868.96
2003.45
2533.3
3834.59
3805.42
3859.99
4528.58
5790.63
5845.08
3853.74
1973.82
1491.91
1464.58
1571.03
1593.23
1602.19
1573.32
1631.79
1741.86
1838.98
1995.72
2411.32
3770.94
3734.75
3795.1
5258.31
5574.67
5301.92
4215.55
2556.14
1432.59
1361.22
1539.86
1603.22
1595.44
1545.6
1508.97
1508.7
1553.39
1853.94
2266.47
3639.84
3700.51
4339.72
5417.26
5144.29
4599.22
4161.38
3473.74
1573.87
1298.79
1454.02
1603.6
1615.96
1529.32
1460.6
1445.92
1523.08
1679.82
1904.83
3639.63
3690.86
5574.85
5264.61
4064.43
2284.48
2413.24
3606.2
2160.41
1262.7
1406.94
1517.97
1619.8
1549.21
1444.16
1419.2
1434.74
1562.86
1977.94
3420.65
5689.04
6355.13
4558.94
1652.03
1128.58
1044.82
2709.26
2612.98
1291.04
1394.25
1497.56
1569.76
1608.58
1473.23
1420.42
1417.39
1528.02
2053.72
4106.92
6828.75
6322.53
1912.12
1077.43
1048.61
999.219
1132.39
2438.49
1342.78
1395.36
1487.11
1554.14
1601.68
1559.95
1458.45
1471.92
1592.15
2699.14
4811.24
6126.05
3560.63
1070.79
1007.61
992.143
958.799
923.524
2051.45
2557.57
2235.24
1473.86
1548
1597.66
1612.73
1602.86
1610.83
1659.48
3036.62
5215.84
1051.91
1054.14
1058.69
1066.01
1075.09
1085.45
1096.88
1109.45
1123.46
1139.22
1157.07
1177.31
1199.94
1225.19
1241.34
1587.74
5887.48
8379.06
8633
8670.27
8605.96
8535.13
8712.32
1041.48
1044.14
1048.85
1058.08
1068.31
1079.21
1090.53
1102.38
1115.18
1129.09
1144.33
1161.15
1177.92
1190.62
1189.37
1140.59
1156.81
2349.75
4089.17
4245.54
3651.78
3362.02
3758.35
1028.97
1032.69
1040.7
1049.39
1060.34
1072.26
1083.57
1094.34
1105.68
1117.24
1129.13
1142.37
1155.45
1163.99
1160.97
1126.17
1051.96
984.021
975.465
997.241
1023.01
1029.07
1016.18
944.693
959.964
987.664
1017.38
1043.37
1064.92
1076.77
1085.26
1095.09
1089.27
1073.4
1070.66
1091.11
1130.02
1150.85
1143.08
1114.3
1089.61
1068.27
1060.4
1058.51
1048.62
1010.28
274.901
300.264
363.859
458.586
568.571
677.185
738.282
744.652
741.942
699.504
657.751
681.292
710.681
789.796
903.752
999.624
1087.73
1116.88
1084.91
1040.23
979.173
865.496
684.758
1.44195
1.44368
1.64107
22.7477
56.8894
77.2096
80.773
66.8373
158.74
419.32
525.48
553.674
580.284
599.88
608.91
621.299
645.186
645.268
627.144
566.219
481.757
377.079
295.22
1.31295
1.23828
1.15599
0.975797
0.889542
11.4189
84.9087
88.6427
80.5921
39.241
36.8642
94.9223
166.744
232.012
280.424
300.425
294.869
268.853
223.41
166.274
96.4594
27.1912
1.30211
1.06938
0.942823
0.729915
2.59432
4.31858
3.60533
0.471056
0.542858
0.592541
0.647015
0.676514
0.655053
0.646969
0.650248
0.659992
0.681076
0.69916
0.721353
0.751893
0.807082
0.894736
1.02857
1.20265
0.826104
0.713294
0.507548
0.956731
1.70225
0.945169
0.406321
0.490729
0.559964
0.60868
0.630044
0.624726
0.627591
0.630992
0.647299
0.688567
0.722144
0.754023
0.779026
0.824462
0.905644
1.0126
1.14325
0.67792
0.60029
0.446054
0.239033
0.405683
0.358442
0.405718
0.471209
0.54038
0.583717
0.606407
0.617559
0.62508
0.635256
0.650355
0.670744
0.70575
0.739876
0.779889
0.833033
0.904197
0.99091
1.08971
0.61598
0.569968
0.47802
0.349239
0.292004
0.32199
0.398393
0.466491
0.523503
0.565595
0.591473
0.607036
0.61973
0.633878
0.651617
0.67361
0.700353
0.7332
0.773734
0.823354
0.882452
0.950855
1.03368
0.601383
0.574973
0.523244
0.444891
0.399639
0.407916
0.446798
0.491417
0.53055
0.56071
0.582537
0.598865
0.613352
0.62884
0.646898
0.668265
0.693447
0.723195
0.758322
0.799462
0.85182
0.903429
1.01919
0.599365
0.586088
0.553086
0.509111
0.479415
0.475903
0.491591
0.515677
0.539508
0.55981
0.576565
0.591116
0.605211
0.62034
0.637452
0.657076
0.679563
0.705298
0.734585
0.76803
0.817879
0.858631
0.957402
0.594194
0.588426
0.57041
0.545377
0.525198
0.517679
0.520111
0.53066
0.544001
0.557276
0.569873
0.582174
0.594886
0.608693
0.624083
0.641341
0.660645
0.682173
0.705744
0.73338
0.772709
0.800218
0.817769
0.582559
0.580216
0.570259
0.555537
0.541541
0.532001
0.531034
0.535205
0.542601
0.551433
0.560952
0.571092
0.582059
0.594104
0.607415
0.622075
0.638071
0.65531
0.673948
0.695249
0.71482
0.732693
0.750395
0.565902
0.564805
0.558916
0.549889
0.540628
0.533645
0.530753
0.531917
0.536045
0.542034
0.54925
0.557462
0.566632
0.576782
0.587917
0.599872
0.612521
0.625939
0.640062
0.654233
0.667681
0.679279
0.688336
0.54642
0.545743
0.542034
0.53635
0.53032
0.525415
0.522694
0.522729
0.525124
0.529283
0.534758
0.541291
0.548739
0.557018
0.565926
0.575162
0.584768
0.594707
0.60463
0.613962
0.621821
0.627133
0.629017
0.525479
0.524969
0.522525
0.518859
0.514918
0.51157
0.509444
0.509175
0.510665
0.513621
0.517752
0.522829
0.528682
0.535152
0.54184
0.5486
0.555493
0.562256
0.568478
0.573553
0.576606
0.576651
0.572969
0.503743
0.503325
0.501664
0.499248
0.496658
0.494449
0.49286
0.492554
0.493525
0.495627
0.498674
0.502481
0.506881
0.511586
0.516257
0.520876
0.525318
0.529262
0.532279
0.533776
0.532967
0.528973
0.520918
0.481582
0.481237
0.480077
0.478442
0.476694
0.475208
0.47405
0.473787
0.474415
0.47586
0.478002
0.48069
0.483757
0.486868
0.489797
0.49253
0.494818
0.496334
0.496651
0.495224
0.491407
0.484256
0.473085
0.459229
0.458942
0.458108
0.456954
0.455679
0.4544
0.453764
0.453564
0.45392
0.454821
0.456187
0.457898
0.459759
0.461472
0.462942
0.464028
0.464472
0.46395
0.46205
0.458254
0.451941
0.442696
0.429477
0.436817
0.43658
0.43596
0.435117
0.434183
0.433282
0.432692
0.432423
0.432507
0.432928
0.433616
0.434465
0.43528
0.435831
0.436049
0.435736
0.434643
0.432462
0.428816
0.423255
0.415297
0.404431
0.389943
0.414423
0.414223
0.413743
0.413095
0.412369
0.411651
0.411079
0.410698
0.410515
0.410507
0.410609
0.410712
0.410626
0.41023
0.409393
0.407923
0.405584
0.402093
0.397116
0.390267
0.381146
0.369301
0.354193
0.392091
0.391917
0.391524
0.390991
0.390375
0.389734
0.389142
0.388629
0.388194
0.387806
0.387402
0.386867
0.386059
0.384878
0.383177
0.380776
0.377458
0.37297
0.367018
0.35928
0.349435
0.3371
0.321867
0.369846
0.369688
0.369345
0.368873
0.368307
0.367684
0.367041
0.366393
0.365728
0.365011
0.364178
0.363118
0.361735
0.359921
0.357534
0.35441
0.350355
0.345146
0.33853
0.330244
0.320029
0.307578
0.292585
0.347704
0.347554
0.347236
0.346791
0.346242
0.345604
0.344896
0.344117
0.34325
0.342256
0.341069
0.339599
0.337764
0.335457
0.332548
0.328889
0.32431
0.318618
0.311602
0.303049
0.292745
0.280459
0.265969
0.325677
0.325528
0.325221
0.324792
0.324236
0.323567
0.32279
0.321894
0.320858
0.319639
0.318173
0.316393
0.314217
0.311544
0.30826
0.304233
0.299316
0.293345
0.286145
0.277546
0.267377
0.255468
0.241659
0.303775
0.303624
0.303313
0.302893
0.302325
0.301622
0.300782
0.29979
0.298619
0.297227
0.295559
0.293553
0.291134
0.288211
0.284683
0.280433
0.275337
0.269256
0.262051
0.253583
0.24372
0.232338
0.219328
0.282007
0.281859
0.281583
0.281127
0.280538
0.279805
0.278915
0.27785
0.276581
0.275068
0.273263
0.271109
0.268537
0.265466
0.261807
0.257461
0.252319
0.246269
0.239203
0.231006
0.221575
0.210827
0.198684
0.260375
0.260232
0.259937
0.259487
0.25889
0.258137
0.257215
0.256103
0.254773
0.253188
0.251306
0.249072
0.246426
0.243297
0.239607
0.235272
0.230198
0.224289
0.217481
0.209662
0.200758
0.190711
0.179478
0.238876
0.238735
0.238437
0.23799
0.237393
0.236633
0.235699
0.234567
0.233212
0.231601
0.229694
0.227442
0.224792
0.221684
0.218048
0.213814
0.208908
0.203261
0.196777
0.18941
0.181099
0.171803
0.161492
0.217512
0.217369
0.217079
0.21664
0.216055
0.215303
0.214375
0.21325
0.211904
0.210307
0.208422
0.206207
0.203615
0.200594
0.197085
0.193026
0.188364
0.18303
0.176962
0.170115
0.162446
0.153926
0.144546
0.196284
0.196144
0.195865
0.195435
0.19488
0.194147
0.193245
0.192152
0.190847
0.1893
0.18748
0.185349
0.182866
0.179991
0.176671
0.17286
0.168497
0.163538
0.157937
0.151655
0.144661
0.13694
0.128483
0.175191
0.175057
0.174799
0.174383
0.173851
0.173161
0.172304
0.171267
0.17003
0.168567
0.166849
0.164845
0.16251
0.159841
0.156763
0.153238
0.149229
0.144695
0.139603
0.133921
0.127627
0.12071
0.113172
0.154229
0.1541
0.153858
0.153477
0.152981
0.15234
0.151546
0.150584
0.149441
0.148092
0.146508
0.144677
0.142563
0.140103
0.137296
0.134102
0.130486
0.126417
0.121866
0.116812
0.111234
0.10513
0.0985001
0.133393
0.133278
0.13305
0.132704
0.132256
0.131678
0.13096
0.130086
0.129064
0.127864
0.126454
0.124803
0.122899
0.120711
0.118216
0.115388
0.1122
0.108625
0.104643
0.100234
0.0953869
0.0900967
0.0843712
0.112668
0.112577
0.112393
0.112091
0.111695
0.111188
0.110567
0.109824
0.10892
0.107852
0.106612
0.105174
0.103519
0.101625
0.0994723
0.0970385
0.0943029
0.0912461
0.0878511
0.0841043
0.0799947
0.0755226
0.070693
0.0920308
0.0919462
0.0917881
0.0915313
0.0912018
0.0907786
0.0902597
0.0896344
0.0888848
0.0879991
0.0869641
0.0857621
0.0843792
0.082801
0.0810116
0.0789934
0.0767307
0.0742092
0.0714162
0.0683414
0.0649767
0.0613214
0.0573851
0.0714736
0.0713934
0.0712621
0.0710528
0.0707932
0.0704605
0.0700542
0.0695657
0.0689831
0.0682939
0.0674821
0.0665303
0.0654347
0.0641893
0.0627814
0.0611946
0.0594197
0.0574464
0.0552657
0.0528705
0.0502549
0.0474185
0.0443698
0.0509945
0.0509066
0.0508057
0.0506466
0.0504604
0.0502232
0.0499371
0.0495959
0.0491916
0.0487129
0.0481399
0.0474426
0.0466415
0.0457422
0.0447313
0.0435855
0.0423086
0.0408925
0.0393315
0.0376195
0.0357557
0.0337378
0.0315778
0.0306239
0.0305976
0.0305548
0.0304615
0.0303501
0.0302038
0.0300272
0.0298187
0.0295758
0.0292901
0.0289287
0.0284879
0.0279948
0.027443
0.0268263
0.0261268
0.0253516
0.0244932
0.0235536
0.0225233
0.0214074
0.0202022
0.0189198
0.010245
0.0102841
0.0102868
0.0102451
0.0102071
0.010156
0.0100978
0.0100349
0.00997236
0.00990918
0.00979771
0.00959671
0.00940373
0.00921102
0.00900223
0.00875653
0.00848425
0.00819256
0.00787216
0.00753104
0.00716129
0.00677111
0.00636642
8728.92
8610.08
8367.75
8098.5
3717.59
3517.27
3117.07
2246.7
988.138
966.191
946.654
926.444
960.193
919.559
866.09
756.413
563.611
480.41
379.976
305.322
224.939
183.99
126.941
41.3525
1.3066
1.35267
1.42239
1.51887
1.27325
1.32558
1.38722
1.45867
1.22805
1.28376
1.34329
1.43475
1.16357
1.21253
1.26647
1.45124
1.08639
1.13871
1.21971
1.40757
1.04434
1.09638
1.18745
1.20939
0.988191
0.969199
0.953671
0.971105
0.834746
0.847026
0.85878
0.868999
0.761885
0.768285
0.773127
0.775251
0.692647
0.693792
0.6929
0.689311
0.627173
0.624307
0.619313
0.61188
0.566593
0.560851
0.553111
0.543245
0.511358
0.503697
0.494224
0.48292
0.461421
0.452576
0.44214
0.430134
0.416574
0.407099
0.396251
0.384071
0.376442
0.366753
0.355899
0.343918
0.340581
0.330975
0.320392
0.308871
0.308495
0.299186
0.289067
0.278173
0.279701
0.270829
0.261289
0.251118
0.253733
0.245382
0.236489
0.22708
0.230172
0.222391
0.214165
0.205525
0.208638
0.201442
0.193888
0.185998
0.188815
0.182207
0.175304
0.168132
0.170426
0.16439
0.158117
0.151624
0.153247
0.147769
0.142092
0.136235
0.137086
0.132141
0.127035
0.121776
0.12179
0.117364
0.112797
0.108103
0.107225
0.103296
0.0992511
0.0950944
0.0932851
0.0898441
0.0862986
0.0826576
0.0798725
0.0769041
0.0738502
0.0707104
0.0669029
0.0644044
0.061829
0.0591801
0.0542953
0.0522575
0.05016
0.0479981
0.0419772
0.0404003
0.0387736
0.0370934
0.0298819
0.0287627
0.0276106
0.0264136
0.0179096
0.0172426
0.0165537
0.0158323
0.00604894
0.00584001
0.0056273
0.00539593
4605.02
1300.21
970.38
942.072
923.858
908.31
899.168
928.615
2501.44
3178.36
3310.88
3194.93
2888.53
2644.66
2591.15
2365.73
2193.77
3332.17
5577.05
945.647
887.06
844.222
759.865
700.191
691.733
714.485
777.245
852.852
1101.12
1460.66
1724.72
2155.42
2777.34
2854.3
3032.33
2141.94
2528.32
5892.76
856.629
693.184
496.404
364.881
317.33
322.612
343.646
392.85
477.854
582.986
743.246
882.019
973.121
1268.63
1677.94
1718.54
1717.24
2178.77
5862.56
544.121
243.946
179.112
127.927
106.357
118.533
145.442
178.352
214.347
258.999
314.757
408.149
515.474
671.621
903.95
1215.3
1312.2
1661.58
5864.7
215.446
78.3956
2.6407
2.51975
2.65358
2.83226
3.00786
3.15589
3.24171
5.94109
24.4653
81.4331
247.825
414.485
612.192
793.57
937.47
870.936
5339.72
1.84413
1.93688
2.16878
2.35544
2.54505
2.76913
2.99446
3.17419
3.29649
3.38324
3.54769
3.68574
100.451
306.653
605.192
669.389
722.241
718.296
1430.45
1.69297
1.89768
2.07905
2.2495
2.45504
2.69574
2.95318
3.23334
3.37453
3.52287
3.66742
3.78709
61.1624
435.247
673.884
690.33
730.496
724.213
750.078
1.6683
2.01479
2.11899
2.12187
2.29505
2.50419
3.01583
3.33699
3.55252
3.8155
3.89983
3.88267
35.4306
478.03
731.28
729.185
760.453
757.552
818.177
1.761
1.94703
1.98342
2.01087
2.11857
2.38849
2.95832
3.40139
7.68826
4.24633
4.16163
3.92967
5.72132
369.418
777.675
775.8
799.523
823.411
3113.43
1.68666
1.75138
1.66883
1.75896
1.85427
2.13481
7.68475
228.881
436.514
321.246
71.6649
5.62998
4.76569
473.813
827.424
826.848
849.493
923.061
3625.4
1.54936
1.37402
1.41032
1.46287
1.54547
1.62166
273.386
832.187
874.075
872.227
721.196
566.978
607.625
838.667
876.843
882.683
907.813
1021.2
3897.57
1.143
1.19531
1.21946
1.18644
1.21327
30.4837
672.433
944.829
939.093
934.837
932.675
933.583
937.326
933.573
934.843
946.281
973.694
1087.48
4184.34
1.00087
1.02541
1.00424
0.951318
0.866648
60.239
735.505
1010.75
1001.38
995.194
991.041
991.099
992.746
995.62
1003.13
1016.91
1049.67
1115.81
2142.52
0.880788
0.872026
0.804739
0.696647
0.488433
-0.0898577
265.14
961.808
1066.85
1059.73
1055.64
1054.05
1058.19
1065.1
1077.69
1095.49
1093.57
1132.18
1437.92
0.772519
0.742671
0.661256
0.501713
0.283787
0.00133611
-0.235821
440.92
1135.3
1127.13
1123.32
1122.79
1126.21
1135.57
1152.64
1179.03
1176.01
1173.77
1213.46
0.676975
0.635551
0.557009
0.422539
0.243898
0.102373
0.161781
63.2224
828.853
1196.4
1191.76
1192.29
1197.76
1208.93
1228.63
1258.51
1291.31
1273.33
1283.39
0.593801
0.547277
0.473998
0.368124
0.231662
0.1052
0.00806481
-0.150689
191.895
1015.81
1262.12
1261.81
1267.42
1279.41
1300.4
1331.99
1373.51
1412.27
1405.8
0.521859
0.473862
0.404978
0.312676
0.197081
0.0555863
-0.0887354
-0.279266
-0.600266
141.653
858.84
1227.27
1334.16
1343.78
1362.87
1393.55
1437.16
1491.31
1524.75
0.459835
0.41223
0.347641
0.263252
0.161524
0.0329883
-0.126905
-0.325607
-0.472848
-0.589729
-0.55727
202.987
885.212
1235.37
1384.22
1443
1487.32
1546.2
1583.43
0.4065
0.360513
0.30073
0.225362
0.134766
0.0254206
-0.105433
-0.254692
-0.391545
-0.505491
-0.360243
-0.400513
-0.412895
0.39289
485.188
1135.73
1404.09
1535.81
1597.94
0.360706
0.317212
0.262636
0.196269
0.118218
0.0278903
-0.0731892
-0.178192
-0.272875
-0.328108
-0.356569
-0.359566
-0.230924
-0.0437753
-0.215847
0.117875
187.117
809.774
1467.13
0.321385
0.280937
0.231708
0.173963
0.107651
0.0337029
-0.045436
-0.123955
-0.1934
-0.240596
-0.263003
-0.258888
-0.258797
-0.166184
0.0878299
1.20379
0.157296
46.9318
1047.04
0.287539
0.250394
0.206254
0.156621
0.100279
0.0394506
-0.0235908
-0.0848318
-0.138736
-0.178394
-0.199313
-0.203127
-0.197664
-0.182204
-0.117432
1.67336
-0.0123083
29.7
949.362
0.258269
0.224551
0.185585
0.142129
0.0945252
0.0442106
-0.0067481
-0.0554614
-0.098317
-0.131301
-0.15108
-0.156059
-0.146267
-0.123806
-0.0983524
0.593434
0.141834
34.2885
999.692
0.23274
0.20233
0.167921
0.130119
0.0896609
0.0477249
0.00600839
-0.0333384
-0.0678305
-0.0948911
-0.112002
-0.116325
-0.105003
-0.0763153
-0.0354243
0.0219687
0.051643
74.7932
944.314
0.210242
0.182936
0.152567
0.119705
0.085138
0.0498908
0.0153304
-0.016905
-0.0449892
-0.0670275
-0.0813482
-0.0846846
-0.0718296
-0.0370733
0.0208765
0.105869
0.182661
59.6881
84.6757
0.190185
0.165738
0.138943
0.110322
0.0806025
0.0506932
0.021682
-0.00515142
-0.0285055
-0.0468616
-0.0583454
-0.0605805
-0.0467464
-0.00768162
0.0640446
0.167202
0.981168
0.777092
92.8638
0.172086
0.150233
0.126595
0.101598
0.0758454
0.0501926
0.025448
0.00259042
-0.0171005
-0.0321753
-0.0413802
-0.0430744
-0.0295561
0.012325
0.096095
0.201901
0.486816
0.364303
1171.76
0.155555
0.136038
0.115168
0.0933136
0.0707507
0.0485369
0.0270751
0.00735935
-0.00952091
-0.0223556
-0.0299718
-0.0312613
-0.0197759
0.0269527
0.132353
0.248829
0.482577
6.20881
1548.98
0.140286
0.122858
0.10437
0.0851223
0.0654617
0.0459589
0.0271549
0.00976093
-0.00515521
-0.0167195
-0.0238722
-0.025477
-0.0161915
0.0378467
0.162636
0.291388
0.644506
161.448
1595.37
0.126044
0.110488
0.0940787
0.0770633
0.0597409
0.0424876
0.0257184
0.0100659
-0.00369756
-0.0148683
-0.0224674
-0.0250059
-0.0176512
0.0346059
0.168158
0.357321
0.720034
329.455
1266.1
0.112649
0.0987869
0.0842098
0.0691145
0.0537264
0.038304
0.0231328
0.00865991
-0.00461135
-0.0162469
-0.0256773
-0.0310339
-0.0299291
-0.00451883
0.0859295
0.287952
41.9406
285.438
17.1355
0.0999695
0.0876564
0.0747213
0.061308
0.047571
0.0336754
0.0197808
0.00610704
-0.00714094
-0.0199412
-0.0326395
-0.0445123
-0.0580517
-0.0957012
-0.166537
11.3237
72.6854
-1.42155
-1.06845
0.0879004
0.0770279
0.0655953
0.0536977
0.0414242
0.0288547
0.0160428
0.00298505
-0.0103796
-0.0245331
-0.0404015
-0.0600291
-0.0908273
-0.174604
-0.385422
16.17
43.9595
-1.51669
-1.25963
0.0763607
0.0668508
0.0568273
0.0463434
0.0354314
0.0240979
0.0123012
-8.55529e-05
-0.0133499
-0.0281822
-0.0461607
-0.0713257
-0.11004
-0.195968
-0.388319
12.7359
14.9387
-0.763222
132.211
0.0652815
0.057084
0.0484145
0.0392953
0.0297155
0.0196305
0.0089368
-0.00256599
-0.0152597
-0.0298849
-0.0479592
-0.0748648
-0.10352
-0.17548
-0.32608
1.76756
-0.796436
-0.898291
1016.92
0.054602
0.0476871
0.0403462
0.0325806
0.0243542
0.015596
0.00618112
-0.00409465
-0.0155637
-0.0287732
-0.0443629
-0.0659336
-0.0905126
-0.135319
-0.229897
-0.383268
-0.460544
-0.527215
1537.25
0.0442606
0.0386158
0.0325982
0.0262
0.0193746
0.0120469
0.00410473
-0.00460976
-0.0143135
-0.0252713
-0.0372106
-0.0546686
-0.0716762
-0.0968788
-0.144316
-0.226201
-0.263911
-0.334301
1590.06
0.0341903
0.0298093
0.0251184
0.0201098
0.0147406
0.00894507
0.00264056
-0.00426459
-0.0118443
-0.0200765
-0.0283661
-0.0394413
-0.0505913
-0.0648758
-0.090287
-0.132036
-0.139674
-0.184573
1623.35
0.0243415
0.0212239
0.0178706
0.014276
0.0104032
0.0062075
0.0016271
-0.00341521
-0.00901296
-0.0152409
-0.0206802
-0.0293808
-0.0344534
-0.0409472
-0.0582011
-0.0810131
-0.090471
-0.155372
831.028
0.0145954
0.0127355
0.010722
0.00855891
0.00622214
0.00368901
0.000935667
-0.00203358
-0.00511174
-0.00824875
-0.0122313
-0.0171942
-0.0200324
-0.0220111
-0.0261801
-0.0156598
0.0253759
0.0349036
155.586
0.00499424
0.00439707
0.00372349
0.00298412
0.00217344
0.00127868
0.000268503
-0.000925338
-0.00248099
-0.00409077
-0.00520261
-0.00711872
-0.00725088
-0.00885614
-0.00655452
0.00938903
0.0525134
0.0988372
0.377793
)
;

boundaryField
{
    leftWall
    {
        type            fixedFluxPressure;
        gradient        uniform 0;
        value           nonuniform List<scalar> 
50
(
3995.38
3989.97
3980.44
3607.28
1422.14
1060.07
1058.49
1056.34
1051.91
1041.48
1028.97
944.693
274.901
1.44195
1.31295
1.06938
0.826104
0.67792
0.61598
0.601383
0.599365
0.594194
0.582559
0.565902
0.54642
0.525479
0.503743
0.481582
0.459229
0.436817
0.414423
0.392091
0.369846
0.347704
0.325677
0.303775
0.282007
0.260375
0.238876
0.217512
0.196284
0.175191
0.154229
0.133393
0.112668
0.0920308
0.0714736
0.0509945
0.0306239
0.010245
)
;
    }
    rightWall
    {
        type            fixedFluxPressure;
        gradient        uniform 0;
        value           nonuniform List<scalar> 
50
(
3834.59
3770.94
3639.84
3639.63
3420.65
4106.92
4811.24
5215.84
5577.05
5892.76
5862.56
5864.7
5339.72
1430.45
750.078
818.177
3113.43
3625.4
3897.57
4184.34
2142.52
1437.92
1213.46
1283.39
1405.8
1524.75
1583.43
1597.94
1467.13
1047.04
949.362
999.692
944.314
84.6757
92.8638
1171.76
1548.98
1595.37
1266.1
17.1355
-1.06845
-1.25963
132.211
1016.92
1537.25
1590.06
1623.35
831.028
155.586
0.377793
)
;
    }
    lowerWall
    {
        type            fixedFluxPressure;
        gradient        uniform 0;
        value           nonuniform List<scalar> 
62
(
3995.38
4006.11
4011.75
4020.4
4032.82
4050.05
4075.05
4113.4
4174.5
4273.36
4432.65
4677.16
5042.42
5535.43
6117.34
6717.97
7254.15
7727.98
8026.26
8249.72
8407.79
8499.77
8548.75
8548.75
8560.01
8579.73
8611.51
8651.65
8701.32
8758.99
8822.29
8728.92
8610.08
8367.75
8098.5
3855.49
3805.42
3734.75
3700.51
3690.86
5689.04
6828.75
6126.05
3855.49
3911.48
4366.26
5473.33
5652.76
3481.33
2019.25
1552.04
1516.38
1598.52
1607.65
1609.41
1595.46
1654.92
1773.66
1868.96
2003.45
2533.3
3834.59
)
;
    }
    atmosphere
    {
        type            totalPressure;
        rho             rho;
        psi             none;
        gamma           1;
        p0              uniform 0;
        value           nonuniform List<scalar> 
46
(
0
0
0
0
0
0
0
0
0
0
0
0
0
0
0
0
0
0
0
0
0
0
0
0
0
0
0
0
0
0
0
0
0
0
0
-1.05903e-06
-0.000104149
-0.000519372
-0.00163595
-0.00272712
-0.00974286
-0.0106455
-0.00931092
-0.00182602
0
0
)
;
    }
    defaultFaces
    {
        type            empty;
    }
}


// ************************************************************************* //
