/*--------------------------------*- C++ -*----------------------------------*\
| =========                 |                                                 |
| \\      /  F ield         | OpenFOAM: The Open Source CFD Toolbox           |
|  \\    /   O peration     | Version:  2312                                  |
|   \\  /    A nd           | Website:  www.openfoam.com                      |
|    \\/     M anipulation  |                                                 |
\*---------------------------------------------------------------------------*/
FoamFile
{
    version     2.0;
    format      ascii;
    arch        "LSB;label=32;scalar=64";
    class       volVectorField;
    location    "0.6";
    object      U;
}
// * * * * * * * * * * * * * * * * * * * * * * * * * * * * * * * * * * * * * //

dimensions      [0 1 -1 0 0 0 0];

internalField   nonuniform List<vector> 
2268
(
(0.0167246 -0.00750072 0)
(0.0357847 -0.00739931 0)
(0.0619595 -0.00725273 0)
(0.0867328 -0.00714916 0)
(0.110788 -0.00698739 0)
(0.13417 -0.00671633 0)
(0.156399 -0.00628734 0)
(0.176644 -0.0056102 0)
(0.193639 -0.00454702 0)
(0.20548 -0.00291115 0)
(0.209597 -0.000374893 0)
(0.202666 0.00275033 0)
(0.181776 0.00645034 0)
(0.146809 0.00968722 0)
(0.1013 0.0115351 0)
(0.0524071 0.0110773 0)
(0.00935578 0.00836722 0)
(-0.0187867 0.00508714 0)
(-0.0291809 0.00199281 0)
(-0.030316 -0.000333218 0)
(-0.0175423 -0.00153023 0)
(-0.0140011 -0.00170171 0)
(0.0100502 0.00265987 0)
(0.0163915 -0.0169112 0)
(0.0355757 -0.0168192 0)
(0.0618185 -0.0166547 0)
(0.0865866 -0.0165108 0)
(0.110664 -0.0161834 0)
(0.134111 -0.015563 0)
(0.156481 -0.0144999 0)
(0.176992 -0.0127326 0)
(0.194442 -0.00987138 0)
(0.207046 -0.00543674 0)
(0.212 0.000866357 0)
(0.205721 0.0104721 0)
(0.184913 0.0216121 0)
(0.149073 0.0309437 0)
(0.101893 0.0356433 0)
(0.0510615 0.0330824 0)
(0.00689108 0.0237642 0)
(-0.0213263 0.0131694 0)
(-0.0313878 0.0035649 0)
(-0.0320588 -0.00350663 0)
(-0.0196698 -0.00744734 0)
(-0.0182098 -0.00966673 0)
(0.00525379 -0.00442816 0)
(0.015767 -0.0296396 0)
(0.0347902 -0.0295699 0)
(0.0607926 -0.0293451 0)
(0.0852519 -0.0290271 0)
(0.109092 -0.0284192 0)
(0.132405 -0.0273726 0)
(0.154809 -0.0256056 0)
(0.175629 -0.022657 0)
(0.193769 -0.0178061 0)
(0.207375 -0.0100323 0)
(0.214371 0.00156817 0)
(0.210283 0.0171018 0)
(0.18984 0.0354061 0)
(0.152416 0.0505799 0)
(0.1019 0.058458 0)
(0.0469908 0.0542964 0)
(0.000397835 0.0386171 0)
(-0.0276866 0.0211064 0)
(-0.0363201 0.00561364 0)
(-0.0350927 -0.00501504 0)
(-0.0216912 -0.0104125 0)
(-0.0192843 -0.0129191 0)
(0.00372342 -0.00490684 0)
(0.0148325 -0.0434602 0)
(0.0329463 -0.0434215 0)
(0.0577943 -0.0431846 0)
(0.0811308 -0.0427037 0)
(0.104028 -0.0419078 0)
(0.1266 -0.040662 0)
(0.148596 -0.0386339 0)
(0.169553 -0.0352977 0)
(0.18871 -0.0297872 0)
(0.204664 -0.0206107 0)
(0.214803 -0.00510312 0)
(0.213573 0.0175874 0)
(0.19362 0.0490925 0)
(0.154112 0.0769133 0)
(0.099324 0.0900837 0)
(0.0389303 0.0821004 0)
(-0.0109586 0.056704 0)
(-0.0383223 0.0297315 0)
(-0.0446929 0.00673044 0)
(-0.0404748 -0.00851111 0)
(-0.0252717 -0.0158907 0)
(-0.0212086 -0.018976 0)
(0.00263788 -0.0105304 0)
(0.0111803 -0.0512508 0)
(0.0244346 -0.0514901 0)
(0.0442937 -0.0513866 0)
(0.062581 -0.0507951 0)
(0.0810548 -0.0498435 0)
(0.099646 -0.0483417 0)
(0.118264 -0.0458438 0)
(0.136752 -0.0417225 0)
(0.15497 -0.0349627 0)
(0.172788 -0.0238081 0)
(0.188659 -0.00521777 0)
(0.196967 0.0215297 0)
(0.186611 0.0510658 0)
(0.154009 0.0812617 0)
(0.0951536 0.109407 0)
(0.024884 0.105173 0)
(-0.0304425 0.0736437 0)
(-0.0558566 0.0372253 0)
(-0.0583499 0.00693986 0)
(-0.0492475 -0.0126458 0)
(-0.030676 -0.0216271 0)
(-0.0236991 -0.0250375 0)
(0.00222841 -0.0160597 0)
(-0.00198288 -0.0514222 0)
(-0.012025 -0.0521416 0)
(-0.0170201 -0.0528281 0)
(-0.0223819 -0.0526744 0)
(-0.0249418 -0.0522447 0)
(-0.0259129 -0.0511679 0)
(-0.0250137 -0.0488815 0)
(-0.022349 -0.044697 0)
(-0.0179332 -0.0375439 0)
(-0.0115705 -0.025861 0)
(-0.00145055 -0.00755869 0)
(0.00772071 0.027746 0)
(0.0365649 0.0819368 0)
(0.0735014 0.115981 0)
(0.0472244 0.136612 0)
(-0.0123519 0.130874 0)
(-0.0677251 0.0900052 0)
(-0.0857706 0.0418725 0)
(-0.0806788 0.00410528 0)
(-0.0641527 -0.0193809 0)
(-0.0401422 -0.0286975 0)
(-0.0285549 -0.0311268 0)
(0.00163112 -0.0196776 0)
(-0.00658814 -0.0475276 0)
(-0.0241785 -0.0479956 0)
(-0.0373708 -0.0494261 0)
(-0.0506619 -0.0502946 0)
(-0.0606096 -0.0509758 0)
(-0.0684588 -0.0510317 0)
(-0.0739901 -0.0500086 0)
(-0.0774648 -0.0472316 0)
(-0.0795442 -0.0418211 0)
(-0.0811003 -0.0327955 0)
(-0.0826395 -0.0188391 0)
(-0.0823816 0.00300579 0)
(-0.0729639 0.0451676 0)
(-0.0675032 0.12724 0)
(-0.0898544 0.170217 0)
(-0.0761128 0.149532 0)
(-0.115803 0.103449 0)
(-0.130159 0.0425921 0)
(-0.116368 -0.0023018 0)
(-0.0899784 -0.0297454 0)
(-0.0567691 -0.0395827 0)
(-0.0363584 -0.042168 0)
(0.00154314 -0.0325691 0)
(-0.00849571 -0.0383088 0)
(-0.0287555 -0.039121 0)
(-0.0446966 -0.0412779 0)
(-0.0606326 -0.0433798 0)
(-0.0729397 -0.0454486 0)
(-0.0827206 -0.0468663 0)
(-0.0897506 -0.0471021 0)
(-0.0942655 -0.0452807 0)
(-0.0969808 -0.0401995 0)
(-0.0988622 -0.0305298 0)
(-0.100313 -0.0143029 0)
(-0.104814 0.0121878 0)
(-0.113535 0.0509606 0)
(-0.111519 0.118701 0)
(-0.18332 0.196628 0)
(-0.187005 0.152032 0)
(-0.174147 0.107909 0)
(-0.179076 0.0389676 0)
(-0.16005 -0.0151507 0)
(-0.125053 -0.0457926 0)
(-0.080533 -0.0548358 0)
(-0.0472611 -0.0519401 0)
(0.00471404 -0.0308852 0)
(-0.500681 0.130331 0)
(-0.803264 0.00699886 0)
(-0.637841 -0.151973 0)
(0.392922 -0.343154 0)
(0.779698 -0.299826 0)
(1.49447 -0.223789 0)
(2.25309 -0.00322349 0)
(2.10227 0.121401 0)
(1.46532 0.176927 0)
(0.772142 0.14279 0)
(0.240905 -0.000766773 0)
(0.0713726 -0.0653938 0)
(-0.487476 0.0727437 0)
(-0.694756 0.0305598 0)
(-0.760591 0.0204966 0)
(-0.798613 0.00121758 0)
(-0.839347 -0.0277576 0)
(-0.795827 -0.0714456 0)
(-0.33029 -0.263816 0)
(-0.403643 0.308588 0)
(-0.471986 0.110222 0)
(0.357495 -0.419014 0)
(0.430148 -0.398433 0)
(0.513643 -0.366493 0)
(0.620924 -0.354211 0)
(0.967314 -0.19251 0)
(1.51493 0.168009 0)
(1.30107 0.317052 0)
(0.943961 0.318508 0)
(0.703295 0.287641 0)
(0.422267 0.306743 0)
(-0.439792 0.252881 0)
(-0.643774 0.0588794 0)
(-0.623813 0.0201092 0)
(-0.563309 0.0131044 0)
(-0.5215 0.00892661 0)
(-0.510871 -0.0493392 0)
(0.0198731 -0.403382 0)
(-0.353267 0.414279 0)
(0.392314 -0.165574 0)
(0.440107 -0.430214 0)
(0.450851 -0.405037 0)
(0.46622 -0.372804 0)
(0.482139 -0.380263 0)
(0.551907 -0.316726 0)
(0.953184 0.0615668 0)
(1.15463 0.393911 0)
(0.984694 0.39952 0)
(0.851308 0.350211 0)
(0.750352 0.40671 0)
(0.280697 0.598083 0)
(-0.279695 0.144594 0)
(-0.531649 -0.0130565 0)
(-0.631497 -0.0477941 0)
(-0.482885 -0.096921 0)
(-0.404704 -0.18723 0)
(0.181378 -0.492256 0)
(-0.190716 0.38808 0)
(0.487642 -0.367325 0)
(0.480228 -0.423119 0)
(0.47206 -0.402403 0)
(0.450607 -0.371618 0)
(0.418169 -0.38107 0)
(0.422039 -0.343606 0)
(0.547782 -0.121098 0)
(0.905799 0.350711 0)
(0.93283 0.435557 0)
(0.869718 0.390682 0)
(0.826921 0.422598 0)
(0.853259 0.674988 0)
(0.358317 0.408752 0)
(-0.0356326 0.114851 0)
(0.138951 0.0670922 0)
(-0.199561 -0.113429 0)
(-0.301031 -0.283176 0)
(0.293405 -0.528278 0)
(0.389946 0.307771 0)
(0.486056 -0.367083 0)
(0.496806 -0.415338 0)
(0.485577 -0.400475 0)
(0.452629 -0.362863 0)
(0.386155 -0.371611 0)
(0.352107 -0.344097 0)
(0.382392 -0.188606 0)
(0.639631 0.301109 0)
(0.811612 0.417884 0)
(0.841887 0.421988 0)
(0.844785 0.437517 0)
(0.899764 0.537422 0)
(1.21931 0.624195 0)
(0.96239 0.208595 0)
(0.439048 0.0419809 0)
(0.355337 -0.00621922 0)
(0.108943 -0.24982 0)
(0.359002 -0.494873 0)
(0.450894 -0.0562463 0)
(0.46759 -0.336978 0)
(0.494605 -0.410842 0)
(0.498689 -0.389203 0)
(0.478834 -0.315085 0)
(0.389086 -0.334843 0)
(0.310088 -0.324673 0)
(0.282562 -0.199036 0)
(0.340475 0.151394 0)
(0.640548 0.348459 0)
(0.780584 0.401424 0)
(0.831988 0.432859 0)
(0.895374 0.47945 0)
(1.01169 0.501877 0)
(1.13413 0.437117 0)
(0.743746 0.195301 0)
(0.628222 -0.0158241 0)
(0.428815 -0.204562 0)
(0.443119 -0.368004 0)
(0.403065 -0.239192 0)
(0.426533 -0.376844 0)
(0.487618 -0.410523 0)
(0.497953 -0.373369 0)
(0.470806 -0.307957 0)
(0.419952 -0.29459 0)
(0.299642 -0.298709 0)
(0.217421 -0.157284 0)
(0.0722442 0.0839431 0)
(0.403285 0.245369 0)
(0.666839 0.362593 0)
(0.779703 0.405152 0)
(0.863822 0.438816 0)
(0.960303 0.450052 0)
(1.0604 0.419132 0)
(1.01969 0.290792 0)
(0.85854 0.0856314 0)
(0.648017 -0.0826092 0)
(0.510668 -0.194452 0)
(0.424613 -0.398061 0)
(0.417239 -0.417535 0)
(0.493491 -0.414898 0)
(0.498949 -0.37522 0)
(0.486807 -0.30641 0)
(0.457832 -0.261687 0)
(0.350008 -0.245398 0)
(0.25923 -0.111898 0)
(0.271754 0.0316487 0)
(0.368586 0.133856 0)
(0.470364 0.285823 0)
(0.65199 0.379316 0)
(0.783954 0.426929 0)
(0.913277 0.441657 0)
(1.03402 0.41944 0)
(1.058 0.334744 0)
(0.922994 0.158953 0)
(0.698689 0.0303664 0)
(0.53233 0.0222334 0)
(-0.00956778 -0.0240765 0)
(-0.0315596 -0.0256839 0)
(-0.0492308 -0.0290619 0)
(-0.0665502 -0.0331912 0)
(-0.0798026 -0.0374374 0)
(-0.0900109 -0.0409801 0)
(-0.0969549 -0.0431506 0)
(-0.100731 -0.0428473 0)
(-0.101996 -0.0386187 0)
(-0.101753 -0.0291779 0)
(-0.10073 -0.0125811 0)
(-0.100354 0.0139286 0)
(-0.104201 0.0576363 0)
(-0.107676 0.12951 0)
(-0.111434 0.222793 0)
(-0.229722 0.19223 0)
(-0.241853 0.077885 0)
(-0.224218 0.0219453 0)
(-0.193384 -0.0310724 0)
(-0.146364 -0.0764497 0)
(-0.0907357 -0.0954026 0)
(-0.0401766 -0.103251 0)
(0.0551617 -0.0872862 0)
(-0.0113577 -0.00577452 0)
(-0.0366623 -0.00792835 0)
(-0.0577137 -0.0118088 0)
(-0.0773801 -0.017521 0)
(-0.0917653 -0.0253846 0)
(-0.102044 -0.0330937 0)
(-0.107862 -0.0392517 0)
(-0.109134 -0.0424685 0)
(-0.106543 -0.0410052 0)
(-0.100803 -0.0337549 0)
(-0.0919879 -0.0181672 0)
(-0.0801893 0.0102419 0)
(-0.0664405 0.0549087 0)
(-0.0490476 0.119729 0)
(-0.01233 0.210098 0)
(0.0303526 0.29266 0)
(-0.00941626 0.146228 0)
(-0.127586 -0.0326639 0)
(-0.155413 -0.0974683 0)
(-0.118314 -0.130008 0)
(-0.0587777 -0.138128 0)
(-0.000584359 -0.1496 0)
(0.1008 -0.162837 0)
(-0.0120578 0.0305006 0)
(-0.0394723 0.0258516 0)
(-0.0633403 0.0169419 0)
(-0.0866516 0.0033228 0)
(-0.103905 -0.0123608 0)
(-0.114225 -0.0254422 0)
(-0.118515 -0.0361667 0)
(-0.117639 -0.0439489 0)
(-0.112426 -0.0470289 0)
(-0.102988 -0.0449099 0)
(-0.0891967 -0.0336708 0)
(-0.0701221 -0.00936055 0)
(-0.0419299 0.0322666 0)
(-0.00370288 0.0901054 0)
(0.0483756 0.152944 0)
(0.133254 0.216812 0)
(0.213486 0.198082 0)
(0.252537 0.108615 0)
(0.282379 -0.05158 0)
(0.275705 -0.187889 0)
(0.281025 -0.238523 0)
(0.314502 -0.267837 0)
(0.389839 -0.300116 0)
(-0.0148413 0.0331542 0)
(-0.0482794 0.0320189 0)
(-0.079218 0.0289909 0)
(-0.107256 0.0197459 0)
(-0.12487 0.00345976 0)
(-0.134944 -0.0155833 0)
(-0.140273 -0.0337925 0)
(-0.142199 -0.0472244 0)
(-0.141857 -0.0552744 0)
(-0.136287 -0.0603091 0)
(-0.124526 -0.0545649 0)
(-0.105167 -0.0390934 0)
(-0.0743488 -0.0127405 0)
(-0.0239091 0.0313084 0)
(0.0480192 0.0826383 0)
(0.131568 0.11178 0)
(0.227704 0.0919675 0)
(0.304112 0.00833337 0)
(0.357571 -0.0858591 0)
(0.386641 -0.156668 0)
(0.409857 -0.206875 0)
(0.441491 -0.25381 0)
(0.48863 -0.307044 0)
(-0.0192213 0.0809062 0)
(-0.0597537 0.0766666 0)
(-0.103906 0.0666096 0)
(-0.143387 0.0411933 0)
(-0.170941 0.00713843 0)
(-0.185942 -0.0203273 0)
(-0.200001 -0.04023 0)
(-0.215008 -0.0516501 0)
(-0.234422 -0.0547596 0)
(-0.244784 -0.0601065 0)
(-0.239371 -0.0600388 0)
(-0.21711 -0.0554096 0)
(-0.181539 -0.0457688 0)
(-0.127086 -0.0292033 0)
(-0.0540535 -0.00736713 0)
(0.0576306 0.019179 0)
(0.148929 3.80544e-05 0)
(0.226441 -0.0514031 0)
(0.28364 -0.120472 0)
(0.32419 -0.194332 0)
(0.360806 -0.26 0)
(0.402037 -0.315297 0)
(0.451934 -0.3672 0)
(-0.0558717 0.177526 0)
(-0.283876 0.205486 0)
(-0.659223 0.172231 0)
(-0.645837 0.0795542 0)
(-0.617916 0.0379718 0)
(-0.620656 0.0194811 0)
(-0.59984 -0.00660504 0)
(-0.573929 -0.0176564 0)
(-0.498707 -0.0295991 0)
(-0.410356 -0.0802697 0)
(-0.364995 -0.0979455 0)
(-0.33895 -0.0983305 0)
(-0.307905 -0.0987658 0)
(-0.259801 -0.0964821 0)
(-0.199457 -0.0958485 0)
(-0.129227 -0.0995868 0)
(-0.0355133 -0.115007 0)
(0.0701065 -0.146349 0)
(0.146107 -0.194236 0)
(0.210345 -0.250643 0)
(0.26862 -0.306338 0)
(0.323048 -0.358432 0)
(0.37749 -0.402817 0)
(-0.174351 0.435925 0)
(-0.418944 0.499195 0)
(-0.693204 0.442311 0)
(-0.912986 0.172703 0)
(-1.11965 0.00478058 0)
(-0.828245 -0.0586936 0)
(-0.679223 -0.128557 0)
(-0.584278 -0.140763 0)
(-0.459501 -0.143614 0)
(-0.370385 -0.155362 0)
(-0.392957 -0.12756 0)
(-0.405121 -0.115933 0)
(-0.364017 -0.130335 0)
(-0.309136 -0.136878 0)
(-0.253431 -0.141588 0)
(-0.196318 -0.15269 0)
(-0.137023 -0.178268 0)
(-0.0737897 -0.207757 0)
(0.0243603 -0.242841 0)
(0.110147 -0.295152 0)
(0.194107 -0.352671 0)
(0.284554 -0.407624 0)
(0.329473 -0.436119 0)
(-0.0962094 0.656715 0)
(-0.23641 0.706612 0)
(-0.399071 0.597769 0)
(-0.496855 0.179081 0)
(-0.469239 -0.0636288 0)
(-0.384655 -0.153228 0)
(-0.354926 -0.296039 0)
(-0.322674 -0.299492 0)
(-0.278717 -0.281914 0)
(-0.238543 -0.178493 0)
(-0.188948 -0.0506601 0)
(-0.182383 -0.09222 0)
(-0.19552 -0.182639 0)
(-0.193495 -0.198721 0)
(-0.163943 -0.20384 0)
(-0.114241 -0.21754 0)
(-0.0605271 -0.251129 0)
(-0.000784435 -0.316259 0)
(0.0507981 -0.381078 0)
(0.0801373 -0.43397 0)
(0.0731306 -0.49127 0)
(0.0208906 -0.532743 0)
(-0.0375049 -0.427284 0)
(-0.0204714 0.772906 0)
(-0.0378456 0.814741 0)
(-0.0665741 0.737692 0)
(-0.161644 0.370476 0)
(-0.177393 -0.00111461 0)
(-0.177823 -0.202344 0)
(-0.223441 -0.252652 0)
(-0.18396 -0.280787 0)
(-0.151554 -0.288656 0)
(-0.109858 -0.242268 0)
(-0.0386976 -0.181513 0)
(0.0637991 -0.131583 0)
(0.114722 -0.136816 0)
(0.138354 -0.18476 0)
(0.15319 -0.225226 0)
(0.169838 -0.26399 0)
(0.186519 -0.297267 0)
(0.195665 -0.335762 0)
(0.189348 -0.363677 0)
(0.167956 -0.382052 0)
(0.131375 -0.38914 0)
(0.0768064 -0.380138 0)
(0.0112498 -0.341261 0)
(0.0249142 0.762802 0)
(0.0881934 0.790957 0)
(0.142889 0.714608 0)
(0.150276 0.439892 0)
(0.13225 0.0623955 0)
(0.0341744 -0.196081 0)
(-0.0242955 -0.270024 0)
(-0.00492965 -0.314127 0)
(0.000624715 -0.320086 0)
(0.0137339 -0.288373 0)
(0.0422288 -0.251194 0)
(0.0834033 -0.231475 0)
(0.131639 -0.221584 0)
(0.167676 -0.221861 0)
(0.190203 -0.233421 0)
(0.203499 -0.256147 0)
(0.21023 -0.282834 0)
(0.208193 -0.307747 0)
(0.194361 -0.32545 0)
(0.167767 -0.334178 0)
(0.127765 -0.332728 0)
(0.0759558 -0.317164 0)
(0.0112348 -0.286321 0)
(0.0480691 0.681391 0)
(0.150915 0.699564 0)
(0.244701 0.623464 0)
(0.303898 0.406127 0)
(0.322146 0.134959 0)
(0.288307 -0.078592 0)
(0.224031 -0.211489 0)
(0.177538 -0.284873 0)
(0.144118 -0.303189 0)
(0.12381 -0.288499 0)
(0.117692 -0.263587 0)
(0.123534 -0.244385 0)
(0.137135 -0.237012 0)
(0.152573 -0.243928 0)
(0.164611 -0.258635 0)
(0.171423 -0.276233 0)
(0.171425 -0.293127 0)
(0.162904 -0.305951 0)
(0.144552 -0.311492 0)
(0.115731 -0.307775 0)
(0.0759176 -0.29383 0)
(0.0271254 -0.265766 0)
(-0.0333615 -0.232323 0)
(0.0561269 0.566795 0)
(0.171084 0.579097 0)
(0.281161 0.514605 0)
(0.364467 0.348363 0)
(0.403198 0.136371 0)
(0.397805 -0.0488953 0)
(0.350515 -0.171021 0)
(0.290882 -0.238083 0)
(0.235162 -0.262607 0)
(0.191145 -0.260772 0)
(0.161989 -0.248991 0)
(0.146408 -0.240026 0)
(0.140496 -0.239049 0)
(0.139667 -0.246525 0)
(0.139039 -0.258882 0)
(0.135403 -0.272211 0)
(0.126679 -0.282999 0)
(0.111163 -0.288057 0)
(0.0873697 -0.284846 0)
(0.0549236 -0.271582 0)
(0.013611 -0.24914 0)
(-0.0351005 -0.212039 0)
(-0.0894506 -0.179422 0)
(0.0536914 0.449012 0)
(0.161899 0.454439 0)
(0.271504 0.402776 0)
(0.357832 0.277375 0)
(0.401735 0.114697 0)
(0.402223 -0.0287957 0)
(0.363146 -0.128548 0)
(0.306048 -0.186374 0)
(0.248814 -0.212996 0)
(0.201405 -0.220942 0)
(0.166994 -0.221624 0)
(0.144287 -0.223286 0)
(0.129818 -0.229329 0)
(0.119778 -0.239688 0)
(0.110419 -0.251745 0)
(0.0987145 -0.261953 0)
(0.0825863 -0.267199 0)
(0.060444 -0.265004 0)
(0.0309187 -0.253681 0)
(-0.0057696 -0.232009 0)
(-0.0499969 -0.2025 0)
(-0.0983175 -0.160894 0)
(-0.149741 -0.126602 0)
(0.0449954 0.346833 0)
(0.134734 0.342729 0)
(0.230221 0.300867 0)
(0.306098 0.20938 0)
(0.344227 0.0930782 0)
(0.343421 -0.00830951 0)
(0.313897 -0.0842755 0)
(0.269179 -0.134693 0)
(0.223127 -0.165058 0)
(0.183603 -0.182492 0)
(0.152779 -0.193624 0)
(0.129612 -0.20346 0)
(0.111688 -0.214423 0)
(0.0963261 -0.22645 0)
(0.0808604 -0.237467 0)
(0.062815 -0.244366 0)
(0.040432 -0.244423 0)
(0.0122516 -0.235679 0)
(-0.0230513 -0.216983 0)
(-0.0637684 -0.1884 0)
(-0.109068 -0.154086 0)
(-0.157795 -0.110221 0)
(-0.210496 -0.063652 0)
(0.035122 0.268465 0)
(0.103553 0.255644 0)
(0.178025 0.221227 0)
(0.237437 0.157602 0)
(0.267148 0.0790448 0)
(0.267018 0.00709558 0)
(0.250061 -0.0534137 0)
(0.22181 -0.0988232 0)
(0.189863 -0.130453 0)
(0.159695 -0.15234 0)
(0.133444 -0.16872 0)
(0.111036 -0.182836 0)
(0.0912299 -0.196256 0)
(0.0722947 -0.208623 0)
(0.0523406 -0.217878 0)
(0.0294045 -0.221104 0)
(0.00197822 -0.215841 0)
(-0.0316456 -0.200553 0)
(-0.0700441 -0.17607 0)
(-0.110775 -0.143875 0)
(-0.154329 -0.105714 0)
(-0.200539 -0.0589804 0)
(-0.245336 -0.00632817 0)
(0.027131 0.210745 0)
(0.078107 0.192625 0)
(0.132677 0.164371 0)
(0.176473 0.120301 0)
(0.20039 0.0664752 0)
(0.205068 0.0132152 0)
(0.197538 -0.0346219 0)
(0.180202 -0.073907 0)
(0.157947 -0.104218 0)
(0.134638 -0.127438 0)
(0.112204 -0.146013 0)
(0.0909976 -0.161924 0)
(0.0704079 -0.176018 0)
(0.0493111 -0.187581 0)
(0.0264409 -0.194385 0)
(0.000135515 -0.193522 0)
(-0.031104 -0.182899 0)
(-0.0660302 -0.163121 0)
(-0.102441 -0.136164 0)
(-0.139096 -0.102873 0)
(-0.175811 -0.0640984 0)
(-0.210357 -0.0204492 0)
(-0.237537 0.0254639 0)
(0.0211534 0.166835 0)
(0.0596821 0.146225 0)
(0.0993703 0.1232 0)
(0.131419 0.0916097 0)
(0.150962 0.0531844 0)
(0.158027 0.0130496 0)
(0.155423 -0.0247934 0)
(0.144653 -0.0577196 0)
(0.128811 -0.0849433 0)
(0.110477 -0.107164 0)
(0.0911615 -0.125648 0)
(0.0713484 -0.141463 0)
(0.0507746 -0.154838 0)
(0.0287995 -0.164686 0)
(0.00454358 -0.168509 0)
(-0.0238492 -0.163565 0)
(-0.0546518 -0.149653 0)
(-0.0863067 -0.128621 0)
(-0.117362 -0.101896 0)
(-0.146784 -0.0703227 0)
(-0.17338 -0.0351003 0)
(-0.195543 0.00258351 0)
(-0.211014 0.0416484 0)
(0.0164708 0.132631 0)
(0.0461047 0.111197 0)
(0.0754612 0.0926885 0)
(0.0993162 0.0693812 0)
(0.115013 0.0411795 0)
(0.12206 0.0108051 0)
(0.121612 -0.0190323 0)
(0.114681 -0.0462381 0)
(0.103024 -0.0699091 0)
(0.0882875 -0.0900769 0)
(0.0715633 -0.107242 0)
(0.0533052 -0.121832 0)
(0.033466 -0.133629 0)
(0.0118533 -0.141215 0)
(-0.0128777 -0.142079 0)
(-0.0399308 -0.134595 0)
(-0.0670301 -0.120085 0)
(-0.0935762 -0.0998541 0)
(-0.118429 -0.0749958 0)
(-0.140533 -0.0465866 0)
(-0.159128 -0.0156148 0)
(-0.173528 0.0171079 0)
(-0.182648 0.0505628 0)
(0.0127499 0.105953 0)
(0.0357191 0.0845341 0)
(0.0577303 0.0698245 0)
(0.0756984 0.0522972 0)
(0.0880399 0.0310492 0)
(0.0942122 0.00770222 0)
(0.0946169 -0.015788 0)
(0.0898567 -0.0379896 0)
(0.0809092 -0.0580203 0)
(0.0687968 -0.0755863 0)
(0.0542643 -0.0907297 0)
(0.0376884 -0.103454 0)
(0.0192529 -0.113228 0)
(-0.00135096 -0.118515 0)
(-0.0246891 -0.117237 0)
(-0.0479267 -0.10919 0)
(-0.0708814 -0.0953856 0)
(-0.0924922 -0.0767363 0)
(-0.111855 -0.0543702 0)
(-0.128299 -0.0292657 0)
(-0.141386 -0.00227184 0)
(-0.150687 0.0258746 0)
(-0.155626 0.0542742 0)
(0.00978876 0.0852016 0)
(0.027632 0.06417 0)
(0.0442917 0.0525516 0)
(0.0578857 0.0392066 0)
(0.0674176 0.023 0)
(0.0725058 0.00490204 0)
(0.0731168 -0.013688 0)
(0.0695514 -0.0316821 0)
(0.0623954 -0.048314 0)
(0.0522613 -0.0631666 0)
(0.0396428 -0.0760334 0)
(0.0248724 -0.0866662 0)
(0.00828143 -0.0943487 0)
(-0.0109104 -0.0977732 0)
(-0.0307622 -0.0954758 0)
(-0.0505569 -0.0877701 0)
(-0.069582 -0.075105 0)
(-0.0869201 -0.0584061 0)
(-0.101921 -0.0386404 0)
(-0.11413 -0.016652 0)
(-0.123259 0.0067953 0)
(-0.128967 0.0308895 0)
(-0.131087 0.0548269 0)
(0.00749955 0.0691135 0)
(0.0213251 0.0486264 0)
(0.0339333 0.0394474 0)
(0.0442771 0.0291751 0)
(0.0515732 0.0166703 0)
(0.055495 0.00257384 0)
(0.0559769 -0.0121447 0)
(0.0531218 -0.0266272 0)
(0.0472124 -0.0402259 0)
(0.0386337 -0.0524944 0)
(0.0277254 -0.0631096 0)
(0.0148336 -0.0716943 0)
(6.93895e-05 -0.0775661 0)
(-0.0165955 -0.0796354 0)
(-0.0332657 -0.0770791 0)
(-0.0498795 -0.0699473 0)
(-0.0654451 -0.0586345 0)
(-0.0792946 -0.0439392 0)
(-0.0909117 -0.0266705 0)
(-0.0999443 -0.00755868 0)
(-0.106191 0.0126747 0)
(-0.109433 0.0331748 0)
(-0.109587 0.0531422 0)
(0.00571033 0.0566494 0)
(0.0163751 0.0367166 0)
(0.0259161 0.0294908 0)
(0.0337465 0.0215596 0)
(0.0392631 0.0118234 0)
(0.0422261 0.000782273 0)
(0.0424552 -0.0108343 0)
(0.0399881 -0.0224088 0)
(0.0349814 -0.0333847 0)
(0.0276704 -0.0433308 0)
(0.0183109 -0.0518874 0)
(0.00723121 -0.0586384 0)
(-0.00576678 -0.0630957 0)
(-0.0194985 -0.0642466 0)
(-0.0335928 -0.0617061 0)
(-0.0473247 -0.0552702 0)
(-0.0599829 -0.0453274 0)
(-0.0710278 -0.0325318 0)
(-0.0800333 -0.0175662 0)
(-0.0867078 -0.0010654 0)
(-0.0908765 0.0162843 0)
(-0.0923553 0.0336707 0)
(-0.0912387 0.0502098 0)
(0.00435662 0.047077 0)
(0.0125468 0.0276756 0)
(0.0197156 0.0219882 0)
(0.0256224 0.0158312 0)
(0.029703 0.00824596 0)
(0.0318234 -0.00040702 0)
(0.0317959 -0.00958261 0)
(0.0295838 -0.01878 0)
(0.0252744 -0.0275417 0)
(0.0190264 -0.0354814 0)
(0.011059 -0.0422523 0)
(0.0015123 -0.0475207 0)
(-0.009408 -0.0507837 0)
(-0.0208856 -0.0514097 0)
(-0.0326222 -0.0489588 0)
(-0.0438942 -0.0432656 0)
(-0.0541439 -0.0346126 0)
(-0.0629334 -0.0235397 0)
(-0.0699153 -0.0106388 0)
(-0.0748408 0.00352963 0)
(-0.0775246 0.0183323 0)
(-0.0778481 0.03297 0)
(-0.0759716 0.0465392 0)
(0.00329671 0.0397893 0)
(0.00954714 0.0208472 0)
(0.0149 0.0163575 0)
(0.019303 0.0115625 0)
(0.0222788 0.00563466 0)
(0.0237249 -0.00112887 0)
(0.0234514 -0.00834276 0)
(0.0214216 -0.0155997 0)
(0.0176775 -0.0225232 0)
(0.0123333 -0.0287776 0)
(0.00556705 -0.0340529 0)
(-0.00261492 -0.0381255 0)
(-0.0116276 -0.0404709 0)
(-0.0212585 -0.0407285 0)
(-0.0309739 -0.038451 0)
(-0.0402076 -0.0334856 0)
(-0.0484899 -0.0260107 0)
(-0.0554678 -0.0164637 0)
(-0.0608673 -0.00537316 0)
(-0.0644852 0.00674462 0)
(-0.0661704 0.0193028 0)
(-0.0657547 0.0315547 0)
(-0.0634782 0.0425931 0)
(0.00248214 0.0342288 0)
(0.00721242 0.01572 0)
(0.011164 0.0121652 0)
(0.0144099 0.00844245 0)
(0.0165219 0.00382816 0)
(0.0174297 -0.0014549 0)
(0.0169615 -0.0071006 0)
(0.0150825 -0.0127828 0)
(0.0118096 -0.0181982 0)
(0.00723558 -0.0230632 0)
(0.00144014 -0.0271543 0)
(-0.00538429 -0.030188 0)
(-0.012942 -0.0318724 0)
(-0.0209773 -0.0318535 0)
(-0.029024 -0.0297938 0)
(-0.0366045 -0.0255199 0)
(-0.0433095 -0.0191139 0)
(-0.0488434 -0.0109114 0)
(-0.0530027 -0.00138657 0)
(-0.0556452 0.00896288 0)
(-0.0566403 0.0195922 0)
(-0.0558227 0.0297994 0)
(-0.053433 0.0386917 0)
(0.00185931 0.0300344 0)
(0.00540136 0.0119086 0)
(0.00827949 0.00909261 0)
(0.0106345 0.00621203 0)
(0.0120733 0.00262972 0)
(0.0125644 -0.00147428 0)
(0.0119544 -0.00586153 0)
(0.0102115 -0.010272 0)
(0.00733947 -0.0144618 0)
(0.00340963 -0.0182002 0)
(-0.00153161 -0.0213156 0)
(-0.00722988 -0.0235409 0)
(-0.0135789 -0.0246857 0)
(-0.0202825 -0.0244712 0)
(-0.0269704 -0.0226376 0)
(-0.0332319 -0.0190041 0)
(-0.0386983 -0.0135689 0)
(-0.0431066 -0.00656005 0)
(-0.0463015 0.00161259 0)
(-0.0482029 0.0104621 0)
(-0.0487489 0.0194609 0)
(-0.0477484 0.0279473 0)
(-0.0454261 0.0350568 0)
(0.00138222 0.0269022 0)
(0.00400685 0.00912172 0)
(0.00606446 0.00688316 0)
(0.00772754 0.00466082 0)
(0.00865516 0.0018994 0)
(0.008832 -0.00126309 0)
(0.00812546 -0.00464041 0)
(0.00650984 -0.00802733 0)
(0.00398503 -0.0112271 0)
(0.000585295 -0.0140753 0)
(-0.00357383 -0.016369 0)
(-0.00839273 -0.0179612 0)
(-0.0137196 -0.0186704 0)
(-0.019325 -0.0183111 0)
(-0.0249104 -0.0166868 0)
(-0.0301272 -0.0136277 0)
(-0.03464 -0.00906953 0)
(-0.0381967 -0.00313249 0)
(-0.0406666 0.00386003 0)
(-0.0420263 0.0114454 0)
(-0.0422699 0.0190947 0)
(-0.041245 0.0261735 0)
(-0.0391353 0.0318367 0)
(0.00102826 0.0245877 0)
(0.00294136 0.007123 0)
(0.00436573 0.00532348 0)
(0.00550308 0.00363226 0)
(0.00604463 0.00152468 0)
(0.00599046 -0.000886263 0)
(0.00522543 -0.00345347 0)
(0.00373566 -0.00601965 0)
(0.00150462 -0.00843261 0)
(-0.00141559 -0.0105375 0)
(-0.00495287 -0.012191 0)
(-0.00902757 -0.0132628 0)
(-0.0135045 -0.013625 0)
(-0.0182049 -0.013151 0)
(-0.0228931 -0.0117028 0)
(-0.0272811 -0.00913857 0)
(-0.0310677 -0.0053588 0)
(-0.0340047 -0.000387703 0)
(-0.0359562 0.0055572 0)
(-0.0369301 0.0120685 0)
(-0.0370016 0.0186225 0)
(-0.0360358 0.0245807 0)
(-0.0341944 0.0291149 0)
(0.000766926 0.0228922 0)
(0.00212886 0.00571938 0)
(0.00307538 0.00426949 0)
(0.00381837 0.00300147 0)
(0.00406415 0.00141516 0)
(0.00384458 -0.000396619 0)
(0.00305252 -0.00231755 0)
(0.00168003 -0.0042281 0)
(-0.000284384 -0.00600217 0)
(-0.00279735 -0.00751048 0)
(-0.00581836 -0.00864446 0)
(-0.00926794 -0.00929861 0)
(-0.0130392 -0.00938209 0)
(-0.0169925 -0.00881156 0)
(-0.020946 -0.00749891 0)
(-0.0246704 -0.00534058 0)
(-0.0279045 -0.00223092 0)
(-0.030405 0.0018781 0)
(-0.0320179 0.0068802 0)
(-0.0327565 0.0124621 0)
(-0.0327349 0.0181281 0)
(-0.0318919 0.0232264 0)
(-0.0303603 0.0269154 0)
(0.000584517 0.0216553 0)
(0.00153 0.00477894 0)
(0.0021043 0.00360363 0)
(0.00254228 0.00267206 0)
(0.00256747 0.00149928 0)
(0.00223225 0.00016461 0)
(0.00143626 -0.00124343 0)
(0.000178921 -0.00262926 0)
(-0.0015473 -0.00388433 0)
(-0.0037192 -0.00491454 0)
(-0.0062989 -0.00562864 0)
(-0.00922265 -0.0059472 0)
(-0.0124055 -0.00580477 0)
(-0.0157393 -0.00514874 0)
(-0.0190868 -0.00393025 0)
(-0.022272 -0.00208674 0)
(-0.0250789 0.000469481 0)
(-0.0272818 0.00382436 0)
(-0.0287013 0.00798016 0)
(-0.0293234 0.0127394 0)
(-0.0292977 0.0176759 0)
(-0.0286038 0.0221348 0)
(-0.0273748 0.0252395 0)
(0.000471361 0.020747 0)
(0.00109822 0.00419457 0)
(0.00137693 0.00322647 0)
(0.00158406 0.00256957 0)
(0.00143791 0.00172425 0)
(0.00102157 0.000766383 0)
(0.000234875 -0.000234313 0)
(-0.000910571 -0.00119869 0)
(-0.00242985 -0.00204129 0)
(-0.00430547 -0.00268665 0)
(-0.00650639 -0.00306339 0)
(-0.00898342 -0.00311102 0)
(-0.0116708 -0.002783 0)
(-0.0144863 -0.00204807 0)
(-0.0173281 -0.00088541 0)
(-0.0200674 0.000730823 0)
(-0.0225379 0.00285528 0)
(-0.024532 0.00558035 0)
(-0.0258666 0.0089817 0)
(-0.0264879 0.012998 0)
(-0.0265176 0.0173156 0)
(-0.0259995 0.0213117 0)
(-0.0250733 0.0240598 0)
(0.000420169 0.0200392 0)
(0.000803358 0.00388514 0)
(0.000835858 0.00308208 0)
(0.000865365 0.00264311 0)
(0.000578052 0.00205458 0)
(0.000103705 0.00139141 0)
(-0.000664806 0.000712043 0)
(-0.00171146 8.0071e-05 0)
(-0.00304975 -0.00043741 0)
(-0.00466686 -0.000777859 0)
(-0.00653987 -0.000885284 0)
(-0.00863241 -0.00071394 0)
(-0.010896 -0.000231255 0)
(-0.0132702 0.000578952 0)
(-0.0156819 0.00171933 0)
(-0.0180421 0.0031866 0)
(-0.0202285 0.00500073 0)
(-0.0220775 0.00723008 0)
(-0.0234004 0.00998387 0)
(-0.024097 0.013322 0)
(-0.0242571 0.0170867 0)
(-0.0239256 0.0207471 0)
(-0.0232655 0.0233366 0)
(0.000439831 0.0194715 0)
(0.000638989 0.00380715 0)
(0.000438193 0.00313287 0)
(0.000325736 0.00285834 0)
(-8.38999e-05 0.00247021 0)
(-0.000605197 0.00203519 0)
(-0.00135807 0.00160196 0)
(-0.0023202 0.00122451 0)
(-0.00350339 0.000957799 0)
(-0.00489784 0.000853524 0)
(-0.00648732 0.000956812 0)
(-0.00824614 0.00130273 0)
(-0.0101413 0.0019149 0)
(-0.0121311 0.00279698 0)
(-0.0141669 0.00394315 0)
(-0.0161899 0.0053314 0)
(-0.0181231 0.00694577 0)
(-0.0198487 0.0088172 0)
(-0.0212009 0.0110532 0)
(-0.0220417 0.0137875 0)
(-0.0223785 0.0170353 0)
(-0.0222558 0.0204246 0)
(-0.0218497 0.0230104 0)
(0.000498222 0.0189622 0)
(0.000555885 0.0039275 0)
(0.000142718 0.00335361 0)
(-7.97827e-05 0.00320037 0)
(-0.000597142 0.00296142 0)
(-0.00116479 0.00269668 0)
(-0.00190965 0.00244627 0)
(-0.00280512 0.00225759 0)
(-0.00386187 0.00217672 0)
(-0.00507104 0.00224763 0)
(-0.00642075 0.00250855 0)
(-0.00789214 0.0029863 0)
(-0.00946678 0.0036984 0)
(-0.0111164 0.00465164 0)
(-0.0128099 0.005826 0)
(-0.0145212 0.00718999 0)
(-0.0162094 0.00870437 0)
(-0.0178028 0.0103575 0)
(-0.0191816 0.0122126 0)
(-0.0201935 0.0144476 0)
(-0.0207756 0.0172124 0)
(-0.0208839 0.0203545 0)
(-0.0206796 0.0230353 0)
(0.000601389 0.0184081 0)
(0.000555279 0.0042146 0)
(-6.49561e-05 0.00372411 0)
(-0.000376245 0.0036604 0)
(-0.000992528 0.00352416 0)
(-0.00160353 0.00338016 0)
(-0.00234978 0.00326054 0)
(-0.00319893 0.00320637 0)
(-0.00416055 0.0032556 0)
(-0.0052248 0.00344723 0)
(-0.00638339 0.00381507 0)
(-0.0076218 0.00438592 0)
(-0.008919 0.00517256 0)
(-0.0102653 0.006181 0)
(-0.0116522 0.00739123 0)
(-0.0130663 0.00876951 0)
(-0.0144991 0.0102656 0)
(-0.015933 0.0118282 0)
(-0.0172907 0.0134686 0)
(-0.0184552 0.0153266 0)
(-0.0193084 0.0176547 0)
(-0.019702 0.0205457 0)
(-0.0197213 0.0233644 0)
(0.00073356 0.0177688 0)
(0.000619492 0.00464848 0)
(-0.000190749 0.00422488 0)
(-0.000570333 0.00421577 0)
(-0.00127541 0.00414833 0)
(-0.00192264 0.00408516 0)
(-0.00267375 0.00405407 0)
(-0.00349347 0.00408839 0)
(-0.00439011 0.00422668 0)
(-0.00535109 0.00449972 0)
(-0.0063658 0.00493495 0)
(-0.00742248 0.00555869 0)
(-0.00850745 0.00638743 0)
(-0.00961061 0.00742466 0)
(-0.0107284 0.00866028 0)
(-0.0118626 0.0100706 0)
(-0.0130316 0.0116021 0)
(-0.0142508 0.0131852 0)
(-0.015516 0.0147742 0)
(-0.0167681 0.0164204 0)
(-0.0178821 0.0183927 0)
(-0.0186054 0.0210002 0)
(-0.0188523 0.0239423 0)
(0.00087405 0.0169967 0)
(0.000725731 0.00519806 0)
(-0.000242997 0.00483421 0)
(-0.000662341 0.00484425 0)
(-0.00143185 0.00481776 0)
(-0.0021003 0.00480567 0)
(-0.00285202 0.00483429 0)
(-0.00364338 0.00493002 0)
(-0.00448521 0.00512601 0)
(-0.00537387 0.00544815 0)
(-0.00629637 0.00592006 0)
(-0.00723536 0.00656136 0)
(-0.00817383 0.00739355 0)
(-0.00910478 0.00842763 0)
(-0.0100183 0.00967163 0)
(-0.0109188 0.0111033 0)
(-0.0118367 0.0126855 0)
(-0.0128112 0.0143567 0)
(-0.0138967 0.0160259 0)
(-0.0151213 0.017668 0)
(-0.0164217 0.0194359 0)
(-0.0175071 0.0217636 0)
(-0.0180592 0.0247667 0)