/*--------------------------------*- C++ -*----------------------------------*\
| =========                 |                                                 |
| \\      /  F ield         | OpenFOAM: The Open Source CFD Toolbox           |
|  \\    /   O peration     | Version:  2312                                  |
|   \\  /    A nd           | Website:  www.openfoam.com                      |
|    \\/     M anipulation  |                                                 |
\*---------------------------------------------------------------------------*/
FoamFile
{
    version     2.0;
    format      ascii;
    arch        "LSB;label=32;scalar=64";
    class       volScalarField;
    location    "0.3";
    object      alpha.water;
}
// * * * * * * * * * * * * * * * * * * * * * * * * * * * * * * * * * * * * * //

dimensions      [0 0 0 0 0 0 0];

internalField   nonuniform List<scalar> 
2268
(
5.93163e-14
6.90097e-14
5.02071e-14
5.03287e-14
6.49341e-14
1.10526e-13
1.81983e-13
2.82512e-13
3.92803e-13
5.90314e-13
7.76166e-13
1.35717e-12
3.29095e-12
1.40874e-11
6.18837e-11
1.97525e-10
2.47974e-10
2.25519e-10
2.25519e-10
2.25519e-10
2.25519e-10
5.78005e-10
5.8365e-10
8.03011e-13
9.58804e-13
9.52861e-13
1.00726e-12
1.31764e-12
2.13416e-12
3.38744e-12
4.99782e-12
6.78758e-12
9.06311e-12
1.11627e-11
1.26714e-11
2.21075e-11
4.3129e-11
1.65324e-10
1.19556e-09
5.67964e-09
5.75746e-09
4.08617e-09
3.68155e-09
1.44418e-09
9.89154e-08
6.24902e-10
6.3443e-12
6.83679e-12
6.39163e-12
6.44807e-12
8.22316e-12
1.22428e-11
1.83779e-11
2.61668e-11
3.40438e-11
4.21523e-11
4.74549e-11
5.08109e-11
8.75066e-11
1.23588e-10
1.05744e-10
1.93144e-10
2.2876e-08
2.65727e-08
1.15135e-08
1.87028e-08
2.73066e-07
2.89648e-07
2.90738e-07
2.7911e-11
3.18419e-11
3.27242e-11
3.49663e-11
3.96531e-11
4.93177e-11
6.79891e-11
8.88354e-11
1.057e-10
1.25367e-10
1.33018e-10
1.23015e-10
1.63308e-10
1.98446e-10
1.05314e-10
1.40148e-09
7.15999e-08
6.72869e-08
2.9294e-08
1.55141e-08
1.00213e-07
2.29487e-07
1.65004e-07
1.01696e-10
9.71785e-11
9.11016e-11
1.04464e-10
1.1071e-10
1.26684e-10
1.53238e-10
1.77804e-10
1.56389e-10
1.82391e-10
1.9348e-10
1.43167e-10
5.94461e-10
5.95602e-10
3.6381e-10
5.85391e-10
3.41518e-09
3.12807e-26
-2.34255e-18
-9.15497e-27
9.30714e-09
3.21925e-08
4.85005e-08
2.47249e-10
2.19011e-10
1.96873e-10
2.42559e-10
2.47981e-10
2.57715e-10
2.86661e-10
2.98571e-10
1.29836e-10
1.36317e-10
1.29702e-10
1.36518e-10
0.000167562
0.0297829
0.101889
0.208063
0.316455
0.365018
0.235712
0.000382324
7.70312e-09
3.1171e-06
5.98892e-07
1.28297e-09
1.14879e-09
1.09009e-09
1.02534e-09
8.8705e-10
7.03382e-10
5.09722e-10
3.01855e-10
0.00573029
0.0298991
0.0910915
0.211551
0.418165
0.651808
0.83061
0.973122
1
0.990398
0.932916
0.514555
0.0268284
1.06675e-07
1.10073e-07
0.0264416
0.0286922
0.0371718
0.0537268
0.0814039
0.124495
0.188076
0.278194
0.396718
0.539309
0.725563
0.898375
1
1
1
1
1
1
0.999998
0.999565
0.187462
2.18898e-05
2.99053e-06
7.47564e-12
1.0823e-11
1.28903e-11
1.32666e-11
1.26278e-11
9.83513e-12
7.21631e-12
5.84675e-12
4.39442e-12
2.97598e-12
2.11319e-12
1.03636e-12
5.19728e-13
3.11636e-13
1.89269e-13
6.64613e-14
1.48328e-14
2.79651e-15
8.13629e-16
9.04452e-12
2.41529e-11
3.44419e-11
4.12011e-11
4.25104e-11
3.68161e-11
2.88764e-11
2.15449e-11
1.63821e-11
1.18416e-11
8.31473e-12
5.51738e-12
3.40908e-12
2.23105e-12
9.8565e-13
3.35105e-13
6.30074e-14
7.22063e-15
1.32072e-15
1.23611e-11
4.04618e-11
6.25254e-11
8.15769e-11
8.54365e-11
7.45091e-11
5.76319e-11
4.07269e-11
2.72311e-11
2.09e-11
1.60351e-11
1.20967e-11
8.72796e-12
5.79752e-12
2.46633e-12
1.50632e-12
4.16384e-13
4.01488e-14
1.73806e-15
2.02727e-11
5.57593e-11
9.99893e-11
1.39378e-10
1.50299e-10
1.20771e-10
8.54381e-11
5.70779e-11
3.93627e-11
2.86849e-11
2.21443e-11
1.66668e-11
1.3177e-11
8.86737e-12
4.91514e-12
2.28443e-12
7.70295e-13
1.19018e-13
8.42211e-15
2.10656e-11
6.7744e-11
1.36968e-10
1.74949e-10
1.97214e-10
1.67423e-10
1.19442e-10
7.48218e-11
4.85493e-11
3.48186e-11
2.62516e-11
2.026e-11
1.60016e-11
1.02667e-11
7.64198e-12
4.19151e-12
1.45461e-12
2.78815e-13
2.88589e-14
2.04692e-11
7.78808e-11
1.34502e-10
1.66966e-10
2.13883e-10
2.06795e-10
1.71988e-10
1.20377e-10
7.17764e-11
4.27462e-11
3.20411e-11
2.36499e-11
1.66885e-11
1.36198e-11
9.36314e-12
5.43062e-12
2.21271e-12
5.21146e-13
1.12709e-13
1.92863e-11
7.46406e-11
1.14937e-10
9.92897e-11
2.13526e-10
2.36044e-10
2.06274e-10
1.62064e-10
1.04242e-10
6.17079e-11
3.64454e-11
2.40371e-11
1.74635e-11
1.39758e-11
9.73695e-12
6.54689e-12
3.0027e-12
8.82578e-13
1.82521e-13
1.19228e-11
6.92515e-11
8.6653e-11
5.40823e-11
1.74183e-10
2.72848e-10
2.52975e-10
2.05065e-10
1.57047e-10
1.01013e-10
3.96992e-11
1.88355e-11
1.38962e-11
1.18321e-11
9.3791e-12
6.85283e-12
3.96906e-12
1.31357e-12
3.35109e-13
0.584598
0.590918
0.613161
0.648849
0.69511
0.74924
0.808064
0.867792
0.923981
0.976563
1
1
1
1
1
1
1
1
1
1
0.888441
0.129965
-4.30404e-08
1
1
1
1
1
1
1
1
1
1
1
1
1
1
1
1
1
1
1
1
0.991017
0.810756
0.154155
1
1
1
1
1
1
1
1
1
1
1
1
1
1
1
1
1
1
1
0.999999
0.999958
0.970696
0.70567
1
1
1
1
1
1
1
1
1
1
1
1
1
1
1
1
1
1
1
0.999997
0.99999
0.99599
0.973529
1
1
1
1
1
1
1
1
1
1
1
1
1
1
1
0.999991
0.999996
0.999999
0.999999
0.999997
0.999972
0.999971
0.999969
1
1
1
1
1
1
1
1
1
1
1
1
1
1
0.969058
0.879331
0.745053
0.685528
0.663205
0.64141
0.735326
0.908581
0.999736
1
1
1
1
1
1
1
1
1
1
1
0.999999
0.999498
0.748584
0.360628
0.127077
6.41943e-07
3.16935e-11
0.00697688
0.0174527
0.053448
0.184487
0.34667
1
1
1
1
1
1
1
1
0.998935
0.996853
0.996467
0.978142
0.59028
0.0496093
1.6056e-05
1.19019e-11
1.31945e-11
3.17959e-11
1.94952e-11
1.97663e-11
1.7146e-09
1.39668e-19
-4.25444e-19
0.823951
0.81817
0.803773
0.780336
0.74792
0.706538
0.657192
0.595425
0.532693
0.495441
0.504088
0.42909
0.00763484
1.13392e-07
1.84902e-07
2.99081e-12
1.38245e-10
3.98778e-10
4.40288e-10
4.74769e-10
4.51239e-10
3.10325e-10
2.46394e-10
0.0932322
0.0890448
0.0786517
0.0634516
0.0453108
0.0261744
0.00788795
1.92991e-05
6.50173e-16
7.39459e-17
8.93163e-17
6.96007e-17
8.93161e-17
0.000148658
4.57455e-05
2.94421e-12
1.53082e-08
3.52408e-09
1.88199e-10
1.93756e-10
2.37973e-10
2.57021e-10
2.56894e-10
-1.18248e-17
2.99425e-23
5.81946e-25
7.13035e-25
6.31327e-25
1.15719e-24
6.5035e-31
1.87741e-27
2.18359e-09
3.29642e-08
5.64378e-08
1.18052e-06
8.24416e-05
0.000170047
8.37464e-05
9.22489e-07
2.42909e-06
6.85503e-07
8.71301e-08
4.17012e-09
2.84963e-10
2.10523e-10
1.95374e-10
2.49182e-12
2.58291e-11
9.3156e-11
5.59066e-11
8.14769e-13
2.4655e-12
1.95892e-12
-1.36833e-19
8.17396e-08
8.2742e-07
3.50915e-06
1.21741e-05
2.65411e-05
0.00014891
3.67637e-05
1.06057e-05
4.24425e-06
1.59282e-06
5.8554e-07
1.86665e-07
4.88995e-08
1.76778e-08
6.56239e-09
5.32151e-12
5.72836e-11
1.81759e-10
9.2715e-11
2.06074e-12
8.1862e-12
1.83199e-11
2.88851e-16
9.05228e-09
6.69503e-07
2.21942e-06
5.87103e-07
3.38331e-24
3.45068e-24
5.80493e-17
1.87443e-06
1.72904e-06
8.16601e-07
4.50121e-07
2.86183e-07
1.42863e-07
6.60799e-08
2.78709e-08
6.81165e-12
6.98063e-11
2.10158e-10
1.11242e-10
2.69042e-12
1.29456e-11
4.76674e-11
1.34118e-10
2.3003e-10
2.34615e-13
2.44134e-13
2.31419e-13
2.93758e-13
1.8453e-14
5.64979e-16
6.01601e-28
-4.13786e-21
-9.3996e-21
-6.59128e-21
1.08886e-36
-3.07709e-37
2.62732e-09
2.80945e-09
5.93274e-12
5.879e-11
1.77079e-10
8.88986e-11
2.39922e-12
1.29341e-11
5.69333e-11
2.78055e-10
7.7804e-10
4.92568e-10
1.33901e-10
2.03219e-11
9.40104e-13
4.08889e-14
1.50126e-15
3.71731e-18
-6.03466e-37
-1.59472e-20
5.10156e-22
8.04802e-19
2.04552e-18
1.58945e-18
1.11398e-17
3.09715e-12
3.33821e-11
1.01706e-10
4.85838e-11
1.89905e-12
9.77737e-12
5.61205e-11
2.70072e-10
7.47613e-10
1.34579e-09
2.36959e-10
2.58936e-11
7.85968e-13
1.91385e-14
3.52065e-17
2.20305e-28
-6.25697e-20
-1.15826e-20
8.50034e-20
7.38942e-18
5.13409e-17
6.01557e-17
1.12202e-14
1.08956e-12
1.23562e-11
3.81605e-11
1.88739e-11
1.17327e-12
6.68537e-12
3.2755e-11
1.08168e-10
2.9316e-10
6.82409e-10
2.87341e-11
7.90121e-13
5.62614e-15
2.18786e-20
-7.91284e-20
-6.392e-20
-2.62418e-20
3.93494e-22
2.35406e-19
1.33101e-17
6.96115e-17
9.11967e-17
6.61232e-17
2.09163e-13
2.26177e-12
6.60521e-12
3.09548e-12
3.95851e-13
1.90208e-12
6.34883e-12
2.16129e-11
6.3642e-11
9.81271e-11
-9.77741e-22
-4.53806e-21
-1.31295e-20
-2.29723e-20
-2.51993e-20
-1.63925e-20
-4.97691e-21
1.03083e-21
1.15957e-20
5.03889e-20
2.15583e-19
1.27874e-18
7.52767e-18
2.62238e-20
8.67946e-18
4.0205e-16
7.68377e-15
5.01043e-14
2.18835e-13
6.426e-13
1.56202e-12
3.35007e-12
3.4984e-12
-3.84061e-22
-1.31234e-21
-2.9465e-21
-4.24298e-21
-3.87254e-21
-2.07961e-21
-4.94859e-22
7.84285e-23
5.48913e-22
1.99445e-21
1.28935e-20
6.70558e-20
3.17711e-19
1.60467e-43
1.31184e-41
3.28787e-40
3.47269e-39
9.55031e-38
2.09233e-36
3.9143e-35
6.47987e-34
9.93555e-33
1.42466e-31
1.84142e-30
1.98728e-29
1.66788e-28
1.00292e-27
3.89894e-27
2.9067e-26
2.03919e-25
1.75442e-24
1.19948e-23
8.19127e-23
4.20399e-22
1.57369e-21
1.38087e-20
2.02435e-44
2.03237e-42
9.64153e-41
3.08025e-39
7.73777e-38
1.65231e-36
3.10191e-35
5.12689e-34
7.39178e-33
9.37519e-32
1.05458e-30
1.03635e-29
8.74675e-29
6.02717e-28
3.05707e-27
1.10244e-26
4.43346e-26
1.78666e-25
5.95709e-25
1.56591e-24
6.54461e-24
6.66152e-23
4.1771e-22
5.90241e-45
6.23523e-43
3.23194e-41
1.11355e-39
2.92574e-38
6.24916e-37
1.35052e-35
2.28387e-34
3.26527e-33
4.00552e-32
4.24136e-31
3.83953e-30
2.95303e-29
1.88951e-28
9.61135e-28
3.6254e-27
9.99954e-27
5.55625e-26
2.5947e-25
7.88667e-25
1.66931e-24
3.83196e-24
1.77258e-23
6.44967e-46
7.36862e-44
4.16176e-42
1.57367e-40
4.59131e-39
1.10953e-37
2.20354e-36
3.3764e-35
5.6342e-34
6.57359e-33
6.43882e-32
5.36117e-31
3.91302e-30
2.27288e-29
1.1241e-28
4.7782e-28
1.9055e-27
7.11385e-27
2.48809e-26
7.60734e-26
3.33326e-25
8.88618e-25
1.87521e-24
6.25109e-47
7.92184e-45
4.961e-43
2.05733e-41
6.41904e-40
1.61412e-38
3.30788e-37
5.33348e-36
8.96878e-35
1.14128e-33
1.29222e-32
1.14921e-31
8.60523e-31
5.45983e-30
2.93474e-29
1.32179e-28
5.13523e-28
1.76007e-27
5.19506e-27
1.39648e-26
3.56399e-26
1.47685e-25
2.9859e-25
2.90329e-48
4.13462e-46
2.92298e-44
1.36955e-42
4.77659e-41
1.30781e-39
2.86911e-38
5.07767e-37
7.47511e-36
1.11763e-34
1.18064e-33
1.06465e-32
8.13552e-32
4.96633e-31
3.17437e-30
1.48795e-29
6.45625e-29
2.19793e-28
7.13415e-28
2.01284e-27
5.09966e-27
1.35256e-26
4.58448e-26
7.33429e-50
1.10478e-47
8.21046e-46
4.01143e-44
1.44764e-42
4.09648e-41
9.43726e-40
1.82044e-38
2.95419e-37
3.93015e-36
4.29289e-35
4.08064e-34
3.25499e-33
2.17101e-32
1.46115e-31
7.62742e-31
3.846e-30
1.59091e-29
6.11555e-29
1.98827e-28
5.63523e-28
1.31114e-27
4.81769e-27
1.1961e-51
1.89582e-49
1.47531e-47
7.50143e-46
2.80161e-44
8.21272e-43
1.97828e-41
3.98008e-40
6.61197e-39
9.26604e-38
1.09962e-36
1.10992e-35
9.53516e-35
6.83399e-34
4.07938e-33
3.12369e-32
1.64797e-31
7.96721e-31
3.30969e-30
1.28458e-29
4.26764e-29
1.40793e-28
3.70456e-28
1.01967e-53
1.75725e-51
1.4868e-49
8.22771e-48
3.34923e-46
1.06614e-44
2.74633e-43
5.84017e-42
1.03897e-40
1.56214e-39
2e-38
2.19097e-37
2.05428e-36
1.63812e-35
1.12748e-34
7.17453e-34
4.74237e-33
2.55016e-32
1.24077e-31
5.30792e-31
2.08251e-30
7.20247e-30
2.70308e-29
7.80948e-56
1.42793e-53
1.28038e-51
7.49489e-50
3.21995e-48
1.08051e-46
2.94024e-45
6.64674e-44
1.26862e-42
2.06691e-41
2.89619e-40
3.50928e-39
3.69721e-38
3.41459e-37
2.79718e-36
2.03721e-35
1.30212e-34
9.46517e-34
5.13061e-33
2.67154e-32
1.09851e-31
5.18626e-31
1.88749e-30
4.72647e-58
9.3282e-56
9.02659e-54
5.69293e-52
2.62674e-50
9.43698e-49
2.74543e-47
6.64266e-46
1.36217e-44
2.40108e-43
3.67906e-42
4.94548e-41
5.87552e-40
6.20492e-39
5.85088e-38
4.94986e-37
3.78133e-36
2.64832e-35
1.80054e-34
1.07616e-33
5.67808e-33
2.62274e-32
1.28045e-31
2.05787e-60
4.50666e-58
4.82444e-56
3.35935e-54
1.71064e-52
6.7864e-51
2.18131e-49
5.83227e-48
1.32182e-46
2.57599e-45
4.3684e-44
6.51724e-43
8.64486e-42
1.02993e-40
1.11268e-39
1.09552e-38
9.73083e-38
7.68134e-37
5.48241e-36
3.50965e-35
1.99485e-34
1.19806e-33
6.14566e-33
5.73843e-63
1.39078e-60
1.64452e-58
1.26377e-56
7.09733e-55
3.10437e-53
1.10082e-51
3.25386e-50
8.18397e-49
1.77986e-47
3.39025e-46
5.71293e-45
8.58327e-44
1.15849e-42
1.41974e-41
1.5975e-40
1.64604e-39
1.5353e-38
1.31216e-37
1.02378e-36
7.23662e-36
4.56336e-35
2.50281e-34
1.19409e-65
3.24543e-63
4.29415e-61
3.68937e-59
2.31625e-57
1.133e-55
4.49477e-54
1.48674e-52
4.18542e-51
1.01923e-49
2.17641e-48
4.12473e-47
7.01271e-46
1.07896e-44
1.51096e-43
1.93089e-42
2.2548e-41
2.41407e-40
2.38147e-39
2.15707e-38
1.7565e-37
1.28814e-36
9.1554e-36
1.881e-68
5.99306e-66
9.13044e-64
9.01038e-62
6.48245e-60
3.63389e-58
1.65824e-56
6.26867e-55
2.0088e-53
5.54837e-52
1.34253e-50
2.84994e-49
5.38198e-48
9.13234e-47
1.40655e-45
1.98598e-44
2.59313e-43
3.14848e-42
3.55432e-41
3.70688e-40
3.5344e-39
3.04297e-38
2.32777e-37
1.93557e-71
7.28364e-69
1.31738e-66
1.53846e-64
1.30722e-62
8.63734e-61
4.63169e-59
2.08467e-57
7.99984e-56
2.64707e-54
7.67757e-53
1.97246e-51
4.52859e-50
9.3613e-49
1.75278e-47
2.98536e-46
4.63839e-45
6.58973e-44
8.56956e-43
1.01201e-41
1.05986e-40
9.82475e-40
8.59907e-39
1.08573e-74
5.11169e-72
1.12426e-69
1.59473e-67
1.65172e-65
1.33487e-63
8.77154e-62
4.82045e-60
2.26184e-58
9.2062e-57
3.29134e-55
1.04415e-53
2.96457e-52
7.5877e-51
1.76138e-49
3.72691e-48
7.2139e-47
1.27948e-45
2.07679e-44
3.07075e-43
4.10784e-42
4.94241e-41
5.33649e-40
3.31138e-78
2.0141e-75
5.56217e-73
9.78157e-71
1.24801e-68
1.23763e-66
9.95629e-65
6.69015e-63
3.83601e-61
1.90768e-59
8.33307e-58
3.22818e-56
1.11684e-54
3.46766e-53
9.70793e-52
2.47201e-50
5.82469e-49
1.29288e-47
2.67684e-46
4.91285e-45
7.69467e-44
1.13469e-42
1.78725e-41
5.23605e-82
4.32447e-79
1.50824e-76
3.29891e-74
5.21457e-72
6.40881e-70
6.40613e-68
5.3691e-66
3.85669e-64
2.41344e-62
1.33216e-60
6.5478e-59
2.88727e-57
1.14968e-55
4.16414e-54
1.38432e-52
4.25641e-51
1.20889e-49
3.13313e-48
7.3244e-47
1.53544e-45
2.857e-44
4.71022e-43
2.3642e-86
2.89051e-83
1.34675e-80
3.83899e-78
7.84839e-76
1.24478e-73
1.6062e-71
1.74094e-69
1.62187e-67
1.32112e-65
9.53291e-64
6.15432e-62
3.58145e-60
1.889e-58
9.06484e-57
3.96767e-55
1.58508e-53
5.76204e-52
1.89585e-50
5.64262e-49
1.51774e-47
3.80907e-46
9.45046e-45
2.36395e-91
5.0496e-88
3.40729e-85
1.35736e-82
3.83388e-80
8.35973e-78
1.47916e-75
2.19451e-73
2.79434e-71
3.1075e-69
3.05898e-67
2.69368e-65
2.13968e-63
1.54382e-61
1.01811e-59
6.17341e-58
3.45977e-56
1.79741e-54
8.64215e-53
3.81264e-51
1.51737e-49
5.31999e-48
1.60351e-46
9.30371e-98
4.90112e-94
5.55562e-91
3.54058e-88
1.57606e-85
5.38629e-83
1.48881e-80
3.43882e-78
6.78628e-76
1.16276e-73
1.75149e-71
2.34443e-69
2.81739e-67
3.07249e-65
3.07453e-63
2.85069e-61
2.46107e-59
1.969e-57
1.43482e-55
9.32405e-54
5.50431e-52
3.25577e-50
1.82311e-48
1.2596e-107
8.45086e-103
2.1671e-99
2.90015e-96
2.67487e-93
1.88444e-90
1.07126e-87
5.0826e-85
2.05939e-82
7.24719e-80
2.24437e-77
6.18324e-75
1.52953e-72
3.42449e-70
6.98671e-68
1.30631e-65
2.24944e-63
3.58599e-61
5.32527e-59
7.41068e-57
9.63777e-55
1.12606e-52
1.00655e-50
-9.05757e-09
-4.09974e-10
-4.0647e-23
-1.02884e-20
-2.87006e-19
-1.30511e-11
4.39887e-10
7.25699e-05
0.277789
0.0203517
0.00417516
0.000175382
0.948205
0.669508
0.170193
4.66522e-05
0.999965
0.997715
0.915477
0.281167
0.999759
0.999688
0.998628
0.433923
0.468054
0.482741
0.356894
0.0553257
0.000691831
0.000909484
1.24834e-10
6.99713e-12
1.79492e-10
1.75578e-10
1.70125e-10
7.78426e-11
2.44314e-10
2.422e-10
2.60917e-10
2.70318e-10
1.77316e-10
1.77082e-10
1.80522e-10
1.72532e-10
3.53691e-09
2.82541e-09
2.13017e-09
1.46163e-09
1.61593e-08
8.80584e-09
4.42401e-09
2.36337e-09
1.61828e-09
9.01641e-10
4.53266e-10
9.44647e-11
1.24208e-18
2.33467e-12
5.2033e-12
1.19042e-12
5.10897e-17
5.10897e-17
1.22778e-15
1.08421e-15
1.09899e-16
8.39708e-17
1.21058e-16
3.91231e-17
1.55914e-17
1.22303e-17
1.00434e-17
3.64722e-18
7.47886e-19
7.44857e-19
7.55553e-19
3.19517e-19
2.93613e-20
2.84177e-20
3.45047e-20
1.68107e-20
8.70446e-22
1.04785e-21
1.19501e-21
8.57025e-22
3.50589e-23
4.42224e-23
5.13951e-23
4.75024e-23
2.92379e-24
3.47464e-24
3.79485e-24
3.84342e-24
4.18419e-25
4.75511e-25
5.09688e-25
5.19129e-25
6.95195e-26
8.08058e-26
8.81073e-26
9.04129e-26
1.01807e-26
1.30154e-26
1.53311e-26
1.65629e-26
1.16732e-27
1.69603e-27
2.17964e-27
2.55034e-27
9.26658e-29
1.87295e-28
2.7535e-28
3.60473e-28
5.13116e-30
1.54101e-29
2.81262e-29
4.2018e-29
4.35612e-31
8.36972e-31
2.29515e-30
4.21165e-30
2.56518e-32
5.98015e-32
1.33159e-31
3.32034e-31
1.15839e-33
2.73916e-33
6.12484e-33
2.14964e-32
5.27736e-35
1.50407e-34
3.70901e-34
8.1576e-34
1.54268e-36
4.86349e-36
1.30555e-35
2.94585e-35
5.53823e-38
2.11448e-37
9.22681e-37
5.6596e-36
5.1676e-39
2.41167e-38
1.05406e-37
4.35291e-37
1.94684e-40
1.20474e-39
5.7493e-39
2.36447e-38
6.86023e-42
4.4568e-41
2.57531e-40
1.24985e-39
1.6569e-43
1.56426e-42
1.08896e-41
6.32296e-41
4.10814e-45
4.60469e-44
4.10164e-43
2.90553e-42
6.17004e-47
1.16322e-45
1.33957e-44
1.1826e-43
9.09201e-49
2.3259e-47
3.71346e-46
4.22136e-45
-2.95574e-19
4.33153e-11
3.78692e-11
2.67277e-11
9.67869e-11
2.70925e-10
3.02266e-10
3.67731e-10
3.09271e-10
1.57308e-10
3.50157e-11
8.18944e-12
6.36508e-12
7.06889e-12
6.93252e-12
6.00407e-12
3.84043e-12
2.13793e-12
5.65333e-13
1.96746e-05
4.91835e-11
3.25651e-12
7.90694e-12
4.98265e-11
1.73644e-10
5.50296e-10
1.33358e-09
7.50466e-10
2.56352e-10
2.6822e-11
2.19958e-12
8.98833e-13
1.41923e-12
2.66604e-12
3.7569e-12
3.26724e-12
2.12801e-12
6.24558e-13
8.20507e-06
3.81716e-07
5.28297e-15
2.66291e-14
2.30454e-10
4.21811e-09
5.92695e-09
4.78526e-09
2.17968e-09
2.40343e-10
5.49428e-12
1.61706e-12
5.58288e-13
3.11756e-13
6.14274e-13
1.63291e-12
2.38939e-12
1.87e-12
6.31156e-13
6.61649e-10
9.69879e-13
4.70501e-17
6.72864e-08
5.41547e-08
5.35327e-08
2.02219e-08
1.07952e-08
4.00612e-09
1.74134e-10
1.05403e-13
6.68542e-14
4.66797e-14
6.65397e-14
8.5954e-14
5.64508e-13
1.56791e-12
1.56999e-12
6.04662e-13
4.74691e-10
1.41094e-06
3.83777e-06
2.42641e-06
1.55608e-06
3.18919e-07
3.80651e-08
6.81021e-09
2.19219e-09
1.06377e-10
1.77991e-13
2.14942e-14
6.61789e-15
7.82521e-15
2.72203e-14
1.15168e-13
8.70039e-13
1.18823e-12
5.41915e-13
0.000520268
1.7943e-05
7.08158e-06
5.60665e-06
4.58848e-06
4.29942e-07
5.46853e-08
6.92194e-13
4.92228e-11
2.38944e-11
2.70935e-12
1.60931e-13
4.46916e-15
2.97268e-15
7.43252e-15
5.94461e-14
3.95905e-13
8.09598e-13
4.42046e-13
2.95849e-06
4.74249e-06
7.12037e-06
2.63105e-06
3.39462e-09
1.35494e-11
6.6136e-13
9.24019e-13
4.87375e-15
5.31791e-15
3.15231e-15
8.82915e-16
3.39688e-16
8.55688e-16
4.60613e-15
3.16633e-14
1.24121e-13
5.13437e-13
3.24372e-13
3.74249e-07
3.49836e-07
4.455e-08
3.66851e-09
3.61947e-10
2.89039e-10
1.25545e-10
9.93273e-12
8.55991e-13
3.954e-14
6.42415e-16
7.79647e-17
1.95594e-17
2.36072e-16
1.85896e-15
2.20058e-14
2.88715e-14
3.06065e-13
2.56823e-13
1.65427e-08
2.1966e-09
2.48785e-12
2.3915e-12
2.26622e-12
1.38226e-12
6.73404e-13
2.55315e-13
6.4004e-14
3.9282e-15
3.2103e-16
9.4381e-18
6.47787e-19
8.62835e-17
1.27771e-15
1.21601e-14
1.76029e-14
1.63376e-13
2.00327e-13
2.33416e-10
1.12074e-10
4.79811e-11
1.6756e-11
5.21728e-12
1.07339e-12
3.15152e-13
8.77162e-14
1.06378e-14
2.96386e-16
3.60974e-19
5.47734e-20
1.83904e-19
7.26276e-18
5.23238e-16
9.26613e-15
1.25055e-14
6.62258e-14
1.41966e-13
1.45957e-10
9.52921e-11
5.01694e-11
1.41112e-11
5.25172e-12
1.33803e-12
3.27729e-13
2.86746e-14
4.85535e-16
5.43808e-20
1.68787e-20
2.92848e-20
6.74048e-20
3.57965e-19
1.02813e-16
6.49039e-15
6.39435e-15
1.52837e-14
9.12325e-14
5.48594e-10
1.97936e-10
8.03213e-11
1.76625e-11
1.91389e-12
1.87181e-13
2.85685e-15
3.99236e-21
5.64505e-21
6.70682e-21
1.01074e-20
2.51872e-20
6.51731e-20
1.55817e-19
5.8737e-18
2.53456e-15
2.6768e-15
2.1261e-15
5.45549e-14
5.15566e-10
5.53385e-11
5.55667e-12
1.25132e-13
2.25104e-15
2.80468e-17
1.15436e-21
2.02398e-21
2.68229e-21
3.54957e-21
7.75382e-21
2.36209e-20
7.09011e-20
1.9349e-19
6.15169e-19
3.46438e-16
1.42318e-15
4.86605e-16
3.32347e-14
1.93168e-11
1.64602e-12
5.12388e-15
5.06877e-16
6.21696e-17
3.66112e-19
5.33204e-22
9.1698e-22
1.33186e-21
2.57255e-21
7.4218e-21
2.13572e-20
6.85521e-20
1.97299e-19
5.38518e-19
1.10807e-17
7.48306e-16
3.70006e-16
2.13725e-14
1.15049e-14
1.73218e-15
3.42155e-16
2.55204e-17
4.80406e-18
1.43226e-20
2.22491e-22
3.78557e-22
6.88112e-22
1.60777e-21
4.83369e-21
1.69899e-20
4.89184e-20
1.4249e-19
5.08367e-19
1.76479e-18
4.53968e-16
2.58879e-16
1.37268e-14
1.97087e-16
1.42902e-16
2.68545e-17
2.3488e-18
4.03264e-19
7.24863e-22
8.92819e-23
1.58577e-22
3.05467e-22
8.30527e-22
2.88449e-21
9.81453e-21
3.17026e-20
9.85046e-20
2.72008e-19
2.15482e-18
1.66292e-16
1.68781e-16
7.9312e-15
1.65002e-17
1.20744e-17
2.25454e-18
2.79752e-19
2.90676e-20
6.36459e-23
3.44137e-23
5.89378e-23
1.2447e-22
3.64779e-22
1.32544e-21
4.68982e-21
1.47694e-20
4.17064e-20
1.50801e-19
1.67904e-18
5.29666e-17
1.19628e-16
3.54607e-15
1.79768e-18
9.27677e-19
2.14318e-19
3.06278e-20
1.87613e-21
1.45685e-23
1.21203e-23
1.81647e-23
4.53881e-23
1.31524e-22
4.834e-22
1.87575e-21
7.60918e-21
3.3487e-20
1.15503e-19
3.71406e-19
8.11032e-18
7.60875e-17
1.12388e-15
1.19527e-19
8.27672e-20
1.67224e-20
3.14922e-21
1.1605e-22
4.87244e-24
4.10903e-24
5.87821e-24
1.51601e-23
4.51992e-23
1.55739e-22
6.1477e-22
3.03677e-21
1.05454e-20
4.34489e-20
1.88546e-19
1.17881e-18
2.68426e-17
4.61295e-16
8.90408e-21
6.34813e-21
1.22326e-21
3.13468e-22
8.74733e-24
1.65045e-24
1.29274e-24
1.76142e-24
4.77848e-24
1.64923e-23
6.58737e-23
2.55325e-22
1.05984e-21
5.33787e-21
2.19725e-20
1.25995e-19
7.3412e-19
1.21741e-17
2.83126e-16
5.38276e-22
4.05461e-22
9.66911e-23
3.10505e-23
1.33544e-24
5.5075e-25
3.93196e-25
4.88164e-25
1.25698e-24
5.27434e-24
2.29734e-23
9.73029e-23
3.93247e-22
1.56093e-21
9.68309e-21
8.06869e-20
5.60391e-19
8.97182e-18
1.43573e-16
3.60104e-23
2.69896e-23
8.95454e-24
3.13176e-24
3.81561e-25
1.76571e-25
1.14029e-25
1.24317e-25
3.00539e-25
1.32836e-24
6.902e-24
3.33376e-23
1.45963e-22
5.49798e-22
1.82295e-21
1.44634e-20
2.64125e-19
4.5322e-18
3.24514e-17
3.49998e-24
2.50425e-24
1.13351e-24
4.4329e-25
1.23704e-25
5.45303e-26
3.02701e-26
3.13009e-26
6.09791e-26
2.88309e-25
1.68093e-24
9.11893e-24
4.25561e-23
1.86419e-22
7.30925e-22
2.59747e-21
5.04035e-20
5.16628e-19
1.51089e-18
5.00714e-25
3.79885e-25
2.08104e-25
9.1924e-26
3.6769e-26
1.58323e-26
7.90415e-27
7.48286e-27
1.32279e-26
5.39736e-26
3.46056e-25
2.14363e-24
1.1397e-23
4.44758e-23
2.37508e-22
1.19082e-21
6.89809e-21
5.31607e-20
1.79196e-19
8.98436e-26
7.67529e-26
4.69948e-26
2.27487e-26
1.04977e-26
4.49893e-27
1.96276e-27
1.58439e-27
2.77668e-27
7.78573e-27
5.77352e-26
3.87612e-25
2.109e-24
8.88862e-24
6.47869e-23
2.56167e-22
1.11206e-21
7.01883e-21
1.69129e-20
1.70232e-26
1.62152e-26
1.08362e-26
5.604e-27
2.75538e-27
1.19939e-27
4.75824e-28
3.38729e-28
6.0682e-28
1.06523e-27
6.43401e-27
5.35897e-26
3.8597e-25
2.12599e-24
1.1568e-23
5.54749e-23
2.79845e-22
1.17237e-21
3.86734e-21
2.89625e-27
3.11742e-27
2.31326e-27
1.28456e-27
6.30479e-28
2.78009e-28
1.02251e-28
6.06887e-29
1.05929e-28
1.73023e-28
6.38724e-28
6.56403e-27
5.03762e-26
3.66382e-25
2.20887e-24
1.14023e-23
5.53766e-23
2.28471e-22
4.6655e-22
4.57241e-28
5.39712e-28
4.47203e-28
2.68107e-28
1.43261e-28
6.01374e-29
2.27377e-29
1.15559e-29
1.95094e-29
3.24713e-29
6.37903e-29
6.48105e-28
5.65081e-27
4.46649e-26
2.87486e-25
1.5852e-24
7.63744e-24
2.66586e-23
4.88027e-23
6.29493e-29
8.38179e-29
7.81541e-29
4.82954e-29
2.82958e-29
1.22014e-29
4.24515e-30
1.9755e-30
3.13314e-30
5.36966e-30
8.56467e-30
4.47127e-29
5.06658e-28
4.21147e-27
2.91089e-26
1.70397e-25
8.4172e-25
2.68477e-24
3.34192e-24
7.54039e-30
1.1808e-29
1.24194e-29
8.49382e-30
5.02203e-30
2.29062e-30
7.65625e-31
3.13767e-31
4.59259e-31
8.00119e-31
1.21741e-30
2.6499e-30
3.63871e-29
3.25706e-28
2.4002e-27
1.46872e-26
7.29246e-26
1.77209e-25
1.74486e-25
7.52975e-31
1.45502e-30
1.69094e-30
1.32887e-30
8.12551e-31
3.99481e-31
1.3084e-31
4.69856e-32
6.27698e-32
1.0853e-31
1.63026e-31
2.44703e-31
2.11395e-30
2.15128e-29
1.67457e-28
1.05361e-27
5.19649e-27
9.88464e-27
9.70464e-27
7.16251e-32
1.68721e-31
2.23661e-31
1.89117e-31
1.2049e-31
6.43452e-32
2.10637e-32
6.72853e-33
8.0982e-33
1.3481e-32
2.02365e-32
2.66539e-32
1.00535e-31
1.24062e-30
1.02397e-29
6.53766e-29
3.12815e-28
5.75362e-28
5.94723e-28
6.00813e-33
1.75405e-32
2.60727e-32
2.46331e-32
1.65489e-32
9.40201e-33
3.16489e-33
9.17323e-34
9.98918e-34
1.54918e-33
2.32868e-33
2.92188e-33
5.60804e-33
5.96728e-32
5.60687e-31
3.63671e-30
1.63949e-29
3.17941e-29
3.69199e-29
4.54337e-34
1.66531e-33
2.7863e-33
2.94894e-33
2.11181e-33
1.25332e-33
4.35951e-34
1.1894e-34
1.18716e-34
1.66827e-34
2.48957e-34
3.03404e-34
4.26577e-34
2.4322e-33
2.71663e-32
1.857e-31
7.79908e-31
1.65668e-30
1.96172e-30
2.77768e-35
1.41187e-34
2.76972e-34
3.25923e-34
2.49252e-34
1.54242e-34
5.57502e-35
1.47266e-35
1.35752e-35
1.70579e-35
2.48509e-35
2.93408e-35
3.49721e-35
1.09855e-34
1.13044e-33
8.75502e-33
3.45944e-32
8.23788e-32
8.97045e-32
1.52734e-36
1.09354e-35
2.55809e-35
3.34061e-35
2.73076e-35
1.75482e-35
6.71024e-36
1.74279e-36
1.48841e-36
1.67254e-36
2.33269e-36
2.64592e-36
2.79228e-36
5.69608e-36
4.49786e-35
3.75074e-34
1.44485e-33
3.76106e-33
3.96783e-33
7.8108e-38
7.79616e-37
2.19987e-36
3.19034e-36
2.79105e-36
1.85103e-36
7.60583e-37
1.9678e-37
1.56122e-37
1.58298e-37
2.07491e-37
2.24423e-37
2.11743e-37
3.26654e-37
1.76109e-36
1.45831e-35
5.70729e-35
1.54304e-34
1.69708e-34
5.54854e-39
4.95854e-38
1.76836e-37
2.85378e-37
2.67641e-37
1.82133e-37
8.09528e-38
2.12435e-38
1.56516e-38
1.44966e-38
1.76426e-38
1.80975e-38
1.5215e-38
1.94847e-38
6.99275e-38
5.21402e-37
2.13803e-36
5.75832e-36
6.59444e-36
3.28746e-40
2.98065e-39
1.33524e-38
2.40504e-38
2.41658e-38
1.69493e-38
8.06611e-39
2.18441e-39
1.50564e-39
1.28368e-39
1.44196e-39
1.38078e-39
1.04265e-39
1.157e-39
2.83372e-39
1.78487e-38
7.6133e-38
2.00438e-37
2.31444e-37
1.72565e-41
1.71572e-40
9.48252e-40
1.92455e-39
2.07241e-39
1.50201e-39
7.51814e-40
2.13675e-40
1.3919e-40
1.10059e-40
1.1375e-40
1.01466e-40
6.88764e-41
6.71534e-41
1.19228e-40
6.00736e-40
2.59169e-39
6.67083e-39
7.57899e-39
8.39271e-43
1.00122e-41
6.34041e-41
1.47114e-40
1.69878e-40
1.27229e-40
6.63575e-41
1.9951e-41
1.2397e-41
9.14907e-42
8.68787e-42
7.32244e-42
4.44385e-42
3.79583e-42
5.31162e-42
2.03314e-41
8.4755e-41
2.15872e-40
2.37998e-40
3.7271e-44
5.44352e-43
4.05909e-42
1.08057e-41
1.33904e-41
1.0357e-41
5.59778e-42
1.78729e-42
1.06645e-42
7.38788e-43
6.4408e-43
5.18875e-43
2.83078e-43
2.09783e-43
2.45185e-43
7.00246e-43
2.67273e-42
6.84723e-42
7.22636e-42
)
;

boundaryField
{
    leftWall
    {
        type            zeroGradient;
    }
    rightWall
    {
        type            zeroGradient;
    }
    lowerWall
    {
        type            zeroGradient;
    }
    atmosphere
    {
        type            inletOutlet;
        inletValue      uniform 0;
        value           nonuniform List<scalar> 
46
(
0
0
0
0
0
0
0
0
0
0
0
0
0
0
0
0
0
0
0
0
0
0
0
9.09201e-49
2.3259e-47
3.71346e-46
4.22136e-45
3.7271e-44
5.44352e-43
4.05909e-42
1.08057e-41
1.33904e-41
1.0357e-41
5.59778e-42
1.78729e-42
1.06645e-42
7.38788e-43
6.4408e-43
5.18875e-43
2.83078e-43
2.09783e-43
2.45185e-43
7.00246e-43
2.67273e-42
6.84723e-42
7.22636e-42
)
;
    }
    defaultFaces
    {
        type            empty;
    }
}


// ************************************************************************* //
