/*--------------------------------*- C++ -*----------------------------------*\
| =========                 |                                                 |
| \\      /  F ield         | OpenFOAM: The Open Source CFD Toolbox           |
|  \\    /   O peration     | Version:  2312                                  |
|   \\  /    A nd           | Website:  www.openfoam.com                      |
|    \\/     M anipulation  |                                                 |
\*---------------------------------------------------------------------------*/
FoamFile
{
    version     2.0;
    format      ascii;
    arch        "LSB;label=32;scalar=64";
    class       volScalarField;
    location    "0.3";
    object      alpha.galistan;
}
// * * * * * * * * * * * * * * * * * * * * * * * * * * * * * * * * * * * * * //

dimensions      [0 0 0 0 0 0 0];

internalField   nonuniform List<scalar> 
2268
(
1
1
1
1
1
1
1
1
1
1
1
1
1
1
1
1
1
1
1
1
1
1
0.998944
1
1
1
1
1
1
1
1
1
1
1
1
1
1
1
1
1
1
1
1
1
1
0.998912
1
1
1
1
1
1
1
1
1
1
1
1
1
1
1
1
1
1
0.999998
0.999994
0.999997
1
0.998912
1
1
1
1
1
1
1
1
1
1
1
1
1
1
1
1
1
0.999992
0.999981
0.999991
0.999989
1
0.999727
1
1
1
1
1
1
1
1
1
1
1
1
1
1
1
1
1
0.999999
0.999999
0.999999
0.999762
0.999775
0.999997
1
1
1
1
1
1
1
1
1
1
1
1
0.999832
0.970217
0.898111
0.791937
0.683545
0.634982
0.764147
0.998303
0.999911
0.999951
0.999997
1
1
1
1
1
1
1
1
0.99427
0.970101
0.908908
0.788449
0.581835
0.348192
0.16939
0.0268784
4.8356e-12
0.00960248
0.0670757
0.483821
0.972583
0.998644
0.999939
0.973558
0.971308
0.962828
0.946273
0.918596
0.875505
0.811924
0.721806
0.603282
0.460691
0.274437
0.101625
1.0391e-09
6.36405e-11
8.17407e-12
4.83754e-12
4.83668e-12
1.03077e-20
2.29112e-06
2.492e-05
0.800721
0.999966
0.999982
1.44046e-10
2.38119e-10
3.28676e-10
3.46684e-10
3.05933e-10
2.20569e-10
1.75088e-10
1.05891e-10
6.99795e-11
4.85556e-11
3.64535e-11
1.99023e-11
1.15927e-11
8.15e-12
5.85675e-12
3.00985e-12
1.13725e-12
3.5144e-13
1.37066e-13
1.53985e-10
7.25484e-10
1.43202e-09
1.96183e-09
1.13604e-09
8.22125e-10
5.98619e-10
3.60724e-10
3.11306e-10
1.8885e-10
1.28528e-10
8.54593e-11
5.49724e-11
3.75436e-11
1.92144e-11
8.86068e-12
2.82432e-12
6.64378e-13
1.8491e-13
1.51151e-10
1.91567e-09
2.86652e-09
2.29499e-08
8.85337e-09
1.21129e-09
6.36596e-10
4.74777e-10
8.66089e-10
5.95133e-10
2.82486e-10
1.76428e-10
1.24664e-10
8.44134e-11
3.86312e-11
2.5303e-11
9.41746e-12
1.87966e-12
2.3448e-13
6.70049e-09
4.56445e-08
1.55736e-07
4.43741e-07
1.44146e-07
3.17715e-10
3.27338e-10
4.13229e-10
4.41667e-09
3.57663e-09
1.03323e-09
3.38204e-10
1.88903e-10
1.16807e-10
6.86107e-11
3.48497e-11
1.46877e-11
3.8559e-12
5.30377e-13
2.49439e-09
1.19997e-07
5.90011e-07
5.92666e-07
1.77927e-07
3.6755e-08
3.15106e-10
3.20893e-10
1.58955e-08
1.42624e-08
3.06316e-09
5.33848e-10
2.56411e-10
1.2627e-10
9.80451e-11
5.81905e-11
2.35546e-11
6.68401e-12
1.12752e-12
5.15445e-10
1.27494e-07
2.31672e-07
6.93752e-10
1.05622e-09
7.72826e-08
7.62854e-09
2.33532e-08
3.32271e-07
5.88445e-08
8.13392e-09
7.99039e-10
1.6786e-10
1.34625e-10
9.72933e-11
6.86365e-11
3.31995e-11
1.00815e-11
2.73162e-12
4.50445e-10
1.99699e-07
1.9423e-06
2.27654e-05
4.8986e-10
1.76871e-08
6.31348e-08
4.91341e-08
8.41935e-07
4.16263e-08
6.70086e-09
9.68344e-10
2.29138e-10
1.29418e-10
8.33787e-11
6.68022e-11
3.9612e-11
1.48697e-11
3.85611e-12
2.08373e-09
1.65242e-07
2.1235e-05
0.000167639
7.68701e-09
1.563e-09
6.3435e-05
9.12484e-05
3.05252e-06
6.35772e-09
9.71512e-10
1.49698e-10
7.04048e-11
5.96575e-11
6.49241e-11
6.04788e-11
4.38822e-11
1.92472e-11
5.97004e-12
0.415402
0.409082
0.386839
0.351151
0.30489
0.25076
0.191936
0.132208
0.0760191
0.0234372
1.1445e-09
5.01558e-11
7.32073e-11
2.21759e-11
1.55418e-11
2.57342e-11
2.22026e-11
6.79849e-22
3.4501e-08
4.1876e-08
0.0984717
0.832438
0.999334
-5.00484e-22
-9.52133e-23
-1.87554e-23
-1.58969e-23
-4.69675e-23
-4.69446e-24
-3.63547e-25
-5.93776e-26
8.99053e-34
-8.867e-33
1.41932e-32
6.65369e-25
3.55353e-17
4.49402e-14
2.04057e-13
5.95585e-13
1.03231e-12
-1.04727e-12
-6.08166e-26
3.81394e-07
4.03094e-07
0.148037
0.805798
-1.83331e-20
-3.50958e-21
-6.94618e-22
-1.41021e-22
-2.91453e-23
-6.14109e-24
-1.31601e-24
-4.07476e-25
1.49905e-15
1.10379e-14
4.06877e-14
9.11794e-14
1.65135e-13
2.22652e-13
3.39167e-13
4.81413e-13
7.25538e-13
4.3426e-13
-6.98935e-31
1.35502e-06
1.05886e-06
1.09868e-06
0.207054
-6.89908e-81
-4.11143e-26
-2.82287e-26
-1.77894e-26
-1.11543e-26
-6.74449e-27
-3.90721e-27
-9.93372e-26
1.49726e-15
9.64805e-15
2.3523e-14
2.84842e-14
2.59575e-14
1.93478e-14
1.84141e-14
1.98202e-14
2.71992e-14
4.09825e-14
-1.66596e-17
3.04925e-06
1.03444e-05
1.60058e-06
7.65386e-08
5.37756e-63
-2.80339e-82
-2.9569e-79
-2.82671e-77
3.5843e-57
5.83978e-56
8.94774e-55
2.4425e-53
5.32801e-57
1.7434e-56
5.32801e-57
1.7434e-56
5.32801e-57
1.20201e-45
3.95865e-48
4.17456e-48
-1.79214e-34
6.54668e-18
2.58111e-35
2.64151e-06
2.72484e-05
1.65855e-05
1.64169e-08
5.55562e-62
2.11379e-61
1.4574e-60
9.34735e-59
2.80193e-56
9.71616e-55
1.25901e-53
5.35107e-52
5.14867e-51
6.30341e-50
9.77997e-50
6.01726e-49
1.98252e-46
1.52273e-43
1.91629e-43
1.25681e-42
2.9289e-45
-4.0844e-26
-2.11303e-20
5.63375e-07
2.9331e-08
8.11096e-05
0.000232692
4.65504e-61
1.15666e-60
7.01205e-60
5.06437e-58
2.30688e-55
2.40058e-53
2.20996e-52
1.49472e-50
9.45637e-50
1.14099e-48
1.64274e-48
1.4598e-47
2.5327e-43
1.01284e-40
1.20134e-40
2.33083e-40
9.14078e-41
-1.78397e-25
5.58126e-13
5.67133e-13
5.76289e-13
3.81328e-05
0.000322455
1.36194e-59
4.79284e-59
1.12146e-57
8.94609e-56
3.33471e-53
4.7978e-52
2.88598e-51
3.6395e-49
2.8196e-47
4.24283e-46
2.61409e-46
5.40399e-45
4.23148e-41
5.02047e-39
4.4566e-39
3.29363e-39
6.06595e-40
-3.65546e-26
7.58371e-13
6.62944e-12
5.85595e-13
7.62382e-07
5.42769e-05
3.62701e-57
6.17067e-56
1.60401e-54
7.53106e-53
7.12345e-51
1.0067e-49
2.49653e-48
4.30599e-46
1.68592e-44
2.06413e-43
7.03739e-43
5.04867e-42
7.61139e-40
3.42235e-38
7.38959e-38
4.93997e-38
6.89435e-38
6.77899e-52
5.94389e-14
2.67914e-12
2.29175e-11
1.56732e-12
1.94479e-12
1.14761e-55
7.46055e-54
1.96198e-52
7.37532e-51
1.98967e-49
3.13411e-48
4.8742e-46
2.92134e-44
3.3186e-43
3.0231e-42
2.56149e-41
1.55807e-40
6.91954e-39
4.32191e-37
5.06201e-36
1.82419e-35
3.62964e-35
1.42232e-34
1.26053e-34
2.10561e-15
1.59789e-12
1.95727e-12
2.719e-11
5.36294e-55
7.03178e-53
1.89172e-51
6.6992e-50
1.05656e-48
2.28961e-47
6.03893e-45
1.63303e-43
1.91844e-42
3.86345e-41
5.45873e-40
4.23015e-39
1.47267e-38
1.00715e-36
5.46094e-35
5.72185e-34
1.25027e-33
9.08766e-33
2.60232e-32
3.67042e-39
3.35137e-39
3.26878e-39
1.62124e-13
6.54805e-54
4.03398e-52
1.3371e-50
3.75518e-49
5.72508e-48
7.86098e-47
3.77444e-46
7.10274e-44
2.03801e-41
2.68005e-40
2.57584e-39
6.34376e-38
3.17426e-37
4.8407e-37
1.17157e-34
2.65224e-33
5.94819e-33
4.67229e-32
2.71167e-31
1.93996e-31
3.4142e-32
4.05853e-33
3.57809e-36
2.92035e-53
1.64281e-51
5.28631e-50
1.47279e-48
2.26403e-47
3.07885e-46
2.07983e-45
4.97238e-44
3.12452e-42
2.09876e-40
5.75144e-39
3.25223e-37
1.40128e-36
1.80672e-36
1.06742e-33
4.7439e-32
1.08575e-31
6.6342e-31
2.95689e-30
1.27056e-30
3.0444e-31
7.90255e-32
1.55318e-32
7.00726e-53
4.29345e-51
1.47651e-49
3.72808e-48
6.14214e-47
9.25741e-46
1.00195e-44
6.24225e-44
5.70566e-43
1.25183e-40
6.10219e-38
2.19998e-36
3.2338e-35
1.04584e-34
7.7885e-33
1.81951e-31
3.78672e-31
2.11569e-30
1.70939e-29
5.03331e-30
1.33978e-30
6.4795e-30
4.66492e-30
1.4792e-51
1.05883e-49
3.41752e-48
9.4029e-47
8.95115e-46
1.28636e-44
3.32767e-43
6.0517e-42
1.33327e-41
4.09064e-39
5.76678e-37
1.45831e-35
6.38027e-34
6.78129e-33
1.03828e-31
6.16561e-31
1.6737e-30
7.30947e-30
7.53503e-29
2.31178e-29
5.27441e-29
1.73369e-27
4.865e-28
2.13292e-50
1.6391e-48
6.06088e-47
2.10433e-45
2.96646e-44
3.85126e-43
1.02513e-41
3.90396e-41
1.32417e-40
7.6703e-38
3.37045e-36
1.44636e-34
4.11425e-33
6.63466e-32
5.11018e-31
3.55053e-30
2.63729e-29
1.23963e-28
3.89333e-28
7.59243e-28
4.06965e-27
3.18484e-26
6.35437e-26
8.70519e-50
7.68472e-48
3.40456e-46
1.42022e-44
2.76676e-43
4.53095e-42
6.10676e-41
9.66856e-40
1.76271e-38
4.40567e-37
5.9633e-35
1.12223e-33
1.86951e-32
1.68576e-31
1.20492e-30
2.15203e-29
2.08901e-28
1.17278e-27
4.16121e-27
1.29512e-26
6.05503e-26
3.0062e-25
1.16238e-24
1.37499e-49
1.4616e-47
7.7905e-46
3.78924e-44
1.12295e-42
2.82645e-41
6.59783e-40
1.49221e-38
3.3937e-37
8.39128e-36
2.16316e-34
4.15898e-33
5.09002e-32
4.01595e-31
3.24461e-30
4.92239e-29
6.53612e-28
4.58226e-27
1.76674e-26
5.52207e-26
2.35423e-25
8.67713e-25
2.17646e-24
1.23897e-49
1.71472e-47
1.10856e-45
5.1869e-44
1.99882e-42
6.73919e-41
2.01832e-39
5.5085e-38
1.3866e-36
3.16149e-35
6.02291e-34
9.44882e-33
1.02902e-31
7.44251e-31
4.94739e-30
6.17044e-29
9.63666e-28
6.85478e-27
2.86359e-26
9.2233e-26
3.19405e-25
7.45457e-25
1.59961e-24
9.24124e-50
1.20395e-47
8.64445e-46
4.64025e-44
2.06928e-42
7.93572e-41
2.66232e-39
7.8948e-38
2.06599e-36
4.67152e-35
8.72579e-34
1.27447e-32
1.38091e-31
1.02251e-30
4.71379e-30
4.66884e-29
4.14135e-28
3.28787e-27
1.50913e-26
5.91531e-26
1.55449e-25
3.01859e-25
8.92614e-25
3.73296e-50
5.194e-48
3.84537e-46
2.15716e-44
1.01687e-42
4.10656e-41
1.4369e-39
4.3185e-38
1.12114e-36
2.49765e-35
4.68975e-34
7.23253e-33
8.8182e-32
7.96564e-31
4.90341e-30
2.13983e-29
1.09744e-28
5.82628e-28
2.60392e-27
9.62509e-27
4.67007e-26
1.65842e-25
3.69206e-25
1.09118e-50
1.73608e-48
1.50719e-46
9.52638e-45
4.68236e-43
1.85161e-41
7.36286e-40
2.12302e-38
5.11808e-37
1.02538e-35
1.69056e-34
2.26598e-33
2.43596e-32
2.04363e-31
1.28043e-30
5.75522e-30
1.88168e-29
1.79318e-28
1.33187e-27
5.8199e-27
1.59723e-26
4.06172e-26
1.15743e-25
1.73747e-51
3.253e-49
3.11262e-47
2.02679e-45
9.96518e-44
3.82079e-42
1.11623e-40
2.46154e-39
6.01585e-38
9.84096e-37
1.3494e-35
1.56768e-34
1.54535e-33
1.19304e-32
7.59888e-32
4.13474e-31
2.23607e-30
1.27153e-29
6.48798e-29
2.57195e-28
2.4202e-27
1.13103e-26
2.85619e-26
6.19049e-52
1.31631e-49
1.38068e-47
9.53658e-46
4.85749e-44
1.9036e-42
5.65579e-41
1.28002e-39
3.14298e-38
5.58421e-37
8.38778e-36
9.7455e-35
9.35473e-34
7.42388e-33
4.79238e-32
2.50299e-31
1.13469e-30
4.70659e-30
1.71595e-29
5.93771e-29
1.99034e-28
1.66456e-27
5.26977e-27
1.10955e-52
2.41206e-50
2.55922e-48
1.75642e-46
8.69186e-45
3.26448e-43
9.57472e-42
2.24445e-40
4.41602e-39
8.69011e-38
1.2001e-36
1.41653e-35
1.38478e-34
1.05103e-33
8.37487e-33
4.6799e-32
2.3856e-31
9.5147e-31
3.62937e-30
1.22772e-29
3.79656e-29
1.26541e-28
7.29235e-28
2.95229e-54
6.73702e-52
7.48597e-50
5.36992e-48
2.77923e-46
1.10144e-44
3.48147e-43
9.00982e-42
1.91015e-40
3.27094e-39
4.56447e-38
5.48096e-37
5.45763e-36
4.4951e-35
3.82984e-34
2.45802e-33
1.52373e-32
7.76058e-32
3.60825e-31
1.39475e-30
4.60134e-30
1.2087e-29
6.47679e-29
6.22744e-56
1.39351e-53
1.51843e-51
1.06979e-49
5.47165e-48
2.17244e-46
6.97581e-45
1.83179e-43
3.93635e-42
7.08844e-41
1.07841e-39
1.39488e-38
1.52805e-37
1.37538e-36
1.04122e-35
1.0275e-34
6.58563e-34
3.77879e-33
1.85709e-32
8.47897e-32
3.3263e-31
1.31772e-30
4.19713e-30
8.14378e-58
1.95414e-55
2.27462e-53
1.70947e-51
9.3007e-50
3.88594e-48
1.29061e-46
3.48475e-45
7.77348e-44
1.4499e-42
2.28124e-41
3.0433e-40
3.43525e-39
3.25956e-38
2.66156e-37
2.00568e-36
1.6021e-35
1.0259e-34
5.96645e-34
3.03598e-33
1.4091e-32
5.7264e-32
2.55403e-31
4.20867e-60
1.09464e-57
1.38164e-55
1.12673e-53
6.66536e-52
3.04121e-50
1.11039e-48
3.32102e-47
8.26142e-46
1.72678e-44
3.05579e-43
4.61304e-42
5.99819e-41
6.80298e-40
6.81198e-39
5.98008e-38
4.5407e-37
3.94372e-36
2.53999e-35
1.5356e-34
7.14717e-34
3.87415e-33
1.58401e-32
1.59516e-62
4.49718e-60
6.16103e-58
5.45838e-56
3.51216e-54
1.74692e-52
6.9789e-51
2.29679e-49
6.33807e-48
1.48577e-46
2.98866e-45
5.20049e-44
7.87942e-43
1.0452e-41
1.22082e-40
1.26577e-39
1.17644e-38
9.97216e-38
8.08898e-37
5.60069e-36
3.37181e-35
1.75339e-34
9.71202e-34
5.25586e-65
1.53237e-62
2.20079e-60
2.06937e-58
1.42882e-56
7.69964e-55
3.36051e-53
1.21748e-51
3.72642e-50
9.76914e-49
2.21849e-47
4.40342e-46
7.68758e-45
1.18575e-43
1.62249e-42
1.97072e-41
2.10803e-40
1.98094e-39
1.66628e-38
1.2387e-37
8.12245e-37
5.71359e-36
3.40567e-35
1.50481e-67
4.27771e-65
6.12501e-63
5.86575e-61
4.20442e-59
2.39137e-57
1.11756e-55
4.38898e-54
1.47096e-52
4.25274e-51
1.06886e-49
2.34872e-48
4.53645e-47
7.76148e-46
1.19002e-44
1.64933e-43
2.05716e-42
2.29583e-41
2.31812e-40
2.11071e-39
1.71907e-38
1.23024e-37
7.49085e-37
1.20583e-69
3.58383e-67
5.22188e-65
4.97129e-63
3.47491e-61
1.89934e-59
8.44719e-58
3.14529e-56
1.0027e-54
2.78906e-53
6.87921e-52
1.52467e-50
3.06304e-49
5.59902e-48
9.30918e-47
1.40536e-45
1.92684e-44
2.40784e-43
2.7467e-42
2.82269e-41
2.53058e-40
1.95669e-39
1.35849e-38
8.33867e-72
3.05438e-69
5.3713e-67
6.11063e-65
5.04792e-63
3.22663e-61
1.65997e-59
6.98445e-58
2.45204e-56
7.28588e-55
1.85678e-53
4.05999e-52
7.71091e-51
1.2848e-49
1.90232e-48
2.54676e-47
3.15296e-46
3.69702e-45
4.16514e-44
4.47484e-43
4.44158e-42
3.87916e-41
2.79682e-40
1.57544e-74
6.86491e-72
1.43807e-69
1.94589e-67
1.91542e-65
1.46348e-63
9.05167e-62
4.67741e-60
2.05034e-58
7.71525e-57
2.53266e-55
7.33265e-54
1.89033e-52
4.37376e-51
9.13466e-50
1.72701e-48
2.95647e-47
4.57583e-46
6.37257e-45
7.86085e-44
8.31079e-43
7.39593e-42
5.84411e-41
1.25333e-77
6.78627e-75
1.72077e-72
2.81167e-70
3.34882e-68
3.105e-66
2.33457e-64
1.46369e-62
7.80973e-61
3.60191e-59
1.45378e-57
5.18733e-56
1.65038e-54
4.7162e-53
1.21793e-51
2.85588e-50
6.09827e-49
1.18621e-47
2.09595e-46
3.34539e-45
4.79563e-44
6.16451e-43
7.15305e-42
4.65687e-81
3.20282e-78
1.00012e-75
1.98876e-73
2.86816e-71
3.21244e-69
2.91498e-67
2.2054e-65
1.42058e-63
7.91524e-62
3.86226e-60
1.66629e-58
6.40217e-57
2.20287e-55
6.82842e-54
1.92702e-52
5.03668e-51
1.23386e-49
2.78014e-48
5.47259e-47
9.1655e-46
1.46244e-44
2.4781e-43
7.46535e-85
6.94825e-82
2.73785e-79
6.7704e-77
1.21075e-74
1.68386e-72
1.90372e-70
1.80196e-68
1.458e-66
1.02391e-64
6.31393e-63
3.45034e-61
1.68404e-59
7.39758e-58
2.95012e-56
1.07833e-54
3.63482e-53
1.1256e-51
3.16244e-50
7.97788e-49
1.79712e-47
3.58781e-46
6.36126e-45
3.37243e-89
4.63005e-86
2.42434e-83
7.78026e-81
1.7941e-78
3.21414e-76
4.68678e-74
5.73549e-72
6.01797e-70
5.49943e-68
4.42935e-66
3.17375e-64
2.03828e-62
1.18041e-60
6.1939e-59
2.95548e-57
1.28422e-55
5.06889e-54
1.81007e-52
5.85298e-51
1.72128e-49
4.79907e-48
1.31721e-46
3.3971e-94
8.12504e-91
6.13383e-88
2.73697e-85
8.66859e-83
2.12104e-80
4.21183e-78
7.0086e-76
9.99488e-74
1.24187e-71
1.36134e-69
1.3296e-67
1.16651e-65
9.26171e-64
6.70375e-62
4.45558e-60
2.73606e-58
1.55754e-56
8.20772e-55
3.97275e-53
1.74067e-51
6.7705e-50
2.29398e-48
1.39628e-100
8.22003e-97
1.03849e-93
7.38024e-91
3.66343e-88
1.39481e-85
4.28718e-83
1.09832e-80
2.39716e-78
4.53068e-76
7.51505e-74
1.10729e-71
1.46657e-69
1.76686e-67
1.95731e-65
2.00886e-63
1.91235e-61
1.67466e-59
1.32538e-57
9.35214e-56
6.11044e-54
4.08858e-52
2.54969e-50
1.88692e-110
1.44155e-105
4.09809e-102
6.08005e-99
6.21622e-96
4.85172e-93
3.05259e-90
1.60098e-87
7.16187e-85
2.77972e-82
9.48788e-80
2.87983e-77
7.84588e-75
1.93351e-72
4.33694e-70
8.89987e-68
1.67903e-65
2.92874e-63
4.75705e-61
7.24331e-59
1.03108e-56
1.31878e-54
1.29577e-52
0.999293
0.460684
4.02916e-17
4.04144e-17
0.990756
0.936471
0.62772
0.213946
0.63496
0.936574
0.935398
0.828186
0.0355172
0.202526
0.580069
0.738651
-1.70789e-06
-3.39219e-06
0.0505932
0.11076
0.000209842
0.000274127
0.00129133
2.53814e-07
0.00036467
0.000369859
0.000247646
1.30318e-05
0.000118033
0.000149023
0.000102562
1.92083e-05
1.44464e-12
3.50118e-10
1.06077e-06
3.22851e-06
4.3964e-11
1.16454e-10
1.55668e-08
4.63428e-08
6.44404e-13
1.10087e-12
7.60308e-12
2.18103e-16
3.57867e-36
3.57809e-36
3.5787e-36
3.57847e-36
2.96601e-32
5.43114e-32
2.07091e-30
5.25082e-29
1.72158e-29
3.00382e-29
6.6925e-28
1.81015e-26
1.24883e-27
1.64948e-26
1.61653e-25
1.18189e-24
2.33745e-25
1.90066e-24
5.47986e-24
1.05658e-23
3.18165e-24
5.22563e-24
7.12802e-24
1.12163e-23
3.33544e-24
4.85599e-24
6.253e-24
8.20417e-24
2.54725e-24
3.16219e-24
3.8654e-24
4.61189e-24
1.3369e-24
1.58484e-24
1.84148e-24
2.08507e-24
5.42486e-25
6.39348e-25
7.37737e-25
8.27647e-25
1.70459e-25
2.03709e-25
2.36548e-25
2.65248e-25
4.49191e-26
5.50063e-26
6.5224e-26
7.47221e-26
9.3023e-27
1.22183e-26
1.51484e-26
1.80458e-26
1.50392e-27
2.15716e-27
2.88494e-27
3.65324e-27
1.9202e-28
3.15442e-28
4.67168e-28
6.4488e-28
1.86256e-29
3.59604e-29
5.91437e-29
9.04045e-29
1.16274e-30
3.31658e-30
6.40452e-30
1.14172e-29
4.72246e-32
2.06023e-31
5.21546e-31
1.11097e-30
3.702e-33
7.68564e-33
2.97015e-32
8.89707e-32
1.64883e-34
4.53828e-34
1.20693e-33
4.98518e-33
3.68819e-36
8.49759e-36
1.73043e-35
8.52631e-35
6.61348e-38
1.31612e-37
1.44141e-37
4.69406e-39
1.51527e-39
3.28443e-39
4.6965e-39
4.69422e-39
3.28426e-40
1.69402e-39
1.49889e-38
1.34895e-37
7.59176e-41
3.96693e-40
1.99385e-39
9.53676e-39
2.90214e-42
1.97112e-41
1.03547e-40
4.74888e-40
1.0046e-43
7.2137e-43
4.86886e-42
3.05537e-41
2.55669e-45
2.80637e-44
2.3412e-43
1.76176e-42
6.73131e-47
8.76303e-46
9.45785e-45
8.45677e-44
9.71488e-49
2.20414e-47
3.10041e-46
3.44007e-45
1.36337e-50
4.15755e-49
8.19879e-48
1.18054e-46
2.00459e-09
2.53585e-07
-8.99932e-23
0.000154275
0.00178557
0.00535448
0.00502517
0.000282583
2.55595e-08
1.9761e-09
5.70658e-12
2.08835e-11
1.89345e-11
2.42504e-11
3.39168e-11
4.40147e-11
3.86776e-11
2.49776e-11
8.16399e-12
1.73828e-19
-5.04373e-23
-1.01279e-11
1.03693e-06
0.0124844
0.0537699
0.015696
2.33123e-08
1.10487e-06
2.42003e-07
3.72297e-12
6.80864e-12
4.32467e-12
4.24454e-12
8.78191e-12
2.3155e-11
2.9095e-11
2.28839e-11
8.44348e-12
0.445986
0.146873
0.00777594
0.0594644
0.267613
0.214656
0.0137861
1.79396e-08
2.42737e-06
7.28028e-07
3.59479e-12
4.08356e-12
3.25609e-12
2.00789e-12
2.54854e-12
9.54875e-12
2.02142e-11
1.91569e-11
8.31669e-12
0.72998
0.605303
0.420511
0.433114
0.433107
0.213657
0.000858816
2.2057e-05
2.26162e-07
3.71071e-12
3.63972e-12
1.87475e-12
1.15807e-12
8.79648e-13
6.19895e-13
3.54536e-12
1.31382e-11
1.63856e-11
7.82939e-12
0.170318
0.308235
0.34611
0.253134
0.0353574
2.76795e-11
3.0215e-11
5.92588e-12
5.57257e-12
5.24873e-12
8.43788e-13
1.96592e-13
9.427e-14
1.33459e-13
2.13308e-13
7.70746e-13
7.37944e-12
1.26299e-11
6.95201e-12
1.07416e-07
0.00496346
1.73718e-07
3.45762e-14
-6.4207e-14
8.46431e-11
1.28954e-10
8.41895e-11
2.3364e-11
1.43132e-12
1.82907e-13
2.84287e-14
4.36141e-15
3.01925e-14
4.93967e-14
3.93625e-13
3.32787e-12
8.68449e-12
5.70064e-12
1.32415e-09
4.6226e-10
3.91572e-10
3.91178e-10
3.68911e-10
3.50117e-10
2.33375e-10
7.04265e-11
5.43807e-12
6.93306e-13
8.04223e-14
6.28568e-15
9.66862e-16
6.17863e-15
2.53806e-14
2.0429e-13
9.80004e-13
5.57932e-12
4.3153e-12
1.44588e-09
1.422e-09
7.60066e-10
5.06508e-10
4.07366e-10
2.22953e-10
5.39623e-11
3.39708e-12
4.07093e-13
3.23736e-14
1.26928e-15
1.37077e-16
4.29733e-17
8.88228e-16
7.56867e-15
1.3857e-13
2.0807e-13
3.44378e-12
3.57247e-12
1.93244e-06
3.0019e-08
8.741e-11
1.08068e-10
6.09838e-11
8.2341e-12
1.71047e-13
1.82139e-14
1.57544e-15
4.99541e-17
5.1731e-18
6.84925e-18
1.55476e-17
2.46153e-16
4.55041e-15
7.21949e-14
1.26674e-13
2.02249e-12
2.95263e-12
2.67692e-08
7.55682e-09
1.11392e-10
6.44952e-26
6.13564e-26
6.56669e-26
5.65159e-23
1.92263e-21
4.11189e-20
6.39479e-19
3.27182e-18
1.12223e-17
2.47009e-17
5.21965e-17
1.56987e-15
5.38969e-14
9.15237e-14
1.02351e-12
2.28618e-12
1.10594e-23
7.0994e-44
1.21918e-32
1.77662e-24
3.39269e-23
2.53735e-22
1.02548e-21
6.93653e-21
1.8174e-19
1.28872e-18
4.96152e-18
1.52248e-17
3.42204e-17
5.62158e-17
3.09688e-16
3.68378e-14
4.83772e-14
3.48878e-13
1.66358e-12
2.4581e-29
1.03162e-25
2.84054e-24
4.4715e-23
2.0262e-22
7.09669e-22
1.55512e-21
1.65355e-20
3.8575e-19
1.71813e-18
5.90931e-18
1.9754e-17
4.44099e-17
7.42395e-17
1.21344e-16
1.29394e-14
1.96122e-14
6.31419e-14
1.16529e-12
8.50795e-26
4.46336e-24
3.72238e-23
2.07314e-22
4.22932e-22
5.91791e-22
1.29231e-21
2.70753e-20
4.45247e-19
1.67284e-18
6.61968e-18
2.13097e-17
5.0691e-17
9.1382e-17
1.33976e-16
1.48441e-15
1.06001e-14
1.11797e-14
8.34107e-13
2.12606e-24
3.22743e-23
1.10051e-22
2.05548e-22
2.75392e-22
3.85018e-22
1.35603e-21
6.53779e-20
4.68703e-19
1.99057e-18
7.42553e-18
2.1431e-17
5.57754e-17
1.08383e-16
1.578e-16
2.70612e-16
5.86194e-15
8.81136e-15
6.21569e-13
1.75141e-23
5.24358e-23
9.88141e-23
1.38432e-22
1.70822e-22
2.40141e-22
6.10586e-22
3.23484e-20
3.5873e-19
1.49808e-18
5.36811e-18
1.89547e-17
4.90784e-17
1.06019e-16
1.91271e-16
2.76346e-16
3.73974e-15
6.90526e-15
4.67231e-13
2.31622e-23
4.39621e-23
6.58937e-23
8.21459e-23
9.91767e-23
1.35458e-22
4.52023e-22
2.49811e-20
1.86037e-19
8.3601e-19
3.38248e-18
1.20014e-17
3.7487e-17
9.7825e-17
1.82692e-16
3.54305e-16
1.64377e-15
5.38044e-15
3.35272e-13
1.84483e-23
2.87202e-23
3.70875e-23
4.40006e-23
5.23406e-23
6.89263e-23
1.82408e-22
9.421e-21
8.02936e-20
3.75503e-19
1.59035e-18
6.09937e-18
2.0651e-17
6.05845e-17
1.80465e-16
3.76465e-16
9.60753e-16
4.45581e-15
2.11131e-13
1.14312e-23
1.5506e-23
1.91231e-23
2.17768e-23
2.51871e-23
3.18225e-23
5.91847e-23
9.72154e-22
2.81991e-20
1.31227e-19
5.60353e-19
2.35143e-18
1.01994e-17
4.69608e-17
1.54663e-16
3.16794e-16
8.32208e-16
3.41512e-15
1.08267e-13
5.78508e-24
7.43187e-24
8.65411e-24
9.76055e-24
1.09744e-23
1.34834e-23
2.33277e-23
2.38376e-22
8.68147e-21
4.34124e-20
1.71115e-19
7.20268e-19
3.81715e-18
1.43425e-17
6.60417e-17
2.67098e-16
8.12679e-16
2.68164e-15
5.90601e-14
2.52746e-24
3.10558e-24
3.54643e-24
3.90089e-24
4.28241e-24
5.13249e-24
8.47974e-24
5.50494e-23
2.56497e-21
1.58001e-20
7.17053e-20
2.89089e-19
1.2795e-18
6.94521e-18
2.9691e-17
1.6537e-16
6.94924e-16
2.62844e-15
3.89596e-14
9.58589e-25
1.1507e-24
1.30811e-24
1.43081e-24
1.54409e-24
1.81708e-24
2.91601e-24
1.05138e-23
5.72867e-22
4.97295e-21
2.48614e-20
1.08278e-19
4.49495e-19
1.85767e-18
1.14174e-17
8.14562e-17
4.42587e-16
2.53869e-15
2.17014e-14
3.10594e-25
3.78777e-25
4.28775e-25
4.69548e-25
5.17332e-25
5.96298e-25
9.2065e-25
2.38722e-24
9.74937e-23
1.21642e-21
7.41837e-21
3.67696e-20
1.61186e-19
6.10423e-19
2.08866e-18
1.54532e-17
1.86413e-16
1.53185e-15
6.07915e-15
8.96005e-26
1.11844e-25
1.29508e-25
1.44913e-25
1.60179e-25
1.81079e-25
2.62654e-25
6.20789e-25
7.8238e-24
2.42742e-22
1.78735e-21
1.0037e-20
4.66731e-20
2.02566e-19
7.96911e-19
2.93094e-18
3.95505e-17
2.39307e-16
4.51277e-16
2.28811e-26
2.98912e-26
3.57013e-26
4.02367e-26
4.38182e-26
4.97566e-26
7.24549e-26
1.63093e-25
6.32105e-25
3.86314e-23
3.61182e-22
2.35723e-21
1.25231e-20
4.84485e-20
2.52846e-19
1.21884e-18
6.43887e-18
3.55168e-17
8.42332e-17
5.04917e-27
7.20158e-27
8.97267e-27
1.04061e-26
1.15848e-26
1.3122e-26
1.79739e-26
3.78229e-26
1.00484e-25
3.66842e-24
5.79459e-23
4.25041e-22
2.32606e-21
9.74682e-21
6.92541e-20
2.65658e-19
1.11115e-18
5.86183e-18
1.1795e-17
9.98121e-28
1.56213e-27
2.05942e-27
2.46755e-27
2.82768e-27
3.21842e-27
4.21925e-27
8.76721e-27
2.24251e-26
1.3678e-25
5.84424e-24
5.83265e-23
4.26571e-22
2.33052e-21
1.24535e-20
5.83527e-20
2.86413e-19
1.08145e-18
2.91907e-18
1.64921e-28
3.00659e-28
4.30565e-28
5.35952e-28
6.022e-28
6.83621e-28
8.57961e-28
1.67642e-27
4.29574e-27
1.15562e-26
4.2522e-25
7.00372e-24
5.57665e-23
4.03114e-22
2.39194e-21
1.20933e-20
5.70077e-20
2.2249e-19
3.87722e-19
2.49281e-29
5.16932e-29
8.08975e-29
1.07107e-28
1.2766e-28
1.44225e-28
1.79541e-28
3.28452e-28
8.62162e-28
2.03881e-27
1.89145e-26
6.59588e-25
6.25814e-24
4.93954e-23
3.13439e-22
1.69595e-21
7.96848e-21
2.65945e-20
4.41839e-20
3.26375e-30
8.01562e-30
1.37542e-29
1.85738e-29
2.39151e-29
2.7649e-29
3.29505e-29
5.6691e-29
1.50251e-28
3.58095e-28
1.13364e-27
3.8944e-26
5.58652e-25
4.68481e-24
3.19744e-23
1.83765e-22
8.87461e-22
2.73276e-21
3.13279e-21
3.68248e-31
1.1089e-30
2.15818e-30
3.18098e-30
4.09349e-30
4.78758e-30
5.61672e-30
8.95405e-30
2.34276e-29
5.76053e-29
1.29348e-28
1.35597e-27
3.93899e-26
3.64415e-25
2.65931e-24
1.59711e-23
7.76073e-23
1.82297e-22
1.68143e-22
3.45518e-32
1.30361e-31
2.93361e-31
4.88718e-31
6.48378e-31
7.68093e-31
8.95789e-31
1.31229e-30
3.32413e-30
8.44937e-30
1.76998e-29
6.73915e-29
2.15634e-27
2.41655e-26
1.87492e-25
1.15662e-24
5.57818e-24
1.02894e-23
9.63741e-24
3.0275e-33
1.42786e-32
3.87391e-32
6.88586e-32
9.52533e-32
1.15304e-31
1.35403e-31
1.79953e-31
4.3363e-31
1.1282e-30
2.33723e-30
5.36107e-30
8.43714e-29
1.39061e-27
1.161e-26
7.26066e-26
3.3879e-25
6.06094e-25
6.07125e-25
2.19851e-34
1.38831e-33
4.50203e-33
8.91429e-33
1.30085e-32
1.61362e-32
1.88433e-32
2.35977e-32
5.26364e-32
1.37931e-31
2.88151e-31
5.58216e-31
3.1516e-30
6.55649e-29
6.44833e-28
4.09659e-27
1.79358e-26
3.39258e-26
3.85436e-26
1.42033e-35
1.22798e-34
4.74695e-34
1.06002e-33
1.65345e-33
2.10217e-33
2.44229e-33
2.94411e-33
6.00059e-33
1.55847e-32
3.29667e-32
6.0108e-32
1.7691e-31
2.50421e-30
3.17304e-29
2.12675e-28
8.63782e-28
1.79353e-27
2.07949e-27
7.5781e-37
9.73387e-36
4.5702e-35
1.15968e-34
1.95032e-34
2.5579e-34
2.9641e-34
3.48393e-34
6.4343e-34
1.64266e-33
3.50457e-33
6.16752e-33
1.31248e-32
1.01058e-31
1.34359e-30
1.02154e-29
3.88942e-29
9.0405e-29
9.64986e-29
3.75178e-38
7.01215e-37
4.03445e-36
1.1707e-35
2.13813e-35
2.91275e-35
3.38144e-35
3.8937e-35
6.53776e-35
1.62187e-34
3.47732e-34
5.92935e-34
1.05939e-33
4.61758e-33
5.43821e-32
4.47015e-31
1.65426e-30
4.18154e-30
4.33952e-30
1.73616e-39
4.62516e-38
3.28242e-37
1.09496e-36
2.18277e-36
3.1071e-36
3.63712e-36
4.12009e-36
6.30358e-36
1.5052e-35
3.23666e-35
5.35386e-35
8.45931e-35
2.42938e-34
2.16132e-33
1.78251e-32
6.67651e-32
1.74143e-31
1.88738e-31
1.96123e-40
2.68699e-39
2.47565e-38
9.53471e-38
2.08331e-37
3.11336e-37
3.7004e-37
4.10598e-37
5.80876e-37
1.31787e-36
2.83837e-36
4.57191e-36
6.50519e-36
1.41165e-35
8.68237e-35
6.57625e-34
2.56372e-33
6.62273e-33
7.47125e-33
1.23359e-41
1.48293e-40
1.74229e-39
7.7732e-39
1.86903e-38
2.94371e-38
3.57382e-38
3.877e-38
5.12891e-38
1.09343e-37
2.3489e-37
3.66256e-37
4.80411e-37
8.54152e-37
3.55201e-36
2.33767e-35
9.38334e-35
2.36011e-34
2.68238e-34
6.38205e-43
8.14122e-42
1.14949e-40
5.97093e-40
1.58491e-39
2.64315e-39
3.28484e-39
3.49227e-39
4.35027e-39
8.62939e-39
1.84331e-38
2.79994e-38
3.41967e-38
5.18395e-38
1.51223e-37
8.21752e-37
3.29035e-36
8.07189e-36
9.01979e-36
3.1203e-44
5.21482e-43
7.10999e-42
4.35157e-41
1.27756e-40
2.26331e-40
2.88622e-40
3.01701e-40
3.55748e-40
6.51016e-40
1.37742e-39
2.07737e-39
2.35861e-39
3.10467e-39
6.85786e-39
2.91421e-38
1.11016e-37
2.68957e-37
2.91168e-37
1.34054e-45
2.79925e-44
4.23027e-43
3.03018e-42
9.85483e-42
1.8563e-41
2.4353e-41
2.51213e-41
2.81502e-41
4.72499e-41
9.82638e-41
1.49288e-40
1.5827e-40
1.82587e-40
3.2446e-40
1.05191e-39
3.61634e-39
8.78543e-39
9.07268e-39
)
;

boundaryField
{
    leftWall
    {
        type            zeroGradient;
    }
    rightWall
    {
        type            zeroGradient;
    }
    lowerWall
    {
        type            zeroGradient;
    }
    atmosphere
    {
        type            inletOutlet;
        inletValue      uniform 0;
        value           nonuniform List<scalar> 
46
(
0
0
0
0
0
0
0
0
0
0
0
0
0
0
0
0
0
0
0
0
0
0
0
1.36337e-50
4.15755e-49
8.19878e-48
1.18054e-46
1.34054e-45
2.79925e-44
4.23027e-43
3.03018e-42
9.85483e-42
1.8563e-41
2.4353e-41
2.51213e-41
2.81502e-41
4.72499e-41
9.82638e-41
1.49288e-40
1.5827e-40
1.82587e-40
3.2446e-40
1.05191e-39
3.61634e-39
8.78543e-39
9.07268e-39
)
;
    }
    defaultFaces
    {
        type            empty;
    }
}


// ************************************************************************* //
