/*--------------------------------*- C++ -*----------------------------------*\
| =========                 |                                                 |
| \\      /  F ield         | OpenFOAM: The Open Source CFD Toolbox           |
|  \\    /   O peration     | Version:  2312                                  |
|   \\  /    A nd           | Website:  www.openfoam.com                      |
|    \\/     M anipulation  |                                                 |
\*---------------------------------------------------------------------------*/
FoamFile
{
    version     2.0;
    format      ascii;
    arch        "LSB;label=32;scalar=64";
    class       volScalarField;
    location    "0.3";
    object      alpha.oil;
}
// * * * * * * * * * * * * * * * * * * * * * * * * * * * * * * * * * * * * * //

dimensions      [0 0 0 0 0 0 0];

internalField   nonuniform List<scalar> 
2268
(
3.60848e-45
2.98761e-44
3.7396e-43
1.5349e-41
1.25759e-39
1.01165e-37
4.05944e-36
7.84875e-36
1.28588e-34
2.01237e-33
4.2494e-30
9.86549e-27
4.58263e-21
1.09845e-18
1.64427e-18
1.57703e-18
2.44585e-10
2.01974e-09
3.12761e-09
3.1376e-09
1.60246e-09
1.00523e-09
0.00105556
1.00333e-43
9.50633e-43
1.96711e-41
6.75402e-40
6.9419e-38
3.91026e-36
2.06061e-34
3.39476e-34
5.499e-33
5.4955e-32
4.36074e-28
4.703e-25
1.32508e-20
1.19145e-18
2.95436e-18
1.57511e-18
8.31344e-09
2.0139e-08
8.40398e-13
6.26762e-13
5.47941e-11
1.92867e-11
0.00108842
2.60291e-42
2.93293e-41
4.60525e-40
9.55826e-39
1.455e-36
4.98937e-35
3.29324e-33
4.76643e-33
5.78497e-32
3.76932e-31
1.37664e-25
3.12318e-23
1.30027e-20
8.62628e-19
3.60422e-18
4.54413e-18
2.89044e-28
-2.59178e-12
1.72872e-06
5.65166e-06
2.5748e-06
1.8714e-11
0.00108794
3.44906e-41
7.53037e-40
1.27554e-38
1.73769e-37
2.73636e-35
5.06869e-34
4.01712e-32
5.308e-32
4.1764e-31
1.57576e-30
5.95773e-24
9.90526e-22
1.19075e-19
2.03426e-19
3.97873e-19
-3.22322e-19
-1.66981e-18
8.34878e-06
1.87984e-05
9.40883e-06
1.07042e-05
6.14335e-08
0.000273137
5.77318e-40
9.42423e-39
1.60015e-37
1.44767e-36
1.90305e-34
2.29731e-33
1.76845e-31
2.21097e-31
1.02505e-30
5.65764e-30
3.88637e-22
4.13959e-20
2.13423e-18
1.13098e-18
5.6456e-19
3.27334e-19
-3.49836e-18
1.36948e-06
1.49886e-06
1.45839e-06
0.000238119
0.000225212
2.88645e-06
5.05912e-39
6.40581e-38
1.04483e-36
7.13095e-36
7.44779e-34
5.67699e-33
3.88946e-31
4.68106e-31
1.48007e-30
7.91736e-28
1.20322e-20
1.46011e-18
1.23644e-16
2.25864e-16
1.16467e-16
4.76697e-17
1.66366e-29
1.45388e-11
0.000140879
0.00131486
8.88693e-05
4.61947e-05
2.66624e-06
1.34107e-38
1.75242e-37
2.49788e-36
1.31295e-35
9.95485e-34
6.01874e-33
3.48828e-31
3.98165e-31
7.44899e-31
1.97148e-22
2.83046e-17
1.08868e-15
8.74618e-15
2.47163e-14
1.29183e-14
2.65725e-15
2.37799e-16
2.34648e-16
8.44732e-06
0.00162356
0.000588927
0.00135632
6.09759e-05
4.40293e-44
3.76944e-44
8.45694e-44
1.1491e-40
-3.97268e-38
4.18057e-38
8.97107e-36
1.31442e-36
-1.09847e-32
2.47734e-17
5.64646e-15
4.77914e-14
1.62706e-13
3.54808e-13
2.73604e-13
6.56141e-14
2.82832e-15
2.33985e-16
7.00274e-12
0.000410253
0.0118169
1.19053e-05
1.49556e-05
0.999868
1
1
1
1
0.999951
0.999904
0.999904
0.999906
0.999943
1
0.999513
0.998317
0.998284
0.999271
0.999998
0.904117
0.854931
0.854931
0.999582
1
1
1
1
1
1
1
1
1
1
1
1
0.999947
0.999964
0.999998
0.987479
0.854931
0.854931
0.999467
1
1
1
1
1
1
1
1
1
1
1
1
1
1
0.999997
0.999999
0.941503
0.888189
0.999466
1
1
1
1
1
1
1
1
1
1
1
1
1
1
0.999997
0.999999
1
0.993794
0.999675
1
0.999999
0.935204
1
1
1
1
1
1
1
1
1
1
1
1
1
1
1
0.999708
0.934762
0.610305
0.51104
1
1
1
1
1
1
1
1
1
1
1
1
1
1
1
0.999705
0.914739
0.0218469
0.0954737
0.797234
0.999956
1
1
0.999999
1
1
1
1
1
1
1
1
1
1
0.998864
0.801205
6.02407e-05
5.17317e-06
0.237369
0.934353
0.999937
0.999909
0.999997
1
1
1
1
1
1
1
1
1
1
3.74957e-27
5.82228e-26
1.44487e-24
1.6276e-22
3.13029e-20
6.43112e-19
1.13419e-17
1.63425e-16
2.52453e-14
8.16805e-14
2.24467e-13
3.59246e-13
2.31836e-12
2.82439e-12
2.12161e-12
1.08801e-12
2.82614e-13
7.48425e-13
7.45932e-14
2.06837e-07
0.0130875
0.0375975
0.000666167
1.28144e-25
1.96513e-24
2.79116e-23
2.19127e-21
4.04167e-19
7.14201e-18
1.02613e-16
1.50444e-15
1.47446e-13
3.79342e-13
7.7978e-13
1.0469e-12
9.30751e-12
2.05593e-11
1.93989e-11
1.11548e-11
2.87764e-12
1.97589e-11
2.3892e-11
4.77438e-14
0.00898221
0.0412078
0.0400469
1.43068e-24
2.07687e-23
2.44701e-22
1.75513e-20
2.99363e-18
4.26704e-17
5.20623e-16
9.71209e-15
5.95592e-13
1.33976e-12
2.45611e-12
3.02676e-12
3.96153e-11
9.83533e-11
9.9293e-11
6.09341e-11
1.49293e-11
9.7954e-12
1.64806e-11
1.91678e-14
4.08814e-05
0.0293027
0.0872759
1.3732e-23
1.83353e-22
1.79476e-21
1.26183e-19
1.97861e-17
2.18142e-16
2.34688e-15
4.76755e-14
1.89375e-12
4.17244e-12
6.32909e-12
6.57235e-12
1.17278e-10
1.82579e-10
1.41939e-10
7.77523e-11
2.51657e-11
4.73863e-12
4.36898e-12
1.93e-12
1.23883e-22
0.00400857
0.0264707
1.09971e-22
1.2611e-21
1.01188e-20
6.68656e-19
1.00461e-16
8.69695e-16
1.06659e-14
2.05072e-13
4.4026e-12
8.89421e-12
1.18012e-11
9.61981e-12
1.9744e-10
5.92976e-11
2.48816e-11
3.83486e-19
-1.00255e-19
-2.84845e-21
4.89581e-30
-1.29061e-30
-8.61649e-12
1.20978e-05
3.13901e-05
8.2542e-22
6.87569e-21
4.5869e-20
3.09899e-18
3.86438e-16
3.67917e-15
4.38089e-14
6.27528e-13
6.8407e-12
1.32065e-11
1.49398e-11
8.36738e-12
3.55881e-10
4.24236e-08
0.0306146
0.120563
0.254937
0.314469
0.336795
0.358589
0.264673
0.0913382
3.10834e-05
5.39244e-21
2.91969e-20
1.92368e-19
1.17197e-17
1.78146e-15
2.80246e-14
1.54119e-13
1.13151e-12
4.93012e-12
1.11894e-11
1.06035e-11
4.95768e-13
0.000501737
0.244238
0.637711
0.872923
0.999999
1
0.993023
0.982547
0.946552
0.815475
0.653007
1.17644e-19
5.10849e-19
7.48936e-18
7.11549e-16
9.56028e-14
3.67811e-13
3.49309e-13
1.09618e-12
5.1139e-13
4.64525e-13
5.01643e-13
4.56524e-13
0.296944
0.930837
0.999821
0.999974
0.999996
1
1
1
1
0.999999
0.999946
1.18871e-17
1.50347e-16
2.74886e-15
1.68639e-13
8.0575e-12
5.74424e-11
1.55087e-10
1.11374e-12
2.48754e-06
4.85828e-05
0.000155183
0.00597781
0.663641
0.985643
1
1
1
1
1
1
1
1
1
1.76428e-16
7.21301e-15
1.47714e-13
6.01646e-12
1.09723e-10
1.43565e-09
1.75294e-08
4.31162e-06
2.60518e-05
0.000862824
0.00886748
0.104757
0.415164
0.411688
0.671382
0.833822
0.936962
0.986943
0.999876
1
1
1
1
5.84959e-16
4.65367e-14
1.02647e-12
3.47785e-11
3.93513e-10
8.23898e-09
1.18237e-06
2.32997e-05
2.36763e-05
0.00951477
0.0645628
0.0707816
3.70691e-14
6.6196e-14
0.0102385
0.0979061
0.226448
0.394552
0.579218
0.733134
0.832989
0.896894
0.93213
4.20145e-15
1.85133e-13
4.88699e-12
1.12685e-10
1.16188e-09
1.7876e-08
7.50421e-08
7.74808e-08
0.0043815
0.0179935
0.0134811
0.000234778
3.99562e-06
7.9579e-12
-9.34262e-11
-2.32711e-16
2.16962e-27
4.36785e-27
4.13783e-28
0.0167082
0.07138
0.133388
0.189529
1.25383e-14
5.37019e-13
1.24398e-11
2.27349e-10
1.978e-09
1.18941e-08
1.19602e-08
0.000154139
0.00244325
0.00185122
5.13946e-17
1.40342e-16
4.22936e-07
6.99683e-08
1.1062e-08
2.62774e-09
3.23828e-09
2.48371e-09
6.58336e-10
7.72299e-19
1.52649e-36
-1.89434e-21
-3.47471e-21
1.92823e-14
8.08798e-13
1.73025e-11
2.33673e-10
1.72056e-09
1.26725e-08
5.13267e-08
6.86448e-06
8.04995e-05
1.40017e-15
8.42969e-10
5.84828e-07
4.12167e-07
4.80011e-08
6.39141e-09
4.292e-09
7.33118e-09
7.10208e-09
4.86758e-09
-1.47948e-21
1.11826e-20
1.03868e-22
1.3159e-19
1.42968e-14
5.21227e-13
9.57902e-12
1.73559e-10
1.28292e-09
1.65634e-08
2.07734e-07
9.74941e-07
1.36814e-15
1.45993e-15
1.40019e-15
5.20028e-07
1.12385e-07
7.77637e-09
1.74354e-09
5.04796e-09
1.25881e-08
1.68745e-08
4.75235e-09
1.21805e-05
6.70428e-05
0.000153038
8.47763e-05
4.2613e-15
1.81734e-13
4.05924e-12
9.03514e-11
7.8849e-10
6.2718e-09
2.65138e-08
1.11377e-15
1.52493e-15
1.09186e-14
2.06115e-13
1.60874e-13
1.46877e-13
2.42576e-10
1.65133e-09
9.88332e-09
8.80141e-08
2.20332e-07
4.69396e-09
8.24557e-05
0.000504555
0.000560746
0.000537345
2.09227e-15
9.55523e-14
2.1796e-12
3.87873e-11
2.12202e-10
5.50795e-10
1.01533e-15
2.40229e-15
3.33532e-14
2.19411e-13
2.087e-12
7.13911e-12
8.30664e-11
6.62715e-10
2.33494e-09
2.71248e-08
1.85538e-07
4.3885e-07
3.37269e-06
0.000132302
0.000486096
0.000560845
0.000240293
8.17032e-16
3.1503e-14
5.68433e-13
7.48165e-12
3.32496e-11
6.10694e-11
1.01699e-15
1.04125e-14
7.72157e-14
5.33319e-13
3.7817e-12
3.11813e-11
2.15298e-10
9.17493e-10
2.47096e-09
3.26528e-08
1.85531e-07
1.36896e-06
9.7251e-06
3.65271e-06
1.44768e-08
2.63723e-05
4.24937e-06
1.34461e-16
4.24512e-15
5.10558e-14
3.30086e-13
1.01922e-12
1.36609e-12
1.63346e-15
1.26003e-14
9.35787e-14
7.00514e-13
5.58556e-12
4.24671e-11
2.53273e-10
9.34684e-10
2.16069e-09
2.32804e-08
1.27704e-07
1.03089e-07
1.55467e-08
1.44768e-08
1.4484e-08
2.71116e-09
2.654e-09
2.26849e-23
1.18062e-21
2.94569e-20
5.59359e-19
9.71426e-18
1.19812e-16
1.28416e-15
1.06498e-14
8.45888e-14
6.39174e-13
4.74321e-12
3.25558e-11
1.77149e-10
6.45825e-10
1.19342e-09
3.35235e-10
3.37625e-10
4.44112e-10
2.03658e-08
5.51374e-08
5.91889e-08
4.20329e-08
7.07105e-09
1.20657e-23
7.47381e-22
2.17576e-20
4.11971e-19
5.86909e-18
6.91882e-17
7.05414e-16
6.43417e-15
5.06276e-14
3.31067e-13
1.8048e-12
7.8938e-12
2.72537e-11
7.61524e-11
1.80501e-10
3.58479e-10
1.10522e-09
5.17901e-09
1.97207e-08
3.50806e-08
3.42231e-08
1.32584e-08
2.55002e-09
2.70433e-24
1.84294e-22
6.11692e-21
1.32041e-19
2.1e-18
2.62603e-17
3.15348e-16
3.15471e-15
2.61208e-14
1.78999e-13
1.01999e-12
4.71937e-12
1.76372e-11
5.2997e-11
1.30009e-10
2.55231e-10
3.61281e-10
3.58566e-10
2.40099e-10
2.84703e-10
3.46931e-10
1.16776e-09
6.7881e-10
5.32483e-25
3.88938e-23
1.39232e-21
3.2428e-20
5.59969e-19
7.82828e-18
9.24049e-17
8.644e-16
7.97702e-15
5.3925e-14
3.03695e-13
1.39069e-12
5.40017e-12
1.62622e-11
4.05491e-11
8.32369e-11
1.40852e-10
1.88548e-10
2.22296e-10
2.2476e-10
2.1523e-10
2.12549e-10
1.35049e-10
4.29204e-26
3.42406e-24
1.33571e-22
3.38029e-21
6.27281e-20
9.14736e-19
1.08833e-17
1.03913e-16
9.4483e-16
6.45509e-15
3.94662e-14
1.88125e-13
7.39265e-13
2.38837e-12
6.37671e-12
1.46931e-11
2.9438e-11
4.99283e-11
7.30228e-11
8.95138e-11
9.41587e-11
8.25959e-11
5.89759e-11
1.88242e-27
1.61971e-25
6.81655e-24
1.8596e-22
3.70392e-21
5.73913e-20
7.15722e-19
7.25174e-18
5.97283e-17
4.95174e-16
3.02083e-15
1.54786e-14
6.62399e-14
2.28793e-13
7.49316e-13
1.90213e-12
4.41505e-12
8.22345e-12
1.42263e-11
2.0606e-11
2.53145e-11
2.66347e-11
2.25596e-11
5.17541e-29
4.87173e-27
2.23487e-25
6.6217e-24
1.4259e-22
2.37677e-21
3.1879e-20
3.55352e-19
3.37692e-18
2.66117e-17
1.72417e-16
9.76912e-16
4.64732e-15
1.85195e-14
6.66033e-14
1.93092e-13
5.28576e-13
1.17527e-12
2.34366e-12
3.94258e-12
5.75765e-12
6.96507e-12
7.01017e-12
1.08648e-30
1.11571e-28
5.58257e-27
1.80332e-25
4.22279e-24
7.62744e-23
1.11313e-21
1.36044e-20
1.37478e-19
1.1801e-18
8.64144e-18
5.39689e-17
2.85966e-16
1.26377e-15
4.47679e-15
1.74332e-14
5.05825e-14
1.33185e-13
2.95871e-13
5.9397e-13
9.91056e-13
1.46518e-12
1.65814e-12
1.9378e-32
2.16956e-30
1.18031e-28
4.13836e-27
1.05167e-25
2.0655e-24
3.26261e-23
4.24722e-22
4.62087e-21
4.24836e-20
3.33536e-19
2.24511e-18
1.29676e-17
6.39527e-17
2.68453e-16
1.01191e-15
3.69333e-15
1.13279e-14
2.97643e-14
6.6987e-14
1.34423e-13
2.2268e-13
3.1556e-13
2.3042e-34
2.85652e-32
1.72236e-30
6.69836e-29
1.88846e-27
4.10923e-26
7.17157e-25
1.02962e-23
1.23736e-22
1.25993e-21
1.09634e-20
8.20103e-20
5.29339e-19
2.95358e-18
1.4264e-17
5.96496e-17
2.13787e-16
8.08684e-16
2.30635e-15
6.23726e-15
1.37965e-14
2.96965e-14
4.67591e-14
2.15084e-36
2.95853e-34
1.98546e-32
8.6307e-31
2.72505e-29
6.63377e-28
1.29163e-26
2.06402e-25
2.7568e-24
3.11524e-23
3.00549e-22
2.49326e-21
1.78907e-20
1.11625e-19
6.08385e-19
2.90821e-18
1.22342e-17
4.54496e-17
1.55302e-16
4.70274e-16
1.26398e-15
2.88147e-15
5.83457e-15
1.35278e-38
2.09626e-36
1.58314e-34
7.73032e-33
2.74033e-31
7.50452e-30
1.64973e-28
2.98619e-27
4.52943e-26
5.82849e-25
6.41952e-24
6.09036e-23
5.00048e-22
3.56796e-21
2.22615e-20
1.2293e-19
6.06254e-19
2.6056e-18
9.87668e-18
3.3134e-17
9.70266e-17
2.65195e-16
5.81849e-16
6.20932e-41
1.0857e-38
9.23848e-37
5.08631e-35
2.03477e-33
6.29289e-32
1.56307e-30
3.19948e-29
5.49565e-28
8.0242e-27
1.00559e-25
1.08947e-24
1.0256e-23
8.41911e-23
6.05586e-22
3.85819e-21
2.19661e-20
1.09455e-19
4.83454e-19
1.88932e-18
6.51944e-18
1.96497e-17
5.04978e-17
1.9198e-43
3.8416e-41
3.73872e-39
2.35262e-37
1.07546e-35
3.80197e-34
1.08003e-32
2.52936e-31
4.97408e-30
8.32862e-29
1.19967e-27
1.49827e-26
1.63268e-25
1.561e-24
1.31599e-23
9.82006e-23
6.49635e-22
3.80464e-21
1.9688e-20
9.03298e-20
3.69395e-19
1.31896e-18
4.09202e-18
3.92819e-46
9.33228e-44
1.05108e-41
7.63762e-40
4.02315e-38
1.63878e-36
5.4071e-35
1.46461e-33
3.33159e-32
6.45802e-31
1.08664e-29
1.58091e-28
2.01226e-27
2.25418e-26
2.23404e-25
1.96725e-24
1.54324e-23
1.07914e-22
6.72549e-22
3.73548e-21
1.84002e-20
7.88629e-20
2.84216e-19
4.76211e-49
1.3266e-46
1.7781e-44
1.53409e-42
9.55686e-41
4.59474e-39
1.77428e-37
5.69647e-36
1.54225e-34
3.54645e-33
7.03579e-32
1.21491e-30
1.83959e-29
2.45831e-28
2.91529e-27
3.08087e-26
2.90764e-25
2.4495e-24
1.83822e-23
1.22768e-22
7.26343e-22
3.72489e-21
1.69893e-20
3.62236e-52
1.23758e-49
1.95234e-47
1.97416e-45
1.44798e-43
8.23011e-42
3.77438e-40
1.43457e-38
4.60795e-37
1.27015e-35
3.04016e-34
6.37396e-33
1.17837e-31
1.93105e-30
2.81732e-29
3.67316e-28
4.29169e-27
4.49822e-26
4.22096e-25
3.52407e-24
2.58866e-23
1.64501e-22
8.81237e-22
1.14566e-55
4.93909e-53
9.67328e-51
1.20566e-48
1.08897e-46
7.63053e-45
4.32425e-43
2.0377e-41
8.14293e-40
2.79964e-38
8.37334e-37
2.19775e-35
5.09635e-34
1.0484e-32
1.91478e-31
3.09897e-30
4.44407e-29
5.70919e-28
6.71604e-27
7.17363e-26
6.51163e-25
5.07901e-24
3.8933e-23
2.45642e-59
1.46579e-56
3.6543e-54
5.6916e-52
6.37052e-50
5.50542e-48
3.83828e-46
2.22333e-44
1.09268e-42
4.62777e-41
1.70944e-39
5.55942e-38
1.60364e-36
4.1258e-35
9.5063e-34
1.96949e-32
3.69248e-31
6.30944e-30
9.77125e-29
1.34213e-27
1.62442e-26
1.69058e-25
1.47142e-24
1.45432e-63
1.27244e-60
4.23404e-58
8.57932e-56
1.23886e-53
1.37727e-51
1.23465e-49
9.20314e-48
5.83061e-46
3.19178e-44
1.52941e-42
6.48333e-41
2.45322e-39
8.34811e-38
2.56956e-36
7.17963e-35
1.82322e-33
4.19416e-32
8.63134e-31
1.57821e-29
2.5308e-28
3.46445e-27
4.58922e-26
1.47185e-68
2.27746e-65
1.11862e-62
3.23152e-60
6.57863e-58
1.02595e-55
1.28668e-53
1.33944e-51
1.18366e-49
9.03066e-48
6.02836e-46
3.55973e-44
1.87666e-42
8.90329e-41
3.827e-39
1.49869e-37
5.36804e-36
1.76163e-34
5.28705e-33
1.4384e-31
3.46955e-30
7.13841e-29
1.19773e-27
5.39242e-75
2.04328e-71
1.69196e-68
7.87475e-66
2.55252e-63
6.324e-61
1.26044e-58
2.08728e-56
2.93664e-54
3.56852e-52
3.79343e-50
3.56367e-48
2.98302e-46
2.23997e-44
1.51781e-42
9.33525e-41
5.24548e-39
2.70888e-37
1.28512e-35
5.50157e-34
2.05812e-32
6.91375e-31
2.26584e-29
7.17938e-85
3.27753e-80
6.26192e-77
6.23911e-74
4.27082e-71
2.22352e-68
9.29451e-66
3.2247e-63
9.49838e-61
2.41475e-58
5.36628e-56
1.05311e-53
1.84056e-51
2.88564e-49
4.08445e-47
5.25e-45
6.16123e-43
6.63539e-41
6.59035e-39
6.06343e-37
5.16053e-35
3.9326e-33
2.28817e-31
0.000707377
0.130074
0.580061
0.944541
0.00924357
0.0317652
0.0221332
0.432048
0.0872511
0.042695
0.0219556
0.021772
0.0162777
0.127966
0.243429
0.237923
3.64955e-05
0.00228847
0.0336077
0.608071
3.11322e-05
3.80209e-05
7.3175e-05
0.566075
0.531582
0.516889
0.642858
0.944661
0.99919
0.998941
0.999897
0.999981
1
1
0.999999
0.999997
1
1
1
1
0.934689
0.932372
0.923928
0.908543
0.194545
0.189131
0.166777
0.109385
7.04311e-23
7.43169e-24
1.50716e-24
-3.66542e-22
-3.07981e-23
3.68403e-06
6.62645e-07
0.000186203
2.29565e-05
0.000130213
0.000353297
0.000251885
0.000507891
0.000183575
3.23651e-08
7.35909e-06
7.35574e-07
3.11853e-05
3.01314e-09
2.94828e-09
1.09771e-09
1.06944e-09
4.15304e-09
2.88563e-09
2.59774e-09
1.05585e-09
7.3825e-10
4.55809e-10
1.65382e-10
1.81047e-10
1.60144e-10
1.12072e-10
1.02831e-10
9.84886e-11
7.31526e-11
5.86818e-11
8.70808e-11
6.29304e-11
4.72385e-11
3.52733e-11
5.93191e-11
4.29085e-11
2.80576e-11
2.04465e-11
3.21812e-11
2.1807e-11
1.54762e-11
1.07628e-11
1.42793e-11
1.01609e-11
6.9106e-12
4.85696e-12
5.09448e-12
3.69713e-12
2.68402e-12
1.87324e-12
1.43173e-12
1.13433e-12
8.04186e-13
5.7763e-13
3.17448e-13
2.64764e-13
2.08322e-13
1.54169e-13
5.61921e-14
5.23475e-14
4.2802e-14
3.29469e-14
8.3117e-15
8.48964e-15
7.72368e-15
6.30039e-15
1.01832e-15
1.13702e-15
1.13783e-15
9.84505e-16
1.03802e-16
1.30061e-16
1.42761e-16
1.34745e-16
9.88974e-18
1.37854e-17
1.63001e-17
1.66382e-17
8.18897e-19
1.27242e-18
1.69898e-18
1.92065e-18
5.88354e-20
1.07674e-19
1.59042e-19
1.98105e-19
3.81328e-21
7.92624e-21
1.35384e-20
1.84724e-20
2.05213e-22
5.3336e-22
1.04516e-21
1.57654e-21
1.03603e-23
3.13029e-23
7.3376e-23
1.24357e-22
4.16507e-25
1.70149e-24
4.71762e-24
9.13903e-24
1.55515e-26
8.02414e-26
2.75948e-25
6.31236e-25
4.33327e-28
3.38991e-27
1.49256e-26
4.1148e-26
1.07898e-29
1.2067e-28
7.36444e-28
2.54236e-27
0.99869
0.372628
7.02597e-05
4.32029e-06
0.00933181
0.704725
0.994975
0.999717
1
1
0.95256
0.86144
0.90291
0.9995
1
1
1
1
1
0.988091
0.778929
0.228795
0.000172461
0.000120114
0.442768
0.981149
1
0.999999
0.845018
0.381507
0.110839
0.124316
0.271252
0.757796
1
1
1
1
0.44525
0.493439
0.176252
0.000269837
0.0361311
0.611062
0.986214
1
0.999998
0.365514
6.41673e-08
1.3769e-08
7.72136e-09
7.34266e-09
0.0911727
0.724407
1
1
1
0.251507
0.141919
0.0860332
0.119476
0.446771
0.786343
0.999141
0.999978
0.85625
0.104335
1.48593e-07
2.06446e-08
7.43016e-09
7.45723e-09
7.16242e-09
0.159593
0.90937
1
1
0.829622
0.653401
0.614758
0.74667
0.964641
1
1
1
0.483092
0.00668842
1.02765e-07
1.64507e-08
9.65734e-09
8.51068e-09
7.85744e-09
1.07002e-08
0.799929
1
1
0.99948
0.995019
0.999993
0.999994
0.999995
1
1
0.800123
0.101246
1.55982e-07
1.93437e-08
7.18614e-09
6.9192e-09
7.73438e-09
7.7197e-09
7.33208e-09
0.468878
0.985734
1
0.999997
0.999995
0.999993
0.999997
1
1
0.938256
0.269521
1.78802e-07
2.68209e-08
7.79069e-09
4.41944e-09
4.63576e-09
6.28308e-09
7.74719e-09
6.74896e-09
0.0356589
0.88906
1
1
1
1
1
1
0.936196
0.355499
1.79657e-07
3.60065e-08
1.70135e-08
5.04e-09
3.20195e-09
3.25823e-09
4.81535e-09
7.42854e-09
6.91621e-09
5.82944e-09
0.804582
1
0.999998
1
1
1
0.86444
0.281716
1.92273e-07
3.47299e-08
1.69925e-08
4.19011e-09
2.24122e-09
2.68004e-09
3.13032e-09
4.64332e-09
6.22195e-09
5.98226e-09
5.9174e-09
0.859836
1
1
1
0.940959
0.653444
0.0817365
2.11939e-07
4.04662e-08
1.63788e-08
3.56543e-09
1.26215e-09
1.75398e-09
3.94281e-09
7.79777e-09
6.40174e-09
7.28832e-09
5.98958e-09
0.000716101
0.923907
1
0.848843
0.614074
0.133933
1.98206e-07
6.45181e-08
3.23874e-08
1.62221e-08
3.57235e-09
9.13674e-10
1.05113e-09
1.90991e-09
5.05518e-09
1.26488e-08
1.67803e-08
1.00689e-08
7.39091e-09
0.00141386
0.628344
0.995949
1.07689e-06
1.08875e-06
1.02506e-06
9.07555e-07
2.6296e-07
3.4818e-08
2.40092e-09
8.75481e-10
6.85473e-10
9.49119e-10
2.22076e-09
9.24012e-09
2.68842e-08
4.59917e-08
3.46153e-08
1.24063e-08
5.18115e-07
0.0601246
0.975404
0.000168043
0.00016906
8.32741e-05
1.17669e-07
2.84744e-09
1.53257e-09
9.50148e-10
5.85909e-10
5.3553e-10
9.61657e-10
3.56217e-09
1.47444e-08
4.20648e-08
6.86509e-08
6.32754e-08
2.23096e-08
1.47553e-07
4.87443e-07
0.949076
0.000400015
0.000110597
1.12031e-09
1.79468e-09
1.19187e-09
9.33691e-10
5.90397e-10
3.86494e-10
4.22924e-10
9.88692e-10
3.3757e-09
1.0153e-08
3.28517e-08
6.8481e-08
8.31558e-08
4.42904e-08
6.51585e-08
1.12275e-07
0.892427
2.16469e-05
1.22787e-07
1.02663e-09
8.21964e-10
7.69767e-10
5.69913e-10
3.6515e-10
2.40348e-10
2.36682e-10
4.60166e-10
1.34559e-09
5.55565e-09
1.69251e-08
4.57748e-08
8.89243e-08
6.65253e-08
5.31946e-08
2.08383e-08
0.787592
2.10987e-08
4.59226e-09
4.53856e-10
5.17932e-10
4.67715e-10
3.4291e-10
2.22381e-10
1.52276e-10
1.64626e-10
4.0581e-10
1.55589e-09
5.98559e-09
2.00448e-08
5.12661e-08
7.88326e-08
6.98117e-08
2.97825e-08
2.06603e-08
0.769498
4.59016e-09
6.25174e-10
2.87116e-10
3.06633e-10
2.673e-10
2.00136e-10
1.33888e-10
9.08612e-11
9.37395e-11
2.46178e-10
1.0711e-09
4.49348e-09
1.49402e-08
3.65505e-08
8.07017e-08
6.98224e-08
3.03046e-08
2.09039e-08
0.813556
1.16101e-09
2.05308e-10
1.73148e-10
1.68778e-10
1.45632e-10
1.10654e-10
7.52528e-11
5.02658e-11
4.33502e-11
8.73726e-11
4.41687e-10
2.90998e-09
1.90212e-08
1.17322e-07
2.56738e-07
2.19106e-07
3.04626e-08
0.00175675
0.90557
2.32062e-10
1.00308e-10
9.04567e-11
8.57989e-11
7.44186e-11
5.79105e-11
4.04248e-11
2.72243e-11
2.18784e-11
3.71364e-11
1.89732e-10
1.89933e-09
1.97641e-08
1.05999e-07
2.4814e-07
2.02045e-07
2.96788e-08
0.0171691
0.92923
8.72481e-11
4.89181e-11
4.31189e-11
3.98472e-11
3.48953e-11
2.78783e-11
2.00139e-11
1.38786e-11
1.05741e-11
1.52452e-11
6.603e-11
4.03841e-10
2.65622e-09
1.63222e-08
5.9535e-08
1.34103e-07
3.07783e-08
0.0358986
0.92918
4.5273e-11
2.30102e-11
1.88001e-11
1.71406e-11
1.52177e-11
1.25509e-11
9.35068e-12
6.62481e-12
4.73203e-12
5.09012e-12
1.27651e-11
5.83761e-11
3.44904e-10
1.658e-09
2.16528e-08
1.02577e-07
4.9812e-07
0.0369342
0.86849
2.54003e-11
1.03475e-11
7.50816e-12
6.62833e-12
6.12097e-12
5.21702e-12
4.05327e-12
2.88196e-12
2.09363e-12
1.9949e-12
7.972e-12
1.11084e-10
1.58031e-09
1.02315e-08
3.93007e-08
5.37132e-07
8.25044e-07
0.0164337
0.175463
1.41879e-11
4.32762e-12
2.82288e-12
2.39603e-12
2.2605e-12
1.99018e-12
1.57904e-12
1.19728e-12
8.52846e-13
7.03816e-13
1.93237e-12
2.58641e-11
3.1786e-10
8.56955e-10
1.74001e-07
2.98092e-06
2.88495e-05
0.000139955
1.48471e-07
7.29404e-12
1.76061e-12
9.99298e-13
7.83786e-13
7.37072e-13
6.82312e-13
5.81457e-13
4.56704e-13
3.23695e-13
2.5042e-13
3.45851e-13
2.45828e-12
3.26079e-11
1.80735e-10
1.177e-08
1.68842e-07
1.35451e-07
2.19066e-09
1.03377e-08
3.19547e-12
6.62604e-13
3.37114e-13
2.38625e-13
2.26718e-13
2.18959e-13
1.94058e-13
1.52353e-13
1.11366e-13
8.58707e-14
8.10829e-14
2.15292e-13
1.78336e-12
2.06466e-11
4.15885e-10
5.72663e-11
-7.59824e-12
2.00285e-09
9.56324e-12
1.25261e-12
2.29758e-13
1.08729e-13
6.73047e-14
6.36102e-14
6.41524e-14
5.96121e-14
4.91678e-14
3.72864e-14
2.7807e-14
2.08511e-14
2.84559e-14
1.37885e-13
1.07508e-12
5.73516e-12
5.84179e-11
6.52107e-10
2.60128e-10
9.13213e-12
3.88471e-13
7.1869e-14
3.28792e-14
1.77268e-14
1.55584e-14
1.61848e-14
1.56982e-14
1.34837e-14
1.04165e-14
7.74963e-15
6.03252e-15
5.85963e-15
1.36527e-14
8.56698e-14
6.04881e-13
5.04668e-12
5.13889e-11
4.59856e-11
1.66991e-12
1.02247e-13
2.04651e-14
9.2692e-15
4.37497e-15
3.67397e-15
3.95314e-15
4.01773e-15
3.61194e-15
2.88052e-15
2.16337e-15
1.5833e-15
1.31874e-15
1.73705e-15
6.77561e-15
4.11608e-14
2.54122e-13
2.29507e-12
3.64545e-12
2.21879e-13
2.33434e-14
5.21819e-15
2.40327e-15
9.76222e-16
7.7332e-16
8.48117e-16
9.01336e-16
8.45388e-16
7.00216e-16
5.32392e-16
3.77303e-16
2.85931e-16
2.76304e-16
5.8353e-16
2.68542e-15
1.34791e-14
9.96061e-14
1.65495e-13
1.66582e-14
4.51164e-15
1.17878e-15
5.67009e-16
2.16581e-16
1.50408e-16
1.64743e-16
1.82302e-16
1.77322e-16
1.52882e-16
1.18014e-16
8.20666e-17
5.75142e-17
4.92315e-17
6.29897e-17
1.84722e-16
8.2274e-16
4.74558e-15
5.75457e-15
9.43225e-16
7.55466e-16
2.28246e-16
1.1655e-16
4.4378e-17
2.74234e-17
2.93863e-17
3.37106e-17
3.38493e-17
3.02924e-17
2.37274e-17
1.63594e-17
1.08074e-17
8.69322e-18
8.368e-18
1.41994e-17
5.08008e-17
2.35972e-16
1.93356e-16
5.74228e-17
1.11996e-16
4.1947e-17
2.26502e-17
8.47244e-18
4.71608e-18
4.85214e-18
5.73947e-18
5.95815e-18
5.47934e-18
4.34926e-18
2.98849e-18
1.89723e-18
1.42659e-18
1.18737e-18
1.29884e-18
3.06026e-18
1.17468e-17
8.477e-18
3.81767e-18
1.47884e-17
6.85493e-18
3.91385e-18
1.50364e-18
7.665e-19
7.43548e-19
8.97502e-19
9.62571e-19
9.08263e-19
7.30175e-19
5.00138e-19
3.07825e-19
2.14434e-19
1.6265e-19
1.37408e-19
1.89982e-19
5.48516e-19
4.31195e-19
2.52798e-19
1.80877e-18
1.01058e-18
6.13902e-19
2.47107e-19
1.17853e-19
1.06163e-19
1.29156e-19
1.43238e-19
1.38205e-19
1.12683e-19
7.68149e-20
4.58998e-20
2.96197e-20
2.07612e-20
1.51893e-20
1.31687e-20
2.35033e-20
2.16848e-20
1.40293e-20
1.99809e-19
1.33694e-19
8.77475e-20
3.75269e-20
1.71575e-20
1.4208e-20
1.71838e-20
1.96826e-20
1.9326e-20
1.60325e-20
1.08598e-20
6.30337e-21
3.78125e-21
2.45489e-21
1.62931e-21
1.0259e-21
9.54591e-22
1.05034e-21
6.69153e-22
2.00821e-20
1.60785e-20
1.1478e-20
5.27002e-21
2.36642e-21
1.79519e-21
2.12494e-21
2.49904e-21
2.49186e-21
2.10535e-21
1.41783e-21
8.0051e-22
4.49342e-22
2.69648e-22
1.6472e-22
8.47685e-23
3.90163e-23
4.71115e-23
3.10347e-23
1.85801e-21
1.77481e-21
1.38236e-21
6.86558e-22
3.09217e-22
2.15257e-22
2.45633e-22
2.94005e-22
2.97421e-22
2.55797e-22
1.71534e-22
9.44522e-23
4.98695e-23
2.76781e-23
1.55984e-23
7.07399e-24
1.70905e-24
1.9222e-24
1.39263e-24
1.59963e-22
1.81606e-22
1.54452e-22
8.33963e-23
3.8327e-23
2.46775e-23
2.6713e-23
3.22239e-23
3.30138e-23
2.88618e-23
1.93017e-23
1.04078e-23
5.18862e-24
2.67006e-24
1.3898e-24
5.79872e-25
8.35066e-26
7.28858e-26
5.70751e-26
1.2954e-23
1.74084e-23
1.61483e-23
9.50507e-24
4.51575e-24
2.72529e-24
2.75294e-24
3.31197e-24
3.42583e-24
3.03789e-24
2.02671e-24
1.05808e-24
5.08969e-25
2.43323e-25
1.13579e-25
4.5793e-26
4.53723e-27
2.67573e-27
2.13758e-27
9.96667e-25
1.58074e-24
1.59452e-24
1.02371e-24
5.07209e-25
2.91487e-25
2.70999e-25
3.21381e-25
3.34196e-25
2.99825e-25
1.9948e-25
1.01761e-25
4.73677e-26
2.10706e-26
8.97151e-27
3.4406e-27
2.64683e-28
9.91938e-29
7.54941e-29
7.37673e-26
1.37551e-25
1.50214e-25
1.04922e-25
5.45142e-26
3.03178e-26
2.5695e-26
2.96441e-26
3.08251e-26
2.7899e-26
1.84859e-26
9.3742e-27
4.20224e-27
1.7422e-27
6.9148e-28
2.45331e-28
1.59719e-29
3.83308e-30
2.56641e-30
5.30582e-27
1.15967e-26
1.35119e-26
1.03059e-26
5.63287e-27
3.07502e-27
2.36571e-27
2.61711e-27
2.70401e-27
2.46138e-27
1.62115e-27
8.22748e-28
3.56339e-28
1.38149e-28
5.1154e-29
1.66638e-29
9.7344e-31
1.57193e-31
8.42024e-32
)
;

boundaryField
{
    leftWall
    {
        type            zeroGradient;
    }
    rightWall
    {
        type            zeroGradient;
    }
    lowerWall
    {
        type            zeroGradient;
    }
    atmosphere
    {
        type            inletOutlet;
        inletValue      uniform 0;
        value           nonuniform List<scalar> 
46
(
0
0
0
0
0
0
0
0
0
0
0
0
0
0
0
0
0
0
0
0
0
0
0
1.07898e-29
1.2067e-28
7.36444e-28
2.54236e-27
5.30582e-27
1.15967e-26
1.35119e-26
1.03059e-26
5.63287e-27
3.07502e-27
2.36571e-27
2.61711e-27
2.70401e-27
2.46138e-27
1.62115e-27
8.22748e-28
3.56339e-28
1.38149e-28
5.1154e-29
1.66638e-29
9.7344e-31
1.57193e-31
8.42024e-32
)
;
    }
    defaultFaces
    {
        type            empty;
    }
}


// ************************************************************************* //
