/*--------------------------------*- C++ -*----------------------------------*\
| =========                 |                                                 |
| \\      /  F ield         | OpenFOAM: The Open Source CFD Toolbox           |
|  \\    /   O peration     | Version:  2312                                  |
|   \\  /    A nd           | Website:  www.openfoam.com                      |
|    \\/     M anipulation  |                                                 |
\*---------------------------------------------------------------------------*/
FoamFile
{
    version     2.0;
    format      ascii;
    arch        "LSB;label=32;scalar=64";
    class       volScalarField;
    location    "0.3";
    object      alpha.air;
}
// * * * * * * * * * * * * * * * * * * * * * * * * * * * * * * * * * * * * * //

dimensions      [0 0 0 0 0 0 0];

internalField   nonuniform List<scalar> 
2268
(
6.88292e-23
6.87466e-23
3.89334e-23
3.69333e-23
3.61061e-23
3.67486e-23
3.5399e-23
3.24681e-23
3.02774e-23
2.26305e-23
1.96547e-23
8.8206e-19
6.46596e-18
3.31107e-17
5.27289e-17
3.38125e-17
1.52156e-17
3.6455e-18
1.49426e-18
3.78319e-19
5.5728e-20
1.36549e-20
4.15767e-21
1.4514e-21
1.43367e-21
1.27611e-21
1.37575e-21
1.29284e-21
1.18179e-21
1.02379e-21
8.33184e-22
1.25222e-21
1.175e-21
7.98738e-22
1.62267e-17
1.31069e-16
6.97478e-16
1.87727e-15
1.2825e-15
6.84801e-16
3.22199e-16
1.58494e-16
4.88455e-17
2.88712e-18
4.3681e-20
9.5716e-21
1.6073e-20
1.43657e-20
1.23697e-20
1.24666e-20
1.19023e-20
9.96614e-21
7.54849e-21
9.47322e-21
6.38958e-20
4.78523e-20
4.21175e-20
8.70141e-17
9.22021e-16
4.42545e-15
1.74877e-14
1.90349e-14
1.61024e-14
1.16559e-14
6.87675e-15
1.40715e-15
5.77306e-17
3.66683e-18
2.02579e-19
8.06997e-20
7.60531e-20
7.62815e-20
7.78178e-20
7.03287e-20
5.28112e-20
3.39944e-20
1.85014e-19
1.85992e-18
1.25216e-18
1.43139e-18
3.37149e-16
4.38667e-15
1.85289e-14
1.05311e-13
1.7419e-13
4.36408e-13
3.49455e-13
2.0573e-13
7.22707e-14
4.9509e-15
4.653e-17
4.09455e-19
2.30492e-19
2.0055e-19
1.89268e-19
1.84695e-19
1.61458e-19
1.16398e-19
6.51471e-20
2.98332e-18
2.83316e-17
1.99599e-17
3.62688e-17
3.41831e-16
6.59742e-15
5.50935e-14
3.59209e-13
1.43552e-12
6.4343e-12
7.86346e-12
5.77344e-12
1.67042e-12
4.65304e-13
7.675e-14
2.19831e-15
2.99668e-19
2.64711e-19
2.41536e-19
2.29632e-19
1.93252e-19
1.33356e-19
9.06073e-20
2.66537e-17
3.07675e-16
3.10245e-16
8.38625e-16
2.97541e-15
2.32992e-14
2.36443e-13
1.71628e-12
6.94442e-12
3.35297e-11
7.2411e-11
6.0152e-11
2.59316e-11
3.91521e-12
2.71932e-13
1.86684e-14
1.61162e-19
9.87356e-20
7.94193e-20
7.14544e-20
5.39867e-20
3.40419e-20
2.15269e-18
3.45041e-15
1.97425e-14
5.52071e-14
1.40127e-13
2.96361e-13
7.58324e-13
2.46982e-12
7.53284e-12
2.38552e-11
7.36799e-11
2.13495e-10
2.01673e-10
1.08299e-10
1.88636e-11
7.04944e-13
2.12537e-14
2.53224e-23
2.6207e-23
2.53224e-23
2.6207e-23
2.53224e-23
4.72997e-16
2.36018e-14
4.11875e-13
1.01934e-12
1.7453e-12
2.86563e-12
4.37308e-12
7.47667e-12
1.7069e-11
2.90335e-11
5.49757e-11
1.09379e-10
2.96742e-10
3.44287e-10
2.06493e-10
4.38604e-11
1.64884e-12
1.35709e-13
0.000132243
4.58352e-10
6.58294e-10
9.09373e-10
2.59643e-07
4.87134e-05
9.62124e-05
9.56296e-05
9.40198e-05
5.69698e-05
8.37504e-09
0.000486575
0.00168293
0.00171626
0.000729347
2.46725e-06
0.0958832
0.145069
0.145069
0.000417761
3.3932e-10
3.3482e-10
3.45383e-10
8.26037e-11
8.61959e-11
9.98034e-11
9.4032e-11
8.51862e-11
8.43079e-11
7.48361e-11
7.22229e-11
6.90717e-11
5.26285e-05
3.59599e-05
2.41494e-06
0.0125212
0.145069
0.145069
0.000533061
1.26179e-10
7.47067e-10
7.03976e-10
6.89754e-11
1.97178e-10
5.31234e-10
3.19838e-10
1.49774e-10
1.22108e-10
1.16432e-10
8.69392e-11
7.0559e-11
7.57659e-09
4.42208e-07
3.02308e-06
9.37817e-07
0.0584966
0.111811
0.000534245
-1.30841e-10
-1.57227e-10
-1.51932e-20
7.39832e-11
5.66888e-10
3.07671e-09
1.65726e-09
3.32258e-10
2.46006e-10
2.45969e-10
2.03892e-10
1.16296e-10
3.07118e-10
3.78584e-07
2.93484e-06
9.68247e-07
5.17172e-08
0.00620625
0.000324892
4.88822e-09
-4.88822e-09
0.0647951
6.47109e-11
6.67361e-11
3.99903e-08
5.24498e-09
4.79197e-10
2.96306e-10
3.51386e-10
3.61665e-10
2.61062e-10
2.08639e-10
2.4115e-08
2.34142e-07
3.21074e-07
5.11609e-08
5.80749e-09
0.000291657
0.0652374
0.389694
0.48896
1.37978e-07
6.48776e-11
8.97583e-08
1.332e-08
2.93657e-10
2.92514e-10
1.54607e-09
1.2403e-09
7.32703e-10
4.28784e-10
3.33131e-09
2.94476e-09
6.01391e-09
1.64822e-08
2.76992e-09
0.000294889
0.0852611
0.978151
0.904503
0.202766
4.39007e-05
4.5112e-08
5.84986e-09
3.76652e-10
6.44126e-10
4.64402e-09
3.08461e-09
1.83129e-09
1.09067e-09
1.28689e-09
2.79515e-09
5.5177e-09
8.24594e-09
2.13208e-09
0.00113649
0.198795
0.999919
0.999827
0.762631
0.0656465
7.04152e-13
7.0415e-13
2.91331e-10
6.6795e-09
4.16169e-09
1.07681e-09
1.07927e-09
1.07307e-09
1.81349e-09
2.07032e-09
3.33407e-09
2.15714e-09
1.22525e-09
2.92925e-12
3.26169e-12
3.98893e-12
4.67095e-12
5.08861e-12
5.75597e-12
6.96394e-12
9.69888e-12
1.27913e-11
1.64081e-11
2.02018e-11
1.85891e-11
2.75349e-11
9.15621e-11
1.22756e-10
1.05961e-10
9.94923e-11
2.60881e-10
5.29477e-10
5.70624e-10
3.40619e-10
6.11755e-11
2.06196e-12
2.18234e-11
2.38914e-11
2.44103e-11
2.44418e-11
2.47996e-11
2.64174e-11
2.80834e-11
3.04587e-11
3.54838e-11
4.31729e-11
4.86196e-11
4.25426e-11
4.92823e-11
7.83048e-10
1.85919e-09
1.60728e-09
5.92907e-10
3.38441e-10
7.3921e-10
1.01717e-09
7.84404e-10
4.48524e-10
8.06162e-11
5.82748e-11
6.23141e-11
6.4351e-11
6.39406e-11
6.33492e-11
6.65652e-11
7.14926e-11
7.87273e-11
8.83669e-11
1.02866e-10
1.16333e-10
1.02048e-10
6.03933e-11
5.56137e-09
1.53529e-08
9.6578e-09
2.77822e-09
6.11746e-10
1.41638e-09
1.06181e-09
8.62019e-10
3.56922e-10
1.58842e-10
1.52428e-10
1.57662e-10
1.6277e-10
1.64033e-10
1.58942e-10
1.58782e-10
1.60538e-10
1.68346e-10
1.84117e-10
2.09021e-10
2.23231e-10
2.01102e-10
7.16103e-11
1.49018e-08
1.76649e-08
2.27132e-09
2.30548e-09
2.64531e-09
8.24195e-09
7.20257e-10
7.23641e-10
4.40658e-09
4.75007e-09
3.44514e-10
3.47352e-10
3.64851e-10
3.58325e-10
3.40511e-10
3.00922e-10
2.84455e-10
2.83712e-10
2.98064e-10
3.20106e-10
3.26923e-10
3.09554e-10
6.82761e-11
3.18179e-09
3.5551e-09
9.48871e-06
4.47794e-06
1.4995e-06
1.04176e-06
6.62415e-07
3.23325e-07
3.15687e-08
6.44348e-09
6.55241e-10
6.6127e-10
7.16561e-10
6.98881e-10
6.00115e-10
4.38123e-10
3.74408e-10
3.63054e-10
4.1799e-10
4.1335e-10
3.9243e-10
1.23304e-09
9.27861e-11
1.33002e-09
0.000327371
0.00010661
9.52965e-06
2.97143e-06
4.6508e-10
1.38317e-07
1.344e-07
2.33393e-08
2.17815e-09
8.83621e-10
8.92127e-10
9.73999e-10
9.41418e-10
7.49108e-10
4.5612e-10
3.72576e-10
3.66158e-10
1.61505e-09
1.49402e-09
1.24944e-09
9.34479e-07
7.94104e-11
0.00717853
0.00166083
3.26335e-07
3.5168e-07
9.52451e-09
2.1968e-10
1.2793e-10
2.55358e-09
2.94663e-09
1.52078e-09
6.11476e-10
5.01378e-10
6.11475e-10
5.01377e-10
6.11474e-10
6.40509e-10
5.14533e-10
3.61347e-10
0.00106544
0.00314712
0.00353325
0.0218582
0.112775
0.019554
0.000162619
2.58079e-05
3.83363e-06
-2.09277e-12
7.63898e-10
2.25867e-10
6.06527e-11
1.01523e-10
1.80266e-10
0.176049
0.18183
0.196227
0.219664
0.25208
0.293462
0.342808
0.404575
0.467305
0.504511
0.495757
0.564932
0.328724
0.014357
-1.86054e-07
-5.21689e-10
-8.15882e-13
-4.73104e-16
-9.39721e-13
1.38602e-10
6.05249e-11
1.22327e-11
1.20799e-11
0.906768
0.910955
0.921348
0.936548
0.954689
0.973826
0.992112
0.999976
0.999974
0.999137
0.991133
0.895243
0.584836
0.588164
0.328573
0.166178
0.0630381
0.013057
0.000124407
2.50927e-12
3.80408e-13
3.33835e-14
2.81654e-14
1
1
1
1
1
1
0.999999
0.999977
0.999976
0.990485
0.935437
0.929217
0.999918
0.99983
0.989678
0.902093
0.773549
0.605447
0.420782
0.266866
0.167011
0.103106
0.0678702
1
1
1
1
1
1
1
1
0.995618
0.982006
0.986515
0.999753
0.999969
0.999851
0.999963
0.999989
0.999996
0.999998
0.999999
0.983292
0.92862
0.866612
0.810471
1
1
1
1
1
1
1
0.999846
0.997557
0.998148
0.999998
0.999999
1
1
1
0.999998
0.999998
0.999999
1
1
1
1
1
1
1
1
1
1
1
1
0.999993
0.99992
1
1
0.999999
1
1
1
1
1
1
1
1
1
1
1
1
1
1
1
1
1
1
0.999999
1
1
1
0.999999
1
1
1
1
1
1
1
0.999988
0.999933
0.999847
0.999915
1
1
1
1
1
1
1
1
1
1
1
1
1
1
1
1
1
1
1
0.999918
0.999495
0.999439
0.999463
1
1
1
1
1
1
1
1
1
1
1
1
1
1
1
1
1
1
0.999997
0.999868
0.999514
0.999439
0.99976
1
1
1
1
1
1
1
1
1
1
1
1
1
1
1
1
1
0.999999
0.99999
0.999996
1
0.999974
0.999996
1
1
1
1
1
1
1
1
1
1
1
1
1
1
1
1
1
1
1
1
1
1
1
1
1
1
1
1
1
1
1
1
1
1
1
1
1
1
1
1
1
1
1
1
1
1
1
1
1
1
1
1
1
1
1
1
1
1
1
1
1
1
1
1
1
1
1
1
1
1
1
1
1
1
1
1
1
1
1
1
1
1
1
1
1
1
1
1
1
1
1
1
1
1
1
1
1
1
1
1
1
1
1
1
1
1
1
1
1
1
1
1
1
1
1
1
1
1
1
1
1
1
1
1
1
1
1
1
1
1
1
1
1
1
1
1
1
1
1
1
1
1
1
1
1
1
1
1
1
1
1
1
1
1
1
1
1
1
1
1
1
1
1
1
1
1
1
1
1
1
1
1
1
1
1
1
1
1
1
1
1
1
1
1
1
1
1
1
1
1
1
1
1
1
1
1
1
1
1
1
1
1
1
1
1
1
1
1
1
1
1
1
1
1
1
1
1
1
1
1
1
1
1
1
1
1
1
1
1
1
1
1
1
1
1
1
1
1
1
1
1
1
1
1
1
1
1
1
1
1
1
1
1
1
1
1
1
1
1
1
1
1
1
1
1
1
1
1
1
1
1
1
1
1
1
1
1
1
1
1
1
1
1
1
1
1
1
1
1
1
1
1
1
1
1
1
1
1
1
1
1
1
1
1
1
1
1
1
1
1
1
1
1
1
1
1
1
1
1
1
1
1
1
1
1
1
1
1
1
1
1
1
1
1
1
1
1
1
1
1
1
1
1
1
1
1
1
1
1
1
1
1
1
1
1
1
1
1
1
1
1
1
1
1
1
1
1
1
1
1
1
1
1
1
1
1
1
1
1
1
1
1
1
1
1
1
1
1
1
1
1
1
1
1
1
1
1
1
1
1
1
1
1
1
1
1
1
1
1
1
1
1
1
1
1
1
1
1
1
1
1
1
1
1
1
1
1
1
1
1
1
1
1
1
1
1
1
1
1
1
1
1
1
1
1
1
1
1
1
1
1
1
1
1
1
1
1
1
1
1
1
1
1
1
1
1
1
1
1
1
1
1
1
1
1
1
1
1
1
1
1
1
1
1
1
1
1
1
1
1
1
1
1
1
1
1
1
1
1
1
1
1
1
1
1
1
1
1
1
1
1
1
1
1
1
1
1
1
1
1
1
1
1
1
1
1
1
1
1
1
1
1
1
1
1
1
1
1
1
1
1
1
1
1
1
1
1
1
1
1
1
1
6.07023e-15
0.409242
0.419939
0.0554587
1.22411e-17
0.0317639
0.350146
0.353933
1.20478e-17
0.000379801
0.0384708
0.149866
1.95219e-09
6.09215e-12
0.00630912
0.0233797
8.67466e-10
1.59051e-11
0.000322251
1.67704e-06
1.23335e-09
1.82547e-10
7.59782e-06
1.64005e-06
1.24999e-09
9.38824e-10
1.54561e-08
1.07175e-07
2.1645e-10
2.28158e-10
1.27894e-10
1.48885e-11
1.24825e-11
1.36989e-11
1.90269e-11
1.50105e-11
1.0747e-14
2.08763e-14
1.14371e-14
2.6568e-14
0.065311
0.0676279
0.0760723
0.0914573
0.805455
0.810869
0.833223
0.890615
1
1
1
1
1
0.999996
0.999999
0.999814
0.999977
0.99987
0.999647
0.999748
0.999492
0.999816
1
0.999993
0.999999
0.999969
1
1
1
1
1
1
1
1
1
1
1
1
1
1
1
1
1
1
1
1
1
1
1
1
1
1
1
1
1
1
1
1
1
1
1
1
1
1
1
1
1
1
1
1
1
1
1
1
1
1
1
1
1
1
1
1
1
1
1
1
1
1
1
1
1
1
1
1
1
1
1
1
1
1
1
1
1
1
1
1
1
1
1
1
1
1
1
1
1
1
1
1
1
1
1
1
1
1
1
1
1
1
0.00130984
0.627372
0.99993
0.999841
0.988883
0.28992
7.04141e-13
3.80378e-11
3.15206e-10
1.55536e-08
0.0474399
0.13856
0.0970902
0.000500439
1.19273e-09
1.20901e-09
7.76767e-10
7.82469e-10
7.26943e-10
0.011889
0.221071
0.771205
0.999827
0.987396
0.503462
0.00315521
1.5508e-09
7.04139e-13
0.154981
0.618493
0.889161
0.875684
0.728748
0.242204
2.87421e-10
3.05431e-10
3.56481e-10
6.25186e-10
0.108756
0.359688
0.815972
0.940266
0.696256
0.174282
7.04138e-13
7.04138e-13
7.04138e-13
0.634486
1
1
1
1
0.908827
0.275593
4.18891e-10
1.56792e-10
5.98494e-10
0.0185131
0.252777
0.493455
0.44741
0.120122
2.89999e-12
1.01471e-10
7.04173e-13
0.14375
0.895665
1
1
1
1
1
0.840407
0.0906298
5.51469e-10
6.37552e-10
6.04006e-05
0.0383625
0.0391284
0.000193948
2.89999e-12
2.92581e-12
1.68498e-11
1.99979e-08
0.516908
0.993312
1
1
1
1
1
1
0.200071
2.15006e-09
6.94719e-10
1.27013e-11
1.70527e-13
-2.48218e-21
1.7052e-13
4.93228e-12
1.1213e-10
6.30059e-11
0.199877
0.898754
1
1
1
1
1
1
1
0.531122
0.0142661
7.0818e-10
1.32664e-08
2.16876e-11
2.70225e-11
2.81076e-11
5.50556e-12
3.97029e-09
0.0617438
0.730479
1
1
1
1
1
1
1
1
0.964341
0.11094
7.69904e-10
1.45753e-10
3.28869e-11
1.3039e-10
1.32027e-10
3.0776e-09
0.0638041
0.644501
1
1
1
1
1
1
1
1
1
1
0.195418
7.83404e-10
1.49394e-11
2.63828e-10
4.16965e-09
3.95539e-09
0.13556
0.718284
1
1
1
1
1
1
1
1
1
1
1
0.140164
7.78057e-10
5.46719e-15
2.57721e-08
0.0590405
0.346556
0.918264
1
1
1
1
1
1
1
1
1
1
1
0.999284
0.0760925
1.5974e-09
0.151157
0.385926
0.866067
1
1
1
1
1
1
1
1
1
1
1
1
1
0.998586
0.371656
0.00405134
0.999999
0.999999
0.999999
0.999999
1
1
1
1
1
1
1
1
1
1
1
1
0.999999
0.939875
0.0245956
0.999832
0.999831
0.999917
1
1
1
1
1
1
1
1
1
1
1
1
1
1
1
0.0509239
0.9996
0.999889
1
1
1
1
1
1
1
1
1
1
1
1
1
1
1
1
0.107573
0.999978
1
1
1
1
1
1
1
1
1
1
1
1
1
1
1
1
1
0.212408
1
1
1
1
1
1
1
1
1
1
1
1
1
1
1
1
1
1
0.230502
1
1
1
1
1
1
1
1
1
1
1
1
1
1
1
1
1
1
0.186444
1
1
1
1
1
1
1
1
1
1
1
1
1
1
1
1
1
0.998243
0.0944301
1
1
1
1
1
1
1
1
1
1
1
1
1
1
1
1
1
0.982831
0.0707697
1
1
1
1
1
1
1
1
1
1
1
1
1
1
1
1
1
0.964101
0.0708201
1
1
1
1
1
1
1
1
1
1
1
1
1
1
1
1
1
0.963066
0.13151
1
1
1
1
1
1
1
1
1
1
1
1
1
1
1
0.999999
0.999999
0.983566
0.824537
1
1
1
1
1
1
1
1
1
1
1
1
1
1
1
0.999997
0.999971
0.99986
1
1
1
1
1
1
1
1
1
1
1
1
1
1
1
1
1
1
1
1
1
1
1
1
1
1
1
1
1
1
1
1
1
1
1
1
1
1
1
1
1
1
1
1
1
1
1
1
1
1
1
1
1
1
1
1
1
1
1
1
1
1
1
1
1
1
1
1
1
1
1
1
1
1
1
1
1
1
1
1
1
1
1
1
1
1
1
1
1
1
1
1
1
1
1
1
1
1
1
1
1
1
1
1
1
1
1
1
1
1
1
1
1
1
1
1
1
1
1
1
1
1
1
1
1
1
1
1
1
1
1
1
1
1
1
1
1
1
1
1
1
1
1
1
1
1
1
1
1
1
1
1
1
1
1
1
1
1
1
1
1
1
1
1
1
1
1
1
1
1
1
1
1
1
1
1
1
1
1
1
1
1
1
1
1
1
1
1
1
1
1
1
1
1
1
1
1
1
1
1
1
1
1
1
1
1
1
1
1
1
1
1
1
1
1
1
1
1
1
1
1
1
1
1
1
1
1
1
1
1
1
1
1
1
1
1
1
1
1
1
1
1
1
1
1
1
1
1
1
1
1
1
1
1
1
1
1
1
1
1
1
1
1
1
1
1
1
1
1
1
1
1
1
1
1
1
1
1
1
1
1
1
1
1
1
1
1
1
1
1
1
1
1
1
1
1
1
1
1
1
1
1
1
1
1
1
1
1
1
1
1
1
1
1
1
1
1
1
1
1
1
1
1
1
1
1
1
1
1
1
1
1
1
1
1
1
1
1
1
1
1
1
1
1
1
1
1
1
1
1
1
1
1
1
1
1
1
1
1
1
1
1
)
;

boundaryField
{
    leftWall
    {
        type            alphaContactAngle;
        thetaProperties 
6
(
(galistan air) 90 0 0 0
(oil galistan) 90 0 0 0
(water oil) 90 0 0 0
(water air) 90 0 0 0
(oil air) 90 0 0 0
(water galistan) 90 0 0 0
);
        value           nonuniform List<scalar> 
50
(
6.88292e-23
1.4514e-21
1.6073e-20
8.06997e-20
2.30492e-19
2.99668e-19
1.61162e-19
2.53224e-23
2.92925e-12
2.18234e-11
5.82748e-11
1.52428e-10
3.44514e-10
6.55241e-10
8.83621e-10
6.11476e-10
0.176049
0.906768
1
1
1
1
1
1
1
1
1
1
1
1
1
1
1
1
1
1
1
1
1
1
1
1
1
1
1
1
1
1
1
1
)
;
    }
    rightWall
    {
        type            alphaContactAngle;
        thetaProperties 
6
(
(galistan air) 90 0 0 0
(oil galistan) 90 0 0 0
(water oil) 90 0 0 0
(water air) 90 0 0 0
(oil air) 90 0 0 0
(water galistan) 90 0 0 0
);
        value           nonuniform List<scalar> 
50
(
0.145069
0.145069
0.111811
0.00620625
5.80749e-09
2.76992e-09
2.13208e-09
1.22525e-09
7.26943e-10
6.25186e-10
5.98494e-10
6.37552e-10
6.94719e-10
7.0818e-10
7.69904e-10
7.83404e-10
7.78057e-10
1.5974e-09
0.00405134
0.0245956
0.0509239
0.107573
0.212408
0.230502
0.186444
0.0944301
0.0707697
0.0708201
0.13151
0.824537
1
1
1
1
1
1
1
1
1
1
1
1
1
1
1
1
1
1
1
1
)
;
    }
    lowerWall
    {
        type            alphaContactAngle;
        thetaProperties 
6
(
(galistan air) 90 0 0 0
(oil galistan) 90 0 0 0
(water oil) 90 0 0 0
(water air) 90 0 0 0
(oil air) 90 0 0 0
(water galistan) 90 0 0 0
);
        value           nonuniform List<scalar> 
62
(
6.88292e-23
6.87466e-23
3.89334e-23
3.69333e-23
3.61061e-23
3.67486e-23
3.5399e-23
3.24681e-23
3.02774e-23
2.26305e-23
1.96547e-23
8.8206e-19
6.46596e-18
3.31107e-17
5.27289e-17
3.38125e-17
1.52156e-17
3.6455e-18
1.49426e-18
3.78319e-19
5.5728e-20
1.36549e-20
4.15767e-21
4.15767e-21
9.5716e-21
2.02579e-19
4.09455e-19
2.19831e-15
1.86684e-14
2.12537e-14
1.35709e-13
6.07023e-15
0.409242
0.419939
0.0554587
0.000132243
0.000417761
0.000533061
0.000534245
0.000324892
0.000291657
0.000294889
0.00113649
0.000132243
4.58352e-10
6.58294e-10
9.09373e-10
2.59643e-07
4.87134e-05
9.62124e-05
9.56296e-05
9.40198e-05
5.69698e-05
8.37504e-09
0.000486575
0.00168293
0.00171626
0.000729347
2.46725e-06
0.0958832
0.145069
0.145069
)
;
    }
    atmosphere
    {
        type            inletOutlet;
        inletValue      uniform 1;
        value           nonuniform List<scalar> 
46
(
1
1
1
1
1
1
1
1
1
1
1
1
1
1
1
1
1
1
1
1
1
1
1
1
1
1
1
1
1
1
1
1
1
1
1
1
1
1
1
1
1
1
1
1
1
1
)
;
    }
    defaultFaces
    {
        type            empty;
    }
}


// ************************************************************************* //
