/*--------------------------------*- C++ -*----------------------------------*\
| =========                 |                                                 |
| \\      /  F ield         | OpenFOAM: The Open Source CFD Toolbox           |
|  \\    /   O peration     | Version:  2312                                  |
|   \\  /    A nd           | Website:  www.openfoam.com                      |
|    \\/     M anipulation  |                                                 |
\*---------------------------------------------------------------------------*/
FoamFile
{
    version     2.0;
    format      ascii;
    arch        "LSB;label=32;scalar=64";
    class       volScalarField;
    location    "0.3";
    object      alpha.water_0;
}
// * * * * * * * * * * * * * * * * * * * * * * * * * * * * * * * * * * * * * //

dimensions      [0 0 0 0 0 0 0];

internalField   nonuniform List<scalar> 
2268
(
5.45054e-14
6.32823e-14
4.40856e-14
4.40581e-14
5.70044e-14
9.84132e-14
1.63031e-13
2.54896e-13
3.54663e-13
5.43818e-13
7.17558e-13
1.32655e-12
3.32764e-12
1.4887e-11
6.58909e-11
2.07738e-10
2.52773e-10
2.28201e-10
2.2552e-10
2.25519e-10
2.25519e-10
5.98026e-10
6.08486e-10
7.89614e-13
9.46437e-13
9.41907e-13
9.98181e-13
1.3109e-12
2.13489e-12
3.39448e-12
5.00595e-12
6.78763e-12
9.08147e-12
1.11668e-11
1.26157e-11
2.31816e-11
4.61459e-11
2.00248e-10
1.42011e-09
6.00948e-09
5.85912e-09
4.0833e-09
3.89912e-09
1.53323e-09
1.07208e-07
1.73025e-09
5.86908e-12
6.3049e-12
5.82501e-12
5.84445e-12
7.58799e-12
1.15257e-11
1.74545e-11
2.50222e-11
3.27121e-11
4.0584e-11
4.57028e-11
4.92938e-11
8.8534e-11
1.2489e-10
1.03858e-10
4.78983e-10
2.52715e-08
2.69333e-08
1.13752e-08
2.93667e-08
2.88739e-07
2.95325e-07
2.95577e-07
2.72734e-11
3.01893e-11
3.12364e-11
3.32159e-11
3.79358e-11
4.89584e-11
6.7941e-11
8.89537e-11
1.05527e-10
1.2532e-10
1.32145e-10
1.21931e-10
1.74908e-10
2.08416e-10
1.18587e-10
1.53879e-09
8.03439e-08
6.5857e-08
2.62997e-08
1.60131e-08
1.05584e-07
2.33457e-07
1.63466e-07
9.63674e-11
9.37834e-11
8.81596e-11
1.0064e-10
1.06704e-10
1.21748e-10
1.48411e-10
1.72969e-10
1.5335e-10
1.82312e-10
1.93145e-10
1.37609e-10
1.28522e-10
9.53168e-11
9.55193e-11
9.6429e-11
2.74612e-09
3.12807e-26
-1.88375e-18
4.51388e-21
2.13916e-09
6.50562e-09
3.50134e-08
2.17657e-10
1.91894e-10
1.70234e-10
2.21254e-10
2.30218e-10
2.46168e-10
2.82433e-10
3.13389e-10
3.69612e-10
4.39033e-10
4.0095e-10
3.14706e-10
2.38404e-10
0.0278227
0.0989582
0.206909
0.318629
0.377581
0.248974
0.00562295
8.60489e-12
3.73777e-06
6.47246e-07
1.73223e-10
1.7349e-10
1.71855e-10
1.7349e-10
1.75141e-10
1.76808e-10
2.75963e-10
4.57616e-10
0.00393719
0.0254308
0.0821279
0.19903
0.403087
0.641192
0.825892
0.973416
1
0.991636
0.939457
0.546096
0.0311149
1.17511e-07
7.29925e-08
0.0193698
0.0213582
0.0288307
0.0437577
0.0693561
0.110095
0.171224
0.25885
0.376877
0.520061
0.706944
0.885382
1
1
1
1
1
1
0.999997
0.999515
0.205135
1.11574e-05
3.16706e-06
7.13505e-12
1.0532e-11
1.27612e-11
1.31834e-11
1.23501e-11
9.30829e-12
7.03621e-12
5.62071e-12
4.15226e-12
2.8005e-12
1.92552e-12
9.49328e-13
4.98636e-13
2.94117e-13
1.75816e-13
6.09957e-14
1.39658e-14
2.74749e-15
8.09403e-16
8.65665e-12
2.34177e-11
3.41045e-11
4.05754e-11
4.25215e-11
3.5794e-11
2.696e-11
2.04381e-11
1.53398e-11
1.10592e-11
7.75595e-12
5.17052e-12
3.205e-12
2.09491e-12
9.22651e-13
3.13388e-13
6.00153e-14
7.14086e-15
1.24323e-15
1.23737e-11
3.88631e-11
6.18321e-11
8.00032e-11
8.31469e-11
7.06008e-11
5.46106e-11
3.79798e-11
2.56561e-11
1.98392e-11
1.52866e-11
1.14878e-11
8.20376e-12
5.53969e-12
2.35286e-12
1.43613e-12
3.91125e-13
3.78033e-14
1.68246e-15
1.95462e-11
5.35884e-11
9.80882e-11
1.37231e-10
1.465e-10
1.20553e-10
8.5853e-11
5.42371e-11
3.77687e-11
2.74762e-11
2.1268e-11
1.5913e-11
1.25271e-11
8.40507e-12
4.69858e-12
2.2008e-12
7.37393e-13
1.1457e-13
8.56657e-15
1.97393e-11
6.68771e-11
1.34006e-10
1.7143e-10
1.95108e-10
1.63451e-10
1.12434e-10
7.07265e-11
4.63033e-11
3.34045e-11
2.51343e-11
1.9837e-11
1.52814e-11
9.71979e-12
7.34067e-12
4.03419e-12
1.38526e-12
2.73062e-13
3.02198e-14
1.91571e-11
7.55285e-11
1.31402e-10
1.64604e-10
2.1403e-10
2.03057e-10
1.64419e-10
1.10649e-10
6.50969e-11
3.99433e-11
3.03474e-11
2.26226e-11
1.62665e-11
1.30731e-11
8.86725e-12
5.18448e-12
2.10985e-12
5.12003e-13
1.22159e-13
1.77073e-11
7.20531e-11
1.12098e-10
9.97849e-11
2.14711e-10
2.27057e-10
1.96838e-10
1.51815e-10
9.16612e-11
5.34509e-11
3.24046e-11
2.31836e-11
1.70421e-11
1.32318e-11
9.23354e-12
6.32733e-12
2.85329e-12
8.78328e-13
1.87718e-13
1.08937e-11
6.65285e-11
8.18932e-11
5.53201e-11
1.86025e-10
2.71019e-10
2.45023e-10
1.97112e-10
1.39372e-10
8.36454e-11
3.34292e-11
1.86954e-11
1.35513e-11
1.13911e-11
8.84019e-12
6.54651e-12
3.80447e-12
1.26993e-12
3.59552e-13
0.560887
0.567665
0.590923
0.62815
0.676411
0.732918
0.794399
0.856969
0.916078
0.970917
1
1
1
1
1
1
1
1
1
1
0.902118
0.138101
-4.62603e-08
1
1
1
1
1
1
1
1
1
1
1
1
1
1
1
1
1
1
1
1
0.990575
0.819047
0.160447
1
1
1
1
1
1
1
1
1
1
1
1
1
1
1
1
1
1
1
0.999998
0.999959
0.967122
0.706963
1
1
1
1
1
1
1
1
1
1
1
1
1
1
1
1
1
1
1
0.999996
0.999988
0.995569
0.976561
1
1
1
1
1
1
1
1
1
1
1
1
1
1
1
0.999993
0.999996
0.999998
0.999999
0.999996
0.999967
0.999966
0.999965
1
1
1
1
1
1
1
1
1
1
1
1
1
1
0.97527
0.89091
0.760063
0.694891
0.653809
0.613922
0.710265
0.889138
0.988651
1
1
1
1
1
1
1
1
1
1
1
1
0.999857
0.769187
0.386663
0.145781
7.5252e-07
2.75895e-11
0.00631051
0.0134269
0.0444111
0.16421
0.296202
1
1
1
1
1
1
1
1
0.999994
0.999171
0.998659
0.983927
0.615304
0.0633166
2.37125e-05
2.18306e-11
2.35531e-11
2.90401e-11
1.75314e-11
1.04144e-09
4.06137e-09
8.47294e-19
-4.60144e-16
0.861471
0.856085
0.842716
0.820793
0.790123
0.750407
0.702267
0.648146
0.586286
0.543516
0.543589
0.459375
0.0158928
1.30768e-11
4.16402e-11
2.91375e-12
3.02333e-10
4.2503e-10
4.53843e-10
4.79396e-10
4.69904e-10
3.1718e-10
2.5998e-10
0.126809
0.121797
0.109526
0.0915355
0.0699449
0.0469413
0.024862
0.00583222
2.92175e-20
9.9385e-12
0.00399857
0.000992885
8.43263e-05
0.000146883
4.35565e-05
2.90865e-12
5.08264e-09
9.12297e-10
1.88496e-10
1.93848e-10
2.41964e-10
2.57656e-10
2.56766e-10
3.13113e-13
2.98196e-12
1.14942e-11
5.98891e-12
5.81591e-25
6.07827e-25
6.50239e-31
-9.89557e-15
2.21638e-19
2.68576e-09
6.49179e-24
2.73585e-08
8.38776e-05
0.000178125
8.45345e-05
1.00359e-06
2.21032e-06
5.90562e-07
6.28021e-08
2.51111e-09
2.2501e-10
2.00787e-10
1.8784e-10
2.34565e-12
2.31886e-11
8.64279e-11
5.40996e-11
7.12095e-13
2.22282e-12
1.8106e-12
5.00883e-13
4.15571e-08
7.01456e-07
3.66882e-06
1.24303e-05
3.03458e-05
0.000157994
4.02001e-05
1.03345e-05
4.123e-06
1.5377e-06
5.5808e-07
1.56568e-07
4.41925e-08
1.58065e-08
5.78376e-09
4.96317e-12
5.55396e-11
1.79865e-10
9.29417e-11
1.93175e-12
7.6559e-12
1.74812e-11
3.59381e-11
1.19902e-08
6.65198e-07
2.45052e-06
9.42561e-07
2.41593e-24
2.42552e-24
2.48771e-17
2.37375e-06
1.95885e-06
8.60343e-07
5.13482e-07
2.87418e-07
1.37083e-07
6.09517e-08
2.50134e-08
6.64411e-12
6.95604e-11
2.13371e-10
1.14159e-10
2.67585e-12
1.26529e-11
4.62447e-11
1.28248e-10
2.2127e-10
1.21819e-11
1.35161e-11
2.31419e-13
2.44134e-13
1.17002e-14
4.61463e-16
3.64822e-28
-4.6659e-21
-9.05637e-21
-6.91703e-21
-1.41979e-37
0
3.47124e-09
2.94724e-09
5.85245e-12
5.97262e-11
1.82531e-10
9.29983e-11
2.40751e-12
1.28173e-11
5.60836e-11
2.76975e-10
7.84749e-10
4.36647e-10
1.21749e-10
1.82478e-11
8.94867e-13
4.08051e-14
1.56517e-15
2.7713e-18
6.27371e-37
-1.68366e-20
-1.33191e-21
6.29879e-19
2.14542e-19
2.05535e-19
2.14542e-19
3.21649e-12
3.43681e-11
1.06084e-10
5.11569e-11
1.85537e-12
9.95489e-12
5.50604e-11
2.75372e-10
7.71848e-10
1.38913e-09
2.38076e-10
2.51362e-11
8.16491e-13
1.47277e-14
3.47992e-17
-1.89034e-36
-6.66191e-20
-1.18501e-20
7.40605e-20
6.99085e-18
5.00452e-17
5.91041e-17
1.15134e-14
1.1019e-12
1.28726e-11
4.02448e-11
2.00829e-11
1.16793e-12
6.72861e-12
3.44045e-11
1.15635e-10
3.06295e-10
7.19018e-10
2.83682e-11
8.13702e-13
6.53509e-15
8.87706e-21
-8.38703e-20
-6.82965e-20
-2.82667e-20
3.19459e-22
2.17408e-19
1.31664e-17
7.17215e-17
9.43581e-17
6.42259e-17
2.28327e-13
2.38403e-12
7.02969e-12
3.31615e-12
4.03384e-13
1.96272e-12
6.5649e-12
2.25364e-11
6.70993e-11
1.04379e-10
-1.0039e-21
-4.71999e-21
-1.3829e-20
-2.44691e-20
-2.71379e-20
-1.78459e-20
-5.50107e-21
7.72784e-22
1.06652e-20
5.45299e-20
2.16884e-19
1.12807e-18
6.85007e-18
1.02239e-20
7.60662e-18
3.82706e-16
7.82837e-15
5.16463e-14
2.27885e-13
6.71993e-13
1.63872e-12
3.54945e-12
3.74629e-12
-4.00246e-22
-1.38346e-21
-3.14302e-21
-4.57923e-21
-4.22929e-21
-2.29882e-21
-5.56302e-22
6.68842e-23
4.95615e-22
2.03446e-21
1.26542e-20
5.27192e-20
2.87593e-19
1.43159e-43
1.2557e-41
3.27274e-40
2.92524e-39
8.21574e-38
1.82352e-36
3.448e-35
5.73309e-34
8.81348e-33
1.26875e-31
1.65461e-30
1.80986e-29
1.54887e-28
9.58321e-28
3.66565e-27
2.90115e-26
1.98085e-25
1.38078e-24
9.16186e-24
6.70474e-23
3.58877e-22
1.3265e-21
1.24287e-20
1.75236e-44
1.79055e-42
8.53419e-41
2.72526e-39
6.83397e-38
1.46133e-36
2.74463e-35
4.56428e-34
6.608e-33
8.3807e-32
9.42155e-31
9.25328e-30
7.85711e-29
5.54633e-28
2.91088e-27
1.00396e-26
4.13264e-26
1.68397e-25
5.47463e-25
1.56939e-24
5.87557e-24
5.63957e-23
3.82865e-22
5.14468e-45
5.48511e-43
2.86026e-41
9.87823e-40
2.61379e-38
5.38221e-37
1.19167e-35
2.03535e-34
2.92054e-33
3.59315e-32
3.81681e-31
3.46501e-30
2.67883e-29
1.73744e-28
9.06959e-28
3.50778e-27
9.99021e-27
5.31961e-26
2.28363e-25
7.57583e-25
1.56706e-24
3.56886e-24
1.65562e-23
5.56537e-46
6.40128e-44
3.6279e-42
1.37034e-40
3.98376e-39
9.65634e-38
1.97326e-36
2.86771e-35
5.02038e-34
5.8967e-33
5.7963e-32
4.807e-31
3.56594e-30
2.07888e-29
1.03336e-28
4.35418e-28
1.7273e-27
6.42479e-27
2.26583e-26
7.3201e-26
3.17901e-25
8.55706e-25
1.81298e-24
5.31374e-47
6.77498e-45
4.26167e-43
1.77143e-41
5.52828e-40
1.39489e-38
2.92711e-37
4.50498e-36
7.84751e-35
9.90832e-34
1.1477e-32
1.02827e-31
7.74946e-31
4.95487e-30
2.6904e-29
1.22096e-28
4.76339e-28
1.65129e-27
4.89157e-27
1.31295e-26
3.36896e-26
1.42207e-25
2.92094e-25
2.41771e-48
3.45899e-46
2.4539e-44
1.15365e-42
4.04346e-41
1.11621e-39
2.47666e-38
4.44557e-37
6.26217e-36
9.85024e-35
1.04639e-33
9.48879e-33
7.42817e-32
4.37009e-31
2.912e-30
1.35629e-29
6.04724e-29
2.04689e-28
6.71319e-28
1.90935e-27
4.76597e-27
1.28895e-26
4.45637e-26
6.05944e-50
9.17632e-48
6.85126e-46
3.36239e-44
1.21934e-42
3.46704e-41
8.01329e-40
1.55281e-38
2.55203e-37
3.44579e-36
3.7712e-35
3.62076e-34
2.93531e-33
1.90411e-32
1.32535e-31
6.8242e-31
3.51935e-30
1.45378e-29
5.68122e-29
1.86648e-28
5.38277e-28
1.27708e-27
4.57218e-27
9.82687e-52
1.56698e-49
1.2262e-47
6.26849e-46
2.35158e-44
6.90734e-43
1.66862e-41
3.39101e-40
5.67402e-39
8.01553e-38
9.59068e-37
9.76397e-36
8.49283e-35
6.23611e-34
3.42487e-33
2.8032e-32
1.47942e-31
7.26431e-31
3.01707e-30
1.19147e-29
3.926e-29
1.32848e-28
3.5059e-28
8.27845e-54
1.43502e-51
1.22042e-49
6.78548e-48
2.7752e-46
8.8816e-45
2.30246e-43
4.93116e-42
8.83761e-41
1.33887e-39
1.7277e-38
1.90925e-37
1.81037e-36
1.45841e-35
1.00498e-34
6.21357e-34
4.22358e-33
2.2833e-32
1.12499e-31
4.83514e-31
1.92517e-30
6.49792e-30
2.58602e-29
6.3146e-56
1.16139e-53
1.04695e-51
6.15945e-50
2.65922e-48
8.96754e-47
2.45263e-45
5.57392e-44
1.06987e-42
1.75375e-41
2.47364e-40
3.01798e-39
3.20053e-38
2.97156e-37
2.4462e-36
1.81129e-35
1.10019e-34
8.4247e-34
4.53548e-33
2.44816e-32
9.72758e-32
4.75069e-31
1.78582e-30
3.79904e-58
7.54053e-56
7.33711e-54
4.65371e-52
2.15935e-50
7.79926e-49
2.28031e-47
5.54351e-46
1.14196e-44
2.02168e-43
3.11072e-42
4.1989e-41
5.01028e-40
5.31645e-39
5.03874e-38
4.28484e-37
3.28972e-36
2.28413e-35
1.57561e-34
9.54292e-34
5.12011e-33
2.38356e-32
1.18077e-31
1.63658e-60
3.60686e-58
3.88459e-56
2.72063e-54
1.39308e-52
5.55604e-51
1.79505e-49
4.8236e-48
1.09855e-46
2.15079e-45
3.66258e-44
5.48365e-43
7.29486e-42
8.70994e-41
9.42931e-40
9.33363e-39
8.37778e-38
6.66262e-37
4.80054e-36
3.12166e-35
1.73859e-34
1.06428e-33
5.60981e-33
4.53185e-63
1.10555e-60
1.31527e-58
1.01674e-56
5.74229e-55
2.525e-53
8.99742e-52
2.67122e-50
6.74494e-49
1.47205e-47
2.81314e-46
4.75621e-45
7.16983e-44
9.70169e-43
1.19026e-41
1.34289e-40
1.39369e-39
1.3069e-38
1.125e-37
8.86064e-37
6.34137e-36
4.0629e-35
2.27002e-34
9.36567e-66
2.56181e-63
3.41045e-61
2.94726e-59
1.86063e-57
9.14946e-56
3.64773e-54
1.21209e-52
3.4263e-51
8.37376e-50
1.79339e-48
3.40678e-47
5.80326e-46
8.94721e-45
1.25653e-43
1.61207e-42
1.89096e-41
2.0334e-40
2.01744e-39
1.84807e-38
1.52501e-37
1.11314e-36
8.14444e-36
1.45302e-68
4.6788e-66
7.17321e-64
7.12424e-62
5.15522e-60
2.90131e-58
1.33316e-56
5.06917e-55
1.63327e-53
4.52772e-52
1.10226e-50
2.35053e-49
4.45608e-48
7.58428e-47
1.17065e-45
1.65529e-44
2.16414e-43
2.63362e-42
2.98688e-41
3.13935e-40
3.02611e-39
2.64162e-38
2.05471e-37
1.48055e-71
5.60002e-69
1.01929e-66
1.19836e-64
1.02456e-62
6.8087e-61
3.66385e-59
1.65652e-57
6.39403e-56
2.12503e-54
6.18895e-53
1.59623e-51
3.67862e-50
7.63311e-49
1.43505e-47
2.45556e-46
3.83498e-45
5.47904e-44
7.17962e-43
8.59266e-42
9.14069e-41
8.46412e-40
7.68552e-39
8.14031e-75
3.8645e-72
8.5418e-70
1.21781e-67
1.26784e-65
1.02993e-63
6.80217e-62
3.75646e-60
1.77083e-58
7.23994e-57
2.59952e-55
8.28099e-54
2.36067e-52
6.06636e-51
1.41403e-49
3.00512e-48
5.84585e-47
1.04316e-45
1.70642e-44
2.54806e-43
3.44869e-42
4.20208e-41
4.59473e-40
2.44225e-78
1.4922e-75
4.14404e-73
7.33163e-71
9.41148e-69
9.38956e-67
7.59781e-65
5.13394e-63
2.95938e-61
1.47925e-59
6.4944e-58
2.52924e-56
8.80092e-55
2.74951e-53
7.74026e-52
1.97595e-50
4.64751e-49
1.03147e-47
2.16399e-46
4.07307e-45
6.42319e-44
9.11269e-43
1.54705e-41
3.80851e-82
3.1666e-79
1.10976e-76
2.44044e-74
3.87843e-72
4.79154e-70
4.81338e-68
4.05342e-66
2.92515e-64
1.83902e-62
1.01998e-60
5.03885e-59
2.23358e-57
8.93805e-56
3.24987e-54
1.08317e-52
3.34165e-51
9.55947e-50
2.5041e-48
5.92238e-47
1.25882e-45
2.37559e-44
3.97414e-43
1.70383e-86
2.08478e-83
9.75526e-81
2.79493e-78
5.743e-76
9.15275e-74
1.18638e-71
1.29135e-69
1.20792e-67
9.8793e-66
7.15906e-64
4.64339e-62
2.7164e-60
1.44131e-58
6.96288e-57
3.07037e-55
1.23748e-53
4.54665e-52
1.51148e-50
4.54701e-49
1.22929e-47
3.01825e-46
7.88015e-45
1.68143e-91
3.5761e-88
2.42209e-85
9.69664e-83
2.75297e-80
6.0334e-78
1.0728e-75
1.5992e-73
2.04576e-71
2.2856e-69
2.26079e-67
2.00116e-65
1.59858e-63
1.16035e-61
7.69945e-60
4.69741e-58
2.6492e-56
1.38609e-54
6.72429e-53
3.00181e-51
1.21264e-49
4.32519e-48
1.32727e-46
6.5167e-98
3.38246e-94
3.84557e-91
2.46227e-88
1.10173e-85
3.78563e-83
1.05232e-80
2.44527e-78
4.85671e-76
8.37846e-74
1.271e-71
1.7131e-69
2.07176e-67
2.27153e-65
2.28348e-63
2.1278e-61
1.85163e-59
1.50277e-57
1.11927e-55
7.41453e-54
4.32765e-52
2.50903e-50
1.51798e-48
9.59421e-108
5.68276e-103
1.46074e-99
1.96435e-96
1.82162e-93
1.29063e-90
7.37984e-88
3.52231e-85
1.43588e-82
5.08414e-80
1.58423e-77
4.39157e-75
1.09314e-72
2.46355e-70
5.06255e-68
9.54349e-66
1.65886e-63
2.67255e-61
4.01645e-59
5.67279e-57
7.54738e-55
9.2011e-53
8.93113e-51
-4.51938e-09
-6.62138e-11
1.38654e-25
1.07803e-13
-2.87006e-19
-4.36871e-13
6.60233e-08
8.73667e-05
0.271818
0.020587
0.00608666
9.81429e-05
0.946089
0.627478
0.126052
1.30108e-05
0.999915
0.999747
0.842066
0.147779
0.999735
0.999603
0.906824
0.156776
0.373545
0.366702
0.208852
0.00884957
-1.3457e-18
1.00658e-19
2.76736e-19
4.27139e-10
2.23525e-10
2.06411e-10
1.97041e-10
2.04882e-10
2.42021e-10
2.42811e-10
2.66255e-10
2.74511e-10
1.70704e-10
1.67629e-10
1.6741e-10
1.56307e-10
3.13483e-09
2.49553e-09
1.86891e-09
1.27562e-09
1.43056e-08
7.68737e-09
3.81153e-09
2.05569e-09
1.45343e-09
8.36856e-10
4.22979e-10
8.33144e-11
2.05535e-19
4.49917e-12
5.32395e-12
1.10369e-12
5.10897e-17
5.10897e-17
1.21401e-15
1.0617e-15
1.13174e-16
8.0031e-17
1.26742e-16
4.19289e-17
1.48966e-17
1.14677e-17
1.07905e-17
3.87737e-18
7.34874e-19
7.28952e-19
7.0915e-19
3.06484e-19
2.69843e-20
2.53566e-20
3.19251e-20
1.54841e-20
8.36295e-22
9.58203e-22
1.11235e-21
8.22029e-22
3.38782e-23
4.28329e-23
5.03599e-23
4.68526e-23
2.85616e-24
3.42171e-24
3.78847e-24
3.84774e-24
4.12459e-25
4.71515e-25
5.08469e-25
5.21678e-25
6.84407e-26
8.0014e-26
8.7858e-26
9.05702e-26
9.92408e-27
1.27855e-26
1.51863e-26
1.65129e-26
1.12415e-27
1.65265e-27
2.14357e-27
2.52316e-27
8.64715e-29
1.81e-28
2.67893e-28
3.53959e-28
4.80609e-30
1.45059e-29
2.71137e-29
4.08302e-29
4.08741e-31
7.95443e-31
2.1708e-30
4.06153e-30
2.46663e-32
5.76172e-32
1.24009e-31
3.17991e-31
1.06991e-33
2.54075e-33
5.82213e-33
2.03139e-32
4.77625e-35
1.38828e-34
3.46713e-34
7.76049e-34
1.38944e-36
4.4735e-36
1.22523e-35
2.79969e-35
5.32598e-38
1.80778e-37
7.32744e-37
4.66038e-36
4.50327e-39
2.11981e-38
9.32323e-38
3.87944e-37
1.70029e-40
1.05708e-39
5.12872e-39
2.12267e-38
5.90412e-42
3.90503e-41
2.26299e-40
1.09085e-39
1.56407e-43
1.34315e-42
9.44645e-42
5.45978e-41
3.45834e-45
3.9501e-44
3.51269e-43
2.49209e-42
5.82829e-47
9.81816e-46
1.13468e-44
1.0034e-43
7.7809e-49
1.96172e-47
3.1179e-46
3.54299e-45
1.07803e-13
4.16318e-11
3.36567e-11
2.66697e-11
1.11446e-10
2.85394e-10
3.02002e-10
3.40704e-10
2.73265e-10
1.21641e-10
2.70261e-11
7.84624e-12
6.40784e-12
6.91126e-12
6.622e-12
5.67828e-12
3.61648e-12
2.10829e-12
5.12642e-13
1.73482e-05
3.72229e-11
5.76171e-12
9.07092e-12
6.42347e-11
2.27584e-10
4.70809e-10
8.7211e-10
5.98723e-10
1.7872e-10
1.78995e-11
1.79663e-12
8.95326e-13
1.39861e-12
2.55486e-12
3.53679e-12
3.0668e-12
2.03345e-12
5.89165e-13
3.53883e-06
2.71818e-07
1.17397e-14
2.68572e-14
1.7935e-10
2.89188e-09
4.48069e-09
3.70167e-09
1.43205e-09
1.52364e-10
4.10748e-12
1.16442e-12
4.20952e-13
2.73252e-13
5.66606e-13
1.5264e-12
2.26987e-12
1.78199e-12
5.87448e-13
6.40956e-12
-1.049e-25
1.38385e-14
5.63308e-08
3.03043e-08
3.93094e-08
1.67817e-08
9.67938e-09
2.55922e-09
5.98699e-11
1.49178e-13
5.94232e-14
4.47248e-14
4.45394e-14
7.99463e-14
5.17708e-13
1.4686e-12
1.47833e-12
5.67821e-13
3.30705e-09
1.97639e-06
3.72403e-06
1.94735e-06
1.22836e-06
2.59678e-07
1.00827e-08
7.80122e-09
2.01453e-09
3.07334e-11
3.72594e-14
1.46212e-14
5.20072e-15
7.53866e-15
1.70973e-14
1.0614e-13
7.90199e-13
1.09614e-12
5.04432e-13
5.03755e-05
5.54437e-06
7.64048e-06
5.24596e-06
4.03906e-06
2.78607e-07
2.85846e-08
1.11882e-14
1.05963e-10
1.88783e-11
2.42276e-13
3.86615e-14
3.95645e-15
2.50452e-15
7.39196e-15
5.01812e-14
3.42908e-13
7.30331e-13
4.03002e-13
4.41796e-07
6.1576e-06
7.69674e-06
1.63605e-06
-3.2872e-12
-2.0811e-16
3.70294e-15
1.25486e-13
3.68435e-15
4.95837e-15
3.00515e-15
8.22596e-16
2.16032e-16
6.44822e-16
3.96384e-15
2.93378e-14
9.92496e-14
4.57501e-13
3.02587e-13
4.32278e-07
3.29436e-07
1.319e-08
5.53992e-12
3.6268e-10
3.25643e-10
9.83965e-11
4.49538e-12
4.05898e-14
6.85012e-15
6.29791e-16
4.43318e-17
1.05285e-17
2.36323e-16
1.82848e-15
1.91747e-14
2.39483e-14
2.67186e-13
2.3253e-13
1.52858e-08
1.51619e-09
5.44942e-12
6.02292e-12
2.11433e-12
1.32663e-12
7.49979e-13
1.98641e-13
4.54932e-14
3.42124e-15
1.71027e-16
2.45838e-18
6.17356e-19
6.85076e-17
1.13509e-15
1.16905e-14
1.67746e-14
1.35462e-13
1.78253e-13
2.30981e-10
1.08131e-10
4.22447e-11
1.44642e-11
4.34791e-12
9.15801e-13
2.26608e-13
7.32038e-14
6.73299e-15
2.75425e-16
2.09555e-19
5.51045e-20
1.82553e-19
5.1772e-18
4.39534e-16
8.82386e-15
1.01053e-14
4.93525e-14
1.24402e-13
1.3143e-10
8.4956e-11
4.34812e-11
1.19774e-11
4.38748e-12
1.0296e-12
2.78447e-13
1.95585e-14
2.40809e-16
5.0959e-20
1.70497e-20
2.91552e-20
6.63377e-20
3.16447e-19
7.4191e-17
5.06512e-15
5.02093e-15
9.66357e-15
7.70294e-14
4.8739e-10
1.72537e-10
6.95088e-11
1.37175e-11
1.81315e-12
1.16979e-13
1.43119e-15
4.00469e-21
5.7285e-21
6.70981e-21
9.91147e-21
2.45409e-20
6.41318e-20
1.55652e-19
3.41018e-18
1.60168e-15
2.36358e-15
1.36187e-15
4.58412e-14
4.17263e-10
4.68178e-11
5.43238e-12
1.02662e-13
2.29013e-15
2.86693e-17
1.14793e-21
2.01969e-21
2.66979e-21
3.45138e-21
7.3104e-21
2.23006e-20
7.03954e-20
1.88435e-19
5.88354e-19
1.42552e-16
1.10319e-15
4.12091e-16
2.85013e-14
1.60752e-11
1.29424e-12
5.19444e-15
5.15644e-16
6.36474e-17
3.76287e-19
5.28629e-22
9.01212e-22
1.29684e-21
2.40815e-21
6.89855e-21
2.0972e-20
6.28843e-20
1.88071e-19
5.35078e-19
4.94801e-18
5.88855e-16
3.13342e-16
1.84438e-14
9.41377e-15
1.63594e-15
3.21195e-16
2.4119e-17
4.85052e-18
1.48293e-20
2.2072e-22
3.63677e-22
6.54047e-22
1.46691e-21
4.71737e-21
1.51869e-20
4.49311e-20
1.26862e-19
4.79027e-19
1.75874e-18
3.45632e-16
2.27813e-16
1.14869e-14
1.71435e-16
1.30956e-16
2.49106e-17
2.26302e-18
3.97908e-19
7.19372e-22
8.8388e-23
1.50502e-22
2.82912e-22
7.35139e-22
2.54462e-21
8.70498e-21
2.82606e-20
8.918e-20
2.46091e-19
2.16937e-18
1.29785e-16
1.44325e-16
6.10554e-15
1.6841e-17
1.09403e-17
2.08672e-18
2.73049e-19
2.79126e-20
6.2213e-23
3.40427e-23
5.51496e-23
1.13115e-22
3.16142e-22
1.1426e-21
4.10766e-21
1.33032e-20
3.47467e-20
1.46462e-19
1.27985e-18
2.49261e-17
1.0349e-16
2.36812e-15
1.62842e-18
8.32213e-19
2.01694e-19
2.96853e-20
1.76187e-21
1.44152e-23
1.19862e-23
1.75785e-23
4.00905e-23
1.12783e-22
4.05066e-22
1.54444e-21
5.96589e-21
2.84204e-20
1.03873e-19
2.68175e-19
4.4949e-18
4.85464e-17
7.24717e-16
1.19983e-19
7.74391e-20
1.542e-20
3.0452e-21
1.07505e-22
4.84597e-24
4.05135e-24
5.65856e-24
1.31761e-23
3.90996e-23
1.30617e-22
4.58285e-22
2.46443e-21
9.98553e-21
3.73968e-20
1.78857e-19
8.37861e-19
1.75287e-17
3.81154e-16
8.10372e-21
5.93796e-21
1.13101e-21
3.0338e-22
8.21264e-24
1.64379e-24
1.26927e-24
1.68792e-24
4.00267e-24
1.3618e-23
5.40176e-23
2.06786e-22
7.68121e-22
3.91023e-21
2.07818e-20
1.11491e-19
6.73059e-19
1.03447e-17
2.37571e-16
4.99177e-22
3.79134e-22
9.10949e-23
3.01064e-23
1.31095e-24
5.49186e-25
3.84626e-25
4.67999e-25
9.93641e-25
4.20663e-24
1.84284e-23
7.75109e-23
2.88855e-22
1.46744e-21
6.3974e-21
7.23432e-20
4.73202e-19
7.44833e-18
9.3424e-17
3.47268e-23
2.57874e-23
8.622e-24
3.03397e-24
3.83093e-25
1.76071e-25
1.11045e-25
1.18786e-25
2.34893e-25
9.77987e-25
5.17727e-24
2.53808e-23
1.08471e-22
4.91408e-22
1.63189e-21
7.58582e-21
1.62916e-19
2.42086e-18
1.21313e-17
3.48741e-24
2.46251e-24
1.11624e-24
4.36672e-25
1.24583e-25
5.44127e-26
2.92434e-26
2.98582e-26
5.26636e-26
2.11036e-25
1.19572e-24
6.56638e-24
3.16504e-23
1.63702e-22
4.98392e-22
2.10044e-21
2.52365e-20
1.78127e-19
3.61828e-19
5.04194e-25
3.80215e-25
2.07893e-25
9.16051e-26
3.68667e-26
1.57515e-26
7.62203e-27
7.06852e-27
1.20405e-26
3.52309e-26
2.30804e-25
1.46875e-24
8.16413e-24
3.78243e-23
1.49539e-22
6.13607e-22
4.27891e-21
3.59249e-20
8.31442e-20
9.04713e-26
7.71371e-26
4.71292e-26
2.27163e-26
1.04865e-26
4.46952e-27
1.89224e-27
1.46682e-27
2.51734e-27
4.7064e-27
3.64783e-26
2.57092e-25
1.42165e-24
6.56865e-24
4.10179e-23
1.80338e-22
8.73296e-22
5.34475e-21
1.38824e-20
1.7066e-26
1.62707e-26
1.08471e-26
5.57748e-27
2.73489e-27
1.1854e-27
4.57961e-28
3.10655e-28
5.50634e-28
9.03173e-28
3.27544e-27
2.95561e-26
2.49237e-25
1.3371e-24
8.81227e-24
4.08276e-23
1.90323e-22
8.51532e-22
2.1892e-21
2.88242e-27
3.1132e-27
2.30399e-27
1.27256e-27
6.19744e-28
2.71762e-28
9.75561e-29
5.43834e-29
9.26356e-29
1.46979e-28
3.27719e-28
3.75515e-27
2.6332e-26
2.23224e-25
1.33708e-24
6.91818e-24
3.29625e-23
1.43787e-22
1.72031e-22
4.52375e-28
5.35853e-28
4.42596e-28
2.63509e-28
1.39465e-28
5.92823e-29
2.17451e-29
1.04321e-29
1.70911e-29
2.8266e-29
4.5348e-29
3.13362e-28
3.02007e-27
2.40949e-26
1.57378e-25
8.78439e-25
4.27431e-24
1.07751e-23
2.50747e-23
6.18108e-29
8.26417e-29
7.68872e-29
4.69238e-29
2.72299e-29
1.1852e-29
4.04624e-30
1.75701e-30
2.66998e-30
4.53858e-30
6.84253e-30
1.81289e-29
2.44746e-28
2.07754e-27
1.46616e-26
8.66523e-26
4.33037e-25
1.43894e-24
6.90309e-25
7.3512e-30
1.15373e-29
1.21179e-29
8.22317e-30
4.78062e-30
2.20159e-30
7.25787e-31
2.76424e-31
3.85513e-31
6.61098e-31
9.78062e-31
1.57342e-30
1.54229e-29
1.49776e-28
1.12499e-27
6.91033e-27
3.43908e-26
4.40327e-26
6.06802e-26
7.26848e-31
1.40647e-30
1.62901e-30
1.27329e-30
7.65226e-31
3.79662e-31
1.23028e-31
4.10589e-32
5.21497e-32
8.7859e-32
1.29168e-31
1.71886e-31
8.06923e-31
9.38787e-30
7.45856e-29
4.6669e-28
2.26715e-27
4.12521e-27
3.90955e-27
6.85051e-32
1.61374e-31
2.1434e-31
1.7947e-31
1.12249e-31
6.04001e-32
1.96173e-32
5.84514e-33
6.68497e-33
1.07197e-32
1.57874e-32
1.96185e-32
4.24253e-32
5.05165e-31
4.4178e-30
2.79693e-29
1.27143e-28
2.37995e-28
2.6436e-28
5.67836e-33
1.65891e-32
2.46732e-32
2.31398e-32
1.53513e-32
8.61167e-33
2.91354e-33
7.912e-34
8.22149e-34
1.21428e-33
1.78906e-33
2.15888e-33
3.21794e-33
2.17747e-32
2.34337e-31
1.53412e-30
6.40629e-30
1.27883e-29
1.72359e-29
4.24557e-34
1.56063e-33
2.60555e-33
2.74104e-33
1.93827e-33
1.13401e-33
3.95277e-34
1.01953e-34
9.75017e-35
1.29428e-34
1.88538e-34
2.21913e-34
2.7593e-34
9.91023e-34
1.04803e-32
7.77401e-32
3.01347e-31
6.99153e-31
7.81192e-31
2.60134e-35
1.308e-34
2.56005e-34
2.99693e-34
2.26212e-34
1.37869e-34
4.98514e-35
1.25763e-35
1.11017e-35
1.31522e-35
1.85843e-35
2.11664e-35
2.32015e-35
5.1546e-35
4.38339e-34
3.56451e-33
1.33458e-32
3.48047e-32
3.52038e-32
1.40688e-36
1.00154e-35
2.33702e-35
3.03818e-35
2.45041e-35
1.54869e-35
5.92874e-36
1.48093e-36
1.21062e-36
1.28522e-36
1.72606e-36
1.88474e-36
1.8488e-36
3.00924e-36
1.77716e-35
1.47258e-34
5.57062e-34
1.51624e-33
1.68584e-33
7.0943e-38
7.05763e-37
1.98634e-36
2.86931e-36
2.4761e-36
1.61284e-36
6.63736e-37
1.66159e-37
1.26197e-37
1.21394e-37
1.5238e-37
1.5832e-37
1.38936e-37
1.85059e-37
7.23067e-37
5.51051e-36
2.19313e-35
5.91543e-35
7.05434e-35
4.79629e-39
4.45496e-38
1.57805e-37
2.53786e-37
2.34672e-37
1.56833e-37
6.9709e-38
1.7808e-38
1.25867e-38
1.10813e-38
1.28872e-38
1.26787e-38
9.88905e-39
1.13798e-38
3.04717e-38
1.94946e-37
8.16123e-37
2.13636e-36
2.56492e-36
2.84862e-40
2.64456e-39
1.17768e-38
2.11479e-38
2.09607e-38
1.44414e-38
6.83051e-39
1.8155e-39
1.20372e-39
9.77959e-40
1.04793e-39
9.55898e-40
6.72817e-40
6.8235e-40
1.28631e-39
6.73281e-39
2.8884e-38
7.34955e-38
8.64348e-38
1.48658e-41
1.48756e-40
8.28893e-40
1.67279e-39
1.77909e-39
1.26624e-39
6.26873e-40
1.75882e-40
1.10545e-40
8.35227e-41
8.22676e-41
6.99951e-41
4.43173e-41
3.96575e-41
5.74929e-41
2.33052e-40
9.77365e-40
2.4528e-39
2.80257e-39
7.15034e-43
8.57953e-42
5.47981e-41
1.26442e-40
1.44295e-40
1.06166e-40
5.46345e-41
1.62647e-41
9.77779e-42
6.91209e-42
6.25177e-42
5.06264e-42
2.86394e-42
2.23916e-42
2.71973e-42
8.19583e-42
3.17301e-41
7.99929e-41
8.79072e-41
3.14002e-44
4.59949e-43
3.46677e-42
9.18596e-42
1.12577e-41
8.55655e-42
4.55659e-42
1.44367e-42
8.35069e-43
5.55417e-43
4.61028e-43
3.58256e-43
1.83167e-43
1.23754e-43
1.28924e-43
2.92812e-43
9.91218e-43
2.55184e-42
2.64573e-42
)
;

boundaryField
{
    leftWall
    {
        type            zeroGradient;
    }
    rightWall
    {
        type            zeroGradient;
    }
    lowerWall
    {
        type            zeroGradient;
    }
    atmosphere
    {
        type            inletOutlet;
        inletValue      uniform 0;
        value           nonuniform List<scalar> 
46
(
0
0
0
0
0
0
0
0
0
0
0
0
0
0
0
0
0
0
0
0
0
0
0
7.7809e-49
1.96172e-47
3.1179e-46
3.54299e-45
3.14002e-44
4.59949e-43
3.46677e-42
9.18596e-42
1.12577e-41
8.55655e-42
4.55659e-42
1.44367e-42
8.35069e-43
5.55417e-43
4.61028e-43
3.58256e-43
1.83167e-43
1.23754e-43
1.28924e-43
2.92812e-43
9.91218e-43
2.55184e-42
2.64573e-42
)
;
    }
    defaultFaces
    {
        type            empty;
    }
}


// ************************************************************************* //
