/*--------------------------------*- C++ -*----------------------------------*\
| =========                 |                                                 |
| \\      /  F ield         | OpenFOAM: The Open Source CFD Toolbox           |
|  \\    /   O peration     | Version:  2312                                  |
|   \\  /    A nd           | Website:  www.openfoam.com                      |
|    \\/     M anipulation  |                                                 |
\*---------------------------------------------------------------------------*/
FoamFile
{
    version     2.0;
    format      ascii;
    arch        "LSB;label=32;scalar=64";
    class       volScalarField;
    location    "4.2";
    object      alpha.galistan;
}
// * * * * * * * * * * * * * * * * * * * * * * * * * * * * * * * * * * * * * //

dimensions      [0 0 0 0 0 0 0];

internalField   nonuniform List<scalar> 
2268
(
1
1
1
1
1
1
1
1
1
1
1
1
1
1
1
1
1
1
1
0.999993
0.999957
0.999954
0.999954
1
1
1
1
1
1
1
1
1
1
1
1
1
1
1
1
1
1
1
1
0.999994
0.99998
0.999981
1
1
1
1
1
1
1
1
1
1
1
1
1
1
1
1
0.999999
0.999999
0.999999
1
1
1
1
1
1
1
1
1
1
1
1
1
1
1
1
1
1
1
1
1
1
1
1
1
0.999953
0.998461
1
1
1
1
1
1
0.999999
0.99997
0.999906
0.999885
0.999924
0.999919
0.99924
0.994563
0.987111
0.978005
0.964044
0.952158
0.940955
0.929292
0.92127
0.915227
0.898303
1
1
1
1
0.999971
0.999904
0.998729
0.974441
0.914967
0.830289
0.737101
0.645088
0.544268
0.462996
0.401955
0.348954
0.311614
0.282186
0.257722
0.237045
0.221131
0.209158
0.207641
0.997992
0.996894
0.998147
0.999011
0.92429
0.735472
0.520584
0.327264
0.191258
0.101137
0.0432657
0.00608043
1.21263e-20
-5.00024e-26
8.13653e-25
7.96571e-11
5.00903e-13
3.54302e-14
3.298e-14
3.54301e-14
3.29801e-14
3.54301e-14
0.000163339
0.958466
0.900143
0.750595
0.489161
0.232149
0.0789416
0.0050992
5.24949e-05
5.11204e-05
1.92947e-05
4.38035e-06
2.63896e-06
2.76766e-06
2.57078e-07
6.80334e-06
0.000123653
4.65839e-05
1.21437e-05
2.62681e-05
0.000154133
0.000172942
0.000123217
7.73881e-05
0.957731
0.957732
0.957732
0.957732
0.957732
0.955869
0.954433
0.956256
0.956265
0.956265
0.955744
0.956004
0.957256
0.96339
0.964945
0.964599
0.962473
0.961802
0.961719
0.850267
0.935148
0.941007
0.939669
0.937388
0.931928
0.933587
0.938484
0.945046
0.946933
0.966434
0.966571
0.9666
0.966024
0.962081
0.960908
0.960193
0.954869
0.95624
0.462191
0.461409
0.463646
0.439339
0.399712
0.41767
0.466305
0.56489
0.614942
0.656387
0.692131
0.753873
0.740767
0.679029
0.645031
0.637529
0.642933
0.611989
0.56633
0.0270976
0.0210718
0.0185721
0.0205674
0.0285004
0.0220111
0.0224499
0.0166813
0.085019
0.230416
0.309875
0.315101
0.338706
0.326506
0.256973
0.182984
0.140147
0.14077
0.178887
0.00427922
0.0119281
0.0106629
0.0191685
0.0268853
0.0333634
0.0328914
0.021843
2.80697e-05
2.80697e-05
0.000149116
2.80697e-05
2.97409e-05
2.80697e-05
3.04693e-05
2.30472e-05
0.000669113
0.00075208
0.000755507
0.000415805
0.00510138
0.000145673
0.000184242
0.00275084
0.0328216
0.0393511
0.0399148
0.00774573
2.80697e-05
2.80697e-05
0.00122126
0.000906222
0.000764558
0.000694978
0.000739492
0.00236674
0.00188112
0.00105656
0.000406505
0.000394286
0.000148963
0.000184811
0.000110792
1.59201e-05
0.0107845
0.0261844
0.0151751
0.000430213
0.000628088
0.00253991
0.00171891
0.000868947
0.00422742
0.00817387
0.00690105
0.0045429
0.00137787
0.000522386
0.000613919
0.00124365
0.00112111
0.000343645
1.58327e-05
1.59306e-05
0.00463249
0.00841842
0.00262927
0.00166865
0.00208887
0.00163839
0.000995255
0.0167476
0.0166449
0.00566862
0.00353124
0.00112389
0.139699
0.0988968
0.0397829
0.00379003
1.86003e-10
1.86999e-10
3.01339e-06
9.78997e-06
3.90914e-05
6.1332e-05
6.17763e-05
6.17324e-05
2.75819e-05
2.66549e-06
0.000308331
0.000948682
0.00124061
0.000842595
0.000634674
0.0011257
0.00138587
0.00126994
0.000704972
2.34883e-05
2.32775e-05
1.88238e-05
6.39172e-06
2.79706e-05
5.38182e-05
7.04738e-05
0.000101538
0.000107463
5.42514e-05
1.12722e-05
8.18591e-06
5.55566e-06
2.3136e-06
0.00056701
0.00223598
0.00223956
0.00186235
0.00190616
0.00224223
0.00453458
0.0051708
0.00517184
3.63498e-05
2.22648e-05
5.53676e-06
5.61929e-06
0.000178554
0.000385717
0.00033443
0.000311839
0.000129536
5.32552e-05
0.000144602
0.000535944
0.000514161
0.000396441
0.00159513
0.00223961
0.00147893
0.00361299
0.00583758
0.00583777
0.00556243
0.00492581
0.00432016
0.000427754
0.000154267
0.000184057
0.00093999
0.00259418
0.00259421
0.00219994
0.000378808
7.13631e-05
7.42983e-05
0.000497179
0.00113179
0.00110046
0.000878831
0.000185909
0.00021299
0.00116507
0.00245698
0.00188972
0.000756331
0.000253613
0.000211518
0.000113329
0.00059571
0.000597605
0.000866452
0.00224181
0.00255232
0.00259417
0.00242802
0.000368262
7.10704e-05
8.48349e-05
0.000253078
0.000186176
9.7579e-05
2.02387e-05
2.02353e-05
0.000169
0.000515279
2.61431e-05
0.000121706
0.000115868
0.000133886
0.000211003
0.000140892
0.000487234
0.000391075
0.000270662
0.000272559
0.000492945
0.000559964
0.000434704
0.000273566
0.000132504
0.000116258
8.33547e-05
2.07652e-05
2.07762e-05
2.21481e-05
5.72595e-05
5.50652e-05
2.0142e-05
6.51242e-06
7.17242e-08
7.17999e-08
8.7425e-07
3.57009e-05
0.000167448
0.000113656
0.000113591
0.000168218
0.000336908
0.000456411
0.000411577
0.000411597
0.000475877
0.000591188
0.000591011
0.000361141
3.44052e-05
0.000107417
0.000499773
0.000708095
0.000681181
0.000647645
0.000374584
3.62476e-05
2.46162e-07
1.73886e-07
1.42276e-06
1.25155e-05
0.000129403
0.000247863
0.000572669
0.00057334
0.00057359
0.000573218
0.000569762
0.000535457
0.000402462
0.000164301
1.57708e-05
2.45967e-05
0.000421232
0.000913907
0.000938275
0.000983541
0.000987399
0.000940704
0.00018161
4.73119e-05
1.27541e-05
1.01902e-05
2.74605e-06
3.40721e-05
5.62242e-07
3.3782e-05
0.000178806
0.000202922
0.00010551
6.68107e-10
6.65541e-10
6.66626e-10
6.88745e-10
2.99312e-06
2.3285e-05
2.19551e-05
1.25899e-06
9.9973e-06
4.49865e-05
0.000165969
0.000224756
0.000205447
5.98673e-05
3.34781e-05
3.14722e-05
2.13113e-05
1.22672e-09
6.04515e-10
3.79179e-23
1.97627e-23
1.50331e-15
1.3223e-14
2.1954e-09
1.30432e-09
1.48126e-09
3.10141e-08
1.43431e-07
1.44013e-07
1.09597e-07
8.02259e-08
5.90868e-08
4.05056e-08
2.80736e-07
1.53575e-07
1.52884e-06
1.16299e-05
8.01831e-06
2.68808e-06
1.48497e-05
1.54227e-09
1.68707e-09
1.92165e-09
6.02133e-09
9.93579e-09
4.79891e-08
6.1512e-08
6.55676e-08
9.43183e-08
3.02301e-07
3.05371e-07
2.2883e-07
1.09891e-07
2.16399e-07
2.49394e-07
9.36143e-08
1.23854e-06
1.91219e-06
1.91202e-06
1.31319e-06
9.00025e-09
2.16161e-07
8.49944e-07
1.54224e-09
2.44723e-09
2.45675e-09
2.50753e-09
8.79936e-08
1.77919e-07
8.17837e-08
2.48758e-07
2.84914e-07
3.03157e-07
1.35138e-07
1.15899e-07
1.74664e-07
6.71533e-07
6.77417e-07
5.94154e-07
3.08089e-07
4.26302e-07
2.49869e-07
3.15372e-08
1.09206e-09
9.80195e-10
1.28207e-07
1.49313e-09
2.90707e-09
4.24654e-09
1.67234e-08
1.62935e-07
1.78014e-07
8.55925e-08
4.1292e-08
6.6636e-08
7.61047e-08
1.2713e-08
1.57038e-07
5.48126e-07
7.95768e-07
1.82189e-07
2.51795e-09
2.84816e-09
1.60295e-07
4.40563e-07
3.26932e-07
5.02486e-08
1.56564e-09
2.01959e-07
1.42128e-09
3.21985e-09
1.11013e-08
3.32451e-08
5.18945e-08
2.22353e-08
8.65029e-09
4.0792e-08
7.50511e-08
2.96333e-08
1.25987e-08
5.27891e-07
1.00092e-06
1.00112e-06
3.85092e-07
1.70479e-08
4.57797e-07
1.56915e-06
1.54527e-06
8.60905e-07
4.20974e-08
2.40664e-07
4.06602e-07
1.33686e-09
2.76857e-09
7.09023e-09
3.90767e-09
1.63426e-09
1.63744e-09
8.53109e-09
2.53376e-08
1.75106e-08
7.98604e-09
1.24529e-08
5.3625e-07
8.25143e-07
5.69213e-07
1.70104e-07
1.47814e-07
1.08878e-06
1.57967e-06
1.57806e-06
7.84846e-07
2.44196e-08
7.35573e-08
1.96059e-07
1.18562e-09
1.92698e-09
3.09291e-09
1.67704e-09
1.63474e-09
2.28053e-09
7.07716e-09
1.92719e-09
1.93059e-09
4.13083e-09
3.025e-08
4.55965e-10
4.56391e-10
4.55976e-10
2.03153e-09
1.56453e-07
5.16933e-07
1.43065e-06
1.57971e-06
6.77838e-07
2.58579e-07
1.79095e-08
4.81425e-08
1.01867e-09
1.32395e-09
1.76954e-09
1.56026e-09
1.69809e-09
2.22082e-09
1.56451e-09
1.9235e-09
3.996e-09
6.28822e-09
1.51096e-09
4.5627e-10
4.56112e-10
1.03736e-09
6.03582e-09
1.90516e-08
7.42469e-09
4.83394e-08
6.79399e-07
1.0038e-06
9.5395e-07
6.20802e-09
4.57463e-09
8.7002e-10
8.90412e-10
1.18614e-09
1.26264e-09
1.50787e-09
1.67608e-09
1.56162e-09
2.40565e-09
3.67993e-09
3.36174e-09
6.83787e-10
4.81084e-10
5.16577e-10
8.09967e-10
9.30097e-10
4.38043e-10
4.39157e-10
4.38923e-10
4.40339e-10
4.59682e-07
9.90325e-07
7.87562e-07
4.58992e-08
8.21624e-10
6.54857e-10
8.68381e-10
9.94204e-10
1.24263e-09
1.33215e-09
1.26353e-09
1.39279e-09
1.38914e-09
1.04231e-09
6.20906e-10
4.83701e-10
5.22811e-10
6.94286e-10
7.43048e-10
4.55829e-10
4.56971e-10
4.51437e-10
4.45459e-10
4.46716e-10
1.02581e-07
3.91445e-07
1.70816e-07
7.6019e-10
4.50293e-10
6.02709e-10
6.87429e-10
8.14559e-10
8.31211e-10
7.70295e-10
6.59339e-10
5.52904e-10
4.69884e-10
3.88322e-10
3.52027e-10
3.08511e-10
2.9561e-10
3.26469e-10
3.92328e-10
4.51211e-10
5.73911e-10
7.4338e-10
8.58845e-10
8.58451e-10
1.45828e-08
5.81032e-08
7.26463e-10
3.13076e-10
3.7861e-10
4.08482e-10
4.15397e-10
3.92811e-10
3.45577e-10
2.9175e-10
2.60592e-10
2.29236e-10
2.09433e-10
1.78976e-10
1.62048e-10
1.60162e-10
1.68025e-10
1.9297e-10
2.47506e-10
3.81563e-10
6.45286e-10
9.9897e-10
1.30947e-09
1.49743e-09
7.67596e-09
6.89401e-10
2.01494e-10
2.08857e-10
1.97667e-10
1.77039e-10
1.49415e-10
1.2066e-10
1.037e-10
8.57079e-11
7.50283e-11
7.0948e-11
6.32812e-11
5.58474e-11
5.31321e-11
5.57478e-11
6.16384e-11
7.45901e-11
1.02698e-10
1.58396e-10
2.59578e-10
3.75299e-10
4.91377e-10
5.63079e-10
6.68238e-10
1.39591e-10
1.14868e-10
9.62024e-11
8.14922e-11
6.90221e-11
5.67632e-11
4.31485e-11
3.20915e-11
2.47188e-11
2.02867e-11
1.76241e-11
1.55774e-11
1.53399e-11
1.6229e-11
1.8351e-11
2.20585e-11
2.83629e-11
4.00344e-11
5.85868e-11
8.56485e-11
1.33733e-10
1.93574e-10
6.49878e-10
9.19743e-11
6.59725e-11
6.17943e-11
6.51058e-11
6.47501e-11
5.44954e-11
4.0296e-11
2.44027e-11
1.35179e-11
7.84267e-12
5.2551e-12
4.16313e-12
3.9224e-12
4.35404e-12
5.34559e-12
6.91456e-12
9.14769e-12
1.31905e-11
1.95161e-11
2.88634e-11
4.37294e-11
6.32673e-11
6.41703e-10
6.92971e-11
5.1509e-11
6.40875e-11
8.68851e-11
9.40907e-11
8.01141e-11
5.96582e-11
3.44389e-11
1.7227e-11
8.00394e-12
3.52119e-12
1.73268e-12
1.15986e-12
1.16752e-12
1.50929e-12
2.10726e-12
3.07121e-12
4.45869e-12
6.46033e-12
9.75749e-12
1.49253e-11
2.26199e-11
6.34406e-10
6.1885e-11
5.37784e-11
9.34091e-11
1.33435e-10
1.51954e-10
1.25073e-10
9.13332e-11
5.19446e-11
2.59662e-11
1.17602e-11
4.73119e-12
1.78826e-12
7.02698e-13
4.03054e-13
4.32347e-13
6.24468e-13
9.87044e-13
1.55983e-12
2.43313e-12
3.69547e-12
6.02743e-12
8.64128e-12
6.42033e-10
6.2808e-11
7.18776e-11
1.46177e-10
2.14667e-10
2.60237e-10
2.0252e-10
1.30879e-10
7.2782e-11
3.69736e-11
1.7045e-11
6.96412e-12
2.59597e-12
8.75788e-13
2.89143e-13
1.5356e-13
1.86419e-13
3.07123e-13
5.12342e-13
8.25679e-13
1.36484e-12
2.14932e-12
3.55341e-12
6.46829e-10
7.32842e-11
1.0742e-10
2.26789e-10
3.78579e-10
4.60998e-10
3.39682e-10
1.72887e-10
9.18267e-11
4.79975e-11
2.27216e-11
9.73182e-12
3.69442e-12
1.28385e-12
3.81337e-13
1.10631e-13
6.25219e-14
8.9841e-14
1.66365e-13
2.99941e-13
5.12669e-13
9.52701e-13
1.39448e-12
6.70401e-10
9.63803e-11
2.03299e-10
5.13287e-10
7.62791e-10
7.92083e-10
4.56302e-10
2.19025e-10
1.03863e-10
5.63962e-11
2.75739e-11
1.21229e-11
4.85737e-12
1.78645e-12
5.50566e-13
1.44917e-13
3.98361e-14
2.83578e-14
5.04061e-14
9.51169e-14
1.92163e-13
3.20379e-13
6.17964e-13
6.87933e-10
1.24079e-10
3.54855e-10
8.98412e-10
1.23651e-09
1.22843e-09
7.14833e-10
2.72193e-10
1.11074e-10
6.02148e-11
3.06275e-11
1.3715e-11
5.77047e-12
2.24126e-12
7.3894e-13
2.12345e-13
4.9229e-14
1.40825e-14
1.61914e-14
3.30837e-14
6.74636e-14
1.56323e-13
2.53471e-13
7.59814e-10
1.6687e-10
4.98084e-10
1.25696e-09
1.47806e-09
1.39988e-09
9.34483e-10
3.50306e-10
1.15716e-10
5.78052e-11
3.05831e-11
1.39876e-11
6.1601e-12
2.47859e-12
9.14982e-13
2.83631e-13
7.04052e-14
1.40969e-14
6.55036e-15
1.17251e-14
3.06632e-14
6.17923e-14
1.38013e-13
8.06257e-10
2.06512e-10
6.62951e-10
1.3391e-09
1.51363e-09
1.41994e-09
9.83335e-10
3.79734e-10
1.23401e-10
5.28219e-11
2.79516e-11
1.2842e-11
5.77905e-12
2.48725e-12
9.76278e-13
3.34348e-13
9.39979e-14
2.0605e-14
4.17783e-15
4.66024e-15
1.17346e-14
3.74675e-14
7.2281e-14
9.25512e-10
2.66387e-10
7.54119e-10
1.3524e-09
1.51371e-09
1.40547e-09
9.51947e-10
3.76938e-10
1.27839e-10
4.93421e-11
2.35417e-11
1.06052e-11
4.96278e-12
2.18347e-12
9.05681e-13
3.41806e-13
1.09464e-13
2.7694e-14
5.30399e-15
2.12146e-15
5.04332e-15
1.36447e-14
4.362e-14
9.95774e-10
2.78491e-10
7.30368e-10
1.29849e-09
1.32135e-09
1.17435e-09
8.3056e-10
3.69743e-10
1.226e-10
4.3197e-11
1.81692e-11
8.05649e-12
3.86389e-12
1.69648e-12
7.24831e-13
2.97218e-13
1.08308e-13
3.05921e-14
6.53849e-15
1.27491e-15
1.94748e-15
9.00288e-15
2.03681e-14
1.19578e-09
2.89592e-10
6.30781e-10
1.05067e-09
9.06142e-10
8.63394e-10
7.01653e-10
3.53889e-10
1.08781e-10
3.41439e-11
1.29461e-11
5.77624e-12
2.67428e-12
1.18369e-12
5.01112e-13
2.15409e-13
8.88562e-14
2.96031e-14
7.12923e-15
1.15162e-15
7.06567e-16
2.08783e-15
9.27007e-15
1.31835e-09
3.20062e-10
4.3039e-10
7.14979e-10
7.14859e-10
7.98019e-10
6.15229e-10
3.25702e-10
9.47432e-11
2.46837e-11
8.59989e-12
3.69594e-12
1.69865e-12
7.25284e-13
2.98298e-13
1.28845e-13
5.83831e-14
2.29168e-14
6.65544e-15
1.30335e-15
3.88604e-16
1.07536e-15
3.17417e-15
1.59434e-09
4.21624e-10
3.87356e-10
5.58791e-10
6.09555e-10
7.11974e-10
5.41572e-10
2.72349e-10
7.49971e-11
1.62551e-11
5.05955e-12
2.11669e-12
9.68269e-13
3.98403e-13
1.52673e-13
6.32149e-14
2.93096e-14
1.34438e-14
4.86455e-15
1.16793e-15
1.62041e-16
1.70356e-16
1.14239e-15
1.7668e-09
6.89079e-10
4.04568e-10
5.48529e-10
6.20814e-10
6.17934e-10
4.3589e-10
2.05951e-10
5.80594e-11
9.06837e-12
2.51027e-12
1.05927e-12
4.89604e-13
1.95808e-13
6.86897e-14
2.52214e-14
1.1034e-14
5.48153e-15
2.49403e-15
8.03616e-16
1.22703e-16
6.74015e-17
2.0013e-16
2.0533e-09
9.27155e-10
6.00692e-10
6.39423e-10
6.62007e-10
5.52291e-10
3.2437e-10
1.33925e-10
3.55299e-11
4.74332e-12
9.9503e-13
4.41862e-13
2.1175e-13
8.42388e-14
2.73301e-14
8.18388e-15
3.06651e-15
1.47078e-15
7.95764e-16
3.68483e-16
8.81385e-17
1.64078e-17
4.03415e-17
2.16136e-09
1.2057e-09
8.52216e-10
7.58921e-10
6.69327e-10
4.35083e-10
2.05193e-10
6.89308e-11
1.59082e-11
1.79329e-12
2.99048e-13
1.42465e-13
7.35089e-14
2.97259e-14
9.17407e-15
2.33061e-15
6.39006e-16
2.51834e-16
1.58377e-16
1.11765e-16
3.80276e-17
6.12031e-18
6.63616e-18
2.16204e-09
1.44927e-09
9.98641e-10
8.53231e-10
5.61808e-10
2.5634e-10
9.03223e-11
2.35405e-11
3.89608e-12
3.49011e-13
5.74824e-14
3.0118e-14
1.72906e-14
7.3531e-15
2.21293e-15
4.87362e-16
9.187e-17
2.47837e-17
1.91762e-17
2.1671e-17
1.29105e-17
2.73978e-18
1.33621e-18
2.14697e-09
1.58473e-09
1.09004e-09
6.30015e-10
2.29743e-10
6.59178e-11
1.68613e-11
2.99141e-12
3.09465e-13
1.80018e-14
5.20706e-15
3.14999e-15
2.08136e-15
9.46433e-16
2.88429e-16
5.52815e-17
7.26382e-18
1.20366e-18
1.39772e-18
2.83602e-18
3.63105e-18
1.31415e-18
3.60413e-19
0.000712347
0.000754322
0.000829495
0.000476346
0.00513585
0.005149
0.00515299
0.00156254
0.00384799
0.00289001
0.00140739
0.000969571
0.000261461
0.000630935
0.000897278
0.00189618
9.37942e-05
0.000105342
0.000311325
0.00032418
0.000198235
0.000179556
0.000121986
0.000121309
8.9929e-05
0.000270867
0.00026384
0.000159043
3.02122e-06
4.70782e-05
0.000195363
0.000181571
4.19966e-06
4.25416e-06
1.32182e-05
9.2443e-05
1.56272e-05
9.89953e-06
2.14185e-07
2.94192e-07
2.58331e-06
4.49138e-06
1.5512e-06
1.88444e-07
3.2306e-07
6.00553e-07
5.22282e-07
1.55092e-07
2.38783e-07
1.09281e-07
1.15719e-07
2.58572e-07
4.0534e-07
1.02186e-07
8.64191e-08
9.68254e-08
2.09993e-07
1.35044e-07
3.08181e-07
3.07078e-06
5.22618e-09
5.51827e-09
3.12877e-06
6.22445e-06
1.12713e-09
1.41851e-08
1.17859e-06
3.36637e-06
1.12785e-09
2.37408e-08
6.06111e-08
3.17336e-08
1.12507e-09
8.20697e-09
4.99171e-09
5.09886e-09
1.04e-08
1.21999e-08
1.36257e-08
1.37811e-08
7.79652e-09
9.63392e-09
1.07211e-08
9.63351e-09
1.64676e-09
2.43641e-09
3.0128e-09
3.07087e-09
3.09392e-10
2.98505e-10
5.40266e-10
6.06437e-10
8.80361e-11
1.05371e-10
1.15934e-10
1.48394e-10
3.09473e-11
3.68803e-11
4.55e-11
5.15874e-11
1.27371e-11
1.57228e-11
1.82949e-11
2.27141e-11
5.1959e-12
6.76067e-12
8.79619e-12
1.02815e-11
2.32424e-12
2.94499e-12
3.67926e-12
4.92036e-12
9.43109e-13
1.26808e-12
1.74273e-12
2.10054e-12
4.65632e-13
6.3252e-13
8.0846e-13
1.1298e-12
2.39169e-13
3.37349e-13
5.02095e-13
6.38255e-13
1.56385e-13
2.31457e-13
3.18728e-13
4.8815e-13
8.5187e-14
1.34831e-13
2.27474e-13
3.15204e-13
5.58513e-14
8.65484e-14
1.33393e-13
2.23474e-13
2.04416e-14
3.69625e-14
7.29169e-14
1.09211e-13
9.68995e-15
1.67997e-14
2.89013e-14
5.5509e-14
2.8952e-15
5.57289e-15
1.11542e-14
1.82049e-14
7.20728e-16
1.32641e-15
2.5678e-15
5.60161e-15
1.20238e-16
2.43545e-16
5.0993e-16
9.6075e-16
2.09769e-17
4.1368e-17
8.69165e-17
1.98212e-16
3.2614e-18
6.52665e-18
1.34322e-17
2.50973e-17
5.14725e-19
9.20972e-19
1.63547e-18
2.72871e-18
0.000283481
0.000284145
0.00193135
0.00218478
0.000477114
1.80465e-05
0.000150143
0.00143585
0.00331693
0.00295893
0.0151072
0.0118493
0.00164125
0.00728333
0.0168899
0.00327377
0.00341445
0.00396069
0.00111894
0.000289558
0.00192323
0.00228278
0.00134574
0.000432328
0.00510047
0.00689661
0.00205497
0.00208676
0.0187702
0.0220671
0.0220663
0.0156902
0.0218662
0.00539248
0.00443198
0.00867718
0.010994
0.00370116
0.00215063
0.00197048
0.000795678
0.000864488
0.00703194
0.0110253
0.0110239
0.00356982
0.00355343
0.0203794
0.0220675
0.0220683
0.0220673
0.0220671
0.0132736
0.0107183
0.0109958
0.0109885
0.0109958
0.00198871
0.000689288
0.000805569
0.00287828
0.0110283
0.0110233
0.0107488
0.00260811
0.000316954
0.0120606
0.0208275
0.0216042
0.0220615
0.020853
0.0120607
0.0101972
0.00835852
0.0078385
0.00695938
0.000914477
0.00159485
0.000699981
0.000945646
0.00108839
0.00325726
0.00617109
0.00251226
0.000257429
0.00156625
0.0039542
0.00297832
0.00400611
0.00356702
0.00197229
0.00164022
0.00198694
0.000551635
0.00206538
0.000269242
0.00173237
0.00180082
0.000726548
0.000736032
0.000494932
5.38423e-05
0.000404818
0.000243395
0.000358601
0.0013083
0.00121011
0.00130774
0.00122178
0.000721625
0.000235916
0.000249095
0.000250106
0.00155813
8.32538e-05
0.000936653
0.0026425
0.00202832
0.000582427
0.000100123
5.32277e-05
5.26579e-05
5.21286e-05
5.09404e-05
4.18883e-05
0.000116031
0.000547948
0.000891021
0.00069635
0.000235737
0.000249559
0.00116357
0.00212222
3.10981e-05
0.000341185
0.00277559
0.00309918
0.0030988
0.00193183
0.000946071
0.000658244
0.000282066
4.62325e-05
4.17887e-05
4.19316e-05
0.000158846
5.51809e-05
4.8167e-05
4.58007e-05
0.000716774
0.00330422
0.00404039
1.65808e-05
0.000147717
0.00123496
0.0018399
0.00176177
0.00215862
0.00254049
0.00254798
0.00208745
0.00103733
0.000729514
0.00120561
0.00255438
0.00204652
0.00059979
4.58108e-05
0.000617347
0.00467208
0.00675652
2.41882e-06
1.48452e-05
6.58348e-06
1.03223e-05
7.82981e-06
3.80907e-06
2.60799e-05
0.000365184
0.00116745
0.00196362
0.00230607
0.00357651
0.00466605
0.00466843
0.00404396
0.00234935
0.00322465
0.00675659
0.00675662
6.19222e-06
1.21715e-05
8.57689e-06
1.79151e-06
3.01242e-07
1.25448e-06
6.02588e-07
-8.21162e-09
5.63069e-25
1.95212e-09
4.24496e-09
1.73756e-05
0.00162149
0.00421064
0.00539359
0.00675663
0.00675662
0.00675663
0.00675662
3.62869e-06
7.59069e-06
6.7205e-06
1.52209e-06
3.42291e-07
3.05514e-07
8.62098e-07
1.24263e-06
1.06981e-06
1.51982e-07
7.48856e-08
2.83714e-08
9.50356e-09
0.000156662
0.00157541
0.0042324
0.00675663
0.0067566
0.00675662
1.45165e-06
2.79936e-06
1.57529e-06
4.49662e-07
4.49503e-07
1.48648e-06
1.65079e-06
1.18962e-06
1.78104e-08
9.38209e-09
9.39177e-09
9.38213e-09
9.48405e-09
9.45076e-09
9.47862e-09
0.000379861
0.00219844
0.00421418
0.00492574
9.1538e-08
2.37839e-06
9.54207e-07
4.47989e-07
1.38297e-07
5.05937e-07
4.85761e-08
4.66195e-08
1.58282e-06
5.84468e-06
7.53339e-06
5.65648e-06
3.81035e-07
1.08806e-08
1.33619e-07
3.31455e-06
2.22513e-06
1.1395e-05
0.000135173
5.30888e-06
4.65494e-06
1.56901e-06
6.69196e-08
6.70623e-08
2.69935e-07
1.76525e-06
9.25379e-06
9.93691e-06
9.8797e-06
8.09219e-06
3.47462e-06
2.46731e-10
9.95788e-08
1.06685e-07
7.45948e-07
2.09393e-06
6.2807e-06
1.84701e-05
6.22005e-06
6.13616e-06
5.91071e-07
6.7007e-08
6.69968e-08
5.51526e-07
8.17216e-06
1.00544e-05
9.78156e-06
4.46623e-06
3.05272e-10
4.78635e-08
2.58729e-10
1.5151e-09
2.36231e-07
1.01153e-06
2.33656e-06
4.71478e-06
4.7939e-06
5.09701e-06
6.15764e-06
4.01506e-06
5.47908e-07
7.24601e-08
3.38516e-07
3.47544e-06
7.95662e-06
6.13359e-06
1.74469e-07
3.2601e-10
1.09719e-09
3.76988e-10
3.79431e-10
4.36716e-10
7.00874e-07
4.85919e-06
6.04957e-06
6.04767e-06
2.41593e-07
8.70058e-07
2.25945e-06
2.22908e-06
1.23502e-06
1.46213e-07
1.05117e-06
1.50467e-06
5.89663e-07
2.47815e-09
2.82482e-09
3.85618e-08
8.88736e-08
1.20413e-08
4.53036e-10
3.01337e-07
2.02085e-06
6.04747e-06
5.0412e-06
4.9656e-09
5.10029e-09
6.93699e-08
1.22487e-06
1.24691e-06
5.85764e-07
1.46305e-07
1.49114e-07
3.7236e-07
2.55721e-07
1.17644e-06
1.74796e-06
9.68739e-07
5.01995e-07
8.76543e-08
5.07157e-08
1.75123e-07
4.21768e-06
1.55409e-06
1.13569e-08
6.82856e-09
3.18172e-09
1.02553e-08
5.24357e-07
6.64315e-07
5.82556e-07
1.58975e-07
7.40767e-08
6.77762e-07
2.2905e-06
2.29126e-06
2.29139e-06
1.56759e-06
6.61084e-07
1.62076e-07
1.11417e-07
2.08e-07
5.77508e-07
6.83929e-09
5.37495e-09
3.20394e-09
1.12319e-09
1.13132e-09
2.27856e-07
5.68916e-07
2.54344e-07
7.41606e-08
1.5926e-07
1.39886e-06
2.21974e-06
2.28896e-06
2.28723e-06
1.89336e-06
1.00115e-07
2.91519e-07
6.32903e-07
2.37443e-07
2.49521e-09
2.21119e-09
2.16032e-09
1.33197e-09
1.18076e-09
1.1991e-09
3.89522e-08
9.36938e-08
7.83522e-08
4.12324e-08
8.44228e-08
1.68465e-07
1.53427e-06
2.28779e-06
1.41813e-06
4.72858e-11
3.13154e-06
2.89607e-06
2.4116e-07
6.0454e-10
8.43731e-10
1.0505e-09
9.1211e-10
1.56508e-09
1.55552e-09
1.57417e-09
1.59393e-09
5.97085e-09
4.1806e-09
4.21881e-09
3.40428e-08
1.77939e-07
4.15374e-07
5.31748e-07
-2.76074e-09
3.62167e-06
3.62676e-06
2.40981e-07
1.66655e-10
2.62183e-10
4.16437e-10
6.15532e-10
1.13584e-09
1.61917e-09
2.38235e-09
3.74578e-09
8.19318e-09
9.76231e-09
7.27042e-09
7.54783e-09
1.60511e-08
2.83633e-09
-4.01371e-26
-1.90454e-11
3.32947e-06
3.01123e-06
1.334e-07
6.26184e-11
9.77302e-11
1.63492e-10
2.86427e-10
5.34594e-10
9.20017e-10
2.01475e-09
3.96812e-09
8.18593e-09
9.0373e-09
5.77264e-09
2.66516e-09
3.13585e-09
1.26001e-09
4.07812e-10
1.12904e-15
1.57274e-06
7.52491e-07
1.20443e-07
2.70624e-11
4.19112e-11
6.686e-11
1.08384e-10
1.7968e-10
3.01651e-10
5.77912e-10
1.27631e-09
2.38548e-09
2.85659e-09
2.11959e-09
1.94034e-09
2.37651e-09
3.60786e-09
1.72067e-09
1.70712e-15
1.41295e-07
1.238e-07
3.97867e-08
1.30764e-11
2.08546e-11
3.39343e-11
5.50024e-11
8.86564e-11
1.38637e-10
2.12568e-10
3.5589e-10
5.89366e-10
9.49939e-10
1.20853e-09
2.15313e-09
3.23712e-09
5.81934e-09
1.61984e-09
5.7571e-08
5.47742e-08
1.0506e-08
1.4036e-08
6.05713e-12
1.02303e-11
1.73978e-11
2.956e-11
5.0664e-11
8.41677e-11
1.39855e-10
2.32362e-10
3.98147e-10
7.06322e-10
1.18231e-09
2.16962e-09
3.49617e-09
6.53714e-09
1.63396e-09
9.86154e-08
6.15317e-08
1.02055e-08
8.15949e-09
2.86401e-12
4.90069e-12
8.56087e-12
1.50842e-11
2.64345e-11
4.77846e-11
8.45739e-11
1.52059e-10
2.89987e-10
5.49337e-10
1.04208e-09
1.90687e-09
2.95957e-09
5.8291e-09
2.63443e-09
9.90188e-08
6.32764e-08
1.17277e-08
8.14946e-09
1.4446e-12
2.54731e-12
4.44522e-12
7.82325e-12
1.3995e-11
2.63263e-11
4.94091e-11
9.46707e-11
1.88387e-10
3.89099e-10
7.9548e-10
1.49552e-09
2.20254e-09
4.19679e-09
3.99665e-09
6.7796e-08
3.90367e-08
9.71521e-09
7.7883e-09
9.28698e-13
1.58932e-12
2.7552e-12
4.72371e-12
8.20187e-12
1.50359e-11
2.91451e-11
5.85114e-11
1.21186e-10
2.66191e-10
5.65619e-10
1.12797e-09
1.76242e-09
2.97173e-09
8.28704e-09
3.10111e-08
1.26253e-08
6.81992e-09
7.34712e-09
6.48959e-13
1.17535e-12
2.05946e-12
3.47886e-12
5.84155e-12
9.63499e-12
1.59795e-11
2.90141e-11
5.97046e-11
1.36812e-10
3.09227e-10
6.29159e-10
1.1965e-09
2.64036e-09
8.79938e-09
6.02002e-09
6.01937e-09
6.01666e-09
6.01594e-09
4.99308e-13
8.96804e-13
1.64628e-12
2.93938e-12
5.13835e-12
8.43905e-12
1.37244e-11
2.183e-11
3.57323e-11
6.23923e-11
1.27271e-10
2.79837e-10
7.91629e-10
1.75584e-09
8.66165e-09
8.19573e-09
6.02016e-09
6.01931e-09
1.35876e-08
3.12169e-13
6.38585e-13
1.25595e-12
2.39614e-12
4.47571e-12
7.87548e-12
1.3373e-11
2.14819e-11
3.3452e-11
5.18056e-11
8.27001e-11
1.37927e-10
2.32843e-10
6.24948e-10
1.19292e-08
5.99714e-08
5.02419e-08
6.02014e-09
3.1015e-08
1.87062e-13
3.96944e-13
8.59646e-13
1.79767e-12
3.61396e-12
6.93334e-12
1.25337e-11
2.17467e-11
3.5717e-11
5.39224e-11
8.3244e-11
1.23908e-10
1.58559e-10
3.405e-10
9.14528e-09
8.95547e-08
1.5367e-07
3.45797e-08
1.4181e-07
8.46788e-14
2.07587e-13
4.96124e-13
1.15196e-12
2.58044e-12
5.44616e-12
1.09014e-11
2.11284e-11
3.70075e-11
6.00185e-11
9.11822e-11
1.34945e-10
2.00564e-10
8.15542e-10
1.16689e-08
5.89504e-08
1.65691e-07
1.68066e-07
1.6804e-07
3.2568e-14
8.81323e-14
2.35291e-13
6.05438e-13
1.60931e-12
3.86675e-12
8.63757e-12
1.81545e-11
3.4958e-11
6.31293e-11
1.05206e-10
1.61729e-10
2.35165e-10
3.84896e-10
5.79762e-09
4.08771e-08
1.28097e-07
1.68424e-07
1.60406e-07
9.69637e-15
2.92771e-14
8.79826e-14
2.78055e-13
8.27422e-13
2.25724e-12
5.91324e-12
1.37208e-11
2.89965e-11
5.85519e-11
1.05688e-10
1.82734e-10
2.95659e-10
4.74097e-10
1.19933e-09
1.39416e-08
4.16536e-08
1.55262e-07
4.42211e-08
2.32417e-15
7.44646e-15
2.63544e-14
9.3927e-14
3.23785e-13
1.03941e-12
3.13458e-12
8.35285e-12
2.03224e-11
4.49764e-11
8.99273e-11
1.7177e-10
3.02829e-10
5.12587e-10
8.51051e-10
1.77626e-09
1.40668e-08
1.6776e-08
1.0904e-09
3.81704e-16
1.39694e-15
5.67926e-15
2.40771e-14
9.98401e-14
4.03181e-13
1.4262e-12
4.51516e-12
1.26375e-11
3.12702e-11
6.88586e-11
1.42458e-10
2.76048e-10
4.9676e-10
8.06891e-10
1.12133e-09
1.11417e-09
2.99152e-09
1.08329e-09
4.77911e-17
1.69684e-16
7.42916e-16
3.71297e-15
1.9138e-14
9.42491e-14
4.21102e-13
1.65603e-12
5.66596e-12
1.68206e-11
4.36697e-11
1.00173e-10
2.19304e-10
4.35617e-10
7.42299e-10
1.09844e-09
1.19569e-09
1.33648e-09
1.10285e-09
4.49967e-18
1.28284e-17
5.07878e-17
2.72097e-16
1.71227e-15
1.1028e-14
6.57336e-14
3.42082e-13
1.54268e-12
5.85745e-12
1.89023e-11
5.17434e-11
1.25558e-10
2.83825e-10
5.70527e-10
9.60817e-10
1.19451e-09
1.19764e-09
9.23405e-10
)
;

boundaryField
{
    leftWall
    {
        type            zeroGradient;
    }
    rightWall
    {
        type            zeroGradient;
    }
    lowerWall
    {
        type            zeroGradient;
    }
    atmosphere
    {
        type            inletOutlet;
        inletValue      uniform 0;
        value           nonuniform List<scalar> 
46
(
2.14697e-09
1.58473e-09
1.09004e-09
6.30015e-10
0
0
0
0
0
0
0
0
0
0
0
0
0
0
0
0
3.63105e-18
1.31415e-18
3.60413e-19
5.14725e-19
9.20974e-19
0
0
0
0
0
0
0
0
0
0
0
0
0
0
1.25558e-10
2.83826e-10
5.70527e-10
9.60817e-10
1.19451e-09
1.19764e-09
9.23405e-10
)
;
    }
    defaultFaces
    {
        type            empty;
    }
}


// ************************************************************************* //
