/*--------------------------------*- C++ -*----------------------------------*\
| =========                 |                                                 |
| \\      /  F ield         | OpenFOAM: The Open Source CFD Toolbox           |
|  \\    /   O peration     | Version:  2312                                  |
|   \\  /    A nd           | Website:  www.openfoam.com                      |
|    \\/     M anipulation  |                                                 |
\*---------------------------------------------------------------------------*/
FoamFile
{
    version     2.0;
    format      ascii;
    arch        "LSB;label=32;scalar=64";
    class       volScalarField;
    location    "4.2";
    object      alphas;
}
// * * * * * * * * * * * * * * * * * * * * * * * * * * * * * * * * * * * * * //

dimensions      [0 0 0 0 0 0 0];

internalField   nonuniform List<scalar> 
2268
(
2
2
2
2
2
2
2
2
2
2
2
2
2
2
2
2
2
2
2
1.99999
1.99996
1.99995
1.99996
2
2
2
2
2
2
2
2
2
2
2
2
2
2
2
2
2
2
2
2
2
1.99998
1.99998
2
2
2
2
2
2
2
2
2
2
2
2
2
2
2
2
2
2
2
2
2
2
2
2
2
2
2
2
2
2
2
2
2
2
2
2
2
2
2
2
2
2
2
2
2.00005
2.00154
2
2
2
2
2
2
2
1.99998
1.99994
1.99994
1.99995
1.99992
1.99855
1.98914
1.97423
1.95776
1.94741
1.93979
1.92478
1.89851
1.84789
1.84142
1.81492
2
2
2
2
1.99997
1.9999
1.99774
1.9497
1.83118
1.66175
1.47502
1.29118
1.09216
0.931863
0.80822
0.712419
0.700139
0.696521
0.658785
0.617467
0.55091
0.473554
0.437665
1.99811
1.9979
1.99974
2.00035
1.84922
1.47121
1.04186
0.655405
0.383733
0.203394
0.0873364
0.0129611
0.00470431
0.0201137
0.0220762
0.0236376
0.0392817
0.0424662
0.0585002
0.105622
0.134351
0.102837
0.0584514
1.9271
1.81104
1.51182
0.985586
0.469027
0.160399
0.0108081
0.000571949
0.000536243
0.000448893
0.000384723
0.000400889
0.00040917
0.00916236
0.0310908
0.0313551
0.0211313
0.0158755
0.017417
0.0246791
0.057804
0.0963621
0.0678424
1.94403
1.94624
1.95363
1.97018
1.97
1.96605
1.95528
1.95119
1.95113
1.9504
1.94836
1.94801
1.94871
1.96099
1.96428
1.96343
1.96998
1.9687
1.96843
1.7678
1.93467
1.94152
1.94206
1.94061
1.9351
1.94132
1.9544
1.96162
1.95585
1.97072
1.96863
1.96904
1.96962
1.96585
1.96676
1.9742
1.96961
1.96597
1.21962
1.20454
1.16585
1.17841
1.16417
1.20058
1.30505
1.46357
1.54263
1.65882
1.69755
1.75956
1.74782
1.6849
1.65236
1.65529
1.66652
1.63668
1.59154
0.348186
0.130554
0.11815
0.12093
0.11227
0.0755728
0.0724984
0.0933097
0.539084
0.951651
1.18088
1.20305
1.25898
1.22825
1.09208
0.960105
0.85621
0.838919
0.902568
0.0432728
0.047833
0.0483229
0.102458
0.161946
0.185862
0.17156
0.106516
0.132206
0.38616
0.379432
0.225434
0.493832
0.514782
0.374966
0.286324
0.169786
0.138828
0.473105
0.0839789
0.115232
0.0199819
0.0124278
0.0651697
0.216905
0.242691
0.1858
0.0646468
0.136288
0.1165
0.0490009
0.250361
0.287521
0.125343
0.118412
0.129733
0.150718
0.148916
0.284701
0.247935
0.0312542
0.0119457
0.012291
0.12864
0.209873
0.170732
0.0566991
0.0351509
0.0353898
0.0392624
0.0455692
0.0507506
0.190812
0.227561
0.189907
0.180638
0.160284
0.28475
0.189983
0.0146413
0.0135526
0.0120156
0.182237
0.153132
0.0402796
0.0431624
0.0389696
0.0451346
0.0459971
0.0464622
0.047235
0.435831
0.355485
0.229112
0.153372
0.114506
0.285439
0.203977
0.0851924
0.0112545
0.00200042
0.000872728
0.000720446
0.000799177
0.000829355
0.000742651
0.000570872
0.000591826
0.000728501
0.000575782
0.0194577
0.0321596
0.0258063
0.0182903
0.0204628
0.0319448
0.0365509
0.0425708
0.0755237
0.000848535
0.00084754
0.000843247
0.000836411
0.000816736
0.000804515
0.00080261
0.000781691
0.000787188
0.000816751
0.00347525
0.00624247
0.00855865
0.00803285
0.0138701
0.038821
0.0683226
0.0975643
0.140883
0.17435
0.26354
0.300896
0.349343
0.00186541
0.000855933
0.000912633
0.00294785
0.00822753
0.0158186
0.0220254
0.031417
0.0506203
0.0958672
0.175843
0.236723
0.281549
0.320001
0.451917
0.568432
0.620134
0.817781
0.978436
1.01363
1.02807
1.02133
0.993081
0.121813
0.0747819
0.0835916
0.144799
0.209834
0.296552
0.384499
0.428307
0.545156
0.671047
0.823461
0.987342
1.02803
1.0294
1.09223
1.14793
1.17829
1.07739
1.00977
1.00463
1.00055
1.00079
1.00537
0.681077
0.814473
0.872937
0.918747
0.939931
0.959523
0.995843
1.01713
1.06307
1.14772
1.12771
1.00952
1.00064
1.00081
1.02247
1.14838
1.1053
1.00066
1.00037
1.00035
1.00023
1.0004
1.00135
1.01846
1.01702
1.00853
1.0075
1.00613
1.00426
1.00399
1.00402
1.0046
1.01056
1.00169
1.00045
1.00017
1.00014
1.00039
1.003
1.00122
1.00028
0.999959
0.999707
0.999555
0.99976
1.00018
1.96118
1.91932
1.86864
1.83398
1.79207
1.74154
1.64461
1.49854
1.40701
1.35101
1.29832
1.25875
1.24462
1.25451
1.25473
1.24322
1.25578
1.26808
1.23361
1.18322
1.14429
1.0881
1.02769
2.99834
2.99821
2.98581
2.95729
2.93087
2.91425
2.90685
2.89488
2.85674
2.81925
2.78528
2.76734
2.76328
2.77485
2.77453
2.774
2.76971
2.7416
2.67557
2.62808
2.58164
2.49079
2.30797
2.99865
3
2.99975
2.99887
2.99895
2.99974
2.99993
2.99971
2.99913
2.9966
2.99549
2.99773
2.99955
3
2.99999
2.99996
2.99983
2.99941
2.99565
2.99517
2.99444
2.98847
2.98332
2.99987
3
3
3
3
3
2.99999
2.99998
2.99998
2.99999
3
3
3
3
3
3
3
2.99998
2.99993
2.99999
2.99999
2.99999
2.99998
3
3
3
3
3
3
2.99999
2.99998
2.99995
2.99995
2.99999
3
3
2.99999
3
3
3
2.99998
2.99995
2.99997
3
3
3
3
3
3
3
3
3
2.99998
2.99987
2.99986
2.99986
2.99994
2.99992
2.99988
2.99994
2.99999
2.99999
2.99999
2.99999
2.99998
2.99998
2.99999
3
3
3
3
3
3
3
3
2.99992
2.99986
2.99986
2.99986
2.99986
2.99985
2.99985
2.99992
2.99998
2.99999
2.99998
2.99995
2.99991
2.99991
2.99998
2.99999
3
3
3
3
3
3
3
2.99999
2.99997
2.99993
2.99991
2.99987
2.99987
2.9999
2.99994
2.99994
2.99996
2.99995
2.99991
2.99991
2.99992
2.99999
3
3
3
3
3
3
3
3
3
3
3
3
2.99999
2.99998
2.99998
2.99995
2.99995
2.99995
2.99997
2.99994
2.99991
2.99993
2.99999
3
3
3
3
3
3
3
3
3
3
3
3
3
3
3
3
2.99999
3
3
2.99999
2.99993
2.99993
2.99996
3
3
3
3
3
3
3
3
3
3
3
3
3
3
3
3
3
3
3
3
2.99999
2.99993
2.99994
2.99999
3
3
3
3
3
3
3
3
3
3
3
3
3
3
3
3
3
3
3
3
3
2.99998
2.99999
3
3
3
3
3
3
3
3
3
3
3
3
3
3
3
3
3
3
3
3
3
3
3
3
3
3
3
3
3
3
3
3
3
3
3
3
3
3
3
3
3
3
3
3
3
3
3
3
3
3
3
3
3
3
3
3
3
3
3
3
3
3
3
3
3
3
3
3
3
3
3
3
3
3
3
3
3
3
3
3
3
3
3
3
3
3
3
3
3
3
3
3
3
3
3
3
3
3
3
3
3
3
3
3
3
3
3
3
3
3
3
3
3
3
3
3
3
3
3
3
3
3
3
3
3
3
3
3
3
3
3
3
3
3
3
3
3
3
3
3
3
3
3
3
3
3
3
3
3
3
3
3
3
3
3
3
3
3
3
3
3
3
3
3
3
3
3
3
3
3
3
3
3
3
3
3
3
3
3
3
3
3
3
3
3
3
3
3
3
3
3
3
3
3
3
3
3
3
3
3
3
3
3
3
3
3
3
3
3
3
3
3
3
3
3
3
3
3
3
3
3
3
3
3
3
3
3
3
3
3
3
3
3
3
3
3
3
3
3
3
3
3
3
3
3
3
3
3
3
3
3
3
3
3
3
3
3
3
3
3
3
3
3
3
3
3
3
3
3
3
3
3
3
3
3
3
3
3
3
3
3
3
3
3
3
3
3
3
3
3
3
3
3
3
3
3
3
3
3
3
3
3
3
3
3
3
3
3
3
3
3
3
3
3
3
3
3
3
3
3
3
3
3
3
3
3
3
3
3
3
3
3
3
3
3
3
3
3
3
3
3
3
3
3
3
3
3
3
3
3
3
3
3
3
3
3
3
3
3
3
3
3
3
3
3
3
3
3
3
3
3
3
3
3
3
3
3
3
3
3
3
3
3
3
3
3
3
3
3
3
3
3
3
3
3
3
3
3
3
3
3
3
3
3
3
3
3
3
3
3
3
3
3
3
3
3
3
3
3
3
3
3
3
3
3
3
3
3
3
3
3
3
3
3
3
3
3
3
3
3
3
3
3
3
3
3
3
3
3
3
3
3
3
3
3
3
3
3
3
3
3
3
3
3
3
3
3
3
3
3
3
3
3
3
3
3
3
3
3
3
3
3
3
3
3
3
3
3
3
3
3
3
3
3
3
3
3
3
3
3
3
3
3
3
3
3
3
3
3
3
3
3
3
3
3
3
3
3
3
3
3
3
3
3
3
3
3
3
3
3
3
3
3
3
3
3
3
3
3
3
3
3
3
3
3
3
3
3
3
3
3
3
3
0.087465
0.0474345
0.0472285
0.0313212
0.36019
0.293593
0.282748
0.249882
0.990411
0.990958
0.997795
1.02196
1.03757
1.03706
1.0067
1.00157
1.01321
1.01319
0.999503
0.998037
1.00056
1.00061
1.00002
0.999857
0.994298
0.997056
0.997337
0.998306
2.12916
1.99741
1.85426
1.68273
2.97667
2.96029
2.94081
2.91374
2.99997
2.99891
2.99711
2.99747
2.99999
2.99997
2.99998
2.99999
3
3
2.99999
2.99999
3
3
2.99999
2.99999
3
3
2.99999
2.99999
3
2.99999
2.99999
2.9999
3
3
2.99994
2.99983
3
3
2.99998
2.99992
3
3
3
3
3
3
3
3
3
3
3
3
3
3
3
3
3
3
3
3
3
3
3
3
3
3
3
3
3
3
3
3
3
3
3
3
3
3
3
3
3
3
3
3
3
3
3
3
3
3
3
3
3
3
3
3
3
3
3
3
3
3
3
3
3
3
3
3
3
3
3
3
3
3
3
3
3
3
3
3
3
3
3
3
3
3
3
3
3
3
3
3
3
3
3
3
3
3
3
3
0.0919727
0.113592
0.111797
0.0400213
0.0649014
0.269518
0.0861393
0.0616982
0.0607408
0.0625555
0.178224
0.155342
0.0466097
0.189455
0.436369
0.271957
0.181262
0.115676
0.216931
0.283692
0.560353
0.600586
0.35355
0.31885
0.30109
0.233884
0.271405
0.133425
0.215457
0.622243
0.510364
0.302007
0.52452
0.247851
0.218147
0.163045
0.305344
0.28961
1.04404
1.0117
0.96347
0.684596
0.780821
0.993453
1.0339
0.646397
0.701686
0.89484
1.09103
1.11705
0.932276
0.934004
0.529497
0.424323
0.718109
0.899653
0.857893
1.00261
1.03848
1.07292
1.06126
1.00839
1.13053
1.33896
0.993986
0.904519
1.05221
1.02233
1.06734
1.16842
1.1931
1.0903
1.10989
1.037
1.01707
1.01165
0.996453
1.01252
1.03825
1.02594
1.00122
1.00468
1.19129
1.25161
1.05297
1.09909
1.00546
1.00447
1.01211
1.02126
1.01951
1.06045
1.06129
1.02001
1.00392
0.994759
0.989111
1.00211
1.00126
1.00072
1.0009
1.00851
1.22017
1.2637
1.07923
1.03563
1.00334
1.00324
1.00333
1.00383
1.00523
1.05097
1.01722
1.00291
0.99644
0.984993
0.985007
0.997394
0.999229
0.998535
0.998135
0.99811
1.11457
1.22138
1.17551
1.00102
1.00164
1.00175
1.00261
1.00427
1.0043
1.00318
1.00024
1.50084
1.50269
1.6382
1.6813
1.53792
1.31547
1.17596
1.10046
1.03524
1.03259
1.05121
1.01711
0.998501
0.997955
0.997785
0.998568
1.00166
1.00319
1.00145
2.84533
2.82734
2.8859
2.92947
2.94419
2.8707
2.72585
2.52198
2.08662
1.41352
1.18281
1.0841
1.01285
1.00131
0.997845
0.996864
0.998757
1.00444
1.00512
2.99463
2.99473
2.99574
2.99968
2.99998
2.99998
2.99983
2.99452
2.97721
2.96379
2.80364
2.56188
2.09569
1.42937
1.05654
1.00047
1.00017
1.00546
1.00513
2.99999
2.99999
2.99999
3
3
3
2.99999
2.99995
2.99995
2.99999
2.99875
2.996
2.99182
2.92006
2.49798
1.88653
1.52091
1.44151
1.48076
2.99999
2.99999
2.99999
3
2.99999
2.99994
2.99982
2.99982
2.99985
2.99998
2.99998
2.99999
2.99988
2.99971
2.99785
2.9681
2.87651
2.8181
2.82243
2.99999
2.99999
2.99998
2.99979
2.99972
2.99973
2.99981
2.99999
3
3
3
2.99999
2.99997
2.99997
2.99961
2.99954
2.9978
2.99575
2.99507
2.99999
2.99977
2.99969
2.9997
2.99976
2.99997
3
3
2.99999
2.99967
2.99949
2.99952
2.99991
2.99999
2.99995
2.99997
2.99993
2.99994
2.99986
2.99974
2.99968
2.99976
2.99992
2.99998
3
3
2.99977
2.99948
2.99948
2.99948
2.99952
2.9999
2.99997
2.99997
2.99987
2.99987
2.99988
2.99989
2.9998
2.99985
2.99998
2.99999
2.99999
3
2.99989
2.99953
2.99948
2.99949
2.99972
2.99993
2.99992
2.99991
2.99992
2.99992
2.99991
2.99984
2.99984
2.99987
2.99988
2.99999
2.99999
2.99999
2.99999
2.99997
2.99971
2.99955
2.9997
2.99996
2.99996
2.99996
2.99987
2.99978
2.99975
2.99981
2.99977
2.99988
2.99998
2.99995
2.99996
2.99996
2.99997
2.99998
2.99998
2.99994
2.99985
2.99983
2.99985
2.99993
2.99994
2.99995
2.99986
2.99975
2.99973
2.99973
2.99996
3
3
2.99999
2.99995
2.99993
2.99995
2.99997
2.99992
2.99983
2.99982
2.99983
2.99981
2.99979
2.99984
2.99994
2.99992
2.99975
2.99988
2.99999
3
3
3
3
2.99994
2.99993
2.99995
2.99993
2.9999
2.99991
2.99994
2.99996
2.99983
2.9998
2.99989
2.99994
2.99976
2.99992
3
3
3
3
3
3
2.99996
2.99992
2.99992
2.99991
2.99993
2.99999
3
2.99999
2.99982
2.99982
2.99991
2.99976
2.99992
3
3
3
3
3
3
3
2.99999
2.99994
2.99992
2.99994
2.99999
3
3
2.99991
2.99981
2.99982
2.99978
2.99996
3
3
3
3
3
3
3
3
3
2.99999
2.99999
3
3
3
2.99998
2.99983
2.99979
2.99989
2.99999
3
3
3
3
3
3
3
3
3
3
3
3
3
3
3
2.99992
2.9998
2.99995
3
3
3
3
3
3
3
3
3
3
3
3
3
3
3
3
3
2.99991
2.99998
3
3
3
3
3
3
3
3
3
3
3
3
3
3
3
3
3
3
3
3
3
3
3
3
3
3
3
3
3
3
3
3
3
3
3
3
3
3
3
3
3
3
3
3
3
3
3
3
3
3
3
3
3
3
3
3
3
3
3
3
3
3
3
3
3
3
3
3
3
3
3
3
3
3
3
3
3
3
3
3
3
3
3
3
3
3
3
3
3
3
3
3
3
3
3
3
3
3
3
3
3
3
3
3
3
3
3
3
3
3
3
3
3
3
3
3
3
3
3
3
3
3
3
3
3
3
3
3
3
3
3
3
3
3
3
3
3
3
3
3
3
3
3
3
3
3
3
3
3
3
3
3
3
2.99999
3
3
3
3
3
3
3
3
3
3
3
3
3
3
3
3
3
3
2.99999
3
3
3
3
3
3
3
3
3
3
3
3
3
2.99999
2.99999
3
3
3
2.99999
3
3
3
3
3
3
3
3
3
3
3
3
3
2.99999
2.99999
2.99999
3
3
3
3
3
3
3
3
3
3
3
3
3
3
3
3
3
2.99999
2.99999
2.99999
3
3
3
3
3
3
3
3
3
3
3
3
3
3
3
3
3
2.99999
2.99999
2.99999
2.99999
3
3
3
3
3
3
3
3
3
3
3
3
3
3
3
3
2.99999
3
3
3
3
3
3
3
3
3
3
3
3
3
3
3
3
3
3
3
3
3
3
3
3
3
3
3
3
3
3
3
3
3
3
3
3
3
3
3
3
3
3
3
3
3
3
3
3
3
3
3
3
3
3
3
3
3
3
3
)
;

boundaryField
{
    leftWall
    {
        type            calculated;
        value           nonuniform List<scalar> 
50
(
2
2
2
2
2
2
1.99811
1.9271
0.285439
0.000848535
0.00186541
0.121813
0.681077
1.01846
1.96118
2.99834
2.99865
2.99987
3
3
3
3
3
3
3
3
3
3
3
3
3
3
3
3
3
3
3
3
3
3
3
3
3
3
3
3
3
3
3
3
)
;
    }
    rightWall
    {
        type            calculated;
        value           nonuniform List<scalar> 
50
(
1.96843
1.96597
1.59154
0.902568
0.473105
0.148916
0.160284
0.114506
0.216931
0.28961
0.857893
1.01165
1.00392
1.00291
1.00024
1.00145
1.00512
1.00513
1.48076
2.82243
2.99507
2.99986
2.99989
2.99984
2.99988
2.99996
2.99999
3
3
3
3
3
3
3
3
3
3
3
3
3
2.99999
2.99999
2.99999
3
3
2.99999
3
3
3
3
)
;
    }
    lowerWall
    {
        type            calculated;
        value           nonuniform List<scalar> 
62
(
2
2
2
2
2
2
2
2
2
2
2
2
2
2
2
2
2
2
2
1.99999
1.99996
1.99995
1.99996
1.99996
1.99998
2
2.00154
1.81492
0.437665
0.0584514
0.0678424
0.087465
0.0474345
0.0472285
0.0313212
1.94403
1.7678
1.21962
0.348186
0.0432728
0.0839789
0.284701
0.28475
1.94403
1.94624
1.95363
1.97018
1.97
1.96605
1.95528
1.95119
1.95113
1.9504
1.94836
1.94801
1.94871
1.96099
1.96428
1.96343
1.96998
1.9687
1.96843
)
;
    }
    atmosphere
    {
        type            calculated;
        value           nonuniform List<scalar> 
46
(
3
3
3
3
3
3
3
3
3
3
3
3
3
3
3
3
3
3
3
3
3
3
3
3
3.00001
3
3
3
3
3
3
3
3
3
3
3
3
3
3
3
3
3
3
3
3
3
)
;
    }
    defaultFaces
    {
        type            empty;
    }
}


// ************************************************************************* //
