/*--------------------------------*- C++ -*----------------------------------*\
| =========                 |                                                 |
| \\      /  F ield         | OpenFOAM: The Open Source CFD Toolbox           |
|  \\    /   O peration     | Version:  2312                                  |
|   \\  /    A nd           | Website:  www.openfoam.com                      |
|    \\/     M anipulation  |                                                 |
\*---------------------------------------------------------------------------*/
FoamFile
{
    version     2.0;
    format      ascii;
    arch        "LSB;label=32;scalar=64";
    class       volScalarField;
    location    "4.2";
    object      alpha.oil;
}
// * * * * * * * * * * * * * * * * * * * * * * * * * * * * * * * * * * * * * //

dimensions      [0 0 0 0 0 0 0];

internalField   nonuniform List<scalar> 
2268
(
7.61581e-10
7.60601e-10
7.60601e-10
1.06329e-09
1.14513e-09
1.40306e-09
1.75713e-09
1.55963e-09
8.91366e-10
6.74626e-10
5.71699e-10
5.26356e-10
5.74542e-10
7.74966e-10
1.45135e-09
3.56598e-09
9.28124e-09
2.04867e-08
3.4964e-08
7.49852e-06
4.25812e-05
4.56613e-05
4.5494e-05
1.01285e-09
4.95666e-09
1.83141e-08
3.00688e-08
4.75762e-08
4.1306e-08
9.97466e-09
3.3933e-09
1.70371e-09
1.43961e-09
1.42054e-09
1.65055e-09
2.28391e-09
2.27693e-09
5.55246e-09
2.79955e-08
1.13568e-07
1.78283e-07
1.10717e-07
1.63713e-07
5.25945e-06
1.92708e-05
1.78879e-05
4.58918e-10
6.8211e-09
4.40354e-08
1.31483e-07
1.55913e-07
1.31123e-07
2.03375e-08
1.01298e-09
1.01269e-09
1.09674e-09
2.26565e-09
8.18824e-09
1.96341e-08
1.27322e-08
1.71395e-08
1.1211e-07
1.02889e-06
1.08822e-06
8.53577e-07
2.45701e-16
1.77813e-16
-2.99555e-25
-5.36013e-11
4.56262e-10
5.55684e-09
2.36259e-08
3.95205e-08
3.86663e-08
2.36291e-08
1.20535e-08
2.90355e-08
3.36402e-08
3.90758e-08
5.77642e-08
8.09031e-08
2.01214e-08
5.22398e-08
1.51283e-08
1.62834e-08
2.66952e-08
2.49391e-08
1.71925e-08
8.83379e-09
1.07564e-09
5.8141e-15
-1.26245e-11
4.56479e-10
1.36851e-09
4.77967e-09
5.47418e-09
2.0794e-09
2.03331e-09
8.03155e-08
2.29516e-05
7.82457e-05
8.99529e-05
6.19163e-05
7.87213e-05
6.18696e-05
1.51222e-08
1.51177e-08
0.000899571
0.0137836
0.0253215
0.0312477
0.0308311
0.00343364
2.16353e-05
1.01577e-10
4.63084e-10
8.07028e-10
1.11177e-08
1.59962e-07
2.916e-05
9.55198e-05
0.000275869
0.000566404
0.000700238
0.00060634
0.000303384
0.00074536
0.00354965
0.00573257
0.00336229
0.0113973
0.0610988
0.098179
0.104722
0.104767
0.080204
0.0362629
0.00406957
0.00195076
0.00260303
0.00105833
0.00032094
2.97241e-05
0.000252104
0.000664237
0.000699027
0.000693063
0.000578841
0.000290975
0.000336248
0.0045403
0.019962
0.0206207
0.0208931
0.0372683
0.0378159
0.0420241
0.0708421
0.0971949
0.0843834
0.0439757
0.00675996
0.00677617
0.00664508
0.00328292
0.000757802
0.000326025
0.000140754
0.000123868
0.000141978
0.000201548
0.000240712
0.000260538
0.000230194
0.00902338
0.0309563
0.0309879
0.0209183
0.0157298
0.0149634
0.011256
0.0298708
0.0762428
0.0535836
0.0278362
0.0278365
0.0277423
0.0271921
0.0270136
0.0267934
0.0267959
0.0276644
0.0275876
0.026812
0.0266992
0.0267298
0.0267357
0.0267447
0.0269261
0.0267714
0.0267714
0.0267713
0.0267713
0.0664717
0.0635733
0.0572248
0.0576152
0.0594507
0.0649014
0.060924
0.051921
0.0449975
0.0460233
0.0267057
0.0267798
0.0283818
0.0301119
0.0342306
0.034182
0.0306462
0.0352189
0.0352689
0.288014
0.27002
0.229052
0.292128
0.354511
0.35489
0.351602
0.279137
0.258047
0.303198
0.303353
0.241487
0.253902
0.31624
0.349499
0.351789
0.340056
0.36882
0.417435
0.28161
0.0638384
0.0565083
0.059203
0.0337061
0.013626
0.0144168
0.0476128
0.318357
0.434662
0.505208
0.505465
0.514064
0.514068
0.514064
0.514067
0.495868
0.481708
0.497098
0.0268354
0.00407803
0.00397355
0.00394845
0.00387001
0.00386458
0.00716219
0.0180719
0.110947
0.349967
0.351211
0.202328
0.43219
0.449772
0.310949
0.213
0.0983426
0.0746732
0.41424
0.0764146
0.0982638
0.0133556
0.00507168
0.00381644
0.0240211
0.0367482
0.0238846
0.0378633
0.124936
0.105154
0.0352647
0.201794
0.22102
0.0747623
0.0677341
0.0613084
0.0510098
0.0895755
0.276621
0.240811
0.0246212
0.00524105
0.00501631
0.0390396
0.0610643
0.0492912
0.0150455
0.0229978
0.0228408
0.019886
0.017184
0.0167484
0.0861445
0.0624532
0.03475
0.0348918
0.0466655
0.276621
0.181712
0.0057314
0.00497529
0.00498378
0.123382
0.112982
0.0183319
0.014994
0.0200227
0.0173989
0.0167843
0.01677
0.0167491
0.132241
0.0508968
0.0348917
0.0490089
0.0697632
0.00390362
0.00373667
0.00280567
0.00109475
0.000322583
0.000133273
7.46077e-05
3.14355e-05
1.50758e-06
3.35526e-05
0.000119043
0.000108892
5.82386e-05
0.000147083
0.0186823
0.0300996
0.0231934
0.0141204
0.0131249
0.0071503
0.00598544
0.00597631
0.0143349
2.95863e-06
2.43505e-06
6.26351e-06
1.56969e-05
1.45094e-05
7.61904e-06
-2.26353e-23
-3.90388e-22
-8.95415e-16
3.59049e-07
-4.55528e-08
-3.58003e-08
-2.97383e-08
-1.16511e-07
-6.52558e-06
0.00530978
0.0114457
0.0241493
0.0524392
0.069818
0.0791333
0.105379
0.1537
1.45255e-08
-1.87017e-11
-4.55647e-10
-7.23605e-09
-1.18456e-08
-5.94223e-09
-1.30562e-19
-4.73831e-21
1.42565e-20
0.00303539
0.0175811
0.0590439
0.143675
0.25889
0.355013
0.342085
0.345698
0.539061
0.718638
0.753592
0.802797
0.865187
0.933443
0.00443903
0.00891196
0.0387168
0.0993456
0.126035
0.124247
0.158288
0.205739
0.323091
0.448958
0.600544
0.763269
0.906736
0.972716
0.932192
0.876026
0.904461
0.960077
0.994172
0.997309
0.999593
0.999499
0.997256
0.544441
0.678742
0.79298
0.876824
0.876359
0.873807
0.919621
0.958125
0.968417
0.925478
0.936017
0.995147
0.999586
0.999586
0.988754
0.925728
0.947091
0.999592
0.999593
0.999593
0.999593
0.999593
0.999254
0.990526
0.991295
0.995602
0.996111
0.996689
0.997588
0.997789
0.997838
0.997619
0.994629
0.999024
0.999465
0.99946
0.999423
0.999429
0.998327
0.999179
0.999592
0.999592
0.999593
0.999444
0.999579
0.999624
0.518864
0.539842
0.564806
0.581706
0.602599
0.627885
0.676481
0.749864
0.794948
0.821132
0.845617
0.863359
0.868216
0.86285
0.863563
0.870953
0.867499
0.865301
0.882764
0.904553
0.913477
0.933977
0.969704
-1.58231e-21
-4.82721e-20
0.00567212
0.0199295
0.0337333
0.0425857
0.0462887
0.0519799
0.0626929
0.0771974
0.0942549
0.103486
0.106055
0.101021
0.101587
0.10186
0.108261
0.128004
0.16171
0.180687
0.186681
0.229415
0.320852
-3.84773e-13
-1.79416e-11
5.90332e-27
1.27631e-20
2.77553e-13
-3.69675e-21
8.79979e-25
7.04357e-25
-4.89453e-10
4.15704e-24
-8.3376e-25
-1.91795e-09
1.64617e-25
1.23459e-08
1.30137e-25
2.19202e-25
-6.10477e-10
4.98572e-17
1.19925e-19
7.53742e-20
-1.87903e-19
-3.02576e-12
2.85861e-19
1.63833e-09
7.5689e-09
1.08594e-08
1.39956e-10
5.13644e-10
1.18628e-06
2.78637e-06
1.87545e-06
8.36013e-07
1.72415e-06
7.59316e-07
1.52703e-07
1.9775e-07
4.76106e-07
3.90044e-07
2.81908e-07
1.22383e-07
5.09407e-08
7.33956e-09
-5.05889e-27
-9.18119e-14
1.87389e-08
1.89566e-07
1.86033e-08
9.06632e-09
1.11239e-08
1.11424e-06
1.31375e-06
1.98006e-06
2.80836e-06
7.06185e-06
1.97559e-05
1.88237e-05
3.72902e-06
1.68e-07
1.92117e-06
3.14408e-06
1.48257e-06
4.79359e-07
1.50583e-07
1.84916e-07
3.20159e-07
1.77911e-07
1.97889e-07
1.99912e-07
1.95576e-07
2.63653e-08
2.60711e-08
9.00178e-08
9.57552e-07
1.00224e-06
3.40382e-07
2.04562e-06
5.29084e-05
5.67251e-05
5.93413e-05
2.88287e-05
2.83513e-05
4.26405e-05
2.25797e-05
8.18085e-07
2.34284e-07
6.39759e-07
2.43125e-06
7.4067e-06
8.09757e-06
4.21151e-06
2.60812e-07
5.23374e-07
2.42411e-08
6.17696e-08
7.98735e-08
9.28782e-08
5.76442e-08
5.78102e-08
2.64238e-05
5.71722e-05
5.93684e-05
5.943e-05
5.84578e-05
5.00924e-05
4.87345e-05
1.90783e-05
2.34276e-07
2.29661e-07
4.70319e-06
1.5723e-05
1.65735e-05
1.65726e-05
3.88473e-06
8.05334e-07
1.3899e-07
2.05669e-08
3.59164e-08
4.79755e-08
5.32041e-08
5.34521e-08
2.9253e-07
1.5261e-06
1.17392e-05
3.50749e-05
4.09045e-05
3.86808e-05
3.59423e-05
2.1153e-05
3.33237e-06
3.61548e-07
8.6485e-07
1.65711e-05
1.65723e-05
1.65729e-05
1.12488e-05
5.58596e-07
1.86265e-07
8.16016e-08
1.88323e-08
2.49158e-08
4.65563e-08
9.12154e-08
1.34747e-07
3.42712e-07
1.90993e-10
5.05232e-11
5.2431e-11
5.0523e-11
5.2431e-11
5.05231e-11
5.2431e-11
1.91046e-07
6.2716e-07
2.18924e-06
5.85567e-06
1.34424e-05
1.6573e-05
1.26134e-05
2.28128e-06
1.31343e-07
9.27507e-09
1.63397e-08
1.7562e-08
3.93609e-08
7.73653e-08
1.04927e-07
7.44963e-09
4.31061e-09
2.84501e-09
1.30281e-09
5.62411e-10
5.44934e-10
8.1352e-10
1.64871e-08
1.33289e-07
2.38926e-07
1.53924e-07
2.91252e-09
8.26315e-09
1.03412e-05
1.33009e-05
9.49286e-06
2.16182e-09
2.26909e-09
1.13548e-08
1.44548e-08
2.90763e-08
4.75322e-08
4.22952e-08
2.45012e-08
9.97986e-09
6.16688e-09
3.79237e-09
2.71152e-09
2.13877e-09
4.72433e-09
3.09286e-08
3.88997e-08
2.91502e-09
2.91159e-09
2.91465e-09
2.9128e-09
1.81675e-06
1.31737e-05
1.31223e-05
2.74207e-06
1.98569e-09
3.62231e-09
1.08009e-08
1.87171e-08
2.3347e-08
1.66074e-08
1.7367e-08
9.92276e-09
7.45108e-09
4.72231e-09
3.52909e-09
3.14375e-09
4.02649e-09
7.16277e-09
1.76097e-09
4.82681e-09
2.9141e-09
3.20229e-09
2.97612e-09
2.9828e-09
5.1023e-07
4.77298e-06
3.15654e-06
1.98625e-09
2.80755e-09
8.32354e-09
1.22521e-08
1.32571e-08
1.23092e-08
1.08217e-08
7.83531e-09
5.7021e-09
4.06609e-09
3.19396e-09
2.69788e-09
2.25248e-09
1.76079e-09
1.77317e-09
2.36251e-09
3.30895e-09
3.40136e-09
3.32008e-09
2.99015e-09
2.99629e-09
3.86451e-09
2.25038e-07
6.98743e-08
2.52798e-09
5.63015e-09
8.16627e-09
8.68342e-09
8.20913e-09
6.75788e-09
5.07622e-09
3.41491e-09
2.44513e-09
1.97885e-09
1.76175e-09
1.69037e-09
1.64556e-09
1.78336e-09
2.16391e-09
2.66936e-09
3.08859e-09
3.49692e-09
3.99281e-09
4.52621e-09
5.64334e-09
2.49906e-08
7.8703e-08
2.52955e-09
4.04361e-09
5.36364e-09
5.7347e-09
5.09641e-09
3.84759e-09
2.59871e-09
1.63921e-09
1.23989e-09
1.00706e-09
9.43122e-10
9.75727e-10
1.08065e-09
1.2444e-09
1.47098e-09
1.80425e-09
2.2517e-09
2.88449e-09
3.86725e-09
5.36705e-09
7.78764e-09
1.22224e-08
3.10834e-08
2.47896e-09
2.80099e-09
3.20386e-09
3.00162e-09
2.49182e-09
1.76326e-09
1.12378e-09
8.23692e-10
6.13803e-10
5.08829e-10
4.69433e-10
4.76347e-10
5.31059e-10
6.36717e-10
8.1253e-10
1.04693e-09
1.36548e-09
1.79613e-09
2.37467e-09
3.34961e-09
4.78555e-09
7.50126e-09
1.22424e-08
2.50514e-09
2.39948e-09
2.20314e-09
1.79864e-09
1.39021e-09
1.01394e-09
7.1491e-10
5.44577e-10
4.4336e-10
3.49221e-10
2.78465e-10
2.42813e-10
2.53674e-10
3.11209e-10
4.15177e-10
5.68897e-10
7.81565e-10
1.06529e-09
1.44547e-09
1.9372e-09
2.62961e-09
4.09452e-09
6.01423e-09
2.53444e-09
2.13398e-09
1.76102e-09
1.45836e-09
1.22611e-09
9.86689e-10
6.61129e-10
5.3788e-10
4.50679e-10
3.4845e-10
2.50316e-10
1.75397e-10
1.42842e-10
1.52999e-10
2.02938e-10
2.91842e-10
4.22716e-10
5.96131e-10
8.4933e-10
1.17436e-09
1.57824e-09
2.23207e-09
3.14735e-09
2.71932e-09
2.12967e-09
1.72965e-09
1.51426e-09
1.40515e-09
1.204e-09
7.22212e-10
6.03996e-10
5.31647e-10
4.21314e-10
2.96784e-10
1.8447e-10
1.13814e-10
8.65645e-11
9.7012e-11
1.39331e-10
2.11294e-10
3.2027e-10
4.65678e-10
6.45197e-10
8.9159e-10
1.22965e-09
1.69432e-09
2.79226e-09
2.21836e-09
1.85762e-09
1.69372e-09
1.72513e-09
1.53889e-09
7.67083e-10
6.60842e-10
6.16487e-10
5.08013e-10
3.68851e-10
2.28734e-10
1.26169e-10
6.93348e-11
5.17446e-11
6.40426e-11
9.92706e-11
1.60281e-10
2.49291e-10
3.68316e-10
5.16839e-10
7.50125e-10
9.59377e-10
3.0257e-09
2.36995e-09
2.00546e-09
1.88157e-09
2.29883e-09
1.85563e-09
7.26495e-10
6.91925e-10
6.81698e-10
5.81541e-10
4.39706e-10
2.83466e-10
1.57519e-10
7.75844e-11
3.86819e-11
3.14395e-11
4.54842e-11
7.72462e-11
1.2736e-10
1.97264e-10
3.02227e-10
4.29269e-10
6.01285e-10
3.1049e-09
2.5613e-09
2.06138e-09
2.50593e-09
5.74875e-09
1.61996e-09
6.14618e-10
7.20877e-10
7.13939e-10
6.27929e-10
4.90935e-10
3.33928e-10
1.91686e-10
9.65145e-11
4.16478e-11
2.07173e-11
2.14304e-11
3.62346e-11
6.59577e-11
1.13222e-10
1.81303e-10
2.97148e-10
3.88706e-10
3.4599e-09
2.94785e-09
2.07021e-09
1.03246e-08
4.44281e-08
4.37181e-10
6.02295e-10
9.23928e-10
7.05219e-10
6.42834e-10
5.12594e-10
3.60761e-10
2.1837e-10
1.16289e-10
5.05775e-11
1.99592e-11
1.21928e-11
1.81636e-11
3.48613e-11
6.32462e-11
1.17905e-10
1.79953e-10
2.86414e-10
4.02533e-09
1.40688e-08
1.52468e-07
4.24978e-07
1.23338e-07
4.3662e-10
8.838e-10
1.95171e-09
6.23525e-10
5.93361e-10
4.83976e-10
3.61451e-10
2.28753e-10
1.28634e-10
5.91261e-11
2.33569e-11
9.8512e-12
1.01525e-11
1.95261e-11
3.85048e-11
7.07478e-11
1.36599e-10
1.9408e-10
7.18296e-09
5.01054e-08
3.73104e-07
7.871e-07
1.27412e-07
5.36654e-10
2.1657e-09
6.03178e-09
4.67262e-10
5.13924e-10
4.3547e-10
3.3546e-10
2.20052e-10
1.26603e-10
6.45403e-11
2.67133e-11
9.82432e-12
6.39487e-12
1.11699e-11
2.27853e-11
4.97819e-11
8.45947e-11
1.47222e-10
7.1343e-09
7.03648e-08
5.6696e-07
7.80974e-07
7.50737e-08
5.13364e-10
2.20747e-08
9.25308e-09
4.41663e-10
4.73454e-10
3.74235e-10
2.87968e-10
1.89433e-10
1.14823e-10
6.17426e-11
2.7817e-11
1.03984e-11
4.59206e-12
6.07976e-12
1.32177e-11
2.82247e-11
6.45817e-11
9.84948e-11
8.9782e-09
1.03328e-07
5.77877e-07
8.34055e-07
5.70189e-08
1.43952e-08
9.1616e-08
8.28179e-09
4.41004e-10
4.40265e-10
3.02744e-10
2.27677e-10
1.52701e-10
9.26973e-11
5.1958e-11
2.5518e-11
1.0318e-11
3.8279e-12
3.22379e-12
7.25317e-12
1.71579e-11
3.3466e-11
7.06469e-11
8.23699e-09
1.02823e-07
6.51488e-07
8.49308e-07
2.5662e-07
9.97633e-08
1.08617e-07
1.20828e-08
4.96785e-10
3.89591e-10
2.25799e-10
1.66934e-10
1.13525e-10
6.7276e-11
3.81286e-11
2.00764e-11
9.03511e-12
3.35484e-12
1.89231e-12
3.42468e-12
8.15057e-12
2.40174e-11
3.88765e-11
7.86639e-09
1.10484e-07
8.4956e-07
8.49188e-07
1.35971e-07
1.53805e-07
1.07717e-07
1.51458e-08
9.45567e-10
3.13327e-10
1.5624e-10
1.16597e-10
7.64077e-11
4.4274e-11
2.44e-11
1.32705e-11
6.62022e-12
2.70667e-12
1.21321e-12
1.66109e-12
3.89649e-12
9.0391e-12
2.38033e-11
5.54418e-09
9.58406e-08
8.49618e-07
7.95721e-07
8.69927e-08
1.58771e-07
7.21332e-08
1.2941e-08
1.09654e-09
2.31855e-10
1.00563e-10
7.33949e-11
4.74694e-11
2.59198e-11
1.3503e-11
7.26439e-12
3.91853e-12
1.81509e-12
7.89127e-13
8.00159e-13
1.92628e-12
5.30348e-12
1.04813e-11
4.31047e-09
9.15696e-08
4.53318e-07
3.26879e-07
1.06127e-07
1.50411e-07
5.11317e-08
1.09183e-08
1.08878e-09
1.54886e-10
5.71447e-11
4.15325e-11
2.66658e-11
1.37175e-11
6.47607e-12
3.27749e-12
1.7936e-12
9.4722e-13
4.30154e-13
2.71881e-13
5.76824e-13
1.52306e-12
5.50735e-12
4.31042e-09
7.62402e-08
2.18595e-07
1.08081e-07
8.17146e-08
9.02797e-08
3.72686e-08
8.68224e-09
1.08449e-09
8.61175e-11
2.69514e-11
2.05006e-11
1.33161e-11
6.53937e-12
2.75038e-12
1.21187e-12
6.2447e-13
3.5747e-13
1.96416e-13
1.24596e-13
2.30449e-13
7.09953e-13
1.65531e-12
4.72642e-09
2.78106e-08
8.80358e-08
3.88854e-08
7.63769e-08
5.03696e-08
2.04814e-08
5.42858e-09
7.82691e-10
5.32365e-11
9.91096e-12
8.38917e-12
5.67822e-12
2.74355e-12
1.04421e-12
3.67975e-13
1.63069e-13
9.22248e-14
5.96206e-14
3.98204e-14
5.10074e-14
1.58059e-13
6.05039e-13
5.91301e-09
7.46976e-09
8.02718e-09
3.83449e-08
7.65117e-08
3.86918e-08
1.19796e-08
2.77704e-09
4.13441e-10
2.55292e-11
2.72841e-12
2.63363e-12
1.93256e-12
9.47829e-13
3.39887e-13
1.00117e-13
3.26633e-14
1.59422e-14
1.22618e-14
1.12194e-14
1.46177e-14
5.26611e-14
1.49099e-13
5.90166e-09
8.12504e-09
7.89713e-09
5.82257e-08
5.18321e-08
1.96575e-08
5.15063e-09
9.7414e-10
1.0879e-10
5.98594e-12
4.75939e-13
5.34049e-13
4.41507e-13
2.29616e-13
8.04885e-14
2.04898e-14
4.65992e-15
1.69211e-15
1.61744e-15
2.11607e-15
2.84113e-15
7.53311e-15
4.35946e-14
1.82755e-08
1.24184e-08
3.86812e-08
5.97111e-08
1.74477e-08
3.18287e-09
5.8728e-10
7.41314e-11
5.43597e-12
2.7375e-13
3.29441e-14
5.26576e-14
5.0946e-14
2.88445e-14
1.03359e-14
2.31617e-15
3.82063e-16
9.7033e-17
1.32333e-16
3.05723e-16
6.84792e-16
2.40435e-15
9.44661e-15
0.0120124
0.0120123
0.0120204
0.0201507
0.165349
0.242715
0.26572
0.240044
0.975752
0.978245
0.943757
0.944165
0.980686
0.979764
0.995412
0.997476
0.993347
0.993345
0.998822
0.997389
0.999619
0.999603
0.999613
0.999614
0.993674
0.996515
0.99681
0.997988
0.410232
0.476108
0.547592
0.638455
4.25967e-05
0.00174872
0.00788105
0.0269724
1.38307e-07
-2.04798e-09
-2.39427e-09
-4.8135e-10
2.12486e-07
3.78342e-07
6.66916e-07
1.97611e-07
6.8042e-07
8.27932e-07
2.09741e-06
2.36704e-06
8.15337e-07
1.88001e-06
2.5211e-06
2.62951e-06
6.92368e-07
1.20789e-06
2.0403e-06
2.53623e-06
2.34128e-07
2.52572e-07
2.23913e-07
1.04894e-05
2.72431e-09
7.11183e-09
7.20406e-07
1.32873e-05
2.31216e-09
1.8672e-07
1.38326e-06
3.53603e-06
1.12754e-08
2.37876e-07
7.62779e-07
1.14233e-08
1.0218e-07
1.51793e-07
8.94255e-08
2.05454e-08
1.22275e-07
1.28606e-07
6.61099e-08
4.09847e-08
6.50172e-08
6.66773e-08
7.2886e-08
7.73184e-08
2.41468e-08
3.83874e-08
5.19897e-08
6.61652e-08
9.95602e-09
1.18828e-08
2.01016e-08
2.61297e-08
4.34644e-09
5.85538e-09
6.66853e-09
8.99835e-09
2.19428e-09
2.69467e-09
3.40319e-09
3.83816e-09
1.25107e-09
1.45761e-09
1.61016e-09
1.92335e-09
7.55726e-10
8.80794e-10
1.02198e-09
1.09698e-09
5.38211e-10
6.11907e-10
6.80495e-10
7.86283e-10
3.77961e-10
4.50234e-10
5.33074e-10
5.81147e-10
2.91554e-10
3.50543e-10
3.99838e-10
4.81009e-10
2.09189e-10
2.56764e-10
3.22645e-10
3.66455e-10
1.59215e-10
1.97395e-10
2.33191e-10
2.97155e-10
1.01528e-10
1.29589e-10
1.71435e-10
2.01087e-10
7.07905e-11
8.6923e-11
1.07427e-10
1.4031e-10
3.56799e-11
4.77778e-11
6.62017e-11
7.85518e-11
2.02358e-11
2.59117e-11
3.30432e-11
4.43669e-11
8.87326e-12
1.21781e-11
1.67405e-11
2.00413e-11
3.67638e-12
4.80463e-12
6.39854e-12
8.89656e-12
1.14367e-12
1.66249e-12
2.34124e-12
2.96701e-12
3.48836e-13
4.96793e-13
7.10844e-13
1.03776e-12
9.12661e-14
1.37537e-13
2.05621e-13
2.74966e-13
2.3299e-14
3.43089e-14
4.79518e-14
6.18303e-14
0.0844697
0.094085
0.0827156
0.0258724
0.0354076
0.170012
0.0447486
0.00924033
0.00881971
0.0207703
0.0233554
0.016728
0.0167343
0.0322489
0.132332
0.0319051
0.0427384
0.0746721
0.181607
0.247199
0.505044
0.562561
0.285401
0.19838
0.169936
0.0588222
0.00934533
0.0109328
0.102436
0.37614
0.200403
0.0279469
0.200381
0.038192
0.0504772
0.0826987
0.250268
0.249115
0.974836
0.980999
0.860536
0.578194
0.663285
0.817923
0.449306
0.0767489
0.202882
0.734084
0.925795
0.798517
0.607734
0.609436
0.250774
0.333363
0.644904
0.819147
0.778529
0.997097
0.980367
0.963134
0.952036
0.985994
0.929224
0.75492
0.426223
0.341376
0.937176
0.97822
0.955329
0.904557
0.889627
0.838549
0.924703
0.977212
0.987435
0.990601
0.994624
0.990185
0.980523
0.986557
0.998846
0.996031
0.901271
0.684073
0.489946
0.832848
0.995094
0.996077
0.99174
0.987387
0.989057
0.968756
0.96795
0.987551
0.992673
0.994221
0.985527
0.997563
0.999006
0.999048
0.999048
0.995712
0.870522
0.722445
0.722019
0.941622
0.997524
0.997524
0.997524
0.997524
0.997064
0.974187
0.989168
0.992723
0.996274
0.98312
0.979722
0.993338
0.998065
0.998336
0.998028
0.997962
0.918667
0.770863
0.838195
0.997525
0.997525
0.997524
0.997524
0.997524
0.997524
0.997486
0.993775
0.741404
0.727619
0.651909
0.63019
0.705514
0.830649
0.904821
0.945375
0.980342
0.981696
0.963163
0.98521
0.997336
0.997524
0.997523
0.997523
0.997523
0.996407
0.993367
0.0683228
0.069185
0.0328931
0.0194762
0.0144548
0.0481538
0.118346
0.220192
0.43982
0.783441
0.901403
0.954113
0.991925
0.997222
0.996646
0.996772
0.997522
0.995091
0.991607
-2.04818e-19
-5.3222e-20
2.40172e-20
-5.02855e-21
-3.40331e-21
1.01752e-09
-2.45208e-09
7.87304e-11
1.13677e-10
-9.57685e-09
0.0796308
0.204916
0.448697
0.782756
0.967274
0.992979
0.993725
0.991942
0.991612
1.33986e-07
2.96728e-07
1.65699e-07
5.15512e-10
2.59343e-28
1.22528e-07
4.0202e-06
2.63296e-05
2.40574e-05
5.496e-06
-2.60179e-09
-1.77941e-09
9.19823e-11
0.0372242
0.247111
0.547743
0.730554
0.772007
0.75524
1.73383e-06
3.83313e-07
1.30906e-09
1.10875e-28
-1.35388e-11
1.67702e-05
8.38339e-05
8.69649e-05
7.10361e-05
8.53805e-06
4.40754e-06
2.13851e-06
1.89598e-07
1.78155e-10
1.25635e-10
0.00958504
0.0546374
0.0858203
0.0853777
2.01093e-06
9.11545e-07
-9.23958e-09
7.38922e-05
0.000108293
0.000115347
9.1719e-05
6.50516e-06
2.25786e-13
-4.11967e-15
-6.11408e-09
2.70916e-06
1.19999e-05
6.86571e-06
6.81354e-08
5.31357e-16
3.86606e-20
9.51898e-21
-2.90716e-20
3.69915e-06
6.73735e-05
0.000107878
0.000119451
0.000113304
1.09138e-05
1.17392e-06
5.38829e-07
5.23702e-06
0.000143327
0.000218112
0.000211332
4.33097e-05
3.47467e-06
3.08143e-06
8.89561e-06
3.43159e-05
2.23863e-05
6.05452e-08
6.52188e-05
9.55193e-05
8.77674e-05
3.48386e-05
6.45519e-06
3.27516e-09
4.75277e-08
9.21801e-05
0.00021977
0.000219129
0.000219835
0.000205624
1.55778e-05
3.44506e-06
1.54262e-05
6.25169e-05
6.21197e-05
5.54573e-05
4.66064e-05
2.84302e-05
1.00822e-05
4.53995e-06
1.68613e-06
9.92801e-07
2.63115e-09
5.07452e-05
0.000220496
0.000220491
0.000220495
0.000112858
1.33983e-05
1.34543e-05
2.07091e-05
3.38617e-05
3.39013e-05
3.34982e-05
6.36948e-05
6.38195e-05
1.14233e-08
1.68668e-07
7.84216e-07
8.02809e-07
7.90446e-07
7.14317e-07
1.09821e-05
0.000141672
0.000220493
0.00015041
1.65332e-05
1.34434e-05
1.38366e-05
6.33987e-05
0.000103713
0.000103999
7.27919e-05
9.04728e-05
3.69452e-05
1.14022e-08
2.48604e-08
1.01926e-05
1.86737e-05
9.5641e-06
6.41303e-07
1.79927e-06
1.81544e-05
5.25543e-05
3.73145e-05
1.45316e-05
1.34241e-05
1.43798e-05
2.02927e-05
6.74871e-05
0.000115176
0.000115103
0.000111187
1.31261e-05
1.14423e-08
1.14388e-08
2.21823e-06
2.31643e-05
3.12047e-05
1.82788e-05
6.56126e-08
6.88588e-08
7.87737e-06
9.96161e-06
4.44489e-06
1.60523e-05
2.70186e-05
3.23131e-05
2.49171e-05
3.63257e-05
0.000115176
5.15563e-05
2.85974e-06
3.8133e-08
2.63897e-08
2.66948e-08
2.42621e-06
2.95701e-05
3.15457e-05
2.13528e-05
1.32597e-05
1.00596e-06
3.22451e-08
2.52617e-08
2.52632e-08
2.90056e-05
3.55794e-05
1.89821e-05
1.88193e-05
0.000114556
3.72811e-05
2.04734e-07
8.57334e-08
8.9548e-08
7.47432e-08
7.63817e-08
1.07759e-06
1.79378e-05
3.78322e-05
3.77873e-05
3.62947e-05
2.88564e-05
2.0342e-06
2.52617e-08
5.15612e-06
3.54668e-05
2.1698e-05
1.7323e-05
0.00010833
3.9317e-05
2.07593e-07
8.06913e-08
1.18359e-07
1.29937e-07
8.85283e-08
4.51782e-08
9.77812e-08
6.02873e-06
2.93747e-05
3.63146e-05
3.12824e-05
2.50304e-06
1.59307e-07
2.49086e-08
1.67957e-05
2.82719e-05
3.26384e-05
9.52577e-05
1.66975e-05
6.15743e-08
3.32376e-08
6.14718e-08
9.09458e-08
7.89385e-08
4.48264e-08
4.34089e-08
4.34218e-08
1.63963e-06
6.19069e-06
3.77407e-06
9.29148e-07
6.32103e-08
2.48791e-08
2.49114e-08
1.81434e-05
5.42555e-05
3.71027e-05
1.34405e-06
6.34744e-08
1.07371e-08
1.87808e-08
3.10118e-08
4.06998e-08
3.69995e-08
4.74954e-08
6.1997e-08
6.29161e-08
6.38639e-08
6.48751e-08
1.09627e-07
8.10447e-08
7.13098e-08
2.69626e-08
2.28486e-06
5.46802e-05
1.77127e-05
9.01538e-08
9.21986e-08
4.7448e-09
7.45121e-09
1.19213e-08
1.81682e-08
2.46682e-08
3.33051e-08
5.10805e-08
7.4611e-08
1.20981e-07
1.21189e-07
9.73399e-08
4.67757e-08
3.66801e-08
2.13793e-08
2.11498e-08
3.95902e-05
7.0223e-06
9.01093e-08
1.36793e-07
2.19951e-09
3.18058e-09
4.81402e-09
7.37851e-09
1.10978e-08
1.5318e-08
2.00254e-08
3.19339e-08
5.3685e-08
7.09799e-08
6.15559e-08
4.48084e-08
3.06776e-08
2.12454e-08
1.06709e-06
2.01445e-06
2.93778e-07
1.25517e-07
1.36002e-07
1.25131e-09
1.64826e-09
2.2747e-09
3.27465e-09
4.91956e-09
7.35527e-09
1.02554e-08
1.42348e-08
2.10168e-08
3.27546e-08
4.43671e-08
3.74387e-08
3.08239e-08
8.05838e-08
4.47001e-07
4.02807e-08
5.15727e-08
1.16153e-07
1.08196e-07
8.60618e-10
1.11625e-09
1.45597e-09
1.93778e-09
2.69547e-09
3.82138e-09
5.65326e-09
8.45163e-09
1.32752e-08
2.18972e-08
3.0266e-08
2.70079e-08
3.15753e-08
1.3783e-07
5.79491e-08
2.6918e-08
2.84049e-08
9.39266e-08
6.45007e-08
6.74947e-10
8.83157e-10
1.15001e-09
1.49548e-09
1.9433e-09
2.60339e-09
3.51234e-09
4.94172e-09
7.61347e-09
1.19376e-08
1.75155e-08
1.79153e-08
2.56557e-08
1.4159e-07
5.10225e-08
2.60888e-08
2.60803e-08
2.61192e-08
5.20336e-08
5.44759e-10
7.41519e-10
9.87347e-10
1.29917e-09
1.69986e-09
2.24411e-09
2.90993e-09
3.79102e-09
5.12028e-09
7.34386e-09
1.04915e-08
1.28006e-08
1.63765e-08
8.89261e-08
3.53136e-08
2.601e-08
2.60333e-08
6.91787e-08
5.20105e-08
4.54222e-10
6.217e-10
8.59165e-10
1.17584e-09
1.60591e-09
2.18275e-09
2.88735e-09
3.67906e-09
4.6199e-09
6.03739e-09
7.75497e-09
8.48792e-09
9.26076e-09
2.81667e-08
2.78218e-08
7.77096e-08
1.58319e-07
1.6669e-07
6.78574e-08
3.46093e-10
4.99863e-10
7.1767e-10
1.036e-09
1.52852e-09
2.22084e-09
3.12469e-09
4.19508e-09
5.33532e-09
6.88616e-09
9.34144e-09
1.05343e-08
9.07675e-09
1.11358e-08
1.8031e-08
1.72734e-07
2.6574e-07
3.56338e-07
1.34519e-06
2.6063e-10
3.68481e-10
5.50948e-10
8.51381e-10
1.37053e-09
2.16385e-09
3.41389e-09
4.98748e-09
6.7672e-09
8.80293e-09
1.62746e-08
4.13792e-08
4.26818e-08
8.98246e-09
9.28758e-09
8.37722e-08
3.90248e-07
4.04198e-07
2.99496e-06
1.65098e-10
2.49869e-10
3.86815e-10
6.31339e-10
1.10623e-09
1.96619e-09
3.52942e-09
5.87607e-09
9.00573e-09
1.26914e-08
1.97423e-08
6.45387e-08
2.95148e-07
4.36998e-07
2.1717e-07
4.13063e-08
1.97592e-07
3.91996e-07
2.993e-06
1.02191e-10
1.5183e-10
2.43944e-10
4.20482e-10
7.86446e-10
1.56206e-09
3.12283e-09
6.25799e-09
1.17083e-08
1.77365e-08
2.92525e-08
7.92332e-08
3.84811e-07
5.19335e-06
6.44147e-06
4.44439e-07
1.66379e-07
2.64937e-07
2.99464e-06
5.26887e-11
8.26143e-11
1.35003e-10
2.40406e-10
4.76452e-10
1.01755e-09
2.28351e-09
5.44753e-09
1.16701e-08
2.21951e-08
3.80357e-08
8.29968e-08
3.982e-07
4.65294e-06
7.04341e-06
6.17811e-06
1.66166e-07
1.98719e-07
4.20154e-07
2.53232e-11
4.01392e-11
6.63646e-11
1.18841e-10
2.53928e-10
5.87165e-10
1.43995e-09
3.61532e-09
8.5733e-09
1.92033e-08
3.92503e-08
7.98432e-08
2.09712e-07
1.11321e-06
6.85906e-06
7.09394e-06
4.51714e-06
2.73838e-07
1.09966e-06
1.07471e-11
1.73486e-11
2.89501e-11
5.50164e-11
1.17903e-10
2.80702e-10
7.6168e-10
2.04783e-09
5.3018e-09
1.4047e-08
3.16373e-08
7.14256e-08
1.42306e-07
3.60448e-07
1.75886e-06
7.11089e-06
7.01237e-06
4.69409e-06
3.69564e-06
4.17563e-12
6.60025e-12
1.1322e-11
2.15205e-11
4.6707e-11
1.14021e-10
3.12434e-10
8.75143e-10
2.48732e-09
6.80408e-09
1.67599e-08
4.34817e-08
1.01491e-07
1.72567e-07
3.20005e-07
1.98061e-06
4.81091e-06
2.10471e-06
9.19756e-07
1.29409e-12
2.15862e-12
3.82088e-12
7.55977e-12
1.70722e-11
4.53496e-11
1.31004e-10
4.04477e-10
1.26177e-09
3.72152e-09
9.79516e-09
2.49814e-08
6.39185e-08
1.31371e-07
1.71011e-07
3.21488e-07
2.07941e-07
5.37408e-07
2.45869e-07
3.52486e-13
5.8665e-13
1.04861e-12
2.11757e-12
4.91786e-12
1.32596e-11
4.09212e-11
1.37977e-10
4.81578e-10
1.64102e-09
5.12885e-09
1.40372e-08
4.01195e-08
1.02429e-07
1.52971e-07
1.20235e-07
1.05632e-07
1.5263e-07
1.14717e-07
7.6851e-14
1.21685e-13
2.11108e-13
4.23753e-13
9.80184e-13
2.64095e-12
8.39658e-12
3.05193e-11
1.21229e-10
4.80759e-10
1.77926e-09
5.62363e-09
1.53891e-08
4.22756e-08
1.0543e-07
1.5276e-07
1.28375e-07
1.11948e-07
1.2221e-07
)
;

boundaryField
{
    leftWall
    {
        type            zeroGradient;
    }
    rightWall
    {
        type            zeroGradient;
    }
    lowerWall
    {
        type            zeroGradient;
    }
    atmosphere
    {
        type            inletOutlet;
        inletValue      uniform 0;
        value           nonuniform List<scalar> 
46
(
1.82755e-08
1.24184e-08
3.86812e-08
5.97111e-08
0
0
0
0
0
0
0
0
0
0
0
0
0
0
0
0
6.84792e-16
2.40435e-15
9.44662e-15
2.3299e-14
3.4309e-14
0
0
0
0
0
0
0
0
0
0
0
0
0
0
1.53891e-08
4.22756e-08
1.0543e-07
1.5276e-07
1.28375e-07
1.11948e-07
1.2221e-07
)
;
    }
    defaultFaces
    {
        type            empty;
    }
}


// ************************************************************************* //
