/*--------------------------------*- C++ -*----------------------------------*\
| =========                 |                                                 |
| \\      /  F ield         | OpenFOAM: The Open Source CFD Toolbox           |
|  \\    /   O peration     | Version:  2312                                  |
|   \\  /    A nd           | Website:  www.openfoam.com                      |
|    \\/     M anipulation  |                                                 |
\*---------------------------------------------------------------------------*/
FoamFile
{
    version     2.0;
    format      ascii;
    arch        "LSB;label=32;scalar=64";
    class       volScalarField;
    location    "4.2";
    object      p;
}
// * * * * * * * * * * * * * * * * * * * * * * * * * * * * * * * * * * * * * //

dimensions      [1 -1 -2 0 0 0 0];

internalField   nonuniform List<scalar> 
2268
(
6354.29
6305.47
6210.44
6082.58
5930.05
5765.04
5599.08
5440.67
5294.35
5161.88
5043.2
4938.59
4847.94
4770.55
4705.11
4649.88
4603.33
4564.46
4532.86
4508.11
4490.34
4477.36
4470.53
5568.82
5518.32
5422.81
5291.99
5136.65
4969.07
4801.19
4641.76
4495.09
4362.59
4243.75
4139.16
4048.64
3971.55
3906.5
3851.58
3805.28
3766.57
3735.06
3710.22
3692.59
3679.62
3672.54
4797.56
4741.88
4642.75
4506.69
4345.84
4173.12
4001.4
3839.95
3692.45
3560.11
3441.03
3336.47
3246.22
3169.77
3105.57
3051.31
3005.48
2967.14
2935.8
2910.79
2894.07
2880.66
2873.28
4034.31
3975.58
3870.79
3726.83
3557.67
3376.97
3199.38
3035.04
2886.64
2754.61
2634.95
2530.39
2440.53
2365.07
2302.3
2249.05
2204.08
2167.49
2137.56
2112.46
2095.04
2082.76
2074.01
3283.04
3220.11
3107.51
2952.61
2772.21
2580.78
2395.07
2227.78
2080.15
1946.5
1825.25
1720.46
1631.09
1558.71
1500.95
1452.48
1413.21
1381.19
1355.06
1334.22
1320.31
1309.76
1305.18
2544.29
2476.12
2353.35
2183.29
1987.57
1781.88
1586.33
1423.07
1291.01
1185.31
1100.91
1035.05
986.073
948.926
920.132
896.521
878.117
863.096
851.1
841.712
836.035
832.299
834.998
1820.17
1746.39
1611.63
1427.4
1243.57
1079.47
951.27
870.164
813.958
775.92
750.338
733.394
724.576
718.145
712.411
708.318
705.032
702.035
699.768
698.728
698.318
698.124
698.94
1136.28
1076.61
975.855
850.645
766.281
719.286
698.853
691.056
684.454
678.929
674.235
670.001
664.178
658.446
653.327
649.328
646.227
643.275
641.104
640.613
640.793
640.944
642.366
2413.7
2456.61
2480.63
2490.5
2498.37
2530.36
2587.71
2664.41
2744.63
2835.45
2921.66
2982.24
3002.47
2976.65
2927.28
2880.43
2850.42
2827.2
2812.11
1680.97
1700.64
1723.27
1731.37
1736.28
1771.25
1829.85
1906.83
1983.84
2077.59
2160.49
2222.14
2239.01
2206.22
2155.22
2109.59
2082.39
2059.35
2044.05
1137.57
1128.78
1147.22
1164.33
1182.76
1216.9
1257.44
1298.04
1348.94
1436.37
1502.73
1545.26
1564.11
1547.18
1505.87
1462.56
1437.49
1426.63
1426.83
904.333
896.202
914.298
939.176
967.613
997.254
1020.11
1030.19
1039.65
1068.7
1093.25
1112.86
1129.97
1136.58
1127.49
1111.57
1102.38
1101.73
1104.76
834.812
822.306
843.493
865.768
887.722
917.378
940.15
953.868
948.336
936.815
938.07
952.927
965.048
974.209
987.403
996.102
1000.37
999.502
995.276
767.52
752.355
778.441
798.797
817.04
835.003
855.671
873.271
882.405
883.888
889.321
901.247
915.145
926.133
936.488
942.052
943.731
942.522
942.136
709.985
693.799
717.937
739.657
757.125
766.779
781.359
794.263
812.594
825.501
835.356
846.506
861.094
873.779
881.452
883.572
884.648
883.689
882.792
658.362
638.366
657.829
680.86
699.108
711.443
723.15
728.424
746.151
765.38
779.322
790.499
803.769
817.615
824.431
822.721
825.62
823.405
821.74
650.525
630.46
608.295
595.968
594.154
595.76
596.91
594.106
589.738
584.686
579.695
574.805
569.526
564.425
559.772
556.055
552.561
549.375
546.963
546.155
546.863
547.626
547.657
439.347
443.731
450.877
459.866
465.485
468.331
468.676
466.17
461.863
456.666
451.197
445.882
440.712
435.82
431.245
427.562
424.481
421.156
418.651
417.866
418.65
421.078
424.689
328.139
329.719
334.767
339.739
342.933
343.884
342.724
339.734
335.561
330.893
326.072
321.82
318.498
315.579
313.214
311.475
311.915
313.225
314.144
315.394
317.939
322.141
327.274
218.975
218.644
220.771
223.498
225.856
227.035
226.851
225.738
224.999
224.954
225.948
227.247
227.591
227.879
228.536
229.669
231.609
235.128
238.866
242.445
246.825
251.933
257.984
126.479
126.765
129.436
132.324
135.048
137.82
140.751
144.038
147.287
150.219
153.889
157.733
160.474
162.653
164.543
166.128
167.494
169.4
172.469
176.216
180.512
185.696
191.859
59.5428
61.5595
64.6741
67.5947
70.3946
73.2383
76.8402
81.2868
85.5414
89.1334
91.9009
94.1269
96.0651
97.8058
99.6996
101.574
102.288
103.787
106.212
109.319
113.543
119.127
125.746
15.3676
16.2
17.7374
19.4301
21.1505
22.6316
24.472
26.8735
29.3377
31.3292
32.9208
34.1132
35.2267
36.0171
36.5439
37.1581
37.3786
38.3235
39.9454
42.577
45.8508
50.7929
57.7174
-0.972816
-0.978367
-0.611221
-0.0660958
0.361401
0.563681
0.595233
0.777208
1.33353
1.84839
2.32919
2.63709
2.96161
3.14401
3.20431
3.34149
3.60956
4.08106
4.68647
5.24042
6.14969
7.87667
10.9268
-1.40154
-1.41797
-1.41226
-1.38217
-1.36812
-1.41326
-1.4242
-1.41615
-1.43297
-1.4247
-1.38463
-1.36375
-1.36726
-1.36935
-1.35627
-1.32265
-1.22904
-1.14875
-1.0807
-1.08317
-1.05737
-0.960655
-0.813244
-1.5714
-1.57663
-1.59346
-1.61269
-1.61241
-1.60207
-1.58447
-1.58109
-1.58624
-1.58554
-1.57145
-1.54852
-1.5291
-1.51567
-1.50815
-1.50105
-1.49053
-1.47248
-1.45279
-1.42541
-1.41044
-1.40499
-1.3832
-1.68938
-1.70045
-1.7126
-1.72557
-1.72941
-1.72124
-1.70782
-1.69873
-1.69623
-1.69498
-1.68803
-1.67526
-1.66175
-1.65133
-1.64353
-1.63673
-1.62966
-1.62075
-1.60888
-1.59548
-1.58681
-1.5831
-1.58077
-1.82056
-1.82748
-1.83516
-1.84188
-1.84342
-1.84012
-1.83352
-1.82793
-1.82423
-1.81967
-1.8122
-1.80279
-1.7938
-1.78667
-1.78054
-1.77458
-1.76904
-1.76335
-1.75857
-1.7537
-1.75161
-1.75136
-1.75269
-1.95192
-1.95569
-1.96022
-1.96397
-1.96543
-1.96363
-1.96002
-1.95635
-1.95246
-1.94772
-1.94119
-1.93438
-1.9284
-1.923
-1.91754
-1.91243
-1.90764
-1.90369
-1.90251
-1.90385
-1.90714
-1.90995
-1.91368
-2.08207
-2.08403
-2.08651
-2.08856
-2.08937
-2.08843
-2.08668
-2.08447
-2.08152
-2.07785
-2.07315
-2.06821
-2.06372
-2.05904
-2.05389
-2.04967
-2.0462
-2.04466
-2.04612
-2.05048
-2.05527
-2.05901
-2.06233
-2.21113
-2.2121
-2.21335
-2.21435
-2.21461
-2.21394
-2.2127
-2.21114
-2.20916
-2.2066
-2.20356
-2.20028
-2.19705
-2.19354
-2.18975
-2.18651
-2.18464
-2.18476
-2.18658
-2.19042
-2.19446
-2.19876
-2.20162
-2.33944
-2.3399
-2.34048
-2.34088
-2.34083
-2.34024
-2.33922
-2.33793
-2.33633
-2.33434
-2.3321
-2.32999
-2.32787
-2.32565
-2.32329
-2.32136
-2.32063
-2.32138
-2.32298
-2.32491
-2.32749
-2.33125
-2.3349
-2.46734
-2.46756
-2.46778
-2.46789
-2.46769
-2.46716
-2.46633
-2.46528
-2.464
-2.46247
-2.46081
-2.45921
-2.45767
-2.4562
-2.45487
-2.45395
-2.45393
-2.45497
-2.4567
-2.45803
-2.45953
-2.46223
-2.46688
-2.59506
-2.59517
-2.59522
-2.59519
-2.59495
-2.5945
-2.59384
-2.59302
-2.59204
-2.59091
-2.58971
-2.58855
-2.58748
-2.58656
-2.58585
-2.58555
-2.58586
-2.58688
-2.58855
-2.59038
-2.59204
-2.594
-2.59866
-2.72274
-2.7228
-2.72279
-2.7227
-2.72248
-2.72212
-2.72163
-2.72102
-2.7203
-2.7195
-2.71867
-2.71789
-2.71722
-2.7167
-2.71643
-2.71652
-2.71708
-2.71816
-2.71972
-2.72165
-2.72363
-2.72594
-2.73006
-2.85043
-2.85047
-2.85045
-2.85037
-2.8502
-2.84995
-2.8496
-2.84918
-2.8487
-2.84817
-2.84765
-2.84718
-2.84682
-2.84663
-2.84668
-2.84704
-2.84778
-2.84894
-2.8505
-2.85239
-2.85455
-2.85723
-2.86111
-2.97817
-2.97821
-2.9782
-2.97816
-2.97806
-2.97791
-2.9777
-2.97745
-2.97717
-2.97687
-2.97659
-2.97638
-2.97628
-2.97634
-2.97663
-2.9772
-2.9781
-2.97935
-2.98096
-2.98291
-2.98522
-2.98805
-2.99179
-3.10595
-3.10602
-3.10605
-3.10606
-3.10603
-3.10598
-3.10589
-3.10579
-3.10567
-3.10555
-3.10548
-3.10547
-3.10558
-3.10585
-3.10633
-3.10706
-3.10809
-3.10943
-3.11112
-3.11315
-3.11556
-3.11846
-3.12206
-3.2338
-3.23389
-3.23397
-3.23404
-3.23409
-3.23413
-3.23415
-3.23416
-3.23417
-3.23421
-3.23429
-3.23445
-3.23472
-3.23515
-3.23578
-3.23664
-3.23777
-3.2392
-3.24094
-3.24302
-3.24549
-3.2484
-3.25187
-3.36171
-3.36184
-3.36197
-3.3621
-3.36222
-3.36233
-3.36244
-3.36255
-3.36267
-3.36282
-3.36303
-3.36331
-3.36371
-3.36427
-3.36501
-3.36596
-3.36717
-3.36866
-3.37044
-3.37255
-3.37501
-3.37788
-3.38123
-3.4897
-3.48986
-3.49004
-3.49023
-3.49042
-3.49059
-3.49077
-3.49095
-3.49115
-3.49138
-3.49168
-3.49206
-3.49256
-3.4932
-3.49402
-3.49504
-3.4963
-3.49782
-3.49962
-3.50173
-3.50416
-3.50697
-3.51018
-3.61778
-3.61797
-3.61819
-3.61843
-3.61867
-3.61889
-3.61911
-3.61934
-3.61959
-3.61989
-3.62025
-3.6207
-3.62126
-3.62196
-3.62283
-3.6239
-3.62519
-3.62671
-3.62851
-3.63058
-3.63296
-3.63567
-3.63874
-3.74594
-3.74617
-3.74642
-3.7467
-3.74697
-3.74722
-3.74747
-3.74772
-3.74801
-3.74834
-3.74874
-3.74922
-3.74982
-3.75056
-3.75146
-3.75255
-3.75384
-3.75535
-3.75711
-3.75913
-3.76143
-3.76403
-3.76695
-3.87421
-3.87446
-3.87474
-3.87504
-3.87532
-3.87558
-3.87584
-3.8761
-3.87638
-3.87673
-3.87714
-3.87765
-3.87826
-3.87901
-3.87992
-3.881
-3.88227
-3.88375
-3.88546
-3.88741
-3.88961
-3.89208
-3.89484
-4.00257
-4.00284
-4.00313
-4.00345
-4.00372
-4.00397
-4.00421
-4.00445
-4.00473
-4.00506
-4.00546
-4.00597
-4.00658
-4.00732
-4.00821
-4.00927
-4.0105
-4.01193
-4.01357
-4.01543
-4.01752
-4.01985
-4.02244
-4.13104
-4.13132
-4.13162
-4.13193
-4.13218
-4.1324
-4.13259
-4.13279
-4.13302
-4.13332
-4.1337
-4.13419
-4.13478
-4.1355
-4.13636
-4.13737
-4.13855
-4.13991
-4.14146
-4.14322
-4.14518
-4.14736
-4.14977
-4.2596
-4.25989
-4.26021
-4.26051
-4.26075
-4.2609
-4.261
-4.26111
-4.26127
-4.26152
-4.26186
-4.2623
-4.26286
-4.26354
-4.26436
-4.26531
-4.26643
-4.2677
-4.26916
-4.2708
-4.27263
-4.27465
-4.27688
-4.3882
-4.3885
-4.38883
-4.38915
-4.38935
-4.38942
-4.3894
-4.38939
-4.38946
-4.38963
-4.38991
-4.39031
-4.39083
-4.39146
-4.39222
-4.39311
-4.39415
-4.39533
-4.39668
-4.39819
-4.39988
-4.40174
-4.40377
-4.51677
-4.51707
-4.51742
-4.51774
-4.5179
-4.51787
-4.51771
-4.51757
-4.51754
-4.51763
-4.51786
-4.51821
-4.51867
-4.51925
-4.51995
-4.52077
-4.52172
-4.52281
-4.52404
-4.52542
-4.52696
-4.52865
-4.53049
-4.64519
-4.6455
-4.64586
-4.64618
-4.64629
-4.64615
-4.64586
-4.64562
-4.6455
-4.64553
-4.6457
-4.64599
-4.64641
-4.64693
-4.64756
-4.6483
-4.64916
-4.65014
-4.65126
-4.6525
-4.65388
-4.6554
-4.65706
-4.77339
-4.7737
-4.77406
-4.77437
-4.77442
-4.77419
-4.77382
-4.77351
-4.77333
-4.7733
-4.77342
-4.77367
-4.77403
-4.7745
-4.77506
-4.77572
-4.77649
-4.77736
-4.77835
-4.77945
-4.78068
-4.78202
-4.78348
-4.90131
-4.90159
-4.90195
-4.90223
-4.90225
-4.90199
-4.90158
-4.90123
-4.90101
-4.90096
-4.90104
-4.90125
-4.90156
-4.90196
-4.90245
-4.90303
-4.9037
-4.90446
-4.90532
-4.90629
-4.90735
-4.90853
-4.9098
-5.02898
-5.02919
-5.02951
-5.02976
-5.02975
-5.02951
-5.02912
-5.02878
-5.02857
-5.0285
-5.02857
-5.02874
-5.029
-5.02934
-5.02976
-5.03025
-5.03082
-5.03147
-5.0322
-5.03302
-5.03393
-5.03493
-5.03601
-5.15645
-5.15659
-5.15682
-5.157
-5.15699
-5.15678
-5.15647
-5.1562
-5.15603
-5.15597
-5.15603
-5.15617
-5.15638
-5.15665
-5.15699
-5.1574
-5.15787
-5.1584
-5.159
-5.15968
-5.16042
-5.16124
-5.16213
-5.28382
-5.28389
-5.284
-5.28409
-5.28407
-5.2839
-5.28369
-5.28352
-5.28342
-5.28339
-5.28344
-5.28355
-5.28371
-5.28392
-5.28418
-5.28449
-5.28485
-5.28526
-5.28573
-5.28626
-5.28685
-5.28749
-5.28818
-5.41117
-5.41117
-5.41116
-5.41113
-5.41114
-5.41098
-5.41088
-5.4108
-5.41077
-5.41078
-5.41083
-5.4109
-5.41101
-5.41115
-5.41132
-5.41154
-5.41179
-5.41208
-5.41241
-5.41279
-5.41322
-5.41369
-5.41419
-5.53857
-5.53852
-5.53837
-5.53818
-5.53802
-5.53805
-5.53808
-5.5381
-5.53812
-5.53815
-5.53819
-5.53824
-5.53829
-5.53836
-5.53845
-5.53856
-5.5387
-5.53886
-5.53906
-5.5393
-5.53955
-5.53984
-5.54015
-5.66607
-5.666
-5.66576
-5.66548
-5.6653
-5.66533
-5.66541
-5.66549
-5.66555
-5.6656
-5.66562
-5.66563
-5.66562
-5.66562
-5.66561
-5.66562
-5.66563
-5.66566
-5.6657
-5.66577
-5.66586
-5.66597
-5.66609
546.86
549.874
554.925
560.475
427.567
429.106
431.023
433.736
331.737
335.043
338.479
341.553
262.753
265.924
269.434
272.637
196.659
199.61
202.506
205.404
130.627
133.607
136.764
140.005
63.6296
67.5256
71.6051
75.7155
14.1128
16.6894
19.7352
23.1122
-0.597974
-0.30604
0.114117
0.497557
-1.36049
-1.3545
-1.32859
-1.3056
-1.57432
-1.57061
-1.56419
-1.55857
-1.7557
-1.75973
-1.76331
-1.76581
-1.91972
-1.92413
-1.9276
-1.92915
-2.06458
-2.06499
-2.06422
-2.06258
-2.20229
-2.20158
-2.19995
-2.19853
-2.33776
-2.33979
-2.34172
-2.34342
-2.47242
-2.47688
-2.48221
-2.4868
-2.60496
-2.60976
-2.61515
-2.62071
-2.73545
-2.73942
-2.74373
-2.74819
-2.86521
-2.86829
-2.87176
-2.87548
-2.99517
-2.99767
-3.00048
-3.00356
-3.12515
-3.12735
-3.12975
-3.13234
-3.2548
-3.25684
-3.25906
-3.26125
-3.38402
-3.38593
-3.38795
-3.39009
-3.51284
-3.51465
-3.51655
-3.51856
-3.64128
-3.64298
-3.64478
-3.64665
-3.76933
-3.77094
-3.77263
-3.77438
-3.89708
-3.89859
-3.90016
-3.90179
-4.02453
-4.02593
-4.02739
-4.0289
-4.15171
-4.15301
-4.15435
-4.15575
-4.27866
-4.27985
-4.28108
-4.28236
-4.4054
-4.40649
-4.40761
-4.40877
-4.53196
-4.53294
-4.53395
-4.535
-4.65837
-4.65925
-4.66015
-4.66108
-4.78464
-4.78541
-4.78621
-4.78703
-4.9108
-4.91147
-4.91215
-4.91286
-5.03686
-5.03742
-5.038
-5.0386
-5.16283
-5.16329
-5.16377
-5.16426
-5.28873
-5.28909
-5.28947
-5.28985
-5.41458
-5.41485
-5.41512
-5.41539
-5.5404
-5.54056
-5.54072
-5.54089
-5.66618
-5.66625
-5.66631
-5.66636
568.18
556.468
566.112
588.517
609.169
627.256
635.114
638.747
653.63
671.675
682.821
697.14
713.887
727.573
731.907
733.366
735.67
730.448
732.27
439.339
441.338
453.172
473.803
489.878
503.213
510.187
518.508
527.781
540.437
551.057
567.05
587.84
601.851
608.848
613.382
613.091
611.299
617.486
346.321
352.731
362.037
374.693
388.458
396.246
400.165
409.262
415.684
422.343
440.34
455.112
470.982
483.331
492.518
498.728
501.941
507.128
513.374
277.231
283.612
289.498
293.993
302.531
310.292
314.69
318.924
326.509
333.524
349.284
363.971
377.496
389.173
397.552
406.228
415.836
424.246
430.059
210.442
218.182
223.488
225.356
229.362
236.211
242.441
246.423
253.745
263.022
274.792
289.022
303.559
316.812
328.463
339.037
348.452
356.551
362.189
145.254
152.265
157.711
160.281
163.883
169.694
176.449
183.233
190.597
201.868
213.57
228.701
243.222
256.817
269.095
280.063
289.361
297.399
302.244
81.8136
86.7257
90.0759
92.6922
96.7267
103.434
110.923
120.481
131.177
143.152
155.721
169.797
184.634
198.81
211.825
223.19
232.915
241.218
246.08
27.7765
29.8676
29.9758
29.7898
31.5326
36.8176
44.0818
53.412
67.7838
84.0892
97.0245
110.448
126.167
141.831
156.072
168.303
178.281
186.296
191.72
1.3996
2.02286
2.05511
1.64265
1.33518
2.62182
5.19884
9.36908
17.5358
28.2607
37.8895
49.5075
65.894
84.7371
101.695
115.218
125.729
133.345
138.258
-1.28619
-1.25399
-1.3144
-1.37756
-1.37177
-1.42551
-1.47893
-1.21771
-0.223598
0.79759
3.54351
8.48229
18.1238
32.2918
48.3779
63.6856
74.9816
81.9631
85.9637
-1.56717
-1.57701
-1.58781
-1.58553
-1.59486
-1.6529
-1.72035
-1.74112
-1.72246
-1.68599
-1.69852
-1.6078
-0.508325
2.72964
10.9087
22.6281
31.9835
37.4548
40.314
-1.76721
-1.77265
-1.77637
-1.77948
-1.79224
-1.81638
-1.83723
-1.86134
-1.87585
-1.87836
-1.89687
-1.90193
-1.93332
-1.82904
-0.912683
1.24138
4.7489
7.27886
9.57271
-1.92789
-1.92728
-1.93215
-1.93868
-1.94813
-1.96344
-1.98305
-1.99608
-2.00457
-2.01071
-2.02766
-2.05224
-2.09892
-2.1234
-2.20127
-2.13909
-0.697356
1.04255
1.62397
-2.06041
-2.06505
-2.07682
-2.08774
-2.098
-2.10775
-2.11751
-2.12772
-2.14143
-2.15771
-2.17868
-2.20583
-2.24626
-2.29804
-2.3841
-2.44564
-2.47209
-2.46949
-2.44391
-2.19905
-2.20918
-2.22334
-2.2323
-2.24049
-2.24873
-2.25525
-2.26532
-2.28162
-2.30555
-2.33185
-2.3571
-2.38473
-2.4251
-2.47812
-2.52736
-2.56049
-2.56943
-2.58209
-2.34689
-2.35518
-2.36339
-2.37006
-2.37831
-2.3897
-2.40321
-2.41863
-2.43736
-2.45879
-2.47915
-2.49698
-2.51627
-2.54605
-2.58411
-2.62196
-2.64693
-2.65778
-2.66869
-2.49194
-2.49665
-2.49959
-2.50505
-2.51419
-2.52886
-2.54962
-2.56954
-2.58502
-2.59874
-2.6118
-2.62614
-2.64399
-2.66848
-2.69809
-2.72787
-2.74934
-2.75734
-2.76312
-2.62741
-2.63255
-2.63532
-2.63994
-2.64881
-2.66371
-2.685
-2.70705
-2.72165
-2.73191
-2.74208
-2.75436
-2.76908
-2.78825
-2.81391
-2.84092
-2.85763
-2.86305
-2.86537
-2.75494
-2.76194
-2.76759
-2.77422
-2.78272
-2.79584
-2.81439
-2.83444
-2.85031
-2.86279
-2.87406
-2.88463
-2.89568
-2.90914
-2.92737
-2.94771
-2.96111
-2.96849
-2.96885
-2.88158
-2.88924
-2.89673
-2.90541
-2.91499
-2.92643
-2.94189
-2.96015
-2.97682
-2.99073
-3.00299
-3.01318
-3.02233
-3.03016
-3.04081
-3.05461
-3.06476
-3.07112
-3.07275
-3.00889
-3.01653
-3.02459
-3.03361
-3.04393
-3.05535
-3.06879
-3.08416
-3.09941
-3.113
-3.12501
-3.13485
-3.14334
-3.14991
-3.15629
-3.16481
-3.17164
-3.17695
-3.18
-3.13697
-3.14421
-3.15203
-3.16069
-3.17049
-3.18158
-3.19403
-3.20725
-3.22033
-3.23254
-3.24347
-3.25285
-3.26087
-3.26794
-3.27315
-3.27855
-3.28365
-3.28804
-3.29081
-3.26547
-3.27216
-3.27941
-3.28743
-3.29642
-3.30641
-3.31742
-3.32917
-3.34079
-3.35154
-3.36116
-3.36998
-3.37794
-3.38469
-3.39054
-3.39445
-3.39928
-3.40235
-3.40409
-3.39394
-3.40008
-3.40676
-3.41411
-3.42222
-3.43113
-3.44076
-3.4509
-3.46112
-3.47083
-3.47978
-3.48801
-3.49554
-3.50261
-3.50834
-3.51203
-3.51599
-3.51829
-3.51874
-3.52213
-3.52778
-3.53393
-3.54066
-3.54801
-3.55598
-3.56449
-3.5734
-3.58244
-3.59123
-3.59949
-3.60707
-3.6139
-3.61999
-3.62543
-3.62968
-3.63265
-3.63427
-3.63409
-3.64997
-3.65518
-3.66086
-3.66703
-3.67371
-3.68088
-3.68848
-3.69641
-3.70448
-3.71242
-3.71996
-3.72689
-3.73304
-3.73832
-3.74274
-3.74629
-3.74855
-3.74986
-3.74993
-3.77747
-3.78228
-3.78752
-3.79318
-3.79926
-3.80573
-3.81256
-3.81965
-3.82687
-3.83401
-3.84084
-3.84711
-3.85261
-3.85718
-3.86074
-3.8632
-3.86487
-3.86606
-3.86637
-3.90466
-3.90909
-3.9139
-3.91908
-3.92461
-3.93046
-3.93659
-3.94293
-3.94937
-3.95577
-3.96191
-3.96754
-3.97242
-3.97636
-3.97925
-3.98107
-3.98231
-3.98318
-3.98343
-4.03155
-4.03561
-4.04001
-4.04472
-4.04973
-4.05501
-4.06052
-4.06617
-4.07191
-4.07759
-4.08305
-4.08806
-4.09237
-4.09578
-4.09818
-4.09963
-4.1006
-4.10121
-4.10135
-4.15818
-4.16189
-4.16589
-4.17015
-4.17468
-4.17942
-4.18433
-4.18935
-4.19446
-4.19945
-4.20426
-4.20868
-4.21246
-4.21542
-4.21746
-4.21871
-4.21951
-4.21997
-4.22004
-4.28458
-4.28795
-4.29156
-4.29541
-4.29946
-4.30369
-4.30807
-4.31252
-4.31699
-4.32138
-4.32558
-4.32944
-4.33272
-4.33528
-4.33707
-4.3382
-4.33891
-4.3393
-4.33933
-4.41078
-4.41382
-4.41706
-4.4205
-4.42411
-4.42787
-4.43173
-4.43565
-4.43956
-4.44338
-4.44702
-4.45034
-4.45316
-4.45539
-4.45695
-4.45804
-4.45872
-4.45909
-4.45909
-4.53681
-4.53953
-4.54242
-4.54547
-4.54866
-4.55196
-4.55535
-4.55877
-4.56216
-4.56546
-4.56858
-4.57143
-4.57385
-4.57576
-4.57712
-4.57819
-4.57887
-4.57926
-4.57926
-4.66269
-4.66509
-4.66764
-4.67032
-4.67311
-4.67599
-4.67893
-4.68189
-4.68481
-4.68763
-4.69029
-4.6927
-4.69476
-4.69637
-4.69758
-4.69864
-4.69931
-4.69971
-4.69974
-4.78844
-4.79054
-4.79276
-4.79508
-4.79749
-4.79997
-4.80249
-4.80501
-4.8075
-4.8099
-4.81214
-4.81418
-4.81594
-4.81734
-4.81844
-4.81938
-4.82003
-4.82039
-4.8205
-4.91408
-4.91589
-4.91779
-4.91976
-4.92181
-4.92391
-4.92604
-4.92816
-4.93025
-4.93226
-4.93414
-4.93586
-4.93738
-4.93867
-4.93965
-4.94043
-4.94099
-4.94129
-4.94148
-5.03963
-5.04115
-5.04274
-5.04439
-5.04609
-5.04782
-5.04958
-5.05133
-5.05305
-5.05471
-5.05626
-5.05769
-5.05898
-5.06013
-5.06105
-5.0617
-5.06215
-5.06238
-5.06259
-5.1651
-5.16634
-5.16763
-5.16896
-5.17033
-5.17172
-5.17313
-5.17453
-5.1759
-5.17722
-5.17847
-5.17963
-5.18069
-5.18165
-5.18249
-5.1831
-5.18346
-5.18366
-5.18383
-5.29051
-5.29147
-5.29247
-5.29349
-5.29454
-5.29561
-5.29668
-5.29774
-5.29879
-5.2998
-5.30075
-5.30165
-5.30248
-5.30323
-5.30392
-5.30448
-5.30484
-5.30499
-5.30507
-5.41586
-5.41655
-5.41727
-5.418
-5.41874
-5.41949
-5.42025
-5.42099
-5.42172
-5.42242
-5.42309
-5.42372
-5.42432
-5.42488
-5.42539
-5.42583
-5.42612
-5.42621
-5.42626
-5.54118
-5.5416
-5.54204
-5.54248
-5.54293
-5.54338
-5.54382
-5.54426
-5.54468
-5.54508
-5.54546
-5.54582
-5.5462
-5.54658
-5.54694
-5.54723
-5.54741
-5.54748
-5.54752
-5.66646
-5.66661
-5.66678
-5.66694
-5.6671
-5.66725
-5.66739
-5.66752
-5.66764
-5.66774
-5.66784
-5.66794
-5.66811
-5.66834
-5.66856
-5.66874
-5.66881
-5.66886
-5.66891
)
;

boundaryField
{
    leftWall
    {
        type            calculated;
        value           nonuniform List<scalar> 
50
(
6354.29
5568.82
4797.56
4034.31
3283.04
2544.29
1820.17
1136.28
650.525
439.347
328.139
218.975
126.479
59.5428
15.3676
-0.972816
-1.40154
-1.5714
-1.68938
-1.82056
-1.95192
-2.08207
-2.21113
-2.33944
-2.46734
-2.59506
-2.72274
-2.85043
-2.97817
-3.10595
-3.2338
-3.36171
-3.4897
-3.61778
-3.74594
-3.87421
-4.00257
-4.13104
-4.2596
-4.3882
-4.51677
-4.64519
-4.77339
-4.90131
-5.02898
-5.15645
-5.28382
-5.41117
-5.53857
-5.66607
)
;
    }
    rightWall
    {
        type            calculated;
        value           nonuniform List<scalar> 
50
(
2812.11
2044.05
1426.83
1104.76
995.276
942.136
882.792
821.74
732.27
617.486
513.374
430.059
362.189
302.244
246.08
191.72
138.258
85.9637
40.314
9.57271
1.62397
-2.44391
-2.58209
-2.66869
-2.76312
-2.86537
-2.96885
-3.07275
-3.18
-3.29081
-3.40409
-3.51874
-3.63409
-3.74993
-3.86637
-3.98343
-4.10135
-4.22004
-4.33933
-4.45909
-4.57926
-4.69974
-4.8205
-4.94148
-5.06259
-5.18383
-5.30507
-5.42626
-5.54752
-5.66891
)
;
    }
    lowerWall
    {
        type            calculated;
        value           nonuniform List<scalar> 
62
(
6752.44
6703.62
6608.59
6480.73
6328.2
6163.19
5997.23
5838.82
5692.5
5560.03
5441.35
5336.74
5246.08
5168.7
5103.26
5048.03
5001.48
4962.61
4931.01
4906.25
4888.47
4875.49
4868.66
4470.53
3672.54
2873.28
2074.01
1305.18
834.998
698.94
642.366
608.096
611.98
617.097
622.602
2413.7
1680.97
1137.57
904.333
834.812
767.52
709.985
658.362
2795.85
2838.74
2862.68
2872.4
2880.27
2911.57
2968.48
3045.92
3126.14
3216.97
3303
3363.68
3384.4
3360.84
3312.03
3265.06
3234.16
3210.69
3195.57
)
;
    }
    atmosphere
    {
        type            calculated;
        value           nonuniform List<scalar> 
46
(
-5.72973
-5.72981
-5.72952
-5.72931
-5.72904
-5.7291
-5.72921
-5.72931
-5.72938
-5.72942
-5.72943
-5.7294
-5.72936
-5.72931
-5.72925
-5.72919
-5.72914
-5.72909
-5.72906
-5.72904
-5.72904
-5.72904
-5.72904
-5.72905
-5.72906
-5.72904
-5.72904
-5.72906
-5.72909
-5.72913
-5.72916
-5.72918
-5.72919
-5.72919
-5.72918
-5.72916
-5.72914
-5.72911
-5.72907
-5.7291
-5.72918
-5.72939
-5.72955
-5.7295
-5.72945
-5.72946
)
;
    }
    defaultFaces
    {
        type            empty;
    }
}


// ************************************************************************* //
