/*--------------------------------*- C++ -*----------------------------------*\
| =========                 |                                                 |
| \\      /  F ield         | OpenFOAM: The Open Source CFD Toolbox           |
|  \\    /   O peration     | Version:  2312                                  |
|   \\  /    A nd           | Website:  www.openfoam.com                      |
|    \\/     M anipulation  |                                                 |
\*---------------------------------------------------------------------------*/
FoamFile
{
    version     2.0;
    format      ascii;
    arch        "LSB;label=32;scalar=64";
    class       volScalarField;
    location    "3.35";
    object      alpha.air;
}
// * * * * * * * * * * * * * * * * * * * * * * * * * * * * * * * * * * * * * //

dimensions      [0 0 0 0 0 0 0];

internalField   nonuniform List<scalar> 
2268
(
7.33893e-10
6.58515e-10
5.50962e-10
3.4579e-10
1.72849e-10
9.86502e-11
5.28988e-11
2.76085e-11
1.83177e-11
1.587e-11
1.81106e-11
2.52155e-11
3.7814e-11
5.98676e-11
1.01371e-10
1.67209e-10
2.05497e-10
1.55324e-10
1.35826e-10
1.35827e-10
4.42823e-09
4.06842e-08
2.01233e-07
9.53699e-10
1.7128e-09
2.33174e-09
1.77953e-09
7.77637e-10
4.34045e-10
1.92108e-10
8.59613e-11
6.23325e-11
6.55402e-11
1.05041e-10
1.72606e-10
2.48692e-10
2.94926e-10
5.00605e-10
1.07404e-09
2.59699e-09
2.5215e-09
8.89552e-10
1.35826e-10
2.37409e-08
1.04194e-06
2.17859e-06
1.12852e-09
3.80157e-09
4.47825e-09
7.47306e-09
5.85164e-09
8.2658e-11
8.22256e-11
8.26744e-11
1.0794e-10
1.78551e-10
3.61117e-10
8.13726e-10
8.59741e-10
5.32348e-10
6.77449e-10
1.97338e-09
1.2846e-08
2.72102e-08
2.6215e-08
1.39912e-08
1.3421e-08
1.48013e-06
1.50443e-06
1.129e-09
2.09156e-09
2.11605e-09
9.51439e-09
1.99199e-08
1.28829e-07
1.25672e-07
1.85935e-08
5.85754e-10
1.8558e-10
2.06417e-10
3.011e-10
2.76911e-10
2.79062e-10
1.24325e-10
1.25853e-10
1.86171e-09
5.08335e-09
7.14915e-08
4.87714e-09
5.02109e-10
-8.24802e-10
-1.82453e-22
1.12957e-09
1.13013e-09
4.76263e-06
1.08533e-08
1.09784e-08
2.07414e-06
1.35569e-06
4.0571e-07
5.98534e-10
1.21439e-10
1.21539e-10
1.21307e-10
9.06113e-09
5.75896e-06
3.3638e-08
1.95498e-05
1.95017e-09
1.11771e-05
5.57822e-07
3.32149e-12
2.72401e-12
0.00131285
0.00775653
0.000410373
0.000593047
0.000813466
0.000536706
0.000116206
1.13385e-05
2.18284e-07
4.03855e-06
2.74274e-05
0.000108458
0.000169904
0.000109795
6.57328e-06
1.6497e-06
0.000132072
0.000475016
4.91715e-05
2.78524e-07
2.86233e-07
0.00010707
0.00650772
0.0168271
0.0169651
0.00101496
0.00132592
0.00132592
0.00132592
0.000605404
7.54498e-06
2.18063e-07
2.17767e-07
0.000126633
0.000253138
0.000253122
0.000118064
1.6592e-06
1.66662e-06
7.30876e-05
9.06765e-05
0.00344732
0.014173
0.0175289
0.0174934
0.0113902
0.0119785
0.0147904
0.000657719
0.0011692
0.00132589
0.000853822
0.000425485
5.14552e-06
2.21362e-07
2.17651e-07
4.51567e-05
0.000149724
8.89654e-05
0.000169395
0.000946105
0.000940547
0.000693174
0.00452626
0.0152843
0.0165522
0.0142595
0.00373904
0.00158317
0.00268993
0.0197617
0.000603918
0.00339907
0.00687881
0.0108962
0.0108974
0.00661341
0.00434499
0.00392953
0.00394048
0.00394873
0.00397491
0.00390631
0.00337912
0.00337848
0.00409458
0.00843123
0.00774897
0.0065887
0.0065887
0.000188095
0.000327873
0.00206937
0.00450462
0.00487918
0.0057864
0.00459659
0.00392958
0.00392863
0.00392954
0.00392943
0.00437792
0.00395202
0.00337837
0.00337824
0.0088176
0.0169642
0.0160596
0.00971548
0.000188095
0.000188122
0.000188826
0.000401668
0.00269876
0.00900828
0.0186206
0.0164703
0.0103775
0.0133315
0.0139313
0.0164453
0.0140874
0.00784474
0.00347724
0.013063
0.0171208
0.0154292
0.0111769
0.000774744
0.0013309
0.001864
0.00248508
0.00930675
0.0255856
0.0259986
0.0217313
0.0344921
0.0408889
0.0369274
0.0319322
0.0353694
0.0359806
0.026001
0.0103608
0.0103478
0.0103464
0.0103385
0.00316618
0.00399006
0.00771035
0.0100092
0.0105125
0.0133288
0.0146192
0.00783115
0.0310769
0.0423265
0.0424029
0.0287405
0.0287398
0.0287925
0.0445179
0.0362018
0.0103189
0.0103157
0.0103242
0.00538365
0.00306871
0.00488145
0.00796149
0.0102416
0.0101063
0.00667848
0.00779787
0.0151481
0.042402
0.0424082
0.0283816
0.030654
0.039162
0.050574
0.0534223
0.0457137
0.0384457
0.0338713
0.00498213
0.00306347
0.00457528
0.00651274
0.00597335
0.00595686
0.00597338
0.0119493
0.0145698
0.0146046
0.0147945
0.02234
0.0499288
0.087032
0.0715715
0.0534012
0.0519353
0.0406143
0.0383229
0.00308214
0.00308604
0.00363302
0.00371483
0.00858114
0.0117886
0.0139718
0.0186916
0.0625469
0.024965
0.0147708
0.0314365
0.0600203
0.0960788
0.0960622
0.0672563
0.0460928
0.038495
0.0284317
0.000658673
0.000682218
0.000712603
0.000296079
0.000216216
0.000137549
0.000167718
0.0002716
0.000278042
0.000103442
4.08024e-06
0.000496557
0.00115583
0.00303469
0.00545911
0.00916767
0.0143001
0.0100692
0.00159858
0.00160833
0.00185325
0.00402963
0.0430724
0.000656934
0.000657107
0.000788024
0.0017529
0.00190509
0.000435176
0.000435134
0.000434784
0.000431678
0.000263227
4.50089e-06
4.4896e-06
0.00014854
0.000906259
0.00376791
0.00829129
0.00550194
0.00550031
0.0057612
0.00609967
0.00501912
0.00545886
0.0297329
0.00143706
0.000659671
0.0024453
0.00282857
0.00211957
0.002653
0.00304872
0.00230285
0.00211891
0.00713207
0.0088247
0.00571554
0.00101048
0.000800459
0.00440688
0.0125677
0.0094639
0.0102903
0.0353994
0.037687
0.0261271
0.0100201
0.0105198
0.0672044
0.0288951
0.0461674
0.0421681
0.0158534
0.0278523
0.0475206
0.0363677
0.0337219
0.0556157
0.0704393
0.0311056
0.00814327
0.00678031
0.0113122
0.0585862
0.0705735
0.0302786
0.0225389
0.0378362
0.037761
0.0277893
0.0420384
0.067221
0.0511967
0.0136091
0.0204775
0.0442736
0.049626
0.0498081
0.0604084
0.0704388
0.0704457
0.0704419
0.0704516
0.0600169
0.0596423
0.0734872
0.0806659
0.0806848
0.0745728
0.00147566
0.0014753
0.00148134
0.00335967
0.019499
0.0418255
0.0234305
0.00374571
0.00277964
0.00606766
0.00926126
0.0223205
0.0374044
0.0354275
0.0191051
0.0166247
0.039686
0.0792339
0.0806738
0.0806659
0.0806848
0.080677
0.0806971
0.0688599
0.00574078
0.00108873
0.0010097
-2.54732e-16
0.0227635
0.00635265
0.000482945
0.000463173
0.000490301
0.000488981
0.000485566
0.00063624
0.000476988
0.000459137
0.00044564
0.000781391
0.0103604
0.0344831
0.0518511
0.0563981
0.0469161
0.0291051
0.0169476
0.0114368
0.010355
0.00555288
4.25414e-20
0.0242734
0.0759628
0.10265
0.000385697
0.000363455
0.000328074
0.000329516
0.000328074
0.000623659
0.000362938
0.000304568
0.000301194
0.000323271
0.00213614
0.00485249
0.00594575
0.00501826
0.0019382
0.000767254
4.67156e-05
9.22249e-05
0.00608677
0.0294023
0.132307
0.701816
0.801928
0.788117
0.819991
0.735304
0.626827
0.527862
0.456337
0.400106
0.343209
0.28867
0.250667
0.220782
0.196882
0.186193
0.188137
0.206307
0.24561
0.309232
0.392247
0.520153
0.661405
0.796559
0.979516
0.987284
0.999603
0.999674
0.999766
0.99955
0.999111
0.999028
0.999308
0.999366
0.998586
0.996474
0.996038
0.99713
0.995665
0.991743
0.981433
0.960899
0.958435
0.96771
0.981715
0.994377
0.99693
0.999045
0.999991
0.999989
0.999976
1
1
0.999999
0.999992
0.999922
0.999776
0.999827
0.999997
0.999997
0.999997
0.999997
0.999995
0.998585
0.983323
0.979164
0.996401
0.999951
0.99994
0.99706
0.999237
0.999995
1
1
1
1
1
1
1
0.999998
0.999993
0.999985
0.999984
0.99998
0.999975
0.999982
0.999951
0.999382
1
1
0.999958
0.999799
0.998606
0.999805
0.999999
1
1
1
1
0.999999
0.999998
0.999997
0.999999
0.999998
0.999996
0.999997
0.999999
0.999985
0.999975
0.999973
0.999992
1
1
0.999998
0.999985
0.999999
0.999999
1
1
1
1
0.999996
0.999975
0.999977
0.999996
1
1
1
1
1
1
0.999991
0.999988
0.999996
0.999999
1
0.999961
0.999929
1
1
1
1
0.999997
0.999977
0.999972
0.999972
0.999982
0.999984
0.999986
0.999992
0.999997
0.999958
0.999934
0.999934
0.999954
0.999965
0.999987
0.999953
0.999934
0.999933
0.999932
1
1
1
0.999999
0.999984
0.999981
0.999991
0.999973
0.999912
0.999905
0.999905
0.999908
0.999917
0.999917
0.99993
0.99996
0.999969
0.999969
0.999976
0.999984
0.999992
0.999998
1
1
1
1
0.999999
0.999995
0.999999
0.999998
0.999968
0.999911
0.999916
0.999953
0.999975
0.99997
0.999971
0.999984
0.999993
0.999996
0.999999
1
1
1
1
1
1
1
1
1
1
1
0.999997
0.999989
0.999991
0.999996
1
1
1
1
1
1
1
1
1
1
1
1
0.999999
1
1
1
1
1
1
0.999999
1
1
1
1
1
1
1
1
1
1
1
1
1
1
1
1
1
1
1
1
1
1
1
1
1
1
1
1
1
1
1
1
1
1
1
1
1
1
1
1
1
1
1
1
1
1
1
1
1
1
1
1
1
1
1
1
1
1
1
1
1
1
1
1
1
1
1
1
1
1
1
1
1
1
1
1
1
1
1
1
1
1
1
1
1
1
1
1
1
1
1
1
1
1
1
1
1
1
1
1
1
1
1
1
1
1
1
1
1
1
1
1
1
1
1
1
1
1
1
1
1
1
1
1
1
1
1
1
1
1
1
1
1
1
1
1
1
1
1
1
1
1
1
1
1
1
1
1
1
1
1
1
1
1
1
1
1
1
1
1
1
1
1
1
1
1
1
1
1
1
1
1
1
1
1
1
1
1
1
1
1
1
1
1
1
1
1
1
1
1
1
1
1
1
1
1
1
1
1
1
1
1
1
1
1
1
1
1
1
1
1
1
1
1
1
1
1
1
1
1
1
1
1
1
1
1
1
1
1
1
1
1
1
1
1
1
1
1
1
1
1
1
1
1
1
1
1
1
1
1
1
1
1
1
1
1
1
1
1
1
1
1
1
1
1
1
1
1
1
1
1
1
1
0.999999
0.999999
1
1
1
1
1
1
1
1
1
1
1
1
1
1
1
1
1
1
1
1
0.999999
0.999999
0.999999
0.999999
1
1
1
1
1
1
1
1
1
1
1
1
1
1
1
1
1
1
1
0.999999
0.999999
0.999999
0.999999
1
1
1
1
1
1
1
1
1
1
1
1
1
1
1
1
1
1
1
0.999999
0.999999
0.999999
0.999999
0.999999
1
1
1
1
1
1
1
1
1
1
1
1
1
1
1
1
1
1
1
1
0.999999
0.999999
0.999999
1
1
1
1
1
1
1
1
1
1
1
1
1
1
1
1
1
1
1
1
1
0.999999
0.999999
1
1
1
1
1
1
1
1
1
1
1
1
1
1
1
1
1
1
1
1
1
0.999999
1
1
1
1
1
1
1
1
1
1
1
1
1
1
1
1
1
1
1
1
1
1
1
1
1
1
1
1
1
1
1
1
1
1
1
1
1
1
1
1
1
1
1
1
1
1
1
1
1
1
1
1
1
1
1
1
1
1
1
1
1
1
1
1
1
1
1
1
1
1
1
1
1
1
1
1
1
1
1
1
1
1
1
1
1
1
1
1
1
1
1
1
1
1
1
1
1
1
1
1
1
1
1
1
1
1
1
1
0.999999
1
1
1
1
1
1
1
1
1
1
1
1
1
1
1
1
1
1
1
1
1
1
0.048549
0.0465651
0.0448624
0.0437439
0.0484194
0.0482819
0.048197
0.0470873
0.0232725
0.0317083
0.0237259
0.0226992
0.0616482
0.0609995
0.0531243
0.0583315
0.00842334
0.000382159
0.000400058
0.00109449
-6.38574e-15
-5.32664e-14
-2.48155e-13
-4.65905e-13
-2.62146e-20
-7.71885e-20
-3.02165e-19
-3.3538e-19
0.0821794
0.180403
0.292018
0.355004
0.789392
0.894629
0.948346
0.971187
0.996747
0.999091
0.998677
0.99866
0.999995
0.999999
1
1
0.999979
0.999999
1
1
0.999965
0.999968
0.999983
0.999999
0.999929
0.999929
0.99993
0.99998
0.999948
0.999984
0.999995
0.999997
0.999999
0.999998
0.999997
0.999998
1
0.999999
1
1
0.999999
0.999999
0.999999
1
1
1
1
1
1
1
1
1
1
1
1
1
1
1
1
1
1
1
1
1
1
1
1
1
1
1
1
1
1
1
1
1
1
1
1
1
1
1
1
1
1
1
1
1
1
1
1
1
1
1
1
1
1
1
1
1
1
1
1
1
1
1
1
1
1
1
1
1
1
1
1
1
1
1
1
1
1
1
1
1
1
1
1
1
1
1
1
1
1
1
1
1
1
1
1
1
0.0206576
0.00681248
0.00550426
0.0153897
0.0292395
0.0338868
0.0335111
0.0373737
0.112267
0.109119
0.0782957
0.0364394
0.0960696
0.0960788
0.0960788
0.0960788
0.0380441
0.00239431
0.00239299
0.0437078
0.0152863
0.0180864
0.0446875
0.0747868
0.0867053
0.0927718
0.135917
0.123828
0.0500653
0.0194583
0.01269
0.0830574
0.0960755
0.0574919
0.010243
0.00712944
0.00254674
0.00240034
0.0230959
0.0451926
0.0577253
0.0551445
0.0325364
0.0292438
0.0980623
0.185656
0.150621
0.0153117
0.00937627
0.00936353
0.0151093
0.0346766
0.00281078
0.000590661
0.00083848
0.00281076
0.00285198
0.0635585
0.0633268
0.0415573
0.00389197
0.000471146
0.000471656
0.0542341
0.185691
0.185722
0.185762
0.161271
0.08553
0.0232538
0.00102828
0.000668346
0.0015804
0.000865324
0.00179246
0.00319989
0.00444116
0.00446427
0.000893989
0.00064842
0.000574382
0.000550319
0.000549548
0.0425106
0.165776
0.186415
0.186516
0.107759
0.0518837
0.0017133
0.000733597
0.0302648
0.0535634
0.00461116
0.00433608
-2.72412e-22
0.000198625
0.00056699
0.000640709
0.000699916
0.000667067
0.000652327
0.000701892
0.000704526
0.0209925
0.0388994
0.0252626
0.0150974
0.00161167
0.00159741
0.0479484
0.371256
0.0479759
0.00722153
0.000540382
0.0086135
0.0174396
0.0318285
0.0594498
0.098757
0.12552
0.133465
0.136289
0.13823
0.122675
0.113496
0.116732
0.138663
0.0994207
0.0958732
0.377476
0.105023
0.00891996
0.444485
0.572052
0.629421
0.687592
0.75569
0.820941
0.854353
0.870085
0.881937
0.885803
0.883014
0.882358
0.89358
0.922184
0.871425
0.631718
0.82414
0.474174
0.0233708
0.988054
0.995157
0.996667
0.996608
0.998106
0.999211
0.999521
0.999727
0.999679
0.999766
0.999909
0.99998
0.99998
0.99998
0.999558
0.997326
0.988665
0.914718
0.587846
0.998403
1
1
1
1
1
1
1
0.999999
0.999989
0.999921
0.99988
0.999928
0.999981
0.999972
0.999334
0.999963
0.999818
0.999519
1
1
0.999999
0.999998
0.999985
0.999978
0.999989
0.999997
0.999993
0.999921
0.999805
0.999722
0.999722
0.999866
1
1
1
1
1
0.999999
1
0.999999
0.999997
0.999968
0.999955
0.999955
0.999955
0.999981
0.999983
0.999982
0.999891
0.999729
0.999725
0.999739
0.999913
0.999998
1
1
0.999984
0.999975
0.999995
0.999998
0.999994
0.999978
0.999963
0.999964
0.999967
0.999986
0.999998
0.999998
0.999976
0.999757
0.999734
0.999815
0.999935
0.999998
1
0.999957
0.999914
0.999919
0.999988
0.999998
0.999993
0.99998
0.999983
0.999995
0.999998
0.999997
0.999996
0.999996
0.999962
0.999749
0.999902
0.999977
0.999997
1
0.999943
0.999907
0.999906
0.999932
0.999997
1
0.999988
0.999965
0.999967
0.999994
0.999992
0.999966
0.999969
0.999956
0.999751
0.999995
0.999994
0.999991
1
0.999998
0.999929
0.999926
0.999964
0.999999
1
0.999991
0.999957
0.99996
0.999991
0.999993
0.999842
0.999729
0.999716
0.999858
0.999995
0.999995
0.999963
0.99992
0.999998
0.99998
0.999979
0.999988
0.999988
0.999968
0.999957
0.999957
0.999969
0.999998
0.999998
0.999796
0.999686
0.999686
0.999801
0.999995
0.999961
0.999726
0.999726
0.999998
0.999997
0.99997
0.999947
0.999947
0.999947
0.999955
0.999984
0.999998
0.999999
0.999999
0.99996
0.999694
0.999686
0.9998
0.999995
0.999894
0.999723
0.999723
0.999996
0.999992
0.999983
0.999979
0.999984
0.999993
0.999997
0.999997
0.999996
0.999996
0.999998
1
0.999893
0.99972
0.999919
0.999991
0.999959
0.999723
0.999726
1
1
1
1
1
1
0.999999
0.999998
0.999999
0.999999
1
1
1
0.999978
0.999997
0.999977
0.999903
0.999767
0.999756
1
1
1
1
1
1
1
1
1
1
1
1
1
1
0.999999
0.999978
0.999866
0.999975
0.999954
1
1
1
1
1
1
1
1
1
1
1
1
1
1
1
0.999996
0.999943
0.999975
0.999932
1
1
1
1
1
1
1
1
1
1
1
1
1
1
1
0.999998
0.999998
0.999954
0.999808
1
1
1
1
1
1
1
1
1
1
1
1
1
1
1
0.999998
0.999998
0.999948
0.999808
1
1
1
1
1
1
1
1
1
1
1
1
1
1
1
0.999998
0.999999
0.999994
0.999831
1
1
1
1
1
1
1
1
1
1
1
1
1
1
1
1
1
1
0.999994
1
1
1
1
1
1
1
1
1
1
1
1
1
1
0.999999
0.999999
1
1
1
1
1
1
1
1
1
1
1
1
1
1
1
1
1
0.999999
0.999999
0.999999
1
0.999995
1
1
1
1
1
1
1
1
1
1
1
1
1
1
1
0.999999
0.999999
1
0.999993
1
1
1
1
1
1
1
1
1
1
1
1
1
1
0.999999
0.999999
1
1
0.999998
1
1
1
1
1
1
1
1
1
1
1
1
1
1
0.999997
0.999993
0.999998
1
1
1
1
1
1
1
1
1
1
1
1
1
1
1
1
0.999996
0.999993
0.999993
0.999998
0.999998
1
1
1
1
1
1
1
1
1
1
1
1
1
1
0.999999
0.999993
0.999993
0.999993
0.999995
1
1
1
1
1
1
1
1
1
1
1
1
1
1
1
0.999998
0.999993
0.999994
0.999999
1
1
1
1
1
1
1
1
1
1
1
1
1
1
1
1
0.999999
0.999999
1
1
1
1
1
1
1
1
1
1
1
1
1
1
1
1
1
1
1
1
1
1
1
1
1
1
1
1
1
1
1
1
1
1
1
1
1
1
1
1
1
1
1
1
1
1
1
1
1
1
1
1
1
1
1
1
1
1
1
1
1
1
1
1
1
1
1
1
1
1
1
1
1
1
1
1
1
1
1
1
1
1
1
1
1
1
1
1
1
1
1
1
1
1
1
1
1
1
1
1
1
1
1
1
1
1
1
1
1
1
1
1
1
1
1
1
1
1
1
1
1
1
1
1
1
1
1
1
1
1
1
1
1
1
)
;

boundaryField
{
    leftWall
    {
        type            alphaContactAngle;
        thetaProperties 
6
(
(galistan air) 90 0 0 0
(oil galistan) 90 0 0 0
(water oil) 90 0 0 0
(water air) 90 0 0 0
(oil air) 90 0 0 0
(water galistan) 90 0 0 0
);
        value           nonuniform List<scalar> 
50
(
7.33893e-10
9.53699e-10
1.12852e-09
1.129e-09
1.12957e-09
0.000410373
0.00101496
0.000657719
0.000658673
0.000656934
0.00143706
0.0672044
0.067221
0.0418255
0.0227635
0.0242734
0.132307
0.796559
0.99693
0.99706
0.998606
0.999999
1
1
1
1
1
1
1
1
1
1
1
1
1
1
1
1
1
1
1
1
1
1
1
1
1
1
1
0.999999
)
;
    }
    rightWall
    {
        type            alphaContactAngle;
        thetaProperties 
6
(
(galistan air) 90 0 0 0
(oil galistan) 90 0 0 0
(water oil) 90 0 0 0
(water air) 90 0 0 0
(oil air) 90 0 0 0
(water galistan) 90 0 0 0
);
        value           nonuniform List<scalar> 
50
(
0.0065887
0.00971548
0.0111769
0.0103385
0.0103242
0.0338713
0.0383229
0.0284317
0.00239299
0.00240034
0.00285198
0.00319989
0.00433608
0.00722153
0.00891996
0.0233708
0.587846
0.999519
1
1
1
1
1
0.99992
0.999726
0.999723
0.999726
0.999756
0.999954
0.999932
0.999808
0.999808
0.999831
0.999994
1
0.999995
0.999993
0.999998
1
0.999998
0.999995
0.999999
1
1
1
1
1
1
1
1
)
;
    }
    lowerWall
    {
        type            alphaContactAngle;
        thetaProperties 
6
(
(galistan air) 90 0 0 0
(oil galistan) 90 0 0 0
(water oil) 90 0 0 0
(water air) 90 0 0 0
(oil air) 90 0 0 0
(water galistan) 90 0 0 0
);
        value           nonuniform List<scalar> 
62
(
7.33893e-10
6.58515e-10
5.50962e-10
3.4579e-10
1.72849e-10
9.86502e-11
5.28988e-11
2.76085e-11
1.83177e-11
1.587e-11
1.81106e-11
2.52155e-11
3.7814e-11
5.98676e-11
1.01371e-10
1.67209e-10
2.05497e-10
1.55324e-10
1.35826e-10
1.35827e-10
4.42823e-09
4.06842e-08
2.01233e-07
2.01233e-07
2.17859e-06
1.50443e-06
-1.82453e-22
0.00775653
0.0169651
0.0147904
0.0197617
0.048549
0.0465651
0.0448624
0.0437439
0.000603918
0.000188095
0.000188095
0.000774744
0.00316618
0.00538365
0.00498213
0.00308214
0.000603918
0.00339907
0.00687881
0.0108962
0.0108974
0.00661341
0.00434499
0.00392953
0.00394048
0.00394873
0.00397491
0.00390631
0.00337912
0.00337848
0.00409458
0.00843123
0.00774897
0.0065887
0.0065887
)
;
    }
    atmosphere
    {
        type            inletOutlet;
        inletValue      uniform 1;
        value           nonuniform List<scalar> 
46
(
0.999999
1
1
1
1
1
1
1
1
1
1
1
1
1
1
1
1
1
1
1
1
1
1
1
1
1
1
1
1
1
1
1
1
1
1
1
1
1
1
1
1
1
1
1
1
1
)
;
    }
    defaultFaces
    {
        type            empty;
    }
}


// ************************************************************************* //
